

################################################################################
##################################    Init    ##################################
################################################################################
units           real
atom_style      full
pair_style      lj/cut/coul/long 12.0  12.0
kspace_style    pppm 1e-4
bond_style      harmonic
angle_style     harmonic
dihedral_style  fourier
special_bonds   amber
pair_modify     mix arithmetic
read_data       temp.lmps
  orthogonal box = (-45.0567 -45.0567 -45.0567) to (45.0567 45.0567 45.0567)
  1 by 1 by 1 MPI processor grid
  reading atoms ...
  72 atoms
  reading velocities ...
  72 velocities
  scanning bonds ...
  4 = max bonds/atom
  scanning angles ...
  6 = max angles/atom
  scanning dihedrals ...
  16 = max dihedrals/atom
  reading bonds ...
  71 bonds
  reading angles ...
  130 angles
  reading dihedrals ...
  201 dihedrals
  4 = max # of 1-2 neighbors
  7 = max # of 1-3 neighbors
  14 = max # of 1-4 neighbors
  18 = max # of special neighbors
  special bonds CPU = 0.000316143 secs
  read_data CPU = 0.00376797 secs
################################################################################

min_style cg
minimize 1e-06 1e-06 1000000 10000000
WARNING: Using 'neigh_modify every 1 delay 0 check yes' setting during minimization (../min.cpp:190)
PPPM initialization ...
  using 12-bit tables for long-range coulomb (../kspace.cpp:332)
  G vector (1/distance) = 0.128358
  grid = 12 12 12
  stencil order = 5
  estimated absolute RMS force accuracy = 0.0292073
  estimated relative force accuracy = 8.7957e-05
  using double precision KISS FFT
  3d grid and FFT values/proc = 4913 1728
Neighbor list info ...
  update every 1 steps, delay 0 steps, check yes
  max neighbors/atom: 2000, page size: 100000
  master list distance cutoff = 14
  ghost atom cutoff = 14
  binsize = 7, bins = 13 13 13
  1 neighbor lists, perpetual/occasional/extra = 1 0 0
  (1) pair lj/cut/coul/long, perpetual
      attributes: half, newton on
      pair build: half/bin/newton
      stencil: half/bin/3d/newton
      bin: standard
Per MPI rank memory allocation (min/avg/max) = 15.94 | 15.94 | 15.94 Mbytes
Step Temp E_pair E_mol TotEng Press 
       0    643.76059    -134.9551    181.10756    182.39635   -19.203442 
      12    643.76059   -135.44718    46.277163     47.07387    8.5040311 
Loop time of 0.0397739 on 1 procs for 12 steps with 72 atoms

100.6% CPU use with 1 MPI tasks x no OpenMP threads

Minimization stats:
  Stopping criterion = linesearch alpha is zero
  Energy initial, next-to-last, final = 
         46.1524620322     -89.1700202435     -89.1700202435
  Force two-norm initial, final = 583.649 11.672
  Force max component initial, final = 258.842 2.65174
  Final line search alpha, max atom move = 7.87327e-11 2.08779e-10
  Iterations, force evaluations = 12 76

MPI task timing breakdown:
Section |  min time  |  avg time  |  max time  |%varavg| %total
---------------------------------------------------------------
Pair    | 0.007031   | 0.007031   | 0.007031   |   0.0 | 17.68
Bond    | 0.0022645  | 0.0022645  | 0.0022645  |   0.0 |  5.69
Kspace  | 0.030234   | 0.030234   | 0.030234   |   0.0 | 76.01
Neigh   | 0          | 0          | 0          |   0.0 |  0.00
Comm    | 4.1485e-05 | 4.1485e-05 | 4.1485e-05 |   0.0 |  0.10
Output  | 0          | 0          | 0          |   0.0 |  0.00
Modify  | 0          | 0          | 0          |   0.0 |  0.00
Other   |            | 0.0002031  |            |       |  0.51

Nlocal:    72 ave 72 max 72 min
Histogram: 1 0 0 0 0 0 0 0 0 0
Nghost:    0 ave 0 max 0 min
Histogram: 1 0 0 0 0 0 0 0 0 0
Neighs:    2434 ave 2434 max 2434 min
Histogram: 1 0 0 0 0 0 0 0 0 0

Total # of neighbors = 2434
Ave neighs/atom = 33.8056
Ave special neighs/atom = 11.1667
Neighbor list builds = 0
Dangerous builds = 0
write_dump all custom pysimm.dump.tmp id q x y z vx vy vz
quit


################################################################################
##################################    Init    ##################################
################################################################################
units           real
atom_style      full
pair_style      lj/cut/coul/long 12.0  12.0
kspace_style    pppm 1e-4
bond_style      harmonic
angle_style     harmonic
dihedral_style  fourier
special_bonds   amber
pair_modify     mix arithmetic
read_data       temp.lmps
  orthogonal box = (-56.7679 -56.7679 -56.7679) to (56.7679 56.7679 56.7679)
  1 by 1 by 1 MPI processor grid
  reading atoms ...
  79 atoms
  reading velocities ...
  79 velocities
  scanning bonds ...
  4 = max bonds/atom
  scanning angles ...
  6 = max angles/atom
  scanning dihedrals ...
  16 = max dihedrals/atom
  reading bonds ...
  78 bonds
  reading angles ...
  143 angles
  reading dihedrals ...
  222 dihedrals
  4 = max # of 1-2 neighbors
  7 = max # of 1-3 neighbors
  14 = max # of 1-4 neighbors
  18 = max # of special neighbors
  special bonds CPU = 0.000370026 secs
  read_data CPU = 0.00389194 secs
################################################################################

min_style cg
minimize 1e-06 1e-06 1000000 10000000
WARNING: Using 'neigh_modify every 1 delay 0 check yes' setting during minimization (../min.cpp:190)
PPPM initialization ...
  using 12-bit tables for long-range coulomb (../kspace.cpp:332)
  G vector (1/distance) = 0.110594
  grid = 12 12 12
  stencil order = 5
  estimated absolute RMS force accuracy = 0.0399648
  estimated relative force accuracy = 0.000120353
  using double precision KISS FFT
  3d grid and FFT values/proc = 4913 1728
Neighbor list info ...
  update every 1 steps, delay 0 steps, check yes
  max neighbors/atom: 2000, page size: 100000
  master list distance cutoff = 14
  ghost atom cutoff = 14
  binsize = 7, bins = 17 17 17
  1 neighbor lists, perpetual/occasional/extra = 1 0 0
  (1) pair lj/cut/coul/long, perpetual
      attributes: half, newton on
      pair build: half/bin/newton
      stencil: half/bin/3d/newton
      bin: standard
Per MPI rank memory allocation (min/avg/max) = 15.96 | 15.96 | 15.96 Mbytes
Step Temp E_pair E_mol TotEng Press 
       0     632.8002   -152.68499    173.86598    168.30905   -9.2409834 
      13     632.8002   -153.63758    41.417487     34.90797    3.7222036 
Loop time of 0.042161 on 1 procs for 13 steps with 79 atoms

99.6% CPU use with 1 MPI tasks x no OpenMP threads

Minimization stats:
  Stopping criterion = linesearch alpha is zero
  Energy initial, next-to-last, final = 
         21.1809878735     -112.220091102     -112.220091102
  Force two-norm initial, final = 577.532 18.7474
  Force max component initial, final = 215.397 5.19582
  Final line search alpha, max atom move = 2.83789e-11 1.47452e-10
  Iterations, force evaluations = 13 79

MPI task timing breakdown:
Section |  min time  |  avg time  |  max time  |%varavg| %total
---------------------------------------------------------------
Pair    | 0.0082586  | 0.0082586  | 0.0082586  |   0.0 | 19.59
Bond    | 0.0027049  | 0.0027049  | 0.0027049  |   0.0 |  6.42
Kspace  | 0.030921   | 0.030921   | 0.030921   |   0.0 | 73.34
Neigh   | 0          | 0          | 0          |   0.0 |  0.00
Comm    | 2.4319e-05 | 2.4319e-05 | 2.4319e-05 |   0.0 |  0.06
Output  | 0          | 0          | 0          |   0.0 |  0.00
Modify  | 0          | 0          | 0          |   0.0 |  0.00
Other   |            | 0.0002522  |            |       |  0.60

Nlocal:    79 ave 79 max 79 min
Histogram: 1 0 0 0 0 0 0 0 0 0
Nghost:    0 ave 0 max 0 min
Histogram: 1 0 0 0 0 0 0 0 0 0
Neighs:    2792 ave 2792 max 2792 min
Histogram: 1 0 0 0 0 0 0 0 0 0

Total # of neighbors = 2792
Ave neighs/atom = 35.3418
Ave special neighs/atom = 11.2152
Neighbor list builds = 0
Dangerous builds = 0
write_dump all custom pysimm.dump.tmp id q x y z vx vy vz
quit


################################################################################
##################################    Init    ##################################
################################################################################
units           real
atom_style      full
pair_style      lj/cut/coul/long 12.0  12.0
kspace_style    pppm 1e-4
bond_style      harmonic
angle_style     harmonic
dihedral_style  fourier
special_bonds   amber
pair_modify     mix arithmetic
read_data       temp.lmps
  orthogonal box = (-58.6004 -58.6004 -58.6004) to (58.6004 58.6004 58.6004)
  1 by 1 by 1 MPI processor grid
  reading atoms ...
  86 atoms
  reading velocities ...
  86 velocities
  scanning bonds ...
  4 = max bonds/atom
  scanning angles ...
  6 = max angles/atom
  scanning dihedrals ...
  16 = max dihedrals/atom
  reading bonds ...
  85 bonds
  reading angles ...
  156 angles
  reading dihedrals ...
  243 dihedrals
  4 = max # of 1-2 neighbors
  7 = max # of 1-3 neighbors
  14 = max # of 1-4 neighbors
  18 = max # of special neighbors
  special bonds CPU = 0.00041008 secs
  read_data CPU = 0.00388408 secs
################################################################################

min_style cg
minimize 1e-06 1e-06 1000000 10000000
WARNING: Using 'neigh_modify every 1 delay 0 check yes' setting during minimization (../min.cpp:190)
PPPM initialization ...
  using 12-bit tables for long-range coulomb (../kspace.cpp:332)
  G vector (1/distance) = 0.125249
  grid = 15 15 15
  stencil order = 5
  estimated absolute RMS force accuracy = 0.0242214
  estimated relative force accuracy = 7.29421e-05
  using double precision KISS FFT
  3d grid and FFT values/proc = 8000 3375
Neighbor list info ...
  update every 1 steps, delay 0 steps, check yes
  max neighbors/atom: 2000, page size: 100000
  master list distance cutoff = 14
  ghost atom cutoff = 14
  binsize = 7, bins = 17 17 17
  1 neighbor lists, perpetual/occasional/extra = 1 0 0
  (1) pair lj/cut/coul/long, perpetual
      attributes: half, newton on
      pair build: half/bin/newton
      stencil: half/bin/3d/newton
      bin: standard
Per MPI rank memory allocation (min/avg/max) = 16.22 | 16.22 | 16.22 Mbytes
Step Temp E_pair E_mol TotEng Press 
       0    654.54567   -163.44954    191.85537    194.24731   -9.0874326 
      50    654.54567   -171.28628    49.931046    44.486248     3.632325 
Loop time of 0.132782 on 1 procs for 50 steps with 86 atoms

100.1% CPU use with 1 MPI tasks x no OpenMP threads

Minimization stats:
  Stopping criterion = linesearch alpha is zero
  Energy initial, next-to-last, final = 
         28.4058271521     -121.355238264     -121.355238264
  Force two-norm initial, final = 579.35 10.7412
  Force max component initial, final = 268.538 2.45652
  Final line search alpha, max atom move = 8.08958e-11 1.98722e-10
  Iterations, force evaluations = 50 153

MPI task timing breakdown:
Section |  min time  |  avg time  |  max time  |%varavg| %total
---------------------------------------------------------------
Pair    | 0.016035   | 0.016035   | 0.016035   |   0.0 | 12.08
Bond    | 0.0056221  | 0.0056221  | 0.0056221  |   0.0 |  4.23
Kspace  | 0.11041    | 0.11041    | 0.11041    |   0.0 | 83.15
Neigh   | 9.799e-05  | 9.799e-05  | 9.799e-05  |   0.0 |  0.07
Comm    | 6.1274e-05 | 6.1274e-05 | 6.1274e-05 |   0.0 |  0.05
Output  | 0          | 0          | 0          |   0.0 |  0.00
Modify  | 0          | 0          | 0          |   0.0 |  0.00
Other   |            | 0.0005593  |            |       |  0.42

Nlocal:    86 ave 86 max 86 min
Histogram: 1 0 0 0 0 0 0 0 0 0
Nghost:    0 ave 0 max 0 min
Histogram: 1 0 0 0 0 0 0 0 0 0
Neighs:    2881 ave 2881 max 2881 min
Histogram: 1 0 0 0 0 0 0 0 0 0

Total # of neighbors = 2881
Ave neighs/atom = 33.5
Ave special neighs/atom = 11.2558
Neighbor list builds = 1
Dangerous builds = 0
write_dump all custom pysimm.dump.tmp id q x y z vx vy vz
quit


################################################################################
##################################    Init    ##################################
################################################################################
units           real
atom_style      full
pair_style      lj/cut/coul/long 12.0  12.0
kspace_style    pppm 1e-4
bond_style      harmonic
angle_style     harmonic
dihedral_style  fourier
special_bonds   amber
pair_modify     mix arithmetic
read_data       temp.lmps
  orthogonal box = (-60.3249 -60.3249 -60.3249) to (60.3249 60.3249 60.3249)
  1 by 1 by 1 MPI processor grid
  reading atoms ...
  93 atoms
  reading velocities ...
  93 velocities
  scanning bonds ...
  4 = max bonds/atom
  scanning angles ...
  6 = max angles/atom
  scanning dihedrals ...
  16 = max dihedrals/atom
  reading bonds ...
  92 bonds
  reading angles ...
  169 angles
  reading dihedrals ...
  264 dihedrals
  4 = max # of 1-2 neighbors
  7 = max # of 1-3 neighbors
  14 = max # of 1-4 neighbors
  18 = max # of special neighbors
  special bonds CPU = 0.000319004 secs
  read_data CPU = 0.00408697 secs
################################################################################

min_style cg
minimize 1e-06 1e-06 1000000 10000000
WARNING: Using 'neigh_modify every 1 delay 0 check yes' setting during minimization (../min.cpp:190)
PPPM initialization ...
  using 12-bit tables for long-range coulomb (../kspace.cpp:332)
  G vector (1/distance) = 0.122989
  grid = 15 15 15
  stencil order = 5
  estimated absolute RMS force accuracy = 0.0261913
  estimated relative force accuracy = 7.88742e-05
  using double precision KISS FFT
  3d grid and FFT values/proc = 8000 3375
Neighbor list info ...
  update every 1 steps, delay 0 steps, check yes
  max neighbors/atom: 2000, page size: 100000
  master list distance cutoff = 14
  ghost atom cutoff = 14
  binsize = 7, bins = 18 18 18
  1 neighbor lists, perpetual/occasional/extra = 1 0 0
  (1) pair lj/cut/coul/long, perpetual
      attributes: half, newton on
      pair build: half/bin/newton
      stencil: half/bin/3d/newton
      bin: standard
Per MPI rank memory allocation (min/avg/max) = 16.22 | 16.22 | 16.22 Mbytes
Step Temp E_pair E_mol TotEng Press 
       0    554.53934   -175.07647    187.26167    164.25903   -6.0207906 
      11    554.53934   -176.05188    53.038167    29.060123    4.8522536 
Loop time of 0.0685968 on 1 procs for 11 steps with 93 atoms

100.6% CPU use with 1 MPI tasks x no OpenMP threads

Minimization stats:
  Stopping criterion = linesearch alpha is zero
  Energy initial, next-to-last, final = 
         12.1851977024     -123.013710705     -123.013710705
  Force two-norm initial, final = 581.065 17.2244
  Force max component initial, final = 257.216 4.97331
  Final line search alpha, max atom move = 2.58138e-11 1.2838e-10
  Iterations, force evaluations = 11 74

MPI task timing breakdown:
Section |  min time  |  avg time  |  max time  |%varavg| %total
---------------------------------------------------------------
Pair    | 0.0089726  | 0.0089726  | 0.0089726  |   0.0 | 13.08
Bond    | 0.0030513  | 0.0030513  | 0.0030513  |   0.0 |  4.45
Kspace  | 0.05629    | 0.05629    | 0.05629    |   0.0 | 82.06
Neigh   | 0          | 0          | 0          |   0.0 |  0.00
Comm    | 3.1948e-05 | 3.1948e-05 | 3.1948e-05 |   0.0 |  0.05
Output  | 0          | 0          | 0          |   0.0 |  0.00
Modify  | 0          | 0          | 0          |   0.0 |  0.00
Other   |            | 0.0002508  |            |       |  0.37

Nlocal:    93 ave 93 max 93 min
Histogram: 1 0 0 0 0 0 0 0 0 0
Nghost:    0 ave 0 max 0 min
Histogram: 1 0 0 0 0 0 0 0 0 0
Neighs:    3253 ave 3253 max 3253 min
Histogram: 1 0 0 0 0 0 0 0 0 0

Total # of neighbors = 3253
Ave neighs/atom = 34.9785
Ave special neighs/atom = 11.2903
Neighbor list builds = 0
Dangerous builds = 0
write_dump all custom pysimm.dump.tmp id q x y z vx vy vz
quit


################################################################################
##################################    Init    ##################################
################################################################################
units           real
atom_style      full
pair_style      lj/cut/coul/long 12.0  12.0
kspace_style    pppm 1e-4
bond_style      harmonic
angle_style     harmonic
dihedral_style  fourier
special_bonds   amber
pair_modify     mix arithmetic
read_data       temp.lmps
  orthogonal box = (-61.9561 -61.9561 -61.9561) to (61.9561 61.9561 61.9561)
  1 by 1 by 1 MPI processor grid
  reading atoms ...
  100 atoms
  reading velocities ...
  100 velocities
  scanning bonds ...
  4 = max bonds/atom
  scanning angles ...
  6 = max angles/atom
  scanning dihedrals ...
  16 = max dihedrals/atom
  reading bonds ...
  99 bonds
  reading angles ...
  182 angles
  reading dihedrals ...
  285 dihedrals
  4 = max # of 1-2 neighbors
  7 = max # of 1-3 neighbors
  14 = max # of 1-4 neighbors
  18 = max # of special neighbors
  special bonds CPU = 0.000320911 secs
  read_data CPU = 0.00406408 secs
################################################################################

min_style cg
minimize 1e-06 1e-06 1000000 10000000
WARNING: Using 'neigh_modify every 1 delay 0 check yes' setting during minimization (../min.cpp:190)
PPPM initialization ...
  using 12-bit tables for long-range coulomb (../kspace.cpp:332)
  G vector (1/distance) = 0.120921
  grid = 15 15 15
  stencil order = 5
  estimated absolute RMS force accuracy = 0.0281023
  estimated relative force accuracy = 8.46294e-05
  using double precision KISS FFT
  3d grid and FFT values/proc = 8000 3375
Neighbor list info ...
  update every 1 steps, delay 0 steps, check yes
  max neighbors/atom: 2000, page size: 100000
  master list distance cutoff = 14
  ghost atom cutoff = 14
  binsize = 7, bins = 18 18 18
  1 neighbor lists, perpetual/occasional/extra = 1 0 0
  (1) pair lj/cut/coul/long, perpetual
      attributes: half, newton on
      pair build: half/bin/newton
      stencil: half/bin/3d/newton
      bin: standard
Per MPI rank memory allocation (min/avg/max) = 16.23 | 16.23 | 16.23 Mbytes
Step Temp E_pair E_mol TotEng Press 
       0    599.12061   -201.40381    183.81783    159.21462   -6.6224096 
      14    599.12061   -202.01595    49.737117    24.521777    3.5067063 
Loop time of 0.0734999 on 1 procs for 14 steps with 100 atoms

100.7% CPU use with 1 MPI tasks x no OpenMP threads

Minimization stats:
  Stopping criterion = linesearch alpha is zero
  Energy initial, next-to-last, final = 
        -17.5859884306     -152.278832274     -152.278832274
  Force two-norm initial, final = 584.692 14.6916
  Force max component initial, final = 280.821 3.06846
  Final line search alpha, max atom move = 3.6184e-11 1.11029e-10
  Iterations, force evaluations = 14 81

MPI task timing breakdown:
Section |  min time  |  avg time  |  max time  |%varavg| %total
---------------------------------------------------------------
Pair    | 0.0098286  | 0.0098286  | 0.0098286  |   0.0 | 13.37
Bond    | 0.0035384  | 0.0035384  | 0.0035384  |   0.0 |  4.81
Kspace  | 0.059793   | 0.059793   | 0.059793   |   0.0 | 81.35
Neigh   | 0          | 0          | 0          |   0.0 |  0.00
Comm    | 2.4557e-05 | 2.4557e-05 | 2.4557e-05 |   0.0 |  0.03
Output  | 0          | 0          | 0          |   0.0 |  0.00
Modify  | 0          | 0          | 0          |   0.0 |  0.00
Other   |            | 0.0003152  |            |       |  0.43

Nlocal:    100 ave 100 max 100 min
Histogram: 1 0 0 0 0 0 0 0 0 0
Nghost:    0 ave 0 max 0 min
Histogram: 1 0 0 0 0 0 0 0 0 0
Neighs:    3357 ave 3357 max 3357 min
Histogram: 1 0 0 0 0 0 0 0 0 0

Total # of neighbors = 3357
Ave neighs/atom = 33.57
Ave special neighs/atom = 11.32
Neighbor list builds = 0
Dangerous builds = 0
write_dump all custom pysimm.dump.tmp id q x y z vx vy vz
quit


################################################################################
##################################    Init    ##################################
################################################################################
units           real
atom_style      full
pair_style      lj/cut/coul/long 12.0  12.0
kspace_style    pppm 1e-4
bond_style      harmonic
angle_style     harmonic
dihedral_style  fourier
special_bonds   amber
pair_modify     mix arithmetic
read_data       temp.lmps
  orthogonal box = (-63.5057 -63.5057 -63.5057) to (63.5057 63.5057 63.5057)
  1 by 1 by 1 MPI processor grid
  reading atoms ...
  107 atoms
  reading velocities ...
  107 velocities
  scanning bonds ...
  4 = max bonds/atom
  scanning angles ...
  6 = max angles/atom
  scanning dihedrals ...
  16 = max dihedrals/atom
  reading bonds ...
  106 bonds
  reading angles ...
  195 angles
  reading dihedrals ...
  306 dihedrals
  4 = max # of 1-2 neighbors
  7 = max # of 1-3 neighbors
  14 = max # of 1-4 neighbors
  18 = max # of special neighbors
  special bonds CPU = 0.000252962 secs
  read_data CPU = 0.00401807 secs
################################################################################

min_style cg
minimize 1e-06 1e-06 1000000 10000000
WARNING: Using 'neigh_modify every 1 delay 0 check yes' setting during minimization (../min.cpp:190)
PPPM initialization ...
  using 12-bit tables for long-range coulomb (../kspace.cpp:332)
  G vector (1/distance) = 0.119017
  grid = 15 15 15
  stencil order = 5
  estimated absolute RMS force accuracy = 0.0299569
  estimated relative force accuracy = 9.02144e-05
  using double precision KISS FFT
  3d grid and FFT values/proc = 8000 3375
Neighbor list info ...
  update every 1 steps, delay 0 steps, check yes
  max neighbors/atom: 2000, page size: 100000
  master list distance cutoff = 14
  ghost atom cutoff = 14
  binsize = 7, bins = 19 19 19
  1 neighbor lists, perpetual/occasional/extra = 1 0 0
  (1) pair lj/cut/coul/long, perpetual
      attributes: half, newton on
      pair build: half/bin/newton
      stencil: half/bin/3d/newton
      bin: standard
Per MPI rank memory allocation (min/avg/max) = 16.23 | 16.23 | 16.23 Mbytes
Step Temp E_pair E_mol TotEng Press 
       0    590.80962   -227.22223    192.01846     151.4719   -5.2243376 
      15    590.80962   -229.98207    57.832913    14.526516    4.0972532 
Loop time of 0.075779 on 1 procs for 15 steps with 107 atoms

100.3% CPU use with 1 MPI tasks x no OpenMP threads

Minimization stats:
  Stopping criterion = linesearch alpha is zero
  Energy initial, next-to-last, final = 
        -35.2037707992     -172.149157488     -172.149157488
  Force two-norm initial, final = 583.287 18.9818
  Force max component initial, final = 281.207 6.07332
  Final line search alpha, max atom move = 2.17504e-11 1.32097e-10
  Iterations, force evaluations = 15 82

MPI task timing breakdown:
Section |  min time  |  avg time  |  max time  |%varavg| %total
---------------------------------------------------------------
Pair    | 0.012389   | 0.012389   | 0.012389   |   0.0 | 16.35
Bond    | 0.0036776  | 0.0036776  | 0.0036776  |   0.0 |  4.85
Kspace  | 0.059388   | 0.059388   | 0.059388   |   0.0 | 78.37
Neigh   | 0          | 0          | 0          |   0.0 |  0.00
Comm    | 3.8624e-05 | 3.8624e-05 | 3.8624e-05 |   0.0 |  0.05
Output  | 0          | 0          | 0          |   0.0 |  0.00
Modify  | 0          | 0          | 0          |   0.0 |  0.00
Other   |            | 0.0002861  |            |       |  0.38

Nlocal:    107 ave 107 max 107 min
Histogram: 1 0 0 0 0 0 0 0 0 0
Nghost:    0 ave 0 max 0 min
Histogram: 1 0 0 0 0 0 0 0 0 0
Neighs:    4501 ave 4501 max 4501 min
Histogram: 1 0 0 0 0 0 0 0 0 0

Total # of neighbors = 4501
Ave neighs/atom = 42.0654
Ave special neighs/atom = 11.3458
Neighbor list builds = 0
Dangerous builds = 0
write_dump all custom pysimm.dump.tmp id q x y z vx vy vz
quit


################################################################################
##################################    Init    ##################################
################################################################################
units           real
atom_style      full
pair_style      lj/cut/coul/long 12.0  12.0
kspace_style    pppm 1e-4
bond_style      harmonic
angle_style     harmonic
dihedral_style  fourier
special_bonds   amber
pair_modify     mix arithmetic
read_data       temp.lmps
  orthogonal box = (-64.9831 -64.9831 -64.9831) to (64.9831 64.9831 64.9831)
  1 by 1 by 1 MPI processor grid
  reading atoms ...
  114 atoms
  reading velocities ...
  114 velocities
  scanning bonds ...
  4 = max bonds/atom
  scanning angles ...
  6 = max angles/atom
  scanning dihedrals ...
  16 = max dihedrals/atom
  reading bonds ...
  113 bonds
  reading angles ...
  208 angles
  reading dihedrals ...
  327 dihedrals
  4 = max # of 1-2 neighbors
  7 = max # of 1-3 neighbors
  14 = max # of 1-4 neighbors
  18 = max # of special neighbors
  special bonds CPU = 0.000292063 secs
  read_data CPU = 0.00401688 secs
################################################################################

min_style cg
minimize 1e-06 1e-06 1000000 10000000
WARNING: Using 'neigh_modify every 1 delay 0 check yes' setting during minimization (../min.cpp:190)
PPPM initialization ...
  using 12-bit tables for long-range coulomb (../kspace.cpp:332)
  G vector (1/distance) = 0.117253
  grid = 15 15 15
  stencil order = 5
  estimated absolute RMS force accuracy = 0.0317574
  estimated relative force accuracy = 9.56363e-05
  using double precision KISS FFT
  3d grid and FFT values/proc = 8000 3375
Neighbor list info ...
  update every 1 steps, delay 0 steps, check yes
  max neighbors/atom: 2000, page size: 100000
  master list distance cutoff = 14
  ghost atom cutoff = 14
  binsize = 7, bins = 19 19 19
  1 neighbor lists, perpetual/occasional/extra = 1 0 0
  (1) pair lj/cut/coul/long, perpetual
      attributes: half, newton on
      pair build: half/bin/newton
      stencil: half/bin/3d/newton
      bin: standard
Per MPI rank memory allocation (min/avg/max) = 16.23 | 16.23 | 16.23 Mbytes
Step Temp E_pair E_mol TotEng Press 
       0    635.31709   -231.49701    194.71108     177.2089   -4.2507674 
      25    635.31709   -237.78684    59.233633    35.441622    4.8897068 
Loop time of 0.093646 on 1 procs for 25 steps with 114 atoms

100.4% CPU use with 1 MPI tasks x no OpenMP threads

Minimization stats:
  Stopping criterion = linesearch alpha is zero
  Energy initial, next-to-last, final = 
        -36.7859299664      -178.55320888      -178.55320888
  Force two-norm initial, final = 578.982 20.5615
  Force max component initial, final = 274.568 4.45722
  Final line search alpha, max atom move = 1.69778e-11 7.56738e-11
  Iterations, force evaluations = 25 103

MPI task timing breakdown:
Section |  min time  |  avg time  |  max time  |%varavg| %total
---------------------------------------------------------------
Pair    | 0.014146   | 0.014146   | 0.014146   |   0.0 | 15.11
Bond    | 0.0048811  | 0.0048811  | 0.0048811  |   0.0 |  5.21
Kspace  | 0.074195   | 0.074195   | 0.074195   |   0.0 | 79.23
Neigh   | 0          | 0          | 0          |   0.0 |  0.00
Comm    | 4.2915e-05 | 4.2915e-05 | 4.2915e-05 |   0.0 |  0.05
Output  | 0          | 0          | 0          |   0.0 |  0.00
Modify  | 0          | 0          | 0          |   0.0 |  0.00
Other   |            | 0.000381   |            |       |  0.41

Nlocal:    114 ave 114 max 114 min
Histogram: 1 0 0 0 0 0 0 0 0 0
Nghost:    0 ave 0 max 0 min
Histogram: 1 0 0 0 0 0 0 0 0 0
Neighs:    4065 ave 4065 max 4065 min
Histogram: 1 0 0 0 0 0 0 0 0 0

Total # of neighbors = 4065
Ave neighs/atom = 35.6579
Ave special neighs/atom = 11.3684
Neighbor list builds = 0
Dangerous builds = 0
write_dump all custom pysimm.dump.tmp id q x y z vx vy vz
quit


################################################################################
##################################    Init    ##################################
################################################################################
units           real
atom_style      full
pair_style      lj/cut/coul/long 12.0  12.0
kspace_style    pppm 1e-4
bond_style      harmonic
angle_style     harmonic
dihedral_style  fourier
special_bonds   amber
pair_modify     mix arithmetic
read_data       temp.lmps
  orthogonal box = (-66.3962 -66.3962 -66.3962) to (66.3962 66.3962 66.3962)
  1 by 1 by 1 MPI processor grid
  reading atoms ...
  121 atoms
  reading velocities ...
  121 velocities
  scanning bonds ...
  4 = max bonds/atom
  scanning angles ...
  6 = max angles/atom
  scanning dihedrals ...
  16 = max dihedrals/atom
  reading bonds ...
  120 bonds
  reading angles ...
  221 angles
  reading dihedrals ...
  348 dihedrals
  4 = max # of 1-2 neighbors
  7 = max # of 1-3 neighbors
  14 = max # of 1-4 neighbors
  18 = max # of special neighbors
  special bonds CPU = 0.000317812 secs
  read_data CPU = 0.00404119 secs
################################################################################

min_style cg
minimize 1e-06 1e-06 1000000 10000000
WARNING: Using 'neigh_modify every 1 delay 0 check yes' setting during minimization (../min.cpp:190)
PPPM initialization ...
  using 12-bit tables for long-range coulomb (../kspace.cpp:332)
  G vector (1/distance) = 0.115611
  grid = 15 15 15
  stencil order = 5
  estimated absolute RMS force accuracy = 0.033506
  estimated relative force accuracy = 0.000100902
  using double precision KISS FFT
  3d grid and FFT values/proc = 8000 3375
Neighbor list info ...
  update every 1 steps, delay 0 steps, check yes
  max neighbors/atom: 2000, page size: 100000
  master list distance cutoff = 14
  ghost atom cutoff = 14
  binsize = 7, bins = 19 19 19
  1 neighbor lists, perpetual/occasional/extra = 1 0 0
  (1) pair lj/cut/coul/long, perpetual
      attributes: half, newton on
      pair build: half/bin/newton
      stencil: half/bin/3d/newton
      bin: standard
Per MPI rank memory allocation (min/avg/max) = 16.23 | 16.23 | 16.23 Mbytes
Step Temp E_pair E_mol TotEng Press 
       0     585.6267   -252.19975    194.41324    151.69052   -4.6392816 
      13     585.6267   -252.52794    60.934509    17.883603    3.8025047 
Loop time of 0.075578 on 1 procs for 13 steps with 121 atoms

100.5% CPU use with 1 MPI tasks x no OpenMP threads

Minimization stats:
  Stopping criterion = linesearch alpha is zero
  Energy initial, next-to-last, final = 
         -57.786512334     -191.593432494     -191.593432494
  Force two-norm initial, final = 581.29 15.2384
  Force max component initial, final = 254.366 4.0201
  Final line search alpha, max atom move = 3.49317e-11 1.40429e-10
  Iterations, force evaluations = 13 79

MPI task timing breakdown:
Section |  min time  |  avg time  |  max time  |%varavg| %total
---------------------------------------------------------------
Pair    | 0.012315   | 0.012315   | 0.012315   |   0.0 | 16.29
Bond    | 0.0040529  | 0.0040529  | 0.0040529  |   0.0 |  5.36
Kspace  | 0.058863   | 0.058863   | 0.058863   |   0.0 | 77.88
Neigh   | 0          | 0          | 0          |   0.0 |  0.00
Comm    | 4.3631e-05 | 4.3631e-05 | 4.3631e-05 |   0.0 |  0.06
Output  | 0          | 0          | 0          |   0.0 |  0.00
Modify  | 0          | 0          | 0          |   0.0 |  0.00
Other   |            | 0.0003035  |            |       |  0.40

Nlocal:    121 ave 121 max 121 min
Histogram: 1 0 0 0 0 0 0 0 0 0
Nghost:    0 ave 0 max 0 min
Histogram: 1 0 0 0 0 0 0 0 0 0
Neighs:    4438 ave 4438 max 4438 min
Histogram: 1 0 0 0 0 0 0 0 0 0

Total # of neighbors = 4438
Ave neighs/atom = 36.6777
Ave special neighs/atom = 11.3884
Neighbor list builds = 0
Dangerous builds = 0
write_dump all custom pysimm.dump.tmp id q x y z vx vy vz
quit


################################################################################
##################################    Init    ##################################
################################################################################
units           real
atom_style      full
pair_style      lj/cut/coul/long 12.0  12.0
kspace_style    pppm 1e-4
bond_style      harmonic
angle_style     harmonic
dihedral_style  fourier
special_bonds   amber
pair_modify     mix arithmetic
read_data       temp.lmps
  orthogonal box = (-67.7516 -67.7516 -67.7516) to (67.7516 67.7516 67.7516)
  1 by 1 by 1 MPI processor grid
  reading atoms ...
  128 atoms
  reading velocities ...
  128 velocities
  scanning bonds ...
  4 = max bonds/atom
  scanning angles ...
  6 = max angles/atom
  scanning dihedrals ...
  16 = max dihedrals/atom
  reading bonds ...
  127 bonds
  reading angles ...
  234 angles
  reading dihedrals ...
  369 dihedrals
  4 = max # of 1-2 neighbors
  7 = max # of 1-3 neighbors
  14 = max # of 1-4 neighbors
  18 = max # of special neighbors
  special bonds CPU = 0.00031209 secs
  read_data CPU = 0.00418997 secs
################################################################################

min_style cg
minimize 1e-06 1e-06 1000000 10000000
WARNING: Using 'neigh_modify every 1 delay 0 check yes' setting during minimization (../min.cpp:190)
PPPM initialization ...
  using 12-bit tables for long-range coulomb (../kspace.cpp:332)
  G vector (1/distance) = 0.114077
  grid = 15 15 15
  stencil order = 5
  estimated absolute RMS force accuracy = 0.0352052
  estimated relative force accuracy = 0.000106019
  using double precision KISS FFT
  3d grid and FFT values/proc = 8000 3375
Neighbor list info ...
  update every 1 steps, delay 0 steps, check yes
  max neighbors/atom: 2000, page size: 100000
  master list distance cutoff = 14
  ghost atom cutoff = 14
  binsize = 7, bins = 20 20 20
  1 neighbor lists, perpetual/occasional/extra = 1 0 0
  (1) pair lj/cut/coul/long, perpetual
      attributes: half, newton on
      pair build: half/bin/newton
      stencil: half/bin/3d/newton
      bin: standard
Per MPI rank memory allocation (min/avg/max) = 16.24 | 16.24 | 16.24 Mbytes
Step Temp E_pair E_mol TotEng Press 
       0    552.50246   -263.47564    196.92147    142.60275   -5.0293362 
      15    552.50246   -265.12868    63.126878    7.1551241    3.0118451 
Loop time of 0.0805368 on 1 procs for 15 steps with 128 atoms

100.6% CPU use with 1 MPI tasks x no OpenMP threads

Minimization stats:
  Stopping criterion = linesearch alpha is zero
  Energy initial, next-to-last, final = 
        -66.5541695713     -202.001797644     -202.001797644
  Force two-norm initial, final = 580.501 16.7502
  Force max component initial, final = 220.952 4.95661
  Final line search alpha, max atom move = 2.97482e-11 1.4745e-10
  Iterations, force evaluations = 15 84

MPI task timing breakdown:
Section |  min time  |  avg time  |  max time  |%varavg| %total
---------------------------------------------------------------
Pair    | 0.012948   | 0.012948   | 0.012948   |   0.0 | 16.08
Bond    | 0.004483   | 0.004483   | 0.004483   |   0.0 |  5.57
Kspace  | 0.062745   | 0.062745   | 0.062745   |   0.0 | 77.91
Neigh   | 0          | 0          | 0          |   0.0 |  0.00
Comm    | 4.1008e-05 | 4.1008e-05 | 4.1008e-05 |   0.0 |  0.05
Output  | 0          | 0          | 0          |   0.0 |  0.00
Modify  | 0          | 0          | 0          |   0.0 |  0.00
Other   |            | 0.00032    |            |       |  0.40

Nlocal:    128 ave 128 max 128 min
Histogram: 1 0 0 0 0 0 0 0 0 0
Nghost:    0 ave 0 max 0 min
Histogram: 1 0 0 0 0 0 0 0 0 0
Neighs:    4255 ave 4255 max 4255 min
Histogram: 1 0 0 0 0 0 0 0 0 0

Total # of neighbors = 4255
Ave neighs/atom = 33.2422
Ave special neighs/atom = 11.4062
Neighbor list builds = 0
Dangerous builds = 0
write_dump all custom pysimm.dump.tmp id q x y z vx vy vz
quit


################################################################################
##################################    Init    ##################################
################################################################################
units           real
atom_style      full
pair_style      lj/cut/coul/long 12.0  12.0
kspace_style    pppm 1e-4
bond_style      harmonic
angle_style     harmonic
dihedral_style  fourier
special_bonds   amber
pair_modify     mix arithmetic
read_data       temp.lmps
  orthogonal box = (-69.0548 -69.0548 -69.0548) to (69.0548 69.0548 69.0548)
  1 by 1 by 1 MPI processor grid
  reading atoms ...
  135 atoms
  reading velocities ...
  135 velocities
  scanning bonds ...
  4 = max bonds/atom
  scanning angles ...
  6 = max angles/atom
  scanning dihedrals ...
  16 = max dihedrals/atom
  reading bonds ...
  134 bonds
  reading angles ...
  247 angles
  reading dihedrals ...
  390 dihedrals
  4 = max # of 1-2 neighbors
  7 = max # of 1-3 neighbors
  14 = max # of 1-4 neighbors
  18 = max # of special neighbors
  special bonds CPU = 0.000352859 secs
  read_data CPU = 0.00423121 secs
################################################################################

min_style cg
minimize 1e-06 1e-06 1000000 10000000
WARNING: Using 'neigh_modify every 1 delay 0 check yes' setting during minimization (../min.cpp:190)
PPPM initialization ...
  using 12-bit tables for long-range coulomb (../kspace.cpp:332)
  G vector (1/distance) = 0.112638
  grid = 15 15 15
  stencil order = 5
  estimated absolute RMS force accuracy = 0.0368572
  estimated relative force accuracy = 0.000110994
  using double precision KISS FFT
  3d grid and FFT values/proc = 8000 3375
Neighbor list info ...
  update every 1 steps, delay 0 steps, check yes
  max neighbors/atom: 2000, page size: 100000
  master list distance cutoff = 14
  ghost atom cutoff = 14
  binsize = 7, bins = 20 20 20
  1 neighbor lists, perpetual/occasional/extra = 1 0 0
  (1) pair lj/cut/coul/long, perpetual
      attributes: half, newton on
      pair build: half/bin/newton
      stencil: half/bin/3d/newton
      bin: standard
Per MPI rank memory allocation (min/avg/max) = 16.24 | 16.24 | 16.24 Mbytes
Step Temp E_pair E_mol TotEng Press 
       0    477.07759   -288.05266    211.25654    113.76229   -4.9188375 
      10    477.07759   -287.78498    77.658512   -19.568057    2.5515848 
Loop time of 0.0768871 on 1 procs for 10 steps with 135 atoms

100.1% CPU use with 1 MPI tasks x no OpenMP threads

Minimization stats:
  Stopping criterion = linesearch alpha is zero
  Energy initial, next-to-last, final = 
         -76.796112993     -210.126464421     -210.126464421
  Force two-norm initial, final = 582.78 17.0125
  Force max component initial, final = 265.348 6.14291
  Final line search alpha, max atom move = 2.81176e-11 1.72724e-10
  Iterations, force evaluations = 10 75

MPI task timing breakdown:
Section |  min time  |  avg time  |  max time  |%varavg| %total
---------------------------------------------------------------
Pair    | 0.014645   | 0.014645   | 0.014645   |   0.0 | 19.05
Bond    | 0.0043011  | 0.0043011  | 0.0043011  |   0.0 |  5.59
Kspace  | 0.057569   | 0.057569   | 0.057569   |   0.0 | 74.87
Neigh   | 0          | 0          | 0          |   0.0 |  0.00
Comm    | 6.8665e-05 | 6.8665e-05 | 6.8665e-05 |   0.0 |  0.09
Output  | 0          | 0          | 0          |   0.0 |  0.00
Modify  | 0          | 0          | 0          |   0.0 |  0.00
Other   |            | 0.0003035  |            |       |  0.39

Nlocal:    135 ave 135 max 135 min
Histogram: 1 0 0 0 0 0 0 0 0 0
Nghost:    0 ave 0 max 0 min
Histogram: 1 0 0 0 0 0 0 0 0 0
Neighs:    5503 ave 5503 max 5503 min
Histogram: 1 0 0 0 0 0 0 0 0 0

Total # of neighbors = 5503
Ave neighs/atom = 40.763
Ave special neighs/atom = 11.4222
Neighbor list builds = 0
Dangerous builds = 0
write_dump all custom pysimm.dump.tmp id q x y z vx vy vz
quit


################################################################################
##################################    Init    ##################################
################################################################################
units           real
atom_style      full
pair_style      lj/cut/coul/long 12.0  12.0
kspace_style    pppm 1e-4
bond_style      harmonic
angle_style     harmonic
dihedral_style  fourier
special_bonds   amber
pair_modify     mix arithmetic
read_data       temp.lmps
  orthogonal box = (-70.3106 -70.3106 -70.3106) to (70.3106 70.3106 70.3106)
  1 by 1 by 1 MPI processor grid
  reading atoms ...
  142 atoms
  reading velocities ...
  142 velocities
  scanning bonds ...
  4 = max bonds/atom
  scanning angles ...
  6 = max angles/atom
  scanning dihedrals ...
  16 = max dihedrals/atom
  reading bonds ...
  141 bonds
  reading angles ...
  260 angles
  reading dihedrals ...
  411 dihedrals
  4 = max # of 1-2 neighbors
  7 = max # of 1-3 neighbors
  14 = max # of 1-4 neighbors
  18 = max # of special neighbors
  special bonds CPU = 0.000282049 secs
  read_data CPU = 0.00473809 secs
################################################################################

min_style cg
minimize 1e-06 1e-06 1000000 10000000
WARNING: Using 'neigh_modify every 1 delay 0 check yes' setting during minimization (../min.cpp:190)
PPPM initialization ...
  using 12-bit tables for long-range coulomb (../kspace.cpp:332)
  G vector (1/distance) = 0.111283
  grid = 15 15 15
  stencil order = 5
  estimated absolute RMS force accuracy = 0.038464
  estimated relative force accuracy = 0.000115833
  using double precision KISS FFT
  3d grid and FFT values/proc = 8000 3375
Neighbor list info ...
  update every 1 steps, delay 0 steps, check yes
  max neighbors/atom: 2000, page size: 100000
  master list distance cutoff = 14
  ghost atom cutoff = 14
  binsize = 7, bins = 21 21 21
  1 neighbor lists, perpetual/occasional/extra = 1 0 0
  (1) pair lj/cut/coul/long, perpetual
      attributes: half, newton on
      pair build: half/bin/newton
      stencil: half/bin/3d/newton
      bin: standard
Per MPI rank memory allocation (min/avg/max) = 16.25 | 16.25 | 16.25 Mbytes
Step Temp E_pair E_mol TotEng Press 
       0    473.38876   -299.89444    218.12196    117.19007   -4.9351477 
      10    473.38876   -300.50307    84.371839   -17.168673    1.9284995 
Loop time of 0.086066 on 1 procs for 10 steps with 142 atoms

97.6% CPU use with 1 MPI tasks x no OpenMP threads

Minimization stats:
  Stopping criterion = linesearch alpha is zero
  Energy initial, next-to-last, final = 
        -81.7724866885     -216.131229517     -216.131229517
  Force two-norm initial, final = 582.483 20.7112
  Force max component initial, final = 207.575 4.20027
  Final line search alpha, max atom move = 1.90468e-11 8.00015e-11
  Iterations, force evaluations = 10 76

MPI task timing breakdown:
Section |  min time  |  avg time  |  max time  |%varavg| %total
---------------------------------------------------------------
Pair    | 0.016847   | 0.016847   | 0.016847   |   0.0 | 19.57
Bond    | 0.0051026  | 0.0051026  | 0.0051026  |   0.0 |  5.93
Kspace  | 0.063754   | 0.063754   | 0.063754   |   0.0 | 74.08
Neigh   | 0          | 0          | 0          |   0.0 |  0.00
Comm    | 4.4107e-05 | 4.4107e-05 | 4.4107e-05 |   0.0 |  0.05
Output  | 0          | 0          | 0          |   0.0 |  0.00
Modify  | 0          | 0          | 0          |   0.0 |  0.00
Other   |            | 0.000319   |            |       |  0.37

Nlocal:    142 ave 142 max 142 min
Histogram: 1 0 0 0 0 0 0 0 0 0
Nghost:    0 ave 0 max 0 min
Histogram: 1 0 0 0 0 0 0 0 0 0
Neighs:    5569 ave 5569 max 5569 min
Histogram: 1 0 0 0 0 0 0 0 0 0

Total # of neighbors = 5569
Ave neighs/atom = 39.2183
Ave special neighs/atom = 11.4366
Neighbor list builds = 0
Dangerous builds = 0
write_dump all custom pysimm.dump.tmp id q x y z vx vy vz
quit


################################################################################
##################################    Init    ##################################
################################################################################
units           real
atom_style      full
pair_style      lj/cut/coul/long 12.0  12.0
kspace_style    pppm 1e-4
bond_style      harmonic
angle_style     harmonic
dihedral_style  fourier
special_bonds   amber
pair_modify     mix arithmetic
read_data       temp.lmps
  orthogonal box = (-71.5231 -71.5231 -71.5231) to (71.5231 71.5231 71.5231)
  1 by 1 by 1 MPI processor grid
  reading atoms ...
  149 atoms
  reading velocities ...
  149 velocities
  scanning bonds ...
  4 = max bonds/atom
  scanning angles ...
  6 = max angles/atom
  scanning dihedrals ...
  16 = max dihedrals/atom
  reading bonds ...
  148 bonds
  reading angles ...
  273 angles
  reading dihedrals ...
  432 dihedrals
  4 = max # of 1-2 neighbors
  7 = max # of 1-3 neighbors
  14 = max # of 1-4 neighbors
  18 = max # of special neighbors
  special bonds CPU = 0.000266075 secs
  read_data CPU = 0.00417185 secs
################################################################################

min_style cg
minimize 1e-06 1e-06 1000000 10000000
WARNING: Using 'neigh_modify every 1 delay 0 check yes' setting during minimization (../min.cpp:190)
PPPM initialization ...
  using 12-bit tables for long-range coulomb (../kspace.cpp:332)
  G vector (1/distance) = 0.110004
  grid = 15 15 15
  stencil order = 5
  estimated absolute RMS force accuracy = 0.0400276
  estimated relative force accuracy = 0.000120542
  using double precision KISS FFT
  3d grid and FFT values/proc = 8000 3375
Neighbor list info ...
  update every 1 steps, delay 0 steps, check yes
  max neighbors/atom: 2000, page size: 100000
  master list distance cutoff = 14
  ghost atom cutoff = 14
  binsize = 7, bins = 21 21 21
  1 neighbor lists, perpetual/occasional/extra = 1 0 0
  (1) pair lj/cut/coul/long, perpetual
      attributes: half, newton on
      pair build: half/bin/newton
      stencil: half/bin/3d/newton
      bin: standard
Per MPI rank memory allocation (min/avg/max) = 16.25 | 16.25 | 16.25 Mbytes
Step Temp E_pair E_mol TotEng Press 
       0    431.22287   -319.98536    213.22088    83.473751   -3.9016092 
      14    431.22287    -320.4944    79.358429   -50.897739    3.2640426 
Loop time of 0.0849192 on 1 procs for 14 steps with 149 atoms

100.1% CPU use with 1 MPI tasks x no OpenMP threads

Minimization stats:
  Stopping criterion = linesearch alpha is zero
  Energy initial, next-to-last, final = 
        -106.764479671      -241.13596961      -241.13596961
  Force two-norm initial, final = 583.708 11.7968
  Force max component initial, final = 259.322 3.18982
  Final line search alpha, max atom move = 6.93116e-11 2.21092e-10
  Iterations, force evaluations = 14 81

MPI task timing breakdown:
Section |  min time  |  avg time  |  max time  |%varavg| %total
---------------------------------------------------------------
Pair    | 0.018637   | 0.018637   | 0.018637   |   0.0 | 21.95
Bond    | 0.0051842  | 0.0051842  | 0.0051842  |   0.0 |  6.10
Kspace  | 0.060743   | 0.060743   | 0.060743   |   0.0 | 71.53
Neigh   | 0          | 0          | 0          |   0.0 |  0.00
Comm    | 3.5763e-05 | 3.5763e-05 | 3.5763e-05 |   0.0 |  0.04
Output  | 0          | 0          | 0          |   0.0 |  0.00
Modify  | 0          | 0          | 0          |   0.0 |  0.00
Other   |            | 0.000319   |            |       |  0.38

Nlocal:    149 ave 149 max 149 min
Histogram: 1 0 0 0 0 0 0 0 0 0
Nghost:    0 ave 0 max 0 min
Histogram: 1 0 0 0 0 0 0 0 0 0
Neighs:    6643 ave 6643 max 6643 min
Histogram: 1 0 0 0 0 0 0 0 0 0

Total # of neighbors = 6643
Ave neighs/atom = 44.5839
Ave special neighs/atom = 11.4497
Neighbor list builds = 0
Dangerous builds = 0
write_dump all custom pysimm.dump.tmp id q x y z vx vy vz
quit


################################################################################
##################################    Init    ##################################
################################################################################
units           real
atom_style      full
pair_style      lj/cut/coul/long 12.0  12.0
kspace_style    pppm 1e-4
bond_style      harmonic
angle_style     harmonic
dihedral_style  fourier
special_bonds   amber
pair_modify     mix arithmetic
read_data       temp.lmps
  orthogonal box = (-72.6958 -72.6958 -72.6958) to (72.6958 72.6958 72.6958)
  1 by 1 by 1 MPI processor grid
  reading atoms ...
  156 atoms
  reading velocities ...
  156 velocities
  scanning bonds ...
  4 = max bonds/atom
  scanning angles ...
  6 = max angles/atom
  scanning dihedrals ...
  16 = max dihedrals/atom
  reading bonds ...
  155 bonds
  reading angles ...
  286 angles
  reading dihedrals ...
  453 dihedrals
  4 = max # of 1-2 neighbors
  7 = max # of 1-3 neighbors
  14 = max # of 1-4 neighbors
  18 = max # of special neighbors
  special bonds CPU = 0.000296116 secs
  read_data CPU = 0.00442886 secs
################################################################################

min_style cg
minimize 1e-06 1e-06 1000000 10000000
WARNING: Using 'neigh_modify every 1 delay 0 check yes' setting during minimization (../min.cpp:190)
PPPM initialization ...
  using 12-bit tables for long-range coulomb (../kspace.cpp:332)
  G vector (1/distance) = 0.113631
  grid = 16 16 16
  stencil order = 5
  estimated absolute RMS force accuracy = 0.0355853
  estimated relative force accuracy = 0.000107164
  using double precision KISS FFT
  3d grid and FFT values/proc = 9261 4096
Neighbor list info ...
  update every 1 steps, delay 0 steps, check yes
  max neighbors/atom: 2000, page size: 100000
  master list distance cutoff = 14
  ghost atom cutoff = 14
  binsize = 7, bins = 21 21 21
  1 neighbor lists, perpetual/occasional/extra = 1 0 0
  (1) pair lj/cut/coul/long, perpetual
      attributes: half, newton on
      pair build: half/bin/newton
      stencil: half/bin/3d/newton
      bin: standard
Per MPI rank memory allocation (min/avg/max) = 16.36 | 16.36 | 16.36 Mbytes
Step Temp E_pair E_mol TotEng Press 
       0    381.63413   -361.30513    225.39709    40.416684   -4.2416595 
      13    381.63413   -360.89018    91.163484   -93.401974    2.7184952 
Loop time of 0.105333 on 1 procs for 13 steps with 156 atoms

98.7% CPU use with 1 MPI tasks x no OpenMP threads

Minimization stats:
  Stopping criterion = linesearch alpha is zero
  Energy initial, next-to-last, final = 
        -135.908038766     -269.726696329     -269.726696329
  Force two-norm initial, final = 582.411 16.6151
  Force max component initial, final = 284.178 5.10634
  Final line search alpha, max atom move = 3.20528e-11 1.63672e-10
  Iterations, force evaluations = 13 79

MPI task timing breakdown:
Section |  min time  |  avg time  |  max time  |%varavg| %total
---------------------------------------------------------------
Pair    | 0.02518    | 0.02518    | 0.02518    |   0.0 | 23.91
Bond    | 0.0056689  | 0.0056689  | 0.0056689  |   0.0 |  5.38
Kspace  | 0.074098   | 0.074098   | 0.074098   |   0.0 | 70.35
Neigh   | 0          | 0          | 0          |   0.0 |  0.00
Comm    | 4.4584e-05 | 4.4584e-05 | 4.4584e-05 |   0.0 |  0.04
Output  | 0          | 0          | 0          |   0.0 |  0.00
Modify  | 0          | 0          | 0          |   0.0 |  0.00
Other   |            | 0.0003414  |            |       |  0.32

Nlocal:    156 ave 156 max 156 min
Histogram: 1 0 0 0 0 0 0 0 0 0
Nghost:    0 ave 0 max 0 min
Histogram: 1 0 0 0 0 0 0 0 0 0
Neighs:    8388 ave 8388 max 8388 min
Histogram: 1 0 0 0 0 0 0 0 0 0

Total # of neighbors = 8388
Ave neighs/atom = 53.7692
Ave special neighs/atom = 11.4615
Neighbor list builds = 0
Dangerous builds = 0
write_dump all custom pysimm.dump.tmp id q x y z vx vy vz
quit


################################################################################
##################################    Init    ##################################
################################################################################
units           real
atom_style      full
pair_style      lj/cut/coul/long 12.0  12.0
kspace_style    pppm 1e-4
bond_style      harmonic
angle_style     harmonic
dihedral_style  fourier
special_bonds   amber
pair_modify     mix arithmetic
read_data       temp.lmps
  orthogonal box = (-73.8319 -73.8319 -73.8319) to (73.8319 73.8319 73.8319)
  1 by 1 by 1 MPI processor grid
  reading atoms ...
  163 atoms
  reading velocities ...
  163 velocities
  scanning bonds ...
  4 = max bonds/atom
  scanning angles ...
  6 = max angles/atom
  scanning dihedrals ...
  16 = max dihedrals/atom
  reading bonds ...
  162 bonds
  reading angles ...
  299 angles
  reading dihedrals ...
  474 dihedrals
  4 = max # of 1-2 neighbors
  7 = max # of 1-3 neighbors
  14 = max # of 1-4 neighbors
  18 = max # of special neighbors
  special bonds CPU = 0.000349998 secs
  read_data CPU = 0.0044601 secs
################################################################################

min_style cg
minimize 1e-06 1e-06 1000000 10000000
WARNING: Using 'neigh_modify every 1 delay 0 check yes' setting during minimization (../min.cpp:190)
PPPM initialization ...
  using 12-bit tables for long-range coulomb (../kspace.cpp:332)
  G vector (1/distance) = 0.112461
  grid = 16 16 16
  stencil order = 5
  estimated absolute RMS force accuracy = 0.0369393
  estimated relative force accuracy = 0.000111241
  using double precision KISS FFT
  3d grid and FFT values/proc = 9261 4096
Neighbor list info ...
  update every 1 steps, delay 0 steps, check yes
  max neighbors/atom: 2000, page size: 100000
  master list distance cutoff = 14
  ghost atom cutoff = 14
  binsize = 7, bins = 22 22 22
  1 neighbor lists, perpetual/occasional/extra = 1 0 0
  (1) pair lj/cut/coul/long, perpetual
      attributes: half, newton on
      pair build: half/bin/newton
      stencil: half/bin/3d/newton
      bin: standard
Per MPI rank memory allocation (min/avg/max) = 16.37 | 16.37 | 16.37 Mbytes
Step Temp E_pair E_mol TotEng Press 
       0    351.59759    -357.6701    234.25577    46.369056   -4.8692806 
      10    351.59759    -358.6939    99.590271   -89.320237    1.0756771 
Loop time of 0.165277 on 1 procs for 10 steps with 163 atoms

99.8% CPU use with 1 MPI tasks x no OpenMP threads

Minimization stats:
  Stopping criterion = linesearch alpha is zero
  Energy initial, next-to-last, final = 
        -123.414335279     -259.103628538     -259.103628538
  Force two-norm initial, final = 581.386 16.3773
  Force max component initial, final = 276.943 5.5907
  Final line search alpha, max atom move = 3.14502e-11 1.75829e-10
  Iterations, force evaluations = 10 127

MPI task timing breakdown:
Section |  min time  |  avg time  |  max time  |%varavg| %total
---------------------------------------------------------------
Pair    | 0.045058   | 0.045058   | 0.045058   |   0.0 | 27.26
Bond    | 0.0089309  | 0.0089309  | 0.0089309  |   0.0 |  5.40
Kspace  | 0.11079    | 0.11079    | 0.11079    |   0.0 | 67.03
Neigh   | 0          | 0          | 0          |   0.0 |  0.00
Comm    | 4.53e-05   | 4.53e-05   | 4.53e-05   |   0.0 |  0.03
Output  | 0          | 0          | 0          |   0.0 |  0.00
Modify  | 0          | 0          | 0          |   0.0 |  0.00
Other   |            | 0.0004544  |            |       |  0.27

Nlocal:    163 ave 163 max 163 min
Histogram: 1 0 0 0 0 0 0 0 0 0
Nghost:    0 ave 0 max 0 min
Histogram: 1 0 0 0 0 0 0 0 0 0
Neighs:    10525 ave 10525 max 10525 min
Histogram: 1 0 0 0 0 0 0 0 0 0

Total # of neighbors = 10525
Ave neighs/atom = 64.5706
Ave special neighs/atom = 11.4724
Neighbor list builds = 0
Dangerous builds = 0
write_dump all custom pysimm.dump.tmp id q x y z vx vy vz
quit


################################################################################
##################################    Init    ##################################
################################################################################
units           real
atom_style      full
pair_style      lj/cut/coul/long 12.0  12.0
kspace_style    pppm 1e-4
bond_style      harmonic
angle_style     harmonic
dihedral_style  fourier
special_bonds   amber
pair_modify     mix arithmetic
read_data       temp.lmps
  orthogonal box = (-74.934 -74.934 -74.934) to (74.934 74.934 74.934)
  1 by 1 by 1 MPI processor grid
  reading atoms ...
  170 atoms
  reading velocities ...
  170 velocities
  scanning bonds ...
  4 = max bonds/atom
  scanning angles ...
  6 = max angles/atom
  scanning dihedrals ...
  16 = max dihedrals/atom
  reading bonds ...
  169 bonds
  reading angles ...
  312 angles
  reading dihedrals ...
  495 dihedrals
  4 = max # of 1-2 neighbors
  7 = max # of 1-3 neighbors
  14 = max # of 1-4 neighbors
  18 = max # of special neighbors
  special bonds CPU = 0.000261068 secs
  read_data CPU = 0.00437498 secs
################################################################################

min_style cg
minimize 1e-06 1e-06 1000000 10000000
WARNING: Using 'neigh_modify every 1 delay 0 check yes' setting during minimization (../min.cpp:190)
PPPM initialization ...
  using 12-bit tables for long-range coulomb (../kspace.cpp:332)
  G vector (1/distance) = 0.111347
  grid = 16 16 16
  stencil order = 5
  estimated absolute RMS force accuracy = 0.0382628
  estimated relative force accuracy = 0.000115227
  using double precision KISS FFT
  3d grid and FFT values/proc = 9261 4096
Neighbor list info ...
  update every 1 steps, delay 0 steps, check yes
  max neighbors/atom: 2000, page size: 100000
  master list distance cutoff = 14
  ghost atom cutoff = 14
  binsize = 7, bins = 22 22 22
  1 neighbor lists, perpetual/occasional/extra = 1 0 0
  (1) pair lj/cut/coul/long, perpetual
      attributes: half, newton on
      pair build: half/bin/newton
      stencil: half/bin/3d/newton
      bin: standard
Per MPI rank memory allocation (min/avg/max) = 16.37 | 16.37 | 16.37 Mbytes
Step Temp E_pair E_mol TotEng Press 
       0    380.58132   -403.84252     234.9938    22.871743   -3.3737883 
      15    380.58132   -405.79118    100.97128   -113.09943    2.2996687 
Loop time of 0.113121 on 1 procs for 15 steps with 170 atoms

99.9% CPU use with 1 MPI tasks x no OpenMP threads

Minimization stats:
  Stopping criterion = linesearch alpha is zero
  Energy initial, next-to-last, final = 
        -168.848723914     -304.819899666     -304.819899666
  Force two-norm initial, final = 582.605 17.2094
  Force max component initial, final = 286.498 4.17628
  Final line search alpha, max atom move = 3.85179e-11 1.60862e-10
  Iterations, force evaluations = 15 83

MPI task timing breakdown:
Section |  min time  |  avg time  |  max time  |%varavg| %total
---------------------------------------------------------------
Pair    | 0.034066   | 0.034066   | 0.034066   |   0.0 | 30.11
Bond    | 0.0061944  | 0.0061944  | 0.0061944  |   0.0 |  5.48
Kspace  | 0.072463   | 0.072463   | 0.072463   |   0.0 | 64.06
Neigh   | 0          | 0          | 0          |   0.0 |  0.00
Comm    | 3.0756e-05 | 3.0756e-05 | 3.0756e-05 |   0.0 |  0.03
Output  | 0          | 0          | 0          |   0.0 |  0.00
Modify  | 0          | 0          | 0          |   0.0 |  0.00
Other   |            | 0.0003674  |            |       |  0.32

Nlocal:    170 ave 170 max 170 min
Histogram: 1 0 0 0 0 0 0 0 0 0
Nghost:    0 ave 0 max 0 min
Histogram: 1 0 0 0 0 0 0 0 0 0
Neighs:    11875 ave 11875 max 11875 min
Histogram: 1 0 0 0 0 0 0 0 0 0

Total # of neighbors = 11875
Ave neighs/atom = 69.8529
Ave special neighs/atom = 11.4824
Neighbor list builds = 0
Dangerous builds = 0
write_dump all custom pysimm.dump.tmp id q x y z vx vy vz
quit


################################################################################
##################################    Init    ##################################
################################################################################
units           real
atom_style      full
pair_style      lj/cut/coul/long 12.0  12.0
kspace_style    pppm 1e-4
bond_style      harmonic
angle_style     harmonic
dihedral_style  fourier
special_bonds   amber
pair_modify     mix arithmetic
read_data       temp.lmps
  orthogonal box = (-76.0046 -76.0046 -76.0046) to (76.0046 76.0046 76.0046)
  1 by 1 by 1 MPI processor grid
  reading atoms ...
  177 atoms
  reading velocities ...
  177 velocities
  scanning bonds ...
  4 = max bonds/atom
  scanning angles ...
  6 = max angles/atom
  scanning dihedrals ...
  16 = max dihedrals/atom
  reading bonds ...
  176 bonds
  reading angles ...
  325 angles
  reading dihedrals ...
  516 dihedrals
  4 = max # of 1-2 neighbors
  7 = max # of 1-3 neighbors
  14 = max # of 1-4 neighbors
  18 = max # of special neighbors
  special bonds CPU = 0.000266075 secs
  read_data CPU = 0.00446105 secs
################################################################################

min_style cg
minimize 1e-06 1e-06 1000000 10000000
WARNING: Using 'neigh_modify every 1 delay 0 check yes' setting during minimization (../min.cpp:190)
PPPM initialization ...
  using 12-bit tables for long-range coulomb (../kspace.cpp:332)
  G vector (1/distance) = 0.110285
  grid = 16 16 16
  stencil order = 5
  estimated absolute RMS force accuracy = 0.039557
  estimated relative force accuracy = 0.000119125
  using double precision KISS FFT
  3d grid and FFT values/proc = 9261 4096
Neighbor list info ...
  update every 1 steps, delay 0 steps, check yes
  max neighbors/atom: 2000, page size: 100000
  master list distance cutoff = 14
  ghost atom cutoff = 14
  binsize = 7, bins = 22 22 22
  1 neighbor lists, perpetual/occasional/extra = 1 0 0
  (1) pair lj/cut/coul/long, perpetual
      attributes: half, newton on
      pair build: half/bin/newton
      stencil: half/bin/3d/newton
      bin: standard
Per MPI rank memory allocation (min/avg/max) = 16.37 | 16.37 | 16.37 Mbytes
Step Temp E_pair E_mol TotEng Press 
       0    299.32093   -390.98618    233.93509 -0.020574756   -3.6044976 
      16    299.32093   -391.93467    100.42069   -134.48346    2.0924024 
Loop time of 0.111803 on 1 procs for 16 steps with 177 atoms

100.2% CPU use with 1 MPI tasks x no OpenMP threads

Minimization stats:
  Stopping criterion = linesearch alpha is zero
  Energy initial, next-to-last, final = 
         -157.05109189      -291.51397461      -291.51397461
  Force two-norm initial, final = 582.457 12.3011
  Force max component initial, final = 267.027 2.68332
  Final line search alpha, max atom move = 4.4908e-11 1.20502e-10
  Iterations, force evaluations = 16 85

MPI task timing breakdown:
Section |  min time  |  avg time  |  max time  |%varavg| %total
---------------------------------------------------------------
Pair    | 0.032547   | 0.032547   | 0.032547   |   0.0 | 29.11
Bond    | 0.0063572  | 0.0063572  | 0.0063572  |   0.0 |  5.69
Kspace  | 0.072496   | 0.072496   | 0.072496   |   0.0 | 64.84
Neigh   | 0          | 0          | 0          |   0.0 |  0.00
Comm    | 2.3365e-05 | 2.3365e-05 | 2.3365e-05 |   0.0 |  0.02
Output  | 0          | 0          | 0          |   0.0 |  0.00
Modify  | 0          | 0          | 0          |   0.0 |  0.00
Other   |            | 0.0003798  |            |       |  0.34

Nlocal:    177 ave 177 max 177 min
Histogram: 1 0 0 0 0 0 0 0 0 0
Nghost:    0 ave 0 max 0 min
Histogram: 1 0 0 0 0 0 0 0 0 0
Neighs:    11854 ave 11854 max 11854 min
Histogram: 1 0 0 0 0 0 0 0 0 0

Total # of neighbors = 11854
Ave neighs/atom = 66.9718
Ave special neighs/atom = 11.4915
Neighbor list builds = 0
Dangerous builds = 0
write_dump all custom pysimm.dump.tmp id q x y z vx vy vz
quit


################################################################################
##################################    Init    ##################################
################################################################################
units           real
atom_style      full
pair_style      lj/cut/coul/long 12.0  12.0
kspace_style    pppm 1e-4
bond_style      harmonic
angle_style     harmonic
dihedral_style  fourier
special_bonds   amber
pair_modify     mix arithmetic
read_data       temp.lmps
  orthogonal box = (-77.0459 -77.0459 -77.0459) to (77.0459 77.0459 77.0459)
  1 by 1 by 1 MPI processor grid
  reading atoms ...
  184 atoms
  reading velocities ...
  184 velocities
  scanning bonds ...
  4 = max bonds/atom
  scanning angles ...
  6 = max angles/atom
  scanning dihedrals ...
  16 = max dihedrals/atom
  reading bonds ...
  183 bonds
  reading angles ...
  338 angles
  reading dihedrals ...
  537 dihedrals
  4 = max # of 1-2 neighbors
  7 = max # of 1-3 neighbors
  14 = max # of 1-4 neighbors
  18 = max # of special neighbors
  special bonds CPU = 0.000298023 secs
  read_data CPU = 0.00461602 secs
################################################################################

min_style cg
minimize 1e-06 1e-06 1000000 10000000
WARNING: Using 'neigh_modify every 1 delay 0 check yes' setting during minimization (../min.cpp:190)
PPPM initialization ...
  using 12-bit tables for long-range coulomb (../kspace.cpp:332)
  G vector (1/distance) = 0.118176
  grid = 18 18 18
  stencil order = 5
  estimated absolute RMS force accuracy = 0.0304952
  estimated relative force accuracy = 9.18354e-05
  using double precision KISS FFT
  3d grid and FFT values/proc = 12167 5832
Neighbor list info ...
  update every 1 steps, delay 0 steps, check yes
  max neighbors/atom: 2000, page size: 100000
  master list distance cutoff = 14
  ghost atom cutoff = 14
  binsize = 7, bins = 23 23 23
  1 neighbor lists, perpetual/occasional/extra = 1 0 0
  (1) pair lj/cut/coul/long, perpetual
      attributes: half, newton on
      pair build: half/bin/newton
      stencil: half/bin/3d/newton
      bin: standard
Per MPI rank memory allocation (min/avg/max) = 16.64 | 16.64 | 16.64 Mbytes
Step Temp E_pair E_mol TotEng Press 
       0      306.938   -411.37635    240.79588   -3.1494049   -3.5036817 
      13      306.938   -412.55212    107.63388   -137.48717     2.150193 
Loop time of 0.145995 on 1 procs for 13 steps with 184 atoms

100.0% CPU use with 1 MPI tasks x no OpenMP threads

Minimization stats:
  Stopping criterion = linesearch alpha is zero
  Energy initial, next-to-last, final = 
        -170.580475672     -304.918239694     -304.918239694
  Force two-norm initial, final = 580.282 17.7334
  Force max component initial, final = 245.543 4.4822
  Final line search alpha, max atom move = 2.48879e-11 1.11553e-10
  Iterations, force evaluations = 13 81

MPI task timing breakdown:
Section |  min time  |  avg time  |  max time  |%varavg| %total
---------------------------------------------------------------
Pair    | 0.0345     | 0.0345     | 0.0345     |   0.0 | 23.63
Bond    | 0.0062926  | 0.0062926  | 0.0062926  |   0.0 |  4.31
Kspace  | 0.1048     | 0.1048     | 0.1048     |   0.0 | 71.78
Neigh   | 0          | 0          | 0          |   0.0 |  0.00
Comm    | 2.861e-05  | 2.861e-05  | 2.861e-05  |   0.0 |  0.02
Output  | 0          | 0          | 0          |   0.0 |  0.00
Modify  | 0          | 0          | 0          |   0.0 |  0.00
Other   |            | 0.0003748  |            |       |  0.26

Nlocal:    184 ave 184 max 184 min
Histogram: 1 0 0 0 0 0 0 0 0 0
Nghost:    0 ave 0 max 0 min
Histogram: 1 0 0 0 0 0 0 0 0 0
Neighs:    12852 ave 12852 max 12852 min
Histogram: 1 0 0 0 0 0 0 0 0 0

Total # of neighbors = 12852
Ave neighs/atom = 69.8478
Ave special neighs/atom = 11.5
Neighbor list builds = 0
Dangerous builds = 0
write_dump all custom pysimm.dump.tmp id q x y z vx vy vz
quit


################################################################################
##################################    Init    ##################################
################################################################################
units           real
atom_style      full
pair_style      lj/cut/coul/long 12.0  12.0
kspace_style    pppm 1e-4
bond_style      harmonic
angle_style     harmonic
dihedral_style  fourier
special_bonds   amber
pair_modify     mix arithmetic
read_data       temp.lmps
  orthogonal box = (-78.0598 -78.0598 -78.0598) to (78.0598 78.0598 78.0598)
  1 by 1 by 1 MPI processor grid
  reading atoms ...
  191 atoms
  reading velocities ...
  191 velocities
  scanning bonds ...
  4 = max bonds/atom
  scanning angles ...
  6 = max angles/atom
  scanning dihedrals ...
  16 = max dihedrals/atom
  reading bonds ...
  190 bonds
  reading angles ...
  351 angles
  reading dihedrals ...
  558 dihedrals
  4 = max # of 1-2 neighbors
  7 = max # of 1-3 neighbors
  14 = max # of 1-4 neighbors
  18 = max # of special neighbors
  special bonds CPU = 0.000355005 secs
  read_data CPU = 0.00455809 secs
################################################################################

min_style cg
minimize 1e-06 1e-06 1000000 10000000
WARNING: Using 'neigh_modify every 1 delay 0 check yes' setting during minimization (../min.cpp:190)
PPPM initialization ...
  using 12-bit tables for long-range coulomb (../kspace.cpp:332)
  G vector (1/distance) = 0.117174
  grid = 18 18 18
  stencil order = 5
  estimated absolute RMS force accuracy = 0.0315308
  estimated relative force accuracy = 9.49541e-05
  using double precision KISS FFT
  3d grid and FFT values/proc = 12167 5832
Neighbor list info ...
  update every 1 steps, delay 0 steps, check yes
  max neighbors/atom: 2000, page size: 100000
  master list distance cutoff = 14
  ghost atom cutoff = 14
  binsize = 7, bins = 23 23 23
  1 neighbor lists, perpetual/occasional/extra = 1 0 0
  (1) pair lj/cut/coul/long, perpetual
      attributes: half, newton on
      pair build: half/bin/newton
      stencil: half/bin/3d/newton
      bin: standard
Per MPI rank memory allocation (min/avg/max) = 16.64 | 16.64 | 16.64 Mbytes
Step Temp E_pair E_mol TotEng Press 
       0    273.14536   -424.76585    245.88724   -24.181672   -3.4823491 
      14    273.14536   -426.79621     111.3241   -160.77517    1.7326513 
Loop time of 0.147519 on 1 procs for 14 steps with 191 atoms

100.3% CPU use with 1 MPI tasks x no OpenMP threads

Minimization stats:
  Stopping criterion = linesearch alpha is zero
  Energy initial, next-to-last, final = 
        -178.878615196     -315.472109418     -315.472109418
  Force two-norm initial, final = 583.695 18.5682
  Force max component initial, final = 233.603 4.74634
  Final line search alpha, max atom move = 3.12349e-11 1.48252e-10
  Iterations, force evaluations = 14 81

MPI task timing breakdown:
Section |  min time  |  avg time  |  max time  |%varavg| %total
---------------------------------------------------------------
Pair    | 0.037126   | 0.037126   | 0.037126   |   0.0 | 25.17
Bond    | 0.0065479  | 0.0065479  | 0.0065479  |   0.0 |  4.44
Kspace  | 0.10343    | 0.10343    | 0.10343    |   0.0 | 70.11
Neigh   | 0          | 0          | 0          |   0.0 |  0.00
Comm    | 3.4094e-05 | 3.4094e-05 | 3.4094e-05 |   0.0 |  0.02
Output  | 0          | 0          | 0          |   0.0 |  0.00
Modify  | 0          | 0          | 0          |   0.0 |  0.00
Other   |            | 0.0003805  |            |       |  0.26

Nlocal:    191 ave 191 max 191 min
Histogram: 1 0 0 0 0 0 0 0 0 0
Nghost:    0 ave 0 max 0 min
Histogram: 1 0 0 0 0 0 0 0 0 0
Neighs:    14043 ave 14043 max 14043 min
Histogram: 1 0 0 0 0 0 0 0 0 0

Total # of neighbors = 14043
Ave neighs/atom = 73.5236
Ave special neighs/atom = 11.5079
Neighbor list builds = 0
Dangerous builds = 0
write_dump all custom pysimm.dump.tmp id q x y z vx vy vz
quit


################################################################################
##################################    Init    ##################################
################################################################################
units           real
atom_style      full
pair_style      lj/cut/coul/long 12.0  12.0
kspace_style    pppm 1e-4
bond_style      harmonic
angle_style     harmonic
dihedral_style  fourier
special_bonds   amber
pair_modify     mix arithmetic
read_data       temp.lmps
  orthogonal box = (-79.048 -79.048 -79.048) to (79.048 79.048 79.048)
  1 by 1 by 1 MPI processor grid
  reading atoms ...
  198 atoms
  reading velocities ...
  198 velocities
  scanning bonds ...
  4 = max bonds/atom
  scanning angles ...
  6 = max angles/atom
  scanning dihedrals ...
  16 = max dihedrals/atom
  reading bonds ...
  197 bonds
  reading angles ...
  364 angles
  reading dihedrals ...
  579 dihedrals
  4 = max # of 1-2 neighbors
  7 = max # of 1-3 neighbors
  14 = max # of 1-4 neighbors
  18 = max # of special neighbors
  special bonds CPU = 0.000402927 secs
  read_data CPU = 0.00459981 secs
################################################################################

min_style cg
minimize 1e-06 1e-06 1000000 10000000
WARNING: Using 'neigh_modify every 1 delay 0 check yes' setting during minimization (../min.cpp:190)
PPPM initialization ...
  using 12-bit tables for long-range coulomb (../kspace.cpp:332)
  G vector (1/distance) = 0.116214
  grid = 18 18 18
  stencil order = 5
  estimated absolute RMS force accuracy = 0.0325491
  estimated relative force accuracy = 9.80207e-05
  using double precision KISS FFT
  3d grid and FFT values/proc = 12167 5832
Neighbor list info ...
  update every 1 steps, delay 0 steps, check yes
  max neighbors/atom: 2000, page size: 100000
  master list distance cutoff = 14
  ghost atom cutoff = 14
  binsize = 7, bins = 23 23 23
  1 neighbor lists, perpetual/occasional/extra = 1 0 0
  (1) pair lj/cut/coul/long, perpetual
      attributes: half, newton on
      pair build: half/bin/newton
      stencil: half/bin/3d/newton
      bin: standard
Per MPI rank memory allocation (min/avg/max) = 16.64 | 16.64 | 16.64 Mbytes
Step Temp E_pair E_mol TotEng Press 
       0    314.54649   -455.40634    254.37598   -16.322504   -3.4626247 
      16    314.54649   -463.03458     119.2978   -159.02892    1.3308201 
Loop time of 0.163163 on 1 procs for 16 steps with 198 atoms

99.9% CPU use with 1 MPI tasks x no OpenMP threads

Minimization stats:
  Stopping criterion = linesearch alpha is zero
  Energy initial, next-to-last, final = 
        -201.030362802     -343.736777733     -343.736777733
  Force two-norm initial, final = 590.093 16.1062
  Force max component initial, final = 246.319 4.0809
  Final line search alpha, max atom move = 2.55518e-11 1.04274e-10
  Iterations, force evaluations = 16 87

MPI task timing breakdown:
Section |  min time  |  avg time  |  max time  |%varavg| %total
---------------------------------------------------------------
Pair    | 0.038014   | 0.038014   | 0.038014   |   0.0 | 23.30
Bond    | 0.0076406  | 0.0076406  | 0.0076406  |   0.0 |  4.68
Kspace  | 0.11701    | 0.11701    | 0.11701    |   0.0 | 71.71
Neigh   | 0          | 0          | 0          |   0.0 |  0.00
Comm    | 4.22e-05   | 4.22e-05   | 4.22e-05   |   0.0 |  0.03
Output  | 0          | 0          | 0          |   0.0 |  0.00
Modify  | 0          | 0          | 0          |   0.0 |  0.00
Other   |            | 0.0004592  |            |       |  0.28

Nlocal:    198 ave 198 max 198 min
Histogram: 1 0 0 0 0 0 0 0 0 0
Nghost:    0 ave 0 max 0 min
Histogram: 1 0 0 0 0 0 0 0 0 0
Neighs:    12779 ave 12779 max 12779 min
Histogram: 1 0 0 0 0 0 0 0 0 0

Total # of neighbors = 12779
Ave neighs/atom = 64.5404
Ave special neighs/atom = 11.5152
Neighbor list builds = 0
Dangerous builds = 0
write_dump all custom pysimm.dump.tmp id q x y z vx vy vz
quit


################################################################################
##################################    Init    ##################################
################################################################################
units           real
atom_style      full
pair_style      lj/cut/coul/long 12.0  12.0
kspace_style    pppm 1e-4
bond_style      harmonic
angle_style     harmonic
dihedral_style  fourier
special_bonds   amber
pair_modify     mix arithmetic
read_data       temp.lmps
  orthogonal box = (-80.0121 -80.0121 -80.0121) to (80.0121 80.0121 80.0121)
  1 by 1 by 1 MPI processor grid
  reading atoms ...
  205 atoms
  reading velocities ...
  205 velocities
  scanning bonds ...
  4 = max bonds/atom
  scanning angles ...
  6 = max angles/atom
  scanning dihedrals ...
  16 = max dihedrals/atom
  reading bonds ...
  204 bonds
  reading angles ...
  377 angles
  reading dihedrals ...
  600 dihedrals
  4 = max # of 1-2 neighbors
  7 = max # of 1-3 neighbors
  14 = max # of 1-4 neighbors
  18 = max # of special neighbors
  special bonds CPU = 0.000330925 secs
  read_data CPU = 0.00472903 secs
################################################################################

min_style cg
minimize 1e-06 1e-06 1000000 10000000
WARNING: Using 'neigh_modify every 1 delay 0 check yes' setting during minimization (../min.cpp:190)
PPPM initialization ...
  using 12-bit tables for long-range coulomb (../kspace.cpp:332)
  G vector (1/distance) = 0.115291
  grid = 18 18 18
  stencil order = 5
  estimated absolute RMS force accuracy = 0.0335507
  estimated relative force accuracy = 0.000101037
  using double precision KISS FFT
  3d grid and FFT values/proc = 12167 5832
Neighbor list info ...
  update every 1 steps, delay 0 steps, check yes
  max neighbors/atom: 2000, page size: 100000
  master list distance cutoff = 14
  ghost atom cutoff = 14
  binsize = 7, bins = 23 23 23
  1 neighbor lists, perpetual/occasional/extra = 1 0 0
  (1) pair lj/cut/coul/long, perpetual
      attributes: half, newton on
      pair build: half/bin/newton
      stencil: half/bin/3d/newton
      bin: standard
Per MPI rank memory allocation (min/avg/max) = 16.64 | 16.64 | 16.64 Mbytes
Step Temp E_pair E_mol TotEng Press 
       0     315.1035   -476.09466    252.81732    -31.66755   -2.8380394 
      11     315.1035   -477.43483     119.1548   -166.67024    2.2915068 
Loop time of 0.139785 on 1 procs for 11 steps with 205 atoms

100.1% CPU use with 1 MPI tasks x no OpenMP threads

Minimization stats:
  Stopping criterion = linesearch alpha is zero
  Energy initial, next-to-last, final = 
        -223.277337965     -358.280029296     -358.280029296
  Force two-norm initial, final = 583.835 18.6374
  Force max component initial, final = 258.021 5.43504
  Final line search alpha, max atom move = 2.5855e-11 1.40523e-10
  Iterations, force evaluations = 11 77

MPI task timing breakdown:
Section |  min time  |  avg time  |  max time  |%varavg| %total
---------------------------------------------------------------
Pair    | 0.034925   | 0.034925   | 0.034925   |   0.0 | 24.98
Bond    | 0.0065978  | 0.0065978  | 0.0065978  |   0.0 |  4.72
Kspace  | 0.097872   | 0.097872   | 0.097872   |   0.0 | 70.02
Neigh   | 0          | 0          | 0          |   0.0 |  0.00
Comm    | 3.6001e-05 | 3.6001e-05 | 3.6001e-05 |   0.0 |  0.03
Output  | 0          | 0          | 0          |   0.0 |  0.00
Modify  | 0          | 0          | 0          |   0.0 |  0.00
Other   |            | 0.0003538  |            |       |  0.25

Nlocal:    205 ave 205 max 205 min
Histogram: 1 0 0 0 0 0 0 0 0 0
Nghost:    0 ave 0 max 0 min
Histogram: 1 0 0 0 0 0 0 0 0 0
Neighs:    14135 ave 14135 max 14135 min
Histogram: 1 0 0 0 0 0 0 0 0 0

Total # of neighbors = 14135
Ave neighs/atom = 68.9512
Ave special neighs/atom = 11.522
Neighbor list builds = 0
Dangerous builds = 0
write_dump all custom pysimm.dump.tmp id q x y z vx vy vz
quit


################################################################################
##################################    Init    ##################################
################################################################################
units           real
atom_style      full
pair_style      lj/cut/coul/long 12.0  12.0
kspace_style    pppm 1e-4
bond_style      harmonic
angle_style     harmonic
dihedral_style  fourier
special_bonds   amber
pair_modify     mix arithmetic
read_data       temp.lmps
  orthogonal box = (-80.9535 -80.9535 -80.9535) to (80.9535 80.9535 80.9535)
  1 by 1 by 1 MPI processor grid
  reading atoms ...
  212 atoms
  reading velocities ...
  212 velocities
  scanning bonds ...
  4 = max bonds/atom
  scanning angles ...
  6 = max angles/atom
  scanning dihedrals ...
  16 = max dihedrals/atom
  reading bonds ...
  211 bonds
  reading angles ...
  390 angles
  reading dihedrals ...
  621 dihedrals
  4 = max # of 1-2 neighbors
  7 = max # of 1-3 neighbors
  14 = max # of 1-4 neighbors
  18 = max # of special neighbors
  special bonds CPU = 0.000367165 secs
  read_data CPU = 0.004668 secs
[...]
Histogram: 1 0 0 0 0 0 0 0 0 0

Total # of neighbors = 18383
Ave neighs/atom = 57.9905
Ave special neighs/atom = 11.5899
Neighbor list builds = 0
Dangerous builds = 0
write_dump all custom pysimm.dump.tmp id q x y z vx vy vz
quit


################################################################################
##################################    Init    ##################################
################################################################################
units           real
atom_style      full
pair_style      lj/cut/coul/long 12.0  12.0
kspace_style    pppm 1e-4
bond_style      harmonic
angle_style     harmonic
dihedral_style  fourier
special_bonds   amber
pair_modify     mix arithmetic
read_data       temp.lmps
  orthogonal box = (-93.7218 -93.7218 -93.7218) to (93.7218 93.7218 93.7218)
  1 by 1 by 1 MPI processor grid
  reading atoms ...
  324 atoms
  reading velocities ...
  324 velocities
  scanning bonds ...
  4 = max bonds/atom
  scanning angles ...
  6 = max angles/atom
  scanning dihedrals ...
  16 = max dihedrals/atom
  reading bonds ...
  323 bonds
  reading angles ...
  598 angles
  reading dihedrals ...
  957 dihedrals
  4 = max # of 1-2 neighbors
  7 = max # of 1-3 neighbors
  14 = max # of 1-4 neighbors
  18 = max # of special neighbors
  special bonds CPU = 0.000423908 secs
  read_data CPU = 0.00587296 secs
################################################################################

min_style cg
minimize 1e-06 1e-06 1000000 10000000
WARNING: Using 'neigh_modify every 1 delay 0 check yes' setting during minimization (../min.cpp:190)
PPPM initialization ...
  using 12-bit tables for long-range coulomb (../kspace.cpp:332)
  G vector (1/distance) = 0.111303
  grid = 20 20 20
  stencil order = 5
  estimated absolute RMS force accuracy = 0.038031
  estimated relative force accuracy = 0.000114529
  using double precision KISS FFT
  3d grid and FFT values/proc = 15625 8000
Neighbor list info ...
  update every 1 steps, delay 0 steps, check yes
  max neighbors/atom: 2000, page size: 100000
  master list distance cutoff = 14
  ghost atom cutoff = 14
  binsize = 7, bins = 27 27 27
  1 neighbor lists, perpetual/occasional/extra = 1 0 0
  (1) pair lj/cut/coul/long, perpetual
      attributes: half, newton on
      pair build: half/bin/newton
      stencil: half/bin/3d/newton
      bin: standard
Per MPI rank memory allocation (min/avg/max) = 17.02 | 17.02 | 17.02 Mbytes
Step Temp E_pair E_mol TotEng Press 
       0    183.81298    -760.9735    329.09651   -254.90155   -2.2424787 
      17    183.81298   -762.50001    194.08653   -391.43804   0.84078982 
Loop time of 0.21347 on 1 procs for 17 steps with 324 atoms

100.2% CPU use with 1 MPI tasks x no OpenMP threads

Minimization stats:
  Stopping criterion = linesearch alpha is zero
  Energy initial, next-to-last, final = 
        -431.876987835      -568.41347947      -568.41347947
  Force two-norm initial, final = 583.327 16.4846
  Force max component initial, final = 295.55 4.39231
  Final line search alpha, max atom move = 4.16727e-11 1.83039e-10
  Iterations, force evaluations = 17 87

MPI task timing breakdown:
Section |  min time  |  avg time  |  max time  |%varavg| %total
---------------------------------------------------------------
Pair    | 0.054695   | 0.054695   | 0.054695   |   0.0 | 25.62
Bond    | 0.012464   | 0.012464   | 0.012464   |   0.0 |  5.84
Kspace  | 0.14564    | 0.14564    | 0.14564    |   0.0 | 68.23
Neigh   | 0          | 0          | 0          |   0.0 |  0.00
Comm    | 4.1962e-05 | 4.1962e-05 | 4.1962e-05 |   0.0 |  0.02
Output  | 0          | 0          | 0          |   0.0 |  0.00
Modify  | 0          | 0          | 0          |   0.0 |  0.00
Other   |            | 0.0006282  |            |       |  0.29

Nlocal:    324 ave 324 max 324 min
Histogram: 1 0 0 0 0 0 0 0 0 0
Nghost:    0 ave 0 max 0 min
Histogram: 1 0 0 0 0 0 0 0 0 0
Neighs:    17750 ave 17750 max 17750 min
Histogram: 1 0 0 0 0 0 0 0 0 0

Total # of neighbors = 17750
Ave neighs/atom = 54.784
Ave special neighs/atom = 11.5926
Neighbor list builds = 0
Dangerous builds = 0
write_dump all custom pysimm.dump.tmp id q x y z vx vy vz
quit


################################################################################
##################################    Init    ##################################
################################################################################
units           real
atom_style      full
pair_style      lj/cut/coul/long 12.0  12.0
kspace_style    pppm 1e-4
bond_style      harmonic
angle_style     harmonic
dihedral_style  fourier
special_bonds   amber
pair_modify     mix arithmetic
read_data       temp.lmps
  orthogonal box = (-94.4109 -94.4109 -94.4109) to (94.4109 94.4109 94.4109)
  1 by 1 by 1 MPI processor grid
  reading atoms ...
  331 atoms
  reading velocities ...
  331 velocities
  scanning bonds ...
  4 = max bonds/atom
  scanning angles ...
  6 = max angles/atom
  scanning dihedrals ...
  16 = max dihedrals/atom
  reading bonds ...
  330 bonds
  reading angles ...
  611 angles
  reading dihedrals ...
  978 dihedrals
  4 = max # of 1-2 neighbors
  7 = max # of 1-3 neighbors
  14 = max # of 1-4 neighbors
  18 = max # of special neighbors
  special bonds CPU = 0.000362158 secs
  read_data CPU = 0.00576496 secs
################################################################################

min_style cg
minimize 1e-06 1e-06 1000000 10000000
WARNING: Using 'neigh_modify every 1 delay 0 check yes' setting during minimization (../min.cpp:190)
PPPM initialization ...
  using 12-bit tables for long-range coulomb (../kspace.cpp:332)
  G vector (1/distance) = 0.110754
  grid = 20 20 20
  stencil order = 5
  estimated absolute RMS force accuracy = 0.0386979
  estimated relative force accuracy = 0.000116537
  using double precision KISS FFT
  3d grid and FFT values/proc = 15625 8000
Neighbor list info ...
  update every 1 steps, delay 0 steps, check yes
  max neighbors/atom: 2000, page size: 100000
  master list distance cutoff = 14
  ghost atom cutoff = 14
  binsize = 7, bins = 27 27 27
  1 neighbor lists, perpetual/occasional/extra = 1 0 0
  (1) pair lj/cut/coul/long, perpetual
      attributes: half, newton on
      pair build: half/bin/newton
      stencil: half/bin/3d/newton
      bin: standard
Per MPI rank memory allocation (min/avg/max) = 17.02 | 17.02 | 17.02 Mbytes
Step Temp E_pair E_mol TotEng Press 
       0    186.69191   -787.61604    333.47553   -270.49778   -2.2073046 
      24    186.69191   -788.54297    189.17558   -415.72465     1.098672 
Loop time of 0.24575 on 1 procs for 24 steps with 331 atoms

99.7% CPU use with 1 MPI tasks x no OpenMP threads

Minimization stats:
  Stopping criterion = linesearch alpha is zero
  Energy initial, next-to-last, final = 
        -454.140509875     -599.367387332     -599.367387332
  Force two-norm initial, final = 585.355 19.1886
  Force max component initial, final = 280.858 4.49856
  Final line search alpha, max atom move = 3.25159e-11 1.46274e-10
  Iterations, force evaluations = 24 101

MPI task timing breakdown:
Section |  min time  |  avg time  |  max time  |%varavg| %total
---------------------------------------------------------------
Pair    | 0.062986   | 0.062986   | 0.062986   |   0.0 | 25.63
Bond    | 0.014452   | 0.014452   | 0.014452   |   0.0 |  5.88
Kspace  | 0.16754    | 0.16754    | 0.16754    |   0.0 | 68.18
Neigh   | 0          | 0          | 0          |   0.0 |  0.00
Comm    | 5.2214e-05 | 5.2214e-05 | 5.2214e-05 |   0.0 |  0.02
Output  | 0          | 0          | 0          |   0.0 |  0.00
Modify  | 0          | 0          | 0          |   0.0 |  0.00
Other   |            | 0.0007167  |            |       |  0.29

Nlocal:    331 ave 331 max 331 min
Histogram: 1 0 0 0 0 0 0 0 0 0
Nghost:    0 ave 0 max 0 min
Histogram: 1 0 0 0 0 0 0 0 0 0
Neighs:    18102 ave 18102 max 18102 min
Histogram: 1 0 0 0 0 0 0 0 0 0

Total # of neighbors = 18102
Ave neighs/atom = 54.6888
Ave special neighs/atom = 11.5952
Neighbor list builds = 0
Dangerous builds = 0
write_dump all custom pysimm.dump.tmp id q x y z vx vy vz
quit


################################################################################
##################################    Init    ##################################
################################################################################
units           real
atom_style      full
pair_style      lj/cut/coul/long 12.0  12.0
kspace_style    pppm 1e-4
bond_style      harmonic
angle_style     harmonic
dihedral_style  fourier
special_bonds   amber
pair_modify     mix arithmetic
read_data       temp.lmps
  orthogonal box = (-95.0902 -95.0902 -95.0902) to (95.0902 95.0902 95.0902)
  1 by 1 by 1 MPI processor grid
  reading atoms ...
  338 atoms
  reading velocities ...
  338 velocities
  scanning bonds ...
  4 = max bonds/atom
  scanning angles ...
  6 = max angles/atom
  scanning dihedrals ...
  16 = max dihedrals/atom
  reading bonds ...
  337 bonds
  reading angles ...
  624 angles
  reading dihedrals ...
  999 dihedrals
  4 = max # of 1-2 neighbors
  7 = max # of 1-3 neighbors
  14 = max # of 1-4 neighbors
  18 = max # of special neighbors
  special bonds CPU = 0.000654936 secs
  read_data CPU = 0.00669003 secs
################################################################################

min_style cg
minimize 1e-06 1e-06 1000000 10000000
WARNING: Using 'neigh_modify every 1 delay 0 check yes' setting during minimization (../min.cpp:190)
PPPM initialization ...
  using 12-bit tables for long-range coulomb (../kspace.cpp:332)
  G vector (1/distance) = 0.110218
  grid = 20 20 20
  stencil order = 5
  estimated absolute RMS force accuracy = 0.0393572
  estimated relative force accuracy = 0.000118523
  using double precision KISS FFT
  3d grid and FFT values/proc = 15625 8000
Neighbor list info ...
  update every 1 steps, delay 0 steps, check yes
  max neighbors/atom: 2000, page size: 100000
  master list distance cutoff = 14
  ghost atom cutoff = 14
  binsize = 7, bins = 28 28 28
  1 neighbor lists, perpetual/occasional/extra = 1 0 0
  (1) pair lj/cut/coul/long, perpetual
      attributes: half, newton on
      pair build: half/bin/newton
      stencil: half/bin/3d/newton
      bin: standard
Per MPI rank memory allocation (min/avg/max) = 17.03 | 17.03 | 17.03 Mbytes
Step Temp E_pair E_mol TotEng Press 
       0    183.83757   -790.25336    341.15941   -264.42305     -2.21698 
      26    183.83757   -797.97692    201.01311    -412.2929   0.70191554 
Loop time of 0.274768 on 1 procs for 26 steps with 338 atoms

100.1% CPU use with 1 MPI tasks x no OpenMP threads

Minimization stats:
  Stopping criterion = linesearch alpha is zero
  Energy initial, next-to-last, final = 
        -449.093947913     -596.963805552     -596.963805552
  Force two-norm initial, final = 581.069 20.1928
  Force max component initial, final = 256.201 3.77958
  Final line search alpha, max atom move = 2.33228e-11 8.81503e-11
  Iterations, force evaluations = 26 105

MPI task timing breakdown:
Section |  min time  |  avg time  |  max time  |%varavg| %total
---------------------------------------------------------------
Pair    | 0.072736   | 0.072736   | 0.072736   |   0.0 | 26.47
Bond    | 0.016459   | 0.016459   | 0.016459   |   0.0 |  5.99
Kspace  | 0.18466    | 0.18466    | 0.18466    |   0.0 | 67.21
Neigh   | 0          | 0          | 0          |   0.0 |  0.00
Comm    | 5.7936e-05 | 5.7936e-05 | 5.7936e-05 |   0.0 |  0.02
Output  | 0          | 0          | 0          |   0.0 |  0.00
Modify  | 0          | 0          | 0          |   0.0 |  0.00
Other   |            | 0.000855   |            |       |  0.31

Nlocal:    338 ave 338 max 338 min
Histogram: 1 0 0 0 0 0 0 0 0 0
Nghost:    0 ave 0 max 0 min
Histogram: 1 0 0 0 0 0 0 0 0 0
Neighs:    18484 ave 18484 max 18484 min
Histogram: 1 0 0 0 0 0 0 0 0 0

Total # of neighbors = 18484
Ave neighs/atom = 54.6864
Ave special neighs/atom = 11.5976
Neighbor list builds = 0
Dangerous builds = 0
write_dump all custom pysimm.dump.tmp id q x y z vx vy vz
quit


################################################################################
##################################    Init    ##################################
################################################################################
units           real
atom_style      full
pair_style      lj/cut/coul/long 12.0  12.0
kspace_style    pppm 1e-4
bond_style      harmonic
angle_style     harmonic
dihedral_style  fourier
special_bonds   amber
pair_modify     mix arithmetic
read_data       temp.lmps
  orthogonal box = (-95.7599 -95.7599 -95.7599) to (95.7599 95.7599 95.7599)
  1 by 1 by 1 MPI processor grid
  reading atoms ...
  345 atoms
  reading velocities ...
  345 velocities
  scanning bonds ...
  4 = max bonds/atom
  scanning angles ...
  6 = max angles/atom
  scanning dihedrals ...
  16 = max dihedrals/atom
  reading bonds ...
  344 bonds
  reading angles ...
  637 angles
  reading dihedrals ...
  1020 dihedrals
  4 = max # of 1-2 neighbors
  7 = max # of 1-3 neighbors
  14 = max # of 1-4 neighbors
  18 = max # of special neighbors
  special bonds CPU = 0.000399828 secs
  read_data CPU = 0.00602412 secs
################################################################################

min_style cg
minimize 1e-06 1e-06 1000000 10000000
WARNING: Using 'neigh_modify every 1 delay 0 check yes' setting during minimization (../min.cpp:190)
PPPM initialization ...
  using 12-bit tables for long-range coulomb (../kspace.cpp:332)
  G vector (1/distance) = 0.123604
  grid = 24 24 24
  stencil order = 5
  estimated absolute RMS force accuracy = 0.0250744
  estimated relative force accuracy = 7.55109e-05
  using double precision KISS FFT
  3d grid and FFT values/proc = 24389 13824
Neighbor list info ...
  update every 1 steps, delay 0 steps, check yes
  max neighbors/atom: 2000, page size: 100000
  master list distance cutoff = 14
  ghost atom cutoff = 14
  binsize = 7, bins = 28 28 28
  1 neighbor lists, perpetual/occasional/extra = 1 0 0
  (1) pair lj/cut/coul/long, perpetual
      attributes: half, newton on
      pair build: half/bin/newton
      stencil: half/bin/3d/newton
      bin: standard
Per MPI rank memory allocation (min/avg/max) = 17.86 | 17.86 | 17.86 Mbytes
Step Temp E_pair E_mol TotEng Press 
       0     193.7765   -809.74071    330.68332   -280.35922   -1.5359679 
      21     193.7765   -813.44761    192.48282   -422.26663    1.3891496 
Loop time of 0.394777 on 1 procs for 21 steps with 345 atoms

100.0% CPU use with 1 MPI tasks x no OpenMP threads

Minimization stats:
  Stopping criterion = linesearch alpha is zero
  Energy initial, next-to-last, final = 
        -479.057387083     -620.964794507     -620.964794507
  Force two-norm initial, final = 586.614 15.4766
  Force max component initial, final = 285.301 3.95556
  Final line search alpha, max atom move = 5.15366e-11 2.03856e-10
  Iterations, force evaluations = 21 95

MPI task timing breakdown:
Section |  min time  |  avg time  |  max time  |%varavg| %total
---------------------------------------------------------------
Pair    | 0.067576   | 0.067576   | 0.067576   |   0.0 | 17.12
Bond    | 0.01545    | 0.01545    | 0.01545    |   0.0 |  3.91
Kspace  | 0.31097    | 0.31097    | 0.31097    |   0.0 | 78.77
Neigh   | 0          | 0          | 0          |   0.0 |  0.00
Comm    | 5.1975e-05 | 5.1975e-05 | 5.1975e-05 |   0.0 |  0.01
Output  | 0          | 0          | 0          |   0.0 |  0.00
Modify  | 0          | 0          | 0          |   0.0 |  0.00
Other   |            | 0.0007336  |            |       |  0.19

Nlocal:    345 ave 345 max 345 min
Histogram: 1 0 0 0 0 0 0 0 0 0
Nghost:    0 ave 0 max 0 min
Histogram: 1 0 0 0 0 0 0 0 0 0
Neighs:    19359 ave 19359 max 19359 min
Histogram: 1 0 0 0 0 0 0 0 0 0

Total # of neighbors = 19359
Ave neighs/atom = 56.113
Ave special neighs/atom = 11.6
Neighbor list builds = 0
Dangerous builds = 0
write_dump all custom pysimm.dump.tmp id q x y z vx vy vz
quit


################################################################################
##################################    Init    ##################################
################################################################################
units           real
atom_style      full
pair_style      lj/cut/coul/long 12.0  12.0
kspace_style    pppm 1e-4
bond_style      harmonic
angle_style     harmonic
dihedral_style  fourier
special_bonds   amber
pair_modify     mix arithmetic
read_data       temp.lmps
  orthogonal box = (-96.4203 -96.4203 -96.4203) to (96.4203 96.4203 96.4203)
  1 by 1 by 1 MPI processor grid
  reading atoms ...
  352 atoms
  reading velocities ...
  352 velocities
  scanning bonds ...
  4 = max bonds/atom
  scanning angles ...
  6 = max angles/atom
  scanning dihedrals ...
  16 = max dihedrals/atom
  reading bonds ...
  351 bonds
  reading angles ...
  650 angles
  reading dihedrals ...
  1041 dihedrals
  4 = max # of 1-2 neighbors
  7 = max # of 1-3 neighbors
  14 = max # of 1-4 neighbors
  18 = max # of special neighbors
  special bonds CPU = 0.000461102 secs
  read_data CPU = 0.00616884 secs
################################################################################

min_style cg
minimize 1e-06 1e-06 1000000 10000000
WARNING: Using 'neigh_modify every 1 delay 0 check yes' setting during minimization (../min.cpp:190)
PPPM initialization ...
  using 12-bit tables for long-range coulomb (../kspace.cpp:332)
  G vector (1/distance) = 0.123069
  grid = 24 24 24
  stencil order = 5
  estimated absolute RMS force accuracy = 0.0255512
  estimated relative force accuracy = 7.69467e-05
  using double precision KISS FFT
  3d grid and FFT values/proc = 24389 13824
Neighbor list info ...
  update every 1 steps, delay 0 steps, check yes
  max neighbors/atom: 2000, page size: 100000
  master list distance cutoff = 14
  ghost atom cutoff = 14
  binsize = 7, bins = 28 28 28
  1 neighbor lists, perpetual/occasional/extra = 1 0 0
  (1) pair lj/cut/coul/long, perpetual
      attributes: half, newton on
      pair build: half/bin/newton
      stencil: half/bin/3d/newton
      bin: standard
Per MPI rank memory allocation (min/avg/max) = 17.86 | 17.86 | 17.86 Mbytes
Step Temp E_pair E_mol TotEng Press 
       0    194.77267   -816.31347    331.67615   -280.85363   -1.8772971 
      14    194.77267   -817.53145    196.51134   -417.23642    1.1283424 
Loop time of 0.312615 on 1 procs for 14 steps with 352 atoms

100.1% CPU use with 1 MPI tasks x no OpenMP threads

Minimization stats:
  Stopping criterion = linesearch alpha is zero
  Energy initial, next-to-last, final = 
        -484.637322931     -621.020111693     -621.020111693
  Force two-norm initial, final = 584.143 20.5264
  Force max component initial, final = 244.539 6.27904
  Final line search alpha, max atom move = 2.57858e-11 1.6191e-10
  Iterations, force evaluations = 14 81

MPI task timing breakdown:
Section |  min time  |  avg time  |  max time  |%varavg| %total
---------------------------------------------------------------
Pair    | 0.055122   | 0.055122   | 0.055122   |   0.0 | 17.63
Bond    | 0.012572   | 0.012572   | 0.012572   |   0.0 |  4.02
Kspace  | 0.24429    | 0.24429    | 0.24429    |   0.0 | 78.14
Neigh   | 0          | 0          | 0          |   0.0 |  0.00
Comm    | 3.9816e-05 | 3.9816e-05 | 3.9816e-05 |   0.0 |  0.01
Output  | 0          | 0          | 0          |   0.0 |  0.00
Modify  | 0          | 0          | 0          |   0.0 |  0.00
Other   |            | 0.0005898  |            |       |  0.19

Nlocal:    352 ave 352 max 352 min
Histogram: 1 0 0 0 0 0 0 0 0 0
Nghost:    0 ave 0 max 0 min
Histogram: 1 0 0 0 0 0 0 0 0 0
Neighs:    19398 ave 19398 max 19398 min
Histogram: 1 0 0 0 0 0 0 0 0 0

Total # of neighbors = 19398
Ave neighs/atom = 55.108
Ave special neighs/atom = 11.6023
Neighbor list builds = 0
Dangerous builds = 0
write_dump all custom pysimm.dump.tmp id q x y z vx vy vz
quit
