pySIMM System Object

184 atoms
183 bonds
338 angles
537 dihedrals
0 impropers

5 atom types
5 bond types
8 angle types
6 dihedral types

-77.045933 77.045933 xlo xhi
-77.045933 77.045933 ylo yhi
-77.045933 77.045933 zlo zhi

Masses

   1	12.01	# c3
   2	1.008	# hc
   3	16.0	# oh
   4	1.008	# ho
   5	1.008	# h1

Pair Coeffs

   1	0.1094	3.3996695084235347	# c3
   2	0.0157	2.649532787749369	# hc
   3	0.2104	3.0664733878390478	# oh
   4	0.0047	0.5379246460131368	# ho
   5	0.0157	2.471353044121301	# h1

Bond Coeffs

   1	371.4	0.973	# ho,oh
   2	330.6	1.0969	# c3,hc
   3	300.9	1.5375	# c3,c3
   4	316.7	1.4233	# c3,oh
   5	330.6	1.0969	# c3,h1

Angle Coeffs

   1	67.47	110.19	# c3,c3,oh
   2	46.34	109.8	# c3,c3,hc
   3	50.93	110.26	# h1,c3,oh
   4	46.39	109.56	# c3,c3,h1
   5	39.4	107.58	# hc,c3,hc
   6	39.24	108.46	# h1,c3,h1
   7	47.38	107.26	# c3,oh,ho
   8	62.86	111.51	# c3,c3,c3

Dihedral Coeffs

   1	2	0.0	3	0	0.25	1	0	# hc,c3,c3,oh
   2	1	0.16666666666666666	3	0	# X,c3,oh,X
   3	1	0.15555555555555556	3	0	# X,c3,c3,X
   4	2	0.16	3	0	0.25	1	0	# ho,oh,c3,c3
   5	1	0.16	3	0	# hc,c3,c3,c3
   6	3	0.18	3	0	0.25	2	180	0.2	1	180	# c3,c3,c3,c3

Atoms

   1	1	1	-0.02562	-5.53481	0.721572	11.3094
   2	1	1	0.401389	-6.49054	1.05001	12.4747
   3	1	3	-0.707077	-5.77581	1.5644	13.5967
   4	1	4	0.414767	-6.42678	1.65036	14.3204
   5	1	2	-0.013868	-6.12766	0.311955	10.4814
   6	1	2	-0.001701	-4.83491	-0.0675814	11.6148
   7	1	5	-0.06789	-7.22901	1.79011	12.1478
   8	1	1	-0.02562	-3.96779	1.6634	9.51684
   9	1	1	0.401389	-4.75463	1.96084	10.8161
  10	1	3	-0.707077	-3.86338	2.40955	11.8354
  11	1	4	0.414767	-4.37207	2.25754	12.679
  12	1	2	-0.013868	-4.67506	1.33531	8.74363
  13	1	2	-0.001701	-3.2748	0.828593	9.68539
  14	1	5	-0.06789	-5.47684	2.75748	10.6055
  15	1	1	-0.02562	-2.65049	2.73311	7.56233
  16	1	1	0.401389	-3.1976	2.90343	9.00365
  17	1	3	-0.707077	-2.13158	3.21024	9.89919
  18	1	4	0.414767	-2.55597	3.12152	10.7985
  19	1	2	-0.013868	-2.27015	3.70009	7.20632
  20	1	2	-0.001701	-3.4841	2.47265	6.89722
  21	1	5	-0.06789	-3.89672	3.74711	8.99236
  22	1	1	-0.02562	-1.13158	1.43318	5.95295
  23	1	1	0.401389	-1.53706	1.66518	7.42917
  24	1	3	-0.707077	-0.396092	2.05739	8.19022
  25	1	4	0.414767	-0.791345	2.52087	8.98417
  26	1	2	-0.013868	-0.858789	2.38892	5.48569
  27	1	2	-0.001701	-2.00247	1.05372	5.40267
  28	1	5	-0.06789	-1.91435	0.716162	7.82495
  29	1	1	-0.02562	0.248696	-0.0282146	4.3524
  30	1	1	0.401389	0.0387592	0.430151	5.81508
  31	1	3	-0.707077	1.2351	1.02658	6.31323
  32	1	4	0.414767	0.920825	1.46854	7.15583
  33	1	2	-0.013868	-0.652699	-0.560831	4.02049
  34	1	2	-0.001701	0.354252	0.84276	3.69632
  35	1	5	-0.06789	-0.191734	-0.455886	6.41687
  36	1	1	-0.02562	1.50879	-1.55852	2.75515
  37	1	1	0.401389	1.48	-0.948644	4.17617
  38	1	3	-0.707077	2.67478	-0.206358	4.45672
  39	1	4	0.414767	2.36999	0.311742	5.26515
  40	1	2	-0.013868	1.48042	-0.761473	1.99954
  41	1	2	-0.001701	0.591893	-2.14777	2.61962
  42	1	5	-0.06789	1.40122	-1.76808	4.89909
  43	1	1	-0.02562	2.57815	-3.27319	1.20178
  44	1	1	0.401389	2.7303	-2.47278	2.51349
  45	1	3	-0.707077	3.90756	-1.65867	2.47035
  46	1	4	0.414767	3.79767	-1.11775	3.29231
  47	1	2	-0.013868	1.56827	-3.70199	1.13706
  48	1	2	-0.001701	2.65854	-2.57386	0.365452
  49	1	5	-0.06789	2.80339	-3.17244	3.35392
  50	1	1	-0.02562	4.00778	-4.80839	-0.355699
  51	1	1	0.401389	3.6173	-4.41683	1.09865
  52	1	3	-0.707077	3.11025	-5.56738	1.77011
  53	1	4	0.414767	3.85561	-6.18815	1.83868
  54	1	2	-0.013868	4.60981	-5.72587	-0.309455
  55	1	2	-0.001701	3.10498	-5.06777	-0.924795
  56	1	5	-0.06789	4.52724	-4.13398	1.63569
  57	1	1	-0.02562	5.91191	-3.06464	-0.268657
  58	1	1	0.401389	4.83469	-3.74961	-1.1414
  59	1	3	-0.707077	3.97164	-2.7859	-1.7308
  60	1	4	0.414767	4.57098	-2.03841	-1.98883
  61	1	2	-0.013868	6.53461	-3.8369	0.202434
  62	1	2	-0.001701	5.40622	-2.52823	0.535357
  63	1	5	-0.06789	5.34927	-4.26869	-1.95768
  64	1	1	-0.02562	7.89483	-1.43692	-0.0792233
  65	1	1	0.401389	6.83036	-2.06992	-1.01461
  66	1	3	-0.707077	6.05974	-1.03098	-1.61426
  67	1	4	0.414767	5.98088	-0.355164	-0.893975
  68	1	2	-0.013868	8.43983	-0.655612	-0.626132
  69	1	2	-0.001701	8.63752	-2.20525	0.17263
  70	1	5	-0.06789	7.35065	-2.61487	-1.80998
  71	1	1	-0.02562	8.40969	-0.10426	2.04984
  72	1	1	0.401389	7.32116	-0.853481	1.24148
  73	1	3	-0.707077	6.1927	-0.0208098	0.956163
  74	1	4	0.414767	5.45364	-0.487888	1.42769
  75	1	2	-0.013868	8.74884	0.778892	1.49238
  76	1	2	-0.001701	9.28706	-0.760596	2.12185
  77	1	5	-0.06789	6.97084	-1.69679	1.84291
  78	1	1	-0.02562	7.18215	1.60304	3.61062
  79	1	1	0.401389	8.0209	0.300434	3.4977
  80	1	3	-0.707077	7.42137	-0.792213	4.18546
  81	1	4	0.414767	6.78002	-0.374594	4.81439
  82	1	2	-0.013868	7.53083	2.1698	4.48455
  83	1	2	-0.001701	7.40147	2.2388	2.74303
  84	1	5	-0.06789	8.96682	0.520393	4.00596
  85	1	1	-0.02562	4.87446	2.73067	3.55673
  86	1	1	0.401389	5.65183	1.40544	3.73385
  87	1	3	-0.707077	5.32381	0.80615	4.98559
  88	1	4	0.414767	4.38669	0.505321	4.89854
  89	1	2	-0.013868	4.46226	3.04986	4.52343
  90	1	2	-0.001701	5.54309	3.54192	3.23704
  91	1	5	-0.06789	5.31829	0.708799	2.96958
  92	1	1	-0.02562	2.51589	3.43525	2.86533
  93	1	1	0.401389	3.74308	2.56615	2.51882
  94	1	3	-0.707077	4.22649	2.87129	1.20808
  95	1	4	0.414767	4.86355	2.16503	0.967371
  96	1	2	-0.013868	2.79757	4.49193	2.96996
  97	1	2	-0.001701	2.13487	3.11011	3.84273
  98	1	5	-0.06789	3.40555	1.52464	2.52065
  99	1	1	-0.02562	0.00476399	3.58194	2.3534
 100	1	1	0.401389	1.41126	3.26267	1.80334
 101	1	3	-0.707077	1.69251	4.08279	0.679336
 102	1	4	0.414767	2.64307	3.89414	0.487064
 103	1	2	-0.013868	-0.0493599	4.64	2.64343
 104	1	2	-0.001701	-0.145557	3.00813	3.27509
 105	1	5	-0.06789	1.43191	2.21302	1.49489
 106	1	1	-0.02562	-1.01917	1.86493	0.694241
 107	1	1	0.401389	-1.15015	3.25409	1.37225
 108	1	3	-0.707077	-2.36178	3.30095	2.12295
 109	1	4	0.414767	-2.48143	4.23451	2.37413
 110	1	2	-0.013868	-0.838203	1.11182	1.47368
 111	1	2	-0.001701	-0.139482	1.85238	0.0382198
 112	1	5	-0.06789	-1.19437	4.02437	0.595343
 113	1	1	-0.02562	-2.25114	2.05379	-1.57779
 114	1	1	0.401389	-2.24984	1.45017	-0.148574
 115	1	3	-0.707077	-2.28045	0.022972	-0.212548
 116	1	4	0.414767	-2.29985	-0.275064	0.715641
 117	1	2	-0.013868	-1.35776	1.72338	-2.12403
 118	1	2	-0.001701	-2.18918	3.1471	-1.50328
 119	1	5	-0.06789	-3.16723	1.76255	0.358521
 120	1	1	-0.02562	-3.70461	2.42838	-3.70562
 121	1	1	0.401389	-3.53419	1.6746	-2.36072
 122	1	3	-0.707077	-3.59023	0.266703	-2.55646
 123	1	4	0.414767	-3.17655	-0.100976	-1.73042
 124	1	2	-0.013868	-4.70674	2.22296	-4.10606
 125	1	2	-0.001701	-3.68171	3.5059	-3.49596
 126	1	5	-0.06789	-4.38422	1.95597	-1.72861
 127	1	1	-0.02562	-2.80377	0.701292	-5.42823
 128	1	1	0.401389	-2.6434	2.10426	-4.78955
 129	1	3	-0.707077	-2.71031	3.08802	-5.81819
 130	1	4	0.414767	-1.97747	2.86166	-6.42154
 131	1	2	-0.013868	-2.89592	0.778385	-6.52127
 132	1	2	-0.001701	-3.73909	0.234518	-5.09645
 133	1	5	-0.06789	-1.64919	2.19239	-4.33885
 134	1	1	-0.02562	-1.96942	-1.70503	-5.17406
 135	1	1	0.401389	-1.60201	-0.203273	-5.08495
 136	1	3	-0.707077	-0.525063	0.122952	-5.95148
 137	1	4	0.414767	0.208604	-0.424309	-5.57995
 138	1	2	-0.013868	-2.56273	-1.94961	-4.28339
 139	1	2	-0.001701	-2.65505	-1.86384	-6.01514
 140	1	5	-0.06789	-1.28007	-0.00188237	-4.05749
 141	1	1	-0.02562	-0.544708	-3.27443	-6.67145
 142	1	1	0.401389	-0.781837	-2.71165	-5.242
 143	1	3	-0.707077	0.411555	-2.17371	-4.66811
 144	1	4	0.414767	1.06759	-2.9028	-4.67762
 145	1	2	-0.013868	-1.47727	-3.19523	-7.23206
 146	1	2	-0.001701	-0.366159	-4.35544	-6.59579
 147	1	5	-0.06789	-1.0786	-3.57083	-4.62967
 148	1	1	-0.02562	0.442129	-2.63156	-8.99859
 149	1	1	0.401389	0.625842	-2.62714	-7.46057
 150	1	3	-0.707077	1.82421	-3.33064	-7.13774
 151	1	4	0.414767	2.54705	-2.86093	-7.59093
 152	1	2	-0.013868	0.376249	-3.66483	-9.36495
 153	1	2	-0.001701	1.35099	-2.20748	-9.44742
 154	1	5	-0.06789	0.756742	-1.58722	-7.15821
 155	1	1	-0.02562	-1.93264	-2.71965	-9.98128
 156	1	1	0.401389	-0.791452	-1.81015	-9.46422
 157	1	3	-0.707077	-0.410238	-0.89781	-10.4891
 158	1	4	0.414767	-0.0706584	-1.42765	-11.2309
 159	1	2	-0.013868	-2.16029	-3.49007	-9.2359
 160	1	2	-0.001701	-1.57993	-3.26157	-10.8689
 161	1	5	-0.06789	-1.15109	-1.22554	-8.6117
 162	1	1	-0.02562	-3.76483	-1.01772	-9.23015
 163	1	1	0.401389	-3.2448	-1.98034	-10.338
 164	1	3	-0.707077	-4.21628	-2.96569	-10.6685
 165	1	4	0.414767	-5.00241	-2.42104	-10.9078
 166	1	2	-0.013868	-3.38536	-0.00976096	-9.44706
 167	1	2	-0.001701	-3.33748	-1.30053	-8.2612
 168	1	5	-0.06789	-3.06985	-1.38372	-11.2403
 169	1	1	-0.02562	-5.72649	0.190497	-8.11497
 170	1	1	0.401389	-5.30592	-0.960968	-9.06023
 171	1	3	-0.707077	-5.96446	-0.846174	-10.3258
 172	1	4	0.414767	-6.92092	-0.943505	-10.1552
 173	1	2	-0.013868	-5.34679	1.14176	-8.5123
 174	1	2	-0.001701	-5.24734	0.0439205	-7.1388
 175	1	5	-0.06789	-5.61829	-1.90653	-8.60498
 176	1	1	-0.02562	-7.9032	-0.974851	-7.3422
 177	1	1	0.401389	-7.25524	0.306618	-7.91383
 178	1	3	-0.707077	-7.53633	1.3975	-7.0466
 179	1	4	0.414767	-7.10837	2.18111	-7.43418
 180	1	2	-0.013868	-8.97779	-0.824597	-7.1778
 181	1	2	-0.001701	-7.79587	-1.81791	-8.03535
 182	1	5	-0.06789	-7.71735	0.516748	-8.88543
 183	1	5	0	-7.02947	0.139631	12.7638
 184	1	2	0	-7.44495	-1.25533	-6.38549

Velocities

   1	-7.24285e-05	-0.000163344	-0.000368541
   2	0.000120891	-0.000187798	-0.000183815
   3	0.000131452	0.000185493	-0.000382461
   4	2.306e-05	0.00120946	-0.000734854
   5	-0.000123335	-4.37035e-05	-0.000243294
   6	9.57116e-05	-7.26585e-05	-0.00043878
   7	2.83093e-05	-0.000365097	-0.000327794
   8	-6.37379e-05	-0.000134376	-0.000167127
   9	-0.000196619	-3.07915e-05	-0.00024328
  10	-0.000225846	5.4841e-06	-0.000315636
  11	-0.000264127	-3.85632e-05	-0.000321117
  12	-4.14065e-05	-0.000264928	-0.000195461
  13	3.6399e-05	6.48174e-05	-3.65594e-05
  14	-0.000204888	-0.000130579	-0.000316745
  15	-9.29505e-05	-0.000158355	4.70648e-05
  16	-0.000250954	-1.0038e-05	-3.07383e-05
  17	-0.000378006	0.0002321	1.79954e-05
  18	-0.000457243	-0.00012023	-4.21629e-05
  19	-0.000433225	-0.000176932	-0.000162088
  20	9.24577e-05	-0.000758804	0.000118197
  21	-0.000437794	-6.07465e-05	-0.000277116
  22	-4.44534e-05	-0.000511507	0.000608571
  23	0.000331879	0.000180115	0.000632431
  24	0.000350831	0.00113826	0.000120641
  25	0.000232833	0.000977538	0.000165696
  26	-0.00097033	-0.00054682	-2.88603e-05
  27	-5.76211e-05	-0.00139454	0.00128808
  28	0.00087416	0.000210448	0.00134397
  29	0.000624273	0.000594204	0.000245424
  30	0.000568538	0.000168129	0.000416398
  31	0.000278221	0.000882122	0.000252386
  32	0.000112463	0.00110421	0.000152987
  33	0.000637215	0.000634456	0.000181915
  34	0.000389327	0.000848111	0.000603068
  35	0.00115111	7.97496e-05	0.000415822
  36	0.00100075	0.00148491	-0.000415525
  37	0.000645114	0.000830054	-7.75832e-05
  38	0.000547564	0.000769645	0.00037505
  39	0.000301902	0.000836988	0.000248135
  40	0.00148976	0.00185027	-6.27352e-05
  41	0.000943682	0.00177103	-0.00110712
  42	0.000689384	0.000472732	-0.000537467
  43	0.00117653	0.00133262	-0.00072785
  44	0.000946173	0.0012808	-0.000532665
  45	0.000917365	0.0014068	-0.000278647
  46	0.000300826	0.00174559	-0.000582947
  47	0.000774966	0.00239032	-0.00141581
  48	0.00245162	0.00126819	-0.000680463
  49	0.000840194	0.00121892	-0.000572451
  50	0.000324987	-0.000403836	-9.04547e-05
  51	-2.05864e-06	0.000104221	-0.000279604
  52	-0.00171442	0.000681781	-0.000570301
  53	-0.00255273	-0.000242733	-0.000199235
  54	0.000223482	-0.0004294	0.000422323
  55	0.000480919	-0.000571034	-0.000228226
  56	6.60266e-05	-0.000826499	0.000150642
  57	-0.000112177	-1.51033e-05	-0.000194506
  58	0.000638557	-0.000886144	-0.00038313
  59	0.00082493	-0.00159499	-0.00183663
  60	0.000712447	-0.00151198	-0.00186354
  61	-8.2883e-06	0.000436668	0.000405725
  62	-0.000693808	0.000124857	-0.000662148
  63	0.00137281	-0.00144259	0.000411412
  64	-0.000484465	0.000300627	-0.000182769
  65	-0.000161704	-2.65916e-05	-0.000245173
  66	-0.000148976	-0.000271637	-0.000683853
  67	-0.000120026	0.000112366	-0.00109133
  68	-0.000702281	0.000499758	-0.000121914
  69	-0.000228009	0.000545373	-0.00018245
  70	0.000145377	-0.000122342	3.5872e-05
  71	-0.000458882	0.000226495	-0.000533959
  72	-0.000613878	4.63486e-05	-0.000149492
  73	-0.000904522	-0.000243473	7.51095e-06
  74	-0.00090584	-0.000884071	-0.000531657
  75	-0.000786876	0.000259322	-0.000670995
  76	-0.000358794	0.000338505	-0.00086251
  77	-0.000309347	-4.92019e-05	-9.9184e-05
  78	-0.000504173	-0.000245003	-0.000230215
  79	0.000113047	0.000178289	-0.000427677
  80	0.00118335	-0.000124654	1.17171e-05
  81	0.000782642	-0.00047177	-0.000156155
  82	-0.000218524	0.000131314	-0.00059367
  83	-0.00139534	-0.000324708	-0.000517951
  84	0.000299758	0.000769758	-0.0010213
  85	-0.00101078	-0.00113114	0.00175966
  86	-0.000328887	-0.000908832	0.000752643
  87	0.000863019	-0.00149722	0.000812399
  88	0.000840387	-0.00156773	0.00148438
  89	-0.00191816	-0.00259912	0.00186231
  90	-0.00123913	-0.00034487	0.00330657
  91	-0.000594195	-0.000765214	0.000726298
  92	-0.000117685	0.000356146	-0.000359652
  93	-0.00026999	-0.000399071	0.000788194
  94	0.000824801	-0.00063899	0.00115671
  95	-0.000359413	-0.00170312	0.00103822
  96	8.92775e-05	0.000461411	-0.00197163
  97	-0.000221219	0.00189171	0.000143866
  98	-0.000808342	-0.000217805	0.000520363
  99	-0.000224209	0.000256309	-0.000763661
 100	-0.000223567	-0.00112366	-0.000109991
 101	7.40105e-06	-0.00348183	-0.00177231
 102	0.000362932	-0.00294811	-0.000588275
 103	0.000338782	0.000526648	-0.00164741
 104	-0.000955533	0.00106649	-0.000343626
 105	-0.000658576	-0.00171012	0.00189206
 106	-0.000963301	-0.000762433	0.00082372
 107	-4.70056e-05	0.000230477	-0.00101201
 108	-0.000523189	0.00241654	-0.00191735
 109	0.000638247	0.00274365	-0.00247811
 110	-0.00227223	5.89021e-07	0.00187332
 111	-0.000494926	-0.00240912	0.00147015
 112	0.00126053	-0.000686717	-0.00199348
 113	-0.000386121	-0.000426135	0.000535945
 114	-0.000670483	-0.00073893	0.000389537
 115	-0.000386245	-0.000735227	-0.000125836
 116	-0.00161697	-0.00115554	-0.000304112
 117	-0.000415774	-0.000522286	0.000559762
 118	-0.00013636	-0.0004589	0.000723772
 119	-0.000819525	-0.00104436	0.000325039
 120	7.73648e-05	0.00038989	0.000437043
 121	-0.000355929	1.65116e-05	0.000295692
 122	-0.000657945	5.8183e-05	5.67656e-05
 123	-0.000168354	-0.000188817	-0.000308293
 124	-2.72442e-05	0.0010959	0.000374483
 125	0.000733147	0.000326809	0.000709049
 126	-0.000377403	0.000104472	0.000220956
 127	-5.63615e-05	-1.45572e-05	0.000629213
 128	-7.0874e-05	0.000121698	0.00037121
 129	-0.000198485	-2.05164e-05	0.000239117
 130	0.000334891	0.000489496	0.000713006
 131	0.000256544	-0.000268398	0.000586859
 132	-0.000206274	0.000154109	0.000463152
 133	-3.64235e-05	0.000243877	0.000266114
 134	6.65355e-05	-9.09455e-05	5.71019e-05
 135	-0.000222217	-6.00902e-05	0.00114427
 136	0.000347424	0.000574876	0.00212098
 137	-1.20665e-05	-7.18439e-05	0.0019901
 138	-0.000438743	-0.000700277	-0.000419893
 139	0.000579623	0.000350805	-0.000438902
 140	-0.00102775	-0.000542253	0.00151157
 141	0.000323816	-7.53424e-07	0.000126922
 142	0.000156652	-2.70158e-06	9.42751e-05
 143	0.000166043	-2.69548e-05	7.63091e-05
 144	0.000883595	0.000607403	-0.00219067
 145	0.000165402	-0.000968534	0.000188467
 146	0.00145564	0.000201315	0.000267516
 147	0.000195567	-4.36416e-05	5.36323e-05
 148	-0.000304104	-0.00107555	5.79036e-05
 149	-0.000403946	0.00103566	6.83771e-06
 150	0.00062132	0.00343324	0.00110826
 151	0.000153011	0.00486136	0.00174828
 152	-0.00136083	-0.00157348	0.00161733
 153	-8.15962e-05	-0.00250282	-0.000821265
 154	-0.00226842	0.0015581	-0.00120411
 155	7.88606e-05	-0.000298411	-0.000745476
 156	0.000172894	-0.000645293	-0.000486191
 157	0.000830457	-0.00075916	-0.000377121
 158	-0.000589561	-0.00100266	-0.000858173
 159	0.000170093	-0.000609162	-0.000950548
 160	-0.000240287	0.000126308	-0.00105785
 161	-0.000111441	-0.000444556	-0.000545793
 162	4.88739e-05	-0.00157934	0.00136102
 163	-1.44146e-05	-7.22105e-05	3.55548e-05
 164	-0.000108624	0.000345895	-0.000774971
 165	2.93351e-05	0.000667265	-0.000706789
 166	0.00177648	-0.00157399	0.00399527
 167	-0.00153086	-0.00435196	0.00126131
 168	-0.000222892	0.00108107	0.00075436
 169	0.000112657	-0.000407785	0.000365864
 170	-0.000181377	0.000214354	-0.000591932
 171	0.00163784	0.00267067	-0.00134435
 172	0.00136426	0.00346714	-0.00265057
 173	0.000697204	-0.000381277	0.00113914
 174	-0.000227433	-0.0014483	0.00035206
 175	-0.00196786	-0.000101982	-0.00225697
 176	0.000134958	0.000198652	0.000535624
 177	0.000292604	-4.93174e-05	0.000101044
 178	0.000426996	5.46473e-05	-1.93247e-05
 179	0.000745843	3.01828e-05	-0.000125736
 180	0.000324611	0.000722173	0.00178656
 181	-0.00104211	0.000284717	0.000118201
 182	0.000173192	-8.74662e-05	9.77553e-05
 183	0.000543611	-0.000166112	-1.94607e-05
 184	0.00117798	-0.000173949	-5.35301e-05

Bonds

   1	3	1	2
   2	2	1	5
   3	2	1	6
   4	4	2	3
   5	5	2	7
   6	1	3	4
   7	3	8	9
   8	2	8	12
   9	2	8	13
  10	4	9	10
  11	5	9	14
  12	1	10	11
  13	3	1	9
  14	3	15	16
  15	2	15	19
  16	2	15	20
  17	4	16	17
  18	5	16	21
  19	1	17	18
  20	3	8	16
  21	3	22	23
  22	2	22	26
  23	2	22	27
  24	4	23	24
  25	5	23	28
  26	1	24	25
  27	3	15	23
  28	3	29	30
  29	2	29	33
  30	2	29	34
  31	4	30	31
  32	5	30	35
  33	1	31	32
  34	3	22	30
  35	3	36	37
  36	2	36	40
  37	2	36	41
  38	4	37	38
  39	5	37	42
  40	1	38	39
  41	3	29	37
  42	3	43	44
  43	2	43	47
  44	2	43	48
  45	4	44	45
  46	5	44	49
  47	1	45	46
  48	3	36	44
  49	3	50	51
  50	2	50	54
  51	2	50	55
  52	4	51	52
  53	5	51	56
  54	1	52	53
  55	3	43	51
  56	3	57	58
  57	2	57	61
  58	2	57	62
  59	4	58	59
  60	5	58	63
  61	1	59	60
  62	3	50	58
  63	3	64	65
  64	2	64	68
  65	2	64	69
  66	4	65	66
  67	5	65	70
  68	1	66	67
  69	3	57	65
  70	3	71	72
  71	2	71	75
  72	2	71	76
  73	4	72	73
  74	5	72	77
  75	1	73	74
  76	3	64	72
  77	3	78	79
  78	2	78	82
  79	2	78	83
  80	4	79	80
  81	5	79	84
  82	1	80	81
  83	3	71	79
  84	3	85	86
  85	2	85	89
  86	2	85	90
  87	4	86	87
  88	5	86	91
  89	1	87	88
  90	3	78	86
  91	3	92	93
  92	2	92	96
  93	2	92	97
  94	4	93	94
  95	5	93	98
  96	1	94	95
  97	3	85	93
  98	3	99	100
  99	2	99	103
 100	2	99	104
 101	4	100	101
 102	5	100	105
 103	1	101	102
 104	3	92	100
 105	3	106	107
 106	2	106	110
 107	2	106	111
 108	4	107	108
 109	5	107	112
 110	1	108	109
 111	3	99	107
 112	3	113	114
 113	2	113	117
 114	2	113	118
 115	4	114	115
 116	5	114	119
 117	1	115	116
 118	3	106	114
 119	3	120	121
 120	2	120	124
 121	2	120	125
 122	4	121	122
 123	5	121	126
 124	1	122	123
 125	3	113	121
 126	3	127	128
 127	2	127	131
 128	2	127	132
 129	4	128	129
 130	5	128	133
 131	1	129	130
 132	3	120	128
 133	3	134	135
 134	2	134	138
 135	2	134	139
 136	4	135	136
 137	5	135	140
 138	1	136	137
 139	3	127	135
 140	3	141	142
 141	2	141	145
 142	2	141	146
 143	4	142	143
 144	5	142	147
 145	1	143	144
 146	3	134	142
 147	3	148	149
 148	2	148	152
 149	2	148	153
 150	4	149	150
 151	5	149	154
 152	1	150	151
 153	3	141	149
 154	3	155	156
 155	2	155	159
 156	2	155	160
 157	4	156	157
 158	5	156	161
 159	1	157	158
 160	3	148	156
 161	3	162	163
 162	2	162	166
 163	2	162	167
 164	4	163	164
 165	5	163	168
 166	1	164	165
 167	3	155	163
 168	3	169	170
 169	2	169	173
 170	2	169	174
 171	4	170	171
 172	5	170	175
 173	1	171	172
 174	3	162	170
 175	3	176	177
 176	2	176	180
 177	2	176	181
 178	4	177	178
 179	5	177	182
 180	1	178	179
 181	3	169	177
 182	5	2	183
 183	2	176	184

Angles

   1	2	2	1	5
   2	2	2	1	6
   3	5	5	1	6
   4	1	1	2	3
   5	4	1	2	7
   6	3	3	2	7
   7	7	2	3	4
   8	2	9	8	12
   9	2	9	8	13
  10	5	12	8	13
  11	1	8	9	10
  12	4	8	9	14
  13	3	10	9	14
  14	7	9	10	11
  15	8	2	1	9
  16	2	5	1	9
  17	2	6	1	9
  18	8	1	9	8
  19	1	1	9	10
  20	4	1	9	14
  21	2	16	15	19
  22	2	16	15	20
  23	5	19	15	20
  24	1	15	16	17
  25	4	15	16	21
  26	3	17	16	21
  27	7	16	17	18
  28	8	9	8	16
  29	2	12	8	16
  30	2	13	8	16
  31	8	8	16	15
  32	1	8	16	17
  33	4	8	16	21
  34	2	23	22	26
  35	2	23	22	27
  36	5	26	22	27
  37	1	22	23	24
  38	4	22	23	28
  39	3	24	23	28
  40	7	23	24	25
  41	8	16	15	23
  42	2	19	15	23
  43	2	20	15	23
  44	8	15	23	22
  45	1	15	23	24
  46	4	15	23	28
  47	2	30	29	33
  48	2	30	29	34
  49	5	33	29	34
  50	1	29	30	31
  51	4	29	30	35
  52	3	31	30	35
  53	7	30	31	32
  54	8	23	22	30
  55	2	26	22	30
  56	2	27	22	30
  57	8	22	30	29
  58	1	22	30	31
  59	4	22	30	35
  60	2	37	36	40
  61	2	37	36	41
  62	5	40	36	41
  63	1	36	37	38
  64	4	36	37	42
  65	3	38	37	42
  66	7	37	38	39
  67	8	30	29	37
  68	2	33	29	37
  69	2	34	29	37
  70	8	29	37	36
  71	1	29	37	38
  72	4	29	37	42
  73	2	44	43	47
  74	2	44	43	48
  75	5	47	43	48
  76	1	43	44	45
  77	4	43	44	49
  78	3	45	44	49
  79	7	44	45	46
  80	8	37	36	44
  81	2	40	36	44
  82	2	41	36	44
  83	8	36	44	43
  84	1	36	44	45
  85	4	36	44	49
  86	2	51	50	54
  87	2	51	50	55
  88	5	54	50	55
  89	1	50	51	52
  90	4	50	51	56
  91	3	52	51	56
  92	7	51	52	53
  93	8	44	43	51
  94	2	47	43	51
  95	2	48	43	51
  96	8	43	51	50
  97	1	43	51	52
  98	4	43	51	56
  99	2	58	57	61
 100	2	58	57	62
 101	5	61	57	62
 102	1	57	58	59
 103	4	57	58	63
 104	3	59	58	63
 105	7	58	59	60
 106	8	51	50	58
 107	2	54	50	58
 108	2	55	50	58
 109	8	50	58	57
 110	1	50	58	59
 111	4	50	58	63
 112	2	65	64	68
 113	2	65	64	69
 114	5	68	64	69
 115	1	64	65	66
 116	4	64	65	70
 117	3	66	65	70
 118	7	65	66	67
 119	8	58	57	65
 120	2	61	57	65
 121	2	62	57	65
 122	8	57	65	64
 123	1	57	65	66
 124	4	57	65	70
 125	2	72	71	75
 126	2	72	71	76
 127	5	75	71	76
 128	1	71	72	73
 129	4	71	72	77
 130	3	73	72	77
 131	7	72	73	74
 132	8	65	64	72
 133	2	68	64	72
 134	2	69	64	72
 135	8	64	72	71
 136	1	64	72	73
 137	4	64	72	77
 138	2	79	78	82
 139	2	79	78	83
 140	5	82	78	83
 141	1	78	79	80
 142	4	78	79	84
 143	3	80	79	84
 144	7	79	80	81
 145	8	72	71	79
 146	2	75	71	79
 147	2	76	71	79
 148	8	71	79	78
 149	1	71	79	80
 150	4	71	79	84
 151	2	86	85	89
 152	2	86	85	90
 153	5	89	85	90
 154	1	85	86	87
 155	4	85	86	91
 156	3	87	86	91
 157	7	86	87	88
 158	8	79	78	86
 159	2	82	78	86
 160	2	83	78	86
 161	8	78	86	85
 162	1	78	86	87
 163	4	78	86	91
 164	2	93	92	96
 165	2	93	92	97
 166	5	96	92	97
 167	1	92	93	94
 168	4	92	93	98
 169	3	94	93	98
 170	7	93	94	95
 171	8	86	85	93
 172	2	89	85	93
 173	2	90	85	93
 174	8	85	93	92
 175	1	85	93	94
 176	4	85	93	98
 177	2	100	99	103
 178	2	100	99	104
 179	5	103	99	104
 180	1	99	100	101
 181	4	99	100	105
 182	3	101	100	105
 183	7	100	101	102
 184	8	93	92	100
 185	2	96	92	100
 186	2	97	92	100
 187	8	92	100	99
 188	1	92	100	101
 189	4	92	100	105
 190	2	107	106	110
 191	2	107	106	111
 192	5	110	106	111
 193	1	106	107	108
 194	4	106	107	112
 195	3	108	107	112
 196	7	107	108	109
 197	8	100	99	107
 198	2	103	99	107
 199	2	104	99	107
 200	8	99	107	106
 201	1	99	107	108
 202	4	99	107	112
 203	2	114	113	117
 204	2	114	113	118
 205	5	117	113	118
 206	1	113	114	115
 207	4	113	114	119
 208	3	115	114	119
 209	7	114	115	116
 210	8	107	106	114
 211	2	110	106	114
 212	2	111	106	114
 213	8	106	114	113
 214	1	106	114	115
 215	4	106	114	119
 216	2	121	120	124
 217	2	121	120	125
 218	5	124	120	125
 219	1	120	121	122
 220	4	120	121	126
 221	3	122	121	126
 222	7	121	122	123
 223	8	114	113	121
 224	2	117	113	121
 225	2	118	113	121
 226	8	113	121	120
 227	1	113	121	122
 228	4	113	121	126
 229	2	128	127	131
 230	2	128	127	132
 231	5	131	127	132
 232	1	127	128	129
 233	4	127	128	133
 234	3	129	128	133
 235	7	128	129	130
 236	8	121	120	128
 237	2	124	120	128
 238	2	125	120	128
 239	8	120	128	127
 240	1	120	128	129
 241	4	120	128	133
 242	2	135	134	138
 243	2	135	134	139
 244	5	138	134	139
 245	1	134	135	136
 246	4	134	135	140
 247	3	136	135	140
 248	7	135	136	137
 249	8	128	127	135
 250	2	131	127	135
 251	2	132	127	135
 252	8	127	135	134
 253	1	127	135	136
 254	4	127	135	140
 255	2	142	141	145
 256	2	142	141	146
 257	5	145	141	146
 258	1	141	142	143
 259	4	141	142	147
 260	3	143	142	147
 261	7	142	143	144
 262	8	135	134	142
 263	2	138	134	142
 264	2	139	134	142
 265	8	134	142	141
 266	1	134	142	143
 267	4	134	142	147
 268	2	149	148	152
 269	2	149	148	153
 270	5	152	148	153
 271	1	148	149	150
 272	4	148	149	154
 273	3	150	149	154
 274	7	149	150	151
 275	8	142	141	149
 276	2	145	141	149
 277	2	146	141	149
 278	8	141	149	148
 279	1	141	149	150
 280	4	141	149	154
 281	2	156	155	159
 282	2	156	155	160
 283	5	159	155	160
 284	1	155	156	157
 285	4	155	156	161
 286	3	157	156	161
 287	7	156	157	158
 288	8	149	148	156
 289	2	152	148	156
 290	2	153	148	156
 291	8	148	156	155
 292	1	148	156	157
 293	4	148	156	161
 294	2	163	162	166
 295	2	163	162	167
 296	5	166	162	167
 297	1	162	163	164
 298	4	162	163	168
 299	3	164	163	168
 300	7	163	164	165
 301	8	156	155	163
 302	2	159	155	163
 303	2	160	155	163
 304	8	155	163	162
 305	1	155	163	164
 306	4	155	163	168
 307	2	170	169	173
 308	2	170	169	174
 309	5	173	169	174
 310	1	169	170	171
 311	4	169	170	175
 312	3	171	170	175
 313	7	170	171	172
 314	8	163	162	170
 315	2	166	162	170
 316	2	167	162	170
 317	8	162	170	169
 318	1	162	170	171
 319	4	162	170	175
 320	2	177	176	180
 321	2	177	176	181
 322	5	180	176	181
 323	1	176	177	178
 324	4	176	177	182
 325	3	178	177	182
 326	7	177	178	179
 327	8	170	169	177
 328	2	173	169	177
 329	2	174	169	177
 330	8	169	177	176
 331	1	169	177	178
 332	4	169	177	182
 333	4	1	2	183
 334	3	3	2	183
 335	6	7	2	183
 336	2	177	176	184
 337	5	180	176	184
 338	5	181	176	184

Dihedrals

   1	1	5	1	2	3
   2	3	5	1	2	7
   3	1	6	1	2	3
   4	3	6	1	2	7
   5	4	1	2	3	4
   6	2	7	2	3	4
   7	1	12	8	9	10
   8	3	12	8	9	14
   9	1	13	8	9	10
  10	3	13	8	9	14
  11	4	8	9	10	11
  12	2	14	9	10	11
  13	3	3	2	1	9
  14	3	7	2	1	9
  15	5	1	9	8	12
  16	5	1	9	8	13
  17	4	1	9	10	11
  18	6	2	1	9	8
  19	3	2	1	9	10
  20	3	2	1	9	14
  21	5	5	1	9	8
  22	1	5	1	9	10
  23	3	5	1	9	14
  24	5	6	1	9	8
  25	1	6	1	9	10
  26	3	6	1	9	14
  27	1	19	15	16	17
  28	3	19	15	16	21
  29	1	20	15	16	17
  30	3	20	15	16	21
  31	4	15	16	17	18
  32	2	21	16	17	18
  33	3	10	9	8	16
  34	3	14	9	8	16
  35	6	1	9	8	16
  36	5	8	16	15	19
  37	5	8	16	15	20
  38	4	8	16	17	18
  39	6	9	8	16	15
  40	3	9	8	16	17
  41	3	9	8	16	21
  42	5	12	8	16	15
  43	1	12	8	16	17
  44	3	12	8	16	21
  45	5	13	8	16	15
  46	1	13	8	16	17
  47	3	13	8	16	21
  48	1	26	22	23	24
  49	3	26	22	23	28
  50	1	27	22	23	24
  51	3	27	22	23	28
  52	4	22	23	24	25
  53	2	28	23	24	25
  54	3	17	16	15	23
  55	3	21	16	15	23
  56	6	8	16	15	23
  57	5	15	23	22	26
  58	5	15	23	22	27
  59	4	15	23	24	25
  60	6	16	15	23	22
  61	3	16	15	23	24
  62	3	16	15	23	28
  63	5	19	15	23	22
  64	1	19	15	23	24
  65	3	19	15	23	28
  66	5	20	15	23	22
  67	1	20	15	23	24
  68	3	20	15	23	28
  69	1	33	29	30	31
  70	3	33	29	30	35
  71	1	34	29	30	31
  72	3	34	29	30	35
  73	4	29	30	31	32
  74	2	35	30	31	32
  75	3	24	23	22	30
  76	3	28	23	22	30
  77	6	15	23	22	30
  78	5	22	30	29	33
  79	5	22	30	29	34
  80	4	22	30	31	32
  81	6	23	22	30	29
  82	3	23	22	30	31
  83	3	23	22	30	35
  84	5	26	22	30	29
  85	1	26	22	30	31
  86	3	26	22	30	35
  87	5	27	22	30	29
  88	1	27	22	30	31
  89	3	27	22	30	35
  90	1	40	36	37	38
  91	3	40	36	37	42
  92	1	41	36	37	38
  93	3	41	36	37	42
  94	4	36	37	38	39
  95	2	42	37	38	39
  96	3	31	30	29	37
  97	3	35	30	29	37
  98	6	22	30	29	37
  99	5	29	37	36	40
 100	5	29	37	36	41
 101	4	29	37	38	39
 102	6	30	29	37	36
 103	3	30	29	37	38
 104	3	30	29	37	42
 105	5	33	29	37	36
 106	1	33	29	37	38
 107	3	33	29	37	42
 108	5	34	29	37	36
 109	1	34	29	37	38
 110	3	34	29	37	42
 111	1	47	43	44	45
 112	3	47	43	44	49
 113	1	48	43	44	45
 114	3	48	43	44	49
 115	4	43	44	45	46
 116	2	49	44	45	46
 117	3	38	37	36	44
 118	3	42	37	36	44
 119	6	29	37	36	44
 120	5	36	44	43	47
 121	5	36	44	43	48
 122	4	36	44	45	46
 123	6	37	36	44	43
 124	3	37	36	44	45
 125	3	37	36	44	49
 126	5	40	36	44	43
 127	1	40	36	44	45
 128	3	40	36	44	49
 129	5	41	36	44	43
 130	1	41	36	44	45
 131	3	41	36	44	49
 132	1	54	50	51	52
 133	3	54	50	51	56
 134	1	55	50	51	52
 135	3	55	50	51	56
 136	4	50	51	52	53
 137	2	56	51	52	53
 138	3	45	44	43	51
 139	3	49	44	43	51
 140	6	36	44	43	51
 141	5	43	51	50	54
 142	5	43	51	50	55
 143	4	43	51	52	53
 144	6	44	43	51	50
 145	3	44	43	51	52
 146	3	44	43	51	56
 147	5	47	43	51	50
 148	1	47	43	51	52
 149	3	47	43	51	56
 150	5	48	43	51	50
 151	1	48	43	51	52
 152	3	48	43	51	56
 153	1	61	57	58	59
 154	3	61	57	58	63
 155	1	62	57	58	59
 156	3	62	57	58	63
 157	4	57	58	59	60
 158	2	63	58	59	60
 159	3	52	51	50	58
 160	3	56	51	50	58
 161	6	43	51	50	58
 162	5	50	58	57	61
 163	5	50	58	57	62
 164	4	50	58	59	60
 165	6	51	50	58	57
 166	3	51	50	58	59
 167	3	51	50	58	63
 168	5	54	50	58	57
 169	1	54	50	58	59
 170	3	54	50	58	63
 171	5	55	50	58	57
 172	1	55	50	58	59
 173	3	55	50	58	63
 174	1	68	64	65	66
 175	3	68	64	65	70
 176	1	69	64	65	66
 177	3	69	64	65	70
 178	4	64	65	66	67
 179	2	70	65	66	67
 180	3	59	58	57	65
 181	3	63	58	57	65
 182	6	50	58	57	65
 183	5	57	65	64	68
 184	5	57	65	64	69
 185	4	57	65	66	67
 186	6	58	57	65	64
 187	3	58	57	65	66
 188	3	58	57	65	70
 189	5	61	57	65	64
 190	1	61	57	65	66
 191	3	61	57	65	70
 192	5	62	57	65	64
 193	1	62	57	65	66
 194	3	62	57	65	70
 195	1	75	71	72	73
 196	3	75	71	72	77
 197	1	76	71	72	73
 198	3	76	71	72	77
 199	4	71	72	73	74
 200	2	77	72	73	74
 201	3	66	65	64	72
 202	3	70	65	64	72
 203	6	57	65	64	72
 204	5	64	72	71	75
 205	5	64	72	71	76
 206	4	64	72	73	74
 207	6	65	64	72	71
 208	3	65	64	72	73
 209	3	65	64	72	77
 210	5	68	64	72	71
 211	1	68	64	72	73
 212	3	68	64	72	77
 213	5	69	64	72	71
 214	1	69	64	72	73
 215	3	69	64	72	77
 216	1	82	78	79	80
 217	3	82	78	79	84
 218	1	83	78	79	80
 219	3	83	78	79	84
 220	4	78	79	80	81
 221	2	84	79	80	81
 222	3	73	72	71	79
 223	3	77	72	71	79
 224	6	64	72	71	79
 225	5	71	79	78	82
 226	5	71	79	78	83
 227	4	71	79	80	81
 228	6	72	71	79	78
 229	3	72	71	79	80
 230	3	72	71	79	84
 231	5	75	71	79	78
 232	1	75	71	79	80
 233	3	75	71	79	84
 234	5	76	71	79	78
 235	1	76	71	79	80
 236	3	76	71	79	84
 237	1	89	85	86	87
 238	3	89	85	86	91
 239	1	90	85	86	87
 240	3	90	85	86	91
 241	4	85	86	87	88
 242	2	91	86	87	88
 243	3	80	79	78	86
 244	3	84	79	78	86
 245	6	71	79	78	86
 246	5	78	86	85	89
 247	5	78	86	85	90
 248	4	78	86	87	88
 249	6	79	78	86	85
 250	3	79	78	86	87
 251	3	79	78	86	91