pySIMM System Object

282 atoms
281 bonds
520 angles
831 dihedrals
0 impropers

5 atom types
5 bond types
8 angle types
6 dihedral types

-89.356178 89.356178 xlo xhi
-89.356178 89.356178 ylo yhi
-89.356178 89.356178 zlo zhi

Masses

   1	12.01	# c3
   2	1.008	# hc
   3	16.0	# oh
   4	1.008	# ho
   5	1.008	# h1

Pair Coeffs

   1	0.1094	3.3996695084235347	# c3
   2	0.0157	2.649532787749369	# hc
   3	0.2104	3.0664733878390478	# oh
   4	0.0047	0.5379246460131368	# ho
   5	0.0157	2.471353044121301	# h1

Bond Coeffs

   1	371.4	0.973	# ho,oh
   2	330.6	1.0969	# c3,hc
   3	300.9	1.5375	# c3,c3
   4	316.7	1.4233	# c3,oh
   5	330.6	1.0969	# c3,h1

Angle Coeffs

   1	67.47	110.19	# c3,c3,oh
   2	46.34	109.8	# c3,c3,hc
   3	50.93	110.26	# h1,c3,oh
   4	46.39	109.56	# c3,c3,h1
   5	39.4	107.58	# hc,c3,hc
   6	39.24	108.46	# h1,c3,h1
   7	47.38	107.26	# c3,oh,ho
   8	62.86	111.51	# c3,c3,c3

Dihedral Coeffs

   1	2	0.0	3	0	0.25	1	0	# hc,c3,c3,oh
   2	1	0.16666666666666666	3	0	# X,c3,oh,X
   3	1	0.15555555555555556	3	0	# X,c3,c3,X
   4	2	0.16	3	0	0.25	1	0	# ho,oh,c3,c3
   5	1	0.16	3	0	# hc,c3,c3,c3
   6	3	0.18	3	0	0.25	2	180	0.2	1	180	# c3,c3,c3,c3

Atoms

   1	1	1	-0.02562	-7.47351	14.1098	-4.2766
   2	1	1	0.401389	-7.41952	15.1352	-5.42748
   3	1	3	-0.707077	-7.95804	16.393	-5.02454
   4	1	4	0.414767	-7.97056	16.9537	-5.82477
   5	1	2	-0.013868	-7.04142	13.1668	-4.63656
   6	1	2	-0.001701	-8.5191	13.8965	-4.01779
   7	1	5	-0.06789	-6.38118	15.2734	-5.74802
   8	1	1	-0.02562	-6.6085	13.4511	-1.96549
   9	1	1	0.401389	-6.7016	14.5764	-3.02152
  10	1	3	-0.707077	-7.33646	15.7194	-2.45202
  11	1	4	0.414767	-7.64735	16.2364	-3.24558
  12	1	2	-0.013868	-6.13719	12.5733	-2.42707
  13	1	2	-0.001701	-7.61822	13.144	-1.66275
  14	1	5	-0.06789	-5.68564	14.8516	-3.32619
  15	1	1	-0.02562	-5.43698	12.68	0.198146
  16	1	1	0.401389	-5.78244	13.874	-0.728045
  17	1	3	-0.707077	-6.48267	14.8796	0.00196981
  18	1	4	0.414767	-6.83852	15.4785	-0.712663
  19	1	2	-0.013868	-4.67547	12.9929	0.924948
  20	1	2	-0.001701	-4.97179	11.8898	-0.405599
  21	1	5	-0.06789	-4.83809	14.2969	-1.08929
  22	1	1	-0.02562	-6.32317	10.7655	1.65917
  23	1	1	0.401389	-6.6585	12.0991	0.950698
  24	1	3	-0.707077	-7.13716	13.0494	1.89978
  25	1	4	0.414767	-7.05128	13.9186	1.41414
  26	1	2	-0.013868	-5.45657	10.892	2.32222
  27	1	2	-0.001701	-6.03224	10.0301	0.897732
  28	1	5	-0.06789	-7.45371	11.8975	0.225297
  29	1	1	-0.02562	-7.3354	8.74668	2.891
  30	1	1	0.401389	-7.52787	10.2188	2.45867
  31	1	3	-0.707077	-7.75533	11.0337	3.60838
  32	1	4	0.414767	-7.65086	11.9587	3.24039
  33	1	2	-0.013868	-7.16403	8.13467	1.99576
  34	1	2	-0.001701	-6.44135	8.64583	3.52113
  35	1	5	-0.06789	-8.41301	10.2662	1.81468
  36	1	1	-0.02562	-8.56825	6.68194	3.80864
  37	1	1	0.401389	-8.57946	8.21894	3.64015
  38	1	3	-0.707077	-8.67576	8.86977	4.91129
  39	1	4	0.414767	-8.42171	9.80571	4.65367
  40	1	2	-0.013868	-7.72543	6.36867	4.43754
  41	1	2	-0.001701	-8.41786	6.21909	2.82449
  42	1	5	-0.06789	-9.46183	8.48343	3.04713
  43	1	1	-0.02562	-10.0386	4.63082	4.38088
  44	1	1	0.401389	-9.90519	6.17637	4.39279
  45	1	3	-0.707077	-10.0775	6.67754	5.71759
  46	1	4	0.414767	-9.66458	7.58477	5.64036
  47	1	2	-0.013868	-9.08126	4.16826	4.10618
  48	1	2	-0.001701	-10.2386	4.28101	5.39709
  49	1	5	-0.06789	-10.7024	6.61644	3.78539
  50	1	1	-0.02562	-12.0843	3.02409	3.8537
  51	1	1	0.401389	-11.1543	4.17982	3.39707
  52	1	3	-0.707077	-10.5402	3.8149	2.16508
  53	1	4	0.414767	-9.99548	3.01139	2.35693
  54	1	2	-0.013868	-12.8952	2.94574	3.11719
  55	1	2	-0.001701	-11.5439	2.07424	3.79202
  56	1	5	-0.06789	-11.8178	5.02914	3.20287
  57	1	1	-0.02562	-13.1709	4.59627	5.65027
  58	1	1	0.401389	-12.7405	3.15406	5.25604
  59	1	3	-0.707077	-11.8759	2.57396	6.22802
  60	1	4	0.414767	-12.2283	2.9341	7.09352
  61	1	2	-0.013868	-13.9028	4.95688	4.9158
  62	1	2	-0.001701	-12.3247	5.28013	5.59103
  63	1	5	-0.06789	-13.6501	2.54313	5.24417
  64	1	1	-0.02562	-14.1957	6.13987	7.46459
  65	1	1	0.401389	-13.794	4.69963	7.06466
  66	1	3	-0.707077	-12.9159	4.17867	8.06094
  67	1	4	0.414767	-12.3664	4.96093	8.32865
  68	1	2	-0.013868	-14.6295	6.10112	8.47308
  69	1	2	-0.001701	-15.0092	6.47147	6.8064
  70	1	5	-0.06789	-14.7018	4.08622	7.06665
  71	1	1	-0.02562	-13.5013	8.43442	8.27957
  72	1	1	0.401389	-13.0673	7.21293	7.4272
  73	1	3	-0.707077	-11.8123	6.67965	7.87411
  74	1	4	0.414767	-11.247	6.65699	7.04284
  75	1	2	-0.013868	-13.6067	8.13108	9.33012
  76	1	2	-0.001701	-14.5069	8.73644	7.95808
  77	1	5	-0.06789	-12.9402	7.52233	6.38495
  78	1	1	-0.02562	-11.2492	9.55278	8.96693
  79	1	1	0.401389	-12.5942	9.68542	8.20033
  80	1	3	-0.707077	-12.4237	10.0789	6.84239
  81	1	4	0.414767	-11.6178	10.652	6.85458
  82	1	2	-0.013868	-11.1144	10.4421	9.59719
  83	1	2	-0.001701	-11.3128	8.71424	9.67008
  84	1	5	-0.06789	-13.1451	10.4886	8.70345
  85	1	1	-0.02562	-8.73935	8.96294	8.83342
  86	1	1	0.401389	-10.0055	9.39778	8.06041
  87	1	3	-0.707077	-9.75618	10.625	7.37562
  88	1	4	0.414767	-9.06738	10.415	6.71287
  89	1	2	-0.013868	-7.86114	9.42629	8.36294
  90	1	2	-0.001701	-8.7668	9.32663	9.86924
  91	1	5	-0.06789	-10.2136	8.64502	7.29756
  92	1	1	-0.02562	-7.16271	7.00376	9.32767
  93	1	1	0.401389	-8.55169	7.42965	8.80049
  94	1	3	-0.707077	-9.55865	6.76583	9.557
  95	1	4	0.414767	-10.3816	6.74097	9.00605
  96	1	2	-0.013868	-7.1769	6.98923	10.4264
  97	1	2	-0.001701	-6.40322	7.74217	9.03829
  98	1	5	-0.06789	-8.63742	7.1161	7.75952
  99	1	1	-0.02562	-6.29099	5.70289	7.30249
 100	1	1	0.401389	-6.74979	5.61919	8.77877
 101	1	3	-0.707077	-5.693	5.09399	9.57273
 102	1	4	0.414767	-6.06535	4.99049	10.4683
 103	1	2	-0.013868	-5.44608	6.40144	7.22758
 104	1	2	-0.001701	-7.09304	6.12593	6.68817
 105	1	5	-0.06789	-7.60418	4.93958	8.85759
 106	1	1	-0.02562	-7.01385	3.29492	6.70169
 107	1	1	0.401389	-5.8744	4.34714	6.69207
 108	1	3	-0.707077	-5.41382	4.59048	5.35807
 109	1	4	0.414767	-4.61562	5.1448	5.46755
 110	1	2	-0.013868	-7.94998	3.7503	6.35458
 111	1	2	-0.001701	-7.187	2.973	7.73629
 112	1	5	-0.06789	-5.02847	3.94194	7.25695
 113	1	1	-0.02562	-7.5575	0.825556	6.13271
 114	1	1	0.401389	-6.66804	2.05534	5.84284
 115	1	3	-0.707077	-6.73275	2.40862	4.46126
 116	1	4	0.414767	-6.17269	3.23525	4.45154
 117	1	2	-0.013868	-7.50077	0.602838	7.20706
 118	1	2	-0.001701	-7.12345	-0.0513403	5.63604
 119	1	5	-0.06789	-5.63655	1.76817	6.07553
 120	1	1	-0.02562	-9.47148	0.0594741	4.55916
 121	1	1	0.401389	-9.03503	1.01182	5.70024
 122	1	3	-0.707077	-9.88266	0.807407	6.81994
 123	1	4	0.414767	-10.6835	1.36878	6.63006
 124	1	2	-0.013868	-9.3326	-0.979839	4.88618
 125	1	2	-0.001701	-10.5462	0.175944	4.376
 126	1	5	-0.06789	-9.19016	2.04266	5.36906
 127	1	1	-0.02562	-9.22107	-0.644385	2.11113
 128	1	1	0.401389	-8.6985	0.276258	3.23607
 129	1	3	-0.707077	-8.75366	1.64573	2.82497
 130	1	4	0.414767	-8.01499	2.05853	3.36884
 131	1	2	-0.013868	-10.2641	-0.396935	1.87068
 132	1	2	-0.001701	-9.22118	-1.67902	2.47885
 133	1	5	-0.06789	-7.649	0.0159799	3.4059
 134	1	1	-0.02562	-8.72075	-1.67592	-0.172559
 135	1	1	0.401389	-8.34516	-0.567465	0.838401
 136	1	3	-0.707077	-8.47734	0.716366	0.232035
 137	1	4	0.414767	-8.55247	1.33755	1.00282
 138	1	2	-0.013868	-8.58537	-2.65029	0.315948
 139	1	2	-0.001701	-9.78699	-1.6011	-0.425266
 140	1	5	-0.06789	-7.29906	-0.711862	1.13109
 141	1	1	-0.02562	-8.19902	-2.87657	-2.35334
 142	1	1	0.401389	-7.87356	-1.64968	-1.46833
 143	1	3	-0.707077	-8.12686	-0.451898	-2.19715
 144	1	4	0.414767	-8.24517	0.235677	-1.48137
 145	1	2	-0.013868	-9.28002	-2.90618	-2.54551
 146	1	2	-0.001701	-7.97026	-3.79053	-1.78973
 147	1	5	-0.06789	-6.81348	-1.68257	-1.19318
 148	1	1	-0.02562	-5.92156	-3.09661	-3.58923
 149	1	1	0.401389	-7.45456	-2.93875	-3.70966
 150	1	3	-0.707077	-7.76057	-1.80781	-4.52045
 151	1	4	0.414767	-7.96727	-1.08947	-3.85658
 152	1	2	-0.013868	-5.69881	-3.84369	-2.81621
 153	1	2	-0.001701	-5.45536	-2.15499	-3.26958
 154	1	5	-0.06789	-7.83018	-3.83049	-4.22412
 155	1	1	-0.02562	-3.85004	-4.01802	-4.82437
 156	1	1	0.401389	-5.32641	-3.57018	-4.936
 157	1	3	-0.707077	-5.45266	-2.54925	-5.92348
 158	1	4	0.414767	-6.33898	-2.13633	-5.73302
 159	1	2	-0.013868	-3.75912	-4.70787	-3.97528
 160	1	2	-0.001701	-3.19846	-3.16024	-4.6096
 161	1	5	-0.06789	-5.90993	-4.43893	-5.26108
 162	1	1	-0.02562	-2.09857	-5.57692	-5.93889
 163	1	1	0.401389	-3.39756	-4.73824	-6.11756
 164	1	3	-0.707077	-3.29828	-3.7922	-7.18212
 165	1	4	0.414767	-4.08244	-3.19436	-7.03797
 166	1	2	-0.013868	-2.23769	-6.54018	-6.44765
 167	1	2	-0.001701	-1.97051	-5.82683	-4.87768
 168	1	5	-0.06789	-4.19133	-5.44925	-6.37281
 169	1	1	-0.02562	0.445128	-5.7703	-6.07337
 170	1	1	0.401389	-0.793573	-4.92777	-6.46301
 171	1	3	-0.707077	-0.865082	-4.78307	-7.87997
 172	1	4	0.414767	-1.73221	-4.30562	-7.99292
 173	1	2	-0.013868	0.289862	-6.8183	-6.36421
 174	1	2	-0.001701	0.541822	-5.75662	-4.97994
 175	1	5	-0.06789	-0.689078	-3.93469	-6.01139
 176	1	1	-0.02562	3.04575	-5.72349	-6.01882
 177	1	1	0.401389	1.7511	-5.23343	-6.70607
 178	1	3	-0.707077	1.7935	-5.56264	-8.09059
 179	1	4	0.414767	0.888132	-5.29514	-8.39906
 180	1	2	-0.013868	3.88751	-5.19959	-6.4872
 181	1	2	-0.001701	3.04799	-5.39957	-4.96978
 182	1	5	-0.06789	1.73685	-4.14124	-6.6156
 183	1	1	-0.02562	4.75507	-7.63742	-5.86017
 184	1	1	0.401389	3.27217	-7.25602	-6.08892
 185	1	3	-0.707077	2.47299	-7.91063	-5.10584
 186	1	4	0.414767	2.45659	-8.85049	-5.35752
 187	1	2	-0.013868	4.80486	-8.60422	-5.34031
 188	1	2	-0.001701	5.22664	-6.90608	-5.19181
 189	1	5	-0.06789	2.97358	-7.63809	-7.07097
 190	1	1	-0.02562	6.98621	-8.30005	-6.96713
 191	1	1	0.401389	5.5487	-7.76752	-7.18532
 192	1	3	-0.707077	5.58524	-6.53306	-7.9029
 193	1	4	0.414767	4.69703	-6.40975	-8.30164
 194	1	2	-0.013868	6.93373	-9.22189	-6.37221
 195	1	2	-0.001701	7.39871	-8.58491	-7.9425
 196	1	5	-0.06789	5.02364	-8.50166	-7.80673
 197	1	1	-0.02562	9.22033	-7.92368	-5.68316
 198	1	1	0.401389	7.93338	-7.29104	-6.26813
 199	1	3	-0.707077	8.24607	-6.21344	-7.14147
 200	1	4	0.414767	7.38954	-6.04398	-7.60798
 201	1	2	-0.013868	8.93493	-8.74213	-5.0105
 202	1	2	-0.001701	9.70235	-7.16878	-5.04756
 203	1	5	-0.06789	7.39336	-6.87235	-5.41298
 204	1	1	-0.02562	11.5912	-8.85028	-6.05167
 205	1	1	0.401389	10.2592	-8.42328	-6.72129
 206	1	3	-0.707077	9.75491	-9.51055	-7.49019
 207	1	4	0.414767	10.1654	-10.3169	-7.07769
 208	1	2	-0.013868	12.3429	-9.03472	-6.83113
 209	1	2	-0.001701	11.9737	-8.00862	-5.45885
 210	1	5	-0.06789	10.4934	-7.59566	-7.39977
 211	1	1	-0.02562	12.7975	-10.3867	-4.392
 212	1	1	0.401389	11.4764	-10.1013	-5.14121
 213	1	3	-0.707077	11.0817	-11.2428	-5.89553
 214	1	4	0.414767	10.9903	-11.933	-5.19052
 215	1	2	-0.013868	12.9116	-9.61861	-3.61469
 216	1	2	-0.001701	13.6461	-10.2482	-5.07511
 217	1	5	-0.06789	10.7078	-9.91454	-4.38469
 218	1	1	-0.02562	13.8487	-11.7498	-2.52727
 219	1	1	0.401389	12.9134	-11.8012	-3.75377
 220	1	3	-0.707077	11.6426	-12.3212	-3.37428
 221	1	4	0.414767	11.893	-13.1201	-2.83891
 222	1	2	-0.013868	14.6974	-11.1435	-2.83564
 223	1	2	-0.001701	13.3558	-11.1759	-1.73187
 224	1	5	-0.06789	13.3492	-12.4757	-4.49932
 225	1	1	-0.02562	15.6057	-13.7345	-2.54519
 226	1	1	0.401389	14.3148	-13.1141	-1.92809
 227	1	3	-0.707077	13.252	-14.0668	-2.00444
 228	1	4	0.414767	13.5077	-14.7989	-1.41147
 229	1	2	-0.013868	15.6	-14.8187	-2.36495
 230	1	2	-0.001701	15.5825	-13.6146	-3.63601
 231	1	5	-0.06789	14.5108	-12.952	-0.863659
 232	1	1	-0.02562	17.1113	-11.6742	-2.24926
 233	1	1	0.401389	16.9557	-13.1826	-1.99422
 234	1	3	-0.707077	17.0923	-13.4631	-0.602197
 235	1	4	0.414767	17.2639	-14.4212	-0.528216
 236	1	2	-0.013868	16.8871	-11.487	-3.30828
 237	1	2	-0.001701	16.3742	-11.1342	-1.64419
 238	1	5	-0.06789	17.7648	-13.7019	-2.51926
 239	1	1	-0.02562	18.5094	-9.66152	-2.5844
 240	1	1	0.401389	18.4764	-11.054	-1.91075
 241	1	3	-0.707077	18.5795	-10.9571	-0.492706
 242	1	4	0.414767	18.2614	-11.8267	-0.161695
 243	1	2	-0.013868	18.5394	-9.79167	-3.67517
 244	1	2	-0.001701	17.5632	-9.14742	-2.36553
 245	1	5	-0.06789	19.2785	-11.6869	-2.30681
 246	1	1	-0.02562	19.5414	-7.37388	-2.88533
 247	1	1	0.401389	19.6575	-8.73414	-2.15456
 248	1	3	-0.707077	20.9199	-9.30956	-2.46673
 249	1	4	0.414767	21.5511	-8.60118	-2.20541
 250	1	2	-0.013868	18.4921	-7.13034	-3.08433
 251	1	2	-0.001701	20.0008	-7.45496	-3.87954
 252	1	5	-0.06789	19.5896	-8.57216	-1.07471
 253	1	1	-0.02562	19.4766	-5.76517	-0.822984
 254	1	1	0.401389	20.2071	-6.2096	-2.11845
 255	1	3	-0.707077	21.5566	-6.55591	-1.80519
 256	1	4	0.414767	21.9602	-5.75085	-1.43128
 257	1	2	-0.013868	19.4351	-6.59692	-0.107905
 258	1	2	-0.001701	20.0896	-4.99877	-0.333494
 259	1	5	-0.06789	20.2453	-5.34937	-2.79381
 260	1	1	-0.02562	17.8422	-4.19067	-2.17767
 261	1	1	0.401389	18.0428	-5.19412	-1.0099
 262	1	3	-0.707077	17.1075	-6.26	-1.14702
 263	1	4	0.414767	16.9571	-6.5999	-0.246348
 264	1	2	-0.013868	17.967	-4.71049	-3.13685
 265	1	2	-0.001701	16.7978	-3.85279	-2.15314
 266	1	5	-0.06789	17.7748	-4.68247	-0.078951
 267	1	1	-0.02562	18.1501	-1.71493	-2.86272
 268	1	1	0.401389	18.7712	-2.94701	-2.16263
 269	1	3	-0.707077	19.1023	-2.57366	-0.829458
 270	1	4	0.414767	19.3942	-1.64449	-0.869214
 271	1	2	-0.013868	18.8738	-0.888076	-2.84051
 272	1	2	-0.001701	17.2828	-1.3838	-2.27581
 273	1	5	-0.06789	19.704	-3.20298	-2.67637
 274	1	1	-0.02562	18.8855	-2.04678	-5.31196
 275	1	1	0.401389	17.7035	-1.96294	-4.32387
 276	1	3	-0.707077	16.8381	-0.910475	-4.72819
 277	1	4	0.414767	16.4491	-1.18643	-5.57622
 278	1	2	-0.013868	19.5756	-2.85439	-5.03958
 279	1	2	-0.001701	18.5205	-2.2451	-6.32803
 280	1	5	-0.06789	17.1356	-2.8968	-4.38061
 281	1	5	0	-7.98753	14.745	-6.28082
 282	1	2	0	19.4474	-1.10381	-5.33006

Velocities

   1	-0.000774259	0.000143396	-0.000300533
   2	-0.000244382	0.000307787	-0.000210627
   3	-0.000726263	5.32803e-05	-0.000203098
   4	0.00106521	0.000645282	0.000223398
   5	-0.00153238	-0.000198409	-0.000444827
   6	-0.00101076	0.00117965	-1.39918e-05
   7	4.55061e-05	0.000576744	0.000661862
   8	8.56121e-05	-0.000390446	-9.85176e-05
   9	-8.57468e-06	-0.000494193	-0.000367663
  10	0.000740608	-6.80553e-05	-0.000114296
  11	0.000249027	-0.000141795	0.000112056
  12	0.000278775	-0.000354867	-0.000155379
  13	0.000193376	-0.000814001	-0.000193346
  14	-8.11645e-05	-0.000751713	-0.000619332
  15	0.000179484	-8.16675e-06	0.000483169
  16	-0.000142976	-0.000492947	0.000107973
  17	-0.000138249	-0.000489311	7.05207e-05
  18	0.000411606	-0.000120526	2.51477e-05
  19	-8.60482e-05	0.00038116	0.00055946
  20	0.00059425	-0.000164641	0.000906448
  21	-0.000112815	-0.000270712	0.000238076
  22	0.00025204	-0.000383828	0.000305865
  23	0.000324664	-0.00014225	0.000680635
  24	0.000726653	-0.000229605	0.000961732
  25	0.000545938	-0.000209741	0.00104834
  26	-1.47261e-05	-0.000722094	0.000579028
  27	0.000281304	-0.00025682	0.000204603
  28	0.000126103	0.000131701	0.000801523
  29	-0.000177337	-0.00046617	-0.000347421
  30	-0.000171695	-0.000523598	-0.000153622
  31	-0.000597708	-0.000587171	-0.000194977
  32	-0.000382807	-0.000519912	-5.50341e-05
  33	-0.000708568	-0.000513891	-0.000429499
  34	-5.59391e-05	-0.000805711	-0.000668023
  35	0.000211456	-0.000491943	-0.000555061
  36	1.01668e-05	-0.000157415	0.000215407
  37	-7.69898e-05	-0.000361734	9.19924e-05
  38	0.000284477	-0.00017929	5.65638e-06
  39	0.000183918	-0.000213479	-0.000177864
  40	-1.74422e-05	-0.000130936	0.000474163
  41	0.000209558	-0.000384159	0.000330464
  42	-0.000148469	-0.000380269	0.000242576
  43	2.11261e-05	0.000189701	0.000400042
  44	4.91649e-05	0.000178456	1.33286e-05
  45	-0.000310047	0.000466077	-0.000175396
  46	-0.00028768	0.00047716	-0.000249648
  47	0.000114762	0.000218227	0.000563442
  48	-6.13514e-06	0.000521742	0.000358307
  49	0.000139844	7.92489e-05	-0.000268447
  50	0.000750815	-0.000135292	0.00030313
  51	0.00030157	0.000288837	0.000290037
  52	0.000126573	0.000569624	0.000147808
  53	-0.000223982	0.000271425	-0.000232726
  54	0.000916271	-0.000819927	0.000137854
  55	0.00131177	0.000167614	0.000804908
  56	-8.13233e-05	-3.41525e-06	0.00050083
  57	0.000246701	0.000119058	9.59604e-05
  58	0.000479684	0.000152656	0.000150762
  59	0.00050318	0.00022453	0.000292853
  60	0.000379665	0.000374005	0.000228561
  61	0.000479444	0.000114007	-0.000130773
  62	0.0003197	0.000146723	0.000202549
  63	0.000462918	-9.76804e-06	0.00012195
  64	-6.12061e-06	-0.000106561	0.000199916
  65	8.16137e-05	1.52191e-05	-3.09586e-05
  66	2.0231e-05	6.14507e-05	2.24767e-05
  67	-8.41986e-05	0.000116582	1.91729e-05
  68	0.000607516	-0.000260759	0.000407927
  69	-0.000435626	-0.000196325	0.000677597
  70	0.000139613	-7.57821e-05	-0.00023514
  71	-0.000120761	8.09198e-05	-0.000465427
  72	-0.000164424	-3.62496e-05	-0.00028195
  73	-5.86297e-05	0.000146233	-0.000339128
  74	-5.92704e-05	0.00041142	-0.000310804
  75	-5.3519e-05	0.000230356	-0.000408161
  76	-0.000151635	1.15171e-05	-0.000445208
  77	-0.000370983	-0.000237763	-0.000377536
  78	-0.000215465	0.000270977	-0.000445133
  79	-0.00012729	4.65103e-05	-0.000702913
  80	8.61096e-05	-0.000355159	-0.000799821
  81	0.000111694	-0.000395038	-0.000854846
  82	-0.000295882	0.000505773	-0.000764487
  83	-0.000351697	0.000527314	-0.000161771
  84	-0.000214301	0.000193124	-0.00103206
  85	-0.00020958	-4.82973e-05	4.53315e-05
  86	-0.000103531	-0.000123331	-0.00021738
  87	6.02948e-05	-0.000395891	-0.000629985
  88	-0.000267066	-0.000829599	-0.000838705
  89	-0.000140221	-6.07372e-05	0.000146526
  90	-0.000371078	3.11263e-05	7.33277e-06
  91	-0.00010135	-0.000326868	5.39129e-06
  92	-0.000140534	-0.000122463	0.000171564
  93	-0.00014867	-5.97583e-05	0.000157215
  94	-0.000200992	-6.16562e-05	9.48734e-05
  95	5.95348e-06	-0.000436562	-0.00018661
  96	-6.20328e-05	-6.64269e-05	0.000165167
  97	-0.000117354	-0.00016772	9.50634e-05
  98	-0.000146899	-9.27981e-05	0.000173905
  99	-0.000526711	-0.000134689	7.09308e-05
 100	-0.000192939	-0.000165746	0.000170366
 101	5.35727e-05	-7.45017e-05	-9.04664e-05
 102	0.000256585	-0.000437795	-5.17207e-05
 103	-0.000707023	6.08721e-05	-7.22986e-05
 104	-0.000740208	-0.000333608	0.000232623
 105	-0.000127116	-0.000218584	0.000388001
 106	2.73764e-05	-0.000251977	-0.000224807
 107	-0.000275036	1.41479e-05	-8.60441e-05
 108	-0.000365287	0.000323197	-4.6454e-05
 109	-0.00121368	0.0015364	6.02561e-06
 110	-3.89949e-05	-0.000539869	-0.000436149
 111	-0.000117348	-0.000242236	-0.000243168
 112	-0.000177397	0.000136379	-0.000156217
 113	0.00069087	-0.000260643	-0.000276357
 114	0.000597497	-0.000204015	-8.34892e-05
 115	0.000903486	-0.000503519	-0.000201247
 116	0.00128701	-0.000791349	-0.000374609
 117	0.0006796	-0.000544777	-0.000336243
 118	0.000721743	-0.000106935	-0.000544298
 119	0.000556534	-7.21967e-06	0.000333108
 120	0.000923572	-1.42056e-05	-0.000271616
 121	0.000777361	1.71525e-05	-0.000324896
 122	0.000648088	0.000218454	-0.000387527
 123	0.000750883	0.000414405	-0.000407576
 124	0.00201971	3.1777e-05	-0.000564245
 125	0.000735103	-0.000885187	0.000284028
 126	0.000912878	7.95353e-06	-0.000436144
 127	7.50589e-05	0.000483248	-0.000265322
 128	0.000151532	0.000810718	-0.000571607
 129	-0.000761176	0.000857431	-0.000381134
 130	-0.000770853	0.00113232	-0.000635735
 131	-1.75088e-05	0.000240276	-0.000161833
 132	0.000328912	0.000593073	4.54255e-05
 133	0.00039977	0.00151832	-0.00115113
 134	-0.000602459	0.000330776	-0.00040658
 135	-0.00010228	0.000151947	-0.000369393
 136	0.000359596	0.000224655	-0.000287824
 137	-0.000258433	0.000168111	-0.000297863
 138	-0.00135149	0.000231065	-0.000381551
 139	-0.000479152	0.000981004	-0.000728182
 140	-0.000133401	-0.000322794	-0.000441999
 141	-0.000330343	6.9896e-05	-0.000275939
 142	-0.000127481	-0.000118154	-0.000102178
 143	0.000749176	1.47365e-05	-0.000181815
 144	0.0010415	9.84766e-05	-0.000212483
 145	-0.000246318	0.000728933	-0.000905569
 146	-0.00115561	-0.000100146	-0.000233537
 147	-0.000254701	-0.000650666	0.00030882
 148	0.000267711	-0.000499888	0.000631756
 149	0.000325453	-0.000188418	0.000110438
 150	0.000727885	-0.000220345	-0.000112663
 151	0.000559784	-0.000150333	-0.000263589
 152	-8.71442e-05	-0.000777128	0.000484391
 153	0.000411208	-0.000697555	0.000992037
 154	0.000392403	-0.000171957	4.01132e-05
 155	0.000185045	-0.000838266	0.000366878
 156	0.000395216	-0.00027114	0.000592026
 157	0.00080038	8.3158e-05	0.000901398
 158	0.000764182	8.814e-05	0.000806155
 159	5.04462e-05	-0.00110564	0.00016195
 160	0.000597358	-0.00116457	0.000455787
 161	0.000123065	5.19346e-05	0.000246066
 162	-0.000253749	-0.000556924	-0.000484189
 163	-0.000325318	-0.000719899	8.22874e-05
 164	-0.000776923	-0.000660229	0.000102168
 165	-0.000469626	-0.000383046	0.000731892
 166	3.97469e-06	-0.000256355	-0.00113321
 167	-0.000266315	-0.00118041	-0.000641207
 168	-0.000427814	-0.000741717	0.000399978
 169	-0.000272649	0.000447739	0.000221948
 170	-0.00034615	0.000169557	7.14603e-05
 171	-1.50124e-05	0.000734643	0.000107444
 172	-0.000118958	0.000504295	-3.69085e-06
 173	0.000122789	0.000467305	-0.000129036
 174	-0.000712105	0.000152639	0.000279604
 175	-0.000932316	6.01996e-05	0.000469412
 176	-0.000261872	0.000607469	0.00104012
 177	-5.04774e-05	0.000916077	0.000935858
 178	0.000362847	0.00165656	0.000754368
 179	0.000401312	0.00161235	0.000631128
 180	-2.96714e-05	0.000736763	0.00157886
 181	-0.000553819	0.00016407	0.0012003
 182	-0.000244071	0.000887177	0.00152325
 183	-0.000358753	-9.50223e-06	-0.000692433
 184	-0.000384623	0.000545466	0.000507255
 185	0.000227082	0.000755066	0.00116008
 186	0.000186103	0.000653922	0.00149444
 187	-0.000419643	-0.000571702	-0.00174309
 188	5.48906e-05	-0.00082537	-6.15809e-05
 189	-0.00136104	0.000726842	0.000724332
 190	-0.000524051	0.000423281	-0.00135547
 191	-0.000410397	0.000897644	-0.00091363
 192	-0.000230737	0.00144618	3.50719e-05
 193	7.95222e-06	0.00156002	-0.00041829
 194	-0.000795449	-0.00040014	-0.00263824
 195	-0.00010496	0.00173109	-0.00159265
 196	-0.000621885	0.00151624	-0.00149124
 197	-0.000664184	-0.00163336	-0.000233657
 198	-0.0004172	-0.00078903	0.000494097
 199	-0.000340915	0.000687861	0.00229317
 200	-0.000209982	0.00150864	0.00239988
 201	-0.000868915	-0.00204991	-0.000746778
 202	-0.000282053	-0.00230252	0.000304338
 203	-0.000554226	-0.00219714	0.00109147
 204	-0.000663219	-0.00116478	-0.000624683
 205	-0.000682648	-0.00147744	-0.000434264
 206	-0.000786071	-0.00160002	-0.000248106
 207	-0.000252745	-0.00145505	-0.000415281
 208	-0.000528707	-0.00119381	-0.0004963
 209	-0.000689871	-0.00119628	-0.000569077
 210	-0.000999083	-0.00144539	-0.000606692
 211	-0.000633678	-0.000659502	-0.000331871
 212	-0.000454022	-0.00121304	-0.000365185
 213	-0.000312051	-0.00127986	-0.000324531
 214	-0.000537324	-0.0010659	-0.000116526
 215	-0.000601791	-0.000427955	-0.00063779
 216	-0.000505121	-0.00107497	-0.000270963
 217	-0.00060181	-0.00113943	-0.000503655
 218	-0.00173255	0.00057628	0.00113229
 219	-0.000389383	-0.000518362	0.000401691
 220	-0.00056148	-0.0012145	-0.000854711
 221	-0.000644259	-0.00120016	-0.000746963
 222	-0.00195046	0.00147333	0.00230896
 223	-0.0030134	-0.000293143	0.000949091
 224	0.000736825	-0.000405366	0.000997146
 225	-0.00105771	0.00157771	-0.000515365
 226	-0.000651382	0.000715589	0.000911908
 227	-0.000440511	0.000476268	0.00146052
 228	-0.000156793	0.00077466	0.00172764
 229	-0.00076958	0.00138004	-0.00138547
 230	-0.00196172	0.00236152	-0.000406108
 231	5.57242e-05	0.000794767	0.000748004
 232	-0.000468775	0.00128988	-0.000639921
 233	-0.000706783	0.00120589	-0.00118078
 234	0.000229054	0.000626925	-0.00141905
 235	0.00138772	0.000778392	-0.00219125
 236	-0.000407964	0.00184424	-0.000594834
 237	-0.000270764	0.00132283	-0.000513996
 238	-0.00116695	0.00140245	-0.00198295
 239	0.000645618	0.000674836	-2.86863e-05
 240	-0.000220493	0.000653181	-0.00019453
 241	-0.000557257	0.000484273	-0.000111909
 242	-0.000752037	0.000488152	-0.000360454
 243	0.00119079	0.000617284	-6.87865e-05
 244	0.000666157	0.000945434	-0.000559514
 245	-0.000318097	0.0004019	9.01235e-07
 246	0.00164887	-2.94281e-05	-0.000279717
 247	0.00069172	0.0003577	0.000469687
 248	0.000687493	-0.00031454	0.00161688
 249	0.000820997	-0.000316067	0.00135017
 250	0.00184294	0.000301253	-0.00109881
 251	0.00217129	-0.000875283	4.0282e-05
 252	-0.000104602	0.000786863	0.00038327
 253	0.00208596	0.000518468	-0.000432161
 254	0.00153584	0.000209139	-0.000697171
 255	0.00157081	0.000222812	-0.000675253
 256	0.00141087	-8.15416e-05	0.000259359
 257	0.00350665	0.000972571	-2.18883e-05
 258	0.00183203	0.00148077	-0.00160785
 259	0.00129911	0.000233974	-0.000887232
 260	-0.00084022	0.000493945	0.00200559
 261	0.00133828	-0.000645218	0.00057813
 262	0.00246435	-0.00172016	-5.56269e-05
 263	0.00248685	-0.00240164	-0.000427007
 264	-0.00259203	0.0014226	0.00112006
 265	-0.000927117	0.000279514	0.00436242
 266	0.0014471	-0.00224973	0.00137663
 267	-0.00217244	0.000357301	0.000207718
 268	-0.00138577	0.0009809	0.000899386
 269	-0.00192459	0.00183758	0.000850977
 270	0.00534853	-0.00048611	-0.000792114
 271	-0.00361961	0.00171593	0.00173963
 272	-0.00379286	-0.00138707	-0.00126677
 273	-0.00113423	0.00104964	0.00136951
 274	0.00137549	-0.00156031	0.000616117
 275	0.000178472	0.000832978	-0.000791252
 276	0.00186034	0.00169797	-0.00212561
 277	-0.00132374	-0.000370005	-8.75343e-06
 278	-0.000544646	-0.00283075	0.00153745
 279	0.0019644	-0.00115274	8.92134e-05
 280	-0.00109417	0.00164095	-0.00097979
 281	0.00073612	0.000460064	-0.000747591
 282	0.00372899	-0.00299005	0.000649888

Bonds

   1	3	1	2
   2	2	1	5
   3	2	1	6
   4	4	2	3
   5	5	2	7
   6	1	3	4
   7	3	8	9
   8	2	8	12
   9	2	8	13
  10	4	9	10
  11	5	9	14
  12	1	10	11
  13	3	1	9
  14	3	15	16
  15	2	15	19
  16	2	15	20
  17	4	16	17
  18	5	16	21
  19	1	17	18
  20	3	8	16
  21	3	22	23
  22	2	22	26
  23	2	22	27
  24	4	23	24
  25	5	23	28
  26	1	24	25
  27	3	15	23
  28	3	29	30
  29	2	29	33
  30	2	29	34
  31	4	30	31
  32	5	30	35
  33	1	31	32
  34	3	22	30
  35	3	36	37
  36	2	36	40
  37	2	36	41
  38	4	37	38
  39	5	37	42
  40	1	38	39
  41	3	29	37
  42	3	43	44
  43	2	43	47
  44	2	43	48
  45	4	44	45
  46	5	44	49
  47	1	45	46
  48	3	36	44
  49	3	50	51
  50	2	50	54
  51	2	50	55
  52	4	51	52
  53	5	51	56
  54	1	52	53
  55	3	43	51
  56	3	57	58
  57	2	57	61
  58	2	57	62
  59	4	58	59
  60	5	58	63
  61	1	59	60
  62	3	50	58
  63	3	64	65
  64	2	64	68
  65	2	64	69
  66	4	65	66
  67	5	65	70
  68	1	66	67
  69	3	57	65
  70	3	71	72
  71	2	71	75
  72	2	71	76
  73	4	72	73
  74	5	72	77
  75	1	73	74
  76	3	64	72
  77	3	78	79
  78	2	78	82
  79	2	78	83
  80	4	79	80
  81	5	79	84
  82	1	80	81
  83	3	71	79
  84	3	85	86
  85	2	85	89
  86	2	85	90
  87	4	86	87
  88	5	86	91
  89	1	87	88
  90	3	78	86
  91	3	92	93
  92	2	92	96
  93	2	92	97
  94	4	93	94
  95	5	93	98
  96	1	94	95
  97	3	85	93
  98	3	99	100
  99	2	99	103
 100	2	99	104
 101	4	100	101
 102	5	100	105
 103	1	101	102
 104	3	92	100
 105	3	106	107
 106	2	106	110
 107	2	106	111
 108	4	107	108
 109	5	107	112
 110	1	108	109
 111	3	99	107
 112	3	113	114
 113	2	113	117
 114	2	113	118
 115	4	114	115
 116	5	114	119
 117	1	115	116
 118	3	106	114
 119	3	120	121
 120	2	120	124
 121	2	120	125
 122	4	121	122
 123	5	121	126
 124	1	122	123
 125	3	113	121
 126	3	127	128
 127	2	127	131
 128	2	127	132
 129	4	128	129
 130	5	128	133
 131	1	129	130
 132	3	120	128
 133	3	134	135
 134	2	134	138
 135	2	134	139
 136	4	135	136
 137	5	135	140
 138	1	136	137
 139	3	127	135
 140	3	141	142
 141	2	141	145
 142	2	141	146
 143	4	142	143
 144	5	142	147
 145	1	143	144
 146	3	134	142
 147	3	148	149
 148	2	148	152
 149	2	148	153
 150	4	149	150
 151	5	149	154
 152	1	150	151
 153	3	141	149
 154	3	155	156
 155	2	155	159
 156	2	155	160
 157	4	156	157
 158	5	156	161
 159	1	157	158
 160	3	148	156
 161	3	162	163
 162	2	162	166
 163	2	162	167
 164	4	163	164
 165	5	163	168
 166	1	164	165
 167	3	155	163
 168	3	169	170
 169	2	169	173
 170	2	169	174
 171	4	170	171
 172	5	170	175
 173	1	171	172
 174	3	162	170
 175	3	176	177
 176	2	176	180
 177	2	176	181
 178	4	177	178
 179	5	177	182
 180	1	178	179
 181	3	169	177
 182	3	183	184
 183	2	183	187
 184	2	183	188
 185	4	184	185
 186	5	184	189
 187	1	185	186
 188	3	176	184
 189	3	190	191
 190	2	190	194
 191	2	190	195
 192	4	191	192
 193	5	191	196
 194	1	192	193
 195	3	183	191
 196	3	197	198
 197	2	197	201
 198	2	197	202
 199	4	198	199
 200	5	198	203
 201	1	199	200
 202	3	190	198
 203	3	204	205
 204	2	204	208
 205	2	204	209
 206	4	205	206
 207	5	205	210
 208	1	206	207
 209	3	197	205
 210	3	211	212
 211	2	211	215
 212	2	211	216
 213	4	212	213
 214	5	212	217
 215	1	213	214
 216	3	204	212
 217	3	218	219
 218	2	218	222
 219	2	218	223
 220	4	219	220
 221	5	219	224
 222	1	220	221
 223	3	211	219
 224	3	225	226
 225	2	225	229
 226	2	225	230
 227	4	226	227
 228	5	226	231
 229	1	227	228
 230	3	218	226
 231	3	232	233
 232	2	232	236
 233	2	232	237
 234	4	233	234
 235	5	233	238
 236	1	234	235
 237	3	225	233
 238	3	239	240
 239	2	239	243
 240	2	239	244
 241	4	240	241
 242	5	240	245
 243	1	241	242
 244	3	232	240
 245	3	246	247
 246	2	246	250
 247	2	246	251
 248	4	247	248
 249	5	247	252
 250	1	248	249
 251	3	239	247
 252	3	253	254
 253	2	253	257
 254	2	253	258
 255	4	254	255
 256	5	254	259
 257	1	255	256
 258	3	246	254
 259	3	260	261
 260	2	260	264
 261	2	260	265
 262	4	261	262
 263	5	261	266
 264	1	262	263
 265	3	253	261
 266	3	267	268
 267	2	267	271
 268	2	267	272
 269	4	268	269
 270	5	268	273
 271	1	269	270
 272	3	260	268
 273	3	274	275
 274	2	274	278
 275	2	274	279
 276	4	275	276
 277	5	275	280
 278	1	276	277
 279	3	267	275
 280	5	2	281
 281	2	274	282

Angles

   1	2	2	1	5
   2	2	2	1	6
   3	5	5	1	6
   4	1	1	2	3
   5	4	1	2	7
   6	3	3	2	7
   7	7	2	3	4
   8	2	9	8	12
   9	2	9	8	13
  10	5	12	8	13
  11	1	8	9	10
  12	4	8	9	14
  13	3	10	9	14
  14	7	9	10	11
  15	8	2	1	9
  16	2	5	1	9
  17	2	6	1	9
  18	8	1	9	8
  19	1	1	9	10
  20	4	1	9	14
  21	2	16	15	19
  22	2	16	15	20
  23	5	19	15	20
  24	1	15	16	17
  25	4	15	16	21
  26	3	17	16	21
  27	7	16	17	18
  28	8	9	8	16
  29	2	12	8	16
  30	2	13	8	16
  31	8	8	16	15
  32	1	8	16	17
  33	4	8	16	21
  34	2	23	22	26
  35	2	23	22	27
  36	5	26	22	27
  37	1	22	23	24
  38	4	22	23	28
  39	3	24	23	28
  40	7	23	24	25
  41	8	16	15	23
  42	2	19	15	23