pySIMM System Object

156 atoms
155 bonds
286 angles
453 dihedrals
0 impropers

5 atom types
5 bond types
8 angle types
6 dihedral types

-72.695827 72.695827 xlo xhi
-72.695827 72.695827 ylo yhi
-72.695827 72.695827 zlo zhi

Masses

   1	12.01	# c3
   2	1.008	# hc
   3	16.0	# oh
   4	1.008	# ho
   5	1.008	# h1

Pair Coeffs

   1	0.1094	3.3996695084235347	# c3
   2	0.0157	2.649532787749369	# hc
   3	0.2104	3.0664733878390478	# oh
   4	0.0047	0.5379246460131368	# ho
   5	0.0157	2.471353044121301	# h1

Bond Coeffs

   1	371.4	0.973	# ho,oh
   2	330.6	1.0969	# c3,hc
   3	300.9	1.5375	# c3,c3
   4	316.7	1.4233	# c3,oh
   5	330.6	1.0969	# c3,h1

Angle Coeffs

   1	67.47	110.19	# c3,c3,oh
   2	46.34	109.8	# c3,c3,hc
   3	50.93	110.26	# h1,c3,oh
   4	46.39	109.56	# c3,c3,h1
   5	39.4	107.58	# hc,c3,hc
   6	39.24	108.46	# h1,c3,h1
   7	47.38	107.26	# c3,oh,ho
   8	62.86	111.51	# c3,c3,c3

Dihedral Coeffs

   1	2	0.0	3	0	0.25	1	0	# hc,c3,c3,oh
   2	1	0.16666666666666666	3	0	# X,c3,oh,X
   3	1	0.15555555555555556	3	0	# X,c3,c3,X
   4	2	0.16	3	0	0.25	1	0	# ho,oh,c3,c3
   5	1	0.16	3	0	# hc,c3,c3,c3
   6	3	0.18	3	0	0.25	2	180	0.2	1	180	# c3,c3,c3,c3

Atoms

   1	1	1	-0.02562	-10.0084	5.84046	11.8442
   2	1	1	0.401389	-10.9647	6.21594	12.9935
   3	1	3	-0.707077	-11.6762	7.4157	12.6968
   4	1	4	0.414767	-12.1675	7.65026	13.5079
   5	1	2	-0.013868	-9.46525	4.93063	12.1318
   6	1	2	-0.001701	-9.25376	6.62791	11.7168
   7	1	5	-0.06789	-11.6796	5.40266	13.1588
   8	1	1	-0.02562	-9.78785	5.0327	9.43622
   9	1	1	0.401389	-10.747	5.59336	10.5093
  10	1	3	-0.707077	-11.3405	6.80304	10.0433
  11	1	4	0.414767	-11.6416	7.256	10.8778
  12	1	2	-0.013868	-9.35028	4.0998	9.81605
  13	1	2	-0.001701	-8.9538	5.72947	9.28196
  14	1	5	-0.06789	-11.538	4.85579	10.6864
  15	1	1	-0.02562	-9.6219	3.89959	7.14403
  16	1	1	0.401389	-10.5013	4.74388	8.09458
  17	1	3	-0.707077	-10.878	5.96521	7.46225
  18	1	4	0.414767	-11.2495	6.50458	8.21309
  19	1	2	-0.013868	-10.2531	3.46012	6.35945
  20	1	2	-0.001701	-9.20854	3.0507	7.70407
  21	1	5	-0.06789	-11.4054	4.16525	8.31537
  22	1	1	-0.02562	-7.3353	3.77213	6.01956
  23	1	1	0.401389	-8.47499	4.7065	6.4898
  24	1	3	-0.707077	-9.00765	5.47516	5.41336
  25	1	4	0.414767	-9.78976	5.92333	5.8322
  26	1	2	-0.013868	-7.75586	2.88611	5.52471
  27	1	2	-0.001701	-6.81098	3.40612	6.91223
  28	1	5	-0.06789	-8.04837	5.39542	7.22626
  29	1	1	-0.02562	-5.05414	3.55866	4.9091
  30	1	1	0.401389	-6.31252	4.44922	5.07896
  31	1	3	-0.707077	-6.94024	4.70062	3.82366
  32	1	4	0.414767	-7.80861	5.11301	4.0937
  33	1	2	-0.013868	-4.52063	3.53504	5.86901
  34	1	2	-0.001701	-5.35896	2.52431	4.70147
  35	1	5	-0.06789	-6.00296	5.40523	5.51597
  36	1	1	-0.02562	-2.79805	3.1518	3.78356
  37	1	1	0.401389	-4.07474	4.03183	3.80804
  38	1	3	-0.707077	-4.72384	3.96951	2.54009
  39	1	4	0.414767	-5.65191	4.28653	2.74367
  40	1	2	-0.013868	-3.08197	2.10519	3.6095
  41	1	2	-0.001701	-2.32786	3.18321	4.77536
  42	1	5	-0.06789	-3.78809	5.0693	4.01339
  43	1	1	-0.02562	-0.538132	2.61464	2.68698
  44	1	1	0.401389	-1.74641	3.58774	2.73259
  45	1	3	-0.707077	-2.3275	3.69587	1.43598
  46	1	4	0.414767	-3.30079	3.84098	1.61511
  47	1	2	-0.013868	0.0890548	2.76451	3.57587
  48	1	2	-0.001701	-0.901855	1.57965	2.73086
  49	1	5	-0.06789	-1.38046	4.58152	3.01551
  50	1	1	-0.02562	1.5232	1.82904	1.33131
  51	1	1	0.401389	0.306264	2.7812	1.4022
  52	1	3	-0.707077	0.709385	4.13694	1.25238
  53	1	4	0.414767	-0.130566	4.60781	1.07321
  54	1	2	-0.013868	2.17644	2.00698	2.19618
  55	1	2	-0.001701	1.17404	0.790541	1.40513
  56	1	5	-0.06789	-0.345596	2.53008	0.563277
  57	1	1	-0.02562	1.52991	1.69754	-1.26659
  58	1	1	0.401389	2.33401	2.00721	0.0219238
  59	1	3	-0.707077	3.48694	1.16938	0.039891
  60	1	4	0.414767	3.8542	1.31006	-0.875949
  61	1	2	-0.013868	0.554002	2.19213	-1.24706
  62	1	2	-0.001701	1.33253	0.619752	-1.34001
  63	1	5	-0.06789	2.67992	3.04444	-0.0332262
  64	1	1	-0.02562	1.40317	2.18388	-3.794
  65	1	1	0.401389	2.2748	2.20828	-2.51701
  66	1	3	-0.707077	3.48218	1.47719	-2.71427
  67	1	4	0.414767	3.24736	0.811867	-3.41555
  68	1	2	-0.013868	1.96779	2.64372	-4.61608
  69	1	2	-0.001701	0.531267	2.83134	-3.63013
  70	1	5	-0.06789	2.53987	3.25537	-2.33404
  71	1	1	-0.02562	0.0604672	0.912385	-5.51697
  72	1	1	0.401389	0.909269	0.780652	-4.22632
  73	1	3	-0.707077	2.02912	-0.0831274	-4.41247
  74	1	4	0.414767	1.74865	-0.979285	-4.11007
  75	1	2	-0.013868	0.636908	1.43761	-6.2902
  76	1	2	-0.001701	-0.79124	1.56893	-5.29396
  77	1	5	-0.06789	0.279892	0.370185	-3.42999
  78	1	1	-0.02562	0.502448	-1.21738	-6.96738
  79	1	1	0.401389	-0.509229	-0.400031	-6.10745
  80	1	3	-0.707077	-1.15903	-1.17017	-5.09343
  81	1	4	0.414767	-2.01397	-0.725733	-4.92404
  82	1	2	-0.013868	0.00940824	-1.47843	-7.91339
  83	1	2	-0.001701	1.34128	-0.568608	-7.25118
  84	1	5	-0.06789	-1.29509	-0.0853048	-6.80348
  85	1	1	-0.02562	2.04377	-3.23304	-7.30353
  86	1	1	0.401389	1.06745	-2.51639	-6.33795
  87	1	3	-0.707077	-0.00197796	-3.40488	-6.02152
  88	1	4	0.414767	-0.621941	-2.82193	-5.50643
  89	1	2	-0.013868	1.4754	-3.62152	-8.15946
  90	1	2	-0.001701	2.74687	-2.50217	-7.72487
  91	1	5	-0.06789	1.5996	-2.26931	-5.41637
  92	1	1	-0.02562	4.2404	-3.95007	-6.16149
  93	1	1	0.401389	2.84497	-4.39811	-6.66241
  94	1	3	-0.707077	2.1076	-5.04052	-5.62625
  95	1	4	0.414767	1.18164	-4.68596	-5.71857
  96	1	2	-0.013868	4.14567	-2.97927	-5.65613
  97	1	2	-0.001701	4.8838	-3.78091	-7.03521
  98	1	5	-0.06789	3.01503	-5.13534	-7.45531
  99	1	1	-0.02562	4.99387	-6.41903	-5.65716
 100	1	1	0.401389	4.93675	-4.94033	-5.19291
 101	1	3	-0.707077	6.28036	-4.51362	-4.98813
 102	1	4	0.414767	6.36408	-4.22111	-4.0487
 103	1	2	-0.013868	5.85081	-6.5605	-6.33072
 104	1	2	-0.001701	4.10637	-6.70645	-6.2317
 105	1	5	-0.06789	4.41527	-4.88719	-4.23277
 106	1	1	-0.02562	3.74032	-7.59935	-3.76798
 107	1	1	0.401389	5.11561	-7.34784	-4.4282
 108	1	3	-0.707077	5.69034	-8.59069	-4.81603
 109	1	4	0.414767	6.51698	-8.36059	-5.27699
 110	1	2	-0.013868	3.18688	-8.33418	-4.36858
 111	1	2	-0.001701	3.14733	-6.68395	-3.8125
 112	1	5	-0.06789	5.79181	-6.87666	-3.70765
 113	1	1	-0.02562	4.3118	-7.0357	-1.27411
 114	1	1	0.401389	3.83334	-8.09712	-2.30389
 115	1	3	-0.707077	2.56594	-8.61344	-1.89382
 116	1	4	0.414767	2.47418	-9.4623	-2.36897
 117	1	2	-0.013868	5.30266	-6.66955	-1.56932
 118	1	2	-0.001701	4.48825	-7.55349	-0.322131
 119	1	5	-0.06789	4.54374	-8.9303	-2.27577
 120	1	1	-0.02562	4.06172	-4.47275	-1.15825
 121	1	1	0.401389	3.35154	-5.83824	-0.985495
 122	1	3	-0.707077	2.13647	-5.89323	-1.72852
 123	1	4	0.414767	1.90474	-6.85918	-1.72465
 124	1	2	-0.013868	4.68297	-4.3171	-0.267093
 125	1	2	-0.001701	4.74853	-4.51596	-2.01163
 126	1	5	-0.06789	3.06524	-5.90956	0.0701616
 127	1	1	-0.02562	3.70916	-1.88434	-0.99955
 128	1	1	0.401389	3.09704	-3.27047	-1.33835
 129	1	3	-0.707077	2.56402	-3.25786	-2.6623
 130	1	4	0.414767	2.17456	-4.16544	-2.74763
 131	1	2	-0.013868	3.55778	-1.71541	0.0747267
 132	1	2	-0.001701	3.13493	-1.10347	-1.51377
 133	1	5	-0.06789	2.2556	-3.40947	-0.650276
 134	1	1	-0.02562	5.57534	-1.77208	-2.80327
 135	1	1	0.401389	5.21874	-1.70035	-1.29861
 136	1	3	-0.707077	5.64232	-0.444951	-0.774696
 137	1	4	0.414767	4.91659	-0.11921	-0.187684
 138	1	2	-0.013868	4.96336	-2.53133	-3.29897
 139	1	2	-0.001701	5.31525	-0.826134	-3.29335
 140	1	5	-0.06789	5.76509	-2.47644	-0.755129
 141	1	1	-0.02562	8.1196	-1.1275	-2.58417
 142	1	1	0.401389	7.05464	-2.13674	-3.07518
 143	1	3	-0.707077	7.32599	-3.4382	-2.55162
 144	1	4	0.414767	8.29994	-3.51419	-2.53844
 145	1	2	-0.013868	9.10992	-1.51209	-2.86504
 146	1	2	-0.001701	8.11492	-1.07658	-1.48786
 147	1	5	-0.06789	7.17565	-2.21517	-4.1588
 148	1	1	-0.02562	7.76845	0.332616	-4.70488
 149	1	1	0.401389	7.95032	0.298405	-3.16848
 150	1	3	-0.707077	9.09473	1.07335	-2.82755
 151	1	4	0.414767	8.98168	1.30313	-1.88938
 152	1	2	-0.013868	8.59769	-0.173423	-5.21547
 153	1	2	-0.001701	7.72196	1.36843	-5.06329
 154	1	5	-0.06789	7.07517	0.771253	-2.71334
 155	1	5	0	-10.3829	6.3472	13.914
 156	1	2	0	6.83338	-0.152831	-5.0091

Velocities

   1	-0.00014826	0.000458572	9.62486e-05
   2	-0.000332089	0.000341353	-3.00501e-05
   3	-0.00082483	-3.07313e-05	-0.000192265
   4	-0.0016114	-0.000705321	-0.000623093
   5	-0.000242463	0.000422989	6.31534e-05
   6	-0.000184952	0.000460363	0.000165657
   7	0.000109948	2.34548e-05	3.62003e-05
   8	0.000358876	0.000607056	0.000311882
   9	-2.4106e-05	0.000593952	-3.53665e-05
  10	0.000282838	0.000604029	-0.000221318
  11	-4.97825e-05	0.000564311	-0.000249705
  12	0.00062571	0.000889119	0.000697372
  13	-1.13279e-05	0.000888878	7.31587e-05
  14	-0.000105757	0.000663096	-0.00021436
  15	0.000526228	-0.000545853	0.00101763
  16	0.000322932	-2.5851e-05	0.000508105
  17	0.000393382	-0.000261338	-3.57226e-05
  18	0.000498666	7.30182e-05	-0.000218882
  19	0.000646036	-0.00118227	0.00133432
  20	0.000762295	1.58904e-05	0.00167341
  21	0.000345338	2.13826e-05	0.000679123
  22	-0.0004069	-0.000989601	-0.000595893
  23	0.000343346	-0.00066313	0.000649165
  24	9.29756e-05	1.13534e-05	0.00128047
  25	0.000147	-0.000331237	0.00186231
  26	-0.00120351	2.70828e-05	-0.00174932
  27	-0.000617947	-0.00251119	-0.00115858
  28	0.00122368	-0.00120487	0.000709416
  29	-0.000621475	-0.00117537	-0.000912923
  30	4.63413e-05	-0.000443143	0.000240077
  31	0.000241062	0.00170269	0.000541995
  32	0.000274512	0.00157626	0.00102714
  33	-0.000886377	-0.00293947	-0.00079522
  34	-0.00145553	-0.000642447	-0.00241205
  35	0.00067295	-0.00129665	0.00154259
  36	-0.000550613	-0.00097142	-0.000554959
  37	-0.000155236	-0.000331026	8.32343e-05
  38	0.000136797	0.00173127	-0.000187194
  39	0.000320165	0.00214202	-3.12878e-05
  40	-0.000948866	-0.000751645	-0.00121278
  41	-0.000500212	-0.00178139	-0.000562493
  42	0.000414376	-0.000781281	0.00144452
  43	0.000170434	-0.00021417	-2.90511e-05
  44	-0.000479882	-0.000720742	-0.000294101
  45	-0.000282901	-0.00135295	-0.000478877
  46	-5.83593e-05	7.56923e-05	-0.000466552
  47	0.000248636	0.000627891	-0.000196941
  48	0.00070785	-0.000383293	0.000649873
  49	-0.000855251	-0.000558156	-0.000495486
  50	0.000381977	0.000151731	-0.000216336
  51	-0.000113051	-0.000508684	-0.000351234
  52	-0.00090209	-0.000380647	-0.00129703
  53	-0.00109586	-0.00107244	-0.00214602
  54	3.38354e-05	0.000204074	2.08301e-05
  55	0.000790119	1.00647e-06	-0.000626445
  56	-0.000137235	-0.00140005	-6.68231e-05
  57	0.000908526	0.000962074	-0.000193689
  58	0.000654155	0.000830556	2.29407e-05
  59	0.000843027	0.00110789	0.000255098
  60	0.00112374	0.00102145	0.000361506
  61	0.00116863	0.00153113	-0.000432195
  62	0.000338715	0.00106946	4.35018e-05
  63	0.000416689	0.000935707	0.000326712
  64	0.00138599	-0.000445012	-0.000534766
  65	0.001167	0.000213818	-0.000364892
  66	0.00113593	5.394e-05	0.000138107
  67	0.00131151	-0.000109121	0.000278857
  68	0.00159384	-0.000951602	-0.000687463
  69	0.00143487	-0.000241415	-0.00109714
  70	0.00118419	0.000314775	-0.000910015
  71	0.000906873	-0.00066767	0.000151408
  72	0.00126394	-0.000581663	-2.46383e-05
  73	0.00125621	-0.000607317	-1.45213e-05
  74	0.00149118	-0.000502815	0.00056443
  75	0.000658177	-0.000686973	-3.49096e-05
  76	0.00104822	-0.000607168	0.000455189
  77	0.00142458	-0.000394759	0.000177185
  78	-0.000176136	-0.000743018	-0.000127408
  79	0.000365974	-0.000420258	0.000183763
  80	0.000290916	-0.000195513	0.000314432
  81	0.00185644	0.00187334	0.00277212
  82	-0.000782089	-0.00128372	0.000325677
  83	-0.000394299	-0.000841553	-0.00099866
  84	0.000364791	-5.98225e-05	0.000348956
  85	0.000107058	-0.000684575	0.000364484
  86	0.000182837	-0.000389064	0.000211565
  87	0.000303279	-0.000354353	0.000743197
  88	8.33748e-05	-8.27545e-05	0.000188651
  89	1.97026e-05	-0.00110125	0.000608725
  90	2.26217e-05	-0.000848095	-4.95669e-05
  91	0.000338658	7.64811e-06	-1.11441e-05
  92	0.000324469	-0.00049131	0.000352808
  93	0.00016534	-0.000408323	0.000767124
  94	0.000362532	0.000204762	0.00128963
  95	0.00040125	0.000368513	0.00146876
  96	0.000617262	-0.000463109	0.000353083
  97	0.000245082	-0.000662956	0.000258634
  98	-0.000111051	-0.000819669	0.00110003
  99	5.52428e-05	-0.000608146	-0.000133625
 100	9.2803e-05	-0.00074167	0.000232065
 101	8.1132e-05	-0.00099008	0.000613339
 102	-0.000843103	0.00109533	9.86059e-05
 103	-1.02363e-05	-0.000486875	-0.000247217
 104	-1.69659e-05	-0.000516479	-8.51528e-05
 105	-7.08906e-05	-0.000956018	0.000178312
 106	4.17379e-05	-0.00104605	-0.000489893
 107	0.000116563	-0.000710489	-0.000223045
 108	0.00062538	-0.00048905	-0.000210631
 109	0.00151513	-0.000194649	0.00150713
 110	0.000637589	-0.00171621	-0.000206314
 111	-0.000508329	-0.00145276	-0.00113464
 112	-0.00014744	-0.000634413	-6.29384e-05
 113	-0.000599093	0.000422518	-0.000483072
 114	-0.000218038	-8.76212e-05	-0.000166331
 115	-0.000306676	-0.000116628	-0.00045848
 116	-0.0014645	0.00137924	-0.00291648
 117	-0.00060282	0.0005593	-0.000514076
 118	-0.000482852	0.000725515	-0.000327919
 119	-6.53094e-05	4.41945e-05	0.00036448
 120	-0.000600974	0.000518365	0.000381857
 121	-0.000679256	0.000387607	-0.000634325
 122	-0.000226044	0.000605082	-0.00142311
 123	-0.0010278	0.000886771	-0.000487321
 124	-0.000664033	1.13505e-05	0.000476478
 125	-0.000502684	0.0010137	0.000351245
 126	-0.00139318	-6.26726e-06	-0.000883866
 127	-0.000305366	0.000767706	0.000820098
 128	-0.00047322	0.000757957	0.000986174
 129	-0.00102005	0.000930569	0.00117915
 130	-0.000181493	0.000468556	0.000975403
 131	-1.01305e-05	0.000893415	0.000835166
 132	-0.000374759	0.000762941	0.000860705
 133	-0.000209952	0.000656274	0.00136648
 134	-0.00121802	0.00113076	3.0906e-05
 135	-0.000299253	0.000682353	0.000216379
 136	0.000253578	0.000320969	0.00057175
 137	0.00077949	0.000280108	0.00122286
 138	-0.00167622	0.00146493	0.000108408
 139	-0.00125584	0.0014752	0.000336533
 140	-0.000287912	0.000320035	-0.000274754
 141	-0.000779401	0.000277183	-0.0011449
 142	-0.00126287	0.000679838	-0.00116407
 143	-0.00160343	0.000543182	-0.00169662
 144	-0.001636	-0.000860521	-0.00519865
 145	-0.00117353	0.000280375	-0.00219749
 146	-9.83638e-05	-0.00055012	-0.00101234
 147	-0.00234802	0.00138702	-0.00120962
 148	0.00171941	0.00125481	-0.000271955
 149	-0.00100106	0.000632808	2.85792e-05
 150	-0.00241906	0.00149885	0.00275097
 151	-0.00348269	-0.00115862	0.00347149
 152	0.00136227	-0.000625413	0.000984602
 153	0.00443947	0.00144473	-0.000362185
 154	-0.00227477	-0.000482758	-0.00128765
 155	-0.000355205	0.000810484	-0.000232719
 156	0.000894424	0.0030052	-0.00142316

Bonds

   1	3	1	2
   2	2	1	5
   3	2	1	6
   4	4	2	3
   5	5	2	7
   6	1	3	4
   7	3	8	9
   8	2	8	12
   9	2	8	13
  10	4	9	10
  11	5	9	14
  12	1	10	11
  13	3	1	9
  14	3	15	16
  15	2	15	19
  16	2	15	20
  17	4	16	17
  18	5	16	21
  19	1	17	18
  20	3	8	16
  21	3	22	23
  22	2	22	26
  23	2	22	27
  24	4	23	24
  25	5	23	28
  26	1	24	25
  27	3	15	23
  28	3	29	30
  29	2	29	33
  30	2	29	34
  31	4	30	31
  32	5	30	35
  33	1	31	32
  34	3	22	30
  35	3	36	37
  36	2	36	40
  37	2	36	41
  38	4	37	38
  39	5	37	42
  40	1	38	39
  41	3	29	37
  42	3	43	44
  43	2	43	47
  44	2	43	48
  45	4	44	45
  46	5	44	49
  47	1	45	46
  48	3	36	44
  49	3	50	51
  50	2	50	54
  51	2	50	55
  52	4	51	52
  53	5	51	56
  54	1	52	53
  55	3	43	51
  56	3	57	58
  57	2	57	61
  58	2	57	62
  59	4	58	59
  60	5	58	63
  61	1	59	60
  62	3	50	58
  63	3	64	65
  64	2	64	68
  65	2	64	69
  66	4	65	66
  67	5	65	70
  68	1	66	67
  69	3	57	65
  70	3	71	72
  71	2	71	75
  72	2	71	76
  73	4	72	73
  74	5	72	77
  75	1	73	74
  76	3	64	72
  77	3	78	79
  78	2	78	82
  79	2	78	83
  80	4	79	80
  81	5	79	84
  82	1	80	81
  83	3	71	79
  84	3	85	86
  85	2	85	89
  86	2	85	90
  87	4	86	87
  88	5	86	91
  89	1	87	88
  90	3	78	86
  91	3	92	93
  92	2	92	96
  93	2	92	97
  94	4	93	94
  95	5	93	98
  96	1	94	95
  97	3	85	93
  98	3	99	100
  99	2	99	103
 100	2	99	104
 101	4	100	101
 102	5	100	105
 103	1	101	102
 104	3	92	100
 105	3	106	107
 106	2	106	110
 107	2	106	111
 108	4	107	108
 109	5	107	112
 110	1	108	109
 111	3	99	107
 112	3	113	114
 113	2	113	117
 114	2	113	118
 115	4	114	115
 116	5	114	119
 117	1	115	116
 118	3	106	114
 119	3	120	121
 120	2	120	124
 121	2	120	125
 122	4	121	122
 123	5	121	126
 124	1	122	123
 125	3	113	121
 126	3	127	128
 127	2	127	131
 128	2	127	132
 129	4	128	129
 130	5	128	133
 131	1	129	130
 132	3	120	128
 133	3	134	135
 134	2	134	138
 135	2	134	139
 136	4	135	136
 137	5	135	140
 138	1	136	137
 139	3	127	135
 140	3	141	142
 141	2	141	145
 142	2	141	146
 143	4	142	143
 144	5	142	147
 145	1	143	144
 146	3	134	142
 147	3	148	149
 148	2	148	152
 149	2	148	153
 150	4	149	150
 151	5	149	154
 152	1	150	151
 153	3	141	149
 154	5	2	155
 155	2	148	156

Angles

   1	2	2	1	5
   2	2	2	1	6
   3	5	5	1	6
   4	1	1	2	3
   5	4	1	2	7
   6	3	3	2	7
   7	7	2	3	4
   8	2	9	8	12
   9	2	9	8	13
  10	5	12	8	13
  11	1	8	9	10
  12	4	8	9	14
  13	3	10	9	14
  14	7	9	10	11
  15	8	2	1	9
  16	2	5	1	9
  17	2	6	1	9
  18	8	1	9	8
  19	1	1	9	10
  20	4	1	9	14
  21	2	16	15	19
  22	2	16	15	20
  23	5	19	15	20
  24	1	15	16	17
  25	4	15	16	21
  26	3	17	16	21
  27	7	16	17	18
  28	8	9	8	16
  29	2	12	8	16
  30	2	13	8	16
  31	8	8	16	15
  32	1	8	16	17
  33	4	8	16	21
  34	2	23	22	26
  35	2	23	22	27
  36	5	26	22	27
  37	1	22	23	24
  38	4	22	23	28
  39	3	24	23	28
  40	7	23	24	25
  41	8	16	15	23
  42	2	19	15	23
  43	2	20	15	23
  44	8	15	23	22
  45	1	15	23	24
  46	4	15	23	28
  47	2	30	29	33
  48	2	30	29	34
  49	5	33	29	34
  50	1	29	30	31
  51	4	29	30	35
  52	3	31	30	35
  53	7	30	31	32
  54	8	23	22	30
  55	2	26	22	30
  56	2	27	22	30
  57	8	22	30	29
  58	1	22	30	31
  59	4	22	30	35
  60	2	37	36	40
  61	2	37	36	41
  62	5	40	36	41
  63	1	36	37	38
  64	4	36	37	42
  65	3	38	37	42
  66	7	37	38	39
  67	8	30	29	37
  68	2	33	29	37
  69	2	34	29	37
  70	8	29	37	36
  71	1	29	37	38
  72	4	29	37	42
  73	2	44	43	47
  74	2	44	43	48
  75	5	47	43	48
  76	1	43	44	45
  77	4	43	44	49
  78	3	45	44	49
  79	7	44	45	46
  80	8	37	36	44
  81	2	40	36	44
  82	2	41	36	44
  83	8	36	44	43
  84	1	36	44	45
  85	4	36	44	49
  86	2	51	50	54
  87	2	51	50	55
  88	5	54	50	55
  89	1	50	51	52
  90	4	50	51	56
  91	3	52	51	56
  92	7	51	52	53
  93	8	44	43	51
  94	2	47	43	51
  95	2	48	43	51
  96	8	43	51	50
  97	1	43	51	52
  98	4	43	51	56
  99	2	58	57	61
 100	2	58	57	62
 101	5	61	57	62
 102	1	57	58	59
 103	4	57	58	63
 104	3	59	58	63
 105	7	58	59	60
 106	8	51	50	58
 107	2	54	50	58
 108	2	55	50	58
 109	8	50	58	57
 110	1	50	58	59
 111	4	50	58	63
 112	2	65	64	68
 113	2	65	64	69
 114	5	68	64	69
 115	1	64	65	66
 116	4	64	65	70
 117	3	66	65	70
 118	7	65	66	67
 119	8	58	57	65
 120	2	61	57	65
 121	2	62	57	65
 122	8	57	65	64
 123	1	57	65	66
 124	4	57	65	70
 125	2	72	71	75
 126	2	72	71	76
 127	5	75	71	76
 128	1	71	72	73
 129	4	71	72	77
 130	3	73	72	77
 131	7	72	73	74
 132	8	65	64	72
 133	2	68	64	72
 134	2	69	64	72
 135	8	64	72	71
 136	1	64	72	73
 137	4	64	72	77
 138	2	79	78	82
 139	2	79	78	83
 140	5	82	78	83
 141	1	78	79	80
 142	4	78	79	84
 143	3	80	79	84
 144	7	79	80	81
 145	8	72	71	79
 146	2	75	71	79
 147	2	76	71	79
 148	8	71	79	78
 149	1	71	79	80
 150	4	71	79	84
 151	2	86	85	89
 152	2	86	85	90
 153	5	89	85	90
 154	1	85	86	87
 155	4	85	86	91
 156	3	87	86	91
 157	7	86	87	88
 158	8	79	78	86
 159	2	82	78	86
 160	2	83	78	86
 161	8	78	86	85
 162	1	78	86	87
 163	4	78	86	91
 164	2	93	92	96
 165	2	93	92	97
 166	5	96	92	97
 167	1	92	93	94
 168	4	92	93	98
 169	3	94	93	98
 170	7	93	94	95
 171	8	86	85	93
 172	2	89	85	93
 173	2	90	85	93
 174	8	85	93	92
 175	1	85	93	94
 176	4	85	93	98
 177	2	100	99	103
 178	2	100	99	104
 179	5	103	99	104
 180	1	99	100	101
 181	4	99	100	105
 182	3	101	100	105
 183	7	100	101	102
 184	8	93	92	100
 185	2	96	92	100
 186	2	97	92	100
 187	8	92	100	99
 188	1	92	100	101
 189	4	92	100	105
 190	2	107	106	110
 191	2	107	106	111
 192	5	110	106	111
 193	1	106	107	108
 194	4	106	107	112
 195	3	108	107	112
 196	7	107	108	109
 197	8	100	99	107
 198	2	103	99	107
 199	2	104	99	107
 200	8	99	107	106
 201	1	99	107	108
 202	4	99	107	112
 203	2	114	113	117
 204	2	114	113	118
 205	5	117	113	118
 206	1	113	114	115
 207	4	113	114	119
 208	3	115	114	119
 209	7	114	115	116
 210	8	107	106	114
 211	2	110	106	114
 212	2	111	106	114
 213	8	106	114	113
 214	1	106	114	115
 215	4	106	114	119
 216	2	121	120	124
 217	2	121	120	125
 218	5	124	120	125
 219	1	120	121	122
 220	4	120	121	126
 221	3	122	121	126
 222	7	121	122	123
 223	8	114	113	121
 224	2	117	113	121
 225	2	118	113	121
 226	8	113	121	120
 227	1	113	121	122
 228	4	113	121	126
 229	2	128	127	131
 230	2	128	127	132
 231	5	131	127	132
 232	1	127	128	129
 233	4	127	128	133
 234	3	129	128	133
 235	7	128	129	130
 236	8	121	120	128
 237	2	124	120	128
 238	2	125	120	128
 239	8	120	128	127
 240	1	120	128	129
 241	4	120	128	133
 242	2	135	134	138
 243	2	135	134	139
 244	5	138	134	139
 245	1	134	135	136
 246	4	134	135	140
 247	3	136	135	140
 248	7	135	136	137
 249	8	128	127	135
 250	2	131	127	135
 251	2	132	127	135
 252	8	127	135	134
 253	1	127	135	136
 254	4	127	135	140
 255	2	142	141	145
 256	2	142	141	146
 257	5	145	141	146
 258	1	141	142	143
 259	4	141	142	147
 260	3	143	142	147
 261	7	142	143	144
 262	8	135	134	142
 263	2	138	134	142
 264	2	139	134	142
 265	8	134	142	141
 266	1	134	142	143
 267	4	134	142	147
 268	2	149	148	152
 269	2	149	148	153
 270	5	152	148	153
 271	1	148	149	150
 272	4	148	149	154
 273	3	150	149	154
 274	7	149	150	151
 275	8	142	141	149
 276	2	145	141	149
 277	2	146	141	149
 278	8	141	149	148
 279	1	141	149	150
 280	4	141	149	154
 281	4	1	2	155
 282	3	3	2	155
 283	6	7	2	155
 284	2	149	148	156
 285	5	152	148	156
 286	5	153	148	156

Dihedrals

   1	1	5	1	2	3
   2	3	5	1	2	7
   3	1	6	1	2	3
   4	3	6	1	2	7
   5	4	1	2	3	4
   6	2	7	2	3	4
   7	1	12	8	9	10
   8	3	12	8	9	14
   9	1	13	8	9	10
  10	3	13	8	9	14
  11	4	8	9	10	11
  12	2	14	9	10	11
  13	3	3	2	1	9
  14	3	7	2	1	9
  15	5	1	9	8	12
  16	5	1	9	8	13
  17	4	1	9	10	11
  18	6	2	1	9	8
  19	3	2	1	9	10
  20	3	2	1	9	14
  21	5	5	1	9	8
  22	1	5	1	9	10
  23	3	5	1	9	14
  24	5	6	1	9	8
  25	1	6	1	9	10
  26	3	6	1	9	14
  27	1	19	15	16	17
  28	3	19	15	16	21
  29	1	20	15	16	17
  30	3	20	15	16	21
  31	4	15	16	17	18
  32	2	21	16	17	18
  33	3	10	9	8	16
  34	3	14	9	8	16
  35	6	1	9	8	16
  36	5	8	16	15	19
  37	5	8	16	15	20
  38	4	8	16	17	18
  39	6	9	8	16	15
  40	3	9	8	16	17
  41	3	9	8	16	21
  42	5	12	8	16	15
  43	1	12	8	16	17
  44	3	12	8	16	21
  45	5	13	8	16	15
  46	1	13	8	16	17
  47	3	13	8	16	21
  48	1	26	22	23	24
  49	3	26	22	23	28
  50	1	27	22	23	24
  51	3	27	22	23	28
  52	4	22	23	24	25
  53	2	28	23	24	25
  54	3	17	16	15	23
  55	3	21	16	15	23
  56	6	8	16	15	23
  57	5	15	23	22	26
  58	5	15	23	22	27
  59	4	15	23	24	25
  60	6	16	15	23	22
  61	3	16	15	23	24
  62	3	16	15	23	28
  63	5	19	15	23	22
  64	1	19	15	23	24
  65	3	19	15	23	28
  66	5	20	15	23	22
  67	1	20	15	23	24
  68	3	20	15	23	28
  69	1	33	29	30	31
  70	3	33	29	30	35
  71	1	34	29	30	31
  72	3	34	29	30	35
  73	4	29	30	31	32
  74	2	35	30	31	32
  75	3	24	23	22	30
  76	3	28	23	22	30
  77	6	15	23	22	30
  78	5	22	30	29	33
  79	5	22	30	29	34
  80	4	22	30	31	32
  81	6	23	22	30	29
  82	3	23	22	30	31
  83	3	23	22	30	35
  84	5	26	22	30	29
  85	1	26	22	30	31
  86	3	26	22	30	35
  87	5	27	22	30	29
  88	1	27	22	30	31
  89	3	27	22	30	35
  90	1	40	36	37	38
  91	3	40	36	37	42
  92	1	41	36	37	38
  93	3	41	36	37	42
  94	4	36	37	38	39
  95	2	42	37	38	39
  96	3	31	30	29	37
  97	3	35	30	29	37
  98	6	22	30	29	37
  99	5	29	37	36	40
 100	5	29	37	36	41
 101	4	29	37	38	39
 102	6	30	29	37	36
 103	3	30	29	37	38
 104	3	30	29	37	42
 105	5	33	29	37	36
 106	1	33	29	37	38
 107	3	33	29	37	42
 108	5	34	29	37	36
 109	1	34	29	37	38
 110	3	34	29	37	42
 111	1	47	43	44	45
 112	3	47	43	44	49
 113	1	48	43	44	45
 114	3	48	43	44	49
 115	4	43	44	45	46
 116	2	49	44	45	46
 117	3	38	37	36	44
 118	3	42	37	36	44
 119	6	29	37	36	44
 120	5	36	44	43	47
 121	5	36	44	43	48
 122	4	36	44	45	46
 123	6	37	36	44	43
 124	3	37	36	44	45
 125	3	37	36	44	49
 126	5	40	36	44	43
 127	1	40	36	44	45
 128	3	40	36	44	49
 129	5	41	36	44	43
 130	1	41	36	44	45
 131	3	41	36	44	49
 132	1	54	50	51	52
 133	3	54	50	51	56
 134	1	55	50	51	52
 135	3	55	50	51	56
 136	4	50	51	52	53
 137	2	56	51	52	53
 138	3	45	44	43	51
 139	3	49	44	43	51
 140	6	36	44	43	51
 141	5	43	51	50	54
 142	5	43	51	50	55
 143	4	43	51	52	53
 144	6	44	43	51	50
 145	3	44	43	51	52
 146	3	44	43	51	56
 147	5	47	43	51	50
 148	1	47	43	51	52
 149	3	47	43	51	56
 150	5	48	43	51	50
 151	1	48	43	51	52
 152	3	48	43	51	56
 153	1	61	57	58	59
 154	3	61	57	58	63
 155	1	62	57	58	59
 156	3	62	57	58	63
 157	4	57	58	59	60
 158	2	63	58	59	60
 159	3	52	51	50	58
 160	3	56	51	50	58
 161	6	43	51	50	58
 162	5	50	58	57	61
 163	5	50	58	57	62
 164	4	50	58	59	60
 165	6	51	50	58	57
 166	3	51	50	58	59
 167	3	51	50	58	63
 168	5	54	50	58	57
 169	1	54	50	58	59
 170	3	54	50	58	63
 171	5	55	50	58	57
 172	1	55	50	58	59
 173	3	55	50	58	63
 174	1	68	64	65	66
 175	3	68	64	65	70
 176	1	69	64	65	66
 177	3	69	64	65	70
 178	4	64	65	66	67
 179	2	70	65	66	67
 180	3	59	58	57	65
 181	3	63	58	57	65
 182	6	50	58	57	65
 183	5	57	65	64	68
 184	5	57	65	64	69
 185	4	57	65	66	67
 186	6	58	57	65	64
 187	3	58	57	65	66
 188	3	58	57	65	70
 189	5	61	57	65	64
 190	1	61	57	65	66
 191	3	61	57	65	70
 192	5	62	57	65	64
 193	1	62	57	65	66
 194	3	62	57	65	70
 195	1	75	71	72	73
 196	3	75	71	72	77
 197	1	76	71	72	73
 198	3	76	71	72	77
 199	4	71	72	73	74
 200	2	77	72	73	74
 201	3	66	65	64	72
 202	3	70	65	64	72
 203	6	57	65	64	72
 204	5	64	72	71	75
 205	5	64	72	71	76
 206	4	64	72	73	74
 207	6	65	64	72	71
 208	3	65	64	72	73
 209	3	65	64	72	77
 210	5	68	64	72	71
 211	1	68	64	72	73
 212	3	68	64	72	77
 213	5	69	64	72	71
 214	1	69	64	72	73
 215	3	69	64	72	77
 216	1	82	78	79	80
 217	3	82	78	79	84
 218	1	83	78	79	80
 219	3	83	78	79	84
 220	4	78	79	80	81
 221	2	84	79	80	81
 222	3	73	72	71	79
 223	3	77	72	71	79
 224	6	64	72	71	79
 225	5	71	79	78	82
 226	5	71	79	78	83
 227	4	71	79	80	81
 228	6	72	71	79	78
 229	3	72	71	79	80
 230	3	72	71	79	84
 231	5	75	71	79	78
 232	1	75	71	79	80
 233	3	75	71	79	84
 234	5	76	71	79	78
 235	1	76	71	79	80
 236	3	76	71	79	84
 237	1	89	85	86	87
 238	3	89	85	86	91
 239	1	90	85	86	87
 240	3	90	85	86	91
 241	4	85	86	87	88
 242	2	91	86	87	88
 243	3	80	79	78	86
 244	3	84	79	78	86
 245	6	71	79	78	86
 246	5	78	86	85	89
 247	5	78	86	85	90
 248	4	78	86	87	88
 249	6	79	78	86	85
 250	3	79	78	86	87
 251	3	79	78	86	91
 252	5	82	78	86	85
 253	1	82	78	86	87
 254	3	82	78	86	91
 255	5	83	78	86	85
 256	1	83	78	86	87
 257	3	83	78	86	91
 258	1	96	92	93	94
 259	3	96	92	93	98
 260	1	97	92	93	94
 261	3	97	92	93	98
 262	4	92	93	94	95
 263	2	98	93	94	95
 264	3	87	86	85	93
 265	3	91	86	85	93
 266	6	78	86	85	93
 267	5	85	93	92	96
 268	5	85	93	92	97
 269	4	85	93	94	95
 270	6	86	85	93	92
 271	3	86	85	93	94
 272	3	86	85	93	98
 273	5	89	85	93	92
 274	1	89	85	93	94
 275	3	89	85	93	98
 276	5	90	85	93	92
 277	1	90	85	93	94
 278	3	90	85	93	98
 279	1	103	99	100	101
 280	3	103	99	100	105
 281	1	104	99	100	101
 282	3	104	99	100	105
 283	4	99	100	101	102
 284	2	105	100	101	102
 285	3	94	93	92	100
 286	3	98	93	92	100
 287	6	85	93	92	100
 288	5	92	100	99	103
 289	5	92	100	99	104
 290	4	92	100	101	102
 291	6	93	92	100	99
 292	3	93	92	100	101
 293	3	93	92	100	105
 294	5	96	92	100	99
 295	1	96	92	100	101
 296	3	96	92	100	105
 297	5	97	92	100	99
 298	1	97	92	100	101
 299	3	97	92	100	105
 300	1	110	106	107	108
 301	3	110	106	107	112
 302	1	111	106	107	108
 303	3	111	106	107	112
 304	4	106	107	108	109
 305	2	112	107	108	109
 306	3	101	100	99	107
 307	3	105	100	99	107
 308	6	92	100	99	107
 309	5	99	107	106	110
 310	5	99	107	106	111
 311	4	99	107	108	109
 312	6	100	99	107	106
 313	3	100	99	107	108
 314	3	100	99	107	112
 315	5	103	99	107	106
 316	1	103	99	107	108
 317	3	103	99	107	112
 318	5	104	99	107	106
 319	1	104	99	107	108
 320	3	104	99	107	112
 321	1	117	113	114	115
 322	3	117	113	114	119
 323	1	118	113	114	115
 324	3	118	113	114	119
 325	4	113	114	115	116
 326	2	119	114	115	116
 327	3	108	107	106	114
 328	3	112	107	106	114
 329	6	99	107	106	114
 330	5	106	114	113	117
 331	5	106	114	113	118
 332	4	106	114	115	116
 333	6	107	106	114	113
 334	3	107	106	114	115
 335	3	107	106	114	119
 336	5	110	106	114	113
 337	1	110	106	114	115
 338	3	110	106	114	119
 339	5	111	106	114	113
 340	1	111	106	114	115
 341	3	111	106	114	119
 342	1	124	120	121	122
 343	3	124	120	121	126
 344	1	125	120	121	122
 345	3	125	120	121	126
 346	4	120	121	122	123
 347	2	126	121	122	123
 348	3	115	114	113	121
 349	3	119	114	113	121
 350	6	106	114	113	121
 351	5	113	121	120	124
 352	5	113	121	120	125
 353	4	113	121	122	123
 354	6	114	113	121	120
 355	3	114	113	121	122
 356	3	114	113	121	126
 357	5	117	113	121	120
 358	1	117	113	121	122
 359	3	117	113	121	126
 360	5	118	113	121	120
 361	1	118	113	121	122
 362	3	118	113	121	126
 363	1	131	127	128	129
 364	3	131	127	128	133
 365	1	132	127	128	129
 366	3	132	127	128	133
 367	4	127	128	129	130
 368	2	133	128	129	130
 369	3	122	121	120	128
 370	3	126	121	120	128
 371	6	113	121	120	128
 372	5	120	128	127	131
 373	5	120	128	127	132
 374	4	120	128	129	130
 375	6	121	120	128	127
 376	3	121	120	128	129
 377	3	121	120	128	133
 378	5	124	120	128	127
 379	1	124	120	128	129
 380	3	124	120	128	133
 381	5	125	120	128	127
 382	1	125	120	128	129
 383	3	125	120	128	133
 384	1	138	134	135	136
 385	3	138	134	135	140
 386	1	139	134	135	136
 387	3	139	134	135	140
 388	4	134	135	136	137
 389	2	140	135	136	137
 390	3	129	128	127	135
 391	3	133	128	127	135
 392	6	120	128	127	135
 393	5	127	135	134	138
 394	5	127	135	134	139
 395	4	127	135	136	137
 396	6	128	127	135	134
 397	3	128	127	135	136
 398	3	128	127	135	140
 399	5	131	127	135	134
 400	1	131	127	135	136
 401	3	131	127	135	140
 402	5	132	127	135	134
 403	1	132	127	135	136
 404	3	132	127	135	140
 405	1	145	141	142	143
 406	3	145	141	142	147
 407	1	146	141	142	143
 408	3	146	141	142	147
 409	4	141	142	143	144
 410	2	147	142	143	144
 411	3	136	135	134	142
 412	3	140	135	134	142
 413	6	127	135	134	142
 414	5	134	142	141	145
 415	5	134	142	141	146
 416	4	134	142	143	144
 417	6	135	134	142	141
 418	3	135	134	142	143
 419	3	135	134	142	147
 420	5	138	134	142	141
 421	1	138	134	142	143
 422	3	138	134	142	147
 423	5	139	134	142	141
 424	1	139	134	142	143
 425	3	139	134	142	147
 426	1	152	148	149	150
 427	3	152	148	149	154
 428	1	153	148	149	150