pySIMM System Object

240 atoms
239 bonds
442 angles
705 dihedrals
0 impropers

5 atom types
5 bond types
8 angle types
6 dihedral types

-84.516408 84.516408 xlo xhi
-84.516408 84.516408 ylo yhi
-84.516408 84.516408 zlo zhi

Masses

   1	12.01	# c3
   2	1.008	# hc
   3	16.0	# oh
   4	1.008	# ho
   5	1.008	# h1

Pair Coeffs

   1	0.1094	3.3996695084235347	# c3
   2	0.0157	2.649532787749369	# hc
   3	0.2104	3.0664733878390478	# oh
   4	0.0047	0.5379246460131368	# ho
   5	0.0157	2.471353044121301	# h1

Bond Coeffs

   1	371.4	0.973	# ho,oh
   2	330.6	1.0969	# c3,hc
   3	300.9	1.5375	# c3,c3
   4	316.7	1.4233	# c3,oh
   5	330.6	1.0969	# c3,h1

Angle Coeffs

   1	67.47	110.19	# c3,c3,oh
   2	46.34	109.8	# c3,c3,hc
   3	50.93	110.26	# h1,c3,oh
   4	46.39	109.56	# c3,c3,h1
   5	39.4	107.58	# hc,c3,hc
   6	39.24	108.46	# h1,c3,h1
   7	47.38	107.26	# c3,oh,ho
   8	62.86	111.51	# c3,c3,c3

Dihedral Coeffs

   1	2	0.0	3	0	0.25	1	0	# hc,c3,c3,oh
   2	1	0.16666666666666666	3	0	# X,c3,oh,X
   3	1	0.15555555555555556	3	0	# X,c3,c3,X
   4	2	0.16	3	0	0.25	1	0	# ho,oh,c3,c3
   5	1	0.16	3	0	# hc,c3,c3,c3
   6	3	0.18	3	0	0.25	2	180	0.2	1	180	# c3,c3,c3,c3

Atoms

   1	1	1	-0.02562	3.33075	14.0596	2.00216
   2	1	1	0.401389	4.28037	15.0868	1.35374
   3	1	3	-0.707077	4.79094	16.001	2.3229
   4	1	4	0.414767	5.341	16.6415	1.83112
   5	1	2	-0.013868	2.99036	13.3632	1.22444
   6	1	2	-0.001701	2.43417	14.5668	2.38274
   7	1	5	-0.06789	5.11744	14.5606	0.882726
   8	1	1	-0.02562	3.17239	12.054	3.58265
   9	1	1	0.401389	4.01597	13.2688	3.13843
  10	1	3	-0.707077	4.25605	14.1274	4.25138
  11	1	4	0.414767	4.56093	14.9749	3.82677
  12	1	2	-0.013868	3.03614	11.3841	2.72327
  13	1	2	-0.001701	2.17075	12.3875	3.88621
  14	1	5	-0.06789	4.97712	12.8963	2.76626
  15	1	1	-0.02562	3.2666	9.86354	4.93981
  16	1	1	0.401389	3.85173	11.2789	4.7352
  17	1	3	-0.707077	3.74017	12.0264	5.94222
  18	1	4	0.414767	4.03309	12.938	5.66513
  19	1	2	-0.013868	3.85964	9.32722	5.69261
  20	1	2	-0.001701	3.38307	9.30128	4.00405
  21	1	5	-0.06789	4.91274	11.1623	4.48718
  22	1	1	-0.02562	1.21645	8.42602	5.36893
  23	1	1	0.401389	1.77741	9.86086	5.35247
  24	1	3	-0.707077	1.61253	10.4564	6.63715
  25	1	4	0.414767	2.31608	11.1657	6.66101
  26	1	2	-0.013868	1.75312	7.81806	6.11071
  27	1	2	-0.001701	1.40489	7.96437	4.39092
  28	1	5	-0.06789	1.20628	10.437	4.6169
  29	1	1	-0.02562	-0.843463	6.96603	5.43614
  30	1	1	0.401389	-0.298873	8.39146	5.65311
  31	1	3	-0.707077	-0.553171	8.81285	6.99284
  32	1	4	0.414767	0.114593	9.54469	7.13524
  33	1	2	-0.013868	-0.61608	6.65488	4.40785
  34	1	2	-0.001701	-0.304039	6.27543	6.09285
  35	1	5	-0.06789	-0.805423	9.07094	4.95908
  36	1	1	-0.02562	-2.79189	5.37041	5.38075
  37	1	1	0.401389	-2.36304	6.82679	5.6702
  38	1	3	-0.707077	-2.68907	7.21114	7.00954
  39	1	4	0.414767	-1.96216	7.87758	7.20721
  40	1	2	-0.013868	-2.22014	4.6807	6.01031
  41	1	2	-0.001701	-2.51854	5.13466	4.3437
  42	1	5	-0.06789	-2.88461	7.49517	4.97678
  43	1	1	-0.02562	-4.63968	3.65051	5.15931
  44	1	1	0.401389	-4.29949	5.10323	5.56158
  45	1	3	-0.707077	-4.65867	5.32437	6.92903
  46	1	4	0.414767	-4.12039	6.1337	7.1477
  47	1	2	-0.013868	-3.92081	3.28033	4.41976
  48	1	2	-0.001701	-4.50654	3.01508	6.0388
  49	1	5	-0.06789	-4.84465	5.80648	4.92303
  50	1	1	-0.02562	-6.74028	2.14655	4.75827
  51	1	1	0.401389	-6.06209	3.53126	4.56446
  52	1	3	-0.707077	-5.99322	3.81834	3.17093
  53	1	4	0.414767	-5.43752	3.1236	2.7728
  54	1	2	-0.013868	-7.71175	2.17143	4.24727
  55	1	2	-0.001701	-6.15207	1.37121	4.24976
  56	1	5	-0.06789	-6.70384	4.29141	5.02188
  57	1	1	-0.02562	-7.4253	2.90662	7.13895
  58	1	1	0.401389	-6.99517	1.72444	6.23195
  59	1	3	-0.707077	-5.84228	1.061	6.74651
  60	1	4	0.414767	-5.9856	1.08259	7.73563
  61	1	2	-0.013868	-8.33397	3.36148	6.72299
  62	1	2	-0.001701	-6.65327	3.67534	7.11344
  63	1	5	-0.06789	-7.81235	0.994673	6.23246
  64	1	1	-0.02562	-8.11744	3.75144	9.47295
  65	1	1	0.401389	-7.68274	2.53567	8.61601
  66	1	3	-0.707077	-6.51864	1.95054	9.19576
  67	1	4	0.414767	-6.01154	2.72484	9.54762
  68	1	2	-0.013868	-8.18268	3.43739	10.5235
  69	1	2	-0.001701	-9.13716	4.03461	9.18088
  70	1	5	-0.06789	-8.48794	1.7932	8.64244
  71	1	1	-0.02562	-7.59885	6.04136	10.4476
  72	1	1	0.401389	-7.21014	5.00936	9.35847
  73	1	3	-0.707077	-5.82504	4.64511	9.42966
  74	1	4	0.414767	-5.48202	4.86851	8.51327
  75	1	2	-0.013868	-7.42992	5.61012	11.4434
  76	1	2	-0.001701	-8.68137	6.21257	10.3814
  77	1	5	-0.06789	-7.38525	5.4537	8.37394
  78	1	1	-0.02562	-5.44902	7.44542	10.8908
  79	1	1	0.401389	-6.90698	7.42466	10.3591
  80	1	3	-0.707077	-7.02	7.95712	9.0437
  81	1	4	0.414767	-6.2602	8.58504	8.96318
  82	1	2	-0.013868	-5.31847	8.33492	11.5217
  83	1	2	-0.001701	-5.30051	6.5931	11.5644
  84	1	5	-0.06789	-7.47288	8.08546	11.0259
  85	1	1	-0.02562	-2.95119	7.13486	10.3653
  86	1	1	0.401389	-4.35332	7.45403	9.79922
  87	1	3	-0.707077	-4.34113	8.71254	9.12742
  88	1	4	0.414767	-3.74976	8.57713	8.35566
  89	1	2	-0.013868	-2.20239	7.73664	9.83194
  90	1	2	-0.001701	-2.88278	7.42263	11.4229
  91	1	5	-0.06789	-4.58816	6.7065	9.04206
  92	1	1	-0.02562	-1.13285	5.35557	10.6236
  93	1	1	0.401389	-2.58903	5.64189	10.1875
  94	1	3	-0.707077	-3.46539	4.79956	10.9296
  95	1	4	0.414767	-4.31806	4.73548	10.4269
  96	1	2	-0.013868	-1.101	5.18708	11.7091
  97	1	2	-0.001701	-0.500766	6.23348	10.4331
  98	1	5	-0.06789	-2.70156	5.39809	9.12725
  99	1	1	-0.02562	-0.120063	4.53074	8.44004
 100	1	1	0.401389	-0.539931	4.14083	9.87435
 101	1	3	-0.707077	0.597642	3.66119	10.5806
 102	1	4	0.414767	0.273757	3.41964	11.4684
 103	1	2	-0.013868	0.649553	5.31338	8.49633
 104	1	2	-0.001701	-0.971599	4.98155	7.92221
 105	1	5	-0.06789	-1.28645	3.3407	9.83645
 106	1	1	-0.02562	-0.665491	2.29174	7.25489
 107	1	1	0.401389	0.414025	3.36154	7.5843
 108	1	3	-0.707077	0.976726	3.92743	6.39531
 109	1	4	0.414767	1.7644	4.41447	6.71121
 110	1	2	-0.013868	-1.63922	2.76711	7.08497
 111	1	2	-0.001701	-0.791546	1.64745	8.13439
 112	1	5	-0.06789	1.23351	2.86677	8.11534
 113	1	1	-0.02562	-1.11452	0.119795	5.9
 114	1	1	0.401389	-0.285806	1.41758	6.03236
 115	1	3	-0.707077	-0.391441	2.20005	4.84229
 116	1	4	0.414767	0.179298	2.98091	5.08663
 117	1	2	-0.013868	-1.03392	-0.437151	6.8435
 118	1	2	-0.001701	-0.642205	-0.527068	5.1501
 119	1	5	-0.06789	0.761359	1.118	6.15289
 120	1	1	-0.02562	-3.01357	-0.193953	4.15236
 121	1	1	0.401389	-2.60579	0.362067	5.5419
 122	1	3	-0.707077	-3.41966	-0.243983	6.53859
 123	1	4	0.414767	-4.30619	0.207618	6.50499
 124	1	2	-0.013868	-2.88727	-1.28517	4.15037
 125	1	2	-0.001701	-4.08351	-0.00563816	3.99448
 126	1	5	-0.06789	-2.8135	1.43576	5.56089
 127	1	1	-0.02562	-2.67913	-0.191247	1.61218
 128	1	1	0.401389	-2.2172	0.401642	2.96448
 129	1	3	-0.707077	-2.31948	1.82457	2.95024
 130	1	4	0.414767	-1.6365	2.10635	3.62689
 131	1	2	-0.013868	-3.76884	-0.0989638	1.50614
 132	1	2	-0.001701	-2.45643	-1.26647	1.61276
 133	1	5	-0.06789	-1.15989	0.143886	3.08078
 134	1	1	-0.02562	-2.12529	-0.361566	-0.882107
 135	1	1	0.401389	-1.97465	0.474566	0.406229
 136	1	3	-0.707077	-2.50765	1.78235	0.211851
 137	1	4	0.414767	-2.52144	2.14592	1.13731
 138	1	2	-0.013868	-1.6564	-1.34067	-0.714935
 139	1	2	-0.001701	-3.1879	-0.55592	-1.08236
 140	1	5	-0.06789	-0.905413	0.559146	0.63016
 141	1	1	-0.02562	-1.40996	-0.69563	-3.28641
 142	1	1	0.401389	-1.47064	0.304121	-2.11607
 143	1	3	-0.707077	-2.20993	1.45636	-2.49584
 144	1	4	0.414767	-2.45616	1.86955	-1.62508
 145	1	2	-0.013868	-2.41138	-1.12415	-3.43016
 146	1	2	-0.001701	-0.757512	-1.53302	-3.00423
 147	1	5	-0.06789	-0.449368	0.607725	-1.85905
 148	1	1	-0.02562	-1.08065	-1.19253	-5.71035
 149	1	1	0.401389	-0.92241	-0.10668	-4.63113
 150	1	3	-0.707077	0.437885	0.320209	-4.55389
 151	1	4	0.414767	0.410025	1.13449	-4.01127
 152	1	2	-0.013868	-2.14064	-1.47683	-5.75019
 153	1	2	-0.001701	-0.532097	-2.09582	-5.40797
 154	1	5	-0.06789	-1.54321	0.748613	-4.91626
 155	1	1	-0.02562	-1.22652	-1.7963	-8.12402
 156	1	1	0.401389	-0.627886	-0.775417	-7.12351
 157	1	3	-0.707077	0.79789	-0.740135	-7.1653
 158	1	4	0.414767	1.04469	-0.305159	-6.308
 159	1	2	-0.013868	-2.30468	-1.59686	-8.19441
 160	1	2	-0.001701	-1.13374	-2.80462	-7.69929
 161	1	5	-0.06789	-1.01513	0.223126	-7.35542
 162	1	1	-0.02562	-1.37513	-2.93161	-10.3609
 163	1	1	0.401389	-0.650777	-1.81909	-9.55603
 164	1	3	-0.707077	0.751457	-2.03588	-9.52042
 165	1	4	0.414767	1.05192	-1.5218	-8.72073
 166	1	2	-0.013868	-2.41906	-2.6168	-10.498
 167	1	2	-0.001701	-1.41347	-3.85758	-9.77124
 168	1	5	-0.06789	-0.843376	-0.851129	-10.0334
 169	1	1	-0.02562	0.371069	-4.30421	-11.6772
 170	1	1	0.401389	-0.751234	-3.23907	-11.7403
 171	1	3	-0.707077	-1.77372	-3.70917	-12.6244
 172	1	4	0.414767	-2.47889	-3.03756	-12.6056
 173	1	2	-0.013868	-0.0598246	-5.2827	-11.4246
 174	1	2	-0.001701	1.08402	-4.06939	-10.8812
 175	1	5	-0.06789	-0.356914	-2.30543	-12.1558
 176	1	1	-0.02562	2.51494	-5.06492	-12.9273
 177	1	1	0.401389	1.13259	-4.37387	-13.0156
 178	1	3	-0.707077	0.316944	-4.98868	-14.006
 179	1	4	0.414767	-0.598136	-4.69977	-13.7662
 180	1	2	-0.013868	3.03114	-4.88111	-13.8783
 181	1	2	-0.001701	3.12394	-4.57387	-12.1562
 182	1	5	-0.06789	1.32178	-3.34092	-13.3295
 183	1	1	-0.02562	3.82671	-7.26954	-12.9608
 184	1	1	0.401389	2.46617	-6.58969	-12.6596
 185	1	3	-0.707077	2.11638	-6.83363	-11.296
 186	1	4	0.414767	2.73624	-6.31333	-10.7549
 187	1	2	-0.013868	4.44686	-7.30425	-12.0544
 188	1	2	-0.001701	4.39115	-6.66284	-13.6806
 189	1	5	-0.06789	1.71087	-7.03928	-13.3113
 190	1	1	-0.02562	2.84476	-9.69147	-12.7313
 191	1	1	0.401389	3.66642	-8.68411	-13.5731
 192	1	3	-0.707077	4.95322	-9.23064	-13.8386
 193	1	4	0.414767	5.16062	-9.75292	-13.0223
 194	1	2	-0.013868	1.80508	-9.34434	-12.6796
 195	1	2	-0.001701	2.81024	-10.6555	-13.2562
 196	1	5	-0.06789	3.15133	-8.56246	-14.5333
 197	1	1	-0.02562	2.4393	-10.7565	-10.4291
 198	1	1	0.401389	3.38974	-9.89774	-11.2973
 199	1	3	-0.707077	4.70978	-10.4374	-11.3392
 200	1	4	0.414767	4.91494	-10.6673	-10.394
 201	1	2	-0.013868	1.40773	-10.4324	-10.6235
 202	1	2	-0.001701	2.60283	-10.5119	-9.37316
 203	1	5	-0.06789	3.45817	-8.92468	-10.8066
 204	1	1	-0.02562	3.16644	-13.0568	-9.44317
 205	1	1	0.401389	2.56441	-12.289	-10.6489
 206	1	3	-0.707077	1.26246	-12.8163	-10.8983
 207	1	4	0.414767	0.665919	-12.3821	-10.2646
 208	1	2	-0.013868	2.59369	-12.8223	-8.53481
 209	1	2	-0.001701	3.02709	-14.1318	-9.62019
 210	1	5	-0.06789	3.17438	-12.4983	-11.5339
 211	1	1	-0.02562	5.2216	-13.8278	-8.14504
 212	1	1	0.401389	4.67511	-12.8076	-9.18308
 213	1	3	-0.707077	4.90214	-11.4634	-8.77047
 214	1	4	0.414767	5.84693	-11.5054	-8.44304
 215	1	2	-0.013868	5.38736	-14.7766	-8.67221
 216	1	2	-0.001701	4.43445	-14.0455	-7.41044
 217	1	5	-0.06789	5.22244	-12.9674	-10.118
 218	1	1	-0.02562	7.44997	-14.6602	-7.16294
 219	1	1	0.401389	6.50151	-13.4493	-7.34129
 220	1	3	-0.707077	7.2322	-12.3523	-7.88513
 221	1	4	0.414767	7.9132	-12.2053	-7.18309
 222	1	2	-0.013868	6.85096	-15.5062	-6.80307
 223	1	2	-0.001701	7.8256	-14.9684	-8.14762
 224	1	5	-0.06789	6.15296	-13.1422	-6.34853
 225	1	1	-0.02562	8.85725	-15.5635	-5.18924
 226	1	1	0.401389	8.66984	-14.4157	-6.22115
 227	1	3	-0.707077	8.58614	-13.1625	-5.53605
 228	1	4	0.414767	9.42711	-13.0717	-5.04971
 229	1	2	-0.013868	9.13696	-15.1405	-4.21477
 230	1	2	-0.001701	7.90147	-16.0723	-5.01009
 231	1	5	-0.06789	9.56963	-14.3341	-6.83997
 232	1	1	-0.02562	9.6487	-17.9833	-4.94015
 233	1	1	0.401389	9.93895	-16.6049	-5.57134
 234	1	3	-0.707077	10.0645	-16.763	-6.97931
 235	1	4	0.414767	10.8561	-17.3134	-7.12037
 236	1	2	-0.013868	8.82479	-18.4852	-5.46511
 237	1	2	-0.001701	10.5338	-18.6291	-4.99675
 238	1	5	-0.06789	10.8984	-16.2425	-5.18423
 239	1	5	0	3.74172	15.6338	0.570213
 240	1	2	0	9.36747	-17.8835	-3.88394

Velocities

   1	0.00039964	0.000581461	-0.00019273
   2	-6.26375e-05	0.000861277	-0.000433059
   3	-0.000384443	0.00126054	-0.000280907
   4	0.000250296	0.000917383	-0.000429004
   5	0.000476527	0.000570581	-0.000384904
   6	2.49215e-07	-3.85766e-05	-0.000549031
   7	0.000352335	0.00124535	9.43938e-05
   8	0.000855193	-3.03863e-05	-0.000108525
   9	0.000488782	0.000488568	-0.000105621
  10	0.000463366	0.000684655	-0.000207645
  11	0.000430037	0.0004418	-0.000569843
  12	0.00150969	-0.00028935	-5.19183e-05
  13	0.000453193	-0.000270377	-0.00067837
  14	0.000413143	0.000716118	-0.000682557
  15	0.000658109	0.000142146	0.000390983
  16	0.000435973	0.000488901	0.000381856
  17	-0.000425554	0.000474393	0.00025469
  18	-8.5182e-05	0.000531354	0.000712638
  19	0.000325076	0.000572558	0.000990797
  20	0.00127626	1.58876e-05	0.000716764
  21	0.000614434	0.000568433	0.00103927
  22	2.89221e-05	0.000171443	-0.000766565
  23	0.000460069	0.000114119	-0.000222729
  24	-0.000201303	-0.000178581	-0.000254987
  25	-0.000226048	-3.84692e-05	0.000228747
  26	0.000273177	-0.000183671	-0.00133516
  27	-0.000164513	0.000605825	-0.00109668
  28	0.000679357	0.000276871	-0.000480879
  29	0.000113602	1.96843e-05	-0.000437656
  30	6.61574e-05	-3.1445e-05	-0.000468969
  31	0.00047322	-0.000267253	-0.000249702
  32	0.000336128	-0.000208106	-0.000291744
  33	-0.000107933	0.000205992	-0.000494251
  34	0.000101581	-7.38962e-05	-0.000622792
  35	-4.1531e-05	0.000137066	-6.23021e-05
  36	0.000207001	2.82162e-05	-6.02306e-05
  37	3.53781e-05	-3.08289e-05	-0.000285259
  38	0.000133084	0.000211159	-0.000336996
  39	0.000149662	7.48022e-05	-0.000325365
  40	-0.000138502	7.11668e-05	0.000273474
  41	0.000326662	-0.000309967	0.000118002
  42	-1.37169e-05	-0.000117836	-0.000296971
  43	-0.000228533	0.000150743	-3.29812e-05
  44	-1.30017e-05	0.000207888	-0.000381396
  45	-0.000493995	0.000664454	-0.000595268
  46	-0.000526478	0.000679305	-0.000668023
  47	-0.000154858	-0.000154902	2.14099e-05
  48	-0.00032421	0.000281467	0.00014711
  49	0.000327283	4.19086e-05	-0.000891116
  50	-0.000303828	2.83854e-05	-0.000235742
  51	-0.000230537	9.94914e-05	-0.00012863
  52	-0.000169618	0.000342956	-0.00011577
  53	-0.000147324	0.000368547	-0.0001526
  54	-0.000208401	0.000285733	-0.000246401
  55	-0.000299257	0.000230673	-0.000449686
  56	-0.000191246	0.00011878	-1.12614e-05
  57	1.96169e-05	-0.000314344	1.21375e-05
  58	-0.000187575	-0.000101958	-0.00030897
  59	-0.000233299	-0.000212763	-0.000570555
  60	0.000206024	4.23078e-05	-0.00051328
  61	-0.000196343	-0.000384728	0.000419608
  62	-0.000128234	-0.000175038	-0.000135767
  63	-0.000194135	-4.71271e-05	-0.000428307
  64	0.000237067	-0.000691513	0.000218479
  65	0.000629139	-0.000510041	7.77199e-05
  66	0.00106833	-9.7934e-06	-0.000222338
  67	0.000455969	0.000119884	0.000397116
  68	0.000377702	-0.000762867	0.000212296
  69	0.000107092	-0.00110026	0.00026354
  70	0.00102626	-0.000922896	0.00030435
  71	-0.000234975	-0.000285796	0.00020053
  72	-0.000256218	-0.000301694	0.000172163
  73	-0.000141883	0.000158179	-0.00018174
  74	-0.00046834	0.000281848	-0.00026663
  75	-0.000268282	-0.00025235	0.000225699
  76	-0.000243074	-0.000300123	0.000167966
  77	-0.000613025	-0.000358678	0.000201541
  78	-0.00027474	0.000150388	0.000399928
  79	-0.000254013	-0.000225298	0.000198573
  80	-8.40928e-05	-0.000344701	0.000136331
  81	-0.000335193	-2.327e-05	0.000353177
  82	-0.000527058	0.000457812	3.34123e-05
  83	-0.000224888	0.000481534	0.000808267
  84	-0.000461127	-0.000183042	-2.26578e-05
  85	-6.47528e-05	-0.000316785	0.000124224
  86	-0.00017331	-2.52624e-05	0.00042173
  87	-4.89289e-05	8.33788e-06	0.000477412
  88	-0.000421925	-0.000142143	0.000216898
  89	-9.42026e-05	-0.000459545	-7.21052e-05
  90	0.000271023	-0.000349676	0.000114178
  91	-0.000348968	0.000101443	0.000355504
  92	-0.000291933	-0.000797817	5.95085e-05
  93	-0.000213993	-0.000359668	-6.00875e-05
  94	-0.000482704	-0.000292277	-0.000314252
  95	-0.000433648	3.14235e-05	-0.000467824
  96	-0.000503358	-0.00139176	-2.26168e-05
  97	-0.000116693	-0.000800115	0.000628597
  98	-0.000127617	-0.000162237	-0.00012185
  99	2.62755e-05	-7.09674e-05	-0.000139744
 100	-0.000285719	-0.000540376	-0.000380578
 101	-0.000408868	-0.00104477	-0.000500524
 102	-0.00055702	-0.00188906	-0.000792247
 103	5.36726e-05	-0.000129339	0.000193919
 104	0.000139055	6.59555e-05	-0.000217299
 105	-0.000390821	-0.000412431	-0.000839316
 106	0.000131376	2.98396e-06	-5.16048e-05
 107	0.00011975	2.946e-05	-0.000182453
 108	0.000113605	6.16314e-05	-0.000162797
 109	-0.000268213	0.000640148	-3.08399e-05
 110	0.000139864	-1.75031e-05	-0.000141626
 111	0.000132303	0.000131912	3.99608e-05
 112	0.000130912	3.72541e-05	-0.000198156
 113	-0.000320327	7.62636e-05	0.000292918
 114	0.000133382	-0.000240965	0.000193606
 115	0.000666039	-0.000390293	5.58416e-05
 116	0.000865512	-0.000540536	3.5828e-05
 117	-0.000500933	3.80651e-06	0.000260435
 118	-0.000588053	-8.20319e-05	0.000270203
 119	-9.77572e-06	-0.000614272	0.000476584
 120	-0.000157307	0.000440203	0.000429345
 121	-0.000220052	0.000589194	0.000338118
 122	-0.000384011	0.000945208	0.00038901
 123	-0.000484466	0.000766649	-0.000119264
 124	0.000227478	0.000487783	0.000468962
 125	-0.000195009	8.06356e-05	0.000327635
 126	9.33182e-05	0.000650339	9.25834e-05
 127	0.000152898	0.000694052	0.00062655
 128	-9.87655e-05	0.000676779	0.000639801
 129	-0.000121248	0.000662151	0.000750221
 130	7.74993e-05	0.000531216	0.000629012
 131	0.00017575	0.000812169	0.000332747
 132	7.8398e-05	0.000683432	0.000818331
 133	-8.79875e-05	0.000766978	0.000722807
 134	0.000105657	0.000591112	0.000895004
 135	0.00065683	0.000470171	0.000870172
 136	0.00141755	0.000787275	0.000925197
 137	0.00110116	0.000619987	0.00100737
 138	-0.000774833	0.000174501	0.00100715
 139	-6.66826e-05	0.00156313	0.000808346
 140	0.000689033	-0.000218357	0.000994507
 141	-0.000615812	4.12432e-05	0.000792663
 142	0.000849144	-3.31925e-05	0.000974874
 143	0.00234317	0.00102658	0.00128964
 144	0.00236732	0.000813184	0.00143698
 145	-0.00101165	0.000698066	0.00155127
 146	-0.000976785	-0.000377819	0.000327787
 147	0.00128616	-0.00148858	0.000971544
 148	-0.00256156	-0.00046405	0.00056145
 149	-0.00138992	-0.000318261	0.000342325
 150	-0.00124595	-0.000446015	-0.000603605
 151	-0.0006948	-0.000850636	1.68573e-05
 152	-0.00289047	0.000737503	0.00061348
 153	-0.00352949	-0.00098572	0.000796526
 154	-0.00136289	-0.000190274	0.000678351
 155	0.000142039	-0.00364698	0.00108777
 156	-0.0023275	-0.00152702	0.000306282
 157	-0.00233545	0.000763081	0.000530241
 158	-0.00319347	0.00251406	-4.60104e-05
 159	-0.000547398	-0.00714669	0.00160694
 160	0.00379468	-0.00337443	0.000965482
 161	-0.00384864	-0.00243938	-0.00113022
 162	0.000263959	-0.000260542	-0.000878702
 163	-0.000184484	-0.00139239	0.000980407
 164	-0.000101201	-0.000992543	0.000906043
 165	-0.000353924	-0.000864752	0.000865894
 166	0.000486354	0.000214347	-0.00142837
 167	-0.000556363	-0.000948341	-0.00196779
 168	-0.000440618	-0.000737986	0.00240179
 169	0.000965972	0.000876734	-0.00119487
 170	0.00138622	0.00137041	-0.000743451
 171	0.0018412	0.00309334	-0.00216107
 172	0.00159821	0.00275308	-0.000609064
 173	0.000603472	0.00105059	-0.0012598
 174	0.0013049	0.000540245	-0.0013684
 175	0.00219305	0.00175914	0.000874551
 176	0.000258054	-0.000216012	-0.00197041
 177	0.000737957	0.00072917	-0.00137086
 178	0.000153183	0.00165145	-0.00145935
 179	0.000508718	0.00295736	-0.00155902
 180	-0.000123347	-0.000734766	-0.0023143
 181	0.0010299	-0.000588091	-0.00237342
 182	0.00141089	0.000676223	-0.00103598
 183	-0.000352034	-0.000267125	-0.000874173
 184	-0.000479566	-0.000117832	-0.00190748
 185	-0.00133103	-7.36617e-05	-0.00215098
 186	0.00176994	-0.00430324	-0.00167349
 187	-0.000443256	0.00100438	-0.000735954
 188	-0.000486826	-0.00109299	-0.00165048
 189	-0.000143999	-8.20717e-06	-0.00247254
 190	-7.61452e-05	-0.000122382	0.0016064
 191	1.75671e-05	-0.00101943	0.000801275
 192	0.000355796	-0.000829248	0.00172724
 193	0.000992269	0.00135641	0.00296844
 194	-0.000183996	-0.00024246	0.000831161
 195	0.000281146	-0.000684646	0.00263202
 196	0.000261138	-0.00216968	0.00051284
 197	-0.000621546	0.00086852	0.00145179
 198	-0.000789264	0.00141548	0.00206525
 199	-0.000476522	0.00229428	0.00304239
 200	-0.00227371	-0.000656862	0.00278122
 201	-0.00069675	0.000408012	0.00176401
 202	-0.000611361	-6.70671e-05	0.00174982
 203	-0.00189574	0.00169794	0.00162389
 204	0.000171437	0.000279213	-0.000946577
 205	0.000567424	0.00125395	-0.000310472
 206	0.00141248	0.000218021	-0.00285388
 207	0.00055523	-0.00457204	-0.000524981
 208	-0.000205877	-0.00104977	-0.000812226
 209	0.000972473	0.000377348	-0.00227174
 210	0.00186951	0.00290241	0.000271039
 211	0.000437175	-2.57832e-05	-0.00144249
 212	0.000113185	0.000745727	-0.00034672
 213	-0.000397828	0.000446741	0.000710755
 214	0.000570131	0.00100212	-0.00145241
 215	-6.86138e-05	0.000131046	-0.00186265
 216	0.000653195	-0.000102627	-0.00115899
 217	0.000213781	0.00193715	-0.000559556
 218	0.000211274	-0.000944115	-3.42511e-05
 219	0.000669562	-0.000559026	-0.00179445
 220	0.0011962	-0.00120769	-0.00274779
 221	-0.000286405	0.000580232	-0.00193755
 222	-6.8889e-05	-0.000592702	0.000569781
 223	0.000783292	-0.00182665	0.000400214
 224	0.000563635	0.0007732	-0.00221756
 225	0.000604478	0.00010796	0.000728316
 226	-0.000595325	-9.43223e-05	0.000554513
 227	-0.0024178	-0.000241986	0.00101967
 228	-0.00286671	0.000605065	0.00168076
 229	0.00325918	0.000521043	-0.00015973
 230	0.00046234	0.00103813	0.00317885
 231	-1.45981e-05	0.000654281	0.00115614
 232	0.00163067	-0.00031812	0.00162171
 233	-0.000640418	-0.000900778	-0.000695957
 234	-0.0043093	-0.00247184	-0.00103674
 235	-0.00418912	-0.00196318	-0.001701
 236	-0.00166824	4.89039e-06	0.00631419
 237	0.00106918	-0.000918602	-0.00250498
 238	0.000541251	-0.000502342	-0.00392896
 239	-0.000162737	0.000620567	-0.000333412
 240	0.00719575	0.000465822	0.00346176

Bonds

   1	3	1	2
   2	2	1	5
   3	2	1	6
   4	4	2	3
   5	5	2	7
   6	1	3	4
   7	3	8	9
   8	2	8	12
   9	2	8	13
  10	4	9	10
  11	5	9	14
  12	1	10	11
  13	3	1	9
  14	3	15	16
  15	2	15	19
  16	2	15	20
  17	4	16	17
  18	5	16	21
  19	1	17	18
  20	3	8	16
  21	3	22	23
  22	2	22	26
  23	2	22	27
  24	4	23	24
  25	5	23	28
  26	1	24	25
  27	3	15	23
  28	3	29	30
  29	2	29	33
  30	2	29	34
  31	4	30	31
  32	5	30	35
  33	1	31	32
  34	3	22	30
  35	3	36	37
  36	2	36	40
  37	2	36	41
  38	4	37	38
  39	5	37	42
  40	1	38	39
  41	3	29	37
  42	3	43	44
  43	2	43	47
  44	2	43	48
  45	4	44	45
  46	5	44	49
  47	1	45	46
  48	3	36	44
  49	3	50	51
  50	2	50	54
  51	2	50	55
  52	4	51	52
  53	5	51	56
  54	1	52	53
  55	3	43	51
  56	3	57	58
  57	2	57	61
  58	2	57	62
  59	4	58	59
  60	5	58	63
  61	1	59	60
  62	3	50	58
  63	3	64	65
  64	2	64	68
  65	2	64	69
  66	4	65	66
  67	5	65	70
  68	1	66	67
  69	3	57	65
  70	3	71	72
  71	2	71	75
  72	2	71	76
  73	4	72	73
  74	5	72	77
  75	1	73	74
  76	3	64	72
  77	3	78	79
  78	2	78	82
  79	2	78	83
  80	4	79	80
  81	5	79	84
  82	1	80	81
  83	3	71	79
  84	3	85	86
  85	2	85	89
  86	2	85	90
  87	4	86	87
  88	5	86	91
  89	1	87	88
  90	3	78	86
  91	3	92	93
  92	2	92	96
  93	2	92	97
  94	4	93	94
  95	5	93	98
  96	1	94	95
  97	3	85	93
  98	3	99	100
  99	2	99	103
 100	2	99	104
 101	4	100	101
 102	5	100	105
 103	1	101	102
 104	3	92	100
 105	3	106	107
 106	2	106	110
 107	2	106	111
 108	4	107	108
 109	5	107	112
 110	1	108	109
 111	3	99	107
 112	3	113	114
 113	2	113	117
 114	2	113	118
 115	4	114	115
 116	5	114	119
 117	1	115	116
 118	3	106	114
 119	3	120	121
 120	2	120	124
 121	2	120	125
 122	4	121	122
 123	5	121	126
 124	1	122	123
 125	3	113	121
 126	3	127	128
 127	2	127	131
 128	2	127	132
 129	4	128	129
 130	5	128	133
 131	1	129	130
 132	3	120	128
 133	3	134	135
 134	2	134	138
 135	2	134	139
 136	4	135	136
 137	5	135	140
 138	1	136	137
 139	3	127	135
 140	3	141	142
 141	2	141	145
 142	2	141	146
 143	4	142	143
 144	5	142	147
 145	1	143	144
 146	3	134	142
 147	3	148	149
 148	2	148	152
 149	2	148	153
 150	4	149	150
 151	5	149	154
 152	1	150	151
 153	3	141	149
 154	3	155	156
 155	2	155	159
 156	2	155	160
 157	4	156	157
 158	5	156	161
 159	1	157	158
 160	3	148	156
 161	3	162	163
 162	2	162	166
 163	2	162	167
 164	4	163	164
 165	5	163	168
 166	1	164	165
 167	3	155	163
 168	3	169	170
 169	2	169	173
 170	2	169	174
 171	4	170	171
 172	5	170	175
 173	1	171	172
 174	3	162	170
 175	3	176	177
 176	2	176	180
 177	2	176	181
 178	4	177	178
 179	5	177	182
 180	1	178	179
 181	3	169	177
 182	3	183	184
 183	2	183	187
 184	2	183	188
 185	4	184	185
 186	5	184	189
 187	1	185	186
 188	3	176	184
 189	3	190	191
 190	2	190	194
 191	2	190	195
 192	4	191	192
 193	5	191	196
 194	1	192	193
 195	3	183	191
 196	3	197	198
 197	2	197	201
 198	2	197	202
 199	4	198	199
 200	5	198	203
 201	1	199	200
 202	3	190	198
 203	3	204	205
 204	2	204	208
 205	2	204	209
 206	4	205	206
 207	5	205	210
 208	1	206	207
 209	3	197	205
 210	3	211	212
 211	2	211	215
 212	2	211	216
 213	4	212	213
 214	5	212	217
 215	1	213	214
 216	3	204	212
 217	3	218	219
 218	2	218	222
 219	2	218	223
 220	4	219	220
 221	5	219	224
 222	1	220	221
 223	3	211	219
 224	3	225	226
 225	2	225	229
 226	2	225	230
 227	4	226	227
 228	5	226	231
 229	1	227	228
 230	3	218	226
 231	3	232	233
 232	2	232	236
 233	2	232	237
 234	4	233	234
 235	5	233	238
 236	1	234	235
 237	3	225	233
 238	5	2	239
 239	2	232	240

Angles

   1	2	2	1	5
   2	2	2	1	6
   3	5	5	1	6
   4	1	1	2	3
   5	4	1	2	7
   6	3	3	2	7
   7	7	2	3	4
   8	2	9	8	12
   9	2	9	8	13
  10	5	12	8	13
  11	1	8	9	10
  12	4	8	9	14
  13	3	10	9	14
  14	7	9	10	11
  15	8	2	1	9
  16	2	5	1	9
  17	2	6	1	9
  18	8	1	9	8
  19	1	1	9	10
  20	4	1	9	14
  21	2	16	15	19
  22	2	16	15	20
  23	5	19	15	20
  24	1	15	16	17
  25	4	15	16	21
  26	3	17	16	21
  27	7	16	17	18
  28	8	9	8	16
  29	2	12	8	16
  30	2	13	8	16
  31	8	8	16	15
  32	1	8	16	17
  33	4	8	16	21
  34	2	23	22	26
  35	2	23	22	27
  36	5	26	22	27
  37	1	22	23	24
  38	4	22	23	28
  39	3	24	23	28
  40	7	23	24	25
  41	8	16	15	23
  42	2	19	15	23
  43	2	20	15	23
  44	8	15	23	22
  45	1	15	23	24
  46	4	15	23	28
  47	2	30	29	33
  48	2	30	29	34
  49	5	33	29	34
  50	1	29	30	31
  51	4	29	30	35
  52	3	31	30	35
  53	7	30	31	32
  54	8	23	22	30
  55	2	26	22	30
  56	2	27	22	30
  57	8	22	30	29
  58	1	22	30	31
  59	4	22	30	35
  60	2	37	36	40
  61	2	37	36	41
  62	5	40	36	41
  63	1	36	37	38
  64	4	36	37	42
  65	3	38	37	42
  66	7	37	38	39
  67	8	30	29	37
  68	2	33	29	37
  69	2	34	29	37
  70	8	29	37	36
  71	1	29	37	38
  72	4	29	37	42
  73	2	44	43	47
  74	2	44	43	48
  75	5	47	43	48
  76	1	43	44	45
  77	4	43	44	49
  78	3	45	44	49
  79	7	44	45	46
  80	8	37	36	44
  81	2	40	36	44
  82	2	41	36	44
  83	8	36	44	43
  84	1	36	44	45
  85	4	36	44	49
  86	2	51	50	54
  87	2	51	50	55
  88	5	54	50	55
  89	1	50	51	52
  90	4	50	51	56
  91	3	52	51	56
  92	7	51	52	53
  93	8	44	43	51
  94	2	47	43	51
  95	2	48	43	51
  96	8	43	51	50
  97	1	43	51	52
  98	4	43	51	56
  99	2	58	57	61
 100	2	58	57	62
 101	5	61	57	62
 102	1	57	58	59
 103	4	57	58	63
 104	3	59	58	63
 105	7	58	59	60
 106	8	51	50	58
 107	2	54	50	58
 108	2	55	50	58
 109	8	50	58	57
 110	1	50	58	59
 111	4	50	58	63
 112	2	65	64	68
 113	2	65	64	69
 114	5	68	64	69
 115	1	64	65	66
 116	4	64	65	70
 117	3	66	65	70
 118	7	65	66	67
 119	8	58	57	65
 120	2	61	57	65
 121	2	62	57	65
 122	8	57	65	64
 123	1	57	65	66
 124	4	57	65	70
 125	2	72	71	75
 126	2	72	71	76
 127	5	75	71	76
 128	1	71	72	73
 129	4	71	72	77
 130	3	73	72	77
 131	7	72	73	74
 132	8	65	64	72
 133	2	68	64	72
 134	2	69	64	72
 135	8	64	72	71
 136	1	64	72	73
 137	4	64	72	77
 138	2	79	78	82
 139	2	79	78	83
 140	5	82	78	83
 141	1	78	79	80
 142	4	78	79	84
 143	3	80	79	84
 144	7	79	80	81
 145	8	72	71	79
 146	2	75	71	79
 147	2	76	71	79
 148	8	71	79	78
 149	1	71	79	80
 150	4	71	79	84
 151	2	86	85	89
 152	2	86	85	90
 153	5	89	85	90
 154	1	85	86	87
 155	4	85	86	91
 156	3	87	86	91
 157	7	86	87	88
 158	8	79	78	86
 159	2	82	78	86
 160	2	83	78	86
 161	8	78	86	85
 162	1	78	86	87
 163	4	78	86	91
 164	2	93	92	96
 165	2	93	92	97
 166	5	96	92	97
 167	1	92	93	94
 168	4	92	93	98
 169	3	94	93	98
 170	7	93	94	95
 171	8	86	85	93
 172	2	89	85	93
 173	2	90	85	93
 174	8	85	93	92
 175	1	85	93	94
 176	4	85	93	98
 177	2	100	99	103
 178	2	100	99	104
 179	5	103	99	104
 180	1	99	100	101
 181	4	99	100	105
 182	3	101	100	105
 183	7	100	101	102
 184	8	93	92	100
 185	2	96	92	100
 186	2	97	92	100
 187	8	92	100	99
 188	1	92	100	101
 189	4	92	100	105
 190	2	107	106	110
 191	2	107	106	111
 192	5	110	106	111
 193	1	106	107	108
 194	4	106	107	112
 195	3	108	107	112
 196	7	107	108	109
 197	8	100	99	107
 198	2	103	99	107
 199	2	104	99	107
 200	8	99	107	106
 201	1	99	107	108
 202	4	99	107	112
 203	2	114	113	117
 204	2	114	113	118
 205	5	117	113	118
 206	1	113	114	115
 207	4	113	114	119
 208	3	115	114	119
 209	7	114	115	116
 210	8	107	106	114
 211	2	110	106	114
 212	2	111	106	114
 213	8	106	114	113
 214	1	106	114	115
 215	4	106	114	119
 216	2	121	120	124
 217	2	121	120	125
 218	5	124	120	125
 219	1	120	121	122
 220	4	120	121	126
 221	3	122	121	126
 222	7	121	122	123
 223	8	114	113	121
 224	2	117	113	121
 225	2	118	113	121
 226	8	113	121	120
 227	1	113	121	122
 228	4	113	121	126
 229	2	128	127	131
 230	2	128	127	132
 231	5	131	127	132
 232	1	127	128	129
 233	4	127	128	133
 234	3	129	128	133
 235	7	128	129	130
 236	8	121	120	128
 237	2	124	120	128
 238	2	125	120	128
 239	8	120	128	127
 240	1	120	128	129
 241	4	120	128	133
 242	2	135	134	138
 243	2	135	134	139
 244	5	138	134	139
 245	1	134	135	136
 246	4	134	135	140
 247	3	136	135	140
 248	7	135	136	137
 249	8	128	127	135
 250	2	131	127	135
 251	2	132	127	135
 252	8	127	135	134
 253	1	127	135	136
 254	4	127	135	140
 255	2	142	141	145
 256	2	142	141	146
 257	5	145	141	146
 258	1	141	142	143
 259	4	141	142	147
 260	3	143	142	147
 261	7	142	143	144
 262	8	135	134	142
 263	2	138	134	142
 264	2	139	134	142
 265	8	134	142	141
 266	1	134	142	143
 267	4	134	142	147
 268	2	149	148	152
 269	2	149	148	153
 270	5	152	148	153
 271	1	148	149	150
 272	4	148	149	154
 273	3	150	149	154
 274	7	149	150	151
 275	8	142	141	149
 276	2	145	141	149
 277	2	146	141	149
 278	8	141	149	148
 279	1	141	149	150
 280	4	141	149	154
 281	2	156	155	159
 282	2	156	155	160
 283	5	159	155	160
 284	1	155	156	157
 285	4	155	156	161
 286	3	157	156	161
 287	7	156	157	158
 288	8	149	148	156
 289	2	152	148	156
 290	2	153	148	156
 291	8	148	156	155
 292	1	148	156	157
 293	4	148	156	161