pySIMM System Object

72 atoms
71 bonds
130 angles
201 dihedrals
0 impropers

5 atom types
5 bond types
8 angle types
6 dihedral types

-45.056735 45.056735 xlo xhi
-45.056735 45.056735 ylo yhi
-45.056735 45.056735 zlo zhi

Masses

   1	12.01	# c3
   2	1.008	# hc
   3	16.0	# oh
   4	1.008	# ho
   5	1.008	# h1

Pair Coeffs

   1	0.1094	3.3996695084235347	# c3
   2	0.0157	2.649532787749369	# hc
   3	0.2104	3.0664733878390478	# oh
   4	0.0047	0.5379246460131368	# ho
   5	0.0157	2.471353044121301	# h1

Bond Coeffs

   1	371.4	0.973	# ho,oh
   2	330.6	1.0969	# c3,hc
   3	300.9	1.5375	# c3,c3
   4	316.7	1.4233	# c3,oh
   5	330.6	1.0969	# c3,h1

Angle Coeffs

   1	67.47	110.19	# c3,c3,oh
   2	46.34	109.8	# c3,c3,hc
   3	50.93	110.26	# h1,c3,oh
   4	46.39	109.56	# c3,c3,h1
   5	39.4	107.58	# hc,c3,hc
   6	39.24	108.46	# h1,c3,h1
   7	47.38	107.26	# c3,oh,ho
   8	62.86	111.51	# c3,c3,c3

Dihedral Coeffs

   1	2	0.0	3	0	0.25	1	0	# hc,c3,c3,oh
   2	1	0.16666666666666666	3	0	# X,c3,oh,X
   3	1	0.15555555555555556	3	0	# X,c3,c3,X
   4	2	0.16	3	0	0.25	1	0	# ho,oh,c3,c3
   5	1	0.16	3	0	# hc,c3,c3,c3
   6	3	0.18	3	0	0.25	2	180	0.2	1	180	# c3,c3,c3,c3

Atoms

   1	1	1	-0.02562	-3.69383	-1.89917	-5.17595
   2	1	1	0.401389	-3.36797	-0.413376	-5.41198
   3	1	3	-0.707077	-2.58369	-0.271047	-6.59036
   4	1	4	0.414767	-3.13568	0.224363	-7.21899
   5	1	2	-0.013868	-2.82324	-2.50239	-5.46342
   6	1	2	-0.001701	-4.52511	-2.21252	-5.82168
   7	1	5	-0.06789	-4.29051	0.168691	-5.51205
   8	1	1	-0.02562	-3.90589	-3.65624	-3.31237
   9	1	1	0.401389	-4.03594	-2.16116	-3.69535
  10	1	3	-0.707077	-5.33907	-1.67401	-3.40013
  11	1	4	0.414767	-5.46079	-1.77063	-2.43763
  12	1	2	-0.013868	-3.45846	-4.23478	-4.13155
  13	1	2	-0.001701	-4.91091	-4.07899	-3.17425
  14	1	5	-0.06789	-3.34043	-1.58948	-3.0834
  15	1	1	-0.02562	-1.59756	-4.29312	-2.278
  16	1	1	0.401389	-3.062	-3.85146	-2.02472
  17	1	3	-0.707077	-3.6875	-4.84153	-1.21556
  18	1	4	0.414767	-3.13959	-4.94086	-0.417173
  19	1	2	-0.013868	-1.60838	-5.26423	-2.79202
  20	1	2	-0.001701	-1.11586	-4.46783	-1.30636
  21	1	5	-0.06789	-3.05629	-2.9228	-1.44432
  22	1	1	-0.02562	-0.544261	-1.91506	-2.44019
  23	1	1	0.401389	-0.711658	-3.31521	-3.09169
  24	1	3	-0.707077	0.556039	-3.94212	-3.29227
  25	1	4	0.414767	0.515881	-4.34848	-4.17961
  26	1	2	-0.013868	-0.621418	-1.99025	-1.34724
  27	1	2	-0.001701	-1.36693	-1.27592	-2.76603
  28	1	5	-0.06789	-1.1572	-3.17656	-4.08122
  29	1	1	-0.02562	0.754622	0.326989	-2.67393
  30	1	1	0.401389	0.775046	-1.20889	-2.83267
  31	1	3	-0.707077	1.84505	-1.76449	-2.07571
  32	1	4	0.414767	1.78663	-2.72465	-2.29235
  33	1	2	-0.013868	1.7558	0.699784	-2.92924
  34	1	2	-0.001701	0.0764421	0.765994	-3.41725
  35	1	5	-0.06789	0.96871	-1.41036	-3.89251
  36	1	1	-0.02562	1.08065	2.10698	-0.871659
  37	1	1	0.401389	0.35885	0.800431	-1.25621
  38	1	3	-0.707077	-1.0512	0.998805	-1.16804
  39	1	4	0.414767	-1.1669	1.66166	-0.446525
  40	1	2	-0.013868	0.702722	2.95431	-1.46102
  41	1	2	-0.001701	2.14587	2.00597	-1.11489
  42	1	5	-0.06789	0.65482	0.0352168	-0.53031
  43	1	1	-0.02562	2.13649	3.15764	1.20942
  44	1	1	0.401389	0.931781	2.37197	0.639338
  45	1	3	-0.707077	-0.292946	3.05127	0.898317
  46	1	4	0.414767	-0.167599	3.45249	1.79471
  47	1	2	-0.013868	3.06763	2.68403	0.871958
  48	1	2	-0.001701	2.14677	4.178	0.802741
  49	1	5	-0.06789	0.887338	1.40159	1.13952
  50	1	1	-0.02562	2.03968	1.80084	3.40821
  51	1	1	0.401389	2.16465	3.20334	2.75421
  52	1	3	-0.707077	1.10435	4.04614	3.20331
  53	1	4	0.414767	1.52551	4.90197	3.41644
  54	1	2	-0.013868	0.987847	1.59683	3.65139
  55	1	2	-0.001701	2.33676	1.02506	2.69032
  56	1	5	-0.06789	3.11395	3.66309	3.04838
  57	1	1	-0.02562	2.78666	2.72249	5.7213
  58	1	1	0.401389	2.90382	1.59789	4.66974
  59	1	3	-0.707077	4.26238	1.44041	4.2696
  60	1	4	0.414767	4.75488	1.13023	5.04986
  61	1	2	-0.013868	1.74416	3.05906	5.7971
  62	1	2	-0.001701	3.37303	3.59122	5.39243
  63	1	5	-0.06789	2.5779	0.659313	5.13315
  64	1	1	-0.02562	2.11351	1.79212	8.01376
  65	1	1	0.401389	3.27886	2.23348	7.10345
  66	1	3	-0.707077	4.02821	3.25318	7.75084
  67	1	4	0.414767	4.3597	2.86679	8.57961
  68	1	2	-0.013868	1.49206	1.03732	7.51547
  69	1	2	-0.001701	1.47318	2.64604	8.27104
  70	1	5	-0.06789	3.9467	1.37487	6.9609
  71	1	5	0	-2.80146	-0.0187983	-4.55894
  72	1	2	0	2.4941	1.35588	8.94578

Velocities

   1	0.000902314	5.47723e-05	-8.2266e-05
   2	-0.000296137	0.000301958	-0.000287474
   3	-0.00156648	0.000885909	-0.00105214
   4	-0.0022297	0.00123181	-0.00020878
   5	0.00171676	0.000798715	0.000806914
   6	0.00172701	-0.000875887	-0.000655479
   7	-0.000796121	-0.000328697	0.000637191
   8	6.45254e-05	0.000279684	1.15345e-05
   9	-0.00016115	0.000206598	-0.000298216
  10	-0.000718099	-0.000469748	-0.00165997
  11	-0.00182599	-0.000965412	-0.00186243
  12	5.48964e-05	0.000178599	9.63395e-05
  13	0.000131528	0.000188894	0.000162447
  14	-0.000950628	0.000693074	0.00021156
  15	-0.000104007	-1.30977e-05	4.90791e-05
  16	9.85071e-05	0.000589146	7.72706e-05
  17	-0.000198052	0.00120732	0.000605538
  18	-0.00036026	0.00164842	0.000765992
  19	-0.000456144	0.000136806	-0.000198912
  20	-0.000190158	-0.000423382	2.9103e-05
  21	0.000498713	0.000826523	-0.000344804
  22	0.000309715	-0.000242904	0.000544522
  23	0.000226408	-9.09549e-05	0.00035416
  24	0.000175021	-0.000246728	0.000542678
  25	-0.00147543	-0.00443766	0.00253789
  26	0.00166327	-0.000602739	0.000643333
  27	-0.000452601	-0.000595241	0.00177322
  28	0.000444284	0.000140306	0.000281663
  29	-0.000763379	0.000296586	-0.000710416
  30	-0.000422695	0.000332464	-0.000928139
  31	0.000717563	0.000764248	-0.00224387
  32	0.000565848	0.000677772	-0.0018672
  33	-0.00106128	0.00065841	-0.00133239
  34	-0.00142617	0.000184247	-0.000152752
  35	-0.00161183	0.00049387	-0.00118485
  36	0.00090315	-0.00069558	-1.69643e-05
  37	6.89794e-05	-0.000137009	-0.00032861
  38	0.000201196	0.000529086	0.000338513
  39	0.000895121	0.000490898	0.000533079
  40	0.00157105	-0.000352734	9.20225e-05
  41	0.000905862	-0.00138036	0.00021579
  42	-3.38937e-05	-0.00057151	-0.00075922
  43	0.000318384	-0.000461474	0.000189528
  44	0.000702254	-0.000883644	-1.2196e-05
  45	0.000380535	-0.00135328	-0.000187653
  46	0.000186511	-0.0011369	-0.00026634
  47	0.000559845	-0.000190842	0.000446306
  48	7.99488e-05	-0.000496072	0.000117131
  49	0.00100961	-0.000942095	-0.000103246
  50	0.000264802	-0.000224954	0.000366351
  51	-0.000136132	-0.000297906	0.00020435
  52	-0.000635267	-0.000701911	-0.000205864
  53	-0.00105232	-0.000545275	-2.43449e-05
  54	0.000318462	-0.000487188	0.000414852
  55	0.000475495	-0.000282501	0.00049017
  56	-0.000412324	0.000182099	0.00042065
  57	-0.000179265	0.000297858	0.000299294
  58	0.000359419	0.000251939	0.000409061
  59	0.000437994	0.000947859	0.000453217
  60	0.000662965	0.00174378	0.000606256
  61	-0.000282862	-1.20033e-05	0.000191462
  62	-0.000393017	0.000415145	0.000283915
  63	0.000791011	0.000115898	0.000457832
  64	8.58857e-05	-0.000552703	5.53299e-05
  65	-7.98461e-05	0.00060409	0.000400713
  66	-0.00129574	0.00128372	0.000714918
  67	-0.00030365	0.00118135	0.000259867
  68	0.00119086	-0.0014723	4.52159e-05
  69	-0.00101162	-0.00122635	-0.000474648
  70	0.000815165	0.00129917	0.000489984
  71	0.000231983	0.000584922	-0.000774969
  72	0.000290799	0.000222607	0.000347912

Bonds

   1	3	1	2
   2	2	1	5
   3	2	1	6
   4	4	2	3
   5	5	2	7
   6	1	3	4
   7	3	8	9
   8	2	8	12
   9	2	8	13
  10	4	9	10
  11	5	9	14
  12	1	10	11
  13	3	1	9
  14	3	15	16
  15	2	15	19
  16	2	15	20
  17	4	16	17
  18	5	16	21
  19	1	17	18
  20	3	8	16
  21	3	22	23
  22	2	22	26
  23	2	22	27
  24	4	23	24
  25	5	23	28
  26	1	24	25
  27	3	15	23
  28	3	29	30
  29	2	29	33
  30	2	29	34
  31	4	30	31
  32	5	30	35
  33	1	31	32
  34	3	22	30
  35	3	36	37
  36	2	36	40
  37	2	36	41
  38	4	37	38
  39	5	37	42
  40	1	38	39
  41	3	29	37
  42	3	43	44
  43	2	43	47
  44	2	43	48
  45	4	44	45
  46	5	44	49
  47	1	45	46
  48	3	36	44
  49	3	50	51
  50	2	50	54
  51	2	50	55
  52	4	51	52
  53	5	51	56
  54	1	52	53
  55	3	43	51
  56	3	57	58
  57	2	57	61
  58	2	57	62
  59	4	58	59
  60	5	58	63
  61	1	59	60
  62	3	50	58
  63	3	64	65
  64	2	64	68
  65	2	64	69
  66	4	65	66
  67	5	65	70
  68	1	66	67
  69	3	57	65
  70	5	2	71
  71	2	64	72

Angles

   1	2	2	1	5
   2	2	2	1	6
   3	5	5	1	6
   4	1	1	2	3
   5	4	1	2	7
   6	3	3	2	7
   7	7	2	3	4
   8	2	9	8	12
   9	2	9	8	13
  10	5	12	8	13
  11	1	8	9	10
  12	4	8	9	14
  13	3	10	9	14
  14	7	9	10	11
  15	8	2	1	9
  16	2	5	1	9
  17	2	6	1	9
  18	8	1	9	8
  19	1	1	9	10
  20	4	1	9	14
  21	2	16	15	19
  22	2	16	15	20
  23	5	19	15	20
  24	1	15	16	17
  25	4	15	16	21
  26	3	17	16	21
  27	7	16	17	18
  28	8	9	8	16
  29	2	12	8	16
  30	2	13	8	16
  31	8	8	16	15
  32	1	8	16	17
  33	4	8	16	21
  34	2	23	22	26
  35	2	23	22	27
  36	5	26	22	27
  37	1	22	23	24
  38	4	22	23	28
  39	3	24	23	28
  40	7	23	24	25
  41	8	16	15	23
  42	2	19	15	23
  43	2	20	15	23
  44	8	15	23	22
  45	1	15	23	24
  46	4	15	23	28
  47	2	30	29	33
  48	2	30	29	34
  49	5	33	29	34
  50	1	29	30	31
  51	4	29	30	35
  52	3	31	30	35
  53	7	30	31	32
  54	8	23	22	30
  55	2	26	22	30
  56	2	27	22	30
  57	8	22	30	29
  58	1	22	30	31
  59	4	22	30	35
  60	2	37	36	40
  61	2	37	36	41
  62	5	40	36	41
  63	1	36	37	38
  64	4	36	37	42
  65	3	38	37	42
  66	7	37	38	39
  67	8	30	29	37
  68	2	33	29	37
  69	2	34	29	37
  70	8	29	37	36
  71	1	29	37	38
  72	4	29	37	42
  73	2	44	43	47
  74	2	44	43	48
  75	5	47	43	48
  76	1	43	44	45
  77	4	43	44	49
  78	3	45	44	49
  79	7	44	45	46
  80	8	37	36	44
  81	2	40	36	44
  82	2	41	36	44
  83	8	36	44	43
  84	1	36	44	45
  85	4	36	44	49
  86	2	51	50	54
  87	2	51	50	55
  88	5	54	50	55
  89	1	50	51	52
  90	4	50	51	56
  91	3	52	51	56
  92	7	51	52	53
  93	8	44	43	51
  94	2	47	43	51
  95	2	48	43	51
  96	8	43	51	50
  97	1	43	51	52
  98	4	43	51	56
  99	2	58	57	61
 100	2	58	57	62
 101	5	61	57	62
 102	1	57	58	59
 103	4	57	58	63
 104	3	59	58	63
 105	7	58	59	60
 106	8	51	50	58
 107	2	54	50	58
 108	2	55	50	58
 109	8	50	58	57
 110	1	50	58	59
 111	4	50	58	63
 112	2	65	64	68
 113	2	65	64	69
 114	5	68	64	69
 115	1	64	65	66
 116	4	64	65	70
 117	3	66	65	70
 118	7	65	66	67
 119	8	58	57	65
 120	2	61	57	65
 121	2	62	57	65
 122	8	57	65	64
 123	1	57	65	66
 124	4	57	65	70
 125	4	1	2	71
 126	3	3	2	71
 127	6	7	2	71
 128	2	65	64	72
 129	5	68	64	72
 130	5	69	64	72

Dihedrals

   1	1	5	1	2	3
   2	3	5	1	2	7
   3	1	6	1	2	3
   4	3	6	1	2	7
   5	4	1	2	3	4
   6	2	7	2	3	4
   7	1	12	8	9	10
   8	3	12	8	9	14
   9	1	13	8	9	10
  10	3	13	8	9	14
  11	4	8	9	10	11
  12	2	14	9	10	11
  13	3	3	2	1	9
  14	3	7	2	1	9
  15	5	1	9	8	12
  16	5	1	9	8	13
  17	4	1	9	10	11
  18	6	2	1	9	8
  19	3	2	1	9	10
  20	3	2	1	9	14
  21	5	5	1	9	8
  22	1	5	1	9	10
  23	3	5	1	9	14
  24	5	6	1	9	8
  25	1	6	1	9	10
  26	3	6	1	9	14
  27	1	19	15	16	17
  28	3	19	15	16	21
  29	1	20	15	16	17
  30	3	20	15	16	21
  31	4	15	16	17	18
  32	2	21	16	17	18
  33	3	10	9	8	16
  34	3	14	9	8	16
  35	6	1	9	8	16
  36	5	8	16	15	19
  37	5	8	16	15	20
  38	4	8	16	17	18
  39	6	9	8	16	15
  40	3	9	8	16	17
  41	3	9	8	16	21
  42	5	12	8	16	15
  43	1	12	8	16	17
  44	3	12	8	16	21
  45	5	13	8	16	15
  46	1	13	8	16	17
  47	3	13	8	16	21
  48	1	26	22	23	24
  49	3	26	22	23	28
  50	1	27	22	23	24
  51	3	27	22	23	28
  52	4	22	23	24	25
  53	2	28	23	24	25
  54	3	17	16	15	23
  55	3	21	16	15	23
  56	6	8	16	15	23
  57	5	15	23	22	26
  58	5	15	23	22	27
  59	4	15	23	24	25
  60	6	16	15	23	22
  61	3	16	15	23	24
  62	3	16	15	23	28
  63	5	19	15	23	22
  64	1	19	15	23	24
  65	3	19	15	23	28
  66	5	20	15	23	22
  67	1	20	15	23	24
  68	3	20	15	23	28
  69	1	33	29	30	31
  70	3	33	29	30	35
  71	1	34	29	30	31
  72	3	34	29	30	35
  73	4	29	30	31	32
  74	2	35	30	31	32
  75	3	24	23	22	30
  76	3	28	23	22	30
  77	6	15	23	22	30
  78	5	22	30	29	33
  79	5	22	30	29	34
  80	4	22	30	31	32
  81	6	23	22	30	29
  82	3	23	22	30	31
  83	3	23	22	30	35
  84	5	26	22	30	29
  85	1	26	22	30	31
  86	3	26	22	30	35
  87	5	27	22	30	29
  88	1	27	22	30	31
  89	3	27	22	30	35
  90	1	40	36	37	38
  91	3	40	36	37	42
  92	1	41	36	37	38
  93	3	41	36	37	42
  94	4	36	37	38	39
  95	2	42	37	38	39
  96	3	31	30	29	37
  97	3	35	30	29	37
  98	6	22	30	29	37
  99	5	29	37	36	40
 100	5	29	37	36	41
 101	4	29	37	38	39
 102	6	30	29	37	36
 103	3	30	29	37	38
 104	3	30	29	37	42
 105	5	33	29	37	36
 106	1	33	29	37	38
 107	3	33	29	37	42
 108	5	34	29	37	36
 109	1	34	29	37	38
 110	3	34	29	37	42
 111	1	47	43	44	45
 112	3	47	43	44	49
 113	1	48	43	44	45
 114	3	48	43	44	49
 115	4	43	44	45	46
 116	2	49	44	45	46
 117	3	38	37	36	44
 118	3	42	37	36	44
 119	6	29	37	36	44
 120	5	36	44	43	47
 121	5	36	44	43	48
 122	4	36	44	45	46
 123	6	37	36	44	43
 124	3	37	36	44	45
 125	3	37	36	44	49
 126	5	40	36	44	43
 127	1	40	36	44	45
 128	3	40	36	44	49
 129	5	41	36	44	43
 130	1	41	36	44	45
 131	3	41	36	44	49
 132	1	54	50	51	52
 133	3	54	50	51	56
 134	1	55	50	51	52
 135	3	55	50	51	56
 136	4	50	51	52	53
 137	2	56	51	52	53
 138	3	45	44	43	51
 139	3	49	44	43	51
 140	6	36	44	43	51
 141	5	43	51	50	54
 142	5	43	51	50	55
 143	4	43	51	52	53
 144	6	44	43	51	50
 145	3	44	43	51	52
 146	3	44	43	51	56
 147	5	47	43	51	50
 148	1	47	43	51	52
 149	3	47	43	51	56
 150	5	48	43	51	50
 151	1	48	43	51	52
 152	3	48	43	51	56
 153	1	61	57	58	59
 154	3	61	57	58	63
 155	1	62	57	58	59
 156	3	62	57	58	63
 157	4	57	58	59	60
 158	2	63	58	59	60
 159	3	52	51	50	58
 160	3	56	51	50	58
 161	6	43	51	50	58
 162	5	50	58	57	61
 163	5	50	58	57	62
 164	4	50	58	59	60
 165	6	51	50	58	57
 166	3	51	50	58	59
 167	3	51	50	58	63
 168	5	54	50	58	57
 169	1	54	50	58	59
 170	3	54	50	58	63
 171	5	55	50	58	57
 172	1	55	50	58	59
 173	3	55	50	58	63
 174	1	68	64	65	66
 175	3	68	64	65	70
 176	1	69	64	65	66
 177	3	69	64	65	70
 178	4	64	65	66	67
 179	2	70	65	66	67
 180	3	59	58	57	65
 181	3	63	58	57	65
 182	6	50	58	57	65
 183	5	57	65	64	68
 184	5	57	65	64	69
 185	4	57	65	66	67
 186	6	58	57	65	64
 187	3	58	57	65	66
 188	3	58	57	65	70
 189	5	61	57	65	64
 190	1	61	57	65	66
 191	3	61	57	65	70
 192	5	62	57	65	64
 193	1	62	57	65	66
 194	3	62	57	65	70
 195	3	5	1	2	71
 196	3	6	1	2	71
 197	3	9	1	2	71
 198	2	4	3	2	71
 199	1	66	65	64	72
 200	3	70	65	64	72
 201	5	57	65	64	72

