pySIMM System Object

149 atoms
148 bonds
273 angles
432 dihedrals
0 impropers

5 atom types
5 bond types
8 angle types
6 dihedral types

-71.523108 71.523108 xlo xhi
-71.523108 71.523108 ylo yhi
-71.523108 71.523108 zlo zhi

Masses

   1	12.01	# c3
   2	1.008	# hc
   3	16.0	# oh
   4	1.008	# ho
   5	1.008	# h1

Pair Coeffs

   1	0.1094	3.3996695084235347	# c3
   2	0.0157	2.649532787749369	# hc
   3	0.2104	3.0664733878390478	# oh
   4	0.0047	0.5379246460131368	# ho
   5	0.0157	2.471353044121301	# h1

Bond Coeffs

   1	371.4	0.973	# ho,oh
   2	330.6	1.0969	# c3,hc
   3	300.9	1.5375	# c3,c3
   4	316.7	1.4233	# c3,oh
   5	330.6	1.0969	# c3,h1

Angle Coeffs

   1	67.47	110.19	# c3,c3,oh
   2	46.34	109.8	# c3,c3,hc
   3	50.93	110.26	# h1,c3,oh
   4	46.39	109.56	# c3,c3,h1
   5	39.4	107.58	# hc,c3,hc
   6	39.24	108.46	# h1,c3,h1
   7	47.38	107.26	# c3,oh,ho
   8	62.86	111.51	# c3,c3,c3

Dihedral Coeffs

   1	2	0.0	3	0	0.25	1	0	# hc,c3,c3,oh
   2	1	0.16666666666666666	3	0	# X,c3,oh,X
   3	1	0.15555555555555556	3	0	# X,c3,c3,X
   4	2	0.16	3	0	0.25	1	0	# ho,oh,c3,c3
   5	1	0.16	3	0	# hc,c3,c3,c3
   6	3	0.18	3	0	0.25	2	180	0.2	1	180	# c3,c3,c3,c3

Atoms

   1	1	1	-0.02562	-0.303531	16.3058	-1.67824
   2	1	1	0.401389	-0.938191	17.6427	-2.1025
   3	1	3	-0.707077	-0.903733	18.5856	-1.03414
   4	1	4	0.414767	-1.40442	19.3648	-1.34483
   5	1	2	-0.013868	-0.349407	15.6163	-2.53144
   6	1	2	-0.001701	-0.899362	15.85	-0.875981
   7	1	5	-0.06789	-0.395325	18.0495	-2.96265
   8	1	1	-0.02562	1.84877	15.0906	-1.09254
   9	1	1	0.401389	1.16412	16.4656	-1.22194
  10	1	3	-0.707077	1.21517	17.1525	0.0257932
  11	1	4	0.414767	0.531073	17.8673	-0.0753783
  12	1	2	-0.013868	1.83425	14.5986	-2.0741
  13	1	2	-0.001701	1.25691	14.4606	-0.415894
  14	1	5	-0.06789	1.70312	17.051	-1.9752
  15	1	1	-0.02562	4.10581	13.8874	-0.853269
  16	1	1	0.401389	3.31076	15.1897	-0.593824
  17	1	3	-0.707077	3.32133	15.4982	0.797818
  18	1	4	0.414767	2.68796	16.2623	0.863707
  19	1	2	-0.013868	5.16713	14.0428	-0.61683
  20	1	2	-0.001701	4.06186	13.6594	-1.92608
  21	1	5	-0.06789	3.80554	15.9991	-1.142
  22	1	1	-0.02562	3.9851	11.3256	-0.61514
  23	1	1	0.401389	3.55516	12.6926	-0.044077
  24	1	3	-0.707077	3.94637	12.8109	1.32104
  25	1	4	0.414767	3.80438	13.7762	1.51528
  26	1	2	-0.013868	5.07329	11.192	-0.54559
  27	1	2	-0.001701	3.72308	11.2875	-1.68048
  28	1	5	-0.06789	2.46303	12.7157	-0.090396
  29	1	1	-0.02562	3.23545	8.8556	-0.628391
  30	1	1	0.401389	3.24088	10.2007	0.130956
  31	1	3	-0.707077	3.79793	10.04	1.43327
  32	1	4	0.414767	3.94471	10.9782	1.73611
  33	1	2	-0.013868	2.84051	9.01814	-1.64014
  34	1	2	-0.001701	4.25544	8.46391	-0.739276
  35	1	5	-0.06789	2.19508	10.5112	0.238288
  36	1	1	-0.02562	1.96313	6.60501	-0.732395
  37	1	1	0.401389	2.33619	7.84434	0.112602
  38	1	3	-0.707077	2.9697	7.44288	1.32496
  39	1	4	0.414767	3.37263	8.29111	1.66434
  40	1	2	-0.013868	2.85434	6.00589	-0.96344
  41	1	2	-0.001701	1.54298	6.93855	-1.69028
  42	1	5	-0.06789	1.40145	8.35887	0.363672
  43	1	1	-0.02562	0.285562	4.6403	-0.845846
  44	1	1	0.401389	0.908284	5.75839	0.0135429
  45	1	3	-0.707077	1.48917	5.1792	1.17528
  46	1	4	0.414767	2.11737	5.88128	1.501
  47	1	2	-0.013868	-0.00256011	5.02705	-1.83291
  48	1	2	-0.001701	1.03397	3.8553	-1.01841
  49	1	5	-0.06789	0.10264	6.4354	0.323214
  50	1	1	-0.02562	-1.32438	2.64677	-0.628762
  51	1	1	0.401389	-0.953216	4.05855	-0.127767
  52	1	3	-0.707077	-2.06193	4.93909	-0.28859
  53	1	4	0.414767	-1.91224	5.67277	0.334254
  54	1	2	-0.013868	-1.54551	2.6844	-1.70429
  55	1	2	-0.001701	-0.449441	1.99327	-0.511337
  56	1	5	-0.06789	-0.725859	3.98413	0.93848
  57	1	1	-0.02562	-2.35817	2.05051	1.67367
  58	1	1	0.401389	-2.52405	2.01611	0.124695
  59	1	3	-0.707077	-2.67088	0.682185	-0.360156
  60	1	4	0.414767	-3.04446	0.788753	-1.25653
  61	1	2	-0.013868	-2.38007	3.09956	1.99326
  62	1	2	-0.001701	-1.36214	1.68276	1.95245
  63	1	5	-0.06789	-3.43011	2.57015	-0.141874
  64	1	1	-0.02562	-2.99326	-0.00469408	3.16488
  65	1	1	0.401389	-3.44653	1.33208	2.51688
  66	1	3	-0.707077	-4.68636	1.20655	1.82682
  67	1	4	0.414767	-5.29665	0.747864	2.43021
  68	1	2	-0.013868	-3.84392	-0.451913	3.69691
  69	1	2	-0.001701	-2.25632	0.242163	3.93824
  70	1	5	-0.06789	-3.6494	1.99098	3.36924
  71	1	1	-0.02562	-1.89548	-2.3295	2.92739
  72	1	1	0.401389	-2.37742	-1.05245	2.20434
  73	1	3	-0.707077	-3.33223	-1.43337	1.23048
  74	1	4	0.414767	-3.29981	-0.68743	0.571768
  75	1	2	-0.013868	-1.71982	-3.10927	2.17498
  76	1	2	-0.001701	-2.69701	-2.69898	3.58051
  77	1	5	-0.06789	-1.51326	-0.610688	1.69645
  78	1	1	-0.02562	-0.29055	-3.35101	4.65748
  79	1	1	0.401389	-0.603186	-2.12834	3.75638
  80	1	3	-0.707077	0.509969	-1.86558	2.8981
  81	1	4	0.414767	0.3632	-0.990646	2.4891
  82	1	2	-0.013868	0.563831	-3.11837	5.30771
  83	1	2	-0.001701	-1.14416	-3.52024	5.32651
  84	1	5	-0.06789	-0.737067	-1.26473	4.4151
  85	1	1	-0.02562	0.0817765	-5.89264	4.77431
  86	1	1	0.401389	0.000454187	-4.64542	3.86043
  87	1	3	-0.707077	1.21784	-4.49082	3.13496
  88	1	4	0.414767	1.19964	-3.53865	2.84152
  89	1	2	-0.013868	0.906244	-5.76786	5.48904
  90	1	2	-0.001701	-0.83455	-5.9623	5.37501
  91	1	5	-0.06789	-0.813831	-4.80139	3.15044
  92	1	1	-0.02562	-0.982697	-7.66929	3.20746
  93	1	1	0.401389	0.272109	-7.22544	4.00662
  94	1	3	-0.707077	1.42521	-7.16412	3.17327
  95	1	4	0.414767	1.56903	-6.18835	3.01878
  96	1	2	-0.013868	-1.42554	-6.80916	2.69089
  97	1	2	-0.001701	-1.74231	-8.02582	3.91545
  98	1	5	-0.06789	0.452596	-7.9976	4.76255
  99	1	1	-0.02562	0.0377788	-10.0204	2.67831
 100	1	1	0.401389	-0.705587	-8.76448	2.14829
 101	1	3	-0.707077	-1.94226	-9.17335	1.56984
 102	1	4	0.414767	-2.18543	-8.47384	0.935157
 103	1	2	-0.013868	-0.690412	-10.7189	3.1139
 104	1	2	-0.001701	0.7373	-9.77349	3.48389
 105	1	5	-0.06789	-0.122073	-8.3001	1.34958
 106	1	1	-0.02562	2.10559	-9.93097	1.15212
 107	1	1	0.401389	0.8266	-10.7132	1.54663
 108	1	3	-0.707077	1.18587	-12.0294	1.95539
 109	1	4	0.414767	0.351389	-12.4559	2.21865
 110	1	2	-0.013868	2.78336	-9.8991	2.01584
 111	1	2	-0.001701	1.8577	-8.88473	0.952273
 112	1	5	-0.06789	0.159159	-10.7941	0.683493
 113	1	1	-0.02562	2.03482	-10.9464	-1.28811
 114	1	1	0.401389	2.88218	-10.5146	-0.0583895
 115	1	3	-0.707077	3.85362	-9.55389	-0.471691
 116	1	4	0.414767	4.50104	-9.51405	0.257872
 117	1	2	-0.013868	1.22923	-11.6171	-0.968317
 118	1	2	-0.001701	2.66942	-11.5759	-1.92517
 119	1	5	-0.06789	3.41748	-11.4033	0.293412
 120	1	1	-0.02562	0.183415	-10.2599	-2.91146
 121	1	1	0.401389	1.47219	-9.80556	-2.18239
 122	1	3	-0.707077	1.26676	-8.5964	-1.45701
 123	1	4	0.414767	2.17115	-8.39182	-1.11595
 124	1	2	-0.013868	0.479638	-11.0803	-3.57245
 125	1	2	-0.001701	-0.530347	-10.6706	-2.1845
 126	1	5	-0.06789	2.22478	-9.58542	-2.94782
 127	1	1	-0.02562	-1.63368	-9.55521	-4.72105
 128	1	1	0.401389	-0.504679	-9.13478	-3.73033
 129	1	3	-0.707077	-1.02911	-8.17298	-2.82055
 130	1	4	0.414767	-0.267811	-8.02873	-2.19837
 131	1	2	-0.013868	-1.25821	-9.44491	-5.74721
 132	1	2	-0.001701	-2.4568	-8.83151	-4.64161
 133	1	5	-0.06789	0.273253	-8.63933	-4.32315
 134	1	1	-0.02562	-3.55222	-11.1344	-5.32766
 135	1	1	0.401389	-2.21685	-10.982	-4.5588
 136	1	3	-0.707077	-1.28448	-11.9385	-5.06327
 137	1	4	0.414767	-1.59399	-12.8166	-4.78546
 138	1	2	-0.013868	-4.25794	-10.3576	-5.00355
 139	1	2	-0.001701	-3.36653	-10.9616	-6.39654
 140	1	5	-0.06789	-2.39982	-11.1788	-3.49755
 141	1	1	-0.02562	-4.86152	-12.6998	-3.75006
 142	1	1	0.401389	-4.20446	-12.5247	-5.13675
 143	1	3	-0.707077	-5.18251	-12.7412	-6.14694
 144	1	4	0.414767	-5.4097	-13.6856	-6.11113
 145	1	2	-0.013868	-5.25487	-13.7184	-3.63736
 146	1	2	-0.001701	-4.1393	-12.5323	-2.94227
 147	1	5	-0.06789	-3.43586	-13.2985	-5.24852
 148	1	5	0	-1.97576	17.4647	-2.41091
 149	1	2	0	-5.69291	-11.9958	-3.61716

Velocities

   1	-1.37887e-05	0.000402819	-0.000444621
   2	4.1876e-05	0.000862935	0.000770111
   3	0.00054907	0.000225069	0.0012841
   4	0.00209137	0.00118779	0.00127542
   5	5.69381e-05	0.00114347	-0.00110072
   6	1.77072e-05	-0.000345366	-0.000791979
   7	-8.6422e-05	0.00130981	0.000911206
   8	-0.000121439	-5.49452e-07	-0.000782077
   9	-2.02895e-05	6.68392e-05	-0.000332205
  10	-0.000154604	-0.000525858	-3.96774e-05
  11	-0.000313184	-0.000587836	0.000392192
  12	-0.000146483	0.000298527	-0.00099173
  13	-1.55074e-05	-0.000127928	-0.000977232
  14	8.0666e-05	0.000437286	5.02884e-05
  15	-2.2456e-05	7.70989e-05	-0.000690116
  16	-1.50668e-05	2.09883e-05	-0.000865269
  17	-8.31863e-05	0.000215806	-0.000882052
  18	-0.00057356	-0.000135982	-0.001003
  19	-0.000123148	0.000127738	-0.000482904
  20	7.73811e-05	-8.52159e-05	-0.000649089
  21	-0.000103913	-1.89975e-06	-0.000991958
  22	-8.06051e-05	0.00011179	-0.000173827
  23	-0.000157597	0.000124774	-0.000544159
  24	-0.000365415	0.000464054	-0.000456264
  25	-0.000346552	0.000461097	-0.000739851
  26	3.9101e-05	0.00030977	-0.000271036
  27	-0.00015194	-0.000222062	-0.00010278
  28	-0.000152785	0.000106521	-0.000673908
  29	0.000159138	-4.37541e-05	0.000481637
  30	0.0002496	9.77853e-05	0.000255515
  31	0.000555844	0.000294951	0.000116357
  32	0.000412034	0.000370222	-1.3741e-05
  33	0.000208498	-0.00019058	0.000412228
  34	0.000140795	-0.000138942	0.000544892
  35	0.000234515	2.51604e-05	0.000432067
  36	0.000138494	-4.139e-05	0.000568969
  37	5.12124e-05	5.68403e-05	0.000527517
  38	-5.58297e-05	0.000179107	0.000649379
  39	0.000136363	0.000150432	0.000517319
  40	0.000145951	-6.5311e-05	0.000811454
  41	0.000367312	-6.70057e-05	0.00047655
  42	6.56363e-05	0.000121561	0.000391041
  43	0.000191103	-3.92571e-06	0.000330387
  44	-4.19449e-05	9.39688e-05	0.000387546
  45	-0.000357027	0.000248657	0.000596117
  46	-0.000375091	0.000220323	0.000655037
  47	7.07446e-05	-7.25335e-05	0.000342558
  48	0.000259251	4.50628e-05	0.000330039
  49	-0.000125345	0.000104397	7.95765e-05
  50	0.000130891	-0.000103242	0.000214467
  51	0.000266504	-0.000187085	0.000311362
  52	0.000208575	-0.000171164	0.000589011
  53	-0.000390037	-0.000938979	0.00164552
  54	0.00031242	-9.76257e-05	0.00016813
  55	-3.74539e-05	-0.000330028	0.000409641
  56	0.000374377	-0.00037734	0.000287346
  57	0.000414779	-0.00056963	4.69163e-05
  58	-0.000135318	0.000349943	0.000113018
  59	-0.00109165	0.00069151	-0.000590225
  60	-6.36287e-05	0.00155577	-0.000929958
  61	0.00172482	-0.000785967	0.000785809
  62	0.000159221	-0.00181148	-0.000592007
  63	0.000199238	0.00115678	0.000686918
  64	-7.25542e-06	0.000252733	0.000168187
  65	-1.46219e-05	3.4064e-05	-3.49872e-05
  66	0.000187806	-0.000379602	-0.000329817
  67	0.00168257	-0.00514751	-0.00240027
  68	0.000253529	0.00054438	0.000811799
  69	0.000506365	0.000425462	-0.000379339
  70	-0.000239244	0.000241238	-0.000249563
  71	-0.00106353	2.74721e-06	-0.000143194
  72	-0.000747363	8.51489e-05	-0.000102166
  73	-0.0011175	0.000648306	2.92173e-05
  74	-0.000959394	0.0006749	2.00271e-05
  75	-0.00111902	-4.92425e-05	-0.000118668
  76	-0.00115086	0.000176406	-0.000147097
  77	-0.000704881	-0.000257113	-0.000308262
  78	-0.000859071	9.02994e-05	-0.000310575
  79	-0.00111305	7.5735e-05	-0.000135037
  80	-0.00123738	0.000607634	-0.000106485
  81	-0.00175119	0.000479767	-0.000207984
  82	-0.00104283	0.000294973	-0.00022111
  83	-0.000865183	-0.000206178	-0.000460176
  84	-0.00131431	-7.55333e-05	8.41952e-05
  85	0.000320466	0.000483638	-3.90069e-05
  86	-0.000416902	0.00020529	-0.000367875
  87	-0.000519778	0.000670346	-0.000490346
  88	-0.000839851	0.000685421	-0.000393275
  89	0.000468071	0.0010717	-0.000338195
  90	0.000516507	0.00033708	0.000235058
  91	-0.000448528	-0.000193274	-0.000319255
  92	0.000534914	-0.000567317	0.00103043
  93	0.000670247	0.000264085	0.000341976
  94	0.000361006	0.000616576	-2.18073e-05
  95	7.62671e-05	0.000663958	-3.5411e-05
  96	-0.000713338	-0.00073984	0.00180307
  97	0.00140199	-0.00166691	0.00141899
  98	0.00135157	0.000597524	0.000524694
  99	0.000447634	-0.000241973	-4.59649e-06
 100	0.000912521	0.000151073	0.00038356
 101	0.00113191	0.000675178	-0.000469562
 102	0.00256154	0.000131071	-0.00161954
 103	0.000182881	-4.8665e-06	-3.29842e-05
 104	0.000589897	-0.000541224	-8.0702e-07
 105	0.00137194	0.000568534	0.000936559
 106	0.00056703	-0.00112159	0.000241973
 107	-4.97442e-05	-0.000373223	-0.000302129
 108	-0.00118823	-0.000908932	-0.000975736
 109	-0.00163785	-0.00045426	-0.00161606
 110	0.000611689	-0.00228811	0.000262945
 111	0.00130517	-0.000772569	0.00102878
 112	-6.88761e-06	0.000602464	-0.000432851
 113	9.51135e-05	-0.000201734	-0.000222808
 114	0.000292924	-0.000549928	-0.000249796
 115	-1.41163e-05	-0.000188154	-0.000207672
 116	-0.000282894	0.000384612	-1.35043e-06
 117	0.00022028	-0.000410124	-0.000223833
 118	1.78359e-05	6.34375e-05	-0.00056142
 119	0.000549581	-0.000613185	-0.000755041
 120	0.000537387	-0.000424213	-0.000587605
 121	-0.000163965	-1.53642e-05	0.000324441
 122	-0.00139468	-0.0006253	0.00103704
 123	-0.00146019	0.000522716	0.000463898
 124	0.00139486	0.000270637	-0.00122835
 125	0.000588971	-0.00157424	-0.00120816
 126	4.57423e-05	0.0010832	0.000834632
 127	0.00111381	-0.000634933	-0.000975092
 128	-5.26368e-05	-0.000315585	0.000155478
 129	-0.00167434	-0.00178997	0.00082108
 130	-0.00202989	-0.00137472	0.00107172
 131	0.0026266	-0.00214486	-0.000650299
 132	0.00159274	4.08066e-05	-0.00293449
 133	-0.00019055	0.00115229	0.00108521
 134	0.00025405	0.000204548	1.20495e-05
 135	4.10842e-05	-4.84467e-05	0.000159634
 136	-0.000416939	-0.00105518	0.00118933
 137	-0.0027016	-0.000713197	-0.000148998
 138	0.000292956	0.000353495	-6.01021e-06
 139	0.000365197	0.000346542	1.92532e-05
 140	-0.000409595	0.000930236	0.000260443
 141	0.000690779	0.000360284	0.000117498
 142	7.23758e-05	0.000318133	-4.35635e-05
 143	-0.000462888	0.000798424	0.000421363
 144	-0.00202582	0.0011776	0.00198285
 145	-0.00119382	0.00105922	-0.000563957
 146	0.00141617	-0.00161847	-0.000100529
 147	-0.00011269	0.000146271	-0.000527944
 148	-1.08507e-05	0.00123443	0.00095104
 149	0.00216345	0.00178821	0.000912741

Bonds

   1	3	1	2
   2	2	1	5
   3	2	1	6
   4	4	2	3
   5	5	2	7
   6	1	3	4
   7	3	8	9
   8	2	8	12
   9	2	8	13
  10	4	9	10
  11	5	9	14
  12	1	10	11
  13	3	1	9
  14	3	15	16
  15	2	15	19
  16	2	15	20
  17	4	16	17
  18	5	16	21
  19	1	17	18
  20	3	8	16
  21	3	22	23
  22	2	22	26
  23	2	22	27
  24	4	23	24
  25	5	23	28
  26	1	24	25
  27	3	15	23
  28	3	29	30
  29	2	29	33
  30	2	29	34
  31	4	30	31
  32	5	30	35
  33	1	31	32
  34	3	22	30
  35	3	36	37
  36	2	36	40
  37	2	36	41
  38	4	37	38
  39	5	37	42
  40	1	38	39
  41	3	29	37
  42	3	43	44
  43	2	43	47
  44	2	43	48
  45	4	44	45
  46	5	44	49
  47	1	45	46
  48	3	36	44
  49	3	50	51
  50	2	50	54
  51	2	50	55
  52	4	51	52
  53	5	51	56
  54	1	52	53
  55	3	43	51
  56	3	57	58
  57	2	57	61
  58	2	57	62
  59	4	58	59
  60	5	58	63
  61	1	59	60
  62	3	50	58
  63	3	64	65
  64	2	64	68
  65	2	64	69
  66	4	65	66
  67	5	65	70
  68	1	66	67
  69	3	57	65
  70	3	71	72
  71	2	71	75
  72	2	71	76
  73	4	72	73
  74	5	72	77
  75	1	73	74
  76	3	64	72
  77	3	78	79
  78	2	78	82
  79	2	78	83
  80	4	79	80
  81	5	79	84
  82	1	80	81
  83	3	71	79
  84	3	85	86
  85	2	85	89
  86	2	85	90
  87	4	86	87
  88	5	86	91
  89	1	87	88
  90	3	78	86
  91	3	92	93
  92	2	92	96
  93	2	92	97
  94	4	93	94
  95	5	93	98
  96	1	94	95
  97	3	85	93
  98	3	99	100
  99	2	99	103
 100	2	99	104
 101	4	100	101
 102	5	100	105
 103	1	101	102
 104	3	92	100
 105	3	106	107
 106	2	106	110
 107	2	106	111
 108	4	107	108
 109	5	107	112
 110	1	108	109
 111	3	99	107
 112	3	113	114
 113	2	113	117
 114	2	113	118
 115	4	114	115
 116	5	114	119
 117	1	115	116
 118	3	106	114
 119	3	120	121
 120	2	120	124
 121	2	120	125
 122	4	121	122
 123	5	121	126
 124	1	122	123
 125	3	113	121
 126	3	127	128
 127	2	127	131
 128	2	127	132
 129	4	128	129
 130	5	128	133
 131	1	129	130
 132	3	120	128
 133	3	134	135
 134	2	134	138
 135	2	134	139
 136	4	135	136
 137	5	135	140
 138	1	136	137
 139	3	127	135
 140	3	141	142
 141	2	141	145
 142	2	141	146
 143	4	142	143
 144	5	142	147
 145	1	143	144
 146	3	134	142
 147	5	2	148
 148	2	141	149

Angles

   1	2	2	1	5
   2	2	2	1	6
   3	5	5	1	6
   4	1	1	2	3
   5	4	1	2	7
   6	3	3	2	7
   7	7	2	3	4
   8	2	9	8	12
   9	2	9	8	13
  10	5	12	8	13
  11	1	8	9	10
  12	4	8	9	14
  13	3	10	9	14
  14	7	9	10	11
  15	8	2	1	9
  16	2	5	1	9
  17	2	6	1	9
  18	8	1	9	8
  19	1	1	9	10
  20	4	1	9	14
  21	2	16	15	19
  22	2	16	15	20
  23	5	19	15	20
  24	1	15	16	17
  25	4	15	16	21
  26	3	17	16	21
  27	7	16	17	18
  28	8	9	8	16
  29	2	12	8	16
  30	2	13	8	16
  31	8	8	16	15
  32	1	8	16	17
  33	4	8	16	21
  34	2	23	22	26
  35	2	23	22	27
  36	5	26	22	27
  37	1	22	23	24
  38	4	22	23	28
  39	3	24	23	28
  40	7	23	24	25
  41	8	16	15	23
  42	2	19	15	23
  43	2	20	15	23
  44	8	15	23	22
  45	1	15	23	24
  46	4	15	23	28
  47	2	30	29	33
  48	2	30	29	34
  49	5	33	29	34
  50	1	29	30	31
  51	4	29	30	35
  52	3	31	30	35
  53	7	30	31	32
  54	8	23	22	30
  55	2	26	22	30
  56	2	27	22	30
  57	8	22	30	29
  58	1	22	30	31
  59	4	22	30	35
  60	2	37	36	40
  61	2	37	36	41
  62	5	40	36	41
  63	1	36	37	38
  64	4	36	37	42
  65	3	38	37	42
  66	7	37	38	39
  67	8	30	29	37
  68	2	33	29	37
  69	2	34	29	37
  70	8	29	37	36
  71	1	29	37	38
  72	4	29	37	42
  73	2	44	43	47
  74	2	44	43	48
  75	5	47	43	48
  76	1	43	44	45
  77	4	43	44	49
  78	3	45	44	49
  79	7	44	45	46
  80	8	37	36	44
  81	2	40	36	44
  82	2	41	36	44
  83	8	36	44	43
  84	1	36	44	45
  85	4	36	44	49
  86	2	51	50	54
  87	2	51	50	55
  88	5	54	50	55
  89	1	50	51	52
  90	4	50	51	56
  91	3	52	51	56
  92	7	51	52	53
  93	8	44	43	51
  94	2	47	43	51
  95	2	48	43	51
  96	8	43	51	50
  97	1	43	51	52
  98	4	43	51	56
  99	2	58	57	61
 100	2	58	57	62
 101	5	61	57	62
 102	1	57	58	59
 103	4	57	58	63
 104	3	59	58	63
 105	7	58	59	60
 106	8	51	50	58
 107	2	54	50	58
 108	2	55	50	58
 109	8	50	58	57
 110	1	50	58	59
 111	4	50	58	63
 112	2	65	64	68
 113	2	65	64	69
 114	5	68	64	69
 115	1	64	65	66
 116	4	64	65	70
 117	3	66	65	70
 118	7	65	66	67
 119	8	58	57	65
 120	2	61	57	65
 121	2	62	57	65
 122	8	57	65	64
 123	1	57	65	66
 124	4	57	65	70
 125	2	72	71	75
 126	2	72	71	76
 127	5	75	71	76
 128	1	71	72	73
 129	4	71	72	77
 130	3	73	72	77
 131	7	72	73	74
 132	8	65	64	72
 133	2	68	64	72
 134	2	69	64	72
 135	8	64	72	71
 136	1	64	72	73
 137	4	64	72	77
 138	2	79	78	82
 139	2	79	78	83
 140	5	82	78	83
 141	1	78	79	80
 142	4	78	79	84
 143	3	80	79	84
 144	7	79	80	81
 145	8	72	71	79
 146	2	75	71	79
 147	2	76	71	79
 148	8	71	79	78
 149	1	71	79	80
 150	4	71	79	84
 151	2	86	85	89
 152	2	86	85	90
 153	5	89	85	90
 154	1	85	86	87
 155	4	85	86	91
 156	3	87	86	91
 157	7	86	87	88
 158	8	79	78	86
 159	2	82	78	86
 160	2	83	78	86
 161	8	78	86	85
 162	1	78	86	87
 163	4	78	86	91
 164	2	93	92	96
 165	2	93	92	97
 166	5	96	92	97
 167	1	92	93	94
 168	4	92	93	98
 169	3	94	93	98
 170	7	93	94	95
 171	8	86	85	93
 172	2	89	85	93
 173	2	90	85	93
 174	8	85	93	92
 175	1	85	93	94
 176	4	85	93	98
 177	2	100	99	103
 178	2	100	99	104
 179	5	103	99	104
 180	1	99	100	101
 181	4	99	100	105
 182	3	101	100	105
 183	7	100	101	102
 184	8	93	92	100
 185	2	96	92	100
 186	2	97	92	100
 187	8	92	100	99
 188	1	92	100	101
 189	4	92	100	105
 190	2	107	106	110
 191	2	107	106	111
 192	5	110	106	111
 193	1	106	107	108
 194	4	106	107	112
 195	3	108	107	112
 196	7	107	108	109
 197	8	100	99	107
 198	2	103	99	107
 199	2	104	99	107
 200	8	99	107	106
 201	1	99	107	108
 202	4	99	107	112
 203	2	114	113	117
 204	2	114	113	118
 205	5	117	113	118
 206	1	113	114	115
 207	4	113	114	119
 208	3	115	114	119
 209	7	114	115	116
 210	8	107	106	114
 211	2	110	106	114
 212	2	111	106	114
 213	8	106	114	113
 214	1	106	114	115
 215	4	106	114	119
 216	2	121	120	124
 217	2	121	120	125
 218	5	124	120	125
 219	1	120	121	122
 220	4	120	121	126
 221	3	122	121	126
 222	7	121	122	123
 223	8	114	113	121
 224	2	117	113	121
 225	2	118	113	121
 226	8	113	121	120
 227	1	113	121	122
 228	4	113	121	126
 229	2	128	127	131
 230	2	128	127	132
 231	5	131	127	132
 232	1	127	128	129
 233	4	127	128	133
 234	3	129	128	133
 235	7	128	129	130
 236	8	121	120	128
 237	2	124	120	128
 238	2	125	120	128
 239	8	120	128	127
 240	1	120	128	129
 241	4	120	128	133
 242	2	135	134	138
 243	2	135	134	139
 244	5	138	134	139
 245	1	134	135	136
 246	4	134	135	140
 247	3	136	135	140
 248	7	135	136	137
 249	8	128	127	135
 250	2	131	127	135
 251	2	132	127	135
 252	8	127	135	134
 253	1	127	135	136
 254	4	127	135	140
 255	2	142	141	145
 256	2	142	141	146
 257	5	145	141	146
 258	1	141	142	143
 259	4	141	142	147
 260	3	143	142	147
 261	7	142	143	144
 262	8	135	134	142
 263	2	138	134	142
 264	2	139	134	142
 265	8	134	142	141
 266	1	134	142	143
 267	4	134	142	147
 268	4	1	2	148
 269	3	3	2	148
 270	6	7	2	148
 271	2	142	141	149
 272	5	145	141	149
 273	5	146	141	149

Dihedrals

   1	1	5	1	2	3
   2	3	5	1	2	7
   3	1	6	1	2	3
   4	3	6	1	2	7
   5	4	1	2	3	4
   6	2	7	2	3	4
   7	1	12	8	9	10
   8	3	12	8	9	14
   9	1	13	8	9	10
  10	3	13	8	9	14
  11	4	8	9	10	11
  12	2	14	9	10	11
  13	3	3	2	1	9
  14	3	7	2	1	9
  15	5	1	9	8	12
  16	5	1	9	8	13
  17	4	1	9	10	11
  18	6	2	1	9	8
  19	3	2	1	9	10
  20	3	2	1	9	14
  21	5	5	1	9	8
  22	1	5	1	9	10
  23	3	5	1	9	14
  24	5	6	1	9	8
  25	1	6	1	9	10
  26	3	6	1	9	14
  27	1	19	15	16	17
  28	3	19	15	16	21
  29	1	20	15	16	17
  30	3	20	15	16	21
  31	4	15	16	17	18
  32	2	21	16	17	18
  33	3	10	9	8	16
  34	3	14	9	8	16
  35	6	1	9	8	16
  36	5	8	16	15	19
  37	5	8	16	15	20
  38	4	8	16	17	18
  39	6	9	8	16	15
  40	3	9	8	16	17
  41	3	9	8	16	21
  42	5	12	8	16	15
  43	1	12	8	16	17
  44	3	12	8	16	21
  45	5	13	8	16	15
  46	1	13	8	16	17
  47	3	13	8	16	21
  48	1	26	22	23	24
  49	3	26	22	23	28
  50	1	27	22	23	24
  51	3	27	22	23	28
  52	4	22	23	24	25
  53	2	28	23	24	25
  54	3	17	16	15	23
  55	3	21	16	15	23
  56	6	8	16	15	23
  57	5	15	23	22	26
  58	5	15	23	22	27
  59	4	15	23	24	25
  60	6	16	15	23	22
  61	3	16	15	23	24
  62	3	16	15	23	28
  63	5	19	15	23	22
  64	1	19	15	23	24
  65	3	19	15	23	28
  66	5	20	15	23	22
  67	1	20	15	23	24
  68	3	20	15	23	28
  69	1	33	29	30	31
  70	3	33	29	30	35
  71	1	34	29	30	31
  72	3	34	29	30	35
  73	4	29	30	31	32
  74	2	35	30	31	32
  75	3	24	23	22	30
  76	3	28	23	22	30
  77	6	15	23	22	30
  78	5	22	30	29	33
  79	5	22	30	29	34
  80	4	22	30	31	32
  81	6	23	22	30	29
  82	3	23	22	30	31
  83	3	23	22	30	35
  84	5	26	22	30	29
  85	1	26	22	30	31
  86	3	26	22	30	35
  87	5	27	22	30	29
  88	1	27	22	30	31
  89	3	27	22	30	35
  90	1	40	36	37	38
  91	3	40	36	37	42
  92	1	41	36	37	38
  93	3	41	36	37	42
  94	4	36	37	38	39
  95	2	42	37	38	39
  96	3	31	30	29	37
  97	3	35	30	29	37
  98	6	22	30	29	37
  99	5	29	37	36	40
 100	5	29	37	36	41
 101	4	29	37	38	39
 102	6	30	29	37	36
 103	3	30	29	37	38
 104	3	30	29	37	42
 105	5	33	29	37	36
 106	1	33	29	37	38
 107	3	33	29	37	42
 108	5	34	29	37	36
 109	1	34	29	37	38
 110	3	34	29	37	42
 111	1	47	43	44	45
 112	3	47	43	44	49
 113	1	48	43	44	45
 114	3	48	43	44	49
 115	4	43	44	45	46
 116	2	49	44	45	46
 117	3	38	37	36	44
 118	3	42	37	36	44
 119	6	29	37	36	44
 120	5	36	44	43	47
 121	5	36	44	43	48
 122	4	36	44	45	46
 123	6	37	36	44	43
 124	3	37	36	44	45
 125	3	37	36	44	49
 126	5	40	36	44	43
 127	1	40	36	44	45
 128	3	40	36	44	49
 129	5	41	36	44	43
 130	1	41	36	44	45
 131	3	41	36	44	49
 132	1	54	50	51	52
 133	3	54	50	51	56
 134	1	55	50	51	52
 135	3	55	50	51	56
 136	4	50	51	52	53
 137	2	56	51	52	53
 138	3	45	44	43	51
 139	3	49	44	43	51
 140	6	36	44	43	51
 141	5	43	51	50	54
 142	5	43	51	50	55
 143	4	43	51	52	53
 144	6	44	43	51	50
 145	3	44	43	51	52
 146	3	44	43	51	56
 147	5	47	43	51	50
 148	1	47	43	51	52
 149	3	47	43	51	56
 150	5	48	43	51	50
 151	1	48	43	51	52
 152	3	48	43	51	56
 153	1	61	57	58	59
 154	3	61	57	58	63
 155	1	62	57	58	59
 156	3	62	57	58	63
 157	4	57	58	59	60
 158	2	63	58	59	60
 159	3	52	51	50	58
 160	3	56	51	50	58
 161	6	43	51	50	58
 162	5	50	58	57	61
 163	5	50	58	57	62
 164	4	50	58	59	60
 165	6	51	50	58	57
 166	3	51	50	58	59
 167	3	51	50	58	63
 168	5	54	50	58	57
 169	1	54	50	58	59
 170	3	54	50	58	63
 171	5	55	50	58	57
 172	1	55	50	58	59
 173	3	55	50	58	63
 174	1	68	64	65	66
 175	3	68	64	65	70
 176	1	69	64	65	66
 177	3	69	64	65	70
 178	4	64	65	66	67
 179	2	70	65	66	67
 180	3	59	58	57	65
 181	3	63	58	57	65
 182	6	50	58	57	65
 183	5	57	65	64	68
 184	5	57	65	64	69
 185	4	57	65	66	67
 186	6	58	57	65	64
 187	3	58	57	65	66
 188	3	58	57	65	70
 189	5	61	57	65	64
 190	1	61	57	65	66
 191	3	61	57	65	70
 192	5	62	57	65	64
 193	1	62	57	65	66
 194	3	62	57	65	70
 195	1	75	71	72	73
 196	3	75	71	72	77
 197	1	76	71	72	73
 198	3	76	71	72	77
 199	4	71	72	73	74
 200	2	77	72	73	74
 201	3	66	65	64	72
 202	3	70	65	64	72
 203	6	57	65	64	72
 204	5	64	72	71	75
 205	5	64	72	71	76
 206	4	64	72	73	74
 207	6	65	64	72	71
 208	3	65	64	72	73
 209	3	65	64	72	77
 210	5	68	64	72	71
 211	1	68	64	72	73
 212	3	68	64	72	77
 213	5	69	64	72	71
 214	1	69	64	72	73
 215	3	69	64	72	77
 216	1	82	78	79	80
 217	3	82	78	79	84
 218	1	83	78	79	80
 219	3	83	78	79	84
 220	4	78	79	80	81
 221	2	84	79	80	81
 222	3	73	72	71	79
 223	3	77	72	71	79
 224	6	64	72	71	79
 225	5	71	79	78	82
 226	5	71	79	78	83
 227	4	71	79	80	81
 228	6	72	71	79	78
 229	3	72	71	79	80
 230	3	72	71	79	84
 231	5	75	71	79	78
 232	1	75	71	79	80
 233	3	75	71	79	84
 234	5	76	71	79	78
 235	1	76	71	79	80
 236	3	76	71	79	84
 237	1	89	85	86	87
 238	3	89	85	86	91
 239	1	90	85	86	87
 240	3	90	85	86	91
 241	4	85	86	87	88
 242	2	91	86	87	88
 243	3	80	79	78	86
 244	3	84	79	78	86
 245	6	71	79	78	86
 246	5	78	86	85	89
 247	5	78	86	85	90
 248	4	78	86	87	88
 249	6	79	78	86	85
 250	3	79	78	86	87
 251	3	79	78	86	91
 252	5	82	78	86	85
 253	1	82	78	86	87
 254	3	82	78	86	91
 255	5	83	78	86	85
 256	1	83	78	86	87
 257	3	83	78	86	91
 258	1	96	92	93	94
 259	3	96	92	93	98
 260	1	97	92	93	94
 261	3	97	92	93	98
 262	4	92	93	94	95
 263	2	98	93	94	95
 264	3	87	86	85	93
 265	3	91	86	85	93
 266	6	78	86	85	93
 267	5	85	93	92	96
 268	5	85	93	92	97
 269	4	85	93	94	95
 270	6	86	85	93	92
 271	3	86	85	93	94
 272	3	86	85	93	98
 273	5	89	85	93	92
 274	1	89	85	93	94
 275	3	89	85	93	98
 276	5	90	85	93	92
 277	1	90	85	93	94
 278	3	90	85	93	98
 279	1	103	99	100	101
 280	3	103	99	100	105
 281	1	104	99	100	101
 282	3	104	99	100	105
 283	4	99	100	101	102
 284	2	105	100	101	102
 285	3	94	93	92	100
 286	3	98	93	92	100
 287	6	85	93	92	100
 288	5	92	100	99	103
 289	5	92	100	99	104
 290	4	92	100	101	102
 291	6	93	92	100	99
 292	3	93	92	100	101
 293	3	93	92	100	105
 294	5	96	92	100	99
 295	1	96	92	100	101
 296	3	96	92	100	105
 297	5	97	92	100	99
 298	1	97	92	100	101
 299	3	97	92	100	105
 300	1	110	106	107	108
 301	3	110	106	107	112
 302	1	111	106	107	108
 303	3	111	106	107	112
 304	4	106	107	108	109
 305	2	112	107	108	109
 306	3	101	100	99	107
 307	3	105	100	99	107
 308	6	92	100	99	107
 309	5	99	107	106	110
 310	5	99	107	106	111
 311	4	99	107	108	109
 312	6	100	99	107	106
 313	3	100	99	107	108
 314	3	100	99	107	112
 315	5	103	99	107	106
 316	1	103	99	107	108
 317	3	103	99	107	112
 318	5	104	99	107	106
 319	1	104	99	107	108
 320	3	104	99	107	112
 321	1	117	113	114	115
 322	3	117	113	114	119
 323	1	118	113	114	115
 324	3	118	113	114	119
 325	4	113	114	115	116
 326	2	119	114	115	116
 327	3	108	107	106	114
 328	3	112	107	106	114
 329	6	99	107	106	114
 330	5	106	114	113	117
 331	5	106	114	113	118
 332	4	106	114	115	116
 333	6	107	106	114	113
 334	3	107	106	114	115
 335	3	107	106	114	119
 336	5	110	106	114	113
 337	1	110	106	114	115
 338	3	110	106	114	119
 339	5	111	106	114	113
 340	1	111	106	114	115
 341	3	111	106	114	119
 342	1	124	120	121	122
 343	3	124	120	121	126
 344	1	125	120	121	122
 345	3	125	120	121	126
 346	4	120	121	122	123
 347	2	126	121	122	123
 348	3	115	114	113	121
 349	3	119	114	113	121
 350	6	106	114	113	121
 351	5	113	121	120	124
 352	5	113	121	120	125
 353	4	113	121	122	123
 354	6	114	113	121	120
 355	3	114	113	121	122
 356	3	114	113	121	126
 357	5	117	113	121	120
 358	1	117	113	121	122
 359	3	117	113	121	126
 360	5	118	113	121	120
 361	1	118	113	121	122
 362	3	118	113	121	126
 363	1	131	127	128	129
 364	3	131	127	128	133
 365	1	132	127	128	129
 366	3	132	127	128	133
 367	4	127	128	129	130
 368	2	133	128	129	130
 369	3	122	121	120	128
 370	3	126	121	120	128
 371	6	113	121	120	128
 372	5	120	128	127	131
 373	5	120	128	127	132
 374	4	120	128	129	130
 375	6	121	120	128	127
 376	3	121	120	128	129
 377	3	121	120	128	133
 378	5	124	120	128	127
 379	1	124	120	128	129
 380	3	124	120	128	133
 381	5	125	120	128	127
 382	1	125	120	128	129
 383	3	125	120	128	133
 384	1	138	134	135	136
 385	3	138	134	135	140
 386	1	139	134	135	136
 387	3	139	134	135	140
 388	4	134	135	136	137
 389	2	140	135	136	137
 390	3	129	128	127	135
 391	3	133	128	127	135
 392	6	120	128	127	135
 393	5	127	135	134	138
 394	5	127	135	134	139
 395	4	127	135	136	137
 396	6	128	127	135	134
 397	3	128	127	135	136
 398	3	128	127	135	140
 399	5	131	127	135	134
 400	1	131	127	135	136
 401	3	131	127	135	140
 402	5	132	127	135	134
 403	1	132	127	135	136
 404	3	132	127	135	140
 405	1	145	141	142	143
 406	3	145	141	142	147
 407	1	146	141	142	143
 408	3	146	141	142	147
 409	4	141	142	143	144
 410	2	147	142	143	144
 411	3	136	135	134	142
 412	3	140	135	134	142
 413	6	127	135	134	142
 414	5	134	142	141	145
 415	5	134	142	141	146
 416	4	134	142	143	144
 417	6	135	134	142	141
 418	3	135	134	142	143
 419	3	135	134	142	147
 420	5	138	134	142	141
 421	1	138	134	142	143
 422	3	138	134	142	147
 423	5	139	134	142	141
 424	1	139	134	142	143
 425	3	139	134	142	147
 426	3	5	1	2	148
 427	3	6	1	2	148
 428	3	9	1	2	148
 429	2	4	3	2	148
 430	1	143	142	141	149
 431	3	147	142	141	149
 432	5	134	142	141	149

