pySIMM System Object

93 atoms
92 bonds
169 angles
264 dihedrals
0 impropers

5 atom types
5 bond types
8 angle types
6 dihedral types

-60.324926 60.324926 xlo xhi
-60.324926 60.324926 ylo yhi
-60.324926 60.324926 zlo zhi

Masses

   1	12.01	# c3
   2	1.008	# hc
   3	16.0	# oh
   4	1.008	# ho
   5	1.008	# h1

Pair Coeffs

   1	0.1094	3.3996695084235347	# c3
   2	0.0157	2.649532787749369	# hc
   3	0.2104	3.0664733878390478	# oh
   4	0.0047	0.5379246460131368	# ho
   5	0.0157	2.471353044121301	# h1

Bond Coeffs

   1	371.4	0.973	# ho,oh
   2	330.6	1.0969	# c3,hc
   3	300.9	1.5375	# c3,c3
   4	316.7	1.4233	# c3,oh
   5	330.6	1.0969	# c3,h1

Angle Coeffs

   1	67.47	110.19	# c3,c3,oh
   2	46.34	109.8	# c3,c3,hc
   3	50.93	110.26	# h1,c3,oh
   4	46.39	109.56	# c3,c3,h1
   5	39.4	107.58	# hc,c3,hc
   6	39.24	108.46	# h1,c3,h1
   7	47.38	107.26	# c3,oh,ho
   8	62.86	111.51	# c3,c3,c3

Dihedral Coeffs

   1	2	0.0	3	0	0.25	1	0	# hc,c3,c3,oh
   2	1	0.16666666666666666	3	0	# X,c3,oh,X
   3	1	0.15555555555555556	3	0	# X,c3,c3,X
   4	2	0.16	3	0	0.25	1	0	# ho,oh,c3,c3
   5	1	0.16	3	0	# hc,c3,c3,c3
   6	3	0.18	3	0	0.25	2	180	0.2	1	180	# c3,c3,c3,c3

Atoms

   1	1	1	-0.02562	10.4186	4.57016	-0.173096
   2	1	1	0.401389	9.48962	5.79826	-0.0626738
   3	1	3	-0.707077	9.16266	6.30966	-1.35041
   4	1	4	0.414767	9.99415	6.61119	-1.75799
   5	1	2	-0.013868	10.583	4.15254	0.828507
   6	1	2	-0.001701	11.3974	4.90632	-0.539504
   7	1	5	-0.06789	8.56797	5.52491	0.461128
   8	1	1	-0.02562	8.60522	2.77194	-0.553756
   9	1	1	0.401389	9.86352	3.47423	-1.11554
  10	1	3	-0.707077	10.876	2.50405	-1.35909
  11	1	4	0.414767	10.9303	2.41915	-2.32936
  12	1	2	-0.013868	8.05463	3.45663	0.101171
  13	1	2	-0.001701	8.88975	1.91866	0.0770228
  14	1	5	-0.06789	9.62263	3.93584	-2.07814
  15	1	1	-0.02562	6.2657	1.95264	-1.1282
  16	1	1	0.401389	7.65961	2.31346	-1.68173
  17	1	3	-0.707077	8.21118	1.20359	-2.38429
  18	1	4	0.414767	8.78572	0.733071	-1.74782
  19	1	2	-0.013868	5.88813	2.79948	-0.538893
  20	1	2	-0.001701	6.35601	1.10657	-0.433137
  21	1	5	-0.06789	7.54134	3.14544	-2.38466
  22	1	1	-0.02562	3.83267	1.43315	-1.60391
  23	1	1	0.401389	5.23438	1.60692	-2.22672
  24	1	3	-0.707077	5.18688	2.62639	-3.21789
  25	1	4	0.414767	6.05528	2.60918	-3.66584
  26	1	2	-0.013868	3.56899	2.35373	-1.06412
  27	1	2	-0.001701	3.8718	0.646531	-0.840089
  28	1	5	-0.06789	5.52704	0.665385	-2.7059
  29	1	1	-0.02562	2.90647	-0.134867	-3.50669
  30	1	1	0.401389	2.71397	1.13401	-2.63232
  31	1	3	-0.707077	1.47152	1.07599	-1.94119
  32	1	4	0.414767	1.18066	2.00955	-1.87948
  33	1	2	-0.013868	2.02919	-0.259535	-4.15439
  34	1	2	-0.001701	3.74019	0.0618536	-4.19319
  35	1	5	-0.06789	2.64274	1.986	-3.31677
  36	1	1	-0.02562	1.99858	-2.46057	-2.70544
  37	1	1	0.401389	3.17751	-1.45369	-2.72897
  38	1	3	-0.707077	4.29446	-2.11233	-3.32338
  39	1	4	0.414767	5.06956	-1.53983	-3.19602
  40	1	2	-0.013868	2.34839	-3.38358	-2.22342
  41	1	2	-0.001701	1.73949	-2.73626	-3.73612
  42	1	5	-0.06789	3.46054	-1.22946	-1.69905
  43	1	1	-0.02562	-0.213812	-3.19245	-1.68194
  44	1	1	0.401389	0.710576	-1.98724	-1.98839
  45	1	3	-0.707077	1.00505	-1.29286	-0.777014
  46	1	4	0.414767	1.21548	-0.36421	-1.08492
  47	1	2	-0.013868	-0.373149	-3.75971	-2.60854
  48	1	2	-0.001701	0.315944	-3.87939	-1.00837
  49	1	5	-0.06789	0.179766	-1.30118	-2.65734
  50	1	1	-0.02562	-2.77234	-3.35484	-1.888
  51	1	1	0.401389	-1.58345	-2.84802	-1.0338
  52	1	3	-0.707077	-1.73061	-1.45977	-0.753816
  53	1	4	0.414767	-0.8306	-1.19419	-0.436087
  54	1	2	-0.013868	-2.63661	-3.01944	-2.92572
  55	1	2	-0.001701	-2.75892	-4.45299	-1.90666
  56	1	5	-0.06789	-1.60972	-3.37106	-0.0724375
  57	1	1	-0.02562	-4.49392	-3.28919	0.062434
  58	1	1	0.401389	-4.14921	-2.86196	-1.38792
  59	1	3	-0.707077	-5.167	-3.31866	-2.27357
  60	1	4	0.414767	-5.01679	-2.8693	-3.12375
  61	1	2	-0.013868	-3.61825	-3.71035	0.570498
  62	1	2	-0.001701	-5.24599	-4.08984	0.0595806
  63	1	5	-0.06789	-4.16047	-1.76789	-1.44841
  64	1	1	-0.02562	-5.24507	-2.44761	2.35699
  65	1	1	0.401389	-5.01229	-2.08642	0.874465
  66	1	3	-0.707077	-6.22515	-1.60069	0.303233
  67	1	4	0.414767	-6.02491	-1.37219	-0.623599
  68	1	2	-0.013868	-4.30142	-2.78063	2.8123
  69	1	2	-0.001701	-5.92265	-3.30996	2.40251
  70	1	5	-0.06789	-4.26289	-1.28809	0.837387
  71	1	1	-0.02562	-7.07552	-1.62089	3.96404
  72	1	1	0.401389	-5.82585	-1.24238	3.13943
  73	1	3	-0.707077	-4.84746	-0.663993	4.00275
  74	1	4	0.414767	-4.07145	-0.475109	3.44222
  75	1	2	-0.013868	-6.78884	-2.01106	4.95041
  76	1	2	-0.001701	-7.63024	-2.42046	3.45743
  77	1	5	-0.06789	-6.11442	-0.457523	2.43464
  78	1	1	-0.02562	-9.3683	-0.817896	4.71235
  79	1	1	0.401389	-8.00955	-0.407597	4.10468
  80	1	3	-0.707077	-7.38577	0.607765	4.88411
  81	1	4	0.414767	-6.41778	0.467469	4.75089
  82	1	2	-0.013868	-9.81681	-1.59539	4.07962
  83	1	2	-0.001701	-9.20584	-1.27375	5.6971
  84	1	5	-0.06789	-8.1878	-0.011607	3.0991
  85	1	1	-0.02562	-11.776	-0.151634	5.19114
  86	1	1	0.401389	-10.3584	0.358787	4.85346
  87	1	3	-0.707077	-10.4053	1.13857	3.66383
  88	1	4	0.414767	-9.54672	1.60406	3.64688
  89	1	2	-0.013868	-12.1512	-0.821463	4.40644
  90	1	2	-0.001701	-11.7711	-0.706274	6.13736
  91	1	5	-0.06789	-10.0232	1.00619	5.67126
  92	1	5	0	9.98618	6.57546	0.531145
  93	1	2	0	-12.4777	0.685488	5.29207

Velocities

   1	0.00144534	-0.00104899	-0.00072523
   2	0.00169928	6.94155e-05	-0.000679445
   3	0.0010158	0.000174455	0.000140818
   4	-0.000471369	0.0113336	0.00403701
   5	0.00201915	-0.000252538	-0.00160695
   6	0.000983796	-0.00145153	-0.00222706
   7	0.00229279	0.000148687	0.000418319
   8	-0.000969593	0.000584178	0.000192714
   9	-0.000395731	-0.000491471	-0.000315523
  10	-0.00136735	-0.00247866	0.000451554
  11	-0.00305364	-0.00439585	0.000610725
  12	-0.000885632	0.0020453	-0.000510796
  13	-0.00202958	0.00126331	0.0011984
  14	0.000267491	-0.0014609	-9.72042e-05
  15	-0.000900732	-3.03982e-05	-0.000304895
  16	-0.000626672	0.000488376	0.000463585
  17	-0.0002662	0.000695624	0.00020279
  18	0.00286947	0.00318177	-0.000590743
  19	-0.00100801	-0.000325418	0.000241171
  20	-0.000374328	-0.000430798	0.000262928
  21	-0.00104429	0.000585108	0.000265649
  22	-0.000812456	0.000809703	-0.000896252
  23	-0.000380611	-0.000550786	0.000556976
  24	0.000480381	-0.00146705	-0.00129061
  25	0.00019432	-0.00310783	-0.00108697
  26	-0.000619605	0.0020994	-0.00123207
  27	-0.00139192	0.0016046	0.00115373
  28	-0.000872555	-0.0013463	0.0010023
  29	-0.000234815	-0.000139916	-0.00054655
  30	-0.000740455	0.000360068	0.000757846
  31	-0.000306639	-0.000840865	0.000388897
  32	-0.000770197	-0.000561122	0.00149216
  33	-8.02515e-05	-0.000428294	0.000694269
  34	-0.000902621	0.000714001	-1.75215e-05
  35	-0.00147053	0.000233337	-0.000264492
  36	0.00169485	-0.000689267	0.000518376
  37	0.001071	0.000643409	0.000530721
  38	0.00125134	0.00102167	-0.00036021
  39	0.00130453	0.000698267	0.00120203
  40	0.00238453	0.000326616	0.00194113
  41	0.00247337	-0.00177743	0.00122275
  42	0.0012387	0.00070286	-0.000549538
  43	0.000205791	-0.000629518	-0.00162931
  44	0.00119874	-0.000577765	-7.36485e-05
  45	0.000483281	-0.00134277	0.000255195
  46	0.000460512	-0.00107087	0.000768835
  47	4.20619e-05	0.000724489	-0.00238236
  48	-0.000250972	-0.00177593	-0.00249672
  49	0.00203134	-0.000299213	-0.000355942
  50	-0.000616958	-8.47986e-05	-0.000470888
  51	0.000633972	-0.000376685	-0.00138367
  52	0.000658587	-0.000279074	-0.00172848
  53	0.000742959	-0.000514255	-0.00123478
  54	-0.000431717	-0.000786593	-0.00105715
  55	-0.000764949	-0.000561158	-0.00027921
  56	0.000545598	-6.69651e-05	-0.00119167
  57	-0.000726185	0.000587095	4.98332e-05
  58	0.0010443	0.000751259	-0.000431857
  59	-0.00035613	0.00353418	-0.000473823
  60	0.00776213	-0.00406202	-0.00353268
  61	0.000537743	-0.000111822	-5.67078e-05
  62	0.000312079	0.000262933	-0.0010429
  63	0.00198895	0.00116877	0.00104846
  64	0.00010139	0.00165278	0.000749641
  65	0.000341896	-0.000313067	-0.000888448
  66	-0.00130734	-0.00134255	-0.00025432
  67	-0.00435337	-0.0131627	-0.00417102
  68	0.00249646	0.0032232	4.33149e-05
  69	0.00282374	-0.000241469	0.00156106
  70	-0.0013387	0.000496813	-0.00137613
  71	-0.00221409	-0.000238809	-0.000730156
  72	6.52972e-05	0.000317162	-0.00106278
  73	-0.00224998	0.00152546	0.000710808
  74	-0.00183691	0.00261541	0.000817086
  75	-0.00136313	-0.00302186	-0.00241655
  76	-0.0013582	0.00133703	-0.00340754
  77	-0.00119296	0.000490539	-0.000573885
  78	-0.00201231	-0.000283669	0.00138632
  79	0.000718902	-2.13418e-06	0.00105512
  80	-0.000140226	-0.00227238	0.0042144
  81	0.000713913	-0.00331095	0.0039418
  82	-0.000841093	0.000812438	6.25169e-05
  83	-0.00161177	-0.00037592	-4.22861e-05
  84	-9.43121e-05	0.00254212	0.00309354
  85	-0.00117637	0.0011113	0.00160849
  86	0.000295658	0.000670258	0.000471183
  87	-0.000731523	0.000149111	0.000793371
  88	-0.000316321	0.000702683	0.000557511
  89	-0.00164541	0.00236979	0.00157569
  90	-0.00074713	0.00164767	0.00101194
  91	8.18262e-06	0.000521603	0.000589977
  92	0.00286566	-0.000421749	-0.000669113
  93	0.000156939	0.00224623	0.00202521

Bonds

   1	3	1	2
   2	2	1	5
   3	2	1	6
   4	4	2	3
   5	5	2	7
   6	1	3	4
   7	3	8	9
   8	2	8	12
   9	2	8	13
  10	4	9	10
  11	5	9	14
  12	1	10	11
  13	3	1	9
  14	3	15	16
  15	2	15	19
  16	2	15	20
  17	4	16	17
  18	5	16	21
  19	1	17	18
  20	3	8	16
  21	3	22	23
  22	2	22	26
  23	2	22	27
  24	4	23	24
  25	5	23	28
  26	1	24	25
  27	3	15	23
  28	3	29	30
  29	2	29	33
  30	2	29	34
  31	4	30	31
  32	5	30	35
  33	1	31	32
  34	3	22	30
  35	3	36	37
  36	2	36	40
  37	2	36	41
  38	4	37	38
  39	5	37	42
  40	1	38	39
  41	3	29	37
  42	3	43	44
  43	2	43	47
  44	2	43	48
  45	4	44	45
  46	5	44	49
  47	1	45	46
  48	3	36	44
  49	3	50	51
  50	2	50	54
  51	2	50	55
  52	4	51	52
  53	5	51	56
  54	1	52	53
  55	3	43	51
  56	3	57	58
  57	2	57	61
  58	2	57	62
  59	4	58	59
  60	5	58	63
  61	1	59	60
  62	3	50	58
  63	3	64	65
  64	2	64	68
  65	2	64	69
  66	4	65	66
  67	5	65	70
  68	1	66	67
  69	3	57	65
  70	3	71	72
  71	2	71	75
  72	2	71	76
  73	4	72	73
  74	5	72	77
  75	1	73	74
  76	3	64	72
  77	3	78	79
  78	2	78	82
  79	2	78	83
  80	4	79	80
  81	5	79	84
  82	1	80	81
  83	3	71	79
  84	3	85	86
  85	2	85	89
  86	2	85	90
  87	4	86	87
  88	5	86	91
  89	1	87	88
  90	3	78	86
  91	5	2	92
  92	2	85	93

Angles

   1	2	2	1	5
   2	2	2	1	6
   3	5	5	1	6
   4	1	1	2	3
   5	4	1	2	7
   6	3	3	2	7
   7	7	2	3	4
   8	2	9	8	12
   9	2	9	8	13
  10	5	12	8	13
  11	1	8	9	10
  12	4	8	9	14
  13	3	10	9	14
  14	7	9	10	11
  15	8	2	1	9
  16	2	5	1	9
  17	2	6	1	9
  18	8	1	9	8
  19	1	1	9	10
  20	4	1	9	14
  21	2	16	15	19
  22	2	16	15	20
  23	5	19	15	20
  24	1	15	16	17
  25	4	15	16	21
  26	3	17	16	21
  27	7	16	17	18
  28	8	9	8	16
  29	2	12	8	16
  30	2	13	8	16
  31	8	8	16	15
  32	1	8	16	17
  33	4	8	16	21
  34	2	23	22	26
  35	2	23	22	27
  36	5	26	22	27
  37	1	22	23	24
  38	4	22	23	28
  39	3	24	23	28
  40	7	23	24	25
  41	8	16	15	23
  42	2	19	15	23
  43	2	20	15	23
  44	8	15	23	22
  45	1	15	23	24
  46	4	15	23	28
  47	2	30	29	33
  48	2	30	29	34
  49	5	33	29	34
  50	1	29	30	31
  51	4	29	30	35
  52	3	31	30	35
  53	7	30	31	32
  54	8	23	22	30
  55	2	26	22	30
  56	2	27	22	30
  57	8	22	30	29
  58	1	22	30	31
  59	4	22	30	35
  60	2	37	36	40
  61	2	37	36	41
  62	5	40	36	41
  63	1	36	37	38
  64	4	36	37	42
  65	3	38	37	42
  66	7	37	38	39
  67	8	30	29	37
  68	2	33	29	37
  69	2	34	29	37
  70	8	29	37	36
  71	1	29	37	38
  72	4	29	37	42
  73	2	44	43	47
  74	2	44	43	48
  75	5	47	43	48
  76	1	43	44	45
  77	4	43	44	49
  78	3	45	44	49
  79	7	44	45	46
  80	8	37	36	44
  81	2	40	36	44
  82	2	41	36	44
  83	8	36	44	43
  84	1	36	44	45
  85	4	36	44	49
  86	2	51	50	54
  87	2	51	50	55
  88	5	54	50	55
  89	1	50	51	52
  90	4	50	51	56
  91	3	52	51	56
  92	7	51	52	53
  93	8	44	43	51
  94	2	47	43	51
  95	2	48	43	51
  96	8	43	51	50
  97	1	43	51	52
  98	4	43	51	56
  99	2	58	57	61
 100	2	58	57	62
 101	5	61	57	62
 102	1	57	58	59
 103	4	57	58	63
 104	3	59	58	63
 105	7	58	59	60
 106	8	51	50	58
 107	2	54	50	58
 108	2	55	50	58
 109	8	50	58	57
 110	1	50	58	59
 111	4	50	58	63
 112	2	65	64	68
 113	2	65	64	69
 114	5	68	64	69
 115	1	64	65	66
 116	4	64	65	70
 117	3	66	65	70
 118	7	65	66	67
 119	8	58	57	65
 120	2	61	57	65
 121	2	62	57	65
 122	8	57	65	64
 123	1	57	65	66
 124	4	57	65	70
 125	2	72	71	75
 126	2	72	71	76
 127	5	75	71	76
 128	1	71	72	73
 129	4	71	72	77
 130	3	73	72	77
 131	7	72	73	74
 132	8	65	64	72
 133	2	68	64	72
 134	2	69	64	72
 135	8	64	72	71
 136	1	64	72	73
 137	4	64	72	77
 138	2	79	78	82
 139	2	79	78	83
 140	5	82	78	83
 141	1	78	79	80
 142	4	78	79	84
 143	3	80	79	84
 144	7	79	80	81
 145	8	72	71	79
 146	2	75	71	79
 147	2	76	71	79
 148	8	71	79	78
 149	1	71	79	80
 150	4	71	79	84
 151	2	86	85	89
 152	2	86	85	90
 153	5	89	85	90
 154	1	85	86	87
 155	4	85	86	91
 156	3	87	86	91
 157	7	86	87	88
 158	8	79	78	86
 159	2	82	78	86
 160	2	83	78	86
 161	8	78	86	85
 162	1	78	86	87
 163	4	78	86	91
 164	4	1	2	92
 165	3	3	2	92
 166	6	7	2	92
 167	2	86	85	93
 168	5	89	85	93
 169	5	90	85	93

Dihedrals

   1	1	5	1	2	3
   2	3	5	1	2	7
   3	1	6	1	2	3
   4	3	6	1	2	7
   5	4	1	2	3	4
   6	2	7	2	3	4
   7	1	12	8	9	10
   8	3	12	8	9	14
   9	1	13	8	9	10
  10	3	13	8	9	14
  11	4	8	9	10	11
  12	2	14	9	10	11
  13	3	3	2	1	9
  14	3	7	2	1	9
  15	5	1	9	8	12
  16	5	1	9	8	13
  17	4	1	9	10	11
  18	6	2	1	9	8
  19	3	2	1	9	10
  20	3	2	1	9	14
  21	5	5	1	9	8
  22	1	5	1	9	10
  23	3	5	1	9	14
  24	5	6	1	9	8
  25	1	6	1	9	10
  26	3	6	1	9	14
  27	1	19	15	16	17
  28	3	19	15	16	21
  29	1	20	15	16	17
  30	3	20	15	16	21
  31	4	15	16	17	18
  32	2	21	16	17	18
  33	3	10	9	8	16
  34	3	14	9	8	16
  35	6	1	9	8	16
  36	5	8	16	15	19
  37	5	8	16	15	20
  38	4	8	16	17	18
  39	6	9	8	16	15
  40	3	9	8	16	17
  41	3	9	8	16	21
  42	5	12	8	16	15
  43	1	12	8	16	17
  44	3	12	8	16	21
  45	5	13	8	16	15
  46	1	13	8	16	17
  47	3	13	8	16	21
  48	1	26	22	23	24
  49	3	26	22	23	28
  50	1	27	22	23	24
  51	3	27	22	23	28
  52	4	22	23	24	25
  53	2	28	23	24	25
  54	3	17	16	15	23
  55	3	21	16	15	23
  56	6	8	16	15	23
  57	5	15	23	22	26
  58	5	15	23	22	27
  59	4	15	23	24	25
  60	6	16	15	23	22
  61	3	16	15	23	24
  62	3	16	15	23	28
  63	5	19	15	23	22
  64	1	19	15	23	24
  65	3	19	15	23	28
  66	5	20	15	23	22
  67	1	20	15	23	24
  68	3	20	15	23	28
  69	1	33	29	30	31
  70	3	33	29	30	35
  71	1	34	29	30	31
  72	3	34	29	30	35
  73	4	29	30	31	32
  74	2	35	30	31	32
  75	3	24	23	22	30
  76	3	28	23	22	30
  77	6	15	23	22	30
  78	5	22	30	29	33
  79	5	22	30	29	34
  80	4	22	30	31	32
  81	6	23	22	30	29
  82	3	23	22	30	31
  83	3	23	22	30	35
  84	5	26	22	30	29
  85	1	26	22	30	31
  86	3	26	22	30	35
  87	5	27	22	30	29
  88	1	27	22	30	31
  89	3	27	22	30	35
  90	1	40	36	37	38
  91	3	40	36	37	42
  92	1	41	36	37	38
  93	3	41	36	37	42
  94	4	36	37	38	39
  95	2	42	37	38	39
  96	3	31	30	29	37
  97	3	35	30	29	37
  98	6	22	30	29	37
  99	5	29	37	36	40
 100	5	29	37	36	41
 101	4	29	37	38	39
 102	6	30	29	37	36
 103	3	30	29	37	38
 104	3	30	29	37	42
 105	5	33	29	37	36
 106	1	33	29	37	38
 107	3	33	29	37	42
 108	5	34	29	37	36
 109	1	34	29	37	38
 110	3	34	29	37	42
 111	1	47	43	44	45
 112	3	47	43	44	49
 113	1	48	43	44	45
 114	3	48	43	44	49
 115	4	43	44	45	46
 116	2	49	44	45	46
 117	3	38	37	36	44
 118	3	42	37	36	44
 119	6	29	37	36	44
 120	5	36	44	43	47
 121	5	36	44	43	48
 122	4	36	44	45	46
 123	6	37	36	44	43
 124	3	37	36	44	45
 125	3	37	36	44	49
 126	5	40	36	44	43
 127	1	40	36	44	45
 128	3	40	36	44	49
 129	5	41	36	44	43
 130	1	41	36	44	45
 131	3	41	36	44	49
 132	1	54	50	51	52
 133	3	54	50	51	56
 134	1	55	50	51	52
 135	3	55	50	51	56
 136	4	50	51	52	53
 137	2	56	51	52	53
 138	3	45	44	43	51
 139	3	49	44	43	51
 140	6	36	44	43	51
 141	5	43	51	50	54
 142	5	43	51	50	55
 143	4	43	51	52	53
 144	6	44	43	51	50
 145	3	44	43	51	52
 146	3	44	43	51	56
 147	5	47	43	51	50
 148	1	47	43	51	52
 149	3	47	43	51	56
 150	5	48	43	51	50
 151	1	48	43	51	52
 152	3	48	43	51	56
 153	1	61	57	58	59
 154	3	61	57	58	63
 155	1	62	57	58	59
 156	3	62	57	58	63
 157	4	57	58	59	60
 158	2	63	58	59	60
 159	3	52	51	50	58
 160	3	56	51	50	58
 161	6	43	51	50	58
 162	5	50	58	57	61
 163	5	50	58	57	62
 164	4	50	58	59	60
 165	6	51	50	58	57
 166	3	51	50	58	59
 167	3	51	50	58	63
 168	5	54	50	58	57
 169	1	54	50	58	59
 170	3	54	50	58	63
 171	5	55	50	58	57
 172	1	55	50	58	59
 173	3	55	50	58	63
 174	1	68	64	65	66
 175	3	68	64	65	70
 176	1	69	64	65	66
 177	3	69	64	65	70
 178	4	64	65	66	67
 179	2	70	65	66	67
 180	3	59	58	57	65
 181	3	63	58	57	65
 182	6	50	58	57	65
 183	5	57	65	64	68
 184	5	57	65	64	69
 185	4	57	65	66	67
 186	6	58	57	65	64
 187	3	58	57	65	66
 188	3	58	57	65	70
 189	5	61	57	65	64
 190	1	61	57	65	66
 191	3	61	57	65	70
 192	5	62	57	65	64
 193	1	62	57	65	66
 194	3	62	57	65	70
 195	1	75	71	72	73
 196	3	75	71	72	77
 197	1	76	71	72	73
 198	3	76	71	72	77
 199	4	71	72	73	74
 200	2	77	72	73	74
 201	3	66	65	64	72
 202	3	70	65	64	72
 203	6	57	65	64	72
 204	5	64	72	71	75
 205	5	64	72	71	76
 206	4	64	72	73	74
 207	6	65	64	72	71
 208	3	65	64	72	73
 209	3	65	64	72	77
 210	5	68	64	72	71
 211	1	68	64	72	73
 212	3	68	64	72	77
 213	5	69	64	72	71
 214	1	69	64	72	73
 215	3	69	64	72	77
 216	1	82	78	79	80
 217	3	82	78	79	84
 218	1	83	78	79	80
 219	3	83	78	79	84
 220	4	78	79	80	81
 221	2	84	79	80	81
 222	3	73	72	71	79
 223	3	77	72	71	79
 224	6	64	72	71	79
 225	5	71	79	78	82
 226	5	71	79	78	83
 227	4	71	79	80	81
 228	6	72	71	79	78
 229	3	72	71	79	80
 230	3	72	71	79	84
 231	5	75	71	79	78
 232	1	75	71	79	80
 233	3	75	71	79	84
 234	5	76	71	79	78
 235	1	76	71	79	80
 236	3	76	71	79	84
 237	1	89	85	86	87
 238	3	89	85	86	91
 239	1	90	85	86	87
 240	3	90	85	86	91
 241	4	85	86	87	88
 242	2	91	86	87	88
 243	3	80	79	78	86
 244	3	84	79	78	86
 245	6	71	79	78	86
 246	5	78	86	85	89
 247	5	78	86	85	90
 248	4	78	86	87	88
 249	6	79	78	86	85
 250	3	79	78	86	87
 251	3	79	78	86	91
 252	5	82	78	86	85
 253	1	82	78	86	87
 254	3	82	78	86	91
 255	5	83	78	86	85
 256	1	83	78	86	87
 257	3	83	78	86	91
 258	3	5	1	2	92
 259	3	6	1	2	92
 260	3	9	1	2	92
 261	2	4	3	2	92
 262	1	87	86	85	93
 263	3	91	86	85	93
 264	5	78	86	85	93

