pySIMM System Object

268 atoms
267 bonds
494 angles
789 dihedrals
0 impropers

5 atom types
5 bond types
8 angle types
6 dihedral types

-87.801841 87.801841 xlo xhi
-87.801841 87.801841 ylo yhi
-87.801841 87.801841 zlo zhi

Masses

   1	12.01	# c3
   2	1.008	# hc
   3	16.0	# oh
   4	1.008	# ho
   5	1.008	# h1

Pair Coeffs

   1	0.1094	3.3996695084235347	# c3
   2	0.0157	2.649532787749369	# hc
   3	0.2104	3.0664733878390478	# oh
   4	0.0047	0.5379246460131368	# ho
   5	0.0157	2.471353044121301	# h1

Bond Coeffs

   1	371.4	0.973	# ho,oh
   2	330.6	1.0969	# c3,hc
   3	300.9	1.5375	# c3,c3
   4	316.7	1.4233	# c3,oh
   5	330.6	1.0969	# c3,h1

Angle Coeffs

   1	67.47	110.19	# c3,c3,oh
   2	46.34	109.8	# c3,c3,hc
   3	50.93	110.26	# h1,c3,oh
   4	46.39	109.56	# c3,c3,h1
   5	39.4	107.58	# hc,c3,hc
   6	39.24	108.46	# h1,c3,h1
   7	47.38	107.26	# c3,oh,ho
   8	62.86	111.51	# c3,c3,c3

Dihedral Coeffs

   1	2	0.0	3	0	0.25	1	0	# hc,c3,c3,oh
   2	1	0.16666666666666666	3	0	# X,c3,oh,X
   3	1	0.15555555555555556	3	0	# X,c3,c3,X
   4	2	0.16	3	0	0.25	1	0	# ho,oh,c3,c3
   5	1	0.16	3	0	# hc,c3,c3,c3
   6	3	0.18	3	0	0.25	2	180	0.2	1	180	# c3,c3,c3,c3

Atoms

   1	1	1	-0.02562	-17.6839	-8.68642	5.79838
   2	1	1	0.401389	-19.1439	-9.13198	6.01472
   3	1	3	-0.707077	-19.3985	-9.41326	7.3898
   4	1	4	0.414767	-20.3015	-9.78427	7.42988
   5	1	2	-0.013868	-17.5363	-8.49468	4.72745
   6	1	2	-0.001701	-17.0034	-9.50612	6.06563
   7	1	5	-0.06789	-19.8229	-8.34135	5.67698
   8	1	1	-0.02562	-15.9388	-6.86557	6.19036
   9	1	1	0.401389	-17.3236	-7.41586	6.60198
  10	1	3	-0.707077	-17.3383	-7.70623	7.99822
  11	1	4	0.414767	-18.1102	-8.32772	8.10132
  12	1	2	-0.013868	-15.9673	-6.60496	5.12399
  13	1	2	-0.001701	-15.1899	-7.6607	6.29967
  14	1	5	-0.06789	-18.077	-6.64843	6.3917
  15	1	1	-0.02562	-14.2959	-4.88295	6.39976
  16	1	1	0.401389	-15.5187	-5.61748	7.00652
  17	1	3	-0.707077	-15.2335	-5.9972	8.35054
  18	1	4	0.414767	-15.9959	-6.59741	8.58178
  19	1	2	-0.013868	-14.1319	-3.93559	6.93098
  20	1	2	-0.001701	-14.5285	-4.61473	5.36101
  21	1	5	-0.06789	-16.3619	-4.91748	7.0087
  22	1	1	-0.02562	-11.8662	-5.15741	5.56908
  23	1	1	0.401389	-13.0053	-5.73386	6.43734
  24	1	3	-0.707077	-12.5514	-5.87992	7.78037
  25	1	4	0.414767	-13.3993	-5.97976	8.29876
  26	1	2	-0.013868	-11.4996	-4.20714	5.98073
  27	1	2	-0.001701	-12.2555	-4.94385	4.56513
  28	1	5	-0.06789	-13.2396	-6.7251	6.03862
  29	1	1	-0.02562	-9.69073	-5.84983	4.35908
  30	1	1	0.401389	-10.7229	-6.1886	5.45891
  31	1	3	-0.707077	-10.0665	-6.34457	6.72145
  32	1	4	0.414767	-10.8174	-6.2212	7.37554
  33	1	2	-0.013868	-10.2193	-5.64061	3.41989
  34	1	2	-0.001701	-9.12263	-4.94651	4.61962
  35	1	5	-0.06789	-11.1788	-7.14831	5.19173
  36	1	1	-0.02562	-7.84962	-6.9665	2.9012
  37	1	1	0.401389	-8.74825	-7.05317	4.15503
  38	1	3	-0.707077	-7.92191	-7.20503	5.30943
  39	1	4	0.414767	-8.47654	-6.79228	6.02884
  40	1	2	-0.013868	-7.00798	-6.28492	3.0853
  41	1	2	-0.001701	-8.42018	-6.55063	2.06077
  42	1	5	-0.06789	-9.37855	-7.94384	4.05604
  43	1	1	-0.02562	-6.26193	-8.37471	1.39772
  44	1	1	0.401389	-7.34306	-8.37346	2.50535
  45	1	3	-0.707077	-6.8475	-9.08249	3.63782
  46	1	4	0.414767	-7.04384	-8.46051	4.39411
  47	1	2	-0.013868	-5.71407	-7.42331	1.40607
  48	1	2	-0.001701	-5.51761	-9.1351	1.64267
  49	1	5	-0.06789	-8.21584	-8.93867	2.16157
  50	1	1	-0.02562	-6.19165	-9.77438	-0.84746
  51	1	1	0.401389	-6.86639	-8.65407	-0.00334248
  52	1	3	-0.707077	-6.83539	-7.4427	-0.748699
  53	1	4	0.414767	-5.87886	-7.22795	-0.864674
  54	1	2	-0.013868	-6.83336	-9.95299	-1.72043
  55	1	2	-0.001701	-5.24563	-9.40108	-1.25675
  56	1	5	-0.06789	-7.91583	-8.94524	0.117406
  57	1	1	-0.02562	-7.04824	-11.6046	0.827361
  58	1	1	0.401389	-5.94239	-11.1522	-0.165032
  59	1	3	-0.707077	-4.65788	-11.159	0.450983
  60	1	4	0.414767	-4.72497	-11.9089	1.11243
  61	1	2	-0.013868	-7.99731	-11.6956	0.283364
  62	1	2	-0.001701	-7.20273	-10.8425	1.58558
  63	1	5	-0.06789	-5.9073	-11.9031	-0.962091
  64	1	1	-0.02562	-7.87502	-13.3732	2.52218
  65	1	1	0.401389	-6.75023	-12.9403	1.55217
  66	1	3	-0.707077	-5.52262	-12.8732	2.27588
  67	1	4	0.414767	-5.78559	-12.5992	3.19161
  68	1	2	-0.013868	-7.56111	-14.2959	3.02921
  69	1	2	-0.001701	-8.75699	-13.6437	1.92751
  70	1	5	-0.06789	-6.6467	-13.7168	0.786399
  71	1	1	-0.02562	-9.29214	-12.974	4.57827
  72	1	1	0.401389	-8.29903	-12.3184	3.58408
  73	1	3	-0.707077	-7.15118	-11.7762	4.25344
  74	1	4	0.414767	-7.10539	-10.818	3.95536
  75	1	2	-0.013868	-8.7924	-13.7935	5.11228
  76	1	2	-0.001701	-10.0948	-13.4474	3.99765
  77	1	5	-0.06789	-8.80464	-11.4989	3.06373
  78	1	1	-0.02562	-9.02148	-11.5773	6.7565
  79	1	1	0.401389	-9.9605	-12.0278	5.60429
  80	1	3	-0.707077	-10.588	-10.9337	4.93954
  81	1	4	0.414767	-10.7114	-10.2663	5.65975
  82	1	2	-0.013868	-9.51925	-11.7817	7.71404
  83	1	2	-0.001701	-8.12787	-12.2098	6.76564
  84	1	5	-0.06789	-10.7568	-12.6126	6.07892
  85	1	1	-0.02562	-7.43882	-9.72529	7.63181
  86	1	1	0.401389	-8.63372	-10.0803	6.71277
  87	1	3	-0.707077	-9.78754	-9.30573	7.05743
  88	1	4	0.414767	-9.526	-8.35826	7.04681
  89	1	2	-0.013868	-7.54145	-8.67769	7.9459
  90	1	2	-0.001701	-7.45209	-10.3316	8.54714
  91	1	5	-0.06789	-8.35735	-9.81825	5.68775
  92	1	1	-0.02562	-4.9043	-9.19873	7.61065
  93	1	1	0.401389	-6.0886	-9.88275	6.88891
  94	1	3	-0.707077	-5.76985	-11.2509	6.66046
  95	1	4	0.414767	-6.24264	-11.5274	5.83505
  96	1	2	-0.013868	-4.42437	-9.91507	8.29228
  97	1	2	-0.001701	-5.2619	-8.37118	8.23704
  98	1	5	-0.06789	-6.20371	-9.4009	5.922
  99	1	1	-0.02562	-4.35828	-7.33779	5.92961
 100	1	1	0.401389	-3.8728	-8.6528	6.59163
 101	1	3	-0.707077	-2.63292	-8.4253	7.24958
 102	1	4	0.414767	-2.33179	-9.30252	7.5519
 103	1	2	-0.013868	-4.56129	-6.59608	6.71435
 104	1	2	-0.001701	-5.31062	-7.51444	5.4219
 105	1	5	-0.06789	-3.71094	-9.41068	5.81794
 106	1	1	-0.02562	-3.03195	-7.67164	3.7309
 107	1	1	0.401389	-3.379	-6.72234	4.90355
 108	1	3	-0.707077	-3.96449	-5.51605	4.40272
 109	1	4	0.414767	-4.06939	-4.94374	5.18793
 110	1	2	-0.013868	-3.94869	-8.13098	3.33965
 111	1	2	-0.001701	-2.40942	-8.49041	4.1131
 112	1	5	-0.06789	-2.44922	-6.44991	5.41394
 113	1	1	-0.02562	-1.50057	-7.89424	1.65806
 114	1	1	0.401389	-2.2681	-6.94196	2.5964
 115	1	3	-0.707077	-3.17609	-6.14695	1.82808
 116	1	4	0.414767	-3.63248	-5.63113	2.54693
 117	1	2	-0.013868	-0.769826	-8.46586	2.24632
 118	1	2	-0.001701	-0.905095	-7.29565	0.957836
 119	1	5	-0.06789	-1.53015	-6.27624	3.05814
 120	1	1	-0.02562	-2.30163	-8.79092	-0.639129
 121	1	1	0.401389	-2.4495	-8.84967	0.895458
 122	1	3	-0.707077	-2.24595	-10.1836	1.33089
 123	1	4	0.414767	-3.04457	-10.6605	0.982411
 124	1	2	-0.013868	-1.26865	-9.04832	-0.909796
 125	1	2	-0.001701	-2.93596	-9.56326	-1.09088
 126	1	5	-0.06789	-3.4833	-8.59383	1.13017
 127	1	1	-0.02562	-2.65959	-7.52294	-2.80275
 128	1	1	0.401389	-2.65436	-7.41724	-1.26023
 129	1	3	-0.707077	-3.91018	-6.90962	-0.786508
 130	1	4	0.414767	-3.71201	-6.58818	0.142899
 131	1	2	-0.013868	-3.50402	-8.13751	-3.14371
 132	1	2	-0.001701	-1.74595	-8.04372	-3.11859
 133	1	5	-0.06789	-1.87478	-6.70299	-0.976097
 134	1	1	-0.02562	-2.38123	-6.22254	-4.99273
 135	1	1	0.401389	-2.69274	-6.13884	-3.48032
 136	1	3	-0.707077	-3.95945	-5.51881	-3.2803
 137	1	4	0.414767	-4.21978	-5.7866	-2.36261
 138	1	2	-0.013868	-1.44542	-6.78068	-5.13036
 139	1	2	-0.001701	-3.16516	-6.78077	-5.52194
 140	1	5	-0.06789	-1.92022	-5.51966	-3.01006
 141	1	1	-0.02562	-1.56272	-4.8284	-6.99898
 142	1	1	0.401389	-2.21452	-4.81235	-5.59532
 143	1	3	-0.707077	-3.47085	-4.14546	-5.66023
 144	1	4	0.414767	-3.92611	-4.42346	-4.8191
 145	1	2	-0.013868	-2.21955	-5.34404	-7.71263
 146	1	2	-0.001701	-0.636603	-5.41637	-6.95631
 147	1	5	-0.06789	-1.55852	-4.26076	-4.91516
 148	1	1	-0.02562	-0.337788	-2.61357	-6.54477
 149	1	1	0.401389	-1.21589	-3.41395	-7.52984
 150	1	3	-0.707077	-2.40388	-2.67903	-7.80234
 151	1	4	0.414767	-3.06008	-3.0281	-7.13921
 152	1	2	-0.013868	0.446917	-3.27593	-6.15536
 153	1	2	-0.001701	-0.938788	-2.29641	-5.68196
 154	1	5	-0.06789	-0.656734	-3.53499	-8.46454
 155	1	1	-0.02562	1.21003	-0.693908	-6.09732
 156	1	1	0.401389	0.331299	-1.37136	-7.16996
 157	1	3	-0.707077	-0.648357	-0.454534	-7.65282
 158	1	4	0.414767	-1.4083	-1.02627	-7.94548
 159	1	2	-0.013868	1.91528	-1.43925	-5.7055
 160	1	2	-0.001701	0.578821	-0.392784	-5.24965
 161	1	5	-0.06789	0.965246	-1.69496	-8.00306
 162	1	1	-0.02562	3.00437	0.961101	-5.48043
 163	1	1	0.401389	2.01511	0.526889	-6.59013
 164	1	3	-0.707077	1.14159	1.58865	-6.95488
 165	1	4	0.414767	0.36001	1.12691	-7.3627
 166	1	2	-0.013868	3.86987	0.285349	-5.50687
 167	1	2	-0.001701	2.53355	0.805919	-4.50021
 168	1	5	-0.06789	2.59091	0.235016	-7.47571
 169	1	1	-0.02562	4.61138	2.63804	-4.49128
 170	1	1	0.401389	3.48966	2.42804	-5.53075
 171	1	3	-0.707077	3.93805	2.78842	-6.83282
 172	1	4	0.414767	3.11926	2.71328	-7.37543
 173	1	2	-0.013868	5.48244	2.02282	-4.75543
 174	1	2	-0.001701	4.2558	2.27036	-3.51983
 175	1	5	-0.06789	2.65081	3.07998	-5.26372
 176	1	1	-0.02562	5.77621	4.38453	-3.02209
 177	1	1	0.401389	5.02015	4.12028	-4.34207
 178	1	3	-0.707077	5.82254	4.53038	-5.4486
 179	1	4	0.414767	5.3387	4.16028	-6.23078
 180	1	2	-0.013868	5.94186	5.46291	-2.91136
 181	1	2	-0.001701	5.12061	4.11315	-2.1835
 182	1	5	-0.06789	4.10725	4.72574	-4.32828
 183	1	1	-0.02562	8.35146	4.50539	-2.70662
 184	1	1	0.401389	7.11416	3.60233	-2.92367
 185	1	3	-0.707077	7.02088	2.64398	-1.87315
 186	1	4	0.414767	7.23747	1.78364	-2.27186
 187	1	2	-0.013868	9.17646	3.88374	-2.33275
 188	1	2	-0.001701	8.14358	5.25041	-1.92762
 189	1	5	-0.06789	7.28479	3.03155	-3.84238
 190	1	1	-0.02562	10.2473	5.7761	-3.91458
 191	1	1	0.401389	8.81626	5.19253	-4.01612
 192	1	3	-0.707077	7.90397	6.20913	-4.42865
 193	1	4	0.414767	7.15926	5.72828	-4.88275
 194	1	2	-0.013868	10.9357	4.97104	-3.62532
 195	1	2	-0.001701	10.5589	6.10072	-4.91592
 196	1	5	-0.06789	8.84368	4.42817	-4.80047
 197	1	1	-0.02562	11.861	7.31068	-2.57858
 198	1	1	0.401389	10.3905	6.95637	-2.9202
 199	1	3	-0.707077	9.70384	8.09468	-3.42069
 200	1	4	0.414767	8.85484	7.72179	-3.77097
 201	1	2	-0.013868	12.2562	6.49529	-1.95749
 202	1	2	-0.001701	11.8858	8.20401	-1.94141
 203	1	5	-0.06789	9.91367	6.66589	-1.9779
 204	1	1	-0.02562	12.5786	8.75799	-4.66145
 205	1	1	0.401389	12.8069	7.49136	-3.79616
 206	1	3	-0.707077	14.1576	7.46487	-3.34945
 207	1	4	0.414767	14.3433	8.41681	-3.13612
 208	1	2	-0.013868	13.3001	8.74428	-5.48931
 209	1	2	-0.001701	11.5915	8.70153	-5.13568
 210	1	5	-0.06789	12.6843	6.62259	-4.45125
 211	1	1	-0.02562	12.6458	11.2975	-4.89561
 212	1	1	0.401389	12.6963	10.1062	-3.90523
 213	1	3	-0.707077	13.8985	10.1642	-3.13494
 214	1	4	0.414767	13.7449	10.9304	-2.54052
 215	1	2	-0.013868	11.6683	11.3042	-5.39557
 216	1	2	-0.001701	13.3959	11.147	-5.68356
 217	1	5	-0.06789	11.8527	10.1844	-3.21274
 218	1	1	-0.02562	12.5553	13.8459	-5.19393
 219	1	1	0.401389	12.9036	12.674	-4.23821
 220	1	3	-0.707077	12.1541	12.7864	-3.03483
 221	1	4	0.414767	12.2851	13.7406	-2.78896
 222	1	2	-0.013868	13.0037	13.6528	-6.17822
 223	1	2	-0.001701	11.4705	13.8582	-5.36146
 224	1	5	-0.06789	13.9678	12.7413	-3.98481
 225	1	1	-0.02562	14.3545	15.6965	-5.31546
 226	1	1	0.401389	13.0026	15.2513	-4.69914
 227	1	3	-0.707077	13.043	15.3189	-3.27206
 228	1	4	0.414767	13.8848	15.816	-3.06768
 229	1	2	-0.013868	15.0953	14.8936	-5.20267
 230	1	2	-0.001701	14.2177	15.8329	-6.39632
 231	1	5	-0.06789	12.2518	15.9701	-5.04616
 232	1	1	-0.02562	13.9465	18.2049	-4.75249
 233	1	1	0.401389	14.9322	17.009	-4.72505
 234	1	3	-0.707077	15.3371	16.7602	-3.38193
 235	1	4	0.414767	15.5943	17.6655	-3.05674
 236	1	2	-0.013868	13.489	18.2755	-5.748
 237	1	2	-0.001701	13.1268	18.015	-4.04719
 238	1	5	-0.06789	15.8163	17.2822	-5.31206
 239	1	1	-0.02562	13.5338	20.6721	-4.24537
 240	1	1	0.401389	14.6093	19.5672	-4.41242
 241	1	3	-0.707077	15.4488	19.4521	-3.26096
 242	1	4	0.414767	16.0184	20.2484	-3.26139
 243	1	2	-0.013868	13.1715	20.9304	-5.2497
 244	1	2	-0.001701	12.6625	20.2721	-3.71051
 245	1	5	-0.06789	15.2577	19.8484	-5.24955
 246	1	1	-0.02562	13.8976	21.8686	-1.98397
 247	1	1	0.401389	14.0269	21.9566	-3.52995
 248	1	3	-0.707077	13.3099	23.0789	-4.0266
 249	1	4	0.414767	13.7784	23.8457	-3.63541
 250	1	2	-0.013868	14.6691	21.1966	-1.59029
 251	1	2	-0.001701	12.9325	21.4122	-1.73028
 252	1	5	-0.06789	15.0823	22.1075	-3.78696
 253	1	1	-0.02562	14.2481	23.0781	0.27499
 254	1	1	0.401389	14.0058	23.2276	-1.24731
 255	1	3	-0.707077	15.0593	24.0116	-1.80703
 256	1	4	0.414767	15.096	24.8237	-1.26733
 257	1	2	-0.013868	15.2545	22.6693	0.439432
 258	1	2	-0.001701	14.2339	24.0725	0.740655
 259	1	5	-0.06789	13.0734	23.7811	-1.40034
 260	1	1	-0.02562	13.4634	22.0922	2.51085
 261	1	1	0.401389	13.2215	22.1646	0.984604
 262	1	3	-0.707077	11.8999	22.6234	0.726337
 263	1	4	0.414767	11.299	21.9447	1.08222
 264	1	2	-0.013868	13.3681	21.0572	2.86293
 265	1	2	-0.001701	14.4704	22.4395	2.77583
 266	1	5	-0.06789	13.3229	21.1505	0.583084
 267	1	5	0	-19.3392	-10.0262	5.40983
 268	1	2	0	12.7407	22.7062	3.06407

Velocities

   1	-0.000226638	0.000536223	4.69814e-05
   2	-2.48571e-05	0.000140226	0.000378023
   3	-0.000280214	0.000904358	0.000573612
   4	-0.000511886	0.00127333	0.000591957
   5	-0.000572062	0.000885199	6.18326e-05
   6	0.000114333	0.000577105	-0.000523765
   7	-0.000292502	2.09961e-05	-5.71452e-05
   8	2.11873e-05	0.000145493	6.0472e-05
   9	6.72697e-06	0.000352366	0.000203788
  10	0.000226077	-1.84972e-05	0.000223257
  11	7.23439e-05	0.000114336	0.000132509
  12	-7.06792e-05	4.19466e-05	2.70303e-05
  13	-2.36281e-05	-0.000122326	-3.16884e-06
  14	7.10865e-05	0.000486735	0.000444257
  15	0.00034216	-0.00046022	-0.000274409
  16	0.000298026	3.03922e-05	-0.000174781
  17	0.000253481	0.000159232	-3.43021e-05
  18	0.000240284	0.000249291	4.97261e-05
  19	0.000647504	-0.000231223	-0.000555781
  20	0.000423395	-0.000623826	-0.000359042
  21	0.000380772	0.000282932	-0.000171281
  22	0.000163785	-0.00079429	-7.95214e-05
  23	0.00022699	-0.000655476	-0.000176262
  24	7.67991e-05	-0.000718879	-0.000164161
  25	0.00020678	-0.000486678	-0.000132596
  26	0.000276287	-0.000854178	-4.82868e-05
  27	0.000205247	-0.000693348	-8.76058e-05
  28	4.72479e-05	-0.00066508	-0.000133659
  29	-7.54188e-05	-0.000750986	-0.000338345
  30	0.000186212	-0.000776492	-0.000242489
  31	0.000194126	-0.000854874	-0.000217913
  32	0.000264804	-0.000713294	-0.000190514
  33	-0.000188742	-0.000818497	-0.000269845
  34	-0.000163977	-0.000534046	-0.000407919
  35	0.00011053	-0.0008653	-0.000182954
  36	0.000475338	-4.11857e-05	-0.000195011
  37	0.000158214	-0.00043726	-0.000441407
  38	-0.000118821	-0.000555791	-0.000215354
  39	-0.000308953	-0.00109929	-0.000238856
  40	0.000459554	-0.000134287	0.000174232
  41	0.000717293	0.000199891	-0.000288755
  42	0.000306637	-0.000532265	-0.00084878
  43	0.000701735	8.31898e-05	-0.000315004
  44	0.000507572	1.36987e-05	-0.000418007
  45	0.000286087	-0.000223944	-0.000418329
  46	0.000218291	-0.000278742	-0.000374212
  47	0.000587328	0.000112283	-0.000139671
  48	0.000683818	0.000101536	-0.000111562
  49	0.000537003	0.000128461	-0.000651076
  50	0.000762785	-0.00035499	-2.20173e-05
  51	0.000947715	-1.52726e-05	-0.000380548
  52	0.00150436	-0.000170614	-0.000587042
  53	0.00163678	-0.000460379	-0.000384571
  54	0.000997718	-0.000263263	-0.000169411
  55	0.000990128	-0.000714787	0.000155083
  56	0.000822429	0.000363119	-0.000567351
  57	-0.000181953	-7.08128e-05	-0.00015008
  58	0.000225305	-0.000335765	0.00013978
  59	-4.23594e-06	-0.000572991	0.000568653
  60	-0.000285366	-0.000618945	0.000542036
  61	1.44047e-05	3.15467e-05	-0.000494449
  62	-0.000325628	2.92893e-05	-0.000278501
  63	0.000324842	-0.000423864	0.000256679
  64	-0.000936819	0.000124095	-0.000294288
  65	-0.000584256	-9.50186e-05	1.02944e-05
  66	-0.000823192	-0.000273542	0.000387385
  67	-0.00111052	8.05696e-05	0.000223599
  68	-0.00137302	-0.000130758	-0.000515002
  69	-0.000956001	0.000632991	-0.000495231
  70	-0.00048589	-0.000137501	6.49585e-05
  71	-0.000320077	-0.000138928	0.000152894
  72	-0.000654031	1.7288e-06	-7.73266e-05
  73	-0.000558341	3.55277e-05	-0.000244893
  74	-0.000490144	3.45546e-06	-0.000373902
  75	-5.83718e-05	-4.47067e-05	6.23534e-05
  76	-0.000411192	-0.000292459	0.000398889
  77	-0.000818772	2.03418e-05	9.28259e-05
  78	0.000181633	-0.000178599	7.30735e-05
  79	-0.00011316	-0.000148463	0.000286953
  80	-0.000185372	-0.000139338	0.000357451
  81	-0.000101832	-0.000153747	0.000382633
  82	0.000555761	-0.000493516	0.000199506
  83	0.000338933	3.69822e-05	-0.000353881
  84	-4.21633e-05	-0.000110529	0.000452018
  85	-0.000107307	5.10659e-05	0.000137328
  86	-0.000148755	-9.01505e-05	0.000235678
  87	-0.000268744	-0.000381687	0.000484113
  88	-0.000488855	-0.000315158	0.000568525
  89	-0.000344552	-3.30893e-05	0.000338356
  90	0.000174413	-0.00010607	3.31168e-05
  91	-0.000329072	8.95047e-05	0.000234371
  92	-0.000267882	0.000777009	-0.000119398
  93	-0.000165529	0.000543838	-8.09799e-05
  94	0.000154129	0.000659365	-0.000342553
  95	-5.39099e-05	0.000576711	-0.000181692
  96	-0.000299551	0.000947663	9.11909e-05
  97	-0.000398811	0.000879652	-0.000327815
  98	-0.000468517	0.000666288	1.37851e-05
  99	-0.000329714	0.000266796	-0.00075971
 100	-0.000147429	0.000675461	-7.86579e-05
 101	-0.000391127	0.00135831	0.000155362
 102	9.91308e-05	0.0015339	0.000154179
 103	-0.000976541	0.000467176	-0.00111815
 104	-1.18196e-05	-0.00024323	-0.00116779
 105	0.000317859	0.000421547	0.000274491
 106	0.000649784	6.17126e-05	-0.000145279
 107	-0.000105823	0.000288757	-0.000533531
 108	-0.000322622	-2.40084e-05	-0.00102865
 109	-0.00113094	2.10378e-06	-0.00115676
 110	0.000956118	-0.000528883	-0.000181715
 111	0.000951206	0.000499126	0.000291545
 112	-0.000392595	0.000741033	-0.000255413
 113	0.000231515	-0.000197432	-0.00041627
 114	0.000578013	-5.21864e-05	-0.000290926
 115	0.000600157	3.60149e-05	-0.00023202
 116	0.000530172	-8.85523e-05	-0.000160702
 117	0.000269221	-0.000345166	-0.000617922
 118	0.000166735	-0.000308154	-0.000569951
 119	0.000755736	-0.00015389	-0.000416352
 120	-0.000232825	-0.000227852	-0.000196208
 121	-0.000143348	-5.85054e-06	-0.000185197
 122	-0.000672884	3.62917e-05	0.000137228
 123	-0.000968379	0.000252072	0.000422479
 124	-0.00025125	-0.000221993	-0.000236566
 125	-0.000217161	-0.000286499	-0.000104531
 126	-1.66559e-05	0.000489214	-0.000244482
 127	-0.000401284	8.64207e-05	-0.000134012
 128	-0.000321563	-0.000204974	-0.000120029
 129	-0.000268437	-0.000236616	2.41855e-05
 130	-0.000135268	-0.000139778	-5.87801e-05
 131	-0.000577428	0.000352258	-0.000242774
 132	-0.000547806	-1.62317e-06	-0.000287743
 133	-0.000336723	-0.000217078	-8.30302e-05
 134	-0.000563112	0.000517522	0.000200727
 135	-0.000331017	0.000273721	0.0003199
 136	0.000141196	0.000619112	0.000347829
 137	-1.08797e-05	0.000398294	0.000989648
 138	-0.000777639	0.000213194	-0.000125583
 139	-0.000876378	0.000935179	0.000246442
 140	0.000134661	-7.03894e-05	0.000242728
 141	-1.68834e-05	0.000435221	0.000564475
 142	-0.000177354	0.000553617	0.000480609
 143	7.54407e-05	0.000896839	0.000281651
 144	-8.70082e-05	0.00105781	0.000413632
 145	-3.18216e-05	0.000591354	0.000472258
 146	-0.000132134	0.000257668	0.000689389
 147	-0.000125081	0.000334645	0.000609717
 148	0.00094048	-0.000211033	0.000508842
 149	0.000342673	0.000336637	0.000628114
 150	0.000526301	0.000799317	0.00105669
 151	0.000501906	0.000735179	0.00102113
 152	0.00118374	-0.000408749	-0.000310499
 153	0.00151238	-0.000581533	0.00104313
 154	7.6243e-05	0.000261839	0.00047772
 155	0.00110947	-0.000448488	0.000427069
 156	0.000513333	6.59148e-05	0.000661327
 157	0.000182362	0.000257223	0.00170738
 158	3.79112e-05	0.000308413	0.00188767
 159	0.0016539	-0.00047916	-0.000613705
 160	0.00167237	-0.00118803	0.00112131
 161	3.56382e-05	0.000478798	0.00012382
 162	0.000603474	-5.46937e-05	0.000238275
 163	0.000296689	0.000111111	0.000558459
 164	-0.000301749	-6.41829e-05	0.00152797
 165	-0.000478905	-0.00021095	0.00196098
 166	0.000887732	0.000348704	-0.000435088
 167	0.00112481	-0.000655766	0.000428709
 168	-2.90411e-05	0.000764529	0.000120497
 169	-0.000712668	0.000570574	0.000958469
 170	5.3059e-05	0.000304537	0.000299012
 171	-1.73345e-05	0.000383208	0.00074326
 172	0.000656201	0.000503523	0.000537034
 173	-0.000721616	0.000187589	0.00177946
 174	-0.00128807	0.00132156	0.00100756
 175	-0.000509577	-0.000200931	0.000263205
 176	-0.000288744	0.00101799	-9.85329e-05
 177	-0.000441807	0.000577527	0.000130363
 178	-0.000375641	-0.000184325	-0.000105144
 179	-0.000334171	-0.000997919	0.000165981
 180	9.77197e-05	0.00101163	-0.000609893
 181	-0.000273104	0.00159321	0.000108329
 182	-0.000332518	0.000771364	-0.000150749
 183	-0.000256331	5.93774e-05	-0.000245549
 184	-0.000612937	0.000503629	-7.41799e-05
 185	-0.00113849	0.000388111	-0.000228579
 186	0.00728216	0.00161031	0.00155659
 187	-0.000545596	-0.000151087	3.66589e-05
 188	-3.90404e-05	0.000404112	-0.000515233
 189	-0.000823303	0.000493452	-0.000100365
 190	0.000146273	-0.000680189	-0.000510961
 191	7.88382e-05	-0.000556552	-0.000490141
 192	0.000270919	-0.000629429	-0.00112855
 193	6.29415e-05	-0.000724532	-0.000730345
 194	-0.000108766	-0.000485559	0.000653453
 195	0.000731796	-0.00175665	-0.00069039
 196	0.000105986	-0.000940736	-0.000117179
 197	-0.000383684	7.21096e-05	-0.000773616
 198	-0.000219519	0.000321761	-0.00164344
 199	0.00061521	7.56272e-05	-0.00335665
 200	0.000528407	7.02021e-05	-0.00315058
 201	-0.000952207	0.000126323	-0.000350093
 202	-0.000670027	0.000172251	-0.000889484
 203	-0.00111309	0.00147602	-0.00174661
 204	0.000997121	-0.000624561	-0.000876559
 205	0.000510668	-0.000241405	-0.000130698
 206	0.000144782	0.0004117	0.00107387
 207	-0.000409069	0.000518402	0.00104148
 208	0.00229008	-0.000356757	0.000232848
 209	0.0017703	-0.00142507	-0.00239862
 210	0.00124289	-0.000613591	0.00018179
 211	-0.00205879	-0.000215561	-0.000539072
 212	-0.000933652	-0.000499759	-0.000873761
 213	-0.00139559	0.000712483	-0.000303305
 214	-0.00232878	0.00136947	-0.00127101
 215	-0.00307541	0.000501719	0.00142339
 216	-0.00378623	-0.000456659	-0.00211039
 217	-0.00128167	-0.00140206	-0.00120907
 218	-0.00147075	0.000240907	0.000922586
 219	0.000182197	-0.000591373	-0.00059661
 220	0.0032907	-0.000921576	0.00144399
 221	0.00315198	-0.000742095	0.000961777
 222	-0.00352564	0.000776744	-0.000167006
 223	-0.00183725	0.000616927	0.00318873
 224	0.000847842	-0.0011481	-0.00326855
 225	0.0002745	-0.000983281	0.00108874
 226	-0.000145043	-0.000180576	0.000884412
 227	3.80711e-05	-0.000323232	0.000887164
 228	-0.000150325	1.64683e-05	0.000763366
 229	-8.62511e-06	-0.00109323	0.00222947
 230	0.000852691	-0.00196195	0.000889289
 231	0.000431485	0.0004256	0.000954011
 232	0.000263644	-0.000359482	-0.000596691
 233	8.08371e-05	-0.000676704	0.000408835
 234	-0.000421741	9.02113e-05	0.000670891
 235	-0.00113697	0.00040652	0.000497956
 236	0.00144378	-0.000272567	-0.00110675
 237	-0.000569565	-0.000304738	-0.00153331
 238	0.000346153	-0.00101629	0.000577874
 239	-8.49175e-05	-0.000356189	2.47317e-05
 240	5.38762e-05	-0.000391819	0.00033015
 241	-0.000626398	-0.000563583	0.000705456
 242	0.000111281	-0.00110321	0.000621679
 243	0.000110645	-0.000421661	0.000103186
 244	-6.93427e-05	-0.000338111	5.39122e-05
 245	0.000517237	-0.000132466	0.000760737
 246	-0.000273606	0.000160507	-4.06279e-05
 247	-7.22664e-05	-0.000184452	0.000150869
 248	-3.1818e-06	-0.000222004	-5.37595e-05
 249	-0.000326933	-0.000296358	0.000607969
 250	-0.000531847	-9.79067e-07	0.000246843
 251	-0.000431496	0.000581136	3.61278e-05
 252	-0.000106171	-0.000256399	0.000141173
 253	6.08344e-05	0.000474849	-0.000110977
 254	0.000159398	0.00038987	-0.000157795
 255	0.000103179	0.000109816	-0.000496553
 256	-0.00115202	0.00134402	-0.00213747
 257	0.000304982	0.00106486	8.99236e-05
 258	-0.00054832	0.000451142	-9.0141e-05
 259	0.000150895	0.000529157	-0.000140901
 260	-0.000249593	7.96292e-05	-0.000276153
 261	0.000430368	1.48902e-05	-0.000311688
 262	0.000276758	-0.000640636	-0.000428511
 263	0.000501927	0.000710722	0.00256025
 264	-0.00622364	0.000917639	0.000824579
 265	0.00182091	-0.00517714	-0.000546644
 266	0.00094629	1.2576e-05	-0.000197112
 267	-5.20011e-05	-0.000127367	0.000691217
 268	0.00301823	0.00501119	-0.00121871

Bonds

   1	3	1	2
   2	2	1	5
   3	2	1	6
   4	4	2	3
   5	5	2	7
   6	1	3	4
   7	3	8	9
   8	2	8	12
   9	2	8	13
  10	4	9	10
  11	5	9	14
  12	1	10	11
  13	3	1	9
  14	3	15	16
  15	2	15	19
  16	2	15	20
  17	4	16	17
  18	5	16	21
  19	1	17	18
  20	3	8	16
  21	3	22	23
  22	2	22	26
  23	2	22	27
  24	4	23	24
  25	5	23	28
  26	1	24	25
  27	3	15	23
  28	3	29	30
  29	2	29	33
  30	2	29	34
  31	4	30	31
  32	5	30	35
  33	1	31	32
  34	3	22	30
  35	3	36	37
  36	2	36	40
  37	2	36	41
  38	4	37	38
  39	5	37	42
  40	1	38	39
  41	3	29	37
  42	3	43	44
  43	2	43	47
  44	2	43	48
  45	4	44	45
  46	5	44	49
  47	1	45	46
  48	3	36	44
  49	3	50	51
  50	2	50	54
  51	2	50	55
  52	4	51	52
  53	5	51	56
  54	1	52	53
  55	3	43	51
  56	3	57	58
  57	2	57	61
  58	2	57	62
  59	4	58	59
  60	5	58	63
  61	1	59	60
  62	3	50	58
  63	3	64	65
  64	2	64	68
  65	2	64	69
  66	4	65	66
  67	5	65	70
  68	1	66	67
  69	3	57	65
  70	3	71	72
  71	2	71	75
  72	2	71	76
  73	4	72	73
  74	5	72	77
  75	1	73	74
  76	3	64	72
  77	3	78	79
  78	2	78	82
  79	2	78	83
  80	4	79	80
  81	5	79	84
  82	1	80	81
  83	3	71	79
  84	3	85	86
  85	2	85	89
  86	2	85	90
  87	4	86	87
  88	5	86	91
  89	1	87	88
  90	3	78	86
  91	3	92	93
  92	2	92	96
  93	2	92	97
  94	4	93	94
  95	5	93	98
  96	1	94	95
  97	3	85	93
  98	3	99	100
  99	2	99	103
 100	2	99	104
 101	4	100	101
 102	5	100	105
 103	1	101	102
 104	3	92	100
 105	3	106	107
 106	2	106	110
 107	2	106	111
 108	4	107	108
 109	5	107	112
 110	1	108	109
 111	3	99	107
 112	3	113	114
 113	2	113	117
 114	2	113	118
 115	4	114	115
 116	5	114	119
 117	1	115	116
 118	3	106	114
 119	3	120	121
 120	2	120	124
 121	2	120	125
 122	4	121	122
 123	5	121	126
 124	1	122	123
 125	3	113	121
 126	3	127	128
 127	2	127	131
 128	2	127	132
 129	4	128	129
 130	5	128	133
 131	1	129	130
 132	3	120	128
 133	3	134	135
 134	2	134	138
 135	2	134	139
 136	4	135	136
 137	5	135	140
 138	1	136	137
 139	3	127	135
 140	3	141	142
 141	2	141	145
 142	2	141	146
 143	4	142	143
 144	5	142	147
 145	1	143	144
 146	3	134	142
 147	3	148	149
 148	2	148	152
 149	2	148	153
 150	4	149	150
 151	5	149	154
 152	1	150	151
 153	3	141	149
 154	3	155	156
 155	2	155	159
 156	2	155	160
 157	4	156	157
 158	5	156	161
 159	1	157	158
 160	3	148	156
 161	3	162	163
 162	2	162	166
 163	2	162	167
 164	4	163	164
 165	5	163	168
 166	1	164	165
 167	3	155	163
 168	3	169	170
 169	2	169	173
 170	2	169	174
 171	4	170	171
 172	5	170	175
 173	1	171	172
 174	3	162	170
 175	3	176	177
 176	2	176	180
 177	2	176	181
 178	4	177	178
 179	5	177	182
 180	1	178	179
 181	3	169	177
 182	3	183	184
 183	2	183	187
 184	2	183	188
 185	4	184	185
 186	5	184	189
 187	1	185	186
 188	3	176	184
 189	3	190	191
 190	2	190	194
 191	2	190	195
 192	4	191	192
 193	5	191	196
 194	1	192	193
 195	3	183	191
 196	3	197	198
 197	2	197	201
 198	2	197	202
 199	4	198	199
 200	5	198	203
 201	1	199	200
 202	3	190	198
 203	3	204	205
 204	2	204	208
 205	2	204	209
 206	4	205	206
 207	5	205	210
 208	1	206	207
 209	3	197	205
 210	3	211	212
 211	2	211	215
 212	2	211	216
 213	4	212	213
 214	5	212	217
 215	1	213	214
 216	3	204	212
 217	3	218	219
 218	2	218	222
 219	2	218	223
 220	4	219	220
 221	5	219	224
 222	1	220	221
 223	3	211	219
 224	3	225	226
 225	2	225	229
 226	2	225	230
 227	4	226	227
 228	5	226	231
 229	1	227	228
 230	3	218	226
 231	3	232	233
 232	2	232	236
 233	2	232	237
 234	4	233	234
 235	5	233	238
 236	1	234	235
 237	3	225	233
 238	3	239	240
 239	2	239	243
 240	2	239	244
 241	4	240	241
 242	5	240	245
 243	1	241	242
 244	3	232	240
 245	3	246	247
 246	2	246	250
 247	2	246	251
 248	4	247	248
 249	5	247	252
 250	1	248	249
 251	3	239	247
 252	3	253	254
 253	2	253	257
 254	2	253	258
 255	4	254	255
 256	5	254	259
 257	1	255	256
 258	3	246	254
 259	3	260	261
 260	2	260	264
 261	2	260	265
 262	4	261	262
 263	5	261	266
 264	1	262	263
 265	3	253	261
 266	5	2	267
 267	2	260	268

Angles

   1	2	2	1	5
   2	2	2	1	6
   3	5	5	1	6
   4	1	1	2	3
   5	4	1	2	7
   6	3	3	2	7
   7	7	2	3	4
   8	2	9	8	12
   9	2	9	8	13
  10	5	12	8	13
  11	1	8	9	10
  12	4	8	9	14
  13	3	10	9	14
  14	7	9	10	11
  15	8	2	1	9
  16	2	5	1	9
  17	2	6	1	9
  18	8	1	9	8
  19	1	1	9	10
  20	4	1	9	14
  21	2	16	15	19
  22	2	16	15	20
  23	5	19	15	20
  24	1	15	16	17
  25	4	15	16	21
  26	3	17	16	21
  27	7	16	17	18
  28	8	9	8	16
  29	2	12	8	16
  30	2	13	8	16
  31	8	8	16	15
  32	1	8	16	17
  33	4	8	16	21
  34	2	23	22	26
  35	2	23	22	27
  36	5	26	22	27
  37	1	22	23	24
  38	4	22	23	28
  39	3	24	23	28
  40	7	23	24	25
  41	8	16	15	23
  42	2	19	15	23
  43	2	20	15	23
  44	8	15	23	22
  45	1	15	23	24
  46	4	15	23	28
  47	2	30	29	33
  48	2	30	29	34
  49	5	33	29	34
  50	1	29	30	31
  51	4	29	30	35
  52	3	31	30	35
  53	7	30	31	32
  54	8	23	22	30
  55	2	26	22	30
  56	2	27	22	30
  57	8	22	30	29
  58	1	22	30	31
  59	4	22	30	35
  60	2	37	36	40
  61	2	37	36	41
  62	5	40	36	41
  63	1	36	37	38
  64	4	36	37	42
  65	3	38	37	42
  66	7	37	38	39
  67	8	30	29	37
  68	2	33	29	37
  69	2	34	29	37
  70	8	29	37	36
  71	1	29	37	38
  72	4	29	37	42
  73	2	44	43	47
  74	2	44	43	48
  75	5	47	43	48
  76	1	43	44	45
  77	4	43	44	49
  78	3	45	44	49
  79	7	44	45	46
  80	8	37	36	44
  81	2	40	36	44
  82	2	41	36	44
  83	8	36	44	43
  84	1	36	44	45
  85	4	36	44	49
  86	2	51	50	54
  87	2	51	50	55
  88	5	54	50	55
  89	1	50	51	52
  90	4	50	51	56
  91	3	52	51	56
  92	7	51	52	53
  93	8	44	43	51
  94	2	47	43	51
  95	2	48	43	51
  96	8	43	51	50
  97	1	43	51	52
  98	4	43	51	56
  99	2	58	57	61
 100	2	58	57	62
 101	5	61	57	62
 102	1	57	58	59
 103	4	57	58	63
 104	3	59	58	63
 105	7	58	59	60
 106	8	51	50	58
 107	2	54	50	58
 108	2	55	50	58
 109	8	50	58	57
 110	1	50	58	59
 111	4	50	58	63
 112	2	65	64	68
 113	2	65	64	69
 114	5	68	64	69
 115	1	64	65	66
 116	4	64	65	70
 117	3	66	65	70
 118	7	65	66	67
 119	8	58	57	65
 120	2	61	57	65
 121	2	62	57	65
 122	8	57	65	64
 123	1	57	65	66
 124	4	57	65	70
 125	2	72	71	75
 126	2	72	71	76
 127	5	75	71	76
 128	1	71	72	73