pySIMM System Object

212 atoms
211 bonds
390 angles
621 dihedrals
0 impropers

5 atom types
5 bond types
8 angle types
6 dihedral types

-80.953516 80.953516 xlo xhi
-80.953516 80.953516 ylo yhi
-80.953516 80.953516 zlo zhi

Masses

   1	12.01	# c3
   2	1.008	# hc
   3	16.0	# oh
   4	1.008	# ho
   5	1.008	# h1

Pair Coeffs

   1	0.1094	3.3996695084235347	# c3
   2	0.0157	2.649532787749369	# hc
   3	0.2104	3.0664733878390478	# oh
   4	0.0047	0.5379246460131368	# ho
   5	0.0157	2.471353044121301	# h1

Bond Coeffs

   1	371.4	0.973	# ho,oh
   2	330.6	1.0969	# c3,hc
   3	300.9	1.5375	# c3,c3
   4	316.7	1.4233	# c3,oh
   5	330.6	1.0969	# c3,h1

Angle Coeffs

   1	67.47	110.19	# c3,c3,oh
   2	46.34	109.8	# c3,c3,hc
   3	50.93	110.26	# h1,c3,oh
   4	46.39	109.56	# c3,c3,h1
   5	39.4	107.58	# hc,c3,hc
   6	39.24	108.46	# h1,c3,h1
   7	47.38	107.26	# c3,oh,ho
   8	62.86	111.51	# c3,c3,c3

Dihedral Coeffs

   1	2	0.0	3	0	0.25	1	0	# hc,c3,c3,oh
   2	1	0.16666666666666666	3	0	# X,c3,oh,X
   3	1	0.15555555555555556	3	0	# X,c3,c3,X
   4	2	0.16	3	0	0.25	1	0	# ho,oh,c3,c3
   5	1	0.16	3	0	# hc,c3,c3,c3
   6	3	0.18	3	0	0.25	2	180	0.2	1	180	# c3,c3,c3,c3

Atoms

   1	1	1	-0.02562	10.1955	8.22226	1.21395
   2	1	1	0.401389	11.6842	8.62574	1.19925
   3	1	3	-0.707077	11.8616	9.97871	1.61519
   4	1	4	0.414767	12.8182	10.1619	1.53638
   5	1	2	-0.013868	10.1217	7.16035	0.945664
   6	1	2	-0.001701	9.65385	8.77899	0.43738
   7	1	5	-0.06789	12.2459	7.96857	1.87173
   8	1	1	-0.02562	8.18295	7.70788	2.71368
   9	1	1	0.401389	9.53172	8.45885	2.58946
  10	1	3	-0.707077	9.35328	9.85948	2.79258
  11	1	4	0.414767	10.2247	10.2428	2.50521
  12	1	2	-0.013868	8.38866	6.62973	2.74331
  13	1	2	-0.001701	7.57235	7.88637	1.81844
  14	1	5	-0.06789	10.2022	8.076	3.36756
  15	1	1	-0.02562	6.30789	7.08917	4.39576
  16	1	1	0.401389	7.39176	8.11461	3.98002
  17	1	3	-0.707077	6.79549	9.39006	3.76724
  18	1	4	0.414767	7.57479	9.94986	3.50402
  19	1	2	-0.013868	5.85732	7.40883	5.3454
  20	1	2	-0.001701	6.79952	6.12995	4.6034
  21	1	5	-0.06789	8.10018	8.19265	4.81258
  22	1	1	-0.02562	4.25733	5.70828	3.74728
  23	1	1	0.401389	5.19161	6.87434	3.34451
  24	1	3	-0.707077	4.43437	8.07113	3.18389
  25	1	4	0.414767	5.10665	8.79719	3.31485
  26	1	2	-0.013868	3.82281	5.89924	4.73824
  27	1	2	-0.001701	4.8631	4.79785	3.84447
  28	1	5	-0.06789	5.65746	6.61783	2.38711
  29	1	1	-0.02562	2.39454	4.12153	3.0155
  30	1	1	0.401389	3.12801	5.45166	2.7206
  31	1	3	-0.707077	2.19655	6.53209	2.74233
  32	1	4	0.414767	2.78595	7.33583	2.82218
  33	1	2	-0.013868	3.13031	3.30703	2.97869
  34	1	2	-0.001701	2.00018	4.13509	4.03978
  35	1	5	-0.06789	3.5739	5.38604	1.72191
  36	1	1	-0.02562	0.691675	2.38399	2.27084
  37	1	1	0.401389	1.25322	3.80487	2.01767
  38	1	3	-0.707077	0.222302	4.79602	2.12129
  39	1	4	0.414767	0.76698	5.61626	2.32428
  40	1	2	-0.013868	0.295252	2.31287	3.28962
  41	1	2	-0.001701	1.52469	1.67102	2.21102
  42	1	5	-0.06789	1.6671	3.83886	1.00415
  43	1	1	-0.02562	-0.787206	0.469587	1.43047
  44	1	1	0.401389	-0.392158	1.95712	1.25702
  45	1	3	-0.707077	-1.54653	2.78491	1.43122
  46	1	4	0.414767	-1.12998	3.67685	1.55903
  47	1	2	-0.013868	0.00520774	-0.0823919	1.95042
  48	1	2	-0.001701	-1.65529	0.421808	2.0931
  49	1	5	-0.06789	0.0155665	2.11558	0.252629
  50	1	1	-0.02562	-2.06123	-1.39269	0.0687956
  51	1	1	0.401389	-1.0599	-0.205068	0.0606497
  52	1	3	-0.707077	0.181771	-0.674158	-0.458106
  53	1	4	0.414767	0.438331	-1.43873	0.110623
  54	1	2	-0.013868	-2.16509	-1.75143	-0.964026
  55	1	2	-0.001701	-1.64388	-2.23403	0.635153
  56	1	5	-0.06789	-1.45136	0.550664	-0.629513
  57	1	1	-0.02562	-4.02576	0.305437	0.17129
  58	1	1	0.401389	-3.48188	-1.08135	0.60425
  59	1	3	-0.707077	-3.4959	-1.22755	2.02238
  60	1	4	0.414767	-4.35633	-0.784233	2.28028
  61	1	2	-0.013868	-4.03539	0.356423	-0.925611
  62	1	2	-0.001701	-3.34712	1.09046	0.508501
  63	1	5	-0.06789	-4.16031	-1.83936	0.197047
  64	1	1	-0.02562	-5.96325	2.00939	0.285459
  65	1	1	0.401389	-5.44755	0.612079	0.697664
  66	1	3	-0.707077	-5.5049	0.511349	2.11892
  67	1	4	0.414767	-5.24426	1.41678	2.43085
  68	1	2	-0.013868	-6.95408	2.15899	0.735701
  69	1	2	-0.001701	-6.12646	2.01357	-0.800402
  70	1	5	-0.06789	-6.12641	-0.138308	0.277296
  71	1	1	-0.02562	-5.85121	4.52314	0.556885
  72	1	1	0.401389	-5.03799	3.20782	0.644404
  73	1	3	-0.707077	-4.43667	3.04905	1.93896
  74	1	4	0.414767	-3.46973	2.91037	1.73008
  75	1	2	-0.013868	-6.55583	4.58001	1.39784
  76	1	2	-0.001701	-6.47629	4.47967	-0.345074
  77	1	5	-0.06789	-4.23047	3.22547	-0.0933481
  78	1	1	-0.02562	-4.43377	6.32697	1.81645
  79	1	1	0.401389	-5.02857	5.83068	0.471401
  80	1	3	-0.707077	-4.05532	5.73642	-0.561626
  81	1	4	0.414767	-3.24958	6.18495	-0.192468
  82	1	2	-0.013868	-4.50481	7.42261	1.83902
  83	1	2	-0.001701	-5.07423	5.97882	2.63724
  84	1	5	-0.06789	-5.74523	6.60371	0.170468
  85	1	1	-0.02562	-2.51995	6.35591	3.51908
  86	1	1	0.401389	-2.96512	5.92807	2.1042
  87	1	3	-0.707077	-2.07677	6.48061	1.13452
  88	1	4	0.414767	-1.19793	6.0842	1.33603
  89	1	2	-0.013868	-1.51656	6.80078	3.47076
  90	1	2	-0.001701	-3.1816	7.13628	3.91932
  91	1	5	-0.06789	-2.86451	4.84743	2.03191
  92	1	1	-0.02562	-1.9087	5.57608	5.85651
  93	1	1	0.401389	-2.47575	5.15319	4.4827
  94	1	3	-0.707077	-3.77423	4.58806	4.65367
  95	1	4	0.414767	-3.98265	4.05104	3.85658
  96	1	2	-0.013868	-2.65655	6.1803	6.38863
  97	1	2	-0.001701	-1.02946	6.22008	5.71836
  98	1	5	-0.06789	-1.82392	4.39186	4.04396
  99	1	1	-0.02562	-0.146799	3.77116	6.27058
 100	1	1	0.401389	-1.50657	4.35627	6.70972
 101	1	3	-0.707077	-1.41797	4.7471	8.07466
 102	1	4	0.414767	-2.30515	5.07407	8.31194
 103	1	2	-0.013868	0.649706	4.48594	6.52083
 104	1	2	-0.001701	-0.116897	3.65387	5.18178
 105	1	5	-0.06789	-2.283	3.59025	6.6242
 106	1	1	-0.02562	-0.650221	1.25968	6.26067
 107	1	1	0.401389	0.143625	2.40834	6.93228
 108	1	3	-0.707077	1.55196	2.16632	6.87195
 109	1	4	0.414767	1.94498	2.87112	7.42581
 110	1	2	-0.013868	-0.483533	1.28824	5.17777
 111	1	2	-0.001701	-1.72384	1.42067	6.41645
 112	1	5	-0.06789	-0.13139	2.44836	7.99085
 113	1	1	-0.02562	-1.25341	-1.25921	6.44101
 114	1	1	0.401389	-0.263662	-0.128689	6.81755
 115	1	3	-0.707077	1.05976	-0.445587	6.39914
 116	1	4	0.414767	1.55379	0.391618	6.62612
 117	1	2	-0.013868	-2.20315	-1.03682	6.94676
 118	1	2	-0.001701	-0.908266	-2.20349	6.8815
 119	1	5	-0.06789	-0.259293	-0.0558005	7.91078
 120	1	1	-0.02562	-0.89464	-2.7275	4.31274
 121	1	1	0.401389	-1.50995	-1.44107	4.91744
 122	1	3	-0.707077	-2.9123	-1.46365	4.69079
 123	1	4	0.414767	-3.03564	-1.46808	3.7037
 124	1	2	-0.013868	-1.30083	-3.60453	4.83509
 125	1	2	-0.001701	-1.21714	-2.81627	3.26751
 126	1	5	-0.06789	-1.11856	-0.583074	4.36509
 127	1	1	-0.02562	1.23519	-3.94794	3.54319
 128	1	1	0.401389	0.650447	-2.7819	4.37883
 129	1	3	-0.707077	1.21339	-1.5382	3.96648
 130	1	4	0.414767	1.28865	-1.03985	4.83264
 131	1	2	-0.013868	0.494466	-4.75473	3.46196
 132	1	2	-0.001701	2.08075	-4.37653	4.097
 133	1	5	-0.06789	0.930797	-2.95505	5.423
 134	1	1	-0.02562	2.07558	-4.7808	1.28603
 135	1	1	0.401389	1.74284	-3.54405	2.13576
 136	1	3	-0.707077	0.82133	-2.68063	1.47129
 137	1	4	0.414767	0.775609	-1.95086	2.14669
 138	1	2	-0.013868	2.85775	-5.34857	1.80769
 139	1	2	-0.001701	1.20422	-5.44585	1.21273
 140	1	5	-0.06789	2.67334	-2.98048	2.2668
 141	1	1	-0.02562	3.57593	-5.4197	-0.655235
 142	1	1	0.401389	2.5683	-4.3844	-0.119848
 143	1	3	-0.707077	1.45364	-4.24808	-0.995391
 144	1	4	0.414767	0.829022	-3.67475	-0.502236
 145	1	2	-0.013868	3.13658	-6.42405	-0.588942
 146	1	2	-0.001701	4.45894	-5.42016	-0.00201779
 147	1	5	-0.06789	3.07795	-3.41644	-0.0552202
 148	1	1	-0.02562	5.10779	-6.17516	-2.54614
 149	1	1	0.401389	4.02595	-5.15379	-2.10604
 150	1	3	-0.707077	4.51811	-3.826	-2.24595
 151	1	4	0.414767	3.71677	-3.26552	-2.23256
 152	1	2	-0.013868	5.25257	-6.94486	-1.77555
 153	1	2	-0.001701	6.07694	-5.6704	-2.66109
 154	1	5	-0.06789	3.15423	-5.2478	-2.76174
 155	1	1	-0.02562	3.44244	-7.72677	-3.74812
 156	1	1	0.401389	4.72047	-6.85818	-3.87233
 157	1	3	-0.707077	5.79463	-7.67475	-4.3342
 158	1	4	0.414767	6.54547	-7.07001	-4.47544
 159	1	2	-0.013868	2.92637	-7.52669	-2.802
 160	1	2	-0.001701	3.70434	-8.79356	-3.72031
 161	1	5	-0.06789	4.56222	-6.06744	-4.61351
 162	1	1	-0.02562	1.12077	-8.17915	-4.75948
 163	1	1	0.401389	2.47868	-7.45713	-4.91947
 164	1	3	-0.707077	3.09436	-7.86442	-6.13903
 165	1	4	0.414767	3.90839	-8.34135	-5.88284
 166	1	2	-0.013868	1.21036	-9.02983	-4.06934
 167	1	2	-0.001701	0.828314	-8.60093	-5.72984
 168	1	5	-0.06789	2.29851	-6.37671	-4.9755
 169	1	1	-0.02562	-1.3919	-7.866	-4.43489
 170	1	1	0.401389	0.00700114	-7.21906	-4.28222
 171	1	3	-0.707077	0.239941	-6.86385	-2.92059
 172	1	4	0.414767	-0.179798	-5.98878	-2.79248
 173	1	2	-0.013868	-1.64859	-8.43153	-3.52813
 174	1	2	-0.001701	-1.3631	-8.60487	-5.24319
 175	1	5	-0.06789	0.0472701	-6.31363	-4.89753
 176	1	1	-0.02562	-3.86108	-7.51519	-5.06645
 177	1	1	0.401389	-2.502	-6.83263	-4.74725
 178	1	3	-0.707077	-2.66688	-5.96535	-3.62457
 179	1	4	0.414767	-2.92449	-6.53409	-2.87729
 180	1	2	-0.013868	-3.95702	-8.42133	-4.45397
 181	1	2	-0.001701	-4.68179	-6.86185	-4.74106
 182	1	5	-0.06789	-2.20089	-6.21623	-5.60201
 183	1	1	-0.02562	-4.96179	-6.84984	-7.29786
 184	1	1	0.401389	-4.09565	-7.89905	-6.55609
 185	1	3	-0.707077	-2.87631	-8.11404	-7.25858
 186	1	4	0.414767	-3.12039	-8.63931	-8.04608
 187	1	2	-0.013868	-4.482	-5.86809	-7.20117
 188	1	2	-0.001701	-5.93874	-6.77211	-6.80232
 189	1	5	-0.06789	-4.64813	-8.84443	-6.55668
 190	1	1	-0.02562	-6.0795	-6.17588	-9.54881
 191	1	1	0.401389	-5.18607	-7.1901	-8.79413
 192	1	3	-0.707077	-5.7483	-8.49268	-8.91228
 193	1	4	0.414767	-6.5648	-8.40798	-9.43783
 194	1	2	-0.013868	-6.14904	-6.50446	-10.5946
 195	1	2	-0.001701	-7.10369	-6.19136	-9.15242
 196	1	5	-0.06789	-4.21262	-7.1979	-9.29668
 197	1	1	-0.02562	-5.67868	-3.9445	-10.7957
 198	1	1	0.401389	-5.49202	-4.74417	-9.48752
 199	1	3	-0.707077	-6.07326	-4.00943	-8.40837
 200	1	4	0.414767	-5.95314	-4.53225	-7.59392
 201	1	2	-0.013868	-6.70491	-3.55789	-10.8733
 202	1	2	-0.001701	-5.5223	-4.60314	-11.6593
 203	1	5	-0.06789	-4.41618	-4.83515	-9.30783
 204	1	1	-0.02562	-4.62743	-2.11982	-12.2503
 205	1	1	0.401389	-4.65474	-2.79161	-10.8628
 206	1	3	-0.707077	-4.93857	-1.82286	-9.86021
 207	1	4	0.414767	-5.32051	-2.33422	-9.1088
 208	1	2	-0.013868	-4.37386	-2.85101	-13.0289
 209	1	2	-0.001701	-5.603	-1.68214	-12.496
 210	1	5	-0.06789	-3.66044	-3.21448	-10.6755
 211	1	5	0	12.0833	8.49111	0.186163
 212	1	2	0	-3.87193	-1.32444	-12.2787

Velocities

   1	-0.000235653	-0.00110602	0.000718581
   2	-0.000663804	-1.52186e-05	0.000811647
   3	-0.00214257	0.000194038	0.000456625
   4	-0.00249115	0.00139076	0.00038233
   5	0.000522572	-0.00153444	0.00191698
   6	-0.000578353	-0.00247992	-2.38392e-05
   7	-0.000454114	0.00074394	0.00101379
   8	-0.000616077	-0.000345409	-0.000471098
   9	-0.000849101	-0.000146328	5.79946e-06
  10	-0.00158239	-2.87619e-05	-0.00113867
  11	-0.00177046	-3.04017e-05	-0.00146483
  12	-0.000609338	-0.000301441	-0.000838169
  13	-0.000422486	-6.93577e-05	-0.000611357
  14	-0.00128095	0.000531534	0.000836456
  15	0.000104528	-0.000929618	-0.000774915
  16	-0.000458454	-0.000494925	-0.000572145
  17	-0.000590345	-0.000532916	-0.000637191
  18	-0.000605759	-0.000576425	-0.00109898
  19	0.000761657	-0.00205059	-0.000195134
  20	0.000559907	-0.00107283	-0.00232313
  21	-0.000413115	-0.00028968	-0.000679843
  22	9.14452e-06	-0.00026264	-0.000137411
  23	-0.000340504	-9.9949e-05	-0.000437975
  24	-0.000506071	-1.29428e-05	0.000780404
  25	-0.000174315	-0.000181296	9.50989e-05
  26	0.000289205	-0.000334404	-4.28875e-05
  27	0.000103898	-0.000172489	-0.000425211
  28	-0.00105762	0.000423683	-0.000788107
  29	-0.000524544	0.000129597	0.000435986
  30	-0.00023686	-0.000162175	0.000131372
  31	4.20315e-05	6.03876e-05	0.00016687
  32	0.000229846	-0.000110314	0.000881496
  33	-0.000638338	-6.50078e-05	0.00115462
  34	-0.000937447	0.000720972	0.000340191
  35	-0.000359465	-0.000440949	3.23965e-05
  36	-0.000428293	0.000258063	0.000603001
  37	-0.000131232	-4.23989e-05	8.5977e-05
  38	0.000181329	0.000368225	-0.00090059
  39	0.000339306	0.000193988	-0.000601881
  40	-0.000379076	0.000617114	0.000640197
  41	-0.000472131	0.000240203	0.000805905
  42	0.000412167	-0.000606435	0.00029116
  43	0.000347326	-0.000277755	0.000895372
  44	-0.000336283	-0.00010489	0.000741934
  45	-0.000723407	-0.000575466	0.000335041
  46	-0.00138422	-2.65937e-06	-0.00191822
  47	0.000925698	-1.67751e-06	0.000334242
  48	0.000708611	-0.000883929	0.00134024
  49	-0.000428066	-0.000135402	0.000722146
  50	1.56041e-05	-2.24986e-05	0.000620575
  51	9.06016e-05	-6.72587e-05	0.000868803
  52	0.000141263	0.000262531	0.00056285
  53	0.000716588	0.000529717	0.000641245
  54	-0.000214773	0.000663467	0.000409576
  55	0.00017769	-0.000387557	-4.08904e-05
  56	6.38186e-06	9.77173e-05	0.00111964
  57	-0.000210281	-0.000287005	0.0011399
  58	4.43563e-05	-0.000263046	0.00101927
  59	0.000135512	-0.000466856	0.00101331
  60	-9.40783e-05	-0.00104041	0.00110759
  61	-0.00031916	-0.000353117	0.0011541
  62	-0.000133537	-0.000339592	0.00101689
  63	0.000152801	-0.000336334	0.00102486
  64	-0.000194046	0.000100466	0.00108437
  65	-0.000146528	1.78611e-05	0.001202
  66	-0.000101594	-0.000128086	0.00120998
  67	-0.000664276	-0.000138333	0.00145073
  68	0.000169925	0.000470679	0.0017814
  69	-0.00111083	-0.000343487	0.00121656
  70	-0.000221462	5.76112e-05	0.00125665
  71	0.000760659	0.000647951	-0.000504391
  72	0.000249989	0.000252967	-0.000193426
  73	0.000643369	0.000750125	-0.000331291
  74	0.000438723	-0.000527787	-0.000615588
  75	0.000936461	0.00112622	-0.000366282
  76	0.000505792	0.000612598	-0.000320864
  77	-0.000129749	-0.000299207	-0.00062141
  78	0.00143945	0.00071204	-0.00115183
  79	0.00097987	0.000603766	-0.000877591
  80	0.000813962	0.000829619	-0.00111823
  81	0.000205459	0.00245907	-0.00196465
  82	0.00190265	0.000772811	-0.0014633
  83	0.00144701	0.00126052	-0.000905122
  84	0.000922021	0.000691682	-0.000506121
  85	0.00078914	-0.000680375	-0.000634238
  86	0.00136325	0.000441005	-0.00118606
  87	0.00135047	0.00178878	-0.000442746
  88	0.00168684	0.00287296	0.000122757
  89	0.000831573	-0.000686075	9.57657e-05
  90	0.000710955	-0.000800963	-0.000561204
  91	0.00163276	0.000556304	-0.00226109
  92	-0.00104497	-0.000377486	-0.000287789
  93	0.000334791	-0.000900199	-0.000810394
  94	0.000396675	-0.00142275	-0.00201965
  95	0.000333706	0.000286168	-0.00323078
  96	-0.00180053	-0.000592859	-0.00111547
  97	-0.00136742	0.000190298	0.000173242
  98	0.00101822	-0.00061778	-0.000283831
  99	-0.000344659	0.000675948	0.00132428
 100	-0.000694971	0.000375048	0.000710749
 101	-0.000855414	0.00132098	0.000521095
 102	-0.00165854	-0.00140074	0.0012304
 103	-0.000626116	0.000686315	0.00234601
 104	0.000514606	0.00141392	0.00128213
 105	-0.000438793	8.76294e-05	0.00128922
 106	-0.000922772	0.000330283	0.00121227
 107	-0.000226577	0.000314582	0.000649113
 108	-0.000316415	0.000125697	-0.000822769
 109	0.000545888	0.00057301	-0.00205248
 110	-0.00174401	0.000651063	0.0010976
 111	-0.000807592	0.000373139	0.00209474
 112	0.000825748	0.0002906	0.000937252
 113	0.000301924	-0.000502119	0.000657257
 114	-0.000475719	0.000120643	0.000755448
 115	-0.000551465	0.000257928	0.00040543
 116	-0.000492689	0.000111102	0.000785005
 117	0.000367641	-0.00196465	0.00140278
 118	0.00161011	-0.000512249	-0.000353335
 119	-0.000414231	-0.000104453	0.000798532
 120	9.58961e-05	0.00139748	-0.00108898
 121	-0.000102284	0.000500212	0.000640053
 122	-0.000162021	3.0531e-05	0.00120382
 123	-0.000431681	-0.000180285	0.00126924
 124	-0.000492283	0.00059205	-0.00300238
 125	0.000695779	0.00351099	-0.00146663
 126	-0.000617219	0.00109194	0.00119015
 127	-0.000746852	-0.00013975	-0.000421557
 128	1.48137e-05	0.000512483	-0.000585791
 129	0.00061467	0.000286903	-0.000556293
 130	0.000352866	0.000520988	-0.000730529
 131	-0.00163884	0.000724249	-0.000954087
 132	-0.00154665	-0.00122478	-7.84715e-05
 133	-0.000219698	0.000427465	-0.000570377
 134	0.000481328	-0.000669628	-6.16877e-05
 135	0.000216699	-0.000636887	-0.000170627
 136	0.000737144	-0.000458511	-0.000678218
 137	0.000244754	-0.000655933	-0.000553617
 138	0.000153665	-0.00093051	0.000181521
 139	0.000480456	-0.000579416	-0.000948656
 140	0.000304228	-0.000931362	0.000267943
 141	0.000156101	-0.000922736	-0.00013883
 142	0.00148127	-8.96998e-05	0.000478615
 143	0.0020593	0.00238506	0.000127264
 144	0.00288872	0.00312488	0.000365252
 145	-0.00107938	-0.000436271	-0.000938751
 146	0.000162342	-0.00246802	-0.000202204
 147	0.00293246	-0.000934324	0.00164711
 148	-0.00047261	-0.000829055	-0.000342991
 149	0.000278436	-0.000371019	7.98228e-05
 150	0.00114084	-0.000728016	0.000307084
 151	0.0011376	-0.000504708	-0.00276632
 152	-0.000511464	-0.0011697	-0.000691573
 153	-0.000308052	-0.00127956	-0.000813137
 154	0.000175664	0.000497459	-2.66247e-05
 155	-0.00142638	-0.000371024	0.000130921
 156	-0.00200371	0.000380615	-0.000387004
 157	-0.00216406	0.00193256	-0.00333541
 158	-0.00171197	0.00234905	0.000429914
 159	-0.00230528	0.00056805	-0.000526405
 160	-0.000754496	-0.00018435	0.00159504
 161	-0.00365482	0.00138886	0.00104953
 162	-0.000758992	-0.00079575	-0.00257585
 163	-0.000101461	-0.00186389	-0.00129026
 164	0.00153104	-0.0039872	0.000245673
 165	0.00629967	0.00478592	0.00223421
 166	-0.00190375	-0.00152531	-0.00335164
 167	-0.000617182	0.000587976	-0.00326245
 168	0.000500091	-0.001852	-0.00306515
 169	-0.000220136	-0.000617481	-0.00084223
 170	-0.000304691	-0.000298615	-0.0026974
 171	0.00051412	0.00151841	-0.00338395
 172	-0.00156706	0.00061243	-0.00383825
 173	0.000998139	-0.000642579	-0.000528431
 174	-0.000945865	-0.000634747	-0.000831946
 175	-0.000869761	-0.00105493	-0.00391651
 176	-0.000726336	-0.000648555	0.00141417
 177	-0.000613282	-0.00063665	0.000605473
 178	0.000398886	-0.000979859	0.00102893
 179	0.00341475	-0.0015175	0.00169997
 180	-0.000782085	-0.00039533	0.00183466
 181	-0.000592331	-0.00031036	0.0011576
 182	-0.00161686	-0.000337786	0.000482816
 183	0.00100826	0.00021265	0.00112553
 184	-0.000742177	-0.000966853	0.00144495
 185	-0.000786055	-0.00244216	0.00175556
 186	-0.00100272	-0.00246523	0.00182804
 187	0.00260979	-0.00048517	0.000851799
 188	0.00115494	0.00176661	0.00120391
 189	-0.00194288	-0.000312148	0.00162067
 190	0.000529121	0.000584412	0.0020951
 191	0.000343333	6.76479e-05	0.00138489
 192	-0.00110335	0.00083153	0.0018191
 193	0.0029315	0.000795227	-0.00456686
 194	-0.00187992	5.1778e-05	0.00254115
 195	0.00122539	0.00237921	0.00404748
 196	9.32461e-05	-0.000748882	0.000814575
 197	0.00213763	-0.00131756	-0.000708442
 198	0.0026571	-0.000129206	4.66873e-05
 199	0.00495422	0.0017534	5.80129e-05
 200	0.00767751	0.00373906	0.00095534
 201	0.00112215	-0.00413079	-0.00218303
 202	0.00498801	-0.0017622	-1.40688e-05
 203	0.00283631	-0.00145848	-0.00149737
 204	-0.00112112	0.00132526	-0.000167541
 205	-0.000886784	0.00117912	-0.000225245
 206	-0.00446792	0.00040468	-0.000530889
 207	-0.00412667	-0.000917472	-0.0010353
 208	-0.000934672	0.00144776	6.28568e-05
 209	-0.00107501	0.000954389	0.000195801
 210	9.2785e-05	0.00372305	0.00104424
 211	-0.000526454	1.16717e-05	0.00100388
 212	-0.00126102	0.00140402	-3.65005e-05

Bonds

   1	3	1	2
   2	2	1	5
   3	2	1	6
   4	4	2	3
   5	5	2	7
   6	1	3	4
   7	3	8	9
   8	2	8	12
   9	2	8	13
  10	4	9	10
  11	5	9	14
  12	1	10	11
  13	3	1	9
  14	3	15	16
  15	2	15	19
  16	2	15	20
  17	4	16	17
  18	5	16	21
  19	1	17	18
  20	3	8	16
  21	3	22	23
  22	2	22	26
  23	2	22	27
  24	4	23	24
  25	5	23	28
  26	1	24	25
  27	3	15	23
  28	3	29	30
  29	2	29	33
  30	2	29	34
  31	4	30	31
  32	5	30	35
  33	1	31	32
  34	3	22	30
  35	3	36	37
  36	2	36	40
  37	2	36	41
  38	4	37	38
  39	5	37	42
  40	1	38	39
  41	3	29	37
  42	3	43	44
  43	2	43	47
  44	2	43	48
  45	4	44	45
  46	5	44	49
  47	1	45	46
  48	3	36	44
  49	3	50	51
  50	2	50	54
  51	2	50	55
  52	4	51	52
  53	5	51	56
  54	1	52	53
  55	3	43	51
  56	3	57	58
  57	2	57	61
  58	2	57	62
  59	4	58	59
  60	5	58	63
  61	1	59	60
  62	3	50	58
  63	3	64	65
  64	2	64	68
  65	2	64	69
  66	4	65	66
  67	5	65	70
  68	1	66	67
  69	3	57	65
  70	3	71	72
  71	2	71	75
  72	2	71	76
  73	4	72	73
  74	5	72	77
  75	1	73	74
  76	3	64	72
  77	3	78	79
  78	2	78	82
  79	2	78	83
  80	4	79	80
  81	5	79	84
  82	1	80	81
  83	3	71	79
  84	3	85	86
  85	2	85	89
  86	2	85	90
  87	4	86	87
  88	5	86	91
  89	1	87	88
  90	3	78	86
  91	3	92	93
  92	2	92	96
  93	2	92	97
  94	4	93	94
  95	5	93	98
  96	1	94	95
  97	3	85	93
  98	3	99	100
  99	2	99	103
 100	2	99	104
 101	4	100	101
 102	5	100	105
 103	1	101	102
 104	3	92	100
 105	3	106	107
 106	2	106	110
 107	2	106	111
 108	4	107	108
 109	5	107	112
 110	1	108	109
 111	3	99	107
 112	3	113	114
 113	2	113	117
 114	2	113	118
 115	4	114	115
 116	5	114	119
 117	1	115	116
 118	3	106	114
 119	3	120	121
 120	2	120	124
 121	2	120	125
 122	4	121	122
 123	5	121	126
 124	1	122	123
 125	3	113	121
 126	3	127	128
 127	2	127	131
 128	2	127	132
 129	4	128	129
 130	5	128	133
 131	1	129	130
 132	3	120	128
 133	3	134	135
 134	2	134	138
 135	2	134	139
 136	4	135	136
 137	5	135	140
 138	1	136	137
 139	3	127	135
 140	3	141	142
 141	2	141	145
 142	2	141	146
 143	4	142	143
 144	5	142	147
 145	1	143	144
 146	3	134	142
 147	3	148	149
 148	2	148	152
 149	2	148	153
 150	4	149	150
 151	5	149	154
 152	1	150	151
 153	3	141	149
 154	3	155	156
 155	2	155	159
 156	2	155	160
 157	4	156	157
 158	5	156	161
 159	1	157	158
 160	3	148	156
 161	3	162	163
 162	2	162	166
 163	2	162	167
 164	4	163	164
 165	5	163	168
 166	1	164	165
 167	3	155	163
 168	3	169	170
 169	2	169	173
 170	2	169	174
 171	4	170	171
 172	5	170	175
 173	1	171	172
 174	3	162	170
 175	3	176	177
 176	2	176	180
 177	2	176	181
 178	4	177	178
 179	5	177	182
 180	1	178	179
 181	3	169	177
 182	3	183	184
 183	2	183	187
 184	2	183	188
 185	4	184	185
 186	5	184	189
 187	1	185	186
 188	3	176	184
 189	3	190	191
 190	2	190	194
 191	2	190	195
 192	4	191	192
 193	5	191	196
 194	1	192	193
 195	3	183	191
 196	3	197	198
 197	2	197	201
 198	2	197	202
 199	4	198	199
 200	5	198	203
 201	1	199	200
 202	3	190	198
 203	3	204	205
 204	2	204	208
 205	2	204	209
 206	4	205	206
 207	5	205	210
 208	1	206	207
 209	3	197	205
 210	5	2	211
 211	2	204	212

Angles

   1	2	2	1	5
   2	2	2	1	6
   3	5	5	1	6
   4	1	1	2	3
   5	4	1	2	7
   6	3	3	2	7
   7	7	2	3	4
   8	2	9	8	12
   9	2	9	8	13
  10	5	12	8	13
  11	1	8	9	10
  12	4	8	9	14
  13	3	10	9	14
  14	7	9	10	11
  15	8	2	1	9
  16	2	5	1	9
  17	2	6	1	9
  18	8	1	9	8
  19	1	1	9	10
  20	4	1	9	14
  21	2	16	15	19
  22	2	16	15	20
  23	5	19	15	20
  24	1	15	16	17
  25	4	15	16	21
  26	3	17	16	21
  27	7	16	17	18
  28	8	9	8	16
  29	2	12	8	16
  30	2	13	8	16
  31	8	8	16	15
  32	1	8	16	17
  33	4	8	16	21
  34	2	23	22	26
  35	2	23	22	27
  36	5	26	22	27
  37	1	22	23	24
  38	4	22	23	28
  39	3	24	23	28
  40	7	23	24	25
  41	8	16	15	23
  42	2	19	15	23
  43	2	20	15	23
  44	8	15	23	22
  45	1	15	23	24
  46	4	15	23	28
  47	2	30	29	33
  48	2	30	29	34
  49	5	33	29	34
  50	1	29	30	31
  51	4	29	30	35
  52	3	31	30	35
  53	7	30	31	32
  54	8	23	22	30
  55	2	26	22	30
  56	2	27	22	30
  57	8	22	30	29
  58	1	22	30	31
  59	4	22	30	35
  60	2	37	36	40
  61	2	37	36	41
  62	5	40	36	41
  63	1	36	37	38
  64	4	36	37	42
  65	3	38	37	42
  66	7	37	38	39
  67	8	30	29	37
  68	2	33	29	37
  69	2	34	29	37
  70	8	29	37	36
  71	1	29	37	38
  72	4	29	37	42
  73	2	44	43	47
  74	2	44	43	48
  75	5	47	43	48
  76	1	43	44	45
  77	4	43	44	49
  78	3	45	44	49
  79	7	44	45	46
  80	8	37	36	44
  81	2	40	36	44
  82	2	41	36	44
  83	8	36	44	43
  84	1	36	44	45
  85	4	36	44	49
  86	2	51	50	54
  87	2	51	50	55
  88	5	54	50	55
  89	1	50	51	52
  90	4	50	51	56
  91	3	52	51	56
  92	7	51	52	53
  93	8	44	43	51
  94	2	47	43	51
  95	2	48	43	51
  96	8	43	51	50
  97	1	43	51	52
  98	4	43	51	56
  99	2	58	57	61
 100	2	58	57	62
 101	5	61	57	62
 102	1	57	58	59
 103	4	57	58	63
 104	3	59	58	63
 105	7	58	59	60
 106	8	51	50	58
 107	2	54	50	58
 108	2	55	50	58
 109	8	50	58	57
 110	1	50	58	59
 111	4	50	58	63
 112	2	65	64	68
 113	2	65	64	69
 114	5	68	64	69
 115	1	64	65	66
 116	4	64	65	70
 117	3	66	65	70
 118	7	65	66	67
 119	8	58	57	65
 120	2	61	57	65
 121	2	62	57	65
 122	8	57	65	64
 123	1	57	65	66
 124	4	57	65	70
 125	2	72	71	75
 126	2	72	71	76
 127	5	75	71	76
 128	1	71	72	73
 129	4	71	72	77
 130	3	73	72	77
 131	7	72	73	74
 132	8	65	64	72
 133	2	68	64	72
 134	2	69	64	72
 135	8	64	72	71
 136	1	64	72	73
 137	4	64	72	77
 138	2	79	78	82
 139	2	79	78	83
 140	5	82	78	83
 141	1	78	79	80
 142	4	78	79	84
 143	3	80	79	84
 144	7	79	80	81
 145	8	72	71	79
 146	2	75	71	79
 147	2	76	71	79
 148	8	71	79	78
 149	1	71	79	80
 150	4	71	79	84
 151	2	86	85	89
 152	2	86	85	90
 153	5	89	85	90
 154	1	85	86	87
 155	4	85	86	91
 156	3	87	86	91
 157	7	86	87	88
 158	8	79	78	86
 159	2	82	78	86
 160	2	83	78	86
 161	8	78	86	85
 162	1	78	86	87
 163	4	78	86	91
 164	2	93	92	96
 165	2	93	92	97
 166	5	96	92	97
 167	1	92	93	94
 168	4	92	93	98
 169	3	94	93	98
 170	7	93	94	95
 171	8	86	85	93
 172	2	89	85	93
 173	2	90	85	93
 174	8	85	93	92
 175	1	85	93	94
 176	4	85	93	98
 177	2	100	99	103
 178	2	100	99	104
 179	5	103	99	104
 180	1	99	100	101
 181	4	99	100	105
 182	3	101	100	105
 183	7	100	101	102
 184	8	93	92	100
 185	2	96	92	100
 186	2	97	92	100
 187	8	92	100	99
 188	1	92	100	101
 189	4	92	100	105
 190	2	107	106	110
 191	2	107	106	111
 192	5	110	106	111
 193	1	106	107	108
 194	4	106	107	112
 195	3	108	107	112
 196	7	107	108	109
 197	8	100	99	107
 198	2	103	99	107
 199	2	104	99	107
 200	8	99	107	106
 201	1	99	107	108
 202	4	99	107	112
 203	2	114	113	117
 204	2	114	113	118
 205	5	117	113	118
 206	1	113	114	115
 207	4	113	114	119
 208	3	115	114	119
 209	7	114	115	116
 210	8	107	106	114
 211	2	110	106	114
 212	2	111	106	114
 213	8	106	114	113
 214	1	106	114	115
 215	4	106	114	119
 216	2	121	120	124
 217	2	121	120	125
 218	5	124	120	125
 219	1	120	121	122
 220	4	120	121	126
 221	3	122	121	126
 222	7	121	122	123
 223	8	114	113	121
 224	2	117	113	121
 225	2	118	113	121
 226	8	113	121	120
 227	1	113	121	122
 228	4	113	121	126
 229	2	128	127	131
 230	2	128	127	132
 231	5	131	127	132
 232	1	127	128	129
 233	4	127	128	133
 234	3	129	128	133
 235	7	128	129	130
 236	8	121	120	128
 237	2	124	120	128
 238	2	125	120	128
 239	8	120	128	127
 240	1	120	128	129
 241	4	120	128	133
 242	2	135	134	138
 243	2	135	134	139
 244	5	138	134	139
 245	1	134	135	136
 246	4	134	135	140
 247	3	136	135	140
 248	7	135	136	137
 249	8	128	127	135
 250	2	131	127	135
 251	2	132	127	135
 252	8	127	135	134
 253	1	127	135	136
 254	4	127	135	140
 255	2	142	141	145
 256	2	142	141	146
 257	5	145	141	146
 258	1	141	142	143
 259	4	141	142	147
 260	3	143	142	147
 261	7	142	143	144
 262	8	135	134	142
 263	2	138	134	142
 264	2	139	134	142
 265	8	134	142	141
 266	1	134	142	143
 267	4	134	142	147
 268	2	149	148	152
 269	2	149	148	153
 270	5	152	148	153
 271	1	148	149	150
 272	4	148	149	154
 273	3	150	149	154
 274	7	149	150	151
 275	8	142	141	149
 276	2	145	141	149
 277	2	146	141	149
 278	8	141	149	148
 279	1	141	149	150
 280	4	141	149	154
 281	2	156	155	159
 282	2	156	155	160
 283	5	159	155	160
 284	1	155	156	157
 285	4	155	156	161
 286	3	157	156	161
 287	7	156	157	158
 288	8	149	148	156
 289	2	152	148	156
 290	2	153	148	156
 291	8	148	156	155
 292	1	148	156	157
 293	4	148	156	161
 294	2	163	162	166
 295	2	163	162	167
 296	5	166	162	167
 297	1	162	163	164
 298	4	162	163	168
 299	3	164	163	168
 300	7	163	164	165
 301	8	156	155	163
 302	2	159	155	163
 303	2	160	155	163
 304	8	155	163	162
 305	1	155	163	164
 306	4	155	163	168
 307	2	170	169	173
 308	2	170	169	174
 309	5	173	169	174
 310	1	169	170	171
 311	4	169	170	175
 312	3	171	170	175
 313	7	170	171	172
 314	8	163	162	170
 315	2	166	162	170
 316	2	167	162	170
 317	8	162	170	169
 318	1	162	170	171
 319	4	162	170	175
 320	2	177	176	180
 321	2	177	176	181
 322	5	180	176	181
 323	1	176	177	178
 324	4	176	177	182
 325	3	178	177	182
 326	7	177	178	179
 327	8	170	169	177
 328	2	173	169	177
 329	2	174	169	177
 330	8	169	177	176
 331	1	169	177	178
 332	4	169	177	182
 333	2	184	183	187
 334	2	184	183	188
 335	5	187	183	188
 336	1	183	184	185
 337	4	183	184	189
 338	3	185	184	189
 339	7	184	185	186
 340	8	177	176	184
 341	2	180	176	184
 342	2	181	176	184
 343	8	176	184	183
 344	1	176	184	185
 345	4	176	184	189
 346	2	191	190	194
 347	2	191	190	195
 348	5	194	190	195
 349	1	190	191	192
 350	4	190	191	196
 351	3	192	191	196
 352	7	191	192	193
 353	8	184	183	191
 354	2	187	183	191
 355	2	188	183	191
 356	8	183	191	190
 357	1	183	191	192
 358	4	183	191	196
 359	2	198	197	201
 360	2	198	197	202
 361	5	201	197	202
 362	1	197	198	199
 363	4	197	198	203
 364	3	199	198	203
 365	7	198	199	200
 366	8	191	190	198
 367	2	194	190	198
 368	2	195	190	198
 369	8	190	198	197
 370	1	190	198	199
 371	4	190	198	203
 372	2	205	204	208
 373	2	205	204	209
 374	5	208	204	209
 375	1	204	205	206
 376	4	204	205	210
 377	3	206	205	210
 378	7	205	206	207
 379	8	198	197	205
 380	2	201	197	205
 381	2	202	197	205
 382	8	197	205	204
 383	1	197	205	206
 384	4	197	205	210
 385	4	1	2	211
 386	3	3	2	211
 387	6	7	2	211
 388	2	205	204	212
 389	5	208	204	212
 390	5	209	204	212

Dihedrals

   1	1	5	1	2	3
   2	3	5	1	2	7
   3	1	6	1	2	3
   4	3	6	1	2	7
   5	4	1	2	3	4
   6	2	7	2	3	4
   7	1	12	8	9	10
   8	3	12	8	9	14
   9	1	13	8	9	10
  10	3	13	8	9	14
  11	4	8	9	10	11
  12	2	14	9	10	11
  13	3	3	2	1	9
  14	3	7	2	1	9
  15	5	1	9	8	12
  16	5	1	9	8	13
  17	4	1	9	10	11
  18	6	2	1	9	8
  19	3	2	1	9	10
  20	3	2	1	9	14
  21	5	5	1	9	8
  22	1	5	1	9	10
  23	3	5	1	9	14
  24	5	6	1	9	8
  25	1	6	1	9	10
  26	3	6	1	9	14
  27	1	19	15	16	17
  28	3	19	15	16	21
  29	1	20	15	16	17
  30	3	20	15	16	21
  31	4	15	16	17	18
  32	2	21	16	17	18
  33	3	10	9	8	16
  34	3	14	9	8	16
  35	6	1	9	8	16
  36	5	8	16	15	19
  37	5	8	16	15	20
  38	4	8	16	17	18
  39	6	9	8	16	15
  40	3	9	8	16	17
  41	3	9	8	16	21
  42	5	12	8	16	15
  43	1	12	8	16	17
  44	3	12	8	16	21
  45	5	13	8	16	15
  46	1	13	8	16	17
  47	3	13	8	16	21
  48	1	26	22	23	24
  49	3	26	22	23	28
  50	1	27	22	23	24
  51	3	27	22	23	28
  52	4	22	23	24	25
  53	2	28	23	24	25
  54	3	17	16	15	23
  55	3	21	16	15	23
  56	6	8	16	15	23
  57	5	15	23	22	26
  58	5	15	23	22	27