pySIMM System Object

100 atoms
99 bonds
182 angles
285 dihedrals
0 impropers

5 atom types
5 bond types
8 angle types
6 dihedral types

-61.956114 61.956114 xlo xhi
-61.956114 61.956114 ylo yhi
-61.956114 61.956114 zlo zhi

Masses

   1	12.01	# c3
   2	1.008	# hc
   3	16.0	# oh
   4	1.008	# ho
   5	1.008	# h1

Pair Coeffs

   1	0.1094	3.3996695084235347	# c3
   2	0.0157	2.649532787749369	# hc
   3	0.2104	3.0664733878390478	# oh
   4	0.0047	0.5379246460131368	# ho
   5	0.0157	2.471353044121301	# h1

Bond Coeffs

   1	371.4	0.973	# ho,oh
   2	330.6	1.0969	# c3,hc
   3	300.9	1.5375	# c3,c3
   4	316.7	1.4233	# c3,oh
   5	330.6	1.0969	# c3,h1

Angle Coeffs

   1	67.47	110.19	# c3,c3,oh
   2	46.34	109.8	# c3,c3,hc
   3	50.93	110.26	# h1,c3,oh
   4	46.39	109.56	# c3,c3,h1
   5	39.4	107.58	# hc,c3,hc
   6	39.24	108.46	# h1,c3,h1
   7	47.38	107.26	# c3,oh,ho
   8	62.86	111.51	# c3,c3,c3

Dihedral Coeffs

   1	2	0.0	3	0	0.25	1	0	# hc,c3,c3,oh
   2	1	0.16666666666666666	3	0	# X,c3,oh,X
   3	1	0.15555555555555556	3	0	# X,c3,c3,X
   4	2	0.16	3	0	0.25	1	0	# ho,oh,c3,c3
   5	1	0.16	3	0	# hc,c3,c3,c3
   6	3	0.18	3	0	0.25	2	180	0.2	1	180	# c3,c3,c3,c3

Atoms

   1	1	1	-0.02562	-1.48945	12.1115	4.79579
   2	1	1	0.401389	-0.809326	12.4645	3.45791
   3	1	3	-0.707077	0.337355	11.6529	3.24211
   4	1	4	0.414767	0.687522	11.8951	2.36558
   5	1	2	-0.013868	-2.39906	12.7186	4.89697
   6	1	2	-0.001701	-0.825199	12.4059	5.619
   7	1	5	-0.06789	-1.51306	12.3233	2.63073
   8	1	1	-0.02562	-2.7522	10.0909	3.79472
   9	1	1	0.401389	-1.84725	10.6115	4.94057
  10	1	3	-0.707077	-2.48673	10.4204	6.20411
  11	1	4	0.414767	-1.84783	10.7339	6.87379
  12	1	2	-0.013868	-2.19781	10.1576	2.84993
  13	1	2	-0.001701	-3.62946	10.7429	3.68786
  14	1	5	-0.06789	-0.923262	10.024	4.94663
  15	1	1	-0.02562	-3.92446	8.11408	2.70259
  16	1	1	0.401389	-3.20965	8.62355	3.97712
  17	1	3	-0.707077	-4.08392	8.51956	5.09743
  18	1	4	0.414767	-3.67653	9.1412	5.76186
  19	1	2	-0.013868	-3.22484	8.16528	1.85786
  20	1	2	-0.001701	-4.74854	8.79626	2.4534
  21	1	5	-0.06789	-2.32435	8.00377	4.15763
  22	1	1	-0.02562	-3.42091	5.59027	3.09516
  23	1	1	0.401389	-4.48369	6.67308	2.78838
  24	1	3	-0.707077	-5.52018	6.60635	3.75791
  25	1	4	0.414767	-5.22739	7.24074	4.46608
  26	1	2	-0.013868	-3.36459	5.42504	4.17989
  27	1	2	-0.001701	-2.42777	5.9429	2.79395
  28	1	5	-0.06789	-4.92232	6.45326	1.80886
  29	1	1	-0.02562	-3.27796	4.22886	0.902346
  30	1	1	0.401389	-3.76526	4.26307	2.36814
  31	1	3	-0.707077	-3.21666	3.13877	3.05846
  32	1	4	0.414767	-3.68879	3.11541	3.91492
  33	1	2	-0.013868	-3.71477	3.34937	0.417406
  34	1	2	-0.001701	-3.68531	5.0884	0.353832
  35	1	5	-0.06789	-4.85348	4.14016	2.36949
  36	1	1	-0.02562	-1.15139	3.17749	-0.184235
  37	1	1	0.401389	-1.72715	4.21493	0.803524
  38	1	3	-0.707077	-1.27385	5.51278	0.426949
  39	1	4	0.414767	-0.912555	5.91471	1.23522
  40	1	2	-0.013868	-0.0550092	3.22279	-0.124056
  41	1	2	-0.001701	-1.4165	3.47409	-1.20748
  42	1	5	-0.06789	-1.28992	4.00111	1.78387
  43	1	1	-0.02562	-0.771194	0.796648	-0.898094
  44	1	1	0.401389	-1.60155	1.70855	0.0353913
  45	1	3	-0.707077	-1.45783	1.30057	1.3952
  46	1	4	0.414767	-2.06363	1.85437	1.94687
  47	1	2	-0.013868	-0.791746	1.23246	-1.90594
  48	1	2	-0.001701	0.279838	0.821128	-0.579702
  49	1	5	-0.06789	-2.65663	1.61746	-0.240057
  50	1	1	-0.02562	-0.430402	-1.36405	-2.13966
  51	1	1	0.401389	-1.22218	-0.680298	-0.996724
  52	1	3	-0.707077	-2.6273	-0.780413	-1.22952
  53	1	4	0.414767	-3.04145	-0.544662	-0.374985
  54	1	2	-0.013868	-0.524984	-0.775675	-3.06306
  55	1	2	-0.001701	0.63442	-1.34317	-1.87279
  56	1	5	-0.06789	-0.994981	-1.19331	-0.0558531
  57	1	1	-0.02562	0.171843	-3.47367	-3.40134
  58	1	1	0.401389	-0.843119	-2.82341	-2.43219
  59	1	3	-0.707077	-2.14057	-2.84612	-3.01067
  60	1	4	0.414767	-2.64622	-2.1831	-2.47573
  61	1	2	-0.013868	1.18013	-3.37742	-2.97564
  62	1	2	-0.001701	0.180635	-2.90932	-4.34396
  63	1	5	-0.06789	-0.855726	-3.37412	-1.48584
  64	1	1	-0.02562	-0.129687	-5.84456	-2.42846
  65	1	1	0.401389	-0.0896721	-4.96596	-3.70887
  66	1	3	-0.707077	0.909059	-5.3925	-4.6338
  67	1	4	0.414767	0.703169	-4.93192	-5.46653
  68	1	2	-0.013868	-1.1793	-5.91217	-2.11115
  69	1	2	-0.001701	0.396288	-5.33835	-1.60842
  70	1	5	-0.06789	-1.05463	-5.06107	-4.21891
  71	1	1	-0.02562	1.98519	-7.29717	-2.31837
  72	1	1	0.401389	0.457151	-7.27166	-2.58202
  73	1	3	-0.707077	-0.180439	-8.13195	-1.64356
  74	1	4	0.414767	0.424302	-8.91592	-1.61098
  75	1	2	-0.013868	2.17919	-7.05349	-1.26481
  76	1	2	-0.001701	2.47299	-6.50865	-2.90371
  77	1	5	-0.06789	0.248329	-7.65549	-3.58746
  78	1	1	-0.02562	4.1619	-8.60751	-2.31773
  79	1	1	0.401389	2.657	-8.64461	-2.67345
  80	1	3	-0.707077	2.02817	-9.72114	-1.96976
  81	1	4	0.414767	2.43777	-10.5388	-2.3114
  82	1	2	-0.013868	4.60868	-7.67004	-2.67588
  83	1	2	-0.001701	4.26868	-8.60253	-1.22451
  84	1	5	-0.06789	2.53723	-8.81522	-3.74826
  85	1	1	-0.02562	6.38446	-9.84935	-2.3365
  86	1	1	0.401389	4.94728	-9.79905	-2.90679
  87	1	3	-0.707077	4.97751	-9.69228	-4.32662
  88	1	4	0.414767	5.21987	-10.5765	-4.65646
  89	1	2	-0.013868	6.89765	-8.90322	-2.55602
  90	1	2	-0.001701	6.33436	-9.93013	-1.24246
  91	1	5	-0.06789	4.42223	-10.7234	-2.64101
  92	1	1	-0.02562	8.64537	-11.0362	-2.29034
  93	1	1	0.401389	7.22295	-11.0226	-2.88891
  94	1	3	-0.707077	6.58195	-12.2629	-2.61174
  95	1	4	0.414767	7.22617	-12.9575	-2.83815
  96	1	2	-0.013868	9.25491	-11.8205	-2.75724
  97	1	2	-0.001701	8.61837	-11.2194	-1.20847
  98	1	5	-0.06789	7.3145	-10.9187	-3.97584
  99	1	5	0	-0.520713	13.5228	3.46923
 100	1	2	0	9.14706	-10.0753	-2.46081

Velocities

   1	-0.000133706	-0.000711991	-6.20614e-05
   2	0.000135992	-0.000588084	9.65505e-05
   3	-0.000310447	-0.00101516	-0.000458486
   4	0.00170717	0.00165196	0.00103719
   5	-0.000261366	-0.000667599	-0.000197141
   6	-0.000269657	-0.000901342	8.54842e-05
   7	9.06525e-05	0.000518662	1.84673e-05
   8	-0.000815398	-0.000210203	0.000191661
   9	-0.000247294	-0.00066055	-0.000319941
  10	0.000326038	-0.000887347	-6.81064e-05
  11	0.000391949	-0.00091607	-0.000234333
  12	-0.00157235	0.00047494	-0.000309226
  13	-0.00121261	-0.000638086	0.00117108
  14	-0.000455845	-0.000843754	-0.00078617
  15	0.000532427	-0.000466843	-0.000403903
  16	-7.31784e-05	-0.000530779	-0.000256759
  17	-0.000285457	-0.00100633	-0.000327012
  18	-0.000451538	-0.00132876	-6.80232e-05
  19	0.0009247	-0.000637001	-0.000107536
  20	0.000703842	-0.000523817	-0.000916965
  21	0.000163302	-0.000120168	-7.40507e-05
  22	-0.000187235	-0.000444959	0.000839898
  23	0.000295404	-0.000474677	-0.000679146
  24	-0.000663871	-3.5204e-06	-0.00172995
  25	-0.00096685	-0.000454292	-0.00133177
  26	-0.00143971	-0.000367452	0.000900514
  27	0.000249903	-0.000925066	0.00180488
  28	0.0013131	-0.000569042	-0.00101967
  29	-0.000444971	-0.000127653	0.000492706
  30	5.14873e-05	-0.000486313	0.000676841
  31	0.000447006	-0.000535761	0.000388067
  32	-5.2529e-06	-0.00114941	9.095e-05
  33	-0.000255811	-0.000473598	0.000776004
  34	-0.00115247	-0.000511136	0.000573943
  35	5.6857e-05	-0.000726887	0.000970312
  36	-0.000801805	0.0016546	-0.00133346
  37	-0.000523183	0.000636442	-0.000146957
  38	-0.00132716	0.0013532	0.00116852
  39	0.00806218	-0.00336326	-0.000492758
  40	-0.000759996	0.00227975	-0.00260243
  41	-0.00219166	0.00183979	-0.000949088
  42	-5.86394e-05	-0.000121481	-0.000542367
  43	-7.78975e-05	0.00128056	-0.00135011
  44	0.000168064	0.0013282	-0.00114021
  45	0.000983451	0.00149498	-0.00118584
  46	0.000411665	0.000743017	-0.00102091
  47	-0.000765637	0.000882117	-0.0015073
  48	5.90161e-05	0.00169049	-0.00186668
  49	4.63435e-05	0.00076433	-0.000589699
  50	0.00032932	0.000141884	0.00041856
  51	6.41184e-05	0.00112157	-0.000318894
  52	0.000115899	0.000880101	-0.000553173
  53	-0.000109058	0.000998314	-0.000686511
  54	0.000865054	-0.00030244	8.04469e-05
  55	0.00020541	0.000110209	0.000908145
  56	-0.000180068	0.00188296	0.000164579
  57	8.97838e-05	5.59579e-05	0.000726714
  58	0.000260765	7.78808e-05	0.000944842
  59	0.000148684	-0.000262934	0.00121953
  60	0.000369166	0.000362581	0.000717004
  61	0.00024199	0.000531331	0.000341283
  62	-0.000424655	-0.00015842	0.000612694
  63	0.000585599	0.000245017	0.0010519
  64	0.00061851	0.000172057	0.00109881
  65	0.000639576	-6.25486e-05	0.000990399
  66	0.000827052	-0.0001271	0.0012008
  67	-0.00122642	-0.00318234	4.25859e-05
  68	0.000756561	0.000438719	0.00150275
  69	0.00111605	2.2367e-05	0.000903803
  70	0.000762491	-0.000605751	0.00082459
  71	0.00010981	7.41196e-05	0.000934867
  72	0.000166817	4.2645e-05	0.000861489
  73	0.00022596	-0.00017192	0.000654892
  74	0.000222489	-0.000216788	0.000393576
  75	0.000107912	-0.000809406	0.00104638
  76	0.000112589	0.000394483	0.00143595
  77	0.000198928	0.000304207	0.0007795
  78	-2.43271e-05	0.000606903	-0.000344004
  79	-3.46462e-05	0.00034521	-0.000268311
  80	0.00013605	-0.000265945	-0.00107476
  81	-0.00171388	-2.01478e-05	-0.0041065
  82	3.09952e-05	6.99298e-05	-0.00164562
  83	0.000116791	0.00182079	-0.000447167
  84	-0.00010632	0.00120231	-0.000329128
  85	-0.00020446	0.000519253	0.000155546
  86	-0.000496919	-0.000213999	0.000928159
  87	-0.00145369	-0.00266229	0.00072586
  88	0.00255802	-0.00221656	0.00232694
  89	-0.00055185	0.000743017	-0.000407461
  90	0.000340292	0.000639621	0.000142224
  91	-0.000226056	0.000235385	0.00281052
  92	-0.000587301	-0.000168539	-6.45102e-05
  93	-0.000377781	0.000712764	-0.000483957
  94	-0.000862167	0.000573807	-0.00193017
  95	-0.00102352	0.000624292	-0.00176848
  96	-0.0014977	-0.00150843	0.00120792
  97	-0.00105297	0.0015545	0.000234406
  98	1.15606e-05	0.00181271	-0.00038453
  99	0.00092347	-0.000865149	0.000755511
 100	0.000357454	-0.000928603	-0.00157941

Bonds

   1	3	1	2
   2	2	1	5
   3	2	1	6
   4	4	2	3
   5	5	2	7
   6	1	3	4
   7	3	8	9
   8	2	8	12
   9	2	8	13
  10	4	9	10
  11	5	9	14
  12	1	10	11
  13	3	1	9
  14	3	15	16
  15	2	15	19
  16	2	15	20
  17	4	16	17
  18	5	16	21
  19	1	17	18
  20	3	8	16
  21	3	22	23
  22	2	22	26
  23	2	22	27
  24	4	23	24
  25	5	23	28
  26	1	24	25
  27	3	15	23
  28	3	29	30
  29	2	29	33
  30	2	29	34
  31	4	30	31
  32	5	30	35
  33	1	31	32
  34	3	22	30
  35	3	36	37
  36	2	36	40
  37	2	36	41
  38	4	37	38
  39	5	37	42
  40	1	38	39
  41	3	29	37
  42	3	43	44
  43	2	43	47
  44	2	43	48
  45	4	44	45
  46	5	44	49
  47	1	45	46
  48	3	36	44
  49	3	50	51
  50	2	50	54
  51	2	50	55
  52	4	51	52
  53	5	51	56
  54	1	52	53
  55	3	43	51
  56	3	57	58
  57	2	57	61
  58	2	57	62
  59	4	58	59
  60	5	58	63
  61	1	59	60
  62	3	50	58
  63	3	64	65
  64	2	64	68
  65	2	64	69
  66	4	65	66
  67	5	65	70
  68	1	66	67
  69	3	57	65
  70	3	71	72
  71	2	71	75
  72	2	71	76
  73	4	72	73
  74	5	72	77
  75	1	73	74
  76	3	64	72
  77	3	78	79
  78	2	78	82
  79	2	78	83
  80	4	79	80
  81	5	79	84
  82	1	80	81
  83	3	71	79
  84	3	85	86
  85	2	85	89
  86	2	85	90
  87	4	86	87
  88	5	86	91
  89	1	87	88
  90	3	78	86
  91	3	92	93
  92	2	92	96
  93	2	92	97
  94	4	93	94
  95	5	93	98
  96	1	94	95
  97	3	85	93
  98	5	2	99
  99	2	92	100

Angles

   1	2	2	1	5
   2	2	2	1	6
   3	5	5	1	6
   4	1	1	2	3
   5	4	1	2	7
   6	3	3	2	7
   7	7	2	3	4
   8	2	9	8	12
   9	2	9	8	13
  10	5	12	8	13
  11	1	8	9	10
  12	4	8	9	14
  13	3	10	9	14
  14	7	9	10	11
  15	8	2	1	9
  16	2	5	1	9
  17	2	6	1	9
  18	8	1	9	8
  19	1	1	9	10
  20	4	1	9	14
  21	2	16	15	19
  22	2	16	15	20
  23	5	19	15	20
  24	1	15	16	17
  25	4	15	16	21
  26	3	17	16	21
  27	7	16	17	18
  28	8	9	8	16
  29	2	12	8	16
  30	2	13	8	16
  31	8	8	16	15
  32	1	8	16	17
  33	4	8	16	21
  34	2	23	22	26
  35	2	23	22	27
  36	5	26	22	27
  37	1	22	23	24
  38	4	22	23	28
  39	3	24	23	28
  40	7	23	24	25
  41	8	16	15	23
  42	2	19	15	23
  43	2	20	15	23
  44	8	15	23	22
  45	1	15	23	24
  46	4	15	23	28
  47	2	30	29	33
  48	2	30	29	34
  49	5	33	29	34
  50	1	29	30	31
  51	4	29	30	35
  52	3	31	30	35
  53	7	30	31	32
  54	8	23	22	30
  55	2	26	22	30
  56	2	27	22	30
  57	8	22	30	29
  58	1	22	30	31
  59	4	22	30	35
  60	2	37	36	40
  61	2	37	36	41
  62	5	40	36	41
  63	1	36	37	38
  64	4	36	37	42
  65	3	38	37	42
  66	7	37	38	39
  67	8	30	29	37
  68	2	33	29	37
  69	2	34	29	37
  70	8	29	37	36
  71	1	29	37	38
  72	4	29	37	42
  73	2	44	43	47
  74	2	44	43	48
  75	5	47	43	48
  76	1	43	44	45
  77	4	43	44	49
  78	3	45	44	49
  79	7	44	45	46
  80	8	37	36	44
  81	2	40	36	44
  82	2	41	36	44
  83	8	36	44	43
  84	1	36	44	45
  85	4	36	44	49
  86	2	51	50	54
  87	2	51	50	55
  88	5	54	50	55
  89	1	50	51	52
  90	4	50	51	56
  91	3	52	51	56
  92	7	51	52	53
  93	8	44	43	51
  94	2	47	43	51
  95	2	48	43	51
  96	8	43	51	50
  97	1	43	51	52
  98	4	43	51	56
  99	2	58	57	61
 100	2	58	57	62
 101	5	61	57	62
 102	1	57	58	59
 103	4	57	58	63
 104	3	59	58	63
 105	7	58	59	60
 106	8	51	50	58
 107	2	54	50	58
 108	2	55	50	58
 109	8	50	58	57
 110	1	50	58	59
 111	4	50	58	63
 112	2	65	64	68
 113	2	65	64	69
 114	5	68	64	69
 115	1	64	65	66
 116	4	64	65	70
 117	3	66	65	70
 118	7	65	66	67
 119	8	58	57	65
 120	2	61	57	65
 121	2	62	57	65
 122	8	57	65	64
 123	1	57	65	66
 124	4	57	65	70
 125	2	72	71	75
 126	2	72	71	76
 127	5	75	71	76
 128	1	71	72	73
 129	4	71	72	77
 130	3	73	72	77
 131	7	72	73	74
 132	8	65	64	72
 133	2	68	64	72
 134	2	69	64	72
 135	8	64	72	71
 136	1	64	72	73
 137	4	64	72	77
 138	2	79	78	82
 139	2	79	78	83
 140	5	82	78	83
 141	1	78	79	80
 142	4	78	79	84
 143	3	80	79	84
 144	7	79	80	81
 145	8	72	71	79
 146	2	75	71	79
 147	2	76	71	79
 148	8	71	79	78
 149	1	71	79	80
 150	4	71	79	84
 151	2	86	85	89
 152	2	86	85	90
 153	5	89	85	90
 154	1	85	86	87
 155	4	85	86	91
 156	3	87	86	91
 157	7	86	87	88
 158	8	79	78	86
 159	2	82	78	86
 160	2	83	78	86
 161	8	78	86	85
 162	1	78	86	87
 163	4	78	86	91
 164	2	93	92	96
 165	2	93	92	97
 166	5	96	92	97
 167	1	92	93	94
 168	4	92	93	98
 169	3	94	93	98
 170	7	93	94	95
 171	8	86	85	93
 172	2	89	85	93
 173	2	90	85	93
 174	8	85	93	92
 175	1	85	93	94
 176	4	85	93	98
 177	4	1	2	99
 178	3	3	2	99
 179	6	7	2	99
 180	2	93	92	100
 181	5	96	92	100
 182	5	97	92	100

Dihedrals

   1	1	5	1	2	3
   2	3	5	1	2	7
   3	1	6	1	2	3
   4	3	6	1	2	7
   5	4	1	2	3	4
   6	2	7	2	3	4
   7	1	12	8	9	10
   8	3	12	8	9	14
   9	1	13	8	9	10
  10	3	13	8	9	14
  11	4	8	9	10	11
  12	2	14	9	10	11
  13	3	3	2	1	9
  14	3	7	2	1	9
  15	5	1	9	8	12
  16	5	1	9	8	13
  17	4	1	9	10	11
  18	6	2	1	9	8
  19	3	2	1	9	10
  20	3	2	1	9	14
  21	5	5	1	9	8
  22	1	5	1	9	10
  23	3	5	1	9	14
  24	5	6	1	9	8
  25	1	6	1	9	10
  26	3	6	1	9	14
  27	1	19	15	16	17
  28	3	19	15	16	21
  29	1	20	15	16	17
  30	3	20	15	16	21
  31	4	15	16	17	18
  32	2	21	16	17	18
  33	3	10	9	8	16
  34	3	14	9	8	16
  35	6	1	9	8	16
  36	5	8	16	15	19
  37	5	8	16	15	20
  38	4	8	16	17	18
  39	6	9	8	16	15
  40	3	9	8	16	17
  41	3	9	8	16	21
  42	5	12	8	16	15
  43	1	12	8	16	17
  44	3	12	8	16	21
  45	5	13	8	16	15
  46	1	13	8	16	17
  47	3	13	8	16	21
  48	1	26	22	23	24
  49	3	26	22	23	28
  50	1	27	22	23	24
  51	3	27	22	23	28
  52	4	22	23	24	25
  53	2	28	23	24	25
  54	3	17	16	15	23
  55	3	21	16	15	23
  56	6	8	16	15	23
  57	5	15	23	22	26
  58	5	15	23	22	27
  59	4	15	23	24	25
  60	6	16	15	23	22
  61	3	16	15	23	24
  62	3	16	15	23	28
  63	5	19	15	23	22
  64	1	19	15	23	24
  65	3	19	15	23	28
  66	5	20	15	23	22
  67	1	20	15	23	24
  68	3	20	15	23	28
  69	1	33	29	30	31
  70	3	33	29	30	35
  71	1	34	29	30	31
  72	3	34	29	30	35
  73	4	29	30	31	32
  74	2	35	30	31	32
  75	3	24	23	22	30
  76	3	28	23	22	30
  77	6	15	23	22	30
  78	5	22	30	29	33
  79	5	22	30	29	34
  80	4	22	30	31	32
  81	6	23	22	30	29
  82	3	23	22	30	31
  83	3	23	22	30	35
  84	5	26	22	30	29
  85	1	26	22	30	31
  86	3	26	22	30	35
  87	5	27	22	30	29
  88	1	27	22	30	31
  89	3	27	22	30	35
  90	1	40	36	37	38
  91	3	40	36	37	42
  92	1	41	36	37	38
  93	3	41	36	37	42
  94	4	36	37	38	39
  95	2	42	37	38	39
  96	3	31	30	29	37
  97	3	35	30	29	37
  98	6	22	30	29	37
  99	5	29	37	36	40
 100	5	29	37	36	41
 101	4	29	37	38	39
 102	6	30	29	37	36
 103	3	30	29	37	38
 104	3	30	29	37	42
 105	5	33	29	37	36
 106	1	33	29	37	38
 107	3	33	29	37	42
 108	5	34	29	37	36
 109	1	34	29	37	38
 110	3	34	29	37	42
 111	1	47	43	44	45
 112	3	47	43	44	49
 113	1	48	43	44	45
 114	3	48	43	44	49
 115	4	43	44	45	46
 116	2	49	44	45	46
 117	3	38	37	36	44
 118	3	42	37	36	44
 119	6	29	37	36	44
 120	5	36	44	43	47
 121	5	36	44	43	48
 122	4	36	44	45	46
 123	6	37	36	44	43
 124	3	37	36	44	45
 125	3	37	36	44	49
 126	5	40	36	44	43
 127	1	40	36	44	45
 128	3	40	36	44	49
 129	5	41	36	44	43
 130	1	41	36	44	45
 131	3	41	36	44	49
 132	1	54	50	51	52
 133	3	54	50	51	56
 134	1	55	50	51	52
 135	3	55	50	51	56
 136	4	50	51	52	53
 137	2	56	51	52	53
 138	3	45	44	43	51
 139	3	49	44	43	51
 140	6	36	44	43	51
 141	5	43	51	50	54
 142	5	43	51	50	55
 143	4	43	51	52	53
 144	6	44	43	51	50
 145	3	44	43	51	52
 146	3	44	43	51	56
 147	5	47	43	51	50
 148	1	47	43	51	52
 149	3	47	43	51	56
 150	5	48	43	51	50
 151	1	48	43	51	52
 152	3	48	43	51	56
 153	1	61	57	58	59
 154	3	61	57	58	63
 155	1	62	57	58	59
 156	3	62	57	58	63
 157	4	57	58	59	60
 158	2	63	58	59	60
 159	3	52	51	50	58
 160	3	56	51	50	58
 161	6	43	51	50	58
 162	5	50	58	57	61
 163	5	50	58	57	62
 164	4	50	58	59	60
 165	6	51	50	58	57
 166	3	51	50	58	59
 167	3	51	50	58	63
 168	5	54	50	58	57
 169	1	54	50	58	59
 170	3	54	50	58	63
 171	5	55	50	58	57
 172	1	55	50	58	59
 173	3	55	50	58	63
 174	1	68	64	65	66
 175	3	68	64	65	70
 176	1	69	64	65	66
 177	3	69	64	65	70
 178	4	64	65	66	67
 179	2	70	65	66	67
 180	3	59	58	57	65
 181	3	63	58	57	65
 182	6	50	58	57	65
 183	5	57	65	64	68
 184	5	57	65	64	69
 185	4	57	65	66	67
 186	6	58	57	65	64
 187	3	58	57	65	66
 188	3	58	57	65	70
 189	5	61	57	65	64
 190	1	61	57	65	66
 191	3	61	57	65	70
 192	5	62	57	65	64
 193	1	62	57	65	66
 194	3	62	57	65	70
 195	1	75	71	72	73
 196	3	75	71	72	77
 197	1	76	71	72	73
 198	3	76	71	72	77
 199	4	71	72	73	74
 200	2	77	72	73	74
 201	3	66	65	64	72
 202	3	70	65	64	72
 203	6	57	65	64	72
 204	5	64	72	71	75
 205	5	64	72	71	76
 206	4	64	72	73	74
 207	6	65	64	72	71
 208	3	65	64	72	73
 209	3	65	64	72	77
 210	5	68	64	72	71
 211	1	68	64	72	73
 212	3	68	64	72	77
 213	5	69	64	72	71
 214	1	69	64	72	73
 215	3	69	64	72	77
 216	1	82	78	79	80
 217	3	82	78	79	84
 218	1	83	78	79	80
 219	3	83	78	79	84
 220	4	78	79	80	81
 221	2	84	79	80	81
 222	3	73	72	71	79
 223	3	77	72	71	79
 224	6	64	72	71	79
 225	5	71	79	78	82
 226	5	71	79	78	83
 227	4	71	79	80	81
 228	6	72	71	79	78
 229	3	72	71	79	80
 230	3	72	71	79	84
 231	5	75	71	79	78
 232	1	75	71	79	80
 233	3	75	71	79	84
 234	5	76	71	79	78
 235	1	76	71	79	80
 236	3	76	71	79	84
 237	1	89	85	86	87
 238	3	89	85	86	91
 239	1	90	85	86	87
 240	3	90	85	86	91
 241	4	85	86	87	88
 242	2	91	86	87	88
 243	3	80	79	78	86
 244	3	84	79	78	86
 245	6	71	79	78	86
 246	5	78	86	85	89
 247	5	78	86	85	90
 248	4	78	86	87	88
 249	6	79	78	86	85
 250	3	79	78	86	87
 251	3	79	78	86	91
 252	5	82	78	86	85
 253	1	82	78	86	87
 254	3	82	78	86	91
 255	5	83	78	86	85
 256	1	83	78	86	87
 257	3	83	78	86	91
 258	1	96	92	93	94
 259	3	96	92	93	98
 260	1	97	92	93	94
 261	3	97	92	93	98
 262	4	92	93	94	95
 263	2	98	93	94	95
 264	3	87	86	85	93
 265	3	91	86	85	93
 266	6	78	86	85	93
 267	5	85	93	92	96
 268	5	85	93	92	97
 269	4	85	93	94	95
 270	6	86	85	93	92
 271	3	86	85	93	94
 272	3	86	85	93	98
 273	5	89	85	93	92
 274	1	89	85	93	94
 275	3	89	85	93	98
 276	5	90	85	93	92
 277	1	90	85	93	94
 278	3	90	85	93	98
 279	3	5	1	2	99
 280	3	6	1	2	99
 281	3	9	1	2	99
 282	2	4	3	2	99
 283	1	94	93	92	100
 284	3	98	93	92	100
 285	5	85	93	92	100

