pySIMM System Object

142 atoms
141 bonds
260 angles
411 dihedrals
0 impropers

5 atom types
5 bond types
8 angle types
6 dihedral types

-70.310618 70.310618 xlo xhi
-70.310618 70.310618 ylo yhi
-70.310618 70.310618 zlo zhi

Masses

   1	12.01	# c3
   2	1.008	# hc
   3	16.0	# oh
   4	1.008	# ho
   5	1.008	# h1

Pair Coeffs

   1	0.1094	3.3996695084235347	# c3
   2	0.0157	2.649532787749369	# hc
   3	0.2104	3.0664733878390478	# oh
   4	0.0047	0.5379246460131368	# ho
   5	0.0157	2.471353044121301	# h1

Bond Coeffs

   1	371.4	0.973	# ho,oh
   2	330.6	1.0969	# c3,hc
   3	300.9	1.5375	# c3,c3
   4	316.7	1.4233	# c3,oh
   5	330.6	1.0969	# c3,h1

Angle Coeffs

   1	67.47	110.19	# c3,c3,oh
   2	46.34	109.8	# c3,c3,hc
   3	50.93	110.26	# h1,c3,oh
   4	46.39	109.56	# c3,c3,h1
   5	39.4	107.58	# hc,c3,hc
   6	39.24	108.46	# h1,c3,h1
   7	47.38	107.26	# c3,oh,ho
   8	62.86	111.51	# c3,c3,c3

Dihedral Coeffs

   1	2	0.0	3	0	0.25	1	0	# hc,c3,c3,oh
   2	1	0.16666666666666666	3	0	# X,c3,oh,X
   3	1	0.15555555555555556	3	0	# X,c3,c3,X
   4	2	0.16	3	0	0.25	1	0	# ho,oh,c3,c3
   5	1	0.16	3	0	# hc,c3,c3,c3
   6	3	0.18	3	0	0.25	2	180	0.2	1	180	# c3,c3,c3,c3

Atoms

   1	1	1	-0.02562	-8.09334	8.63346	12.8087
   2	1	1	0.401389	-8.88115	8.92641	14.1009
   3	1	3	-0.707077	-8.43571	10.1342	14.7177
   4	1	4	0.414767	-9.00904	10.2693	15.4944
   5	1	2	-0.013868	-8.52746	7.74343	12.3322
   6	1	2	-0.001701	-7.05116	8.381	13.0535
   7	1	5	-0.06789	-9.94695	9.02587	13.8595
   8	1	1	-0.02562	-7.75621	9.43766	10.3848
   9	1	1	0.401389	-8.1381	9.82673	11.8308
  10	1	3	-0.707077	-7.27809	10.8631	12.2994
  11	1	4	0.414767	-7.50485	10.9208	13.2663
  12	1	2	-0.013868	-8.45856	8.66678	10.0379
  13	1	2	-0.001701	-6.75515	8.98699	10.3587
  14	1	5	-0.06789	-9.16592	10.2071	11.8093
  15	1	1	-0.02562	-8.0071	10.2882	7.95942
  16	1	1	0.401389	-7.82973	10.6663	9.44749
  17	1	3	-0.707077	-6.66934	11.4762	9.63205
  18	1	4	0.414767	-6.61549	11.5629	10.6202
  19	1	2	-0.013868	-8.40402	11.1512	7.40886
  20	1	2	-0.001701	-8.77552	9.50691	7.88278
  21	1	5	-0.06789	-8.71128	11.2507	9.73592
  22	1	1	-0.02562	-6.98468	9.00287	5.99885
  23	1	1	0.401389	-6.7028	9.80383	7.28552
  24	1	3	-0.707077	-5.87171	10.9268	7.00046
  25	1	4	0.414767	-5.87411	11.4269	7.8577
  26	1	2	-0.013868	-7.53951	9.61223	5.27118
  27	1	2	-0.001701	-7.62861	8.15171	6.25429
  28	1	5	-0.06789	-6.17454	9.14334	7.98304
  29	1	1	-0.02562	-5.93268	7.37927	4.30977
  30	1	1	0.401389	-5.67661	8.46894	5.3722
  31	1	3	-0.707077	-4.94198	9.54347	4.79444
  32	1	4	0.414767	-5.06566	10.2868	5.44777
  33	1	2	-0.013868	-6.64854	6.64793	4.7058
  34	1	2	-0.001701	-6.39252	7.8195	3.41371
  35	1	5	-0.06789	-5.08024	8.02419	6.1772
  36	1	1	-0.02562	-4.88435	5.44999	2.98714
  37	1	1	0.401389	-4.62515	6.64404	3.93731
  38	1	3	-0.707077	-3.72154	7.56224	3.32645
  39	1	4	0.414767	-3.94015	8.44148	3.74294
  40	1	2	-0.013868	-5.27289	5.82458	2.03069
  41	1	2	-0.001701	-5.6748	4.81997	3.41563
  42	1	5	-0.06789	-4.17613	6.26282	4.86091
  43	1	1	-0.02562	-3.89479	3.53144	1.61429
  44	1	1	0.401389	-3.63909	4.55911	2.74498
  45	1	3	-0.707077	-2.49521	5.34184	2.42824
  46	1	4	0.414767	-2.72882	6.27132	2.70814
  47	1	2	-0.013868	-4.69047	2.83771	1.91715
  48	1	2	-0.001701	-4.26607	4.06662	0.730417
  49	1	5	-0.06789	-3.43008	4.01649	3.67445
  50	1	1	-0.02562	-2.89006	1.7609	0.0408302
  51	1	1	0.401389	-2.62825	2.74005	1.21157
  52	1	3	-0.707077	-2.11764	2.01947	2.3267
  53	1	4	0.414767	-1.58727	2.68515	2.80893
  54	1	2	-0.013868	-3.27789	0.809259	0.430282
  55	1	2	-0.001701	-3.66517	2.16158	-0.625937
  56	1	5	-0.06789	-1.86622	3.45429	0.889622
  57	1	1	-0.02562	-1.27761	2.73744	-1.69263
  58	1	1	0.401389	-1.59295	1.52694	-0.76966
  59	1	3	-0.707077	-1.72156	0.330679	-1.5442
  60	1	4	0.414767	-2.15309	-0.298379	-0.93548
  61	1	2	-0.013868	-1.89852	3.59533	-1.40114
  62	1	2	-0.001701	-1.58404	2.51299	-2.72295
  63	1	5	-0.06789	-0.779113	1.35971	-0.0582769
  64	1	1	-0.02562	1.14982	2.37487	-2.56263
  65	1	1	0.401389	0.193555	3.21838	-1.68404
  66	1	3	-0.707077	0.686012	3.36321	-0.35673
  67	1	4	0.414767	1.52117	2.83223	-0.327654
  68	1	2	-0.013868	2.01357	2.99907	-2.8294
  69	1	2	-0.001701	0.648308	2.14674	-3.5111
  70	1	5	-0.06789	0.180244	4.21623	-2.13709
  71	1	1	-0.02562	2.34011	0.137397	-2.94411
  72	1	1	0.401389	1.66646	1.07082	-1.90901
  73	1	3	-0.707077	2.58389	1.39331	-0.867003
  74	1	4	0.414767	2.85602	0.540187	-0.476169
  75	1	2	-0.013868	3.12777	-0.462511	-2.4672
  76	1	2	-0.001701	2.83069	0.740212	-3.71995
  77	1	5	-0.06789	0.834355	0.531737	-1.45319
  78	1	1	-0.02562	1.74236	-1.45245	-4.91206
  79	1	1	0.401389	1.29263	-0.80139	-3.58499
  80	1	3	-0.707077	0.905505	-1.80586	-2.6528
  81	1	4	0.414767	0.075977	-1.46634	-2.25091
  82	1	2	-0.013868	0.893723	-2.00909	-5.33177
  83	1	2	-0.001701	1.9541	-0.647218	-5.62756
  84	1	5	-0.06789	0.404126	-0.204202	-3.81955
  85	1	1	-0.02562	3.26447	-2.92236	-6.26792
  86	1	1	0.401389	2.9765	-2.38683	-4.84372
  87	1	3	-0.707077	2.75287	-3.46708	-3.94612
  88	1	4	0.414767	2.12545	-3.10503	-3.26745
  89	1	2	-0.013868	2.40265	-3.51182	-6.60942
  90	1	2	-0.001701	3.33072	-2.05957	-6.94351
  91	1	5	-0.06789	3.83306	-1.80377	-4.4894
  92	1	1	-0.02562	4.88492	-3.90768	-7.95693
  93	1	1	0.401389	4.53548	-3.78569	-6.44595
  94	1	3	-0.707077	5.63878	-3.22099	-5.74499
  95	1	4	0.414767	5.46274	-3.39784	-4.8
  96	1	2	-0.013868	5.79166	-3.32428	-8.17094
  97	1	2	-0.001701	4.09503	-3.46023	-8.57452
  98	1	5	-0.06789	4.35156	-4.782	-6.02869
  99	1	1	-0.02562	3.79081	-6.18625	-8.49172
 100	1	1	0.401389	5.10143	-5.35963	-8.43422
 101	1	3	-0.707077	5.67027	-5.31198	-9.73828
 102	1	4	0.414767	6.25032	-4.52881	-9.75758
 103	1	2	-0.013868	3.152	-5.78539	-9.28844
 104	1	2	-0.001701	3.22481	-6.069	-7.55779
 105	1	5	-0.06789	5.81722	-5.83936	-7.75954
 106	1	1	-0.02562	4.46343	-8.41377	-7.42822
 107	1	1	0.401389	4.0672	-7.69316	-8.73331
 108	1	3	-0.707077	2.90557	-8.31004	-9.29031
 109	1	4	0.414767	2.369	-8.62842	-8.54092
 110	1	2	-0.013868	3.56761	-8.56073	-6.80668
 111	1	2	-0.001701	5.12819	-7.76163	-6.84302
 112	1	5	-0.06789	4.88185	-7.79575	-9.46023
 113	1	1	-0.02562	5.63385	-10.3644	-6.27795
 114	1	1	0.401389	5.18909	-9.76842	-7.63224
 115	1	3	-0.707077	4.3665	-10.704	-8.3231
 116	1	4	0.414767	4.34149	-10.4177	-9.25737
 117	1	2	-0.013868	5.58206	-11.4621	-6.29368
 118	1	2	-0.001701	4.93672	-10.0346	-5.49375
 119	1	5	-0.06789	6.07792	-9.60029	-8.2545
 120	1	1	-0.02562	7.36344	-9.78476	-4.41172
 121	1	1	0.401389	7.07394	-9.922	-5.91961
 122	1	3	-0.707077	8.02175	-10.8053	-6.51658
 123	1	4	0.414767	7.73421	-10.9517	-7.43357
 124	1	2	-0.013868	8.3992	-9.43236	-4.30248
 125	1	2	-0.001701	6.73599	-8.98998	-3.98783
 126	1	5	-0.06789	7.22974	-8.92624	-6.35717
 127	1	1	-0.02562	8.02344	-11.0524	-2.29714
 128	1	1	0.401389	7.17515	-11.0864	-3.58825
 129	1	3	-0.707077	5.80237	-11.2339	-3.24267
 130	1	4	0.414767	5.8217	-11.8605	-2.47236
 131	1	2	-0.013868	7.67394	-10.2421	-1.63887
 132	1	2	-0.001701	9.06207	-10.8123	-2.55908
 133	1	5	-0.06789	7.4968	-11.9507	-4.18018
 134	1	1	-0.02562	8.9019	-12.3197	-0.264213
 135	1	1	0.401389	8.02413	-12.3949	-1.53089
 136	1	3	-0.707077	6.69844	-12.7764	-1.1609
 137	1	4	0.414767	6.78772	-13.6246	-0.690898
 138	1	2	-0.013868	9.93989	-12.074	-0.524395
 139	1	2	-0.001701	8.53309	-11.5495	0.425826
 140	1	5	-0.06789	8.43443	-13.1733	-2.18515
 141	1	5	0	-8.77221	8.0863	14.7969
 142	1	2	0	8.90729	-13.2809	0.26528

Velocities

   1	-0.00108016	0.0014686	-0.00110444
   2	0.00170961	-0.000400949	-0.000754305
   3	0.000847169	0.000325942	0.000214054
   4	0.00521799	-0.00201016	0.000944149
   5	-0.00181576	0.000824718	-0.00174733
   6	-5.15772e-06	-0.0010739	-0.00206184
   7	-0.000378124	0.000142129	0.000744674
   8	7.17725e-05	0.0017062	-0.00100636
   9	-4.70334e-05	0.000471845	0.000165863
  10	0.00142913	0.000520112	-0.0009655
  11	0.00117709	0.000445777	0.000105404
  12	0.00014123	5.00065e-05	-0.000116356
  13	4.61121e-05	0.00246938	-0.000907962
  14	0.000517962	0.00201611	-0.000131884
  15	-0.000917177	0.000350023	4.80997e-06
  16	-0.00249524	1.6588e-06	-0.00128516
  17	-0.00347385	0.0029781	-0.000520836
  18	-0.00365872	0.00252678	-0.0010221
  19	0.000679392	-0.00058282	-0.00227495
  20	-0.00146063	-8.57572e-05	-0.00112536
  21	-0.00369086	-0.000515337	-0.00150378
  22	-0.000214307	0.000326101	0.00154735
  23	-0.000294755	-0.00278927	-0.000109539
  24	0.00229076	-0.00302434	0.00441193
  25	0.000167533	-0.00345666	0.00306598
  26	0.00274343	0.00166074	-0.000511522
  27	-0.00158497	0.000674835	-0.00221094
  28	-0.00292241	-0.00388319	0.00215423
  29	-0.000232686	-0.00120849	0.00220573
  30	0.00123316	-0.0019633	0.000589415
  31	0.00164808	-0.00242215	0.0026358
  32	0.00306085	-0.00250794	0.00336941
  33	0.00154064	-0.00216262	0.00222864
  34	-0.00145533	-0.001652	0.00213927
  35	-0.000784244	-0.00233733	0.002543
  36	-0.000178311	0.000993286	-0.00257525
  37	0.000434724	-0.000920159	-0.00041652
  38	-0.000287697	0.000676388	0.00113857
  39	-0.000133097	-0.00101965	0.00213134
  40	0.00180658	0.00301224	-0.00264145
  41	-0.00132247	0.00121988	-0.00482111
  42	0.000318	-0.00233745	-0.00139114
  43	-0.000546081	-0.00117969	-0.000232926
  44	-0.000332627	0.00119881	-0.00160283
  45	-0.000819224	0.000831126	-0.00366428
  46	-0.00021329	0.0010682	-0.00185011
  47	0.00102192	-0.0018827	0.00239849
  48	-0.00284543	-0.00302596	-0.000118633
  49	0.000402862	0.00248066	-0.0011156
  50	0.000685098	-0.0005035	0.000177651
  51	8.27067e-05	0.000394654	-0.000249585
  52	0.00177019	0.00180346	-0.000302748
  53	0.00124628	0.00290989	-0.00113479
  54	0.0011845	-0.000476169	0.000827849
  55	0.0010448	-0.00132249	-0.000196176
  56	-0.000916734	0.00123125	-0.00135164
  57	0.00104115	-0.000423426	0.000703671
  58	0.00129455	-0.000291911	0.000881864
  59	0.00183238	-0.000506262	0.00105617
  60	-0.000433234	0.000276444	0.000257558
  61	0.00213994	0.000295641	0.00188618
  62	-0.000606725	0.000236133	0.00127792
  63	0.000978076	0.000214202	0.00124983
  64	-0.000201316	-0.0031161	-0.00147687
  65	0.00119215	-0.00119666	-0.000685311
  66	0.0026587	-0.000989866	-0.00152716
  67	0.00376401	0.000765743	-0.00274294
  68	-0.00116985	-0.00342676	-0.00458515
  69	-0.00233733	-0.00517583	0.00062165
  70	0.00189938	-0.00202451	-0.0017316
  71	0.000216652	-0.00204721	0.000673587
  72	0.00150536	-0.00148588	0.00041422
  73	0.00294581	0.00065264	-0.0015117
  74	0.000734414	0.0016947	0.00235995
  75	-0.000997069	-0.00411934	0.0010565
  76	0.0018478	-0.00313865	0.00115137
  77	0.0025805	-0.00137774	0.00268111
  78	-0.00265708	0.00144498	-0.00091251
  79	-0.000953894	-0.000592539	0.000197014
  80	-0.00143519	-0.000818303	-0.00101471
  81	0.000504936	0.000412383	0.00201395
  82	-0.0025131	0.000878617	-0.000398552
  83	-0.00409342	0.00209018	-0.000721457
  84	-0.00127005	0.00126263	0.00138393
  85	-0.000781407	0.00434745	-0.00280647
  86	-0.00151135	0.00292765	-0.00199112
  87	-8.45864e-06	0.00172352	-0.00311439
  88	-0.000348647	0.000533276	-0.00262779
  89	-0.00185584	0.00782748	-0.00515108
  90	0.00305538	0.00571409	-0.00115927
  91	-0.00230672	0.00339487	-0.00210085
  92	-0.0016002	0.00062495	-3.79781e-05
  93	-0.00315519	0.00123123	-0.00089502
  94	-0.00245742	-0.0020677	0.00087168
  95	-0.00594734	6.9492e-05	0.000838279
  96	-0.00209622	0.000859285	0.000171934
  97	-0.00148999	-0.00136201	-0.00132468
  98	-0.00690928	0.00163361	-0.00110473
  99	0.000444623	-0.000790525	-6.26139e-05
 100	0.000575782	-0.000559441	0.00164335
 101	0.00201601	-0.00129226	0.00297251
 102	0.0115449	-0.0067177	0.0070743
 103	0.00195644	-0.00268865	0.000198749
 104	-0.000505776	-0.00146523	0.000256957
 105	-0.000612777	0.00134738	0.00349284
 106	0.000897301	-8.97168e-05	1.47274e-05
 107	0.00333517	-0.00149472	0.00367863
 108	0.00471231	-0.00402442	-0.000105393
 109	0.00311545	-0.00180725	-1.31035e-05
 110	0.00142869	0.000542595	0.00279053
 111	0.00342027	-0.0002481	0.00295555
 112	0.0046794	-0.000350673	0.00271832
 113	0.000173813	-0.00101854	-0.00142232
 114	0.000569392	-0.0012377	0.00343515
 115	-0.00225457	0.000598313	0.000611542
 116	-0.0228197	0.0161625	0.00598208
 117	0.00292636	-0.00146248	0.000254241
 118	0.000155901	-0.00254163	0.00178312
 119	-0.000204726	-0.0014612	2.12199e-05
 120	0.000168604	0.00174057	-0.00192108
 121	0.00122019	0.00070176	0.00237227
 122	0.000951823	0.00328298	-0.0013461
 123	-0.000827425	0.000828808	0.000556947
 124	0.00169534	0.000492036	7.12439e-05
 125	0.00162423	0.000657514	0.000760971
 126	-0.00178047	0.00271893	0.000171301
 127	-0.000531116	-3.87435e-05	-0.000973934
 128	0.00074381	2.52533e-05	0.000832341
 129	0.000335501	0.00049473	-0.00209541
 130	1.74056e-05	-0.000592531	-0.00175126
 131	-0.0021364	0.000516416	0.000949077
 132	-0.000652644	0.00165748	0.00145179
 133	0.00152575	0.00102354	-0.000906197
 134	-0.000811192	-0.000493279	-0.00115454
 135	-0.000152566	0.000658274	-0.000727981
 136	-0.000598439	-0.000791437	-0.000912673
 137	-0.000613423	0.00200186	-0.000199556
 138	-0.00026167	-0.000786727	-0.000924539
 139	-0.000349321	-0.000486801	-0.00080223
 140	-0.0004125	0.000233067	-0.00181405
 141	0.00155427	0.000409053	-0.000762364
 142	-0.00083364	-0.000669507	-0.00110374

Bonds

   1	3	1	2
   2	2	1	5
   3	2	1	6
   4	4	2	3
   5	5	2	7
   6	1	3	4
   7	3	8	9
   8	2	8	12
   9	2	8	13
  10	4	9	10
  11	5	9	14
  12	1	10	11
  13	3	1	9
  14	3	15	16
  15	2	15	19
  16	2	15	20
  17	4	16	17
  18	5	16	21
  19	1	17	18
  20	3	8	16
  21	3	22	23
  22	2	22	26
  23	2	22	27
  24	4	23	24
  25	5	23	28
  26	1	24	25
  27	3	15	23
  28	3	29	30
  29	2	29	33
  30	2	29	34
  31	4	30	31
  32	5	30	35
  33	1	31	32
  34	3	22	30
  35	3	36	37
  36	2	36	40
  37	2	36	41
  38	4	37	38
  39	5	37	42
  40	1	38	39
  41	3	29	37
  42	3	43	44
  43	2	43	47
  44	2	43	48
  45	4	44	45
  46	5	44	49
  47	1	45	46
  48	3	36	44
  49	3	50	51
  50	2	50	54
  51	2	50	55
  52	4	51	52
  53	5	51	56
  54	1	52	53
  55	3	43	51
  56	3	57	58
  57	2	57	61
  58	2	57	62
  59	4	58	59
  60	5	58	63
  61	1	59	60
  62	3	50	58
  63	3	64	65
  64	2	64	68
  65	2	64	69
  66	4	65	66
  67	5	65	70
  68	1	66	67
  69	3	57	65
  70	3	71	72
  71	2	71	75
  72	2	71	76
  73	4	72	73
  74	5	72	77
  75	1	73	74
  76	3	64	72
  77	3	78	79
  78	2	78	82
  79	2	78	83
  80	4	79	80
  81	5	79	84
  82	1	80	81
  83	3	71	79
  84	3	85	86
  85	2	85	89
  86	2	85	90
  87	4	86	87
  88	5	86	91
  89	1	87	88
  90	3	78	86
  91	3	92	93
  92	2	92	96
  93	2	92	97
  94	4	93	94
  95	5	93	98
  96	1	94	95
  97	3	85	93
  98	3	99	100
  99	2	99	103
 100	2	99	104
 101	4	100	101
 102	5	100	105
 103	1	101	102
 104	3	92	100
 105	3	106	107
 106	2	106	110
 107	2	106	111
 108	4	107	108
 109	5	107	112
 110	1	108	109
 111	3	99	107
 112	3	113	114
 113	2	113	117
 114	2	113	118
 115	4	114	115
 116	5	114	119
 117	1	115	116
 118	3	106	114
 119	3	120	121
 120	2	120	124
 121	2	120	125
 122	4	121	122
 123	5	121	126
 124	1	122	123
 125	3	113	121
 126	3	127	128
 127	2	127	131
 128	2	127	132
 129	4	128	129
 130	5	128	133
 131	1	129	130
 132	3	120	128
 133	3	134	135
 134	2	134	138
 135	2	134	139
 136	4	135	136
 137	5	135	140
 138	1	136	137
 139	3	127	135
 140	5	2	141
 141	2	134	142

Angles

   1	2	2	1	5
   2	2	2	1	6
   3	5	5	1	6
   4	1	1	2	3
   5	4	1	2	7
   6	3	3	2	7
   7	7	2	3	4
   8	2	9	8	12
   9	2	9	8	13
  10	5	12	8	13
  11	1	8	9	10
  12	4	8	9	14
  13	3	10	9	14
  14	7	9	10	11
  15	8	2	1	9
  16	2	5	1	9
  17	2	6	1	9
  18	8	1	9	8
  19	1	1	9	10
  20	4	1	9	14
  21	2	16	15	19
  22	2	16	15	20
  23	5	19	15	20
  24	1	15	16	17
  25	4	15	16	21
  26	3	17	16	21
  27	7	16	17	18
  28	8	9	8	16
  29	2	12	8	16
  30	2	13	8	16
  31	8	8	16	15
  32	1	8	16	17
  33	4	8	16	21
  34	2	23	22	26
  35	2	23	22	27
  36	5	26	22	27
  37	1	22	23	24
  38	4	22	23	28
  39	3	24	23	28
  40	7	23	24	25
  41	8	16	15	23
  42	2	19	15	23
  43	2	20	15	23
  44	8	15	23	22
  45	1	15	23	24
  46	4	15	23	28
  47	2	30	29	33
  48	2	30	29	34
  49	5	33	29	34
  50	1	29	30	31
  51	4	29	30	35
  52	3	31	30	35
  53	7	30	31	32
  54	8	23	22	30
  55	2	26	22	30
  56	2	27	22	30
  57	8	22	30	29
  58	1	22	30	31
  59	4	22	30	35
  60	2	37	36	40
  61	2	37	36	41
  62	5	40	36	41
  63	1	36	37	38
  64	4	36	37	42
  65	3	38	37	42
  66	7	37	38	39
  67	8	30	29	37
  68	2	33	29	37
  69	2	34	29	37
  70	8	29	37	36
  71	1	29	37	38
  72	4	29	37	42
  73	2	44	43	47
  74	2	44	43	48
  75	5	47	43	48
  76	1	43	44	45
  77	4	43	44	49
  78	3	45	44	49
  79	7	44	45	46
  80	8	37	36	44
  81	2	40	36	44
  82	2	41	36	44
  83	8	36	44	43
  84	1	36	44	45
  85	4	36	44	49
  86	2	51	50	54
  87	2	51	50	55
  88	5	54	50	55
  89	1	50	51	52
  90	4	50	51	56
  91	3	52	51	56
  92	7	51	52	53
  93	8	44	43	51
  94	2	47	43	51
  95	2	48	43	51
  96	8	43	51	50
  97	1	43	51	52
  98	4	43	51	56
  99	2	58	57	61
 100	2	58	57	62
 101	5	61	57	62
 102	1	57	58	59
 103	4	57	58	63
 104	3	59	58	63
 105	7	58	59	60
 106	8	51	50	58
 107	2	54	50	58
 108	2	55	50	58
 109	8	50	58	57
 110	1	50	58	59
 111	4	50	58	63
 112	2	65	64	68
 113	2	65	64	69
 114	5	68	64	69
 115	1	64	65	66
 116	4	64	65	70
 117	3	66	65	70
 118	7	65	66	67
 119	8	58	57	65
 120	2	61	57	65
 121	2	62	57	65
 122	8	57	65	64
 123	1	57	65	66
 124	4	57	65	70
 125	2	72	71	75
 126	2	72	71	76
 127	5	75	71	76
 128	1	71	72	73
 129	4	71	72	77
 130	3	73	72	77
 131	7	72	73	74
 132	8	65	64	72
 133	2	68	64	72
 134	2	69	64	72
 135	8	64	72	71
 136	1	64	72	73
 137	4	64	72	77
 138	2	79	78	82
 139	2	79	78	83
 140	5	82	78	83
 141	1	78	79	80
 142	4	78	79	84
 143	3	80	79	84
 144	7	79	80	81
 145	8	72	71	79
 146	2	75	71	79
 147	2	76	71	79
 148	8	71	79	78
 149	1	71	79	80
 150	4	71	79	84
 151	2	86	85	89
 152	2	86	85	90
 153	5	89	85	90
 154	1	85	86	87
 155	4	85	86	91
 156	3	87	86	91
 157	7	86	87	88
 158	8	79	78	86
 159	2	82	78	86
 160	2	83	78	86
 161	8	78	86	85
 162	1	78	86	87
 163	4	78	86	91
 164	2	93	92	96
 165	2	93	92	97
 166	5	96	92	97
 167	1	92	93	94
 168	4	92	93	98
 169	3	94	93	98
 170	7	93	94	95
 171	8	86	85	93
 172	2	89	85	93
 173	2	90	85	93
 174	8	85	93	92
 175	1	85	93	94
 176	4	85	93	98
 177	2	100	99	103
 178	2	100	99	104
 179	5	103	99	104
 180	1	99	100	101
 181	4	99	100	105
 182	3	101	100	105
 183	7	100	101	102
 184	8	93	92	100
 185	2	96	92	100
 186	2	97	92	100
 187	8	92	100	99
 188	1	92	100	101
 189	4	92	100	105
 190	2	107	106	110
 191	2	107	106	111
 192	5	110	106	111
 193	1	106	107	108
 194	4	106	107	112
 195	3	108	107	112
 196	7	107	108	109
 197	8	100	99	107
 198	2	103	99	107
 199	2	104	99	107
 200	8	99	107	106
 201	1	99	107	108
 202	4	99	107	112
 203	2	114	113	117
 204	2	114	113	118
 205	5	117	113	118
 206	1	113	114	115
 207	4	113	114	119
 208	3	115	114	119
 209	7	114	115	116
 210	8	107	106	114
 211	2	110	106	114
 212	2	111	106	114
 213	8	106	114	113
 214	1	106	114	115
 215	4	106	114	119
 216	2	121	120	124
 217	2	121	120	125
 218	5	124	120	125
 219	1	120	121	122
 220	4	120	121	126
 221	3	122	121	126
 222	7	121	122	123
 223	8	114	113	121
 224	2	117	113	121
 225	2	118	113	121
 226	8	113	121	120
 227	1	113	121	122
 228	4	113	121	126
 229	2	128	127	131
 230	2	128	127	132
 231	5	131	127	132
 232	1	127	128	129
 233	4	127	128	133
 234	3	129	128	133
 235	7	128	129	130
 236	8	121	120	128
 237	2	124	120	128
 238	2	125	120	128
 239	8	120	128	127
 240	1	120	128	129
 241	4	120	128	133
 242	2	135	134	138
 243	2	135	134	139
 244	5	138	134	139
 245	1	134	135	136
 246	4	134	135	140
 247	3	136	135	140
 248	7	135	136	137
 249	8	128	127	135
 250	2	131	127	135
 251	2	132	127	135
 252	8	127	135	134
 253	1	127	135	136
 254	4	127	135	140
 255	4	1	2	141
 256	3	3	2	141
 257	6	7	2	141
 258	2	135	134	142
 259	5	138	134	142
 260	5	139	134	142

Dihedrals

   1	1	5	1	2	3
   2	3	5	1	2	7
   3	1	6	1	2	3
   4	3	6	1	2	7
   5	4	1	2	3	4
   6	2	7	2	3	4
   7	1	12	8	9	10
   8	3	12	8	9	14
   9	1	13	8	9	10
  10	3	13	8	9	14
  11	4	8	9	10	11
  12	2	14	9	10	11
  13	3	3	2	1	9
  14	3	7	2	1	9
  15	5	1	9	8	12
  16	5	1	9	8	13
  17	4	1	9	10	11
  18	6	2	1	9	8
  19	3	2	1	9	10
  20	3	2	1	9	14
  21	5	5	1	9	8
  22	1	5	1	9	10
  23	3	5	1	9	14
  24	5	6	1	9	8
  25	1	6	1	9	10
  26	3	6	1	9	14
  27	1	19	15	16	17
  28	3	19	15	16	21
  29	1	20	15	16	17
  30	3	20	15	16	21
  31	4	15	16	17	18
  32	2	21	16	17	18
  33	3	10	9	8	16
  34	3	14	9	8	16
  35	6	1	9	8	16
  36	5	8	16	15	19
  37	5	8	16	15	20
  38	4	8	16	17	18
  39	6	9	8	16	15
  40	3	9	8	16	17
  41	3	9	8	16	21
  42	5	12	8	16	15
  43	1	12	8	16	17
  44	3	12	8	16	21
  45	5	13	8	16	15
  46	1	13	8	16	17
  47	3	13	8	16	21
  48	1	26	22	23	24
  49	3	26	22	23	28
  50	1	27	22	23	24
  51	3	27	22	23	28
  52	4	22	23	24	25
  53	2	28	23	24	25
  54	3	17	16	15	23
  55	3	21	16	15	23
  56	6	8	16	15	23
  57	5	15	23	22	26
  58	5	15	23	22	27
  59	4	15	23	24	25
  60	6	16	15	23	22
  61	3	16	15	23	24
  62	3	16	15	23	28
  63	5	19	15	23	22
  64	1	19	15	23	24
  65	3	19	15	23	28
  66	5	20	15	23	22
  67	1	20	15	23	24
  68	3	20	15	23	28
  69	1	33	29	30	31
  70	3	33	29	30	35
  71	1	34	29	30	31
  72	3	34	29	30	35
  73	4	29	30	31	32
  74	2	35	30	31	32
  75	3	24	23	22	30
  76	3	28	23	22	30
  77	6	15	23	22	30
  78	5	22	30	29	33
  79	5	22	30	29	34
  80	4	22	30	31	32
  81	6	23	22	30	29
  82	3	23	22	30	31
  83	3	23	22	30	35
  84	5	26	22	30	29
  85	1	26	22	30	31
  86	3	26	22	30	35
  87	5	27	22	30	29
  88	1	27	22	30	31
  89	3	27	22	30	35
  90	1	40	36	37	38
  91	3	40	36	37	42
  92	1	41	36	37	38
  93	3	41	36	37	42
  94	4	36	37	38	39
  95	2	42	37	38	39
  96	3	31	30	29	37
  97	3	35	30	29	37
  98	6	22	30	29	37
  99	5	29	37	36	40
 100	5	29	37	36	41
 101	4	29	37	38	39
 102	6	30	29	37	36
 103	3	30	29	37	38
 104	3	30	29	37	42
 105	5	33	29	37	36
 106	1	33	29	37	38
 107	3	33	29	37	42
 108	5	34	29	37	36
 109	1	34	29	37	38
 110	3	34	29	37	42
 111	1	47	43	44	45
 112	3	47	43	44	49
 113	1	48	43	44	45
 114	3	48	43	44	49
 115	4	43	44	45	46
 116	2	49	44	45	46
 117	3	38	37	36	44
 118	3	42	37	36	44
 119	6	29	37	36	44
 120	5	36	44	43	47
 121	5	36	44	43	48
 122	4	36	44	45	46
 123	6	37	36	44	43
 124	3	37	36	44	45
 125	3	37	36	44	49
 126	5	40	36	44	43
 127	1	40	36	44	45
 128	3	40	36	44	49
 129	5	41	36	44	43
 130	1	41	36	44	45
 131	3	41	36	44	49
 132	1	54	50	51	52
 133	3	54	50	51	56
 134	1	55	50	51	52
 135	3	55	50	51	56
 136	4	50	51	52	53
 137	2	56	51	52	53
 138	3	45	44	43	51
 139	3	49	44	43	51
 140	6	36	44	43	51
 141	5	43	51	50	54
 142	5	43	51	50	55
 143	4	43	51	52	53
 144	6	44	43	51	50
 145	3	44	43	51	52
 146	3	44	43	51	56
 147	5	47	43	51	50
 148	1	47	43	51	52
 149	3	47	43	51	56
 150	5	48	43	51	50
 151	1	48	43	51	52
 152	3	48	43	51	56
 153	1	61	57	58	59
 154	3	61	57	58	63
 155	1	62	57	58	59
 156	3	62	57	58	63
 157	4	57	58	59	60
 158	2	63	58	59	60
 159	3	52	51	50	58
 160	3	56	51	50	58
 161	6	43	51	50	58
 162	5	50	58	57	61
 163	5	50	58	57	62
 164	4	50	58	59	60
 165	6	51	50	58	57
 166	3	51	50	58	59
 167	3	51	50	58	63
 168	5	54	50	58	57
 169	1	54	50	58	59
 170	3	54	50	58	63
 171	5	55	50	58	57
 172	1	55	50	58	59
 173	3	55	50	58	63
 174	1	68	64	65	66
 175	3	68	64	65	70
 176	1	69	64	65	66
 177	3	69	64	65	70
 178	4	64	65	66	67
 179	2	70	65	66	67
 180	3	59	58	57	65
 181	3	63	58	57	65
 182	6	50	58	57	65
 183	5	57	65	64	68
 184	5	57	65	64	69
 185	4	57	65	66	67
 186	6	58	57	65	64
 187	3	58	57	65	66
 188	3	58	57	65	70
 189	5	61	57	65	64
 190	1	61	57	65	66
 191	3	61	57	65	70
 192	5	62	57	65	64
 193	1	62	57	65	66
 194	3	62	57	65	70
 195	1	75	71	72	73
 196	3	75	71	72	77
 197	1	76	71	72	73
 198	3	76	71	72	77
 199	4	71	72	73	74
 200	2	77	72	73	74
 201	3	66	65	64	72
 202	3	70	65	64	72
 203	6	57	65	64	72
 204	5	64	72	71	75
 205	5	64	72	71	76
 206	4	64	72	73	74
 207	6	65	64	72	71
 208	3	65	64	72	73
 209	3	65	64	72	77
 210	5	68	64	72	71
 211	1	68	64	72	73
 212	3	68	64	72	77
 213	5	69	64	72	71
 214	1	69	64	72	73
 215	3	69	64	72	77
 216	1	82	78	79	80
 217	3	82	78	79	84
 218	1	83	78	79	80
 219	3	83	78	79	84
 220	4	78	79	80	81
 221	2	84	79	80	81
 222	3	73	72	71	79
 223	3	77	72	71	79
 224	6	64	72	71	79
 225	5	71	79	78	82
 226	5	71	79	78	83
 227	4	71	79	80	81
 228	6	72	71	79	78
 229	3	72	71	79	80
 230	3	72	71	79	84
 231	5	75	71	79	78
 232	1	75	71	79	80
 233	3	75	71	79	84
 234	5	76	71	79	78
 235	1	76	71	79	80
 236	3	76	71	79	84
 237	1	89	85	86	87
 238	3	89	85	86	91
 239	1	90	85	86	87
 240	3	90	85	86	91
 241	4	85	86	87	88
 242	2	91	86	87	88
 243	3	80	79	78	86
 244	3	84	79	78	86
 245	6	71	79	78	86
 246	5	78	86	85	89
 247	5	78	86	85	90
 248	4	78	86	87	88
 249	6	79	78	86	85
 250	3	79	78	86	87
 251	3	79	78	86	91
 252	5	82	78	86	85
 253	1	82	78	86	87
 254	3	82	78	86	91
 255	5	83	78	86	85
 256	1	83	78	86	87
 257	3	83	78	86	91
 258	1	96	92	93	94
 259	3	96	92	93	98
 260	1	97	92	93	94
 261	3	97	92	93	98
 262	4	92	93	94	95
 263	2	98	93	94	95
 264	3	87	86	85	93
 265	3	91	86	85	93
 266	6	78	86	85	93
 267	5	85	93	92	96
 268	5	85	93	92	97
 269	4	85	93	94	95
 270	6	86	85	93	92
 271	3	86	85	93	94
 272	3	86	85	93	98
 273	5	89	85	93	92
 274	1	89	85	93	94
 275	3	89	85	93	98
 276	5	90	85	93	92
 277	1	90	85	93	94
 278	3	90	85	93	98
 279	1	103	99	100	101
 280	3	103	99	100	105
 281	1	104	99	100	101
 282	3	104	99	100	105
 283	4	99	100	101	102
 284	2	105	100	101	102
 285	3	94	93	92	100
 286	3	98	93	92	100
 287	6	85	93	92	100
 288	5	92	100	99	103
 289	5	92	100	99	104
 290	4	92	100	101	102
 291	6	93	92	100	99
 292	3	93	92	100	101
 293	3	93	92	100	105
 294	5	96	92	100	99
 295	1	96	92	100	101
 296	3	96	92	100	105
 297	5	97	92	100	99
 298	1	97	92	100	101
 299	3	97	92	100	105
 300	1	110	106	107	108
 301	3	110	106	107	112
 302	1	111	106	107	108
 303	3	111	106	107	112
 304	4	106	107	108	109
 305	2	112	107	108	109
 306	3	101	100	99	107
 307	3	105	100	99	107
 308	6	92	100	99	107
 309	5	99	107	106	110
 310	5	99	107	106	111
 311	4	99	107	108	109
 312	6	100	99	107	106
 313	3	100	99	107	108
 314	3	100	99	107	112
 315	5	103	99	107	106
 316	1	103	99	107	108
 317	3	103	99	107	112
 318	5	104	99	107	106
 319	1	104	99	107	108
 320	3	104	99	107	112
 321	1	117	113	114	115
 322	3	117	113	114	119
 323	1	118	113	114	115
 324	3	118	113	114	119
 325	4	113	114	115	116
 326	2	119	114	115	116
 327	3	108	107	106	114
 328	3	112	107	106	114
 329	6	99	107	106	114
 330	5	106	114	113	117
 331	5	106	114	113	118
 332	4	106	114	115	116
 333	6	107	106	114	113
 334	3	107	106	114	115
 335	3	107	106	114	119
 336	5	110	106	114	113
 337	1	110	106	114	115
 338	3	110	106	114	119
 339	5	111	106	114	113
 340	1	111	106	114	115
 341	3	111	106	114	119
 342	1	124	120	121	122
 343	3	124	120	121	126
 344	1	125	120	121	122
 345	3	125	120	121	126
 346	4	120	121	122	123
 347	2	126	121	122	123
 348	3	115	114	113	121
 349	3	119	114	113	121
 350	6	106	114	113	121
 351	5	113	121	120	124
 352	5	113	121	120	125
 353	4	113	121	122	123
 354	6	114	113	121	120
 355	3	114	113	121	122
 356	3	114	113	121	126
 357	5	117	113	121	120
 358	1	117	113	121	122
 359	3	117	113	121	126
 360	5	118	113	121	120
 361	1	118	113	121	122
 362	3	118	113	121	126
 363	1	131	127	128	129
 364	3	131	127	128	133
 365	1	132	127	128	129
 366	3	132	127	128	133
 367	4	127	128	129	130
 368	2	133	128	129	130
 369	3	122	121	120	128
 370	3	126	121	120	128
 371	6	113	121	120	128
 372	5	120	128	127	131
 373	5	120	128	127	132
 374	4	120	128	129	130
 375	6	121	120	128	127
 376	3	121	120	128	129
 377	3	121	120	128	133
 378	5	124	120	128	127
 379	1	124	120	128	129
 380	3	124	120	128	133
 381	5	125	120	128	127
 382	1	125	120	128	129
 383	3	125	120	128	133
 384	1	138	134	135	136
 385	3	138	134	135	140
 386	1	139	134	135	136
 387	3	139	134	135	140
 388	4	134	135	136	137
 389	2	140	135	136	137
 390	3	129	128	127	135
 391	3	133	128	127	135
 392	6	120	128	127	135
 393	5	127	135	134	138
 394	5	127	135	134	139
 395	4	127	135	136	137
 396	6	128	127	135	134
 397	3	128	127	135	136
 398	3	128	127	135	140
 399	5	131	127	135	134
 400	1	131	127	135	136
 401	3	131	127	135	140
 402	5	132	127	135	134
 403	1	132	127	135	136
 404	3	132	127	135	140
 405	3	5	1	2	141
 406	3	6	1	2	141
 407	3	9	1	2	141
 408	2	4	3	2	141
 409	1	136	135	134	142
 410	3	140	135	134	142
 411	5	127	135	134	142

