pySIMM System Object

247 atoms
246 bonds
455 angles
726 dihedrals
0 impropers

5 atom types
5 bond types
8 angle types
6 dihedral types

-85.361628 85.361628 xlo xhi
-85.361628 85.361628 ylo yhi
-85.361628 85.361628 zlo zhi

Masses

   1	12.01	# c3
   2	1.008	# hc
   3	16.0	# oh
   4	1.008	# ho
   5	1.008	# h1

Pair Coeffs

   1	0.1094	3.3996695084235347	# c3
   2	0.0157	2.649532787749369	# hc
   3	0.2104	3.0664733878390478	# oh
   4	0.0047	0.5379246460131368	# ho
   5	0.0157	2.471353044121301	# h1

Bond Coeffs

   1	371.4	0.973	# ho,oh
   2	330.6	1.0969	# c3,hc
   3	300.9	1.5375	# c3,c3
   4	316.7	1.4233	# c3,oh
   5	330.6	1.0969	# c3,h1

Angle Coeffs

   1	67.47	110.19	# c3,c3,oh
   2	46.34	109.8	# c3,c3,hc
   3	50.93	110.26	# h1,c3,oh
   4	46.39	109.56	# c3,c3,h1
   5	39.4	107.58	# hc,c3,hc
   6	39.24	108.46	# h1,c3,h1
   7	47.38	107.26	# c3,oh,ho
   8	62.86	111.51	# c3,c3,c3

Dihedral Coeffs

   1	2	0.0	3	0	0.25	1	0	# hc,c3,c3,oh
   2	1	0.16666666666666666	3	0	# X,c3,oh,X
   3	1	0.15555555555555556	3	0	# X,c3,c3,X
   4	2	0.16	3	0	0.25	1	0	# ho,oh,c3,c3
   5	1	0.16	3	0	# hc,c3,c3,c3
   6	3	0.18	3	0	0.25	2	180	0.2	1	180	# c3,c3,c3,c3

Atoms

   1	1	1	-0.02562	-13.833	12.4052	0.0418184
   2	1	1	0.401389	-15.0798	13.1992	-0.395086
   3	1	3	-0.707077	-14.7429	14.5526	-0.692356
   4	1	4	0.414767	-15.5872	15.0139	-0.863789
   5	1	2	-0.013868	-14.147	11.39	0.317158
   6	1	2	-0.001701	-13.402	12.8564	0.94558
   7	1	5	-0.06789	-15.5192	12.7333	-1.2836
   8	1	1	-0.02562	-11.6124	11.3727	-0.682338
   9	1	1	0.401389	-12.7662	12.325	-1.0727
  10	1	3	-0.707077	-12.2493	13.626	-1.34531
  11	1	4	0.414767	-13.0299	14.2295	-1.20617
  12	1	2	-0.013868	-12.0285	10.3797	-0.466489
  13	1	2	-0.001701	-11.1478	11.7293	0.246268
  14	1	5	-0.06789	-13.2443	11.9373	-1.97931
  15	1	1	-0.02562	-9.50758	10.1246	-1.51523
  16	1	1	0.401389	-10.5473	11.2394	-1.79737
  17	1	3	-0.707077	-9.87407	12.4829	-1.97538
  18	1	4	0.414767	-10.6116	13.1555	-1.93633
  19	1	2	-0.013868	-8.83118	10.0336	-2.37613
  20	1	2	-0.001701	-10.0328	9.16367	-1.43822
  21	1	5	-0.06789	-11.066	10.9861	-2.72897
  22	1	1	-0.02562	-7.70341	9.19646	0.0621628
  23	1	1	0.401389	-8.67925	10.3586	-0.227329
  24	1	3	-0.707077	-7.94785	11.5781	-0.329118
  25	1	4	0.414767	-8.50769	12.1452	-0.935062
  26	1	2	-0.013868	-6.99874	9.0799	-0.773069
  27	1	2	-0.001701	-8.27574	8.26133	0.121136
  28	1	5	-0.06789	-9.36887	10.4285	0.620202
  29	1	1	-0.02562	-6.08095	8.15288	1.72502
  30	1	1	0.401389	-6.92651	9.39829	1.38618
  31	1	3	-0.707077	-6.07166	10.5362	1.2791
  32	1	4	0.414767	-6.60965	11.1721	0.720406
  33	1	2	-0.013868	-6.74457	7.27901	1.77044
  34	1	2	-0.001701	-5.38977	7.9622	0.897371
  35	1	5	-0.06789	-7.64693	9.56534	2.1943
  36	1	1	-0.02562	-4.3085	7.03567	3.11863
  37	1	1	0.401389	-5.28971	8.22907	3.05615
  38	1	3	-0.707077	-4.58752	9.47112	3.19166
  39	1	4	0.414767	-5.04559	10.0525	2.50952
  40	1	2	-0.013868	-3.64088	7.06199	2.25007
  41	1	2	-0.001701	-4.89277	6.11029	3.02879
  42	1	5	-0.06789	-6.00278	8.14913	3.88392
  43	1	1	-0.02562	-2.5872	5.68698	4.40273
  44	1	1	0.401389	-3.46591	6.95841	4.40802
  45	1	3	-0.707077	-2.62919	8.11429	4.50995
  46	1	4	0.414767	-3.23253	8.82451	4.15784
  47	1	2	-0.013868	-3.0161	4.9189	3.74682
  48	1	2	-0.001701	-1.62064	5.94398	3.96036
  49	1	5	-0.06789	-4.15628	6.93665	5.25793
  50	1	1	-0.02562	-1.15316	4.24345	6.03951
  51	1	1	0.401389	-2.43255	5.09785	5.82273
  52	1	3	-0.707077	-3.57686	4.29705	6.1046
  53	1	4	0.414767	-3.53741	3.53517	5.49854
  54	1	2	-0.013868	-1.18789	3.84063	7.06053
  55	1	2	-0.001701	-1.17271	3.37266	5.37047
  56	1	5	-0.06789	-2.42149	5.91815	6.54827
  57	1	1	-0.02562	0.162259	6.44329	6.43313
  58	1	1	0.401389	0.197616	4.9973	5.87678
  59	1	3	-0.707077	0.602936	4.98485	4.50989
  60	1	4	0.414767	1.30854	5.69422	4.48009
  61	1	2	-0.013868	-0.0971507	6.40795	7.4995
  62	1	2	-0.001701	-0.637224	6.99239	5.93463
  63	1	5	-0.06789	0.955934	4.44389	6.44176
  64	1	1	-0.02562	1.38315	8.67963	6.83289
  65	1	1	0.401389	1.47482	7.2433	6.2624
  66	1	3	-0.707077	1.8497	7.31725	4.88875
  67	1	4	0.414767	1.38883	8.1242	4.54895
  68	1	2	-0.013868	2.28324	9.23797	6.5411
  69	1	2	-0.001701	1.4113	8.61622	7.92849
  70	1	5	-0.06789	2.26663	6.71075	6.8011
  71	1	1	-0.02562	0.234247	10.9441	6.90203
  72	1	1	0.401389	0.113691	9.47691	6.42062
  73	1	3	-0.707077	-0.109022	9.38832	5.00561
  74	1	4	0.414767	-0.977429	8.89337	4.9324
  75	1	2	-0.013868	1.06222	11.44	6.37787
  76	1	2	-0.001701	0.52518	10.9303	7.9607
  77	1	5	-0.06789	-0.739688	9.01248	6.92343
  78	1	1	-0.02562	-1.31363	12.3832	5.37635
  79	1	1	0.401389	-1.04895	11.8057	6.79171
  80	1	3	-0.707077	-2.17367	11.1078	7.31641
  81	1	4	0.414767	-2.9495	11.4744	6.8233
  82	1	2	-0.013868	-1.62145	13.4325	5.48012
  83	1	2	-0.001701	-0.369628	12.413	4.81784
  84	1	5	-0.06789	-0.878175	12.6756	7.43643
  85	1	1	-0.02562	-2.36789	12.0536	3.06139
  86	1	1	0.401389	-2.386	11.6369	4.54851
  87	1	3	-0.707077	-3.68324	11.8477	5.10514
  88	1	4	0.414767	-4.27758	11.2537	4.59678
  89	1	2	-0.013868	-3.39863	12.1872	2.70557
  90	1	2	-0.001701	-1.87053	13.0248	2.93483
  91	1	5	-0.06789	-2.19896	10.5661	4.60183
  92	1	1	-0.02562	-1.76579	11.3594	0.685315
  93	1	1	0.401389	-1.67795	10.9867	2.18287
  94	1	3	-0.707077	-0.308196	10.8313	2.54732
  95	1	4	0.414767	-0.263265	10.3033	3.38426
  96	1	2	-0.013868	-1.00599	12.1196	0.456172
  97	1	2	-0.001701	-2.73877	11.8191	0.465331
  98	1	5	-0.06789	-2.18706	10.0323	2.34343
  99	1	1	-0.02562	-2.88252	9.30044	-0.336464
 100	1	1	0.401389	-1.57795	10.1228	-0.219958
 101	1	3	-0.707077	-1.16958	10.5406	-1.51695
 102	1	4	0.414767	-0.31687	10.9957	-1.38738
 103	1	2	-0.013868	-3.64068	9.89862	-0.861065
 104	1	2	-0.001701	-3.28532	9.10581	0.663616
 105	1	5	-0.06789	-0.783616	9.49877	0.200549
 106	1	1	-0.02562	-1.76375	6.98503	-0.297233
 107	1	1	0.401389	-2.69953	7.95182	-1.06676
 108	1	3	-0.707077	-3.99273	7.37415	-1.27115
 109	1	4	0.414767	-4.43079	7.98474	-1.89702
 110	1	2	-0.013868	-1.9467	7.06117	0.780894
 111	1	2	-0.001701	-0.72735	7.31013	-0.453435
 112	1	5	-0.06789	-2.26859	8.13091	-2.05736
 113	1	1	-0.02562	-0.735349	4.62544	-0.268695
 114	1	1	0.401389	-1.89745	5.51217	-0.751217
 115	1	3	-0.707077	-3.1322	4.9623	-0.283371
 116	1	4	0.414767	-3.77966	5.63377	-0.627122
 117	1	2	-0.013868	0.211526	5.01241	-0.668941
 118	1	2	-0.001701	-0.851686	3.63268	-0.719504
 119	1	5	-0.06789	-1.89722	5.49217	-1.8472
 120	1	1	-0.02562	-0.533709	3.08155	1.78499
 121	1	1	0.401389	-0.672228	4.53072	1.27728
 122	1	3	-0.707077	0.412947	5.30676	1.76268
 123	1	4	0.414767	0.434655	5.14605	2.74234
 124	1	2	-0.013868	0.356476	2.62187	1.33464
 125	1	2	-0.001701	-0.365591	3.09358	2.86874
 126	1	5	-0.06789	-1.5847	4.94694	1.71488
 127	1	1	-0.02562	-1.58115	0.80367	2.11805
 128	1	1	0.401389	-1.76981	2.20166	1.48358
 129	1	3	-0.707077	-2.97439	2.82443	1.94323
 130	1	4	0.414767	-3.14561	3.56414	1.30367
 131	1	2	-0.013868	-1.40137	0.896253	3.19788
 132	1	2	-0.001701	-0.675333	0.35397	1.68986
 133	1	5	-0.06789	-1.86066	2.0638	0.402074
 134	1	1	-0.02562	-2.43642	-1.58975	2.31113
 135	1	1	0.401389	-2.77037	-0.146	1.86648
 136	1	3	-0.707077	-3.91681	0.330624	2.5679
 137	1	4	0.414767	-3.8567	1.31874	2.45683
 138	1	2	-0.013868	-1.52277	-1.91364	1.79407
 139	1	2	-0.001701	-2.21282	-1.61258	3.38583
 140	1	5	-0.06789	-2.98735	-0.152477	0.792344
 141	1	1	-0.02562	-3.16386	-4.04462	2.33729
 142	1	1	0.401389	-3.56322	-2.5926	1.98183
 143	1	3	-0.707077	-4.77117	-2.24506	2.64867
 144	1	4	0.414767	-4.7223	-1.25137	2.72729
 145	1	2	-0.013868	-2.8425	-4.0909	3.38643
 146	1	2	-0.001701	-2.28351	-4.31264	1.74517
 147	1	5	-0.06789	-3.74016	-2.53727	0.90147
 148	1	1	-0.02562	-3.84615	-6.54607	2.08914
 149	1	1	0.401389	-4.31295	-5.06742	2.12255
 150	1	3	-0.707077	-5.06121	-4.75094	0.954339
 151	1	4	0.414767	-5.53222	-3.92632	1.21363
 152	1	2	-0.013868	-4.68533	-7.17542	2.41445
 153	1	2	-0.001701	-3.05589	-6.69234	2.83731
 154	1	5	-0.06789	-4.98858	-4.96869	2.97963
 155	1	1	-0.02562	-2.91023	-8.54353	0.793727
 156	1	1	0.401389	-3.36612	-7.06379	0.706452
 157	1	3	-0.707077	-2.33906	-6.22916	0.173739
 158	1	4	0.414767	-2.82416	-5.41989	-0.0956948
 159	1	2	-0.013868	-3.81026	-9.16892	0.867351
 160	1	2	-0.001701	-2.3427	-8.71321	1.71819
 161	1	5	-0.06789	-4.20498	-7.02887	0.00307006
 162	1	1	-0.02562	-1.92855	-10.5485	-0.46116
 163	1	1	0.401389	-2.06596	-9.01053	-0.416185
 164	1	3	-0.707077	-0.781648	-8.40754	-0.356883
 165	1	4	0.414767	-0.998841	-7.45147	-0.203165
 166	1	2	-0.013868	-2.93815	-10.9743	-0.5449
 167	1	2	-0.001701	-1.51433	-10.9203	0.485427
 168	1	5	-0.06789	-2.5666	-8.68726	-1.3363
 169	1	1	-0.02562	0.410852	-11.317	-1.26649
 170	1	1	0.401389	-1.0653	-11.0308	-1.65362
 171	1	3	-0.707077	-1.65572	-12.2094	-2.21081
 172	1	4	0.414767	-2.57776	-11.9715	-2.42489
 173	1	2	-0.013868	0.446526	-12.1201	-0.519676
 174	1	2	-0.001701	0.843116	-10.4279	-0.792201
 175	1	5	-0.06789	-1.08729	-10.2631	-2.43538
 176	1	1	-0.02562	2.79459	-11.7455	-2.24567
 177	1	1	0.401389	1.26726	-11.6841	-2.50228
 178	1	3	-0.707077	0.823242	-12.9142	-3.06082
 179	1	4	0.414767	-0.16354	-12.8813	-2.94493
 180	1	2	-0.013868	3.26771	-11.5893	-3.21961
 181	1	2	-0.001701	3.10592	-10.898	-1.62075
 182	1	5	-0.06789	1.10224	-10.8942	-3.24427
 183	1	1	-0.02562	4.86009	-13.1869	-1.58187
 184	1	1	0.401389	3.3143	-13.0758	-1.63019
 185	1	3	-0.707077	2.81215	-13.2316	-0.308874
 186	1	4	0.414767	1.88951	-13.527	-0.419561
 187	1	2	-0.013868	5.11141	-14.0665	-0.972754
 188	1	2	-0.001701	5.28878	-12.3196	-1.06347
 189	1	5	-0.06789	2.95581	-13.9217	-2.22513
 190	1	1	-0.02562	6.90494	-14.0432	-2.90269
 191	1	1	0.401389	5.51498	-13.3644	-2.97731
 192	1	3	-0.707077	5.64071	-12.1114	-3.65583
 193	1	4	0.414767	4.74072	-11.882	-3.9598
 194	1	2	-0.013868	6.81704	-14.9736	-2.32656
 195	1	2	-0.001701	7.20211	-14.3367	-3.91815
 196	1	5	-0.06789	4.86841	-14.016	-3.57535
 197	1	1	-0.02562	9.28727	-13.9052	-1.85197
 198	1	1	0.401389	8.00598	-13.148	-2.28053
 199	1	3	-0.707077	8.34486	-12.1044	-3.18937
 200	1	4	0.414767	7.45333	-11.7851	-3.4857
 201	1	2	-0.013868	9.05498	-14.5995	-1.0336
 202	1	2	-0.001701	9.98031	-13.1632	-1.4335
 203	1	5	-0.06789	7.59518	-12.6855	-1.37671
 204	1	1	-0.02562	11.4676	-15.008	-2.69179
 205	1	1	0.401389	9.9895	-14.6613	-3.00591
 206	1	3	-0.707077	9.30664	-15.8751	-3.31047
 207	1	4	0.414767	9.72821	-16.5763	-2.77988
 208	1	2	-0.013868	11.8128	-14.4617	-1.8045
 209	1	2	-0.001701	11.558	-16.0711	-2.42963
 210	1	5	-0.06789	9.96156	-14.0268	-3.89749
 211	1	1	-0.02562	12.7152	-13.1819	-3.98679
 212	1	1	0.401389	12.4212	-14.6961	-3.86956
 213	1	3	-0.707077	11.9059	-15.2171	-5.09668
 214	1	4	0.414767	10.9548	-14.9926	-5.13847
 215	1	2	-0.013868	13.1572	-12.8335	-3.04324
 216	1	2	-0.001701	11.7779	-12.6259	-4.09326
 217	1	5	-0.06789	13.3677	-15.2055	-3.65918
 218	1	1	-0.02562	13.8598	-11.3301	-5.37682
 219	1	1	0.401389	13.6889	-12.8546	-5.14723
 220	1	3	-0.707077	14.9601	-13.4242	-4.85179
 221	1	4	0.414767	15.1589	-14.013	-5.6014
 222	1	2	-0.013868	13.8576	-10.8293	-4.3987
 223	1	2	-0.001701	14.8661	-11.1521	-5.78103
 224	1	5	-0.06789	13.3417	-13.3139	-6.07721
 225	1	1	-0.02562	11.6747	-11.479	-6.89441
 226	1	1	0.401389	12.8146	-10.6143	-6.29256
 227	1	3	-0.707077	13.5135	-9.9338	-7.33388
 228	1	4	0.414767	13.2559	-10.3449	-8.20033
 229	1	2	-0.013868	12.0658	-12.1488	-7.6695
 230	1	2	-0.001701	11.2694	-12.1333	-6.11912
 231	1	5	-0.06789	12.3333	-9.8534	-5.66736
 232	1	1	-0.02562	10.7003	-9.77291	-8.68161
 233	1	1	0.401389	10.4772	-10.6392	-7.4154
 234	1	3	-0.707077	9.3636	-11.4998	-7.63658
 235	1	4	0.414767	8.83481	-11.4683	-6.81814
 236	1	2	-0.013868	9.74364	-9.2832	-8.90834
 237	1	2	-0.001701	11.3997	-8.95428	-8.47275
 238	1	5	-0.06789	10.1832	-9.95904	-6.60837
 239	1	1	-0.02562	10.9197	-9.78888	-11.2405
 240	1	1	0.401389	11.1651	-10.5683	-9.92509
 241	1	3	-0.707077	12.5571	-10.8744	-9.81791
 242	1	4	0.414767	12.7582	-11.4258	-10.5976
 243	1	2	-0.013868	10.0711	-9.09847	-11.1529
 244	1	2	-0.001701	11.7995	-9.20214	-11.5342
 245	1	5	-0.06789	10.5997	-11.504	-9.9856
 246	1	5	0	-15.8261	13.1688	0.408202
 247	1	2	0	10.6878	-10.4856	-12.0561

Velocities

   1	-0.000211097	-0.000250448	-0.000467006
   2	-4.32594e-05	-9.08633e-05	0.000148278
   3	0.000660662	-0.000702373	-0.00144137
   4	0.000865214	0.000141655	-0.000548989
   5	-0.000148753	-0.00035267	-0.000693053
   6	0.00012764	-0.000779406	-0.000435088
   7	-0.00108551	-0.000489805	0.00114568
   8	-0.000353124	-0.000128126	0.000210607
   9	-0.000272596	-0.000278396	-0.000271643
  10	-0.000283637	-0.00031597	-0.000443738
  11	-0.000202355	-0.000415346	-0.000516181
  12	-0.000265893	-0.000192975	0.000171533
  13	-0.000741906	8.80327e-05	0.000493875
  14	-5.07231e-06	-0.000623398	-0.000412933
  15	-0.000105871	0.000492073	0.000877956
  16	-3.38194e-05	0.000147599	0.000711342
  17	-0.000491274	0.000444826	0.000935887
  18	-0.000942835	1.02968e-05	0.000915761
  19	-0.000253644	0.00018166	0.000649967
  20	8.36806e-05	0.000483309	0.00148926
  21	0.000150407	0.000136498	0.000521257
  22	-0.00014611	0.000488131	0.000582987
  23	0.000412649	0.00109166	0.000435398
  24	0.00128222	0.00058601	-0.000759465
  25	0.000622238	0.000749607	3.01501e-05
  26	-0.000485325	-3.4111e-05	0.000476979
  27	-0.000820381	0.000897212	0.000843915
  28	0.000842463	0.00216119	0.000749398
  29	0.000608917	0.000167618	-0.000328095
  30	0.000162392	0.000120846	0.000489922
  31	-0.000178995	0.000349064	0.000703074
  32	0.000128399	0.000128631	8.09754e-05
  33	0.0010162	-0.000119158	-0.00116986
  34	0.000823607	0.00116576	-0.000348861
  35	0.000289432	-0.000438124	0.000649297
  36	0.000207819	-0.000299348	-0.000215439
  37	0.000303255	-0.000212876	-0.000229096
  38	0.000391793	-0.00032169	3.47144e-05
  39	0.000363363	-0.000154296	0.000276199
  40	0.000667039	2.6295e-05	0.000162972
  41	0.000212229	-0.000223431	-0.000890929
  42	0.000126627	-0.000302858	-0.000396138
  43	-0.000618073	-0.00113304	1.18321e-06
  44	-0.000432985	-0.000948801	0.000176218
  45	-0.00034311	-0.00103018	0.00108911
  46	-0.000219328	-0.000711906	0.00164463
  47	-0.00117932	-0.00115242	0.000366737
  48	-0.000791078	-0.00143033	-0.000578939
  49	-0.000830747	-0.00130937	-0.00012335
  50	0.000663168	-0.00032931	-0.000308297
  51	0.000143873	-0.00103177	-1.89445e-06
  52	0.000755494	-0.00183754	0.000218791
  53	0.000757288	-0.00140315	-0.000342419
  54	0.00100575	-0.000515028	-0.000388981
  55	0.00110436	-0.000214225	-0.000451826
  56	-0.000197705	-0.00105347	1.95623e-05
  57	-0.000322532	0.000360841	-0.000400192
  58	0.000261484	0.000361151	-0.00026008
  59	0.000375296	0.000515301	-0.000201098
  60	-0.000267576	0.001193	-0.000253989
  61	-0.0003705	0.000404565	-0.000409998
  62	-0.000463851	6.98416e-05	-0.000503752
  63	0.00050031	0.000771419	-0.000179666
  64	-0.000400541	0.000284001	-6.43797e-05
  65	-0.00043304	0.000512257	-0.000487672
  66	-0.00099056	0.00113832	-0.000594238
  67	-0.00160172	0.00107743	-5.82324e-05
  68	-0.000356434	0.000338086	0.000184903
  69	-0.000562009	-3.54254e-06	-7.39862e-05
  70	-0.000170335	0.000419004	-0.000980335
  71	-0.000255172	0.000179747	9.63202e-05
  72	-0.000324183	0.00030051	-0.000133732
  73	-0.000194039	0.000430933	-0.000188402
  74	-5.7283e-05	0.000214233	-0.00021854
  75	-5.29577e-05	0.000147716	0.000393388
  76	-0.000558658	-1.5405e-05	0.000178746
  77	-0.000414457	0.000279639	-0.000286853
  78	-0.000179424	-0.000388323	-0.000469714
  79	-0.000125829	0.000290416	-0.000202385
  80	-0.000103505	0.000690581	0.000356827
  81	-0.000191366	0.00066096	0.000507476
  82	-2.13187e-05	-0.000310175	-0.000898901
  83	-0.000167286	-0.000730687	-0.000478739
  84	0.000145974	0.000580826	-0.000664126
  85	-0.000664798	-0.000529704	-0.000284146
  86	-0.000313852	-0.00048856	-0.000235665
  87	-0.000214031	-0.000387054	-6.06943e-05
  88	-0.0004112	0.000225066	-0.000538186
  89	-0.000810618	-0.00189528	-0.000368668
  90	-0.00195594	0.000134429	-0.000211715
  91	-0.000403645	-0.000530835	-0.000296084
  92	0.000448894	-8.56779e-05	-0.000374649
  93	0.000730532	0.000308771	-0.000254518
  94	0.000862435	0.00186135	-0.000108184
  95	0.00126032	0.00113215	-0.000635004
  96	0.000431756	-0.000172967	-0.00080211
  97	0.000459939	-0.000116794	-0.000406612
  98	0.00186805	-0.000281054	-0.000188459
  99	0.000118624	-0.000321526	0.000366012
 100	0.000270683	-0.000470681	8.99288e-05
 101	0.000553147	-0.0011248	-2.78146e-05
 102	0.000349481	-0.000718499	-3.88505e-05
 103	-3.86857e-05	-0.000181555	0.000772679
 104	0.000564573	-0.00035839	0.000539261
 105	0.000107217	-0.000432535	0.000497757
 106	7.71825e-05	-0.000170505	-0.000107684
 107	-0.000342472	-0.000345714	0.000230527
 108	-0.000350239	-0.000525602	0.00081495
 109	-0.00059133	-0.00079442	0.000728702
 110	0.000892684	0.000280854	-5.71408e-06
 111	-6.17124e-05	-0.0001816	-0.000976742
 112	-0.000823247	-0.000369808	1.64578e-05
 113	0.000629687	0.000374395	0.000529551
 114	-7.32408e-05	-0.000407108	0.00071327
 115	0.000331396	-0.000531752	0.00175088
 116	-9.62422e-05	-0.00104486	0.00163601
 117	0.000270654	0.00126292	0.0005418
 118	0.00151082	0.000372768	0.000357426
 119	-0.000759343	-0.00101046	0.000738164
 120	0.000182093	0.00017226	0.000488993
 121	0.000837292	0.000224368	0.000521109
 122	0.00139571	-0.000465623	0.000335169
 123	0.00136945	-0.000516457	0.000356667
 124	0.000652616	0.000167851	0.00138193
 125	-0.000954086	0.000143056	0.000674553
 126	0.00118406	0.000751774	0.000764716
 127	-0.00038051	0.00057344	0.000720909
 128	0.000599506	1.79068e-05	-0.000833627
 129	-0.000178564	0.000479746	-0.00346012
 130	0.00101783	0.000280758	-0.00423545
 131	-0.00146494	0.00151733	0.000823625
 132	3.15796e-07	3.21481e-05	0.00204751
 133	0.00246833	-0.000987522	-0.000875528
 134	-0.000753353	0.000704293	0.00177656
 135	-0.000169688	0.000401149	0.000337576
 136	-0.000916868	0.00103021	-0.00129019
 137	-0.00104406	0.000912961	-0.00255306
 138	-0.000105963	0.000339528	0.00315892
 139	-0.00215789	0.00133459	0.00209627
 140	0.000958882	-0.000478335	0.000125208
 141	-0.000321813	0.000475488	6.45638e-05
 142	-0.000409468	0.000649182	0.000858356
 143	-0.000566168	0.000338689	0.000740409
 144	-0.0012391	0.000375747	-6.01558e-05
 145	-0.000629617	-0.000216777	0.000111372
 146	-0.000138269	0.000959013	8.34336e-05
 147	-0.000142812	0.00124553	0.000884574
 148	0.000417753	0.000399954	-6.50373e-05
 149	4.51504e-05	0.000355786	-0.00117441
 150	0.00178646	-6.09686e-05	-0.00244816
 151	4.50125e-05	-0.000956194	-0.00300942
 152	0.000592686	0.000418251	0.000361695
 153	0.000473874	0.00109918	8.31749e-06
 154	-0.00123321	0.000521225	-0.00222373
 155	0.00148145	-4.0179e-05	0.00108633
 156	0.000505945	-0.000399397	0.000271773
 157	-0.000227477	-1.15249e-05	-0.000544961
 158	-0.00099218	-0.000423273	-0.000533919
 159	0.00196167	-0.000513215	0.00289376
 160	0.00296322	0.00112225	0.000415736
 161	0.000313271	-0.00153626	0.000474664
 162	0.000172693	-0.000437539	0.000474895
 163	-0.000153626	-0.000460243	0.000115565
 164	-0.00023277	8.43724e-06	-0.00225065
 165	-0.000212447	4.92118e-05	-0.0025927
 166	0.00024206	-0.000659262	0.00070424
 167	0.000470229	-0.000251672	0.00042041
 168	-0.00165663	-0.00111403	0.000697344
 169	-0.000161687	-0.000899647	0.000249875
 170	-1.85286e-05	-0.000341534	0.000330656
 171	-0.000365147	4.96828e-05	-0.000149711
 172	-0.000231329	0.000504031	-0.000183688
 173	-0.000385102	-0.00130746	-0.000156453
 174	8.90956e-05	-0.00125465	0.000714281
 175	0.000369556	-8.14834e-05	0.000592609
 176	-0.000517448	0.000202193	-0.000685762
 177	-0.000573001	-0.000453583	-0.000128026
 178	-0.000351201	-0.000652932	0.000104019
 179	-0.000363902	-0.000574682	-0.000205766
 180	-0.000659704	7.576e-05	-0.000799674
 181	-0.000674222	0.000421045	-0.000921806
 182	-0.00121602	-0.000447557	1.12327e-05
 183	7.02193e-05	0.00232852	-0.000155587
 184	5.9652e-05	0.00056787	-0.000583047
 185	-0.000412935	-0.000306176	-0.000888763
 186	-2.48394e-05	-0.00140123	-0.00153636
 187	0.0011352	0.00375994	0.00139867
 188	-0.000985071	0.00381982	-0.0016911
 189	0.0011047	0.000380796	-0.000940223
 190	-0.000667318	-0.000387422	0.000623131
 191	-9.31573e-05	0.000852767	-2.76403e-05
 192	0.000778961	0.000391423	-0.000836124
 193	0.00148775	-0.000291535	-0.0034517
 194	-0.00166119	-0.000130285	0.000916403
 195	-0.000667657	-0.000987584	0.000831217
 196	-0.000616859	0.00109295	0.000291972
 197	-9.41491e-05	-0.00114926	0.000440689
 198	-0.00022974	-0.00101004	0.00081783
 199	-0.000337722	-0.000781959	0.00111587
 200	-0.000433294	-0.00132103	0.000571415
 201	-6.85821e-05	-0.00265388	-0.000805143
 202	-0.000784074	-0.00137659	0.00198181
 203	-0.00011451	-0.00128438	0.00102112
 204	0.000883505	0.000391241	2.67741e-05
 205	0.00128845	0.00151091	-0.00045035
 206	0.00167781	0.00238017	-0.00464324
 207	-0.00434665	0.00239302	0.000183714
 208	0.00099743	-0.000479636	0.000489517
 209	0.000105379	5.38742e-05	-0.00092108
 210	0.00242117	0.00374516	0.00116296
 211	-0.00049807	0.000723084	-0.00102081
 212	0.000993352	0.000489183	0.000236826
 213	0.00158187	-0.000776622	0.000551741
 214	0.000322473	-0.00552582	0.00258709
 215	-0.00129148	0.00226212	-0.00123615
 216	-0.000894906	-0.000225841	-0.00204347
 217	0.00146228	0.00161862	0.000763782
 218	-0.000236618	-2.92039e-05	-0.00214464
 219	-0.000225832	0.000168241	-0.000967598
 220	-0.000142781	0.000843767	-2.18093e-05
 221	-0.000512735	-0.00107502	0.00139294
 222	0.00121592	0.000510686	-0.00242551
 223	-0.000689992	-0.000623718	-0.00372371
 224	0.000154499	-0.000512917	-0.000906404
 225	-0.00172493	-0.00036784	0.000104299
 226	-0.00128162	-0.000331888	-0.000975395
 227	-0.00203553	0.000319207	-0.00105322
 228	-0.00236272	0.00053121	-0.00113284
 229	-0.00260082	-0.000664327	-5.45488e-05
 230	-0.0018402	-2.25563e-05	0.000134325
 231	-0.000820093	-0.000700898	-0.000260526
 232	0.000448227	0.000310194	0.000798209
 233	-0.00116064	0.00090184	0.000603629
 234	-0.00210333	0.00211826	0.000129
 235	0.00290381	-0.0055844	0.00377817
 236	0.00133176	0.00180768	0.000405743
 237	0.00134786	-0.000239252	0.000951151
 238	-0.000305718	0.000922301	0.000883036
 239	0.00161462	-0.000571637	0.00149534
 240	8.10325e-06	-0.000575802	0.00138766
 241	-0.00029262	-0.00183059	0.00134796
 242	0.000219773	0.00101727	-0.000538793
 243	-0.00218454	-0.00522336	-0.000981086
 244	1.06582e-05	0.00414803	0.00634966
 245	-0.00105335	9.42877e-05	0.00149247
 246	0.000851754	0.0011127	0.000761649
 247	0.0087129	-0.000774343	-0.000420544

Bonds

   1	3	1	2
   2	2	1	5
   3	2	1	6
   4	4	2	3
   5	5	2	7
   6	1	3	4
   7	3	8	9
   8	2	8	12
   9	2	8	13
  10	4	9	10
  11	5	9	14
  12	1	10	11
  13	3	1	9
  14	3	15	16
  15	2	15	19
  16	2	15	20
  17	4	16	17
  18	5	16	21
  19	1	17	18
  20	3	8	16
  21	3	22	23
  22	2	22	26
  23	2	22	27
  24	4	23	24
  25	5	23	28
  26	1	24	25
  27	3	15	23
  28	3	29	30
  29	2	29	33
  30	2	29	34
  31	4	30	31
  32	5	30	35
  33	1	31	32
  34	3	22	30
  35	3	36	37
  36	2	36	40
  37	2	36	41
  38	4	37	38
  39	5	37	42
  40	1	38	39
  41	3	29	37
  42	3	43	44
  43	2	43	47
  44	2	43	48
  45	4	44	45
  46	5	44	49
  47	1	45	46
  48	3	36	44
  49	3	50	51
  50	2	50	54
  51	2	50	55
  52	4	51	52
  53	5	51	56
  54	1	52	53
  55	3	43	51
  56	3	57	58
  57	2	57	61
  58	2	57	62
  59	4	58	59
  60	5	58	63
  61	1	59	60
  62	3	50	58
  63	3	64	65
  64	2	64	68
  65	2	64	69
  66	4	65	66
  67	5	65	70
  68	1	66	67
  69	3	57	65
  70	3	71	72
  71	2	71	75
  72	2	71	76
  73	4	72	73
  74	5	72	77
  75	1	73	74
  76	3	64	72
  77	3	78	79
  78	2	78	82
  79	2	78	83
  80	4	79	80
  81	5	79	84
  82	1	80	81
  83	3	71	79
  84	3	85	86
  85	2	85	89
  86	2	85	90
  87	4	86	87
  88	5	86	91
  89	1	87	88
  90	3	78	86
  91	3	92	93
  92	2	92	96
  93	2	92	97
  94	4	93	94
  95	5	93	98
  96	1	94	95
  97	3	85	93
  98	3	99	100
  99	2	99	103
 100	2	99	104
 101	4	100	101
 102	5	100	105
 103	1	101	102
 104	3	92	100
 105	3	106	107
 106	2	106	110
 107	2	106	111
 108	4	107	108
 109	5	107	112
 110	1	108	109
 111	3	99	107
 112	3	113	114
 113	2	113	117
 114	2	113	118
 115	4	114	115
 116	5	114	119
 117	1	115	116
 118	3	106	114
 119	3	120	121
 120	2	120	124
 121	2	120	125
 122	4	121	122
 123	5	121	126
 124	1	122	123
 125	3	113	121
 126	3	127	128
 127	2	127	131
 128	2	127	132
 129	4	128	129
 130	5	128	133
 131	1	129	130
 132	3	120	128
 133	3	134	135
 134	2	134	138
 135	2	134	139
 136	4	135	136
 137	5	135	140
 138	1	136	137
 139	3	127	135
 140	3	141	142
 141	2	141	145
 142	2	141	146
 143	4	142	143
 144	5	142	147
 145	1	143	144
 146	3	134	142
 147	3	148	149
 148	2	148	152
 149	2	148	153
 150	4	149	150
 151	5	149	154
 152	1	150	151
 153	3	141	149
 154	3	155	156
 155	2	155	159
 156	2	155	160
 157	4	156	157
 158	5	156	161
 159	1	157	158
 160	3	148	156
 161	3	162	163
 162	2	162	166
 163	2	162	167
 164	4	163	164
 165	5	163	168
 166	1	164	165
 167	3	155	163
 168	3	169	170
 169	2	169	173
 170	2	169	174
 171	4	170	171
 172	5	170	175
 173	1	171	172
 174	3	162	170
 175	3	176	177
 176	2	176	180
 177	2	176	181
 178	4	177	178
 179	5	177	182
 180	1	178	179
 181	3	169	177
 182	3	183	184
 183	2	183	187
 184	2	183	188
 185	4	184	185
 186	5	184	189
 187	1	185	186
 188	3	176	184
 189	3	190	191
 190	2	190	194
 191	2	190	195
 192	4	191	192
 193	5	191	196
 194	1	192	193
 195	3	183	191
 196	3	197	198
 197	2	197	201
 198	2	197	202
 199	4	198	199
 200	5	198	203
 201	1	199	200
 202	3	190	198
 203	3	204	205
 204	2	204	208
 205	2	204	209
 206	4	205	206
 207	5	205	210
 208	1	206	207
 209	3	197	205
 210	3	211	212
 211	2	211	215
 212	2	211	216
 213	4	212	213
 214	5	212	217
 215	1	213	214
 216	3	204	212
 217	3	218	219
 218	2	218	222
 219	2	218	223
 220	4	219	220
 221	5	219	224
 222	1	220	221
 223	3	211	219
 224	3	225	226
 225	2	225	229
 226	2	225	230
 227	4	226	227
 228	5	226	231
 229	1	227	228
 230	3	218	226
 231	3	232	233
 232	2	232	236
 233	2	232	237
 234	4	233	234
 235	5	233	238
 236	1	234	235
 237	3	225	233
 238	3	239	240
 239	2	239	243
 240	2	239	244
 241	4	240	241
 242	5	240	245
 243	1	241	242
 244	3	232	240
 245	5	2	246
 246	2	239	247

Angles

   1	2	2	1	5
   2	2	2	1	6
   3	5	5	1	6
   4	1	1	2	3
   5	4	1	2	7
   6	3	3	2	7
   7	7	2	3	4
   8	2	9	8	12
   9	2	9	8	13
  10	5	12	8	13
  11	1	8	9	10
  12	4	8	9	14
  13	3	10	9	14
  14	7	9	10	11
  15	8	2	1	9
  16	2	5	1	9
  17	2	6	1	9
  18	8	1	9	8
  19	1	1	9	10
  20	4	1	9	14
  21	2	16	15	19
  22	2	16	15	20
  23	5	19	15	20
  24	1	15	16	17
  25	4	15	16	21
  26	3	17	16	21
  27	7	16	17	18
  28	8	9	8	16
  29	2	12	8	16
  30	2	13	8	16
  31	8	8	16	15
  32	1	8	16	17
  33	4	8	16	21
  34	2	23	22	26
  35	2	23	22	27
  36	5	26	22	27
  37	1	22	23	24
  38	4	22	23	28
  39	3	24	23	28
  40	7	23	24	25
  41	8	16	15	23
  42	2	19	15	23
  43	2	20	15	23
  44	8	15	23	22
  45	1	15	23	24
  46	4	15	23	28
  47	2	30	29	33
  48	2	30	29	34
  49	5	33	29	34
  50	1	29	30	31
  51	4	29	30	35
  52	3	31	30	35
  53	7	30	31	32
  54	8	23	22	30
  55	2	26	22	30
  56	2	27	22	30
  57	8	22	30	29
  58	1	22	30	31
  59	4	22	30	35
  60	2	37	36	40
  61	2	37	36	41
  62	5	40	36	41
  63	1	36	37	38
  64	4	36	37	42
  65	3	38	37	42
  66	7	37	38	39
  67	8	30	29	37
  68	2	33	29	37
  69	2	34	29	37
  70	8	29	37	36
  71	1	29	37	38
  72	4	29	37	42
  73	2	44	43	47
  74	2	44	43	48
  75	5	47	43	48
  76	1	43	44	45
  77	4	43	44	49
  78	3	45	44	49
  79	7	44	45	46
  80	8	37	36	44
  81	2	40	36	44
  82	2	41	36	44
  83	8	36	44	43
  84	1	36	44	45
  85	4	36	44	49
  86	2	51	50	54
  87	2	51	50	55
  88	5	54	50	55
  89	1	50	51	52
  90	4	50	51	56
  91	3	52	51	56
  92	7	51	52	53
  93	8	44	43	51
  94	2	47	43	51
  95	2	48	43	51
  96	8	43	51	50
  97	1	43	51	52
  98	4	43	51	56
  99	2	58	57	61
 100	2	58	57	62
 101	5	61	57	62
 102	1	57	58	59
 103	4	57	58	63
 104	3	59	58	63
 105	7	58	59	60
 106	8	51	50	58
 107	2	54	50	58
 108	2	55	50	58
 109	8	50	58	57
 110	1	50	58	59
 111	4	50	58	63
 112	2	65	64	68
 113	2	65	64	69
 114	5	68	64	69
 115	1	64	65	66
 116	4	64	65	70
 117	3	66	65	70
 118	7	65	66	67
 119	8	58	57	65
 120	2	61	57	65
 121	2	62	57	65
 122	8	57	65	64
 123	1	57	65	66
 124	4	57	65	70
 125	2	72	71	75
 126	2	72	71	76
 127	5	75	71	76
 128	1	71	72	73
 129	4	71	72	77
 130	3	73	72	77
 131	7	72	73	74
 132	8	65	64	72
 133	2	68	64	72
 134	2	69	64	72
 135	8	64	72	71
 136	1	64	72	73
 137	4	64	72	77
 138	2	79	78	82
 139	2	79	78	83
 140	5	82	78	83
 141	1	78	79	80
 142	4	78	79	84
 143	3	80	79	84
 144	7	79	80	81
 145	8	72	71	79
 146	2	75	71	79
 147	2	76	71	79
 148	8	71	79	78
 149	1	71	79	80
 150	4	71	79	84
 151	2	86	85	89
 152	2	86	85	90
 153	5	89	85	90
 154	1	85	86	87
 155	4	85	86	91
 156	3	87	86	91
 157	7	86	87	88
 158	8	79	78	86
 159	2	82	78	86
 160	2	83	78	86
 161	8	78	86	85
 162	1	78	86	87
 163	4	78	86	91
 164	2	93	92	96
 165	2	93	92	97
 166	5	96	92	97
 167	1	92	93	94
 168	4	92	93	98
 169	3	94	93	98
 170	7	93	94	95
 171	8	86	85	93
 172	2	89	85	93
 173	2	90	85	93
 174	8	85	93	92
 175	1	85	93	94
 176	4	85	93	98
 177	2	100	99	103
 178	2	100	99	104
 179	5	103	99	104
 180	1	99	100	101
 181	4	99	100	105
 182	3	101	100	105
 183	7	100	101	102
 184	8	93	92	100
 185	2	96	92	100
 186	2	97	92	100
 187	8	92	100	99
 188	1	92	100	101
 189	4	92	100	105
 190	2	107	106	110
 191	2	107	106	111
 192	5	110	106	111
 193	1	106	107	108
 194	4	106	107	112
 195	3	108	107	112
 196	7	107	108	109
 197	8	100	99	107
 198	2	103	99	107
 199	2	104	99	107
 200	8	99	107	106
 201	1	99	107	108
 202	4	99	107	112
 203	2	114	113	117
 204	2	114	113	118
 205	5	117	113	118
 206	1	113	114	115
 207	4	113	114	119
 208	3	115	114	119
 209	7	114	115	116
 210	8	107	106	114
 211	2	110	106	114
 212	2	111	106	114
 213	8	106	114	113
 214	1	106	114	115
 215	4	106	114	119
 216	2	121	120	124
 217	2	121	120	125
 218	5	124	120	125
 219	1	120	121	122
 220	4	120	121	126
 221	3	122	121	126
 222	7	121	122	123
 223	8	114	113	121
 224	2	117	113	121
 225	2	118	113	121
 226	8	113	121	120
 227	1	113	121	122
 228	4	113	121	126
 229	2	128	127	131
 230	2	128	127	132
 231	5	131	127	132
 232	1	127	128	129
 233	4	127	128	133
 234	3	129	128	133
 235	7	128	129	130
 236	8	121	120	128
 237	2	124	120	128
 238	2	125	120	128
 239	8	120	128	127
 240	1	120	128	129
 241	4	120	128	133
 242	2	135	134	138
 243	2	135	134	139
 244	5	138	134	139
 245	1	134	135	136
 246	4	134	135	140
 247	3	136	135	140
 248	7	135	136	137
 249	8	128	127	135
 250	2	131	127	135
 251	2	132	127	135
 252	8	127	135	134