pySIMM System Object

163 atoms
162 bonds
299 angles
474 dihedrals
0 impropers

5 atom types
5 bond types
8 angle types
6 dihedral types

-73.831883 73.831883 xlo xhi
-73.831883 73.831883 ylo yhi
-73.831883 73.831883 zlo zhi

Masses

   1	12.01	# c3
   2	1.008	# hc
   3	16.0	# oh
   4	1.008	# ho
   5	1.008	# h1

Pair Coeffs

   1	0.1094	3.3996695084235347	# c3
   2	0.0157	2.649532787749369	# hc
   3	0.2104	3.0664733878390478	# oh
   4	0.0047	0.5379246460131368	# ho
   5	0.0157	2.471353044121301	# h1

Bond Coeffs

   1	371.4	0.973	# ho,oh
   2	330.6	1.0969	# c3,hc
   3	300.9	1.5375	# c3,c3
   4	316.7	1.4233	# c3,oh
   5	330.6	1.0969	# c3,h1

Angle Coeffs

   1	67.47	110.19	# c3,c3,oh
   2	46.34	109.8	# c3,c3,hc
   3	50.93	110.26	# h1,c3,oh
   4	46.39	109.56	# c3,c3,h1
   5	39.4	107.58	# hc,c3,hc
   6	39.24	108.46	# h1,c3,h1
   7	47.38	107.26	# c3,oh,ho
   8	62.86	111.51	# c3,c3,c3

Dihedral Coeffs

   1	2	0.0	3	0	0.25	1	0	# hc,c3,c3,oh
   2	1	0.16666666666666666	3	0	# X,c3,oh,X
   3	1	0.15555555555555556	3	0	# X,c3,c3,X
   4	2	0.16	3	0	0.25	1	0	# ho,oh,c3,c3
   5	1	0.16	3	0	# hc,c3,c3,c3
   6	3	0.18	3	0	0.25	2	180	0.2	1	180	# c3,c3,c3,c3

Atoms

   1	1	1	-0.02562	-8.88394	10.4325	-2.66193
   2	1	1	0.401389	-9.51922	11.7728	-3.0838
   3	1	3	-0.707077	-9.22841	12.7938	-2.13162
   4	1	4	0.414767	-9.83166	13.5356	-2.33333
   5	1	2	-0.013868	-9.19303	9.66145	-3.37935
   6	1	2	-0.001701	-9.27431	10.1268	-1.68214
   7	1	5	-0.06789	-9.13462	12.0712	-4.06551
   8	1	1	-0.02562	-6.68905	9.11499	-2.46524
   9	1	1	0.401389	-7.34201	10.5091	-2.62229
  10	1	3	-0.707077	-6.92318	11.3686	-1.56369
  11	1	4	0.414767	-7.59652	12.1016	-1.57172
  12	1	2	-0.013868	-7.02496	8.47134	-3.28875
  13	1	2	-0.001701	-7.02524	8.63977	-1.53353
  14	1	5	-0.06789	-7.00337	10.9354	-3.57339
  15	1	1	-0.02562	-4.42973	7.88171	-2.80339
  16	1	1	0.401389	-5.14674	9.21824	-2.48998
  17	1	3	-0.707077	-4.6872	9.74969	-1.25108
  18	1	4	0.414767	-5.26639	10.5489	-1.12078
  19	1	2	-0.013868	-3.36095	8.08146	-2.95774
  20	1	2	-0.001701	-4.80575	7.50597	-3.76415
  21	1	5	-0.06789	-4.87635	9.91765	-3.28916
  22	1	1	-0.02562	-3.86123	5.4823	-2.17035
  23	1	1	0.401389	-4.59455	6.77399	-1.73309
  24	1	3	-0.707077	-4.07733	7.21106	-0.479387
  25	1	4	0.414767	-4.20234	8.20304	-0.498823
  26	1	2	-0.013868	-2.78549	5.68213	-2.26913
  27	1	2	-0.001701	-4.21656	5.20501	-3.17152
  28	1	5	-0.06789	-5.66188	6.55369	-1.62055
  29	1	1	-0.02562	-3.33924	3.02272	-1.74758
  30	1	1	0.401389	-4.08399	4.27595	-1.22638
  31	1	3	-0.707077	-3.63629	4.57203	0.0944456
  32	1	4	0.414767	-3.73956	5.56369	0.167122
  33	1	2	-0.013868	-3.57274	2.89331	-2.81271
  34	1	2	-0.001701	-2.25411	3.18021	-1.68345
  35	1	5	-0.06789	-5.15867	4.06318	-1.19661
  36	1	1	-0.02562	-3.00461	0.490581	-1.59894
  37	1	1	0.401389	-3.72764	1.7243	-1.00361
  38	1	3	-0.707077	-3.42654	1.83149	0.386984
  39	1	4	0.414767	-3.46753	2.81234	0.56689
  40	1	2	-0.013868	-1.93666	0.51846	-1.3428
  41	1	2	-0.001701	-3.06522	0.536473	-2.694
  42	1	5	-0.06789	-4.8088	1.58668	-1.12026
  43	1	1	-0.02562	-2.96092	-2.07457	-1.78657
  44	1	1	0.401389	-3.63262	-0.842104	-1.13382
  45	1	3	-0.707077	-3.56207	-0.95305	0.283649
  46	1	4	0.414767	-3.46886	-0.0188681	0.61157
  47	1	2	-0.013868	-2.8725	-1.92214	-2.87091
  48	1	2	-0.001701	-1.93531	-2.16938	-1.41078
  49	1	5	-0.06789	-4.6892	-0.827611	-1.4279
  50	1	1	-0.02562	-2.98428	-4.69141	-1.66373
  51	1	1	0.401389	-3.77774	-3.36375	-1.51492
  52	1	3	-0.707077	-4.89826	-3.39539	-2.39639
  53	1	4	0.414767	-5.55512	-2.79315	-2.00845
  54	1	2	-0.013868	-3.70669	-5.51696	-1.60873
  55	1	2	-0.001701	-2.54707	-4.7479	-2.66986
  56	1	5	-0.06789	-4.18849	-3.32936	-0.502148
  57	1	1	-0.02562	-2.08707	-4.25391	0.758319
  58	1	1	0.401389	-1.88733	-4.97572	-0.594497
  59	1	3	-0.707077	-0.603232	-4.65692	-1.11404
  60	1	4	0.414767	-0.0143571	-4.70187	-0.320721
  61	1	2	-0.013868	-3.12519	-4.38242	1.09102
  62	1	2	-0.001701	-1.92723	-3.1845	0.601723
  63	1	5	-0.06789	-1.90118	-6.05377	-0.395062
  64	1	1	-0.02562	-1.40489	-3.99736	3.22326
  65	1	1	0.401389	-1.15877	-4.75524	1.8915
  66	1	3	-0.707077	0.220971	-4.66665	1.52234
  67	1	4	0.414767	0.494297	-3.78773	1.91024
  68	1	2	-0.013868	-0.764535	-4.41723	4.01061
  69	1	2	-0.001701	-2.43903	-4.19209	3.53808
  70	1	5	-0.06789	-1.39584	-5.81179	2.06286
  71	1	1	-0.02562	-1.54348	-1.75302	4.46878
  72	1	1	0.401389	-1.19299	-2.46116	3.13034
  73	1	3	-0.707077	0.153725	-2.19391	2.7385
  74	1	4	0.414767	0.155978	-1.24364	2.44049
  75	1	2	-0.013868	-0.681967	-1.78644	5.14944
  76	1	2	-0.001701	-2.32508	-2.33817	4.97031
  77	1	5	-0.06789	-1.85839	-2.08942	2.35381
  78	1	1	-0.02562	-1.05517	0.826977	4.60334
  79	1	1	0.401389	-2.08682	-0.29725	4.36543
  80	1	3	-0.707077	-2.78245	-0.0307328	3.15072
  81	1	4	0.414767	-3.72931	0.054138	3.37552
  82	1	2	-0.013868	-1.59712	1.78263	4.59372
  83	1	2	-0.001701	-0.652876	0.728339	5.61987
  84	1	5	-0.06789	-2.82408	-0.191495	5.16906
  85	1	1	-0.02562	0.75401	2.31952	3.65408
  86	1	1	0.401389	0.130858	0.904098	3.61086
  87	1	3	-0.707077	-0.252375	0.555374	2.27966
  88	1	4	0.414767	-1.24882	0.563463	2.27573
  89	1	2	-0.013868	0.0133623	3.05893	3.31959
  90	1	2	-0.001701	0.98384	2.56458	4.69982
  91	1	5	-0.06789	0.875254	0.173499	3.94293
  92	1	1	-0.02562	2.65693	3.88987	3.00884
  93	1	1	0.401389	2.03907	2.47503	2.81292
  94	1	3	-0.707077	2.97189	1.45635	3.16088
  95	1	4	0.414767	3.03007	0.863571	2.38091
  96	1	2	-0.013868	2.49904	4.22067	4.04447
  97	1	2	-0.001701	2.12381	4.6082	2.37174
  98	1	5	-0.06789	1.78849	2.35562	1.75334
  99	1	1	-0.02562	4.538	3.60153	1.25431
 100	1	1	0.401389	4.17311	3.95388	2.71316
 101	1	3	-0.707077	4.68528	5.25005	3.02061
 102	1	4	0.414767	4.37538	5.45309	3.9228
 103	1	2	-0.013868	4.46773	4.48898	0.609747
 104	1	2	-0.001701	3.83093	2.8688	0.849159
 105	1	5	-0.06789	4.67517	3.25438	3.38891
 106	1	1	-0.02562	6.30027	2.48435	-0.212206
 107	1	1	0.401389	5.95199	2.99713	1.19987
 108	1	3	-0.707077	6.90777	3.97218	1.60995
 109	1	4	0.414767	6.4106	4.58176	2.20602
 110	1	2	-0.013868	6.65705	3.32741	-0.820793
 111	1	2	-0.001701	5.40146	2.11182	-0.717942
 112	1	5	-0.06789	5.976	2.15843	1.90271
 113	1	1	-0.02562	6.91593	0.00831407	0.398807
 114	1	1	0.401389	7.37687	1.37629	-0.173323
 115	1	3	-0.707077	7.89205	1.18615	-1.48695
 116	1	4	0.414767	8.30479	2.03778	-1.71811
 117	1	2	-0.013868	6.73511	0.0914212	1.47816
 118	1	2	-0.001701	7.75925	-0.687995	0.301465
 119	1	5	-0.06789	8.20829	1.73209	0.445491
 120	1	1	-0.02562	5.74412	-2.13609	-0.421299
 121	1	1	0.401389	5.66663	-0.591691	-0.300747
 122	1	3	-0.707077	4.47842	-0.222792	0.407641
 123	1	4	0.414767	3.79253	-0.859485	0.09016
 124	1	2	-0.013868	6.6886	-2.39767	-0.915216
 125	1	2	-0.001701	5.77207	-2.60006	0.574148
 126	1	5	-0.06789	5.60428	-0.196001	-1.32042
 127	1	1	-0.02562	4.86711	-3.99874	-2.02647
 128	1	1	0.401389	4.55509	-2.68765	-1.24783
 129	1	3	-0.707077	3.41006	-2.78748	-0.399701
 130	1	4	0.414767	3.58284	-3.49846	0.248989
 131	1	2	-0.013868	5.93074	-3.99372	-2.30105
 132	1	2	-0.001701	4.33166	-3.96644	-2.9842
 133	1	5	-0.06789	4.33131	-1.93743	-2.0137
 134	1	1	-0.02562	3.07627	-5.80939	-1.6166
 135	1	1	0.401389	4.52578	-5.33119	-1.3092
 136	1	3	-0.707077	5.46677	-6.31611	-1.72499
 137	1	4	0.414767	6.30407	-6.11814	-1.27318
 138	1	2	-0.013868	2.37997	-4.98622	-1.41861
 139	1	2	-0.001701	2.97929	-6.02425	-2.68956
 140	1	5	-0.06789	4.65252	-5.17475	-0.232101
 141	1	1	-0.02562	3.01573	-8.4068	-1.40567
 142	1	1	0.401389	2.59162	-7.03889	-0.803376
 143	1	3	-0.707077	2.93932	-6.90264	0.573229
 144	1	4	0.414767	2.1575	-6.49191	0.997177
 145	1	2	-0.013868	4.05125	-8.38484	-1.75017
 146	1	2	-0.001701	2.4184	-8.55922	-2.3149
 147	1	5	-0.06789	1.4964	-7.03052	-0.83925
 148	1	1	-0.02562	4.02158	-10.0209	0.398116
 149	1	1	0.401389	2.78457	-9.60463	-0.445349
 150	1	3	-0.707077	2.25981	-10.7227	-1.15388
 151	1	4	0.414767	1.29252	-10.6447	-1.09796
 152	1	2	-0.013868	3.73096	-10.8477	1.06023
 153	1	2	-0.001701	4.28003	-9.18751	1.06325
 154	1	5	-0.06789	1.99425	-9.32053	0.25887
 155	1	1	-0.02562	5.15584	-11.7053	-1.24484
 156	1	1	0.401389	5.30008	-10.4296	-0.383236
 157	1	3	-0.707077	6.35465	-10.6254	0.555605
 158	1	4	0.414767	6.43885	-9.78334	1.03165
 159	1	2	-0.013868	4.56653	-11.507	-2.14839
 160	1	2	-0.001701	4.66784	-12.5107	-0.681072
 161	1	5	-0.06789	5.61087	-9.60745	-1.03447
 162	1	5	0	-10.6051	11.6451	-3.17169
 163	1	2	0	6.13929	-12.0662	-1.57267

Velocities

   1	0.000388827	-0.000922001	-0.000216411
   2	-0.000795223	-0.000918342	0.00161033
   3	5.23382e-05	-0.0013012	0.00161366
   4	0.00579295	0.00206953	-0.0031553
   5	0.00097418	-0.000158316	-0.00132429
   6	0.000903775	-0.00275529	-0.000685932
   7	-0.00232295	-0.000161077	0.00144616
   8	0.000349603	-0.000305734	-0.00104689
   9	0.000487357	-0.000385121	-0.000313703
  10	0.000346129	-0.000877784	0.000291937
  11	0.000110894	-0.00116208	0.000985378
  12	0.00102881	0.000212568	-0.0017268
  13	-0.000387592	-0.00106272	-0.0016809
  14	0.000245549	0.000300957	-8.12486e-05
  15	0.000731891	-7.25269e-05	0.000389155
  16	0.000422787	-0.000394534	0.000359477
  17	-0.000983924	-0.001103	0.00117505
  18	-0.00185362	-0.00167459	0.00141922
  19	0.000918739	2.95992e-05	0.00161101
  20	0.00171478	0.000274951	-0.000143355
  21	0.00109703	0.000140745	0.00104808
  22	0.0005965	-0.000144225	-0.000108014
  23	-0.00014487	-0.000703162	-0.000255507
  24	-0.00177618	-0.00108879	0.000462176
  25	-0.00172632	-0.00103354	0.000648537
  26	0.000672954	0.000217187	0.000834554
  27	0.00155432	-4.80588e-05	-0.000478461
  28	-0.000307447	-0.00103537	-0.0016517
  29	0.000604907	-0.000235769	-0.000653517
  30	0.000293017	-0.000437467	-0.000647121
  31	-0.000442388	-0.00079865	-0.00026965
  32	-0.00124955	-0.000946047	0.000171484
  33	0.000721503	-0.00025327	-0.000707602
  34	0.000604377	-0.000109261	-0.000520745
  35	0.000296701	-0.000611029	-0.00123232
  36	0.000474834	-0.000355349	-0.000609745
  37	0.000623318	-0.000258264	-0.000704669
  38	0.000581003	-0.000316823	-0.000684109
  39	-0.000178029	-0.000360357	-0.000447367
  40	0.000505974	-0.000390399	-0.000790058
  41	0.000252473	-0.000570891	-0.000582499
  42	0.000611914	-0.000206155	-0.000702728
  43	0.00021808	-0.000185962	0.000408219
  44	0.000222635	2.12911e-06	-0.000124067
  45	-0.000156719	0.000532329	-4.10051e-05
  46	-0.000674029	0.000772364	-0.000436126
  47	0.00065258	-0.000541328	0.000403113
  48	8.05935e-05	-0.000223342	0.000788727
  49	0.000309424	1.04534e-05	-0.000329001
  50	-0.000284087	3.80378e-05	-6.04645e-06
  51	-8.31516e-05	4.41366e-05	0.000466611
  52	-0.000393596	0.000407551	0.000860599
  53	-0.000269438	0.000221635	0.00141113
  54	-0.000178018	-3.48818e-05	0.000431618
  55	-0.000832878	0.000130689	-0.000256841
  56	0.000319688	-6.86882e-05	0.000659204
  57	0.000236059	-0.000333325	-0.000178622
  58	0.000464025	0.000491121	-0.000651591
  59	-0.000149381	0.00192912	-0.00123775
  60	0.000350182	0.00227867	-0.00160862
  61	0.000702799	-0.00235914	0.000512407
  62	-0.00206503	6.25829e-05	0.000154076
  63	0.00158793	0.000384915	-0.0011782
  64	0.00184039	0.000820227	-0.000714589
  65	0.00214847	0.00133846	-0.00101672
  66	0.0017153	0.00386328	-0.00222003
  67	0.000179228	0.0047527	-0.00289051
  68	0.00328848	0.00189946	-0.00131706
  69	0.00242978	-0.000935206	0.000177504
  70	0.004283	0.000926787	-0.000878914
  71	-0.000778097	0.000317672	-0.000156085
  72	-0.000796045	0.00113553	-0.000608419
  73	-0.00143043	0.00282596	-0.00156766
  74	-0.00254651	0.00343954	-0.000236808
  75	-0.000753095	-5.54919e-05	-0.000201493
  76	-0.00081704	-9.9994e-06	-0.000514892
  77	-0.00207466	0.000402137	0.000102142
  78	-0.00026263	4.29157e-05	0.000340108
  79	-0.000670402	0.000411574	0.000780985
  80	-0.00146359	0.00107611	0.00137385
  81	-0.00207895	-0.00500519	0.00119103
  82	0.000185534	0.000299573	-7.94995e-05
  83	-0.00034252	0.00027008	0.000429468
  84	-3.59476e-05	0.000364706	0.00140393
  85	6.28444e-05	-0.0011361	-0.000100263
  86	-0.000215405	-0.000888962	0.000375088
  87	-0.00039842	-0.000901304	0.000413097
  88	-0.000345368	0.0014319	-0.000210055
  89	0.00033448	-0.00134631	-0.00110121
  90	-0.000644026	-0.000554675	-9.51516e-05
  91	-0.00046756	-0.00100862	0.000769679
  92	0.000115389	-0.00154115	0.00022691
  93	0.000617551	-0.00181347	0.000672579
  94	0.000575416	-0.00135881	0.00214176
  95	0.0027434	-0.00101162	0.00203443
  96	9.19488e-05	-0.00139069	0.000155318
  97	-0.00033507	-0.00196178	0.00013527
  98	0.00134541	-0.00269678	0.000610069
  99	-0.000216574	-0.00148421	-4.46368e-06
 100	5.27832e-05	-0.000987688	-1.66915e-05
 101	-0.000298413	-0.000696556	-0.000636682
 102	0.00277793	-0.00176699	0.00072846
 103	-0.000977758	-0.00183597	-0.000386309
 104	9.18635e-06	-0.00203387	0.00058986
 105	0.000458073	-0.000576334	0.000118049
 106	-0.000474668	-0.00143044	-0.000340041
 107	9.57272e-05	-0.000800345	-0.000410731
 108	-0.00011478	-0.000151046	-0.00156819
 109	-0.000117861	0.000363964	-0.00214785
 110	-0.00107465	-0.00171565	-0.00100554
 111	-0.000733397	-0.00181044	0.000403871
 112	0.000818294	-0.000358572	0.000137932
 113	2.95194e-05	-0.000658941	0.00101932
 114	-0.000257502	-0.00129561	-0.000507781
 115	-0.00198509	-0.00304665	-0.000895974
 116	-0.000644269	-0.00390907	-0.00194301
 117	0.000285099	0.000289646	0.000977596
 118	-0.000144101	-0.000915717	0.00136628
 119	0.000484205	-0.00077812	-0.00182898
 120	0.000245179	-0.000106686	-0.000963399
 121	-0.000300345	-0.000354403	0.0014391
 122	0.00017246	-0.00120623	0.00268181
 123	-0.000719144	0.00108363	-9.53036e-05
 124	6.20132e-06	0.00109185	-0.00208975
 125	0.000995609	-0.00179648	-0.00178572
 126	-0.00134823	0.000922369	0.00200629
 127	-0.000775348	0.000331395	-0.000658923
 128	0.000153659	0.000922588	-0.00135644
 129	-0.000499009	0.00226034	-0.00214509
 130	-0.00133255	0.00281218	-0.0014132
 131	-0.00118281	0.000219391	-0.00229726
 132	-0.00228287	-0.000457031	0.000175379
 133	0.00146838	0.000924626	-0.00180961
 134	-0.000226394	0.00118925	0.0018568
 135	1.643e-05	0.000946749	0.00103106
 136	1.40563e-05	0.000774921	0.00172173
 137	0.000462143	0.00176457	0.000533988
 138	0.000156709	0.00126873	0.00222703
 139	-0.00065798	0.00126323	0.00190542
 140	0.000353387	0.00205764	0.000917077
 141	-0.000362759	0.00145485	0.00139955
 142	-0.000686993	0.00123921	0.00161688
 143	-0.00192745	0.00139604	0.00187639
 144	-0.000199463	0.00675437	6.06823e-05
 145	1.19471e-05	0.0016634	0.00204947
 146	0.000390545	0.00201044	0.000803085
 147	-0.000654659	0.00127155	0.000718953
 148	-0.00108099	0.000707243	0.000680343
 149	-0.000760576	0.000671516	0.000206717
 150	0.000550759	0.000930291	-0.00138954
 151	0.000583759	0.00162333	-0.00477123
 152	-0.00125364	0.00113909	0.00106967
 153	-0.000963742	0.00126816	6.61115e-05
 154	-0.00143592	-0.000291538	-0.000244994
 155	5.38189e-05	0.000498142	0.000384044
 156	-0.000793396	0.000176046	0.0010833
 157	-0.001272	-3.90955e-05	0.00143867
 158	0.0020534	0.0013892	-0.00168301
 159	-0.000496051	0.000462521	0.000835978
 160	0.00123107	-0.0002417	6.85937e-05
 161	-0.000272586	0.00028814	0.00151087
 162	-0.000845657	-0.00159022	0.00297778
 163	0.000210241	0.0018397	-0.000404207

Bonds

   1	3	1	2
   2	2	1	5
   3	2	1	6
   4	4	2	3
   5	5	2	7
   6	1	3	4
   7	3	8	9
   8	2	8	12
   9	2	8	13
  10	4	9	10
  11	5	9	14
  12	1	10	11
  13	3	1	9
  14	3	15	16
  15	2	15	19
  16	2	15	20
  17	4	16	17
  18	5	16	21
  19	1	17	18
  20	3	8	16
  21	3	22	23
  22	2	22	26
  23	2	22	27
  24	4	23	24
  25	5	23	28
  26	1	24	25
  27	3	15	23
  28	3	29	30
  29	2	29	33
  30	2	29	34
  31	4	30	31
  32	5	30	35
  33	1	31	32
  34	3	22	30
  35	3	36	37
  36	2	36	40
  37	2	36	41
  38	4	37	38
  39	5	37	42
  40	1	38	39
  41	3	29	37
  42	3	43	44
  43	2	43	47
  44	2	43	48
  45	4	44	45
  46	5	44	49
  47	1	45	46
  48	3	36	44
  49	3	50	51
  50	2	50	54
  51	2	50	55
  52	4	51	52
  53	5	51	56
  54	1	52	53
  55	3	43	51
  56	3	57	58
  57	2	57	61
  58	2	57	62
  59	4	58	59
  60	5	58	63
  61	1	59	60
  62	3	50	58
  63	3	64	65
  64	2	64	68
  65	2	64	69
  66	4	65	66
  67	5	65	70
  68	1	66	67
  69	3	57	65
  70	3	71	72
  71	2	71	75
  72	2	71	76
  73	4	72	73
  74	5	72	77
  75	1	73	74
  76	3	64	72
  77	3	78	79
  78	2	78	82
  79	2	78	83
  80	4	79	80
  81	5	79	84
  82	1	80	81
  83	3	71	79
  84	3	85	86
  85	2	85	89
  86	2	85	90
  87	4	86	87
  88	5	86	91
  89	1	87	88
  90	3	78	86
  91	3	92	93
  92	2	92	96
  93	2	92	97
  94	4	93	94
  95	5	93	98
  96	1	94	95
  97	3	85	93
  98	3	99	100
  99	2	99	103
 100	2	99	104
 101	4	100	101
 102	5	100	105
 103	1	101	102
 104	3	92	100
 105	3	106	107
 106	2	106	110
 107	2	106	111
 108	4	107	108
 109	5	107	112
 110	1	108	109
 111	3	99	107
 112	3	113	114
 113	2	113	117
 114	2	113	118
 115	4	114	115
 116	5	114	119
 117	1	115	116
 118	3	106	114
 119	3	120	121
 120	2	120	124
 121	2	120	125
 122	4	121	122
 123	5	121	126
 124	1	122	123
 125	3	113	121
 126	3	127	128
 127	2	127	131
 128	2	127	132
 129	4	128	129
 130	5	128	133
 131	1	129	130
 132	3	120	128
 133	3	134	135
 134	2	134	138
 135	2	134	139
 136	4	135	136
 137	5	135	140
 138	1	136	137
 139	3	127	135
 140	3	141	142
 141	2	141	145
 142	2	141	146
 143	4	142	143
 144	5	142	147
 145	1	143	144
 146	3	134	142
 147	3	148	149
 148	2	148	152
 149	2	148	153
 150	4	149	150
 151	5	149	154
 152	1	150	151
 153	3	141	149
 154	3	155	156
 155	2	155	159
 156	2	155	160
 157	4	156	157
 158	5	156	161
 159	1	157	158
 160	3	148	156
 161	5	2	162
 162	2	155	163

Angles

   1	2	2	1	5
   2	2	2	1	6
   3	5	5	1	6
   4	1	1	2	3
   5	4	1	2	7
   6	3	3	2	7
   7	7	2	3	4
   8	2	9	8	12
   9	2	9	8	13
  10	5	12	8	13
  11	1	8	9	10
  12	4	8	9	14
  13	3	10	9	14
  14	7	9	10	11
  15	8	2	1	9
  16	2	5	1	9
  17	2	6	1	9
  18	8	1	9	8
  19	1	1	9	10
  20	4	1	9	14
  21	2	16	15	19
  22	2	16	15	20
  23	5	19	15	20
  24	1	15	16	17
  25	4	15	16	21
  26	3	17	16	21
  27	7	16	17	18
  28	8	9	8	16
  29	2	12	8	16
  30	2	13	8	16
  31	8	8	16	15
  32	1	8	16	17
  33	4	8	16	21
  34	2	23	22	26
  35	2	23	22	27
  36	5	26	22	27
  37	1	22	23	24
  38	4	22	23	28
  39	3	24	23	28
  40	7	23	24	25
  41	8	16	15	23
  42	2	19	15	23
  43	2	20	15	23
  44	8	15	23	22
  45	1	15	23	24
  46	4	15	23	28
  47	2	30	29	33
  48	2	30	29	34
  49	5	33	29	34
  50	1	29	30	31
  51	4	29	30	35
  52	3	31	30	35
  53	7	30	31	32
  54	8	23	22	30
  55	2	26	22	30
  56	2	27	22	30
  57	8	22	30	29
  58	1	22	30	31
  59	4	22	30	35
  60	2	37	36	40
  61	2	37	36	41
  62	5	40	36	41
  63	1	36	37	38
  64	4	36	37	42
  65	3	38	37	42
  66	7	37	38	39
  67	8	30	29	37
  68	2	33	29	37
  69	2	34	29	37
  70	8	29	37	36
  71	1	29	37	38
  72	4	29	37	42
  73	2	44	43	47
  74	2	44	43	48
  75	5	47	43	48
  76	1	43	44	45
  77	4	43	44	49
  78	3	45	44	49
  79	7	44	45	46
  80	8	37	36	44
  81	2	40	36	44
  82	2	41	36	44
  83	8	36	44	43
  84	1	36	44	45
  85	4	36	44	49
  86	2	51	50	54
  87	2	51	50	55
  88	5	54	50	55
  89	1	50	51	52
  90	4	50	51	56
  91	3	52	51	56
  92	7	51	52	53
  93	8	44	43	51
  94	2	47	43	51
  95	2	48	43	51
  96	8	43	51	50
  97	1	43	51	52
  98	4	43	51	56
  99	2	58	57	61
 100	2	58	57	62
 101	5	61	57	62
 102	1	57	58	59
 103	4	57	58	63
 104	3	59	58	63
 105	7	58	59	60
 106	8	51	50	58
 107	2	54	50	58
 108	2	55	50	58
 109	8	50	58	57
 110	1	50	58	59
 111	4	50	58	63
 112	2	65	64	68
 113	2	65	64	69
 114	5	68	64	69
 115	1	64	65	66
 116	4	64	65	70
 117	3	66	65	70
 118	7	65	66	67
 119	8	58	57	65
 120	2	61	57	65
 121	2	62	57	65
 122	8	57	65	64
 123	1	57	65	66
 124	4	57	65	70
 125	2	72	71	75
 126	2	72	71	76
 127	5	75	71	76
 128	1	71	72	73
 129	4	71	72	77
 130	3	73	72	77
 131	7	72	73	74
 132	8	65	64	72
 133	2	68	64	72
 134	2	69	64	72
 135	8	64	72	71
 136	1	64	72	73
 137	4	64	72	77
 138	2	79	78	82
 139	2	79	78	83
 140	5	82	78	83
 141	1	78	79	80
 142	4	78	79	84
 143	3	80	79	84
 144	7	79	80	81
 145	8	72	71	79
 146	2	75	71	79
 147	2	76	71	79
 148	8	71	79	78
 149	1	71	79	80
 150	4	71	79	84
 151	2	86	85	89
 152	2	86	85	90
 153	5	89	85	90
 154	1	85	86	87
 155	4	85	86	91
 156	3	87	86	91
 157	7	86	87	88
 158	8	79	78	86
 159	2	82	78	86
 160	2	83	78	86
 161	8	78	86	85
 162	1	78	86	87
 163	4	78	86	91
 164	2	93	92	96
 165	2	93	92	97
 166	5	96	92	97
 167	1	92	93	94
 168	4	92	93	98
 169	3	94	93	98
 170	7	93	94	95
 171	8	86	85	93
 172	2	89	85	93
 173	2	90	85	93
 174	8	85	93	92
 175	1	85	93	94
 176	4	85	93	98
 177	2	100	99	103
 178	2	100	99	104
 179	5	103	99	104
 180	1	99	100	101
 181	4	99	100	105
 182	3	101	100	105
 183	7	100	101	102
 184	8	93	92	100
 185	2	96	92	100
 186	2	97	92	100
 187	8	92	100	99
 188	1	92	100	101
 189	4	92	100	105
 190	2	107	106	110
 191	2	107	106	111
 192	5	110	106	111
 193	1	106	107	108
 194	4	106	107	112
 195	3	108	107	112
 196	7	107	108	109
 197	8	100	99	107
 198	2	103	99	107
 199	2	104	99	107
 200	8	99	107	106
 201	1	99	107	108
 202	4	99	107	112
 203	2	114	113	117
 204	2	114	113	118
 205	5	117	113	118
 206	1	113	114	115
 207	4	113	114	119
 208	3	115	114	119
 209	7	114	115	116
 210	8	107	106	114
 211	2	110	106	114
 212	2	111	106	114
 213	8	106	114	113
 214	1	106	114	115
 215	4	106	114	119
 216	2	121	120	124
 217	2	121	120	125
 218	5	124	120	125
 219	1	120	121	122
 220	4	120	121	126
 221	3	122	121	126
 222	7	121	122	123
 223	8	114	113	121
 224	2	117	113	121
 225	2	118	113	121
 226	8	113	121	120
 227	1	113	121	122
 228	4	113	121	126
 229	2	128	127	131
 230	2	128	127	132
 231	5	131	127	132
 232	1	127	128	129
 233	4	127	128	133
 234	3	129	128	133
 235	7	128	129	130
 236	8	121	120	128
 237	2	124	120	128
 238	2	125	120	128
 239	8	120	128	127
 240	1	120	128	129
 241	4	120	128	133
 242	2	135	134	138
 243	2	135	134	139
 244	5	138	134	139
 245	1	134	135	136
 246	4	134	135	140
 247	3	136	135	140
 248	7	135	136	137
 249	8	128	127	135
 250	2	131	127	135
 251	2	132	127	135
 252	8	127	135	134
 253	1	127	135	136
 254	4	127	135	140
 255	2	142	141	145
 256	2	142	141	146
 257	5	145	141	146
 258	1	141	142	143
 259	4	141	142	147
 260	3	143	142	147
 261	7	142	143	144
 262	8	135	134	142
 263	2	138	134	142
 264	2	139	134	142
 265	8	134	142	141
 266	1	134	142	143
 267	4	134	142	147
 268	2	149	148	152
 269	2	149	148	153
 270	5	152	148	153
 271	1	148	149	150
 272	4	148	149	154
 273	3	150	149	154
 274	7	149	150	151
 275	8	142	141	149
 276	2	145	141	149
 277	2	146	141	149
 278	8	141	149	148
 279	1	141	149	150
 280	4	141	149	154
 281	2	156	155	159
 282	2	156	155	160
 283	5	159	155	160
 284	1	155	156	157
 285	4	155	156	161
 286	3	157	156	161
 287	7	156	157	158
 288	8	149	148	156
 289	2	152	148	156
 290	2	153	148	156
 291	8	148	156	155
 292	1	148	156	157
 293	4	148	156	161
 294	4	1	2	162
 295	3	3	2	162
 296	6	7	2	162
 297	2	156	155	163
 298	5	159	155	163
 299	5	160	155	163

Dihedrals

   1	1	5	1	2	3
   2	3	5	1	2	7
   3	1	6	1	2	3
   4	3	6	1	2	7
   5	4	1	2	3	4
   6	2	7	2	3	4
   7	1	12	8	9	10
   8	3	12	8	9	14
   9	1	13	8	9	10
  10	3	13	8	9	14
  11	4	8	9	10	11
  12	2	14	9	10	11
  13	3	3	2	1	9
  14	3	7	2	1	9
  15	5	1	9	8	12
  16	5	1	9	8	13
  17	4	1	9	10	11
  18	6	2	1	9	8
  19	3	2	1	9	10
  20	3	2	1	9	14
  21	5	5	1	9	8
  22	1	5	1	9	10
  23	3	5	1	9	14
  24	5	6	1	9	8
  25	1	6	1	9	10
  26	3	6	1	9	14
  27	1	19	15	16	17
  28	3	19	15	16	21
  29	1	20	15	16	17
  30	3	20	15	16	21
  31	4	15	16	17	18
  32	2	21	16	17	18
  33	3	10	9	8	16
  34	3	14	9	8	16
  35	6	1	9	8	16
  36	5	8	16	15	19
  37	5	8	16	15	20
  38	4	8	16	17	18
  39	6	9	8	16	15
  40	3	9	8	16	17
  41	3	9	8	16	21
  42	5	12	8	16	15
  43	1	12	8	16	17
  44	3	12	8	16	21
  45	5	13	8	16	15
  46	1	13	8	16	17
  47	3	13	8	16	21
  48	1	26	22	23	24
  49	3	26	22	23	28
  50	1	27	22	23	24
  51	3	27	22	23	28
  52	4	22	23	24	25
  53	2	28	23	24	25
  54	3	17	16	15	23
  55	3	21	16	15	23
  56	6	8	16	15	23
  57	5	15	23	22	26
  58	5	15	23	22	27
  59	4	15	23	24	25
  60	6	16	15	23	22
  61	3	16	15	23	24
  62	3	16	15	23	28
  63	5	19	15	23	22
  64	1	19	15	23	24
  65	3	19	15	23	28
  66	5	20	15	23	22
  67	1	20	15	23	24
  68	3	20	15	23	28
  69	1	33	29	30	31
  70	3	33	29	30	35
  71	1	34	29	30	31
  72	3	34	29	30	35
  73	4	29	30	31	32
  74	2	35	30	31	32
  75	3	24	23	22	30
  76	3	28	23	22	30
  77	6	15	23	22	30
  78	5	22	30	29	33
  79	5	22	30	29	34
  80	4	22	30	31	32
  81	6	23	22	30	29
  82	3	23	22	30	31
  83	3	23	22	30	35
  84	5	26	22	30	29
  85	1	26	22	30	31
  86	3	26	22	30	35
  87	5	27	22	30	29
  88	1	27	22	30	31
  89	3	27	22	30	35
  90	1	40	36	37	38
  91	3	40	36	37	42
  92	1	41	36	37	38
  93	3	41	36	37	42
  94	4	36	37	38	39
  95	2	42	37	38	39
  96	3	31	30	29	37
  97	3	35	30	29	37
  98	6	22	30	29	37
  99	5	29	37	36	40
 100	5	29	37	36	41
 101	4	29	37	38	39
 102	6	30	29	37	36
 103	3	30	29	37	38
 104	3	30	29	37	42
 105	5	33	29	37	36
 106	1	33	29	37	38
 107	3	33	29	37	42
 108	5	34	29	37	36
 109	1	34	29	37	38
 110	3	34	29	37	42
 111	1	47	43	44	45
 112	3	47	43	44	49
 113	1	48	43	44	45
 114	3	48	43	44	49
 115	4	43	44	45	46
 116	2	49	44	45	46
 117	3	38	37	36	44
 118	3	42	37	36	44
 119	6	29	37	36	44
 120	5	36	44	43	47
 121	5	36	44	43	48
 122	4	36	44	45	46
 123	6	37	36	44	43
 124	3	37	36	44	45
 125	3	37	36	44	49
 126	5	40	36	44	43
 127	1	40	36	44	45
 128	3	40	36	44	49
 129	5	41	36	44	43
 130	1	41	36	44	45
 131	3	41	36	44	49
 132	1	54	50	51	52
 133	3	54	50	51	56
 134	1	55	50	51	52
 135	3	55	50	51	56
 136	4	50	51	52	53
 137	2	56	51	52	53
 138	3	45	44	43	51
 139	3	49	44	43	51
 140	6	36	44	43	51
 141	5	43	51	50	54
 142	5	43	51	50	55
 143	4	43	51	52	53
 144	6	44	43	51	50
 145	3	44	43	51	52
 146	3	44	43	51	56
 147	5	47	43	51	50
 148	1	47	43	51	52
 149	3	47	43	51	56
 150	5	48	43	51	50
 151	1	48	43	51	52
 152	3	48	43	51	56
 153	1	61	57	58	59
 154	3	61	57	58	63
 155	1	62	57	58	59
 156	3	62	57	58	63
 157	4	57	58	59	60
 158	2	63	58	59	60
 159	3	52	51	50	58
 160	3	56	51	50	58
 161	6	43	51	50	58
 162	5	50	58	57	61
 163	5	50	58	57	62
 164	4	50	58	59	60
 165	6	51	50	58	57
 166	3	51	50	58	59
 167	3	51	50	58	63
 168	5	54	50	58	57
 169	1	54	50	58	59
 170	3	54	50	58	63
 171	5	55	50	58	57
 172	1	55	50	58	59
 173	3	55	50	58	63
 174	1	68	64	65	66
 175	3	68	64	65	70
 176	1	69	64	65	66
 177	3	69	64	65	70
 178	4	64	65	66	67
 179	2	70	65	66	67
 180	3	59	58	57	65
 181	3	63	58	57	65
 182	6	50	58	57	65
 183	5	57	65	64	68
 184	5	57	65	64	69
 185	4	57	65	66	67
 186	6	58	57	65	64
 187	3	58	57	65	66
 188	3	58	57	65	70
 189	5	61	57	65	64
 190	1	61	57	65	66
 191	3	61	57	65	70
 192	5	62	57	65	64
 193	1	62	57	65	66
 194	3	62	57	65	70
 195	1	75	71	72	73
 196	3	75	71	72	77
 197	1	76	71	72	73
 198	3	76	71	72	77
 199	4	71	72	73	74
 200	2	77	72	73	74
 201	3	66	65	64	72
 202	3	70	65	64	72
 203	6	57	65	64	72
 204	5	64	72	71	75
 205	5	64	72	71	76
 206	4	64	72	73	74
 207	6	65	64	72	71
 208	3	65	64	72	73
 209	3	65	64	72	77
 210	5	68	64	72	71
 211	1	68	64	72	73
 212	3	68	64	72	77
 213	5	69	64	72	71
 214	1	69	64	72	73
 215	3	69	64	72	77
 216	1	82	78	79	80
 217	3	82	78	79	84
 218	1	83	78	79	80
 219	3	83	78	79	84
 220	4	78	79	80	81
 221	2	84	79	80	81
 222	3	73	72	71	79
 223	3	77	72	71	79
 224	6	64	72	71	79
 225	5	71	79	78	82
 226	5	71	79	78	83
 227	4	71	79	80	81
 228	6	72	71	79	78
 229	3	72	71	79	80
 230	3	72	71	79	84
 231	5	75	71	79	78
 232	1	75	71	79	80
 233	3	75	71	79	84
 234	5	76	71	79	78
 235	1	76	71	79	80
 236	3	76	71	79	84
 237	1	89	85	86	87
 238	3	89	85	86	91
 239	1	90	85	86	87
 240	3	90	85	86	91
 241	4	85	86	87	88
 242	2	91	86	87	88
 243	3	80	79	78	86
 244	3	84	79	78	86
 245	6	71	79	78	86
 246	5	78	86	85	89
 247	5	78	86	85	90
 248	4	78	86	87	88
 249	6	79	78	86	85
 250	3	79	78	86	87
 251	3	79	78	86	91
 252	5	82	78	86	85
 253	1	82	78	86	87
 254	3	82	78	86	91
 255	5	83	78	86	85
 256	1	83	78	86	87
 257	3	83	78	86	91
 258	1	96	92	93	94
 259	3	96	92	93	98
 260	1	97	92	93	94
 261	3	97	92	93	98
 262	4	92	93	94	95
 263	2	98	93	94	95
 264	3	87	86	85	93
 265	3	91	86	85	93
 266	6	78	86	85	93
 267	5	85	93	92	96
 268	5	85	93	92	97
 269	4	85	93	94	95
 270	6	86	85	93	92
 271	3	86	85	93	94
 272	3	86	85	93	98
 273	5	89	85	93	92
 274	1	89	85	93	94
 275	3	89	85	93	98
 276	5	90	85	93	92
 277	1	90	85	93	94
 278	3	90	85	93	98
 279	1	103	99	100	101
 280	3	103	99	100	105
 281	1	104	99	100	101
 282	3	104	99	100	105
 283	4	99	100	101	102
 284	2	105	100	101	102
 285	3	94	93	92	100
 286	3	98	93	92	100
 287	6	85	93	92	100
 288	5	92	100	99	103
 289	5	92	100	99	104
 290	4	92	100	101	102
 291	6	93	92	100	99
 292	3	93	92	100	101
 293	3	93	92	100	105
 294	5	96	92	100	99
 295	1	96	92	100	101
 296	3	96	92	100	105
 297	5	97	92	100	99
 298	1	97	92	100	101
 299	3	97	92	100	105
 300	1	110	106	107	108
 301	3	110	106	107	112
 302	1	111	106	107	108
 303	3	111	106	107	112
 304	4	106	107	108	109
 305	2	112	107	108	109
 306	3	101	100	99	107
 307	3	105	100	99	107
 308	6	92	100	99	107
 309	5	99	107	106	110
 310	5	99	107	106	111
 311	4	99	107	108	109
 312	6	100	99	107	106
 313	3	100	99	107	108
 314	3	100	99	107	112
 315	5	103	99	107	106
 316	1	103	99	107	108
 317	3	103	99	107	112
 318	5	104	99	107	106
 319	1	104	99	107	108
 320	3	104	99	107	112
 321	1	117	113	114	115
 322	3	117	113	114	119
 323	1	118	113	114	115
 324	3	118	113	114	119
 325	4	113	114	115	116
 326	2	119	114	115	116
 327	3	108	107	106	114
 328	3	112	107	106	114
 329	6	99	107	106	114
 330	5	106	114	113	117
 331	5	106	114	113	118
 332	4	106	114	115	116
 333	6	107	106	114	113
 334	3	107	106	114	115
 335	3	107	106	114	119
 336	5	110	106	114	113
 337	1	110	106	114	115
 338	3	110	106	114	119
 339	5	111	106	114	113
 340	1	111	106	114	115
 341	3	111	106	114	119
 342	1	124	120	121	122
 343	3	124	120	121	126
 344	1	125	120	121	122
 345	3	125	120	121	126
 346	4	120	121	122	123
 347	2	126	121	122	123
 348	3	115	114	113	121
 349	3	119	114	113	121
 350	6	106	114	113	121
 351	5	113	121	120	124
 352	5	113	121	120	125
 353	4	113	121	122	123
 354	6	114	113	121	120
 355	3	114	113	121	122
 356	3	114	113	121	126
 357	5	117	113	121	120
 358	1	117	113	121	122
 359	3	117	113	121	126
 360	5	118	113	121	120
 361	1	118	113	121	122
 362	3	118	113	121	126
 363	1	131	127	128	129
 364	3	131	127	128	133
 365	1	132	127	128	129
 366	3	132	127	128	133
 367	4	127	128	129	130
 368	2	133	128	129	130
 369	3	122	121	120	128
 370	3	126	121	120	128
 371	6	113	121	120	128
 372	5	120	128	127	131
 373	5	120	128	127	132
 374	4	120	128	129	130
 375	6	121	120	128	127
 376	3	121	120	128	129
 377	3	121	120	128	133
 378	5	124	120	128	127
 379	1	124	120	128	129
 380	3	124	120	128	133
 381	5	125	120	128	127
 382	1	125	120	128	129
 383	3	125	120	128	133
 384	1	138	134	135	136
 385	3	138	134	135	140
 386	1	139	134	135	136