pySIMM System Object

338 atoms
337 bonds
624 angles
999 dihedrals
0 impropers

5 atom types
5 bond types
8 angle types
6 dihedral types

-95.090180 95.090180 xlo xhi
-95.090180 95.090180 ylo yhi
-95.090180 95.090180 zlo zhi

Masses

   1	12.01	# c3
   2	1.008	# hc
   3	16.0	# oh
   4	1.008	# ho
   5	1.008	# h1

Pair Coeffs

   1	0.1094	3.3996695084235347	# c3
   2	0.0157	2.649532787749369	# hc
   3	0.2104	3.0664733878390478	# oh
   4	0.0047	0.5379246460131368	# ho
   5	0.0157	2.471353044121301	# h1

Bond Coeffs

   1	371.4	0.973	# ho,oh
   2	330.6	1.0969	# c3,hc
   3	300.9	1.5375	# c3,c3
   4	316.7	1.4233	# c3,oh
   5	330.6	1.0969	# c3,h1

Angle Coeffs

   1	67.47	110.19	# c3,c3,oh
   2	46.34	109.8	# c3,c3,hc
   3	50.93	110.26	# h1,c3,oh
   4	46.39	109.56	# c3,c3,h1
   5	39.4	107.58	# hc,c3,hc
   6	39.24	108.46	# h1,c3,h1
   7	47.38	107.26	# c3,oh,ho
   8	62.86	111.51	# c3,c3,c3

Dihedral Coeffs

   1	2	0.0	3	0	0.25	1	0	# hc,c3,c3,oh
   2	1	0.16666666666666666	3	0	# X,c3,oh,X
   3	1	0.15555555555555556	3	0	# X,c3,c3,X
   4	2	0.16	3	0	0.25	1	0	# ho,oh,c3,c3
   5	1	0.16	3	0	# hc,c3,c3,c3
   6	3	0.18	3	0	0.25	2	180	0.2	1	180	# c3,c3,c3,c3

Atoms

   1	1	1	-0.02562	-6.60432	-19.4657	2.06711
   2	1	1	0.401389	-5.59722	-20.6199	2.24917
   3	1	3	-0.707077	-6.07512	-21.8223	1.64834
   4	1	4	0.414767	-5.42934	-22.519	1.87751
   5	1	2	-0.013868	-6.19859	-18.5732	2.56084
   6	1	2	-0.001701	-7.54412	-19.7082	2.58056
   7	1	5	-0.06789	-4.63957	-20.3462	1.7936
   8	1	1	-0.02562	-7.7507	-17.8767	0.423059
   9	1	1	0.401389	-6.87878	-19.1444	0.580923
  10	1	3	-0.707077	-7.51855	-20.254	-0.0466985
  11	1	4	0.414767	-7.10812	-21.0478	0.395725
  12	1	2	-0.013868	-7.24474	-17.0351	0.914502
  13	1	2	-0.001701	-8.70516	-18.02	0.946521
  14	1	5	-0.06789	-5.91746	-18.966	0.0865012
  15	1	1	-0.02562	-8.65081	-16.1243	-1.25106
  16	1	1	0.401389	-8.0002	-17.5182	-1.06164
  17	1	3	-0.707077	-8.8139	-18.5171	-1.6708
  18	1	4	0.414767	-8.43319	-19.371	-1.31825
  19	1	2	-0.013868	-8.66509	-15.8721	-2.31988
  20	1	2	-0.001701	-8.01378	-15.3713	-0.769042
  21	1	5	-0.06789	-7.02877	-17.5021	-1.5679
  22	1	1	-0.02562	-10.6431	-14.5826	-0.765369
  23	1	1	0.401389	-10.0844	-16.0208	-0.677214
  24	1	3	-0.707077	-10.9584	-16.9106	-1.36781
  25	1	4	0.414767	-10.3689	-17.6836	-1.60483
  26	1	2	-0.013868	-10.7158	-14.2647	-1.81447
  27	1	2	-0.001701	-9.93794	-13.8983	-0.275682
  28	1	5	-0.06789	-10.0565	-16.3036	0.380305
  29	1	1	-0.02562	-12.5183	-13.0014	-0.0166731
  30	1	1	0.401389	-12.0189	-14.4616	-0.073838
  31	1	3	-0.707077	-12.9893	-15.2562	-0.756015
  32	1	4	0.414767	-12.4563	-16.0429	-1.07755
  33	1	2	-0.013868	-11.7218	-12.3639	0.389331
  34	1	2	-0.001701	-12.7292	-12.6365	-1.0311
  35	1	5	-0.06789	-11.9164	-14.8315	0.952565
  36	1	1	-0.02562	-14.2697	-11.394	0.914056
  37	1	1	0.401389	-13.7724	-12.8557	0.873165
  38	1	3	-0.707077	-14.8149	-13.7154	0.402009
  39	1	4	0.414767	-14.3065	-14.3693	-0.169192
  40	1	2	-0.013868	-14.6449	-11.0975	-0.0730351
  41	1	2	-0.001701	-13.4203	-10.7341	1.13419
  42	1	5	-0.06789	-13.5023	-13.1623	1.88943
  43	1	1	-0.02562	-15.8753	-9.70906	1.97317
  44	1	1	0.401389	-15.3529	-11.1652	1.98986
  45	1	3	-0.707077	-16.4434	-12.0693	1.79474
  46	1	4	0.414767	-16.0044	-12.8244	1.30906
  47	1	2	-0.013868	-15.312	-9.11271	1.24457
  48	1	2	-0.001701	-16.9027	-9.71285	1.60375
  49	1	5	-0.06789	-14.8967	-11.3885	2.96005
  50	1	1	-0.02562	-16.9473	-8.08987	3.74582
  51	1	1	0.401389	-15.7804	-9.04325	3.36778
  52	1	3	-0.707077	-14.55	-8.32701	3.43485
  53	1	4	0.414767	-14.5599	-7.67197	2.70342
  54	1	2	-0.013868	-16.7585	-7.71729	4.76127
  55	1	2	-0.001701	-16.9278	-7.20661	3.09609
  56	1	5	-0.06789	-15.7535	-9.8269	4.13282
  57	1	1	-0.02562	-18.4316	-10.1795	4.2361
  58	1	1	0.401389	-18.3727	-8.71126	3.73173
  59	1	3	-0.707077	-18.9269	-8.58322	2.42457
  60	1	4	0.414767	-19.6994	-9.21738	2.43412
  61	1	2	-0.013868	-18.0363	-10.2181	5.25957
  62	1	2	-0.001701	-17.7738	-10.8031	3.63045
  63	1	5	-0.06789	-18.9988	-8.11245	4.40239
  64	1	1	-0.02562	-19.8741	-12.2709	4.72889
  65	1	1	0.401389	-19.8481	-10.8038	4.22707
  66	1	3	-0.707077	-20.4207	-10.7498	2.92132
  67	1	4	0.414767	-20.1371	-11.6023	2.50264
  68	1	2	-0.013868	-20.8998	-12.6531	4.6354
  69	1	2	-0.001701	-19.6493	-12.2767	5.80325
  70	1	5	-0.06789	-20.479	-10.2072	4.89521
  71	1	1	-0.02562	-19.2159	-14.7097	4.4026
  72	1	1	0.401389	-18.8921	-13.2432	4.0152
  73	1	3	-0.707077	-18.9393	-13.0476	2.59823
  74	1	4	0.414767	-18.0299	-12.6799	2.37981
  75	1	2	-0.013868	-20.2349	-14.9605	4.07843
  76	1	2	-0.001701	-19.2313	-14.7763	5.4984
  77	1	5	-0.06789	-17.8793	-13.0017	4.3519
  78	1	1	-0.02562	-18.3943	-16.1373	2.37825
  79	1	1	0.401389	-18.2335	-15.7915	3.88428
  80	1	3	-0.707077	-16.8925	-15.4541	4.22755
  81	1	4	0.414767	-16.3394	-15.9744	3.59552
  82	1	2	-0.013868	-18.383	-17.2298	2.26449
  83	1	2	-0.001701	-19.3894	-15.8261	2.04074
  84	1	5	-0.06789	-18.4848	-16.7097	4.42767
  85	1	1	-0.02562	-17.689	-15.5205	-0.0355881
  86	1	1	0.401389	-17.3018	-15.5356	1.46288
  87	1	3	-0.707077	-16.0764	-16.2419	1.65186
  88	1	4	0.414767	-15.4102	-15.7245	1.15225
  89	1	2	-0.013868	-16.7779	-15.6474	-0.636074
  90	1	2	-0.001701	-18.3454	-16.3659	-0.281081
  91	1	5	-0.06789	-17.1102	-14.5063	1.76747
  92	1	1	-0.02562	-18.4431	-13.9748	-1.96041
  93	1	1	0.401389	-18.3521	-14.1783	-0.430316
  94	1	3	-0.707077	-19.6531	-14.0604	0.132087
  95	1	4	0.414767	-19.5241	-13.7341	1.06009
  96	1	2	-0.013868	-19.4088	-14.3496	-2.32766
  97	1	2	-0.001701	-17.6733	-14.5676	-2.47199
  98	1	5	-0.06789	-17.7354	-13.3785	-0.0161195
  99	1	1	-0.02562	-16.7802	-12.0591	-2.25606
 100	1	1	0.401389	-18.2659	-12.4842	-2.33939
 101	1	3	-0.707077	-18.7507	-12.2753	-3.6601
 102	1	4	0.414767	-19.6944	-12.5211	-3.63696
 103	1	2	-0.013868	-16.184	-12.7412	-2.87815
 104	1	2	-0.001701	-16.4189	-12.1888	-1.23106
 105	1	5	-0.06789	-18.8595	-11.8666	-1.65664
 106	1	1	-0.02562	-17.1059	-9.52469	-1.76666
 107	1	1	0.401389	-16.487	-10.6069	-2.69626
 108	1	3	-0.707077	-15.0635	-10.4687	-2.77225
 109	1	4	0.414767	-14.7952	-11.0792	-3.48817
 110	1	2	-0.013868	-16.9609	-9.80138	-0.716239
 111	1	2	-0.001701	-18.1901	-9.49534	-1.93433
 112	1	5	-0.06789	-16.8743	-10.4494	-3.70788
 113	1	1	-0.02562	-17.3368	-6.92996	-1.50508
 114	1	1	0.401389	-16.5008	-8.12212	-2.03548
 115	1	3	-0.707077	-15.1717	-8.08796	-1.51695
 116	1	4	0.414767	-14.7845	-8.90158	-1.94778
 117	1	2	-0.013868	-18.3712	-7.05969	-1.85172
 118	1	2	-0.001701	-16.9881	-6.01236	-1.99594
 119	1	5	-0.06789	-16.4437	-8.00011	-3.123
 120	1	1	-0.02562	-16.5326	-5.47762	0.509133
 121	1	1	0.401389	-17.3089	-6.73958	0.0364535
 122	1	3	-0.707077	-18.6453	-6.64184	0.511363
 123	1	4	0.414767	-18.741	-7.3286	1.22805
 124	1	2	-0.013868	-17.0189	-4.58403	0.0951282
 125	1	2	-0.001701	-16.6106	-5.39163	1.60054
 126	1	5	-0.06789	-16.865	-7.62299	0.500165
 127	1	1	-0.02562	-14.3103	-4.1722	0.582722
 128	1	1	0.401389	-15.0375	-5.45716	0.112461
 129	1	3	-0.707077	-14.375	-6.61733	0.619216
 130	1	4	0.414767	-14.5767	-7.29684	-0.0906095
 131	1	2	-0.013868	-14.2767	-4.12788	1.67982
 132	1	2	-0.001701	-14.8865	-3.29967	0.248549
 133	1	5	-0.06789	-14.9744	-5.47704	-0.979946
 134	1	1	-0.02562	-12.2232	-2.69213	0.181654
 135	1	1	0.401389	-12.8811	-4.08339	-0.00657277
 136	1	3	-0.707077	-12.0581	-5.09295	0.575292
 137	1	4	0.414767	-12.6782	-5.85898	0.703482
 138	1	2	-0.013868	-12.9045	-1.92218	-0.20382
 139	1	2	-0.001701	-12.0765	-2.47931	1.24908
 140	1	5	-0.06789	-12.9545	-4.27331	-1.08334
 141	1	1	-0.02562	-10.2923	-1.15802	-0.615366
 142	1	1	0.401389	-10.8772	-2.59288	-0.578415
 143	1	3	-0.707077	-9.92436	-3.48013	-0.00902599
 144	1	4	0.414767	-10.4702	-4.25578	0.294688
 145	1	2	-0.013868	-10.1276	-0.801099	0.4103
 146	1	2	-0.001701	-11.0262	-0.479196	-1.06925
 147	1	5	-0.06789	-11.0637	-2.91174	-1.61015
 148	1	1	-0.02562	-8.39979	0.364005	-1.49434
 149	1	1	0.401389	-8.96171	-1.08006	-1.40942
 150	1	3	-0.707077	-9.14309	-1.61856	-2.72061
 151	1	4	0.414767	-9.27262	-2.57896	-2.57187
 152	1	2	-0.013868	-8.21814	0.727588	-0.474157
 153	1	2	-0.001701	-9.14401	1.03774	-1.93959
 154	1	5	-0.06789	-8.21	-1.69078	-0.898916
 155	1	1	-0.02562	-6.35306	1.7965	-2.16862
 156	1	1	0.401389	-7.0757	0.43209	-2.2981
 157	1	3	-0.707077	-7.33189	0.164677	-3.67502
 158	1	4	0.414767	-8.02036	-0.554976	-3.64188
 159	1	2	-0.013868	-6.21808	2.02328	-1.10279
 160	1	2	-0.001701	-6.97743	2.59779	-2.58526
 161	1	5	-0.06789	-6.40643	-0.343372	-1.90904
 162	1	1	-0.02562	-4.11174	3.03742	-2.54597
 163	1	1	0.401389	-4.96384	1.77924	-2.85704
 164	1	3	-0.707077	-5.11237	1.61422	-4.26683
 165	1	4	0.414767	-5.88059	0.982058	-4.3474
 166	1	2	-0.013868	-3.05338	2.80809	-2.73078
 167	1	2	-0.001701	-4.18604	3.26129	-1.47388
 168	1	5	-0.06789	-4.42106	0.912407	-2.46321
 169	1	1	-0.02562	-3.88078	5.57762	-2.79408
 170	1	1	0.401389	-4.51042	4.28801	-3.36793
 171	1	3	-0.707077	-4.11745	4.10897	-4.72724
 172	1	4	0.414767	-4.42398	3.18058	-4.91998
 173	1	2	-0.013868	-2.79759	5.44121	-2.67041
 174	1	2	-0.001701	-4.29779	5.74761	-1.79308
 175	1	5	-0.06789	-5.59966	4.39966	-3.32855
 176	1	1	-0.02562	-3.99617	8.1784	-2.97751
 177	1	1	0.401389	-4.16531	6.81247	-3.6827
 178	1	3	-0.707077	-3.34183	6.77231	-4.84044
 179	1	4	0.414767	-3.46088	5.84051	-5.16072
 180	1	2	-0.013868	-4.25129	8.96072	-3.70304
 181	1	2	-0.001701	-4.73783	8.26653	-2.17272
 182	1	5	-0.06789	-5.21096	6.75294	-4.00662
 183	1	1	-0.02562	-2.32871	9.93314	-2.1033
 184	1	1	0.401389	-2.58024	8.43514	-2.40514
 185	1	3	-0.707077	-2.41048	7.71545	-1.18726
 186	1	4	0.414767	-1.44859	7.65736	-1.04617
 187	1	2	-0.013868	-1.43225	10.0285	-1.47603
 188	1	2	-0.001701	-3.15958	10.3173	-1.49649
 189	1	5	-0.06789	-1.81904	8.08402	-3.10754
 190	1	1	-0.02562	-1.10555	10.3691	-4.38325
 191	1	1	0.401389	-2.17081	10.8334	-3.35747
 192	1	3	-0.707077	-1.85137	12.1551	-2.92285
 193	1	4	0.414767	-2.68017	12.5216	-2.55981
 194	1	2	-0.013868	-1.4318	9.42579	-4.83823
 195	1	2	-0.001701	-1.06325	11.0965	-5.20448
 196	1	5	-0.06789	-3.13498	10.8831	-3.87356
 197	1	1	-0.02562	1.28614	9.44325	-4.69198
 198	1	1	0.401389	0.303147	10.1924	-3.76573
 199	1	3	-0.707077	0.820095	11.452	-3.35371
 200	1	4	0.414767	0.0171429	11.958	-3.06615
 201	1	2	-0.013868	0.809476	8.49491	-4.97478
 202	1	2	-0.001701	2.17172	9.15367	-4.11485
 203	1	5	-0.06789	0.198504	9.56733	-2.87323
 204	1	1	-0.02562	2.75869	11.3182	-5.81659
 205	1	1	0.401389	1.69496	10.1992	-5.98497
 206	1	3	-0.707077	2.18705	9.25184	-6.9245
 207	1	4	0.414767	3.12482	9.11701	-6.62907
 208	1	2	-0.013868	3.04779	11.6805	-6.81274
 209	1	2	-0.001701	2.31131	12.1834	-5.31387
 210	1	5	-0.06789	0.797058	10.6492	-6.42244
 211	1	1	-0.02562	5.12695	11.972	-5.08596
 212	1	1	0.401389	4.0297	10.8823	-5.04548
 213	1	3	-0.707077	4.54609	9.66896	-5.59314
 214	1	4	0.414767	5.49536	9.66786	-5.28622
 215	1	2	-0.013868	4.69522	12.9352	-4.78334
 216	1	2	-0.001701	5.46736	12.104	-6.12158
 217	1	5	-0.06789	3.75827	10.7094	-3.9995
 218	1	1	-0.02562	6.03117	11.7432	-2.67368
 219	1	1	0.401389	6.35358	11.6719	-4.1876
 220	1	3	-0.707077	6.90509	10.3904	-4.49761
 221	1	4	0.414767	7.54557	10.2165	-3.76038
 222	1	2	-0.013868	5.49075	12.6702	-2.44896
 223	1	2	-0.001701	5.34082	10.9329	-2.40573
 224	1	5	-0.06789	7.10681	12.4289	-4.42091
 225	1	1	-0.02562	8.42669	12.6561	-2.0359
 226	1	1	0.401389	7.28561	11.6404	-1.76688
 227	1	3	-0.707077	7.81994	10.3202	-1.87259
 228	1	4	0.414767	7.29327	9.77098	-1.26004
 229	1	2	-0.013868	9.25883	12.3923	-1.37214
 230	1	2	-0.001701	8.81761	12.5421	-3.05491
 231	1	5	-0.06789	6.95811	11.7725	-0.729583
 232	1	1	-0.02562	9.2582	15.0787	-1.74632
 233	1	1	0.401389	8.03167	14.1329	-1.78334
 234	1	3	-0.707077	7.15665	14.5928	-2.80701
 235	1	4	0.414767	6.86902	15.4797	-2.52296
 236	1	2	-0.013868	9.91068	14.8617	-2.60294
 237	1	2	-0.001701	8.92521	16.1191	-1.86285
 238	1	5	-0.06789	7.49211	14.1949	-0.832858
 239	1	1	-0.02562	11.3482	15.8353	-0.458101
 240	1	1	0.401389	10.0657	14.9608	-0.435769
 241	1	3	-0.707077	9.23625	15.3424	0.652931
 242	1	4	0.414767	9.87174	15.4605	1.40576
 243	1	2	-0.013868	11.9198	15.618	-1.37022
 244	1	2	-0.001701	11.0636	16.894	-0.523943
 245	1	5	-0.06789	10.3581	13.9172	-0.303367
 246	1	1	-0.02562	12.9734	14.2474	0.770624
 247	1	1	0.401389	12.2776	15.6333	0.769567
 248	1	3	-0.707077	11.5502	15.8655	1.97619
 249	1	4	0.414767	11.922	16.6936	2.33847
 250	1	2	-0.013868	13.7211	14.2308	-0.0341123
 251	1	2	-0.001701	12.2477	13.4654	0.523047
 252	1	5	-0.06789	13.0612	16.3973	0.715943
 253	1	1	-0.02562	14.342	12.4802	1.9715
 254	1	1	0.401389	13.6487	13.8586	2.10877
 255	1	3	-0.707077	14.5859	14.8557	2.50423
 256	1	4	0.414767	14.3279	15.0702	3.42029
 257	1	2	-0.013868	13.6459	11.7929	1.47222
 258	1	2	-0.001701	15.1971	12.5646	1.28956
 259	1	5	-0.06789	12.8701	13.7951	2.87487
 260	1	1	-0.02562	15.9738	12.4359	4.05346
 261	1	1	0.401389	14.7711	11.8049	3.30175
 262	1	3	-0.707077	13.6567	11.7291	4.18401
 263	1	4	0.414767	13.7949	10.9317	4.7257
 264	1	2	-0.013868	15.676	13.3985	4.48959
 265	1	2	-0.001701	16.2305	11.7851	4.89897
 266	1	5	-0.06789	15.0482	10.7742	3.05499
 267	1	1	-0.02562	18.4837	13.0943	3.96478
 268	1	1	0.401389	17.2266	12.6481	3.16867
 269	1	3	-0.707077	17.5097	11.4813	2.39705
 270	1	4	0.414767	17.6445	11.7985	1.48085
 271	1	2	-0.013868	18.2082	13.9418	4.60716
 272	1	2	-0.001701	19.219	13.4876	3.25086
 273	1	5	-0.06789	16.9967	13.4506	2.46142
 274	1	1	-0.02562	20.4149	12.5681	5.56709
 275	1	1	0.401389	19.1647	12.0023	4.83909
 276	1	3	-0.707077	19.5166	10.8646	4.06081
 277	1	4	0.414767	18.7767	10.784	3.39957
 278	1	2	-0.013868	20.9196	13.3049	4.92842
 279	1	2	-0.001701	20.0633	13.137	6.43795
 280	1	5	-0.06789	18.4477	11.6736	5.59908
 281	1	1	-0.02562	22.4805	11.077	4.97397
 282	1	1	0.401389	21.4637	11.5306	6.05926
 283	1	3	-0.707077	20.8207	10.3906	6.61268
 284	1	4	0.414767	20.2897	10.0385	5.862
 285	1	2	-0.013868	22.0775	10.2251	4.41079
 286	1	2	-0.001701	22.614	11.8831	4.24046
 287	1	5	-0.06789	22.0304	12.0333	6.85162
 288	1	1	-0.02562	24.2668	9.21902	5.41375
 289	1	1	0.401389	23.8575	10.7074	5.59311
 290	1	3	-0.707077	24.8691	11.5757	5.07268
 291	1	4	0.414767	24.7221	12.4437	5.49325
 292	1	2	-0.013868	25.0682	8.98734	6.12848
 293	1	2	-0.001701	23.4182	8.5846	5.70045
 294	1	5	-0.06789	23.8136	10.8919	6.6715
 295	1	1	-0.02562	24.9529	7.31122	3.84011
 296	1	1	0.401389	24.741	8.83591	3.98743
 297	1	3	-0.707077	25.9605	9.50671	3.68678
 298	1	4	0.414767	25.8118	10.4178	4.05298
 299	1	2	-0.013868	25.6576	6.95919	4.60612
 300	1	2	-0.001701	24.0026	6.80264	4.05065
 301	1	5	-0.06789	23.9772	9.15255	3.26884
 302	1	1	-0.02562	26.8923	6.34956	2.40974
 303	1	1	0.401389	25.4558	6.93266	2.42131
 304	1	3	-0.707077	24.569	5.98154	1.83463
 305	1	4	0.414767	25.0962	5.50047	1.16353
 306	1	2	-0.013868	27.4952	6.80476	3.2063
 307	1	2	-0.001701	26.854	5.27724	2.64547
 308	1	5	-0.06789	25.442	7.8231	1.78297
 309	1	1	-0.02562	28.0992	8.00747	0.844852
 310	1	1	0.401389	27.625	6.54807	1.05733
 311	1	3	-0.707077	26.7735	6.15555	-0.0235559
 312	1	4	0.414767	26.1131	6.87631	-0.120703
 313	1	2	-0.013868	28.2423	8.47963	1.82547
 314	1	2	-0.001701	27.3059	8.59042	0.357898
 315	1	5	-0.06789	28.5008	5.89058	1.06614
 316	1	1	-0.02562	29.3692	7.96594	-1.4711
 317	1	1	0.401389	29.4288	8.18334	0.0616553
 318	1	3	-0.707077	30.4984	7.44493	0.654217
 319	1	4	0.414767	30.4637	6.52643	0.32109
 320	1	2	-0.013868	30.2474	8.46337	-1.90311
 321	1	2	-0.001701	28.5072	8.51138	-1.87832
 322	1	5	-0.06789	29.6789	9.24347	0.184339
 323	1	1	-0.02562	30.3652	6.18433	-3.05064
 324	1	1	0.401389	29.3342	6.48606	-1.93755
 325	1	3	-0.707077	28.0373	6.17057	-2.42634
 326	1	4	0.414767	27.5117	5.94115	-1.61794
 327	1	2	-0.013868	30.3226	6.97271	-3.81468
 328	1	2	-0.001701	30.098	5.24648	-3.55582
 329	1	5	-0.06789	29.5312	5.83044	-1.08289
 330	1	1	-0.02562	32.8171	5.82054	-3.65408
 331	1	1	0.401389	31.8078	6.06423	-2.51232
 332	1	3	-0.707077	31.8977	4.99623	-1.57435
 333	1	4	0.414767	32.8475	4.80155	-1.48004
 334	1	2	-0.013868	33.8299	5.67636	-3.25589
 335	1	2	-0.001701	32.8431	6.67935	-4.33679
 336	1	5	-0.06789	32.0873	6.99361	-2.00481
 337	1	5	0	-5.42849	-20.7827	3.32066
 338	1	2	0	32.5469	4.93007	-4.23628

Velocities

   1	-9.21458e-05	-0.000150054	1.62949e-05
   2	0.000305727	0.000203069	0.000397396
   3	0.000377635	0.000150557	0.000294937
   4	0.000718906	0.000282947	-0.00021717
   5	-0.000883868	-0.000159234	0.000587141
   6	-3.87938e-05	-0.000846261	-0.000389723
   7	0.0002221	0.000364074	0.000437251
   8	0.000206456	-0.000207029	-0.000206326
   9	0.000344396	-0.000147608	-1.39264e-05
  10	0.000572196	-0.000189464	-0.000334615
  11	0.000216764	-0.000157987	-0.00015417
  12	0.000202719	-0.000165485	-0.000143177
  13	0.00015713	-0.00023599	-0.000187486
  14	0.000394707	-3.51361e-05	0.000250904
  15	0.000206213	-0.00020028	-0.000437939
  16	0.000221299	-0.000342339	-0.000193021
  17	0.000214952	-0.000317453	-8.00916e-05
  18	0.00065022	-0.000246143	-0.00020535
  19	-7.10557e-05	-0.000704517	-0.000601584
  20	0.000328574	-0.000142205	-0.000865212
  21	0.000187376	-0.000375492	-0.000190651
  22	0.000163574	-1.66401e-05	-0.000225139
  23	0.000206147	-2.49099e-05	-0.000263995
  24	0.000224464	-0.000129011	-4.97703e-05
  25	0.00029304	-0.000240995	7.75933e-05
  26	0.000252293	2.69657e-05	-0.000309984
  27	0.000246548	-1.65147e-06	-0.000304187
  28	0.000399733	2.93029e-05	-0.000236385
  29	0.000116047	0.000118754	-0.000158566
  30	0.000329837	2.33113e-06	-0.000296443
  31	0.000225561	1.66062e-05	-0.000224638
  32	0.000130206	6.99936e-05	-0.000163909
  33	0.00016983	9.5943e-05	-0.000373748
  34	-0.000198634	1.90455e-06	-7.54077e-05
  35	0.000240145	-3.83803e-06	-0.000212605
  36	6.95149e-05	-4.39028e-05	4.81681e-05
  37	0.000411997	-0.000121974	0.000164389
  38	0.000308698	-0.000264476	0.000681975
  39	0.000250344	-0.00022094	0.000459875
  40	-2.60254e-05	-0.000407313	-0.000101784
  41	8.15303e-05	7.73217e-05	-0.000333514
  42	0.000644065	0.000277269	0.000167175
  43	0.000168212	0.000168888	-0.000131236
  44	0.000262871	-3.45375e-05	-1.29834e-05
  45	0.00015966	7.82687e-05	0.000279638
  46	0.000217625	-0.000109848	0.000543611
  47	0.000324726	-1.06495e-05	-0.000250973
  48	0.000320874	7.0896e-05	-0.00022879
  49	0.000306826	0.000280956	1.70531e-05
  50	0.000266001	0.0002703	-0.000176847
  51	0.00034303	0.000123463	-0.000279273
  52	0.000345735	0.000115268	-0.000366985
  53	0.000436476	-6.83619e-05	-0.000548177
  54	0.000409017	0.000143292	-0.000266795
  55	0.000410639	0.00020526	-0.000198985
  56	0.000336245	0.000212803	-0.000180358
  57	0.000217187	0.000471517	4.98849e-05
  58	0.00038409	0.000227327	-0.000197346
  59	0.000371473	-1.23584e-05	-0.000171922
  60	0.000204576	0.000128185	-5.26714e-05
  61	0.000285078	0.000487762	5.67076e-05
  62	0.000222544	0.000180321	0.000134699
  63	0.000336163	0.000385562	-0.000366688
  64	0.000172462	0.00047831	0.000299579
  65	0.000300235	0.00045558	0.000269103
  66	-1.96068e-05	0.000416739	0.000337193
  67	-1.15029e-05	0.000440254	0.000283833
  68	0.000155681	0.000477358	0.00041141
  69	0.000275976	0.000518196	0.000345634
  70	0.000298835	0.000528795	0.000357869
  71	-4.41687e-06	0.000437191	0.000146538
  72	0.000158463	0.000410128	0.000295997
  73	0.000296493	0.00058961	0.000311804
  74	0.000329931	0.000508361	0.000415037
  75	-0.000112122	0.000658087	0.000262649
  76	0.000136751	0.00033901	0.000142549
  77	0.000150372	0.000328579	0.000397837
  78	-0.000483638	0.000595215	-0.000147348
  79	-0.000270957	0.000376207	-0.000107886
  80	-0.000169002	9.78905e-05	-0.000210178
  81	-0.000329842	-9.58762e-05	-0.000196332
  82	-0.000926048	0.000607138	-0.000299024
  83	-0.000371022	0.00103792	-5.63477e-05
  84	-0.000340881	0.00033559	-0.000226091
  85	-0.000313196	0.000533197	-0.000114661
  86	-0.000288438	0.000296145	-0.000127514
  87	-0.000501794	-9.50237e-05	-0.000197976
  88	-0.00024562	0.000104612	0.000314827
  89	-0.000350454	0.000447837	-0.000147806
  90	-0.000495122	0.00070356	-0.000210636
  91	3.99195e-05	0.000209403	-5.98068e-05
  92	-0.000399	0.000690292	8.05722e-05
  93	-1.79757e-05	0.000718074	4.98927e-05
  94	0.000187038	0.0011666	0.000400617
  95	0.00056614	0.00106316	0.000394559
  96	-0.000650591	0.00105305	0.000376474
  97	-0.000772735	0.000400675	-0.000134253
  98	0.000356771	0.000497497	-0.000103161
  99	0.000124921	0.000253633	0.000135099
 100	3.38706e-05	0.00059923	6.56857e-06
 101	0.000181344	0.000628409	-5.49657e-05
 102	0.000138026	0.000803518	-0.000130361
 103	0.000152343	-0.000102873	0.000548555
 104	-0.000127582	0.000593832	0.000262038
 105	0.000117849	0.000780818	-8.54791e-05
 106	0.000274773	0.000181166	-0.000557791
 107	0.000465392	5.1783e-05	-0.000250983
 108	0.000490609	-0.000111321	6.43125e-05
 109	0.000632484	-0.000715713	0.000632939
 110	-0.000263643	0.000163968	-0.000488836
 111	0.000365776	0.000315839	-0.00106955
 112	0.000701492	-0.000156375	-0.000380652
 113	0.000152194	-0.000109818	-0.00010803
 114	0.000479387	0.000132906	-0.000171503
 115	0.000338769	-4.10507e-05	0.000212907
 116	0.000461702	6.5805e-05	0.000124735
 117	0.000188398	-0.000502721	-2.77585e-05
 118	-0.000228564	3.01364e-05	-0.00012482
 119	0.000804701	0.000356603	-0.000123249
 120	-0.000109214	-5.29102e-05	-0.000100588
 121	8.08059e-05	-0.000132477	-0.00010166
 122	6.77376e-05	-0.000210858	-0.000143217
 123	0.00016997	-0.000186226	-8.56105e-05
 124	-5.7567e-05	-0.000126061	-0.000303042
 125	-0.000252449	9.82606e-05	-0.000125514
 126	0.000145607	-8.15678e-05	-6.95288e-05
 127	-0.000225154	-2.07613e-05	-9.79049e-05
 128	-8.11962e-05	-0.000121807	9.36393e-05
 129	-0.000139677	-2.90113e-05	0.000410167
 130	8.59509e-05	-0.000109039	0.00040762
 131	-0.000230244	0.000212574	-0.000106934
 132	-0.000220122	-9.96602e-05	-0.000318783
 133	4.19118e-05	-0.000340633	0.000110409
 134	-0.000107167	-0.000319656	-8.67262e-05
 135	-0.000246506	-0.000162378	-0.00013443
 136	-0.000341749	-0.00028974	-0.000227243
 137	-0.000504801	-0.000116302	6.67591e-05
 138	-0.000101594	-0.000138273	0.000274059
 139	0.000310059	-0.000529554	-9.3473e-05
 140	-0.000356102	-8.98478e-05	-0.00014976
 141	-0.000336931	-0.000552762	-0.000544984
 142	-0.000372296	-0.000479076	-0.000532429
 143	-0.000304328	-0.000667714	-0.000937775
 144	-0.000320386	-0.000591611	-0.000757142
 145	-0.000671606	-0.00040338	-0.000558173
 146	-0.000185172	-0.000635713	-0.000925293
 147	-0.000761061	-0.000359228	-0.00050801
 148	-0.000595078	-0.000505717	-0.000509682
 149	-5.29003e-05	-0.000662823	-4.94311e-05
 150	0.000680577	-0.00149793	0.000202507
 151	0.000680987	-0.00142212	0.000766925
 152	-0.00130319	9.82465e-05	-0.000614859
 153	-0.000620535	-0.00104918	-0.00130662
 154	-8.45835e-05	-0.000126155	0.000651917
 155	-0.000760304	-0.000153222	-6.63598e-05
 156	-0.000201728	-0.000455329	0.000180607
 157	0.000560293	-0.00129161	0.000201757
 158	0.000847497	-0.00156687	0.000260205
 159	-0.00117111	0.000239836	-9.299e-05
 160	-0.000911192	-0.000496396	-0.000533179
 161	-0.000159758	-5.17645e-05	0.00094857
 162	-0.000747914	0.000151056	0.000442561
 163	-0.000550495	5.24394e-05	0.000347133
 164	-0.000157369	-0.000118082	0.000332896
 165	0.000211263	-0.00055701	0.000253164
 166	-0.000693645	0.000183236	0.000711677
 167	-0.000997195	0.000212488	0.000411602
 168	-0.000554504	0.000150971	0.000590972
 169	-0.000592365	0.000133223	0.000367385
 170	-0.000542901	0.000133243	0.00028114
 171	-0.000222243	5.73612e-05	0.000380617
 172	-4.22842e-05	1.29962e-05	0.00036202
 173	-0.000599384	0.000136687	0.000419086
 174	-0.000644294	8.53462e-05	0.000357895
 175	-0.000550636	0.000129173	2.17596e-05
 176	-0.000329021	0.000189483	0.000544609
 177	-0.000506984	0.000242423	0.000465416
 178	-0.000593504	0.000233084	0.000390888
 179	-0.000526025	0.000213406	0.000441362
 180	-0.00022495	0.000291421	0.000602759
 181	-0.000334595	0.000230474	0.000543578
 182	-0.00053559	0.000358567	0.000523414
 183	5.39505e-06	6.85765e-05	0.000355248
 184	-0.000316563	4.46777e-05	0.000605683
 185	-0.000534256	0.000238086	0.000743496
 186	-0.000575984	0.00107951	0.0013992
 187	-1.25475e-05	-7.62305e-05	0.000407979
 188	4.09138e-05	0.000361731	0.000233076
 189	-0.000338588	-0.00024728	0.00074557
 190	9.74764e-05	-0.000841378	0.000243825
 191	0.000410512	-0.000122376	0.000263716
 192	0.00121417	-0.000234701	9.35916e-05
 193	0.0012823	0.000770405	-0.000786631
 194	-0.000271805	-0.000888158	0.000590411
 195	0.000163255	-0.00111582	-4.92106e-06
 196	0.000381076	0.000405315	0.00038417
 197	0.000297852	-0.000748282	-3.58038e-05
 198	0.000171595	-0.00106375	0.000106312
 199	0.00024209	-0.00123253	0.000462504
 200	0.000192663	-0.00120957	0.000359486
 201	0.000548286	-0.000844491	-8.57338e-05
 202	0.000411241	-0.000518412	-9.43724e-05
 203	7.51114e-05	-0.00129683	-4.82709e-05
 204	-0.000145641	-0.000239342	3.22259e-05
 205	9.7899e-05	-0.000488878	2.51366e-05
 206	0.000175523	-0.000280995	-0.000161199
 207	0.000369952	0.000122633	-0.000541447
 208	-0.000570411	0.00017483	6.47461e-05
 209	-0.000228934	-0.000517236	0.000433408
 210	-3.56112e-05	-0.000650383	0.000152143
 211	-7.81845e-05	0.000285432	-0.000143036
 212	0.000245476	-8.48055e-05	-0.000489401
 213	0.000530408	0.000362176	-0.00122002
 214	0.000479702	0.000365925	-0.00109522
 215	-0.000343195	4.48001e-05	0.000210045
 216	-8.58642e-05	0.000788668	-7.67952e-05
 217	0.000551224	-0.000707784	-0.000521451
 218	-5.92766e-05	0.000537028	-0.000209156
 219	1.88156e-05	0.000322979	-0.000184327
 220	-2.26794e-05	0.000275177	-0.000101244
 221	-3.65513e-05	0.000327174	-9.65075e-05
 222	7.05152e-05	0.000610876	-0.000329604
 223	-0.000139957	0.000625541	-0.000138878
 224	7.13794e-05	0.000248624	-0.000227751
 225	-3.95223e-05	0.000453366	7.149e-05
 226	-0.000112323	0.000543084	-8.00618e-05
 227	-9.52467e-05	0.000527234	2.90255e-05
 228	0.000254198	0.0006776	0.000453748
 229	-0.000456834	0.000610618	0.000587384
 230	0.000440216	-1.55507e-05	0.000258988
 231	-0.00025204	0.000601899	-0.000128096
 232	0.000114074	0.000389577	4.74558e-05
 233	-7.46199e-05	0.000610849	-0.000627456
 234	0.000785491	0.000311341	-0.00147582
 235	-0.000222135	1.61793e-05	-0.00163256
 236	0.000254119	0.000589805	8.59807e-05
 237	0.000260569	0.000490911	0.000254796
 238	-0.00075092	0.00095348	-0.00102708
 239	6.75328e-06	-0.000393095	0.000729914
 240	-0.000120653	-0.000209478	0.000150787
 241	-0.000298424	-0.000679494	0.000208927
 242	-0.00033225	-0.000795448	0.000272986
 243	0.000103841	-0.000157676	0.0007394
 244	0.000119029	-0.000353125	0.00102681
 245	-0.000128793	-0.000274282	-0.000190598
 246	-0.000307389	-0.000927307	0.000746368
 247	-0.000214097	-0.000884567	0.000866391
 248	-0.000482999	-0.00124698	0.000731774
 249	0.000337672	-0.00207074	0.00175994
 250	-0.000842243	-0.00126515	0.000271471
 251	-0.000585285	-0.000926148	0.00152197
 252	-0.000211814	-0.000901745	0.00120346
 253	0.000155777	-0.000805825	0.000677256
 254	0.000649156	-0.000517691	0.000461375
 255	0.00124284	-0.000602793	-0.000758845
 256	0.00342074	-0.00154288	8.489e-05
 257	-0.00025331	-0.000841911	0.00138812
 258	-0.000181055	-0.00134084	0.000190112
 259	0.00122811	0.000118653	0.00110656
 260	0.00128286	-0.000429138	-0.000254213
 261	0.000791684	-0.000366919	0.000763093
 262	0.00127675	0.000491031	0.00145353
 263	0.00111588	0.000546124	0.00157122
 264	0.00170344	-0.000441143	0.000109462
 265	0.00198885	-0.000548766	-0.00048435
 266	0.000331448	-0.000574709	0.00108137
 267	0.00112413	-0.000855182	-0.00177562
 268	0.000662755	-0.000146792	-0.00110811
 269	0.000115677	0.000184562	-0.00185313
 270	-0.00116217	0.000753952	-0.00187425
 271	0.00218544	-7.87117e-05	-0.00223788
 272	0.00144827	-0.00201992	-0.0021733
 273	0.000416668	0.000236648	-0.000566407
 274	9.74375e-05	-0.000542905	-0.00153837
 275	0.000174915	-0.000838832	-0.00120749
 276	-0.000301082	-0.00142297	-0.000602374
 277	3.47208e-05	-0.00122011	-0.000946887
 278	8.33241e-05	-0.00093685	-0.00211322
 279	4.29771e-05	6.88017e-05	-0.00198222
 280	-2.22454e-05	-8.12738e-05	-0.00105925
 281	0.000642537	0.000555597	-0.000505439
 282	9.92514e-05	0.000126208	-0.000948091
 283	0.000472792	-0.000211369	-0.00100171
 284	0.000861062	-0.000633189	-0.00103856
 285	0.00073087	0.00121497	-0.00152973
 286	0.00181112	0.00113407	0.000237473
 287	-0.000444797	0.000542809	-0.000894321
 288	-0.000972247	-0.00037375	-0.000385092
 289	-0.000304387	-0.000305332	0.000683422
 290	0.000843308	-0.000451082	0.00275731
 291	0.000562896	-0.00066438	0.00317758
 292	-0.00141581	-0.00139258	-0.000443736
 293	-0.00152846	8.2531e-05	-0.00120919
 294	-0.00148078	-0.0016194	0.000885426
 295	-0.00134657	0.000823564	-0.000620642
 296	-0.0011702	0.000805	-0.000632102
 297	-0.000942873	0.000533025	-0.000511114
 298	-0.000130827	0.000111771	0.000646545
 299	-0.0013704	0.000945371	-0.000660229
 300	-0.00140193	0.000987526	-0.000588028
 301	-0.0010713	0.000940588	-0.000498972
 302	-0.000830902	0.0017872	0.000441272
 303	-0.00133091	0.000925265	-0.000496298
 304	-0.00126725	0.000465298	3.19482e-05
 305	-0.00256895	0.00156291	-0.00161703
 306	-0.00157427	0.00280586	0.000501418
 307	-0.000775091	0.00203205	0.00152186
 308	-0.00176641	0.000571234	-0.0009205
 309	0.00116401	0.000292834	-5.4719e-05
 310	6.263e-06	0.000650363	0.000918391
 311	0.000109234	0.000540327	0.000950791
 312	-0.00208911	-0.00106456	0.00357381
 313	0.00160483	0.000740566	-0.000232202
 314	0.00141051	0.000483832	-0.000218097
 315	-0.000393518	0.000109851	0.00183835
 316	0.000418286	-0.000104278	-0.000483878
 317	0.00125956	-0.000670626	-0.000331057
 318	0.000581652	-0.00225923	-0.00117737
 319	-0.000389896	-0.00194812	-0.00183044
 320	0.000662542	-0.000605314	-0.000670476
 321	0.000829743	0.000935529	6.40726e-05
 322	0.00247493	-0.00104296	-2.1836e-05
 323	-0.00103432	-0.00146676	-0.000335606
 324	-0.000912847	2.5583e-05	-0.000495065
 325	-0.00151539	0.00138652	7.09092e-05
 326	-0.00154486	0.00274075	0.000630445
 327	-0.00141931	-0.00253225	-0.00114353
 328	-0.00092886	-0.00222946	0.00119658
 329	-0.00163177	-6.87082e-05	-0.000343171
 330	-0.000188005	6.23651e-05	0.000554153
 331	-0.000787936	0.000367046	4.99675e-06
 332	-0.000102992	0.00191292	0.0017853
 333	0.000396368	0.00589273	0.0055917
 334	-0.000115406	0.0017571	0.00111154