pySIMM System Object

352 atoms
351 bonds
650 angles
1041 dihedrals
0 impropers

5 atom types
5 bond types
8 angle types
6 dihedral types

-96.420285 96.420285 xlo xhi
-96.420285 96.420285 ylo yhi
-96.420285 96.420285 zlo zhi

Masses

   1	12.01	# c3
   2	1.008	# hc
   3	16.0	# oh
   4	1.008	# ho
   5	1.008	# h1

Pair Coeffs

   1	0.1094	3.3996695084235347	# c3
   2	0.0157	2.649532787749369	# hc
   3	0.2104	3.0664733878390478	# oh
   4	0.0047	0.5379246460131368	# ho
   5	0.0157	2.471353044121301	# h1

Bond Coeffs

   1	371.4	0.973	# ho,oh
   2	330.6	1.0969	# c3,hc
   3	300.9	1.5375	# c3,c3
   4	316.7	1.4233	# c3,oh
   5	330.6	1.0969	# c3,h1

Angle Coeffs

   1	67.47	110.19	# c3,c3,oh
   2	46.34	109.8	# c3,c3,hc
   3	50.93	110.26	# h1,c3,oh
   4	46.39	109.56	# c3,c3,h1
   5	39.4	107.58	# hc,c3,hc
   6	39.24	108.46	# h1,c3,h1
   7	47.38	107.26	# c3,oh,ho
   8	62.86	111.51	# c3,c3,c3

Dihedral Coeffs

   1	2	0.0	3	0	0.25	1	0	# hc,c3,c3,oh
   2	1	0.16666666666666666	3	0	# X,c3,oh,X
   3	1	0.15555555555555556	3	0	# X,c3,c3,X
   4	2	0.16	3	0	0.25	1	0	# ho,oh,c3,c3
   5	1	0.16	3	0	# hc,c3,c3,c3
   6	3	0.18	3	0	0.25	2	180	0.2	1	180	# c3,c3,c3,c3

Atoms

   1	1	1	-0.02562	17.5267	-9.71015	-6.66114
   2	1	1	0.401389	17.1428	-11.2046	-6.6813
   3	1	3	-0.707077	17.2864	-11.757	-7.98866
   4	1	4	0.414767	16.9672	-12.6788	-7.93217
   5	1	2	-0.013868	17.4024	-9.33624	-5.63647
   6	1	2	-0.001701	16.8331	-9.13792	-7.29144
   7	1	5	-0.06789	17.785	-11.7567	-5.98651
   8	1	1	-0.02562	19.4612	-8.02989	-6.84005
   9	1	1	0.401389	18.9827	-9.47437	-7.12156
  10	1	3	-0.707077	19.104	-9.76387	-8.51248
  11	1	4	0.414767	18.5294	-10.5681	-8.6349
  12	1	2	-0.013868	19.3545	-7.82767	-5.76614
  13	1	2	-0.001701	18.8203	-7.30826	-7.36358
  14	1	5	-0.06789	19.6289	-10.1611	-6.56316
  15	1	1	-0.02562	21.5809	-6.55402	-6.65706
  16	1	1	0.401389	20.9399	-7.83466	-7.25035
  17	1	3	-0.707077	21.0477	-7.83893	-8.67188
  18	1	4	0.414767	20.4712	-8.60766	-8.94071
  19	1	2	-0.013868	22.6729	-6.62876	-6.74854
  20	1	2	-0.001701	21.3726	-6.52363	-5.57964
  21	1	5	-0.06789	21.5029	-8.68825	-6.85664
  22	1	1	-0.02562	21.6286	-4.0037	-6.52179
  23	1	1	0.401389	21.1069	-5.23177	-7.30876
  24	1	3	-0.707077	21.5575	-5.17449	-8.65996
  25	1	4	0.414767	21.4296	-6.1117	-8.98263
  26	1	2	-0.013868	22.7171	-4.07682	-6.39137
  27	1	2	-0.001701	21.1936	-4.02939	-5.51416
  28	1	5	-0.06789	20.0118	-5.20589	-7.29932
  29	1	1	-0.02562	21.6205	-1.45982	-6.26029
  30	1	1	0.401389	21.2754	-2.6512	-7.1855
  31	1	3	-0.707077	21.9754	-2.51572	-8.42081
  32	1	4	0.414767	21.9125	-3.43444	-8.81391
  33	1	2	-0.013868	21.0419	-1.55947	-5.33225
  34	1	2	-0.001701	22.6793	-1.50567	-5.97549
  35	1	5	-0.06789	20.1983	-2.63304	-7.38508
  36	1	1	-0.02562	21.4063	1.06024	-5.87899
  37	1	1	0.401389	21.3108	-0.089446	-6.90823
  38	1	3	-0.707077	22.1995	0.131627	-8.00751
  39	1	4	0.414767	22.1905	-0.778708	-8.43441
  40	1	2	-0.013868	22.4316	1.15112	-5.50032
  41	1	2	-0.001701	20.776	0.804315	-5.01731
  42	1	5	-0.06789	20.2837	-0.121832	-7.2881
  43	1	1	-0.02562	20.6544	3.44881	-5.35854
  44	1	1	0.401389	20.9366	2.40988	-6.46507
  45	1	3	-0.707077	21.9492	2.9136	-7.33943
  46	1	4	0.414767	22.0334	2.19226	-8.00998
  47	1	2	-0.013868	20.1845	2.96702	-4.49706
  48	1	2	-0.001701	21.6169	3.82886	-5.00531
  49	1	5	-0.06789	20.0176	2.23303	-7.03359
  50	1	1	-0.02562	19.7848	5.91666	-5.06925
  51	1	1	0.401389	19.7198	4.57899	-5.86093
  52	1	3	-0.707077	18.3776	4.09999	-5.83056
  53	1	4	0.414767	18.1947	3.83126	-4.912
  54	1	2	-0.013868	19.109	6.62944	-5.56027
  55	1	2	-0.001701	19.3784	5.77178	-4.06081
  56	1	5	-0.06789	19.9668	4.80227	-6.90417
  57	1	1	-0.02562	21.9784	6.52679	-6.30535
  58	1	1	0.401389	21.1835	6.5863	-4.97329
  59	1	3	-0.707077	21.9088	6.01047	-3.88868
  60	1	4	0.414767	22.8585	6.24936	-4.0976
  61	1	2	-0.013868	21.4225	7.08136	-7.07258
  62	1	2	-0.001701	22.0171	5.49387	-6.64708
  63	1	5	-0.06789	21.0321	7.64373	-4.72956
  64	1	1	-0.02562	24.185	6.92259	-7.59217
  65	1	1	0.401389	23.4267	7.07289	-6.24667
  66	1	3	-0.707077	24.1759	6.41436	-5.22746
  67	1	4	0.414767	24.5315	5.60856	-5.68092
  68	1	2	-0.013868	25.2353	7.20772	-7.44196
  69	1	2	-0.001701	23.7756	7.64724	-8.30768
  70	1	5	-0.06789	23.3771	8.13813	-5.99545
  71	1	1	-0.02562	25.1038	5.37425	-9.41243
  72	1	1	0.401389	24.113	5.50632	-8.22977
  73	1	3	-0.707077	24.3295	4.49737	-7.23789
  74	1	4	0.414767	23.487	3.95453	-7.29518
  75	1	2	-0.013868	26.1292	5.54819	-9.05957
  76	1	2	-0.001701	24.8947	6.18788	-10.1192
  77	1	5	-0.06789	23.0973	5.37747	-8.61529
  78	1	1	-0.02562	25.8275	2.86902	-9.55197
  79	1	1	0.401389	25.0423	4.04014	-10.2033
  80	1	3	-0.707077	23.6952	3.68882	-10.5017
  81	1	4	0.414767	23.724	2.71685	-10.6751
  82	1	2	-0.013868	26.393	2.34982	-10.3374
  83	1	2	-0.001701	26.5896	3.27865	-8.87907
  84	1	5	-0.06789	25.5459	4.23596	-11.1569
  85	1	1	-0.02562	25.7904	0.924362	-7.86285
  86	1	1	0.401389	24.9604	1.82464	-8.80564
  87	1	3	-0.707077	24.2332	1.03589	-9.74341
  88	1	4	0.414767	23.5359	0.588053	-9.20089
  89	1	2	-0.013868	25.3542	-0.0841334	-7.84946
  90	1	2	-0.001701	26.8169	0.815636	-8.23712
  91	1	5	-0.06789	24.2137	2.33003	-8.19825
  92	1	1	-0.02562	26.6327	0.559362	-5.46997
  93	1	1	0.401389	25.7974	1.45918	-6.41056
  94	1	3	-0.707077	26.3104	2.78542	-6.33421
  95	1	4	0.414767	25.6034	3.40313	-6.65756
  96	1	2	-0.013868	27.6801	0.892747	-5.47536
  97	1	2	-0.001701	26.6404	-0.475181	-5.83854
  98	1	5	-0.06789	24.7593	1.47493	-6.06223
  99	1	1	-0.02562	24.8821	-0.398194	-3.89624
 100	1	1	0.401389	26.0682	0.582835	-4.03198
 101	1	3	-0.707077	27.0864	0.224513	-3.10644
 102	1	4	0.414767	27.7755	0.909806	-3.19582
 103	1	2	-0.013868	25.2452	-1.42269	-4.05823
 104	1	2	-0.001701	24.1583	-0.203806	-4.69469
 105	1	5	-0.06789	25.737	1.60005	-3.79876
 106	1	1	-0.02562	23.5113	1.05329	-2.25802
 107	1	1	0.401389	24.1479	-0.333365	-2.53972
 108	1	3	-0.707077	23.1576	-1.36733	-2.54115
 109	1	4	0.414767	23.6739	-2.19707	-2.50019
 110	1	2	-0.013868	23.0976	1.46549	-3.18714
 111	1	2	-0.001701	24.3025	1.74301	-1.93735
 112	1	5	-0.06789	24.8527	-0.55936	-1.73275
 113	1	1	-0.02562	22.0455	2.37241	-0.563887
 114	1	1	0.401389	22.4118	0.999619	-1.16727
 115	1	3	-0.707077	21.2402	0.389519	-1.70719
 116	1	4	0.414767	21.6145	-0.467459	-2.04981
 117	1	2	-0.013868	22.9232	2.76506	-0.0327155
 118	1	2	-0.001701	21.2834	2.22456	0.211473
 119	1	5	-0.06789	22.7779	0.372135	-0.346902
 120	1	1	-0.02562	20.1444	3.96457	-1.34107
 121	1	1	0.401389	21.5557	3.39463	-1.62198
 122	1	3	-0.707077	22.4861	4.46571	-1.69557
 123	1	4	0.414767	22.1975	5.03594	-2.45885
 124	1	2	-0.013868	20.1504	4.50337	-0.384173
 125	1	2	-0.001701	19.9156	4.71016	-2.11091
 126	1	5	-0.06789	21.5332	2.92004	-2.60669
 127	1	1	-0.02562	17.6181	3.58919	-1.37027
 128	1	1	0.401389	19.011	2.90703	-1.31322
 129	1	3	-0.707077	19.1433	1.97712	-2.3896
 130	1	4	0.414767	19.8992	1.3667	-2.13537
 131	1	2	-0.013868	17.5424	4.21056	-2.2733
 132	1	2	-0.001701	17.5268	4.27052	-0.514233
 133	1	5	-0.06789	19.0766	2.34576	-0.375347
 134	1	1	-0.02562	15.0628	3.28376	-1.25973
 135	1	1	0.401389	16.4434	2.58203	-1.33623
 136	1	3	-0.707077	16.491	1.75013	-2.49436
 137	1	4	0.414767	17.4696	1.61416	-2.64054
 138	1	2	-0.013868	15.0476	3.94568	-0.383565
 139	1	2	-0.001701	14.9148	3.92298	-2.14038
 140	1	5	-0.06789	16.5614	1.95375	-0.446153
 141	1	1	-0.02562	12.5192	2.93531	-0.937748
 142	1	1	0.401389	13.9008	2.26845	-1.13906
 143	1	3	-0.707077	13.8437	1.43123	-2.28622
 144	1	4	0.414767	14.7964	1.35334	-2.57283
 145	1	2	-0.013868	12.3252	3.64007	-1.75761
 146	1	2	-0.001701	12.524	3.52197	-0.00957182
 147	1	5	-0.06789	14.1093	1.63645	-0.268167
 148	1	1	-0.02562	9.98083	2.50024	-0.718675
 149	1	1	0.401389	11.3882	1.87985	-0.882197
 150	1	3	-0.707077	11.6523	0.943739	0.165068
 151	1	4	0.414767	12.4159	0.426315	-0.167696
 152	1	2	-0.013868	9.78115	3.15222	-1.5796
 153	1	2	-0.001701	9.93683	3.13374	0.177395
 154	1	5	-0.06789	11.3728	1.32648	-1.82652
 155	1	1	-0.02562	7.46792	1.91647	-0.880594
 156	1	1	0.401389	8.90321	1.3929	-0.651089
 157	1	3	-0.707077	8.98304	0.732617	0.610559
 158	1	4	0.414767	9.96568	0.629303	0.741123
 159	1	2	-0.013868	7.42962	2.43812	-1.84618
 160	1	2	-0.001701	7.20755	2.65292	-0.109141
 161	1	5	-0.06789	9.11837	0.664023	-1.44052
 162	1	1	-0.02562	5.0514	1.15922	-1.41785
 163	1	1	0.401389	6.44822	0.750972	-0.892572
 164	1	3	-0.707077	6.33525	0.192704	0.414436
 165	1	4	0.414767	7.28168	0.162048	0.731115
 166	1	2	-0.013868	4.43955	0.25775	-1.55815
 167	1	2	-0.001701	5.16742	1.60525	-2.41426
 168	1	5	-0.06789	6.83651	-0.0207402	-1.56698
 169	1	1	-0.02562	3.0053	2.66172	-1.14983
 170	1	1	0.401389	4.30565	2.15065	-0.495126
 171	1	3	-0.707077	4.00691	1.5277	0.752448
 172	1	4	0.414767	4.7895	0.926977	0.907999
 173	1	2	-0.013868	2.34216	1.81353	-1.36698
 174	1	2	-0.001701	3.25313	3.12535	-2.1136
 175	1	5	-0.06789	4.95479	3.01375	-0.31348
 176	1	1	-0.02562	1.12867	4.42866	-0.981861
 177	1	1	0.401389	2.28461	3.7036	-0.263696
 178	1	3	-0.707077	1.78159	3.0914	0.917167
 179	1	4	0.414767	2.50218	2.45156	1.16986
 180	1	2	-0.013868	0.703855	5.16395	-0.288924
 181	1	2	-0.001701	1.53172	5.01949	-1.81538
 182	1	5	-0.06789	3.02083	4.46166	0.0281361
 183	1	1	-0.02562	-1.39827	4.00431	-1.35751
 184	1	1	0.401389	0.0391622	3.45284	-1.49986
 185	1	3	-0.707077	0.284548	3.17081	-2.87566
 186	1	4	0.414767	-0.301936	2.43022	-3.11024
 187	1	2	-0.013868	-2.09248	3.33946	-1.88823
 188	1	2	-0.001701	-1.45473	4.97549	-1.86745
 189	1	5	-0.06789	0.0886544	2.50304	-0.960177
 190	1	1	-0.02562	-1.89386	2.88782	0.972003
 191	1	1	0.401389	-1.87246	4.17978	0.11007
 192	1	3	-0.707077	-3.17232	4.77134	0.0935926
 193	1	4	0.414767	-3.03658	5.70403	-0.161437
 194	1	2	-0.013868	-0.886917	2.4586	1.019
 195	1	2	-0.001701	-2.14448	3.16873	2.00254
 196	1	5	-0.06789	-1.21012	4.894	0.606712
 197	1	1	-0.02562	-2.77542	0.457065	1.23213
 198	1	1	0.401389	-2.88341	1.80558	0.474399
 199	1	3	-0.707077	-4.21688	2.30111	0.51286
 200	1	4	0.414767	-4.11618	3.26678	0.298003
 201	1	2	-0.013868	-1.81443	0.00048957	0.959478
 202	1	2	-0.001701	-3.54266	-0.230782	0.853757
 203	1	5	-0.06789	-2.64254	1.59519	-0.57344
 204	1	1	-0.02562	-4.13868	1.14533	3.38439
 205	1	1	0.401389	-2.84707	0.533052	2.78314
 206	1	3	-0.707077	-2.6699	-0.774054	3.31631
 207	1	4	0.414767	-3.59558	-1.12711	3.38043
 208	1	2	-0.013868	-4.08638	1.09708	4.48064
 209	1	2	-0.001701	-4.17854	2.21356	3.13978
 210	1	5	-0.06789	-2.00306	1.14192	3.12618
 211	1	1	-0.02562	-6.70963	1.14492	3.44888
 212	1	1	0.401389	-5.43558	0.455302	2.90019
 213	1	3	-0.707077	-5.43561	-0.917811	3.28493
 214	1	4	0.414767	-6.36957	-1.19389	3.08643
 215	1	2	-0.013868	-6.58398	2.23541	3.4202
 216	1	2	-0.001701	-6.84128	0.882875	4.50729
 217	1	5	-0.06789	-5.46369	0.495666	1.81115
 218	1	1	-0.02562	-8.02347	1.4341	1.25711
 219	1	1	0.401389	-7.9899	0.770674	2.65914
 220	1	3	-0.707077	-8.09391	-0.64958	2.55159
 221	1	4	0.414767	-8.76788	-0.784073	1.83302
 222	1	2	-0.013868	-7.91471	2.52053	1.37406
 223	1	2	-0.001701	-7.15911	1.10867	0.666532
 224	1	5	-0.06789	-8.85338	1.13799	3.22454
 225	1	1	-0.02562	-10.5991	1.76075	1.01885
 226	1	1	0.401389	-9.29944	1.1549	0.426355
 227	1	3	-0.707077	-9.45637	-0.250093	0.223974
 228	1	4	0.414767	-9.01952	-0.434105	-0.63064
 229	1	2	-0.013868	-11.2278	0.962649	1.4347
 230	1	2	-0.001701	-10.3686	2.43747	1.85246
 231	1	5	-0.06789	-9.12273	1.59329	-0.561642
 232	1	1	-0.02562	-12.7998	2.97464	0.330413
 233	1	1	0.401389	-11.3682	2.54281	-0.0719954
 234	1	3	-0.707077	-10.6241	3.71408	-0.400406
 235	1	4	0.414767	-11.0732	4.09938	-1.17314
 236	1	2	-0.013868	-12.7628	3.51706	1.28479
 237	1	2	-0.001701	-13.1746	3.68681	-0.417231
 238	1	5	-0.06789	-11.4223	1.9272	-0.975885
 239	1	1	-0.02562	-15.2448	2.33631	0.67473
 240	1	1	0.401389	-13.807	1.80567	0.448312
 241	1	3	-0.707077	-13.7719	1.00189	-0.727166
 242	1	4	0.414767	-14.143	0.142803	-0.450878
 243	1	2	-0.013868	-15.2607	2.9751	1.56782
 244	1	2	-0.001701	-15.5116	2.97589	-0.175275
 245	1	5	-0.06789	-13.5086	1.18496	1.29886
 246	1	1	-0.02562	-17.7243	1.71158	1.18043
 247	1	1	0.401389	-16.3023	1.214	0.823686
 248	1	3	-0.707077	-15.8842	0.292377	1.82788
 249	1	4	0.414767	-16.6467	-0.287102	2.00778
 250	1	2	-0.013868	-17.6903	2.33663	2.08327
 251	1	2	-0.001701	-18.3296	0.834173	1.44298
 252	1	5	-0.06789	-16.3685	0.66041	-0.119798
 253	1	1	-0.02562	-19.9685	2.51561	0.246403
 254	1	1	0.401389	-18.4353	2.47808	0.0356859
 255	1	3	-0.707077	-17.9507	3.81408	-0.0389822
 256	1	4	0.414767	-18.3252	4.18685	-0.857601
 257	1	2	-0.013868	-20.1847	2.66705	1.3122
 258	1	2	-0.001701	-20.4017	3.37814	-0.27931
 259	1	5	-0.06789	-18.2198	1.98365	-0.918179
 260	1	1	-0.02562	-21.9925	0.915662	0.439256
 261	1	1	0.401389	-20.6452	1.22176	-0.266044
 262	1	3	-0.707077	-20.8597	1.33243	-1.66864
 263	1	4	0.414767	-21.0762	0.432096	-1.97181
 264	1	2	-0.013868	-22.5312	1.85302	0.633871
 265	1	2	-0.001701	-22.6311	0.318594	-0.22473
 266	1	5	-0.06789	-19.9607	0.381751	-0.115908
 267	1	1	-0.02562	-23.0729	-0.0901986	2.58876
 268	1	1	0.401389	-21.7782	0.151031	1.76686
 269	1	3	-0.707077	-21.143	-1.09524	1.511
 270	1	4	0.414767	-21.9049	-1.69291	1.27788
 271	1	2	-0.013868	-23.4697	0.879534	2.91656
 272	1	2	-0.001701	-22.7994	-0.627298	3.50681
 273	1	5	-0.06789	-21.1032	0.749286	2.38914
 274	1	1	-0.02562	-25.2783	-1.37053	2.86154
 275	1	1	0.401389	-24.2034	-0.869477	1.86184
 276	1	3	-0.707077	-23.6676	-1.98478	1.15212
 277	1	4	0.414767	-24.4785	-2.5297	0.952691
 278	1	2	-0.013868	-24.8332	-2.13069	3.51803
 279	1	2	-0.001701	-25.5754	-0.538409	3.51324
 280	1	5	-0.06789	-24.682	-0.194709	1.14311
 281	1	1	-0.02562	-27.4747	-2.6295	3.23564
 282	1	1	0.401389	-26.5566	-1.94166	2.19204
 283	1	3	-0.707077	-26.2203	-2.86049	1.14982
 284	1	4	0.414767	-27.0326	-2.95315	0.613156
 285	1	2	-0.013868	-26.9128	-3.42376	3.74514
 286	1	2	-0.001701	-27.7497	-1.89716	4.00534
 287	1	5	-0.06789	-27.0971	-1.10524	1.73667
 288	1	1	-0.02562	-29.6109	-4.05433	3.61557
 289	1	1	0.401389	-28.7542	-3.23958	2.61351
 290	1	3	-0.707077	-29.5392	-2.21598	2.00506
 291	1	4	0.414767	-30.1893	-2.67103	1.43119
 292	1	2	-0.013868	-30.449	-4.50853	3.06931
 293	1	2	-0.001701	-29.0077	-4.89049	3.99271
 294	1	5	-0.06789	-28.4533	-3.93184	1.81982
 295	1	1	-0.02562	-30.9723	-4.16459	5.78124
 296	1	1	0.401389	-30.163	-3.25092	4.82098
 297	1	3	-0.707077	-30.9353	-2.13973	4.3661
 298	1	4	0.414767	-30.4642	-1.80607	3.56251
 299	1	2	-0.013868	-31.4109	-5.0006	5.22049
 300	1	2	-0.001701	-30.263	-4.6053	6.49176
 301	1	5	-0.06789	-29.313	-2.84946	5.38308
 302	1	1	-0.02562	-32.9724	-4.33825	7.47138
 303	1	1	0.401389	-32.1092	-3.44208	6.54565
 304	1	3	-0.707077	-31.6055	-2.30546	7.23568
 305	1	4	0.414767	-31.3844	-1.69514	6.49869
 306	1	2	-0.013868	-33.7002	-3.69436	7.98419
 307	1	2	-0.001701	-33.5748	-5.00645	6.84267
 308	1	5	-0.06789	-32.8102	-3.06219	5.79387
 309	1	1	-0.02562	-31.3488	-4.40633	9.50892
 310	1	1	0.401389	-32.2536	-5.19736	8.54204
 311	1	3	-0.707077	-31.5372	-6.28124	7.95963
 312	1	4	0.414767	-30.9409	-6.60233	8.6734
 313	1	2	-0.013868	-31.864	-3.47926	9.79105
 314	1	2	-0.001701	-30.4113	-4.11328	9.01663
 315	1	5	-0.06789	-33.0537	-5.63331	9.15177
 316	1	1	-0.02562	-30.7001	-4.32304	11.9778
 317	1	1	0.401389	-31.0545	-5.23518	10.7797
 318	1	3	-0.707077	-30.0225	-6.18252	10.5056
 319	1	4	0.414767	-29.9095	-6.73385	11.3021
 320	1	2	-0.013868	-31.4601	-3.53495	12.0602
 321	1	2	-0.001701	-29.7498	-3.8127	11.771
 322	1	5	-0.06789	-31.9595	-5.78873	11.034
 323	1	1	-0.02562	-31.8178	-5.91548	13.7535
 324	1	1	0.401389	-30.5984	-5.05437	13.3398
 325	1	3	-0.707077	-30.3562	-4.09607	14.3616
 326	1	4	0.414767	-29.3954	-4.09104	14.5211
 327	1	2	-0.013868	-31.6085	-6.3272	14.7497
 328	1	2	-0.001701	-31.8865	-6.79372	13.098
 329	1	5	-0.06789	-29.7294	-5.72102	13.2972
 330	1	1	-0.02562	-34.0535	-5.55997	14.9815
 331	1	1	0.401389	-33.1757	-5.15852	13.7736
 332	1	3	-0.707077	-33.8983	-5.45393	12.5795
 333	1	4	0.414767	-33.5983	-4.83251	11.8981
 334	1	2	-0.013868	-35.1044	-5.31115	14.7795
 335	1	2	-0.001701	-34.0175	-6.65164	15.0985
 336	1	5	-0.06789	-33.0104	-4.07667	13.8066
 337	1	1	-0.02562	-34.1502	-3.42328	16.4368
 338	1	1	0.401389	-33.6114	-4.87403	16.2979
 339	1	3	-0.707077	-34.0125	-5.6727	17.4038
 340	1	4	0.414767	-33.5841	-5.21613	18.1625
 341	1	2	-0.013868	-33.5117	-2.74875	15.8515
 342	1	2	-0.001701	-35.1511	-3.35791	15.9894
 343	1	5	-0.06789	-32.5173	-4.83088	16.3205
 344	1	1	-0.02562	-34.4538	-1.37919	17.964
 345	1	1	0.401389	-34.2576	-2.91	17.8972
 346	1	3	-0.707077	-33.1175	-3.28269	18.673
 347	1	4	0.414767	-33.2295	-2.84764	19.5384
 348	1	2	-0.013868	-35.0855	-1.02373	17.1399
 349	1	2	-0.001701	-33.4928	-0.851755	17.9079
 350	1	5	-0.06789	-35.1388	-3.37487	18.3538
 351	1	5	0	16.1056	-11.3153	-6.34192
 352	1	2	0	-34.9439	-1.09707	18.9045

Velocities

   1	1.66949e-05	0.000577161	5.47484e-05
   2	-0.000108337	0.000431232	-0.000418399
   3	0.000287147	0.000233466	-0.000399383
   4	9.1525e-05	0.00038528	-0.000303082
   5	0.00011216	0.000286165	0.000198534
   6	0.00021928	0.000951371	0.000140728
   7	-0.000685568	0.000458579	-0.000238114
   8	0.000113801	0.000427322	0.000177721
   9	0.000182983	0.000449053	0.000158336
  10	0.000160992	0.000249483	0.000259727
  11	0.000194752	0.000159221	0.00010351
  12	0.00018901	0.00025486	0.000252772
  13	0.000265536	0.000370536	0.000263609
  14	9.17821e-05	0.000265296	0.000232366
  15	0.000204939	0.000339702	0.000285045
  16	0.00035228	0.000179623	0.0001954
  17	0.000271255	0.000319368	0.000231759
  18	0.000297201	0.000375865	0.000200231
  19	0.00013492	0.000357169	0.000141908
  20	0.000263167	0.000264227	0.000227921
  21	0.000182863	0.000321027	0.000296413
  22	0.000322462	0.000256016	0.000108782
  23	-8.43433e-06	0.000115421	0.000256337
  24	-0.000567696	0.000213044	0.00012967
  25	-0.000415999	0.000208872	0.000198956
  26	0.000391758	8.89985e-05	-0.000484543
  27	0.000784588	0.000104652	0.000156763
  28	-5.1475e-05	0.000222378	0.000676196
  29	0.000322692	1.71427e-05	8.17751e-05
  30	3.62167e-05	-3.26099e-05	8.90827e-05
  31	-0.000319067	0.000170511	-9.33746e-05
  32	-0.000554433	0.000166186	-0.000104187
  33	0.000395986	5.76855e-05	0.000173311
  34	0.000305001	-9.80062e-05	-8.06747e-05
  35	1.92287e-05	5.85061e-05	0.000510661
  36	-0.000160712	6.59093e-06	0.000140612
  37	0.000305657	-7.0986e-05	5.25811e-05
  38	0.000690297	3.95653e-05	0.000276382
  39	0.000531506	3.63085e-05	0.000189747
  40	-0.000300295	6.17364e-06	0.000497709
  41	-0.000448449	-0.000199875	-0.000136716
  42	0.000432425	-0.000147783	-0.000289528
  43	-0.000282557	-0.000188544	-0.000117808
  44	-9.12983e-05	-9.89094e-05	-2.27283e-05
  45	3.55196e-05	-0.000244769	0.000122826
  46	0.000389227	-0.000420064	0.000345378
  47	-0.000497212	-0.000108829	-0.000230176
  48	-0.000379505	-0.000186172	0.000111766
  49	3.20129e-05	-0.000228304	-0.00017774
  50	-0.00020335	-0.000125436	-0.000195383
  51	-0.000126795	-0.000124484	-0.000252536
  52	-0.000188205	3.03e-05	-0.000537943
  53	-0.000430369	0.000107511	-0.000564795
  54	-0.000167381	-4.82618e-05	-0.000248967
  55	-0.000288621	-0.000116801	-0.000189847
  56	4.70465e-05	-6.23685e-05	-0.000202886
  57	-0.00021801	-9.47239e-05	-9.77558e-05
  58	-0.000195082	-9.8198e-05	-9.95678e-05
  59	-0.000197136	-0.000126562	-0.000111485
  60	-0.000201845	-0.000140274	-0.00013908
  61	-0.000256801	-0.000119923	-9.64738e-05
  62	-0.000186306	-0.000106689	-6.1729e-05
  63	-0.000210994	-0.000100002	-7.22147e-05
  64	-0.000385956	-5.84025e-05	-0.000185903
  65	-0.000251022	-9.5798e-05	-0.000121851
  66	-0.000214728	-0.00016176	-0.000192217
  67	-0.000379371	-0.000222283	-0.000217094
  68	-0.000416128	0.000106455	-0.000324896
  69	-0.000578545	-0.000152345	-0.00016945
  70	-0.000238729	-0.000105613	-7.98979e-05
  71	-0.000171697	4.62738e-06	-8.03771e-05
  72	-0.000260317	-9.32564e-05	-0.000143429
  73	-0.000224688	-0.000103821	-0.000154958
  74	-0.000211891	-0.000125061	-0.000143127
  75	-0.000225928	0.000149526	-3.79156e-06
  76	-0.000224713	-4.35072e-05	-0.000120234
  77	-0.000226474	-0.00017096	-0.000202993
  78	0.000304779	0.000149905	4.14369e-05
  79	6.08348e-05	-4.06196e-05	-1.42624e-05
  80	0.000130328	-0.000321551	1.52576e-05
  81	0.000361512	-0.000294089	-0.000112762
  82	0.000544062	0.000344428	9.00091e-05
  83	9.49176e-05	0.000333086	0.000181588
  84	5.40818e-06	1.56553e-05	-3.47354e-05
  85	0.000683775	6.50809e-05	-9.95661e-05
  86	0.000507163	-0.000108569	-9.78013e-05
  87	0.000775087	-0.000269817	-0.000176512
  88	0.000819364	-0.000379695	-0.000237126
  89	0.0012039	-0.000160677	-0.0004655
  90	0.000860654	0.000679036	0.000189987
  91	0.000312148	-0.000320919	-0.000137363
  92	-0.00019542	-0.000217936	0.000153663
  93	-3.12803e-05	-0.000220151	-1.92974e-06
  94	-0.000367693	-0.000114118	0.000413469
  95	-0.000345312	-0.00022054	0.000168579
  96	-0.000187325	-0.000217114	0.00033289
  97	-0.000142097	-0.0002229	0.000166662
  98	-0.000175865	-0.000550115	-0.000420522
  99	-0.000576174	-4.35611e-05	-0.000172746
 100	-0.00043945	-0.000232672	6.11557e-05
 101	-0.000641338	-0.000445873	0.000208533
 102	-0.000573469	-0.00048012	0.000454176
 103	-0.000795751	-6.60898e-05	-0.000385877
 104	-0.000532728	0.000265063	-0.000124066
 105	-0.000308914	-0.000186483	6.30068e-05
 106	-0.000107519	-2.56137e-05	0.000225833
 107	-0.000658664	-0.000173208	-0.000170008
 108	-0.00102273	0.00020295	-0.000606345
 109	-0.00133827	-4.40056e-05	-0.0015083
 110	-0.000207879	0.000220046	0.000365766
 111	0.000177341	-0.000303974	0.000120896
 112	-0.000732354	-0.000727718	-0.000224565
 113	0.000322894	0.000394146	0.000299259
 114	0.000128093	0.000240275	0.000512864
 115	-3.13287e-05	0.000205496	0.000929275
 116	-0.000126528	0.000248684	0.000668951
 117	0.00044892	0.000437901	6.10061e-05
 118	0.000452814	0.00061581	0.000457279
 119	0.000332305	0.000386609	0.00052144
 120	0.000132788	0.000158289	0.000211708
 121	0.00018046	0.000259714	0.000224447
 122	7.52028e-05	0.000341023	0.000105878
 123	2.23366e-05	0.000193403	1.3086e-05
 124	4.31264e-05	-4.13423e-05	0.000324772
 125	0.000169919	0.000326584	0.000354874
 126	0.00018716	0.00020335	0.000251921
 127	0.000153321	-3.51058e-06	-0.000409815
 128	0.000179257	0.00010244	-7.43479e-05
 129	0.000415855	9.07302e-05	-1.82126e-05
 130	0.000319212	8.91949e-05	0.00025833
 131	0.000305426	1.24171e-05	-0.000421117
 132	-9.95178e-05	-2.75532e-05	-0.000419756
 133	4.20389e-06	0.00010713	-6.00011e-05
 134	0.000213945	-0.000311638	-0.000683524
 135	0.000268388	-0.000132518	-0.000681849
 136	0.000380466	5.65839e-05	-0.000825625
 137	0.000395701	-4.67087e-06	-0.000661298
 138	0.000252289	-1.18524e-05	-0.000896008
 139	-5.75902e-05	-0.000653514	-0.00088051
 140	0.000290258	-0.000268993	-0.000772478
 141	0.000378964	-0.000635242	-5.08164e-06
 142	0.000425518	-0.000496248	-0.00011102
 143	0.000383652	-0.000907827	0.000179584
 144	0.000321329	-0.000628286	-0.000187425
 145	0.000200155	-0.00073142	-4.53828e-05
 146	0.000445689	-0.000506073	-6.9169e-05
 147	0.000740092	-0.000173634	7.13175e-05
 148	0.000445699	-0.000697528	0.000561423
 149	0.000428506	-0.000690434	0.000269238
 150	0.000591065	-0.000640133	0.000229922
 151	0.000618181	-0.000566661	0.000197005
 152	0.000504462	-0.0002318	0.000895802
 153	0.000511218	-0.00117128	0.000911351
 154	0.000290504	-0.000675791	0.000263469
 155	0.000386922	-0.000210601	0.000552126
 156	0.000343561	-0.00063563	-1.9771e-05
 157	0.000488483	-0.00158171	-0.000523644
 158	0.00050367	-0.00145244	-0.00055242
 159	0.000294382	0.000175466	0.000772727
 160	0.000729667	-0.00045307	0.000899806
 161	0.000133828	-8.89494e-05	-0.000595185
 162	0.000189382	0.000383522	0.00024369
 163	8.21299e-05	7.09388e-05	0.000370055
 164	-8.26513e-05	3.96345e-05	0.00033148
 165	-2.67928e-05	-0.000777986	7.0347e-05
 166	6.34082e-05	0.000483057	0.000161126
 167	0.000393087	0.000313174	0.000238491
 168	-4.32465e-05	1.29108e-05	0.000363972
 169	3.19026e-05	0.000317534	-3.84853e-05
 170	0.000136054	0.000537883	5.11498e-05
 171	0.000185054	0.000766489	0.0001775
 172	7.23355e-05	0.000636873	0.000179622
 173	0.00015683	0.000212913	2.10472e-05
 174	8.82526e-06	0.000245929	-8.24755e-05
 175	0.000128683	0.000595966	-0.000151415
 176	-0.000399597	-2.51459e-05	-0.000311602
 177	-0.000240397	0.000303184	-0.000219406
 178	-0.000126206	0.000427515	-0.000107827
 179	-6.5148e-05	0.000532238	-2.2916e-05
 180	-0.000242213	0.000295791	-0.00054964
 181	-0.000603188	-0.000414442	-0.000702537
 182	-0.000397932	0.000517343	-0.000353476
 183	-0.00046589	0.000158777	0.00046664
 184	-0.000596457	-0.000186861	0.000427968
 185	-0.000953919	-0.000926336	0.000517032
 186	-0.00110356	-0.00098124	0.00105926
 187	-0.000676935	0.000266072	0.000616813
 188	-0.00031503	9.46812e-05	0.000332155
 189	-0.000596977	6.60216e-05	0.000887912
 190	-0.000507571	0.000557427	0.000589274
 191	-0.000308535	0.000465073	0.000485508
 192	-0.000229813	0.000636318	0.000517152
 193	-9.51792e-05	0.000651993	0.000628771
 194	-0.000466563	0.000717354	0.00106595
 195	-0.00103589	0.000584134	0.000461733
 196	-0.000141421	0.00040405	0.000354812
 197	-0.000148335	0.000315161	-3.01348e-05
 198	-0.00013338	0.000417423	0.000157486
 199	-0.000220224	0.000221247	-0.000249533
 200	-0.000330708	0.000282185	-2.90074e-05
 201	-0.00013111	0.000365704	-3.58439e-05
 202	-0.000110518	0.000348642	-0.000146985
 203	0.000263599	0.000529307	0.000221151
 204	-0.000324761	-1.03182e-05	-0.000107921
 205	-0.000228949	0.000139763	-3.3609e-05
 206	-0.000142789	0.000116255	-0.000115412
 207	-9.83967e-05	3.98391e-05	-6.48949e-05
 208	-0.000431155	-0.000117957	-0.00010733
 209	-0.000340669	7.31935e-06	-4.05551e-05
 210	-0.000310544	0.000188257	6.51056e-05
 211	-0.00025637	0.000204447	-0.000652813
 212	-0.000236617	3.44669e-06	-0.000327511
 213	-0.000370306	5.34137e-05	-0.000118826
 214	-0.000396273	8.89512e-05	-2.37068e-05
 215	-0.000144512	0.000189464	-0.000920094
 216	-0.000375538	0.000463995	-0.000600742
 217	-3.74521e-05	-0.000134153	-0.000334295
 218	-3.62829e-06	-0.000392501	-0.000957234
 219	-0.000216744	0.000155546	-0.000681653
 220	-0.000482434	0.000144246	-0.000124674
 221	-0.000465783	1.26629e-05	-0.000129433
 222	0.000398547	-0.000391816	-0.00141082
 223	-0.000148438	-0.000997998	-0.000857783
 224	-0.000177704	0.000564488	-0.000879887
 225	2.91218e-05	0.000122514	-0.000595801
 226	-0.000197342	-0.000270839	-0.000713838
 227	-0.000525129	-0.000296287	-0.000284702
 228	-0.00144263	-0.000543822	-0.000696336
 229	2.69596e-06	0.000331656	-0.000225185
 230	0.00036942	0.000293349	-0.000822855
 231	-0.000282261	-0.00056139	-0.000869965
 232	-7.79573e-05	0.000194981	-0.00016488
 233	-0.000178461	6.46441e-05	-0.000493541
 234	-0.000127372	-3.67365e-05	-0.000756938
 235	-0.000460084	0.000213091	-0.000434232
 236	0.000244354	0.000666005	-0.000435211
 237	-0.00037198	-0.000199107	-0.000379984
 238	-0.000452818	-2.76458e-05	-0.000438854
 239	-4.39536e-05	-3.50821e-05	0.000984642
 240	2.04078e-05	0.000190172	0.000743261
 241	-0.00016027	-0.000429354	0.00116763
 242	-0.000556199	-0.000103805	0.00165378
 243	-0.000200574	-0.00093466	0.00162695
 244	-5.22427e-06	0.000809156	0.0016106
 245	0.000281748	0.000633469	0.000980729
 246	-2.54092e-05	-0.000572452	0.000530544
 247	-0.000127941	-0.000208687	-0.00035947
 248	-3.55079e-05	-0.00179174	-0.00185802
 249	0.000158162	-0.00247103	-0.00316221
 250	0.000301154	-0.000793242	0.000677376
 251	0.00017687	-0.000736559	0.000575126
 252	-0.00035652	0.00116	-0.0011432
 253	-0.000503179	-0.000896375	0.00142327
 254	-0.000562906	-0.000452168	0.000986771
 255	-0.000839039	-0.000365536	0.00103438
 256	-0.00125065	-0.000376164	0.00121118
 257	-0.000299402	-0.00212195	0.00162945
 258	-0.000797071	-0.000403334	0.00250778
 259	-0.000747066	-0.000194748	0.000806785
 260	-0.000270363	-0.00136264	-0.000423804
 261	-0.000296463	-0.00044729	8.99099e-06
 262	-0.000293619	0.00118888	0.000120797
 263	-5.76878e-05	0.0015408	-0.00108396
 264	-0.00161493	-0.00183257	-0.00186402
 265	0.00101057	-0.00299627	-0.000184218
 266	-0.000283123	-0.000576449	-0.0008379
 267	-4.9064e-05	0.000244801	0.000372836
 268	-9.19538e-06	0.000405562	0.000566334
 269	0.00107288	0.000662371	0.00214188
 270	0.00169373	-1.7594e-05	0.0019592
 271	-0.000445758	0.000202912	3.56522e-05
 272	-0.000104142	0.000578064	0.000563669
 273	-0.000794616	0.00165259	0.000205382
 274	0.000371251	-5.54188e-05	0.000109596
 275	0.000466492	-0.000249514	0.000235778
 276	0.000990286	-0.000379848	0.000849717
 277	0.00111326	-0.000334154	0.000318737
 278	0.000209042	-0.000204952	4.54896e-05
 279	0.000437638	-8.21249e-05	0.000175612
 280	0.000570302	-0.000631997	-0.000184085
 281	0.000308658	0.000546545	-2.35734e-05
 282	0.000423621	0.000203514	-6.84016e-05
 283	0.000526489	4.85898e-05	8.58253e-05
 284	0.000365392	-0.000666422	0.000459489
 285	0.000267491	0.000766286	0.000368663
 286	8.82586e-05	0.000805465	-0.000313758
 287	0.000621826	0.000258765	-0.000206349
 288	0.00070895	0.000498132	-2.49945e-05
 289	0.000586917	0.000301425	-0.000150694
 290	0.000506831	-6.62848e-05	-0.000600979
 291	0.00089255	-0.000412471	-0.000745264
 292	0.00108227	-0.000109655	-6.37268e-05
 293	0.000971371	0.000931125	0.000538164
 294	0.000818133	7.1086e-05	0.00014036
 295	-0.000443994	0.000286898	-0.00143848
 296	1.87617e-05	0.000692003	-0.000466975
 297	4.27315e-05	0.000536016	-0.000737962
 298	0.000332979	0.000583592	-0.000552448
 299	-0.00142845	0.00149983	-0.00249883
 300	-0.00043305	-0.00132658	-0.00248875
 301	-0.000388736	0.000760065	0.000102811
 302	0.000602544	-0.00148419	-0.00117974
 303	0.000429801	-5.06721e-05	3.26105e-05
 304	0.00129174	-0.00130887	0.00154069
 305	0.00137859	-0.000197039	0.00255139
 306	-0.000863356	-0.0027055	-0.00182407
 307	0.00231855	-0.00225359	-0.0020261
 308	0.000319787	0.00145904	0.000916589
 309	-0.00225091	0.000657555	0.000961875
 310	0.000676712	-0.000763086	-0.00061752
 311	0.00384818	0.000960106	0.000108334
 312	0.00465536	0.00329142	0.00061597
 313	-0.00493059	-0.00095825	0.0013895
 314	-0.00243956	0.00340153	0.00220186
 315	0.000792998	-0.00274658	-0.0019054
 316	-0.000871403	0.000407443	0.000434326
 317	-0.00125702	0.000368694	0.0005202