pySIMM System Object

350 atoms
349 bonds
644 angles
1034 dihedrals
0 impropers

5 atom types
5 bond types
8 angle types
6 dihedral types

-96.420285 96.420285 xlo xhi
-96.420285 96.420285 ylo yhi
-96.420285 96.420285 zlo zhi

Masses

   1	12.01	# c3
   2	1.008	# hc
   3	16.0	# oh
   4	1.008	# ho
   5	1.008	# h1

Pair Coeffs

   1	0.1094	3.3996695084235347	# c3
   2	0.0157	2.649532787749369	# hc
   3	0.2104	3.0664733878390478	# oh
   4	0.0047	0.5379246460131368	# ho
   5	0.0157	2.471353044121301	# h1

Bond Coeffs

   1	371.4	0.973	# ho,oh
   2	330.6	1.0969	# c3,hc
   3	300.9	1.5375	# c3,c3
   4	316.7	1.4233	# c3,oh
   5	330.6	1.0969	# c3,h1

Angle Coeffs

   1	67.47	110.19	# c3,c3,oh
   2	46.34	109.8	# c3,c3,hc
   3	50.93	110.26	# h1,c3,oh
   4	46.39	109.56	# c3,c3,h1
   5	39.4	107.58	# hc,c3,hc
   6	39.24	108.46	# h1,c3,h1
   7	47.38	107.26	# c3,oh,ho
   8	62.86	111.51	# c3,c3,c3

Dihedral Coeffs

   1	2	0.0	3	0	0.25	1	0	# hc,c3,c3,oh
   2	1	0.16666666666666666	3	0	# X,c3,oh,X
   3	1	0.15555555555555556	3	0	# X,c3,c3,X
   4	2	0.16	3	0	0.25	1	0	# ho,oh,c3,c3
   5	1	0.16	3	0	# hc,c3,c3,c3
   6	3	0.18	3	0	0.25	2	180	0.2	1	180	# c3,c3,c3,c3

Atoms

   1	1	1	-0.02562	-22.5242	-15.8497	-19.1077
   2	1	1	0.401389	-22.9149	-17.342	-19.1328
   3	1	3	-0.707077	-22.7487	-17.9042	-20.4337
   4	1	4	0.414767	-23.0757	-18.8232	-20.3785
   5	1	2	-0.013868	-22.6517	-15.4792	-18.082
   6	1	2	-0.001701	-23.2143	-15.2728	-19.7382
   7	1	5	-0.06789	-22.3047	-17.9001	-18.4138
   8	1	1	-0.02562	-20.5849	-14.1771	-19.2781
   9	1	1	0.401389	-21.0652	-15.6196	-19.5615
  10	1	3	-0.707077	-20.9427	-15.907	-20.9527
  11	1	4	0.414767	-21.5157	-16.7124	-21.0749
  12	1	2	-0.013868	-20.6918	-13.9769	-18.2041
  13	1	2	-0.001701	-21.2248	-13.453	-19.7996
  14	1	5	-0.06789	-20.4233	-16.3098	-19.0014
  15	1	1	-0.02562	-18.47	-12.7028	-19.0886
  16	1	1	0.401389	-19.1063	-13.9837	-19.6859
  17	1	3	-0.707077	-18.9969	-13.9842	-21.1071
  18	1	4	0.414767	-19.5733	-14.752	-21.3784
  19	1	2	-0.013868	-17.3773	-12.7736	-19.1751
  20	1	2	-0.001701	-18.6844	-12.6737	-18.0123
  21	1	5	-0.06789	-18.5422	-14.8377	-19.2935
  22	1	1	-0.02562	-18.4373	-10.1507	-18.9464
  23	1	1	0.401389	-18.945	-11.3805	-19.7401
  24	1	3	-0.707077	-18.4832	-11.3176	-21.0876
  25	1	4	0.414767	-18.6074	-12.2531	-21.4168
  26	1	2	-0.013868	-17.3507	-10.2207	-18.8028
  27	1	2	-0.001701	-18.885	-10.1789	-17.9443
  28	1	5	-0.06789	-20.0402	-11.3606	-19.7409
  29	1	1	-0.02562	-18.447	-7.60638	-18.688
  30	1	1	0.401389	-18.786	-8.79838	-19.614
  31	1	3	-0.707077	-18.0776	-8.66169	-20.8437
  32	1	4	0.414767	-18.1298	-9.58182	-21.2342
  33	1	2	-0.013868	-19.0288	-7.7075	-17.7618
  34	1	2	-0.001701	-17.3886	-7.64792	-18.4002
  35	1	5	-0.06789	-19.8613	-8.78014	-19.8216
  36	1	1	-0.02562	-18.6491	-5.08577	-18.3084
  37	1	1	0.401389	-18.7577	-6.23568	-19.3359
  38	1	3	-0.707077	-17.8787	-6.01637	-20.4438
  39	1	4	0.414767	-17.8843	-6.93052	-20.864
  40	1	2	-0.013868	-17.6194	-4.99986	-17.9419
  41	1	2	-0.001701	-19.2703	-5.33765	-17.4391
  42	1	5	-0.06789	-19.7884	-6.26454	-19.7064
  43	1	1	-0.02562	-19.3975	-2.69392	-17.7828
  44	1	1	0.401389	-19.1193	-3.73394	-18.8901
  45	1	3	-0.707077	-18.1099	-3.22936	-19.7678
  46	1	4	0.414767	-18.0329	-3.94789	-20.4422
  47	1	2	-0.013868	-19.8593	-3.1756	-16.9161
  48	1	2	-0.001701	-18.4336	-2.30906	-17.4357
  49	1	5	-0.06789	-20.04	-3.90842	-19.4573
  50	1	1	-0.02562	-20.272	-0.23108	-17.4869
  51	1	1	0.401389	-20.3386	-1.56716	-18.2806
  52	1	3	-0.707077	-21.6797	-2.04994	-18.2423
  53	1	4	0.414767	-21.8573	-2.31823	-17.3222
  54	1	2	-0.013868	-20.9612	0.478862	-17.9643
  55	1	2	-0.001701	-20.6648	-0.384864	-16.4742
  56	1	5	-0.06789	-20.0959	-1.34056	-19.324
  57	1	1	-0.02562	-18.0775	0.381758	-18.732
  58	1	1	0.401389	-18.8742	0.443981	-17.4002
  59	1	3	-0.707077	-18.1492	-0.126924	-16.3133
  60	1	4	0.414767	-17.1982	0.0959395	-16.5328
  61	1	2	-0.013868	-18.6298	0.936749	-19.5011
  62	1	2	-0.001701	-18.0416	-0.650831	-19.0753
  63	1	5	-0.06789	-19.029	1.50187	-17.1616
  64	1	1	-0.02562	-15.8621	0.772919	-20.0115
  65	1	1	0.401389	-16.6275	0.925093	-18.6706
  66	1	3	-0.707077	-15.8816	0.266654	-17.6497
  67	1	4	0.414767	-15.4986	-0.52388	-18.1081
  68	1	2	-0.013868	-14.8108	1.05113	-19.8547
  69	1	2	-0.001701	-16.2628	1.49914	-20.7292
  70	1	5	-0.06789	-16.6733	1.99071	-18.4188
  71	1	1	-0.02562	-14.9504	-0.773181	-21.8358
  72	1	1	0.401389	-15.9381	-0.641987	-20.6503
  73	1	3	-0.707077	-15.7195	-1.64971	-19.6587
  74	1	4	0.414767	-16.562	-2.19289	-19.7137
  75	1	2	-0.013868	-13.9236	-0.599865	-21.486
  76	1	2	-0.001701	-15.1633	0.0407892	-22.5405
  77	1	5	-0.06789	-16.9548	-0.770009	-21.0335
  78	1	1	-0.02562	-14.2415	-3.28245	-21.9765
  79	1	1	0.401389	-15.0178	-2.10573	-22.6291
  80	1	3	-0.707077	-16.3678	-2.44653	-22.93
  81	1	4	0.414767	-16.3507	-3.42078	-23.0907
  82	1	2	-0.013868	-13.679	-3.80666	-22.7603
  83	1	2	-0.001701	-13.4759	-2.87864	-21.3044
  84	1	5	-0.06789	-14.5086	-1.91154	-23.5808
  85	1	1	-0.02562	-14.2872	-5.22402	-20.2853
  86	1	1	0.401389	-15.1143	-4.32059	-21.2284
  87	1	3	-0.707077	-15.8489	-5.10263	-22.1662
  88	1	4	0.414767	-16.5489	-5.54881	-21.6257
  89	1	2	-0.013868	-14.7321	-6.22881	-20.2663
  90	1	2	-0.001701	-13.2644	-5.34247	-20.6663
  91	1	5	-0.06789	-15.8555	-3.80891	-20.6202
  92	1	1	-0.02562	-13.4221	-5.58181	-17.8988
  93	1	1	0.401389	-14.2639	-4.68298	-18.8349
  94	1	3	-0.707077	-13.7429	-3.35977	-18.7679
  95	1	4	0.414767	-14.4497	-2.74039	-19.088
  96	1	2	-0.013868	-12.3741	-5.25111	-17.9135
  97	1	2	-0.001701	-13.4191	-6.61724	-18.2653
  98	1	5	-0.06789	-15.2983	-4.66055	-18.4764
  99	1	1	-0.02562	-15.1592	-6.5395	-16.3145
 100	1	1	0.401389	-13.9754	-5.55594	-16.4562
 101	1	3	-0.707077	-12.951	-5.91098	-15.5361
 102	1	4	0.414767	-12.2646	-5.22267	-15.6277
 103	1	2	-0.013868	-14.7927	-7.56268	-16.4776
 104	1	2	-0.001701	-15.884	-6.34783	-17.1124
 105	1	5	-0.06789	-14.3062	-4.53906	-16.2222
 106	1	1	-0.02562	-16.5475	-5.09754	-14.6863
 107	1	1	0.401389	-15.8963	-6.47846	-14.9592
 108	1	3	-0.707077	-16.8792	-7.52005	-14.9583
 109	1	4	0.414767	-16.3593	-8.3449	-14.8776
 110	1	2	-0.013868	-16.961	-4.69428	-15.6193
 111	1	2	-0.001701	-15.7655	-4.39834	-14.3643
 112	1	5	-0.06789	-15.1914	-6.69549	-14.1501
 113	1	1	-0.02562	-18.0232	-3.78642	-12.997
 114	1	1	0.401389	-17.6541	-5.15761	-13.6031
 115	1	3	-0.707077	-18.8218	-5.76662	-14.1546
 116	1	4	0.414767	-18.4447	-6.62065	-14.5006
 117	1	2	-0.013868	-17.1483	-3.39413	-12.4612
 118	1	2	-0.001701	-18.7875	-3.93619	-12.224
 119	1	5	-0.06789	-17.2942	-5.78806	-12.7826
 120	1	1	-0.02562	-19.9182	-2.18912	-13.775
 121	1	1	0.401389	-18.5081	-2.76007	-14.0543
 122	1	3	-0.707077	-17.5794	-1.6869	-14.1221
 123	1	4	0.414767	-17.8748	-1.10549	-14.8742
 124	1	2	-0.013868	-19.9101	-1.64254	-12.8228
 125	1	2	-0.001701	-20.1479	-1.45049	-14.5504
 126	1	5	-0.06789	-18.5275	-3.23219	-15.0407
 127	1	1	-0.02562	-22.4446	-2.55853	-13.7852
 128	1	1	0.401389	-21.0522	-3.24523	-13.7363
 129	1	3	-0.707077	-20.9274	-4.17865	-14.8115
 130	1	4	0.414767	-20.1741	-4.79374	-14.5615
 131	1	2	-0.013868	-22.5229	-1.93767	-14.6884
 132	1	2	-0.001701	-22.5283	-1.8767	-12.9285
 133	1	5	-0.06789	-20.9811	-3.80484	-12.797
 134	1	1	-0.02562	-25.0008	-2.85062	-13.6675
 135	1	1	0.401389	-23.6236	-3.55951	-13.7448
 136	1	3	-0.707077	-23.5795	-4.39833	-14.898
 137	1	4	0.414767	-22.6011	-4.53684	-15.0461
 138	1	2	-0.013868	-25.0163	-2.1996	-12.7836
 139	1	2	-0.001701	-25.1432	-2.19905	-14.5394
 140	1	5	-0.06789	-23.5092	-4.18379	-12.8519
 141	1	1	-0.02562	-27.5479	-3.19735	-13.3634
 142	1	1	0.401389	-26.1662	-3.86367	-13.5618
 143	1	3	-0.707077	-26.2209	-4.69327	-14.7147
 144	1	4	0.414767	-25.265	-4.77741	-14.9901
 145	1	2	-0.013868	-27.743	-2.49067	-14.1814
 146	1	2	-0.001701	-27.5467	-2.61504	-12.4329
 147	1	5	-0.06789	-25.9653	-4.50254	-12.6946
 148	1	1	-0.02562	-30.0869	-3.63338	-13.1569
 149	1	1	0.401389	-28.6781	-4.25458	-13.3119
 150	1	3	-0.707077	-28.4181	-5.19209	-12.2641
 151	1	4	0.414767	-27.6609	-5.71637	-12.6023
 152	1	2	-0.013868	-30.2848	-2.99145	-14.0259
 153	1	2	-0.001701	-30.1309	-2.98894	-12.2695
 154	1	5	-0.06789	-28.6907	-4.80809	-14.2563
 155	1	1	-0.02562	-32.603	-4.22349	-13.3163
 156	1	1	0.401389	-31.1661	-4.7386	-13.0761
 157	1	3	-0.707077	-31.0923	-5.37601	-11.803
 158	1	4	0.414767	-30.1116	-5.48588	-11.6674
 159	1	2	-0.013868	-32.6397	-3.70849	-14.2848
 160	1	2	-0.001701	-32.8712	-3.48324	-12.5515
 161	1	5	-0.06789	-30.9467	-5.4804	-13.8517
 162	1	1	-0.02562	-35.0175	-4.9998	-13.8557
 163	1	1	0.401389	-33.6171	-5.3958	-13.3284
 164	1	3	-0.707077	-33.7302	-5.94999	-12.019
 165	1	4	0.414767	-32.7896	-5.95142	-11.6853
 166	1	2	-0.013868	-35.6244	-5.90782	-13.9859
 167	1	2	-0.001701	-34.9073	-4.55597	-14.8548
 168	1	5	-0.06789	-33.2222	-6.16727	-13.9993
 169	1	1	-0.02562	-37.061	-3.49289	-13.5751
 170	1	1	0.401389	-35.761	-4.01054	-12.93
 171	1	3	-0.707077	-36.0584	-4.63443	-11.6834
 172	1	4	0.414767	-35.2753	-5.2357	-11.5302
 173	1	2	-0.013868	-37.7293	-4.33724	-13.791
 174	1	2	-0.001701	-36.8171	-3.0244	-14.5379
 175	1	5	-0.06789	-35.1124	-3.1484	-12.7464
 176	1	1	-0.02562	-38.9175	-1.71221	-13.3946
 177	1	1	0.401389	-37.7695	-2.45092	-12.6787
 178	1	3	-0.707077	-38.2841	-3.06739	-11.5032
 179	1	4	0.414767	-37.5691	-3.71399	-11.2542
 180	1	2	-0.013868	-39.3445	-0.983406	-12.6958
 181	1	2	-0.001701	-38.5091	-1.11279	-14.2192
 182	1	5	-0.06789	-37.0259	-1.70412	-12.3763
 183	1	1	-0.02562	-41.4403	-2.14513	-13.8009
 184	1	1	0.401389	-40.0007	-2.68744	-13.9297
 185	1	3	-0.707077	-39.7431	-2.97078	-15.3024
 186	1	4	0.414767	-40.3499	-3.69242	-15.5448
 187	1	2	-0.013868	-42.1264	-2.81161	-14.3402
 188	1	2	-0.001701	-41.4963	-1.16886	-14.3031
 189	1	5	-0.06789	-39.9573	-3.63615	-13.3868
 190	1	1	-0.02562	-41.942	-3.28097	-11.4754
 191	1	1	0.401389	-41.9206	-1.98543	-12.334
 192	1	3	-0.707077	-43.2198	-1.39253	-12.3513
 193	1	4	0.414767	-43.0821	-0.458252	-12.6011
 194	1	2	-0.013868	-40.9386	-3.71844	-11.4421
 195	1	2	-0.001701	-42.1699	-2.99869	-10.4397
 196	1	5	-0.06789	-41.2599	-1.2733	-11.831
 197	1	1	-0.02562	-42.824	-5.70027	-11.1891
 198	1	1	0.401389	-42.9478	-4.35468	-11.9541
 199	1	3	-0.707077	-44.2758	-3.85061	-11.89
 200	1	4	0.414767	-44.1754	-2.88964	-12.1235
 201	1	2	-0.013868	-41.8517	-6.1381	-11.454
 202	1	2	-0.001701	-43.5761	-6.40246	-11.5738
 203	1	5	-0.06789	-42.7328	-4.56512	-13.0081
 204	1	1	-0.02562	-44.1874	-4.99633	-9.04311
 205	1	1	0.401389	-42.902	-5.62312	-9.63707
 206	1	3	-0.707077	-42.7494	-6.93367	-9.10904
 207	1	4	0.414767	-43.6844	-7.26444	-9.03972
 208	1	2	-0.013868	-44.135	-5.02909	-7.94698
 209	1	2	-0.001701	-44.2227	-3.92795	-9.29285
 210	1	5	-0.06789	-42.0515	-5.02815	-9.29016
 211	1	1	-0.02562	-46.7629	-5.00629	-8.96046
 212	1	1	0.401389	-45.4877	-5.68415	-9.51991
 213	1	3	-0.707077	-45.4877	-7.05759	-9.14276
 214	1	4	0.414767	-46.4209	-7.33382	-9.34522
 215	1	2	-0.013868	-46.6491	-3.91682	-8.98106
 216	1	2	-0.001701	-46.8895	-5.26874	-7.90251
 217	1	5	-0.06789	-45.5212	-5.63726	-10.6079
 218	1	1	-0.02562	-48.085	-4.71271	-11.1428
 219	1	1	0.401389	-48.0417	-5.38875	-9.74568
 220	1	3	-0.707077	-48.1328	-6.81051	-9.86758
 221	1	4	0.414767	-48.8033	-6.94237	-10.5891
 222	1	2	-0.013868	-47.9753	-3.62826	-11.018
 223	1	2	-0.001701	-47.2198	-5.02941	-11.7327
 224	1	5	-0.06789	-48.9063	-5.03426	-9.17322
 225	1	1	-0.02562	-50.6588	-4.39191	-11.3872
 226	1	1	0.401389	-49.3551	-4.98741	-11.9792
 227	1	3	-0.707077	-49.4989	-6.39121	-12.2048
 228	1	4	0.414767	-49.029	-6.56223	-13.0451
 229	1	2	-0.013868	-51.2851	-5.19919	-10.9825
 230	1	2	-0.001701	-50.4316	-3.71986	-10.5466
 231	1	5	-0.06789	-49.1697	-4.53439	-12.9577
 232	1	1	-0.02562	-52.8622	-3.16752	-12.0922
 233	1	1	0.401389	-51.4274	-3.60533	-12.4814
 234	1	3	-0.707077	-50.6808	-2.4329	-12.812
 235	1	4	0.414767	-51.1291	-2.06206	-13.5922
 236	1	2	-0.013868	-52.8362	-2.63107	-11.1325
 237	1	2	-0.001701	-53.2271	-2.44896	-12.8418
 238	1	5	-0.06789	-51.4787	-4.22393	-13.3877
 239	1	1	-0.02562	-55.3084	-3.81137	-11.7699
 240	1	1	0.401389	-53.8721	-4.33909	-11.9923
 241	1	3	-0.707077	-53.8389	-5.11849	-13.1823
 242	1	4	0.414767	-54.1783	-5.99402	-12.916
 243	1	2	-0.013868	-55.3317	-3.14477	-10.8965
 244	1	2	-0.001701	-55.5809	-3.20413	-12.6382
 245	1	5	-0.06789	-53.5786	-4.97597	-11.1529
 246	1	1	-0.02562	-57.7897	-4.42616	-11.2644
 247	1	1	0.401389	-56.3644	-4.93354	-11.5914
 248	1	3	-0.707077	-55.957	-5.82212	-10.5521
 249	1	4	0.414767	-56.7336	-6.37574	-10.3382
 250	1	2	-0.013868	-57.7663	-3.80292	-10.3585
 251	1	2	-0.001701	-58.4052	-5.30315	-11.0113
 252	1	5	-0.06789	-56.425	-5.52186	-12.5148
 253	1	1	-0.02562	-60.0091	-3.61745	-12.2074
 254	1	1	0.401389	-58.4804	-3.6577	-12.4199
 255	1	3	-0.707077	-57.9919	-2.32082	-12.4906
 256	1	4	0.414767	-58.361	-1.94808	-13.3107
 257	1	2	-0.013868	-60.2127	-3.4549	-11.1432
 258	1	2	-0.001701	-60.4436	-2.75968	-12.7364
 259	1	5	-0.06789	-58.2624	-4.15833	-13.3698
 260	1	1	-0.02562	-62.0376	-5.18872	-11.9805
 261	1	1	0.401389	-60.6854	-4.92051	-12.6897
 262	1	3	-0.707077	-60.8814	-4.86511	-14.0949
 263	1	4	0.414767	-61.1574	-5.76556	-14.351
 264	1	2	-0.013868	-62.5273	-4.23921	-11.7458
 265	1	2	-0.001701	-62.7071	-5.73462	-12.6521
 266	1	5	-0.06789	-60.0014	-5.75371	-12.5081
 267	1	1	-0.02562	-63.1241	-6.23332	-9.8454
 268	1	1	0.401389	-61.8317	-5.99872	-10.679
 269	1	3	-0.707077	-61.222	-7.25391	-10.9782
 270	1	4	0.414767	-61.987	-7.8296	-11.2527
 271	1	2	-0.013868	-63.5138	-5.25802	-9.52533
 272	1	2	-0.001701	-62.8389	-6.77295	-8.93319
 273	1	5	-0.06789	-61.1384	-5.43093	-10.0388
 274	1	1	-0.02562	-65.3474	-7.51953	-9.56062
 275	1	1	0.401389	-64.2686	-7.01059	-10.5555
 276	1	3	-0.707077	-63.7457	-8.12272	-11.2823
 277	1	4	0.414767	-64.5608	-8.68048	-11.4444
 278	1	2	-0.013868	-64.9035	-8.26539	-8.89044
 279	1	2	-0.001701	-65.6561	-6.68766	-8.91424
 280	1	5	-0.06789	-64.7554	-6.32422	-11.2558
 281	1	1	-0.02562	-67.5396	-8.79398	-9.19651
 282	1	1	0.401389	-66.6211	-8.09643	-10.2334
 283	1	3	-0.707077	-66.2842	-9.01174	-11.2785
 284	1	4	0.414767	-67.0988	-9.06457	-11.8157
 285	1	2	-0.013868	-66.9764	-9.59661	-8.69877
 286	1	2	-0.001701	-67.8067	-8.05555	-8.42771
 287	1	5	-0.06789	-67.1667	-7.26347	-10.6927
 288	1	1	-0.02562	-69.693	-10.2082	-8.82106
 289	1	1	0.401389	-68.8224	-9.39319	-9.82215
 290	1	3	-0.707077	-69.5991	-8.35195	-10.4333
 291	1	4	0.414767	-70.2837	-8.80166	-10.972
 292	1	2	-0.013868	-70.5446	-10.6304	-9.35933
 293	1	2	-0.001701	-69.1106	-11.063	-8.45449
 294	1	5	-0.06789	-68.5163	-10.0992	-10.6092
 295	1	1	-0.02562	-70.9992	-10.3322	-6.6045
 296	1	1	0.401389	-70.2298	-9.42227	-7.60392
 297	1	3	-0.707077	-71.0188	-8.31328	-8.04828
 298	1	4	0.414767	-70.5518	-7.94059	-8.83694
 299	1	2	-0.013868	-71.3908	-11.2117	-7.13885
 300	1	2	-0.001701	-70.2769	-10.7159	-5.86504
 301	1	5	-0.06789	-69.3717	-9.01331	-7.07067
 302	1	1	-0.02562	-73.0452	-10.4427	-4.91941
 303	1	1	0.401389	-72.1653	-9.60628	-5.88347
 304	1	3	-0.707077	-71.6829	-8.43264	-5.23475
 305	1	4	0.414767	-71.504	-7.83243	-5.99496
 306	1	2	-0.013868	-73.7051	-9.74132	-4.39733
 307	1	2	-0.001701	-73.7123	-11.0784	-5.5135
 308	1	5	-0.06789	-72.8746	-9.27459	-6.65405
 309	1	1	-0.02562	-71.3667	-10.5888	-2.93423
 310	1	1	0.401389	-72.3524	-11.331	-3.85259
 311	1	3	-0.707077	-71.7185	-12.4667	-4.43946
 312	1	4	0.414767	-71.0971	-12.8057	-3.75504
 313	1	2	-0.013868	-71.8103	-9.61708	-2.66252
 314	1	2	-0.001701	-70.4319	-10.3773	-3.47663
 315	1	5	-0.06789	-73.1581	-11.6986	-3.20014
 316	1	1	-0.02562	-70.7343	-10.4859	-0.463184
 317	1	1	0.401389	-71.0786	-11.4088	-1.65078
 318	1	3	-0.707077	-70.0522	-12.3696	-1.90634
 319	1	4	0.414767	-69.8643	-12.8158	-1.06109
 320	1	2	-0.013868	-71.4995	-9.69706	-0.394683
 321	1	2	-0.001701	-69.7793	-9.98086	-0.673835
 322	1	5	-0.06789	-71.9909	-11.95	-1.39378
 323	1	1	-0.02562	-71.872	-12.0671	1.30066
 324	1	1	0.401389	-70.6537	-11.205	0.902369
 325	1	3	-0.707077	-70.4241	-10.2318	1.9076
 326	1	4	0.414767	-69.4851	-10.2867	2.16239
 327	1	2	-0.013868	-71.6613	-12.4793	2.29288
 328	1	2	-0.001701	-71.9236	-12.9365	0.634747
 329	1	5	-0.06789	-69.7789	-11.8579	0.86695
 330	1	1	-0.02562	-74.1094	-11.685	2.53307
 331	1	1	0.401389	-73.2337	-11.3261	1.31073
 332	1	3	-0.707077	-73.9838	-11.6946	0.152082
 333	1	4	0.414767	-73.6063	-11.2525	-0.620201
 334	1	2	-0.013868	-75.1438	-11.3814	2.33464
 335	1	2	-0.001701	-74.1271	-12.7777	2.64262
 336	1	5	-0.06789	-73.0726	-10.2486	1.29716
 337	1	1	-0.02562	-74.2527	-9.60413	4.04236
 338	1	1	0.401389	-73.657	-11.0292	3.86806
 339	1	3	-0.707077	-74.012	-11.874	4.96106
 340	1	4	0.414767	-73.5832	-11.4583	5.74396
 341	1	2	-0.013868	-73.6582	-8.91162	3.43767
 342	1	2	-0.001701	-75.2698	-9.58201	3.62554
 343	1	5	-0.06789	-72.5665	-10.9412	3.87082
 344	1	1	-0.02562	-74.5203	-7.53451	5.55615
 345	1	1	0.401389	-74.3363	-9.07012	5.50383
 346	1	3	-0.707077	-73.1841	-9.44484	6.26205
 347	1	4	0.414767	-73.2686	-9.0059	7.12999
 348	1	2	-0.013868	-74.9913	-7.16142	4.63758
 349	1	2	-0.001701	-73.5662	-7.00352	5.65801
 350	1	5	-0.06789	-75.2126	-9.51731	5.98679

Velocities

   1	0.00211003	0.000497412	-0.00382542
   2	0.000352307	0.00129216	-0.00240511
   3	0.00339739	-0.0014054	-0.0003535
   4	-0.000372108	0.00434914	-0.00264631
   5	0.0013422	0.00397591	-0.00216706
   6	0.00217912	-0.000436713	-0.00425675
   7	-0.00533025	0.00118887	0.00163283
   8	0.00264023	-3.34603e-05	-0.00020273
   9	0.00407534	-0.000752607	-0.00132023
  10	0.00364206	-0.00138164	-0.00259935
  11	0.00393493	-0.0029558	-0.00443295
  12	0.00291633	-0.00129238	-0.00232006
  13	0.0035011	-0.00207578	-0.00149169
  14	0.000154979	-0.00121281	6.3171e-05
  15	0.00179039	0.00201729	-0.00119363
  16	0.00175891	0.00164192	-0.000635203
  17	0.00140588	0.000521991	-0.00171964
  18	0.00245131	-0.00233348	0.00182067
  19	-0.00150344	0.000826444	-0.00186506
  20	0.000895584	-0.000563517	-0.00400891
  21	0.00365968	-0.00017232	-0.000427642
  22	0.00208495	0.00270953	-0.000489863
  23	0.00243199	0.00191039	-0.00236623
  24	0.00117222	-0.000993807	-0.00247083
  25	0.00333701	-0.00052091	0.00124756
  26	0.00171684	0.00610281	-0.000652455
  27	0.00662605	0.000901991	0.000230428
  28	0.00229988	0.000460213	-0.00184026
  29	0.00137051	0.00103341	-0.00149364
  30	0.000539944	0.00126393	-0.00103517
  31	0.000983247	0.00153413	-0.00163791
  32	-0.000728704	0.00197827	-0.00115962
  33	0.00137347	0.000692891	-0.00189405
  34	0.000448499	-0.000578531	-0.000117532
  35	0.00233145	-0.00121381	0.0013814
  36	0.00243673	0.00171	-0.00267038
  37	0.000988218	0.000739145	-0.00148718
  38	0.000296723	0.000583594	-0.00368035
  39	0.00161069	-0.00273886	-0.000765751
  40	0.00369554	0.000899388	-0.00239119
  41	0.00208968	0.00205106	-0.00213799
  42	0.0007994	0.00141068	-0.000231449
  43	0.00219077	0.00100139	-0.00129785
  44	0.00228989	0.00127394	-0.00193969
  45	0.00222615	0.000208522	-0.00185444
  46	0.00246156	-0.00172005	-0.00492926
  47	0.00247723	0.00156107	-0.000799176
  48	0.00144393	0.00254117	-0.00328182
  49	0.00248161	0.00183806	-0.000864691
  50	0.00159517	0.000753663	-0.00017585
  51	0.00123539	0.00025645	0.00020885
  52	0.000512971	0.00137625	-0.00182085
  53	0.00321693	-0.0065108	-0.00283398
  54	0.000468318	0.000914454	-0.00224397
  55	0.00337532	0.00334878	0.000957125
  56	0.00159772	0.001655	0.000506379
  57	0.000204598	-0.000135833	-0.00221843
  58	0.00165418	-5.09613e-05	-0.000328685
  59	0.000662589	-0.000205023	-0.000431975
  60	0.000713298	0.00131393	0.000177654
  61	0.000306154	-0.00109794	-0.00276321
  62	-0.000369145	-0.00100818	0.0009952
  63	0.00166378	0.00173544	-0.00012586
  64	0.00206959	0.00110293	-0.00265109
  65	0.0008071	0.000599895	-0.00301597
  66	0.000539314	0.00135593	-0.00219936
  67	0.00240792	0.00341463	-0.00208038
  68	0.00133214	-0.00185142	-0.00117867
  69	0.00452602	-0.00233537	-0.00459938
  70	-0.000543076	0.00349862	-0.00423726
  71	0.00076191	-0.00138388	-0.000569729
  72	0.00133196	-0.000197089	-0.00187697
  73	-0.00133669	0.000811385	-0.00185156
  74	-0.00198767	0.00236294	-0.00244224
  75	0.00295297	-0.00451497	-0.00159807
  76	0.00503179	-0.000158213	-0.00211536
  77	0.00213292	0.00192408	-0.00301546
  78	-0.000646119	-0.000590021	-0.0016672
  79	-0.000194119	-0.00106589	-0.00277277
  80	-3.42333e-05	-0.000728118	-0.00484171
  81	-0.00189791	-0.00555281	0.00441645
  82	-0.0020813	-0.00161959	-0.00265714
  83	0.00241099	-0.00213983	-0.0041026
  84	0.0011522	-0.000178352	-0.00158882
  85	-5.21511e-05	-0.000333958	-0.00124909
  86	-0.00105647	-0.00103239	-0.00135222
  87	0.000995318	-0.00149266	-0.00124988
  88	-0.00044702	0.00191372	0.000706458
  89	0.000284247	0.000266316	-0.00145204
  90	-0.00226153	0.00170551	0.000622229
  91	-0.000841837	-0.000826177	-0.0036514
  92	0.001736	0.00135002	0.000656392
  93	0.00202823	0.0008703	-0.000700197
  94	0.000718391	0.00104619	-0.00283145
  95	-0.00263081	0.00261448	-0.000866379
  96	0.00112841	0.00148645	0.000742089
  97	0.00108779	-0.000944123	-0.00194507
  98	0.00080052	0.000596907	0.000576034
  99	0.000565813	0.000952431	0.0010696
 100	0.00148944	0.00129897	0.00136354
 101	0.000969089	0.00242585	0.000455572
 102	-0.00393541	0.00421163	0.000575489
 103	0.00202533	0.00110974	0.00600355
 104	0.0021108	-0.000156069	-2.75377e-05
 105	0.00231097	0.00211679	0.00239661
 106	-8.30144e-05	0.00109472	0.000697199
 107	-0.000838077	0.00163094	0.00074765
 108	0.00042034	0.000306395	0.00100702
 109	0.00222178	0.00105488	0.00366183
 110	0.00408768	0.00178119	0.00150543
 111	-0.00144401	-0.000151542	0.00266145
 112	0.000519443	0.00252927	0.00368096
 113	-0.00267387	-3.50593e-05	7.76854e-05
 114	-0.00177488	-0.000616593	-0.00183226
 115	-0.00123426	0.000100884	-0.00385411
 116	0.00152214	0.0010673	-0.00590392
 117	-0.00131988	-0.00180648	-0.00491645
 118	-0.00207725	0.0012044	-0.00140003
 119	-0.0047337	-0.000769753	-0.00133616
 120	-0.00160814	0.00114756	-0.00303862
 121	-0.00070236	-0.000582642	-0.00176018
 122	0.000130008	-0.00161005	-0.0020583
 123	0.00129924	0.000564059	-0.00386253
 124	-0.000917368	-0.00434771	-0.0014415
 125	-0.00220255	0.001654	-0.00251509
 126	-0.000638789	-0.00196493	-0.0025977
 127	-0.000282212	-0.000584729	-0.00391952
 128	0.000644487	-4.52966e-06	-0.00221193
 129	0.000574689	0.000739766	-0.00311954
 130	0.000574579	0.00141321	-0.004114
 131	0.00196766	-0.00243665	-0.00285449
 132	-5.53783e-05	0.00144739	-0.00391757
 133	0.000715733	0.00346733	-0.00230257
 134	0.000922047	0.000285768	-0.00234585
 135	0.00155254	-0.000697411	-0.00253202
 136	-0.000714533	-0.000152124	-0.00142236
 137	0.00209313	-0.00117887	-0.000734768
 138	0.00445195	0.00131869	-0.00115921
 139	0.00675614	-0.0022379	-0.00464294
 140	0.000246169	-0.00226876	-0.00405298
 141	0.00136648	0.000378366	-0.00145993
 142	0.00169697	0.00135228	-0.00282138
 143	-0.00124591	0.000414689	-0.00199284
 144	-0.00089129	-0.00401551	-0.00447146
 145	-0.000152184	0.00227757	-0.00225655
 146	0.00203745	-0.00251814	-0.00483174
 147	-0.00175465	0.0056695	-0.00501235
 148	0.00196141	0.000877472	-0.00121573
 149	0.000304378	0.000273263	-0.00115769
 150	0.00128103	0.00147679	-0.00170958
 151	0.00447417	0.00336057	-0.00122248
 152	-0.000931017	0.000975914	-0.00345055
 153	0.00195914	0.00155913	-0.00075982
 154	0.000125194	-0.000432228	-0.00295168
 155	0.0013988	8.58449e-05	0.00072009
 156	0.000723696	0.00131142	0.000288396
 157	0.00101548	0.00227876	0.00133348
 158	0.000900409	-0.00507034	0.000106116
 159	-0.00135134	-6.3999e-05	-0.000511256
 160	0.00811203	-0.00517059	-0.00102724
 161	-0.000979009	0.000562444	0.0003463
 162	0.00235699	-0.00292099	0.000117188
 163	0.00162217	-0.000358736	0.00205532
 164	0.00107232	-0.000616901	0.0027203
 165	-0.000438452	0.00323732	0.00408618
 166	0.00337286	-0.00220733	0.00416812
 167	0.00178885	-0.00381822	-0.000411743
 168	0.00151377	-0.00181597	0.00461482
 169	0.00221025	-0.00106519	-0.00366767
 170	0.00122769	-0.000892589	-0.00073081
 171	-9.05821e-05	0.000397182	0.00120473
 172	0.000774031	0.00365898	-0.00141216
 173	0.00579539	0.00785858	-0.00430356
 174	0.00637805	0.00109415	-0.00314827
 175	0.00435671	-0.00253565	-0.00136083
 176	0.000993984	-0.000640269	-0.00567067
 177	0.00197736	0.000534036	-0.00494957
 178	-0.00228389	-0.000199905	-0.00491691
 179	0.00307801	0.00753265	0.00333362
 180	-0.00307843	0.00116843	-0.00636931
 181	0.00181856	-0.00295645	-0.00281894
 182	0.00102452	0.00413103	-0.00329967
 183	0.000929525	-0.00150109	-0.00402718
 184	0.00237911	-0.000656827	-0.00165856
 185	0.0030213	-0.000980708	-0.00379966
 186	0.00278702	0.000106728	-0.00922356
 187	0.00237935	0.00375077	-0.00329263
 188	0.00146385	0.000965577	0.00339934
 189	-0.000482766	0.00282338	0.00188373
 190	0.00294865	-0.00286836	-0.00387069
 191	0.00241539	-0.00255217	-0.00262133
 192	0.00271051	-0.00150866	0.00188851
 193	0.00108509	0.000529869	-0.0038053
 194	0.00144067	-0.00833678	-0.00505798
 195	0.00261662	-0.00837933	-0.000547206
 196	0.00752436	-0.00248823	0.00610428
 197	-0.00130232	-0.000638423	-0.00198608
 198	0.000676484	-0.00140444	-0.00425069
 199	0.00156442	2.56116e-05	-0.00139894
 200	0.00554527	-0.00136449	0.00132556
 201	-4.78784e-05	-0.00221376	-0.00784333
 202	-0.000364196	-0.000774038	-0.00215841
 203	0.00240234	0.00315306	-0.0085997
 204	0.00043455	-0.000237107	-0.00260608
 205	0.00291851	-0.000441695	-0.0021317
 206	0.00159595	0.00396304	0.000470597
 207	-0.00208846	-0.00817813	-0.0101697
 208	-0.00573549	-0.0083145	-0.00830396
 209	0.00537305	0.00431786	0.000419916
 210	-0.00190785	0.0007004	-0.00234785
 211	0.00326749	0.00053264	-0.00208436
 212	0.00414775	-0.00297405	-0.0040473
 213	0.00315964	-0.00321647	-0.00158014
 214	-0.00956398	-0.0115487	-0.0162115
 215	-0.00471219	0.0126627	-0.0101191
 216	-0.00112884	0.0111069	-0.000878642
 217	0.00969609	-0.00274769	0.00271498
 218	0.000477091	-0.000749092	-0.000605465
 219	0.00110698	-0.00169505	-0.00366419
 220	0.000389938	-0.00429371	-0.00742424
 221	-0.00129958	-0.0100577	0.00151373
 222	0.00976058	-0.0012342	-0.00428891
 223	-0.00626798	-0.0124171	-0.00911008
 224	0.000560149	-0.00782799	0.0053221
 225	0.0040326	0.00363295	0.00112288
 226	0.00498326	0.002042	-0.0021535
 227	-0.000572617	-0.00189595	-0.00212777
 228	0.00428877	0.00175782	0.00133313
 229	-0.00438444	0.00415912	0.00694247
 230	0.0188511	0.00937575	0.00097055
 231	0.0144019	0.000819312	-0.00418898
 232	0.000444826	0.00396609	-0.00104229
 233	0.00528626	0.000750583	-0.00286171
 234	0.00079778	0.00057496	-0.00185507
 235	-0.000124795	-0.00366363	-0.00336644
 236	0.00513948	0.00125954	-0.000683833
 237	-0.00154015	0.00199386	-0.00106217
 238	0.0131389	0.00970761	-0.000253548
 239	-0.000728403	-0.00930946	4.89697e-06
 240	0.00321586	-0.00119508	0.00115054
 241	0.00697443	-0.00451744	-0.00145634
 242	0.024411	0.000118535	-0.00891957
 243	-0.0166117	0.001442	0.001405
 244	0.00489048	-0.00173174	-0.0129419
 245	0.000687953	-0.00936517	0.00749608
 246	0.00307294	-0.00329331	-0.00546439
 247	0.00225782	-0.00222904	-0.00105919
 248	0.00658202	-0.00365176	0.000103152
 249	-0.0203232	-0.00624841	0.0200125
 250	-0.0258973	0.0044191	-0.00755521
 251	0.00359035	0.0149451	-0.00341901
 252	0.0129073	-0.0116526	0.0134154
 253	-0.000673187	-0.00201202	0.00766297
 254	-0.00520476	0.00125132	-0.00337883
 255	-0.00202181	-0.00349595	-0.00268819
 256	-0.0185604	-0.00559148	0.000472198
 257	0.00431138	-0.00486093	0.00137134
 258	-0.0136701	0.00352252	0.0147307
 259	-0.00524445	-0.00511192	-0.012796
 260	-0.00504731	-0.000579402	-0.00693316
 261	-0.00165476	0.00892605	-0.00450827
 262	0.00457949	-0.00450199	-0.00121788
 263	0.0182348	-0.0103239	-0.0164075
 264	-0.0209998	-0.00708998	-0.0121136
 265	0.00661478	0.00342	0.00205002
 266	0.00117915	-0.00521964	-0.00943794
 267	0.00290855	0.000158014	-0.00436062
 268	-0.00665883	0.00516687	-0.0054732
 269	-0.00232606	0.000963063	-0.00339336
 270	-0.00679501	0.00490226	0.0120741
 271	0.00820521	0.00692893	0.0030017
 272	-0.00404604	0.0160638	0.0159069
 273	-0.00625718	0.00129333	-0.00795288
 274	-0.00124283	-0.00601147	-0.00180874
 275	0.00644901	-0.00534208	-0.00443273
 276	-0.0032784	-0.00791251	-0.00974868
 277	0.006372	-0.0232251	0.00453325
 278	0.0226299	-0.0315531	0.00959918
 279	-0.0123281	-0.00206497	0.0076087
 280	-0.000933472	-0.00260311	-0.0235715
 281	-0.000241763	-0.000130345	0.00166799
 282	-0.00258348	0.00415301	-0.00147343
 283	-0.000430405	-0.00987743	0.00408374
 284	-0.0139737	-0.00176773	0.0321685
 285	0.0167995	-0.0414823	-0.000685056
 286	-0.0111313	-0.0348709	-0.0133507
 287	0.0256818	0.000159378	0.00877397
 288	0.00508333	-0.00804879	0.00517626
 289	-0.0154199	-0.00678147	0.0052247
 290	-0.00850842	-0.00210305	0.00337546
 291	-0.00559349	-0.0117959	-0.00404706
 292	-0.00606923	-0.0309256	-0.0122481
 293	0.0185908	0.0183839	-0.00775925
 294	-0.00257794	-0.02208	0.0280563
 295	0.00448821	-0.00920574	-0.0117291
 296	-0.00349766	-0.00144715	-0.0042517
 297	-0.0125237	0.00772455	0.00202784
 298	-0.01562	0.0268729	-0.0198085
 299	-0.0070756	-0.0093805	-0.0164287
 300	0.0210314	-0.0047847	0.0327368
 301	0.0215896	-0.0183857	-0.0130107
 302	0.00433751	0.0202023	0.00825821
 303	0.00379705	-0.00730851	-0.00693963
 304	0.0176212	-0.01171	0.0103475
 305	0.0354706	0.00440163	0.00706671
 306	0.0180779	0.0215739	-0.0354581
 307	-0.0133906	0.00549806	0.00256824
 308	0.00110783	-0.0199832	0.0110663
 309	0.00315795	0.0045995	0.00343741
 310	0.0017278	0.000331092	-0.00869183
 311	0.00232059	0.00367836	0.00591766
 312	0.0040197	0.0122092	0.0168512
 313	-0.00598437	0.0256158	-0.0175763
 314	-0.00836485	0.0050296	0.0125723
 315	0.00034482	0.0599821	-0.00546367
 316	-0.0116546	0.0101607	0.00185306
 317	0.00776798	-0.00605133	-0.00385768
 318	-0.000773912	0.0141587	0.005614
 319	-0.00761095	0.0217998	0.00605098
 320	0.0368857	-0.0349883	0.0119476
 321	0.0134799	-0.000125737	-0.00305752
 322	-0.0382495	-0.03077	0.0175005
 323	-0.00336898	0.00610199	0.0101013
 324	-0.00946027	-0.00492095	0.00908901
 325	0.00379816	0.008039	0.010015
 326	-0.0182262	0.034063	-0.00241901
 327	0.0411342	0.021691	-0.0124947
 328	-0.00818113	0.0307404	0.0633977
 329	-0.0141963	-0.0257927	0.0026664