pySIMM System Object

289 atoms
288 bonds
533 angles
852 dihedrals
0 impropers

5 atom types
5 bond types
8 angle types
6 dihedral types

-90.113470 90.113470 xlo xhi
-90.113470 90.113470 ylo yhi
-90.113470 90.113470 zlo zhi

Masses

   1	12.01	# c3
   2	1.008	# hc
   3	16.0	# oh
   4	1.008	# ho
   5	1.008	# h1

Pair Coeffs

   1	0.1094	3.3996695084235347	# c3
   2	0.0157	2.649532787749369	# hc
   3	0.2104	3.0664733878390478	# oh
   4	0.0047	0.5379246460131368	# ho
   5	0.0157	2.471353044121301	# h1

Bond Coeffs

   1	371.4	0.973	# ho,oh
   2	330.6	1.0969	# c3,hc
   3	300.9	1.5375	# c3,c3
   4	316.7	1.4233	# c3,oh
   5	330.6	1.0969	# c3,h1

Angle Coeffs

   1	67.47	110.19	# c3,c3,oh
   2	46.34	109.8	# c3,c3,hc
   3	50.93	110.26	# h1,c3,oh
   4	46.39	109.56	# c3,c3,h1
   5	39.4	107.58	# hc,c3,hc
   6	39.24	108.46	# h1,c3,h1
   7	47.38	107.26	# c3,oh,ho
   8	62.86	111.51	# c3,c3,c3

Dihedral Coeffs

   1	2	0.0	3	0	0.25	1	0	# hc,c3,c3,oh
   2	1	0.16666666666666666	3	0	# X,c3,oh,X
   3	1	0.15555555555555556	3	0	# X,c3,c3,X
   4	2	0.16	3	0	0.25	1	0	# ho,oh,c3,c3
   5	1	0.16	3	0	# hc,c3,c3,c3
   6	3	0.18	3	0	0.25	2	180	0.2	1	180	# c3,c3,c3,c3

Atoms

   1	1	1	-0.02562	-1.42582	-14.3157	9.55156
   2	1	1	0.401389	-1.22184	-14.8506	10.9841
   3	1	3	-0.707077	-2.08181	-15.9586	11.2432
   4	1	4	0.414767	-1.9924	-16.1596	12.1954
   5	1	2	-0.013868	-0.795305	-13.4265	9.42122
   6	1	2	-0.001701	-2.46502	-13.9858	9.42204
   7	1	5	-0.06789	-0.18024	-15.163	11.1162
   8	1	1	-0.02562	-1.11406	-14.7601	7.04773
   9	1	1	0.401389	-1.06083	-15.3608	8.47365
  10	1	3	-0.707077	-1.94255	-16.4784	8.56263
  11	1	4	0.414767	-2.14432	-16.5526	9.53655
  12	1	2	-0.013868	-0.463415	-13.8763	7.01185
  13	1	2	-0.001701	-2.13188	-14.4111	6.82972
  14	1	5	-0.06789	-0.0379703	-15.7033	8.66612
  15	1	1	-0.02562	-0.505112	-15.1303	4.55976
  16	1	1	0.401389	-0.64593	-15.7663	5.96889
  17	1	3	-0.707077	-1.53509	-16.8797	5.91702
  18	1	4	0.414767	-1.76678	-17.0457	6.87518
  19	1	2	-0.013868	0.022705	-15.8329	3.9006
  20	1	2	-0.001701	0.139932	-14.2452	4.63506
  21	1	5	-0.06789	0.343943	-16.129	6.26767
  22	1	1	-0.02562	-1.64386	-14.0058	2.54875
  23	1	1	0.401389	-1.85075	-14.7259	3.90524
  24	1	3	-0.707077	-2.65485	-15.8852	3.70455
  25	1	4	0.414767	-2.41407	-16.4819	4.47352
  26	1	2	-0.013868	-1.1143	-14.6757	1.85719
  27	1	2	-0.001701	-0.984861	-13.1412	2.70213
  28	1	5	-0.06789	-2.37812	-14.0414	4.5772
  29	1	1	-0.02562	-2.67727	-12.8845	0.509591
  30	1	1	0.401389	-2.96299	-13.5138	1.89438
  31	1	3	-0.707077	-3.86482	-14.6092	1.74203
  32	1	4	0.414767	-3.63845	-15.2061	2.52302
  33	1	2	-0.013868	-1.9643	-12.0583	0.631875
  34	1	2	-0.001701	-2.1707	-13.6421	-0.0918662
  35	1	5	-0.06789	-3.42048	-12.7609	2.54494
  36	1	1	-0.02562	-3.45714	-11.8822	-1.69389
  37	1	1	0.401389	-3.90643	-12.3682	-0.285316
  38	1	3	-0.707077	-4.90731	-13.3802	-0.382215
  39	1	4	0.414767	-4.87206	-13.8473	0.495054
  40	1	2	-0.013868	-2.62975	-12.5083	-2.05607
  41	1	2	-0.001701	-3.04069	-10.8719	-1.58919
  42	1	5	-0.06789	-4.33691	-11.519	0.256867
  43	1	1	-0.02562	-4.03891	-11.2081	-4.07523
  44	1	1	0.401389	-4.56208	-11.8732	-2.78107
  45	1	3	-0.707077	-4.93578	-13.2271	-3.04781
  46	1	4	0.414767	-5.27503	-13.5153	-2.15296
  47	1	2	-0.013868	-3.61745	-10.232	-3.82383
  48	1	2	-0.001701	-3.206	-11.8104	-4.44756
  49	1	5	-0.06789	-5.4268	-11.3135	-2.40825
  50	1	1	-0.02562	-4.60099	-11.0431	-6.63143
  51	1	1	0.401389	-5.12578	-11.0075	-5.16372
  52	1	3	-0.707077	-5.79479	-9.76439	-4.94248
  53	1	4	0.414767	-5.11871	-9.06394	-4.80358
  54	1	2	-0.013868	-5.4512	-10.8396	-7.29604
  55	1	2	-0.001701	-3.89793	-10.2211	-6.79278
  56	1	5	-0.06789	-5.88028	-11.7944	-5.06736
  57	1	1	-0.02562	-4.69868	-13.6266	-6.59158
  58	1	1	0.401389	-3.9496	-12.3742	-7.10941
  59	1	3	-0.707077	-2.56201	-12.4085	-6.7655
  60	1	4	0.414767	-2.34626	-13.3841	-6.82448
  61	1	2	-0.013868	-5.74055	-13.5878	-6.93521
  62	1	2	-0.001701	-4.73077	-13.5755	-5.50778
  63	1	5	-0.06789	-4.00327	-12.3941	-8.20368
  64	1	1	-0.02562	-4.85155	-16.1913	-6.36741
  65	1	1	0.401389	-4.09043	-14.9915	-6.99196
  66	1	3	-0.707077	-2.71841	-15.0681	-6.60827
  67	1	4	0.414767	-2.75696	-15.3794	-5.66862
  68	1	2	-0.013868	-4.30492	-17.1146	-6.60186
  69	1	2	-0.001701	-5.82725	-16.2853	-6.86134
  70	1	5	-0.06789	-4.1427	-15.0798	-8.08266
  71	1	1	-0.02562	-5.57796	-17.4453	-4.25163
  72	1	1	0.401389	-5.08503	-16.0949	-4.83273
  73	1	3	-0.707077	-3.91579	-15.5994	-4.168
  74	1	4	0.414767	-4.2792	-14.7788	-3.71461
  75	1	2	-0.013868	-4.97336	-18.2701	-4.65138
  76	1	2	-0.001701	-6.59754	-17.6217	-4.61886
  77	1	5	-0.06789	-5.87789	-15.3582	-4.66991
  78	1	1	-0.02562	-4.18182	-17.7548	-2.0944
  79	1	1	0.401389	-5.59578	-17.5381	-2.70567
  80	1	3	-0.707077	-6.28188	-16.4211	-2.14655
  81	1	4	0.414767	-6.07458	-16.4686	-1.18264
  82	1	2	-0.013868	-4.18597	-18.6978	-1.53125
  83	1	2	-0.001701	-3.45374	-17.9159	-2.8972
  84	1	5	-0.06789	-6.17768	-18.4324	-2.45417
  85	1	1	-0.02562	-2.18896	-16.7064	-0.837536
  86	1	1	0.401389	-3.7004	-16.6188	-1.15871
  87	1	3	-0.707077	-4.4779	-16.6774	0.0357813
  88	1	4	0.414767	-4.1927	-15.9176	0.605685
  89	1	2	-0.013868	-2.02087	-16.3398	0.183701
  90	1	2	-0.001701	-1.85361	-17.752	-0.849571
  91	1	5	-0.06789	-3.88044	-15.6447	-1.62341
  92	1	1	-0.02562	0.165838	-15.8607	-1.38963
  93	1	1	0.401389	-1.32503	-15.8557	-1.80498
  94	1	3	-0.707077	-1.42898	-16.3187	-3.14673
  95	1	4	0.414767	-2.33719	-16.0843	-3.47203
  96	1	2	-0.013868	0.626374	-16.8036	-1.71558
  97	1	2	-0.001701	0.251077	-15.8436	-0.294946
  98	1	5	-0.06789	-1.69082	-14.8258	-1.77678
  99	1	1	-0.02562	0.912545	-13.4358	-1.02346
 100	1	1	0.401389	0.935243	-14.6531	-1.98015
 101	1	3	-0.707077	2.28248	-15.0145	-2.25083
 102	1	4	0.414767	2.23413	-15.6392	-3.00011
 103	1	2	-0.013868	1.35597	-13.7164	-0.0579811
 104	1	2	-0.001701	-0.129266	-13.1707	-0.821098
 105	1	5	-0.06789	0.469293	-14.3739	-2.93029
 106	1	1	-0.02562	1.17419	-11.7991	-2.99243
 107	1	1	0.401389	1.63469	-12.1784	-1.56304
 108	1	3	-0.707077	1.40235	-11.107	-0.641641
 109	1	4	0.414767	1.99582	-11.2914	0.112403
 110	1	2	-0.013868	0.10671	-12.031	-3.09716
 111	1	2	-0.001701	1.70579	-12.4411	-3.70693
 112	1	5	-0.06789	2.71477	-12.3594	-1.58563
 113	1	1	-0.02562	1.3093	-10.0372	-4.87743
 114	1	1	0.401389	1.4285	-10.3185	-3.36627
 115	1	3	-0.707077	0.508065	-9.48271	-2.6656
 116	1	4	0.414767	0.667721	-9.76623	-1.72589
 117	1	2	-0.013868	2.1279	-10.5487	-5.4018
 118	1	2	-0.001701	1.47534	-8.9654	-5.04842
 119	1	5	-0.06789	2.44529	-10.0511	-3.05634
 120	1	1	-0.02562	-0.787626	-9.34556	-6.21465
 121	1	1	0.401389	-0.0593071	-10.4739	-5.45913
 122	1	3	-0.707077	0.11051	-11.5816	-6.33263
 123	1	4	0.414767	-0.812556	-11.8657	-6.56175
 124	1	2	-0.013868	-0.127682	-8.93186	-6.98886
 125	1	2	-0.001701	-1.62807	-9.79935	-6.75101
 126	1	5	-0.06789	-0.720453	-10.8109	-4.65628
 127	1	1	-0.02562	-2.45418	-7.4429	-6.06335
 128	1	1	0.401389	-1.30751	-8.18454	-5.32258
 129	1	3	-0.707077	-1.72165	-8.62371	-4.02621
 130	1	4	0.414767	-0.888813	-8.87927	-3.52991
 131	1	2	-0.013868	-3.08185	-8.15883	-6.60561
 132	1	2	-0.001701	-1.99931	-6.80714	-6.83364
 133	1	5	-0.06789	-0.48898	-7.47385	-5.166
 134	1	1	-0.02562	-4.39937	-5.82865	-6.07213
 135	1	1	0.401389	-3.3884	-6.58343	-5.18192
 136	1	3	-0.707077	-4.09686	-7.42447	-4.27123
 137	1	4	0.414767	-3.3464	-7.94115	-3.85711
 138	1	2	-0.013868	-3.84312	-5.29604	-6.85493
 139	1	2	-0.001701	-5.04901	-6.54882	-6.58838
 140	1	5	-0.06789	-2.78614	-5.85957	-4.62196
 141	1	1	-0.02562	-6.18961	-4.05274	-6.28992
 142	1	1	0.401389	-5.26056	-4.80092	-5.30746
 143	1	3	-0.707077	-6.05725	-5.44273	-4.31583
 144	1	4	0.414767	-5.5433	-6.25703	-4.06553
 145	1	2	-0.013868	-6.94935	-4.74794	-6.67165
 146	1	2	-0.001701	-5.61106	-3.73614	-7.16771
 147	1	5	-0.06789	-4.59002	-4.0839	-4.82182
 148	1	1	-0.02562	-5.94635	-1.60372	-5.52843
 149	1	1	0.401389	-6.89436	-2.8112	-5.69887
 150	1	3	-0.707077	-7.53203	-3.10064	-4.45753
 151	1	4	0.414767	-7.21979	-4.01776	-4.21781
 152	1	2	-0.013868	-5.30688	-1.52034	-6.41694
 153	1	2	-0.001701	-5.27879	-1.74951	-4.66852
 154	1	5	-0.06789	-7.6659	-2.5185	-6.41987
 155	1	1	-0.02562	-5.85479	0.95728	-5.46607
 156	1	1	0.401389	-6.75322	-0.297275	-5.37413
 157	1	3	-0.707077	-7.46505	-0.301134	-4.13901
 158	1	4	0.414767	-7.73339	-1.25209	-4.01252
 159	1	2	-0.013868	-5.22271	0.878917	-6.36031
 160	1	2	-0.001701	-5.17898	0.999503	-4.60179
 161	1	5	-0.06789	-7.47731	-0.252772	-6.19531
 162	1	1	-0.02562	-5.85896	3.50055	-5.93617
 163	1	1	0.401389	-6.69834	2.24884	-5.56308
 164	1	3	-0.707077	-7.39942	2.45423	-4.33821
 165	1	4	0.414767	-7.69298	1.53862	-4.07226
 166	1	2	-0.013868	-6.53715	4.32082	-6.20737
 167	1	2	-0.001701	-5.27761	3.27857	-6.84062
 168	1	5	-0.06789	-7.43339	2.10004	-6.36228
 169	1	1	-0.02562	-3.94509	5.10091	-5.28985
 170	1	1	0.401389	-4.90249	3.9759	-4.81549
 171	1	3	-0.707077	-5.66934	4.42293	-3.69912
 172	1	4	0.414767	-6.43689	3.78229	-3.67327
 173	1	2	-0.013868	-4.52271	5.93252	-5.7147
 174	1	2	-0.001701	-3.31765	4.70785	-6.10057
 175	1	5	-0.06789	-4.28864	3.12508	-4.50093
 176	1	1	-0.02562	-1.8548	6.49853	-4.59974
 177	1	1	0.401389	-3.03371	5.60543	-4.14158
 178	1	3	-0.707077	-3.81573	6.2891	-3.16994
 179	1	4	0.414767	-4.62577	5.70415	-3.09771
 180	1	2	-0.013868	-1.17241	6.6471	-3.75288
 181	1	2	-0.001701	-1.27388	5.93083	-5.33962
 182	1	5	-0.06789	-2.59755	4.72021	-3.66488
 183	1	1	-0.02562	-1.9081	9.10486	-4.31602
 184	1	1	0.401389	-2.26706	7.87453	-5.1964
 185	1	3	-0.707077	-1.63707	8.03024	-6.46622
 186	1	4	0.414767	-1.94224	8.88361	-6.81909
 187	1	2	-0.013868	-1.89179	9.99575	-4.95843
 188	1	2	-0.001701	-0.892991	9.0038	-3.9087
 189	1	5	-0.06789	-3.34588	7.88979	-5.38281
 190	1	1	-0.02562	-2.94574	10.815	-2.6595
 191	1	1	0.401389	-2.92425	9.35096	-3.17409
 192	1	3	-0.707077	-2.67942	8.46042	-2.09
 193	1	4	0.414767	-3.13098	7.60636	-2.36025
 194	1	2	-0.013868	-3.13844	11.4826	-3.50989
 195	1	2	-0.001701	-3.81238	10.9242	-1.9971
 196	1	5	-0.06789	-3.92499	9.14556	-3.5698
 197	1	1	-0.02562	-1.73168	12.7511	-1.42797
 198	1	1	0.401389	-1.6534	11.288	-1.93628
 199	1	3	-0.707077	-1.33184	10.4366	-0.842222
 200	1	4	0.414767	-1.72489	9.55713	-1.09923
 201	1	2	-0.013868	-1.898	13.4164	-2.28671
 202	1	2	-0.001701	-0.7533	13.0356	-1.01918
 203	1	5	-0.06789	-0.833163	11.2299	-2.66154
 204	1	1	-0.02562	-2.32484	13.416	1.0333
 205	1	1	0.401389	-2.84168	12.9583	-0.358051
 206	1	3	-0.707077	-3.84208	13.8414	-0.856222
 207	1	4	0.414767	-3.6907	14.6872	-0.35165
 208	1	2	-0.013868	-3.12068	13.256	1.77253
 209	1	2	-0.001701	-1.50285	12.7514	1.33029
 210	1	5	-0.06789	-3.33219	11.9965	-0.181124
 211	1	1	-0.02562	-1.37669	15.2385	2.57108
 212	1	1	0.401389	-1.83523	14.8828	1.12919
 213	1	3	-0.707077	-2.87808	15.7788	0.748065
 214	1	4	0.414767	-2.51884	16.6627	1.02868
 215	1	2	-0.013868	-0.811118	14.3995	2.99742
 216	1	2	-0.001701	-2.26102	15.3586	3.21159
 217	1	5	-0.06789	-0.993306	15.0125	0.441415
 218	1	1	-0.02562	0.972712	16.2399	2.28719
 219	1	1	0.401389	-0.50898	16.5227	2.65817
 220	1	3	-0.707077	-1.0753	17.5451	1.83542
 221	1	4	0.414767	-0.28701	18.0518	1.4945
 222	1	2	-0.013868	1.40514	15.5697	3.04112
 223	1	2	-0.001701	1.00632	15.6834	1.34185
 224	1	5	-0.06789	-0.525654	16.8716	3.69616
 225	1	1	-0.02562	2.08367	18.3548	3.40985
 226	1	1	0.401389	1.88472	17.4867	2.14116
 227	1	3	-0.707077	1.39591	18.3113	1.08259
 228	1	4	0.414767	2.17942	18.7517	0.702331
 229	1	2	-0.013868	2.35658	19.3665	3.08156
 230	1	2	-0.001701	1.14005	18.4699	3.95906
 231	1	5	-0.06789	2.87118	17.1345	1.82007
 232	1	1	-0.02562	4.01773	18.969	4.99148
 233	1	1	0.401389	3.20273	17.8175	4.34219
 234	1	3	-0.707077	2.62671	17.0043	5.35441
 235	1	4	0.414767	3.36647	16.885	6.00427
 236	1	2	-0.013868	4.26954	19.7045	4.2157
 237	1	2	-0.001701	3.39646	19.4959	5.72777
 238	1	5	-0.06789	3.89612	17.2092	3.7513
 239	1	1	-0.02562	6.02383	19.6737	6.43122
 240	1	1	0.401389	5.3539	18.518	5.63692
 241	1	3	-0.707077	5.13943	17.4066	6.50347
 242	1	4	0.414767	6.03448	17.2726	6.90904
 243	1	2	-0.013868	5.87056	20.6225	5.90071
 244	1	2	-0.001701	5.50158	19.7874	7.39084
 245	1	5	-0.06789	6.0258	18.2059	4.82956
 246	1	1	-0.02562	8.44628	19.9687	5.54047
 247	1	1	0.401389	7.5435	19.4919	6.71122
 248	1	3	-0.707077	7.82597	18.1298	7.0237
 249	1	4	0.414767	8.81435	18.0715	6.91627
 250	1	2	-0.013868	8.1166	20.9648	5.21542
 251	1	2	-0.001701	8.29426	19.3102	4.67538
 252	1	5	-0.06789	7.79191	20.1086	7.58194
 253	1	1	-0.02562	10.3466	21.1772	6.85953
 254	1	1	0.401389	9.96937	20.039	5.87221
 255	1	3	-0.707077	10.4094	18.7797	6.38454
 256	1	4	0.414767	11.2029	18.9544	6.96064
 257	1	2	-0.013868	9.5745	21.9567	6.81611
 258	1	2	-0.001701	10.3184	20.8061	7.89145
 259	1	5	-0.06789	10.4891	20.2259	4.92536
 260	1	1	-0.02562	12.999	20.9991	6.61921
 261	1	1	0.401389	11.7136	21.8694	6.57344
 262	1	3	-0.707077	11.6647	22.4971	5.29575
 263	1	4	0.414767	11.9892	21.8483	4.6458
 264	1	2	-0.013868	12.9302	20.2032	5.86555
 265	1	2	-0.001701	13.8494	21.621	6.31091
 266	1	5	-0.06789	11.8303	22.6656	7.31562
 267	1	1	-0.02562	13.3864	21.3271	9.20081
 268	1	1	0.401389	13.3556	20.3637	7.98403
 269	1	3	-0.707077	12.467	19.2745	8.21872
 270	1	4	0.414767	12.9145	18.7029	8.87567
 271	1	2	-0.013868	13.6004	20.74	10.1045
 272	1	2	-0.001701	12.3894	21.7606	9.35157
 273	1	5	-0.06789	14.3552	19.9274	7.88599
 274	1	1	-0.02562	15.8941	21.9811	8.91236
 275	1	1	0.401389	14.429	22.4749	9.10324
 276	1	3	-0.707077	14.3072	23.2907	10.2591
 277	1	4	0.414767	14.9612	24.0136	10.0928
 278	1	2	-0.013868	16.0241	21.0002	9.38782
 279	1	2	-0.001701	16.0514	21.8106	7.83952
 280	1	5	-0.06789	14.1741	23.0984	8.23961
 281	1	1	-0.02562	17.4166	22.6756	10.8855
 282	1	1	0.401389	17.0185	22.934	9.41323
 283	1	3	-0.707077	16.6738	24.3088	9.24241
 284	1	4	0.414767	17.5019	24.8075	9.38453
 285	1	2	-0.013868	18.0383	23.4925	11.2753
 286	1	2	-0.001701	17.998	21.7484	10.9652
 287	1	5	-0.06789	17.9131	22.7448	8.809
 288	1	5	0	-1.42768	-14.046	11.7005
 289	1	2	0	16.5378	22.5769	11.5338

Velocities

   1	-1.66895e-05	0.000184181	-6.10993e-05
   2	-0.000224348	0.000565367	6.64173e-05
   3	0.000971695	-0.000204965	-0.000402502
   4	0.0015928	-0.000924609	-0.000719153
   5	0.000178488	8.39569e-05	-0.000226425
   6	0.000245691	0.000152981	-0.000518607
   7	-2.24875e-07	0.00187331	0.000504313
   8	-0.000437373	-0.0001327	0.000225171
   9	0.000198446	2.05109e-06	4.95691e-06
  10	0.000518805	-0.000289444	0.000240148
  11	0.000865434	-0.00012597	0.000145713
  12	-0.00131675	0.000489068	-9.69903e-05
  13	-0.00092391	-0.000990763	0.000419701
  14	0.000389624	0.000442389	-0.00013416
  15	-0.000337009	0.000201791	0.000506345
  16	4.80836e-05	8.95988e-05	0.000251829
  17	0.000464239	-0.000245743	0.00046618
  18	0.000372129	-0.000163561	0.000401532
  19	-0.00106938	-7.86989e-05	1.42719e-05
  20	0.000181247	-0.000250986	0.000330712
  21	0.000250001	0.000486917	0.000412808
  22	-0.000572775	0.00043548	0.00103798
  23	-0.000437691	0.00104928	0.0013638
  24	-0.00165519	0.001809	0.00253856
  25	-0.000965279	0.00140389	0.00214067
  26	-0.00028869	0.000276014	0.00152789
  27	-0.00074272	0.000679965	0.000824701
  28	0.000679969	0.00192053	0.00153
  29	-5.64237e-05	-0.000130683	0.00074401
  30	-0.000450989	-0.000170669	0.000722221
  31	6.91386e-05	-0.000558755	0.000272185
  32	-0.000605295	0.000162749	0.00103646
  33	-0.000507397	0.000204614	0.00099819
  34	0.000472571	3.18114e-05	0.00100601
  35	-0.00106864	-0.00030794	0.000390225
  36	0.000367048	0.000200831	0.000625047
  37	-6.21974e-06	-0.00078348	0.000215098
  38	0.000983086	-0.00168015	-0.000697154
  39	0.00078556	-0.00170538	-0.000701425
  40	0.00119789	0.001153	0.00088073
  41	-0.000681814	0.000563956	0.0013146
  42	-0.0010912	-0.00139764	0.000345045
  43	0.000702136	0.000195552	0.000411092
  44	0.000865462	-0.000393587	0.000107118
  45	0.00195999	-0.000582042	-0.000358513
  46	0.00204128	-0.0011221	-0.000468718
  47	0.000605997	0.000191387	0.000645152
  48	0.000716726	0.000444836	8.5133e-05
  49	0.00030169	-0.00118887	-4.49413e-05
  50	-0.000302345	0.000556105	0.000581946
  51	0.000327879	0.000228155	0.000798354
  52	0.000110216	1.5528e-05	0.00129124
  53	-1.46032e-05	0.000352964	0.000280591
  54	-0.000592293	0.00066758	0.000958124
  55	-0.000425925	0.000674374	0.000486518
  56	0.000493878	8.44501e-05	0.000925366
  57	-0.00051951	0.000375781	-0.000524927
  58	-0.000451594	0.000642898	5.4209e-05
  59	-0.000472118	0.000482733	-6.95619e-06
  60	-0.000496827	0.000479982	-0.000325408
  61	-0.000356641	0.000350974	-0.00103208
  62	-0.00111185	0.000102168	-0.00053729
  63	-0.000418153	0.00112989	4.14579e-05
  64	0.000189979	0.000189312	-0.000454568
  65	-0.00022912	0.000457009	-0.000511503
  66	-0.000145386	0.00066616	-0.00074585
  67	0.00012846	0.000308726	-0.000856962
  68	0.000430172	0.000384181	-0.000668368
  69	0.000124801	-6.23993e-05	-0.000285237
  70	-0.000353713	0.000441294	-0.000511797
  71	0.0011205	-0.00046729	-0.000549776
  72	0.000475892	-0.00014739	-0.000393469
  73	0.000494155	4.92911e-05	-0.000568789
  74	0.000717556	0.000501851	-0.00113517
  75	0.00180015	-7.66705e-05	-0.000341061
  76	0.00136467	-0.00113203	-0.000891094
  77	0.000255329	-0.000449044	-9.21755e-05
  78	0.00048721	-0.000232653	-0.000135707
  79	0.000644663	-0.000420902	-0.000547148
  80	0.000288134	-0.000507344	-0.000789076
  81	-0.000214567	-0.000527746	-0.000701462
  82	0.000523941	-0.000329666	-0.000292215
  83	0.00072913	2.32439e-06	4.601e-05
  84	0.000695824	-0.000501506	-0.00069908
  85	-5.04239e-05	9.82886e-05	0.000482081
  86	2.0777e-06	-0.000287206	0.000164714
  87	-0.000208308	-0.000645112	2.76968e-05
  88	-0.000134612	-0.000946011	0.000380294
  89	-0.000281753	0.000635051	0.000324153
  90	8.92599e-05	0.000133016	0.00106712
  91	-0.000125752	-0.000290488	0.0002112
  92	0.000100692	-0.000724412	-0.000146325
  93	1.54738e-06	-0.000186973	0.000255153
  94	-0.000302043	-0.000143041	0.000283125
  95	-0.000226228	0.000257775	0.00028211
  96	-0.000285544	-0.000810382	-0.000458041
  97	0.000438717	-0.000924298	-0.000175421
  98	0.000302544	-7.73957e-05	0.000377018
  99	-0.000932186	-0.000436125	-0.000811381
 100	0.000339458	-0.000901224	-0.000172942
 101	0.000692367	-0.000858493	0.0015249
 102	0.00151972	-0.00234092	0.00270633
 103	-0.00166547	0.000166129	-0.000311499
 104	-0.00119912	-0.00071894	-0.00183804
 105	0.00127251	-0.00155902	-0.000822503
 106	-0.00185383	4.18017e-05	-0.000294127
 107	-0.00105226	-0.000388658	-0.000742493
 108	-0.000704399	-0.000637039	-0.000359582
 109	-0.00144912	-0.00165101	-3.05426e-05
 110	-0.00220765	0.00113669	0.000680335
 111	-0.00315806	-0.000491638	-0.000783223
 112	-0.00106332	-0.000395436	-0.00131686
 113	-0.000550912	-0.000271975	-0.000391247
 114	-0.00056917	-0.000190145	-0.000396129
 115	0.00030298	0.000731658	-0.000320982
 116	0.000220441	0.000832567	-0.000298447
 117	-0.000821282	-0.000715195	-0.000369936
 118	-0.000136252	-0.000375135	-0.000594497
 119	-0.000267408	-0.00106385	-0.000607165
 120	-0.000319318	0.000139955	-0.000472993
 121	-0.000757987	0.000115522	-0.000148546
 122	-0.00121636	-0.000285307	0.000290988
 123	-0.00136783	-9.64291e-05	0.000541052
 124	-0.000255234	-0.000429269	-0.000735691
 125	-0.000610834	0.000300061	-0.000149641
 126	-0.000879305	0.000718529	-3.26084e-06
 127	0.000603137	0.000996538	-0.000848365
 128	0.000340119	0.000632038	-0.000760944
 129	0.000367888	0.00116392	-0.00054367
 130	0.000345918	0.00125504	-0.000478031
 131	0.000799407	0.00128248	-0.00147028
 132	0.000907896	0.00138194	-0.000357239
 133	0.000703273	0.00029092	-0.00104993
 134	2.37531e-05	0.000383062	-0.000652784
 135	0.00026849	0.000585864	-0.000813098
 136	0.000352122	0.000292143	-0.00102431
 137	0.000449734	0.000343166	-0.00112026
 138	-0.000368535	-0.000182855	-0.00132559
 139	-0.000565872	0.000282762	0.000222236
 140	8.46873e-06	0.000680836	-0.000621114
 141	-0.000606024	-0.000274298	-0.000199424
 142	0.000918668	0.00108804	-0.000630569
 143	0.00247985	0.00224372	0.00139488
 144	0.00220049	0.00181654	0.000609386
 145	-0.0010376	-0.00086768	0.00173526
 146	-0.00191711	-0.00109895	-0.00137164
 147	0.00154865	0.00179291	-0.00251249
 148	0.000398056	-8.61108e-05	-0.000682836
 149	7.09433e-06	0.000177955	-0.000542416
 150	-0.000136031	0.000545055	-0.00053106
 151	0.00123482	0.00130837	0.000595948
 152	0.000516177	-0.000367087	-0.000626951
 153	0.000223264	-9.86558e-05	-0.00055748
 154	0.00011904	0.000337953	-0.000604989
 155	0.000590824	3.92756e-05	-0.000437293
 156	0.000565151	2.90206e-05	-0.00083185
 157	0.000322176	-6.65528e-05	-0.000974046
 158	0.000227039	-8.73615e-05	-0.00118824
 159	0.000452112	0.000422004	-0.000567444
 160	0.00070817	-0.000317468	-0.000506633
 161	0.00076287	0.000159116	-0.0010084
 162	0.000296125	0.000229246	0.000488998
 163	0.000502607	5.43299e-05	0.000372652
 164	0.00105703	-0.000512593	0.000786608
 165	0.00168061	-0.000783442	0.00067069
 166	0.000175705	7.40808e-05	0.000306957
 167	0.000532445	0.000327067	0.000624159
 168	0.00013798	0.000341603	0.000653532
 169	-0.000155569	0.000632102	0.000903634
 170	-4.19367e-05	0.000471634	0.000690502
 171	-0.000396108	0.000517468	0.000415268
 172	-0.00016538	0.000219988	0.000386779
 173	-0.00034448	0.000752551	0.00139602
 174	-0.000289231	0.00105109	0.00060533
 175	-7.88538e-06	0.000587091	0.000912406
 176	-0.000116815	0.000540461	0.00119978
 177	1.66073e-05	0.00022747	0.00096254
 178	9.67784e-05	-0.000195453	0.00132558
 179	-3.77391e-05	-5.33129e-05	0.00100144
 180	-0.000659047	0.00132549	0.00150104
 181	0.000564159	0.000446221	0.00182232
 182	0.00015801	7.63604e-05	0.000551757
 183	-0.000843104	0.000792483	-0.000644522
 184	-0.000518592	3.73529e-05	0.000281051
 185	-0.000777867	-0.00081373	4.63295e-05
 186	-0.00154664	-0.00150708	-0.000942754
 187	-0.00255091	0.000533858	-0.00104666
 188	-0.000295843	0.00201832	-0.00171691
 189	-0.000545252	-0.000356574	0.000505301
 190	-0.000251541	-0.00013272	0.00100483
 191	7.86927e-05	8.74824e-05	0.000368501
 192	0.00129467	-0.000169174	-0.000114412
 193	0.00094432	-0.000121249	0.0002745
 194	-0.000938017	0.000259187	0.00145862
 195	-3.3022e-05	-0.000928286	0.00142892
 196	-0.000159236	-0.000243809	0.0011171
 197	-0.000440948	-0.000251363	0.00154984
 198	-0.000224193	2.90779e-05	0.000860446
 199	0.000236231	-0.000199865	0.000540085
 200	0.000483967	-0.000239015	0.000291601
 201	-6.00326e-05	0.000258843	0.00188223
 202	-0.000598842	-0.000577655	0.00208171
 203	-0.000343369	0.00052285	0.000660142
 204	-0.00139047	-0.000682765	0.00144876
 205	-0.000795023	-0.000809341	0.00131499
 206	-0.000809413	-0.000851247	0.00126705
 207	0.00134971	8.90549e-05	-0.000955504
 208	-0.00277173	0.00220782	0.000622357
 209	-0.00336477	-0.00237504	0.0031981
 210	-0.000627335	-0.000930138	0.00105552
 211	0.00138312	-0.000632046	-2.93803e-05
 212	0.00203371	-0.00174755	1.26412e-05
 213	0.00446838	-9.07055e-05	-0.00276864
 214	0.00567786	-0.000500106	-0.00267683
 215	0.0014998	-0.00022908	0.000635714
 216	0.00107194	-0.000465959	-0.000469625
 217	0.00321038	-0.00467827	0.000870331
 218	0.00126635	0.000404169	8.84121e-05
 219	0.000978078	-0.000255624	-0.000403873
 220	0.000689012	-0.000685747	-0.000766978
 221	0.000578227	-0.000111776	-0.000298043
 222	0.00152385	0.00142013	0.000860259
 223	0.00195274	-0.000517822	0.000666966
 224	0.00059843	0.000243308	-0.000579269
 225	0.00127098	0.000662849	-0.000649083
 226	0.00052968	0.00093742	-0.000686069
 227	-0.000812953	0.00108442	1.25144e-06
 228	-0.00162364	0.00265014	0.000155334
 229	0.000456756	0.000909735	-0.000567344
 230	0.00177561	-0.000149335	0.000382993
 231	0.000381257	0.00154465	-0.00175699
 232	-0.00045994	0.00120515	0.00129158
 233	0.00247228	0.00102495	-0.00197325
 234	0.0044705	-0.00332209	-0.0043067
 235	0.00431778	-0.00229379	-0.00390584
 236	-0.00241583	0.00420884	0.00346141
 237	-0.00142917	-0.00263871	0.00326269
 238	0.00413698	0.00455616	-0.00371847
 239	0.00109653	0.00138709	-0.000697418
 240	0.000635041	0.00176334	-0.000752209
 241	0.00235459	0.00089984	-0.00151206
 242	0.00295825	0.00171597	-0.00227561
 243	0.00299919	0.00107483	-0.00178777
 244	0.000274819	0.00294829	-0.00132715
 245	-5.7987e-05	0.00294388	-0.00181225
 246	0.00143325	-0.00201151	0.000708579
 247	0.000621224	-0.00052975	0.000589975
 248	-0.000808275	-0.000862397	0.00095239
 249	-0.00065556	-0.00180367	0.00167957
 250	0.00164388	-0.00250979	-0.000971288
 251	0.00228888	-0.0033281	0.00158666
 252	0.000902559	-0.000790699	0.000687296
 253	-0.000447932	2.96546e-05	0.000828942
 254	0.000901306	-0.00146495	0.00208932
 255	-8.73451e-05	-0.000876717	0.00427973
 256	-0.000133352	-0.000451068	0.0045315
 257	-0.00120406	-0.000807175	7.05564e-05
 258	-0.000103948	0.00118684	0.00129768
 259	0.00196858	-0.00269427	0.00246579
 260	-0.000938284	0.00136453	-0.00184167
 261	-0.00121119	0.000988959	0.000152243
 262	-0.00295086	0.002534	0.00101764
 263	-0.00607379	0.00274496	-0.000662751
 264	-0.000724798	0.00256134	-0.00311375
 265	-0.00127487	0.00226553	-0.00107789
 266	-0.000838506	0.000195082	0.00100247
 267	-0.000646989	-0.00189125	-0.00185733
 268	-0.000353068	-0.000436422	-0.00274844
 269	-0.000500246	-0.000159341	-0.00215043
 270	-0.00644442	0.00696423	0.00824923
 271	-6.68791e-05	-0.00284487	-0.00267596
 272	-0.000586918	-0.00265174	-0.00104236
 273	-0.000458557	-0.000294661	-0.00336446
 274	-0.00122675	-0.00209393	0.000477045
 275	-0.00117132	-0.00163842	-0.00104398
 276	-0.00236559	-0.00227378	-0.000647617
 277	-0.00296565	-0.0016065	-0.000174193
 278	-0.00133632	-0.000822478	0.00311119
 279	-0.000641339	-0.00512135	0.000835836
 280	-0.000285129	-0.00150719	-0.00107138
 281	-0.00135616	-0.000387408	-0.00119632
 282	-0.00155264	-0.00109526	-0.00110705
 283	-0.00319352	-0.00140855	-0.0015203
 284	-0.00373289	-0.000422681	-0.00138283
 285	0.00223564	-0.00226503	-0.00318988
 286	-0.00503835	-0.00236933	-0.000371991
 287	-0.00184955	-0.000432358	-0.00168126
 288	-0.00160366	0.000499235	-0.000220013
 289	-0.00129521	0.00414598	-0.000388623

Bonds

   1	3	1	2
   2	2	1	5
   3	2	1	6
   4	4	2	3
   5	5	2	7
   6	1	3	4
   7	3	8	9
   8	2	8	12
   9	2	8	13
  10	4	9	10
  11	5	9	14
  12	1	10	11
  13	3	1	9
  14	3	15	16
  15	2	15	19
  16	2	15	20
  17	4	16	17
  18	5	16	21
  19	1	17	18
  20	3	8	16
  21	3	22	23
  22	2	22	26
  23	2	22	27
  24	4	23	24
  25	5	23	28
  26	1	24	25
  27	3	15	23
  28	3	29	30
  29	2	29	33
  30	2	29	34
  31	4	30	31
  32	5	30	35
  33	1	31	32
  34	3	22	30
  35	3	36	37
  36	2	36	40
  37	2	36	41
  38	4	37	38
  39	5	37	42
  40	1	38	39
  41	3	29	37
  42	3	43	44
  43	2	43	47
  44	2	43	48
  45	4	44	45
  46	5	44	49
  47	1	45	46
  48	3	36	44
  49	3	50	51
  50	2	50	54
  51	2	50	55
  52	4	51	52
  53	5	51	56
  54	1	52	53
  55	3	43	51
  56	3	57	58
  57	2	57	61
  58	2	57	62
  59	4	58	59
  60	5	58	63
  61	1	59	60
  62	3	50	58
  63	3	64	65
  64	2	64	68
  65	2	64	69
  66	4	65	66
  67	5	65	70
  68	1	66	67
  69	3	57	65
  70	3	71	72
  71	2	71	75
  72	2	71	76
  73	4	72	73
  74	5	72	77
  75	1	73	74
  76	3	64	72
  77	3	78	79
  78	2	78	82
  79	2	78	83
  80	4	79	80
  81	5	79	84
  82	1	80	81
  83	3	71	79
  84	3	85	86
  85	2	85	89
  86	2	85	90
  87	4	86	87
  88	5	86	91
  89	1	87	88
  90	3	78	86
  91	3	92	93
  92	2	92	96
  93	2	92	97
  94	4	93	94
  95	5	93	98
  96	1	94	95
  97	3	85	93
  98	3	99	100
  99	2	99	103
 100	2	99	104
 101	4	100	101
 102	5	100	105
 103	1	101	102
 104	3	92	100
 105	3	106	107
 106	2	106	110
 107	2	106	111
 108	4	107	108
 109	5	107	112
 110	1	108	109
 111	3	99	107
 112	3	113	114
 113	2	113	117
 114	2	113	118
 115	4	114	115
 116	5	114	119
 117	1	115	116
 118	3	106	114
 119	3	120	121
 120	2	120	124
 121	2	120	125
 122	4	121	122
 123	5	121	126
 124	1	122	123
 125	3	113	121
 126	3	127	128
 127	2	127	131
 128	2	127	132
 129	4	128	129
 130	5	128	133
 131	1	129	130
 132	3	120	128
 133	3	134	135
 134	2	134	138
 135	2	134	139
 136	4	135	136
 137	5	135	140
 138	1	136	137
 139	3	127	135
 140	3	141	142
 141	2	141	145
 142	2	141	146
 143	4	142	143
 144	5	142	147
 145	1	143	144
 146	3	134	142
 147	3	148	149
 148	2	148	152
 149	2	148	153
 150	4	149	150
 151	5	149	154
 152	1	150	151
 153	3	141	149
 154	3	155	156
 155	2	155	159
 156	2	155	160
 157	4	156	157
 158	5	156	161
 159	1	157	158
 160	3	148	156
 161	3	162	163
 162	2	162	166
 163	2	162	167
 164	4	163	164
 165	5	163	168
 166	1	164	165
 167	3	155	163
 168	3	169	170
 169	2	169	173
 170	2	169	174
 171	4	170	171
 172	5	170	175
 173	1	171	172
 174	3	162	170
 175	3	176	177
 176	2	176	180
 177	2	176	181
 178	4	177	178
 179	5	177	182
 180	1	178	179
 181	3	169	177
 182	3	183	184
 183	2	183	187
 184	2	183	188
 185	4	184	185
 186	5	184	189
 187	1	185	186
 188	3	176	184
 189	3	190	191
 190	2	190	194
 191	2	190	195
 192	4	191	192
 193	5	191	196
 194	1	192	193
 195	3	183	191
 196	3	197	198
 197	2	197	201
 198	2	197	202
 199	4	198	199
 200	5	198	203
 201	1	199	200
 202	3	190	198
 203	3	204	205
 204	2	204	208
 205	2	204	209
 206	4	205	206
 207	5	205	210
 208	1	206	207
 209	3	197	205
 210	3	211	212
 211	2	211	215
 212	2	211	216
 213	4	212	213
 214	5	212	217
 215	1	213	214
 216	3	204	212
 217	3	218	219
 218	2	218	222
 219	2	218	223
 220	4	219	220
 221	5	219	224
 222	1	220	221
 223	3	211	219
 224	3	225	226
 225	2	225	229
 226	2	225	230
 227	4	226	227
 228	5	226	231
 229	1	227	228
 230	3	218	226
 231	3	232	233
 232	2	232	236
 233	2	232	237
 234	4	233	234
 235	5	233	238
 236	1	234	235
 237	3	225	233
 238	3	239	240
 239	2	239	243
 240	2	239	244
 241	4	240	241
 242	5	240	245
 243	1	241	242
 244	3	232	240
 245	3	246	247
 246	2	246	250
 247	2	246	251
 248	4	247	248
 249	5	247	252
 250	1	248	249
 251	3	239	247
 252	3	253	254
 253	2	253	257
 254	2	253	258
 255	4	254	255
 256	5	254	259
 257	1	255	256
 258	3	246	254
 259	3	260	261
 260	2	260	264
 261	2	260	265
 262	4	261	262
 263	5	261	266
 264	1	262	263
 265	3	253	261
 266	3	267	268
 267	2	267	271
 268	2	267	272
 269	4	268	269
 270	5	268	273
 271	1	269	270
 272	3	260	268
 273	3	274	275
 274	2	274	278
 275	2	274	279
 276	4	275	276
 277	5	275	280
 278	1	276	277
 279	3	267	275
 280	3	281	282
 281	2	281	285
 282	2	281	286
 283	4	282	283
 284	5	282	287
 285	1	283	284
 286	3	274	282
 287	5	2	288
 288	2	281	289

Angles

   1	2	2	1	5
   2	2	2	1	6
   3	5	5	1	6