pySIMM System Object

86 atoms
85 bonds
156 angles
243 dihedrals
0 impropers

5 atom types
5 bond types
8 angle types
6 dihedral types

-58.600404 58.600404 xlo xhi
-58.600404 58.600404 ylo yhi
-58.600404 58.600404 zlo zhi

Masses

   1	12.01	# c3
   2	1.008	# hc
   3	16.0	# oh
   4	1.008	# ho
   5	1.008	# h1

Pair Coeffs

   1	0.1094	3.3996695084235347	# c3
   2	0.0157	2.649532787749369	# hc
   3	0.2104	3.0664733878390478	# oh
   4	0.0047	0.5379246460131368	# ho
   5	0.0157	2.471353044121301	# h1

Bond Coeffs

   1	371.4	0.973	# ho,oh
   2	330.6	1.0969	# c3,hc
   3	300.9	1.5375	# c3,c3
   4	316.7	1.4233	# c3,oh
   5	330.6	1.0969	# c3,h1

Angle Coeffs

   1	67.47	110.19	# c3,c3,oh
   2	46.34	109.8	# c3,c3,hc
   3	50.93	110.26	# h1,c3,oh
   4	46.39	109.56	# c3,c3,h1
   5	39.4	107.58	# hc,c3,hc
   6	39.24	108.46	# h1,c3,h1
   7	47.38	107.26	# c3,oh,ho
   8	62.86	111.51	# c3,c3,c3

Dihedral Coeffs

   1	2	0.0	3	0	0.25	1	0	# hc,c3,c3,oh
   2	1	0.16666666666666666	3	0	# X,c3,oh,X
   3	1	0.15555555555555556	3	0	# X,c3,c3,X
   4	2	0.16	3	0	0.25	1	0	# ho,oh,c3,c3
   5	1	0.16	3	0	# hc,c3,c3,c3
   6	3	0.18	3	0	0.25	2	180	0.2	1	180	# c3,c3,c3,c3

Atoms

   1	1	1	-0.02562	-6.30824	4.10401	5.64862
   2	1	1	0.401389	-5.95267	4.95303	4.41537
   3	1	3	-0.707077	-5.57027	6.26453	4.81457
   4	1	4	0.414767	-4.59736	6.27665	4.84757
   5	1	2	-0.013868	-6.77297	3.1649	5.3199
   6	1	2	-0.001701	-7.07377	4.63591	6.22995
   7	1	5	-0.06789	-5.13601	4.48461	3.85568
   8	1	1	-0.02562	-4.47374	2.40767	6.23238
   9	1	1	0.401389	-5.06991	3.80592	6.52829
  10	1	3	-0.707077	-5.45131	3.8848	7.90135
  11	1	4	0.414767	-5.91491	4.74056	8.00221
  12	1	2	-0.013868	-4.33022	2.31731	5.14779
  13	1	2	-0.001701	-5.21001	1.6423	6.51186
  14	1	5	-0.06789	-4.30332	4.56725	6.34499
  15	1	1	-0.02562	-2.82417	0.588059	7.04317
  16	1	1	0.401389	-3.11682	2.1053	6.928
  17	1	3	-0.707077	-3.07289	2.64704	8.24325
  18	1	4	0.414767	-3.94866	3.09844	8.37498
  19	1	2	-0.013868	-3.56758	0.148379	7.72307
  20	1	2	-0.001701	-1.84613	0.440597	7.52078
  21	1	5	-0.06789	-2.32181	2.5787	6.34106
  22	1	1	-0.02562	-1.55676	-0.0496417	4.88233
  23	1	1	0.401389	-2.86033	-0.184136	5.70338
  24	1	3	-0.707077	-3.09918	-1.55931	5.98148
  25	1	4	0.414767	-3.89924	-1.59271	6.53643
  26	1	2	-0.013868	-0.731198	-0.499726	5.45082
  27	1	2	-0.001701	-1.30323	1.01007	4.75648
  28	1	5	-0.06789	-3.70421	0.176349	5.11049
  29	1	1	-0.02562	-2.5437	0.0288453	2.48773
  30	1	1	0.401389	-1.66539	-0.742317	3.49924
  31	1	3	-0.707077	-0.361669	-0.948748	2.9505
  32	1	4	0.414767	0.048863	-1.61367	3.5392
  33	1	2	-0.013868	-2.73478	-0.621027	1.6259
  34	1	2	-0.001701	-3.53648	0.208791	2.91809
  35	1	5	-0.06789	-2.10686	-1.73456	3.63545
  36	1	1	-0.02562	-1.71201	1.48799	0.508596
  37	1	1	0.401389	-1.90004	1.36969	2.0403
  38	1	3	-0.707077	-2.68951	2.46033	2.51299
  39	1	4	0.414767	-2.21736	3.2596	2.21762
  40	1	2	-0.013868	-1.27968	2.47072	0.275103
  41	1	2	-0.001701	-2.69784	1.45764	0.0252768
  42	1	5	-0.06789	-0.913679	1.48042	2.50153
  43	1	1	-0.02562	-0.576831	0.592072	-1.6051
  44	1	1	0.401389	-0.818376	0.372887	-0.09786
  45	1	3	-0.707077	0.432903	0.300475	0.578934
  46	1	4	0.414767	0.246187	-0.162748	1.43893
  47	1	2	-0.013868	-1.5055	0.960124	-2.06348
  48	1	2	-0.001701	0.162339	1.39196	-1.75069
  49	1	5	-0.06789	-1.33191	-0.585034	0.02354
  50	1	1	-0.02562	1.31084	-0.618525	-2.88411
  51	1	1	0.401389	-0.125217	-0.715352	-2.30985
  52	1	3	-0.707077	-1.05572	-1.01377	-3.34481
  53	1	4	0.414767	-0.53862	-1.58509	-3.97386
  54	1	2	-0.013868	1.36677	0.22341	-3.58757
  55	1	2	-0.001701	1.99767	-0.379726	-2.0614
  56	1	5	-0.06789	-0.141632	-1.5445	-1.59304
  57	1	1	-0.02562	3.25946	-1.71325	-4.1077
  58	1	1	0.401389	1.81242	-1.91107	-3.58475
  59	1	3	-0.707077	0.935303	-2.26007	-4.65635
  60	1	4	0.414767	1.47414	-2.84221	-5.2535
  61	1	2	-0.013868	3.91315	-1.54385	-3.24168
  62	1	2	-0.001701	3.30707	-0.797708	-4.71176
  63	1	5	-0.06789	1.81696	-2.73243	-2.85928
  64	1	1	-0.02562	5.31919	-2.63453	-5.28751
  65	1	1	0.401389	3.83544	-2.89342	-4.93267
  66	1	3	-0.707077	3.06575	-3.08636	-6.1205
  67	1	4	0.414767	3.22896	-2.30966	-6.69323
  68	1	2	-0.013868	5.88345	-2.57089	-4.34749
  69	1	2	-0.001701	5.40461	-1.64812	-5.75964
  70	1	5	-0.06789	3.77602	-3.80523	-4.32785
  71	1	1	-0.02562	5.9201	-3.35849	-7.70905
  72	1	1	0.401389	5.95244	-3.72398	-6.19735
  73	1	3	-0.707077	7.29526	-3.97269	-5.7774
  74	1	4	0.414767	7.49144	-4.8962	-6.02282
  75	1	2	-0.013868	4.99134	-2.82244	-7.94253
  76	1	2	-0.001701	5.87858	-4.28946	-8.28934
  77	1	5	-0.06789	5.3935	-4.65545	-6.05448
  78	1	1	-0.02562	6.88327	-1.92152	-9.6054
  79	1	1	0.401389	7.13707	-2.53592	-8.21269
  80	1	3	-0.707077	7.48737	-1.50734	-7.29692
  81	1	4	0.414767	7.8044	-1.99852	-6.50698
  82	1	2	-0.013868	6.57721	-2.69288	-10.3234
  83	1	2	-0.001701	6.09308	-1.16073	-9.56227
  84	1	5	-0.06789	7.99246	-3.21639	-8.29588
  85	1	5	0	-6.83132	5.01224	3.76077
  86	1	2	0	7.79518	-1.44662	-9.98944

Velocities

   1	-1.80065e-05	0.000326864	0.000187625
   2	0.00122408	-0.000760224	-0.000194434
   3	0.00128312	-0.000509018	-0.000856207
   4	0.00141132	0.000404319	-0.0036748
   5	-0.00097788	0.000626902	0.0006244
   6	0.000538126	0.00144898	8.29876e-05
   7	0.00178845	-0.00142133	0.00097372
   8	-0.0010537	-0.000953133	-2.6131e-06
   9	-0.000236653	-0.000611755	6.2813e-05
  10	0.000182201	-0.000428543	0.000198788
  11	0.00336248	0.00122777	0.00107667
  12	-0.00227018	-0.00154222	-0.000171748
  13	-0.000851014	-0.000682297	0.00124549
  14	0.00024707	-0.00110246	-1.11261e-05
  15	-0.000705562	-0.000289119	3.31161e-05
  16	-0.000348354	-0.000493285	-0.0013636
  17	0.00146341	0.00116805	-0.00207958
  18	0.00115578	5.50515e-05	-0.00109792
  19	-0.00126248	0.0002279	-0.000247157
  20	-0.00105214	-0.000330604	0.000727202
  21	-0.000882993	-0.00144965	-0.00282177
  22	-0.000268036	0.000508828	0.000243462
  23	-4.36954e-05	-0.000772385	0.000370188
  24	0.00141887	-0.000956878	0.000581191
  25	0.000798922	-0.00165688	-0.000327758
  26	0.000217499	0.00113535	4.52252e-05
  27	-0.00108608	0.000771624	0.000282532
  28	-0.000470123	-0.00163806	0.000401182
  29	-0.000400801	0.000554847	0.000482265
  30	-2.92468e-06	0.000679625	9.81538e-05
  31	4.35617e-05	0.00105346	0.000189955
  32	8.84334e-05	0.000755435	-0.000204205
  33	-0.00122514	0.000560531	0.000652067
  34	-7.00177e-06	0.0010081	0.00109312
  35	0.00030659	0.000528727	8.34705e-05
  36	0.00104076	-0.000752623	-3.40437e-05
  37	-0.000303537	0.000308642	-0.000200495
  38	-0.00117176	0.000471851	-0.0018596
  39	0.00046061	0.000428074	0.000493268
  40	0.00250081	-0.00135226	-0.000116318
  41	0.00139059	0.000371205	-0.000833543
  42	-0.000855958	0.00111829	0.000749019
  43	-0.000280205	-0.00148152	0.000601914
  44	-1.88126e-05	-0.00185512	0.000442591
  45	5.70202e-05	-0.00263072	0.000227468
  46	-0.000175199	-0.00171467	0.000670751
  47	-0.000354764	-0.00160704	0.000793528
  48	-0.000468803	-0.00119495	0.000822108
  49	-0.00077542	-0.00151279	0.000498877
  50	-0.000258917	0.000696428	-0.000523134
  51	5.51518e-05	-0.000822147	-0.000289829
  52	0.000110919	-0.000287077	-0.000513701
  53	0.000455113	0.000564943	-0.00112039
  54	-0.0012126	0.0007901	-0.000542619
  55	-0.000210244	0.00121453	-0.000730669
  56	0.000573086	-0.0014231	-0.000923844
  57	0.000138351	0.00233001	-0.000887825
  58	0.000491812	0.00118492	-0.000749756
  59	0.000513139	0.000748631	-0.000674203
  60	0.000553438	0.00022966	-0.00017305
  61	0.000138482	0.0034709	-0.00110665
  62	-0.00064181	0.00183767	-0.00173994
  63	0.0011533	0.00113565	-0.000842761
  64	0.000632446	0.000889207	0.00104783
  65	0.00042992	0.00180745	0.000214148
  66	0.000859353	0.0011473	-2.22272e-05
  67	0.000412841	0.00122063	-0.000111564
  68	0.000292245	-5.06897e-05	0.00123846
  69	0.00165053	0.000989223	0.00143189
  70	-0.000202687	0.00228911	0.000769778
  71	-0.000775254	0.000407496	0.000941285
  72	-0.000558574	0.000426185	0.000827604
  73	-0.000700797	-0.000881285	0.000475458
  74	-0.00220412	-0.0014498	0.00125596
  75	-0.000470052	0.00113489	0.00121057
  76	-0.00169959	0.000480213	0.000919858
  77	-0.00132989	0.000923828	0.00101459
  78	-0.000615694	-0.00102223	0.000250021
  79	-0.000482889	-0.000335129	0.000556913
  80	-2.58277e-05	-8.38756e-05	3.12451e-05
  81	0.000170888	0.000317065	9.53303e-05
  82	0.001197	-0.00184713	0.000392523
  83	-0.00209373	-0.00256174	-0.000418373
  84	-0.000701531	-0.000627484	0.000761046
  85	0.00183087	-0.00113237	-0.00112028
  86	-0.00130894	0.00056999	0.000697323

Bonds

   1	3	1	2
   2	2	1	5
   3	2	1	6
   4	4	2	3
   5	5	2	7
   6	1	3	4
   7	3	8	9
   8	2	8	12
   9	2	8	13
  10	4	9	10
  11	5	9	14
  12	1	10	11
  13	3	1	9
  14	3	15	16
  15	2	15	19
  16	2	15	20
  17	4	16	17
  18	5	16	21
  19	1	17	18
  20	3	8	16
  21	3	22	23
  22	2	22	26
  23	2	22	27
  24	4	23	24
  25	5	23	28
  26	1	24	25
  27	3	15	23
  28	3	29	30
  29	2	29	33
  30	2	29	34
  31	4	30	31
  32	5	30	35
  33	1	31	32
  34	3	22	30
  35	3	36	37
  36	2	36	40
  37	2	36	41
  38	4	37	38
  39	5	37	42
  40	1	38	39
  41	3	29	37
  42	3	43	44
  43	2	43	47
  44	2	43	48
  45	4	44	45
  46	5	44	49
  47	1	45	46
  48	3	36	44
  49	3	50	51
  50	2	50	54
  51	2	50	55
  52	4	51	52
  53	5	51	56
  54	1	52	53
  55	3	43	51
  56	3	57	58
  57	2	57	61
  58	2	57	62
  59	4	58	59
  60	5	58	63
  61	1	59	60
  62	3	50	58
  63	3	64	65
  64	2	64	68
  65	2	64	69
  66	4	65	66
  67	5	65	70
  68	1	66	67
  69	3	57	65
  70	3	71	72
  71	2	71	75
  72	2	71	76
  73	4	72	73
  74	5	72	77
  75	1	73	74
  76	3	64	72
  77	3	78	79
  78	2	78	82
  79	2	78	83
  80	4	79	80
  81	5	79	84
  82	1	80	81
  83	3	71	79
  84	5	2	85
  85	2	78	86

Angles

   1	2	2	1	5
   2	2	2	1	6
   3	5	5	1	6
   4	1	1	2	3
   5	4	1	2	7
   6	3	3	2	7
   7	7	2	3	4
   8	2	9	8	12
   9	2	9	8	13
  10	5	12	8	13
  11	1	8	9	10
  12	4	8	9	14
  13	3	10	9	14
  14	7	9	10	11
  15	8	2	1	9
  16	2	5	1	9
  17	2	6	1	9
  18	8	1	9	8
  19	1	1	9	10
  20	4	1	9	14
  21	2	16	15	19
  22	2	16	15	20
  23	5	19	15	20
  24	1	15	16	17
  25	4	15	16	21
  26	3	17	16	21
  27	7	16	17	18
  28	8	9	8	16
  29	2	12	8	16
  30	2	13	8	16
  31	8	8	16	15
  32	1	8	16	17
  33	4	8	16	21
  34	2	23	22	26
  35	2	23	22	27
  36	5	26	22	27
  37	1	22	23	24
  38	4	22	23	28
  39	3	24	23	28
  40	7	23	24	25
  41	8	16	15	23
  42	2	19	15	23
  43	2	20	15	23
  44	8	15	23	22
  45	1	15	23	24
  46	4	15	23	28
  47	2	30	29	33
  48	2	30	29	34
  49	5	33	29	34
  50	1	29	30	31
  51	4	29	30	35
  52	3	31	30	35
  53	7	30	31	32
  54	8	23	22	30
  55	2	26	22	30
  56	2	27	22	30
  57	8	22	30	29
  58	1	22	30	31
  59	4	22	30	35
  60	2	37	36	40
  61	2	37	36	41
  62	5	40	36	41
  63	1	36	37	38
  64	4	36	37	42
  65	3	38	37	42
  66	7	37	38	39
  67	8	30	29	37
  68	2	33	29	37
  69	2	34	29	37
  70	8	29	37	36
  71	1	29	37	38
  72	4	29	37	42
  73	2	44	43	47
  74	2	44	43	48
  75	5	47	43	48
  76	1	43	44	45
  77	4	43	44	49
  78	3	45	44	49
  79	7	44	45	46
  80	8	37	36	44
  81	2	40	36	44
  82	2	41	36	44
  83	8	36	44	43
  84	1	36	44	45
  85	4	36	44	49
  86	2	51	50	54
  87	2	51	50	55
  88	5	54	50	55
  89	1	50	51	52
  90	4	50	51	56
  91	3	52	51	56
  92	7	51	52	53
  93	8	44	43	51
  94	2	47	43	51
  95	2	48	43	51
  96	8	43	51	50
  97	1	43	51	52
  98	4	43	51	56
  99	2	58	57	61
 100	2	58	57	62
 101	5	61	57	62
 102	1	57	58	59
 103	4	57	58	63
 104	3	59	58	63
 105	7	58	59	60
 106	8	51	50	58
 107	2	54	50	58
 108	2	55	50	58
 109	8	50	58	57
 110	1	50	58	59
 111	4	50	58	63
 112	2	65	64	68
 113	2	65	64	69
 114	5	68	64	69
 115	1	64	65	66
 116	4	64	65	70
 117	3	66	65	70
 118	7	65	66	67
 119	8	58	57	65
 120	2	61	57	65
 121	2	62	57	65
 122	8	57	65	64
 123	1	57	65	66
 124	4	57	65	70
 125	2	72	71	75
 126	2	72	71	76
 127	5	75	71	76
 128	1	71	72	73
 129	4	71	72	77
 130	3	73	72	77
 131	7	72	73	74
 132	8	65	64	72
 133	2	68	64	72
 134	2	69	64	72
 135	8	64	72	71
 136	1	64	72	73
 137	4	64	72	77
 138	2	79	78	82
 139	2	79	78	83
 140	5	82	78	83
 141	1	78	79	80
 142	4	78	79	84
 143	3	80	79	84
 144	7	79	80	81
 145	8	72	71	79
 146	2	75	71	79
 147	2	76	71	79
 148	8	71	79	78
 149	1	71	79	80
 150	4	71	79	84
 151	4	1	2	85
 152	3	3	2	85
 153	6	7	2	85
 154	2	79	78	86
 155	5	82	78	86
 156	5	83	78	86

Dihedrals

   1	1	5	1	2	3
   2	3	5	1	2	7
   3	1	6	1	2	3
   4	3	6	1	2	7
   5	4	1	2	3	4
   6	2	7	2	3	4
   7	1	12	8	9	10
   8	3	12	8	9	14
   9	1	13	8	9	10
  10	3	13	8	9	14
  11	4	8	9	10	11
  12	2	14	9	10	11
  13	3	3	2	1	9
  14	3	7	2	1	9
  15	5	1	9	8	12
  16	5	1	9	8	13
  17	4	1	9	10	11
  18	6	2	1	9	8
  19	3	2	1	9	10
  20	3	2	1	9	14
  21	5	5	1	9	8
  22	1	5	1	9	10
  23	3	5	1	9	14
  24	5	6	1	9	8
  25	1	6	1	9	10
  26	3	6	1	9	14
  27	1	19	15	16	17
  28	3	19	15	16	21
  29	1	20	15	16	17
  30	3	20	15	16	21
  31	4	15	16	17	18
  32	2	21	16	17	18
  33	3	10	9	8	16
  34	3	14	9	8	16
  35	6	1	9	8	16
  36	5	8	16	15	19
  37	5	8	16	15	20
  38	4	8	16	17	18
  39	6	9	8	16	15
  40	3	9	8	16	17
  41	3	9	8	16	21
  42	5	12	8	16	15
  43	1	12	8	16	17
  44	3	12	8	16	21
  45	5	13	8	16	15
  46	1	13	8	16	17
  47	3	13	8	16	21
  48	1	26	22	23	24
  49	3	26	22	23	28
  50	1	27	22	23	24
  51	3	27	22	23	28
  52	4	22	23	24	25
  53	2	28	23	24	25
  54	3	17	16	15	23
  55	3	21	16	15	23
  56	6	8	16	15	23
  57	5	15	23	22	26
  58	5	15	23	22	27
  59	4	15	23	24	25
  60	6	16	15	23	22
  61	3	16	15	23	24
  62	3	16	15	23	28
  63	5	19	15	23	22
  64	1	19	15	23	24
  65	3	19	15	23	28
  66	5	20	15	23	22
  67	1	20	15	23	24
  68	3	20	15	23	28
  69	1	33	29	30	31
  70	3	33	29	30	35
  71	1	34	29	30	31
  72	3	34	29	30	35
  73	4	29	30	31	32
  74	2	35	30	31	32
  75	3	24	23	22	30
  76	3	28	23	22	30
  77	6	15	23	22	30
  78	5	22	30	29	33
  79	5	22	30	29	34
  80	4	22	30	31	32
  81	6	23	22	30	29
  82	3	23	22	30	31
  83	3	23	22	30	35
  84	5	26	22	30	29
  85	1	26	22	30	31
  86	3	26	22	30	35
  87	5	27	22	30	29
  88	1	27	22	30	31
  89	3	27	22	30	35
  90	1	40	36	37	38
  91	3	40	36	37	42
  92	1	41	36	37	38
  93	3	41	36	37	42
  94	4	36	37	38	39
  95	2	42	37	38	39
  96	3	31	30	29	37
  97	3	35	30	29	37
  98	6	22	30	29	37
  99	5	29	37	36	40
 100	5	29	37	36	41
 101	4	29	37	38	39
 102	6	30	29	37	36
 103	3	30	29	37	38
 104	3	30	29	37	42
 105	5	33	29	37	36
 106	1	33	29	37	38
 107	3	33	29	37	42
 108	5	34	29	37	36
 109	1	34	29	37	38
 110	3	34	29	37	42
 111	1	47	43	44	45
 112	3	47	43	44	49
 113	1	48	43	44	45
 114	3	48	43	44	49
 115	4	43	44	45	46
 116	2	49	44	45	46
 117	3	38	37	36	44
 118	3	42	37	36	44
 119	6	29	37	36	44
 120	5	36	44	43	47
 121	5	36	44	43	48
 122	4	36	44	45	46
 123	6	37	36	44	43
 124	3	37	36	44	45
 125	3	37	36	44	49
 126	5	40	36	44	43
 127	1	40	36	44	45
 128	3	40	36	44	49
 129	5	41	36	44	43
 130	1	41	36	44	45
 131	3	41	36	44	49
 132	1	54	50	51	52
 133	3	54	50	51	56
 134	1	55	50	51	52
 135	3	55	50	51	56
 136	4	50	51	52	53
 137	2	56	51	52	53
 138	3	45	44	43	51
 139	3	49	44	43	51
 140	6	36	44	43	51
 141	5	43	51	50	54
 142	5	43	51	50	55
 143	4	43	51	52	53
 144	6	44	43	51	50
 145	3	44	43	51	52
 146	3	44	43	51	56
 147	5	47	43	51	50
 148	1	47	43	51	52
 149	3	47	43	51	56
 150	5	48	43	51	50
 151	1	48	43	51	52
 152	3	48	43	51	56
 153	1	61	57	58	59
 154	3	61	57	58	63
 155	1	62	57	58	59
 156	3	62	57	58	63
 157	4	57	58	59	60
 158	2	63	58	59	60
 159	3	52	51	50	58
 160	3	56	51	50	58
 161	6	43	51	50	58
 162	5	50	58	57	61
 163	5	50	58	57	62
 164	4	50	58	59	60
 165	6	51	50	58	57
 166	3	51	50	58	59
 167	3	51	50	58	63
 168	5	54	50	58	57
 169	1	54	50	58	59
 170	3	54	50	58	63
 171	5	55	50	58	57
 172	1	55	50	58	59
 173	3	55	50	58	63
 174	1	68	64	65	66
 175	3	68	64	65	70
 176	1	69	64	65	66
 177	3	69	64	65	70
 178	4	64	65	66	67
 179	2	70	65	66	67
 180	3	59	58	57	65
 181	3	63	58	57	65
 182	6	50	58	57	65
 183	5	57	65	64	68
 184	5	57	65	64	69
 185	4	57	65	66	67
 186	6	58	57	65	64
 187	3	58	57	65	66
 188	3	58	57	65	70
 189	5	61	57	65	64
 190	1	61	57	65	66
 191	3	61	57	65	70
 192	5	62	57	65	64
 193	1	62	57	65	66
 194	3	62	57	65	70
 195	1	75	71	72	73
 196	3	75	71	72	77
 197	1	76	71	72	73
 198	3	76	71	72	77
 199	4	71	72	73	74
 200	2	77	72	73	74
 201	3	66	65	64	72
 202	3	70	65	64	72
 203	6	57	65	64	72
 204	5	64	72	71	75
 205	5	64	72	71	76
 206	4	64	72	73	74
 207	6	65	64	72	71
 208	3	65	64	72	73
 209	3	65	64	72	77
 210	5	68	64	72	71
 211	1	68	64	72	73
 212	3	68	64	72	77
 213	5	69	64	72	71
 214	1	69	64	72	73
 215	3	69	64	72	77
 216	1	82	78	79	80
 217	3	82	78	79	84
 218	1	83	78	79	80
 219	3	83	78	79	84
 220	4	78	79	80	81
 221	2	84	79	80	81
 222	3	73	72	71	79
 223	3	77	72	71	79
 224	6	64	72	71	79
 225	5	71	79	78	82
 226	5	71	79	78	83
 227	4	71	79	80	81
 228	6	72	71	79	78
 229	3	72	71	79	80
 230	3	72	71	79	84
 231	5	75	71	79	78
 232	1	75	71	79	80
 233	3	75	71	79	84
 234	5	76	71	79	78
 235	1	76	71	79	80
 236	3	76	71	79	84
 237	3	5	1	2	85
 238	3	6	1	2	85
 239	3	9	1	2	85
 240	2	4	3	2	85
 241	1	80	79	78	86
 242	3	84	79	78	86
 243	5	71	79	78	86

