pySIMM System Object

177 atoms
176 bonds
325 angles
516 dihedrals
0 impropers

5 atom types
5 bond types
8 angle types
6 dihedral types

-76.004644 76.004644 xlo xhi
-76.004644 76.004644 ylo yhi
-76.004644 76.004644 zlo zhi

Masses

   1	12.01	# c3
   2	1.008	# hc
   3	16.0	# oh
   4	1.008	# ho
   5	1.008	# h1

Pair Coeffs

   1	0.1094	3.3996695084235347	# c3
   2	0.0157	2.649532787749369	# hc
   3	0.2104	3.0664733878390478	# oh
   4	0.0047	0.5379246460131368	# ho
   5	0.0157	2.471353044121301	# h1

Bond Coeffs

   1	371.4	0.973	# ho,oh
   2	330.6	1.0969	# c3,hc
   3	300.9	1.5375	# c3,c3
   4	316.7	1.4233	# c3,oh
   5	330.6	1.0969	# c3,h1

Angle Coeffs

   1	67.47	110.19	# c3,c3,oh
   2	46.34	109.8	# c3,c3,hc
   3	50.93	110.26	# h1,c3,oh
   4	46.39	109.56	# c3,c3,h1
   5	39.4	107.58	# hc,c3,hc
   6	39.24	108.46	# h1,c3,h1
   7	47.38	107.26	# c3,oh,ho
   8	62.86	111.51	# c3,c3,c3

Dihedral Coeffs

   1	2	0.0	3	0	0.25	1	0	# hc,c3,c3,oh
   2	1	0.16666666666666666	3	0	# X,c3,oh,X
   3	1	0.15555555555555556	3	0	# X,c3,c3,X
   4	2	0.16	3	0	0.25	1	0	# ho,oh,c3,c3
   5	1	0.16	3	0	# hc,c3,c3,c3
   6	3	0.18	3	0	0.25	2	180	0.2	1	180	# c3,c3,c3,c3

Atoms

   1	1	1	-0.02562	-9.67873	6.80985	1.19752
   2	1	1	0.401389	-11.1673	6.77057	0.805629
   3	1	3	-0.707077	-11.4609	7.73895	-0.198874
   4	1	4	0.414767	-12.3927	7.5899	-0.450288
   5	1	2	-0.013868	-9.47768	5.97244	1.87858
   6	1	2	-0.001701	-9.46306	7.72865	1.75956
   7	1	5	-0.06789	-11.4101	5.77407	0.420257
   8	1	1	-0.02562	-7.34686	6.23281	0.334719
   9	1	1	0.401389	-8.76006	6.71555	-0.040567
  10	1	3	-0.707077	-8.69689	7.98355	-0.688052
  11	1	4	0.414767	-9.65136	8.23943	-0.76827
  12	1	2	-0.013868	-7.42263	5.21028	0.728034
  13	1	2	-0.001701	-6.94518	6.85429	1.14683
  14	1	5	-0.06789	-9.18599	5.98419	-0.73669
  15	1	1	-0.02562	-5.20803	5.26817	-0.718333
  16	1	1	0.401389	-6.38805	6.25134	-0.878378
  17	1	3	-0.707077	-5.89872	7.57574	-1.06368
  18	1	4	0.414767	-6.73192	8.10629	-1.15069
  19	1	2	-0.013868	-4.58491	5.28001	-1.62299
  20	1	2	-0.001701	-5.61521	4.25157	-0.641147
  21	1	5	-0.06789	-6.94773	5.9493	-1.77071
  22	1	1	-0.02562	-3.40376	4.39644	0.858773
  23	1	1	0.401389	-4.34214	5.57093	0.522624
  24	1	3	-0.707077	-3.59138	6.76436	0.314224
  25	1	4	0.414767	-4.21622	7.3471	-0.199018
  26	1	2	-0.013868	-2.68621	4.23167	0.0431977
  27	1	2	-0.001701	-4.00214	3.47983	0.943593
  28	1	5	-0.06789	-4.99807	5.71496	1.38669
  29	1	1	-0.02562	-1.96635	3.3354	2.66477
  30	1	1	0.401389	-2.66123	4.63168	2.18895
  31	1	3	-0.707077	-1.72285	5.69433	2.02445
  32	1	4	0.414767	-2.2181	6.35152	1.45696
  33	1	2	-0.013868	-2.73847	2.58134	2.86848
  34	1	2	-0.001701	-1.34189	2.93135	1.85619
  35	1	5	-0.06789	-3.39271	4.92392	2.95083
  36	1	1	-0.02562	-0.647696	2.15906	4.49526
  37	1	1	0.401389	-1.10564	3.52786	3.93222
  38	1	3	-0.707077	-0.00652238	4.37758	3.60817
  39	1	4	0.414767	-0.470962	5.12727	3.12976
  40	1	2	-0.013868	-0.352338	1.49431	3.67139
  41	1	2	-0.001701	-1.51563	1.68458	4.97162
  42	1	5	-0.06789	-1.71208	4.02616	4.69677
  43	1	1	-0.02562	0.643213	0.943422	6.33237
  44	1	1	0.401389	0.509316	2.24789	5.51661
  45	1	3	-0.707077	1.72171	2.47272	4.79639
  46	1	4	0.414767	1.62892	3.3957	4.46096
  47	1	2	-0.013868	-0.30859	0.70679	6.82698
  48	1	2	-0.001701	0.824012	0.132965	5.62114
  49	1	5	-0.06789	0.32528	3.08409	6.20003
  50	1	1	-0.02562	2.39134	-0.32691	7.82763
  51	1	1	0.401389	1.77335	1.03431	7.39424
  52	1	3	-0.707077	1.27739	1.71748	8.5425
  53	1	4	0.414767	2.06109	2.0449	9.01566
  54	1	2	-0.013868	3.18471	-0.117582	8.55769
  55	1	2	-0.001701	1.63694	-0.917378	8.36494
  56	1	5	-0.06789	2.59373	1.64606	7.00683
  57	1	1	-0.02562	3.78892	-0.364972	5.62895
  58	1	1	0.401389	3.0101	-1.19343	6.68937
  59	1	3	-0.707077	1.99198	-2.00084	6.10847
  60	1	4	0.414767	2.30272	-2.17967	5.18016
  61	1	2	-0.013868	4.66936	0.0821335	6.10871
  62	1	2	-0.001701	3.16971	0.464136	5.30092
  63	1	5	-0.06789	3.7298	-1.87943	7.15069
  64	1	1	-0.02562	5.00582	-0.244852	3.34778
  65	1	1	0.401389	4.23774	-1.13318	4.36161
  66	1	3	-0.707077	3.11399	-1.6982	3.69243
  67	1	4	0.414767	2.79265	-0.956611	3.11627
  68	1	2	-0.013868	5.17033	-0.817416	2.4246
  69	1	2	-0.001701	6.00404	-0.0399459	3.75626
  70	1	5	-0.06789	4.89857	-1.94947	4.67472
  71	1	1	-0.02562	5.03175	1.80298	1.80341
  72	1	1	0.401389	4.3304	1.1161	3.00913
  73	1	3	-0.707077	2.93812	0.936918	2.74149
  74	1	4	0.414767	2.48671	1.52758	3.40625
  75	1	2	-0.013868	4.54724	1.49624	0.866226
  76	1	2	-0.001701	6.05367	1.40847	1.73216
  77	1	5	-0.06789	4.41884	1.7314	3.9068
  78	1	1	-0.02562	4.1851	4.13784	0.939249
  79	1	1	0.401389	5.16513	3.35167	1.84875
  80	1	3	-0.707077	5.16428	3.87536	3.17121
  81	1	4	0.414767	4.21868	4.14928	3.30644
  82	1	2	-0.013868	4.49952	5.19024	0.924786
  83	1	2	-0.001701	4.31608	3.76727	-0.0834888
  84	1	5	-0.06789	6.15883	3.56299	1.43693
  85	1	1	-0.02562	1.79185	5.09147	0.57216
  86	1	1	0.401389	2.68486	4.06981	1.32378
  87	1	3	-0.707077	2.53921	4.32582	2.7198
  88	1	4	0.414767	1.55806	4.39768	2.87991
  89	1	2	-0.013868	0.804753	5.08403	1.05053
  90	1	2	-0.001701	2.1884	6.10662	0.707427
  91	1	5	-0.06789	2.30641	3.06325	1.11779
  92	1	1	-0.02562	0.475132	5.72778	-1.50983
  93	1	1	0.401389	1.58178	4.80862	-0.934932
  94	1	3	-0.707077	2.78521	5.03678	-1.66056
  95	1	4	0.414767	2.83213	4.36788	-2.36789
  96	1	2	-0.013868	0.83668	6.76566	-1.49906
  97	1	2	-0.001701	-0.409094	5.70292	-0.859191
  98	1	5	-0.06789	1.2854	3.76164	-1.05566
  99	1	1	-0.02562	-0.911591	4.13081	-2.96581
 100	1	1	0.401389	0.0526949	5.34144	-2.94539
 101	1	3	-0.707077	-0.564406	6.46575	-3.57177
 102	1	4	0.414767	0.0429151	7.21863	-3.43088
 103	1	2	-0.013868	-1.83422	4.37016	-2.41987
 104	1	2	-0.001701	-0.440511	3.29532	-2.43323
 105	1	5	-0.06789	0.949033	5.08875	-3.52272
 106	1	1	-0.02562	-2.09713	2.37488	-4.3947
 107	1	1	0.401389	-1.24928	3.66627	-4.40013
 108	1	3	-0.707077	-1.96744	4.67936	-5.09365
 109	1	4	0.414767	-1.59125	5.52922	-4.74299
 110	1	2	-0.013868	-3.1443	2.64054	-4.192
 111	1	2	-0.001701	-1.80314	1.73001	-3.56165
 112	1	5	-0.06789	-0.300246	3.48856	-4.91374
 113	1	1	-0.02562	-0.640357	0.964614	-6.07486
 114	1	1	0.401389	-2.01701	1.60411	-5.73548
 115	1	3	-0.707077	-3.0386	0.611045	-5.75707
 116	1	4	0.414767	-3.86884	1.10396	-5.88716
 117	1	2	-0.013868	0.163936	1.70485	-5.99106
 118	1	2	-0.001701	-0.666433	0.684198	-7.13604
 119	1	5	-0.06789	-2.24956	2.3138	-6.53653
 120	1	1	-0.02562	0.99182	-0.99297	-5.81332
 121	1	1	0.401389	-0.274615	-0.29907	-5.25604
 122	1	3	-0.707077	-0.0801575	0.0111203	-3.87979
 123	1	4	0.414767	-0.853252	-0.373945	-3.42755
 124	1	2	-0.013868	0.810675	-1.26716	-6.8614
 125	1	2	-0.001701	1.8234	-0.275375	-5.81753
 126	1	5	-0.06789	-1.10763	-1.00273	-5.33515
 127	1	1	-0.02562	0.287224	-3.29406	-4.84488
 128	1	1	0.401389	1.4235	-2.25811	-5.02585
 129	1	3	-0.707077	2.50925	-2.8697	-5.71393
 130	1	4	0.414767	2.4968	-3.80792	-5.39577
 131	1	2	-0.013868	-0.0553427	-3.65382	-5.82464
 132	1	2	-0.001701	-0.57308	-2.80936	-4.3705
 133	1	5	-0.06789	1.76831	-1.95605	-4.03034
 134	1	1	-0.02562	-0.564197	-5.36778	-3.67388
 135	1	1	0.401389	0.678693	-4.48348	-3.93925
 136	1	3	-0.707077	1.74105	-5.23726	-4.5206
 137	1	4	0.414767	2.04041	-5.82073	-3.7927
 138	1	2	-0.013868	-1.32323	-4.74623	-3.1801
 139	1	2	-0.001701	-1.01307	-5.67496	-4.6278
 140	1	5	-0.06789	1.03266	-4.07508	-2.98704
 141	1	1	-0.02562	0.226091	-7.8351	-3.54945
 142	1	1	0.401389	-0.330884	-6.61356	-2.78642
 143	1	3	-0.707077	0.546692	-6.30905	-1.70431
 144	1	4	0.414767	0.651462	-7.13669	-1.18583
 145	1	2	-0.013868	1.32294	-7.79285	-3.56358
 146	1	2	-0.001701	-0.0938407	-7.82027	-4.59973
 147	1	5	-0.06789	-1.30912	-6.88703	-2.37433
 148	1	1	-0.02562	0.711788	-10.3171	-2.95274
 149	1	1	0.401389	-0.276242	-9.13116	-2.87247
 150	1	3	-0.707077	-1.51683	-9.51312	-3.45652
 151	1	4	0.414767	-1.91524	-10.1584	-2.84727
 152	1	2	-0.013868	0.923766	-10.5525	-4.0044
 153	1	2	-0.001701	0.211456	-11.2008	-2.5353
 154	1	5	-0.06789	-0.47557	-8.93032	-1.81379
 155	1	1	-0.02562	2.65884	-11.4457	-1.74819
 156	1	1	0.401389	2.05382	-10.0872	-2.20686
 157	1	3	-0.707077	1.89002	-9.17603	-1.11874
 158	1	4	0.414767	2.79531	-8.93875	-0.815339
 159	1	2	-0.013868	2.83917	-12.0594	-2.64069
 160	1	2	-0.001701	1.92324	-11.9987	-1.14887
 161	1	5	-0.06789	2.74599	-9.62198	-2.91725
 162	1	1	-0.02562	3.75512	-11.0621	0.563214
 163	1	1	0.401389	3.98411	-11.3474	-0.953557
 164	1	3	-0.707077	4.85835	-10.4148	-1.59434
 165	1	4	0.414767	5.22833	-10.8835	-2.36984
 166	1	2	-0.013868	3.65564	-12.0265	1.07869
 167	1	2	-0.001701	2.79272	-10.5666	0.727606
 168	1	5	-0.06789	4.47393	-12.3259	-1.0124
 169	1	1	-0.02562	6.2225	-10.9301	1.31479
 170	1	1	0.401389	4.84504	-10.2319	1.28141
 171	1	3	-0.707077	4.95151	-8.9505	0.672576
 172	1	4	0.414767	5.19925	-9.16535	-0.25951
 173	1	2	-0.013868	6.93087	-10.3533	1.92282
 174	1	2	-0.001701	6.64837	-11.0396	0.31011
 175	1	5	-0.06789	4.52084	-10.0926	2.31898
 176	1	5	0	-11.7837	6.94757	1.69576
 177	1	2	0	6.13676	-11.9296	1.75928

Velocities

   1	-0.000681264	-0.000831651	-0.000627111
   2	-0.000741914	0.000952202	-0.00086097
   3	-0.00010152	0.00233729	0.000263932
   4	-0.000758637	0.0043682	0.00149251
   5	-0.00168716	-0.00169484	-0.00135008
   6	2.52973e-05	-0.00159557	0.000244941
   7	-0.00175157	0.00161583	-0.0019313
   8	-0.000498908	-0.000609227	-0.000189229
   9	-0.000432621	-0.000544535	-0.00046755
  10	-0.000293985	-0.000433992	-0.000147056
  11	-0.000284968	-0.000359544	-0.000401144
  12	-0.000490285	-0.000666135	-0.000534712
  13	-0.000660323	-0.000834306	4.30547e-05
  14	-0.000301721	-0.000333711	-0.000820669
  15	-7.73185e-05	-0.000203614	6.12879e-05
  16	-0.000121916	-0.000240551	1.39541e-05
  17	9.10882e-05	-0.000218006	0.00057187
  18	0.000217226	-1.36746e-05	0.000684159
  19	-0.000125778	-0.000174008	1.70056e-05
  20	-4.04059e-05	-0.000287624	-0.000109897
  21	0.000132353	1.57541e-05	-0.000199027
  22	-9.00352e-05	-0.000247174	-0.000101736
  23	-9.77638e-05	-0.000257941	4.31635e-05
  24	-8.38881e-05	-0.000252685	8.74182e-05
  25	-0.000167917	-0.000114766	0.000396662
  26	-0.000370275	-0.000473113	-0.000257836
  27	-0.000167885	-0.000141789	0.000318695
  28	-0.000103245	-0.000284117	-1.53287e-05
  29	0.000340119	-0.000152081	-0.000455405
  30	0.000408475	-0.000142281	-0.000347463
  31	0.000551941	-0.000328791	-0.000807671
  32	0.000438368	-0.000260172	-0.000603299
  33	0.000361198	-0.000127549	-0.000482496
  34	0.000355552	-0.000132603	-0.000483639
  35	0.000729861	0.000133161	-0.000137098
  36	0.000104398	-0.000144617	-0.000195183
  37	0.0003588	-0.000129367	-0.000447814
  38	0.000505223	-0.000316384	-0.000481277
  39	0.000619192	-0.000380515	-0.000710348
  40	0.000362142	-0.000222053	-6.65653e-05
  41	-6.90729e-05	-0.000112109	-0.000405564
  42	0.000363757	5.27552e-06	-0.000535151
  43	-3.94287e-05	-0.000159926	-2.39503e-05
  44	-0.000246458	-3.33609e-05	0.000170199
  45	-0.000105252	0.000537925	0.000530273
  46	-0.000577505	0.000548358	0.000683768
  47	-4.99566e-05	-0.00040085	-0.00017031
  48	0.000165045	5.44076e-05	-0.000194311
  49	-0.000717433	-0.000212026	0.000277657
  50	4.96435e-05	-2.2727e-05	-3.96648e-05
  51	-0.000131596	-0.00010847	7.2276e-05
  52	-0.000297168	-0.000464489	0.000232436
  53	-0.000213036	-0.00317298	0.00198203
  54	0.000165694	6.31706e-06	-0.000225723
  55	0.000194591	-0.000162188	1.42175e-05
  56	-0.000198255	8.22655e-05	0.000245551
  57	6.65802e-06	0.000169466	-0.000101959
  58	-2.81627e-05	0.000106774	-0.000211193
  59	-0.000110091	0.000103206	-7.83451e-05
  60	-0.000609113	0.000715922	-0.000408382
  61	0.000370495	-0.000533074	-0.0002118
  62	0.000445201	0.000747201	0.00035304
  63	-1.92124e-05	4.26212e-05	-0.000304065
  64	-0.000401736	0.000124045	-0.000230165
  65	-0.000844943	0.000325508	-0.000500366
  66	-0.00139576	0.00136271	-0.000423334
  67	-0.00119472	0.00192061	-0.000140274
  68	-0.000914061	0.000330823	-0.000432278
  69	-0.000207947	-0.000668123	-0.000325195
  70	-0.00129445	-0.000226427	-0.000868677
  71	0.00133677	0.000137332	0.000260869
  72	0.000605359	0.000723565	0.000154294
  73	0.000501091	0.00174755	7.17927e-05
  74	0.000785146	0.00165671	0.00035506
  75	0.00232336	-0.000726191	3.40869e-05
  76	0.00159022	0.000524498	0.00153171
  77	0.00115415	0.000619945	0.000167238
  78	0.000226148	-0.000618683	-0.000741792
  79	0.00080289	0.000163816	-0.000719961
  80	0.00129351	0.000826388	-0.000986124
  81	0.00136133	0.000918774	-0.000774282
  82	0.000446085	-0.000706853	-0.00205401
  83	-0.00055427	-0.00168046	-0.000473144
  84	0.000562096	0.000237302	-0.00133734
  85	0.000598914	0.00035603	0.000463104
  86	0.000467407	0.000113293	0.000276565
  87	0.00109112	0.00051604	0.000263665
  88	0.00113259	0.000260936	0.000523442
  89	0.000917728	0.00128358	0.00109305
  90	0.00140455	0.000151155	-0.000302541
  91	-0.000140613	0.000263113	0.000681863
  92	-0.00037814	-0.000207198	0.000976109
  93	-0.000507241	-0.000359529	0.00077107
  94	-0.000784078	-0.00139095	-5.13784e-05
  95	-0.00232235	-0.000909416	-0.000623722
  96	-0.000215161	-0.000272284	0.000982886
  97	-0.000318288	-0.000150925	0.00101253
  98	-0.00109624	-0.000297905	0.00156882
  99	-0.00076925	0.000204807	0.000797002
 100	-0.000369187	-0.000124295	0.000944365
 101	0.00024672	2.04092e-05	0.000691563
 102	0.00114688	-0.000543455	-0.000196033
 103	-0.00114435	0.000804453	4.09703e-05
 104	-0.00150224	0.000156543	0.00136642
 105	-0.000368171	-0.000590946	0.00113362
 106	6.17381e-05	0.000214642	0.000143966
 107	0.000314455	3.77394e-05	0.000621776
 108	0.00106224	5.8782e-05	-0.000155735
 109	0.000821721	7.56728e-05	2.60708e-05
 110	-4.80194e-06	0.000306816	-9.20845e-05
 111	-0.000200812	-6.63729e-05	5.80129e-05
 112	0.0006564	-0.000320156	0.00146182
 113	0.000314637	0.00041616	8.85019e-05
 114	0.000245537	0.00048366	-2.99175e-05
 115	0.000170675	0.000591499	-0.000309323
 116	0.000255407	0.00058713	-0.000381714
 117	0.000345206	0.000390655	0.000155742
 118	0.000401023	0.00047245	7.41069e-05
 119	0.000460141	0.000623523	6.11499e-05
 120	-0.000626923	-0.000454839	-0.000512828
 121	0.000157168	0.000415361	0.000161082
 122	0.00113978	0.000836329	-7.55797e-05
 123	-0.000639909	0.00454313	6.19815e-05
 124	-0.00155508	-0.000838199	-0.000248473
 125	-0.000297486	-0.000867863	-0.00146225
 126	-0.000234249	0.000792829	0.000974534
 127	-0.000357127	-0.000585214	-0.000397376
 128	-0.000610489	-0.000306	-0.000320235
 129	-0.00042995	-0.000227513	-8.27836e-05
 130	0.000135355	8.36478e-06	0.000709553
 131	0.000475259	-0.00145257	-0.000410695
 132	-0.00093032	-0.000685601	-0.00136887
 133	-0.000797728	-0.000189841	-0.000296423
 134	0.000207776	-0.000565212	0.000333974
 135	-0.000277793	0.000198122	0.000658242
 136	0.000859451	0.000562198	0.00219984
 137	0.000659348	0.00155813	0.00317209
 138	-6.75108e-05	-0.00108567	0.000482407
 139	0.000316168	-0.000503363	0.000245412
 140	-0.00149757	0.00107606	0.00076697
 141	-0.000129619	-0.000794657	-0.000603647
 142	0.000780823	-0.000710378	-1.18064e-05
 143	0.00175567	-0.00115703	-0.000706637
 144	0.00141483	-0.00116138	-0.000567957
 145	-9.90779e-05	-0.00127621	-0.00110604
 146	-0.00055505	-0.000412059	-0.000474641
 147	0.001082	-0.000553078	0.000751051
 148	-0.000508988	-0.000759506	0.000438488
 149	-0.000421893	-0.000658849	-0.000578455
 150	-0.00020437	-0.000857471	-0.000936636
 151	-0.000741747	-3.80339e-05	-0.000428039
 152	-0.000603761	-0.00176408	0.000671467
 153	-0.000565162	-0.000283447	0.00139887
 154	-0.000953448	-0.000399915	-0.000722408
 155	0.000240272	0.000246237	-0.00017579
 156	-0.000587906	-6.05419e-05	0.000222685
 157	-0.000996931	-0.000436555	0.000455739
 158	-0.00107962	-0.000166656	0.000531031
 159	0.000455273	0.00053123	-0.000350475
 160	0.000655723	-0.000368195	-0.000201151
 161	-0.000946652	0.000474453	0.00022002
 162	0.000309285	-5.77919e-05	-0.000120645
 163	0.000300642	0.00067862	-0.000297142
 164	-0.000386894	0.00163968	-3.88794e-05
 165	-0.000632356	0.00252365	-0.000741322
 166	0.000113492	-0.000219731	-0.000415582
 167	0.000524599	0.000262093	0.000119304
 168	0.000991431	0.00107977	-0.000812353
 169	0.000420703	-0.000169648	-4.02677e-05
 170	0.000422602	-0.000387055	0.000242465
 171	0.000444173	-0.000236951	0.000759046
 172	-0.000698391	1.29398e-05	0.000304155
 173	0.000874156	2.93808e-05	-0.000764286
 174	3.40116e-05	-0.000917472	-0.000139555
 175	0.000481805	-0.000737106	0.000336805
 176	-0.000543803	0.00045773	-0.000606967
 177	0.00077717	0.000178918	0.000589819

Bonds

   1	3	1	2
   2	2	1	5
   3	2	1	6
   4	4	2	3
   5	5	2	7
   6	1	3	4
   7	3	8	9
   8	2	8	12
   9	2	8	13
  10	4	9	10
  11	5	9	14
  12	1	10	11
  13	3	1	9
  14	3	15	16
  15	2	15	19
  16	2	15	20
  17	4	16	17
  18	5	16	21
  19	1	17	18
  20	3	8	16
  21	3	22	23
  22	2	22	26
  23	2	22	27
  24	4	23	24
  25	5	23	28
  26	1	24	25
  27	3	15	23
  28	3	29	30
  29	2	29	33
  30	2	29	34
  31	4	30	31
  32	5	30	35
  33	1	31	32
  34	3	22	30
  35	3	36	37
  36	2	36	40
  37	2	36	41
  38	4	37	38
  39	5	37	42
  40	1	38	39
  41	3	29	37
  42	3	43	44
  43	2	43	47
  44	2	43	48
  45	4	44	45
  46	5	44	49
  47	1	45	46
  48	3	36	44
  49	3	50	51
  50	2	50	54
  51	2	50	55
  52	4	51	52
  53	5	51	56
  54	1	52	53
  55	3	43	51
  56	3	57	58
  57	2	57	61
  58	2	57	62
  59	4	58	59
  60	5	58	63
  61	1	59	60
  62	3	50	58
  63	3	64	65
  64	2	64	68
  65	2	64	69
  66	4	65	66
  67	5	65	70
  68	1	66	67
  69	3	57	65
  70	3	71	72
  71	2	71	75
  72	2	71	76
  73	4	72	73
  74	5	72	77
  75	1	73	74
  76	3	64	72
  77	3	78	79
  78	2	78	82
  79	2	78	83
  80	4	79	80
  81	5	79	84
  82	1	80	81
  83	3	71	79
  84	3	85	86
  85	2	85	89
  86	2	85	90
  87	4	86	87
  88	5	86	91
  89	1	87	88
  90	3	78	86
  91	3	92	93
  92	2	92	96
  93	2	92	97
  94	4	93	94
  95	5	93	98
  96	1	94	95
  97	3	85	93
  98	3	99	100
  99	2	99	103
 100	2	99	104
 101	4	100	101
 102	5	100	105
 103	1	101	102
 104	3	92	100
 105	3	106	107
 106	2	106	110
 107	2	106	111
 108	4	107	108
 109	5	107	112
 110	1	108	109
 111	3	99	107
 112	3	113	114
 113	2	113	117
 114	2	113	118
 115	4	114	115
 116	5	114	119
 117	1	115	116
 118	3	106	114
 119	3	120	121
 120	2	120	124
 121	2	120	125
 122	4	121	122
 123	5	121	126
 124	1	122	123
 125	3	113	121
 126	3	127	128
 127	2	127	131
 128	2	127	132
 129	4	128	129
 130	5	128	133
 131	1	129	130
 132	3	120	128
 133	3	134	135
 134	2	134	138
 135	2	134	139
 136	4	135	136
 137	5	135	140
 138	1	136	137
 139	3	127	135
 140	3	141	142
 141	2	141	145
 142	2	141	146
 143	4	142	143
 144	5	142	147
 145	1	143	144
 146	3	134	142
 147	3	148	149
 148	2	148	152
 149	2	148	153
 150	4	149	150
 151	5	149	154
 152	1	150	151
 153	3	141	149
 154	3	155	156
 155	2	155	159
 156	2	155	160
 157	4	156	157
 158	5	156	161
 159	1	157	158
 160	3	148	156
 161	3	162	163
 162	2	162	166
 163	2	162	167
 164	4	163	164
 165	5	163	168
 166	1	164	165
 167	3	155	163
 168	3	169	170
 169	2	169	173
 170	2	169	174
 171	4	170	171
 172	5	170	175
 173	1	171	172
 174	3	162	170
 175	5	2	176
 176	2	169	177

Angles

   1	2	2	1	5
   2	2	2	1	6
   3	5	5	1	6
   4	1	1	2	3
   5	4	1	2	7
   6	3	3	2	7
   7	7	2	3	4
   8	2	9	8	12
   9	2	9	8	13
  10	5	12	8	13
  11	1	8	9	10
  12	4	8	9	14
  13	3	10	9	14
  14	7	9	10	11
  15	8	2	1	9
  16	2	5	1	9
  17	2	6	1	9
  18	8	1	9	8
  19	1	1	9	10
  20	4	1	9	14
  21	2	16	15	19
  22	2	16	15	20
  23	5	19	15	20
  24	1	15	16	17
  25	4	15	16	21
  26	3	17	16	21
  27	7	16	17	18
  28	8	9	8	16
  29	2	12	8	16
  30	2	13	8	16
  31	8	8	16	15
  32	1	8	16	17
  33	4	8	16	21
  34	2	23	22	26
  35	2	23	22	27
  36	5	26	22	27
  37	1	22	23	24
  38	4	22	23	28
  39	3	24	23	28
  40	7	23	24	25
  41	8	16	15	23
  42	2	19	15	23
  43	2	20	15	23
  44	8	15	23	22
  45	1	15	23	24
  46	4	15	23	28
  47	2	30	29	33
  48	2	30	29	34
  49	5	33	29	34
  50	1	29	30	31
  51	4	29	30	35
  52	3	31	30	35
  53	7	30	31	32
  54	8	23	22	30
  55	2	26	22	30
  56	2	27	22	30
  57	8	22	30	29
  58	1	22	30	31
  59	4	22	30	35
  60	2	37	36	40
  61	2	37	36	41
  62	5	40	36	41
  63	1	36	37	38
  64	4	36	37	42
  65	3	38	37	42
  66	7	37	38	39
  67	8	30	29	37
  68	2	33	29	37
  69	2	34	29	37
  70	8	29	37	36
  71	1	29	37	38
  72	4	29	37	42
  73	2	44	43	47
  74	2	44	43	48
  75	5	47	43	48
  76	1	43	44	45
  77	4	43	44	49
  78	3	45	44	49
  79	7	44	45	46
  80	8	37	36	44
  81	2	40	36	44
  82	2	41	36	44
  83	8	36	44	43
  84	1	36	44	45
  85	4	36	44	49
  86	2	51	50	54
  87	2	51	50	55
  88	5	54	50	55
  89	1	50	51	52
  90	4	50	51	56
  91	3	52	51	56
  92	7	51	52	53
  93	8	44	43	51
  94	2	47	43	51
  95	2	48	43	51
  96	8	43	51	50
  97	1	43	51	52
  98	4	43	51	56
  99	2	58	57	61
 100	2	58	57	62
 101	5	61	57	62
 102	1	57	58	59
 103	4	57	58	63
 104	3	59	58	63
 105	7	58	59	60
 106	8	51	50	58
 107	2	54	50	58
 108	2	55	50	58
 109	8	50	58	57
 110	1	50	58	59
 111	4	50	58	63
 112	2	65	64	68
 113	2	65	64	69
 114	5	68	64	69
 115	1	64	65	66
 116	4	64	65	70
 117	3	66	65	70
 118	7	65	66	67
 119	8	58	57	65
 120	2	61	57	65
 121	2	62	57	65
 122	8	57	65	64
 123	1	57	65	66
 124	4	57	65	70
 125	2	72	71	75
 126	2	72	71	76
 127	5	75	71	76
 128	1	71	72	73
 129	4	71	72	77
 130	3	73	72	77
 131	7	72	73	74
 132	8	65	64	72
 133	2	68	64	72
 134	2	69	64	72
 135	8	64	72	71
 136	1	64	72	73
 137	4	64	72	77
 138	2	79	78	82
 139	2	79	78	83
 140	5	82	78	83
 141	1	78	79	80
 142	4	78	79	84
 143	3	80	79	84
 144	7	79	80	81
 145	8	72	71	79
 146	2	75	71	79
 147	2	76	71	79
 148	8	71	79	78
 149	1	71	79	80
 150	4	71	79	84
 151	2	86	85	89
 152	2	86	85	90
 153	5	89	85	90
 154	1	85	86	87
 155	4	85	86	91
 156	3	87	86	91
 157	7	86	87	88
 158	8	79	78	86
 159	2	82	78	86
 160	2	83	78	86
 161	8	78	86	85
 162	1	78	86	87
 163	4	78	86	91
 164	2	93	92	96
 165	2	93	92	97
 166	5	96	92	97
 167	1	92	93	94
 168	4	92	93	98
 169	3	94	93	98
 170	7	93	94	95
 171	8	86	85	93
 172	2	89	85	93
 173	2	90	85	93
 174	8	85	93	92
 175	1	85	93	94
 176	4	85	93	98
 177	2	100	99	103
 178	2	100	99	104
 179	5	103	99	104
 180	1	99	100	101
 181	4	99	100	105
 182	3	101	100	105
 183	7	100	101	102
 184	8	93	92	100
 185	2	96	92	100
 186	2	97	92	100
 187	8	92	100	99
 188	1	92	100	101
 189	4	92	100	105
 190	2	107	106	110
 191	2	107	106	111
 192	5	110	106	111
 193	1	106	107	108
 194	4	106	107	112
 195	3	108	107	112
 196	7	107	108	109
 197	8	100	99	107
 198	2	103	99	107
 199	2	104	99	107
 200	8	99	107	106
 201	1	99	107	108
 202	4	99	107	112
 203	2	114	113	117
 204	2	114	113	118
 205	5	117	113	118
 206	1	113	114	115
 207	4	113	114	119
 208	3	115	114	119
 209	7	114	115	116
 210	8	107	106	114
 211	2	110	106	114
 212	2	111	106	114
 213	8	106	114	113
 214	1	106	114	115
 215	4	106	114	119
 216	2	121	120	124
 217	2	121	120	125
 218	5	124	120	125
 219	1	120	121	122
 220	4	120	121	126
 221	3	122	121	126
 222	7	121	122	123
 223	8	114	113	121
 224	2	117	113	121
 225	2	118	113	121
 226	8	113	121	120
 227	1	113	121	122
 228	4	113	121	126
 229	2	128	127	131
 230	2	128	127	132
 231	5	131	127	132
 232	1	127	128	129
 233	4	127	128	133
 234	3	129	128	133
 235	7	128	129	130
 236	8	121	120	128
 237	2	124	120	128
 238	2	125	120	128
 239	8	120	128	127
 240	1	120	128	129
 241	4	120	128	133
 242	2	135	134	138
 243	2	135	134	139
 244	5	138	134	139
 245	1	134	135	136
 246	4	134	135	140
 247	3	136	135	140
 248	7	135	136	137
 249	8	128	127	135
 250	2	131	127	135
 251	2	132	127	135
 252	8	127	135	134
 253	1	127	135	136
 254	4	127	135	140
 255	2	142	141	145
 256	2	142	141	146
 257	5	145	141	146
 258	1	141	142	143
 259	4	141	142	147
 260	3	143	142	147
 261	7	142	143	144
 262	8	135	134	142
 263	2	138	134	142
 264	2	139	134	142
 265	8	134	142	141
 266	1	134	142	143
 267	4	134	142	147
 268	2	149	148	152
 269	2	149	148	153
 270	5	152	148	153
 271	1	148	149	150
 272	4	148	149	154
 273	3	150	149	154
 274	7	149	150	151
 275	8	142	141	149
 276	2	145	141	149
 277	2	146	141	149
 278	8	141	149	148
 279	1	141	149	150
 280	4	141	149	154
 281	2	156	155	159
 282	2	156	155	160
 283	5	159	155	160
 284	1	155	156	157
 285	4	155	156	161
 286	3	157	156	161
 287	7	156	157	158
 288	8	149	148	156
 289	2	152	148	156
 290	2	153	148	156
 291	8	148	156	155
 292	1	148	156	157
 293	4	148	156	161
 294	2	163	162	166
 295	2	163	162	167
 296	5	166	162	167
 297	1	162	163	164
 298	4	162	163	168
 299	3	164	163	168
 300	7	163	164	165
 301	8	156	155	163
 302	2	159	155	163
 303	2	160	155	163
 304	8	155	163	162
 305	1	155	163	164
 306	4	155	163	168
 307	2	170	169	173
 308	2	170	169	174
 309	5	173	169	174
 310	1	169	170	171
 311	4	169	170	175
 312	3	171	170	175
 313	7	170	171	172
 314	8	163	162	170
 315	2	166	162	170
 316	2	167	162	170
 317	8	162	170	169
 318	1	162	170	171
 319	4	162	170	175
 320	4	1	2	176
 321	3	3	2	176
 322	6	7	2	176
 323	2	170	169	177
 324	5	173	169	177
 325	5	174	169	177

Dihedrals

   1	1	5	1	2	3
   2	3	5	1	2	7
   3	1	6	1	2	3
   4	3	6	1	2	7
   5	4	1	2	3	4
   6	2	7	2	3	4
   7	1	12	8	9	10
   8	3	12	8	9	14
   9	1	13	8	9	10
  10	3	13	8	9	14
  11	4	8	9	10	11
  12	2	14	9	10	11
  13	3	3	2	1	9
  14	3	7	2	1	9
  15	5	1	9	8	12
  16	5	1	9	8	13
  17	4	1	9	10	11
  18	6	2	1	9	8
  19	3	2	1	9	10
  20	3	2	1	9	14
  21	5	5	1	9	8
  22	1	5	1	9	10
  23	3	5	1	9	14
  24	5	6	1	9	8
  25	1	6	1	9	10
  26	3	6	1	9	14
  27	1	19	15	16	17
  28	3	19	15	16	21
  29	1	20	15	16	17
  30	3	20	15	16	21
  31	4	15	16	17	18
  32	2	21	16	17	18
  33	3	10	9	8	16
  34	3	14	9	8	16
  35	6	1	9	8	16
  36	5	8	16	15	19
  37	5	8	16	15	20
  38	4	8	16	17	18
  39	6	9	8	16	15
  40	3	9	8	16	17
  41	3	9	8	16	21
  42	5	12	8	16	15
  43	1	12	8	16	17
  44	3	12	8	16	21
  45	5	13	8	16	15
  46	1	13	8	16	17
  47	3	13	8	16	21
  48	1	26	22	23	24
  49	3	26	22	23	28
  50	1	27	22	23	24
  51	3	27	22	23	28
  52	4	22	23	24	25
  53	2	28	23	24	25
  54	3	17	16	15	23
  55	3	21	16	15	23
  56	6	8	16	15	23
  57	5	15	23	22	26
  58	5	15	23	22	27
  59	4	15	23	24	25
  60	6	16	15	23	22
  61	3	16	15	23	24
  62	3	16	15	23	28
  63	5	19	15	23	22
  64	1	19	15	23	24
  65	3	19	15	23	28
  66	5	20	15	23	22
  67	1	20	15	23	24
  68	3	20	15	23	28
  69	1	33	29	30	31
  70	3	33	29	30	35
  71	1	34	29	30	31
  72	3	34	29	30	35
  73	4	29	30	31	32
  74	2	35	30	31	32
  75	3	24	23	22	30
  76	3	28	23	22	30
  77	6	15	23	22	30
  78	5	22	30	29	33
  79	5	22	30	29	34
  80	4	22	30	31	32
  81	6	23	22	30	29
  82	3	23	22	30	31
  83	3	23	22	30	35
  84	5	26	22	30	29
  85	1	26	22	30	31
  86	3	26	22	30	35
  87	5	27	22	30	29
  88	1	27	22	30	31
  89	3	27	22	30	35
  90	1	40	36	37	38
  91	3	40	36	37	42
  92	1	41	36	37	38
  93	3	41	36	37	42
  94	4	36	37	38	39
  95	2	42	37	38	39
  96	3	31	30	29	37
  97	3	35	30	29	37
  98	6	22	30	29	37
  99	5	29	37	36	40
 100	5	29	37	36	41
 101	4	29	37	38	39
 102	6	30	29	37	36
 103	3	30	29	37	38
 104	3	30	29	37	42
 105	5	33	29	37	36
 106	1	33	29	37	38
 107	3	33	29	37	42
 108	5	34	29	37	36
 109	1	34	29	37	38
 110	3	34	29	37	42
 111	1	47	43	44	45
 112	3	47	43	44	49
 113	1	48	43	44	45
 114	3	48	43	44	49
 115	4	43	44	45	46
 116	2	49	44	45	46
 117	3	38	37	36	44
 118	3	42	37	36	44
 119	6	29	37	36	44
 120	5	36	44	43	47
 121	5	36	44	43	48
 122	4	36	44	45	46
 123	6	37	36	44	43
 124	3	37	36	44	45
 125	3	37	36	44	49
 126	5	40	36	44	43
 127	1	40	36	44	45
 128	3	40	36	44	49
 129	5	41	36	44	43
 130	1	41	36	44	45
 131	3	41	36	44	49
 132	1	54	50	51	52
 133	3	54	50	51	56
 134	1	55	50	51	52
 135	3	55	50	51	56
 136	4	50	51	52	53
 137	2	56	51	52	53
 138	3	45	44	43	51
 139	3	49	44	43	51
 140	6	36	44	43	51
 141	5	43	51	50	54
 142	5	43	51	50	55
 143	4	43	51	52	53
 144	6	44	43	51	50
 145	3	44	43	51	52
 146	3	44	43	51	56
 147	5	47	43	51	50
 148	1	47	43	51	52
 149	3	47	43	51	56
 150	5	48	43	51	50
 151	1	48	43	51	52
 152	3	48	43	51	56
 153	1	61	57	58	59
 154	3	61	57	58	63
 155	1	62	57	58	59
 156	3	62	57	58	63
 157	4	57	58	59	60
 158	2	63	58	59	60
 159	3	52	51	50	58
 160	3	56	51	50	58
 161	6	43	51	50	58
 162	5	50	58	57	61
 163	5	50	58	57	62
 164	4	50	58	59	60
 165	6	51	50	58	57
 166	3	51	50	58	59
 167	3	51	50	58	63
 168	5	54	50	58	57
 169	1	54	50	58	59
 170	3	54	50	58	63
 171	5	55	50	58	57
 172	1	55	50	58	59
 173	3	55	50	58	63
 174	1	68	64	65	66
 175	3	68	64	65	70
 176	1	69	64	65	66
 177	3	69	64	65	70
 178	4	64	65	66	67
 179	2	70	65	66	67
 180	3	59	58	57	65
 181	3	63	58	57	65
 182	6	50	58	57	65
 183	5	57	65	64	68
 184	5	57	65	64	69
 185	4	57	65	66	67
 186	6	58	57	65	64
 187	3	58	57	65	66
 188	3	58	57	65	70
 189	5	61	57	65	64
 190	1	61	57	65	66
 191	3	61	57	65	70
 192	5	62	57	65	64
 193	1	62	57	65	66
 194	3	62	57	65	70
 195	1	75	71	72	73
 196	3	75	71	72	77
 197	1	76	71	72	73
 198	3	76	71	72	77
 199	4	71	72	73	74
 200	2	77	72	73	74
 201	3	66	65	64	72
 202	3	70	65	64	72
 203	6	57	65	64	72
 204	5	64	72	71	75
 205	5	64	72	71	76
 206	4	64	72	73	74
 207	6	65	64	72	71
 208	3	65	64	72	73
 209	3	65	64	72	77
 210	5	68	64	72	71
 211	1	68	64	72	73
 212	3	68	64	72	77
 213	5	69	64	72	71
 214	1	69	64	72	73
 215	3	69	64	72	77
 216	1	82	78	79	80
 217	3	82	78	79	84
 218	1	83	78	79	80
 219	3	83	78	79	84
 220	4	78	79	80	81
 221	2	84	79	80	81
 222	3	73	72	71	79
 223	3	77	72	71	79
 224	6	64	72	71	79
 225	5	71	79	78	82
 226	5	71	79	78	83
 227	4	71	79	80	81
 228	6	72	71	79	78
 229	3	72	71	79	80
 230	3	72	71	79	84
 231	5	75	71	79	78
 232	1	75	71	79	80
 233	3	75	71	79	84
 234	5	76	71	79	78
 235	1	76	71	79	80
 236	3	76	71	79	84
 237	1	89	85	86	87
 238	3	89	85	86	91
 239	1	90	85	86	87
 240	3	90	85	86	91
 241	4	85	86	87	88
 242	2	91	86	87	88
 243	3	80	79	78	86
 244	3	84	79	78	86
 245	6	71	79	78	86
 246	5	78	86	85	89
 247	5	78	86	85	90
 248	4	78	86	87	88
 249	6	79	78	86	85
 250	3	79	78	86	87
 251	3	79	78	86	91
 252	5	82	78	86	85
 253	1	82	78	86	87
 254	3	82	78	86	91
 255	5	83	78	86	85
 256	1	83	78	86	87
 257	3	83	78	86	91
 258	1	96	92	93	94
 259	3	96	92	93	98
 260	1	97	92	93	94
 261	3	97	92	93	98
 262	4	92	93	94	95
 263	2	98	93	94	95
 264	3	87	86	85	93
 265	3	91	86	85	93
 266	6	78	86	85	93
 267	5	85	93	92	96
 268	5	85	93	92	97
 269	4	85	93	94	95
 270	6	86	85	93	92
 271	3	86	85	93	94
 272	3	86	85	93	98
 273	5	89	85	93	92
 274	1	89	85	93	94
 275	3	89	85	93	98
 276	5	90	85	93	92
 277	1	90	85	93	94
 278	3	90	85	93	98
 279	1	103	99	100	101
 280	3	103	99	100	105
 281	1	104	99	100	101
 282	3	104	99	100	105
 283	4	99	100	101	102
 284	2	105	100	101	102
 285	3	94	93	92	100
 286	3	98	93	92	100
 287	6	85	93	92	100
 288	5	92	100	99	103
 289	5	92	100	99	104
 290	4	92	100	101	102
 291	6	93	92	100	99
 292	3	93	92	100	101
 293	3	93	92	100	105
 294	5	96	92	100	99
 295	1	96	92	100	101
 296	3	96	92	100	105
 297	5	97	92	100	99
 298	1	97	92	100	101