pySIMM System Object

317 atoms
316 bonds
585 angles
936 dihedrals
0 impropers

5 atom types
5 bond types
8 angle types
6 dihedral types

-93.022343 93.022343 xlo xhi
-93.022343 93.022343 ylo yhi
-93.022343 93.022343 zlo zhi

Masses

   1	12.01	# c3
   2	1.008	# hc
   3	16.0	# oh
   4	1.008	# ho
   5	1.008	# h1

Pair Coeffs

   1	0.1094	3.3996695084235347	# c3
   2	0.0157	2.649532787749369	# hc
   3	0.2104	3.0664733878390478	# oh
   4	0.0047	0.5379246460131368	# ho
   5	0.0157	2.471353044121301	# h1

Bond Coeffs

   1	371.4	0.973	# ho,oh
   2	330.6	1.0969	# c3,hc
   3	300.9	1.5375	# c3,c3
   4	316.7	1.4233	# c3,oh
   5	330.6	1.0969	# c3,h1

Angle Coeffs

   1	67.47	110.19	# c3,c3,oh
   2	46.34	109.8	# c3,c3,hc
   3	50.93	110.26	# h1,c3,oh
   4	46.39	109.56	# c3,c3,h1
   5	39.4	107.58	# hc,c3,hc
   6	39.24	108.46	# h1,c3,h1
   7	47.38	107.26	# c3,oh,ho
   8	62.86	111.51	# c3,c3,c3

Dihedral Coeffs

   1	2	0.0	3	0	0.25	1	0	# hc,c3,c3,oh
   2	1	0.16666666666666666	3	0	# X,c3,oh,X
   3	1	0.15555555555555556	3	0	# X,c3,c3,X
   4	2	0.16	3	0	0.25	1	0	# ho,oh,c3,c3
   5	1	0.16	3	0	# hc,c3,c3,c3
   6	3	0.18	3	0	0.25	2	180	0.2	1	180	# c3,c3,c3,c3

Atoms

   1	1	1	-0.02562	4.71698	12.9479	12.4994
   2	1	1	0.401389	4.55542	14.4563	12.2201
   3	1	3	-0.707077	5.56738	15.2154	12.8794
   4	1	4	0.414767	5.35525	16.1549	12.7142
   5	1	2	-0.013868	3.92698	12.4103	11.959
   6	1	2	-0.001701	4.55749	12.7473	13.5672
   7	1	5	-0.06789	4.61688	14.6371	11.1416
   8	1	1	-0.02562	6.14722	10.8644	12.1018
   9	1	1	0.401389	6.09732	12.4093	12.0602
  10	1	3	-0.707077	7.11776	12.9519	12.8956
  11	1	4	0.414767	6.83272	13.8971	13.0266
  12	1	2	-0.013868	5.3788	10.4704	11.4235
  13	1	2	-0.001701	5.89035	10.5104	13.109
  14	1	5	-0.06789	6.27797	12.73	11.0278
  15	1	1	-0.02562	7.50587	8.80311	11.349
  16	1	1	0.401389	7.53031	10.3159	11.678
  17	1	3	-0.707077	8.48466	10.5796	12.7034
  18	1	4	0.414767	8.31007	11.5345	12.9309
  19	1	2	-0.013868	8.44661	8.52344	10.856
  20	1	2	-0.001701	6.71249	8.61758	10.6132
  21	1	5	-0.06789	7.83518	10.8452	10.7683
  22	1	1	-0.02562	6.99993	6.43644	12.1784
  23	1	1	0.401389	7.28323	7.90018	12.5853
  24	1	3	-0.707077	8.42499	7.95428	13.4373
  25	1	4	0.414767	8.68982	8.91718	13.4013
  26	1	2	-0.013868	7.83064	6.03993	11.5787
  27	1	2	-0.001701	6.11171	6.42143	11.5333
  28	1	5	-0.06789	6.41278	8.2687	13.1379
  29	1	1	-0.02562	6.22828	4.13339	12.982
  30	1	1	0.401389	6.74559	5.52732	13.4018
  31	1	3	-0.707077	7.94609	5.37784	14.1586
  32	1	4	0.414767	8.35906	6.28859	14.1048
  33	1	2	-0.013868	5.35623	4.26269	12.3273
  34	1	2	-0.001701	6.99212	3.613	12.3884
  35	1	5	-0.06789	5.98551	6.00268	14.0316
  36	1	1	-0.02562	5.23767	1.90804	13.7226
  37	1	1	0.401389	5.81397	3.26451	14.1914
  38	1	3	-0.707077	6.93507	3.06512	15.0606
  39	1	4	0.414767	7.50161	3.86863	14.8532
  40	1	2	-0.013868	6.00731	1.33657	13.1931
  41	1	2	-0.001701	4.44262	2.09791	12.9896
  42	1	5	-0.06789	5.03595	3.80143	14.7449
  43	1	1	-0.02562	4.13645	-0.311791	14.3702
  44	1	1	0.401389	4.63921	1.06377	14.8689
  45	1	3	-0.707077	5.59794	0.862882	15.9061
  46	1	4	0.414767	6.18457	1.66518	15.8064
  47	1	2	-0.013868	4.33841	-0.418664	13.2982
  48	1	2	-0.001701	4.7256	-1.10003	14.8465
  49	1	5	-0.06789	3.80913	1.63871	15.2928
  50	1	1	-0.02562	2.12375	-1.92044	14.9543
  51	1	1	0.401389	2.62103	-0.48361	14.6415
  52	1	3	-0.707077	1.92089	0.00349564	13.5024
  53	1	4	0.414767	2.21245	-0.568305	12.751
  54	1	2	-0.013868	1.06544	-1.84898	15.2381
  55	1	2	-0.001701	2.13889	-2.52015	14.0395
  56	1	5	-0.06789	2.34701	0.132334	15.5053
  57	1	1	-0.02562	3.25986	-1.7951	17.3002
  58	1	1	0.401389	2.86198	-2.68432	16.0881
  59	1	3	-0.707077	3.98251	-3.3774	15.5421
  60	1	4	0.414767	4.55333	-3.5592	16.3451
  61	1	2	-0.013868	2.34541	-1.38071	17.7443
  62	1	2	-0.001701	3.84587	-0.938	16.9662
  63	1	5	-0.06789	2.1752	-3.45042	16.4648
  64	1	1	-0.02562	4.45951	-1.62892	19.5875
  65	1	1	0.401389	4.05373	-2.5387	18.4022
  66	1	3	-0.707077	5.23025	-3.14534	17.8708
  67	1	4	0.414767	5.91905	-2.43479	17.9442
  68	1	2	-0.013868	5.05289	-2.22719	20.2924
  69	1	2	-0.001701	3.55182	-1.34028	20.1332
  70	1	5	-0.06789	3.41156	-3.33645	18.7915
  71	1	1	-0.02562	5.88951	0.26466	20.4893
  72	1	1	0.401389	5.24241	-0.336364	19.2147
  73	1	3	-0.707077	6.21768	-0.596539	18.1958
  74	1	4	0.414767	5.89946	-0.0521166	17.4124
  75	1	2	-0.013868	6.59479	-0.458326	20.9209
  76	1	2	-0.001701	5.10154	0.39301	21.2432
  77	1	5	-0.06789	4.52194	0.379665	18.8069
  78	1	1	-0.02562	7.98381	1.54858	19.6147
  79	1	1	0.401389	6.59997	1.63006	20.3182
  80	1	3	-0.707077	5.7217	2.56945	19.7063
  81	1	4	0.414767	6.32335	3.26022	19.3339
  82	1	2	-0.013868	8.71391	2.11494	20.2083
  83	1	2	-0.001701	8.34107	0.51184	19.6349
  84	1	5	-0.06789	6.80306	1.99164	21.3329
  85	1	1	-0.02562	9.2825	1.69366	17.3868
  86	1	1	0.401389	8.00371	2.08548	18.1641
  87	1	3	-0.707077	7.84354	3.50397	18.1667
  88	1	4	0.414767	7.73356	3.75019	17.2249
  89	1	2	-0.013868	9.57289	2.52941	16.7356
  90	1	2	-0.001701	10.1237	1.52704	18.0729
  91	1	5	-0.06789	7.14623	1.67984	17.6288
  92	1	1	-0.02562	10.2058	0.210047	15.5051
  93	1	1	0.401389	9.04819	0.445723	16.5039
  94	1	3	-0.707077	8.87201	-0.720842	17.3008
  95	1	4	0.414767	7.94763	-0.701721	17.6574
  96	1	2	-0.013868	11.0276	-0.311808	16.015
  97	1	2	-0.001701	10.6151	1.17148	15.1675
  98	1	5	-0.06789	8.13172	0.615539	15.938
  99	1	1	-0.02562	8.91204	0.272993	13.2962
 100	1	1	0.401389	9.74559	-0.597336	14.2675
 101	1	3	-0.707077	10.8877	-1.09998	13.5842
 102	1	4	0.414767	11.3392	-1.68456	14.2208
 103	1	2	-0.013868	9.51474	1.13543	12.9797
 104	1	2	-0.001701	8.0498	0.684833	13.8277
 105	1	5	-0.06789	9.14525	-1.44949	14.6021
 106	1	1	-0.02562	7.44429	-1.64688	12.3686
 107	1	1	0.401389	8.40114	-0.470302	12.0406
 108	1	3	-0.707077	7.75789	0.491433	11.1966
 109	1	4	0.414767	8.47593	1.09563	10.9221
 110	1	2	-0.013868	6.73962	-1.34412	13.1535
 111	1	2	-0.001701	8.03463	-2.47459	12.7818
 112	1	5	-0.06789	9.25512	-0.867639	11.4823
 113	1	1	-0.02562	6.02844	-3.542	11.2909
 114	1	1	0.401389	6.67218	-2.14913	11.1212
 115	1	3	-0.707077	5.66575	-1.19875	10.7695
 116	1	4	0.414767	6.20649	-0.362154	10.7223
 117	1	2	-0.013868	6.82172	-4.27748	11.4825
 118	1	2	-0.001701	5.57906	-3.84064	10.335
 119	1	5	-0.06789	7.38376	-2.22062	10.2909
 120	1	1	-0.02562	3.5632	-4.01567	11.9398
 121	1	1	0.401389	4.96907	-3.5851	12.42
 122	1	3	-0.707077	5.39849	-4.46284	13.4486
 123	1	4	0.414767	4.8674	-4.18337	14.2424
 124	1	2	-0.013868	3.63389	-4.9916	11.441
 125	1	2	-0.001701	2.92465	-4.17841	12.8159
 126	1	5	-0.06789	4.88073	-2.59635	12.8745
 127	1	1	-0.02562	1.36146	-3.32386	10.8633
 128	1	1	0.401389	2.87285	-3.01392	10.9768
 129	1	3	-0.707077	3.04538	-1.65575	11.3953
 130	1	4	0.414767	3.99863	-1.43802	11.1564
 131	1	2	-0.013868	0.873243	-3.14141	11.8306
 132	1	2	-0.001701	1.23631	-4.3936	10.6501
 133	1	5	-0.06789	3.32405	-3.12246	9.98493
 134	1	1	-0.02562	-0.856249	-2.88555	9.68998
 135	1	1	0.401389	0.644345	-2.51621	9.7557
 136	1	3	-0.707077	0.780911	-1.115	9.98244
 137	1	4	0.414767	1.64543	-1.02702	10.4646
 138	1	2	-0.013868	-0.945256	-3.97177	9.55498
 139	1	2	-0.001701	-1.33554	-2.65185	10.6504
 140	1	5	-0.06789	1.11017	-2.76414	8.79552
 141	1	1	-0.02562	-3.09322	-2.65019	8.49872
 142	1	1	0.401389	-1.61884	-2.18047	8.54373
 143	1	3	-0.707077	-1.57923	-0.765951	8.71543
 144	1	4	0.414767	-0.69513	-0.602507	9.15414
 145	1	2	-0.013868	-3.57463	-2.42154	9.4591
 146	1	2	-0.001701	-3.11867	-3.74354	8.40277
 147	1	5	-0.06789	-1.13124	-2.43966	7.59769
 148	1	1	-0.02562	-3.51131	-2.49999	5.94926
 149	1	1	0.401389	-3.94184	-2.03618	7.35897
 150	1	3	-0.707077	-3.94549	-0.611792	7.42717
 151	1	4	0.414767	-3.1078	-0.392348	7.92993
 152	1	2	-0.013868	-3.44182	-3.59576	5.94071
 153	1	2	-0.001701	-2.51312	-2.11526	5.7012
 154	1	5	-0.06789	-4.97048	-2.38339	7.5085
 155	1	1	-0.02562	-4.32406	-2.75816	3.5285
 156	1	1	0.401389	-4.53636	-2.04806	4.88486
 157	1	3	-0.707077	-4.47346	-0.632677	4.72023
 158	1	4	0.414767	-4.40126	-0.294069	5.65542
 159	1	2	-0.013868	-4.4403	-3.84024	3.67441
 160	1	2	-0.001701	-3.29722	-2.59404	3.17485
 161	1	5	-0.06789	-5.53788	-2.31243	5.24252
 162	1	1	-0.02562	-5.46222	-3.2157	1.24719
 163	1	1	0.401389	-5.34168	-2.27291	2.46976
 164	1	3	-0.707077	-4.98641	-0.960375	2.04429
 165	1	4	0.414767	-4.84487	-0.479013	2.90614
 166	1	2	-0.013868	-6.25652	-2.84677	0.584251
 167	1	2	-0.001701	-5.7927	-4.20215	1.59747
 168	1	5	-0.06789	-6.32838	-2.2297	2.94421
 169	1	1	-0.02562	-4.31948	-4.38837	-0.717702
 170	1	1	0.401389	-4.15223	-3.37753	0.442117
 171	1	3	-0.707077	-3.73732	-2.1126	-0.0702996
 172	1	4	0.414767	-4.08923	-1.45311	0.593844
 173	1	2	-0.013868	-5.11251	-4.04558	-1.39487
 174	1	2	-0.001701	-4.65554	-5.34815	-0.303847
 175	1	5	-0.06789	-3.37579	-3.7573	1.11512
 176	1	1	-0.02562	-3.09583	-5.73792	-2.55371
 177	1	1	0.401389	-2.99977	-4.61634	-1.49429
 178	1	3	-0.707077	-2.57349	-3.40722	-2.11387
 179	1	4	0.414767	-2.84198	-2.70489	-1.45266
 180	1	2	-0.013868	-2.08982	-5.95615	-2.93483
 181	1	2	-0.001701	-3.41948	-6.6601	-2.05207
 182	1	5	-0.06789	-2.23857	-4.91513	-0.764615
 183	1	1	-0.02562	-3.35449	-5.25957	-5.10268
 184	1	1	0.401389	-4.05662	-5.40477	-3.72907
 185	1	3	-0.707077	-5.05487	-6.41893	-3.82046
 186	1	4	0.414767	-5.70153	-6.10327	-4.47488
 187	1	2	-0.013868	-4.11141	-5.38156	-5.88969
 188	1	2	-0.001701	-2.63004	-6.07204	-5.2457
 189	1	5	-0.06789	-4.58695	-4.46879	-3.52654
 190	1	1	-0.02562	-2.36941	-3.56304	-6.77443
 191	1	1	0.401389	-2.67433	-3.87835	-5.29185
 192	1	3	-0.707077	-1.47389	-3.7847	-4.52814
 193	1	4	0.414767	-1.77929	-3.57035	-3.59789
 194	1	2	-0.013868	-3.28103	-3.72301	-7.36606
 195	1	2	-0.001701	-2.12829	-2.49617	-6.86006
 196	1	5	-0.06789	-3.37374	-3.11217	-4.93949
 197	1	1	-0.02562	-1.17587	-4.46108	-8.90217
 198	1	1	0.401389	-1.21381	-4.41061	-7.35898
 199	1	3	-0.707077	0.0356531	-3.98054	-6.83686
 200	1	4	0.414767	-0.16999	-3.83684	-5.8772
 201	1	2	-0.013868	-2.12547	-4.88576	-9.24894
 202	1	2	-0.001701	-0.405882	-5.1892	-9.18959
 203	1	5	-0.06789	-1.36927	-5.44444	-7.03175
 204	1	1	-0.02562	-0.688883	-3.35392	-11.1511
 205	1	1	0.401389	-0.880246	-3.12031	-9.63151
 206	1	3	-0.707077	-1.92826	-2.17118	-9.43814
 207	1	4	0.414767	-2.26625	-1.96591	-10.3476
 208	1	2	-0.013868	-0.214343	-2.47506	-11.6085
 209	1	2	-0.001701	0.00963196	-4.18746	-11.2993
 210	1	5	-0.06789	0.0542874	-2.70475	-9.23978
 211	1	1	-0.02562	-1.8982	-4.45632	-13.1661
 212	1	1	0.401389	-2.03392	-3.65265	-11.8531
 213	1	3	-0.707077	-2.71415	-2.42562	-12.1017
 214	1	4	0.414767	-3.47292	-2.71116	-12.6759
 215	1	2	-0.013868	-1.13737	-5.23964	-13.0521
 216	1	2	-0.001701	-1.54609	-3.79699	-13.9704
 217	1	5	-0.06789	-2.65314	-4.24112	-11.1758
 218	1	1	-0.02562	-3.57454	-6.37488	-12.7206
 219	1	1	0.401389	-3.23752	-5.11926	-13.5763
 220	1	3	-0.707077	-4.29519	-4.15671	-13.5247
 221	1	4	0.414767	-5.05658	-4.64828	-13.1058
 222	1	2	-0.013868	-2.84701	-7.16122	-12.9524
 223	1	2	-0.001701	-3.43105	-6.15891	-11.6553
 224	1	5	-0.06789	-3.12849	-5.44925	-14.6148
 225	1	1	-0.02562	-5.44373	-7.19781	-14.3638
 226	1	1	0.401389	-5.01582	-6.9244	-12.9018
 227	1	3	-0.707077	-5.92655	-5.97662	-12.3391
 228	1	4	0.414767	-6.75692	-6.46826	-12.1847
 229	1	2	-0.013868	-6.53408	-7.07614	-14.4163
 230	1	2	-0.001701	-5.02792	-6.4372	-15.0335
 231	1	5	-0.06789	-5.11936	-7.84838	-12.3221
 232	1	1	-0.02562	-5.22887	-8.70538	-16.4552
 233	1	1	0.401389	-5.1118	-8.61104	-14.9093
 234	1	3	-0.707077	-3.79814	-9.0035	-14.5288
 235	1	4	0.414767	-3.72427	-9.94576	-14.7662
 236	1	2	-0.013868	-4.34945	-8.22667	-16.9067
 237	1	2	-0.001701	-5.20687	-9.75911	-16.7633
 238	1	5	-0.06789	-5.81334	-9.31917	-14.4547
 239	1	1	-0.02562	-6.53132	-7.89817	-18.5513
 240	1	1	0.401389	-6.50099	-8.02407	-17.0084
 241	1	3	-0.707077	-7.65741	-8.70493	-16.5442
 242	1	4	0.414767	-8.38189	-8.33247	-17.1128
 243	1	2	-0.013868	-5.54252	-7.59114	-18.9163
 244	1	2	-0.001701	-6.73355	-8.8807	-18.9983
 245	1	5	-0.06789	-6.51915	-7.01038	-16.6139
 246	1	1	-0.02562	-7.25598	-5.41376	-18.5976
 247	1	1	0.401389	-7.5856	-6.86718	-19.0414
 248	1	3	-0.707077	-8.8699	-7.24763	-18.5485
 249	1	4	0.414767	-9.41373	-6.42071	-18.6554
 250	1	2	-0.013868	-6.22308	-5.17161	-18.8723
 251	1	2	-0.001701	-7.28652	-5.34367	-17.5052
 252	1	5	-0.06789	-7.60821	-6.89587	-20.136
 253	1	1	-0.02562	-8.16258	-3.99293	-20.6347
 254	1	1	0.401389	-8.2154	-4.31561	-19.1216
 255	1	3	-0.707077	-9.56326	-4.63977	-18.7759
 256	1	4	0.414767	-10.0907	-3.83364	-18.9284
 257	1	2	-0.013868	-8.47876	-4.87479	-21.2081
 258	1	2	-0.001701	-8.91865	-3.22458	-20.8417
 259	1	5	-0.06789	-7.9659	-3.401	-18.5782
 260	1	1	-0.02562	-6.06487	-2.38917	-20.376
 261	1	1	0.401389	-6.80533	-3.48686	-21.1921
 262	1	3	-0.707077	-5.93946	-4.59747	-21.3865
 263	1	4	0.414767	-5.6229	-4.53186	-22.3065
 264	1	2	-0.013868	-5.65366	-2.8297	-19.4586
 265	1	2	-0.001701	-5.19883	-2.06091	-20.9637
 266	1	5	-0.06789	-7.00783	-3.078	-22.1884
 267	1	1	-0.02562	-6.07594	0.00793822	-19.3874
 268	1	1	0.401389	-6.92034	-1.15286	-19.9885
 269	1	3	-0.707077	-7.70199	-0.715317	-21.0937
 270	1	4	0.414767	-8.50875	-0.315111	-20.7139
 271	1	2	-0.013868	-5.22288	-0.421392	-18.8453
 272	1	2	-0.001701	-6.67337	0.509718	-18.6153
 273	1	5	-0.06789	-7.61962	-1.46771	-19.2092
 274	1	1	-0.02562	-6.56812	2.19836	-20.698
 275	1	1	0.401389	-5.53878	1.08297	-20.3766
 276	1	3	-0.707077	-5.0796	0.487135	-21.5866
 277	1	4	0.414767	-5.85426	-0.0163771	-21.9296
 278	1	2	-0.013868	-7.38629	1.80411	-21.3129
 279	1	2	-0.001701	-7.02428	2.53857	-19.7607
 280	1	5	-0.06789	-4.68878	1.57125	-19.8871
 281	1	1	-0.02562	-6.96291	4.54249	-21.6733
 282	1	1	0.401389	-5.93204	3.41441	-21.4183
 283	1	3	-0.707077	-5.38003	3.01494	-22.6652
 284	1	4	0.414767	-4.91663	2.15923	-22.4862
 285	1	2	-0.013868	-6.61938	5.17384	-22.5029
 286	1	2	-0.001701	-7.90919	4.09431	-22.0042
 287	1	5	-0.06789	-5.12107	3.80478	-20.7935
 288	1	1	-0.02562	-6.14242	6.53563	-20.2572
 289	1	1	0.401389	-7.20332	5.41923	-20.4195
 290	1	3	-0.707077	-8.51602	5.98394	-20.4558
 291	1	4	0.414767	-9.14124	5.23574	-20.4489
 292	1	2	-0.013868	-6.14356	6.8843	-19.2158
 293	1	2	-0.001701	-5.14556	6.11189	-20.4328
 294	1	5	-0.06789	-7.15356	4.77122	-19.5382
 295	1	1	-0.02562	-5.1033	8.56003	-21.4767
 296	1	1	0.401389	-6.38051	7.73499	-21.211
 297	1	3	-0.707077	-7.4104	8.56601	-20.6809
 298	1	4	0.414767	-8.15742	7.92814	-20.5554
 299	1	2	-0.013868	-4.32534	7.88504	-21.8574
 300	1	2	-0.001701	-5.29991	9.28086	-22.2817
 301	1	5	-0.06789	-6.71611	7.35136	-22.1795
 302	1	1	-0.02562	-3.12856	9.80215	-20.467
 303	1	1	0.401389	-4.57509	9.30868	-20.234
 304	1	3	-0.707077	-5.44796	10.3871	-19.9118
 305	1	4	0.414767	-6.35226	10.0055	-20.0654
 306	1	2	-0.013868	-2.46058	8.93038	-20.4459
 307	1	2	-0.001701	-3.0427	10.2307	-21.4743
 308	1	5	-0.06789	-4.56237	8.61597	-19.3858
 309	1	1	-0.02562	-1.10751	11.0206	-19.5059
 310	1	1	0.401389	-2.64077	10.8524	-19.4441
 311	1	3	-0.707077	-3.04257	10.5035	-18.1255
 312	1	4	0.414767	-4.01581	10.622	-18.1535
 313	1	2	-0.013868	-0.782731	11.8689	-18.8905
 314	1	2	-0.001701	-0.780413	11.2078	-20.5367
 315	1	5	-0.06789	-3.09836	11.8156	-19.6966
 316	1	5	0	3.56454	14.782	12.5602
 317	1	2	0	-0.596634	10.1178	-19.1468

Velocities

   1	-7.53759e-05	9.54324e-05	0.000187376
   2	0.000182048	0.000109701	0.000164465
   3	2.24045e-05	-0.000107277	0.000593771
   4	0.000799259	-0.000139543	-0.000382027
   5	5.00968e-05	0.000370144	-0.000111219
   6	-0.000528795	0.000110408	0.000139174
   7	0.000492019	0.000239738	0.000290153
   8	-4.75618e-05	-0.00036839	-0.000117494
   9	7.1656e-05	-0.000226105	0.00052671
  10	-9.65245e-05	-0.000396382	0.000683522
  11	-0.000125617	-0.000391154	0.000831627
  12	-1.19795e-05	-1.1001e-05	-0.00040847
  13	-0.000260195	-0.000574785	-0.000270144
  14	2.0006e-05	0.000143795	0.000511646
  15	6.79542e-05	-0.000477295	-8.0915e-05
  16	-2.17839e-05	-0.000371239	-0.000184538
  17	8.94808e-05	-0.00031359	-0.000381537
  18	0.000330676	-0.000189073	-0.0003416
  19	0.000192437	-0.000543024	0.000451826
  20	0.000303355	-0.00055878	-0.000346218
  21	-0.000187388	-0.000496208	-0.000282297
  22	6.53003e-05	-0.000486871	-4.94306e-06
  23	-0.000498354	-0.000361632	-5.41681e-05
  24	-0.000880339	-5.8179e-05	0.000403806
  25	-0.000537831	-0.000203221	9.08523e-05
  26	0.000594012	-0.000520085	0.000558276
  27	0.00051446	-0.000784865	-0.000676727
  28	-0.000729314	-0.000541064	-0.000607626
  29	0.000151061	-0.000474942	-8.87959e-05
  30	-0.000602184	-0.000136996	-5.12741e-05
  31	-0.00120147	0.000380963	0.00104435
  32	-0.00136068	0.000403468	0.00104677
  33	0.000539329	-0.000845118	-0.000655182
  34	0.000700962	-0.000235705	0.000537839
  35	-0.00128025	-0.000290573	-0.000762175
  36	7.99264e-05	-0.000299609	-3.5535e-05
  37	-0.000106306	-0.000110643	-8.23501e-05
  38	-0.000532592	4.4915e-05	0.000377632
  39	-0.000898608	0.000483551	0.000856843
  40	0.000251586	-0.000306485	0.000296615
  41	0.000249824	-0.000467889	-0.000281828
  42	-0.000503294	-0.000140257	-0.000499493
  43	-0.000296674	7.31909e-05	1.1954e-05
  44	-9.82945e-05	-1.0891e-05	-2.36456e-05
  45	9.07665e-06	-0.000172332	-2.61001e-05
  46	-0.00010974	-7.72882e-05	3.73072e-05
  47	-0.000423513	0.000192656	-6.18345e-05
  48	-0.000270185	3.16192e-05	-0.000195511
  49	5.32461e-05	0.000167409	3.75248e-05
  50	-6.75178e-06	0.000194074	0.000125971
  51	-0.000253578	9.82313e-05	0.000142773
  52	-0.000356181	-3.71015e-05	0.000161239
  53	-0.000696961	-0.000350731	0.000261941
  54	-2.14164e-05	-8.01486e-05	0.000135644
  55	0.000115288	0.000140598	0.000152598
  56	-0.000219265	0.000222498	0.000129072
  57	0.00023875	0.000165333	5.38879e-05
  58	3.46415e-05	9.36274e-05	0.000116093
  59	-5.10313e-05	-8.21292e-05	7.46945e-05
  60	-0.000187295	-0.000457595	0.00011481
  61	0.000299975	0.000210374	9.43695e-05
  62	0.00026375	9.40143e-05	-1.14283e-05
  63	2.3972e-05	0.000230141	0.000259152
  64	0.000191618	0.000344458	-1.47225e-05
  65	0.000230692	0.000167243	8.95008e-05
  66	0.000146452	-8.00844e-06	0.000110994
  67	0.000202801	-4.3334e-05	-0.000141409
  68	-3.88967e-05	0.000421638	0.000220256
  69	0.000112319	0.000584098	-0.000282345
  70	0.000175732	0.000253887	0.000182083
  71	0.000284547	0.000316773	-0.000168041
  72	0.000343686	0.000209972	-0.000158724
  73	0.000325815	-9.44689e-07	-0.000117667
  74	0.000338759	-5.06574e-05	-0.000155952
  75	0.000264916	0.000366286	-5.93721e-05
  76	0.000247092	0.000405282	-0.000233465
  77	0.000427945	0.00020576	-0.000282915
  78	0.000237992	0.000209138	-0.000314508
  79	0.000278718	0.000297692	-0.000253746
  80	0.000252538	0.000269054	-0.000265601
  81	0.000224283	0.00033175	-0.00019033
  82	0.000317075	0.000154777	-0.000356658
  83	0.000175381	0.000187277	-0.000329323
  84	0.000332545	0.000371239	-0.000283717
  85	-2.65768e-05	0.000165487	-0.000499754
  86	0.000113761	0.000226394	-0.000297785
  87	0.000311731	0.000248741	-0.000172335
  88	0.000207345	0.000307361	-0.000140464
  89	-0.000400159	2.36828e-06	-0.000882713
  90	0.000184634	0.000572992	-0.000676449
  91	-2.68604e-06	0.000348725	-0.000217198
  92	1.93989e-05	-0.000309788	-3.1759e-05
  93	3.82396e-05	-0.000148162	-5.83638e-05
  94	0.000230584	2.58128e-05	0.000229041
  95	4.93016e-05	-0.000267722	-0.000196746
  96	-3.00025e-05	-0.000397903	-4.30368e-05
  97	0.000132852	-0.00038238	-9.54955e-05
  98	-2.48897e-05	-0.000450576	-4.14737e-05
  99	0.000295011	8.28551e-05	-5.43408e-05
 100	-0.0002595	-0.000276768	7.69268e-05
 101	-0.000519908	-0.00110261	0.000253428
 102	-0.00115226	-0.0015703	0.000271858
 103	0.00079021	-0.000302963	-0.000169582
 104	0.000539656	0.000671602	-0.000103586
 105	-0.000788959	0.000137844	0.00019394
 106	-6.87521e-05	0.00024317	0.000112467
 107	-0.000103937	0.000239392	4.51718e-05
 108	-0.000278324	0.000349037	0.000306326
 109	-0.000254811	0.000100842	-0.000192502
 110	-6.99224e-06	0.000192829	0.00019839
 111	-6.17687e-05	0.000185609	-1.46897e-05
 112	-0.000265147	0.00023751	-0.000204311
 113	2.01461e-05	0.000339088	-0.00015147
 114	-0.000133105	0.000419155	8.92561e-05
 115	-0.000262506	0.000412225	0.000455198
 116	-0.00035444	0.000492875	0.00075951
 117	7.1717e-05	0.000348036	-0.000309842
 118	-9.37269e-06	0.000474084	-0.000183579
 119	-0.00021243	0.000676963	1.2597e-06
 120	7.60558e-05	0.000166346	-5.55315e-05
 121	7.86668e-05	0.000186659	-9.8254e-05
 122	0.000189506	0.000183944	-0.00014817
 123	0.000177352	8.7933e-05	-0.000126389
 124	3.75086e-05	0.000133797	6.75094e-06
 125	0.000107995	0.000263108	-3.71487e-06
 126	3.76826e-05	0.000160737	-6.4257e-05
 127	0.00011246	-0.000148957	-0.000297365
 128	3.49124e-05	0.000146476	-4.50765e-05
 129	-0.000306015	9.60909e-05	0.000198263
 130	-0.000293934	0.000309285	0.000429488
 131	-3.06091e-05	-0.000422877	-0.000311986
 132	0.000357132	-0.000132675	-0.000514068
 133	0.000204037	0.000436075	-5.48931e-06
 134	2.66037e-05	-0.000125148	-8.78584e-05
 135	3.67961e-05	-0.000125902	-0.000232271
 136	5.3107e-05	-0.000115198	-0.000266001
 137	6.43234e-06	-9.92243e-05	-0.000177356
 138	9.75125e-06	-0.000117206	-0.000130042
 139	0.00010847	-0.000157114	-3.4105e-05
 140	-5.72644e-05	-0.000127444	-0.000278708
 141	-0.000107632	2.42586e-05	0.000232762
 142	-7.21071e-05	-7.932e-05	2.49496e-05
 143	4.02256e-05	-8.04338e-05	-3.09833e-05
 144	5.38924e-05	-0.00012846	-2.93581e-05
 145	-1.56309e-05	0.000153667	0.000244188
 146	-0.00020227	2.52981e-05	0.000331822
 147	-0.00020256	-0.000133176	-2.6537e-05
 148	-0.000194237	-0.000499079	0.000333536
 149	-7.27065e-05	-1.82795e-05	0.000204938
 150	0.000242075	2.01848e-06	-0.000144285
 151	0.000375318	-3.06411e-05	-0.000329155
 152	-0.000869997	-0.000544736	0.000579917
 153	6.86024e-05	-0.00115641	0.00036248
 154	-0.000143909	0.000242839	0.000321461
 155	-0.000129194	-0.000409042	0.000303638
 156	0.000154945	-0.000110775	0.000163586
 157	0.00082973	-0.000163882	-2.00292e-05
 158	0.000736103	-6.98631e-05	-4.10979e-05
 159	-0.00042957	-0.000354158	0.000527834
 160	-0.000117207	-0.000784356	0.000154093
 161	2.98096e-06	0.000428185	0.000129283
 162	-0.000111503	-0.000139986	0.000309905
 163	-0.000214167	-0.000330846	0.000419692
 164	-0.000547273	-0.000193215	0.00054981
 165	-0.0004106	-0.00025922	0.000550604
 166	-0.000218896	-0.000173322	0.000420386
 167	9.53964e-05	-0.000262554	0.000144211
 168	-0.000185232	-0.000577948	0.000514149
 169	-3.38564e-05	0.000666391	-3.76893e-05
 170	-0.000129746	0.000299242	0.000243648
 171	-0.000268503	0.00043472	0.000575007
 172	-0.00051304	0.000222929	0.000653506
 173	2.19472e-05	0.000853987	4.01068e-05
 174	-2.51108e-05	0.000554987	-0.00030241
 175	-8.57495e-05	0.000137014	0.000125987
 176	0.000480211	0.000908272	0.000298779
 177	9.85276e-05	0.000999967	0.000127179
 178	-0.000118707	0.00109792	0.000116514
 179	-0.000190637	0.00100971	9.35928e-05
 180	0.000517617	0.0012551	0.000221094
 181	0.000881086	0.000818288	0.000410193
 182	9.86118e-05	0.00123828	0.000259034
 183	0.000258377	0.00109695	0.000414047
 184	0.000268333	0.00045096	0.000354829
 185	0.00115444	-0.000454728	0.000161103
 186	0.000695021	-0.000912765	0.000368443
 187	0.000104446	0.0019791	0.000500736
 188	-0.000190282	0.00076632	-6.78001e-05
 189	-0.000503617	-7.38398e-06	0.000444417
 190	0.000864366	0.000865296	0.000777061
 191	0.00106667	0.000819386	0.000911147
 192	0.00133873	-0.000113989	0.00054741
 193	0.00159133	0.000139837	0.000590181
 194	0.000509398	0.00160429	0.00115829
 195	0.00164478	0.00069711	0.0008218
 196	0.00164347	0.00116472	0.00133468
 197	-0.000537217	-0.000347277	0.00035399
 198	-9.61448e-05	-0.000108365	0.000332732
 199	0.000401875	-0.000820451	-9.35094e-05
 200	0.000755515	-0.000263923	-0.000167035
 201	-0.000916448	6.29711e-06	0.000585845
 202	-0.000987933	-0.000844541	0.000211981
 203	-0.000616419	9.04307e-05	0.00052618
 204	1.34901e-05	-0.000570274	9.78415e-05
 205	1.62152e-05	-0.00055173	0.000157547
 206	0.000388723	-0.000183694	0.000152197
 207	0.000352633	-0.000243455	0.000171667
 208	-1.35816e-05	-0.000545853	0.000247338
 209	5.7617e-05	-0.000497709	0.000104918
 210	0.000165017	-0.00103629	0.000217679
 211	9.36412e-05	-0.000241035	-0.000143223
 212	5.64317e-05	-0.000540109	0.000132778
 213	-0.000174719	-0.000609576	0.000495119
 214	-0.000447358	-0.000634618	0.000899748
 215	4.26518e-05	-0.000270548	-0.000191965
 216	0.0002256	-0.00013323	5.51087e-05
 217	0.000204482	-0.000818011	-2.19378e-05
 218	0.000347126	-0.000474784	-0.000694231
 219	5.63271e-05	-0.000134874	-0.000290895
 220	-7.25083e-05	-0.000313523	0.000251092
 221	8.79639e-05	-0.000592152	0.000143787
 222	0.00040267	-0.000332725	-0.00112693
 223	0.000575982	-0.000846053	-0.000696326
 224	-6.86178e-05	0.000255439	-0.000452947
 225	-0.000214061	4.27804e-05	-0.000505022
 226	0.00031645	-0.000538106	-0.000531868
 227	0.000433795	-0.000890199	0.00023945
 228	0.00074578	-0.0012054	0.000861582
 229	-0.000259612	-0.00019142	-8.13383e-05
 230	-0.000618397	0.000389359	-0.000364989
 231	0.000679823	-0.000812072	-0.000914559
 232	0.000134654	0.000794227	-0.00106429
 233	-3.12499e-05	0.000272901	-0.00103025
 234	-6.44651e-05	0.000263085	-0.00112796
 235	7.75064e-05	0.000417527	-0.00170868
 236	-0.000276067	0.00197355	-0.000762845
 237	0.00135421	0.000984729	-0.0014916
 238	-1.87385e-05	4.05854e-05	-0.00139822
 239	4.86105e-05	0.000963633	-0.000787041
 240	-0.000583775	-0.000452044	-0.000930807
 241	0.000189369	-0.00262603	-0.00234319
 242	-0.000190733	-0.00216192	-0.00163971
 243	0.000188537	0.00112072	-0.00030637
 244	2.87743e-05	0.00134908	-0.00162884
 245	-0.00238195	-0.000866424	0.000172553
 246	-0.000500676	0.00108196	0.000875739
 247	0.00010837	0.0012561	-0.000108592
 248	0.000141977	0.0010384	-0.0002326
 249	0.000502707	0.0014405	0.000821265
 250	-0.000374374	0.00155367	0.00166506
 251	-0.00123108	0.00067396	0.000880699
 252	0.000198318	0.00196318	-9.28245e-05
 253	-0.000211576	-0.000316933	4.40034e-05
 254	-0.000631673	0.000679824	0.000257977
 255	-0.000653746	0.000634222	0.000377832
 256	-0.000628866	0.000778974	0.00126799
 257	-0.000156353	-0.000560025	0.000383709
 258	5.46759e-05	-0.000250306	-0.000714414
 259	-0.000994026	0.00105693	-0.000231676
 260	-0.000232049	-0.0011621	0.0013927
 261	0.00024695	-0.000852889	0.000644682
 262	-3.20674e-05	-0.00113466	0.00105175
 263	0.00511933	0.00224175	0.00303719
 264	-0.00256834	-0.000773612	0.00262854
 265	0.00128919	-0.00223856	0.00303253
 266	0.000971936	-0.00085568	0.000588279
 267	-0.000787245	-0.000539834	-0.000277506
 268	-0.000292579	-0.000254174	-0.00168012
 269	0.00351607	-0.000567061	-0.00458794
 270	0.00242907	0.000201678	-0.00767347
 271	-0.00107126	-0.000766799	5.56755e-05
 272	-0.00134195	-0.00101699	-0.000331325
 273	-0.00296069	0.000887313	-0.0036342
 274	-0.00030626	0.000172771	0.00100857
 275	-0.000373134	-0.000349656	0.000140464
 276	-0.00211507	-0.000414011	-0.000375621
 277	-0.00367699	0.000985977	0.000517145
 278	-0.00109064	0.000197229	0.00206376
 279	0.000748973	0.000412003	0.00137912
 280	0.000342004	-0.00107454	-0.000286652
 281	-0.00123833	-0.000378798	0.000531285
 282	-0.00087041	-0.000348051	-0.000142048
 283	-0.00251958	-0.000866065	-0.00071224
 284	-0.00218765	-0.000801474	-0.000890985
 285	-0.00201322	-0.000496277	-8.32902e-06
 286	-0.00140135	-0.000456797	0.00152258
 287	-4.06604e-06	-0.000188167	-0.00137356
 288	0.000214688	-0.00039708	-0.00015437
 289	-0.000330931	0.000166356	0.000396669
 290	-0.000214741	0.000567457	0.00056192
 291	-0.000446551	0.000771843	-0.000147874
 292	0.000901739	-0.000149717	-0.000242217
 293	-0.000122427	-0.00084359	-0.000544696
 294	-0.000455639	0.000269673	0.00057911
 295	0.000981976	-0.00054901	-0.000221139
 296	0.000573576	-0.000383135	-0.000454563
 297	0.000709604	8.1208e-05	-0.00102598
 298	0.000341893	0.000337074	-0.0010978
 299	0.000730699	-0.000884818	-7.79033e-05
 300	0.00119548	-0.000613982	-0.000266627
 301	0.000848048	-0.000512827	-0.000403058
 302	0.000691352	0.000622404	-0.000497986
 303	0.00108402	-0.000826224	-0.000387619
 304	0.000486132	-0.00148784	0.000500876
 305	0.000806375	-0.00165834	-0.00111958
 306	0.00132061	0.00119988	-0.00145023
 307	1.17553e-05	0.00141664	-0.000178318
 308	0.00205732	-0.00117297	-0.000777995
 309	5.01609e-05	0.000907432	0.00107699
 310	-5.62204e-05	0.000495827	0.000153788
 311	-0.000157599	-0.00012015	-5.16525e-05
 312	-5.23585e-05	-0.000237718	-2.55754e-05
 313	-0.000743368	-0.000574982	0.00344562
 314	-0.000144177	0.00403099	0.00165308
 315	-0.000642868	0.000345921	0.000450339
 316	0.000206847	8.16107e-05	6.2302e-05
 317	0.000200547	0.000118677	-0.0012059

Bonds

   1	3	1	2
   2	2	1	5
   3	2	1	6
   4	4	2	3
   5	5	2	7
   6	1	3	4
   7	3	8	9
   8	2	8	12
   9	2	8	13
  10	4	9	10
  11	5	9	14
  12	1	10	11
  13	3	1	9
  14	3	15	16
  15	2	15	19
  16	2	15	20
  17	4	16	17
  18	5	16	21
  19	1	17	18
  20	3	8	16
  21	3	22	23
  22	2	22	26
  23	2	22	27
  24	4	23	24
  25	5	23	28
  26	1	24	25
  27	3	15	23
  28	3	29	30
  29	2	29	33
  30	2	29	34
  31	4	30	31
  32	5	30	35
  33	1	31	32
  34	3	22	30
  35	3	36	37
  36	2	36	40
  37	2	36	41
  38	4	37	38
  39	5	37	42
  40	1	38	39
  41	3	29	37
  42	3	43	44
  43	2	43	47
  44	2	43	48
  45	4	44	45
  46	5	44	49
  47	1	45	46
  48	3	36	44
  49	3	50	51
  50	2	50	54
  51	2	50	55
  52	4	51	52
  53	5	51	56
  54	1	52	53
  55	3	43	51
  56	3	57	58
  57	2	57	61
  58	2	57	62
  59	4	58	59
  60	5	58	63
  61	1	59	60
  62	3	50	58
  63	3	64	65
  64	2	64	68
  65	2	64	69
  66	4	65	66
  67	5	65	70
  68	1	66	67
  69	3	57	65
  70	3	71	72
  71	2	71	75
  72	2	71	76
  73	4	72	73
  74	5	72	77
  75	1	73	74
  76	3	64	72
  77	3	78	79
  78	2	78	82
  79	2	78	83
  80	4	79	80
  81	5	79	84
  82	1	80	81
  83	3	71	79
  84	3	85	86
  85	2	85	89
  86	2	85	90
  87	4	86	87
  88	5	86	91
  89	1	87	88
  90	3	78	86
  91	3	92	93
  92	2	92	96
  93	2	92	97
  94	4	93	94
  95	5	93	98
  96	1	94	95
  97	3	85	93
  98	3	99	100
  99	2	99	103
 100	2	99	104
 101	4	100	101
 102	5	100	105
 103	1	101	102
 104	3	92	100
 105	3	106	107
 106	2	106	110
 107	2	106	111
 108	4	107	108
 109	5	107	112
 110	1	108	109
 111	3	99	107
 112	3	113	114
 113	2	113	117
 114	2	113	118
 115	4	114	115
 116	5	114	119
 117	1	115	116
 118	3	106	114
 119	3	120	121
 120	2	120	124
 121	2	120	125
 122	4	121	122
 123	5	121	126