pySIMM System Object

324 atoms
323 bonds
598 angles
957 dihedrals
0 impropers

5 atom types
5 bond types
8 angle types
6 dihedral types

-93.721786 93.721786 xlo xhi
-93.721786 93.721786 ylo yhi
-93.721786 93.721786 zlo zhi

Masses

   1	12.01	# c3
   2	1.008	# hc
   3	16.0	# oh
   4	1.008	# ho
   5	1.008	# h1

Pair Coeffs

   1	0.1094	3.3996695084235347	# c3
   2	0.0157	2.649532787749369	# hc
   3	0.2104	3.0664733878390478	# oh
   4	0.0047	0.5379246460131368	# ho
   5	0.0157	2.471353044121301	# h1

Bond Coeffs

   1	371.4	0.973	# ho,oh
   2	330.6	1.0969	# c3,hc
   3	300.9	1.5375	# c3,c3
   4	316.7	1.4233	# c3,oh
   5	330.6	1.0969	# c3,h1

Angle Coeffs

   1	67.47	110.19	# c3,c3,oh
   2	46.34	109.8	# c3,c3,hc
   3	50.93	110.26	# h1,c3,oh
   4	46.39	109.56	# c3,c3,h1
   5	39.4	107.58	# hc,c3,hc
   6	39.24	108.46	# h1,c3,h1
   7	47.38	107.26	# c3,oh,ho
   8	62.86	111.51	# c3,c3,c3

Dihedral Coeffs

   1	2	0.0	3	0	0.25	1	0	# hc,c3,c3,oh
   2	1	0.16666666666666666	3	0	# X,c3,oh,X
   3	1	0.15555555555555556	3	0	# X,c3,c3,X
   4	2	0.16	3	0	0.25	1	0	# ho,oh,c3,c3
   5	1	0.16	3	0	# hc,c3,c3,c3
   6	3	0.18	3	0	0.25	2	180	0.2	1	180	# c3,c3,c3,c3

Atoms

   1	1	1	-0.02562	-1.73656	10.3844	-18.2173
   2	1	1	0.401389	-2.92654	11.2267	-18.7213
   3	1	3	-0.707077	-3.41471	10.734	-19.9677
   4	1	4	0.414767	-4.10492	11.3616	-20.2588
   5	1	2	-0.013868	-1.39348	10.8072	-17.264
   6	1	2	-0.001701	-0.896466	10.4698	-18.9193
   7	1	5	-0.06789	-3.7347	11.1977	-17.9824
   8	1	1	-0.02562	-0.990027	8.1157	-17.2887
   9	1	1	0.401389	-2.11052	8.89883	-18.0139
  10	1	3	-0.707077	-2.39199	8.29336	-19.2744
  11	1	4	0.414767	-2.8658	9.00962	-19.7802
  12	1	2	-0.013868	-0.793933	8.59457	-16.3203
  13	1	2	-0.001701	-0.0589163	8.17935	-17.8673
  14	1	5	-0.06789	-3.01367	8.85638	-17.3949
  15	1	1	-0.02562	-0.424598	5.89816	-16.0752
  16	1	1	0.401389	-1.37605	6.63574	-17.0533
  17	1	3	-0.707077	-1.41833	5.94822	-18.301
  18	1	4	0.414767	-1.89707	6.58835	-18.8994
  19	1	2	-0.013868	-0.838589	4.90671	-15.8474
  20	1	2	-0.001701	-0.406827	6.44555	-15.1238
  21	1	5	-0.06789	-2.37884	6.61958	-16.612
  22	1	1	-0.02562	1.95836	5.0863	-15.5539
  23	1	1	0.401389	1.02397	5.74367	-16.5986
  24	1	3	-0.707077	1.03423	4.96748	-17.7948
  25	1	4	0.414767	0.155518	5.18011	-18.2254
  26	1	2	-0.013868	1.61541	4.06819	-15.3242
  27	1	2	-0.001701	1.90127	5.65678	-14.6177
  28	1	5	-0.06789	1.41748	6.74093	-16.8225
  29	1	1	-0.02562	4.39926	4.51992	-14.956
  30	1	1	0.401389	3.42826	5.05805	-16.0335
  31	1	3	-0.707077	3.54946	4.25606	-17.2091
  32	1	4	0.414767	2.66796	4.38919	-17.6704
  33	1	2	-0.013868	4.2237	5.05471	-14.0132
  34	1	2	-0.001701	4.19401	3.4587	-14.7603
  35	1	5	-0.06789	3.72111	6.08551	-16.2768
  36	1	1	-0.02562	6.85665	4.16104	-14.3032
  37	1	1	0.401389	5.8783	4.7095	-15.3675
  38	1	3	-0.707077	6.12491	4.07081	-16.6238
  39	1	4	0.414767	5.19891	3.99932	-17.0083
  40	1	2	-0.013868	6.78897	3.06773	-14.2579
  41	1	2	-0.001701	6.55496	4.52962	-13.314
  42	1	5	-0.06789	6.0568	5.78401	-15.4833
  43	1	1	-0.02562	9.30573	3.94756	-13.5626
  44	1	1	0.401389	8.31721	4.5991	-14.5596
  45	1	3	-0.707077	8.71131	4.27679	-15.8957
  46	1	4	0.414767	7.83362	4.22998	-16.3727
  47	1	2	-0.013868	8.75502	3.369	-12.8114
  48	1	2	-0.001701	9.91033	3.21182	-14.0985
  49	1	5	-0.06789	8.34423	5.68899	-14.4541
  50	1	1	-0.02562	11.6581	4.60882	-12.5581
  51	1	1	0.401389	10.1881	5.01044	-12.8595
  52	1	3	-0.707077	9.54925	5.37063	-11.6368
  53	1	4	0.414767	9.46458	4.54161	-11.1064
  54	1	2	-0.013868	12.1611	5.48524	-12.1285
  55	1	2	-0.001701	11.6757	3.84598	-11.7742
  56	1	5	-0.06789	10.2352	5.90238	-13.4942
  57	1	1	-0.02562	12.2568	4.90625	-15.0795
  58	1	1	0.401389	12.5118	4.12396	-13.7619
  59	1	3	-0.707077	12.3258	2.72107	-13.9323
  60	1	4	0.414767	12.6831	2.5487	-14.8504
  61	1	2	-0.013868	12.4725	5.96849	-14.9054
  62	1	2	-0.001701	11.2004	4.8508	-15.3432
  63	1	5	-0.06789	13.5647	4.27222	-13.4974
  64	1	1	-0.02562	12.8064	5.18866	-17.5969
  65	1	1	0.401389	13.1032	4.42073	-16.2831
  66	1	3	-0.707077	12.9157	3.02545	-16.5149
  67	1	4	0.414767	12.1306	2.99044	-17.1194
  68	1	2	-0.013868	13.4095	4.74246	-18.3994
  69	1	2	-0.001701	13.1674	6.21979	-17.4916
  70	1	5	-0.06789	14.1578	4.57847	-16.0316
  71	1	1	-0.02562	11.2009	5.67047	-19.5155
  72	1	1	0.401389	11.3131	5.23066	-18.0323
  73	1	3	-0.707077	10.6826	3.96573	-17.8064
  74	1	4	0.414767	10.0016	4.1655	-17.0926
  75	1	2	-0.013868	11.7775	4.98345	-20.1494
  76	1	2	-0.001701	11.6898	6.64818	-19.6191
  77	1	5	-0.06789	10.8046	5.96846	-17.4036
  78	1	1	-0.02562	9.0735	4.43599	-20.3822
  79	1	1	0.401389	9.76512	5.79675	-20.0844
  80	1	3	-0.707077	8.9778	6.64693	-19.2565
  81	1	4	0.414767	8.04661	6.43458	-19.5092
  82	1	2	-0.013868	8.67857	4.45878	-21.4068
  83	1	2	-0.001701	9.82602	3.6389	-20.3873
  84	1	5	-0.06789	9.86732	6.29768	-21.054
  85	1	1	-0.02562	7.49403	2.58888	-19.4969
  86	1	1	0.401389	7.91965	4.07436	-19.4157
  87	1	3	-0.707077	6.80048	4.9233	-19.6713
  88	1	4	0.414767	6.14252	4.69729	-18.983
  89	1	2	-0.013868	6.41187	2.52067	-19.3198
  90	1	2	-0.001701	7.67208	2.18398	-20.502
  91	1	5	-0.06789	8.23641	4.27513	-18.3909
  92	1	1	-0.02562	7.60906	0.316183	-18.3
  93	1	1	0.401389	8.21591	1.73181	-18.4298
  94	1	3	-0.707077	9.60318	1.60756	-18.7199
  95	1	4	0.414767	10.033	2.45868	-18.4443
  96	1	2	-0.013868	8.05238	-0.345017	-19.0576
  97	1	2	-0.001701	6.53129	0.342486	-18.5084
  98	1	5	-0.06789	8.11081	2.2444	-17.4708
  99	1	1	-0.02562	6.83234	0.338168	-15.8694
 100	1	1	0.401389	7.83436	-0.261683	-16.8836
 101	1	3	-0.707077	7.69183	-1.67635	-16.9166
 102	1	4	0.414767	8.40674	-1.99793	-17.4972
 103	1	2	-0.013868	5.80855	0.148909	-16.2205
 104	1	2	-0.001701	6.94982	1.42616	-15.8442
 105	1	5	-0.06789	8.8562	-0.03182	-16.5639
 106	1	1	-0.02562	8.37148	0.0376795	-13.8075
 107	1	1	0.401389	6.97071	-0.205341	-14.4308
 108	1	3	-0.707077	5.94148	0.401119	-13.6404
 109	1	4	0.414767	5.10593	0.0847553	-14.0385
 110	1	2	-0.013868	8.70444	1.0622	-14.0151
 111	1	2	-0.001701	9.09368	-0.630999	-14.2927
 112	1	5	-0.06789	6.78086	-1.28371	-14.4339
 113	1	1	-0.02562	9.79091	-0.436375	-11.6826
 114	1	1	0.401389	8.38016	-0.226975	-12.2829
 115	1	3	-0.707077	7.6949	0.840819	-11.6289
 116	1	4	0.414767	6.83391	0.846065	-12.1339
 117	1	2	-0.013868	10.2878	-1.23644	-12.2482
 118	1	2	-0.001701	9.68654	-0.83323	-10.6646
 119	1	5	-0.06789	7.82043	-1.15239	-12.1056
 120	1	1	-0.02562	10.9596	1.38084	-10.2437
 121	1	1	0.401389	10.6764	0.838798	-11.6696
 122	1	3	-0.707077	11.9136	0.554778	-12.3069
 123	1	4	0.414767	12.1175	1.35459	-12.8662
 124	1	2	-0.013868	11.4593	0.59761	-9.65777
 125	1	2	-0.001701	11.6652	2.21788	-10.2922
 126	1	5	-0.06789	10.1883	1.62311	-12.2536
 127	1	1	-0.02562	9.98217	2.34789	-8.07051
 128	1	1	0.401389	9.68626	1.82875	-9.49194
 129	1	3	-0.707077	8.96735	2.81503	-10.2344
 130	1	4	0.414767	8.40327	2.24044	-10.8325
 131	1	2	-0.013868	10.5173	3.30666	-8.10567
 132	1	2	-0.001701	10.6442	1.63135	-7.56736
 133	1	5	-0.06789	9.04176	0.952001	-9.3791
 134	1	1	-0.02562	8.91705	2.5552	-5.74381
 135	1	1	0.401389	8.67058	2.47693	-7.26439
 136	1	3	-0.707077	7.92798	3.61492	-7.69665
 137	1	4	0.414767	8.06244	3.62852	-8.67728
 138	1	2	-0.013868	9.59271	1.7399	-5.45338
 139	1	2	-0.001701	9.42109	3.49483	-5.48023
 140	1	5	-0.06789	8.07311	1.57837	-7.45525
 141	1	1	-0.02562	7.83976	2.06773	-3.47254
 142	1	1	0.401389	7.5942	2.40736	-4.96252
 143	1	3	-0.707077	6.80281	3.58493	-5.09185
 144	1	4	0.414767	6.9612	3.87255	-6.02987
 145	1	2	-0.013868	8.51279	2.81409	-3.02964
 146	1	2	-0.001701	8.38148	1.11378	-3.43191
 147	1	5	-0.06789	7.04064	1.5729	-5.40716
 148	1	1	-0.02562	6.6984	0.873243	-1.51354
 149	1	1	0.401389	6.55698	1.96969	-2.60159
 150	1	3	-0.707077	5.39345	1.746	-3.39714
 151	1	4	0.414767	5.42815	2.48788	-4.05362
 152	1	2	-0.013868	7.55596	1.12638	-0.876062
 153	1	2	-0.001701	6.93342	-0.091217	-1.98379
 154	1	5	-0.06789	6.42211	2.93282	-2.09666
 155	1	1	-0.02562	5.69415	-0.205154	0.590357
 156	1	1	0.401389	5.43915	0.717284	-0.62912
 157	1	3	-0.707077	4.36248	0.201973	-1.40929
 158	1	4	0.414767	4.45047	0.697861	-2.27099
 159	1	2	-0.013868	6.52249	0.214366	1.17633
 160	1	2	-0.001701	6.01773	-1.1999	0.25546
 161	1	5	-0.06789	5.16063	1.70909	-0.255659
 162	1	1	-0.02562	4.74191	-0.901068	2.90194
 163	1	1	0.401389	4.4412	-0.32303	1.49209
 164	1	3	-0.707077	3.44169	-1.09217	0.825165
 165	1	4	0.414767	3.46698	-0.735141	-0.105675
 166	1	2	-0.013868	3.94012	-0.595558	3.58737
 167	1	2	-0.001701	5.65701	-0.433828	3.28833
 168	1	5	-0.06789	4.05473	0.691719	1.63819
 169	1	1	-0.02562	5.43745	-2.9182	4.3252
 170	1	1	0.401389	4.8896	-2.44185	2.95661
 171	1	3	-0.707077	3.62653	-3.05092	2.69568
 172	1	4	0.414767	3.2831	-2.52295	1.92252
 173	1	2	-0.013868	4.82226	-2.5138	5.14051
 174	1	2	-0.001701	6.44647	-2.50648	4.4579
 175	1	5	-0.06789	5.59715	-2.75157	2.17911
 176	1	1	-0.02562	6.38031	-4.98677	5.57936
 177	1	1	0.401389	5.50543	-4.46127	4.42111
 178	1	3	-0.707077	4.19667	-5.00671	4.53699
 179	1	4	0.414767	3.68078	-4.49261	3.86103
 180	1	2	-0.013868	6.44467	-6.07745	5.48284
 181	1	2	-0.001701	7.41052	-4.62905	5.44973
 182	1	5	-0.06789	5.9491	-4.83077	3.48929
 183	1	1	-0.02562	6.11671	-5.69436	8.04284
 184	1	1	0.401389	5.85826	-4.59305	6.9873
 185	1	3	-0.707077	6.50118	-3.39095	7.40623
 186	1	4	0.414767	6.09973	-3.15456	8.26016
 187	1	2	-0.013868	5.99851	-5.28042	9.05214
 188	1	2	-0.001701	7.16493	-6.0141	7.96511
 189	1	5	-0.06789	4.7822	-4.39965	6.95935
 190	1	1	-0.02562	3.72397	-6.72176	8.33593
 191	1	1	0.401389	5.18913	-6.92509	7.86421
 192	1	3	-0.707077	5.76773	-8.05175	8.52272
 193	1	4	0.414767	5.52269	-8.82405	7.97554
 194	1	2	-0.013868	3.28315	-5.87644	7.79324
 195	1	2	-0.001701	3.15348	-7.60395	8.02252
 196	1	5	-0.06789	5.15395	-7.18131	6.80188
 197	1	1	-0.02562	2.08106	-6.31121	10.3188
 198	1	1	0.401389	3.55004	-6.48557	9.8645
 199	1	3	-0.707077	4.13315	-7.54199	10.6211
 200	1	4	0.414767	4.93311	-7.80784	10.0985
 201	1	2	-0.013868	1.68136	-5.37516	9.90496
 202	1	2	-0.001701	2.07093	-6.18368	11.409
 203	1	5	-0.06789	4.07854	-5.56085	10.1207
 204	1	1	-0.02562	0.31423	-8.08838	11.0542
 205	1	1	0.401389	1.18024	-7.50687	9.91187
 206	1	3	-0.707077	0.347852	-7.13547	8.81953
 207	1	4	0.414767	-0.410799	-6.67549	9.26625
 208	1	2	-0.013868	-0.26749	-8.9283	10.6505
 209	1	2	-0.001701	0.98086	-8.52426	11.8098
 210	1	5	-0.06789	1.81653	-8.33294	9.57742
 211	1	1	-0.02562	-1.68611	-7.87133	12.5972
 212	1	1	0.401389	-0.642012	-7.09523	11.7598
 213	1	3	-0.707077	-1.3157	-6.26878	10.8124
 214	1	4	0.414767	-2.05865	-5.87972	11.35
 215	1	2	-0.013868	-1.18179	-8.65815	13.1739
 216	1	2	-0.001701	-2.37298	-8.39359	11.9178
 217	1	5	-0.06789	-0.0526597	-6.45674	12.4269
 218	1	1	-0.02562	-1.71408	-6.53572	14.8066
 219	1	1	0.401389	-2.51648	-7.00206	13.5691
 220	1	3	-0.707077	-3.05295	-5.85992	12.9019
 221	1	4	0.414767	-3.39808	-5.30632	13.6505
 222	1	2	-0.013868	-1.04701	-7.33117	15.1567
 223	1	2	-0.001701	-1.04578	-5.71369	14.5175
 224	1	5	-0.06789	-3.34967	-7.62439	13.9064
 225	1	1	-0.02562	-3.60838	-7.10102	16.5682
 226	1	1	0.401389	-2.62242	-6.05938	15.9706
 227	1	3	-0.707077	-3.37259	-4.92472	15.5314
 228	1	4	0.414767	-3.68606	-4.4863	16.3455
 229	1	2	-0.013868	-4.19001	-6.57234	17.3321
 230	1	2	-0.001701	-4.33755	-7.42941	15.8171
 231	1	5	-0.06789	-1.96763	-5.72323	16.7823
 232	1	1	-0.02562	-3.86963	-9.21581	18.0657
 233	1	1	0.401389	-2.92168	-8.33566	17.212
 234	1	3	-0.707077	-2.38498	-9.17621	16.1952
 235	1	4	0.414767	-1.90198	-9.88204	16.6617
 236	1	2	-0.013868	-4.63707	-9.65566	17.4141
 237	1	2	-0.001701	-3.29702	-10.0548	18.4835
 238	1	5	-0.06789	-2.09529	-7.98974	17.8417
 239	1	1	-0.02562	-5.38737	-9.42433	20.123
 240	1	1	0.401389	-4.5769	-8.4673	19.2152
 241	1	3	-0.707077	-3.63403	-7.75387	20.0028
 242	1	4	0.414767	-4.18386	-7.42075	20.7567
 243	1	2	-0.013868	-5.83729	-10.2257	19.5219
 244	1	2	-0.001701	-4.71266	-9.91923	20.8349
 245	1	5	-0.06789	-5.27124	-7.74786	18.7717
 246	1	1	-0.02562	-7.73349	-8.37236	19.9863
 247	1	1	0.401389	-6.50841	-8.68873	20.8942
 248	1	3	-0.707077	-5.98412	-7.5217	21.528
 249	1	4	0.414767	-6.76992	-7.17899	22.0249
 250	1	2	-0.013868	-8.41235	-9.2353	20.011
 251	1	2	-0.001701	-7.41645	-8.27664	18.9406
 252	1	5	-0.06789	-6.85935	-9.35794	21.6878
 253	1	1	-0.02562	-9.8457	-6.94304	19.5924
 254	1	1	0.401389	-8.51233	-7.09186	20.371
 255	1	3	-0.707077	-8.7546	-7.07222	21.7761
 256	1	4	0.414767	-9.45697	-6.3726	21.8687
 257	1	2	-0.013868	-9.67381	-7.15969	18.53
 258	1	2	-0.001701	-10.5694	-7.68715	19.9522
 259	1	5	-0.06789	-7.88137	-6.23186	20.1205
 260	1	1	-0.02562	-11.7967	-5.31335	19.0118
 261	1	1	0.401389	-10.4325	-5.51414	19.7281
 262	1	3	-0.707077	-10.598	-5.18744	21.1096
 263	1	4	0.414767	-10.821	-4.23573	21.117
 264	1	2	-0.013868	-12.4024	-6.22427	19.1109
 265	1	2	-0.001701	-12.3457	-4.52164	19.5351
 266	1	5	-0.06789	-9.69819	-4.81015	19.3265
 267	1	1	-0.02562	-13.0543	-4.67855	16.8241
 268	1	1	0.401389	-11.6812	-4.93466	17.5123
 269	1	3	-0.707077	-10.8537	-3.78946	17.3558
 270	1	4	0.414767	-11.4927	-3.02713	17.3328
 271	1	2	-0.013868	-13.6452	-5.60226	16.8806
 272	1	2	-0.001701	-12.8912	-4.48842	15.7549
 273	1	5	-0.06789	-11.1997	-5.77439	16.9979
 274	1	1	-0.02562	-15.2847	-3.34347	16.7907
 275	1	1	0.401389	-13.8834	-3.51311	17.4355
 276	1	3	-0.707077	-13.1299	-2.2955	17.4105
 277	1	4	0.414767	-13.7547	-1.55154	17.5483
 278	1	2	-0.013868	-15.7111	-4.33871	16.6046
 279	1	2	-0.001701	-15.9433	-2.90122	17.548
 280	1	5	-0.06789	-14.0695	-3.76097	18.4846
 281	1	1	-0.02562	-16.229	-1.23798	15.6033
 282	1	1	0.401389	-15.3165	-2.49358	15.4863
 283	1	3	-0.707077	-15.7656	-3.30245	14.4023
 284	1	4	0.414767	-15.4591	-2.86988	13.5871
 285	1	2	-0.013868	-17.2128	-1.45016	15.1646
 286	1	2	-0.001701	-16.4062	-0.991408	16.6575
 287	1	5	-0.06789	-14.2991	-2.17704	15.2385
 288	1	1	-0.02562	-16.5165	1.19683	14.5917
 289	1	1	0.401389	-15.5856	-0.00827127	14.9223
 290	1	3	-0.707077	-14.4846	0.431768	15.715
 291	1	4	0.414767	-13.9936	1.07095	15.1667
 292	1	2	-0.013868	-15.9429	2.13141	14.6651
 293	1	2	-0.001701	-16.7927	1.11056	13.5326
 294	1	5	-0.06789	-15.1744	-0.344736	13.9631
 295	1	1	-0.02562	-18.5802	2.64908	15.0054
 296	1	1	0.401389	-17.8372	1.34323	15.3913
 297	1	3	-0.707077	-17.6003	1.34048	16.7953
 298	1	4	0.414767	-17.1643	2.18534	17.0117
 299	1	2	-0.013868	-18.3137	3.42045	15.7368
 300	1	2	-0.001701	-18.2292	3.01824	14.0326
 301	1	5	-0.06789	-18.4697	0.482819	15.1464
 302	1	1	-0.02562	-20.9053	3.77628	14.6458
 303	1	1	0.401389	-20.1172	2.47285	14.9395
 304	1	3	-0.707077	-20.4311	1.53732	13.9092
 305	1	4	0.414767	-20.4024	0.656916	14.3239
 306	1	2	-0.013868	-20.5728	4.21745	13.6958
 307	1	2	-0.001701	-21.9544	3.49608	14.4963
 308	1	5	-0.06789	-20.4725	2.0603	15.8898
 309	1	1	-0.02562	-21.9758	5.85329	15.7737
 310	1	1	0.401389	-20.8101	4.83201	15.7765
 311	1	3	-0.707077	-19.5977	5.57166	15.6344
 312	1	4	0.414767	-19.7454	6.20582	14.912
 313	1	2	-0.013868	-22.0272	6.33972	14.79
 314	1	2	-0.001701	-21.7545	6.64679	16.5004
 315	1	5	-0.06789	-20.7892	4.31358	16.7408
 316	1	1	-0.02562	-24.4455	6.33962	16.2021
 317	1	1	0.401389	-23.3591	5.24681	16.109
 318	1	3	-0.707077	-23.309	4.52387	17.3324
 319	1	4	0.414767	-24.1807	4.10539	17.4412
 320	1	2	-0.013868	-24.5077	6.9055	15.2637
 321	1	2	-0.001701	-25.4302	5.89334	16.3909
 322	1	5	-0.06789	-23.6531	4.55524	15.3133
 323	1	5	0	-2.60826	12.2707	-18.8324
 324	1	2	0	-24.2275	7.0472	17.0127

Velocities

   1	0.000265452	-5.81037e-05	0.00023831
   2	0.000328469	-2.29741e-05	-6.99868e-05
   3	3.18788e-05	-0.000279994	6.58682e-05
   4	-0.000329942	-0.000493867	0.000235382
   5	0.000263363	0.000198865	0.000136975
   6	0.000292119	-0.000131857	0.000358945
   7	0.000231492	0.000244438	-2.65116e-05
   8	-1.24492e-05	-0.000237935	0.000387135
   9	-3.81826e-07	6.4418e-05	0.000502406
  10	-0.0003351	4.76551e-05	0.000570038
  11	-0.00028042	0.00014342	0.000601343
  12	-2.55496e-05	-0.000339278	0.000439359
  13	-0.000113879	-0.000261832	0.000387892
  14	0.000137766	0.000359098	0.000660937
  15	-2.71294e-05	-0.000285429	-0.000129961
  16	-0.00019109	-0.000201252	0.000200962
  17	-0.000313698	-0.000194099	0.000179329
  18	-0.000345684	-0.000226658	0.000208841
  19	3.9338e-05	-0.0005367	-0.000320105
  20	-0.00019317	-0.000640518	0.000148731
  21	-0.000152391	-0.00022386	0.000286605
  22	5.56211e-05	0.000167835	-0.000292825
  23	-0.000157674	6.49846e-05	-0.000162731
  24	2.3468e-05	0.000280286	-0.000336152
  25	-4.43538e-05	1.70181e-05	-0.000207023
  26	2.74474e-05	0.000183305	-0.000120886
  27	0.000109425	0.000249636	-0.000364081
  28	-0.000332576	0.000176608	-7.70902e-06
  29	-0.000182338	-9.66347e-05	-0.00027131
  30	-7.86744e-05	3.29673e-05	-0.000371666
  31	-6.82535e-05	1.42994e-05	-0.00031499
  32	-5.23415e-05	0.000178837	-0.000401633
  33	-0.000359712	-0.000271625	-0.000217771
  34	-0.000146823	-0.000125642	-0.000589593
  35	5.67462e-05	7.87839e-05	-0.00034425
  36	-0.000305944	8.23591e-05	-7.00178e-05
  37	-0.000244875	0.000163671	-0.000171634
  38	-0.000106394	0.000350833	-0.000238556
  39	-0.000107869	0.000176556	-0.000184825
  40	-0.00061287	0.00011417	0.000111008
  41	-0.000194662	0.000364712	-0.000150917
  42	-0.000315662	0.000174085	4.21988e-05
  43	-0.000225137	-0.000168173	5.93159e-05
  44	-0.000212695	-0.000347498	-0.000201118
  45	-0.000216192	-0.000941576	-7.8674e-05
  46	-0.000268843	-0.000723685	-6.28809e-05
  47	-0.000339003	-0.000144264	-6.85845e-06
  48	-0.000111996	-0.000173869	0.000194161
  49	8.07885e-05	-0.000308853	-0.000658188
  50	-0.000455885	2.97443e-05	0.000257226
  51	-0.000389148	-3.75975e-05	1.38525e-05
  52	-0.000582017	7.30799e-05	-0.000139281
  53	-0.000364631	0.000199459	7.25155e-05
  54	-0.000576441	2.40431e-05	0.000335446
  55	-0.00052741	2.31172e-05	0.000217174
  56	-0.000374872	-0.000138191	-9.8577e-05
  57	-0.000308616	9.16247e-06	0.00032646
  58	-0.000221649	0.000137188	0.000382145
  59	0.000127365	7.90035e-05	0.000382311
  60	0.000300111	0.000108418	0.000442422
  61	-0.000648857	7.49729e-05	0.000316633
  62	-0.000257797	-0.000345213	0.000197294
  63	-0.000268818	0.000385676	0.00044112
  64	-0.000120722	0.000248509	0.000472201
  65	-5.67769e-05	0.000220817	0.000430656
  66	0.000233201	0.000197107	0.000362516
  67	0.000224861	7.95085e-05	0.000377515
  68	0.000168112	0.00055335	0.000527117
  69	-0.000480026	0.000356075	0.00066182
  70	-0.000114809	0.000437335	0.000562549
  71	0.000142503	-0.000304317	0.000187795
  72	-6.92137e-05	-0.000165128	0.000235305
  73	0.000175835	-0.000305059	0.000174753
  74	3.81722e-05	-0.000491164	9.55695e-05
  75	0.000153046	-0.000435567	0.000343657
  76	0.000265529	-0.000371113	0.000154616
  77	-0.000352801	-0.000249052	0.000109529
  78	5.9307e-05	-6.32285e-05	-2.61142e-05
  79	0.000240376	-0.000161752	-1.91204e-05
  80	0.000258858	2.31418e-05	-0.000200828
  81	0.000250862	-6.14957e-05	-0.000112577
  82	-0.000133798	6.80912e-05	4.68427e-05
  83	-6.70307e-07	-0.000119966	-0.000226822
  84	0.00046599	-0.000262515	-4.66225e-05
  85	1.52757e-05	2.46151e-05	2.91923e-05
  86	0.000208541	-4.12052e-05	0.00014661
  87	0.000248816	0.000144053	0.000584444
  88	0.000741762	0.000635064	0.00123269
  89	5.4708e-05	0.000107999	0.00029327
  90	-0.000274769	0.000143344	-7.42444e-05
  91	0.000465114	-0.00022518	9.62348e-05
  92	0.000223215	-0.000166361	-0.000339171
  93	0.00020616	-0.000156535	-0.000257894
  94	0.000165909	-8.18311e-05	-0.000477321
  95	0.000223701	-0.000202357	-0.000181978
  96	0.000455266	-0.000191957	-0.000191728
  97	0.000278419	-0.000242571	-0.00060747
  98	0.000371518	-0.00028038	-0.000183532
  99	1.84468e-05	0.000236539	-0.000352762
 100	-7.80835e-05	-8.54356e-05	-0.000266924
 101	-0.000463364	-4.82333e-05	-0.000183256
 102	-0.000696232	-0.00026089	-0.00034815
 103	-1.26167e-05	0.000386742	-0.000347501
 104	0.000205715	0.000222643	-0.000426437
 105	-2.86696e-05	-0.00034189	-0.000229673
 106	-1.85632e-05	0.000229574	-0.000329661
 107	-5.05195e-05	0.000337674	-0.000302284
 108	1.51291e-05	0.000472512	-0.000316943
 109	-1.25639e-05	-2.6079e-05	0.000127986
 110	0.000159998	0.000136962	-0.000505016
 111	-0.000126337	3.80057e-05	-0.000220431
 112	-0.000166487	0.000362818	-0.00021207
 113	-0.00013843	0.00020778	-0.00025653
 114	-8.41131e-05	0.000472232	-0.000288054
 115	0.000149789	0.000726724	-0.000452925
 116	0.000176295	0.00086296	-0.000490632
 117	-0.000236173	0.000208192	-0.000339429
 118	-0.000226833	9.8565e-05	-0.000310161
 119	-0.000314641	0.000640949	-0.000153132
 120	2.53096e-05	-5.91726e-05	-1.34833e-05
 121	4.73063e-05	7.4915e-05	-6.79823e-05
 122	6.93724e-05	-8.45073e-05	5.47363e-05
 123	0.000252706	-5.02963e-05	0.000178534
 124	-3.14305e-05	-0.000146625	-8.33813e-05
 125	9.32193e-05	-0.000110694	6.33218e-05
 126	0.000228067	0.000181559	-7.67397e-05
 127	0.000244554	-0.000168978	0.00011457
 128	8.76767e-05	-1.72372e-05	7.46659e-05
 129	0.000141782	0.000135317	0.000214091
 130	0.000170244	0.000272366	4.70584e-05
 131	0.000191047	-0.000138345	0.000147839
 132	0.000339808	-0.000184385	-4.12351e-05
 133	7.58576e-06	3.0627e-05	8.3119e-06
 134	0.000405614	-0.000419634	0.000295884
 135	0.000336131	-0.000315807	0.00028502
 136	0.000191623	-0.000351915	0.000426932
 137	0.000101441	-0.000253423	0.000418715
 138	0.000562841	-0.00031572	0.000220311
 139	0.000199579	-0.000331993	0.00038003
 140	0.000392671	-0.000348616	0.000258056
 141	0.000273325	-0.000757181	0.000276899
 142	0.000406967	-0.000744266	0.00025274
 143	0.000117059	-0.000943511	0.000209191
 144	0.000171641	-0.000848153	0.000245391
 145	0.000239882	-0.000778615	0.000342678
 146	0.000216056	-0.000788835	0.000350628
 147	0.000632732	-0.00086963	0.000186171
 148	1.8418e-05	-0.000312686	0.000473914
 149	0.00013353	-0.000674763	9.75655e-05
 150	0.000316938	-0.00110018	-5.54876e-05
 151	0.000307286	-0.00123666	-0.000204035
 152	-5.50796e-05	-0.000105109	0.000488721
 153	7.04913e-05	-0.000467392	0.00082327
 154	-0.000112949	-0.000533369	-0.000243234
 155	-0.000321799	0.000110166	0.000515565
 156	-9.1193e-05	-8.87361e-06	0.000392767
 157	-0.000134174	1.39633e-05	0.000437598
 158	0.000161515	-0.000406122	0.000233459
 159	-3.98249e-05	-0.000173487	0.000333403
 160	-0.000859583	-9.754e-05	0.000626007
 161	3.16086e-05	8.82258e-05	0.000239971
 162	-0.000227033	0.000377307	0.00053738
 163	-0.000209225	0.000847985	0.000757504
 164	-0.000914	0.00158487	0.000957397
 165	-0.000730238	0.00138133	0.000880596
 166	-0.000354069	-0.000115234	0.000609797
 167	-0.000347136	0.000444723	0.000757724
 168	0.000531558	0.00109961	0.00104269
 169	-0.000131495	8.12589e-05	-0.000146956
 170	0.000207252	0.000405327	-0.000136765
 171	0.000490002	8.95255e-05	-0.000801327
 172	0.000182525	0.000732225	-0.000237663
 173	-0.000639683	-0.000478997	-0.000255924
 174	-0.000347558	0.000450425	0.000395767
 175	0.000578448	0.000949674	-1.94827e-05
 176	0.000110182	0.000196199	-0.000315671
 177	0.0004927	8.67575e-05	-0.000648569
 178	0.000674189	-0.00051322	-0.00146795
 179	0.00073511	-0.000430625	-0.00145774
 180	0.000243432	0.000187184	-0.000221782
 181	0.000116942	0.000307435	6.0295e-05
 182	0.001147	0.000565138	-0.000531851
 183	-0.00032295	0.000605072	-0.000260435
 184	-0.000473942	0.000270457	-0.000544761
 185	-0.00108719	0.000632664	-0.000718723
 186	-0.00135299	0.000778171	-0.000835773
 187	-0.000597092	0.000812746	-0.000375985
 188	-0.000236936	0.000836877	-2.20299e-05
 189	-0.000560964	-0.000261442	-0.000965561
 190	-3.09488e-05	0.000172399	2.00797e-05
 191	-7.19221e-05	0.000420813	-0.000215342
 192	0.000231536	0.00043972	-0.000455132
 193	0.000444821	0.000502001	-0.000638972
 194	-0.000162026	0.000301021	0.000321301
 195	3.32986e-06	0.000219355	-0.000159776
 196	-0.000200017	0.000541401	-0.000239542
 197	0.000201699	-0.000455517	0.000316522
 198	0.000147869	-0.000273132	0.000104061
 199	0.000242897	-0.000506313	-0.00029871
 200	0.000167439	-0.000339216	-0.000514741
 201	0.000119391	-0.000312189	0.000721653
 202	0.000337424	-0.000884198	0.00036771
 203	0.000148775	-0.000339406	0.000337393
 204	-4.2815e-05	-0.000386428	-0.0002913
 205	0.000215872	-0.000325221	-5.26812e-05
 206	0.000477507	-0.000116262	-0.000185406
 207	0.000463822	-5.61851e-05	-0.000331272
 208	-0.000241772	-0.000116706	-0.000565863
 209	-0.000221769	-0.000761866	-0.000352906
 210	0.00024681	-0.000336783	3.43972e-06
 211	0.000226041	-0.000285604	-4.62696e-05
 212	0.000175409	-0.000301742	-0.000119426
 213	0.000182862	-0.000207885	-4.33758e-05
 214	5.16875e-05	-0.00040039	-9.94458e-05
 215	0.000345364	-0.00015406	3.48717e-05
 216	0.000302422	-0.000445444	8.93471e-06
 217	0.000320978	-0.000397704	-0.000153409
 218	0.000149637	9.08216e-05	-0.000212555
 219	0.00012942	-0.000321627	-8.36278e-05
 220	-0.000275892	-0.000588074	-0.000197307
 221	-0.000377788	-0.000564909	-0.00027303
 222	0.000469432	0.000300661	-0.000286217
 223	-3.438e-05	0.000190595	-0.000543089
 224	0.000342407	-0.000499537	0.000141615
 225	0.000457217	1.96037e-05	9.8397e-05
 226	0.000352252	5.44774e-05	-0.0001354
 227	0.000156485	-3.57184e-05	5.51463e-06
 228	-0.00020428	-0.000438529	6.05573e-05
 229	0.000694301	0.000129493	0.000147113
 230	0.000373239	7.08374e-05	0.000217868
 231	0.000460023	0.000121487	-0.000240163
 232	0.000531641	-9.71007e-05	-0.000271563
 233	0.000601092	6.58693e-05	-5.70286e-05
 234	0.000756746	0.000318063	-0.000182767
 235	0.00171735	0.000850261	-0.000414204
 236	0.0011988	-0.000736681	-0.000627268
 237	0.000721184	0.000365165	0.000404244
 238	0.000493224	8.92647e-05	8.4307e-05
 239	-0.000858564	0.000105941	-0.00113757
 240	-0.000707564	1.16664e-05	-0.00109361
 241	-0.00168869	0.00100661	-0.000844573
 242	-0.00241017	0.000586361	-0.00111375
 243	-0.000983323	0.000250973	-0.00125625
 244	-0.000913287	-6.49687e-05	-0.00121155
 245	-0.000880542	-0.000673764	-0.0019353
 246	-0.000750649	0.000807202	-0.000901488
 247	-0.000757521	0.000246694	-0.00103033
 248	-0.000639811	5.4358e-05	-0.000779004
 249	-0.000687826	0.000144649	-0.000895897
 250	-0.000950154	0.000962793	-0.00111236
 251	-0.000791504	0.00106346	-0.000875505
 252	-0.000898795	0.000172476	-0.00115482
 253	-0.000114724	0.00185998	-0.000752333
 254	-0.000420137	0.000882929	-0.000377048
 255	-0.000759848	5.51069e-05	-0.000440594
 256	-0.000923825	-0.000115827	-0.000142535
 257	0.000496582	0.00336716	-0.000963712
 258	-0.000185453	0.00122602	-0.00220423
 259	-0.000106519	0.000856862	0.000344413
 260	-0.000480953	0.00190907	0.000728936
 261	-0.00055191	0.00154516	0.000752224
 262	-0.000915224	9.90145e-05	0.00105094
 263	-0.000993121	7.87877e-05	0.00203872
 264	-0.00105691	0.00238662	0.00146365
 265	0.000175211	0.00266944	0.000310394
 266	-0.000796425	0.00231457	0.00162555
 267	-0.000383709	0.000548594	0.000238744
 268	-0.000410962	0.000797193	0.000465626
 269	-0.00036943	0.000643369	-0.000285899
 270	-0.000278922	0.000746668	0.000811915
 271	-1.50008e-05	0.000265093	-0.000430154
 272	-0.000196655	0.00125423	0.000402857
 273	-0.00050764	0.000437289	0.00100949
 274	-0.000642229	0.000216037	0.000423574
 275	-0.000883276	-0.00024357	0.000838638
 276	-0.00117608	1.56125e-05	0.00221937
 277	-0.00164256	-0.000185057	0.000984375
 278	-0.00115986	0.000320505	0.000756551
 279	-0.00048631	0.000915796	0.000179062
 280	-0.00139993	-0.00115874	0.000502638
 281	-0.00030239	-0.000639817	-0.00134386
 282	0.000355002	-0.000344466	0.000144539
 283	0.00194917	-0.000933218	-0.000129568
 284	0.00204233	-0.00072078	6.46578e-05
 285	0.000637096	-0.00083126	-0.00331976
 286	-0.00245951	-0.00104256	-0.00160572
 287	0.000444947	0.000135356	0.00116219
 288	0.000969836	-0.000387981	-0.000277396
 289	0.000737812	-0.000373469	0.000348492
 290	-0.000512363	-0.000590178	0.00210782
 291	0.000730496	-0.00099903	0.00275257
 292	0.000837193	-0.00036707	-9.43945e-05
 293	0.00138318	-0.000525469	-0.000398522
 294	0.00213573	0.000241167	0.000719494
 295	0.000653096	-0.000745587	-0.000999697
 296	0.000711583	-0.000681464	-0.000745722
 297	3.62087e-05	-0.000789739	-0.00062543
 298	0.00169289	-0.00170118	-0.000580046
 299	0.0019198	-0.000148695	-0.00210988
 300	-0.000391698	-0.00192742	-0.00180624
 301	0.000955568	-0.000729665	-0.00115738
 302	0.000870654	-0.000407981	0.000417296
 303	0.000569526	-0.000330854	0.00129973
 304	-0.00110743	-0.00181315	0.00306841
 305	-0.00026702	-0.0011503	0.00426539
 306	0.00145247	-0.000876049	0.000417075
 307	0.00091908	-0.000188965	5.1222e-06
 308	0.00162024	0.00107298	0.0023248
 309	0.000548036	-0.000302214	0.00025222
 310	0.000739825	-0.000135709	0.000141203
 311	0.00062057	0.000100154	-0.000299044
 312	0.000558535	-0.000566634	-0.00082016
 313	0.000674222	0.000154883	0.000452252
 314	0.000308966	-0.000675101	0.000685523
 315	0.00110698	0.000165871	0.000312889
 316	1.06656e-05	-0.00073478	2.18988e-05
 317	0.000307067	-0.000349445	-0.000487962
 318	-0.000295656	-0.000869807	-0.000799232
 319	-0.00163656	0.00211635	0.000222141
 320	-0.000876852	-0.000945969	-0.000182498
 321	0.000194296	-0.00112341	0.000995414
 322	0.000410507	-1.61204e-05	-0.000800177
 323	0.000487364	1.73237e-05	-0.000345793
 324	0.000551365	-0.000634687	-0.000199528

Bonds

   1	3	1	2
   2	2	1	5
   3	2	1	6
   4	4	2	3
   5	5	2	7
   6	1	3	4
   7	3	8	9
   8	2	8	12
   9	2	8	13
  10	4	9	10
  11	5	9	14
  12	1	10	11
  13	3	1	9
  14	3	15	16
  15	2	15	19
  16	2	15	20
  17	4	16	17
  18	5	16	21
  19	1	17	18
  20	3	8	16
  21	3	22	23
  22	2	22	26
  23	2	22	27
  24	4	23	24
  25	5	23	28
  26	1	24	25
  27	3	15	23
  28	3	29	30
  29	2	29	33
  30	2	29	34
  31	4	30	31
  32	5	30	35
  33	1	31	32
  34	3	22	30
  35	3	36	37
  36	2	36	40
  37	2	36	41
  38	4	37	38
  39	5	37	42
  40	1	38	39
  41	3	29	37
  42	3	43	44
  43	2	43	47
  44	2	43	48
  45	4	44	45
  46	5	44	49
  47	1	45	46
  48	3	36	44
  49	3	50	51
  50	2	50	54
  51	2	50	55
  52	4	51	52
  53	5	51	56
  54	1	52	53
  55	3	43	51
  56	3	57	58
  57	2	57	61
  58	2	57	62
  59	4	58	59
  60	5	58	63
  61	1	59	60
  62	3	50	58
  63	3	64	65
  64	2	64	68
  65	2	64	69
  66	4	65	66
  67	5	65	70
  68	1	66	67
  69	3	57	65
  70	3	71	72
  71	2	71	75
  72	2	71	76
  73	4	72	73
  74	5	72	77
  75	1	73	74
  76	3	64	72
  77	3	78	79
  78	2	78	82
  79	2	78	83
  80	4	79	80
  81	5	79	84
  82	1	80	81
  83	3	71	79
  84	3	85	86
  85	2	85	89
  86	2	85	90