9
	Energy:       4.5298439
C         -2.32029        1.43963       -0.08336
C         -0.91612        1.02262        0.33560
H         -3.04337        0.63074        0.15380
O         -0.87671        0.74380        1.70860
H         -0.89515        1.61901        2.17685
H         -2.34270        1.63529       -1.17610
H         -2.61928        2.36476        0.45344
H         -0.62538        0.10637       -0.22028
H         -0.17862        1.81636        0.07906
