

################################################################################
##################################    Init    ##################################
################################################################################
units           real
atom_style      full
pair_style      lj/cut/coul/long 12.0  12.0
kspace_style    pppm 1e-4
bond_style      harmonic
angle_style     harmonic
dihedral_style  fourier
special_bonds   amber
pair_modify     mix arithmetic
read_data       temp.lmps
  orthogonal box = (-45.0567 -45.0567 -45.0567) to (45.0567 45.0567 45.0567)
  1 by 1 by 1 MPI processor grid
  reading atoms ...
  14 atoms
  reading velocities ...
  14 velocities
  scanning bonds ...
  4 = max bonds/atom
  scanning angles ...
  6 = max angles/atom
  scanning dihedrals ...
  13 = max dihedrals/atom
  reading bonds ...
  13 bonds
  reading angles ...
  20 angles
  reading dihedrals ...
  26 dihedrals
  4 = max # of 1-2 neighbors
  6 = max # of 1-3 neighbors
  9 = max # of 1-4 neighbors
  13 = max # of special neighbors
  special bonds CPU = 0.000165939 secs
  read_data CPU = 0.00297904 secs
################################################################################

timestep        1
fix             pysimm_md all nve/limit 0.1
run             2000
PPPM initialization ...
  using 12-bit tables for long-range coulomb (../kspace.cpp:332)
  G vector (1/distance) = 0.0978933
  grid = 8 8 8
  stencil order = 5
  estimated absolute RMS force accuracy = 0.0357466
  estimated relative force accuracy = 0.00010765
  using double precision KISS FFT
  3d grid and FFT values/proc = 2197 512
Neighbor list info ...
  update every 1 steps, delay 10 steps, check yes
  max neighbors/atom: 2000, page size: 100000
  master list distance cutoff = 14
  ghost atom cutoff = 14
  binsize = 7, bins = 13 13 13
  1 neighbor lists, perpetual/occasional/extra = 1 0 0
  (1) pair lj/cut/coul/long, perpetual
      attributes: half, newton on
      pair build: half/bin/newton
      stencil: half/bin/3d/newton
      bin: standard
Per MPI rank memory allocation (min/avg/max) = 13.35 | 13.35 | 13.35 Mbytes
Step Temp E_pair E_mol TotEng Press 
       0   0.74723346    147.63704 6.3230936e+27 6.3230936e+27            0 
    2000     991.9348   -15.193928    25.625617    48.869689     10.94161 
Loop time of 0.247523 on 1 procs for 2000 steps with 14 atoms

Performance: 698.117 ns/day, 0.034 hours/ns, 8080.055 timesteps/s
100.2% CPU use with 1 MPI tasks x no OpenMP threads

MPI task timing breakdown:
Section |  min time  |  avg time  |  max time  |%varavg| %total
---------------------------------------------------------------
Pair    | 0.0062683  | 0.0062683  | 0.0062683  |   0.0 |  2.53
Bond    | 0.0085349  | 0.0085349  | 0.0085349  |   0.0 |  3.45
Kspace  | 0.22859    | 0.22859    | 0.22859    |   0.0 | 92.35
Neigh   | 0.00098252 | 0.00098252 | 0.00098252 |   0.0 |  0.40
Comm    | 0.00043869 | 0.00043869 | 0.00043869 |   0.0 |  0.18
Output  | 1.502e-05  | 1.502e-05  | 1.502e-05  |   0.0 |  0.01
Modify  | 0.00081182 | 0.00081182 | 0.00081182 |   0.0 |  0.33
Other   |            | 0.001883   |            |       |  0.76

Nlocal:    14 ave 14 max 14 min
Histogram: 1 0 0 0 0 0 0 0 0 0
Nghost:    0 ave 0 max 0 min
Histogram: 1 0 0 0 0 0 0 0 0 0
Neighs:    91 ave 91 max 91 min
Histogram: 1 0 0 0 0 0 0 0 0 0

Total # of neighbors = 91
Ave neighs/atom = 6.5
Ave special neighs/atom = 8.42857
Neighbor list builds = 98
Dangerous builds = 0
unfix pysimm_md
min_style cg
minimize 0.001 0.001 10000 100000
WARNING: Using 'neigh_modify every 1 delay 0 check yes' setting during minimization (../min.cpp:190)
PPPM initialization ...
  using 12-bit tables for long-range coulomb (../kspace.cpp:332)
  G vector (1/distance) = 0.0978933
  grid = 8 8 8
  stencil order = 5
  estimated absolute RMS force accuracy = 0.0357466
  estimated relative force accuracy = 0.00010765
  using double precision KISS FFT
  3d grid and FFT values/proc = 2197 512
Per MPI rank memory allocation (min/avg/max) = 14.47 | 14.47 | 14.47 Mbytes
Step Temp E_pair E_mol TotEng Press 
    2000     991.9348   -15.193928    25.625617    48.869689     10.94161 
    2030     991.9348   -16.657816    6.2711176    28.051301    2.2077565 
Loop time of 0.00778484 on 1 procs for 30 steps with 14 atoms

102.8% CPU use with 1 MPI tasks x no OpenMP threads

Minimization stats:
  Stopping criterion = energy tolerance
  Energy initial, next-to-last, final = 
         10.4316891178     -10.3793802802     -10.3866988038
  Force two-norm initial, final = 164.525 2.3888
  Force max component initial, final = 62.0054 0.723678
  Final line search alpha, max atom move = 0.0262994 0.0190323
  Iterations, force evaluations = 30 60

MPI task timing breakdown:
Section |  min time  |  avg time  |  max time  |%varavg| %total
---------------------------------------------------------------
Pair    | 0.00030041 | 0.00030041 | 0.00030041 |   0.0 |  3.86
Bond    | 0.00030541 | 0.00030541 | 0.00030541 |   0.0 |  3.92
Kspace  | 0.0070226  | 0.0070226  | 0.0070226  |   0.0 | 90.21
Neigh   | 0          | 0          | 0          |   0.0 |  0.00
Comm    | 8.8215e-06 | 8.8215e-06 | 8.8215e-06 |   0.0 |  0.11
Output  | 0          | 0          | 0          |   0.0 |  0.00
Modify  | 0          | 0          | 0          |   0.0 |  0.00
Other   |            | 0.0001476  |            |       |  1.90

Nlocal:    14 ave 14 max 14 min
Histogram: 1 0 0 0 0 0 0 0 0 0
Nghost:    0 ave 0 max 0 min
Histogram: 1 0 0 0 0 0 0 0 0 0
Neighs:    91 ave 91 max 91 min
Histogram: 1 0 0 0 0 0 0 0 0 0

Total # of neighbors = 91
Ave neighs/atom = 6.5
Ave special neighs/atom = 8.42857
Neighbor list builds = 0
Dangerous builds = 0
write_dump all custom pysimm.dump.tmp id q x y z vx vy vz
quit


################################################################################
##################################    Init    ##################################
################################################################################
units           real
atom_style      full
pair_style      lj/cut/coul/long 12.0  12.0
kspace_style    pppm 1e-4
bond_style      harmonic
angle_style     harmonic
dihedral_style  fourier
special_bonds   amber
pair_modify     mix arithmetic
read_data       temp.lmps
  orthogonal box = (-45.0567 -45.0567 -45.0567) to (45.0567 45.0567 45.0567)
  1 by 1 by 1 MPI processor grid
  reading atoms ...
  21 atoms
  reading velocities ...
  21 velocities
  scanning bonds ...
  4 = max bonds/atom
  scanning angles ...
  6 = max angles/atom
  scanning dihedrals ...
  13 = max dihedrals/atom
  reading bonds ...
  20 bonds
  reading angles ...
  33 angles
  reading dihedrals ...
  47 dihedrals
  4 = max # of 1-2 neighbors
  7 = max # of 1-3 neighbors
  13 = max # of 1-4 neighbors
  17 = max # of special neighbors
  special bonds CPU = 0.000221968 secs
  read_data CPU = 0.00302291 secs
################################################################################

timestep        1
fix             pysimm_md all nve/limit 0.1
run             2000
PPPM initialization ...
  using 12-bit tables for long-range coulomb (../kspace.cpp:332)
  G vector (1/distance) = 0.106393
  grid = 9 9 9
  stencil order = 5
  estimated absolute RMS force accuracy = 0.0340926
  estimated relative force accuracy = 0.000102669
  using double precision KISS FFT
  3d grid and FFT values/proc = 2744 729
Neighbor list info ...
  update every 1 steps, delay 10 steps, check yes
  max neighbors/atom: 2000, page size: 100000
  master list distance cutoff = 14
  ghost atom cutoff = 14
  binsize = 7, bins = 13 13 13
  1 neighbor lists, perpetual/occasional/extra = 1 0 0
  (1) pair lj/cut/coul/long, perpetual
      attributes: half, newton on
      pair build: half/bin/newton
      stencil: half/bin/3d/newton
      bin: standard
Per MPI rank memory allocation (min/avg/max) = 13.64 | 13.64 | 13.64 Mbytes
Step Temp E_pair E_mol TotEng Press 
       0    645.00031    87.792864 6.8896413e+25 6.8896413e+25    37.644482 
    2000    795.74427   -22.897635    52.471779    77.013395    5.9916386 
Loop time of 0.381801 on 1 procs for 2000 steps with 21 atoms

Performance: 452.592 ns/day, 0.053 hours/ns, 5238.332 timesteps/s
100.0% CPU use with 1 MPI tasks x no OpenMP threads

MPI task timing breakdown:
Section |  min time  |  avg time  |  max time  |%varavg| %total
---------------------------------------------------------------
Pair    | 0.012805   | 0.012805   | 0.012805   |   0.0 |  3.35
Bond    | 0.014394   | 0.014394   | 0.014394   |   0.0 |  3.77
Kspace  | 0.34888    | 0.34888    | 0.34888    |   0.0 | 91.38
Neigh   | 0.0014899  | 0.0014899  | 0.0014899  |   0.0 |  0.39
Comm    | 0.00076127 | 0.00076127 | 0.00076127 |   0.0 |  0.20
Output  | 1.3113e-05 | 1.3113e-05 | 1.3113e-05 |   0.0 |  0.00
Modify  | 0.0011523  | 0.0011523  | 0.0011523  |   0.0 |  0.30
Other   |            | 0.002308   |            |       |  0.60

Nlocal:    21 ave 21 max 21 min
Histogram: 1 0 0 0 0 0 0 0 0 0
Nghost:    8 ave 8 max 8 min
Histogram: 1 0 0 0 0 0 0 0 0 0
Neighs:    210 ave 210 max 210 min
Histogram: 1 0 0 0 0 0 0 0 0 0

Total # of neighbors = 210
Ave neighs/atom = 10
Ave special neighs/atom = 9.52381
Neighbor list builds = 98
Dangerous builds = 0
unfix pysimm_md
min_style cg
minimize 0.001 0.001 10000 100000
WARNING: Using 'neigh_modify every 1 delay 0 check yes' setting during minimization (../min.cpp:190)
PPPM initialization ...
  using 12-bit tables for long-range coulomb (../kspace.cpp:332)
  G vector (1/distance) = 0.106393
  grid = 9 9 9
  stencil order = 5
  estimated absolute RMS force accuracy = 0.0340926
  estimated relative force accuracy = 0.000102669
  using double precision KISS FFT
  3d grid and FFT values/proc = 2744 729
Per MPI rank memory allocation (min/avg/max) = 14.76 | 14.76 | 14.76 Mbytes
Step Temp E_pair E_mol TotEng Press 
    2000    795.74427   -22.897635    52.471779    77.013395    5.9916386 
    2064    795.74427   -31.089461    9.9722273    26.322016    3.0927555 
Loop time of 0.0240009 on 1 procs for 64 steps with 21 atoms

100.0% CPU use with 1 MPI tasks x no OpenMP threads

Minimization stats:
  Stopping criterion = energy tolerance
  Energy initial, next-to-last, final = 
         29.5741442867     -21.1017124828     -21.1172341261
  Force two-norm initial, final = 271.633 3.57492
  Force max component initial, final = 88.7514 1.51808
  Final line search alpha, max atom move = 0.0516338 0.0783843
  Iterations, force evaluations = 64 129

MPI task timing breakdown:
Section |  min time  |  avg time  |  max time  |%varavg| %total
---------------------------------------------------------------
Pair    | 0.0013752  | 0.0013752  | 0.0013752  |   0.0 |  5.73
Bond    | 0.0010793  | 0.0010793  | 0.0010793  |   0.0 |  4.50
Kspace  | 0.021151   | 0.021151   | 0.021151   |   0.0 | 88.12
Neigh   | 1.9073e-05 | 1.9073e-05 | 1.9073e-05 |   0.0 |  0.08
Comm    | 3.9577e-05 | 3.9577e-05 | 3.9577e-05 |   0.0 |  0.16
Output  | 0          | 0          | 0          |   0.0 |  0.00
Modify  | 0          | 0          | 0          |   0.0 |  0.00
Other   |            | 0.0003371  |            |       |  1.40

Nlocal:    21 ave 21 max 21 min
Histogram: 1 0 0 0 0 0 0 0 0 0
Nghost:    10 ave 10 max 10 min
Histogram: 1 0 0 0 0 0 0 0 0 0
Neighs:    210 ave 210 max 210 min
Histogram: 1 0 0 0 0 0 0 0 0 0

Total # of neighbors = 210
Ave neighs/atom = 10
Ave special neighs/atom = 9.52381
Neighbor list builds = 1
Dangerous builds = 0
write_dump all custom pysimm.dump.tmp id q x y z vx vy vz
quit


################################################################################
##################################    Init    ##################################
################################################################################
units           real
atom_style      full
pair_style      lj/cut/coul/long 12.0  12.0
kspace_style    pppm 1e-4
bond_style      harmonic
angle_style     harmonic
dihedral_style  fourier
special_bonds   amber
pair_modify     mix arithmetic
read_data       temp.lmps
  orthogonal box = (-45.0567 -45.0567 -45.0567) to (45.0567 45.0567 45.0567)
  1 by 1 by 1 MPI processor grid
  reading atoms ...
  28 atoms
  reading velocities ...
  28 velocities
  scanning bonds ...
  4 = max bonds/atom
  scanning angles ...
  6 = max angles/atom
  scanning dihedrals ...
  13 = max dihedrals/atom
  reading bonds ...
  27 bonds
  reading angles ...
  46 angles
  reading dihedrals ...
  68 dihedrals
  4 = max # of 1-2 neighbors
  7 = max # of 1-3 neighbors
  14 = max # of 1-4 neighbors
  18 = max # of special neighbors
  special bonds CPU = 0.000246048 secs
  read_data CPU = 0.00317097 secs
################################################################################

timestep        1
fix             pysimm_md all nve/limit 0.1
run             2000
PPPM initialization ...
  using 12-bit tables for long-range coulomb (../kspace.cpp:332)
  G vector (1/distance) = 0.114264
  grid = 10 10 10
  stencil order = 5
  estimated absolute RMS force accuracy = 0.0306553
  estimated relative force accuracy = 9.23175e-05
  using double precision KISS FFT
  3d grid and FFT values/proc = 3375 1000
Neighbor list info ...
  update every 1 steps, delay 10 steps, check yes
  max neighbors/atom: 2000, page size: 100000
  master list distance cutoff = 14
  ghost atom cutoff = 14
  binsize = 7, bins = 13 13 13
  1 neighbor lists, perpetual/occasional/extra = 1 0 0
  (1) pair lj/cut/coul/long, perpetual
      attributes: half, newton on
      pair build: half/bin/newton
      stencil: half/bin/3d/newton
      bin: standard
Per MPI rank memory allocation (min/avg/max) = 13.75 | 13.75 | 13.75 Mbytes
Step Temp E_pair E_mol TotEng Press 
       0    589.61953    147.02491 1.4939928e+27 1.4939928e+27 7.2273997e+38 
    2000    861.02303   -37.456834    86.901126    118.74104   -2.0504637 
Loop time of 0.538168 on 1 procs for 2000 steps with 28 atoms

Performance: 321.089 ns/day, 0.075 hours/ns, 3716.312 timesteps/s
100.0% CPU use with 1 MPI tasks x no OpenMP threads

MPI task timing breakdown:
Section |  min time  |  avg time  |  max time  |%varavg| %total
---------------------------------------------------------------
Pair    | 0.021384   | 0.021384   | 0.021384   |   0.0 |  3.97
Bond    | 0.019919   | 0.019919   | 0.019919   |   0.0 |  3.70
Kspace  | 0.48984    | 0.48984    | 0.48984    |   0.0 | 91.02
Neigh   | 0.002439   | 0.002439   | 0.002439   |   0.0 |  0.45
Comm    | 0.00082159 | 0.00082159 | 0.00082159 |   0.0 |  0.15
Output  | 1.502e-05  | 1.502e-05  | 1.502e-05  |   0.0 |  0.00
Modify  | 0.0014536  | 0.0014536  | 0.0014536  |   0.0 |  0.27
Other   |            | 0.002292   |            |       |  0.43

Nlocal:    28 ave 28 max 28 min
Histogram: 1 0 0 0 0 0 0 0 0 0
Nghost:    1 ave 1 max 1 min
Histogram: 1 0 0 0 0 0 0 0 0 0
Neighs:    378 ave 378 max 378 min
Histogram: 1 0 0 0 0 0 0 0 0 0

Total # of neighbors = 378
Ave neighs/atom = 13.5
Ave special neighs/atom = 10.0714
Neighbor list builds = 116
Dangerous builds = 0
unfix pysimm_md
min_style cg
minimize 0.001 0.001 10000 100000
WARNING: Using 'neigh_modify every 1 delay 0 check yes' setting during minimization (../min.cpp:190)
PPPM initialization ...
  using 12-bit tables for long-range coulomb (../kspace.cpp:332)
  G vector (1/distance) = 0.114264
  grid = 10 10 10
  stencil order = 5
  estimated absolute RMS force accuracy = 0.0306553
  estimated relative force accuracy = 9.23175e-05
  using double precision KISS FFT
  3d grid and FFT values/proc = 3375 1000
Per MPI rank memory allocation (min/avg/max) = 14.87 | 14.87 | 14.87 Mbytes
Step Temp E_pair E_mol TotEng Press 
    2000    861.02303   -37.456834    86.901126    118.74104   -2.0504637 
    2045    861.02303   -49.769324    16.721609    36.249029     4.140864 
Loop time of 0.023556 on 1 procs for 45 steps with 28 atoms

97.6% CPU use with 1 MPI tasks x no OpenMP threads

Minimization stats:
  Stopping criterion = energy tolerance
  Energy initial, next-to-last, final = 
         49.4442922886     -33.0183224336     -33.0477154308
  Force two-norm initial, final = 297.145 5.01067
  Force max component initial, final = 131.358 1.86386
  Final line search alpha, max atom move = 0.0221008 0.0411928
  Iterations, force evaluations = 45 89

MPI task timing breakdown:
Section |  min time  |  avg time  |  max time  |%varavg| %total
---------------------------------------------------------------
Pair    | 0.0016239  | 0.0016239  | 0.0016239  |   0.0 |  6.89
Bond    | 0.0010095  | 0.0010095  | 0.0010095  |   0.0 |  4.29
Kspace  | 0.020634   | 0.020634   | 0.020634   |   0.0 | 87.60
Neigh   | 0          | 0          | 0          |   0.0 |  0.00
Comm    | 4.4107e-05 | 4.4107e-05 | 4.4107e-05 |   0.0 |  0.19
Output  | 0          | 0          | 0          |   0.0 |  0.00
Modify  | 0          | 0          | 0          |   0.0 |  0.00
Other   |            | 0.0002446  |            |       |  1.04

Nlocal:    28 ave 28 max 28 min
Histogram: 1 0 0 0 0 0 0 0 0 0
Nghost:    1 ave 1 max 1 min
Histogram: 1 0 0 0 0 0 0 0 0 0
Neighs:    378 ave 378 max 378 min
Histogram: 1 0 0 0 0 0 0 0 0 0

Total # of neighbors = 378
Ave neighs/atom = 13.5
Ave special neighs/atom = 10.0714
Neighbor list builds = 0
Dangerous builds = 0
write_dump all custom pysimm.dump.tmp id q x y z vx vy vz
quit


################################################################################
##################################    Init    ##################################
################################################################################
units           real
atom_style      full
pair_style      lj/cut/coul/long 12.0  12.0
kspace_style    pppm 1e-4
bond_style      harmonic
angle_style     harmonic
dihedral_style  fourier
special_bonds   amber
pair_modify     mix arithmetic
read_data       temp.lmps
  orthogonal box = (-45.0567 -45.0567 -45.0567) to (45.0567 45.0567 45.0567)
  1 by 1 by 1 MPI processor grid
  reading atoms ...
  35 atoms
  reading velocities ...
  35 velocities
  scanning bonds ...
  4 = max bonds/atom
  scanning angles ...
  6 = max angles/atom
  scanning dihedrals ...
  13 = max dihedrals/atom
  reading bonds ...
  34 bonds
  reading angles ...
  59 angles
  reading dihedrals ...
  89 dihedrals
  4 = max # of 1-2 neighbors
  7 = max # of 1-3 neighbors
  14 = max # of 1-4 neighbors
  18 = max # of special neighbors
  special bonds CPU = 0.000241995 secs
  read_data CPU = 0.00328302 secs
################################################################################

timestep        1
fix             pysimm_md all nve/limit 0.1
run             2000
PPPM initialization ...
  using 12-bit tables for long-range coulomb (../kspace.cpp:332)
  G vector (1/distance) = 0.114264
  grid = 10 10 10
  stencil order = 5
  estimated absolute RMS force accuracy = 0.0342732
  estimated relative force accuracy = 0.000103213
  using double precision KISS FFT
  3d grid and FFT values/proc = 3375 1000
Neighbor list info ...
  update every 1 steps, delay 10 steps, check yes
  max neighbors/atom: 2000, page size: 100000
  master list distance cutoff = 14
  ghost atom cutoff = 14
  binsize = 7, bins = 13 13 13
  1 neighbor lists, perpetual/occasional/extra = 1 0 0
  (1) pair lj/cut/coul/long, perpetual
      attributes: half, newton on
      pair build: half/bin/newton
      stencil: half/bin/3d/newton
      bin: standard
Per MPI rank memory allocation (min/avg/max) = 13.75 | 13.75 | 13.75 Mbytes
Step Temp E_pair E_mol TotEng Press 
       0    683.89631    413.21354 1.5909839e+23 1.5909839e+23 -7.6021163e+30 
    2000    1102.4012   -56.267018    79.883355    135.34199    9.1485971 
Loop time of 0.534233 on 1 procs for 2000 steps with 35 atoms

Performance: 323.454 ns/day, 0.074 hours/ns, 3743.686 timesteps/s
99.9% CPU use with 1 MPI tasks x no OpenMP threads

MPI task timing breakdown:
Section |  min time  |  avg time  |  max time  |%varavg| %total
---------------------------------------------------------------
Pair    | 0.032915   | 0.032915   | 0.032915   |   0.0 |  6.16
Bond    | 0.026319   | 0.026319   | 0.026319   |   0.0 |  4.93
Kspace  | 0.46665    | 0.46665    | 0.46665    |   0.0 | 87.35
Neigh   | 0.0030651  | 0.0030651  | 0.0030651  |   0.0 |  0.57
Comm    | 0.00073361 | 0.00073361 | 0.00073361 |   0.0 |  0.14
Output  | 1.8835e-05 | 1.8835e-05 | 1.8835e-05 |   0.0 |  0.00
Modify  | 0.0017054  | 0.0017054  | 0.0017054  |   0.0 |  0.32
Other   |            | 0.002824   |            |       |  0.53

Nlocal:    35 ave 35 max 35 min
Histogram: 1 0 0 0 0 0 0 0 0 0
Nghost:    0 ave 0 max 0 min
Histogram: 1 0 0 0 0 0 0 0 0 0
Neighs:    595 ave 595 max 595 min
Histogram: 1 0 0 0 0 0 0 0 0 0

Total # of neighbors = 595
Ave neighs/atom = 17
Ave special neighs/atom = 10.4
Neighbor list builds = 110
Dangerous builds = 0
unfix pysimm_md
min_style cg
minimize 0.001 0.001 10000 100000
WARNING: Using 'neigh_modify every 1 delay 0 check yes' setting during minimization (../min.cpp:190)
PPPM initialization ...
  using 12-bit tables for long-range coulomb (../kspace.cpp:332)
  G vector (1/distance) = 0.114264
  grid = 10 10 10
  stencil order = 5
  estimated absolute RMS force accuracy = 0.0342732
  estimated relative force accuracy = 0.000103213
  using double precision KISS FFT
  3d grid and FFT values/proc = 3375 1000
Per MPI rank memory allocation (min/avg/max) = 14.87 | 14.87 | 14.87 Mbytes
Step Temp E_pair E_mol TotEng Press 
    2000    1102.4012   -56.267018    79.883355    135.34199    9.1485971 
    2067    1102.4012   -62.487316    15.717283     64.95562    7.1637844 
Loop time of 0.0391991 on 1 procs for 67 steps with 35 atoms

102.0% CPU use with 1 MPI tasks x no OpenMP threads

Minimization stats:
  Stopping criterion = energy tolerance
  Energy initial, next-to-last, final = 
         23.6163371136     -46.7309850809     -46.7700323202
  Force two-norm initial, final = 285.041 7.59882
  Force max component initial, final = 89.2641 2.40275
  Final line search alpha, max atom move = 0.010329 0.024818
  Iterations, force evaluations = 67 134

MPI task timing breakdown:
Section |  min time  |  avg time  |  max time  |%varavg| %total
---------------------------------------------------------------
Pair    | 0.00354    | 0.00354    | 0.00354    |   0.0 |  9.03
Bond    | 0.0018823  | 0.0018823  | 0.0018823  |   0.0 |  4.80
Kspace  | 0.033295   | 0.033295   | 0.033295   |   0.0 | 84.94
Neigh   | 2.9802e-05 | 2.9802e-05 | 2.9802e-05 |   0.0 |  0.08
Comm    | 5.6267e-05 | 5.6267e-05 | 5.6267e-05 |   0.0 |  0.14
Output  | 0          | 0          | 0          |   0.0 |  0.00
Modify  | 0          | 0          | 0          |   0.0 |  0.00
Other   |            | 0.0003955  |            |       |  1.01

Nlocal:    35 ave 35 max 35 min
Histogram: 1 0 0 0 0 0 0 0 0 0
Nghost:    0 ave 0 max 0 min
Histogram: 1 0 0 0 0 0 0 0 0 0
Neighs:    595 ave 595 max 595 min
Histogram: 1 0 0 0 0 0 0 0 0 0

Total # of neighbors = 595
Ave neighs/atom = 17
Ave special neighs/atom = 10.4
Neighbor list builds = 1
Dangerous builds = 0
write_dump all custom pysimm.dump.tmp id q x y z vx vy vz
quit


################################################################################
##################################    Init    ##################################
################################################################################
units           real
atom_style      full
pair_style      lj/cut/coul/long 12.0  12.0
kspace_style    pppm 1e-4
bond_style      harmonic
angle_style     harmonic
dihedral_style  fourier
special_bonds   amber
pair_modify     mix arithmetic
read_data       temp.lmps
  orthogonal box = (-45.0567 -45.0567 -45.0567) to (45.0567 45.0567 45.0567)
  1 by 1 by 1 MPI processor grid
  reading atoms ...
  42 atoms
  reading velocities ...
  42 velocities
  scanning bonds ...
  4 = max bonds/atom
  scanning angles ...
  6 = max angles/atom
  scanning dihedrals ...
  13 = max dihedrals/atom
  reading bonds ...
  41 bonds
  reading angles ...
  72 angles
  reading dihedrals ...
  110 dihedrals
  4 = max # of 1-2 neighbors
  7 = max # of 1-3 neighbors
  14 = max # of 1-4 neighbors
  18 = max # of special neighbors
  special bonds CPU = 0.000231981 secs
  read_data CPU = 0.00340509 secs
################################################################################

timestep        1
fix             pysimm_md all nve/limit 0.1
run             2000
PPPM initialization ...
  using 12-bit tables for long-range coulomb (../kspace.cpp:332)
  G vector (1/distance) = 0.114263
  grid = 10 10 10
  stencil order = 5
  estimated absolute RMS force accuracy = 0.0375443
  estimated relative force accuracy = 0.000113064
  using double precision KISS FFT
  3d grid and FFT values/proc = 3375 1000
Neighbor list info ...
  update every 1 steps, delay 10 steps, check yes
  max neighbors/atom: 2000, page size: 100000
  master list distance cutoff = 14
  ghost atom cutoff = 14
  binsize = 7, bins = 13 13 13
  1 neighbor lists, perpetual/occasional/extra = 1 0 0
  (1) pair lj/cut/coul/long, perpetual
      attributes: half, newton on
      pair build: half/bin/newton
      stencil: half/bin/3d/newton
      bin: standard
Per MPI rank memory allocation (min/avg/max) = 13.75 | 13.75 | 13.75 Mbytes
Step Temp E_pair E_mol TotEng Press 
       0    914.30459    105.11808 1.9265298e+26 1.9265298e+26 -5.3142645e+36 
    2000    767.67278   -65.953351    95.857857    123.72426    3.7045217 
Loop time of 0.582622 on 1 procs for 2000 steps with 42 atoms

Performance: 296.590 ns/day, 0.081 hours/ns, 3432.757 timesteps/s
99.9% CPU use with 1 MPI tasks x no OpenMP threads

MPI task timing breakdown:
Section |  min time  |  avg time  |  max time  |%varavg| %total
---------------------------------------------------------------
Pair    | 0.045762   | 0.045762   | 0.045762   |   0.0 |  7.85
Bond    | 0.031834   | 0.031834   | 0.031834   |   0.0 |  5.46
Kspace  | 0.49625    | 0.49625    | 0.49625    |   0.0 | 85.18
Neigh   | 0.0030692  | 0.0030692  | 0.0030692  |   0.0 |  0.53
Comm    | 0.00066543 | 0.00066543 | 0.00066543 |   0.0 |  0.11
Output  | 1.4067e-05 | 1.4067e-05 | 1.4067e-05 |   0.0 |  0.00
Modify  | 0.001924   | 0.001924   | 0.001924   |   0.0 |  0.33
Other   |            | 0.0031     |            |       |  0.53

Nlocal:    42 ave 42 max 42 min
Histogram: 1 0 0 0 0 0 0 0 0 0
Nghost:    0 ave 0 max 0 min
Histogram: 1 0 0 0 0 0 0 0 0 0
Neighs:    861 ave 861 max 861 min
Histogram: 1 0 0 0 0 0 0 0 0 0

Total # of neighbors = 861
Ave neighs/atom = 20.5
Ave special neighs/atom = 10.619
Neighbor list builds = 91
Dangerous builds = 0
unfix pysimm_md
min_style cg
minimize 0.001 0.001 10000 100000
WARNING: Using 'neigh_modify every 1 delay 0 check yes' setting during minimization (../min.cpp:190)
PPPM initialization ...
  using 12-bit tables for long-range coulomb (../kspace.cpp:332)
  G vector (1/distance) = 0.114263
  grid = 10 10 10
  stencil order = 5
  estimated absolute RMS force accuracy = 0.0375443
  estimated relative force accuracy = 0.000113064
  using double precision KISS FFT
  3d grid and FFT values/proc = 3375 1000
Per MPI rank memory allocation (min/avg/max) = 14.87 | 14.87 | 14.87 Mbytes
Step Temp E_pair E_mol TotEng Press 
    2000    767.67278   -65.953351    95.857857    123.72426    3.7045217 
    2054    767.67278   -77.114498    20.290899    36.996158    6.4265234 
Loop time of 0.0478392 on 1 procs for 54 steps with 42 atoms

100.3% CPU use with 1 MPI tasks x no OpenMP threads

Minimization stats:
  Stopping criterion = linesearch alpha is zero
  Energy initial, next-to-last, final = 
          29.904505161     -56.8235987732     -56.8235987732
  Force two-norm initial, final = 297.705 10.9812
  Force max component initial, final = 99.5358 3.22786
  Final line search alpha, max atom move = 5.21789e-11 1.68426e-10
  Iterations, force evaluations = 54 161

MPI task timing breakdown:
Section |  min time  |  avg time  |  max time  |%varavg| %total
---------------------------------------------------------------
Pair    | 0.0061321  | 0.0061321  | 0.0061321  |   0.0 | 12.82
Bond    | 0.0028057  | 0.0028057  | 0.0028057  |   0.0 |  5.86
Kspace  | 0.038366   | 0.038366   | 0.038366   |   0.0 | 80.20
Neigh   | 3.3855e-05 | 3.3855e-05 | 3.3855e-05 |   0.0 |  0.07
Comm    | 5.6267e-05 | 5.6267e-05 | 5.6267e-05 |   0.0 |  0.12
Output  | 0          | 0          | 0          |   0.0 |  0.00
Modify  | 0          | 0          | 0          |   0.0 |  0.00
Other   |            | 0.0004454  |            |       |  0.93

Nlocal:    42 ave 42 max 42 min
Histogram: 1 0 0 0 0 0 0 0 0 0
Nghost:    0 ave 0 max 0 min
Histogram: 1 0 0 0 0 0 0 0 0 0
Neighs:    861 ave 861 max 861 min
Histogram: 1 0 0 0 0 0 0 0 0 0

Total # of neighbors = 861
Ave neighs/atom = 20.5
Ave special neighs/atom = 10.619
Neighbor list builds = 1
Dangerous builds = 0
write_dump all custom pysimm.dump.tmp id q x y z vx vy vz
quit


################################################################################
##################################    Init    ##################################
################################################################################
units           real
atom_style      full
pair_style      lj/cut/coul/long 12.0  12.0
kspace_style    pppm 1e-4
bond_style      harmonic
angle_style     harmonic
dihedral_style  fourier
special_bonds   amber
pair_modify     mix arithmetic
read_data       temp.lmps
  orthogonal box = (-45.0567 -45.0567 -45.0567) to (45.0567 45.0567 45.0567)
  1 by 1 by 1 MPI processor grid
  reading atoms ...
  49 atoms
  reading velocities ...
  49 velocities
  scanning bonds ...
  4 = max bonds/atom
  scanning angles ...
  6 = max angles/atom
  scanning dihedrals ...
  13 = max dihedrals/atom
  reading bonds ...
  48 bonds
  reading angles ...
  85 angles
  reading dihedrals ...
  131 dihedrals
  4 = max # of 1-2 neighbors
  7 = max # of 1-3 neighbors
  14 = max # of 1-4 neighbors
  18 = max # of special neighbors
  special bonds CPU = 0.000261068 secs
  read_data CPU = 0.00339007 secs
################################################################################

timestep        1
fix             pysimm_md all nve/limit 0.1
run             2000
PPPM initialization ...
  using 12-bit tables for long-range coulomb (../kspace.cpp:332)
  G vector (1/distance) = 0.114263
  grid = 10 10 10
  stencil order = 5
  estimated absolute RMS force accuracy = 0.0405525
  estimated relative force accuracy = 0.000122123
  using double precision KISS FFT
  3d grid and FFT values/proc = 3375 1000
Neighbor list info ...
  update every 1 steps, delay 10 steps, check yes
  max neighbors/atom: 2000, page size: 100000
  master list distance cutoff = 14
  ghost atom cutoff = 14
  binsize = 7, bins = 13 13 13
  1 neighbor lists, perpetual/occasional/extra = 1 0 0
  (1) pair lj/cut/coul/long, perpetual
      attributes: half, newton on
      pair build: half/bin/newton
      stencil: half/bin/3d/newton
      bin: standard
Per MPI rank memory allocation (min/avg/max) = 13.75 | 13.75 | 13.75 Mbytes
Step Temp E_pair E_mol TotEng Press 
       0    655.82199     663.2788 1.1854176e+27 1.1854176e+27    282.53296 
    2000    871.88519   -78.458025    122.60186    168.89219  -0.77478867 
Loop time of 0.596354 on 1 procs for 2000 steps with 49 atoms

Performance: 289.761 ns/day, 0.083 hours/ns, 3353.713 timesteps/s
100.1% CPU use with 1 MPI tasks x no OpenMP threads

MPI task timing breakdown:
Section |  min time  |  avg time  |  max time  |%varavg| %total
---------------------------------------------------------------
Pair    | 0.056852   | 0.056852   | 0.056852   |   0.0 |  9.53
Bond    | 0.037145   | 0.037145   | 0.037145   |   0.0 |  6.23
Kspace  | 0.4913     | 0.4913     | 0.4913     |   0.0 | 82.38
Neigh   | 0.0050843  | 0.0050843  | 0.0050843  |   0.0 |  0.85
Comm    | 0.0012279  | 0.0012279  | 0.0012279  |   0.0 |  0.21
Output  | 1.502e-05  | 1.502e-05  | 1.502e-05  |   0.0 |  0.00
Modify  | 0.0020554  | 0.0020554  | 0.0020554  |   0.0 |  0.34
Other   |            | 0.002679   |            |       |  0.45

Nlocal:    49 ave 49 max 49 min
Histogram: 1 0 0 0 0 0 0 0 0 0
Nghost:    45 ave 45 max 45 min
Histogram: 1 0 0 0 0 0 0 0 0 0
Neighs:    1176 ave 1176 max 1176 min
Histogram: 1 0 0 0 0 0 0 0 0 0

Total # of neighbors = 1176
Ave neighs/atom = 24
Ave special neighs/atom = 10.7755
Neighbor list builds = 119
Dangerous builds = 0
unfix pysimm_md
min_style cg
minimize 0.001 0.001 10000 100000
WARNING: Using 'neigh_modify every 1 delay 0 check yes' setting during minimization (../min.cpp:190)
PPPM initialization ...
  using 12-bit tables for long-range coulomb (../kspace.cpp:332)
  G vector (1/distance) = 0.114263
  grid = 10 10 10
  stencil order = 5
  estimated absolute RMS force accuracy = 0.0405525
  estimated relative force accuracy = 0.000122123
  using double precision KISS FFT
  3d grid and FFT values/proc = 3375 1000
Per MPI rank memory allocation (min/avg/max) = 14.88 | 14.88 | 14.88 Mbytes
Step Temp E_pair E_mol TotEng Press 
    2000    871.88519   -78.458025    122.60186    168.89219  -0.77478867 
    2029    871.88519   -87.765995    26.947495    63.929858     6.654874 
Loop time of 0.036443 on 1 procs for 29 steps with 49 atoms

101.5% CPU use with 1 MPI tasks x no OpenMP threads

Minimization stats:
  Stopping criterion = linesearch alpha is zero
  Energy initial, next-to-last, final = 
         44.1438333963     -60.8185002618     -60.8185002618
  Force two-norm initial, final = 327.105 11.2558
  Force max component initial, final = 113.218 2.77483
  Final line search alpha, max atom move = 8.92024e-11 2.47522e-10
  Iterations, force evaluations = 29 111

MPI task timing breakdown:
Section |  min time  |  avg time  |  max time  |%varavg| %total
---------------------------------------------------------------
Pair    | 0.0054317  | 0.0054317  | 0.0054317  |   0.0 | 14.90
Bond    | 0.0023251  | 0.0023251  | 0.0023251  |   0.0 |  6.38
Kspace  | 0.028289   | 0.028289   | 0.028289   |   0.0 | 77.62
Neigh   | 0          | 0          | 0          |   0.0 |  0.00
Comm    | 6.8903e-05 | 6.8903e-05 | 6.8903e-05 |   0.0 |  0.19
Output  | 0          | 0          | 0          |   0.0 |  0.00
Modify  | 0          | 0          | 0          |   0.0 |  0.00
Other   |            | 0.0003288  |            |       |  0.90

Nlocal:    49 ave 49 max 49 min
Histogram: 1 0 0 0 0 0 0 0 0 0
Nghost:    45 ave 45 max 45 min
Histogram: 1 0 0 0 0 0 0 0 0 0
Neighs:    1176 ave 1176 max 1176 min
Histogram: 1 0 0 0 0 0 0 0 0 0

Total # of neighbors = 1176
Ave neighs/atom = 24
Ave special neighs/atom = 10.7755
Neighbor list builds = 0
Dangerous builds = 0
write_dump all custom pysimm.dump.tmp id q x y z vx vy vz
quit


################################################################################
##################################    Init    ##################################
################################################################################
units           real
atom_style      full
pair_style      lj/cut/coul/long 12.0  12.0
kspace_style    pppm 1e-4
bond_style      harmonic
angle_style     harmonic
dihedral_style  fourier
special_bonds   amber
pair_modify     mix arithmetic
read_data       temp.lmps
  orthogonal box = (-45.0567 -45.0567 -45.0567) to (45.0567 45.0567 45.0567)
  1 by 1 by 1 MPI processor grid
  reading atoms ...
  56 atoms
  reading velocities ...
  56 velocities
  scanning bonds ...
  4 = max bonds/atom
  scanning angles ...
  6 = max angles/atom
  scanning dihedrals ...
  13 = max dihedrals/atom
  reading bonds ...
  55 bonds
  reading angles ...
  98 angles
  reading dihedrals ...
  152 dihedrals
  4 = max # of 1-2 neighbors
  7 = max # of 1-3 neighbors
  14 = max # of 1-4 neighbors
  18 = max # of special neighbors
  special bonds CPU = 0.000236988 secs
  read_data CPU = 0.003613 secs
################################################################################

timestep        1
fix             pysimm_md all nve/limit 0.1
run             2000
PPPM initialization ...
  using 12-bit tables for long-range coulomb (../kspace.cpp:332)
  G vector (1/distance) = 0.128358
  grid = 12 12 12
  stencil order = 5
  estimated absolute RMS force accuracy = 0.0264944
  estimated relative force accuracy = 7.97871e-05
  using double precision KISS FFT
  3d grid and FFT values/proc = 4913 1728
Neighbor list info ...
  update every 1 steps, delay 10 steps, check yes
  max neighbors/atom: 2000, page size: 100000
  master list distance cutoff = 14
  ghost atom cutoff = 14
  binsize = 7, bins = 13 13 13
  1 neighbor lists, perpetual/occasional/extra = 1 0 0
  (1) pair lj/cut/coul/long, perpetual
      attributes: half, newton on
      pair build: half/bin/newton
      stencil: half/bin/3d/newton
      bin: standard
Per MPI rank memory allocation (min/avg/max) = 13.87 | 13.87 | 13.87 Mbytes
Step Temp E_pair E_mol TotEng Press 
       0    761.00654    322.74756 1.7899983e+26 1.7899983e+26    157.04598 
    2000     871.3162   -87.055827    118.77673    174.56845   -6.2163786 
Loop time of 0.840165 on 1 procs for 2000 steps with 56 atoms

Performance: 205.674 ns/day, 0.117 hours/ns, 2380.484 timesteps/s
100.1% CPU use with 1 MPI tasks x no OpenMP threads

MPI task timing breakdown:
Section |  min time  |  avg time  |  max time  |%varavg| %total
---------------------------------------------------------------
Pair    | 0.069727   | 0.069727   | 0.069727   |   0.0 |  8.30
Bond    | 0.042137   | 0.042137   | 0.042137   |   0.0 |  5.02
Kspace  | 0.71424    | 0.71424    | 0.71424    |   0.0 | 85.01
Neigh   | 0.0065799  | 0.0065799  | 0.0065799  |   0.0 |  0.78
Comm    | 0.0020967  | 0.0020967  | 0.0020967  |   0.0 |  0.25
Output  | 1.7881e-05 | 1.7881e-05 | 1.7881e-05 |   0.0 |  0.00
Modify  | 0.0023346  | 0.0023346  | 0.0023346  |   0.0 |  0.28
Other   |            | 0.00303    |            |       |  0.36

Nlocal:    56 ave 56 max 56 min
Histogram: 1 0 0 0 0 0 0 0 0 0
Nghost:    152 ave 152 max 152 min
Histogram: 1 0 0 0 0 0 0 0 0 0
Neighs:    1505 ave 1505 max 1505 min
Histogram: 1 0 0 0 0 0 0 0 0 0

Total # of neighbors = 1505
Ave neighs/atom = 26.875
Ave special neighs/atom = 10.8929
Neighbor list builds = 110
Dangerous builds = 0
unfix pysimm_md
min_style cg
minimize 0.001 0.001 10000 100000
WARNING: Using 'neigh_modify every 1 delay 0 check yes' setting during minimization (../min.cpp:190)
PPPM initialization ...
  using 12-bit tables for long-range coulomb (../kspace.cpp:332)
  G vector (1/distance) = 0.128358
  grid = 12 12 12
  stencil order = 5
  estimated absolute RMS force accuracy = 0.0264944
  estimated relative force accuracy = 7.97871e-05
  using double precision KISS FFT
  3d grid and FFT values/proc = 4913 1728
Per MPI rank memory allocation (min/avg/max) = 15 | 15 | 15 Mbytes
Step Temp E_pair E_mol TotEng Press 
    2000     871.3162   -87.055827    118.77673    174.56845   -6.2163786 
    2048     871.3162   -108.10056    25.625776    60.372757    10.147555 
Loop time of 0.0646119 on 1 procs for 48 steps with 56 atoms

99.0% CPU use with 1 MPI tasks x no OpenMP threads

Minimization stats:
  Stopping criterion = energy tolerance
  Energy initial, next-to-last, final = 
         31.7209046094      -82.457751892     -82.4747877434
  Force two-norm initial, final = 380.728 15.3367
  Force max component initial, final = 116.075 4.15519
  Final line search alpha, max atom move = 2.46054e-10 1.0224e-09
  Iterations, force evaluations = 48 144

MPI task timing breakdown:
Section |  min time  |  avg time  |  max time  |%varavg| %total
---------------------------------------------------------------
Pair    | 0.0081575  | 0.0081575  | 0.0081575  |   0.0 | 12.63
Bond    | 0.0032973  | 0.0032973  | 0.0032973  |   0.0 |  5.10
Kspace  | 0.052489   | 0.052489   | 0.052489   |   0.0 | 81.24
Neigh   | 6.485e-05  | 6.485e-05  | 6.485e-05  |   0.0 |  0.10
Comm    | 0.00016785 | 0.00016785 | 0.00016785 |   0.0 |  0.26
Output  | 0          | 0          | 0          |   0.0 |  0.00
Modify  | 0          | 0          | 0          |   0.0 |  0.00
Other   |            | 0.0004354  |            |       |  0.67

Nlocal:    56 ave 56 max 56 min
Histogram: 1 0 0 0 0 0 0 0 0 0
Nghost:    148 ave 148 max 148 min
Histogram: 1 0 0 0 0 0 0 0 0 0
Neighs:    1493 ave 1493 max 1493 min
Histogram: 1 0 0 0 0 0 0 0 0 0

Total # of neighbors = 1493
Ave neighs/atom = 26.6607
Ave special neighs/atom = 10.8929
Neighbor list builds = 1
Dangerous builds = 0
write_dump all custom pysimm.dump.tmp id q x y z vx vy vz
quit


################################################################################
##################################    Init    ##################################
################################################################################
units           real
atom_style      full
pair_style      lj/cut/coul/long 12.0  12.0
kspace_style    pppm 1e-4
bond_style      harmonic
angle_style     harmonic
dihedral_style  fourier
special_bonds   amber
pair_modify     mix arithmetic
read_data       temp.lmps
  orthogonal box = (-45.0567 -45.0567 -45.0567) to (45.0567 45.0567 45.0567)
  1 by 1 by 1 MPI processor grid
  reading atoms ...
  63 atoms
  reading velocities ...
  63 velocities
  scanning bonds ...
  4 = max bonds/atom
  scanning angles ...
  6 = max angles/atom
  scanning dihedrals ...
  13 = max dihedrals/atom
  reading bonds ...
  62 bonds
  reading angles ...
  111 angles
  reading dihedrals ...
  173 dihedrals
  4 = max # of 1-2 neighbors
  7 = max # of 1-3 neighbors
  14 = max # of 1-4 neighbors
  18 = max # of special neighbors
  special bonds CPU = 0.000298023 secs
  read_data CPU = 0.00374794 secs
################################################################################

timestep        1
fix             pysimm_md all nve/limit 0.1
run             2000
PPPM initialization ...
  using 12-bit tables for long-range coulomb (../kspace.cpp:332)
  G vector (1/distance) = 0.128358
  grid = 12 12 12
  stencil order = 5
  estimated absolute RMS force accuracy = 0.0281016
  estimated relative force accuracy = 8.4627e-05
  using double precision KISS FFT
  3d grid and FFT values/proc = 4913 1728
Neighbor list info ...
  update every 1 steps, delay 10 steps, check yes
  max neighbors/atom: 2000, page size: 100000
  master list distance cutoff = 14
  ghost atom cutoff = 14
  binsize = 7, bins = 13 13 13
  1 neighbor lists, perpetual/occasional/extra = 1 0 0
  (1) pair lj/cut/coul/long, perpetual
      attributes: half, newton on
      pair build: half/bin/newton
      stencil: half/bin/3d/newton
      bin: standard
Per MPI rank memory allocation (min/avg/max) = 13.88 | 13.88 | 13.88 Mbytes
Step Temp E_pair E_mol TotEng Press 
       0    773.01979    49.887003 1.8311186e+26 1.8311186e+26    65.567777 
    2000     770.6895   -112.19077    140.54682    170.78735    12.416365 
Loop time of 1.21098 on 1 procs for 2000 steps with 63 atoms

Performance: 142.694 ns/day, 0.168 hours/ns, 1651.551 timesteps/s
100.0% CPU use with 1 MPI tasks x no OpenMP threads

MPI task timing breakdown:
Section |  min time  |  avg time  |  max time  |%varavg| %total
---------------------------------------------------------------
Pair    | 0.12765    | 0.12765    | 0.12765    |   0.0 | 10.54
Bond    | 0.065782   | 0.065782   | 0.065782   |   0.0 |  5.43
Kspace  | 0.99548    | 0.99548    | 0.99548    |   0.0 | 82.20
Neigh   | 0.0098488  | 0.0098488  | 0.0098488  |   0.0 |  0.81
Comm    | 0.0040081  | 0.0040081  | 0.0040081  |   0.0 |  0.33
Output  | 1.6928e-05 | 1.6928e-05 | 1.6928e-05 |   0.0 |  0.00
Modify  | 0.0033431  | 0.0033431  | 0.0033431  |   0.0 |  0.28
Other   |            | 0.004853   |            |       |  0.40

Nlocal:    63 ave 63 max 63 min
Histogram: 1 0 0 0 0 0 0 0 0 0
Nghost:    187 ave 187 max 187 min
Histogram: 1 0 0 0 0 0 0 0 0 0
Neighs:    1779 ave 1779 max 1779 min
Histogram: 1 0 0 0 0 0 0 0 0 0

Total # of neighbors = 1779
Ave neighs/atom = 28.2381
Ave special neighs/atom = 10.9841
Neighbor list builds = 97
Dangerous builds = 0
unfix pysimm_md
min_style cg
minimize 0.001 0.001 10000 100000
WARNING: Using 'neigh_modify every 1 delay 0 check yes' setting during minimization (../min.cpp:190)
PPPM initialization ...
  using 12-bit tables for long-range coulomb (../kspace.cpp:332)
  G vector (1/distance) = 0.128358
  grid = 12 12 12
  stencil order = 5
  estimated absolute RMS force accuracy = 0.0281016
  estimated relative force accuracy = 8.4627e-05
  using double precision KISS FFT
  3d grid and FFT values/proc = 4913 1728
Per MPI rank memory allocation (min/avg/max) = 15 | 15 | 15 Mbytes
Step Temp E_pair E_mol TotEng Press 
    2000     770.6895   -112.19077    140.54682    170.78735    12.416365 
    2044     770.6895   -130.41946    35.819057    47.830893    6.5525966 
Loop time of 0.0648801 on 1 procs for 44 steps with 63 atoms

100.2% CPU use with 1 MPI tasks x no OpenMP threads

Minimization stats:
  Stopping criterion = linesearch alpha is zero
  Energy initial, next-to-last, final = 
         28.3560486936     -94.6004046896     -94.6004046896
  Force two-norm initial, final = 363.181 12.1731
  Force max component initial, final = 113.718 3.08131
  Final line search alpha, max atom move = 7.75903e-11 2.3908e-10
  Iterations, force evaluations = 44 139

MPI task timing breakdown:
Section |  min time  |  avg time  |  max time  |%varavg| %total
---------------------------------------------------------------
Pair    | 0.009871   | 0.009871   | 0.009871   |   0.0 | 15.21
Bond    | 0.0035999  | 0.0035999  | 0.0035999  |   0.0 |  5.55
Kspace  | 0.050715   | 0.050715   | 0.050715   |   0.0 | 78.17
Neigh   | 7.7009e-05 | 7.7009e-05 | 7.7009e-05 |   0.0 |  0.12
Comm    | 0.00018072 | 0.00018072 | 0.00018072 |   0.0 |  0.28
Output  | 0          | 0          | 0          |   0.0 |  0.00
Modify  | 0          | 0          | 0          |   0.0 |  0.00
Other   |            | 0.0004365  |            |       |  0.67

Nlocal:    63 ave 63 max 63 min
Histogram: 1 0 0 0 0 0 0 0 0 0
Nghost:    187 ave 187 max 187 min
Histogram: 1 0 0 0 0 0 0 0 0 0
Neighs:    1790 ave 1790 max 1790 min
Histogram: 1 0 0 0 0 0 0 0 0 0

Total # of neighbors = 1790
Ave neighs/atom = 28.4127
Ave special neighs/atom = 10.9841
Neighbor list builds = 1
Dangerous builds = 0
write_dump all custom pysimm.dump.tmp id q x y z vx vy vz
quit


################################################################################
##################################    Init    ##################################
################################################################################
units           real
atom_style      full
pair_style      lj/cut/coul/long 12.0  12.0
kspace_style    pppm 1e-4
bond_style      harmonic
angle_style     harmonic
dihedral_style  fourier
special_bonds   amber
pair_modify     mix arithmetic
read_data       temp.lmps
  orthogonal box = (-45.0567 -45.0567 -45.0567) to (45.0567 45.0567 45.0567)
  1 by 1 by 1 MPI processor grid
  reading atoms ...
  70 atoms
  reading velocities ...
  70 velocities
  scanning bonds ...
  4 = max bonds/atom
  scanning angles ...
  6 = max angles/atom
  scanning dihedrals ...
  13 = max dihedrals/atom
  reading bonds ...
  69 bonds
  reading angles ...
  124 angles
  reading dihedrals ...
  194 dihedrals
  4 = max # of 1-2 neighbors
  7 = max # of 1-3 neighbors
  14 = max # of 1-4 neighbors
  18 = max # of special neighbors
  special bonds CPU = 0.000258923 secs
  read_data CPU = 0.00362897 secs
################################################################################

timestep        1
fix             pysimm_md all nve/limit 0.1
run             2000
PPPM initialization ...
  using 12-bit tables for long-range coulomb (../kspace.cpp:332)
  G vector (1/distance) = 0.128358
  grid = 12 12 12
  stencil order = 5
  estimated absolute RMS force accuracy = 0.0296216
  estimated relative force accuracy = 8.92047e-05
  using double precision KISS FFT
  3d grid and FFT values/proc = 4913 1728
Neighbor list info ...
  update every 1 steps, delay 10 steps, check yes
  max neighbors/atom: 2000, page size: 100000
  master list distance cutoff = 14
  ghost atom cutoff = 14
  binsize = 7, bins = 13 13 13
  1 neighbor lists, perpetual/occasional/extra = 1 0 0
  (1) pair lj/cut/coul/long, perpetual
      attributes: half, newton on
      pair build: half/bin/newton
      stencil: half/bin/3d/newton
      bin: standard
Per MPI rank memory allocation (min/avg/max) = 13.89 | 13.89 | 13.89 Mbytes
Step Temp E_pair E_mol TotEng Press 
       0    692.57365    403.24774 9.2676389e+24 9.2676389e+24 -2.0758846e+34 
    2000    662.42017   -120.19011    139.70614    155.75989   0.95243959 
Loop time of 0.906302 on 1 procs for 2000 steps with 70 atoms

Performance: 190.665 ns/day, 0.126 hours/ns, 2206.770 timesteps/s
100.0% CPU use with 1 MPI tasks x no OpenMP threads

MPI task timing breakdown:
Section |  min time  |  avg time  |  max time  |%varavg| %total
---------------------------------------------------------------
Pair    | 0.098133   | 0.098133   | 0.098133   |   0.0 | 10.83
Bond    | 0.053704   | 0.053704   | 0.053704   |   0.0 |  5.93
Kspace  | 0.73553    | 0.73553    | 0.73553    |   0.0 | 81.16
Neigh   | 0.0092542  | 0.0092542  | 0.0092542  |   0.0 |  1.02
Comm    | 0.0033894  | 0.0033894  | 0.0033894  |   0.0 |  0.37
Output  | 1.502e-05  | 1.502e-05  | 1.502e-05  |   0.0 |  0.00
Modify  | 0.0028405  | 0.0028405  | 0.0028405  |   0.0 |  0.31
Other   |            | 0.003434   |            |       |  0.38

Nlocal:    70 ave 70 max 70 min
Histogram: 1 0 0 0 0 0 0 0 0 0
Nghost:    210 ave 210 max 210 min
Histogram: 1 0 0 0 0 0 0 0 0 0
Neighs:    2328 ave 2328 max 2328 min
Histogram: 1 0 0 0 0 0 0 0 0 0

Total # of neighbors = 2328
Ave neighs/atom = 33.2571
Ave special neighs/atom = 11.0571
Neighbor list builds = 109
Dangerous builds = 0
unfix pysimm_md
min_style cg
minimize 0.001 0.001 10000 100000
WARNING: Using 'neigh_modify every 1 delay 0 check yes' setting during minimization (../min.cpp:190)
PPPM initialization ...
  using 12-bit tables for long-range coulomb (../kspace.cpp:332)
  G vector (1/distance) = 0.128358
  grid = 12 12 12
  stencil order = 5
  estimated absolute RMS force accuracy = 0.0296216
  estimated relative force accuracy = 8.92047e-05
  using double precision KISS FFT
  3d grid and FFT values/proc = 4913 1728
Per MPI rank memory allocation (min/avg/max) = 15.01 | 15.01 | 15.01 Mbytes
Step Temp E_pair E_mol TotEng Press 
    2000    662.42017   -120.19011    139.70614    155.75989   0.95243959 
    2024    662.42017   -134.66447    45.147519    46.726907    8.1403543 
Loop time of 0.0504899 on 1 procs for 24 steps with 70 atoms

99.0% CPU use with 1 MPI tasks x no OpenMP threads

Minimization stats:
  Stopping criterion = linesearch alpha is zero
  Energy initial, next-to-last, final = 
         19.5160306855     -89.5169528373     -89.5169528373
  Force two-norm initial, final = 381.311 16.1071
  Force max component initial, final = 104.172 4.45233
  Final line search alpha, max atom move = 3.8422e-11 1.71067e-10
  Iterations, force evaluations = 24 103

MPI task timing breakdown:
Section |  min time  |  avg time  |  max time  |%varavg| %total
---------------------------------------------------------------
Pair    | 0.0090849  | 0.0090849  | 0.0090849  |   0.0 | 17.99
Bond    | 0.0029585  | 0.0029585  | 0.0029585  |   0.0 |  5.86
Kspace  | 0.037971   | 0.037971   | 0.037971   |   0.0 | 75.21
Neigh   | 0          | 0          | 0          |   0.0 |  0.00
Comm    | 0.00013661 | 0.00013661 | 0.00013661 |   0.0 |  0.27
Output  | 0          | 0          | 0          |   0.0 |  0.00
Modify  | 0          | 0          | 0          |   0.0 |  0.00
Other   |            | 0.0003386  |            |       |  0.67

Nlocal:    70 ave 70 max 70 min
Histogram: 1 0 0 0 0 0 0 0 0 0
Nghost:    210 ave 210 max 210 min
Histogram: 1 0 0 0 0 0 0 0 0 0
Neighs:    2321 ave 2321 max 2321 min
Histogram: 1 0 0 0 0 0 0 0 0 0

Total # of neighbors = 2321
Ave neighs/atom = 33.1571
Ave special neighs/atom = 11.0571
Neighbor list builds = 0
Dangerous builds = 0
write_dump all custom pysimm.dump.tmp id q x y z vx vy vz
quit


################################################################################
##################################    Init    ##################################
################################################################################
units           real
atom_style      full
pair_style      lj/cut/coul/long 12.0  12.0
kspace_style    pppm 1e-4
bond_style      harmonic
angle_style     harmonic
dihedral_style  fourier
special_bonds   amber
pair_modify     mix arithmetic
read_data       temp.lmps
  orthogonal box = (-56.7679 -56.7679 -56.7679) to (56.7679 56.7679 56.7679)
  1 by 1 by 1 MPI processor grid
  reading atoms ...
  77 atoms
  reading velocities ...
  77 velocities
  scanning bonds ...
  4 = max bonds/atom
  scanning angles ...
  6 = max angles/atom
  scanning dihedrals ...
  13 = max dihedrals/atom
  reading bonds ...
  76 bonds
  reading angles ...
  137 angles
  reading dihedrals ...
  215 dihedrals
  4 = max # of 1-2 neighbors
  7 = max # of 1-3 neighbors
  14 = max # of 1-4 neighbors
  18 = max # of special neighbors
  special bonds CPU = 0.000276089 secs
  read_data CPU = 0.00386596 secs
################################################################################

timestep        1
fix             pysimm_md all nve/limit 0.1
run             2000
PPPM initialization ...
  using 12-bit tables for long-range coulomb (../kspace.cpp:332)
  G vector (1/distance) = 0.127737
  grid = 15 15 15
  stencil order = 5
  estimated absolute RMS force accuracy = 0.0224771
  estimated relative force accuracy = 6.76891e-05
  using double precision KISS FFT
  3d grid and FFT values/proc = 8000 3375
Neighbor list info ...
  update every 1 steps, delay 10 steps, check yes
  max neighbors/atom: 2000, page size: 100000
  master list distance cutoff = 14
  ghost atom cutoff = 14
  binsize = 7, bins = 17 17 17
  1 neighbor lists, perpetual/occasional/extra = 1 0 0
  (1) pair lj/cut/coul/long, perpetual
      attributes: half, newton on
      pair build: half/bin/newton
      stencil: half/bin/3d/newton
      bin: standard
Per MPI rank memory allocation (min/avg/max) = 14.15 | 14.15 | 14.15 Mbytes
Step Temp E_pair E_mol TotEng Press 
       0    601.47183    -142.8353    1056.8077    1050.2308   -40.885115 
    2000     649.4528   -130.18614    157.62594    174.56785   -1.8633581 
Loop time of 1.61112 on 1 procs for 2000 steps with 77 atoms

Performance: 107.254 ns/day, 0.224 hours/ns, 1241.369 timesteps/s
99.8% CPU use with 1 MPI tasks x no OpenMP threads

MPI task timing breakdown:
Section |  min time  |  avg time  |  max time  |%varavg| %total
---------------------------------------------------------------
Pair    | 0.11141    | 0.11141    | 0.11141    |   0.0 |  6.92
Bond    | 0.059487   | 0.059487   | 0.059487   |   0.0 |  3.69
Kspace  | 1.4234     | 1.4234     | 1.4234     |   0.0 | 88.35
Neigh   | 0.0095675  | 0.0095675  | 0.0095675  |   0.0 |  0.59
Comm    | 0.00094604 | 0.00094604 | 0.00094604 |   0.0 |  0.06
Output  | 2.0981e-05 | 2.0981e-05 | 2.0981e-05 |   0.0 |  0.00
Modify  | 0.0030358  | 0.0030358  | 0.0030358  |   0.0 |  0.19
Other   |            | 0.003302   |            |       |  0.20

Nlocal:    77 ave 77 max 77 min
Histogram: 1 0 0 0 0 0 0 0 0 0
Nghost:    0 ave 0 max 0 min
Histogram: 1 0 0 0 0 0 0 0 0 0
Neighs:    2652 ave 2652 max 2652 min
Histogram: 1 0 0 0 0 0 0 0 0 0

Total # of neighbors = 2652
Ave neighs/atom = 34.4416
Ave special neighs/atom = 11.1169
Neighbor list builds = 114
Dangerous builds = 0
unfix pysimm_md
min_style cg
minimize 0.001 0.001 10000 100000
WARNING: Using 'neigh_modify every 1 delay 0 check yes' setting during minimization (../min.cpp:190)
PPPM initialization ...
  using 12-bit tables for long-range coulomb (../kspace.cpp:332)
  G vector (1/distance) = 0.127737
  grid = 15 15 15
  stencil order = 5
  estimated absolute RMS force accuracy = 0.0224771
  estimated relative force accuracy = 6.76891e-05
  using double precision KISS FFT
  3d grid and FFT values/proc = 8000 3375
Per MPI rank memory allocation (min/avg/max) = 15.28 | 15.28 | 15.28 Mbytes
Step Temp E_pair E_mol TotEng Press 
    2000     649.4528   -130.18614    157.62594    174.56785   -1.8633581 
    2028     649.4528   -152.50518    40.824806    35.447683    4.3615619 
Loop time of 0.0939438 on 1 procs for 28 steps with 77 atoms

100.0% CPU use with 1 MPI tasks x no OpenMP threads

Minimization stats:
  Stopping criterion = linesearch alpha is zero
  Energy initial, next-to-last, final = 
         27.4398013763     -111.680369484     -111.680369484
  Force two-norm initial, final = 378.792 21.0259
  Force max component initial, final = 108.26 5.41427
  Final line search alpha, max atom move = 2.2177e-11 1.20072e-10
  Iterations, force evaluations = 28 111

MPI task timing breakdown:
Section |  min time  |  avg time  |  max time  |%varavg| %total
---------------------------------------------------------------
Pair    | 0.010805   | 0.010805   | 0.010805   |   0.0 | 11.50
Bond    | 0.0035691  | 0.0035691  | 0.0035691  |   0.0 |  3.80
Kspace  | 0.079066   | 0.079066   | 0.079066   |   0.0 | 84.16
Neigh   | 8.4162e-05 | 8.4162e-05 | 8.4162e-05 |   0.0 |  0.09
Comm    | 5.1975e-05 | 5.1975e-05 | 5.1975e-05 |   0.0 |  0.06
Output  | 0          | 0          | 0          |   0.0 |  0.00
Modify  | 0          | 0          | 0          |   0.0 |  0.00
Other   |            | 0.0003676  |            |       |  0.39

Nlocal:    77 ave 77 max 77 min
Histogram: 1 0 0 0 0 0 0 0 0 0
Nghost:    0 ave 0 max 0 min
Histogram: 1 0 0 0 0 0 0 0 0 0
Neighs:    2678 ave 2678 max 2678 min
Histogram: 1 0 0 0 0 0 0 0 0 0

Total # of neighbors = 2678
Ave neighs/atom = 34.7792
Ave special neighs/atom = 11.1169
Neighbor list builds = 1
Dangerous builds = 0
write_dump all custom pysimm.dump.tmp id q x y z vx vy vz
quit


################################################################################
##################################    Init    ##################################
################################################################################
units           real
atom_style      full
pair_style      lj/cut/coul/long 12.0  12.0
kspace_style    pppm 1e-4
bond_style      harmonic
angle_style     harmonic
dihedral_style  fourier
special_bonds   amber
pair_modify     mix arithmetic
read_data       temp.lmps
  orthogonal box = (-58.6004 -58.6004 -58.6004) to (58.6004 58.6004 58.6004)
  1 by 1 by 1 MPI processor grid
  reading atoms ...
  84 atoms
  reading velocities ...
  84 velocities
  scanning bonds ...
  4 = max bonds/atom
  scanning angles ...
  6 = max angles/atom
  scanning dihedrals ...
  13 = max dihedrals/atom
  reading bonds ...
  83 bonds
  reading angles ...
  150 angles
  reading dihedrals ...
  236 dihedrals
  4 = max # of 1-2 neighbors
  7 = max # of 1-3 neighbors
  14 = max # of 1-4 neighbors
  18 = max # of special neighbors
  special bonds CPU = 0.000386 secs
  read_data CPU = 0.00439405 secs
################################################################################

timestep        1
fix             pysimm_md all nve/limit 0.1
run             2000
PPPM initialization ...
  using 12-bit tables for long-range coulomb (../kspace.cpp:332)
  G vector (1/distance) = 0.125249
  grid = 15 15 15
  stencil order = 5
  estimated absolute RMS force accuracy = 0.0245081
  estimated relative force accuracy = 7.38053e-05
  using double precision KISS FFT
  3d grid and FFT values/proc = 8000 3375
Neighbor list info ...
  update every 1 steps, delay 10 steps, check yes
  max neighbors/atom: 2000, page size: 100000
  master list distance cutoff = 14
  ghost atom cutoff = 14
  binsize = 7, bins = 17 17 17
  1 neighbor lists, perpetual/occasional/extra = 1 0 0
  (1) pair lj/cut/coul/long, perpetual
      attributes: half, newton on
      pair build: half/bin/newton
      stencil: half/bin/3d/newton
      bin: standard
Per MPI rank memory allocation (min/avg/max) = 14.16 | 14.16 | 14.16 Mbytes
Step Temp E_pair E_mol TotEng Press 
       0    594.73822   -160.94718    1051.2254    1037.4207    -37.02791 
    2000    670.31804    -151.0917    155.90455    170.65438    2.2537319 
Loop time of 2.00578 on 1 procs for 2000 steps with 84 atoms

Performance: 86.151 ns/day, 0.279 hours/ns, 997.117 timesteps/s
100.0% CPU use with 1 MPI tasks x no OpenMP threads

MPI task timing breakdown:
Section |  min time  |  avg time  |  max time  |%varavg| %total
---------------------------------------------------------------
Pair    | 0.16238    | 0.16238    | 0.16238    |   0.0 |  8.10
Bond    | 0.079053   | 0.079053   | 0.079053   |   0.0 |  3.94
Kspace  | 1.7398     | 1.7398     | 1.7398     |   0.0 | 86.74
Neigh   | 0.013481   | 0.013481   | 0.013481   |   0.0 |  0.67
Comm    | 0.0028389  | 0.0028389  | 0.0028389  |   0.0 |  0.14
Output  | 2.1935e-05 | 2.1935e-05 | 2.1935e-05 |   0.0 |  0.00
Modify  | 0.0040607  | 0.0040607  | 0.0040607  |   0.0 |  0.20
Other   |            | 0.004165   |            |       |  0.21

Nlocal:    84 ave 84 max 84 min
Histogram: 1 0 0 0 0 0 0 0 0 0
Nghost:    150 ave 150 max 150 min
Histogram: 1 0 0 0 0 0 0 0 0 0
Neighs:    2751 ave 2751 max 2751 min
Histogram: 1 0 0 0 0 0 0 0 0 0

Total # of neighbors = 2751
Ave neighs/atom = 32.75
Ave special neighs/atom = 11.1667
Neighbor list builds = 103
Dangerous builds = 0
unfix pysimm_md
min_style cg
minimize 0.001 0.001 10000 100000
WARNING: Using 'neigh_modify every 1 delay 0 check yes' setting during minimization (../min.cpp:190)
PPPM initialization ...
  using 12-bit tables for long-range coulomb (../kspace.cpp:332)
  G vector (1/distance) = 0.125249
  grid = 15 15 15
  stencil order = 5
  estimated absolute RMS force accuracy = 0.0245081
  estimated relative force accuracy = 7.38053e-05
  using double precision KISS FFT
  3d grid and FFT values/proc = 8000 3375
Per MPI rank memory allocation (min/avg/max) = 15.28 | 15.28 | 15.28 Mbytes
Step Temp E_pair E_mol TotEng Press 
    2000    670.31804    -151.0917    155.90455    170.65438    2.2537319 
    2019    670.31804   -163.24307    57.241951    59.840412    3.3607336 
Loop time of 0.0880671 on 1 procs for 19 steps with 84 atoms

99.9% CPU use with 1 MPI tasks x no OpenMP threads

Minimization stats:
  Stopping criterion = linesearch alpha is zero
  Energy initial, next-to-last, final = 
         4.81285167404     -106.001120241     -106.001120241
  Force two-norm initial, final = 408.091 24.4984
  Force max component initial, final = 87.879 4.64756
  Final line search alpha, max atom move = 1.79962e-11 8.36383e-11
  Iterations, force evaluations = 19 94

MPI task timing breakdown:
Section |  min time  |  avg time  |  max time  |%varavg| %total
---------------------------------------------------------------
Pair    | 0.01067    | 0.01067    | 0.01067    |   0.0 | 12.12
Bond    | 0.0036194  | 0.0036194  | 0.0036194  |   0.0 |  4.11
Kspace  | 0.073285   | 0.073285   | 0.073285   |   0.0 | 83.22
Neigh   | 0          | 0          | 0          |   0.0 |  0.00
Comm    | 0.00012684 | 0.00012684 | 0.00012684 |   0.0 |  0.14
Output  | 0          | 0          | 0          |   0.0 |  0.00
Modify  | 0          | 0          | 0          |   0.0 |  0.00
Other   |            | 0.000365   |            |       |  0.41

Nlocal:    84 ave 84 max 84 min
Histogram: 1 0 0 0 0 0 0 0 0 0
Nghost:    150 ave 150 max 150 min
Histogram: 1 0 0 0 0 0 0 0 0 0
Neighs:    2752 ave 2752 max 2752 min
Histogram: 1 0 0 0 0 0 0 0 0 0

Total # of neighbors = 2752
Ave neighs/atom = 32.7619
Ave special neighs/atom = 11.1667
Neighbor list builds = 0
Dangerous builds = 0
write_dump all custom pysimm.dump.tmp id q x y z vx vy vz
quit


################################################################################
##################################    Init    ##################################
################################################################################
units           real
atom_style      full
pair_style      lj/cut/coul/long 12.0  12.0
kspace_style    pppm 1e-4
bond_style      harmonic
angle_style     harmonic
dihedral_style  fourier
special_bonds   amber
pair_modify     mix arithmetic
read_data       temp.lmps
  orthogonal box = (-60.3249 -60.3249 -60.3249) to (60.3249 60.3249 60.3249)
  1 by 1 by 1 MPI processor grid
  reading atoms ...
  91 atoms
  reading velocities ...
  91 velocities
  scanning bonds ...
  4 = max bonds/atom
  scanning angles ...
  6 = max angles/atom
  scanning dihedrals ...
  13 = max dihedrals/atom
  reading bonds ...
  90 bonds
  reading angles ...
  163 angles
  reading dihedrals ...
  257 dihedrals
  4 = max # of 1-2 neighbors
  7 = max # of 1-3 neighbors
  14 = max # of 1-4 neighbors
  18 = max # of special neighbors
  special bonds CPU = 0.00029397 secs
  read_data CPU = 0.00384402 secs
################################################################################

timestep        1
fix             pysimm_md all nve/limit 0.1
run             2000
PPPM initialization ...
  using 12-bit tables for long-range coulomb (../kspace.cpp:332)
  G vector (1/distance) = 0.122989
  grid = 15 15 15
  stencil order = 5
  estimated absolute RMS force accuracy = 0.0264775
  estimated relative force accuracy = 7.97362e-05
  using double precision KISS FFT
  3d grid and FFT values/proc = 8000 3375
Neighbor list info ...
  update every 1 steps, delay 10 steps, check yes
  max neighbors/atom: 2000, page size: 100000
  master list distance cutoff = 14
  ghost atom cutoff = 14
  binsize = 7, bins = 18 18 18
  1 neighbor lists, perpetual/occasional/extra = 1 0 0
  (1) pair lj/cut/coul/long, perpetual
      attributes: half, newton on
      pair build: half/bin/newton
      stencil: half/bin/3d/newton
      bin: standard
Per MPI rank memory allocation (min/avg/max) = 14.16 | 14.16 | 14.16 Mbytes
Step Temp E_pair E_mol TotEng Press 
       0    618.23599   -171.05585    1072.7957    1067.5958    -34.50765 
    2000    566.86232   -159.74909    202.45207    194.77678   -2.7451468 
Loop time of 1.6431 on 1 procs for 2000 steps with 91 atoms

Performance: 105.167 ns/day, 0.228 hours/ns, 1217.214 timesteps/s
100.0% CPU use with 1 MPI tasks x no OpenMP threads

MPI task timing breakdown:
Section |  min time  |  avg time  |  max time  |%varavg| %total
---------------------------------------------------------------
Pair    | 0.13354    | 0.13354    | 0.13354    |   0.0 |  8.13
Bond    | 0.070219   | 0.070219   | 0.070219   |   0.0 |  4.27
Kspace  | 1.4202     | 1.4202     | 1.4202     |   0.0 | 86.44
Neigh   | 0.011338   | 0.011338   | 0.011338   |   0.0 |  0.69
Comm    | 0.00094175 | 0.00094175 | 0.00094175 |   0.0 |  0.06
Output  | 2.0027e-05 | 2.0027e-05 | 2.0027e-05 |   0.0 |  0.00
Modify  | 0.0034096  | 0.0034096  | 0.0034096  |   0.0 |  0.21
Other   |            | 0.003417   |            |       |  0.21

Nlocal:    91 ave 91 max 91 min
Histogram: 1 0 0 0 0 0 0 0 0 0
Nghost:    0 ave 0 max 0 min
Histogram: 1 0 0 0 0 0 0 0 0 0
Neighs:    3142 ave 3142 max 3142 min
Histogram: 1 0 0 0 0 0 0 0 0 0

Total # of neighbors = 3142
Ave neighs/atom = 34.5275
Ave special neighs/atom = 11.2088
Neighbor list builds = 110
Dangerous builds = 0
unfix pysimm_md
min_style cg
minimize 0.001 0.001 10000 100000
WARNING: Using 'neigh_modify every 1 delay 0 check yes' setting during minimization (../min.cpp:190)
PPPM initialization ...
  using 12-bit tables for long-range coulomb (../kspace.cpp:332)
  G vector (1/distance) = 0.122989
  grid = 15 15 15
  stencil order = 5
  estimated absolute RMS force accuracy = 0.0264775
  estimated relative force accuracy = 7.97362e-05
  using double precision KISS FFT
  3d grid and FFT values/proc = 8000 3375
Per MPI rank memory allocation (min/avg/max) = 15.29 | 15.29 | 15.29 Mbytes
Step Temp E_pair E_mol TotEng Press 
    2000    566.86232   -159.74909    202.45207    194.77678   -2.7451468 
    2032    566.86232   -174.95393    52.762794    29.882666    5.3884943 
Loop time of 0.103015 on 1 procs for 32 steps with 91 atoms

100.0% CPU use with 1 MPI tasks x no OpenMP threads

Minimization stats:
  Stopping criterion = linesearch alpha is zero
  Energy initial, next-to-last, final = 
         42.7029755394     -122.191135888     -122.191135888
  Force two-norm initial, final = 484.008 22.2474
  Force max component initial, final = 153.727 5.79499
  Final line search alpha, max atom move = 1.82461e-11 1.05736e-10
  Iterations, force evaluations = 32 119

MPI task timing breakdown:
Section |  min time  |  avg time  |  max time  |%varavg| %total
---------------------------------------------------------------
Pair    | 0.013472   | 0.013472   | 0.013472   |   0.0 | 13.08
Bond    | 0.0045037  | 0.0045037  | 0.0045037  |   0.0 |  4.37
Kspace  | 0.08459    | 0.08459    | 0.08459    |   0.0 | 82.11
Neigh   | 0          | 0          | 0          |   0.0 |  0.00
Comm    | 3.6955e-05 | 3.6955e-05 | 3.6955e-05 |   0.0 |  0.04
Output  | 0          | 0          | 0          |   0.0 |  0.00
Modify  | 0          | 0          | 0          |   0.0 |  0.00
Other   |            | 0.0004125  |            |       |  0.40

Nlocal:    91 ave 91 max 91 min
Histogram: 1 0 0 0 0 0 0 0 0 0
Nghost:    0 ave 0 max 0 min
Histogram: 1 0 0 0 0 0 0 0 0 0
Neighs:    3147 ave 3147 max 3147 min
Histogram: 1 0 0 0 0 0 0 0 0 0

Total # of neighbors = 3147
Ave neighs/atom = 34.5824
Ave special neighs/atom = 11.2088
Neighbor list builds = 0
Dangerous builds = 0
write_dump all custom pysimm.dump.tmp id q x y z vx vy vz
quit


################################################################################
##################################    Init    ##################################
################################################################################
units           real
atom_style      full
pair_style      lj/cut/coul/long 12.0  12.0
kspace_style    pppm 1e-4
bond_style      harmonic
angle_style     harmonic
dihedral_style  fourier
special_bonds   amber
pair_modify     mix arithmetic
read_data       temp.lmps
  orthogonal box = (-61.9561 -61.9561 -61.9561) to (61.9561 61.9561 61.9561)
  1 by 1 by 1 MPI processor grid
  reading atoms ...
  98 atoms
  reading velocities ...
  98 velocities
  scanning bonds ...
  4 = max bonds/atom
  scanning angles ...
  6 = max angles/atom
  scanning dihedrals ...
  13 = max dihedrals/atom
  reading bonds ...
  97 bonds
  reading angles ...
  176 angles
  reading dihedrals ...
  278 dihedrals
  4 = max # of 1-2 neighbors
  7 = max # of 1-3 neighbors
  14 = max # of 1-4 neighbors
  18 = max # of special neighbors
  special bonds CPU = 0.000319958 secs
  read_data CPU = 0.00429201 secs
################################################################################

timestep        1
fix             pysimm_md all nve/limit 0.1
run             2000
PPPM initialization ...
  using 12-bit tables for long-range coulomb (../kspace.cpp:332)
  G vector (1/distance) = 0.120921
  grid = 15 15 15
  stencil order = 5
  estimated absolute RMS force accuracy = 0.0283876
  estimated relative force accuracy = 8.54885e-05
  using double precision KISS FFT
  3d grid and FFT values/proc = 8000 3375
Neighbor list info ...
  update every 1 steps, delay 10 steps, check yes
  max neighbors/atom: 2000, page size: 100000
  master list distance cutoff = 14
  ghost atom cutoff = 14
  binsize = 7, bins = 18 18 18
  1 neighbor lists, perpetual/occasional/extra = 1 0 0
  (1) pair lj/cut/coul/long, perpetual
      attributes: half, newton on
      pair build: half/bin/newton
      stencil: half/bin/3d/newton
      bin: standard
Per MPI rank memory allocation (min/avg/max) = 14.16 | 14.16 | 14.16 Mbytes
Step Temp E_pair E_mol TotEng Press 
       0    526.00491   -183.97421    1054.1021    1022.2162   -29.525177 
    2000    611.47363   -178.98131    173.03748    170.85678    2.3755414 
Loop time of 1.70244 on 1 procs for 2000 steps with 98 atoms

Performance: 101.501 ns/day, 0.236 hours/ns, 1174.784 timesteps/s
100.0% CPU use with 1 MPI tasks x no OpenMP threads

MPI task timing breakdown:
Section |  min time  |  avg time  |  max time  |%varavg| %total
---------------------------------------------------------------
Pair    | 0.14458    | 0.14458    | 0.14458    |   0.0 |  8.49
Bond    | 0.075719   | 0.075719   | 0.075719   |   0.0 |  4.45
Kspace  | 1.4604     | 1.4604     | 1.4604     |   0.0 | 85.78
Neigh   | 0.013208   | 0.013208   | 0.013208   |   0.0 |  0.78
Comm    | 0.0013714  | 0.0013714  | 0.0013714  |   0.0 |  0.08
Output  | 1.9073e-05 | 1.9073e-05 | 1.9073e-05 |   0.0 |  0.00
Modify  | 0.0037794  | 0.0037794  | 0.0037794  |   0.0 |  0.22
Other   |            | 0.003364   |            |       |  0.20

Nlocal:    98 ave 98 max 98 min
Histogram: 1 0 0 0 0 0 0 0 0 0
Nghost:    6 ave 6 max 6 min
Histogram: 1 0 0 0 0 0 0 0 0 0
Neighs:    3242 ave 3242 max 3242 min
Histogram: 1 0 0 0 0 0 0 0 0 0

Total # of neighbors = 3242
Ave neighs/atom = 33.0816
Ave special neighs/atom = 11.2449
Neighbor list builds = 114
Dangerous builds = 0
unfix pysimm_md
min_style cg
minimize 0.001 0.001 10000 100000
WARNING: Using 'neigh_modify every 1 delay 0 check yes' setting during minimization (../min.cpp:190)
PPPM initialization ...
  using 12-bit tables for long-range coulomb (../kspace.cpp:332)
  G vector (1/distance) = 0.120921
  grid = 15 15 15
  stencil order = 5
  estimated absolute RMS force accuracy = 0.0283876
  estimated relative force accuracy = 8.54885e-05
  using double precision KISS FFT
  3d grid and FFT values/proc = 8000 3375
Per MPI rank memory allocation (min/avg/max) = 15.29 | 15.29 | 15.29 Mbytes
Step Temp E_pair E_mol TotEng Press 
    2000    611.47363   -178.98131    173.03748    170.85678    2.3755414 
    2027    611.47363   -201.21011    50.110573    25.701081    3.9065254 
Loop time of 0.0465648 on 1 procs for 27 steps with 98 atoms

100.9% CPU use with 1 MPI tasks x no OpenMP threads

Minimization stats:
  Stopping criterion = energy tolerance
  Energy initial, next-to-last, final = 
        -5.94383356909     -150.980430102     -151.099533684
  Force two-norm initial, final = 374.114 19.3604
  Force max component initial, final = 84.6322 3.59452
  Final line search alpha, max atom move = 0.00711035 0.0255583
  Iterations, force evaluations = 27 54

MPI task timing breakdown:
Section |  min time  |  avg time  |  max time  |%varavg| %total
---------------------------------------------------------------
Pair    | 0.0064011  | 0.0064011  | 0.0064011  |   0.0 | 13.75
Bond    | 0.0022507  | 0.0022507  | 0.0022507  |   0.0 |  4.83
Kspace  | 0.037645   | 0.037645   | 0.037645   |   0.0 | 80.84
Neigh   | 0          | 0          | 0          |   0.0 |  0.00
Comm    | 2.6464e-05 | 2.6464e-05 | 2.6464e-05 |   0.0 |  0.06
Output  | 0          | 0          | 0          |   0.0 |  0.00
Modify  | 0          | 0          | 0          |   0.0 |  0.00
Other   |            | 0.0002415  |            |       |  0.52

Nlocal:    98 ave 98 max 98 min
Histogram: 1 0 0 0 0 0 0 0 0 0
Nghost:    6 ave 6 max 6 min
Histogram: 1 0 0 0 0 0 0 0 0 0
Neighs:    3249 ave 3249 max 3249 min
Histogram: 1 0 0 0 0 0 0 0 0 0

Total # of neighbors = 3249
Ave neighs/atom = 33.1531
Ave special neighs/atom = 11.2449
Neighbor list builds = 0
Dangerous builds = 0
write_dump all custom pysimm.dump.tmp id q x y z vx vy vz
quit


################################################################################
##################################    Init    ##################################
################################################################################
units           real
atom_style      full
pair_style      lj/cut/coul/long 12.0  12.0
kspace_style    pppm 1e-4
bond_style      harmonic
angle_style     harmonic
dihedral_style  fourier
special_bonds   amber
pair_modify     mix arithmetic
read_data       temp.lmps
  orthogonal box = (-63.5057 -63.5057 -63.5057) to (63.5057 63.5057 63.5057)
  1 by 1 by 1 MPI processor grid
  reading atoms ...
  105 atoms
  reading velocities ...
  105 velocities
  scanning bonds ...
  4 = max bonds/atom
  scanning angles ...
  6 = max angles/atom
  scanning dihedrals ...
  13 = max dihedrals/atom
  reading bonds ...
  104 bonds
  reading angles ...
  189 angles
  reading dihedrals ...
  299 dihedrals
  4 = max # of 1-2 neighbors
  7 = max # of 1-3 neighbors
  14 = max # of 1-4 neighbors
  18 = max # of special neighbors
  special bonds CPU = 0.000225067 secs
  read_data CPU = 0.0039041 secs
################################################################################

timestep        1
fix             pysimm_md all nve/limit 0.1
run             2000
PPPM initialization ...
  using 12-bit tables for long-range coulomb (../kspace.cpp:332)
  G vector (1/distance) = 0.119017
  grid = 15 15 15
  stencil order = 5
  estimated absolute RMS force accuracy = 0.0302409
  estimated relative force accuracy = 9.10694e-05
  using double precision KISS FFT
  3d grid and FFT values/proc = 8000 3375
Neighbor list info ...
  update every 1 steps, delay 10 steps, check yes
  max neighbors/atom: 2000, page size: 100000
  master list distance cutoff = 14
  ghost atom cutoff = 14
  binsize = 7, bins = 19 19 19
  1 neighbor lists, perpetual/occasional/extra = 1 0 0
  (1) pair lj/cut/coul/long, perpetual
      attributes: half, newton on
      pair build: half/bin/newton
      stencil: half/bin/3d/newton
      bin: standard
Per MPI rank memory allocation (min/avg/max) = 14.17 | 14.17 | 14.17 Mbytes
Step Temp E_pair E_mol TotEng Press 
       0    570.36344   -209.71993    1053.6732    1020.7684   -28.201287 
    2000    602.17139   -202.04183    180.51871    165.15256   -4.2603656 
Loop time of 2.03565 on 1 procs for 2000 steps with 105 atoms

Performance: 84.887 ns/day, 0.283 hours/ns, 982.488 timesteps/s
100.1% CPU use with 1 MPI tasks x no OpenMP threads

MPI task timing breakdown:
Section |  min time  |  avg time  |  max time  |%varavg| %total
---------------------------------------------------------------
Pair    | 0.20124    | 0.20124    | 0.20124    |   0.0 |  9.89
Bond    | 0.095801   | 0.095801   | 0.095801   |   0.0 |  4.71
Kspace  | 1.7128     | 1.7128     | 1.7128     |   0.0 | 84.14
Neigh   | 0.015847   | 0.015847   | 0.015847   |   0.0 |  0.78
Comm    | 0.0014307  | 0.0014307  | 0.0014307  |   0.0 |  0.07
Output  | 2.0981e-05 | 2.0981e-05 | 2.0981e-05 |   0.0 |  0.00
Modify  | 0.0044298  | 0.0044298  | 0.0044298  |   0.0 |  0.22
Other   |            | 0.004115   |            |       |  0.20

Nlocal:    105 ave 105 max 105 min
Histogram: 1 0 0 0 0 0 0 0 0 0
Nghost:    1 ave 1 max 1 min
Histogram: 1 0 0 0 0 0 0 0 0 0
Neighs:    4338 ave 4338 max 4338 min
Histogram: 1 0 0 0 0 0 0 0 0 0

Total # of neighbors = 4338
Ave neighs/atom = 41.3143
Ave special neighs/atom = 11.2762
Neighbor list builds = 101
Dangerous builds = 0
unfix pysimm_md
min_style cg
minimize 0.001 0.001 10000 100000
WARNING: Using 'neigh_modify every 1 delay 0 check yes' setting during minimization (../min.cpp:190)
PPPM initialization ...
  using 12-bit tables for long-range coulomb (../kspace.cpp:332)
  G vector (1/distance) = 0.119017
  grid = 15 15 15
  stencil order = 5
  estimated absolute RMS force accuracy = 0.0302409
  estimated relative force accuracy = 9.10694e-05
  using double precision KISS FFT
  3d grid and FFT values/proc = 8000 3375
Per MPI rank memory allocation (min/avg/max) = 15.29 | 15.29 | 15.29 Mbytes
Step Temp E_pair E_mol TotEng Press 
    2000    602.17139   -202.04183    180.51871    165.15256   -4.2603656 
    2036    602.17139   -227.07993    58.035708     17.63146    4.5551192 
Loop time of 0.0631669 on 1 procs for 36 steps with 105 atoms

99.7% CPU use with 1 MPI tasks x no OpenMP threads

Minimization stats:
  Stopping criterion = energy tolerance
  Energy initial, next-to-last, final = 
        -21.5231243937     -168.997769842     -169.044226362
  Force two-norm initial, final = 369.536 21.1742
  Force max component initial, final = 81.2004 5.48134
[...]
Histogram: 1 0 0 0 0 0 0 0 0 0
Neighs:    18009 ave 18009 max 18009 min
Histogram: 1 0 0 0 0 0 0 0 0 0

Total # of neighbors = 18009
Ave neighs/atom = 54.7386
Ave special neighs/atom = 11.5745
Neighbor list builds = 107
Dangerous builds = 0
unfix pysimm_md
min_style cg
minimize 0.001 0.001 10000 100000
WARNING: Using 'neigh_modify every 1 delay 0 check yes' setting during minimization (../min.cpp:190)
PPPM initialization ...
  using 12-bit tables for long-range coulomb (../kspace.cpp:332)
  G vector (1/distance) = 0.110754
  grid = 20 20 20
  stencil order = 5
  estimated absolute RMS force accuracy = 0.0388153
  estimated relative force accuracy = 0.000116891
  using double precision KISS FFT
  3d grid and FFT values/proc = 15625 8000
Per MPI rank memory allocation (min/avg/max) = 16.08 | 16.08 | 16.08 Mbytes
Step Temp E_pair E_mol TotEng Press 
    2000    187.83037   -773.54813    324.77953   -265.12577   -2.3858012 
    2014    187.83037   -787.36927    198.49589   -405.23055   0.76733425 
Loop time of 0.215648 on 1 procs for 14 steps with 329 atoms

99.7% CPU use with 1 MPI tasks x no OpenMP threads

Minimization stats:
  Stopping criterion = linesearch alpha is zero
  Energy initial, next-to-last, final = 
        -448.768597641     -588.873375847     -588.873375847
  Force two-norm initial, final = 421.044 31.215
  Force max component initial, final = 93.1685 6.28367
  Final line search alpha, max atom move = 1.19239e-11 7.49258e-11
  Iterations, force evaluations = 14 85

MPI task timing breakdown:
Section |  min time  |  avg time  |  max time  |%varavg| %total
---------------------------------------------------------------
Pair    | 0.054399   | 0.054399   | 0.054399   |   0.0 | 25.23
Bond    | 0.012598   | 0.012598   | 0.012598   |   0.0 |  5.84
Kspace  | 0.14804    | 0.14804    | 0.14804    |   0.0 | 68.65
Neigh   | 0          | 0          | 0          |   0.0 |  0.00
Comm    | 4.7207e-05 | 4.7207e-05 | 4.7207e-05 |   0.0 |  0.02
Output  | 0          | 0          | 0          |   0.0 |  0.00
Modify  | 0          | 0          | 0          |   0.0 |  0.00
Other   |            | 0.0005682  |            |       |  0.26

Nlocal:    329 ave 329 max 329 min
Histogram: 1 0 0 0 0 0 0 0 0 0
Nghost:    0 ave 0 max 0 min
Histogram: 1 0 0 0 0 0 0 0 0 0
Neighs:    18010 ave 18010 max 18010 min
Histogram: 1 0 0 0 0 0 0 0 0 0

Total # of neighbors = 18010
Ave neighs/atom = 54.7416
Ave special neighs/atom = 11.5745
Neighbor list builds = 0
Dangerous builds = 0
write_dump all custom pysimm.dump.tmp id q x y z vx vy vz
quit


################################################################################
##################################    Init    ##################################
################################################################################
units           real
atom_style      full
pair_style      lj/cut/coul/long 12.0  12.0
kspace_style    pppm 1e-4
bond_style      harmonic
angle_style     harmonic
dihedral_style  fourier
special_bonds   amber
pair_modify     mix arithmetic
read_data       temp.lmps
  orthogonal box = (-95.0902 -95.0902 -95.0902) to (95.0902 95.0902 95.0902)
  1 by 1 by 1 MPI processor grid
  reading atoms ...
  336 atoms
  reading velocities ...
  336 velocities
  scanning bonds ...
  4 = max bonds/atom
  scanning angles ...
  6 = max angles/atom
  scanning dihedrals ...
  13 = max dihedrals/atom
  reading bonds ...
  335 bonds
  reading angles ...
  618 angles
  reading dihedrals ...
  992 dihedrals
  4 = max # of 1-2 neighbors
  7 = max # of 1-3 neighbors
  14 = max # of 1-4 neighbors
  18 = max # of special neighbors
  special bonds CPU = 0.000447035 secs
  read_data CPU = 0.00587583 secs
################################################################################

timestep        1
fix             pysimm_md all nve/limit 0.1
run             2000
PPPM initialization ...
  using 12-bit tables for long-range coulomb (../kspace.cpp:332)
  G vector (1/distance) = 0.110218
  grid = 20 20 20
  stencil order = 5
  estimated absolute RMS force accuracy = 0.0394741
  estimated relative force accuracy = 0.000118875
  using double precision KISS FFT
  3d grid and FFT values/proc = 15625 8000
Neighbor list info ...
  update every 1 steps, delay 10 steps, check yes
  max neighbors/atom: 2000, page size: 100000
  master list distance cutoff = 14
  ghost atom cutoff = 14
  binsize = 7, bins = 28 28 28
  1 neighbor lists, perpetual/occasional/extra = 1 0 0
  (1) pair lj/cut/coul/long, perpetual
      attributes: half, newton on
      pair build: half/bin/newton
      stencil: half/bin/3d/newton
      bin: standard
Per MPI rank memory allocation (min/avg/max) = 14.97 | 14.97 | 14.97 Mbytes
Step Temp E_pair E_mol TotEng Press 
       0    183.91997   -795.45607    1214.5592    602.76033   -8.8728632 
    2000     184.9351   -776.72048     335.6285   -256.42108  0.071591958 
Loop time of 4.49801 on 1 procs for 2000 steps with 336 atoms

Performance: 38.417 ns/day, 0.625 hours/ns, 444.641 timesteps/s
100.0% CPU use with 1 MPI tasks x no OpenMP threads

MPI task timing breakdown:
Section |  min time  |  avg time  |  max time  |%varavg| %total
---------------------------------------------------------------
Pair    | 0.8212     | 0.8212     | 0.8212     |   0.0 | 18.26
Bond    | 0.27415    | 0.27415    | 0.27415    |   0.0 |  6.10
Kspace  | 3.326      | 3.326      | 3.326      |   0.0 | 73.94
Neigh   | 0.058183   | 0.058183   | 0.058183   |   0.0 |  1.29
Comm    | 0.0016642  | 0.0016642  | 0.0016642  |   0.0 |  0.04
Output  | 2.3127e-05 | 2.3127e-05 | 2.3127e-05 |   0.0 |  0.00
Modify  | 0.011431   | 0.011431   | 0.011431   |   0.0 |  0.25
Other   |            | 0.005301   |            |       |  0.12

Nlocal:    336 ave 336 max 336 min
Histogram: 1 0 0 0 0 0 0 0 0 0
Nghost:    0 ave 0 max 0 min
Histogram: 1 0 0 0 0 0 0 0 0 0
Neighs:    18376 ave 18376 max 18376 min
Histogram: 1 0 0 0 0 0 0 0 0 0

Total # of neighbors = 18376
Ave neighs/atom = 54.6905
Ave special neighs/atom = 11.5774
Neighbor list builds = 109
Dangerous builds = 0
unfix pysimm_md
min_style cg
minimize 0.001 0.001 10000 100000
WARNING: Using 'neigh_modify every 1 delay 0 check yes' setting during minimization (../min.cpp:190)
PPPM initialization ...
  using 12-bit tables for long-range coulomb (../kspace.cpp:332)
  G vector (1/distance) = 0.110218
  grid = 20 20 20
  stencil order = 5
  estimated absolute RMS force accuracy = 0.0394741
  estimated relative force accuracy = 0.000118875
  using double precision KISS FFT
  3d grid and FFT values/proc = 15625 8000
Per MPI rank memory allocation (min/avg/max) = 16.09 | 16.09 | 16.09 Mbytes
Step Temp E_pair E_mol TotEng Press 
    2000     184.9351   -776.72048     335.6285   -256.42108  0.071591958 
    2012     184.9351   -790.03741    207.28206   -398.08445    0.6964285 
Loop time of 0.0620949 on 1 procs for 12 steps with 336 atoms

99.8% CPU use with 1 MPI tasks x no OpenMP threads

Minimization stats:
  Stopping criterion = energy tolerance
  Energy initial, next-to-last, final = 
        -441.091980742     -582.436957346      -582.75535238
  Force two-norm initial, final = 436.773 34.1364
  Force max component initial, final = 113.65 6.11199
  Final line search alpha, max atom move = 0.00519536 0.031754
  Iterations, force evaluations = 12 24

MPI task timing breakdown:
Section |  min time  |  avg time  |  max time  |%varavg| %total
---------------------------------------------------------------
Pair    | 0.016271   | 0.016271   | 0.016271   |   0.0 | 26.20
Bond    | 0.0036409  | 0.0036409  | 0.0036409  |   0.0 |  5.86
Kspace  | 0.041907   | 0.041907   | 0.041907   |   0.0 | 67.49
Neigh   | 0          | 0          | 0          |   0.0 |  0.00
Comm    | 1.2636e-05 | 1.2636e-05 | 1.2636e-05 |   0.0 |  0.02
Output  | 0          | 0          | 0          |   0.0 |  0.00
Modify  | 0          | 0          | 0          |   0.0 |  0.00
Other   |            | 0.0002632  |            |       |  0.42

Nlocal:    336 ave 336 max 336 min
Histogram: 1 0 0 0 0 0 0 0 0 0
Nghost:    0 ave 0 max 0 min
Histogram: 1 0 0 0 0 0 0 0 0 0
Neighs:    18377 ave 18377 max 18377 min
Histogram: 1 0 0 0 0 0 0 0 0 0

Total # of neighbors = 18377
Ave neighs/atom = 54.6935
Ave special neighs/atom = 11.5774
Neighbor list builds = 0
Dangerous builds = 0
write_dump all custom pysimm.dump.tmp id q x y z vx vy vz
quit


################################################################################
##################################    Init    ##################################
################################################################################
units           real
atom_style      full
pair_style      lj/cut/coul/long 12.0  12.0
kspace_style    pppm 1e-4
bond_style      harmonic
angle_style     harmonic
dihedral_style  fourier
special_bonds   amber
pair_modify     mix arithmetic
read_data       temp.lmps
  orthogonal box = (-95.7599 -95.7599 -95.7599) to (95.7599 95.7599 95.7599)
  1 by 1 by 1 MPI processor grid
  reading atoms ...
  343 atoms
  reading velocities ...
  343 velocities
  scanning bonds ...
  4 = max bonds/atom
  scanning angles ...
  6 = max angles/atom
  scanning dihedrals ...
  13 = max dihedrals/atom
  reading bonds ...
  342 bonds
  reading angles ...
  631 angles
  reading dihedrals ...
  1013 dihedrals
  4 = max # of 1-2 neighbors
  7 = max # of 1-3 neighbors
  14 = max # of 1-4 neighbors
  18 = max # of special neighbors
  special bonds CPU = 0.000442982 secs
  read_data CPU = 0.00600195 secs
################################################################################

timestep        1
fix             pysimm_md all nve/limit 0.1
run             2000
PPPM initialization ...
  using 12-bit tables for long-range coulomb (../kspace.cpp:332)
  G vector (1/distance) = 0.123604
  grid = 24 24 24
  stencil order = 5
  estimated absolute RMS force accuracy = 0.0251474
  estimated relative force accuracy = 7.57307e-05
  using double precision KISS FFT
  3d grid and FFT values/proc = 24389 13824
Neighbor list info ...
  update every 1 steps, delay 10 steps, check yes
  max neighbors/atom: 2000, page size: 100000
  master list distance cutoff = 14
  ghost atom cutoff = 14
  binsize = 7, bins = 28 28 28
  1 neighbor lists, perpetual/occasional/extra = 1 0 0
  (1) pair lj/cut/coul/long, perpetual
      attributes: half, newton on
      pair build: half/bin/newton
      stencil: half/bin/3d/newton
      bin: standard
Per MPI rank memory allocation (min/avg/max) = 15.8 | 15.8 | 15.8 Mbytes
Step Temp E_pair E_mol TotEng Press 
       0    181.16409   -799.09526    1208.7731    594.36324   -8.6592696 
    2000    194.90966   -793.56024    328.36847   -266.49365  0.026517373 
Loop time of 7.30566 on 1 procs for 2000 steps with 343 atoms

Performance: 23.653 ns/day, 1.015 hours/ns, 273.760 timesteps/s
100.0% CPU use with 1 MPI tasks x no OpenMP threads

MPI task timing breakdown:
Section |  min time  |  avg time  |  max time  |%varavg| %total
---------------------------------------------------------------
Pair    | 0.81753    | 0.81753    | 0.81753    |   0.0 | 11.19
Bond    | 0.27608    | 0.27608    | 0.27608    |   0.0 |  3.78
Kspace  | 6.1307     | 6.1307     | 6.1307     |   0.0 | 83.92
Neigh   | 0.062923   | 0.062923   | 0.062923   |   0.0 |  0.86
Comm    | 0.0015574  | 0.0015574  | 0.0015574  |   0.0 |  0.02
Output  | 1.7881e-05 | 1.7881e-05 | 1.7881e-05 |   0.0 |  0.00
Modify  | 0.011252   | 0.011252   | 0.011252   |   0.0 |  0.15
Other   |            | 0.005573   |            |       |  0.08

Nlocal:    343 ave 343 max 343 min
Histogram: 1 0 0 0 0 0 0 0 0 0
Nghost:    0 ave 0 max 0 min
Histogram: 1 0 0 0 0 0 0 0 0 0
Neighs:    19234 ave 19234 max 19234 min
Histogram: 1 0 0 0 0 0 0 0 0 0

Total # of neighbors = 19234
Ave neighs/atom = 56.0758
Ave special neighs/atom = 11.5802
Neighbor list builds = 111
Dangerous builds = 0
unfix pysimm_md
min_style cg
minimize 0.001 0.001 10000 100000
WARNING: Using 'neigh_modify every 1 delay 0 check yes' setting during minimization (../min.cpp:190)
PPPM initialization ...
  using 12-bit tables for long-range coulomb (../kspace.cpp:332)
  G vector (1/distance) = 0.123604
  grid = 24 24 24
  stencil order = 5
  estimated absolute RMS force accuracy = 0.0251474
  estimated relative force accuracy = 7.57307e-05
  using double precision KISS FFT
  3d grid and FFT values/proc = 24389 13824
Per MPI rank memory allocation (min/avg/max) = 16.92 | 16.92 | 16.92 Mbytes
Step Temp E_pair E_mol TotEng Press 
    2000    194.90966   -793.56024    328.36847   -266.49365  0.026517373 
    2013    194.90966   -809.59627    196.77909   -414.11906    1.3169391 
Loop time of 0.101377 on 1 procs for 13 steps with 343 atoms

99.6% CPU use with 1 MPI tasks x no OpenMP threads

Minimization stats:
  Stopping criterion = energy tolerance
  Energy initial, next-to-last, final = 
        -465.191775297     -612.298447074     -612.817187073
  Force two-norm initial, final = 448.844 36.6716
  Force max component initial, final = 142.553 7.92617
  Final line search alpha, max atom move = 0.00385042 0.0305191
  Iterations, force evaluations = 13 26

MPI task timing breakdown:
Section |  min time  |  avg time  |  max time  |%varavg| %total
---------------------------------------------------------------
Pair    | 0.018065   | 0.018065   | 0.018065   |   0.0 | 17.82
Bond    | 0.0040667  | 0.0040667  | 0.0040667  |   0.0 |  4.01
Kspace  | 0.07898    | 0.07898    | 0.07898    |   0.0 | 77.91
Neigh   | 0          | 0          | 0          |   0.0 |  0.00
Comm    | 1.3351e-05 | 1.3351e-05 | 1.3351e-05 |   0.0 |  0.01
Output  | 0          | 0          | 0          |   0.0 |  0.00
Modify  | 0          | 0          | 0          |   0.0 |  0.00
Other   |            | 0.0002522  |            |       |  0.25

Nlocal:    343 ave 343 max 343 min
Histogram: 1 0 0 0 0 0 0 0 0 0
Nghost:    0 ave 0 max 0 min
Histogram: 1 0 0 0 0 0 0 0 0 0
Neighs:    19244 ave 19244 max 19244 min
Histogram: 1 0 0 0 0 0 0 0 0 0

Total # of neighbors = 19244
Ave neighs/atom = 56.105
Ave special neighs/atom = 11.5802
Neighbor list builds = 0
Dangerous builds = 0
write_dump all custom pysimm.dump.tmp id q x y z vx vy vz
quit


################################################################################
##################################    Init    ##################################
################################################################################
units           real
atom_style      full
pair_style      lj/cut/coul/long 12.0  12.0
kspace_style    pppm 1e-4
bond_style      harmonic
angle_style     harmonic
dihedral_style  fourier
special_bonds   amber
pair_modify     mix arithmetic
read_data       temp.lmps
  orthogonal box = (-96.4203 -96.4203 -96.4203) to (96.4203 96.4203 96.4203)
  1 by 1 by 1 MPI processor grid
  reading atoms ...
  350 atoms
  reading velocities ...
  350 velocities
  scanning bonds ...
  4 = max bonds/atom
  scanning angles ...
  6 = max angles/atom
  scanning dihedrals ...
  13 = max dihedrals/atom
  reading bonds ...
  349 bonds
  reading angles ...
  644 angles
  reading dihedrals ...
  1034 dihedrals
  4 = max # of 1-2 neighbors
  7 = max # of 1-3 neighbors
  14 = max # of 1-4 neighbors
  18 = max # of special neighbors
  special bonds CPU = 0.000470161 secs
  read_data CPU = 0.00612378 secs
################################################################################

timestep        1
fix             pysimm_md all nve/limit 0.1
run             2000
PPPM initialization ...
  using 12-bit tables for long-range coulomb (../kspace.cpp:332)
  G vector (1/distance) = 0.123069
  grid = 24 24 24
  stencil order = 5
  estimated absolute RMS force accuracy = 0.0256241
  estimated relative force accuracy = 7.71663e-05
  using double precision KISS FFT
  3d grid and FFT values/proc = 24389 13824
Neighbor list info ...
  update every 1 steps, delay 10 steps, check yes
  max neighbors/atom: 2000, page size: 100000
  master list distance cutoff = 14
  ghost atom cutoff = 14
  binsize = 7, bins = 28 28 28
  1 neighbor lists, perpetual/occasional/extra = 1 0 0
  (1) pair lj/cut/coul/long, perpetual
      attributes: half, newton on
      pair build: half/bin/newton
      stencil: half/bin/3d/newton
      bin: standard
Per MPI rank memory allocation (min/avg/max) = 15.8 | 15.8 | 15.8 Mbytes
Step Temp E_pair E_mol TotEng Press 
       0    191.01425   -817.29365    1202.6298    584.04878    -7.802484 
    2000    195.88882   -800.67216    337.74358   -259.14491  -0.50770165 
Loop time of 7.31762 on 1 procs for 2000 steps with 350 atoms

Performance: 23.614 ns/day, 1.016 hours/ns, 273.313 timesteps/s
100.0% CPU use with 1 MPI tasks x no OpenMP threads

MPI task timing breakdown:
Section |  min time  |  avg time  |  max time  |%varavg| %total
---------------------------------------------------------------
Pair    | 0.885      | 0.885      | 0.885      |   0.0 | 12.09
Bond    | 0.27934    | 0.27934    | 0.27934    |   0.0 |  3.82
Kspace  | 6.0737     | 6.0737     | 6.0737     |   0.0 | 83.00
Neigh   | 0.061027   | 0.061027   | 0.061027   |   0.0 |  0.83
Comm    | 0.0016482  | 0.0016482  | 0.0016482  |   0.0 |  0.02
Output  | 2.1935e-05 | 2.1935e-05 | 2.1935e-05 |   0.0 |  0.00
Modify  | 0.011333   | 0.011333   | 0.011333   |   0.0 |  0.15
Other   |            | 0.005533   |            |       |  0.08

Nlocal:    350 ave 350 max 350 min
Histogram: 1 0 0 0 0 0 0 0 0 0
Nghost:    0 ave 0 max 0 min
Histogram: 1 0 0 0 0 0 0 0 0 0
Neighs:    19293 ave 19293 max 19293 min
Histogram: 1 0 0 0 0 0 0 0 0 0

Total # of neighbors = 19293
Ave neighs/atom = 55.1229
Ave special neighs/atom = 11.5829
Neighbor list builds = 105
Dangerous builds = 0
unfix pysimm_md
min_style cg
minimize 0.001 0.001 10000 100000
WARNING: Using 'neigh_modify every 1 delay 0 check yes' setting during minimization (../min.cpp:190)
PPPM initialization ...
  using 12-bit tables for long-range coulomb (../kspace.cpp:332)
  G vector (1/distance) = 0.123069
  grid = 24 24 24
  stencil order = 5
  estimated absolute RMS force accuracy = 0.0256241
  estimated relative force accuracy = 7.71663e-05
  using double precision KISS FFT
  3d grid and FFT values/proc = 24389 13824
Per MPI rank memory allocation (min/avg/max) = 16.92 | 16.92 | 16.92 Mbytes
Step Temp E_pair E_mol TotEng Press 
    2000    195.88882   -800.67216    337.74358   -259.14491  -0.50770165 
    2022    195.88882   -816.04915    198.14305   -414.12244   0.91398259 
Loop time of 0.171208 on 1 procs for 22 steps with 350 atoms

99.9% CPU use with 1 MPI tasks x no OpenMP threads

Minimization stats:
  Stopping criterion = energy tolerance
  Energy initial, next-to-last, final = 
        -462.928586173     -617.430430782     -617.906108248
  Force two-norm initial, final = 435.602 31.5086
  Force max component initial, final = 99.6456 5.85509
  Final line search alpha, max atom move = 0.00278787 0.0163232
  Iterations, force evaluations = 22 44

MPI task timing breakdown:
Section |  min time  |  avg time  |  max time  |%varavg| %total
---------------------------------------------------------------
Pair    | 0.030091   | 0.030091   | 0.030091   |   0.0 | 17.58
Bond    | 0.0068018  | 0.0068018  | 0.0068018  |   0.0 |  3.97
Kspace  | 0.13385    | 0.13385    | 0.13385    |   0.0 | 78.18
Neigh   | 0          | 0          | 0          |   0.0 |  0.00
Comm    | 2.1696e-05 | 2.1696e-05 | 2.1696e-05 |   0.0 |  0.01
Output  | 0          | 0          | 0          |   0.0 |  0.00
Modify  | 0          | 0          | 0          |   0.0 |  0.00
Other   |            | 0.0004389  |            |       |  0.26

Nlocal:    350 ave 350 max 350 min
Histogram: 1 0 0 0 0 0 0 0 0 0
Nghost:    0 ave 0 max 0 min
Histogram: 1 0 0 0 0 0 0 0 0 0
Neighs:    19285 ave 19285 max 19285 min
Histogram: 1 0 0 0 0 0 0 0 0 0

Total # of neighbors = 19285
Ave neighs/atom = 55.1
Ave special neighs/atom = 11.5829
Neighbor list builds = 0
Dangerous builds = 0
write_dump all custom pysimm.dump.tmp id q x y z vx vy vz
quit
