

################################################################################
##################################    Init    ##################################
################################################################################
units           real
atom_style      full
pair_style      lj/cut/coul/long 12.0  12.0
kspace_style    pppm 1e-4
bond_style      harmonic
angle_style     harmonic
dihedral_style  fourier
improper_style  cvff
special_bonds   amber
pair_modify     mix arithmetic
read_data       temp.lmps
  orthogonal box = (-59.2383 -59.2383 -59.2383) to (59.2383 59.2383 59.2383)
  1 by 1 by 1 MPI processor grid
  reading atoms ...
  152 atoms
  reading velocities ...
  152 velocities
  scanning bonds ...
  4 = max bonds/atom
  scanning angles ...
  6 = max angles/atom
  scanning dihedrals ...
  20 = max dihedrals/atom
  scanning impropers ...
  1 = max impropers/atom
  reading bonds ...
  151 bonds
  reading angles ...
  280 angles
  reading dihedrals ...
  371 dihedrals
  reading impropers ...
  10 impropers
  4 = max # of 1-2 neighbors
  11 = max # of 1-3 neighbors
  22 = max # of 1-4 neighbors
  26 = max # of special neighbors
  special bonds CPU = 0.00031209 secs
  read_data CPU = 0.00466204 secs
################################################################################

min_style cg
minimize 1e-06 1e-06 1000000 10000000
WARNING: Using 'neigh_modify every 1 delay 0 check yes' setting during minimization (../min.cpp:190)
PPPM initialization ...
  using 12-bit tables for long-range coulomb (../kspace.cpp:332)
  G vector (1/distance) = 0.124404
  grid = 15 15 15
  stencil order = 5
  estimated absolute RMS force accuracy = 0.0230699
  estimated relative force accuracy = 6.94743e-05
  using double precision KISS FFT
  3d grid and FFT values/proc = 8000 3375
Neighbor list info ...
  update every 1 steps, delay 0 steps, check yes
  max neighbors/atom: 2000, page size: 100000
  master list distance cutoff = 14
  ghost atom cutoff = 14
  binsize = 7, bins = 17 17 17
  1 neighbor lists, perpetual/occasional/extra = 1 0 0
  (1) pair lj/cut/coul/long, perpetual
      attributes: half, newton on
      pair build: half/bin/newton
      stencil: half/bin/3d/newton
      bin: standard
Per MPI rank memory allocation (min/avg/max) = 18.29 | 18.29 | 18.29 Mbytes
Step Temp E_pair E_mol TotEng Press 
       0     750.2176    277.24679    256.27193     871.1934   -4.0838663 
      49     750.2176    278.76183     107.9246    724.36112    8.7663458 
Loop time of 0.177919 on 1 procs for 49 steps with 152 atoms

100.0% CPU use with 1 MPI tasks x no OpenMP threads

Minimization stats:
  Stopping criterion = linesearch alpha is zero
  Energy initial, next-to-last, final = 
         533.518718034      386.686437742      386.686437742
  Force two-norm initial, final = 598.555 20.6181
  Force max component initial, final = 316.032 10.3807
  Final line search alpha, max atom move = 1.61018e-11 1.67148e-10
  Iterations, force evaluations = 49 151

MPI task timing breakdown:
Section |  min time  |  avg time  |  max time  |%varavg| %total
---------------------------------------------------------------
Pair    | 0.050977   | 0.050977   | 0.050977   |   0.0 | 28.65
Bond    | 0.0099511  | 0.0099511  | 0.0099511  |   0.0 |  5.59
Kspace  | 0.11605    | 0.11605    | 0.11605    |   0.0 | 65.22
Neigh   | 0.0002141  | 0.0002141  | 0.0002141  |   0.0 |  0.12
Comm    | 5.4598e-05 | 5.4598e-05 | 5.4598e-05 |   0.0 |  0.03
Output  | 0          | 0          | 0          |   0.0 |  0.00
Modify  | 0          | 0          | 0          |   0.0 |  0.00
Other   |            | 0.0006757  |            |       |  0.38

Nlocal:    152 ave 152 max 152 min
Histogram: 1 0 0 0 0 0 0 0 0 0
Nghost:    0 ave 0 max 0 min
Histogram: 1 0 0 0 0 0 0 0 0 0
Neighs:    8992 ave 8992 max 8992 min
Histogram: 1 0 0 0 0 0 0 0 0 0

Total # of neighbors = 8992
Ave neighs/atom = 59.1579
Ave special neighs/atom = 10.5526
Neighbor list builds = 1
Dangerous builds = 0
write_dump all custom pysimm.dump.tmp id q x y z vx vy vz
quit


################################################################################
##################################    Init    ##################################
################################################################################
units           real
atom_style      full
pair_style      lj/cut/coul/long 12.0  12.0
kspace_style    pppm 1e-4
bond_style      harmonic
angle_style     harmonic
dihedral_style  fourier
improper_style  cvff
special_bonds   amber
pair_modify     mix arithmetic
read_data       temp.lmps
  orthogonal box = (-74.6356 -74.6356 -74.6356) to (74.6356 74.6356 74.6356)
  1 by 1 by 1 MPI processor grid
  reading atoms ...
  167 atoms
  reading velocities ...
  167 velocities
  scanning bonds ...
  4 = max bonds/atom
  scanning angles ...
  6 = max angles/atom
  scanning dihedrals ...
  20 = max dihedrals/atom
  scanning impropers ...
  1 = max impropers/atom
  reading bonds ...
  166 bonds
  reading angles ...
  308 angles
  reading dihedrals ...
  409 dihedrals
  reading impropers ...
  11 impropers
  4 = max # of 1-2 neighbors
  11 = max # of 1-3 neighbors
  22 = max # of 1-4 neighbors
  26 = max # of special neighbors
  special bonds CPU = 0.000257015 secs
  read_data CPU = 0.00531197 secs
################################################################################

min_style cg
minimize 1e-06 1e-06 1000000 10000000
WARNING: Using 'neigh_modify every 1 delay 0 check yes' setting during minimization (../min.cpp:190)
PPPM initialization ...
WARNING: System is not charge neutral, net charge = -1.1e-05 (../kspace.cpp:313)
  using 12-bit tables for long-range coulomb (../kspace.cpp:332)
  G vector (1/distance) = 0.106843
  grid = 15 15 15
  stencil order = 5
  estimated absolute RMS force accuracy = 0.0307209
  estimated relative force accuracy = 9.25151e-05
  using double precision KISS FFT
  3d grid and FFT values/proc = 8000 3375
Neighbor list info ...
  update every 1 steps, delay 0 steps, check yes
  max neighbors/atom: 2000, page size: 100000
  master list distance cutoff = 14
  ghost atom cutoff = 14
  binsize = 7, bins = 22 22 22
  1 neighbor lists, perpetual/occasional/extra = 1 0 0
  (1) pair lj/cut/coul/long, perpetual
      attributes: half, newton on
      pair build: half/bin/newton
      stencil: half/bin/3d/newton
      bin: standard
Per MPI rank memory allocation (min/avg/max) = 18.32 | 18.32 | 18.32 Mbytes
Step Temp E_pair E_mol TotEng Press 
       0    657.19151    307.92389    261.41914    894.53089   -2.1238691 
      21    657.19151     308.1811    124.83488    758.20385    4.0362386 
Loop time of 0.121196 on 1 procs for 21 steps with 167 atoms

97.3% CPU use with 1 MPI tasks x no OpenMP threads

Minimization stats:
  Stopping criterion = linesearch alpha is zero
  Energy initial, next-to-last, final = 
         569.343025215      433.015984296      433.015984296
  Force two-norm initial, final = 593.654 23.3554
  Force max component initial, final = 245.651 7.91773
  Final line search alpha, max atom move = 1.91665e-11 1.51755e-10
  Iterations, force evaluations = 21 96

MPI task timing breakdown:
Section |  min time  |  avg time  |  max time  |%varavg| %total
---------------------------------------------------------------
Pair    | 0.038154   | 0.038154   | 0.038154   |   0.0 | 31.48
Bond    | 0.0068526  | 0.0068526  | 0.0068526  |   0.0 |  5.65
Kspace  | 0.075694   | 0.075694   | 0.075694   |   0.0 | 62.46
Neigh   | 0          | 0          | 0          |   0.0 |  0.00
Comm    | 4.6015e-05 | 4.6015e-05 | 4.6015e-05 |   0.0 |  0.04
Output  | 0          | 0          | 0          |   0.0 |  0.00
Modify  | 0          | 0          | 0          |   0.0 |  0.00
Other   |            | 0.0004501  |            |       |  0.37

Nlocal:    167 ave 167 max 167 min
Histogram: 1 0 0 0 0 0 0 0 0 0
Nghost:    0 ave 0 max 0 min
Histogram: 1 0 0 0 0 0 0 0 0 0
Neighs:    10298 ave 10298 max 10298 min
Histogram: 1 0 0 0 0 0 0 0 0 0

Total # of neighbors = 10298
Ave neighs/atom = 61.6647
Ave special neighs/atom = 10.5749
Neighbor list builds = 0
Dangerous builds = 0
write_dump all custom pysimm.dump.tmp id q x y z vx vy vz
quit


################################################################################
##################################    Init    ##################################
################################################################################
units           real
atom_style      full
pair_style      lj/cut/coul/long 12.0  12.0
kspace_style    pppm 1e-4
bond_style      harmonic
angle_style     harmonic
dihedral_style  fourier
improper_style  cvff
special_bonds   amber
pair_modify     mix arithmetic
read_data       temp.lmps
  orthogonal box = (-77.0449 -77.0449 -77.0449) to (77.0449 77.0449 77.0449)
  1 by 1 by 1 MPI processor grid
  reading atoms ...
  182 atoms
  reading velocities ...
  182 velocities
  scanning bonds ...
  4 = max bonds/atom
  scanning angles ...
  6 = max angles/atom
  scanning dihedrals ...
  20 = max dihedrals/atom
  scanning impropers ...
  1 = max impropers/atom
  reading bonds ...
  181 bonds
  reading angles ...
  336 angles
  reading dihedrals ...
  447 dihedrals
  reading impropers ...
  12 impropers
  4 = max # of 1-2 neighbors
  11 = max # of 1-3 neighbors
  22 = max # of 1-4 neighbors
  26 = max # of special neighbors
  special bonds CPU = 0.0003438 secs
  read_data CPU = 0.00494599 secs
################################################################################

min_style cg
minimize 1e-06 1e-06 1000000 10000000
WARNING: Using 'neigh_modify every 1 delay 0 check yes' setting during minimization (../min.cpp:190)
PPPM initialization ...
WARNING: System is not charge neutral, net charge = -1.2e-05 (../kspace.cpp:313)
  using 12-bit tables for long-range coulomb (../kspace.cpp:332)
  G vector (1/distance) = 0.104516
  grid = 15 15 15
  stencil order = 5
  estimated absolute RMS force accuracy = 0.0328616
  estimated relative force accuracy = 9.89617e-05
  using double precision KISS FFT
  3d grid and FFT values/proc = 8000 3375
Neighbor list info ...
  update every 1 steps, delay 0 steps, check yes
  max neighbors/atom: 2000, page size: 100000
  master list distance cutoff = 14
  ghost atom cutoff = 14
  binsize = 7, bins = 23 23 23
  1 neighbor lists, perpetual/occasional/extra = 1 0 0
  (1) pair lj/cut/coul/long, perpetual
      attributes: half, newton on
      pair build: half/bin/newton
      stencil: half/bin/3d/newton
      bin: standard
Per MPI rank memory allocation (min/avg/max) = 18.33 | 18.33 | 18.33 Mbytes
Step Temp E_pair E_mol TotEng Press 
       0    566.00931    340.68191    269.38831    915.44731   -2.2645902 
      32    566.00931    332.32199    122.53394    760.23301     3.246802 
Loop time of 0.150089 on 1 procs for 32 steps with 182 atoms

98.6% CPU use with 1 MPI tasks x no OpenMP threads

Minimization stats:
  Stopping criterion = linesearch alpha is zero
  Energy initial, next-to-last, final = 
         610.070220709      454.855923603      454.855923603
  Force two-norm initial, final = 603.857 17.9955
  Force max component initial, final = 257.682 3.29378
  Final line search alpha, max atom move = 2.61919e-11 8.62704e-11
  Iterations, force evaluations = 32 117

MPI task timing breakdown:
Section |  min time  |  avg time  |  max time  |%varavg| %total
---------------------------------------------------------------
Pair    | 0.048652   | 0.048652   | 0.048652   |   0.0 | 32.42
Bond    | 0.0091658  | 0.0091658  | 0.0091658  |   0.0 |  6.11
Kspace  | 0.091671   | 0.091671   | 0.091671   |   0.0 | 61.08
Neigh   | 0          | 0          | 0          |   0.0 |  0.00
Comm    | 5.0306e-05 | 5.0306e-05 | 5.0306e-05 |   0.0 |  0.03
Output  | 0          | 0          | 0          |   0.0 |  0.00
Modify  | 0          | 0          | 0          |   0.0 |  0.00
Other   |            | 0.0005496  |            |       |  0.37

Nlocal:    182 ave 182 max 182 min
Histogram: 1 0 0 0 0 0 0 0 0 0
Nghost:    0 ave 0 max 0 min
Histogram: 1 0 0 0 0 0 0 0 0 0
Neighs:    11058 ave 11058 max 11058 min
Histogram: 1 0 0 0 0 0 0 0 0 0

Total # of neighbors = 11058
Ave neighs/atom = 60.7582
Ave special neighs/atom = 10.5934
Neighbor list builds = 0
Dangerous builds = 0
write_dump all custom pysimm.dump.tmp id q x y z vx vy vz
quit


################################################################################
##################################    Init    ##################################
################################################################################
units           real
atom_style      full
pair_style      lj/cut/coul/long 12.0  12.0
kspace_style    pppm 1e-4
bond_style      harmonic
angle_style     harmonic
dihedral_style  fourier
improper_style  cvff
special_bonds   amber
pair_modify     mix arithmetic
read_data       temp.lmps
  orthogonal box = (-79.3122 -79.3122 -79.3122) to (79.3122 79.3122 79.3122)
  1 by 1 by 1 MPI processor grid
  reading atoms ...
  197 atoms
  reading velocities ...
  197 velocities
  scanning bonds ...
  4 = max bonds/atom
  scanning angles ...
  6 = max angles/atom
  scanning dihedrals ...
  20 = max dihedrals/atom
  scanning impropers ...
  1 = max impropers/atom
  reading bonds ...
  196 bonds
  reading angles ...
  364 angles
  reading dihedrals ...
  485 dihedrals
  reading impropers ...
  13 impropers
  4 = max # of 1-2 neighbors
  11 = max # of 1-3 neighbors
  22 = max # of 1-4 neighbors
  26 = max # of special neighbors
  special bonds CPU = 0.000658989 secs
  read_data CPU = 0.012712 secs
################################################################################

min_style cg
minimize 1e-06 1e-06 1000000 10000000
WARNING: Using 'neigh_modify every 1 delay 0 check yes' setting during minimization (../min.cpp:190)
PPPM initialization ...
WARNING: System is not charge neutral, net charge = -1.3e-05 (../kspace.cpp:313)
  using 12-bit tables for long-range coulomb (../kspace.cpp:332)
  G vector (1/distance) = 0.102407
  grid = 15 15 15
  stencil order = 5
  estimated absolute RMS force accuracy = 0.0348823
  estimated relative force accuracy = 0.000105047
  using double precision KISS FFT
  3d grid and FFT values/proc = 8000 3375
Neighbor list info ...
  update every 1 steps, delay 0 steps, check yes
  max neighbors/atom: 2000, page size: 100000
  master list distance cutoff = 14
  ghost atom cutoff = 14
  binsize = 7, bins = 23 23 23
  1 neighbor lists, perpetual/occasional/extra = 1 0 0
  (1) pair lj/cut/coul/long, perpetual
      attributes: half, newton on
      pair build: half/bin/newton
      stencil: half/bin/3d/newton
      bin: standard
Per MPI rank memory allocation (min/avg/max) = 18.33 | 18.33 | 18.33 Mbytes
Step Temp E_pair E_mol TotEng Press 
       0    522.79621    461.50973    270.88523    1037.8328    6.0430152 
      36    522.79621    361.82286    131.61578    798.87646    3.4923828 
Loop time of 0.454483 on 1 procs for 36 steps with 197 atoms

99.4% CPU use with 1 MPI tasks x no OpenMP threads

Minimization stats:
  Stopping criterion = linesearch alpha is zero
  Energy initial, next-to-last, final = 
          732.39495972      493.438643221      493.438643221
  Force two-norm initial, final = 1228.64 19.213
  Force max component initial, final = 809.846 5.34571
  Final line search alpha, max atom move = 3.19696e-11 1.709e-10
  Iterations, force evaluations = 36 125

MPI task timing breakdown:
Section |  min time  |  avg time  |  max time  |%varavg| %total
---------------------------------------------------------------
Pair    | 0.16066    | 0.16066    | 0.16066    |   0.0 | 35.35
Bond    | 0.027759   | 0.027759   | 0.027759   |   0.0 |  6.11
Kspace  | 0.26425    | 0.26425    | 0.26425    |   0.0 | 58.14
Neigh   | 0          | 0          | 0          |   0.0 |  0.00
Comm    | 0.00012684 | 0.00012684 | 0.00012684 |   0.0 |  0.03
Output  | 0          | 0          | 0          |   0.0 |  0.00
Modify  | 0          | 0          | 0          |   0.0 |  0.00
Other   |            | 0.001684   |            |       |  0.37

Nlocal:    197 ave 197 max 197 min
Histogram: 1 0 0 0 0 0 0 0 0 0
Nghost:    0 ave 0 max 0 min
Histogram: 1 0 0 0 0 0 0 0 0 0
Neighs:    13222 ave 13222 max 13222 min
Histogram: 1 0 0 0 0 0 0 0 0 0

Total # of neighbors = 13222
Ave neighs/atom = 67.1168
Ave special neighs/atom = 10.6091
Neighbor list builds = 0
Dangerous builds = 0
write_dump all custom pysimm.dump.tmp id q x y z vx vy vz
quit


################################################################################
##################################    Init    ##################################
################################################################################
units           real
atom_style      full
pair_style      lj/cut/coul/long 12.0  12.0
kspace_style    pppm 1e-4
bond_style      harmonic
angle_style     harmonic
dihedral_style  fourier
improper_style  cvff
special_bonds   amber
pair_modify     mix arithmetic
read_data       temp.lmps
  orthogonal box = (-81.4568 -81.4568 -81.4568) to (81.4568 81.4568 81.4568)
  1 by 1 by 1 MPI processor grid
  reading atoms ...
  212 atoms
  reading velocities ...
  212 velocities
  scanning bonds ...
  4 = max bonds/atom
  scanning angles ...
  6 = max angles/atom
  scanning dihedrals ...
  20 = max dihedrals/atom
  scanning impropers ...
  1 = max impropers/atom
  reading bonds ...
  211 bonds
  reading angles ...
  392 angles
  reading dihedrals ...
  523 dihedrals
  reading impropers ...
  14 impropers
  4 = max # of 1-2 neighbors
  11 = max # of 1-3 neighbors
  22 = max # of 1-4 neighbors
  26 = max # of special neighbors
  special bonds CPU = 0.000303984 secs
  read_data CPU = 0.00540686 secs
################################################################################

min_style cg
minimize 1e-06 1e-06 1000000 10000000
WARNING: Using 'neigh_modify every 1 delay 0 check yes' setting during minimization (../min.cpp:190)
PPPM initialization ...
WARNING: System is not charge neutral, net charge = -1.4e-05 (../kspace.cpp:313)
  using 12-bit tables for long-range coulomb (../kspace.cpp:332)
  G vector (1/distance) = 0.100486
  grid = 15 15 15
  stencil order = 5
  estimated absolute RMS force accuracy = 0.0367982
  estimated relative force accuracy = 0.000110817
  using double precision KISS FFT
  3d grid and FFT values/proc = 8000 3375
Neighbor list info ...
  update every 1 steps, delay 0 steps, check yes
  max neighbors/atom: 2000, page size: 100000
  master list distance cutoff = 14
  ghost atom cutoff = 14
  binsize = 7, bins = 24 24 24
  1 neighbor lists, perpetual/occasional/extra = 1 0 0
  (1) pair lj/cut/coul/long, perpetual
      attributes: half, newton on
      pair build: half/bin/newton
      stencil: half/bin/3d/newton
      bin: standard
Per MPI rank memory allocation (min/avg/max) = 18.35 | 18.35 | 18.35 Mbytes
Step Temp E_pair E_mol TotEng Press 
       0    563.31621    386.35623    301.24453     1041.899    -1.164182 
      14    563.31621    385.22701      163.671    903.19626    3.4777577 
Loop time of 0.137339 on 1 procs for 14 steps with 212 atoms

100.5% CPU use with 1 MPI tasks x no OpenMP threads

Minimization stats:
  Stopping criterion = linesearch alpha is zero
  Energy initial, next-to-last, final = 
         687.600766047      548.898011264      548.898011264
  Force two-norm initial, final = 586.013 39.6178
  Force max component initial, final = 229.852 16.6284
  Final line search alpha, max atom move = 7.01633e-12 1.1667e-10
  Iterations, force evaluations = 14 84

MPI task timing breakdown:
Section |  min time  |  avg time  |  max time  |%varavg| %total
---------------------------------------------------------------
Pair    | 0.050174   | 0.050174   | 0.050174   |   0.0 | 36.53
Bond    | 0.008373   | 0.008373   | 0.008373   |   0.0 |  6.10
Kspace  | 0.078312   | 0.078312   | 0.078312   |   0.0 | 57.02
Neigh   | 0          | 0          | 0          |   0.0 |  0.00
Comm    | 3.2902e-05 | 3.2902e-05 | 3.2902e-05 |   0.0 |  0.02
Output  | 0          | 0          | 0          |   0.0 |  0.00
Modify  | 0          | 0          | 0          |   0.0 |  0.00
Other   |            | 0.0004468  |            |       |  0.33

Nlocal:    212 ave 212 max 212 min
Histogram: 1 0 0 0 0 0 0 0 0 0
Nghost:    0 ave 0 max 0 min
Histogram: 1 0 0 0 0 0 0 0 0 0
Neighs:    14351 ave 14351 max 14351 min
Histogram: 1 0 0 0 0 0 0 0 0 0

Total # of neighbors = 14351
Ave neighs/atom = 67.6934
Ave special neighs/atom = 10.6226
Neighbor list builds = 0
Dangerous builds = 0
write_dump all custom pysimm.dump.tmp id q x y z vx vy vz
quit


################################################################################
##################################    Init    ##################################
################################################################################
units           real
atom_style      full
pair_style      lj/cut/coul/long 12.0  12.0
kspace_style    pppm 1e-4
bond_style      harmonic
angle_style     harmonic
dihedral_style  fourier
improper_style  cvff
special_bonds   amber
pair_modify     mix arithmetic
read_data       temp.lmps
  orthogonal box = (-83.494 -83.494 -83.494) to (83.494 83.494 83.494)
  1 by 1 by 1 MPI processor grid
  reading atoms ...
  227 atoms
  reading velocities ...
  227 velocities
  scanning bonds ...
  4 = max bonds/atom
  scanning angles ...
  6 = max angles/atom
  scanning dihedrals ...
  20 = max dihedrals/atom
  scanning impropers ...
  1 = max impropers/atom
  reading bonds ...
  226 bonds
  reading angles ...
  420 angles
  reading dihedrals ...
  561 dihedrals
  reading impropers ...
  15 impropers
  4 = max # of 1-2 neighbors
  11 = max # of 1-3 neighbors
  22 = max # of 1-4 neighbors
  26 = max # of special neighbors
  special bonds CPU = 0.000854015 secs
  read_data CPU = 0.013025 secs
################################################################################

min_style cg
minimize 1e-06 1e-06 1000000 10000000
WARNING: Using 'neigh_modify every 1 delay 0 check yes' setting during minimization (../min.cpp:190)
PPPM initialization ...
WARNING: System is not charge neutral, net charge = -1.5e-05 (../kspace.cpp:313)
  using 12-bit tables for long-range coulomb (../kspace.cpp:332)
  G vector (1/distance) = 0.103361
  grid = 16 16 16
  stencil order = 5
  estimated absolute RMS force accuracy = 0.0337478
  estimated relative force accuracy = 0.000101631
  using double precision KISS FFT
  3d grid and FFT values/proc = 9261 4096
Neighbor list info ...
  update every 1 steps, delay 0 steps, check yes
  max neighbors/atom: 2000, page size: 100000
  master list distance cutoff = 14
  ghost atom cutoff = 14
  binsize = 7, bins = 24 24 24
  1 neighbor lists, perpetual/occasional/extra = 1 0 0
  (1) pair lj/cut/coul/long, perpetual
      attributes: half, newton on
      pair build: half/bin/newton
      stencil: half/bin/3d/newton
      bin: standard
Per MPI rank memory allocation (min/avg/max) = 18.46 | 18.46 | 18.46 Mbytes
Step Temp E_pair E_mol TotEng Press 
       0    468.94686    430.52902    298.55604    1044.9972  -0.32576786 
      19    468.94686    411.72242    163.12143    890.75603    2.4191111 
Loop time of 0.391159 on 1 procs for 19 steps with 227 atoms

99.2% CPU use with 1 MPI tasks x no OpenMP threads

Minimization stats:
  Stopping criterion = linesearch alpha is zero
  Energy initial, next-to-last, final = 
         729.085059019      574.843846006      574.843846006
  Force two-norm initial, final = 625.445 41.4388
  Force max component initial, final = 316.085 13.5922
  Final line search alpha, max atom move = 6.52714e-12 8.87182e-11
  Iterations, force evaluations = 19 91

MPI task timing breakdown:
Section |  min time  |  avg time  |  max time  |%varavg| %total
---------------------------------------------------------------
Pair    | 0.13903    | 0.13903    | 0.13903    |   0.0 | 35.54
Bond    | 0.022549   | 0.022549   | 0.022549   |   0.0 |  5.76
Kspace  | 0.22828    | 0.22828    | 0.22828    |   0.0 | 58.36
Neigh   | 0          | 0          | 0          |   0.0 |  0.00
Comm    | 8.3447e-05 | 8.3447e-05 | 8.3447e-05 |   0.0 |  0.02
Output  | 0          | 0          | 0          |   0.0 |  0.00
Modify  | 0          | 0          | 0          |   0.0 |  0.00
Other   |            | 0.001216   |            |       |  0.31

Nlocal:    227 ave 227 max 227 min
Histogram: 1 0 0 0 0 0 0 0 0 0
Nghost:    0 ave 0 max 0 min
Histogram: 1 0 0 0 0 0 0 0 0 0
Neighs:    16188 ave 16188 max 16188 min
Histogram: 1 0 0 0 0 0 0 0 0 0

Total # of neighbors = 16188
Ave neighs/atom = 71.3128
Ave special neighs/atom = 10.6344
Neighbor list builds = 0
Dangerous builds = 0
write_dump all custom pysimm.dump.tmp id q x y z vx vy vz
quit


################################################################################
##################################    Init    ##################################
################################################################################
units           real
atom_style      full
pair_style      lj/cut/coul/long 12.0  12.0
kspace_style    pppm 1e-4
bond_style      harmonic
angle_style     harmonic
dihedral_style  fourier
improper_style  cvff
special_bonds   amber
pair_modify     mix arithmetic
read_data       temp.lmps
  orthogonal box = (-85.4364 -85.4364 -85.4364) to (85.4364 85.4364 85.4364)
  1 by 1 by 1 MPI processor grid
  reading atoms ...
  242 atoms
  reading velocities ...
  242 velocities
  scanning bonds ...
  4 = max bonds/atom
  scanning angles ...
  6 = max angles/atom
  scanning dihedrals ...
  20 = max dihedrals/atom
  scanning impropers ...
  1 = max impropers/atom
  reading bonds ...
  241 bonds
  reading angles ...
  448 angles
  reading dihedrals ...
  599 dihedrals
  reading impropers ...
  16 impropers
  4 = max # of 1-2 neighbors
  11 = max # of 1-3 neighbors
  22 = max # of 1-4 neighbors
  26 = max # of special neighbors
  special bonds CPU = 0.000365019 secs
  read_data CPU = 0.00552988 secs
################################################################################

min_style cg
minimize 1e-06 1e-06 1000000 10000000
WARNING: Using 'neigh_modify every 1 delay 0 check yes' setting during minimization (../min.cpp:190)
PPPM initialization ...
WARNING: System is not charge neutral, net charge = -1.6e-05 (../kspace.cpp:313)
  using 12-bit tables for long-range coulomb (../kspace.cpp:332)
  G vector (1/distance) = 0.101697
  grid = 16 16 16
  stencil order = 5
  estimated absolute RMS force accuracy = 0.0353766
  estimated relative force accuracy = 0.000106536
  using double precision KISS FFT
  3d grid and FFT values/proc = 9261 4096
Neighbor list info ...
  update every 1 steps, delay 0 steps, check yes
  max neighbors/atom: 2000, page size: 100000
  master list distance cutoff = 14
  ghost atom cutoff = 14
  binsize = 7, bins = 25 25 25
  1 neighbor lists, perpetual/occasional/extra = 1 0 0
  (1) pair lj/cut/coul/long, perpetual
      attributes: half, newton on
      pair build: half/bin/newton
      stencil: half/bin/3d/newton
      bin: standard
Per MPI rank memory allocation (min/avg/max) = 18.47 | 18.47 | 18.47 Mbytes
Step Temp E_pair E_mol TotEng Press 
       0    422.71587    511.82272    303.45599    1118.9473    2.7359897 
      14    422.71587    444.25114    174.50374    922.42349    2.8700159 
Loop time of 0.333537 on 1 procs for 14 steps with 242 atoms

100.1% CPU use with 1 MPI tasks x no OpenMP threads

Minimization stats:
  Stopping criterion = linesearch alpha is zero
  Energy initial, next-to-last, final = 
         815.278709073      618.754881228      618.754881228
  Force two-norm initial, final = 909.628 30.9424
  Force max component initial, final = 434.185 8.17507
  Final line search alpha, max atom move = 8.82906e-12 7.21782e-11
  Iterations, force evaluations = 14 83

MPI task timing breakdown:
Section |  min time  |  avg time  |  max time  |%varavg| %total
---------------------------------------------------------------
Pair    | 0.12102    | 0.12102    | 0.12102    |   0.0 | 36.28
Bond    | 0.019608   | 0.019608   | 0.019608   |   0.0 |  5.88
Kspace  | 0.19189    | 0.19189    | 0.19189    |   0.0 | 57.53
Neigh   | 0          | 0          | 0          |   0.0 |  0.00
Comm    | 7.5102e-05 | 7.5102e-05 | 7.5102e-05 |   0.0 |  0.02
Output  | 0          | 0          | 0          |   0.0 |  0.00
Modify  | 0          | 0          | 0          |   0.0 |  0.00
Other   |            | 0.0009418  |            |       |  0.28

Nlocal:    242 ave 242 max 242 min
Histogram: 1 0 0 0 0 0 0 0 0 0
Nghost:    0 ave 0 max 0 min
Histogram: 1 0 0 0 0 0 0 0 0 0
Neighs:    17339 ave 17339 max 17339 min
Histogram: 1 0 0 0 0 0 0 0 0 0

Total # of neighbors = 17339
Ave neighs/atom = 71.6488
Ave special neighs/atom = 10.6446
Neighbor list builds = 0
Dangerous builds = 0
write_dump all custom pysimm.dump.tmp id q x y z vx vy vz
quit


################################################################################
##################################    Init    ##################################
################################################################################
units           real
atom_style      full
pair_style      lj/cut/coul/long 12.0  12.0
kspace_style    pppm 1e-4
bond_style      harmonic
angle_style     harmonic
dihedral_style  fourier
improper_style  cvff
special_bonds   amber
pair_modify     mix arithmetic
read_data       temp.lmps
  orthogonal box = (-87.2943 -87.2943 -87.2943) to (87.2943 87.2943 87.2943)
  1 by 1 by 1 MPI processor grid
  reading atoms ...
  257 atoms
  reading velocities ...
  257 velocities
  scanning bonds ...
  4 = max bonds/atom
  scanning angles ...
  6 = max angles/atom
  scanning dihedrals ...
  20 = max dihedrals/atom
  scanning impropers ...
  1 = max impropers/atom
  reading bonds ...
  256 bonds
  reading angles ...
  476 angles
  reading dihedrals ...
  637 dihedrals
  reading impropers ...
  17 impropers
  4 = max # of 1-2 neighbors
  11 = max # of 1-3 neighbors
  22 = max # of 1-4 neighbors
  26 = max # of special neighbors
  special bonds CPU = 0.000941038 secs
  read_data CPU = 0.013906 secs
################################################################################

min_style cg
minimize 1e-06 1e-06 1000000 10000000
WARNING: Using 'neigh_modify every 1 delay 0 check yes' setting during minimization (../min.cpp:190)
PPPM initialization ...
WARNING: System is not charge neutral, net charge = -1.7e-05 (../kspace.cpp:313)
  using 12-bit tables for long-range coulomb (../kspace.cpp:332)
  G vector (1/distance) = 0.100152
  grid = 16 16 16
  stencil order = 5
  estimated absolute RMS force accuracy = 0.0369367
  estimated relative force accuracy = 0.000111234
  using double precision KISS FFT
  3d grid and FFT values/proc = 9261 4096
Neighbor list info ...
  update every 1 steps, delay 0 steps, check yes
  max neighbors/atom: 2000, page size: 100000
  master list distance cutoff = 14
  ghost atom cutoff = 14
  binsize = 7, bins = 25 25 25
  1 neighbor lists, perpetual/occasional/extra = 1 0 0
  (1) pair lj/cut/coul/long, perpetual
      attributes: half, newton on
      pair build: half/bin/newton
      stencil: half/bin/3d/newton
      bin: standard
Per MPI rank memory allocation (min/avg/max) = 18.47 | 18.47 | 18.47 Mbytes
Step Temp E_pair E_mol TotEng Press 
       0    430.04261    499.56714    307.40431    1135.1315   0.78620552 
      23    430.04261    469.16957    173.95405    971.28371    2.6855553 
Loop time of 0.459918 on 1 procs for 23 steps with 257 atoms

99.6% CPU use with 1 MPI tasks x no OpenMP threads

Minimization stats:
  Stopping criterion = linesearch alpha is zero
  Energy initial, next-to-last, final = 
         806.971454141      643.123624673      643.123624673
  Force two-norm initial, final = 691.905 28.0218
  Force max component initial, final = 293.666 8.96499
  Final line search alpha, max atom move = 1.22968e-11 1.10241e-10
  Iterations, force evaluations = 23 99

MPI task timing breakdown:
Section |  min time  |  avg time  |  max time  |%varavg| %total
---------------------------------------------------------------
Pair    | 0.17495    | 0.17495    | 0.17495    |   0.0 | 38.04
Bond    | 0.028225   | 0.028225   | 0.028225   |   0.0 |  6.14
Kspace  | 0.25511    | 0.25511    | 0.25511    |   0.0 | 55.47
Neigh   | 0          | 0          | 0          |   0.0 |  0.00
Comm    | 0.00011349 | 0.00011349 | 0.00011349 |   0.0 |  0.02
Output  | 0          | 0          | 0          |   0.0 |  0.00
Modify  | 0          | 0          | 0          |   0.0 |  0.00
Other   |            | 0.001525   |            |       |  0.33

Nlocal:    257 ave 257 max 257 min
Histogram: 1 0 0 0 0 0 0 0 0 0
Nghost:    0 ave 0 max 0 min
Histogram: 1 0 0 0 0 0 0 0 0 0
Neighs:    18686 ave 18686 max 18686 min
Histogram: 1 0 0 0 0 0 0 0 0 0

Total # of neighbors = 18686
Ave neighs/atom = 72.7082
Ave special neighs/atom = 10.6537
Neighbor list builds = 0
Dangerous builds = 0
write_dump all custom pysimm.dump.tmp id q x y z vx vy vz
quit


################################################################################
##################################    Init    ##################################
################################################################################
units           real
atom_style      full
pair_style      lj/cut/coul/long 12.0  12.0
kspace_style    pppm 1e-4
bond_style      harmonic
angle_style     harmonic
dihedral_style  fourier
improper_style  cvff
special_bonds   amber
pair_modify     mix arithmetic
read_data       temp.lmps
  orthogonal box = (-89.0764 -89.0764 -89.0764) to (89.0764 89.0764 89.0764)
  1 by 1 by 1 MPI processor grid
  reading atoms ...
  272 atoms
  reading velocities ...
  272 velocities
  scanning bonds ...
  4 = max bonds/atom
  scanning angles ...
  6 = max angles/atom
  scanning dihedrals ...
  20 = max dihedrals/atom
  scanning impropers ...
  1 = max impropers/atom
  reading bonds ...
  271 bonds
  reading angles ...
  504 angles
  reading dihedrals ...
  675 dihedrals
  reading impropers ...
  18 impropers
  4 = max # of 1-2 neighbors
  11 = max # of 1-3 neighbors
  22 = max # of 1-4 neighbors
  26 = max # of special neighbors
  special bonds CPU = 0.000321865 secs
  read_data CPU = 0.00552511 secs
################################################################################

min_style cg
minimize 1e-06 1e-06 1000000 10000000
WARNING: Using 'neigh_modify every 1 delay 0 check yes' setting during minimization (../min.cpp:190)
PPPM initialization ...
WARNING: System is not charge neutral, net charge = -1.8e-05 (../kspace.cpp:313)
  using 12-bit tables for long-range coulomb (../kspace.cpp:332)
  G vector (1/distance) = 0.107245
  grid = 18 18 18
  stencil order = 5
  estimated absolute RMS force accuracy = 0.029839
  estimated relative force accuracy = 8.98592e-05
  using double precision KISS FFT
  3d grid and FFT values/proc = 12167 5832
Neighbor list info ...
  update every 1 steps, delay 0 steps, check yes
  max neighbors/atom: 2000, page size: 100000
  master list distance cutoff = 14
  ghost atom cutoff = 14
  binsize = 7, bins = 26 26 26
  1 neighbor lists, perpetual/occasional/extra = 1 0 0
  (1) pair lj/cut/coul/long, perpetual
      attributes: half, newton on
      pair build: half/bin/newton
      stencil: half/bin/3d/newton
      bin: standard
Per MPI rank memory allocation (min/avg/max) = 18.74 | 18.74 | 18.74 Mbytes
Step Temp E_pair E_mol TotEng Press 
       0    385.04057    714.67036    336.13936    1361.8453    9.5966591 
      38    385.04057    496.39502    193.07944    1000.5101    2.4077213 
Loop time of 0.604196 on 1 procs for 38 steps with 272 atoms

99.6% CPU use with 1 MPI tasks x no OpenMP threads

Minimization stats:
  Stopping criterion = linesearch alpha is zero
  Energy initial, next-to-last, final = 
         1050.80971427      689.474462579      689.474462579
  Force two-norm initial, final = 2857.31 24.3046
  Force max component initial, final = 2059.85 5.30309
  Final line search alpha, max atom move = 1.43146e-11 7.59116e-11
  Iterations, force evaluations = 38 128

MPI task timing breakdown:
Section |  min time  |  avg time  |  max time  |%varavg| %total
---------------------------------------------------------------
Pair    | 0.19871    | 0.19871    | 0.19871    |   0.0 | 32.89
Bond    | 0.030268   | 0.030268   | 0.030268   |   0.0 |  5.01
Kspace  | 0.37191    | 0.37191    | 0.37191    |   0.0 | 61.55
Neigh   | 0.0014219  | 0.0014219  | 0.0014219  |   0.0 |  0.24
Comm    | 0.00011039 | 0.00011039 | 0.00011039 |   0.0 |  0.02
Output  | 0          | 0          | 0          |   0.0 |  0.00
Modify  | 0          | 0          | 0          |   0.0 |  0.00
Other   |            | 0.001776   |            |       |  0.29

Nlocal:    272 ave 272 max 272 min
Histogram: 1 0 0 0 0 0 0 0 0 0
Nghost:    0 ave 0 max 0 min
Histogram: 1 0 0 0 0 0 0 0 0 0
Neighs:    20611 ave 20611 max 20611 min
Histogram: 1 0 0 0 0 0 0 0 0 0

Total # of neighbors = 20611
Ave neighs/atom = 75.7757
Ave special neighs/atom = 10.6618
Neighbor list builds = 1
Dangerous builds = 0
write_dump all custom pysimm.dump.tmp id q x y z vx vy vz
quit


################################################################################
##################################    Init    ##################################
################################################################################
units           real
atom_style      full
pair_style      lj/cut/coul/long 12.0  12.0
kspace_style    pppm 1e-4
bond_style      harmonic
angle_style     harmonic
dihedral_style  fourier
improper_style  cvff
special_bonds   amber
pair_modify     mix arithmetic
read_data       temp.lmps
  orthogonal box = (-90.7898 -90.7898 -90.7898) to (90.7898 90.7898 90.7898)
  1 by 1 by 1 MPI processor grid
  reading atoms ...
  287 atoms
  reading velocities ...
  287 velocities
  scanning bonds ...
  4 = max bonds/atom
  scanning angles ...
  6 = max angles/atom
  scanning dihedrals ...
  20 = max dihedrals/atom
  scanning impropers ...
  1 = max impropers/atom
  reading bonds ...
  286 bonds
  reading angles ...
  532 angles
  reading dihedrals ...
  713 dihedrals
  reading impropers ...
  19 impropers
  4 = max # of 1-2 neighbors
  11 = max # of 1-3 neighbors
  22 = max # of 1-4 neighbors
  26 = max # of special neighbors
  special bonds CPU = 0.000414133 secs
  read_data CPU = 0.00607085 secs
################################################################################

min_style cg
minimize 1e-06 1e-06 1000000 10000000
WARNING: Using 'neigh_modify every 1 delay 0 check yes' setting during minimization (../min.cpp:190)
PPPM initialization ...
WARNING: System is not charge neutral, net charge = -1.9e-05 (../kspace.cpp:313)
  using 12-bit tables for long-range coulomb (../kspace.cpp:332)
  G vector (1/distance) = 0.105842
  grid = 18 18 18
  stencil order = 5
  estimated absolute RMS force accuracy = 0.0311093
  estimated relative force accuracy = 9.36848e-05
  using double precision KISS FFT
  3d grid and FFT values/proc = 12167 5832
Neighbor list info ...
  update every 1 steps, delay 0 steps, check yes
  max neighbors/atom: 2000, page size: 100000
  master list distance cutoff = 14
  ghost atom cutoff = 14
  binsize = 7, bins = 26 26 26
  1 neighbor lists, perpetual/occasional/extra = 1 0 0
  (1) pair lj/cut/coul/long, perpetual
      attributes: half, newton on
      pair build: half/bin/newton
      stencil: half/bin/3d/newton
      bin: standard
Per MPI rank memory allocation (min/avg/max) = 18.74 | 18.74 | 18.74 Mbytes
Step Temp E_pair E_mol TotEng Press 
       0    406.83118    594.87937    351.21249    1292.9202     2.704852 
      17    406.83118      533.425    217.20497    1097.4583    2.9111951 
Loop time of 0.3226 on 1 procs for 17 steps with 287 atoms

99.8% CPU use with 1 MPI tasks x no OpenMP threads

Minimization stats:
  Stopping criterion = linesearch alpha is zero
  Energy initial, next-to-last, final = 
         946.091862103      750.629967396      750.629967396
  Force two-norm initial, final = 777.845 47.0148
  Force max component initial, final = 372.781 14.6479
  Final line search alpha, max atom move = 3.50809e-12 5.13863e-11
  Iterations, force evaluations = 17 136

MPI task timing breakdown:
Section |  min time  |  avg time  |  max time  |%varavg| %total
---------------------------------------------------------------
Pair    | 0.11572    | 0.11572    | 0.11572    |   0.0 | 35.87
Bond    | 0.016335   | 0.016335   | 0.016335   |   0.0 |  5.06
Kspace  | 0.18969    | 0.18969    | 0.18969    |   0.0 | 58.80
Neigh   | 0          | 0          | 0          |   0.0 |  0.00
Comm    | 6.7949e-05 | 6.7949e-05 | 6.7949e-05 |   0.0 |  0.02
Output  | 0          | 0          | 0          |   0.0 |  0.00
Modify  | 0          | 0          | 0          |   0.0 |  0.00
Other   |            | 0.0007868  |            |       |  0.24

Nlocal:    287 ave 287 max 287 min
Histogram: 1 0 0 0 0 0 0 0 0 0
Nghost:    0 ave 0 max 0 min
Histogram: 1 0 0 0 0 0 0 0 0 0
Neighs:    22799 ave 22799 max 22799 min
Histogram: 1 0 0 0 0 0 0 0 0 0

Total # of neighbors = 22799
Ave neighs/atom = 79.439
Ave special neighs/atom = 10.669
Neighbor list builds = 0
Dangerous builds = 0
write_dump all custom pysimm.dump.tmp id q x y z vx vy vz
quit


################################################################################
##################################    Init    ##################################
################################################################################
units           real
atom_style      full
pair_style      lj/cut/coul/long 12.0  12.0
kspace_style    pppm 1e-4
bond_style      harmonic
angle_style     harmonic
dihedral_style  fourier
improper_style  cvff
special_bonds   amber
pair_modify     mix arithmetic
read_data       temp.lmps
  orthogonal box = (-92.4409 -92.4409 -92.4409) to (92.4409 92.4409 92.4409)
  1 by 1 by 1 MPI processor grid
  reading atoms ...
  302 atoms
  reading velocities ...
  302 velocities
  scanning bonds ...
  4 = max bonds/atom
  scanning angles ...
  6 = max angles/atom
  scanning dihedrals ...
  20 = max dihedrals/atom
  scanning impropers ...
  1 = max impropers/atom
  reading bonds ...
  301 bonds
  reading angles ...
  560 angles
  reading dihedrals ...
  751 dihedrals
  reading impropers ...
  20 impropers
  4 = max # of 1-2 neighbors
  11 = max # of 1-3 neighbors
  22 = max # of 1-4 neighbors
  26 = max # of special neighbors
  special bonds CPU = 0.00103688 secs
  read_data CPU = 0.015734 secs
################################################################################

min_style cg
minimize 1e-06 1e-06 1000000 10000000
WARNING: Using 'neigh_modify every 1 delay 0 check yes' setting during minimization (../min.cpp:190)
PPPM initialization ...
WARNING: System is not charge neutral, net charge = -2e-05 (../kspace.cpp:313)
  using 12-bit tables for long-range coulomb (../kspace.cpp:332)
  G vector (1/distance) = 0.104523
  grid = 18 18 18
  stencil order = 5
  estimated absolute RMS force accuracy = 0.0323385
  estimated relative force accuracy = 9.73865e-05
  using double precision KISS FFT
  3d grid and FFT values/proc = 12167 5832
Neighbor list info ...
  update every 1 steps, delay 0 steps, check yes
  max neighbors/atom: 2000, page size: 100000
  master list distance cutoff = 14
  ghost atom cutoff = 14
  binsize = 7, bins = 27 27 27
  1 neighbor lists, perpetual/occasional/extra = 1 0 0
  (1) pair lj/cut/coul/long, perpetual
      attributes: half, newton on
      pair build: half/bin/newton
      stencil: half/bin/3d/newton
      bin: standard
Per MPI rank memory allocation (min/avg/max) = 18.76 | 18.76 | 18.76 Mbytes
Step Temp E_pair E_mol TotEng Press 
       0    371.65462    574.92507    365.48226    1273.8647  -0.35354212 
      20    371.65462    559.65152    233.56497    1126.6739    1.6574567 
Loop time of 0.594869 on 1 procs for 20 steps with 302 atoms

100.0% CPU use with 1 MPI tasks x no OpenMP threads

Minimization stats:
  Stopping criterion = linesearch alpha is zero
  Energy initial, next-to-last, final = 
         940.407323693      793.216491297      793.216491297
  Force two-norm initial, final = 594.568 29.215
  Force max component initial, final = 298.848 5.19747
  Final line search alpha, max atom move = 1.05498e-11 5.48322e-11
  Iterations, force evaluations = 20 95

MPI task timing breakdown:
Section |  min time  |  avg time  |  max time  |%varavg| %total
---------------------------------------------------------------
Pair    | 0.22181    | 0.22181    | 0.22181    |   0.0 | 37.29
Bond    | 0.029204   | 0.029204   | 0.029204   |   0.0 |  4.91
Kspace  | 0.34223    | 0.34223    | 0.34223    |   0.0 | 57.53
Neigh   | 0          | 0          | 0          |   0.0 |  0.00
Comm    | 0.00010085 | 0.00010085 | 0.00010085 |   0.0 |  0.02
Output  | 0          | 0          | 0          |   0.0 |  0.00
Modify  | 0          | 0          | 0          |   0.0 |  0.00
Other   |            | 0.001532   |            |       |  0.26

Nlocal:    302 ave 302 max 302 min
Histogram: 1 0 0 0 0 0 0 0 0 0
Nghost:    0 ave 0 max 0 min
Histogram: 1 0 0 0 0 0 0 0 0 0
Neighs:    26531 ave 26531 max 26531 min
Histogram: 1 0 0 0 0 0 0 0 0 0

Total # of neighbors = 26531
Ave neighs/atom = 87.851
Ave special neighs/atom = 10.6755
Neighbor list builds = 0
Dangerous builds = 0
write_dump all custom pysimm.dump.tmp id q x y z vx vy vz
quit


################################################################################
##################################    Init    ##################################
################################################################################
units           real
atom_style      full
pair_style      lj/cut/coul/long 12.0  12.0
kspace_style    pppm 1e-4
bond_style      harmonic
angle_style     harmonic
dihedral_style  fourier
improper_style  cvff
special_bonds   amber
pair_modify     mix arithmetic
read_data       temp.lmps
  orthogonal box = (-94.035 -94.035 -94.035) to (94.035 94.035 94.035)
  1 by 1 by 1 MPI processor grid
  reading atoms ...
  317 atoms
  reading velocities ...
  317 velocities
  scanning bonds ...
  4 = max bonds/atom
  scanning angles ...
  6 = max angles/atom
  scanning dihedrals ...
  20 = max dihedrals/atom
  scanning impropers ...
  1 = max impropers/atom
  reading bonds ...
  316 bonds
  reading angles ...
  588 angles
  reading dihedrals ...
  789 dihedrals
  reading impropers ...
  21 impropers
  4 = max # of 1-2 neighbors
  11 = max # of 1-3 neighbors
  22 = max # of 1-4 neighbors
  26 = max # of special neighbors
  special bonds CPU = 0.00101781 secs
  read_data CPU = 0.015135 secs
################################################################################

min_style cg
minimize 1e-06 1e-06 1000000 10000000
WARNING: Using 'neigh_modify every 1 delay 0 check yes' setting during minimization (../min.cpp:190)
PPPM initialization ...
WARNING: System is not charge neutral, net charge = -2.1e-05 (../kspace.cpp:313)
  using 12-bit tables for long-range coulomb (../kspace.cpp:332)
  G vector (1/distance) = 0.103281
  grid = 18 18 18
  stencil order = 5
  estimated absolute RMS force accuracy = 0.0335313
  estimated relative force accuracy = 0.000100979
  using double precision KISS FFT
  3d grid and FFT values/proc = 12167 5832
Neighbor list info ...
  update every 1 steps, delay 0 steps, check yes
  max neighbors/atom: 2000, page size: 100000
  master list distance cutoff = 14
  ghost atom cutoff = 14
  binsize = 7, bins = 27 27 27
  1 neighbor lists, perpetual/occasional/extra = 1 0 0
  (1) pair lj/cut/coul/long, perpetual
      attributes: half, newton on
      pair build: half/bin/newton
      stencil: half/bin/3d/newton
      bin: standard
Per MPI rank memory allocation (min/avg/max) = 18.76 | 18.76 | 18.76 Mbytes
Step Temp E_pair E_mol TotEng Press 
       0    344.80732    875.29252    384.43883    1584.5178    11.018865 
      11    344.80732    581.54425    257.21923    1163.5499    1.8694529 
Loop time of 0.474214 on 1 procs for 11 steps with 317 atoms

99.7% CPU use with 1 MPI tasks x no OpenMP threads

Minimization stats:
  Stopping criterion = linesearch alpha is zero
  Energy initial, next-to-last, final = 
         1259.73135183      838.763481043      838.763481043
  Force two-norm initial, final = 2825.03 33.9468
  Force max component initial, final = 1733 14.5018
  Final line search alpha, max atom move = 6.87249e-12 9.96634e-11
  Iterations, force evaluations = 11 78

MPI task timing breakdown:
Section |  min time  |  avg time  |  max time  |%varavg| %total
---------------------------------------------------------------
Pair    | 0.17663    | 0.17663    | 0.17663    |   0.0 | 37.25
Bond    | 0.024873   | 0.024873   | 0.024873   |   0.0 |  5.25
Kspace  | 0.27145    | 0.27145    | 0.27145    |   0.0 | 57.24
Neigh   | 0          | 0          | 0          |   0.0 |  0.00
Comm    | 5.722e-05  | 5.722e-05  | 5.722e-05  |   0.0 |  0.01
Output  | 0          | 0          | 0          |   0.0 |  0.00
Modify  | 0          | 0          | 0          |   0.0 |  0.00
Other   |            | 0.001197   |            |       |  0.25

Nlocal:    317 ave 317 max 317 min
Histogram: 1 0 0 0 0 0 0 0 0 0
Nghost:    0 ave 0 max 0 min
Histogram: 1 0 0 0 0 0 0 0 0 0
Neighs:    26258 ave 26258 max 26258 min
Histogram: 1 0 0 0 0 0 0 0 0 0

Total # of neighbors = 26258
Ave neighs/atom = 82.8328
Ave special neighs/atom = 10.6814
Neighbor list builds = 0
Dangerous builds = 0
write_dump all custom pysimm.dump.tmp id q x y z vx vy vz
quit


################################################################################
##################################    Init    ##################################
################################################################################
units           real
atom_style      full
pair_style      lj/cut/coul/long 12.0  12.0
kspace_style    pppm 1e-4
bond_style      harmonic
angle_style     harmonic
dihedral_style  fourier
improper_style  cvff
special_bonds   amber
pair_modify     mix arithmetic
read_data       temp.lmps
  orthogonal box = (-95.5768 -95.5768 -95.5768) to (95.5768 95.5768 95.5768)
  1 by 1 by 1 MPI processor grid
  reading atoms ...
  332 atoms
  reading velocities ...
  332 velocities
  scanning bonds ...
  4 = max bonds/atom
  scanning angles ...
  6 = max angles/atom
  scanning dihedrals ...
  20 = max dihedrals/atom
  scanning impropers ...
  1 = max impropers/atom
  reading bonds ...
  331 bonds
  reading angles ...
  616 angles
  reading dihedrals ...
  827 dihedrals
  reading impropers ...
  22 impropers
  4 = max # of 1-2 neighbors
  11 = max # of 1-3 neighbors
  22 = max # of 1-4 neighbors
  26 = max # of special neighbors
  special bonds CPU = 0.000447035 secs
  read_data CPU = 0.00631785 secs
################################################################################

min_style cg
minimize 1e-06 1e-06 1000000 10000000
WARNING: Using 'neigh_modify every 1 delay 0 check yes' setting during minimization (../min.cpp:190)
PPPM initialization ...
WARNING: System is not charge neutral, net charge = -2.2e-05 (../kspace.cpp:313)
  using 12-bit tables for long-range coulomb (../kspace.cpp:332)
  G vector (1/distance) = 0.102103
  grid = 18 18 18
  stencil order = 5
  estimated absolute RMS force accuracy = 0.034684
  estimated relative force accuracy = 0.00010445
  using double precision KISS FFT
  3d grid and FFT values/proc = 12167 5832
Neighbor list info ...
  update every 1 steps, delay 0 steps, check yes
  max neighbors/atom: 2000, page size: 100000
  master list distance cutoff = 14
  ghost atom cutoff = 14
  binsize = 7, bins = 28 28 28
  1 neighbor lists, perpetual/occasional/extra = 1 0 0
  (1) pair lj/cut/coul/long, perpetual
      attributes: half, newton on
      pair build: half/bin/newton
      stencil: half/bin/3d/newton
      bin: standard
Per MPI rank memory allocation (min/avg/max) = 18.77 | 18.77 | 18.77 Mbytes
Step Temp E_pair E_mol TotEng Press 
       0    350.27716    649.18112    392.57058     1387.352   0.42404964 
      24    350.27716    604.48651    253.17924    1203.2661    1.5414094 
Loop time of 0.269389 on 1 procs for 24 steps with 332 atoms

99.8% CPU use with 1 MPI tasks x no OpenMP threads

Minimization stats:
  Stopping criterion = linesearch alpha is zero
  Energy initial, next-to-last, final = 
         1041.75170331      857.665745607      857.665745607
  Force two-norm initial, final = 667.742 32.9654
  Force max component initial, final = 331.697 13.2915
  Final line search alpha, max atom move = 6.26863e-12 8.33196e-11
  Iterations, force evaluations = 24 103

MPI task timing breakdown:
Section |  min time  |  avg time  |  max time  |%varavg| %total
---------------------------------------------------------------
Pair    | 0.10816    | 0.10816    | 0.10816    |   0.0 | 40.15
Bond    | 0.014077   | 0.014077   | 0.014077   |   0.0 |  5.23
Kspace  | 0.14642    | 0.14642    | 0.14642    |   0.0 | 54.35
Neigh   | 0          | 0          | 0          |   0.0 |  0.00
Comm    | 4.3631e-05 | 4.3631e-05 | 4.3631e-05 |   0.0 |  0.02
Output  | 0          | 0          | 0          |   0.0 |  0.00
Modify  | 0          | 0          | 0          |   0.0 |  0.00
Other   |            | 0.0006876  |            |       |  0.26

Nlocal:    332 ave 332 max 332 min
Histogram: 1 0 0 0 0 0 0 0 0 0
Nghost:    0 ave 0 max 0 min
Histogram: 1 0 0 0 0 0 0 0 0 0
Neighs:    30606 ave 30606 max 30606 min
Histogram: 1 0 0 0 0 0 0 0 0 0

Total # of neighbors = 30606
Ave neighs/atom = 92.1867
Ave special neighs/atom = 10.6867
Neighbor list builds = 0
Dangerous builds = 0
write_dump all custom pysimm.dump.tmp id q x y z vx vy vz
quit


################################################################################
##################################    Init    ##################################
################################################################################
units           real
atom_style      full
pair_style      lj/cut/coul/long 12.0  12.0
kspace_style    pppm 1e-4
bond_style      harmonic
angle_style     harmonic
dihedral_style  fourier
improper_style  cvff
special_bonds   amber
pair_modify     mix arithmetic
read_data       temp.lmps
  orthogonal box = (-97.0704 -97.0704 -97.0704) to (97.0704 97.0704 97.0704)
  1 by 1 by 1 MPI processor grid
  reading atoms ...
  347 atoms
  reading velocities ...
  347 velocities
  scanning bonds ...
  4 = max bonds/atom
  scanning angles ...
  6 = max angles/atom
  scanning dihedrals ...
  20 = max dihedrals/atom
  scanning impropers ...
  1 = max impropers/atom
  reading bonds ...
  346 bonds
  reading angles ...
  644 angles
  reading dihedrals ...
  865 dihedrals
  reading impropers ...
  23 impropers
  4 = max # of 1-2 neighbors
  11 = max # of 1-3 neighbors
  22 = max # of 1-4 neighbors
  26 = max # of special neighbors
  special bonds CPU = 0.000428915 secs
  read_data CPU = 0.00651407 secs
################################################################################

min_style cg
minimize 1e-06 1e-06 1000000 10000000
WARNING: Using 'neigh_modify every 1 delay 0 check yes' setting during minimization (../min.cpp:190)
PPPM initialization ...
WARNING: System is not charge neutral, net charge = -2.3e-05 (../kspace.cpp:313)
  using 12-bit tables for long-range coulomb (../kspace.cpp:332)
  G vector (1/distance) = 0.100986
  grid = 18 18 18
  stencil order = 5
  estimated absolute RMS force accuracy = 0.0358021
  estimated relative force accuracy = 0.000107817
  using double precision KISS FFT
  3d grid and FFT values/proc = 12167 5832
Neighbor list info ...
  update every 1 steps, delay 0 steps, check yes
  max neighbors/atom: 2000, page size: 100000
  master list distance cutoff = 14
  ghost atom cutoff = 14
  binsize = 7, bins = 28 28 28
  1 neighbor lists, perpetual/occasional/extra = 1 0 0
  (1) pair lj/cut/coul/long, perpetual
      attributes: half, newton on
      pair build: half/bin/newton
      stencil: half/bin/3d/newton
      bin: standard
Per MPI rank memory allocation (min/avg/max) = 18.77 | 18.77 | 18.77 Mbytes
Step Temp E_pair E_mol TotEng Press 
       0    450.83047    678.15565    411.20326    1554.3275    1.3157611 
       9    450.83047    644.22993    278.85005    1388.0486    2.5433178 
Loop time of 0.218973 on 1 procs for 9 steps with 347 atoms

99.1% CPU use with 1 MPI tasks x no OpenMP threads

Minimization stats:
  Stopping criterion = linesearch alpha is zero
  Energy initial, next-to-last, final = 
         1089.35891106      923.079980277      923.079980277
  Force two-norm initial, final = 704.885 33.4817
  Force max component initial, final = 365.985 8.15922
  Final line search alpha, max atom move = 1.11309e-11 9.08193e-11
  Iterations, force evaluations = 9 73

MPI task timing breakdown:
Section |  min time  |  avg time  |  max time  |%varavg| %total
---------------------------------------------------------------
Pair    | 0.082968   | 0.082968   | 0.082968   |   0.0 | 37.89
Bond    | 0.013112   | 0.013112   | 0.013112   |   0.0 |  5.99
Kspace  | 0.12232    | 0.12232    | 0.12232    |   0.0 | 55.86
Neigh   | 0          | 0          | 0          |   0.0 |  0.00
Comm    | 4.9114e-05 | 4.9114e-05 | 4.9114e-05 |   0.0 |  0.02
Output  | 0          | 0          | 0          |   0.0 |  0.00
Modify  | 0          | 0          | 0          |   0.0 |  0.00
Other   |            | 0.0005221  |            |       |  0.24

Nlocal:    347 ave 347 max 347 min
Histogram: 1 0 0 0 0 0 0 0 0 0
Nghost:    0 ave 0 max 0 min
Histogram: 1 0 0 0 0 0 0 0 0 0
Neighs:    27289 ave 27289 max 27289 min
Histogram: 1 0 0 0 0 0 0 0 0 0

Total # of neighbors = 27289
Ave neighs/atom = 78.6427
Ave special neighs/atom = 10.6916
Neighbor list builds = 0
Dangerous builds = 0
write_dump all custom pysimm.dump.tmp id q x y z vx vy vz
quit


################################################################################
##################################    Init    ##################################
################################################################################
units           real
atom_style      full
pair_style      lj/cut/coul/long 12.0  12.0
kspace_style    pppm 1e-4
bond_style      harmonic
angle_style     harmonic
dihedral_style  fourier
improper_style  cvff
special_bonds   amber
pair_modify     mix arithmetic
read_data       temp.lmps
  orthogonal box = (-98.5195 -98.5195 -98.5195) to (98.5195 98.5195 98.5195)
  1 by 1 by 1 MPI processor grid
  reading atoms ...
  362 atoms
  reading velocities ...
  362 velocities
  scanning bonds ...
  4 = max bonds/atom
  scanning angles ...
  6 = max angles/atom
  scanning dihedrals ...
  20 = max dihedrals/atom
  scanning impropers ...
  1 = max impropers/atom
  reading bonds ...
  361 bonds
  reading angles ...
  672 angles
  reading dihedrals ...
  903 dihedrals
  reading impropers ...
  24 impropers
  4 = max # of 1-2 neighbors
  11 = max # of 1-3 neighbors
  22 = max # of 1-4 neighbors
  26 = max # of special neighbors
  special bonds CPU = 0.000458956 secs
  read_data CPU = 0.00652003 secs
################################################################################

min_style cg
minimize 1e-06 1e-06 1000000 10000000
WARNING: Using 'neigh_modify every 1 delay 0 check yes' setting during minimization (../min.cpp:190)
PPPM initialization ...
WARNING: System is not charge neutral, net charge = -2.4e-05 (../kspace.cpp:313)
  using 12-bit tables for long-range coulomb (../kspace.cpp:332)
  G vector (1/distance) = 0.0999241
  grid = 18 18 18
  stencil order = 5
  estimated absolute RMS force accuracy = 0.0368874
  estimated relative force accuracy = 0.000111085
  using double precision KISS FFT
  3d grid and FFT values/proc = 12167 5832
Neighbor list info ...
  update every 1 steps, delay 0 steps, check yes
  max neighbors/atom: 2000, page size: 100000
  master list distance cutoff = 14
  ghost atom cutoff = 14
  binsize = 7, bins = 29 29 29
  1 neighbor lists, perpetual/occasional/extra = 1 0 0
  (1) pair lj/cut/coul/long, perpetual
      attributes: half, newton on
      pair build: half/bin/newton
      stencil: half/bin/3d/newton
      bin: standard
Per MPI rank memory allocation (min/avg/max) = 18.79 | 18.79 | 18.79 Mbytes
Step Temp E_pair E_mol TotEng Press 
       0    387.97193    658.70317    399.44776    1475.6368  0.070380404 
      16    387.97193    646.24398    262.72922    1326.4591    2.4059504 
Loop time of 0.248494 on 1 procs for 16 steps with 362 atoms

100.2% CPU use with 1 MPI tasks x no OpenMP threads

Minimization stats:
  Stopping criterion = linesearch alpha is zero
  Energy initial, next-to-last, final = 
         1058.15093609      908.973200741      908.973200741
  Force two-norm initial, final = 616.361 28.5335
  Force max component initial, final = 292.106 7.6869
  Final line search alpha, max atom move = 1.3416e-11 1.03127e-10
  Iterations, force evaluations = 16 87

MPI task timing breakdown:
Section |  min time  |  avg time  |  max time  |%varavg| %total
---------------------------------------------------------------
Pair    | 0.10804    | 0.10804    | 0.10804    |   0.0 | 43.48
Bond    | 0.013375   | 0.013375   | 0.013375   |   0.0 |  5.38
Kspace  | 0.12638    | 0.12638    | 0.12638    |   0.0 | 50.86
Neigh   | 0          | 0          | 0          |   0.0 |  0.00
Comm    | 3.7432e-05 | 3.7432e-05 | 3.7432e-05 |   0.0 |  0.02
Output  | 0          | 0          | 0          |   0.0 |  0.00
Modify  | 0          | 0          | 0          |   0.0 |  0.00
Other   |            | 0.000664   |            |       |  0.27

Nlocal:    362 ave 362 max 362 min
Histogram: 1 0 0 0 0 0 0 0 0 0
Nghost:    0 ave 0 max 0 min
Histogram: 1 0 0 0 0 0 0 0 0 0
Neighs:    35437 ave 35437 max 35437 min
Histogram: 1 0 0 0 0 0 0 0 0 0

Total # of neighbors = 35437
Ave neighs/atom = 97.8923
Ave special neighs/atom = 10.6961
Neighbor list builds = 0
Dangerous builds = 0
write_dump all custom pysimm.dump.tmp id q x y z vx vy vz
quit


################################################################################
##################################    Init    ##################################
################################################################################
units           real
atom_style      full
pair_style      lj/cut/coul/long 12.0  12.0
kspace_style    pppm 1e-4
bond_style      harmonic
angle_style     harmonic
dihedral_style  fourier
improper_style  cvff
special_bonds   amber
pair_modify     mix arithmetic
read_data       temp.lmps
  orthogonal box = (-99.9271 -99.9271 -99.9271) to (99.9271 99.9271 99.9271)
  1 by 1 by 1 MPI processor grid
  reading atoms ...
  377 atoms
  reading velocities ...
  377 velocities
  scanning bonds ...
  4 = max bonds/atom
  scanning angles ...
  6 = max angles/atom
  scanning dihedrals ...
  20 = max dihedrals/atom
  scanning impropers ...
  1 = max impropers/atom
  reading bonds ...
  376 bonds
  reading angles ...
  700 angles
  reading dihedrals ...
  941 dihedrals
  reading impropers ...
  25 impropers
  4 = max # of 1-2 neighbors
  11 = max # of 1-3 neighbors
  22 = max # of 1-4 neighbors
  26 = max # of special neighbors
  special bonds CPU = 0.00118804 secs
  read_data CPU = 0.016948 secs
################################################################################

min_style cg
minimize 1e-06 1e-06 1000000 10000000
WARNING: Using 'neigh_modify every 1 delay 0 check yes' setting during minimization (../min.cpp:190)
PPPM initialization ...
WARNING: System is not charge neutral, net charge = -2.5e-05 (../kspace.cpp:313)
  using 12-bit tables for long-range coulomb (../kspace.cpp:332)
  G vector (1/distance) = 0.106538
  grid = 20 20 20
  stencil order = 5
  estimated absolute RMS force accuracy = 0.0302785
  estimated relative force accuracy = 9.11828e-05
  using double precision KISS FFT
  3d grid and FFT values/proc = 15625 8000
Neighbor list info ...
  update every 1 steps, delay 0 steps, check yes
  max neighbors/atom: 2000, page size: 100000
  master list distance cutoff = 14
  ghost atom cutoff = 14
  binsize = 7, bins = 29 29 29
  1 neighbor lists, perpetual/occasional/extra = 1 0 0
  (1) pair lj/cut/coul/long, perpetual
      attributes: half, newton on
      pair build: half/bin/newton
      stencil: half/bin/3d/newton
      bin: standard
Per MPI rank memory allocation (min/avg/max) = 19.11 | 19.11 | 19.11 Mbytes
Step Temp E_pair E_mol TotEng Press 
       0    306.10678    687.90738    408.87046    1439.8576    -0.435427 
       9    306.10678    681.77297    276.37894    1301.2317    1.7798332 
Loop time of 0.591033 on 1 procs for 9 steps with 377 atoms

96.9% CPU use with 1 MPI tasks x no OpenMP threads

Minimization stats:
  Stopping criterion = linesearch alpha is zero
  Energy initial, next-to-last, final = 
         1096.77784571       958.15190688       958.15190688
  Force two-norm initial, final = 600.688 24.8355
  Force max component initial, final = 289.084 5.9333
  Final line search alpha, max atom move = 1.29948e-11 7.71023e-11
  Iterations, force evaluations = 9 73

MPI task timing breakdown:
Section |  min time  |  avg time  |  max time  |%varavg| %total
---------------------------------------------------------------
Pair    | 0.2427     | 0.2427     | 0.2427     |   0.0 | 41.06
Bond    | 0.030228   | 0.030228   | 0.030228   |   0.0 |  5.11
Kspace  | 0.31672    | 0.31672    | 0.31672    |   0.0 | 53.59
Neigh   | 0          | 0          | 0          |   0.0 |  0.00
Comm    | 7.0572e-05 | 7.0572e-05 | 7.0572e-05 |   0.0 |  0.01
Output  | 0          | 0          | 0          |   0.0 |  0.00
Modify  | 0          | 0          | 0          |   0.0 |  0.00
Other   |            | 0.001311   |            |       |  0.22

Nlocal:    377 ave 377 max 377 min
Histogram: 1 0 0 0 0 0 0 0 0 0
Nghost:    0 ave 0 max 0 min
Histogram: 1 0 0 0 0 0 0 0 0 0
Neighs:    37553 ave 37553 max 37553 min
Histogram: 1 0 0 0 0 0 0 0 0 0

Total # of neighbors = 37553
Ave neighs/atom = 99.6101
Ave special neighs/atom = 10.7003
Neighbor list builds = 0
Dangerous builds = 0
write_dump all custom pysimm.dump.tmp id q x y z vx vy vz
quit


################################################################################
##################################    Init    ##################################
################################################################################
units           real
atom_style      full
pair_style      lj/cut/coul/long 12.0  12.0
kspace_style    pppm 1e-4
bond_style      harmonic
angle_style     harmonic
dihedral_style  fourier
improper_style  cvff
special_bonds   amber
pair_modify     mix arithmetic
read_data       temp.lmps
  orthogonal box = (-101.296 -101.296 -101.296) to (101.296 101.296 101.296)
  1 by 1 by 1 MPI processor grid
  reading atoms ...
  392 atoms
  reading velocities ...
  392 velocities
  scanning bonds ...
  4 = max bonds/atom
  scanning angles ...
  6 = max angles/atom
  scanning dihedrals ...
  20 = max dihedrals/atom
  scanning impropers ...
  1 = max impropers/atom
  reading bonds ...
  391 bonds
  reading angles ...
  728 angles
  reading dihedrals ...
  979 dihedrals
  reading impropers ...
  26 impropers
  4 = max # of 1-2 neighbors
  11 = max # of 1-3 neighbors
  22 = max # of 1-4 neighbors
  26 = max # of special neighbors
  special bonds CPU = 0.001441 secs
  read_data CPU = 0.0208349 secs
################################################################################

min_style cg
minimize 1e-06 1e-06 1000000 10000000
WARNING: Using 'neigh_modify every 1 delay 0 check yes' setting during minimization (../min.cpp:190)
PPPM initialization ...
WARNING: System is not charge neutral, net charge = -2.6e-05 (../kspace.cpp:313)
  using 12-bit tables for long-range coulomb (../kspace.cpp:332)
  G vector (1/distance) = 0.105539
  grid = 20 20 20
  stencil order = 5
  estimated absolute RMS force accuracy = 0.0311954
  estimated relative force accuracy = 9.39439e-05
  using double precision KISS FFT
  3d grid and FFT values/proc = 15625 8000
Neighbor list info ...
  update every 1 steps, delay 0 steps, check yes
  max neighbors/atom: 2000, page size: 100000
  master list distance cutoff = 14
  ghost atom cutoff = 14
  binsize = 7, bins = 29 29 29
  1 neighbor lists, perpetual/occasional/extra = 1 0 0
  (1) pair lj/cut/coul/long, perpetual
      attributes: half, newton on
      pair build: half/bin/newton
      stencil: half/bin/3d/newton
      bin: standard
Per MPI rank memory allocation (min/avg/max) = 19.11 | 19.11 | 19.11 Mbytes
Step Temp E_pair E_mol TotEng Press 
       0    292.75008    741.84959    429.86477    1512.9136    0.2697627 
       9    292.75008    714.14383    299.13984    1354.4829     1.597003 
Loop time of 0.743128 on 1 procs for 9 steps with 392 atoms

98.4% CPU use with 1 MPI tasks x no OpenMP threads

Minimization stats:
  Stopping criterion = linesearch alpha is zero
  Energy initial, next-to-last, final = 
         1171.71436035      1013.28366684      1013.28366684
  Force two-norm initial, final = 672.227 33.3868
  Force max component initial, final = 308.832 7.2919
  Final line search alpha, max atom move = 6.63945e-12 4.84142e-11
  Iterations, force evaluations = 9 75

MPI task timing breakdown:
Section |  min time  |  avg time  |  max time  |%varavg| %total
---------------------------------------------------------------
Pair    | 0.30718    | 0.30718    | 0.30718    |   0.0 | 41.34
Bond    | 0.035353   | 0.035353   | 0.035353   |   0.0 |  4.76
Kspace  | 0.39892    | 0.39892    | 0.39892    |   0.0 | 53.68
Neigh   | 0          | 0          | 0          |   0.0 |  0.00
Comm    | 0.00012732 | 0.00012732 | 0.00012732 |   0.0 |  0.02
Output  | 0          | 0          | 0          |   0.0 |  0.00
Modify  | 0          | 0          | 0          |   0.0 |  0.00
Other   |            | 0.001548   |            |       |  0.21

Nlocal:    392 ave 392 max 392 min
Histogram: 1 0 0 0 0 0 0 0 0 0
Nghost:    0 ave 0 max 0 min
Histogram: 1 0 0 0 0 0 0 0 0 0
Neighs:    40332 ave 40332 max 40332 min
Histogram: 1 0 0 0 0 0 0 0 0 0

Total # of neighbors = 40332
Ave neighs/atom = 102.888
Ave special neighs/atom = 10.7041
Neighbor list builds = 0
Dangerous builds = 0
write_dump all custom pysimm.dump.tmp id q x y z vx vy vz
quit


################################################################################
##################################    Init    ##################################
################################################################################
units           real
atom_style      full
pair_style      lj/cut/coul/long 12.0  12.0
kspace_style    pppm 1e-4
bond_style      harmonic
angle_style     harmonic
dihedral_style  fourier
improper_style  cvff
special_bonds   amber
pair_modify     mix arithmetic
read_data       temp.lmps
  orthogonal box = (-102.629 -102.629 -102.629) to (102.629 102.629 102.629)
  1 by 1 by 1 MPI processor grid
  reading atoms ...
  407 atoms
  reading velocities ...
  407 velocities
  scanning bonds ...
  4 = max bonds/atom
  scanning angles ...
  6 = max angles/atom
  scanning dihedrals ...
  20 = max dihedrals/atom
  scanning impropers ...
  1 = max impropers/atom
  reading bonds ...
  406 bonds
  reading angles ...
  756 angles
  reading dihedrals ...
  1017 dihedrals
  reading impropers ...
  27 impropers
  4 = max # of 1-2 neighbors
  11 = max # of 1-3 neighbors
  22 = max # of 1-4 neighbors
  26 = max # of special neighbors
  special bonds CPU = 0.000509977 secs
  read_data CPU = 0.00673509 secs
################################################################################

min_style cg
minimize 1e-06 1e-06 1000000 10000000
WARNING: Using 'neigh_modify every 1 delay 0 check yes' setting during minimization (../min.cpp:190)
PPPM initialization ...
WARNING: System is not charge neutral, net charge = -2.7e-05 (../kspace.cpp:313)
  using 12-bit tables for long-range coulomb (../kspace.cpp:332)
  G vector (1/distance) = 0.104582
  grid = 20 20 20
  stencil order = 5
  estimated absolute RMS force accuracy = 0.0320907
  estimated relative force accuracy = 9.66401e-05
  using double precision KISS FFT
  3d grid and FFT values/proc = 15625 8000
Neighbor list info ...
  update every 1 steps, delay 0 steps, check yes
  max neighbors/atom: 2000, page size: 100000
  master list distance cutoff = 14
  ghost atom cutoff = 14
  binsize = 7, bins = 30 30 30
  1 neighbor lists, perpetual/occasional/extra = 1 0 0
  (1) pair lj/cut/coul/long, perpetual
      attributes: half, newton on
      pair build: half/bin/newton
      stencil: half/bin/3d/newton
      bin: standard
Per MPI rank memory allocation (min/avg/max) = 19.12 | 19.12 | 19.12 Mbytes
Step Temp E_pair E_mol TotEng Press 
       0    297.88402    762.87146    445.01529    1568.3886   -0.4660178 
      33    297.88402    735.73624     294.6404    1390.8785    1.5100345 
Loop time of 0.694773 on 1 procs for 33 steps with 407 atoms

99.7% CPU use with 1 MPI tasks x no OpenMP threads

Minimization stats:
  Stopping criterion = linesearch alpha is zero
  Energy initial, next-to-last, final = 
           1207.886753      1030.37663591      1030.37663591
  Force two-norm initial, final = 700.874 28.1769
  Force max component initial, final = 418.963 9.02278
  Final line search alpha, max atom move = 1.56035e-11 1.40787e-10
  Iterations, force evaluations = 33 118

MPI task timing breakdown:
Section |  min time  |  avg time  |  max time  |%varavg| %total
---------------------------------------------------------------
Pair    | 0.27981    | 0.27981    | 0.27981    |   0.0 | 40.27
Bond    | 0.037129   | 0.037129   | 0.037129   |   0.0 |  5.34
Kspace  | 0.37602    | 0.37602    | 0.37602    |   0.0 | 54.12
Neigh   | 0          | 0          | 0          |   0.0 |  0.00
Comm    | 9.0599e-05 | 9.0599e-05 | 9.0599e-05 |   0.0 |  0.01
Output  | 0          | 0          | 0          |   0.0 |  0.00
Modify  | 0          | 0          | 0          |   0.0 |  0.00
Other   |            | 0.001729   |            |       |  0.25

Nlocal:    407 ave 407 max 407 min
Histogram: 1 0 0 0 0 0 0 0 0 0
Nghost:    0 ave 0 max 0 min
Histogram: 1 0 0 0 0 0 0 0 0 0
Neighs:    37782 ave 37782 max 37782 min
Histogram: 1 0 0 0 0 0 0 0 0 0

Total # of neighbors = 37782
Ave neighs/atom = 92.8305
Ave special neighs/atom = 10.7076
Neighbor list builds = 0
Dangerous builds = 0
write_dump all custom pysimm.dump.tmp id q x y z vx vy vz
quit


################################################################################
##################################    Init    ##################################
################################################################################
units           real
atom_style      full
pair_style      lj/cut/coul/long 12.0  12.0
kspace_style    pppm 1e-4
bond_style      harmonic
angle_style     harmonic
dihedral_style  fourier
improper_style  cvff
special_bonds   amber
pair_modify     mix arithmetic
read_data       temp.lmps
  orthogonal box = (-103.928 -103.928 -103.928) to (103.928 103.928 103.928)
  1 by 1 by 1 MPI processor grid
  reading atoms ...
  422 atoms
  reading velocities ...
  422 velocities
  scanning bonds ...
  4 = max bonds/atom
  scanning angles ...
  6 = max angles/atom
  scanning dihedrals ...
  20 = max dihedrals/atom
  scanning impropers ...
  1 = max impropers/atom
  reading bonds ...
  421 bonds
  reading angles ...
  784 angles
  reading dihedrals ...
  1055 dihedrals
  reading impropers ...
  28 impropers
  4 = max # of 1-2 neighbors
  11 = max # of 1-3 neighbors
  22 = max # of 1-4 neighbors
  26 = max # of special neighbors
  special bonds CPU = 0.00102901 secs
  read_data CPU = 0.016845 secs
################################################################################

min_style cg
minimize 1e-06 1e-06 1000000 10000000
WARNING: Using 'neigh_modify every 1 delay 0 check yes' setting during minimization (../min.cpp:190)
PPPM initialization ...
WARNING: System is not charge neutral, net charge = -2.8e-05 (../kspace.cpp:313)
  using 12-bit tables for long-range coulomb (../kspace.cpp:332)
  G vector (1/distance) = 0.103669
  grid = 20 20 20
  stencil order = 5
  estimated absolute RMS force accuracy = 0.0329684
  estimated relative force accuracy = 9.92834e-05
  using double precision KISS FFT
  3d grid and FFT values/proc = 15625 8000
Neighbor list info ...
  update every 1 steps, delay 0 steps, check yes
  max neighbors/atom: 2000, page size: 100000
  master list distance cutoff = 14
  ghost atom cutoff = 14
  binsize = 7, bins = 30 30 30
  1 neighbor lists, perpetual/occasional/extra = 1 0 0
  (1) pair lj/cut/coul/long, perpetual
      attributes: half, newton on
      pair build: half/bin/newton
      stencil: half/bin/3d/newton
      bin: standard
Per MPI rank memory allocation (min/avg/max) = 19.13 | 19.13 | 19.13 Mbytes
Step Temp E_pair E_mol TotEng Press 
       0    291.92143    792.66125    457.27428    1616.2739   0.56670189 
      20    291.92143    767.02497    314.73828    1448.1016    1.3215329 
Loop time of 0.786381 on 1 procs for 20 steps with 422 atoms

99.9% CPU use with 1 MPI tasks x no OpenMP threads

Minimization stats:
  Stopping criterion = linesearch alpha is zero
  Energy initial, next-to-last, final = 
         1249.93553022      1081.76325164      1081.76325164
  Force two-norm initial, final = 669.755 43.7502
  Force max component initial, final = 293.897 10.0516
  Final line search alpha, max atom move = 5.20778e-12 5.23465e-11
  Iterations, force evaluations = 20 96

MPI task timing breakdown:
Section |  min time  |  avg time  |  max time  |%varavg| %total
---------------------------------------------------------------
Pair    | 0.33253    | 0.33253    | 0.33253    |   0.0 | 42.29
Bond    | 0.039744   | 0.039744   | 0.039744   |   0.0 |  5.05
Kspace  | 0.41218    | 0.41218    | 0.41218    |   0.0 | 52.42
Neigh   | 0          | 0          | 0          |   0.0 |  0.00
Comm    | 7.7724e-05 | 7.7724e-05 | 7.7724e-05 |   0.0 |  0.01
Output  | 0          | 0          | 0          |   0.0 |  0.00
Modify  | 0          | 0          | 0          |   0.0 |  0.00
Other   |            | 0.001847   |            |       |  0.23

Nlocal:    422 ave 422 max 422 min
Histogram: 1 0 0 0 0 0 0 0 0 0
Nghost:    0 ave 0 max 0 min
Histogram: 1 0 0 0 0 0 0 0 0 0
Neighs:    44777 ave 44777 max 44777 min
Histogram: 1 0 0 0 0 0 0 0 0 0

Total # of neighbors = 44777
Ave neighs/atom = 106.107
Ave special neighs/atom = 10.7109
Neighbor list builds = 0
Dangerous builds = 0
write_dump all custom pysimm.dump.tmp id q x y z vx vy vz
quit


################################################################################
##################################    Init    ##################################
################################################################################
units           real
atom_style      full
pair_style      lj/cut/coul/long 12.0  12.0
kspace_style    pppm 1e-4
bond_style      harmonic
angle_style     harmonic
dihedral_style  fourier
improper_style  cvff
special_bonds   amber
pair_modify     mix arithmetic
read_data       temp.lmps
  orthogonal box = (-105.196 -105.196 -105.196) to (105.196 105.196 105.196)
  1 by 1 by 1 MPI processor grid
  reading atoms ...
  437 atoms
  reading velocities ...
  437 velocities
  scanning bonds ...
  4 = max bonds/atom
  scanning angles ...
  6 = max angles/atom
  scanning dihedrals ...
  20 = max dihedrals/atom
  scanning impropers ...
  1 = max impropers/atom
  reading bonds ...
  436 bonds
  reading angles ...
  812 angles
  reading dihedrals ...
  1093 dihedrals
  reading impropers ...
  29 impropers
  4 = max # of 1-2 neighbors
  11 = max # of 1-3 neighbors
  22 = max # of 1-4 neighbors
  26 = max # of special neighbors
  special bonds CPU = 0.000463009 secs
  read_data CPU = 0.00656199 secs
################################################################################

min_style cg
minimize 1e-06 1e-06 1000000 10000000
[...]
  692 velocities
  scanning bonds ...
  4 = max bonds/atom
  scanning angles ...
  6 = max angles/atom
  scanning dihedrals ...
  20 = max dihedrals/atom
  scanning impropers ...
  1 = max impropers/atom
  reading bonds ...
  691 bonds
  reading angles ...
  1288 angles
  reading dihedrals ...
  1739 dihedrals
  reading impropers ...
  46 impropers
  4 = max # of 1-2 neighbors
  11 = max # of 1-3 neighbors
  22 = max # of 1-4 neighbors
  26 = max # of special neighbors
  special bonds CPU = 0.000638962 secs
  read_data CPU = 0.00876307 secs
################################################################################

min_style cg
minimize 1e-06 1e-06 1000000 10000000
WARNING: Using 'neigh_modify every 1 delay 0 check yes' setting during minimization (../min.cpp:190)
PPPM initialization ...
WARNING: System is not charge neutral, net charge = -4.6e-05 (../kspace.cpp:313)
  using 12-bit tables for long-range coulomb (../kspace.cpp:332)
  G vector (1/distance) = 0.104543
  grid = 24 24 24
  stencil order = 5
  estimated absolute RMS force accuracy = 0.0319086
  estimated relative force accuracy = 9.60917e-05
  using double precision KISS FFT
  3d grid and FFT values/proc = 24389 13824
Neighbor list info ...
  update every 1 steps, delay 0 steps, check yes
  max neighbors/atom: 2000, page size: 100000
  master list distance cutoff = 14
  ghost atom cutoff = 14
  binsize = 7, bins = 36 36 36
  1 neighbor lists, perpetual/occasional/extra = 1 0 0
  (1) pair lj/cut/coul/long, perpetual
      attributes: half, newton on
      pair build: half/bin/newton
      stencil: half/bin/3d/newton
      bin: standard
Per MPI rank memory allocation (min/avg/max) = 20.08 | 20.08 | 20.08 Mbytes
Step Temp E_pair E_mol TotEng Press 
       0    212.20685    1306.7479    644.54938    2388.3881   0.54963788 
       9    212.20685    1271.4069    511.94942    2220.4472    1.3370839 
Loop time of 0.449725 on 1 procs for 9 steps with 692 atoms

98.9% CPU use with 1 MPI tasks x no OpenMP threads

Minimization stats:
  Stopping criterion = linesearch alpha is zero
  Energy initial, next-to-last, final = 
          1951.2972549      1783.35635651      1783.35635651
  Force two-norm initial, final = 714.917 47.4536
  Force max component initial, final = 418.32 11.0225
  Final line search alpha, max atom move = 3.36922e-12 3.71371e-11
  Iterations, force evaluations = 9 74

MPI task timing breakdown:
Section |  min time  |  avg time  |  max time  |%varavg| %total
---------------------------------------------------------------
Pair    | 0.16153    | 0.16153    | 0.16153    |   0.0 | 35.92
Bond    | 0.022469   | 0.022469   | 0.022469   |   0.0 |  5.00
Kspace  | 0.26487    | 0.26487    | 0.26487    |   0.0 | 58.90
Neigh   | 0          | 0          | 0          |   0.0 |  0.00
Comm    | 3.6716e-05 | 3.6716e-05 | 3.6716e-05 |   0.0 |  0.01
Output  | 0          | 0          | 0          |   0.0 |  0.00
Modify  | 0          | 0          | 0          |   0.0 |  0.00
Other   |            | 0.0008199  |            |       |  0.18

Nlocal:    692 ave 692 max 692 min
Histogram: 1 0 0 0 0 0 0 0 0 0
Nghost:    0 ave 0 max 0 min
Histogram: 1 0 0 0 0 0 0 0 0 0
Neighs:    60547 ave 60547 max 60547 min
Histogram: 1 0 0 0 0 0 0 0 0 0

Total # of neighbors = 60547
Ave neighs/atom = 87.4957
Ave special neighs/atom = 10.7457
Neighbor list builds = 0
Dangerous builds = 0
write_dump all custom pysimm.dump.tmp id q x y z vx vy vz
quit


################################################################################
##################################    Init    ##################################
################################################################################
units           real
atom_style      full
pair_style      lj/cut/coul/long 12.0  12.0
kspace_style    pppm 1e-4
bond_style      harmonic
angle_style     harmonic
dihedral_style  fourier
improper_style  cvff
special_bonds   amber
pair_modify     mix arithmetic
read_data       temp.lmps
  orthogonal box = (-124.127 -124.127 -124.127) to (124.127 124.127 124.127)
  1 by 1 by 1 MPI processor grid
  reading atoms ...
  707 atoms
  reading velocities ...
  707 velocities
  scanning bonds ...
  4 = max bonds/atom
  scanning angles ...
  6 = max angles/atom
  scanning dihedrals ...
  20 = max dihedrals/atom
  scanning impropers ...
  1 = max impropers/atom
  reading bonds ...
  706 bonds
  reading angles ...
  1316 angles
  reading dihedrals ...
  1777 dihedrals
  reading impropers ...
  47 impropers
  4 = max # of 1-2 neighbors
  11 = max # of 1-3 neighbors
  22 = max # of 1-4 neighbors
  26 = max # of special neighbors
  special bonds CPU = 0.000612974 secs
  read_data CPU = 0.00883913 secs
################################################################################

min_style cg
minimize 1e-06 1e-06 1000000 10000000
WARNING: Using 'neigh_modify every 1 delay 0 check yes' setting during minimization (../min.cpp:190)
PPPM initialization ...
WARNING: System is not charge neutral, net charge = -4.7e-05 (../kspace.cpp:313)
  using 12-bit tables for long-range coulomb (../kspace.cpp:332)
  G vector (1/distance) = 0.104009
  grid = 24 24 24
  stencil order = 5
  estimated absolute RMS force accuracy = 0.0324179
  estimated relative force accuracy = 9.76255e-05
  using double precision KISS FFT
  3d grid and FFT values/proc = 24389 13824
Neighbor list info ...
  update every 1 steps, delay 0 steps, check yes
  max neighbors/atom: 2000, page size: 100000
  master list distance cutoff = 14
  ghost atom cutoff = 14
  binsize = 7, bins = 36 36 36
  1 neighbor lists, perpetual/occasional/extra = 1 0 0
  (1) pair lj/cut/coul/long, perpetual
      attributes: half, newton on
      pair build: half/bin/newton
      stencil: half/bin/3d/newton
      bin: standard
Per MPI rank memory allocation (min/avg/max) = 20.08 | 20.08 | 20.08 Mbytes
Step Temp E_pair E_mol TotEng Press 
       0    205.31294    1302.9323    665.93291    2400.9364  -0.57779101 
       9    205.31294    1293.5741    532.35407    2257.9994   0.54566718 
Loop time of 0.442761 on 1 procs for 9 steps with 707 atoms

100.0% CPU use with 1 MPI tasks x no OpenMP threads

Minimization stats:
  Stopping criterion = linesearch alpha is zero
  Energy initial, next-to-last, final = 
          1968.8652387      1825.92820508      1825.92820508
  Force two-norm initial, final = 595.949 35.0159
  Force max component initial, final = 281.784 8.00897
  Final line search alpha, max atom move = 5.35822e-12 4.29138e-11
  Iterations, force evaluations = 9 75

MPI task timing breakdown:
Section |  min time  |  avg time  |  max time  |%varavg| %total
---------------------------------------------------------------
Pair    | 0.16471    | 0.16471    | 0.16471    |   0.0 | 37.20
Bond    | 0.022418   | 0.022418   | 0.022418   |   0.0 |  5.06
Kspace  | 0.2547     | 0.2547     | 0.2547     |   0.0 | 57.53
Neigh   | 0          | 0          | 0          |   0.0 |  0.00
Comm    | 4.1723e-05 | 4.1723e-05 | 4.1723e-05 |   0.0 |  0.01
Output  | 0          | 0          | 0          |   0.0 |  0.00
Modify  | 0          | 0          | 0          |   0.0 |  0.00
Other   |            | 0.0008848  |            |       |  0.20

Nlocal:    707 ave 707 max 707 min
Histogram: 1 0 0 0 0 0 0 0 0 0
Nghost:    0 ave 0 max 0 min
Histogram: 1 0 0 0 0 0 0 0 0 0
Neighs:    60303 ave 60303 max 60303 min
Histogram: 1 0 0 0 0 0 0 0 0 0

Total # of neighbors = 60303
Ave neighs/atom = 85.2942
Ave special neighs/atom = 10.7468
Neighbor list builds = 0
Dangerous builds = 0
write_dump all custom pysimm.dump.tmp id q x y z vx vy vz
quit


################################################################################
##################################    Init    ##################################
################################################################################
units           real
atom_style      full
pair_style      lj/cut/coul/long 12.0  12.0
kspace_style    pppm 1e-4
bond_style      harmonic
angle_style     harmonic
dihedral_style  fourier
improper_style  cvff
special_bonds   amber
pair_modify     mix arithmetic
read_data       temp.lmps
  orthogonal box = (-125.02 -125.02 -125.02) to (125.02 125.02 125.02)
  1 by 1 by 1 MPI processor grid
  reading atoms ...
  722 atoms
  reading velocities ...
  722 velocities
  scanning bonds ...
  4 = max bonds/atom
  scanning angles ...
  6 = max angles/atom
  scanning dihedrals ...
  20 = max dihedrals/atom
  scanning impropers ...
  1 = max impropers/atom
  reading bonds ...
  721 bonds
  reading angles ...
  1344 angles
  reading dihedrals ...
  1815 dihedrals
  reading impropers ...
  48 impropers
  4 = max # of 1-2 neighbors
  11 = max # of 1-3 neighbors
  22 = max # of 1-4 neighbors
  26 = max # of special neighbors
  special bonds CPU = 0.00068593 secs
  read_data CPU = 0.00916314 secs
################################################################################

min_style cg
minimize 1e-06 1e-06 1000000 10000000
WARNING: Using 'neigh_modify every 1 delay 0 check yes' setting during minimization (../min.cpp:190)
PPPM initialization ...
WARNING: System is not charge neutral, net charge = -4.8e-05 (../kspace.cpp:313)
  using 12-bit tables for long-range coulomb (../kspace.cpp:332)
  G vector (1/distance) = 0.103491
  grid = 24 24 24
  stencil order = 5
  estimated absolute RMS force accuracy = 0.0329239
  estimated relative force accuracy = 9.91492e-05
  using double precision KISS FFT
  3d grid and FFT values/proc = 24389 13824
Neighbor list info ...
  update every 1 steps, delay 0 steps, check yes
  max neighbors/atom: 2000, page size: 100000
  master list distance cutoff = 14
  ghost atom cutoff = 14
  binsize = 7, bins = 36 36 36
  1 neighbor lists, perpetual/occasional/extra = 1 0 0
  (1) pair lj/cut/coul/long, perpetual
      attributes: half, newton on
      pair build: half/bin/newton
      stencil: half/bin/3d/newton
      bin: standard
Per MPI rank memory allocation (min/avg/max) = 20.09 | 20.09 | 20.09 Mbytes
Step Temp E_pair E_mol TotEng Press 
       0    163.54156    1321.3171      662.106    2334.9007 -0.074877972 
      46    163.54156    1311.5817    499.77407    2162.8334    1.0276654 
Loop time of 0.899131 on 1 procs for 46 steps with 722 atoms

100.0% CPU use with 1 MPI tasks x no OpenMP threads

Minimization stats:
  Stopping criterion = linesearch alpha is zero
  Energy initial, next-to-last, final = 
         1983.42307993      1811.35579277      1811.35579277
  Force two-norm initial, final = 591.546 20.0177
  Force max component initial, final = 277.376 3.63444
  Final line search alpha, max atom move = 2.16828e-11 7.8805e-11
  Iterations, force evaluations = 46 155

MPI task timing breakdown:
Section |  min time  |  avg time  |  max time  |%varavg| %total
---------------------------------------------------------------
Pair    | 0.32493    | 0.32493    | 0.32493    |   0.0 | 36.14
Bond    | 0.045903   | 0.045903   | 0.045903   |   0.0 |  5.11
Kspace  | 0.52448    | 0.52448    | 0.52448    |   0.0 | 58.33
Neigh   | 0.001591   | 0.001591   | 0.001591   |   0.0 |  0.18
Comm    | 6.4135e-05 | 6.4135e-05 | 6.4135e-05 |   0.0 |  0.01
Output  | 0          | 0          | 0          |   0.0 |  0.00
Modify  | 0          | 0          | 0          |   0.0 |  0.00
Other   |            | 0.002166   |            |       |  0.24

Nlocal:    722 ave 722 max 722 min
Histogram: 1 0 0 0 0 0 0 0 0 0
Nghost:    0 ave 0 max 0 min
Histogram: 1 0 0 0 0 0 0 0 0 0
Neighs:    60498 ave 60498 max 60498 min
Histogram: 1 0 0 0 0 0 0 0 0 0

Total # of neighbors = 60498
Ave neighs/atom = 83.7922
Ave special neighs/atom = 10.7479
Neighbor list builds = 1
Dangerous builds = 0
write_dump all custom pysimm.dump.tmp id q x y z vx vy vz
quit


################################################################################
##################################    Init    ##################################
################################################################################
units           real
atom_style      full
pair_style      lj/cut/coul/long 12.0  12.0
kspace_style    pppm 1e-4
bond_style      harmonic
angle_style     harmonic
dihedral_style  fourier
improper_style  cvff
special_bonds   amber
pair_modify     mix arithmetic
read_data       temp.lmps
  orthogonal box = (-125.9 -125.9 -125.9) to (125.9 125.9 125.9)
  1 by 1 by 1 MPI processor grid
  reading atoms ...
  737 atoms
  reading velocities ...
  737 velocities
  scanning bonds ...
  4 = max bonds/atom
  scanning angles ...
  6 = max angles/atom
  scanning dihedrals ...
  20 = max dihedrals/atom
  scanning impropers ...
  1 = max impropers/atom
  reading bonds ...
  736 bonds
  reading angles ...
  1372 angles
  reading dihedrals ...
  1853 dihedrals
  reading impropers ...
  49 impropers
  4 = max # of 1-2 neighbors
  11 = max # of 1-3 neighbors
  22 = max # of 1-4 neighbors
  26 = max # of special neighbors
  special bonds CPU = 0.000664949 secs
  read_data CPU = 0.00896311 secs
################################################################################

min_style cg
minimize 1e-06 1e-06 1000000 10000000
WARNING: Using 'neigh_modify every 1 delay 0 check yes' setting during minimization (../min.cpp:190)
PPPM initialization ...
WARNING: System is not charge neutral, net charge = -4.9e-05 (../kspace.cpp:313)
  using 12-bit tables for long-range coulomb (../kspace.cpp:332)
  G vector (1/distance) = 0.102981
  grid = 24 24 24
  stencil order = 5
  estimated absolute RMS force accuracy = 0.0334193
  estimated relative force accuracy = 0.000100641
  using double precision KISS FFT
  3d grid and FFT values/proc = 24389 13824
Neighbor list info ...
  update every 1 steps, delay 0 steps, check yes
  max neighbors/atom: 2000, page size: 100000
  master list distance cutoff = 14
  ghost atom cutoff = 14
  binsize = 7, bins = 36 36 36
  1 neighbor lists, perpetual/occasional/extra = 1 0 0
  (1) pair lj/cut/coul/long, perpetual
      attributes: half, newton on
      pair build: half/bin/newton
      stencil: half/bin/3d/newton
      bin: standard
Per MPI rank memory allocation (min/avg/max) = 20.09 | 20.09 | 20.09 Mbytes
Step Temp E_pair E_mol TotEng Press 
       0    159.01944    1363.3786    660.88379    2373.1313 -0.047634782 
       8    159.01944    1357.1299    526.52504    2232.5239    1.0366888 
Loop time of 0.742502 on 1 procs for 8 steps with 737 atoms

99.9% CPU use with 1 MPI tasks x no OpenMP threads

Minimization stats:
  Stopping criterion = linesearch alpha is zero
  Energy initial, next-to-last, final = 
         2024.26236942      1883.65494213      1883.65494213
  Force two-norm initial, final = 598.711 46.6498
  Force max component initial, final = 226.895 15.2688
  Final line search alpha, max atom move = 4.84236e-12 7.39371e-11
  Iterations, force evaluations = 8 72

MPI task timing breakdown:
Section |  min time  |  avg time  |  max time  |%varavg| %total
---------------------------------------------------------------
Pair    | 0.28381    | 0.28381    | 0.28381    |   0.0 | 38.22
Bond    | 0.037829   | 0.037829   | 0.037829   |   0.0 |  5.09
Kspace  | 0.41951    | 0.41951    | 0.41951    |   0.0 | 56.50
Neigh   | 0          | 0          | 0          |   0.0 |  0.00
Comm    | 5.4836e-05 | 5.4836e-05 | 5.4836e-05 |   0.0 |  0.01
Output  | 0          | 0          | 0          |   0.0 |  0.00
Modify  | 0          | 0          | 0          |   0.0 |  0.00
Other   |            | 0.001294   |            |       |  0.17

Nlocal:    737 ave 737 max 737 min
Histogram: 1 0 0 0 0 0 0 0 0 0
Nghost:    0 ave 0 max 0 min
Histogram: 1 0 0 0 0 0 0 0 0 0
Neighs:    61929 ave 61929 max 61929 min
Histogram: 1 0 0 0 0 0 0 0 0 0

Total # of neighbors = 61929
Ave neighs/atom = 84.0285
Ave special neighs/atom = 10.749
Neighbor list builds = 0
Dangerous builds = 0
write_dump all custom pysimm.dump.tmp id q x y z vx vy vz
quit


################################################################################
##################################    Init    ##################################
################################################################################
units           real
atom_style      full
pair_style      lj/cut/coul/long 12.0  12.0
kspace_style    pppm 1e-4
bond_style      harmonic
angle_style     harmonic
dihedral_style  fourier
improper_style  cvff
special_bonds   amber
pair_modify     mix arithmetic
read_data       temp.lmps
  orthogonal box = (-126.769 -126.769 -126.769) to (126.769 126.769 126.769)
  1 by 1 by 1 MPI processor grid
  reading atoms ...
  752 atoms
  reading velocities ...
  752 velocities
  scanning bonds ...
  4 = max bonds/atom
  scanning angles ...
  6 = max angles/atom
  scanning dihedrals ...
  20 = max dihedrals/atom
  scanning impropers ...
  1 = max impropers/atom
  reading bonds ...
  751 bonds
  reading angles ...
  1400 angles
  reading dihedrals ...
  1891 dihedrals
  reading impropers ...
  50 impropers
  4 = max # of 1-2 neighbors
  11 = max # of 1-3 neighbors
  22 = max # of 1-4 neighbors
  26 = max # of special neighbors
  special bonds CPU = 0.000637054 secs
  read_data CPU = 0.00940084 secs
################################################################################

min_style cg
minimize 1e-06 1e-06 1000000 10000000
WARNING: Using 'neigh_modify every 1 delay 0 check yes' setting during minimization (../min.cpp:190)
PPPM initialization ...
WARNING: System is not charge neutral, net charge = -5e-05 (../kspace.cpp:313)
  using 12-bit tables for long-range coulomb (../kspace.cpp:332)
  G vector (1/distance) = 0.102483
  grid = 24 24 24
  stencil order = 5
  estimated absolute RMS force accuracy = 0.0339084
  estimated relative force accuracy = 0.000102114
  using double precision KISS FFT
  3d grid and FFT values/proc = 24389 13824
Neighbor list info ...
  update every 1 steps, delay 0 steps, check yes
  max neighbors/atom: 2000, page size: 100000
  master list distance cutoff = 14
  ghost atom cutoff = 14
  binsize = 7, bins = 37 37 37
  1 neighbor lists, perpetual/occasional/extra = 1 0 0
  (1) pair lj/cut/coul/long, perpetual
      attributes: half, newton on
      pair build: half/bin/newton
      stencil: half/bin/3d/newton
      bin: standard
Per MPI rank memory allocation (min/avg/max) = 20.11 | 20.11 | 20.11 Mbytes
Step Temp E_pair E_mol TotEng Press 
       0    180.14001    1374.5832    679.26128    2457.1038  -0.24053784 
       9    180.14001    1363.5842     546.5072    2313.3507   0.82839051 
Loop time of 0.457212 on 1 procs for 9 steps with 752 atoms

98.0% CPU use with 1 MPI tasks x no OpenMP threads

Minimization stats:
  Stopping criterion = linesearch alpha is zero
  Energy initial, next-to-last, final = 
         2053.84449657       1910.0913515       1910.0913515
  Force two-norm initial, final = 600.782 34.9361
  Force max component initial, final = 240.24 16.8855
  Final line search alpha, max atom move = 9.31858e-12 1.57349e-10
  Iterations, force evaluations = 9 73

MPI task timing breakdown:
Section |  min time  |  avg time  |  max time  |%varavg| %total
---------------------------------------------------------------
Pair    | 0.17379    | 0.17379    | 0.17379    |   0.0 | 38.01
Bond    | 0.024057   | 0.024057   | 0.024057   |   0.0 |  5.26
Kspace  | 0.25841    | 0.25841    | 0.25841    |   0.0 | 56.52
Neigh   | 0          | 0          | 0          |   0.0 |  0.00
Comm    | 3.4571e-05 | 3.4571e-05 | 3.4571e-05 |   0.0 |  0.01
Output  | 0          | 0          | 0          |   0.0 |  0.00
Modify  | 0          | 0          | 0          |   0.0 |  0.00
Other   |            | 0.000912   |            |       |  0.20

Nlocal:    752 ave 752 max 752 min
Histogram: 1 0 0 0 0 0 0 0 0 0
Nghost:    0 ave 0 max 0 min
Histogram: 1 0 0 0 0 0 0 0 0 0
Neighs:    65532 ave 65532 max 65532 min
Histogram: 1 0 0 0 0 0 0 0 0 0

Total # of neighbors = 65532
Ave neighs/atom = 87.1436
Ave special neighs/atom = 10.75
Neighbor list builds = 0
Dangerous builds = 0
write_dump all custom pysimm.dump.tmp id q x y z vx vy vz
quit
