pySIMM System Object

197 atoms
196 bonds
364 angles
485 dihedrals
13 impropers

6 atom types
7 bond types
11 angle types
9 dihedral types
1 improper types

-79.312175 79.312175 xlo xhi
-79.312175 79.312175 ylo yhi
-79.312175 79.312175 zlo zhi

Masses

   1	12.01	# c3
   2	1.008	# hc
   3	12.01	# c
   4	16.0	# os
   5	1.008	# h1
   6	16.0	# o

Pair Coeffs

   1	0.1094	3.3996695084235347	# c3
   2	0.0157	2.649532787749369	# hc
   3	0.086	3.3996695084235347	# c
   4	0.17	3.0000123434657784	# os
   5	0.0157	2.471353044121301	# h1
   6	0.21	2.959921901149463	# o

Bond Coeffs

   1	300.9	1.5375	# c3,c3
   2	330.6	1.0969	# c3,hc
   3	637.7	1.2183	# c,o
   4	330.6	1.0969	# c3,h1
   5	308.6	1.4316	# c3,os
   6	313.0	1.5241	# c,c3
   7	390.8	1.3584	# c,os

Angle Coeffs

   1	46.93	108.77	# c,c3,hc
   2	67.4	123.2	# c3,c,o
   3	75.32	123.25	# o,c,os
   4	39.24	108.46	# h1,c3,h1
   5	63.27	111.04	# c,c3,c3
   6	46.34	109.8	# c3,c3,hc
   7	50.8	109.78	# h1,c3,os
   8	63.28	115.98	# c,os,c3
   9	62.86	111.51	# c3,c3,c3
  10	39.4	107.58	# hc,c3,hc
  11	68.89	110.72	# c3,c,os

Dihedral Coeffs

   1	1	0.3833333333333333	3	0	# X,c3,os,X
   2	1	0.0	2	180	# X,c,c3,X
   3	1	0.15	3	0	# hc,c3,c3,hc
   4	3	0.8	1	0	0.0	2	0	0.08	3	180	# hc,c3,c,o
   5	3	2.7	2	180	0.0	1	0	1.15	3	0	# c3,c,os,c3
   6	1	0.16	3	0	# hc,c3,c3,c3
   7	2	2.7	2	180	1.4	1	180	# o,c,os,c3
   8	1	0.15555555555555556	3	0	# X,c3,c3,X
   9	3	0.18	3	0	0.25	2	180	0.2	1	180	# c3,c3,c3,c3

Improper Coeffs

   1	10.5	-1	2	# c,X,X,o

Atoms

   1	1	1	-0.064235	-0.799744	-10.5449	-4.43007
   2	1	1	0.139042	-0.578743	-12.0963	-4.44369
   3	1	2	0.015001	-1.1254	-10.239	-5.42754
   4	1	2	0.033313	0.175932	-10.0613	-4.29175
   5	1	1	-0.357291	0.930919	-12.4274	-4.60042
   6	1	3	0.733725	-1.41768	-12.8049	-5.53533
   7	1	2	0.091627	1.312	-12.0606	-5.56291
   8	1	2	0.097893	1.09581	-13.512	-4.56124
   9	1	2	0.10238	1.52127	-11.968	-3.79629
  10	1	4	-0.43098	-2.13013	-13.862	-5.03589
  11	1	1	0.017514	-2.86499	-14.6984	-5.95257
  12	1	5	0.102507	-3.57075	-14.102	-6.54696
  13	1	5	0.044787	-3.42684	-15.4624	-5.40084
  14	1	5	0.053996	-2.17423	-15.2046	-6.64011
  15	1	6	-0.57928	-1.39275	-12.5077	-6.71933
  16	1	1	-0.064235	-1.66325	-8.39583	-3.24732
  17	1	1	0.139042	-1.77309	-9.9787	-3.33563
  18	1	2	0.015001	-1.89054	-8.11877	-2.21487
  19	1	2	0.033313	-0.599969	-8.16794	-3.36059
  20	1	1	-0.357291	-3.2273	-10.4818	-3.63402
  21	1	3	0.733725	-1.2503	-10.5054	-1.95573
  22	1	2	0.091627	-3.6246	-10.1037	-4.58121
  23	1	2	0.097893	-3.91529	-10.1961	-2.8292
  24	1	2	0.10238	-3.26993	-11.5768	-3.68811
  25	1	4	-0.43098	-2.02874	-11.4917	-1.40619
  26	1	1	0.017514	-1.60575	-12.128	-0.184202
  27	1	5	0.102507	-0.63249	-12.6192	-0.321435
  28	1	5	0.044787	-2.33877	-12.8863	0.118332
  29	1	5	0.053996	-1.51292	-11.3889	0.621882
  30	1	6	-0.57928	-0.191976	-10.1524	-1.45738
  31	1	1	-0.064235	-2.00182	-5.88744	-4.08106
  32	1	1	0.139042	-2.4527	-7.40748	-4.19843
  33	1	2	0.015001	-2.79328	-5.33265	-4.58795
  34	1	2	0.033313	-1.1197	-5.74682	-4.71604
  35	1	1	-0.357291	-2.14156	-7.78075	-5.68635
  36	1	3	0.733725	-4.00128	-7.44901	-3.98074
  37	1	2	0.091627	-2.53095	-7.01527	-6.3716
  38	1	2	0.097893	-2.61754	-8.71963	-5.98724
  39	1	2	0.10238	-1.0611	-7.86222	-5.8651
  40	1	4	-0.43098	-4.38202	-7.76034	-2.70304
  41	1	1	0.017514	-5.78616	-7.77613	-2.37876
  42	1	5	0.102507	-6.23253	-6.78681	-2.55077
  43	1	5	0.044787	-5.9262	-8.04563	-1.32477
  44	1	5	0.053996	-6.31516	-8.50912	-3.00187
  45	1	6	-0.57928	-4.81072	-7.17729	-4.85382
  46	1	1	-0.064235	-1.7898	-3.55127	-2.89228
  47	1	1	0.139042	-1.71923	-5.12944	-2.71942
  48	1	2	0.015001	-2.84612	-3.27523	-2.98864
  49	1	2	0.033313	-1.49449	-3.13268	-1.92299
  50	1	1	-0.357291	-2.83238	-5.42421	-1.66199
  51	1	3	0.733725	-0.319833	-5.52045	-2.14161
  52	1	2	0.091627	-3.83386	-5.24982	-2.07602
  53	1	2	0.097893	-2.73053	-4.76594	-0.788608
  54	1	2	0.10238	-2.78425	-6.44264	-1.26851
  55	1	4	-0.43098	-0.0979285	-4.99657	-0.895026
  56	1	1	0.017514	1.18735	-5.19491	-0.273383
  57	1	5	0.102507	1.40561	-6.26658	-0.166707
  58	1	5	0.044787	1.20009	-4.7319	0.720998
  59	1	5	0.053996	1.97993	-4.73739	-0.88055
  60	1	6	-0.57928	0.541656	-6.12835	-2.75654
  61	1	1	-0.064235	-0.778984	-1.23882	-3.54144
  62	1	1	0.139042	-0.977002	-2.74523	-3.98529
  63	1	2	0.015001	-0.188739	-1.26023	-2.61466
  64	1	2	0.033313	-0.106708	-0.790369	-4.28565
  65	1	1	-0.357291	0.488227	-3.28777	-4.07613
  66	1	3	0.733725	-1.61078	-2.79525	-5.41405
  67	1	2	0.091627	0.982166	-3.30672	-3.09607
  68	1	2	0.097893	1.10212	-2.65666	-4.7335
  69	1	2	0.10238	0.534256	-4.28983	-4.51476
  70	1	4	-0.43098	-2.94196	-3.10863	-5.42699
  71	1	1	0.017514	-3.64945	-3.16419	-6.6807
  72	1	5	0.102507	-3.2113	-3.92544	-7.33996
  73	1	5	0.044787	-3.60473	-2.19216	-7.18907
  74	1	5	0.053996	-4.70261	-3.41708	-6.50464
  75	1	6	-0.57928	-0.990831	-2.52672	-6.43112
  76	1	1	-0.064235	-1.20268	1.11812	-2.81354
  77	1	1	0.139042	-1.94562	-0.190795	-3.31487
  78	1	2	0.015001	-0.782496	0.891813	-1.82634
  79	1	2	0.033313	-0.331543	1.23712	-3.4626
  80	1	1	-0.357291	-2.68379	0.0992024	-4.65827
  81	1	3	0.733725	-2.94805	-0.694936	-2.23073
  82	1	2	0.091627	-3.25996	-0.76207	-4.99813
  83	1	2	0.097893	-1.98989	0.390266	-5.45766
  84	1	2	0.10238	-3.43946	0.882223	-4.53843
  85	1	4	-0.43098	-2.36095	-0.860299	-1.00455
  86	1	1	0.017514	-3.18418	-1.25902	0.108249
  87	1	5	0.102507	-2.58549	-1.30898	1.02625
  88	1	5	0.044787	-3.62938	-2.24519	-0.0762612
  89	1	5	0.053996	-3.99313	-0.531618	0.261699
  90	1	6	-0.57928	-4.12041	-0.953694	-2.45441
  91	1	1	-0.064235	-1.19224	3.44092	-1.63383
  92	1	1	0.139042	-1.88897	2.54064	-2.73632
  93	1	2	0.015001	-1.88457	4.26333	-1.41159
  94	1	2	0.033313	-1.16525	2.81973	-0.731639
  95	1	1	-0.357291	-1.79966	3.24043	-4.13739
  96	1	3	0.733725	-3.35767	2.41339	-2.21496
  97	1	2	0.091627	-0.766483	3.33443	-4.49013
  98	1	2	0.097893	-2.24496	4.24273	-4.10082
  99	1	2	0.10238	-2.35172	2.70968	-4.9163
 100	1	4	-0.43098	-4.29486	2.94025	-3.06259
 101	1	1	0.017514	-5.67686	2.9561	-2.65657
 102	1	5	0.102507	-6.29622	3.41724	-3.43635
 103	1	5	0.044787	-5.79628	3.53552	-1.73141
 104	1	5	0.053996	-6.037	1.93388	-2.48049
 105	1	6	-0.57928	-3.63507	1.98475	-1.10467
 106	1	1	-0.064235	0.744287	4.62831	-0.36687
 107	1	1	0.139042	0.239036	4.08868	-1.77061
 108	1	2	0.015001	1.78071	4.9484	-0.530387
 109	1	2	0.033313	0.810716	3.75551	0.29187
 110	1	1	-0.357291	1.28503	2.9814	-2.14272
 111	1	3	0.733725	0.241327	5.22702	-2.84239
 112	1	2	0.091627	1.18969	2.09658	-1.50107
 113	1	2	0.097893	2.31348	3.35035	-2.0259
 114	1	2	0.10238	1.2005	2.68011	-3.19198
 115	1	4	-0.43098	1.43885	5.36108	-3.49409
 116	1	1	0.017514	1.53473	6.3011	-4.58328
 117	1	5	0.102507	1.30253	7.31836	-4.24006
 118	1	5	0.044787	0.826637	6.03352	-5.37924
 119	1	5	0.053996	2.54788	6.29254	-5.00367
 120	1	6	-0.57928	-0.731245	5.90654	-3.12816
 121	1	1	-0.064235	0.984102	6.20648	1.6927
 122	1	1	0.139042	0.0729015	5.80046	0.463573
 123	1	2	0.015001	0.397631	6.91895	2.28982
 124	1	2	0.033313	1.81559	6.80731	1.29798
 125	1	1	-0.357291	0.018489	7.10486	-0.39734
 126	1	3	0.733725	-1.37277	5.51201	0.993767
 127	1	2	0.091627	-0.845837	7.10761	-1.06946
 128	1	2	0.097893	0.934872	7.2578	-0.982109
 129	1	2	0.10238	-0.118128	7.99154	0.237191
 130	1	4	-0.43098	-1.64977	4.18873	1.18193
 131	1	1	0.017514	-2.94732	3.78954	1.66621
 132	1	5	0.102507	-3.73625	4.11563	0.974555
 133	1	5	0.044787	-3.14055	4.22781	2.65396
 134	1	5	0.053996	-2.99481	2.69663	1.75232
 135	1	6	-0.57928	-2.16559	6.39062	1.29496
 136	1	1	-0.064235	2.18878	6.03845	3.88952
 137	1	1	0.139042	1.62491	5.16644	2.69871
 138	1	2	0.015001	2.57805	6.97411	3.46847
 139	1	2	0.033313	1.30984	6.3625	4.43989
 140	1	1	-0.357291	0.504834	4.22553	3.2593
 141	1	3	0.733725	2.78736	4.40859	1.98372
 142	1	2	0.091627	0.820041	3.65059	4.13012
 143	1	2	0.097893	0.207811	3.47363	2.5216
 144	1	2	0.10238	-0.38472	4.79324	3.56253
 145	1	4	-0.43098	2.7324	3.04911	2.1371
 146	1	1	0.017514	3.7728	2.23616	1.562
 147	1	5	0.102507	3.58306	1.17507	1.76817
 148	1	5	0.044787	4.74664	2.5043	1.99315
 149	1	5	0.053996	3.81772	2.3794	0.474503
 150	1	6	-0.57928	3.64057	4.97146	1.31635
 151	1	1	-0.064235	3.53147	6.52941	6.07851
 152	1	1	0.139042	3.29251	5.50419	4.89608
 153	1	2	0.015001	3.61144	7.52528	5.62452
 154	1	2	0.033313	4.52941	6.2963	6.46249
 155	1	1	-0.357291	2.96755	4.08872	5.46993
 156	1	3	0.733725	4.66165	5.45584	4.13768
 157	1	2	0.091627	3.77086	3.7495	6.13425
 158	1	2	0.097893	2.92743	3.33345	4.67781
 159	1	2	0.10238	2.02462	4.05666	6.02594
 160	1	4	-0.43098	5.04622	6.68779	3.67556
 161	1	1	0.017514	6.26962	6.81327	2.92831
 162	1	5	0.102507	6.24916	6.15851	2.04567
 163	1	5	0.044787	7.12979	6.53946	3.55266
 164	1	5	0.053996	6.39711	7.84989	2.59203
 165	1	6	-0.57928	5.33196	4.44499	3.98682
 166	1	1	-0.064235	2.84982	8.04494	8.09058
 167	1	1	0.139042	2.59309	6.67568	7.34141
 168	1	2	0.015001	2.4605	8.84464	7.44508
 169	1	2	0.033313	2.17494	8.02895	8.95765
 170	1	1	-0.357291	1.09449	6.7947	6.905
 171	1	3	0.733725	2.70375	5.48008	8.34828
 172	1	2	0.091627	0.940121	7.61244	6.18955
 173	1	2	0.097893	0.451816	7.00852	7.77086
 174	1	2	0.10238	0.714001	5.8601	6.47809
 175	1	4	-0.43098	3.9135	4.8396	8.34847
 176	1	1	0.017514	4.08469	3.67597	9.18462
 177	1	5	0.102507	3.36772	2.89177	8.90359
 178	1	5	0.044787	3.92091	3.93217	10.2395
 179	1	5	0.053996	5.0998	3.27509	9.07449
 180	1	6	-0.57928	1.77435	5.10083	9.04422
 181	1	1	-0.064235	5.24743	8.89123	7.4627
 182	1	1	0.139042	4.2449	8.57413	8.61721
 183	1	2	0.015001	5.60074	7.99934	6.9443
 184	1	2	0.033313	4.80082	9.56999	6.72508
 185	1	1	-0.357291	4.91666	7.56703	9.5945
 186	1	3	0.733725	3.95757	9.91615	9.37949
 187	1	2	0.091627	4.20909	7.2206	10.3595
 188	1	2	0.097893	5.75966	8.04144	10.1149
 189	1	2	0.10238	5.32524	6.69926	9.0674
 190	1	4	-0.43098	5.08028	10.6698	9.60891
 191	1	1	0.017514	4.94855	11.9424	10.2735
 192	1	5	0.102507	5.92195	12.4456	10.3299
 193	1	5	0.044787	4.56635	11.8022	11.2928
 194	1	5	0.053996	4.25292	12.5921	9.72517
 195	1	6	-0.57928	2.84885	10.2802	9.74641
 196	1	2	0	-0.878296	-12.5259	-3.4817
 197	1	2	0	6.16034	9.36732	7.84104

Velocities

   1	0.00152575	0.00133733	0.00023055
   2	0.000360644	0.00120935	-0.000763221
   3	0.00328966	0.00274926	5.86653e-05
   4	0.0016859	0.00050085	0.00239588
   5	0.000213029	0.000355529	-0.000340357
   6	-0.000407505	0.00162249	-0.000740872
   7	0.00125384	0.000872067	0.000255859
   8	-0.000545688	0.00019918	-0.000955625
   9	-7.16876e-05	-0.000604938	0.00051526
  10	0.00128042	0.000482042	-0.000595934
  11	-0.000574335	0.000950187	0.000541137
  12	-0.0014831	0.00104261	0.00171737
  13	5.28745e-05	0.00154211	0.00195454
  14	-0.00234381	0.000178802	-0.000641303
  15	-0.00247302	0.00302101	-0.000370839
  16	-0.000382807	0.000540164	0.000114639
  17	0.000727677	0.000564248	-0.000153801
  18	-0.000879158	0.000266699	0.000171133
  19	-0.000423848	0.00113919	0.000480877
  20	0.00104323	-0.000242215	-0.000767944
  21	0.000239779	0.000641839	-0.000359249
  22	0.00152997	-0.000929418	-0.00122063
  23	0.000295568	-0.000201636	-0.00140521
  24	0.00175087	-0.000287269	-0.000164765
  25	-0.000238385	0.00221064	0.000616204
  26	-0.000404774	0.00159089	0.000412413
  27	8.89641e-06	0.00229678	0.000358845
  28	2.90448e-05	0.000814312	-0.000618494
  29	-0.00112008	0.000929106	0.00122276
  30	0.00179545	-0.000420011	-0.000908839
  31	-0.000500344	-4.31408e-05	0.00027939
  32	-0.000546276	0.000116926	0.000176199
  33	-0.00040321	-1.73072e-05	0.000362366
  34	-0.000473135	-0.000162884	0.000404254
  35	-0.000694983	0.000440346	-8.8733e-06
  36	-0.000926838	-0.00018211	-9.28502e-05
  37	-0.000734761	0.000560864	0.000243465
  38	-0.0005182	0.000434208	-0.000208635
  39	-0.000663947	0.000615973	-4.04231e-05
  40	-0.000417517	-0.000323246	0.000395734
  41	-0.000448287	-0.000699935	0.000433264
  42	-0.000907791	-0.00104999	-0.000236876
  43	-0.000149222	5.74889e-05	0.000703384
  44	-0.000224999	-0.00143031	0.00111476
  45	-0.00047918	-0.000624761	0.000538599
  46	-0.00017503	-0.000255919	-9.10415e-05
  47	-0.000388088	-0.00018029	0.000341459
  48	-0.00021913	-0.000253579	-0.000204172
  49	-0.000144166	-0.000127638	-9.53888e-05
  50	-0.000477147	5.94398e-05	0.00021277
  51	-0.000269582	-0.000299369	0.000339688
  52	-0.000450934	-0.000509429	-8.4129e-05
  53	-0.000909099	0.000564445	-0.000101487
  54	-0.000279808	0.000288691	0.000827632
  55	-0.000582177	-0.000962122	0.000879469
  56	-0.000525561	-0.00114675	0.000790904
  57	-0.000502143	-0.00115579	0.000705837
  58	-0.000342503	-0.00120995	0.000851449
  59	-0.000543936	-0.00114292	0.000782655
  60	-0.00016177	0.000460023	0.000298279
  61	7.68531e-05	-0.000531318	-0.000322076
  62	-0.000206177	-0.000541798	-0.000218267
  63	0.000138247	-0.000621232	-0.000380215
  64	9.37957e-06	-0.000604521	-0.00036777
  65	-0.000243553	-0.000818382	-0.00037
  66	-5.09801e-05	-0.000465172	-0.000519838
  67	-0.000337422	-0.00131705	-0.000288164
  68	-4.57821e-05	-0.000678148	-7.92932e-06
  69	-0.000404949	-0.000630404	-0.000745336
  70	-0.000183	-0.000906875	-0.000473616
  71	-4.22076e-06	-0.00078995	-0.000615673
  72	0.000494869	-0.000197965	-0.000968921
  73	-0.000604096	-0.000514554	-0.000144654
  74	0.000126744	-0.00156267	-0.000782528
  75	-0.000302552	-0.000237766	-0.000113446
  76	0.000208941	-0.000267229	-0.000374235
  77	0.000215935	-0.000391085	-0.000173409
  78	0.000577419	-0.000250316	-0.000514665
  79	1.57776e-05	-0.00019466	-0.000667357
  80	0.000152809	-0.000431036	-0.000141711
  81	0.000199471	-0.000407733	-8.7754e-05
  82	0.000697621	-0.000634918	-0.000503889
  83	0.000127029	0.000174914	4.12563e-05
  84	-0.000253725	-0.000839623	-1.46583e-05
  85	0.000347294	-0.000210419	-6.62551e-05
  86	0.000508958	-0.000582988	-7.99192e-05
  87	0.000753761	-0.0012423	-0.00026547
  88	0.000202636	-0.000373082	-0.000464251
  89	0.000736723	-0.000472308	0.000537373
  90	0.000432912	-0.000944952	-9.90582e-05
  91	-1.46104e-05	-0.000173527	-0.000230786
  92	1.97561e-05	-0.000326046	-0.000164408
  93	-0.000124972	-0.000314054	-0.000144874
  94	0.000180388	-0.000248642	-0.000276622
  95	-0.000198693	-0.000129928	-6.73711e-05
  96	4.57913e-05	-0.000582532	-0.000240366
  97	-0.000193527	0.000813978	0.000200853
  98	-0.00100729	-0.000482697	-3.61862e-05
  99	0.00044285	-0.000573081	-0.000252051
 100	-0.000152562	-0.00123415	-0.000403901
 101	-0.000220287	-0.00145066	-0.000549212
 102	-0.000252317	-0.00182053	-0.000747339
 103	-0.000449888	-0.00116436	-0.000756898
 104	-6.61444e-05	-0.00146939	-0.000251347
 105	9.9408e-05	-0.000496903	-0.000106112
 106	-0.000136222	-0.000106133	-7.23627e-05
 107	-8.92009e-05	0.000125013	-0.000198783
 108	-0.000138777	-0.000105598	-3.04161e-05
 109	-0.000126075	-0.000180521	-0.000215766
 110	7.02484e-05	0.00042668	-0.000574666
 111	2.55092e-05	0.000356176	5.63494e-05
 112	0.000676919	0.000413853	-0.000484095
 113	-8.54925e-07	0.000794179	-0.00106455
 114	-0.000272078	0.000346076	-0.000514566
 115	0.000688233	0.00134136	0.00156659
 116	0.00144602	0.00090809	0.00131505
 117	0.00108808	0.00105761	0.000626291
 118	0.00211792	0.000408881	0.000881745
 119	0.00178544	0.000719761	0.00214341
 120	-0.000183357	-0.000254344	-0.000855388
 121	9.14173e-05	-3.92273e-05	-0.000111258
 122	-0.000116804	-0.000217724	2.31644e-05
 123	0.00026206	0.000111174	-0.000172245
 124	5.52492e-05	-0.000224924	-0.000341818
 125	-0.000320736	-0.000198461	5.5287e-05
 126	-0.000201237	-0.000183348	0.000216241
 127	-0.000105719	-0.000387127	-0.000191479
 128	-0.000212593	0.000114545	0.000303551
 129	-0.000674786	-0.000270451	8.40794e-05
 130	-0.000473134	-0.00032834	-0.000243578
 131	-0.000668724	-4.96363e-06	-0.000456621
 132	-0.000546792	0.000378433	-0.000413721
 133	-0.000639663	-0.000185102	-0.000383839
 134	-0.00109296	-1.96685e-05	-0.000688624
 135	0.00011869	-0.000266829	0.000476551
 136	5.52058e-05	0.000243913	-0.000118626
 137	8.76885e-05	7.82689e-05	-0.000103486
 138	-2.4389e-05	0.000249648	-5.58754e-05
 139	8.5647e-06	0.000139806	5.10847e-05
 140	0.000144032	0.000137113	-7.04527e-05
 141	0.000218901	0.000234341	-0.000272246
 142	8.70639e-05	2.49722e-07	-0.000179721
 143	-2.38424e-05	0.000299549	-0.000217323
 144	0.000236228	0.000278068	5.85807e-05
 145	0.000255198	0.000119722	-0.000342293
 146	0.000365383	0.000334158	-0.000500027
 147	0.000712638	0.000297544	-0.000238989
 148	0.000455302	0.000603675	-0.000832681
 149	9.03643e-05	6.29351e-05	-0.000553345
 150	5.80875e-05	0.000259813	-0.00010177
 151	-0.000240434	0.000486663	-0.000190186
 152	5.2785e-05	0.000167634	-8.38237e-05
 153	-0.000526499	0.000324712	-0.000423336
 154	-0.000121503	0.000784605	-0.000398808
 155	-0.000194056	0.000543288	0.00020583
 156	-0.000212949	4.99708e-05	-3.6808e-05
 157	-0.000104511	0.000487151	0.000114101
 158	-0.000484584	0.000390982	0.000308711
 159	-0.000147885	0.000782721	0.000405488
 160	0.000258557	-0.000746085	-0.000786037
 161	0.000558948	-0.00156496	-0.000730245
 162	0.000160495	-0.00128405	-0.000949798
 163	0.000170225	-0.00263415	-0.000635213
 164	0.00162013	-0.00165045	-0.000309794
 165	-0.000157504	-0.000874538	0.000176147
 166	-0.000507301	0.000237095	0.000146186
 167	-0.000129113	0.000391134	-6.74797e-05
 168	-0.0002364	0.000260292	-2.37014e-05
 169	-0.00084532	0.000534512	-3.34672e-05
 170	-0.000300605	-0.000162076	0.000387268
 171	0.000270356	0.000768314	0.00052272
 172	-0.000844262	-0.000256524	0.00029681
 173	-0.000229364	-0.000262845	0.00064783
 174	-0.000156562	-0.000394453	0.000591103
 175	0.000485814	0.000870088	-0.000505245
 176	0.00140681	0.00147638	0.000110501
 177	0.00112862	0.0013571	0.00122473
 178	0.00245262	0.00219777	8.39623e-05
 179	0.00133842	0.00154287	-0.00076175
 180	0.00142244	0.0017933	0.00202099
 181	-0.00123684	0.000202259	-2.35032e-05
 182	-0.000801854	5.11235e-05	0.000396847
 183	-0.000178149	6.75181e-05	0.0010916
 184	-0.00264936	-0.00144643	-0.00073036
 185	3.42983e-05	-0.000493586	-0.000220645
 186	0.000318191	-0.000458661	0.000744863
 187	3.19715e-05	-0.0020536	-0.000861766
 188	-0.000683967	-0.000259588	0.000538331
 189	0.00113061	0.000515512	-0.0010433
 190	-0.000166975	-0.00111729	0.00186395
 191	0.000675112	-0.000594553	0.00116088
 192	0.00104258	-0.0014673	0.00170094
 193	-0.000405557	0.000309611	0.000887562
 194	0.00176712	-0.000388879	0.000125785
 195	-0.000856003	0.000688888	0.000175747
 196	-0.000179747	0.00115568	-0.000972185
 197	-0.00187682	0.00190981	-0.000948221

Bonds

   1	1	1	2
   2	2	1	3
   3	2	1	4
   4	1	2	5
   5	6	2	6
   6	2	5	7
   7	2	5	8
   8	2	5	9
   9	7	6	10
  10	3	6	15
  11	5	10	11
  12	4	11	12
  13	4	11	13
  14	4	11	14
  15	1	16	17
  16	2	16	18
  17	2	16	19
  18	1	17	20
  19	6	17	21
  20	2	20	22
  21	2	20	23
  22	2	20	24
  23	7	21	25
  24	3	21	30
  25	5	25	26
  26	4	26	27
  27	4	26	28
  28	4	26	29
  29	1	1	17
  30	1	31	32
  31	2	31	33
  32	2	31	34
  33	1	32	35
  34	6	32	36
  35	2	35	37
  36	2	35	38
  37	2	35	39
  38	7	36	40
  39	3	36	45
  40	5	40	41
  41	4	41	42
  42	4	41	43
  43	4	41	44
  44	1	16	32
  45	1	46	47
  46	2	46	48
  47	2	46	49
  48	1	47	50
  49	6	47	51
  50	2	50	52
  51	2	50	53
  52	2	50	54
  53	7	51	55
  54	3	51	60
  55	5	55	56
  56	4	56	57
  57	4	56	58
  58	4	56	59
  59	1	31	47
  60	1	61	62
  61	2	61	63
  62	2	61	64
  63	1	62	65
  64	6	62	66
  65	2	65	67
  66	2	65	68
  67	2	65	69
  68	7	66	70
  69	3	66	75
  70	5	70	71
  71	4	71	72
  72	4	71	73
  73	4	71	74
  74	1	46	62
  75	1	76	77
  76	2	76	78
  77	2	76	79
  78	1	77	80
  79	6	77	81
  80	2	80	82
  81	2	80	83
  82	2	80	84
  83	7	81	85
  84	3	81	90
  85	5	85	86
  86	4	86	87
  87	4	86	88
  88	4	86	89
  89	1	61	77
  90	1	91	92
  91	2	91	93
  92	2	91	94
  93	1	92	95
  94	6	92	96
  95	2	95	97
  96	2	95	98
  97	2	95	99
  98	7	96	100
  99	3	96	105
 100	5	100	101
 101	4	101	102
 102	4	101	103
 103	4	101	104
 104	1	76	92
 105	1	106	107
 106	2	106	108
 107	2	106	109
 108	1	107	110
 109	6	107	111
 110	2	110	112
 111	2	110	113
 112	2	110	114
 113	7	111	115
 114	3	111	120
 115	5	115	116
 116	4	116	117
 117	4	116	118
 118	4	116	119
 119	1	91	107
 120	1	121	122
 121	2	121	123
 122	2	121	124
 123	1	122	125
 124	6	122	126
 125	2	125	127
 126	2	125	128
 127	2	125	129
 128	7	126	130
 129	3	126	135
 130	5	130	131
 131	4	131	132
 132	4	131	133
 133	4	131	134
 134	1	106	122
 135	1	136	137
 136	2	136	138
 137	2	136	139
 138	1	137	140
 139	6	137	141
 140	2	140	142
 141	2	140	143
 142	2	140	144
 143	7	141	145
 144	3	141	150
 145	5	145	146
 146	4	146	147
 147	4	146	148
 148	4	146	149
 149	1	121	137
 150	1	151	152
 151	2	151	153
 152	2	151	154
 153	1	152	155
 154	6	152	156
 155	2	155	157
 156	2	155	158
 157	2	155	159
 158	7	156	160
 159	3	156	165
 160	5	160	161
 161	4	161	162
 162	4	161	163
 163	4	161	164
 164	1	136	152
 165	1	166	167
 166	2	166	168
 167	2	166	169
 168	1	167	170
 169	6	167	171
 170	2	170	172
 171	2	170	173
 172	2	170	174
 173	7	171	175
 174	3	171	180
 175	5	175	176
 176	4	176	177
 177	4	176	178
 178	4	176	179
 179	1	151	167
 180	1	181	182
 181	2	181	183
 182	2	181	184
 183	1	182	185
 184	6	182	186
 185	2	185	187
 186	2	185	188
 187	2	185	189
 188	7	186	190
 189	3	186	195
 190	5	190	191
 191	4	191	192
 192	4	191	193
 193	4	191	194
 194	1	166	182
 195	2	2	196
 196	2	181	197

Angles

   1	6	2	1	3
   2	6	2	1	4
   3	10	3	1	4
   4	9	1	2	5
   5	5	1	2	6
   6	5	5	2	6
   7	6	2	5	7
   8	6	2	5	8
   9	6	2	5	9
  10	10	7	5	8
  11	10	7	5	9
  12	10	8	5	9
  13	11	2	6	10
  14	2	2	6	15
  15	3	10	6	15
  16	8	6	10	11
  17	7	10	11	12
  18	7	10	11	13
  19	7	10	11	14
  20	4	12	11	13
  21	4	12	11	14
  22	4	13	11	14
  23	6	17	16	18
  24	6	17	16	19
  25	10	18	16	19
  26	9	16	17	20
  27	5	16	17	21
  28	5	20	17	21
  29	6	17	20	22
  30	6	17	20	23
  31	6	17	20	24
  32	10	22	20	23
  33	10	22	20	24
  34	10	23	20	24
  35	11	17	21	25
  36	2	17	21	30
  37	3	25	21	30
  38	8	21	25	26
  39	7	25	26	27
  40	7	25	26	28
  41	7	25	26	29
  42	4	27	26	28
  43	4	27	26	29
  44	4	28	26	29
  45	9	2	1	17
  46	6	3	1	17
  47	6	4	1	17
  48	9	1	17	16
  49	9	1	17	20
  50	5	1	17	21
  51	6	32	31	33
  52	6	32	31	34
  53	10	33	31	34
  54	9	31	32	35
  55	5	31	32	36
  56	5	35	32	36
  57	6	32	35	37
  58	6	32	35	38
  59	6	32	35	39
  60	10	37	35	38
  61	10	37	35	39
  62	10	38	35	39
  63	11	32	36	40
  64	2	32	36	45
  65	3	40	36	45
  66	8	36	40	41
  67	7	40	41	42
  68	7	40	41	43
  69	7	40	41	44
  70	4	42	41	43
  71	4	42	41	44
  72	4	43	41	44
  73	9	17	16	32
  74	6	18	16	32
  75	6	19	16	32
  76	9	16	32	31
  77	9	16	32	35
  78	5	16	32	36
  79	6	47	46	48
  80	6	47	46	49
  81	10	48	46	49
  82	9	46	47	50
  83	5	46	47	51
  84	5	50	47	51
  85	6	47	50	52
  86	6	47	50	53
  87	6	47	50	54
  88	10	52	50	53
  89	10	52	50	54
  90	10	53	50	54
  91	11	47	51	55
  92	2	47	51	60
  93	3	55	51	60
  94	8	51	55	56
  95	7	55	56	57
  96	7	55	56	58
  97	7	55	56	59
  98	4	57	56	58
  99	4	57	56	59
 100	4	58	56	59
 101	9	32	31	47
 102	6	33	31	47
 103	6	34	31	47
 104	9	31	47	46
 105	9	31	47	50
 106	5	31	47	51
 107	6	62	61	63
 108	6	62	61	64
 109	10	63	61	64
 110	9	61	62	65
 111	5	61	62	66
 112	5	65	62	66
 113	6	62	65	67
 114	6	62	65	68
 115	6	62	65	69
 116	10	67	65	68
 117	10	67	65	69
 118	10	68	65	69
 119	11	62	66	70
 120	2	62	66	75
 121	3	70	66	75
 122	8	66	70	71
 123	7	70	71	72
 124	7	70	71	73
 125	7	70	71	74
 126	4	72	71	73
 127	4	72	71	74
 128	4	73	71	74
 129	9	47	46	62
 130	6	48	46	62
 131	6	49	46	62
 132	9	46	62	61
 133	9	46	62	65
 134	5	46	62	66
 135	6	77	76	78
 136	6	77	76	79
 137	10	78	76	79
 138	9	76	77	80
 139	5	76	77	81
 140	5	80	77	81
 141	6	77	80	82
 142	6	77	80	83
 143	6	77	80	84
 144	10	82	80	83
 145	10	82	80	84
 146	10	83	80	84
 147	11	77	81	85
 148	2	77	81	90
 149	3	85	81	90
 150	8	81	85	86
 151	7	85	86	87
 152	7	85	86	88
 153	7	85	86	89
 154	4	87	86	88
 155	4	87	86	89
 156	4	88	86	89
 157	9	62	61	77
 158	6	63	61	77
 159	6	64	61	77
 160	9	61	77	76
 161	9	61	77	80
 162	5	61	77	81
 163	6	92	91	93
 164	6	92	91	94
 165	10	93	91	94
 166	9	91	92	95
 167	5	91	92	96
 168	5	95	92	96
 169	6	92	95	97
 170	6	92	95	98
 171	6	92	95	99
 172	10	97	95	98
 173	10	97	95	99
 174	10	98	95	99
 175	11	92	96	100
 176	2	92	96	105
 177	3	100	96	105
 178	8	96	100	101
 179	7	100	101	102
 180	7	100	101	103
 181	7	100	101	104
 182	4	102	101	103
 183	4	102	101	104
 184	4	103	101	104
 185	9	77	76	92
 186	6	78	76	92
 187	6	79	76	92
 188	9	76	92	91
 189	9	76	92	95
 190	5	76	92	96
 191	6	107	106	108
 192	6	107	106	109
 193	10	108	106	109
 194	9	106	107	110
 195	5	106	107	111
 196	5	110	107	111
 197	6	107	110	112
 198	6	107	110	113
 199	6	107	110	114
 200	10	112	110	113
 201	10	112	110	114
 202	10	113	110	114
 203	11	107	111	115
 204	2	107	111	120
 205	3	115	111	120
 206	8	111	115	116
 207	7	115	116	117
 208	7	115	116	118
 209	7	115	116	119
 210	4	117	116	118
 211	4	117	116	119
 212	4	118	116	119
 213	9	92	91	107
 214	6	93	91	107
 215	6	94	91	107
 216	9	91	107	106
 217	9	91	107	110
 218	5	91	107	111
 219	6	122	121	123
 220	6	122	121	124
 221	10	123	121	124
 222	9	121	122	125
 223	5	121	122	126
 224	5	125	122	126
 225	6	122	125	127
 226	6	122	125	128
 227	6	122	125	129
 228	10	127	125	128
 229	10	127	125	129
 230	10	128	125	129
 231	11	122	126	130
 232	2	122	126	135
 233	3	130	126	135
 234	8	126	130	131
 235	7	130	131	132
 236	7	130	131	133
 237	7	130	131	134
 238	4	132	131	133
 239	4	132	131	134
 240	4	133	131	134
 241	9	107	106	122
 242	6	108	106	122
 243	6	109	106	122
 244	9	106	122	121
 245	9	106	122	125
 246	5	106	122	126
 247	6	137	136	138
 248	6	137	136	139
 249	10	138	136	139
 250	9	136	137	140
 251	5	136	137	141
 252	5	140	137	141
 253	6	137	140	142
 254	6	137	140	143
 255	6	137	140	144
 256	10	142	140	143
 257	10	142	140	144
 258	10	143	140	144
 259	11	137	141	145
 260	2	137	141	150
 261	3	145	141	150
 262	8	141	145	146
 263	7	145	146	147
 264	7	145	146	148
 265	7	145	146	149
 266	4	147	146	148
 267	4	147	146	149
 268	4	148	146	149
 269	9	122	121	137
 270	6	123	121	137
 271	6	124	121	137
 272	9	121	137	136
 273	9	121	137	140
 274	5	121	137	141
 275	6	152	151	153
 276	6	152	151	154
 277	10	153	151	154
 278	9	151	152	155
 279	5	151	152	156
 280	5	155	152	156
 281	6	152	155	157
 282	6	152	155	158
 283	6	152	155	159
 284	10	157	155	158
 285	10	157	155	159
 286	10	158	155	159
 287	11	152	156	160
 288	2	152	156	165
 289	3	160	156	165
 290	8	156	160	161
 291	7	160	161	162
 292	7	160	161	163
 293	7	160	161	164
 294	4	162	161	163
 295	4	162	161	164
 296	4	163	161	164
 297	9	137	136	152
 298	6	138	136	152
 299	6	139	136	152
 300	9	136	152	151
 301	9	136	152	155
 302	5	136	152	156
 303	6	167	166	168
 304	6	167	166	169
 305	10	168	166	169
 306	9	166	167	170
 307	5	166	167	171
 308	5	170	167	171
 309	6	167	170	172
 310	6	167	170	173
 311	6	167	170	174
 312	10	172	170	173
 313	10	172	170	174
 314	10	173	170	174
 315	11	167	171	175
 316	2	167	171	180
 317	3	175	171	180
 318	8	171	175	176
 319	7	175	176	177
 320	7	175	176	178
 321	7	175	176	179
 322	4	177	176	178
 323	4	177	176	179
 324	4	178	176	179
 325	9	152	151	167
 326	6	153	151	167
 327	6	154	151	167
 328	9	151	167	166
 329	9	151	167	170
 330	5	151	167	171
 331	6	182	181	183
 332	6	182	181	184
 333	10	183	181	184
 334	9	181	182	185
 335	5	181	182	186
 336	5	185	182	186
 337	6	182	185	187
 338	6	182	185	188
 339	6	182	185	189
 340	10	187	185	188
 341	10	187	185	189
 342	10	188	185	189
 343	11	182	186	190
 344	2	182	186	195
 345	3	190	186	195
 346	8	186	190	191
 347	7	190	191	192
 348	7	190	191	193
 349	7	190	191	194
 350	4	192	191	193
 351	4	192	191	194
 352	4	193	191	194
 353	9	167	166	182
 354	6	168	166	182
 355	6	169	166	182
 356	9	166	182	181
 357	9	166	182	185
 358	5	166	182	186
 359	6	1	2	196
 360	6	5	2	196
 361	1	6	2	196
 362	6	182	181	197
 363	10	183	181	197
 364	10	184	181	197

Dihedrals

   1	6	3	1	2	5
   2	8	3	1	2	6
   3	6	4	1	2	5
   4	8	4	1	2	6
   5	6	1	2	5	7
   6	6	1	2	5	8
   7	6	1	2	5	9
   8	8	6	2	5	7
   9	8	6	2	5	8
  10	8	6	2	5	9
  11	2	1	2	6	10
  12	2	1	2	6	15
  13	2	5	2	6	10
  14	2	5	2	6	15
  15	5	2	6	10	11
  16	7	15	6	10	11
  17	1	6	10	11	12
  18	1	6	10	11	13
  19	1	6	10	11	14
  20	6	18	16	17	20
  21	8	18	16	17	21
  22	6	19	16	17	20
  23	8	19	16	17	21
  24	6	16	17	20	22
  25	6	16	17	20	23
  26	6	16	17	20	24
  27	8	21	17	20	22
  28	8	21	17	20	23
  29	8	21	17	20	24
  30	2	16	17	21	25
  31	2	16	17	21	30
  32	2	20	17	21	25
  33	2	20	17	21	30
  34	5	17	21	25	26
  35	7	30	21	25	26
  36	1	21	25	26	27
  37	1	21	25	26	28
  38	1	21	25	26	29
  39	9	5	2	1	17
  40	8	6	2	1	17
  41	6	1	17	16	18
  42	6	1	17	16	19
  43	6	1	17	20	22
  44	6	1	17	20	23
  45	6	1	17	20	24
  46	2	1	17	21	25
  47	2	1	17	21	30
  48	9	2	1	17	16
  49	9	2	1	17	20
  50	8	2	1	17	21
  51	6	3	1	17	16
  52	6	3	1	17	20
  53	8	3	1	17	21
  54	6	4	1	17	16
  55	6	4	1	17	20
  56	8	4	1	17	21
  57	6	33	31	32	35
  58	8	33	31	32	36
  59	6	34	31	32	35
  60	8	34	31	32	36
  61	6	31	32	35	37
  62	6	31	32	35	38
  63	6	31	32	35	39
  64	8	36	32	35	37
  65	8	36	32	35	38
  66	8	36	32	35	39
  67	2	31	32	36	40
  68	2	31	32	36	45
  69	2	35	32	36	40
  70	2	35	32	36	45
  71	5	32	36	40	41
  72	7	45	36	40	41
  73	1	36	40	41	42
  74	1	36	40	41	43
  75	1	36	40	41	44
  76	9	20	17	16	32
  77	8	21	17	16	32
  78	9	1	17	16	32
  79	6	16	32	31	33
  80	6	16	32	31	34
  81	6	16	32	35	37
  82	6	16	32	35	38
  83	6	16	32	35	39
  84	2	16	32	36	40
  85	2	16	32	36	45
  86	9	17	16	32	31
  87	9	17	16	32	35
  88	8	17	16	32	36
  89	6	18	16	32	31
  90	6	18	16	32	35
  91	8	18	16	32	36
  92	6	19	16	32	31
  93	6	19	16	32	35
  94	8	19	16	32	36
  95	6	48	46	47	50
  96	8	48	46	47	51
  97	6	49	46	47	50
  98	8	49	46	47	51
  99	6	46	47	50	52
 100	6	46	47	50	53
 101	6	46	47	50	54
 102	8	51	47	50	52
 103	8	51	47	50	53
 104	8	51	47	50	54
 105	2	46	47	51	55
 106	2	46	47	51	60
 107	2	50	47	51	55
 108	2	50	47	51	60
 109	5	47	51	55	56
 110	7	60	51	55	56
 111	1	51	55	56	57
 112	1	51	55	56	58
 113	1	51	55	56	59
 114	9	35	32	31	47
 115	8	36	32	31	47
 116	9	16	32	31	47
 117	6	31	47	46	48
 118	6	31	47	46	49
 119	6	31	47	50	52
 120	6	31	47	50	53
 121	6	31	47	50	54
 122	2	31	47	51	55
 123	2	31	47	51	60
 124	9	32	31	47	46
 125	9	32	31	47	50
 126	8	32	31	47	51
 127	6	33	31	47	46
 128	6	33	31	47	50
 129	8	33	31	47	51
 130	6	34	31	47	46
 131	6	34	31	47	50
 132	8	34	31	47	51
 133	6	63	61	62	65
 134	8	63	61	62	66
 135	6	64	61	62	65
 136	8	64	61	62	66
 137	6	61	62	65	67