pySIMM System Object

302 atoms
301 bonds
560 angles
751 dihedrals
20 impropers

6 atom types
7 bond types
11 angle types
9 dihedral types
1 improper types

-92.440860 92.440860 xlo xhi
-92.440860 92.440860 ylo yhi
-92.440860 92.440860 zlo zhi

Masses

   1	12.01	# c3
   2	1.008	# hc
   3	12.01	# c
   4	16.0	# os
   5	1.008	# h1
   6	16.0	# o

Pair Coeffs

   1	0.1094	3.3996695084235347	# c3
   2	0.0157	2.649532787749369	# hc
   3	0.086	3.3996695084235347	# c
   4	0.17	3.0000123434657784	# os
   5	0.0157	2.471353044121301	# h1
   6	0.21	2.959921901149463	# o

Bond Coeffs

   1	300.9	1.5375	# c3,c3
   2	330.6	1.0969	# c3,hc
   3	637.7	1.2183	# c,o
   4	330.6	1.0969	# c3,h1
   5	308.6	1.4316	# c3,os
   6	313.0	1.5241	# c,c3
   7	390.8	1.3584	# c,os

Angle Coeffs

   1	46.93	108.77	# c,c3,hc
   2	67.4	123.2	# c3,c,o
   3	75.32	123.25	# o,c,os
   4	39.24	108.46	# h1,c3,h1
   5	63.27	111.04	# c,c3,c3
   6	46.34	109.8	# c3,c3,hc
   7	50.8	109.78	# h1,c3,os
   8	63.28	115.98	# c,os,c3
   9	62.86	111.51	# c3,c3,c3
  10	39.4	107.58	# hc,c3,hc
  11	68.89	110.72	# c3,c,os

Dihedral Coeffs

   1	1	0.3833333333333333	3	0	# X,c3,os,X
   2	1	0.0	2	180	# X,c,c3,X
   3	1	0.15	3	0	# hc,c3,c3,hc
   4	3	0.8	1	0	0.0	2	0	0.08	3	180	# hc,c3,c,o
   5	3	2.7	2	180	0.0	1	0	1.15	3	0	# c3,c,os,c3
   6	1	0.16	3	0	# hc,c3,c3,c3
   7	2	2.7	2	180	1.4	1	180	# o,c,os,c3
   8	1	0.15555555555555556	3	0	# X,c3,c3,X
   9	3	0.18	3	0	0.25	2	180	0.2	1	180	# c3,c3,c3,c3

Improper Coeffs

   1	10.5	-1	2	# c,X,X,o

Atoms

   1	1	1	-0.064235	-5.68791	10.7593	11.2534
   2	1	1	0.139042	-5.94655	12.1953	11.8102
   3	1	2	0.015001	-5.13204	10.188	12.0095
   4	1	2	0.033313	-4.99708	10.8375	10.4022
   5	1	1	-0.357291	-5.53525	13.285	10.7783
   6	1	3	0.733725	-5.24738	12.3637	13.1792
   7	1	2	0.091627	-4.45913	13.2355	10.5642
   8	1	2	0.097893	-5.74904	14.2871	11.1718
   9	1	2	0.10238	-6.07922	13.1692	9.83266
  10	1	4	-0.43098	-6.01812	11.8652	14.1945
  11	1	1	0.017514	-5.49999	11.8843	15.5378
  12	1	5	0.102507	-4.56564	11.3095	15.5993
  13	1	5	0.044787	-6.22946	11.4414	16.2272
  14	1	5	0.053996	-5.2981	12.9152	15.8563
  15	1	6	-0.57928	-4.11524	12.793	13.3326
  16	1	1	-0.064235	-6.33132	8.59092	10.2076
  17	1	1	0.139042	-6.93681	9.91187	10.8245
  18	1	2	0.015001	-5.76822	8.93537	9.34149
  19	1	2	0.033313	-5.56914	8.23384	10.9118
  20	1	1	-0.357291	-7.78867	9.61158	12.1032
  21	1	3	0.733725	-7.69512	10.7298	9.7321
  22	1	2	0.091627	-7.24928	8.94965	12.7926
  23	1	2	0.097893	-8.74785	9.1475	11.8538
  24	1	2	0.10238	-8.03991	10.5222	12.6585
  25	1	4	-0.43098	-8.64432	11.5766	10.2393
  26	1	1	0.017514	-9.36005	12.4455	9.33903
  27	1	5	0.102507	-8.66085	13.0784	8.77494
  28	1	5	0.044787	-10.04	13.0953	9.90349
  29	1	5	0.053996	-9.94921	11.8565	8.62438
  30	1	6	-0.57928	-7.40028	10.7065	8.54471
  31	1	1	-0.064235	-6.18506	6.30079	9.0014
  32	1	1	0.139042	-7.14534	7.30165	9.77931
  33	1	2	0.015001	-6.82954	5.49788	8.63845
  34	1	2	0.033313	-5.53207	5.81277	9.73509
  35	1	1	-0.357291	-7.57161	6.50467	11.0584
  36	1	3	0.733725	-8.43734	7.56879	8.93138
  37	1	2	0.091627	-7.96604	5.5167	10.784
  38	1	2	0.097893	-8.36664	7.00453	11.6197
  39	1	2	0.10238	-6.72486	6.3446	11.7387
  40	1	4	-0.43098	-9.30009	8.44087	9.53364
  41	1	1	0.017514	-10.5513	8.75046	8.88834
  42	1	5	0.102507	-10.3733	9.15626	7.88264
  43	1	5	0.044787	-11.1026	9.49601	9.47431
  44	1	5	0.053996	-11.1702	7.84833	8.79552
  45	1	6	-0.57928	-8.78691	6.89969	7.97081
  46	1	1	-0.064235	-4.84837	5.54204	6.87971
  47	1	1	0.139042	-5.27047	6.75981	7.79157
  48	1	2	0.015001	-5.72891	5.25001	6.30192
  49	1	2	0.033313	-4.17383	5.9869	6.14877
  50	1	1	-0.357291	-6.06059	7.70097	6.81624
  51	1	3	0.733725	-3.97069	7.48732	8.27796
  52	1	2	0.091627	-6.93395	7.19476	6.38711
  53	1	2	0.097893	-5.43946	8.0003	5.96165
  54	1	2	0.10238	-6.40431	8.62666	7.28612
  55	1	4	-0.43098	-3.23519	8.00249	7.24078
  56	1	1	0.017514	-2.00684	8.70117	7.51537
  57	1	5	0.102507	-2.20606	9.62306	8.07788
  58	1	5	0.044787	-1.51024	8.96569	6.57333
  59	1	5	0.053996	-1.32655	8.07096	8.10312
  60	1	6	-0.57928	-3.60039	7.55563	9.43933
  61	1	1	-0.064235	-3.35278	3.48092	6.235
  62	1	1	0.139042	-4.1262	4.2319	7.40004
  63	1	2	0.015001	-2.34642	3.91413	6.16619
  64	1	2	0.033313	-3.15748	2.46599	6.60561
  65	1	1	-0.357291	-3.01473	4.60167	8.43623
  66	1	3	0.733725	-5.07591	3.18338	8.07668
  67	1	2	0.091627	-2.31775	5.35249	8.04222
  68	1	2	0.097893	-2.41804	3.71707	8.69919
  69	1	2	0.10238	-3.43619	4.96995	9.37865
  70	1	4	-0.43098	-6.39999	3.3079	7.76492
  71	1	1	0.017514	-7.33986	2.3533	8.29807
  72	1	5	0.102507	-7.27654	2.31526	9.39439
  73	1	5	0.044787	-7.12902	1.35083	7.90315
  74	1	5	0.053996	-8.36254	2.6324	8.01571
  75	1	6	-0.57928	-4.6634	2.27427	8.78189
  76	1	1	-0.064235	-2.93418	2.33092	4.02264
  77	1	1	0.139042	-3.89906	3.35705	4.7486
  78	1	2	0.015001	-1.92864	2.77118	4.05071
  79	1	2	0.033313	-2.8782	1.46428	4.68155
  80	1	1	-0.357291	-5.35661	2.80242	4.75373
  81	1	3	0.733725	-3.82735	4.74487	4.03268
  82	1	2	0.091627	-6.03306	3.39325	5.36784
  83	1	2	0.097893	-5.40206	1.76327	5.10342
  84	1	2	0.10238	-5.79964	2.87461	3.75488
  85	1	4	-0.43098	-2.61854	5.36676	4.20416
  86	1	1	0.017514	-2.4238	6.68618	3.65972
  87	1	5	0.102507	-3.16486	7.38711	4.06842
  88	1	5	0.044787	-2.52429	6.66652	2.56673
  89	1	5	0.053996	-1.42129	7.05305	3.91257
  90	1	6	-0.57928	-4.77676	5.27412	3.47499
  91	1	1	-0.064235	-1.85062	1.12986	1.98217
  92	1	1	0.139042	-3.17923	1.78378	2.55281
  93	1	2	0.015001	-1.92426	1.17301	0.886246
  94	1	2	0.033313	-1.03907	1.83314	2.21239
  95	1	1	-0.357291	-4.34578	0.733668	2.51462
  96	1	3	0.733725	-3.42475	2.98527	1.58308
  97	1	2	0.091627	-4.20612	-0.0844495	3.22812
  98	1	2	0.097893	-4.4503	0.306348	1.51164
  99	1	2	0.10238	-5.32593	1.16845	2.70697
 100	1	4	-0.43098	-4.53403	2.84496	0.792915
 101	1	1	0.017514	-4.80448	3.83539	-0.217464
 102	1	5	0.102507	-5.72657	3.5845	-0.756793
 103	1	5	0.044787	-3.97969	3.87622	-0.941419
 104	1	5	0.053996	-4.92273	4.8275	0.237807
 105	1	6	-0.57928	-2.62305	3.89824	1.44802
 106	1	1	-0.064235	0.141813	-0.3614	1.737
 107	1	1	0.139042	-1.33177	-0.331035	2.32855
 108	1	2	0.015001	0.69582	0.361097	2.34713
 109	1	2	0.033313	0.0883314	0.0793074	0.735174
 110	1	1	-0.357291	-1.30007	-0.498289	3.88629
 111	1	3	0.733725	-2.24152	-1.39108	1.62684
 112	1	2	0.091627	-0.863272	-1.44175	4.2113
 113	1	2	0.097893	-2.3099	-0.5248	4.3033
 114	1	2	0.10238	-0.734576	0.310691	4.36631
 115	1	4	-0.43098	-2.35262	-2.56051	2.33208
 116	1	1	0.017514	-3.19759	-3.60796	1.81488
 117	1	5	0.102507	-3.10671	-4.51032	2.43229
 118	1	5	0.044787	-2.91283	-3.86168	0.784903
 119	1	5	0.053996	-4.24743	-3.28614	1.81818
 120	1	6	-0.57928	-2.82651	-1.20189	0.570982
 121	1	1	-0.064235	2.59611	-1.18027	1.49827
 122	1	1	0.139042	1.08108	-1.63612	1.60959
 123	1	2	0.015001	3.19578	-2.09886	1.44487
 124	1	2	0.033313	2.86819	-0.733345	2.46462
 125	1	1	-0.357291	1.04234	-2.5097	2.90011
 126	1	3	0.733725	0.743961	-2.58422	0.412456
 127	1	2	0.091627	0.0736724	-3.0071	3.02131
 128	1	2	0.097893	1.26912	-1.92222	3.79844
 129	1	2	0.10238	1.78631	-3.31674	2.84492
 130	1	4	-0.43098	-0.321326	-2.1795	-0.335247
 131	1	1	0.017514	-0.796645	-3.00342	-1.41911
 132	1	5	0.102507	-1.74798	-2.61047	-1.80249
 133	1	5	0.044787	-0.969238	-4.03164	-1.07429
 134	1	5	0.053996	-0.0669161	-3.02408	-2.23797
 135	1	6	-0.57928	1.3921	-3.58645	0.150384
 136	1	1	-0.064235	4.71055	-0.116461	0.637122
 137	1	1	0.139042	3.14397	-0.203175	0.377868
 138	1	2	0.015001	4.8246	0.343855	1.62851
 139	1	2	0.033313	5.0867	-1.13794	0.781028
 140	1	1	-0.357291	2.83454	-0.794515	-1.03583
 141	1	3	0.733725	2.51629	1.21104	0.592695
 142	1	2	0.091627	3.28351	-1.78864	-1.16571
 143	1	2	0.097893	3.18884	-0.138711	-1.83602
 144	1	2	0.10238	1.75823	-0.878055	-1.21514
 145	1	4	-0.43098	1.74089	1.63994	-0.454069
 146	1	1	0.017514	1.0385	2.89504	-0.348818
 147	1	5	0.102507	1.73946	3.72198	-0.172519
 148	1	5	0.044787	0.320839	2.86468	0.481101
 149	1	5	0.053996	0.485599	3.0954	-1.27523
 150	1	6	-0.57928	2.66841	1.86543	1.61211
 151	1	1	-0.064235	6.13847	-0.362848	-1.50073
 152	1	1	0.139042	5.73932	0.619678	-0.323031
 153	1	2	0.015001	5.2311	-0.568821	-2.06589
 154	1	2	0.033313	6.39984	-1.32378	-1.03639
 155	1	1	-0.357291	5.09675	1.96326	-0.816466
 156	1	3	0.733725	7.01049	0.860119	0.555661
 157	1	2	0.091627	5.82026	2.65746	-1.24474
 158	1	2	0.097893	4.68051	2.52336	0.0293192
 159	1	2	0.10238	4.30865	1.80605	-1.5607
 160	1	4	-0.43098	7.44185	2.15933	0.573973
 161	1	1	0.017514	8.61378	2.50375	1.33722
 162	1	5	0.102507	8.86263	3.56235	1.19029
 163	1	5	0.044787	9.47231	1.89849	1.01762
 164	1	5	0.053996	8.43809	2.33024	2.40695
 165	1	6	-0.57928	7.58435	-0.0386068	1.15167
 166	1	1	-0.064235	7.20473	-1.3464	-3.5421
 167	1	1	0.139042	7.26281	-0.0770349	-2.58106
 168	1	2	0.015001	7.54102	-2.18988	-2.93934
 169	1	2	0.033313	6.15155	-1.57337	-3.7497
 170	1	1	-0.357291	6.94371	1.24146	-3.35513
 171	1	3	0.733725	8.66862	0.0525116	-1.90824
 172	1	2	0.091627	5.92291	1.25506	-3.75647
 173	1	2	0.097893	7.66049	1.42845	-4.15974
 174	1	2	0.10238	7.08521	2.11706	-2.72063
 175	1	4	-0.43098	9.15358	-1.12285	-1.40518
 176	1	1	0.017514	10.4301	-1.10047	-0.73333
 177	1	5	0.102507	11.2098	-0.696563	-1.39442
 178	1	5	0.044787	10.7186	-2.11331	-0.428729
 179	1	5	0.053996	10.3757	-0.467985	0.163061
 180	1	6	-0.57928	9.2954	1.10013	-1.84496
 181	1	1	-0.064235	7.5983	-2.7208	-5.74693
 182	1	1	0.139042	7.95172	-1.41419	-4.93235
 183	1	2	0.015001	6.50313	-2.75962	-5.81076
 184	1	2	0.033313	7.94609	-2.48759	-6.75432
 185	1	1	-0.357291	9.49102	-1.28642	-4.7309
 186	1	3	0.733725	7.41328	-0.30216	-5.89208
 187	1	2	0.091627	9.7614	-0.282999	-4.37833
 188	1	2	0.097893	10.021	-1.43278	-5.68156
 189	1	2	0.10238	9.87317	-2.0155	-4.00632
 190	1	4	-0.43098	6.04041	-0.253319	-5.91558
 191	1	1	0.017514	5.37208	0.690319	-6.77297
 192	1	5	0.102507	4.29201	0.678794	-6.5764
 193	1	5	0.044787	5.53886	0.433428	-7.82666
 194	1	5	0.053996	5.74626	1.70683	-6.59299
 195	1	6	-0.57928	8.11497	0.386261	-6.61463
 196	1	1	-0.064235	7.07521	-5.22101	-6.09815
 197	1	1	0.139042	8.09558	-4.19104	-5.44894
 198	1	2	0.015001	7.27921	-6.19805	-5.64493
 199	1	2	0.033313	6.09499	-4.96636	-5.67742
 200	1	1	-0.357291	9.53128	-4.44736	-6.02742
 201	1	3	0.733725	8.0436	-4.4682	-3.91196
 202	1	2	0.091627	9.82549	-5.49525	-5.88131
 203	1	2	0.097893	10.2873	-3.83223	-5.52574
 204	1	2	0.10238	9.61912	-4.2338	-7.09505
 205	1	4	-0.43098	9.27889	-4.54173	-3.32032
 206	1	1	0.017514	9.38272	-4.71371	-1.89362
 207	1	5	0.102507	10.424	-4.91874	-1.6131
 208	1	5	0.044787	8.76057	-5.55224	-1.55492
 209	1	5	0.053996	9.0569	-3.80289	-1.37574
 210	1	6	-0.57928	7.00017	-4.60026	-3.2902
 211	1	1	-0.064235	5.35653	-5.7349	-7.97045
 212	1	1	0.139042	6.88762	-5.42534	-7.67143
 213	1	2	0.015001	4.76904	-5.04826	-7.34914
 214	1	2	0.033313	5.16714	-5.38999	-8.98847
 215	1	1	-0.357291	7.09542	-4.10197	-8.4929
 216	1	3	0.733725	7.90702	-6.48375	-8.2356
 217	1	2	0.091627	8.12659	-3.74308	-8.47571
 218	1	2	0.097893	6.42051	-3.30149	-8.17224
 219	1	2	0.10238	6.90114	-4.27611	-9.56172
 220	1	4	-0.43098	8.03815	-7.60037	-7.45606
 221	1	1	0.017514	9.02446	-8.60039	-7.7814
 222	1	5	0.102507	8.9136	-9.47114	-7.12201
 223	1	5	0.044787	10.0356	-8.1936	-7.64971
 224	1	5	0.053996	8.91165	-8.93461	-8.82108
 225	1	6	-0.57928	8.63682	-6.2879	-9.19451
 226	1	1	-0.064235	3.08343	-6.96497	-7.82268
 227	1	1	0.139042	4.65979	-7.14562	-7.89393
 228	1	2	0.015001	2.88229	-6.33648	-6.94521
 229	1	2	0.033313	2.68623	-7.94659	-7.55371
 230	1	1	-0.357291	4.99943	-7.86925	-6.5461
 231	1	3	0.733725	5.07113	-7.98643	-9.14311
 232	1	2	0.091627	4.79381	-7.22616	-5.68096
 233	1	2	0.097893	6.03215	-8.20371	-6.47843
 234	1	2	0.10238	4.39945	-8.78168	-6.42548
 235	1	4	-0.43098	4.80118	-9.32315	-9.03302
 236	1	1	0.017514	5.0977	-10.1626	-10.1715
 237	1	5	0.102507	6.13965	-10.0264	-10.4962
 238	1	5	0.044787	4.44264	-9.90413	-11.0144
 239	1	5	0.053996	4.94478	-11.2193	-9.92174
 240	1	6	-0.57928	5.56307	-7.50073	-10.1484
 241	1	1	-0.064235	0.795738	-5.89266	-8.44799
 242	1	1	0.139042	2.17551	-6.4325	-9.00924
 243	1	2	0.015001	0.386678	-5.21265	-9.20824
 244	1	2	0.033313	1.04228	-5.23071	-7.60787
 245	1	1	-0.357291	1.93266	-7.57572	-10.0466
 246	1	3	0.733725	2.79481	-5.18695	-9.72163
 247	1	2	0.091627	1.57387	-8.50112	-9.58026
 248	1	2	0.097893	1.2012	-7.26588	-10.8046
 249	1	2	0.10238	2.84843	-7.81879	-10.5982
 250	1	4	-0.43098	2.93551	-4.11574	-8.87097
 251	1	1	0.017514	3.4461	-2.85192	-9.34843
 252	1	5	0.102507	4.30761	-2.54305	-8.7442
 253	1	5	0.044787	2.67204	-2.08008	-9.25833
 254	1	5	0.053996	3.76678	-2.8996	-10.3974
 255	1	6	-0.57928	3.04532	-5.13177	-10.9124
 256	1	1	-0.064235	-1.43894	-5.79951	-7.31224
 257	1	1	0.139042	-0.408698	-6.80307	-7.98473
 258	1	2	0.015001	-1.69722	-5.07317	-8.09025
 259	1	2	0.033313	-0.893282	-5.17912	-6.5887
 260	1	1	-0.357291	0.0713283	-7.87351	-6.95406
 261	1	3	0.733725	-1.06474	-7.47648	-9.23336
 262	1	2	0.091627	0.675265	-8.64762	-7.43859
 263	1	2	0.097893	-0.769345	-8.41549	-6.51202
 264	1	2	0.10238	0.65652	-7.42499	-6.14158
 265	1	4	-0.43098	-1.63249	-6.5677	-10.0883
 266	1	1	0.017514	-2.40875	-7.03717	-11.2083
 267	1	5	0.102507	-1.79187	-7.64159	-11.8863
 268	1	5	0.044787	-2.81598	-6.18419	-11.7657
 269	1	5	0.053996	-3.24927	-7.65213	-10.8593
 270	1	6	-0.57928	-1.13965	-8.68347	-9.405
 271	1	1	-0.064235	-2.3657	-6.52704	-5.05613
 272	1	1	0.139042	-2.7669	-6.28313	-6.58088
 273	1	2	0.015001	-2.29825	-5.52973	-4.60458
 274	1	2	0.033313	-1.31219	-6.81044	-5.03634
 275	1	1	-0.357291	-3.41455	-7.49102	-7.33301
 276	1	3	0.733725	-3.78108	-5.091	-6.67414
 277	1	2	0.091627	-3.50616	-7.28285	-8.40417
 278	1	2	0.097893	-4.4518	-7.64875	-7.0216
 279	1	2	0.10238	-2.86194	-8.42855	-7.21059
 280	1	4	-0.43098	-4.04434	-4.7414	-7.97716
 281	1	1	0.017514	-4.79615	-3.5527	-8.28438
 282	1	5	0.102507	-4.2739	-2.66181	-7.90981
 283	1	5	0.044787	-5.7959	-3.59247	-7.83534
 284	1	5	0.053996	-4.9028	-3.45407	-9.37268
 285	1	6	-0.57928	-4.27493	-4.51136	-5.71999
 286	1	1	-0.064235	-4.2937	-8.31494	-4.53742
 287	1	1	0.139042	-3.09194	-7.4793	-4.00737
 288	1	2	0.015001	-3.9868	-9.01789	-5.31852
 289	1	2	0.033313	-4.71523	-8.94886	-3.74622
 290	1	1	-0.357291	-2.0368	-8.53058	-3.52971
 291	1	3	0.733725	-3.51703	-6.64319	-2.74802
 292	1	2	0.091627	-2.46261	-9.20334	-2.77378
 293	1	2	0.097893	-1.16981	-8.03662	-3.06847
 294	1	2	0.10238	-1.67373	-9.1466	-4.36197
 295	1	4	-0.43098	-4.71986	-7.03433	-2.21225
 296	1	1	0.017514	-5.17587	-6.47075	-0.968939
 297	1	5	0.102507	-6.1704	-6.86535	-0.722957
 298	1	5	0.044787	-5.23991	-5.37771	-1.04073
 299	1	5	0.053996	-4.487	-6.73388	-0.155459
 300	1	6	-0.57928	-2.77326	-5.86102	-2.17473
 301	1	2	0	-7.01399	12.3425	12.002
 302	1	2	0	-5.10133	-7.67098	-4.90666

Velocities

   1	0.000456758	-0.000278974	0.000683007
   2	-0.000684978	-0.000462204	0.000533907
   3	0.000149562	-0.000249155	0.00105354
   4	0.000818214	-4.99467e-05	0.000814766
   5	-0.000388844	-0.000916004	9.39218e-05
   6	-0.000292023	0.000430955	0.000733455
   7	-0.000494667	-0.00122899	-6.30274e-05
   8	-0.000523925	-0.000737239	-0.00058786
   9	-0.000600767	-0.00170497	0.000162822
  10	-0.000798862	-0.000214138	0.000874919
  11	0.000303232	0.000531591	0.000546849
  12	0.000788032	0.0010876	0.00033538
  13	0.00126145	0.000503708	0.00166224
  14	0.000188611	0.00072217	0.000228461
  15	-0.00152756	0.000360868	0.00070783
  16	0.000694297	0.000328634	-5.43872e-05
  17	0.000639566	-5.59301e-07	-0.000443982
  18	0.000822605	0.000319987	5.70967e-05
  19	0.000426555	3.24589e-05	-8.85965e-05
  20	0.000205979	0.000403152	4.30617e-05
  21	0.000340522	0.000258934	0.00174696
  22	-3.17427e-05	0.000451451	0.000329757
  23	0.000127017	0.000526296	-0.000145854
  24	0.000225776	0.000529108	-0.0002449
  25	0.00111761	-0.000254765	-7.99393e-05
  26	-0.000561753	-0.00087435	0.000552393
  27	-0.00160429	0.000200171	0.000309152
  28	-0.00124629	-0.0021138	0.000734687
  29	0.000104036	-0.00174796	0.00054703
  30	0.000640348	-0.000203786	-0.00115516
  31	0.00014449	0.000568069	-0.000305397
  32	0.000265981	0.000605489	-0.000532981
  33	3.49308e-05	0.00054407	-0.00045576
  34	6.73745e-05	0.000474657	-0.000440646
  35	0.000118679	0.000953943	-0.00036435
  36	0.000374798	0.00133272	9.79984e-05
  37	-0.000111653	0.000992966	-0.000149767
  38	0.000246071	0.0013192	-0.000506596
  39	0.000128069	0.00105396	-0.000350152
  40	0.000279032	0.000726281	-0.000439256
  41	-0.000407479	0.000163903	0.000445106
  42	-0.00133957	0.00014786	0.000275822
  43	-0.000494035	-0.000225443	0.000746004
  44	0.000193083	-0.000281453	0.000947951
  45	-6.05871e-05	0.000573914	-0.000659691
  46	0.000268146	0.000375865	-0.000397746
  47	0.000228653	0.000317164	-0.000744455
  48	0.000324955	0.000457112	-0.000643927
  49	0.000479258	0.000236367	-0.000432875
  50	0.000356715	0.000368321	-0.000368477
  51	0.000611699	0.000159633	0.000884729
  52	0.000377915	0.00034249	-0.000499117
  53	0.000396947	0.000480906	-0.000413421
  54	0.000255403	0.000299573	-0.000379559
  55	0.000359979	0.00107445	-0.000153376
  56	0.000570823	0.000271326	0.000995789
  57	0.00111358	-0.00111112	0.00344026
  58	5.81119e-05	0.00265961	0.00125545
  59	0.000926215	-0.0012577	-0.00110683
  60	0.000272113	-0.000677397	-0.000933061
  61	-0.000438748	-0.000176105	-0.00032954
  62	-0.000132737	0.000199247	-0.000402756
  63	-0.000396537	-0.000305472	-0.00053699
  64	-0.00060942	-9.93228e-05	-0.000101238
  65	0.000109892	-6.32611e-05	-0.000525344
  66	-0.000446895	0.000597307	4.77148e-05
  67	0.000331831	-0.00031615	-0.000640382
  68	-0.000167249	-0.000225258	-0.000477461
  69	0.000315012	0.000138403	-0.000505793
  70	-0.000362867	0.000541062	-0.000857693
  71	-0.000679071	0.000964883	-0.00069902
  72	-0.0013775	0.00174956	-0.000643228
  73	-0.000511163	0.000680672	0.000136822
  74	-0.000516558	0.0008215	-0.00153841
  75	-0.000949367	0.00140845	0.000920624
  76	-0.000310989	-0.000607099	-1.82481e-05
  77	-0.000470029	-0.000446678	-0.000347224
  78	-0.000234973	-0.000768588	0.000409203
  79	-0.000731645	-0.000606269	4.61764e-05
  80	-0.000475776	-0.000424056	-0.000179171
  81	-0.000399927	-0.000690181	-0.000634311
  82	-0.000521893	0.0002059	-0.000767692
  83	-0.000634718	-0.000132797	0.000670875
  84	-0.000382916	-0.00125386	-0.000275678
  85	-0.000556782	-0.000615738	-0.000725554
  86	-0.000216588	-0.000787802	-0.00103338
  87	0.000158466	-0.000427619	-0.000977313
  88	-0.000459992	-0.000894799	-0.00101751
  89	-1.32667e-05	-0.00121018	-0.00129617
  90	-0.000332703	-0.00103366	-0.00149989
  91	0.00046232	-0.000315447	-1.99708e-06
  92	0.000298771	-0.000523912	-0.000143478
  93	0.000636546	-0.000343928	-3.18037e-05
  94	0.000422884	-0.000260078	0.000132755
  95	0.00052371	-0.000849129	-0.000366423
  96	0.000202729	-0.000784129	-6.9925e-05
  97	0.000858448	-0.00110069	-0.00072989
  98	0.000537907	-0.000500992	-0.000518514
  99	0.000482355	-0.00120606	9.57159e-05
 100	-0.000268509	0.000125088	0.000800104
 101	-0.000788324	0.000740263	0.00157818
 102	-0.000980183	0.00105625	0.00177322
 103	-0.00106752	0.00140414	0.0013075
 104	-0.000686377	0.000371392	0.00245733
 105	0.000782306	-0.000884175	-0.000570811
 106	0.000509698	-0.000250354	0.000329991
 107	0.000431178	-0.000238949	5.57365e-05
 108	0.000550404	-0.000397156	0.000483512
 109	0.000691002	-0.000301443	0.000338289
 110	-0.000188128	-0.000216906	3.84367e-05
 111	0.000930539	-0.000319119	-0.000362127
 112	-0.000226188	-0.000116389	0.000423208
 113	-0.000386987	-0.000388292	-0.000523783
 114	-0.000622303	-6.92707e-05	0.00032076
 115	0.0013762	-0.000429563	-0.000522001
 116	0.00152057	-0.000475738	-0.000517128
 117	-0.000323183	0.000390491	0.00101784
 118	0.00312214	-0.002154	0.000344114
 119	0.00181047	0.000488909	-0.00280105
 120	0.00088382	-0.000300871	-0.000313005
 121	0.000208193	-0.000590364	-1.31465e-06
 122	0.000309857	-0.000497167	0.000342177
 123	6.80455e-06	-0.000747375	-0.000619335
 124	0.000749289	-0.00106019	2.21565e-05
 125	0.000152198	5.69723e-05	0.000685467
 126	4.53578e-05	-0.000184779	0.000494717
 127	7.44815e-05	0.000268017	0.000918873
 128	0.000198549	0.000406323	0.000433103
 129	-8.1374e-06	-0.00014239	0.0010765
 130	0.000934788	-0.000145446	-0.000159399
 131	0.000982795	-5.1403e-05	-0.000298073
 132	0.00231853	0.00134589	-0.0020773
 133	-0.00135202	0.000508829	0.000279628
 134	0.00221988	-0.00204967	0.000817513
 135	0.000511724	-0.000653727	0.000370367
 136	-0.000243615	-0.000223436	-7.81751e-05
 137	-0.000218189	-0.0004096	-8.49316e-05
 138	-0.000277488	-0.000179952	-0.000131602
 139	-0.000173891	-0.000215537	-1.89601e-05
 140	-0.000333186	-0.000143972	-3.83255e-05
 141	-3.44492e-05	-7.26979e-05	0.000564325
 142	-0.000360082	-0.000141576	-0.000285171
 143	-0.000434718	-4.16555e-05	-7.54626e-06
 144	-0.000371866	-0.000148535	-5.76736e-05
 145	-0.000360847	-0.000133685	0.000276729
 146	0.000525448	0.000363119	0.000376931
 147	0.00115574	-0.000163789	0.000389045
 148	0.000419735	0.000953311	0.000301603
 149	0.000741819	0.000818298	0.000293809
 150	0.000436349	-0.000347406	-0.000211457
 151	-0.000751192	8.29301e-05	-0.000332286
 152	-0.000405913	-0.00017407	-0.000135459
 153	-0.000663377	0.000737603	-0.000589457
 154	-0.00117657	-0.000134675	-0.000613292
 155	-0.000245505	-4.41281e-05	1.78909e-06
 156	-0.000287152	-0.000538995	-0.000308467
 157	-0.000109182	-0.00026341	-9.14748e-05
 158	-7.11963e-05	5.42395e-05	2.99669e-05
 159	-0.000345539	0.000117486	2.68925e-05
 160	-0.000722767	-0.000406874	0.000286663
 161	-0.000167001	-0.000493924	-0.000658892
 162	-0.00117805	-0.000137207	0.000105354
 163	-0.000102968	0.000434993	-0.00243319
 164	0.00129418	-0.00176	-0.000577892
 165	0.00028337	-0.000812176	-0.00123699
 166	-0.000863113	0.000166569	-0.000357282
 167	-0.000363654	7.5494e-05	-6.41377e-05
 168	-0.00177773	-5.42783e-05	-0.000195181
 169	-0.000934825	0.0010936	-0.000825862
 170	0.00052999	0.000275984	-2.85065e-06
 171	-0.000798614	-0.00147879	0.000105897
 172	0.000888501	0.000914626	-0.00064539
 173	0.00115692	7.68437e-05	0.000442173
 174	0.000671149	0.000192823	0.000226843
 175	-0.00149788	-0.00102716	0.000611889
 176	-0.00141515	-0.00193791	0.000678847
 177	-0.00122128	-0.00241579	0.000618163
 178	-0.0020527	-0.00202068	0.000606691
 179	-0.000908958	-0.00188289	0.000665735
 180	0.000619884	-0.00112168	-0.00065151
 181	0.000176437	0.000379823	-0.000324546
 182	-0.000307587	2.56729e-05	0.00018152
 183	0.000202139	0.00055291	-0.00123944
 184	0.00110986	0.00063414	5.43655e-05
 185	-0.00029136	-0.000378076	0.000454322
 186	0.000613299	0.00066412	-0.000249197
 187	-7.02693e-05	-0.000532155	0.000544298
 188	-0.000238106	-0.000594027	0.000560881
 189	-0.000778832	-0.000608729	0.000517634
 190	0.00010454	-3.63784e-05	-0.00120364
 191	0.00116187	0.000513824	-0.00139125
 192	0.000717302	-0.000461511	-0.00354146
 193	0.00340687	0.00199315	-0.0014136
 194	0.000135226	0.000522857	0.000692656
 195	0.000493368	0.000687137	0.00126092
 196	-0.000478616	0.000765946	-0.00044708
 197	-0.000173166	0.000261462	-0.000339936
 198	-0.000930109	0.000630822	-0.000555146
 199	-0.000503645	0.00110136	-0.000704162
 200	-0.000266905	-0.000780293	7.56248e-05
 201	-0.00103648	0.00029321	-0.00024309
 202	-0.000669541	-0.000780038	0.00119398
 203	4.37025e-05	-0.000628746	-0.000525255
 204	-1.14635e-05	-0.00212173	-0.000235396
 205	-0.000849809	0.00108362	2.67964e-05
 206	-0.00181879	-0.00022766	-0.000120198
 207	-0.00124828	0.0038036	0.000774966
 208	0.00130067	-0.00336604	-0.00211907
 209	-0.00635737	-0.00228773	0.000714683
 210	-0.000547934	0.000295258	-0.000732613
 211	0.000259419	0.000656748	-0.000795807
 212	-8.279e-05	0.0013292	-0.000492406
 213	-4.6822e-05	0.00117448	-0.00161074
 214	0.000913437	-0.000471446	-0.00133639
 215	-0.000304346	0.00167839	5.17113e-05
 216	8.12089e-06	0.00175618	-0.000838
 217	-0.00043221	0.00204908	0.000778369
 218	-0.000829918	0.00136249	-9.6005e-05
 219	0.000436073	0.00202374	-0.000126165
 220	-0.000160777	0.00165196	-0.000999288
 221	-0.000826075	0.00140199	-0.00190219
 222	0.000613919	0.00228343	-0.000539075
 223	-0.000577577	0.00166283	-0.00472029
 224	-0.00324246	0.000203762	-0.0012563
 225	-1.14417e-05	0.00206961	-0.00069741
 226	0.000539654	0.000315609	9.99128e-05
 227	0.000607835	0.000552272	0.000524526
 228	0.000243066	0.000224227	0.000194764
 229	0.000727157	0.00020827	-7.48762e-05
 230	0.000532476	0.00148602	0.00108802
 231	0.000562868	-0.000829423	0.00159391
 232	0.00062878	0.00204493	0.000711166
 233	0.00056709	0.00142508	0.00119
 234	0.000487844	0.00163765	0.00174444
 235	-0.00138524	-0.000270053	0.00212195
 236	-0.00133728	-0.00159632	0.0031468
 237	-0.000729207	-0.0034364	0.0044027
 238	0.000104264	-0.00112703	0.00218867
 239	-0.00331551	-0.00116685	0.00372128
 240	0.00245644	-0.00209053	0.00158412
 241	0.000693973	7.20927e-05	-0.000291035
 242	0.000747431	0.000185793	0.000358791
 243	0.000669045	-0.000185481	-0.000520028
 244	0.000554324	0.000431764	-0.000416337
 245	0.000970034	0.000399474	-0.000244084
 246	0.00129285	0.000306683	-0.00131218
 247	0.000879054	0.000373472	-0.000291033
 248	0.0010137	0.000499099	-0.00011725
 249	0.00100148	0.000434026	-0.000102196
 250	0.000499265	0.000744011	0.000119224
 251	-0.000571459	0.000864936	-0.000629545
 252	-0.00227803	0.00305597	0.000925282
 253	-0.00211067	-0.000242788	-0.0029339
 254	0.00164968	0.000338912	0.000131817
 255	0.00168438	-1.33299e-05	0.00112833
 256	0.000691036	-0.000399496	6.01118e-05
 257	0.000867414	2.46549e-05	-5.03754e-05
 258	0.00038605	-0.000272096	0.000246926
 259	0.000733506	-0.000672561	0.000249053
 260	0.000815916	-0.000159058	-0.000185246
 261	0.000885206	-0.000764755	-9.96159e-05
 262	0.00141388	0.000241841	0.000104805
 263	0.000779424	-0.000742743	-0.000939378
 264	2.06964e-05	-0.000105372	0.000409239
 265	0.00160975	-0.000164614	-0.000688639
 266	0.00259633	-0.000527066	-0.00125447
 267	0.00312663	-0.00115314	-0.000222827
 268	0.00368047	-0.000566574	-0.0022112
 269	0.0019374	7.41692e-05	-0.00188564
 270	0.000228254	0.000123288	0.000446954
 271	0.000684579	-0.00105581	-4.55894e-05
 272	0.000798061	-0.00101481	0.000131814
 273	0.00185238	-0.00110879	-0.000369081
 274	0.000228607	-0.00201547	-0.000184973
 275	0.000841983	-0.000820458	-0.000495123
 276	0.000460484	-0.00134821	0.00140607
 277	0.000901328	-0.000194445	-0.000414737
 278	0.000752246	-0.00100998	-0.000822813
 279	0.000757464	-0.00103533	-0.00081701
 280	-0.000424647	-0.000718871	0.00173364
 281	-0.0027705	-0.00193459	0.0039276
 282	-0.00454733	-0.00148315	0.00528561
 283	-0.00248582	-0.00493265	0.00431019
 284	-0.00330026	-0.000682966	0.00414144
 285	-0.000118606	-0.00290784	0.00197755
 286	-0.00113745	0.000762209	-0.000760969
 287	-0.00100144	-9.83032e-05	-0.00048891
 288	-0.000593773	-0.000747548	0.000427732
 289	-0.00369345	0.0027663	-0.000389951
 290	-0.00156741	-0.000243601	-0.00027813
 291	0.00022286	0.00174646	-0.000122115
 292	-0.00182892	8.00486e-05	-9.25694e-05
 293	-0.0012478	-0.000573019	-0.00108953
 294	-0.00265571	-0.000230256	-0.000903666
 295	-0.00124932	0.00215775	-0.00041596
 296	0.000430982	0.00319166	-0.000115214
 297	0.000849928	0.00295016	0.00180538
 298	-0.000134551	0.00312669	-0.000575105
 299	0.00194033	0.0038928	-0.000976657
 300	-0.000860809	0.000378826	-0.00123163
 301	-0.0006452	-0.000633206	0.00045511
 302	0.00015823	0.00111017	-0.00330026

Bonds

   1	1	1	2
   2	2	1	3
   3	2	1	4
   4	1	2	5
   5	6	2	6
   6	2	5	7
   7	2	5	8
   8	2	5	9
   9	7	6	10
  10	3	6	15
  11	5	10	11
  12	4	11	12
  13	4	11	13
  14	4	11	14
  15	1	16	17
  16	2	16	18
  17	2	16	19
  18	1	17	20
  19	6	17	21
  20	2	20	22
  21	2	20	23
  22	2	20	24
  23	7	21	25
  24	3	21	30
  25	5	25	26
  26	4	26	27
  27	4	26	28
  28	4	26	29
  29	1	1	17
  30	1	31	32
  31	2	31	33
  32	2	31	34
  33	1	32	35
  34	6	32	36
  35	2	35	37
  36	2	35	38
  37	2	35	39
  38	7	36	40
  39	3	36	45
  40	5	40	41
  41	4	41	42
  42	4	41	43
  43	4	41	44
  44	1	16	32
  45	1	46	47
  46	2	46	48
  47	2	46	49
  48	1	47	50
  49	6	47	51
  50	2	50	52
  51	2	50	53
  52	2	50	54
  53	7	51	55
  54	3	51	60
  55	5	55	56
  56	4	56	57
  57	4	56	58
  58	4	56	59
  59	1	31	47
  60	1	61	62
  61	2	61	63
  62	2	61	64
  63	1	62	65
  64	6	62	66
  65	2	65	67
  66	2	65	68
  67	2	65	69
  68	7	66	70
  69	3	66	75
  70	5	70	71
  71	4	71	72
  72	4	71	73
  73	4	71	74
  74	1	46	62
  75	1	76	77
  76	2	76	78
  77	2	76	79
  78	1	77	80
  79	6	77	81
  80	2	80	82
  81	2	80	83
  82	2	80	84
  83	7	81	85
  84	3	81	90
  85	5	85	86
  86	4	86	87
  87	4	86	88
  88	4	86	89
  89	1	61	77
  90	1	91	92
  91	2	91	93
  92	2	91	94
  93	1	92	95
  94	6	92	96
  95	2	95	97
  96	2	95	98
  97	2	95	99
  98	7	96	100
  99	3	96	105
 100	5	100	101
 101	4	101	102
 102	4	101	103
 103	4	101	104
 104	1	76	92
 105	1	106	107
 106	2	106	108
 107	2	106	109
 108	1	107	110
 109	6	107	111
 110	2	110	112
 111	2	110	113
 112	2	110	114
 113	7	111	115
 114	3	111	120
 115	5	115	116
 116	4	116	117
 117	4	116	118
 118	4	116	119
 119	1	91	107
 120	1	121	122
 121	2	121	123
 122	2	121	124
 123	1	122	125
 124	6	122	126
 125	2	125	127
 126	2	125	128
 127	2	125	129
 128	7	126	130
 129	3	126	135
 130	5	130	131
 131	4	131	132
 132	4	131	133
 133	4	131	134
 134	1	106	122
 135	1	136	137
 136	2	136	138
 137	2	136	139
 138	1	137	140
 139	6	137	141
 140	2	140	142
 141	2	140	143
 142	2	140	144
 143	7	141	145
 144	3	141	150
 145	5	145	146
 146	4	146	147
 147	4	146	148
 148	4	146	149
 149	1	121	137
 150	1	151	152
 151	2	151	153
 152	2	151	154
 153	1	152	155
 154	6	152	156
 155	2	155	157
 156	2	155	158
 157	2	155	159
 158	7	156	160
 159	3	156	165
 160	5	160	161
 161	4	161	162
 162	4	161	163
 163	4	161	164
 164	1	136	152
 165	1	166	167
 166	2	166	168
 167	2	166	169
 168	1	167	170
 169	6	167	171
 170	2	170	172
 171	2	170	173
 172	2	170	174
 173	7	171	175
 174	3	171	180
 175	5	175	176
 176	4	176	177
 177	4	176	178
 178	4	176	179
 179	1	151	167
 180	1	181	182
 181	2	181	183
 182	2	181	184
 183	1	182	185
 184	6	182	186
 185	2	185	187
 186	2	185	188
 187	2	185	189
 188	7	186	190
 189	3	186	195
 190	5	190	191
 191	4	191	192
 192	4	191	193
 193	4	191	194
 194	1	166	182
 195	1	196	197
 196	2	196	198
 197	2	196	199
 198	1	197	200
 199	6	197	201