pySIMM System Object

602 atoms
601 bonds
1120 angles
1511 dihedrals
40 impropers

6 atom types
7 bond types
11 angle types
9 dihedral types
1 improper types

-117.481003 117.481003 xlo xhi
-117.481003 117.481003 ylo yhi
-117.481003 117.481003 zlo zhi

Masses

   1	12.01	# c3
   2	1.008	# hc
   3	12.01	# c
   4	16.0	# os
   5	1.008	# h1
   6	16.0	# o

Pair Coeffs

   1	0.1094	3.3996695084235347	# c3
   2	0.0157	2.649532787749369	# hc
   3	0.086	3.3996695084235347	# c
   4	0.17	3.0000123434657784	# os
   5	0.0157	2.471353044121301	# h1
   6	0.21	2.959921901149463	# o

Bond Coeffs

   1	300.9	1.5375	# c3,c3
   2	330.6	1.0969	# c3,hc
   3	637.7	1.2183	# c,o
   4	330.6	1.0969	# c3,h1
   5	308.6	1.4316	# c3,os
   6	313.0	1.5241	# c,c3
   7	390.8	1.3584	# c,os

Angle Coeffs

   1	46.93	108.77	# c,c3,hc
   2	67.4	123.2	# c3,c,o
   3	75.32	123.25	# o,c,os
   4	39.24	108.46	# h1,c3,h1
   5	63.27	111.04	# c,c3,c3
   6	46.34	109.8	# c3,c3,hc
   7	50.8	109.78	# h1,c3,os
   8	63.28	115.98	# c,os,c3
   9	62.86	111.51	# c3,c3,c3
  10	39.4	107.58	# hc,c3,hc
  11	68.89	110.72	# c3,c,os

Dihedral Coeffs

   1	1	0.3833333333333333	3	0	# X,c3,os,X
   2	1	0.0	2	180	# X,c,c3,X
   3	1	0.15	3	0	# hc,c3,c3,hc
   4	3	0.8	1	0	0.0	2	0	0.08	3	180	# hc,c3,c,o
   5	3	2.7	2	180	0.0	1	0	1.15	3	0	# c3,c,os,c3
   6	1	0.16	3	0	# hc,c3,c3,c3
   7	2	2.7	2	180	1.4	1	180	# o,c,os,c3
   8	1	0.15555555555555556	3	0	# X,c3,c3,X
   9	3	0.18	3	0	0.25	2	180	0.2	1	180	# c3,c3,c3,c3

Improper Coeffs

   1	10.5	-1	2	# c,X,X,o

Atoms

   1	1	1	-0.064235	-15.259	-11.2141	5.78452
   2	1	1	0.139042	-15.4925	-12.7566	5.68243
   3	1	2	0.015001	-15.9812	-10.8103	6.50114
   4	1	2	0.033313	-15.5393	-10.789	4.8122
   5	1	1	-0.357291	-16.8641	-13.0423	5.01107
   6	1	3	0.733725	-15.3846	-13.4755	7.04616
   7	1	2	0.091627	-17.6872	-12.6363	5.61357
   8	1	2	0.097893	-17.0231	-14.1236	4.90545
   9	1	2	0.10238	-16.9152	-12.5973	4.009
  10	1	4	-0.43098	-14.4655	-14.4889	7.02069
  11	1	1	0.017514	-14.2605	-15.2755	8.21007
  12	1	5	0.102507	-13.9893	-14.6334	9.05925
  13	1	5	0.044787	-13.4525	-15.9999	8.04716
  14	1	5	0.053996	-15.1757	-15.8254	8.46641
  15	1	6	-0.57928	-16.0372	-13.1736	8.03199
  16	1	1	-0.064235	-13.6176	-9.21438	5.67228
  17	1	1	0.139042	-13.8074	-10.7149	6.12964
  18	1	2	0.015001	-12.5416	-9.07505	5.49721
  19	1	2	0.033313	-14.0594	-9.12202	4.67059
  20	1	1	-0.357291	-13.515	-10.8843	7.65969
  21	1	3	0.733725	-12.8041	-11.528	5.24624
  22	1	2	0.091627	-13.5049	-11.9357	7.96596
  23	1	2	0.097893	-14.2609	-10.385	8.28772
  24	1	2	0.10238	-12.5227	-10.4897	7.915
  25	1	4	-0.43098	-12.0611	-12.4407	5.94667
  26	1	1	0.017514	-11.1375	-13.2877	5.23669
  27	1	5	0.102507	-10.392	-12.6837	4.70149
  28	1	5	0.044787	-11.6729	-13.9097	4.50757
  29	1	5	0.053996	-10.6147	-13.9473	5.94048
  30	1	6	-0.57928	-12.7532	-11.4268	4.03023
  31	1	1	-0.064235	-13.9149	-6.72909	5.55888
  32	1	1	0.139042	-14.0879	-7.96955	6.52225
  33	1	2	0.015001	-14.7439	-6.77326	4.85151
  34	1	2	0.033313	-13.0413	-6.92143	4.92105
  35	1	1	-0.357291	-15.6099	-8.10342	6.87071
  36	1	3	0.733725	-13.1602	-7.84024	7.7708
  37	1	2	0.091627	-15.795	-8.90985	7.58759
  38	1	2	0.097893	-16.211	-8.29966	5.97372
  39	1	2	0.10238	-16.0054	-7.19762	7.33896
  40	1	4	-0.43098	-13.8399	-7.75222	8.95669
  41	1	1	0.017514	-13.0937	-7.64244	10.1839
  42	1	5	0.102507	-12.4354	-6.76281	10.1584
  43	1	5	0.044787	-12.4767	-8.53759	10.3366
  44	1	5	0.053996	-13.7796	-7.54247	11.0343
  45	1	6	-0.57928	-11.9411	-7.8554	7.70717
  46	1	1	-0.064235	-13.9112	-4.25257	4.85925
  47	1	1	0.139042	-13.7425	-5.2456	6.08131
  48	1	2	0.015001	-13.2789	-3.37778	5.06698
  49	1	2	0.033313	-13.4208	-4.72972	3.9989
  50	1	1	-0.357291	-14.7118	-4.87136	7.25494
  51	1	3	0.733725	-12.2392	-5.08239	6.49997
  52	1	2	0.091627	-15.769	-4.94256	6.9889
  53	1	2	0.097893	-14.5219	-3.84538	7.59557
  54	1	2	0.10238	-14.5533	-5.49862	8.13643
  55	1	4	-0.43098	-12.049	-4.79289	7.82648
  56	1	1	0.017514	-10.7004	-4.62207	8.30512
  57	1	5	0.102507	-10.1117	-5.53296	8.12568
  58	1	5	0.044787	-10.704	-4.41092	9.38126
  59	1	5	0.053996	-10.2142	-3.78526	7.78615
  60	1	6	-0.57928	-11.3139	-5.17661	5.70606
  61	1	1	-0.064235	-14.9716	-3.01071	2.96095
  62	1	1	0.139042	-15.3019	-3.67722	4.36244
  63	1	2	0.015001	-13.9487	-2.62081	2.99817
  64	1	2	0.033313	-14.9278	-3.8538	2.27026
  65	1	1	-0.357291	-16.3138	-4.85495	4.12026
  66	1	3	0.733725	-15.8269	-2.63433	5.40407
  67	1	2	0.091627	-15.9309	-5.56629	3.37743
  68	1	2	0.097893	-17.283	-4.50571	3.75514
  69	1	2	0.10238	-16.534	-5.40869	5.03692
  70	1	4	-0.43098	-17.1892	-2.65059	5.54332
  71	1	1	0.017514	-17.8137	-1.75264	6.48108
  72	1	5	0.102507	-18.9018	-1.89554	6.47607
  73	1	5	0.044787	-17.5981	-0.709857	6.21348
  74	1	5	0.053996	-17.4421	-1.93931	7.49739
  75	1	6	-0.57928	-15.1089	-1.92084	6.08746
  76	1	1	-0.064235	-15.4257	-1.67772	0.741707
  77	1	1	0.139042	-15.8605	-1.913	2.25248
  78	1	2	0.015001	-15.8495	-2.49946	0.155847
  79	1	2	0.033313	-15.9753	-0.786389	0.413452
  80	1	1	-0.357291	-17.3378	-2.41425	2.1475
  81	1	3	0.733725	-15.8618	-0.541874	3.00613
  82	1	2	0.091627	-17.8326	-2.4383	3.12357
  83	1	2	0.097893	-17.3977	-3.41202	1.69386
  84	1	2	0.10238	-17.9358	-1.73418	1.52515
  85	1	4	-0.43098	-14.7398	-0.322624	3.7534
  86	1	1	0.017514	-14.6462	0.870058	4.55643
  87	1	5	0.102507	-13.6974	0.880267	5.10772
  88	1	5	0.044787	-15.4669	0.902025	5.28527
  89	1	5	0.053996	-14.6995	1.76689	3.92581
  90	1	6	-0.57928	-16.7791	0.262071	2.94465
  91	1	1	-0.064235	-13.8621	-0.913406	-1.21847
  92	1	1	0.139042	-13.9269	-1.49605	0.256714
  93	1	2	0.015001	-14.0929	0.159075	-1.16044
  94	1	2	0.033313	-12.8073	-0.935022	-1.52319
  95	1	1	-0.357291	-13.2095	-0.423738	1.13865
  96	1	3	0.733725	-13.1061	-2.83118	0.287595
  97	1	2	0.091627	-13.8249	0.476821	1.26434
  98	1	2	0.097893	-12.2617	-0.106147	0.683345
  99	1	2	0.10238	-12.9474	-0.815587	2.12712
 100	1	4	-0.43098	-11.7644	-2.62792	0.0982736
 101	1	1	0.017514	-10.883	-3.76854	0.0596878
 102	1	5	0.102507	-11.1842	-4.46456	-0.735622
 103	1	5	0.044787	-10.9085	-4.30391	1.0179
 104	1	5	0.053996	-9.8529	-3.44375	-0.131756
 105	1	6	-0.57928	-13.5831	-3.95238	0.360957
 106	1	1	-0.064235	-14.0792	-0.908091	-3.74891
 107	1	1	0.139042	-14.7079	-1.506	-2.42002
 108	1	2	0.015001	-13.1295	-1.43714	-3.90418
 109	1	2	0.033313	-13.7756	0.125994	-3.53675
 110	1	1	-0.357291	-14.5498	-3.06708	-2.43668
 111	1	3	0.733725	-16.1782	-1.01154	-2.26521
 112	1	2	0.091627	-15.0347	-3.53633	-1.57685
 113	1	2	0.097893	-13.4932	-3.36413	-2.44416
 114	1	2	0.10238	-15.0187	-3.54781	-3.29358
 115	1	4	-0.43098	-17.1091	-2.01319	-2.28865
 116	1	1	0.017514	-18.5035	-1.65866	-2.20747
 117	1	5	0.102507	-18.7047	-1.0735	-1.2996
 118	1	5	0.044787	-19.1228	-2.56362	-2.18717
 119	1	5	0.053996	-18.7929	-1.05657	-3.07953
 120	1	6	-0.57928	-16.4672	0.163145	-2.09542
 121	1	1	-0.064235	-13.7812	-0.482628	-6.24147
 122	1	1	0.139042	-14.8542	-0.873623	-5.13646
 123	1	2	0.015001	-12.9097	-1.12739	-6.09921
 124	1	2	0.033313	-13.4101	0.514071	-5.96911
 125	1	1	-0.357291	-15.4749	-2.27031	-5.45121
 126	1	3	0.733725	-15.9685	0.219753	-5.07397
 127	1	2	0.091627	-15.9852	-2.28884	-6.41785
 128	1	2	0.097893	-16.2553	-2.53083	-4.72759
 129	1	2	0.10238	-14.7103	-3.05764	-5.45452
 130	1	4	-0.43098	-15.4619	1.48604	-4.94478
 131	1	1	0.017514	-16.3758	2.59781	-4.88746
 132	1	5	0.102507	-17.0625	2.48722	-4.0363
 133	1	5	0.044787	-16.9672	2.65408	-5.81084
 134	1	5	0.053996	-15.8208	3.53718	-4.77187
 135	1	6	-0.57928	-17.1636	-0.0165811	-5.17075
 136	1	1	-0.064235	-14.0164	-1.90968	-8.44733
 137	1	1	0.139042	-14.0934	-0.459056	-7.80152
 138	1	2	0.015001	-14.1888	-2.62744	-7.6452
 139	1	2	0.033313	-14.8885	-2.03428	-9.10326
 140	1	1	-0.357291	-15.5405	0.0824951	-8.06634
 141	1	3	0.733725	-13.1075	0.54704	-8.48494
 142	1	2	0.091627	-15.6703	1.09043	-7.65175
 143	1	2	0.097893	-16.3298	-0.562644	-7.66849
 144	1	2	0.10238	-15.7304	0.16852	-9.14525
 145	1	4	-0.43098	-11.8343	0.498492	-7.98196
 146	1	1	0.017514	-10.8323	1.37068	-8.54416
 147	1	5	0.102507	-11.1389	2.42209	-8.45335
 148	1	5	0.044787	-10.6818	1.14412	-9.60783
 149	1	5	0.053996	-9.87738	1.23708	-8.02158
 150	1	6	-0.57928	-13.4161	1.30359	-9.39409
 151	1	1	-0.064235	-13.1664	-3.95011	-9.64626
 152	1	1	0.139042	-12.7754	-2.46213	-9.26185
 153	1	2	0.015001	-13.9149	-3.86159	-10.4444
 154	1	2	0.033313	-13.7322	-4.38369	-8.81102
 155	1	1	-0.357291	-12.6494	-1.63406	-10.5921
 156	1	3	0.733725	-11.5022	-2.43782	-8.36366
 157	1	2	0.091627	-13.6357	-1.38915	-11.0076
 158	1	2	0.097893	-12.1135	-2.168	-11.376
 159	1	2	0.10238	-12.1025	-0.696018	-10.4594
 160	1	4	-0.43098	-10.3806	-1.99672	-9.01603
 161	1	1	0.017514	-9.13651	-1.91874	-8.29393
 162	1	5	0.102507	-8.85675	-2.90311	-7.895
 163	1	5	0.044787	-9.22721	-1.2151	-7.45591
 164	1	5	0.053996	-8.33555	-1.56997	-8.95752
 165	1	6	-0.57928	-11.4895	-2.82396	-7.20487
 166	1	1	-0.064235	-11.1455	-4.60473	-11.2005
 167	1	1	0.139042	-12.1303	-5.07698	-10.0635
 168	1	2	0.015001	-11.7667	-4.22165	-12.0197
 169	1	2	0.033313	-10.6026	-3.73741	-10.8148
 170	1	1	-0.357291	-11.3315	-5.53076	-8.79646
 171	1	3	0.733725	-13.0294	-6.2527	-10.5646
 172	1	2	0.091627	-10.5027	-4.85869	-8.55234
 173	1	2	0.097893	-10.9133	-6.53717	-8.92629
 174	1	2	0.10238	-11.9836	-5.59345	-7.91503
 175	1	4	-0.43098	-13.6636	-5.97014	-11.7464
 176	1	1	0.017514	-14.5292	-6.96043	-12.3338
 177	1	5	0.102507	-13.9753	-7.88827	-12.5326
 178	1	5	0.044787	-14.9377	-6.58703	-13.281
 179	1	5	0.053996	-15.3635	-7.18963	-11.6581
 180	1	6	-0.57928	-13.2068	-7.29603	-9.95479
 181	1	1	-0.064235	-9.27314	-4.62124	-12.8632
 182	1	1	0.139042	-10.0603	-5.55253	-11.8568
 183	1	2	0.015001	-10.0164	-4.05004	-13.4311
 184	1	2	0.033313	-8.75993	-3.87821	-12.244
 185	1	1	-0.357291	-10.7589	-6.71759	-12.6291
 186	1	3	0.733725	-9.08025	-6.10624	-10.7759
 187	1	2	0.091627	-11.2227	-7.43675	-11.9448
 188	1	2	0.097893	-10.0499	-7.3055	-13.2192
 189	1	2	0.10238	-11.5281	-6.34068	-13.3161
 190	1	4	-0.43098	-8.39004	-5.12258	-10.1157
 191	1	1	0.017514	-7.41828	-5.50861	-9.12293
 192	1	5	0.102507	-7.88827	-6.11187	-8.33361
 193	1	5	0.044787	-6.96917	-4.61835	-8.66615
 194	1	5	0.053996	-6.61897	-6.10447	-9.5835
 195	1	6	-0.57928	-8.92367	-7.29374	-10.5361
 196	1	1	-0.064235	-7.22078	-4.00776	-14.3107
 197	1	1	0.139042	-8.21694	-5.16596	-13.9031
 198	1	2	0.015001	-6.75	-3.6797	-13.3781
 199	1	2	0.033313	-6.42143	-4.46987	-14.9009
 200	1	1	-0.357291	-7.3008	-6.25369	-13.2467
 201	1	3	0.733725	-8.91254	-5.75105	-15.1725
 202	1	2	0.091627	-6.50034	-6.5638	-13.9318
 203	1	2	0.097893	-7.84869	-7.16714	-12.9904
 204	1	2	0.10238	-6.81095	-5.87536	-12.34
 205	1	4	-0.43098	-8.02089	-6.3113	-16.0498
 206	1	1	0.017514	-8.51273	-6.82626	-17.3035
 207	1	5	0.102507	-9.2646	-7.60917	-17.1336
 208	1	5	0.044787	-7.68738	-7.25149	-17.8876
 209	1	5	0.053996	-8.97678	-6.02189	-17.8899
 210	1	6	-0.57928	-10.106	-5.66786	-15.4162
 211	1	1	-0.064235	-6.46847	-1.6871	-15.2687
 212	1	1	0.139042	-7.669	-2.7054	-15.0812
 213	1	2	0.015001	-6.84207	-0.908256	-15.9427
 214	1	2	0.033313	-6.32348	-1.18194	-14.3148
 215	1	1	-0.357291	-8.25315	-3.06062	-16.4905
 216	1	3	0.733725	-8.73935	-1.91162	-14.2582
 217	1	2	0.091627	-9.27978	-3.43942	-16.416
 218	1	2	0.097893	-7.66486	-3.81517	-17.0204
 219	1	2	0.10238	-8.31582	-2.17007	-17.1294
 220	1	4	-0.43098	-8.29469	-1.53412	-13.0169
 221	1	1	0.017514	-9.18066	-0.816978	-12.1366
 222	1	5	0.102507	-9.58793	0.0746713	-12.6328
 223	1	5	0.044787	-8.64299	-0.503019	-11.2337
 224	1	5	0.053996	-10.0146	-1.46146	-11.8374
 225	1	6	-0.57928	-9.85394	-1.62286	-14.6638
 226	1	1	-0.064235	-4.15277	-0.793735	-16.065
 227	1	1	0.139042	-5.02309	-2.08299	-15.767
 228	1	2	0.015001	-4.43616	-0.4092	-17.0538
 229	1	2	0.033313	-3.13164	-1.15384	-16.2029
 230	1	1	-0.357291	-5.12253	-2.84393	-17.1296
 231	1	3	0.733725	-4.23984	-2.94621	-14.721
 232	1	2	0.091627	-5.7892	-2.32811	-17.8326
 233	1	2	0.097893	-5.47747	-3.87167	-16.9918
 234	1	2	0.10238	-4.13807	-2.92136	-17.6119
 235	1	4	-0.43098	-3.23509	-3.68141	-15.2907
 236	1	1	0.017514	-2.36108	-4.45861	-14.45
 237	1	5	0.102507	-1.79141	-3.80107	-13.7793
 238	1	5	0.044787	-1.65153	-5.02298	-15.0677
 239	1	5	0.053996	-2.93826	-5.16835	-13.8429
 240	1	6	-0.57928	-4.44759	-2.94585	-13.5183
 241	1	1	-0.064235	-3.01582	1.50138	-15.4765
 242	1	1	0.139042	-4.11954	0.443612	-15.079
 243	1	2	0.015001	-3.06661	2.27751	-14.7009
 244	1	2	0.033313	-3.36387	2.02666	-16.3768
 245	1	1	-0.357291	-3.87841	0.0114841	-13.5918
 246	1	3	0.733725	-5.45518	1.24842	-15.2313
 247	1	2	0.091627	-3.12491	-0.773288	-13.4996
 248	1	2	0.097893	-3.55177	0.859276	-12.9749
 249	1	2	0.10238	-4.78303	-0.37218	-13.1084
 250	1	4	-0.43098	-5.95375	1.73279	-14.0505
 251	1	1	0.017514	-7.17152	2.50391	-14.0692
 252	1	5	0.102507	-7.05669	3.39349	-14.7039
 253	1	5	0.044787	-7.42657	2.82984	-13.0534
 254	1	5	0.053996	-8.00096	1.90113	-14.4623
 255	1	6	-0.57928	-5.97104	1.4997	-16.3102
 256	1	1	-0.064235	-0.681837	2.4377	-15.316
 257	1	1	0.139042	-1.49167	1.14192	-15.7209
 258	1	2	0.015001	-0.8922	2.60378	-14.2509
 259	1	2	0.033313	-1.16577	3.29532	-15.803
 260	1	1	-0.357291	-1.3158	0.875725	-17.2528
 261	1	3	0.733725	-1.02089	-0.074652	-14.8617
 262	1	2	0.091627	-2.00915	0.111937	-17.619
 263	1	2	0.097893	-0.312411	0.507542	-17.489
 264	1	2	0.10238	-1.49435	1.78444	-17.8419
 265	1	4	-0.43098	-0.857149	0.242002	-13.541
 266	1	1	0.017514	-0.353262	-0.756012	-12.6313
 267	1	5	0.102507	0.638036	-1.10427	-12.9532
 268	1	5	0.044787	-1.0319	-1.61745	-12.5882
 269	1	5	0.053996	-0.259762	-0.331193	-11.6242
 270	1	6	-0.57928	-0.778651	-1.18322	-15.315
 271	1	1	-0.064235	1.31059	3.64124	-14.4179
 272	1	1	0.139042	0.880592	2.60206	-15.5289
 273	1	2	0.015001	1.20727	3.09534	-13.4742
 274	1	2	0.033313	0.546531	4.42717	-14.3824
 275	1	1	-0.357291	1.12427	3.1914	-16.9611
 276	1	3	0.733725	1.64308	1.25454	-15.2957
 277	1	2	0.091627	0.544146	4.10722	-17.1245
 278	1	2	0.097893	0.830719	2.48926	-17.7486
 279	1	2	0.10238	2.18052	3.42269	-17.1357
 280	1	4	-0.43098	1.94966	0.595994	-16.455
 281	1	1	0.017514	2.57943	-0.698126	-16.3779
 282	1	5	0.102507	3.54456	-0.630201	-15.8579
 283	1	5	0.044787	2.74897	-1.09495	-17.3863
 284	1	5	0.053996	1.93783	-1.40239	-15.8311
 285	1	6	-0.57928	1.93845	0.808494	-14.1985
 286	1	1	-0.064235	3.00147	4.84872	-12.8766
 287	1	1	0.139042	2.7188	4.34674	-14.3546
 288	1	2	0.015001	3.05947	3.95282	-12.2569
 289	1	2	0.033313	4.02727	5.2399	-12.8726
 290	1	1	-0.357291	3.8557	3.30971	-14.6392
 291	1	3	0.733725	2.87187	5.52145	-15.376
 292	1	2	0.091627	3.83598	2.47687	-13.9245
 293	1	2	0.097893	4.84391	3.78106	-14.5478
 294	1	2	0.10238	3.80478	2.89973	-15.6536
 295	1	4	-0.43098	1.69068	5.97663	-15.9006
 296	1	1	0.017514	1.7194	6.98656	-16.9292
 297	1	5	0.102507	2.25895	7.88025	-16.5871
 298	1	5	0.044787	0.696712	7.27495	-17.2025
 299	1	5	0.053996	2.2214	6.59887	-17.8258
 300	1	6	-0.57928	3.94721	6.02217	-15.6663
 301	1	1	-0.064235	2.67672	6.23701	-10.6783
 302	1	1	0.139042	2.11381	5.92793	-12.1249
 303	1	2	0.015001	1.9205	6.86237	-10.1865
 304	1	2	0.033313	3.51451	6.92112	-10.8232
 305	1	1	-0.357291	2.25242	7.28324	-12.9038
 306	1	3	0.733725	0.593529	5.572	-11.957
 307	1	2	0.091627	3.2913	7.48164	-13.2013
 308	1	2	0.097893	1.92749	8.13199	-12.2864
 309	1	2	0.10238	1.62161	7.30745	-13.7979
 310	1	4	-0.43098	-0.196043	6.68915	-11.853
 311	1	1	0.017514	-1.61401	6.5385	-11.6433
 312	1	5	0.102507	-1.81064	5.98698	-10.7135
 313	1	5	0.044787	-2.06844	5.98912	-12.4779
 314	1	5	0.053996	-2.09055	7.52432	-11.5729
 315	1	6	-0.57928	0.12958	4.45358	-11.817
 316	1	1	-0.064235	3.02128	5.6779	-8.1569
 317	1	1	0.139042	3.1108	5.11329	-9.63509
 318	1	2	0.015001	2.92812	4.81985	-7.47867
 319	1	2	0.033313	2.0421	6.16779	-8.07301
 320	1	1	-0.357291	2.07051	3.94118	-9.61488
 321	1	3	0.733725	4.53853	4.53505	-9.91606
 322	1	2	0.091627	2.33071	3.19938	-8.8468
 323	1	2	0.097893	1.05814	4.29756	-9.38728
 324	1	2	0.10238	2.03229	3.37105	-10.5463
 325	1	4	-0.43098	5.36341	5.40597	-10.5754
 326	1	1	0.017514	6.73279	5.03514	-10.8279
 327	1	5	0.102507	7.25171	5.84073	-11.363
 328	1	5	0.044787	6.77949	4.12352	-11.4376
 329	1	5	0.053996	7.26003	4.85415	-9.88156
 330	1	6	-0.57928	4.90794	3.43202	-9.54886
 331	1	1	-0.064235	3.39115	7.1571	-6.16843
 332	1	1	0.139042	4.09196	6.64031	-7.49783
 333	1	2	0.015001	2.83587	6.31647	-5.72957
 334	1	2	0.033313	2.60169	7.84595	-6.49943
 335	1	1	-0.357291	4.35426	7.8516	-8.45248
 336	1	3	0.733725	5.41728	5.86405	-7.20626
 337	1	2	0.091627	5.02461	8.59325	-8.02075
 338	1	2	0.097893	3.42572	8.35989	-8.74011
 339	1	2	0.10238	4.88597	7.53554	-9.35303
 340	1	4	-0.43098	5.20662	4.67307	-6.56798
 341	1	1	0.017514	6.33559	3.83534	-6.24573
 342	1	5	0.102507	7.08232	4.39153	-5.6626
 343	1	5	0.044787	6.81252	3.46896	-7.16392
 344	1	5	0.053996	6.00735	2.97188	-5.65303
 345	1	6	-0.57928	6.52307	6.25938	-7.54224
 346	1	1	-0.064235	4.6574	6.75096	-3.96003
 347	1	1	0.139042	4.13944	7.85701	-4.96128
 348	1	2	0.015001	5.09941	5.94318	-4.53967
 349	1	2	0.033313	3.77824	6.27952	-3.5014
 350	1	1	-0.357291	5.28777	8.79509	-5.45818
 351	1	3	0.733725	3.02147	8.67016	-4.22221
 352	1	2	0.091627	6.10382	8.24521	-5.94073
 353	1	2	0.097893	5.71839	9.3846	-4.6446
 354	1	2	0.10238	4.90385	9.54432	-6.15966
 355	1	4	-0.43098	3.0714	10.0191	-4.45998
 356	1	1	0.017514	2.05423	10.8722	-3.89939
 357	1	5	0.102507	2.00416	10.7541	-2.80828
 358	1	5	0.044787	1.0727	10.6223	-4.32294
 359	1	5	0.053996	2.27542	11.9221	-4.12881
 360	1	6	-0.57928	2.1332	8.15738	-3.55856
 361	1	1	-0.064235	5.73765	5.79713	-1.90338
 362	1	1	0.139042	5.69008	7.08163	-2.81749
 363	1	2	0.015001	4.71741	5.57436	-1.56471
 364	1	2	0.033313	5.98107	4.96808	-2.56811
 365	1	1	-0.357291	5.21426	8.30608	-1.96459
 366	1	3	0.733725	7.08149	7.27109	-3.50132
 367	1	2	0.091627	5.07184	9.20849	-2.56557
 368	1	2	0.097893	5.95714	8.58179	-1.20706
 369	1	2	0.10238	4.26455	8.09165	-1.45551
 370	1	4	-0.43098	7.64184	8.50439	-3.29739
 371	1	1	0.017514	8.91849	8.7915	-3.90134
 372	1	5	0.102507	8.87153	8.64876	-4.99034
 373	1	5	0.044787	9.69104	8.12493	-3.49638
 374	1	5	0.053996	9.20853	9.82931	-3.69635
 375	1	6	-0.57928	7.62927	6.39713	-4.15585
 376	1	1	-0.064235	6.6655	4.28653	0.000717825
 377	1	1	0.139042	6.68358	5.72026	-0.643666
 378	1	2	0.015001	7.35792	4.34172	0.841597
 379	1	2	0.033313	5.69931	4.16196	0.504524
 380	1	1	-0.357291	8.1657	6.10204	-0.972116
 381	1	3	0.733725	6.16946	6.6533	0.504548
 382	1	2	0.091627	8.2702	7.18241	-1.12906
 383	1	2	0.097893	8.55874	5.59385	-1.85724
 384	1	2	0.10238	8.82714	5.86787	-0.128671
 385	1	4	-0.43098	4.85169	6.44647	0.821304
 386	1	1	0.017514	4.29069	7.13014	1.95986
 387	1	5	0.102507	4.82385	6.84617	2.87805
 388	1	5	0.044787	3.23275	6.86427	2.07611
 389	1	5	0.053996	4.36902	8.21796	1.83569
 390	1	6	-0.57928	6.88456	7.40634	1.14839
 391	1	1	-0.064235	7.33024	1.85946	0.297593
 392	1	1	0.139042	6.9132	2.93649	-0.787395
 393	1	2	0.015001	6.76602	2.08881	1.2089
 394	1	2	0.033313	6.94221	0.884935	-0.0271687
 395	1	1	-0.357291	7.95622	3.00425	-1.96176
 396	1	3	0.733725	5.54566	2.47232	-1.39713
 397	1	2	0.091627	8.05154	2.01926	-2.43691
 398	1	2	0.097893	8.95654	3.3264	-1.67796
 399	1	2	0.10238	7.63348	3.67124	-2.76731
 400	1	4	-0.43098	4.62708	2.10496	-0.448392
 401	1	1	0.017514	3.37006	1.54816	-0.882399
 402	1	5	0.102507	2.87041	2.21565	-1.59821
 403	1	5	0.044787	2.70727	1.39345	-0.0224605
 404	1	5	0.053996	3.53714	0.578989	-1.37139
 405	1	6	-0.57928	5.28881	2.46727	-2.59241
 406	1	1	-0.064235	8.97502	0.882154	2.07772
 407	1	1	0.139042	8.8377	1.64607	0.706937
 408	1	2	0.015001	10.0472	0.655961	2.15815
 409	1	2	0.033313	8.78136	1.60935	2.87845
 410	1	1	-0.357291	9.57018	3.00166	1.04441
 411	1	3	0.733725	9.57212	0.858182	-0.433885
 412	1	2	0.091627	10.5999	2.81247	1.3784
 413	1	2	0.097893	9.08041	3.54454	1.86201
 414	1	2	0.10238	9.65792	3.68592	0.201797
 415	1	4	-0.43098	10.8348	1.31926	-0.700571
 416	1	1	0.017514	11.5811	0.715981	-1.77775
 417	1	5	0.102507	11.0046	0.744708	-2.71344
 418	1	5	0.044787	11.8091	-0.331931	-1.54364
 419	1	5	0.053996	12.524	1.25427	-1.93367
 420	1	6	-0.57928	9.04616	-0.00283162	-1.1209
 421	1	1	-0.064235	8.77706	-0.711426	3.95241
 422	1	1	0.139042	8.18857	-0.414864	2.51182
 423	1	2	0.015001	9.83963	-0.437763	3.94973
 424	1	2	0.033313	8.33824	0.0229099	4.63886
 425	1	1	-0.357291	8.4673	-1.57422	1.50752
 426	1	3	0.733725	6.65153	-0.142131	2.63185
 427	1	2	0.091627	8.03609	-2.5218	1.84586
 428	1	2	0.097893	9.54027	-1.71916	1.32793
 429	1	2	0.10238	7.97752	-1.38172	0.546755
 430	1	4	-0.43098	6.34818	0.848898	3.5305
 431	1	1	0.017514	4.96675	1.19154	3.76382
 432	1	5	0.102507	4.502	1.58109	2.84751
 433	1	5	0.044787	4.8967	1.95704	4.547
 434	1	5	0.053996	4.40225	0.308608	4.09243
 435	1	6	-0.57928	5.79593	-0.723351	1.98437
 436	1	1	-0.064235	9.30278	-1.82262	6.09394
 437	1	1	0.139042	8.72402	-2.11801	4.65165
 438	1	2	0.015001	10.309	-1.41066	5.93494
 439	1	2	0.033313	8.72898	-0.98851	6.52029
 440	1	1	-0.357291	7.24569	-2.62256	4.71233
 441	1	3	0.733725	9.6942	-3.06936	3.87894
 442	1	2	0.091627	7.19309	-3.65355	5.08059
 443	1	2	0.097893	6.62732	-1.98766	5.35982
 444	1	2	0.10238	6.77697	-2.64922	3.7226
 445	1	4	-0.43098	9.13294	-4.2637	3.52084
 446	1	1	0.017514	9.8871	-5.17583	2.6988
 447	1	5	0.102507	10.051	-4.7455	1.70168
 448	1	5	0.044787	9.34226	-6.12127	2.58819
 449	1	5	0.053996	10.8655	-5.38729	3.14562
 450	1	6	-0.57928	10.8376	-2.75987	3.5753
 451	1	1	-0.064235	10.3743	-2.19633	8.3169
 452	1	1	0.139042	9.42706	-2.88785	7.24656
 453	1	2	0.015001	10.0252	-1.16599	8.46405
 454	1	2	0.033313	11.3545	-2.08768	7.84262
 455	1	1	-0.357291	8.01789	-3.15523	7.87176
 456	1	3	0.733725	10.0656	-4.20461	6.70999
 457	1	2	0.091627	7.52627	-2.2227	8.17744
 458	1	2	0.097893	8.07883	-3.81078	8.74615
 459	1	2	0.10238	7.34778	-3.67419	7.18366
 460	1	4	-0.43098	11.3842	-4.05519	6.37572
 461	1	1	0.017514	12.1415	-5.20884	5.96452
 462	1	5	0.102507	11.6684	-5.70129	5.10674
 463	1	5	0.044787	12.205	-5.93375	6.78635
 464	1	5	0.053996	13.1587	-4.91004	5.68234
 465	1	6	-0.57928	9.46849	-5.26376	6.6054
 466	1	1	-0.064235	11.9452	-2.22418	10.3897
 467	1	1	0.139042	10.6239	-2.80922	9.74588
 468	1	2	0.015001	12.0086	-2.69865	11.3715
 469	1	2	0.033313	12.7921	-2.62149	9.81538
 470	1	1	-0.357291	10.8998	-4.34775	9.6324
 471	1	3	0.733725	9.40214	-2.55501	10.6913
 472	1	2	0.091627	11.7216	-4.56325	8.93906
 473	1	2	0.097893	10.0131	-4.90718	9.31169
 474	1	2	0.10238	11.1912	-4.76983	10.6042
 475	1	4	-0.43098	9.383	-3.39421	11.7721
 476	1	1	0.017514	8.2786	-3.32669	12.694
 477	1	5	0.102507	7.33512	-3.55177	12.1779
 478	1	5	0.044787	8.20527	-2.32431	13.1352
 479	1	5	0.053996	8.41802	-4.0565	13.5012
 480	1	6	-0.57928	8.53099	-1.72123	10.4964
 481	1	1	-0.064235	13.5752	-0.385237	11.3638
 482	1	1	0.139042	12.2117	-0.680935	10.6023
 483	1	2	0.015001	14.3988	-0.479911	10.644
 484	1	2	0.033313	13.5641	0.687651	11.5992
 485	1	1	-0.357291	11.0339	-0.0345102	11.3992
 486	1	3	0.733725	12.3858	0.0658224	9.23803
 487	1	2	0.091627	10.1701	0.144905	10.7473
 488	1	2	0.097893	11.3112	0.94977	11.7994
 489	1	2	0.10238	10.6945	-0.65617	12.2349
 490	1	4	-0.43098	13.2715	-0.559577	8.39758
 491	1	1	0.017514	13.6671	0.0966033	7.17563
 492	1	5	0.102507	12.7921	0.457599	6.6178
 493	1	5	0.044787	14.2257	-0.599661	6.53771
 494	1	5	0.053996	14.3134	0.955165	7.40169
 495	1	6	-0.57928	11.8854	1.14691	8.97458
 496	1	1	-0.064235	15.1416	-0.238001	13.3563
 497	1	1	0.139042	14.0514	-1.15912	12.6569
 498	1	2	0.015001	14.6348	0.687366	13.6299
 499	1	2	0.033313	15.8638	0.066811	12.5866
 500	1	1	-0.357291	14.7358	-2.49696	12.2099
 501	1	3	0.733725	12.8542	-1.41453	13.623
 502	1	2	0.091627	15.6878	-2.31179	11.695
 503	1	2	0.097893	14.1252	-3.09331	11.5323
 504	1	2	0.10238	14.9174	-3.15328	13.0672
 505	1	4	-0.43098	12.3777	-0.263353	14.19
 506	1	1	0.017514	11.3435	-0.3456	15.1898
 507	1	5	0.102507	11.0808	0.659585	15.5444
 508	1	5	0.044787	11.6913	-0.935564	16.0482
 509	1	5	0.053996	10.4438	-0.822228	14.7796
 510	1	6	-0.57928	12.4147	-2.52162	13.892
 511	1	1	-0.064235	16.9349	0.405137	15.1655
 512	1	1	0.139042	15.9765	-0.731413	14.6075
 513	1	2	0.015001	17.6475	-0.113057	15.8219
 514	1	2	0.033313	17.5396	0.743686	14.3126
 515	1	1	-0.357291	15.0403	-1.27057	15.7355
 516	1	3	0.733725	16.9901	-1.82922	14.1277
 517	1	2	0.091627	15.5939	-1.42138	16.6712
 518	1	2	0.097893	14.5977	-2.24071	15.4763
 519	1	2	0.10238	14.2055	-0.592544	15.928
 520	1	4	-0.43098	16.7948	-3.0634	14.6952
 521	1	1	0.017514	17.656	-4.17048	14.3611
 522	1	5	0.102507	18.0697	-4.07382	13.3475
 523	1	5	0.044787	17.0851	-5.10661	14.4081
 524	1	5	0.053996	18.4857	-4.23371	15.0762
 525	1	6	-0.57928	17.8631	-1.61679	13.3007
 526	1	1	-0.064235	17.8663	2.47159	16.2455
 527	1	1	0.139042	16.499	1.7159	15.9457
 528	1	2	0.015001	18.2999	2.74645	15.275
 529	1	2	0.033313	18.5726	1.72516	16.6334
 530	1	1	-0.357291	15.812	1.38362	17.3081
 531	1	3	0.733725	15.5614	2.58041	15.0448
 532	1	2	0.091627	16.4336	0.739181	17.9418
 533	1	2	0.097893	14.8364	0.914374	17.1832
 534	1	2	0.10238	15.571	2.29314	17.8662
 535	1	4	-0.43098	16.2337	3.26517	14.0669
 536	1	1	0.017514	15.5076	4.19375	13.2366
 537	1	5	0.102507	14.6902	3.68783	12.7051
 538	1	5	0.044787	16.1819	4.64536	12.4982
 539	1	5	0.053996	15.0781	4.99728	13.8503
 540	1	6	-0.57928	14.3529	2.66248	15.1927
 541	1	1	-0.064235	16.8723	4.79486	16.9767
 542	1	1	0.139042	18.0098	3.71994	17.2138
 543	1	2	0.015001	17.0732	5.23129	15.9891
 544	1	2	0.033313	15.9255	4.27464	16.8374
 545	1	1	-0.357291	19.3814	4.36192	16.7811
 546	1	3	0.733725	18.1048	3.20916	18.6933
 547	1	2	0.091627	19.3106	4.8629	15.8069
 548	1	2	0.097893	20.1634	3.5953	16.6898
 549	1	2	0.10238	19.7636	5.08541	17.5064
 550	1	4	-0.43098	19.3765	2.85187	19.0586
 551	1	1	0.017514	19.6169	2.38879	20.4033
 552	1	5	0.102507	19.2809	3.13423	21.1379
 553	1	5	0.044787	20.6883	2.20849	20.5542
 554	1	5	0.053996	19.0743	1.45231	20.5864
 555	1	6	-0.57928	17.1793	3.1579	19.4839
 556	1	1	-0.064235	15.8173	7.07012	17.1082
 557	1	1	0.139042	16.5541	5.97951	17.9868
 558	1	2	0.015001	15.158	6.53372	16.4113
 559	1	2	0.033313	16.5892	7.50786	16.4597
 560	1	1	-0.357291	17.881	6.58489	18.5595
 561	1	3	0.733725	15.5989	5.44581	19.1026
 562	1	2	0.091627	17.6999	7.40938	19.2531
 563	1	2	0.097893	18.5266	6.96963	17.7604
 564	1	2	0.10238	18.4381	5.84563	19.1454
 565	1	4	-0.43098	15.8908	5.93699	20.3478
 566	1	1	0.017514	15.0816	5.53252	21.4664
 567	1	5	0.102507	15.1577	4.44699	21.6185
 568	1	5	0.044787	14.0288	5.79034	21.2922
 569	1	5	0.053996	15.4203	6.04202	22.3769
 570	1	6	-0.57928	14.6325	4.73067	18.8801
 571	1	1	-0.064235	13.5242	7.76067	18.0933
 572	1	1	0.139042	14.9546	8.27119	17.6767
 573	1	2	0.015001	13.6303	6.98502	18.8509
 574	1	2	0.033313	13.1063	7.24174	17.2202
 575	1	1	-0.357291	15.6542	8.98967	18.8733
 576	1	3	0.733725	14.7911	9.21205	16.436
 577	1	2	0.091627	15.6851	8.36902	19.7742
 578	1	2	0.097893	16.6779	9.28436	18.6096
 579	1	2	0.10238	15.1352	9.91536	19.1471
 580	1	4	-0.43098	15.3577	10.4514	16.5882
 581	1	1	0.017514	15.2733	11.398	15.5051
 582	1	5	0.102507	14.2399	11.4806	15.1403
 583	1	5	0.044787	15.9135	11.0817	14.6718
 584	1	5	0.053996	15.6021	12.3881	15.8445
 585	1	6	-0.57928	14.2222	8.8727	15.4095
 586	1	1	-0.064235	11.0468	8.04634	18.3869
 587	1	1	0.139042	12.4201	8.72913	18.6588
 588	1	2	0.015001	10.2302	8.58207	18.8874
 589	1	2	0.033313	10.8233	8.02459	17.3122
 590	1	1	-0.357291	12.3463	10.1149	17.9417
 591	1	3	0.733725	12.597	8.91677	20.2009
 592	1	2	0.091627	13.2434	10.7186	18.1189
 593	1	2	0.097893	11.5041	10.7002	18.3339
 594	1	2	0.10238	12.1947	10.008	16.8598
 595	1	4	-0.43098	12.0772	7.8794	20.9331
 596	1	1	0.017514	12.0543	7.97048	22.3704
 597	1	5	0.102507	11.4854	8.85488	22.6897
 598	1	5	0.044787	13.0739	8.04719	22.7685
 599	1	5	0.053996	11.5761	7.07841	22.7945
 600	1	6	-0.57928	13.0806	9.90947	20.7206
 601	1	2	0	-14.7402	-13.1909	5.01313
 602	1	2	0	11.0364	7.00662	18.74

Velocities

   1	-9.34746e-05	0.000451028	-2.12671e-05
   2	0.000152181	0.000400973	-2.12332e-05
   3	8.14896e-05	0.000815935	-0.000278429
   4	6.03392e-05	0.000463937	-0.000145185
   5	-0.000201926	0.000772981	0.000410387
   6	-0.000278048	0.00097958	0.000887263
   7	-0.000168462	0.000861833	0.000267371
   8	-0.000215095	0.000752976	0.000302395
   9	-3.38729e-05	0.000614536	0.000382567
  10	0.000194022	0.000476177	0.000150997
  11	4.88548e-06	0.000734226	0.000145298
  12	0.0010352	0.000268548	-5.48865e-05
  13	-0.00051373	1.45028e-05	-0.0005561
  14	-0.000110414	0.00144874	0.000603661
  15	0.00116857	0.00107016	-0.00027479
  16	0.000568787	-5.88127e-05	-0.000101807
  17	-0.000115942	5.03202e-05	-0.000141898
  18	0.000808746	-0.000316407	0.00043762
  19	0.00112108	0.00011134	-0.00046679
  20	0.000289632	-8.21192e-05	-0.000291418
  21	-0.000491674	-0.000330098	-0.000751236
  22	0.000512563	-0.00012127	-0.000379298
  23	0.000186323	-0.000239185	-0.000193596
  24	0.000293295	0.000123391	-0.000399912
  25	-0.000214735	-0.000184282	-0.000352869
  26	-8.70705e-05	-0.000272946	-0.000134512
  27	-0.000306299	-0.000205426	-0.000297749
  28	0.000195953	-0.000842244	0.000140352
  29	0.000217927	0.000253864	0.000239509
  30	-0.00162412	-0.00160232	-0.000319916
  31	-2.62433e-05	-5.63347e-05	-0.000188276
  32	0.000270992	1.16844e-05	-0.000185242
  33	-4.07634e-05	-0.000280189	-0.000194535
  34	3.42597e-05	6.48762e-05	-0.000188132
  35	0.00030568	-0.00025408	2.281e-05
  36	0.000144045	0.000111087	-0.000202352
  37	0.000551536	-5.52835e-05	0.000349639
  38	0.000183785	-0.000545932	0.000187833
  39	0.000202938	-0.00020592	-0.000102981
  40	0.000257832	-0.00027865	-0.000236869
  41	0.000197244	0.000174801	-0.000251158
  42	-0.000159718	0.00042333	-0.0005052
  43	0.000542995	0.000437147	-0.000153908
  44	0.000161419	7.53895e-05	-0.00031032
  45	0.000358397	0.000766179	-0.000210427
  46	-0.000131725	-0.000249498	-0.000279728
  47	-0.000272474	-5.99708e-06	-0.000193398
  48	2.80971e-05	-0.000336112	-0.000450648
  49	-0.000214965	-0.000414835	-0.00024807
  50	-0.000514985	-0.000247029	-0.000238782
  51	-0.00045342	0.000123747	0.000219071
  52	-0.000486867	-0.000106414	-0.000403881
  53	-0.000490644	-0.000334635	1.32698e-05
  54	-0.000694698	-0.000433117	-0.00037035