pySIMM System Object

482 atoms
481 bonds
896 angles
1207 dihedrals
32 impropers

6 atom types
7 bond types
11 angle types
9 dihedral types
1 improper types

-108.826169 108.826169 xlo xhi
-108.826169 108.826169 ylo yhi
-108.826169 108.826169 zlo zhi

Masses

   1	12.01	# c3
   2	1.008	# hc
   3	12.01	# c
   4	16.0	# os
   5	1.008	# h1
   6	16.0	# o

Pair Coeffs

   1	0.1094	3.3996695084235347	# c3
   2	0.0157	2.649532787749369	# hc
   3	0.086	3.3996695084235347	# c
   4	0.17	3.0000123434657784	# os
   5	0.0157	2.471353044121301	# h1
   6	0.21	2.959921901149463	# o

Bond Coeffs

   1	300.9	1.5375	# c3,c3
   2	330.6	1.0969	# c3,hc
   3	637.7	1.2183	# c,o
   4	330.6	1.0969	# c3,h1
   5	308.6	1.4316	# c3,os
   6	313.0	1.5241	# c,c3
   7	390.8	1.3584	# c,os

Angle Coeffs

   1	46.93	108.77	# c,c3,hc
   2	67.4	123.2	# c3,c,o
   3	75.32	123.25	# o,c,os
   4	39.24	108.46	# h1,c3,h1
   5	63.27	111.04	# c,c3,c3
   6	46.34	109.8	# c3,c3,hc
   7	50.8	109.78	# h1,c3,os
   8	63.28	115.98	# c,os,c3
   9	62.86	111.51	# c3,c3,c3
  10	39.4	107.58	# hc,c3,hc
  11	68.89	110.72	# c3,c,os

Dihedral Coeffs

   1	1	0.3833333333333333	3	0	# X,c3,os,X
   2	1	0.0	2	180	# X,c,c3,X
   3	1	0.15	3	0	# hc,c3,c3,hc
   4	3	0.8	1	0	0.0	2	0	0.08	3	180	# hc,c3,c,o
   5	3	2.7	2	180	0.0	1	0	1.15	3	0	# c3,c,os,c3
   6	1	0.16	3	0	# hc,c3,c3,c3
   7	2	2.7	2	180	1.4	1	180	# o,c,os,c3
   8	1	0.15555555555555556	3	0	# X,c3,c3,X
   9	3	0.18	3	0	0.25	2	180	0.2	1	180	# c3,c3,c3,c3

Improper Coeffs

   1	10.5	-1	2	# c,X,X,o

Atoms

   1	1	1	-0.064235	8.31408	-13.5189	4.29281
   2	1	1	0.139042	8.97164	-14.9402	4.31804
   3	1	2	0.015001	9.04255	-12.7908	3.91191
   4	1	2	0.033313	8.12389	-13.207	5.32913
   5	1	1	-0.357291	8.87557	-15.5846	5.72954
   6	1	3	0.733725	10.4103	-14.9474	3.7523
   7	1	2	0.091627	9.44656	-15.0071	6.46852
   8	1	2	0.097893	9.27792	-16.6059	5.71288
   9	1	2	0.10238	7.8325	-15.64	6.06755
  10	1	4	-0.43098	11.2659	-14.1337	4.44505
  11	1	1	0.017514	12.6539	-14.1119	4.05363
  12	1	5	0.102507	13.1202	-15.0874	4.24737
  13	1	5	0.044787	13.1966	-13.345	4.61949
  14	1	5	0.053996	12.7512	-13.8897	2.98237
  15	1	6	-0.57928	10.7549	-15.6414	2.80915
  16	1	1	-0.064235	6.43779	-11.9224	3.78117
  17	1	1	0.139042	6.98557	-13.3744	3.46804
  18	1	2	0.015001	6.23459	-11.9159	4.85476
  19	1	2	0.033313	7.2916	-11.2485	3.64259
  20	1	1	-0.357291	7.3583	-13.5372	1.95751
  21	1	3	0.733725	6.00443	-14.4721	3.99004
  22	1	2	0.091627	7.927	-12.6733	1.59037
  23	1	2	0.097893	6.46403	-13.6636	1.33822
  24	1	2	0.10238	7.9708	-14.4291	1.77706
  25	1	4	-0.43098	6.02812	-15.6149	3.23342
  26	1	1	0.017514	5.27545	-16.7723	3.64005
  27	1	5	0.102507	5.5497	-17.074	4.65998
  28	1	5	0.044787	5.48826	-17.6084	2.96153
  29	1	5	0.053996	4.19927	-16.5638	3.61147
  30	1	6	-0.57928	5.368	-14.3749	5.02972
  31	1	1	-0.064235	4.94256	-9.78267	3.70384
  32	1	1	0.139042	5.21955	-11.2115	3.05447
  33	1	2	0.015001	4.02799	-9.40794	3.23038
  34	1	2	0.033313	5.7312	-9.10288	3.35584
  35	1	1	-0.357291	5.60278	-10.871	1.57411
  36	1	3	0.733725	3.90455	-12.0629	3.03248
  37	1	2	0.091627	4.87392	-10.1776	1.13247
  38	1	2	0.097893	5.60635	-11.7493	0.923168
  39	1	2	0.10238	6.58921	-10.393	1.51115
  40	1	4	-0.43098	4.06386	-13.2726	2.4155
  41	1	1	0.017514	2.95342	-14.1925	2.38676
  42	1	5	0.102507	2.67752	-14.4836	3.41038
  43	1	5	0.044787	3.22738	-15.097	1.82994
  44	1	5	0.053996	2.07857	-13.735	1.90694
  45	1	6	-0.57928	2.79549	-11.6474	3.32868
  46	1	1	-0.064235	4.05286	-8.16336	5.55265
  47	1	1	0.139042	4.79525	-9.53711	5.26314
  48	1	2	0.015001	3.01403	-8.28004	5.21589
  49	1	2	0.033313	3.96957	-8.0793	6.64475
  50	1	1	-0.357291	3.86976	-10.621	5.91581
  51	1	3	0.733725	6.18644	-9.55221	5.98181
  52	1	2	0.091627	2.8523	-10.5758	5.50898
  53	1	2	0.097893	3.76648	-10.4618	6.99691
  54	1	2	0.10238	4.24538	-11.6416	5.78419
  55	1	4	-0.43098	6.08401	-9.56688	7.34812
  56	1	1	0.017514	7.28906	-9.60314	8.13778
  57	1	5	0.102507	7.88903	-10.4884	7.88509
  58	1	5	0.044787	7.03919	-9.64284	9.2051
  59	1	5	0.053996	7.89572	-8.70715	7.95204
  60	1	6	-0.57928	7.26915	-9.54334	5.41662
  61	1	1	-0.064235	3.64163	-5.66627	5.73573
  62	1	1	0.139042	4.55833	-6.75405	5.02643
  63	1	2	0.015001	2.62091	-6.06756	5.78982
  64	1	2	0.033313	3.9744	-5.64386	6.78142
  65	1	1	-0.357291	6.04455	-6.56739	5.48618
  66	1	3	0.733725	4.43374	-6.66374	3.47594
  67	1	2	0.091627	6.17643	-6.79795	6.55078
  68	1	2	0.097893	6.42962	-5.56204	5.32499
  69	1	2	0.10238	6.71664	-7.20109	4.89737
  70	1	4	-0.43098	3.18284	-6.98949	3.0284
  71	1	1	0.017514	2.93589	-6.9562	1.60896
  72	1	5	0.102507	3.07193	-5.93603	1.22757
  73	1	5	0.044787	1.91162	-7.28061	1.39297
  74	1	5	0.053996	3.62996	-7.6182	1.07547
  75	1	6	-0.57928	5.36383	-6.39022	2.73416
  76	1	1	-0.064235	2.77041	-3.34992	6.39666
  77	1	1	0.139042	3.50268	-4.1629	5.23337
  78	1	2	0.015001	1.71344	-3.6153	6.36613
  79	1	2	0.033313	3.08921	-3.76856	7.35878
  80	1	1	-0.357291	4.90627	-3.55606	4.92952
  81	1	3	0.733725	2.62833	-4.13087	3.93313
  82	1	2	0.091627	5.39727	-4.08941	4.10663
  83	1	2	0.097893	5.56018	-3.58751	5.80852
  84	1	2	0.10238	4.8362	-2.52287	4.57496
  85	1	4	-0.43098	1.3263	-4.50296	4.14656
  86	1	1	0.017514	0.403478	-4.47183	3.04058
  87	1	5	0.102507	0.73319	-5.14838	2.24073
  88	1	5	0.044787	0.336691	-3.4554	2.63071
  89	1	5	0.053996	-0.595249	-4.7785	3.3752
  90	1	6	-0.57928	3.06455	-3.84683	2.82606
  91	1	1	-0.064235	1.83802	-1.14884	7.54181
  92	1	1	0.139042	2.90331	-1.77733	6.55868
  93	1	2	0.015001	2.15699	-1.34132	8.57447
  94	1	2	0.033313	1.96856	-0.0746211	7.40561
  95	1	1	-0.357291	4.27004	-1.47293	7.28059
  96	1	3	0.733725	2.81431	-0.987577	5.21197
  97	1	2	0.091627	4.43188	-2.13234	8.14348
  98	1	2	0.097893	4.29817	-0.442503	7.66128
  99	1	2	0.10238	5.13397	-1.56156	6.61685
 100	1	4	-0.43098	3.48105	0.210311	5.25855
 101	1	1	0.017514	3.47118	1.07147	4.10398
 102	1	5	0.102507	3.86257	0.542724	3.22397
 103	1	5	0.044787	4.09711	1.9534	4.28939
 104	1	5	0.053996	2.44927	1.40781	3.88578
 105	1	6	-0.57928	2.17711	-1.33545	4.23471
 106	1	1	-0.064235	-0.494582	-0.173961	8.07241
 107	1	1	0.139042	0.284889	-1.41811	7.47804
 108	1	2	0.015001	-1.55292	-0.449421	8.07766
 109	1	2	0.033313	-0.418883	0.619446	7.3271
 110	1	1	-0.357291	-0.242439	-1.53022	6.01063
 111	1	3	0.733725	-0.08867	-2.7231	8.25549
 112	1	2	0.091627	-1.33418	-1.64707	5.99712
 113	1	2	0.097893	0.160517	-2.39849	5.48006
 114	1	2	0.10238	-0.0110481	-0.632785	5.42303
 115	1	4	-0.43098	-1.44359	-2.90092	8.36775
 116	1	1	0.017514	-1.95518	-4.01241	9.12814
 117	1	5	0.102507	-3.05152	-3.9712	9.16704
 118	1	5	0.044787	-1.57147	-3.98151	10.1566
 119	1	5	0.053996	-1.65571	-4.96335	8.66938
 120	1	6	-0.57928	0.722299	-3.48429	8.76105
 121	1	1	-0.064235	-1.29687	1.45917	9.981
 122	1	1	0.139042	-0.175683	0.454354	9.48834
 123	1	2	0.015001	-0.834912	2.07373	10.7664
 124	1	2	0.033313	-2.04358	0.866636	10.5279
 125	1	1	-0.357291	-0.159082	-0.689739	10.5568
 126	1	3	0.733725	1.18922	1.22056	9.56603
 127	1	2	0.091627	0.704821	-1.35387	10.4339
 128	1	2	0.097893	-1.07494	-1.29399	10.5241
 129	1	2	0.10238	-0.0784823	-0.274811	11.5714
 130	1	4	-0.43098	1.45214	2.01874	8.48817
 131	1	1	0.017514	2.63136	2.84862	8.50255
 132	1	5	0.102507	3.53754	2.23732	8.61159
 133	1	5	0.044787	2.58638	3.55599	9.34164
 134	1	5	0.053996	2.70274	3.42122	7.56968
 135	1	6	-0.57928	1.93368	1.17812	10.5333
 136	1	1	-0.064235	-2.85581	3.41203	10.0363
 137	1	1	0.139042	-2.12913	2.42514	9.0351
 138	1	2	0.015001	-3.12966	2.84	10.9335
 139	1	2	0.033313	-2.07049	4.09015	10.3959
 140	1	1	-0.357291	-1.19091	3.28484	8.11892
 141	1	3	0.733725	-3.14423	1.55	8.23521
 142	1	2	0.091627	-0.628465	2.68348	7.40448
 143	1	2	0.097893	-0.472382	3.8691	8.70842
 144	1	2	0.10238	-1.74762	3.978	7.48638
 145	1	4	-0.43098	-3.03577	1.68215	6.87527
 146	1	1	0.017514	-3.79219	0.794468	6.02721
 147	1	5	0.102507	-4.86677	0.867748	6.24281
 148	1	5	0.044787	-3.47678	-0.244753	6.19103
 149	1	5	0.053996	-3.62489	1.04411	4.97207
 150	1	6	-0.57928	-3.88367	0.728892	8.75596
 151	1	1	-0.064235	-3.96219	5.13451	8.37503
 152	1	1	0.139042	-4.1322	4.28547	9.69549
 153	1	2	0.015001	-4.01928	4.42726	7.53845
 154	1	2	0.033313	-2.93425	5.5123	8.36517
 155	1	1	-0.357291	-5.35309	3.30213	9.5626
 156	1	3	0.733725	-4.24673	5.25468	10.92
 157	1	2	0.091627	-6.32085	3.77418	9.74908
 158	1	2	0.097893	-5.28815	2.48474	10.2931
 159	1	2	0.10238	-5.41807	2.8553	8.5644
 160	1	4	-0.43098	-5.42805	5.17125	11.6048
 161	1	1	0.017514	-5.64854	6.07025	12.7096
 162	1	5	0.102507	-5.54949	7.11524	12.3808
 163	1	5	0.044787	-4.9165	5.88367	13.5061
 164	1	5	0.053996	-6.65619	5.92715	13.1184
 165	1	6	-0.57928	-3.3533	6.02532	11.239
 166	1	1	-0.064235	-4.68762	6.7162	6.50684
 167	1	1	0.139042	-4.89429	6.37975	8.04679
 168	1	2	0.015001	-3.65322	7.06219	6.38365
 169	1	2	0.033313	-4.71386	5.77303	5.94703
 170	1	1	-0.357291	-6.38976	6.04019	8.33792
 171	1	3	0.733725	-4.45044	7.59437	8.92914
 172	1	2	0.091627	-6.74447	5.18235	7.75316
 173	1	2	0.097893	-7.04234	6.89836	8.15116
 174	1	2	0.10238	-6.55513	5.8423	9.40003
 175	1	4	-0.43098	-3.14928	7.96081	8.71346
 176	1	1	0.017514	-2.57191	8.97848	9.55355
 177	1	5	0.102507	-2.5975	8.66145	10.6062
 178	1	5	0.044787	-3.1288	9.91953	9.45762
 179	1	5	0.053996	-1.52789	9.15677	9.2685
 180	1	6	-0.57928	-5.1648	8.12741	9.76636
 181	1	1	-0.064235	-5.05594	7.91385	4.27343
 182	1	1	0.139042	-5.63166	7.73143	5.73868
 183	1	2	0.015001	-3.96801	8.04222	4.33825
 184	1	2	0.033313	-5.18654	6.95031	3.77325
 185	1	1	-0.357291	-5.63401	9.09391	6.50832
 186	1	3	0.733725	-7.06172	7.11101	5.61164
 187	1	2	0.091627	-6.14659	9.00873	7.47347
 188	1	2	0.097893	-6.16505	9.88657	5.97723
 189	1	2	0.10238	-4.61183	9.4535	6.6881
 190	1	4	-0.43098	-7.04895	5.86569	5.0366
 191	1	1	0.017514	-8.29074	5.16054	4.84882
 192	1	5	0.102507	-8.80451	5.01785	5.80945
 193	1	5	0.044787	-8.09906	4.17615	4.40372
 194	1	5	0.053996	-8.95346	5.72347	4.17877
 195	1	6	-0.57928	-8.09042	7.6489	5.9916
 196	1	1	-0.064235	-5.41802	8.66451	1.78164
 197	1	1	0.139042	-5.61673	9.03219	3.30249
 198	1	2	0.015001	-6.11996	7.85422	1.5458
 199	1	2	0.033313	-5.77631	9.54882	1.25245
 200	1	1	-0.357291	-7.17921	9.15888	3.40553
 201	1	3	0.733725	-4.95346	10.4183	3.59841
 202	1	2	0.091627	-7.57597	9.84085	2.64111
 203	1	2	0.097893	-7.5191	9.56624	4.36211
 204	1	2	0.10238	-7.67804	8.19488	3.24199
 205	1	4	-0.43098	-5.58392	11.4489	2.94749
 206	1	1	0.017514	-5.11036	12.7985	3.12161
 207	1	5	0.102507	-4.07389	12.8951	2.77177
 208	1	5	0.044787	-5.15	13.0846	4.18078
 209	1	5	0.053996	-5.73999	13.4934	2.55124
 210	1	6	-0.57928	-3.95642	10.5854	4.2829
 211	1	1	-0.064235	-4.26944	7.96922	-0.449006
 212	1	1	0.139042	-4.05457	8.28447	1.10193
 213	1	2	0.015001	-3.28969	7.6544	-0.829003
 214	1	2	0.033313	-4.90528	7.07918	-0.508164
 215	1	1	-0.357291	-3.01329	9.42897	1.3267
 216	1	3	0.733725	-3.49702	6.9517	1.70215
 217	1	2	0.091627	-2.6126	9.3983	2.34895
 218	1	2	0.097893	-3.43933	10.4271	1.19393
 219	1	2	0.10238	-2.15205	9.31752	0.655446
 220	1	4	-0.43098	-4.37859	5.90785	1.58964
 221	1	1	0.017514	-3.98389	4.60187	2.04965
 222	1	5	0.102507	-3.72531	4.62667	3.11693
 223	1	5	0.044787	-3.11003	4.25001	1.48557
 224	1	5	0.053996	-4.80436	3.88882	1.90216
 225	1	6	-0.57928	-2.40386	6.83174	2.2337
 226	1	1	-0.064235	-4.83644	8.39978	-2.98891
 227	1	1	0.139042	-4.8664	8.98272	-1.51029
 228	1	2	0.015001	-3.78889	8.35919	-3.3157
 229	1	2	0.033313	-5.28371	9.18957	-3.58248
 230	1	1	-0.357291	-3.92674	10.2337	-1.60263
 231	1	3	0.733725	-6.33021	9.41408	-1.15191
 232	1	2	0.091627	-2.87352	9.93463	-1.67013
 233	1	2	0.097893	-4.05143	10.9076	-0.751386
 234	1	2	0.10238	-4.15245	10.8393	-2.49102
 235	1	4	-0.43098	-6.59994	10.7308	-1.41805
 236	1	1	0.017514	-7.85782	11.2814	-0.973297
 237	1	5	0.102507	-8.70158	10.7047	-1.37654
 238	1	5	0.044787	-7.954	12.3236	-1.30078
 239	1	5	0.053996	-7.9155	11.2556	0.123729
 240	1	6	-0.57928	-7.15707	8.69162	-0.61809
 241	1	1	-0.064235	-5.37233	6.82507	-5.02487
 242	1	1	0.139042	-5.51138	7.04199	-3.45023
 243	1	2	0.015001	-5.64931	5.77213	-5.1732
 244	1	2	0.033313	-4.30128	6.84979	-5.25405
 245	1	1	-0.357291	-7.00145	6.96049	-2.98745
 246	1	3	0.733725	-4.72521	5.82357	-2.85298
 247	1	2	0.091627	-7.53314	7.91053	-3.09451
 248	1	2	0.097893	-7.55196	6.18503	-3.53343
 249	1	2	0.10238	-7.06727	6.6638	-1.93336
 250	1	4	-0.43098	-5.50698	4.70281	-2.71925
 251	1	1	0.017514	-4.92467	3.47548	-2.24282
 252	1	5	0.102507	-4.17827	3.10361	-2.95795
 253	1	5	0.044787	-5.70553	2.71345	-2.12417
 254	1	5	0.053996	-4.43641	3.62983	-1.27183
 255	1	6	-0.57928	-3.53851	5.83246	-2.56552
 256	1	1	-0.064235	-5.8068	9.1287	-6.36556
 257	1	1	0.139042	-6.15131	7.59895	-6.18871
 258	1	2	0.015001	-5.94924	9.62074	-5.4065
 259	1	2	0.033313	-6.63226	9.55732	-6.95118
 260	1	1	-0.357291	-7.69533	7.55905	-5.92083
 261	1	3	0.733725	-5.95535	6.85936	-7.55875
 262	1	2	0.091627	-8.0384	6.5396	-5.70401
 263	1	2	0.097893	-8.26157	7.89106	-6.80251
 264	1	2	0.10238	-8.00175	8.23126	-5.11649
 265	1	4	-0.43098	-4.94758	5.93233	-7.57023
 266	1	1	0.017514	-4.75548	5.13185	-8.7527
 267	1	5	0.102507	-4.57756	5.77309	-9.62727
 268	1	5	0.044787	-5.64755	4.52072	-8.9456
 269	1	5	0.053996	-3.89686	4.46148	-8.62072
 270	1	6	-0.57928	-6.68511	7.04585	-8.52231
 271	1	1	-0.064235	-3.16205	8.92888	-6.72623
 272	1	1	0.139042	-4.50248	9.69439	-7.06415
 273	1	2	0.015001	-3.23753	7.93025	-7.17018
 274	1	2	0.033313	-3.16387	8.75884	-5.64723
 275	1	1	-0.357291	-4.3995	11.1627	-6.51738
 276	1	3	0.733725	-4.76476	9.6672	-8.60726
 277	1	2	0.091627	-4.11904	11.1756	-5.45625
 278	1	2	0.097893	-5.36344	11.6832	-6.59991
 279	1	2	0.10238	-3.67963	11.7732	-7.07342
 280	1	4	-0.43098	-5.32995	10.8264	-9.06898
 281	1	1	0.017514	-5.59265	10.9705	-10.4768
 282	1	5	0.102507	-4.67545	10.8105	-11.0601
 283	1	5	0.044787	-5.96743	11.9804	-10.685
 284	1	5	0.053996	-6.34614	10.2413	-10.8014
 285	1	6	-0.57928	-4.43762	8.74963	-9.34408
 286	1	1	-0.064235	-0.616842	8.43457	-7.18356
 287	1	1	0.139042	-1.7484	9.55535	-7.13369
 288	1	2	0.015001	-1.11731	7.49709	-7.43497
 289	1	2	0.033313	0.0210208	8.6308	-8.05555
 290	1	1	-0.357291	-1.77902	10.0926	-8.60963
 291	1	3	0.733725	-1.3822	10.7466	-6.19063
 292	1	2	0.091627	-1.99839	9.29252	-9.32832
 293	1	2	0.097893	-0.804196	10.5139	-8.89206
 294	1	2	0.10238	-2.49226	10.9095	-8.75559
 295	1	4	-0.43098	-1.59353	10.4915	-4.85941
 296	1	1	0.017514	-1.27312	11.5215	-3.89858
 297	1	5	0.102507	-0.253339	11.9016	-4.05428
 298	1	5	0.044787	-1.33522	11.123	-2.87973
 299	1	5	0.053996	-1.96972	12.3642	-3.99385
 300	1	6	-0.57928	-0.917221	11.8073	-6.58066
 301	1	1	-0.064235	1.45588	7.06174	-6.48961
 302	1	1	0.139042	0.396922	8.14038	-6.01111
 303	1	2	0.015001	2.30827	7.12812	-5.8021
 304	1	2	0.033313	1.84659	7.44205	-7.43305
 305	1	1	-0.357291	1.2998	9.40536	-5.74854
 306	1	3	0.733725	-0.363239	7.68958	-4.73202
 307	1	2	0.091627	1.61895	9.88038	-6.68578
 308	1	2	0.097893	2.20878	9.15243	-5.18701
 309	1	2	0.10238	0.822828	10.1611	-5.12705
 310	1	4	-0.43098	0.371918	7.83763	-3.58655
 311	1	1	0.017514	-0.191115	7.37206	-2.3429
 312	1	5	0.102507	-0.272219	6.27599	-2.3435
 313	1	5	0.044787	-1.19459	7.7904	-2.19084
 314	1	5	0.053996	0.445351	7.67635	-1.50285
 315	1	6	-0.57928	-1.48327	7.2069	-4.75183
 316	1	1	-0.064235	2.57422	4.82095	-7.04467
 317	1	1	0.139042	1.19882	5.50704	-6.641
 318	1	2	0.015001	2.52492	3.79582	-6.6804
 319	1	2	0.033313	3.34074	5.2682	-6.39979
 320	1	1	-0.357291	0.89902	4.91175	-5.21959
 321	1	3	0.733725	0.0310595	5.12634	-7.60975
 322	1	2	0.091627	0.92093	3.81354	-5.23632
 323	1	2	0.097893	1.62651	5.24669	-4.46867
 324	1	2	0.10238	-0.108278	5.15139	-4.86746
 325	1	4	-0.43098	0.0874701	5.77192	-8.81119
 326	1	1	0.017514	-0.954673	5.55733	-9.78548
 327	1	5	0.102507	-1.16515	4.48583	-9.90912
 328	1	5	0.044787	-0.64863	5.9634	-10.7577
 329	1	5	0.053996	-1.8781	6.06208	-9.47165
 330	1	6	-0.57928	-0.829178	4.29749	-7.35846
 331	1	1	-0.064235	4.71645	4.41526	-8.42422
 332	1	1	0.139042	3.17463	4.7639	-8.5172
 333	1	2	0.015001	5.12553	5.09501	-7.66436
 334	1	2	0.033313	5.19691	4.76452	-9.34834
 335	1	1	-0.357291	3.19499	6.18032	-9.19454
 336	1	3	0.733725	2.40971	3.75942	-9.43924
 337	1	2	0.091627	3.71181	6.14275	-10.1638
 338	1	2	0.097893	3.71752	6.92234	-8.57854
 339	1	2	0.10238	2.20207	6.56167	-9.43655
 340	1	4	-0.43098	1.86089	2.71701	-8.74401
 341	1	1	0.017514	1.08655	1.69432	-9.40108
 342	1	5	0.102507	0.0142833	1.90985	-9.30537
 343	1	5	0.044787	1.2859	0.724029	-8.92794
 344	1	5	0.053996	1.33858	1.61111	-10.4662
 345	1	6	-0.57928	2.34473	3.86145	-10.6545
 346	1	1	-0.064235	4.68474	2.20499	-6.95968
 347	1	1	0.139042	5.33789	2.98287	-8.16722
 348	1	2	0.015001	3.62624	2.09326	-7.18912
 349	1	2	0.033313	4.73129	2.86983	-6.08685
 350	1	1	-0.357291	5.21678	2.13881	-9.47957
 351	1	3	0.733725	6.81873	3.34372	-7.81434
 352	1	2	0.091627	4.22097	1.69358	-9.59343
 353	1	2	0.097893	5.95185	1.32444	-9.50108
 354	1	2	0.10238	5.40192	2.75126	-10.3727
 355	1	4	-0.43098	7.6832	3.24895	-8.87285
 356	1	1	0.017514	9.06412	3.61464	-8.67323
 357	1	5	0.102507	9.6363	3.47001	-9.5983
 358	1	5	0.044787	9.51304	2.99615	-7.88485
 359	1	5	0.053996	9.14333	4.66904	-8.37578
 360	1	6	-0.57928	7.15602	3.78875	-6.72637
 361	1	1	-0.064235	4.30346	0.460672	-5.19617
 362	1	1	0.139042	5.15194	0.757281	-6.5048
 363	1	2	0.015001	4.58738	1.22383	-4.45901
 364	1	2	0.033313	3.26963	0.696436	-5.453
 365	1	1	-0.357291	6.68247	0.762534	-6.17005
 366	1	3	0.733725	4.78332	-0.290721	-7.60292
 367	1	2	0.091627	7.2882	0.981855	-7.05585
 368	1	2	0.097893	7.04154	-0.216836	-5.84438
 369	1	2	0.10238	6.92906	1.49269	-5.38788
 370	1	4	-0.43098	5.85318	-1.05222	-8.00198
 371	1	1	0.017514	5.64659	-2.2649	-8.75486
 372	1	5	0.102507	4.91405	-2.12242	-9.55986
 373	1	5	0.044787	5.2844	-3.06173	-8.09192
 374	1	5	0.053996	6.59572	-2.59977	-9.19172
 375	1	6	-0.57928	3.6485	-0.464465	-8.01802
 376	1	1	-0.064235	3.35606	-0.83782	-3.14911
 377	1	1	0.139042	4.28867	-0.932997	-4.43522
 378	1	2	0.015001	3.80327	-1.48814	-2.40103
 379	1	2	0.033313	3.54104	0.160359	-2.72824
 380	1	1	-0.357291	3.8359	-2.11386	-5.34243
 381	1	3	0.733725	5.73232	-1.24729	-3.91799
 382	1	2	0.091627	4.57076	-2.33579	-6.11704
 383	1	2	0.097893	2.87286	-1.93551	-5.83481
 384	1	2	0.10238	3.78736	-3.04257	-4.76204
 385	1	4	-0.43098	6.14338	-0.43251	-2.89432
 386	1	1	0.017514	7.48691	-0.580213	-2.38408
 387	1	5	0.102507	7.77352	-1.63949	-2.30892
 388	1	5	0.044787	7.56505	-0.133029	-1.38566
 389	1	5	0.053996	8.19981	-0.077169	-3.05024
 390	1	6	-0.57928	6.43827	-2.14467	-4.35592
 391	1	1	-0.064235	1.16254	-2.48494	-3.4145
 392	1	1	0.139042	1.76701	-1.03181	-3.09534
 393	1	2	0.015001	0.231418	-2.32013	-3.97243
 394	1	2	0.033313	1.80133	-2.97316	-4.13448
 395	1	1	-0.357291	1.13843	-0.066488	-4.1557
 396	1	3	0.733725	1.3235	-0.539815	-1.67594
 397	1	2	0.091627	0.0442535	-0.0355285	-4.05965
 398	1	2	0.097893	1.35467	-0.378916	-5.18368
 399	1	2	0.10238	1.48969	0.964002	-4.01433
 400	1	4	-0.43098	2.14226	-0.987348	-0.67079
 401	1	1	0.017514	1.88258	-0.623924	0.701495
 402	1	5	0.102507	1.8492	0.467732	0.81549
 403	1	5	0.044787	2.67484	-1.02068	1.34941
 404	1	5	0.053996	0.924823	-1.03778	1.04101
 405	1	6	-0.57928	0.35745	0.179582	-1.46086
 406	1	1	-0.064235	0.0651142	-4.84534	-3.00554
 407	1	1	0.139042	0.763549	-3.58475	-2.33555
 408	1	2	0.015001	-0.126298	-5.52609	-2.18264
 409	1	2	0.033313	-0.938453	-4.53733	-3.32459
 410	1	1	-0.357291	-0.351287	-3.0217	-1.38564
 411	1	3	0.733725	1.94152	-4.09343	-1.45358
 412	1	2	0.091627	-0.939231	-3.82933	-0.929076
 413	1	2	0.097893	-1.05188	-2.36177	-1.9134
 414	1	2	0.10238	0.0677722	-2.47644	-0.535293
 415	1	4	-0.43098	3.16372	-3.65893	-1.86793
 416	1	1	0.017514	4.33746	-3.93659	-1.07939
 417	1	5	0.102507	5.17857	-3.32307	-1.42866
 418	1	5	0.044787	4.61806	-4.9932	-1.16256
 419	1	5	0.053996	4.15731	-3.69529	-0.0223641
 420	1	6	-0.57928	1.77203	-4.82738	-0.487837
 421	1	1	-0.064235	-0.140804	-6.98571	-4.55093
 422	1	1	0.139042	0.706863	-5.69193	-4.18127
 423	1	2	0.015001	-1.09508	-6.61798	-4.89653
 424	1	2	0.033313	0.292629	-7.36666	-5.48599
 425	1	1	-0.357291	2.17746	-6.10542	-3.86422
 426	1	3	0.733725	0.655489	-4.83913	-5.49473
 427	1	2	0.091627	2.56314	-6.78645	-4.63414
 428	1	2	0.097893	2.28588	-6.59816	-2.89328
 429	1	2	0.10238	2.8447	-5.23608	-3.86982
 430	1	4	-0.43098	-0.605358	-4.35619	-5.74289
 431	1	1	0.017514	-0.920242	-3.65739	-6.96287
 432	1	5	0.102507	-1.59284	-4.26979	-7.57926
 433	1	5	0.044787	-0.024399	-3.42553	-7.55217
 434	1	5	0.053996	-1.43274	-2.71679	-6.72665
 435	1	6	-0.57928	1.61318	-4.62547	-6.21813
 436	1	1	-0.064235	-1.84913	-8.89578	-3.67221
 437	1	1	0.139042	-0.38198	-8.24772	-3.60366
 438	1	2	0.015001	-1.7859	-9.83884	-4.22954
 439	1	2	0.033313	-2.06964	-9.25458	-2.66914
 440	1	1	-0.357291	0.565361	-9.37656	-4.14625
 441	1	3	0.733725	0.0147574	-8.02302	-2.10008
 442	1	2	0.091627	0.344265	-9.63786	-5.18967
 443	1	2	0.097893	1.62006	-9.07478	-4.09183
 444	1	2	0.10238	0.467033	-10.2924	-3.54607
 445	1	4	-0.43098	-1.01321	-7.58554	-1.30611
 446	1	1	0.017514	-0.768442	-7.41031	0.105432
 447	1	5	0.102507	-0.01358	-6.62918	0.270094
 448	1	5	0.044787	-0.401015	-8.34532	0.550217
 449	1	5	0.053996	-1.69282	-7.12235	0.620391
 450	1	6	-0.57928	1.10052	-8.32995	-1.63005
 451	1	1	-0.064235	-4.51261	-8.84824	-3.84688
 452	1	1	0.139042	-3.1342	-8.15289	-4.2373
 453	1	2	0.015001	-4.75599	-9.64577	-4.55568
 454	1	2	0.033313	-5.29461	-8.11076	-4.07275
 455	1	1	-0.357291	-3.25566	-6.6637	-3.72529
 456	1	3	0.733725	-3.03672	-8.23956	-5.80815
 457	1	2	0.091627	-3.298	-5.94519	-4.55454
 458	1	2	0.097893	-2.42199	-6.37295	-3.08271
 459	1	2	0.10238	-4.16376	-6.48077	-3.13778
 460	1	4	-0.43098	-3.19325	-9.52123	-6.27894
 461	1	1	0.017514	-3.13882	-9.81067	-7.68985
 462	1	5	0.102507	-3.64699	-9.03317	-8.27715
 463	1	5	0.044787	-3.63522	-10.7698	-7.8883
 464	1	5	0.053996	-2.09667	-9.88444	-8.02446
 465	1	6	-0.57928	-2.84796	-7.29555	-6.56176
 466	1	1	-0.064235	-4.1635	-8.74332	-1.20766
 467	1	1	0.139042	-4.80816	-9.47774	-2.4279
 468	1	2	0.015001	-4.91814	-8.44094	-0.470582
 469	1	2	0.033313	-3.45115	-9.38868	-0.677847
 470	1	1	-0.357291	-4.30097	-10.9637	-2.44518
 471	1	3	0.733725	-6.36069	-9.41356	-2.22024
 472	1	2	0.091627	-3.24002	-11.0572	-2.6898
 473	1	2	0.097893	-4.85135	-11.5564	-3.1885
 474	1	2	0.10238	-4.45706	-11.4429	-1.46991
 475	1	4	-0.43098	-6.93983	-10.6334	-1.97961
 476	1	1	0.017514	-8.36767	-10.7252	-1.81781
 477	1	5	0.102507	-8.8789	-10.4246	-2.74212
 478	1	5	0.044787	-8.70747	-10.0753	-1.00123
 479	1	5	0.053996	-8.65035	-11.7587	-1.58249
 480	1	6	-0.57928	-7.00751	-8.37756	-2.26302
 481	1	2	0	8.42428	-15.6099	3.65049
 482	1	2	0	-3.62467	-7.83837	-1.48169

Velocities

   1	0.000215994	-0.00043873	-0.00118306
   2	-3.91228e-05	-0.000635579	-0.000339696
   3	0.000366273	-0.000865517	-0.00189353
   4	0.000971764	0.000251364	-0.00131046
   5	0.000762777	0.000441574	0.000165723
   6	0.000423961	-0.000368213	7.88207e-05
   7	0.000859093	0.000756454	-0.000193486
   8	0.0012757	0.00058646	0.00113409
   9	0.00108482	0.000499456	0.00071813
  10	0.000240572	-0.000676285	0.00145414
  11	-8.8317e-05	0.00135201	0.000970108
  12	0.000661898	0.0010226	-0.00265568
  13	-0.000181337	-0.000158633	0.00320061
  14	-0.000913537	0.00498914	0.00169721
  15	0.00105184	0.000543968	0.000180963
  16	0.000249157	-3.37571e-05	-0.000273079
  17	-0.000172037	-0.000158072	-0.000481062
  18	0.000591276	3.12734e-05	-0.000187023
  19	0.000212049	-4.30919e-05	-0.000514096
  20	-0.00113753	-1.2243e-05	-0.000877647
  21	0.00021678	4.82696e-05	-0.000491755
  22	-0.002005	0.000332873	-0.00131268
  23	-0.00140485	-0.000475974	-0.000261523
  24	-0.000647271	0.000486302	-0.00114804
  25	-0.00173446	0.000707413	0.000127569
  26	-0.00210161	0.00107745	0.00119007
  27	-0.00080144	0.0010883	0.000851787
  28	-0.00409407	0.000622371	0.00117195
  29	-0.00202793	0.00209867	0.00301908
  30	0.000703878	0.000513623	0.00103785
  31	-2.14328e-05	-1.27086e-05	0.000519292
  32	-0.00013361	0.000155854	0.000313988
  33	-0.000114456	0.000136741	0.000637477
  34	-1.07892e-05	2.58873e-05	0.0007082
  35	-0.000725826	0.000674802	0.000238108
  36	0.000179922	3.34164e-06	0.000186621
  37	-0.00111067	0.000754133	0.000783038
  38	-0.000877532	0.000898158	-2.38336e-05
  39	-0.000897512	0.000918514	-4.63943e-05
  40	9.76314e-05	0.000606025	-0.000597469
  41	-5.80177e-05	0.000927932	-0.00244648
  42	-0.00230663	0.00157704	-0.00289532
  43	0.000873684	0.000575275	-0.00139869
  44	0.0011127	0.000970113	-0.00453692
  45	-0.000121722	-0.000235331	0.000694613
  46	3.11211e-05	4.61517e-05	0.000477714
  47	-0.000171549	-2.13499e-05	0.00053681
  48	-6.60649e-06	0.000108956	0.000382536
  49	-0.000117912	0.000133005	0.000529452
  50	-1.4707e-05	-2.46066e-05	0.000553481
  51	6.5356e-05	-1.75878e-05	0.000372674
  52	1.81808e-05	-0.000271148	0.000447556
  53	-0.000216914	0.000138736	0.000539399
  54	0.00025887	3.21367e-05	0.000765707
  55	-0.000320747	0.000328838	0.000549057
  56	-0.000374192	0.000720416	0.000555918
  57	-0.000204299	0.000806346	0.000741601
  58	-0.000482017	0.000879516	0.000558139
  59	-0.000603259	0.000829598	0.000395323
  60	-0.000283697	-0.000176915	0.00060927
  61	0.000203866	4.50888e-05	-0.000136491
  62	0.000175648	-0.000156849	0.000419307
  63	0.000130698	0.000253421	-0.000445409
  64	-0.000101223	2.72713e-05	2.41206e-05
  65	0.000158042	3.13119e-05	0.000653367
  66	0.00110637	-0.000596082	-0.000119082
  67	-0.000182891	0.000459625	0.000835397
  68	0.00023657	-7.77878e-05	0.000392806
  69	0.000360135	-0.000153785	0.00116718
  70	0.000144953	0.000333854	0.00027241
  71	0.000500531	-0.000804801	0.000167593
  72	0.00304816	-0.0016854	-0.00126853
  73	-0.00038568	0.00158859	0.000572652
  74	-0.00131449	-0.00339686	0.00106721
  75	0.000818795	-0.00292507	0.000362148
  76	0.000589296	8.74317e-05	-0.000273903
  77	0.000737457	0.000135065	-0.000408209
  78	0.000718362	1.48126e-05	-0.000349124
  79	0.000650567	0.000140936	-0.000178667
  80	0.000716897	-0.000198553	-0.000129925
  81	0.000706104	-0.000464904	0.000239148
  82	0.000831743	-0.000447566	-5.46464e-05
  83	0.000769432	4.22136e-05	-9.04645e-05
  84	0.00093409	-0.000204825	-0.000494053
  85	0.00120833	-9.18775e-05	-0.000974894
  86	0.00134567	-0.000316369	-0.00131547
  87	0.00254579	0.000980746	-0.00188205
  88	0.000251205	-2.3392e-05	-0.000276722
  89	0.0018333	-0.00193841	-0.00197132
  90	0.0018077	-9.56147e-05	-0.000860585
  91	0.000541589	0.000211569	-0.000400786
  92	0.000671046	0.000108809	-0.000165809
  93	0.000709146	0.000580142	-0.000344748
  94	0.000416977	0.000186763	-0.000849312
  95	0.000599466	0.000136824	-0.000318393
  96	0.000264387	-0.000367961	-0.000837378
  97	0.000440075	0.000517216	3.09525e-05
  98	0.000751853	0.000290357	-0.000731596
  99	0.000821762	-0.000215318	-2.17972e-05
 100	0.000301919	7.6937e-05	-0.000583592
 101	-0.000419755	-0.000189181	-0.000758564
 102	6.53644e-05	7.28876e-05	-0.000675397
 103	-0.00118281	0.000431228	-0.000801924
 104	-0.000724379	-0.00115996	-0.000773724
 105	0.0010447	-0.000492816	-0.000172904
 106	0.000102207	-0.00011395	-0.000117956
 107	0.000505399	3.59452e-05	-0.000161606
 108	0.000184162	-0.000407034	2.50095e-06
 109	-0.000214321	-9.70615e-05	-0.000155521
 110	0.0005238	-0.000113267	5.05187e-06
 111	0.000755895	5.12425e-05	-2.33147e-05
 112	0.000498731	0.000514166	-8.59794e-05
 113	0.000137622	-0.000625742	0.000343589
 114	0.00118346	-0.000485801	-0.0003282
 115	0.000822482	-0.000761627	-0.00102613
 116	0.000807268	-0.00096209	-0.00134638
 117	0.000737725	-0.00175714	-0.00259629
 118	-0.000375386	-0.000446022	-0.000926092
 119	0.00199895	-0.000864689	-0.000793579
 120	0.000941191	0.00055706	0.000670346
 121	0.000646333	0.000557495	-0.000106384
 122	0.000160563	1.60653e-05	-0.000203873
 123	0.00132754	0.000935976	-0.000799078
 124	0.0008927	0.00102744	0.000734192
 125	-0.000190002	0.000175801	-5.96398e-05
 126	0.000566616	-0.000751438	-0.000872345
 127	-0.000516242	-0.000182703	-0.000232255
 128	-0.000481061	0.000550494	0.000192659
 129	0.00023369	0.000320583	-0.00012638
 130	-0.000373365	2.47813e-05	-0.000505568
 131	0.000214073	-0.000866352	-0.0015109
 132	-0.000205992	-0.0014028	-0.00103521
 133	0.000855944	-7.90212e-05	-0.00216318
 134	0.000457179	-0.00183608	-0.00208936
 135	0.00224687	-0.00284449	-0.00225421
 136	-0.000208754	-0.000160397	0.000318916
 137	6.00265e-05	0.000210412	8.91493e-05
 138	-0.000332242	-0.000498822	7.82884e-05
 139	-0.000373388	-0.000192901	0.000706454
 140	-0.000332262	0.000504575	-6.798e-05
 141	0.000275723	0.000134754	5.31299e-05
 142	1.06018e-05	0.000504256	0.000202778
 143	-0.000723351	0.00112221	-0.000217634
 144	-0.000680004	-7.40045e-05	-0.000395547
 145	-0.00037769	0.000881499	0.000139295
 146	-0.000836736	0.00168317	-0.000268229
 147	-0.000796056	0.00230523	-0.000305102
 148	-0.00150789	0.00143043	-0.000719121
 149	-0.000592003	0.00207275	-0.000135187
 150	0.000509178	-0.000275677	2.81204e-05
 151	-9.22391e-05	-0.000137557	0.000387705
 152	-0.000267408	-0.000191519	0.000330908
 153	-4.7856e-05	-0.000141305	0.000398682
 154	-7.30811e-05	-0.000207672	0.000577005
 155	-0.000211674	-0.000213793	0.000193454
 156	-0.000414556	-0.000170769	0.00037758
 157	-0.000248531	-0.000184369	-1.54645e-05
 158	-0.000356618	-0.000157623	0.000275061
 159	-5.21476e-05	-0.000314578	0.00023142
 160	-0.000454322	-0.000520899	0.000416178
 161	-0.000808996	-0.000268868	0.000140525
 162	-0.00174833	-0.000329839	-0.000327021
 163	-0.00042518	0.000669295	7.17068e-06
 164	-0.000581347	-0.000898709	0.000519868
 165	-0.00069173	-4.17429e-05	0.000325458
 166	0.000122182	-0.000243521	0.000123719
 167	6.34195e-05	-9.55545e-05	0.000183027
 168	0.000106493	-0.000225693	0.000147973
 169	0.000156262	-0.00028287	0.000178401
 170	3.91223e-05	1.62429e-05	0.000145636
 171	0.000164906	-2.95199e-05	5.97312e-05
 172	4.22978e-06	0.000100504	3.76666e-05
 173	0.000151218	0.000112095	0.000192582
 174	-1.8911e-05	-6.94818e-05	0.000113696
 175	0.000201949	-0.000178873	-1.11555e-05
 176	0.000134982	0.000551273	-0.000861437
 177	0.000172848	0.00152598	-0.000575412
 178	7.69994e-05	0.000435145	-0.00173936
 179	0.000115459	0.000366621	-0.0010578
 180	0.00012547	0.000335456	-0.000214873