pySIMM System Object

407 atoms
406 bonds
756 angles
1017 dihedrals
27 impropers

6 atom types
7 bond types
11 angle types
9 dihedral types
1 improper types

-102.629109 102.629109 xlo xhi
-102.629109 102.629109 ylo yhi
-102.629109 102.629109 zlo zhi

Masses

   1	12.01	# c3
   2	1.008	# hc
   3	12.01	# c
   4	16.0	# os
   5	1.008	# h1
   6	16.0	# o

Pair Coeffs

   1	0.1094	3.3996695084235347	# c3
   2	0.0157	2.649532787749369	# hc
   3	0.086	3.3996695084235347	# c
   4	0.17	3.0000123434657784	# os
   5	0.0157	2.471353044121301	# h1
   6	0.21	2.959921901149463	# o

Bond Coeffs

   1	300.9	1.5375	# c3,c3
   2	330.6	1.0969	# c3,hc
   3	637.7	1.2183	# c,o
   4	330.6	1.0969	# c3,h1
   5	308.6	1.4316	# c3,os
   6	313.0	1.5241	# c,c3
   7	390.8	1.3584	# c,os

Angle Coeffs

   1	46.93	108.77	# c,c3,hc
   2	67.4	123.2	# c3,c,o
   3	75.32	123.25	# o,c,os
   4	39.24	108.46	# h1,c3,h1
   5	63.27	111.04	# c,c3,c3
   6	46.34	109.8	# c3,c3,hc
   7	50.8	109.78	# h1,c3,os
   8	63.28	115.98	# c,os,c3
   9	62.86	111.51	# c3,c3,c3
  10	39.4	107.58	# hc,c3,hc
  11	68.89	110.72	# c3,c,os

Dihedral Coeffs

   1	1	0.3833333333333333	3	0	# X,c3,os,X
   2	1	0.0	2	180	# X,c,c3,X
   3	1	0.15	3	0	# hc,c3,c3,hc
   4	3	0.8	1	0	0.0	2	0	0.08	3	180	# hc,c3,c,o
   5	3	2.7	2	180	0.0	1	0	1.15	3	0	# c3,c,os,c3
   6	1	0.16	3	0	# hc,c3,c3,c3
   7	2	2.7	2	180	1.4	1	180	# o,c,os,c3
   8	1	0.15555555555555556	3	0	# X,c3,c3,X
   9	3	0.18	3	0	0.25	2	180	0.2	1	180	# c3,c3,c3,c3

Improper Coeffs

   1	10.5	-1	2	# c,X,X,o

Atoms

   1	1	1	-0.064235	-12.1251	12.0917	3.85566
   2	1	1	0.139042	-12.7813	13.482	4.1491
   3	1	2	0.015001	-12.8017	11.5219	3.2055
   4	1	2	0.033313	-12.093	11.5223	4.79432
   5	1	1	-0.357291	-13.7032	13.3924	5.39642
   6	1	3	0.733725	-13.5664	14.0278	2.92875
   7	1	2	0.091627	-14.5351	12.6987	5.21544
   8	1	2	0.097893	-14.1288	14.3766	5.63285
   9	1	2	0.10238	-13.1481	13.046	6.27764
  10	1	4	-0.43098	-13.2646	15.335	2.65308
  11	1	1	0.017514	-13.9584	15.99	1.57086
  12	1	5	0.102507	-13.7878	15.4616	0.622806
  13	1	5	0.044787	-13.6061	17.0234	1.46411
  14	1	5	0.053996	-15.0388	16.0093	1.76662
  15	1	6	-0.57928	-14.3993	13.3858	2.30914
  16	1	1	-0.064235	-10.3494	10.5489	2.96345
  17	1	1	0.139042	-10.6748	12.0743	3.25174
  18	1	2	0.015001	-10.467	10.0386	3.92116
  19	1	2	0.033313	-11.1729	10.158	2.3525
  20	1	1	-0.357291	-10.6595	12.93	1.94123
  21	1	3	0.733725	-9.72671	12.6268	4.36317
  22	1	2	0.091627	-11.2838	12.478	1.15948
  23	1	2	0.097893	-9.64728	13.0571	1.54945
  24	1	2	0.10238	-11.0138	13.9523	2.11123
  25	1	4	-0.43098	-9.49017	13.9734	4.27338
  26	1	1	0.017514	-8.67294	14.6084	5.27771
  27	1	5	0.102507	-9.10663	14.464	6.27682
  28	1	5	0.044787	-8.60039	15.6851	5.08046
  29	1	5	0.053996	-7.66081	14.1843	5.27601
  30	1	6	-0.57928	-9.2972	11.9421	5.27913
  31	1	1	-0.064235	-8.8612	8.4544	2.36855
  32	1	1	0.139042	-9.00976	10.0352	2.28398
  33	1	2	0.015001	-7.84193	8.24912	2.03281
  34	1	2	0.033313	-9.49802	8.01136	1.59184
  35	1	1	-0.357291	-9.0961	10.2938	0.738164
  36	1	3	0.733725	-7.70205	10.7059	2.83436
  37	1	2	0.091627	-8.28457	9.7756	0.210102
  38	1	2	0.097893	-9.00536	11.3482	0.468003
  39	1	2	0.10238	-10.0428	9.92377	0.321449
  40	1	4	-0.43098	-7.62153	12.0376	2.53106
  41	1	1	0.017514	-6.44472	12.7753	2.91491
  42	1	5	0.102507	-6.27738	12.694	3.9978
  43	1	5	0.044787	-6.56355	13.8346	2.65561
  44	1	5	0.053996	-5.56023	12.3829	2.39635
  45	1	6	-0.57928	-6.74597	10.1076	3.30142
  46	1	1	-0.064235	-8.33594	6.21028	3.5911
  47	1	1	0.139042	-9.09992	7.59876	3.67828
  48	1	2	0.015001	-7.26468	6.42191	3.70724
  49	1	2	0.033313	-8.59131	5.64889	4.50015
  50	1	1	-0.357291	-8.49228	8.28591	4.94999
  51	1	3	0.733725	-10.6277	7.34712	3.90072
  52	1	2	0.091627	-7.39981	8.35823	4.88642
  53	1	2	0.097893	-8.70583	7.70231	5.85489
  54	1	2	0.10238	-8.8773	9.29296	5.13057
  55	1	4	-0.43098	-10.8918	6.63864	5.04419
  56	1	1	0.017514	-12.2589	6.31158	5.36411
  57	1	5	0.102507	-12.868	7.2229	5.43976
  58	1	5	0.044787	-12.3051	5.779	6.32206
  59	1	5	0.053996	-12.6904	5.66878	4.5855
  60	1	6	-0.57928	-11.5126	7.71299	3.14192
  61	1	1	-0.064235	-7.73791	3.87026	2.83041
  62	1	1	0.139042	-8.46854	5.20374	2.37422
  63	1	2	0.015001	-6.96464	4.14129	3.56007
  64	1	2	0.033313	-8.46569	3.32101	3.44275
  65	1	1	-0.357291	-9.98332	4.87751	2.15115
  66	1	3	0.733725	-7.82775	5.80842	1.086
  67	1	2	0.091627	-10.4768	4.57889	3.08498
  68	1	2	0.097893	-10.1295	4.06487	1.43355
  69	1	2	0.10238	-10.5215	5.7378	1.73429
  70	1	4	-0.43098	-6.55003	6.25118	1.28141
  71	1	1	0.017514	-5.85201	6.88387	0.191079
  72	1	5	0.102507	-6.41602	7.74935	-0.18165
  73	1	5	0.044787	-5.71133	6.17369	-0.634408
  74	1	5	0.053996	-4.86709	7.23065	0.527211
  75	1	6	-0.57928	-8.42881	5.97132	0.0354447
  76	1	1	-0.064235	-6.77881	1.54772	2.7073
  77	1	1	0.139042	-7.07954	2.8295	1.82283
  78	1	2	0.015001	-6.25893	1.91605	3.59328
  79	1	2	0.033313	-7.75633	1.20841	3.06639
  80	1	1	-0.357291	-8.09647	2.48594	0.686594
  81	1	3	0.733725	-5.74519	3.38815	1.23545
  82	1	2	0.091627	-8.42368	3.37865	0.145582
  83	1	2	0.097893	-8.98451	1.97196	1.07536
  84	1	2	0.10238	-7.64654	1.86035	-0.0874523
  85	1	4	-0.43098	-4.96041	3.99369	2.18103
  86	1	1	0.017514	-3.66384	4.49689	1.80278
  87	1	5	0.102507	-3.03321	3.68559	1.41515
  88	1	5	0.044787	-3.16514	4.9412	2.67258
  89	1	5	0.053996	-3.75774	5.26235	1.02384
  90	1	6	-0.57928	-5.39685	3.22933	0.0746215
  91	1	1	-0.064235	-5.91692	-0.851223	3.36379
  92	1	1	0.139042	-6.02588	0.239487	2.21365
  93	1	2	0.015001	-6.85866	-1.41475	3.39888
  94	1	2	0.033313	-5.17179	-1.56203	3.00104
  95	1	1	-0.357291	-6.87366	-0.457498	1.09512
  96	1	3	0.733725	-4.57252	0.493653	1.68629
  97	1	2	0.091627	-7.94713	-0.440955	1.32403
  98	1	2	0.097893	-6.58394	-1.51029	0.974602
  99	1	2	0.10238	-6.70865	0.00320333	0.115306
 100	1	4	-0.43098	-4.13792	-0.498917	0.844208
 101	1	1	0.017514	-2.79729	-0.443973	0.319482
 102	1	5	0.102507	-2.06222	-0.424609	1.13555
 103	1	5	0.044787	-2.66442	0.457658	-0.292383
 104	1	5	0.053996	-2.60187	-1.32369	-0.306429
 105	1	6	-0.57928	-3.81939	1.35634	2.1016
 106	1	1	-0.064235	-5.05936	-1.8056	5.65189
 107	1	1	0.139042	-5.52625	-0.514945	4.85778
 108	1	2	0.015001	-4.8907	-1.46236	6.67857
 109	1	2	0.033313	-4.06832	-2.07252	5.27264
 110	1	1	-0.357291	-4.2523	0.398043	4.90274
 111	1	3	0.733725	-6.72594	0.17378	5.59316
 112	1	2	0.091627	-3.87685	0.504107	5.92966
 113	1	2	0.097893	-4.44054	1.41734	4.5519
 114	1	2	0.10238	-3.43205	-0.0214437	4.30621
 115	1	4	-0.43098	-6.34147	0.957366	6.64849
 116	1	1	0.017514	-7.3434	1.72339	7.34797
 117	1	5	0.102507	-6.88161	2.31576	8.14784
 118	1	5	0.044787	-8.09495	1.05838	7.79305
 119	1	5	0.053996	-7.85095	2.40989	6.65657
 120	1	6	-0.57928	-7.8916	0.0929617	5.23673
 121	1	1	-0.064235	-5.27608	-4.14438	6.83268
 122	1	1	0.139042	-5.89495	-3.14237	5.76904
 123	1	2	0.015001	-5.75958	-5.11537	6.65534
 124	1	2	0.033313	-5.65219	-3.84095	7.81966
 125	1	1	-0.357291	-7.31285	-2.80624	6.33398
 126	1	3	0.733725	-6.08142	-3.91589	4.41942
 127	1	2	0.091627	-7.9463	-2.33222	5.57627
 128	1	2	0.097893	-7.26436	-2.15535	7.2172
 129	1	2	0.10238	-7.8438	-3.72262	6.62786
 130	1	4	-0.43098	-5.00719	-3.85826	3.577
 131	1	1	0.017514	-5.07095	-4.5497	2.31294
 132	1	5	0.102507	-5.92796	-4.19821	1.72174
 133	1	5	0.044787	-5.18071	-5.63028	2.47396
 134	1	5	0.053996	-4.15346	-4.37304	1.73826
 135	1	6	-0.57928	-7.08545	-4.55279	4.14014
 136	1	1	-0.064235	-3.65193	-5.6635	8.00376
 137	1	1	0.139042	-3.72412	-4.4152	7.028
 138	1	2	0.015001	-4.47297	-5.5691	8.72777
 139	1	2	0.033313	-3.93913	-6.53206	7.39593
 140	1	1	-0.357291	-3.0718	-4.80435	5.65839
 141	1	3	0.733725	-3.06516	-3.16106	7.6803
 142	1	2	0.091627	-3.0329	-3.95603	4.9713
 143	1	2	0.097893	-3.61501	-5.6238	5.16972
 144	1	2	0.10238	-2.02999	-5.11398	5.75544
 145	1	4	-0.43098	-1.82863	-2.86057	7.17164
 146	1	1	0.017514	-1.11316	-1.72434	7.696
 147	1	5	0.102507	-0.974799	-1.81865	8.78205
 148	1	5	0.044787	-1.66827	-0.798627	7.49627
 149	1	5	0.053996	-0.125949	-1.64926	7.22348
 150	1	6	-0.57928	-3.57767	-2.51891	8.58421
 151	1	1	-0.064235	-1.09859	-6.223	7.96086
 152	1	1	0.139042	-2.38237	-6.07011	8.86575
 153	1	2	0.015001	-0.823213	-5.21349	7.63868
 154	1	2	0.033313	-1.41511	-6.74877	7.05165
 155	1	1	-0.357291	-2.16773	-4.9668	9.96655
 156	1	3	0.733725	-2.76703	-7.46241	9.473
 157	1	2	0.091627	-1.65562	-5.3346	10.8597
 158	1	2	0.097893	-3.12744	-4.57427	10.3287
 159	1	2	0.10238	-1.57281	-4.12391	9.6011
 160	1	4	-0.43098	-2.74061	-7.51578	10.8404
 161	1	1	0.017514	-3.03497	-8.76673	11.4937
 162	1	5	0.102507	-2.32659	-9.54372	11.1723
 163	1	5	0.044787	-4.05279	-9.09762	11.2487
 164	1	5	0.053996	-2.95743	-8.65257	12.582
 165	1	6	-0.57928	-3.07414	-8.42391	8.78437
 166	1	1	-0.064235	1.29836	-6.66468	7.30289
 167	1	1	0.139042	0.230285	-6.94058	8.44347
 168	1	2	0.015001	0.900152	-7.1141	6.38383
 169	1	2	0.033313	1.29043	-5.58723	7.09321
 170	1	1	-0.357291	0.72154	-6.34302	9.79778
 171	1	3	0.733725	-0.0384833	-8.47183	8.59164
 172	1	2	0.091627	0.876756	-5.25814	9.74112
 173	1	2	0.097893	1.64679	-6.81971	10.1362
 174	1	2	0.10238	0.014416	-6.5641	10.6027
 175	1	4	-0.43098	-0.380219	-9.06699	7.40822
 176	1	1	0.017514	-0.743138	-10.4611	7.41791
 177	1	5	0.102507	-1.60437	-10.6273	8.08087
 178	1	5	0.044787	0.0956689	-11.0738	7.77293
 179	1	5	0.053996	-1.01415	-10.7877	6.40668
 180	1	6	-0.57928	-0.0100644	-9.06889	9.65797
 181	1	1	-0.064235	3.4779	-6.77822	6.01091
 182	1	1	0.139042	2.81942	-7.09163	7.42026
 183	1	2	0.015001	2.80209	-7.15308	5.23412
 184	1	2	0.033313	3.45333	-5.69012	5.89833
 185	1	1	-0.357291	2.91639	-8.61374	7.75591
 186	1	3	0.733725	3.5329	-6.22929	8.50942
 187	1	2	0.091627	2.53733	-8.82789	8.76208
 188	1	2	0.097893	3.95128	-8.96951	7.76217
 189	1	2	0.10238	2.35398	-9.22333	7.03594
 190	1	4	-0.43098	3.46162	-4.88348	8.25761
 191	1	1	0.017514	4.14773	-3.97539	9.14135
 192	1	5	0.102507	3.78404	-4.08638	10.1722
 193	1	5	0.044787	3.98541	-2.93973	8.81867
 194	1	5	0.053996	5.22709	-4.17799	9.1309
 195	1	6	-0.57928	4.12177	-6.68695	9.47715
 196	1	1	-0.064235	5.53578	-6.45016	4.40631
 197	1	1	0.139042	4.93827	-7.25583	5.63097
 198	1	2	0.015001	5.84739	-5.46653	4.77893
 199	1	2	0.033313	6.47042	-6.95295	4.14292
 200	1	1	-0.357291	5.93413	-6.95994	6.80252
 201	1	3	0.733725	4.96567	-8.77917	5.27945
 202	1	2	0.091627	6.97325	-7.13651	6.49331
 203	1	2	0.097893	5.76083	-7.60583	7.67083
 204	1	2	0.10238	5.87731	-5.91273	7.12693
 205	1	4	-0.43098	6.24283	-9.26541	5.16969
 206	1	1	0.017514	6.44282	-10.6528	4.83932
 207	1	5	0.102507	5.96221	-10.8973	3.88234
 208	1	5	0.044787	6.01356	-11.295	5.6192
 209	1	5	0.053996	7.51552	-10.8696	4.76017
 210	1	6	-0.57928	3.9842	-9.45777	5.02037
 211	1	1	-0.064235	5.62108	-5.52849	1.9393
 212	1	1	0.139042	4.73724	-6.21105	3.06815
 213	1	2	0.015001	4.9843	-5.54793	1.05053
 214	1	2	0.033313	5.73635	-4.46713	2.18849
 215	1	1	-0.357291	4.13556	-7.55174	2.52513
 216	1	3	0.733725	3.57665	-5.19216	3.32376
 217	1	2	0.091627	3.26234	-7.86355	3.11113
 218	1	2	0.097893	4.84192	-8.38559	2.54454
 219	1	2	0.10238	3.7745	-7.43543	1.49505
 220	1	4	-0.43098	4.0015	-4.04174	3.93784
 221	1	1	0.017514	3.04239	-3.02654	4.28979
 222	1	5	0.102507	2.29123	-3.42898	4.98308
 223	1	5	0.044787	2.52944	-2.65543	3.39327
 224	1	5	0.053996	3.55058	-2.18434	4.77602
 225	1	6	-0.57928	2.40179	-5.39476	3.05691
 226	1	1	-0.064235	7.4577	-5.38502	0.0904072
 227	1	1	0.139042	7.04723	-6.03321	1.48032
 228	1	2	0.015001	6.80839	-5.80641	-0.688583
 229	1	2	0.033313	8.44616	-5.78967	-0.134172
 230	1	1	-0.357291	7.02239	-7.57468	1.21989
 231	1	3	0.733725	8.15629	-5.71347	2.53312
 232	1	2	0.091627	6.17853	-7.86122	0.579254
 233	1	2	0.097893	6.96859	-8.13909	2.15815
 234	1	2	0.10238	7.93908	-7.9098	0.715947
 235	1	4	-0.43098	9.36105	-6.28012	2.20539
 236	1	1	0.017514	10.5114	-6.02846	3.03566
 237	1	5	0.102507	10.3278	-6.36126	4.06634
 238	1	5	0.044787	10.7442	-4.95567	3.05049
 239	1	5	0.053996	11.3831	-6.56743	2.64336
 240	1	6	-0.57928	8.01376	-4.98469	3.50201
 241	1	1	-0.064235	8.18832	-3.46366	-1.54532
 242	1	1	0.139042	7.52792	-3.81942	-0.146204
 243	1	2	0.015001	8.1656	-2.36652	-1.58918
 244	1	2	0.033313	7.49002	-3.77688	-2.33043
 245	1	1	-0.357291	8.27157	-3.08566	1.02256
 246	1	3	0.733725	6.09018	-3.21165	-0.275079
 247	1	2	0.091627	9.18372	-3.58929	1.35035
 248	1	2	0.097893	8.54899	-2.06312	0.733899
 249	1	2	0.10238	7.62254	-2.9873	1.90239
 250	1	4	-0.43098	6.06322	-1.85877	-0.0537946
 251	1	1	0.017514	4.82101	-1.1436	-0.188773
 252	1	5	0.102507	4.41594	-1.26359	-1.2031
 253	1	5	0.044787	4.98297	-0.0748891	-0.000605926
 254	1	5	0.053996	4.08281	-1.51848	0.531978
 255	1	6	-0.57928	5.09985	-3.83339	-0.621315
 256	1	1	-0.064235	9.64628	-5.35685	-2.66024
 257	1	1	0.139042	9.63981	-3.9015	-2.01918
 258	1	2	0.015001	8.81121	-5.91924	-2.23371
 259	1	2	0.033313	10.5293	-5.87412	-2.26215
 260	1	1	-0.357291	10.6326	-3.96059	-0.809739
 261	1	3	0.733725	10.1825	-2.79449	-2.99206
 262	1	2	0.091627	10.6833	-2.99461	-0.291613
 263	1	2	0.097893	11.653	-4.17227	-1.15952
 264	1	2	0.10238	10.3851	-4.7477	-0.0907396
 265	1	4	-0.43098	9.23512	-2.31169	-3.85241
 266	1	1	0.017514	9.60235	-1.29427	-4.80622
 267	1	5	0.102507	9.90638	-0.37348	-4.29112
 268	1	5	0.044787	8.75332	-1.0675	-5.46238
 269	1	5	0.053996	10.4394	-1.6348	-5.43021
 270	1	6	-0.57928	11.3225	-2.3546	-2.9654
 271	1	1	-0.064235	8.2486	-5.24535	-4.85336
 272	1	1	0.139042	9.63502	-5.66481	-4.21539
 273	1	2	0.015001	8.27395	-4.16789	-5.02191
 274	1	2	0.033313	7.50033	-5.37645	-4.0693
 275	1	1	-0.357291	9.82834	-7.22145	-4.27864
 276	1	3	0.733725	10.842	-4.95625	-4.91484
 277	1	2	0.091627	9.0219	-7.74845	-3.7545
 278	1	2	0.097893	10.7695	-7.51828	-3.79587
 279	1	2	0.10238	9.88237	-7.61817	-5.29539
 280	1	4	-0.43098	12.0259	-5.17736	-4.26335
 281	1	1	0.017514	13.2052	-4.48152	-4.72074
 282	1	5	0.102507	13.45	-4.7663	-5.75273
 283	1	5	0.044787	14.0598	-4.71801	-4.07554
 284	1	5	0.053996	13.0437	-3.395	-4.69356
 285	1	6	-0.57928	10.7576	-4.21196	-5.8769
 286	1	1	-0.064235	6.57139	-4.99401	-6.83007
 287	1	1	0.139042	7.68697	-5.91114	-6.18319
 288	1	2	0.015001	7.02917	-4.01011	-6.83905
 289	1	2	0.033313	6.48839	-5.26668	-7.89018
 290	1	1	-0.357291	8.78634	-5.9308	-7.30492
 291	1	3	0.733725	7.16933	-7.36136	-5.92872
 292	1	2	0.091627	9.0756	-4.91317	-7.60035
 293	1	2	0.097893	8.41406	-6.42789	-8.21119
 294	1	2	0.10238	9.69858	-6.46133	-7.02735
 295	1	4	-0.43098	6.57804	-7.51998	-4.70303
 296	1	1	0.017514	6.10278	-8.82263	-4.31081
 297	1	5	0.102507	5.41001	-9.22824	-5.06097
 298	1	5	0.044787	5.57857	-8.75702	-3.34934
 299	1	5	0.053996	6.94546	-9.51825	-4.20301
 300	1	6	-0.57928	7.25814	-8.2739	-6.73545
 301	1	1	-0.064235	4.3048	-3.61692	-6.94753
 302	1	1	0.139042	5.08521	-4.85728	-6.30984
 303	1	2	0.015001	3.48894	-3.36014	-6.25898
 304	1	2	0.033313	3.7842	-4.00228	-7.82372
 305	1	1	-0.357291	4.30141	-6.12058	-6.82917
 306	1	3	0.733725	4.99442	-4.73927	-4.75166
 307	1	2	0.091627	4.40294	-6.24755	-7.91543
 308	1	2	0.097893	3.22803	-6.03172	-6.61169
 309	1	2	0.10238	4.63049	-7.05207	-6.35946
 310	1	4	-0.43098	4.15701	-5.67069	-4.193
 311	1	1	0.017514	3.97346	-5.70999	-2.76724
 312	1	5	0.102507	3.62054	-4.73873	-2.39556
 313	1	5	0.044787	4.91935	-5.95743	-2.26911
 314	1	5	0.053996	3.2311	-6.47313	-2.50317
 315	1	6	-0.57928	5.53731	-3.86781	-4.09429
 316	1	1	-0.064235	3.94261	-1.12884	-7.78104
 317	1	1	0.139042	5.00565	-2.25926	-7.39308
 318	1	2	0.015001	4.44249	-0.160183	-7.67451
 319	1	2	0.033313	3.18712	-1.12184	-6.98453
 320	1	1	-0.357291	5.74576	-1.64181	-6.15769
 321	1	3	0.733725	6.01683	-2.52044	-8.55887
 322	1	2	0.091627	6.24053	-0.699557	-6.42846
 323	1	2	0.097893	5.05137	-1.43232	-5.33402
 324	1	2	0.10238	6.53925	-2.28112	-5.76145
 325	1	4	-0.43098	5.50272	-3.34306	-9.52513
 326	1	1	0.017514	6.32404	-3.75748	-10.6343
 327	1	5	0.102507	6.82216	-2.89622	-11.0993
 328	1	5	0.044787	5.70356	-4.25016	-11.3939
 329	1	5	0.053996	7.09081	-4.46671	-10.2967
 330	1	6	-0.57928	7.1664	-2.10911	-8.58688
 331	1	1	-0.064235	2.00984	0.0115817	-9.14185
 332	1	1	0.139042	3.16832	-1.07382	-9.16713
 333	1	2	0.015001	1.42525	-0.195704	-8.23594
 334	1	2	0.033313	1.33102	-0.242221	-9.96735
 335	1	1	-0.357291	2.39225	-2.4214	-9.36526
 336	1	3	0.733725	4.11271	-0.833623	-10.3861
 337	1	2	0.091627	1.66114	-2.35275	-10.1819
 338	1	2	0.097893	1.84466	-2.71399	-8.45981
 339	1	2	0.10238	3.05336	-3.23888	-9.66521
 340	1	4	-0.43098	5.27889	-0.202415	-10.0399
 341	1	1	0.017514	6.31739	0.0382942	-11.0134
 342	1	5	0.102507	6.38041	1.10696	-11.2527
 343	1	5	0.044787	6.14906	-0.520259	-11.943
 344	1	5	0.053996	7.2842	-0.278516	-10.6006
 345	1	6	-0.57928	3.84666	-1.17671	-11.5272
 346	1	1	-0.064235	2.91259	2.20474	-8.0217
 347	1	1	0.139042	2.1722	1.58786	-9.26787
 348	1	2	0.015001	3.98021	2.00426	-8.17545
 349	1	2	0.033313	2.65925	1.58025	-7.15498
 350	1	1	-0.357291	2.96539	1.95186	-10.5703
 351	1	3	0.733725	0.703516	2.1128	-9.39316
 352	1	2	0.091627	4.05027	1.93589	-10.4243
 353	1	2	0.097893	2.71639	2.95229	-10.9389
 354	1	2	0.10238	2.70934	1.27461	-11.3953
 355	1	4	-0.43098	-0.0905818	1.74286	-8.34218
 356	1	1	0.017514	-1.48041	2.12899	-8.36355
 357	1	5	0.102507	-1.99633	1.75349	-7.47152
 358	1	5	0.044787	-1.97777	1.72184	-9.25399
 359	1	5	0.053996	-1.57284	3.22329	-8.383
 360	1	6	-0.57928	0.268999	2.68935	-10.3782
 361	1	1	-0.064235	2.46484	4.76814	-8.7193
 362	1	1	0.139042	2.75405	3.72371	-7.55953
 363	1	2	0.015001	3.10175	4.51304	-9.56774
 364	1	2	0.033313	1.45182	4.58857	-9.06126
 365	1	1	-0.357291	4.12613	4.061	-6.87679
 366	1	3	0.733725	1.58028	3.75938	-6.52532
 367	1	2	0.091627	4.40371	3.29119	-6.14411
 368	1	2	0.097893	4.11348	5.00713	-6.32746
 369	1	2	0.10238	4.93736	4.10924	-7.61579
 370	1	4	-0.43098	1.9273	3.23751	-5.30763
 371	1	1	0.017514	0.911852	3.11111	-4.29319
 372	1	5	0.102507	0.473596	4.09035	-4.05593
 373	1	5	0.044787	1.34329	2.68644	-3.37859
 374	1	5	0.053996	0.10982	2.447	-4.64227
 375	1	6	-0.57928	0.442155	4.11966	-6.78142
 376	1	1	-0.064235	2.04073	7.21901	-9.66156
 377	1	1	0.139042	2.61088	6.33143	-8.47783
 378	1	2	0.015001	2.33979	8.23557	-9.37476
 379	1	2	0.033313	2.62425	6.99372	-10.5638
 380	1	1	-0.357291	1.96455	6.80965	-7.13209
 381	1	3	0.733725	4.13561	6.69649	-8.46288
 382	1	2	0.091627	0.924877	6.50393	-7.02178
 383	1	2	0.097893	1.99415	7.90479	-7.05649
 384	1	2	0.10238	2.50013	6.43581	-6.2544
 385	1	4	-0.43098	4.8076	6.24094	-9.56925
 386	1	1	0.017514	6.20846	6.53635	-9.72472
 387	1	5	0.102507	6.37484	7.62208	-9.75239
 388	1	5	0.044787	6.57973	6.10211	-10.6616
 389	1	5	0.053996	6.78381	6.11438	-8.89078
 390	1	6	-0.57928	4.67922	7.36702	-7.59753
 391	1	1	-0.064235	-0.477805	7.62305	-8.99948
 392	1	1	0.139042	0.528467	7.31731	-10.1422
 393	1	2	0.015001	-0.663955	6.74487	-8.37249
 394	1	2	0.033313	-1.45618	7.90975	-9.40748
 395	1	1	-0.357291	0.0698713	5.99798	-10.8381
 396	1	3	0.733725	0.367361	8.49897	-11.169
 397	1	2	0.091627	0.855149	5.57905	-11.4796
 398	1	2	0.097893	-0.810182	6.17314	-11.4717
 399	1	2	0.10238	-0.240556	5.23586	-10.1162
 400	1	4	-0.43098	1.45955	9.32448	-11.275
 401	1	1	0.017514	1.40782	10.4756	-12.1397
 402	1	5	0.102507	2.35076	11.0341	-12.0799
 403	1	5	0.044787	0.589579	11.1437	-11.84
 404	1	5	0.053996	1.24818	10.1683	-13.1813
 405	1	6	-0.57928	-0.662225	8.71444	-11.7924
 406	1	2	0	-12.0007	14.2083	4.40077
 407	1	2	0	-0.128797	8.45072	-8.36946

Velocities

   1	-0.000336964	-0.00146666	0.000177977
   2	-0.000550307	-0.00159479	-0.000163904
   3	-2.83362e-05	-0.00215206	0.000434789
   4	-0.000193227	-0.0013596	0.000287293
   5	-9.09814e-05	-0.000661146	0.000143266
   6	-0.000340152	-0.00182216	-0.000788142
   7	6.88369e-05	-0.00134356	0.00186052
   8	-0.000369643	-0.000442377	-0.000958924
   9	0.000503615	0.00108678	0.000506165
  10	-0.000486526	-0.00112611	0.00111268
  11	0.000906895	-0.000177362	0.000803978
  12	0.000868419	-0.000247073	0.000819082
  13	0.00251179	-0.000695508	0.00139961
  14	0.00083746	0.00115837	0.000196983
  15	0.00207318	-0.00203671	-0.00288865
  16	0.000105619	-0.000479907	-0.000369298
  17	-0.000175172	-0.000832133	0.00017048
  18	-4.89766e-06	-0.000793033	-0.000533116
  19	0.000525361	-0.00030497	-0.00104013
  20	-0.000751203	-0.000362944	0.000413456
  21	-0.00023735	-0.000594216	-7.39236e-05
  22	-0.00123438	-0.000121579	0.000568329
  23	-0.000845977	-0.000399876	0.000190916
  24	-0.000418744	-0.000332071	0.000881438
  25	-0.000290297	-0.000773004	-0.000478456
  26	-0.000435918	-3.8379e-05	-0.000797497
  27	-0.000428586	0.000449422	-0.000740188
  28	-0.000688433	-0.000214438	-0.00158074
  29	-0.000417845	0.000173727	-0.000653799
  30	2.30639e-05	-0.00055804	0.000153486
  31	0.000314912	0.000183874	-0.000118923
  32	0.000549108	0.000136783	-9.65954e-05
  33	0.000300814	0.000162424	-5.7094e-05
  34	0.000298447	0.000413547	-0.000203318
  35	0.00119001	0.000448405	-0.000110287
  36	0.000249248	0.000276869	0.000231893
  37	0.0020052	0.00126013	0.00032383
  38	0.000493653	0.000569703	0.000124924
  39	0.00183742	-0.000231495	-0.000856091
  40	0.000294322	0.000261559	0.000166087
  41	0.000411099	0.000340225	-0.000456972
  42	0.00103362	0.000414769	-0.000520914
  43	0.000145093	0.000348584	-0.000446278
  44	0.000215277	0.000484701	-0.0009031
  45	0.000551443	0.000188537	-0.000218075
  46	0.000162788	0.000469653	-9.93278e-05
  47	-2.22956e-06	0.000299102	-0.000150869
  48	0.000147223	0.000626208	-0.00032048
  49	0.000369052	0.000553213	4.5061e-06
  50	-0.000256271	0.000302769	-2.87457e-05
  51	0.000101865	3.59951e-05	-0.000166463
  52	-0.000338875	0.000967544	-4.16045e-05
  53	0.000138746	-8.31502e-05	-0.000201328
  54	-0.000918472	-1.29092e-05	0.000358612
  55	0.000139756	9.60082e-05	-0.000142342
  56	0.000258935	-0.000102426	0.000118445
  57	0.000198557	-0.000176498	0.000540075
  58	0.000567685	-0.000362708	4.79322e-06
  59	8.12462e-05	5.16879e-05	8.5617e-05
  60	-4.73773e-05	-0.000212313	-0.000299423
  61	-0.000161086	0.000358509	0.000279289
  62	-7.44538e-05	0.000374456	-5.74359e-06
  63	-0.000188883	0.000427551	0.000266281
  64	-0.00024283	0.000513041	0.00031482
  65	-8.8209e-05	0.000507698	6.19229e-05
  66	-0.000100135	0.000120619	-7.77693e-05
  67	-0.000142062	0.000500105	4.91759e-05
  68	-0.000228204	0.000631394	-2.03914e-05
  69	-1.72576e-05	0.000598585	9.06762e-05
  70	-0.000199203	0.00021097	-0.000501189
  71	-0.000414674	6.86575e-05	-0.000747261
  72	-0.000823542	-0.000371205	-0.00116083
  73	-3.74833e-05	-0.000218952	-0.000444455
  74	-0.000592561	0.000689764	-0.00086178
  75	-0.000398733	1.54365e-05	-0.000166636
  76	2.61572e-05	0.000277856	0.00044208
  77	-0.000217455	0.000248724	0.000408184
  78	0.000307629	0.000335302	0.000282414
  79	0.000134241	0.000275836	0.000772089
  80	-0.000437507	0.000155692	0.000645034
  81	-0.000315015	0.000234723	0.000448189
  82	-0.000337471	9.07029e-05	0.000479213
  83	-0.000464551	0.00041924	0.000930213
  84	-0.000684789	-6.45649e-05	0.000712731
  85	-0.000273018	0.000122613	0.000309565
  86	-6.15274e-05	-0.00025009	0.000527879
  87	-8.77111e-05	-0.00055781	0.00113395
  88	-0.000274028	4.87756e-05	0.000479994
  89	0.000304424	-0.000605133	0.000114278
  90	-0.00027202	8.46975e-05	0.000255966
  91	5.71841e-05	0.000197587	4.82727e-05
  92	-1.06786e-05	0.000322696	0.000193198
  93	1.42183e-06	0.000288257	0.000157596
  94	-7.26593e-05	0.000172937	-0.000165508
  95	-4.6515e-05	0.000267242	0.000274672
  96	-2.99427e-05	0.000445364	0.000122586
  97	-5.27844e-06	4.92094e-06	0.000476257
  98	0.000176367	0.00035082	0.000126742
  99	-0.00029271	0.000340296	0.000266057
 100	-0.000151313	0.000633054	-0.000212523
 101	-0.000224016	0.000755286	-0.000402945
 102	-8.56653e-05	0.000632305	-0.000529185
 103	-0.000327298	0.000863673	-0.000282339
 104	-0.000272906	0.000823928	-0.000522593
 105	4.06666e-05	0.000223701	0.000301472
 106	0.000172295	-9.66375e-05	-0.000193227
 107	0.000333324	-5.5473e-06	-2.43203e-05
 108	0.000118212	-0.00017804	-0.000170258
 109	0.000162362	-0.000147435	-0.000166534
 110	0.000478148	-0.000244777	-6.77367e-05
 111	0.000574957	-1.80406e-05	0.000326143
 112	0.000906276	-0.000752082	-0.000173898
 113	0.000465688	-6.66714e-05	0.000427531
 114	0.000186742	-0.000144042	-0.000550892
 115	0.000970697	-0.000579862	0.00058736
 116	0.00125264	-0.000947507	0.0013722
 117	0.00151066	-0.00171811	0.00177579
 118	0.00118214	-0.00116995	0.000922469
 119	0.00129031	-0.000284568	0.00200452
 120	0.00045765	-5.1452e-05	0.000759395
 121	-0.000203281	0.000235634	-1.32219e-05
 122	-3.95502e-05	3.11697e-05	-0.000261042
 123	-0.000373868	0.000255453	0.000288855
 124	-0.000145684	0.000580562	-7.69221e-05
 125	-0.000146338	0.000326335	-0.00071041
 126	0.000424592	-0.000197746	-0.00014448
 127	-0.000289999	-0.00096741	-0.00143902
 128	-0.000340777	0.00169458	-0.00170782
 129	0.00016226	0.000626497	0.00075839
 130	0.000395766	0.000304403	-0.000106613
 131	0.00101828	0.000190711	-5.7025e-05
 132	0.00125406	8.34832e-05	-0.000451418
 133	0.00106838	0.000180996	-5.78916e-05
 134	0.00125	0.000271616	0.000347679
 135	0.000792748	-0.000979173	-5.47533e-06
 136	1.95098e-05	0.000180007	-0.000216818
 137	-0.000195755	0.000193741	-0.000154917
 138	5.16106e-05	0.000124617	-0.000174211
 139	3.90807e-05	0.000179035	-0.000221388
 140	-0.000277417	8.71062e-05	-0.000220614
 141	-4.51622e-05	0.000127403	-0.000425337
 142	0.000261699	0.000179013	-7.13457e-05
 143	-0.000645221	0.000434021	-0.000400193
 144	-0.000466392	-0.00043789	-0.00016138
 145	-0.000293779	0.000301647	-0.000610611
 146	-0.000296775	0.000439026	-0.000913395
 147	-6.6756e-05	0.000561605	-0.000922342
 148	-0.000469355	0.000347855	-0.000883119
 149	-0.000409522	0.000514104	-0.00111776
 150	-5.21136e-05	0.00030818	-0.000222563
 151	0.000153608	0.000153979	-0.000332645
 152	0.000160704	0.000271319	-0.000331317
 153	0.000244886	0.000145454	-0.000306665
 154	0.000121985	0.000160577	-0.000325771
 155	0.0002235	0.000320388	-0.000393036
 156	0.000285459	0.000314378	-0.000198513
 157	0.000683591	0.000476255	-0.000599477
 158	0.000219395	3.14e-07	-5.1364e-05
 159	-0.000154032	0.000518844	-0.000556594
 160	0.000751138	0.000463485	-0.000204339
 161	0.000855311	0.000584891	5.15084e-05
 162	0.000909599	0.000566184	0.000211857
 163	0.000886432	0.000477547	0.000115557
 164	0.000843659	0.000861572	2.2141e-05
 165	1.1519e-06	0.000314978	-3.16131e-05
 166	0.000236103	0.000307337	-0.000185378
 167	9.8872e-05	-4.12912e-05	-0.000425828
 168	0.000353906	0.000534982	-0.000350835
 169	0.000263429	0.000366662	8.24271e-05
 170	0.000176151	-0.000585944	-0.000210086
 171	3.96452e-05	-0.000114015	-0.000892461
 172	0.000510403	-0.000623847	0.000116382
 173	4.90219e-05	-0.000949079	-0.000345504
 174	5.701e-05	-0.000616109	-0.000339698
 175	0.000117522	8.22282e-05	-0.00104818
 176	0.000380492	-5.8501e-06	-0.001216
 177	0.00021688	-0.000180588	-0.00145613
 178	0.00039061	0.000175903	-0.000903215
 179	0.000776115	-0.000116732	-0.00129487
 180	0.000294782	-0.000431835	-0.00110689
 181	0.000264926	5.74168e-05	-2.93225e-05
 182	0.000234843	0.000307766	-3.83342e-05
 183	0.000120176	0.000326756	-2.78958e-05
 184	0.000666694	7.2995e-05	5.60666e-05
 185	0.000137382	0.000360458	0.000233294
 186	0.000230391	0.000496256	-0.000133355
 187	0.000344584	0.000642278	0.0003631
 188	5.81565e-05	0.000173013	5.25823e-05
 189	-0.000117319	0.000310243	0.000477819
 190	-0.000205415	0.000527735	4.52097e-05
 191	-0.000855191	0.00065237	0.000428146
 192	-0.00105259	0.000161738	0.000315491
 193	-0.00129818	0.000679487	0.000710014
 194	-0.000745815	0.0012057	0.000650224
 195	0.000413925	0.000614445	-0.000198653
 196	2.95153e-05	-0.00036402	-0.000117379
 197	3.94449e-05	-0.000396067	-0.000116234
 198	0.000144779	-0.00044013	-2.86102e-05
 199	-8.23467e-05	-0.000502001	-0.000293707
 200	0.000192819	-0.00077952	-0.000139187
 201	-0.000280597	-0.000422498	-0.000231625
 202	9.97773e-05	-0.00122906	-0.000165505
 203	-3.2601e-05	-0.000663702	-9.84133e-05
 204	0.000629806	-0.000764042	-0.000129991
 205	-0.00042366	-0.000709184	-0.000248797
 206	-0.000544993	-0.000795637	-4.75571e-05
 207	-0.000685578	-0.000955069	5.87604e-05
 208	-0.000412602	-0.000653128	0.000142208
 209	-0.000546369	-0.000826032	-0.000177622
 210	-0.000496305	-0.000296165	8.98285e-05
 211	-0.000139002	0.000237418	5.2002e-05
 212	-0.000124947	-1.73185e-05	-1.56253e-05
 213	-0.000116689	0.000261224	3.68194e-05
 214	-0.000230346	0.000219955	0.000211563
 215	-0.000219104	0.000130511	-0.000208436
 216	-0.000128518	-0.000141515	0.000113
 217	0.000319412	-0.000304054	0.000353822
 218	-0.000121321	0.000207866	-0.00124587
 219	-0.00117564	0.000658555	0.00018133
 220	-0.000458859	-8.87586e-05	5.53829e-05
 221	-0.000702277	-9.29581e-06	-0.000721557
 222	-0.00124419	9.08704e-05	-0.00123568
 223	-3.51553e-05	-0.000124765	-0.00115255
 224	-0.00107565	6.11329e-05	-0.000460993
 225	-0.000228045	-0.000259122	-0.000116559
 226	0.000201312	0.000576967	0.000212076
 227	-5.75458e-05	0.000497085	6.88175e-05
 228	0.000449291	0.000535985	3.61046e-05
 229	0.000295188	0.000698585	0.000467847
 230	-3.00075e-05	0.00056222	-0.000401803
 231	-0.000207596	0.000409339	0.000137941
 232	-1.33384e-05	0.000881177	-0.000584965
 233	-0.000128044	0.000259101	-0.000604243
 234	-1.18424e-06	0.00071591	-0.000445279
 235	-0.000264481	0.000273665	0.00056156
 236	-0.000378395	0.000141763	0.000750895
 237	-0.000678316	0.000336002	0.000761541
 238	-0.000116903	8.51454e-05	0.000617434
 239	-0.000445457	-0.000149906	0.000987284
 240	-0.000333513	0.000763113	7.99169e-05
 241	0.000105882	0.000308494	0.00017135
 242	9.20223e-05	0.00051938	0.000164754
 243	9.09067e-05	0.000330571	8.27065e-05
 244	-2.00202e-05	0.000343399	0.000234344
 245	0.000300959	0.000645905	-5.23109e-05
 246	-9.24067e-06	0.000201743	0.000137824
 247	0.000243153	0.000521345	-7.76898e-05
 248	0.000448927	0.000535639	-0.000318792
 249	0.000407267	0.000911933	-1.36448e-05
 250	-0.000508202	0.000148137	0.000277652
 251	-0.000819403	-0.000461663	-3.82875e-05
 252	-0.000593576	-0.000844163	-9.6646e-05
 253	-0.00140691	-0.000342746	-0.000190886
 254	-0.000717316	-0.000764585	-9.74937e-05
 255	0.000184752	-4.40714e-05	-8.86348e-05
 256	-0.000403564	-0.000203305	0.000541033
 257	-4.58908e-05	6.25885e-05	9.22018e-05