pySIMM System Object

692 atoms
691 bonds
1288 angles
1739 dihedrals
46 impropers

6 atom types
7 bond types
11 angle types
9 dihedral types
1 improper types

-123.220684 123.220684 xlo xhi
-123.220684 123.220684 ylo yhi
-123.220684 123.220684 zlo zhi

Masses

   1	12.01	# c3
   2	1.008	# hc
   3	12.01	# c
   4	16.0	# os
   5	1.008	# h1
   6	16.0	# o

Pair Coeffs

   1	0.1094	3.3996695084235347	# c3
   2	0.0157	2.649532787749369	# hc
   3	0.086	3.3996695084235347	# c
   4	0.17	3.0000123434657784	# os
   5	0.0157	2.471353044121301	# h1
   6	0.21	2.959921901149463	# o

Bond Coeffs

   1	300.9	1.5375	# c3,c3
   2	330.6	1.0969	# c3,hc
   3	637.7	1.2183	# c,o
   4	330.6	1.0969	# c3,h1
   5	308.6	1.4316	# c3,os
   6	313.0	1.5241	# c,c3
   7	390.8	1.3584	# c,os

Angle Coeffs

   1	46.93	108.77	# c,c3,hc
   2	67.4	123.2	# c3,c,o
   3	75.32	123.25	# o,c,os
   4	39.24	108.46	# h1,c3,h1
   5	63.27	111.04	# c,c3,c3
   6	46.34	109.8	# c3,c3,hc
   7	50.8	109.78	# h1,c3,os
   8	63.28	115.98	# c,os,c3
   9	62.86	111.51	# c3,c3,c3
  10	39.4	107.58	# hc,c3,hc
  11	68.89	110.72	# c3,c,os

Dihedral Coeffs

   1	1	0.3833333333333333	3	0	# X,c3,os,X
   2	1	0.0	2	180	# X,c,c3,X
   3	1	0.15	3	0	# hc,c3,c3,hc
   4	3	0.8	1	0	0.0	2	0	0.08	3	180	# hc,c3,c,o
   5	3	2.7	2	180	0.0	1	0	1.15	3	0	# c3,c,os,c3
   6	1	0.16	3	0	# hc,c3,c3,c3
   7	2	2.7	2	180	1.4	1	180	# o,c,os,c3
   8	1	0.15555555555555556	3	0	# X,c3,c3,X
   9	3	0.18	3	0	0.25	2	180	0.2	1	180	# c3,c3,c3,c3

Improper Coeffs

   1	10.5	-1	2	# c,X,X,o

Atoms

   1	1	1	-0.064235	16.746	-2.20649	13.4875
   2	1	1	0.139042	18.0892	-1.52319	13.9047
   3	1	2	0.015001	16.314	-2.67321	14.3758
   4	1	2	0.033313	16.9824	-3.04411	12.8179
   5	1	1	-0.357291	19.2384	-2.56451	13.9773
   6	1	3	0.733725	17.96	-0.732792	15.231
   7	1	2	0.091627	19.0351	-3.32795	14.7392
   8	1	2	0.097893	20.1867	-2.07199	14.2295
   9	1	2	0.10238	19.3717	-3.06495	13.0087
  10	1	4	-0.43098	18.4774	0.531582	15.1144
  11	1	1	0.017514	18.4371	1.41103	16.2542
  12	1	5	0.102507	17.4049	1.54481	16.6055
  13	1	5	0.044787	18.8447	2.39299	15.9825
  14	1	5	0.053996	19.0365	0.99895	17.0762
  15	1	6	-0.57928	17.4319	-1.15903	16.2404
  16	1	1	-0.064235	14.4732	-2.13284	12.2293
  17	1	1	0.139042	15.6987	-1.28705	12.7567
  18	1	2	0.015001	14.0789	-1.60189	11.3518
  19	1	2	0.033313	14.878	-3.06561	11.8138
  20	1	1	-0.357291	15.2636	-0.116277	13.7005
  21	1	3	0.733725	16.3815	-0.736093	11.462
  22	1	2	0.091627	16.088	0.584908	13.871
  23	1	2	0.097893	14.9222	-0.471298	14.6804
  24	1	2	0.10238	14.4637	0.484876	13.2497
  25	1	4	-0.43098	15.9138	0.493416	11.0834
  26	1	1	0.017514	16.4502	1.11067	9.89848
  27	1	5	0.102507	16.3133	0.4572	9.02581
  28	1	5	0.044787	17.523	1.30634	10.0246
  29	1	5	0.053996	15.9401	2.06293	9.707
  30	1	6	-0.57928	17.2018	-1.36326	10.8089
  31	1	1	-0.064235	12.3468	-3.47271	12.2391
  32	1	1	0.139042	13.2206	-2.4954	13.1206
  33	1	2	0.015001	12.8917	-4.41651	12.199
  34	1	2	0.033313	12.3911	-3.11281	11.2017
  35	1	1	-0.357291	13.7052	-3.25978	14.3999
  36	1	3	0.733725	12.4253	-1.18761	13.4177
  37	1	2	0.091627	14.2666	-2.60342	15.0729
  38	1	2	0.097893	14.3448	-4.11207	14.1376
  39	1	2	0.10238	12.8818	-3.64603	15.0032
  40	1	4	-0.43098	12.2095	-0.96044	14.7504
  41	1	1	0.017514	11.532	0.247682	15.1461
  42	1	5	0.102507	10.5307	0.294258	14.6969
  43	1	5	0.044787	12.1022	1.12782	14.8204
  44	1	5	0.053996	11.4299	0.283089	16.2376
  45	1	6	-0.57928	12.0689	-0.410026	12.5468
  46	1	1	-0.064235	10.3375	-4.97115	11.6394
  47	1	1	0.139042	10.815	-3.75238	12.5287
  48	1	2	0.015001	9.27195	-4.81171	11.422
  49	1	2	0.033313	10.8249	-4.85431	10.6609
  50	1	1	-0.357291	10.4991	-3.99845	14.0425
  51	1	3	0.733725	10.0019	-2.53163	11.9715
  52	1	2	0.091627	11.024	-4.86131	14.4609
  53	1	2	0.097893	9.42316	-4.1544	14.1904
  54	1	2	0.10238	10.7475	-3.12604	14.6566
  55	1	4	-0.43098	9.38087	-1.78455	12.9394
  56	1	1	0.017514	8.62517	-0.624789	12.5428
  57	1	5	0.102507	9.26683	0.0813376	11.9968
  58	1	5	0.044787	8.21935	-0.119732	13.4278
  59	1	5	0.053996	7.7906	-0.915805	11.8916
  60	1	6	-0.57928	9.92066	-2.27042	10.7799
  61	1	1	-0.064235	10.1296	-7.2897	10.7408
  62	1	1	0.139042	10.4698	-6.49064	12.0647
  63	1	2	0.015001	9.38076	-6.72211	10.1753
  64	1	2	0.033313	11.0446	-7.22932	10.1475
  65	1	1	-0.357291	11.9542	-6.80792	12.4682
  66	1	3	0.733725	9.45125	-6.80428	13.2089
  67	1	2	0.091627	12.6479	-6.58854	11.6462
  68	1	2	0.097893	12.1009	-7.85755	12.7352
  69	1	2	0.10238	12.2745	-6.23912	13.3456
  70	1	4	-0.43098	9.90651	-7.74955	14.0882
  71	1	1	0.017514	9.0635	-8.16312	15.1802
  72	1	5	0.102507	9.57729	-8.91551	15.7922
  73	1	5	0.044787	8.13315	-8.6029	14.7974
  74	1	5	0.053996	8.81204	-7.30559	15.818
  75	1	6	-0.57928	8.37222	-6.24898	13.3449
  76	1	1	-0.064235	9.74416	-9.35838	9.21392
  77	1	1	0.139042	9.68212	-8.80044	10.694
  78	1	2	0.015001	10.8012	-9.52332	8.98293
  79	1	2	0.033313	9.29645	-10.3577	9.26812
  80	1	1	-0.357291	10.703	-9.69674	11.4685
  81	1	3	0.733725	8.25587	-9.05012	11.2877
  82	1	2	0.091627	10.6457	-9.5457	12.5502
  83	1	2	0.097893	11.7347	-9.51787	11.1393
  84	1	2	0.10238	10.4866	-10.7618	11.3053
  85	1	4	-0.43098	7.44747	-7.94962	11.2611
  86	1	1	0.017514	6.12038	-8.02867	11.8158
  87	1	5	0.102507	5.61959	-7.0555	11.7343
  88	1	5	0.044787	6.16763	-8.30346	12.8777
  89	1	5	0.053996	5.52282	-8.77952	11.2827
  90	1	6	-0.57928	7.88543	-10.1287	11.7249
  91	1	1	-0.064235	9.09237	-9.62044	6.70532
  92	1	1	0.139042	9.10637	-8.64566	7.95255
  93	1	2	0.015001	8.25302	-10.3165	6.84025
  94	1	2	0.033313	8.7986	-9.01848	5.8344
  95	1	1	-0.357291	7.60283	-8.32544	8.23528
  96	1	3	0.733725	9.84966	-7.33273	7.52632
  97	1	2	0.091627	7.08439	-9.17369	8.70145
  98	1	2	0.097893	7.06596	-8.0899	7.30625
  99	1	2	0.10238	7.49374	-7.44264	8.87498
 100	1	4	-0.43098	9.08994	-6.54246	6.70331
 101	1	1	0.017514	9.63112	-5.29276	6.22983
 102	1	5	0.102507	10.5654	-5.45813	5.67592
 103	1	5	0.044787	9.84047	-4.62307	7.07449
 104	1	5	0.053996	8.91218	-4.79873	5.56442
 105	1	6	-0.57928	11.005	-7.05274	7.80161
 106	1	1	-0.064235	10.011	-11.0588	4.84356
 107	1	1	0.139042	10.3467	-10.4897	6.28052
 108	1	2	0.015001	10.1684	-10.2299	4.14025
 109	1	2	0.033313	8.92839	-11.2382	4.80143
 110	1	1	-0.357291	11.6054	-9.56148	6.16511
 111	1	3	0.733725	10.5084	-11.6632	7.29649
 112	1	2	0.091627	11.9673	-9.23631	7.14531
 113	1	2	0.097893	11.3921	-8.6687	5.56346
 114	1	2	0.10238	12.4618	-10.0503	5.69902
 115	1	4	-0.43098	11.7881	-11.8376	7.74658
 116	1	1	0.017514	12.0631	-12.9361	8.63825
 117	1	5	0.102507	11.4614	-12.8546	9.55359
 118	1	5	0.044787	13.1248	-12.9423	8.91303
 119	1	5	0.053996	11.8249	-13.8911	8.15066
 120	1	6	-0.57928	9.57223	-12.3517	7.67266
 121	1	1	-0.064235	10.2061	-12.4226	2.7381
 122	1	1	0.139042	10.7007	-12.3551	4.24212
 123	1	2	0.015001	10.3178	-11.4293	2.30177
 124	1	2	0.033313	9.11659	-12.5463	2.79707
 125	1	1	-0.357291	12.254	-12.2422	4.31559
 126	1	3	0.733725	10.2094	-13.6161	5.02336
 127	1	2	0.091627	12.7383	-13.1543	3.95388
 128	1	2	0.097893	12.6028	-12.1563	5.34889
 129	1	2	0.10238	12.6282	-11.3838	3.74166
 130	1	4	-0.43098	8.85216	-13.7855	4.95559
 131	1	1	0.017514	8.253	-14.8673	5.69389
 132	1	5	0.102507	8.44126	-14.7449	6.77027
 133	1	5	0.044787	8.67091	-15.8301	5.37204
 134	1	5	0.053996	7.16881	-14.8826	5.52816
 135	1	6	-0.57928	10.9481	-14.3751	5.63351
 136	1	1	-0.064235	12.1573	-13.1823	1.06659
 137	1	1	0.139042	10.717	-13.479	1.66854
 138	1	2	0.015001	12.8003	-12.8622	1.88232
 139	1	2	0.033313	12.5906	-14.1455	0.765662
 140	1	1	-0.357291	10.8065	-14.8898	2.33768
 141	1	3	0.733725	9.64229	-13.5641	0.533345
 142	1	2	0.091627	9.85006	-15.1778	2.79293
 143	1	2	0.097893	11.5931	-14.9464	3.09885
 144	1	2	0.10238	11.038	-15.663	1.59214
 145	1	4	-0.43098	9.01412	-12.3688	0.287833
 146	1	1	0.017514	7.98801	-12.2973	-0.721499
 147	1	5	0.102507	7.17245	-12.9971	-0.493195
 148	1	5	0.044787	8.39857	-12.5501	-1.70724
 149	1	5	0.053996	7.57608	-11.2813	-0.765915
 150	1	6	-0.57928	9.39007	-14.5759	-0.102871
 151	1	1	-0.064235	14.0001	-12.108	-0.292058
 152	1	1	0.139042	12.4242	-12.1952	-0.141277
 153	1	2	0.015001	14.3098	-13.0737	-0.712818
 154	1	2	0.033313	14.4465	-12.1116	0.710781
 155	1	1	-0.357291	11.8489	-12.8696	-1.4431
 156	1	3	0.733725	11.8355	-10.7939	0.195642
 157	1	2	0.091627	12.0054	-13.9564	-1.43562
 158	1	2	0.097893	12.3118	-12.5146	-2.36226
 159	1	2	0.10238	10.7786	-12.695	-1.57644
 160	1	4	-0.43098	11.0132	-10.2922	-0.776854
 161	1	1	0.017514	10.3643	-9.02621	-0.559113
 162	1	5	0.102507	11.0995	-8.25614	-0.291089
 163	1	5	0.044787	9.63402	-9.10914	0.256078
 164	1	5	0.053996	9.84059	-8.70923	-1.46958
 165	1	6	-0.57928	12.0955	-10.1881	1.2244
 166	1	1	-0.064235	14.0799	-10.6177	-2.46206
 167	1	1	0.139042	14.7562	-10.9572	-1.08386
 168	1	2	0.015001	14.0991	-11.5395	-3.05479
 169	1	2	0.033313	13.0231	-10.4198	-2.27301
 170	1	1	-0.357291	14.8302	-9.67171	-0.196721
 171	1	3	0.733725	16.1963	-11.5245	-1.31122
 172	1	2	0.091627	13.8927	-9.10669	-0.184727
 173	1	2	0.097893	15.6183	-8.99367	-0.549926
 174	1	2	0.10238	15.0888	-9.91737	0.841827
 175	1	4	-0.43098	16.234	-12.515	-2.25833
 176	1	1	0.017514	17.4888	-13.1466	-2.57505
 177	1	5	0.102507	18.2278	-12.4003	-2.89759
 178	1	5	0.044787	17.3479	-13.872	-3.38622
 179	1	5	0.053996	17.8839	-13.6748	-1.69765
 180	1	6	-0.57928	17.1838	-11.1742	-0.683839
 181	1	1	-0.064235	13.709	-9.61098	-4.70204
 182	1	1	0.139042	14.5774	-9.44556	-3.39683
 183	1	2	0.015001	13.7507	-10.6631	-5.00846
 184	1	2	0.033313	12.68	-9.44953	-4.37437
 185	1	1	-0.357291	16.0951	-9.60237	-3.72111
 186	1	3	0.733725	14.273	-8.05853	-2.74245
 187	1	2	0.091627	16.7151	-9.43735	-2.83156
 188	1	2	0.097893	16.4315	-8.86466	-4.45664
 189	1	2	0.10238	16.3196	-10.5976	-4.12584
 190	1	4	-0.43098	12.9338	-7.84539	-2.53335
 191	1	1	0.017514	12.4931	-6.55802	-2.05868
 192	1	5	0.102507	12.9565	-6.31941	-1.09172
 193	1	5	0.044787	11.4025	-6.55382	-1.93984
 194	1	5	0.053996	12.7629	-5.77396	-2.77846
 195	1	6	-0.57928	15.1195	-7.21691	-2.48363
 196	1	1	-0.064235	12.5479	-8.71339	-6.80904
 197	1	1	0.139042	13.9094	-8.75603	-6.00797
 198	1	2	0.015001	11.8399	-8.15466	-6.18593
 199	1	2	0.033313	12.7195	-8.08433	-7.6885
 200	1	1	-0.357291	14.2225	-7.26023	-5.67494
 201	1	3	0.733725	15.0507	-9.33726	-6.90304
 202	1	2	0.091627	14.2675	-6.65572	-6.59076
 203	1	2	0.097893	15.1915	-7.13694	-5.17805
 204	1	2	0.10238	13.4448	-6.81407	-5.04249
 205	1	4	-0.43098	15.2386	-8.60974	-8.04956
 206	1	1	0.017514	16.2363	-9.04371	-8.99514
 207	1	5	0.102507	17.2288	-9.07241	-8.52466
 208	1	5	0.044787	16.272	-8.35505	-9.84822
 209	1	5	0.053996	15.9993	-10.0493	-9.3674
 210	1	6	-0.57928	15.6871	-10.3508	-6.66036
 211	1	1	-0.064235	10.4766	-9.68605	-8.08223
 212	1	1	0.139042	11.8018	-10.0184	-7.28918
 213	1	2	0.015001	10.1518	-10.644	-8.49982
 214	1	2	0.033313	9.71469	-9.41065	-7.34898
 215	1	1	-0.357291	12.7376	-10.8969	-8.18549
 216	1	3	0.733725	11.3005	-10.8711	-6.07235
 217	1	2	0.091627	13.4851	-11.4253	-7.58002
 218	1	2	0.097893	13.2769	-10.3184	-8.9409
 219	1	2	0.10238	12.1682	-11.6805	-8.70273
 220	1	4	-0.43098	10.4826	-10.1704	-5.22207
 221	1	1	0.017514	9.98183	-10.8081	-4.03248
 222	1	5	0.102507	9.44198	-11.7317	-4.28074
 223	1	5	0.044787	9.30122	-10.1327	-3.49988
 224	1	5	0.053996	10.8134	-11.0577	-3.36461
 225	1	6	-0.57928	11.5844	-12.0431	-5.88006
 226	1	1	-0.064235	8.96409	-8.79095	-9.97949
 227	1	1	0.139042	10.3472	-8.61463	-9.2276
 228	1	2	0.015001	9.05482	-9.65052	-10.6566
 229	1	2	0.033313	8.87283	-7.91681	-10.6304
 230	1	1	-0.357291	11.4492	-8.85044	-10.3107
 231	1	3	0.733725	10.4367	-7.15045	-8.67835
 232	1	2	0.091627	11.4931	-9.90292	-10.6187
 233	1	2	0.097893	12.4393	-8.54487	-9.95281
 234	1	2	0.10238	11.2496	-8.2548	-11.2124
 235	1	4	-0.43098	10.7427	-6.23614	-9.65033
 236	1	1	0.017514	10.853	-4.84268	-9.29893
 237	1	5	0.102507	9.90517	-4.47173	-8.8857
 238	1	5	0.044787	11.1021	-4.2496	-10.1877
 239	1	5	0.053996	11.6425	-4.69698	-8.54981
 240	1	6	-0.57928	10.2408	-6.82691	-7.51755
 241	1	1	-0.064235	6.34357	-9.04343	-10.1578
 242	1	1	0.139042	7.59812	-8.96383	-9.20087
 243	1	2	0.015001	5.4685	-9.02975	-9.49357
 244	1	2	0.033313	6.31478	-10.0499	-10.5974
 245	1	1	-0.357291	7.39702	-7.79094	-8.18335
 246	1	3	0.733725	7.55205	-10.3623	-8.4966
 247	1	2	0.091627	7.6744	-6.81923	-8.60531
 248	1	2	0.097893	6.35459	-7.7241	-7.84474
 249	1	2	0.10238	7.99719	-7.92904	-7.27614
 250	1	4	-0.43098	7.07594	-10.3317	-7.21229
 251	1	1	0.017514	6.98318	-11.5664	-6.47459
 252	1	5	0.102507	6.33842	-12.2838	-7.00111
 253	1	5	0.044787	6.56038	-11.3802	-5.47974
 254	1	5	0.053996	7.97777	-12.0161	-6.35489
 255	1	6	-0.57928	7.84385	-11.4068	-9.06013
 256	1	1	-0.064235	4.51011	-8.1694	-11.6171
 257	1	1	0.139042	6.06665	-8.05265	-11.3528
 258	1	2	0.015001	4.01286	-7.78486	-10.7164
 259	1	2	0.033313	4.25088	-9.23702	-11.6176
 260	1	1	-0.357291	6.84891	-8.55958	-12.6097
 261	1	3	0.733725	6.45694	-6.58922	-10.9821
 262	1	2	0.091627	7.92376	-8.64177	-12.4352
 263	1	2	0.097893	6.74861	-7.86154	-13.448
 264	1	2	0.10238	6.49771	-9.54824	-12.9318
 265	1	4	-0.43098	5.66071	-6.05904	-10.0048
 266	1	1	0.017514	5.84298	-4.68023	-9.6285
 267	1	5	0.102507	5.6619	-4.023	-10.4908
 268	1	5	0.044787	6.86487	-4.51006	-9.26575
 269	1	5	0.053996	5.13752	-4.41091	-8.83304
 270	1	6	-0.57928	7.37841	-5.97679	-11.5018
 271	1	1	-0.064235	2.27702	-7.38549	-12.4299
 272	1	1	0.139042	3.78986	-7.5284	-12.869
 273	1	2	0.015001	2.27954	-6.59121	-11.6766
 274	1	2	0.033313	1.98358	-8.29491	-11.8902
 275	1	1	-0.357291	3.90729	-8.51114	-14.0873
 276	1	3	0.733725	4.37647	-6.10888	-13.1572
 277	1	2	0.091627	3.54823	-9.51471	-13.8296
 278	1	2	0.097893	4.93602	-8.62461	-14.4387
 279	1	2	0.10238	3.34165	-8.15806	-14.9557
 280	1	4	-0.43098	5.12341	-6.0437	-14.3019
 281	1	1	0.017514	5.78097	-4.80285	-14.6264
 282	1	5	0.102507	5.05524	-3.97923	-14.6745
 283	1	5	0.044787	6.28499	-4.88468	-15.5969
 284	1	5	0.053996	6.5315	-4.56006	-13.8618
 285	1	6	-0.57928	4.20208	-5.14092	-12.4346
 286	1	1	-0.064235	-0.148955	-6.47229	-12.6592
 287	1	1	0.139042	1.11803	-7.02585	-13.4342
 288	1	2	0.015001	0.166373	-5.53983	-12.1807
 289	1	2	0.033313	-0.855268	-6.16871	-13.4414
 290	1	1	-0.357291	1.56749	-5.82749	-14.3371
 291	1	3	0.733725	0.70227	-8.21434	-14.3614
 292	1	2	0.091627	1.87538	-4.9608	-13.7364
 293	1	2	0.097893	0.7448	-5.49252	-14.9834
 294	1	2	0.10238	2.38988	-6.09535	-15.0094
 295	1	4	-0.43098	1.03015	-9.45302	-13.8765
 296	1	1	0.017514	0.673811	-10.6239	-14.6382
 297	1	5	0.102507	-0.408266	-10.6486	-14.8282
 298	1	5	0.044787	0.952601	-11.5303	-14.0867
 299	1	5	0.053996	1.19696	-10.6258	-15.6033
 300	1	6	-0.57928	0.0781376	-8.06788	-15.4008
 301	1	1	-0.064235	-2.34328	-6.50653	-11.2737
 302	1	1	0.139042	-1.00453	-7.2881	-11.6008
 303	1	2	0.015001	-2.86962	-7.07593	-10.4974
 304	1	2	0.033313	-2.98199	-6.61648	-12.1535
 305	1	1	-0.357291	-1.48224	-8.64058	-12.2229
 306	1	3	0.733725	-0.262489	-7.5902	-10.2546
 307	1	2	0.091627	-1.82103	-8.51974	-13.2605
 308	1	2	0.097893	-2.32382	-9.06221	-11.6566
 309	1	2	0.10238	-0.693958	-9.39885	-12.1827
 310	1	4	-0.43098	-0.972563	-8.43973	-9.44591
 311	1	1	0.017514	-0.436234	-8.78045	-8.15184
 312	1	5	0.102507	-0.257375	-7.87422	-7.55619
 313	1	5	0.044787	0.515642	-9.3158	-8.26302
 314	1	5	0.053996	-1.13909	-9.42379	-7.60845
 315	1	6	-0.57928	0.783752	-7.08589	-9.88638
 316	1	1	-0.064235	-3.6946	-4.62617	-10.0722
 317	1	1	0.139042	-2.34908	-4.98305	-10.8312
 318	1	2	0.015001	-3.4796	-3.75539	-9.44006
 319	1	2	0.033313	-3.86719	-5.42959	-9.34358
 320	1	1	-0.357291	-1.25335	-4.74773	-9.73595
 321	1	3	0.733725	-2.07285	-4.03046	-12.0406
 322	1	2	0.091627	-1.30917	-3.72709	-9.33308
 323	1	2	0.097893	-1.35781	-5.43994	-8.89098
 324	1	2	0.10238	-0.237951	-4.82617	-10.138
 325	1	4	-0.43098	-2.73177	-4.40892	-13.1785
 326	1	1	0.017514	-2.48213	-3.69853	-14.4083
 327	1	5	0.102507	-3.10592	-4.10303	-15.2156
 328	1	5	0.044787	-1.42791	-3.80057	-14.6988
 329	1	5	0.053996	-2.71213	-2.6316	-14.2948
 330	1	6	-0.57928	-1.27946	-3.10337	-12.0157
 331	1	1	-0.064235	-6.0769	-4.09536	-9.54969
 332	1	1	0.139042	-5.08497	-4.31822	-10.7679
 333	1	2	0.015001	-5.5463	-3.50288	-8.79239
 334	1	2	0.033313	-6.19654	-5.08189	-9.0801
 335	1	1	-0.357291	-5.52925	-5.55886	-11.6091
 336	1	3	0.733725	-4.98665	-3.0497	-11.6618
 337	1	2	0.091627	-6.50938	-5.41622	-12.0695
 338	1	2	0.097893	-5.5614	-6.47639	-11.0088
 339	1	2	0.10238	-4.86425	-5.71595	-12.4624
 340	1	4	-0.43098	-4.25559	-2.05573	-11.0727
 341	1	1	0.017514	-3.94809	-0.87476	-11.8363
 342	1	5	0.102507	-4.86112	-0.43175	-12.2567
 343	1	5	0.044787	-3.27228	-1.12138	-12.6641
 344	1	5	0.053996	-3.4529	-0.130955	-11.2001
 345	1	6	-0.57928	-5.50456	-2.94588	-12.7627
 346	1	1	-0.064235	-7.42465	-1.88353	-9.79145
 347	1	1	0.139042	-7.52047	-3.45433	-9.63601
 348	1	2	0.015001	-6.82894	-1.66406	-10.6788
 349	1	2	0.033313	-6.81667	-1.52262	-8.95114
 350	1	1	-0.357291	-8.34629	-4.09068	-10.7954
 351	1	3	0.733725	-8.12823	-3.7871	-8.23167
 352	1	2	0.091627	-8.01374	-3.73346	-11.7793
 353	1	2	0.097893	-9.41352	-3.87068	-10.6944
 354	1	2	0.10238	-8.27404	-5.1852	-10.771
 355	1	4	-0.43098	-9.11401	-4.73955	-8.2633
 356	1	1	0.017514	-9.7134	-5.1773	-7.02763
 357	1	5	0.102507	-10.1	-4.3221	-6.45631
 358	1	5	0.044787	-8.97295	-5.70315	-6.41101
 359	1	5	0.053996	-10.5443	-5.86339	-7.23486
 360	1	6	-0.57928	-7.72411	-3.29437	-7.18905
 361	1	1	-0.064235	-8.13011	0.523223	-9.89817
 362	1	1	0.139042	-8.70103	-0.952989	-9.90188
 363	1	2	0.015001	-7.39799	0.606358	-9.08597
 364	1	2	0.033313	-7.54273	0.603095	-10.8159
 365	1	1	-0.357291	-9.66214	-1.17345	-8.68687
 366	1	3	0.733725	-9.39605	-1.21873	-11.2768
 367	1	2	0.091627	-10.0635	-2.19166	-8.66351
 368	1	2	0.097893	-10.5496	-0.534231	-8.75115
 369	1	2	0.10238	-9.15818	-0.979442	-7.73032
 370	1	4	-0.43098	-10.6424	-1.77908	-11.1654
 371	1	1	0.017514	-11.3528	-2.15519	-12.3608
 372	1	5	0.102507	-10.7545	-2.8571	-12.9586
 373	1	5	0.044787	-11.5696	-1.27125	-12.9736
 374	1	5	0.053996	-12.2998	-2.64248	-12.0972
 375	1	6	-0.57928	-8.87887	-0.974182	-12.3547
 376	1	1	-0.064235	-8.27182	3.15976	-9.92889
 377	1	1	0.139042	-9.06597	1.79295	-9.81188
 378	1	2	0.015001	-9.0253	3.93785	-10.0732
 379	1	2	0.033313	-7.8623	3.39325	-8.93842
 380	1	1	-0.357291	-10.1667	1.74532	-10.9234
 381	1	3	0.733725	-9.748	1.87468	-8.40607
 382	1	2	0.091627	-10.9055	0.961275	-10.7156
 383	1	2	0.097893	-9.75931	1.55959	-11.9221
 384	1	2	0.10238	-10.7302	2.68695	-10.9616
 385	1	4	-0.43098	-8.85614	1.74066	-7.37323
 386	1	1	0.017514	-9.32944	1.82501	-6.01492
 387	1	5	0.102507	-9.86253	2.77115	-5.84718
 388	1	5	0.044787	-8.48269	1.77362	-5.31902
 389	1	5	0.053996	-10.0134	0.995054	-5.79533
 390	1	6	-0.57928	-10.9324	2.11482	-8.22688
 391	1	1	-0.064235	-6.54355	4.87802	-10.7696
 392	1	1	0.139042	-7.09428	3.40486	-10.9558
 393	1	2	0.015001	-6.59186	5.09935	-9.69704
 394	1	2	0.033313	-5.47246	4.8424	-11.0002
 395	1	1	-0.357291	-7.54077	3.093	-12.4242
 396	1	3	0.733725	-5.86774	2.50968	-10.5919
 397	1	2	0.091627	-6.75126	3.34534	-13.1407
 398	1	2	0.097893	-8.4597	3.60091	-12.725
 399	1	2	0.10238	-7.7047	2.01854	-12.5662
 400	1	4	-0.43098	-5.53138	2.55886	-9.26431
 401	1	1	0.017514	-4.41958	1.76442	-8.80448
 402	1	5	0.102507	-4.58402	0.701028	-9.02808
 403	1	5	0.044787	-4.29631	1.87951	-7.72076
 404	1	5	0.053996	-3.49218	2.08268	-9.29924
 405	1	6	-0.57928	-5.25027	1.83636	-11.399
 406	1	1	-0.064235	-6.62627	7.46793	-10.8393
 407	1	1	0.139042	-7.11144	6.13144	-11.5345
 408	1	2	0.015001	-7.16152	8.28599	-11.3408
 409	1	2	0.033313	-7.04258	7.44893	-9.82242
 410	1	1	-0.357291	-8.67298	6.20235	-11.3856
 411	1	3	0.733725	-6.67383	6.08449	-13.0339
 412	1	2	0.091627	-9.06958	7.12869	-11.8237
 413	1	2	0.097893	-8.97786	6.19526	-10.3315
 414	1	2	0.10238	-9.19077	5.38755	-11.8962
 415	1	4	-0.43098	-7.57573	6.65666	-13.8915
 416	1	1	0.017514	-7.30239	6.61097	-15.3074
 417	1	5	0.102507	-7.18242	5.57143	-15.6444
 418	1	5	0.044787	-6.37781	7.15667	-15.5366
 419	1	5	0.053996	-8.12722	7.06633	-15.869
 420	1	6	-0.57928	-5.65381	5.54283	-13.4273
 421	1	1	-0.064235	-5.21284	9.21542	-9.7488
 422	1	1	0.139042	-5.12273	7.95185	-10.7003
 423	1	2	0.015001	-6.11874	9.77148	-10.0245
 424	1	2	0.033313	-5.43374	8.84563	-8.73858
 425	1	1	-0.357291	-4.57177	8.36452	-12.1032
 426	1	3	0.733725	-4.21402	6.87144	-10.0316
 427	1	2	0.091627	-3.57078	8.80071	-12.0335
 428	1	2	0.097893	-5.23004	9.08024	-12.6121
 429	1	2	0.10238	-4.43272	7.49943	-12.7556
 430	1	4	-0.43098	-4.66237	6.48007	-8.7968
 431	1	1	0.017514	-3.91294	5.48371	-8.0692
 432	1	5	0.102507	-3.74644	4.59198	-8.68923
 433	1	5	0.044787	-4.45812	5.18164	-7.1664
 434	1	5	0.053996	-2.93474	5.88311	-7.77112
 435	1	6	-0.57928	-3.21518	6.39605	-10.5478
 436	1	1	-0.064235	-4.48302	11.173	-8.37303
 437	1	1	0.139042	-4.06569	10.2931	-9.61627
 438	1	2	0.015001	-5.57962	11.2154	-8.35132
 439	1	2	0.033313	-4.2354	10.5723	-7.48754
 440	1	1	-0.357291	-2.70974	9.57231	-9.29548
 441	1	3	0.733725	-4.04105	11.1623	-10.9107
 442	1	2	0.091627	-1.88677	10.2811	-9.16108
 443	1	2	0.097893	-2.7769	8.97337	-8.37783
 444	1	2	0.10238	-2.3935	8.90618	-10.106
 445	1	4	-0.43098	-2.80262	11.2538	-11.4863
 446	1	1	0.017514	-2.65508	11.9773	-12.7229
 447	1	5	0.102507	-3.23331	11.4942	-13.5224
 448	1	5	0.044787	-1.59944	11.9997	-13.021
 449	1	5	0.053996	-3.00928	13.0104	-12.6095
 450	1	6	-0.57928	-5.03995	11.6735	-11.3927
 451	1	1	-0.064235	-4.38507	12.9247	-6.61197
 452	1	1	0.139042	-3.97844	12.6557	-8.11679
 453	1	2	0.015001	-3.84708	12.1772	-6.01997
 454	1	2	0.033313	-5.44612	12.6643	-6.5662
 455	1	1	-0.357291	-2.43441	12.7546	-8.29108
 456	1	3	0.733725	-4.70716	13.6541	-9.06857
 457	1	2	0.091627	-1.90405	12.0856	-7.60083
 458	1	2	0.097893	-2.084	13.7775	-8.11076
 459	1	2	0.10238	-2.12442	12.5202	-9.31495
 460	1	4	-0.43098	-6.07198	13.5677	-8.98222
 461	1	1	0.017514	-6.87535	14.5318	-9.69058
 462	1	5	0.102507	-6.55843	14.6117	-10.7398
 463	1	5	0.044787	-6.77857	15.5196	-9.22075
 464	1	5	0.053996	-7.93129	14.2366	-9.6629
 465	1	6	-0.57928	-4.13279	14.4945	-9.7448
 466	1	1	-0.064235	-5.07367	14.1816	-4.45719
 467	1	1	0.139042	-4.26901	14.2889	-5.82323
 468	1	2	0.015001	-4.88465	15.1024	-3.89156
 469	1	2	0.033313	-6.12933	14.2391	-4.72314
 470	1	1	-0.357291	-4.97986	15.4401	-6.60723
 471	1	3	0.733725	-2.793	14.7032	-5.52578
 472	1	2	0.091627	-5.98981	15.1505	-6.92231
 473	1	2	0.097893	-4.40437	15.7541	-7.48612
 474	1	2	0.10238	-5.09335	16.3341	-5.97865
 475	1	4	-0.43098	-2.70523	15.9772	-5.02642
 476	1	1	0.017514	-1.41062	16.5284	-4.72129
 477	1	5	0.102507	-0.811716	16.6285	-5.63679
 478	1	5	0.044787	-0.871256	15.8802	-4.01862
 479	1	5	0.053996	-1.52327	17.5203	-4.26603
 480	1	6	-0.57928	-1.81981	13.9766	-5.6387
 481	1	1	-0.064235	-5.62135	13.1567	-2.06829
 482	1	1	0.139042	-4.88321	12.9691	-3.45563
 483	1	2	0.015001	-5.66369	12.1466	-1.64055
 484	1	2	0.033313	-4.93514	13.6786	-1.38848
 485	1	1	-0.357291	-3.36714	12.877	-3.07736
 486	1	3	0.733725	-5.34247	11.588	-4.04013
 487	1	2	0.091627	-2.76663	12.4694	-3.89859
 488	1	2	0.097893	-3.21156	12.1923	-2.23244
 489	1	2	0.10238	-2.95368	13.8539	-2.79253
 490	1	4	-0.43098	-6.54642	11.6316	-4.6832
 491	1	1	0.017514	-7.07773	10.4401	-5.29339
 492	1	5	0.102507	-6.45791	10.135	-6.1463
 493	1	5	0.044787	-8.09814	10.6281	-5.64989
 494	1	5	0.053996	-7.108	9.61525	-4.56924
 495	1	6	-0.57928	-4.68254	10.5622	-3.97291
 496	1	1	-0.064235	-7.47363	13.4526	-0.388595
 497	1	1	0.139042	-7.04696	13.8311	-1.87255
 498	1	2	0.015001	-6.79055	13.9786	0.29148
 499	1	2	0.033313	-7.2364	12.3971	-0.253928
 500	1	1	-0.357291	-8.1055	13.2822	-2.88079
 501	1	3	0.733725	-6.91578	15.3817	-2.0408
 502	1	2	0.091627	-8.19283	12.1907	-2.82565
 503	1	2	0.097893	-7.88759	13.5511	-3.91427
 504	1	2	0.10238	-9.09252	13.7245	-2.71265
 505	1	4	-0.43098	-5.8804	15.9268	-1.32798
 506	1	1	0.017514	-5.59049	17.3318	-1.48375
 507	1	5	0.102507	-6.44639	17.9433	-1.16714
 508	1	5	0.044787	-5.36998	17.5619	-2.53505
 509	1	5	0.053996	-4.71739	17.6088	-0.879839
 510	1	6	-0.57928	-7.62265	16.0518	-2.77876
 511	1	1	-0.064235	-9.00514	13.3575	1.71673
 512	1	1	0.139042	-8.948	13.6342	0.155742
 513	1	2	0.015001	-8.1384	13.8738	2.12968
 514	1	2	0.033313	-9.87462	13.8907	2.12274
 515	1	1	-0.357291	-9.3428	15.1378	-0.0319855
 516	1	3	0.733725	-9.94132	12.6738	-0.566391
 517	1	2	0.091627	-10.2872	15.3717	0.477566
 518	1	2	0.097893	-9.49885	15.3896	-1.08771
 519	1	2	0.10238	-8.5759	15.81	0.374937
 520	1	4	-0.43098	-11.2112	13.1762	-0.664014
 521	1	1	0.017514	-12.237	12.3565	-1.25795
 522	1	5	0.102507	-13.2134	12.8507	-1.1781
 523	1	5	0.044787	-12.2961	11.3872	-0.748006
 524	1	5	0.053996	-12.0171	12.1732	-2.31712
 525	1	6	-0.57928	-9.64677	11.5419	-0.912881
 526	1	1	-0.064235	-9.29341	11.9227	3.89537
 527	1	1	0.139042	-9.04586	11.8974	2.33787
 528	1	2	0.015001	-9.53826	10.881	4.14923
 529	1	2	0.033313	-10.23	12.4773	4.04038
 530	1	1	-0.357291	-7.74876	11.1007	2.00374
 531	1	3	0.733725	-10.3114	11.0828	1.88759
 532	1	2	0.091627	-7.77907	10.7255	0.972763
 533	1	2	0.097893	-7.66422	10.206	2.63446
 534	1	2	0.10238	-6.84212	11.7049	2.13145
 535	1	4	-0.43098	-11.462	11.8206	2.0228
 536	1	1	0.017514	-12.7384	11.1499	2.03686
 537	1	5	0.102507	-13.5536	11.8847	2.03894
 538	1	5	0.044787	-12.8285	10.5338	2.9413
 539	1	5	0.053996	-12.8527	10.4974	1.16258
 540	1	6	-0.57928	-10.3243	9.87178	1.73378
 541	1	1	-0.064235	-9.14687	11.9509	6.33173
 542	1	1	0.139042	-8.33123	12.4165	5.04487
 543	1	2	0.015001	-10.1795	12.2464	6.16313
 544	1	2	0.033313	-9.16559	10.8547	6.28884
 545	1	1	-0.357291	-8.18093	13.9687	5.00939
 546	1	3	0.733725	-6.9244	11.7408	4.95908
 547	1	2	0.091627	-7.73958	14.3204	4.0774
 548	1	2	0.097893	-7.47009	14.3046	5.77156
 549	1	2	0.10238	-9.1405	14.4787	5.15877
 550	1	4	-0.43098	-6.93548	10.41	5.2764
 551	1	1	0.017514	-5.67862	9.70903	5.40201
 552	1	5	0.102507	-5.01323	9.92628	4.55473
 553	1	5	0.044787	-5.85111	8.62651	5.44026
 554	1	5	0.053996	-5.16961	10.009	6.32812
 555	1	6	-0.57928	-5.90475	12.3314	4.63225
 556	1	1	-0.064235	-9.73747	11.355	8.74752
 557	1	1	0.139042	-8.85321	12.3356	7.83046
 558	1	2	0.015001	-9.10257	11.0698	9.5959
 559	1	2	0.033313	-9.83702	10.401	8.2249
 560	1	1	-0.357291	-9.18872	13.8409	8.12713
 561	1	3	0.733725	-7.33463	12.0543	8.0938
 562	1	2	0.091627	-10.2282	14.1039	7.92065
 563	1	2	0.097893	-8.59066	14.5349	7.53597
 564	1	2	0.10238	-8.94426	14.0951	9.16306
 565	1	4	-0.43098	-6.55368	13.1677	7.91044
 566	1	1	0.017514	-5.11553	13.092	7.96475
 567	1	5	0.102507	-4.71859	12.6107	7.0604
 568	1	5	0.044787	-4.7828	12.5275	8.84482
 569	1	5	0.053996	-4.69619	14.105	8.02444
 570	1	6	-0.57928	-6.87185	10.9569	8.36043
 571	1	1	-0.064235	-11.9035	10.3927	9.88454
 572	1	1	0.139042	-11.1629	11.7124	9.38658
 573	1	2	0.015001	-12.498	10.6795	10.7531
 574	1	2	0.033313	-11.108	9.77253	10.2892
 575	1	1	-0.357291	-10.8472	12.4901	10.7189
 576	1	3	0.733725	-12.1271	12.5466	8.47888
 577	1	2	0.091627	-10.1779	11.9177	11.375
 578	1	2	0.097893	-10.3923	13.466	10.5421
 579	1	2	0.10238	-11.7586	12.6904	11.2982
 580	1	4	-0.43098	-12.9417	13.3889	9.18792
 581	1	1	0.017514	-13.8902	14.212	8.48055
 582	1	5	0.102507	-14.5068	13.6033	7.80499
 583	1	5	0.044787	-13.367	14.9681	7.88223
 584	1	5	0.053996	-14.5504	14.7211	9.19359
 585	1	6	-0.57928	-12.2285	12.4315	7.27154
 586	1	1	-0.064235	-13.2786	8.066	9.56509
 587	1	1	0.139042	-12.8594	9.49562	8.97154
 588	1	2	0.015001	-14.3392	7.94898	9.34312
 589	1	2	0.033313	-12.8203	7.27754	8.95304
 590	1	1	-0.357291	-12.1329	9.16677	7.62604
 591	1	3	0.733725	-14.2152	10.2254	8.66018
 592	1	2	0.091627	-11.1918	8.63024	7.797
 593	1	2	0.097893	-11.922	10.0557	7.0267
 594	1	2	0.10238	-12.7637	8.52594	6.9935
 595	1	4	-0.43098	-14.6878	10.9909	9.69385
 596	1	1	0.017514	-15.9636	11.6552	9.55214
 597	1	5	0.102507	-16.7849	10.9294	9.56789
 598	1	5	0.044787	-16.0164	12.2015	8.60175
 599	1	5	0.053996	-16.1136	12.3705	10.3703
 600	1	6	-0.57928	-14.8677	10.0395	7.643
 601	1	1	-0.064235	-13.5428	6.12387	11.3412
 602	1	1	0.139042	-13.078	7.61942	11.0678
 603	1	2	0.015001	-12.8357	5.4851	10.8084
 604	1	2	0.033313	-13.345	5.93554	12.4051
 605	1	1	-0.357291	-13.8485	8.5783	12.0349
 606	1	3	0.733725	-11.5535	7.6021	11.42
 607	1	2	0.091627	-14.8065	8.91443	11.6224
 608	1	2	0.097893	-13.2653	9.4714	12.2767
 609	1	2	0.10238	-14.044	8.09412	13.0013
 610	1	4	-0.43098	-10.7503	7.33331	10.34
 611	1	1	0.017514	-9.31986	7.47027	10.4573
 612	1	5	0.102507	-8.92288	6.80367	11.2337
 613	1	5	0.044787	-9.05605	8.50399	10.7172
 614	1	5	0.053996	-8.84111	7.22544	9.50045
 615	1	6	-0.57928	-11.1053	7.82253	12.5338
 616	1	1	-0.064235	-15.3335	4.32187	11.9712
 617	1	1	0.139042	-14.985	5.55159	11.02
 618	1	2	0.015001	-16.4251	4.19456	11.9383
 619	1	2	0.033313	-15.144	4.68479	12.9886
 620	1	1	-0.357291	-15.0474	5.11057	9.51948
 621	1	3	0.733725	-16.0993	6.6022	11.3513
 622	1	2	0.091627	-14.9324	5.94891	8.82733
 623	1	2	0.097893	-16.0155	4.65143	9.285
 624	1	2	0.10238	-14.2504	4.4038	9.26847
 625	1	4	-0.43098	-16.5141	7.32882	10.2683
 626	1	1	0.017514	-17.6212	8.23985	10.4011
 627	1	5	0.102507	-18.5671	7.68348	10.434
 628	1	5	0.044787	-17.6476	8.9169	9.53953
 629	1	5	0.053996	-17.5343	8.83947	11.3174
 630	1	6	-0.57928	-16.5842	6.75735	12.463
 631	1	1	-0.064235	-13.1788	2.83778	11.8638
 632	1	1	0.139042	-14.7548	2.84603	11.8642
 633	1	2	0.015001	-12.8319	3.55106	12.6216
 634	1	2	0.033313	-12.9026	3.28	10.9168
 635	1	1	-0.357291	-15.3238	2.18123	10.5548
 636	1	3	0.733725	-15.2829	2.08502	13.1295
 637	1	2	0.091627	-16.3056	2.59033	10.2888
 638	1	2	0.097893	-15.4927	1.10456	10.6656
 639	1	2	0.10238	-14.657	2.30643	9.69466
 640	1	4	-0.43098	-14.9112	2.70063	14.2956
 641	1	1	0.017514	-15.2479	2.13471	15.578
 642	1	5	0.102507	-15.3631	2.93659	16.3177
 643	1	5	0.044787	-14.4459	1.47476	15.9248
 644	1	5	0.053996	-16.1854	1.56482	15.5367
 645	1	6	-0.57928	-15.9526	1.06444	13.102
 646	1	1	-0.064235	-10.8142	1.657	11.7118
 647	1	1	0.139042	-12.3543	1.49865	12.0621
 648	1	2	0.015001	-10.4022	0.643907	11.6191
 649	1	2	0.033313	-10.3377	2.04782	12.6128
 650	1	1	-0.357291	-12.9116	0.31439	11.1995
 651	1	3	0.733725	-12.381	1.12558	13.5901
 652	1	2	0.091627	-13.8957	-0.012525	11.5548
 653	1	2	0.097893	-12.2684	-0.57249	11.2838
 654	1	2	0.10238	-13.0042	0.558152	10.1402