pySIMM System Object

737 atoms
736 bonds
1372 angles
1853 dihedrals
49 impropers

6 atom types
7 bond types
11 angle types
9 dihedral types
1 improper types

-125.900230 125.900230 xlo xhi
-125.900230 125.900230 ylo yhi
-125.900230 125.900230 zlo zhi

Masses

   1	12.01	# c3
   2	1.008	# hc
   3	12.01	# c
   4	16.0	# os
   5	1.008	# h1
   6	16.0	# o

Pair Coeffs

   1	0.1094	3.3996695084235347	# c3
   2	0.0157	2.649532787749369	# hc
   3	0.086	3.3996695084235347	# c
   4	0.17	3.0000123434657784	# os
   5	0.0157	2.471353044121301	# h1
   6	0.21	2.959921901149463	# o

Bond Coeffs

   1	300.9	1.5375	# c3,c3
   2	330.6	1.0969	# c3,hc
   3	637.7	1.2183	# c,o
   4	330.6	1.0969	# c3,h1
   5	308.6	1.4316	# c3,os
   6	313.0	1.5241	# c,c3
   7	390.8	1.3584	# c,os

Angle Coeffs

   1	46.93	108.77	# c,c3,hc
   2	67.4	123.2	# c3,c,o
   3	75.32	123.25	# o,c,os
   4	39.24	108.46	# h1,c3,h1
   5	63.27	111.04	# c,c3,c3
   6	46.34	109.8	# c3,c3,hc
   7	50.8	109.78	# h1,c3,os
   8	63.28	115.98	# c,os,c3
   9	62.86	111.51	# c3,c3,c3
  10	39.4	107.58	# hc,c3,hc
  11	68.89	110.72	# c3,c,os

Dihedral Coeffs

   1	1	0.3833333333333333	3	0	# X,c3,os,X
   2	1	0.0	2	180	# X,c,c3,X
   3	1	0.15	3	0	# hc,c3,c3,hc
   4	3	0.8	1	0	0.0	2	0	0.08	3	180	# hc,c3,c,o
   5	3	2.7	2	180	0.0	1	0	1.15	3	0	# c3,c,os,c3
   6	1	0.16	3	0	# hc,c3,c3,c3
   7	2	2.7	2	180	1.4	1	180	# o,c,os,c3
   8	1	0.15555555555555556	3	0	# X,c3,c3,X
   9	3	0.18	3	0	0.25	2	180	0.2	1	180	# c3,c3,c3,c3

Improper Coeffs

   1	10.5	-1	2	# c,X,X,o

Atoms

   1	1	1	-0.064235	-19.0082	-15.6655	2.98205
   2	1	1	0.139042	-19.6877	-17.0744	3.01769
   3	1	2	0.015001	-19.5253	-15.0287	3.70507
   4	1	2	0.033313	-19.2152	-15.2179	2.00142
   5	1	1	-0.357291	-21.0088	-17.0673	2.2012
   6	1	3	0.733725	-19.9037	-17.5882	4.45967
   7	1	2	0.091627	-21.7333	-16.3575	2.62045
   8	1	2	0.097893	-21.4654	-18.0657	2.2017
   9	1	2	0.10238	-20.816	-16.7928	1.15542
  10	1	4	-0.43098	-19.3374	-18.8204	4.64442
  11	1	1	0.017514	-19.4339	-19.4536	5.93387
  12	1	5	0.102507	-18.988	-18.8195	6.7121
  13	1	5	0.044787	-18.9041	-20.4146	5.91905
  14	1	5	0.053996	-20.4848	-19.6382	6.19164
  15	1	6	-0.57928	-20.4693	-16.9601	5.33993
  16	1	1	-0.064235	-16.8311	-14.2512	2.76181
  17	1	1	0.139042	-17.4515	-15.6291	3.20907
  18	1	2	0.015001	-15.7703	-14.4439	2.54725
  19	1	2	0.033313	-17.2619	-14.0137	1.77936
  20	1	1	-0.357291	-17.1184	-15.9539	4.70286
  21	1	3	0.733725	-16.8163	-16.6577	2.21817
  22	1	2	0.091627	-17.3643	-16.9914	4.95438
  23	1	2	0.097893	-17.6643	-15.3076	5.40097
  24	1	2	0.10238	-16.0433	-15.8463	4.90011
  25	1	4	-0.43098	-15.8364	-17.4358	2.77256
  26	1	1	0.017514	-15.2064	-18.4407	1.95521
  27	1	5	0.102507	-14.777	-17.9913	1.04905
  28	1	5	0.044787	-15.9415	-19.1983	1.65392
  29	1	5	0.053996	-14.4039	-18.9351	2.5162
  30	1	6	-0.57928	-17.1495	-16.7449	1.04551
  31	1	1	-0.064235	-16.3328	-11.8056	2.68508
  32	1	1	0.139042	-16.872	-12.9403	3.64037
  33	1	2	0.015001	-17.1085	-11.6478	1.93622
  34	1	2	0.033313	-15.5118	-12.2354	2.09452
  35	1	1	-0.357291	-18.3549	-12.6177	4.02692
  36	1	3	0.733725	-15.921	-13.112	4.86468
  37	1	2	0.091627	-18.7375	-13.3277	4.76826
  38	1	2	0.097893	-19.013	-12.6437	3.14909
  39	1	2	0.10238	-18.4649	-11.6337	4.4873
  40	1	4	-0.43098	-16.5072	-12.8017	6.06294
  41	1	1	0.017514	-15.724	-12.877	7.2691
  42	1	5	0.102507	-14.8659	-12.1935	7.21363
  43	1	5	0.044787	-15.3504	-13.8978	7.42173
  44	1	5	0.053996	-16.338	-12.596	8.13386
  45	1	6	-0.57928	-14.7656	-13.4943	4.7687
  46	1	1	-0.064235	-15.6908	-9.42138	1.97133
  47	1	1	0.139042	-15.793	-10.4102	3.20418
  48	1	2	0.015001	-14.8665	-8.72561	2.18134
  49	1	2	0.033313	-15.3174	-10.0165	1.1259
  50	1	1	-0.357291	-16.6371	-9.77609	4.36275
  51	1	3	0.733725	-14.3074	-10.6409	3.65464
  52	1	2	0.091627	-17.6665	-9.54228	4.08247
  53	1	2	0.097893	-16.1688	-8.84517	4.70773
  54	1	2	0.10238	-16.675	-10.422	5.24507
  55	1	4	-0.43098	-14.1117	-10.5603	5.0096
  56	1	1	0.017514	-12.7921	-10.8085	5.53243
  57	1	5	0.102507	-12.4463	-11.8098	5.23776
  58	1	5	0.044787	-12.8024	-10.7498	6.62754
  59	1	5	0.053996	-12.0814	-10.0655	5.14753
  60	1	6	-0.57928	-13.4022	-10.8918	2.87213
  61	1	1	-0.064235	-16.398	-8.00452	0.0369936
  62	1	1	0.139042	-16.8965	-8.53565	1.4437
  63	1	2	0.015001	-15.3319	-7.75989	0.123756
  64	1	2	0.033313	-16.4429	-8.88203	-0.615137
  65	1	1	-0.357291	-18.1699	-9.4321	1.22962
  66	1	3	0.733725	-17.1484	-7.35722	2.43989
  67	1	2	0.091627	-17.9922	-10.2023	0.468216
  68	1	2	0.097893	-19.0441	-8.86262	0.908603
  69	1	2	0.10238	-18.4887	-9.93018	2.14835
  70	1	4	-0.43098	-18.4455	-6.91917	2.43158
  71	1	1	0.017514	-18.8276	-5.82951	3.2928
  72	1	5	0.102507	-19.896	-5.60831	3.17376
  73	1	5	0.044787	-18.256	-4.92627	3.04364
  74	1	5	0.053996	-18.6389	-6.08632	4.34355
  75	1	6	-0.57928	-16.2961	-6.87056	3.16769
  76	1	1	-0.064235	-16.5356	-6.81273	-2.26716
  77	1	1	0.139042	-17.071	-6.83039	-0.776772
  78	1	2	0.015001	-16.9344	-7.70654	-2.7608
  79	1	2	0.033313	-17.0404	-5.96353	-2.7438
  80	1	1	-0.357291	-18.6048	-7.08135	-0.941432
  81	1	3	0.733725	-16.8768	-5.42038	-0.12956
  82	1	2	0.091627	-19.147	-6.90613	-0.00666326
  83	1	2	0.097893	-18.8164	-8.0973	-1.2988
  84	1	2	0.10238	-19.0408	-6.38091	-1.6674
  85	1	4	-0.43098	-15.8311	-5.3565	0.747287
  86	1	1	0.017514	-15.5294	-4.11357	1.40915
  87	1	5	0.102507	-14.6542	-4.23696	2.05989
  88	1	5	0.044787	-16.3779	-3.79351	2.02687
  89	1	5	0.053996	-15.3127	-3.32827	0.673041
  90	1	6	-0.57928	-17.5594	-4.44808	-0.412414
  91	1	1	-0.064235	-14.8824	-6.35153	-4.21119
  92	1	1	0.139042	-15.0112	-6.70096	-2.67485
  93	1	2	0.015001	-15.155	-5.29358	-4.32989
  94	1	2	0.033313	-13.8112	-6.37926	-4.45351
  95	1	1	-0.357291	-14.3411	-5.49581	-1.93934
  96	1	3	0.733725	-14.1849	-8.00033	-2.38946
  97	1	2	0.091627	-14.976	-4.59997	-1.95641
  98	1	2	0.097893	-13.3881	-5.22215	-2.41228
  99	1	2	0.10238	-14.0948	-5.74769	-0.902334
 100	1	4	-0.43098	-12.8343	-7.79645	-2.50679
 101	1	1	0.017514	-11.9342	-8.896	-2.26484
 102	1	5	0.102507	-12.1572	-9.73673	-2.93615
 103	1	5	0.044787	-12.0283	-9.24385	-1.22763
 104	1	5	0.053996	-10.8976	-8.57831	-2.43281
 105	1	6	-0.57928	-14.6556	-9.10429	-2.17015
 106	1	1	-0.064235	-14.9721	-6.67963	-6.69897
 107	1	1	0.139042	-15.6414	-7.15151	-5.34648
 108	1	2	0.015001	-14.0166	-7.21675	-6.76624
 109	1	2	0.033313	-14.6729	-5.63009	-6.57674
 110	1	1	-0.357291	-15.3768	-8.68617	-5.16958
 111	1	3	0.733725	-17.1547	-6.76858	-5.31918
 112	1	2	0.091627	-15.9105	-9.09242	-4.30381
 113	1	2	0.097893	-14.307	-8.90031	-5.05032
 114	1	2	0.10238	-15.7206	-9.27864	-6.01988
 115	1	4	-0.43098	-17.9985	-7.84619	-5.3169
 116	1	1	0.017514	-19.4204	-7.6174	-5.35881
 117	1	5	0.102507	-19.7387	-6.98216	-4.52108
 118	1	5	0.044787	-19.9571	-8.57232	-5.29997
 119	1	5	0.053996	-19.6967	-7.11959	-6.29819
 120	1	6	-0.57928	-17.5512	-5.61516	-5.25919
 121	1	1	-0.064235	-14.5619	-6.39254	-9.15648
 122	1	1	0.139042	-15.6898	-6.77258	-8.10876
 123	1	2	0.015001	-13.6495	-6.92669	-8.88824
 124	1	2	0.033313	-14.3096	-5.34605	-8.93945
 125	1	1	-0.357291	-16.2379	-8.21134	-8.355
 126	1	3	0.733725	-16.8535	-5.72921	-8.17099
 127	1	2	0.091627	-16.7839	-8.27667	-9.30088
 128	1	2	0.097893	-16.9811	-8.49051	-7.60156
 129	1	2	0.10238	-15.4362	-8.96052	-8.35234
 130	1	4	-0.43098	-16.4295	-4.44662	-7.94224
 131	1	1	0.017514	-17.4092	-3.39217	-7.87552
 132	1	5	0.102507	-18.147	-3.60492	-7.08837
 133	1	5	0.044787	-17.9362	-3.29528	-8.83342
 134	1	5	0.053996	-16.921	-2.43715	-7.64487
 135	1	6	-0.57928	-18.0227	-6.01862	-8.37977
 136	1	1	-0.064235	-14.6283	-7.95832	-11.3313
 137	1	1	0.139042	-14.7227	-6.49169	-10.7303
 138	1	2	0.015001	-15.2785	-8.59654	-10.7365
 139	1	2	0.033313	-15.1261	-7.93156	-12.3099
 140	1	1	-0.357291	-16.1307	-5.94216	-11.134
 141	1	3	0.733725	-13.6506	-5.55818	-11.3842
 142	1	2	0.091627	-16.2862	-4.92401	-10.7537
 143	1	2	0.097893	-16.9507	-6.57789	-10.7817
 144	1	2	0.10238	-16.2306	-5.88301	-12.2267
 145	1	4	-0.43098	-12.4857	-5.47456	-10.662
 146	1	1	0.017514	-11.4177	-4.63031	-11.1355
 147	1	5	0.102507	-11.7588	-3.58955	-11.2232
 148	1	5	0.044787	-11.0684	-4.96601	-12.1204
 149	1	5	0.053996	-10.5734	-4.66497	-10.4357
 150	1	6	-0.57928	-13.8076	-4.96836	-12.4422
 151	1	1	-0.064235	-13.7182	-10.2036	-12.0282
 152	1	1	0.139042	-13.2749	-8.75325	-11.5647
 153	1	2	0.015001	-14.1308	-10.072	-13.0369
 154	1	2	0.033313	-14.5899	-10.505	-11.4329
 155	1	1	-0.357291	-12.5089	-8.06765	-12.7578
 156	1	3	0.733725	-12.4619	-8.83841	-10.2403
 157	1	2	0.091627	-13.1891	-7.81808	-13.5828
 158	1	2	0.097893	-11.7202	-8.68213	-13.1884
 159	1	2	0.10238	-11.997	-7.15052	-12.4629
 160	1	4	-0.43098	-11.1573	-8.44352	-10.3717
 161	1	1	0.017514	-10.2976	-8.46238	-9.21719
 162	1	5	0.102507	-10.2904	-9.45933	-8.75694
 163	1	5	0.044787	-10.6451	-7.73548	-8.47178
 164	1	5	0.053996	-9.27157	-8.20417	-9.50714
 165	1	6	-0.57928	-12.9286	-9.24974	-9.18889
 166	1	1	-0.064235	-11.3437	-11.1784	-12.6297
 167	1	1	0.139042	-12.7704	-11.4784	-12.0436
 168	1	2	0.015001	-11.5043	-10.7867	-13.6409
 169	1	2	0.033313	-10.9217	-10.3481	-12.0578
 170	1	1	-0.357291	-12.6344	-12.0501	-10.5947
 171	1	3	0.733725	-13.5235	-12.503	-12.9548
 172	1	2	0.091627	-11.939	-11.4743	-9.97498
 173	1	2	0.097893	-12.2795	-13.089	-10.6122
 174	1	2	0.10238	-13.605	-12.0725	-10.0814
 175	1	4	-0.43098	-13.4959	-12.1508	-14.2798
 176	1	1	0.017514	-14.1305	-12.9983	-15.2555
 177	1	5	0.102507	-13.6856	-14.0026	-15.2421
 178	1	5	0.044787	-14.0019	-12.5729	-16.2588
 179	1	5	0.053996	-15.2046	-13.087	-15.0476
 180	1	6	-0.57928	-14.1141	-13.4904	-12.5453
 181	1	1	-0.064235	-9.05861	-11.5503	-13.5372
 182	1	1	0.139042	-10.2003	-12.2679	-12.717
 183	1	2	0.015001	-9.51653	-11.0846	-14.4168
 184	1	2	0.033313	-8.73293	-10.7188	-12.9072
 185	1	1	-0.357291	-10.6953	-13.5479	-13.4595
 186	1	3	0.733725	-9.68118	-12.6277	-11.2872
 187	1	2	0.091627	-11.4506	-14.086	-12.8747
 188	1	2	0.097893	-9.88215	-14.2662	-13.6105
 189	1	2	0.10238	-11.1179	-13.3085	-14.4434
 190	1	4	-0.43098	-9.1808	-11.5494	-10.6032
 191	1	1	0.017514	-8.61342	-11.7619	-9.29509
 192	1	5	0.102507	-9.36479	-12.1789	-8.6102
 193	1	5	0.044787	-8.24687	-10.8138	-8.88318
 194	1	5	0.053996	-7.77038	-12.4634	-9.35358
 195	1	6	-0.57928	-9.68596	-13.7555	-10.8176
 196	1	1	-0.064235	-6.64603	-11.2021	-14.3797
 197	1	1	0.139042	-7.75715	-12.2735	-14.0444
 198	1	2	0.015001	-6.2505	-10.8279	-13.4271
 199	1	2	0.033313	-5.81904	-11.7594	-14.8272
 200	1	1	-0.357291	-7.14418	-13.1629	-12.9136
 201	1	3	0.733725	-8.01972	-13.1447	-15.3169
 202	1	2	0.091627	-6.16223	-13.5557	-13.2109
 203	1	2	0.097893	-7.77119	-14.0333	-12.6861
 204	1	2	0.10238	-6.98856	-12.5918	-11.9893
 205	1	4	-0.43098	-6.91014	-13.8541	-15.6992
 206	1	1	0.017514	-6.96938	-14.6828	-16.8764
 207	1	5	0.102507	-7.72903	-15.4674	-16.7585
 208	1	5	0.044787	-5.99645	-15.1601	-17.0485
 209	1	5	0.053996	-7.22316	-14.0802	-17.7584
 210	1	6	-0.57928	-9.05254	-13.1493	-15.9677
 211	1	1	-0.064235	-5.60206	-9.12737	-15.5795
 212	1	1	0.139042	-6.92616	-9.9452	-15.2945
 213	1	2	0.015001	-5.89267	-8.33122	-16.2757
 214	1	2	0.033313	-5.32989	-8.61173	-14.6515
 215	1	1	-0.357291	-7.6037	-10.3686	-16.642
 216	1	3	0.733725	-7.85663	-8.91201	-14.5707
 217	1	2	0.091627	-8.66313	-10.6137	-16.4956
 218	1	2	0.097893	-7.14253	-11.2418	-17.1097
 219	1	2	0.10238	-7.58644	-9.54398	-17.3669
 220	1	4	-0.43098	-7.44944	-8.60713	-13.2974
 221	1	1	0.017514	-8.24515	-7.70193	-12.5057
 222	1	5	0.102507	-8.31044	-6.71874	-12.9907
 223	1	5	0.044787	-7.79631	-7.57614	-11.5129
 224	1	5	0.053996	-9.26264	-8.09524	-12.38
 225	1	6	-0.57928	-8.84879	-8.40522	-15.0719
 226	1	1	-0.064235	-3.29922	-8.64353	-16.6673
 227	1	1	0.139042	-4.26993	-9.76768	-16.1332
 228	1	2	0.015001	-3.70992	-8.25457	-17.609
 229	1	2	0.033313	-2.38756	-9.17391	-16.944
 230	1	1	-0.357291	-4.55822	-10.6674	-17.3785
 231	1	3	0.733725	-3.50639	-10.6021	-15.053
 232	1	2	0.091627	-5.20734	-10.1592	-18.1032
 233	1	2	0.097893	-5.01567	-11.62	-17.088
 234	1	2	0.10238	-3.62925	-10.9265	-17.9054
 235	1	4	-0.43098	-2.46918	-11.3127	-15.5915
 236	1	1	0.017514	-1.57443	-12.0377	-14.7291
 237	1	5	0.102507	-1.09314	-11.3553	-14.0158
 238	1	5	0.044787	-0.791654	-12.5206	-15.3273
 239	1	5	0.053996	-2.11815	-12.8089	-14.1689
 240	1	6	-0.57928	-3.73239	-10.5715	-13.8534
 241	1	1	-0.064235	-1.75553	-6.54089	-16.5234
 242	1	1	0.139042	-2.8692	-7.40201	-15.7973
 243	1	2	0.015001	-1.45515	-5.77206	-15.7988
 244	1	2	0.033313	-2.24004	-5.96677	-17.3248
 245	1	1	-0.357291	-2.33698	-7.85076	-14.394
 246	1	3	0.733725	-4.08224	-6.41891	-15.6615
 247	1	2	0.091627	-1.67119	-8.71653	-14.4508
 248	1	2	0.097893	-1.79134	-7.03957	-13.8938
 249	1	2	0.10238	-3.15432	-8.12861	-13.7172
 250	1	4	-0.43098	-4.37011	-6.05264	-14.3721
 251	1	1	0.017514	-5.47514	-5.16466	-14.1158
 252	1	5	0.102507	-5.31163	-4.19392	-14.6031
 253	1	5	0.044787	-5.58114	-5.00135	-13.0359
 254	1	5	0.053996	-6.4105	-5.59518	-14.4972
 255	1	6	-0.57928	-4.7158	-5.99778	-16.6172
 256	1	1	-0.064235	0.592866	-5.9659	-17.2432
 257	1	1	0.139042	-0.442893	-7.15673	-17.161
 258	1	2	0.015001	0.779964	-5.64504	-16.2099
 259	1	2	0.033313	0.0734506	-5.10424	-17.6839
 260	1	1	-0.357291	-0.759394	-7.63385	-18.62
 261	1	3	0.733725	0.135573	-8.29972	-16.2706
 262	1	2	0.091627	-1.59156	-8.33596	-18.6823
 263	1	2	0.097893	0.0915644	-8.16482	-19.0588
 264	1	2	0.10238	-1.01445	-6.78739	-19.2701
 265	1	4	-0.43098	0.641283	-7.83431	-15.0866
 266	1	1	0.017514	1.29527	-8.7495	-14.1864
 267	1	5	0.102507	2.13752	-9.24616	-14.6884
 268	1	5	0.044787	0.592642	-9.51554	-13.8358
 269	1	5	0.053996	1.68439	-8.2047	-13.3173
 270	1	6	-0.57928	0.150933	-9.47826	-16.5907
 271	1	1	-0.064235	2.89594	-4.99514	-17.2707
 272	1	1	0.139042	1.99329	-6.08761	-17.975
 273	1	2	0.015001	3.05889	-5.38176	-16.2606
 274	1	2	0.033313	2.30109	-4.08296	-17.137
 275	1	1	-0.357291	1.80076	-5.7434	-19.4934
 276	1	3	0.733725	2.62838	-7.5036	-17.7627
 277	1	2	0.091627	1.30062	-4.77732	-19.6287
 278	1	2	0.097893	1.19265	-6.48543	-20.0184
 279	1	2	0.10238	2.75715	-5.71914	-20.0277
 280	1	4	-0.43098	2.61165	-8.28458	-18.8878
 281	1	1	0.017514	3.10263	-9.63736	-18.8122
 282	1	5	0.102507	4.14637	-9.65454	-18.4702
 283	1	5	0.044787	3.0485	-10.1126	-19.7995
 284	1	5	0.053996	2.49511	-10.2239	-18.1098
 285	1	6	-0.57928	3.11274	-7.88769	-16.7107
 286	1	1	-0.064235	5.12798	-3.80125	-16.6835
 287	1	1	0.139042	4.31532	-4.56959	-17.8034
 288	1	2	0.015001	5.39887	-4.52552	-15.9042
 289	1	2	0.033313	6.06974	-3.53495	-17.1726
 290	1	1	-0.357291	5.17354	-5.84238	-18.1051
 291	1	3	0.733725	4.27722	-3.6965	-19.1021
 292	1	2	0.091627	5.24001	-6.5045	-17.2314
 293	1	2	0.097893	6.2024	-5.5662	-18.3743
 294	1	2	0.10238	4.77904	-6.41511	-18.9523
 295	1	4	-0.43098	3.08003	-3.07498	-19.3368
 296	1	1	0.017514	2.93194	-2.24115	-20.5026
 297	1	5	0.102507	3.69452	-1.45026	-20.5144
 298	1	5	0.044787	1.94032	-1.77181	-20.5043
 299	1	5	0.053996	3.03701	-2.84106	-21.4159
 300	1	6	-0.57928	5.24991	-3.51846	-19.819
 301	1	1	-0.064235	5.85602	-1.72866	-15.3237
 302	1	1	0.139042	4.62268	-2.49266	-15.9496
 303	1	2	0.015001	5.46112	-0.822679	-14.846
 304	1	2	0.033313	6.4254	-1.35919	-16.177
 305	1	1	-0.357291	4.02125	-1.47373	-16.9708
 306	1	3	0.733725	3.55053	-2.77106	-14.8446
 307	1	2	0.091627	4.66623	-1.34173	-17.8491
 308	1	2	0.097893	3.89873	-0.480956	-16.5169
 309	1	2	0.10238	3.01809	-1.77504	-17.2914
 310	1	4	-0.43098	3.00444	-1.61808	-14.3419
 311	1	1	0.017514	1.97959	-1.71007	-13.332
 312	1	5	0.102507	2.33732	-2.28216	-12.4647
 313	1	5	0.044787	1.09108	-2.21204	-13.7369
 314	1	5	0.053996	1.68998	-0.706783	-12.9956
 315	1	6	-0.57928	3.23911	-3.87086	-14.4219
 316	1	1	-0.064235	7.72555	-1.26472	-13.5886
 317	1	1	0.139042	6.86574	-2.39109	-14.2963
 318	1	2	0.015001	8.09924	-1.68476	-12.646
 319	1	2	0.033313	7.01617	-0.494409	-13.2574
 320	1	1	-0.357291	6.05161	-3.0444	-13.1306
 321	1	3	0.733725	7.78552	-3.4766	-14.9427
 322	1	2	0.091627	6.71459	-3.36994	-12.3172
 323	1	2	0.097893	5.31636	-2.3529	-12.6996
 324	1	2	0.10238	5.53965	-3.95685	-13.4585
 325	1	4	-0.43098	8.26113	-3.10981	-16.1695
 326	1	1	0.017514	9.11813	-4.01305	-16.895
 327	1	5	0.102507	9.40591	-3.57132	-17.8576
 328	1	5	0.044787	8.60144	-4.96296	-17.0851
 329	1	5	0.053996	10.0319	-4.21799	-16.3226
 330	1	6	-0.57928	8.04766	-4.55043	-14.4256
 331	1	1	-0.064235	9.30597	0.648655	-13.2429
 332	1	1	0.139042	8.954	-0.516204	-14.2606
 333	1	2	0.015001	9.16126	0.263741	-12.2243
 334	1	2	0.033313	8.50753	1.39539	-13.3573
 335	1	1	-0.357291	8.51189	0.123226	-15.6194
 336	1	3	0.733725	10.154	-1.4934	-14.4743
 337	1	2	0.091627	9.27166	0.781677	-16.0398
 338	1	2	0.097893	7.58523	0.701906	-15.5219
 339	1	2	0.10238	8.38188	-0.636616	-16.3952
 340	1	4	-0.43098	10.3517	-2.34075	-13.4155
 341	1	1	0.017514	11.4191	-3.30979	-13.4896
 342	1	5	0.102507	12.3891	-2.81318	-13.6382
 343	1	5	0.044787	11.2508	-3.9997	-14.3262
 344	1	5	0.053996	11.4649	-3.89686	-12.5638
 345	1	6	-0.57928	10.8378	-1.51965	-15.4847
 346	1	1	-0.064235	11.7499	0.593873	-12.419
 347	1	1	0.139042	10.6758	1.43875	-13.2055
 348	1	2	0.015001	11.7164	-0.429465	-12.7828
 349	1	2	0.033313	11.4043	0.506239	-11.3801
 350	1	1	-0.357291	11.1761	1.82115	-14.637
 351	1	3	0.733725	10.3449	2.70746	-12.3485
 352	1	2	0.091627	11.459	0.943009	-15.2291
 353	1	2	0.097893	12.0441	2.48721	-14.6064
 354	1	2	0.10238	10.4079	2.37862	-15.1863
 355	1	4	-0.43098	10.1539	3.84314	-13.0906
 356	1	1	0.017514	9.77352	5.06229	-12.422
 357	1	5	0.102507	10.5196	5.34017	-11.6649
 358	1	5	0.044787	8.80268	4.93706	-11.9246
 359	1	5	0.053996	9.68946	5.88047	-13.148
 360	1	6	-0.57928	10.1783	2.68106	-11.1379
 361	1	1	-0.064235	13.9126	0.0855167	-11.2812
 362	1	1	0.139042	13.2751	0.99635	-12.3967
 363	1	2	0.015001	13.511	0.436398	-10.3214
 364	1	2	0.033313	13.4839	-0.909586	-11.4315
 365	1	1	-0.357291	13.4189	2.50549	-11.9914
 366	1	3	0.733725	13.8976	0.632458	-13.7773
 367	1	2	0.091627	12.928	3.1746	-12.7041
 368	1	2	0.097893	14.4585	2.83973	-11.9762
 369	1	2	0.10238	12.9901	2.69707	-10.9984
 370	1	4	-0.43098	14.5608	1.6701	-14.3707
 371	1	1	0.017514	15.2293	1.43318	-15.6238
 372	1	5	0.102507	14.5217	1.0612	-16.3775
 373	1	5	0.044787	16.0237	0.686557	-15.4925
 374	1	5	0.053996	15.6821	2.362	-15.9915
 375	1	6	-0.57928	13.7769	-0.467756	-14.2925
 376	1	1	-0.064235	15.7806	-0.569109	-9.62915
 377	1	1	0.139042	15.466	-0.133771	-11.115
 378	1	2	0.015001	16.8606	-0.431999	-9.52363
 379	1	2	0.033313	15.3231	0.190506	-8.98376
 380	1	1	-0.357291	15.9833	-1.23033	-12.1013
 381	1	3	0.733725	16.2718	1.18751	-11.3544
 382	1	2	0.091627	15.9979	-0.87395	-13.1374
 383	1	2	0.097893	15.3738	-2.14071	-12.086
 384	1	2	0.10238	17.0204	-1.50325	-11.8709
 385	1	4	-0.43098	16.2326	2.05057	-10.2875
 386	1	1	0.017514	17.0174	3.25875	-10.3287
 387	1	5	0.102507	18.0836	3.02089	-10.4483
 388	1	5	0.044787	16.8889	3.82258	-9.39638
 389	1	5	0.053996	16.7062	3.89279	-11.1689
 390	1	6	-0.57928	16.9301	1.42125	-12.3552
 391	1	1	-0.064235	15.2247	-1.80001	-7.42856
 392	1	1	0.139042	15.4345	-1.97506	-8.99319
 393	1	2	0.015001	14.4924	-0.993596	-7.31584
 394	1	2	0.033313	14.7101	-2.7006	-7.06877
 395	1	1	-0.357291	16.5939	-2.9864	-9.2738
 396	1	3	0.733725	14.1024	-2.56629	-9.56613
 397	1	2	0.091627	16.366	-3.96274	-8.82589
 398	1	2	0.097893	17.5614	-2.65342	-8.88716
 399	1	2	0.10238	16.7154	-3.17636	-10.3454
 400	1	4	-0.43098	12.977	-1.91258	-9.13068
 401	1	1	0.017514	11.69	-2.36897	-9.60345
 402	1	5	0.102507	11.653	-2.3661	-10.7017
 403	1	5	0.044787	10.8923	-1.71677	-9.22835
 404	1	5	0.053996	11.4971	-3.39331	-9.25769
 405	1	6	-0.57928	14.0468	-3.47603	-10.3803
 406	1	1	-0.064235	15.8275	-0.83654	-5.07967
 407	1	1	0.139042	16.3956	-1.48821	-6.40596
 408	1	2	0.015001	16.6904	-0.69287	-4.41636
 409	1	2	0.033313	15.5084	0.185405	-5.32629
 410	1	1	-0.357291	17.3814	-0.398234	-6.95091
 411	1	3	0.733725	17.2092	-2.7767	-6.05353
 412	1	2	0.091627	18.0719	-0.0616921	-6.16576
 413	1	2	0.097893	16.8539	0.496353	-7.30382
 414	1	2	0.10238	18.0195	-0.784685	-7.7519
 415	1	4	-0.43098	18.3399	-2.50313	-5.32938
 416	1	1	0.017514	19.1742	-3.59395	-4.89388
 417	1	5	0.102507	19.4832	-4.2121	-5.74809
 418	1	5	0.044787	18.6288	-4.22844	-4.18325
 419	1	5	0.053996	20.0729	-3.20645	-4.39813
 420	1	6	-0.57928	16.894	-3.91319	-6.36767
 421	1	1	-0.064235	14.5732	-0.58015	-2.90678
 422	1	1	0.139042	14.6754	-1.48049	-4.20856
 423	1	2	0.015001	15.5935	-0.369228	-2.56053
 424	1	2	0.033313	14.196	0.403304	-3.21764
 425	1	1	-0.357291	15.0479	-2.94952	-3.83704
 426	1	3	0.733725	13.3256	-1.42835	-4.9929
 427	1	2	0.091627	14.2984	-3.40914	-3.18528
 428	1	2	0.097893	16.0261	-3.01044	-3.34115
 429	1	2	0.10238	15.0621	-3.59337	-4.72229
 430	1	4	-0.43098	12.9634	-0.154792	-5.34666
 431	1	1	0.017514	11.7623	0.0408292	-6.11955
 432	1	5	0.102507	11.827	-0.494225	-7.0771
 433	1	5	0.044787	11.616	1.10853	-6.3252
 434	1	5	0.053996	10.8877	-0.332804	-5.57099
 435	1	6	-0.57928	12.6766	-2.41183	-5.31221
 436	1	1	-0.064235	13.6802	0.257329	-0.699778
 437	1	1	0.139042	13.7546	-1.02414	-1.62925
 438	1	2	0.015001	14.6145	0.819894	-0.826171
 439	1	2	0.033313	12.9187	0.91131	-1.14546
 440	1	1	-0.357291	12.3067	-1.42258	-2.08228
 441	1	3	0.733725	14.5269	-2.17413	-0.908855
 442	1	2	0.091627	11.64	-1.62736	-1.24209
 443	1	2	0.097893	11.8383	-0.627966	-2.67727
 444	1	2	0.10238	12.3065	-2.34257	-2.67851
 445	1	4	-0.43098	13.7233	-3.20547	-0.507291
 446	1	1	0.017514	14.3114	-4.30528	0.214887
 447	1	5	0.102507	15.1803	-4.70777	-0.324214
 448	1	5	0.044787	13.5759	-5.10917	0.340622
 449	1	5	0.053996	14.6406	-3.97344	1.20852
 450	1	6	-0.57928	15.7382	-2.17987	-0.751912
 451	1	1	-0.064235	13.3303	1.6988	1.34421
 452	1	1	0.139042	13.4032	0.191227	0.862121
 453	1	2	0.015001	12.7971	2.26437	0.577692
 454	1	2	0.033313	14.3526	2.07911	1.29902
 455	1	1	-0.357291	12.0637	-0.568702	1.12492
 456	1	3	0.733725	14.5941	-0.502205	1.60051
 457	1	2	0.091627	11.2365	-0.145997	0.541133
 458	1	2	0.097893	11.771	-0.554851	2.17813
 459	1	2	0.10238	12.1592	-1.63174	0.875209
 460	1	4	-0.43098	15.8077	0.0252758	1.24859
 461	1	1	0.017514	17.0114	-0.567871	1.77204
 462	1	5	0.102507	17.0213	-1.65077	1.58173
 463	1	5	0.044787	17.0845	-0.398984	2.85363
 464	1	5	0.053996	17.8893	-0.125712	1.28489
 465	1	6	-0.57928	14.4722	-1.43725	2.37775
 466	1	1	-0.064235	13.1631	3.57736	3.17578
 467	1	1	0.139042	12.7338	2.11566	2.74625
 468	1	2	0.015001	12.5668	3.80488	4.06802
 469	1	2	0.033313	14.189	3.51151	3.55162
 470	1	1	-0.357291	13.3287	1.20527	3.87593
 471	1	3	0.733725	11.17	2.03618	2.7468
 472	1	2	0.091627	14.4256	1.17841	3.83646
 473	1	2	0.097893	12.9613	0.175009	3.83089
 474	1	2	0.10238	13.0542	1.58111	4.87113
 475	1	4	-0.43098	10.6405	2.01176	4.01151
 476	1	1	0.017514	9.20956	1.95829	4.18001
 477	1	5	0.102507	8.78929	1.08374	3.66432
 478	1	5	0.044787	8.74153	2.86314	3.77106
 479	1	5	0.053996	8.95885	1.8879	5.24597
 480	1	6	-0.57928	10.4712	2.02506	1.74504
 481	1	1	-0.064235	12.9671	6.15823	3.11928
 482	1	1	0.139042	13.0762	4.85031	2.23533
 483	1	2	0.015001	12.7186	6.9828	2.43704
 484	1	2	0.033313	12.0695	6.04339	3.74295
 485	1	1	-0.357291	11.7448	4.84691	1.41122
 486	1	3	0.733725	14.2804	4.99796	1.24725
 487	1	2	0.091627	11.7113	4.05785	0.655921
 488	1	2	0.097893	11.6333	5.78418	0.847932
 489	1	2	0.10238	10.8602	4.74968	2.05318
 490	1	4	-0.43098	15.3782	4.25005	1.5799
 491	1	1	0.017514	16.6028	4.40817	0.833955
 492	1	5	0.102507	16.4249	4.30677	-0.244889
 493	1	5	0.044787	17.332	3.64983	1.14481
 494	1	5	0.053996	17.0362	5.39963	1.02037
 495	1	6	-0.57928	14.2816	5.77049	0.301598
 496	1	1	-0.064235	13.5072	7.93383	4.81
 497	1	1	0.139042	14.1268	6.6928	4.05615
 498	1	2	0.015001	12.6727	7.56317	5.41447
 499	1	2	0.033313	13.0327	8.53938	4.03465
 500	1	1	-0.357291	15.3324	7.18993	3.19511
 501	1	3	0.733725	14.5584	5.59798	5.07937
 502	1	2	0.091627	15.0032	7.84088	2.37341
 503	1	2	0.097893	15.8985	6.35898	2.77304
 504	1	2	0.10238	16.0669	7.74494	3.78411
 505	1	4	-0.43098	13.5887	5.31554	6.00667
 506	1	1	0.017514	13.8813	4.36605	7.05198
 507	1	5	0.102507	14.7539	4.69179	7.63552
 508	1	5	0.044787	14.1	3.37895	6.62477
 509	1	5	0.053996	13.0242	4.27256	7.73047
 510	1	6	-0.57928	15.6548	5.06052	5.08817
 511	1	1	-0.064235	13.4528	9.62569	6.77267
 512	1	1	0.139042	14.3728	8.90113	5.71843
 513	1	2	0.015001	12.9596	8.83273	7.33549
 514	1	2	0.033313	14.1155	10.0625	7.52951
 515	1	1	-0.357291	15.3727	8.06925	6.59917
 516	1	3	0.733725	15.1273	9.96963	4.86372
 517	1	2	0.091627	15.9164	8.71136	7.30488
 518	1	2	0.097893	16.1419	7.56576	6.00288
 519	1	2	0.10238	14.8501	7.31822	7.20376
 520	1	4	-0.43098	16.2424	10.4586	5.4913
 521	1	1	0.017514	17.0218	11.4871	4.85001
 522	1	5	0.102507	17.9865	11.6042	5.36005
 523	1	5	0.044787	16.487	12.4447	4.88701
 524	1	5	0.053996	17.2161	11.2337	3.799
 525	1	6	-0.57928	14.7821	10.3305	3.7514
 526	1	1	-0.064235	11.3601	10.8753	7.59611
 527	1	1	0.139042	12.3881	10.7413	6.39494
 528	1	2	0.015001	11.0201	11.9192	7.62115
 529	1	2	0.033313	11.9417	10.7725	8.52184
 530	1	1	-0.357291	11.6392	10.4875	5.04547
 531	1	3	0.733725	13.1207	12.125	6.28177
 532	1	2	0.091627	12.3159	10.5816	4.18878
 533	1	2	0.097893	10.8836	11.2643	4.87427
 534	1	2	0.10238	11.1465	9.51288	4.98409
 535	1	4	-0.43098	13.8065	12.4702	7.41802
 536	1	1	0.017514	14.4926	13.739	7.45082
 537	1	5	0.102507	14.9849	13.8849	8.42022
 538	1	5	0.044787	13.7813	14.5613	7.29505
 539	1	5	0.053996	15.2542	13.7851	6.66106
 540	1	6	-0.57928	13.0513	12.8671	5.31451
 541	1	1	-0.064235	9.42321	10.2988	9.14345
 542	1	1	0.139042	10.0651	9.96298	7.72947
 543	1	2	0.015001	10.2257	10.2804	9.89153
 544	1	2	0.033313	9.1028	11.3469	9.0927
 545	1	1	-0.357291	10.4436	8.44955	7.65861
 546	1	3	0.733725	9.05374	10.3069	6.58703
 547	1	2	0.091627	10.9714	8.20576	6.73538
 548	1	2	0.097893	9.5473	7.82327	7.6123
 549	1	2	0.10238	11.0601	8.13509	8.50962
 550	1	4	-0.43098	8.81745	11.6482	6.4632
 551	1	1	0.017514	7.9192	12.0984	5.43057
 552	1	5	0.102507	8.26965	11.7698	4.44222
 553	1	5	0.044787	7.85933	13.1935	5.43365
 554	1	5	0.053996	6.91332	11.6907	5.59703
 555	1	6	-0.57928	8.56352	9.47156	5.83939
 556	1	1	-0.064235	7.50475	10.2425	10.9311
 557	1	1	0.139042	8.22071	9.46451	9.74543
 558	1	2	0.015001	6.61019	9.65047	11.1648
 559	1	2	0.033313	7.11121	11.1635	10.4926
 560	1	1	-0.357291	8.70873	8.06203	10.2637
 561	1	3	0.733725	7.09158	9.33445	8.66739
 562	1	2	0.091627	9.70317	8.11267	10.7162
 563	1	2	0.097893	8.78151	7.30499	9.47919
 564	1	2	0.10238	8.00206	7.64295	10.99
 565	1	4	-0.43098	6.7882	8.04611	8.31676
 566	1	1	0.017514	5.76556	7.81467	7.32894
 567	1	5	0.102507	5.99497	8.3575	6.40068
 568	1	5	0.044787	4.79141	8.15515	7.70337
 569	1	5	0.053996	5.69781	6.74392	7.10067
 570	1	6	-0.57928	6.51312	10.2981	8.19024
 571	1	1	-0.064235	7.01246	11.1629	13.2875
 572	1	1	0.139042	8.16887	10.6432	12.3192
 573	1	2	0.015001	7.26822	10.8794	14.3126
 574	1	2	0.033313	6.1229	10.5522	13.089
 575	1	1	-0.357291	8.7258	9.37817	13.0606
 576	1	3	0.733725	9.3042	11.7021	12.101
 577	1	2	0.091627	7.98411	8.57148	13.1058
 578	1	2	0.097893	9.64385	9.00246	12.6025
 579	1	2	0.10238	9.01246	9.61943	14.0937
 580	1	4	-0.43098	10.4443	11.4637	12.8233
 581	1	1	0.017514	11.5641	12.3613	12.6749
 582	1	5	0.102507	12.4197	12.0047	13.2619
 583	1	5	0.044787	11.2962	13.3673	13.0228
 584	1	5	0.053996	11.8685	12.4288	11.6217
 585	1	6	-0.57928	9.23346	12.6199	11.3032
 586	1	1	-0.064235	5.21109	12.7896	14.2
 587	1	1	0.139042	6.54871	12.6738	13.3522
 588	1	2	0.015001	4.69267	13.6986	13.8671
 589	1	2	0.033313	4.5667	11.9759	13.8423
 590	1	1	-0.357291	6.10798	13.1684	11.9327
 591	1	3	0.733725	7.67918	13.5843	13.9201
 592	1	2	0.091627	6.9315	13.2243	11.2192
 593	1	2	0.097893	5.71528	14.1937	11.9826
 594	1	2	0.10238	5.32107	12.5343	11.5043
 595	1	4	-0.43098	8.38544	12.961	14.9113
 596	1	1	0.017514	9.38953	13.6842	15.6447
 597	1	5	0.102507	8.9549	14.5755	16.117
 598	1	5	0.044787	10.2014	13.9988	14.978
 599	1	5	0.053996	9.80677	13.044	16.4323
 600	1	6	-0.57928	7.849	14.7535	13.6153
 601	1	1	-0.064235	3.54582	12.7151	16.0441
 602	1	1	0.139042	5.10523	12.8356	15.7825
 603	1	2	0.015001	3.11671	13.5809	15.5252
 604	1	2	0.033313	3.16432	11.8574	15.4739
 605	1	1	-0.357291	5.57921	14.251	16.2828
 606	1	3	0.733725	5.88507	11.6714	16.4675
 607	1	2	0.091627	6.39085	14.6778	15.6994
 608	1	2	0.097893	5.95815	14.2227	17.3106
 609	1	2	0.10238	4.77085	14.9909	16.2415
 610	1	4	-0.43098	5.36453	10.4396	16.1762
 611	1	1	0.017514	5.98517	9.27042	16.7537
 612	1	5	0.102507	6.97593	9.10097	16.3111
 613	1	5	0.044787	5.36343	8.38411	16.576
 614	1	5	0.053996	6.11048	9.3917	17.8385
 615	1	6	-0.57928	6.82609	11.8237	17.2302
 616	1	1	-0.064235	1.34675	13.0044	17.2016
 617	1	1	0.139042	2.86185	12.6216	17.4697
 618	1	2	0.015001	0.932118	12.1889	16.5927
 619	1	2	0.033313	1.31159	13.8652	16.5226
 620	1	1	-0.357291	3.52447	13.6004	18.4926
 621	1	3	0.733725	2.90388	11.1263	17.9344
 622	1	2	0.091627	4.5738	13.338	18.6621
 623	1	2	0.097893	3.07335	13.5425	19.4848
 624	1	2	0.10238	3.46258	14.6439	18.1603
 625	1	4	-0.43098	3.60037	10.9124	19.0939
 626	1	1	0.017514	3.62422	9.5802	19.6471
 627	1	5	0.102507	4.00493	8.85972	18.9107
 628	1	5	0.044787	2.61144	9.27081	19.9376
 629	1	5	0.053996	4.26721	9.54824	20.5351
 630	1	6	-0.57928	2.32999	10.2231	17.3434
 631	1	1	-0.064235	0.502752	14.8205	18.8395
 632	1	1	0.139042	0.293197	13.3206	18.3336
 633	1	2	0.015001	0.949215	15.4051	18.0249
 634	1	2	0.033313	1.28339	14.7848	19.6066
 635	1	1	-0.357291	0.458231	12.2846	19.5073
 636	1	3	0.733725	-1.08904	13.1333	17.6118
 637	1	2	0.091627	-0.323666	12.3744	20.2668
 638	1	2	0.097893	1.40776	12.3743	20.0397
 639	1	2	0.10238	0.383652	11.257	19.1261
 640	1	4	-0.43098	-1.97011	12.3369	18.2994
 641	1	1	0.017514	-3.27176	12.0541	17.7515
 642	1	5	0.102507	-3.18169	11.4989	16.8086
 643	1	5	0.044787	-3.82399	12.9837	17.5634
 644	1	5	0.053996	-3.84805	11.4435	18.4569
 645	1	6	-0.57928	-1.35269	13.6042	16.5152
 646	1	1	-0.064235	-1.36449	14.8575	20.5425
 647	1	1	0.139042	-0.666747	15.7156	19.4372
 648	1	2	0.015001	-0.568929	14.454	21.1835
 649	1	2	0.033313	-1.76601	14.0111	19.9941
 650	1	1	-0.357291	-1.63994	16.1165	18.2749
 651	1	3	0.733725	-0.0318304	17.016	20.0354
 652	1	2	0.091627	-2.3873	15.346	18.0629
 653	1	2	0.097893	-1.08698	16.3122	17.3464
 654	1	2	0.10238	-2.19486	17.0363	18.4913