pySIMM System Object

497 atoms
496 bonds
924 angles
1245 dihedrals
33 impropers

6 atom types
7 bond types
11 angle types
9 dihedral types
1 improper types

-109.983981 109.983981 xlo xhi
-109.983981 109.983981 ylo yhi
-109.983981 109.983981 zlo zhi

Masses

   1	12.01	# c3
   2	1.008	# hc
   3	12.01	# c
   4	16.0	# os
   5	1.008	# h1
   6	16.0	# o

Pair Coeffs

   1	0.1094	3.3996695084235347	# c3
   2	0.0157	2.649532787749369	# hc
   3	0.086	3.3996695084235347	# c
   4	0.17	3.0000123434657784	# os
   5	0.0157	2.471353044121301	# h1
   6	0.21	2.959921901149463	# o

Bond Coeffs

   1	300.9	1.5375	# c3,c3
   2	330.6	1.0969	# c3,hc
   3	637.7	1.2183	# c,o
   4	330.6	1.0969	# c3,h1
   5	308.6	1.4316	# c3,os
   6	313.0	1.5241	# c,c3
   7	390.8	1.3584	# c,os

Angle Coeffs

   1	46.93	108.77	# c,c3,hc
   2	67.4	123.2	# c3,c,o
   3	75.32	123.25	# o,c,os
   4	39.24	108.46	# h1,c3,h1
   5	63.27	111.04	# c,c3,c3
   6	46.34	109.8	# c3,c3,hc
   7	50.8	109.78	# h1,c3,os
   8	63.28	115.98	# c,os,c3
   9	62.86	111.51	# c3,c3,c3
  10	39.4	107.58	# hc,c3,hc
  11	68.89	110.72	# c3,c,os

Dihedral Coeffs

   1	1	0.3833333333333333	3	0	# X,c3,os,X
   2	1	0.0	2	180	# X,c,c3,X
   3	1	0.15	3	0	# hc,c3,c3,hc
   4	3	0.8	1	0	0.0	2	0	0.08	3	180	# hc,c3,c,o
   5	3	2.7	2	180	0.0	1	0	1.15	3	0	# c3,c,os,c3
   6	1	0.16	3	0	# hc,c3,c3,c3
   7	2	2.7	2	180	1.4	1	180	# o,c,os,c3
   8	1	0.15555555555555556	3	0	# X,c3,c3,X
   9	3	0.18	3	0	0.25	2	180	0.2	1	180	# c3,c3,c3,c3

Improper Coeffs

   1	10.5	-1	2	# c,X,X,o

Atoms

   1	1	1	-0.064235	10.6503	6.87427	-10.8993
   2	1	1	0.139042	11.6311	6.84013	-12.1196
   3	1	2	0.015001	9.89616	7.65428	-11.0701
   4	1	2	0.033313	11.2082	7.21294	-10.016
   5	1	1	-0.357291	13.0438	7.35492	-11.7182
   6	1	3	0.733725	11.0424	7.55493	-13.359
   7	1	2	0.091627	13.0068	8.40332	-11.3949
   8	1	2	0.097893	13.7347	7.28619	-12.5685
   9	1	2	0.10238	13.4599	6.75652	-10.8967
  10	1	4	-0.43098	11.2117	8.91182	-13.324
  11	1	1	0.017514	10.7402	9.69762	-14.4363
  12	1	5	0.102507	11.1999	9.35568	-15.3743
  13	1	5	0.044787	10.9952	10.7538	-14.2872
  14	1	5	0.053996	9.65011	9.60941	-14.5322
  15	1	6	-0.57928	10.5163	6.96612	-14.2925
  16	1	1	-0.064235	9.12166	5.79441	-9.20367
  17	1	1	0.139042	9.93181	5.52566	-10.5386
  18	1	2	0.015001	9.86794	6.13753	-8.48728
  19	1	2	0.033313	8.49672	6.68154	-9.37244
  20	1	1	-0.357291	8.98671	5.17206	-11.7362
  21	1	3	0.733725	11.0658	4.48364	-10.2708
  22	1	2	0.091627	8.19053	5.91904	-11.8482
  23	1	2	0.097893	8.51819	4.19148	-11.6323
  24	1	2	0.10238	9.53168	5.12607	-12.6865
  25	1	4	-0.43098	11.3368	3.65607	-11.3282
  26	1	1	0.017514	12.4463	2.74047	-11.2231
  27	1	5	0.102507	13.3734	3.28314	-10.9899
  28	1	5	0.044787	12.5862	2.20546	-12.1701
  29	1	5	0.053996	12.2672	2.00671	-10.4269
  30	1	6	-0.57928	11.7512	4.495	-9.26104
  31	1	1	-0.064235	7.85965	5.13395	-6.98881
  32	1	1	0.139042	8.20241	4.71521	-8.48466
  33	1	2	0.015001	7.35901	4.26611	-6.54546
  34	1	2	0.033313	7.07728	5.90217	-7.02408
  35	1	1	-0.357291	6.80304	4.70832	-9.19246
  36	1	3	0.733725	8.75938	3.24641	-8.49937
  37	1	2	0.091627	6.11191	4.02992	-8.67441
  38	1	2	0.097893	6.85222	4.3694	-10.2308
  39	1	2	0.10238	6.34504	5.70664	-9.19401
  40	1	4	-0.43098	8.83337	2.72684	-9.76133
  41	1	1	0.017514	9.23216	1.35607	-9.95301
  42	1	5	0.102507	10.2177	1.17426	-9.50431
  43	1	5	0.044787	9.28731	1.13035	-11.0254
  44	1	5	0.053996	8.50568	0.676795	-9.48864
  45	1	6	-0.57928	8.90904	2.53649	-7.51831
  46	1	1	-0.064235	8.46136	5.37468	-4.46772
  47	1	1	0.139042	8.94493	5.64032	-5.95009
  48	1	2	0.015001	8.25333	4.29729	-4.42058
  49	1	2	0.033313	9.33563	5.5087	-3.81559
  50	1	1	-0.357291	10.2647	4.79814	-6.04517
  51	1	3	0.733725	9.25507	7.15367	-6.17215
  52	1	2	0.091627	10.0964	3.75147	-5.7642
  53	1	2	0.097893	11.0325	5.17607	-5.35783
  54	1	2	0.10238	10.7158	4.80674	-7.03678
  55	1	4	-0.43098	10.3092	7.60006	-5.41904
  56	1	1	0.017514	10.6849	8.98899	-5.49965
  57	1	5	0.102507	10.9044	9.27251	-6.53821
  58	1	5	0.044787	11.5776	9.1736	-4.88953
  59	1	5	0.053996	9.87039	9.62573	-5.12994
  60	1	6	-0.57928	8.63414	7.88456	-6.92897
  61	1	1	-0.064235	7.16325	5.40435	-2.33406
  62	1	1	0.139042	7.26672	6.12526	-3.74458
  63	1	2	0.015001	7.31597	4.33227	-2.51136
  64	1	2	0.033313	8.05263	5.71169	-1.76689
  65	1	1	-0.357291	7.67691	7.62236	-3.52723
  66	1	3	0.733725	5.95028	6.01377	-4.56808
  67	1	2	0.091627	8.68516	7.71224	-3.10323
  68	1	2	0.097893	6.99621	8.15402	-2.8612
  69	1	2	0.10238	7.6439	8.18925	-4.46451
  70	1	4	-0.43098	5.59619	4.71806	-4.82629
  71	1	1	0.017514	4.43286	4.47244	-5.64208
  72	1	5	0.102507	3.54125	4.93138	-5.19027
  73	1	5	0.044787	4.26273	3.39321	-5.74066
  74	1	5	0.053996	4.57285	4.896	-6.64506
  75	1	6	-0.57928	5.3431	6.97149	-5.01917
  76	1	1	-0.064235	6.42312	4.69666	-0.0521011
  77	1	1	0.139042	5.9252	5.475	-1.34839
  78	1	2	0.015001	6.9025	3.795	-0.419582
  79	1	2	0.033313	7.26233	5.2716	0.36058
  80	1	1	-0.357291	5.58191	6.94955	-0.979714
  81	1	3	0.733725	4.696	4.78013	-2.01304
  82	1	2	0.091627	5.24218	7.50619	-1.86106
  83	1	2	0.097893	6.43744	7.47182	-0.532565
  84	1	2	0.10238	4.73981	6.99885	-0.283368
  85	1	4	-0.43098	4.84774	3.42588	-2.12429
  86	1	1	0.017514	3.7481	2.63669	-2.62904
  87	1	5	0.102507	3.37165	3.0383	-3.57801
  88	1	5	0.044787	2.91789	2.63466	-1.91188
  89	1	5	0.053996	4.06879	1.60038	-2.79052
  90	1	6	-0.57928	3.70549	5.37273	-2.41149
  91	1	1	-0.064235	6.0965	3.11722	2.07225
  92	1	1	0.139042	5.50038	4.29268	1.17445
  93	1	2	0.015001	6.69507	3.57014	2.87017
  94	1	2	0.033313	5.23747	2.69763	2.59903
  95	1	1	-0.357291	5.44517	5.51004	2.16678
  96	1	3	0.733725	4.04461	3.8922	0.759072
  97	1	2	0.091627	6.45097	5.81171	2.48926
  98	1	2	0.097893	4.87554	5.24943	3.06911
  99	1	2	0.10238	4.96545	6.39536	1.74173
 100	1	4	-0.43098	3.22436	4.97663	0.602662
 101	1	1	0.017514	1.84945	4.77884	0.215976
 102	1	5	0.102507	1.78838	4.31344	-0.777588
 103	1	5	0.044787	1.33032	5.74416	0.175799
 104	1	5	0.053996	1.33436	4.13359	0.939373
 105	1	6	-0.57928	3.63124	2.74705	0.668001
 106	1	1	-0.064235	7.00036	0.71473	2.58637
 107	1	1	0.139042	6.95306	1.89909	1.53114
 108	1	2	0.015001	7.74051	-0.000109956	2.21601
 109	1	2	0.033313	6.04877	0.187328	2.50398
 110	1	1	-0.357291	6.30193	1.22583	0.271548
 111	1	3	0.733725	8.4177	2.35801	1.21814
 112	1	2	0.091627	6.88191	0.348365	-0.0433509
 113	1	2	0.097893	6.23744	1.8719	-0.603985
 114	1	2	0.10238	5.28483	0.873163	0.483761
 115	1	4	-0.43098	9.21373	1.33196	0.778864
 116	1	1	0.017514	10.6143	1.57263	0.539173
 117	1	5	0.102507	11.113	0.641621	0.240295
 118	1	5	0.044787	11.0995	1.94682	1.45056
 119	1	5	0.053996	10.7473	2.31386	-0.259266
 120	1	6	-0.57928	8.84423	3.4892	1.39659
 121	1	1	-0.064235	7.61435	-0.425016	4.89644
 122	1	1	0.139042	7.30097	0.926352	4.12279
 123	1	2	0.015001	7.45139	-0.209053	5.96098
 124	1	2	0.033313	8.69741	-0.59957	4.83286
 125	1	1	-0.357291	8.60814	1.77431	4.27368
 126	1	3	0.733725	6.12925	1.64468	4.87573
 127	1	2	0.091627	8.47443	2.812	3.94953
 128	1	2	0.097893	9.44249	1.34019	3.70677
 129	1	2	0.10238	8.91719	1.8261	5.327
 130	1	4	-0.43098	4.88657	1.21398	4.501
 131	1	1	0.017514	3.71286	1.77859	5.11519
 132	1	5	0.102507	3.67233	2.86371	4.94963
 133	1	5	0.044787	3.71697	1.58764	6.19612
 134	1	5	0.053996	2.81145	1.32477	4.68393
 135	1	6	-0.57928	6.29039	2.5038	5.72776
 136	1	1	-0.064235	7.40075	-2.78804	5.74458
 137	1	1	0.139042	6.94311	-1.82413	4.57441
 138	1	2	0.015001	8.49979	-2.78949	5.72404
 139	1	2	0.033313	7.14935	-2.29057	6.69128
 140	1	1	-0.357291	5.38838	-1.70871	4.58293
 141	1	3	0.733725	7.54468	-2.33624	3.22713
 142	1	2	0.091627	5.00295	-1.08913	3.77285
 143	1	2	0.097893	5.01674	-1.30704	5.53437
 144	1	2	0.10238	4.92181	-2.67078	4.41134
 145	1	4	-0.43098	6.62216	-2.51642	2.22882
 146	1	1	0.017514	7.09603	-2.8809	0.915035
 147	1	5	0.102507	7.66211	-3.82244	0.952368
 148	1	5	0.044787	7.75446	-2.09783	0.516652
 149	1	5	0.053996	6.25142	-3.0045	0.226074
 150	1	6	-0.57928	8.73973	-2.52237	3.05751
 151	1	1	-0.064235	5.43685	-4.41149	6.34936
 152	1	1	0.139042	6.95352	-4.30418	5.90343
 153	1	2	0.015001	4.84905	-4.44055	5.4282
 154	1	2	0.033313	5.16031	-3.46909	6.83871
 155	1	1	-0.357291	7.13971	-5.05818	4.54041
 156	1	3	0.733725	7.91211	-4.84822	7.01628
 157	1	2	0.091627	6.98214	-6.13709	4.63918
 158	1	2	0.097893	8.16249	-4.93008	4.15978
 159	1	2	0.10238	6.43948	-4.70952	3.7739
 160	1	4	-0.43098	8.60656	-5.97221	6.65579
 161	1	1	0.017514	9.57427	-6.51717	7.57396
 162	1	5	0.102507	9.10228	-6.75851	8.53698
 163	1	5	0.044787	10.38	-5.79227	7.75062
 164	1	5	0.053996	10.0154	-7.43173	7.15865
 165	1	6	-0.57928	8.09107	-4.27467	8.07982
 166	1	1	-0.064235	3.2889	-5.34188	7.25692
 167	1	1	0.139042	4.85513	-5.58834	7.23473
 168	1	2	0.015001	3.12748	-4.36768	7.73719
 169	1	2	0.033313	2.97135	-5.17985	6.22532
 170	1	1	-0.357291	5.1959	-6.95961	6.57143
 171	1	3	0.733725	5.42693	-5.50529	8.68258
 172	1	2	0.091627	4.75946	-7.05428	5.56926
 173	1	2	0.097893	4.85256	-7.79686	7.18936
 174	1	2	0.10238	6.27754	-7.10971	6.49512
 175	1	4	-0.43098	5.22072	-4.27925	9.25382
 176	1	1	0.017514	5.7777	-4.01936	10.5557
 177	1	5	0.102507	6.86739	-4.16577	10.542
 178	1	5	0.044787	5.34168	-4.69613	11.3017
 179	1	5	0.053996	5.56916	-2.98463	10.8541
 180	1	6	-0.57928	6.04061	-6.41111	9.22641
 181	1	1	-0.064235	0.827421	-5.64084	7.70192
 182	1	1	0.139042	2.2399	-6.34826	7.8753
 183	1	2	0.015001	0.92108	-4.63688	8.1281
 184	1	2	0.033313	0.683935	-5.4709	6.62741
 185	1	1	-0.357291	2.55918	-6.56646	9.38614
 186	1	3	0.733725	2.25965	-7.69815	7.09138
 187	1	2	0.091627	3.49722	-7.11769	9.52311
 188	1	2	0.097893	1.78973	-7.16863	9.88077
 189	1	2	0.10238	2.63624	-5.6118	9.92434
 190	1	4	-0.43098	1.87591	-7.56277	5.783
 191	1	1	0.017514	1.73224	-8.74799	4.97352
 192	1	5	0.102507	2.68123	-9.29777	4.91321
 193	1	5	0.044787	1.41398	-8.4777	3.95909
 194	1	5	0.053996	0.974609	-9.41484	5.40708
 195	1	6	-0.57928	2.53448	-8.78101	7.58529
 196	1	1	-0.064235	-1.7635	-5.71399	7.4371
 197	1	1	0.139042	-0.521581	-6.25391	8.26064
 198	1	2	0.015001	-1.61199	-6.01379	6.3916
 199	1	2	0.033313	-2.62117	-6.29215	7.79495
 200	1	1	-0.357291	-0.569613	-7.80413	8.03979
 201	1	3	0.733725	-0.702588	-5.96145	9.78491
 202	1	2	0.091627	-1.5402	-8.22101	8.34051
 203	1	2	0.097893	0.179755	-8.33165	8.64175
 204	1	2	0.10238	-0.436856	-8.06972	6.98415
 205	1	4	-0.43098	-1.80763	-6.58493	10.3073
 206	1	1	0.017514	-2.11246	-6.41512	11.7051
 207	1	5	0.102507	-2.26183	-5.35294	11.9423
 208	1	5	0.044787	-1.29026	-6.79801	12.3235
 209	1	5	0.053996	-3.02671	-6.96498	11.9609
 210	1	6	-0.57928	0.0113258	-5.22698	10.4485
 211	1	1	-0.064235	-3.51881	-4.04066	6.46806
 212	1	1	0.139042	-2.24379	-4.21256	7.41806
 213	1	2	0.015001	-3.73619	-2.96687	6.478
 214	1	2	0.033313	-3.20393	-4.26533	5.44418
 215	1	1	-0.357291	-2.58899	-3.72847	8.86585
 216	1	3	0.733725	-1.12636	-3.26134	6.85247
 217	1	2	0.091627	-1.68482	-3.50806	9.44701
 218	1	2	0.097893	-3.14804	-4.46742	9.44282
 219	1	2	0.10238	-3.1606	-2.79224	8.84081
 220	1	4	-0.43098	-1.06019	-3.20298	5.48374
 221	1	1	0.017514	-0.231059	-2.18389	4.88325
 222	1	5	0.102507	0.812038	-2.28096	5.21173
 223	1	5	0.044787	-0.589415	-1.18764	5.17545
 224	1	5	0.053996	-0.266127	-2.25082	3.79054
 225	1	6	-0.57928	-0.390745	-2.57848	7.54921
 226	1	1	-0.064235	-6.02007	-4.16261	5.69559
 227	1	1	0.139042	-4.91253	-4.77757	6.64888
 228	1	2	0.015001	-6.30029	-3.17694	6.09091
 229	1	2	0.033313	-6.89491	-4.78729	5.87207
 230	1	1	-0.357291	-5.48525	-4.53741	8.08704
 231	1	3	0.733725	-4.83372	-6.31777	6.38121
 232	1	2	0.091627	-5.37292	-3.49219	8.401
 233	1	2	0.097893	-5.01238	-5.19529	8.82358
 234	1	2	0.10238	-6.55763	-4.77099	8.137
 235	1	4	-0.43098	-5.93269	-6.98806	6.854
 236	1	1	0.017514	-5.99857	-8.42269	6.73329
 237	1	5	0.102507	-5.87654	-8.73511	5.68724
 238	1	5	0.044787	-6.96862	-8.78538	7.09608
 239	1	5	0.053996	-5.20685	-8.89086	7.3329
 240	1	6	-0.57928	-3.94722	-6.87979	5.75793
 241	1	1	-0.064235	-7.23897	-3.68798	3.39617
 242	1	1	0.139042	-5.86315	-4.01051	4.126
 243	1	2	0.015001	-7.01465	-3.77155	2.32479
 244	1	2	0.033313	-7.44763	-2.62122	3.54194
 245	1	1	-0.357291	-5.2201	-5.28391	3.4787
 246	1	3	0.733725	-4.99579	-2.75037	3.78603
 247	1	2	0.091627	-5.69075	-6.21548	3.80497
 248	1	2	0.097893	-5.29108	-5.25544	2.38334
 249	1	2	0.10238	-4.15153	-5.35571	3.71112
 250	1	4	-0.43098	-4.63868	-2.71263	2.46173
 251	1	1	0.017514	-4.07411	-1.50691	1.91113
 252	1	5	0.102507	-4.80122	-0.685353	1.9736
 253	1	5	0.044787	-3.81827	-1.66182	0.855215
 254	1	5	0.053996	-3.16629	-1.21665	2.45523
 255	1	6	-0.57928	-4.79277	-1.81633	4.54691
 256	1	1	-0.064235	-9.30332	-3.98619	4.98198
 257	1	1	0.139042	-8.61051	-4.45287	3.63141
 258	1	2	0.015001	-8.54263	-3.49378	5.59042
 259	1	2	0.033313	-9.55987	-4.8863	5.55645
 260	1	1	-0.357291	-8.35677	-5.99452	3.73985
 261	1	3	0.733725	-9.5401	-4.25197	2.37995
 262	1	2	0.091627	-7.84792	-6.37119	2.84292
 263	1	2	0.097893	-9.30969	-6.53787	3.81175
 264	1	2	0.10238	-7.77647	-6.28179	4.62059
 265	1	4	-0.43098	-9.26386	-3.12874	1.64347
 266	1	1	0.017514	-10.0462	-2.83803	0.467315
 267	1	5	0.102507	-11.1158	-2.78483	0.71455
 268	1	5	0.044787	-9.90041	-3.61905	-0.290099
 269	1	5	0.053996	-9.74018	-1.87527	0.0379203
 270	1	6	-0.57928	-10.4133	-5.04472	2.06203
 271	1	1	-0.064235	-10.2083	-1.64266	4.36228
 272	1	1	0.139042	-10.5501	-3.01938	5.05806
 273	1	2	0.015001	-10.3491	-1.77694	3.29036
 274	1	2	0.033313	-9.13716	-1.49702	4.4899
 275	1	1	-0.357291	-10.7839	-2.8386	6.60044
 276	1	3	0.733725	-11.7938	-3.70665	4.40739
 277	1	2	0.091627	-9.91662	-2.37997	7.09112
 278	1	2	0.097893	-10.9428	-3.80998	7.08814
 279	1	2	0.10238	-11.6653	-2.23704	6.83986
 280	1	4	-0.43098	-12.0925	-4.90628	4.99701
 281	1	1	0.017514	-13.1582	-5.70249	4.44317
 282	1	5	0.102507	-14.0938	-5.12812	4.40298
 283	1	5	0.044787	-13.3203	-6.59654	5.05766
 284	1	5	0.053996	-12.9015	-6.02023	3.42348
 285	1	6	-0.57928	-12.4346	-3.24815	3.4751
 286	1	1	-0.064235	-10.662	0.807224	3.62357
 287	1	1	0.139042	-10.9294	-0.287376	4.74556
 288	1	2	0.015001	-10.6015	0.280225	2.66674
 289	1	2	0.033313	-11.5742	1.41016	3.54363
 290	1	1	-0.357291	-12.4849	-0.484938	4.70321
 291	1	3	0.733725	-10.4854	0.193295	6.16186
 292	1	2	0.091627	-12.8248	-0.740979	3.69096
 293	1	2	0.097893	-13.0048	0.437429	4.9962
 294	1	2	0.10238	-12.8476	-1.26195	5.37951
 295	1	4	-0.43098	-9.14076	0.039575	6.3856
 296	1	1	0.017514	-8.57606	0.437381	7.65107
 297	1	5	0.102507	-8.77365	1.49915	7.85189
 298	1	5	0.044787	-7.48994	0.281636	7.64143
 299	1	5	0.053996	-9.00806	-0.155879	8.4672
 300	1	6	-0.57928	-11.233	0.700183	6.98307
 301	1	1	-0.064235	-9.57224	2.81813	2.39525
 302	1	1	0.139042	-9.50399	1.8759	3.66727
 303	1	2	0.015001	-8.70716	3.48894	2.47759
 304	1	2	0.033313	-10.4339	3.4688	2.55492
 305	1	1	-0.357291	-9.77122	2.87654	4.85262
 306	1	3	0.733725	-8.0808	1.24059	3.7979
 307	1	2	0.091627	-10.8319	3.1524	4.92571
 308	1	2	0.097893	-9.20338	3.80784	4.72219
 309	1	2	0.10238	-9.45456	2.49134	5.82351
 310	1	4	-0.43098	-7.15735	2.11317	4.31155
 311	1	1	0.017514	-5.82546	1.63674	4.59442
 312	1	5	0.102507	-5.38021	1.15632	3.71278
 313	1	5	0.044787	-5.85249	0.901631	5.40965
 314	1	5	0.053996	-5.18383	2.47213	4.9013
 315	1	6	-0.57928	-7.77658	0.120713	3.42261
 316	1	1	-0.064235	-9.25854	3.52361	-0.0737556
 317	1	1	0.139042	-9.62489	2.31222	0.889292
 318	1	2	0.015001	-8.82241	3.09526	-0.978995
 319	1	2	0.033313	-8.40618	4.044	0.379634
 320	1	1	-0.357291	-8.496	1.25432	0.671488
 321	1	3	0.733725	-10.99	1.66204	0.473527
 322	1	2	0.091627	-8.38926	0.997997	-0.392152
 323	1	2	0.097893	-7.52049	1.60489	1.02938
 324	1	2	0.10238	-8.73757	0.306595	1.16778
 325	1	4	-0.43098	-12.0602	2.11118	1.19525
 326	1	1	0.017514	-13.3816	1.61512	0.903861
 327	1	5	0.102507	-13.6956	1.92296	-0.103058
 328	1	5	0.044787	-14.0996	2.01552	1.63068
 329	1	5	0.053996	-13.405	0.518682	0.960723
 330	1	6	-0.57928	-11.1032	0.811126	-0.394073
 331	1	1	-0.064235	-9.57559	5.91132	-1.06797
 332	1	1	0.139042	-10.3185	4.62406	-0.52137
 333	1	2	0.015001	-8.72304	6.09577	-0.4001
 334	1	2	0.033313	-10.2346	6.76939	-0.8808
 335	1	1	-0.357291	-11.0921	5.17861	0.724351
 336	1	3	0.733725	-11.342	4.07538	-1.56566
 337	1	2	0.091627	-11.7389	6.02261	0.447667
 338	1	2	0.097893	-10.408	5.53394	1.50543
 339	1	2	0.10238	-11.782	4.45393	1.15595
 340	1	4	-0.43098	-10.8187	3.09528	-2.35993
 341	1	1	0.017514	-11.6285	2.48513	-3.3831
 342	1	5	0.102507	-12.5377	2.0471	-2.95006
 343	1	5	0.044787	-11.0607	1.68861	-3.88044
 344	1	5	0.053996	-11.9179	3.22672	-4.13845
 345	1	6	-0.57928	-12.4831	4.49247	-1.68847
 346	1	1	-0.064235	-8.04593	5.04277	-3.00552
 347	1	1	0.139042	-9.07846	6.1371	-2.54874
 348	1	2	0.015001	-8.498	4.0644	-2.83561
 349	1	2	0.033313	-7.21074	5.08578	-2.29425
 350	1	1	-0.357291	-10.2917	6.21309	-3.53469
 351	1	3	0.733725	-8.36404	7.52393	-2.42551
 352	1	2	0.091627	-10.6495	5.22558	-3.84004
 353	1	2	0.097893	-10.0327	6.75794	-4.45009
 354	1	2	0.10238	-11.1391	6.74879	-3.08477
 355	1	4	-0.43098	-9.24198	8.57557	-2.4664
 356	1	1	0.017514	-8.75977	9.90436	-2.18671
 357	1	5	0.102507	-7.98707	10.1987	-2.90936
 358	1	5	0.044787	-8.32864	9.9475	-1.1775
 359	1	5	0.053996	-9.58635	10.6239	-2.24007
 360	1	6	-0.57928	-7.19046	7.66091	-2.11465
 361	1	1	-0.064235	-6.20726	4.05549	-4.37848
 362	1	1	0.139042	-7.46863	5.0017	-4.48253
 363	1	2	0.015001	-5.54925	4.50489	-3.62554
 364	1	2	0.033313	-6.57421	3.11473	-3.95282
 365	1	1	-0.357291	-7.03242	6.42389	-4.97204
 366	1	3	0.733725	-8.5477	4.35632	-5.41141
 367	1	2	0.091627	-7.85611	7.1433	-4.94755
 368	1	2	0.097893	-6.71435	6.41082	-6.02022
 369	1	2	0.10238	-6.209	6.82554	-4.36714
 370	1	4	-0.43098	-9.00903	5.20001	-6.38812
 371	1	1	0.017514	-9.98188	4.72319	-7.33729
 372	1	5	0.102507	-10.8615	4.31246	-6.82313
 373	1	5	0.044787	-9.54462	3.93745	-7.9668
 374	1	5	0.053996	-10.308	5.5467	-7.98512
 375	1	6	-0.57928	-8.97313	3.22115	-5.26614
 376	1	1	-0.064235	-4.03769	2.79658	-5.11156
 377	1	1	0.139042	-5.27862	3.67388	-5.59233
 378	1	2	0.015001	-3.44691	2.62233	-6.01882
 379	1	2	0.033313	-3.40317	3.42666	-4.47619
 380	1	1	-0.357291	-6.1105	2.93721	-6.69444
 381	1	3	0.733725	-4.64101	4.95205	-6.2297
 382	1	2	0.091627	-6.72739	3.64361	-7.26477
 383	1	2	0.097893	-6.79766	2.19061	-6.28779
 384	1	2	0.10238	-5.45348	2.44843	-7.42531
 385	1	4	-0.43098	-3.95197	5.72193	-5.33011
 386	1	1	0.017514	-3.4256	6.99135	-5.76833
 387	1	5	0.102507	-2.81691	6.87318	-6.6756
 388	1	5	0.044787	-2.80338	7.43563	-4.98207
 389	1	5	0.053996	-4.24885	7.68275	-5.99302
 390	1	6	-0.57928	-4.74362	5.26007	-7.40836
 391	1	1	-0.064235	-2.73315	0.685335	-4.26874
 392	1	1	0.139042	-4.14806	1.39506	-4.38077
 393	1	2	0.015001	-2.95423	-0.268679	-3.77789
 394	1	2	0.033313	-2.41623	0.422526	-5.28585
 395	1	1	-0.357291	-4.97661	0.403196	-5.26454
 396	1	3	0.733725	-4.81577	1.44449	-2.96505
 397	1	2	0.091627	-4.83702	-0.636061	-4.93787
 398	1	2	0.097893	-4.68561	0.450471	-6.32181
 399	1	2	0.10238	-6.05244	0.583435	-5.17322
 400	1	4	-0.43098	-4.66624	2.63629	-2.31021
 401	1	1	0.017514	-5.21007	2.79541	-0.985339
 402	1	5	0.102507	-6.30658	2.75541	-1.01268
 403	1	5	0.044787	-4.90158	3.76266	-0.56897
 404	1	5	0.053996	-4.84622	1.9997	-0.321637
 405	1	6	-0.57928	-5.37606	0.491899	-2.44669
 406	1	1	-0.064235	-0.470912	0.0684101	-3.1647
 407	1	1	0.139042	-1.46199	1.24934	-3.50614
 408	1	2	0.015001	0.398346	0.531633	-2.67774
 409	1	2	0.033313	-0.937687	-0.524247	-2.36585
 410	1	1	-0.357291	-1.84195	1.82281	-2.10507
 411	1	3	0.733725	-0.653862	2.3552	-4.25915
 412	1	2	0.091627	-0.949576	1.9548	-1.47721
 413	1	2	0.097893	-2.52176	1.15898	-1.55553
 414	1	2	0.10238	-2.28105	2.82276	-2.1916
 415	1	4	-0.43098	-1.00487	2.53137	-5.56783
 416	1	1	0.017514	-0.268305	3.4884	-6.35614
 417	1	5	0.102507	-0.380971	4.50037	-5.9431
 418	1	5	0.044787	-0.632457	3.48656	-7.39069
 419	1	5	0.053996	0.800517	3.2344	-6.36288
 420	1	6	-0.57928	0.259274	2.9787	-3.7394
 421	1	1	-0.064235	1.13235	-1.81711	-3.4237
 422	1	1	0.139042	0.0894476	-0.956002	-4.23461
 423	1	2	0.015001	1.8383	-1.10314	-2.97707
 424	1	2	0.033313	0.596071	-2.25184	-2.56914
 425	1	1	-0.357291	0.808534	-0.199955	-5.39421
 426	1	3	0.733725	-1.05152	-1.86516	-4.78091
 427	1	2	0.091627	1.26569	-0.896055	-6.10519
 428	1	2	0.097893	1.58956	0.476488	-5.02
 429	1	2	0.10238	0.0986571	0.376615	-5.99394
 430	1	4	-0.43098	-1.73725	-2.50809	-3.78415
 431	1	1	0.017514	-2.8187	-3.39173	-4.13804
 432	1	5	0.102507	-3.34202	-3.73254	-3.2356
 433	1	5	0.044787	-2.4327	-4.26954	-4.67234
 434	1	5	0.053996	-3.54166	-2.87805	-4.78581
 435	1	6	-0.57928	-1.3286	-1.98133	-5.96499
 436	1	1	-0.064235	2.86053	-3.53928	-2.82523
 437	1	1	0.139042	2.00524	-2.97804	-4.0436
 438	1	2	0.015001	3.91859	-3.51039	-3.11723
 439	1	2	0.033313	2.83341	-2.78214	-2.03163
 440	1	1	-0.357291	1.09222	-4.02697	-4.77319
 441	1	3	0.733725	3.06068	-2.40153	-5.04837
 442	1	2	0.091627	0.178783	-4.27392	-4.23247
 443	1	2	0.097893	0.758434	-3.63537	-5.74317
 444	1	2	0.10238	1.62521	-4.95482	-5.00633
 445	1	4	-0.43098	3.21521	-3.17475	-6.1715
 446	1	1	0.017514	4.1645	-2.80328	-7.18655
 447	1	5	0.102507	3.99951	-1.76801	-7.51394
 448	1	5	0.044787	4.05495	-3.4655	-8.05524
 449	1	5	0.053996	5.18894	-2.8954	-6.80428
 450	1	6	-0.57928	3.71952	-1.39398	-4.84214
 451	1	1	-0.064235	3.62044	-4.93512	-0.886729
 452	1	1	0.139042	2.62607	-4.93347	-2.12143
 453	1	2	0.015001	3.56208	-3.95937	-0.407358
 454	1	2	0.033313	4.63569	-4.9594	-1.30688
 455	1	1	-0.357291	1.1656	-5.07412	-1.59402
 456	1	3	0.733725	2.99518	-6.0775	-3.1194
 457	1	2	0.091627	0.929624	-4.30457	-0.856117
 458	1	2	0.097893	1.00033	-6.06783	-1.16569
 459	1	2	0.10238	0.415063	-5.00544	-2.37458
 460	1	4	-0.43098	4.21247	-5.8783	-3.71625
 461	1	1	0.017514	4.72645	-6.86844	-4.62587
 462	1	5	0.102507	4.01397	-7.0578	-5.43985
 463	1	5	0.044787	4.91212	-7.81031	-4.09322
 464	1	5	0.053996	5.67257	-6.52304	-5.06147
 465	1	6	-0.57928	2.26438	-7.02125	-3.3796
 466	1	1	-0.064235	2.40172	-5.87184	1.33042
 467	1	1	0.139042	3.57421	-6.01584	0.263108
 468	1	2	0.015001	1.44982	-6.14689	0.87279
 469	1	2	0.033313	2.56746	-6.71012	2.01982
 470	1	1	-0.357291	4.93489	-5.91934	1.03471
 471	1	3	0.733725	3.55356	-7.43322	-0.401246
 472	1	2	0.091627	5.23784	-4.88649	1.21164
 473	1	2	0.097893	5.75296	-6.37072	0.456256
 474	1	2	0.10238	4.89751	-6.44512	1.99773
 475	1	4	-0.43098	2.49469	-8.22294	-0.0423172
 476	1	1	0.017514	2.36472	-9.51945	-0.65724
 477	1	5	0.102507	3.28542	-10.1055	-0.528835
 478	1	5	0.044787	2.17202	-9.40797	-1.73258
 479	1	5	0.053996	1.53076	-10.0714	-0.206861
 480	1	6	-0.57928	4.43527	-7.8192	-1.15372
 481	1	1	-0.064235	3.23776	-3.53587	2.36642
 482	1	1	0.139042	2.11032	-4.5963	2.23217
 483	1	2	0.015001	2.92419	-2.74646	3.06242
 484	1	2	0.033313	4.14923	-3.97263	2.78114
 485	1	1	-0.357291	1.90285	-5.11941	3.68871
 486	1	3	0.733725	0.810711	-3.87537	1.75363
 487	1	2	0.091627	1.65634	-4.30427	4.37867
 488	1	2	0.097893	2.81265	-5.61253	4.05102
 489	1	2	0.10238	1.08642	-5.85227	3.74448
 490	1	4	-0.43098	-0.323663	-4.58811	2.04716
 491	1	1	0.017514	-1.61796	-4.02603	1.75877
 492	1	5	0.102507	-2.40997	-4.73469	2.03188
 493	1	5	0.044787	-1.71118	-3.79233	0.690611
 494	1	5	0.053996	-1.76935	-3.10523	2.33513
 495	1	6	-0.57928	0.78543	-2.7804	1.21064
 496	1	2	0	11.7874	5.80748	-12.4413
 497	1	2	0	3.47366	-3.02756	1.42936

Velocities

   1	-1.33859e-05	0.000328368	0.00041788
   2	-0.000545157	0.00022773	-0.000312891
   3	-4.35217e-05	0.00025348	0.000491601
   4	-6.38729e-05	0.000277075	0.000298289
   5	-0.000168405	0.000750698	0.00031547
   6	0.000632245	0.0016628	0.00242233
   7	-0.000841638	0.000342519	0.0011269
   8	-0.000574708	0.00122907	3.60012e-05
   9	-3.30203e-05	2.16145e-05	-0.000282804
  10	-0.00125282	-0.000140594	0.00063373
  11	-0.000582403	0.000853083	0.00098593
  12	5.37005e-05	0.000900209	0.00102083
  13	-0.00111378	0.000688272	0.00088491
  14	-0.000655828	0.000511656	0.000138026
  15	-0.00130755	-0.000353681	-0.000921918
  16	0.000512525	0.000117782	0.000219175
  17	0.000152091	0.000250703	4.30206e-06
  18	0.0007657	2.31264e-05	7.32152e-06
  19	0.000536743	0.000275473	0.000316281
  20	5.85966e-05	0.000341514	2.17214e-05
  21	-7.20904e-05	-0.000189037	-0.000278982
  22	3.94511e-06	0.000393249	0.000132242
  23	0.000361189	0.000299643	0.000127338
  24	4.20722e-05	0.000414179	1.25786e-05
  25	-0.000509047	0.00023942	-0.000908829
  26	-0.00134082	-0.000622933	-0.00114784
  27	-0.000277905	-0.00146881	-0.00279465
  28	-0.00316007	-0.00206816	-0.000623643
  29	-0.00143707	0.000558084	2.69861e-05
  30	-0.000599622	-0.00139146	-0.000128326
  31	0.000459181	0.000153234	-0.000191497
  32	0.00061208	7.93856e-05	-0.000125074
  33	0.000382285	0.000202041	-0.000332081
  34	0.000451106	0.000145947	-0.000418812
  35	0.000873685	6.17582e-05	-0.00043121
  36	0.000869354	-5.8152e-05	0.000322897
  37	0.000511766	0.000767694	-0.000228448
  38	0.000999353	-0.000733954	-0.000204222
  39	0.00132226	0.000218407	-0.00135231
  40	0.00103776	-0.000298205	0.000133845
  41	0.000202974	-0.000661501	0.000977077
  42	-0.000137181	-0.0012754	0.00147077
  43	0.000445554	-0.00134544	0.00109204
  44	-0.000509117	0.000131445	0.00102665
  45	0.000543794	0.000329218	9.12659e-05
  46	0.000258252	-0.000153665	-0.000210534
  47	0.00032193	0.00011978	-9.09829e-05
  48	0.000149475	-0.000167182	-0.000481267
  49	0.00023754	-0.000423588	-7.60091e-05
  50	0.000446528	0.000332882	7.30242e-05
  51	0.000241311	0.000221642	-2.27207e-05
  52	0.000535779	0.000271282	-5.0874e-05
  53	0.000239618	0.000275671	0.00034331
  54	0.000740073	0.000512274	0.000250846
  55	3.68115e-05	0.000181916	0.000447036
  56	0.000442254	8.5345e-05	0.000247113
  57	0.0013643	-0.000397768	0.000311099
  58	1.28508e-05	-4.12969e-06	0.000913471
  59	0.000317825	0.000433258	-0.000634131
  60	0.000815634	9.85911e-05	-0.000331312
  61	0.000121145	-0.000637989	-0.0002431
  62	0.000355424	-0.000275409	6.81156e-06
  63	0.00017122	-0.000627427	-0.000420554
  64	4.14632e-05	-0.000782996	-5.02275e-05
  65	0.000419318	-0.00035175	0.00029838
  66	0.000317224	4.64246e-05	-1.64205e-05
  67	0.000431575	-0.000602587	0.000346331
  68	0.000471664	-0.000481008	0.000457457
  69	0.000486372	-0.000174789	0.000433189
  70	0.000479805	-4.9478e-05	-0.000310666
  71	4.75639e-05	7.28438e-05	0.000403362
  72	0.000170693	-0.000415903	0.0012143
  73	0.00019361	7.91342e-05	-8.84018e-05
  74	-0.000742122	0.000659628	0.000538566
  75	0.00017308	2.51203e-07	0.000484703
  76	-0.000196784	-0.000484697	-0.000302694
  77	-0.000123872	-0.000780731	-0.000485505
  78	-0.000263246	-0.000596917	-0.000143016
  79	-0.000195041	-0.000435192	-0.00043419
  80	-0.000526382	-0.000793648	-0.000897313
  81	0.000300575	-0.00134634	-0.000449338
  82	-0.000377134	-0.0010837	-0.00115428
  83	-0.000734575	-0.000556952	-0.000807349
  84	-0.000770788	-0.000810023	-0.00120509
  85	0.000515604	-0.00124881	-4.41563e-05
  86	0.000756167	-0.00171095	0.000189287
  87	0.00113566	-0.00236757	-0.000250174
  88	0.000490255	-0.0010908	-9.53669e-05
  89	0.000746262	-0.00184921	0.00108201
  90	-9.76318e-05	-0.00164844	-0.00055021
  91	-0.000638587	-6.4701e-05	-3.68128e-05
  92	-0.000337394	-7.51973e-05	-0.000279183
  93	-0.00084579	-9.1533e-05	0.000114264
  94	-0.000764017	-7.53679e-05	-0.000249902
  95	8.91471e-05	0.00019916	-0.000593845
  96	-0.00041298	0.000298226	-0.000242174
  97	0.000186469	-0.000325656	-0.000444528
  98	-0.00030446	0.000771745	-0.000699025
  99	0.000757974	0.000348452	-0.00102149
 100	-0.000348445	0.000283642	-0.000185695
 101	-0.000339557	0.000399759	-0.000360793
 102	-0.000230376	6.58656e-05	-0.000224764
 103	-0.00023476	0.00044501	-0.000772624
 104	-0.000563121	0.000693607	-0.000250683
 105	-0.000543996	0.000230939	-0.000507174
 106	-0.000270932	0.00023465	0.0003569
 107	-0.000485415	-7.23316e-06	0.000133497
 108	-0.000213826	0.000297197	0.000340862
 109	-0.000279835	0.000207205	0.000530686
 110	-0.000662083	-0.00033692	0.000397951
 111	-0.000559374	3.3708e-05	-7.7748e-05
 112	-0.000815642	-0.000502247	0.000581438
 113	-0.000633797	-0.000569396	0.000235834
 114	-0.000698596	-0.000129109	0.000578449
 115	-0.000684484	0.00032152	-0.000877043
 116	-0.000762642	0.000568945	-0.0012383
 117	-0.000843375	0.000894136	-0.00234332
 118	-0.000432638	-0.000282924	-0.00106375
 119	-0.00110509	0.00136147	-0.000564862
 120	-0.000483021	6.02829e-06	0.000377133
 121	-3.33745e-05	0.00033684	0.000177907
 122	-8.7162e-05	0.000343413	0.000229007
 123	0.000176137	0.000250555	0.000221483
 124	-6.27273e-05	0.000268442	-0.000126355
 125	-6.69199e-05	0.000431696	-5.65493e-05
 126	0.000135462	0.000659439	0.000625007
 127	-0.000151251	0.000325246	-0.000323115
 128	-0.000126735	0.000323532	-7.30949e-05
 129	7.28081e-05	0.000739934	-0.000131482
 130	-9.34665e-05	0.00069127	0.000668054
 131	0.00021645	0.00104031	0.000949017
 132	0.000843569	0.00115911	0.00157722
 133	-2.50326e-05	0.000428233	0.000833807
 134	-4.95072e-05	0.00181327	0.000585731
 135	0.000331781	0.000391966	0.00033006
 136	4.58242e-05	0.00025753	0.000112221
 137	-0.000134746	0.0003553	0.000250745
 138	5.2114e-05	0.000185415	-0.000107002
 139	0.000288527	0.000231627	0.000209544
 140	-0.000176087	0.000356066	0.000393469
 141	-0.000329045	0.000356329	0.0001658
 142	-0.000238868	0.000868903	0.000837566
 143	-0.000309347	-0.000365825	0.000623599
 144	-9.68079e-05	0.000443242	-0.000401586
 145	-0.000398538	0.00110581	0.000124798
 146	-0.000624002	0.00120042	3.40779e-05
 147	-0.00121921	0.000843397	-0.000200238
 148	-0.000117598	0.000893776	0.000258052
 149	-0.00074448	0.00192875	5.89347e-05
 150	-0.000411329	-0.000296685	0.000173991
 151	4.78921e-05	0.0003914	0.000302995
 152	-1.00124e-05	0.000289971	0.000120492
 153	-5.48652e-05	0.000715153	0.000373118
 154	0.000344449	0.0003604	0.000541591
 155	-0.000162489	0.00034856	-8.81237e-06
 156	-0.000112498	7.54781e-05	-6.02993e-05
 157	-0.000166702	0.000344166	-0.000116656
 158	-0.000213691	0.00037684	-0.000113225
 159	-0.00023897	0.000447211	0.000114077
 160	-0.000581029	-0.000151743	0.000208515
 161	-0.00143514	-0.000826499	0.000679694
 162	-0.00230274	-0.00104767	0.000206215
 163	-0.00137745	-0.00110881	0.00161233
 164	-0.0014031	-0.00078978	0.000667692
 165	-0.000140802	5.34867e-05	0.000196873