pySIMM System Object

647 atoms
646 bonds
1204 angles
1625 dihedrals
43 impropers

6 atom types
7 bond types
11 angle types
9 dihedral types
1 improper types

-120.419238 120.419238 xlo xhi
-120.419238 120.419238 ylo yhi
-120.419238 120.419238 zlo zhi

Masses

   1	12.01	# c3
   2	1.008	# hc
   3	12.01	# c
   4	16.0	# os
   5	1.008	# h1
   6	16.0	# o

Pair Coeffs

   1	0.1094	3.3996695084235347	# c3
   2	0.0157	2.649532787749369	# hc
   3	0.086	3.3996695084235347	# c
   4	0.17	3.0000123434657784	# os
   5	0.0157	2.471353044121301	# h1
   6	0.21	2.959921901149463	# o

Bond Coeffs

   1	300.9	1.5375	# c3,c3
   2	330.6	1.0969	# c3,hc
   3	637.7	1.2183	# c,o
   4	330.6	1.0969	# c3,h1
   5	308.6	1.4316	# c3,os
   6	313.0	1.5241	# c,c3
   7	390.8	1.3584	# c,os

Angle Coeffs

   1	46.93	108.77	# c,c3,hc
   2	67.4	123.2	# c3,c,o
   3	75.32	123.25	# o,c,os
   4	39.24	108.46	# h1,c3,h1
   5	63.27	111.04	# c,c3,c3
   6	46.34	109.8	# c3,c3,hc
   7	50.8	109.78	# h1,c3,os
   8	63.28	115.98	# c,os,c3
   9	62.86	111.51	# c3,c3,c3
  10	39.4	107.58	# hc,c3,hc
  11	68.89	110.72	# c3,c,os

Dihedral Coeffs

   1	1	0.3833333333333333	3	0	# X,c3,os,X
   2	1	0.0	2	180	# X,c,c3,X
   3	1	0.15	3	0	# hc,c3,c3,hc
   4	3	0.8	1	0	0.0	2	0	0.08	3	180	# hc,c3,c,o
   5	3	2.7	2	180	0.0	1	0	1.15	3	0	# c3,c,os,c3
   6	1	0.16	3	0	# hc,c3,c3,c3
   7	2	2.7	2	180	1.4	1	180	# o,c,os,c3
   8	1	0.15555555555555556	3	0	# X,c3,c3,X
   9	3	0.18	3	0	0.25	2	180	0.2	1	180	# c3,c3,c3,c3

Improper Coeffs

   1	10.5	-1	2	# c,X,X,o

Atoms

   1	1	1	-0.064235	-13.966	-11.2738	14.2587
   2	1	1	0.139042	-13.8794	-12.6019	15.0771
   3	1	2	0.015001	-14.3172	-10.4823	14.9235
   4	1	2	0.033313	-14.759	-11.3752	13.5059
   5	1	1	-0.357291	-15.1092	-13.5051	14.7874
   6	1	3	0.733725	-13.7224	-12.3211	16.591
   7	1	2	0.091627	-16.0392	-13.0106	15.0972
   8	1	2	0.097893	-15.0302	-14.4535	15.3343
   9	1	2	0.10238	-15.1813	-13.7392	13.7167
  10	1	4	-0.43098	-12.6111	-12.9167	17.1221
  11	1	1	0.017514	-12.3712	-12.7891	18.5382
  12	1	5	0.102507	-12.2904	-11.7318	18.8259
  13	1	5	0.044787	-11.4401	-13.2999	18.8127
  14	1	5	0.053996	-13.1963	-13.2406	19.105
  15	1	6	-0.57928	-14.5124	-11.6612	17.2485
  16	1	1	-0.064235	-12.9098	-9.56172	12.6328
  17	1	1	0.139042	-12.6551	-10.8423	13.5196
  18	1	2	0.015001	-12.1802	-9.60433	11.8119
  19	1	2	0.033313	-13.8792	-9.70413	12.1353
  20	1	1	-0.357291	-11.4991	-10.6229	14.5527
  21	1	3	0.733725	-12.3397	-11.9894	12.5007
  22	1	2	0.091627	-11.2566	-11.5463	15.0935
  23	1	2	0.097893	-11.7496	-9.8699	15.3076
  24	1	2	0.10238	-10.575	-10.3149	14.0446
  25	1	4	-0.43098	-11.2268	-12.727	12.8107
  26	1	1	0.017514	-10.889	-13.8625	11.9892
  27	1	5	0.102507	-10.7518	-13.5586	10.9423
  28	1	5	0.044787	-11.6883	-14.6141	12.0319
  29	1	5	0.053996	-9.95933	-14.3231	12.3454
  30	1	6	-0.57928	-13.0695	-12.2621	11.5598
  31	1	1	-0.064235	-13.3672	-7.18861	11.9889
  32	1	1	0.139042	-12.8651	-8.0823	13.188
  33	1	2	0.015001	-14.44	-7.36692	11.9041
  34	1	2	0.033313	-12.9728	-7.62951	11.0629
  35	1	1	-0.357291	-13.8759	-7.92513	14.3747
  36	1	3	0.733725	-11.3935	-7.72566	13.5605
  37	1	2	0.091627	-13.5473	-8.4753	15.2629
  38	1	2	0.097893	-14.8762	-8.28302	14.0989
  39	1	2	0.10238	-13.9802	-6.88584	14.6967
  40	1	4	-0.43098	-11.2578	-7.20084	14.8183
  41	1	1	0.017514	-9.94505	-6.8418	15.2884
  42	1	5	0.102507	-9.49006	-6.09296	14.626
  43	1	5	0.044787	-9.29478	-7.72584	15.3175
  44	1	5	0.053996	-10.0093	-6.42172	16.2998
  45	1	6	-0.57928	-10.4437	-7.93159	12.8214
  46	1	1	-0.064235	-13.9812	-5.06645	10.7049
  47	1	1	0.139042	-13.0753	-5.63765	11.8711
  48	1	2	0.015001	-13.4308	-4.23687	10.2396
  49	1	2	0.033313	-13.9884	-5.83432	9.91836
  50	1	1	-0.357291	-13.2738	-4.83015	13.2016
  51	1	3	0.733725	-11.6033	-5.48868	11.3472
  52	1	2	0.091627	-14.2916	-4.84997	13.5935
  53	1	2	0.097893	-13.004	-3.77694	13.0491
  54	1	2	0.10238	-12.612	-5.18728	13.9973
  55	1	4	-0.43098	-10.7309	-4.95836	12.2632
  56	1	1	0.017514	-9.34204	-4.82936	11.9026
  57	1	5	0.102507	-8.92036	-5.81283	11.6501
  58	1	5	0.044787	-8.77251	-4.40752	12.7397
  59	1	5	0.053996	-9.23106	-4.16757	11.0337
  60	1	6	-0.57928	-11.2523	-5.83398	10.2286
  61	1	1	-0.064235	-16.0448	-4.49553	9.42548
  62	1	1	0.139042	-15.4732	-4.56075	10.9011
  63	1	2	0.015001	-15.2519	-4.11418	8.77015
  64	1	2	0.033313	-16.1729	-5.54471	9.14681
  65	1	1	-0.357291	-16.3163	-5.60918	11.7155
  66	1	3	0.733725	-15.4505	-3.14816	11.5722
  67	1	2	0.091627	-16.4199	-6.55303	11.1653
  68	1	2	0.097893	-17.3253	-5.25611	11.9392
  69	1	2	0.10238	-15.8844	-5.84224	12.6896
  70	1	4	-0.43098	-16.6368	-2.82249	12.1729
  71	1	1	0.017514	-16.7785	-1.53284	12.8001
  72	1	5	0.102507	-17.7811	-1.42884	13.234
  73	1	5	0.044787	-16.6352	-0.731697	12.0641
  74	1	5	0.053996	-16.036	-1.41011	13.5994
  75	1	6	-0.57928	-14.4937	-2.3878	11.5586
  76	1	1	-0.064235	-17.7973	-4.24346	7.53351
  77	1	1	0.139042	-17.3841	-3.78063	8.99058
  78	1	2	0.015001	-18.121	-5.28887	7.60223
  79	1	2	0.033313	-18.7046	-3.67504	7.29356
  80	1	1	-0.357291	-18.5845	-4.24116	9.87897
  81	1	3	0.733725	-17.3133	-2.21949	9.03499
  82	1	2	0.091627	-18.5435	-3.8022	10.8806
  83	1	2	0.097893	-18.6319	-5.33423	9.96533
  84	1	2	0.10238	-19.5387	-3.9042	9.45066
  85	1	4	-0.43098	-16.0413	-1.72724	9.12428
  86	1	1	0.017514	-15.8233	-0.303759	9.12303
  87	1	5	0.102507	-14.754	-0.0877232	9.24564
  88	1	5	0.044787	-16.3703	0.170825	9.94722
  89	1	5	0.053996	-16.1647	0.135188	8.17643
  90	1	6	-0.57928	-18.2927	-1.49786	8.92927
  91	1	1	-0.064235	-17.7079	-4.27002	4.94781
  92	1	1	0.139042	-16.8543	-4.13068	6.26941
  93	1	2	0.015001	-18.2769	-3.33775	4.82652
  94	1	2	0.033313	-16.9942	-4.25831	4.11268
  95	1	1	-0.357291	-16.2252	-2.70226	6.18593
  96	1	3	0.733725	-15.7032	-5.19424	6.24598
  97	1	2	0.091627	-16.9742	-1.91476	6.34224
  98	1	2	0.097893	-15.7757	-2.52326	5.19993
  99	1	2	0.10238	-15.4122	-2.57873	6.90975
 100	1	4	-0.43098	-14.7597	-4.92629	5.28809
 101	1	1	0.017514	-13.6243	-5.80564	5.15856
 102	1	5	0.102507	-13.9506	-6.83586	4.96005
 103	1	5	0.044787	-13.0319	-5.80126	6.08317
 104	1	5	0.053996	-12.9824	-5.47471	4.3327
 105	1	6	-0.57928	-15.6486	-6.19513	6.94152
 106	1	1	-0.064235	-19.0647	-5.35909	3.1537
 107	1	1	0.139042	-18.717	-5.46255	4.68937
 108	1	2	0.015001	-18.1602	-5.70456	2.63762
 109	1	2	0.033313	-19.129	-4.29373	2.89424
 110	1	1	-0.357291	-17.9885	-6.82236	4.97097
 111	1	3	0.733725	-20.0069	-5.24937	5.53817
 112	1	2	0.091627	-17.7973	-6.96214	6.0394
 113	1	2	0.097893	-17.0355	-6.89095	4.43071
 114	1	2	0.10238	-18.5735	-7.6965	4.68559
 115	1	4	-0.43098	-20.3508	-6.32834	6.30631
 116	1	1	0.017514	-21.5475	-6.25936	7.10562
 117	1	5	0.102507	-21.5026	-5.40965	7.80046
 118	1	5	0.044787	-21.6659	-7.18226	7.68666
 119	1	5	0.053996	-22.4287	-6.13666	6.46139
 120	1	6	-0.57928	-20.6349	-4.20252	5.54508
 121	1	1	-0.064235	-20.0764	-5.83988	0.914529
 122	1	1	0.139042	-20.3179	-6.05365	2.47358
 123	1	2	0.015001	-19.0069	-5.85961	0.710316
 124	1	2	0.033313	-20.3221	-4.78909	0.717122
 125	1	1	-0.357291	-20.4183	-7.55342	2.90289
 126	1	3	0.733725	-21.6405	-5.32699	2.89452
 127	1	2	0.091627	-21.2763	-8.05825	2.45329
 128	1	2	0.097893	-20.6053	-7.63566	3.97955
 129	1	2	0.10238	-19.5179	-8.12678	2.67044
 130	1	4	-0.43098	-21.639	-3.98774	2.6077
 131	1	1	0.017514	-22.7694	-3.19306	3.01622
 132	1	5	0.102507	-22.896	-3.24291	4.10731
 133	1	5	0.044787	-23.6886	-3.55876	2.54004
 134	1	5	0.053996	-22.6189	-2.14499	2.73012
 135	1	6	-0.57928	-22.5854	-5.88475	3.43421
 136	1	1	-0.064235	-20.2893	-8.17282	-0.374765
 137	1	1	0.139042	-20.7779	-6.67324	-0.230091
 138	1	2	0.015001	-20.4861	-8.66912	0.573737
 139	1	2	0.033313	-20.9916	-8.66285	-1.06291
 140	1	1	-0.357291	-22.3157	-6.69563	0.0591496
 141	1	3	0.733725	-20.5863	-5.94839	-1.60479
 142	1	2	0.091627	-22.713	-5.67676	0.159745
 143	1	2	0.097893	-22.5797	-7.24986	0.964217
 144	1	2	0.10238	-22.863	-7.16975	-0.767414
 145	1	4	-0.43098	-19.5308	-5.07193	-1.63641
 146	1	1	0.017514	-19.2543	-4.3429	-2.84838
 147	1	5	0.102507	-20.1257	-3.74351	-3.14623
 148	1	5	0.044787	-19.0116	-5.03432	-3.66564
 149	1	5	0.053996	-18.4017	-3.6697	-2.69577
 150	1	6	-0.57928	-21.2826	-6.1658	-2.58472
 151	1	1	-0.064235	-18.7661	-10.1664	-0.64195
 152	1	1	0.139042	-18.833	-8.59723	-0.854912
 153	1	2	0.015001	-19.3679	-10.5983	-1.45212
 154	1	2	0.033313	-19.3423	-10.4243	0.255487
 155	1	1	-0.357291	-18.7166	-8.33278	-2.40047
 156	1	3	0.733725	-17.7283	-7.87074	-0.0274921
 157	1	2	0.091627	-19.572	-8.74995	-2.94845
 158	1	2	0.097893	-17.815	-8.76841	-2.83716
 159	1	2	0.10238	-18.6583	-7.26921	-2.6439
 160	1	4	-0.43098	-16.9031	-7.0795	-0.782331
 161	1	1	0.017514	-15.8697	-6.32033	-0.125707
 162	1	5	0.102507	-15.1666	-6.99099	0.385044
 163	1	5	0.044787	-16.3073	-5.6394	0.616043
 164	1	5	0.053996	-15.3148	-5.72287	-0.858592
 165	1	6	-0.57928	-17.6361	-7.92844	1.1872
 166	1	1	-0.064235	-16.3282	-10.5821	-1.57763
 167	1	1	0.139042	-17.4244	-11.0034	-0.521843
 168	1	2	0.015001	-16.7719	-10.7142	-2.57207
 169	1	2	0.033313	-16.1647	-9.50532	-1.4788
 170	1	1	-0.357291	-16.8634	-10.8649	0.933406
 171	1	3	0.733725	-17.8851	-12.4809	-0.75033
 172	1	2	0.091627	-16.2923	-9.94561	1.08718
 173	1	2	0.097893	-16.2032	-11.705	1.18562
 174	1	2	0.10238	-17.6674	-10.8867	1.68101
 175	1	4	-0.43098	-18.2192	-12.7449	-2.05285
 176	1	1	0.017514	-18.6925	-14.0619	-2.39674
 177	1	5	0.102507	-17.9451	-14.8228	-2.13262
 178	1	5	0.044787	-18.8889	-14.1222	-3.47423
 179	1	5	0.053996	-19.6227	-14.2864	-1.85814
 180	1	6	-0.57928	-18.0036	-13.31	0.139159
 181	1	1	-0.064235	-14.1462	-10.5868	-2.84064
 182	1	1	0.139042	-14.8909	-11.2445	-1.60887
 183	1	2	0.015001	-14.8279	-10.6063	-3.69957
 184	1	2	0.033313	-14.035	-9.52363	-2.59947
 185	1	1	-0.357291	-15.0188	-12.7892	-1.80015
 186	1	3	0.733725	-14.1102	-10.9154	-0.297232
 187	1	2	0.091627	-15.4476	-13.2721	-0.914565
 188	1	2	0.097893	-14.0447	-13.2685	-1.9361
 189	1	2	0.10238	-15.639	-13.0385	-2.6711
 190	1	4	-0.43098	-13.958	-9.56985	-0.0782902
 191	1	1	0.017514	-13.2368	-9.1463	1.09695
 192	1	5	0.102507	-13.7184	-9.53356	2.00597
 193	1	5	0.044787	-13.2082	-8.05168	1.15349
 194	1	5	0.053996	-12.2047	-9.52047	1.06698
 195	1	6	-0.57928	-13.6593	-11.7597	0.462262
 196	1	1	-0.064235	-12.0197	-9.97918	-4.19148
 197	1	1	0.139042	-12.7426	-11.1002	-3.34976
 198	1	2	0.015001	-11.7392	-9.17786	-3.49664
 199	1	2	0.033313	-11.0674	-10.4142	-4.49638
 200	1	1	-0.357291	-11.7705	-11.3704	-2.15241
 201	1	3	0.733725	-12.8703	-12.3952	-4.21789
 202	1	2	0.091627	-10.7553	-11.592	-2.5083
 203	1	2	0.097893	-12.0753	-12.2371	-1.55499
 204	1	2	0.10238	-11.6875	-10.4981	-1.49135
 205	1	4	-0.43098	-11.6499	-12.8949	-4.59298
 206	1	1	0.017514	-11.5976	-14.0535	-5.4483
 207	1	5	0.102507	-12.1204	-14.9015	-4.98495
 208	1	5	0.044787	-10.5543	-14.3406	-5.62922
 209	1	5	0.053996	-12.0726	-13.8371	-6.41432
 210	1	6	-0.57928	-13.9207	-12.8855	-4.60122
 211	1	1	-0.064235	-11.6418	-8.40995	-6.26118
 212	1	1	0.139042	-12.6792	-9.30112	-5.45719
 213	1	2	0.015001	-12.1495	-8.13428	-7.1921
 214	1	2	0.033313	-11.5149	-7.46185	-5.72436
 215	1	1	-0.357291	-13.3017	-10.3588	-6.43213
 216	1	3	0.733725	-13.8142	-8.32068	-5.00559
 217	1	2	0.091627	-14.2327	-10.7739	-6.02613
 218	1	2	0.097893	-12.643	-11.2026	-6.64887
 219	1	2	0.10238	-13.5791	-9.89653	-7.38869
 220	1	4	-0.43098	-13.4006	-7.39926	-4.07874
 221	1	1	0.017514	-14.3576	-6.45735	-3.55608
 222	1	5	0.102507	-14.7899	-5.85482	-4.36658
 223	1	5	0.044787	-13.8702	-5.78484	-2.83969
 224	1	5	0.053996	-15.1727	-6.98538	-3.04351
 225	1	6	-0.57928	-14.9678	-8.3643	-5.40546
 226	1	1	-0.064235	-9.59971	-8.04309	-7.82943
 227	1	1	0.139042	-10.1887	-8.90405	-6.64346
 228	1	2	0.015001	-10.238	-8.20945	-8.70736
 229	1	2	0.033313	-8.64406	-8.51064	-8.07115
 230	1	1	-0.357291	-10.2178	-10.3584	-7.22326
 231	1	3	0.733725	-9.22374	-8.84338	-5.41558
 232	1	2	0.091627	-10.943	-10.4485	-8.04197
 233	1	2	0.097893	-10.4477	-11.109	-6.46088
 234	1	2	0.10238	-9.23806	-10.644	-7.63136
 235	1	4	-0.43098	-8.00556	-9.41003	-5.67539
 236	1	1	0.017514	-6.98059	-9.37842	-4.66358
 237	1	5	0.102507	-6.75163	-8.343	-4.37649
 238	1	5	0.044787	-6.06363	-9.84464	-5.04503
 239	1	5	0.053996	-7.30698	-9.92496	-3.76932
 240	1	6	-0.57928	-9.48112	-8.29186	-4.35621
 241	1	1	-0.064235	-8.66648	-5.94119	-9.06158
 242	1	1	0.139042	-9.33278	-6.49366	-7.73555
 243	1	2	0.015001	-8.3812	-4.90325	-8.84353
 244	1	2	0.033313	-9.45961	-5.83394	-9.81426
 245	1	1	-0.357291	-8.40304	-6.15236	-6.52268
 246	1	3	0.733725	-10.6904	-5.72121	-7.64399
 247	1	2	0.091627	-7.57311	-6.85757	-6.417
 248	1	2	0.097893	-7.973	-5.14633	-6.61707
 249	1	2	0.10238	-8.95893	-6.15171	-5.57706
 250	1	4	-0.43098	-10.66	-4.64813	-6.79241
 251	1	1	0.017514	-11.8411	-3.8371	-6.6382
 252	1	5	0.102507	-12.1526	-3.41769	-7.60476
 253	1	5	0.044787	-11.6404	-3.00962	-5.94623
 254	1	5	0.053996	-12.6671	-4.43747	-6.23501
 255	1	6	-0.57928	-11.6529	-5.96399	-8.35555
 256	1	1	-0.064235	-6.77634	-5.51276	-10.6703
 257	1	1	0.139042	-7.45381	-6.64426	-9.80242
 258	1	2	0.015001	-6.41823	-4.75979	-9.95575
 259	1	2	0.033313	-7.57578	-4.98565	-11.2084
 260	1	1	-0.357291	-8.02204	-7.74228	-10.7646
 261	1	3	0.733725	-6.415	-7.2204	-8.79038
 262	1	2	0.091627	-8.58698	-8.51667	-10.2417
 263	1	2	0.097893	-7.22251	-8.28022	-11.2809
 264	1	2	0.10238	-8.68657	-7.30883	-11.5229
 265	1	4	-0.43098	-5.74653	-6.2383	-8.11014
 266	1	1	0.017514	-4.67154	-6.6049	-7.224
 267	1	5	0.102507	-3.88955	-7.14763	-7.77384
 268	1	5	0.044787	-5.04052	-7.24655	-6.41394
 269	1	5	0.053996	-4.22327	-5.70448	-6.78601
 270	1	6	-0.57928	-6.18726	-8.41166	-8.64836
 271	1	1	-0.064235	-4.80375	-4.42863	-11.7437
 272	1	1	0.139042	-5.61335	-5.78527	-11.715
 273	1	2	0.015001	-4.27218	-4.41395	-10.7934
 274	1	2	0.033313	-5.52118	-3.6059	-11.6737
 275	1	1	-0.357291	-6.26414	-6.07707	-13.1122
 276	1	3	0.733725	-4.65754	-6.93455	-11.2432
 277	1	2	0.091627	-6.96295	-5.28614	-13.4076
 278	1	2	0.097893	-6.83353	-7.0124	-13.112
 279	1	2	0.10238	-5.5129	-6.18092	-13.9027
 280	1	4	-0.43098	-4.84	-8.11342	-11.9149
 281	1	1	0.017514	-4.08827	-9.27283	-11.5028
 282	1	5	0.102507	-3.00868	-9.08195	-11.5708
 283	1	5	0.044787	-4.33553	-10.1299	-12.1412
 284	1	5	0.053996	-4.33034	-9.53265	-10.4631
 285	1	6	-0.57928	-3.82166	-6.81209	-10.3626
 286	1	1	-0.064235	-2.80197	-2.8748	-12.3709
 287	1	1	0.139042	-3.74391	-4.05666	-12.8495
 288	1	2	0.015001	-2.04043	-3.30609	-11.7138
 289	1	2	0.033313	-2.24679	-2.55569	-13.2605
 290	1	1	-0.357291	-2.78056	-5.26533	-13.09
 291	1	3	0.733725	-4.38886	-3.65106	-14.2179
 292	1	2	0.091627	-2.30489	-5.59562	-12.1568
 293	1	2	0.097893	-1.9726	-4.9848	-13.7803
 294	1	2	0.10238	-3.28963	-6.12428	-13.5406
 295	1	4	-0.43098	-5.69928	-3.26079	-14.135
 296	1	1	0.017514	-6.40105	-2.87729	-15.3339
 297	1	5	0.102507	-5.88367	-2.05125	-15.8408
 298	1	5	0.044787	-7.4194	-2.55343	-15.0853
 299	1	5	0.053996	-6.46436	-3.7267	-16.0267
 300	1	6	-0.57928	-3.77028	-3.62434	-15.2705
 301	1	1	-0.064235	-2.27633	-0.4127	-11.6969
 302	1	1	0.139042	-3.349	-1.569	-11.6641
 303	1	2	0.015001	-2.70517	0.40926	-11.1096
 304	1	2	0.033313	-2.27779	-0.0306883	-12.72
 305	1	1	-0.357291	-4.55648	-0.979889	-12.4717
 306	1	3	0.733725	-3.76637	-1.81211	-10.1721
 307	1	2	0.091627	-4.33834	-0.925721	-13.5462
 308	1	2	0.097893	-4.79105	0.0418255	-12.1428
 309	1	2	0.10238	-5.47749	-1.55144	-12.3257
 310	1	4	-0.43098	-4.60145	-0.840166	-9.68557
 311	1	1	0.017514	-5.05185	-0.93446	-8.31829
 312	1	5	0.102507	-4.19645	-0.95728	-7.62861
 313	1	5	0.044787	-5.63759	-1.85171	-8.1723
 314	1	5	0.053996	-5.68214	-0.0729133	-8.0661
 315	1	6	-0.57928	-3.35082	-2.7117	-9.46134
 316	1	1	-0.064235	-0.184818	0.817721	-10.8178
 317	1	1	0.139042	-0.768972	-0.590074	-11.2312
 318	1	2	0.015001	0.668241	0.638932	-10.1508
 319	1	2	0.033313	-0.927137	1.27621	-10.1503
 320	1	1	-0.357291	-0.69161	-1.41215	-9.90219
 321	1	3	0.733725	0.134584	-1.28292	-12.3041
 322	1	2	0.091627	0.33392	-1.43118	-9.5083
 323	1	2	0.097893	-1.33211	-0.992167	-9.11674
 324	1	2	0.10238	-0.949182	-2.46567	-10.0481
 325	1	4	-0.43098	-0.239443	-1.00961	-13.5913
 326	1	1	0.017514	0.521062	-1.57239	-14.679
 327	1	5	0.102507	0.0704533	-1.29842	-15.6414
 328	1	5	0.044787	0.544358	-2.66777	-14.6052
 329	1	5	0.053996	1.55276	-1.19675	-14.659
 330	1	6	-0.57928	1.08988	-1.99168	-12.032
 331	1	1	-0.064235	0.493225	3.20825	-10.9364
 332	1	1	0.139042	0.279442	1.92963	-11.8446
 333	1	2	0.015001	0.851244	2.87357	-9.9533
 334	1	2	0.033313	-0.516489	3.58644	-10.7221
 335	1	1	-0.357291	-0.863812	2.23724	-12.8669
 336	1	3	0.733725	1.57776	1.48653	-12.5903
 337	1	2	0.091627	-0.63596	3.10721	-13.4856
 338	1	2	0.097893	-1.82468	2.42246	-12.371
 339	1	2	0.10238	-0.983815	1.422	-13.5873
 340	1	4	-0.43098	2.48362	0.874228	-11.7675
 341	1	1	0.017514	3.70436	0.358716	-12.3367
 342	1	5	0.102507	4.30002	1.16567	-12.7871
 343	1	5	0.044787	3.47986	-0.385056	-13.1122
 344	1	5	0.053996	4.30684	-0.127505	-11.56
 345	1	6	-0.57928	1.75147	1.62373	-13.7907
 346	1	1	-0.064235	2.89731	4.11347	-10.9603
 347	1	1	0.139042	1.39294	4.45274	-11.3033
 348	1	2	0.015001	3.16362	3.19948	-11.4892
 349	1	2	0.033313	2.92501	3.8366	-9.89806
 350	1	1	-0.357291	1.23364	4.89429	-12.7928
 351	1	3	0.733725	0.859084	5.55281	-10.3278
 352	1	2	0.091627	1.68017	4.1784	-13.4935
 353	1	2	0.097893	1.69593	5.87206	-12.9648
 354	1	2	0.10238	0.179265	5.02821	-13.0594
 355	1	4	-0.43098	-0.130797	6.32246	-10.8826
 356	1	1	0.017514	-0.808631	7.30291	-10.0739
 357	1	5	0.102507	-0.0984614	8.04522	-9.68576
 358	1	5	0.044787	-1.30865	6.81824	-9.22503
 359	1	5	0.053996	-1.56769	7.82205	-10.6727
 360	1	6	-0.57928	1.15276	5.61277	-9.14361
 361	1	1	-0.064235	5.35941	4.39245	-10.6136
 362	1	1	0.139042	4.08977	5.11215	-11.2285
 363	1	2	0.015001	5.10231	4.02153	-9.61341
 364	1	2	0.033313	5.50606	3.4955	-11.2215
 365	1	1	-0.357291	3.81627	6.48496	-10.5298
 366	1	3	0.733725	4.29371	5.25119	-12.7709
 367	1	2	0.091627	2.92037	6.97107	-10.9304
 368	1	2	0.097893	4.62437	7.20308	-10.7084
 369	1	2	0.10238	3.68448	6.36753	-9.44585
 370	1	4	-0.43098	4.15203	6.53562	-13.2291
 371	1	1	0.017514	4.28707	6.80145	-14.6376
 372	1	5	0.102507	3.55812	6.21457	-15.2134
 373	1	5	0.044787	5.29627	6.54079	-14.9812
 374	1	5	0.053996	4.11371	7.86666	-14.8359
 375	1	6	-0.57928	4.53926	4.30915	-13.5066
 376	1	1	-0.064235	7.86146	4.18452	-9.84324
 377	1	1	0.139042	6.75622	5.11023	-10.4947
 378	1	2	0.015001	8.75032	4.81162	-9.8207
 379	1	2	0.033313	7.59901	4.05911	-8.78496
 380	1	1	-0.357291	7.22555	5.6267	-11.8938
 381	1	3	0.733725	6.68198	6.31231	-9.49702
 382	1	2	0.091627	6.68119	6.53644	-12.1779
 383	1	2	0.097893	7.06677	4.89748	-12.6937
 384	1	2	0.10238	8.28959	5.89606	-11.8812
 385	1	4	-0.43098	6.06601	5.99006	-8.31557
 386	1	1	0.017514	5.93921	6.99658	-7.29264
 387	1	5	0.102507	6.9259	7.38672	-7.00734
 388	1	5	0.044787	5.46007	6.56963	-6.40287
 389	1	5	0.053996	5.32494	7.83186	-7.65359
 390	1	6	-0.57928	7.20261	7.40044	-9.69121
 391	1	1	-0.064235	9.38925	2.14609	-9.40131
 392	1	1	0.139042	8.27868	2.74791	-10.3631
 393	1	2	0.015001	9.05512	2.35693	-8.37852
 394	1	2	0.033313	9.3279	1.05426	-9.49298
 395	1	1	-0.357291	8.75883	2.77401	-11.8494
 396	1	3	0.733725	7.06838	1.76558	-10.2377
 397	1	2	0.091627	9.11528	1.78481	-12.1583
 398	1	2	0.097893	9.54674	3.50502	-12.0469
 399	1	2	0.10238	7.92591	2.97932	-12.5284
 400	1	4	-0.43098	6.52698	1.73843	-8.97798
 401	1	1	0.017514	5.38513	0.890591	-8.73637
 402	1	5	0.102507	4.55187	1.16141	-9.40015
 403	1	5	0.044787	5.05166	0.992705	-7.69649
 404	1	5	0.053996	5.64436	-0.160878	-8.91932
 405	1	6	-0.57928	6.59718	1.12675	-11.1653
 406	1	1	-0.064235	11.6347	2.19116	-8.09606
 407	1	1	0.139042	10.9278	2.5156	-9.47241
 408	1	2	0.015001	12.6685	2.54949	-8.19223
 409	1	2	0.033313	11.1849	2.852	-7.34216
 410	1	1	-0.357291	11.1563	4.0586	-9.62476
 411	1	3	0.733725	11.6463	1.7577	-10.635
 412	1	2	0.091627	12.2248	4.30881	-9.57267
 413	1	2	0.097893	10.6692	4.6203	-8.81771
 414	1	2	0.10238	10.8095	4.44454	-10.5872
 415	1	4	-0.43098	12.9387	2.17517	-10.8174
 416	1	1	0.017514	13.7533	1.50764	-11.8014
 417	1	5	0.102507	13.2892	1.56772	-12.7955
 418	1	5	0.044787	13.8753	0.448594	-11.5384
 419	1	5	0.053996	14.7463	1.97156	-11.8478
 420	1	6	-0.57928	11.1629	0.8364	-11.271
 421	1	1	-0.064235	12.5461	0.983155	-6.10915
 422	1	1	0.139042	11.7208	0.75405	-7.44536
 423	1	2	0.015001	13.3938	1.63913	-6.34749
 424	1	2	0.033313	11.9271	1.5941	-5.43908
 425	1	1	-0.357291	12.4727	-0.229561	-8.3987
 426	1	3	0.733725	10.2943	0.21054	-7.11582
 427	1	2	0.091627	12.6263	-1.20897	-7.93506
 428	1	2	0.097893	13.4475	0.165964	-8.71422
 429	1	2	0.10238	11.8814	-0.455786	-9.29142
 430	1	4	-0.43098	9.62441	0.972272	-6.19507
 431	1	1	0.017514	8.30451	0.555449	-5.78876
 432	1	5	0.102507	7.62691	0.513917	-6.65294
 433	1	5	0.044787	7.89429	1.25845	-5.05363
 434	1	5	0.053996	8.34369	-0.442857	-5.33216
 435	1	6	-0.57928	9.80216	-0.781012	-7.6294
 436	1	1	-0.064235	13.6492	0.455113	-3.90335
 437	1	1	0.139042	13.1386	-0.203613	-5.25485
 438	1	2	0.015001	14.0635	1.4418	-4.15015
 439	1	2	0.033313	12.7575	0.68395	-3.3046
 440	1	1	-0.357291	11.9794	-1.21658	-4.95545
 441	1	3	0.733725	14.3352	-0.828993	-6.03836
 442	1	2	0.091627	12.282	-2.03099	-4.29515
 443	1	2	0.097893	11.1232	-0.718879	-4.48236
 444	1	2	0.10238	11.6286	-1.71124	-5.8688
 445	1	4	-0.43098	14.3281	-2.19671	-6.0474
 446	1	1	0.017514	15.4015	-2.89344	-6.71102
 447	1	5	0.102507	15.466	-2.59374	-7.7658
 448	1	5	0.044787	15.2343	-3.97633	-6.66324
 449	1	5	0.053996	16.3611	-2.66831	-6.22709
 450	1	6	-0.57928	15.1904	-0.163995	-6.60422
 451	1	1	-0.064235	14.8687	0.685486	-1.68051
 452	1	1	0.139042	14.707	-0.244911	-2.95289
 453	1	2	0.015001	13.8644	0.94967	-1.32785
 454	1	2	0.033313	15.2834	1.63308	-2.04074
 455	1	1	-0.357291	14.178	-1.65253	-2.53316
 456	1	3	0.733725	16.0819	-0.3315	-3.68989
 457	1	2	0.091627	13.1517	-1.59326	-2.1471
 458	1	2	0.097893	14.7869	-2.12286	-1.75798
 459	1	2	0.10238	14.2009	-2.35123	-3.37758
 460	1	4	-0.43098	16.5678	0.902546	-4.03444
 461	1	1	0.017514	17.7979	0.991132	-4.7775
 462	1	5	0.102507	17.7163	0.433906	-5.72154
 463	1	5	0.044787	18.63	0.576802	-4.19411
 464	1	5	0.053996	18.0205	2.03973	-5.01114
 465	1	6	-0.57928	16.6637	-1.37474	-3.94451
 466	1	1	-0.064235	16.3016	1.50328	0.336555
 467	1	1	0.139042	15.7219	0.241469	-0.41957
 468	1	2	0.015001	17.0247	1.11114	1.0588
 469	1	2	0.033313	16.8824	2.07439	-0.399187
 470	1	1	-0.357291	17.0146	-0.537308	-0.848595
 471	1	3	0.733725	14.8738	-0.643954	0.548997
 472	1	2	0.091627	17.6402	0.0553047	-1.52801
 473	1	2	0.097893	16.7986	-1.49822	-1.32564
 474	1	2	0.10238	17.64	-0.780701	0.0213229
 475	1	4	-0.43098	15.6138	-1.13987	1.59016
 476	1	1	0.017514	14.9627	-1.92903	2.60506
 477	1	5	0.102507	14.5083	-2.82746	2.16602
 478	1	5	0.044787	14.1744	-1.34406	3.09711
 479	1	5	0.053996	15.691	-2.23861	3.36498
 480	1	6	-0.57928	13.6757	-0.851673	0.435646
 481	1	1	-0.064235	16.2925	3.78405	1.60995
 482	1	1	0.139042	15.4291	2.53241	1.14259
 483	1	2	0.015001	16.4254	4.45385	0.752489
 484	1	2	0.033313	15.651	4.35997	2.29071
 485	1	1	-0.357291	14.8191	1.84556	2.41157
 486	1	3	0.733725	14.2802	3.1089	0.253357
 487	1	2	0.091627	13.9612	1.21195	2.15496
 488	1	2	0.097893	14.4348	2.58883	3.12212
 489	1	2	0.10238	15.5416	1.21167	2.93789
 490	1	4	-0.43098	14.7435	3.80992	-0.829255
 491	1	1	0.017514	13.8005	4.46336	-1.70082
 492	1	5	0.102507	13.1223	3.73119	-2.15915
 493	1	5	0.044787	14.3335	4.99829	-2.49671
 494	1	5	0.053996	13.2001	5.18949	-1.13633
 495	1	6	-0.57928	13.0891	2.97094	0.481891
 496	1	1	-0.064235	18.0425	5.11849	2.84085
 497	1	1	0.139042	17.7283	3.67676	2.27157
 498	1	2	0.015001	17.2914	5.3378	3.60906
 499	1	2	0.033313	17.7981	5.81625	2.03457
 500	1	1	-0.357291	18.798	3.33788	1.17111
 501	1	3	0.733725	17.6938	2.63997	3.43391
 502	1	2	0.091627	18.6587	3.95542	0.273817
 503	1	2	0.097893	18.7796	2.28818	0.868126
 504	1	2	0.10238	19.8232	3.49878	1.50971
 505	1	4	-0.43098	16.9198	3.06004	4.4862
 506	1	1	0.017514	16.7691	2.21459	5.64232
 507	1	5	0.102507	17.7472	1.98509	6.08673
 508	1	5	0.044787	16.2801	1.27173	5.3658
 509	1	5	0.053996	16.1509	2.71863	6.39587
 510	1	6	-0.57928	18.2821	1.57038	3.42526
 511	1	1	-0.064235	19.3023	6.65989	4.50374
 512	1	1	0.139042	19.4672	5.51762	3.42092
 513	1	2	0.015001	18.5183	6.29888	5.17723
 514	1	2	0.033313	20.1992	6.66036	5.13221
 515	1	1	-0.357291	20.0872	4.32345	4.23213
 516	1	3	0.733725	20.4265	5.96766	2.26734
 517	1	2	0.091627	21.0406	4.6113	4.69606
 518	1	2	0.097893	20.3152	3.45202	3.60943
 519	1	2	0.10238	19.429	4.00274	5.04884
 520	1	4	-0.43098	21.7546	5.85524	2.58281
 521	1	1	0.017514	22.7373	6.25939	1.60736
 522	1	5	0.102507	22.5479	7.28873	1.27155
 523	1	5	0.044787	22.7028	5.59781	0.732462
 524	1	5	0.053996	23.7432	6.21532	2.04269
 525	1	6	-0.57928	20.05	6.37667	1.17949
 526	1	1	-0.064235	18.2409	8.84034	5.39374
 527	1	1	0.139042	18.9575	8.1682	4.1572
 528	1	2	0.015001	17.2491	8.38431	5.45134
 529	1	2	0.033313	18.0374	9.88043	5.10757
 530	1	1	-0.357291	17.9169	8.28055	2.99917
 531	1	3	0.733725	20.1897	9.04995	3.7601
 532	1	2	0.091627	18.3378	7.97643	2.03544
 533	1	2	0.097893	17.6007	9.3248	2.86632
 534	1	2	0.10238	17.0093	7.69889	3.20047
 535	1	4	-0.43098	21.3959	8.41079	3.84018
 536	1	1	0.017514	22.607	9.16083	3.61698
 537	1	5	0.102507	23.4831	8.5085	3.72433
 538	1	5	0.044787	22.6919	9.97665	4.34726
 539	1	5	0.053996	22.6119	9.59286	2.60782
 540	1	6	-0.57928	20.0999	10.2431	3.50776
 541	1	1	-0.064235	18.3007	10.0714	7.6786
 542	1	1	0.139042	18.8698	8.84697	6.85105
 543	1	2	0.015001	19.0634	10.3004	8.42625
 544	1	2	0.033313	18.3164	10.9103	6.98878
 545	1	1	-0.357291	20.4077	9.14819	6.77795
 546	1	3	0.733725	18.6537	7.48565	7.58695
 547	1	2	0.091627	20.9715	8.33722	6.31008
 548	1	2	0.097893	20.8415	9.24088	7.78328
 549	1	2	0.10238	20.6166	10.0877	6.24876
 550	1	4	-0.43098	17.3971	6.96939	7.41513
 551	1	1	0.017514	17.0517	5.71506	8.03272
 552	1	5	0.102507	16.0233	5.43572	7.77051
 553	1	5	0.044787	17.1228	5.79403	9.12533
 554	1	5	0.053996	17.7277	4.92007	7.69152
 555	1	6	-0.57928	19.5093	6.92032	8.24751
 556	1	1	-0.064235	16.3846	11.5378	8.85135
 557	1	1	0.139042	16.941	10.083	8.48735
 558	1	2	0.015001	16.1245	11.5292	9.91834
 559	1	2	0.033313	15.4045	11.6588	8.36935
 560	1	1	-0.357291	17.2299	9.36506	9.85873
 561	1	3	0.733725	15.7832	9.3969	7.69497
 562	1	2	0.091627	17.5176	8.31678	9.73778
 563	1	2	0.097893	16.3451	9.36434	10.5093
 564	1	2	0.10238	18.0347	9.86289	10.4145
 565	1	4	-0.43098	14.9848	8.60691	8.48159
 566	1	1	0.017514	13.8248	7.9838	7.89957
 567	1	5	0.102507	14.1177	7.31859	7.07644
 568	1	5	0.044787	13.1396	8.74614	7.50617
 569	1	5	0.053996	13.2929	7.39549	8.65773
 570	1	6	-0.57928	15.5038	9.67017	6.54024
 571	1	1	-0.064235	16.2354	14.0708	9.11434
 572	1	1	0.139042	17.1694	12.8905	8.59675
 573	1	2	0.015001	15.5155	13.6543	9.8289
 574	1	2	0.033313	15.5821	14.3664	8.28264
 575	1	1	-0.357291	18.5396	12.7991	9.36813
 576	1	3	0.733725	17.2886	13.1193	7.05203
 577	1	2	0.091627	19.3153	12.3174	8.76828
 578	1	2	0.097893	18.9891	13.7578	9.61872
 579	1	2	0.10238	18.4392	12.2495	10.3118
 580	1	4	-0.43098	18.5346	13.4903	6.62379
 581	1	1	0.017514	18.741	13.7162	5.21324
 582	1	5	0.102507	18.5949	12.7871	4.64374
 583	1	5	0.044787	19.7601	14.0795	5.03458
 584	1	5	0.053996	18.0337	14.4681	4.83708
 585	1	6	-0.57928	16.3506	12.97	6.28546
 586	1	1	-0.064235	15.6245	16.4372	9.81664
 587	1	1	0.139042	16.8165	15.4031	9.74473
 588	1	2	0.015001	15.3781	16.7122	8.78401
 589	1	2	0.033313	14.7322	15.8931	10.1556
 590	1	1	-0.357291	17.9059	16.0307	8.79808
 591	1	3	0.733725	17.33	15.0788	11.187
 592	1	2	0.091627	18.5406	15.2997	8.30112
 593	1	2	0.097893	18.5993	16.6724	9.35221
 594	1	2	0.10238	17.4596	16.6287	7.9948
 595	1	4	-0.43098	16.3819	14.4355	11.9415
 596	1	1	0.017514	16.6626	14.078	13.3103
 597	1	5	0.102507	17.6908	13.7076	13.4222
 598	1	5	0.044787	15.9732	13.2894	13.638
 599	1	5	0.053996	16.5312	14.9465	13.9682
 600	1	6	-0.57928	18.4684	15.2836	11.5792
 601	1	1	-0.064235	14.5642	18.7447	10.1531
 602	1	1	0.139042	15.7037	17.7685	10.6719
 603	1	2	0.015001	13.7496	18.1107	9.77579
 604	1	2	0.033313	14.1259	19.2279	11.0367
 605	1	1	-0.357291	17.1121	18.4526	10.6684
 606	1	3	0.733725	15.355	17.4117	12.1598
 607	1	2	0.091627	17.097	19.3808	11.252
 608	1	2	0.097893	17.5006	18.6803	9.67654
 609	1	2	0.10238	17.8582	17.8208	11.1665
 610	1	4	-0.43098	14.0276	17.1307	12.3596
 611	1	1	0.017514	13.5632	16.9288	13.7098
 612	1	5	0.102507	13.7498	17.8272	14.3156
 613	1	5	0.044787	14.0855	16.0832	14.1752
 614	1	5	0.053996	12.4856	16.7244	13.7154
 615	1	6	-0.57928	16.1658	17.4033	13.0729
 616	1	1	-0.064235	13.3121	20.3727	8.71312
 617	1	1	0.139042	14.7803	19.9224	9.11494
 618	1	2	0.015001	12.6358	20.0968	9.53299
 619	1	2	0.033313	12.9923	19.7245	7.88564
 620	1	1	-0.357291	15.4609	19.417	7.79323
 621	1	3	0.733725	15.5803	21.0645	9.82855
 622	1	2	0.091627	16.4993	19.1121	7.93133
 623	1	2	0.097893	15.4846	20.2104	7.03641
 624	1	2	0.10238	14.9216	18.5671	7.35798
 625	1	4	-0.43098	16.5787	21.6079	9.06214
 626	1	1	0.017514	17.3651	22.6939	9.59594
 627	1	5	0.102507	16.7161	23.5038	9.95845
 628	1	5	0.044787	18.0228	23.1015	8.81786
 629	1	5	0.053996	17.9847	22.3447	10.4318
 630	1	6	-0.57928	15.3787	21.418	10.9802
 631	1	1	-0.064235	13.8853	22.5064	7.30716
 632	1	1	0.139042	12.9103	21.8494	8.32727
 633	1	2	0.015001	13.9447	21.9203	6.38187
 634	1	2	0.033313	14.8932	22.6311	7.69976
 635	1	1	-0.357291	12.8226	22.7364	9.61433
 636	1	3	0.733725	11.501	21.8183	7.63964
 637	1	2	0.091627	13.014	22.1643	10.5303
 638	1	2	0.097893	11.8178	23.165	9.72892
 639	1	2	0.10238	13.5301	23.5749	9.58941
 640	1	4	-0.43098	10.6494	20.8855	8.17477
 641	1	1	0.017514	9.33013	20.7427	7.61022
 642	1	5	0.102507	8.76738	21.6821	7.69953
 643	1	5	0.044787	8.77892	19.9508	8.13198
 644	1	5	0.053996	9.39685	20.478	6.54636
 645	1	6	-0.57928	11.1544	22.5706	6.74088
 646	1	2	0	-13.0026	-13.1771	14.7565
 647	1	2	0	13.5419	23.5143	7.0382

Velocities

   1	-0.000911661	0.000267026	-0.000171317
   2	-0.00124947	0.00061289	0.000520251
   3	-0.00130266	0.000528567	-0.000904444
   4	-0.00060604	-1.11584e-05	-0.000561477
   5	-0.000839468	-2.47814e-05	0.000402829
   6	-0.000705774	0.00107374	0.000490639
   7	-0.00138334	-0.000763726	-0.000367049