pySIMM System Object

287 atoms
286 bonds
532 angles
713 dihedrals
19 impropers

6 atom types
7 bond types
11 angle types
9 dihedral types
1 improper types

-90.789776 90.789776 xlo xhi
-90.789776 90.789776 ylo yhi
-90.789776 90.789776 zlo zhi

Masses

   1	12.01	# c3
   2	1.008	# hc
   3	12.01	# c
   4	16.0	# os
   5	1.008	# h1
   6	16.0	# o

Pair Coeffs

   1	0.1094	3.3996695084235347	# c3
   2	0.0157	2.649532787749369	# hc
   3	0.086	3.3996695084235347	# c
   4	0.17	3.0000123434657784	# os
   5	0.0157	2.471353044121301	# h1
   6	0.21	2.959921901149463	# o

Bond Coeffs

   1	300.9	1.5375	# c3,c3
   2	330.6	1.0969	# c3,hc
   3	637.7	1.2183	# c,o
   4	330.6	1.0969	# c3,h1
   5	308.6	1.4316	# c3,os
   6	313.0	1.5241	# c,c3
   7	390.8	1.3584	# c,os

Angle Coeffs

   1	46.93	108.77	# c,c3,hc
   2	67.4	123.2	# c3,c,o
   3	75.32	123.25	# o,c,os
   4	39.24	108.46	# h1,c3,h1
   5	63.27	111.04	# c,c3,c3
   6	46.34	109.8	# c3,c3,hc
   7	50.8	109.78	# h1,c3,os
   8	63.28	115.98	# c,os,c3
   9	62.86	111.51	# c3,c3,c3
  10	39.4	107.58	# hc,c3,hc
  11	68.89	110.72	# c3,c,os

Dihedral Coeffs

   1	1	0.3833333333333333	3	0	# X,c3,os,X
   2	1	0.0	2	180	# X,c,c3,X
   3	1	0.15	3	0	# hc,c3,c3,hc
   4	3	0.8	1	0	0.0	2	0	0.08	3	180	# hc,c3,c,o
   5	3	2.7	2	180	0.0	1	0	1.15	3	0	# c3,c,os,c3
   6	1	0.16	3	0	# hc,c3,c3,c3
   7	2	2.7	2	180	1.4	1	180	# o,c,os,c3
   8	1	0.15555555555555556	3	0	# X,c3,c3,X
   9	3	0.18	3	0	0.25	2	180	0.2	1	180	# c3,c3,c3,c3

Improper Coeffs

   1	10.5	-1	2	# c,X,X,o

Atoms

   1	1	1	-0.064235	15.3696	-5.24028	-4.46292
   2	1	1	0.139042	16.9344	-5.19583	-4.41052
   3	1	2	0.015001	15.0286	-5.39706	-5.49428
   4	1	2	0.033313	14.9946	-4.24175	-4.20109
   5	1	1	-0.357291	17.4323	-3.78232	-4.00105
   6	1	3	0.733725	17.6171	-5.71633	-5.69701
   7	1	2	0.091627	17.1587	-3.03312	-4.75519
   8	1	2	0.097893	18.5246	-3.77478	-3.89078
   9	1	2	0.10238	16.9976	-3.48006	-3.03848
  10	1	4	-0.43098	18.8296	-6.2824	-5.40845
  11	1	1	0.017514	19.6356	-6.81332	-6.47593
  12	1	5	0.102507	19.0964	-7.60857	-7.00763
  13	1	5	0.044787	20.565	-7.23056	-6.06839
  14	1	5	0.053996	19.8923	-6.02238	-7.19256
  15	1	6	-0.57928	17.1612	-5.6249	-6.82577
  16	1	1	-0.064235	13.1334	-5.96212	-3.58728
  17	1	1	0.139042	14.6734	-6.28804	-3.52701
  18	1	2	0.015001	13.0532	-4.90912	-3.31401
  19	1	2	0.033313	12.8417	-6.01084	-4.6436
  20	1	1	-0.357291	14.9734	-7.71163	-4.09937
  21	1	3	0.733725	15.2284	-6.05115	-2.08879
  22	1	2	0.091627	14.4363	-7.88255	-5.04188
  23	1	2	0.097893	14.6941	-8.4977	-3.39007
  24	1	2	0.10238	16.0423	-7.85177	-4.29924
  25	1	4	-0.43098	16.217	-6.9333	-1.73859
  26	1	1	0.017514	16.9353	-6.73833	-0.507366
  27	1	5	0.102507	17.3572	-5.72452	-0.464798
  28	1	5	0.044787	17.7586	-7.46037	-0.439113
  29	1	5	0.053996	16.2715	-6.87708	0.354139
  30	1	6	-0.57928	14.9157	-5.09246	-1.40186
  31	1	1	-0.064235	10.6346	-6.01206	-2.80484
  32	1	1	0.139042	12.0374	-6.75059	-2.77171
  33	1	2	0.015001	10.0816	-6.45595	-1.97407
  34	1	2	0.033313	10.1048	-6.32206	-3.71382
  35	1	1	-0.357291	11.7289	-8.11541	-3.48482
  36	1	3	0.733725	12.4502	-7.04046	-1.28616
  37	1	2	0.091627	10.8968	-8.62943	-2.98391
  38	1	2	0.097893	12.5698	-8.8125	-3.47147
  39	1	2	0.10238	11.4431	-7.96787	-4.53486
  40	1	4	-0.43098	13.3495	-8.07007	-1.18709
  41	1	1	0.017514	13.7608	-8.52355	0.117409
  42	1	5	0.102507	14.1301	-7.68352	0.721417
  43	1	5	0.044787	14.562	-9.26672	0.0204468
  44	1	5	0.053996	12.9158	-8.9847	0.64515
  45	1	6	-0.57928	11.9626	-6.52035	-0.297696
  46	1	1	-0.064235	8.88616	-4.16637	-2.4127
  47	1	1	0.139042	10.415	-4.45304	-2.69925
  48	1	2	0.015001	8.67585	-4.54384	-1.40813
  49	1	2	0.033313	8.79024	-3.07657	-2.32285
  50	1	1	-0.357291	11.1756	-3.85944	-1.46659
  51	1	3	0.733725	10.8417	-3.70281	-4.00305
  52	1	2	0.091627	10.8232	-4.30669	-0.528227
  53	1	2	0.097893	11.0046	-2.7787	-1.37529
  54	1	2	0.10238	12.2596	-4.00701	-1.51507
  55	1	4	-0.43098	10.7308	-2.34039	-3.89643
  56	1	1	0.017514	11.0045	-1.52456	-5.0536
  57	1	5	0.102507	12.0193	-1.71124	-5.43047
  58	1	5	0.044787	10.9155	-0.46197	-4.79607
  59	1	5	0.053996	10.2898	-1.74916	-5.85657
  60	1	6	-0.57928	11.1563	-4.24947	-5.04834
  61	1	1	-0.064235	6.37956	-3.90751	-3.01177
  62	1	1	0.139042	7.71793	-4.64319	-3.37162
  63	1	2	0.015001	6.43852	-2.88825	-3.41646
  64	1	2	0.033313	5.61805	-4.38606	-3.64118
  65	1	1	-0.357291	8.00072	-4.19851	-4.84462
  66	1	3	0.733725	7.41231	-6.18192	-3.39685
  67	1	2	0.091627	8.30419	-3.14596	-4.90894
  68	1	2	0.097893	7.10337	-4.31171	-5.46891
  69	1	2	0.10238	8.76327	-4.82738	-5.31821
  70	1	4	-0.43098	7.80798	-6.8756	-2.29103
  71	1	1	0.017514	7.59845	-8.29968	-2.23359
  72	1	5	0.102507	8.07235	-8.79361	-3.09315
  73	1	5	0.044787	6.5255	-8.53008	-2.24594
  74	1	5	0.053996	8.03526	-8.7059	-1.31277
  75	1	6	-0.57928	6.81676	-6.72605	-4.31443
  76	1	1	-0.064235	4.31345	-3.3905	-1.74868
  77	1	1	0.139042	5.81668	-3.78941	-1.5361
  78	1	2	0.015001	4.31701	-2.42721	-2.27219
  79	1	2	0.033313	3.91328	-4.10946	-2.46592
  80	1	1	-0.357291	5.88467	-5.14235	-0.763884
  81	1	3	0.733725	6.58547	-2.65527	-0.781453
  82	1	2	0.091627	6.91488	-5.43902	-0.552323
  83	1	2	0.097893	5.38463	-5.95311	-1.30821
  84	1	2	0.10238	5.43255	-5.06372	0.22751
  85	1	4	-0.43098	6.46895	-1.43979	-1.40335
  86	1	1	0.017514	7.15887	-0.2968	-0.863175
  87	1	5	0.102507	8.24568	-0.452289	-0.89478
  88	1	5	0.044787	6.8587	-0.122846	0.178445
  89	1	5	0.053996	6.91647	0.598955	-1.44903
  90	1	6	-0.57928	7.28795	-2.83996	0.199806
  91	1	1	-0.064235	2.16725	-2.25814	-0.980831
  92	1	1	0.139042	3.25186	-3.32956	-0.593691
  93	1	2	0.015001	1.58821	-2.05906	-0.0675567
  94	1	2	0.033313	2.71453	-1.32176	-1.1625
  95	1	1	-0.357291	2.57343	-4.73218	-0.412656
  96	1	3	0.733725	3.87393	-2.79475	0.740519
  97	1	2	0.091627	2.18143	-5.13025	-1.35488
  98	1	2	0.097893	1.74557	-4.67427	0.307258
  99	1	2	0.10238	3.26789	-5.48358	-0.0229595
 100	1	4	-0.43098	3.95533	-3.73695	1.73177
 101	1	1	0.017514	4.44734	-3.35821	3.03206
 102	1	5	0.102507	4.63526	-4.25172	3.64087
 103	1	5	0.044787	3.70722	-2.73359	3.54875
 104	1	5	0.053996	5.38609	-2.79458	2.94527
 105	1	6	-0.57928	4.22431	-1.63584	0.900171
 106	1	1	-0.064235	0.517875	-0.963622	-2.30892
 107	1	1	0.139042	1.11902	-2.42144	-2.15663
 108	1	2	0.015001	1.18265	-0.407636	-2.98337
 109	1	2	0.033313	0.652366	-0.459627	-1.35054
 110	1	1	-0.357291	1.80348	-2.76308	-3.52793
 111	1	3	0.733725	0.0651832	-3.50453	-1.7386
 112	1	2	0.091627	1.09633	-2.68988	-4.3595
 113	1	2	0.097893	2.17111	-3.79301	-3.561
 114	1	2	0.10238	2.63304	-2.08202	-3.75365
 115	1	4	-0.43098	-0.0607152	-4.52739	-2.64539
 116	1	1	0.017514	-0.942777	-5.63129	-2.35768
 117	1	5	0.102507	-0.803476	-6.43107	-3.09647
 118	1	5	0.044787	-1.98928	-5.30268	-2.39161
 119	1	5	0.053996	-0.735753	-6.04415	-1.36104
 120	1	6	-0.57928	-0.479889	-3.5403	-0.649057
 121	1	1	-0.064235	-1.11952	0.851732	-3.17563
 122	1	1	0.139042	-0.962356	-0.676972	-2.7577
 123	1	2	0.015001	-2.06363	0.942102	-3.72982
 124	1	2	0.033313	-0.34544	1.04477	-3.9309
 125	1	1	-0.357291	-1.27383	-1.47372	-4.06671
 126	1	3	0.733725	-1.97399	-1.09665	-1.64359
 127	1	2	0.091627	-1.23896	-2.55717	-3.91299
 128	1	2	0.097893	-0.580907	-1.21163	-4.8761
 129	1	2	0.10238	-2.28974	-1.25299	-4.4226
 130	1	4	-0.43098	-1.48048	-0.898382	-0.38048
 131	1	1	0.017514	-2.26185	-1.28323	0.765453
 132	1	5	0.102507	-1.71134	-1.05595	1.68715
 133	1	5	0.044787	-2.46412	-2.36209	0.742006
 134	1	5	0.053996	-3.21733	-0.744364	0.783018
 135	1	6	-0.57928	-3.11736	-1.46546	-1.86493
 136	1	1	-0.064235	-0.977765	3.38748	-3.04463
 137	1	1	0.139042	-1.09032	2.06803	-2.15681
 138	1	2	0.015001	-0.0306803	3.32604	-3.59841
 139	1	2	0.033313	-1.74851	3.3123	-3.82352
 140	1	1	-0.357291	-2.45119	2.05759	-1.37664
 141	1	3	0.733725	0.17431	1.98772	-1.24911
 142	1	2	0.091627	-3.28207	2.33587	-2.03414
 143	1	2	0.097893	-2.44083	2.7042	-0.498085
 144	1	2	0.10238	-2.71909	1.09905	-0.951093
 145	1	4	-0.43098	-0.106747	1.93628	0.0902222
 146	1	1	0.017514	0.977017	1.85939	1.03678
 147	1	5	0.102507	1.68518	2.68624	0.88727
 148	1	5	0.044787	1.51832	0.911289	0.9226
 149	1	5	0.053996	0.58521	1.9172	2.06009
 150	1	6	-0.57928	1.31416	2.01068	-1.68867
 151	1	1	-0.064235	-2.47375	5.10274	-1.83064
 152	1	1	0.139042	-1.05796	4.86591	-2.46146
 153	1	2	0.015001	-2.38709	4.67135	-0.835942
 154	1	2	0.033313	-3.19591	4.49687	-2.38946
 155	1	1	-0.357291	0.0537226	5.05862	-1.36893
 156	1	3	0.733725	-0.865607	5.82754	-3.67633
 157	1	2	0.091627	0.161267	6.10485	-1.06425
 158	1	2	0.097893	1.03541	4.74505	-1.75009
 159	1	2	0.10238	-0.155921	4.49388	-0.454445
 160	1	4	-0.43098	0.174373	6.70715	-3.52358
 161	1	1	0.017514	0.414969	7.71277	-4.52572
 162	1	5	0.102507	1.33387	8.2657	-4.29119
 163	1	5	0.044787	-0.42035	8.42473	-4.55633
 164	1	5	0.053996	0.527146	7.25572	-5.51734
 165	1	6	-0.57928	-1.57257	5.79041	-4.67119
 166	1	1	-0.064235	-4.40094	6.10857	-0.683119
 167	1	1	0.139042	-3.1655	6.49618	-1.59465
 168	1	2	0.015001	-5.03506	5.46801	-1.29722
 169	1	2	0.033313	-4.03917	5.45178	0.113336
 170	1	1	-0.357291	-2.19198	7.47291	-0.8678
 171	1	3	0.733725	-3.6712	7.1036	-2.94259
 172	1	2	0.091627	-1.81395	7.0485	0.0700724
 173	1	2	0.097893	-2.67495	8.43346	-0.651597
 174	1	2	0.10238	-1.33561	7.72093	-1.50597
 175	1	4	-0.43098	-4.68851	6.37378	-3.50112
 176	1	1	0.017514	-5.34012	6.86204	-4.68701
 177	1	5	0.102507	-4.62782	6.92382	-5.5206
 178	1	5	0.044787	-5.76019	7.86043	-4.50645
 179	1	5	0.053996	-6.15912	6.18813	-4.96845
 180	1	6	-0.57928	-3.27851	8.16487	-3.4022
 181	1	1	-0.064235	-6.55265	6.45701	0.753603
 182	1	1	0.139042	-5.32517	7.15504	0.0301628
 183	1	2	0.015001	-6.20439	6.12992	1.74172
 184	1	2	0.033313	-7.26533	7.25272	0.981122
 185	1	1	-0.357291	-5.86934	8.19989	-0.994782
 186	1	3	0.733725	-4.50422	7.87938	1.15153
 187	1	2	0.091627	-5.06034	8.83423	-1.37915
 188	1	2	0.097893	-6.58536	8.88049	-0.515307
 189	1	2	0.10238	-6.36927	7.73462	-1.84927
 190	1	4	-0.43098	-3.80506	7.00794	1.94926
 191	1	1	0.017514	-2.84886	7.50814	2.90372
 192	1	5	0.102507	-2.48997	6.69035	3.542
 193	1	5	0.044787	-3.29666	8.28047	3.54153
 194	1	5	0.053996	-1.98536	7.94033	2.38097
 195	1	6	-0.57928	-4.44692	9.09181	1.29231
 196	1	1	-0.064235	-8.43266	4.74063	1.15967
 197	1	1	0.139042	-7.34805	5.22667	0.138193
 198	1	2	0.015001	-8.64926	3.6904	0.922192
 199	1	2	0.033313	-7.86901	4.65721	2.09693
 200	1	1	-0.357291	-7.98241	5.55449	-1.25139
 201	1	3	0.733725	-6.43194	3.95219	0.0914809
 202	1	2	0.091627	-8.6638	4.75508	-1.57209
 203	1	2	0.097893	-7.21372	5.63864	-2.02866
 204	1	2	0.10238	-8.55058	6.48978	-1.24282
 205	1	4	-0.43098	-6.84552	3.02522	-0.830413
 206	1	1	0.017514	-6.23941	1.71641	-0.823227
 207	1	5	0.102507	-6.38315	1.23071	0.152226
 208	1	5	0.044787	-5.16446	1.78916	-1.0129
 209	1	5	0.053996	-6.68958	1.08278	-1.59714
 210	1	6	-0.57928	-5.57034	3.70303	0.9223
 211	1	1	-0.064235	-10.1068	4.87404	2.91392
 212	1	1	0.139042	-9.84699	5.39858	1.4543
 213	1	2	0.015001	-10.0578	3.78969	2.78907
 214	1	2	0.033313	-9.2525	5.18927	3.52445
 215	1	1	-0.357291	-9.85147	6.95521	1.43666
 216	1	3	0.733725	-10.8858	4.81623	0.435552
 217	1	2	0.091627	-9.62004	7.35436	0.444158
 218	1	2	0.097893	-9.13979	7.37365	2.1572
 219	1	2	0.10238	-10.8466	7.33974	1.69389
 220	1	4	-0.43098	-11.0898	3.46592	0.583438
 221	1	1	0.017514	-11.9795	2.76258	-0.305295
 222	1	5	0.102507	-12.9812	3.21305	-0.295091
 223	1	5	0.044787	-12.0644	1.71339	0.00642002
 224	1	5	0.053996	-11.5932	2.78851	-1.3324
 225	1	6	-0.57928	-11.4659	5.47651	-0.412737
 226	1	1	-0.064235	-11.3109	3.89132	4.87789
 227	1	1	0.139042	-11.3295	5.10812	3.85036
 228	1	2	0.015001	-11.4345	2.98712	4.27681
 229	1	2	0.033313	-12.2387	3.95896	5.46181
 230	1	1	-0.357291	-12.667	5.02417	3.05294
 231	1	3	0.733725	-11.2583	6.48418	4.58754
 232	1	2	0.091627	-12.7615	4.07089	2.51911
 233	1	2	0.097893	-12.7547	5.84244	2.32633
 234	1	2	0.10238	-13.5275	5.10266	3.73175
 235	1	4	-0.43098	-12.1571	6.57522	5.61947
 236	1	1	0.017514	-12.1104	7.72354	6.49418
 237	1	5	0.102507	-12.7053	7.53772	7.39765
 238	1	5	0.044787	-12.5067	8.61177	5.98708
 239	1	5	0.053996	-11.0771	7.93089	6.80657
 240	1	6	-0.57928	-10.4188	7.34415	4.37538
 241	1	1	-0.064235	-10.595	2.43089	6.87331
 242	1	1	0.139042	-10.1337	3.60017	5.9178
 243	1	2	0.015001	-11.492	2.77829	7.40429
 244	1	2	0.033313	-9.82792	2.37351	7.65569
 245	1	1	-0.357291	-9.96022	4.83866	6.85875
 246	1	3	0.733725	-8.70553	3.24269	5.35326
 247	1	2	0.091627	-10.9142	5.14505	7.30428
 248	1	2	0.097893	-9.285	4.61766	7.69639
 249	1	2	0.10238	-9.51438	5.69231	6.33437
 250	1	4	-0.43098	-7.76552	3.11639	6.34495
 251	1	1	0.017514	-6.40451	2.79457	5.98452
 252	1	5	0.102507	-5.94989	3.62334	5.42436
 253	1	5	0.044787	-6.3711	1.89429	5.35602
 254	1	5	0.053996	-5.80667	2.60988	6.88534
 255	1	6	-0.57928	-8.41946	2.98121	4.19899
 256	1	1	-0.064235	-11.0617	0.149801	7.7497
 257	1	1	0.139042	-10.8857	0.944384	6.39175
 258	1	2	0.015001	-11.9748	0.568572	8.19035
 259	1	2	0.033313	-10.2588	0.446895	8.43611
 260	1	1	-0.357291	-9.69652	0.371581	5.56031
 261	1	3	0.733725	-12.2278	0.88839	5.58289
 262	1	2	0.091627	-9.92445	-0.629817	5.18933
 263	1	2	0.097893	-8.75722	0.348654	6.12725
 264	1	2	0.10238	-9.54398	0.928368	4.63413
 265	1	4	-0.43098	-12.0566	0.522034	4.26988
 266	1	1	0.017514	-13.1862	0.415343	3.38249
 267	1	5	0.102507	-13.816	1.31372	3.4345
 268	1	5	0.044787	-13.7945	-0.459334	3.64503
 269	1	5	0.053996	-12.8356	0.296174	2.34875
 270	1	6	-0.57928	-13.3113	1.2183	6.03531
 271	1	1	-0.064235	-9.77322	-2.10773	7.54382
 272	1	1	0.139042	-11.1383	-1.42416	7.87944
 273	1	2	0.015001	-9.77052	-3.16181	7.84766
 274	1	2	0.033313	-8.94561	-1.61179	8.0673
 275	1	1	-0.357291	-12.2358	-2.01762	6.94959
 276	1	3	0.733725	-11.4362	-1.78926	9.38123
 277	1	2	0.091627	-12.3199	-3.10223	7.10248
 278	1	2	0.097893	-12.0047	-1.85605	5.8898
 279	1	2	0.10238	-13.2179	-1.57459	7.16376
 280	1	4	-0.43098	-12.2218	-0.879196	10.0423
 281	1	1	0.017514	-12.3991	-0.964286	11.4745
 282	1	5	0.102507	-12.2351	-1.98254	11.8544
 283	1	5	0.044787	-13.417	-0.6578	11.7435
 284	1	5	0.053996	-11.6936	-0.290886	11.979
 285	1	6	-0.57928	-11.0145	-2.79404	9.93893
 286	1	2	0	17.2907	-5.86452	-3.62431
 287	1	2	0	-9.54019	-2.13845	6.48022

Velocities

   1	0.00104054	-9.5193e-05	7.77636e-05
   2	0.000937775	0.000337745	-0.000391633
   3	0.00091977	-0.000944227	0.000192976
   4	0.000788849	-0.000146713	-0.000666269
   5	0.000622621	0.000600501	-0.00152741
   6	0.00032802	-0.000415099	-0.000404778
   7	-0.000254411	-0.000410564	-0.00232483
   8	0.000664199	0.00110576	-0.0024685
   9	0.000900881	0.00123949	-0.00157639
  10	-0.000148035	-0.00165837	-0.000594882
  11	-0.000556438	-0.000296682	-0.00154797
  12	-0.000684793	0.000388767	-0.0022966
  13	-0.000322255	-0.000606682	-0.00269895
  14	-0.00110018	0.000738379	-0.000582912
  15	0.000614803	0.00131821	-0.000394547
  16	0.00123448	0.000259026	3.41494e-05
  17	0.00133096	1.45647e-05	0.000381063
  18	0.00117214	0.000119155	0.000206529
  19	0.00172842	0.000616023	-0.0001563
  20	0.0015263	-0.000227709	0.0011448
  21	0.00112747	0.000839874	0.000578832
  22	0.00166416	-0.000727675	0.00120948
  23	0.00150389	0.000230598	0.00141306
  24	0.00153656	-0.00014159	0.00144439
  25	0.00162574	0.00114074	0.000752419
  26	-0.000360498	8.63872e-05	0.00211475
  27	0.00183229	-0.000863787	0.00275391
  28	-0.00204717	-0.00172697	0.00412397
  29	-0.00239101	0.00184305	0.000946723
  30	6.99009e-05	-9.44712e-05	0.000603956
  31	0.000983936	-0.000438988	-0.00097652
  32	0.00102419	-0.000154536	-0.0008425
  33	0.000444143	-0.00106228	-0.00153717
  34	0.00134729	-7.70127e-05	-0.00135555
  35	0.00170748	0.000154622	-0.00123576
  36	0.000324938	0.000113443	-0.000135554
  37	0.000748608	0.000265311	-0.00248057
  38	0.00134192	-0.00023274	-0.000170375
  39	0.00313376	0.000309647	-0.00162001
  40	0.000928327	7.09518e-05	-0.000229516
  41	-5.32343e-05	0.000277766	0.000176282
  42	0.000481981	0.000162008	-6.2088e-05
  43	-0.000711463	-0.000568983	0.0007937
  44	-0.000702271	0.00133203	2.05596e-05
  45	-0.000117848	-0.000766523	-0.00104817
  46	0.00040127	-0.000875968	-0.000174345
  47	0.000464815	-0.000454691	-5.29404e-05
  48	0.000347464	-0.00125157	-0.000261012
  49	0.000209304	-0.000900256	0.000160113
  50	0.000216291	-0.0008578	0.000149188
  51	0.000843057	-0.000187796	-0.000228699
  52	-0.000453188	-0.000654199	1.13695e-05
  53	0.000702747	-0.000746766	0.000135146
  54	0.000159982	-0.00134985	0.000725021
  55	0.000234389	0.000133453	0.000561204
  56	0.000730984	0.000261063	0.000828767
  57	0.000989256	0.000605087	0.0013915
  58	0.000314477	0.000233793	0.000950393
  59	0.00127627	0.00024044	0.000352062
  60	0.00128904	0.000656046	0.000459354
  61	0.000245297	-0.0011633	-0.000389351
  62	0.000572829	-0.000810929	-0.000228367
  63	-0.000122108	-0.0012509	-0.000626505
  64	0.000371347	-0.00160097	-0.000159522
  65	0.000783406	-0.000568699	-0.000176973
  66	0.000987646	-0.000984489	-0.000486021
  67	0.00033907	-0.000421592	0.000106462
  68	0.00100163	-0.000855483	-0.000405311
  69	0.00121173	-0.00013686	1.19097e-05
  70	-0.00012072	-0.000659922	0.000232207
  71	-0.00112153	-0.000480468	0.000749396
  72	-0.00114956	-0.00120278	0.00116435
  73	-0.00130027	0.000288558	0.00042124
  74	-0.00181003	-0.000397158	0.00113931
  75	0.00221995	-0.00118917	-0.000893922
  76	0.000264224	-2.79188e-05	-0.000373492
  77	0.000149236	-0.000859516	-0.000403864
  78	0.000729921	0.000175581	-5.87418e-06
  79	1.16803e-05	0.000447307	-0.000689378
  80	-0.000494071	-0.000867724	-0.00048997
  81	0.00041418	-0.00127967	-0.000211154
  82	-0.000587228	-0.00109087	-0.000262709
  83	-0.000597472	-0.000715561	-0.000620549
  84	-0.000637491	-0.000718356	-0.000546424
  85	0.00116629	-0.00124226	-0.00010941
  86	-0.000242033	-0.00111368	0.00143988
  87	-0.000143728	-0.00094272	0.00419219
  88	-0.00293092	-0.00108311	0.000669278
  89	0.00104654	-0.00123025	0.000763868
  90	-0.000470456	-0.00155838	0.000528637
  91	0.000416311	0.000436059	9.22869e-05
  92	0.000311354	0.000160572	-0.000296671
  93	0.00065848	0.000396352	0.00025175
  94	0.000460752	0.000413683	7.76199e-05
  95	1.8981e-05	0.000243229	-0.000435956
  96	0.000683658	-6.81173e-05	-0.000456097
  97	2.89477e-05	0.000443387	-0.000537245
  98	-3.26375e-05	0.000336824	-0.000525182
  99	-0.00022249	5.38118e-05	-0.000405254
 100	-0.000530373	0.000611801	-0.000171747
 101	0.00103145	0.000431046	-0.000574445
 102	-0.00245701	0.000664054	0.000835602
 103	0.00347759	0.00417314	-0.00156496
 104	0.00323388	-0.00334838	-0.00154033
 105	0.00189621	-0.000257792	-0.000909362
 106	-0.000196438	0.000461034	0.000699581
 107	0.000191892	0.000642046	0.000275629
 108	-0.000129753	0.000970276	0.00117107
 109	-0.000746949	1.26462e-05	0.00102661
 110	0.000161985	0.0010288	0.000183182
 111	0.000228314	0.000678025	0.000398532
 112	0.000342517	0.00152872	0.000103411
 113	-9.69547e-05	0.000963142	-0.000171753
 114	0.000333245	0.00100459	0.000627727
 115	-0.000977926	0.00145657	-0.000320461
 116	-0.00106863	0.00156293	-0.000128927
 117	-0.00401557	0.00310888	-0.00235895
 118	-0.000918391	0.00251366	0.00384621
 119	0.00169724	-0.000785881	-0.00167486
 120	0.000749182	0.000426861	0.000615774
 121	-0.000732832	-0.000149844	0.000219636
 122	-0.000264031	-3.91033e-05	0.000157029
 123	-0.000936687	-0.000394119	0.000490292
 124	-0.000933162	7.0348e-06	8.6754e-05
 125	0.000383497	0.000148465	-9.99327e-05
 126	-0.000358595	-0.000209425	-0.000202298
 127	0.000291819	0.000126448	-0.000272198
 128	0.000712797	0.000299688	0.000244927
 129	0.000543457	0.000196815	-0.000538707
 130	-0.00114742	-5.4789e-05	-9.71983e-05
 131	-0.00178828	0.000809292	-0.000264059
 132	-0.00184465	0.000510042	-0.000163783
 133	-0.00273478	0.000995693	-0.000169078
 134	-0.00134145	0.00165235	-0.000584949
 135	-0.000545828	-0.000460364	-0.000715754
 136	-0.00121159	-0.000478905	-2.44945e-05
 137	-0.00083946	-0.000242696	0.000248618
 138	-0.0014575	-0.000525247	-0.000370294
 139	-0.00150271	-0.000678324	0.000285318
 140	-0.000549072	-0.00011357	0.0006444
 141	-0.000289421	8.61046e-06	-0.000310999
 142	-0.000608984	0.000876495	0.00116118
 143	0.000103423	-0.000763032	0.00120227
 144	-0.00111016	-0.000355559	-0.000199572
 145	-2.59828e-05	-0.00125047	-0.000140152
 146	0.000424476	-0.00149925	-0.000713531
 147	-7.29564e-05	-0.00101346	-0.000321556
 148	0.000848273	-0.00113028	-0.00172652
 149	0.000805892	-0.00255904	-0.000494023
 150	-0.000761644	0.000787108	-0.000519938
 151	-0.000980942	-0.000132756	-0.000476032
 152	-0.000999519	-0.000449367	-0.000278619
 153	-0.00152939	-0.000653748	-0.000658518
 154	-0.00113553	0.00038034	-0.000830713
 155	-0.00115519	-0.000361761	-0.000208308
 156	-0.000804511	-0.00119109	-0.000594925
 157	-0.000808419	-0.000305389	-0.000589953
 158	-0.00120009	-0.000750186	2.6465e-05
 159	-0.00147536	1.65165e-05	-1.66364e-05
 160	-0.00141348	-0.000375718	-0.000515961
 161	-0.00162977	-0.000936373	-0.00108717
 162	-0.00280019	0.000654514	-0.00028804
 163	-0.00268465	-0.00227287	-0.00282424
 164	0.000397206	-0.00166715	-0.000495092
 165	-0.000388767	-0.00164411	-0.000890656
 166	-0.00038042	0.000581058	-0.00065018
 167	-0.000244782	0.000292607	-0.000440093
 168	-0.000523657	0.000887648	-0.000796717
 169	-0.00067702	0.000708248	-0.000466049
 170	-9.03122e-05	-0.00012188	-0.000147746
 171	0.000144789	0.000308552	-0.000375008
 172	-0.000806561	5.36185e-05	0.000227616
 173	0.000305006	0.000228543	-0.000778697
 174	0.000342254	-0.000674857	0.00020667
 175	0.000824188	0.000411341	-0.00131499
 176	0.0021743	0.000194923	-0.00214899
 177	0.00356408	0.00135629	-0.000902957
 178	0.000794305	-0.000335787	-0.00238434
 179	0.00341633	-0.000599061	-0.00384954
 180	0.000574736	0.000614077	-0.000250587
 181	0.000558936	0.000395386	-0.000147506
 182	-0.000135534	0.000934081	-0.000812936
 183	0.00133321	0.000250368	-0.000494921
 184	0.000670759	0.000337374	0.000438602
 185	-0.00085551	0.000103369	-0.00114191
 186	-0.000215972	0.000643664	-0.00128146
 187	-0.00116388	0.000205883	-0.00170029
 188	-0.000908228	0.000107151	-0.0011758
 189	-0.000955364	-0.000458745	-0.000768143
 190	-0.000904638	0.00169916	-0.000442554
 191	-0.00272521	0.001839	0.00134292
 192	-0.000778026	0.00121035	-0.000599213
 193	-0.00534262	-0.00106601	0.0031111
 194	-0.0036941	0.00566285	0.00291387
 195	0.000263457	0.00180744	-0.00202731
 196	0.00141372	0.000322418	0.00113727
 197	0.000508416	0.000339303	0.000249803
 198	0.00135303	0.000248628	0.00150103
 199	0.00187641	0.000604158	0.000907059
 200	-0.000509125	0.000388068	0.000737298
 201	0.000372966	0.000236473	-0.0003562
 202	-0.00243189	0.00146596	0.00218239
 203	-0.00120306	-0.00179826	-0.000198542
 204	0.00138738	0.00155232	0.000650237
 205	-0.000271848	0.000781463	-0.000646876
 206	-0.000802148	0.000531701	-0.00137151
 207	-0.00136715	-0.000205494	-0.00183207
 208	-0.000724964	0.000295759	-0.000875772
 209	-0.000740573	0.00140373	-0.00208036
 210	0.000247487	-0.000394929	-0.000546953
 211	0.00135756	-0.000879864	0.000834984
 212	0.00168797	0.000386867	0.00144211
 213	0.00101855	-0.00084459	9.9755e-05
 214	0.00125244	-0.00180337	0.00144722
 215	0.0020479	0.00045592	0.00239384
 216	0.00168363	0.00162707	0.000763569
 217	0.00227549	0.000854549	0.00258134
 218	0.00202513	7.67068e-05	0.00270299
 219	0.0020755	0.000542494	0.00230036
 220	0.00129384	0.00150027	-0.000617737
 221	0.000290424	0.00270733	-0.000673232
 222	0.000440308	0.00304712	0.00039523
 223	4.90555e-05	0.00250764	-0.0014052
 224	-0.000513237	0.00320662	-0.000942615
 225	0.00153346	0.00282069	0.00188698
 226	0.000164274	-0.00105793	-1.41804e-05
 227	0.000878408	-0.00094352	0.000196495
 228	0.000639313	-0.00107575	-0.000222008
 229	-0.000320438	-0.00121943	-0.00064415
 230	0.00140012	-0.000620231	-0.000744731
 231	0.000607839	-0.00114653	0.000352886
 232	0.000825531	-0.00139051	0.000699762
 233	0.00284894	-0.00166433	-0.00204584
 234	0.00100674	0.00142666	-0.0015316
 235	-0.00174655	2.55322e-05	-0.00198622
 236	-0.00299551	0.000569187	-0.00256942
 237	-0.007682	0.00269593	-0.00525282
 238	0.00155879	0.001116	-0.00521959
 239	-0.00391035	-0.00171708	0.00198515
 240	0.00241348	-0.00207111	0.00245884
 241	-7.25793e-05	-0.000440788	0.000770333
 242	-0.000285813	-0.000603908	0.000572794
 243	-0.000207352	-0.000773025	0.000449373
 244	-2.14146e-05	-0.000316634	0.000759841
 245	-0.00110325	-0.000410784	0.00022443
 246	-0.000188271	-0.000610439	0.00051071
 247	-0.00157879	0.000184441	-0.00120938
 248	-0.00234634	-0.000312006	0.00126902
 249	-2.43711e-05	-0.000742334	0.000779187
 250	-5.71282e-05	0.00131886	0.000893359
 251	-0.000226137	8.58698e-05	0.0014094
 252	-0.000651115	-0.00211682	-0.00225587
 253	-0.000376224	-0.00253786	0.00512055
 254	0.000156797	0.00395336	0.00197447
 255	-0.000420879	-0.00264367	0.00120395
 256	0.00154078	-0.000225399	0.00108428
 257	0.000866022	-0.000412889	0.000781152
 258	0.00246966	0.000810531	0.00207626
 259	0.0026535	-0.0010725	0.000344984
 260	0.000754674	-0.000219767	0.000762175
 261	-0.00047242	-0.000670453	0.00211409
 262	0.0014243	-0.000299191	0.000478131
 263	0.000906776	0.000381777	0.000415268
 264	-0.00029072	-0.00043194	0.000657732
 265	-0.000367155	-0.00131882	0.00178252
 266	-0.00127972	0.000705969	0.00284656
 267	0.00158601	0.00277219	0.00197735
 268	-0.00377938	0.00300974	0.00460165
 269	-0.00235591	-0.00190036	0.00273943
 270	0.00104435	-0.00105313	0.00240364
 271	-0.000379418	-0.000709373	0.000193682
 272	0.000319076	-0.000419911	0.000824865
 273	-0.000417765	-0.000773244	0.00033688
 274	0.000322781	-0.00090349	-0.00066263
 275	-0.000305901	0.00102559	0.000552568
 276	-0.000205963	0.00120433	-0.000209386
 277	-0.00202799	0.00130089	0.00153816
 278	0.000209783	-0.000378006	0.000437211
 279	0.000237048	0.00268449	-7.89798e-05
 280	-0.00270439	-0.00182715	-0.0013203
 281	-0.00271738	-0.00113769	-0.00154425
 282	-0.00953291	-0.00282005	-0.00295623
 283	-0.000312878	0.00543098	-0.000890676
 284	0.00229883	-0.00675154	-0.00128044
 285	0.00314656	0.000748042	0.00174411
 286	0.000878566	0.00129443	1.07781e-05
 287	-0.0017464	-0.00117185	0.000176737

Bonds

   1	1	1	2
   2	2	1	3
   3	2	1	4
   4	1	2	5
   5	6	2	6
   6	2	5	7
   7	2	5	8
   8	2	5	9
   9	7	6	10
  10	3	6	15
  11	5	10	11
  12	4	11	12
  13	4	11	13
  14	4	11	14
  15	1	16	17
  16	2	16	18
  17	2	16	19
  18	1	17	20
  19	6	17	21
  20	2	20	22
  21	2	20	23
  22	2	20	24
  23	7	21	25
  24	3	21	30
  25	5	25	26
  26	4	26	27
  27	4	26	28
  28	4	26	29
  29	1	1	17
  30	1	31	32
  31	2	31	33
  32	2	31	34
  33	1	32	35
  34	6	32	36
  35	2	35	37
  36	2	35	38
  37	2	35	39
  38	7	36	40
  39	3	36	45
  40	5	40	41
  41	4	41	42
  42	4	41	43
  43	4	41	44
  44	1	16	32
  45	1	46	47
  46	2	46	48
  47	2	46	49
  48	1	47	50
  49	6	47	51
  50	2	50	52
  51	2	50	53
  52	2	50	54
  53	7	51	55
  54	3	51	60
  55	5	55	56
  56	4	56	57
  57	4	56	58
  58	4	56	59
  59	1	31	47
  60	1	61	62
  61	2	61	63
  62	2	61	64
  63	1	62	65
  64	6	62	66
  65	2	65	67
  66	2	65	68
  67	2	65	69
  68	7	66	70
  69	3	66	75
  70	5	70	71
  71	4	71	72
  72	4	71	73
  73	4	71	74
  74	1	46	62
  75	1	76	77
  76	2	76	78
  77	2	76	79
  78	1	77	80
  79	6	77	81
  80	2	80	82
  81	2	80	83
  82	2	80	84
  83	7	81	85
  84	3	81	90
  85	5	85	86
  86	4	86	87
  87	4	86	88
  88	4	86	89
  89	1	61	77
  90	1	91	92
  91	2	91	93
  92	2	91	94
  93	1	92	95
  94	6	92	96
  95	2	95	97
  96	2	95	98
  97	2	95	99
  98	7	96	100
  99	3	96	105
 100	5	100	101
 101	4	101	102
 102	4	101	103
 103	4	101	104
 104	1	76	92
 105	1	106	107
 106	2	106	108
 107	2	106	109
 108	1	107	110
 109	6	107	111
 110	2	110	112
 111	2	110	113
 112	2	110	114
 113	7	111	115
 114	3	111	120
 115	5	115	116
 116	4	116	117
 117	4	116	118
 118	4	116	119
 119	1	91	107
 120	1	121	122
 121	2	121	123
 122	2	121	124
 123	1	122	125
 124	6	122	126
 125	2	125	127
 126	2	125	128
 127	2	125	129
 128	7	126	130
 129	3	126	135
 130	5	130	131
 131	4	131	132
 132	4	131	133
 133	4	131	134
 134	1	106	122
 135	1	136	137
 136	2	136	138
 137	2	136	139
 138	1	137	140
 139	6	137	141
 140	2	140	142
 141	2	140	143
 142	2	140	144
 143	7	141	145
 144	3	141	150
 145	5	145	146
 146	4	146	147
 147	4	146	148
 148	4	146	149
 149	1	121	137
 150	1	151	152
 151	2	151	153
 152	2	151	154
 153	1	152	155
 154	6	152	156
 155	2	155	157
 156	2	155	158
 157	2	155	159
 158	7	156	160
 159	3	156	165
 160	5	160	161
 161	4	161	162
 162	4	161	163
 163	4	161	164
 164	1	136	152
 165	1	166	167
 166	2	166	168
 167	2	166	169
 168	1	167	170
 169	6	167	171
 170	2	170	172
 171	2	170	173
 172	2	170	174
 173	7	171	175
 174	3	171	180
 175	5	175	176
 176	4	176	177
 177	4	176	178
 178	4	176	179
 179	1	151	167
 180	1	181	182
 181	2	181	183
 182	2	181	184
 183	1	182	185
 184	6	182	186
 185	2	185	187
 186	2	185	188
 187	2	185	189
 188	7	186	190
 189	3	186	195
 190	5	190	191
 191	4	191	192
 192	4	191	193
 193	4	191	194
 194	1	166	182
 195	1	196	197
 196	2	196	198
 197	2	196	199
 198	1	197	200
 199	6	197	201
 200	2	200	202
 201	2	200	203
 202	2	200	204
 203	7	201	205
 204	3	201	210
 205	5	205	206
 206	4	206	207
 207	4	206	208
 208	4	206	209
 209	1	181	197
 210	1	211	212
 211	2	211	213
 212	2	211	214
 213	1	212	215
 214	6	212	216
 215	2	215	217
 216	2	215	218
 217	2	215	219
 218	7	216	220
 219	3	216	225
 220	5	220	221
 221	4	221	222
 222	4	221	223
 223	4	221	224
 224	1	196	212
 225	1	226	227
 226	2	226	228
 227	2	226	229
 228	1	227	230
 229	6	227	231
 230	2	230	232
 231	2	230	233
 232	2	230	234
 233	7	231	235
 234	3	231	240
 235	5	235	236
 236	4	236	237
 237	4	236	238
 238	4	236	239
 239	1	211	227
 240	1	241	242
 241	2	241	243
 242	2	241	244
 243	1	242	245
 244	6	242	246
 245	2	245	247
 246	2	245	248
 247	2	245	249
 248	7	246	250
 249	3	246	255
 250	5	250	251
 251	4	251	252
 252	4	251	253
 253	4	251	254
 254	1	226	242
 255	1	256	257
 256	2	256	258
 257	2	256	259
 258	1	257	260
 259	6	257	261
 260	2	260	262
 261	2	260	263
 262	2	260	264
 263	7	261	265
 264	3	261	270
 265	5	265	266
 266	4	266	267
 267	4	266	268
 268	4	266	269
 269	1	241	257
 270	1	271	272
 271	2	271	273
 272	2	271	274
 273	1	272	275
 274	6	272	276
 275	2	275	277
 276	2	275	278
 277	2	275	279
 278	7	276	280
 279	3	276	285
 280	5	280	281
 281	4	281	282
 282	4	281	283
 283	4	281	284
 284	1	256	272
 285	2	2	286
 286	2	271	287

Angles
