pySIMM System Object

722 atoms
721 bonds
1344 angles
1815 dihedrals
48 impropers

6 atom types
7 bond types
11 angle types
9 dihedral types
1 improper types

-125.019780 125.019780 xlo xhi
-125.019780 125.019780 ylo yhi
-125.019780 125.019780 zlo zhi

Masses

   1	12.01	# c3
   2	1.008	# hc
   3	12.01	# c
   4	16.0	# os
   5	1.008	# h1
   6	16.0	# o

Pair Coeffs

   1	0.1094	3.3996695084235347	# c3
   2	0.0157	2.649532787749369	# hc
   3	0.086	3.3996695084235347	# c
   4	0.17	3.0000123434657784	# os
   5	0.0157	2.471353044121301	# h1
   6	0.21	2.959921901149463	# o

Bond Coeffs

   1	300.9	1.5375	# c3,c3
   2	330.6	1.0969	# c3,hc
   3	637.7	1.2183	# c,o
   4	330.6	1.0969	# c3,h1
   5	308.6	1.4316	# c3,os
   6	313.0	1.5241	# c,c3
   7	390.8	1.3584	# c,os

Angle Coeffs

   1	46.93	108.77	# c,c3,hc
   2	67.4	123.2	# c3,c,o
   3	75.32	123.25	# o,c,os
   4	39.24	108.46	# h1,c3,h1
   5	63.27	111.04	# c,c3,c3
   6	46.34	109.8	# c3,c3,hc
   7	50.8	109.78	# h1,c3,os
   8	63.28	115.98	# c,os,c3
   9	62.86	111.51	# c3,c3,c3
  10	39.4	107.58	# hc,c3,hc
  11	68.89	110.72	# c3,c,os

Dihedral Coeffs

   1	1	0.3833333333333333	3	0	# X,c3,os,X
   2	1	0.0	2	180	# X,c,c3,X
   3	1	0.15	3	0	# hc,c3,c3,hc
   4	3	0.8	1	0	0.0	2	0	0.08	3	180	# hc,c3,c,o
   5	3	2.7	2	180	0.0	1	0	1.15	3	0	# c3,c,os,c3
   6	1	0.16	3	0	# hc,c3,c3,c3
   7	2	2.7	2	180	1.4	1	180	# o,c,os,c3
   8	1	0.15555555555555556	3	0	# X,c3,c3,X
   9	3	0.18	3	0	0.25	2	180	0.2	1	180	# c3,c3,c3,c3

Improper Coeffs

   1	10.5	-1	2	# c,X,X,o

Atoms

   1	1	1	-0.064235	-21.7065	0.172159	7.86865
   2	1	1	0.139042	-22.8643	-0.596444	8.57922
   3	1	2	0.015001	-21.4683	1.04641	8.47627
   4	1	2	0.033313	-22.0949	0.589517	6.93009
   5	1	1	-0.357291	-24.2257	0.0963524	8.30007
   6	1	3	0.733725	-22.6241	-0.740566	10.1019
   7	1	2	0.091627	-24.232	1.12199	8.69212
   8	1	2	0.097893	-25.0444	-0.456824	8.77868
   9	1	2	0.10238	-24.4323	0.13498	7.22251
  10	1	4	-0.43098	-22.8986	-2.00527	10.5455
  11	1	1	0.017514	-22.7475	-2.29867	11.948
  12	1	5	0.102507	-21.7271	-2.07075	12.2857
  13	1	5	0.044787	-22.9493	-3.36103	12.1335
  14	1	5	0.053996	-23.4522	-1.70045	12.5407
  15	1	6	-0.57928	-22.2158	0.156675	10.8231
  16	1	1	-0.064235	-19.3576	0.240913	6.78161
  17	1	1	0.139042	-20.4171	-0.662501	7.52807
  18	1	2	0.015001	-18.7629	-0.429485	6.1457
  19	1	2	0.033313	-19.9115	0.863098	6.06541
  20	1	1	-0.357291	-19.8362	-1.32836	8.82085
  21	1	3	0.733725	-20.832	-1.75486	6.48601
  22	1	2	0.091627	-20.5052	-2.11052	9.19883
  23	1	2	0.097893	-19.6745	-0.607956	9.63133
  24	1	2	0.10238	-18.8858	-1.83744	8.61465
  25	1	4	-0.43098	-20.0876	-2.90161	6.57339
  26	1	1	0.017514	-20.3536	-3.9847	5.66145
  27	1	5	0.102507	-20.2176	-3.65749	4.62161
  28	1	5	0.044787	-21.3841	-4.34297	5.78364
  29	1	5	0.053996	-19.6684	-4.81863	5.85822
  30	1	6	-0.57928	-21.6948	-1.59063	5.63708
  31	1	1	-0.064235	-17.609	2.0184	6.4111
  32	1	1	0.139042	-18.3225	1.16685	7.53838
  33	1	2	0.015001	-18.3353	2.7639	6.08347
  34	1	2	0.033313	-17.4977	1.37437	5.52815
  35	1	1	-0.357291	-19.0926	2.14923	8.48684
  36	1	3	0.733725	-17.2908	0.258239	8.27747
  37	1	2	0.091627	-19.5615	1.62002	9.32375
  38	1	2	0.097893	-19.8731	2.69903	7.94592
  39	1	2	0.10238	-18.4383	2.89044	8.95033
  40	1	4	-0.43098	-17.1443	0.556368	9.60628
  41	1	1	0.017514	-16.2259	-0.217212	10.4016
  42	1	5	0.102507	-15.2115	-0.160742	9.98382
  43	1	5	0.044787	-16.5362	-1.26989	10.4284
  44	1	5	0.053996	-16.2027	0.166479	11.4291
  45	1	6	-0.57928	-16.6938	-0.65837	7.73562
  46	1	1	-0.064235	-15.8991	3.68967	5.41126
  47	1	1	0.139042	-16.1977	2.70776	6.62245
  48	1	2	0.015001	-14.8089	3.70376	5.27314
  49	1	2	0.033313	-16.2723	3.19493	4.50361
  50	1	1	-0.357291	-16.0725	3.44356	8.00046
  51	1	3	0.733725	-15.1129	1.58444	6.47603
  52	1	2	0.091627	-16.7889	4.26026	8.12384
  53	1	2	0.097893	-15.0639	3.85402	8.12953
  54	1	2	0.10238	-16.2021	2.76036	8.84456
  55	1	4	-0.43098	-14.4044	1.33265	7.62287
  56	1	1	0.017514	-13.4063	0.29435	7.60448
  57	1	5	0.102507	-13.8607	-0.667428	7.32638
  58	1	5	0.044787	-12.9487	0.193488	8.59608
  59	1	5	0.053996	-12.6192	0.532735	6.8772
  60	1	6	-0.57928	-14.9119	0.98489	5.42967
  61	1	1	-0.064235	-16.0446	5.6785	3.87117
  62	1	1	0.139042	-16.3607	5.20487	5.35541
  63	1	2	0.015001	-15.1209	5.18566	3.55098
  64	1	2	0.033313	-16.8278	5.22821	3.25423
  65	1	1	-0.357291	-17.9093	5.28082	5.5976
  66	1	3	0.733725	-15.5439	6.03474	6.39888
  67	1	2	0.091627	-18.4575	4.68924	4.85325
  68	1	2	0.097893	-18.2979	6.29985	5.54534
  69	1	2	0.10238	-18.1872	4.92209	6.59274
  70	1	4	-0.43098	-16.2319	7.11499	6.88151
  71	1	1	0.017514	-15.5836	8.00726	7.80871
  72	1	5	0.102507	-16.266	8.81669	8.09766
  73	1	5	0.044787	-14.6931	8.45462	7.34821
  74	1	5	0.053996	-15.2775	7.4665	8.71385
  75	1	6	-0.57928	-14.4059	5.76935	6.75473
  76	1	1	-0.064235	-15.853	7.37223	1.85776
  77	1	1	0.139042	-15.9392	7.19734	3.43117
  78	1	2	0.015001	-16.8614	7.23586	1.44636
  79	1	2	0.033313	-15.6279	8.4349	1.71516
  80	1	1	-0.357291	-17.2547	7.95526	3.80642
  81	1	3	0.733725	-14.7324	7.95701	4.0773
  82	1	2	0.091627	-17.3315	8.13498	4.88299
  83	1	2	0.097893	-18.147	7.41198	3.46943
  84	1	2	0.10238	-17.2793	8.9505	3.34111
  85	1	4	-0.43098	-13.6774	7.14905	4.39115
  86	1	1	0.017514	-12.5002	7.71723	4.99702
  87	1	5	0.102507	-11.7708	6.92694	5.21576
  88	1	5	0.044787	-12.7582	8.21765	5.9391
  89	1	5	0.053996	-12.0364	8.44986	4.32392
  90	1	6	-0.57928	-14.711	9.16472	4.2593
  91	1	1	-0.064235	-14.6745	7.35641	-0.452581
  92	1	1	0.139042	-14.8677	6.57702	0.910576
  93	1	2	0.015001	-14.0738	8.24946	-0.230332
  94	1	2	0.033313	-14.0142	6.74217	-1.07991
  95	1	1	-0.357291	-13.4279	6.50573	1.51179
  96	1	3	0.733725	-15.3698	5.12627	0.614938
  97	1	2	0.091627	-13.0764	7.49246	1.83988
  98	1	2	0.097893	-12.7058	6.14122	0.768767
  99	1	2	0.10238	-13.3667	5.80443	2.3503
 100	1	4	-0.43098	-14.4823	4.41008	-0.146148
 101	1	1	0.017514	-14.8095	3.05646	-0.517529
 102	1	5	0.102507	-15.7597	3.02364	-1.06824
 103	1	5	0.044787	-14.9036	2.42758	0.377431
 104	1	5	0.053996	-14.0203	2.63945	-1.15544
 105	1	6	-0.57928	-16.4592	4.68165	0.938634
 106	1	1	-0.064235	-15.1927	8.28185	-2.72287
 107	1	1	0.139042	-15.8748	7.82877	-1.36918
 108	1	2	0.015001	-14.9434	7.35698	-3.26036
 109	1	2	0.033313	-14.2142	8.7138	-2.47335
 110	1	1	-0.357291	-16.8169	6.6102	-1.65545
 111	1	3	0.733725	-16.6019	9.03341	-0.6967
 112	1	2	0.091627	-17.3774	6.31646	-0.760869
 113	1	2	0.097893	-16.2537	5.73992	-2.01577
 114	1	2	0.10238	-17.5749	6.83138	-2.41049
 115	1	4	-0.43098	-17.9632	8.90498	-0.656166
 116	1	1	0.017514	-18.7479	9.98373	-0.112185
 117	1	5	0.102507	-18.4504	10.1981	0.923246
 118	1	5	0.044787	-19.8122	9.71807	-0.124658
 119	1	5	0.053996	-18.6089	10.8942	-0.710667
 120	1	6	-0.57928	-16.0103	9.99488	-0.232541
 121	1	1	-0.064235	-14.8615	9.28698	-4.99214
 122	1	1	0.139042	-15.857	9.2836	-3.75547
 123	1	2	0.015001	-14.5698	8.25901	-5.21193
 124	1	2	0.033313	-13.9354	9.72434	-4.59852
 125	1	1	-0.357291	-17.2871	8.79736	-4.14558
 126	1	3	0.733725	-15.9307	10.7164	-3.13143
 127	1	2	0.091627	-17.7652	9.46979	-4.86289
 128	1	2	0.097893	-17.9556	8.80705	-3.27784
 129	1	2	0.10238	-17.2837	7.78494	-4.56041
 130	1	4	-0.43098	-14.7032	11.202	-2.76492
 131	1	1	0.017514	-14.6318	12.4822	-2.10781
 132	1	5	0.102507	-15.2248	12.4707	-1.18182
 133	1	5	0.044787	-15.02	13.2726	-2.76322
 134	1	5	0.053996	-13.5915	12.7176	-1.85171
 135	1	6	-0.57928	-16.9688	11.3424	-2.97401
 136	1	1	-0.064235	-16.1141	9.23857	-7.35775
 137	1	1	0.139042	-15.14	10.012	-6.37473
 138	1	2	0.015001	-17.0363	9.03642	-6.81064
 139	1	2	0.033313	-16.4188	9.96187	-8.12656
 140	1	1	-0.357291	-15.8044	11.402	-6.1029
 141	1	3	0.733725	-13.7769	10.296	-7.09325
 142	1	2	0.091627	-15.186	12.0163	-5.43537
 143	1	2	0.097893	-16.8079	11.3172	-5.67207
 144	1	2	0.10238	-15.9154	11.9737	-7.03487
 145	1	4	-0.43098	-12.7552	9.46361	-6.70682
 146	1	1	0.017514	-11.4482	9.63125	-7.29156
 147	1	5	0.102507	-11.0633	10.6412	-7.09394
 148	1	5	0.044787	-11.4909	9.48185	-8.37833
 149	1	5	0.053996	-10.7496	8.90003	-6.86641
 150	1	6	-0.57928	-13.6271	11.1586	-7.94524
 151	1	1	-0.064235	-17.0312	7.51956	-8.95519
 152	1	1	0.139042	-15.7293	7.91413	-8.1428
 153	1	2	0.015001	-17.089	8.23748	-9.78387
 154	1	2	0.033313	-17.91	7.77011	-8.34686
 155	1	1	-0.357291	-14.605	8.24908	-9.19058
 156	1	3	0.733725	-15.3423	6.79316	-7.13273
 157	1	2	0.091627	-14.8093	9.19435	-9.7112
 158	1	2	0.097893	-14.4916	7.48981	-9.96432
 159	1	2	0.10238	-13.6144	8.32358	-8.73768
 160	1	4	-0.43098	-14.0961	6.26516	-7.33969
 161	1	1	0.017514	-13.6054	5.26334	-6.4289
 162	1	5	0.102507	-14.3033	4.41816	-6.37462
 163	1	5	0.044787	-13.4925	5.68667	-5.42238
 164	1	5	0.053996	-12.6297	4.89113	-6.76304
 165	1	6	-0.57928	-16.0529	6.4466	-6.20289
 166	1	1	-0.064235	-16.0538	5.41459	-10.214
 167	1	1	0.139042	-17.3178	6.07082	-9.53588
 168	1	2	0.015001	-15.7492	6.08025	-11.0304
 169	1	2	0.033313	-15.2337	5.44769	-9.49246
 170	1	1	-0.357291	-17.8536	5.15789	-8.38397
 171	1	3	0.733725	-18.4533	6.29603	-10.5886
 172	1	2	0.091627	-17.0584	4.77308	-7.73876
 173	1	2	0.097893	-18.401	4.29504	-8.78524
 174	1	2	0.10238	-18.5711	5.69343	-7.74814
 175	1	4	-0.43098	-18.0143	6.93085	-11.7212
 176	1	1	0.017514	-18.9545	7.21792	-12.7749
 177	1	5	0.102507	-19.4256	6.29312	-13.1354
 178	1	5	0.044787	-18.4407	7.69986	-13.6159
 179	1	5	0.053996	-19.7415	7.89228	-12.4127
 180	1	6	-0.57928	-19.6241	5.99194	-10.4172
 181	1	1	-0.064235	-14.6338	3.75168	-11.4425
 182	1	1	0.139042	-16.0629	3.94348	-10.7913
 183	1	2	0.015001	-14.4232	4.63025	-12.0641
 184	1	2	0.033313	-13.9157	3.81571	-10.618
 185	1	1	-0.357291	-17.1873	3.7942	-11.8639
 186	1	3	0.733725	-16.2556	2.90914	-9.6369
 187	1	2	0.091627	-18.1847	3.85051	-11.4123
 188	1	2	0.097893	-17.152	2.81883	-12.3594
 189	1	2	0.10238	-17.1105	4.56713	-12.6398
 190	1	4	-0.43098	-15.2698	2.96826	-8.68515
 191	1	1	0.017514	-15.317	2.03233	-7.58925
 192	1	5	0.102507	-16.247	2.15442	-7.01646
 193	1	5	0.044787	-14.4649	2.19007	-6.91732
 194	1	5	0.053996	-15.2746	1.00158	-7.96544
 195	1	6	-0.57928	-17.1735	2.10473	-9.58058
 196	1	1	-0.064235	-12.678	2.31462	-12.3414
 197	1	1	0.139042	-14.2475	2.48265	-12.2958
 198	1	2	0.015001	-12.3515	2.02345	-11.3354
 199	1	2	0.033313	-12.4922	1.4282	-12.9501
 200	1	1	-0.357291	-14.7647	1.17	-11.6191
 201	1	3	0.733725	-14.8031	2.5665	-13.7555
 202	1	2	0.091627	-14.3856	0.280752	-12.1407
 203	1	2	0.097893	-15.8579	1.09316	-11.6418
 204	1	2	0.10238	-14.4277	1.09082	-10.5776
 205	1	4	-0.43098	-14.5255	1.43853	-14.4841
 206	1	1	0.017514	-14.9237	1.37906	-15.8676
 207	1	5	0.102507	-16.0102	1.51026	-15.9639
 208	1	5	0.044787	-14.648	0.407686	-16.2966
 209	1	5	0.053996	-14.4247	2.16942	-16.4437
 210	1	6	-0.57928	-15.3553	3.53901	-14.2455
 211	1	1	-0.064235	-10.2196	2.96007	-13.0064
 212	1	1	0.139042	-11.7133	3.46493	-12.8365
 213	1	2	0.015001	-9.68232	3.77927	-13.4981
 214	1	2	0.033313	-9.77692	2.89371	-12.0065
 215	1	1	-0.357291	-12.1987	4.08878	-14.1897
 216	1	3	0.733725	-11.6422	4.60476	-11.7626
 217	1	2	0.091627	-13.078	4.72797	-14.0397
 218	1	2	0.097893	-12.4664	3.34748	-14.9462
 219	1	2	0.10238	-11.4292	4.74403	-14.6189
 220	1	4	-0.43098	-11.3142	4.1555	-10.5095
 221	1	1	0.017514	-11.2552	5.09925	-9.42183
 222	1	5	0.102507	-10.5321	5.89699	-9.63951
 223	1	5	0.044787	-10.9502	4.5906	-8.49924
 224	1	5	0.053996	-12.2396	5.55808	-9.26046
 225	1	6	-0.57928	-11.8664	5.78432	-11.9884
 226	1	1	-0.064235	-8.30316	1.6374	-14.1798
 227	1	1	0.139042	-9.82539	1.62126	-13.7506
 228	1	2	0.015001	-8.18373	2.44068	-14.919
 229	1	2	0.033313	-8.14643	0.697942	-14.7183
 230	1	1	-0.357291	-10.5941	1.48882	-15.1087
 231	1	3	0.733725	-10.1041	0.371006	-12.856
 232	1	2	0.091627	-10.4799	2.39102	-15.723
 233	1	2	0.097893	-11.6612	1.28993	-14.9669
 234	1	2	0.10238	-10.2114	0.646983	-15.7025
 235	1	4	-0.43098	-9.97254	-0.806528	-13.5407
 236	1	1	0.017514	-10.1694	-2.05137	-12.843
 237	1	5	0.102507	-9.45885	-2.14452	-12.0105
 238	1	5	0.044787	-10.017	-2.89412	-13.5286
 239	1	5	0.053996	-11.1891	-2.10761	-12.4399
 240	1	6	-0.57928	-10.3678	0.413983	-11.6641
 241	1	1	-0.064235	-5.70058	1.79633	-13.9064
 242	1	1	0.139042	-7.10639	1.76801	-13.1647
 243	1	2	0.015001	-4.94093	1.76199	-13.1137
 244	1	2	0.033313	-5.57248	2.79362	-14.348
 245	1	1	-0.357291	-7.12618	0.574888	-12.1491
 246	1	3	0.733725	-7.18219	3.15505	-12.4426
 247	1	2	0.091627	-7.33747	-0.38398	-12.6347
 248	1	2	0.097893	-6.16736	0.483564	-11.622
 249	1	2	0.10238	-7.88519	0.709875	-11.3697
 250	1	4	-0.43098	-7.21896	3.08079	-11.0755
 251	1	1	0.017514	-7.35044	4.29222	-10.307
 252	1	5	0.102507	-6.5226	4.981	-10.5235
 253	1	5	0.044787	-7.34266	4.05893	-9.23502
 254	1	5	0.053996	-8.29605	4.79558	-10.5477
 255	1	6	-0.57928	-7.20838	4.22096	-13.0395
 256	1	1	-0.064235	-3.68385	0.886062	-15.148
 257	1	1	0.139042	-5.26525	0.774394	-15.0357
 258	1	2	0.015001	-3.27061	0.530889	-14.1949
 259	1	2	0.033313	-3.42549	1.95338	-15.1566
 260	1	1	-0.357291	-5.89648	1.21338	-16.4007
 261	1	3	0.733725	-5.67657	-0.679163	-14.6511
 262	1	2	0.091627	-6.98423	1.26288	-16.388
 263	1	2	0.097893	-5.67768	0.486768	-17.1888
 264	1	2	0.10238	-5.53123	2.19938	-16.7149
 265	1	4	-0.43098	-4.99106	-1.14799	-13.5631
 266	1	1	0.017514	-5.18636	-2.51333	-13.1473
 267	1	5	0.102507	-4.91215	-3.20265	-13.9585
 268	1	5	0.044787	-6.23513	-2.6888	-12.8758
 269	1	5	0.053996	-4.55547	-2.73469	-12.2775
 270	1	6	-0.57928	-6.51643	-1.33229	-15.2511
 271	1	1	-0.064235	-1.36815	0.0616538	-15.7715
 272	1	1	0.139042	-2.85231	0.202824	-16.3141
 273	1	2	0.015001	-1.43246	-0.679661	-14.9691
 274	1	2	0.033313	-1.08421	0.995744	-15.2698
 275	1	1	-0.357291	-2.86132	1.1448	-17.571
 276	1	3	0.733725	-3.42144	-1.22363	-16.6074
 277	1	2	0.091627	-2.52892	2.15763	-17.3133
 278	1	2	0.097893	-3.84748	1.24481	-18.0283
 279	1	2	0.10238	-2.2187	0.765207	-18.3716
 280	1	4	-0.43098	-4.0357	-1.33097	-17.8263
 281	1	1	0.017514	-4.65919	-2.58016	-18.1831
 282	1	5	0.102507	-3.93083	-3.40191	-18.1501
 283	1	5	0.044787	-5.07423	-2.51826	-19.1965
 284	1	5	0.053996	-5.47547	-2.81024	-17.485
 285	1	6	-0.57928	-3.32125	-2.16652	-15.839
 286	1	1	-0.064235	1.048	-0.941128	-15.837
 287	1	1	0.139042	-0.163453	-0.389767	-16.6936
 288	1	2	0.015001	0.714965	-1.85843	-15.3343
 289	1	2	0.033313	1.77678	-1.26647	-16.5861
 290	1	1	-0.357291	-0.586745	-1.61856	-17.5677
 291	1	3	0.733725	0.358251	0.721931	-17.6656
 292	1	2	0.091627	-0.955748	-2.44872	-16.9508
 293	1	2	0.097893	0.266465	-2.00482	-18.1422
 294	1	2	0.10238	-1.35121	-1.36002	-18.3085
 295	1	4	-0.43098	-0.0278943	1.9956	-17.3409
 296	1	1	0.017514	0.395518	3.09267	-18.1752
 297	1	5	0.102507	1.49161	3.13215	-18.2397
 298	1	5	0.044787	0.0344504	4.04214	-17.7609
 299	1	5	0.053996	-0.00848559	2.97825	-19.1897
 300	1	6	-0.57928	1.11051	0.492419	-18.6
 301	1	1	-0.064235	3.28127	-0.784369	-14.5611
 302	1	1	0.139042	1.87136	-0.0986065	-14.7824
 303	1	2	0.015001	3.84366	-0.144908	-13.8684
 304	1	2	0.033313	3.80281	-0.677975	-15.5128
 305	1	1	-0.357291	2.21724	1.32089	-15.3387
 306	1	3	0.733725	1.12721	0.0806893	-13.4196
 307	1	2	0.091627	2.63169	1.27578	-16.3542
 308	1	2	0.097893	2.96978	1.81951	-14.7128
 309	1	2	0.10238	1.34122	1.97829	-15.326
 310	1	4	-0.43098	1.80225	0.90878	-12.5604
 311	1	1	0.017514	1.23835	1.18141	-11.262
 312	1	5	0.102507	1.10378	0.250237	-10.6945
 313	1	5	0.044787	0.260686	1.67017	-11.3657
 314	1	5	0.053996	1.9015	1.84605	-10.6944
 315	1	6	-0.57928	0.082614	-0.464501	-13.1088
 316	1	1	-0.064235	4.9718	-2.52807	-13.6357
 317	1	1	0.139042	3.46372	-2.27823	-14.0577
 318	1	2	0.015001	4.97886	-3.38196	-12.9461
 319	1	2	0.033313	5.2555	-1.68281	-12.9943
 320	1	1	-0.357291	2.6544	-2.45924	-12.7304
 321	1	3	0.733725	2.99067	-3.35244	-15.0889
 322	1	2	0.091627	2.88293	-3.42193	-12.2531
 323	1	2	0.097893	2.87314	-1.66881	-12.0011
 324	1	2	0.10238	1.57428	-2.48751	-12.9177
 325	1	4	-0.43098	3.40508	-3.08746	-16.3627
 326	1	1	0.017514	3.0463	-3.99393	-17.4243
 327	1	5	0.102507	3.49127	-3.66363	-18.3716
 328	1	5	0.044787	1.95562	-4.03554	-17.5415
 329	1	5	0.053996	3.41354	-5.00488	-17.2074
 330	1	6	-0.57928	2.32113	-4.33138	-14.8013
 331	1	1	-0.064235	7.47208	-2.71052	-13.7499
 332	1	1	0.139042	6.17025	-2.76969	-14.6526
 333	1	2	0.015001	7.23056	-3.16416	-12.7791
 334	1	2	0.033313	7.61429	-1.6478	-13.508
 335	1	1	-0.357291	6.24103	-1.59511	-15.6838
 336	1	3	0.733725	6.02501	-4.14248	-15.387
 337	1	2	0.091627	7.14705	-1.62931	-16.289
 338	1	2	0.097893	6.20359	-0.613807	-15.1948
 339	1	2	0.10238	5.43556	-1.65912	-16.4213
 340	1	4	-0.43098	5.58252	-5.1505	-14.5714
 341	1	1	0.017514	5.36861	-6.45999	-15.1447
 342	1	5	0.102507	6.3057	-6.86825	-15.5513
 343	1	5	0.044787	4.63181	-6.40878	-15.9554
 344	1	5	0.053996	4.98709	-7.15262	-14.3846
 345	1	6	-0.57928	6.24081	-4.30131	-16.5779
 346	1	1	-0.064235	8.92985	-4.83008	-13.8062
 347	1	1	0.139042	8.89042	-3.29181	-14.1491
 348	1	2	0.015001	8.04102	-5.29321	-14.2348
 349	1	2	0.033313	8.77271	-4.91912	-12.7231
 350	1	1	-0.357291	9.2634	-3.04026	-15.6471
 351	1	3	0.733725	9.87	-2.54081	-13.1862
 352	1	2	0.091627	8.6238	-3.59714	-16.3403
 353	1	2	0.097893	10.2992	-3.32609	-15.8584
 354	1	2	0.10238	9.20396	-1.9755	-15.9003
 355	1	4	-0.43098	10.4513	-1.43784	-13.7552
 356	1	1	0.017514	11.324	-0.610371	-12.962
 357	1	5	0.102507	12.1779	-1.19228	-12.5892
 358	1	5	0.044787	10.7808	-0.196291	-12.1025
 359	1	5	0.053996	11.7041	0.222319	-13.5671
 360	1	6	-0.57928	10.0174	-2.8267	-12.0073
 361	1	1	-0.064235	9.88627	-7.09491	-13.4065
 362	1	1	0.139042	10.1491	-5.75732	-14.2021
 363	1	2	0.015001	9.85336	-6.84636	-12.3373
 364	1	2	0.033313	8.86729	-7.36196	-13.6841
 365	1	1	-0.357291	11.5021	-5.10577	-13.756
 366	1	3	0.733725	10.0693	-6.04439	-15.7341
 367	1	2	0.091627	11.6599	-4.12702	-14.2191
 368	1	2	0.097893	12.3684	-5.69629	-14.0701
 369	1	2	0.10238	11.5494	-4.98224	-12.6655
 370	1	4	-0.43098	11.2353	-5.78204	-16.4034
 371	1	1	0.017514	11.3034	-6.04119	-17.819
 372	1	5	0.102507	10.5308	-5.47353	-18.3556
 373	1	5	0.044787	11.1524	-7.11012	-18.0185
 374	1	5	0.053996	12.2874	-5.75034	-18.2075
 375	1	6	-0.57928	9.06806	-6.47119	-16.2856
 376	1	1	-0.064235	10.3748	-9.46384	-12.4366
 377	1	1	0.139042	10.7538	-8.40567	-13.5556
 378	1	2	0.015001	11.1809	-10.2041	-12.4518
 379	1	2	0.033313	10.4818	-8.94954	-11.4735
 380	1	1	-0.357291	10.5665	-9.0359	-14.9698
 381	1	3	0.733725	12.2628	-8.09516	-13.3034
 382	1	2	0.091627	11.0719	-8.44918	-15.7452
 383	1	2	0.097893	9.50793	-9.11526	-15.2506
 384	1	2	0.10238	11.0196	-10.0345	-15.0145
 385	1	4	-0.43098	12.4991	-7.60738	-12.0433
 386	1	1	0.017514	13.8508	-7.29746	-11.6512
 387	1	5	0.102507	14.4924	-8.18525	-11.7372
 388	1	5	0.044787	13.8702	-6.95144	-10.6103
 389	1	5	0.053996	14.2635	-6.50618	-12.2904
 390	1	6	-0.57928	13.1581	-8.30289	-14.1074
 391	1	1	-0.064235	8.73459	-10.7565	-10.8999
 392	1	1	0.139042	9.01103	-10.2678	-12.3804
 393	1	2	0.015001	8.90277	-9.87744	-10.2706
 394	1	2	0.033313	7.66006	-10.9685	-10.8375
 395	1	1	-0.357291	9.03718	-11.4887	-13.3558
 396	1	3	0.733725	7.79821	-9.34243	-12.717
 397	1	2	0.091627	8.09113	-12.0418	-13.2999
 398	1	2	0.097893	9.85492	-12.1854	-13.1472
 399	1	2	0.10238	9.12179	-11.1805	-14.4014
 400	1	4	-0.43098	7.56894	-8.4037	-11.7407
 401	1	1	0.017514	6.46425	-7.49008	-11.8762
 402	1	5	0.102507	6.58828	-6.86574	-12.7684
 403	1	5	0.044787	6.4068	-6.83294	-11.0002
 404	1	5	0.053996	5.51872	-8.04238	-11.9588
 405	1	6	-0.57928	7.16699	-9.37357	-13.7623
 406	1	1	-0.064235	9.27598	-11.8022	-8.6032
 407	1	1	0.139042	9.4662	-11.9455	-10.1695
 408	1	2	0.015001	9.71204	-12.7024	-8.15059
 409	1	2	0.033313	9.93361	-10.9903	-8.2643
 410	1	1	-0.357291	11.0127	-11.8789	-10.3927
 411	1	3	0.733725	8.92644	-13.3405	-10.6275
 412	1	2	0.091627	11.5344	-12.5897	-9.73737
 413	1	2	0.097893	11.4129	-10.8824	-10.1671
 414	1	2	0.10238	11.2903	-12.1508	-11.4166
 415	1	4	-0.43098	9.65367	-14.3813	-10.1111
 416	1	1	0.017514	9.23699	-15.7326	-10.3904
 417	1	5	0.102507	9.20489	-15.9137	-11.4736
 418	1	5	0.044787	8.23618	-15.915	-9.97737
 419	1	5	0.053996	9.93628	-16.4452	-9.9356
 420	1	6	-0.57928	7.94126	-13.5165	-11.3255
 421	1	1	-0.064235	8.11434	-11.6426	-6.36592
 422	1	1	0.139042	7.86429	-11.5613	-7.92452
 423	1	2	0.015001	8.7524	-12.5142	-6.17012
 424	1	2	0.033313	8.7519	-10.7914	-6.09258
 425	1	1	-0.357291	6.86046	-12.6706	-8.37205
 426	1	3	0.733725	7.33172	-10.1331	-8.27384
 427	1	2	0.091627	5.88963	-12.5704	-7.87763
 428	1	2	0.097893	7.24796	-13.6785	-8.17194
 429	1	2	0.10238	6.62534	-12.5913	-9.43835
 430	1	4	-0.43098	8.17944	-9.1372	-7.86248
 431	1	1	0.017514	7.83541	-7.76537	-8.13829
 432	1	5	0.102507	7.74838	-7.59982	-9.21991
 433	1	5	0.044787	8.61027	-7.09576	-7.74498
 434	1	5	0.053996	6.87754	-7.50742	-7.66783
 435	1	6	-0.57928	6.29399	-9.91031	-8.87765
 436	1	1	-0.064235	7.57055	-11.3914	-3.92356
 437	1	1	0.139042	6.92274	-11.7056	-5.32905
 438	1	2	0.015001	8.58705	-11.8067	-3.91976
 439	1	2	0.033313	7.73472	-10.3058	-3.90425
 440	1	1	-0.357291	5.87834	-10.5805	-5.65984
 441	1	3	0.733725	6.32759	-13.1493	-5.34585
 442	1	2	0.091627	5.08563	-10.4999	-4.91413
 443	1	2	0.097893	6.35468	-9.59372	-5.72188
 444	1	2	0.10238	5.35468	-10.7708	-6.60326
 445	1	4	-0.43098	4.96229	-13.1769	-5.43174
 446	1	1	0.017514	4.28572	-14.4477	-5.40964
 447	1	5	0.102507	4.62766	-15.0841	-6.23693
 448	1	5	0.044787	3.20323	-14.2979	-5.50584
 449	1	5	0.053996	4.48366	-14.9677	-4.46268
 450	1	6	-0.57928	7.01437	-14.159	-5.31515
 451	1	1	-0.064235	7.73536	-11.0513	-1.44083
 452	1	1	0.139042	6.90536	-11.8179	-2.55019
 453	1	2	0.015001	7.80475	-10.0092	-1.75666
 454	1	2	0.033313	8.75722	-11.4362	-1.508
 455	1	1	-0.357291	5.4049	-11.3981	-2.49719
 456	1	3	0.733725	7.03393	-13.3637	-2.3654
 457	1	2	0.091627	5.27995	-10.3153	-2.62566
 458	1	2	0.097893	4.93802	-11.6964	-1.55225
 459	1	2	0.10238	4.81303	-11.9087	-3.26245
 460	1	4	-0.43098	8.33012	-13.802	-2.40826
 461	1	1	0.017514	8.58033	-15.2171	-2.30995
 462	1	5	0.102507	8.06311	-15.7534	-3.11851
 463	1	5	0.044787	8.2207	-15.6038	-1.34744
 464	1	5	0.053996	9.65571	-15.4176	-2.38917
 465	1	6	-0.57928	6.08082	-14.1118	-2.20566
 466	1	1	-0.064235	8.42621	-10.3517	0.993583
 467	1	1	0.139042	7.33851	-11.0544	0.0865526
 468	1	2	0.015001	7.9198	-10.1835	1.94922
 469	1	2	0.033313	9.20821	-11.0882	1.21299
 470	1	1	-0.357291	7.29077	-12.5389	0.584723
 471	1	3	0.733725	5.97553	-10.3354	0.368561
 472	1	2	0.091627	8.19171	-13.0937	0.290537
 473	1	2	0.097893	6.41044	-13.0706	0.203491
 474	1	2	0.10238	7.23081	-12.5879	1.681
 475	1	4	-0.43098	5.31495	-10.8544	1.4522
 476	1	1	0.017514	4.04226	-10.3019	1.83879
 477	1	5	0.102507	3.33075	-10.3462	1.00264
 478	1	5	0.044787	4.15763	-9.2545	2.14544
 479	1	5	0.053996	3.62712	-10.8698	2.68081
 480	1	6	-0.57928	5.53827	-9.3884	-0.265513
 481	1	1	-0.064235	9.8179	-8.3101	1.87471
 482	1	1	0.139042	9.14586	-8.99354	0.615575
 483	1	2	0.015001	10.4539	-7.50602	1.47945
 484	1	2	0.033313	9.02473	-7.77909	2.41855
 485	1	1	-0.357291	8.1056	-7.91645	0.156402
 486	1	3	0.733725	10.2257	-9.1598	-0.508862
 487	1	2	0.091627	7.673	-8.12772	-0.82517
 488	1	2	0.097893	8.58435	-6.9325	0.0540704
 489	1	2	0.10238	7.28483	-7.80354	0.876276
 490	1	4	-0.43098	10.7784	-10.4096	-0.583189
 491	1	1	0.017514	11.797	-10.6729	-1.56897
 492	1	5	0.102507	11.4251	-10.4563	-2.57965
 493	1	5	0.044787	12.0998	-11.7265	-1.52588
 494	1	5	0.053996	12.6802	-10.0477	-1.38195
 495	1	6	-0.57928	10.5395	-8.26655	-1.28049
 496	1	1	-0.064235	11.1796	-7.94024	3.94421
 497	1	1	0.139042	10.6498	-9.07833	2.97708
 498	1	2	0.015001	10.293	-7.42225	4.33097
 499	1	2	0.033313	11.6707	-7.19404	3.31282
 500	1	1	-0.357291	11.843	-9.83703	2.3227
 501	1	3	0.733725	9.71727	-10.0618	3.75102
 502	1	2	0.091627	12.4456	-9.1765	1.68482
 503	1	2	0.097893	11.4982	-10.6841	1.72239
 504	1	2	0.10238	12.5035	-10.2768	3.0775
 505	1	4	-0.43098	8.6693	-9.4318	4.37025
 506	1	1	0.017514	7.68953	-10.2334	5.06106
 507	1	5	0.102507	8.16934	-10.8663	5.82053
 508	1	5	0.044787	7.16135	-10.884	4.35127
 509	1	5	0.053996	6.95331	-9.58814	5.55588
 510	1	6	-0.57928	9.87225	-11.2734	3.78953
 511	1	1	-0.064235	12.0444	-7.01668	6.19346
 512	1	1	0.139042	12.1375	-8.22519	5.17352
 513	1	2	0.015001	10.9867	-6.764	6.30413
 514	1	2	0.033313	12.2976	-7.40353	7.18829
 515	1	1	-0.357291	11.6331	-9.4743	5.97211
 516	1	3	0.733725	13.6134	-8.45148	4.71326
 517	1	2	0.091627	12.2069	-9.61781	6.89763
 518	1	2	0.097893	11.7606	-10.4016	5.40032
 519	1	2	0.10238	10.5808	-9.37206	6.26523
 520	1	4	-0.43098	14.3934	-8.97924	5.70776
 521	1	1	0.017514	15.7886	-9.22286	5.44298
 522	1	5	0.102507	16.2694	-9.6716	6.32119
 523	1	5	0.044787	16.3025	-8.28151	5.20739
 524	1	5	0.053996	15.905	-9.90727	4.59249
 525	1	6	-0.57928	14.044	-8.17884	3.6057
 526	1	1	-0.064235	12.3843	-4.6088	7.06409
 527	1	1	0.139042	12.8791	-5.68315	6.01085
 528	1	2	0.015001	13.2618	-4.01428	7.35285
 529	1	2	0.033313	12.1301	-5.1563	7.98171
 530	1	1	-0.357291	12.8198	-5.12352	4.55267
 531	1	3	0.733725	14.3703	-5.96336	6.40028
 532	1	2	0.091627	13.324	-5.78793	3.84374
 533	1	2	0.097893	13.3697	-4.17692	4.47808
 534	1	2	0.10238	11.8002	-4.96138	4.18867
 535	1	4	-0.43098	14.498	-6.4058	7.69254
 536	1	1	0.017514	15.8125	-6.62539	8.23724
 537	1	5	0.102507	15.7382	-6.98733	9.27065
 538	1	5	0.044787	16.3849	-5.68856	8.23748
 539	1	5	0.053996	16.3575	-7.36974	7.64342
 540	1	6	-0.57928	15.3277	-5.75097	5.67504
 541	1	1	-0.064235	11.0223	-2.80603	8.1535
 542	1	1	0.139042	11.2262	-3.56859	6.78319
 543	1	2	0.015001	10.8557	-3.57372	8.91749
 544	1	2	0.033313	11.9941	-2.36435	8.40912
 545	1	1	-0.357291	9.90972	-4.30674	6.38511
 546	1	3	0.733725	11.6751	-2.55887	5.68056
 547	1	2	0.091627	10.0435	-4.93448	5.5
 548	1	2	0.097893	9.12853	-3.59196	6.10406
 549	1	2	0.10238	9.53489	-4.93627	7.20192
 550	1	4	-0.43098	12.8371	-1.91258	6.00339
 551	1	1	0.017514	13.338	-0.886925	5.12465
 552	1	5	0.102507	13.5009	-1.28419	4.11383
 553	1	5	0.044787	14.2895	-0.497232	5.50717
 554	1	5	0.053996	12.6228	-0.0559361	5.06274
 555	1	6	-0.57928	11.056	-2.352	4.64722
 556	1	1	-0.064235	10.3672	-0.723835	9.53958
 557	1	1	0.139042	9.91615	-1.69803	8.373
 558	1	2	0.015001	9.82156	0.220384	9.4031
 559	1	2	0.033313	11.413	-0.458538	9.33063
 560	1	1	-0.357291	8.54944	-2.37643	8.72238
 561	1	3	0.733725	9.79489	-0.764114	7.12282
 562	1	2	0.091627	8.64558	-3.08935	9.54837
 563	1	2	0.097893	8.1254	-2.93495	7.88421
 564	1	2	0.10238	7.79954	-1.61941	8.98526
 565	1	4	-0.43098	8.67443	-0.990638	6.36955
 566	1	1	0.017514	8.45328	-0.193022	5.19046
 567	1	5	0.102507	9.29938	-0.28838	4.49511
 568	1	5	0.044787	8.33886	0.864719	5.46138
 569	1	5	0.053996	7.54133	-0.523551	4.6783
 570	1	6	-0.57928	10.6093	0.104134	6.8506
 571	1	1	-0.064235	11.007	0.13065	11.8382
 572	1	1	0.139042	10.2655	-1.06197	11.0805
 573	1	2	0.015001	10.222	0.758477	12.2776
 574	1	2	0.033313	11.4338	0.81682	11.0946
 575	1	1	-0.357291	8.75796	-0.944409	11.5309
 576	1	3	0.733725	10.8722	-2.47676	11.3625
 577	1	2	0.091627	8.29163	-0.0320784	11.1366
 578	1	2	0.097893	8.13759	-1.79084	11.2281
 579	1	2	0.10238	8.66782	-0.901009	12.6221
 580	1	4	-0.43098	9.96687	-3.38147	11.8521
 581	1	1	0.017514	10.396	-4.73109	12.1202
 582	1	5	0.102507	9.54925	-5.33696	12.4667
 583	1	5	0.044787	11.1713	-4.73713	12.8978
 584	1	5	0.053996	10.8075	-5.1923	11.2128
 585	1	6	-0.57928	12.012	-2.79927	11.0769
 586	1	1	-0.064235	12.1733	1.32218	13.6955
 587	1	1	0.139042	12.1359	-0.0609257	12.936
 588	1	2	0.015001	12.3996	2.06468	12.9173
 589	1	2	0.033313	11.1479	1.55821	14.0105
 590	1	1	-0.357291	13.4911	-0.264524	12.1716
 591	1	3	0.733725	11.8206	-1.21428	13.9356
 592	1	2	0.091627	13.3866	-0.893525	11.285
 593	1	2	0.097893	14.25	-0.748229	12.797
 594	1	2	0.10238	13.901	0.686419	11.8107
 595	1	4	-0.43098	10.492	-1.28868	14.247
 596	1	1	0.017514	10.0177	-2.36699	15.077
 597	1	5	0.102507	10.5736	-2.41175	16.0212
 598	1	5	0.044787	10.1442	-3.32728	14.5635
 599	1	5	0.053996	8.95215	-2.22933	15.2985
 600	1	6	-0.57928	12.6557	-1.96244	14.415
 601	1	1	-0.064235	12.9736	3.24922	15.0802
 602	1	1	0.139042	13.0893	1.6663	14.9401
 603	1	2	0.015001	13.8677	3.68341	14.6123
 604	1	2	0.033313	12.1664	3.59035	14.4194
 605	1	1	-0.357291	14.59	1.35463	14.6357
 606	1	3	0.733725	12.6623	0.865188	16.2163
 607	1	2	0.091627	14.9123	1.76553	13.6712
 608	1	2	0.097893	14.7794	0.27395	14.6426
 609	1	2	0.10238	15.24	1.77886	15.4126
 610	1	4	-0.43098	11.3103	0.757251	16.3804
 611	1	1	0.017514	10.8211	0.0423587	17.534
 612	1	5	0.102507	11.1838	0.509906	18.4599
 613	1	5	0.044787	11.1764	-0.9952	17.5219
 614	1	5	0.053996	9.72443	0.0402605	17.5423
 615	1	6	-0.57928	13.4504	0.376658	17.0108
 616	1	1	-0.064235	12.7266	5.54842	15.9934
 617	1	1	0.139042	12.7315	4.02318	16.4321
 618	1	2	0.015001	12.0143	5.64327	15.1618
 619	1	2	0.033313	13.7067	5.73455	15.5334
 620	1	1	-0.357291	13.9251	3.72941	17.4036
 621	1	3	0.733725	11.3194	3.64892	16.9764
 622	1	2	0.091627	14.1414	2.66416	17.4951
 623	1	2	0.097893	13.7302	4.06492	18.4262
 624	1	2	0.10238	14.8496	4.20768	17.0564
 625	1	4	-0.43098	11.2877	3.3642	18.3157
 626	1	1	0.017514	10.0108	3.11622	18.9394
 627	1	5	0.102507	9.4686	2.31691	18.4171
 628	1	5	0.044787	9.39128	4.0215	18.9102
 629	1	5	0.053996	10.1518	2.82126	19.9867
 630	1	6	-0.57928	10.3131	3.67806	16.2836
 631	1	1	-0.064235	13.5092	6.84388	18.0838
 632	1	1	0.139042	12.4223	6.78037	16.9417
 633	1	2	0.015001	14.4544	6.5249	17.6251
 634	1	2	0.033313	13.2501	6.06454	18.8069
 635	1	1	-0.357291	10.9771	6.62643	17.5331
 636	1	3	0.733725	12.5289	8.01464	15.9815
 637	1	2	0.091627	10.5573	7.57071	17.893
 638	1	2	0.097893	10.9493	5.92634	18.3738
 639	1	2	0.10238	10.2751	6.27767	16.7636
 640	1	4	-0.43098	11.4662	8.87922	16.0484
 641	1	1	0.017514	11.4487	10.042	15.1953
 642	1	5	0.102507	12.3161	10.6851	15.3974
 643	1	5	0.044787	10.5341	10.6226	15.3686
 644	1	5	0.053996	11.4771	9.74369	14.1388
 645	1	6	-0.57928	13.4731	8.20685	15.2293
 646	1	1	-0.064235	12.68	8.49031	19.9304
 647	1	1	0.139042	13.8639	8.11805	18.949
 648	1	2	0.015001	12.6621	7.71481	20.6967
 649	1	2	0.033313	11.7426	8.33584	19.4044
 650	1	1	-0.357291	14.2917	9.31834	18.0421
 651	1	3	0.733725	15.0777	7.60015	19.7997
 652	1	2	0.091627	13.4468	9.79433	17.542
 653	1	2	0.097893	14.9965	8.98945	17.2659
 654	1	2	0.10238	14.8144	10.0907	18.6184
 655	1	4	-0.43098	16.2949	7.8819	19.2335