pySIMM System Object

557 atoms
556 bonds
1036 angles
1397 dihedrals
37 impropers

6 atom types
7 bond types
11 angle types
9 dihedral types
1 improper types

-114.387950 114.387950 xlo xhi
-114.387950 114.387950 ylo yhi
-114.387950 114.387950 zlo zhi

Masses

   1	12.01	# c3
   2	1.008	# hc
   3	12.01	# c
   4	16.0	# os
   5	1.008	# h1
   6	16.0	# o

Pair Coeffs

   1	0.1094	3.3996695084235347	# c3
   2	0.0157	2.649532787749369	# hc
   3	0.086	3.3996695084235347	# c
   4	0.17	3.0000123434657784	# os
   5	0.0157	2.471353044121301	# h1
   6	0.21	2.959921901149463	# o

Bond Coeffs

   1	300.9	1.5375	# c3,c3
   2	330.6	1.0969	# c3,hc
   3	637.7	1.2183	# c,o
   4	330.6	1.0969	# c3,h1
   5	308.6	1.4316	# c3,os
   6	313.0	1.5241	# c,c3
   7	390.8	1.3584	# c,os

Angle Coeffs

   1	46.93	108.77	# c,c3,hc
   2	67.4	123.2	# c3,c,o
   3	75.32	123.25	# o,c,os
   4	39.24	108.46	# h1,c3,h1
   5	63.27	111.04	# c,c3,c3
   6	46.34	109.8	# c3,c3,hc
   7	50.8	109.78	# h1,c3,os
   8	63.28	115.98	# c,os,c3
   9	62.86	111.51	# c3,c3,c3
  10	39.4	107.58	# hc,c3,hc
  11	68.89	110.72	# c3,c,os

Dihedral Coeffs

   1	1	0.3833333333333333	3	0	# X,c3,os,X
   2	1	0.0	2	180	# X,c,c3,X
   3	1	0.15	3	0	# hc,c3,c3,hc
   4	3	0.8	1	0	0.0	2	0	0.08	3	180	# hc,c3,c,o
   5	3	2.7	2	180	0.0	1	0	1.15	3	0	# c3,c,os,c3
   6	1	0.16	3	0	# hc,c3,c3,c3
   7	2	2.7	2	180	1.4	1	180	# o,c,os,c3
   8	1	0.15555555555555556	3	0	# X,c3,c3,X
   9	3	0.18	3	0	0.25	2	180	0.2	1	180	# c3,c3,c3,c3

Improper Coeffs

   1	10.5	-1	2	# c,X,X,o

Atoms

   1	1	1	-0.064235	6.25504	9.86165	-25.1918
   2	1	1	0.139042	5.78288	9.60738	-26.6618
   3	1	2	0.015001	5.47432	10.4821	-24.746
   4	1	2	0.033313	7.16304	10.4768	-25.2284
   5	1	1	-0.357291	6.84721	8.90807	-27.5545
   6	1	3	0.733725	5.33557	10.9494	-27.2951
   7	1	2	0.091627	7.81489	9.42372	-27.4869
   8	1	2	0.097893	6.53553	8.92329	-28.6072
   9	1	2	0.10238	6.98827	7.85671	-27.2805
  10	1	4	-0.43098	4.37585	10.7745	-28.2564
  11	1	1	0.017514	3.88096	11.936	-28.9538
  12	1	5	0.102507	3.39093	12.6271	-28.2547
  13	1	5	0.044787	3.15433	11.6384	-29.7199
  14	1	5	0.053996	4.70689	12.4678	-29.4449
  15	1	6	-0.57928	5.79488	12.0402	-26.9952
  16	1	1	-0.064235	6.91273	9.06069	-22.7605
  17	1	1	0.139042	6.50047	8.64305	-24.2375
  18	1	2	0.015001	6.82248	8.14476	-22.1633
  19	1	2	0.033313	7.99163	9.26648	-22.7566
  20	1	1	-0.357291	5.19965	7.76639	-24.212
  21	1	3	0.733725	7.7287	7.83565	-24.7672
  22	1	2	0.091627	5.06651	7.21931	-25.1541
  23	1	2	0.097893	4.29182	8.36091	-24.0662
  24	1	2	0.10238	5.2399	7.01188	-23.4144
  25	1	4	-0.43098	7.5271	6.48159	-24.8231
  26	1	1	0.017514	8.58626	5.63504	-25.3107
  27	1	5	0.102507	9.49545	5.76712	-24.7083
  28	1	5	0.044787	8.82045	5.88058	-26.3548
  29	1	5	0.053996	8.2814	4.58244	-25.2597
  30	1	6	-0.57928	8.79496	8.35496	-25.0646
  31	1	1	-0.064235	6.63133	10.0711	-20.4224
  32	1	1	0.139042	6.24352	10.2517	-21.9564
  33	1	2	0.015001	7.67892	10.3696	-20.3138
  34	1	2	0.033313	6.65649	8.997	-20.2003
  35	1	1	-0.357291	6.91115	11.5929	-22.4431
  36	1	3	0.733725	4.69634	10.2115	-22.1473
  37	1	2	0.091627	6.7458	11.7956	-23.503
  38	1	2	0.097893	7.99728	11.5828	-22.2842
  39	1	2	0.10238	6.51692	12.4717	-21.9288
  40	1	4	-0.43098	4.19212	11.3259	-22.7642
  41	1	1	0.017514	2.77765	11.4126	-23.017
  42	1	5	0.102507	2.21206	11.3392	-22.0778
  43	1	5	0.044787	2.45935	10.6008	-23.6838
  44	1	5	0.053996	2.54115	12.3709	-23.4962
  45	1	6	-0.57928	3.99156	9.28677	-21.7832
  46	1	1	-0.064235	6.56017	10.6128	-17.8713
  47	1	1	0.139042	5.78455	10.7346	-19.2539
  48	1	2	0.015001	5.79746	10.4593	-17.0948
  49	1	2	0.033313	7.10304	9.65795	-17.8964
  50	1	1	-0.357291	5.39762	12.2157	-19.5862
  51	1	3	0.733725	4.5149	9.84427	-19.0181
  52	1	2	0.091627	6.27325	12.8532	-19.7432
  53	1	2	0.097893	4.78852	12.6548	-18.7874
  54	1	2	0.10238	4.76879	12.2872	-20.4775
  55	1	4	-0.43098	3.33766	10.5466	-19.0106
  56	1	1	0.017514	2.11451	9.84265	-18.728
  57	1	5	0.102507	1.95801	9.03703	-19.4588
  58	1	5	0.044787	1.26382	10.5335	-18.7731
  59	1	5	0.053996	2.1532	9.40136	-17.7232
  60	1	6	-0.57928	4.57692	8.65251	-18.7518
  61	1	1	-0.064235	7.99268	11.1272	-15.8733
  62	1	1	0.139042	7.53061	11.7153	-17.2761
  63	1	2	0.015001	7.0809	11.049	-15.2763
  64	1	2	0.033313	8.2946	10.0905	-16.0634
  65	1	1	-0.357291	8.73321	11.9108	-18.2545
  66	1	3	0.733725	6.70617	13.0196	-17.036
  67	1	2	0.091627	9.33731	10.9984	-18.3378
  68	1	2	0.097893	9.37969	12.7344	-17.9349
  69	1	2	0.10238	8.39413	12.1868	-19.2582
  70	1	4	-0.43098	7.25831	14.1316	-17.6198
  71	1	1	0.017514	6.53542	15.3773	-17.5909
  72	1	5	0.102507	7.1306	16.1715	-18.0593
  73	1	5	0.044787	6.30931	15.6729	-16.5596
  74	1	5	0.053996	5.58941	15.2806	-18.1395
  75	1	6	-0.57928	5.63205	13.0392	-16.452
  76	1	1	-0.064235	9.24947	10.9012	-13.5744
  77	1	1	0.139042	9.13186	11.7169	-14.9372
  78	1	2	0.015001	9.78555	9.96521	-13.7807
  79	1	2	0.033313	9.93726	11.4782	-12.943
  80	1	1	-0.357291	10.5244	11.4911	-15.6206
  81	1	3	0.733725	9.00601	13.239	-14.5892
  82	1	2	0.091627	10.7288	12.2251	-16.4044
  83	1	2	0.097893	10.6155	10.4844	-16.0478
  84	1	2	0.10238	11.3387	11.6162	-14.8932
  85	1	4	-0.43098	7.72404	13.6958	-14.5301
  86	1	1	0.017514	7.45369	15.0475	-14.1128
  87	1	5	0.102507	6.37092	15.2306	-14.1216
  88	1	5	0.044787	7.93643	15.7639	-14.7895
  89	1	5	0.053996	7.82697	15.2168	-13.0945
  90	1	6	-0.57928	9.95948	13.9454	-14.3018
  91	1	1	-0.064235	8.47448	10.1857	-11.1957
  92	1	1	0.139042	8.00956	10.5159	-12.6687
  93	1	2	0.015001	8.8541	11.1218	-10.7625
  94	1	2	0.033313	7.55677	9.98128	-10.6271
  95	1	1	-0.357291	7.04265	11.7297	-12.4762
  96	1	3	0.733725	7.20742	9.30842	-13.2528
  97	1	2	0.091627	7.58363	12.631	-12.1607
  98	1	2	0.097893	6.29121	11.5243	-11.7019
  99	1	2	0.10238	6.46756	11.9514	-13.3813
 100	1	4	-0.43098	6.0654	9.04721	-12.5413
 101	1	1	0.017514	5.22852	7.94358	-12.9375
 102	1	5	0.102507	5.78461	6.99755	-12.8856
 103	1	5	0.044787	4.87304	8.08332	-13.9667
 104	1	5	0.053996	4.35785	7.87505	-12.2734
 105	1	6	-0.57928	7.57102	8.6167	-14.1903
 106	1	1	-0.064235	9.34092	8.91963	-9.24127
 107	1	1	0.139042	9.50281	9.04601	-10.8082
 108	1	2	0.015001	8.38296	8.4053	-9.08721
 109	1	2	0.033313	9.1623	9.92958	-8.84818
 110	1	1	-0.357291	9.07296	7.69535	-11.4748
 111	1	3	0.733725	10.9528	9.48286	-11.1782
 112	1	2	0.091627	9.24291	7.71379	-12.5572
 113	1	2	0.097893	8.01567	7.46913	-11.287
 114	1	2	0.10238	9.64934	6.8417	-11.1121
 115	1	4	-0.43098	11.686	8.48912	-11.7675
 116	1	1	0.017514	13.0712	8.72874	-12.0814
 117	1	5	0.102507	13.1746	9.58999	-12.7549
 118	1	5	0.044787	13.5035	7.84646	-12.5698
 119	1	5	0.053996	13.6395	8.93145	-11.1637
 120	1	6	-0.57928	11.4017	10.5931	-10.9421
 121	1	1	-0.064235	9.63781	8.2062	-6.88206
 122	1	1	0.139042	10.4049	8.26563	-8.26729
 123	1	2	0.015001	8.68902	7.68851	-7.07387
 124	1	2	0.033313	9.34566	9.23796	-6.64067
 125	1	1	-0.357291	10.8038	6.83796	-8.75048
 126	1	3	0.733725	11.6665	9.17947	-8.1716
 127	1	2	0.091627	11.5214	6.3743	-8.06524
 128	1	2	0.097893	11.323	6.87591	-9.71496
 129	1	2	0.10238	9.93087	6.17969	-8.84695
 130	1	4	-0.43098	11.37	10.4463	-7.7476
 131	1	1	0.017514	12.4254	11.4259	-7.70388
 132	1	5	0.102507	12.8789	11.5444	-8.69869
 133	1	5	0.044787	13.2067	11.1189	-6.99641
 134	1	5	0.053996	12.0255	12.3966	-7.38636
 135	1	6	-0.57928	12.7956	8.82045	-8.47082
 136	1	1	-0.064235	10.3342	6.00959	-5.65765
 137	1	1	0.139042	10.2005	7.5822	-5.54378
 138	1	2	0.015001	9.83766	5.69916	-6.58154
 139	1	2	0.033313	11.3953	5.80101	-5.84793
 140	1	1	-0.357291	11.6131	8.1748	-5.22713
 141	1	3	0.733725	9.19424	8.04117	-4.43662
 142	1	2	0.091627	11.5865	9.2731	-5.21704
 143	1	2	0.097893	12.3773	7.857	-5.94692
 144	1	2	0.10238	11.9532	7.85852	-4.23222
 145	1	4	-0.43098	7.89569	7.71871	-4.72356
 146	1	1	0.017514	6.85096	8.13097	-3.82189
 147	1	5	0.102507	6.87213	9.21967	-3.67525
 148	1	5	0.044787	6.97466	7.64335	-2.84632
 149	1	5	0.053996	5.8721	7.85273	-4.2317
 150	1	6	-0.57928	9.49897	8.71326	-3.46298
 151	1	1	-0.064235	10.5833	3.6331	-4.93614
 152	1	1	0.139042	9.85315	4.98188	-4.55212
 153	1	2	0.015001	11.6241	3.76264	-4.6111
 154	1	2	0.033313	10.6589	3.5945	-6.03194
 155	1	1	-0.357291	10.3579	5.42613	-3.13484
 156	1	3	0.733725	8.3038	4.82076	-4.65444
 157	1	2	0.091627	11.4123	5.72796	-3.1599
 158	1	2	0.097893	10.2737	4.6248	-2.39572
 159	1	2	0.10238	9.77742	6.2559	-2.7196
 160	1	4	-0.43098	7.6764	4.75267	-3.43876
 161	1	1	0.017514	6.24578	4.58859	-3.40604
 162	1	5	0.102507	5.94977	3.68561	-3.95594
 163	1	5	0.044787	5.74997	5.45054	-3.86982
 164	1	5	0.053996	5.89926	4.49894	-2.36923
 165	1	6	-0.57928	7.70272	4.72523	-5.7139
 166	1	1	-0.064235	9.80486	2.02904	-2.97163
 167	1	1	0.139042	10.114	2.18134	-4.51269
 168	1	2	0.015001	10.7115	2.33297	-2.43373
 169	1	2	0.033313	9.05782	2.77965	-2.70114
 170	1	1	-0.357291	8.8586	1.77775	-5.35362
 171	1	3	0.733725	11.3348	1.29195	-4.92279
 172	1	2	0.091627	7.931	2.21567	-4.97077
 173	1	2	0.097893	8.72841	0.687863	-5.37144
 174	1	2	0.10238	8.96668	2.08209	-6.40347
 175	1	4	-0.43098	12.4151	1.45602	-4.094
 176	1	1	0.017514	13.6212	0.711342	-4.35001
 177	1	5	0.102507	13.4183	-0.368308	-4.34035
 178	1	5	0.044787	14.3695	0.933138	-3.57878
 179	1	5	0.053996	14.0372	0.980417	-5.32955
 180	1	6	-0.57928	11.365	0.574903	-5.911
 181	1	1	-0.064235	9.28836	0.860135	-0.787267
 182	1	1	0.139042	9.30532	0.653438	-2.35501
 183	1	2	0.015001	10.2088	1.38296	-0.503889
 184	1	2	0.033313	8.49141	1.5819	-0.589846
 185	1	1	-0.357291	10.2772	-0.505714	-2.75111
 186	1	3	0.733725	7.84927	0.341694	-2.83293
 187	1	2	0.091627	10.2126	-0.736411	-3.82099
 188	1	2	0.097893	10.0366	-1.44652	-2.25076
 189	1	2	0.10238	11.3176	-0.263642	-2.50244
 190	1	4	-0.43098	6.94557	1.31519	-2.49073
 191	1	1	0.017514	5.55328	1.11357	-2.80512
 192	1	5	0.102507	5.41506	0.981791	-3.88725
 193	1	5	0.044787	4.96287	1.97761	-2.47631
 194	1	5	0.053996	5.17199	0.219453	-2.29446
 195	1	6	-0.57928	7.52203	-0.674824	-3.42625
 196	1	1	-0.064235	8.58403	0.18701	1.62369
 197	1	1	0.139042	9.10308	-0.337091	0.22817
 198	1	2	0.015001	7.52667	0.454455	1.50629
 199	1	2	0.033313	8.5663	-0.681673	2.28494
 200	1	1	-0.357291	7.97941	-1.32045	-0.244815
 201	1	3	0.733725	10.444	-1.11508	0.450236
 202	1	2	0.091627	7.77229	-2.07672	0.524687
 203	1	2	0.097893	8.24492	-1.87534	-1.14986
 204	1	2	0.10238	7.03493	-0.792898	-0.431489
 205	1	4	-0.43098	10.3053	-2.16756	1.31846
 206	1	1	0.017514	11.4724	-2.92041	1.70476
 207	1	5	0.102507	11.959	-3.36173	0.824319
 208	1	5	0.044787	11.1896	-3.72748	2.392
 209	1	5	0.053996	12.1964	-2.26934	2.21271
 210	1	6	-0.57928	11.5302	-0.785565	-0.000794532
 211	1	1	-0.064235	8.70518	1.53809	3.85593
 212	1	1	0.139042	9.28536	1.36822	2.39552
 213	1	2	0.015001	9.3545	2.27874	4.33389
 214	1	2	0.033313	7.72568	2.02164	3.76861
 215	1	1	-0.357291	10.8385	1.17234	2.47022
 216	1	3	0.733725	8.98073	2.73261	1.68738
 217	1	2	0.091627	11.3133	1.36629	1.50073
 218	1	2	0.097893	11.1402	0.168208	2.7771
 219	1	2	0.10238	11.2908	1.88795	3.16978
 220	1	4	-0.43098	7.64542	2.92989	1.44479
 221	1	1	0.017514	7.22067	4.1111	0.73759
 222	1	5	0.102507	7.56357	5.01772	1.25415
 223	1	5	0.044787	6.12562	4.13549	0.674602
 224	1	5	0.053996	7.62893	4.11372	-0.281956
 225	1	6	-0.57928	9.82794	3.55081	1.36612
 226	1	1	-0.064235	8.34295	0.91184	6.34934
 227	1	1	0.139042	8.51661	0.352032	4.88162
 228	1	2	0.015001	9.32212	1.26528	6.69912
 229	1	2	0.033313	8.11277	0.0384134	6.96189
 230	1	1	-0.357291	9.79989	-0.539836	4.94648
 231	1	3	0.733725	7.27529	-0.535867	4.53356
 232	1	2	0.091627	10.7036	0.064645	5.09531
 233	1	2	0.097893	9.92011	-1.14862	4.04347
 234	1	2	0.10238	9.74618	-1.24883	5.78415
 235	1	4	-0.43098	7.25264	-1.70504	5.24571
 236	1	1	0.017514	6.14913	-2.61677	5.08479
 237	1	5	0.102507	5.20243	-2.12855	5.35327
 238	1	5	0.044787	6.28646	-3.48857	5.73677
 239	1	5	0.053996	6.08459	-2.96381	4.04529
 240	1	6	-0.57928	6.39824	-0.230185	3.74071
 241	1	1	-0.064235	7.29451	2.34312	8.26406
 242	1	1	0.139042	7.29091	2.02701	6.71404
 243	1	2	0.015001	6.46681	3.04795	8.4184
 244	1	2	0.033313	8.18798	2.94108	8.48811
 245	1	1	-0.357291	5.85098	1.59765	6.26781
 246	1	3	0.733725	7.71126	3.39107	6.06774
 247	1	2	0.091627	5.62484	0.553265	6.5066
 248	1	2	0.097893	5.08315	2.22556	6.73925
 249	1	2	0.10238	5.71064	1.71025	5.18578
 250	1	4	-0.43098	6.7227	3.99985	5.3399
 251	1	1	0.017514	7.00574	5.236	4.65637
 252	1	5	0.102507	7.33898	6.00514	5.36632
 253	1	5	0.044787	6.10396	5.59661	4.14601
 254	1	5	0.053996	7.79447	5.08613	3.90732
 255	1	6	-0.57928	8.8195	3.88705	6.20813
 256	1	1	-0.064235	6.90428	2.00917	10.7285
 257	1	1	0.139042	7.21626	1.23188	9.38854
 258	1	2	0.015001	6.0457	2.65436	10.5031
 259	1	2	0.033313	7.71725	2.73281	10.8756
 260	1	1	-0.357291	8.62264	0.549458	9.55052
 261	1	3	0.733725	6.0745	0.230232	9.0396
 262	1	2	0.091627	8.70964	-0.37705	8.97111
 263	1	2	0.097893	8.83814	0.272125	10.5841
 264	1	2	0.10238	9.43796	1.21446	9.24005
 265	1	4	-0.43098	4.83291	0.791806	9.17375
 266	1	1	0.017514	3.67118	-0.0261942	8.93217
 267	1	5	0.102507	3.62653	-0.854895	9.65347
 268	1	5	0.044787	3.69679	-0.444056	7.91773
 269	1	5	0.053996	2.76042	0.573293	9.03533
 270	1	6	-0.57928	6.26182	-0.901612	8.61717
 271	1	1	-0.064235	5.2961	1.93279	12.6637
 272	1	1	0.139042	6.62607	1.28464	12.1227
 273	1	2	0.015001	4.52751	1.65735	11.9349
 274	1	2	0.033313	5.42513	3.00951	12.539
 275	1	1	-0.357291	7.79896	1.65289	13.093
 276	1	3	0.733725	6.4448	-0.26303	11.9732
 277	1	2	0.091627	7.88278	2.73893	13.2261
 278	1	2	0.097893	8.76273	1.3009	12.7036
 279	1	2	0.10238	7.66939	1.20168	14.0834
 280	1	4	-0.43098	7.57253	-0.979267	12.273
 281	1	1	0.017514	7.55967	-2.40843	12.0872
 282	1	5	0.102507	6.76832	-2.87271	12.6912
 283	1	5	0.044787	8.52587	-2.83553	12.383
 284	1	5	0.053996	7.37931	-2.65231	11.0313
 285	1	6	-0.57928	5.40029	-0.799589	11.6431
 286	1	1	-0.064235	3.13141	1.93652	14.0494
 287	1	1	0.139042	4.69324	1.69022	14.1101
 288	1	2	0.015001	2.77762	1.2834	13.2551
 289	1	2	0.033313	2.68511	1.49197	14.949
 290	1	1	-0.357291	4.83834	0.191887	14.5376
 291	1	3	0.733725	5.34094	2.57554	15.225
 292	1	2	0.091627	4.31316	-0.482411	13.8496
 293	1	2	0.097893	4.39687	0.0257578	15.5299
 294	1	2	0.10238	5.8847	-0.122643	14.6146
 295	1	4	-0.43098	6.00664	3.67615	14.7599
 296	1	1	0.017514	6.59766	4.59321	15.7012
 297	1	5	0.102507	5.83021	5.00715	16.3697
 298	1	5	0.044787	7.07852	5.42191	15.1671
 299	1	5	0.053996	7.35442	4.08297	16.3114
 300	1	6	-0.57928	5.20627	2.35421	16.4187
 301	1	1	-0.064235	1.00609	3.35516	13.3106
 302	1	1	0.139042	2.49072	3.3794	13.8802
 303	1	2	0.015001	0.801339	4.36146	12.9222
 304	1	2	0.033313	0.345293	3.27487	14.174
 305	1	1	-0.357291	2.33851	3.96657	15.3322
 306	1	3	0.733725	3.32553	4.36061	12.9822
 307	1	2	0.091627	1.7608	3.29812	15.9852
 308	1	2	0.097893	1.81702	4.93308	15.3128
 309	1	2	0.10238	3.30306	4.13892	15.8221
 310	1	4	-0.43098	3.88352	5.40368	13.6745
 311	1	1	0.017514	4.69358	6.36516	12.9708
 312	1	5	0.102507	4.11757	6.8431	12.1667
 313	1	5	0.044787	5.56927	5.87217	12.5289
 314	1	5	0.053996	5.04264	7.14146	13.6628
 315	1	6	-0.57928	3.43608	4.27444	11.7707
 316	1	1	-0.064235	-0.852021	2.7998	11.5459
 317	1	1	0.139042	0.487265	2.31183	12.2315
 318	1	2	0.015001	-0.988033	2.16895	10.657
 319	1	2	0.033313	-0.642019	3.79673	11.1345
 320	1	1	-0.357291	1.46063	2.25731	11.0052
 321	1	3	0.733725	0.323837	0.878583	12.8381
 322	1	2	0.091627	1.09789	1.54524	10.2525
 323	1	2	0.097893	1.54697	3.23172	10.5082
 324	1	2	0.10238	2.46544	1.9227	11.261
 325	1	4	-0.43098	-0.0605948	0.894743	14.1526
 326	1	1	0.017514	-0.132888	-0.347697	14.8802
 327	1	5	0.102507	-0.476158	-0.168719	15.9069
 328	1	5	0.044787	0.855523	-0.824319	14.9199
 329	1	5	0.053996	-0.831611	-1.04128	14.398
 330	1	6	-0.57928	0.610336	-0.150609	12.2469
 331	1	1	-0.064235	-3.19855	3.51455	11.1069
 332	1	1	0.139042	-2.2723	2.88834	12.2382
 333	1	2	0.015001	-2.88513	3.09313	10.1423
 334	1	2	0.033313	-2.9155	4.57412	11.0362
 335	1	1	-0.357291	-2.19686	3.86767	13.4549
 336	1	3	0.733725	-2.7658	1.48431	12.6996
 337	1	2	0.091627	-3.18344	4.16165	13.8154
 338	1	2	0.097893	-1.64358	4.78369	13.2143
 339	1	2	0.10238	-1.73086	3.38071	14.3182
 340	1	4	-0.43098	-2.47906	0.501675	11.7937
 341	1	1	0.017514	-2.88073	-0.854754	12.0722
 342	1	5	0.102507	-3.97543	-0.93846	12.1086
 343	1	5	0.044787	-2.47752	-1.19028	13.0341
 344	1	5	0.053996	-2.50431	-1.52526	11.2897
 345	1	6	-0.57928	-3.34906	1.2792	13.752
 346	1	1	-0.064235	-5.26707	2.02764	10.6432
 347	1	1	0.139042	-4.77804	3.46031	11.0778
 348	1	2	0.015001	-4.78063	1.28875	11.2743
 349	1	2	0.033313	-4.85621	1.83639	9.64284
 350	1	1	-0.357291	-5.38338	3.88285	12.4528
 351	1	3	0.733725	-5.16742	4.45133	9.92849
 352	1	2	0.091627	-5.1833	3.13995	13.2356
 353	1	2	0.097893	-6.46779	4.02455	12.391
 354	1	2	0.10238	-4.97894	4.85067	12.7743
 355	1	4	-0.43098	-5.83589	5.56989	10.3544
 356	1	1	0.017514	-6.2833	6.53054	9.37721
 357	1	5	0.102507	-6.93457	6.05051	8.63345
 358	1	5	0.044787	-5.42582	6.9737	8.85451
 359	1	5	0.053996	-6.84763	7.33298	9.86831
 360	1	6	-0.57928	-4.91268	4.25015	8.75064
 361	1	1	-0.064235	-6.83511	0.229191	9.92028
 362	1	1	0.139042	-6.79246	1.62861	10.642
 363	1	2	0.015001	-6.33193	0.320706	8.94904
 364	1	2	0.033313	-6.17105	-0.405365	10.5037
 365	1	1	-0.357291	-7.65605	2.66806	9.85335
 366	1	3	0.733725	-7.24155	1.44046	12.1259
 367	1	2	0.091627	-7.6351	3.65523	10.3259
 368	1	2	0.097893	-8.71536	2.3893	9.83984
 369	1	2	0.10238	-7.31247	2.77259	8.81499
 370	1	4	-0.43098	-8.30064	2.23098	12.4886
 371	1	1	0.017514	-8.83991	2.10222	13.8178
 372	1	5	0.102507	-8.0625	2.2909	14.571
 373	1	5	0.044787	-9.23473	1.08922	13.9707
 374	1	5	0.053996	-9.65583	2.82053	13.9651
 375	1	6	-0.57928	-6.73292	0.629104	12.8835
 376	1	1	-0.064235	-7.92891	-1.98812	9.09886
 377	1	1	0.139042	-8.18509	-0.551269	9.68659
 378	1	2	0.015001	-8.89789	-2.48596	9.10304
 379	1	2	0.033313	-7.7243	-1.87495	8.02698
 380	1	1	-0.357291	-9.02705	-0.705919	10.9977
 381	1	3	0.733725	-9.05035	0.169149	8.60018
 382	1	2	0.091627	-9.48469	0.246918	11.2889
 383	1	2	0.097893	-8.44136	-1.07311	11.8458
 384	1	2	0.10238	-9.86442	-1.40016	10.8493
 385	1	4	-0.43098	-8.33683	0.492809	7.47514
 386	1	1	0.017514	-9.0071	1.13681	6.37456
 387	1	5	0.102507	-9.80978	0.497112	5.98277
 388	1	5	0.044787	-8.29273	1.33742	5.56632
 389	1	5	0.053996	-9.44613	2.08991	6.6972
 390	1	6	-0.57928	-10.2502	0.375748	8.69947
 391	1	1	-0.064235	-7.09241	-4.40076	9.02268
 392	1	1	0.139042	-6.82816	-2.98004	9.65418
 393	1	2	0.015001	-7.42233	-4.20008	7.99906
 394	1	2	0.033313	-6.11782	-4.89537	8.93099
 395	1	1	-0.357291	-6.74809	-3.06567	11.2175
 396	1	3	0.733725	-5.43707	-2.54158	9.07942
 397	1	2	0.091627	-5.96235	-3.76899	11.5186
 398	1	2	0.097893	-7.67981	-3.37639	11.6932
 399	1	2	0.10238	-6.45269	-2.11856	11.6783
 400	1	4	-0.43098	-5.36758	-2.63786	7.71261
 401	1	1	0.017514	-4.10497	-2.4065	7.05764
 402	1	5	0.102507	-3.73171	-1.39583	7.2712
 403	1	5	0.044787	-4.21651	-2.5216	5.97246
 404	1	5	0.053996	-3.3598	-3.13436	7.4063
 405	1	6	-0.57928	-4.49749	-2.15759	9.75695
 406	1	1	-0.064235	-8.41454	-6.55715	8.51257
 407	1	1	0.139042	-8.0837	-5.47339	9.61263
 408	1	2	0.015001	-8.9639	-7.35614	9.02798
 409	1	2	0.033313	-9.15881	-6.1194	7.83396
 410	1	1	-0.357291	-9.48055	-4.84674	9.96041
 411	1	3	0.733725	-7.47851	-6.19353	10.8645
 412	1	2	0.091627	-10.1835	-5.61739	10.3046
 413	1	2	0.097893	-9.94528	-4.37988	9.08345
 414	1	2	0.10238	-9.43015	-4.10065	10.7577
 415	1	4	-0.43098	-8.41377	-6.9094	11.5657
 416	1	1	0.017514	-7.9974	-7.68475	12.7072
 417	1	5	0.102507	-7.49465	-7.04884	13.4488
 418	1	5	0.044787	-7.30145	-8.47491	12.3964
 419	1	5	0.053996	-8.86836	-8.15467	13.181
 420	1	6	-0.57928	-6.29924	-6.18154	11.1773
 421	1	1	-0.064235	-8.11581	-8.33135	6.78091
 422	1	1	0.139042	-7.31913	-7.23589	7.5906
 423	1	2	0.015001	-8.69896	-8.91013	7.5096
 424	1	2	0.033313	-8.87608	-7.79659	6.19582
 425	1	1	-0.357291	-6.20644	-7.89317	8.46381
 426	1	3	0.733725	-6.70785	-6.19648	6.59764
 427	1	2	0.091627	-5.46585	-8.41266	7.84701
 428	1	2	0.097893	-6.62024	-8.60427	9.19119
 429	1	2	0.10238	-5.62549	-7.14138	9.00745
 430	1	4	-0.43098	-7.65259	-5.5736	5.82445
 431	1	1	0.017514	-7.22173	-4.56802	4.88521
 432	1	5	0.102507	-6.63736	-3.78721	5.39303
 433	1	5	0.044787	-8.09109	-4.09939	4.40786
 434	1	5	0.053996	-6.59412	-5.01901	4.10542
 435	1	6	-0.57928	-5.52062	-5.91431	6.54246
 436	1	1	-0.064235	-8.65852	-10.0892	5.11801
 437	1	1	0.139042	-7.43053	-9.38464	5.8211
 438	1	2	0.015001	-9.3419	-10.3731	5.92993
 439	1	2	0.033313	-9.19901	-9.31001	4.56297
 440	1	1	-0.357291	-6.54448	-8.64727	4.76475
 441	1	3	0.733725	-6.62786	-10.4065	6.68832
 442	1	2	0.091627	-6.06021	-9.34358	4.07911
 443	1	2	0.097893	-7.1248	-7.92907	4.17125
 444	1	2	0.10238	-5.70711	-8.12293	5.23704
 445	1	4	-0.43098	-5.35834	-10.6245	6.22562
 446	1	1	0.017514	-4.47464	-11.4998	6.95068
 447	1	5	0.102507	-4.34159	-11.1468	7.98233
 448	1	5	0.044787	-3.49324	-11.5273	6.46113
 449	1	5	0.053996	-4.87633	-12.5196	6.97681
 450	1	6	-0.57928	-7.05705	-10.915	7.71154
 451	1	1	-0.064235	-10.0868	-11.748	3.94566
 452	1	1	0.139042	-8.5716	-11.3445	4.16013
 453	1	2	0.015001	-10.631	-10.8423	3.65209
 454	1	2	0.033313	-10.4729	-12.0073	4.93764
 455	1	1	-0.357291	-7.93304	-10.9687	2.78591
 456	1	3	0.733725	-7.78062	-12.4999	4.84262
 457	1	2	0.091627	-8.4056	-10.0815	2.34432
 458	1	2	0.097893	-8.01738	-11.7926	2.06981
 459	1	2	0.10238	-6.85822	-10.7922	2.86403
 460	1	4	-0.43098	-8.37793	-12.9445	5.98975
 461	1	1	0.017514	-7.74676	-14.0053	6.73356
 462	1	5	0.102507	-6.71729	-13.7318	6.99879
 463	1	5	0.044787	-7.71933	-14.9264	6.13732
 464	1	5	0.053996	-8.30079	-14.1995	7.65973
 465	1	6	-0.57928	-6.73692	-12.9663	4.41225
 466	1	1	-0.064235	-12.0126	-13.3613	3.36361
 467	1	1	0.139042	-10.5543	-12.8964	2.97639
 468	1	2	0.015001	-12.27	-14.124	2.62845
 469	1	2	0.033313	-11.9173	-13.8831	4.3224
 470	1	1	-0.357291	-9.66552	-14.1701	3.17509
 471	1	3	0.733725	-10.5181	-12.4669	1.47132
 472	1	2	0.091627	-9.60913	-14.4692	4.22892
 473	1	2	0.097893	-8.64768	-14.0221	2.79332
 474	1	2	0.10238	-10.0771	-15.0301	2.62842
 475	1	4	-0.43098	-10.6221	-13.5368	0.621173
 476	1	1	0.017514	-10.557	-13.3241	-0.801497
 477	1	5	0.102507	-9.62443	-12.81	-1.07286
 478	1	5	0.044787	-11.4047	-12.7138	-1.13761
 479	1	5	0.053996	-10.5881	-14.2879	-1.32522
 480	1	6	-0.57928	-10.4087	-11.3199	1.06857
 481	1	1	-0.064235	-14.655	-13.0784	3.68794
 482	1	1	0.139042	-13.2404	-12.3705	3.49903
 483	1	2	0.015001	-14.9372	-13.0106	4.7463
 484	1	2	0.033313	-15.4134	-12.4454	3.20883
 485	1	1	-0.357291	-13.348	-11.475	2.22256
 486	1	3	0.733725	-13.0565	-11.4843	4.77649
 487	1	2	0.091627	-12.5437	-10.7316	2.18707
 488	1	2	0.097893	-14.276	-10.8884	2.21424
 489	1	2	0.10238	-13.3177	-12.0652	1.29927
 490	1	4	-0.43098	-12.9224	-12.2377	5.9151
 491	1	1	0.017514	-12.7937	-11.5879	7.19416
 492	1	5	0.102507	-11.9269	-10.9137	7.20463
 493	1	5	0.044787	-12.6623	-12.3397	7.98274
 494	1	5	0.053996	-13.6963	-11.0042	7.41873
 495	1	6	-0.57928	-13.0111	-10.2635	4.78316
 496	1	1	-0.064235	-16.5366	-14.7228	3.40284
 497	1	1	0.139042	-14.9638	-14.5699	3.27883
 498	1	2	0.015001	-16.9723	-14.265	2.51259
 499	1	2	0.033313	-16.8874	-14.0856	4.22559
 500	1	1	-0.357291	-14.2096	-15.5187	4.28055
 501	1	3	0.733725	-14.5706	-14.8338	1.79173
 502	1	2	0.091627	-14.5131	-16.5603	4.20257
 503	1	2	0.097893	-14.3505	-15.2064	5.32399
 504	1	2	0.10238	-13.1391	-15.5756	4.08365
 505	1	4	-0.43098	-15.1393	-13.9339	0.929018
 506	1	1	0.017514	-14.8732	-14.0397	-0.48277
 507	1	5	0.102507	-13.8021	-13.9027	-0.683414
 508	1	5	0.044787	-15.4337	-13.27	-1.02875
 509	1	5	0.053996	-15.1771	-15.0249	-0.860321
 510	1	6	-0.57928	-13.849	-15.7452	1.42006
 511	1	1	-0.064235	-18.7872	-16.0414	3.52232
 512	1	1	0.139042	-17.2092	-16.1292	3.60139
 513	1	2	0.015001	-19.1291	-17.0755	3.66337
 514	1	2	0.033313	-19.1427	-15.5256	4.42498
 515	1	1	-0.357291	-16.6683	-17.1752	2.55739
 516	1	3	0.733725	-16.9428	-16.5814	5.07864
 517	1	2	0.091627	-17.3355	-18.044	2.49062
 518	1	2	0.097893	-15.6868	-17.5793	2.82109
 519	1	2	0.10238	-16.5464	-16.7599	1.55488
 520	1	4	-0.43098	-16.5644	-17.8924	5.20334
 521	1	1	0.017514	-16.2122	-18.3947	6.50708
 522	1	5	0.102507	-15.8884	-19.4408	6.43729
 523	1	5	0.044787	-17.0725	-18.3372	7.18632
 524	1	5	0.053996	-15.3899	-17.8043	6.9334
 525	1	6	-0.57928	-17.0398	-15.832	6.03988
 526	1	1	-0.064235	-21.1214	-15.753	2.58982
 527	1	1	0.139042	-19.5964	-15.4453	2.29103
 528	1	2	0.015001	-21.5074	-14.9409	3.22068
 529	1	2	0.033313	-21.1864	-16.6327	3.24272
 530	1	1	-0.357291	-19.0878	-16.1028	0.966017
 531	1	3	0.733725	-19.4618	-13.8907	2.19194
 532	1	2	0.091627	-18.112	-15.6903	0.690362
 533	1	2	0.097893	-19.7113	-15.8808	0.0999018
 534	1	2	0.10238	-19.0099	-17.1938	1.05075
 535	1	4	-0.43098	-19.3762	-13.2723	3.41158
 536	1	1	0.017514	-19.1896	-11.8435	3.46658
 537	1	5	0.102507	-18.2666	-11.5537	2.94549
 538	1	5	0.044787	-19.1182	-11.5135	4.51059
 539	1	5	0.053996	-20.0337	-11.3257	2.99269
 540	1	6	-0.57928	-19.4274	-13.274	1.13834
 541	1	1	-0.064235	-22.2654	-14.7963	0.458864
 542	1	1	0.139042	-22.1594	-16.0063	1.43725
 543	1	2	0.015001	-22.4114	-13.8604	1.0127
 544	1	2	0.033313	-21.3844	-14.6675	-0.174516
 545	1	1	-0.357291	-23.5607	-16.1353	2.10895
 546	1	3	0.733725	-21.8384	-17.3617	0.729558
 547	1	2	0.091627	-23.5724	-16.9493	2.84639
 548	1	2	0.097893	-24.3334	-16.3571	1.36053
 549	1	2	0.10238	-23.847	-15.2075	2.6215
 550	1	4	-0.43098	-22.0394	-17.3542	-0.625318
 551	1	1	0.017514	-21.7475	-18.5566	-1.36815
 552	1	5	0.102507	-20.6843	-18.8178	-1.27557
 553	1	5	0.044787	-21.9821	-18.4141	-2.42998
 554	1	5	0.053996	-22.3432	-19.3978	-0.988745
 555	1	6	-0.57928	-21.4423	-18.3507	1.32892
 556	1	2	0	4.89122	8.96853	-26.6445
 557	1	2	0	-23.1234	-14.9139	-0.216013

Velocities

   1	0.0025297	0.000670808	0.000105075
   2	0.0011527	0.000977727	0.000545826
   3	0.00389856	0.00194585	0.000558904
   4	0.0034656	-0.000558193	-0.000148113
   5	-0.000544087	-0.000219497	-0.000134993
   6	0.0013851	0.00159352	0.000593846
   7	0.000341363	-0.0018735	-0.00120442
   8	-0.001624	-4.48859e-05	0.000206188
   9	-0.00206965	-0.000575143	-9.83124e-06
  10	0.00109428	-4.58362e-05	0.000200417
  11	-0.000127294	-0.000725109	-4.2945e-05
  12	0.000902747	-0.000218127	8.74971e-05
  13	-0.00147714	-0.00215495	0.00181352
  14	-0.00123133	-0.00125777	-0.00219094
  15	-7.79053e-05	0.00119611	0.000579624
  16	-5.35628e-05	-0.000279258	0.000887378
  17	0.00127916	0.000274082	0.000253428
  18	-0.00141562	-0.00024231	0.000588656
  19	-9.97646e-06	-0.000977621	0.00219631
  20	0.000724866	0.000952279	-0.000459755
  21	0.000636676	-0.000349486	0.00110676
  22	0.0018403	-0.000108384	-3.76752e-05
  23	0.000831313	0.0017104	-0.00250916
  24	-0.000790604	0.00204233	0.00046853
  25	0.000618095	9.1548e-05	0.000653229
  26	0.000245569	-0.000264637	0.000424934
  27	0.000408335	-0.000677693	0.000321551
  28	0.000317327	-0.000132202	0.000468831
  29	9.45604e-05	-9.93733e-05	0.00015977
  30	0.00188949	-0.000313266	0.00132363
  31	-0.000581275	0.000160095	0.000430773
  32	-0.00040987	-4.63372e-06	0.000317933
  33	-0.00054022	0.000148437	0.000368778
  34	-0.000477273	0.000219915	0.000542779
  35	-0.00046466	-0.000245345	0.000373419
  36	-0.000883061	-0.000858575	0.000214237
  37	-0.00140446	0.000631259	0.000686443
  38	-0.000338861	-0.00082519	-0.000727095
  39	0.000518999	-0.000265661	0.00134914
  40	-0.000825835	-0.000162705	0.000244386
  41	-0.00103847	-0.000312977	0.000668747
  42	-0.000857914	-0.000388406	0.000728314
  43	-0.00127626	-8.53107e-05	0.000576945
  44	-0.00112678	-0.000159813	0.000904727
  45	-0.000139826	-0.000406162	-0.000515457
  46	-0.000643579	0.000254588	0.000336825
  47	-0.000517458	0.000242192	0.000326029
  48	-0.00072666	0.000668971	0.000326395
  49	-0.000983181	-2.85863e-05	0.000565979
  50	-0.000532244	0.000323641	0.000493995
  51	-0.000468989	0.000244703	2.99257e-05
  52	-0.000498783	0.000326213	0.000741505
  53	-0.000558753	0.000123954	0.000537098
  54	-0.000341424	0.000374969	0.000366827
  55	-0.000552828	-2.93697e-05	-0.000572696
  56	-0.00052216	-0.000419339	-0.0013025
  57	0.000195253	-0.000453146	-0.00144842
  58	-0.000664526	-0.000671676	-0.00181572
  59	-0.000992845	-0.000466163	-0.00131723
  60	-0.000376255	0.00015389	0.000132473
  61	-4.72986e-05	-0.000329669	0.000112176
  62	-0.000214698	-5.90139e-05	0.000243776
  63	1.63236e-05	-0.000429237	0.000102098
  64	-0.000143105	-0.000323175	-0.000191322
  65	-0.000106401	-0.000206692	0.000445987
  66	3.70033e-05	0.000193737	0.000497406
  67	-7.52065e-05	-0.000237738	0.000799723
  68	-0.000225615	-0.000181804	0.000476086
  69	2.94978e-05	-0.000448847	0.00034191
  70	-0.000127718	5.31095e-05	-3.81121e-05
  71	-5.64682e-05	0.000112434	-7.53466e-06
  72	-0.000160173	7.51895e-05	-0.000284856
  73	0.000214896	0.000329565	6.45282e-06
  74	-0.000223131	0.000144495	0.000237411
  75	0.000432251	0.000369203	0.000942076
  76	-7.30461e-05	-0.000453431	-8.98747e-05
  77	0.000111503	-0.000560311	-9.25897e-05
  78	-0.000289734	-0.000585341	1.36518e-05
  79	-3.10048e-05	-0.000532303	-2.18254e-05
  80	0.000160598	-0.00102628	0.000163976
  81	0.000765303	-0.000275045	-0.000487768
  82	0.000399424	-0.00141133	-0.000126505
  83	0.000161502	-0.00126924	0.000651064
  84	5.3232e-05	-0.000779878	0.000272267
  85	0.000767717	-7.76704e-05	0.000423815
  86	0.00154807	0.000267077	-0.000186241
  87	0.00166921	0.00104451	-0.000658037
  88	0.00229132	-0.000260307	-0.000249203
  89	0.00127045	0.000351506	-9.78957e-05
  90	0.000997278	-0.00026323	-0.0023472
  91	-0.00049198	-0.000144189	-0.000238433
  92	-0.000275887	-0.000145272	-0.000187831
  93	-0.000918478	-2.91303e-05	-5.49353e-05
  94	-0.000625551	-0.000557876	-0.000531291
  95	-3.16646e-06	-8.1507e-05	-0.000391961
  96	-0.000105467	-0.000440579	-0.000721661
  97	0.00031455	-3.68951e-05	-0.0010782
  98	0.000386147	0.000461684	0.000155881
  99	-0.000449306	-0.000350659	-0.000215402
 100	-0.000505084	-0.000177561	-0.000523834
 101	-0.000431445	-0.000112411	-0.000895134
 102	-0.000152678	2.14587e-06	-0.00193359
 103	-0.00114406	0.000566407	-0.00056245
 104	-3.34161e-05	-0.000838474	-0.000339143
 105	-0.000229053	-0.000131822	-4.43536e-05
 106	-0.000782558	0.00012684	-0.000100943