pySIMM System Object

362 atoms
361 bonds
672 angles
903 dihedrals
24 impropers

6 atom types
7 bond types
11 angle types
9 dihedral types
1 improper types

-98.519467 98.519467 xlo xhi
-98.519467 98.519467 ylo yhi
-98.519467 98.519467 zlo zhi

Masses

   1	12.01	# c3
   2	1.008	# hc
   3	12.01	# c
   4	16.0	# os
   5	1.008	# h1
   6	16.0	# o

Pair Coeffs

   1	0.1094	3.3996695084235347	# c3
   2	0.0157	2.649532787749369	# hc
   3	0.086	3.3996695084235347	# c
   4	0.17	3.0000123434657784	# os
   5	0.0157	2.471353044121301	# h1
   6	0.21	2.959921901149463	# o

Bond Coeffs

   1	300.9	1.5375	# c3,c3
   2	330.6	1.0969	# c3,hc
   3	637.7	1.2183	# c,o
   4	330.6	1.0969	# c3,h1
   5	308.6	1.4316	# c3,os
   6	313.0	1.5241	# c,c3
   7	390.8	1.3584	# c,os

Angle Coeffs

   1	46.93	108.77	# c,c3,hc
   2	67.4	123.2	# c3,c,o
   3	75.32	123.25	# o,c,os
   4	39.24	108.46	# h1,c3,h1
   5	63.27	111.04	# c,c3,c3
   6	46.34	109.8	# c3,c3,hc
   7	50.8	109.78	# h1,c3,os
   8	63.28	115.98	# c,os,c3
   9	62.86	111.51	# c3,c3,c3
  10	39.4	107.58	# hc,c3,hc
  11	68.89	110.72	# c3,c,os

Dihedral Coeffs

   1	1	0.3833333333333333	3	0	# X,c3,os,X
   2	1	0.0	2	180	# X,c,c3,X
   3	1	0.15	3	0	# hc,c3,c3,hc
   4	3	0.8	1	0	0.0	2	0	0.08	3	180	# hc,c3,c,o
   5	3	2.7	2	180	0.0	1	0	1.15	3	0	# c3,c,os,c3
   6	1	0.16	3	0	# hc,c3,c3,c3
   7	2	2.7	2	180	1.4	1	180	# o,c,os,c3
   8	1	0.15555555555555556	3	0	# X,c3,c3,X
   9	3	0.18	3	0	0.25	2	180	0.2	1	180	# c3,c3,c3,c3

Improper Coeffs

   1	10.5	-1	2	# c,X,X,o

Atoms

   1	1	1	-0.064235	13.5391	4.30862	10.6144
   2	1	1	0.139042	14.9802	4.55115	11.1771
   3	1	2	0.015001	12.811	4.4901	11.4165
   4	1	2	0.033313	13.4302	3.24288	10.3697
   5	1	1	-0.357291	15.9612	3.40325	10.8042
   6	1	3	0.733725	14.9312	4.83082	12.697
   7	1	2	0.091627	15.6713	2.46318	11.2915
   8	1	2	0.097893	16.9784	3.65078	11.135
   9	1	2	0.10238	15.9952	3.23315	9.72148
  10	1	4	-0.43098	14.6497	6.14456	12.9568
  11	1	1	0.017514	14.5824	6.58831	14.3261
  12	1	5	0.102507	13.8633	5.98485	14.8971
  13	1	5	0.044787	14.2674	7.63849	14.3651
  14	1	5	0.053996	15.5671	6.50113	14.8034
  15	1	6	-0.57928	15.0667	3.98099	13.5645
  16	1	1	-0.064235	11.6911	4.67809	8.91093
  17	1	1	0.139042	13.1276	5.16922	9.36907
  18	1	2	0.015001	11.8471	3.72533	8.39892
  19	1	2	0.033313	11.1335	4.41552	9.81871
  20	1	1	-0.357291	13.1023	6.67257	9.8029
  21	1	3	0.733725	14.1883	4.85841	8.26413
  22	1	2	0.091627	12.3419	6.84899	10.5744
  23	1	2	0.097893	12.9116	7.32814	8.94517
  24	1	2	0.10238	14.0554	7.01287	10.2218
  25	1	4	-0.43098	15.1131	5.85741	8.10736
  26	1	1	0.017514	16.1967	5.66772	7.17798
  27	1	5	0.102507	16.7286	4.72933	7.38776
  28	1	5	0.044787	16.9092	6.49792	7.25811
  29	1	5	0.053996	15.8151	5.6296	6.15014
  30	1	6	-0.57928	14.3004	3.76783	7.72441
  31	1	1	-0.064235	9.41569	4.76442	7.5766
  32	1	1	0.139042	10.7032	5.56168	8.039
  33	1	2	0.015001	8.95902	5.39756	6.81187
  34	1	2	0.033313	8.71262	4.77183	8.41398
  35	1	1	-0.357291	10.0851	6.70077	8.93068
  36	1	3	0.733725	11.3618	6.21927	6.78251
  37	1	2	0.091627	9.19504	7.13284	8.45146
  38	1	2	0.097893	10.758	7.54916	9.07676
  39	1	2	0.10238	9.77482	6.32796	9.9157
  40	1	4	-0.43098	12.3602	5.47715	6.22622
  41	1	1	0.017514	13.0232	5.94359	5.03601
  42	1	5	0.102507	12.2977	6.10746	4.22731
  43	1	5	0.044787	13.7558	5.19797	4.70231
  44	1	5	0.053996	13.548	6.88685	5.23473
  45	1	6	-0.57928	10.9881	7.2757	6.29631
  46	1	1	-0.064235	8.02955	2.90093	6.36606
  47	1	1	0.139042	9.42384	3.29492	7.0042
  48	1	2	0.015001	8.02989	3.27984	5.34318
  49	1	2	0.033313	8.05418	1.81328	6.25258
  50	1	1	-0.357291	10.4444	3.19961	5.82266
  51	1	3	0.733725	9.76471	2.24257	8.11023
  52	1	2	0.091627	10.327	4.03255	5.1173
  53	1	2	0.097893	10.3023	2.27152	5.25162
  54	1	2	0.10238	11.481	3.17836	6.1792
  55	1	4	-0.43098	10.3298	1.10454	7.59755
  56	1	1	0.017514	10.7589	0.0590149	8.48939
  57	1	5	0.102507	11.4404	0.457016	9.25405
  58	1	5	0.044787	11.2878	-0.719037	7.92462
  59	1	5	0.053996	9.89485	-0.395752	8.99008
  60	1	6	-0.57928	9.60423	2.41597	9.30837
  61	1	1	-0.064235	5.4117	2.51831	6.38167
  62	1	1	0.139042	6.64093	3.276	7.02721
  63	1	2	0.015001	5.27522	1.57172	6.92123
  64	1	2	0.033313	4.52521	3.09396	6.68564
  65	1	1	-0.357291	6.62382	2.8028	8.5206
  66	1	3	0.733725	6.30882	4.80663	6.96895
  67	1	2	0.091627	6.92496	1.75152	8.61826
  68	1	2	0.097893	5.61447	2.89551	8.94558
  69	1	2	0.10238	7.26625	3.40534	9.1688
  70	1	4	-0.43098	6.74789	5.43494	5.83585
  71	1	1	0.017514	6.40352	6.81751	5.6144
  72	1	5	0.102507	6.66063	7.43272	6.48779
  73	1	5	0.044787	5.32591	6.91198	5.42617
  74	1	5	0.053996	6.94406	7.20547	4.74204
  75	1	6	-0.57928	5.67937	5.39473	7.83442
  76	1	1	-0.064235	3.72444	1.802	4.70712
  77	1	1	0.139042	5.24806	2.19187	4.83642
  78	1	2	0.015001	3.45735	1.21415	5.59393
  79	1	2	0.033313	3.20025	2.75784	4.79083
  80	1	1	-0.357291	5.50406	3.4741	3.97413
  81	1	3	0.733725	6.16136	1.00906	4.38397
  82	1	2	0.091627	6.54456	3.79699	4.0012
  83	1	2	0.097893	4.87295	4.31225	4.29661
  84	1	2	0.10238	5.31746	3.31073	2.91268
  85	1	4	-0.43098	6.46596	0.131507	5.39031
  86	1	1	0.017514	7.22526	-1.05461	5.09191
  87	1	5	0.102507	6.68259	-1.683	4.37222
  88	1	5	0.044787	7.38611	-1.63599	6.00818
  89	1	5	0.053996	8.20199	-0.791853	4.66584
  90	1	6	-0.57928	6.53518	0.852154	3.23182
  91	1	1	-0.064235	1.48712	1.18857	3.59431
  92	1	1	0.139042	3.06186	1.06415	3.48744
  93	1	2	0.015001	1.22278	2.22139	3.34749
  94	1	2	0.033313	1.11005	0.58363	2.76511
  95	1	1	-0.357291	3.41908	1.76735	2.13753
  96	1	3	0.733725	3.48445	-0.438083	3.41145
  97	1	2	0.091627	3.23011	2.84743	2.18198
  98	1	2	0.097893	2.81608	1.36965	1.31038
  99	1	2	0.10238	4.46678	1.5961	1.86056
 100	1	4	-0.43098	3.1305	-1.0313	2.22809
 101	1	1	0.017514	3.5068	-2.40252	1.99342
 102	1	5	0.102507	3.08166	-3.06061	2.76323
 103	1	5	0.044787	4.60004	-2.50448	2.01302
 104	1	5	0.053996	3.14577	-2.73008	1.01058
 105	1	6	-0.57928	4.00572	-1.05843	4.32407
 106	1	1	-0.064235	-0.911362	0.831996	4.57687
 107	1	1	0.139042	0.642971	0.761901	4.86443
 108	1	2	0.015001	-1.35685	0.625876	5.55108
 109	1	2	0.033313	-1.18883	-0.0295297	3.9565
 110	1	1	-0.357291	0.933707	-0.747279	5.16181
 111	1	3	0.733725	0.904345	1.60739	6.16094
 112	1	2	0.091627	0.192009	-1.16704	5.85477
 113	1	2	0.097893	1.9074	-0.879438	5.64839
 114	1	2	0.10238	0.906334	-1.35905	4.25068
 115	1	4	-0.43098	0.481956	0.966561	7.2967
 116	1	1	0.017514	0.572453	1.64084	8.56705
 117	1	5	0.102507	0.154374	1.00979	9.36171
 118	1	5	0.044787	0.00911402	2.58307	8.54083
 119	1	5	0.053996	1.61943	1.86428	8.81001
 120	1	6	-0.57928	1.32757	2.75069	6.1908
 121	1	1	-0.064235	-3.18291	2.11527	4.46818
 122	1	1	0.139042	-1.66443	2.11273	4.01379
 123	1	2	0.015001	-3.6604	2.96962	3.96843
 124	1	2	0.033313	-3.20296	2.38012	5.5345
 125	1	1	-0.357291	-1.10949	3.43343	4.63728
 126	1	3	0.733725	-1.57734	2.26886	2.45477
 127	1	2	0.091627	-0.0892509	3.65736	4.31027
 128	1	2	0.097893	-1.13203	3.41381	5.73447
 129	1	2	0.10238	-1.71466	4.29551	4.32357
 130	1	4	-0.43098	-0.96235	1.23074	1.80943
 131	1	1	0.017514	-0.696222	1.33064	0.395973
 132	1	5	0.102507	-0.0864184	2.22014	0.182876
 133	1	5	0.044787	-1.63305	1.40601	-0.170411
 134	1	5	0.053996	-0.146559	0.444783	0.0533845
 135	1	6	-0.57928	-1.99495	3.24476	1.85131
 136	1	1	-0.064235	-5.58616	1.415	4.6982
 137	1	1	0.139042	-4.14756	0.875903	4.29632
 138	1	2	0.015001	-5.4603	2.06967	5.57148
 139	1	2	0.033313	-5.89987	2.09583	3.89455
 140	1	1	-0.357291	-4.08297	0.450127	2.78534
 141	1	3	0.733725	-3.72468	-0.242135	5.29574
 142	1	2	0.091627	-3.0925	0.0634236	2.52765
 143	1	2	0.097893	-4.30469	1.29791	2.12304
 144	1	2	0.10238	-4.7627	-0.354428	2.50932
 145	1	4	-0.43098	-3.54815	-1.47281	4.72087
 146	1	1	0.017514	-3.08008	-2.55453	5.55342
 147	1	5	0.102507	-3.74148	-2.69533	6.41997
 148	1	5	0.044787	-2.06977	-2.33708	5.92483
 149	1	5	0.053996	-3.0471	-3.48948	4.98115
 150	1	6	-0.57928	-3.54007	-0.0416855	6.48647
 151	1	1	-0.064235	-7.07365	-0.495163	3.84729
 152	1	1	0.139042	-6.82459	0.486632	5.04306
 153	1	2	0.015001	-6.16297	-1.09212	3.77344
 154	1	2	0.033313	-7.12212	0.12696	2.94218
 155	1	1	-0.357291	-6.58848	-0.300758	6.37291
 156	1	3	0.733725	-8.01359	1.4868	5.21217
 157	1	2	0.091627	-7.54292	-0.607768	6.81939
 158	1	2	0.097893	-6.09377	0.330012	7.12428
 159	1	2	0.10238	-5.98155	-1.20164	6.23306
 160	1	4	-0.43098	-8.15908	1.93232	6.50071
 161	1	1	0.017514	-9.18696	2.89122	6.81176
 162	1	5	0.102507	-10.1769	2.49275	6.55139
 163	1	5	0.044787	-9.02401	3.82328	6.25543
 164	1	5	0.053996	-9.1731	3.11923	7.88523
 165	1	6	-0.57928	-8.64491	1.94901	4.27627
 166	1	1	-0.064235	-8.14347	-2.05561	2.25733
 167	1	1	0.139042	-8.22512	-1.56893	3.76365
 168	1	2	0.015001	-8.52614	-1.23872	1.63352
 169	1	2	0.033313	-7.08504	-2.09042	1.96864
 170	1	1	-0.357291	-7.90862	-2.7536	4.73865
 171	1	3	0.733725	-9.6238	-0.956242	4.09752
 172	1	2	0.091627	-6.90117	-3.15811	4.58446
 173	1	2	0.097893	-8.63469	-3.56724	4.63933
 174	1	2	0.10238	-7.99082	-2.45256	5.78591
 175	1	4	-0.43098	-10.1866	-0.263507	3.06114
 176	1	1	0.017514	-11.5171	0.272152	3.19779
 177	1	5	0.102507	-11.6549	0.748267	4.17834
 178	1	5	0.044787	-12.2584	-0.529956	3.0873
 179	1	5	0.053996	-11.6991	1.02345	2.41928
 180	1	6	-0.57928	-10.1488	-1.04741	5.19697
 181	1	1	-0.064235	-8.5711	-3.38559	0.18531
 182	1	1	0.139042	-8.79306	-3.40095	1.74812
 183	1	2	0.015001	-8.7375	-2.36504	-0.174044
 184	1	2	0.033313	-7.5027	-3.56876	0.059245
 185	1	1	-0.357291	-10.3043	-3.41789	2.14277
 186	1	3	0.733725	-8.01096	-4.62347	2.33271
 187	1	2	0.091627	-10.4366	-3.47133	3.22957
 188	1	2	0.097893	-10.8326	-4.28355	1.73326
 189	1	2	0.10238	-10.8192	-2.51601	1.78886
 190	1	4	-0.43098	-6.64809	-4.46138	2.26427
 191	1	1	0.017514	-5.77791	-5.45117	2.84423
 192	1	5	0.102507	-6.04223	-5.63066	3.89578
 193	1	5	0.044787	-4.73789	-5.1028	2.80308
 194	1	5	0.053996	-5.85423	-6.39879	2.2966
 195	1	6	-0.57928	-8.53285	-5.59907	2.84786
 196	1	1	-0.064235	-8.53327	-4.41308	-2.20295
 197	1	1	0.139042	-9.31445	-4.33618	-0.824679
 198	1	2	0.015001	-7.6798	-5.09087	-2.06938
 199	1	2	0.033313	-9.1951	-4.93781	-2.89439
 200	1	1	-0.357291	-9.32717	-5.80456	-0.287753
 201	1	3	0.733725	-10.776	-3.84511	-1.09501
 202	1	2	0.091627	-9.7333	-6.49326	-1.04104
 203	1	2	0.097893	-9.94933	-5.92287	0.605455
 204	1	2	0.10238	-8.31551	-6.15498	-0.0441411
 205	1	4	-0.43098	-11.4427	-4.6463	-1.98665
 206	1	1	0.017514	-12.7872	-4.3024	-2.37569
 207	1	5	0.102507	-12.8426	-3.25708	-2.71068
 208	1	5	0.044787	-13.4725	-4.43275	-1.52855
 209	1	5	0.053996	-13.1188	-4.94976	-3.19716
 210	1	6	-0.57928	-11.2477	-2.79471	-0.690448
 211	1	1	-0.064235	-7.30712	-3.52057	-4.33524
 212	1	1	0.139042	-7.99616	-3.1338	-2.95741
 213	1	2	0.015001	-6.80613	-2.61006	-4.69084
 214	1	2	0.033313	-6.50456	-4.20791	-4.06165
 215	1	1	-0.357291	-9.14713	-2.09269	-3.14554
 216	1	3	0.733725	-6.83341	-2.47168	-2.13899
 217	1	2	0.091627	-9.37968	-1.58039	-2.20354
 218	1	2	0.097893	-10.0827	-2.54571	-3.4825
 219	1	2	0.10238	-8.85548	-1.30499	-3.85123
 220	1	4	-0.43098	-5.84338	-3.35823	-1.79719
 221	1	1	0.017514	-4.77276	-2.92389	-0.934824
 222	1	5	0.102507	-5.16156	-2.66463	0.0598493
 223	1	5	0.044787	-4.27086	-2.04255	-1.35459
 224	1	5	0.053996	-4.03376	-3.72634	-0.819556
 225	1	6	-0.57928	-6.82036	-1.30681	-1.77018
 226	1	1	-0.064235	-7.06385	-4.11533	-6.86345
 227	1	1	0.139042	-8.02463	-4.16326	-5.59535
 228	1	2	0.015001	-6.74005	-3.07283	-6.98014
 229	1	2	0.033313	-7.70093	-4.32737	-7.72471
 230	1	1	-0.357291	-9.26036	-3.29412	-6.01052
 231	1	3	0.733725	-8.47599	-5.63093	-5.32102
 232	1	2	0.091627	-9.02481	-2.22267	-6.01091
 233	1	2	0.097893	-10.1174	-3.47924	-5.35546
 234	1	2	0.10238	-9.61701	-3.54567	-7.01834
 235	1	4	-0.43098	-9.45246	-6.0544	-6.18457
 236	1	1	0.017514	-9.96274	-7.39719	-6.06654
 237	1	5	0.102507	-10.3647	-7.57306	-5.05911
 238	1	5	0.044787	-9.16557	-8.12742	-6.25685
 239	1	5	0.053996	-10.7663	-7.56004	-6.79589
 240	1	6	-0.57928	-7.98803	-6.35538	-4.46878
 241	1	1	-0.064235	-4.8952	-4.68287	-8.30942
 242	1	1	0.139042	-5.78342	-5.03122	-7.03286
 243	1	2	0.015001	-4.18761	-5.51665	-8.35092
 244	1	2	0.033313	-4.23517	-3.85268	-8.06876
 245	1	1	-0.357291	-6.20552	-6.54477	-7.15052
 246	1	3	0.733725	-4.82532	-4.76245	-5.82715
 247	1	2	0.091627	-7.11214	-6.68293	-7.74894
 248	1	2	0.097893	-5.4134	-7.15483	-7.60263
 249	1	2	0.10238	-6.397	-7.01213	-6.18038
 250	1	4	-0.43098	-4.54367	-5.86915	-5.07418
 251	1	1	0.017514	-3.84559	-5.71809	-3.82387
 252	1	5	0.102507	-2.93446	-5.11776	-3.94908
 253	1	5	0.044787	-3.57014	-6.70337	-3.42833
 254	1	5	0.053996	-4.49383	-5.22271	-3.09007
 255	1	6	-0.57928	-4.40169	-3.64879	-5.54963
 256	1	1	-0.064235	-6.1777	-3.0401	-9.96605
 257	1	1	0.139042	-5.45956	-4.43933	-9.78185
 258	1	2	0.015001	-6.91427	-2.95043	-9.17094
 259	1	2	0.033313	-6.81088	-3.13238	-10.8594
 260	1	1	-0.357291	-6.53039	-5.52767	-10.1241
 261	1	3	0.733725	-4.36084	-4.62074	-10.8865
 262	1	2	0.091627	-6.13347	-6.53749	-9.95933
 263	1	2	0.097893	-6.81119	-5.47525	-11.1858
 264	1	2	0.10238	-7.45956	-5.41174	-9.56082
 265	1	4	-0.43098	-3.27316	-5.34611	-10.4774
 266	1	1	0.017514	-2.28327	-5.74457	-11.4443
 267	1	5	0.102507	-1.84003	-4.8639	-11.9284
 268	1	5	0.044787	-2.73882	-6.37914	-12.2164
 269	1	5	0.053996	-1.48686	-6.31689	-10.9525
 270	1	6	-0.57928	-4.59106	-4.40909	-12.0667
 271	1	1	-0.064235	-4.17283	-1.43637	-9.19959
 272	1	1	0.139042	-5.44901	-1.6346	-10.1156
 273	1	2	0.015001	-3.41765	-2.11481	-9.59887
 274	1	2	0.033313	-4.40134	-1.816	-8.20235
 275	1	1	-0.357291	-6.5688	-0.610453	-9.70036
 276	1	3	0.733725	-5.04063	-1.46902	-11.6209
 277	1	2	0.091627	-6.86784	-0.750182	-8.65452
 278	1	2	0.097893	-7.47367	-0.750889	-10.3075
 279	1	2	0.10238	-6.28336	0.43647	-9.81539
 280	1	4	-0.43098	-6.09056	-1.11087	-12.4262
 281	1	1	0.017514	-5.84579	-0.907538	-13.8324
 282	1	5	0.102507	-5.15205	-0.0696009	-13.9852
 283	1	5	0.044787	-6.78603	-0.684111	-14.3513
 284	1	5	0.053996	-5.40472	-1.80852	-14.2799
 285	1	6	-0.57928	-3.90628	-1.61552	-12.0472
 286	1	1	-0.064235	-1.94868	-0.0871916	-8.73605
 287	1	1	0.139042	-3.50231	-0.00258796	-9.01198
 288	1	2	0.015001	-1.47543	-0.394713	-9.67227
 289	1	2	0.033313	-1.67073	0.956672	-8.58368
 290	1	1	-0.357291	-3.53498	0.86743	-10.3258
 291	1	3	0.733725	-4.15906	0.84921	-7.86949
 292	1	2	0.091627	-2.93768	0.422842	-11.1315
 293	1	2	0.097893	-3.09293	1.85714	-10.1457
 294	1	2	0.10238	-4.53263	1.06203	-10.7204
 295	1	4	-0.43098	-5.09055	0.190179	-7.11086
 296	1	1	0.017514	-5.7134	0.883565	-6.01125
 297	1	5	0.102507	-6.47222	0.248135	-5.53805
 298	1	5	0.044787	-6.19804	1.80392	-6.36365
 299	1	5	0.053996	-4.96317	1.15153	-5.25563
 300	1	6	-0.57928	-3.83755	2.00512	-7.63622
 301	1	1	-0.064235	0.245833	-0.318276	-7.34724
 302	1	1	0.139042	-1.23189	-0.874304	-7.57128
 303	1	2	0.015001	0.778329	-1.04276	-6.71995
 304	1	2	0.033313	0.176787	0.574405	-6.71221
 305	1	1	-0.357291	-2.00027	-0.63961	-6.23152
 306	1	3	0.733725	-1.13477	-2.40835	-7.86269
 307	1	2	0.091627	-2.97943	-1.13536	-6.23788
 308	1	2	0.097893	-2.14551	0.4299	-6.03024
 309	1	2	0.10238	-1.44521	-1.05453	-5.37955
 310	1	4	-0.43098	-0.818349	-3.13541	-6.74348
 311	1	1	0.017514	-0.658545	-4.56349	-6.84894
 312	1	5	0.102507	-1.57428	-5.0284	-7.23853
 313	1	5	0.044787	-0.441023	-4.99011	-5.86171
 314	1	5	0.053996	0.17188	-4.80708	-7.52452
 315	1	6	-0.57928	-1.24577	-2.9248	-8.96154
 316	1	1	-0.064235	2.63162	0.510118	-8.11737
 317	1	1	0.139042	1.18777	0.0518918	-8.56906
 318	1	2	0.015001	2.5142	1.47796	-7.62749
 319	1	2	0.033313	3.15192	0.759427	-9.05154
 320	1	1	-0.357291	1.29295	-1.13569	-9.58798
 321	1	3	0.733725	0.669714	1.33112	-9.31351
 322	1	2	0.091627	0.415336	-1.19827	-10.2406
 323	1	2	0.097893	2.14824	-1.00164	-10.2628
 324	1	2	0.10238	1.38552	-2.11314	-9.10666
 325	1	4	-0.43098	0.381811	2.36441	-8.4573
 326	1	1	0.017514	-0.103111	3.6126	-8.98755
 327	1	5	0.102507	0.629928	4.05168	-9.67765
 328	1	5	0.044787	-0.283132	4.3213	-8.16947
 329	1	5	0.053996	-1.04608	3.45887	-9.52827
 330	1	6	-0.57928	0.593703	1.44362	-10.526
 331	1	1	-0.064235	5.10802	0.128061	-7.57248
 332	1	1	0.139042	3.63623	-0.343106	-7.2394
 333	1	2	0.015001	5.20738	0.121932	-8.66614
 334	1	2	0.033313	5.79718	-0.665117	-7.25339
 335	1	1	-0.357291	3.60648	-1.84818	-7.6567
 336	1	3	0.733725	3.36112	-0.261698	-5.7005
 337	1	2	0.091627	2.66228	-2.32421	-7.37058
 338	1	2	0.097893	4.39082	-2.41582	-7.13679
 339	1	2	0.10238	3.7743	-1.97917	-8.73276
 340	1	4	-0.43098	2.64202	0.834519	-5.30882
 341	1	1	0.017514	2.33193	1.0091	-3.91231
 342	1	5	0.102507	1.63168	0.233111	-3.57561
 343	1	5	0.044787	1.87418	1.9925	-3.7487
 344	1	5	0.053996	3.24332	0.944991	-3.3027
 345	1	6	-0.57928	3.75431	-1.099	-4.90458
 346	1	1	-0.064235	6.91411	1.83576	-7.97541
 347	1	1	0.139042	5.72305	1.47887	-7.03869
 348	1	2	0.015001	6.56488	2.0655	-8.99129
 349	1	2	0.033313	7.6295	1.00637	-8.04933
 350	1	1	-0.357291	4.76665	2.71364	-7.11378
 351	1	3	0.733725	6.32533	1.23532	-5.61935
 352	1	2	0.091627	5.31264	3.63714	-6.87797
 353	1	2	0.097893	3.94819	2.65482	-6.3896
 354	1	2	0.10238	4.34301	2.83867	-8.11785
 355	1	4	-0.43098	5.76766	2.00169	-4.63019
 356	1	1	0.017514	6.24848	1.832	-3.28128
 357	1	5	0.102507	7.34183	1.93846	-3.24219
 358	1	5	0.044787	5.98474	0.833618	-2.90818
 359	1	5	0.053996	5.80074	2.58394	-2.62046
 360	1	6	-0.57928	7.24291	0.456993	-5.41157
 361	1	2	0	15.4099	5.45117	10.7262
 362	1	2	0	7.45949	2.71458	-7.60686

Velocities

   1	-0.000262827	0.00102917	3.64467e-05
   2	-3.59025e-05	-0.000178108	0.000103435
   3	-0.000164543	0.00232185	-4.70915e-05
   4	-0.00138169	0.000998314	0.00089168
   5	-0.00153283	-0.00130407	0.00027256
   6	-5.00796e-05	0.000912741	-0.000610605
   7	-0.00384246	-0.00100121	-0.000252641
   8	-0.00151199	-0.0031834	0.00164514
   9	-0.000676523	-0.000925986	0.000288664
  10	0.000257803	0.000265047	-0.00010673
  11	-0.000203214	-0.000223293	0.00010618
  12	-0.00118956	-8.56632e-05	-0.00102372
  13	0.000912008	-1.11624e-05	0.000729651
  14	-0.000596321	-0.00187873	0.000542512
  15	0.00023407	0.000105346	0.000300713
  16	0.00043299	0.000389307	-0.000265996
  17	0.000398293	0.000704933	-0.00031339
  18	0.000441603	0.000387803	-4.69045e-05
  19	0.000554539	0.000586727	-0.000158518
  20	0.000968779	0.000655699	-0.000736228
  21	0.000653012	-0.000433564	-0.000200571
  22	0.00132201	0.00114551	-0.000494531
  23	0.0010242	0.000730477	-0.000734666
  24	0.00132745	0.00043292	-0.00100208
  25	0.00019571	0.00024024	-0.000922803
  26	0.000167712	0.000375673	-0.00100416
  27	0.00172527	0.00161051	0.000217343
  28	-0.00124263	0.00172497	-0.00230168
  29	-7.78955e-05	-0.0016245	-0.000791042
  30	0.000908369	-0.000310451	0.000837281
  31	0.000272435	4.50538e-06	0.00017535
  32	0.000233548	0.000189543	-5.34199e-05
  33	4.64838e-05	-0.000105959	0.000205916
  34	0.000442145	-6.80311e-05	0.000305656
  35	0.000556829	0.000158647	0.000225008
  36	-0.000121012	0.000246095	-0.000183283
  37	0.000447675	0.000200298	0.000537396
  38	0.000654492	1.65771e-05	3.68568e-05
  39	0.000896164	5.98071e-05	0.00028624
  40	0.000531258	0.000933068	0.000294564
  41	0.000259301	0.0011268	0.000163775
  42	7.98026e-05	0.000648245	0.000230434
  43	0.000600614	0.00147093	0.000263921
  44	-0.000242712	0.0014648	3.32898e-05
  45	-0.00108686	-0.000201442	-0.000645477
  46	0.000511908	-0.000116472	-8.3114e-05
  47	0.000413379	-0.000103923	0.000175453
  48	0.000592254	-2.50491e-05	-6.82296e-05
  49	0.000565557	-0.000111817	-0.000212503
  50	0.000743468	-0.000167775	0.000546532
  51	0.000209927	2.88754e-05	0.000490437
  52	0.000807902	-0.000388234	0.000281732
  53	0.00107493	-0.000352621	0.000709084
  54	0.000672483	0.000150069	0.000809759
  55	-0.000919494	-0.000652218	0.000575848
  56	-0.0011253	-0.000488547	0.00094487
  57	0.000358758	-0.000690217	-0.000290302
  58	-0.00286589	-0.00168547	0.000960919
  59	-0.00107965	0.00106685	0.00247537
  60	0.000878656	0.000560099	0.000365475
  61	0.000335769	-1.19414e-05	-0.000287019
  62	0.000451384	-0.000258607	-0.00017926
  63	0.000171623	-3.44741e-05	-0.000348504
  64	0.00044907	0.000143222	-0.000245043
  65	0.000437009	-0.00046211	-0.000246132
  66	0.00058326	-0.000125178	0.000252581
  67	0.000785755	-0.000391499	-0.000361298
  68	0.000391824	-0.000842884	-0.000316993
  69	0.00020424	-0.00030357	-0.000143914
  70	-3.92989e-05	-0.000303739	-0.000217492
  71	0.00120138	0.000134248	0.000618829
  72	0.00417529	-0.000224922	9.31374e-06
  73	0.000911366	0.00168193	0.00315909
  74	-0.00029329	-0.000636881	-0.000674693
  75	0.0017396	-3.49287e-05	0.000713474
  76	6.84457e-05	0.000256697	-0.000137338
  77	0.000146583	9.93634e-05	-0.000219965
  78	5.19461e-05	0.000347649	-5.78456e-05
  79	0.000152173	0.000297273	-0.000112856
  80	0.000249204	9.70862e-05	-0.000221336
  81	0.000223717	0.000144097	-0.000620751
  82	0.000356665	-0.00022466	-0.000403255
  83	0.00053636	0.000221507	3.10124e-05
  84	-8.11306e-05	0.000295615	-0.000176662
  85	0.000423925	0.000135265	-0.000494072
  86	0.000765252	0.000394234	-0.000642765
  87	0.00113886	0.000468216	-0.000971121
  88	0.000592449	0.000188122	-0.000733278
  89	0.00086535	0.000697323	-0.000247735
  90	0.000177225	0.000378033	-0.000349062
  91	-0.000188081	0.000303388	4.81404e-05
  92	-0.000110084	0.000169356	3.93453e-05
  93	-9.13037e-05	0.000376838	0.000280619
  94	-0.000373527	0.000582691	-8.36873e-05
  95	-3.55139e-05	0.00013861	-3.93923e-05
  96	-0.0003136	0.000335851	-0.000172922
  97	2.66716e-05	0.000137375	-6.65793e-05
  98	2.77157e-05	0.000125892	-5.8806e-05
  99	-1.95203e-05	7.76242e-05	8.0586e-05
 100	-0.000606433	7.60831e-05	0.000317627
 101	-0.000730779	4.90456e-05	0.000250547
 102	-0.000445487	0.000120484	0.000495828
 103	-0.000727076	6.09437e-05	-0.000119949
 104	-0.00108739	-3.59996e-05	0.00044529
 105	0.000250936	0.000233467	6.31656e-05
 106	-0.000153295	0.000220605	0.000260864
 107	-0.00011807	0.000145925	8.96785e-05
 108	-9.39212e-05	0.000347803	0.000312445
 109	-0.000324238	0.000232781	0.000314543
 110	-0.000218448	8.41474e-05	-0.000102044
 111	-3.51649e-07	-4.2754e-05	0.00013876
 112	-0.000122111	0.000121719	3.57684e-05
 113	-0.000142665	-6.94043e-05	-0.000316925
 114	-0.000493708	0.000139162	-0.000135651
 115	0.000317713	-0.000201556	0.000187329
 116	0.000559226	-0.000288843	0.000242707
 117	0.00165745	-0.000745264	0.000458984
 118	-0.000254966	-0.000763505	0.000754924
 119	0.000554723	0.000534654	-0.000474778
 120	7.31246e-05	-3.14581e-05	0.000148029
 121	-7.68618e-05	0.000179173	0.000417109
 122	-9.93221e-05	0.000264583	0.000288583
 123	-6.04249e-05	0.000405359	0.000803288
 124	-1.47189e-05	-0.000262606	0.000503854
 125	-0.000104922	0.000265653	0.000344969
 126	-0.000261936	0.000203535	0.000336579
 127	-0.000123667	0.000307764	0.000330084
 128	-8.89085e-05	0.000246801	0.0003219
 129	-0.000148869	0.000244003	0.000347682
 130	-0.00109763	-9.37244e-05	5.03288e-05
 131	-0.00259755	-0.000584952	-0.000266931
 132	-0.00273848	-0.000740868	-0.00121176
 133	-0.0032441	-0.000606254	0.000675017
 134	-0.00314326	-0.000772205	-0.000648985
 135	-0.000295761	0.000314938	0.000360816
 136	-8.67206e-05	-2.9484e-05	0.000123837
 137	-9.75364e-05	0.000269083	-0.000168541
 138	-0.000108109	-0.000271786	0.000308514
 139	-0.000128321	0.000168391	0.000324639
 140	-0.000312841	0.00100751	-0.000333455
 141	-0.000166007	-0.000226344	-0.000701466
 142	-0.0006856	0.000110022	-0.000366477
 143	0.000640139	0.00160348	9.69639e-05
 144	-0.00121166	0.00194993	-0.00085408
 145	-0.000395525	3.01657e-05	-0.0014135
 146	-0.000958653	-0.000528573	-0.00184274
 147	-0.00157025	-0.0010954	-0.00242167
 148	-0.00123067	-0.000809394	-0.0010125
 149	-0.000603809	-0.000148127	-0.00248675
 150	-0.000165575	-0.000912246	-0.000689032
 151	0.000408853	-0.000580995	6.61041e-06
 152	5.82031e-05	-0.000301083	-0.000145301
 153	0.000486766	-0.000558917	0.000177029
 154	0.000505575	-0.000665566	-4.68786e-05
 155	-0.000205872	-0.000155482	-1.73578e-05
 156	-5.76869e-05	-0.000260989	-0.000794646
 157	-0.000277205	-0.000245422	-0.000235163
 158	-0.00040843	-0.000113565	7.68147e-05
 159	-9.60619e-05	-0.000121335	0.000190216
 160	-0.000498961	-0.00015769	-0.000840145
 161	-0.000537844	-5.10045e-05	-0.0013662
 162	-0.000462809	-4.21049e-05	-0.00166695
 163	-0.000300142	-0.000104467	-0.0013995
 164	-0.000882852	4.72292e-05	-0.00139796
 165	0.000680907	-0.000110102	-0.0010736
 166	0.000446786	-0.000398641	-7.75328e-05
 167	0.000338306	-0.000495178	-8.86828e-05
 168	0.00112559	-0.000120885	-0.000137025
 169	0.000539431	-0.000975147	0.000248307
 170	2.57512e-05	-0.000657907	-0.00014764
 171	0.000444326	-0.000247873	-8.71063e-05
 172	-0.000174223	-0.00108357	-0.000330699
 173	-0.000339713	-0.000354428	-8.76483e-05
 174	0.000313032	-0.000671284	-0.000137883
 175	0.000216973	-0.000997095	-0.000494738
 176	0.00107424	0.000801638	0.000451308
 177	0.00452356	0.00593231	-0.00151831
 178	-2.92344e-05	0.000948671	0.00673886
 179	-0.000399327	-0.0029717	-0.00288535
 180	0.000804024	0.000681552	8.34112e-05
 181	0.00013904	0.000100588	-0.000229206
 182	-0.000110086	0.000120667	-0.000351683
 183	0.0005056	0.000177205	-0.000218913
 184	0.000118422	-0.000201995	-0.000176267
 185	-0.000244788	0.000515901	-0.000687462
 186	-0.00103828	-0.000617113	-8.09579e-05
 187	-0.000549552	0.000946371	-0.000744034
 188	-0.000261468	0.000464246	-0.000513681
 189	3.57581e-05	0.000496641	-0.00120315
 190	-0.000720129	-0.00141821	-0.000808349
 191	-0.00135957	-0.00223441	-0.00128048
 192	-0.000460676	-0.00147404	-0.000959259
 193	-0.000963168	-0.00353898	-0.00256093
 194	-0.00312336	-0.00237068	-0.000852557
 195	-0.00135934	0.000327866	0.000123675
 196	-9.3007e-05	0.000447225	-0.000208644
 197	-6.2924e-05	0.000351753	-0.000218152
 198	-0.000283284	0.000212886	-0.000331764
 199	-0.000334422	0.00081519	-0.000275524
 200	-0.00022725	0.000300366	-0.000255645
 201	-1.58122e-07	0.000431045	-0.000169291
 202	9.4795e-05	0.000309381	-0.000430889
 203	-0.0006328	0.00027273	-0.000531707
 204	-0.000337081	0.000309684	0.000154261
 205	-0.000565006	-0.000408636	0.00108298
 206	-0.000533578	-0.000390457	0.000977858
 207	2.00462e-05	-0.00108475	-0.00126609
 208	-0.00025832	0.00191853	0.00159193
 209	-0.0013241	-0.00197904	0.00255928
 210	0.000421957	0.00109147	-0.00114439
 211	0.000422281	0.000257113	4.65483e-05
 212	0.000270549	0.000388563	-6.30454e-05
 213	0.00041664	0.000251134	-4.1495e-05
 214	0.000476383	0.000309646	2.9599e-05
 215	0.000409412	0.000569845	-0.000132113
 216	0.000374748	0.000301048	-0.000113428
 217	0.000835563	0.000976088	-0.000241665
 218	0.000181442	0.000647567	0.000395418
 219	0.000277638	0.000257149	-0.000540586
 220	0.000242189	0.000182787	-2.01266e-05
 221	0.0010047	0.000515494	-0.00114287
 222	0.00163647	0.00303744	-0.00157723
 223	0.00205493	-0.000976561	-0.00308999
 224	-1.64282e-05	-0.000239459	0.000219045
 225	0.000815565	0.000451363	-0.000644786
 226	0.000745947	6.56258e-05	0.00033418
 227	0.000503246	0.000197597	4.51999e-05
 228	0.000783539	8.36704e-05	0.00035046
 229	0.000765588	0.000112411	0.000349859
 230	0.000599858	0.000128611	-0.000107034
 231	0.000627447	-2.62149e-05	0.00035542
 232	0.000824872	0.000104442	-0.00084652
 233	0.000711401	0.000764979	0.000212065
 234	0.000273066	-0.000410112	0.000116087
 235	0.00065217	-4.07467e-06	-0.000104814
 236	0.000748548	-2.72754e-05	0.000109994
 237	0.000490142	0.000169604	2.35553e-05
 238	0.000846139	-5.40088e-06	0.000466902
 239	0.000931387	-0.000277494	-8.05925e-05
 240	0.000239748	0.000394365	0.000189734
 241	0.000469362	-0.000166379	0.000186402
 242	0.00075588	4.44107e-05	0.00042189
 243	0.000337537	-0.000282003	-8.90768e-05
 244	0.000715609	-0.000263758	-1.01158e-05
 245	0.000809268	-2.18896e-05	0.000642559
 246	0.00099669	-0.000156801	0.000154377
 247	0.000954884	-0.000229964	0.000521769
 248	0.000981952	-7.89872e-06	0.00094372
 249	0.000692744	0.000223851	0.000718555
 250	0.0015745	-1.60592e-05	-7.22237e-05
 251	0.00266904	-9.10105e-05	-0.000647015
 252	0.00385245	-0.00205855	-0.00195972
 253	0.000938273	-0.000188675	0.00033269
 254	0.00414776	0.00211665	-0.000869559
 255	0.0012687	8.25121e-05	8.51379e-06
 256	-0.000146013	-0.000168635	0.000546005
 257	-1.25682e-05	-0.000101496	0.000392802
 258	-0.000210755	-0.000241426	0.000494033
 259	-0.000127762	-0.000224849	0.00054233
 260	2.44466e-05	-0.000248379	0.000672488
 261	-0.000385147	0.000178447	-2.71642e-05
 262	0.000398671	-0.000217403	4.17057e-05
 263	-0.000731621	9.45578e-05	0.000906925
 264	0.00034722	-0.00074213	0.00128509
 265	0.000814151	0.00208839	0.000168466
 266	0.00103185	0.00317563	-2.30135e-05
 267	-5.76701e-05	0.00374716	-4.49741e-05
 268	0.00154508	0.00282792	6.48766e-06
 269	0.00174613	0.00397867	-0.000251693
 270	-0.00116123	-0.000957135	-3.57349e-05
 271	-8.74899e-05	3.94355e-05	0.000434026
 272	-0.000289177	-0.000119025	0.000615334
 273	2.04571e-05	0.000238616	0.000327323
 274	0.000166465	-0.000221596	0.000421367
 275	-0.000233097	-0.000228791	0.000674958
 276	-0.000165848	-0.000191838	0.000446164
 277	-0.000251331	-0.000261781	0.00066982
 278	-0.000254579	-0.000160147	0.000680007
 279	-0.000220418	-0.000222947	0.000744653
 280	-0.000361983	0.000476336	0.000563327
 281	-0.000403869	-0.000647105	0.000349221
 282	0.00136318	-0.00226757	-0.000388232
 283	-0.000124219	0.00114355	0.000534862
 284	-0.00256919	-0.00185585	0.000664944
 285	-0.000711717	-0.000830914	0.000493587
 286	-0.000419214	0.000674905	0.000578862
 287	-0.000520411	0.000136052	0.000466834
 288	-0.000247587	0.0011543	0.000619065
 289	-0.000672125	0.000712999	0.00106351
 290	-0.00052029	0.000119699	0.000468175
 291	-0.000895936	0.00010383	0.000444985
 292	-0.000576767	-1.32538e-05	0.000507331
 293	-0.000434113	4.30708e-05	0.000499125
 294	-0.00047123	0.000203223	0.000421642
 295	-0.000334121	-0.00068617	0.000667585
 296	-0.000446747	-0.00102485	0.000804446
 297	0.000902591	-0.00197163	0.001807
 298	-0.00209822	-0.00192156	0.000780015
 299	-0.000143849	0.000404597	-8.8042e-06
 300	-0.00182066	0.000101219	0.000133331
 301	-0.000125429	0.000292916	-3.18424e-05
 302	-0.000194022	0.000503563	0.000425205
 303	-0.000166078	0.000388709	0.000158055
 304	-2.4426e-05	0.00048731	-0.00013219
 305	-5.15007e-05	0.000381051	0.000334587