pySIMM System Object

452 atoms
451 bonds
840 angles
1131 dihedrals
30 impropers

6 atom types
7 bond types
11 angle types
9 dihedral types
1 improper types

-106.433606 106.433606 xlo xhi
-106.433606 106.433606 ylo yhi
-106.433606 106.433606 zlo zhi

Masses

   1	12.01	# c3
   2	1.008	# hc
   3	12.01	# c
   4	16.0	# os
   5	1.008	# h1
   6	16.0	# o

Pair Coeffs

   1	0.1094	3.3996695084235347	# c3
   2	0.0157	2.649532787749369	# hc
   3	0.086	3.3996695084235347	# c
   4	0.17	3.0000123434657784	# os
   5	0.0157	2.471353044121301	# h1
   6	0.21	2.959921901149463	# o

Bond Coeffs

   1	300.9	1.5375	# c3,c3
   2	330.6	1.0969	# c3,hc
   3	637.7	1.2183	# c,o
   4	330.6	1.0969	# c3,h1
   5	308.6	1.4316	# c3,os
   6	313.0	1.5241	# c,c3
   7	390.8	1.3584	# c,os

Angle Coeffs

   1	46.93	108.77	# c,c3,hc
   2	67.4	123.2	# c3,c,o
   3	75.32	123.25	# o,c,os
   4	39.24	108.46	# h1,c3,h1
   5	63.27	111.04	# c,c3,c3
   6	46.34	109.8	# c3,c3,hc
   7	50.8	109.78	# h1,c3,os
   8	63.28	115.98	# c,os,c3
   9	62.86	111.51	# c3,c3,c3
  10	39.4	107.58	# hc,c3,hc
  11	68.89	110.72	# c3,c,os

Dihedral Coeffs

   1	1	0.3833333333333333	3	0	# X,c3,os,X
   2	1	0.0	2	180	# X,c,c3,X
   3	1	0.15	3	0	# hc,c3,c3,hc
   4	3	0.8	1	0	0.0	2	0	0.08	3	180	# hc,c3,c,o
   5	3	2.7	2	180	0.0	1	0	1.15	3	0	# c3,c,os,c3
   6	1	0.16	3	0	# hc,c3,c3,c3
   7	2	2.7	2	180	1.4	1	180	# o,c,os,c3
   8	1	0.15555555555555556	3	0	# X,c3,c3,X
   9	3	0.18	3	0	0.25	2	180	0.2	1	180	# c3,c3,c3,c3

Improper Coeffs

   1	10.5	-1	2	# c,X,X,o

Atoms

   1	1	1	-0.064235	10.4214	-3.66901	10.8139
   2	1	1	0.139042	11.7854	-4.35554	11.1672
   3	1	2	0.015001	10.1267	-3.01318	11.6425
   4	1	2	0.033313	9.63807	-4.43891	10.7818
   5	1	1	-0.357291	11.6639	-5.904	11.2135
   6	1	3	0.733725	12.3973	-3.73416	12.4437
   7	1	2	0.091627	10.976	-6.23073	12.0035
   8	1	2	0.097893	12.6457	-6.35821	11.402
   9	1	2	0.10238	11.2996	-6.29111	10.2527
  10	1	4	-0.43098	11.5552	-3.80753	13.5205
  11	1	1	0.017514	11.903	-3.09419	14.7228
  12	1	5	0.102507	12.8814	-3.4188	15.1017
  13	1	5	0.044787	11.146	-3.26896	15.4972
  14	1	5	0.053996	11.9483	-2.01534	14.5207
  15	1	6	-0.57928	13.475	-3.15903	12.4658
  16	1	1	-0.064235	8.92172	-2.16288	9.48267
  17	1	1	0.139042	10.3574	-2.83376	9.48931
  18	1	2	0.015001	8.22882	-2.99976	9.56492
  19	1	2	0.033313	8.81745	-1.6261	10.4343
  20	1	1	-0.357291	11.486	-1.74568	9.52116
  21	1	3	0.733725	10.491	-3.87199	8.33054
  22	1	2	0.091627	11.283	-0.988118	10.2889
  23	1	2	0.097893	11.596	-1.24139	8.558
  24	1	2	0.10238	12.4787	-2.15753	9.72999
  25	1	4	-0.43098	11.7868	-4.19203	8.02485
  26	1	1	0.017514	12.0426	-5.21976	7.04693
  27	1	5	0.102507	11.5167	-6.14799	7.31177
  28	1	5	0.044787	13.1177	-5.43257	6.99788
  29	1	5	0.053996	11.7016	-4.89822	6.05479
  30	1	6	-0.57928	9.53747	-4.45895	7.84243
  31	1	1	-0.064235	6.81045	-0.924007	8.50237
  32	1	1	0.139042	8.38265	-1.17339	8.36257
  33	1	2	0.015001	6.49541	-0.392825	7.5963
  34	1	2	0.033313	6.66002	-0.193975	9.30755
  35	1	1	-0.357291	9.00196	0.247911	8.60107
  36	1	3	0.733725	8.73714	-1.61526	6.89937
  37	1	2	0.091627	8.56623	0.980298	7.90836
  38	1	2	0.097893	10.0821	0.280126	8.43772
  39	1	2	0.10238	8.81232	0.606884	9.62156
  40	1	4	-0.43098	10.0877	-1.6248	6.6714
  41	1	1	0.017514	10.598	-1.98785	5.37452
  42	1	5	0.102507	10.2299	-2.98061	5.081
  43	1	5	0.044787	11.6949	-2.01595	5.40024
  44	1	5	0.053996	10.2828	-1.25744	4.61854
  45	1	6	-0.57928	7.93685	-1.74956	5.98821
  46	1	1	-0.064235	4.27959	-1.66058	8.39748
  47	1	1	0.139042	5.76478	-2.08681	8.76324
  48	1	2	0.015001	4.2274	-1.57188	7.30402
  49	1	2	0.033313	3.64422	-2.52792	8.62148
  50	1	1	-0.357291	6.04789	-3.30023	7.81266
  51	1	3	0.733725	5.80172	-2.54867	10.2578
  52	1	2	0.091627	5.94895	-3.01205	6.75877
  53	1	2	0.097893	5.33114	-4.11444	7.9791
  54	1	2	0.10238	7.04315	-3.73274	7.94097
  55	1	4	-0.43098	5.06593	-3.68163	10.4841
  56	1	1	0.017514	4.95497	-4.18621	11.8292
  57	1	5	0.102507	5.94846	-4.3241	12.278
  58	1	5	0.044787	4.43446	-5.15165	11.8265
  59	1	5	0.053996	4.3863	-3.48344	12.4522
  60	1	6	-0.57928	6.39362	-1.96745	11.1556
  61	1	1	-0.064235	2.00286	-0.546063	8.62897
  62	1	1	0.139042	3.54425	-0.390712	8.9963
  63	1	2	0.015001	1.93765	-1.13274	7.70497
  64	1	2	0.033313	1.58756	-1.23822	9.37318
  65	1	1	-0.357291	3.64841	-0.411235	10.5582
  66	1	3	0.733725	4.20119	0.892405	8.39821
  67	1	2	0.091627	3.37088	-1.3904	10.969
  68	1	2	0.097893	2.99417	0.327076	11.0289
  69	1	2	0.10238	4.66089	-0.16223	10.8978
  70	1	4	-0.43098	4.13314	0.941778	7.03366
  71	1	1	0.017514	4.866	1.97396	6.3413
  72	1	5	0.102507	4.63825	2.96608	6.75593
  73	1	5	0.044787	4.60854	1.97206	5.2754
  74	1	5	0.053996	5.94604	1.79738	6.43658
  75	1	6	-0.57928	4.81197	1.71854	9.05861
  76	1	1	-0.064235	-0.478399	0.0503644	8.65346
  77	1	1	0.139042	0.983223	0.673756	8.49737
  78	1	2	0.015001	-0.510738	-0.802255	7.97632
  79	1	2	0.033313	-0.508299	-0.396384	9.65361
  80	1	1	-0.357291	1.23726	1.71871	9.63326
  81	1	3	0.733725	1.14413	1.3369	7.08951
  82	1	2	0.091627	2.28401	2.02411	9.69944
  83	1	2	0.097893	0.927013	1.33906	10.6146
  84	1	2	0.10238	0.710934	2.65665	9.44158
  85	1	4	-0.43098	1.15153	0.424261	6.06846
  86	1	1	0.017514	1.21879	0.886595	4.70503
  87	1	5	0.102507	2.13041	1.47477	4.53908
  88	1	5	0.044787	0.350242	1.51533	4.46902
  89	1	5	0.053996	1.21996	0.0310285	4.01845
  90	1	6	-0.57928	1.20508	2.54388	6.90669
  91	1	1	-0.064235	-3.1632	-0.000982836	8.65281
  92	1	1	0.139042	-1.83802	0.872283	8.501
  93	1	2	0.015001	-3.4286	-0.037617	9.71584
  94	1	2	0.033313	-3.94545	0.612217	8.20079
  95	1	1	-0.357291	-1.94757	1.8999	9.68494
  96	1	3	0.733725	-1.95477	1.61668	7.1283
  97	1	2	0.091627	-1.66187	1.44954	10.6444
  98	1	2	0.097893	-2.97634	2.27051	9.79497
  99	1	2	0.10238	-1.34367	2.79568	9.51872
 100	1	4	-0.43098	-2.6073	2.82012	7.22695
 101	1	1	0.017514	-2.79028	3.63122	6.05098
 102	1	5	0.102507	-1.81794	3.95657	5.65596
 103	1	5	0.044787	-3.38261	4.52107	6.29903
 104	1	5	0.053996	-3.31754	3.06839	5.26973
 105	1	6	-0.57928	-1.65522	1.12812	6.05353
 106	1	1	-0.064235	-4.90367	-1.85818	7.97987
 107	1	1	0.139042	-3.36343	-1.46754	8.09213
 108	1	2	0.015001	-4.91827	-2.91812	7.71616
 109	1	2	0.033313	-5.29738	-1.35769	7.09155
 110	1	1	-0.357291	-2.85577	-1.59302	6.61572
 111	1	3	0.733725	-2.64797	-2.51133	9.0116
 112	1	2	0.091627	-3.08835	-2.58449	6.20539
 113	1	2	0.097893	-1.77686	-1.46945	6.50371
 114	1	2	0.10238	-3.33991	-0.854977	5.96269
 115	1	4	-0.43098	-2.77217	-3.79352	8.54331
 116	1	1	0.017514	-2.39186	-4.8986	9.38566
 117	1	5	0.102507	-2.43028	-5.83727	8.81843
 118	1	5	0.044787	-3.08603	-4.98011	10.2327
 119	1	5	0.053996	-1.37523	-4.76447	9.77672
 120	1	6	-0.57928	-2.11676	-2.24963	10.08
 121	1	1	-0.064235	-7.29341	-2.52477	8.93827
 122	1	1	0.139042	-5.96008	-1.6777	9.14846
 123	1	2	0.015001	-8.04287	-2.09981	9.62053
 124	1	2	0.033313	-7.11472	-3.52871	9.3479
 125	1	1	-0.357291	-5.35455	-2.23099	10.481
 126	1	3	0.733725	-6.3743	-0.184694	9.37713
 127	1	2	0.091627	-4.5315	-1.61055	10.8521
 128	1	2	0.097893	-4.99251	-3.26117	10.3703
 129	1	2	0.10238	-6.10915	-2.23389	11.28
 130	1	4	-0.43098	-6.34427	0.592174	8.25158
 131	1	1	0.017514	-6.68992	1.98823	8.35152
 132	1	5	0.102507	-6.03429	2.4987	9.07075
 133	1	5	0.044787	-7.72931	2.10231	8.68614
 134	1	5	0.053996	-6.58094	2.47448	7.37421
 135	1	6	-0.57928	-6.72016	0.259053	10.4612
 136	1	1	-0.064235	-9.43505	-3.36435	7.82653
 137	1	1	0.139042	-7.99971	-2.74811	7.53442
 138	1	2	0.015001	-9.37167	-3.92788	8.76713
 139	1	2	0.033313	-10.0659	-2.51108	8.10559
 140	1	1	-0.357291	-8.22343	-1.36022	6.84417
 141	1	3	0.733725	-7.11572	-3.73377	6.71128
 142	1	2	0.091627	-7.28994	-0.903754	6.50918
 143	1	2	0.097893	-8.7235	-0.653953	7.52043
 144	1	2	0.10238	-8.83395	-1.43443	5.94352
 145	1	4	-0.43098	-6.80443	-3.2736	5.46021
 146	1	1	0.017514	-5.88915	-4.02708	4.64289
 147	1	5	0.102507	-6.2114	-5.07379	4.55745
 148	1	5	0.044787	-4.88464	-4.00691	5.08532
 149	1	5	0.053996	-5.83705	-3.59057	3.63756
 150	1	6	-0.57928	-6.6623	-4.77468	7.16245
 151	1	1	-0.064235	-10.2111	-3.77889	5.31153
 152	1	1	0.139042	-10.2561	-4.28814	6.81218
 153	1	2	0.015001	-9.18391	-3.90642	4.96289
 154	1	2	0.033313	-10.3766	-2.69875	5.34092
 155	1	1	-0.357291	-9.63231	-5.73076	6.92375
 156	1	3	0.733725	-11.7438	-4.222	7.30656
 157	1	2	0.091627	-10.318	-6.53414	6.64506
 158	1	2	0.097893	-9.32851	-5.96546	7.95211
 159	1	2	0.10238	-8.75207	-5.8493	6.28381
 160	1	4	-0.43098	-12.3741	-5.43524	7.37114
 161	1	1	0.017514	-13.782	-5.48481	7.68567
 162	1	5	0.102507	-14.3468	-4.77496	7.064
 163	1	5	0.044787	-13.9496	-5.23533	8.74077
 164	1	5	0.053996	-14.175	-6.49095	7.49396
 165	1	6	-0.57928	-12.3371	-3.16902	7.48739
 166	1	1	-0.064235	-10.5433	-3.85711	2.78094
 167	1	1	0.139042	-11.1731	-4.3288	4.1656
 168	1	2	0.015001	-10.4918	-2.76071	2.81552
 169	1	2	0.033313	-9.49295	-4.17614	2.77306
 170	1	1	-0.357291	-11.2563	-5.88655	4.18451
 171	1	3	0.733725	-12.5988	-3.71847	4.37067
 172	1	2	0.091627	-10.2767	-6.35976	4.04258
 173	1	2	0.097893	-11.9499	-6.25848	3.42529
 174	1	2	0.10238	-11.7029	-6.25352	5.11034
 175	1	4	-0.43098	-12.6225	-2.35389	4.26868
 176	1	1	0.017514	-13.8761	-1.67191	4.47633
 177	1	5	0.102507	-14.245	-1.84951	5.49663
 178	1	5	0.044787	-14.6314	-2.03243	3.76513
 179	1	5	0.053996	-13.7499	-0.591972	4.33234
 180	1	6	-0.57928	-13.5982	-4.38109	4.60736
 181	1	1	-0.064235	-10.2721	-3.52935	0.254918
 182	1	1	0.139042	-11.1456	-4.25839	1.36497
 183	1	2	0.015001	-10.1018	-2.50141	0.591444
 184	1	2	0.033313	-9.2812	-3.98506	0.294826
 185	1	1	-0.357291	-12.635	-3.78629	1.29413
 186	1	3	0.733725	-11.0103	-5.79748	1.12923
 187	1	2	0.091627	-13.2721	-4.37223	1.96637
 188	1	2	0.097893	-13.0781	-3.91882	0.304716
 189	1	2	0.10238	-12.7325	-2.72407	1.55554
 190	1	4	-0.43098	-9.70353	-6.21379	1.08705
 191	1	1	0.017514	-9.40777	-7.57475	0.72027
 192	1	5	0.102507	-9.81695	-8.27613	1.45934
 193	1	5	0.044787	-8.32186	-7.71786	0.656354
 194	1	5	0.053996	-9.84362	-7.80764	-0.260699
 195	1	6	-0.57928	-11.9482	-6.55234	0.92125
 196	1	1	-0.064235	-9.50947	-3.23766	-2.27969
 197	1	1	0.139042	-10.7132	-3.48015	-1.27199
 198	1	2	0.015001	-9.00995	-4.20058	-2.44196
 199	1	2	0.033313	-9.96805	-3.01421	-3.24632
 200	1	1	-0.357291	-11.2918	-4.86148	-1.74019
 201	1	3	0.733725	-11.7732	-2.34877	-1.48858
 202	1	2	0.091627	-11.4889	-4.86162	-2.82075
 203	1	2	0.097893	-12.2437	-5.11596	-1.26394
 204	1	2	0.10238	-10.5845	-5.67947	-1.55335
 205	1	4	-0.43098	-12.3806	-2.42297	-2.71598
 206	1	1	0.017514	-13.3676	-1.43566	-3.07244
 207	1	5	0.102507	-12.9268	-0.429522	-3.06949
 208	1	5	0.044787	-14.2015	-1.45271	-2.3584
 209	1	5	0.053996	-13.7632	-1.64307	-4.07461
 210	1	6	-0.57928	-12.0037	-1.44514	-0.700247
 211	1	1	-0.064235	-7.39721	-1.97037	-3.26477
 212	1	1	0.139042	-8.3777	-2.16884	-2.02714
 213	1	2	0.015001	-6.82114	-1.07686	-3.01718
 214	1	2	0.033313	-6.66899	-2.78857	-3.25833
 215	1	1	-0.357291	-9.00138	-0.784708	-1.64258
 216	1	3	0.733725	-7.45452	-2.67548	-0.868409
 217	1	2	0.091627	-9.42463	-0.798756	-0.632247
 218	1	2	0.097893	-9.80176	-0.468508	-2.31646
 219	1	2	0.10238	-8.2365	0.00294962	-1.63165
 220	1	4	-0.43098	-6.97087	-3.93963	-1.09388
 221	1	1	0.017514	-6.18276	-4.60095	-0.0872394
 222	1	5	0.102507	-6.77832	-4.76222	0.821385
 223	1	5	0.044787	-5.30106	-3.99976	0.168868
 224	1	5	0.053996	-5.84472	-5.57651	-0.459562
 225	1	6	-0.57928	-7.23902	-2.0675	0.168288
 226	1	1	-0.064235	-6.71196	-1.29638	-5.73252
 227	1	1	0.139042	-7.86717	-1.81434	-4.76677
 228	1	2	0.015001	-6.65139	-0.202886	-5.64489
 229	1	2	0.033313	-7.09747	-1.49442	-6.73586
 230	1	1	-0.357291	-8.98084	-0.717496	-4.86105
 231	1	3	0.733725	-8.4091	-3.17581	-5.31823
 232	1	2	0.091627	-8.67496	0.208145	-4.35665
 233	1	2	0.097893	-9.92865	-1.05943	-4.42988
 234	1	2	0.10238	-9.19665	-0.459763	-5.90714
 235	1	4	-0.43098	-9.31554	-3.0165	-6.3355
 236	1	1	0.017514	-10.0125	-4.16647	-6.85622
 237	1	5	0.102507	-9.30557	-4.92352	-7.22138
 238	1	5	0.044787	-10.6654	-3.86613	-7.68579
 239	1	5	0.053996	-10.6363	-4.61921	-6.07383
 240	1	6	-0.57928	-8.0991	-4.27255	-4.88248
 241	1	1	-0.064235	-4.25411	-1.15851	-6.76763
 242	1	1	0.139042	-5.22446	-1.83547	-5.69732
 243	1	2	0.015001	-3.30348	-1.69341	-6.6431
 244	1	2	0.033313	-4.03107	-0.152673	-6.41173
 245	1	1	-0.357291	-5.22912	-3.39406	-5.8618
 246	1	3	0.733725	-4.5399	-1.41518	-4.35495
 247	1	2	0.091627	-5.90702	-3.74019	-6.64772
 248	1	2	0.097893	-4.22445	-3.77222	-6.0918
 249	1	2	0.10238	-5.53871	-3.89348	-4.93578
 250	1	4	-0.43098	-3.64575	-2.34353	-3.89028
 251	1	1	0.017514	-2.89107	-2.05771	-2.69804
 252	1	5	0.102507	-2.33641	-1.11534	-2.8085
 253	1	5	0.044787	-2.1732	-2.86517	-2.50771
 254	1	5	0.053996	-3.56106	-1.97143	-1.83292
 255	1	6	-0.57928	-4.68221	-0.318254	-3.83462
 256	1	1	-0.064235	-5.58814	0.0322131	-8.72653
 257	1	1	0.139042	-4.50392	-1.04655	-8.33325
 258	1	2	0.015001	-6.41416	-0.0778098	-8.03174
 259	1	2	0.033313	-6.02603	-0.296354	-9.67936
 260	1	1	-0.357291	-5.03265	-2.42197	-8.85302
 261	1	3	0.733725	-3.17712	-0.761265	-9.12098
 262	1	2	0.091627	-4.37198	-3.24116	-8.54027
 263	1	2	0.097893	-5.06064	-2.44598	-9.95141
 264	1	2	0.10238	-6.05241	-2.62789	-8.51391
 265	1	4	-0.43098	-2.10302	-0.417414	-8.3439
 266	1	1	0.017514	-0.847569	-0.106632	-8.98054
 267	1	5	0.102507	-0.954329	0.775454	-9.62771
 268	1	5	0.044787	-0.508141	-0.950829	-9.59523
 269	1	5	0.053996	-0.0815377	0.102361	-8.22357
 270	1	6	-0.57928	-3.09297	-0.892927	-10.3322
 271	1	1	-0.064235	-4.30769	2.22335	-7.86698
 272	1	1	0.139042	-5.3241	1.58708	-8.90168
 273	1	2	0.015001	-3.32241	1.82309	-8.1177
 274	1	2	0.033313	-4.53357	1.82472	-6.87566
 275	1	1	-0.357291	-6.75814	2.20436	-8.70134
 276	1	3	0.733725	-4.78866	1.80423	-10.3585
 277	1	2	0.091627	-7.13107	2.01658	-7.68685
 278	1	2	0.097893	-7.48183	1.74715	-9.39012
 279	1	2	0.10238	-6.81557	3.28077	-8.86651
 280	1	4	-0.43098	-5.78506	1.8004	-11.3006
 281	1	1	0.017514	-5.43727	2.00963	-12.6835
 282	1	5	0.102507	-4.98815	3.00242	-12.8223
 283	1	5	0.044787	-6.33403	1.93947	-13.3117
 284	1	5	0.053996	-4.71594	1.25197	-13.0176
 285	1	6	-0.57928	-3.61543	1.97995	-10.6411
 286	1	1	-0.064235	-2.66234	4.206	-7.33698
 287	1	1	0.139042	-4.1423	3.80079	-7.72705
 288	1	2	0.015001	-2.00735	3.82205	-8.12717
 289	1	2	0.033313	-2.67112	5.29241	-7.44783
 290	1	1	-0.357291	-4.29927	4.54628	-9.10814
 291	1	3	0.733725	-5.16014	4.45212	-6.72926
 292	1	2	0.091627	-3.49297	4.29065	-9.80694
 293	1	2	0.097893	-4.24228	5.63495	-8.97038
 294	1	2	0.10238	-5.2476	4.37565	-9.61658
 295	1	4	-0.43098	-5.96917	3.5682	-6.06475
 296	1	1	0.017514	-6.94386	4.06626	-5.12706
 297	1	5	0.102507	-6.44789	4.55189	-4.27588
 298	1	5	0.044787	-7.55891	3.23966	-4.74984
 299	1	5	0.053996	-7.60419	4.79857	-5.6106
 300	1	6	-0.57928	-5.23195	5.65809	-6.54781
 301	1	1	-0.064235	-0.690161	5.01762	-5.93859
 302	1	1	0.139042	-1.91328	3.99145	-5.96431
 303	1	2	0.015001	-0.138231	4.86753	-5.00213
 304	1	2	0.033313	-1.14158	6.00364	-5.80494
 305	1	1	-0.357291	-2.82314	4.37364	-4.75617
 306	1	3	0.733725	-1.45308	2.51481	-5.72042
 307	1	2	0.091627	-3.23524	5.38653	-4.85233
 308	1	2	0.097893	-2.25273	4.33967	-3.81801
 309	1	2	0.10238	-3.6519	3.66297	-4.63916
 310	1	4	-0.43098	-0.246205	2.42	-5.07739
 311	1	1	0.017514	0.312869	1.12894	-4.76725
 312	1	5	0.102507	0.213358	0.443563	-5.62042
 313	1	5	0.044787	-0.195437	0.689901	-3.9001
 314	1	5	0.053996	1.37994	1.2347	-4.53167
 315	1	6	-0.57928	-2.14261	1.53617	-5.93745
 316	1	1	-0.064235	1.68818	5.87076	-6.65971
 317	1	1	0.139042	0.371789	5.12595	-7.12858
 318	1	2	0.015001	2.46957	5.57743	-7.36235
 319	1	2	0.033313	1.98893	5.40239	-5.71353
 320	1	1	-0.357291	0.889775	3.69572	-7.5094
 321	1	3	0.733725	-0.195978	5.80727	-8.41972
 322	1	2	0.091627	1.60026	3.74833	-8.34626
 323	1	2	0.097893	1.4313	3.22627	-6.67948
 324	1	2	0.10238	0.0888837	3.02738	-7.84072
 325	1	4	-0.43098	-1.01008	6.87705	-8.16233
 326	1	1	0.017514	-1.62906	7.57977	-9.25968
 327	1	5	0.102507	-2.45247	8.20641	-8.89342
 328	1	5	0.044787	-2.03733	6.8736	-9.99562
 329	1	5	0.053996	-0.898389	8.22509	-9.76119
 330	1	6	-0.57928	0.0338472	5.4196	-9.55358
 331	1	1	-0.064235	3.12909	7.76108	-5.66012
 332	1	1	0.139042	1.81268	7.43889	-6.474
 333	1	2	0.015001	3.06347	7.1341	-4.76235
 334	1	2	0.033313	3.025	8.78296	-5.26958
 335	1	1	-0.357291	0.660859	7.95682	-5.54656
 336	1	3	0.733725	1.7805	8.24331	-7.8121
 337	1	2	0.091627	0.828513	9.00187	-5.25117
 338	1	2	0.097893	0.577246	7.36611	-4.62554
 339	1	2	0.10238	-0.307546	7.96611	-6.05485
 340	1	4	-0.43098	2.20204	7.52095	-8.89395
 341	1	1	0.017514	2.19704	8.13639	-10.1983
 342	1	5	0.102507	1.20407	8.54055	-10.4351
 343	1	5	0.044787	2.45865	7.39532	-10.9636
 344	1	5	0.053996	2.9232	8.95837	-10.2403
 345	1	6	-0.57928	1.42784	9.40987	-7.89539
 346	1	1	-0.064235	4.99197	6.29509	-6.86955
 347	1	1	0.139042	4.6206	7.68651	-6.20924
 348	1	2	0.015001	4.44749	6.25811	-7.8206
 349	1	2	0.033313	4.54595	5.50786	-6.24725
 350	1	1	-0.357291	4.80321	8.85099	-7.24807
 351	1	3	0.733725	5.46437	7.89311	-4.9082
 352	1	2	0.091627	4.4419	8.57387	-8.24361
 353	1	2	0.097893	5.84945	9.14737	-7.37235
 354	1	2	0.10238	4.26957	9.75906	-6.93762
 355	1	4	-0.43098	6.38614	8.90212	-4.97695
 356	1	1	0.017514	7.16113	9.20556	-3.79967
 357	1	5	0.102507	7.90823	9.97721	-4.02117
 358	1	5	0.044787	7.68154	8.30916	-3.43673
 359	1	5	0.053996	6.50417	9.57455	-3.00045
 360	1	6	-0.57928	5.33029	7.19914	-3.90939
 361	1	1	-0.064235	7.22607	5.34642	-5.89627
 362	1	1	0.139042	6.48055	5.83127	-7.20532
 363	1	2	0.015001	7.16884	6.11827	-5.13387
 364	1	2	0.033313	6.59359	4.53624	-5.56784
 365	1	1	-0.357291	7.28203	6.96123	-7.91943
 366	1	3	0.733725	6.27813	4.58845	-8.14099
 367	1	2	0.091627	6.68519	7.41801	-8.71937
 368	1	2	0.097893	8.17835	6.563	-8.41015
 369	1	2	0.10238	7.60057	7.74542	-7.22252
 370	1	4	-0.43098	6.4693	4.85066	-9.47229
 371	1	1	0.017514	6.34912	3.77584	-10.4277
 372	1	5	0.102507	7.15956	3.04714	-10.2909
 373	1	5	0.044787	6.40573	4.17127	-11.4495
 374	1	5	0.053996	5.38966	3.25459	-10.3102
 375	1	6	-0.57928	5.89991	3.49638	-7.73884
 376	1	1	-0.064235	9.13323	4.26913	-4.39187
 377	1	1	0.139042	8.71989	4.83155	-5.83822
 378	1	2	0.015001	10.1754	3.92818	-4.45747
 379	1	2	0.033313	9.16972	5.15336	-3.74908
 380	1	1	-0.357291	8.98293	3.73431	-6.91114
 381	1	3	0.733725	9.68027	6.04444	-6.13691
 382	1	2	0.091627	8.8943	4.13728	-7.92768
 383	1	2	0.097893	8.30114	2.88395	-6.83067
 384	1	2	0.10238	10.0149	3.37471	-6.82431
 385	1	4	-0.43098	9.74932	6.96237	-5.11658
 386	1	1	0.017514	10.6159	8.11015	-5.23742
 387	1	5	0.102507	11.5613	7.84639	-5.73333
 388	1	5	0.044787	10.8539	8.50336	-4.24063
 389	1	5	0.053996	10.1244	8.90103	-5.81744
 390	1	6	-0.57928	10.3295	6.17293	-7.1617
 391	1	1	-0.064235	8.28613	1.73416	-4.08602
 392	1	1	0.139042	8.33909	3.20553	-3.5005
 393	1	2	0.015001	7.52393	1.24208	-3.46674
 394	1	2	0.033313	7.8139	1.77184	-5.07243
 395	1	1	-0.357291	6.84668	3.64656	-3.29539
 396	1	3	0.733725	8.8711	3.17837	-2.01851
 397	1	2	0.091627	6.42468	3.23468	-2.36879
 398	1	2	0.097893	6.17938	3.26131	-4.07299
 399	1	2	0.10238	6.74866	4.73728	-3.21039
 400	1	4	-0.43098	9.84289	4.09875	-1.7187
 401	1	1	0.017514	10.2144	4.28481	-0.335399
 402	1	5	0.102507	10.3847	3.3207	0.164352
 403	1	5	0.044787	9.41093	4.81072	0.197768
 404	1	5	0.053996	11.1299	4.88404	-0.261153
 405	1	6	-0.57928	8.4157	2.43259	-1.16183
 406	1	1	-0.064235	8.79757	-0.71125	-4.21177
 407	1	1	0.139042	9.5081	0.710222	-4.16267
 408	1	2	0.015001	8.32411	-0.804638	-3.22702
 409	1	2	0.033313	7.95256	-0.613067	-4.90133
 410	1	1	-0.357291	10.4112	0.802675	-2.88588
 411	1	3	0.733725	10.3859	0.978129	-5.42248
 412	1	2	0.091627	11.3038	0.180117	-2.95388
 413	1	2	0.097893	9.87059	0.512778	-1.97576
 414	1	2	0.10238	10.8281	1.80709	-2.76241
 415	1	4	-0.43098	9.80593	0.582498	-6.59674
 416	1	1	0.017514	10.5739	0.681572	-7.81747
 417	1	5	0.102507	9.94163	0.465945	-8.68736
 418	1	5	0.044787	11.4047	-0.0361237	-7.80341
 419	1	5	0.053996	10.9947	1.68817	-7.9402
 420	1	6	-0.57928	11.4902	1.49669	-5.37782
 421	1	1	-0.064235	8.76945	-3.2419	-3.65839
 422	1	1	0.139042	9.49694	-2.1122	-4.49702
 423	1	2	0.015001	9.45547	-4.09575	-3.57585
 424	1	2	0.033313	8.69714	-2.87389	-2.62604
 425	1	1	-0.357291	10.9616	-2.13482	-3.95747
 426	1	3	0.733725	9.5344	-2.49943	-6.01355
 427	1	2	0.091627	11.5957	-1.40212	-4.47103
 428	1	2	0.097893	11.4293	-3.11366	-4.13327
 429	1	2	0.10238	10.9951	-1.96518	-2.87409
 430	1	4	-0.43098	8.48578	-2.01553	-6.74905
 431	1	1	0.017514	8.44711	-2.28908	-8.16525
 432	1	5	0.102507	9.42513	-2.08775	-8.62527
 433	1	5	0.044787	7.69933	-1.65153	-8.65242
 434	1	5	0.053996	8.18987	-3.34008	-8.34822
 435	1	6	-0.57928	10.3817	-3.23188	-6.50111
 436	1	1	-0.064235	7.54859	-4.95278	-5.143
 437	1	1	0.139042	7.3691	-3.85505	-4.04925
 438	1	2	0.015001	6.62642	-5.53526	-5.27097
 439	1	2	0.033313	7.8027	-4.5303	-6.1196
 440	1	1	-0.357291	6.84852	-4.59966	-2.77884
 441	1	3	0.733725	6.2965	-2.79542	-4.4548
 442	1	2	0.091627	7.54254	-5.38791	-2.45901
 443	1	2	0.097893	6.71986	-3.90229	-1.93927
 444	1	2	0.10238	5.87138	-5.06476	-2.96501
 445	1	4	-0.43098	5.48422	-3.21273	-5.47693
 446	1	1	0.017514	4.42851	-2.3514	-5.94734
 447	1	5	0.102507	3.92087	-1.85106	-5.1108
 448	1	5	0.044787	3.68442	-2.94007	-6.49827
 449	1	5	0.053996	4.83681	-1.58577	-6.61904
 450	1	6	-0.57928	6.04078	-1.80477	-3.78769
 451	1	2	0	12.5187	-4.16665	10.3798
 452	1	2	0	8.33801	-5.66316	-4.86538

Velocities

   1	0.000292436	0.00104674	-1.4099e-06
   2	0.000115818	0.000355624	0.000633599
   3	0.000874301	0.00148586	-0.000117281
   4	-9.85858e-05	0.00156644	0.000673559
   5	-0.00170644	0.000393887	0.00349699
   6	-0.00109428	-0.000141327	0.000530966
   7	-0.00208999	0.00237013	0.00438293
   8	-0.00255714	-0.000408755	0.00499241
   9	-0.00225434	-0.00117919	0.00469771
  10	0.000984146	-0.00100831	0.000983481
  11	0.00117967	-0.00198814	0.00157845
  12	0.00124527	-0.0025992	0.00117967
  13	0.00135635	-0.00187859	0.00169497
  14	0.00176634	-0.00193393	0.00195617
  15	0.000602307	0.000553399	0.000682564
  16	-0.000404158	-0.000333679	-0.00081184
  17	0.000155492	0.000539943	-0.000292908
  18	0.000114066	-0.000737758	-0.00134958
  19	-0.000930494	-0.000738452	-0.000658952
  20	-0.000596678	0.00102993	-0.000569613
  21	0.000519728	0.000450102	-0.000374642
  22	-0.00070511	0.000818242	-0.000478001
  23	-0.00102371	0.00128975	-0.000489836
  24	-0.000584991	0.00117165	-0.00070761
  25	0.000735882	0.00228123	-0.00169018
  26	0.000359055	0.00167062	-0.00126432
  27	0.0014263	0.00159636	0.00046949
  28	0.000446303	0.00235513	-0.00267587
  29	-0.00138018	0.00026502	-0.00117746
  30	0.000986866	-0.000505721	0.000491116
  31	-0.00120637	-0.000662928	-8.17808e-05
  32	-0.00114334	-0.000262543	-0.000458971
  33	-0.00164081	-0.000580732	6.82029e-05
  34	-0.00127731	-0.000859971	9.14575e-05
  35	-0.00186198	4.94647e-05	-0.000478531
  36	-0.00169109	0.000122064	-0.000713794
  37	-0.00362492	0.000261968	0.000709227
  38	-0.00215731	0.000967193	-0.00218501
  39	-0.000643622	-0.000786038	5.66641e-05
  40	-0.00170397	0.000421728	-0.000942643
  41	-0.00200155	0.000662678	-0.00110624
  42	-0.00160645	0.000482114	-0.000984029
  43	-0.00201342	0.00119967	-0.00137707
  44	-0.00254225	0.000442451	-0.00112924
  45	-0.00184225	0.000137179	-0.000415188
  46	-0.00093108	-0.000840663	0.000512609
  47	-0.000821412	-0.000867456	-6.33654e-05
  48	-0.00167156	-0.00149398	0.00047709
  49	-0.00101781	-0.000597229	0.00145655
  50	-0.00105046	-0.000843331	-0.000222171
  51	-0.000413367	-0.00106847	-0.000230964
  52	-0.000986331	-0.000750828	-0.000202971
  53	-0.00130373	-0.000698797	-0.000316471
  54	-0.00115111	-0.00112638	-0.000213556
  55	-0.00107793	-0.000466768	6.05389e-05
  56	-0.000196881	-0.000710559	-4.06977e-06
  57	0.000226192	-0.00248227	-0.00149084
  58	-0.00181464	0.00017199	0.000373473
  59	0.00187928	7.90468e-05	0.000997002
  60	0.000273435	-0.00134874	-0.000318165
  61	-0.000282593	-0.000337541	0.00109924
  62	-0.000230114	-0.000428151	0.000272158
  63	-0.00094689	-0.00099559	0.00154249
  64	-7.08746e-05	0.000313557	0.00187579
  65	0.000796575	0.000640966	0.000282878
  66	-0.000477207	-0.000393205	-0.000437011
  67	0.000370027	0.00115949	0.00124158
  68	0.00169761	0.00152346	0.000125635
  69	0.0012131	0.000134646	-0.000597881
  70	-0.00133215	-0.00111262	-0.000674895
  71	-0.00318666	8.3569e-05	-0.000794967
  72	-0.00693269	-7.46279e-05	-0.00243941
  73	-0.00132762	-0.00205342	-0.00129871
  74	-0.00289721	0.00340012	0.00138858
  75	-0.000744702	-0.000239376	-0.00136911
  76	0.000201453	-0.000535639	6.91355e-05
  77	5.0467e-05	-0.000288247	0.000589868
  78	0.000476942	-0.000404318	-0.00015374
  79	5.3922e-05	-0.00069392	-1.9596e-05
  80	-0.000140146	-0.000174785	0.000568858
  81	0.000457724	8.10906e-05	0.000674462
  82	-0.00020083	8.71438e-05	0.000396074
  83	4.81584e-05	-0.000227777	0.000624901
  84	-0.000336859	-0.000298425	0.000597042
  85	0.00190129	-2.13774e-05	0.000615787
  86	0.00254172	0.000327447	0.000772194
  87	0.0028497	1.68869e-05	0.00117754
  88	0.0028892	0.000709909	0.000671646
  89	0.00244143	0.000488832	0.000563204
  90	-0.000426161	-0.000120769	0.00081362
  91	0.000178136	-0.000356674	-2.67611e-05
  92	0.000272302	-0.000626906	-0.00010413
  93	0.000357312	-0.000624045	-2.25796e-06
  94	0.000163437	-0.000171171	0.0002413
  95	0.000339654	-0.000727972	-6.1323e-05
  96	0.000631209	-0.000836739	-0.000171506
  97	0.00130037	-0.000746908	-0.000333869
  98	0.000190681	-0.00142104	0.000670167
  99	-0.000307717	-0.000370376	-0.000431621
 100	0.000713396	-0.000870514	-0.000566354
 101	0.000745809	-0.00128656	-0.000851457
 102	0.000822473	-0.00322694	-0.00227922
 103	0.00261524	-0.000143232	-0.000653909
 104	-0.00117565	-0.000916542	0.000167711
 105	0.0015044	-0.000796266	-7.66691e-05
 106	0.00014008	-9.52821e-05	-0.000417335
 107	5.5545e-05	-0.000177417	-0.00028367
 108	0.000197962	-0.000172443	-0.000125041
 109	0.000255629	-0.000262055	-0.000572237
 110	0.000145514	0.000209668	-0.000215496
 111	0.000299215	-8.80951e-05	-0.000190104
 112	-0.000852047	0.000754504	-0.000949499
 113	0.000313375	-0.000898063	0.000120895
 114	0.00100189	0.00117201	0.000228537
 115	0.000556614	-0.000135094	-0.000460456
 116	0.00268645	0.000264857	-0.000922614
 117	0.000355577	-0.000119442	-0.000167689
 118	0.00554867	0.00126394	0.00146236
 119	0.00410731	8.34525e-05	-0.00441618
 120	0.000233051	-0.000152756	-0.000467781
 121	-0.000225576	0.000684828	-0.00112428
 122	-2.00192e-05	0.000176855	-0.000607121
 123	-0.000358973	0.00113	-0.00153201
 124	-0.000841835	0.000697628	-0.000890556
 125	-0.000405671	-0.000376942	-0.00067571
 126	0.00043095	0.000195976	-0.000672651
 127	-0.000566643	-0.000482398	-0.000140184
 128	-0.000275519	-0.0002944	-0.00103334
 129	-0.000683541	-0.000817867	-0.000923145
 130	-2.68137e-05	0.000139217	-0.000563793
 131	-0.000330225	9.30476e-05	-0.000743863
 132	-0.000529978	0.000318311	-0.000727142
 133	-0.000399385	-0.00011951	-0.000846088
 134	-0.000377253	2.31968e-05	-0.000772583
 135	0.00084905	0.000393421	-0.000306936
 136	0.000140302	0.00099861	-0.0013652
 137	0.000248227	0.00073115	-0.00134493
 138	-0.000355606	0.001632	-0.000996764
 139	-9.18792e-07	0.0012208	-0.00227869
 140	0.000506293	0.000566932	-0.00168456
 141	0.000397102	0.000436892	-0.00109691
 142	0.00068246	0.000848505	-0.000835025
 143	-0.00040582	0.000530296	-0.00234098
 144	0.00150945	0.000225415	-0.00237475
 145	0.000190164	0.000215029	-0.00140321
 146	-0.000225453	-0.000261059	-0.00142355
 147	-0.00179072	0.000338639	-0.00294445
 148	-0.000608576	-0.00233354	-0.000482277
 149	0.00140136	0.000842744	-0.000902731
 150	0.000555986	0.000891309	-0.000911451
 151	0.000755431	-2.35978e-05	-0.000991829
 152	0.000518635	0.000430153	-0.000951705
 153	0.000718808	-0.000400196	-0.000987677
 154	0.00109828	4.31919e-05	-0.00138478
 155	0.000861621	0.000634421	-0.000590426
 156	0.000519573	0.000206584	-0.000989682
 157	0.000877405	0.000456555	-5.39113e-05
 158	0.00150234	0.00113718	-0.000533644
 159	0.000502195	0.000616035	-0.000971196
 160	0.00143318	-7.59493e-05	0.00145342
 161	0.00147041	-0.000489456	0.00156876
 162	0.000783251	-0.00339477	-0.00108178
 163	0.0010825	0.00324481	0.000656155
 164	0.00263444	-0.00164124	0.00528851
 165	-7.80668e-05	0.000217053	-0.00234099
 166	0.000813201	-0.000469512	-0.000693344
 167	0.000682686	-0.00025623	-0.000728635
 168	0.00125311	-0.000505596	-0.000644157
 169	0.000688777	-0.000876208	-0.000822371
 170	0.000473337	-0.000267775	-0.000308926
 171	0.000980724	0.000139513	-0.000641151
 172	0.000457015	-0.0004505	0.000185317
 173	0.000753788	-0.000441448	-0.00050033
 174	0.000172199	0.00014145	-0.000251272
 175	0.00142945	7.91358e-05	-0.00057508
 176	0.00183411	0.000599748	-5.44388e-05
 177	0.00155713	-0.00032944	-0.000317423
 178	0.00179539	0.00183455	-0.000603203
 179	0.00255713	0.000681808	0.00120781
 180	0.000856535	0.000394084	0.000173189
 181	0.000462673	-0.00012935	-0.000428333
 182	0.000397193	-0.000160339	-0.000570257
 183	0.000899243	-0.000263013	-0.000289681
 184	0.000248099	-0.000692163	-0.000699316
 185	0.000555596	0.000213171	-0.000104931
 186	0.000120234	-1.33416e-05	-0.000753654
 187	0.000504957	-0.000326363	-0.000588546
 188	0.000516218	0.00121425	-0.000232966
 189	0.000781141	-1.20398e-05	0.000874956
 190	-0.0002213	-0.000799405	0.000765367
 191	-0.000625307	-0.0012644	0.00210439
 192	-0.0030842	-0.000464162	0.00158536
 193	-0.000642646	-0.00242962	0.00475448
 194	0.00138525	-0.00136418	0.00125243
 195	-0.000269107	0.000255168	-0.00158276
 196	0.000482138	0.000690678	6.18991e-05
 197	0.000340264	0.000328794	-0.000327642
 198	0.000629745	0.000745588	9.70053e-05
 199	0.000623333	0.000774316	8.56926e-06
 200	0.000213064	0.000595321	-0.000656738
 201	0.000198512	0.000517386	0.000140609
 202	0.000462057	0.000828872	-0.000730905
 203	3.52937e-06	0.000852735	-0.00091092
 204	-4.66759e-05	0.000381437	-0.000593776
 205	0.00054955	0.00070664	-0.000264095
 206	-0.000134727	0.000132256	0.000137004
 207	-0.00108574	0.000535132	0.00104129
 208	-0.000449172	-0.00118901	-0.000271564
 209	0.000495162	0.000463226	-0.000210916
 210	-0.000286441	-0.000327732	0.000330497
 211	0.000685686	0.000945944	0.000937698