

################################################################################
##################################    Init    ##################################
################################################################################
units           real
atom_style      full
pair_style      lj/cut/coul/long 12.0  12.0
kspace_style    pppm 1e-4
bond_style      harmonic
angle_style     harmonic
dihedral_style  fourier
improper_style  cvff
special_bonds   amber
pair_modify     mix arithmetic
read_data       temp.lmps
  orthogonal box = (-59.2383 -59.2383 -59.2383) to (59.2383 59.2383 59.2383)
  1 by 1 by 1 MPI processor grid
  reading atoms ...
  30 atoms
  reading velocities ...
  30 velocities
  scanning bonds ...
  4 = max bonds/atom
  scanning angles ...
  6 = max angles/atom
  scanning dihedrals ...
  17 = max dihedrals/atom
  scanning impropers ...
  1 = max impropers/atom
  reading bonds ...
  29 bonds
  reading angles ...
  50 angles
  reading dihedrals ...
  56 dihedrals
  reading impropers ...
  2 impropers
  4 = max # of 1-2 neighbors
  10 = max # of 1-3 neighbors
  17 = max # of 1-4 neighbors
  21 = max # of special neighbors
  special bonds CPU = 0.000245094 secs
  read_data CPU = 0.00366712 secs
################################################################################

timestep        1
fix             pysimm_md all nve/limit 0.1
run             2000
PPPM initialization ...
  using 12-bit tables for long-range coulomb (../kspace.cpp:332)
  G vector (1/distance) = 0.087209
  grid = 9 9 9
  stencil order = 5
  estimated absolute RMS force accuracy = 0.0322598
  estimated relative force accuracy = 9.71495e-05
  using double precision KISS FFT
  3d grid and FFT values/proc = 2744 729
Neighbor list info ...
  update every 1 steps, delay 10 steps, check yes
  max neighbors/atom: 2000, page size: 100000
  master list distance cutoff = 14
  ghost atom cutoff = 14
  binsize = 7, bins = 17 17 17
  1 neighbor lists, perpetual/occasional/extra = 1 0 0
  (1) pair lj/cut/coul/long, perpetual
      attributes: half, newton on
      pair build: half/bin/newton
      stencil: half/bin/3d/newton
      bin: standard
Per MPI rank memory allocation (min/avg/max) = 15.47 | 15.47 | 15.47 Mbytes
Step Temp E_pair E_mol TotEng Press 
       0    23.925432    10280.305 1.5537448e+25 1.5537448e+25     1694.296 
    2000    932.00523    58.957527    88.589485     228.1128   -1.1154764 
Loop time of 0.445137 on 1 procs for 2000 steps with 30 atoms

Performance: 388.195 ns/day, 0.062 hours/ns, 4492.999 timesteps/s
100.0% CPU use with 1 MPI tasks x no OpenMP threads

MPI task timing breakdown:
Section |  min time  |  avg time  |  max time  |%varavg| %total
---------------------------------------------------------------
Pair    | 0.026655   | 0.026655   | 0.026655   |   0.0 |  5.99
Bond    | 0.022326   | 0.022326   | 0.022326   |   0.0 |  5.02
Kspace  | 0.38785    | 0.38785    | 0.38785    |   0.0 | 87.13
Neigh   | 0.0025978  | 0.0025978  | 0.0025978  |   0.0 |  0.58
Comm    | 0.0012968  | 0.0012968  | 0.0012968  |   0.0 |  0.29
Output  | 1.6928e-05 | 1.6928e-05 | 1.6928e-05 |   0.0 |  0.00
Modify  | 0.0018086  | 0.0018086  | 0.0018086  |   0.0 |  0.41
Other   |            | 0.002581   |            |       |  0.58

Nlocal:    30 ave 30 max 30 min
Histogram: 1 0 0 0 0 0 0 0 0 0
Nghost:    32 ave 32 max 32 min
Histogram: 1 0 0 0 0 0 0 0 0 0
Neighs:    435 ave 435 max 435 min
Histogram: 1 0 0 0 0 0 0 0 0 0

Total # of neighbors = 435
Ave neighs/atom = 14.5
Ave special neighs/atom = 9
Neighbor list builds = 98
Dangerous builds = 0
unfix pysimm_md
min_style cg
minimize 0.001 0.001 10000 100000
WARNING: Using 'neigh_modify every 1 delay 0 check yes' setting during minimization (../min.cpp:190)
PPPM initialization ...
  using 12-bit tables for long-range coulomb (../kspace.cpp:332)
  G vector (1/distance) = 0.087209
  grid = 9 9 9
  stencil order = 5
  estimated absolute RMS force accuracy = 0.0322598
  estimated relative force accuracy = 9.71495e-05
  using double precision KISS FFT
  3d grid and FFT values/proc = 2744 729
Per MPI rank memory allocation (min/avg/max) = 16.59 | 16.59 | 16.59 Mbytes
Step Temp E_pair E_mol TotEng Press 
    2000    932.00523    58.957527    88.589485     228.1128   -1.1154764 
    2052    932.00523    55.721798    6.9604958    143.24808    2.3081413 
Loop time of 0.0250859 on 1 procs for 52 steps with 30 atoms

99.6% CPU use with 1 MPI tasks x no OpenMP threads

Minimization stats:
  Stopping criterion = energy tolerance
  Energy initial, next-to-last, final = 
         147.547011465      62.7388183758      62.6822934593
  Force two-norm initial, final = 369.057 10.0809
  Force max component initial, final = 123.215 3.03706
  Final line search alpha, max atom move = 0.00851745 0.025868
  Iterations, force evaluations = 52 104

MPI task timing breakdown:
Section |  min time  |  avg time  |  max time  |%varavg| %total
---------------------------------------------------------------
Pair    | 0.0022836  | 0.0022836  | 0.0022836  |   0.0 |  9.10
Bond    | 0.0012727  | 0.0012727  | 0.0012727  |   0.0 |  5.07
Kspace  | 0.02117    | 0.02117    | 0.02117    |   0.0 | 84.39
Neigh   | 2.5988e-05 | 2.5988e-05 | 2.5988e-05 |   0.0 |  0.10
Comm    | 6.1512e-05 | 6.1512e-05 | 6.1512e-05 |   0.0 |  0.25
Output  | 0          | 0          | 0          |   0.0 |  0.00
Modify  | 0          | 0          | 0          |   0.0 |  0.00
Other   |            | 0.0002725  |            |       |  1.09

Nlocal:    30 ave 30 max 30 min
Histogram: 1 0 0 0 0 0 0 0 0 0
Nghost:    32 ave 32 max 32 min
Histogram: 1 0 0 0 0 0 0 0 0 0
Neighs:    435 ave 435 max 435 min
Histogram: 1 0 0 0 0 0 0 0 0 0

Total # of neighbors = 435
Ave neighs/atom = 14.5
Ave special neighs/atom = 9
Neighbor list builds = 1
Dangerous builds = 0
write_dump all custom pysimm.dump.tmp id q x y z vx vy vz
quit


################################################################################
##################################    Init    ##################################
################################################################################
units           real
atom_style      full
pair_style      lj/cut/coul/long 12.0  12.0
kspace_style    pppm 1e-4
bond_style      harmonic
angle_style     harmonic
dihedral_style  fourier
improper_style  cvff
special_bonds   amber
pair_modify     mix arithmetic
read_data       temp.lmps
  orthogonal box = (-59.2383 -59.2383 -59.2383) to (59.2383 59.2383 59.2383)
  1 by 1 by 1 MPI processor grid
  reading atoms ...
  45 atoms
  reading velocities ...
  45 velocities
  scanning bonds ...
  4 = max bonds/atom
  scanning angles ...
  6 = max angles/atom
  scanning dihedrals ...
  20 = max dihedrals/atom
  scanning impropers ...
  1 = max impropers/atom
  reading bonds ...
  44 bonds
  reading angles ...
  78 angles
  reading dihedrals ...
  94 dihedrals
  reading impropers ...
  3 impropers
  4 = max # of 1-2 neighbors
  11 = max # of 1-3 neighbors
  21 = max # of 1-4 neighbors
  25 = max # of special neighbors
  special bonds CPU = 0.000221014 secs
  read_data CPU = 0.00391984 secs
################################################################################

timestep        1
fix             pysimm_md all nve/limit 0.1
run             2000
PPPM initialization ...
  using 12-bit tables for long-range coulomb (../kspace.cpp:332)
  G vector (1/distance) = 0.0943552
  grid = 10 10 10
  stencil order = 5
  estimated absolute RMS force accuracy = 0.0327768
  estimated relative force accuracy = 9.87063e-05
  using double precision KISS FFT
  3d grid and FFT values/proc = 3375 1000
Neighbor list info ...
  update every 1 steps, delay 10 steps, check yes
  max neighbors/atom: 2000, page size: 100000
  master list distance cutoff = 14
  ghost atom cutoff = 14
  binsize = 7, bins = 17 17 17
  1 neighbor lists, perpetual/occasional/extra = 1 0 0
  (1) pair lj/cut/coul/long, perpetual
      attributes: half, newton on
      pair build: half/bin/newton
      stencil: half/bin/3d/newton
      bin: standard
Per MPI rank memory allocation (min/avg/max) = 16.71 | 16.71 | 16.71 Mbytes
Step Temp E_pair E_mol TotEng Press 
       0    622.16079    27638.729 2.644419e+22 2.644419e+22    4560.4959 
    2000    1161.3197    87.168671    125.57598    365.05829   -1.0950182 
Loop time of 0.647235 on 1 procs for 2000 steps with 45 atoms

Performance: 266.982 ns/day, 0.090 hours/ns, 3090.068 timesteps/s
100.1% CPU use with 1 MPI tasks x no OpenMP threads

MPI task timing breakdown:
Section |  min time  |  avg time  |  max time  |%varavg| %total
---------------------------------------------------------------
Pair    | 0.061244   | 0.061244   | 0.061244   |   0.0 |  9.46
Bond    | 0.034844   | 0.034844   | 0.034844   |   0.0 |  5.38
Kspace  | 0.53865    | 0.53865    | 0.53865    |   0.0 | 83.22
Neigh   | 0.0054984  | 0.0054984  | 0.0054984  |   0.0 |  0.85
Comm    | 0.0019414  | 0.0019414  | 0.0019414  |   0.0 |  0.30
Output  | 3.6001e-05 | 3.6001e-05 | 3.6001e-05 |   0.0 |  0.01
Modify  | 0.0023229  | 0.0023229  | 0.0023229  |   0.0 |  0.36
Other   |            | 0.002701   |            |       |  0.42

Nlocal:    45 ave 45 max 45 min
Histogram: 1 0 0 0 0 0 0 0 0 0
Nghost:    77 ave 77 max 77 min
Histogram: 1 0 0 0 0 0 0 0 0 0
Neighs:    990 ave 990 max 990 min
Histogram: 1 0 0 0 0 0 0 0 0 0

Total # of neighbors = 990
Ave neighs/atom = 22
Ave special neighs/atom = 9.6
Neighbor list builds = 117
Dangerous builds = 0
unfix pysimm_md
min_style cg
minimize 0.001 0.001 10000 100000
WARNING: Using 'neigh_modify every 1 delay 0 check yes' setting during minimization (../min.cpp:190)
PPPM initialization ...
  using 12-bit tables for long-range coulomb (../kspace.cpp:332)
  G vector (1/distance) = 0.0943552
  grid = 10 10 10
  stencil order = 5
  estimated absolute RMS force accuracy = 0.0327768
  estimated relative force accuracy = 9.87063e-05
  using double precision KISS FFT
  3d grid and FFT values/proc = 3375 1000
Per MPI rank memory allocation (min/avg/max) = 17.83 | 17.83 | 17.83 Mbytes
Step Temp E_pair E_mol TotEng Press 
    2000    1161.3197    87.168671    125.57598    365.05829   -1.0950182 
    2044    1161.3197    80.435569    25.060028    257.80923    4.6630408 
Loop time of 0.0299711 on 1 procs for 44 steps with 45 atoms

100.1% CPU use with 1 MPI tasks x no OpenMP threads

Minimization stats:
  Stopping criterion = energy tolerance
  Energy initial, next-to-last, final = 
         212.744652216      105.594830289      105.495597477
  Force two-norm initial, final = 390.348 12.4092
  Force max component initial, final = 130.083 4.31408
  Final line search alpha, max atom move = 0.00339014 0.0146253
  Iterations, force evaluations = 44 88

MPI task timing breakdown:
Section |  min time  |  avg time  |  max time  |%varavg| %total
---------------------------------------------------------------
Pair    | 0.0043619  | 0.0043619  | 0.0043619  |   0.0 | 14.55
Bond    | 0.0017636  | 0.0017636  | 0.0017636  |   0.0 |  5.88
Kspace  | 0.023417   | 0.023417   | 0.023417   |   0.0 | 78.13
Neigh   | 5.0068e-05 | 5.0068e-05 | 5.0068e-05 |   0.0 |  0.17
Comm    | 8.1539e-05 | 8.1539e-05 | 8.1539e-05 |   0.0 |  0.27
Output  | 0          | 0          | 0          |   0.0 |  0.00
Modify  | 0          | 0          | 0          |   0.0 |  0.00
Other   |            | 0.0002971  |            |       |  0.99

Nlocal:    45 ave 45 max 45 min
Histogram: 1 0 0 0 0 0 0 0 0 0
Nghost:    77 ave 77 max 77 min
Histogram: 1 0 0 0 0 0 0 0 0 0
Neighs:    990 ave 990 max 990 min
Histogram: 1 0 0 0 0 0 0 0 0 0

Total # of neighbors = 990
Ave neighs/atom = 22
Ave special neighs/atom = 9.6
Neighbor list builds = 1
Dangerous builds = 0
write_dump all custom pysimm.dump.tmp id q x y z vx vy vz
quit


################################################################################
##################################    Init    ##################################
################################################################################
units           real
atom_style      full
pair_style      lj/cut/coul/long 12.0  12.0
kspace_style    pppm 1e-4
bond_style      harmonic
angle_style     harmonic
dihedral_style  fourier
improper_style  cvff
special_bonds   amber
pair_modify     mix arithmetic
read_data       temp.lmps
  orthogonal box = (-59.2383 -59.2383 -59.2383) to (59.2383 59.2383 59.2383)
  1 by 1 by 1 MPI processor grid
  reading atoms ...
  60 atoms
  reading velocities ...
  60 velocities
  scanning bonds ...
  4 = max bonds/atom
  scanning angles ...
  6 = max angles/atom
  scanning dihedrals ...
  20 = max dihedrals/atom
  scanning impropers ...
  1 = max impropers/atom
  reading bonds ...
  59 bonds
  reading angles ...
  106 angles
  reading dihedrals ...
  132 dihedrals
  reading impropers ...
  4 impropers
  4 = max # of 1-2 neighbors
  11 = max # of 1-3 neighbors
  22 = max # of 1-4 neighbors
  26 = max # of special neighbors
  special bonds CPU = 0.000191927 secs
  read_data CPU = 0.00416708 secs
################################################################################

timestep        1
fix             pysimm_md all nve/limit 0.1
run             2000
PPPM initialization ...
  using 12-bit tables for long-range coulomb (../kspace.cpp:332)
  G vector (1/distance) = 0.107427
  grid = 12 12 12
  stencil order = 5
  estimated absolute RMS force accuracy = 0.0258869
  estimated relative force accuracy = 7.79577e-05
  using double precision KISS FFT
  3d grid and FFT values/proc = 4913 1728
Neighbor list info ...
  update every 1 steps, delay 10 steps, check yes
  max neighbors/atom: 2000, page size: 100000
  master list distance cutoff = 14
  ghost atom cutoff = 14
  binsize = 7, bins = 17 17 17
  1 neighbor lists, perpetual/occasional/extra = 1 0 0
  (1) pair lj/cut/coul/long, perpetual
      attributes: half, newton on
      pair build: half/bin/newton
      stencil: half/bin/3d/newton
      bin: standard
Per MPI rank memory allocation (min/avg/max) = 16.89 | 16.89 | 16.89 Mbytes
Step Temp E_pair E_mol TotEng Press 
       0    871.94898    9686.0973 1.1036861e+26 1.1036861e+26 -2.3383741e+36 
    2000    1036.3724    115.99378     172.9969    471.25522   0.25454373 
Loop time of 0.998263 on 1 procs for 2000 steps with 60 atoms

Performance: 173.101 ns/day, 0.139 hours/ns, 2003.480 timesteps/s
100.1% CPU use with 1 MPI tasks x no OpenMP threads

MPI task timing breakdown:
Section |  min time  |  avg time  |  max time  |%varavg| %total
---------------------------------------------------------------
Pair    | 0.10076    | 0.10076    | 0.10076    |   0.0 | 10.09
Bond    | 0.047785   | 0.047785   | 0.047785   |   0.0 |  4.79
Kspace  | 0.8324     | 0.8324     | 0.8324     |   0.0 | 83.38
Neigh   | 0.0084469  | 0.0084469  | 0.0084469  |   0.0 |  0.85
Comm    | 0.0030034  | 0.0030034  | 0.0030034  |   0.0 |  0.30
Output  | 3.9101e-05 | 3.9101e-05 | 3.9101e-05 |   0.0 |  0.00
Modify  | 0.0027645  | 0.0027645  | 0.0027645  |   0.0 |  0.28
Other   |            | 0.003064   |            |       |  0.31

Nlocal:    60 ave 60 max 60 min
Histogram: 1 0 0 0 0 0 0 0 0 0
Nghost:    178 ave 178 max 178 min
Histogram: 1 0 0 0 0 0 0 0 0 0
Neighs:    1770 ave 1770 max 1770 min
Histogram: 1 0 0 0 0 0 0 0 0 0

Total # of neighbors = 1770
Ave neighs/atom = 29.5
Ave special neighs/atom = 9.9
Neighbor list builds = 110
Dangerous builds = 0
unfix pysimm_md
min_style cg
minimize 0.001 0.001 10000 100000
WARNING: Using 'neigh_modify every 1 delay 0 check yes' setting during minimization (../min.cpp:190)
PPPM initialization ...
  using 12-bit tables for long-range coulomb (../kspace.cpp:332)
  G vector (1/distance) = 0.107427
  grid = 12 12 12
  stencil order = 5
  estimated absolute RMS force accuracy = 0.0258869
  estimated relative force accuracy = 7.79577e-05
  using double precision KISS FFT
  3d grid and FFT values/proc = 4913 1728
Per MPI rank memory allocation (min/avg/max) = 18.02 | 18.02 | 18.02 Mbytes
Step Temp E_pair E_mol TotEng Press 
    2000    1036.3724    115.99378     172.9969    471.25522   0.25454373 
    2040    1036.3724    111.79537    29.490518    323.55042    4.3724619 
Loop time of 0.0453799 on 1 procs for 40 steps with 60 atoms

99.1% CPU use with 1 MPI tasks x no OpenMP threads

Minimization stats:
  Stopping criterion = energy tolerance
  Energy initial, next-to-last, final = 
         288.990684701       141.41442796      141.285889742
  Force two-norm initial, final = 407.625 12.4372
  Force max component initial, final = 96.6375 3.03377
  Final line search alpha, max atom move = 0.00890497 0.0270156
  Iterations, force evaluations = 40 80

MPI task timing breakdown:
Section |  min time  |  avg time  |  max time  |%varavg| %total
---------------------------------------------------------------
Pair    | 0.0068128  | 0.0068128  | 0.0068128  |   0.0 | 15.01
Bond    | 0.0021536  | 0.0021536  | 0.0021536  |   0.0 |  4.75
Kspace  | 0.035857   | 0.035857   | 0.035857   |   0.0 | 79.02
Neigh   | 9.3937e-05 | 9.3937e-05 | 9.3937e-05 |   0.0 |  0.21
Comm    | 0.00012827 | 0.00012827 | 0.00012827 |   0.0 |  0.28
Output  | 0          | 0          | 0          |   0.0 |  0.00
Modify  | 0          | 0          | 0          |   0.0 |  0.00
Other   |            | 0.000334   |            |       |  0.74

Nlocal:    60 ave 60 max 60 min
Histogram: 1 0 0 0 0 0 0 0 0 0
Nghost:    178 ave 178 max 178 min
Histogram: 1 0 0 0 0 0 0 0 0 0
Neighs:    1770 ave 1770 max 1770 min
Histogram: 1 0 0 0 0 0 0 0 0 0

Total # of neighbors = 1770
Ave neighs/atom = 29.5
Ave special neighs/atom = 9.9
Neighbor list builds = 1
Dangerous builds = 0
write_dump all custom pysimm.dump.tmp id q x y z vx vy vz
quit


################################################################################
##################################    Init    ##################################
################################################################################
units           real
atom_style      full
pair_style      lj/cut/coul/long 12.0  12.0
kspace_style    pppm 1e-4
bond_style      harmonic
angle_style     harmonic
dihedral_style  fourier
improper_style  cvff
special_bonds   amber
pair_modify     mix arithmetic
read_data       temp.lmps
  orthogonal box = (-59.2383 -59.2383 -59.2383) to (59.2383 59.2383 59.2383)
  1 by 1 by 1 MPI processor grid
  reading atoms ...
  30 atoms
  reading velocities ...
  30 velocities
  scanning bonds ...
  4 = max bonds/atom
  scanning angles ...
  6 = max angles/atom
  scanning dihedrals ...
  17 = max dihedrals/atom
  scanning impropers ...
  1 = max impropers/atom
  reading bonds ...
  29 bonds
  reading angles ...
  50 angles
  reading dihedrals ...
  56 dihedrals
  reading impropers ...
  2 impropers
  4 = max # of 1-2 neighbors
  10 = max # of 1-3 neighbors
  17 = max # of 1-4 neighbors
  21 = max # of special neighbors
  special bonds CPU = 0.000221014 secs
  read_data CPU = 0.00342107 secs
################################################################################

timestep        1
fix             pysimm_md all nve/limit 0.1
run             2000
PPPM initialization ...
  using 12-bit tables for long-range coulomb (../kspace.cpp:332)
  G vector (1/distance) = 0.087209
  grid = 9 9 9
  stencil order = 5
  estimated absolute RMS force accuracy = 0.0322598
  estimated relative force accuracy = 9.71495e-05
  using double precision KISS FFT
  3d grid and FFT values/proc = 2744 729
Neighbor list info ...
  update every 1 steps, delay 10 steps, check yes
  max neighbors/atom: 2000, page size: 100000
  master list distance cutoff = 14
  ghost atom cutoff = 14
  binsize = 7, bins = 17 17 17
  1 neighbor lists, perpetual/occasional/extra = 1 0 0
  (1) pair lj/cut/coul/long, perpetual
      attributes: half, newton on
      pair build: half/bin/newton
      stencil: half/bin/3d/newton
      bin: standard
Per MPI rank memory allocation (min/avg/max) = 15.47 | 15.47 | 15.47 Mbytes
Step Temp E_pair E_mol TotEng Press 
       0    23.925432    10280.344 4.0120059e+23 4.0120059e+23 -2.1408454e+32 
    2000    1060.5137    68.985139    60.955314    221.61496    5.1913031 
Loop time of 0.450467 on 1 procs for 2000 steps with 30 atoms

Performance: 383.602 ns/day, 0.063 hours/ns, 4439.836 timesteps/s
100.1% CPU use with 1 MPI tasks x no OpenMP threads

MPI task timing breakdown:
Section |  min time  |  avg time  |  max time  |%varavg| %total
---------------------------------------------------------------
Pair    | 0.026683   | 0.026683   | 0.026683   |   0.0 |  5.92
Bond    | 0.021842   | 0.021842   | 0.021842   |   0.0 |  4.85
Kspace  | 0.39384    | 0.39384    | 0.39384    |   0.0 | 87.43
Neigh   | 0.0028679  | 0.0028679  | 0.0028679  |   0.0 |  0.64
Comm    | 0.0011353  | 0.0011353  | 0.0011353  |   0.0 |  0.25
Output  | 3.8862e-05 | 3.8862e-05 | 3.8862e-05 |   0.0 |  0.01
Modify  | 0.0017512  | 0.0017512  | 0.0017512  |   0.0 |  0.39
Other   |            | 0.002305   |            |       |  0.51

Nlocal:    30 ave 30 max 30 min
Histogram: 1 0 0 0 0 0 0 0 0 0
Nghost:    25 ave 25 max 25 min
Histogram: 1 0 0 0 0 0 0 0 0 0
Neighs:    435 ave 435 max 435 min
Histogram: 1 0 0 0 0 0 0 0 0 0

Total # of neighbors = 435
Ave neighs/atom = 14.5
Ave special neighs/atom = 9
Neighbor list builds = 103
Dangerous builds = 0
unfix pysimm_md
min_style cg
minimize 0.001 0.001 10000 100000
WARNING: Using 'neigh_modify every 1 delay 0 check yes' setting during minimization (../min.cpp:190)
PPPM initialization ...
  using 12-bit tables for long-range coulomb (../kspace.cpp:332)
  G vector (1/distance) = 0.087209
  grid = 9 9 9
  stencil order = 5
  estimated absolute RMS force accuracy = 0.0322598
  estimated relative force accuracy = 9.71495e-05
  using double precision KISS FFT
  3d grid and FFT values/proc = 2744 729
Per MPI rank memory allocation (min/avg/max) = 16.59 | 16.59 | 16.59 Mbytes
Step Temp E_pair E_mol TotEng Press 
    2000    1060.5137    68.985139    60.955314    221.61496    5.1913031 
    2028    1060.5137    56.037605    10.123759    157.83587    2.2556968 
Loop time of 0.014116 on 1 procs for 28 steps with 30 atoms

99.2% CPU use with 1 MPI tasks x no OpenMP threads

Minimization stats:
  Stopping criterion = energy tolerance
  Energy initial, next-to-last, final = 
         129.940452556      66.2176571679      66.1613641896
  Force two-norm initial, final = 275.31 9.10664
  Force max component initial, final = 81.4369 4.32929
  Final line search alpha, max atom move = 0.0227084 0.0983112
  Iterations, force evaluations = 28 56

MPI task timing breakdown:
Section |  min time  |  avg time  |  max time  |%varavg| %total
---------------------------------------------------------------
Pair    | 0.001286   | 0.001286   | 0.001286   |   0.0 |  9.11
Bond    | 0.00080299 | 0.00080299 | 0.00080299 |   0.0 |  5.69
Kspace  | 0.011824   | 0.011824   | 0.011824   |   0.0 | 83.76
Neigh   | 0          | 0          | 0          |   0.0 |  0.00
Comm    | 3.767e-05  | 3.767e-05  | 3.767e-05  |   0.0 |  0.27
Output  | 0          | 0          | 0          |   0.0 |  0.00
Modify  | 0          | 0          | 0          |   0.0 |  0.00
Other   |            | 0.0001652  |            |       |  1.17

Nlocal:    30 ave 30 max 30 min
Histogram: 1 0 0 0 0 0 0 0 0 0
Nghost:    24 ave 24 max 24 min
Histogram: 1 0 0 0 0 0 0 0 0 0
Neighs:    435 ave 435 max 435 min
Histogram: 1 0 0 0 0 0 0 0 0 0

Total # of neighbors = 435
Ave neighs/atom = 14.5
Ave special neighs/atom = 9
Neighbor list builds = 0
Dangerous builds = 0
write_dump all custom pysimm.dump.tmp id q x y z vx vy vz
quit


################################################################################
##################################    Init    ##################################
################################################################################
units           real
atom_style      full
pair_style      lj/cut/coul/long 12.0  12.0
kspace_style    pppm 1e-4
bond_style      harmonic
angle_style     harmonic
dihedral_style  fourier
improper_style  cvff
special_bonds   amber
pair_modify     mix arithmetic
read_data       temp.lmps
  orthogonal box = (-59.2383 -59.2383 -59.2383) to (59.2383 59.2383 59.2383)
  1 by 1 by 1 MPI processor grid
  reading atoms ...
  45 atoms
  reading velocities ...
  45 velocities
  scanning bonds ...
  4 = max bonds/atom
  scanning angles ...
  6 = max angles/atom
  scanning dihedrals ...
  20 = max dihedrals/atom
  scanning impropers ...
  1 = max impropers/atom
  reading bonds ...
  44 bonds
  reading angles ...
  78 angles
  reading dihedrals ...
  94 dihedrals
  reading impropers ...
  3 impropers
  4 = max # of 1-2 neighbors
  11 = max # of 1-3 neighbors
  21 = max # of 1-4 neighbors
  25 = max # of special neighbors
  special bonds CPU = 0.000164986 secs
  read_data CPU = 0.00387406 secs
################################################################################

timestep        1
fix             pysimm_md all nve/limit 0.1
run             2000
PPPM initialization ...
  using 12-bit tables for long-range coulomb (../kspace.cpp:332)
  G vector (1/distance) = 0.0943552
  grid = 10 10 10
  stencil order = 5
  estimated absolute RMS force accuracy = 0.0327768
  estimated relative force accuracy = 9.87063e-05
  using double precision KISS FFT
  3d grid and FFT values/proc = 3375 1000
Neighbor list info ...
  update every 1 steps, delay 10 steps, check yes
  max neighbors/atom: 2000, page size: 100000
  master list distance cutoff = 14
  ghost atom cutoff = 14
  binsize = 7, bins = 17 17 17
  1 neighbor lists, perpetual/occasional/extra = 1 0 0
  (1) pair lj/cut/coul/long, perpetual
      attributes: half, newton on
      pair build: half/bin/newton
      stencil: half/bin/3d/newton
      bin: standard
Per MPI rank memory allocation (min/avg/max) = 16.71 | 16.71 | 16.71 Mbytes
Step Temp E_pair E_mol TotEng Press 
       0     706.8597    16012.714 2.9907695e+24 2.9907695e+24 -4.2816908e+32 
    2000    1018.0205    94.049447    122.11357    349.68215    4.0088866 
Loop time of 0.661041 on 1 procs for 2000 steps with 45 atoms

Performance: 261.406 ns/day, 0.092 hours/ns, 3025.531 timesteps/s
100.0% CPU use with 1 MPI tasks x no OpenMP threads

MPI task timing breakdown:
Section |  min time  |  avg time  |  max time  |%varavg| %total
---------------------------------------------------------------
Pair    | 0.05547    | 0.05547    | 0.05547    |   0.0 |  8.39
Bond    | 0.034428   | 0.034428   | 0.034428   |   0.0 |  5.21
Kspace  | 0.56005    | 0.56005    | 0.56005    |   0.0 | 84.72
Neigh   | 0.0047047  | 0.0047047  | 0.0047047  |   0.0 |  0.71
Comm    | 0.0012908  | 0.0012908  | 0.0012908  |   0.0 |  0.20
Output  | 1.7881e-05 | 1.7881e-05 | 1.7881e-05 |   0.0 |  0.00
Modify  | 0.0022902  | 0.0022902  | 0.0022902  |   0.0 |  0.35
Other   |            | 0.00279    |            |       |  0.42

Nlocal:    45 ave 45 max 45 min
Histogram: 1 0 0 0 0 0 0 0 0 0
Nghost:    45 ave 45 max 45 min
Histogram: 1 0 0 0 0 0 0 0 0 0
Neighs:    990 ave 990 max 990 min
Histogram: 1 0 0 0 0 0 0 0 0 0

Total # of neighbors = 990
Ave neighs/atom = 22
Ave special neighs/atom = 9.6
Neighbor list builds = 105
Dangerous builds = 0
unfix pysimm_md
min_style cg
minimize 0.001 0.001 10000 100000
WARNING: Using 'neigh_modify every 1 delay 0 check yes' setting during minimization (../min.cpp:190)
PPPM initialization ...
  using 12-bit tables for long-range coulomb (../kspace.cpp:332)
  G vector (1/distance) = 0.0943552
  grid = 10 10 10
  stencil order = 5
  estimated absolute RMS force accuracy = 0.0327768
  estimated relative force accuracy = 9.87063e-05
  using double precision KISS FFT
  3d grid and FFT values/proc = 3375 1000
Per MPI rank memory allocation (min/avg/max) = 17.83 | 17.83 | 17.83 Mbytes
Step Temp E_pair E_mol TotEng Press 
    2000    1018.0205    94.049447    122.11357    349.68215    4.0088866 
    2050    1018.0205    82.669574    21.108638    237.29734      3.61318 
Loop time of 0.0351341 on 1 procs for 50 steps with 45 atoms

99.6% CPU use with 1 MPI tasks x no OpenMP threads

Minimization stats:
  Stopping criterion = energy tolerance
  Energy initial, next-to-last, final = 
         216.163020694      103.864849474      103.778212582
  Force two-norm initial, final = 393.12 13.4485
  Force max component initial, final = 131.711 4.2784
  Final line search alpha, max atom move = 0.00535012 0.0228899
  Iterations, force evaluations = 50 100

MPI task timing breakdown:
Section |  min time  |  avg time  |  max time  |%varavg| %total
---------------------------------------------------------------
Pair    | 0.004822   | 0.004822   | 0.004822   |   0.0 | 13.72
Bond    | 0.0020266  | 0.0020266  | 0.0020266  |   0.0 |  5.77
Kspace  | 0.027861   | 0.027861   | 0.027861   |   0.0 | 79.30
Neigh   | 4.6968e-05 | 4.6968e-05 | 4.6968e-05 |   0.0 |  0.13
Comm    | 9.1791e-05 | 9.1791e-05 | 9.1791e-05 |   0.0 |  0.26
Output  | 0          | 0          | 0          |   0.0 |  0.00
Modify  | 0          | 0          | 0          |   0.0 |  0.00
Other   |            | 0.0002856  |            |       |  0.81

Nlocal:    45 ave 45 max 45 min
Histogram: 1 0 0 0 0 0 0 0 0 0
Nghost:    45 ave 45 max 45 min
Histogram: 1 0 0 0 0 0 0 0 0 0
Neighs:    990 ave 990 max 990 min
Histogram: 1 0 0 0 0 0 0 0 0 0

Total # of neighbors = 990
Ave neighs/atom = 22
Ave special neighs/atom = 9.6
Neighbor list builds = 1
Dangerous builds = 0
write_dump all custom pysimm.dump.tmp id q x y z vx vy vz
quit


################################################################################
##################################    Init    ##################################
################################################################################
units           real
atom_style      full
pair_style      lj/cut/coul/long 12.0  12.0
kspace_style    pppm 1e-4
bond_style      harmonic
angle_style     harmonic
dihedral_style  fourier
improper_style  cvff
special_bonds   amber
pair_modify     mix arithmetic
read_data       temp.lmps
  orthogonal box = (-59.2383 -59.2383 -59.2383) to (59.2383 59.2383 59.2383)
  1 by 1 by 1 MPI processor grid
  reading atoms ...
  60 atoms
  reading velocities ...
  60 velocities
  scanning bonds ...
  4 = max bonds/atom
  scanning angles ...
  6 = max angles/atom
  scanning dihedrals ...
  20 = max dihedrals/atom
  scanning impropers ...
  1 = max impropers/atom
  reading bonds ...
  59 bonds
  reading angles ...
  106 angles
  reading dihedrals ...
  132 dihedrals
  reading impropers ...
  4 impropers
  4 = max # of 1-2 neighbors
  11 = max # of 1-3 neighbors
  22 = max # of 1-4 neighbors
  26 = max # of special neighbors
  special bonds CPU = 0.000214815 secs
  read_data CPU = 0.0038271 secs
################################################################################

timestep        1
fix             pysimm_md all nve/limit 0.1
run             2000
PPPM initialization ...
  using 12-bit tables for long-range coulomb (../kspace.cpp:332)
  G vector (1/distance) = 0.107427
  grid = 12 12 12
  stencil order = 5
  estimated absolute RMS force accuracy = 0.0258869
  estimated relative force accuracy = 7.79577e-05
  using double precision KISS FFT
  3d grid and FFT values/proc = 4913 1728
Neighbor list info ...
  update every 1 steps, delay 10 steps, check yes
  max neighbors/atom: 2000, page size: 100000
  master list distance cutoff = 14
  ghost atom cutoff = 14
  binsize = 7, bins = 17 17 17
  1 neighbor lists, perpetual/occasional/extra = 1 0 0
  (1) pair lj/cut/coul/long, perpetual
      attributes: half, newton on
      pair build: half/bin/newton
      stencil: half/bin/3d/newton
      bin: standard
Per MPI rank memory allocation (min/avg/max) = 16.89 | 16.89 | 16.89 Mbytes
Step Temp E_pair E_mol TotEng Press 
       0    765.08191    2072.8705 1.1182367e+23 1.1182367e+23 4.4600946e+30 
    2000    1002.0417    119.92889     179.7713    475.92704    1.0720751 
Loop time of 1.01767 on 1 procs for 2000 steps with 60 atoms

Performance: 169.800 ns/day, 0.141 hours/ns, 1965.277 timesteps/s
99.9% CPU use with 1 MPI tasks x no OpenMP threads

MPI task timing breakdown:
Section |  min time  |  avg time  |  max time  |%varavg| %total
---------------------------------------------------------------
Pair    | 0.10117    | 0.10117    | 0.10117    |   0.0 |  9.94
Bond    | 0.047844   | 0.047844   | 0.047844   |   0.0 |  4.70
Kspace  | 0.85363    | 0.85363    | 0.85363    |   0.0 | 83.88
Neigh   | 0.0069432  | 0.0069432  | 0.0069432  |   0.0 |  0.68
Comm    | 0.0019665  | 0.0019665  | 0.0019665  |   0.0 |  0.19
Output  | 3.6955e-05 | 3.6955e-05 | 3.6955e-05 |   0.0 |  0.00
Modify  | 0.0028701  | 0.0028701  | 0.0028701  |   0.0 |  0.28
Other   |            | 0.003209   |            |       |  0.32

Nlocal:    60 ave 60 max 60 min
Histogram: 1 0 0 0 0 0 0 0 0 0
Nghost:    60 ave 60 max 60 min
Histogram: 1 0 0 0 0 0 0 0 0 0
Neighs:    1766 ave 1766 max 1766 min
Histogram: 1 0 0 0 0 0 0 0 0 0

Total # of neighbors = 1766
Ave neighs/atom = 29.4333
Ave special neighs/atom = 9.9
Neighbor list builds = 102
Dangerous builds = 0
unfix pysimm_md
min_style cg
minimize 0.001 0.001 10000 100000
WARNING: Using 'neigh_modify every 1 delay 0 check yes' setting during minimization (../min.cpp:190)
PPPM initialization ...
  using 12-bit tables for long-range coulomb (../kspace.cpp:332)
  G vector (1/distance) = 0.107427
  grid = 12 12 12
  stencil order = 5
  estimated absolute RMS force accuracy = 0.0258869
  estimated relative force accuracy = 7.79577e-05
  using double precision KISS FFT
  3d grid and FFT values/proc = 4913 1728
Per MPI rank memory allocation (min/avg/max) = 18.02 | 18.02 | 18.02 Mbytes
Step Temp E_pair E_mol TotEng Press 
    2000    1002.0417    119.92889     179.7713    475.92704    1.0720751 
    2051    1002.0417    112.36903    30.711874    319.30776    4.8328425 
Loop time of 0.0596631 on 1 procs for 51 steps with 60 atoms

100.5% CPU use with 1 MPI tasks x no OpenMP threads

Minimization stats:
  Stopping criterion = energy tolerance
  Energy initial, next-to-last, final = 
         299.700183872      143.223247136      143.080901561
  Force two-norm initial, final = 444.829 16.3603
  Force max component initial, final = 112.376 3.9016
  Final line search alpha, max atom move = 0.00407911 0.015915
  Iterations, force evaluations = 51 102

MPI task timing breakdown:
Section |  min time  |  avg time  |  max time  |%varavg| %total
---------------------------------------------------------------
Pair    | 0.0092702  | 0.0092702  | 0.0092702  |   0.0 | 15.54
Bond    | 0.0028348  | 0.0028348  | 0.0028348  |   0.0 |  4.75
Kspace  | 0.04698    | 0.04698    | 0.04698    |   0.0 | 78.74
Neigh   | 7.5102e-05 | 7.5102e-05 | 7.5102e-05 |   0.0 |  0.13
Comm    | 0.00010633 | 0.00010633 | 0.00010633 |   0.0 |  0.18
Output  | 0          | 0          | 0          |   0.0 |  0.00
Modify  | 0          | 0          | 0          |   0.0 |  0.00
Other   |            | 0.0003967  |            |       |  0.66

Nlocal:    60 ave 60 max 60 min
Histogram: 1 0 0 0 0 0 0 0 0 0
Nghost:    60 ave 60 max 60 min
Histogram: 1 0 0 0 0 0 0 0 0 0
Neighs:    1764 ave 1764 max 1764 min
Histogram: 1 0 0 0 0 0 0 0 0 0

Total # of neighbors = 1764
Ave neighs/atom = 29.4
Ave special neighs/atom = 9.9
Neighbor list builds = 1
Dangerous builds = 0
write_dump all custom pysimm.dump.tmp id q x y z vx vy vz
quit


################################################################################
##################################    Init    ##################################
################################################################################
units           real
atom_style      full
pair_style      lj/cut/coul/long 12.0  12.0
kspace_style    pppm 1e-4
bond_style      harmonic
angle_style     harmonic
dihedral_style  fourier
improper_style  cvff
special_bonds   amber
pair_modify     mix arithmetic
read_data       temp.lmps
  orthogonal box = (-59.2383 -59.2383 -59.2383) to (59.2383 59.2383 59.2383)
  1 by 1 by 1 MPI processor grid
  reading atoms ...
  75 atoms
  reading velocities ...
  75 velocities
  scanning bonds ...
  4 = max bonds/atom
  scanning angles ...
  6 = max angles/atom
  scanning dihedrals ...
  20 = max dihedrals/atom
  scanning impropers ...
  1 = max impropers/atom
  reading bonds ...
  74 bonds
  reading angles ...
  134 angles
  reading dihedrals ...
  170 dihedrals
  reading impropers ...
  5 impropers
  4 = max # of 1-2 neighbors
  11 = max # of 1-3 neighbors
  22 = max # of 1-4 neighbors
  26 = max # of special neighbors
  special bonds CPU = 0.000267029 secs
  read_data CPU = 0.00410986 secs
################################################################################

timestep        1
fix             pysimm_md all nve/limit 0.1
run             2000
PPPM initialization ...
  using 12-bit tables for long-range coulomb (../kspace.cpp:332)
  G vector (1/distance) = 0.107427
  grid = 12 12 12
  stencil order = 5
  estimated absolute RMS force accuracy = 0.0289424
  estimated relative force accuracy = 8.71593e-05
  using double precision KISS FFT
  3d grid and FFT values/proc = 4913 1728
Neighbor list info ...
  update every 1 steps, delay 10 steps, check yes
  max neighbors/atom: 2000, page size: 100000
  master list distance cutoff = 14
  ghost atom cutoff = 14
  binsize = 7, bins = 17 17 17
  1 neighbor lists, perpetual/occasional/extra = 1 0 0
  (1) pair lj/cut/coul/long, perpetual
      attributes: half, newton on
      pair build: half/bin/newton
      stencil: half/bin/3d/newton
      bin: standard
Per MPI rank memory allocation (min/avg/max) = 16.89 | 16.89 | 16.89 Mbytes
Step Temp E_pair E_mol TotEng Press 
       0    803.61338      6402028 1.1832086e+24 1.1832086e+24 2.8544605e+32 
    2000    1069.2075    165.45288    205.14145    606.44006    14.654394 
Loop time of 1.05208 on 1 procs for 2000 steps with 75 atoms

Performance: 164.246 ns/day, 0.146 hours/ns, 1901.000 timesteps/s
99.9% CPU use with 1 MPI tasks x no OpenMP threads

MPI task timing breakdown:
Section |  min time  |  avg time  |  max time  |%varavg| %total
---------------------------------------------------------------
Pair    | 0.1491     | 0.1491     | 0.1491     |   0.0 | 14.17
Bond    | 0.060197   | 0.060197   | 0.060197   |   0.0 |  5.72
Kspace  | 0.82389    | 0.82389    | 0.82389    |   0.0 | 78.31
Neigh   | 0.010566   | 0.010566   | 0.010566   |   0.0 |  1.00
Comm    | 0.0021281  | 0.0021281  | 0.0021281  |   0.0 |  0.20
Output  | 2.2888e-05 | 2.2888e-05 | 2.2888e-05 |   0.0 |  0.00
Modify  | 0.0032444  | 0.0032444  | 0.0032444  |   0.0 |  0.31
Other   |            | 0.002934   |            |       |  0.28

Nlocal:    75 ave 75 max 75 min
Histogram: 1 0 0 0 0 0 0 0 0 0
Nghost:    85 ave 85 max 85 min
Histogram: 1 0 0 0 0 0 0 0 0 0
Neighs:    2730 ave 2730 max 2730 min
Histogram: 1 0 0 0 0 0 0 0 0 0

Total # of neighbors = 2730
Ave neighs/atom = 36.4
Ave special neighs/atom = 10.08
Neighbor list builds = 111
Dangerous builds = 0
unfix pysimm_md
min_style cg
minimize 0.001 0.001 10000 100000
WARNING: Using 'neigh_modify every 1 delay 0 check yes' setting during minimization (../min.cpp:190)
PPPM initialization ...
  using 12-bit tables for long-range coulomb (../kspace.cpp:332)
  G vector (1/distance) = 0.107427
  grid = 12 12 12
  stencil order = 5
  estimated absolute RMS force accuracy = 0.0289424
  estimated relative force accuracy = 8.71593e-05
  using double precision KISS FFT
  3d grid and FFT values/proc = 4913 1728
Per MPI rank memory allocation (min/avg/max) = 18.02 | 18.02 | 18.02 Mbytes
Step Temp E_pair E_mol TotEng Press 
    2000    1069.2075    165.45288    205.14145    606.44006    14.654394 
    2050    1069.2075    139.05428    51.438646    426.33865    6.2525453 
Loop time of 0.0557981 on 1 procs for 50 steps with 75 atoms

100.3% CPU use with 1 MPI tasks x no OpenMP threads

Minimization stats:
  Stopping criterion = energy tolerance
  Energy initial, next-to-last, final = 
         370.594324561      190.679551846      190.492921097
  Force two-norm initial, final = 515.772 18.6492
  Force max component initial, final = 114.686 5.17383
  Final line search alpha, max atom move = 0.00448188 0.0231885
  Iterations, force evaluations = 50 100

MPI task timing breakdown:
Section |  min time  |  avg time  |  max time  |%varavg| %total
---------------------------------------------------------------
Pair    | 0.011622   | 0.011622   | 0.011622   |   0.0 | 20.83
Bond    | 0.0032091  | 0.0032091  | 0.0032091  |   0.0 |  5.75
Kspace  | 0.040413   | 0.040413   | 0.040413   |   0.0 | 72.43
Neigh   | 9.2983e-05 | 9.2983e-05 | 9.2983e-05 |   0.0 |  0.17
Comm    | 9.0837e-05 | 9.0837e-05 | 9.0837e-05 |   0.0 |  0.16
Output  | 0          | 0          | 0          |   0.0 |  0.00
Modify  | 0          | 0          | 0          |   0.0 |  0.00
Other   |            | 0.00037    |            |       |  0.66

Nlocal:    75 ave 75 max 75 min
Histogram: 1 0 0 0 0 0 0 0 0 0
Nghost:    85 ave 85 max 85 min
Histogram: 1 0 0 0 0 0 0 0 0 0
Neighs:    2731 ave 2731 max 2731 min
Histogram: 1 0 0 0 0 0 0 0 0 0

Total # of neighbors = 2731
Ave neighs/atom = 36.4133
Ave special neighs/atom = 10.08
Neighbor list builds = 1
Dangerous builds = 0
write_dump all custom pysimm.dump.tmp id q x y z vx vy vz
quit


################################################################################
##################################    Init    ##################################
################################################################################
units           real
atom_style      full
pair_style      lj/cut/coul/long 12.0  12.0
kspace_style    pppm 1e-4
bond_style      harmonic
angle_style     harmonic
dihedral_style  fourier
improper_style  cvff
special_bonds   amber
pair_modify     mix arithmetic
read_data       temp.lmps
  orthogonal box = (-59.2383 -59.2383 -59.2383) to (59.2383 59.2383 59.2383)
  1 by 1 by 1 MPI processor grid
  reading atoms ...
  90 atoms
  reading velocities ...
  90 velocities
  scanning bonds ...
  4 = max bonds/atom
  scanning angles ...
  6 = max angles/atom
  scanning dihedrals ...
  20 = max dihedrals/atom
  scanning impropers ...
  1 = max impropers/atom
  reading bonds ...
  89 bonds
  reading angles ...
  162 angles
  reading dihedrals ...
  208 dihedrals
  reading impropers ...
  6 impropers
  4 = max # of 1-2 neighbors
  11 = max # of 1-3 neighbors
  22 = max # of 1-4 neighbors
  26 = max # of special neighbors
  special bonds CPU = 0.000270128 secs
  read_data CPU = 0.00408006 secs
################################################################################

timestep        1
fix             pysimm_md all nve/limit 0.1
run             2000
PPPM initialization ...
  using 12-bit tables for long-range coulomb (../kspace.cpp:332)
  G vector (1/distance) = 0.10743
  grid = 12 12 12
  stencil order = 5
  estimated absolute RMS force accuracy = 0.0317071
  estimated relative force accuracy = 9.54849e-05
  using double precision KISS FFT
  3d grid and FFT values/proc = 4913 1728
Neighbor list info ...
  update every 1 steps, delay 10 steps, check yes
  max neighbors/atom: 2000, page size: 100000
  master list distance cutoff = 14
  ghost atom cutoff = 14
  binsize = 7, bins = 17 17 17
  1 neighbor lists, perpetual/occasional/extra = 1 0 0
  (1) pair lj/cut/coul/long, perpetual
      attributes: half, newton on
      pair build: half/bin/newton
      stencil: half/bin/3d/newton
      bin: standard
Per MPI rank memory allocation (min/avg/max) = 16.9 | 16.9 | 16.9 Mbytes
Step Temp E_pair E_mol TotEng Press 
       0    892.90201    1328.8651 1.3888972e+25 1.3888972e+25    196.94332 
    2000    949.29872    198.65573    230.27988    680.77706    12.554391 
Loop time of 1.11346 on 1 procs for 2000 steps with 90 atoms

Performance: 155.193 ns/day, 0.155 hours/ns, 1796.211 timesteps/s
100.0% CPU use with 1 MPI tasks x no OpenMP threads

MPI task timing breakdown:
Section |  min time  |  avg time  |  max time  |%varavg| %total
---------------------------------------------------------------
Pair    | 0.19591    | 0.19591    | 0.19591    |   0.0 | 17.59
Bond    | 0.069463   | 0.069463   | 0.069463   |   0.0 |  6.24
Kspace  | 0.82623    | 0.82623    | 0.82623    |   0.0 | 74.20
Neigh   | 0.012567   | 0.012567   | 0.012567   |   0.0 |  1.13
Comm    | 0.0022581  | 0.0022581  | 0.0022581  |   0.0 |  0.20
Output  | 3.1948e-05 | 3.1948e-05 | 3.1948e-05 |   0.0 |  0.00
Modify  | 0.0036418  | 0.0036418  | 0.0036418  |   0.0 |  0.33
Other   |            | 0.003358   |            |       |  0.30

Nlocal:    90 ave 90 max 90 min
Histogram: 1 0 0 0 0 0 0 0 0 0
Nghost:    94 ave 94 max 94 min
Histogram: 1 0 0 0 0 0 0 0 0 0
Neighs:    3988 ave 3988 max 3988 min
Histogram: 1 0 0 0 0 0 0 0 0 0

Total # of neighbors = 3988
Ave neighs/atom = 44.3111
Ave special neighs/atom = 10.2
Neighbor list builds = 101
Dangerous builds = 0
unfix pysimm_md
min_style cg
minimize 0.001 0.001 10000 100000
WARNING: Using 'neigh_modify every 1 delay 0 check yes' setting during minimization (../min.cpp:190)
PPPM initialization ...
  using 12-bit tables for long-range coulomb (../kspace.cpp:332)
  G vector (1/distance) = 0.10743
  grid = 12 12 12
  stencil order = 5
  estimated absolute RMS force accuracy = 0.0317071
  estimated relative force accuracy = 9.54849e-05
  using double precision KISS FFT
  3d grid and FFT values/proc = 4913 1728
Per MPI rank memory allocation (min/avg/max) = 18.02 | 18.02 | 18.02 Mbytes
Step Temp E_pair E_mol TotEng Press 
    2000    949.29872    198.65573    230.27988    680.77706    12.554391 
    2043    949.29872    174.76001    63.194425    489.79588    6.5335217 
Loop time of 0.052146 on 1 procs for 43 steps with 90 atoms

99.7% CPU use with 1 MPI tasks x no OpenMP threads

Minimization stats:
  Stopping criterion = energy tolerance
  Energy initial, next-to-last, final = 
          428.93560872       238.16009647      237.954429642
  Force two-norm initial, final = 462.621 25.3669
  Force max component initial, final = 87.539 8.89035
  Final line search alpha, max atom move = 0.0044509 0.0395701
  Iterations, force evaluations = 43 86

MPI task timing breakdown:
Section |  min time  |  avg time  |  max time  |%varavg| %total
---------------------------------------------------------------
Pair    | 0.013465   | 0.013465   | 0.013465   |   0.0 | 25.82
Bond    | 0.0031929  | 0.0031929  | 0.0031929  |   0.0 |  6.12
Kspace  | 0.03496    | 0.03496    | 0.03496    |   0.0 | 67.04
Neigh   | 0.00011683 | 0.00011683 | 0.00011683 |   0.0 |  0.22
Comm    | 8.0585e-05 | 8.0585e-05 | 8.0585e-05 |   0.0 |  0.15
Output  | 0          | 0          | 0          |   0.0 |  0.00
Modify  | 0          | 0          | 0          |   0.0 |  0.00
Other   |            | 0.0003309  |            |       |  0.63

Nlocal:    90 ave 90 max 90 min
Histogram: 1 0 0 0 0 0 0 0 0 0
Nghost:    94 ave 94 max 94 min
Histogram: 1 0 0 0 0 0 0 0 0 0
Neighs:    3986 ave 3986 max 3986 min
Histogram: 1 0 0 0 0 0 0 0 0 0

Total # of neighbors = 3986
Ave neighs/atom = 44.2889
Ave special neighs/atom = 10.2
Neighbor list builds = 1
Dangerous builds = 0
write_dump all custom pysimm.dump.tmp id q x y z vx vy vz
quit


################################################################################
##################################    Init    ##################################
################################################################################
units           real
atom_style      full
pair_style      lj/cut/coul/long 12.0  12.0
kspace_style    pppm 1e-4
bond_style      harmonic
angle_style     harmonic
dihedral_style  fourier
improper_style  cvff
special_bonds   amber
pair_modify     mix arithmetic
read_data       temp.lmps
  orthogonal box = (-59.2383 -59.2383 -59.2383) to (59.2383 59.2383 59.2383)
  1 by 1 by 1 MPI processor grid
  reading atoms ...
  105 atoms
  reading velocities ...
  105 velocities
  scanning bonds ...
  4 = max bonds/atom
  scanning angles ...
  6 = max angles/atom
  scanning dihedrals ...
  20 = max dihedrals/atom
  scanning impropers ...
  1 = max impropers/atom
  reading bonds ...
  104 bonds
  reading angles ...
  190 angles
  reading dihedrals ...
  246 dihedrals
  reading impropers ...
  7 impropers
  4 = max # of 1-2 neighbors
  11 = max # of 1-3 neighbors
  22 = max # of 1-4 neighbors
  26 = max # of special neighbors
  special bonds CPU = 0.000211 secs
  read_data CPU = 0.00407481 secs
################################################################################

timestep        1
fix             pysimm_md all nve/limit 0.1
run             2000
PPPM initialization ...
  using 12-bit tables for long-range coulomb (../kspace.cpp:332)
  G vector (1/distance) = 0.107427
  grid = 12 12 12
  stencil order = 5
  estimated absolute RMS force accuracy = 0.0342457
  estimated relative force accuracy = 0.00010313
  using double precision KISS FFT
  3d grid and FFT values/proc = 4913 1728
Neighbor list info ...
  update every 1 steps, delay 10 steps, check yes
  max neighbors/atom: 2000, page size: 100000
  master list distance cutoff = 14
  ghost atom cutoff = 14
  binsize = 7, bins = 17 17 17
  1 neighbor lists, perpetual/occasional/extra = 1 0 0
  (1) pair lj/cut/coul/long, perpetual
      attributes: half, newton on
      pair build: half/bin/newton
      stencil: half/bin/3d/newton
      bin: standard
Per MPI rank memory allocation (min/avg/max) = 16.9 | 16.9 | 16.9 Mbytes
Step Temp E_pair E_mol TotEng Press 
       0    815.71632 1.241335e+12 4.613481e+23 4.613481e+23            0 
    2000    950.36283    225.11008    336.48704    856.21363   -1.4189965 
Loop time of 1.25106 on 1 procs for 2000 steps with 105 atoms

Performance: 138.123 ns/day, 0.174 hours/ns, 1598.644 timesteps/s
100.1% CPU use with 1 MPI tasks x no OpenMP threads

MPI task timing breakdown:
Section |  min time  |  avg time  |  max time  |%varavg| %total
---------------------------------------------------------------
Pair    | 0.25468    | 0.25468    | 0.25468    |   0.0 | 20.36
Bond    | 0.080949   | 0.080949   | 0.080949   |   0.0 |  6.47
Kspace  | 0.88754    | 0.88754    | 0.88754    |   0.0 | 70.94
Neigh   | 0.018501   | 0.018501   | 0.018501   |   0.0 |  1.48
Comm    | 0.0023692  | 0.0023692  | 0.0023692  |   0.0 |  0.19
Output  | 2.2888e-05 | 2.2888e-05 | 2.2888e-05 |   0.0 |  0.00
Modify  | 0.0041065  | 0.0041065  | 0.0041065  |   0.0 |  0.33
Other   |            | 0.002894   |            |       |  0.23

Nlocal:    105 ave 105 max 105 min
Histogram: 1 0 0 0 0 0 0 0 0 0
Nghost:    62 ave 62 max 62 min
Histogram: 1 0 0 0 0 0 0 0 0 0
Neighs:    5162 ave 5162 max 5162 min
Histogram: 1 0 0 0 0 0 0 0 0 0

Total # of neighbors = 5162
Ave neighs/atom = 49.1619
Ave special neighs/atom = 10.2857
Neighbor list builds = 123
Dangerous builds = 0
unfix pysimm_md
min_style cg
minimize 0.001 0.001 10000 100000
WARNING: Using 'neigh_modify every 1 delay 0 check yes' setting during minimization (../min.cpp:190)
PPPM initialization ...
  using 12-bit tables for long-range coulomb (../kspace.cpp:332)
  G vector (1/distance) = 0.107427
  grid = 12 12 12
  stencil order = 5
  estimated absolute RMS force accuracy = 0.0342457
  estimated relative force accuracy = 0.00010313
  using double precision KISS FFT
  3d grid and FFT values/proc = 4913 1728
Per MPI rank memory allocation (min/avg/max) = 18.02 | 18.02 | 18.02 Mbytes
Step Temp E_pair E_mol TotEng Press 
    2000    950.36283    225.11008    336.48704    856.21363   -1.4189965 
    2045    950.36283    191.03249    68.105045    553.75405     7.311674 
Loop time of 0.0633168 on 1 procs for 45 steps with 105 atoms

99.5% CPU use with 1 MPI tasks x no OpenMP threads

Minimization stats:
  Stopping criterion = energy tolerance
  Energy initial, next-to-last, final = 
          561.59712243      259.333380761      259.137537237
  Force two-norm initial, final = 636.651 27.1346
  Force max component initial, final = 146.373 6.23607
  Final line search alpha, max atom move = 0.00365484 0.0227918
  Iterations, force evaluations = 45 90

MPI task timing breakdown:
Section |  min time  |  avg time  |  max time  |%varavg| %total
---------------------------------------------------------------
Pair    | 0.019031   | 0.019031   | 0.019031   |   0.0 | 30.06
Bond    | 0.0041718  | 0.0041718  | 0.0041718  |   0.0 |  6.59
Kspace  | 0.039465   | 0.039465   | 0.039465   |   0.0 | 62.33
Neigh   | 0.00015211 | 0.00015211 | 0.00015211 |   0.0 |  0.24
Comm    | 7.2002e-05 | 7.2002e-05 | 7.2002e-05 |   0.0 |  0.11
Output  | 0          | 0          | 0          |   0.0 |  0.00
Modify  | 0          | 0          | 0          |   0.0 |  0.00
Other   |            | 0.0004256  |            |       |  0.67

Nlocal:    105 ave 105 max 105 min
Histogram: 1 0 0 0 0 0 0 0 0 0
Nghost:    63 ave 63 max 63 min
Histogram: 1 0 0 0 0 0 0 0 0 0
Neighs:    5176 ave 5176 max 5176 min
Histogram: 1 0 0 0 0 0 0 0 0 0

Total # of neighbors = 5176
Ave neighs/atom = 49.2952
Ave special neighs/atom = 10.2857
Neighbor list builds = 1
Dangerous builds = 0
write_dump all custom pysimm.dump.tmp id q x y z vx vy vz
quit


################################################################################
##################################    Init    ##################################
################################################################################
units           real
atom_style      full
pair_style      lj/cut/coul/long 12.0  12.0
kspace_style    pppm 1e-4
bond_style      harmonic
angle_style     harmonic
dihedral_style  fourier
improper_style  cvff
special_bonds   amber
pair_modify     mix arithmetic
read_data       temp.lmps
  orthogonal box = (-59.2383 -59.2383 -59.2383) to (59.2383 59.2383 59.2383)
  1 by 1 by 1 MPI processor grid
  reading atoms ...
  120 atoms
  reading velocities ...
  120 velocities
  scanning bonds ...
  4 = max bonds/atom
  scanning angles ...
  6 = max angles/atom
  scanning dihedrals ...
  20 = max dihedrals/atom
  scanning impropers ...
  1 = max impropers/atom
  reading bonds ...
  119 bonds
  reading angles ...
  218 angles
  reading dihedrals ...
  284 dihedrals
  reading impropers ...
  8 impropers
  4 = max # of 1-2 neighbors
  11 = max # of 1-3 neighbors
  22 = max # of 1-4 neighbors
  26 = max # of special neighbors
  special bonds CPU = 0.000286102 secs
  read_data CPU = 0.00454402 secs
################################################################################

timestep        1
fix             pysimm_md all nve/limit 0.1
run             2000
PPPM initialization ...
  using 12-bit tables for long-range coulomb (../kspace.cpp:332)
  G vector (1/distance) = 0.107427
  grid = 12 12 12
  stencil order = 5
  estimated absolute RMS force accuracy = 0.0366097
  estimated relative force accuracy = 0.000110249
  using double precision KISS FFT
  3d grid and FFT values/proc = 4913 1728
Neighbor list info ...
  update every 1 steps, delay 10 steps, check yes
  max neighbors/atom: 2000, page size: 100000
  master list distance cutoff = 14
  ghost atom cutoff = 14
  binsize = 7, bins = 17 17 17
  1 neighbor lists, perpetual/occasional/extra = 1 0 0
  (1) pair lj/cut/coul/long, perpetual
      attributes: half, newton on
      pair build: half/bin/newton
      stencil: half/bin/3d/newton
      bin: standard
Per MPI rank memory allocation (min/avg/max) = 16.9 | 16.9 | 16.9 Mbytes
Step Temp E_pair E_mol TotEng Press 
       0    833.48444    1612207.9 8.5447023e+22 8.5447023e+22 8.9201892e+30 
    2000    814.96711    230.94814    327.60146     847.6318   -2.5842473 
Loop time of 1.34023 on 1 procs for 2000 steps with 120 atoms

Performance: 128.933 ns/day, 0.186 hours/ns, 1492.286 timesteps/s
99.7% CPU use with 1 MPI tasks x no OpenMP threads

MPI task timing breakdown:
Section |  min time  |  avg time  |  max time  |%varavg| %total
---------------------------------------------------------------
Pair    | 0.33021    | 0.33021    | 0.33021    |   0.0 | 24.64
Bond    | 0.095848   | 0.095848   | 0.095848   |   0.0 |  7.15
Kspace  | 0.88375    | 0.88375    | 0.88375    |   0.0 | 65.94
Neigh   | 0.020622   | 0.020622   | 0.020622   |   0.0 |  1.54
Comm    | 0.0017343  | 0.0017343  | 0.0017343  |   0.0 |  0.13
Output  | 3.6001e-05 | 3.6001e-05 | 3.6001e-05 |   0.0 |  0.00
Modify  | 0.0045965  | 0.0045965  | 0.0045965  |   0.0 |  0.34
Other   |            | 0.003426   |            |       |  0.26

Nlocal:    120 ave 120 max 120 min
Histogram: 1 0 0 0 0 0 0 0 0 0
Nghost:    0 ave 0 max 0 min
Histogram: 1 0 0 0 0 0 0 0 0 0
Neighs:    6857 ave 6857 max 6857 min
Histogram: 1 0 0 0 0 0 0 0 0 0

Total # of neighbors = 6857
Ave neighs/atom = 57.1417
Ave special neighs/atom = 10.35
Neighbor list builds = 110
Dangerous builds = 0
unfix pysimm_md
min_style cg
minimize 0.001 0.001 10000 100000
WARNING: Using 'neigh_modify every 1 delay 0 check yes' setting during minimization (../min.cpp:190)
PPPM initialization ...
  using 12-bit tables for long-range coulomb (../kspace.cpp:332)
  G vector (1/distance) = 0.107427
  grid = 12 12 12
  stencil order = 5
  estimated absolute RMS force accuracy = 0.0366097
  estimated relative force accuracy = 0.000110249
  using double precision KISS FFT
  3d grid and FFT values/proc = 4913 1728
Per MPI rank memory allocation (min/avg/max) = 18.02 | 18.02 | 18.02 Mbytes
Step Temp E_pair E_mol TotEng Press 
    2000    814.96711    230.94814    327.60146     847.6318   -2.5842473 
    2029    814.96711    223.53715    81.906394    594.52574    8.3073879 
Loop time of 0.0439501 on 1 procs for 29 steps with 120 atoms

100.1% CPU use with 1 MPI tasks x no OpenMP threads

Minimization stats:
  Stopping criterion = energy tolerance
  Energy initial, next-to-last, final = 
         558.549603867      305.667200047      305.443540657
  Force two-norm initial, final = 582.504 31.6311
  Force max component initial, final = 128.29 6.73467
  Final line search alpha, max atom move = 0.00502317 0.0338294
  Iterations, force evaluations = 29 58

MPI task timing breakdown:
Section |  min time  |  avg time  |  max time  |%varavg| %total
---------------------------------------------------------------
Pair    | 0.015053   | 0.015053   | 0.015053   |   0.0 | 34.25
Bond    | 0.0029624  | 0.0029624  | 0.0029624  |   0.0 |  6.74
Kspace  | 0.025637   | 0.025637   | 0.025637   |   0.0 | 58.33
Neigh   | 0          | 0          | 0          |   0.0 |  0.00
Comm    | 2.4557e-05 | 2.4557e-05 | 2.4557e-05 |   0.0 |  0.06
Output  | 0          | 0          | 0          |   0.0 |  0.00
Modify  | 0          | 0          | 0          |   0.0 |  0.00
Other   |            | 0.0002728  |            |       |  0.62

Nlocal:    120 ave 120 max 120 min
Histogram: 1 0 0 0 0 0 0 0 0 0
Nghost:    0 ave 0 max 0 min
Histogram: 1 0 0 0 0 0 0 0 0 0
Neighs:    6863 ave 6863 max 6863 min
Histogram: 1 0 0 0 0 0 0 0 0 0

Total # of neighbors = 6863
Ave neighs/atom = 57.1917
Ave special neighs/atom = 10.35
Neighbor list builds = 0
Dangerous builds = 0
write_dump all custom pysimm.dump.tmp id q x y z vx vy vz
quit


################################################################################
##################################    Init    ##################################
################################################################################
units           real
atom_style      full
pair_style      lj/cut/coul/long 12.0  12.0
kspace_style    pppm 1e-4
bond_style      harmonic
angle_style     harmonic
dihedral_style  fourier
improper_style  cvff
special_bonds   amber
pair_modify     mix arithmetic
read_data       temp.lmps
  orthogonal box = (-59.2383 -59.2383 -59.2383) to (59.2383 59.2383 59.2383)
  1 by 1 by 1 MPI processor grid
  reading atoms ...
  135 atoms
  reading velocities ...
  135 velocities
  scanning bonds ...
  4 = max bonds/atom
  scanning angles ...
  6 = max angles/atom
  scanning dihedrals ...
  20 = max dihedrals/atom
  scanning impropers ...
  1 = max impropers/atom
  reading bonds ...
  134 bonds
  reading angles ...
  246 angles
  reading dihedrals ...
  322 dihedrals
  reading impropers ...
  9 impropers
  4 = max # of 1-2 neighbors
  11 = max # of 1-3 neighbors
  22 = max # of 1-4 neighbors
  26 = max # of special neighbors
  special bonds CPU = 0.000288963 secs
  read_data CPU = 0.00448608 secs
################################################################################

timestep        1
fix             pysimm_md all nve/limit 0.1
run             2000
PPPM initialization ...
  using 12-bit tables for long-range coulomb (../kspace.cpp:332)
  G vector (1/distance) = 0.107427
  grid = 12 12 12
  stencil order = 5
  estimated absolute RMS force accuracy = 0.0388304
  estimated relative force accuracy = 0.000116937
  using double precision KISS FFT
  3d grid and FFT values/proc = 4913 1728
Neighbor list info ...
  update every 1 steps, delay 10 steps, check yes
  max neighbors/atom: 2000, page size: 100000
  master list distance cutoff = 14
  ghost atom cutoff = 14
  binsize = 7, bins = 17 17 17
  1 neighbor lists, perpetual/occasional/extra = 1 0 0
  (1) pair lj/cut/coul/long, perpetual
      attributes: half, newton on
      pair build: half/bin/newton
      stencil: half/bin/3d/newton
      bin: standard
Per MPI rank memory allocation (min/avg/max) = 16.9 | 16.9 | 16.9 Mbytes
Step Temp E_pair E_mol TotEng Press 
       0    726.32808     2896.492 2.8534273e+23 2.8534273e+23 -1.4272303e+32 
    2000    688.42113    264.50451    335.59363    875.07319   -2.0678486 
Loop time of 1.42746 on 1 procs for 2000 steps with 135 atoms

Performance: 121.054 ns/day, 0.198 hours/ns, 1401.090 timesteps/s
99.9% CPU use with 1 MPI tasks x no OpenMP threads

MPI task timing breakdown:
Section |  min time  |  avg time  |  max time  |%varavg| %total
---------------------------------------------------------------
Pair    | 0.40748    | 0.40748    | 0.40748    |   0.0 | 28.55
Bond    | 0.10416    | 0.10416    | 0.10416    |   0.0 |  7.30
Kspace  | 0.88324    | 0.88324    | 0.88324    |   0.0 | 61.87
Neigh   | 0.02306    | 0.02306    | 0.02306    |   0.0 |  1.62
Comm    | 0.0011187  | 0.0011187  | 0.0011187  |   0.0 |  0.08
Output  | 2.1935e-05 | 2.1935e-05 | 2.1935e-05 |   0.0 |  0.00
Modify  | 0.0051405  | 0.0051405  | 0.0051405  |   0.0 |  0.36
Other   |            | 0.003247   |            |       |  0.23

Nlocal:    135 ave 135 max 135 min
Histogram: 1 0 0 0 0 0 0 0 0 0
Nghost:    0 ave 0 max 0 min
Histogram: 1 0 0 0 0 0 0 0 0 0
Neighs:    8678 ave 8678 max 8678 min
Histogram: 1 0 0 0 0 0 0 0 0 0

Total # of neighbors = 8678
Ave neighs/atom = 64.2815
Ave special neighs/atom = 10.4
Neighbor list builds = 108
Dangerous builds = 0
unfix pysimm_md
min_style cg
minimize 0.001 0.001 10000 100000
WARNING: Using 'neigh_modify every 1 delay 0 check yes' setting during minimization (../min.cpp:190)
PPPM initialization ...
  using 12-bit tables for long-range coulomb (../kspace.cpp:332)
  G vector (1/distance) = 0.107427
  grid = 12 12 12
  stencil order = 5
  estimated absolute RMS force accuracy = 0.0388304
  estimated relative force accuracy = 0.000116937
  using double precision KISS FFT
  3d grid and FFT values/proc = 4913 1728
Per MPI rank memory allocation (min/avg/max) = 18.02 | 18.02 | 18.02 Mbytes
Step Temp E_pair E_mol TotEng Press 
    2000    688.42113    264.50451    335.59363    875.07319   -2.0678486 
    2027    688.42113    248.21137    107.94602    631.13244    7.4542716 
Loop time of 0.0458579 on 1 procs for 27 steps with 135 atoms

100.3% CPU use with 1 MPI tasks x no OpenMP threads

Minimization stats:
  Stopping criterion = energy tolerance
  Energy initial, next-to-last, final = 
         600.098135563      356.447658844      356.157389795
  Force two-norm initial, final = 579.79 24.7091
  Force max component initial, final = 120.1 5.3001
  Final line search alpha, max atom move = 0.00547292 0.029007
  Iterations, force evaluations = 27 54

MPI task timing breakdown:
Section |  min time  |  avg time  |  max time  |%varavg| %total
---------------------------------------------------------------
Pair    | 0.018057   | 0.018057   | 0.018057   |   0.0 | 39.38
Bond    | 0.0030866  | 0.0030866  | 0.0030866  |   0.0 |  6.73
Kspace  | 0.024407   | 0.024407   | 0.024407   |   0.0 | 53.22
Neigh   | 0          | 0          | 0          |   0.0 |  0.00
Comm    | 1.7405e-05 | 1.7405e-05 | 1.7405e-05 |   0.0 |  0.04
Output  | 0          | 0          | 0          |   0.0 |  0.00
Modify  | 0          | 0          | 0          |   0.0 |  0.00
Other   |            | 0.0002897  |            |       |  0.63

Nlocal:    135 ave 135 max 135 min
Histogram: 1 0 0 0 0 0 0 0 0 0
Nghost:    0 ave 0 max 0 min
Histogram: 1 0 0 0 0 0 0 0 0 0
Neighs:    8673 ave 8673 max 8673 min
Histogram: 1 0 0 0 0 0 0 0 0 0

Total # of neighbors = 8673
Ave neighs/atom = 64.2444
Ave special neighs/atom = 10.4
Neighbor list builds = 0
Dangerous builds = 0
write_dump all custom pysimm.dump.tmp id q x y z vx vy vz
quit


################################################################################
##################################    Init    ##################################
################################################################################
units           real
atom_style      full
pair_style      lj/cut/coul/long 12.0  12.0
kspace_style    pppm 1e-4
bond_style      harmonic
angle_style     harmonic
dihedral_style  fourier
improper_style  cvff
special_bonds   amber
pair_modify     mix arithmetic
read_data       temp.lmps
  orthogonal box = (-59.2383 -59.2383 -59.2383) to (59.2383 59.2383 59.2383)
  1 by 1 by 1 MPI processor grid
  reading atoms ...
  150 atoms
  reading velocities ...
  150 velocities
  scanning bonds ...
  4 = max bonds/atom
  scanning angles ...
  6 = max angles/atom
  scanning dihedrals ...
  20 = max dihedrals/atom
  scanning impropers ...
  1 = max impropers/atom
  reading bonds ...
  149 bonds
  reading angles ...
  274 angles
  reading dihedrals ...
  360 dihedrals
  reading impropers ...
  10 impropers
  4 = max # of 1-2 neighbors
  11 = max # of 1-3 neighbors
  22 = max # of 1-4 neighbors
  26 = max # of special neighbors
  special bonds CPU = 0.000262022 secs
  read_data CPU = 0.00461793 secs
################################################################################

timestep        1
fix             pysimm_md all nve/limit 0.1
run             2000
PPPM initialization ...
  using 12-bit tables for long-range coulomb (../kspace.cpp:332)
  G vector (1/distance) = 0.124404
  grid = 15 15 15
  stencil order = 5
  estimated absolute RMS force accuracy = 0.0232232
  estimated relative force accuracy = 6.99359e-05
  using double precision KISS FFT
  3d grid and FFT values/proc = 8000 3375
Neighbor list info ...
  update every 1 steps, delay 10 steps, check yes
  max neighbors/atom: 2000, page size: 100000
  master list distance cutoff = 14
  ghost atom cutoff = 14
  binsize = 7, bins = 17 17 17
  1 neighbor lists, perpetual/occasional/extra = 1 0 0
  (1) pair lj/cut/coul/long, perpetual
      attributes: half, newton on
      pair build: half/bin/newton
      stencil: half/bin/3d/newton
      bin: standard
Per MPI rank memory allocation (min/avg/max) = 17.16 | 17.16 | 17.16 Mbytes
Step Temp E_pair E_mol TotEng Press 
       0    621.44541    1984426.1 4.2488686e+28 4.2488686e+28    327273.96 
    2000    760.28745    309.84888    426.23513    1073.7586   -11.433335 
Loop time of 2.20217 on 1 procs for 2000 steps with 150 atoms

Performance: 78.468 ns/day, 0.306 hours/ns, 908.193 timesteps/s
100.0% CPU use with 1 MPI tasks x no OpenMP threads

MPI task timing breakdown:
Section |  min time  |  avg time  |  max time  |%varavg| %total
---------------------------------------------------------------
Pair    | 0.45881    | 0.45881    | 0.45881    |   0.0 | 20.83
Bond    | 0.11603    | 0.11603    | 0.11603    |   0.0 |  5.27
Kspace  | 1.5913     | 1.5913     | 1.5913     |   0.0 | 72.26
Neigh   | 0.025598   | 0.025598   | 0.025598   |   0.0 |  1.16
Comm    | 0.0010622  | 0.0010622  | 0.0010622  |   0.0 |  0.05
Output  | 2.408e-05  | 2.408e-05  | 2.408e-05  |   0.0 |  0.00
Modify  | 0.0058482  | 0.0058482  | 0.0058482  |   0.0 |  0.27
Other   |            | 0.00347    |            |       |  0.16

Nlocal:    150 ave 150 max 150 min
Histogram: 1 0 0 0 0 0 0 0 0 0
Nghost:    0 ave 0 max 0 min
Histogram: 1 0 0 0 0 0 0 0 0 0
Neighs:    8627 ave 8627 max 8627 min
Histogram: 1 0 0 0 0 0 0 0 0 0

Total # of neighbors = 8627
Ave neighs/atom = 57.5133
Ave special neighs/atom = 10.44
Neighbor list builds = 105
Dangerous builds = 0
unfix pysimm_md
min_style cg
minimize 0.001 0.001 10000 100000
WARNING: Using 'neigh_modify every 1 delay 0 check yes' setting during minimization (../min.cpp:190)
PPPM initialization ...
  using 12-bit tables for long-range coulomb (../kspace.cpp:332)
  G vector (1/distance) = 0.124404
  grid = 15 15 15
  stencil order = 5
  estimated absolute RMS force accuracy = 0.0232232
  estimated relative force accuracy = 6.99359e-05
  using double precision KISS FFT
  3d grid and FFT values/proc = 8000 3375
Per MPI rank memory allocation (min/avg/max) = 18.29 | 18.29 | 18.29 Mbytes
Step Temp E_pair E_mol TotEng Press 
    2000    760.28745    309.84888    426.23513    1073.7586   -11.433335 
    2044    760.28745    276.91631    119.71622    734.30712    7.7823839 
Loop time of 0.119207 on 1 procs for 44 steps with 150 atoms

101.5% CPU use with 1 MPI tasks x no OpenMP threads

Minimization stats:
  Stopping criterion = energy tolerance
  Energy initial, next-to-last, final = 
         736.084014127      397.000971849      396.632524841
  Force two-norm initial, final = 663.088 29.2248
  Force max component initial, final = 165.492 9.50236
  Final line search alpha, max atom move = 0.00444104 0.0422004
  Iterations, force evaluations = 44 87

MPI task timing breakdown:
Section |  min time  |  avg time  |  max time  |%varavg| %total
---------------------------------------------------------------
Pair    | 0.03426    | 0.03426    | 0.03426    |   0.0 | 28.74
Bond    | 0.0059483  | 0.0059483  | 0.0059483  |   0.0 |  4.99
Kspace  | 0.078114   | 0.078114   | 0.078114   |   0.0 | 65.53
Neigh   | 0.00028515 | 0.00028515 | 0.00028515 |   0.0 |  0.24
Comm    | 3.9816e-05 | 3.9816e-05 | 3.9816e-05 |   0.0 |  0.03
Output  | 0          | 0          | 0          |   0.0 |  0.00
Modify  | 0          | 0          | 0          |   0.0 |  0.00
Other   |            | 0.0005603  |            |       |  0.47

Nlocal:    150 ave 150 max 150 min
Histogram: 1 0 0 0 0 0 0 0 0 0
Nghost:    0 ave 0 max 0 min
Histogram: 1 0 0 0 0 0 0 0 0 0
Neighs:    8732 ave 8732 max 8732 min
Histogram: 1 0 0 0 0 0 0 0 0 0

Total # of neighbors = 8732
Ave neighs/atom = 58.2133
Ave special neighs/atom = 10.44
Neighbor list builds = 1
Dangerous builds = 0
write_dump all custom pysimm.dump.tmp id q x y z vx vy vz
quit


################################################################################
##################################    Init    ##################################
################################################################################
units           real
atom_style      full
pair_style      lj/cut/coul/long 12.0  12.0
kspace_style    pppm 1e-4
bond_style      harmonic
angle_style     harmonic
dihedral_style  fourier
improper_style  cvff
special_bonds   amber
pair_modify     mix arithmetic
read_data       temp.lmps
  orthogonal box = (-74.6356 -74.6356 -74.6356) to (74.6356 74.6356 74.6356)
  1 by 1 by 1 MPI processor grid
  reading atoms ...
  165 atoms
  reading velocities ...
  165 velocities
  scanning bonds ...
  4 = max bonds/atom
  scanning angles ...
  6 = max angles/atom
  scanning dihedrals ...
  20 = max dihedrals/atom
  scanning impropers ...
  1 = max impropers/atom
  reading bonds ...
  164 bonds
  reading angles ...
  302 angles
  reading dihedrals ...
  398 dihedrals
  reading impropers ...
  11 impropers
  4 = max # of 1-2 neighbors
  11 = max # of 1-3 neighbors
  22 = max # of 1-4 neighbors
  26 = max # of special neighbors
  special bonds CPU = 0.000338078 secs
  read_data CPU = 0.00508094 secs
################################################################################

timestep        1
fix             pysimm_md all nve/limit 0.1
run             2000
PPPM initialization ...
WARNING: System is not charge neutral, net charge = -1.1e-05 (../kspace.cpp:313)
  using 12-bit tables for long-range coulomb (../kspace.cpp:332)
  G vector (1/distance) = 0.106843
  grid = 15 15 15
  stencil order = 5
  estimated absolute RMS force accuracy = 0.0309065
  estimated relative force accuracy = 9.30741e-05
  using double precision KISS FFT
  3d grid and FFT values/proc = 8000 3375
Neighbor list info ...
  update every 1 steps, delay 10 steps, check yes
  max neighbors/atom: 2000, page size: 100000
  master list distance cutoff = 14
  ghost atom cutoff = 14
  binsize = 7, bins = 22 22 22
  1 neighbor lists, perpetual/occasional/extra = 1 0 0
  (1) pair lj/cut/coul/long, perpetual
      attributes: half, newton on
      pair build: half/bin/newton
      stencil: half/bin/3d/newton
      bin: standard
Per MPI rank memory allocation (min/avg/max) = 17.2 | 17.2 | 17.2 Mbytes
Step Temp E_pair E_mol TotEng Press 
       0    692.86449 1.8923645e+08    1180.2107 1.8923797e+08     15604996 
    2000    665.20574    347.76901    385.80223     1058.759    3.6846552 
Loop time of 2.28376 on 1 procs for 2000 steps with 165 atoms

Performance: 75.665 ns/day, 0.317 hours/ns, 875.747 timesteps/s
100.0% CPU use with 1 MPI tasks x no OpenMP threads

MPI task timing breakdown:
Section |  min time  |  avg time  |  max time  |%varavg| %total
---------------------------------------------------------------
Pair    | 0.48189    | 0.48189    | 0.48189    |   0.0 | 21.10
Bond    | 0.12819    | 0.12819    | 0.12819    |   0.0 |  5.61
Kspace  | 1.6303     | 1.6303     | 1.6303     |   0.0 | 71.39
Neigh   | 0.032234   | 0.032234   | 0.032234   |   0.0 |  1.41
Comm    | 0.0011537  | 0.0011537  | 0.0011537  |   0.0 |  0.05
Output  | 2.3127e-05 | 2.3127e-05 | 2.3127e-05 |   0.0 |  0.00
Modify  | 0.0061276  | 0.0061276  | 0.0061276  |   0.0 |  0.27
Other   |            | 0.003838   |            |       |  0.17

Nlocal:    165 ave 165 max 165 min
Histogram: 1 0 0 0 0 0 0 0 0 0
Nghost:    0 ave 0 max 0 min
Histogram: 1 0 0 0 0 0 0 0 0 0
Neighs:    10131 ave 10131 max 10131 min
Histogram: 1 0 0 0 0 0 0 0 0 0

Total # of neighbors = 10131
Ave neighs/atom = 61.4
Ave special neighs/atom = 10.4727
Neighbor list builds = 114
Dangerous builds = 0
unfix pysimm_md
min_style cg
minimize 0.001 0.001 10000 100000
WARNING: Using 'neigh_modify every 1 delay 0 check yes' setting during minimization (../min.cpp:190)
PPPM initialization ...
  using 12-bit tables for long-range coulomb (../kspace.cpp:332)
  G vector (1/distance) = 0.106843
  grid = 15 15 15
  stencil order = 5
  estimated absolute RMS force accuracy = 0.0309065
  estimated relative force accuracy = 9.30741e-05
  using double precision KISS FFT
  3d grid and FFT values/proc = 8000 3375
Per MPI rank memory allocation (min/avg/max) = 18.32 | 18.32 | 18.32 Mbytes
Step Temp E_pair E_mol TotEng Press 
    2000    665.20574    347.76901    385.80223     1058.759    3.6846552 
    2040    665.20574    307.68178    126.19091    759.06041    3.8343319 
Loop time of 0.0958538 on 1 procs for 40 steps with 165 atoms

100.1% CPU use with 1 MPI tasks x no OpenMP threads

Minimization stats:
  Stopping criterion = energy tolerance
  Energy initial, next-to-last, final = 
         733.571248266      434.226627744      433.872689249
  Force two-norm initial, final = 606.791 26.5224
  Force max component initial, final = 149.24 4.9208
  Final line search alpha, max atom move = 0.0040019 0.0196925
  Iterations, force evaluations = 40 80

MPI task timing breakdown:
Section |  min time  |  avg time  |  max time  |%varavg| %total
---------------------------------------------------------------
Pair    | 0.029253   | 0.029253   | 0.029253   |   0.0 | 30.52
Bond    | 0.0052705  | 0.0052705  | 0.0052705  |   0.0 |  5.50
Kspace  | 0.060646   | 0.060646   | 0.060646   |   0.0 | 63.27
Neigh   | 0.00024199 | 0.00024199 | 0.00024199 |   0.0 |  0.25
Comm    | 2.2888e-05 | 2.2888e-05 | 2.2888e-05 |   0.0 |  0.02
Output  | 0          | 0          | 0          |   0.0 |  0.00
Modify  | 0          | 0          | 0          |   0.0 |  0.00
Other   |            | 0.0004191  |            |       |  0.44

Nlocal:    165 ave 165 max 165 min
Histogram: 1 0 0 0 0 0 0 0 0 0
Nghost:    0 ave 0 max 0 min
Histogram: 1 0 0 0 0 0 0 0 0 0
Neighs:    10120 ave 10120 max 10120 min
Histogram: 1 0 0 0 0 0 0 0 0 0

Total # of neighbors = 10120
Ave neighs/atom = 61.3333
Ave special neighs/atom = 10.4727
Neighbor list builds = 1
Dangerous builds = 0
write_dump all custom pysimm.dump.tmp id q x y z vx vy vz
quit


################################################################################
##################################    Init    ##################################
################################################################################
units           real
atom_style      full
pair_style      lj/cut/coul/long 12.0  12.0
kspace_style    pppm 1e-4
bond_style      harmonic
angle_style     harmonic
dihedral_style  fourier
improper_style  cvff
special_bonds   amber
pair_modify     mix arithmetic
read_data       temp.lmps
  orthogonal box = (-77.0449 -77.0449 -77.0449) to (77.0449 77.0449 77.0449)
  1 by 1 by 1 MPI processor grid
  reading atoms ...
  180 atoms
  reading velocities ...
  180 velocities
  scanning bonds ...
  4 = max bonds/atom
  scanning angles ...
  6 = max angles/atom
  scanning dihedrals ...
  20 = max dihedrals/atom
  scanning impropers ...
  1 = max impropers/atom
  reading bonds ...
  179 bonds
  reading angles ...
  330 angles
  reading dihedrals ...
  436 dihedrals
  reading impropers ...
  12 impropers
  4 = max # of 1-2 neighbors
  11 = max # of 1-3 neighbors
  22 = max # of 1-4 neighbors
  26 = max # of special neighbors
  special bonds CPU = 0.000664949 secs
  read_data CPU = 0.0139301 secs
################################################################################

timestep        1
fix             pysimm_md all nve/limit 0.1
run             2000
PPPM initialization ...
WARNING: System is not charge neutral, net charge = -1.2e-05 (../kspace.cpp:313)
  using 12-bit tables for long-range coulomb (../kspace.cpp:332)
  G vector (1/distance) = 0.104515
  grid = 15 15 15
  stencil order = 5
  estimated absolute RMS force accuracy = 0.0330434
  estimated relative force accuracy = 9.95091e-05
  using double precision KISS FFT
  3d grid and FFT values/proc = 8000 3375
Neighbor list info ...
  update every 1 steps, delay 10 steps, check yes
  max neighbors/atom: 2000, page size: 100000
  master list distance cutoff = 14
  ghost atom cutoff = 14
  binsize = 7, bins = 23 23 23
  1 neighbor lists, perpetual/occasional/extra = 1 0 0
  (1) pair lj/cut/coul/long, perpetual
      attributes: half, newton on
      pair build: half/bin/newton
      stencil: half/bin/3d/newton
      bin: standard
Per MPI rank memory allocation (min/avg/max) = 17.21 | 17.21 | 17.21 Mbytes
Step Temp E_pair E_mol TotEng Press 
       0    611.40061    7750.1823    1189.7751    9266.1794    543.70772 
    2000     572.3336    347.71742    386.79114    1039.8857   -6.2923152 
Loop time of 2.57562 on 1 procs for 2000 steps with 180 atoms

Performance: 67.091 ns/day, 0.358 hours/ns, 776.511 timesteps/s
99.6% CPU use with 1 MPI tasks x no OpenMP threads

MPI task timing breakdown:
Section |  min time  |  avg time  |  max time  |%varavg| %total
---------------------------------------------------------------
Pair    | 0.57994    | 0.57994    | 0.57994    |   0.0 | 22.52
Bond    | 0.15853    | 0.15853    | 0.15853    |   0.0 |  6.16
Kspace  | 1.7815     | 1.7815     | 1.7815     |   0.0 | 69.17
Neigh   | 0.040025   | 0.040025   | 0.040025   |   0.0 |  1.55
Comm    | 0.003433   | 0.003433   | 0.003433   |   0.0 |  0.13
[...]
  stencil order = 5
  estimated absolute RMS force accuracy = 0.0324638
  estimated relative force accuracy = 9.77639e-05
  using double precision KISS FFT
  3d grid and FFT values/proc = 24389 13824
Per MPI rank memory allocation (min/avg/max) = 20.08 | 20.08 | 20.08 Mbytes
Step Temp E_pair E_mol TotEng Press 
    2000    205.89619     1314.891    845.20305    2592.1652  -0.39209907 
    2016    205.89619    1294.6424     535.3921    2262.1057   0.55155302 
Loop time of 0.214581 on 1 procs for 16 steps with 705 atoms

99.7% CPU use with 1 MPI tasks x no OpenMP threads

Minimization stats:
  Stopping criterion = energy tolerance
  Energy initial, next-to-last, final = 
         2160.09407778      1830.29279666      1830.03453422
  Force two-norm initial, final = 699.079 54.9252
  Force max component initial, final = 142.18 8.7306
  Final line search alpha, max atom move = 0.00596866 0.05211
  Iterations, force evaluations = 16 32

MPI task timing breakdown:
Section |  min time  |  avg time  |  max time  |%varavg| %total
---------------------------------------------------------------
Pair    | 0.07794    | 0.07794    | 0.07794    |   0.0 | 36.32
Bond    | 0.010646   | 0.010646   | 0.010646   |   0.0 |  4.96
Kspace  | 0.12532    | 0.12532    | 0.12532    |   0.0 | 58.40
Neigh   | 0          | 0          | 0          |   0.0 |  0.00
Comm    | 2.2888e-05 | 2.2888e-05 | 2.2888e-05 |   0.0 |  0.01
Output  | 0          | 0          | 0          |   0.0 |  0.00
Modify  | 0          | 0          | 0          |   0.0 |  0.00
Other   |            | 0.000648   |            |       |  0.30

Nlocal:    705 ave 705 max 705 min
Histogram: 1 0 0 0 0 0 0 0 0 0
Nghost:    0 ave 0 max 0 min
Histogram: 1 0 0 0 0 0 0 0 0 0
Neighs:    60067 ave 60067 max 60067 min
Histogram: 1 0 0 0 0 0 0 0 0 0

Total # of neighbors = 60067
Ave neighs/atom = 85.2014
Ave special neighs/atom = 10.7234
Neighbor list builds = 0
Dangerous builds = 0
write_dump all custom pysimm.dump.tmp id q x y z vx vy vz
quit


################################################################################
##################################    Init    ##################################
################################################################################
units           real
atom_style      full
pair_style      lj/cut/coul/long 12.0  12.0
kspace_style    pppm 1e-4
bond_style      harmonic
angle_style     harmonic
dihedral_style  fourier
improper_style  cvff
special_bonds   amber
pair_modify     mix arithmetic
read_data       temp.lmps
  orthogonal box = (-125.02 -125.02 -125.02) to (125.02 125.02 125.02)
  1 by 1 by 1 MPI processor grid
  reading atoms ...
  720 atoms
  reading velocities ...
  720 velocities
  scanning bonds ...
  4 = max bonds/atom
  scanning angles ...
  6 = max angles/atom
  scanning dihedrals ...
  20 = max dihedrals/atom
  scanning impropers ...
  1 = max impropers/atom
  reading bonds ...
  719 bonds
  reading angles ...
  1338 angles
  reading dihedrals ...
  1804 dihedrals
  reading impropers ...
  48 impropers
  4 = max # of 1-2 neighbors
  11 = max # of 1-3 neighbors
  22 = max # of 1-4 neighbors
  26 = max # of special neighbors
  special bonds CPU = 0.00150609 secs
  read_data CPU = 0.0224991 secs
################################################################################

timestep        1
fix             pysimm_md all nve/limit 0.1
run             2000
PPPM initialization ...
WARNING: System is not charge neutral, net charge = -4.8e-05 (../kspace.cpp:313)
  using 12-bit tables for long-range coulomb (../kspace.cpp:332)
  G vector (1/distance) = 0.103491
  grid = 24 24 24
  stencil order = 5
  estimated absolute RMS force accuracy = 0.0329695
  estimated relative force accuracy = 9.92866e-05
  using double precision KISS FFT
  3d grid and FFT values/proc = 24389 13824
Neighbor list info ...
  update every 1 steps, delay 10 steps, check yes
  max neighbors/atom: 2000, page size: 100000
  master list distance cutoff = 14
  ghost atom cutoff = 14
  binsize = 7, bins = 36 36 36
  1 neighbor lists, perpetual/occasional/extra = 1 0 0
  (1) pair lj/cut/coul/long, perpetual
      attributes: half, newton on
      pair build: half/bin/newton
      stencil: half/bin/3d/newton
      bin: standard
Per MPI rank memory allocation (min/avg/max) = 18.96 | 18.96 | 18.96 Mbytes
Step Temp E_pair E_mol TotEng Press 
       0    202.08325      1271841    1578.7173    1273852.9    22292.879 
    2000    163.99644    1348.8557       795.33    2495.6633  -0.26994072 
Loop time of 10.9797 on 1 procs for 2000 steps with 720 atoms

Performance: 15.738 ns/day, 1.525 hours/ns, 182.154 timesteps/s
99.7% CPU use with 1 MPI tasks x no OpenMP threads

MPI task timing breakdown:
Section |  min time  |  avg time  |  max time  |%varavg| %total
---------------------------------------------------------------
Pair    | 2.8741     | 2.8741     | 2.8741     |   0.0 | 26.18
Bond    | 0.59311    | 0.59311    | 0.59311    |   0.0 |  5.40
Kspace  | 7.3048     | 7.3048     | 7.3048     |   0.0 | 66.53
Neigh   | 0.17272    | 0.17272    | 0.17272    |   0.0 |  1.57
Comm    | 0.0023024  | 0.0023024  | 0.0023024  |   0.0 |  0.02
Output  | 2.408e-05  | 2.408e-05  | 2.408e-05  |   0.0 |  0.00
Modify  | 0.025001   | 0.025001   | 0.025001   |   0.0 |  0.23
Other   |            | 0.007597   |            |       |  0.07

Nlocal:    720 ave 720 max 720 min
Histogram: 1 0 0 0 0 0 0 0 0 0
Nghost:    0 ave 0 max 0 min
Histogram: 1 0 0 0 0 0 0 0 0 0
Neighs:    60373 ave 60373 max 60373 min
Histogram: 1 0 0 0 0 0 0 0 0 0

Total # of neighbors = 60373
Ave neighs/atom = 83.8514
Ave special neighs/atom = 10.725
Neighbor list builds = 95
Dangerous builds = 0
unfix pysimm_md
min_style cg
minimize 0.001 0.001 10000 100000
WARNING: Using 'neigh_modify every 1 delay 0 check yes' setting during minimization (../min.cpp:190)
PPPM initialization ...
  using 12-bit tables for long-range coulomb (../kspace.cpp:332)
  G vector (1/distance) = 0.103491
  grid = 24 24 24
  stencil order = 5
  estimated absolute RMS force accuracy = 0.0329695
  estimated relative force accuracy = 9.92866e-05
  using double precision KISS FFT
  3d grid and FFT values/proc = 24389 13824
Per MPI rank memory allocation (min/avg/max) = 20.09 | 20.09 | 20.09 Mbytes
Step Temp E_pair E_mol TotEng Press 
    2000    163.99644    1348.8557       795.33    2495.6633  -0.26994072 
    2015    163.99644    1319.4196    528.14833    2199.0456     1.149389 
Loop time of 0.171054 on 1 procs for 15 steps with 720 atoms

100.0% CPU use with 1 MPI tasks x no OpenMP threads

Minimization stats:
  Stopping criterion = energy tolerance
  Energy initial, next-to-last, final = 
         2144.18571767       1849.3459831      1847.56797325
  Force two-norm initial, final = 650.046 49.9024
  Force max component initial, final = 145.893 11.8629
  Final line search alpha, max atom move = 0.00506895 0.0601325
  Iterations, force evaluations = 15 30

MPI task timing breakdown:
Section |  min time  |  avg time  |  max time  |%varavg| %total
---------------------------------------------------------------
Pair    | 0.061106   | 0.061106   | 0.061106   |   0.0 | 35.72
Bond    | 0.0088553  | 0.0088553  | 0.0088553  |   0.0 |  5.18
Kspace  | 0.10058    | 0.10058    | 0.10058    |   0.0 | 58.80
Neigh   | 0          | 0          | 0          |   0.0 |  0.00
Comm    | 1.5259e-05 | 1.5259e-05 | 1.5259e-05 |   0.0 |  0.01
Output  | 0          | 0          | 0          |   0.0 |  0.00
Modify  | 0          | 0          | 0          |   0.0 |  0.00
Other   |            | 0.000493   |            |       |  0.29

Nlocal:    720 ave 720 max 720 min
Histogram: 1 0 0 0 0 0 0 0 0 0
Nghost:    0 ave 0 max 0 min
Histogram: 1 0 0 0 0 0 0 0 0 0
Neighs:    60371 ave 60371 max 60371 min
Histogram: 1 0 0 0 0 0 0 0 0 0

Total # of neighbors = 60371
Ave neighs/atom = 83.8486
Ave special neighs/atom = 10.725
Neighbor list builds = 0
Dangerous builds = 0
write_dump all custom pysimm.dump.tmp id q x y z vx vy vz
quit


################################################################################
##################################    Init    ##################################
################################################################################
units           real
atom_style      full
pair_style      lj/cut/coul/long 12.0  12.0
kspace_style    pppm 1e-4
bond_style      harmonic
angle_style     harmonic
dihedral_style  fourier
improper_style  cvff
special_bonds   amber
pair_modify     mix arithmetic
read_data       temp.lmps
  orthogonal box = (-125.9 -125.9 -125.9) to (125.9 125.9 125.9)
  1 by 1 by 1 MPI processor grid
  reading atoms ...
  735 atoms
  reading velocities ...
  735 velocities
  scanning bonds ...
  4 = max bonds/atom
  scanning angles ...
  6 = max angles/atom
  scanning dihedrals ...
  20 = max dihedrals/atom
  scanning impropers ...
  1 = max impropers/atom
  reading bonds ...
  734 bonds
  reading angles ...
  1366 angles
  reading dihedrals ...
  1842 dihedrals
  reading impropers ...
  49 impropers
  4 = max # of 1-2 neighbors
  11 = max # of 1-3 neighbors
  22 = max # of 1-4 neighbors
  26 = max # of special neighbors
  special bonds CPU = 0.00152683 secs
  read_data CPU = 0.0211701 secs
################################################################################

timestep        1
fix             pysimm_md all nve/limit 0.1
run             2000
PPPM initialization ...
WARNING: System is not charge neutral, net charge = -4.9e-05 (../kspace.cpp:313)
  using 12-bit tables for long-range coulomb (../kspace.cpp:332)
  G vector (1/distance) = 0.102981
  grid = 24 24 24
  stencil order = 5
  estimated absolute RMS force accuracy = 0.0334647
  estimated relative force accuracy = 0.000100778
  using double precision KISS FFT
  3d grid and FFT values/proc = 24389 13824
Neighbor list info ...
  update every 1 steps, delay 10 steps, check yes
  max neighbors/atom: 2000, page size: 100000
  master list distance cutoff = 14
  ghost atom cutoff = 14
  binsize = 7, bins = 36 36 36
  1 neighbor lists, perpetual/occasional/extra = 1 0 0
  (1) pair lj/cut/coul/long, perpetual
      attributes: half, newton on
      pair build: half/bin/newton
      stencil: half/bin/3d/newton
      bin: standard
Per MPI rank memory allocation (min/avg/max) = 18.96 | 18.96 | 18.96 Mbytes
Step Temp E_pair E_mol TotEng Press 
       0    161.11769 1.7025616e+08    1613.6726 1.7025813e+08    2924945.4 
    2000     159.4527    1374.6186    776.13107    2499.6185  -0.80138294 
Loop time of 10.4663 on 1 procs for 2000 steps with 735 atoms

Performance: 16.510 ns/day, 1.454 hours/ns, 191.089 timesteps/s
99.7% CPU use with 1 MPI tasks x no OpenMP threads

MPI task timing breakdown:
Section |  min time  |  avg time  |  max time  |%varavg| %total
---------------------------------------------------------------
Pair    | 2.7783     | 2.7783     | 2.7783     |   0.0 | 26.55
Bond    | 0.57867    | 0.57867    | 0.57867    |   0.0 |  5.53
Kspace  | 6.9025     | 6.9025     | 6.9025     |   0.0 | 65.95
Neigh   | 0.17262    | 0.17262    | 0.17262    |   0.0 |  1.65
Comm    | 0.0021434  | 0.0021434  | 0.0021434  |   0.0 |  0.02
Output  | 2.5034e-05 | 2.5034e-05 | 2.5034e-05 |   0.0 |  0.00
Modify  | 0.024574   | 0.024574   | 0.024574   |   0.0 |  0.23
Other   |            | 0.007487   |            |       |  0.07

Nlocal:    735 ave 735 max 735 min
Histogram: 1 0 0 0 0 0 0 0 0 0
Nghost:    0 ave 0 max 0 min
Histogram: 1 0 0 0 0 0 0 0 0 0
Neighs:    61753 ave 61753 max 61753 min
Histogram: 1 0 0 0 0 0 0 0 0 0

Total # of neighbors = 61753
Ave neighs/atom = 84.0177
Ave special neighs/atom = 10.7265
Neighbor list builds = 98
Dangerous builds = 0
unfix pysimm_md
min_style cg
minimize 0.001 0.001 10000 100000
WARNING: Using 'neigh_modify every 1 delay 0 check yes' setting during minimization (../min.cpp:190)
PPPM initialization ...
  using 12-bit tables for long-range coulomb (../kspace.cpp:332)
  G vector (1/distance) = 0.102981
  grid = 24 24 24
  stencil order = 5
  estimated absolute RMS force accuracy = 0.0334647
  estimated relative force accuracy = 0.000100778
  using double precision KISS FFT
  3d grid and FFT values/proc = 24389 13824
Per MPI rank memory allocation (min/avg/max) = 20.09 | 20.09 | 20.09 Mbytes
Step Temp E_pair E_mol TotEng Press 
    2000     159.4527    1374.6186    776.13107    2499.6185  -0.80138294 
    2016     159.4527    1357.1681    528.11021    2234.1472    1.0725193 
Loop time of 0.438806 on 1 procs for 16 steps with 735 atoms

100.0% CPU use with 1 MPI tasks x no OpenMP threads

Minimization stats:
  Stopping criterion = energy tolerance
  Energy initial, next-to-last, final = 
         2150.74963859      1886.60147276      1885.27833863
  Force two-norm initial, final = 608.223 51.6653
  Force max component initial, final = 98.1293 11.1676
  Final line search alpha, max atom move = 0.00342428 0.0382411
  Iterations, force evaluations = 16 32

MPI task timing breakdown:
Section |  min time  |  avg time  |  max time  |%varavg| %total
---------------------------------------------------------------
Pair    | 0.15715    | 0.15715    | 0.15715    |   0.0 | 35.81
Bond    | 0.022536   | 0.022536   | 0.022536   |   0.0 |  5.14
Kspace  | 0.25782    | 0.25782    | 0.25782    |   0.0 | 58.76
Neigh   | 0          | 0          | 0          |   0.0 |  0.00
Comm    | 1.7643e-05 | 1.7643e-05 | 1.7643e-05 |   0.0 |  0.00
Output  | 0          | 0          | 0          |   0.0 |  0.00
Modify  | 0          | 0          | 0          |   0.0 |  0.00
Other   |            | 0.001283   |            |       |  0.29

Nlocal:    735 ave 735 max 735 min
Histogram: 1 0 0 0 0 0 0 0 0 0
Nghost:    0 ave 0 max 0 min
Histogram: 1 0 0 0 0 0 0 0 0 0
Neighs:    61734 ave 61734 max 61734 min
Histogram: 1 0 0 0 0 0 0 0 0 0

Total # of neighbors = 61734
Ave neighs/atom = 83.9918
Ave special neighs/atom = 10.7265
Neighbor list builds = 0
Dangerous builds = 0
write_dump all custom pysimm.dump.tmp id q x y z vx vy vz
quit


################################################################################
##################################    Init    ##################################
################################################################################
units           real
atom_style      full
pair_style      lj/cut/coul/long 12.0  12.0
kspace_style    pppm 1e-4
bond_style      harmonic
angle_style     harmonic
dihedral_style  fourier
improper_style  cvff
special_bonds   amber
pair_modify     mix arithmetic
read_data       temp.lmps
  orthogonal box = (-126.769 -126.769 -126.769) to (126.769 126.769 126.769)
  1 by 1 by 1 MPI processor grid
  reading atoms ...
  750 atoms
  reading velocities ...
  750 velocities
  scanning bonds ...
  4 = max bonds/atom
  scanning angles ...
  6 = max angles/atom
  scanning dihedrals ...
  20 = max dihedrals/atom
  scanning impropers ...
  1 = max impropers/atom
  reading bonds ...
  749 bonds
  reading angles ...
  1394 angles
  reading dihedrals ...
  1880 dihedrals
  reading impropers ...
  50 impropers
  4 = max # of 1-2 neighbors
  11 = max # of 1-3 neighbors
  22 = max # of 1-4 neighbors
  26 = max # of special neighbors
  special bonds CPU = 0.00173306 secs
  read_data CPU = 0.023267 secs
################################################################################

timestep        1
fix             pysimm_md all nve/limit 0.1
run             2000
PPPM initialization ...
WARNING: System is not charge neutral, net charge = -5e-05 (../kspace.cpp:313)
  using 12-bit tables for long-range coulomb (../kspace.cpp:332)
  G vector (1/distance) = 0.102483
  grid = 24 24 24
  stencil order = 5
  estimated absolute RMS force accuracy = 0.0339535
  estimated relative force accuracy = 0.00010225
  using double precision KISS FFT
  3d grid and FFT values/proc = 24389 13824
Neighbor list info ...
  update every 1 steps, delay 10 steps, check yes
  max neighbors/atom: 2000, page size: 100000
  master list distance cutoff = 14
  ghost atom cutoff = 14
  binsize = 7, bins = 37 37 37
  1 neighbor lists, perpetual/occasional/extra = 1 0 0
  (1) pair lj/cut/coul/long, perpetual
      attributes: half, newton on
      pair build: half/bin/newton
      stencil: half/bin/3d/newton
      bin: standard
Per MPI rank memory allocation (min/avg/max) = 18.98 | 18.98 | 18.98 Mbytes
Step Temp E_pair E_mol TotEng Press 
       0     156.7226    36221.666    1576.0977    38147.666    585.30795 
    2000      180.621    1410.8343    853.87462    2667.9682    1.2016028 
Loop time of 10.6298 on 1 procs for 2000 steps with 750 atoms

Performance: 16.256 ns/day, 1.476 hours/ns, 188.151 timesteps/s
99.8% CPU use with 1 MPI tasks x no OpenMP threads

MPI task timing breakdown:
Section |  min time  |  avg time  |  max time  |%varavg| %total
---------------------------------------------------------------
Pair    | 2.974      | 2.974      | 2.974      |   0.0 | 27.98
Bond    | 0.58263    | 0.58263    | 0.58263    |   0.0 |  5.48
Kspace  | 6.8423     | 6.8423     | 6.8423     |   0.0 | 64.37
Neigh   | 0.19695    | 0.19695    | 0.19695    |   0.0 |  1.85
Comm    | 0.0024657  | 0.0024657  | 0.0024657  |   0.0 |  0.02
Output  | 2.5034e-05 | 2.5034e-05 | 2.5034e-05 |   0.0 |  0.00
Modify  | 0.024489   | 0.024489   | 0.024489   |   0.0 |  0.23
Other   |            | 0.006977   |            |       |  0.07

Nlocal:    750 ave 750 max 750 min
Histogram: 1 0 0 0 0 0 0 0 0 0
Nghost:    0 ave 0 max 0 min
Histogram: 1 0 0 0 0 0 0 0 0 0
Neighs:    65326 ave 65326 max 65326 min
Histogram: 1 0 0 0 0 0 0 0 0 0

Total # of neighbors = 65326
Ave neighs/atom = 87.1013
Ave special neighs/atom = 10.728
Neighbor list builds = 110
Dangerous builds = 0
unfix pysimm_md
min_style cg
minimize 0.001 0.001 10000 100000
WARNING: Using 'neigh_modify every 1 delay 0 check yes' setting during minimization (../min.cpp:190)
PPPM initialization ...
  using 12-bit tables for long-range coulomb (../kspace.cpp:332)
  G vector (1/distance) = 0.102483
  grid = 24 24 24
  stencil order = 5
  estimated absolute RMS force accuracy = 0.0339535
  estimated relative force accuracy = 0.00010225
  using double precision KISS FFT
  3d grid and FFT values/proc = 24389 13824
Per MPI rank memory allocation (min/avg/max) = 20.11 | 20.11 | 20.11 Mbytes
Step Temp E_pair E_mol TotEng Press 
    2000      180.621    1410.8343    853.87462    2667.9682    1.2016028 
    2016      180.621    1360.4225    548.02287    2311.7046   0.71305964 
Loop time of 0.205396 on 1 procs for 16 steps with 750 atoms

99.8% CPU use with 1 MPI tasks x no OpenMP threads

Minimization stats:
  Stopping criterion = energy tolerance
  Energy initial, next-to-last, final = 
         2264.70889472      1909.31232269      1908.44534241
  Force two-norm initial, final = 733.152 50.4053
  Force max component initial, final = 128.795 11.9968
  Final line search alpha, max atom move = 0.00545018 0.0653848
  Iterations, force evaluations = 16 32

MPI task timing breakdown:
Section |  min time  |  avg time  |  max time  |%varavg| %total
---------------------------------------------------------------
Pair    | 0.08004    | 0.08004    | 0.08004    |   0.0 | 38.97
Bond    | 0.010641   | 0.010641   | 0.010641   |   0.0 |  5.18
Kspace  | 0.11406    | 0.11406    | 0.11406    |   0.0 | 55.53
Neigh   | 0          | 0          | 0          |   0.0 |  0.00
Comm    | 2.0504e-05 | 2.0504e-05 | 2.0504e-05 |   0.0 |  0.01
Output  | 0          | 0          | 0          |   0.0 |  0.00
Modify  | 0          | 0          | 0          |   0.0 |  0.00
Other   |            | 0.0006311  |            |       |  0.31

Nlocal:    750 ave 750 max 750 min
Histogram: 1 0 0 0 0 0 0 0 0 0
Nghost:    0 ave 0 max 0 min
Histogram: 1 0 0 0 0 0 0 0 0 0
Neighs:    65272 ave 65272 max 65272 min
Histogram: 1 0 0 0 0 0 0 0 0 0

Total # of neighbors = 65272
Ave neighs/atom = 87.0293
Ave special neighs/atom = 10.728
Neighbor list builds = 0
Dangerous builds = 0
write_dump all custom pysimm.dump.tmp id q x y z vx vy vz
quit
