pySIMM System Object

1427 atoms
1578 bonds
2736 angles
4214 dihedrals
456 impropers

10 atom types
13 bond types
22 angle types
9 dihedral types
4 improper types

-175.295714 175.295714 xlo xhi
-175.295714 175.295714 ylo yhi
-175.295714 175.295714 zlo zhi

Masses

   1	12.01	# ca
   2	16.0	# o
   3	12.01	# c
   4	14.01	# n
   5	12.01	# c3
   6	19.0	# f
   7	12.01	# cp
   8	1.008	# ha
   9	1.008	# hn
  10	1.008	# hc

Pair Coeffs

   1	0.086	3.3996695084235347	# ca
   2	0.21	2.959921901149463	# o
   3	0.086	3.3996695084235347	# c
   4	0.17	3.249998523775958	# n
   5	0.1094	3.3996695084235347	# c3
   6	0.061	3.1181455134911875	# f
   7	0.086	3.3996695084235347	# cp
   8	0.015	2.59964245953351	# ha
   9	0.0157	1.069078461768407	# hn
  10	0.0157	2.649532787749369	# hc

Bond Coeffs

   1	356.9	1.3497	# c3,f
   2	450.2	1.4058	# ca,cp
   3	403.2	1.0129	# hn,n
   4	461.1	1.3984	# ca,ca
   5	427.6	1.3789	# c,n
   6	345.9	1.4906	# c,ca
   7	300.9	1.5375	# c3,c3
   8	330.6	1.0969	# c3,hc
   9	351.4	1.4854	# cp,cp
  10	345.8	1.086	# ca,ha
  11	321.0	1.5156	# c3,ca
  12	384.2	1.4121	# ca,n
  13	637.7	1.2183	# c,o

Angle Coeffs

   1	74.22	123.05	# n,c,o
   2	66.62	120.02	# ca,ca,ca
   3	68.72	122.6	# ca,c,o
   4	67.68	115.25	# ca,c,n
   5	48.33	117.55	# c,n,hn
   6	64.28	120.33	# c,ca,ca
   7	47.98	119.86	# cp,ca,ha
   8	39.4	107.58	# hc,c3,hc
   9	63.53	120.77	# c3,ca,ca
  10	70.89	107.36	# f,c3,f
  11	67.87	120.19	# ca,ca,n
  12	66.72	118.38	# ca,cp,ca
  13	46.8	110.47	# ca,c3,hc
  14	62.86	111.51	# c3,c3,c3
  15	66.11	109.24	# c3,c3,f
  16	63.15	112.07	# c3,c3,ca
  17	63.82	123.71	# c,n,ca
  18	66.26	120.69	# ca,ca,cp
  19	63.56	112.24	# ca,c3,ca
  20	63.74	127.08	# c,n,c
  21	48.18	119.88	# ca,ca,ha
  22	64.05	121.11	# ca,cp,cp

Dihedral Coeffs

   1	2	2.5	2	180	2.0	1	0	# hn,n,c,o
   2	1	3.625	2	180	# X,ca,cp,X
   3	1	1.0	2	180	# X,cp,cp,X
   4	1	3.625	2	180	# X,ca,ca,X
   5	1	1.0	2	180	# X,c,ca,X
   6	1	0.0	2	0	# X,c3,ca,X
   7	1	0.15555555555555556	3	0	# X,c3,c3,X
   8	1	2.5	2	180	# X,c,n,X
   9	1	0.45	2	180	# X,ca,n,X

Improper Coeffs

   1	10.5	-1	2	# c,X,X,o
   2	1.1	-1	2	# n,X,X,hn
   3	1.1	-1	2	# ca,ca,ca,c3
   4	1.1	-1	2	# ca,X,X,ha

Atoms

   1	1	1	-0.015291	-103.006	12.6216	-32.5425
   2	1	1	-0.066451	-104.323	12.1134	-32.7048
   3	1	1	-0.157747	-104.566	11.3362	-33.8812
   4	1	2	-0.394636	-100.24	13.858	-32.8542
   5	1	1	0.035045	-102.079	12.485	-33.5715
   6	1	1	-0.04863	-103.62	11.2335	-34.9274
   7	1	2	-0.369731	-101.302	11.8903	-36.9265
   8	1	1	0.009912	-102.384	11.8622	-34.7598
   9	1	3	0.064933	-100.79	13.1868	-33.713
  10	1	4	0.489832	-100.441	13.033	-35.0495
  11	1	3	0.01974	-101.31	12.1845	-35.743
  12	1	1	-0.15002	-104.626	9.50066	-29.3119
  13	1	5	-0.109385	-105.47	12.4674	-31.6798
  14	1	1	-0.027748	-105.623	11.3515	-30.6128
  15	1	1	-0.058225	-104.593	10.3899	-30.4041
  16	1	1	-0.058862	-105.703	9.5899	-28.4264
  17	1	1	-0.073426	-106.716	11.3775	-29.706
  18	1	1	-0.053817	-106.724	10.4945	-28.6218
  19	1	5	0.313225	-106.819	12.695	-32.4859
  20	1	5	0.370299	-105.129	13.7935	-30.8754
  21	1	6	-0.09626	-107.795	13.3453	-31.8167
  22	1	6	-0.107747	-107.387	11.5258	-32.8561
  23	1	6	-0.102822	-106.607	13.4241	-33.6056
  24	1	6	-0.119294	-104.777	14.8057	-31.6999
  25	1	6	-0.123874	-104.124	13.6023	-29.9895
  26	1	6	-0.116977	-106.136	14.2584	-30.1043
  27	1	3	0.454578	-107.679	10.377	-27.4844
  28	1	3	0.475587	-105.965	8.86132	-27.1622
  29	1	4	-0.008375	-107.146	9.39373	-26.6606
  30	1	2	-0.468822	-108.709	11.0103	-27.3339
  31	1	2	-0.475809	-105.27	7.98435	-26.6792
  32	1	1	-0.104577	-107.726	8.91581	-25.4506
  33	1	1	0.090513	-108.777	7.97293	-25.5114
  34	1	1	0.041176	-107.126	9.23178	-24.2047
  35	1	1	0.130327	-107.51	8.52378	-23.0399
  36	1	7	-0.071967	-108.518	7.52884	-23.1134
  37	1	1	-0.178735	-109.162	7.29925	-24.3447
  38	1	5	-0.205934	-109.499	7.62196	-26.8081
  39	1	1	-0.139817	-106.124	10.2253	-24.1047
  40	1	1	-0.146593	-105.506	10.5021	-22.8749
  41	1	1	-0.1545	-105.865	9.77708	-21.7316
  42	1	1	-0.172216	-106.86	8.79192	-21.8163
  43	1	7	-0.107816	-108.864	6.66382	-21.9505
  44	1	1	-0.127649	-109.88	7.07562	-21.0608
  45	1	1	-0.062495	-110.216	6.30229	-19.9388
  46	1	1	0.148158	-109.53	5.09704	-19.7004
  47	1	1	-0.091615	-108.512	4.66683	-20.5687
  48	1	1	0.137007	-108.173	5.44791	-21.6966
  49	1	1	-0.133704	-107.14	5.00403	-22.549
  50	1	1	-0.230679	-107.825	3.46497	-20.3055
  51	1	1	-0.154845	-106.456	3.80645	-22.2824
  52	1	1	-0.105714	-106.798	3.03681	-21.161
  53	1	5	-0.373818	-111.296	6.77779	-18.9801
  54	1	8	0.152766	-102.689	13.2131	-31.6956
  55	1	8	0.155405	-105.527	10.865	-34.0517
  56	1	8	0.159938	-103.867	10.7463	-35.8687
  57	1	8	0.168438	-103.819	8.79254	-29.131
  58	1	8	0.13763	-103.726	10.3485	-31.0552
  59	1	8	0.146749	-107.517	12.1063	-29.783
  60	1	8	0.160749	-109.941	6.54324	-24.3956
  61	1	10	0.074263	-109.817	6.57215	-26.8104
  62	1	10	0.076992	-108.881	7.76675	-27.7004
  63	1	10	0.075732	-110.399	8.24033	-26.9198
  64	1	8	0.120118	-105.823	10.8047	-24.9712
  65	1	8	0.145089	-104.743	11.2738	-22.811
  66	1	8	0.146654	-105.377	9.97808	-20.781
  67	1	8	0.147988	-107.124	8.23685	-20.9209
  68	1	8	0.166658	-110.398	8.01263	-21.248
  69	1	8	0.132671	-106.855	5.58609	-23.4207
  70	1	8	0.178371	-108.084	2.86574	-19.4356
  71	1	8	0.137951	-105.658	3.47815	-22.9445
  72	1	8	0.128868	-106.265	2.11177	-20.9553
  73	1	10	0.119422	-110.854	7.10271	-18.0297
  74	1	10	0.137967	-112.009	5.97334	-18.7622
  75	1	10	0.115874	-111.865	7.62227	-19.3895
  76	1	1	-0.015291	-85.7935	23.9475	-36.2958
  77	1	1	-0.066451	-87.1715	23.7557	-35.9721
  78	1	1	-0.157747	-87.9815	24.9238	-35.8805
  79	1	2	-0.394636	-82.916	24.9943	-36.8811
  80	1	1	0.035045	-85.2993	25.2395	-36.5362
  81	1	1	-0.04863	-87.4751	26.2149	-36.1652
  82	1	2	-0.369731	-85.6917	28.7094	-36.8082
  83	1	1	0.009912	-86.1192	26.3452	-36.491
  84	1	3	0.064933	-83.9064	25.7024	-36.8069
  85	1	4	0.489832	-83.9829	27.0933	-36.9279
  86	1	3	0.01974	-85.2908	27.5587	-36.7586
  87	1	1	-0.15002	-91.1875	22.5473	-37.4172
  88	1	5	-0.109385	-87.7382	22.3464	-35.5545
  89	1	1	-0.027748	-89.2578	22.1472	-35.9059
  90	1	1	-0.058225	-89.8427	22.7763	-37.0419
  91	1	1	-0.058862	-91.9423	21.6302	-36.6739
  92	1	1	-0.073426	-90.0631	21.2042	-35.2005
  93	1	1	-0.053817	-91.3814	20.96	-35.6104
  94	1	5	0.313225	-87.4992	22.2493	-33.9973
  95	1	5	0.370299	-86.9808	21.1723	-36.2906
  96	1	6	-0.09626	-88.4059	22.9938	-33.3246
  97	1	6	-0.107747	-86.2808	22.7132	-33.6366
  98	1	6	-0.102822	-87.5647	20.9904	-33.5095
  99	1	6	-0.119294	-86.8781	21.4254	-37.6149
 100	1	6	-0.123874	-87.6227	19.9869	-36.1806
 101	1	6	-0.116977	-85.7338	20.952	-35.8177
 102	1	3	0.454578	-92.3465	19.9178	-35.1571
 103	1	3	0.475587	-93.3048	21.0667	-36.911
 104	1	4	-0.008375	-93.4423	20.015	-36.0088
 105	1	2	-0.468822	-92.147	19.0837	-34.2912
 106	1	2	-0.475809	-94.0721	21.3944	-37.7992
 107	1	1	-0.104577	-94.4823	19.028	-36.0744
 108	1	1	0.090513	-95.5323	19.0286	-35.1275
 109	1	1	0.041176	-94.447	18.0161	-37.0719
 110	1	1	0.130327	-95.4553	17.017	-37.1164
 111	1	7	-0.071967	-96.5011	17.0093	-36.1573
 112	1	1	-0.178735	-96.5192	18.0292	-35.1805
 113	1	5	-0.205934	-95.6293	20.0873	-34.0357
 114	1	1	-0.139817	-93.4072	17.975	-38.0309
 115	1	1	-0.146593	-93.3791	16.9854	-39.0243
 116	1	1	-0.1545	-94.3866	16.0155	-39.0768
 117	1	1	-0.172216	-95.4164	16.0315	-38.1262
 118	1	7	-0.107816	-97.5421	15.9305	-36.0939
 119	1	1	-0.127649	-97.1554	14.642	-35.6643
 120	1	1	-0.062495	-98.095	13.6278	-35.4269
 121	1	1	0.148158	-99.4693	13.8973	-35.6233
 122	1	1	-0.091615	-99.8802	15.1568	-36.1357
 123	1	1	0.137007	-98.9156	16.1709	-36.3644
 124	1	1	-0.133704	-99.3365	17.4312	-36.8397
 125	1	1	-0.230679	-101.248	15.4408	-36.3811
 126	1	1	-0.154845	-100.692	17.6941	-37.0853
 127	1	1	-0.105714	-101.647	16.6979	-36.8561
 128	1	5	-0.373818	-97.5783	12.3003	-34.8749
 129	1	8	0.152766	-85.0805	23.1324	-36.3174
 130	1	8	0.155405	-89.0177	24.8384	-35.5615
 131	1	8	0.159938	-88.1071	27.0975	-36.0952
 132	1	8	0.168438	-91.6157	23.0229	-38.2976
 133	1	8	0.13763	-89.2417	23.4318	-37.6657
 134	1	8	0.146749	-89.6749	20.5985	-34.3903
 135	1	8	0.160749	-97.3132	18.0225	-34.4381
 136	1	10	0.074263	-96.3555	19.8031	-33.2637
 137	1	10	0.076992	-95.9505	21.0494	-34.4528
 138	1	10	0.075732	-94.6696	20.2343	-33.5267
 139	1	8	0.120118	-92.6086	18.7077	-38.0279
 140	1	8	0.145089	-92.5771	16.9759	-39.7581
 141	1	8	0.146654	-94.3714	15.2532	-39.8522
 142	1	8	0.147988	-96.1942	15.2765	-38.1877
 143	1	8	0.166658	-96.1058	14.4552	-35.4495
 144	1	8	0.132671	-98.6115	18.2162	-37.0301
 145	1	8	0.178371	-102.024	14.6955	-36.2369
 146	1	8	0.137951	-101.0	18.6687	-37.4551
 147	1	8	0.128868	-102.698	16.8988	-37.0509
 148	1	10	0.119422	-97.1609	12.4356	-33.8681
 149	1	10	0.137967	-96.7765	11.905	-35.5126
 150	1	10	0.115874	-98.3431	11.5173	-34.8138
 151	1	1	-0.015291	-67.4434	32.1422	-40.8841
 152	1	1	-0.066451	-68.386	33.2275	-40.9308
 153	1	1	-0.157747	-67.8971	34.4797	-40.44
 154	1	2	-0.394636	-64.9154	30.2648	-40.7794
 155	1	1	0.035045	-66.1012	32.3641	-40.5022
 156	1	1	-0.04863	-66.5564	34.6804	-40.0383
 157	1	2	-0.369731	-63.501	34.4804	-39.4673
 158	1	1	0.009912	-65.6662	33.6084	-40.1086
 159	1	3	0.064933	-64.9108	31.45	-40.492
 160	1	4	0.489832	-63.8179	32.2321	-40.0864
 161	1	3	0.01974	-64.2012	33.5511	-39.8331
 162	1	1	-0.15002	-72.0892	33.4088	-38.4509
 163	1	5	-0.109385	-69.8197	33.1162	-41.6399
 164	1	1	-0.027748	-71.0335	32.9385	-40.6507
 165	1	1	-0.058225	-70.9633	33.4164	-39.3118
 166	1	1	-0.058862	-73.3092	32.9103	-38.9339
 167	1	1	-0.073426	-72.3003	32.4384	-41.0897
 168	1	1	-0.053817	-73.4054	32.4263	-40.2175
 169	1	5	0.313225	-69.7633	31.9238	-42.6933
 170	1	5	0.370299	-70.1331	34.4505	-42.4403
 171	1	6	-0.09626	-70.7505	31.8941	-43.6141
 172	1	6	-0.107747	-69.8286	30.7244	-42.073
 173	1	6	-0.102822	-68.6292	31.954	-43.4305
 174	1	6	-0.119294	-71.22	34.3723	-43.2396
 175	1	6	-0.123874	-69.0949	34.8273	-43.2199
 176	1	6	-0.116977	-70.4289	35.4875	-41.6248
 177	1	3	0.454578	-74.7994	31.9123	-40.4109
 178	1	3	0.475587	-74.6395	32.7334	-38.2683
 179	1	4	-0.008375	-75.4655	32.1001	-39.1986
 180	1	2	-0.468822	-75.2181	31.3528	-41.4086
 181	1	2	-0.475809	-74.8955	33.0011	-37.1071
 182	1	1	-0.104577	-76.7536	31.5236	-38.8776
 183	1	1	0.090513	-76.8022	30.338	-38.1052
 184	1	1	0.041176	-77.985	32.0966	-39.3067
 185	1	1	0.130327	-79.2324	31.4939	-38.9546
 186	1	7	-0.071967	-79.2764	30.2957	-38.1816
 187	1	1	-0.178735	-78.0369	29.748	-37.7824
 188	1	5	-0.205934	-75.5478	29.6513	-37.5756
 189	1	1	-0.139817	-77.9939	33.2797	-40.0812
 190	1	1	-0.146593	-79.2024	33.8642	-40.4939
 191	1	1	-0.1545	-80.4236	33.2839	-40.1297
 192	1	1	-0.172216	-80.4356	32.1103	-39.3624
 193	1	7	-0.107816	-80.5489	29.5573	-37.8043
 194	1	1	-0.127649	-81.3774	29.029	-38.8226
 195	1	1	-0.062495	-82.5134	28.2448	-38.5398
 196	1	1	0.148158	-82.8499	27.9351	-37.1996
 197	1	1	-0.091615	-82.046	28.4599	-36.1523
 198	1	1	0.137007	-80.9168	29.276	-36.4544
 199	1	1	-0.133704	-80.1633	29.8186	-35.3907
 200	1	1	-0.230679	-82.3538	28.1796	-34.7979
 201	1	1	-0.154845	-80.4859	29.538	-34.0555
 202	1	1	-0.105714	-81.5747	28.7107	-33.7599
 203	1	5	-0.373818	-83.3582	27.7459	-39.7095
 204	1	8	0.152766	-67.6944	31.1392	-41.2068
 205	1	8	0.155405	-68.5328	35.3532	-40.3962
 206	1	8	0.159938	-66.2036	35.6587	-39.7184
 207	1	8	0.168438	-72.0185	33.7842	-37.4319
 208	1	8	0.13763	-70.0336	33.827	-38.9321
 209	1	8	0.146749	-72.467	32.0777	-42.0966
 210	1	8	0.160749	-78.0422	28.8302	-37.2007
 211	1	10	0.074263	-74.6426	29.9041	-38.1372
 212	1	10	0.076992	-75.651	28.5607	-37.6247
 213	1	10	0.075732	-75.3805	29.9243	-36.526
 214	1	8	0.120118	-77.0665	33.7601	-40.3739
 215	1	8	0.145089	-79.1919	34.7734	-41.0904
 216	1	8	0.146654	-81.3607	33.7436	-40.437
 217	1	8	0.147988	-81.3933	31.6888	-39.0745
 218	1	8	0.166658	-81.1108	29.224	-39.8585
 219	1	8	0.132671	-79.3256	30.4787	-35.59
 220	1	8	0.178371	-83.1962	27.5518	-34.5224
 221	1	8	0.137951	-79.8917	29.9646	-33.2512
 222	1	8	0.128868	-81.8208	28.4899	-32.7237
 223	1	10	0.119422	-82.8116	27.8112	-40.6589
 224	1	10	0.137967	-84.2706	28.3487	-39.8163
 225	1	10	0.115874	-83.653	26.6952	-39.5927
 226	1	1	-0.015291	-45.8185	27.3289	-39.0346
 227	1	1	-0.066451	-47.1591	27.6872	-38.7009
 228	1	1	-0.157747	-47.4015	28.1869	-37.3903
 229	1	2	-0.394636	-42.7144	27.0735	-39.2579
 230	1	1	0.035045	-44.797	27.4983	-38.0906
 231	1	1	-0.04863	-46.3659	28.3113	-36.4388
 232	1	2	-0.369731	-43.6482	28.5769	-34.9681
 233	1	1	0.009912	-45.068	27.9663	-36.8231
 234	1	3	0.064933	-43.3164	27.392	-38.2458
 235	1	4	0.489832	-42.7912	27.8361	-37.0312
 236	1	3	0.01974	-43.7836	28.1575	-36.1055
 237	1	1	-0.15002	-51.4953	26.8351	-37.6899
 238	1	5	-0.109385	-48.2906	27.6645	-39.783
 239	1	1	-0.027748	-49.7326	27.7968	-39.1586
 240	1	1	-0.058225	-50.1671	26.8573	-38.1781
 241	1	1	-0.058862	-52.4081	27.7729	-38.193
 242	1	1	-0.073426	-50.6949	28.7494	-39.6107
 243	1	1	-0.053817	-52.0079	28.7105	-39.1174
 244	1	5	0.313225	-48.2772	26.2925	-40.567
 245	1	5	0.370299	-47.9761	28.8438	-40.7882
 246	1	6	-0.09626	-48.1589	25.2412	-39.7249
 247	1	6	-0.107747	-47.2687	26.1744	-41.4581
 248	1	6	-0.102822	-49.4191	26.1055	-41.2672
 249	1	6	-0.119294	-46.7175	28.8188	-41.2796
 250	1	6	-0.123874	-48.0961	30.044	-40.1761
 251	1	6	-0.116977	-48.7859	28.8367	-41.8714
 252	1	3	0.454578	-53.1976	29.5279	-39.4934
 253	1	3	0.475587	-53.8742	27.9548	-37.9543
 254	1	4	-0.008375	-54.2705	29.0113	-38.7731
 255	1	2	-0.468822	-53.2136	30.4342	-40.3075
 256	1	2	-0.475809	-54.5705	27.2757	-37.2205
 257	1	1	-0.104577	-55.6221	29.4908	-38.9068
 258	1	1	0.090513	-56.4465	28.9823	-39.9359
 259	1	1	0.041176	-56.1362	30.505	-38.0586
 260	1	1	0.130327	-57.459	31.0009	-38.245
 261	1	7	-0.071967	-58.3084	30.4653	-39.26
 262	1	1	-0.178735	-57.761	29.4648	-40.097
 263	1	5	-0.205934	-55.9379	27.8972	-40.8773
 264	1	1	-0.139817	-55.3395	31.0368	-37.0182
 265	1	1	-0.146593	-55.829	32.0533	-36.1853
 266	1	1	-0.1545	-57.1177	32.5619	-36.3866
 267	1	1	-0.172216	-57.9237	32.0397	-37.4092
 268	1	7	-0.107816	-59.7546	30.8843	-39.452
 269	1	1	-0.127649	-60.1401	31.5651	-40.6303
 270	1	1	-0.062495	-61.4657	31.9968	-40.8531
 271	1	1	0.148158	-62.4743	31.7453	-39.8867
 272	1	1	-0.091615	-62.1155	31.0557	-38.6971
 273	1	1	0.137007	-60.7733	30.6222	-38.4896
 274	1	1	-0.133704	-60.4555	29.9214	-37.3062
 275	1	1	-0.230679	-63.0842	30.7988	-37.6959
 276	1	1	-0.154845	-61.4254	29.6807	-36.3241
 277	1	1	-0.105714	-62.738	30.1232	-36.5176
 278	1	5	-0.373818	-61.7655	32.7678	-42.1359
 279	1	8	0.152766	-45.5369	26.9993	-40.0291
 280	1	8	0.155405	-48.391	28.5303	-37.1038
 281	1	8	0.159938	-46.5497	28.7253	-35.4498
 282	1	8	0.168438	-51.816	26.0881	-36.9657
 283	1	8	0.13763	-49.47	26.1122	-37.8033
 284	1	8	0.146749	-50.4794	29.4992	-40.3624
 285	1	8	0.160749	-58.3875	29.0435	-40.8776
 286	1	10	0.074263	-55.6819	26.9857	-40.3227
 287	1	10	0.076992	-55.0445	28.2314	-41.4195
 288	1	10	0.075732	-56.6896	27.624	-41.6275
 289	1	8	0.120118	-54.3349	30.6695	-36.8381
 290	1	8	0.145089	-55.2053	32.4517	-35.3886
 291	1	8	0.146654	-57.4945	33.3594	-35.7503
 292	1	8	0.147988	-58.9175	32.4534	-37.5508
 293	1	8	0.166658	-59.3759	31.7815	-41.373
 294	1	8	0.132671	-59.4478	29.5575	-37.1333
 295	1	8	0.178371	-64.1184	31.1095	-37.8083
 296	1	8	0.137951	-61.1569	29.1493	-35.4147
 297	1	8	0.128868	-63.4906	29.9343	-35.7561
 298	1	10	0.119422	-60.9425	32.6901	-42.8584
 299	1	10	0.137967	-61.9091	33.837	-41.9257
 300	1	10	0.115874	-62.6653	32.3926	-42.6401
 301	1	1	-0.015291	-27.5329	28.7104	-27.6234
 302	1	1	-0.066451	-28.381	28.6093	-28.7621
 303	1	1	-0.157747	-28.9003	27.3165	-29.0766
 304	1	2	-0.394636	-25.8367	28.2916	-25.0568
 305	1	1	0.035045	-27.1912	27.5556	-26.912
 306	1	1	-0.04863	-28.478	26.1565	-28.3966
 307	1	2	-0.369731	-26.9306	24.0818	-26.703
 308	1	1	0.009912	-27.5909	26.3088	-27.3331
 309	1	3	0.064933	-26.3027	27.3894	-25.7337
 310	1	4	0.489832	-26.1411	26.0083	-25.5852
 311	1	3	0.01974	-26.8892	25.2875	-26.5217
 312	1	1	-0.15002	-30.2361	28.1913	-32.8554
 313	1	5	-0.109385	-28.6276	29.8514	-29.6849
 314	1	1	-0.027748	-29.6665	29.5131	-30.825
 315	1	1	-0.058225	-29.3225	28.5891	-31.8601
 316	1	1	-0.058862	-31.5078	28.7636	-32.8445
 317	1	1	-0.073426	-30.977	30.0788	-30.8807
 318	1	1	-0.053817	-31.857	29.7051	-31.9051
 319	1	5	0.313225	-27.2486	30.2381	-30.3634
 320	1	5	0.370299	-29.1286	31.0836	-28.8189
 321	1	6	-0.09626	-26.3633	30.8247	-29.5289
 322	1	6	-0.107747	-27.4252	31.0845	-31.4024
 323	1	6	-0.102822	-26.5868	29.1583	-30.8361
 324	1	6	-0.119294	-30.2193	30.7544	-28.0908
 325	1	6	-0.123874	-29.4334	32.1517	-29.5908
 326	1	6	-0.116977	-28.2449	31.5556	-27.9143
 327	1	3	0.454578	-33.2528	30.1465	-32.1898
 328	1	3	0.475587	-32.6786	28.5214	-33.723
 329	1	4	-0.008375	-33.671	29.3898	-33.2812
 330	1	2	-0.468822	-33.878	30.9933	-31.5757
 331	1	2	-0.475809	-32.7445	27.6891	-34.611
 332	1	1	-0.104577	-34.9674	29.4369	-33.887
 333	1	1	0.090513	-36.0848	28.9286	-33.1895
 334	1	1	0.041176	-35.1094	29.8241	-35.2453
 335	1	1	0.130327	-36.3354	29.6033	-35.9283
 336	1	7	-0.071967	-37.4706	29.1052	-35.2234
 337	1	1	-0.178735	-37.3139	28.8005	-33.8524
 338	1	5	-0.205934	-35.9906	28.4584	-31.7416
 339	1	1	-0.139817	-34.0239	30.4011	-35.9462
 340	1	1	-0.146593	-34.1267	30.707	-37.3101
 341	1	1	-0.1545	-35.3058	30.4111	-38.0026
 342	1	1	-0.172216	-36.3955	29.854	-37.3173
 343	1	7	-0.107816	-38.8127	28.8139	-35.8432
 344	1	1	-0.127649	-39.3326	27.5103	-35.676
 345	1	1	-0.062495	-40.6187	27.1559	-36.1098
 346	1	1	0.148158	-41.4148	28.1122	-36.7788
 347	1	1	-0.091615	-40.8922	29.4063	-37.037
 348	1	1	0.137007	-39.6186	29.7727	-36.525
 349	1	1	-0.133704	-39.1856	31.1087	-36.6757
 350	1	1	-0.230679	-41.6428	30.3557	-37.7741
 351	1	1	-0.154845	-39.9369	32.0374	-37.41
 352	1	1	-0.105714	-41.156	31.6537	-37.9781
 353	1	5	-0.373818	-41.1192	25.7428	-35.8212
 354	1	8	0.152766	-27.0828	29.6438	-27.3073
 355	1	8	0.155405	-29.606	27.1667	-29.8833
 356	1	8	0.159938	-28.8115	25.1653	-28.6968
 357	1	8	0.168438	-29.9693	27.4517	-33.6085
 358	1	8	0.13763	-28.3555	28.1014	-31.8679
 359	1	8	0.146749	-31.3505	30.7947	-30.1584
 360	1	8	0.160749	-38.1702	28.4194	-33.3033
 361	1	10	0.074263	-35.7959	29.2988	-31.0645
 362	1	10	0.076992	-35.1912	27.7188	-31.6136
 363	1	10	0.075732	-36.9228	27.9887	-31.4055
 364	1	8	0.120118	-33.0887	30.6256	-35.4447
 365	1	8	0.145089	-33.2826	31.1495	-37.8335
 366	1	8	0.146654	-35.3784	30.6164	-39.0681
 367	1	8	0.147988	-37.2944	29.6219	-37.8783
 368	1	8	0.166658	-38.7236	26.7697	-35.1637
 369	1	8	0.132671	-38.2527	31.4389	-36.2324
 370	1	8	0.178371	-42.6	30.1042	-38.2213
 371	1	8	0.137951	-39.5705	33.0524	-37.5411
 372	1	8	0.128868	-41.7335	32.3686	-38.5598
 373	1	10	0.119422	-40.4657	25.2211	-35.1098
 374	1	10	0.137967	-41.1441	25.1394	-36.7389
 375	1	10	0.115874	-42.1239	25.7421	-35.3796
 376	1	1	-0.015291	-14.1522	15.0149	-16.8356
 377	1	1	-0.066451	-15.4352	15.5764	-17.0797
 378	1	1	-0.157747	-16.5536	14.6948	-16.9787
 379	1	2	-0.394636	-11.7333	13.4151	-15.876
 380	1	1	0.035045	-14.0306	13.6593	-16.5399
 381	1	1	-0.04863	-16.4014	13.3055	-16.7429
 382	1	2	-0.369731	-15.3036	10.4445	-16.0359
 383	1	1	0.009912	-15.1104	12.8085	-16.528
 384	1	3	0.064933	-12.834	12.9263	-16.0747
 385	1	4	0.489832	-13.2654	11.6215	-15.8393
 386	1	3	0.01974	-14.6269	11.4552	-16.1265
 387	1	1	-0.15002	-18.3763	17.0581	-20.0197
 388	1	5	-0.109385	-15.6196	17.1314	-17.2131
 389	1	1	-0.027748	-16.7644	17.5509	-18.1983
 390	1	1	-0.058225	-17.3085	16.6688	-19.1776
 391	1	1	-0.058862	-18.8394	18.3772	-19.9357
 392	1	1	-0.073426	-17.2482	18.8889	-18.1889
 393	1	1	-0.053817	-18.2468	19.2769	-19.0829
 394	1	5	0.313225	-14.2975	17.8386	-17.726
 395	1	5	0.370299	-15.9568	17.6193	-15.7502
 396	1	6	-0.09626	-13.8124	17.211	-18.8211
 397	1	6	-0.107747	-13.3149	17.8812	-16.7982
 398	1	6	-0.102822	-14.4737	19.1275	-18.089
 399	1	6	-0.119294	-15.8043	18.9485	-15.565
 400	1	6	-0.123874	-15.171	17.0273	-14.8214
 401	1	6	-0.116977	-17.2334	17.3147	-15.4234
 402	1	3	0.454578	-18.8257	20.6222	-19.3326
 403	1	3	0.475587	-19.8925	19.1016	-20.699
 404	1	4	-0.008375	-19.8054	20.4361	-20.3009
 405	1	2	-0.468822	-18.4637	21.6644	-18.8147
 406	1	2	-0.475809	-20.6551	18.6046	-21.5103
 407	1	1	-0.104577	-20.5918	21.4856	-20.8796
 408	1	1	0.090513	-20.4792	21.7343	-22.2683
 409	1	1	0.041176	-21.5084	22.254	-20.1074
 410	1	1	0.130327	-22.3614	23.1909	-20.7485
 411	1	7	-0.071967	-22.3634	23.3031	-22.1654
 412	1	1	-0.178735	-21.3784	22.6066	-22.8914
 413	1	5	-0.205934	-19.4366	21.0549	-23.1503
 414	1	1	-0.139817	-21.6118	22.0991	-18.7039
 415	1	1	-0.146593	-22.4845	22.8969	-17.9481
 416	1	1	-0.1545	-23.2893	23.8506	-18.5813
 417	1	1	-0.172216	-23.2344	23.9866	-19.9749
 418	1	7	-0.107816	-23.3996	24.0545	-22.9452
 419	1	1	-0.127649	-22.9696	25.0383	-23.8556
 420	1	1	-0.062495	-23.8606	25.6836	-24.7226
 421	1	1	0.148158	-25.2494	25.3957	-24.6494
 422	1	1	-0.091615	-25.7149	24.4239	-23.719
 423	1	1	0.137007	-24.7835	23.7218	-22.9096
 424	1	1	-0.133704	-25.2425	22.6573	-22.1011
 425	1	1	-0.230679	-27.0923	24.1006	-23.6111
 426	1	1	-0.154845	-26.6016	22.3265	-22.0356
 427	1	1	-0.105714	-27.5293	23.0606	-22.7788
 428	1	5	-0.373818	-23.2553	26.6497	-25.7413
 429	1	8	0.152766	-13.2427	15.598	-16.7932
 430	1	8	0.155405	-17.563	15.0925	-17.0554
 431	1	8	0.159938	-17.2625	12.6451	-16.6631
 432	1	8	0.168438	-18.81	16.368	-20.7414
 433	1	8	0.13763	-16.9119	15.6655	-19.2965
 434	1	8	0.146749	-16.8386	19.6527	-17.5376
 435	1	8	0.160749	-21.3497	22.7105	-23.9723
 436	1	10	0.074263	-18.5074	20.8468	-22.6073
 437	1	10	0.076992	-19.1667	21.6914	-24.0021
 438	1	10	0.075732	-19.8215	20.1108	-23.555
 439	1	8	0.120118	-21.006	21.3781	-18.1697
 440	1	8	0.145089	-22.5276	22.7813	-16.8678
 441	1	8	0.146654	-23.9598	24.4765	-17.9966
 442	1	8	0.147988	-23.871	24.7246	-20.454
 443	1	8	0.166658	-21.9093	25.2722	-23.9075
 444	1	8	0.132671	-24.5482	22.0581	-21.5238
 445	1	8	0.178371	-27.8499	24.6201	-24.1887
 446	1	8	0.137951	-26.9315	21.5006	-21.4105
 447	1	8	0.128868	-28.5852	22.8049	-22.7306
 448	1	10	0.119422	-22.1792	26.4793	-25.8713
 449	1	10	0.137967	-23.3719	27.6925	-25.4154
 450	1	10	0.115874	-23.7078	26.5474	-26.735
 451	1	1	-0.015291	0.237931	2.87848	-9.52695
 452	1	1	-0.066451	0.698547	3.15972	-10.8435
 453	1	1	-0.157747	1.57702	2.21439	-11.4541
 454	1	2	-0.394636	-0.163936	1.85607	-6.6083
 455	1	1	0.035045	0.685794	1.72455	-8.87155
 456	1	1	-0.04863	1.98422	1.03908	-10.7918
 457	1	2	-0.369731	2.5901	-1.20962	-8.74986
 458	1	1	0.009912	1.52298	0.823581	-9.49412
 459	1	3	0.064933	0.480184	1.2766	-7.46676
 460	1	4	0.489832	1.23767	0.111094	-7.34335
 461	1	3	0.01974	1.86462	-0.252308	-8.5347
 462	1	1	-0.15002	-3.37346	3.17583	-12.106
 463	1	5	-0.109385	0.247565	4.48669	-11.5438
 464	1	1	-0.027748	-1.29932	4.47006	-11.7056
 465	1	1	-0.058225	-1.98083	3.23339	-11.8936
 466	1	1	-0.058862	-4.08152	4.38054	-12.155
 467	1	1	-0.073426	-2.05467	5.66991	-11.7921
 468	1	1	-0.053817	-3.43482	5.59034	-12.0232
 469	1	5	0.313225	0.834851	4.65951	-12.998
 470	1	5	0.370299	0.760294	5.68251	-10.6394
 471	1	6	-0.09626	0.376699	5.77134	-13.6167
 472	1	6	-0.107747	0.474712	3.63674	-13.8071
 473	1	6	-0.102822	2.18515	4.74063	-13.0038
 474	1	6	-0.119294	2.02992	5.4727	-10.2224
 475	1	6	-0.123874	0.0068926	5.8394	-9.52833
 476	1	6	-0.116977	0.763628	6.88616	-11.2533
 477	1	3	0.454578	-4.43394	6.67066	-12.2362
 478	1	3	0.475587	-5.52323	4.64517	-12.4158
 479	1	4	-0.008375	-5.64898	6.03023	-12.4701
 480	1	2	-0.468822	-4.19986	7.8663	-12.2505
 481	1	2	-0.475809	-6.38489	3.80169	-12.5957
 482	1	1	-0.104577	-6.85695	6.71902	-12.8219
 483	1	1	0.090513	-7.3932	6.5601	-14.12
 484	1	1	0.041176	-7.4765	7.62959	-11.9244
 485	1	1	0.130327	-8.58442	8.41415	-12.3507
 486	1	7	-0.071967	-9.17963	8.18919	-13.6308
 487	1	1	-0.178735	-8.55695	7.25011	-14.4819
 488	1	5	-0.205934	-6.74067	5.68186	-15.1828
 489	1	1	-0.139817	-6.9834	7.79386	-10.6078
 490	1	1	-0.146593	-7.52554	8.75816	-9.74682
 491	1	1	-0.1545	-8.54779	9.5979	-10.1997
 492	1	1	-0.172216	-9.0599	9.43398	-11.4943
 493	1	7	-0.107816	-10.3599	8.95292	-14.1835
 494	1	1	-0.127649	-10.2352	9.49118	-15.4829
 495	1	1	-0.062495	-11.2403	10.267	-16.0722
 496	1	1	0.148158	-12.3835	10.6238	-15.3167
 497	1	1	-0.091615	-12.5671	10.0577	-14.0242
 498	1	1	0.137007	-11.5926	9.16486	-13.4984
 499	1	1	-0.133704	-11.8554	8.50496	-12.2781
 500	1	1	-0.230679	-13.7052	10.3657	-13.237
 501	1	1	-0.154845	-13.0042	8.79345	-11.5296
 502	1	1	-0.105714	-13.9163	9.74376	-11.9984
 503	1	5	-0.373818	-11.0185	10.7326	-17.5109
 504	1	8	0.152766	-0.434044	3.54822	-8.99942
 505	1	8	0.155405	1.98231	2.36967	-12.4471
 506	1	8	0.159938	2.6698	0.332756	-11.2557
 507	1	8	0.168438	-3.88404	2.22709	-12.2598
 508	1	8	0.13763	-1.42777	2.29829	-11.903
 509	1	8	0.146749	-1.59559	6.65104	-11.7209
 510	1	8	0.160749	-8.97725	7.07712	-15.4679
 511	1	10	0.074263	-7.08459	4.64373	-15.0973
 512	1	10	0.076992	-5.64682	5.69093	-15.1139
 513	1	10	0.075732	-6.99121	6.03048	-16.1923
 514	1	8	0.120118	-6.16903	7.18402	-10.2334
 515	1	8	0.145089	-7.12878	8.87562	-8.74122
 516	1	8	0.146654	-8.94611	10.374	-9.54982
 517	1	8	0.147988	-9.83624	10.1147	-11.8251
 518	1	8	0.166658	-9.31697	9.32089	-16.0381
 519	1	8	0.132671	-11.159	7.76672	-11.8936
 520	1	8	0.178371	-14.4613	11.0682	-13.5713
 521	1	8	0.137951	-13.1792	8.28857	-10.5829
 522	1	8	0.128868	-14.8027	9.9791	-11.4138
 523	1	10	0.119422	-11.9498	10.7417	-18.091
 524	1	10	0.137967	-10.3276	10.0671	-18.0446
 525	1	10	0.115874	-10.5821	11.7398	-17.5423
 526	1	1	-0.015291	5.39224	-10.0851	5.79142
 527	1	1	-0.066451	5.17954	-11.1275	4.84549
 528	1	1	-0.157747	5.84757	-12.3695	5.04918
 529	1	2	-0.394636	6.47495	-8.18832	8.04487
 530	1	1	0.035045	6.29403	-10.291	6.84503
 531	1	1	-0.04863	6.74421	-12.5592	6.11549
 532	1	2	-0.369731	8.71369	-12.2397	8.44824
 533	1	1	0.009912	6.95527	-11.4935	6.9867
 534	1	3	0.064933	6.80556	-9.35201	7.88711
 535	1	4	0.489832	7.79038	-10.075	8.56354
 536	1	3	0.01974	7.9197	-11.3814	8.09708
 537	1	1	-0.15002	6.16115	-7.82023	2.26005
 538	1	5	-0.109385	4.21487	-10.8915	3.64287
 539	1	1	-0.027748	4.49651	-9.48902	3.02643
 540	1	1	-0.058225	5.8386	-9.02215	2.92298
 541	1	1	-0.058862	5.11978	-7.09532	1.67211
 542	1	1	-0.073426	3.47143	-8.7155	2.4205
 543	1	1	-0.053817	3.81459	-7.5333	1.75327
 544	1	5	0.313225	2.75706	-11.0431	4.22127
 545	1	5	0.370299	4.41855	-11.9121	2.45541
 546	1	6	-0.09626	2.42403	-9.98702	4.99669
 547	1	6	-0.107747	2.64574	-12.1431	5.00096
 548	1	6	-0.102822	1.80302	-11.1592	3.27068
 549	1	6	-0.119294	3.73548	-11.5431	1.34752
 550	1	6	-0.123874	4.00769	-13.167	2.74677
 551	1	6	-0.116977	5.71709	-11.9837	2.08247
 552	1	3	0.454578	2.97335	-6.64129	0.913308
 553	1	3	0.475587	5.15783	-5.90592	0.777043
 554	1	4	-0.008375	3.8529	-5.73697	0.330823
 555	1	2	-0.468822	1.7804	-6.76976	0.701065
 556	1	2	-0.475809	6.15335	-5.28908	0.439528
 557	1	1	-0.104577	3.47968	-4.85526	-0.728422
 558	1	1	0.090513	3.22167	-3.49463	-0.456366
 559	1	1	0.041176	3.35526	-5.3467	-2.05323
 560	1	1	0.130327	2.94569	-4.47684	-3.09448
 561	1	7	-0.071967	2.64782	-3.11472	-2.81577
 562	1	1	-0.178735	2.81403	-2.64277	-1.49637
 563	1	5	-0.205934	3.36542	-2.93047	0.950852
 564	1	1	-0.139817	3.63582	-6.70002	-2.35996
 565	1	1	-0.146593	3.5173	-7.18189	-3.67175
 566	1	1	-0.1545	3.12374	-6.31868	-4.70041
 567	1	1	-0.172216	2.84225	-4.97575	-4.41229
 568	1	7	-0.107816	2.17236	-2.17822	-3.88229
 569	1	1	-0.127649	3.07654	-1.23218	-4.40328
 570	1	1	-0.062495	2.74117	-0.428971	-5.50226
 571	1	1	0.148158	1.4763	-0.578369	-6.1206
 572	1	1	-0.091615	0.520737	-1.47146	-5.57229
 573	1	1	0.137007	0.871421	-2.26455	-4.44942
 574	1	1	-0.133704	-0.0772941	-3.15962	-3.91143
 575	1	1	-0.230679	-0.772646	-1.60301	-6.13425
 576	1	1	-0.154845	-1.35935	-3.26932	-4.46797
 577	1	1	-0.105714	-1.70606	-2.49196	-5.57941
 578	1	5	-0.373818	3.78857	0.550228	-6.02928
 579	1	8	0.152766	4.90337	-9.1193	5.69088
 580	1	8	0.155405	5.70423	-13.2095	4.38006
 581	1	8	0.159938	7.28372	-13.4948	6.24931
 582	1	8	0.168438	7.19372	-7.49196	2.15408
 583	1	8	0.13763	6.65459	-9.61952	3.32216
 584	1	8	0.146749	2.43622	-9.03844	2.39253
 585	1	8	0.160749	2.60071	-1.59916	-1.2836
 586	1	10	0.074263	4.40984	-2.97537	1.28437
 587	1	10	0.076992	2.75121	-3.49082	1.66623
 588	1	10	0.075732	3.05003	-1.88132	1.00193
 589	1	8	0.120118	3.95138	-7.3979	-1.59252
 590	1	8	0.145089	3.7348	-8.22457	-3.89053
 591	1	8	0.146654	3.03732	-6.68722	-5.72005
 592	1	8	0.147988	2.54683	-4.32327	-5.228
 593	1	8	0.166658	4.07148	-1.16529	-3.97031
 594	1	8	0.132671	0.1699	-3.77054	-3.04846
 595	1	8	0.178371	-1.08635	-1.00843	-6.98737
 596	1	8	0.137951	-2.08228	-3.95628	-4.03513
 597	1	8	0.128868	-2.70236	-2.57653	-6.00715
 598	1	10	0.119422	4.25871	0.171123	-6.94692
 599	1	10	0.137967	4.59207	0.714484	-5.30002
 600	1	10	0.115874	3.35553	1.53559	-6.24597
 601	1	1	-0.015291	23.6267	-13.8222	6.69585
 602	1	1	-0.066451	22.243	-13.7688	7.01015
 603	1	1	-0.157747	21.3325	-14.1434	5.97774
 604	1	2	-0.394636	26.3046	-14.9041	5.82784
 605	1	1	0.035045	24.037	-14.2263	5.4259
 606	1	1	-0.04863	21.7655	-14.4678	4.67137
 607	1	2	-0.369731	23.355	-15.7084	2.33298
 608	1	1	0.009912	23.1403	-14.5048	4.41671
 609	1	3	0.064933	25.3326	-14.8547	5.09044
 610	1	4	0.489832	25.0918	-15.5757	3.92165
 611	1	3	0.01974	23.858	-15.2559	3.34878
 612	1	1	-0.15002	18.4558	-11.6943	7.69012
 613	1	5	-0.109385	21.7832	-13.5747	8.49884
 614	1	1	-0.027748	20.3307	-13.0101	8.6247
 615	1	1	-0.058225	19.7703	-12.1899	7.60477
 616	1	1	-0.058862	17.743	-11.9365	8.86537
 617	1	1	-0.073426	19.5761	-13.1822	9.82211
 618	1	1	-0.053817	18.303	-12.6141	9.92489
 619	1	5	0.313225	22.7014	-12.5366	9.25696
 620	1	5	0.370299	21.8887	-15.0107	9.1509
 621	1	6	-0.09626	23.929	-13.0065	9.56285
 622	1	6	-0.107747	22.1676	-12.1203	10.4274
 623	1	6	-0.102822	22.8722	-11.4255	8.50504
 624	1	6	-0.119294	20.8899	-15.8055	8.70209
 625	1	6	-0.123874	21.83	-15.0153	10.4988
 626	1	6	-0.116977	23.043	-15.6432	8.84062
 627	1	3	0.454578	17.3661	-12.5337	11.0852
 628	1	3	0.475587	16.4075	-11.4581	9.27768
 629	1	4	-0.008375	16.2721	-11.8202	10.6129
 630	1	2	-0.468822	17.5554	-12.9639	12.2098