pySIMM System Object

2327 atoms
2574 bonds
4464 angles
6878 dihedrals
744 impropers

10 atom types
13 bond types
22 angle types
9 dihedral types
4 improper types

-207.836051 207.836051 xlo xhi
-207.836051 207.836051 ylo yhi
-207.836051 207.836051 zlo zhi

Masses

   1	12.01	# ca
   2	16.0	# o
   3	12.01	# c
   4	14.01	# n
   5	12.01	# c3
   6	19.0	# f
   7	12.01	# cp
   8	1.008	# ha
   9	1.008	# hn
  10	1.008	# hc

Pair Coeffs

   1	0.086	3.3996695084235347	# ca
   2	0.21	2.959921901149463	# o
   3	0.086	3.3996695084235347	# c
   4	0.17	3.249998523775958	# n
   5	0.1094	3.3996695084235347	# c3
   6	0.061	3.1181455134911875	# f
   7	0.086	3.3996695084235347	# cp
   8	0.015	2.59964245953351	# ha
   9	0.0157	1.069078461768407	# hn
  10	0.0157	2.649532787749369	# hc

Bond Coeffs

   1	356.9	1.3497	# c3,f
   2	450.2	1.4058	# ca,cp
   3	403.2	1.0129	# hn,n
   4	461.1	1.3984	# ca,ca
   5	427.6	1.3789	# c,n
   6	345.9	1.4906	# c,ca
   7	300.9	1.5375	# c3,c3
   8	330.6	1.0969	# c3,hc
   9	351.4	1.4854	# cp,cp
  10	345.8	1.086	# ca,ha
  11	321.0	1.5156	# c3,ca
  12	384.2	1.4121	# ca,n
  13	637.7	1.2183	# c,o

Angle Coeffs

   1	74.22	123.05	# n,c,o
   2	66.62	120.02	# ca,ca,ca
   3	68.72	122.6	# ca,c,o
   4	67.68	115.25	# ca,c,n
   5	48.33	117.55	# c,n,hn
   6	64.28	120.33	# c,ca,ca
   7	47.98	119.86	# cp,ca,ha
   8	39.4	107.58	# hc,c3,hc
   9	63.53	120.77	# c3,ca,ca
  10	70.89	107.36	# f,c3,f
  11	67.87	120.19	# ca,ca,n
  12	66.72	118.38	# ca,cp,ca
  13	46.8	110.47	# ca,c3,hc
  14	62.86	111.51	# c3,c3,c3
  15	66.11	109.24	# c3,c3,f
  16	63.15	112.07	# c3,c3,ca
  17	63.82	123.71	# c,n,ca
  18	66.26	120.69	# ca,ca,cp
  19	63.56	112.24	# ca,c3,ca
  20	63.74	127.08	# c,n,c
  21	48.18	119.88	# ca,ca,ha
  22	64.05	121.11	# ca,cp,cp

Dihedral Coeffs

   1	2	2.5	2	180	2.0	1	0	# hn,n,c,o
   2	1	3.625	2	180	# X,ca,cp,X
   3	1	1.0	2	180	# X,cp,cp,X
   4	1	3.625	2	180	# X,ca,ca,X
   5	1	1.0	2	180	# X,c,ca,X
   6	1	0.0	2	0	# X,c3,ca,X
   7	1	0.15555555555555556	3	0	# X,c3,c3,X
   8	1	2.5	2	180	# X,c,n,X
   9	1	0.45	2	180	# X,ca,n,X

Improper Coeffs

   1	10.5	-1	2	# c,X,X,o
   2	1.1	-1	2	# n,X,X,hn
   3	1.1	-1	2	# ca,ca,ca,c3
   4	1.1	-1	2	# ca,X,X,ha

Atoms

   1	1	1	-0.015291	53.8695	-47.7528	-108.424
   2	1	1	-0.066451	55.1751	-48.2212	-108.727
   3	1	1	-0.157747	55.9061	-48.8907	-107.704
   4	1	2	-0.394636	51.1078	-47.084	-107.188
   5	1	1	0.035045	53.3473	-47.9911	-107.15
   6	1	1	-0.04863	55.3622	-49.114	-106.423
   7	1	2	-0.369731	53.534	-49.2999	-103.907
   8	1	1	0.009912	54.0684	-48.6523	-106.176
   9	1	3	0.064933	52.0144	-47.6481	-106.599
  10	1	4	0.489832	52.0268	-48.1424	-105.297
  11	1	3	0.01974	53.2289	-48.7594	-104.957
  12	1	1	-0.15002	56.2587	-51.8071	-110.808
  13	1	5	-0.109385	55.8491	-48.0022	-110.112
  14	1	1	-0.027748	56.4866	-49.3508	-110.555
  15	1	1	-0.058225	55.7483	-50.5586	-110.394
  16	1	1	-0.058862	57.5262	-51.833	-111.399
  17	1	1	-0.073426	57.7628	-49.4235	-111.169
  18	1	1	-0.053817	58.2508	-50.672	-111.569
  19	1	5	0.313225	56.8948	-46.837	-109.911
  20	1	5	0.370299	54.8406	-47.5991	-111.256
  21	1	6	-0.09626	57.3996	-46.3598	-111.071
  22	1	6	-0.107747	57.9449	-47.2257	-109.153
  23	1	6	-0.102822	56.3409	-45.7808	-109.273
  24	1	6	-0.119294	54.3422	-46.3506	-111.11
  25	1	6	-0.123874	53.788	-48.4462	-111.316
  26	1	6	-0.116977	55.4246	-47.6423	-112.475
  27	1	3	0.454578	59.5309	-51.0164	-112.232
  28	1	3	0.475587	58.3208	-52.9642	-111.956
  29	1	4	-0.008375	59.491	-52.3887	-112.436
  30	1	2	-0.468822	60.4231	-50.239	-112.523
  31	1	2	-0.475809	57.9976	-54.1392	-111.974
  32	1	1	-0.104577	60.5513	-53.093	-113.077
  33	1	1	0.090513	61.5436	-53.7142	-112.29
  34	1	1	0.041176	60.6835	-53.0595	-114.488
  35	1	1	0.130327	61.8406	-53.6016	-115.101
  36	1	7	-0.071967	62.8638	-54.1845	-114.306
  37	1	1	-0.178735	62.6814	-54.2515	-112.909
  38	1	5	-0.205934	61.4365	-53.7622	-110.771
  39	1	1	-0.139817	59.6873	-52.4666	-115.298
  40	1	1	-0.146593	59.832	-52.4172	-116.693
  41	1	1	-0.1545	60.9751	-52.9549	-117.298
  42	1	1	-0.172216	61.9728	-53.5418	-116.505
  43	1	7	-0.107816	64.1781	-54.6107	-114.876
  44	1	1	-0.127649	65.0781	-53.6023	-115.291
  45	1	1	-0.062495	66.3484	-53.9162	-115.793
  46	1	1	0.148158	66.7349	-55.2642	-115.889
  47	1	1	-0.091615	65.8611	-56.2898	-115.487
  48	1	1	0.137007	64.5804	-55.9702	-114.978
  49	1	1	-0.133704	63.7206	-57.019	-114.593
  50	1	1	-0.230679	66.2704	-57.6332	-115.594
  51	1	1	-0.154845	64.1308	-58.3587	-114.704
  52	1	1	-0.105714	65.4059	-58.6663	-115.202
  53	1	5	-0.373818	67.2847	-52.7958	-116.219
  54	1	8	0.152766	53.2502	-47.2204	-109.137
  55	1	8	0.155405	56.9143	-49.2469	-107.904
  56	1	8	0.159938	55.9222	-49.6309	-105.646
  57	1	8	0.168438	55.6844	-52.7236	-110.685
  58	1	8	0.13763	54.7571	-50.5302	-109.947
  59	1	8	0.146749	58.3764	-48.5483	-111.355
  60	1	8	0.160749	63.4705	-54.6828	-112.299
  61	1	10	0.074263	60.534	-54.3028	-110.459
  62	1	10	0.076992	61.398	-52.7521	-110.345
  63	1	10	0.075732	62.2943	-54.2751	-110.319
  64	1	8	0.120118	58.7876	-52.0446	-114.863
  65	1	8	0.145089	59.0563	-51.9615	-117.303
  66	1	8	0.146654	61.0881	-52.9188	-118.379
  67	1	8	0.147988	62.8489	-53.9602	-116.991
  68	1	8	0.166658	64.7804	-52.5599	-115.206
  69	1	8	0.132671	62.727	-56.8008	-114.213
  70	1	8	0.178371	67.2565	-57.8754	-115.983
  71	1	8	0.137951	63.4579	-59.1583	-114.406
  72	1	8	0.128868	65.7217	-59.7035	-115.288
  73	1	10	0.119422	66.9614	-52.3579	-117.172
  74	1	10	0.137967	68.3147	-53.1524	-116.347
  75	1	10	0.115874	67.3052	-51.9943	-115.47
  76	1	1	-0.015291	37.4983	-49.6747	-94.4988
  77	1	1	-0.066451	37.9729	-49.6806	-95.8368
  78	1	1	-0.157747	37.4044	-48.7528	-96.7569
  79	1	2	-0.394636	36.3322	-48.9577	-91.7339
  80	1	1	0.035045	36.5497	-48.7205	-94.1262
  81	1	1	-0.04863	36.4399	-47.8045	-96.3607
  82	1	2	-0.369731	34.636	-45.8557	-94.7436
  83	1	1	0.009912	36.0435	-47.802	-95.0231
  84	1	3	0.064933	36.0406	-48.3921	-92.775
  85	1	4	0.489832	35.2695	-47.2475	-92.9537
  86	1	3	0.01974	35.1914	-46.839	-94.2831
  87	1	1	-0.15002	41.4383	-47.5195	-96.9572
  88	1	5	-0.109385	39.1419	-50.5926	-96.3161
  89	1	1	-0.027748	40.2195	-49.6777	-96.9655
  90	1	1	-0.058225	40.4538	-48.377	-96.4303
  91	1	1	-0.058862	42.2182	-47.9949	-98.0134
  92	1	1	-0.073426	41.0514	-50.1272	-98.0231
  93	1	1	-0.053817	42.0393	-49.2666	-98.518
  94	1	5	0.313225	38.5151	-51.6415	-97.3152
  95	1	5	0.370299	39.873	-51.357	-95.1466
  96	1	6	-0.09626	38.1826	-51.0767	-98.4974
  97	1	6	-0.107747	37.3803	-52.1783	-96.8113
  98	1	6	-0.102822	39.3301	-52.6808	-97.6013
  99	1	6	-0.119294	40.3059	-50.5049	-94.189
 100	1	6	-0.123874	40.9775	-52.0083	-95.5766
 101	1	6	-0.116977	39.0844	-52.2794	-94.55
 102	1	3	0.454578	43.0921	-49.5094	-99.5377
 103	1	3	0.475587	43.375	-47.3718	-98.7076
 104	1	4	-0.008375	43.8564	-48.3497	-99.5674
 105	1	2	-0.468822	43.2634	-50.5392	-100.167
 106	1	2	-0.475809	43.8333	-46.2628	-98.4946
 107	1	1	-0.104577	45.0543	-48.2178	-100.328
 108	1	1	0.090513	44.9714	-48.0138	-101.721
 109	1	1	0.041176	46.3213	-48.3297	-99.6991
 110	1	1	0.130327	47.5034	-48.2457	-100.476
 111	1	7	-0.071967	47.4206	-48.044	-101.88
 112	1	1	-0.178735	46.1484	-47.9367	-102.478
 113	1	5	-0.205934	43.6291	-47.8837	-102.431
 114	1	1	-0.139817	46.4313	-48.5407	-98.3038
 115	1	1	-0.146593	47.6867	-48.6564	-97.6891
 116	1	1	-0.1545	48.8525	-48.5805	-98.4598
 117	1	1	-0.172216	48.7593	-48.3846	-99.845
 118	1	7	-0.107816	48.6261	-48.0	-102.759
 119	1	1	-0.127649	48.8619	-49.1003	-103.608
 120	1	1	-0.062495	49.9852	-49.1523	-104.442
 121	1	1	0.148158	50.9034	-48.0785	-104.435
 122	1	1	-0.091615	50.6894	-46.9548	-103.599
 123	1	1	0.137007	49.5436	-46.9146	-102.766
 124	1	1	-0.133704	49.3238	-45.7863	-101.948
 125	1	1	-0.230679	51.5987	-45.8691	-103.58
 126	1	1	-0.154845	50.231	-44.7168	-101.938
 127	1	1	-0.105714	51.3695	-44.7601	-102.752
 128	1	5	-0.373818	50.1853	-50.3797	-105.328
 129	1	8	0.152766	37.8794	-50.3357	-93.7283
 130	1	8	0.155405	37.7563	-48.7241	-97.7853
 131	1	8	0.159938	36.0513	-47.0612	-97.0537
 132	1	8	0.168438	41.6155	-46.5312	-96.5367
 133	1	8	0.13763	39.8775	-48.0219	-95.5802
 134	1	8	0.146749	40.9754	-51.1269	-98.4385
 135	1	8	0.160749	46.0861	-47.7903	-103.553
 136	1	10	0.074263	43.7521	-47.5733	-103.476
 137	1	10	0.076992	42.9925	-47.1352	-101.944
 138	1	10	0.075732	43.0939	-48.8415	-102.435
 139	1	8	0.120118	45.552	-48.6144	-97.6738
 140	1	8	0.145089	47.7547	-48.8103	-96.6149
 141	1	8	0.146654	49.8272	-48.6771	-97.9871
 142	1	8	0.147988	49.6756	-48.3409	-100.425
 143	1	8	0.166658	48.1594	-49.9299	-103.597
 144	1	8	0.132671	48.445	-45.7296	-101.313
 145	1	8	0.178371	52.4914	-45.8609	-104.199
 146	1	8	0.137951	50.0493	-43.8554	-101.3
 147	1	8	0.128868	52.0726	-43.9303	-102.744
 148	1	10	0.119422	49.3498	-51.0859	-105.238
 149	1	10	0.137967	51.0967	-50.9268	-105.051
 150	1	10	0.115874	50.2544	-50.1039	-106.389
 151	1	1	-0.015291	33.0227	-36.4339	-78.7548
 152	1	1	-0.066451	33.1924	-37.2275	-79.9174
 153	1	1	-0.157747	32.4623	-36.8734	-81.0895
 154	1	2	-0.394636	32.512	-34.1717	-76.7279
 155	1	1	0.035045	32.1542	-35.34	-78.807
 156	1	1	-0.04863	31.5877	-35.7695	-81.118
 157	1	2	-0.369731	30.2066	-33.0465	-80.5974
 158	1	1	0.009912	31.4617	-35.0098	-79.9552
 159	1	3	0.064933	31.9806	-34.2462	-77.8239
 160	1	4	0.489832	31.2336	-33.2795	-78.4932
 161	1	3	0.01974	30.8248	-33.684	-79.7612
 162	1	1	-0.15002	31.7745	-40.8815	-81.5904
 163	1	5	-0.109385	34.2533	-38.3616	-79.9896
 164	1	1	-0.027748	33.6993	-39.4668	-80.9335
 165	1	1	-0.058225	32.3798	-39.9573	-80.7159
 166	1	1	-0.058862	32.5161	-41.3173	-82.6913
 167	1	1	-0.073426	34.4317	-39.9743	-82.0376
 168	1	1	-0.053817	33.8095	-40.8848	-82.8955
 169	1	5	0.313225	34.54	-39.0555	-78.6021
 170	1	5	0.370299	35.5763	-37.6798	-80.5141
 171	1	6	-0.09626	35.2088	-40.2199	-78.7647
 172	1	6	-0.107747	33.3975	-39.3559	-77.9451
 173	1	6	-0.102822	35.2852	-38.3054	-77.7601
 174	1	6	-0.119294	36.6392	-38.5157	-80.5035
 175	1	6	-0.123874	35.9221	-36.6049	-79.7689
 176	1	6	-0.116977	35.4339	-37.2152	-81.7768
 177	1	3	0.454578	34.3085	-41.484	-84.1561
 178	1	3	0.475587	32.1365	-42.2017	-83.8245
 179	1	4	-0.008375	33.2481	-42.2264	-84.6555
 180	1	2	-0.468822	35.4022	-41.2978	-84.6602
 181	1	2	-0.475809	31.0564	-42.7408	-83.9923
 182	1	1	-0.104577	33.3043	-42.9082	-85.9017
 183	1	1	0.090513	33.5141	-44.303	-85.9097
 184	1	1	0.041176	33.2262	-42.1884	-87.1209
 185	1	1	0.130327	33.3926	-42.871	-88.3496
 186	1	7	-0.071967	33.6286	-44.2699	-88.3569
 187	1	1	-0.178735	33.671	-44.9662	-87.1326
 188	1	5	-0.205934	33.6203	-45.1037	-84.6173
 189	1	1	-0.139817	33.0032	-40.7912	-87.1369
 190	1	1	-0.146593	32.9481	-40.0858	-88.3489
 191	1	1	-0.1545	33.1111	-40.7646	-89.5627
 192	1	1	-0.172216	33.3313	-42.1496	-89.5615
 193	1	7	-0.107816	33.9586	-45.0168	-89.6008
 194	1	1	-0.127649	35.2421	-44.8293	-90.148
 195	1	1	-0.062495	35.6644	-45.545	-91.2721
 196	1	1	0.148158	34.7869	-46.4805	-91.8663
 197	1	1	-0.091615	33.4817	-46.6733	-91.351
 198	1	1	0.137007	33.0696	-45.9368	-90.2138
 199	1	1	-0.133704	31.7701	-46.1243	-89.6998
 200	1	1	-0.230679	32.5837	-47.5924	-91.9448
 201	1	1	-0.154845	30.8861	-47.0326	-90.3003
 202	1	1	-0.105714	31.2938	-47.7672	-91.4209
 203	1	5	-0.373818	37.0777	-45.3048	-91.7998
 204	1	8	0.152766	33.6001	-36.5916	-77.8502
 205	1	8	0.155405	32.6115	-37.4234	-82.0156
 206	1	8	0.159938	31.081	-35.4676	-82.0323
 207	1	8	0.168438	30.7532	-41.225	-81.4367
 208	1	8	0.13763	31.7955	-39.5838	-79.8789
 209	1	8	0.146749	35.4431	-39.6605	-82.2737
 210	1	8	0.160749	33.8717	-46.0341	-87.1433
 211	1	10	0.074263	34.3866	-44.6864	-83.9525
 212	1	10	0.076992	33.8916	-46.149	-84.8088
 213	1	10	0.075732	32.6636	-45.1083	-84.0802
 214	1	8	0.120118	32.8707	-40.2337	-86.2164
 215	1	8	0.145089	32.7791	-39.0117	-88.3465
 216	1	8	0.146654	33.0658	-40.2204	-90.5033
 217	1	8	0.147988	33.4464	-42.6616	-90.5122
 218	1	8	0.166658	35.92	-44.1287	-89.6658
 219	1	8	0.132671	31.4345	-45.5586	-88.8359
 220	1	8	0.178371	32.8603	-48.1757	-92.8187
 221	1	8	0.137951	29.8852	-47.1641	-89.8973
 222	1	8	0.128868	30.607	-48.4703	-91.8861
 223	1	10	0.119422	37.7027	-46.2012	-91.6902
 224	1	10	0.137967	37.5817	-44.496	-91.2544
 225	1	10	0.115874	37.0678	-45.0145	-92.8588
 226	1	1	-0.015291	35.0766	-18.0194	-69.7957
 227	1	1	-0.066451	35.0895	-18.7787	-70.9949
 228	1	1	-0.157747	34.5308	-18.1969	-72.169
 229	1	2	-0.394636	34.5884	-15.968	-67.5262
 230	1	1	0.035045	34.4775	-16.7567	-69.8072
 231	1	1	-0.04863	33.944	-16.9161	-72.1608
 232	1	2	-0.369731	32.7325	-14.1589	-71.3801
 233	1	1	0.009912	33.9232	-16.2203	-70.952
 234	1	3	0.064933	34.2585	-15.808	-68.6898
 235	1	4	0.489832	33.5666	-14.7408	-69.2562
 236	1	3	0.01974	33.3278	-14.9031	-70.6189
 237	1	1	-0.15002	32.1563	-21.6966	-71.9211
 238	1	5	-0.109385	35.6473	-20.2289	-71.0747
 239	1	1	-0.027748	34.5544	-21.0962	-71.7587
 240	1	1	-0.058225	33.1957	-20.928	-71.3636
 241	1	1	-0.058862	32.4966	-22.6477	-72.8851
 242	1	1	-0.073426	34.8563	-22.085	-72.7298
 243	1	1	-0.053817	33.807	-22.833	-73.276
 244	1	5	0.313225	35.9177	-20.8925	-69.6692
 245	1	5	0.370299	37.004	-20.1506	-71.8779
 246	1	6	-0.09626	34.839	-20.8165	-68.8566
 247	1	6	-0.107747	36.9554	-20.3297	-69.0102
 248	1	6	-0.102822	36.1977	-22.2107	-69.7839
 249	1	6	-0.119294	37.8089	-19.1799	-71.3889
 250	1	6	-0.123874	36.8059	-19.8551	-73.1824
 251	1	6	-0.116977	37.7194	-21.2971	-71.8417
 252	1	3	0.454578	33.8454	-23.956	-74.2458
 253	1	3	0.475587	31.6515	-23.6491	-73.5857
 254	1	4	-0.008375	32.5334	-24.3962	-74.3522
 255	1	2	-0.468822	34.8429	-24.4339	-74.757
 256	1	2	-0.475809	30.4544	-23.8198	-73.4332
 257	1	1	-0.104577	32.1626	-25.58	-75.0452
 258	1	1	0.090513	32.2845	-26.8134	-74.3721
 259	1	1	0.041176	31.7048	-25.5385	-76.3851
 260	1	1	0.130327	31.3846	-26.7452	-77.0546
 261	1	7	-0.071967	31.5146	-27.9861	-76.3788
 262	1	1	-0.178735	31.9602	-27.9964	-75.0433
 263	1	5	-0.205934	32.7863	-26.8974	-72.9349
 264	1	1	-0.139817	31.5737	-24.3118	-77.0748
 265	1	1	-0.146593	31.129	-24.2826	-78.4057
 266	1	1	-0.1545	30.8134	-25.4774	-79.0662
 267	1	1	-0.172216	30.9426	-26.7021	-78.3934
 268	1	7	-0.107816	31.3054	-29.304	-77.0363
 269	1	1	-0.127649	32.3735	-29.8307	-77.7851
 270	1	1	-0.062495	32.3267	-31.1287	-78.3012
 271	1	1	0.148158	31.1882	-31.9325	-78.0567
 272	1	1	-0.091615	30.0783	-31.4117	-77.3474
 273	1	1	0.137007	30.1438	-30.0934	-76.833
 274	1	1	-0.133704	29.0519	-29.5778	-76.1055
 275	1	1	-0.230679	28.9147	-32.1862	-77.1249
 276	1	1	-0.154845	27.9004	-30.3511	-75.8973
 277	1	1	-0.105714	27.8319	-31.6538	-76.4079
 278	1	5	-0.373818	33.5426	-31.6451	-79.0708
 279	1	8	0.152766	35.4846	-18.384	-68.8592
 280	1	8	0.155405	34.5261	-18.7552	-73.1022
 281	1	8	0.159938	33.4993	-16.4856	-73.0555
 282	1	8	0.168438	31.1234	-21.5755	-71.5998
 283	1	8	0.13763	32.9379	-20.1978	-70.6007
 284	1	8	0.146749	35.8698	-22.2998	-73.0531
 285	1	8	0.160749	32.0785	-28.9506	-74.5374
 286	1	10	0.074263	32.1499	-26.3133	-72.2589
 287	1	10	0.076992	33.8136	-26.5209	-72.8537
 288	1	10	0.075732	32.7902	-27.9306	-72.5667
 289	1	8	0.120118	31.8116	-23.3706	-76.591
 290	1	8	0.145089	31.0294	-23.3321	-78.9243
 291	1	8	0.146654	30.4676	-25.4562	-80.0973
 292	1	8	0.147988	30.6906	-27.6203	-78.9158
 293	1	8	0.166658	33.2672	-29.2264	-77.9214
 294	1	8	0.132671	29.0864	-28.5683	-75.7068
 295	1	8	0.178371	28.8228	-33.1979	-77.5097
 296	1	8	0.137951	27.0618	-29.9384	-75.3421
 297	1	8	0.128868	26.9368	-32.2504	-76.2476
 298	1	10	0.119422	34.2613	-30.8419	-79.2781
 299	1	10	0.137967	33.2609	-32.0717	-80.0426
 300	1	10	0.115874	34.0806	-32.4117	-78.4967
 301	1	1	-0.015291	25.3558	-0.952491	-60.5061
 302	1	1	-0.066451	25.8745	-1.96612	-61.3544
 303	1	1	-0.157747	24.9483	-2.85149	-61.9787
 304	1	2	-0.394636	23.6477	1.04921	-58.8905
 305	1	1	0.035045	23.9786	-0.895812	-60.2776
 306	1	1	-0.04863	23.5633	-2.79496	-61.7098
 307	1	2	-0.369731	20.7047	-2.06586	-60.6853
 308	1	1	0.009912	23.1057	-1.80409	-60.8377
 309	1	3	0.064933	23.1978	0.0841655	-59.487
 310	1	4	0.489832	21.8696	-0.323905	-59.6055
 311	1	3	0.01974	21.7268	-1.46786	-60.3936
 312	1	1	-0.15002	27.581	-5.91182	-61.1412
 313	1	5	-0.109385	27.3961	-2.06096	-61.6872
 314	1	1	-0.027748	27.8011	-3.55483	-61.8739
 315	1	1	-0.058225	27.2735	-4.54327	-60.9941
 316	1	1	-0.058862	28.468	-6.27768	-62.1585
 317	1	1	-0.073426	28.7322	-3.97013	-62.8629
 318	1	1	-0.053817	29.0448	-5.32862	-62.9747
 319	1	5	0.313225	28.3164	-1.51329	-60.5304
 320	1	5	0.370299	27.605	-1.19591	-62.9883
 321	1	6	-0.09626	28.3136	-0.165411	-60.4277
 322	1	6	-0.107747	29.6085	-1.87283	-60.7061
 323	1	6	-0.102822	27.9417	-2.00991	-59.3296
 324	1	6	-0.119294	27.0609	-1.79866	-64.07
 325	1	6	-0.123874	28.9047	-0.94916	-63.2677
 326	1	6	-0.116977	27.0064	0.0131347	-62.889
 327	1	3	0.454578	29.9467	-6.02021	-63.9308
 328	1	3	0.475587	28.9539	-7.61642	-62.589
 329	1	4	-0.008375	29.8181	-7.37438	-63.6508
 330	1	2	-0.468822	30.6109	-5.49178	-64.8056
 331	1	2	-0.475809	28.6081	-8.69047	-62.1287
 332	1	1	-0.104577	30.4381	-8.40018	-64.4241
 333	1	1	0.090513	29.9461	-8.66907	-65.7208
 334	1	1	0.041176	31.5215	-9.15611	-63.9074
 335	1	1	0.130327	32.1075	-10.1789	-64.6955
 336	1	7	-0.071967	31.6291	-10.4294	-66.0102
 337	1	1	-0.178735	30.5462	-9.6702	-66.4944
 338	1	5	-0.205934	28.7665	-7.90537	-66.3124
 339	1	1	-0.139817	32.028	-8.91475	-62.609
 340	1	1	-0.146593	33.0793	-9.68679	-62.0917
 341	1	1	-0.1545	33.6416	-10.7108	-62.8634
 342	1	1	-0.172216	33.1577	-10.9536	-64.1569
 343	1	7	-0.107816	32.1807	-11.5031	-66.8885
 344	1	1	-0.127649	31.3673	-12.6258	-67.1405
 345	1	1	-0.062495	31.8143	-13.6885	-67.9346
 346	1	1	0.148158	33.1074	-13.6333	-68.501
 347	1	1	-0.091615	33.9369	-12.5043	-68.291
 348	1	1	0.137007	33.4685	-11.4362	-67.4869
 349	1	1	-0.133704	34.2929	-10.3078	-67.2921
 350	1	1	-0.230679	35.2267	-12.4234	-68.871
 351	1	1	-0.154845	35.5676	-10.2379	-67.873
 352	1	1	-0.105714	36.0345	-11.2965	-68.661
 353	1	5	-0.373818	30.8884	-14.8834	-68.1514
 354	1	8	0.152766	25.9796	-0.198434	-60.0402
 355	1	8	0.155405	25.3026	-3.59831	-62.6857
 356	1	8	0.159938	22.8631	-3.48246	-62.1797
 357	1	8	0.168438	27.145	-6.66574	-60.4883
 358	1	8	0.13763	26.595	-4.25023	-60.1967
 359	1	8	0.146749	29.2139	-3.27916	-63.5459
 360	1	8	0.160749	30.174	-9.86905	-67.4955
 361	1	10	0.074263	29.0594	-6.88436	-66.5869
 362	1	10	0.076992	27.9305	-7.84693	-65.6051
 363	1	10	0.075732	28.386	-8.38931	-67.2201
 364	1	8	0.120118	31.611	-8.13599	-61.98
 365	1	8	0.145089	33.4512	-9.49608	-61.088
 366	1	8	0.146654	34.4499	-11.3178	-62.4616
 367	1	8	0.147988	33.6037	-11.7554	-64.7373
 368	1	8	0.166658	30.38	-12.6686	-66.6873
 369	1	8	0.132671	33.9487	-9.4728	-66.6901
 370	1	8	0.178371	35.6241	-13.2185	-69.4951
 371	1	8	0.137951	36.1909	-9.36158	-67.7132
 372	1	8	0.128868	37.022	-11.2413	-69.1135
 373	1	10	0.119422	30.6712	-15.0319	-69.2179
 374	1	10	0.137967	29.9231	-14.7459	-67.6468
 375	1	10	0.115874	31.3276	-15.808	-67.7541
 376	1	1	-0.015291	11.9038	10.0938	-48.3775
 377	1	1	-0.066451	12.4323	9.09876	-49.2451
 378	1	1	-0.157747	11.7194	7.87191	-49.3699
 379	1	2	-0.394636	10.4592	11.6664	-46.1253
 380	1	1	0.035045	10.7138	9.83671	-47.6878
 381	1	1	-0.04863	10.5083	7.64248	-48.6861
 382	1	2	-0.369731	8.14616	7.68188	-46.6849
 383	1	1	0.009912	10.0307	8.6482	-47.8443
 384	1	3	0.064933	10.0741	10.6047	-46.5867
 385	1	4	0.489832	9.04435	9.78529	-46.1277
 386	1	3	0.01974	8.91837	8.60894	-46.8646
 387	1	1	-0.15002	12.92	7.76146	-53.3874
 388	1	5	-0.109385	13.8336	9.26111	-49.908
 389	1	1	-0.027748	13.9159	8.39045	-51.2031
 390	1	1	-0.058225	12.8828	8.49119	-52.1792
 391	1	1	-0.058862	14.0181	6.92534	-53.6172
 392	1	1	-0.073426	15.0134	7.53277	-51.4855
 393	1	1	-0.053817	15.0305	6.81826	-52.6879
 394	1	5	0.313225	14.8824	8.83548	-48.8087
 395	1	5	0.370299	14.1219	10.745	-50.3621
 396	1	6	-0.09626	14.7944	7.51436	-48.5314
 397	1	6	-0.107747	14.683	9.4704	-47.6311
 398	1	6	-0.102822	16.1595	9.10086	-49.1658
 399	1	6	-0.119294	15.1682	10.8072	-51.2174
 400	1	6	-0.123874	14.4194	11.5825	-49.3441
 401	1	6	-0.116977	13.0611	11.2795	-51.0075
 402	1	3	0.454578	16.0625	5.89703	-53.2267
 403	1	3	0.475587	14.3718	6.07362	-54.7891
 404	1	4	-0.008375	15.6049	5.5131	-54.4794
 405	1	2	-0.468822	17.0968	5.5686	-52.6722
 406	1	2	-0.475809	13.7152	5.93075	-55.8058
 407	1	1	-0.104577	16.3627	4.68085	-55.3553
 408	1	1	0.090513	16.2267	3.27973	-55.2705
 409	1	1	0.041176	17.3195	5.24692	-56.2336
 410	1	1	0.130327	18.1559	4.40366	-57.0087
 411	1	7	-0.071967	18.0063	2.9885	-56.9415
 412	1	1	-0.178735	17.0396	2.45506	-56.0623
 413	1	5	-0.205934	15.2322	2.63855	-54.3113
 414	1	1	-0.139817	17.4724	6.65022	-56.3297
 415	1	1	-0.146593	18.4465	7.21219	-57.1671
 416	1	1	-0.1545	19.2951	6.38048	-57.9063
 417	1	1	-0.172216	19.1547	4.98782	-57.8204
 418	1	7	-0.107816	18.8869	2.0418	-57.6993
 419	1	1	-0.127649	19.742	1.20024	-56.9593
 420	1	1	-0.062495	20.6799	0.369064	-57.586
 421	1	1	0.148158	20.7955	0.386095	-58.9965
 422	1	1	-0.091615	19.9037	1.17468	-59.771
 423	1	1	0.137007	18.9378	1.98416	-59.1194
 424	1	1	-0.133704	18.0416	2.75105	-59.8946
 425	1	1	-0.230679	19.9666	1.18627	-61.1868
 426	1	1	-0.154845	18.1073	2.74114	-61.2947
 427	1	1	-0.105714	19.0733	1.96163	-61.9399
 428	1	5	-0.373818	21.5835	-0.490942	-56.7041
 429	1	8	0.152766	12.4303	11.0172	-48.1623
 430	1	8	0.155405	12.1254	7.05737	-49.9642
 431	1	8	0.159938	9.99049	6.68783	-48.7506
 432	1	8	0.168438	12.1294	7.85369	-54.1299
 433	1	8	0.13763	12.0356	9.14846	-51.9994
 434	1	8	0.146749	15.8583	7.41154	-50.8168
 435	1	8	0.160749	16.9351	1.37619	-55.9921
 436	1	10	0.074263	14.2119	2.9894	-54.5094
 437	1	10	0.076992	15.4831	2.87756	-53.2702
 438	1	10	0.075732	15.2256	1.54561	-54.4032
 439	1	8	0.120118	16.8416	7.32461	-55.7609
 440	1	8	0.145089	18.5517	8.29252	-57.2315
 441	1	8	0.146654	20.064	6.81207	-58.5431
 442	1	8	0.147988	19.8372	4.36636	-58.3909
 443	1	8	0.166658	19.7001	1.23709	-55.8736
 444	1	8	0.132671	17.2833	3.36162	-59.4145
 445	1	8	0.178371	20.6857	0.584372	-61.7331
 446	1	8	0.137951	17.4099	3.33801	-61.8769
 447	1	8	0.128868	19.1237	1.95075	-63.0263
 448	1	10	0.119422	21.6741	-1.51598	-57.0856
 449	1	10	0.137967	21.1932	-0.569417	-55.6812
 450	1	10	0.115874	22.5908	-0.0590647	-56.629
 451	1	1	-0.015291	4.05586	5.27308	-29.7049
 452	1	1	-0.066451	4.43256	5.8276	-30.9585
 453	1	1	-0.157747	5.51829	6.74888	-30.9866
 454	1	2	-0.394636	3.84261	4.31932	-26.7523
 455	1	1	0.035045	4.76007	5.64811	-28.5548
 456	1	1	-0.04863	6.2068	7.12284	-29.8138
 457	1	2	-0.369731	7.35775	7.34663	-26.9324
 458	1	1	0.009912	5.80632	6.54637	-28.6068
 459	1	3	0.064933	4.64471	5.14225	-27.1616
 460	1	4	0.489832	5.66882	5.77641	-26.4602
 461	1	3	0.01974	6.40393	6.6567	-27.2522
 462	1	1	-0.15002	3.2225	8.79941	-33.9739
 463	1	5	-0.109385	3.80356	5.33215	-32.2939
 464	1	1	-0.027748	3.85066	6.47985	-33.3538
 465	1	1	-0.058225	3.26253	7.73936	-33.0419
 466	1	1	-0.058862	3.79827	8.59168	-35.2321
 467	1	1	-0.073426	4.43204	6.3213	-34.6411
 468	1	1	-0.053817	4.39927	7.39132	-35.542
 469	1	5	0.313225	2.28277	4.92724	-32.1493
 470	1	5	0.370299	4.63869	4.06095	-32.7135
 471	1	6	-0.09626	1.68091	4.83021	-33.357
 472	1	6	-0.107747	1.58437	5.84251	-31.4407
 473	1	6	-0.102822	2.08455	3.73935	-31.5362
 474	1	6	-0.119294	4.69813	3.13693	-31.7274
 475	1	6	-0.123874	5.92528	4.37968	-32.9846
 476	1	6	-0.116977	4.12889	3.43359	-33.7977
 477	1	3	0.454578	4.9708	7.49624	-36.9077
 478	1	3	0.475587	3.94074	9.50003	-36.4064
 479	1	4	-0.008375	4.6722	8.78064	-37.3458
 480	1	2	-0.468822	5.61303	6.63503	-37.4836
 481	1	2	-0.475809	3.54688	10.6508	-36.4804
 482	1	1	-0.104577	5.1394	9.29333	-38.5953
 483	1	1	0.090513	4.57331	8.80791	-39.7952
 484	1	1	0.041176	6.24427	10.1827	-38.6483
 485	1	1	0.130327	6.80704	10.5384	-39.9009
 486	1	7	-0.071967	6.2802	9.99619	-41.1039
 487	1	1	-0.178735	5.15151	9.15396	-41.0249
 488	1	5	-0.205934	3.38569	7.85273	-39.794
 489	1	1	-0.139817	6.82656	10.6988	-37.4664
 490	1	1	-0.146593	7.92338	11.5713	-37.5235
 491	1	1	-0.1545	8.46459	11.9352	-38.7618
 492	1	1	-0.172216	7.91155	11.417	-39.9414
 493	1	7	-0.107816	6.98973	10.1092	-42.4172
 494	1	1	-0.127649	8.2539	9.49399	-42.5165
 495	1	1	-0.062495	8.94879	9.4315	-43.7287
 496	1	1	0.148158	8.3679	9.98266	-44.8938
 497	1	1	-0.091615	7.11551	10.6428	-44.8205
 498	1	1	0.137007	6.42802	10.7037	-43.5797
 499	1	1	-0.133704	5.18299	11.3618	-43.5123
 500	1	1	-0.230679	6.5325	11.2342	-45.9666
 501	1	1	-0.154845	4.61938	11.9518	-44.6536
 502	1	1	-0.105714	5.29322	11.8864	-45.8797
 503	1	5	-0.373818	10.3052	8.72877	-43.7511
 504	1	8	0.152766	3.27905	4.5222	-29.6095
 505	1	8	0.155405	5.87091	7.15174	-31.9329
 506	1	8	0.159938	7.05587	7.80236	-29.8438
 507	1	8	0.168438	2.7637	9.75474	-33.7257
 508	1	8	0.13763	2.82597	7.90155	-32.06
 509	1	8	0.146749	4.90802	5.40349	-34.9685
 510	1	8	0.160749	4.76435	8.7112	-41.9387
 511	1	10	0.074263	2.91441	7.79644	-40.783
 512	1	10	0.076992	2.61171	8.17457	-39.0869
 513	1	10	0.075732	3.70063	6.83738	-39.5225
 514	1	8	0.120118	6.43419	10.4451	-36.4886
 515	1	8	0.145089	8.34936	11.9692	-36.6056
 516	1	8	0.146654	9.31067	12.617	-38.8098
 517	1	8	0.147988	8.33934	11.7164	-40.8936
 518	1	8	0.166658	8.67796	9.02549	-41.6314
 519	1	8	0.132671	4.65186	11.4324	-42.5682
 520	1	8	0.178371	7.02872	11.2117	-46.9327
 521	1	8	0.137951	3.66249	12.4629	-44.5855
 522	1	8	0.128868	4.85569	12.3468	-46.7626
 523	1	10	0.119422	10.6047	8.39126	-42.7506
 524	1	10	0.137967	11.0989	9.39943	-44.1076
 525	1	10	0.115874	10.2865	7.83871	-44.3937
 526	1	1	-0.015291	8.97133	0.450441	-11.9284
 527	1	1	-0.066451	10.2857	0.962231	-11.7799
 528	1	1	-0.157747	11.3703	0.0371704	-11.7641
 529	1	2	-0.394636	6.39342	-1.25069	-12.0385
 530	1	1	0.035045	8.78556	-0.929821	-12.0361
 531	1	1	-0.04863	11.1591	-1.35393	-11.8733
 532	1	2	-0.369731	9.95316	-4.22728	-11.8791
 533	1	1	0.009912	9.84597	-1.81162	-11.9993
 534	1	3	0.064933	7.52479	-1.70766	-12.0511
 535	1	4	0.489832	7.92366	-3.04018	-11.9781
 536	1	3	0.01974	9.30831	-3.19664	-11.9777
 537	1	1	-0.15002	8.13911	5.133	-13.2558
 538	1	5	-0.109385	10.4632	2.49014	-11.5366
 539	1	1	-0.027748	9.60671	3.25482	-12.5868
 540	1	1	-0.058225	8.85654	4.42458	-12.2701
 541	1	1	-0.058862	8.18608	4.66148	-14.5709
 542	1	1	-0.073426	9.62851	2.81641	-13.9363
 543	1	1	-0.053817	8.90812	3.53321	-14.8985
 544	1	5	0.313225	11.9431	2.99852	-11.7267
 545	1	5	0.370299	10.015	2.74793	-10.0445
 546	1	6	-0.09626	12.4664	2.59073	-12.9051
 547	1	6	-0.107747	12.7796	2.58268	-10.7488
 548	1	6	-0.102822	12.0079	4.3497	-11.7375
 549	1	6	-0.119294	10.5878	1.86545	-9.19407
 550	1	6	-0.123874	8.679	2.60675	-9.88773
 551	1	6	-0.116977	10.3372	3.97927	-9.58846
 552	1	3	0.454578	8.79242	3.31796	-16.3644
 553	1	3	0.475587	7.5882	5.21176	-15.817
 554	1	4	-0.008375	8.00754	4.36352	-16.8328
 555	1	2	-0.468822	9.29969	2.4128	-17.0036
 556	1	2	-0.475809	6.89803	6.21222	-15.9096
 557	1	1	-0.104577	7.69548	4.56372	-18.2087
 558	1	1	0.090513	6.49102	4.04283	-18.7267
 559	1	1	0.041176	8.58057	5.27951	-19.0526
 560	1	1	0.130327	8.25707	5.46267	-20.4199
 561	1	7	-0.071967	7.04859	4.93159	-20.9456
 562	1	1	-0.178735	6.1801	4.2333	-20.0814
 563	1	5	-0.205934	5.5203	3.26963	-17.8429
 564	1	1	-0.139817	9.78877	5.8188	-18.5522
 565	1	1	-0.146593	10.661	6.52756	-19.3919
 566	1	1	-0.1545	10.3397	6.70804	-20.7428
 567	1	1	-0.172216	9.14482	6.1786	-21.2521
 568	1	7	-0.107816	6.67308	5.07818	-22.3842
 569	1	1	-0.127649	5.76977	6.09703	-22.7485
 570	1	1	-0.062495	5.42334	6.32202	-24.0889
 571	1	1	0.148158	5.98293	5.50754	-25.0999
 572	1	1	-0.091615	6.87934	4.46229	-24.7586
 573	1	1	0.137007	7.22318	4.25196	-23.3998
 574	1	1	-0.133704	8.12413	3.21865	-23.0651
 575	1	1	-0.230679	7.44958	3.62782	-25.7516
 576	1	1	-0.154845	8.68137	2.40016	-24.0579
 577	1	1	-0.105714	8.34318	2.60498	-25.4006
 578	1	5	-0.373818	4.46582	7.46355	-24.4187
 579	1	8	0.152766	8.09997	1.10039	-11.909
 580	1	8	0.155405	12.3929	0.371426	-11.6277
 581	1	8	0.159938	11.9845	-2.06029	-11.8151
 582	1	8	0.168438	7.57921	6.03396	-13.0116
 583	1	8	0.13763	8.83071	4.81808	-11.2605
 584	1	8	0.146749	10.2097	1.94964	-14.2433
 585	1	8	0.160749	5.25685	3.8265	-20.4848
 586	1	10	0.074263	6.00628	2.39249	-17.3977
 587	1	10	0.076992	4.65294	2.90963	-18.4093
 588	1	10	0.075732	5.14096	3.90167	-17.0302
 589	1	8	0.120118	10.0683	5.69968	-17.5109
 590	1	8	0.145089	11.5859	6.93756	-18.9935
 591	1	8	0.146654	11.0137	7.25795	-21.3956
 592	1	8	0.147988	8.91238	6.33157	-22.3018
 593	1	8	0.166658	5.35732	6.73246	-21.9686
 594	1	8	0.132671	8.39931	3.04132	-22.0299
 595	1	8	0.178371	7.21319	3.74891	-26.8046
 596	1	8	0.137951	9.37449	1.60849	-23.7846
 597	1	8	0.128868	8.77455	1.96926	-26.1704
 598	1	10	0.119422	4.95968	8.23288	-25.0275
 599	1	10	0.137967	4.09811	7.96123	-23.512
 600	1	10	0.115874	3.58399	7.10248	-24.9645
 601	1	1	-0.015291	-5.46384	-11.0079	-3.48182
 602	1	1	-0.066451	-4.34769	-11.2095	-4.33674
 603	1	1	-0.157747	-3.11233	-11.6051	-3.74754
 604	1	2	-0.394636	-7.42633	-10.5933	-1.12096
 605	1	1	0.035045	-5.29141	-11.1542	-2.10159
 606	1	1	-0.04863	-2.96306	-11.7542	-2.35354
 607	1	2	-0.369731	-3.33552	-11.7637	0.739838
 608	1	1	0.009912	-4.07643	-11.5057	-1.54946
 609	1	3	0.064933	-6.26076	-10.9337	-1.00108
 610	1	4	0.489832	-5.53918	-11.1624	0.1692
 611	1	3	0.01974	-4.21292	-11.5175	-0.0706524
 612	1	1	-0.15002	-1.77863	-8.14041	-5.70615
 613	1	5	-0.109385	-4.40593	-10.9861	-5.87827
 614	1	1	-0.027748	-3.19178	-10.094	-6.26481
 615	1	1	-0.058225	-2.86621	-8.98788	-5.42869
 616	1	1	-0.058862	-1.02581	-8.40382	-6.85162
 617	1	1	-0.073426	-2.41437	-10.3081	-7.43508
 618	1	1	-0.053817	-1.33816	-9.44887	-7.6971
 619	1	5	0.313225	-5.68843	-10.2067	-6.36287
 620	1	5	0.370299	-4.3854	-12.4162	-6.54351
 621	1	6	-0.09626	-6.82439	-10.9299	-6.2427
 622	1	6	-0.107747	-5.59358	-9.84546	-7.66277
 623	1	6	-0.102822	-5.8699	-9.05711	-5.67348
 624	1	6	-0.119294	-3.18622	-13.0237	-6.39781
 625	1	6	-0.123874	-4.6574	-12.3984	-7.86759
 626	1	6	-0.116977	-5.298	-13.2365	-5.97444
 627	1	3	0.454578	-0.362477	-9.43726	-8.82306
 628	1	3	0.475587	0.157983	-7.69641	-7.39618
 629	1	4	-0.008375	0.490067	-8.37273	-8.56139
 630	1	2	-0.468822	-0.327104	-10.2135	-9.76112
 631	1	2	-0.475809	0.703425	-6.72143	-6.90747
 632	1	1	-0.104577	1.59049	-7.9779	-9.37376