pySIMM System Object

1652 atoms
1827 bonds
3168 angles
4880 dihedrals
528 impropers

10 atom types
13 bond types
22 angle types
9 dihedral types
4 improper types

-184.538461 184.538461 xlo xhi
-184.538461 184.538461 ylo yhi
-184.538461 184.538461 zlo zhi

Masses

   1	12.01	# ca
   2	16.0	# o
   3	12.01	# c
   4	14.01	# n
   5	12.01	# c3
   6	19.0	# f
   7	12.01	# cp
   8	1.008	# ha
   9	1.008	# hn
  10	1.008	# hc

Pair Coeffs

   1	0.086	3.3996695084235347	# ca
   2	0.21	2.959921901149463	# o
   3	0.086	3.3996695084235347	# c
   4	0.17	3.249998523775958	# n
   5	0.1094	3.3996695084235347	# c3
   6	0.061	3.1181455134911875	# f
   7	0.086	3.3996695084235347	# cp
   8	0.015	2.59964245953351	# ha
   9	0.0157	1.069078461768407	# hn
  10	0.0157	2.649532787749369	# hc

Bond Coeffs

   1	356.9	1.3497	# c3,f
   2	450.2	1.4058	# ca,cp
   3	403.2	1.0129	# hn,n
   4	461.1	1.3984	# ca,ca
   5	427.6	1.3789	# c,n
   6	345.9	1.4906	# c,ca
   7	300.9	1.5375	# c3,c3
   8	330.6	1.0969	# c3,hc
   9	351.4	1.4854	# cp,cp
  10	345.8	1.086	# ca,ha
  11	321.0	1.5156	# c3,ca
  12	384.2	1.4121	# ca,n
  13	637.7	1.2183	# c,o

Angle Coeffs

   1	74.22	123.05	# n,c,o
   2	66.62	120.02	# ca,ca,ca
   3	68.72	122.6	# ca,c,o
   4	67.68	115.25	# ca,c,n
   5	48.33	117.55	# c,n,hn
   6	64.28	120.33	# c,ca,ca
   7	47.98	119.86	# cp,ca,ha
   8	39.4	107.58	# hc,c3,hc
   9	63.53	120.77	# c3,ca,ca
  10	70.89	107.36	# f,c3,f
  11	67.87	120.19	# ca,ca,n
  12	66.72	118.38	# ca,cp,ca
  13	46.8	110.47	# ca,c3,hc
  14	62.86	111.51	# c3,c3,c3
  15	66.11	109.24	# c3,c3,f
  16	63.15	112.07	# c3,c3,ca
  17	63.82	123.71	# c,n,ca
  18	66.26	120.69	# ca,ca,cp
  19	63.56	112.24	# ca,c3,ca
  20	63.74	127.08	# c,n,c
  21	48.18	119.88	# ca,ca,ha
  22	64.05	121.11	# ca,cp,cp

Dihedral Coeffs

   1	2	2.5	2	180	2.0	1	0	# hn,n,c,o
   2	1	3.625	2	180	# X,ca,cp,X
   3	1	1.0	2	180	# X,cp,cp,X
   4	1	3.625	2	180	# X,ca,ca,X
   5	1	1.0	2	180	# X,c,ca,X
   6	1	0.0	2	0	# X,c3,ca,X
   7	1	0.15555555555555556	3	0	# X,c3,c3,X
   8	1	2.5	2	180	# X,c,n,X
   9	1	0.45	2	180	# X,ca,n,X

Improper Coeffs

   1	10.5	-1	2	# c,X,X,o
   2	1.1	-1	2	# n,X,X,hn
   3	1.1	-1	2	# ca,ca,ca,c3
   4	1.1	-1	2	# ca,X,X,ha

Atoms

   1	1	1	-0.015291	22.6732	85.6377	70.0932
   2	1	1	-0.066451	23.0229	85.6426	71.4733
   3	1	1	-0.157747	23.3538	86.8984	72.0597
   4	1	2	-0.394636	22.4188	86.1278	67.0682
   5	1	1	0.035045	22.7413	86.8223	69.3564
   6	1	1	-0.04863	23.4015	88.0917	71.2984
   7	1	2	-0.369731	23.7079	90.1616	68.9666
   8	1	1	0.009912	23.1162	88.0176	69.9293
   9	1	3	0.064933	22.678	86.9969	67.8846
  10	1	4	0.489832	23.0833	88.3088	67.6505
  11	1	3	0.01974	23.3165	89.014	68.8359
  12	1	1	-0.15002	20.9789	85.0067	75.3268
  13	1	5	-0.109385	23.3074	84.3133	72.2573
  14	1	1	-0.027748	22.7264	84.3202	73.708
  15	1	1	-0.058225	21.6014	85.1183	74.0603
  16	1	1	-0.058862	21.4741	84.057	76.2325
  17	1	1	-0.073426	23.2063	83.3931	74.6741
  18	1	1	-0.053817	22.5549	83.2704	75.9045
  19	1	5	0.313225	24.8823	84.1785	72.2722
  20	1	5	0.370299	22.6777	83.0493	71.5466
  21	1	6	-0.09626	25.3288	82.9317	72.5398
  22	1	6	-0.107747	25.4364	85.0009	73.1921
  23	1	6	-0.102822	25.4275	84.5126	71.0794
  24	1	6	-0.119294	23.2833	82.7388	70.3779
  25	1	6	-0.123874	21.3621	83.2429	71.2997
  26	1	6	-0.116977	22.7507	81.9255	72.2942
  27	1	3	0.454578	22.7484	82.2594	76.9779
  28	1	3	0.475587	20.9547	83.5903	77.5523
  29	1	4	-0.008375	21.7379	82.4918	77.902
  30	1	2	-0.468822	23.5791	81.3675	76.9823
  31	1	2	-0.475809	19.9867	84.037	78.1428
  32	1	1	-0.104577	21.4793	81.6396	79.0255
  33	1	1	0.090513	22.3355	81.6786	80.1489
  34	1	1	0.041176	20.377	80.7439	79.0196
  35	1	1	0.130327	20.1141	79.9283	80.1518
  36	1	7	-0.071967	20.9667	79.9785	81.2884
  37	1	1	-0.178735	22.0757	80.851	81.2536
  38	1	5	-0.205934	23.5478	82.6004	80.195
  39	1	1	-0.139817	19.5249	80.6457	77.8937
  40	1	1	-0.146593	18.422	79.7791	77.8959
  41	1	1	-0.1545	18.1467	78.9994	79.0246
  42	1	1	-0.172216	18.9868	79.0767	80.1444
  43	1	7	-0.107816	20.7341	79.1389	82.5098
  44	1	1	-0.127649	20.8912	77.7348	82.4219
  45	1	1	-0.062495	20.6551	76.9004	83.5255
  46	1	1	0.148158	20.2642	77.4698	84.7498
  47	1	1	-0.091615	20.106	78.8612	84.873
  48	1	1	0.137007	20.3363	79.7001	83.7567
  49	1	1	-0.133704	20.1399	81.0896	83.9048
  50	1	1	-0.230679	19.7043	79.4099	86.1075
  51	1	1	-0.154845	19.7437	81.6339	85.1376
  52	1	1	-0.105714	19.5273	80.7955	86.2401
  53	1	5	-0.373818	20.8034	75.393	83.3797
  54	1	8	0.152766	22.4518	84.7354	69.5379
  55	1	8	0.155405	23.6619	86.939	73.1022
  56	1	8	0.159938	23.7347	89.0297	71.738
  57	1	8	0.168438	20.0972	85.5947	75.5755
  58	1	8	0.13763	21.1697	85.8005	73.3332
  59	1	8	0.146749	24.0108	82.6981	74.4625
  60	1	8	0.160749	22.7408	80.881	82.1123
  61	1	10	0.074263	23.2789	83.6283	79.9236
  62	1	10	0.076992	24.3264	82.2537	79.5039
  63	1	10	0.075732	23.993	82.6343	81.197
  64	1	8	0.120118	19.701	81.237	77.0023
  65	1	8	0.145089	17.7749	79.7207	77.0242
  66	1	8	0.146654	17.2844	78.3366	79.0344
  67	1	8	0.147988	18.7475	78.4712	81.0128
  68	1	8	0.166658	21.1909	77.2938	81.4744
  69	1	8	0.132671	20.2842	81.7581	83.0622
  70	1	8	0.178371	19.5248	78.762	86.9627
  71	1	8	0.137951	19.5987	82.7064	85.2346
  72	1	8	0.128868	19.216	81.2186	87.1918
  73	1	10	0.119422	19.8745	74.944	83.006
  74	1	10	0.137967	21.0415	74.917	84.3396
  75	1	10	0.115874	21.6068	75.135	82.6785
  76	1	1	-0.015291	26.7797	88.9975	49.6952
  77	1	1	-0.066451	26.1336	89.0164	50.9637
  78	1	1	-0.157747	25.3883	87.8661	51.3482
  79	1	2	-0.394636	27.939	88.3391	46.8841
  80	1	1	0.035045	26.6792	87.854	48.8912
  81	1	1	-0.04863	25.3076	86.7199	50.5272
  82	1	2	-0.369731	25.5707	84.5917	48.2628
  83	1	1	0.009912	25.9698	86.7429	49.2965
  84	1	3	0.064933	27.2475	87.5803	47.5436
  85	1	4	0.489832	26.8439	86.2814	47.2282
  86	1	3	0.01974	26.0634	85.707	48.2328
  87	1	1	-0.15002	27.3296	88.5194	55.1342
  88	1	5	-0.109385	26.1261	90.2797	51.8826
  89	1	1	-0.027748	26.1818	89.847	53.3847
  90	1	1	-0.058225	27.1655	88.9004	53.7862
  91	1	1	-0.058862	26.4884	89.0983	56.0907
  92	1	1	-0.073426	25.3452	90.4062	54.394
  93	1	1	-0.053817	25.5166	90.0067	55.7296
  94	1	5	0.313225	24.8164	91.0739	51.5125
  95	1	5	0.370299	27.3795	91.2141	51.6561
  96	1	6	-0.09626	23.7058	90.4044	51.8964
  97	1	6	-0.107747	24.6981	91.255	50.177
  98	1	6	-0.102822	24.7653	92.304	52.0718
  99	1	6	-0.119294	28.5325	90.5073	51.643
 100	1	6	-0.123874	27.5046	92.1282	52.6453
 101	1	6	-0.116977	27.3357	91.9128	50.4996
 102	1	3	0.454578	24.7821	90.4089	56.9661
 103	1	3	0.475587	26.4217	88.9027	57.5652
 104	1	4	-0.008375	25.3748	89.7035	58.0104
 105	1	2	-0.468822	23.8359	91.1742	57.0232
 106	1	2	-0.475809	27.1253	88.1546	58.2221
 107	1	1	-0.104577	24.9327	89.7244	59.3757
 108	1	1	0.090513	24.2302	88.6086	59.8854
 109	1	1	0.041176	25.2487	90.801	60.2463
 110	1	1	0.130327	24.907	90.7282	61.6245
 111	1	7	-0.071967	24.2516	89.5793	62.1465
 112	1	1	-0.178735	23.905	88.5474	61.25
 113	1	5	-0.205934	23.8445	87.4337	58.9944
 114	1	1	-0.139817	25.9236	91.9482	59.7686
 115	1	1	-0.146593	26.241	93.008	60.6324
 116	1	1	-0.1545	25.9006	92.9342	61.9891
 117	1	1	-0.172216	25.2419	91.7981	62.4811
 118	1	7	-0.107816	23.999	89.3645	63.612
 119	1	1	-0.127649	22.6866	89.4812	64.1196
 120	1	1	-0.062495	22.3853	89.1939	65.4633
 121	1	1	0.148158	23.4125	88.7692	66.3388
 122	1	1	-0.091615	24.7455	88.6662	65.86
 123	1	1	0.137007	25.0328	88.9588	64.5008
 124	1	1	-0.133704	26.3549	88.8075	64.0281
 125	1	1	-0.230679	25.7978	88.2418	66.7102
 126	1	1	-0.154845	27.3851	88.3911	64.8826
 127	1	1	-0.105714	27.1064	88.1114	66.2244
 128	1	5	-0.373818	20.9372	89.3063	65.9314
 129	1	8	0.152766	27.3375	89.8432	49.3089
 130	1	8	0.155405	24.8469	87.8619	52.2915
 131	1	8	0.159938	24.7371	85.8438	50.8278
 132	1	8	0.168438	28.0924	87.8018	55.4306
 133	1	8	0.13763	27.8254	88.4613	53.042
 134	1	8	0.146749	24.5798	91.144	54.1781
 135	1	8	0.160749	23.4111	87.6624	61.6411
 136	1	10	0.074263	23.1011	86.7884	59.4779
 137	1	10	0.076992	24.7196	86.8126	58.7664
 138	1	10	0.075732	23.4066	87.7748	58.0485
 139	1	8	0.120118	26.1992	92.0408	58.7238
 140	1	8	0.145089	26.7501	93.8885	60.2479
 141	1	8	0.146654	26.146	93.7549	62.6596
 142	1	8	0.147988	24.9851	91.7561	63.5355
 143	1	8	0.166658	21.8911	89.7776	63.4407
 144	1	8	0.132671	26.5971	89.0076	62.9893
 145	1	8	0.178371	25.6314	88.0133	67.7584
 146	1	8	0.137951	28.3975	88.2825	64.5018
 147	1	8	0.128868	27.9054	87.7883	66.8878
 148	1	10	0.119422	20.2926	89.7405	65.1565
 149	1	10	0.137967	20.8487	89.9507	66.8164
 150	1	10	0.115874	20.5221	88.3198	66.1791
 151	1	1	-0.015291	36.6988	76.6136	35.5994
 152	1	1	-0.066451	35.9918	76.8537	36.8138
 153	1	1	-0.157747	35.3185	75.7554	37.4187
 154	1	2	-0.394636	37.9748	75.4612	33.0
 155	1	1	0.035045	36.7416	75.3139	35.0763
 156	1	1	-0.04863	35.4036	74.4482	36.8952
 157	1	2	-0.369731	36.0933	71.8834	35.2882
 158	1	1	0.009912	36.1448	74.2559	35.7273
 159	1	3	0.064933	37.3987	74.7946	33.8442
 160	1	4	0.489832	37.1746	73.4152	33.8584
 161	1	3	0.01974	36.4404	73.0103	34.9763
 162	1	1	-0.15002	32.2397	79.0342	37.0607
 163	1	5	-0.109385	36.0149	78.2245	37.5672
 164	1	1	-0.027748	34.5614	78.7034	37.8647
 165	1	1	-0.058225	33.5379	78.5009	36.8965
 166	1	1	-0.058862	31.9734	79.7864	38.2117
 167	1	1	-0.073426	34.2419	79.4643	39.0222
 168	1	1	-0.053817	32.9482	79.9833	39.1661
 169	1	5	0.313225	36.6814	79.3822	36.7306
 170	1	5	0.370299	36.8682	77.9853	38.8791
 171	1	6	-0.09626	36.5597	80.5854	37.3367
 172	1	6	-0.107747	36.0934	79.5236	35.5208
 173	1	6	-0.102822	38.0034	79.185	36.5241
 174	1	6	-0.119294	37.2817	79.1223	39.4816
 175	1	6	-0.123874	37.9883	77.273	38.6176
 176	1	6	-0.116977	36.181	77.2874	39.8118
 177	1	3	0.454578	32.3739	80.8281	40.2464
 178	1	3	0.475587	30.7428	80.5121	38.6464
 179	1	4	-0.008375	31.0632	81.0972	39.8676
 180	1	2	-0.468822	32.9547	81.2004	41.2514
 181	1	2	-0.475809	29.6823	80.5567	38.0476
 182	1	1	-0.104577	30.1699	81.8675	40.6805
 183	1	1	0.090513	30.35	83.2661	40.7725
 184	1	1	0.041176	29.201	81.2336	41.5008
 185	1	1	0.130327	28.4683	81.9916	42.4525
 186	1	7	-0.071967	28.7023	83.3864	42.5952
 187	1	1	-0.178735	29.6315	84.0006	41.7295
 188	1	5	-0.205934	31.3578	84.0004	39.8964
 189	1	1	-0.139817	28.9784	79.8393	41.4169
 190	1	1	-0.146593	28.0387	79.2088	42.2454
 191	1	1	-0.1545	27.3184	79.9578	43.1835
 192	1	1	-0.172216	27.5397	81.3384	43.2914
 193	1	7	-0.107816	28.1493	84.1828	43.7393
 194	1	1	-0.127649	29.0004	84.3944	44.8417
 195	1	1	-0.062495	28.5722	85.0774	45.9881
 196	1	1	0.148158	27.2547	85.5891	46.0491
 197	1	1	-0.091615	26.3732	85.3927	44.952
 198	1	1	0.137007	26.8236	84.6911	43.8005
 199	1	1	-0.133704	25.9416	84.4963	42.718
 200	1	1	-0.230679	25.0425	85.876	44.9865
 201	1	1	-0.154845	24.6254	84.979	42.7681
 202	1	1	-0.105714	24.1765	85.6664	43.9026
 203	1	5	-0.373818	29.5528	85.2238	47.1491
 204	1	8	0.152766	37.2389	77.3876	35.0659
 205	1	8	0.155405	34.754	75.9045	38.3359
 206	1	8	0.159938	34.9237	73.605	37.3877
 207	1	8	0.168438	31.4709	78.8919	36.3037
 208	1	8	0.13763	33.759	77.9545	35.9834
 209	1	8	0.146749	34.9739	79.6951	39.7889
 210	1	8	0.160749	29.8253	85.0637	41.8418
 211	1	10	0.074263	32.3815	83.838	40.2557
 212	1	10	0.076992	31.1756	85.0822	39.8951
 213	1	10	0.075732	31.3008	83.6652	38.8535
 214	1	8	0.120118	29.5189	79.2261	40.7049
 215	1	8	0.145089	27.8722	78.1377	42.1616
 216	1	8	0.146654	26.5931	79.47	43.8307
 217	1	8	0.147988	26.9778	81.8997	44.0318
 218	1	8	0.166658	30.0103	83.9936	44.8006
 219	1	8	0.132671	26.2735	83.9659	41.8306
 220	1	8	0.178371	24.6517	86.4076	45.8494
 221	1	8	0.137951	23.9539	84.8175	41.9285
 222	1	8	0.128868	23.154	86.0352	43.9425
 223	1	10	0.119422	29.8211	86.2759	47.3146
 224	1	10	0.137967	30.4894	84.6832	46.9602
 225	1	10	0.115874	29.1367	84.8198	48.081
 226	1	1	-0.015291	37.1607	61.6033	20.6127
 227	1	1	-0.066451	37.7131	61.8869	21.8949
 228	1	1	-0.157747	36.9702	61.5008	23.0467
 229	1	2	-0.394636	35.3655	60.7811	18.1818
 230	1	1	0.035045	35.8925	61.0072	20.5379
 231	1	1	-0.04863	35.7078	60.8881	22.9503
 232	1	2	-0.369731	33.0245	59.664	22.0332
 233	1	1	0.009912	35.1886	60.6684	21.676
 234	1	3	0.064933	35.0621	60.6401	19.3548
 235	1	4	0.489832	33.8948	60.0901	19.8882
 236	1	3	0.01974	33.8908	60.078	21.2805
 237	1	1	-0.15002	37.1358	65.5716	23.794
 238	1	5	-0.109385	39.0539	62.6567	22.1147
 239	1	1	-0.027748	38.7458	63.8276	23.096
 240	1	1	-0.058225	37.5304	64.5477	22.9171
 241	1	1	-0.058862	37.9941	65.8936	24.8451
 242	1	1	-0.073426	39.6116	64.2186	24.1568
 243	1	1	-0.053817	39.2072	65.2578	25.0136
 244	1	5	0.313225	39.6329	63.3115	20.8032
 245	1	5	0.370299	40.0983	61.6133	22.6754
 246	1	6	-0.09626	38.7188	64.0909	20.1822
 247	1	6	-0.107747	40.0573	62.3967	19.9027
 248	1	6	-0.102822	40.6846	64.1196	21.0676
 249	1	6	-0.119294	40.1224	60.4897	21.9227
 250	1	6	-0.123874	39.8008	61.2193	23.9339
 251	1	6	-0.116977	41.3653	62.0829	22.7094
 252	1	3	0.454578	39.8799	65.8742	26.1982
 253	1	3	0.475587	37.8333	66.9032	25.9164
 254	1	4	-0.008375	38.995	66.8393	26.673
 255	1	2	-0.468822	40.969	65.57	26.6514
 256	1	2	-0.475809	36.8659	67.628	26.0784
 257	1	1	-0.104577	39.1939	67.7054	27.793
 258	1	1	0.090513	39.3759	69.0863	27.552
 259	1	1	0.041176	38.9781	67.2467	29.1175
 260	1	1	0.130327	38.8399	68.1835	30.1738
 261	1	7	-0.071967	38.9099	69.578	29.9102
 262	1	1	-0.178735	39.2238	70.0019	28.6034
 263	1	5	-0.205934	39.6318	69.628	26.1503
 264	1	1	-0.139817	38.8422	65.8681	29.4019
 265	1	1	-0.146593	38.6005	65.4241	30.7109
 266	1	1	-0.1545	38.4652	66.3512	31.7517
 267	1	1	-0.172216	38.5728	67.7229	31.4806
 268	1	7	-0.107816	38.452	70.5996	30.9043
 269	1	1	-0.127649	39.3881	71.3078	31.6838
 270	1	1	-0.062495	38.9797	72.2451	32.6486
 271	1	1	0.148158	37.5981	72.512	32.8337
 272	1	1	-0.091615	36.6396	71.8397	32.0275
 273	1	1	0.137007	37.0695	70.8793	31.077
 274	1	1	-0.133704	36.1076	70.1977	30.2981
 275	1	1	-0.230679	35.2514	72.1017	32.1543
 276	1	1	-0.154845	34.739	70.4549	30.4504
 277	1	1	-0.105714	34.3116	71.4102	31.3771
 278	1	5	-0.373818	40.0628	72.9423	33.4693
 279	1	8	0.152766	37.6665	61.8529	19.6859
 280	1	8	0.155405	37.3606	61.7064	24.0406
 281	1	8	0.159938	35.1387	60.608	23.8342
 282	1	8	0.168438	36.1924	66.0988	23.6646
 283	1	8	0.13763	36.8632	64.2984	22.0961
 284	1	8	0.146749	40.5685	63.737	24.3338
 285	1	8	0.160749	39.2623	71.0671	28.393
 286	1	10	0.074263	38.6948	69.7141	25.5862
 287	1	10	0.076992	40.3159	68.9816	25.5869
 288	1	10	0.075732	40.089	70.6244	26.185
 289	1	8	0.120118	38.9435	65.1224	28.6213
 290	1	8	0.145089	38.5162	64.3597	30.917
 291	1	8	0.146654	38.2723	66.0097	32.7662
 292	1	8	0.147988	38.4564	68.4295	32.2972
 293	1	8	0.166658	40.4463	71.1037	31.5409
 294	1	8	0.132671	36.4099	69.4576	29.5638
 295	1	8	0.178371	34.8679	72.8322	32.8587
 296	1	8	0.137951	34.0136	69.915	29.8471
 297	1	8	0.128868	33.2498	71.6124	31.4954
 298	1	10	0.119422	41.0363	72.4471	33.3609
 299	1	10	0.137967	39.8312	72.952	34.5417
 300	1	10	0.115874	40.1968	73.9816	33.1388
 301	1	1	-0.015291	27.1403	45.9849	13.9108
 302	1	1	-0.066451	27.1721	46.9935	14.9132
 303	1	1	-0.157747	26.6942	46.6553	16.2101
 304	1	2	-0.394636	27.0909	43.3776	12.2579
 305	1	1	0.035045	26.6928	44.7015	14.2375
 306	1	1	-0.04863	26.2385	45.3504	16.5184
 307	1	2	-0.369731	25.6862	42.2612	16.5373
 308	1	1	0.009912	26.2691	44.3793	15.5089
 309	1	3	0.064933	26.7379	43.4613	13.4229
 310	1	4	0.489832	26.364	42.4346	14.288
 311	1	3	0.01974	26.032	42.9059	15.5616
 312	1	1	-0.15002	25.3224	51.0106	15.7703
 313	1	5	-0.109385	27.9339	48.3363	14.6821
 314	1	1	-0.027748	27.2901	49.5261	15.4671
 315	1	1	-0.058225	25.8951	49.786	15.3459
 316	1	1	-0.058862	26.1652	51.9798	16.3346
 317	1	1	-0.073426	28.0879	50.5092	16.1109
 318	1	1	-0.053817	27.5028	51.7089	16.5228
 319	1	5	0.313225	27.9219	48.7943	13.1692
 320	1	5	0.370299	29.4242	48.0443	15.1187
 321	1	6	-0.09626	28.7511	48.0812	12.3746
 322	1	6	-0.107747	28.3012	50.086	13.0308
 323	1	6	-0.102822	26.6827	48.7021	12.6353
 324	1	6	-0.119294	29.5269	47.9151	16.4614
 325	1	6	-0.123874	30.2966	49.0015	14.7287
 326	1	6	-0.116977	29.8911	46.8861	14.5983
 327	1	3	0.454578	28.1686	52.9387	17.0079
 328	1	3	0.475587	25.9345	53.42	16.6819
 329	1	4	-0.008375	27.1879	53.92	17.0247
 330	1	2	-0.468822	29.3593	53.0652	17.2403
 331	1	2	-0.475809	24.8913	54.038	16.5626
 332	1	1	-0.104577	27.5535	55.2845	17.2406
 333	1	1	0.090513	27.7337	55.7355	18.5649
 334	1	1	0.041176	28.103	56.0287	16.1655
 335	1	1	0.130327	28.9697	57.1187	16.4295
 336	1	7	-0.071967	29.2761	57.4725	17.7685
 337	1	1	-0.178735	28.5918	56.8163	18.8135
 338	1	5	-0.205934	27.1606	54.9765	19.7531
 339	1	1	-0.139817	27.878	55.6395	14.8253
 340	1	1	-0.146593	28.4846	56.3312	13.7657
 341	1	1	-0.1545	29.3497	57.4011	14.0305
 342	1	1	-0.172216	29.6015	57.7821	15.3572
 343	1	7	-0.107816	30.5277	58.207	18.1293
 344	1	1	-0.127649	30.5169	59.5928	18.3945
 345	1	1	-0.062495	31.6605	60.2454	18.8885
 346	1	1	0.148158	32.8383	59.501	19.1401
 347	1	1	-0.091615	32.8932	58.1235	18.8172
 348	1	1	0.137007	31.737	57.4804	18.3141
 349	1	1	-0.133704	31.7891	56.0948	18.038
 350	1	1	-0.230679	34.0733	57.3664	19.0262
 351	1	1	-0.154845	32.9629	55.3585	18.244
 352	1	1	-0.105714	34.1064	55.9951	18.7363
 353	1	5	-0.373818	31.5817	61.7371	19.2021
 354	1	8	0.152766	27.539	46.1354	12.9147
 355	1	8	0.155405	26.747	47.3888	17.0118
 356	1	8	0.159938	25.9347	45.0813	17.5279
 357	1	8	0.168438	24.2709	51.2305	15.5949
 358	1	8	0.13763	25.2607	49.0651	14.8361
 359	1	8	0.146749	29.1632	50.4248	16.2142
 360	1	8	0.160749	28.8484	57.0619	19.8406
 361	1	10	0.074263	27.8402	54.1765	20.0711
 362	1	10	0.076992	26.1866	54.5311	19.5161
 363	1	10	0.075732	27.006	55.6455	20.609
 364	1	8	0.120118	27.2172	54.8118	14.5889
 365	1	8	0.145089	28.2917	56.0295	12.739
 366	1	8	0.146654	29.8321	57.9284	13.2107
 367	1	8	0.147988	30.286	58.6027	15.551
 368	1	8	0.166658	29.592	60.1467	18.2556
 369	1	8	0.132671	30.9202	55.5661	17.6585
 370	1	8	0.178371	34.9864	57.8197	19.3993
 371	1	8	0.137951	32.9797	54.2943	18.0218
 372	1	8	0.128868	35.0182	55.4241	18.8943
 373	1	10	0.119422	31.5665	61.9162	20.2854
 374	1	10	0.137967	30.6741	62.1916	18.7842
 375	1	10	0.115874	32.4329	62.2828	18.773
 376	1	1	-0.015291	28.315	25.4438	6.87846
 377	1	1	-0.066451	28.6004	26.7167	7.44854
 378	1	1	-0.157747	29.7297	26.7957	8.31681
 379	1	2	-0.394636	27.7604	22.458	6.49259
 380	1	1	0.035045	29.0767	24.3291	7.23816
 381	1	1	-0.04863	30.5332	25.6665	8.61006
 382	1	2	-0.369731	31.5673	22.7633	9.13333
 383	1	1	0.009912	30.1713	24.4298	8.06561
 384	1	3	0.064933	28.7505	22.894	7.05827
 385	1	4	0.489832	29.6678	22.2034	7.85159
 386	1	3	0.01974	30.6313	23.0523	8.406
 387	1	1	-0.15002	29.76	31.1176	8.0883
 388	1	5	-0.109385	27.6508	27.9367	7.16665
 389	1	1	-0.027748	28.1074	29.2644	7.89575
 390	1	1	-0.058225	29.3658	29.8589	7.57902
 391	1	1	-0.058862	28.8691	31.8086	8.91778
 392	1	1	-0.073426	27.262	29.9988	8.78503
 393	1	1	-0.053817	27.6538	31.2606	9.25259
 394	1	5	0.313225	26.1737	27.5427	7.6036
 395	1	5	0.370299	27.6532	28.2376	5.61448
 396	1	6	-0.09626	26.1224	27.2678	8.92694
 397	1	6	-0.107747	25.6603	26.45	7.00148
 398	1	6	-0.102822	25.276	28.5173	7.33052
 399	1	6	-0.119294	27.088	29.4342	5.33633
 400	1	6	-0.123874	26.9951	27.3186	4.87512
 401	1	6	-0.116977	28.907	28.2682	5.11018
 402	1	3	0.454578	26.8978	32.2617	10.0608
 403	1	3	0.475587	28.9443	33.1706	9.52195
 404	1	4	-0.008375	27.7231	33.3778	10.1606
 405	1	2	-0.468822	25.7676	32.1251	10.4958
 406	1	2	-0.475809	29.8801	33.9445	9.4248
 407	1	1	-0.104577	27.3523	34.6147	10.7931
 408	1	1	0.090513	27.3404	34.7118	12.2035
 409	1	1	0.041176	27.0521	35.7679	10.0196
 410	1	1	0.130327	26.8123	37.0173	10.6554
 411	1	7	-0.071967	26.838	37.1243	12.0748
 412	1	1	-0.178735	27.0786	35.9484	12.8208
 413	1	5	-0.205934	27.6518	33.5084	13.0848
 414	1	1	-0.139817	27.0071	35.6985	8.60701
 415	1	1	-0.146593	26.75	36.8413	7.83549
 416	1	1	-0.1545	26.5455	38.0762	8.46129
 417	1	1	-0.172216	26.5817	38.1622	9.86015
 418	1	7	-0.107816	26.7059	38.4454	12.7884
 419	1	1	-0.127649	25.4657	39.1255	12.7916
 420	1	1	-0.062495	25.3285	40.4161	13.3355
 421	1	1	0.148158	26.4496	41.0588	13.9106
 422	1	1	-0.091615	27.69	40.3732	13.9823
 423	1	1	0.137007	27.8181	39.0785	13.4121
 424	1	1	-0.133704	29.0792	38.4428	13.434
 425	1	1	-0.230679	28.8201	40.9774	14.5877
 426	1	1	-0.154845	30.1867	39.0505	14.041
 427	1	1	-0.105714	30.0552	40.3151	14.6236
 428	1	5	-0.373818	23.9741	41.1137	13.2426
 429	1	8	0.152766	27.4706	25.2714	6.22182
 430	1	8	0.155405	29.9804	27.7235	8.81851
 431	1	8	0.159938	31.3624	25.7302	9.31119
 432	1	8	0.168438	30.7136	31.5645	7.8127
 433	1	8	0.13763	30.0549	29.3464	6.91459
 434	1	8	0.146749	26.2827	29.6597	9.09838
 435	1	8	0.160749	27.1004	36.0187	13.9048
 436	1	10	0.074263	28.6755	33.1522	12.9178
 437	1	10	0.076992	26.961	32.6806	12.8843
 438	1	10	0.075732	27.5566	33.7509	14.1503
 439	1	8	0.120118	27.1692	34.7615	8.08583
 440	1	8	0.145089	26.7227	36.7704	6.75082
 441	1	8	0.146654	26.3633	38.9678	7.86544
 442	1	8	0.147988	26.4344	39.1341	10.3197
 443	1	8	0.166658	24.61	38.6481	12.3199
 444	1	8	0.132671	29.2182	37.4709	12.9735
 445	1	8	0.178371	28.7661	41.9602	15.0464
 446	1	8	0.137951	31.1473	38.5419	14.0527
 447	1	8	0.128868	30.9149	40.787	15.0934
 448	1	10	0.119422	23.9882	41.9088	12.4852
 449	1	10	0.137967	23.6794	41.5575	14.2035
 450	1	10	0.115874	23.1764	40.4127	12.9646
 451	1	1	-0.015291	15.3492	16.6786	8.95644
 452	1	1	-0.066451	16.695	16.8472	9.38591
 453	1	1	-0.157747	17.6021	17.5118	8.51202
 454	1	2	-0.394636	12.639	16.5876	7.41053
 455	1	1	0.035045	14.9719	17.1688	7.69803
 456	1	1	-0.04863	17.2004	18.0053	7.25549
 457	1	2	-0.369731	15.6685	18.8259	4.69324
 458	1	1	0.009912	15.8698	17.8228	6.87915
 459	1	3	0.064933	13.6583	17.1159	6.9984
 460	1	4	0.489832	13.8666	17.766	5.78034
 461	1	3	0.01974	15.1729	18.2325	5.63716
 462	1	1	-0.15002	20.0337	14.1813	9.35368
 463	1	5	-0.109385	17.2007	16.4156	10.7952
 464	1	1	-0.027748	18.6085	15.7653	10.6201
 465	1	1	-0.058225	18.7704	14.7294	9.65703
 466	1	1	-0.058862	21.1491	14.6838	10.031
 467	1	1	-0.073426	19.7632	16.2134	11.3159
 468	1	1	-0.053817	21.0111	15.6681	10.9878
 469	1	5	0.313225	16.288	15.3399	11.5026
 470	1	5	0.370299	17.2097	17.7311	11.6696
 471	1	6	-0.09626	16.895	14.8215	12.5942
 472	1	6	-0.107747	16.0107	14.2954	10.6907
 473	1	6	-0.102822	15.0994	15.8303	11.9198
 474	1	6	-0.119294	16.0099	18.3552	11.6494
 475	1	6	-0.123874	18.0959	18.6442	11.2104
 476	1	6	-0.116977	17.5097	17.5	12.9675
 477	1	3	0.454578	22.3633	16.1855	11.3188
 478	1	3	0.475587	22.5977	14.532	9.7175
 479	1	4	-0.008375	23.2245	15.543	10.4372
 480	1	2	-0.468822	22.5977	17.1677	12.0011
 481	1	2	-0.475809	23.0612	13.8792	8.79874
 482	1	1	-0.104577	24.4326	16.1675	10.0048
 483	1	1	0.090513	25.6507	15.9337	10.6781
 484	1	1	0.041176	24.3676	17.1335	8.96728
 485	1	1	0.130327	25.5208	17.879	8.6245
 486	1	7	-0.071967	26.7529	17.6472	9.29953
 487	1	1	-0.178735	26.7932	16.6743	10.3236
 488	1	5	-0.205934	25.7333	14.9319	11.8221
 489	1	1	-0.139817	23.1496	17.4058	8.29297
 490	1	1	-0.146593	23.0705	18.3958	7.30545
 491	1	1	-0.1545	24.2035	19.1463	6.98366
 492	1	1	-0.172216	25.4125	18.8941	7.64343
 493	1	7	-0.107816	27.914	18.5603	9.0619
 494	1	1	-0.127649	28.0675	19.6261	9.9654
 495	1	1	-0.062495	28.7749	20.7837	9.61937
 496	1	1	0.148158	29.3558	20.8926	8.32868
 497	1	1	-0.091615	29.3303	19.7735	7.45267
 498	1	1	0.137007	28.6148	18.6063	7.82798
 499	1	1	-0.133704	28.5099	17.5299	6.92387
 500	1	1	-0.230679	29.9275	19.8277	6.17024
 501	1	1	-0.154845	29.1243	17.5886	5.66524
 502	1	1	-0.105714	29.8314	18.7378	5.28918
 503	1	5	-0.373818	28.7382	21.9437	10.6147
 504	1	8	0.152766	14.5948	16.1963	9.56878
 505	1	8	0.155405	18.6338	17.673	8.81716
 506	1	8	0.159938	17.8942	18.5224	6.59594
 507	1	8	0.168438	20.1549	13.4507	8.55595
 508	1	8	0.13763	17.9127	14.3852	9.08537
 509	1	8	0.146749	19.7386	17.0257	12.0347
 510	1	8	0.160749	27.7201	16.5259	10.8702
 511	1	10	0.074263	26.7671	14.7805	12.1561
 512	1	10	0.076992	25.3419	13.953	11.5187
 513	1	10	0.075732	25.1539	15.2788	12.687
 514	1	8	0.120118	22.2401	16.8639	8.51771
 515	1	8	0.145089	22.1283	18.5887	6.79929
 516	1	8	0.146654	24.1496	19.928	6.22924
 517	1	8	0.147988	26.2618	19.5137	7.37925
 518	1	8	0.166658	27.5045	19.6018	10.8952
 519	1	8	0.132671	27.9494	16.6401	7.19683
 520	1	8	0.178371	30.4703	20.7074	5.83633
 521	1	8	0.137951	29.0397	16.7493	4.97911
 522	1	8	0.128868	30.2948	18.787	4.30656
 523	1	10	0.119422	28.2014	22.8117	10.2113
 524	1	10	0.137967	29.7504	22.2599	10.8993
 525	1	10	0.115874	28.2347	21.6631	11.5484
 526	1	1	-0.015291	4.71293	14.6707	-6.91999
 527	1	1	-0.066451	4.85002	15.952	-7.52195
 528	1	1	-0.157747	3.65529	16.6983	-7.75941
 529	1	2	-0.394636	3.76645	11.8378	-6.07152
 530	1	1	0.035045	3.43145	14.1427	-6.71879
 531	1	1	-0.04863	2.37569	16.1677	-7.49877
 532	1	2	-0.369731	-0.0574649	14.2905	-7.02965
 533	1	1	0.009912	2.29368	14.865	-7.01099
 534	1	3	0.064933	3.02259	12.7619	-6.35613
 535	1	4	0.489832	1.63369	12.7477	-6.48365
 536	1	3	0.01974	1.1085	13.9875	-6.83853
 537	1	1	-0.15002	9.58861	16.8684	-6.11372
 538	1	5	-0.109385	6.25335	16.3979	-8.06341
 539	1	1	-0.027748	7.25179	16.6443	-6.8962
 540	1	1	-0.058225	8.6554	16.5218	-7.10639
 541	1	1	-0.058862	9.10248	17.3579	-4.90121
 542	1	1	-0.073426	6.79973	17.1387	-5.64125
 543	1	1	-0.053817	7.7494	17.4861	-4.66289
 544	1	5	0.313225	6.2061	17.7568	-8.86499
 545	1	5	0.370299	6.73157	15.248	-9.05186
 546	1	6	-0.09626	5.76228	18.7773	-8.09603
 547	1	6	-0.107747	5.41738	17.6814	-9.96142
 548	1	6	-0.102822	7.42568	18.1555	-9.29335
 549	1	6	-0.119294	5.70773	14.7838	-9.80519
 550	1	6	-0.123874	7.23939	14.1841	-8.38934
 551	1	6	-0.116977	7.68789	15.6182	-9.93176
 552	1	3	0.454578	7.5837	17.9841	-3.26338
 553	1	3	0.475587	9.84311	17.7641	-3.68281
 554	1	4	-0.008375	8.87316	18.0872	-2.74494
 555	1	2	-0.468822	6.52776	18.1505	-2.67844
 556	1	2	-0.475809	11.0494	17.6956	-3.52291
 557	1	1	-0.104577	9.21073	18.2577	-1.36628
 558	1	1	0.090513	9.18894	17.1172	-0.536554
 559	1	1	0.041176	9.777	19.4655	-0.883661
 560	1	1	0.130327	10.3817	19.505	0.402647
 561	1	7	-0.071967	10.3854	18.3431	1.2291
 562	1	1	-0.178735	9.76061	17.1764	0.74041
 563	1	5	-0.205934	8.64062	15.7824	-1.02886
 564	1	1	-0.139817	9.79624	20.6244	-1.69321
 565	1	1	-0.146593	10.4051	21.8058	-1.24291
 566	1	1	-0.1545	11.0302	21.8362	0.00951605
 567	1	1	-0.172216	11.03	20.6897	0.81767
 568	1	7	-0.107816	11.1822	18.212	2.49542
 569	1	1	-0.127649	12.2167	17.2533	2.49087
 570	1	1	-0.062495	13.0583	17.0625	3.59251
 571	1	1	0.148158	12.8993	17.8734	4.73951
 572	1	1	-0.091615	11.835	18.8118	4.79883
 573	1	1	0.137007	10.9662	18.9642	3.68414
 574	1	1	-0.133704	9.89076	19.8731	3.76732
 575	1	1	-0.230679	11.6222	19.6042	5.95313
 576	1	1	-0.154845	9.68752	20.6456	4.92016
 577	1	1	-0.105714	10.5561	20.5141	6.01023
 578	1	5	-0.373818	14.146	15.9944	3.49072
 579	1	8	0.152766	5.57029	14.0412	-6.70398
 580	1	8	0.155405	3.67587	17.6811	-8.21382
 581	1	8	0.159938	1.47135	16.7205	-7.7437
 582	1	8	0.168438	10.6595	16.7707	-6.28297
 583	1	8	0.13763	9.05069	16.1833	-8.05717
 584	1	8	0.146749	5.74178	17.2791	-5.4335
 585	1	8	0.160749	9.78131	16.2798	1.35315
 586	1	10	0.074263	9.18782	15.43	-1.91204
 587	1	10	0.076992	7.57894	15.867	-1.29182
 588	1	10	0.075732	8.72382	15.0012	-0.263977
 589	1	8	0.120118	9.33572	20.625	-2.6756
 590	1	8	0.145089	10.4081	22.6922	-1.87281
 591	1	8	0.146654	11.5228	22.7435	0.35212
 592	1	8	0.147988	11.5435	20.7322	1.77196
 593	1	8	0.166658	12.3799	16.6659	1.59041
 594	1	8	0.132671	9.20355	19.9849	2.93445
 595	1	8	0.178371	12.2567	19.5165	6.83036
 596	1	8	0.137951	8.85539	21.3435	4.96801
 597	1	8	0.128868	10.395	21.1095	6.90616
 598	1	10	0.119422	14.2147	15.3894	4.40399
 599	1	10	0.137967	15.1288	16.4465	3.29866
 600	1	10	0.115874	13.9469	15.2954	2.66812
 601	1	1	-0.015291	-2.02134	-1.64119	0.0428299
 602	1	1	-0.066451	-2.6476	-0.827339	1.02757
 603	1	1	-0.157747	-3.63071	-1.42638	1.8681
 604	1	2	-0.394636	-0.925954	-3.96549	-1.73165
 605	1	1	0.035045	-2.39638	-2.9839	-0.076381
 606	1	1	-0.04863	-4.0208	-2.76941	1.70574
 607	1	2	-0.369731	-4.38221	-5.70951	0.839013
 608	1	1	0.009912	-3.39187	-3.51855	0.712526
 609	1	3	0.064933	-1.85429	-4.06469	-0.946209
 610	1	4	0.489832	-2.5896	-5.20158	-0.605817
 611	1	3	0.01974	-3.56939	-4.941	0.352589
 612	1	1	-0.15002	-4.01867	1.42816	-2.28002
 613	1	5	-0.109385	-2.26387	0.682367	1.11204
 614	1	1	-0.027748	-2.55927	1.30991	-0.277828
 615	1	1	-0.058225	-3.68464	0.864311	-1.03169
 616	1	1	-0.058862	-3.22236	2.47155	-2.75979
 617	1	1	-0.073426	-1.79641	2.38875	-0.788742
 618	1	1	-0.053817	-2.15586	2.94204	-2.02249
 619	1	5	0.313225	-0.73938	0.750478	1.53162
 620	1	5	0.370299	-3.11638	1.50776	2.1518
 621	1	6	-0.09626	-0.477114	-0.0954231	2.55397
 622	1	6	-0.107747	-0.33227	1.97275	1.94022
 623	1	6	-0.102822	0.0862955	0.399405	0.5209
 624	1	6	-0.119294	-4.44358	1.40606	1.91016
 625	1	6	-0.123874	-2.84873	2.83229	2.09601
 626	1	6	-0.116977	-2.89863	1.11834	3.42869
 627	1	3	0.454578	-1.58371	4.10747	-2.73347
 628	1	3	0.475587	-3.35161	3.30806	-3.98662
 629	1	4	-0.008375	-2.35695	4.2718	-3.87667
 630	1	2	-0.468822	-0.654488	4.79609	-2.34754
 631	1	2	-0.475809	-4.20405	3.1993	-4.85068
 632	1	1	-0.104577	-2.14472	5.37082	-4.76056
 633	1	1	0.090513	-0.942823	5.41491	-5.50225
 634	1	1	0.041176	-2.98142	6.51502	-4.70012
 635	1	1	0.130327	-2.54095	7.73288	-5.27279
 636	1	7	-0.071967	-1.25053	7.81857	-5.85798
 637	1	1	-0.178735	-0.501306	6.63714	-6.02618
 638	1	5	-0.205934	-0.026827	4.20321	-5.62972
 639	1	1	-0.139817	-4.21671	6.49475	-4.01048
 640	1	1	-0.146593	-5.01601	7.64544	-3.92863
 641	1	1	-0.1545	-4.5846	8.84205	-4.51337
 642	1	1	-0.172216	-3.34676	8.88656	-5.16928
 643	1	7	-0.107816	-0.55104	9.12944	-6.01608
 644	1	1	-0.127649	-0.23794	9.62388	-7.29844
 645	1	1	-0.062495	0.45996	10.8319	-7.4598
 646	1	1	0.148158	0.852392	11.5725	-6.31797
 647	1	1	-0.091615	0.531461	11.1082	-5.02039
 648	1	1	0.137007	-0.147079	9.8749	-4.8714
 649	1	1	-0.133704	-0.392194	9.38525	-3.56773
 650	1	1	-0.230679	0.895509	11.8471	-3.8671
 651	1	1	-0.154845	-0.0235192	10.1216	-2.43446
 652	1	1	-0.105714	0.610285	11.3589	-2.58432
 653	1	5	-0.373818	0.786762	11.3056	-8.87436
 654	1	8	0.152766	-1.26492	-1.24722	-0.62985