pySIMM System Object

752 atoms
831 bonds
1440 angles
2216 dihedrals
240 impropers

10 atom types
13 bond types
22 angle types
9 dihedral types
4 improper types

-114.376587 114.376587 xlo xhi
-114.376587 114.376587 ylo yhi
-114.376587 114.376587 zlo zhi

Masses

   1	12.01	# ca
   2	16.0	# o
   3	12.01	# c
   4	14.01	# n
   5	12.01	# c3
   6	19.0	# f
   7	12.01	# cp
   8	1.008	# ha
   9	1.008	# hn
  10	1.008	# hc

Pair Coeffs

   1	0.086	3.3996695084235347	# ca
   2	0.21	2.959921901149463	# o
   3	0.086	3.3996695084235347	# c
   4	0.17	3.249998523775958	# n
   5	0.1094	3.3996695084235347	# c3
   6	0.061	3.1181455134911875	# f
   7	0.086	3.3996695084235347	# cp
   8	0.015	2.59964245953351	# ha
   9	0.0157	1.069078461768407	# hn
  10	0.0157	2.649532787749369	# hc

Bond Coeffs

   1	356.9	1.3497	# c3,f
   2	450.2	1.4058	# ca,cp
   3	403.2	1.0129	# hn,n
   4	461.1	1.3984	# ca,ca
   5	427.6	1.3789	# c,n
   6	345.9	1.4906	# c,ca
   7	300.9	1.5375	# c3,c3
   8	330.6	1.0969	# c3,hc
   9	351.4	1.4854	# cp,cp
  10	345.8	1.086	# ca,ha
  11	321.0	1.5156	# c3,ca
  12	384.2	1.4121	# ca,n
  13	637.7	1.2183	# c,o

Angle Coeffs

   1	74.22	123.05	# n,c,o
   2	66.62	120.02	# ca,ca,ca
   3	68.72	122.6	# ca,c,o
   4	67.68	115.25	# ca,c,n
   5	48.33	117.55	# c,n,hn
   6	64.28	120.33	# c,ca,ca
   7	47.98	119.86	# cp,ca,ha
   8	39.4	107.58	# hc,c3,hc
   9	63.53	120.77	# c3,ca,ca
  10	70.89	107.36	# f,c3,f
  11	67.87	120.19	# ca,ca,n
  12	66.72	118.38	# ca,cp,ca
  13	46.8	110.47	# ca,c3,hc
  14	62.86	111.51	# c3,c3,c3
  15	66.11	109.24	# c3,c3,f
  16	63.15	112.07	# c3,c3,ca
  17	63.82	123.71	# c,n,ca
  18	66.26	120.69	# ca,ca,cp
  19	63.56	112.24	# ca,c3,ca
  20	63.74	127.08	# c,n,c
  21	48.18	119.88	# ca,ca,ha
  22	64.05	121.11	# ca,cp,cp

Dihedral Coeffs

   1	2	2.5	2	180	2.0	1	0	# hn,n,c,o
   2	1	3.625	2	180	# X,ca,cp,X
   3	1	1.0	2	180	# X,cp,cp,X
   4	1	3.625	2	180	# X,ca,ca,X
   5	1	1.0	2	180	# X,c,ca,X
   6	1	0.0	2	0	# X,c3,ca,X
   7	1	0.15555555555555556	3	0	# X,c3,c3,X
   8	1	2.5	2	180	# X,c,n,X
   9	1	0.45	2	180	# X,ca,n,X

Improper Coeffs

   1	10.5	-1	2	# c,X,X,o
   2	1.1	-1	2	# n,X,X,hn
   3	1.1	-1	2	# ca,ca,ca,c3
   4	1.1	-1	2	# ca,X,X,ha

Atoms

   1	1	1	-0.015291	-2.36407	-56.8514	63.5729
   2	1	1	-0.066451	-1.7816	-56.5557	64.834
   3	1	1	-0.157747	-1.00135	-55.37	64.9548
   4	1	2	-0.394636	-3.3392	-56.9153	60.6262
   5	1	1	0.035045	-2.16359	-55.9621	62.5117
   6	1	1	-0.04863	-0.804845	-54.492	63.8696
   7	1	2	-0.369731	-0.756148	-53.0851	61.0929
   8	1	1	0.009912	-1.40421	-54.8179	62.6521
   9	1	3	0.064933	-2.64113	-56.0389	61.1086
  10	1	4	0.489832	-2.11176	-54.9118	60.4846
  11	1	3	0.01974	-1.35469	-54.1179	61.344
  12	1	1	-0.15002	-3.5661	-54.7725	68.2864
  13	1	5	-0.109385	-1.91761	-57.4946	66.0681
  14	1	1	-0.027748	-2.2112	-56.6007	67.308
  15	1	1	-0.058225	-3.24142	-55.6226	67.2116
  16	1	1	-0.058862	-2.83818	-54.9111	69.4705
  17	1	1	-0.073426	-1.50456	-56.7144	68.5353
  18	1	1	-0.053817	-1.83584	-55.8518	69.5882
  19	1	5	0.313225	-0.563806	-58.2991	66.1633
  20	1	5	0.370299	-3.11587	-58.5183	65.9669
  21	1	6	-0.09626	0.484597	-57.496	66.4545
  22	1	6	-0.107747	-0.255989	-58.8958	64.989
  23	1	6	-0.102822	-0.590679	-59.2755	67.0983
  24	1	6	-0.119294	-2.90926	-59.5012	65.062
  25	1	6	-0.123874	-4.27411	-57.9106	65.6235
  26	1	6	-0.116977	-3.34788	-59.1275	67.1519
  27	1	3	0.454578	-1.22281	-55.7062	70.9353
  28	1	3	0.475587	-2.90737	-54.1377	70.7378
  29	1	4	-0.008375	-1.90405	-54.659	71.5424
  30	1	2	-0.468822	-0.267432	-56.3289	71.3643
  31	1	2	-0.475809	-3.64462	-53.1954	70.9705
  32	1	1	-0.104577	-1.55053	-54.1131	72.8101
  33	1	1	0.090513	-0.668861	-53.013	72.8549
  34	1	1	0.041176	-2.07447	-54.6518	74.0101
  35	1	1	0.130327	-1.70617	-54.0866	75.2575
  36	1	7	-0.071967	-0.831127	-52.9653	75.305
  37	1	1	-0.178735	-0.31981	-52.4559	74.0931
  38	1	5	-0.205934	-0.103292	-52.3984	71.5797
  39	1	1	-0.139817	-2.9705	-55.7453	73.9835
  40	1	1	-0.146593	-3.48726	-56.2783	75.1736
  41	1	1	-0.1545	-3.10715	-55.7342	76.4068
  42	1	1	-0.172216	-2.2192	-54.6488	76.4467
  43	1	7	-0.107816	-0.441025	-52.2841	76.5795
  44	1	1	-0.127649	0.907699	-52.3484	77.0001
  45	1	1	-0.062495	1.33485	-51.7269	78.1833
  46	1	1	0.148158	0.403441	-51.0242	78.968
  47	1	1	-0.091615	-0.94002	-50.9246	78.5662
  48	1	1	0.137007	-1.3665	-51.5419	77.3673
  49	1	1	-0.133704	-2.7125	-51.3924	76.97
  50	1	1	-0.230679	-1.8517	-50.1972	79.3568
  51	1	1	-0.154845	-3.6182	-50.6642	77.7587
  52	1	1	-0.105714	-3.1899	-50.0697	78.9543
  53	1	5	-0.373818	2.79756	-51.8149	78.5926
  54	1	8	0.152766	-2.95147	-57.7447	63.39
  55	1	8	0.155405	-0.525576	-55.1273	65.9024
  56	1	8	0.159938	-0.19848	-53.5936	63.9645
  57	1	8	0.168438	-4.34816	-54.0205	68.1995
  58	1	8	0.13763	-3.79586	-55.51	66.2835
  59	1	8	0.146749	-0.706469	-57.4331	68.6907
  60	1	8	0.160749	0.342332	-51.5955	74.1254
  61	1	10	0.074263	0.410246	-53.1519	70.9699
  62	1	10	0.076992	0.622827	-51.6059	71.7972
  63	1	10	0.075732	-0.902422	-51.952	70.9745
  64	1	8	0.120118	-3.27984	-56.1938	73.0452
  65	1	8	0.145089	-4.17808	-57.1173	75.1388
  66	1	8	0.146654	-3.5002	-56.1508	77.3313
  67	1	8	0.147988	-1.93299	-54.2445	77.4127
  68	1	8	0.166658	1.62562	-52.8982	76.397
  69	1	8	0.132671	-3.06532	-51.8348	76.0437
  70	1	8	0.178371	-1.52169	-49.7251	80.2791
  71	1	8	0.137951	-4.65163	-50.5593	77.4392
  72	1	8	0.128868	-3.89234	-49.5046	79.5622
  73	1	10	0.119422	3.14909	-52.8543	78.5821
  74	1	10	0.137967	2.96185	-51.4215	79.604
  75	1	10	0.115874	3.42982	-51.2379	77.9059
  76	1	1	-0.015291	-2.55437	-52.1856	42.4066
  77	1	1	-0.066451	-2.00161	-52.2717	43.711
  78	1	1	-0.157747	-1.25191	-51.1631	44.1987
  79	1	2	-0.394636	-3.56446	-51.3683	39.6005
  80	1	1	0.035045	-2.38202	-51.0085	41.6759
  81	1	1	-0.04863	-1.07802	-49.9877	43.4368
  82	1	2	-0.369731	-1.15017	-47.7594	41.2471
  83	1	1	0.009912	-1.66797	-49.937	42.1715
  84	1	3	0.064933	-2.88869	-50.6597	40.3283
  85	1	4	0.489832	-2.43305	-49.3657	40.0973
  86	1	3	0.01974	-1.68265	-48.8529	41.155
  87	1	1	-0.15002	-3.96218	-51.652	47.4866
  88	1	5	-0.109385	-2.16098	-53.5368	44.6039
  89	1	1	-0.027748	-2.54041	-53.0764	46.0403
  90	1	1	-0.058225	-3.53277	-52.0687	46.2094
  91	1	1	-0.058862	-3.38267	-52.2629	48.6032
  92	1	1	-0.073426	-1.98956	-53.6769	47.2017
  93	1	1	-0.053817	-2.42397	-53.2437	48.4581
  94	1	5	0.313225	-0.788398	-54.3108	44.5297
  95	1	5	0.370299	-3.32363	-54.4965	44.1371
  96	1	6	-0.09626	0.195442	-53.655	45.1864
  97	1	6	-0.107747	-0.36314	-54.445	43.2528
  98	1	6	-0.102822	-0.849073	-55.5596	45.0451
  99	1	6	-0.119294	-3.03754	-55.1636	42.9961
 100	1	6	-0.123874	-4.47731	-53.8215	43.9281
 101	1	6	-0.116977	-3.60564	-55.4331	45.0712
 102	1	3	0.454578	-2.046	-53.7297	49.8075
 103	1	3	0.475587	-3.65414	-52.0905	50.0572
 104	1	4	-0.008375	-2.83343	-53.0118	50.696
 105	1	2	-0.468822	-1.22168	-54.5912	50.0597
 106	1	2	-0.475809	-4.46777	-51.3334	50.5574
 107	1	1	-0.104577	-2.83559	-53.2587	52.0989
 108	1	1	0.090513	-1.80626	-52.7179	52.8977
 109	1	1	0.041176	-3.81256	-54.1072	52.6777
 110	1	1	0.130327	-3.74715	-54.4193	54.0586
 111	1	7	-0.071967	-2.73075	-53.8474	54.8721
 112	1	1	-0.178735	-1.76971	-53.0108	54.2678
 113	1	5	-0.205934	-0.722337	-51.8262	52.3046
 114	1	1	-0.139817	-4.85027	-54.6651	51.8943
 115	1	1	-0.146593	-5.7962	-55.5297	52.4642
 116	1	1	-0.1545	-5.71072	-55.8633	53.8212
 117	1	1	-0.172216	-4.6913	-55.3123	54.6111
 118	1	7	-0.107816	-2.62341	-54.098	56.342
 119	1	1	-0.127649	-1.51055	-54.8224	56.8154
 120	1	1	-0.062495	-1.33882	-55.0919	58.1795
 121	1	1	0.148158	-2.29712	-54.6238	59.1068
 122	1	1	-0.091615	-3.42096	-53.8831	58.6622
 123	1	1	0.137007	-3.57774	-53.6152	57.2793
 124	1	1	-0.133704	-4.68658	-52.8566	56.8461
 125	1	1	-0.230679	-4.39018	-53.4009	59.576
 126	1	1	-0.154845	-5.64197	-52.3893	57.7595
 127	1	1	-0.105714	-5.49453	-52.6634	59.124
 128	1	5	-0.373818	-0.116381	-55.8937	58.6202
 129	1	8	0.152766	-3.11624	-52.9909	41.9467
 130	1	8	0.155405	-0.797482	-51.2095	45.1859
 131	1	8	0.159938	-0.508934	-49.141	43.8151
 132	1	8	0.168438	-4.7348	-50.8946	47.6063
 133	1	8	0.13763	-3.99397	-51.6127	45.3369
 134	1	8	0.146749	-1.25905	-54.478	47.1601
 135	1	8	0.160749	-0.985682	-52.5828	54.8861
 136	1	10	0.074263	-0.0973359	-52.3871	51.5984
 137	1	10	0.076992	-0.0577969	-51.4249	53.0795
 138	1	10	0.075732	-1.15906	-50.9711	51.7745
 139	1	8	0.120118	-4.94316	-54.4364	50.8383
 140	1	8	0.145089	-6.58998	-55.948	51.85
 141	1	8	0.146654	-6.43288	-56.5467	54.2622
 142	1	8	0.147988	-4.63803	-55.5895	55.6594
 143	1	8	0.166658	-0.780223	-55.1883	56.0978
 144	1	8	0.132671	-4.81871	-52.6224	55.7946
 145	1	8	0.178371	-4.30948	-53.5845	60.6434
 146	1	8	0.137951	-6.49404	-51.8134	57.4071
 147	1	8	0.128868	-6.23502	-52.2986	59.8319
 148	1	10	0.119422	-0.408652	-56.8252	59.1232
 149	1	10	0.137967	0.518109	-55.314	59.3044
 150	1	10	0.115874	0.513383	-56.1771	57.7671
 151	1	1	-0.015291	-3.40224	-40.4374	24.2575
 152	1	1	-0.066451	-2.90427	-41.1058	25.4083
 153	1	1	-0.157747	-2.05107	-40.3838	26.2902
 154	1	2	-0.394636	-4.15525	-38.4381	22.0006
 155	1	1	0.035045	-3.04194	-39.1018	24.0419
 156	1	1	-0.04863	-1.6858	-39.0444	26.0442
 157	1	2	-0.369731	-1.2623	-36.1968	24.8579
 158	1	1	0.009912	-2.19882	-38.4272	24.9017
 159	1	3	0.064933	-3.40901	-38.1853	22.9321
 160	1	4	0.489832	-2.72662	-36.9988	23.1979
 161	1	3	0.01974	-1.9731	-37.059	24.3691
 162	1	1	-0.15002	-4.94055	-41.9483	29.1155
 163	1	5	-0.109385	-3.19211	-42.6061	25.7064
 164	1	1	-0.027748	-3.56622	-42.7374	27.2095
 165	1	1	-0.058225	-4.52411	-41.8452	27.7712
 166	1	1	-0.058862	-4.37678	-42.9615	29.8978
 167	1	1	-0.073426	-3.03069	-43.7555	28.0382
 168	1	1	-0.053817	-3.44791	-43.8323	29.3679
 169	1	5	0.313225	-1.88246	-43.3943	25.3082
 170	1	5	0.370299	-4.41203	-43.2003	24.9012
 171	1	6	-0.09626	-0.850413	-43.1186	26.1383
 172	1	6	-0.107747	-1.45982	-43.0601	24.0679
 173	1	6	-0.102822	-2.04443	-44.737	25.3085
 174	1	6	-0.119294	-4.15229	-43.3658	23.5849
 175	1	6	-0.123874	-5.50822	-42.4138	24.9931
 176	1	6	-0.116977	-4.78062	-44.4114	25.3788
 177	1	3	0.454578	-3.05305	-44.7974	30.4196
 178	1	3	0.475587	-4.61224	-43.3462	31.3168
 179	1	4	-0.008375	-3.79336	-44.4467	31.5364
 180	1	2	-0.468822	-2.2361	-45.6947	30.3085
 181	1	2	-0.475809	-5.36979	-42.802	32.1013
 182	1	1	-0.104577	-3.71801	-45.1648	32.7599
 183	1	1	0.090513	-2.7132	-44.8282	33.6893
 184	1	1	0.041176	-4.58271	-46.2594	33.0063
 185	1	1	0.130327	-4.45066	-47.0037	34.2043
 186	1	7	-0.071967	-3.46544	-46.638	35.1608
 187	1	1	-0.178735	-2.60409	-45.56	34.877
 188	1	5	-0.205934	-1.72154	-43.7032	33.4214
 189	1	1	-0.139817	-5.56477	-46.6386	32.0616
 190	1	1	-0.146593	-6.39132	-47.748	32.2929
 191	1	1	-0.1545	-6.25157	-48.491	33.4721
 192	1	1	-0.172216	-5.28975	-48.1172	34.4237
 193	1	7	-0.107816	-3.26828	-47.354	36.453
 194	1	1	-0.127649	-2.13181	-48.175	36.5902
 195	1	1	-0.062495	-1.8462	-48.8299	37.7944
 196	1	1	0.148158	-2.7114	-48.6603	38.8986
 197	1	1	-0.091615	-3.85556	-47.8295	38.7931
 198	1	1	0.137007	-4.12992	-47.1744	37.5673
 199	1	1	-0.133704	-5.25649	-46.3303	37.4702
 200	1	1	-0.230679	-4.72658	-47.6323	39.8928
 201	1	1	-0.154845	-6.10941	-46.1406	38.5668
 202	1	1	-0.105714	-5.84464	-46.7926	39.7771
 203	1	5	-0.373818	-0.600831	-49.7092	37.8725
 204	1	8	0.152766	-4.03949	-40.9221	23.5255
 205	1	8	0.155405	-1.64364	-40.8734	27.172
 206	1	8	0.159938	-1.01634	-38.5044	26.7104
 207	1	8	0.168438	-5.68438	-41.2722	29.5335
 208	1	8	0.13763	-4.96449	-41.067	27.1528
 209	1	8	0.146749	-2.3168	-44.4922	27.6862
 210	1	8	0.160749	-1.83784	-45.2976	35.601
 211	1	10	0.074263	-1.12324	-43.9153	32.5264
 212	1	10	0.076992	-1.02088	-43.5728	34.2552
 213	1	10	0.075732	-2.23779	-42.747	33.2737
 214	1	8	0.120118	-5.69574	-46.0889	31.1355
 215	1	8	0.145089	-7.1352	-48.0344	31.5531
 216	1	8	0.146654	-6.88513	-49.3574	33.6482
 217	1	8	0.147988	-5.1903	-48.7082	35.3294
 218	1	8	0.166658	-1.46899	-48.2982	35.7372
 219	1	8	0.132671	-5.47821	-45.811	36.5429
 220	1	8	0.178371	-4.55146	-48.1102	40.8522
 221	1	8	0.137951	-6.97236	-45.4854	38.4772
 222	1	8	0.128868	-6.50446	-46.6412	40.6282
 223	1	10	0.119422	-0.00674887	-49.6543	36.9511
 224	1	10	0.137967	-0.86601	-50.765	38.0201
 225	1	10	0.115874	0.0591562	-49.3993	38.6938
 226	1	1	-0.015291	-2.73207	-24.0326	10.0954
 227	1	1	-0.066451	-2.20097	-24.9354	11.0582
 228	1	1	-0.157747	-1.14344	-24.4767	11.8935
 229	1	2	-0.394636	-3.42393	-21.6446	8.23456
 230	1	1	0.035045	-2.22364	-22.7305	10.0298
 231	1	1	-0.04863	-0.647025	-23.1586	11.8122
 232	1	2	-0.369731	-0.058432	-20.1914	11.0881
 233	1	1	0.009912	-1.2175	-22.3009	10.8693
 234	1	3	0.064933	-2.583	-21.6138	9.11803
 235	1	4	0.489832	-1.75325	-20.5554	9.49077
 236	1	3	0.01974	-0.900445	-20.887	10.5445
 237	1	1	-0.15002	-3.54801	-26.2649	14.9513
 238	1	5	-0.109385	-2.66231	-26.4224	11.1632
 239	1	1	-0.027748	-2.78499	-26.8352	12.6631
 240	1	1	-0.058225	-3.33582	-25.9158	13.6006
 241	1	1	-0.058862	-3.22074	-27.564	15.3555
 242	1	1	-0.073426	-2.47157	-28.1451	13.119
 243	1	1	-0.053817	-2.70025	-28.4759	14.4618
 244	1	5	0.313225	-1.58366	-27.2601	10.375
 245	1	5	0.370299	-4.08664	-26.6759	10.5362
 246	1	6	-0.09626	-0.41773	-27.3322	11.0564
 247	1	6	-0.107747	-1.29123	-26.6966	9.18007
 248	1	6	-0.102822	-1.97207	-28.5272	10.1087
 249	1	6	-0.119294	-4.09606	-26.6141	9.18559
 250	1	6	-0.123874	-4.98988	-25.7767	10.9893
 251	1	6	-0.116977	-4.57188	-27.8952	10.8643
 252	1	3	0.454578	-2.51879	-29.7702	15.1749
 253	1	3	0.475587	-3.38491	-28.2429	16.6719
 254	1	4	-0.008375	-2.95912	-29.5513	16.4748
 255	1	2	-0.468822	-2.08045	-30.8016	14.6965
 256	1	2	-0.475809	-3.82183	-27.7415	17.6931
 257	1	1	-0.104577	-2.99423	-30.5648	17.4833
 258	1	1	0.090513	-1.85359	-30.7872	18.2825
 259	1	1	0.041176	-4.14347	-31.3752	17.6618
 260	1	1	0.130327	-4.14757	-32.4	18.6454
 261	1	7	-0.071967	-3.01746	-32.5905	19.4934
 262	1	1	-0.178735	-1.88016	-31.781	19.2746
 263	1	5	-0.205934	-0.579445	-29.9774	18.0771
 264	1	1	-0.139817	-5.28721	-31.192	16.8497
 265	1	1	-0.146593	-6.40908	-32.0217	16.9891
 266	1	1	-0.1545	-6.40054	-33.0545	17.9335
 267	1	1	-0.172216	-5.2765	-33.2433	18.7502
 268	1	7	-0.107816	-2.94522	-33.6645	20.5445
 269	1	1	-0.127649	-1.95074	-34.6569	20.4071
 270	1	1	-0.062495	-1.85353	-35.736	21.2976
 271	1	1	0.148158	-2.78653	-35.8567	22.3516
 272	1	1	-0.091615	-3.76916	-34.8541	22.5464
 273	1	1	0.137007	-3.82985	-33.7472	21.6593
 274	1	1	-0.133704	-4.7818	-32.7324	21.8972
 275	1	1	-0.230679	-4.6934	-34.94	23.6166
 276	1	1	-0.154845	-5.68387	-32.8232	22.9678
 277	1	1	-0.105714	-5.64589	-33.9319	23.8212
 278	1	5	-0.373818	-0.748491	-36.7671	21.0826
 279	1	8	0.152766	-3.50944	-24.3098	9.39217
 280	1	8	0.155405	-0.688972	-25.1552	12.6121
 281	1	8	0.159938	0.164123	-22.8142	12.45
 282	1	8	0.168438	-3.9815	-25.5585	15.657
 283	1	8	0.13763	-3.62609	-24.92	13.2746
 284	1	8	0.146749	-2.09235	-28.918	12.4592
 285	1	8	0.160749	-1.00149	-31.9373	19.8937
 286	1	10	0.074263	-0.198932	-30.1	17.0551
 287	1	10	0.076992	0.218575	-30.2939	18.7596
 288	1	10	0.075732	-0.758448	-28.9093	18.2513
 289	1	8	0.120118	-5.32104	-30.4136	16.095
 290	1	8	0.145089	-7.27858	-31.873	16.3534
 291	1	8	0.146654	-7.26123	-33.7122	18.0317
 292	1	8	0.147988	-5.28988	-34.0616	19.4625
 293	1	8	0.166658	-1.2615	-34.5927	19.5692
 294	1	8	0.132671	-4.827	-31.8604	21.2525
 295	1	8	0.178371	-4.68831	-35.776	24.3103
 296	1	8	0.137951	-6.41269	-32.0339	23.1336
 297	1	8	0.128868	-6.34825	-34.0041	24.6486
 298	1	10	0.119422	-0.171555	-36.9377	22.0017
 299	1	10	0.137967	-0.0302718	-36.4399	20.3198
 300	1	10	0.115874	-1.16054	-37.7291	20.7497
 301	1	1	-0.015291	-0.594842	-6.35341	-2.00865
 302	1	1	-0.066451	-0.134897	-7.06543	-0.86854
 303	1	1	-0.157747	0.366818	-6.31338	0.232148
 304	1	2	-0.394636	-1.38457	-4.28973	-4.1678
 305	1	1	0.035045	-0.519252	-4.95987	-2.0155
 306	1	1	-0.04863	0.437501	-4.90306	0.202046
 307	1	2	-0.369731	0.38573	-1.88441	-0.610801
 308	1	1	0.009912	-0.00422112	-4.25014	-0.951476
 309	1	3	0.064933	-0.887793	-4.00827	-3.08909
 310	1	4	0.489832	-0.54711	-2.7536	-2.59037
 311	1	3	0.01974	-0.00462068	-2.80658	-1.30666
 312	1	1	-0.15002	-2.22151	-9.10557	2.33891
 313	1	5	-0.109385	-0.0276917	-8.62136	-0.846644
 314	1	1	-0.027748	-0.56069	-9.1868	0.502198
 315	1	1	-0.058225	-1.65648	-8.5627	1.16396
 316	1	1	-0.058862	-1.68989	-10.3023	2.83321
 317	1	1	-0.073426	-0.063653	-10.4051	1.03579
 318	1	1	-0.053817	-0.646823	-10.9339	2.19052
 319	1	5	0.313225	1.5026	-8.93637	-1.07601
 320	1	5	0.370299	-0.883902	-9.31995	-1.97158
 321	1	6	-0.09626	2.23244	-8.68629	0.0350536
 322	1	6	-0.107747	2.0271	-8.16876	-2.05926
 323	1	6	-0.102822	1.75044	-10.2161	-1.4326
 324	1	6	-0.119294	-0.390538	-9.1201	-3.21481
 325	1	6	-0.123874	-2.1623	-8.87783	-1.95854
 326	1	6	-0.116977	-0.952318	-10.6602	-1.80427
 327	1	3	0.454578	-0.372518	-12.2163	2.88776
 328	1	3	0.475587	-2.10825	-11.155	3.98057
 329	1	4	-0.008375	-1.29104	-12.2772	3.92584
 330	1	2	-0.468822	0.458201	-13.0491	2.56918
 331	1	2	-0.475809	-3.006	-10.9181	4.77001
 332	1	1	-0.104577	-1.42485	-13.4026	4.78985
 333	1	1	0.090513	-0.65211	-13.4695	5.96853
 334	1	1	0.041176	-2.30031	-14.4649	4.4534
 335	1	1	0.130327	-2.41355	-15.5844	5.314
 336	1	7	-0.071967	-1.65693	-15.6415	6.51555
 337	1	1	-0.178735	-0.774146	-14.5825	6.81427
 338	1	5	-0.205934	0.330301	-12.3637	6.33366
 339	1	1	-0.139817	-3.05197	-14.439	3.25499
 340	1	1	-0.146593	-3.89568	-15.5061	2.91209
 341	1	1	-0.1545	-4.00162	-16.6146	3.76018
 342	1	1	-0.172216	-3.26404	-16.6525	4.95174
 343	1	7	-0.107816	-1.69156	-16.8381	7.40829
 344	1	1	-0.127649	-0.617266	-17.7423	7.32636
 345	1	1	-0.062495	-0.631845	-18.9624	8.01241
 346	1	1	0.148158	-1.74064	-19.2937	8.82898
 347	1	1	-0.091615	-2.82435	-18.3826	8.95604
 348	1	1	0.137007	-2.79443	-17.1553	8.24493
 349	1	1	-0.133704	-3.87557	-16.2563	8.36188
 350	1	1	-0.230679	-3.94957	-18.6782	9.76548
 351	1	1	-0.154845	-4.98072	-16.5617	9.16881
 352	1	1	-0.105714	-5.01823	-17.7742	9.86732
 353	1	5	-0.373818	0.556663	-19.9009	7.81596
 354	1	8	0.152766	-0.97136	-6.83811	-2.90187
 355	1	8	0.155405	0.743472	-6.83014	1.11204
 356	1	8	0.159938	0.848529	-4.33431	1.03349
 357	1	8	0.168438	-3.07019	-8.63351	2.83072
 358	1	8	0.13763	-2.09813	-7.65969	0.750278
 359	1	8	0.146749	0.724837	-10.9746	0.556619
 360	1	8	0.160749	-0.173721	-14.6395	7.71783
 361	1	10	0.074263	0.887836	-12.601	7.24793
 362	1	10	0.076992	-0.192683	-11.4144	6.50336
 363	1	10	0.075732	1.06761	-12.2126	5.53516
 364	1	8	0.120118	-2.98688	-13.6016	2.5688
 365	1	8	0.145089	-4.4621	-15.4758	1.98453
 366	1	8	0.146654	-4.64966	-17.4469	3.49487
 367	1	8	0.147988	-3.35575	-17.527	5.58847
 368	1	8	0.166658	0.220818	-17.4984	6.67812
 369	1	8	0.132671	-3.86407	-15.3107	7.82797
 370	1	8	0.178371	-4.02714	-19.6101	10.3169
 371	1	8	0.137951	-5.80751	-15.8601	9.24831
 372	1	8	0.128868	-5.87968	-18.0149	10.4862
 373	1	10	0.119422	0.241932	-20.9364	7.63634
 374	1	10	0.137967	1.21734	-19.8882	8.69387
 375	1	10	0.115874	1.16579	-19.6051	6.952
 376	1	1	-0.015291	-1.79046	9.47659	-15.8597
 377	1	1	-0.066451	-1.28675	8.72483	-14.7678
 378	1	1	-0.157747	-0.39896	9.36653	-13.8574
 379	1	2	-0.394636	-2.49284	11.5785	-18.009
 380	1	1	0.035045	-1.41794	10.8144	-15.9858
 381	1	1	-0.04863	-0.0305019	10.7207	-14.0078
 382	1	2	-0.369731	0.391028	13.6478	-15.0138
 383	1	1	0.009912	-0.563141	11.4242	-15.0908
 384	1	3	0.064933	-1.77043	11.7836	-17.0474
 385	1	4	0.489832	-1.07465	12.9408	-16.7166
 386	1	3	0.01974	-0.328455	12.8186	-15.5451
 387	1	1	-0.15002	-3.08874	7.55411	-11.0174
 388	1	5	-0.109385	-1.6035	7.21349	-14.5933
 389	1	1	-0.027748	-1.88229	6.93123	-13.0911
 390	1	1	-0.058225	-2.72133	7.81594	-12.3545
 391	1	1	-0.058862	-2.60676	6.38231	-10.4242
 392	1	1	-0.073426	-1.41222	5.75969	-12.447
 393	1	1	-0.053817	-1.78743	5.5212	-11.1234
 394	1	5	0.313225	-0.35397	6.43914	-15.1656
 395	1	5	0.370299	-2.90242	6.74729	-15.3582
 396	1	6	-0.09626	0.727716	6.57245	-14.3646
 397	1	6	-0.107747	0.0143764	6.91624	-16.3769
 398	1	6	-0.102822	-0.572582	5.11491	-15.33
 399	1	6	-0.119294	-2.74188	6.68435	-16.6992
 400	1	6	-0.123874	-3.94555	7.5742	-15.117
 401	1	6	-0.116977	-3.30047	5.51625	-14.9633
 402	1	3	0.454578	-1.46824	4.3668	-10.2533
 403	1	3	0.475587	-2.84782	5.79746	-9.07479
 404	1	4	-0.008375	-2.14234	4.60016	-9.06465
 405	1	2	-0.468822	-0.756229	3.42094	-10.5423
 406	1	2	-0.475809	-3.51877	6.28444	-8.18131
 407	1	1	-0.104577	-2.08462	3.68597	-7.97568
 408	1	1	0.090513	-1.15353	3.91185	-6.94019
 409	1	1	0.041176	-2.84364	2.48962	-8.00426
 410	1	1	0.130327	-2.64199	1.5059	-7.00587
 411	1	7	-0.071967	-1.67766	1.71568	-5.98341
 412	1	1	-0.178735	-0.955048	2.92594	-5.96333
 413	1	5	-0.205934	-0.313805	5.18243	-6.89144
 414	1	1	-0.139817	-3.78156	2.2435	-9.03476
 415	1	1	-0.146593	-4.50953	1.0447	-9.07301
 416	1	1	-0.1545	-4.31146	0.0742049	-8.08351
 417	1	1	-0.172216	-3.38084	0.303137	-7.05977
 418	1	7	-0.107816	-1.34963	0.657384	-4.98465
 419	1	1	-0.127649	-0.205055	-0.134346	-5.20779
 420	1	1	-0.062495	0.093652	-1.2326	-4.39041
 421	1	1	0.148158	-0.772752	-1.55719	-3.32075
 422	1	1	-0.091615	-1.90325	-0.747069	-3.04458
 423	1	1	0.137007	-2.18798	0.361094	-3.87916
 424	1	1	-0.133704	-3.32444	1.15404	-3.61686
 425	1	1	-0.230679	-2.76942	-1.03502	-1.96156
 426	1	1	-0.154845	-4.16846	0.863511	-2.53555
 427	1	1	-0.105714	-3.88931	-0.230173	-1.70769
 428	1	5	-0.373818	1.32744	-2.0719	-4.71613
 429	1	8	0.152766	-2.43791	9.05604	-16.6206
 430	1	8	0.155405	0.0297586	8.80382	-13.031
 431	1	8	0.159938	0.661502	11.2041	-13.3211
 432	1	8	0.168438	-3.74688	8.22495	-10.4681
 433	1	8	0.13763	-3.11721	8.70831	-12.8333
 434	1	8	0.146749	-0.796772	5.01873	-12.9457
 435	1	8	0.160749	-0.211999	3.08047	-5.1862
 436	1	10	0.074263	0.290848	5.23458	-5.97805
 437	1	10	0.076992	-0.9495	6.07657	-6.90697
 438	1	10	0.075732	0.372239	5.23294	-7.74586
 439	1	8	0.120118	-3.95889	2.97257	-9.81823
 440	1	8	0.145089	-5.2231	0.866422	-9.87391
 441	1	8	0.146654	-4.87104	-0.858088	-8.11218
 442	1	8	0.147988	-3.23524	-0.468469	-6.31
 443	1	8	0.166658	0.429428	0.0906791	-6.06182
 444	1	8	0.132671	-3.5568	2.00702	-4.24736
 445	1	8	0.178371	-2.58615	-1.86712	-1.28845
 446	1	8	0.137951	-5.03646	1.48764	-2.33978
 447	1	8	0.128868	-4.54059	-0.452812	-0.865823
 448	1	10	0.119422	1.96672	-1.58114	-5.46159
 449	1	10	0.137967	1.04558	-3.04999	-5.13037
 450	1	10	0.115874	1.94989	-2.23986	-3.8274
 451	1	1	-0.015291	0.179324	25.7371	-29.7137
 452	1	1	-0.066451	0.48623	24.9131	-28.6009
 453	1	1	-0.157747	1.32322	25.4459	-27.5787
 454	1	2	-0.394636	-0.0320153	27.9268	-31.8788
 455	1	1	0.035045	0.718782	27.0237	-29.7706
 456	1	1	-0.04863	1.85319	26.7524	-27.6547
 457	1	2	-0.369731	2.7506	29.609	-28.5635
 458	1	1	0.009912	1.53996	27.5206	-28.7793
 459	1	3	0.064933	0.60883	28.0346	-30.8462
 460	1	4	0.489832	1.39967	29.0993	-30.4252
 461	1	3	0.01974	1.9985	28.8771	-29.1849
 462	1	1	-0.15002	-1.63705	23.5514	-25.058
 463	1	5	-0.109385	0.0656443	23.4168	-28.547
 464	1	1	-0.027748	-0.304235	23.043	-27.084
 465	1	1	-0.058225	-1.17383	23.8954	-26.3454
 466	1	1	-0.058862	-1.21263	22.3346	-24.5142
 467	1	1	-0.073426	0.109719	21.8251	-26.4867
 468	1	1	-0.053817	-0.355211	21.5072	-25.2086
 469	1	5	0.313225	1.29833	22.6143	-29.1168
 470	1	5	0.370299	-1.21542	23.0794	-29.4054
 471	1	6	-0.09626	2.35483	22.66	-28.2734
 472	1	6	-0.107747	1.73336	23.1323	-30.2886
 473	1	6	-0.102822	1.02697	21.3118	-29.3569
 474	1	6	-0.119294	-0.995488	23.0984	-30.7389
 475	1	6	-0.123874	-2.2234	23.9458	-29.1567
 476	1	6	-0.116977	-1.69462	21.8466	-29.1194
 477	1	3	0.454578	-0.124341	20.2859	-24.4009
 478	1	3	0.475587	-1.57152	21.66	-23.2363
 479	1	4	-0.008375	-0.895366	20.4468	-23.2603
 480	1	2	-0.468822	0.585194	19.3424	-24.7032
 481	1	2	-0.475809	-2.32309	22.0864	-22.3768
 482	1	1	-0.104577	-0.999934	19.4457	-22.2551
 483	1	1	0.090513	-0.141974	19.5003	-21.1368
 484	1	1	0.041176	-1.90101	18.3636	-22.4122
 485	1	1	0.130327	-1.94924	17.343	-21.4327
 486	1	7	-0.071967	-1.10142	17.4066	-20.2959
 487	1	1	-0.178735	-0.200274	18.4841	-20.1723
 488	1	5	-0.205934	0.868184	20.629	-20.9699
 489	1	1	-0.139817	-2.74167	18.2689	-23.5461
 490	1	1	-0.146593	-3.60534	17.1754	-23.7109
 491	1	1	-0.1545	-3.6484	16.1648	-22.7428
 492	1	1	-0.172216	-2.82725	16.251	-21.6098
 493	1	7	-0.107816	-1.08537	16.3221	-19.2747
 494	1	1	-0.127649	-0.124704	15.3024	-19.4165
 495	1	1	-0.062495	-0.114734	14.1892	-18.5686
 496	1	1	0.148158	-1.07774	14.0937	-17.5389
 497	1	1	-0.091615	-2.06834	15.0949	-17.3848
 498	1	1	0.137007	-2.06785	16.2119	-18.2553
 499	1	1	-0.133704	-3.06895	17.1963	-18.1185
 500	1	1	-0.230679	-3.08131	14.9827	-16.4013
 501	1	1	-0.154845	-4.06977	17.0723	-17.1433
 502	1	1	-0.105714	-4.0776	15.9637	-16.2879
 503	1	5	-0.373818	0.898044	13.0778	-18.835
 504	1	8	0.152766	-0.418512	25.3979	-30.552
 505	1	8	0.155405	1.60386	24.8262	-26.7299
 506	1	8	0.159938	2.51496	27.1442	-26.885
 507	1	8	0.168438	-2.32654	24.193	-24.5121
 508	1	8	0.13763	-1.52197	24.8254	-26.7884
 509	1	8	0.146749	0.745708	21.1057	-26.9909
 510	1	8	0.160749	0.467408	18.515	-19.3158
 511	1	10	0.074263	1.49985	20.4822	-20.0854
 512	1	10	0.076992	0.360308	21.5947	-20.8553
 513	1	10	0.075732	1.53574	20.6931	-21.8384
 514	1	8	0.120118	-2.73135	19.0306	-24.3182
 515	1	8	0.145089	-4.23707	17.1093	-24.5934
 516	1	8	0.146654	-4.31253	15.3128	-22.8699
 517	1	8	0.147988	-2.87248	15.4535	-20.8741
 518	1	8	0.166658	0.592956	15.3683	-20.2307
 519	1	8	0.132671	-3.08266	18.0608	-18.7754
 520	1	8	0.178371	-3.12663	14.136	-15.7225
 521	1	8	0.137951	-4.84164	17.8329	-17.0562
 522	1	8	0.128868	-4.85948	15.8633	-15.5386
 523	1	10	0.119422	1.65074	13.3833	-19.5731
 524	1	10	0.137967	0.401346	12.1831	-19.2364
 525	1	10	0.115874	1.44319	12.7917	-17.9263
 526	1	1	-0.015291	3.94479	43.1269	-42.0523
 527	1	1	-0.066451	4.24114	42.2375	-40.9849
 528	1	1	-0.157747	4.63271	42.7965	-39.7349
 529	1	2	-0.394636	3.49198	45.5278	-43.9545
 530	1	1	0.035045	4.03334	44.5036	-41.8335
 531	1	1	-0.04863	4.71659	44.1916	-39.5356
 532	1	2	-0.369731	4.74885	47.2977	-39.8494
 533	1	1	0.009912	4.40794	45.0257	-40.6128
 534	1	3	0.064933	3.82169	45.6224	-42.7835
 535	1	4	0.489832	4.10092	46.7733	-42.0512
 536	1	3	0.01974	4.45155	46.5064	-40.7284
 537	1	1	-0.15002	1.66954	39.9807	-38.3415
 538	1	5	-0.109385	4.24023	40.6896	-41.1646
 539	1	1	-0.027748	3.57615	40.0272	-39.9213
 540	1	1	-0.058225	2.37797	40.5895	-39.3972
 541	1	1	-0.058862	2.17204	38.7857	-37.8182
 542	1	1	-0.073426	4.05276	38.8142	-39.3535
 543	1	1	-0.053817	3.32992	38.2209	-38.3103
 544	1	5	0.313225	5.74756	40.2746	-41.3689
 545	1	5	0.370299	3.39408	40.2066	-42.4059
 546	1	6	-0.09626	6.46098	40.4116	-40.2282
 547	1	6	-0.107747	6.35713	41.0534	-42.2919
 548	1	6	-0.102822	5.90199	38.9987	-41.7886
 549	1	6	-0.119294	3.97246	40.4918	-43.5943
 550	1	6	-0.123874	2.16251	40.7663	-42.4146
 551	1	6	-0.116977	3.19844	38.8685	-42.3896
 552	1	3	0.454578	3.56211	36.9392	-37.5896
 553	1	3	0.475587	1.62692	37.8896	-36.7639
 554	1	4	-0.008375	2.5017	36.8134	-36.6996
 555	1	2	-0.468822	4.49636	36.175	-37.7585
 556	1	2	-0.475809	0.609283	38.07	-36.1181
 557	1	1	-0.104577	2.31068	35.7032	-35.823
 558	1	1	0.090513	3.01874	35.656	-34.6033
 559	1	1	0.041176	1.38733	34.6756	-36.1435
 560	1	1	0.130327	1.17006	33.6092	-35.2331
 561	1	7	-0.071967	1.87644	33.567	-34.0001
 562	1	1	-0.178735	2.79594	34.5959	-33.7127
 563	1	5	-0.205934	4.01431	36.743	-34.2182
 564	1	1	-0.139817	0.67386	34.6949	-37.365
 565	1	1	-0.146593	-0.24329	33.6807	-37.6775
 566	1	1	-0.1545	-0.456835	32.6287	-36.7779
 567	1	1	-0.172216	0.248519	32.5925	-35.565
 568	1	7	-0.107816	1.72896	32.4535	-33.0127
 569	1	1	-0.127649	2.67605	31.4099	-33.0455
 570	1	1	-0.062495	2.59968	30.3219	-32.1648
 571	1	1	0.148158	1.55773	30.2712	-31.2114
 572	1	1	-0.091615	0.616453	31.3267	-31.1262
 573	1	1	0.137007	0.699979	32.4138	-32.0328
 574	1	1	-0.133704	-0.253279	33.4505	-31.9543
 575	1	1	-0.230679	-0.414633	31.3084	-30.1551
 576	1	1	-0.154845	-1.27083	33.4205	-30.9881
 577	1	1	-0.105714	-1.34855	32.3518	-30.0867
 578	1	5	-0.373818	3.64266	29.2127	-32.2763
 579	1	8	0.152766	3.67215	42.7899	-43.0458
 580	1	8	0.155405	4.89683	42.1408	-38.9082
 581	1	8	0.159938	5.03233	44.6146	-38.5842
 582	1	8	0.168438	0.742334	40.4053	-37.961
 583	1	8	0.13763	1.97141	41.499	-39.8328
 584	1	8	0.146749	4.938	38.3039	-39.7174
 585	1	8	0.160749	3.33787	34.5625	-32.7718
 586	1	10	0.074263	4.55475	36.489	-33.2982
 587	1	10	0.076992	3.50366	37.6989	-34.0491
 588	1	10	0.075732	4.76824	36.8882	-35.0014
 589	1	8	0.120118	0.818326	35.4913	-38.0874
 590	1	8	0.145089	-0.788142	33.712	-38.6183
 591	1	8	0.146654	-1.16794	31.8418	-37.0192
 592	1	8	0.147988	0.0708793	31.7686	-34.8801
 593	1	8	0.166658	3.46865	31.4482	-33.7887
 594	1	8	0.132671	-0.210459	34.2881	-32.6438
 595	1	8	0.178371	-0.505834	30.5017	-29.4332
 596	1	8	0.137951	-1.99762	34.2272	-30.9378
 597	1	8	0.128868	-2.13391	32.3319	-29.3344
 598	1	10	0.119422	4.34764	29.3987	-33.0968
 599	1	10	0.137967	3.17893	28.237	-32.4727
 600	1	10	0.115874	4.23652	29.1346	-31.3553
 601	1	1	-0.015291	6.00185	62.8337	-50.8404
 602	1	1	-0.066451	6.18945	61.9543	-49.7381
 603	1	1	-0.157747	6.21445	62.524	-48.4334
 604	1	2	-0.394636	5.73646	65.2094	-52.8004
 605	1	1	0.035045	5.84435	64.2031	-50.6075
 606	1	1	-0.04863	6.05497	63.9129	-48.2199
 607	1	2	-0.369731	5.81	67.0204	-48.5282
 608	1	1	0.009912	5.87163	64.736	-49.3363
 609	1	3	0.064933	5.73562	65.3139	-51.5847
 610	1	4	0.489832	5.71351	66.4765	-50.8185
 611	1	3	0.01974	5.77616	66.2193	-49.4472
 612	1	1	-0.15002	3.6343	59.0846	-47.6834
 613	1	5	-0.109385	6.52054	60.4373	-49.9261
 614	1	1	-0.027748	5.74034	59.558	-48.8994
 615	1	1	-0.058225	4.42175	59.9208	-48.5047
 616	1	1	-0.058862	4.17578	57.8608	-47.2727
 617	1	1	-0.073426	6.25142	58.3093	-48.4474
 618	1	1	-0.053817	5.45125	57.4896	-47.6404
 619	1	5	0.313225	8.08476	60.322	-49.7516
 620	1	5	0.370299	6.10594	59.8915	-51.3472
 621	1	6	-0.09626	8.44241	60.3948	-48.4494
 622	1	6	-0.107747	8.7341	61.3272	-50.3833
 623	1	6	-0.102822	8.60484	59.1756	-50.2442
 624	1	6	-0.119294	6.88929	60.3573	-52.3463
 625	1	6	-0.123874	4.82645	60.2181	-51.6408
 626	1	6	-0.116977	6.17199	58.5422	-51.4178
 627	1	3	0.454578	5.71045	56.125	-47.103
 628	1	3	0.475587	3.5721	56.7424	-46.4944
 629	1	4	-0.008375	4.54239	55.7483	-46.4509