pySIMM System Object

3377 atoms
3736 bonds
6480 angles
9986 dihedrals
1080 impropers

10 atom types
13 bond types
22 angle types
9 dihedral types
4 improper types

-236.137352 236.137352 xlo xhi
-236.137352 236.137352 ylo yhi
-236.137352 236.137352 zlo zhi

Masses

   1	12.01	# ca
   2	16.0	# o
   3	12.01	# c
   4	14.01	# n
   5	12.01	# c3
   6	19.0	# f
   7	12.01	# cp
   8	1.008	# ha
   9	1.008	# hn
  10	1.008	# hc

Pair Coeffs

   1	0.086	3.3996695084235347	# ca
   2	0.21	2.959921901149463	# o
   3	0.086	3.3996695084235347	# c
   4	0.17	3.249998523775958	# n
   5	0.1094	3.3996695084235347	# c3
   6	0.061	3.1181455134911875	# f
   7	0.086	3.3996695084235347	# cp
   8	0.015	2.59964245953351	# ha
   9	0.0157	1.069078461768407	# hn
  10	0.0157	2.649532787749369	# hc

Bond Coeffs

   1	356.9	1.3497	# c3,f
   2	450.2	1.4058	# ca,cp
   3	403.2	1.0129	# hn,n
   4	461.1	1.3984	# ca,ca
   5	427.6	1.3789	# c,n
   6	345.9	1.4906	# c,ca
   7	300.9	1.5375	# c3,c3
   8	330.6	1.0969	# c3,hc
   9	351.4	1.4854	# cp,cp
  10	345.8	1.086	# ca,ha
  11	321.0	1.5156	# c3,ca
  12	384.2	1.4121	# ca,n
  13	637.7	1.2183	# c,o

Angle Coeffs

   1	74.22	123.05	# n,c,o
   2	66.62	120.02	# ca,ca,ca
   3	68.72	122.6	# ca,c,o
   4	67.68	115.25	# ca,c,n
   5	48.33	117.55	# c,n,hn
   6	64.28	120.33	# c,ca,ca
   7	47.98	119.86	# cp,ca,ha
   8	39.4	107.58	# hc,c3,hc
   9	63.53	120.77	# c3,ca,ca
  10	70.89	107.36	# f,c3,f
  11	67.87	120.19	# ca,ca,n
  12	66.72	118.38	# ca,cp,ca
  13	46.8	110.47	# ca,c3,hc
  14	62.86	111.51	# c3,c3,c3
  15	66.11	109.24	# c3,c3,f
  16	63.15	112.07	# c3,c3,ca
  17	63.82	123.71	# c,n,ca
  18	66.26	120.69	# ca,ca,cp
  19	63.56	112.24	# ca,c3,ca
  20	63.74	127.08	# c,n,c
  21	48.18	119.88	# ca,ca,ha
  22	64.05	121.11	# ca,cp,cp

Dihedral Coeffs

   1	2	2.5	2	180	2.0	1	0	# hn,n,c,o
   2	1	3.625	2	180	# X,ca,cp,X
   3	1	1.0	2	180	# X,cp,cp,X
   4	1	3.625	2	180	# X,ca,ca,X
   5	1	1.0	2	180	# X,c,ca,X
   6	1	0.0	2	0	# X,c3,ca,X
   7	1	0.15555555555555556	3	0	# X,c3,c3,X
   8	1	2.5	2	180	# X,c,n,X
   9	1	0.45	2	180	# X,ca,n,X

Improper Coeffs

   1	10.5	-1	2	# c,X,X,o
   2	1.1	-1	2	# n,X,X,hn
   3	1.1	-1	2	# ca,ca,ca,c3
   4	1.1	-1	2	# ca,X,X,ha

Atoms

   1	1	1	-0.015291	-137.317	-6.57212	-15.6378
   2	1	1	-0.066451	-138.689	-6.89833	-15.4725
   3	1	1	-0.157747	-139.576	-6.64466	-16.5574
   4	1	2	-0.394636	-134.535	-5.60091	-16.5689
   5	1	1	0.035045	-136.894	-6.02666	-16.8525
   6	1	1	-0.04863	-139.127	-6.08494	-17.7731
   7	1	2	-0.369731	-137.476	-4.73607	-20.057
   8	1	1	0.009912	-137.769	-5.78046	-17.8905
   9	1	3	0.064933	-135.549	-5.54787	-17.2456
  10	1	4	0.489832	-135.715	-5.00503	-18.5169
  11	1	3	0.01974	-137.02	-5.12018	-18.9927
  12	1	1	-0.15002	-140.759	-10.693	-15.5968
  13	1	5	-0.109385	-139.264	-7.4246	-14.1255
  14	1	1	-0.027748	-140.286	-8.55909	-14.4305
  15	1	1	-0.058225	-139.921	-9.58778	-15.3447
  16	1	1	-0.058862	-141.981	-10.7564	-14.9195
  17	1	1	-0.073426	-141.539	-8.66162	-13.7705
  18	1	1	-0.053817	-142.359	-9.76257	-14.0408
  19	1	5	0.313225	-139.9	-6.17324	-13.4053
  20	1	5	0.370299	-138.176	-8.06518	-13.178
  21	1	6	-0.09626	-140.251	-6.41534	-12.122
  22	1	6	-0.107747	-141.005	-5.73275	-14.0482
  23	1	6	-0.102822	-139.043	-5.12652	-13.3764
  24	1	6	-0.119294	-137.346	-7.1556	-12.6188
  25	1	6	-0.123874	-137.4	-8.95594	-13.8366
  26	1	6	-0.116977	-138.743	-8.74436	-12.1551
  27	1	3	0.454578	-143.669	-10.1389	-13.4493
  28	1	3	0.475587	-143.033	-11.8103	-14.911
  29	1	4	-0.008375	-143.985	-11.374	-13.9988
  30	1	2	-0.468822	-144.302	-9.49644	-12.6302
  31	1	2	-0.475809	-143.024	-12.8496	-15.5478
  32	1	1	-0.104577	-145.128	-12.1327	-13.6096
  33	1	1	0.090513	-146.316	-12.0355	-14.3633
  34	1	1	0.041176	-145.091	-12.9427	-12.4469
  35	1	1	0.130327	-146.252	-13.6476	-12.038
  36	1	7	-0.071967	-147.447	-13.5625	-12.8038
  37	1	1	-0.178735	-147.455	-12.7454	-13.9544
  38	1	5	-0.205934	-146.393	-11.1597	-15.6075
  39	1	1	-0.139817	-143.911	-13.0477	-11.6725
  40	1	1	-0.146593	-143.883	-13.8279	-10.5073
  41	1	1	-0.1545	-145.035	-14.5075	-10.0929
  42	1	1	-0.172216	-146.211	-14.4131	-10.8517
  43	1	7	-0.107816	-148.717	-14.2479	-12.406
  44	1	1	-0.127649	-149.802	-13.4464	-11.9809
  45	1	1	-0.062495	-151.009	-14.016	-11.5508
  46	1	1	0.148158	-151.145	-15.4144	-11.5432
  47	1	1	-0.091615	-150.091	-16.2394	-11.9719
  48	1	1	0.137007	-148.878	-15.6635	-12.4154
  49	1	1	-0.133704	-147.846	-16.5168	-12.8595
  50	1	1	-0.230679	-150.253	-17.6387	-11.9535
  51	1	1	-0.154845	-148.011	-17.912	-12.841
  52	1	1	-0.105714	-149.212	-18.4742	-12.3841
  53	1	5	-0.373818	-152.141	-13.1124	-11.0847
  54	1	8	0.152766	-136.581	-6.69681	-14.8512
  55	1	8	0.155405	-140.637	-6.85579	-16.4488
  56	1	8	0.159938	-139.815	-5.86697	-18.5879
  57	1	8	0.168438	-140.459	-11.4898	-16.2744
  58	1	8	0.13763	-138.959	-9.54525	-15.8491
  59	1	8	0.146749	-141.879	-7.93728	-13.0385
  60	1	8	0.160749	-148.371	-12.6667	-14.5332
  61	1	10	0.074263	-145.666	-11.4857	-16.3624
  62	1	10	0.076992	-146.187	-10.11	-15.363
  63	1	10	0.075732	-147.386	-11.1995	-16.0718
  64	1	8	0.120118	-143.003	-12.5275	-11.9576
  65	1	8	0.145089	-142.97	-13.8972	-9.92103
  66	1	8	0.146654	-145.019	-15.1051	-9.18407
  67	1	8	0.147988	-147.095	-14.9396	-10.5052
  68	1	8	0.166658	-149.688	-12.3656	-11.9667
  69	1	8	0.132671	-146.91	-16.103	-13.2214
  70	1	8	0.178371	-151.185	-18.0778	-11.6054
  71	1	8	0.137951	-147.206	-18.5568	-13.1819
  72	1	8	0.128868	-149.336	-19.5546	-12.3689
  73	1	10	0.119422	-151.831	-12.5137	-10.219
  74	1	10	0.137967	-153.027	-13.6876	-10.7891
  75	1	10	0.115874	-152.444	-12.4223	-11.8817
  76	1	1	-0.015291	-119.556	0.676932	-24.1775
  77	1	1	-0.066451	-120.789	-0.0272575	-24.156
  78	1	1	-0.157747	-120.872	-1.22269	-23.3861
  79	1	2	-0.394636	-116.692	1.78312	-23.6905
  80	1	1	0.035045	-118.489	0.187269	-23.4161
  81	1	1	-0.04863	-119.782	-1.7028	-22.6346
  82	1	2	-0.369731	-117.07	-2.10345	-21.1774
  83	1	1	0.009912	-118.598	-0.966647	-22.6659
  84	1	3	0.064933	-117.131	0.752374	-23.2083
  85	1	4	0.489832	-116.51	-0.122606	-22.3199
  86	1	3	0.01974	-117.32	-1.19303	-21.95
  87	1	1	-0.15002	-124.196	0.811017	-21.7289
  88	1	5	-0.109385	-122.048	0.439992	-24.9409
  89	1	1	-0.027748	-123.26	0.31884	-23.9701
  90	1	1	-0.058225	-123.153	0.895631	-22.672
  91	1	1	-0.058862	-125.354	0.124509	-22.0989
  92	1	1	-0.073426	-124.462	-0.357209	-24.3075
  93	1	1	-0.053817	-125.478	-0.448604	-23.3474
  94	1	5	0.313225	-122.148	-0.48541	-26.2153
  95	1	5	0.370299	-121.995	1.94799	-25.4081
  96	1	6	-0.09626	-122.391	-1.7759	-25.8919
  97	1	6	-0.107747	-120.99	-0.495053	-26.9141
  98	1	6	-0.102822	-123.119	-0.10116	-27.0741
  99	1	6	-0.119294	-121.659	2.7838	-24.3999
 100	1	6	-0.123874	-123.2	2.36916	-25.8561
 101	1	6	-0.116977	-121.111	2.16962	-26.406
 102	1	3	0.454578	-126.791	-1.14214	-23.4086
 103	1	3	0.475587	-126.591	-0.163845	-21.3261
 104	1	4	-0.008375	-127.384	-0.929601	-22.1704
 105	1	2	-0.468822	-127.219	-1.79379	-24.345
 106	1	2	-0.475809	-126.817	0.171072	-20.1761
 107	1	1	-0.104577	-128.645	-1.47324	-21.7872
 108	1	1	0.090513	-128.676	-2.58356	-20.916
 109	1	1	0.041176	-129.856	-0.905458	-22.2556
 110	1	1	0.130327	-131.098	-1.44506	-21.8351
 111	1	7	-0.071967	-131.131	-2.5338	-20.9217
 112	1	1	-0.178735	-129.91	-3.0935	-20.4925
 113	1	5	-0.205934	-127.399	-3.23611	-20.3982
 114	1	1	-0.139817	-129.851	0.20465	-23.132
 115	1	1	-0.146593	-131.052	0.758102	-23.5987
 116	1	1	-0.1545	-132.277	0.21065	-23.1989
 117	1	1	-0.172216	-132.298	-0.884524	-22.3231
 118	1	7	-0.107816	-132.394	-3.09759	-20.3537
 119	1	1	-0.127649	-132.741	-4.42647	-20.6756
 120	1	1	-0.062495	-133.861	-5.04956	-20.1091
 121	1	1	0.148158	-134.666	-4.33224	-19.1955
 122	1	1	-0.091615	-134.36	-2.98531	-18.8762
 123	1	1	0.137007	-133.213	-2.37581	-19.4417
 124	1	1	-0.133704	-132.879	-1.05721	-19.0623
 125	1	1	-0.230679	-135.167	-2.24434	-17.9772
 126	1	1	-0.154845	-133.685	-0.334906	-18.1712
 127	1	1	-0.105714	-134.834	-0.926335	-17.6349
 128	1	5	-0.373818	-134.162	-6.50032	-20.4762
 129	1	8	0.152766	-119.408	1.58807	-24.7475
 130	1	8	0.155405	-121.8	-1.79024	-23.3606
 131	1	8	0.159938	-119.855	-2.6092	-22.0373
 132	1	8	0.168438	-124.104	1.25121	-20.7376
 133	1	8	0.13763	-122.241	1.40979	-22.3809
 134	1	8	0.146749	-124.625	-0.822312	-25.2743
 135	1	8	0.160749	-129.933	-3.92303	-19.7912
 136	1	10	0.074263	-127.606	-4.1938	-19.9051
 137	1	10	0.076992	-126.901	-2.59146	-19.6632
 138	1	10	0.075732	-126.694	-3.4394	-21.2131
 139	1	8	0.120118	-128.921	0.65054	-23.4675
 140	1	8	0.145089	-131.032	1.60811	-24.2765
 141	1	8	0.146654	-133.21	0.633623	-23.565
 142	1	8	0.147988	-133.257	-1.29729	-22.0251
 143	1	8	0.166658	-132.108	-4.97937	-21.3657
 144	1	8	0.132671	-131.987	-0.578373	-19.4524
 145	1	8	0.178371	-136.062	-2.667	-17.5295
 146	1	8	0.137951	-133.415	0.681508	-17.8955
 147	1	8	0.128868	-135.46	-0.366579	-16.9436
 148	1	10	0.119422	-133.447	-6.88967	-21.2127
 149	1	10	0.137967	-135.161	-6.59977	-20.9214
 150	1	10	0.115874	-134.106	-7.15663	-19.5977
 151	1	1	-0.015291	-102.023	1.36089	-11.7558
 152	1	1	-0.066451	-103.228	1.31745	-12.5067
 153	1	1	-0.157747	-103.921	0.0761596	-12.5983
 154	1	2	-0.394636	-99.5906	0.827371	-9.90745
 155	1	1	0.035045	-101.562	0.187118	-11.151
 156	1	1	-0.04863	-103.436	-1.09559	-11.983
 157	1	2	-0.369731	-101.905	-3.18271	-10.2604
 158	1	1	0.009912	-102.247	-1.00622	-11.2584
 159	1	3	0.064933	-100.4	-0.0183229	-10.2506
 160	1	4	0.489832	-100.487	-1.34994	-9.84929
 161	1	3	0.01974	-101.559	-2.02525	-10.428
 162	1	1	-0.15002	-104.316	0.996538	-16.6418
 163	1	5	-0.109385	-103.866	2.59298	-13.1288
 164	1	1	-0.027748	-104.527	2.19284	-14.4814
 165	1	1	-0.058225	-103.766	1.44337	-15.4235
 166	1	1	-0.058862	-105.65	1.31623	-16.9122
 167	1	1	-0.073426	-105.868	2.52141	-14.8135
 168	1	1	-0.053817	-106.396	2.06313	-16.025
 169	1	5	0.313225	-102.821	3.72743	-13.4629
 170	1	5	0.370299	-104.889	3.12977	-12.0549
 171	1	6	-0.09626	-103.36	4.67297	-14.2656
 172	1	6	-0.107747	-101.742	3.24056	-14.116
 173	1	6	-0.102822	-102.355	4.37592	-12.3723
 174	1	6	-0.119294	-105.42	4.3285	-12.3849
 175	1	6	-0.123874	-104.311	3.28366	-10.8413
 176	1	6	-0.116977	-105.914	2.26786	-11.8647
 177	1	3	0.454578	-107.779	2.16966	-16.5549
 178	1	3	0.475587	-106.532	0.913704	-18.0409
 179	1	4	-0.008375	-107.783	1.43091	-17.7305
 180	1	2	-0.468822	-108.721	2.70991	-16.0031
 181	1	2	-0.475809	-106.223	0.206182	-18.984
 182	1	1	-0.104577	-108.97	1.13719	-18.4604
 183	1	1	0.090513	-109.291	1.89679	-19.6048
 184	1	1	0.041176	-109.84	0.107899	-18.0213
 185	1	1	0.130327	-111.045	-0.142516	-18.7231
 186	1	7	-0.071967	-111.381	0.635809	-19.8623
 187	1	1	-0.178735	-110.489	1.64095	-20.2899
 188	1	5	-0.205934	-108.373	3.00506	-20.1028
 189	1	1	-0.139817	-109.531	-0.677074	-16.8851
 190	1	1	-0.146593	-110.398	-1.69202	-16.4536
 191	1	1	-0.1545	-111.584	-1.94234	-17.1527
 192	1	1	-0.172216	-111.903	-1.17298	-18.2807
 193	1	7	-0.107816	-112.679	0.459802	-20.5799
 194	1	1	-0.127649	-113.849	0.930367	-19.9517
 195	1	1	-0.062495	-115.111	0.753553	-20.5314
 196	1	1	0.148158	-115.217	0.0924579	-21.776
 197	1	1	-0.091615	-114.056	-0.3786	-22.4384
 198	1	1	0.137007	-112.786	-0.194836	-21.8355
 199	1	1	-0.133704	-111.635	-0.691109	-22.4822
 200	1	1	-0.230679	-114.14	-1.04549	-23.6849
 201	1	1	-0.154845	-111.732	-1.34952	-23.717
 202	1	1	-0.105714	-112.984	-1.52423	-24.3186
 203	1	5	-0.373818	-116.34	1.26431	-19.7819
 204	1	8	0.152766	-101.465	2.27675	-11.596
 205	1	8	0.155405	-104.87	0.0186645	-13.127
 206	1	8	0.159938	-103.983	-2.03494	-12.0335
 207	1	8	0.168438	-103.736	0.397011	-17.3412
 208	1	8	0.13763	-102.737	1.17456	-15.1949
 209	1	8	0.146749	-106.518	3.08722	-14.1549
 210	1	8	0.160749	-110.75	2.23957	-21.158
 211	1	10	0.074263	-108.188	3.74895	-19.3179
 212	1	10	0.076992	-108.804	3.53572	-20.9604
 213	1	10	0.075732	-107.406	2.59646	-20.4232
 214	1	8	0.120118	-108.619	-0.515753	-16.3217
 215	1	8	0.145089	-110.147	-2.28671	-15.5786
 216	1	8	0.146654	-112.256	-2.73252	-16.8243
 217	1	8	0.147988	-112.823	-1.39139	-18.8148
 218	1	8	0.166658	-113.761	1.4255	-18.9874
 219	1	8	0.132671	-110.656	-0.574052	-22.0284
 220	1	8	0.178371	-115.092	-1.20441	-24.184
 221	1	8	0.137951	-110.836	-1.72647	-24.2042
 222	1	8	0.128868	-113.058	-2.03574	-25.2755
 223	1	10	0.119422	-116.925	1.96287	-20.3951
 224	1	10	0.137967	-116.063	1.80163	-18.8655
 225	1	10	0.115874	-116.995	0.435756	-19.48
 226	1	1	-0.015291	-90.794	-7.80197	4.29806
 227	1	1	-0.066451	-91.8587	-7.81918	3.35831
 228	1	1	-0.157747	-92.1137	-9.03099	2.65479
 229	1	2	-0.394636	-88.4144	-8.4036	6.18465
 230	1	1	0.035045	-90.0315	-8.95933	4.4783
 231	1	1	-0.04863	-91.3331	-10.1893	2.85519
 232	1	2	-0.369731	-89.2754	-12.3191	3.8405
 233	1	1	0.009912	-90.2882	-10.1209	3.77934
 234	1	3	0.064933	-88.9041	-9.20771	5.40829
 235	1	4	0.489832	-88.5562	-10.5414	5.20781
 236	1	3	0.01974	-89.3326	-11.1656	4.23213
 237	1	1	-0.15002	-91.9815	-6.35929	-0.673984
 238	1	5	-0.109385	-92.7917	-6.59379	3.12088
 239	1	1	-0.027748	-92.9883	-6.40288	1.5893
 240	1	1	-0.058225	-91.8776	-6.57736	0.714962
 241	1	1	-0.058862	-93.2162	-5.9424	-1.18019
 242	1	1	-0.073426	-94.2193	-5.9672	1.03206
 243	1	1	-0.053817	-94.2991	-5.74918	-0.347912
 244	1	5	0.313225	-92.194	-5.23342	3.6475
 245	1	5	0.370299	-94.1315	-6.90907	3.89293
 246	1	6	-0.09626	-90.9343	-5.03657	3.19592
 247	1	6	-0.107747	-92.1578	-5.15515	4.99684
 248	1	6	-0.102822	-92.9131	-4.16969	3.22186
 249	1	6	-0.119294	-93.8872	-7.35471	5.14678
 250	1	6	-0.123874	-94.8458	-7.87823	3.27702
 251	1	6	-0.116977	-94.9466	-5.83839	4.02355
 252	1	3	0.454578	-95.4333	-5.25214	-1.16867
 253	1	3	0.475587	-93.6227	-5.58108	-2.56519
 254	1	4	-0.008375	-94.9472	-5.17653	-2.46641
 255	1	2	-0.468822	-96.5405	-4.94648	-0.761879
 256	1	2	-0.475809	-92.9146	-5.60194	-3.55708
 257	1	1	-0.104577	-95.7125	-4.68889	-3.56374
 258	1	1	0.090513	-95.6044	-3.32828	-3.92177
 259	1	1	0.041176	-96.5925	-5.5431	-4.27288
 260	1	1	0.130327	-97.3593	-5.02833	-5.34726
 261	1	7	-0.071967	-97.2375	-3.66293	-5.72109
 262	1	1	-0.178735	-96.364	-2.83234	-4.9902
 263	1	5	-0.205934	-94.6824	-2.37836	-3.16653
 264	1	1	-0.139817	-96.727	-6.90625	-3.92115
 265	1	1	-0.146593	-97.614	-7.74261	-4.61559
 266	1	1	-0.1545	-98.3798	-7.22969	-5.66977
 267	1	1	-0.172216	-98.2525	-5.88086	-6.03176
 268	1	7	-0.107816	-98.0259	-3.06332	-6.83773
 269	1	1	-0.127649	-99.1133	-2.23044	-6.50986
 270	1	1	-0.062495	-99.9254	-1.66623	-7.50153
 271	1	1	0.148158	-99.6435	-1.92577	-8.86286
 272	1	1	-0.091615	-98.5515	-2.75492	-9.22263
 273	1	1	0.137007	-97.7406	-3.31809	-8.20599
 274	1	1	-0.133704	-96.6483	-4.13524	-8.5658
 275	1	1	-0.230679	-98.2572	-3.03745	-10.5789
 276	1	1	-0.154845	-96.3662	-4.4069	-9.91226
 277	1	1	-0.105714	-97.1728	-3.86071	-10.9179
 278	1	5	-0.373818	-101.107	-0.799289	-7.0708
 279	1	8	0.152766	-90.5496	-6.93384	4.9
 280	1	8	0.155405	-92.9388	-9.08214	1.94772
 281	1	8	0.159938	-91.5407	-11.1158	2.32373
 282	1	8	0.168438	-91.1255	-6.48521	-1.33437
 283	1	8	0.13763	-90.9113	-6.87038	1.11757
 284	1	8	0.146749	-95.0987	-5.76846	1.63559
 285	1	8	0.160749	-96.2788	-1.78605	-5.27023
 286	1	10	0.074263	-93.6331	-2.67938	-3.2767
 287	1	10	0.076992	-94.925	-2.35957	-2.09678
 288	1	10	0.075732	-94.7675	-1.34944	-3.5367
 289	1	8	0.120118	-96.1538	-7.33372	-3.10569
 290	1	8	0.145089	-97.7122	-8.78755	-4.33187
 291	1	8	0.146654	-99.0733	-7.87388	-6.2055
 292	1	8	0.147988	-98.8595	-5.50101	-6.84815
 293	1	8	0.166658	-99.332	-2.04369	-5.46132
 294	1	8	0.132671	-96.0085	-4.56643	-7.80185
 295	1	8	0.178371	-98.8589	-2.63571	-11.3888
 296	1	8	0.137951	-95.5234	-5.04192	-10.1735
 297	1	8	0.128868	-96.9558	-4.0755	-11.9617
 298	1	10	0.119422	-101.197	-0.748414	-5.97814
 299	1	10	0.137967	-102.058	-1.19793	-7.44746
 300	1	10	0.115874	-100.997	0.233618	-7.42774
 301	1	1	-0.015291	-75.5612	-18.035	15.4827
 302	1	1	-0.066451	-76.7533	-17.9676	14.7124
 303	1	1	-0.157747	-76.7194	-18.4521	13.3736
 304	1	2	-0.394636	-72.6373	-18.2207	16.5105
 305	1	1	0.035045	-74.3961	-18.5225	14.8792
 306	1	1	-0.04863	-75.5383	-18.9494	12.7895
 307	1	2	-0.369731	-72.6021	-19.6795	12.1027
 308	1	1	0.009912	-74.3824	-18.959	13.5696
 309	1	3	0.064933	-73.0075	-18.5744	15.4031
 310	1	4	0.489832	-72.2354	-19.0257	14.3338
 311	1	3	0.01974	-72.9896	-19.3049	13.1969
 312	1	1	-0.15002	-78.0271	-14.5097	12.6047
 313	1	5	-0.109385	-78.0814	-17.3536	15.2452
 314	1	1	-0.027748	-78.5857	-16.355	14.1619
 315	1	1	-0.058225	-77.6561	-15.4322	13.6019
 316	1	1	-0.058862	-79.3538	-14.5196	12.1689
 317	1	1	-0.073426	-79.93	-16.3149	13.7043
 318	1	1	-0.053817	-80.2763	-15.395	12.7049
 319	1	5	0.313225	-77.9155	-16.5203	16.5756
 320	1	5	0.370299	-79.062	-18.5603	15.5157
 321	1	6	-0.09626	-77.6368	-17.2881	17.6529
 322	1	6	-0.107747	-79.0388	-15.8274	16.8708
 323	1	6	-0.102822	-76.929	-15.6	16.482
 324	1	6	-0.119294	-79.4358	-19.1803	14.3737
 325	1	6	-0.123874	-80.1966	-18.1941	16.1531
 326	1	6	-0.116977	-78.4764	-19.5097	16.2805
 327	1	3	0.454578	-81.5795	-15.1592	12.028
 328	1	3	0.475587	-80.0324	-13.6946	11.1348
 329	1	4	-0.008375	-81.3464	-14.139	11.1146
 330	1	2	-0.468822	-82.6169	-15.7677	12.2245
 331	1	2	-0.475809	-79.5174	-12.8338	10.4427
 332	1	1	-0.104577	-82.3462	-13.6122	10.2477
 333	1	1	0.090513	-82.5526	-14.2132	8.98782
 334	1	1	0.041176	-83.134	-12.5042	10.6444
 335	1	1	0.130327	-84.1478	-12.0172	9.78307
 336	1	7	-0.071967	-84.3851	-12.6472	8.53042
 337	1	1	-0.178735	-83.5649	-13.7281	8.14672
 338	1	5	-0.205934	-81.708	-15.3947	8.52703
 339	1	1	-0.139817	-82.9292	-11.8747	11.8945
 340	1	1	-0.146593	-83.7088	-10.7743	12.2807
 341	1	1	-0.1545	-84.703	-10.2862	11.4242
 342	1	1	-0.172216	-84.9196	-10.9045	10.1842
 343	1	7	-0.107816	-85.4963	-12.222	7.62648
 344	1	1	-0.127649	-85.1847	-11.5175	6.44585
 345	1	1	-0.062495	-86.1918	-11.0029	5.61639
 346	1	1	0.148158	-87.548	-11.1887	5.97072
 347	1	1	-0.091615	-87.8893	-11.9392	7.12396
 348	1	1	0.137007	-86.8603	-12.4603	7.94595
 349	1	1	-0.133704	-87.2042	-13.2053	9.09473
 350	1	1	-0.230679	-89.2413	-12.166	7.48211
 351	1	1	-0.154845	-88.5459	-13.4289	9.43384
 352	1	1	-0.105714	-89.5642	-12.9075	8.62783
 353	1	5	-0.373818	-85.7877	-10.2172	4.37152
 354	1	8	0.152766	-75.5009	-17.6872	16.5086
 355	1	8	0.155405	-77.6161	-18.4149	12.7595
 356	1	8	0.159938	-75.5099	-19.2836	11.7546
 357	1	8	0.168438	-77.3076	-13.8122	12.1798
 358	1	8	0.13763	-76.6226	-15.433	13.9383
 359	1	8	0.146749	-80.7014	-16.9735	14.0909
 360	1	8	0.160749	-83.7441	-14.2082	7.18896
 361	1	10	0.074263	-81.8543	-16.2615	9.18347
 362	1	10	0.076992	-80.641	-15.1392	8.52587
 363	1	10	0.075732	-81.9683	-15.7071	7.50838
 364	1	8	0.120118	-82.1647	-12.2238	12.5802
 365	1	8	0.145089	-83.5386	-10.298	13.2433
 366	1	8	0.146654	-85.3063	-9.43005	11.718
 367	1	8	0.147988	-85.6923	-10.5064	9.53372
 368	1	8	0.166658	-84.1403	-11.3379	6.20315
 369	1	8	0.132671	-86.432	-13.6233	9.73339
 370	1	8	0.178371	-90.0633	-11.7913	6.87961
 371	1	8	0.137951	-88.7934	-14.0072	10.3205
 372	1	8	0.128868	-90.6052	-13.0831	8.88898
 373	1	10	0.119422	-86.2975	-10.593	3.47446
 374	1	10	0.137967	-84.7099	-10.2911	4.17663
 375	1	10	0.115874	-86.0223	-9.14992	4.48209
 376	1	1	-0.015291	-54.4602	-15.9597	12.2426
 377	1	1	-0.066451	-55.8394	-16.2737	12.3578
 378	1	1	-0.157747	-56.525	-16.7164	11.1887
 379	1	2	-0.394636	-51.6132	-15.2092	11.3177
 380	1	1	0.035045	-53.8316	-16.1035	11.0034
 381	1	1	-0.04863	-55.8631	-16.8793	9.95251
 382	1	2	-0.369731	-53.8482	-16.8044	7.57204
 383	1	1	0.009912	-54.5049	-16.5597	9.88936
 384	1	3	0.064933	-52.4632	-15.7072	10.5979
 385	1	4	0.489832	-52.4045	-15.9507	9.22756
 386	1	3	0.01974	-53.585	-16.4969	8.72276
 387	1	1	-0.15002	-58.7478	-19.254	13.6365
 388	1	5	-0.109385	-56.6203	-15.9956	13.6767
 389	1	1	-0.027748	-57.8574	-16.9429	13.7591
 390	1	1	-0.058225	-57.6715	-18.3439	13.5791
 391	1	1	-0.058862	-60.0252	-18.7432	13.8875
 392	1	1	-0.073426	-59.1714	-16.4741	14.0281
 393	1	1	-0.053817	-60.2244	-17.3927	14.0789
 394	1	5	0.313225	-57.0071	-14.4671	13.6339
 395	1	5	0.370299	-55.7621	-16.2823	14.9714
 396	1	6	-0.09626	-57.8817	-14.2081	12.6348
 397	1	6	-0.107747	-55.9392	-13.6715	13.3972
 398	1	6	-0.102822	-57.5549	-14.0304	14.7905
 399	1	6	-0.119294	-56.5421	-16.365	16.0734
 400	1	6	-0.123874	-54.8357	-15.3353	15.2384
 401	1	6	-0.116977	-55.0975	-17.456	14.878
 402	1	3	0.454578	-61.6756	-17.1601	14.2908
 403	1	3	0.475587	-61.3466	-19.424	13.9717
 404	1	4	-0.008375	-62.2689	-18.4112	14.2015
 405	1	2	-0.468822	-62.2187	-16.0802	14.4452
 406	1	2	-0.475809	-61.56	-20.6124	13.8059
 407	1	1	-0.104577	-63.6775	-18.612	14.2673
 408	1	1	0.090513	-64.4258	-18.5915	13.0714
 409	1	1	0.041176	-64.3322	-18.7812	15.5122
 410	1	1	0.130327	-65.7408	-18.9324	15.5528
 411	1	7	-0.071967	-66.4949	-18.9227	14.3482
 412	1	1	-0.178735	-65.8183	-18.7439	13.1242
 413	1	5	-0.205934	-63.7542	-18.3875	11.7183
 414	1	1	-0.139817	-63.6032	-18.7858	16.7239
 415	1	1	-0.146593	-64.2592	-18.933	17.9556
 416	1	1	-0.1545	-65.6519	-19.0739	17.995
 417	1	1	-0.172216	-66.3866	-19.0705	16.8006
 418	1	7	-0.107816	-67.9847	-19.0243	14.3317
 419	1	1	-0.127649	-68.7202	-17.8555	14.0553
 420	1	1	-0.062495	-70.1204	-17.8555	14.0576
 421	1	1	0.148158	-70.8161	-19.0522	14.3463
 422	1	1	-0.091615	-70.1029	-20.2472	14.6149
 423	1	1	0.137007	-68.6854	-20.2313	14.599
 424	1	1	-0.133704	-67.9779	-21.4258	14.8481
 425	1	1	-0.230679	-70.779	-21.4589	14.8973
 426	1	1	-0.154845	-68.659	-22.6207	15.1223
 427	1	1	-0.105714	-70.0588	-22.6358	15.1502
 428	1	5	-0.373818	-70.8503	-16.5489	13.7532
 429	1	8	0.152766	-53.8844	-15.5476	13.064
 430	1	8	0.155405	-57.5954	-16.9043	11.2179
 431	1	8	0.159938	-56.3969	-17.1926	9.05781
 432	1	8	0.168438	-58.5977	-20.3213	13.4841
 433	1	8	0.13763	-56.6779	-18.7342	13.374
 434	1	8	0.146749	-59.4068	-15.4279	14.1891
 435	1	8	0.160749	-66.3959	-18.7226	12.2044
 436	1	10	0.074263	-63.0369	-19.1911	11.5108
 437	1	10	0.076992	-63.2194	-17.4301	11.6843
 438	1	10	0.075732	-64.4834	-18.3822	10.8991
 439	1	8	0.120118	-62.5246	-18.6712	16.7291
 440	1	8	0.145089	-63.6872	-18.9312	18.8802
 441	1	8	0.146654	-66.1643	-19.1816	18.9484
 442	1	8	0.147988	-67.466	-19.1722	16.8542
 443	1	8	0.166658	-68.18	-16.9339	13.8529
 444	1	8	0.132671	-66.8924	-21.4365	14.8263
 445	1	8	0.178371	-71.8635	-21.5149	14.9221
 446	1	8	0.137951	-68.1005	-23.5338	15.3116
 447	1	8	0.128868	-70.5858	-23.563	15.3633
 448	1	10	0.119422	-71.5271	-16.656	12.8952
 449	1	10	0.137967	-70.1498	-15.7403	13.5067
 450	1	10	0.115874	-71.4363	-16.2096	14.618
 451	1	1	-0.015291	-39.6284	-5.43558	4.16729
 452	1	1	-0.066451	-40.682	-6.37963	4.02592
 453	1	1	-0.157747	-41.796	-6.28533	4.90856
 454	1	2	-0.394636	-37.7111	-3.1254	5.01801
 455	1	1	0.035045	-39.7254	-4.45983	5.16941
 456	1	1	-0.04863	-41.8807	-5.28802	5.89833
 457	1	2	-0.369731	-41.4502	-2.85095	7.75918
 458	1	1	0.009912	-40.8256	-4.38246	5.99979
 459	1	3	0.064933	-38.7917	-3.3594	5.53309
 460	1	4	0.489832	-39.4243	-2.67394	6.57133
 461	1	3	0.01974	-40.6591	-3.22456	6.90857
 462	1	1	-0.15002	-41.0567	-10.5004	5.28646
 463	1	5	-0.109385	-40.7158	-7.45115	2.89871
 464	1	1	-0.027748	-41.2769	-8.76736	3.52625
 465	1	1	-0.058225	-40.579	-9.35518	4.62025
 466	1	1	-0.058862	-42.2761	-11.0379	4.87014
 467	1	1	-0.073426	-42.5068	-9.36162	3.12774
 468	1	1	-0.053817	-42.9878	-10.4718	3.834
 469	1	5	0.313225	-39.2949	-7.7904	2.28764
 470	1	5	0.370299	-41.6243	-6.85457	1.75218
 471	1	6	-0.09626	-39.3407	-8.91851	1.54332
 472	1	6	-0.107747	-38.3549	-7.99732	3.23617
 473	1	6	-0.102822	-38.7975	-6.82314	1.48556
 474	1	6	-0.119294	-41.1609	-5.66681	1.30096
 475	1	6	-0.123874	-42.8836	-6.59595	2.17284
 476	1	6	-0.116977	-41.716	-7.67874	0.684247
 477	1	3	0.454578	-44.3262	-11.1201	3.78501
 478	1	3	0.475587	-43.115	-12.0912	5.49713
 479	1	4	-0.008375	-44.34	-12.0164	4.84655
 480	1	2	-0.468822	-45.2613	-10.7791	3.08225
 481	1	2	-0.475809	-42.8318	-12.7357	6.49204
 482	1	1	-0.104577	-45.5283	-12.5962	5.38082
 483	1	1	0.090513	-46.0615	-13.7725	4.81357
 484	1	1	0.041176	-46.1488	-12.0089	6.51351
 485	1	1	0.130327	-47.2772	-12.6306	7.10193
 486	1	7	-0.071967	-47.8112	-13.8219	6.53883
 487	1	1	-0.178735	-47.1968	-14.3645	5.38919
 488	1	5	-0.205934	-45.427	-14.4185	3.58925
 489	1	1	-0.139817	-45.6537	-10.8081	7.07896
 490	1	1	-0.146593	-46.2477	-10.2469	8.21807
 491	1	1	-0.1545	-47.3424	-10.8794	8.81669
 492	1	1	-0.172216	-47.8503	-12.0632	8.26303
 493	1	7	-0.107816	-49.0072	-14.4996	7.12801
 494	1	1	-0.127649	-50.2522	-13.8429	7.04974
 495	1	1	-0.062495	-51.3853	-14.3391	7.70634
 496	1	1	0.148158	-51.2938	-15.5472	8.43729
 497	1	1	-0.091615	-50.0676	-16.2582	8.4872
 498	1	1	0.137007	-48.9223	-15.7245	7.84355
 499	1	1	-0.133704	-47.6882	-16.3989	7.9617
 500	1	1	-0.230679	-49.9541	-17.4735	9.20605
 501	1	1	-0.154845	-47.5889	-17.6002	8.67794
 502	1	1	-0.105714	-48.7234	-18.1403	9.29451
 503	1	5	-0.373818	-52.6689	-13.5125	7.65644
 504	1	8	0.152766	-38.7598	-5.42718	3.51702
 505	1	8	0.155405	-42.6316	-6.97395	4.81034
 506	1	8	0.159938	-42.7438	-5.20647	6.55551
 507	1	8	0.168438	-40.5316	-10.9181	6.14367
 508	1	8	0.13763	-39.6706	-8.89695	4.99773
 509	1	8	0.146749	-43.1297	-8.9596	2.33621
 510	1	8	0.160749	-47.6123	-15.2681	4.95148
 511	1	10	0.074263	-45.9089	-15.3712	3.33753
 512	1	10	0.076992	-44.3629	-14.6252	3.75625
 513	1	10	0.075732	-45.5168	-13.7638	2.71318
 514	1	8	0.120118	-44.8042	-10.29	6.64924
 515	1	8	0.145089	-45.851	-9.32797	8.64284
 516	1	8	0.146654	-47.7966	-10.4566	9.70999
 517	1	8	0.147988	-48.6904	-12.5416	8.75597
 518	1	8	0.166658	-50.3118	-12.9007	6.51018
 519	1	8	0.132671	-46.791	-15.9917	7.50708
 520	1	8	0.178371	-50.8058	-17.9185	9.71196
 521	1	8	0.137951	-46.6305	-18.1065	8.76045
 522	1	8	0.128868	-48.6448	-19.0695	9.8541
 523	1	10	0.119422	-52.5392	-12.5941	7.06966
 524	1	10	0.137967	-52.9917	-13.2043	8.65957
 525	1	10	0.115874	-53.4874	-14.0733	7.18562
 526	1	1	-0.015291	-32.265	8.33689	14.0684
 527	1	1	-0.066451	-32.8667	9.61476	14.2104
 528	1	1	-0.157747	-32.3412	10.6962	13.4472
 529	1	2	-0.394636	-30.8245	5.78334	13.0964
 530	1	1	0.035045	-31.2603	8.1592	13.119
 531	1	1	-0.04863	-31.3039	10.4989	12.5088
 532	1	2	-0.369731	-29.2292	9.2955	10.5087
 533	1	1	0.009912	-30.7983	9.20536	12.349
 534	1	3	0.064933	-30.6149	6.90537	12.6648
 535	1	4	0.489832	-29.8011	7.29022	11.6035
 536	1	3	0.01974	-29.8258	8.66447	11.3652
 537	1	1	-0.15002	-36.066	6.4049	15.7101
 538	1	5	-0.109385	-34.0958	9.75028	15.1557
 539	1	1	-0.027748	-34.9678	8.47817	14.9245
 540	1	1	-0.058225	-35.4188	7.63016	15.9772
 541	1	1	-0.058862	-36.2703	6.04234	14.3745
 542	1	1	-0.073426	-35.2505	8.09355	13.5867
 543	1	1	-0.053817	-35.886	6.87272	13.3442
 544	1	5	0.313225	-35.0167	10.9923	14.8426
 545	1	5	0.370299	-33.5201	9.88225	16.6163
 546	1	6	-0.09626	-35.3225	11.0802	13.5285
 547	1	6	-0.107747	-34.4657	12.1754	15.1951
 548	1	6	-0.102822	-36.1957	10.9063	15.4996
 549	1	6	-0.119294	-32.6131	10.8815	16.707
 550	1	6	-0.123874	-32.8713	8.76043	17.0036
 551	1	6	-0.116977	-34.4741	10.1358	17.5402
 552	1	3	0.454578	-36.1792	6.19056	12.0571
 553	1	3	0.475587	-36.8226	4.79463	13.7812
 554	1	4	-0.008375	-36.7203	4.96041	12.4051
 555	1	2	-0.468822	-35.9201	6.61083	10.9424
 556	1	2	-0.475809	-37.2237	3.82006	14.3932
 557	1	1	-0.104577	-37.0812	3.9549	11.4607
 558	1	1	0.090513	-36.0773	3.1138	10.9332
 559	1	1	0.041176	-38.4332	3.77011	11.0795
 560	1	1	0.130327	-38.777	2.73013	10.1794
 561	1	7	-0.071967	-37.7678	1.87965	9.64815
 562	1	1	-0.178735	-36.4297	2.08963	10.0416
 563	1	5	-0.205934	-34.6131	3.28009	11.3251
 564	1	1	-0.139817	-39.4543	4.60214	11.5954
 565	1	1	-0.146593	-40.795	4.40336	11.2336
 566	1	1	-0.1545	-41.1362	3.36743	10.3559
 567	1	1	-0.172216	-40.1333	2.53586	9.83648
 568	1	7	-0.107816	-38.084	0.724647	8.7514
 569	1	1	-0.127649	-38.0061	-0.572956	9.29457
 570	1	1	-0.062495	-38.3945	-1.70067	8.55893
 571	1	1	0.148158	-38.8874	-1.53979	7.24255
 572	1	1	-0.091615	-38.924	-0.250498	6.65041
 573	1	1	0.137007	-38.5135	0.877932	7.4055
 574	1	1	-0.133704	-38.5515	2.15835	6.81444
 575	1	1	-0.230679	-39.3789	-0.0619411	5.32211
 576	1	1	-0.154845	-38.9927	2.32873	5.49437
 577	1	1	-0.105714	-39.4076	1.21849	4.74974
 578	1	5	-0.373818	-38.3114	-3.06945	9.23119
 579	1	8	0.152766	-32.6128	7.47228	14.6284
 580	1	8	0.155405	-32.7478	11.6978	13.5441
 581	1	8	0.159938	-30.9327	11.3148	11.8921
 582	1	8	0.168438	-36.3682	5.73767	16.5153
 583	1	8	0.13763	-35.2424	7.88275	17.0169
 584	1	8	0.146749	-34.9213	8.69335	12.7413
 585	1	8	0.160749	-35.6586	1.4352	9.64454
 586	1	10	0.074263	-34.2223	4.24904	10.99
 587	1	10	0.076992	-33.9807	2.50427	10.8765
 588	1	10	0.075732	-34.4836	3.21551	12.4125
 589	1	8	0.120118	-39.2268	5.40845	12.2843
 590	1	8	0.145089	-41.5702	5.04797	11.641
 591	1	8	0.146654	-42.1757	3.20487	10.0802
 592	1	8	0.147988	-40.4224	1.73361	9.16525
 593	1	8	0.166658	-37.6774	-0.688757	10.3244
 594	1	8	0.132671	-38.2314	3.0315	7.37475
 595	1	8	0.178371	-39.6965	-0.895625	4.70298
 596	1	8	0.137951	-39.0113	3.32082	5.05033
 597	1	8	0.128868	-39.7464	1.35025	3.72464
 598	1	10	0.119422	-39.3118	-3.46146	9.4601
 599	1	10	0.137967	-37.7632	-3.02186	10.181
 600	1	10	0.115874	-37.7898	-3.80039	8.59988
 601	1	1	-0.015291	-18.4206	-3.25822	1.84747
 602	1	1	-0.066451	-19.3476	-2.25968	2.25672
 603	1	1	-0.157747	-18.8865	-0.916642	2.35968
 604	1	2	-0.394636	-15.9568	-4.91148	0.887435
 605	1	1	0.035045	-17.0983	-2.88742	1.57223
 606	1	1	-0.04863	-17.5482	-0.565893	2.09011
 607	1	2	-0.369731	-14.5398	-0.51136	1.31607
 608	1	1	0.009912	-16.6744	-1.57969	1.69341
 609	1	3	0.064933	-15.9502	-3.71104	1.10417
 610	1	4	0.489832	-14.8885	-2.81549	0.983441
 611	1	3	0.01974	-15.2415	-1.50916	1.31746
 612	1	1	-0.15002	-21.0456	-0.929219	6.00281
 613	1	5	-0.109385	-20.8615	-2.55899	2.47779
 614	1	1	-0.027748	-21.3853	-1.70643	3.67488
 615	1	1	-0.058225	-20.6213	-1.66195	4.87535
 616	1	1	-0.058862	-22.26	-0.240691	5.91878
 617	1	1	-0.073426	-22.6238	-1.00746	3.64369
 618	1	1	-0.053817	-23.028	-0.284712	4.77407
 619	1	5	0.313225	-21.1561	-4.06255	2.85282
 620	1	5	0.370299	-21.5651	-2.21487	1.10952
 621	1	6	-0.09626	-21.0113	-4.91675	1.81515
 622	1	6	-0.107747	-22.4211	-4.22371	3.30407
 623	1	6	-0.102822	-20.3406	-4.49704	3.8403
 624	1	6	-0.119294	-21.55	-0.884823	0.863381
 625	1	6	-0.123874	-22.8529	-2.62262	1.05413