pySIMM System Object

1277 atoms
1412 bonds
2448 angles
3770 dihedrals
408 impropers

10 atom types
13 bond types
22 angle types
9 dihedral types
4 improper types

-168.546779 168.546779 xlo xhi
-168.546779 168.546779 ylo yhi
-168.546779 168.546779 zlo zhi

Masses

   1	12.01	# ca
   2	16.0	# o
   3	12.01	# c
   4	14.01	# n
   5	12.01	# c3
   6	19.0	# f
   7	12.01	# cp
   8	1.008	# ha
   9	1.008	# hn
  10	1.008	# hc

Pair Coeffs

   1	0.086	3.3996695084235347	# ca
   2	0.21	2.959921901149463	# o
   3	0.086	3.3996695084235347	# c
   4	0.17	3.249998523775958	# n
   5	0.1094	3.3996695084235347	# c3
   6	0.061	3.1181455134911875	# f
   7	0.086	3.3996695084235347	# cp
   8	0.015	2.59964245953351	# ha
   9	0.0157	1.069078461768407	# hn
  10	0.0157	2.649532787749369	# hc

Bond Coeffs

   1	356.9	1.3497	# c3,f
   2	450.2	1.4058	# ca,cp
   3	403.2	1.0129	# hn,n
   4	461.1	1.3984	# ca,ca
   5	427.6	1.3789	# c,n
   6	345.9	1.4906	# c,ca
   7	300.9	1.5375	# c3,c3
   8	330.6	1.0969	# c3,hc
   9	351.4	1.4854	# cp,cp
  10	345.8	1.086	# ca,ha
  11	321.0	1.5156	# c3,ca
  12	384.2	1.4121	# ca,n
  13	637.7	1.2183	# c,o

Angle Coeffs

   1	74.22	123.05	# n,c,o
   2	66.62	120.02	# ca,ca,ca
   3	68.72	122.6	# ca,c,o
   4	67.68	115.25	# ca,c,n
   5	48.33	117.55	# c,n,hn
   6	64.28	120.33	# c,ca,ca
   7	47.98	119.86	# cp,ca,ha
   8	39.4	107.58	# hc,c3,hc
   9	63.53	120.77	# c3,ca,ca
  10	70.89	107.36	# f,c3,f
  11	67.87	120.19	# ca,ca,n
  12	66.72	118.38	# ca,cp,ca
  13	46.8	110.47	# ca,c3,hc
  14	62.86	111.51	# c3,c3,c3
  15	66.11	109.24	# c3,c3,f
  16	63.15	112.07	# c3,c3,ca
  17	63.82	123.71	# c,n,ca
  18	66.26	120.69	# ca,ca,cp
  19	63.56	112.24	# ca,c3,ca
  20	63.74	127.08	# c,n,c
  21	48.18	119.88	# ca,ca,ha
  22	64.05	121.11	# ca,cp,cp

Dihedral Coeffs

   1	2	2.5	2	180	2.0	1	0	# hn,n,c,o
   2	1	3.625	2	180	# X,ca,cp,X
   3	1	1.0	2	180	# X,cp,cp,X
   4	1	3.625	2	180	# X,ca,ca,X
   5	1	1.0	2	180	# X,c,ca,X
   6	1	0.0	2	0	# X,c3,ca,X
   7	1	0.15555555555555556	3	0	# X,c3,c3,X
   8	1	2.5	2	180	# X,c,n,X
   9	1	0.45	2	180	# X,ca,n,X

Improper Coeffs

   1	10.5	-1	2	# c,X,X,o
   2	1.1	-1	2	# n,X,X,hn
   3	1.1	-1	2	# ca,ca,ca,c3
   4	1.1	-1	2	# ca,X,X,ha

Atoms

   1	1	1	-0.015291	-18.3412	-53.3456	41.8309
   2	1	1	-0.066451	-19.6915	-53.4927	42.2559
   3	1	1	-0.157747	-20.1929	-52.51	43.164
   4	1	2	-0.394636	-15.3378	-52.8224	41.5795
   5	1	1	0.035045	-17.5567	-52.3208	42.3638
   6	1	1	-0.04863	-19.3753	-51.4995	43.7131
   7	1	2	-0.369731	-16.9322	-49.9977	44.9012
   8	1	1	0.009912	-18.0398	-51.4488	43.3149
   9	1	3	0.064933	-16.0881	-52.1667	42.2848
  10	1	4	0.489832	-15.7653	-51.3033	43.3305
  11	1	3	0.01974	-16.888	-50.7412	43.9355
  12	1	1	-0.15002	-23.6968	-54.5287	39.3897
  13	1	5	-0.109385	-20.6135	-54.6753	41.7751
  14	1	1	-0.027748	-21.719	-54.1279	40.8278
  15	1	1	-0.058225	-22.7195	-54.9917	40.2937
  16	1	1	-0.058862	-23.6913	-53.1706	39.0622
  17	1	1	-0.073426	-21.7541	-52.7577	40.4555
  18	1	1	-0.053817	-22.7662	-52.309	39.6074
  19	1	5	0.313225	-21.2708	-55.3439	43.0519
  20	1	5	0.370299	-19.7855	-55.7778	40.9923
  21	1	6	-0.09626	-21.8271	-56.5545	42.8298
  22	1	6	-0.107747	-22.2777	-54.598	43.5579
  23	1	6	-0.102822	-20.3639	-55.5166	44.0401
  24	1	6	-0.119294	-18.7496	-56.2455	41.7256
  25	1	6	-0.123874	-19.2978	-55.2916	39.8284
  26	1	6	-0.116977	-20.4936	-56.8695	40.6291
  27	1	3	0.454578	-23.049	-50.9375	39.1181
  28	1	3	0.475587	-24.5674	-52.3886	38.1545
  29	1	4	-0.008375	-24.1292	-51.0723	38.2583
  30	1	2	-0.468822	-22.4498	-49.9225	39.4294
  31	1	2	-0.475809	-25.464	-52.8339	37.4592
  32	1	1	-0.104577	-24.7148	-49.9984	37.5283
  33	1	1	0.090513	-23.9955	-49.4007	36.4667
  34	1	1	0.041176	-26.0492	-49.6009	37.7979
  35	1	1	0.130327	-26.6851	-48.6631	36.951
  36	1	7	-0.071967	-25.9807	-48.0973	35.8562
  37	1	1	-0.178735	-24.6323	-48.4548	35.6501
  38	1	5	-0.205934	-22.5503	-49.7733	36.1441
  39	1	1	-0.139817	-26.7773	-50.1492	38.8812
  40	1	1	-0.146593	-28.1148	-49.7914	39.1073
  41	1	1	-0.1545	-28.7498	-48.8853	38.2515
  42	1	1	-0.172216	-28.0394	-48.3301	37.18
  43	1	7	-0.107816	-26.6976	-47.2617	34.8507
  44	1	1	-0.127649	-27.0658	-45.9386	35.185
  45	1	1	-0.062495	-27.9674	-45.2168	34.3879
  46	1	1	0.148158	-28.49	-45.81	33.2246
  47	1	1	-0.091615	-28.1311	-47.1204	32.8638
  48	1	1	0.137007	-27.2348	-47.8516	33.6742
  49	1	1	-0.133704	-26.9371	-49.1869	33.3256
  50	1	1	-0.230679	-28.7141	-47.7201	31.73
  51	1	1	-0.154845	-27.5161	-49.7811	32.1935
  52	1	1	-0.105714	-28.4075	-49.049	31.3969
  53	1	5	-0.373818	-28.4499	-43.8468	34.8369
  54	1	8	0.152766	-17.8419	-54.0384	41.165
  55	1	8	0.155405	-21.2285	-52.5299	43.4831
  56	1	8	0.159938	-19.7498	-50.8166	44.4727
  57	1	8	0.168438	-24.4398	-55.2002	38.9627
  58	1	8	0.13763	-22.7443	-56.043	40.5603
  59	1	8	0.146749	-21.0256	-52.0293	40.7944
  60	1	8	0.160749	-24.0964	-48.0253	34.8079
  61	1	10	0.074263	-21.8554	-49.152	36.7242
  62	1	10	0.076992	-22.3252	-49.6181	35.0822
  63	1	10	0.075732	-22.3254	-50.8235	36.3623
  64	1	8	0.120118	-26.3232	-50.8614	39.5606
  65	1	8	0.145089	-28.6635	-50.2286	39.9375
  66	1	8	0.146654	-29.7911	-48.6159	38.4119
  67	1	8	0.147988	-28.5602	-47.6401	36.5251
  68	1	8	0.166658	-26.7014	-45.5071	36.1139
  69	1	8	0.132671	-26.2637	-49.7804	33.9347
  70	1	8	0.178371	-29.421	-47.1636	31.1199
  71	1	8	0.137951	-27.2827	-50.8126	31.9441
  72	1	8	0.128868	-28.8684	-49.5157	30.53
  73	1	10	0.119422	-27.772	-43.3963	35.5727
  74	1	10	0.137967	-29.4418	-43.9222	35.3016
  75	1	10	0.115874	-28.5295	-43.1543	33.9899
  76	1	1	-0.015291	-8.80225	-61.3432	40.5064
  77	1	1	-0.066451	-7.4408	-61.266	40.9281
  78	1	1	-0.157747	-6.46219	-61.2724	39.8835
  79	1	2	-0.394636	-11.5288	-60.8283	39.1074
  80	1	1	0.035045	-9.1341	-61.2158	39.158
  81	1	1	-0.04863	-6.8107	-61.2211	38.5187
  82	1	2	-0.369731	-8.23951	-60.6835	35.8297
  83	1	1	0.009912	-8.16143	-61.1481	38.1906
  84	1	3	0.064933	-10.4565	-60.9283	38.5337
  85	1	4	0.489832	-10.1585	-60.6706	37.1987
  86	1	3	0.01974	-8.80731	-60.8462	36.8976
  87	1	1	-0.15002	-9.63379	-58.1399	42.9753
  88	1	5	-0.109385	-7.06802	-61.0379	42.4496
  89	1	1	-0.027748	-7.65059	-59.6325	42.8755
  90	1	1	-0.058225	-9.0591	-59.4063	42.8312
  91	1	1	-0.058862	-8.78785	-57.0823	43.267
  92	1	1	-0.073426	-6.84461	-58.5179	43.28
  93	1	1	-0.053817	-7.44137	-57.2609	43.4803
  94	1	5	0.313225	-5.49092	-61.0839	42.6738
  95	1	5	0.370299	-7.67994	-62.1884	43.3568
  96	1	6	-0.09626	-4.82651	-60.1215	41.9915
  97	1	6	-0.107747	-4.93754	-62.2558	42.2864
  98	1	6	-0.102822	-5.13781	-60.917	43.9683
  99	1	6	-0.119294	-7.1849	-63.4061	43.0456
 100	1	6	-0.123874	-9.01665	-62.3305	43.2614
 101	1	6	-0.116977	-7.44796	-61.9776	44.6712
 102	1	3	0.454578	-6.88611	-55.9547	43.9654
 103	1	3	0.475587	-9.13945	-55.6851	43.539
 104	1	4	-0.008375	-7.97541	-55.0883	44.0017
 105	1	2	-0.468822	-5.75117	-55.7451	44.3551
 106	1	2	-0.475809	-10.2551	-55.2071	43.4306
 107	1	1	-0.104577	-8.07104	-53.7879	44.5758
 108	1	1	0.090513	-8.36416	-52.7627	43.6563
 109	1	1	0.041176	-8.68255	-53.7598	45.8495
 110	1	1	0.130327	-9.81877	-52.9448	46.0655
 111	1	7	-0.071967	-10.3631	-52.2151	44.9714
 112	1	1	-0.178735	-9.53874	-52.0214	43.8383
 113	1	5	-0.205934	-7.64024	-52.6792	42.3202
 114	1	1	-0.139817	-8.29263	-54.6877	46.8387
 115	1	1	-0.146593	-8.98715	-54.7704	48.0548
 116	1	1	-0.1545	-10.0851	-53.931	48.2906
 117	1	1	-0.172216	-10.4977	-53.0238	47.3007
 118	1	7	-0.107816	-11.8305	-51.9124	44.807
 119	1	1	-0.127649	-12.1951	-50.6847	44.2031
 120	1	1	-0.062495	-13.4973	-50.4406	43.7408
 121	1	1	0.148158	-14.5007	-51.4041	43.9689
 122	1	1	-0.091615	-14.2003	-52.6019	44.6645
 123	1	1	0.137007	-12.8549	-52.9004	44.9932
 124	1	1	-0.133704	-12.5713	-54.2217	45.421
 125	1	1	-0.230679	-15.221	-53.551	44.9439
 126	1	1	-0.154845	-13.5811	-55.1624	45.6624
 127	1	1	-0.105714	-14.9153	-54.8147	45.4569
 128	1	5	-0.373818	-13.7691	-49.1821	42.9227
 129	1	8	0.152766	-9.63644	-61.4235	41.1797
 130	1	8	0.155405	-5.39981	-61.2725	40.0853
 131	1	8	0.159938	-6.05261	-61.154	37.7411
 132	1	8	0.168438	-10.7089	-57.9862	42.8933
 133	1	8	0.13763	-9.76728	-60.2	42.6855
 134	1	8	0.146749	-5.77715	-58.5819	43.4504
 135	1	8	0.160749	-9.91166	-51.4411	43.0009
 136	1	10	0.074263	-6.55583	-52.6136	42.4752
 137	1	10	0.076992	-7.94267	-51.7895	41.7542
 138	1	10	0.075732	-7.84327	-53.5553	41.6935
 139	1	8	0.120118	-7.44271	-55.3438	46.6707
 140	1	8	0.145089	-8.67959	-55.4923	48.8078
 141	1	8	0.146654	-10.6376	-54.0067	49.2245
 142	1	8	0.147988	-11.3835	-52.4176	47.4687
 143	1	8	0.166658	-11.4213	-49.9478	44.0084
 144	1	8	0.132671	-11.5576	-54.5673	45.5479
 145	1	8	0.178371	-16.2696	-53.341	44.7623
 146	1	8	0.137951	-13.3238	-56.1611	46.0046
 147	1	8	0.128868	-15.7057	-55.5364	45.6492
 148	1	10	0.119422	-14.633	-48.6267	43.3114
 149	1	10	0.137967	-13.9639	-49.4308	41.8704
 150	1	10	0.115874	-12.9133	-48.4951	42.9365
 151	1	1	-0.015291	-3.67502	-49.4202	30.4765
 152	1	1	-0.066451	-4.26796	-50.5803	29.9107
 153	1	1	-0.157747	-3.69464	-51.089	28.709
 154	1	2	-0.394636	-2.04157	-46.953	31.2818
 155	1	1	0.035045	-2.55943	-48.8441	29.8799
 156	1	1	-0.04863	-2.59828	-50.4445	28.0787
 157	1	2	-0.369731	-0.336306	-48.4164	27.2209
 158	1	1	0.009912	-2.04265	-49.3145	28.6952
 159	1	3	0.064933	-1.82478	-47.6284	30.289
 160	1	4	0.489832	-0.921964	-47.3923	29.2594
 161	1	3	0.01974	-0.965478	-48.3745	28.2648
 162	1	1	-0.15002	-7.64901	-53.1752	27.9783
 163	1	5	-0.109385	-5.50318	-51.2233	30.6213
 164	1	1	-0.027748	-6.15374	-52.4238	29.8311
 165	1	1	-0.058225	-6.7511	-52.2321	28.5464
 166	1	1	-0.058862	-7.96391	-54.326	28.7178
 167	1	1	-0.073426	-6.4152	-53.6649	30.4693
 168	1	1	-0.053817	-7.33716	-54.5492	29.9187
 169	1	5	0.313225	-6.64577	-50.1374	30.7553
 170	1	5	0.370299	-5.0476	-51.6685	32.0791
 171	1	6	-0.09626	-7.84273	-50.6971	31.0464
 172	1	6	-0.107747	-6.80667	-49.4435	29.6053
 173	1	6	-0.102822	-6.42318	-49.2131	31.7142
 174	1	6	-0.119294	-6.08105	-52.0961	32.8414
 175	1	6	-0.123874	-4.4728	-50.7016	32.8243
 176	1	6	-0.116977	-4.11913	-52.6506	32.0144
 177	1	3	0.454578	-7.97201	-55.6987	30.5854
 178	1	3	0.475587	-9.01911	-55.3837	28.5542
 179	1	4	-0.008375	-8.98265	-56.1293	29.7352
 180	1	2	-0.468822	-7.7405	-56.0577	31.728
 181	1	2	-0.475809	-9.79556	-55.4919	27.6211
 182	1	1	-0.104577	-9.88699	-57.1447	30.1937
 183	1	1	0.090513	-11.1488	-56.7599	30.7049
 184	1	1	0.041176	-9.32424	-58.3821	30.596
 185	1	1	0.130327	-9.90596	-59.115	31.6603
 186	1	7	-0.071967	-11.1181	-58.6647	32.2603
 187	1	1	-0.178735	-11.7479	-57.5225	31.7221
 188	1	5	-0.205934	-11.8081	-55.4432	30.3162
 189	1	1	-0.139817	-8.09492	-58.8131	30.0438
 190	1	1	-0.146593	-7.42461	-59.9307	30.5589
 191	1	1	-0.1545	-7.96543	-60.6213	31.6478
 192	1	1	-0.172216	-9.19091	-60.2143	32.1931
 193	1	7	-0.107816	-11.4829	-59.1103	33.6418
 194	1	1	-0.127649	-11.081	-58.2436	34.6795
 195	1	1	-0.062495	-10.8634	-58.7161	35.9772
 196	1	1	0.148158	-11.0254	-60.0947	36.2347
 197	1	1	-0.091615	-11.6595	-60.9251	35.2838
 198	1	1	0.137007	-11.8859	-60.4307	33.9763
 199	1	1	-0.133704	-12.4014	-61.2966	32.9929
 200	1	1	-0.230679	-11.9778	-62.2666	35.5925
 201	1	1	-0.154845	-12.7451	-62.6198	33.3153
 202	1	1	-0.105714	-12.5407	-63.1015	34.6161
 203	1	5	-0.373818	-10.2457	-57.7638	36.998
 204	1	8	0.152766	-4.05624	-48.9362	31.368
 205	1	8	0.155405	-4.10236	-51.9791	28.2391
 206	1	8	0.159938	-2.19347	-50.8055	27.1356
 207	1	8	0.168438	-8.15762	-52.9712	27.0379
 208	1	8	0.13763	-6.58575	-51.3014	28.0114
 209	1	8	0.146749	-6.03593	-53.9376	31.445
 210	1	8	0.160749	-12.6477	-57.1509	32.2042
 211	1	10	0.074263	-11.8375	-55.3223	29.2268
 212	1	10	0.076992	-11.2752	-54.5872	30.7466
 213	1	10	0.075732	-12.8478	-55.3971	30.6632
 214	1	8	0.120118	-7.6392	-58.2742	29.2195
 215	1	8	0.145089	-6.47067	-60.2383	30.1384
 216	1	8	0.146654	-7.43053	-61.4619	32.0839
 217	1	8	0.147988	-9.5572	-60.7574	33.0556
 218	1	8	0.166658	-10.7651	-57.2334	34.4291
 219	1	8	0.132671	-12.5502	-60.9366	31.9793
 220	1	8	0.178371	-11.8338	-62.6633	36.5951
 221	1	8	0.137951	-13.1655	-63.273	32.5552
 222	1	8	0.128868	-12.8109	-64.1252	34.8653
 223	1	10	0.119422	-10.5501	-58.0071	38.0246
 224	1	10	0.137967	-10.5646	-56.7288	36.8165
 225	1	10	0.115874	-9.14889	-57.7828	36.9467
 226	1	1	-0.015291	4.35706	-31.3245	28.0568
 227	1	1	-0.066451	3.10415	-31.6718	28.634
 228	1	1	-0.157747	1.98226	-31.8017	27.762
 229	1	2	-0.394636	6.75569	-30.6783	26.156
 230	1	1	0.035045	4.44423	-31.203	26.6633
 231	1	1	-0.04863	2.08434	-31.6472	26.3716
 232	1	2	-0.369731	3.01373	-31.254	23.4642
 233	1	1	0.009912	3.34103	-31.3716	25.8502
 234	1	3	0.064933	5.61363	-30.9083	25.7939
 235	1	4	0.489832	5.10226	-30.9242	24.4975
 236	1	3	0.01974	3.74223	-31.1993	24.4415
 237	1	1	-0.15002	0.214174	-34.846	29.8451
 238	1	5	-0.109385	2.90879	-32.0076	30.1428
 239	1	1	-0.027748	2.24264	-33.4339	30.1293
 240	1	1	-0.058225	0.823447	-33.6097	30.1391
 241	1	1	-0.058862	1.03941	-35.9439	29.6045
 242	1	1	-0.073426	3.0295	-34.6036	29.918
 243	1	1	-0.053817	2.40737	-35.8346	29.6913
 244	1	5	0.313225	1.99003	-30.8888	30.8033
 245	1	5	0.370299	4.26271	-32.0424	30.9857
 246	1	6	-0.09626	0.852804	-30.6246	30.1247
 247	1	6	-0.107747	2.58655	-29.6785	30.8708
 248	1	6	-0.102822	1.62138	-31.2263	32.0592
 249	1	6	-0.119294	4.83329	-30.8309	31.1649
 250	1	6	-0.123874	5.25156	-32.7742	30.4307
 251	1	6	-0.116977	4.05486	-32.5614	32.2162
 252	1	3	0.454578	2.99867	-37.1868	29.4956
 253	1	3	0.475587	0.704005	-37.3549	29.2916
 254	1	4	-0.008375	1.91731	-38.0309	29.2909
 255	1	2	-0.468822	4.17462	-37.4875	29.6009
 256	1	2	-0.475809	-0.415246	-37.8165	29.149
 257	1	1	-0.104577	1.99085	-39.4514	29.2532
 258	1	1	0.090513	1.72931	-40.1679	30.443
 259	1	1	0.041176	2.16311	-40.143	28.0282
 260	1	1	0.130327	1.99534	-41.549	27.9894
 261	1	7	-0.071967	1.63648	-42.2568	29.1669
 262	1	1	-0.178735	1.55696	-41.5559	30.3852
 263	1	5	-0.205934	1.53655	-39.4791	31.7922
 264	1	1	-0.139817	2.43117	-39.4499	26.8251
 265	1	1	-0.146593	2.54284	-40.1421	25.6083
 266	1	1	-0.1545	2.38234	-41.5336	25.5749
 267	1	1	-0.172216	2.10357	-42.2307	26.7593
 268	1	7	-0.107816	1.01425	-43.6117	29.1127
 269	1	1	-0.127649	1.69026	-44.742	29.6182
 270	1	1	-0.062495	1.07342	-46.0048	29.6462
 271	1	1	0.148158	-0.242767	-46.1494	29.1457
 272	1	1	-0.091615	-0.947087	-45.0232	28.6494
 273	1	1	0.137007	-0.321735	-43.7551	28.6488
 274	1	1	-0.133704	-1.05767	-42.6259	28.2197
 275	1	1	-0.230679	-2.28582	-45.1323	28.1925
 276	1	1	-0.154845	-2.38187	-42.7462	27.7816
 277	1	1	-0.105714	-2.995	-44.0017	27.764
 278	1	5	-0.373818	1.82575	-47.1781	30.2678
 279	1	8	0.152766	5.25885	-31.1774	28.6413
 280	1	8	0.155405	1.00087	-32.0465	28.1484
 281	1	8	0.159938	1.22381	-31.7601	25.7156
 282	1	8	0.168438	-0.868644	-34.9486	29.7996
 283	1	8	0.13763	0.149518	-32.7819	30.307
 284	1	8	0.146749	4.10844	-34.6015	29.881
 285	1	8	0.160749	1.25015	-42.0923	31.2787
 286	1	10	0.074263	1.03349	-38.5098	31.7117
 287	1	10	0.076992	2.50284	-39.3188	32.2858
 288	1	10	0.075732	0.918086	-40.0887	32.4625
 289	1	8	0.120118	2.55482	-38.3721	26.8172
 290	1	8	0.145089	2.74774	-39.5985	24.6891
 291	1	8	0.146654	2.46327	-42.0719	24.6331
 292	1	8	0.147988	1.97155	-43.3082	26.7189
 293	1	8	0.166658	2.69568	-44.6188	30.0134
 294	1	8	0.132671	-0.621982	-41.6327	28.2359
 295	1	8	0.178371	-2.81035	-46.0822	28.1715
 296	1	8	0.137951	-2.93054	-41.8631	27.464
 297	1	8	0.128868	-4.02522	-44.0959	27.4299
 298	1	10	0.119422	2.84185	-46.8942	30.5716
 299	1	10	0.137967	1.92405	-48.0137	29.562
 300	1	10	0.115874	1.31477	-47.5446	31.1685
 301	1	1	-0.015291	12.7946	-20.7864	12.4566
 302	1	1	-0.066451	12.1338	-22.002	12.7883
 303	1	1	-0.157747	10.7284	-21.9684	13.0252
 304	1	2	-0.394636	13.5077	-17.8144	11.7216
 305	1	1	0.035045	12.0576	-19.5921	12.5074
 306	1	1	-0.04863	10.0239	-20.7611	13.123
 307	1	2	-0.369731	9.12892	-17.8454	13.2843
 308	1	1	0.009912	10.7339	-19.5876	12.8995
 309	1	3	0.064933	12.4412	-18.1866	12.1823
 310	1	4	0.489832	11.2917	-17.4323	12.4379
 311	1	3	0.01974	10.2429	-18.2014	12.9362
 312	1	1	-0.15002	11.2203	-23.5466	16.4739
 313	1	5	-0.109385	12.8677	-23.3607	12.9876
 314	1	1	-0.027748	12.2055	-23.9937	14.2482
 315	1	1	-0.058225	12.0381	-23.1666	15.3978
 316	1	1	-0.058862	10.5917	-24.7878	16.3971
 317	1	1	-0.073426	11.6212	-25.289	14.2569
 318	1	1	-0.053817	10.8125	-25.6504	15.3422
 319	1	5	0.313225	14.4088	-23.2237	13.2925
 320	1	5	0.370299	12.6651	-24.1957	11.6672
 321	1	6	-0.09626	15.1387	-22.8611	12.2147
 322	1	6	-0.107747	14.9252	-24.3909	13.7396
 323	1	6	-0.102822	14.6602	-22.3066	14.2533
 324	1	6	-0.119294	11.3621	-24.4806	11.4427
 325	1	6	-0.123874	13.3365	-25.3692	11.6808
 326	1	6	-0.116977	13.0843	-23.5134	10.5778
 327	1	3	0.454578	10.0727	-26.9132	15.6173
 328	1	3	0.475587	9.68368	-25.4441	17.3615
 329	1	4	-0.008375	9.46898	-26.7146	16.8508
 330	1	2	-0.468822	10.0932	-27.9294	14.9461
 331	1	2	-0.475809	9.2972	-24.9801	18.4208
 332	1	1	-0.104577	8.91778	-27.735	17.6662
 333	1	1	0.090513	7.53114	-27.9861	17.6398
 334	1	1	0.041176	9.73476	-28.2975	18.6771
 335	1	1	0.130327	9.14362	-29.0439	19.7203
 336	1	7	-0.071967	7.74243	-29.2697	19.7189
 337	1	1	-0.178735	6.96076	-28.7561	18.6619
 338	1	5	-0.205934	6.61992	-27.3476	16.599
 339	1	1	-0.139817	11.1292	-28.0533	18.7076
 340	1	1	-0.146593	11.9185	-28.5163	19.7685
 341	1	1	-0.1545	11.3262	-29.2241	20.8197
 342	1	1	-0.172216	9.94893	-29.4844	20.7945
 343	1	7	-0.107816	7.04568	-29.8029	20.9186
 344	1	1	-0.127649	6.37139	-28.8583	21.7148
 345	1	1	-0.062495	5.76436	-29.2227	22.9177
 346	1	1	0.148158	5.83013	-30.5671	23.3412
 347	1	1	-0.091615	6.52052	-31.5378	22.5736
 348	1	1	0.137007	7.1214	-31.1528	21.3508
 349	1	1	-0.133704	7.80165	-32.116	20.5776
 350	1	1	-0.230679	6.62939	-32.8813	23.0066
 351	1	1	-0.154845	7.90579	-33.4441	21.0174
 352	1	1	-0.105714	7.32483	-33.8244	22.2341
 353	1	5	-0.373818	5.05616	-28.1465	23.7382
 354	1	8	0.152766	13.8482	-20.7468	12.1978
 355	1	8	0.155405	10.1777	-22.8867	13.2152
 356	1	8	0.159938	8.96443	-20.731	13.3692
 357	1	8	0.168438	11.057	-22.8902	17.327
 358	1	8	0.13763	12.475	-22.172	15.4233
 359	1	8	0.146749	11.7325	-25.9912	13.4366
 360	1	8	0.160749	5.88339	-28.8961	18.6891
 361	1	10	0.074263	6.42425	-26.2964	16.8446
 362	1	10	0.076992	5.65178	-27.8611	16.5446
 363	1	10	0.075732	7.06266	-27.3908	15.5964
 364	1	8	0.120118	11.6227	-27.4988	17.917
 365	1	8	0.145089	12.9859	-28.3103	19.7827
 366	1	8	0.146654	11.9298	-29.5658	21.657
 367	1	8	0.147988	9.51322	-30.0219	21.6297
 368	1	8	0.166658	6.34678	-27.8206	21.3902
 369	1	8	0.132671	8.25729	-31.837	19.6322
 370	1	8	0.178371	6.20016	-33.2124	23.9484
 371	1	8	0.137951	8.44024	-34.1758	20.4167
 372	1	8	0.128868	7.41504	-34.8521	22.5788
 373	1	10	0.119422	3.97479	-28.3293	23.7929
 374	1	10	0.137967	5.19105	-27.1484	23.3011
 375	1	10	0.115874	5.45288	-28.0971	24.7612
 376	1	1	-0.015291	0.928963	-3.05296	13.7391
 377	1	1	-0.066451	1.72	-3.81573	12.8382
 378	1	1	-0.157747	1.04497	-4.6684	11.9163
 379	1	2	-0.394636	-1.29857	-1.72786	15.4371
 380	1	1	0.035045	-0.4577	-3.23367	13.7454
 381	1	1	-0.04863	-0.355182	-4.84183	11.9451
 382	1	2	-0.369731	-3.40385	-4.74393	12.6028
 383	1	1	0.009912	-1.08343	-4.11888	12.8922
 384	1	3	0.064933	-1.49006	-2.58497	14.5899
 385	1	4	0.489832	-2.69937	-3.14179	14.1788
 386	1	3	0.01974	-2.54383	-4.08986	13.1679
 387	1	1	-0.15002	3.5442	-7.61746	13.2718
 388	1	5	-0.109385	3.28251	-3.76315	12.8309
 389	1	1	-0.027748	3.83662	-5.21788	12.7414
 390	1	1	-0.058225	3.11312	-6.28171	13.3535
 391	1	1	-0.058862	4.75593	-7.87203	12.6282
 392	1	1	-0.073426	5.09444	-5.51947	12.1486
 393	1	1	-0.053817	5.53479	-6.85115	12.1275
 394	1	5	0.313225	3.88943	-3.15346	14.1513
 395	1	5	0.370299	3.69284	-2.87243	11.5971
 396	1	6	-0.09626	3.37369	-3.75166	15.2496
 397	1	6	-0.107747	3.67513	-1.82377	14.2699
 398	1	6	-0.102822	5.22813	-3.3302	14.2254
 399	1	6	-0.119294	4.98997	-2.49279	11.6075
 400	1	6	-0.123874	2.96559	-1.7328	11.5472
 401	1	6	-0.116977	3.47809	-3.5186	10.4292
 402	1	3	0.454578	6.83956	-7.43718	11.7028
 403	1	3	0.475587	5.49275	-9.14688	12.4706
 404	1	4	-0.008375	6.74329	-8.80065	11.9699
 405	1	2	-0.468822	7.80641	-6.81916	11.2933
 406	1	2	-0.475809	5.0847	-10.249	12.7967
 407	1	1	-0.104577	7.81072	-9.75121	11.8948
 408	1	1	0.090513	8.23157	-10.3788	13.0914
 409	1	1	0.041176	8.36504	-10.1703	10.6566
 410	1	1	0.130327	9.24902	-11.2803	10.6211
 411	1	7	-0.071967	9.49018	-12.0424	11.7983
 412	1	1	-0.178735	9.02588	-11.5293	13.0263
 413	1	5	-0.205934	7.78531	-9.90397	14.4718
 414	1	1	-0.139817	8.02858	-9.53021	9.4411
 415	1	1	-0.146593	8.59932	-9.94191	8.22644
 416	1	1	-0.1545	9.51229	-11.0028	8.20366
 417	1	1	-0.172216	9.83123	-11.6679	9.39489
 418	1	7	-0.107816	10.0845	-13.4225	11.7932
 419	1	1	-0.127649	11.1333	-13.7196	12.6929
 420	1	1	-0.062495	11.6128	-15.0278	12.866
 421	1	1	0.148158	11.0724	-16.0723	12.0805
 422	1	1	-0.091615	10.0884	-15.7885	11.0989
 423	1	1	0.137007	9.53899	-14.4865	11.0137
 424	1	1	-0.133704	8.40298	-14.2919	10.1928
 425	1	1	-0.230679	9.58377	-16.8138	10.2564
 426	1	1	-0.154845	7.89621	-15.3187	9.38545
 427	1	1	-0.105714	8.50526	-16.5752	9.39644
 428	1	5	-0.373818	12.6474	-15.2786	13.9606
 429	1	8	0.152766	1.35108	-2.3448	14.4432
 430	1	8	0.155405	1.61848	-5.23982	11.1894
 431	1	8	0.159938	-0.860249	-5.52043	11.2607
 432	1	8	0.168438	2.9782	-8.42742	13.7285
 433	1	8	0.13763	2.19521	-6.07976	13.8987
 434	1	8	0.146749	5.74518	-4.75179	11.743
 435	1	8	0.160749	9.22384	-12.0813	13.9406
 436	1	10	0.074263	7.60235	-8.82301	14.4982
 437	1	10	0.076992	8.55483	-10.1102	15.2256
 438	1	10	0.075732	6.8685	-10.4171	14.7877
 439	1	8	0.120118	7.33809	-8.69537	9.41912
 440	1	8	0.145089	8.34153	-9.42868	7.30333
 441	1	8	0.146654	9.96262	-11.319	7.26541
 442	1	8	0.147988	10.5288	-12.4998	9.36118
 443	1	8	0.166658	11.5324	-12.9204	13.3122
 444	1	8	0.132671	7.88127	-13.3434	10.1771
 445	1	8	0.178371	10.004	-17.8151	10.2588
 446	1	8	0.137951	7.03046	-15.1375	8.75386
 447	1	8	0.128868	8.11838	-17.3725	8.76655
 448	1	10	0.119422	13.1631	-14.3519	14.2438
 449	1	10	0.137967	13.4316	-15.9759	13.6382
 450	1	10	0.115874	12.1783	-15.681	14.8677
 451	1	1	-0.015291	-14.073	7.49711	17.9066
 452	1	1	-0.066451	-14.7425	7.11813	19.1053
 453	1	1	-0.157747	-16.08	7.5665	19.3012
 454	1	2	-0.394636	-13.2264	8.62399	15.1054
 455	1	1	0.035045	-14.7775	8.20312	16.925
 456	1	1	-0.04863	-16.7694	8.28041	18.3049
 457	1	2	-0.369731	-17.6885	9.74662	15.7614
 458	1	1	0.009912	-16.0982	8.5519	17.1144
 459	1	3	0.064933	-14.3382	8.72149	15.5973
 460	1	4	0.489832	-15.4589	9.37473	15.0868
 461	1	3	0.01974	-16.5733	9.27578	15.9203
 462	1	1	-0.15002	-13.6433	3.47283	17.351
 463	1	5	-0.109385	-14.0131	6.18173	20.1176
 464	1	1	-0.027748	-13.4779	4.95416	19.3273
 465	1	1	-0.058225	-14.1567	4.5059	18.1556
 466	1	1	-0.058862	-12.4836	2.82972	17.7846
 467	1	1	-0.073426	-12.3396	4.22779	19.762
 468	1	1	-0.053817	-11.8831	3.16054	18.9807
 469	1	5	0.313225	-14.9524	5.5947	21.2378
 470	1	5	0.370299	-12.8673	7.04091	20.782
 471	1	6	-0.09626	-14.3335	4.64833	21.9798
 472	1	6	-0.107747	-16.0366	4.98582	20.7047
 473	1	6	-0.102822	-15.388	6.5369	22.1046
 474	1	6	-0.119294	-13.3202	8.26039	21.1529
 475	1	6	-0.123874	-11.8421	7.25335	19.9267
 476	1	6	-0.116977	-12.3359	6.48208	21.8917
 477	1	3	0.454578	-10.695	2.28803	19.1588
 478	1	3	0.475587	-11.6605	1.79111	17.1191
 479	1	4	-0.008375	-10.6019	1.54828	17.985
 480	1	2	-0.468822	-9.91217	2.32153	20.0916
 481	1	2	-0.475809	-11.8331	1.34995	15.9955
 482	1	1	-0.104577	-9.46627	0.771027	17.6117
 483	1	1	0.090513	-9.58796	-0.630496	17.4719
 484	1	1	0.041176	-8.2384	1.4119	17.304
 485	1	1	0.130327	-7.1458	0.644116	16.8363
 486	1	7	-0.071967	-7.30183	-0.748054	16.5851
 487	1	1	-0.178735	-8.51554	-1.37006	16.9465
 488	1	5	-0.205934	-10.8744	-1.36037	17.8444
 489	1	1	-0.139817	-8.08367	2.81565	17.423
 490	1	1	-0.146593	-6.85872	3.43694	17.1441
 491	1	1	-0.1545	-5.76468	2.66808	16.7373
 492	1	1	-0.172216	-5.91061	1.28352	16.582
 493	1	7	-0.107816	-6.24925	-1.52147	15.8529
 494	1	1	-0.127649	-5.54612	-2.54997	16.5133
 495	1	1	-0.062495	-4.41535	-3.1474	15.9337
 496	1	1	0.148158	-3.95244	-2.69123	14.6757
 497	1	1	-0.091615	-4.68233	-1.70845	13.9616
 498	1	1	0.137007	-5.84871	-1.15202	14.5383
 499	1	1	-0.133704	-6.58206	-0.186638	13.8126
 500	1	1	-0.230679	-4.24846	-1.24123	12.6954
 501	1	1	-0.154845	-6.14741	0.260451	12.5582
 502	1	1	-0.105714	-4.97333	-0.259684	12.0046
 503	1	5	-0.373818	-3.67714	-4.21932	16.731
 504	1	8	0.152766	-13.0446	7.20424	17.71
 505	1	8	0.155405	-16.624	7.35388	20.2143
 506	1	8	0.159938	-17.7969	8.60976	18.4459
 507	1	8	0.168438	-14.1218	3.18753	16.4159
 508	1	8	0.13763	-15.0764	4.98464	17.8307
 509	1	8	0.146749	-11.8	4.47879	20.6697
 510	1	8	0.160749	-8.63442	-2.43494	16.7683
 511	1	10	0.074263	-11.7238	-1.01391	17.2443
 512	1	10	0.076992	-11.1178	-1.20691	18.9032
 513	1	10	0.075732	-10.7895	-2.44153	17.682
 514	1	8	0.120118	-8.90047	3.45332	17.7372
 515	1	8	0.145089	-6.75654	4.51377	17.2541
 516	1	8	0.146654	-4.80841	3.14274	16.5306
 517	1	8	0.147988	-5.04765	0.709985	16.2594
 518	1	8	0.166658	-5.85216	-2.83642	17.5164
 519	1	8	0.132671	-7.49729	0.233029	14.2184
 520	1	8	0.178371	-3.35333	-1.62678	12.2176
 521	1	8	0.137951	-6.71822	1.01485	12.0226
 522	1	8	0.128868	-4.62996	0.0925145	11.0349
 523	1	10	0.119422	-4.35316	-4.73178	17.4281
 524	1	10	0.137967	-2.86595	-3.77751	17.3258
 525	1	10	0.115874	-3.24856	-4.99765	16.0869
 526	1	1	-0.015291	-20.4315	21.7759	6.20129
 527	1	1	-0.066451	-21.837	21.668	6.38047
 528	1	1	-0.157747	-22.6828	22.0196	5.29079
 529	1	2	-0.394636	-17.5626	22.5374	5.30355
 530	1	1	0.035045	-19.932	22.1945	4.96387
 531	1	1	-0.04863	-22.1587	22.4219	4.04597
 532	1	2	-0.369731	-20.3841	23.4464	1.72804
 533	1	1	0.009912	-20.7716	22.4894	3.90955
 534	1	3	0.064933	-18.5479	22.5809	4.58523
 535	1	4	0.489832	-18.6655	23.1246	3.30731
 536	1	3	0.01974	-19.9613	23.0408	2.79865
 537	1	1	-0.15002	-19.5911	19.9258	10.1391
 538	1	5	-0.109385	-22.415	21.32	7.77965
 539	1	1	-0.027748	-21.4118	20.349	8.50324
 540	1	1	-0.058225	-20.4925	20.798	9.50155
 541	1	1	-0.058862	-19.6323	18.5753	9.79719
 542	1	1	-0.073426	-21.3746	18.9654	8.16166
 543	1	1	-0.053817	-20.5079	18.1026	8.84568
 544	1	5	0.313225	-23.8307	20.5988	7.69721
 545	1	5	0.370299	-22.5957	22.6929	8.54622
 546	1	6	-0.09626	-23.887	19.6847	6.70249
 547	1	6	-0.107747	-24.8805	21.4176	7.46674
 548	1	6	-0.102822	-24.1212	19.9533	8.84936
 549	1	6	-0.119294	-22.9768	22.504	9.8299
 550	1	6	-0.123874	-23.505	23.5139	7.97516
 551	1	6	-0.116977	-21.4642	23.4342	8.55207
 552	1	3	0.454578	-20.353	16.6201	8.77156
 553	1	3	0.475587	-18.8686	17.4301	10.3449
 554	1	4	-0.008375	-19.3716	16.3067	9.70431
 555	1	2	-0.468822	-20.9992	15.8551	8.07747
 556	1	2	-0.475809	-18.0081	17.4837	11.2072
 557	1	1	-0.104577	-18.9336	15.0	10.066
 558	1	1	0.090513	-17.8365	14.4235	9.39014
 559	1	1	0.041176	-19.4275	14.4042	11.251
 560	1	1	0.130327	-18.7399	13.3076	11.8221
 561	1	7	-0.071967	-17.5324	12.8328	11.2329
 562	1	1	-0.178735	-17.1296	13.3706	9.992
 563	1	5	-0.205934	-17.3347	14.9704	8.06071
 564	1	1	-0.139817	-20.5771	14.9151	11.8999
 565	1	1	-0.146593	-21.057	14.3302	13.0815
 566	1	1	-0.1545	-20.3919	13.2306	13.635
 567	1	1	-0.172216	-19.2419	12.7267	13.0108
 568	1	7	-0.107816	-16.6242	11.9383	12.0169
 569	1	1	-0.127649	-16.1694	12.4508	13.2492
 570	1	1	-0.062495	-15.6118	11.6246	14.2263
 571	1	1	0.148158	-15.4962	10.2407	13.9631
 572	1	1	-0.091615	-15.7231	9.74461	12.6543
 573	1	1	0.137007	-16.2955	10.599	11.6757
 574	1	1	-0.133704	-16.5773	10.087	10.3929
 575	1	1	-0.230679	-15.4238	8.4036	12.3178
 576	1	1	-0.154845	-16.2292	8.77006	10.055
 577	1	1	-0.105714	-15.6486	7.93099	11.0154
 578	1	5	-0.373818	-15.2485	12.2617	15.5707
 579	1	8	0.152766	-19.7304	21.6087	7.01327
 580	1	8	0.155405	-23.7619	22.0249	5.40304
 581	1	8	0.159938	-22.8072	22.7308	3.22892
 582	1	8	0.168438	-18.8975	20.282	10.899
 583	1	8	0.13763	-20.4465	21.8308	9.81812
 584	1	8	0.146749	-22.0139	18.5348	7.40077
 585	1	8	0.160749	-16.2118	13.0152	9.5329
 586	1	10	0.074263	-18.1428	15.4202	7.47123
 587	1	10	0.076992	-16.9141	14.1655	7.44503
 588	1	10	0.075732	-16.5545	15.7254	8.21173
 589	1	8	0.120118	-21.126	15.755	11.4876
 590	1	8	0.145089	-21.9488	14.7243	13.5629
 591	1	8	0.146654	-20.7632	12.7676	14.5468
 592	1	8	0.147988	-18.7508	11.8665	13.4577
 593	1	8	0.166658	-16.3639	13.4948	13.4855
 594	1	8	0.132671	-17.0391	10.716	9.63992
 595	1	8	0.178371	-14.9589	7.73135	13.0348
 596	1	8	0.137951	-16.4096	8.40097	9.04848
 597	1	8	0.128868	-15.3734	6.91293	10.7488
 598	1	10	0.119422	-15.3907	11.6049	16.4354
 599	1	10	0.137967	-15.8608	13.1522	15.7645
 600	1	10	0.115874	-14.1991	12.584	15.5703
 601	1	1	-0.015291	-6.63536	34.7171	-4.08227
 602	1	1	-0.066451	-7.95839	34.2293	-4.2229
 603	1	1	-0.157747	-8.92998	35.1096	-4.78265
 604	1	2	-0.394636	-3.90318	35.7126	-4.79639
 605	1	1	0.035045	-6.28872	35.9204	-4.68623
 606	1	1	-0.04863	-8.56223	36.3458	-5.3653
 607	1	2	-0.369731	-6.94558	38.3514	-7.10729
 608	1	1	0.009912	-7.20694	36.6975	-5.35933
 609	1	3	0.064933	-4.93089	36.2804	-5.13163
 610	1	4	0.489832	-5.12112	37.193	-6.1623
 611	1	3	0.01974	-6.45547	37.5993	-6.28133
 612	1	1	-0.15002	-11.0655	33.0393	-1.408
 613	1	5	-0.109385	-8.26628	32.6984	-4.1137
 614	1	1	-0.027748	-9.51114	32.4141	-3.23078
 615	1	1	-0.058225	-9.9952	33.3542	-2.27689
 616	1	1	-0.058862	-11.6205	31.7549	-1.4822
 617	1	1	-0.073426	-10.1192	31.1345	-3.27696
 618	1	1	-0.053817	-11.1433	30.8312	-2.38441
 619	1	5	0.313225	-7.0683	31.8721	-3.48879
 620	1	5	0.370299	-8.4982	32.2159	-5.60482
 621	1	6	-0.09626	-5.96547	31.869	-4.27297
 622	1	6	-0.107747	-7.35532	30.5679	-3.28364
 623	1	6	-0.102822	-6.725	32.36	-2.27475
 624	1	6	-0.119294	-9.72291	32.5673	-6.05881
 625	1	6	-0.123874	-8.39823	30.8807	-5.78089
 626	1	6	-0.116977	-7.5985	32.7655	-6.45432
 627	1	3	0.454578	-11.8189	29.5349	-2.14815
 628	1	3	0.475587	-12.6605	31.0825	-0.653926
 629	1	4	-0.008375	-12.6966	29.7647	-1.10126
 630	1	2	-0.468822	-11.5862	28.4844	-2.72047
 631	1	2	-0.475809	-13.2926	31.5849	0.25927
 632	1	1	-0.104577	-13.4852	28.7333	-0.515577
 633	1	1	0.090513	-13.1043	28.2055	0.738471
 634	1	1	0.041176	-14.6201	28.2154	-1.19028
 635	1	1	0.130327	-15.3916	27.1949	-0.583162
 636	1	7	-0.071967	-15.0232	26.684	0.688833