pySIMM System Object

3750 atoms
4149 bonds
7196 angles
11088 dihedrals
1200 impropers

10 atom types
13 bond types
22 angle types
9 dihedral types
4 improper types

-244.763032 244.763032 xlo xhi
-244.763032 244.763032 ylo yhi
-244.763032 244.763032 zlo zhi

Masses

   1	12.01	# ca
   2	16.0	# o
   3	12.01	# c
   4	14.01	# n
   5	12.01	# c3
   6	19.0	# f
   7	12.01	# cp
   8	1.008	# ha
   9	1.008	# hn
  10	1.008	# hc

Pair Coeffs

   1	0.086	3.3996695084235347	# ca
   2	0.21	2.959921901149463	# o
   3	0.086	3.3996695084235347	# c
   4	0.17	3.249998523775958	# n
   5	0.1094	3.3996695084235347	# c3
   6	0.061	3.1181455134911875	# f
   7	0.086	3.3996695084235347	# cp
   8	0.015	2.59964245953351	# ha
   9	0.0157	1.069078461768407	# hn
  10	0.0157	2.649532787749369	# hc

Bond Coeffs

   1	356.9	1.3497	# c3,f
   2	450.2	1.4058	# ca,cp
   3	403.2	1.0129	# hn,n
   4	461.1	1.3984	# ca,ca
   5	427.6	1.3789	# c,n
   6	345.9	1.4906	# c,ca
   7	300.9	1.5375	# c3,c3
   8	330.6	1.0969	# c3,hc
   9	351.4	1.4854	# cp,cp
  10	345.8	1.086	# ca,ha
  11	321.0	1.5156	# c3,ca
  12	384.2	1.4121	# ca,n
  13	637.7	1.2183	# c,o

Angle Coeffs

   1	74.22	123.05	# n,c,o
   2	66.62	120.02	# ca,ca,ca
   3	68.72	122.6	# ca,c,o
   4	67.68	115.25	# ca,c,n
   5	48.33	117.55	# c,n,hn
   6	64.28	120.33	# c,ca,ca
   7	47.98	119.86	# cp,ca,ha
   8	39.4	107.58	# hc,c3,hc
   9	63.53	120.77	# c3,ca,ca
  10	70.89	107.36	# f,c3,f
  11	67.87	120.19	# ca,ca,n
  12	66.72	118.38	# ca,cp,ca
  13	46.8	110.47	# ca,c3,hc
  14	62.86	111.51	# c3,c3,c3
  15	66.11	109.24	# c3,c3,f
  16	63.15	112.07	# c3,c3,ca
  17	63.82	123.71	# c,n,ca
  18	66.26	120.69	# ca,ca,cp
  19	63.56	112.24	# ca,c3,ca
  20	63.74	127.08	# c,n,c
  21	48.18	119.88	# ca,ca,ha
  22	64.05	121.11	# ca,cp,cp

Dihedral Coeffs

   1	2	2.5	2	180	2.0	1	0	# hn,n,c,o
   2	1	3.625	2	180	# X,ca,cp,X
   3	1	1.0	2	180	# X,cp,cp,X
   4	1	3.625	2	180	# X,ca,ca,X
   5	1	1.0	2	180	# X,c,ca,X
   6	1	0.0	2	0	# X,c3,ca,X
   7	1	0.15555555555555556	3	0	# X,c3,c3,X
   8	1	2.5	2	180	# X,c,n,X
   9	1	0.45	2	180	# X,ca,n,X

Improper Coeffs

   1	10.5	-1	2	# c,X,X,o
   2	1.1	-1	2	# n,X,X,hn
   3	1.1	-1	2	# ca,ca,ca,c3
   4	1.1	-1	2	# ca,X,X,ha

Atoms

   1	1	1	-0.015291	-68.3247	113.302	-186.475
   2	1	1	-0.066451	-68.0353	114.269	-187.474
   3	1	1	-0.157747	-67.3531	113.84	-188.648
   4	1	2	-0.394636	-68.5443	110.8	-184.663
   5	1	1	0.035045	-67.9458	111.974	-186.689
   6	1	1	-0.04863	-66.9858	112.493	-188.847
   7	1	2	-0.369731	-66.3625	109.454	-188.534
   8	1	1	0.009912	-67.2977	111.576	-187.841
   9	1	3	0.064933	-68.0503	110.808	-185.779
  10	1	4	0.489832	-67.4206	109.766	-186.455
  11	1	3	0.01974	-66.9611	110.134	-187.718
  12	1	1	-0.15002	-70.3794	116.107	-190.582
  13	1	5	-0.109385	-68.3467	115.783	-187.285
  14	1	1	-0.027748	-68.8765	116.361	-188.629
  15	1	1	-0.058225	-69.8127	115.607	-189.392
  16	1	1	-0.058862	-70.0079	117.39	-190.996
  17	1	1	-0.073426	-68.5348	117.662	-189.084
  18	1	1	-0.053817	-69.115	118.143	-190.263
  19	1	5	0.313225	-66.9982	116.445	-186.805
  20	1	5	0.370299	-69.4755	116.065	-186.22
  21	1	6	-0.09626	-67.1511	117.706	-186.341
  22	1	6	-0.107747	-66.085	116.491	-187.802
  23	1	6	-0.102822	-66.4277	115.739	-185.802
  24	1	6	-0.119294	-69.0779	115.846	-184.946
  25	1	6	-0.123874	-70.5647	115.293	-186.439
  26	1	6	-0.116977	-69.9042	117.347	-186.271
  27	1	3	0.454578	-69.0067	119.482	-190.895
  28	1	3	0.475587	-70.4964	118.222	-192.13
  29	1	4	-0.008375	-69.8791	119.457	-191.974
  30	1	2	-0.468822	-68.3311	120.415	-190.496
  31	1	2	-0.475809	-71.3254	117.894	-192.961
  32	1	1	-0.104577	-70.1843	120.611	-192.753
  33	1	1	0.090513	-69.2996	121.015	-193.775
  34	1	1	0.041176	-71.334	121.389	-192.462
  35	1	1	0.130327	-71.588	122.577	-193.193
  36	1	7	-0.071967	-70.6926	122.989	-194.217
  37	1	1	-0.178735	-69.5582	122.196	-194.486
  38	1	5	-0.205934	-68.055	120.204	-194.113
  39	1	1	-0.139817	-72.2296	121.01	-191.434
  40	1	1	-0.146593	-73.3602	121.787	-191.142
  41	1	1	-0.1545	-73.608	122.961	-191.863
  42	1	1	-0.172216	-72.7233	123.355	-192.878
  43	1	7	-0.107816	-70.867	124.264	-194.976
  44	1	1	-0.127649	-70.0156	125.35	-194.667
  45	1	1	-0.062495	-70.1376	126.583	-195.323
  46	1	1	0.148158	-71.1218	126.741	-196.312
  47	1	1	-0.091615	-71.9765	125.68	-196.649
  48	1	1	0.137007	-71.8539	124.436	-195.987
  49	1	1	-0.133704	-72.7216	123.385	-196.351
  50	1	1	-0.230679	-72.9517	125.866	-197.646
  51	1	1	-0.154845	-73.6953	123.573	-197.347
  52	1	1	-0.105714	-73.8119	124.813	-197.994
  53	1	5	-0.373818	-69.2156	127.731	-194.949
  54	1	8	0.152766	-68.7979	113.55	-185.532
  55	1	8	0.155405	-67.081	114.566	-189.412
  56	1	8	0.159938	-66.4469	112.175	-189.737
  57	1	8	0.168438	-71.1116	115.533	-191.147
  58	1	8	0.13763	-70.1247	114.624	-189.047
  59	1	8	0.146749	-67.8686	118.32	-188.535
  60	1	8	0.160749	-68.8692	122.516	-195.262
  61	1	10	0.074263	-68.3109	119.158	-194.324
  62	1	10	0.076992	-67.3376	120.222	-193.283
  63	1	10	0.075732	-67.5424	120.598	-194.999
  64	1	8	0.120118	-72.0673	120.112	-190.849
  65	1	8	0.145089	-74.0415	121.479	-190.352
  66	1	8	0.146654	-74.4811	123.568	-191.635
  67	1	8	0.147988	-72.927	124.274	-193.419
  68	1	8	0.166658	-69.2625	125.229	-193.892
  69	1	8	0.132671	-72.6451	122.417	-195.866
  70	1	8	0.178371	-73.0404	126.826	-198.15
  71	1	8	0.137951	-74.3585	122.755	-197.618
  72	1	8	0.128868	-74.5657	124.956	-198.765
  73	1	10	0.119422	-69.333	127.999	-193.892
  74	1	10	0.137967	-69.4271	128.628	-195.545
  75	1	10	0.115874	-68.165	127.461	-195.115
  76	1	1	-0.015291	-64.8487	95.7642	-175.257
  77	1	1	-0.066451	-65.4996	96.6226	-176.184
  78	1	1	-0.157747	-66.2914	97.6897	-175.671
  79	1	2	-0.394636	-63.6977	94.3055	-172.764
  80	1	1	0.035045	-64.9936	96.012	-173.887
  81	1	1	-0.04863	-66.427	97.9197	-174.287
  82	1	2	-0.369731	-66.287	97.8189	-171.18
  83	1	1	0.009912	-65.7604	97.0578	-173.414
  84	1	3	0.064933	-64.4309	95.2796	-172.723
  85	1	4	0.489832	-64.9179	95.951	-171.603
  86	1	3	0.01974	-65.7261	97.0382	-171.931
  87	1	1	-0.15002	-64.0138	99.9505	-178.433
  88	1	5	-0.109385	-65.4317	96.4079	-177.725
  89	1	1	-0.027748	-65.2332	97.7957	-178.403
  90	1	1	-0.058225	-64.257	98.6833	-177.868
  91	1	1	-0.058862	-64.7608	100.32	-179.554
  92	1	1	-0.073426	-65.9575	98.2067	-179.554
  93	1	1	-0.053817	-65.7034	99.4724	-180.099
  94	1	5	0.313225	-66.779	95.6933	-178.127
  95	1	5	0.370299	-64.2146	95.5178	-178.189
  96	1	6	-0.09626	-67.8451	96.5132	-177.984
  97	1	6	-0.107747	-67.0252	94.6211	-177.339
  98	1	6	-0.102822	-66.7868	95.2448	-179.402
  99	1	6	-0.119294	-63.0509	95.9351	-177.641
 100	1	6	-0.123874	-64.0409	95.5734	-179.53
 101	1	6	-0.116977	-64.3547	94.2107	-177.873
 102	1	3	0.454578	-66.3319	100.164	-181.258
 103	1	3	0.475587	-64.7512	101.578	-180.343
 104	1	4	-0.008375	-65.7173	101.407	-181.325
 105	1	2	-0.468822	-67.2358	99.7349	-181.954
 106	1	2	-0.475809	-64.0715	102.565	-180.12
 107	1	1	-0.104577	-66.0695	102.441	-182.24
 108	1	1	0.090513	-67.0447	103.385	-181.857
 109	1	1	0.041176	-65.3785	102.593	-183.467
 110	1	1	0.130327	-65.6256	103.729	-184.278
 111	1	7	-0.071967	-66.5553	104.718	-183.856
 112	1	1	-0.178735	-67.2747	104.508	-182.662
 113	1	5	-0.205934	-67.8187	103.242	-180.552
 114	1	1	-0.139817	-64.4223	101.64	-183.888
 115	1	1	-0.146593	-63.7302	101.805	-185.097
 116	1	1	-0.1545	-63.9772	102.926	-185.899
 117	1	1	-0.172216	-64.9174	103.883	-185.489
 118	1	7	-0.107816	-66.7297	106.021	-184.566
 119	1	1	-0.127649	-67.94	106.281	-185.242
 120	1	1	-0.062495	-68.1675	107.506	-185.887
 121	1	1	0.148158	-67.1669	108.504	-185.857
 122	1	1	-0.091615	-65.9418	108.27	-185.183
 123	1	1	0.137007	-65.7305	107.032	-184.529
 124	1	1	-0.133704	-64.5258	106.825	-183.821
 125	1	1	-0.230679	-64.9285	109.26	-185.136
 126	1	1	-0.154845	-63.5316	107.813	-183.781
 127	1	1	-0.105714	-63.7312	109.028	-184.444
 128	1	5	-0.373818	-69.5025	107.732	-186.591
 129	1	8	0.152766	-64.2478	94.9147	-175.563
 130	1	8	0.155405	-66.8204	98.3498	-176.355
 131	1	8	0.159938	-67.036	98.7342	-173.9
 132	1	8	0.168438	-63.2713	100.627	-178.013
 133	1	8	0.13763	-63.6776	98.3889	-176.996
 134	1	8	0.146749	-66.7051	97.5817	-180.032
 135	1	8	0.160749	-67.9808	105.267	-182.336
 136	1	10	0.074263	-68.601	104.005	-180.458
 137	1	10	0.076992	-67.153	103.344	-179.686
 138	1	10	0.075732	-68.3134	102.264	-180.495
 139	1	8	0.120118	-64.2103	100.759	-183.291
 140	1	8	0.145089	-63.0024	101.061	-185.413
 141	1	8	0.146654	-63.4407	103.057	-186.836
 142	1	8	0.147988	-65.0957	104.747	-186.122
 143	1	8	0.166658	-68.7082	105.512	-185.254
 144	1	8	0.132671	-64.3482	105.896	-183.288
 145	1	8	0.178371	-65.0417	110.221	-185.63
 146	1	8	0.137951	-62.6091	107.634	-183.235
 147	1	8	0.128868	-62.9597	109.794	-184.416
 148	1	10	0.119422	-70.1346	106.836	-186.56
 149	1	10	0.137967	-69.36	107.985	-187.65
 150	1	10	0.115874	-70.0717	108.542	-186.115
 151	1	1	-0.015291	-60.8756	93.4392	-153.864
 152	1	1	-0.066451	-61.2243	93.9424	-155.147
 153	1	1	-0.157747	-62.3915	94.7508	-155.256
 154	1	2	-0.394636	-60.6099	92.7548	-150.844
 155	1	1	0.035045	-61.6923	93.7427	-152.769
 156	1	1	-0.04863	-63.2065	95.0372	-154.141
 157	1	2	-0.369731	-64.426	95.3602	-151.296
 158	1	1	0.009912	-62.8265	94.517	-152.902
 159	1	3	0.064933	-61.5167	93.409	-151.331
 160	1	4	0.489832	-62.5812	94.0317	-150.682
 161	1	3	0.01974	-63.4278	94.71	-151.558
 162	1	1	-0.15002	-63.157	92.4322	-158.707
 163	1	5	-0.109385	-60.3142	93.7416	-156.397
 164	1	1	-0.027748	-61.2062	93.5472	-157.661
 165	1	1	-0.058225	-62.3294	92.6745	-157.591
 166	1	1	-0.058862	-62.8345	93.0641	-159.912
 167	1	1	-0.073426	-60.9101	94.1563	-158.91
 168	1	1	-0.053817	-61.7399	93.8973	-160.008
 169	1	5	0.313225	-59.4087	92.4536	-156.309
 170	1	5	0.370299	-59.3979	95.0233	-156.467
 171	1	6	-0.09626	-58.8558	92.1505	-157.506
 172	1	6	-0.107747	-60.1258	91.37	-155.935
 173	1	6	-0.102822	-58.3823	92.5729	-155.437
 174	1	6	-0.119294	-58.3856	94.9092	-157.356
 175	1	6	-0.123874	-58.8247	95.2968	-155.272
 176	1	6	-0.116977	-60.1101	96.1233	-156.802
 177	1	3	0.454578	-61.6629	94.4049	-161.403
 178	1	3	0.475587	-63.499	93.0138	-161.243
 179	1	4	-0.008375	-62.7471	93.8444	-162.065
 180	1	2	-0.468822	-60.8265	95.1714	-161.848
 181	1	2	-0.475809	-64.5066	92.3891	-161.526
 182	1	1	-0.104577	-63.0762	94.1329	-163.422
 183	1	1	0.090513	-62.5071	93.3578	-164.455
 184	1	1	0.041176	-63.9592	95.1955	-163.738
 185	1	1	0.130327	-64.2734	95.4735	-165.091
 186	1	7	-0.071967	-63.7034	94.6936	-166.132
 187	1	1	-0.178735	-62.8244	93.6444	-165.792
 188	1	5	-0.205934	-61.553	92.2097	-164.151
 189	1	1	-0.139817	-64.5382	95.9895	-162.72
 190	1	1	-0.146593	-65.4152	97.0375	-163.037
 191	1	1	-0.1545	-65.7276	97.3079	-164.375
 192	1	1	-0.172216	-65.1597	96.5297	-165.395
 193	1	7	-0.107816	-64.0177	94.9428	-167.57
 194	1	1	-0.127649	-63.2335	95.8714	-168.284
 195	1	1	-0.062495	-63.5189	96.1955	-169.618
 196	1	1	0.148158	-64.6143	95.5793	-170.266
 197	1	1	-0.091615	-65.4102	94.6302	-169.576
 198	1	1	0.137007	-65.109	94.3155	-168.227
 199	1	1	-0.133704	-65.9119	93.3824	-167.538
 200	1	1	-0.230679	-66.5099	93.9963	-170.204
 201	1	1	-0.154845	-66.9969	92.7606	-168.172
 202	1	1	-0.105714	-67.2946	93.0672	-169.505
 203	1	5	-0.373818	-62.6418	97.2233	-170.329
 204	1	8	0.152766	-59.9784	92.8571	-153.685
 205	1	8	0.155405	-62.6609	95.1894	-156.215
 206	1	8	0.159938	-64.0874	95.6702	-154.227
 207	1	8	0.168438	-64.0178	91.7691	-158.642
 208	1	8	0.13763	-62.5653	92.1735	-156.655
 209	1	8	0.146749	-60.0596	94.8131	-159.058
 210	1	8	0.160749	-62.3903	93.0467	-166.589
 211	1	10	0.074263	-60.6587	92.5697	-163.627
 212	1	10	0.076992	-61.2149	91.7083	-165.066
 213	1	10	0.075732	-62.0383	91.4516	-163.524
 214	1	8	0.120118	-64.3201	95.807	-161.674
 215	1	8	0.145089	-65.8543	97.6384	-162.245
 216	1	8	0.146654	-66.4091	98.1181	-164.624
 217	1	8	0.147988	-65.4157	96.7534	-166.426
 218	1	8	0.166658	-62.4031	96.3541	-167.775
 219	1	8	0.132671	-65.6998	93.1313	-166.503
 220	1	8	0.178371	-66.7758	94.2043	-171.236
 221	1	8	0.137951	-67.6058	92.0424	-167.628
 222	1	8	0.128868	-68.1362	92.5843	-169.996
 223	1	10	0.119422	-62.1538	96.79	-171.212
 224	1	10	0.137967	-61.8437	97.5987	-169.675
 225	1	10	0.115874	-63.2272	98.0959	-170.648
 226	1	1	-0.015291	-64.5803	95.3177	-132.435
 227	1	1	-0.066451	-64.7493	95.5748	-133.823
 228	1	1	-0.157747	-66.0588	95.4603	-134.371
 229	1	2	-0.394636	-64.865	94.5994	-129.428
 230	1	1	0.035045	-65.6889	94.9229	-131.678
 231	1	1	-0.04863	-67.1624	95.0563	-133.59
 232	1	2	-0.369731	-69.0769	94.1087	-131.32
 233	1	1	0.009912	-66.9423	94.7847	-132.238
 234	1	3	0.064933	-65.7803	94.5863	-130.234
 235	1	4	0.489832	-67.1163	94.2495	-130.023
 236	1	3	0.01974	-67.8881	94.3426	-131.181
 237	1	1	-0.15002	-64.116	93.2198	-137.368
 238	1	5	-0.109385	-63.5757	96.0317	-134.742
 239	1	1	-0.027748	-63.7177	95.3258	-136.125
 240	1	1	-0.058225	-64.0091	93.9324	-136.157
 241	1	1	-0.058862	-63.9159	93.9212	-138.56
 242	1	1	-0.073426	-63.5094	95.9953	-137.362
 243	1	1	-0.053817	-63.6194	95.2683	-138.556
 244	1	5	0.313225	-62.1542	95.622	-134.193
 245	1	5	0.370299	-63.67	97.6027	-134.824
 246	1	6	-0.09626	-62.1145	94.3191	-133.833
 247	1	6	-0.107747	-61.762	96.3431	-133.119
 248	1	6	-0.102822	-61.1927	95.7828	-135.131
 249	1	6	-0.119294	-63.7786	98.1608	-133.596
 250	1	6	-0.123874	-64.763	97.998	-135.515
 251	1	6	-0.116977	-62.5934	98.173	-135.41
 252	1	3	0.454578	-63.4363	95.7039	-139.968
 253	1	3	0.475587	-63.9344	93.4492	-139.97
 254	1	4	-0.008375	-63.6406	94.5662	-140.74
 255	1	2	-0.468822	-63.1525	96.8265	-140.347
 256	1	2	-0.475809	-64.1428	92.3091	-140.347
 257	1	1	-0.104577	-63.5328	94.5251	-142.161
 258	1	1	0.090513	-62.3052	94.1464	-142.745
 259	1	1	0.041176	-64.6486	94.8126	-142.987
 260	1	1	0.130327	-64.5355	94.6925	-144.395
 261	1	7	-0.071967	-63.3062	94.2883	-144.983
 262	1	1	-0.178735	-62.2045	94.0366	-144.14
 263	1	5	-0.205934	-61.0807	93.8439	-141.89
 264	1	1	-0.139817	-65.8813	95.2204	-142.427
 265	1	1	-0.146593	-66.983	95.5067	-143.247
 266	1	1	-0.1545	-66.8701	95.3865	-144.638
 267	1	1	-0.172216	-65.6532	94.9829	-145.207
 268	1	7	-0.107816	-63.1225	94.1522	-146.461
 269	1	1	-0.127649	-62.4432	95.1801	-147.144
 270	1	1	-0.062495	-62.254	95.137	-148.531
 271	1	1	0.148158	-62.7503	94.0378	-149.27
 272	1	1	-0.091615	-63.4159	92.9764	-148.606
 273	1	1	0.137007	-63.6003	93.0368	-147.201
 274	1	1	-0.133704	-64.2594	91.9763	-146.544
 275	1	1	-0.230679	-63.9013	91.854	-149.321
 276	1	1	-0.154845	-64.7334	90.8691	-147.263
 277	1	1	-0.105714	-64.5537	90.8083	-148.651
 278	1	5	-0.373818	-61.522	96.2961	-149.203
 279	1	8	0.152766	-63.6258	95.4167	-131.93
 280	1	8	0.155405	-66.2286	95.6882	-135.421
 281	1	8	0.159938	-68.1584	94.9618	-134.018
 282	1	8	0.168438	-64.3333	92.1535	-137.383
 283	1	8	0.13763	-64.1496	93.3886	-135.226
 284	1	8	0.146749	-63.255	97.0481	-137.425
 285	1	8	0.160749	-61.2616	93.7363	-144.588
 286	1	10	0.074263	-61.2402	92.947	-141.279
 287	1	10	0.076992	-60.8498	94.6813	-141.22
 288	1	10	0.075732	-60.1904	93.6676	-142.506
 289	1	8	0.120118	-66.0002	95.3309	-141.354
 290	1	8	0.145089	-67.9233	95.826	-142.804
 291	1	8	0.146654	-67.722	95.6087	-145.276
 292	1	8	0.147988	-65.5837	94.9008	-146.288
 293	1	8	0.166658	-62.0752	96.0303	-146.575
 294	1	8	0.132671	-64.4038	92.0007	-145.468
 295	1	8	0.178371	-63.7756	91.7637	-150.395
 296	1	8	0.137951	-65.2357	90.0571	-146.744
 297	1	8	0.128868	-64.9171	89.9469	-149.207
 298	1	10	0.119422	-61.1303	97.0104	-148.468
 299	1	10	0.137967	-62.1924	96.8578	-149.868
 300	1	10	0.115874	-60.6637	95.9453	-149.791
 301	1	1	-0.015291	-72.5453	89.8993	-113.04
 302	1	1	-0.066451	-72.7828	90.2715	-114.39
 303	1	1	-0.157747	-73.7487	89.5323	-115.13
 304	1	2	-0.394636	-72.4417	88.5791	-110.235
 305	1	1	0.035045	-73.2395	88.8094	-112.505
 306	1	1	-0.04863	-74.4402	88.4378	-114.57
 307	1	2	-0.369731	-75.5251	86.166	-112.732
 308	1	1	0.009912	-74.1567	88.0939	-113.247
 309	1	3	0.064933	-73.1585	88.2088	-111.151
 310	1	4	0.489832	-74.0491	87.137	-111.176
 311	1	3	0.01974	-74.6989	86.9998	-112.401
 312	1	1	-0.15002	-70.548	89.3411	-117.939
 313	1	5	-0.109385	-72.0707	91.4805	-115.069
 314	1	1	-0.027748	-71.6022	91.0566	-116.494
 315	1	1	-0.058225	-71.0561	89.7559	-116.691
 316	1	1	-0.058862	-70.5702	90.259	-118.993
 317	1	1	-0.073426	-71.601	91.9565	-117.593
 318	1	1	-0.053817	-71.0813	91.5286	-118.821
 319	1	5	0.313225	-70.7683	91.9479	-114.314
 320	1	5	0.370299	-73.1221	92.6565	-115.075
 321	1	6	-0.09626	-71.0243	92.5491	-113.13
 322	1	6	-0.107747	-70.0539	92.8339	-115.045
 323	1	6	-0.102822	-69.9371	90.909	-114.07
 324	1	6	-0.119294	-74.1188	92.4292	-115.96
 325	1	6	-0.123874	-72.588	93.8602	-115.38
 326	1	6	-0.116977	-73.7109	92.7998	-113.865
 327	1	3	0.454578	-70.8911	92.2784	-120.092
 328	1	3	0.475587	-70.0356	90.153	-120.378
 329	1	4	-0.008375	-70.2438	91.4001	-120.951
 330	1	2	-0.468822	-71.2041	93.4374	-120.3
 331	1	2	-0.475809	-69.4943	89.1792	-120.873
 332	1	1	-0.104577	-69.7765	91.7662	-122.248
 333	1	1	0.090513	-70.5709	91.4843	-123.379
 334	1	1	0.041176	-68.5295	92.4215	-122.403
 335	1	1	0.130327	-68.0898	92.8052	-123.694
 336	1	7	-0.071967	-68.8968	92.5396	-124.833
 337	1	1	-0.178735	-70.1251	91.8696	-124.653
 338	1	5	-0.205934	-71.9165	90.7833	-123.243
 339	1	1	-0.139817	-67.7125	92.7093	-121.284
 340	1	1	-0.146593	-66.4823	93.3649	-121.442
 341	1	1	-0.1545	-66.0477	93.7393	-122.719
 342	1	1	-0.172216	-66.8471	93.4599	-123.837
 343	1	7	-0.107816	-68.5116	93.0022	-126.201
 344	1	1	-0.127649	-67.905	92.0913	-127.089
 345	1	1	-0.062495	-67.4602	92.4948	-128.357
 346	1	1	0.148158	-67.6245	93.8411	-128.759
 347	1	1	-0.091615	-68.2546	94.7714	-127.894
 348	1	1	0.137007	-68.6963	94.3479	-126.616
 349	1	1	-0.133704	-69.317	95.2783	-125.755
 350	1	1	-0.230679	-68.4449	96.1216	-128.279
 351	1	1	-0.154845	-69.5036	96.6106	-126.15
 352	1	1	-0.105714	-69.0678	97.0315	-127.411
 353	1	5	-0.373818	-66.7872	91.4648	-129.261
 354	1	8	0.152766	-71.8459	90.4217	-112.397
 355	1	8	0.155405	-73.9682	89.8076	-116.16
 356	1	8	0.159938	-75.1727	87.8734	-115.143
 357	1	8	0.168438	-70.119	88.3502	-118.076
 358	1	8	0.13763	-71.0017	89.0587	-115.859
 359	1	8	0.146749	-71.9523	92.9795	-117.511
 360	1	8	0.160749	-70.7457	91.672	-125.522
 361	1	10	0.074263	-72.578	91.3274	-122.557
 362	1	10	0.076992	-71.7883	89.7632	-122.859
 363	1	10	0.075732	-72.4354	90.7096	-124.206
 364	1	8	0.120118	-68.0163	92.4335	-120.28
 365	1	8	0.145089	-65.8665	93.5816	-120.572
 366	1	8	0.146654	-65.0936	94.2461	-122.845
 367	1	8	0.147988	-66.4909	93.7562	-124.819
 368	1	8	0.166658	-67.7609	91.0634	-126.766
 369	1	8	0.132671	-69.6654	94.9743	-124.773
 370	1	8	0.178371	-68.1278	96.4892	-129.25
 371	1	8	0.137951	-69.9875	97.3134	-125.476
 372	1	8	0.128868	-69.2162	98.0643	-127.718
 373	1	10	0.119422	-67.3052	91.3771	-130.225
 374	1	10	0.137967	-66.786	90.4649	-128.808
 375	1	10	0.115874	-65.7382	91.7282	-129.453
 376	1	1	-0.015291	-73.0191	76.0304	-96.7694
 377	1	1	-0.066451	-73.6723	76.2613	-98.0093
 378	1	1	-0.157747	-75.0845	76.0831	-98.0641
 379	1	2	-0.394636	-72.1895	75.3262	-93.8762
 380	1	1	0.035045	-73.7826	75.6654	-95.6576
 381	1	1	-0.04863	-75.836	75.7087	-96.9293
 382	1	2	-0.369731	-76.8004	74.8216	-94.0927
 383	1	1	0.009912	-75.1516	75.5109	-95.7278
 384	1	3	0.064933	-73.3393	75.3304	-94.2838
 385	1	4	0.489832	-74.502	74.9813	-93.6009
 386	1	3	0.01974	-75.646	75.0757	-94.3938
 387	1	1	-0.15002	-74.8138	80.0053	-99.7622
 388	1	5	-0.109385	-72.9023	76.6429	-99.3122
 389	1	1	-0.027748	-73.6069	77.8532	-99.9915
 390	1	1	-0.058225	-74.2428	78.8482	-99.194
 391	1	1	-0.058862	-74.7081	80.1765	-101.146
 392	1	1	-0.073426	-73.5194	78.0732	-101.391
 393	1	1	-0.053817	-74.0663	79.2424	-101.931
 394	1	5	0.313225	-72.8966	75.3464	-100.212
 395	1	5	0.370299	-71.4177	77.1055	-99.05
 396	1	6	-0.09626	-74.1099	75.1166	-100.764
 397	1	6	-0.107747	-72.5874	74.2462	-99.4888
 398	1	6	-0.102822	-72.0061	75.3865	-101.228
 399	1	6	-0.119294	-70.8336	77.6092	-100.161
 400	1	6	-0.123874	-70.6183	76.1019	-98.6235
 401	1	6	-0.116977	-71.3687	78.0936	-98.1273
 402	1	3	0.454578	-73.9837	79.7773	-103.315
 403	1	3	0.475587	-75.0827	81.3311	-102.006
 404	1	4	-0.008375	-74.5759	81.033	-103.266
 405	1	2	-0.468822	-73.4349	79.2413	-104.262
 406	1	2	-0.475809	-75.6315	82.3554	-101.639
 407	1	1	-0.104577	-74.5607	81.9496	-104.359
 408	1	1	0.090513	-75.429	81.7418	-105.453
 409	1	1	0.041176	-73.6591	83.0456	-104.369
 410	1	1	0.130327	-73.6304	83.9259	-105.48
 411	1	7	-0.071967	-74.4865	83.7028	-106.591
 412	1	1	-0.178735	-75.3785	82.6111	-106.552
 413	1	5	-0.205934	-76.4205	80.5851	-105.474
 414	1	1	-0.139817	-72.7771	83.2801	-103.287
 415	1	1	-0.146593	-71.9058	84.3792	-103.292
 416	1	1	-0.1545	-71.8934	85.2576	-104.382
 417	1	1	-0.172216	-72.7473	85.028	-105.47
 418	1	7	-0.107816	-74.4575	84.5766	-107.803
 419	1	1	-0.127649	-73.3959	84.4209	-108.717
 420	1	1	-0.062495	-73.2752	85.2438	-109.845
 421	1	1	0.148158	-74.2333	86.2586	-110.074
 422	1	1	-0.091615	-75.3249	86.4218	-109.183
 423	1	1	0.137007	-75.4323	85.5795	-108.048
 424	1	1	-0.133704	-76.503	85.7642	-107.148
 425	1	1	-0.230679	-76.3044	87.4225	-109.396
 426	1	1	-0.154845	-77.469	86.7549	-107.373
 427	1	1	-0.105714	-77.371	87.5817	-108.499
 428	1	5	-0.373818	-72.0894	85.0281	-110.783
 429	1	8	0.152766	-71.946	76.1103	-96.6391
 430	1	8	0.155405	-75.6113	76.2331	-99.0037
 431	1	8	0.159938	-76.9127	75.5621	-96.9829
 432	1	8	0.168438	-75.2775	80.7707	-99.1426
 433	1	8	0.13763	-74.2704	78.7465	-98.1125
 434	1	8	0.146749	-72.9891	77.3985	-102.055
 435	1	8	0.160749	-76.0332	82.4408	-107.402
 436	1	10	0.074263	-77.0188	80.5579	-104.555
 437	1	10	0.076992	-75.9003	79.6244	-105.574
 438	1	10	0.075732	-77.1208	80.6676	-106.313
 439	1	8	0.120118	-72.7589	82.6261	-102.423
 440	1	8	0.145089	-71.2453	84.5526	-102.446
 441	1	8	0.146654	-71.224	86.1149	-104.384
 442	1	8	0.147988	-72.7244	85.7228	-106.304
 443	1	8	0.166658	-72.6501	83.6533	-108.526
 444	1	8	0.132671	-76.5925	85.1415	-106.264
 445	1	8	0.178371	-76.2648	88.0866	-110.255
 446	1	8	0.137951	-78.2899	86.8825	-106.672
 447	1	8	0.128868	-78.1205	88.3503	-108.673
 448	1	10	0.119422	-72.4123	84.9174	-111.827
 449	1	10	0.137967	-71.5299	84.1186	-110.528
 450	1	10	0.115874	-71.3815	85.8659	-110.726
 451	1	1	-0.015291	-69.2465	67.99	-77.9446
 452	1	1	-0.066451	-69.7111	67.9481	-79.2875
 453	1	1	-0.157747	-68.7675	68.1639	-80.3325
 454	1	2	-0.394636	-67.6587	68.3996	-75.3015
 455	1	1	0.035045	-67.8981	68.2843	-77.7056
 456	1	1	-0.04863	-67.4115	68.4403	-80.0706
 457	1	2	-0.369731	-64.6715	69.1272	-78.78
 458	1	1	0.009912	-67.0077	68.5049	-78.7373
 459	1	3	0.064933	-67.1795	68.4829	-76.4201
 460	1	4	0.489832	-65.8769	68.8238	-76.782
 461	1	3	0.01974	-65.6848	68.8482	-78.1611
 462	1	1	-0.15002	-71.4135	71.2892	-81.1952
 463	1	5	-0.109385	-71.2062	67.7308	-79.6738
 464	1	1	-0.027748	-71.5804	68.8772	-80.6589
 465	1	1	-0.058225	-71.1864	70.2051	-80.3276
 466	1	1	-0.058862	-72.0547	71.0289	-82.4074
 467	1	1	-0.073426	-72.265	68.6643	-81.8864
 468	1	1	-0.053817	-72.4771	69.7577	-82.7393
 469	1	5	0.313225	-72.2064	67.8359	-78.4578
 470	1	5	0.370299	-71.3135	66.2844	-80.2983
 471	1	6	-0.09626	-73.4941	67.8476	-78.8706
 472	1	6	-0.107747	-72.0368	68.977	-77.7529
 473	1	6	-0.102822	-72.0846	66.8116	-77.5836
 474	1	6	-0.119294	-70.7569	65.3551	-79.4889
 475	1	6	-0.123874	-70.6639	66.1861	-81.4801
 476	1	6	-0.116977	-72.5878	65.8928	-80.5221
 477	1	3	0.454578	-73.0662	69.8138	-84.1059
 478	1	3	0.475587	-72.3497	71.9369	-83.5444
 479	1	4	-0.008375	-72.9234	71.1334	-84.5187
 480	1	2	-0.468822	-73.505	68.8722	-84.7421
 481	1	2	-0.475809	-72.071	73.1216	-83.6132
 482	1	1	-0.104577	-73.2274	71.6106	-85.8267
 483	1	1	0.090513	-74.4693	72.2346	-86.0669
 484	1	1	0.041176	-72.259	71.5365	-86.8587
 485	1	1	0.130327	-72.5316	72.1106	-88.1254
 486	1	7	-0.071967	-73.7792	72.7489	-88.3678
 487	1	1	-0.178735	-74.734	72.7884	-87.3287
 488	1	5	-0.205934	-75.5236	72.3425	-84.9726
 489	1	1	-0.139817	-71.008	70.9128	-86.6387
 490	1	1	-0.146593	-70.0425	70.8576	-87.6545
 491	1	1	-0.1545	-70.3061	71.4385	-88.9003
 492	1	1	-0.172216	-71.5391	72.0655	-89.1304
 493	1	7	-0.107816	-74.098	73.3837	-89.6843
 494	1	1	-0.127649	-74.2951	72.5476	-90.8023
 495	1	1	-0.062495	-74.4718	73.0737	-92.0882
 496	1	1	0.148158	-74.4754	74.4752	-92.2732
 497	1	1	-0.091615	-74.3263	75.3422	-91.1608
 498	1	1	0.137007	-74.1294	74.793	-89.8683
 499	1	1	-0.133704	-73.9221	75.6612	-88.7748
 500	1	1	-0.230679	-74.3342	76.7497	-91.3214
 501	1	1	-0.154845	-73.9331	77.0529	-88.9469
 502	1	1	-0.105714	-74.143	77.5966	-90.2194
 503	1	5	-0.373818	-74.6002	72.1048	-93.2614
 504	1	8	0.152766	-69.8968	67.8351	-77.0904
 505	1	8	0.155405	-69.0925	68.1449	-81.3702
 506	1	8	0.159938	-66.7009	68.6265	-80.8734
 507	1	8	0.168438	-71.0806	72.2954	-80.948
 508	1	8	0.13763	-70.6677	70.4001	-79.3924
 509	1	8	0.146749	-72.6039	67.6836	-82.2059
 510	1	8	0.160749	-75.6878	73.2756	-87.5118
 511	1	10	0.074263	-76.4707	72.7381	-85.3592
 512	1	10	0.076992	-75.1886	73.0133	-84.1715
 513	1	10	0.075732	-75.7382	71.3611	-84.5314
 514	1	8	0.120118	-70.7666	70.4602	-85.6836
 515	1	8	0.145089	-69.0866	70.3721	-87.4727
 516	1	8	0.146654	-69.5548	71.4095	-89.686
 517	1	8	0.147988	-71.7108	72.5259	-90.0982
 518	1	8	0.166658	-74.2621	71.47	-90.661
 519	1	8	0.132671	-73.7412	75.264	-87.7813
 520	1	8	0.178371	-74.4834	77.2117	-92.293
 521	1	8	0.137951	-73.7722	77.7076	-88.094
 522	1	8	0.128868	-74.1458	78.6761	-90.353
 523	1	10	0.119422	-74.6001	71.0595	-92.9272
 524	1	10	0.137967	-73.7665	72.2148	-93.9677
 525	1	10	0.115874	-75.5397	72.2614	-93.8088
 526	1	1	-0.015291	-55.4578	71.7394	-65.0274
 527	1	1	-0.066451	-54.2198	71.7627	-65.7217
 528	1	1	-0.157747	-53.2379	70.7874	-65.3812
 529	1	2	-0.394636	-57.9213	71.1193	-63.2371
 530	1	1	0.035045	-55.6827	70.7454	-64.0695
 531	1	1	-0.04863	-53.4841	69.7963	-64.4087
 532	1	2	-0.369731	-54.7032	67.9216	-62.2429
 533	1	1	0.009912	-54.7259	69.7969	-63.7716
 534	1	3	0.064933	-56.8815	70.4817	-63.2345
 535	1	4	0.489832	-56.5577	69.3517	-62.4851
 536	1	3	0.01974	-55.2706	68.8815	-62.7381
 537	1	1	-0.15002	-56.9097	74.5679	-68.7206
 538	1	5	-0.109385	-53.9563	72.8882	-66.7639
 539	1	1	-0.027748	-55.2549	73.1059	-67.6
 540	1	1	-0.058225	-55.7832	74.3977	-67.8911
 541	1	1	-0.058862	-57.5009	73.4278	-69.2711
 542	1	1	-0.073426	-55.903	71.9753	-68.1657
 543	1	1	-0.053817	-57.0164	72.1669	-68.9952
 544	1	5	0.313225	-52.8269	72.5317	-67.8083
 545	1	5	0.370299	-53.511	74.1544	-65.9358
 546	1	6	-0.09626	-52.994	71.2952	-68.3299
 547	1	6	-0.107747	-51.5773	72.5777	-67.2936
 548	1	6	-0.102822	-52.8358	73.3864	-68.8565
 549	1	6	-0.119294	-52.5169	73.8613	-65.0665
 550	1	6	-0.123874	-54.5264	74.6432	-65.1876
 551	1	6	-0.116977	-53.0562	75.165	-66.711
 552	1	3	0.454578	-57.8352	71.1827	-69.7548
 553	1	3	0.475587	-58.636	73.2969	-70.2222
 554	1	4	-0.008375	-58.7588	71.936	-70.4714
 555	1	2	-0.468822	-57.6972	69.9719	-69.7474
 556	1	2	-0.475809	-59.297	74.21	-70.6866
 557	1	1	-0.104577	-59.7249	71.3867	-71.3683
 558	1	1	0.090513	-61.0743	71.306	-70.961
 559	1	1	0.041176	-59.3561	70.9696	-72.6733
 560	1	1	0.130327	-60.3432	70.473	-73.5635
 561	1	7	-0.071967	-61.7018	70.3922	-73.1533
 562	1	1	-0.178735	-62.0414	70.8201	-71.8532
 563	1	5	-0.205934	-61.5181	71.7583	-69.5748
 564	1	1	-0.139817	-58.0148	71.0565	-73.1151
 565	1	1	-0.146593	-57.6559	70.6529	-74.4101
 566	1	1	-0.1545	-58.6319	70.1649	-75.2875
 567	1	1	-0.172216	-59.9671	70.0805	-74.8671
 568	1	7	-0.107816	-62.7939	69.9221	-74.0617
 569	1	1	-0.127649	-63.6501	70.8878	-74.6295
 570	1	1	-0.062495	-64.6742	70.5286	-75.5175
 571	1	1	0.148158	-64.8598	69.1679	-75.8515
 572	1	1	-0.091615	-64.0221	68.1738	-75.2878
 573	1	1	0.137007	-62.9928	68.5533	-74.3898
 574	1	1	-0.133704	-62.1662	67.5576	-73.8285
 575	1	1	-0.230679	-64.1904	66.8054	-75.6114
 576	1	1	-0.154845	-62.3452	66.205	-74.1544
 577	1	1	-0.105714	-63.356	65.8299	-75.0471
 578	1	5	-0.373818	-65.5508	71.6284	-76.1133
 579	1	8	0.152766	-56.2346	72.4755	-65.219
 580	1	8	0.155405	-52.2637	70.7824	-65.8576
 581	1	8	0.159938	-52.7352	69.049	-64.1543
 582	1	8	0.168438	-57.2987	75.558	-68.9517
 583	1	8	0.13763	-55.3223	75.2972	-67.5002
 584	1	8	0.146749	-55.5349	70.9667	-67.993
 585	1	8	0.160749	-63.0811	70.7717	-71.5419
 586	1	10	0.074263	-60.836	71.3992	-68.7945
 587	1	10	0.076992	-62.5166	71.3791	-69.3265
 588	1	10	0.075732	-61.5568	72.8536	-69.5183
 589	1	8	0.120118	-57.2332	71.4353	-72.4659
 590	1	8	0.145089	-56.6201	70.7222	-74.7339
 591	1	8	0.146654	-58.3572	69.8573	-76.2939
 592	1	8	0.147988	-60.7104	69.7092	-75.5665
 593	1	8	0.166658	-63.4916	71.9351	-74.3843
 594	1	8	0.132671	-61.3773	67.8262	-73.133
 595	1	8	0.178371	-64.9637	66.4713	-76.2968
 596	1	8	0.137951	-61.6993	65.4495	-73.7144
 597	1	8	0.128868	-63.4946	64.7814	-75.3008
 598	1	10	0.119422	-65.4558	71.6665	-77.2069
 599	1	10	0.137967	-65.2709	72.6207	-75.7351
 600	1	10	0.115874	-66.6094	71.4778	-75.8623
 601	1	1	-0.015291	-68.5355	58.7985	-54.0548
 602	1	1	-0.066451	-67.5751	59.613	-54.7172
 603	1	1	-0.157747	-66.2991	59.0488	-55.0038
 604	1	2	-0.394636	-70.1535	56.5148	-52.6671
 605	1	1	0.035045	-68.1832	57.4933	-53.6856
 606	1	1	-0.04863	-65.9593	57.7391	-54.6111
 607	1	2	-0.369731	-65.9144	54.8285	-53.534
 608	1	1	0.009912	-66.9272	56.9837	-53.9481
 609	1	3	0.064933	-68.9927	56.4268	-53.033
 610	1	4	0.489832	-68.1399	55.3261	-52.9478
 611	1	3	0.01974	-66.8719	55.582	-53.4669
 612	1	1	-0.15002	-64.7039	62.7643	-53.8498
 613	1	5	-0.109385	-67.9112	61.0442	-55.2339
 614	1	1	-0.027748	-66.6174	61.9199	-55.1847
 615	1	1	-0.058225	-65.882	61.9962	-53.9669
 616	1	1	-0.058862	-64.2578	63.4592	-54.9786
 617	1	1	-0.073426	-66.13	62.6527	-56.302
 618	1	1	-0.053817	-64.9504	63.3962	-56.1689
 619	1	5	0.313225	-68.985	61.7881	-54.3456
 620	1	5	0.370299	-68.4846	60.8545	-56.6906
 621	1	6	-0.09626	-70.2477	61.339	-54.5208
 622	1	6	-0.107747	-69.0159	63.1131	-54.6164
 623	1	6	-0.102822	-68.7149	61.6703	-53.0264
 624	1	6	-0.119294	-67.5479	60.3618	-57.5334
 625	1	6	-0.123874	-68.9564	62.0043	-57.2236
 626	1	6	-0.116977	-69.5053	59.9675	-56.7232
 627	1	3	0.454578	-64.1961	64.1756	-57.1855
 628	1	3	0.475587	-63.0425	64.2954	-55.1894
 629	1	4	-0.008375	-63.0657	64.6522	-56.5327