pySIMM System Object

2027 atoms
2242 bonds
3888 angles
5990 dihedrals
648 impropers

10 atom types
13 bond types
22 angle types
9 dihedral types
4 improper types

-198.154944 198.154944 xlo xhi
-198.154944 198.154944 ylo yhi
-198.154944 198.154944 zlo zhi

Masses

   1	12.01	# ca
   2	16.0	# o
   3	12.01	# c
   4	14.01	# n
   5	12.01	# c3
   6	19.0	# f
   7	12.01	# cp
   8	1.008	# ha
   9	1.008	# hn
  10	1.008	# hc

Pair Coeffs

   1	0.086	3.3996695084235347	# ca
   2	0.21	2.959921901149463	# o
   3	0.086	3.3996695084235347	# c
   4	0.17	3.249998523775958	# n
   5	0.1094	3.3996695084235347	# c3
   6	0.061	3.1181455134911875	# f
   7	0.086	3.3996695084235347	# cp
   8	0.015	2.59964245953351	# ha
   9	0.0157	1.069078461768407	# hn
  10	0.0157	2.649532787749369	# hc

Bond Coeffs

   1	356.9	1.3497	# c3,f
   2	450.2	1.4058	# ca,cp
   3	403.2	1.0129	# hn,n
   4	461.1	1.3984	# ca,ca
   5	427.6	1.3789	# c,n
   6	345.9	1.4906	# c,ca
   7	300.9	1.5375	# c3,c3
   8	330.6	1.0969	# c3,hc
   9	351.4	1.4854	# cp,cp
  10	345.8	1.086	# ca,ha
  11	321.0	1.5156	# c3,ca
  12	384.2	1.4121	# ca,n
  13	637.7	1.2183	# c,o

Angle Coeffs

   1	74.22	123.05	# n,c,o
   2	66.62	120.02	# ca,ca,ca
   3	68.72	122.6	# ca,c,o
   4	67.68	115.25	# ca,c,n
   5	48.33	117.55	# c,n,hn
   6	64.28	120.33	# c,ca,ca
   7	47.98	119.86	# cp,ca,ha
   8	39.4	107.58	# hc,c3,hc
   9	63.53	120.77	# c3,ca,ca
  10	70.89	107.36	# f,c3,f
  11	67.87	120.19	# ca,ca,n
  12	66.72	118.38	# ca,cp,ca
  13	46.8	110.47	# ca,c3,hc
  14	62.86	111.51	# c3,c3,c3
  15	66.11	109.24	# c3,c3,f
  16	63.15	112.07	# c3,c3,ca
  17	63.82	123.71	# c,n,ca
  18	66.26	120.69	# ca,ca,cp
  19	63.56	112.24	# ca,c3,ca
  20	63.74	127.08	# c,n,c
  21	48.18	119.88	# ca,ca,ha
  22	64.05	121.11	# ca,cp,cp

Dihedral Coeffs

   1	2	2.5	2	180	2.0	1	0	# hn,n,c,o
   2	1	3.625	2	180	# X,ca,cp,X
   3	1	1.0	2	180	# X,cp,cp,X
   4	1	3.625	2	180	# X,ca,ca,X
   5	1	1.0	2	180	# X,c,ca,X
   6	1	0.0	2	0	# X,c3,ca,X
   7	1	0.15555555555555556	3	0	# X,c3,c3,X
   8	1	2.5	2	180	# X,c,n,X
   9	1	0.45	2	180	# X,ca,n,X

Improper Coeffs

   1	10.5	-1	2	# c,X,X,o
   2	1.1	-1	2	# n,X,X,hn
   3	1.1	-1	2	# ca,ca,ca,c3
   4	1.1	-1	2	# ca,X,X,ha

Atoms

   1	1	1	-0.015291	20.2373	-78.4486	94.9039
   2	1	1	-0.066451	20.731	-79.3729	95.86
   3	1	1	-0.157747	21.4995	-78.8682	96.9486
   4	1	2	-0.394636	19.1897	-75.9901	93.3759
   5	1	1	0.035045	20.4503	-77.0839	95.1144
   6	1	1	-0.04863	21.6925	-77.4849	97.1474
   7	1	2	-0.369731	21.4134	-74.3822	97.1233
   8	1	1	0.009912	21.13	-76.6085	96.2173
   9	1	3	0.064933	19.8854	-75.9322	94.377
  10	1	4	0.489832	20.2104	-74.8159	95.1455
  11	1	3	0.01974	21.0018	-75.1276	96.2501
  12	1	1	-0.15002	18.8076	-80.9504	99.3049
  13	1	5	-0.109385	20.4364	-80.9004	95.7794
  14	1	1	-0.027748	20.0509	-81.3858	97.2068
  15	1	1	-0.058225	19.157	-80.5968	97.9869
  16	1	1	-0.058862	19.3472	-82.1283	99.8279
  17	1	1	-0.073426	20.5467	-82.5918	97.7673
  18	1	1	-0.053817	20.1803	-82.9292	99.0748
  19	1	5	0.313225	21.7414	-81.5726	95.2066
  20	1	5	0.370299	19.2098	-81.2669	94.8577
  21	1	6	-0.09626	21.5727	-82.8725	94.8751
  22	1	6	-0.107747	22.7642	-81.5123	96.0892
  23	1	6	-0.102822	22.1717	-80.9439	94.0889
  24	1	6	-0.119294	19.4629	-81.1032	93.54
  25	1	6	-0.123874	18.1215	-80.5189	95.151
  26	1	6	-0.116977	18.8324	-82.5555	95.0206
  27	1	3	0.454578	20.6388	-84.0551	99.9282
  28	1	3	0.475587	19.2518	-82.7069	101.194
  29	1	4	-0.008375	20.0717	-83.8269	101.175
  30	1	2	-0.468822	21.4476	-84.9122	99.618
  31	1	2	-0.475809	18.6806	-82.211	102.15
  32	1	1	-0.104577	20.4355	-84.5471	102.347
  33	1	1	0.090513	21.5809	-84.1334	103.059
  34	1	1	0.041176	19.6629	-85.638	102.814
  35	1	1	0.130327	20.0401	-86.3094	104.005
  36	1	7	-0.071967	21.1911	-85.8898	104.725
  37	1	1	-0.178735	21.9449	-84.8066	104.23
  38	1	5	-0.205934	22.432	-82.9578	102.592
  39	1	1	-0.139817	18.5106	-86.0648	102.116
  40	1	1	-0.146593	17.7396	-87.136	102.592
  41	1	1	-0.1545	18.1077	-87.793	103.773
  42	1	1	-0.172216	19.2507	-87.3803	104.475
  43	1	7	-0.107816	21.653	-86.5381	105.988
  44	1	1	-0.127649	22.2605	-87.8117	105.92
  45	1	1	-0.062495	22.7893	-88.4267	107.064
  46	1	1	0.148158	22.714	-87.7637	108.303
  47	1	1	-0.091615	22.1133	-86.4953	108.401
  48	1	1	0.137007	21.5778	-85.8793	107.246
  49	1	1	-0.133704	20.9699	-84.612	107.37
  50	1	1	-0.230679	22.0535	-85.8407	109.647
  51	1	1	-0.154845	20.9094	-83.9637	108.614
  52	1	1	-0.105714	21.4542	-84.5755	109.752
  53	1	5	-0.373818	23.4462	-89.7925	106.94
  54	1	8	0.152766	19.6493	-78.7474	94.0429
  55	1	8	0.155405	21.9122	-79.555	97.6843
  56	1	8	0.159938	22.2198	-77.1022	98.0187
  57	1	8	0.168438	18.1587	-80.3199	99.9103
  58	1	8	0.13763	18.7477	-79.6771	97.5767
  59	1	8	0.146749	21.2223	-83.2532	97.2351
  60	1	8	0.160749	22.8264	-84.4889	104.78
  61	1	10	0.074263	21.8429	-82.0327	102.562
  62	1	10	0.076992	22.8413	-83.1403	101.591
  63	1	10	0.075732	23.2822	-82.7816	103.263
  64	1	8	0.120118	18.1973	-85.5734	101.2
  65	1	8	0.145089	16.8536	-87.4526	102.047
  66	1	8	0.146654	17.5069	-88.619	104.148
  67	1	8	0.147988	19.5153	-87.8931	105.395
  68	1	8	0.166658	22.3365	-88.3127	104.959
  69	1	8	0.132671	20.5318	-84.1247	106.505
  70	1	8	0.178371	22.4712	-86.3113	110.534
  71	1	8	0.137951	20.4374	-82.9877	108.695
  72	1	8	0.128868	21.4074	-84.0704	110.714
  73	1	10	0.119422	22.694	-90.5908	106.959
  74	1	10	0.137967	24.1523	-89.976	107.76
  75	1	10	0.115874	24.006	-89.8807	106.001
  76	1	1	-0.015291	9.87957	-65.256	85.4519
  77	1	1	-0.066451	10.3025	-65.906	86.6393
  78	1	1	-0.157747	10.7901	-67.2414	86.5385
  79	1	2	-0.394636	9.42069	-64.2996	82.5584
  80	1	1	0.035045	10.0147	-65.9282	84.2333
  81	1	1	-0.04863	10.9169	-67.9003	85.2983
  82	1	2	-0.369731	11.1852	-68.5849	82.2706
  83	1	1	0.009912	10.5327	-67.2053	84.1506
  84	1	3	0.064933	9.80908	-65.4166	82.8598
  85	1	4	0.489832	10.276	-66.4278	82.0225
  86	1	3	0.01974	10.6945	-67.5612	82.7163
  87	1	1	-0.15002	14.1272	-65.5908	88.4241
  88	1	5	-0.109385	10.2891	-65.2116	88.0325
  89	1	1	-0.027748	11.6665	-65.509	88.692
  90	1	1	-0.058225	12.8485	-65.2646	87.9354
  91	1	1	-0.058862	14.2097	-66.1713	89.6911
  92	1	1	-0.073426	11.8016	-66.0699	89.9893
  93	1	1	-0.053817	13.0809	-66.4013	90.4506
  94	1	5	0.313225	9.05503	-65.803	88.8166
  95	1	5	0.370299	10.153	-63.6384	87.9753
  96	1	6	-0.09626	9.19168	-67.1258	89.0627
  97	1	6	-0.107747	7.91111	-65.6798	88.1061
  98	1	6	-0.102822	8.84419	-65.1959	90.0061
  99	1	6	-0.119294	11.0376	-63.0766	87.1205
 100	1	6	-0.123874	10.3949	-63.0778	89.1819
 101	1	6	-0.116977	8.92658	-63.2195	87.5916
 102	1	3	0.454578	13.4839	-67.1625	91.662
 103	1	3	0.475587	15.3745	-66.7694	90.389
 104	1	4	-0.008375	14.8468	-67.3828	91.5164
 105	1	2	-0.468822	12.7335	-67.6373	92.4965
 106	1	2	-0.475809	16.5087	-66.8536	89.9502
 107	1	1	-0.104577	15.5851	-68.3282	92.2799
 108	1	1	0.090513	15.6639	-69.6526	91.7999
 109	1	1	0.041176	16.2843	-67.9523	93.4523
 110	1	1	0.130327	17.1055	-68.8986	94.1155
 111	1	7	-0.071967	17.2282	-70.2153	93.5994
 112	1	1	-0.178735	16.4819	-70.5739	92.4604
 113	1	5	-0.205934	14.8971	-70.1084	90.5627
 114	1	1	-0.139817	16.1808	-66.6427	93.9719
 115	1	1	-0.146593	16.8707	-66.2809	95.139
 116	1	1	-0.1545	17.6796	-67.2186	95.7954
 117	1	1	-0.172216	17.7995	-68.5195	95.2826
 118	1	7	-0.107816	18.1089	-71.2668	94.1814
 119	1	1	-0.127649	17.4963	-72.3095	94.9
 120	1	1	-0.062495	18.2147	-73.4437	95.2911
 121	1	1	0.148158	19.5795	-73.5614	94.9348
 122	1	1	-0.091615	20.2392	-72.4972	94.2708
 123	1	1	0.137007	19.4969	-71.3509	93.8898
 124	1	1	-0.133704	20.1392	-70.3167	93.1773
 125	1	1	-0.230679	21.6153	-72.5713	93.9467
 126	1	1	-0.154845	21.5054	-70.3967	92.8708
 127	1	1	-0.105714	22.2436	-71.5213	93.2596
 128	1	5	-0.373818	17.4626	-74.5497	96.0298
 129	1	8	0.152766	9.50026	-64.2398	85.4394
 130	1	8	0.155405	11.113	-67.7698	87.4326
 131	1	8	0.159938	11.3385	-68.9006	85.2248
 132	1	8	0.168438	15.0211	-65.4462	87.8197
 133	1	8	0.13763	12.776	-64.8549	86.9316
 134	1	8	0.146749	10.9515	-66.3043	90.6214
 135	1	8	0.160749	16.5687	-71.5857	92.0738
 136	1	10	0.074263	15.0109	-71.1857	90.3901
 137	1	10	0.076992	15.256	-69.5944	89.6627
 138	1	10	0.075732	13.823	-69.9122	90.6697
 139	1	8	0.120118	15.5564	-65.898	93.4893
 140	1	8	0.145089	16.7745	-65.2732	95.5358
 141	1	8	0.146654	18.2124	-66.9387	96.7011
 142	1	8	0.147988	18.429	-69.237	95.8008
 143	1	8	0.166658	16.4306	-72.2489	95.1063
 144	1	8	0.132671	19.5842	-69.4387	92.8612
 145	1	8	0.178371	22.2221	-73.4259	94.2334
 146	1	8	0.137951	21.9893	-69.5869	92.3306
 147	1	8	0.128868	23.3037	-71.5799	93.0234
 148	1	10	0.119422	16.5075	-74.1869	96.4309
 149	1	10	0.137967	18.0345	-74.9346	96.8841
 150	1	10	0.115874	17.2321	-75.3884	95.359
 151	1	1	-0.015291	12.1341	-57.1063	66.5426
 152	1	1	-0.066451	12.0946	-58.1863	67.4639
 153	1	1	-0.157747	11.5352	-59.4231	67.0301
 154	1	2	-0.394636	12.2895	-55.3395	64.0049
 155	1	1	0.035045	11.6117	-57.2927	65.259
 156	1	1	-0.04863	10.9896	-59.5817	65.7429
 157	1	2	-0.369731	10.3614	-59.3672	62.7364
 158	1	1	0.009912	11.0447	-58.4917	64.8756
 159	1	3	0.064933	11.7512	-56.433	64.0556
 160	1	4	0.489832	11.2931	-57.2218	63.0035
 161	1	3	0.01974	10.7829	-58.4488	63.4204
 162	1	1	-0.15002	9.85409	-59.8548	70.7155
 163	1	5	-0.109385	12.7781	-58.0972	68.8589
 164	1	1	-0.027748	12.0234	-59.036	69.8454
 165	1	1	-0.058225	10.5998	-58.9995	69.881
 166	1	1	-0.058862	10.558	-60.7356	71.5407
 167	1	1	-0.073426	12.6952	-59.9184	70.7321
 168	1	1	-0.053817	11.9365	-60.7508	71.5603
 169	1	5	0.313225	12.7134	-56.6541	69.4895
 170	1	5	0.370299	14.2822	-58.5109	68.629
 171	1	6	-0.09626	13.0049	-56.6772	70.8103
 172	1	6	-0.107747	11.4765	-56.1202	69.3762
 173	1	6	-0.102822	13.5743	-55.7764	68.9282
 174	1	6	-0.119294	15.0638	-58.2908	69.71
 175	1	6	-0.123874	14.8468	-57.8278	67.607
 176	1	6	-0.116977	14.3887	-59.8197	68.3036
 177	1	3	0.454578	12.3783	-61.7109	72.6036
 178	1	3	0.475587	10.0683	-61.7038	72.5545
 179	1	4	-0.008375	11.2102	-62.2137	73.1589
 180	1	2	-0.468822	13.5281	-61.933	72.9403
 181	1	2	-0.475809	8.90307	-61.9231	72.8372
 182	1	1	-0.104577	11.1761	-63.0266	74.3263
 183	1	1	0.090513	10.8623	-62.4114	75.5564
 184	1	1	0.041176	11.4418	-64.4185	74.2739
 185	1	1	0.130327	11.3532	-65.198	75.4556
 186	1	7	-0.071967	10.9947	-64.5837	76.6845
 187	1	1	-0.178735	10.7719	-63.1933	76.7109
 188	1	5	-0.205934	10.6159	-60.9106	75.6724
 189	1	1	-0.139817	11.8006	-65.0479	73.0602
 190	1	1	-0.146593	12.076	-66.4235	73.0201
 191	1	1	-0.1545	11.9896	-67.1907	74.1894
 192	1	1	-0.172216	11.6293	-66.5799	75.4001
 193	1	7	-0.107816	10.8663	-65.3021	77.9846
 194	1	1	-0.127649	11.8213	-65.0103	78.9766
 195	1	1	-0.062495	11.664	-65.4523	80.2934
 196	1	1	0.148158	10.5143	-66.1974	80.643
 197	1	1	-0.091615	9.56846	-66.5625	79.653
 198	1	1	0.137007	9.74269	-66.104	78.3225
 199	1	1	-0.133704	8.7628	-66.4074	77.3541
 200	1	1	-0.230679	8.42953	-67.3384	79.9764
 201	1	1	-0.154845	7.64232	-67.1837	77.6844
 202	1	1	-0.105714	7.47896	-67.6532	78.9935
 203	1	5	-0.373818	12.7117	-65.0376	81.3251
 204	1	8	0.152766	12.629	-56.1674	66.7657
 205	1	8	0.155405	11.5584	-60.2959	67.678
 206	1	8	0.159938	10.6073	-60.541	65.4002
 207	1	8	0.168438	8.76607	-59.8264	70.7329
 208	1	8	0.13763	10.0606	-58.3102	69.2357
 209	1	8	0.146749	13.7759	-59.9763	70.8038
 210	1	8	0.160749	10.5099	-62.7225	77.6545
 211	1	10	0.074263	11.4052	-60.3347	75.1739
 212	1	10	0.076992	10.5956	-60.5846	76.7195
 213	1	10	0.075732	9.6522	-60.6352	75.2265
 214	1	8	0.120118	11.8852	-64.4801	72.1398
 215	1	8	0.145089	12.3628	-66.8931	72.0823
 216	1	8	0.146654	12.2057	-68.2563	74.1597
 217	1	8	0.147988	11.5714	-67.1854	76.3001
 218	1	8	0.166658	12.6685	-64.3799	78.7183
 219	1	8	0.132671	8.86392	-66.0451	76.3357
 220	1	8	0.178371	8.2667	-67.7185	80.9809
 221	1	8	0.137951	6.89982	-67.4166	76.9253
 222	1	8	0.128868	6.60942	-68.2551	79.2475
 223	1	10	0.119422	12.3226	-64.2586	81.9948
 224	1	10	0.137967	13.6112	-64.6296	80.8461
 225	1	10	0.115874	13.0393	-65.8892	81.9358
 226	1	1	-0.015291	16.6691	-58.5641	45.6921
 227	1	1	-0.066451	16.1854	-59.0828	46.9201
 228	1	1	-0.157747	15.0199	-59.9015	46.8899
 229	1	2	-0.394636	17.1702	-57.6837	42.788
 230	1	1	0.035045	15.9888	-58.8765	44.5141
 231	1	1	-0.04863	14.3633	-60.2245	45.6818
 232	1	2	-0.369731	13.495	-60.5257	42.6875
 233	1	1	0.009912	14.8802	-59.6968	44.4961
 234	1	3	0.064933	16.284	-58.4495	43.131
 235	1	4	0.489832	15.3275	-59.0837	42.3411
 236	1	3	0.01974	14.4357	-59.8581	43.0842
 237	1	1	-0.15002	14.0022	-56.754	49.8022
 238	1	5	-0.109385	16.9026	-58.8286	48.2782
 239	1	1	-0.027748	15.8441	-58.3311	49.2995
 240	1	1	-0.058225	14.9076	-57.3378	48.8939
 241	1	1	-0.058862	14.0439	-57.1835	51.1314
 242	1	1	-0.073426	15.8412	-58.7471	50.6559
 243	1	1	-0.053817	14.9289	-58.16	51.5391
 244	1	5	0.313225	18.0033	-57.6979	48.2214
 245	1	5	0.370299	17.5923	-60.1919	48.6787
 246	1	6	-0.09626	17.5233	-56.5488	47.6931
 247	1	6	-0.107747	19.088	-58.0502	47.4952
 248	1	6	-0.102822	18.4528	-57.3725	49.4551
 249	1	6	-0.119294	18.2924	-60.7114	47.6443
 250	1	6	-0.123874	16.6884	-61.1327	49.0338
 251	1	6	-0.116977	18.4616	-60.0774	49.7077
 252	1	3	0.454578	14.7553	-58.3639	52.9995
 253	1	3	0.475587	13.2833	-56.7174	52.3211
 254	1	4	-0.008375	13.7699	-57.4653	53.3843
 255	1	2	-0.468822	15.3836	-59.1381	53.7003
 256	1	2	-0.475809	12.4399	-55.8379	52.3429
 257	1	1	-0.104577	13.3299	-57.3078	54.7288
 258	1	1	0.090513	14.1129	-56.5462	55.6217
 259	1	1	0.041176	12.1421	-57.9342	55.1797
 260	1	1	0.130327	11.7399	-57.7921	56.531
 261	1	7	-0.071967	12.515	-57.004	57.4267
 262	1	1	-0.178735	13.7002	-56.4053	56.9528
 263	1	5	-0.205934	15.4179	-55.8925	55.1832
 264	1	1	-0.139817	11.3615	-58.7268	54.3061
 265	1	1	-0.146593	10.2057	-59.3761	54.7638
 266	1	1	-0.1545	9.81846	-59.251	56.103
 267	1	1	-0.172216	10.5839	-58.4687	56.9798
 268	1	7	-0.107816	12.1983	-56.8901	58.8813
 269	1	1	-0.127649	13.0784	-57.5203	59.7813
 270	1	1	-0.062495	12.807	-57.5709	61.1511
 271	1	1	0.148158	11.6185	-56.985	61.645
 272	1	1	-0.091615	10.7517	-56.2781	60.7771
 273	1	1	0.137007	11.0496	-56.2257	59.3923
 274	1	1	-0.133704	10.1859	-55.523	58.5271
 275	1	1	-0.230679	9.5885	-55.6355	61.2637
 276	1	1	-0.154845	9.03979	-54.8825	59.0208
 277	1	1	-0.105714	8.74123	-54.9394	60.3881
 278	1	5	-0.373818	13.7914	-58.3097	62.0585
 279	1	8	0.152766	17.5524	-57.9396	45.6169
 280	1	8	0.155405	14.6231	-60.3109	47.816
 281	1	8	0.159938	13.4854	-60.8669	45.664
 282	1	8	0.168438	13.3113	-55.9718	49.4932
 283	1	8	0.13763	14.9044	-56.9831	47.8663
 284	1	8	0.146749	16.542	-59.4765	51.0484
 285	1	8	0.160749	14.3101	-55.8305	57.644
 286	1	10	0.074263	15.2793	-55.2913	54.2764
 287	1	10	0.076992	16.1839	-56.6516	54.9793
 288	1	10	0.075732	15.8174	-55.2256	55.9569
 289	1	8	0.120118	11.6403	-58.8569	53.2662
 290	1	8	0.145089	9.61644	-59.9844	54.082
 291	1	8	0.146654	8.92946	-59.7627	56.4649
 292	1	8	0.147988	10.2714	-58.3995	58.0166
 293	1	8	0.166658	13.9619	-58.0189	59.3904
 294	1	8	0.132671	10.4031	-55.4642	57.4649
 295	1	8	0.178371	9.33301	-55.6461	62.3197
 296	1	8	0.137951	8.38574	-54.3408	58.3422
 297	1	8	0.128868	7.85456	-54.438	60.7693
 298	1	10	0.119422	14.7102	-58.5815	61.5235
 299	1	10	0.137967	13.3594	-59.2428	62.4448
 300	1	10	0.115874	14.0986	-57.6895	62.9113
 301	1	1	-0.015291	19.3766	-49.3555	27.7477
 302	1	1	-0.066451	18.7456	-50.4554	28.3846
 303	1	1	-0.157747	17.4898	-50.8941	27.8727
 304	1	2	-0.394636	20.3321	-47.1403	25.8308
 305	1	1	0.035045	18.7297	-48.7261	26.6825
 306	1	1	-0.04863	16.8356	-50.2176	26.8216
 307	1	2	-0.369731	16.0727	-48.3691	24.4343
 308	1	1	0.009912	17.4823	-49.1209	26.2483
 309	1	3	0.064933	19.2337	-47.6694	25.7761
 310	1	4	0.489832	18.2249	-47.4897	24.8303
 311	1	3	0.01974	17.1097	-48.2946	25.0719
 312	1	1	-0.15002	16.3179	-51.6018	31.7943
 313	1	5	-0.109385	19.4555	-51.2455	29.5242
 314	1	1	-0.027748	18.3886	-51.8867	30.4628
 315	1	1	-0.058225	17.2791	-51.1033	30.8924
 316	1	1	-0.058862	16.4944	-52.8976	32.2873
 317	1	1	-0.073426	18.5296	-53.1952	30.9974
 318	1	1	-0.053817	17.5717	-53.6673	31.9008
 319	1	5	0.313225	20.3332	-50.319	30.4528
 320	1	5	0.370299	20.376	-52.3064	28.8092
 321	1	6	-0.09626	21.4942	-49.9199	29.8877
 322	1	6	-0.107747	20.674	-50.9447	31.6029
 323	1	6	-0.102822	19.6609	-49.2011	30.8096
 324	1	6	-0.119294	19.6369	-53.2687	28.2122
 325	1	6	-0.123874	21.2441	-52.9134	29.6493
 326	1	6	-0.116977	21.1288	-51.7506	27.8322
 327	1	3	0.454578	17.5676	-54.9143	32.7086
 328	1	3	0.475587	15.7594	-53.6277	33.3535
 329	1	4	-0.008375	16.4956	-54.7827	33.5802
 330	1	2	-0.468822	18.4193	-55.7856	32.6952
 331	1	2	-0.475809	14.7931	-53.2182	33.9734
 332	1	1	-0.104577	16.3153	-55.6036	34.729
 333	1	1	0.090513	15.4098	-56.6847	34.6925
 334	1	1	0.041176	17.0202	-55.3016	35.9208
 335	1	1	0.130327	16.8029	-56.081	37.0813
 336	1	7	-0.071967	15.8853	-57.1661	37.0505
 337	1	1	-0.178735	15.1992	-57.4501	35.851
 338	1	5	-0.205934	14.6425	-57.0252	33.4219
 339	1	1	-0.139817	17.9313	-54.2188	35.9799
 340	1	1	-0.146593	18.6127	-53.9135	37.1667
 341	1	1	-0.1545	18.3911	-54.6802	38.3157
 342	1	1	-0.172216	17.4907	-55.7537	38.2727
 343	1	7	-0.107816	15.5953	-57.9471	38.2873
 344	1	1	-0.127649	14.4978	-57.5452	39.0733
 345	1	1	-0.062495	14.3402	-57.9974	40.39
 346	1	1	0.148158	15.2935	-58.8894	40.9344
 347	1	1	-0.091615	16.346	-59.392	40.127
 348	1	1	0.137007	16.5033	-58.9063	38.8068
 349	1	1	-0.133704	17.6069	-59.3319	38.0381
 350	1	1	-0.230679	17.2875	-60.319	40.6384
 351	1	1	-0.154845	18.5343	-60.2471	38.5574
 352	1	1	-0.105714	18.3704	-60.745	39.8555
 353	1	5	-0.373818	13.1957	-57.4242	41.2225
 354	1	8	0.152766	20.3688	-49.0119	28.0173
 355	1	8	0.155405	17.0129	-51.7826	28.2796
 356	1	8	0.159938	15.8796	-50.5603	26.4315
 357	1	8	0.168438	15.4903	-50.9848	32.1397
 358	1	8	0.13763	17.1691	-50.0819	30.5363
 359	1	8	0.146749	19.377	-53.8345	30.7758
 360	1	8	0.160749	14.49	-58.2727	35.8333
 361	1	10	0.074263	15.3279	-57.1924	32.5816
 362	1	10	0.076992	13.957	-56.2129	33.1495
 363	1	10	0.075732	14.044	-57.9366	33.5407
 364	1	8	0.120118	18.1283	-53.5978	35.1134
 365	1	8	0.145089	19.3104	-53.0801	37.1956
 366	1	8	0.146654	18.9144	-54.4447	39.2396
 367	1	8	0.147988	17.3352	-56.3281	39.1809
 368	1	8	0.166658	13.8208	-56.7926	38.6767
 369	1	8	0.132671	17.7532	-58.953	37.031
 370	1	8	0.178371	17.2021	-60.7226	41.6434
 371	1	8	0.137951	19.3814	-60.5648	37.9547
 372	1	8	0.128868	19.0907	-61.4526	40.2596
 373	1	10	0.119422	12.5126	-58.2185	41.5533
 374	1	10	0.137967	12.5924	-56.7092	40.648
 375	1	10	0.115874	13.5622	-56.8925	42.1096
 376	1	1	-0.015291	21.9311	-33.264	15.2511
 377	1	1	-0.066451	21.8378	-34.4227	16.0695
 378	1	1	-0.157747	20.6166	-34.6681	16.7603
 379	1	2	-0.394636	21.4172	-30.6866	13.5677
 380	1	1	0.035045	20.8031	-32.4426	15.1172
 381	1	1	-0.04863	19.4946	-33.8349	16.6071
 382	1	2	-0.369731	17.4361	-31.7092	15.7345
 383	1	1	0.009912	19.6188	-32.732	15.7652
 384	1	3	0.064933	20.5932	-31.2231	14.2897
 385	1	4	0.489832	19.2539	-30.8805	14.4866
 386	1	3	0.01974	18.6014	-31.7331	15.3738
 387	1	1	-0.15002	20.859	-38.4563	15.1345
 388	1	5	-0.109385	23.0117	-35.4238	16.2659
 389	1	1	-0.027748	22.3956	-36.8558	16.2447
 390	1	1	-0.058225	21.5371	-37.2204	15.1669
 391	1	1	-0.058862	21.0453	-39.3315	16.208
 392	1	1	-0.073426	22.5859	-37.7933	17.2925
 393	1	1	-0.053817	21.8864	-39.0039	17.2505
 394	1	5	0.313225	23.6936	-35.038	17.6354
 395	1	5	0.370299	24.0961	-35.3807	15.1199
 396	1	6	-0.09626	22.8595	-35.2102	18.6866
 397	1	6	-0.107747	24.0496	-33.7337	17.6674
 398	1	6	-0.102822	24.8121	-35.7552	17.8863
 399	1	6	-0.119294	24.9264	-36.4461	15.1887
 400	1	6	-0.123874	24.8773	-34.2784	15.157
 401	1	6	-0.116977	23.5369	-35.4135	13.8895
 402	1	3	0.454578	21.7854	-40.0659	18.2794
 403	1	3	0.475587	20.3837	-40.6264	16.5297
 404	1	4	-0.008375	20.8531	-40.9709	17.7908
 405	1	2	-0.468822	22.3215	-40.0565	19.3735
 406	1	2	-0.475809	19.529	-41.1866	15.8655
 407	1	1	-0.104577	20.361	-42.0504	18.579
 408	1	1	0.090513	19.1389	-41.8923	19.2663
 409	1	1	0.041176	21.1553	-43.2014	18.7999
 410	1	1	0.130327	20.7487	-44.1687	19.7538
 411	1	7	-0.071967	19.505	-44.0217	20.4364
 412	1	1	-0.178735	18.7212	-42.8799	20.1675
 413	1	5	-0.205934	18.2774	-40.6463	19.0937
 414	1	1	-0.139817	22.3731	-43.3816	18.1032
 415	1	1	-0.146593	23.1912	-44.4907	18.3604
 416	1	1	-0.1545	22.8184	-45.4187	19.3391
 417	1	1	-0.172216	21.6139	-45.25	20.0371
 418	1	7	-0.107816	19.0316	-44.9624	21.5027
 419	1	1	-0.127649	18.8184	-44.4345	22.7929
 420	1	1	-0.062495	18.4775	-45.2517	23.8775
 421	1	1	0.148158	18.387	-46.6513	23.6917
 422	1	1	-0.091615	18.5437	-47.207	22.3925
 423	1	1	0.137007	18.8236	-46.3536	21.295
 424	1	1	-0.133704	18.9201	-46.9025	19.998
 425	1	1	-0.230679	18.4444	-48.6031	22.1639
 426	1	1	-0.154845	18.7962	-48.282	19.7858
 427	1	1	-0.105714	18.5705	-49.1333	20.8721
 428	1	5	-0.373818	18.2743	-44.5891	25.2389
 429	1	8	0.152766	22.8356	-32.9981	14.7136
 430	1	8	0.155405	20.5238	-35.5277	17.4199
 431	1	8	0.159938	18.5545	-34.0417	17.114
 432	1	8	0.168438	20.1758	-38.7076	14.3253
 433	1	8	0.13763	21.3539	-36.5163	14.3597
 434	1	8	0.146749	23.2119	-37.5957	18.1564
 435	1	8	0.160749	17.7822	-42.753	20.6985
 436	1	10	0.074263	17.9092	-40.5624	18.0638
 437	1	10	0.076992	18.8428	-39.7374	19.3336
 438	1	10	0.075732	17.3997	-40.6653	19.7512
 439	1	8	0.120118	22.7001	-42.6698	17.3528
 440	1	8	0.145089	24.1235	-44.6181	17.8154
 441	1	8	0.146654	23.4618	-46.2672	19.561
 442	1	8	0.147988	21.3626	-45.9728	20.8055
 443	1	8	0.166658	18.9656	-43.3697	22.9546
 444	1	8	0.132671	19.0977	-46.2598	19.1416
 445	1	8	0.178371	18.2496	-49.3049	22.968
 446	1	8	0.137951	18.8813	-48.6889	18.7813
 447	1	8	0.128868	18.4785	-50.2049	20.7111
 448	1	10	0.119422	17.4266	-45.02	25.7866
 449	1	10	0.137967	18.0689	-43.5155	25.1375
 450	1	10	0.115874	19.1728	-44.6867	25.8634
 451	1	1	-0.015291	5.41237	-19.9443	10.003
 452	1	1	-0.066451	6.72756	-20.3378	10.3738
 453	1	1	-0.157747	7.81999	-19.5399	9.93134
 454	1	2	-0.394636	2.85068	-18.4322	9.12348
 455	1	1	0.035045	5.23991	-18.7834	9.24014
 456	1	1	-0.04863	7.62524	-18.3726	9.16711
 457	1	2	-0.369731	6.47836	-15.8133	7.87303
 458	1	1	0.009912	6.31484	-18.0114	8.85029
 459	1	3	0.064933	3.98843	-18.0607	8.88692
 460	1	4	0.489832	4.41377	-16.8395	8.36131
 461	1	3	0.01974	5.80262	-16.7535	8.25839
 462	1	1	-0.15002	9.55866	-23.3454	9.09972
 463	1	5	-0.109385	7.00159	-21.4996	11.3739
 464	1	1	-0.027748	8.27979	-22.2694	10.9288
 465	1	1	-0.058225	8.45012	-22.6009	9.5547
 466	1	1	-0.058862	10.498	-23.7676	10.0464
 467	1	1	-0.073426	9.25415	-22.7275	11.8547
 468	1	1	-0.053817	10.3446	-23.4657	11.383
 469	1	5	0.313225	5.84773	-22.5718	11.4246
 470	1	5	0.370299	7.14342	-20.8161	12.7897
 471	1	6	-0.09626	6.23433	-23.6894	12.0817
 472	1	6	-0.107747	5.48419	-22.9658	10.1833
 473	1	6	-0.102822	4.73174	-22.1323	12.0483
 474	1	6	-0.119294	6.13376	-19.9478	13.0299
 475	1	6	-0.123874	8.28551	-20.0971	12.8834
 476	1	6	-0.116977	7.13693	-21.6973	13.8151
 477	1	3	0.454578	11.4668	-24.0849	12.1329
 478	1	3	0.475587	11.7292	-24.5914	9.8952
 479	1	4	-0.008375	12.239	-24.7345	11.1798
 480	1	2	-0.468822	11.6415	-24.0385	13.3378
 481	1	2	-0.475809	12.1602	-25.0653	8.85821
 482	1	1	-0.104577	13.3972	-25.5015	11.501
 483	1	1	0.090513	13.2667	-26.8951	11.6719
 484	1	1	0.041176	14.6596	-24.8818	11.6799
 485	1	1	0.130327	15.7918	-25.6642	12.0258
 486	1	7	-0.071967	15.6598	-27.0672	12.2105
 487	1	1	-0.178735	14.3879	-27.653	12.032
 488	1	5	-0.205934	11.927	-27.6002	11.4959
 489	1	1	-0.139817	14.8101	-23.4851	11.5205
 490	1	1	-0.146593	16.0616	-22.874	11.6877
 491	1	1	-0.1545	17.1826	-23.65	12.0073
 492	1	1	-0.172216	17.0472	-25.0364	12.1734
 493	1	7	-0.107816	16.7745	-27.957	12.6669
 494	1	1	-0.127649	17.3071	-27.762	13.959
 495	1	1	-0.062495	18.2027	-28.6768	14.5294
 496	1	1	0.148158	18.5613	-29.8399	13.8096
 497	1	1	-0.091615	18.0889	-30.0329	12.486
 498	1	1	0.137007	17.2046	-29.0837	11.9147
 499	1	1	-0.133704	16.7366	-29.2817	10.5978
 500	1	1	-0.230679	18.4554	-31.1757	11.732
 501	1	1	-0.154845	17.1185	-30.4094	9.85783
 502	1	1	-0.105714	17.9739	-31.3588	10.4277
 503	1	5	-0.373818	18.6959	-28.4214	15.9518
 504	1	8	0.152766	4.52559	-20.4635	10.3487
 505	1	8	0.155405	8.83431	-19.7896	10.2344
 506	1	8	0.159938	8.45745	-17.7302	8.8868
 507	1	8	0.168438	9.67572	-23.6039	8.04891
 508	1	8	0.13763	7.70419	-22.288	8.8281
 509	1	8	0.146749	9.18262	-22.5485	12.9221
 510	1	8	0.160749	14.2774	-28.7218	12.1953
 511	1	10	0.074263	12.0087	-28.6787	11.6793
 512	1	10	0.076992	11.5471	-27.4737	10.4745
 513	1	10	0.075732	11.1783	-27.2063	12.1942
 514	1	8	0.120118	13.964	-22.856	11.2662
 515	1	8	0.145089	16.1623	-21.7986	11.5621
 516	1	8	0.146654	18.156	-23.1793	12.1243
 517	1	8	0.147988	17.9299	-25.6235	12.4069
 518	1	8	0.166658	16.9625	-26.9133	14.5453
 519	1	8	0.132671	16.0809	-28.553	10.1313
 520	1	8	0.178371	19.1311	-31.9289	12.1259
 521	1	8	0.137951	16.7521	-30.5445	8.84337
 522	1	8	0.128868	18.2713	-32.2332	9.85354
 523	1	10	0.119422	18.496	-27.39	16.2696
 524	1	10	0.137967	19.7797	-28.5734	16.0418
 525	1	10	0.115874	18.1928	-29.0825	16.6705
 526	1	1	-0.015291	-1.07529	-1.59687	7.08618
 527	1	1	-0.066451	-0.113741	-1.27416	8.07981
 528	1	1	-0.157747	-0.549861	-0.570177	9.23848
 529	1	2	-0.394636	-3.59306	-1.94559	5.30159
 530	1	1	0.035045	-2.40711	-1.21762	7.27863
 531	1	1	-0.04863	-1.89724	-0.187961	9.40764
 532	1	2	-0.369731	-4.92172	0.452754	9.05029
 533	1	1	0.009912	-2.80565	-0.521052	8.4007
 534	1	3	0.064933	-3.57953	-1.37855	6.38193
 535	1	4	0.489832	-4.62484	-0.725873	7.03385
 536	1	3	0.01974	-4.2453	-0.186955	8.26235
 537	1	1	-0.15002	2.33287	-4.38273	5.23303
 538	1	5	-0.109385	1.38566	-1.58155	7.81039
 539	1	1	-0.027748	1.47877	-2.94479	7.05861
 540	1	1	-0.058225	2.19114	-3.11697	5.83524
 541	1	1	-0.058862	1.76263	-5.48495	5.87422
 542	1	1	-0.073426	0.887333	-4.09003	7.654
 543	1	1	-0.053817	1.05908	-5.3418	7.05127
 544	1	5	0.313225	2.25227	-1.73706	9.12468
 545	1	5	0.370299	1.93636	-0.359027	6.9798
 546	1	6	-0.09626	1.64758	-2.5177	10.0478
 547	1	6	-0.107747	2.53061	-0.566239	9.74034
 548	1	6	-0.102822	3.44651	-2.31495	8.85908
 549	1	6	-0.119294	1.69255	0.822354	7.59182
 550	1	6	-0.123874	1.34106	-0.268434	5.76855
 551	1	6	-0.116977	3.27209	-0.420622	6.77589
 552	1	3	0.454578	0.740853	-6.69935	7.56922
 553	1	3	0.475587	1.91347	-6.93553	5.59106
 554	1	4	-0.008375	1.34277	-7.58156	6.68
 555	1	2	-0.468822	0.217133	-6.9565	8.63919
 556	1	2	-0.475809	2.5588	-7.42721	4.68131
 557	1	1	-0.104577	1.59521	-8.95341	6.97553
 558	1	1	0.090513	0.675113	-9.94783	6.58289
 559	1	1	0.041176	2.80454	-9.31819	7.61866
 560	1	1	0.130327	3.0951	-10.6843	7.85057
 561	1	7	-0.071967	2.16295	-11.6912	7.47029
 562	1	1	-0.178735	0.965119	-11.3002	6.8329
 563	1	5	-0.205934	-0.62779	-9.57702	5.88779
 564	1	1	-0.139817	3.74016	-8.33593	8.02681
 565	1	1	-0.146593	4.94766	-8.69889	8.63957
 566	1	1	-0.1545	5.24596	-10.0495	8.84536
 567	1	1	-0.172216	4.32846	-11.032	8.44922
 568	1	7	-0.107816	2.44794	-13.1395	7.72035
 569	1	1	-0.127649	2.82308	-13.9552	6.6334
 570	1	1	-0.062495	3.37378	-15.2306	6.83245
 571	1	1	0.148158	3.57965	-15.7039	8.15036
 572	1	1	-0.091615	3.12059	-14.9414	9.25788
 573	1	1	0.137007	2.54028	-13.6681	9.03565
 574	1	1	-0.133704	2.11457	-12.896	10.1381
 575	1	1	-0.230679	3.27686	-15.3971	10.5918
 576	1	1	-0.154845	2.25857	-13.3693	11.4491
 577	1	1	-0.105714	2.84268	-14.6198	11.6749
 578	1	5	-0.373818	3.8283	-16.0229	5.60974
 579	1	8	0.152766	-0.798855	-2.09512	6.16045
 580	1	8	0.155405	0.153944	-0.273492	10.009
 581	1	8	0.159938	-2.2236	0.376783	10.2784
 582	1	8	0.168438	2.92094	-4.51448	4.3265
 583	1	8	0.13763	2.68257	-2.28597	5.343
 584	1	8	0.146749	0.353872	-4.02773	8.59918
 585	1	8	0.160749	0.255034	-12.0667	6.53606
 586	1	10	0.074263	-1.23578	-8.91972	6.52222
 587	1	10	0.076992	-1.23285	-10.4623	5.65736
 588	1	10	0.075732	-0.433492	-9.05548	4.94228
 589	1	8	0.120118	3.55153	-7.27879	7.8783
 590	1	8	0.145089	5.65554	-7.93248	8.94547
 591	1	8	0.146654	6.18662	-10.3379	9.30895
 592	1	8	0.147988	4.59462	-12.0714	8.61011
 593	1	8	0.166658	2.76281	-13.5464	5.62774
 594	1	8	0.132671	1.66486	-11.9198	9.98483
 595	1	8	0.178371	3.71455	-16.3623	10.8229
 596	1	8	0.137951	1.92258	-12.7641	12.2873
 597	1	8	0.128868	2.95755	-14.9888	12.6915
 598	1	10	0.119422	4.91517	-15.9455	5.47048
 599	1	10	0.137967	3.35675	-15.6505	4.69089
 600	1	10	0.115874	3.56476	-17.0854	5.69034
 601	1	1	-0.015291	-21.1854	1.5397	-0.695525
 602	1	1	-0.066451	-20.2564	1.51064	0.379392
 603	1	1	-0.157747	-20.2113	2.63189	1.25599
 604	1	2	-0.394636	-23.3567	2.20243	-2.80496
 605	1	1	0.035045	-21.9933	2.6684	-0.865356
 606	1	1	-0.04863	-21.0349	3.76248	1.06483
 607	1	2	-0.369731	-23.1129	5.85998	0.0446938
 608	1	1	0.009912	-21.9207	3.7528	-0.0156944
 609	1	3	0.064933	-23.033	2.93989	-1.88825
 610	1	4	0.489832	-23.5298	4.20389	-1.57576
 611	1	3	0.01974	-22.909	4.77013	-0.462989
 612	1	1	-0.15002	-15.9935	2.2173	0.522017
 613	1	5	-0.109385	-19.3549	0.273063	0.675508
 614	1	1	-0.027748	-17.9208	0.752887	1.04901
 615	1	1	-0.058225	-17.3258	1.81046	0.304119
 616	1	1	-0.058862	-15.2508	1.53791	1.49255
 617	1	1	-0.073426	-17.1297	0.0966571	2.03059
 618	1	1	-0.053817	-15.8066	0.5117	2.22723
 619	1	5	0.313225	-19.1665	-0.675916	-0.570159
 620	1	5	0.370299	-20.0727	-0.519767	1.83444
 621	1	6	-0.09626	-20.2781	-1.37987	-0.881
 622	1	6	-0.107747	-18.186	-1.58525	-0.365539
 623	1	6	-0.102822	-18.8079	0.0201337	-1.67323
 624	1	6	-0.119294	-19.9861	0.137848	3.01291
 625	1	6	-0.123874	-19.5735	-1.76098	2.02961
 626	1	6	-0.116977	-21.3927	-0.678003	1.58353
 627	1	3	0.454578	-14.7591	-0.0293132	3.13451
 628	1	3	0.475587	-13.8273	1.68525	1.90005
 629	1	4	-0.008375	-13.617	0.71705	2.87394
 630	1	2	-0.468822	-14.89	-0.952077	3.91986
 631	1	2	-0.475809	-13.0263	2.48644	1.45072
 632	1	1	-0.104577	-12.3648	0.504812	3.52411
 633	1	1	0.090513	-11.5378	-0.559573	3.10293
 634	1	1	0.041176	-11.9442	1.35112	4.5804
 635	1	1	0.130327	-10.6944	1.12691	5.21069
 636	1	7	-0.071967	-9.86087	0.0574124	4.78738
 637	1	1	-0.178735	-10.3041	-0.771566	3.73627
 638	1	5	-0.205934	-11.9491	-1.48631	1.96496
 639	1	1	-0.139817	-12.7542	2.42373	5.02084
 640	1	1	-0.146593	-12.3333	3.26088	6.06462
 641	1	1	-0.1545	-11.1011	3.03447	6.68974
 642	1	1	-0.172216	-10.2889	1.97229	6.26583