pySIMM System Object

3602 atoms
3985 bonds
6912 angles
10652 dihedrals
1152 impropers

10 atom types
13 bond types
22 angle types
9 dihedral types
4 improper types

-241.386559 241.386559 xlo xhi
-241.386559 241.386559 ylo yhi
-241.386559 241.386559 zlo zhi

Masses

   1	12.01	# ca
   2	16.0	# o
   3	12.01	# c
   4	14.01	# n
   5	12.01	# c3
   6	19.0	# f
   7	12.01	# cp
   8	1.008	# ha
   9	1.008	# hn
  10	1.008	# hc

Pair Coeffs

   1	0.086	3.3996695084235347	# ca
   2	0.21	2.959921901149463	# o
   3	0.086	3.3996695084235347	# c
   4	0.17	3.249998523775958	# n
   5	0.1094	3.3996695084235347	# c3
   6	0.061	3.1181455134911875	# f
   7	0.086	3.3996695084235347	# cp
   8	0.015	2.59964245953351	# ha
   9	0.0157	1.069078461768407	# hn
  10	0.0157	2.649532787749369	# hc

Bond Coeffs

   1	356.9	1.3497	# c3,f
   2	450.2	1.4058	# ca,cp
   3	403.2	1.0129	# hn,n
   4	461.1	1.3984	# ca,ca
   5	427.6	1.3789	# c,n
   6	345.9	1.4906	# c,ca
   7	300.9	1.5375	# c3,c3
   8	330.6	1.0969	# c3,hc
   9	351.4	1.4854	# cp,cp
  10	345.8	1.086	# ca,ha
  11	321.0	1.5156	# c3,ca
  12	384.2	1.4121	# ca,n
  13	637.7	1.2183	# c,o

Angle Coeffs

   1	74.22	123.05	# n,c,o
   2	66.62	120.02	# ca,ca,ca
   3	68.72	122.6	# ca,c,o
   4	67.68	115.25	# ca,c,n
   5	48.33	117.55	# c,n,hn
   6	64.28	120.33	# c,ca,ca
   7	47.98	119.86	# cp,ca,ha
   8	39.4	107.58	# hc,c3,hc
   9	63.53	120.77	# c3,ca,ca
  10	70.89	107.36	# f,c3,f
  11	67.87	120.19	# ca,ca,n
  12	66.72	118.38	# ca,cp,ca
  13	46.8	110.47	# ca,c3,hc
  14	62.86	111.51	# c3,c3,c3
  15	66.11	109.24	# c3,c3,f
  16	63.15	112.07	# c3,c3,ca
  17	63.82	123.71	# c,n,ca
  18	66.26	120.69	# ca,ca,cp
  19	63.56	112.24	# ca,c3,ca
  20	63.74	127.08	# c,n,c
  21	48.18	119.88	# ca,ca,ha
  22	64.05	121.11	# ca,cp,cp

Dihedral Coeffs

   1	2	2.5	2	180	2.0	1	0	# hn,n,c,o
   2	1	3.625	2	180	# X,ca,cp,X
   3	1	1.0	2	180	# X,cp,cp,X
   4	1	3.625	2	180	# X,ca,ca,X
   5	1	1.0	2	180	# X,c,ca,X
   6	1	0.0	2	0	# X,c3,ca,X
   7	1	0.15555555555555556	3	0	# X,c3,c3,X
   8	1	2.5	2	180	# X,c,n,X
   9	1	0.45	2	180	# X,ca,n,X

Improper Coeffs

   1	10.5	-1	2	# c,X,X,o
   2	1.1	-1	2	# n,X,X,hn
   3	1.1	-1	2	# ca,ca,ca,c3
   4	1.1	-1	2	# ca,X,X,ha

Atoms

   1	1	1	-0.015291	71.584	123.048	58.0037
   2	1	1	-0.066451	72.463	124.078	58.4394
   3	1	1	-0.157747	72.4575	125.309	57.725
   4	1	2	-0.394636	69.4929	121.243	56.5727
   5	1	1	0.035045	70.7426	123.287	56.9101
   6	1	1	-0.04863	71.5999	125.531	56.6268
   7	1	2	-0.369731	69.5097	125.307	54.3278
   8	1	1	0.009912	70.7474	124.494	56.2412
   9	1	3	0.064933	69.7617	122.388	56.2469
  10	1	4	0.489832	69.232	123.136	55.1958
  11	1	3	0.01974	69.7692	124.421	55.1251
  12	1	1	-0.15002	72.2979	126.945	61.668
  13	1	5	-0.109385	73.4905	123.877	59.5963
  14	1	1	-0.027748	73.541	125.166	60.4713
  15	1	1	-0.058225	72.3221	125.802	60.8414
  16	1	1	-0.058862	73.5182	127.441	62.1378
  17	1	1	-0.073426	74.7556	125.7	60.9817
  18	1	1	-0.053817	74.7097	126.832	61.805
  19	1	5	0.313225	74.8651	123.541	58.8993
  20	1	5	0.370299	73.1063	122.707	60.581
  21	1	6	-0.09626	75.8092	123.095	59.7584
  22	1	6	-0.107747	75.3771	124.62	58.2632
  23	1	6	-0.102822	74.7243	122.581	57.9571
  24	1	6	-0.119294	73.2606	121.478	60.0398
  25	1	6	-0.123874	71.821	122.805	60.99
  26	1	6	-0.116977	73.8629	122.728	61.7023
  27	1	3	0.454578	75.815	127.59	62.4493
  28	1	3	0.475587	73.8206	128.614	63.0034
  29	1	4	-0.008375	75.2034	128.634	63.1305
  30	1	2	-0.468822	77.0073	127.363	62.3381
  31	1	2	-0.475809	73.0133	129.407	63.4557
  32	1	1	-0.104577	75.92	129.662	63.8122
  33	1	1	0.090513	76.4556	130.731	63.0614
  34	1	1	0.041176	76.095	129.627	65.2189
  35	1	1	0.130327	76.8022	130.672	65.8674
  36	1	7	-0.071967	77.3337	131.75	65.1114
  37	1	1	-0.178735	77.1571	131.753	63.7142
  38	1	5	-0.205934	76.2822	130.811	61.5495
  39	1	1	-0.139817	75.5755	128.565	65.994
  40	1	1	-0.146593	75.7542	128.537	67.3861
  41	1	1	-0.1545	76.4562	129.568	68.0238
  42	1	1	-0.172216	76.9776	130.628	67.2671
  43	1	7	-0.107816	78.0683	132.891	65.7328
  44	1	1	-0.127649	79.475	132.939	65.6133
  45	1	1	-0.062495	80.2172	133.992	66.1674
  46	1	1	0.148158	79.546	135.025	66.8482
  47	1	1	-0.091615	78.1454	135.007	66.9743
  48	1	1	0.137007	77.3999	133.943	66.417
  49	1	1	-0.133704	75.9947	133.955	66.5459
  50	1	1	-0.230679	77.491	136.055	67.6514
  51	1	1	-0.154845	75.3454	135.001	67.2222
  52	1	1	-0.105714	76.0926	136.051	67.7758
  53	1	5	-0.373818	81.731	134.0	66.0196
  54	1	8	0.152766	71.5477	122.069	58.4699
  55	1	8	0.155405	73.1417	126.105	58.0123
  56	1	8	0.159938	71.6067	126.471	56.0789
  57	1	8	0.168438	71.3614	127.427	61.9425
  58	1	8	0.13763	71.3755	125.401	60.4877
  59	1	8	0.146749	75.7254	125.263	60.7686
  60	1	8	0.160749	77.564	132.579	63.1379
  61	1	10	0.074263	75.225	130.734	61.2673
  62	1	10	0.076992	76.8342	130.006	61.048
  63	1	10	0.075732	76.6546	131.762	61.1496
  64	1	8	0.120118	75.0284	127.75	65.5316
  65	1	8	0.145089	75.3483	127.715	67.9704
  66	1	8	0.146654	76.5975	129.548	69.1022
  67	1	8	0.147988	77.5224	131.417	67.7768
  68	1	8	0.166658	79.9887	132.139	65.0865
  69	1	8	0.132671	75.3969	133.154	66.1205
  70	1	8	0.178371	78.0655	136.874	68.0783
  71	1	8	0.137951	74.2626	134.997	67.3142
  72	1	8	0.128868	75.5885	136.861	68.2969
  73	1	10	0.119422	82.1695	133.084	66.4361
  74	1	10	0.137967	82.1874	134.851	66.5394
  75	1	10	0.115874	82.0204	134.062	64.9631
  76	1	1	-0.015291	56.9792	114.628	44.9143
  77	1	1	-0.066451	57.5823	115.376	45.9626
  78	1	1	-0.157747	58.2632	114.665	46.9916
  79	1	2	-0.394636	56.0057	112.449	42.9112
  80	1	1	0.035045	57.1022	113.232	44.9218
  81	1	1	-0.04863	58.3707	113.261	46.9829
  82	1	2	-0.369731	58.2782	110.234	46.3003
  83	1	1	0.009912	57.7785	112.569	45.9261
  84	1	3	0.064933	56.6181	112.224	43.9419
  85	1	4	0.489832	57.0566	110.996	44.4382
  86	1	3	0.01974	57.7559	111.115	45.6372
  87	1	1	-0.15002	61.3392	117.45	46.0748
  88	1	5	-0.109385	57.4915	116.928	46.0624
  89	1	1	-0.027748	58.8957	117.459	46.4862
  90	1	1	-0.058225	60.0348	117.032	45.7463
  91	1	1	-0.058862	61.4964	118.301	47.1721
  92	1	1	-0.073426	59.1026	118.338	47.5853
  93	1	1	-0.053817	60.4109	118.727	47.9084
  94	1	5	0.313225	56.3516	117.235	47.1085
  95	1	5	0.370299	57.1351	117.636	44.6956
  96	1	6	-0.09626	56.6755	116.813	48.3518
  97	1	6	-0.107747	55.2011	116.596	46.795
  98	1	6	-0.102822	56.0562	118.552	47.196
  99	1	6	-0.119294	57.909	117.196	43.6776
 100	1	6	-0.123874	57.3285	118.972	44.7668
 101	1	6	-0.116977	55.8523	117.451	44.3109
 102	1	3	0.454578	60.9182	119.556	49.0376
 103	1	3	0.475587	62.7304	118.85	47.7936
 104	1	4	-0.008375	62.3018	119.564	48.9046
 105	1	2	-0.468822	60.2482	120.047	49.9286
 106	1	2	-0.475809	63.8752	118.636	47.4337
 107	1	1	-0.104577	63.2026	120.153	49.8421
 108	1	1	0.090513	63.7654	119.341	50.8509
 109	1	1	0.041176	63.5902	121.512	49.732
 110	1	1	0.130327	64.5653	122.042	50.615
 111	1	7	-0.071967	65.1517	121.219	51.6134
 112	1	1	-0.178735	64.7265	119.879	51.7201
 113	1	5	-0.205934	63.3716	117.876	51.002
 114	1	1	-0.139817	63.0304	122.349	48.7404
 115	1	1	-0.146593	63.4272	123.691	48.6272
 116	1	1	-0.1545	64.3937	124.212	49.4969
 117	1	1	-0.172216	64.9601	123.39	50.4829
 118	1	7	-0.107816	66.2407	121.701	52.5183
 119	1	1	-0.127649	65.902	122.214	53.7865
 120	1	1	-0.062495	66.8838	122.688	54.6708
 121	1	1	0.148158	68.2465	122.645	54.2925
 122	1	1	-0.091615	68.6145	122.129	53.0233
 123	1	1	0.137007	67.6094	121.659	52.1401
 124	1	1	-0.133704	67.9805	121.148	50.878
 125	1	1	-0.230679	69.9706	122.074	52.6167
 126	1	1	-0.154845	69.3264	121.1	50.4883
 127	1	1	-0.105714	70.3207	121.563	51.3579
 128	1	5	-0.373818	66.4437	123.243	56.0229
 129	1	8	0.152766	56.4279	115.092	44.1034
 130	1	8	0.155405	58.7161	115.207	47.8187
 131	1	8	0.159938	58.8982	112.724	47.7681
 132	1	8	0.168438	62.2045	117.11	45.5087
 133	1	8	0.13763	59.9115	116.35	44.9088
 134	1	8	0.146749	58.2907	118.709	48.2021
 135	1	8	0.160749	65.1786	119.246	52.4787
 136	1	10	0.074263	63.8416	117.419	51.8812
 137	1	10	0.076992	63.6813	117.294	50.1256
 138	1	10	0.075732	62.2863	117.77	51.1216
 139	1	8	0.120118	62.2791	121.977	48.0519
 140	1	8	0.145089	62.9853	124.326	47.8633
 141	1	8	0.146654	64.7056	125.25	49.4085
 142	1	8	0.147988	65.7096	123.81	51.1472
 143	1	8	0.166658	64.854	122.246	54.0739
 144	1	8	0.132671	67.2264	120.784	50.187
 145	1	8	0.178371	70.7737	122.425	53.2577
 146	1	8	0.137951	69.5961	120.705	49.5122
 147	1	8	0.128868	71.3644	121.527	51.0544
 148	1	10	0.119422	65.3524	123.217	56.1371
 149	1	10	0.137967	66.7521	124.289	56.1472
 150	1	10	0.115874	66.8638	122.656	56.8508
 151	1	1	-0.015291	57.1544	94.1657	37.2635
 152	1	1	-0.066451	57.4146	95.4087	37.8999
 153	1	1	-0.157747	57.5686	95.4201	39.316
 154	1	2	-0.394636	56.7437	91.1919	36.4866
 155	1	1	0.035045	57.0469	93.0126	38.0475
 156	1	1	-0.04863	57.4505	94.246	40.0883
 157	1	2	-0.369731	57.2255	91.3106	41.1029
 158	1	1	0.009912	57.1896	93.0484	39.4197
 159	1	3	0.064933	56.87	91.5997	37.6293
 160	1	4	0.489832	56.937	90.863	38.8095
 161	1	3	0.01974	57.1095	91.6599	39.9399
 162	1	1	-0.15002	55.087	98.7919	39.1587
 163	1	5	-0.109385	57.6496	96.7222	37.0964
 164	1	1	-0.027748	57.0178	97.9104	37.881
 165	1	1	-0.058225	55.7101	97.7619	38.4247
 166	1	1	-0.058862	55.7869	99.9905	39.328
 167	1	1	-0.073426	57.678	99.1565	38.0527
 168	1	1	-0.053817	57.0395	100.168	38.7796
 169	1	5	0.313225	56.9628	96.7241	35.6771
 170	1	5	0.370299	59.2124	96.8422	36.9213
 171	1	6	-0.09626	56.9425	97.964	35.1366
 172	1	6	-0.107747	55.6749	96.3177	35.7478
 173	1	6	-0.102822	57.5814	95.9277	34.7766
 174	1	6	-0.119294	59.5795	97.8155	36.0576
 175	1	6	-0.123874	59.754	95.6932	36.4556
 176	1	6	-0.116977	59.8268	97.0933	38.1
 177	1	3	0.454578	57.517	101.528	39.1413
 178	1	3	0.475587	55.4254	101.227	40.0727
 179	1	4	-0.008375	56.5128	102.079	39.9269
 180	1	2	-0.468822	58.5946	102.015	38.8472
 181	1	2	-0.475809	54.3995	101.416	40.7035
 182	1	1	-0.104577	56.6089	103.354	40.5601
 183	1	1	0.090513	55.8984	104.45	40.0241
 184	1	1	0.041176	57.3946	103.523	41.7288
 185	1	1	0.130327	57.4545	104.789	42.3622
 186	1	7	-0.071967	56.7273	105.888	41.8325
 187	1	1	-0.178735	55.9615	105.697	40.6642
 188	1	5	-0.205934	55.0541	104.311	38.7633
 189	1	1	-0.139817	58.1189	102.442	42.2856
 190	1	1	-0.146593	58.8949	102.615	43.4413
 191	1	1	-0.1545	58.9514	103.867	44.0658
 192	1	1	-0.172216	58.2314	104.945	43.531
 193	1	7	-0.107816	56.7349	107.234	42.4822
 194	1	1	-0.127649	57.8195	108.099	42.2341
 195	1	1	-0.062495	57.9129	109.35	42.8595
 196	1	1	0.148158	56.9	109.759	43.7576
 197	1	1	-0.091615	55.7886	108.916	44.0115
 198	1	1	0.137007	55.7109	107.652	43.3728
 199	1	1	-0.133704	54.6165	106.805	43.6461
 200	1	1	-0.230679	54.7595	109.304	44.9039
 201	1	1	-0.154845	53.6034	107.201	44.5309
 202	1	1	-0.105714	53.6745	108.451	45.1578
 203	1	5	-0.373818	59.1268	110.229	42.5661
 204	1	8	0.152766	57.0733	94.0619	36.1872
 205	1	8	0.155405	57.8125	96.3478	39.829
 206	1	8	0.159938	57.5918	94.2567	41.1671
 207	1	8	0.168438	54.0954	98.6631	39.5887
 208	1	8	0.13763	55.1722	96.8268	38.2886
 209	1	8	0.146749	58.6653	99.3604	37.6521
 210	1	8	0.160749	55.4058	106.538	40.2594
 211	1	10	0.074263	55.6239	103.841	37.9522
 212	1	10	0.076992	54.7129	105.287	38.3953
 213	1	10	0.075732	54.1619	103.702	38.9552
 214	1	8	0.120118	58.0976	101.458	41.8318
 215	1	8	0.145089	59.4514	101.776	43.8528
 216	1	8	0.146654	59.5493	104.002	44.9641
 217	1	8	0.147988	58.2811	105.905	44.0352
 218	1	8	0.166658	58.6038	107.772	41.5556
 219	1	8	0.132671	54.5444	105.829	43.1756
 220	1	8	0.178371	54.7772	110.263	45.4121
 221	1	8	0.137951	52.766	106.537	44.7309
 222	1	8	0.128868	52.8884	108.757	45.8442
 223	1	10	0.119422	58.8259	111.202	42.1566
 224	1	10	0.137967	59.7948	109.767	41.8279
 225	1	10	0.115874	59.723	110.403	43.4719
 226	1	1	-0.015291	58.9422	72.6346	39.0829
 227	1	1	-0.066451	58.8404	73.9939	39.481
 228	1	1	-0.157747	57.9971	74.3115	40.5843
 229	1	2	-0.394636	58.7714	69.5562	38.752
 230	1	1	0.035045	58.1935	71.6726	39.7668
 231	1	1	-0.04863	57.2429	73.3263	41.2537
 232	1	2	-0.369731	55.9551	70.6799	42.2699
 233	1	1	0.009912	57.3615	72.0062	40.8161
 234	1	3	0.064933	58.1522	70.2015	39.582
 235	1	4	0.489832	57.2774	69.7403	40.5626
 236	1	3	0.01974	56.7433	70.7641	41.343
 237	1	1	-0.15002	56.6078	77.4013	38.1192
 238	1	5	-0.109385	59.6804	75.1224	38.8146
 239	1	1	-0.027748	58.7981	76.4008	38.7055
 240	1	1	-0.058225	57.4542	76.281	38.2487
 241	1	1	-0.058862	57.1324	78.6573	38.4387
 242	1	1	-0.073426	59.294	77.6988	38.9964
 243	1	1	-0.053817	58.4393	78.7972	38.8564
 244	1	5	0.313225	60.1352	74.7838	37.3434
 245	1	5	0.370299	60.9529	75.309	39.7269
 246	1	6	-0.09626	59.1045	74.3261	36.597
 247	1	6	-0.107747	61.1151	73.8546	37.2825
 248	1	6	-0.102822	60.6095	75.8782	36.7052
 249	1	6	-0.119294	61.5503	74.1259	39.9985
 250	1	6	-0.123874	60.63	75.8494	40.9241
 251	1	6	-0.116977	61.9009	76.0959	39.1697
 252	1	3	0.454578	58.7052	80.2409	39.0788
 253	1	3	0.475587	56.5128	80.0096	38.3888
 254	1	4	-0.008375	57.5143	80.8882	38.7809
 255	1	2	-0.468822	59.7607	80.7337	39.4359
 256	1	2	-0.475809	55.3713	80.2718	38.0509
 257	1	1	-0.104577	57.358	82.3025	38.8394
 258	1	1	0.090513	57.4806	83.0537	37.6514
 259	1	1	0.041176	57.1212	82.9575	40.0736
 260	1	1	0.130327	57.0094	84.3695	40.1113
 261	1	7	-0.071967	57.1237	85.1257	38.9145
 262	1	1	-0.178735	57.3622	84.4491	37.7014
 263	1	5	-0.205934	57.749	82.3833	36.3094
 264	1	1	-0.139817	56.9995	82.2249	41.2772
 265	1	1	-0.146593	56.7813	82.881	42.4981
 266	1	1	-0.1545	56.6813	84.2775	42.5346
 267	1	1	-0.172216	56.7938	85.016	41.3474
 268	1	7	-0.107816	57.0172	86.6139	38.8898
 269	1	1	-0.127649	58.2043	87.3677	38.8075
 270	1	1	-0.062495	58.1789	88.7681	38.7849
 271	1	1	0.148158	56.9378	89.4435	38.8416
 272	1	1	-0.091615	55.7271	88.7099	38.9151
 273	1	1	0.137007	55.7711	87.2935	38.9376
 274	1	1	-0.133704	54.5652	86.5641	39.0003
 275	1	1	-0.230679	54.4721	89.3643	38.9617
 276	1	1	-0.154845	53.3284	87.2235	39.0441
 277	1	1	-0.105714	53.2825	88.6229	39.0253
 278	1	5	-0.373818	59.5045	89.5218	38.7017
 279	1	8	0.152766	59.5944	72.3019	38.283
 280	1	8	0.155405	57.9318	75.3369	40.9412
 281	1	8	0.159938	56.6035	73.573	42.0987
 282	1	8	0.168438	55.5809	77.3009	37.7725
 283	1	8	0.13763	57.0565	75.3024	37.9914
 284	1	8	0.146749	60.3138	77.8818	39.3176
 285	1	8	0.160749	57.4526	85.029	36.7872
 286	1	10	0.074263	56.9154	81.7299	36.0234
 287	1	10	0.076992	58.664	81.7792	36.345
 288	1	10	0.075732	57.8762	83.119	35.506
 289	1	8	0.120118	57.0757	81.143	41.285
 290	1	8	0.145089	56.6948	82.3059	43.4168
 291	1	8	0.146654	56.5184	84.7889	43.4806
 292	1	8	0.147988	56.717	86.0981	41.3953
 293	1	8	0.166658	59.1559	86.8433	38.7695
 294	1	8	0.132671	54.5784	85.4783	39.0111
 295	1	8	0.178371	54.3926	90.4473	38.9442
 296	1	8	0.137951	52.4073	86.6481	39.0897
 297	1	8	0.128868	52.3225	89.1328	39.0564
 298	1	10	0.119422	60.3564	88.8368	38.6028
 299	1	10	0.137967	59.6802	90.1202	39.6061
 300	1	10	0.115874	59.5341	90.191	37.8316
 301	1	1	-0.015291	51.6791	52.5475	42.5294
 302	1	1	-0.066451	52.0066	53.8618	42.9593
 303	1	1	-0.157747	50.9431	54.7831	43.1794
 304	1	2	-0.394636	50.3381	49.9752	41.4208
 305	1	1	0.035045	50.3356	52.2252	42.3064
 306	1	1	-0.04863	49.5955	54.4332	42.9623
 307	1	2	-0.369731	46.9357	53.0498	42.1466
 308	1	1	0.009912	49.3232	53.1397	42.516
 309	1	3	0.064933	49.7362	50.9788	41.7652
 310	1	4	0.489832	48.371	51.2443	41.675
 311	1	3	0.01974	48.0337	52.5188	42.1257
 312	1	1	-0.15002	53.2345	57.001	40.3616
 313	1	5	-0.109385	53.4701	54.3461	43.1837
 314	1	1	-0.027748	53.6364	55.6962	42.4289
 315	1	1	-0.058225	53.1125	55.8138	41.1095
 316	1	1	-0.058862	53.9016	58.0767	40.9519
 317	1	1	-0.073426	54.3215	56.8099	42.9826
 318	1	1	-0.053817	54.4299	57.9813	42.2229
 319	1	5	0.313225	54.5637	53.3767	42.5899
 320	1	5	0.370299	53.6728	54.4567	44.7454
 321	1	6	-0.09626	54.6535	52.2057	43.2597
 322	1	6	-0.107747	55.7947	53.9364	42.6173
 323	1	6	-0.102822	54.3243	53.0779	41.2927
 324	1	6	-0.119294	52.953	55.4685	45.2811
 325	1	6	-0.123874	54.9595	54.6568	45.1087
 326	1	6	-0.116977	53.2659	53.3311	45.3753
 327	1	3	0.454578	55.0658	59.2824	42.5576
 328	1	3	0.475587	54.1812	59.4394	40.4292
 329	1	4	-0.008375	54.8719	60.0874	41.4434
 330	1	2	-0.468822	55.6066	59.5736	43.6097
 331	1	2	-0.475809	53.8333	59.8861	39.3498
 332	1	1	-0.104577	55.3005	61.4419	41.3592
 333	1	1	0.090513	54.4159	62.4641	41.7608
 334	1	1	0.041176	56.5842	61.7677	40.8567
 335	1	1	0.130327	56.9772	63.1255	40.7554
 336	1	7	-0.071967	56.0909	64.1569	41.1706
 337	1	1	-0.178735	54.8173	63.8025	41.6605
 338	1	5	-0.205934	53.027	62.146	42.3015
 339	1	1	-0.139817	57.4821	60.7563	40.4432
 340	1	1	-0.146593	58.7468	61.0844	39.9321
 341	1	1	-0.1545	59.1295	62.4267	39.8201
 342	1	1	-0.172216	58.2479	63.4392	40.2259
 343	1	7	-0.107816	56.4289	65.6083	41.0732
 344	1	1	-0.127649	55.7437	66.3824	40.1155
 345	1	1	-0.062495	56.0118	67.747	39.9499
 346	1	1	0.148158	56.9898	68.3651	40.7612
 347	1	1	-0.091615	57.6828	67.6159	41.7456
 348	1	1	0.137007	57.3943	66.2379	41.9048
 349	1	1	-0.133704	58.0723	65.501	42.8992
 350	1	1	-0.230679	58.6602	68.2186	42.5758
 351	1	1	-0.154845	59.0358	66.1097	43.7162
 352	1	1	-0.105714	59.3311	67.468	43.5523
 353	1	5	-0.373818	55.2412	68.5217	38.884
 354	1	8	0.152766	52.4265	51.7852	42.3381
 355	1	8	0.155405	51.1624	55.797	43.5063
 356	1	8	0.159938	48.7888	55.1479	43.1111
 357	1	8	0.168438	52.8279	57.0845	39.3554
 358	1	8	0.13763	52.601	54.9708	40.6521
 359	1	8	0.146749	54.7676	56.7925	43.9717
 360	1	8	0.160749	54.1379	64.5908	41.9722
 361	1	10	0.074263	53.0912	61.5411	43.2145
 362	1	10	0.076992	52.4326	61.5945	41.5625
 363	1	10	0.075732	52.4704	63.0571	42.5523
 364	1	8	0.120118	57.2146	59.7072	40.5106
 365	1	8	0.145089	59.4276	60.297	39.6179
 366	1	8	0.146654	60.1065	62.6849	39.4177
 367	1	8	0.147988	58.561	64.4735	40.1235
 368	1	8	0.166658	55.0042	65.8971	39.4833
 369	1	8	0.132671	57.8552	64.4481	43.0482
 370	1	8	0.178371	58.9126	69.2716	42.4905
 371	1	8	0.137951	59.5502	65.5276	44.4768
 372	1	8	0.128868	60.0763	67.941	44.1877
 373	1	10	0.119422	54.6965	69.3699	39.3191
 374	1	10	0.137967	54.4982	67.8904	38.3797
 375	1	10	0.115874	55.9144	68.904	38.1048
 376	1	1	-0.015291	36.2522	42.0454	31.5841
 377	1	1	-0.066451	36.5629	43.1727	32.3904
 378	1	1	-0.157747	35.6132	43.573	33.3739
 379	1	2	-0.394636	35.0589	39.5451	30.2179
 380	1	1	0.035045	35.0494	41.369	31.799
 381	1	1	-0.04863	34.3988	42.879	33.5678
 382	1	2	-0.369731	31.999	40.8751	33.448
 383	1	1	0.009912	34.1438	41.7683	32.7597
 384	1	3	0.064933	34.5164	40.168	31.1162
 385	1	4	0.489832	33.2934	39.9147	31.7312
 386	1	3	0.01974	32.9848	40.8358	32.7315
 387	1	1	-0.15002	39.1933	43.2295	35.7876
 388	1	5	-0.109385	37.8708	44.0044	32.2107
 389	1	1	-0.027748	38.5528	44.1955	33.5971
 390	1	1	-0.058225	38.5	43.1489	34.5622
 391	1	1	-0.058862	39.9672	44.3685	36.03
 392	1	1	-0.073426	39.3482	45.3351	33.8888
 393	1	1	-0.053817	40.0406	45.3886	35.1048
 394	1	5	0.313225	37.4356	45.3634	31.5356
 395	1	5	0.370299	38.9473	43.2935	31.303
 396	1	6	-0.09626	36.7996	46.1752	32.4098
 397	1	6	-0.107747	36.5769	45.1522	30.5115
 398	1	6	-0.102822	38.4641	46.0734	31.0211
 399	1	6	-0.119294	40.1338	43.9427	31.3141
 400	1	6	-0.123874	38.571	43.2066	30.007
 401	1	6	-0.116977	39.2106	42.0403	31.7393
 402	1	3	0.454578	41.0061	46.4006	35.6077
 403	1	3	0.475587	40.8807	44.6954	37.1593
 404	1	4	-0.008375	41.4754	45.9024	36.8162
 405	1	2	-0.468822	41.3356	47.4275	35.0406
 406	1	2	-0.475809	41.0844	44.0109	38.1469
 407	1	1	-0.104577	42.5	46.5333	37.5819
 408	1	1	0.090513	42.1467	47.4948	38.5514
 409	1	1	0.041176	43.8651	46.2247	37.3554
 410	1	1	0.130327	44.8733	46.8937	38.0945
 411	1	7	-0.071967	44.5203	47.8767	39.0577
 412	1	1	-0.178735	43.1535	48.1539	39.2723
 413	1	5	-0.205934	40.69	47.855	38.8136
 414	1	1	-0.139817	44.2439	45.2614	36.3912
 415	1	1	-0.146593	45.5959	44.9587	36.1702
 416	1	1	-0.1545	46.5897	45.6118	36.9095
 417	1	1	-0.172216	46.2291	46.5732	37.865
 418	1	7	-0.107816	45.5406	48.6897	39.7886
 419	1	1	-0.127649	46.2397	49.6775	39.0654
 420	1	1	-0.062495	47.1825	50.5088	39.6833
 421	1	1	0.148158	47.4376	50.3641	41.066
 422	1	1	-0.091615	46.7594	49.3719	41.8173
 423	1	1	0.137007	45.8121	48.5344	41.1746
 424	1	1	-0.133704	45.1504	47.5388	41.9231
 425	1	1	-0.230679	47.0105	49.2008	43.2004
 426	1	1	-0.154845	45.4114	47.3755	43.2916
 427	1	1	-0.105714	46.3391	48.208	43.9298
 428	1	5	-0.373818	47.898	51.5603	38.8374
 429	1	8	0.152766	36.9049	41.6745	30.8018
 430	1	8	0.155405	35.818	44.4378	34.0009
 431	1	8	0.159938	33.6779	43.1909	34.3207
 432	1	8	0.168438	39.1664	42.4145	36.5086
 433	1	8	0.13763	37.9427	42.2402	34.3508
 434	1	8	0.146749	39.4847	46.1467	33.1818
 435	1	8	0.160749	42.8822	48.9164	39.9973
 436	1	10	0.074263	40.1059	46.9663	39.0826
 437	1	10	0.076992	40.2342	48.3111	37.9258
 438	1	10	0.075732	40.5912	48.5714	39.6382
 439	1	8	0.120118	43.5009	44.7335	35.8031
 440	1	8	0.145089	45.8719	44.2139	35.4277
 441	1	8	0.146654	47.6381	45.3732	36.7451
 442	1	8	0.147988	47.0135	47.0615	38.4353
 443	1	8	0.166658	46.0266	49.7978	38.006
 444	1	8	0.132671	44.4349	46.877	41.4449
 445	1	8	0.178371	47.7275	49.8213	43.7309
 446	1	8	0.137951	44.8963	46.6012	43.8547
 447	1	8	0.128868	46.5417	48.0796	44.9907
 448	1	10	0.119422	47.655	52.577	39.175
 449	1	10	0.137967	47.6078	51.497	37.7805
 450	1	10	0.115874	48.988	51.4329	38.8758
 451	1	1	-0.015291	29.4651	26.5828	21.6702
 452	1	1	-0.066451	29.1692	27.7581	22.4119
 453	1	1	-0.157747	30.1384	28.8023	22.4372
 454	1	2	-0.394636	30.7594	24.3075	19.9796
 455	1	1	0.035045	30.7035	26.4914	21.0201
 456	1	1	-0.04863	31.3718	28.6939	21.7684
 457	1	2	-0.369731	33.8422	27.7769	20.1356
 458	1	1	0.009912	31.6273	27.5169	21.0673
 459	1	3	0.064933	31.283	25.3835	20.2162
 460	1	4	0.489832	32.5426	25.8388	19.8271
 461	1	3	0.01974	32.8277	27.1184	20.2951
 462	1	1	-0.15002	29.6901	28.3787	26.5623
 463	1	5	-0.109385	27.834	27.9709	23.1828
 464	1	1	-0.027748	28.2218	28.5583	24.5741
 465	1	1	-0.058225	29.1767	27.8535	25.3617
 466	1	1	-0.058862	29.2455	29.6394	26.965
 467	1	1	-0.073426	27.7653	29.8192	25.0461
 468	1	1	-0.053817	28.3102	30.3373	26.2289
 469	1	5	0.313225	27.0159	26.6442	23.4474
 470	1	5	0.370299	26.954	28.9368	22.2954
 471	1	6	-0.09626	26.0139	26.8544	24.3309
 472	1	6	-0.107747	27.7782	25.6592	23.9721
 473	1	6	-0.102822	26.4488	26.1281	22.3343
 474	1	6	-0.119294	26.7738	28.4471	21.0476
 475	1	6	-0.123874	27.5301	30.1481	22.1215
 476	1	6	-0.116977	25.7257	29.1524	22.8178
 477	1	3	0.454578	28.1976	31.7046	26.8049
 478	1	3	0.475587	29.7579	30.5277	28.0396
 479	1	4	-0.008375	29.1389	31.7512	27.8257
 480	1	2	-0.468822	27.5532	32.6283	26.3401
 481	1	2	-0.475809	30.6621	30.2701	28.8153
 482	1	1	-0.104577	29.613	32.9605	28.4109
 483	1	1	0.090513	29.0669	33.417	29.6278
 484	1	1	0.041176	30.6786	33.6677	27.7985
 485	1	1	0.130327	31.21	34.822	28.4239
 486	1	7	-0.071967	30.6619	35.286	29.6515
 487	1	1	-0.178735	29.5872	34.5742	30.2284
 488	1	5	-0.205934	27.9359	32.6633	30.3141
 489	1	1	-0.139817	31.2392	33.2281	26.5743
 490	1	1	-0.146593	32.3112	33.9127	25.9843
 491	1	1	-0.1545	32.8492	35.0405	26.6138
 492	1	1	-0.172216	32.3048	35.4874	27.8262
 493	1	7	-0.107816	31.2118	36.4919	30.3442
 494	1	1	-0.127649	31.0143	37.7558	29.7491
 495	1	1	-0.062495	31.6483	38.9037	30.2421
 496	1	1	0.148158	32.4911	38.7999	31.3712
 497	1	1	-0.091615	32.6499	37.5573	32.034
 498	1	1	0.137007	32.0178	36.4012	31.5116
 499	1	1	-0.133704	32.2395	35.1547	32.1358
 500	1	1	-0.230679	33.4654	37.4417	33.1867
 501	1	1	-0.154845	33.0432	35.0543	33.2808
 502	1	1	-0.105714	33.6508	36.199	33.8095
 503	1	5	-0.373818	31.4616	40.2218	29.4951
 504	1	8	0.152766	28.7742	25.7498	21.5903
 505	1	8	0.155405	29.9364	29.7211	22.9826
 506	1	8	0.159938	32.1086	29.494	21.7935
 507	1	8	0.168438	30.4626	27.857	27.1244
 508	1	8	0.13763	29.5796	26.9079	25.0103
 509	1	8	0.146749	27.0658	30.4373	24.493
 510	1	8	0.160749	29.1696	34.9263	31.1676
 511	1	10	0.074263	27.5926	33.1808	31.2182
 512	1	10	0.076992	28.2608	31.6589	30.6133
 513	1	10	0.075732	27.0706	32.56	29.6476
 514	1	8	0.120118	30.8565	32.3537	26.0605
 515	1	8	0.145089	32.7309	33.5626	25.0443
 516	1	8	0.146654	33.6901	35.567	26.1676
 517	1	8	0.147988	32.7533	36.3537	28.3016
 518	1	8	0.166658	30.4033	37.8217	28.8519
 519	1	8	0.132671	31.7923	34.25	31.7369
 520	1	8	0.178371	33.9559	38.3045	33.6278
 521	1	8	0.137951	33.1972	34.0879	33.7542
 522	1	8	0.128868	34.2728	36.1209	34.6982
 523	1	10	0.119422	30.6514	40.1579	28.7572
 524	1	10	0.137967	32.3732	40.5022	28.9496
 525	1	10	0.115874	31.2019	41.0409	30.1789
 526	1	1	-0.015291	39.4015	14.8771	11.8408
 527	1	1	-0.066451	40.3007	15.3465	10.8468
 528	1	1	-0.157747	39.9047	15.2508	9.48136
 529	1	2	-0.394636	36.9931	13.8336	13.5028
 530	1	1	0.035045	38.1508	14.388	11.4535
 531	1	1	-0.04863	38.638	14.7513	9.11231
 532	1	2	-0.369731	35.7212	13.6657	9.0386
 533	1	1	0.009912	37.7744	14.3355	10.1275
 534	1	3	0.064933	37.0183	13.909	12.2853
 535	1	4	0.489832	36.0043	13.6133	11.3756
 536	1	3	0.01974	36.3822	13.8273	10.0511
 537	1	1	-0.15002	41.9569	17.7542	14.7536
 538	1	5	-0.109385	41.6752	15.9269	11.2947
 539	1	1	-0.027748	41.4177	16.876	12.5026
 540	1	1	-0.058225	42.2318	16.8905	13.6724
 541	1	1	-0.058862	40.8611	18.6166	14.6474
 542	1	1	-0.073426	40.332	17.7874	12.4306
 543	1	1	-0.053817	40.0757	18.6333	13.5146
 544	1	5	0.313225	42.3877	16.8056	10.1959
 545	1	5	0.370299	42.585	14.6862	11.6394
 546	1	6	-0.09626	41.5554	17.738	9.67912
 547	1	6	-0.107747	42.8698	16.0821	9.1603
 548	1	6	-0.102822	43.4377	17.4861	10.7098
 549	1	6	-0.119294	42.5748	13.771	10.6434
 550	1	6	-0.123874	42.1523	14.0406	12.7461
 551	1	6	-0.116977	43.8805	15.0123	11.848
 552	1	3	0.454578	38.981	19.6164	13.7205
 553	1	3	0.475587	40.2958	19.5914	15.6196
 554	1	4	-0.008375	39.1757	20.1273	14.9968
 555	1	2	-0.468822	38.0687	19.8518	12.9472
 556	1	2	-0.475809	40.7071	19.8116	16.7457
 557	1	1	-0.104577	38.2651	21.0197	15.634
 558	1	1	0.090513	37.1917	20.478	16.3719
 559	1	1	0.041176	38.42	22.4249	15.5362
 560	1	1	0.130327	37.4906	23.2844	16.1763
 561	1	7	-0.071967	36.3987	22.7384	16.9055
 562	1	1	-0.178735	36.279	21.3371	16.9973
 563	1	5	-0.205934	36.9966	18.9724	16.5057
 564	1	1	-0.139817	39.4943	22.9884	14.8101
 565	1	1	-0.146593	39.6502	24.3803	14.725
 566	1	1	-0.1545	38.7382	25.2284	15.3663
 567	1	1	-0.172216	37.6663	24.6823	16.0883
 568	1	7	-0.107816	35.378	23.5742	17.6084
 569	1	1	-0.127649	35.3964	23.5954	19.0176
 570	1	1	-0.062495	34.4593	24.3346	19.7516
 571	1	1	0.148158	33.4653	25.0712	19.0683
 572	1	1	-0.091615	33.4131	25.0585	17.6518
 573	1	1	0.137007	34.3687	24.305	16.9242
 574	1	1	-0.133704	34.2996	24.2806	15.5151
 575	1	1	-0.230679	32.4192	25.7821	16.9481
 576	1	1	-0.154845	33.3103	25.0009	14.8299
 577	1	1	-0.105714	32.3711	25.7516	15.5467
 578	1	5	-0.373818	34.548	24.3248	21.276
 579	1	8	0.152766	39.6515	14.9112	12.8985
 580	1	8	0.155405	40.5639	15.5698	8.68121
 581	1	8	0.159938	38.3281	14.6993	8.07064
 582	1	8	0.168438	42.5693	17.7473	15.6536
 583	1	8	0.13763	43.0855	16.2295	13.7698
 584	1	8	0.146749	39.6831	17.8308	11.5586
 585	1	8	0.160749	35.4484	20.9188	17.5588
 586	1	10	0.074263	36.8637	18.5022	15.5234
 587	1	10	0.076992	36.1105	18.729	17.1046
 588	1	10	0.075732	37.8595	18.5062	16.9973
 589	1	8	0.120118	40.2213	22.3589	14.3079
 590	1	8	0.145089	40.4824	24.8008	14.1655
 591	1	8	0.146654	38.8613	26.3076	15.3063
 592	1	8	0.147988	36.9717	25.3547	16.5831
 593	1	8	0.166658	36.1649	23.0292	19.5379
 594	1	8	0.132671	35.0132	23.7002	14.939
 595	1	8	0.178371	31.6652	26.3687	17.4652
 596	1	8	0.137951	33.2712	24.9731	13.7439
 597	1	8	0.128868	31.601	26.3055	15.0148
 598	1	10	0.119422	34.7693	25.327	21.6679
 599	1	10	0.137967	35.3451	23.6598	21.6331
 600	1	10	0.115874	33.6121	23.9744	21.7311
 601	1	1	-0.015291	18.894	8.41898	15.317
 602	1	1	-0.066451	20.0177	9.17654	14.8869
 603	1	1	-0.157747	20.1836	9.40379	13.491
 604	1	2	-0.394636	16.2933	6.7166	15.5754
 605	1	1	0.035045	18.0148	7.90701	14.3547
 606	1	1	-0.04863	19.286	8.88147	12.5392
 607	1	2	-0.369731	16.9403	7.49809	11.0452
 608	1	1	0.009912	18.2061	8.13163	13.0058
 609	1	3	0.064933	16.7729	7.10605	14.5236
 610	1	4	0.489832	16.2915	6.91287	13.2306
 611	1	3	0.01974	17.0988	7.49259	12.255
 612	1	1	-0.15002	24.1088	8.07257	14.2593
 613	1	5	-0.109385	21.0377	9.81561	15.8753
 614	1	1	-0.027748	22.4674	9.61783	15.2872
 615	1	1	-0.058225	22.8358	8.32933	14.8054
 616	1	1	-0.058862	25.0205	9.13008	14.2015
 617	1	1	-0.073426	23.4336	10.6588	15.2252
 618	1	1	-0.053817	24.6911	10.3847	14.671
 619	1	5	0.313225	21.0485	9.13817	17.3002
 620	1	5	0.370299	20.6171	11.3284	16.0252
 621	1	6	-0.09626	19.9537	9.42406	18.0401
 622	1	6	-0.107747	22.1177	9.53252	18.0288
 623	1	6	-0.102822	21.1253	7.79072	17.2153
 624	1	6	-0.119294	20.8067	12.019	14.8778
 625	1	6	-0.123874	21.2954	11.9755	16.9996
 626	1	6	-0.116977	19.3031	11.4537	16.3212
 627	1	3	0.454578	25.8635	11.2775	14.464
 628	1	3	0.475587	26.4132	9.17505	13.6823
 629	1	4	-0.008375	26.8343	10.4844	13.8656
 630	1	2	-0.468822	25.9333	12.4586	14.7553
 631	1	2	-0.475809	27.0353	8.24591	13.1977
 632	1	1	-0.104577	28.123	10.9548	13.4802
 633	1	1	0.090513	29.1819	10.8951	14.4107
 634	1	1	0.041176	28.3511	11.4617	12.1764
 635	1	1	0.130327	29.6443	11.9133	11.8127
 636	1	7	-0.071967	30.7104	11.8556	12.7496
 637	1	1	-0.178735	30.4575	11.3419	14.0375
 638	1	5	-0.205934	28.9686	10.3572	15.82
 639	1	1	-0.139817	27.3057	11.5279	11.2258
 640	1	1	-0.146593	27.5373	12.0355	9.93828
 641	1	1	-0.1545	28.8156	12.483	9.58137
 642	1	1	-0.172216	29.8618	12.4207	10.5136
 643	1	7	-0.107816	32.0837	12.3473	12.4313
 644	1	1	-0.127649	33.0543	11.4229	11.9952
 645	1	1	-0.062495	34.3525	11.8318	11.6572
 646	1	1	0.148158	34.6997	13.1991	11.7564
 647	1	1	-0.091615	33.7453	14.1478	12.2046
 648	1	1	0.137007	32.4384	13.7173	12.5417
 649	1	1	-0.133704	31.4895	14.6631	12.9845
 650	1	1	-0.230679	34.0688	15.523	12.317
 651	1	1	-0.154845	31.8244	16.0201	13.096
 652	1	1	-0.105714	33.1141	16.4491	12.762
 653	1	5	-0.373818	35.3483	10.781	11.1724
 654	1	8	0.152766	18.6796	8.2281	16.3631
 655	1	8	0.155405	21.0168	10.0047	13.1334
 656	1	8	0.159938	19.415	9.06045	11.4737
 657	1	8	0.168438	24.3805	7.08465	13.8913
 658	1	8	0.13763	22.122	7.51061	14.8497
 659	1	8	0.146749	23.2401	11.6636	15.5864