pySIMM System Object

2552 atoms
2823 bonds
4896 angles
7544 dihedrals
816 impropers

10 atom types
13 bond types
22 angle types
9 dihedral types
4 improper types

-214.545023 214.545023 xlo xhi
-214.545023 214.545023 ylo yhi
-214.545023 214.545023 zlo zhi

Masses

   1	12.01	# ca
   2	16.0	# o
   3	12.01	# c
   4	14.01	# n
   5	12.01	# c3
   6	19.0	# f
   7	12.01	# cp
   8	1.008	# ha
   9	1.008	# hn
  10	1.008	# hc

Pair Coeffs

   1	0.086	3.3996695084235347	# ca
   2	0.21	2.959921901149463	# o
   3	0.086	3.3996695084235347	# c
   4	0.17	3.249998523775958	# n
   5	0.1094	3.3996695084235347	# c3
   6	0.061	3.1181455134911875	# f
   7	0.086	3.3996695084235347	# cp
   8	0.015	2.59964245953351	# ha
   9	0.0157	1.069078461768407	# hn
  10	0.0157	2.649532787749369	# hc

Bond Coeffs

   1	356.9	1.3497	# c3,f
   2	450.2	1.4058	# ca,cp
   3	403.2	1.0129	# hn,n
   4	461.1	1.3984	# ca,ca
   5	427.6	1.3789	# c,n
   6	345.9	1.4906	# c,ca
   7	300.9	1.5375	# c3,c3
   8	330.6	1.0969	# c3,hc
   9	351.4	1.4854	# cp,cp
  10	345.8	1.086	# ca,ha
  11	321.0	1.5156	# c3,ca
  12	384.2	1.4121	# ca,n
  13	637.7	1.2183	# c,o

Angle Coeffs

   1	74.22	123.05	# n,c,o
   2	66.62	120.02	# ca,ca,ca
   3	68.72	122.6	# ca,c,o
   4	67.68	115.25	# ca,c,n
   5	48.33	117.55	# c,n,hn
   6	64.28	120.33	# c,ca,ca
   7	47.98	119.86	# cp,ca,ha
   8	39.4	107.58	# hc,c3,hc
   9	63.53	120.77	# c3,ca,ca
  10	70.89	107.36	# f,c3,f
  11	67.87	120.19	# ca,ca,n
  12	66.72	118.38	# ca,cp,ca
  13	46.8	110.47	# ca,c3,hc
  14	62.86	111.51	# c3,c3,c3
  15	66.11	109.24	# c3,c3,f
  16	63.15	112.07	# c3,c3,ca
  17	63.82	123.71	# c,n,ca
  18	66.26	120.69	# ca,ca,cp
  19	63.56	112.24	# ca,c3,ca
  20	63.74	127.08	# c,n,c
  21	48.18	119.88	# ca,ca,ha
  22	64.05	121.11	# ca,cp,cp

Dihedral Coeffs

   1	2	2.5	2	180	2.0	1	0	# hn,n,c,o
   2	1	3.625	2	180	# X,ca,cp,X
   3	1	1.0	2	180	# X,cp,cp,X
   4	1	3.625	2	180	# X,ca,ca,X
   5	1	1.0	2	180	# X,c,ca,X
   6	1	0.0	2	0	# X,c3,ca,X
   7	1	0.15555555555555556	3	0	# X,c3,c3,X
   8	1	2.5	2	180	# X,c,n,X
   9	1	0.45	2	180	# X,ca,n,X

Improper Coeffs

   1	10.5	-1	2	# c,X,X,o
   2	1.1	-1	2	# n,X,X,hn
   3	1.1	-1	2	# ca,ca,ca,c3
   4	1.1	-1	2	# ca,X,X,ha

Atoms

   1	1	1	-0.015291	-8.18465	96.8138	76.6871
   2	1	1	-0.066451	-8.75276	98.114	76.6073
   3	1	1	-0.157747	-10.1089	98.2305	76.1883
   4	1	2	-0.394636	-7.58388	93.7692	76.7404
   5	1	1	0.035045	-8.98164	95.7067	76.3753
   6	1	1	-0.04863	-10.8915	97.1018	75.8702
   7	1	2	-0.369731	-11.9888	94.2379	75.3446
   8	1	1	0.009912	-10.2942	95.8442	75.973
   9	1	3	0.064933	-8.65034	94.2597	76.4088
  10	1	4	0.489832	-9.81555	93.6096	76.0044
  11	1	3	0.01974	-10.8549	94.494	75.7147
  12	1	1	-0.15002	-10.3799	100.506	79.754
  13	1	5	-0.109385	-7.95082	99.4118	76.9262
  14	1	1	-0.027748	-8.84347	100.324	77.8184
  15	1	1	-0.058225	-9.57074	99.7376	78.893
  16	1	1	-0.058862	-10.4464	101.885	79.5331
  17	1	1	-0.073426	-8.92436	101.732	77.6439
  18	1	1	-0.053817	-9.73447	102.478	78.511
  19	1	5	0.313225	-7.57959	100.054	75.5338
  20	1	5	0.370299	-6.62797	99.1554	77.7463
  21	1	6	-0.09626	-6.68434	101.063	75.6278
  22	1	6	-0.107747	-8.66844	100.548	74.9017
  23	1	6	-0.102822	-7.03895	99.1406	74.6954
  24	1	6	-0.119294	-5.66524	98.5381	77.0248
  25	1	6	-0.123874	-6.85786	98.3936	78.8398
  26	1	6	-0.116977	-6.08949	100.31	78.2011
  27	1	3	0.454578	-9.96192	103.946	78.5826
  28	1	3	0.475587	-11.1568	102.952	80.2896
  29	1	4	-0.008375	-10.7974	104.145	79.6748
  30	1	2	-0.468822	-9.47567	104.788	77.8477
  31	1	2	-0.475809	-11.8592	102.795	81.2729
  32	1	1	-0.104577	-11.1575	105.436	80.166
  33	1	1	0.090513	-12.2428	106.129	79.588
  34	1	1	0.041176	-10.4036	106.043	81.2013
  35	1	1	0.130327	-10.7372	107.345	81.65
  36	1	7	-0.071967	-11.8218	108.05	81.0623
  37	1	1	-0.178735	-12.5609	107.421	80.0375
  38	1	5	-0.205934	-13.0572	105.515	78.4567
  39	1	1	-0.139817	-9.30088	105.376	81.7845
  40	1	1	-0.146593	-8.54549	105.985	82.7968
  41	1	1	-0.1545	-8.88118	107.268	83.2441
  42	1	1	-0.172216	-9.97004	107.944	82.6731
  43	1	7	-0.107816	-12.1373	109.465	81.4293
  44	1	1	-0.127649	-11.4645	110.499	80.7389
  45	1	1	-0.062495	-11.6641	111.848	81.066
  46	1	1	0.148158	-12.5559	112.182	82.1008
  47	1	1	-0.091615	-13.2392	111.176	82.8072
  48	1	1	0.137007	-13.0344	109.815	82.4761
  49	1	1	-0.133704	-13.7221	108.826	83.2084
  50	1	1	-0.230679	-14.116	111.53	83.8517
  51	1	1	-0.154845	-14.5969	109.183	84.249
  52	1	1	-0.105714	-14.7936	110.534	84.5718
  53	1	5	-0.373818	-10.8954	112.92	80.3085
  54	1	8	0.152766	-7.15623	96.636	76.9821
  55	1	8	0.155405	-10.5679	99.2134	76.1062
  56	1	8	0.159938	-11.9283	97.1968	75.5544
  57	1	8	0.168438	-10.9234	100.049	80.5791
  58	1	8	0.13763	-9.50218	98.6673	79.0716
  59	1	8	0.146749	-8.37034	102.26	76.8744
  60	1	8	0.160749	-13.3801	107.965	79.5754
  61	1	10	0.074263	-13.4512	104.531	78.7406
  62	1	10	0.076992	-12.4413	105.391	77.557
  63	1	10	0.075732	-13.9138	106.143	78.1841
  64	1	8	0.120118	-9.0101	104.382	81.4627
  65	1	8	0.145089	-7.69907	105.46	83.2326
  66	1	8	0.146654	-8.29724	107.742	84.0298
  67	1	8	0.147988	-10.2143	108.939	83.0327
  68	1	8	0.166658	-10.7657	110.239	79.9482
  69	1	8	0.132671	-13.5799	107.775	82.9751
  70	1	8	0.178371	-14.2688	112.577	84.1079
  71	1	8	0.137951	-15.1206	108.411	84.8072
  72	1	8	0.128868	-15.468	110.808	85.3797
  73	1	10	0.119422	-9.81336	112.787	80.4336
  74	1	10	0.137967	-11.1466	113.929	80.6595
  75	1	10	0.115874	-11.1167	112.878	79.2347
  76	1	1	-0.015291	-13.5606	75.6616	75.0993
  77	1	1	-0.066451	-13.0179	76.775	75.7974
  78	1	1	-0.157747	-11.7188	76.6381	76.3649
  79	1	2	-0.394636	-14.129	72.9875	73.6394
  80	1	1	0.035045	-12.7843	74.5073	74.9502
  81	1	1	-0.04863	-10.9485	75.4675	76.1942
  82	1	2	-0.369731	-9.81611	72.6893	75.3339
  83	1	1	0.009912	-11.5084	74.4149	75.4658
  84	1	3	0.064933	-13.0922	73.2476	74.228
  85	1	4	0.489832	-11.939	72.4713	74.3373
  86	1	3	0.01974	-10.9364	73.0978	75.0784
  87	1	1	-0.15002	-11.0153	80.3213	74.4109
  88	1	5	-0.109385	-13.8012	78.1117	75.9932
  89	1	1	-0.027748	-12.8395	79.3165	75.7543
  90	1	1	-0.058225	-11.8618	79.2378	74.7213
  91	1	1	-0.058862	-11.1768	81.5076	75.132
  92	1	1	-0.073426	-12.9747	80.5476	76.4529
  93	1	1	-0.053817	-12.1346	81.6185	76.1181
  94	1	5	0.313225	-14.3862	78.0647	77.4559
  95	1	5	0.370299	-14.9794	78.2992	74.9614
  96	1	6	-0.09626	-13.414	78.2247	78.3818
  97	1	6	-0.107747	-14.9726	76.8737	77.7171
  98	1	6	-0.102822	-15.3254	79.007	77.6955
  99	1	6	-0.119294	-14.559	78.0911	73.6927
 100	1	6	-0.123874	-15.4803	79.5554	74.9881
 101	1	6	-0.116977	-16.0233	77.4694	75.1849
 102	1	3	0.454578	-12.1381	83.0269	76.6007
 103	1	3	0.475587	-10.528	82.8345	74.9571
 104	1	4	-0.008375	-11.1818	83.686	75.8374
 105	1	2	-0.468822	-12.8869	83.5015	77.4366
 106	1	2	-0.475809	-9.66524	83.1145	74.143
 107	1	1	-0.104577	-10.9879	85.0997	75.8451
 108	1	1	0.090513	-10.0927	85.6819	76.7672
 109	1	1	0.041176	-11.675	85.9181	74.9132
 110	1	1	0.130327	-11.4511	87.3175	74.8999
 111	1	7	-0.071967	-10.5366	87.9045	75.8162
 112	1	1	-0.178735	-9.88168	87.0698	76.7468
 113	1	5	-0.205934	-9.34001	84.8313	77.782
 114	1	1	-0.139817	-12.5895	85.3594	73.9891
 115	1	1	-0.146593	-13.2687	86.1703	73.0683
 116	1	1	-0.1545	-13.0502	87.5528	73.0597
 117	1	1	-0.172216	-12.1504	88.1213	73.9727
 118	1	7	-0.107816	-10.2681	89.3762	75.8454
 119	1	1	-0.127649	-10.8176	90.1342	76.8982
 120	1	1	-0.062495	-10.6622	91.526	76.9589
 121	1	1	0.148158	-9.94396	92.194	75.9391
 122	1	1	-0.091615	-9.36531	91.4541	74.8755
 123	1	1	0.137007	-9.52131	90.045	74.8374
 124	1	1	-0.133704	-8.93061	89.312	73.7861
 125	1	1	-0.230679	-8.63565	92.0954	73.844
 126	1	1	-0.154845	-8.20432	89.9589	72.776
 127	1	1	-0.105714	-8.06038	91.3508	72.8037
 128	1	5	-0.373818	-11.2985	92.2774	78.1265
 129	1	8	0.152766	-14.5516	75.666	74.6596
 130	1	8	0.155405	-11.2884	77.46	76.933
 131	1	8	0.159938	-9.94501	75.3811	76.6055
 132	1	8	0.168438	-10.2852	80.2592	73.6061
 133	1	8	0.13763	-11.7694	78.331	74.129
 134	1	8	0.146749	-13.7374	80.7102	77.2069
 135	1	8	0.160749	-9.18643	87.5172	77.4515
 136	1	10	0.074263	-8.68184	85.4402	78.4139
 137	1	10	0.076992	-8.71266	84.084	77.2806
 138	1	10	0.075732	-10.0369	84.306	78.447
 139	1	8	0.120118	-12.7914	84.2942	73.9709
 140	1	8	0.145089	-13.9679	85.7259	72.3642
 141	1	8	0.146654	-13.5783	88.185	72.3496
 142	1	8	0.147988	-12.0023	89.1965	73.9533
 143	1	8	0.166658	-11.3938	89.6216	77.6645
 144	1	8	0.132671	-9.02627	88.2312	73.7471
 145	1	8	0.178371	-8.4898	93.1715	73.831
 146	1	8	0.137951	-7.75307	89.3797	71.9742
 147	1	8	0.128868	-7.49595	91.8524	72.0209
 148	1	10	0.119422	-11.6984	91.5892	78.8821
 149	1	10	0.137967	-12.1388	92.8985	77.7868
 150	1	10	0.115874	-10.5736	92.9238	78.6377
 151	1	1	-0.015291	-10.8035	59.5787	61.9394
 152	1	1	-0.066451	-10.8821	60.2684	63.1801
 153	1	1	-0.157747	-9.71567	60.945	63.644
 154	1	2	-0.394636	-10.1087	58.5863	59.0796
 155	1	1	0.035045	-9.60762	59.6116	61.2125
 156	1	1	-0.04863	-8.51387	60.9456	62.9068
 157	1	2	-0.369731	-6.36287	60.813	60.6768
 158	1	1	0.009912	-8.49387	60.2761	61.6828
 159	1	3	0.064933	-9.32812	59.1536	59.826
 160	1	4	0.489832	-8.04435	59.6182	59.5438
 161	1	3	0.01974	-7.45318	60.2682	60.6253
 162	1	1	-0.15002	-11.0951	60.7027	67.6607
 163	1	5	-0.109385	-12.2427	60.398	63.9295
 164	1	1	-0.027748	-12.0095	60.9948	65.3662
 165	1	1	-0.058225	-11.3428	60.2163	66.3596
 166	1	1	-0.058862	-11.4926	62.0075	67.9631
 167	1	1	-0.073426	-12.3808	62.3232	65.7263
 168	1	1	-0.053817	-12.1003	62.7972	67.0137
 169	1	5	0.313225	-12.9434	58.9855	64.0946
 170	1	5	0.370299	-13.169	61.3313	63.048
 171	1	6	-0.09626	-13.9043	59.0208	65.0455
 172	1	6	-0.107747	-12.0656	58.0205	64.4478
 173	1	6	-0.102822	-13.5403	58.5146	62.9784
 174	1	6	-0.119294	-14.3575	61.5745	63.6455
 175	1	6	-0.123874	-13.4543	60.8313	61.8252
 176	1	6	-0.116977	-12.5731	62.5176	62.7883
 177	1	3	0.454578	-12.3102	64.1482	67.6004
 178	1	3	0.475587	-11.3172	62.8159	69.2013
 179	1	4	-0.008375	-11.8	64.0824	68.8917
 180	1	2	-0.468822	-12.7743	65.1169	67.0247
 181	1	2	-0.475809	-10.7936	62.4433	70.2366
 182	1	1	-0.104577	-11.7187	65.2078	69.77
 183	1	1	0.090513	-12.8874	65.6793	70.4073
 184	1	1	0.041176	-10.4824	65.8688	69.991
 185	1	1	0.130327	-10.425	66.9998	70.8462
 186	1	7	-0.071967	-11.6046	67.4898	71.4688
 187	1	1	-0.178735	-12.8192	66.8097	71.2363
 188	1	5	-0.205934	-14.2363	65.0011	70.2006
 189	1	1	-0.139817	-9.29524	65.4252	69.3613
 190	1	1	-0.146593	-8.0715	66.0697	69.5948
 191	1	1	-0.1545	-8.01353	67.1701	70.4581
 192	1	1	-0.172216	-9.18425	67.633	71.0759
 193	1	7	-0.107816	-11.6283	68.7465	72.2849
 194	1	1	-0.127649	-11.4585	69.9761	71.6156
 195	1	1	-0.062495	-11.5275	71.2003	72.295
 196	1	1	0.148158	-11.7872	71.2145	73.6852
 197	1	1	-0.091615	-11.9301	69.9925	74.3916
 198	1	1	0.137007	-11.8504	68.7616	73.6887
 199	1	1	-0.133704	-11.9847	67.5505	74.3994
 200	1	1	-0.230679	-12.1528	69.9771	75.7901
 201	1	1	-0.154845	-12.1977	67.5496	75.7857
 202	1	1	-0.105714	-12.2823	68.7624	76.4799
 203	1	5	-0.373818	-11.3346	72.4883	71.4972
 204	1	8	0.152766	-11.6636	59.0871	61.4956
 205	1	8	0.155405	-9.73168	61.5269	64.5603
 206	1	8	0.159938	-7.64168	61.5028	63.2418
 207	1	8	0.168438	-10.5861	60.0936	68.4056
 208	1	8	0.13763	-10.9826	59.2207	66.1278
 209	1	8	0.146749	-12.8648	63.0133	65.0458
 210	1	8	0.160749	-13.7266	67.1907	71.697
 211	1	10	0.074263	-14.6004	65.1572	69.1774
 212	1	10	0.076992	-14.9984	65.3986	70.882
 213	1	10	0.075732	-14.1711	63.9214	70.3817
 214	1	8	0.120118	-9.29893	64.5737	68.6906
 215	1	8	0.145089	-7.16624	65.7094	69.1122
 216	1	8	0.146654	-7.06367	67.6638	70.6503
 217	1	8	0.147988	-9.1175	68.4822	71.7492
 218	1	8	0.166658	-11.2896	69.9653	70.5415
 219	1	8	0.132671	-11.9106	66.5991	73.8819
 220	1	8	0.178371	-12.2105	70.8948	76.3687
 221	1	8	0.137951	-12.291	66.6082	76.3213
 222	1	8	0.128868	-12.441	68.7606	77.5559
 223	1	10	0.119422	-12.2609	73.0772	71.4608
 224	1	10	0.137967	-11.0478	72.2833	70.4576
 225	1	10	0.115874	-10.5417	73.1139	71.9278
 226	1	1	-0.015291	-0.1775	62.0235	43.1003
 227	1	1	-0.066451	-0.646863	62.0506	44.4421
 228	1	1	-0.157747	0.315986	62.1168	45.4895
 229	1	2	-0.394636	1.46578	62.06	40.4568
 230	1	1	0.035045	1.20214	62.0292	42.8623
 231	1	1	-0.04863	1.70121	62.1056	45.2289
 232	1	2	-0.369731	4.52972	62.1118	43.9463
 233	1	1	0.009912	2.11485	62.0568	43.8967
 234	1	3	0.064933	1.94937	62.0581	41.5769
 235	1	4	0.489832	3.29512	62.1011	41.9406
 236	1	3	0.01974	3.48202	62.0871	43.3223
 237	1	1	-0.15002	-2.07659	59.3091	47.4785
 238	1	5	-0.109385	-2.16457	62.1153	44.7885
 239	1	1	-0.027748	-2.41374	61.3639	46.1339
 240	1	1	-0.058225	-1.87777	60.0548	46.2986
 241	1	1	-0.058862	-2.83166	59.8901	48.5016
 242	1	1	-0.073426	-3.18561	61.9082	47.1971
 243	1	1	-0.053817	-3.37097	61.1513	48.3613
 244	1	5	0.313225	-3.0748	61.4002	43.7152
 245	1	5	0.370299	-2.53149	63.6468	44.8482
 246	1	6	-0.09626	-2.5805	60.1908	43.3667
 247	1	6	-0.107747	-3.22397	62.1041	42.571
 248	1	6	-0.102822	-4.32255	61.1823	44.1898
 249	1	6	-0.119294	-2.1277	64.3077	43.739
 250	1	6	-0.123874	-1.92019	64.261	45.8868
 251	1	6	-0.116977	-3.8606	63.8676	44.9642
 252	1	3	0.454578	-4.12162	61.4748	49.6047
 253	1	3	0.475587	-3.21521	59.3645	49.8399
 254	1	4	-0.008375	-3.97494	60.3667	50.4294
 255	1	2	-0.468822	-4.72889	62.506	49.8335
 256	1	2	-0.475809	-2.91688	58.2766	50.3013
 257	1	1	-0.104577	-4.5416	60.2645	51.7347
 258	1	1	0.090513	-5.79439	59.6341	51.895
 259	1	1	0.041176	-3.85665	60.7744	52.866
 260	1	1	0.130327	-4.42644	60.6382	54.1567
 261	1	7	-0.071967	-5.68092	59.9929	54.3205
 262	1	1	-0.178735	-6.34778	59.5055	53.1778
 263	1	5	-0.205934	-6.56226	59.0832	50.6999
 264	1	1	-0.139817	-2.60486	61.4185	52.7314
 265	1	1	-0.146593	-1.93102	61.9212	53.8548
 266	1	1	-0.1545	-2.49536	61.7851	55.1292
 267	1	1	-0.172216	-3.73495	61.1462	55.2777
 268	1	7	-0.107816	-6.31461	59.8161	55.6618
 269	1	1	-0.127649	-7.18444	60.8191	56.1323
 270	1	1	-0.062495	-7.76558	60.7427	57.4053
 271	1	1	0.148158	-7.48205	59.6347	58.2384
 272	1	1	-0.091615	-6.62131	58.604	57.7847
 273	1	1	0.137007	-6.03782	58.7001	56.4957
 274	1	1	-0.133704	-5.16824	57.6823	56.0517
 275	1	1	-0.230679	-6.32216	57.4843	58.5978
 276	1	1	-0.154845	-4.87988	56.578	56.8665
 277	1	1	-0.105714	-5.45769	56.479	58.1381
 278	1	5	-0.373818	-8.67656	61.8816	57.8614
 279	1	8	0.152766	-0.846673	62.0272	42.2467
 280	1	8	0.155405	-0.00681201	62.1953	46.525
 281	1	8	0.159938	2.43298	62.1595	46.0323
 282	1	8	0.168438	-1.66256	58.3092	47.5951
 283	1	8	0.13763	-1.29175	59.6078	45.4996
 284	1	8	0.146749	-3.6457	62.8895	47.1503
 285	1	8	0.160749	-7.30878	59.0143	53.3028
 286	1	10	0.074263	-6.00818	58.267	50.2199
 287	1	10	0.076992	-6.74104	59.8652	49.9515
 288	1	10	0.075732	-7.54116	58.6856	50.9944
 289	1	8	0.120118	-2.14	61.5419	51.7593
 290	1	8	0.145089	-0.970531	62.4169	53.7363
 291	1	8	0.146654	-1.97477	62.173	56.0019
 292	1	8	0.147988	-4.15591	61.0488	56.2741
 293	1	8	0.166658	-7.38775	61.6763	55.4952
 294	1	8	0.132671	-4.70923	57.7407	55.0693
 295	1	8	0.178371	-6.74978	57.3705	59.5896
 296	1	8	0.137951	-4.20823	55.8009	56.5105
 297	1	8	0.128868	-5.23321	55.6215	58.7683
 298	1	10	0.119422	-8.80157	62.6405	57.0786
 299	1	10	0.137967	-8.2666	62.3968	58.7408
 300	1	10	0.115874	-9.68182	61.5159	58.1105
 301	1	1	-0.015291	18.9622	59.4628	33.7532
 302	1	1	-0.066451	17.9645	59.9433	34.6462
 303	1	1	-0.157747	17.4666	59.0546	35.641
 304	1	2	-0.394636	20.9703	57.7711	32.0707
 305	1	1	0.035045	19.3935	58.1347	33.872
 306	1	1	-0.04863	17.9221	57.7266	35.7504
 307	1	2	-0.369731	19.2679	54.9632	35.3527
 308	1	1	0.009912	18.8884	57.2935	34.8431
 309	1	3	0.064933	20.3582	57.3619	33.0434
 310	1	4	0.489832	20.3548	56.0775	33.5874
 311	1	3	0.01974	19.5053	55.9555	34.6842
 312	1	1	-0.15002	13.7811	60.1972	33.8785
 313	1	5	-0.109385	17.4018	61.3958	34.6035
 314	1	1	-0.027748	15.8486	61.3001	34.6836
 315	1	1	-0.058225	15.1788	60.3695	33.8391
 316	1	1	-0.058862	13.0515	60.977	34.7795
 317	1	1	-0.073426	15.0633	62.0908	35.5659
 318	1	1	-0.053817	13.6749	61.8982	35.5952
 319	1	5	0.313225	17.7326	62.1717	33.2701
 320	1	5	0.370299	18.0588	62.1617	35.8178
 321	1	6	-0.09626	19.0402	62.4944	33.1514
 322	1	6	-0.107747	17.0374	63.3286	33.1842
 323	1	6	-0.102822	17.4024	61.4567	32.171
 324	1	6	-0.119294	17.6312	61.6899	37.011
 325	1	6	-0.123874	17.8112	63.4906	35.808
 326	1	6	-0.116977	19.4038	62.0177	35.8238
 327	1	3	0.454578	12.6428	62.5004	36.4819
 328	1	3	0.475587	11.6029	60.9563	35.1149
 329	1	4	-0.008375	11.4508	61.8653	36.1532
 330	1	2	-0.468822	12.8444	63.2947	37.3837
 331	1	2	-0.475809	10.7648	60.2082	34.6426
 332	1	1	-0.104577	10.2418	62.0064	36.8971
 333	1	1	0.090513	10.0869	61.2565	38.0822
 334	1	1	0.041176	9.19016	62.8438	36.4491
 335	1	1	0.130327	7.98337	62.9246	37.192
 336	1	7	-0.071967	7.84069	62.1984	38.4085
 337	1	1	-0.178735	8.9018	61.3659	38.8211
 338	1	5	-0.205934	11.1822	60.3226	38.5849
 339	1	1	-0.139817	9.32333	63.6019	35.2632
 340	1	1	-0.146593	8.27403	64.4155	34.8099
 341	1	1	-0.1545	7.07242	64.4723	35.5268
 342	1	1	-0.172216	6.92819	63.727	36.7062
 343	1	7	-0.107816	6.62292	62.2541	39.2812
 344	1	1	-0.127649	5.90617	61.0576	39.4955
 345	1	1	-0.062495	4.7992	61.0038	40.3545
 346	1	1	0.148158	4.37261	62.1787	41.0144
 347	1	1	-0.091615	5.06175	63.4013	40.8063
 348	1	1	0.137007	6.20114	63.4308	39.9618
 349	1	1	-0.133704	6.92452	64.636	39.8278
 350	1	1	-0.230679	4.64526	64.5943	41.4481
 351	1	1	-0.154845	6.50484	65.8077	40.473
 352	1	1	-0.105714	5.35871	65.7887	41.2748
 353	1	5	-0.373818	4.10078	59.6623	40.5659
 354	1	8	0.152766	19.3978	60.0767	32.972
 355	1	8	0.155405	16.708	59.394	36.3424
 356	1	8	0.159938	17.5311	57.0485	36.506
 357	1	8	0.168438	13.2813	59.4642	33.2479
 358	1	8	0.13763	15.7524	59.7519	33.1527
 359	1	8	0.146749	15.4958	62.8228	36.2404
 360	1	8	0.160749	8.79713	60.805	39.7454
 361	1	10	0.074263	12.0806	60.8864	38.8656
 362	1	10	0.076992	11.46	59.5889	37.8182
 363	1	10	0.075732	10.8608	59.76	39.4698
 364	1	8	0.120118	10.2373	63.5716	34.6797
 365	1	8	0.145089	8.38998	64.9944	33.8968
 366	1	8	0.146654	6.2528	65.0924	35.1707
 367	1	8	0.147988	5.9862	63.7783	37.2431
 368	1	8	0.166658	6.23447	60.1551	38.9862
 369	1	8	0.132671	7.82387	64.6758	39.2226
 370	1	8	0.178371	3.77272	64.6215	42.0939
 371	1	8	0.137951	7.07086	66.7279	40.3519
 372	1	8	0.128868	5.03226	66.6974	41.7754
 373	1	10	0.119422	4.1159	59.362	41.6217
 374	1	10	0.137967	4.58478	58.8571	39.9981
 375	1	10	0.115874	3.05524	59.7004	40.2311
 376	1	1	-0.015291	24.15	40.227	25.5142
 377	1	1	-0.066451	23.7217	41.307	26.3322
 378	1	1	-0.157747	23.1267	40.9993	27.589
 379	1	2	-0.394636	24.6744	37.5055	24.1368
 380	1	1	0.035045	23.9793	38.9166	25.9706
 381	1	1	-0.04863	22.9717	39.6682	28.0346
 382	1	2	-0.369731	22.7713	36.5601	28.2628
 383	1	1	0.009912	23.4076	38.6394	27.1952
 384	1	3	0.064933	24.2247	37.6356	25.2635
 385	1	4	0.489832	23.7581	36.648	26.128
 386	1	3	0.01974	23.2689	37.1642	27.3274
 387	1	1	-0.15002	25.4036	44.3509	28.9759
 388	1	5	-0.109385	23.7421	42.7801	25.8231
 389	1	1	-0.027748	24.0089	43.7526	27.014
 390	1	1	-0.058225	25.0669	43.47	27.9244
 391	1	1	-0.058862	24.67	45.5364	29.1028
 392	1	1	-0.073426	23.2943	44.9692	27.1818
 393	1	1	-0.053817	23.6469	45.83	28.2272
 394	1	5	0.313225	22.3426	43.0088	25.1326
 395	1	5	0.370299	24.8916	43.0582	24.7778
 396	1	6	-0.09626	21.3403	43.0252	26.0408
 397	1	6	-0.107747	22.0396	42.0181	24.2626
 398	1	6	-0.102822	22.2765	44.1612	24.4283
 399	1	6	-0.119294	25.0833	44.384	24.5892
 400	1	6	-0.123874	24.6531	42.5356	23.554
 401	1	6	-0.116977	26.0744	42.5562	25.1993
 402	1	3	0.454578	23.0825	47.1527	28.5971
 403	1	3	0.475587	24.7916	46.6661	30.0698
 404	1	4	-0.008375	23.8162	47.583	29.6949
 405	1	2	-0.468822	22.1445	47.7107	28.0547
 406	1	2	-0.475809	25.5833	46.7465	30.9925
 407	1	1	-0.104577	23.5545	48.8208	30.3575
 408	1	1	0.090513	22.4803	48.8917	31.2695
 409	1	1	0.041176	24.2816	49.9944	30.033
 410	1	1	0.130327	23.8993	51.2428	30.59
 411	1	7	-0.071967	22.7972	51.3191	31.4849
 412	1	1	-0.178735	22.1142	50.1301	31.8147
 413	1	5	-0.205934	21.6816	47.6526	31.6549
 414	1	1	-0.139817	25.3744	49.9466	29.1369
 415	1	1	-0.146593	26.078	51.1126	28.7993
 416	1	1	-0.1545	25.6901	52.3458	29.3379
 417	1	1	-0.172216	24.6032	52.4097	30.2219
 418	1	7	-0.107816	22.2602	52.6069	32.0272
 419	1	1	-0.127649	21.0146	53.0496	31.537
 420	1	1	-0.062495	20.403	54.2122	32.0238
 421	1	1	0.148158	21.0454	54.9665	33.0315
 422	1	1	-0.091615	22.3078	54.5581	33.5316
 423	1	1	0.137007	22.9088	53.3727	33.0344
 424	1	1	-0.133704	24.1449	52.9507	33.567
 425	1	1	-0.230679	22.9719	55.3033	34.5361
 426	1	1	-0.154845	24.7925	53.6979	34.5619
 427	1	1	-0.105714	24.2079	54.8757	35.0427
 428	1	5	-0.373818	19.0397	54.6133	31.4638
 429	1	8	0.152766	24.5548	40.3692	24.5186
 430	1	8	0.155405	22.738	41.7987	28.2157
 431	1	8	0.159938	22.4854	39.4378	28.9802
 432	1	8	0.168438	26.2206	44.1301	29.6603
 433	1	8	0.13763	25.6482	42.5588	27.8067
 434	1	8	0.146749	22.4931	45.2786	26.5198
 435	1	8	0.160749	21.2693	50.1854	32.4956
 436	1	10	0.074263	22.3419	46.857	32.0219
 437	1	10	0.076992	21.1177	47.2653	30.7974
 438	1	10	0.075732	20.9593	47.8674	32.4519
 439	1	8	0.120118	25.6984	49.0089	28.6983
 440	1	8	0.145089	26.921	51.0599	28.1146
 441	1	8	0.146654	26.2283	53.2522	29.07
 442	1	8	0.147988	24.3119	53.3763	30.6215
 443	1	8	0.166658	20.518	52.4619	30.769
 444	1	8	0.132671	24.6117	52.0367	33.2134
 445	1	8	0.178371	22.5501	56.2193	34.9396
 446	1	8	0.137951	25.746	53.3613	34.9609
 447	1	8	0.128868	24.7107	55.4542	35.8145
 448	1	10	0.119422	18.2671	54.6059	32.2443
 449	1	10	0.137967	18.7057	53.9254	30.6762
 450	1	10	0.115874	19.0712	55.616	31.0163
 451	1	1	-0.015291	17.6622	21.9015	18.2048
 452	1	1	-0.066451	18.3939	22.9326	18.8556
 453	1	1	-0.157747	18.8304	24.0399	18.0717
 454	1	2	-0.394636	15.8703	20.2045	16.3193
 455	1	1	0.035045	17.3886	22.016	16.8366
 456	1	1	-0.04863	18.5647	24.1245	16.6897
 457	1	2	-0.369731	17.3691	23.8335	13.844
 458	1	1	0.009912	17.8287	23.0963	16.0994
 459	1	3	0.064933	16.4871	21.2007	15.9798
 460	1	4	0.489832	16.4191	21.8896	14.7698
 461	1	3	0.01974	17.2359	23.0181	14.7416
 462	1	1	-0.15002	22.173	24.4109	20.559
 463	1	5	-0.109385	18.5605	22.9476	20.4057
 464	1	1	-0.027748	19.7614	23.871	20.801
 465	1	1	-0.058225	21.0532	23.6045	20.2608
 466	1	1	-0.058862	21.988	25.506	21.4096
 467	1	1	-0.073426	19.6285	24.9894	21.67
 468	1	1	-0.053817	20.7481	25.7831	21.9425
 469	1	5	0.313225	18.8791	21.5153	20.9927
 470	1	5	0.370299	17.1814	23.4518	20.9872
 471	1	6	-0.09626	19.3575	21.5955	22.2554
 472	1	6	-0.107747	19.8135	20.8694	20.2603
 473	1	6	-0.102822	17.8117	20.6888	21.049
 474	1	6	-0.119294	16.1311	22.7085	20.5711
 475	1	6	-0.123874	16.9058	24.712	20.5793
 476	1	6	-0.116977	17.1488	23.4316	22.339
 477	1	3	0.454578	20.8494	27.0385	22.7296
 478	1	3	0.475587	22.9317	26.5738	21.8481
 479	1	4	-0.008375	22.1659	27.4595	22.5978
 480	1	2	-0.468822	19.9345	27.6039	23.303
 481	1	2	-0.475809	24.1028	26.6791	21.5289
 482	1	1	-0.104577	22.6262	28.7186	23.0894
 483	1	1	0.090513	22.9093	28.8681	24.4644
 484	1	1	0.041176	22.7121	29.8395	22.2249
 485	1	1	0.130327	23.0574	31.1108	22.7486
 486	1	7	-0.071967	23.2899	31.2749	24.1421
 487	1	1	-0.178735	23.2241	30.1372	24.9751
 488	1	5	-0.205934	22.8317	27.6866	25.4231
 489	1	1	-0.139817	22.4346	29.7191	20.8421
 490	1	1	-0.146593	22.5224	30.8296	19.9895
 491	1	1	-0.1545	22.8898	32.0782	20.5034
 492	1	1	-0.172216	23.1549	32.2156	21.8729
 493	1	7	-0.107816	23.4643	32.6301	24.7556
 494	1	1	-0.127649	22.375	33.5224	24.675
 495	1	1	-0.062495	22.4623	34.8369	25.1474
 496	1	1	0.148158	23.6621	35.282	25.7468
 497	1	1	-0.091615	24.7601	34.3953	25.8856
 498	1	1	0.137007	24.6614	33.0712	25.3827
 499	1	1	-0.133704	25.7747	32.211	25.4843
 500	1	1	-0.230679	25.9644	34.8159	26.4997
 501	1	1	-0.154845	26.9611	32.6388	26.0986
 502	1	1	-0.105714	27.0537	33.9391	26.6099
 503	1	5	-0.373818	21.2558	35.7561	24.9684
 504	1	8	0.152766	17.2306	21.0667	18.7468
 505	1	8	0.155405	19.3355	24.8825	18.5357
 506	1	8	0.159938	18.8579	24.9948	16.1064
 507	1	8	0.168438	23.15	24.2059	20.125
 508	1	8	0.13763	21.1903	22.7735	19.5747
 509	1	8	0.146749	18.6883	25.2819	22.1239
 510	1	8	0.160749	23.3811	30.2603	26.0431
 511	1	10	0.074263	23.2741	27.9274	26.3975
 512	1	10	0.076992	23.373	26.8177	25.029
 513	1	10	0.075732	21.789	27.3927	25.5972
 514	1	8	0.120118	22.1565	28.7671	20.4051
 515	1	8	0.145089	22.3148	30.7194	18.9281
 516	1	8	0.146654	22.9707	32.939	19.8435
 517	1	8	0.147988	23.4507	33.1912	22.2462
 518	1	8	0.166658	21.4554	33.1812	24.2052
 519	1	8	0.132671	25.7296	31.2042	25.0816
 520	1	8	0.178371	26.0788	35.8184	26.9019
 521	1	8	0.137951	27.8094	31.9632	26.173
 522	1	8	0.128868	27.9745	34.2702	27.0846
 523	1	10	0.119422	20.4265	35.2444	24.463
 524	1	10	0.137967	21.5038	36.6355	24.3589
 525	1	10	0.115874	20.872	36.103	25.9374
 526	1	1	-0.015291	4.27548	19.1105	5.05311
 527	1	1	-0.066451	3.85418	20.4386	4.78312
 528	1	1	-0.157747	2.54937	20.8296	5.20107
 529	1	2	-0.394636	4.59877	16.1505	5.90817
 530	1	1	0.035045	3.41307	18.2475	5.73305
 531	1	1	-0.04863	1.68639	19.9345	5.86827
 532	1	2	-0.369731	0.312014	17.4461	7.14322
 533	1	1	0.009912	2.14855	18.6408	6.1184
 534	1	3	0.064933	3.59841	16.8229	6.0993
 535	1	4	0.489832	2.38636	16.4368	6.66869
 536	1	3	0.01974	1.45745	17.4753	6.72552
 537	1	1	-0.15002	8.63393	20.6251	3.84404
 538	1	5	-0.109385	4.78144	21.3712	3.95222
 539	1	1	-0.027748	6.25822	21.0908	4.36878
 540	1	1	-0.058225	7.30664	20.86	3.43004
 541	1	1	-0.058862	8.90849	20.6315	5.2145
 542	1	1	-0.073426	6.58785	21.0958	5.7497
 543	1	1	-0.053817	7.91267	20.8648	6.13892
 544	1	5	0.313225	4.52996	22.9077	4.2134
 545	1	5	0.370299	4.47628	21.045	2.44017
 546	1	6	-0.09626	4.45027	23.1882	5.53353
 547	1	6	-0.107747	3.39719	23.3792	3.64553
 548	1	6	-0.102822	5.5398	23.662	3.72239
 549	1	6	-0.119294	3.1531	21.1074	2.16619
 550	1	6	-0.123874	4.85978	19.7891	2.11532
 551	1	6	-0.116977	5.08644	21.8932	1.58164
 552	1	3	0.454578	8.53194	20.8888	7.49004
 553	1	3	0.475587	10.1991	20.4922	5.94166
 554	1	4	-0.008375	9.89153	20.6937	7.28097
 555	1	2	-0.468822	7.9563	21.1009	8.54323
 556	1	2	-0.475809	11.2969	20.3251	5.4395
 557	1	1	-0.104577	10.87	20.8224	8.31073
 558	1	1	0.090513	11.1467	19.7273	9.15677
 559	1	1	0.041176	11.5399	22.0563	8.50677
 560	1	1	0.130327	12.4681	22.1949	9.56823
 561	1	7	-0.071967	12.7196	21.105	10.4463
 562	1	1	-0.178735	12.0624	19.8789	10.2103
 563	1	5	-0.205934	10.4517	18.3854	8.96522
 564	1	1	-0.139817	11.2892	23.1648	7.66326
 565	1	1	-0.146593	11.955	24.3835	7.85848
 566	1	1	-0.1545	12.879	24.5159	8.90128
 567	1	1	-0.172216	13.1322	23.4285	9.7496
 568	1	7	-0.107816	13.6192	21.2374	11.6345
 569	1	1	-0.127649	14.8966	20.6393	11.6009
 570	1	1	-0.062495	15.8173	20.8205	12.6453
 571	1	1	0.148158	15.4603	21.6174	13.7565
 572	1	1	-0.091615	14.1698	22.2011	13.8322
 573	1	1	0.137007	13.2497	22.0031	12.7738
 574	1	1	-0.133704	11.9673	22.5885	12.8558
 575	1	1	-0.230679	13.7859	22.9966	14.9414
 576	1	1	-0.154845	11.5995	23.3696	13.9604
 577	1	1	-0.105714	12.5104	23.5754	15.002
 578	1	5	-0.373818	17.1971	20.1788	12.5348
 579	1	8	0.152766	5.24037	18.7349	4.72212
 580	1	8	0.155405	2.16807	21.8221	4.98687
 581	1	8	0.159938	0.680099	20.2262	6.16163
 582	1	8	0.168438	9.43185	20.4648	3.12101
 583	1	8	0.13763	7.12026	20.8682	2.36235
 584	1	8	0.146749	5.83587	21.2873	6.51184
 585	1	8	0.160749	12.2517	19.0463	10.882
 586	1	10	0.074263	9.38111	18.4634	9.19245
 587	1	10	0.076992	10.8723	17.6134	9.62104
 588	1	10	0.075732	10.5586	18.0279	7.93357
 589	1	8	0.120118	10.5838	23.1003	6.84234
 590	1	8	0.145089	11.7556	25.2235	7.19761
 591	1	8	0.146654	13.3994	25.4588	9.05386
 592	1	8	0.147988	13.8551	23.5531	10.55
 593	1	8	0.166658	15.1786	20.0585	10.7263
 594	1	8	0.132671	11.2416	22.4413	12.0623
 595	1	8	0.178371	14.456	23.1794	15.7761
 596	1	8	0.137951	10.6091	23.8153	14.0066
 597	1	8	0.128868	12.2261	24.1818	15.8589
 598	1	10	0.119422	17.9892	20.9388	12.502
 599	1	10	0.137967	17.2941	19.5762	11.6223
 600	1	10	0.115874	17.395	19.5095	13.3828
 601	1	1	-0.015291	-1.444	-1.18654	8.97352
 602	1	1	-0.066451	-1.58312	0.226438	9.05095
 603	1	1	-0.157747	-2.34493	0.88277	8.04243
 604	1	2	-0.394636	-1.50041	-4.20613	8.22214
 605	1	1	0.035045	-2.0293	-1.86729	7.89834
 606	1	1	-0.04863	-2.92944	0.178298	6.97085
 607	1	2	-0.369731	-3.90553	-1.96648	4.9412
 608	1	1	0.009912	-2.74738	-1.20453	6.92338
 609	1	3	0.064933	-2.03465	-3.31911	7.57712
 610	1	4	0.489832	-2.77977	-3.42807	6.4032
 611	1	3	0.01974	-3.24059	-2.19813	5.93755
 612	1	1	-0.15002	1.08196	3.25549	7.71819
 613	1	5	-0.109385	-0.968549	1.08306	10.2
 614	1	1	-0.027748	-0.295046	2.33291	9.55906
 615	1	1	-0.058225	0.480739	2.1649	8.37658
 616	1	1	-0.058862	0.916265	4.52657	8.27487
 617	1	1	-0.073426	-0.406583	3.63848	10.109
 618	1	1	-0.053817	0.20506	4.70898	9.44285
 619	1	5	0.313225	0.16181	0.341701	11.0105
 620	1	5	0.370299	-2.15953	1.43505	11.1738
 621	1	6	-0.09626	-0.308791	-0.661674	11.785
 622	1	6	-0.107747	0.822182	1.18771	11.8336
 623	1	6	-0.102822	1.09733	-0.19002	10.1916
 624	1	6	-0.119294	-3.03328	2.29869	10.6083
 625	1	6	-0.123874	-1.75574	1.98711	12.3399
 626	1	6	-0.116977	-2.87555	0.334046	11.4979
 627	1	3	0.454578	0.193447	6.16408	9.75375
 628	1	3	0.475587	1.37096	5.85674	7.79074
 629	1	4	-0.008375	0.881694	6.77329	8.71197
 630	1	2	-0.468822	-0.364192	6.6966	10.6971
 631	1	2	-0.475809	1.99285	6.07771	6.76588
 632	1	1	-0.104577	1.00384	8.18507	8.55203
 633	1	1	0.090513	2.20151	8.82566	8.93284
 634	1	1	0.041176	-0.0508045	8.93822	7.97771
 635	1	1	0.130327	0.103734	10.3332	7.77813
 636	1	7	-0.071967	1.32148	10.9769	8.13277
 637	1	1	-0.178735	2.35095	10.2025	8.71049
 638	1	5	-0.205934	3.35011	8.04817	9.56306
 639	1	1	-0.139817	-1.26073	8.3167	7.58766
 640	1	1	-0.146593	-2.3054	9.06411	7.02452
 641	1	1	-0.1545	-2.16037	10.4448	6.84762
 642	1	1	-0.172216	-0.965118	11.0733	7.22501
 643	1	7	-0.107816	1.58539	12.4182	7.82463
 644	1	1	-0.127649	1.61751	12.8052	6.46883
 645	1	1	-0.062495	1.85774	14.1299	6.08643
 646	1	1	0.148158	2.10913	15.105	7.07878
 647	1	1	-0.091615	2.09085	14.7469	8.45122
 648	1	1	0.137007	1.82262	13.4037	8.82174
 649	1	1	-0.133704	1.77794	13.0632	10.1904
 650	1	1	-0.230679	2.32836	15.71	9.46268
 651	1	1	-0.154845	2.01445	14.0266	11.1818