pySIMM System Object

1202 atoms
1329 bonds
2304 angles
3548 dihedrals
384 impropers

10 atom types
13 bond types
22 angle types
9 dihedral types
4 improper types

-164.959583 164.959583 xlo xhi
-164.959583 164.959583 ylo yhi
-164.959583 164.959583 zlo zhi

Masses

   1	12.01	# ca
   2	16.0	# o
   3	12.01	# c
   4	14.01	# n
   5	12.01	# c3
   6	19.0	# f
   7	12.01	# cp
   8	1.008	# ha
   9	1.008	# hn
  10	1.008	# hc

Pair Coeffs

   1	0.086	3.3996695084235347	# ca
   2	0.21	2.959921901149463	# o
   3	0.086	3.3996695084235347	# c
   4	0.17	3.249998523775958	# n
   5	0.1094	3.3996695084235347	# c3
   6	0.061	3.1181455134911875	# f
   7	0.086	3.3996695084235347	# cp
   8	0.015	2.59964245953351	# ha
   9	0.0157	1.069078461768407	# hn
  10	0.0157	2.649532787749369	# hc

Bond Coeffs

   1	356.9	1.3497	# c3,f
   2	450.2	1.4058	# ca,cp
   3	403.2	1.0129	# hn,n
   4	461.1	1.3984	# ca,ca
   5	427.6	1.3789	# c,n
   6	345.9	1.4906	# c,ca
   7	300.9	1.5375	# c3,c3
   8	330.6	1.0969	# c3,hc
   9	351.4	1.4854	# cp,cp
  10	345.8	1.086	# ca,ha
  11	321.0	1.5156	# c3,ca
  12	384.2	1.4121	# ca,n
  13	637.7	1.2183	# c,o

Angle Coeffs

   1	74.22	123.05	# n,c,o
   2	66.62	120.02	# ca,ca,ca
   3	68.72	122.6	# ca,c,o
   4	67.68	115.25	# ca,c,n
   5	48.33	117.55	# c,n,hn
   6	64.28	120.33	# c,ca,ca
   7	47.98	119.86	# cp,ca,ha
   8	39.4	107.58	# hc,c3,hc
   9	63.53	120.77	# c3,ca,ca
  10	70.89	107.36	# f,c3,f
  11	67.87	120.19	# ca,ca,n
  12	66.72	118.38	# ca,cp,ca
  13	46.8	110.47	# ca,c3,hc
  14	62.86	111.51	# c3,c3,c3
  15	66.11	109.24	# c3,c3,f
  16	63.15	112.07	# c3,c3,ca
  17	63.82	123.71	# c,n,ca
  18	66.26	120.69	# ca,ca,cp
  19	63.56	112.24	# ca,c3,ca
  20	63.74	127.08	# c,n,c
  21	48.18	119.88	# ca,ca,ha
  22	64.05	121.11	# ca,cp,cp

Dihedral Coeffs

   1	2	2.5	2	180	2.0	1	0	# hn,n,c,o
   2	1	3.625	2	180	# X,ca,cp,X
   3	1	1.0	2	180	# X,cp,cp,X
   4	1	3.625	2	180	# X,ca,ca,X
   5	1	1.0	2	180	# X,c,ca,X
   6	1	0.0	2	0	# X,c3,ca,X
   7	1	0.15555555555555556	3	0	# X,c3,c3,X
   8	1	2.5	2	180	# X,c,n,X
   9	1	0.45	2	180	# X,ca,n,X

Improper Coeffs

   1	10.5	-1	2	# c,X,X,o
   2	1.1	-1	2	# n,X,X,hn
   3	1.1	-1	2	# ca,ca,ca,c3
   4	1.1	-1	2	# ca,X,X,ha

Atoms

   1	1	1	-0.015291	-31.8775	33.4831	63.519
   2	1	1	-0.066451	-32.8256	33.1557	62.5103
   3	1	1	-0.157747	-33.1698	34.1628	61.5653
   4	1	2	-0.394636	-30.0306	34.839	65.6064
   5	1	1	0.035045	-31.3501	34.7754	63.5795
   6	1	1	-0.04863	-32.6213	35.4645	61.6408
   7	1	2	-0.369731	-31.2853	38.1234	62.5775
   8	1	1	0.009912	-31.7217	35.7466	62.6754
   9	1	3	0.064933	-30.4969	35.3973	64.6274
  10	1	4	0.489832	-30.4377	36.7481	64.2915
  11	1	3	0.01974	-31.1253	37.0377	63.1104
  12	1	1	-0.15002	-36.581	31.2137	60.0846
  13	1	5	-0.109385	-33.5971	31.8042	62.578
  14	1	1	-0.027748	-34.3965	31.4892	61.2471
  15	1	1	-0.058225	-35.7964	31.7576	61.1207
  16	1	1	-0.058862	-35.9535	30.4011	59.1417
  17	1	1	-0.073426	-33.788	30.7766	60.1697
  18	1	1	-0.053817	-34.5896	30.2167	59.1619
  19	1	5	0.313225	-34.5842	31.9328	63.8135
  20	1	5	0.370299	-32.5991	30.5953	62.8542
  21	1	6	-0.09626	-35.4237	30.8767	63.9019
  22	1	6	-0.107747	-35.3289	33.0607	63.7516
  23	1	6	-0.102822	-33.97	32.0359	65.0125
  24	1	6	-0.119294	-32.1402	30.4934	64.1195
  25	1	6	-0.123874	-31.4831	30.6901	62.0965
  26	1	6	-0.116977	-33.1751	29.3985	62.5966
  27	1	3	0.454578	-34.2533	29.1942	58.129
  28	1	3	0.475587	-36.5418	29.4947	58.121
  29	1	4	-0.008375	-35.4726	28.7737	57.6055
  30	1	2	-0.468822	-33.1463	28.7353	57.9073
  31	1	2	-0.475809	-37.7307	29.3242	57.9131
  32	1	1	-0.104577	-35.6526	27.6246	56.7733
  33	1	1	0.090513	-35.568	26.3382	57.3515
  34	1	1	0.041176	-36.0293	27.7559	55.4132
  35	1	1	0.130327	-36.3798	26.6068	54.6557
  36	1	7	-0.071967	-36.2865	25.3075	55.2348
  37	1	1	-0.178735	-35.8428	25.207	56.5712
  38	1	5	-0.205934	-35.2334	26.1346	58.8251
  39	1	1	-0.139817	-36.0796	29.0293	54.801
  40	1	1	-0.146593	-36.4903	29.171	53.4675
  41	1	1	-0.1545	-36.8902	28.0464	52.7375
  42	1	1	-0.172216	-36.8451	26.7772	53.3317
  43	1	7	-0.107816	-36.5851	24.0414	54.4816
  44	1	1	-0.127649	-35.883	23.7852	53.2782
  45	1	1	-0.062495	-36.1048	22.6215	52.5285
  46	1	1	0.148158	-37.0067	21.656	53.006
  47	1	1	-0.091615	-37.6983	21.86	54.2119
  48	1	1	0.137007	-37.5077	23.0554	54.9466
  49	1	1	-0.133704	-38.2635	23.2413	56.1259
  50	1	1	-0.230679	-38.5896	20.8699	54.6719
  51	1	1	-0.154845	-39.1442	22.2487	56.5871
  52	1	1	-0.105714	-39.3037	21.0588	55.864
  53	1	5	-0.373818	-35.3728	22.433	51.2084
  54	1	8	0.152766	-31.6036	32.7913	64.3072
  55	1	8	0.155405	-33.9128	33.9662	60.7975
  56	1	8	0.159938	-32.9292	36.2507	60.9546
  57	1	8	0.168438	-37.6618	31.3426	60.0676
  58	1	8	0.13763	-36.3397	32.3225	61.8643
  59	1	8	0.146749	-32.7319	30.536	60.1535
  60	1	8	0.160749	-35.7457	24.2198	57.0145
  61	1	10	0.074263	-34.2483	26.5461	59.074
  62	1	10	0.076992	-35.2123	25.0712	59.0932
  63	1	10	0.075732	-35.9818	26.6158	59.4666
  64	1	8	0.120118	-35.7947	29.9225	55.3462
  65	1	8	0.145089	-36.5168	30.156	53.0076
  66	1	8	0.146654	-37.2378	28.1564	51.7126
  67	1	8	0.147988	-37.1886	25.9269	52.7528
  68	1	8	0.166658	-35.1613	24.5158	52.92
  69	1	8	0.132671	-38.186	24.1624	56.6924
  70	1	8	0.178371	-38.7286	19.9537	54.1035
  71	1	8	0.137951	-39.7087	22.4067	57.5025
  72	1	8	0.128868	-39.9892	20.2922	56.2187
  73	1	10	0.119422	-35.5641	21.4442	50.7719
  74	1	10	0.137967	-34.2882	22.5332	51.3402
  75	1	10	0.115874	-35.6934	23.1849	50.4758
  76	1	1	-0.015291	-24.4259	51.0681	68.1246
  77	1	1	-0.066451	-25.5972	51.8737	68.1329
  78	1	1	-0.157747	-25.5112	53.1705	67.5451
  79	1	2	-0.394636	-21.6213	49.8038	67.7431
  80	1	1	0.035045	-23.2564	51.5668	67.5368
  81	1	1	-0.04863	-24.3103	53.6696	66.9978
  82	1	2	-0.369731	-21.3687	54.1311	66.0742
  83	1	1	0.009912	-23.1888	52.8392	67.01
  84	1	3	0.064933	-21.9202	50.9359	67.3998
  85	1	4	0.489832	-21.1081	51.9087	66.8132
  86	1	3	0.01974	-21.7972	53.0928	66.5494
  87	1	1	-0.15002	-27.0672	48.0053	70.8268
  88	1	5	-0.109385	-26.9048	51.4042	68.8466
  89	1	1	-0.027748	-26.8286	49.8749	69.2081
  90	1	1	-0.058225	-26.9358	49.3799	70.5448
  91	1	1	-0.058862	-27.0626	47.109	69.7566
  92	1	1	-0.073426	-26.7312	48.9101	68.1657
  93	1	1	-0.053817	-26.8506	47.5461	68.4685
  94	1	5	0.313225	-28.1751	51.5846	67.916
  95	1	5	0.370299	-27.0935	52.3136	70.1291
  96	1	6	-0.09626	-27.9768	51.0901	66.6748
  97	1	6	-0.107747	-28.5593	52.8659	67.7295
  98	1	6	-0.102822	-29.2515	50.9427	68.4258
  99	1	6	-0.119294	-27.1984	53.6332	69.8574
 100	1	6	-0.123874	-26.0305	52.2095	70.9589
 101	1	6	-0.116977	-28.2079	52.002	70.8306
 102	1	3	0.454578	-26.9383	46.3668	67.5652
 103	1	3	0.475587	-27.3597	45.6514	69.718
 104	1	4	-0.008375	-27.3112	45.296	68.3743
 105	1	2	-0.468822	-26.8138	46.3828	66.3532
 106	1	2	-0.475809	-27.6925	44.9627	70.6674
 107	1	1	-0.104577	-27.7187	44.0155	67.8752
 108	1	1	0.090513	-26.9379	42.8688	68.1515
 109	1	1	0.041176	-28.9094	43.8831	67.1102
 110	1	1	0.130327	-29.3004	42.6103	66.6199
 111	1	7	-0.071967	-28.5411	41.4486	66.9395
 112	1	1	-0.178735	-27.3581	41.6086	67.6923
 113	1	5	-0.205934	-25.6437	42.954	68.9529
 114	1	1	-0.139817	-29.7265	45.0039	66.8208
 115	1	1	-0.146593	-30.8776	44.8796	66.0299
 116	1	1	-0.1545	-31.2364	43.632	65.512
 117	1	1	-0.172216	-30.4512	42.5098	65.8034
 118	1	7	-0.107816	-28.9524	40.0837	66.4691
 119	1	1	-0.127649	-28.1478	39.4221	65.5179
 120	1	1	-0.062495	-28.5924	38.2646	64.8592
 121	1	1	0.148158	-29.8864	37.7616	65.1285
 122	1	1	-0.091615	-30.6695	38.3422	66.1594
 123	1	1	0.137007	-30.1902	39.4887	66.8416
 124	1	1	-0.133704	-30.9794	40.0663	67.8598
 125	1	1	-0.230679	-31.9416	37.8185	66.5003
 126	1	1	-0.154845	-32.2319	39.5323	68.1933
 127	1	1	-0.105714	-32.7142	38.4105	67.5101
 128	1	5	-0.373818	-27.6827	37.6219	63.8173
 129	1	8	0.152766	-24.3901	50.083	68.5786
 130	1	8	0.155405	-26.3692	53.8347	67.5395
 131	1	8	0.159938	-24.2474	54.6754	66.5877
 132	1	8	0.168438	-27.2191	47.6503	71.8445
 133	1	8	0.13763	-26.9725	50.043	71.4
 134	1	8	0.146749	-26.6141	49.2016	67.1261
 135	1	8	0.160749	-26.7669	40.7291	67.9308
 136	1	10	0.074263	-25.8556	43.0212	70.0275
 137	1	10	0.076992	-25.0447	43.8268	68.6663
 138	1	10	0.075732	-25.0148	42.0692	68.7967
 139	1	8	0.120118	-29.4843	45.9918	67.1927
 140	1	8	0.145089	-31.483	45.7548	65.8075
 141	1	8	0.146654	-32.1206	43.531	64.8866
 142	1	8	0.147988	-30.7496	41.558	65.3775
 143	1	8	0.166658	-27.1939	39.8646	65.242
 144	1	8	0.132671	-30.6247	40.9375	68.4023
 145	1	8	0.178371	-32.3493	36.9408	66.0079
 146	1	8	0.137951	-32.8278	39.9914	68.9782
 147	1	8	0.128868	-33.6864	37.9965	67.7673
 148	1	10	0.119422	-27.6294	36.5324	63.9464
 149	1	10	0.137967	-26.6533	37.9962	63.8947
 150	1	10	0.115874	-28.0328	37.8333	62.7984
 151	1	1	-0.015291	-6.75795	42.0039	63.133
 152	1	1	-0.066451	-6.82562	43.4291	63.1807
 153	1	1	-0.157747	-5.63564	44.1116	63.5723
 154	1	2	-0.394636	-5.98761	39.0528	62.7526
 155	1	1	0.035045	-5.53519	41.3507	63.3224
 156	1	1	-0.04863	-4.40277	43.4337	63.7453
 157	1	2	-0.369731	-2.04212	41.4026	63.4312
 158	1	1	0.009912	-4.37257	42.0445	63.5642
 159	1	3	0.064933	-5.19043	39.9373	63.0206
 160	1	4	0.489832	-3.79483	39.889	62.9724
 161	1	3	0.01974	-3.22354	41.1066	63.3702
 162	1	1	-0.15002	-9.17783	45.9444	65.941
 163	1	5	-0.109385	-8.04475	44.2424	62.5881
 164	1	1	-0.027748	-8.7273	45.1987	63.6191
 165	1	1	-0.058225	-8.46758	45.136	65.0177
 166	1	1	-0.058862	-10.1745	46.8043	65.4523
 167	1	1	-0.073426	-9.71802	46.1172	63.1752
 168	1	1	-0.053817	-10.4321	46.8779	64.103
 169	1	5	0.313225	-9.17133	43.2706	62.0405
 170	1	5	0.370299	-7.47281	45.0924	61.3781
 171	1	6	-0.09626	-10.2531	43.893	61.5238
 172	1	6	-0.107747	-9.66406	42.4939	63.0322
 173	1	6	-0.102822	-8.71997	42.4686	61.0488
 174	1	6	-0.119294	-8.40495	45.5029	60.4905
 175	1	6	-0.123874	-6.56353	44.3959	60.6585
 176	1	6	-0.116977	-6.85694	46.218	61.8068
 177	1	3	0.454578	-11.6094	47.7587	63.8886
 178	1	3	0.475587	-11.1768	47.6667	66.1521
 179	1	4	-0.008375	-12.0117	48.1678	65.1529
 180	1	2	-0.468822	-12.1543	47.9783	62.8211
 181	1	2	-0.475809	-11.2869	47.8082	67.3578
 182	1	1	-0.104577	-13.2292	48.8887	65.3875
 183	1	1	0.090513	-14.3599	48.195	65.8786
 184	1	1	0.041176	-13.3412	50.274	65.0902
 185	1	1	0.130327	-14.566	50.9598	65.3201
 186	1	7	-0.071967	-15.6955	50.2617	65.8255
 187	1	1	-0.178735	-15.5622	48.8842	66.0911
 188	1	5	-0.205934	-14.345	46.7026	66.193
 189	1	1	-0.139817	-12.2444	50.9928	64.5612
 190	1	1	-0.146593	-12.3504	52.3635	64.2799
 191	1	1	-0.1545	-13.5495	53.0416	64.534
 192	1	1	-0.172216	-14.6508	52.3418	65.05
 193	1	7	-0.107816	-17.0321	50.8908	66.0893
 194	1	1	-0.127649	-17.9464	51.0389	65.0236
 195	1	1	-0.062495	-19.2763	51.438	65.2431
 196	1	1	0.148158	-19.7197	51.6979	66.5619
 197	1	1	-0.091615	-18.7991	51.6385	67.6391
 198	1	1	0.137007	-17.4639	51.2225	67.4017
 199	1	1	-0.133704	-16.57	51.1209	68.4884
 200	1	1	-0.230679	-19.1976	51.9651	68.9589
 201	1	1	-0.154845	-16.9789	51.4451	69.7903
 202	1	1	-0.105714	-18.2908	51.8728	70.0239
 203	1	5	-0.373818	-20.2184	51.5372	64.0452
 204	1	8	0.152766	-7.58592	41.3753	62.8321
 205	1	8	0.155405	-5.6326	45.1964	63.6417
 206	1	8	0.159938	-3.47947	43.9821	63.921
 207	1	8	0.168438	-8.99421	45.8707	67.0113
 208	1	8	0.13763	-7.73423	44.4347	65.4053
 209	1	8	0.146749	-9.99769	46.2122	62.1315
 210	1	8	0.160749	-16.4243	48.3425	66.4708
 211	1	10	0.074263	-13.5656	46.1545	65.653
 212	1	10	0.076992	-15.3001	46.2377	65.9187
 213	1	10	0.075732	-14.1916	46.5394	67.2671
 214	1	8	0.120118	-11.3002	50.5009	64.3542
 215	1	8	0.145089	-11.4992	52.8999	63.8673
 216	1	8	0.146654	-13.6275	54.1068	64.3278
 217	1	8	0.147988	-15.5743	52.8804	65.2419
 218	1	8	0.166658	-17.6198	50.786	64.0179
 219	1	8	0.132671	-15.5454	50.7985	68.329
 220	1	8	0.178371	-20.2056	52.3007	69.1854
 221	1	8	0.137951	-16.2766	51.3679	70.6161
 222	1	8	0.128868	-18.6064	52.1292	71.0325
 223	1	10	0.119422	-19.7089	51.2939	63.104
 224	1	10	0.137967	-20.6111	52.5579	63.9335
 225	1	10	0.115874	-21.0693	50.8502	64.1384
 226	1	1	-0.015291	-2.02122	26.2312	50.9607
 227	1	1	-0.066451	-1.27642	26.4755	52.1854
 228	1	1	-0.157747	-0.00245481	25.8269	52.2204
 229	1	2	-0.394636	-3.24076	25.1332	48.2033
 230	1	1	0.035045	-1.57559	25.2944	49.9744
 231	1	1	-0.04863	0.441001	24.9199	51.2274
 232	1	2	-0.369731	0.731759	22.8666	48.9297
 233	1	1	0.009912	-0.385277	24.6306	50.1375
 234	1	3	0.064933	-2.19042	24.75	48.6902
 235	1	4	0.489832	-1.3194	23.7494	48.1803
 236	1	3	0.01974	-0.209817	23.6345	49.0329
 237	1	1	-0.15002	0.844751	29.5698	55.0999
 238	1	5	-0.109385	-1.88417	27.1772	53.5235
 239	1	1	-0.027748	-1.19806	28.5121	54.1091
 240	1	1	-0.058225	0.217194	28.5987	54.2729
 241	1	1	-0.058862	0.0561987	30.5072	55.7853
 242	1	1	-0.073426	-1.94076	29.5594	54.7704
 243	1	1	-0.053817	-1.30226	30.523	55.594
 244	1	5	0.313225	-1.7667	26.1462	54.7314
 245	1	5	0.370299	-3.44587	27.4034	53.3115
 246	1	6	-0.09626	-0.498509	25.7952	55.0314
 247	1	6	-0.107747	-2.42857	24.9916	54.4981
 248	1	6	-0.102822	-2.23748	26.6481	55.8971
 249	1	6	-0.119294	-4.08448	26.3167	52.821
 250	1	6	-0.123874	-3.66859	28.4256	52.4556
 251	1	6	-0.116977	-4.1433	27.6769	54.4371
 252	1	3	0.454578	-1.85562	31.6221	56.4663
 253	1	3	0.475587	0.408576	31.5584	56.804
 254	1	4	-0.008375	-0.783458	32.194	57.1732
 255	1	2	-0.468822	-3.03284	31.927	56.543
 256	1	2	-0.475809	1.52827	31.774	57.2346
 257	1	1	-0.104577	-0.911992	33.2601	58.1754
 258	1	1	0.090513	-1.68472	33.0525	59.3524
 259	1	1	0.041176	-0.300382	34.5454	58.0289
 260	1	1	0.130327	-0.536891	35.5901	58.9796
 261	1	7	-0.071967	-1.41093	35.4074	60.0884
 262	1	1	-0.178735	-1.94106	34.1087	60.2588
 263	1	5	-0.205934	-2.28909	31.6942	59.6832
 264	1	1	-0.139817	0.549683	34.8265	56.933
 265	1	1	-0.146593	1.19066	36.0696	56.8049
 266	1	1	-0.1545	0.974813	37.0751	57.7527
 267	1	1	-0.172216	0.104455	36.8388	58.823
 268	1	7	-0.107816	-1.9221	36.5712	60.9285
 269	1	1	-0.127649	-2.72549	37.5273	60.2697
 270	1	1	-0.062495	-3.28783	38.6334	60.9279
 271	1	1	0.148158	-3.09422	38.8124	62.3209
 272	1	1	-0.091615	-2.25259	37.898	63.0114
 273	1	1	0.137007	-1.66767	36.7914	62.3179
 274	1	1	-0.133704	-0.811333	35.9222	63.0237
 275	1	1	-0.230679	-1.97753	38.0789	64.3886
 276	1	1	-0.154845	-0.533482	36.1282	64.3853
 277	1	1	-0.105714	-1.11945	37.202	65.0674
 278	1	5	-0.373818	-4.11837	39.6045	60.0888
 279	1	8	0.152766	-2.98249	26.6976	50.7765
 280	1	8	0.155405	0.662773	25.9465	53.0628
 281	1	8	0.159938	1.39388	24.4051	51.3298
 282	1	8	0.168438	1.92322	29.5626	55.2476
 283	1	8	0.13763	0.858445	27.8601	53.8159
 284	1	8	0.146749	-3.01944	29.6253	54.7286
 285	1	8	0.160749	-2.60871	33.9345	61.0983
 286	1	10	0.074263	-3.26064	31.5673	59.1907
 287	1	10	0.076992	-2.45016	31.5845	60.7629
 288	1	10	0.075732	-1.63368	30.8707	59.3768
 289	1	8	0.120118	0.750377	34.08	56.1753
 290	1	8	0.145089	1.86589	36.25	55.9722
 291	1	8	0.146654	1.47995	38.0345	57.6618
 292	1	8	0.147988	-0.0425885	37.6284	59.5544
 293	1	8	0.166658	-2.9232	37.3882	59.2099
 294	1	8	0.132671	-0.33922	35.0909	62.5102
 295	1	8	0.178371	-2.39352	38.9133	64.9477
 296	1	8	0.137951	0.142011	35.4583	64.9113
 297	1	8	0.128868	-0.898345	37.3623	66.1209
 298	1	10	0.119422	-5.19307	39.4135	60.2125
 299	1	10	0.137967	-3.89792	39.5046	59.0187
 300	1	10	0.115874	-3.92245	40.6525	60.3501
 301	1	1	-0.015291	-0.456659	11.1608	33.211
 302	1	1	-0.066451	-1.13783	11.7241	34.3752
 303	1	1	-0.157747	-2.43605	11.1757	34.5849
 304	1	2	-0.394636	0.591875	9.53674	30.6475
 305	1	1	0.035045	-1.03439	10.162	32.3536
 306	1	1	-0.04863	-3.01324	10.1917	33.7151
 307	1	2	-0.369731	-3.69382	8.03738	31.4912
 308	1	1	0.009912	-2.29879	9.69213	32.599
 309	1	3	0.064933	-0.515847	9.38729	31.135
 310	1	4	0.489832	-1.52068	8.47839	30.6907
 311	1	3	0.01974	-2.63419	8.63677	31.5526
 312	1	1	-0.15002	-3.07458	15.2892	37.0229
 313	1	5	-0.109385	-0.410423	12.7345	35.4459
 314	1	1	-0.027748	-1.20696	13.6937	36.5096
 315	1	1	-0.058225	-2.47072	14.2787	36.2072
 316	1	1	-0.058862	-2.41677	15.7809	38.1751
 317	1	1	-0.073426	-0.595041	14.2334	37.7209
 318	1	1	-0.053817	-1.19517	15.2635	38.5202
 319	1	5	0.313225	0.441148	13.7689	34.6068
 320	1	5	0.370299	0.553815	11.7962	36.2783
 321	1	6	-0.09626	1.54181	13.237	34.0329
 322	1	6	-0.107747	0.898963	14.8102	35.3394
 323	1	6	-0.102822	-0.312981	14.3053	33.6212
 324	1	6	-0.119294	-0.120798	11.2058	37.2903
 325	1	6	-0.123874	1.61738	12.4371	36.8117
 326	1	6	-0.116977	1.09092	10.7927	35.5498
 327	1	3	0.454578	-0.726656	16.0545	39.7464
 328	1	3	0.475587	-2.76213	16.8868	39.1606
 329	1	4	-0.008375	-1.7019	17.0273	40.0771
 330	1	2	-0.468822	0.330086	15.875	40.3253
 331	1	2	-0.475809	-3.78266	17.5514	39.1274
 332	1	1	-0.104577	-1.63764	18.0454	41.1792
 333	1	1	0.090513	-1.70779	17.6884	42.5591
 334	1	1	0.041176	-1.56775	19.4592	40.9458
 335	1	1	0.130327	-1.57723	20.433	42.0178
 336	1	7	-0.071967	-1.57278	20.0679	43.4094
 337	1	1	-0.178735	-1.6601	18.6593	43.6113
 338	1	5	-0.205934	-1.84977	16.2268	42.9578
 339	1	1	-0.139817	-1.49101	19.9297	39.6144
 340	1	1	-0.146593	-1.47026	21.3011	39.3221
 341	1	1	-0.1545	-1.549	22.2396	40.3548
 342	1	1	-0.172216	-1.61217	21.8059	41.6846
 343	1	7	-0.107816	-1.49437	21.0732	44.617
 344	1	1	-0.127649	-2.46113	21.052	45.6673
 345	1	1	-0.062495	-2.44593	21.9309	46.7955
 346	1	1	0.148158	-1.45242	22.9412	46.9473
 347	1	1	-0.091615	-0.49193	23.0196	45.8932
 348	1	1	0.137007	-0.483737	22.0856	44.7934
 349	1	1	-0.133704	0.582822	22.1621	43.8703
 350	1	1	-0.230679	0.493186	24.0385	45.9382
 351	1	1	-0.154845	1.5568	23.1679	43.9486
 352	1	1	-0.105714	1.49969	24.1187	44.97
 353	1	5	-0.373818	-3.53767	21.7677	47.8503
 354	1	8	0.152766	0.5615	11.4411	32.975
 355	1	8	0.155405	-3.0009	11.4889	35.4597
 356	1	8	0.159938	-4.00445	9.79509	33.9239
 357	1	8	0.168438	-4.03052	15.7235	36.736
 358	1	8	0.13763	-2.97556	13.9842	35.2914
 359	1	8	0.146749	0.391873	13.9236	38.0375
 360	1	8	0.160749	-1.68259	18.307	44.6385
 361	1	10	0.074263	-0.897641	15.6957	42.8371
 362	1	10	0.076992	-2.60718	15.7196	42.3485
 363	1	10	0.075732	-2.15792	16.1208	44.0052
 364	1	8	0.120118	-1.44959	19.2378	38.7817
 365	1	8	0.145089	-1.41538	21.636	38.2894
 366	1	8	0.146654	-1.55946	23.3034	40.1281
 367	1	8	0.147988	-1.68951	22.5579	42.4633
 368	1	8	0.166658	-3.25722	20.316	45.5971
 369	1	8	0.132671	0.667893	21.4332	43.0727
 370	1	8	0.178371	0.506316	24.7878	46.7239
 371	1	8	0.137951	2.35583	23.2107	43.2133
 372	1	8	0.128868	2.24988	24.9042	45.0275
 373	1	10	0.119422	-3.1233	21.7039	48.8646
 374	1	10	0.137967	-4.13309	20.86	47.691
 375	1	10	0.115874	-4.23549	22.6166	47.8249
 376	1	1	-0.015291	-0.978915	-3.76542	15.0611
 377	1	1	-0.066451	-0.376996	-2.81956	15.9989
 378	1	1	-0.157747	1.04528	-2.76837	15.9061
 379	1	2	-0.394636	-1.75284	-5.88403	12.7768
 380	1	1	0.035045	-0.219541	-4.56843	14.1459
 381	1	1	-0.04863	1.79818	-3.58909	15.005
 382	1	2	-0.369731	2.85595	-5.5658	12.7742
 383	1	1	0.009912	1.14904	-4.48191	14.1235
 384	1	3	0.064933	-0.608088	-5.56456	13.0503
 385	1	4	0.489832	0.575948	-6.03674	12.4205
 386	1	3	0.01974	1.67716	-5.40754	13.0419
 387	1	1	-0.15002	0.744168	-0.955333	20.2932
 388	1	5	-0.109385	-1.24712	-1.73629	16.8751
 389	1	1	-0.027748	-0.734549	-1.0278	18.2674
 390	1	1	-0.058225	0.353505	-1.52702	19.039
 391	1	1	-0.058862	0.0356428	0.13562	20.8539
 392	1	1	-0.073426	-1.41546	0.102748	18.8999
 393	1	1	-0.053817	-1.03469	0.656831	20.1741
 394	1	5	0.313225	-2.61806	-2.43574	17.2507
 395	1	5	0.370299	-1.5032	-0.569234	15.8417
 396	1	6	-0.09626	-2.39588	-3.6765	17.7397
 397	1	6	-0.107747	-3.47297	-2.55339	16.2102
 398	1	6	-0.102822	-3.32853	-1.78903	18.199
 399	1	6	-0.119294	-2.54854	0.224189	16.1579
 400	1	6	-0.123874	-1.75914	-1.01203	14.5887
 401	1	6	-0.116977	-0.409898	0.220147	15.7478
 402	1	3	0.454578	-1.59657	1.77566	21.07
 403	1	3	0.475587	0.189925	0.89817	22.1651
 404	1	4	-0.008375	-0.817505	1.87932	22.2541
 405	1	2	-0.468822	-2.56765	2.45807	20.7969
 406	1	2	-0.475809	1.05075	0.674178	22.9973
 407	1	1	-0.104577	-0.977497	2.85077	23.4015
 408	1	1	0.090513	-1.78189	2.57862	24.5469
 409	1	1	0.041176	-0.279273	4.09769	23.4922
 410	1	1	0.130327	-0.324864	4.96208	24.6641
 411	1	7	-0.071967	-1.13635	4.69526	25.834
 412	1	1	-0.178735	-1.87343	3.47179	25.6733
 413	1	5	-0.205934	-2.57294	1.27852	24.5868
 414	1	1	-0.139817	0.498643	4.49209	22.3802
 415	1	1	-0.146593	1.24202	5.67829	22.3948
 416	1	1	-0.1545	1.25853	6.47556	23.542
 417	1	1	-0.172216	0.498606	6.11042	24.6617
 418	1	7	-0.107816	-1.24747	5.6305	27.1332
 419	1	1	-0.127649	-1.411	7.05376	27.0514
 420	1	1	-0.062495	-1.47319	7.9575	28.1686
 421	1	1	0.148158	-1.43769	7.5198	29.5278
 422	1	1	-0.091615	-1.34473	6.09202	29.6567
 423	1	1	0.137007	-1.22245	5.19321	28.5142
 424	1	1	-0.133704	-1.04803	3.81615	28.778
 425	1	1	-0.230679	-1.3674	5.53822	30.9606
 426	1	1	-0.154845	-1.08044	3.30039	30.0807
 427	1	1	-0.105714	-1.25731	4.15785	31.1687
 428	1	5	-0.373818	-1.5892	9.4487	27.8696
 429	1	8	0.152766	-2.05243	-3.86484	14.974
 430	1	8	0.155405	1.58517	-2.04271	16.5079
 431	1	8	0.159938	2.88212	-3.506	14.9628
 432	1	8	0.168438	1.58308	-1.37709	20.8431
 433	1	8	0.13763	0.896919	-2.39484	18.6778
 434	1	8	0.146749	-2.2936	0.542026	18.4407
 435	1	8	0.160749	-2.54984	3.1941	26.4762
 436	1	10	0.074263	-3.16945	1.18661	25.5023
 437	1	10	0.076992	-1.89968	0.412906	24.546
 438	1	10	0.075732	-3.26284	1.21318	23.736
 439	1	8	0.120118	0.527663	3.88858	21.4797
 440	1	8	0.145089	1.82457	5.96572	21.523
 441	1	8	0.146654	1.86514	7.37773	23.5677
 442	1	8	0.147988	0.576711	6.73236	25.5435
 443	1	8	0.166658	-1.4896	7.48133	26.0557
 444	1	8	0.132671	-0.871026	3.11947	27.9694
 445	1	8	0.178371	-1.48916	6.16262	31.8405
 446	1	8	0.137951	-0.965804	2.23194	30.2455
 447	1	8	0.128868	-1.29143	3.75331	32.1779
 448	1	10	0.119422	-1.72638	9.64416	26.7988
 449	1	10	0.137967	-0.680288	9.98373	28.1794
 450	1	10	0.115874	-2.44466	9.89952	28.389
 451	1	1	-0.015291	3.05707	-20.574	0.0439466
 452	1	1	-0.066451	3.45228	-19.6696	1.09457
 453	1	1	-0.157747	4.85237	-19.4761	1.25606
 454	1	2	-0.394636	2.84033	-22.626	-2.35741
 455	1	1	0.035045	4.02491	-21.2578	-0.732154
 456	1	1	-0.04863	5.81065	-20.1763	0.476941
 457	1	2	-0.369731	7.35388	-22.0714	-1.48222
 458	1	1	0.009912	5.37017	-21.0833	-0.498287
 459	1	3	0.064933	3.88781	-22.2595	-1.85083
 460	1	4	0.489832	5.19214	-22.6318	-2.2196
 461	1	3	0.01974	6.13952	-21.9759	-1.42355
 462	1	1	-0.15002	2.58438	-15.212	1.9445
 463	1	5	-0.109385	2.4592	-19.1319	2.22081
 464	1	1	-0.027748	2.60336	-17.6002	2.65309
 465	1	1	-0.058225	2.70651	-16.5979	1.65015
 466	1	1	-0.058862	2.35692	-14.7962	3.27199
 467	1	1	-0.073426	2.40127	-17.1204	3.99881
 468	1	1	-0.053817	2.28382	-15.7282	4.28088
 469	1	5	0.313225	2.70504	-20.1013	3.44527
 470	1	5	0.370299	0.954137	-19.2823	1.76566
 471	1	6	-0.09626	1.71728	-20.0741	4.36772
 472	1	6	-0.107747	3.85748	-19.8033	4.08642
 473	1	6	-0.102822	2.81281	-21.3949	3.05833
 474	1	6	-0.119294	0.540751	-20.5681	1.68118
 475	1	6	-0.123874	0.750186	-18.7138	0.555582
 476	1	6	-0.116977	0.099262	-18.6711	2.61703
 477	1	3	0.454578	2.00734	-14.9619	5.56133
 478	1	3	0.475587	2.11794	-13.4286	3.86948
 479	1	4	-0.008375	1.91051	-13.5921	5.24574
 480	1	2	-0.468822	1.90483	-15.4627	6.66682
 481	1	2	-0.475809	2.10034	-12.3814	3.24665
 482	1	1	-0.104577	1.65128	-12.4904	6.20026
 483	1	1	0.090513	2.71301	-11.8499	6.89069
 484	1	1	0.041176	0.347784	-11.9717	6.46082
 485	1	1	0.130327	0.121923	-10.909	7.4114
 486	1	7	-0.071967	1.18645	-10.2902	8.1517
 487	1	1	-0.178735	2.47895	-10.7974	7.82684
 488	1	5	-0.205934	4.14583	-12.2823	6.60901
 489	1	1	-0.139817	-0.754399	-12.5036	5.75259
 490	1	1	-0.146593	-2.05168	-12.0147	5.96078
 491	1	1	-0.1545	-2.27347	-10.9906	6.88909
 492	1	1	-0.172216	-1.19654	-10.4465	7.60619
 493	1	7	-0.107816	0.998869	-9.15022	9.20794
 494	1	1	-0.127649	0.599049	-9.43114	10.5435
 495	1	1	-0.062495	0.447541	-8.44127	11.5643
 496	1	1	0.148158	0.679571	-7.05101	11.3265
 497	1	1	-0.091615	1.0562	-6.73661	9.97626
 498	1	1	0.137007	1.20801	-7.75425	8.95686
 499	1	1	-0.133704	1.56757	-7.36722	7.64836
 500	1	1	-0.230679	1.28494	-5.38653	9.61487
 501	1	1	-0.154845	1.77918	-6.0215	7.32093
 502	1	1	-0.105714	1.63997	-5.03493	8.30298
 503	1	5	-0.373818	0.0138661	-8.93651	12.9393
 504	1	8	0.152766	2.01917	-20.8108	-0.159119
 505	1	8	0.155405	5.2088	-18.8247	2.05039
 506	1	8	0.159938	6.87699	-20.0467	0.648893
 507	1	8	0.168438	2.62591	-14.4744	1.14548
 508	1	8	0.13763	2.82189	-16.9027	0.612435
 509	1	8	0.146749	2.2777	-17.8051	4.8304
 510	1	8	0.160749	3.33307	-10.3523	8.3282
 511	1	10	0.074263	4.87332	-11.6738	7.15848
 512	1	10	0.076992	4.37985	-12.1832	5.541
 513	1	10	0.075732	4.30338	-13.3295	6.89583
 514	1	8	0.120118	-0.619468	-13.2925	5.01979
 515	1	8	0.145089	-2.88513	-12.4291	5.39789
 516	1	8	0.146654	-3.28049	-10.6121	7.04867
 517	1	8	0.147988	-1.3916	-9.64422	8.31095
 518	1	8	0.166658	0.409239	-10.472	10.7938
 519	1	8	0.132671	1.67714	-8.11331	6.86669
 520	1	8	0.178371	1.19154	-4.58445	10.3407
 521	1	8	0.137951	2.05069	-5.74578	6.30455
 522	1	8	0.128868	1.8077	-3.99191	8.04435
 523	1	10	0.119422	-1.07901	-8.88569	13.0396
 524	1	10	0.137967	0.457152	-8.35915	13.7591
 525	1	10	0.115874	0.309927	-9.98144	13.0986
 526	1	1	-0.015291	8.96849	-26.91	-19.3293
 527	1	1	-0.066451	8.95621	-27.2324	-17.948
 528	1	1	-0.157747	9.52904	-28.4767	-17.5539
 529	1	2	-0.394636	9.28861	-26.7228	-22.3743
 530	1	1	0.035045	9.49904	-27.8192	-20.2417
 531	1	1	-0.04863	10.0382	-29.3975	-18.5028
 532	1	2	-0.369731	10.892	-30.9041	-21.1363
 533	1	1	0.009912	9.99835	-29.0438	-19.8568
 534	1	3	0.064933	9.61651	-27.6914	-21.7075
 535	1	4	0.489832	10.1419	-28.9063	-22.1392
 536	1	3	0.01974	10.4216	-29.7801	-21.0849
 537	1	1	-0.15002	6.58845	-28.4821	-14.3402
 538	1	5	-0.109385	8.43556	-26.1936	-16.9075
 539	1	1	-0.027748	8.05332	-26.883	-15.5523
 540	1	1	-0.058225	7.09831	-27.9412	-15.5433
 541	1	1	-0.058862	7.05903	-27.9631	-13.127
 542	1	1	-0.073426	8.51296	-26.4057	-14.2932
 543	1	1	-0.053817	8.00523	-26.9626	-13.1132
 544	1	5	0.313225	7.11933	-25.4712	-17.4108
 545	1	5	0.370299	9.582	-25.1197	-16.7479
 546	1	6	-0.09626	6.23418	-26.3508	-17.9322
 547	1	6	-0.107747	7.32706	-24.5341	-18.3621
 548	1	6	-0.102822	6.48357	-24.8336	-16.4015
 549	1	6	-0.119294	9.19885	-24.0491	-16.0158
 550	1	6	-0.123874	10.0095	-24.6236	-17.931
 551	1	6	-0.116977	10.6771	-25.6587	-16.1657
 552	1	3	0.454578	8.19586	-26.5199	-11.7069
 553	1	3	0.475587	6.60804	-28.1925	-11.7207
 554	1	4	-0.008375	7.29217	-27.2573	-10.95
 555	1	2	-0.468822	8.89128	-25.588	-11.3419
 556	1	2	-0.475809	5.72046	-28.9468	-11.3636
 557	1	1	-0.104577	6.95127	-26.8961	-9.60489
 558	1	1	0.090513	5.95646	-25.9187	-9.40753
 559	1	1	0.041176	7.65793	-27.3972	-8.48473
 560	1	1	0.130327	7.44992	-26.8361	-7.18848
 561	1	7	-0.071967	6.49466	-25.7869	-6.99484
 562	1	1	-0.178735	5.72394	-25.4084	-8.12143
 563	1	5	-0.205934	5.16122	-25.3557	-10.5808
 564	1	1	-0.139817	8.593	-28.4427	-8.65707
 565	1	1	-0.146593	9.322	-28.936	-7.56726
 566	1	1	-0.1545	9.15168	-28.3638	-6.29997
 567	1	1	-0.172216	8.23342	-27.3147	-6.11613
 568	1	7	-0.107816	6.28015	-24.9898	-5.71472
 569	1	1	-0.127649	5.83761	-25.6015	-4.51661
 570	1	1	-0.062495	5.50653	-24.8564	-3.35919
 571	1	1	0.148158	5.54357	-23.4326	-3.37816
 572	1	1	-0.091615	5.99383	-22.7975	-4.56949
 573	1	1	0.137007	6.39168	-23.5669	-5.70226
 574	1	1	-0.133704	6.91608	-22.8954	-6.83105
 575	1	1	-0.230679	6.06173	-21.3834	-4.64663
 576	1	1	-0.154845	6.99203	-21.4987	-6.88001
 577	1	1	-0.105714	6.54963	-20.7423	-5.79252
 578	1	5	-0.373818	5.0995	-25.6547	-2.12339
 579	1	8	0.152766	8.60643	-25.9639	-19.7148
 580	1	8	0.155405	9.59483	-28.7385	-16.5011
 581	1	8	0.159938	10.462	-30.352	-18.1981
 582	1	8	0.168438	5.80958	-29.2426	-14.3494
 583	1	8	0.13763	6.70586	-28.3201	-16.4835
 584	1	8	0.146749	9.20291	-25.5762	-14.1912
 585	1	8	0.160749	4.97111	-24.6355	-7.99617
 586	1	10	0.074263	5.82026	-24.8594	-11.3044
 587	1	10	0.076992	4.42197	-24.615	-10.2542
 588	1	10	0.075732	4.61561	-26.1514	-11.1034
 589	1	8	0.120118	8.75006	-28.8976	-9.63043
 590	1	8	0.145089	10.0261	-29.7531	-7.71008
 591	1	8	0.146654	9.73377	-28.7342	-5.45932
 592	1	8	0.147988	8.13121	-26.8775	-5.1292
 593	1	8	0.166658	5.73381	-26.6842	-4.49733
 594	1	8	0.132671	7.29495	-23.4506	-7.68249
 595	1	8	0.178371	5.75121	-20.7492	-3.82325
 596	1	8	0.137951	7.39781	-21.0066	-7.76013
 597	1	8	0.128868	6.60532	-19.6574	-5.82925
 598	1	10	0.119422	4.07986	-26.0477	-2.23182
 599	1	10	0.137967	5.13888	-25.0749	-1.19423
 600	1	10	0.115874	5.76731	-26.5157	-1.98223
 601	1	1	-0.015291	12.3502	-26.3979	-39.804
 602	1	1	-0.066451	12.2945	-26.7035	-38.4241
 603	1	1	-0.157747	12.1833	-28.0724	-38.043
 604	1	2	-0.394636	12.586	-26.3392	-42.8411
 605	1	1	0.035045	12.302	-27.4397	-40.7254
 606	1	1	-0.04863	12.1423	-29.114	-38.9993
 607	1	2	-0.369731	12.3041	-30.8229	-41.6424
 608	1	1	0.009912	12.2123	-28.7645	-40.3514
 609	1	3	0.064933	12.4598	-27.3624	-42.1855
 610	1	4	0.489832	12.4877	-28.6857	-42.6144
 611	1	3	0.01974	12.3157	-29.6052	-41.5802
 612	1	1	-0.15002	9.36612	-26.4484	-35.2284
 613	1	5	-0.109385	12.5224	-25.6075	-37.3478
 614	1	1	-0.027748	11.6169	-25.9138	-36.1213
 615	1	1	-0.058225	10.2221	-26.137	-36.3085
 616	1	1	-0.058862	9.93068	-26.5388	-33.9505
 617	1	1	-0.073426	12.1331	-25.9794	-34.8031
 618	1	1	-0.053817	11.275	-26.3073	-33.7552
 619	1	5	0.313225	12.1463	-24.1535	-37.8343
 620	1	5	0.370299	14.0672	-25.656	-37.0229
 621	1	6	-0.09626	13.048	-23.6259	-38.6919
 622	1	6	-0.107747	12.0614	-23.2914	-36.7963
 623	1	6	-0.102822	10.9475	-24.1214	-38.4594
 624	1	6	-0.119294	14.4202	-26.8107	-36.4123
 625	1	6	-0.123874	14.4717	-24.6344	-36.2347
 626	1	6	-0.116977	14.8223	-25.5986	-38.1441
 627	1	3	0.454578	11.6008	-26.5563	-32.3333
 628	1	3	0.475587	9.34185	-26.9394	-32.6414
 629	1	4	-0.008375	10.4103	-26.9585	-31.7515
 630	1	2	-0.468822	12.7111	-26.5205	-31.832
 631	1	2	-0.475809	8.192	-27.2887	-32.4393
 632	1	1	-0.104577	10.3488	-27.4708	-30.4264
 633	1	1	0.090513	10.2957	-26.5758	-29.339
 634	1	1	0.041176	10.4207	-28.8676	-30.1981
 635	1	1	0.130327	10.4341	-29.3675	-28.8718
 636	1	7	-0.071967	10.3988	-28.4665	-27.7751
 637	1	1	-0.178735	10.3252	-27.082	-28.0339
 638	1	5	-0.205934	10.2356	-25.0668	-29.5425
 639	1	1	-0.139817	10.4934	-29.7775	-31.2789