pySIMM System Object

1952 atoms
2159 bonds
3744 angles
5768 dihedrals
624 impropers

10 atom types
13 bond types
22 angle types
9 dihedral types
4 improper types

-195.581212 195.581212 xlo xhi
-195.581212 195.581212 ylo yhi
-195.581212 195.581212 zlo zhi

Masses

   1	12.01	# ca
   2	16.0	# o
   3	12.01	# c
   4	14.01	# n
   5	12.01	# c3
   6	19.0	# f
   7	12.01	# cp
   8	1.008	# ha
   9	1.008	# hn
  10	1.008	# hc

Pair Coeffs

   1	0.086	3.3996695084235347	# ca
   2	0.21	2.959921901149463	# o
   3	0.086	3.3996695084235347	# c
   4	0.17	3.249998523775958	# n
   5	0.1094	3.3996695084235347	# c3
   6	0.061	3.1181455134911875	# f
   7	0.086	3.3996695084235347	# cp
   8	0.015	2.59964245953351	# ha
   9	0.0157	1.069078461768407	# hn
  10	0.0157	2.649532787749369	# hc

Bond Coeffs

   1	356.9	1.3497	# c3,f
   2	450.2	1.4058	# ca,cp
   3	403.2	1.0129	# hn,n
   4	461.1	1.3984	# ca,ca
   5	427.6	1.3789	# c,n
   6	345.9	1.4906	# c,ca
   7	300.9	1.5375	# c3,c3
   8	330.6	1.0969	# c3,hc
   9	351.4	1.4854	# cp,cp
  10	345.8	1.086	# ca,ha
  11	321.0	1.5156	# c3,ca
  12	384.2	1.4121	# ca,n
  13	637.7	1.2183	# c,o

Angle Coeffs

   1	74.22	123.05	# n,c,o
   2	66.62	120.02	# ca,ca,ca
   3	68.72	122.6	# ca,c,o
   4	67.68	115.25	# ca,c,n
   5	48.33	117.55	# c,n,hn
   6	64.28	120.33	# c,ca,ca
   7	47.98	119.86	# cp,ca,ha
   8	39.4	107.58	# hc,c3,hc
   9	63.53	120.77	# c3,ca,ca
  10	70.89	107.36	# f,c3,f
  11	67.87	120.19	# ca,ca,n
  12	66.72	118.38	# ca,cp,ca
  13	46.8	110.47	# ca,c3,hc
  14	62.86	111.51	# c3,c3,c3
  15	66.11	109.24	# c3,c3,f
  16	63.15	112.07	# c3,c3,ca
  17	63.82	123.71	# c,n,ca
  18	66.26	120.69	# ca,ca,cp
  19	63.56	112.24	# ca,c3,ca
  20	63.74	127.08	# c,n,c
  21	48.18	119.88	# ca,ca,ha
  22	64.05	121.11	# ca,cp,cp

Dihedral Coeffs

   1	2	2.5	2	180	2.0	1	0	# hn,n,c,o
   2	1	3.625	2	180	# X,ca,cp,X
   3	1	1.0	2	180	# X,cp,cp,X
   4	1	3.625	2	180	# X,ca,ca,X
   5	1	1.0	2	180	# X,c,ca,X
   6	1	0.0	2	0	# X,c3,ca,X
   7	1	0.15555555555555556	3	0	# X,c3,c3,X
   8	1	2.5	2	180	# X,c,n,X
   9	1	0.45	2	180	# X,ca,n,X

Improper Coeffs

   1	10.5	-1	2	# c,X,X,o
   2	1.1	-1	2	# n,X,X,hn
   3	1.1	-1	2	# ca,ca,ca,c3
   4	1.1	-1	2	# ca,X,X,ha

Atoms

   1	1	1	-0.015291	-114.742	-23.6563	70.4801
   2	1	1	-0.066451	-116.083	-23.5344	70.934
   3	1	1	-0.157747	-117.073	-23.1515	69.9843
   4	1	2	-0.394636	-112.032	-23.5178	69.0157
   5	1	1	0.035045	-114.437	-23.3741	69.1467
   6	1	1	-0.04863	-116.745	-22.8916	68.6315
   7	1	2	-0.369731	-115.27	-22.2657	65.9333
   8	1	1	0.009912	-115.404	-22.998	68.2403
   9	1	3	0.064933	-113.109	-23.284	68.4927
  10	1	4	0.489832	-113.362	-22.8315	67.1993
  11	1	3	0.01974	-114.729	-22.6577	66.9531
  12	1	1	-0.15002	-119.748	-25.6476	72.5334
  13	1	5	-0.109385	-116.413	-23.6309	72.4562
  14	1	1	-0.027748	-117.92	-23.9747	72.7107
  15	1	1	-0.058225	-118.483	-25.152	72.1376
  16	1	1	-0.058862	-120.464	-24.9375	73.5074
  17	1	1	-0.073426	-118.715	-23.2578	73.6469
  18	1	1	-0.053817	-119.965	-23.7602	74.0187
  19	1	5	0.313225	-115.992	-22.2401	73.0765
  20	1	5	0.370299	-115.593	-24.7823	73.168
  21	1	6	-0.09626	-116.029	-22.2327	74.4287
  22	1	6	-0.107747	-116.79	-21.2443	72.6277
  23	1	6	-0.102822	-114.734	-21.8734	72.7424
  24	1	6	-0.119294	-114.299	-24.4765	73.405
  25	1	6	-0.123874	-115.592	-25.9169	72.4323
  26	1	6	-0.116977	-116.122	-25.102	74.372
  27	1	3	0.454578	-120.881	-23.2853	75.0851
  28	1	3	0.475587	-121.715	-25.2702	74.257
  29	1	4	-0.008375	-121.864	-24.258	75.202
  30	1	2	-0.468822	-120.727	-22.2872	75.7672
  31	1	2	-0.475809	-122.398	-26.2698	74.1159
  32	1	1	-0.104577	-122.83	-24.2355	76.2586
  33	1	1	0.090513	-124.146	-23.7984	75.9984
  34	1	1	0.041176	-122.437	-24.5173	77.5932
  35	1	1	0.130327	-123.348	-24.3158	78.6638
  36	1	7	-0.071967	-124.67	-23.8592	78.404
  37	1	1	-0.178735	-125.044	-23.6185	77.0641
  38	1	5	-0.205934	-124.609	-23.4827	74.5821
  39	1	1	-0.139817	-121.13	-24.9758	77.8805
  40	1	1	-0.146593	-120.722	-25.2103	79.2012
  41	1	1	-0.1545	-121.613	-24.9868	80.2576
  42	1	1	-0.172216	-122.916	-24.5417	79.9893
  43	1	7	-0.107816	-125.66	-23.551	79.4883
  44	1	1	-0.127649	-125.992	-22.1959	79.7253
  45	1	1	-0.062495	-126.908	-21.8266	80.723
  46	1	1	0.148158	-127.513	-22.8244	81.5062
  47	1	1	-0.091615	-127.213	-24.1806	81.2909
  48	1	1	0.137007	-126.291	-24.5517	80.2825
  49	1	1	-0.133704	-126.024	-25.9222	80.0825
  50	1	1	-0.230679	-127.84	-25.1632	82.0823
  51	1	1	-0.154845	-126.649	-26.8998	80.8752
  52	1	1	-0.105714	-127.557	-26.5215	81.8752
  53	1	5	-0.373818	-127.225	-20.3553	80.9474
  54	1	8	0.152766	-113.919	-23.88	71.149
  55	1	8	0.155405	-118.102	-22.9993	70.3011
  56	1	8	0.159938	-117.499	-22.5623	67.92
  57	1	8	0.168438	-120.133	-26.5877	72.1419
  58	1	8	0.13763	-117.902	-25.7304	71.4235
  59	1	8	0.146749	-118.373	-22.3661	74.1587
  60	1	8	0.160749	-126.051	-23.2658	76.8613
  61	1	10	0.074263	-124.614	-24.3896	73.9643
  62	1	10	0.076992	-123.952	-22.7454	74.1047
  63	1	10	0.075732	-125.625	-23.0717	74.5684
  64	1	8	0.120118	-120.411	-25.1567	77.0888
  65	1	8	0.145089	-119.711	-25.5554	79.404
  66	1	8	0.146654	-121.294	-25.1557	81.2835
  67	1	8	0.147988	-123.587	-24.3674	80.824
  68	1	8	0.166658	-125.516	-21.4228	79.1288
  69	1	8	0.132671	-125.33	-26.2377	79.3098
  70	1	8	0.178371	-128.549	-24.8742	82.8551
  71	1	8	0.137951	-126.432	-27.9523	80.7108
  72	1	8	0.128868	-128.043	-27.2796	82.485
  73	1	10	0.119422	-126.387	-19.8445	81.4385
  74	1	10	0.137967	-128.112	-20.2228	81.5806
  75	1	10	0.115874	-127.422	-19.843	79.9972
  76	1	1	-0.015291	-96.5828	-21.1172	59.3181
  77	1	1	-0.066451	-97.6935	-21.2345	60.2078
  78	1	1	-0.157747	-97.4153	-21.2017	61.6034
  79	1	2	-0.394636	-93.8065	-20.989	57.9115
  80	1	1	0.035045	-95.2831	-20.9723	59.8277
  81	1	1	-0.04863	-96.1002	-21.0221	62.0989
  82	1	2	-0.369731	-93.0106	-20.6839	62.4733
  83	1	1	0.009912	-95.0458	-20.9092	61.1823
  84	1	3	0.064933	-93.9706	-20.9197	59.1187
  85	1	4	0.489832	-92.9981	-20.8046	60.1186
  86	1	3	0.01974	-93.5735	-20.7781	61.3956
  87	1	1	-0.15002	-101.421	-19.4285	62.0425
  88	1	5	-0.109385	-99.14	-21.527	59.6674
  89	1	1	-0.027748	-100.28	-21.179	60.6987
  90	1	1	-0.058225	-100.314	-19.8832	61.2888
  91	1	1	-0.058862	-102.516	-20.2875	62.2061
  92	1	1	-0.073426	-101.402	-22.0307	60.9358
  93	1	1	-0.053817	-102.496	-21.5604	61.6826
  94	1	5	0.313225	-99.1576	-23.0512	59.2573
  95	1	5	0.370299	-99.4582	-20.6422	58.396
  96	1	6	-0.09626	-99.0974	-23.8456	60.3499
  97	1	6	-0.107747	-98.103	-23.403	58.488
  98	1	6	-0.102822	-100.256	-23.3963	58.5468
  99	1	6	-0.119294	-99.092	-19.3548	58.5893
 100	1	6	-0.123874	-100.781	-20.6282	58.1102
 101	1	6	-0.116977	-98.8412	-21.0538	57.2668
 102	1	3	0.454578	-103.808	-22.2061	61.9916
 103	1	3	0.475587	-103.847	-20.0705	62.851
 104	1	4	-0.008375	-104.561	-21.254	62.6756
 105	1	2	-0.468822	-104.138	-23.338	61.6847
 106	1	2	-0.475809	-104.216	-19.05	63.4065
 107	1	1	-0.104577	-105.899	-21.468	63.1658
 108	1	1	0.090513	-106.108	-21.6541	64.5521
 109	1	1	0.041176	-107.024	-21.4866	62.2951
 110	1	1	0.130327	-108.336	-21.6775	62.8161
 111	1	7	-0.071967	-108.543	-21.839	64.2126
 112	1	1	-0.178735	-107.41	-21.8262	65.0532
 113	1	5	-0.205934	-104.943	-21.6826	65.5345
 114	1	1	-0.139817	-106.865	-21.312	60.9009
 115	1	1	-0.146593	-107.974	-21.3387	60.0397
 116	1	1	-0.1545	-109.261	-21.5308	60.5565
 117	1	1	-0.172216	-109.44	-21.6939	61.9377
 118	1	7	-0.107816	-109.896	-22.0203	64.8441
 119	1	1	-0.127649	-110.472	-23.3091	64.886
 120	1	1	-0.062495	-111.66	-23.566	65.5928
 121	1	1	0.148158	-112.302	-22.5186	66.2949
 122	1	1	-0.091615	-111.782	-21.2004	66.2145
 123	1	1	0.137007	-110.584	-20.9564	65.4904
 124	1	1	-0.133704	-110.068	-19.6446	65.435
 125	1	1	-0.230679	-112.425	-20.1215	66.8705
 126	1	1	-0.154845	-110.722	-18.5839	66.0782
 127	1	1	-0.105714	-111.9	-18.8231	66.7965
 128	1	5	-0.373818	-112.196	-24.9946	65.6331
 129	1	8	0.152766	-96.694	-21.19	58.2421
 130	1	8	0.155405	-98.2192	-21.3436	62.3213
 131	1	8	0.159938	-95.8974	-21.0057	63.1676
 132	1	8	0.168438	-101.449	-18.4198	62.4506
 133	1	8	0.13763	-99.4894	-19.1957	61.1181
 134	1	8	0.146749	-101.486	-23.0262	60.516
 135	1	8	0.160749	-107.558	-21.9571	66.1217
 136	1	10	0.074263	-105.27	-21.9723	66.5407
 137	1	10	0.076992	-104.473	-20.6953	65.617
 138	1	10	0.075732	-104.18	-22.4052	65.2218
 139	1	8	0.120118	-105.884	-21.161	60.4645
 140	1	8	0.145089	-107.833	-21.2112	58.9691
 141	1	8	0.146654	-110.12	-21.551	59.8894
 142	1	8	0.147988	-110.445	-21.8343	62.3241
 143	1	8	0.166658	-109.95	-24.1276	64.3959
 144	1	8	0.132671	-109.157	-19.436	64.8822
 145	1	8	0.178371	-113.346	-20.2596	67.429
 146	1	8	0.137951	-110.316	-17.5774	66.0188
 147	1	8	0.128868	-112.408	-18.0002	67.2943
 148	1	10	0.119422	-111.695	-25.6358	64.8969
 149	1	10	0.137967	-113.27	-25.0308	65.4028
 150	1	10	0.115874	-112.039	-25.4495	66.6204
 151	1	1	-0.015291	-75.6972	-17.6783	53.858
 152	1	1	-0.066451	-76.7558	-17.8038	54.8075
 153	1	1	-0.157747	-76.4356	-17.544	56.1706
 154	1	2	-0.394636	-73.1123	-17.0472	52.2578
 155	1	1	0.035045	-74.4096	-17.3169	54.279
 156	1	1	-0.04863	-75.1192	-17.2145	56.5816
 157	1	2	-0.369731	-72.0884	-16.4195	56.7407
 158	1	1	0.009912	-74.1175	-17.1046	55.6071
 159	1	3	0.064933	-73.1949	-17.0051	53.4742
 160	1	4	0.489832	-72.2143	-16.6195	54.3932
 161	1	3	0.01974	-72.6879	-16.6801	55.7107
 162	1	1	-0.15002	-79.5993	-20.3809	57.1831
 163	1	5	-0.109385	-78.2366	-18.0569	54.3387
 164	1	1	-0.027748	-79.1768	-18.6343	55.4641
 165	1	1	-0.058225	-78.734	-19.7141	56.2807
 166	1	1	-0.058862	-80.9422	-19.9781	57.2493
 167	1	1	-0.073426	-80.5488	-18.2559	55.5823
 168	1	1	-0.053817	-81.3977	-18.9435	56.4646
 169	1	5	0.313225	-78.2852	-19.134	53.1845
 170	1	5	0.370299	-78.7595	-16.6709	53.7888
 171	1	6	-0.09626	-79.537	-19.6064	52.9819
 172	1	6	-0.107747	-77.5145	-20.2034	53.4869
 173	1	6	-0.102822	-77.8696	-18.6737	51.9841
 174	1	6	-0.119294	-79.8907	-16.7777	53.0555
 175	1	6	-0.123874	-77.8684	-16.0531	52.9812
 176	1	6	-0.116977	-79.0002	-15.8107	54.8041
 177	1	3	0.454578	-82.866	-18.8009	56.6928
 178	1	3	0.475587	-82.1071	-20.5217	58.0196
 179	1	4	-0.008375	-83.2167	-19.7723	57.6277
 180	1	2	-0.468822	-83.5982	-17.9961	56.1447
 181	1	2	-0.475809	-82.0754	-21.4531	58.8052
 182	1	1	-0.104577	-84.564	-19.9696	58.1061
 183	1	1	0.090513	-85.3404	-21.0463	57.6175
 184	1	1	0.041176	-85.1553	-19.0721	59.0347
 185	1	1	0.130327	-86.5029	-19.2531	59.4623
 186	1	7	-0.071967	-87.2974	-20.3225	58.9523
 187	1	1	-0.178735	-86.6787	-21.2023	58.0318
 188	1	5	-0.205934	-84.7624	-22.0481	56.6251
 189	1	1	-0.139817	-84.412	-17.9836	59.5487
 190	1	1	-0.146593	-84.9798	-17.0925	60.4703
 191	1	1	-0.1545	-86.2943	-17.2847	60.9093
 192	1	1	-0.172216	-87.0448	-18.3602	60.4136
 193	1	7	-0.107816	-88.7646	-20.5033	59.2969
 194	1	1	-0.127649	-89.6748	-19.4733	58.966
 195	1	1	-0.062495	-91.0498	-19.5568	59.2536
 196	1	1	0.148158	-91.583	-20.7221	59.8595
 197	1	1	-0.091615	-90.6952	-21.7842	60.1922
 198	1	1	0.137007	-89.2986	-21.6675	59.9238
 199	1	1	-0.133704	-88.4369	-22.718	60.3071
 200	1	1	-0.230679	-91.1799	-22.9684	60.8018
 201	1	1	-0.154845	-88.9342	-23.8785	60.9162
 202	1	1	-0.105714	-90.306	-24.0052	61.1583
 203	1	5	-0.373818	-91.9293	-18.3626	58.8907
 204	1	8	0.152766	-75.8589	-17.7845	52.7917
 205	1	8	0.155405	-77.2186	-17.5617	56.9243
 206	1	8	0.159938	-74.89	-17.0036	57.624
 207	1	8	0.168438	-79.2476	-21.218	57.7834
 208	1	8	0.13763	-77.7103	-20.0687	56.1866
 209	1	8	0.146749	-80.9993	-17.48	54.9755
 210	1	8	0.160749	-87.2681	-22.0172	57.6205
 211	1	10	0.074263	-84.2699	-21.5435	55.7852
 212	1	10	0.076992	-85.5403	-22.695	56.2017
 213	1	10	0.075732	-84.0261	-22.6984	57.1144
 214	1	8	0.120118	-83.3864	-17.8099	59.2424
 215	1	8	0.145089	-84.396	-16.2579	60.8507
 216	1	8	0.146654	-86.7315	-16.6042	61.6362
 217	1	8	0.147988	-88.0533	-18.5001	60.7882
 218	1	8	0.166658	-89.2881	-18.5837	58.4745
 219	1	8	0.132671	-87.3668	-22.6384	60.1485
 220	1	8	0.178371	-92.2333	-23.1048	61.0274
 221	1	8	0.137951	-88.2543	-24.6758	61.2059
 222	1	8	0.128868	-90.6907	-24.9033	61.6362
 223	1	10	0.119422	-92.5481	-18.5813	58.0097
 224	1	10	0.137967	-91.3302	-17.4755	58.6481
 225	1	10	0.115874	-92.5939	-18.0774	59.716
 226	1	1	-0.015291	-58.7803	-6.597	47.034
 227	1	1	-0.066451	-59.1286	-7.43603	48.1334
 228	1	1	-0.157747	-58.0633	-8.00159	48.89
 229	1	2	-0.394636	-57.4767	-4.57894	45.0854
 230	1	1	0.035045	-57.4358	-6.29433	46.7891
 231	1	1	-0.04863	-56.7103	-7.68185	48.6291
 232	1	2	-0.369731	-54.0868	-6.22142	47.7945
 233	1	1	0.009912	-56.4278	-6.7953	47.5838
 234	1	3	0.064933	-56.8592	-5.25903	45.8882
 235	1	4	0.489832	-55.5202	-5.1491	46.2637
 236	1	3	0.01974	-55.1656	-6.08214	47.242
 237	1	1	-0.15002	-61.0042	-11.4159	48.5679
 238	1	5	-0.109385	-60.594	-7.52163	48.6895
 239	1	1	-0.027748	-61.0316	-8.98089	49.0457
 240	1	1	-0.058225	-60.4979	-10.1082	48.3594
 241	1	1	-0.058862	-62.0764	-11.5871	49.459
 242	1	1	-0.073426	-62.102	-9.21148	49.9539
 243	1	1	-0.053817	-62.6043	-10.506	50.1273
 244	1	5	0.313225	-61.6632	-6.99703	47.6536
 245	1	5	0.370299	-60.6021	-6.58473	49.9655
 246	1	6	-0.09626	-61.5268	-7.61999	46.461
 247	1	6	-0.107747	-61.5849	-5.66359	47.4407
 248	1	6	-0.102822	-62.9358	-7.22861	48.0479
 249	1	6	-0.119294	-59.9038	-5.44382	49.7569
 250	1	6	-0.123874	-60.0318	-7.19473	51.0296
 251	1	6	-0.116977	-61.8344	-6.19058	50.3555
 252	1	3	0.454578	-63.7738	-10.9679	50.9211
 253	1	3	0.475587	-62.8903	-12.7913	49.8246
 254	1	4	-0.008375	-63.8844	-12.3345	50.6909
 255	1	2	-0.468822	-64.4975	-10.2626	51.6018
 256	1	2	-0.475809	-62.7257	-13.925	49.4085
 257	1	1	-0.104577	-64.933	-13.133	51.2682
 258	1	1	0.090513	-66.0437	-13.5138	50.4805
 259	1	1	0.041176	-64.9306	-13.4528	52.652
 260	1	1	0.130327	-66.0439	-14.1159	53.2407
 261	1	7	-0.071967	-67.1735	-14.4759	52.4543
 262	1	1	-0.178735	-67.1339	-14.1772	51.0741
 263	1	5	-0.205934	-66.1099	-13.1883	48.9933
 264	1	1	-0.139817	-63.8296	-13.104	53.4685
 265	1	1	-0.146593	-63.8266	-13.4019	54.839
 266	1	1	-0.1545	-64.9223	-14.0558	55.416
 267	1	1	-0.172216	-66.0227	-14.4098	54.6207
 268	1	7	-0.107816	-68.4215	-15.1011	53.0276
 269	1	1	-0.127649	-69.3775	-14.2691	53.6485
 270	1	1	-0.062495	-70.6068	-14.7646	54.1219
 271	1	1	0.148158	-70.9139	-16.1444	54.0002
 272	1	1	-0.091615	-69.9492	-17.0115	53.4149
 273	1	1	0.137007	-68.7185	-16.4878	52.9252
 274	1	1	-0.133704	-67.7843	-17.3585	52.3262
 275	1	1	-0.230679	-70.1973	-18.401	53.2943
 276	1	1	-0.154845	-68.0488	-18.7305	52.2118
 277	1	1	-0.105714	-69.2539	-19.2507	52.6977
 278	1	5	-0.373818	-71.59	-13.7688	54.7335
 279	1	8	0.152766	-59.5136	-6.08184	46.426
 280	1	8	0.155405	-58.2883	-8.62031	49.756
 281	1	8	0.159938	-55.91	-8.03828	49.2744
 282	1	8	0.168438	-60.6049	-12.2668	48.0189
 283	1	8	0.13763	-59.7088	-9.96875	47.6248
 284	1	8	0.146749	-62.6045	-8.40487	50.4754
 285	1	8	0.160749	-67.9916	-14.4443	50.463
 286	1	10	0.074263	-65.374	-13.778	48.4322
 287	1	10	0.076992	-65.9136	-12.1256	48.8065
 288	1	10	0.075732	-67.0976	-13.4132	48.5726
 289	1	8	0.120118	-62.962	-12.601	53.0554
 290	1	8	0.145089	-62.9733	-13.1237	55.453
 291	1	8	0.146654	-64.92	-14.2884	56.4784
 292	1	8	0.147988	-66.862	-14.92	55.0839
 293	1	8	0.166658	-69.16	-13.2069	53.731
 294	1	8	0.132671	-66.8416	-16.9755	51.947
 295	1	8	0.178371	-71.1202	-18.8479	53.6509
 296	1	8	0.137951	-67.3189	-19.3884	51.7466
 297	1	8	0.128868	-69.4593	-20.3148	52.6072
 298	1	10	0.119422	-71.2635	-12.7314	54.5857
 299	1	10	0.137967	-71.6832	-13.9208	55.8179
 300	1	10	0.115874	-72.5893	-13.8525	54.2879
 301	1	1	-0.015291	-41.3637	6.40277	44.6611
 302	1	1	-0.066451	-42.2339	5.30267	44.9162
 303	1	1	-0.157747	-41.8553	4.02478	44.4163
 304	1	2	-0.394636	-39.0532	8.32879	43.8031
 305	1	1	0.035045	-40.1975	6.19468	43.9081
 306	1	1	-0.04863	-40.6855	3.83792	43.6523
 307	1	2	-0.369731	-38.0032	4.13192	42.1203
 308	1	1	0.009912	-39.8747	4.94854	43.4117
 309	1	3	0.064933	-39.1106	7.14244	43.5251
 310	1	4	0.489832	-38.1885	6.37493	42.8095
 311	1	3	0.01974	-38.5829	5.04331	42.6871
 312	1	1	-0.15002	-45.8011	3.75495	43.0942
 313	1	5	-0.109385	-43.5286	5.4168	45.7875
 314	1	1	-0.027748	-44.6752	4.56775	45.147
 315	1	1	-0.058225	-44.8044	4.52422	43.7298
 316	1	1	-0.058862	-46.7071	3.05505	43.8979
 317	1	1	-0.073426	-45.6468	3.87443	45.9238
 318	1	1	-0.053817	-46.6478	3.13527	45.2724
 319	1	5	0.313225	-44.0794	6.88911	45.8854
 320	1	5	0.370299	-43.1232	4.90973	47.2253
 321	1	6	-0.09626	-43.3091	7.69824	46.6474
 322	1	6	-0.107747	-45.3199	6.92747	46.4233
 323	1	6	-0.102822	-44.1794	7.45736	44.6626
 324	1	6	-0.119294	-42.9484	3.56881	47.2457
 325	1	6	-0.123874	-44.0311	5.20911	48.1811
 326	1	6	-0.116977	-41.9525	5.45178	47.6332
 327	1	3	0.454578	-47.7722	2.32653	45.8265
 328	1	3	0.475587	-47.842	2.16427	43.5277
 329	1	4	-0.008375	-48.4285	1.77405	44.7276
 330	1	2	-0.468822	-48.0328	2.17879	47.0079
 331	1	2	-0.475809	-48.1607	1.84282	42.3962
 332	1	1	-0.104577	-49.5411	0.870065	44.8167
 333	1	1	0.090513	-49.3406	-0.426555	45.3436
 334	1	1	0.041176	-50.8357	1.23668	44.3574
 335	1	1	0.130327	-51.9149	0.313143	44.4417
 336	1	7	-0.071967	-51.7252	-0.967558	45.0356
 337	1	1	-0.178735	-50.4239	-1.31071	45.4582
 338	1	5	-0.205934	-47.972	-0.909219	45.8105
 339	1	1	-0.139817	-51.0766	2.52055	43.8132
 340	1	1	-0.146593	-52.3442	2.87303	43.3273
 341	1	1	-0.1545	-53.3951	1.94992	43.3788
 342	1	1	-0.172216	-53.1802	0.680174	43.9342
 343	1	7	-0.107816	-52.8218	-1.9718	45.2773
 344	1	1	-0.127649	-52.7218	-3.24167	44.6655
 345	1	1	-0.062495	-53.6285	-4.2787	44.9464
 346	1	1	0.148158	-54.6728	-4.06439	45.8756
 347	1	1	-0.091615	-54.8228	-2.7864	46.479
 348	1	1	0.137007	-53.8935	-1.75052	46.1899
 349	1	1	-0.133704	-54.0263	-0.509193	46.8512
 350	1	1	-0.230679	-55.8755	-2.53126	47.3946
 351	1	1	-0.154845	-55.0826	-0.268342	47.7404
 352	1	1	-0.105714	-56.011	-1.27859	48.0071
 353	1	5	-0.373818	-53.4413	-5.62497	44.2526
 354	1	8	0.152766	-41.554	7.40061	45.0408
 355	1	8	0.155405	-42.4745	3.15563	44.6273
 356	1	8	0.159938	-40.4036	2.85815	43.2728
 357	1	8	0.168438	-45.8738	3.70846	42.0093
 358	1	8	0.13763	-44.113	5.08512	43.1062
 359	1	8	0.146749	-45.6487	3.89693	47.0086
 360	1	8	0.160749	-50.2646	-2.28672	45.9078
 361	1	10	0.074263	-47.7401	-0.517966	46.8089
 362	1	10	0.076992	-47.1753	-0.598879	45.1244
 363	1	10	0.075732	-47.9322	-2.00371	45.8702
 364	1	8	0.120118	-50.2875	3.26121	43.75
 365	1	8	0.145089	-52.5073	3.86009	42.901
 366	1	8	0.146654	-54.3759	2.21755	42.9923
 367	1	8	0.147988	-54.0069	-0.0231304	43.966
 368	1	8	0.166658	-51.903	-3.41985	43.9731
 369	1	8	0.132671	-53.3121	0.288293	46.6811
 370	1	8	0.178371	-56.6166	-3.28372	47.6438
 371	1	8	0.137951	-55.1766	0.700197	48.2249
 372	1	8	0.128868	-56.831	-1.09452	48.6974
 373	1	10	0.119422	-53.2112	-6.41892	44.9758
 374	1	10	0.137967	-52.6144	-5.5999	43.5309
 375	1	10	0.115874	-54.3416	-5.91558	43.6952
 376	1	1	-0.015291	-21.7211	9.76881	34.8132
 377	1	1	-0.066451	-22.7763	9.18316	35.57
 378	1	1	-0.157747	-22.6848	7.78889	35.8501
 379	1	2	-0.394636	-19.3937	10.3977	32.8696
 380	1	1	0.035045	-20.6784	8.96933	34.3335
 381	1	1	-0.04863	-21.591	7.00866	35.4032
 382	1	2	-0.369731	-19.0469	5.89805	33.958
 383	1	1	0.009912	-20.6009	7.62773	34.6312
 384	1	3	0.064933	-19.584	9.30901	33.3858
 385	1	4	0.489832	-18.8976	8.11383	33.1644
 386	1	3	0.01974	-19.4232	7.05779	33.9171
 387	1	1	-0.15002	-25.5235	8.33951	39.1773
 388	1	5	-0.109385	-24.0127	10.0464	35.9963
 389	1	1	-0.027748	-25.0248	9.26531	36.9232
 390	1	1	-0.058225	-24.61	8.83046	38.2173
 391	1	1	-0.058862	-26.8767	8.26612	38.829
 392	1	1	-0.073426	-26.4057	9.09325	36.5996
 393	1	1	-0.053817	-27.2974	8.60505	37.564
 394	1	5	0.313225	-24.7277	10.5534	34.6753
 395	1	5	0.370299	-23.5226	11.3039	36.8245
 396	1	6	-0.09626	-25.1778	9.51141	33.9397
 397	1	6	-0.107747	-23.9354	11.2529	33.8351
 398	1	6	-0.102822	-25.7686	11.3772	34.9361
 399	1	6	-0.119294	-24.543	11.8946	37.4878
 400	1	6	-0.123874	-22.9468	12.2708	36.0781
 401	1	6	-0.116977	-22.5957	10.966	37.7492
 402	1	3	0.454578	-28.7828	8.48013	37.5178
 403	1	3	0.475587	-28.0803	7.93735	39.645
 404	1	4	-0.008375	-29.1744	8.11551	38.8023
 405	1	2	-0.468822	-29.495	8.72714	36.5605
 406	1	2	-0.475809	-28.085	7.63382	40.8255
 407	1	1	-0.104577	-30.5356	7.99506	39.2416
 408	1	1	0.090513	-31.064	6.71399	39.5151
 409	1	1	0.041176	-31.3386	9.14331	39.4813
 410	1	1	0.130327	-32.6384	9.00382	40.0408
 411	1	7	-0.071967	-33.1448	7.71731	40.37
 412	1	1	-0.178735	-32.3451	6.59183	40.0763
 413	1	5	-0.205934	-30.2647	5.4469	39.237
 414	1	1	-0.139817	-30.8562	10.4416	39.1926
 415	1	1	-0.146593	-31.6449	11.5756	39.4373
 416	1	1	-0.1545	-32.9221	11.4348	39.9931
 417	1	1	-0.172216	-33.4108	10.1566	40.3002
 418	1	7	-0.107816	-34.4557	7.49463	41.0693
 419	1	1	-0.127649	-35.6648	7.6134	40.3497
 420	1	1	-0.062495	-36.9043	7.30466	40.9371
 421	1	1	0.148158	-36.9544	6.85605	42.2782
 422	1	1	-0.091615	-35.7613	6.78517	43.0416
 423	1	1	0.137007	-34.518	7.10273	42.4352
 424	1	1	-0.133704	-33.3364	7.01909	43.2033
 425	1	1	-0.230679	-35.786	6.38702	44.4011
 426	1	1	-0.154845	-33.3761	6.62959	44.5494
 427	1	1	-0.105714	-34.6011	6.31447	45.148
 428	1	5	-0.373818	-38.1686	7.42139	40.0903
 429	1	8	0.152766	-21.7142	10.8182	34.5393
 430	1	8	0.155405	-23.4751	7.2816	36.3947
 431	1	8	0.159938	-21.5373	5.94116	35.6058
 432	1	8	0.168438	-25.1989	8.07243	40.1815
 433	1	8	0.13763	-23.5676	8.91406	38.5095
 434	1	8	0.146749	-26.8381	9.3848	35.6504
 435	1	8	0.160749	-32.7295	5.60473	40.3187
 436	1	10	0.074263	-29.4307	5.34463	39.942
 437	1	10	0.076992	-29.8577	5.45081	38.2183
 438	1	10	0.075732	-30.8864	4.54817	39.3324
 439	1	8	0.120118	-29.8717	10.5934	38.7653
 440	1	8	0.145089	-31.2617	12.5649	39.1986
 441	1	8	0.146654	-33.5308	12.3142	40.191
 442	1	8	0.147988	-34.3977	10.0677	40.7437
 443	1	8	0.166658	-35.6222	7.91662	39.3064
 444	1	8	0.132671	-32.3745	7.26771	42.7657
 445	1	8	0.178371	-36.715	6.14441	44.9083
 446	1	8	0.137951	-32.4567	6.57687	45.1273
 447	1	8	0.128868	-34.632	6.01789	46.1938
 448	1	10	0.119422	-38.5834	6.43162	39.8574
 449	1	10	0.137967	-37.9725	7.92403	39.1344
 450	1	10	0.115874	-38.9426	8.00937	40.6019
 451	1	1	-0.015291	-10.278	1.6486	18.727
 452	1	1	-0.066451	-10.9852	2.62556	19.484
 453	1	1	-0.157747	-11.2291	3.88615	18.8687
 454	1	2	-0.394636	-8.84064	-0.0757201	16.5896
 455	1	1	0.035045	-9.85684	1.95126	17.4273
 456	1	1	-0.04863	-10.7799	4.17848	17.5588
 457	1	2	-0.369731	-9.62729	4.06301	14.6436
 458	1	1	0.009912	-10.0974	3.18057	16.8525
 459	1	3	0.064933	-9.19089	1.08113	16.423
 460	1	4	0.489832	-9.07333	1.86228	15.2738
 461	1	3	0.01974	-9.58451	3.15076	15.4518
 462	1	1	-0.15002	-10.388	5.38723	22.8806
 463	1	5	-0.109385	-11.6445	2.28185	20.8617
 464	1	1	-0.027748	-11.6254	3.49997	21.8443
 465	1	1	-0.058225	-10.4913	4.35855	21.9127
 466	1	1	-0.058862	-11.4289	5.53645	23.809
 467	1	1	-0.073426	-12.6566	3.69646	22.8039
 468	1	1	-0.053817	-12.5277	4.70734	23.7627
 469	1	5	0.313225	-10.8886	1.12429	21.6219
 470	1	5	0.370299	-13.1117	1.81357	20.5134
 471	1	6	-0.09626	-11.2795	1.02183	22.913
 472	1	6	-0.107747	-9.55509	1.34844	21.6456
 473	1	6	-0.102822	-11.0867	-0.0983191	21.0795
 474	1	6	-0.119294	-13.1367	0.970255	19.4557
 475	1	6	-0.123874	-13.8923	2.86592	20.1779
 476	1	6	-0.116977	-13.7269	1.15524	21.5216
 477	1	3	0.454578	-13.4244	5.05414	24.8947
 478	1	3	0.475587	-11.5948	6.45507	24.9797
 479	1	4	-0.008375	-12.8038	6.09655	25.5701
 480	1	2	-0.468822	-14.4776	4.50618	25.1699
 481	1	2	-0.475809	-10.8153	7.32087	25.3368
 482	1	1	-0.104577	-13.3921	6.69936	26.7285
 483	1	1	0.090513	-13.1333	6.15391	28.0055
 484	1	1	0.041176	-14.375	7.71046	26.5892
 485	1	1	0.130327	-15.1449	8.11451	27.7112
 486	1	7	-0.071967	-14.9404	7.51166	28.9833
 487	1	1	-0.178735	-13.9048	6.55938	29.1093
 488	1	5	-0.205934	-12.0867	5.06411	28.1985
 489	1	1	-0.139817	-14.6307	8.29866	25.3288
 490	1	1	-0.146593	-15.6221	9.27983	25.182
 491	1	1	-0.1545	-16.3771	9.68288	26.2902
 492	1	1	-0.172216	-16.141	9.10103	27.5446
 493	1	7	-0.107816	-15.9011	7.70884	30.1223
 494	1	1	-0.127649	-17.1858	7.14566	29.9854
 495	1	1	-0.062495	-18.1663	7.27365	30.9792
 496	1	1	0.148158	-17.8701	7.97	32.1771
 497	1	1	-0.091615	-16.5825	8.55115	32.3429
 498	1	1	0.137007	-15.6045	8.41945	31.317
 499	1	1	-0.133704	-14.3404	9.02179	31.4829
 500	1	1	-0.230679	-16.2553	9.2784	33.5135
 501	1	1	-0.154845	-14.0352	9.74416	32.646
 502	1	1	-0.105714	-14.9924	9.87122	33.66
 503	1	5	-0.373818	-19.5361	6.65477	30.7076
 504	1	8	0.152766	-10.0916	0.645017	19.0897
 505	1	8	0.155405	-11.8117	4.63883	19.3955
 506	1	8	0.159938	-10.9912	5.13628	17.0879
 507	1	8	0.168438	-9.50859	6.0266	22.9313
 508	1	8	0.13763	-9.662	4.20714	21.2261
 509	1	8	0.146749	-13.5323	3.06102	22.8629
 510	1	8	0.160749	-13.7538	6.07738	30.0712
 511	1	10	0.074263	-11.8895	4.87642	29.2611
 512	1	10	0.076992	-11.1312	5.34691	27.7391
 513	1	10	0.075732	-12.418	4.11905	27.7507
 514	1	8	0.120118	-14.0595	8.01374	24.4516
 515	1	8	0.145089	-15.8034	9.72817	24.2082
 516	1	8	0.146654	-17.145	10.445	26.1792
 517	1	8	0.147988	-16.7325	9.43165	28.3933
 518	1	8	0.166658	-17.4158	6.59985	29.0732
 519	1	8	0.132671	-13.59	8.94333	30.7022
 520	1	8	0.178371	-16.9714	9.41446	34.3188
 521	1	8	0.137951	-13.0596	10.2108	32.7571
 522	1	8	0.128868	-14.7583	10.4384	34.558
 523	1	10	0.119422	-19.6192	6.29019	29.6755
 524	1	10	0.137967	-20.3489	7.37773	30.8527
 525	1	10	0.115874	-19.7184	5.79126	31.3611
 526	1	1	-0.015291	1.11071	-4.96546	2.9777
 527	1	1	-0.066451	0.0422216	-4.10254	2.57876
 528	1	1	-0.157747	-0.977913	-4.68882	1.76729
 529	1	2	-0.394636	3.32435	-7.17509	3.18072
 530	1	1	0.035045	1.19232	-6.27029	2.46123
 531	1	1	-0.04863	-0.905499	-6.01745	1.30027
 532	1	2	-0.369731	-0.00375033	-8.8513	0.416243
 533	1	1	0.009912	0.214223	-6.7761	1.63479
 534	1	3	0.064933	2.28247	-7.28789	2.55634
 535	1	4	0.489832	1.87199	-8.3518	1.7465
 536	1	3	0.01974	0.622332	-8.1267	1.1714
 537	1	1	-0.15002	-0.293302	-0.758871	6.32807
 538	1	5	-0.109385	0.0904468	-2.55029	2.87928
 539	1	1	-0.027748	-0.392099	-2.22389	4.33124
 540	1	1	-0.058225	0.255933	-1.22936	5.12202
 541	1	1	-0.058862	-1.52558	-1.27004	6.73441
 542	1	1	-0.073426	-1.62455	-2.75377	4.81515
 543	1	1	-0.053817	-2.1813	-2.24028	6.00554
 544	1	5	0.313225	-0.862954	-1.70848	1.9267
 545	1	5	0.370299	1.57895	-2.05911	2.57574
 546	1	6	-0.09626	-2.17577	-1.98208	2.09619
 547	1	6	-0.107747	-0.577982	-1.90078	0.618752
 548	1	6	-0.102822	-0.795568	-0.37756	2.15798
 549	1	6	-0.119294	2.04666	-2.58505	1.42058
 550	1	6	-0.123874	2.45825	-2.40985	3.54065
 551	1	6	-0.116977	1.72718	-0.721027	2.44821
 552	1	3	0.454578	-3.52051	-2.45037	6.64937
 553	1	3	0.475587	-2.39629	-0.838803	7.85516
 554	1	4	-0.008375	-3.57631	-1.55503	7.71856
 555	1	2	-0.468822	-4.39888	-3.19931	6.25981
 556	1	2	-0.475809	-2.12954	0.0182457	8.6799
 557	1	1	-0.104577	-4.69862	-1.29157	8.57315
 558	1	1	0.090513	-4.76536	-1.92094	9.83385
 559	1	1	0.041176	-5.59193	-0.227829	8.28211
 560	1	1	0.130327	-6.47705	0.261721	9.28222
 561	1	7	-0.071967	-6.49973	-0.330841	10.5775
 562	1	1	-0.178735	-5.65385	-1.43901	10.8103
 563	1	5	-0.205934	-3.83697	-3.07606	10.1843
 564	1	1	-0.139817	-5.58036	0.389536	7.00998
 565	1	1	-0.146593	-6.42974	1.46914	6.7263
 566	1	1	-0.1545	-7.28013	1.96946	7.71935
 567	1	1	-0.172216	-7.29179	1.37794	8.99083
 568	1	7	-0.107816	-7.25347	0.246429	11.7476
 569	1	1	-0.127649	-6.48846	0.78473	12.8048
 570	1	1	-0.062495	-7.08149	1.34158	13.9483
 571	1	1	0.148158	-8.48998	1.37497	14.0635
 572	1	1	-0.091615	-9.29032	0.856351	13.0108
 573	1	1	0.137007	-8.67259	0.282269	11.8647
 574	1	1	-0.133704	-9.4838	-0.264444	10.8481
 575	1	1	-0.230679	-10.7041	0.89095	13.0894
 576	1	1	-0.154845	-10.8829	-0.21835	10.938
 577	1	1	-0.105714	-11.4921	0.363951	12.0558
 578	1	5	-0.373818	-6.17333	1.88309	15.0493
 579	1	8	0.152766	1.92216	-4.63333	3.61259
 580	1	8	0.155405	-1.83121	-4.12259	1.42172
 581	1	8	0.159938	-1.66816	-6.42871	0.642307
 582	1	8	0.168438	0.188531	0.0351854	6.89608
 583	1	8	0.13763	1.16986	-0.749339	4.79478
 584	1	8	0.146749	-2.1887	-3.47717	4.23183
 585	1	8	0.160749	-5.65956	-1.89789	11.795
 586	1	10	0.074263	-3.89876	-3.86936	9.42854
 587	1	10	0.076992	-4.09756	-3.52725	11.1495
 588	1	10	0.075732	-2.79466	-2.74036	10.2464
 589	1	8	0.120118	-4.92855	0.0304292	6.22065
 590	1	8	0.145089	-6.41958	1.92525	5.73933
 591	1	8	0.146654	-7.9271	2.81782	7.5077
 592	1	8	0.147988	-7.94544	1.79604	9.74929
 593	1	8	0.166658	-5.40459	0.764647	12.7217
 594	1	8	0.132671	-9.032	-0.726933	9.97611
 595	1	8	0.178371	-11.2175	1.33297	13.9386
 596	1	8	0.137951	-11.4936	-0.634226	10.1406
 597	1	8	0.128868	-12.577	0.402125	12.1233
 598	1	10	0.119422	-6.4437	2.90976	15.3294
 599	1	10	0.137967	-5.12239	1.9082	14.733
 600	1	10	0.115874	-6.22372	1.25362	15.948
 601	1	1	-0.015291	13.7043	-21.4939	-3.13626
 602	1	1	-0.066451	12.3261	-21.1855	-2.94064
 603	1	1	-0.157747	11.4145	-21.5486	-3.97176
 604	1	2	-0.394636	16.5028	-22.4382	-4.13137
 605	1	1	0.035045	14.1101	-22.1207	-4.32268
 606	1	1	-0.04863	11.8441	-22.1717	-5.16445
 607	1	2	-0.369731	13.4607	-23.5105	-7.46904
 608	1	1	0.009912	13.2069	-22.4469	-5.31176
 609	1	3	0.064933	15.4638	-22.5667	-4.75781
 610	1	4	0.489832	15.2773	-23.14	-6.01738
 611	1	3	0.01974	13.9424	-23.1043	-6.4248
 612	1	1	-0.15002	10.0106	-17.5077	-3.22055
 613	1	5	-0.109385	11.7706	-20.5826	-1.60555
 614	1	1	-0.027748	10.6992	-19.4783	-1.88732
 615	1	1	-0.058225	10.8645	-18.6094	-3.00193
 616	1	1	-0.058862	8.99037	-17.2658	-2.29367
 617	1	1	-0.073426	9.63581	-19.1997	-0.97914
 618	1	1	-0.053817	8.8028	-18.0915	-1.20659
 619	1	5	0.313225	12.8875	-19.8728	-0.74775
 620	1	5	0.370299	11.1835	-21.8037	-0.798247
 621	1	6	-0.09626	13.7686	-20.7376	-0.196258
 622	1	6	-0.107747	12.3683	-19.1614	0.278809
 623	1	6	-0.102822	13.5914	-18.9922	-1.49525
 624	1	6	-0.119294	10.0122	-22.2246	-1.32679
 625	1	6	-0.123874	10.9594	-21.5368	0.507701
 626	1	6	-0.116977	12.0206	-22.8665	-0.823879
 627	1	3	0.454578	7.71328	-17.506	-0.367175
 628	1	3	0.475587	8.04108	-16.1242	-2.18295
 629	1	4	-0.008375	7.33654	-16.3224	-0.999556
 630	1	2	-0.468822	7.3036	-17.9524	0.690271
 631	1	2	-0.475809	7.9694	-15.1777	-2.94749
 632	1	1	-0.104577	6.42768	-15.3447	-0.467509
 633	1	1	0.090513	6.83689	-14.5283	0.613209
 634	1	1	0.041176	5.17308	-15.0959	-1.08391