pySIMM System Object

3077 atoms
3404 bonds
5904 angles
9098 dihedrals
984 impropers

10 atom types
13 bond types
22 angle types
9 dihedral types
4 improper types

-228.753173 228.753173 xlo xhi
-228.753173 228.753173 ylo yhi
-228.753173 228.753173 zlo zhi

Masses

   1	12.01	# ca
   2	16.0	# o
   3	12.01	# c
   4	14.01	# n
   5	12.01	# c3
   6	19.0	# f
   7	12.01	# cp
   8	1.008	# ha
   9	1.008	# hn
  10	1.008	# hc

Pair Coeffs

   1	0.086	3.3996695084235347	# ca
   2	0.21	2.959921901149463	# o
   3	0.086	3.3996695084235347	# c
   4	0.17	3.249998523775958	# n
   5	0.1094	3.3996695084235347	# c3
   6	0.061	3.1181455134911875	# f
   7	0.086	3.3996695084235347	# cp
   8	0.015	2.59964245953351	# ha
   9	0.0157	1.069078461768407	# hn
  10	0.0157	2.649532787749369	# hc

Bond Coeffs

   1	356.9	1.3497	# c3,f
   2	450.2	1.4058	# ca,cp
   3	403.2	1.0129	# hn,n
   4	461.1	1.3984	# ca,ca
   5	427.6	1.3789	# c,n
   6	345.9	1.4906	# c,ca
   7	300.9	1.5375	# c3,c3
   8	330.6	1.0969	# c3,hc
   9	351.4	1.4854	# cp,cp
  10	345.8	1.086	# ca,ha
  11	321.0	1.5156	# c3,ca
  12	384.2	1.4121	# ca,n
  13	637.7	1.2183	# c,o

Angle Coeffs

   1	74.22	123.05	# n,c,o
   2	66.62	120.02	# ca,ca,ca
   3	68.72	122.6	# ca,c,o
   4	67.68	115.25	# ca,c,n
   5	48.33	117.55	# c,n,hn
   6	64.28	120.33	# c,ca,ca
   7	47.98	119.86	# cp,ca,ha
   8	39.4	107.58	# hc,c3,hc
   9	63.53	120.77	# c3,ca,ca
  10	70.89	107.36	# f,c3,f
  11	67.87	120.19	# ca,ca,n
  12	66.72	118.38	# ca,cp,ca
  13	46.8	110.47	# ca,c3,hc
  14	62.86	111.51	# c3,c3,c3
  15	66.11	109.24	# c3,c3,f
  16	63.15	112.07	# c3,c3,ca
  17	63.82	123.71	# c,n,ca
  18	66.26	120.69	# ca,ca,cp
  19	63.56	112.24	# ca,c3,ca
  20	63.74	127.08	# c,n,c
  21	48.18	119.88	# ca,ca,ha
  22	64.05	121.11	# ca,cp,cp

Dihedral Coeffs

   1	2	2.5	2	180	2.0	1	0	# hn,n,c,o
   2	1	3.625	2	180	# X,ca,cp,X
   3	1	1.0	2	180	# X,cp,cp,X
   4	1	3.625	2	180	# X,ca,ca,X
   5	1	1.0	2	180	# X,c,ca,X
   6	1	0.0	2	0	# X,c3,ca,X
   7	1	0.15555555555555556	3	0	# X,c3,c3,X
   8	1	2.5	2	180	# X,c,n,X
   9	1	0.45	2	180	# X,ca,n,X

Improper Coeffs

   1	10.5	-1	2	# c,X,X,o
   2	1.1	-1	2	# n,X,X,hn
   3	1.1	-1	2	# ca,ca,ca,c3
   4	1.1	-1	2	# ca,X,X,ha

Atoms

   1	1	1	-0.015291	-66.4126	38.0045	106.545
   2	1	1	-0.066451	-67.5324	37.7385	107.378
   3	1	1	-0.157747	-67.3834	36.7763	108.418
   4	1	2	-0.394636	-63.672	38.0703	105.076
   5	1	1	0.035045	-65.2099	37.3303	106.79
   6	1	1	-0.04863	-66.1614	36.114	108.652
   7	1	2	-0.369731	-63.2604	35.0002	108.535
   8	1	1	0.009912	-65.0854	36.4153	107.816
   9	1	3	0.064933	-63.923	37.3781	106.049
  10	1	4	0.489832	-63.0971	36.4586	106.695
  11	1	3	0.01974	-63.716	35.8435	107.781
  12	1	1	-0.15002	-69.4387	39.5709	110.79
  13	1	5	-0.109385	-68.9308	38.3756	107.126
  14	1	1	-0.027748	-69.6143	38.6195	108.507
  15	1	1	-0.058225	-68.905	39.3491	109.504
  16	1	1	-0.058862	-70.7016	39.0434	111.075
  17	1	1	-0.073426	-70.9036	38.1197	108.837
  18	1	1	-0.053817	-71.4085	38.3366	110.125
  19	1	5	0.313225	-69.71	37.359	106.206
  20	1	5	0.370299	-68.8664	39.7798	106.405
  21	1	6	-0.09626	-70.9084	37.8338	105.797
  22	1	6	-0.107747	-69.9281	36.1801	106.833
  23	1	6	-0.102822	-69.0118	37.0497	105.09
  24	1	6	-0.119294	-68.5647	39.7049	105.09
  25	1	6	-0.123874	-67.9414	40.5925	106.964
  26	1	6	-0.116977	-70.0494	40.4302	106.488
  27	1	3	0.454578	-72.6398	37.8025	110.764
  28	1	3	0.475587	-71.4614	38.9965	112.353
  29	1	4	-0.008375	-72.5719	38.2034	112.092
  30	1	2	-0.468822	-73.4437	37.0444	110.251
  31	1	2	-0.475809	-71.0928	39.4408	113.426
  32	1	1	-0.104577	-73.428	37.69	113.111
  33	1	1	0.090513	-72.9949	36.5682	113.85
  34	1	1	0.041176	-74.6956	38.2645	113.375
  35	1	1	0.130327	-75.5211	37.7171	114.391
  36	1	7	-0.071967	-75.0732	36.6032	115.154
  37	1	1	-0.178735	-73.8152	36.0426	114.856
  38	1	5	-0.205934	-71.6487	35.9052	113.58
  39	1	1	-0.139817	-75.1562	39.3774	112.636
  40	1	1	-0.146593	-76.4185	39.9346	112.89
  41	1	1	-0.1545	-77.2387	39.3859	113.884
  42	1	1	-0.172216	-76.7923	38.283	114.628
  43	1	7	-0.107816	-75.8745	35.9732	116.249
  44	1	1	-0.127649	-76.3643	34.6618	116.052
  45	1	1	-0.062495	-77.0947	33.9966	117.048
  46	1	1	0.148158	-77.3462	34.6467	118.269
  47	1	1	-0.091615	-76.8593	35.9458	118.501
  48	1	1	0.137007	-76.1151	36.6116	117.498
  49	1	1	-0.133704	-75.6095	37.9005	117.771
  50	1	1	-0.230679	-77.1058	36.5724	119.739
  51	1	1	-0.154845	-75.8575	38.5221	119.006
  52	1	1	-0.105714	-76.6078	37.8605	119.989
  53	1	5	-0.373818	-77.5965	32.5841	116.786
  54	1	8	0.152766	-66.4585	38.6883	105.704
  55	1	8	0.155405	-68.2328	36.5129	109.044
  56	1	8	0.159938	-66.0575	35.3696	109.439
  57	1	8	0.168438	-68.8748	40.1031	111.553
  58	1	8	0.13763	-67.9081	39.7257	109.291
  59	1	8	0.146749	-71.5071	37.5402	108.147
  60	1	8	0.160749	-73.4739	35.1879	115.433
  61	1	10	0.074263	-70.8216	36.58	113.833
  62	1	10	0.076992	-71.552	35.619	112.526
  63	1	10	0.075732	-71.5191	34.9936	114.176
  64	1	8	0.120118	-74.5478	39.8196	111.854
  65	1	8	0.145089	-76.7627	40.7882	112.311
  66	1	8	0.146654	-78.2203	39.8123	114.078
  67	1	8	0.147988	-77.445	37.8666	115.389
  68	1	8	0.166658	-76.1736	34.1609	115.107
  69	1	8	0.132671	-75.0179	38.4276	117.029
  70	1	8	0.178371	-77.6778	36.0593	120.508
  71	1	8	0.137951	-75.4637	39.5166	119.202
  72	1	8	0.128868	-76.7962	38.3426	120.945
  73	1	10	0.119422	-78.3602	32.5793	115.998
  74	1	10	0.137967	-78.0416	32.1369	117.684
  75	1	10	0.115874	-76.7769	31.9292	116.464
  76	1	1	-0.015291	-46.5504	34.0549	99.4861
  77	1	1	-0.066451	-47.6131	34.8093	100.055
  78	1	1	-0.157747	-48.4554	35.5517	99.1797
  79	1	2	-0.394636	-44.6327	32.4507	97.6386
  80	1	1	0.035045	-46.4051	34.0339	98.0939
  81	1	1	-0.04863	-48.2846	35.5264	97.7813
  82	1	2	-0.369731	-47.4833	34.8433	94.8634
  83	1	1	0.009912	-47.2505	34.7442	97.266
  84	1	3	0.064933	-45.4818	33.234	97.2466
  85	1	4	0.489832	-45.867	33.5095	95.9357
  86	1	3	0.01974	-46.9087	34.4316	95.8577
  87	1	1	-0.15002	-51.3992	33.1821	101.113
  88	1	5	-0.109385	-47.9188	34.8373	101.584
  89	1	1	-0.027748	-49.4359	34.5403	101.773
  90	1	1	-0.058225	-50.0373	33.5165	100.986
  91	1	1	-0.058862	-52.1571	33.8777	102.058
  92	1	1	-0.073426	-50.2412	35.2102	102.733
  93	1	1	-0.053817	-51.5938	34.8584	102.848
  94	1	5	0.313225	-47.4796	36.2613	102.103
  95	1	5	0.370299	-47.1551	33.7287	102.405
  96	1	6	-0.09626	-48.2972	37.2392	101.652
  97	1	6	-0.107747	-46.2367	36.5789	101.675
  98	1	6	-0.102822	-47.4569	36.3618	103.451
  99	1	6	-0.119294	-47.3411	32.4967	101.879
 100	1	6	-0.123874	-47.599	33.6541	103.681
 101	1	6	-0.116977	-45.8215	33.9418	102.468
 102	1	3	0.454578	-52.6574	35.3957	103.741
 103	1	3	0.475587	-53.5949	33.7563	102.412
 104	1	4	-0.008375	-53.8105	34.6923	103.414
 105	1	2	-0.468822	-52.5336	36.2976	104.551
 106	1	2	-0.475809	-54.4068	33.0117	101.89
 107	1	1	-0.104577	-55.0935	34.9327	103.988
 108	1	1	0.090513	-55.8962	35.9656	103.459
 109	1	1	0.041176	-55.5901	34.1154	105.034
 110	1	1	0.130327	-56.902	34.3234	105.531
 111	1	7	-0.071967	-57.7203	35.3474	104.981
 112	1	1	-0.178735	-57.1899	36.164	103.962
 113	1	5	-0.205934	-55.3978	36.8596	102.33
 114	1	1	-0.139817	-54.7988	33.0836	105.59
 115	1	1	-0.146593	-55.2973	32.2732	106.621
 116	1	1	-0.1545	-56.5924	32.4815	107.112
 117	1	1	-0.172216	-57.3882	33.5013	106.57
 118	1	7	-0.107816	-59.1306	35.5842	105.418
 119	1	1	-0.127649	-59.4106	36.7145	106.212
 120	1	1	-0.062495	-60.7136	37.0025	106.643
 121	1	1	0.148158	-61.7768	36.1501	106.266
 122	1	1	-0.091615	-61.5248	35.007	105.465
 123	1	1	0.137007	-60.2014	34.7294	105.04
 124	1	1	-0.133704	-59.9601	33.6008	104.227
 125	1	1	-0.230679	-62.5731	34.1367	105.076
 126	1	1	-0.154845	-61.0065	32.7468	103.85
 127	1	1	-0.105714	-62.3123	33.0138	104.277
 128	1	5	-0.373818	-60.9418	38.2364	107.512
 129	1	8	0.152766	-45.8645	33.4596	100.079
 130	1	8	0.155405	-49.2784	36.1361	99.5847
 131	1	8	0.159938	-48.9528	36.0672	97.1143
 132	1	8	0.168438	-51.8527	32.4038	100.501
 133	1	8	0.13763	-49.4407	32.9663	100.263
 134	1	8	0.146749	-49.8494	35.9823	103.388
 135	1	8	0.160749	-57.8154	36.9456	103.54
 136	1	10	0.074263	-56.1668	37.5714	102.006
 137	1	10	0.076992	-55.113	36.2668	101.452
 138	1	10	0.075732	-54.5262	37.4444	102.65
 139	1	8	0.120118	-53.7904	32.8984	105.235
 140	1	8	0.145089	-54.6778	31.484	107.04
 141	1	8	0.146654	-56.9805	31.855	107.912
 142	1	8	0.147988	-58.3886	33.65	106.965
 143	1	8	0.166658	-58.5904	37.3685	106.498
 144	1	8	0.132671	-58.9568	33.376	103.879
 145	1	8	0.178371	-63.601	34.3058	105.383
 146	1	8	0.137951	-60.803	31.8793	103.227
 147	1	8	0.128868	-63.1237	32.3507	103.986
 148	1	10	0.119422	-60.0006	38.754	107.738
 149	1	10	0.137967	-61.3971	37.9714	108.476
 150	1	10	0.115874	-61.5924	38.9639	107.009
 151	1	1	-0.015291	-46.2818	25.1671	80.0297
 152	1	1	-0.066451	-46.2796	25.8182	81.2931
 153	1	1	-0.157747	-46.8872	27.1028	81.3886
 154	1	2	-0.394636	-46.738	24.2427	77.0974
 155	1	1	0.035045	-46.8644	25.8132	78.9334
 156	1	1	-0.04863	-47.4605	27.7403	80.2692
 157	1	2	-0.369731	-48.6538	28.4535	77.4875
 158	1	1	0.009912	-47.4353	27.0644	79.0479
 159	1	3	0.064933	-47.0825	25.3229	77.5475
 160	1	4	0.489832	-47.8006	26.3356	76.9144
 161	1	3	0.01974	-48.0393	27.4309	77.7425
 162	1	1	-0.15002	-43.5835	28.0996	83.8084
 163	1	5	-0.109385	-45.7617	25.1178	82.584
 164	1	1	-0.027748	-45.1417	26.1907	83.5319
 165	1	1	-0.058225	-44.1849	27.1061	83.0074
 166	1	1	-0.058862	-43.9503	28.1665	85.1563
 167	1	1	-0.073426	-45.4732	26.2892	84.9101
 168	1	1	-0.053817	-44.8698	27.286	85.6855
 169	1	5	0.313225	-44.6189	24.0648	82.3084
 170	1	5	0.370299	-47.0114	24.3798	83.2009
 171	1	6	-0.09626	-43.984	23.714	83.4502
 172	1	6	-0.107747	-43.6728	24.5598	81.479
 173	1	6	-0.102822	-45.0598	22.914	81.7532
 174	1	6	-0.119294	-46.6907	23.5763	84.2401
 175	1	6	-0.123874	-47.6384	23.5991	82.2911
 176	1	6	-0.116977	-47.9438	25.2589	83.6344
 177	1	3	0.454578	-45.0921	27.6463	87.1093
 178	1	3	0.475587	-43.546	29.1184	86.2283
 179	1	4	-0.008375	-44.2927	28.7572	87.3432
 180	1	2	-0.468822	-45.8724	27.1075	87.8749
 181	1	2	-0.475809	-42.7827	30.0606	86.1074
 182	1	1	-0.104577	-44.3345	29.5011	88.5593
 183	1	1	0.090513	-43.6123	29.0436	89.6827
 184	1	1	0.041176	-45.1544	30.6529	88.6642
 185	1	1	0.130327	-45.256	31.3349	89.9014
 186	1	7	-0.071967	-44.5413	30.8678	91.0368
 187	1	1	-0.178735	-43.7269	29.724	90.9052
 188	1	5	-0.205934	-42.728	27.8056	89.6042
 189	1	1	-0.139817	-45.8974	31.1254	87.5562
 190	1	1	-0.146593	-46.7204	32.2556	87.6702
 191	1	1	-0.1545	-46.8206	32.9273	88.894
 192	1	1	-0.172216	-46.0954	32.4668	90.0019
 193	1	7	-0.107816	-44.7085	31.5052	92.3766
 194	1	1	-0.127649	-45.6644	30.953	93.2509
 195	1	1	-0.062495	-46.0094	31.588	94.4506
 196	1	1	0.148158	-45.3863	32.8095	94.7969
 197	1	1	-0.091615	-44.384	33.3616	93.9604
 198	1	1	0.137007	-44.0484	32.7061	92.749
 199	1	1	-0.133704	-43.075	33.2727	91.9008
 200	1	1	-0.230679	-43.7311	34.572	94.2965
 201	1	1	-0.154845	-42.4292	34.4682	92.2484
 202	1	1	-0.105714	-42.757	35.1166	93.4458
 203	1	5	-0.373818	-47.0983	30.9619	95.3194
 204	1	8	0.152766	-45.8906	24.1658	79.8868
 205	1	8	0.155405	-46.951	27.6065	82.3504
 206	1	8	0.159938	-47.9454	28.7106	80.3523
 207	1	8	0.168438	-42.8647	28.8042	83.394
 208	1	8	0.13763	-43.911	27.0556	81.9566
 209	1	8	0.146749	-46.1883	25.6329	85.3945
 210	1	8	0.160749	-43.1924	29.3582	91.7774
 211	1	10	0.074263	-43.3298	26.9043	89.4329
 212	1	10	0.076992	-42.1628	27.6511	90.5314
 213	1	10	0.075732	-41.9987	27.8923	88.7893
 214	1	8	0.120118	-45.8484	30.6297	86.5935
 215	1	8	0.145089	-47.2826	32.6091	86.8095
 216	1	8	0.146654	-47.4603	33.8019	88.987
 217	1	8	0.147988	-46.1936	33.0004	90.9424
 218	1	8	0.166658	-46.1788	30.0423	92.954
 219	1	8	0.132671	-42.81	32.7852	90.9674
 220	1	8	0.178371	-43.9591	35.1061	95.2149
 221	1	8	0.137951	-41.6772	34.8916	91.5876
 222	1	8	0.128868	-42.2567	36.0447	93.7125
 223	1	10	0.119422	-46.7344	30.7655	96.3369
 224	1	10	0.137967	-47.4373	29.9995	94.9144
 225	1	10	0.115874	-47.9815	31.6112	95.3853
 226	1	1	-0.015291	-55.7597	22.8123	60.9027
 227	1	1	-0.066451	-55.6772	23.7212	61.9935
 228	1	1	-0.157747	-55.6674	25.1152	61.7035
 229	1	2	-0.394636	-56.0097	21.3851	58.1579
 230	1	1	0.035045	-55.8203	23.317	59.5994
 231	1	1	-0.04863	-55.736	25.6034	60.3814
 232	1	2	-0.369731	-56.0145	25.9484	57.2981
 233	1	1	0.009912	-55.8154	24.6724	59.3434
 234	1	3	0.064933	-55.9617	22.5946	58.3093
 235	1	4	0.489832	-56.0593	23.5937	57.3423
 236	1	3	0.01974	-55.9633	24.8773	57.8795
 237	1	1	-0.15002	-52.2394	24.8755	64.3155
 238	1	5	-0.109385	-55.6791	23.2591	63.4845
 239	1	1	-0.027748	-54.5607	24.0118	64.264
 240	1	1	-0.058225	-53.3225	24.2982	63.6213
 241	1	1	-0.058862	-52.4019	25.1468	65.6776
 242	1	1	-0.073426	-54.68	24.3069	65.6487
 243	1	1	-0.053817	-53.5888	24.8686	66.3226
 244	1	5	0.313225	-55.3636	21.7249	63.6631
 245	1	5	0.370299	-57.1277	23.5628	64.0341
 246	1	6	-0.09626	-54.2293	21.3761	63.014
 247	1	6	-0.107747	-56.3561	20.9243	63.2133
 248	1	6	-0.102822	-55.1655	21.3934	64.9596
 249	1	6	-0.119294	-58.0814	23.1642	63.1611
 250	1	6	-0.123874	-57.3176	24.8869	64.2319
 251	1	6	-0.116977	-57.4092	22.9463	65.2037
 252	1	3	0.454578	-53.4047	25.1429	67.7725
 253	1	3	0.475587	-51.418	25.6131	66.6922
 254	1	4	-0.008375	-52.0838	25.549	67.9093
 255	1	2	-0.468822	-54.2209	24.9386	68.654
 256	1	2	-0.475809	-50.2458	25.8805	66.4917
 257	1	1	-0.104577	-51.4414	25.7257	69.1697
 258	1	1	0.090513	-50.849	24.6044	69.7901
 259	1	1	0.041176	-51.3972	26.9915	69.8043
 260	1	1	0.130327	-50.7517	27.1284	71.0594
 261	1	7	-0.071967	-50.1503	26.0014	71.6814
 262	1	1	-0.178735	-50.2171	24.7523	71.0325
 263	1	5	-0.205934	-50.8849	23.2253	69.1415
 264	1	1	-0.139817	-51.9941	28.1257	69.2081
 265	1	1	-0.146593	-51.9539	29.3752	69.8459
 266	1	1	-0.1545	-51.3171	29.5089	71.0864
 267	1	1	-0.172216	-50.7205	28.3912	71.6886
 268	1	7	-0.107816	-49.4775	26.0788	73.0128
 269	1	1	-0.127649	-50.206	25.6845	74.1521
 270	1	1	-0.062495	-49.6493	25.754	75.436
 271	1	1	0.148158	-48.3267	26.2279	75.5986
 272	1	1	-0.091615	-47.5623	26.6094	74.4671
 273	1	1	0.137007	-48.1415	26.533	73.1751
 274	1	1	-0.133704	-47.3787	26.9127	72.0511
 275	1	1	-0.230679	-46.2293	27.0681	74.6017
 276	1	1	-0.154845	-46.0583	27.3623	72.1974
 277	1	1	-0.105714	-45.4845	27.4396	73.4722
 278	1	5	-0.373818	-50.5046	25.3243	76.6257
 279	1	8	0.152766	-55.8023	21.7366	61.0303
 280	1	8	0.155405	-55.6254	25.836	62.517
 281	1	8	0.159938	-55.7508	26.67	60.1673
 282	1	8	0.168438	-51.2855	25.0599	63.8248
 283	1	8	0.13763	-53.1785	24.036	62.5764
 284	1	8	0.146749	-55.5663	24.0602	66.2236
 285	1	8	0.160749	-49.7635	23.889	71.5113
 286	1	10	0.074263	-50.4076	23.2404	68.1538
 287	1	10	0.076992	-51.9175	22.8748	69.02
 288	1	10	0.075732	-50.3563	22.4783	69.7459
 289	1	8	0.120118	-52.4975	28.0538	68.2498
 290	1	8	0.145089	-52.4191	30.2397	69.3785
 291	1	8	0.146654	-51.2866	30.4759	71.5834
 292	1	8	0.147988	-50.2343	28.5127	72.6521
 293	1	8	0.166658	-51.2273	25.3342	74.0242
 294	1	8	0.132671	-47.8044	26.8573	71.0538
 295	1	8	0.178371	-45.7452	27.1368	75.5714
 296	1	8	0.137951	-45.4813	27.6481	71.3215
 297	1	8	0.128868	-44.4595	27.7854	73.584
 298	1	10	0.119422	-51.4654	24.9024	76.304
 299	1	10	0.137967	-50.7331	26.1761	77.2806
 300	1	10	0.115874	-50.0045	24.5507	77.2235
 301	1	1	-0.015291	-57.5515	22.0486	39.1528
 302	1	1	-0.066451	-57.7031	22.5235	40.4841
 303	1	1	-0.157747	-56.9872	23.6941	40.8653
 304	1	2	-0.394636	-56.7499	21.5035	36.1997
 305	1	1	0.035045	-56.6834	22.7237	38.2871
 306	1	1	-0.04863	-56.1135	24.3562	39.9786
 307	1	2	-0.369731	-54.3603	25.2432	37.5658
 308	1	1	0.009912	-55.9775	23.8392	38.6891
 309	1	3	0.064933	-56.327	22.4269	36.8758
 310	1	4	0.489832	-55.3976	23.4044	36.5234
 311	1	3	0.01974	-55.1323	24.299	37.5588
 312	1	1	-0.15002	-55.8606	21.333	44.1688
 313	1	5	-0.109385	-58.6544	21.8491	41.5186
 314	1	1	-0.027748	-57.9351	21.8092	42.9011
 315	1	1	-0.058225	-56.5709	21.4045	42.9538
 316	1	1	-0.058862	-56.5411	21.6601	45.345
 317	1	1	-0.073426	-58.5917	22.1146	44.1248
 318	1	1	-0.053817	-57.8685	22.0343	45.3229
 319	1	5	0.313225	-59.005	20.3518	41.1681
 320	1	5	0.370299	-59.9769	22.7073	41.5201
 321	1	6	-0.09626	-59.839	20.2285	40.1111
 322	1	6	-0.107747	-59.6067	19.7256	42.2051
 323	1	6	-0.102822	-57.8953	19.6319	40.8861
 324	1	6	-0.119294	-59.7769	23.9311	42.0598
 325	1	6	-0.123874	-60.9905	22.1281	42.2021
 326	1	6	-0.116977	-60.4325	22.9206	40.2643
 327	1	3	0.454578	-58.2952	22.3025	46.724
 328	1	3	0.475587	-56.0721	21.6809	46.756
 329	1	4	-0.008375	-57.1719	22.0707	47.5085
 330	1	2	-0.468822	-59.3976	22.6761	47.0844
 331	1	2	-0.475809	-54.9447	21.431	47.1458
 332	1	1	-0.104577	-57.1294	22.235	48.9253
 333	1	1	0.090513	-56.8698	23.5138	49.4622
 334	1	1	0.041176	-57.287	21.1242	49.7914
 335	1	1	0.130327	-57.1646	21.297	51.194
 336	1	7	-0.071967	-56.9001	22.5849	51.7365
 337	1	1	-0.178735	-56.7567	23.6732	50.8511
 338	1	5	-0.205934	-56.6979	24.7318	48.5631
 339	1	1	-0.139817	-57.5576	19.835	49.2768
 340	1	1	-0.146593	-57.6972	18.7337	50.1347
 341	1	1	-0.1545	-57.5607	18.9024	51.5181
 342	1	1	-0.172216	-57.2929	20.1755	52.042
 343	1	7	-0.107816	-56.7385	22.836	53.2035
 344	1	1	-0.127649	-55.4506	23.1395	53.6913
 345	1	1	-0.062495	-55.2181	23.3825	55.053
 346	1	1	0.148158	-56.298	23.332	55.9642
 347	1	1	-0.091615	-57.6058	23.0343	55.5011
 348	1	1	0.137007	-57.8238	22.7937	54.1206
 349	1	1	-0.133704	-59.1313	22.5196	53.6656
 350	1	1	-0.230679	-58.7051	22.9761	56.3935
 351	1	1	-0.154845	-60.2092	22.4623	54.5604
 352	1	1	-0.105714	-59.9946	22.687	55.9248
 353	1	5	-0.373818	-53.7945	23.6914	55.5095
 354	1	8	0.152766	-58.0794	21.1807	38.7732
 355	1	8	0.155405	-57.1054	24.0998	41.8677
 356	1	8	0.159938	-55.5593	25.243	40.2789
 357	1	8	0.168438	-54.8161	21.0281	44.1993
 358	1	8	0.13763	-56.0492	21.1419	42.0368
 359	1	8	0.146749	-59.6359	22.4052	44.1736
 360	1	8	0.160749	-56.5559	24.6584	51.2624
 361	1	10	0.074263	-57.612	24.9257	47.9881
 362	1	10	0.076992	-55.8703	24.5884	47.8578
 363	1	10	0.075732	-56.4801	25.6373	49.1424
 364	1	8	0.120118	-57.6654	19.6683	48.2104
 365	1	8	0.145089	-57.9055	17.7482	49.7253
 366	1	8	0.146654	-57.6606	18.0491	52.1852
 367	1	8	0.147988	-57.1845	20.2836	53.1166
 368	1	8	0.166658	-54.6217	23.1724	52.9885
 369	1	8	0.132671	-59.3231	22.3481	52.6111
 370	1	8	0.178371	-58.5868	23.145	57.4595
 371	1	8	0.137951	-61.2092	22.2439	54.1943
 372	1	8	0.128868	-60.8298	22.6401	56.6198
 373	1	10	0.119422	-53.721	24.7056	55.9249
 374	1	10	0.137967	-53.0792	23.6349	54.6787
 375	1	10	0.115874	-53.4534	22.9789	56.2719
 376	1	1	-0.015291	-43.3553	22.5818	23.1315
 377	1	1	-0.066451	-44.3174	22.6949	24.1682
 378	1	1	-0.157747	-44.1665	23.754	25.1101
 379	1	2	-0.394636	-40.8401	22.6714	21.3524
 380	1	1	0.035045	-42.3095	23.5072	23.0724
 381	1	1	-0.04863	-43.1105	24.686	25.0227
 382	1	2	-0.369731	-40.4277	26.1436	24.4057
 383	1	1	0.009912	-42.1861	24.5329	23.9871
 384	1	3	0.064933	-41.1001	23.4916	22.2177
 385	1	4	0.489832	-40.2943	24.5158	22.7094
 386	1	3	0.01974	-40.8917	25.2257	23.7501
 387	1	1	-0.15002	-48.3127	24.1226	25.0185
 388	1	5	-0.109385	-45.4135	21.6095	24.3822
 389	1	1	-0.027748	-46.663	22.2722	25.0378
 390	1	1	-0.058225	-47.2018	23.457	24.4592
 391	1	1	-0.058862	-48.8911	23.5782	26.1694
 392	1	1	-0.073426	-47.3	21.7428	26.1915
 393	1	1	-0.053817	-48.3988	22.419	26.7304
 394	1	5	0.313225	-44.7468	20.4994	25.2828
 395	1	5	0.370299	-45.9166	20.9569	23.0356
 396	1	6	-0.09626	-44.4641	20.9685	26.5199
 397	1	6	-0.107747	-43.5674	20.0719	24.7769
 398	1	6	-0.102822	-45.5209	19.3997	25.4249
 399	1	6	-0.119294	-47.0723	20.2778	23.2172
 400	1	6	-0.123874	-45.0449	20.0774	22.4938
 401	1	6	-0.116977	-46.1619	21.8921	22.0907
 402	1	3	0.454578	-49.1874	22.1202	27.9517
 403	1	3	0.475587	-50.0132	24.0653	27.0187
 404	1	4	-0.008375	-50.1096	23.1516	28.0606
 405	1	2	-0.468822	-48.9916	21.2028	28.7297
 406	1	2	-0.475809	-50.6499	25.0916	26.8571
 407	1	1	-0.104577	-50.9826	23.291	29.1778
 408	1	1	0.090513	-50.4917	23.9056	30.3491
 409	1	1	0.041176	-52.2953	22.7589	29.1522
 410	1	1	0.130327	-53.1075	22.8284	30.3125
 411	1	7	-0.071967	-52.6093	23.4359	31.4974
 412	1	1	-0.178735	-51.3032	23.9665	31.4898
 413	1	5	-0.205934	-49.0823	24.4828	30.4145
 414	1	1	-0.139817	-52.8051	22.1377	27.989
 415	1	1	-0.146593	-54.0987	21.5946	27.9743
 416	1	1	-0.1545	-54.8977	21.6569	29.123
 417	1	1	-0.172216	-54.402	22.2663	30.2852
 418	1	7	-0.107816	-53.3782	23.4762	32.7781
 419	1	1	-0.127649	-52.9681	22.6186	33.8182
 420	1	1	-0.062495	-53.6315	22.5928	35.0519
 421	1	1	0.148158	-54.7391	23.4453	35.2646
 422	1	1	-0.091615	-55.1667	24.3283	34.2401
 423	1	1	0.137007	-54.4804	24.3447	32.9992
 424	1	1	-0.133704	-54.8966	25.2376	31.9895
 425	1	1	-0.230679	-56.2651	25.2014	34.4333
 426	1	1	-0.154845	-55.9842	26.0986	32.1947
 427	1	1	-0.105714	-56.6688	26.0787	33.4158
 428	1	5	-0.373818	-53.1314	21.6347	36.1309
 429	1	8	0.152766	-43.3538	21.7608	22.4228
 430	1	8	0.155405	-44.8461	23.8357	25.9549
 431	1	8	0.159938	-42.976	25.4648	25.7703
 432	1	8	0.168438	-48.7037	25.0397	24.5817
 433	1	8	0.13763	-46.738	23.8833	23.5732
 434	1	8	0.146749	-46.9648	20.8413	26.6926
 435	1	8	0.160749	-50.919	24.4238	32.3973
 436	1	10	0.074263	-48.9081	25.1961	29.5995
 437	1	10	0.076992	-48.3295	23.6878	30.3444
 438	1	10	0.075732	-48.9069	25.0183	31.3555
 439	1	8	0.120118	-52.2102	22.0688	27.0844
 440	1	8	0.145089	-54.4791	21.1205	27.0727
 441	1	8	0.146654	-55.8985	21.2309	29.1161
 442	1	8	0.147988	-55.0333	22.2967	31.168
 443	1	8	0.166658	-52.1221	21.9576	33.646
 444	1	8	0.132671	-54.3756	25.2727	31.0376
 445	1	8	0.178371	-56.8174	25.2254	35.3681
 446	1	8	0.137951	-56.2925	26.7823	31.4077
 447	1	8	0.128868	-57.51	26.7493	33.5755
 448	1	10	0.119422	-52.8828	22.1658	37.0591
 449	1	10	0.137967	-52.2235	21.1047	35.8149
 450	1	10	0.115874	-53.8835	20.8676	36.3603
 451	1	1	-0.015291	-26.3962	16.4191	20.0942
 452	1	1	-0.066451	-27.0818	17.6549	20.2471
 453	1	1	-0.157747	-28.5081	17.6418	20.2325
 454	1	2	-0.394636	-25.5592	13.4215	19.7736
 455	1	1	0.035045	-27.1465	15.2484	19.9125
 456	1	1	-0.04863	-29.2409	16.4582	20.0383
 457	1	2	-0.369731	-30.2008	13.5492	19.6608
 458	1	1	0.009912	-28.527	15.2735	19.8812
 459	1	3	0.064933	-26.708	13.8319	19.7791
 460	1	4	0.489832	-27.8906	13.0986	19.6816
 461	1	3	0.01974	-29.0318	13.8927	19.725
 462	1	1	-0.15002	-28.4208	21.1117	18.0405
 463	1	5	-0.109385	-26.3346	18.9861	20.5477
 464	1	1	-0.027748	-27.2203	20.1524	19.9916
 465	1	1	-0.058225	-27.4717	20.2261	18.5897
 466	1	1	-0.058862	-29.1543	21.9135	18.918
 467	1	1	-0.073426	-27.9515	21.0321	20.8368
 468	1	1	-0.053817	-28.9247	21.867	20.2761
 469	1	5	0.313225	-24.9134	19.0836	19.8543
 470	1	5	0.370299	-26.1444	19.032	22.115
 471	1	6	-0.09626	-24.4738	20.362	19.8257
 472	1	6	-0.107747	-24.931	18.645	18.5764
 473	1	6	-0.102822	-23.9427	18.3657	20.4606
 474	1	6	-0.119294	-25.4009	18.0036	22.5826
 475	1	6	-0.123874	-27.3198	18.9174	22.7749
 476	1	6	-0.116977	-25.5471	20.1746	22.522
 477	1	3	0.454578	-30.0202	22.603	20.9564
 478	1	3	0.475587	-30.3905	22.7065	18.677
 479	1	4	-0.008375	-30.8862	22.994	19.9434
 480	1	2	-0.468822	-30.2141	22.6394	22.1589
 481	1	2	-0.475809	-30.9547	22.8441	17.6059
 482	1	1	-0.104577	-32.2385	23.3717	20.1987
 483	1	1	0.090513	-32.5373	24.6852	20.6202
 484	1	1	0.041176	-33.2726	22.4035	20.1066
 485	1	1	0.130327	-34.6013	22.7587	20.4439
 486	1	7	-0.071967	-34.8978	24.0702	20.9045
 487	1	1	-0.178735	-33.8547	25.0181	20.9754
 488	1	5	-0.205934	-31.4476	25.7421	20.741
 489	1	1	-0.139817	-33.0026	21.0719	19.7041
 490	1	1	-0.146593	-34.0298	20.122	19.6076
 491	1	1	-0.1545	-35.3454	20.4831	19.9151
 492	1	1	-0.172216	-35.6263	21.7912	20.3322
 493	1	7	-0.107816	-36.2592	24.4116	21.418
 494	1	1	-0.127649	-36.6614	23.807	22.6259
 495	1	1	-0.062495	-37.9786	23.8988	23.0878
 496	1	1	0.148158	-38.9287	24.6279	22.3364
 497	1	1	-0.091615	-38.5361	25.309	21.1569
 498	1	1	0.137007	-37.1995	25.1929	20.6953
 499	1	1	-0.133704	-36.8288	25.8185	19.4874
 500	1	1	-0.230679	-39.4655	26.069	20.4072
 501	1	1	-0.154845	-37.7566	26.5763	18.7574
 502	1	1	-0.105714	-39.0726	26.7048	19.2196
 503	1	5	-0.373818	-38.3574	23.1355	24.3561
 504	1	8	0.152766	-25.3145	16.3458	20.1458
 505	1	8	0.155405	-29.0772	18.5507	20.4038
 506	1	8	0.159938	-30.3288	16.4517	20.0403
 507	1	8	0.168438	-28.6504	21.1032	16.9764
 508	1	8	0.13763	-26.9923	19.532	17.9089
 509	1	8	0.146749	-27.8724	21.0184	21.9175
 510	1	8	0.160749	-34.0766	26.015	21.3459
 511	1	10	0.074263	-31.8689	26.7396	20.9154
 512	1	10	0.076992	-30.8467	25.7989	19.8251
 513	1	10	0.075732	-30.7765	25.5158	21.579
 514	1	8	0.120118	-31.9995	20.7494	19.4529
 515	1	8	0.145089	-33.8068	19.1078	19.286
 516	1	8	0.146654	-36.148	19.7535	19.8316
 517	1	8	0.147988	-36.6568	22.048	20.558
 518	1	8	0.166658	-35.9409	23.2018	23.1716
 519	1	8	0.132671	-35.8171	25.7205	19.1066
 520	1	8	0.178371	-40.4963	26.1856	20.7302
 521	1	8	0.137951	-37.4555	27.0585	17.8308
 522	1	8	0.128868	-39.7909	27.2906	18.6508
 523	1	10	0.119422	-37.4796	22.6818	24.8341
 524	1	10	0.137967	-39.0606	22.3197	24.1414
 525	1	10	0.115874	-38.8123	23.7994	25.1034
 526	1	1	-0.015291	-26.5782	-1.61785	17.6337
 527	1	1	-0.066451	-27.4401	-2.53071	18.2972
 528	1	1	-0.157747	-26.8987	-3.32243	19.3508
 529	1	2	-0.394636	-24.2452	0.141278	16.5951
 530	1	1	0.035045	-25.2527	-1.49909	18.0567
 531	1	1	-0.04863	-25.5503	-3.19981	19.7496
 532	1	2	-0.369731	-22.5266	-2.48924	20.0153
 533	1	1	0.009912	-24.7484	-2.27093	19.0825
 534	1	3	0.064933	-24.1606	-0.651975	17.5187
 535	1	4	0.489832	-23.0356	-1.00423	18.2611
 536	1	3	0.01974	-23.3037	-1.964	19.2356
 537	1	1	-0.15002	-30.5534	0.504826	16.1611
 538	1	5	-0.109385	-28.9158	-2.65176	17.8124
 539	1	1	-0.027748	-29.4434	-1.20925	17.559
 540	1	1	-0.058225	-30.1794	-0.83493	16.3972
 541	1	1	-0.058862	-30.1939	1.46665	17.1107
 542	1	1	-0.073426	-29.1509	-0.207553	18.5198
 543	1	1	-0.053817	-29.5233	1.11403	18.2622
 544	1	5	0.313225	-29.887	-3.29803	18.8718
 545	1	5	0.370299	-28.8774	-3.55198	16.5185
 546	1	6	-0.09626	-29.7579	-2.72206	20.0883
 547	1	6	-0.107747	-29.6945	-4.62612	19.0367
 548	1	6	-0.102822	-31.1822	-3.14026	18.5152
 549	1	6	-0.119294	-28.1907	-4.69818	16.7291
 550	1	6	-0.123874	-28.2551	-2.92775	15.4926
 551	1	6	-0.116977	-30.1049	-3.91301	16.0819
 552	1	3	0.454578	-29.2105	2.35043	19.0209
 553	1	3	0.475587	-30.3324	2.94793	17.0905
 554	1	4	-0.008375	-29.6933	3.39253	18.2414
 555	1	2	-0.468822	-28.5601	2.41838	20.0496
 556	1	2	-0.475809	-30.8177	3.61592	16.1941
 557	1	1	-0.104577	-29.431	4.76414	18.5217
 558	1	1	0.090513	-28.1802	5.30314	18.1509
 559	1	1	0.041176	-30.3992	5.58365	19.1515
 560	1	1	0.130327	-30.1062	6.94599	19.4131
 561	1	7	-0.071967	-28.8379	7.48495	19.0584
 562	1	1	-0.178735	-27.8999	6.64908	18.4203
 563	1	5	-0.205934	-27.1208	4.45639	17.454
 564	1	1	-0.139817	-31.6628	5.06533	19.5176
 565	1	1	-0.146593	-32.626	5.88516	20.1246
 566	1	1	-0.1545	-32.342	7.2342	20.3702
 567	1	1	-0.172216	-31.0916	7.76031	20.0135
 568	1	7	-0.107816	-28.4754	8.91772	19.2783
 569	1	1	-0.127649	-28.3707	9.75316	18.1478
 570	1	1	-0.062495	-28.1198	11.1255	18.2735
 571	1	1	0.148158	-27.966	11.6873	19.5604
 572	1	1	-0.091615	-28.0105	10.8628	20.7126
 573	1	1	0.137007	-28.2587	9.47521	20.5677
 574	1	1	-0.133704	-28.3042	8.65825	21.7172
 575	1	1	-0.230679	-27.8307	11.4028	22.0097
 576	1	1	-0.154845	-28.1175	9.20357	22.9959
 577	1	1	-0.105714	-27.8831	10.576	23.1416
 578	1	5	-0.373818	-28.0713	11.9822	17.0111
 579	1	8	0.152766	-26.9216	-1.0088	16.801
 580	1	8	0.155405	-27.5062	-4.05653	19.8692
 581	1	8	0.159938	-25.1335	-3.81654	20.5432
 582	1	8	0.168438	-31.0752	0.794921	15.2507
 583	1	8	0.13763	-30.448	-1.5662	15.643
 584	1	8	0.146749	-28.5944	-0.433976	19.4268
 585	1	8	0.160749	-26.936	7.0633	18.1382
 586	1	10	0.074263	-26.7632	3.65348	18.1106
 587	1	10	0.076992	-26.2473	5.05388	17.1665
 588	1	10	0.075732	-27.5171	4.00118	16.5379
 589	1	8	0.120118	-31.9177	4.02743	19.3316
 590	1	8	0.145089	-33.5958	5.4756	20.3968
 591	1	8	0.146654	-33.0898	7.87402	20.8333
 592	1	8	0.147988	-30.8958	8.81068	20.2049
 593	1	8	0.166658	-28.5322	9.32238	17.1627
 594	1	8	0.132671	-28.4826	7.59124	21.6267
 595	1	8	0.178371	-27.6346	12.4599	22.1661
 596	1	8	0.137951	-28.1539	8.56056	23.8716
 597	1	8	0.128868	-27.7371	10.9984	24.1332
 598	1	10	0.119422	-28.9428	12.6481	16.9493
 599	1	10	0.137967	-28.0715	11.3656	16.1027
 600	1	10	0.115874	-27.1622	12.5973	16.9756
 601	1	1	-0.015291	-6.68272	4.0462	11.9806
 602	1	1	-0.066451	-7.60741	3.58229	12.9526
 603	1	1	-0.157747	-7.59651	2.19813	13.2893
 604	1	2	-0.394636	-4.54695	4.38683	9.75691
 605	1	1	0.035045	-5.8379	3.1202	11.3613
 606	1	1	-0.04863	-6.73916	1.28143	12.6488
 607	1	2	-0.369731	-4.69441	-0.140369	10.7772
 608	1	1	0.009912	-5.87339	1.77538	11.6726
 609	1	3	0.064933	-4.82862	3.32892	10.2954
 610	1	4	0.489832	-4.32299	2.05964	10.0275
 611	1	3	0.01974	-4.90079	1.06179	10.8083
 612	1	1	-0.15002	-11.6689	2.47318	12.3849
 613	1	5	-0.109385	-8.627	4.51851	13.6631
 614	1	1	-0.027748	-10.0036	3.79331	13.6587
 615	1	1	-0.058225	-10.442	3.16041	12.4598
 616	1	1	-0.058862	-12.4657	2.43826	13.5317
 617	1	1	-0.073426	-10.856	3.75008	14.7931
 618	1	1	-0.053817	-12.0718	3.06197	14.6977
 619	1	5	0.313225	-8.85503	5.89465	12.9264
 620	1	5	0.370299	-8.04911	4.7918	15.1049
 621	1	6	-0.09626	-7.79524	6.72954	13.0143
 622	1	6	-0.107747	-9.91557	6.56236	13.4352
 623	1	6	-0.102822	-9.11736	5.72323	11.6107
 624	1	6	-0.119294	-8.06857	3.68033	15.875
 625	1	6	-0.123874	-8.72131	5.7528	15.7776
 626	1	6	-0.116977	-6.75727	5.18989	15.0528
 627	1	3	0.454578	-13.1334	2.85047	15.7165
 628	1	3	0.475587	-13.7905	1.80728	13.7639
 629	1	4	-0.008375	-14.1106	2.09544	15.083
 630	1	2	-0.468822	-13.1292	3.26416	16.8625
 631	1	2	-0.475809	-14.4433	1.17618	12.9515
 632	1	1	-0.104577	-15.3174	1.66835	15.7064
 633	1	1	0.090513	-16.4494	2.50742	15.6533
 634	1	1	0.041176	-15.3982	0.404634	16.3413
 635	1	1	0.130327	-16.6235	-0.0201229	16.9133
 636	1	7	-0.071967	-17.7742	0.812243	16.8378
 637	1	1	-0.178735	-17.6595	2.07001	16.2084
 638	1	5	-0.205934	-16.394	3.87315	14.9799
 639	1	1	-0.139817	-14.2729	-0.449938	16.4056
 640	1	1	-0.146593	-14.3558	-1.70061	17.0356
 641	1	1	-0.1545	-15.5613	-2.11221	17.617
 642	1	1	-0.172216	-16.6856	-1.27564	17.5571