
Host: node50

Timers On : Mon Dec 12 15:11:12 2022
Timers Off: Mon Dec 12 15:34:14 2022

Wall Time:     1381.69 seconds

                                                       Time (seconds)
Module                                       User      System        Wall        Calls

--------------------------------------------------------------------------------------

**************************************************************************************
