pySIMM System Object

1412 atoms
1561 bonds
2700 angles
4256 dihedrals
480 impropers

8 atom types
10 bond types
16 angle types
7 dihedral types
4 improper types

-183.891603 183.891603 xlo xhi
-183.891603 183.891603 ylo yhi
-183.891603 183.891603 zlo zhi

Masses

   1	14.01	# n
   2	12.01	# c
   3	12.01	# ca
   4	1.008	# hn
   5	16.0	# o
   6	1.008	# ha
   7	12.01	# c3
   8	19.0	# f

Pair Coeffs

   1	0.17	3.249998523775958	# n
   2	0.086	3.3996695084235347	# c
   3	0.086	3.3996695084235347	# ca
   4	0.0157	1.069078461768407	# hn
   5	0.21	2.959921901149463	# o
   6	0.015	2.59964245953351	# ha
   7	0.1094	3.3996695084235347	# c3
   8	0.061	3.1181455134911875	# f

Bond Coeffs

   1	345.8	1.086	# ca,ha
   2	384.2	1.4121	# ca,n
   3	637.7	1.2183	# c,o
   4	321.0	1.5156	# c3,ca
   5	403.2	1.0129	# hn,n
   6	356.9	1.3497	# c3,f
   7	427.6	1.3789	# c,n
   8	461.1	1.3984	# ca,ca
   9	345.9	1.4906	# c,ca
  10	300.9	1.5375	# c3,c3

Angle Coeffs

   1	66.11	109.24	# c3,c3,f
   2	66.62	120.02	# ca,ca,ca
   3	63.53	120.77	# c3,ca,ca
   4	62.86	111.51	# c3,c3,c3
   5	63.74	127.08	# c,n,c
   6	63.15	112.07	# c3,c3,ca
   7	48.18	119.88	# ca,ca,ha
   8	70.89	107.36	# f,c3,f
   9	68.72	122.6	# ca,c,o
  10	63.82	123.71	# c,n,ca
  11	67.87	120.19	# ca,ca,n
  12	67.68	115.25	# ca,c,n
  13	63.56	112.24	# ca,c3,ca
  14	64.28	120.33	# c,ca,ca
  15	48.33	117.55	# c,n,hn
  16	74.22	123.05	# n,c,o

Dihedral Coeffs

   1	1	3.625	2	180	# X,ca,ca,X
   2	1	1.0	2	180	# X,c,ca,X
   3	1	0.15555555555555556	3	0	# X,c3,c3,X
   4	1	0.0	2	0	# X,c3,ca,X
   5	1	2.5	2	180	# X,c,n,X
   6	1	0.45	2	180	# X,ca,n,X
   7	2	2.5	2	180	2.0	1	0	# hn,n,c,o

Improper Coeffs

   1	1.1	-1	2	# ca,ca,ca,c3
   2	1.1	-1	2	# n,X,X,hn
   3	1.1	-1	2	# ca,X,X,ha
   4	10.5	-1	2	# c,X,X,o

Atoms

   1	1	1	0.473101	16.7996	-32.9698	-51.8822
   2	1	2	0.047723	16.6676	-34.0459	-52.7649
   3	1	3	0.004987	17.9062	-34.0411	-53.5748
   4	1	2	0.062675	18.0263	-32.3127	-52.0299
   5	1	3	0.048591	18.7212	-33.0238	-53.1326
   6	1	5	-0.383443	15.7534	-34.8467	-52.8747
   7	1	5	-0.390296	18.4383	-31.3203	-51.4521
   8	1	3	-0.001908	18.2608	-34.8509	-54.6539
   9	1	3	-0.038207	19.9615	-32.781	-53.7292
  10	1	3	-0.215576	20.3478	-33.5963	-54.8157
  11	1	3	-0.070363	19.4964	-34.6243	-55.3132
  12	1	6	0.160197	17.5663	-35.6186	-54.9864
  13	1	6	0.153305	20.5991	-31.9771	-53.367
  14	1	6	0.179436	21.3124	-33.3977	-55.272
  15	1	7	-0.074672	19.8372	-35.4971	-56.5552
  16	1	7	0.280369	21.0117	-34.9302	-57.4434
  17	1	8	-0.106158	20.8354	-33.6258	-57.7545
  18	1	8	-0.092663	21.0977	-35.5843	-58.6245
  19	1	8	-0.102536	22.2231	-35.036	-56.8526
  20	1	7	0.310197	20.2368	-36.9219	-56.0076
  21	1	8	-0.10503	21.1798	-36.8337	-55.0423
  22	1	8	-0.101207	20.735	-37.7403	-56.9617
  23	1	8	-0.097553	19.1874	-37.5639	-55.4453
  24	1	3	-0.010565	18.5712	-35.4983	-57.4582
  25	1	3	-0.081209	17.9257	-34.2598	-57.7105
  26	1	3	-0.082072	16.7716	-34.2382	-58.4974
  27	1	3	-0.061713	18.0308	-36.6754	-58.0516
  28	1	3	-0.146525	16.8638	-36.6304	-58.843
  29	1	3	-0.036475	16.2493	-35.3896	-59.0427
  30	1	2	0.474489	15.0492	-35.0218	-59.8381
  31	1	1	-0.056758	14.9396	-33.6404	-59.7335
  32	1	2	0.480785	15.9306	-33.0925	-58.928
  33	1	3	0.11186	13.9672	-32.8672	-60.4208
  34	1	3	-0.193084	13.2605	-31.8516	-59.7528
  35	1	3	-0.037687	12.3204	-31.0697	-60.4401
  36	1	3	-0.413926	13.7146	-33.0932	-61.7858
  37	1	3	0.299417	12.7641	-32.328	-62.4719
  38	1	3	-0.384234	12.0737	-31.3116	-61.7998
  39	1	6	0.146041	13.445	-31.6638	-58.6981
  40	1	6	0.136211	11.7867	-30.2801	-59.9203
  41	1	6	0.166859	16.4513	-37.5304	-59.2952
  42	1	6	0.137644	18.5021	-37.6422	-57.9118
  43	1	6	0.148636	18.3053	-33.3261	-57.3013
  44	1	5	-0.470939	16.1439	-31.918	-58.6793
  45	1	5	-0.47569	14.3567	-35.7936	-60.4797
  46	1	6	0.193108	11.3412	-30.7208	-62.3382
  47	1	6	0.21486	14.2394	-33.8772	-62.3218
  48	1	1	0.473101	1.5215	-30.0746	-50.5349
  49	1	2	0.047723	1.73406	-31.1188	-51.4371
  50	1	3	0.004987	3.2092	-31.3001	-51.4761
  51	1	2	0.062675	2.70112	-29.6285	-49.9398
  52	1	3	0.048591	3.77359	-30.4124	-50.583
  53	1	5	-0.383443	0.921761	-31.6736	-52.1579
  54	1	5	-0.390296	2.86825	-28.6979	-49.1689
  55	1	3	-0.001908	3.99896	-32.0863	-52.3252
  56	1	3	-0.038207	5.15212	-30.243	-50.4888
  57	1	3	-0.215576	5.96191	-31.0162	-51.3365
  58	1	3	-0.070363	5.41147	-31.9585	-52.2536
  59	1	6	0.160197	3.51088	-32.7348	-53.0445
  60	1	6	0.153305	5.57575	-29.4943	-49.8226
  61	1	6	0.179436	7.0332	-30.8327	-51.3047
  62	1	7	-0.074672	6.37121	-32.7285	-53.2019
  63	1	7	0.280369	5.80544	-34.126	-53.6798
  64	1	8	-0.106158	5.26144	-34.8375	-52.6677
  65	1	8	-0.092663	6.7816	-34.8957	-54.2091
  66	1	8	-0.102536	4.84282	-34.0345	-54.6242
  67	1	7	0.310197	6.59443	-31.8048	-54.4625
  68	1	8	-0.10503	5.42954	-31.4871	-55.0726
  69	1	8	-0.101207	7.37488	-32.3907	-55.3981
  70	1	8	-0.097553	7.16258	-30.6214	-54.1378
  71	1	3	-0.010565	7.66971	-33.0022	-52.3833
  72	1	3	-0.081209	8.94146	-32.4756	-52.7387
  73	1	3	-0.082072	10.0186	-32.6479	-51.8609
  74	1	3	-0.061713	7.55674	-33.7019	-51.1473
  75	1	3	-0.146525	8.65482	-33.8774	-50.2851
  76	1	3	-0.036475	9.87792	-33.3258	-50.6695
  77	1	2	0.474489	11.1755	-33.2878	-49.9533
  78	1	1	-0.056758	12.0325	-32.5656	-50.7709
  79	1	2	0.480785	11.4206	-32.1564	-51.9492
  80	1	3	0.11186	13.3882	-32.3157	-50.4345
  81	1	3	-0.193084	13.7282	-31.8203	-49.1655
  82	1	3	-0.037687	15.0709	-31.6945	-48.7891
  83	1	3	-0.413926	14.4092	-32.6519	-51.3353
  84	1	3	0.299417	15.7703	-32.5594	-50.972
  85	1	3	-0.384234	16.0824	-32.0735	-49.6838
  86	1	6	0.146041	12.9492	-31.5676	-48.4511
  87	1	6	0.136211	15.325	-31.3245	-47.7974
  88	1	6	0.166859	8.55298	-34.3939	-49.3325
  89	1	6	0.137644	6.59167	-34.074	-50.8179
  90	1	6	0.148636	9.12013	-31.9343	-53.662
  91	1	5	-0.470939	11.9016	-31.4943	-52.8542
  92	1	5	-0.47569	11.4002	-33.7627	-48.8535
  93	1	6	0.193108	17.1195	-31.9858	-49.3676
  94	1	6	0.21486	14.137	-33.0356	-52.3165
  95	1	1	0.473101	7.26179	-20.6668	-50.0276
  96	1	2	0.047723	6.18898	-20.0856	-49.3488
  97	1	3	0.004987	4.99486	-20.373	-50.181
  98	1	2	0.062675	6.86903	-21.273	-51.2232
  99	1	3	0.048591	5.39372	-21.1021	-51.2815
 100	1	5	-0.383443	6.18993	-19.4945	-48.2817
 101	1	5	-0.390296	7.57254	-21.7782	-52.083
 102	1	3	-0.001908	3.65934	-20.011	-49.9751
 103	1	3	-0.038207	4.46437	-21.5541	-52.222
 104	1	3	-0.215576	3.10809	-21.2162	-52.0232
 105	1	3	-0.070363	2.6796	-20.4319	-50.9134
 106	1	6	0.160197	3.42149	-19.4125	-49.1026
 107	1	6	0.153305	4.7842	-22.1484	-53.0768
 108	1	6	0.179436	2.38147	-21.5652	-52.7544
 109	1	7	-0.074672	1.17505	-20.0377	-50.7992
 110	1	7	0.280369	0.764255	-19.4906	-49.3764
 111	1	8	-0.106158	1.16238	-20.3138	-48.3801
 112	1	8	-0.092663	-0.578528	-19.381	-49.2537
 113	1	8	-0.102536	1.27672	-18.2682	-49.1086
 114	1	7	0.310197	0.929968	-18.9103	-51.8764
 115	1	8	-0.10503	1.01749	-19.3857	-53.1395
 116	1	8	-0.101207	1.85323	-17.926	-51.7826
 117	1	8	-0.097553	-0.278349	-18.3138	-51.7622
 118	1	3	-0.010565	0.32481	-21.3192	-51.028
 119	1	3	-0.081209	0.696944	-22.5024	-50.3422
 120	1	3	-0.082072	-0.0626144	-23.6618	-50.5213
 121	1	3	-0.061713	-0.828744	-21.3598	-51.8648
 122	1	3	-0.146525	-1.56478	-22.5492	-52.052
 123	1	3	-0.036475	-1.14998	-23.6951	-51.3658
 124	1	2	0.474489	-1.66971	-25.089	-51.3974
 125	1	1	-0.056758	-0.846766	-25.816	-50.5477
 126	1	2	0.480785	0.135424	-25.0217	-49.964
 127	1	3	0.11186	-0.90852	-27.2299	-50.4079
 128	1	3	-0.193084	-2.1239	-27.9107	-50.228
 129	1	3	-0.037687	-2.14755	-29.3125	-50.1432
 130	1	3	-0.413926	0.273076	-27.975	-50.4957
 131	1	3	0.299417	0.281125	-29.3775	-50.4044
 132	1	3	-0.384234	-0.94992	-30.0427	-50.2373
 133	1	6	0.146041	-3.05624	-27.3543	-50.1716
 134	1	6	0.136211	-3.09716	-29.8295	-50.0164
 135	1	6	0.166859	-2.42796	-22.5834	-52.7141
 136	1	6	0.137644	-1.16917	-20.4769	-52.3934
 137	1	6	0.148636	1.56616	-22.5315	-49.6893
 138	1	5	-0.470939	1.02617	-25.355	-49.2
 139	1	5	-0.47569	-2.57299	-25.505	-52.1027
 140	1	6	0.193108	-0.978354	-31.1285	-50.1856
 141	1	6	0.21486	1.21225	-27.4462	-50.611
 142	1	1	0.473101	12.5696	-30.1683	-55.5295
 143	1	2	0.047723	12.4381	-28.98	-54.8038
 144	1	3	0.004987	13.689	-28.871	-54.0134
 145	1	2	0.062675	13.7991	-30.7981	-55.3149
 146	1	3	0.048591	14.4937	-29.9475	-54.3185
 147	1	5	-0.383443	11.4984	-28.2004	-54.7692
 148	1	5	-0.390296	14.2297	-31.8331	-55.802
 149	1	3	-0.001908	14.0762	-27.9054	-53.0792
 150	1	3	-0.038207	15.7413	-30.1101	-53.7176
 151	1	3	-0.215576	16.1355	-29.1696	-52.7442
 152	1	3	-0.070363	15.3063	-28.0685	-52.3864
 153	1	6	0.160197	13.415	-27.0625	-52.8975
 154	1	6	0.153305	16.3805	-30.9401	-54.003
 155	1	6	0.179436	17.1105	-29.2979	-52.2855
 156	1	7	-0.074672	15.7639	-27.0188	-51.3303
 157	1	7	0.280369	16.5552	-27.6656	-50.1262
 158	1	8	-0.106158	15.9482	-28.7844	-49.6747
 159	1	8	-0.092663	16.6308	-26.8183	-49.0739
 160	1	8	-0.102536	17.8293	-28.0063	-50.4204
 161	1	7	0.310197	16.7028	-26.0089	-52.0962
 162	1	8	-0.10503	16.0176	-25.3154	-53.0342
 163	1	8	-0.101207	17.7014	-26.6339	-52.7609
 164	1	8	-0.097553	17.3002	-25.1178	-51.2724
 165	1	3	-0.010565	14.5069	-26.3403	-50.6976
 166	1	3	-0.081209	14.3627	-24.9316	-50.6013
 167	1	3	-0.082072	13.2013	-24.4027	-50.0309
 168	1	3	-0.061713	13.4594	-27.1529	-50.1722
 169	1	3	-0.146525	12.2919	-26.596	-49.6048
 170	1	3	-0.036475	12.1881	-25.2018	-49.5498
 171	1	2	0.474489	11.09	-24.3154	-49.0644
 172	1	1	-0.056758	11.5199	-23.0179	-49.3241
 173	1	2	0.480785	12.795	-22.9874	-49.867
 174	1	3	0.11186	10.7254	-21.8525	-49.1482
 175	1	3	-0.193084	11.258	-20.695	-48.5562
 176	1	3	-0.037687	10.4879	-19.5283	-48.4584
 177	1	3	-0.413926	9.40968	-21.8252	-49.6365
 178	1	3	0.299417	8.61032	-20.6667	-49.5421
 179	1	3	-0.384234	9.17481	-19.5157	-48.9527
 180	1	6	0.146041	12.2802	-20.6914	-48.1866
 181	1	6	0.136211	10.9115	-18.6355	-48.0021
 182	1	6	0.166859	11.4851	-27.2242	-49.2335
 183	1	6	0.137644	13.5398	-28.2361	-50.2263
 184	1	6	0.148636	15.1086	-24.2336	-50.9636
 185	1	5	-0.470939	13.461	-22.0157	-50.1774
 186	1	5	-0.47569	10.0481	-24.6699	-48.5367
 187	1	6	0.193108	8.58375	-18.6074	-48.8607
 188	1	6	0.21486	9.00914	-22.7201	-50.1015
 189	1	1	0.473101	1.72889	-38.695	-57.2485
 190	1	2	0.047723	2.88334	-37.9272	-57.4234
 191	1	3	0.004987	4.00727	-38.8967	-57.3697
 192	1	2	0.062675	2.01357	-40.0405	-57.0069
 193	1	3	0.048591	3.49073	-40.1485	-57.1107
 194	1	5	-0.383443	2.9775	-36.7331	-57.6586
 195	1	5	-0.390296	1.23605	-40.9666	-56.8419
 196	1	3	-0.001908	5.36222	-38.7103	-57.6644
 197	1	3	-0.038207	4.30798	-41.2813	-57.0991
 198	1	3	-0.215576	5.67744	-41.1166	-57.3963
 199	1	3	-0.070363	6.22564	-39.8379	-57.6993
 200	1	6	0.160197	5.71119	-37.7159	-57.9324
 201	1	6	0.153305	3.87978	-42.2653	-56.9202
 202	1	6	0.179436	6.28904	-42.0121	-57.4388
 203	1	7	-0.074672	7.68369	-39.6522	-58.2082
 204	1	7	0.280369	8.66752	-40.8199	-57.7917
 205	1	8	-0.106158	8.56611	-41.1412	-56.4825
 206	1	8	-0.092663	9.95763	-40.4706	-57.9986
 207	1	8	-0.102536	8.47302	-41.9692	-58.4769
 208	1	7	0.310197	7.59012	-39.6063	-59.7843
 209	1	8	-0.10503	6.86127	-38.554	-60.222
 210	1	8	-0.101207	6.97076	-40.6988	-60.2869
 211	1	8	-0.097553	8.80262	-39.535	-60.3787
 212	1	3	-0.010565	8.24708	-38.3433	-57.5771
 213	1	3	-0.081209	8.7344	-37.2507	-58.3464
 214	1	3	-0.082072	9.19653	-36.1066	-57.684
 215	1	3	-0.061713	8.2586	-38.221	-56.1587
 216	1	3	-0.146525	8.76928	-37.0787	-55.5123
 217	1	3	-0.036475	9.23433	-36.0306	-56.3099
 218	1	2	0.474489	9.74483	-34.6896	-55.9312
 219	1	1	-0.056758	9.92081	-34.0008	-57.1244
 220	1	2	0.480785	9.64824	-34.7986	-58.2303
 221	1	3	0.11186	10.2438	-32.6165	-57.1924
 222	1	3	-0.193084	9.51473	-31.7551	-58.0302
 223	1	3	-0.037687	9.79237	-30.3824	-58.0576
 224	1	3	-0.413926	11.2498	-32.0769	-56.3735
 225	1	3	0.299417	11.5492	-30.6986	-56.3824
 226	1	3	-0.384234	10.8104	-29.8615	-57.2452
 227	1	6	0.146041	8.72314	-32.1481	-58.6628
 228	1	6	0.136211	9.21848	-29.726	-58.7091
 229	1	6	0.166859	8.7747	-36.9948	-54.4273
 230	1	6	0.137644	7.85866	-39.0199	-55.541
 231	1	6	0.148636	8.74866	-37.2488	-59.4313
 232	1	5	-0.470939	9.66895	-34.4889	-59.4085
 233	1	5	-0.47569	9.9307	-34.2968	-54.7931
 234	1	6	0.193108	11.0103	-28.7926	-57.2661
 235	1	6	0.21486	11.8025	-32.7334	-55.7045
 236	1	1	0.473101	3.451	-26.992	-52.7931
 237	1	2	0.047723	2.13051	-26.5703	-52.9533
 238	1	3	0.004987	1.4655	-27.6609	-53.7164
 239	1	2	0.062675	3.70098	-28.2242	-53.3835
 240	1	3	0.048591	2.41263	-28.6307	-53.9804
 241	1	5	-0.383443	1.61789	-25.5268	-52.5862
 242	1	5	-0.390296	4.74536	-28.8506	-53.4236
 243	1	3	-0.001908	0.140104	-27.7869	-54.1592
 244	1	3	-0.038207	2.1129	-29.7619	-54.7328
 245	1	3	-0.215576	0.797261	-29.8985	-55.2025
 246	1	3	-0.070363	-0.216945	-28.9418	-54.9061
 247	1	6	0.160197	-0.573433	-27.0017	-53.9269
 248	1	6	0.153305	2.87698	-30.5028	-54.9548
 249	1	6	0.179436	0.570452	-30.7753	-55.8043
 250	1	7	-0.074672	-1.65146	-29.1948	-55.4532
 251	1	7	0.280369	-2.78867	-28.4341	-54.6643
 252	1	8	-0.106158	-2.82635	-27.1066	-54.9148
 253	1	8	-0.092663	-2.6621	-28.5654	-53.3266
 254	1	8	-0.102536	-4.00965	-28.9212	-54.9815
 255	1	7	0.310197	-1.64046	-28.7015	-56.9521
 256	1	8	-0.10503	-1.26006	-27.4072	-57.0541
 257	1	8	-0.101207	-2.85174	-28.8067	-57.5435
 258	1	8	-0.097553	-0.757102	-29.3886	-57.7125
 259	1	3	-0.010565	-1.91008	-30.724	-55.2868
 260	1	3	-0.081209	-2.15772	-31.5969	-56.3813
 261	1	3	-0.082072	-2.07379	-32.9811	-56.1733
 262	1	3	-0.061713	-1.69623	-31.3019	-54.003
 263	1	3	-0.146525	-1.63359	-32.6943	-53.8128
 264	1	3	-0.036475	-1.79328	-33.5128	-54.9318
 265	1	2	0.474489	-1.53966	-34.9682	-55.0871
 266	1	1	-0.056758	-1.65744	-35.2176	-56.4464
 267	1	2	0.480785	-2.03548	-34.0905	-57.1641
 268	1	3	0.11186	-1.286	-36.4463	-57.0499
 269	1	3	-0.193084	-2.17045	-37.1171	-57.9085
 270	1	3	-0.037687	-1.78653	-38.3169	-58.5219
 271	1	3	-0.413926	-0.00518053	-36.9807	-56.8213
 272	1	3	0.299417	0.404388	-38.1829	-57.4327
 273	1	3	-0.384234	-0.507649	-38.843	-58.2836
 274	1	6	0.146041	-3.15408	-36.7017	-58.1108
 275	1	6	0.136211	-2.47635	-38.8315	-59.1881
 276	1	6	0.166859	-1.36734	-33.1177	-52.8465
 277	1	6	0.137644	-1.4625	-30.6674	-53.153
 278	1	6	0.148636	-2.30838	-31.2395	-57.3947
 279	1	5	-0.470939	-2.17667	-33.9805	-58.3695
 280	1	5	-0.47569	-1.14879	-35.7263	-54.2156
 281	1	6	0.193108	-0.221254	-39.7738	-58.7678
 282	1	6	0.21486	0.688336	-36.4493	-56.1741
 283	1	1	0.473101	13.2099	-16.6397	-58.3507
 284	1	2	0.047723	13.9504	-17.8232	-58.2292
 285	1	3	0.004987	13.2547	-18.6269	-57.1883
 286	1	2	0.062675	12.1141	-16.6216	-57.4794
 287	1	3	0.048591	12.1753	-17.8999	-56.737
 288	1	5	-0.383443	14.9678	-18.1533	-58.816
 289	1	5	-0.390296	11.2431	-15.7778	-57.3463
 290	1	3	-0.001908	13.5412	-19.9042	-56.6864
 291	1	3	-0.038207	11.3383	-18.3823	-55.7313
 292	1	3	-0.215576	11.6133	-19.6584	-55.2058
 293	1	3	-0.070363	12.6884	-20.4569	-55.6909
 294	1	6	0.160197	14.401	-20.4342	-57.0825
 295	1	6	0.153305	10.502	-17.7854	-55.3738
 296	1	6	0.179436	10.9647	-20.0366	-54.4173
 297	1	7	-0.074672	12.8851	-21.8818	-55.0893
 298	1	7	0.280369	13.7563	-22.8377	-55.9882
 299	1	8	-0.106158	13.6952	-24.1183	-55.5563
 300	1	8	-0.092663	15.0659	-22.5025	-56.0121
 301	1	8	-0.102536	13.3224	-22.8481	-57.2688
 302	1	7	0.310197	13.5948	-21.6696	-53.6991
 303	1	8	-0.10503	12.7724	-21.0569	-52.8185
 304	1	8	-0.101207	14.6861	-20.8781	-53.8119
 305	1	8	-0.097553	14.015	-22.8238	-53.1345
 306	1	3	-0.010565	11.4804	-22.5481	-54.972
 307	1	3	-0.081209	11.0651	-23.288	-53.8318
 308	1	3	-0.082072	9.74882	-23.7671	-53.7772
 309	1	3	-0.061713	10.5553	-22.3919	-56.0435
 310	1	3	-0.146525	9.23041	-22.8615	-55.9579
 311	1	3	-0.036475	8.84977	-23.5338	-54.7938
 312	1	2	0.474489	7.52273	-24.0535	-54.3736
 313	1	1	-0.056758	7.70877	-24.5957	-53.1056
 314	1	2	0.480785	9.03217	-24.4827	-52.6884
 315	1	3	0.11186	6.63712	-25.09	-52.3031
 316	1	3	-0.193084	6.55658	-24.8028	-50.9278
 317	1	3	-0.037687	5.45383	-25.2199	-50.1677
 318	1	3	-0.413926	5.59748	-25.8274	-52.8937
 319	1	3	0.299417	4.47388	-26.2379	-52.153
 320	1	3	-0.384234	4.40874	-25.9246	-50.7823
 321	1	6	0.146041	7.35153	-24.2525	-50.4368
 322	1	6	0.136211	5.40886	-24.9932	-49.1037
 323	1	6	0.166859	8.51438	-22.6868	-56.758
 324	1	6	0.137644	10.8524	-21.8546	-56.9404
 325	1	6	0.148636	11.7146	-23.4683	-52.983
 326	1	5	-0.470939	9.53123	-24.8452	-51.6373
 327	1	5	-0.47569	6.4828	-23.9325	-55.0023
 328	1	6	0.193108	3.55269	-26.2347	-50.1841
 329	1	6	0.21486	5.65329	-26.082	-53.9495
 330	1	1	0.473101	12.3274	-4.81609	-50.8886
 331	1	2	0.047723	11.4224	-4.50658	-51.9105
 332	1	3	0.004987	11.6205	-5.55602	-52.9467
 333	1	2	0.062675	13.1108	-5.93157	-51.1994
 334	1	3	0.048591	12.6139	-6.40668	-52.5119
 335	1	5	-0.383443	10.5795	-3.62511	-51.9408
 336	1	5	-0.390296	13.9979	-6.45487	-50.5441
 337	1	3	-0.001908	10.9235	-5.79076	-54.1399
 338	1	3	-0.038207	12.948	-7.55871	-53.2243
 339	1	3	-0.215576	12.2415	-7.82741	-54.4128
 340	1	3	-0.070363	11.2413	-6.94289	-54.911
 341	1	6	0.160197	10.1268	-5.10863	-54.4165
 342	1	6	0.153305	13.7027	-8.24313	-52.8425
 343	1	6	0.179436	12.4658	-8.75641	-54.9321
 344	1	7	-0.074672	10.4446	-7.32268	-56.1961
 345	1	7	0.280369	9.98319	-6.06747	-57.0343
 346	1	8	-0.106158	9.5858	-6.42587	-58.2767
 347	1	8	-0.092663	10.9849	-5.17354	-57.19
 348	1	8	-0.102536	8.9476	-5.39307	-56.4875
 349	1	7	0.310197	9.1757	-8.11761	-55.6971
 350	1	8	-0.10503	9.52207	-9.27825	-55.0941
 351	1	8	-0.101207	8.3114	-8.41001	-56.6954
 352	1	8	-0.097553	8.47018	-7.42712	-54.7724
 353	1	3	-0.010565	11.3709	-8.16065	-57.1346
 354	1	3	-0.081209	11.0044	-9.43563	-57.6406
 355	1	3	-0.082072	11.9352	-10.164	-58.3881
 356	1	3	-0.061713	12.663	-7.65966	-57.4684
 357	1	3	-0.146525	13.5862	-8.41158	-58.2271
 358	1	3	-0.036475	13.1956	-9.68138	-58.6653
 359	1	2	0.474489	13.965	-10.7591	-59.3521
 360	1	1	-0.056758	13.1064	-11.8492	-59.4014
 361	1	2	0.480785	11.8485	-11.5541	-58.8945
 362	1	3	0.11186	13.4893	-13.1608	-59.786
 363	1	3	-0.193084	14.0581	-13.4232	-61.0405
 364	1	3	-0.037687	14.3628	-14.7412	-61.411
 365	1	3	-0.413926	13.2622	-14.2249	-58.899
 366	1	3	0.299417	13.5275	-15.5643	-59.2539
 367	1	3	-0.384234	14.0845	-15.8008	-60.5307
 368	1	6	0.146041	14.2574	-12.6079	-61.7308
 369	1	6	0.136211	14.8012	-14.9416	-62.387
 370	1	6	0.166859	14.5874	-8.03752	-58.4328
 371	1	6	0.137644	12.9786	-6.69102	-57.0901
 372	1	6	0.148636	10.0465	-9.90168	-57.4365
 373	1	5	-0.470939	10.8875	-12.2937	-58.7786
 374	1	5	-0.47569	15.1351	-10.7087	-59.6895
 375	1	6	0.193108	14.312	-16.8161	-60.846
 376	1	6	0.21486	12.82	-14.0066	-57.9308
 377	1	1	0.473101	8.94147	3.10012	-40.5365
 378	1	2	0.047723	8.40901	3.7994	-41.6182
 379	1	3	0.004987	9.53876	3.95687	-42.57
 380	1	2	0.062675	10.2999	2.82955	-40.6815
 381	1	3	0.048591	10.6603	3.37968	-42.0109
 382	1	5	-0.383443	7.25771	4.16109	-41.7949
 383	1	5	-0.390296	11.0444	2.24324	-39.9137
 384	1	3	-0.001908	9.55612	4.50906	-43.8558
 385	1	3	-0.038207	11.8705	3.32813	-42.703
 386	1	3	-0.215576	11.9068	3.86615	-44.0053
 387	1	3	-0.070363	10.7587	4.45119	-44.6129
 388	1	6	0.160197	8.634	4.93082	-44.2405
 389	1	6	0.153305	12.7427	2.85805	-42.2534
 390	1	6	0.179436	12.8389	3.79458	-44.561
 391	1	7	-0.074672	10.867	4.94725	-46.0887
 392	1	7	0.280369	9.47651	5.3011	-46.7421
 393	1	8	-0.106158	8.59825	4.27739	-46.6418
 394	1	8	-0.092663	9.59176	5.55504	-48.0656
 395	1	8	-0.102536	8.89812	6.38883	-46.1843
 396	1	7	0.310197	11.7776	6.23737	-46.0672
 397	1	8	-0.10503	13.0739	5.94243	-45.8207
 398	1	8	-0.101207	11.3906	7.09553	-45.0958
 399	1	8	-0.097553	11.7553	6.93727	-47.2237
 400	1	3	-0.010565	11.4554	3.77939	-46.9324
 401	1	3	-0.081209	11.0311	2.45616	-46.6487
 402	1	3	-0.082072	11.5669	1.39448	-47.3821
 403	1	3	-0.061713	12.379	3.97355	-48.0001
 404	1	3	-0.146525	12.9009	2.88505	-48.7345
 405	1	3	-0.036475	12.4788	1.59424	-48.3944
 406	1	2	0.474489	12.8687	0.26007	-48.9345
 407	1	1	-0.056758	12.1673	-0.669501	-48.1756
 408	1	2	0.480785	11.3445	-0.0635339	-47.2346
 409	1	3	0.11186	12.3233	-2.07904	-48.2818
 410	1	3	-0.193084	12.5322	-2.84038	-47.1193
 411	1	3	-0.037687	12.6491	-4.23163	-47.1894
 412	1	3	-0.413926	12.2643	-2.73029	-49.5288
 413	1	3	0.299417	12.3905	-4.13486	-49.6258
 414	1	3	-0.384234	12.566	-4.86987	-48.4324
 415	1	6	0.146041	12.5875	-2.35468	-46.1488
 416	1	6	0.136211	12.7998	-4.81309	-46.2819
 417	1	6	0.166859	13.6186	3.03721	-49.5385
 418	1	6	0.137644	12.7091	4.96937	-48.2746
 419	1	6	0.148636	10.3106	2.24328	-45.862
 420	1	5	-0.470939	10.6291	-0.591223	-46.4007
 421	1	5	-0.47569	13.6776	0.0501484	-49.8222
 422	1	6	0.193108	12.6572	-5.95257	-48.4646
 423	1	6	0.21486	12.1106	-2.14136	-50.4304
 424	1	1	0.473101	13.0575	-4.50242	-34.4769
 425	1	2	0.047723	11.673	-4.29018	-34.4309
 426	1	3	0.004987	11.0814	-5.34615	-35.2876
 427	1	2	0.062675	13.3864	-5.63476	-35.234
 428	1	3	0.048591	12.0987	-6.13242	-35.7779
 429	1	5	-0.383443	11.0504	-3.37415	-33.9186
 430	1	5	-0.390296	14.4844	-6.11257	-35.4715
 431	1	3	-0.001908	9.75323	-5.53087	-35.6825
 432	1	3	-0.038207	11.8447	-7.15003	-36.7001
 433	1	3	-0.215576	10.5173	-7.32701	-37.1449
 434	1	3	-0.070363	9.45362	-6.50489	-36.6727
 435	1	6	0.160197	8.98731	-4.88331	-35.2631
 436	1	6	0.153305	12.66	-7.75712	-37.088
 437	1	6	0.179436	10.3385	-8.1077	-37.8766
 438	1	7	-0.074672	7.98994	-6.65164	-37.1929
 439	1	7	0.280369	7.90477	-7.19795	-38.6704
 440	1	8	-0.106158	6.66787	-7.02704	-39.1911
 441	1	8	-0.092663	8.17759	-8.51785	-38.7784
 442	1	8	-0.102536	8.75781	-6.54542	-39.4921
 443	1	7	0.310197	7.27883	-7.65861	-36.212
 444	1	8	-0.10503	6.06274	-8.06021	-36.6469
 445	1	8	-0.101207	7.11632	-7.11568	-34.9841
 446	1	8	-0.097553	8.00736	-8.78411	-36.0322
 447	1	3	-0.010565	7.32691	-5.23887	-37.2265
 448	1	3	-0.081209	8.06996	-4.14359	-37.7417
 449	1	3	-0.082072	7.50616	-2.86258	-37.7203
 450	1	3	-0.061713	5.99601	-4.99136	-36.7792
 451	1	3	-0.146525	5.43678	-3.69639	-36.7961
 452	1	3	-0.036475	6.22726	-2.64211	-37.2636
 453	1	2	0.474489	5.93967	-1.18607	-37.3655
 454	1	1	-0.056758	7.10133	-0.601825	-37.8656
 455	1	2	0.480785	8.08902	-1.55366	-38.1109
 456	1	3	0.11186	7.26283	0.800643	-38.0883
 457	1	3	-0.193084	6.71279	1.7421	-37.1975
 458	1	3	-0.037687	6.86323	3.11874	-37.4189
 459	1	3	-0.413926	7.98622	1.27363	-39.1991
 460	1	3	0.299417	8.17059	2.6524	-39.4241
 461	1	3	-0.384234	7.59067	3.57127	-38.5289
 462	1	6	0.146041	6.15501	1.4112	-36.326
 463	1	6	0.136211	6.41748	3.83125	-36.7274
 464	1	6	0.166859	4.42342	-3.51315	-36.4435
 465	1	6	0.137644	5.37096	-5.79363	-36.4055
 466	1	6	0.148636	9.08257	-4.27224	-38.119
 467	1	5	-0.470939	9.21825	-1.38874	-38.5388
 468	1	5	-0.47569	4.8864	-0.650179	-37.0642
 469	1	6	0.193108	7.70461	4.63912	-38.6971
 470	1	6	0.21486	8.44113	0.566636	-39.8879
 471	1	1	0.473101	13.2045	5.92253	-22.2099
 472	1	2	0.047723	12.0653	5.30906	-22.7408
 473	1	3	0.004987	12.5719	4.2257	-23.6256
 474	1	2	0.062675	14.3841	5.35945	-22.7082
 475	1	3	0.048591	13.9493	4.25788	-23.6017
 476	1	5	-0.383443	10.8925	5.55417	-22.5136
 477	1	5	-0.390296	15.5413	5.66594	-22.4697
 478	1	3	-0.001908	11.8718	3.25312	-24.3519
 479	1	3	-0.038207	14.7099	3.31511	-24.2964
 480	1	3	-0.215576	14.0255	2.32484	-25.0304
 481	1	3	-0.070363	12.6039	2.27941	-25.0879
 482	1	6	0.160197	10.7882	3.26461	-24.3086
 483	1	6	0.153305	15.7965	3.33863	-24.2462
 484	1	6	0.179436	14.6137	1.57117	-25.5504
 485	1	7	-0.074672	11.9189	1.12495	-25.8837
 486	1	7	0.280369	11.9837	-0.146171	-24.9519
 487	1	8	-0.106158	11.1957	-1.16171	-25.3716
 488	1	8	-0.092663	11.5897	0.142561	-23.6903
 489	1	8	-0.102536	13.243	-0.630113	-24.8554
 490	1	7	0.310197	10.418	1.43018	-26.2582
 491	1	8	-0.10503	10.2879	2.65197	-26.8236
 492	1	8	-0.101207	9.58281	1.38647	-25.1959
 493	1	8	-0.097553	9.93556	0.544552	-27.1599
 494	1	3	-0.010565	12.6603	0.929488	-27.2405
 495	1	3	-0.081209	12.8688	-0.350373	-27.824
 496	1	3	-0.082072	13.4838	-0.433574	-29.0809
 497	1	3	-0.061713	13.0713	2.07716	-27.9759
 498	1	3	-0.146525	13.6962	1.97102	-29.2344
 499	1	3	-0.036475	13.889	0.692167	-29.7646
 500	1	2	0.474489	14.4465	0.268678	-31.076
 501	1	1	-0.056758	14.3219	-1.11534	-31.1095
 502	1	2	0.480785	13.7653	-1.61749	-29.9387
 503	1	3	0.11186	14.6626	-1.90731	-32.2423
 504	1	3	-0.193084	15.8728	-1.69326	-32.9221
 505	1	3	-0.037687	16.1674	-2.40659	-34.0896
 506	1	3	-0.413926	13.7608	-2.86672	-32.7381
 507	1	3	0.299417	14.0248	-3.59179	-33.9224
 508	1	3	-0.384234	15.2438	-3.33497	-34.5898
 509	1	6	0.146041	16.5787	-0.949529	-32.5624
 510	1	6	0.136211	17.1002	-2.22107	-34.6191
 511	1	6	0.166859	13.9971	2.85407	-29.7948
 512	1	6	0.137644	12.8907	3.07093	-27.5738
 513	1	6	0.148636	12.5451	-1.26995	-27.3476
 514	1	5	-0.470939	13.5235	-2.7787	-29.6565
 515	1	5	-0.47569	14.8882	1.01166	-31.9362
 516	1	6	0.193108	15.4838	-3.85463	-35.514
 517	1	6	0.21486	12.8235	-3.02698	-32.211
 518	1	1	0.473101	8.84561	17.1707	-14.7214
 519	1	2	0.047723	8.82808	15.8624	-15.2017
 520	1	3	0.004987	8.04197	15.9219	-16.4587
 521	1	2	0.062675	8.14247	18.0555	-15.5383
 522	1	3	0.048591	7.62238	17.2207	-16.6528
 523	1	5	-0.383443	9.34752	14.8691	-14.7211
 524	1	5	-0.390296	7.99166	19.2584	-15.4006
 525	1	3	-0.001908	7.74092	14.9086	-17.3726
 526	1	3	-0.038207	6.84508	17.5696	-17.7604
 527	1	3	-0.215576	6.5157	16.5578	-18.6893
 528	1	3	-0.070363	6.97289	15.2177	-18.5262
 529	1	6	0.160197	8.11686	13.9052	-17.1892
 530	1	6	0.153305	6.51007	18.5961	-17.8948
 531	1	6	0.179436	5.90448	16.8442	-19.5392
 532	1	7	-0.074672	6.68568	14.0787	-19.5513
 533	1	7	0.280369	5.63295	13.1168	-18.8721
 534	1	8	-0.106158	6.15535	12.4472	-17.8201
 535	1	8	-0.092663	5.13159	12.1876	-19.7166
 536	1	8	-0.102536	4.57639	13.8082	-18.3867
 537	1	7	0.310197	6.10807	14.5802	-20.9319
 538	1	8	-0.10503	4.84625	15.0578	-20.8373
 539	1	8	-0.101207	6.07964	13.5865	-21.8493
 540	1	8	-0.097553	6.86417	15.5603	-21.4767
 541	1	3	-0.010565	8.05054	13.4003	-19.8681
 542	1	3	-0.081209	8.23076	11.991	-19.9119
 543	1	3	-0.082072	9.51362	11.4801	-20.1615
 544	1	3	-0.061713	9.17825	14.2322	-20.1222
 545	1	3	-0.146525	10.4571	13.6992	-20.3718
 546	1	3	-0.036475	10.5948	12.3093	-20.3775
 547	1	2	0.474489	11.8091	11.468	-20.5371
 548	1	1	-0.056758	11.3769	10.1592	-20.3881
 549	1	2	0.480785	10.0068	10.0742	-20.1806
 550	1	3	0.11186	12.2687	9.05861	-20.3161
 551	1	3	-0.193084	13.1966	9.0062	-19.2648
 552	1	3	-0.037687	14.1056	7.94741	-19.172
 553	1	3	-0.413926	12.2606	8.03918	-21.2865
 554	1	3	0.299417	13.179	6.96457	-21.2204
 555	1	3	-0.384234	14.0905	6.93566	-20.1413
 556	1	6	0.146041	13.2196	9.79639	-18.5189
 557	1	6	0.136211	14.8256	7.91837	-18.3562
 558	1	6	0.166859	11.3188	14.3433	-20.5371
 559	1	6	0.137644	9.06895	15.3137	-20.1081
 560	1	6	0.148636	7.41859	11.2922	-19.7373
 561	1	5	-0.470939	9.34032	9.07565	-19.9763
 562	1	5	-0.47569	12.9495	11.8707	-20.689
 563	1	6	0.193108	14.8128	6.12703	-20.0601
 564	1	6	0.21486	11.5289	8.076	-22.0896
 565	1	1	0.473101	16.9308	22.3265	-5.84559
 566	1	2	0.047723	17.1935	21.8574	-7.14066
 567	1	3	0.004987	16.8242	22.9703	-8.05056
 568	1	2	0.062675	16.4498	23.6414	-5.85609
 569	1	3	0.048591	16.3968	24.032	-7.28585
 570	1	5	-0.383443	17.6417	20.7791	-7.49504
 571	1	5	-0.390296	16.0946	24.34	-4.9203
 572	1	3	-0.001908	16.8466	23.0351	-9.44814
 573	1	3	-0.038207	15.9948	25.2328	-7.87356
 574	1	3	-0.215576	16.0237	25.3268	-9.28049
 575	1	3	-0.070363	16.4272	24.2287	-10.094
 576	1	6	0.160197	17.176	22.1669	-10.0137
 577	1	6	0.153305	15.6704	26.0661	-7.25396
 578	1	6	0.179436	15.7195	26.2716	-9.71806
 579	1	7	-0.074672	16.4507	24.2878	-11.6509
 580	1	7	0.280369	17.969	24.4047	-12.0666
 581	1	8	-0.106158	18.6005	25.3722	-11.3631
 582	1	8	-0.092663	18.6484	23.2603	-11.827
 583	1	8	-0.102536	18.1488	24.7042	-13.3728
 584	1	7	0.310197	15.6507	25.505	-12.2589
 585	1	8	-0.10503	16.2503	26.6979	-12.0428
 586	1	8	-0.101207	14.3971	25.5884	-11.7576
 587	1	8	-0.097553	15.5038	25.3854	-13.5985
 588	1	3	-0.010565	15.7466	23.0079	-12.1875
 589	1	3	-0.081209	14.5353	22.5887	-11.5773
 590	1	3	-0.082072	13.8682	21.4654	-12.0805
 591	1	3	-0.061713	16.2263	22.2701	-13.3081
 592	1	3	-0.146525	15.5372	21.1419	-13.7998
 593	1	3	-0.036475	14.3518	20.7623	-13.1619
 594	1	2	0.474489	13.4072	19.6508	-13.455
 595	1	1	-0.056758	12.3954	19.7569	-12.5078
 596	1	2	0.480785	12.601	20.8237	-11.6406
 597	1	3	0.11186	11.2933	18.8602	-12.4262
 598	1	3	-0.193084	10.9174	18.2999	-11.1928
 599	1	3	-0.037687	9.86191	17.3802	-11.1174
 600	1	3	-0.413926	10.5845	18.4953	-13.585
 601	1	3	0.299417	9.52927	17.5628	-13.5317
 602	1	3	-0.384234	9.17838	17.0081	-12.2846
 603	1	6	0.146041	11.4479	18.5735	-10.2845
 604	1	6	0.136211	9.58505	16.9492	-10.1569
 605	1	6	0.166859	15.9063	20.5838	-14.6583
 606	1	6	0.137644	17.1325	22.5641	-13.8256
 607	1	6	0.148636	14.1066	23.1295	-10.7362
 608	1	5	-0.470939	11.913	21.1746	-10.698
 609	1	5	-0.47569	13.5195	18.8323	-14.3524
 610	1	6	0.193108	8.3794	16.2732	-12.2242
 611	1	6	0.21486	10.8665	18.9226	-14.5441
 612	1	1	0.473101	12.2007	24.1193	7.38385
 613	1	2	0.047723	12.9863	25.1519	6.87795
 614	1	3	0.004987	14.0528	24.4802	6.099
 615	1	2	0.062675	12.6178	22.8594	6.9539
 616	1	3	0.048591	13.8361	23.1186	6.13711
 617	1	5	-0.383443	12.9121	26.3462	7.11261
 618	1	5	-0.390296	12.1613	21.769	7.25858
 619	1	3	-0.001908	15.2029	25.0332	5.53042
 620	1	3	-0.038207	14.7597	22.231	5.57684
 621	1	3	-0.215576	15.935	22.7687	5.00425
 622	1	3	-0.070363	16.1866	24.1706	4.97693
 623	1	6	0.160197	15.3325	26.1067	5.6022
 624	1	6	0.153305	14.5975	21.1569	5.6394
 625	1	6	0.179436	16.6857	22.0775	4.62666
 626	1	7	-0.074672	17.587	24.6973	4.53137
 627	1	7	0.280369	17.5842	26.2285	4.1529
 628	1	8	-0.106158	17.4577	27.0473	5.22189
 629	1	8	-0.092663	16.5811	26.5185	3.2938
 630	1	8	-0.102536	18.7304	26.5983	3.5372
 631	1	7	0.310197	18.5271	24.4641	5.77899
 632	1	8	-0.10503	18.819	23.153	5.93731
 633	1	8	-0.101207	17.9409	24.8646	6.93146
 634	1	8	-0.097553	19.7008	25.1318	5.7126
 635	1	3	-0.010565	18.0751	23.9499	3.25191
 636	1	3	-0.081209	17.146	23.5915	2.23877
 637	1	3	-0.082072	17.617	22.9922	1.05977
 638	1	3	-0.061713	19.4587	23.7074	3.00552
 639	1	3	-0.146525	19.9121	23.1176	1.80903
 640	1	3	-0.036475	18.9617	22.7681	0.847289
 641	1	2	0.474489	19.1324	22.1441	-0.493031
 642	1	1	-0.056758	17.8514	22.0141	-1.00281