pySIMM System Object

1600 atoms
1769 bonds
3060 angles
4824 dihedrals
544 impropers

8 atom types
10 bond types
16 angle types
7 dihedral types
4 improper types

-191.984962 191.984962 xlo xhi
-191.984962 191.984962 ylo yhi
-191.984962 191.984962 zlo zhi

Masses

   1	14.01	# n
   2	12.01	# c
   3	12.01	# ca
   4	1.008	# hn
   5	16.0	# o
   6	1.008	# ha
   7	12.01	# c3
   8	19.0	# f

Pair Coeffs

   1	0.17	3.249998523775958	# n
   2	0.086	3.3996695084235347	# c
   3	0.086	3.3996695084235347	# ca
   4	0.0157	1.069078461768407	# hn
   5	0.21	2.959921901149463	# o
   6	0.015	2.59964245953351	# ha
   7	0.1094	3.3996695084235347	# c3
   8	0.061	3.1181455134911875	# f

Bond Coeffs

   1	345.8	1.086	# ca,ha
   2	384.2	1.4121	# ca,n
   3	637.7	1.2183	# c,o
   4	321.0	1.5156	# c3,ca
   5	403.2	1.0129	# hn,n
   6	356.9	1.3497	# c3,f
   7	427.6	1.3789	# c,n
   8	461.1	1.3984	# ca,ca
   9	345.9	1.4906	# c,ca
  10	300.9	1.5375	# c3,c3

Angle Coeffs

   1	66.11	109.24	# c3,c3,f
   2	66.62	120.02	# ca,ca,ca
   3	63.53	120.77	# c3,ca,ca
   4	62.86	111.51	# c3,c3,c3
   5	63.74	127.08	# c,n,c
   6	63.15	112.07	# c3,c3,ca
   7	48.18	119.88	# ca,ca,ha
   8	70.89	107.36	# f,c3,f
   9	68.72	122.6	# ca,c,o
  10	63.82	123.71	# c,n,ca
  11	67.87	120.19	# ca,ca,n
  12	67.68	115.25	# ca,c,n
  13	63.56	112.24	# ca,c3,ca
  14	64.28	120.33	# c,ca,ca
  15	48.33	117.55	# c,n,hn
  16	74.22	123.05	# n,c,o

Dihedral Coeffs

   1	1	3.625	2	180	# X,ca,ca,X
   2	1	1.0	2	180	# X,c,ca,X
   3	1	0.15555555555555556	3	0	# X,c3,c3,X
   4	1	0.0	2	0	# X,c3,ca,X
   5	1	2.5	2	180	# X,c,n,X
   6	1	0.45	2	180	# X,ca,n,X
   7	2	2.5	2	180	2.0	1	0	# hn,n,c,o

Improper Coeffs

   1	1.1	-1	2	# ca,ca,ca,c3
   2	1.1	-1	2	# n,X,X,hn
   3	1.1	-1	2	# ca,X,X,ha
   4	10.5	-1	2	# c,X,X,o

Atoms

   1	1	1	0.473101	-7.98478	-20.193	57.5763
   2	1	2	0.047723	-8.78493	-21.0943	58.2858
   3	1	3	0.004987	-9.209	-20.3683	59.5059
   4	1	2	0.062675	-7.87931	-18.9586	58.2302
   5	1	3	0.048591	-8.68391	-19.097	59.4704
   6	1	5	-0.383443	-9.10722	-22.2342	57.9938
   7	1	5	-0.390296	-7.22707	-17.9765	57.9154
   8	1	3	-0.001908	-9.97014	-20.8168	60.5859
   9	1	3	-0.038207	-8.92357	-18.1867	60.5044
  10	1	3	-0.215576	-9.69382	-18.6177	61.6072
  11	1	3	-0.070363	-10.2035	-19.9452	61.6825
  12	1	6	0.160197	-10.3344	-21.8413	60.5799
  13	1	6	0.153305	-8.5104	-17.1812	60.4591
  14	1	6	0.179436	-9.86495	-17.9058	62.409
  15	1	7	-0.074672	-10.9617	-20.5068	62.9208
  16	1	7	0.280369	-10.8125	-19.6338	64.229
  17	1	8	-0.106158	-9.5239	-19.3307	64.5034
  18	1	8	-0.092663	-11.2791	-20.2919	65.3144
  19	1	8	-0.102536	-11.4829	-18.461	64.1697
  20	1	7	0.310197	-12.4883	-20.5795	62.5239
  21	1	8	-0.10503	-12.944	-19.3865	62.0782
  22	1	8	-0.101207	-13.2866	-20.9426	63.5531
  23	1	8	-0.097553	-12.7149	-21.4558	61.5192
  24	1	3	-0.010565	-10.309	-21.8898	63.22
  25	1	3	-0.081209	-8.8925	-21.9608	63.2863
  26	1	3	-0.082072	-8.27235	-23.2067	63.4196
  27	1	3	-0.061713	-11.0477	-23.101	63.3512
  28	1	3	-0.146525	-10.4	-24.3494	63.4758
  29	1	3	-0.036475	-9.00058	-24.372	63.4896
  30	1	2	0.474489	-8.04506	-25.5125	63.5401
  31	1	1	-0.056758	-6.7738	-24.9457	63.502
  32	1	2	0.480785	-6.82909	-23.5559	63.4472
  33	1	3	0.11186	-5.55964	-25.6942	63.4882
  34	1	3	-0.193084	-4.49345	-25.3087	62.6522
  35	1	3	-0.037687	-3.29534	-26.0368	62.632
  36	1	3	-0.413926	-5.40446	-26.8381	64.2949
  37	1	3	0.299417	-4.21834	-27.5841	64.2603
  38	1	3	-0.384234	-3.16155	-27.1753	63.4382
  39	1	6	0.146041	-4.58765	-24.4368	62.0113
  40	1	6	0.136211	-2.4803	-25.7261	61.9835
  41	1	6	0.166859	-10.9666	-25.2765	63.5371
  42	1	6	0.137644	-12.1316	-23.102	63.3261
  43	1	6	0.148636	-8.27341	-21.0723	63.186
  44	1	5	-0.470939	-5.90931	-22.7558	63.4405
  45	1	5	-0.47569	-8.35154	-26.6926	63.5754
  46	1	6	0.193108	-2.25093	-27.7646	63.4046
  47	1	6	0.21486	-6.21038	-27.1756	64.9378
  48	1	1	0.473101	0.155008	-31.1165	49.4403
  49	1	2	0.047723	-0.692999	-31.6749	50.3991
  50	1	3	0.004987	-1.32975	-30.5126	51.0757
  51	1	2	0.062675	0.0610047	-29.7249	49.3864
  52	1	3	0.048591	-0.87455	-29.3599	50.4694
  53	1	5	-0.383443	-0.791373	-32.8444	50.732
  54	1	5	-0.390296	0.702479	-28.9379	48.7104
  55	1	3	-0.001908	-2.13807	-30.466	52.2192
  56	1	3	-0.038207	-1.18236	-28.0966	50.9703
  57	1	3	-0.215576	-1.99043	-28.0283	52.1182
  58	1	3	-0.070363	-2.49542	-29.1987	52.7537
  59	1	6	0.160197	-2.42979	-31.3978	52.6905
  60	1	6	0.153305	-0.764057	-27.2015	50.5144
  61	1	6	0.179436	-2.1816	-27.0442	52.5403
  62	1	7	-0.074672	-3.32462	-29.0427	54.0589
  63	1	7	0.280369	-4.31262	-30.2484	54.3239
  64	1	8	-0.106158	-4.99946	-30.6029	53.215
  65	1	8	-0.092663	-5.23424	-29.9329	55.2601
  66	1	8	-0.102536	-3.70138	-31.3725	54.7602
  67	1	7	0.310197	-2.2825	-28.9597	55.2408
  68	1	8	-0.10503	-1.45307	-30.0285	55.2617
  69	1	8	-0.101207	-2.87473	-28.9137	56.4543
  70	1	8	-0.097553	-1.47951	-27.8765	55.1369
  71	1	3	-0.010565	-4.19922	-27.7605	53.8947
  72	1	3	-0.081209	-4.1468	-26.6522	54.7844
  73	1	3	-0.082072	-4.92772	-25.5199	54.5101
  74	1	3	-0.061713	-5.04595	-27.6621	52.7538
  75	1	3	-0.146525	-5.82616	-26.519	52.4973
  76	1	3	-0.036475	-5.74264	-25.4569	53.3999
  77	1	2	0.474489	-6.39991	-24.1263	53.3745
  78	1	1	-0.056758	-5.9255	-23.4519	54.4901
  79	1	2	0.480785	-5.04497	-24.224	55.2369
  80	1	3	0.11186	-6.29663	-22.1157	54.7992
  81	1	3	-0.193084	-6.18433	-21.1138	53.8219
  82	1	3	-0.037687	-6.64261	-19.817	54.0782
  83	1	3	-0.413926	-6.85302	-21.7962	56.0497
  84	1	3	0.299417	-7.34868	-20.5003	56.3247
  85	1	3	-0.384234	-7.23018	-19.5194	55.3153
  86	1	6	0.146041	-5.77067	-21.3486	52.8448
  87	1	6	0.136211	-6.56271	-19.0501	53.3099
  88	1	6	0.166859	-6.46115	-26.4511	51.6161
  89	1	6	0.137644	-5.07896	-28.4727	52.0321
  90	1	6	0.148636	-3.52931	-26.6444	55.6769
  91	1	5	-0.470939	-4.42672	-23.8942	56.2343
  92	1	5	-0.47569	-7.15405	-23.716	52.509
  93	1	6	0.193108	-7.59944	-18.5108	55.4849
  94	1	6	0.21486	-6.93688	-22.5789	56.8008
  95	1	1	0.473101	6.20262	-22.2684	51.2164
  96	1	2	0.047723	6.95948	-22.6696	50.112
  97	1	3	0.004987	7.31196	-24.0886	50.3689
  98	1	2	0.062675	6.05021	-23.2923	52.1542
  99	1	3	0.048591	6.74573	-24.4687	51.5674
 100	1	5	-0.383443	7.26755	-22.0276	49.1214
 101	1	5	-0.390296	5.53055	-23.2362	53.2575
 102	1	3	-0.001908	8.10331	-24.9617	49.6131
 103	1	3	-0.038207	6.88533	-25.7739	52.0473
 104	1	3	-0.215576	7.65417	-26.6794	51.285
 105	1	3	-0.070363	8.30073	-26.2903	50.0771
 106	1	6	0.160197	8.55724	-24.5818	48.7044
 107	1	6	0.153305	6.42177	-26.0737	52.9851
 108	1	6	0.179436	7.77065	-27.6939	51.6611
 109	1	7	-0.074672	9.24568	-27.3069	49.3654
 110	1	7	0.280369	9.65499	-26.8809	47.8998
 111	1	8	-0.106158	8.58463	-26.5567	47.1398
 112	1	8	-0.092663	10.2813	-27.8869	47.2476
 113	1	8	-0.102536	10.4923	-25.8196	47.8674
 114	1	7	0.310197	10.5498	-27.3927	50.2528
 115	1	8	-0.10503	10.3158	-27.9615	51.4574
 116	1	8	-0.101207	11.0528	-26.1648	50.5169
 117	1	8	-0.097553	11.5446	-28.1002	49.6709
 118	1	3	-0.010565	8.4882	-28.6595	49.2296
 119	1	3	-0.081209	7.18231	-28.6409	48.6817
 120	1	3	-0.082072	6.48872	-29.8443	48.5265
 121	1	3	-0.061713	9.04082	-29.9203	49.6031
 122	1	3	-0.146525	8.30511	-31.1192	49.4757
 123	1	3	-0.036475	7.01869	-31.05	48.9303
 124	1	2	0.474489	5.97127	-32.0975	48.7595
 125	1	1	-0.056758	4.85988	-31.4339	48.2565
 126	1	2	0.480785	5.10417	-30.0795	48.0556
 127	1	3	0.11186	3.56327	-32.011	48.1748
 128	1	3	-0.193084	3.32157	-33.2487	47.5582
 129	1	3	-0.037687	2.02419	-33.7897	47.5431
 130	1	3	-0.413926	2.49361	-31.3374	48.7745
 131	1	3	0.299417	1.18527	-31.8479	48.7696
 132	1	3	-0.384234	0.962522	-33.0952	48.1517
 133	1	6	0.146041	4.14167	-33.8001	47.105
 134	1	6	0.136211	1.84839	-34.7554	47.0721
 135	1	6	0.166859	8.71444	-32.0721	49.805
 136	1	6	0.137644	10.0402	-29.9944	50.0161
 137	1	6	0.148636	6.7011	-27.7096	48.3935
 138	1	5	-0.470939	4.32795	-29.2177	47.6781
 139	1	5	-0.47569	6.04546	-33.261	49.1183
 140	1	6	0.193108	-0.034008	-33.5302	48.1501
 141	1	6	0.21486	2.68407	-30.3763	49.2368
 142	1	1	0.473101	-2.7614	-23.5	58.6641
 143	1	2	0.047723	-1.8747	-22.7687	57.8686
 144	1	3	0.004987	-2.49725	-21.4346	57.7281
 145	1	2	0.062675	-3.87432	-22.7465	59.0598
 146	1	3	0.048591	-3.68162	-21.4146	58.4287
 147	1	5	-0.383443	-0.823844	-23.1206	57.3536
 148	1	5	-0.390296	-4.82126	-23.0797	59.7562
 149	1	3	-0.001908	-2.03679	-20.3219	57.0286
 150	1	3	-0.038207	-4.47119	-20.2618	58.4689
 151	1	3	-0.215576	-4.03875	-19.1304	57.7409
 152	1	3	-0.070363	-2.82519	-19.1423	56.9966
 153	1	6	0.160197	-1.08098	-20.3996	56.5212
 154	1	6	0.153305	-5.38376	-20.2439	59.0576
 155	1	6	0.179436	-4.64927	-18.2331	57.7849
 156	1	7	-0.074672	-2.30063	-17.8887	56.2374
 157	1	7	0.280369	-3.45008	-17.0341	55.5695
 158	1	8	-0.106158	-4.34483	-17.8071	54.9179
 159	1	8	-0.092663	-2.94739	-16.1721	54.6563
 160	1	8	-0.102536	-4.16235	-16.2851	56.4404
 161	1	7	0.310197	-1.55654	-17.0057	57.3121
 162	1	8	-0.10503	-0.504894	-17.6582	57.8539
 163	1	8	-0.101207	-2.34996	-16.6848	58.3594
 164	1	8	-0.097553	-1.09916	-15.8402	56.8011
 165	1	3	-0.010565	-1.37051	-18.3851	55.0821
 166	1	3	-0.081209	-0.00254176	-18.0154	54.9714
 167	1	3	-0.082072	0.787995	-18.618	53.9846
 168	1	3	-0.061713	-1.88193	-19.3289	54.1427
 169	1	3	-0.146525	-1.069	-19.9156	53.1502
 170	1	3	-0.036475	0.277894	-19.5456	53.1023
 171	1	2	0.474489	1.38541	-20.0141	52.2218
 172	1	1	-0.056758	2.51421	-19.3255	52.6484
 173	1	2	0.480785	2.23703	-18.4621	53.6995
 174	1	3	0.11186	3.80968	-19.4863	52.0856
 175	1	3	-0.193084	4.57081	-18.3637	51.7195
 176	1	3	-0.037687	5.85873	-18.5201	51.1916
 177	1	3	-0.413926	4.35482	-20.7701	51.912
 178	1	3	0.299417	5.65153	-20.9541	51.3823
 179	1	3	-0.384234	6.39393	-19.8066	51.0306
 180	1	6	0.146041	4.16789	-17.3628	51.8527
 181	1	6	0.136211	6.43984	-17.644	50.9095
 182	1	6	0.166859	-1.46282	-20.6576	52.4583
 183	1	6	0.137644	-2.91566	-19.657	54.2141
 184	1	6	0.148636	0.474577	-17.3089	55.6419
 185	1	5	-0.470939	3.00696	-17.7275	54.2933
 186	1	5	-0.47569	1.29279	-20.8102	51.3023
 187	1	6	0.193108	7.39157	-19.9135	50.6112
 188	1	6	0.21486	3.75877	-21.6339	52.1979
 189	1	1	0.473101	-6.26117	-37.2373	56.2584
 190	1	2	0.047723	-5.76239	-36.0814	56.8698
 191	1	3	0.004987	-6.9287	-35.4589	57.5488
 192	1	2	0.062675	-7.64005	-37.377	56.4373
 193	1	3	0.048591	-8.04185	-36.2291	57.2886
 194	1	5	-0.383443	-4.61089	-35.6794	56.9179
 195	1	5	-0.390296	-8.37675	-38.2675	56.0446
 196	1	3	-0.001908	-6.98445	-34.3582	58.4131
 197	1	3	-0.038207	-9.27798	-35.9342	57.8675
 198	1	3	-0.215576	-9.35404	-34.8369	58.7505
 199	1	3	-0.070363	-8.2144	-34.0356	59.0466
 200	1	6	0.160197	-6.07237	-33.8073	58.6293
 201	1	6	0.153305	-10.1413	-36.5673	57.673
 202	1	6	0.179436	-10.3097	-34.6524	59.2299
 203	1	7	-0.074672	-8.23595	-32.914	60.1262
 204	1	7	0.280369	-9.68524	-32.3889	60.4828
 205	1	8	-0.106158	-10.4161	-32.1021	59.3818
 206	1	8	-0.092663	-9.63147	-31.2463	61.2048
 207	1	8	-0.102536	-10.4149	-33.2643	61.2109
 208	1	7	0.310197	-7.59395	-33.5437	61.4248
 209	1	8	-0.10503	-6.28903	-33.8539	61.2504
 210	1	8	-0.101207	-8.19742	-34.7041	61.7698
 211	1	8	-0.097553	-7.672	-32.7298	62.5018
 212	1	3	-0.010565	-7.45361	-31.6864	59.5729
 213	1	3	-0.081209	-6.39948	-31.0507	60.2836
 214	1	3	-0.082072	-5.79645	-29.9142	59.7312
 215	1	3	-0.061713	-7.83795	-31.1412	58.3154
 216	1	3	-0.146525	-7.2404	-29.976	57.7943
 217	1	3	-0.036475	-6.21897	-29.3764	58.5366
 218	1	2	0.474489	-5.39021	-28.1777	58.248
 219	1	1	-0.056758	-4.46093	-28.1012	59.279
 220	1	2	0.480785	-4.65627	-29.1002	60.2281
 221	1	3	0.11186	-3.38822	-27.1641	59.3142
 222	1	3	-0.193084	-2.0859	-27.5908	59.6285
 223	1	3	-0.037687	-1.02249	-26.6808	59.6592
 224	1	3	-0.413926	-3.6018	-25.8085	59.0029
 225	1	3	0.299417	-2.54483	-24.8727	59.016
 226	1	3	-0.384234	-1.25531	-25.3308	59.3639
 227	1	6	0.146041	-1.89289	-28.6351	59.858
 228	1	6	0.136211	-0.0202339	-27.0243	59.9077
 229	1	6	0.166859	-7.55433	-29.5552	56.8412
 230	1	6	0.137644	-8.62621	-31.6164	57.7377
 231	1	6	0.148636	-6.03843	-31.4005	61.2448
 232	1	5	-0.470939	-3.97925	-29.3579	61.2084
 233	1	5	-0.47569	-5.51205	-27.4462	57.2809
 234	1	6	0.193108	-0.417925	-24.6368	59.377
 235	1	6	0.21486	-4.60002	-25.4727	58.73
 236	1	1	0.473101	2.8319	-29.4349	52.1773
 237	1	2	0.047723	3.68706	-30.4398	51.7265
 238	1	3	0.004987	3.05476	-31.7161	52.1649
 239	1	2	0.062675	1.74035	-29.9308	52.8791
 240	1	3	0.048591	1.9111	-31.3975	52.8706
 241	1	5	-0.383443	4.74455	-30.3176	51.134
 242	1	5	-0.390296	0.82268	-29.3139	53.3912
 243	1	3	-0.001908	3.44266	-33.0501	51.9604
 244	1	3	-0.038207	1.11752	-32.3743	53.4639
 245	1	3	-0.215576	1.50243	-33.7138	53.2939
 246	1	3	-0.070363	2.63645	-34.0832	52.5138
 247	1	6	0.160197	4.33941	-33.2579	51.3836
 248	1	6	0.153305	0.234107	-32.1018	54.0373
 249	1	6	0.179436	0.885594	-34.4765	53.7638
 250	1	7	-0.074672	2.9353	-35.6009	52.3295
 251	1	7	0.280369	3.82327	-35.9358	51.0696
 252	1	8	-0.106158	5.11853	-35.5779	51.2117
 253	1	8	-0.092663	3.37367	-35.3246	49.9537
 254	1	8	-0.102536	3.81548	-37.262	50.8048
 255	1	7	0.310197	3.69102	-36.0619	53.6354
 256	1	8	-0.10503	4.79247	-35.312	53.8688
 257	1	8	-0.101207	4.09658	-37.3507	53.5794
 258	1	8	-0.097553	2.92512	-35.9281	54.7426
 259	1	3	-0.010565	1.55305	-36.2932	52.1166
 260	1	3	-0.081209	1.06661	-37.3373	52.9493
 261	1	3	-0.082072	-0.286309	-37.696	52.8626
 262	1	3	-0.061713	0.664875	-35.7345	51.1535
 263	1	3	-0.146525	-0.68934	-36.1105	51.0811
 264	1	3	-0.036475	-1.14627	-37.0795	51.9767
 265	1	2	0.474489	-2.53552	-37.5021	52.2962
 266	1	1	-0.056758	-2.41852	-38.3396	53.395
 267	1	2	0.480785	-1.09816	-38.5605	53.7609
 268	1	3	0.11186	-3.52246	-38.7726	54.1709
 269	1	3	-0.193084	-3.73675	-40.1377	54.4105
 270	1	3	-0.037687	-4.79444	-40.5511	55.2309
 271	1	3	-0.413926	-4.37381	-37.8225	54.7616
 272	1	3	0.299417	-5.43613	-38.2125	55.6038
 273	1	3	-0.384234	-5.63049	-39.5935	55.8264
 274	1	6	0.146041	-3.07185	-40.8785	53.9747
 275	1	6	0.136211	-4.95458	-41.6115	55.4172
 276	1	6	0.166859	-1.37994	-35.5967	50.4153
 277	1	6	0.137644	0.996762	-34.9145	50.5226
 278	1	6	0.148636	1.6726	-37.8034	53.7194
 279	1	5	-0.470939	-0.68059	-39.2076	54.7054
 280	1	5	-0.47569	-3.55619	-37.0573	51.7987
 281	1	6	0.193108	-6.43888	-39.932	56.4702
 282	1	6	0.21486	-4.1916	-36.7652	54.5858
 283	1	1	0.473101	7.95614	-18.4833	61.8013
 284	1	2	0.047723	6.6188	-18.7921	62.0834
 285	1	3	0.004987	6.07073	-19.3729	60.8299
 286	1	2	0.062675	8.30217	-18.8157	60.4853
 287	1	3	0.048591	7.07068	-19.3734	59.8821
 288	1	5	-0.383443	5.9918	-18.621	63.116
 289	1	5	-0.390296	9.37884	-18.7161	59.918
 290	1	3	-0.001908	4.78912	-19.8632	60.5472
 291	1	3	-0.038207	6.84551	-19.8336	58.5848
 292	1	3	-0.215576	5.56163	-20.32	58.2748
 293	1	3	-0.070363	4.52334	-20.3753	59.2481
 294	1	6	0.160197	4.03929	-19.8357	61.3308
 295	1	6	0.153305	7.64009	-19.8077	57.842
 296	1	6	0.179436	5.3793	-20.6614	57.2572
 297	1	7	-0.074672	3.13939	-20.9547	58.8342
 298	1	7	0.280369	2.28271	-21.4808	60.0516
 299	1	8	-0.106158	1.23582	-22.2286	59.6348
 300	1	8	-0.092663	1.76406	-20.4924	60.8139
 301	1	8	-0.102536	3.00634	-22.2705	60.877
 302	1	7	0.310197	2.37081	-19.7838	58.116
 303	1	8	-0.10503	2.96361	-19.4271	56.9546
 304	1	8	-0.101207	2.33701	-18.6653	58.8756
 305	1	8	-0.097553	1.0897	-20.1015	57.8339
 306	1	3	-0.010565	3.40212	-22.1834	57.9138
 307	1	3	-0.081209	2.7773	-22.3651	56.6492
 308	1	3	-0.082072	3.14714	-23.4655	55.8639
 309	1	3	-0.061713	4.34473	-23.1583	58.3466
 310	1	3	-0.146525	4.69391	-24.2623	57.5483
 311	1	3	-0.036475	4.07882	-24.3827	56.3009
 312	1	2	0.474489	4.25364	-25.4107	55.2478
 313	1	1	-0.056758	3.38385	-25.0551	54.2258
 314	1	2	0.480785	2.69825	-23.8779	54.5043
 315	1	3	0.11186	3.24738	-25.8245	53.04
 316	1	3	-0.193084	3.2766	-25.2387	51.7637
 317	1	3	-0.037687	3.21202	-26.0395	50.6127
 318	1	3	-0.413926	3.11595	-27.2159	53.146
 319	1	3	0.299417	3.04228	-28.0363	52.0079
 320	1	3	-0.384234	3.10351	-27.4343	50.7355
 321	1	6	0.146041	3.34797	-24.1598	51.6631
 322	1	6	0.136211	3.23532	-25.5789	49.6264
 323	1	6	0.166859	5.43011	-24.9916	57.8794
 324	1	6	0.137644	4.83897	-23.0445	59.3077
 325	1	6	0.148636	2.03434	-21.6801	56.2557
 326	1	5	-0.470939	1.91849	-23.2692	53.7902
 327	1	5	-0.47569	5.01895	-26.3612	55.2952
 328	1	6	0.193108	3.04166	-28.0396	49.8331
 329	1	6	0.21486	3.05695	-27.6711	54.132
 330	1	1	0.473101	15.0277	-11.576	53.2613
 331	1	2	0.047723	16.0875	-11.5352	54.1743
 332	1	3	0.004987	15.681	-12.4324	55.2941
 333	1	2	0.062675	13.9862	-12.3977	53.698
 334	1	3	0.048591	14.4342	-12.9425	54.9976
 335	1	5	-0.383443	17.1382	-10.9214	54.0905
 336	1	5	-0.390296	12.9138	-12.6305	53.1633
 337	1	3	-0.001908	16.3512	-12.7814	56.4775
 338	1	3	-0.038207	13.7877	-13.8399	55.8456
 339	1	3	-0.215576	14.4431	-14.2051	57.0347
 340	1	3	-0.070363	15.7166	-13.674	57.3872
 341	1	6	0.160197	17.3337	-12.3597	56.6628
 342	1	6	0.153305	12.8111	-14.2425	55.5845
 343	1	6	0.179436	13.9438	-14.9154	57.6912
 344	1	7	-0.074672	16.3535	-14.1281	58.7348
 345	1	7	0.280369	17.4807	-13.1618	59.2699
 346	1	8	-0.106158	17.8093	-13.4512	60.5495
 347	1	8	-0.092663	17.0886	-11.8683	59.2622
 348	1	8	-0.102536	18.6256	-13.2223	58.5538
 349	1	7	0.310197	16.9762	-15.5544	58.4702
 350	1	8	-0.10503	16.0323	-16.4753	58.1689
 351	1	8	-0.101207	17.6759	-16.0289	59.5256
 352	1	8	-0.097553	17.8219	-15.5424	57.4144
 353	1	3	-0.010565	15.2136	-14.1241	59.8004
 354	1	3	-0.081209	14.8954	-15.2481	60.6102
 355	1	3	-0.082072	13.7573	-15.1942	61.4275
 356	1	3	-0.061713	14.3889	-12.9674	59.9064
 357	1	3	-0.146525	13.2528	-12.9321	60.7383
 358	1	3	-0.036475	12.9507	-14.0761	61.4808
 359	1	2	0.474489	11.7499	-14.3989	62.2978
 360	1	1	-0.056758	11.9032	-15.727	62.6595
 361	1	2	0.480785	13.1025	-16.2681	62.2216
 362	1	3	0.11186	10.8546	-16.5155	63.1863
 363	1	3	-0.193084	10.7972	-16.8477	64.5463
 364	1	3	-0.037687	9.7817	-17.6928	65.0161
 365	1	3	-0.413926	9.88973	-17.0218	62.3051
 366	1	3	0.299417	8.87958	-17.9051	62.7413
 367	1	3	-0.384234	8.84213	-18.2262	64.1174
 368	1	6	0.146041	11.5432	-16.4616	65.235
 369	1	6	0.136211	9.73574	-17.9503	66.0727
 370	1	6	0.166859	12.597	-12.0639	60.7648
 371	1	6	0.137644	14.5952	-12.098	59.2881
 372	1	6	0.148636	15.4612	-16.1738	60.5791
 373	1	5	-0.470939	13.4892	-17.4181	62.3315
 374	1	5	-0.47569	10.774	-13.6866	62.4565
 375	1	6	0.193108	8.07672	-18.897	64.4996
 376	1	6	0.21486	9.95485	-16.7513	61.2551
 377	1	1	0.473101	12.8913	-2.57937	43.1757
 378	1	2	0.047723	14.1679	-2.13792	43.5394
 379	1	3	0.004987	14.1687	-2.11717	45.0256
 380	1	2	0.062675	12.0707	-2.79936	44.2837
 381	1	3	0.048591	12.9217	-2.51271	45.461
 382	1	5	-0.383443	15.1189	-1.87669	42.8211
 383	1	5	-0.390296	10.911	-3.17644	44.3186
 384	1	3	-0.001908	15.2032	-1.82174	45.9234
 385	1	3	-0.038207	12.6293	-2.63556	46.8186
 386	1	3	-0.215576	13.6577	-2.3559	47.7384
 387	1	3	-0.070363	14.9587	-1.95737	47.3175
 388	1	6	0.160197	16.1647	-1.51889	45.5218
 389	1	6	0.153305	11.6416	-2.95576	47.1438
 390	1	6	0.179436	13.4359	-2.4637	48.7979
 391	1	7	-0.074672	16.0393	-1.6936	48.4072
 392	1	7	0.280369	17.5166	-1.64279	47.8495
 393	1	8	-0.106158	17.8111	-2.70512	47.0672
 394	1	8	-0.092663	18.422	-1.65598	48.8539
 395	1	8	-0.102536	17.7711	-0.539031	47.1116
 396	1	7	0.310197	15.6881	-0.297094	49.0551
 397	1	8	-0.10503	14.507	-0.315401	49.7141
 398	1	8	-0.101207	15.5655	0.67	48.1173
 399	1	8	-0.097553	16.6238	0.127399	49.934
 400	1	3	-0.010565	15.9714	-2.89158	49.4018
 401	1	3	-0.081209	16.0241	-4.20595	48.8713
 402	1	3	-0.082072	15.8685	-5.29956	49.7288
 403	1	3	-0.061713	15.8021	-2.74556	50.8098
 404	1	3	-0.146525	15.6098	-3.8641	51.6504
 405	1	3	-0.036475	15.6293	-5.1387	51.0723
 406	1	2	0.474489	15.3594	-6.48163	51.658
 407	1	1	-0.056758	15.47	-7.39242	50.6058
 408	1	2	0.480785	15.8225	-6.74836	49.4187
 409	1	3	0.11186	15.1649	-8.79147	50.7006
 410	1	3	-0.193084	14.6056	-9.4692	49.5981
 411	1	3	-0.037687	14.2892	-10.829	49.6657
 412	1	3	-0.413926	15.3529	-9.5149	51.8998
 413	1	3	0.299417	14.9806	-10.8742	52.0102
 414	1	3	-0.384234	14.4789	-11.5238	50.8634
 415	1	6	0.146041	14.4032	-8.95004	48.6668
 416	1	6	0.136211	13.8684	-11.3341	48.7982
 417	1	6	0.166859	15.4302	-3.74449	52.7172
 418	1	6	0.137644	15.7794	-1.76572	51.2735
 419	1	6	0.148636	16.1384	-4.38365	47.8046
 420	1	5	-0.470939	16.0387	-7.22676	48.3184
 421	1	5	-0.47569	15.0022	-6.68442	52.8061
 422	1	6	0.193108	14.1839	-12.5693	50.9121
 423	1	6	0.21486	15.7626	-9.01644	52.775
 424	1	1	0.473101	2.9242	-4.24007	39.3896
 425	1	2	0.047723	4.0104	-4.86242	38.7644
 426	1	3	0.004987	4.05077	-6.23349	39.3193
 427	1	2	0.062675	2.25302	-5.10291	40.2641
 428	1	3	0.048591	3.01926	-6.37654	40.2196
 429	1	5	-0.383443	4.83296	-4.39026	37.996
 430	1	5	-0.390296	1.26905	-4.88417	40.9529
 431	1	3	-0.001908	4.97956	-7.25017	39.0915
 432	1	3	-0.038207	2.86144	-7.5592	40.9478
 433	1	3	-0.215576	3.80994	-8.58947	40.7594
 434	1	3	-0.070363	4.9005	-8.44486	39.8539
 435	1	6	0.160197	5.77164	-7.08148	38.3662
 436	1	6	0.153305	2.04421	-7.66183	41.6584
 437	1	6	0.179436	3.68505	-9.4971	41.3409
 438	1	7	-0.074672	5.99189	-9.54122	39.6599
 439	1	7	0.280369	6.19613	-10.4575	40.9273
 440	1	8	-0.106158	7.33726	-11.178	40.8346
 441	1	8	-0.092663	5.19877	-11.3501	41.1182
 442	1	8	-0.102536	6.29666	-9.72914	42.062
 443	1	7	0.310197	5.51663	-10.4198	38.4415
 444	1	8	-0.10503	6.27364	-11.5251	38.2562
 445	1	8	-0.101207	5.53267	-9.71542	37.2868
 446	1	8	-0.097553	4.24315	-10.8482	38.5976
 447	1	3	-0.010565	7.35585	-8.82173	39.4199
 448	1	3	-0.081209	7.71222	-7.74247	40.2708
 449	1	3	-0.082072	8.87513	-7.0132	40.0008
 450	1	3	-0.061713	8.25263	-9.16783	38.3668
 451	1	3	-0.146525	9.43004	-8.42893	38.124
 452	1	3	-0.036475	9.70761	-7.33755	38.9529
 453	1	2	0.474489	10.8062	-6.33429	38.9027
 454	1	1	-0.056758	10.5459	-5.44322	39.9366
 455	1	2	0.480785	9.40858	-5.79161	40.6549
 456	1	3	0.11186	11.3273	-4.28699	40.2087
 457	1	3	-0.193084	11.6724	-3.39626	39.1787
 458	1	3	-0.037687	12.4195	-2.24308	39.4558
 459	1	3	-0.413926	11.7448	-4.00836	41.5203
 460	1	3	0.299417	12.4856	-2.84693	41.8275
 461	1	3	-0.384234	12.8181	-1.96996	40.7733
 462	1	6	0.146041	11.3629	-3.59833	38.1568
 463	1	6	0.136211	12.6879	-1.56344	38.6492
 464	1	6	0.166859	10.0945	-8.67841	37.299
 465	1	6	0.137644	8.04478	-9.99824	37.7019
 466	1	6	0.148636	7.07197	-7.43447	41.095
 467	1	5	-0.470939	8.90532	-5.2159	41.6033
 468	1	5	-0.47569	11.7132	-6.30283	38.0885
 469	1	6	0.193108	13.4039	-1.07591	40.975
 470	1	6	0.21486	11.4599	-4.68811	42.3201
 471	1	1	0.473101	5.47614	5.12626	26.8764
 472	1	2	0.047723	5.83692	3.79168	27.0729
 473	1	3	0.004987	4.931	3.29163	28.1339
 474	1	2	0.062675	4.42334	5.52063	27.706
 475	1	3	0.048591	4.09353	4.31807	28.5134
 476	1	5	-0.383443	6.71264	3.14653	26.5215
 477	1	5	-0.390296	3.88933	6.61437	27.7954
 478	1	3	-0.001908	4.86018	2.02286	28.7162
 479	1	3	-0.038207	3.13327	4.13357	29.5106
 480	1	3	-0.215576	3.04688	2.86215	30.1165
 481	1	3	-0.070363	3.9041	1.78882	29.7408
 482	1	6	0.160197	5.54215	1.26069	28.3558
 483	1	6	0.153305	2.47514	4.94995	29.8005
 484	1	6	0.179436	2.29481	2.70916	30.8879
 485	1	7	-0.074672	3.72272	0.401018	30.4272
 486	1	7	0.280369	2.40604	-0.217989	29.8143
 487	1	8	-0.106158	2.24943	-1.53457	30.078
 488	1	8	-0.092663	2.38635	-0.0999023	28.4665
 489	1	8	-0.102536	1.29812	0.409185	30.2699
 490	1	7	0.310197	4.92901	-0.585295	30.1832
 491	1	8	-0.10503	6.11113	-0.00947652	30.5007
 492	1	8	-0.101207	5.01415	-1.01347	28.9033
 493	1	8	-0.097553	4.83899	-1.69482	30.9519
 494	1	3	-0.010565	3.65079	0.605951	31.9686
 495	1	3	-0.081209	2.85661	-0.223753	32.803
 496	1	3	-0.082072	2.91654	-0.0479705	34.1911
 497	1	3	-0.061713	4.48761	1.5776	32.5892
 498	1	3	-0.146525	4.5224	1.7468	33.989
 499	1	3	-0.036475	3.7196	0.910605	34.771
 500	1	2	0.474489	3.61576	0.774857	36.2502
 501	1	1	-0.056758	2.76604	-0.302347	36.4655
 502	1	2	0.480785	2.28159	-0.83607	35.2786
 503	1	3	0.11186	2.52448	-0.876625	37.7419
 504	1	3	-0.193084	2.12291	-0.0883091	38.8317
 505	1	3	-0.037687	1.94629	-0.667896	40.0961
 506	1	3	-0.413926	2.74493	-2.24978	37.9343
 507	1	3	0.299417	2.59874	-2.85463	39.1999
 508	1	3	-0.384234	2.19171	-2.03852	40.278
 509	1	6	0.146041	1.96425	0.979145	38.7039
 510	1	6	0.136211	1.63908	-0.0499437	40.9379
 511	1	6	0.166859	5.18252	2.47504	34.4562
 512	1	6	0.137644	5.14384	2.19599	31.9819
 513	1	6	0.148636	2.23479	-1.02123	32.4098
 514	1	5	-0.470939	1.5472	-1.79753	35.1294
 515	1	5	-0.47569	4.20885	1.44671	37.0768
 516	1	6	0.193108	2.06978	-2.46743	41.2701
 517	1	6	0.21486	3.06632	-2.85328	37.0889
 518	1	1	0.473101	17.3002	10.0301	20.7305
 519	1	2	0.047723	16.2167	9.1735	20.9308
 520	1	3	0.004987	16.6519	8.23801	21.9906
 521	1	2	0.062675	18.3996	9.69922	21.5269
 522	1	3	0.048591	17.9477	8.54242	22.3461
 523	1	5	-0.383443	15.1027	9.21777	20.4351
 524	1	5	-0.390296	19.4779	10.2648	21.6089
 525	1	3	-0.001908	15.9166	7.2527	22.6499
 526	1	3	-0.038207	18.5919	7.84677	23.3736
 527	1	3	-0.215576	17.8652	6.84758	24.0598
 528	1	3	-0.070363	16.5088	6.55599	23.7336
 529	1	6	0.160197	14.887	7.07398	22.3491
 530	1	6	0.153305	19.6153	8.09485	23.6479
 531	1	6	0.179436	18.3735	6.32291	24.8625
 532	1	7	-0.074672	15.634	5.53228	24.5158
 533	1	7	0.280369	15.5554	4.23759	23.6178
 534	1	8	-0.106158	14.8466	4.45162	22.486
 535	1	8	-0.092663	14.9912	3.18274	24.248
 536	1	8	-0.102536	16.784	3.8359	23.2195
 537	1	7	0.310197	16.2065	5.15219	25.935
 538	1	8	-0.10503	17.3179	4.38438	25.874
 539	1	8	-0.101207	15.3012	4.46283	26.6665
 540	1	8	-0.097553	16.5187	6.24774	26.664
 541	1	3	-0.010565	14.2513	6.2058	24.7676
 542	1	3	-0.081209	13.0157	5.53392	24.5701
 543	1	3	-0.082072	11.8221	6.23842	24.7759
 544	1	3	-0.061713	14.2164	7.55867	25.2144
 545	1	3	-0.146525	13.0042	8.24899	25.4134
 546	1	3	-0.036475	11.8132	7.55876	25.1744
 547	1	2	0.474489	10.3986	8.00389	25.291
 548	1	1	-0.056758	9.63444	6.89575	24.9603
 549	1	2	0.480785	10.4109	5.79358	24.6329
 550	1	3	0.11186	8.21809	6.88262	24.9981
 551	1	3	-0.193084	7.47274	7.74247	24.1767
 552	1	3	-0.037687	6.07215	7.73748	24.2334
 553	1	3	-0.413926	7.55059	6.02096	25.8815
 554	1	3	0.299417	6.14245	6.00036	25.9586
 555	1	3	-0.384234	5.41393	6.87092	25.1202
 556	1	6	0.146041	7.98072	8.42285	23.4987
 557	1	6	0.136211	5.50049	8.41133	23.5978
 558	1	6	0.166859	12.988	9.28749	25.7392
 559	1	6	0.137644	15.1456	8.0935	25.395
 560	1	6	0.148636	12.9555	4.49689	24.2557
 561	1	5	-0.470939	10.0379	4.6798	24.3109
 562	1	5	-0.47569	10.0128	9.11007	25.6274
 563	1	6	0.193108	4.32765	6.88796	25.1688
 564	1	6	0.21486	8.13289	5.34527	26.5034
 565	1	1	0.473101	12.7946	20.8971	17.8484
 566	1	2	0.047723	13.3144	20.3196	19.0102
 567	1	3	0.004987	14.6786	20.8825	19.1522
 568	1	2	0.062675	13.6923	21.7865	17.2508
 569	1	3	0.048591	14.907	21.75	18.1068
 570	1	5	-0.383443	12.7932	19.5166	19.7668
 571	1	5	-0.390296	13.5482	22.4505	16.237
 572	1	3	-0.001908	15.6475	20.6353	20.128
 573	1	3	-0.038207	16.1269	22.4205	17.9805
 574	1	3	-0.215576	17.1242	22.1807	18.9518
 575	1	3	-0.070363	16.9102	21.278	20.0327
 576	1	6	0.160197	15.4142	19.9497	20.9389
 577	1	6	0.153305	16.2938	23.1058	17.152
 578	1	6	0.179436	18.0629	22.7151	18.8462
 579	1	7	-0.074672	17.9771	20.9939	21.1316
 580	1	7	0.280369	17.5638	21.8686	22.3783
 581	1	8	-0.106158	17.3921	23.1673	22.042
 582	1	8	-0.092663	16.3859	21.4693	22.9103
 583	1	8	-0.102536	18.4814	21.8438	23.3712
 584	1	7	0.310197	19.4541	21.3579	20.7094
 585	1	8	-0.10503	19.6846	22.6888	20.6479
 586	1	8	-0.101207	19.7794	20.8492	19.4998
 587	1	8	-0.097553	20.3537	20.8532	21.5845
 588	1	3	-0.010565	17.9577	19.4596	21.4013
 589	1	3	-0.081209	18.023	18.5778	20.2907
 590	1	3	-0.082072	17.9092	17.1991	20.5026
 591	1	3	-0.061713	17.8334	18.8918	22.7026
 592	1	3	-0.146525	17.6983	17.5004	22.8898
 593	1	3	-0.036475	17.7206	16.6763	21.76
 594	1	2	0.474489	17.5033	15.2115	21.6272
 595	1	1	-0.056758	17.5861	14.9302	20.2621
 596	1	2	0.480785	17.8676	16.0813	19.5258
 597	1	3	0.11186	17.3214	13.6444	19.6852
 598	1	3	-0.193084	16.7105	13.5309	18.4197
 599	1	3	-0.037687	16.3965	12.2792	17.8755
 600	1	3	-0.413926	17.5866	12.4588	20.4002
 601	1	3	0.299417	17.2152	11.1927	19.9018
 602	1	3	-0.384234	16.6397	11.1175	18.6181
 603	1	6	0.146041	16.4573	14.4149	17.843
 604	1	6	0.136211	15.9246	12.216	16.8966
 605	1	6	0.166859	17.5555	17.0745	23.8812
 606	1	6	0.137644	17.8049	19.5161	23.5885
 607	1	6	0.148636	18.115	18.9527	19.2737
 608	1	5	-0.470939	18.0258	16.2013	18.3232
 609	1	5	-0.47569	17.2146	14.4639	22.5471
 610	1	6	0.193108	16.328	10.1556	18.2171
 611	1	6	0.21486	18.0433	12.5111	21.3852
 612	1	1	0.473101	7.67875	24.4986	6.61641
 613	1	2	0.047723	7.73258	25.6481	7.40157
 614	1	3	0.004987	6.96319	25.3178	8.62531
 615	1	2	0.062675	6.94188	23.4732	7.20501
 616	1	3	0.048591	6.50035	24.0226	8.51407
 617	1	5	-0.383443	8.29609	26.7036	7.16523
 618	1	5	-0.390296	6.71497	22.3572	6.76779
 619	1	3	-0.001908	6.71505	26.1008	9.75695
 620	1	3	-0.038207	5.76492	23.4306	9.54329
 621	1	3	-0.215576	5.51103	24.1994	10.6991
 622	1	3	-0.070363	5.98258	25.537	10.8355
 623	1	6	0.160197	7.10503	27.1128	9.77153
 624	1	6	0.153305	5.41158	22.4058	9.45166
 625	1	6	0.179436	4.94479	23.7398	11.5066
 626	1	7	-0.074672	5.66896	26.3192	12.1481
 627	1	7	0.280369	6.51861	27.6363	12.3205
 628	1	8	-0.106158	6.1786	28.603	11.4382
 629	1	8	-0.092663	7.84244	27.4	12.1748
 630	1	8	-0.102536	6.37193	28.1706	13.5545
 631	1	7	0.310197	4.13538	26.6894	12.0861
 632	1	8	-0.10503	3.34758	25.6037	12.258
 633	1	8	-0.101207	3.80335	27.2132	10.8837
 634	1	8	-0.097553	3.75773	27.5987	13.0129
 635	1	3	-0.010565	6.04392	25.4108	13.3542
 636	1	3	-0.081209	7.22115	24.6216	13.2793
 637	1	3	-0.082072	7.56642	23.8055	14.3616
 638	1	3	-0.061713	5.28408	25.3733	14.5589
 639	1	3	-0.146525	5.65278	24.5462	15.6408
 640	1	3	-0.036475	6.80329	23.7621	15.5089
 641	1	2	0.474489	7.42692	22.7873	16.4448
 642	1	1	-0.056758	8.5424	22.3006	15.7809
 643	1	2	0.480785	8.7038	22.8632	14.5245
 644	1	3	0.11186	9.38152	21.2849	16.2974
 645	1	3	-0.193084	8.94721	19.9515	16.2797
 646	1	3	-0.037687	9.77379	18.9329	16.7692
 647	1	3	-0.413926	10.649	21.5979	16.817
 648	1	3	0.299417	11.4985	20.5872	17.319
 649	1	3	-0.384234	11.0404	19.252	17.2806
 650	1	6	0.146041	7.96652	19.7035	15.8834
 651	1	6	0.136211	9.43162	17.8997	16.7531
 652	1	6	0.166859	5.06349	24.5142	16.5556