pySIMM System Object

2023 atoms
2237 bonds
3870 angles
6102 dihedrals
688 impropers

8 atom types
10 bond types
16 angle types
7 dihedral types
4 improper types

-208.055402 208.055402 xlo xhi
-208.055402 208.055402 ylo yhi
-208.055402 208.055402 zlo zhi

Masses

   1	14.01	# n
   2	12.01	# c
   3	12.01	# ca
   4	1.008	# hn
   5	16.0	# o
   6	1.008	# ha
   7	12.01	# c3
   8	19.0	# f

Pair Coeffs

   1	0.17	3.249998523775958	# n
   2	0.086	3.3996695084235347	# c
   3	0.086	3.3996695084235347	# ca
   4	0.0157	1.069078461768407	# hn
   5	0.21	2.959921901149463	# o
   6	0.015	2.59964245953351	# ha
   7	0.1094	3.3996695084235347	# c3
   8	0.061	3.1181455134911875	# f

Bond Coeffs

   1	345.8	1.086	# ca,ha
   2	384.2	1.4121	# ca,n
   3	637.7	1.2183	# c,o
   4	321.0	1.5156	# c3,ca
   5	403.2	1.0129	# hn,n
   6	356.9	1.3497	# c3,f
   7	427.6	1.3789	# c,n
   8	461.1	1.3984	# ca,ca
   9	345.9	1.4906	# c,ca
  10	300.9	1.5375	# c3,c3

Angle Coeffs

   1	66.11	109.24	# c3,c3,f
   2	66.62	120.02	# ca,ca,ca
   3	63.53	120.77	# c3,ca,ca
   4	62.86	111.51	# c3,c3,c3
   5	63.74	127.08	# c,n,c
   6	63.15	112.07	# c3,c3,ca
   7	48.18	119.88	# ca,ca,ha
   8	70.89	107.36	# f,c3,f
   9	68.72	122.6	# ca,c,o
  10	63.82	123.71	# c,n,ca
  11	67.87	120.19	# ca,ca,n
  12	67.68	115.25	# ca,c,n
  13	63.56	112.24	# ca,c3,ca
  14	64.28	120.33	# c,ca,ca
  15	48.33	117.55	# c,n,hn
  16	74.22	123.05	# n,c,o

Dihedral Coeffs

   1	1	3.625	2	180	# X,ca,ca,X
   2	1	1.0	2	180	# X,c,ca,X
   3	1	0.15555555555555556	3	0	# X,c3,c3,X
   4	1	0.0	2	0	# X,c3,ca,X
   5	1	2.5	2	180	# X,c,n,X
   6	1	0.45	2	180	# X,ca,n,X
   7	2	2.5	2	180	2.0	1	0	# hn,n,c,o

Improper Coeffs

   1	1.1	-1	2	# ca,ca,ca,c3
   2	1.1	-1	2	# n,X,X,hn
   3	1.1	-1	2	# ca,X,X,ha
   4	10.5	-1	2	# c,X,X,o

Atoms

   1	1	1	0.473101	75.374	3.68051	31.56
   2	1	2	0.047723	76.0136	3.99736	32.7608
   3	1	3	0.004987	77.2269	4.75375	32.3699
   4	1	2	0.062675	76.0601	4.17508	30.4461
   5	1	3	0.048591	77.2505	4.87137	30.9981
   6	1	5	-0.383443	75.6711	3.74156	33.9035
   7	1	5	-0.390296	75.8011	4.02541	29.2625
   8	1	3	-0.001908	78.2563	5.25746	33.1677
   9	1	3	-0.038207	78.2925	5.53965	30.3492
  10	1	3	-0.215576	79.3403	6.0656	31.1366
  11	1	3	-0.070363	79.3583	5.90865	32.5522
  12	1	6	0.160197	78.2138	5.09682	34.2422
  13	1	6	0.153305	78.297	5.6302	29.2652
  14	1	6	0.179436	80.1489	6.57088	30.6177
  15	1	7	-0.074672	80.556	6.34194	33.4506
  16	1	7	0.280369	81.8659	6.71619	32.6532
  17	1	8	-0.106158	82.2234	5.75517	31.7716
  18	1	8	-0.092663	82.9245	6.86465	33.482
  19	1	8	-0.102536	81.751	7.86989	31.9574
  20	1	7	0.310197	80.0798	7.59665	34.2819
  21	1	8	-0.10503	79.5555	8.54971	33.4783
  22	1	8	-0.101207	81.0755	8.18552	34.9825
  23	1	8	-0.097553	79.1102	7.28267	35.1705
  24	1	3	-0.010565	80.9087	5.09926	34.3168
  25	1	3	-0.081209	80.9797	3.83832	33.671
  26	1	3	-0.082072	81.2132	2.69214	34.432
  27	1	3	-0.061713	81.1396	5.15001	35.7218
  28	1	3	-0.146525	81.378	3.97677	36.4718
  29	1	3	-0.036475	81.3936	2.75112	35.7949
  30	1	2	0.474489	81.5855	1.36127	36.2927
  31	1	1	-0.056758	81.5121	0.544042	35.1681
  32	1	2	0.480785	81.2953	1.27424	34.0062
  33	1	3	0.11186	81.6589	-0.87114	35.1881
  34	1	3	-0.193084	80.8165	-1.68856	34.4097
  35	1	3	-0.037687	80.9862	-3.08002	34.3932
  36	1	3	-0.413926	82.663	-1.47526	35.9665
  37	1	3	0.299417	82.8207	-2.86743	35.9728
  38	1	3	-0.384234	81.9901	-3.66585	35.1775
  39	1	6	0.146041	80.032	-1.24784	33.7993
  40	1	6	0.136211	80.3365	-3.69959	33.7803
  41	1	6	0.166859	81.5365	4.01502	37.548
  42	1	6	0.137644	81.124	6.09326	36.2567
  43	1	6	0.148636	80.8288	3.73653	32.5983
  44	1	5	-0.470939	81.2158	0.873942	32.8578
  45	1	5	-0.47569	81.7667	1.04018	37.4552
  46	1	6	0.193108	82.1086	-4.74423	35.1929
  47	1	6	0.21486	83.3199	-0.872416	36.5848
  48	1	1	0.473101	67.8831	-9.41161	36.2518
  49	1	2	0.047723	68.8498	-8.9775	37.16
  50	1	3	0.004987	69.5166	-7.8274	36.4959
  51	1	2	0.062675	67.8232	-8.61168	35.1101
  52	1	3	0.048591	68.9042	-7.61832	35.2776
  53	1	5	-0.383443	69.1817	-9.48877	38.216
  54	1	5	-0.390296	67.1219	-8.73907	34.1205
  55	1	3	-0.001908	70.6401	-7.08977	36.8878
  56	1	3	-0.038207	69.382	-6.67523	34.3697
  57	1	3	-0.215576	70.5076	-5.92093	34.745
  58	1	3	-0.070363	71.1443	-6.09689	36.0069
  59	1	6	0.160197	71.1093	-7.31825	37.8384
  60	1	6	0.153305	68.9188	-6.56079	33.3917
  61	1	6	0.179436	70.907	-5.21433	34.0204
  62	1	7	-0.074672	72.407	-5.25217	36.3276
  63	1	7	0.280369	72.703	-5.10772	37.8736
  64	1	8	-0.106158	71.5965	-4.78972	38.582
  65	1	8	-0.092663	73.6021	-4.1281	38.113
  66	1	8	-0.102536	73.2042	-6.22842	38.4398
  67	1	7	0.310197	73.6201	-5.98956	35.6373
  68	1	8	-0.10503	73.7152	-7.28032	36.0318
  69	1	8	-0.101207	74.8095	-5.41266	35.9181
  70	1	8	-0.097553	73.4961	-6.02939	34.2911
  71	1	3	-0.010565	72.1355	-3.81837	35.78
  72	1	3	-0.081209	72.9781	-3.17172	34.8381
  73	1	3	-0.082072	72.6139	-1.90805	34.3567
  74	1	3	-0.061713	70.9489	-3.14473	36.1897
  75	1	3	-0.146525	70.6012	-1.87241	35.6949
  76	1	3	-0.036475	71.4604	-1.27619	34.7687
  77	1	2	0.474489	71.3453	0.0120267	34.0357
  78	1	1	-0.056758	72.4577	0.0691652	33.2081
  79	1	2	0.480785	73.28	-1.0389	33.3525
  80	1	3	0.11186	72.7026	1.12786	32.295
  81	1	3	-0.193084	71.715	1.50967	31.373
  82	1	3	-0.037687	71.9332	2.58568	30.5041
  83	1	3	-0.413926	73.9193	1.82886	32.3292
  84	1	3	0.299417	74.153	2.93302	31.4808
  85	1	3	-0.384234	73.1418	3.29411	30.564
  86	1	6	0.146041	70.7641	0.984253	31.3433
  87	1	6	0.136211	71.1596	2.87745	29.796
  88	1	6	0.166859	69.6848	-1.37384	36.0051
  89	1	6	0.137644	70.2646	-3.62674	36.8817
  90	1	6	0.148636	73.8995	-3.61354	34.4727
  91	1	5	-0.470939	74.2924	-1.30475	32.7295
  92	1	5	-0.47569	70.4164	0.798368	34.1053
  93	1	6	0.193108	73.2901	4.1349	29.8901
  94	1	6	0.21486	74.6816	1.52968	33.0461
  95	1	1	0.473101	68.7694	-10.0751	25.6075
  96	1	2	0.047723	67.6965	-10.9707	25.6079
  97	1	3	0.004987	68.0807	-12.0462	26.5579
  98	1	2	0.062675	69.8054	-10.4896	26.446
  99	1	3	0.048591	69.3202	-11.7422	27.08
 100	1	5	-0.383443	66.6392	-10.8971	25.0042
 101	1	5	-0.390296	70.9069	-9.98451	26.5905
 102	1	3	-0.001908	67.387	-13.2058	26.9253
 103	1	3	-0.038207	69.9121	-12.5527	28.0512
 104	1	3	-0.215576	69.2149	-13.7082	28.4603
 105	1	3	-0.070363	67.9606	-14.0741	27.8937
 106	1	6	0.160197	66.4323	-13.4016	26.4497
 107	1	6	0.153305	70.8788	-12.2938	28.4773
 108	1	6	0.179436	69.6709	-14.3343	29.2243
 109	1	7	-0.074672	67.2979	-15.4128	28.3438
 110	1	7	0.280369	65.8055	-15.5838	27.8578
 111	1	8	-0.106158	65.0345	-14.522	28.1844
 112	1	8	-0.092663	65.2142	-16.6567	28.4313
 113	1	8	-0.102536	65.7021	-15.7507	26.5199
 114	1	7	0.310197	68.1728	-16.575	27.7262
 115	1	8	-0.10503	69.3999	-16.6525	28.2894
 116	1	8	-0.101207	68.3813	-16.3863	26.4029
 117	1	8	-0.097553	67.6098	-17.7976	27.8556
 118	1	3	-0.010565	67.2526	-15.416	29.8982
 119	1	3	-0.081209	66.7864	-14.2503	30.5546
 120	1	3	-0.082072	66.7297	-14.2289	31.9503
 121	1	3	-0.061713	67.6333	-16.5323	30.6993
 122	1	3	-0.146525	67.5955	-16.4775	32.1102
 123	1	3	-0.036475	67.1394	-15.3	32.7134
 124	1	2	0.474489	67.0528	-14.9052	34.1479
 125	1	1	-0.056758	66.583	-13.5989	34.1482
 126	1	2	0.480785	66.3446	-13.1264	32.8622
 127	1	3	0.11186	66.5385	-12.774	35.3044
 128	1	3	-0.193084	65.9254	-13.1814	36.4998
 129	1	3	-0.037687	65.9391	-12.3388	37.6246
 130	1	3	-0.413926	67.1633	-11.5235	35.2594
 131	1	3	0.299417	67.1893	-10.6572	36.3647
 132	1	3	-0.384234	66.573	-11.0848	37.5585
 133	1	6	0.146041	65.4511	-14.1575	36.5625
 134	1	6	0.136211	65.4695	-12.6672	38.5503
 135	1	6	0.166859	67.9211	-17.3192	32.7185
 136	1	6	0.137644	67.9796	-17.4539	30.2455
 137	1	6	0.148636	66.4849	-13.3663	29.9978
 138	1	5	-0.470939	65.9824	-12.0134	32.5186
 139	1	5	-0.47569	67.4242	-15.5648	35.1043
 140	1	6	0.193108	66.5923	-10.4464	38.4385
 141	1	6	0.21486	67.6191	-11.2102	34.3286
 142	1	1	0.473101	76.6828	-2.54104	31.3887
 143	1	2	0.047723	75.8906	-3.03918	30.3485
 144	1	3	0.004987	75.5381	-1.85927	29.5277
 145	1	2	0.062675	76.8985	-1.1622	31.2852
 146	1	3	0.048591	76.1243	-0.744165	30.0847
 147	1	5	-0.383443	75.5101	-4.18247	30.1467
 148	1	5	-0.390296	77.5448	-0.429613	32.0198
 149	1	3	-0.001908	74.7434	-1.78449	28.3815
 150	1	3	-0.038207	75.9353	0.518422	29.519
 151	1	3	-0.215576	75.0987	0.626481	28.3865
 152	1	3	-0.070363	74.4742	-0.515283	27.805
 153	1	6	0.160197	74.3395	-2.70508	27.9695
 154	1	6	0.153305	76.4247	1.38767	29.9462
 155	1	6	0.179436	74.9637	1.61619	27.9601
 156	1	7	-0.074672	73.5841	-0.418741	26.5285
 157	1	7	0.280369	72.7424	0.915502	26.461
 158	1	8	-0.106158	72.1362	1.18729	27.6374
 159	1	8	-0.092663	71.7598	0.829693	25.5349
 160	1	8	-0.102536	73.4676	2.00893	26.1363
 161	1	7	0.310197	74.5712	-0.474681	25.3014
 162	1	8	-0.10503	75.1942	-1.67071	25.2252
 163	1	8	-0.101207	75.5586	0.44515	25.3936
 164	1	8	-0.097553	73.9537	-0.256416	24.1182
 165	1	3	-0.010565	72.5458	-1.58821	26.5459
 166	1	3	-0.081209	72.3405	-2.4689	25.4477
 167	1	3	-0.082072	71.4045	-3.5058	25.5693
 168	1	3	-0.061713	71.7592	-1.79085	27.7171
 169	1	3	-0.146525	70.8254	-2.84283	27.8197
 170	1	3	-0.036475	70.6717	-3.69403	26.7217
 171	1	2	0.474489	69.791	-4.87972	26.5291
 172	1	1	-0.056758	70.0611	-5.34045	25.2468
 173	1	2	0.480785	71.0132	-4.56471	24.5999
 174	1	3	0.11186	69.4533	-6.48959	24.6699
 175	1	3	-0.193084	68.9326	-6.4539	23.3656
 176	1	3	-0.037687	68.3567	-7.59905	22.7991
 177	1	3	-0.413926	69.3853	-7.68772	25.3988
 178	1	3	0.299417	68.8141	-8.8572	24.85
 179	1	3	-0.384234	68.304	-8.79187	23.5361
 180	1	6	0.146041	68.979	-5.53697	22.7837
 181	1	6	0.136211	67.9536	-7.56056	21.7889
 182	1	6	0.166859	70.2436	-3.00048	28.7256
 183	1	6	0.137644	71.8911	-1.1355	28.5747
 184	1	6	0.148636	72.8854	-2.38292	24.5136
 185	1	5	-0.470939	71.4573	-4.70996	23.4741
 186	1	5	-0.47569	68.9824	-5.32073	27.3289
 187	1	6	0.193108	67.8502	-9.67124	23.0848
 188	1	6	0.21486	69.7867	-7.70564	26.4082
 189	1	1	0.473101	74.4678	-6.92891	44.8999
 190	1	2	0.047723	75.1034	-6.72922	43.6692
 191	1	3	0.004987	75.7282	-5.38454	43.7601
 192	1	2	0.062675	74.5876	-5.82045	45.7426
 193	1	3	0.048591	75.4198	-4.84693	44.9912
 194	1	5	-0.383443	75.2042	-7.4995	42.7279
 195	1	5	-0.390296	74.1601	-5.67027	46.876
 196	1	3	-0.001908	76.5829	-4.72857	42.8656
 197	1	3	-0.038207	75.9392	-3.61458	45.3929
 198	1	3	-0.215576	76.8143	-2.94308	44.5134
 199	1	3	-0.070363	77.1599	-3.4867	43.2426
 200	1	6	0.160197	76.8348	-5.20974	41.9236
 201	1	6	0.153305	75.7057	-3.21411	46.3771
 202	1	6	0.179436	77.2474	-2.01169	44.8631
 203	1	7	-0.074672	78.2339	-2.84383	42.3157
 204	1	7	0.280369	78.5503	-1.33053	42.6481
 205	1	8	-0.106158	77.4288	-0.584208	42.7662
 206	1	8	-0.092663	79.2823	-0.752025	41.6686
 207	1	8	-0.102536	79.2488	-1.16516	43.7943
 208	1	7	0.310197	79.551	-3.69255	42.5206
 209	1	8	-0.10503	79.4202	-4.95778	42.0608
 210	1	8	-0.101207	79.8688	-3.81277	43.83
 211	1	8	-0.097553	80.6303	-3.15589	41.9078
 212	1	3	-0.010565	77.6971	-2.86039	40.8539
 213	1	3	-0.081209	78.4517	-3.35282	39.7549
 214	1	3	-0.082072	77.911	-3.26503	38.4658
 215	1	3	-0.061713	76.4124	-2.30734	40.5895
 216	1	3	-0.146525	75.9019	-2.19989	39.2794
 217	1	3	-0.036475	76.6859	-2.68523	38.2284
 218	1	2	0.474489	76.4196	-2.74216	36.7663
 219	1	1	-0.056758	77.4972	-3.42063	36.2066
 220	1	2	0.480785	78.4514	-3.74747	37.1685
 221	1	3	0.11186	77.5719	-3.81798	34.8361
 222	1	3	-0.193084	78.0398	-5.10244	34.5026
 223	1	3	-0.037687	78.1288	-5.51216	33.1679
 224	1	3	-0.413926	77.1474	-2.96459	33.7968
 225	1	3	0.299417	77.1941	-3.36911	32.4427
 226	1	3	-0.384234	77.7191	-4.64505	32.1481
 227	1	6	0.146041	78.3488	-5.79433	35.2807
 228	1	6	0.136211	78.5009	-6.50627	32.9273
 229	1	6	0.166859	74.9255	-1.76047	39.0853
 230	1	6	0.137644	75.8053	-1.93551	41.4108
 231	1	6	0.148636	79.4377	-3.79191	39.8654
 232	1	5	-0.470939	79.4724	-4.39879	37.0346
 233	1	5	-0.47569	75.4346	-2.29116	36.2085
 234	1	6	0.193108	77.7682	-4.9862	31.1164
 235	1	6	0.21486	76.7497	-1.98019	34.0362
 236	1	1	0.473101	70.58	-10.8504	33.3291
 237	1	2	0.047723	70.1141	-12.0869	33.7792
 238	1	3	0.004987	70.5901	-12.1953	35.1871
 239	1	2	0.062675	71.3244	-10.1737	34.2888
 240	1	3	0.048591	71.3246	-11.0607	35.4718
 241	1	5	-0.383443	69.4494	-12.9091	33.1724
 242	1	5	-0.390296	71.8272	-9.06521	34.2186
 243	1	3	-0.001908	70.3794	-13.195	36.1509
 244	1	3	-0.038207	71.9289	-10.8707	36.7116
 245	1	3	-0.215576	71.7484	-11.8693	37.6834
 246	1	3	-0.070363	70.953	-13.0267	37.442
 247	1	6	0.160197	69.7801	-14.0627	35.889
 248	1	6	0.153305	72.5165	-9.9775	36.9132
 249	1	6	0.179436	72.2249	-11.7226	38.6501
 250	1	7	-0.074672	70.7737	-14.0491	38.6047
 251	1	7	0.280369	69.5175	-14.9912	38.4476
 252	1	8	-0.106158	69.6634	-15.9275	37.4841
 253	1	8	-0.092663	68.3966	-14.3015	38.1488
 254	1	8	-0.102536	69.2576	-15.6555	39.5965
 255	1	7	0.310197	72.0822	-14.9306	38.6233
 256	1	8	-0.10503	72.3196	-15.5005	37.4196
 257	1	8	-0.101207	72.0272	-15.9324	39.53
 258	1	8	-0.097553	73.187	-14.2001	38.8985
 259	1	3	-0.010565	70.5585	-13.2075	39.9009
 260	1	3	-0.081209	71.3855	-13.3141	41.0528
 261	1	3	-0.082072	71.2732	-12.3423	42.0586
 262	1	3	-0.061713	69.5815	-12.1729	39.8713
 263	1	3	-0.146525	69.482	-11.2104	40.8929
 264	1	3	-0.036475	70.3684	-11.3047	41.9669
 265	1	2	0.474489	70.6489	-10.3342	43.0568
 266	1	1	-0.056758	71.7433	-10.8506	43.7335
 267	1	2	0.480785	72.1453	-12.0831	43.2369
 268	1	3	0.11186	72.4758	-10.1231	44.7049
 269	1	3	-0.193084	72.6831	-10.6477	45.989
 270	1	3	-0.037687	73.4516	-9.94035	46.9233
 271	1	3	-0.413926	73.0465	-8.8854	44.3618
 272	1	3	0.299417	73.8366	-8.16109	45.2788
 273	1	3	-0.384234	74.0277	-8.71097	46.5657
 274	1	6	0.146041	72.2605	-11.6118	46.2586
 275	1	6	0.136211	73.6114	-10.3525	47.9179
 276	1	6	0.166859	68.7991	-10.3676	40.8067
 277	1	6	0.137644	68.9524	-12.0483	38.9945
 278	1	6	0.148636	72.1631	-14.0649	41.1483
 279	1	5	-0.470939	73.09	-12.7638	43.5963
 280	1	5	-0.47569	70.1269	-9.24133	43.1992
 281	1	6	0.193108	74.6299	-8.18087	47.2999
 282	1	6	0.21486	72.894	-8.49164	43.3599
 283	1	1	0.473101	76.8499	-8.59725	19.1316
 284	1	2	0.047723	77.6347	-7.99637	20.1231
 285	1	3	0.004987	76.7317	-7.81224	21.291
 286	1	2	0.062675	75.5356	-8.80836	19.5573
 287	1	3	0.048591	75.486	-8.29529	20.9493
 288	1	5	-0.383443	78.8134	-7.68515	20.0784
 289	1	5	-0.390296	74.6122	-9.33463	18.9566
 290	1	3	-0.001908	76.9882	-7.26161	22.5556
 291	1	3	-0.038207	74.4201	-8.25289	21.8495
 292	1	3	-0.215576	74.6567	-7.70849	23.1272
 293	1	3	-0.070363	75.9365	-7.2163	23.5119
 294	1	6	0.160197	77.983	-6.88143	22.7633
 295	1	6	0.153305	73.4382	-8.62299	21.5623
 296	1	6	0.179436	73.8195	-7.6564	23.8207
 297	1	7	-0.074672	76.1042	-6.60114	24.9331
 298	1	7	0.280369	77.6029	-6.5428	25.4361
 299	1	8	-0.106158	77.6674	-6.27692	26.7608
 300	1	8	-0.092663	78.3463	-5.59723	24.8191
 301	1	8	-0.102536	78.2543	-7.71277	25.2515
 302	1	7	0.310197	75.5435	-5.12981	24.854
 303	1	8	-0.10503	74.2253	-5.1036	24.5644
 304	1	8	-0.101207	76.1401	-4.4128	23.8745
 305	1	8	-0.097553	75.714	-4.44517	26.0079
 306	1	3	-0.010565	75.3291	-7.51188	25.9356
 307	1	3	-0.081209	74.294	-7.03842	26.7891
 308	1	3	-0.082072	73.6355	-7.94727	27.6285
 309	1	3	-0.061713	75.6491	-8.89868	25.9808
 310	1	3	-0.146525	75.0018	-9.78807	26.8607
 311	1	3	-0.036475	73.995	-9.27708	27.6824
 312	1	2	0.474489	73.1105	-9.96343	28.6596
 313	1	1	-0.056758	72.2295	-8.99006	29.1103
 314	1	2	0.480785	72.4768	-7.74666	28.5408
 315	1	3	0.11186	71.1437	-9.28286	29.9748
 316	1	3	-0.193084	69.8243	-8.98576	29.5968
 317	1	3	-0.037687	68.7489	-9.35713	30.4149
 318	1	3	-0.413926	71.3775	-9.9257	31.2002
 319	1	3	0.299417	70.3119	-10.2905	32.0453
 320	1	3	-0.384234	68.9942	-10.0147	31.6288
 321	1	6	0.146041	69.6309	-8.4649	28.6645
 322	1	6	0.136211	67.7282	-9.12558	30.1149
 323	1	6	0.166859	75.2549	-10.8456	26.8875
 324	1	6	0.137644	76.4064	-9.30197	25.3151
 325	1	6	0.148636	73.9765	-6.00205	26.8135
 326	1	5	-0.470939	71.8403	-6.71405	28.6709
 327	1	5	-0.47569	73.1511	-11.1445	28.9677
 328	1	6	0.193108	68.1475	-10.2847	32.2548
 329	1	6	0.21486	72.4	-10.1341	31.505
 330	1	1	0.473101	67.1904	-7.88931	7.3693
 331	1	2	0.047723	68.4324	-8.11405	6.76875
 332	1	3	0.004987	69.3568	-8.46068	7.88635
 333	1	2	0.062675	67.2448	-8.01309	8.75911
 334	1	3	0.048591	68.6458	-8.39394	9.06619
 335	1	5	-0.383443	68.7091	-8.10948	5.58094
 336	1	5	-0.390296	66.338	-7.90919	9.56929
 337	1	3	-0.001908	70.6946	-8.88396	7.86083
 338	1	3	-0.038207	69.2284	-8.73927	10.2873
 339	1	3	-0.215576	70.5709	-9.16897	10.2831
 340	1	3	-0.070363	71.3324	-9.24398	9.08287
 341	1	6	0.160197	71.19	-8.96011	6.89893
 342	1	6	0.153305	68.6434	-8.70867	11.2039
 343	1	6	0.179436	71.013	-9.47884	11.2282
 344	1	7	-0.074672	72.7805	-9.82446	9.14671
 345	1	7	0.280369	73.679	-9.39665	7.92409
 346	1	8	-0.106158	74.9839	-9.68045	8.14117
 347	1	8	-0.092663	73.6104	-8.06499	7.70023
 348	1	8	-0.102536	73.343	-10.0134	6.76895
 349	1	7	0.310197	72.6146	-11.3938	9.15428
 350	1	8	-0.10503	72.0834	-11.8328	10.3184
 351	1	8	-0.101207	73.778	-12.057	8.96629
 352	1	8	-0.097553	71.777	-11.8131	8.17783
 353	1	3	-0.010565	73.5007	-9.27697	10.4189
 354	1	3	-0.081209	74.3213	-10.0867	11.252
 355	1	3	-0.082072	74.9462	-9.50732	12.3655
 356	1	3	-0.061713	73.3811	-7.89524	10.7407
 357	1	3	-0.146525	74.0135	-7.33318	11.8693
 358	1	3	-0.036475	74.7913	-8.17276	12.673
 359	1	2	0.474489	75.5698	-7.88378	13.9091
 360	1	1	-0.056758	76.1612	-9.08734	14.2702
 361	1	2	0.480785	75.8406	-10.1133	13.3894
 362	1	3	0.11186	76.9876	-9.2534	15.4165
 363	1	3	-0.193084	78.2468	-9.86555	15.3058
 364	1	3	-0.037687	79.0527	-10.0429	16.4385
 365	1	3	-0.413926	76.5468	-8.81979	16.6793
 366	1	3	0.299417	77.3347	-8.99631	17.839
 367	1	3	-0.384234	78.5958	-9.61439	17.6942
 368	1	6	0.146041	78.6004	-10.2146	14.3392
 369	1	6	0.136211	80.0265	-10.5196	16.3422
 370	1	6	0.166859	73.9088	-6.27697	12.1099
 371	1	6	0.137644	72.7841	-7.24454	10.107
 372	1	6	0.148636	74.4905	-11.1413	11.0615
 373	1	5	-0.470939	76.2009	-11.2769	13.4267
 374	1	5	-0.47569	75.6467	-6.80662	14.4752
 375	1	6	0.193108	79.2312	-9.76268	18.5643
 376	1	6	0.21486	75.5698	-8.3501	16.7635
 377	1	1	0.473101	58.4341	-1.21946	-4.22673
 378	1	2	0.047723	59.6351	-1.93194	-4.36194
 379	1	3	0.004987	60.3012	-1.86588	-3.03695
 380	1	2	0.062675	58.2535	-0.770133	-2.90929
 381	1	3	0.048591	59.4727	-1.19678	-2.16591
 382	1	5	-0.383443	60.0965	-2.48676	-5.34579
 383	1	5	-0.390296	57.3597	-0.0750705	-2.45345
 384	1	3	-0.001908	61.6006	-2.24347	-2.67738
 385	1	3	-0.038207	59.8803	-0.925012	-0.854544
 386	1	3	-0.215576	61.1856	-1.30695	-0.46539
 387	1	3	-0.070363	62.0806	-1.93855	-1.37344
 388	1	6	0.160197	62.2309	-2.67968	-3.44442
 389	1	6	0.153305	59.2254	-0.376678	-0.180699
 390	1	6	0.179436	61.5301	-1.02808	0.527853
 391	1	7	-0.074672	63.5948	-2.04371	-1.01825
 392	1	7	0.280369	64.3533	-3.15846	-1.85454
 393	1	8	-0.106158	63.6568	-4.31529	-1.91588
 394	1	8	-0.092663	65.5537	-3.45622	-1.30578
 395	1	8	-0.102536	64.6115	-2.81416	-3.13596
 396	1	7	0.310197	64.2007	-0.6347	-1.40674
 397	1	8	-0.10503	63.6674	0.369737	-0.67312
 398	1	8	-0.101207	63.9428	-0.295421	-2.69097
 399	1	8	-0.097553	65.5443	-0.586601	-1.25644
 400	1	3	-0.010565	63.8096	-2.40893	0.494593
 401	1	3	-0.081209	63.4101	-3.68873	0.9714
 402	1	3	-0.082072	63.834	-4.11737	2.24179
 403	1	3	-0.061713	64.5397	-1.57451	1.39648
 404	1	3	-0.146525	64.9119	-2.00574	2.68582
 405	1	3	-0.036475	64.5704	-3.30265	3.07214
 406	1	2	0.474489	64.9453	-4.07353	4.28938
 407	1	1	-0.056758	64.4273	-5.34981	4.10373
 408	1	2	0.480785	63.7235	-5.44868	2.90321
 409	1	3	0.11186	64.5895	-6.41982	5.03823
 410	1	3	-0.193084	63.5012	-7.25846	5.338
 411	1	3	-0.037687	63.6313	-8.30135	6.26301
 412	1	3	-0.413926	65.8204	-6.64564	5.69492
 413	1	3	0.299417	65.9657	-7.67615	6.65255
 414	1	3	-0.384234	64.8545	-8.50357	6.91545
 415	1	6	0.146041	62.5419	-7.10654	4.85068
 416	1	6	0.136211	62.7796	-8.94257	6.48242
 417	1	6	0.166859	65.5069	-1.37395	3.34289
 418	1	6	0.137644	64.8873	-0.590646	1.10881
 419	1	6	0.148636	62.8515	-4.37799	0.344497
 420	1	5	-0.470939	63.1518	-6.42064	2.44062
 421	1	5	-0.47569	65.6018	-3.65231	5.22747
 422	1	6	0.193108	64.9343	-9.29939	7.65229
 423	1	6	0.21486	66.6724	-6.00645	5.4759
 424	1	1	0.473101	44.8693	0.156278	-9.66353
 425	1	2	0.047723	45.7012	-0.312905	-8.6478
 426	1	3	0.004987	46.3477	0.898849	-8.08024
 427	1	2	0.062675	44.9284	1.54086	-9.81184
 428	1	3	0.048591	45.8761	2.00099	-8.76307
 429	1	5	-0.383443	45.8593	-1.46117	-8.26889
 430	1	5	-0.390296	44.326	2.24449	-10.6057
 431	1	3	-0.001908	47.2262	1.02448	-6.99712
 432	1	3	-0.038207	46.2502	3.29445	-8.39143
 433	1	3	-0.215576	47.1084	3.44532	-7.28099
 434	1	3	-0.070363	47.611	2.3207	-6.56391
 435	1	6	0.160197	47.5408	0.13017	-6.46562
 436	1	6	0.153305	45.8485	4.15628	-8.92056
 437	1	6	0.179436	47.3405	4.45842	-6.96844
 438	1	7	-0.074672	48.4057	2.46411	-5.23414
 439	1	7	0.280369	49.0826	3.88723	-5.03728
 440	1	8	-0.106158	49.9941	3.85974	-4.0381
 441	1	8	-0.092663	48.2155	4.87605	-4.72336
 442	1	8	-0.102536	49.7376	4.31719	-6.1385
 443	1	7	0.310197	47.3371	2.2725	-4.08145
 444	1	8	-0.10503	47.8725	2.42423	-2.84864
 445	1	8	-0.101207	46.7428	1.05775	-4.11723
 446	1	8	-0.097553	46.3128	3.15088	-4.17803
 447	1	3	-0.010565	49.5588	1.40065	-5.20154
 448	1	3	-0.081209	50.6532	1.51938	-6.1042
 449	1	3	-0.082072	51.7665	0.675522	-5.95784
 450	1	3	-0.061713	49.6178	0.349252	-4.23696
 451	1	3	-0.146525	50.7173	-0.527831	-4.14997
 452	1	3	-0.036475	51.7934	-0.325642	-5.01503
 453	1	2	0.474489	53.1288	-0.978028	-5.05053
 454	1	1	-0.056758	53.8744	-0.268058	-5.98565
 455	1	2	0.480785	53.107	0.718694	-6.60758
 456	1	3	0.11186	55.2734	-0.469771	-6.21229
 457	1	3	-0.193084	55.8118	-0.344902	-7.50418
 458	1	3	-0.037687	57.1886	-0.475494	-7.71766
 459	1	3	-0.413926	56.1477	-0.764124	-5.14231
 460	1	3	0.299417	57.5427	-0.922022	-5.32714
 461	1	3	-0.384234	58.0413	-0.747135	-6.63871
 462	1	6	0.146041	55.1675	-0.123891	-8.35073
 463	1	6	0.136211	57.5949	-0.358648	-8.72076
 464	1	6	0.166859	50.7611	-1.30461	-3.38904
 465	1	6	0.137644	48.8361	0.204075	-3.50273
 466	1	6	0.148636	50.6833	2.29004	-6.86818
 467	1	5	-0.470939	53.4547	1.53019	-7.44829
 468	1	5	-0.47569	53.479	-1.91425	-4.35171
 469	1	6	0.193108	59.1064	-0.832265	-6.83706
 470	1	6	0.21486	55.7367	-0.866661	-4.14169
 471	1	1	0.473101	31.2893	-9.14329	-9.82424
 472	1	2	0.047723	31.6361	-8.26473	-8.78032
 473	1	3	0.004987	32.8281	-7.51639	-9.24502
 474	1	2	0.062675	32.1962	-9.02186	-10.8945
 475	1	3	0.048591	33.1437	-7.94092	-10.5119
 476	1	5	-0.383443	31.0713	-8.04361	-7.72209
 477	1	5	-0.390296	32.2581	-9.6525	-11.9375
 478	1	3	-0.001908	33.5218	-6.47687	-8.6164
 479	1	3	-0.038207	34.1564	-7.31439	-11.2463
 480	1	3	-0.215576	34.8508	-6.24042	-10.6436
 481	1	3	-0.070363	34.5694	-5.81519	-9.31376
 482	1	6	0.160197	33.1966	-6.18162	-7.62596
 483	1	6	0.153305	34.3646	-7.62353	-12.2684
 484	1	6	0.179436	35.599	-5.71367	-11.2329
 485	1	7	-0.074672	35.2905	-4.5588	-8.72665
 486	1	7	0.280369	34.5003	-3.31907	-9.29904
 487	1	8	-0.106158	34.7756	-2.15944	-8.66107
 488	1	8	-0.092663	33.1613	-3.48838	-9.19969
 489	1	8	-0.102536	34.7639	-3.13235	-10.6124
 490	1	7	0.310197	35.2758	-4.52107	-7.15019
 491	1	8	-0.10503	35.6718	-5.70537	-6.63078
 492	1	8	-0.101207	34.0622	-4.23292	-6.62873
 493	1	8	-0.097553	36.1228	-3.58804	-6.65806
 494	1	3	-0.010565	36.7995	-4.54981	-9.12527
 495	1	3	-0.081209	37.5113	-3.34005	-9.35482
 496	1	3	-0.082072	38.881	-3.39404	-9.6434
 497	1	3	-0.061713	37.5309	-5.77084	-9.16585
 498	1	3	-0.146525	38.9058	-5.80611	-9.4842
 499	1	3	-0.036475	39.5585	-4.59159	-9.72359
 500	1	2	0.474489	40.9698	-4.30257	-10.1043
 501	1	1	-0.056758	41.0469	-2.92257	-10.2292
 502	1	2	0.480785	39.8423	-2.29787	-9.94353
 503	1	3	0.11186	42.1775	-2.23897	-10.7459
 504	1	3	-0.193084	42.4977	-2.38152	-12.1051
 505	1	3	-0.037687	43.5808	-1.68686	-12.6592
 506	1	3	-0.413926	42.9608	-1.39752	-9.935
 507	1	3	0.299417	44.0593	-0.693187	-10.4768
 508	1	3	-0.384234	44.3539	-0.844209	-11.8472
 509	1	6	0.146041	41.8988	-3.03088	-12.7376
 510	1	6	0.136211	43.8148	-1.79955	-13.7161
 511	1	6	0.166859	39.4516	-6.74627	-9.53556
 512	1	6	0.137644	37.0279	-6.70973	-8.94898
 513	1	6	0.148636	37.0392	-2.36508	-9.30363
 514	1	5	-0.470939	39.589	-1.10685	-9.98192
 515	1	5	-0.47569	41.8362	-5.1263	-10.3398
 516	1	6	0.193108	45.1855	-0.298442	-12.286
 517	1	6	0.21486	42.7165	-1.28674	-8.88242
 518	1	1	0.473101	22.0693	-14.3685	-21.2429
 519	1	2	0.047723	22.0953	-14.7531	-19.8992
 520	1	3	0.004987	23.5298	-14.7405	-19.5083
 521	1	2	0.062675	23.3373	-14.0489	-21.7261
 522	1	3	0.048591	24.2645	-14.3323	-20.5977
 523	1	5	-0.383443	21.1677	-15.1275	-19.2016
 524	1	5	-0.390296	23.6546	-13.7063	-22.8525
 525	1	3	-0.001908	24.139	-15.1399	-18.3103
 526	1	3	-0.038207	25.6573	-14.3117	-20.5478
 527	1	3	-0.215576	26.2908	-14.723	-19.3552
 528	1	3	-0.070363	25.5627	-15.1655	-18.2057
 529	1	6	0.160197	23.4825	-15.444	-17.5054
 530	1	6	0.153305	26.2323	-14.0088	-21.4206
 531	1	6	0.179436	27.3723	-14.6961	-19.3672
 532	1	7	-0.074672	26.2925	-15.6165	-16.8747
 533	1	7	0.280369	25.4224	-16.7282	-16.1454
 534	1	8	-0.106158	24.353	-16.193	-15.5151
 535	1	8	-0.092663	26.0588	-17.422	-15.1773
 536	1	8	-0.102536	24.969	-17.6548	-17.0205
 537	1	7	0.310197	27.7286	-16.2129	-17.1931
 538	1	8	-0.10503	27.6826	-17.1211	-18.1938
 539	1	8	-0.101207	28.3328	-16.8241	-16.1505
 540	1	8	-0.097553	28.6107	-15.2488	-17.542
 541	1	3	-0.010565	26.4951	-14.3914	-15.931
 542	1	3	-0.081209	27.0302	-14.5592	-14.6233
 543	1	3	-0.082072	27.2821	-13.4272	-13.8325
 544	1	3	-0.061713	26.2234	-13.0636	-16.3733
 545	1	3	-0.146525	26.4827	-11.9405	-15.5616
 546	1	3	-0.036475	27.0235	-12.1536	-14.2912
 547	1	2	0.474489	27.4396	-11.1803	-13.2447
 548	1	1	-0.056758	27.9339	-11.9452	-12.2
 549	1	2	0.480785	27.8667	-13.3077	-12.4668
 550	1	3	0.11186	28.4427	-11.3969	-10.9923
 551	1	3	-0.193084	27.8156	-11.6935	-9.77584
 552	1	3	-0.037687	28.3283	-11.1789	-8.58177
 553	1	3	-0.413926	29.5682	-10.5509	-11.004
 554	1	3	0.299417	30.1286	-10.0212	-9.81174
 555	1	3	-0.384234	29.4795	-10.3774	-8.60226
 556	1	6	0.146041	26.9347	-12.3297	-9.75468
 557	1	6	0.136211	27.838	-11.4087	-7.63731
 558	1	6	0.166859	26.2875	-10.9304	-15.9156
 559	1	6	0.137644	25.8268	-12.8729	-17.3645
 560	1	6	0.148636	27.2796	-15.5379	-14.2242
 561	1	5	-0.470939	28.2065	-14.2299	-11.7467
 562	1	5	-0.47569	27.3601	-9.96607	-13.3159
 563	1	6	0.193108	29.8498	-10.026	-7.64543
 564	1	6	0.21486	30.0011	-10.3086	-11.9685
 565	1	1	0.473101	16.1379	-2.21296	-23.4814
 566	1	2	0.047723	15.5875	-2.70635	-24.6636
 567	1	3	0.004987	15.7661	-4.18	-24.5928
 568	1	2	0.062675	16.6851	-3.21146	-22.6809
 569	1	3	0.048591	16.424	-4.47469	-23.4156
 570	1	5	-0.383443	15.0045	-2.09024	-25.5395
 571	1	5	-0.390296	17.1927	-3.10624	-21.5768
 572	1	3	-0.001908	15.3072	-5.18558	-25.4555
 573	1	3	-0.038207	16.6696	-5.7938	-23.0361
 574	1	3	-0.215576	16.2329	-6.81952	-23.8972
 575	1	3	-0.070363	15.5528	-6.54499	-25.119
 576	1	6	0.160197	14.7508	-4.89404	-26.3405
 577	1	6	0.153305	17.1555	-6.01378	-22.0877
 578	1	6	0.179436	16.3947	-7.84438	-23.5757
 579	1	7	-0.074672	15.0221	-7.73534	-25.9712
 580	1	7	0.280369	14.7472	-7.35036	-27.4899
 581	1	8	-0.106158	13.6214	-6.63045	-27.6925
 582	1	8	-0.092663	15.7308	-6.60016	-28.0336
 583	1	8	-0.102536	14.6278	-8.45541	-28.2594
 584	1	7	0.310197	13.6468	-8.17389	-25.3204
 585	1	8	-0.10503	12.7164	-7.19269	-25.3485
 586	1	8	-0.101207	13.7543	-8.47138	-24.0061
 587	1	8	-0.097553	13.1161	-9.25093	-25.9423
 588	1	3	-0.010565	16.1173	-8.86444	-25.9292
 589	1	3	-0.081209	16.0123	-10.0175	-25.097
 590	1	3	-0.082072	17.109	-10.8834	-24.9717
 591	1	3	-0.061713	17.3409	-8.69515	-26.6446
 592	1	3	-0.146525	18.4052	-9.61661	-26.5589
 593	1	3	-0.036475	18.2697	-10.6994	-25.6883
 594	1	2	0.474489	19.25	-11.7448	-25.2791
 595	1	1	-0.056758	18.6173	-12.4777	-24.2863
 596	1	2	0.480785	17.3178	-12.0403	-24.0593
 597	1	3	0.11186	19.2108	-13.5675	-23.5925
 598	1	3	-0.193084	18.6231	-14.838	-23.6956
 599	1	3	-0.037687	19.1618	-15.9309	-23.0072
 600	1	3	-0.413926	20.3595	-13.3987	-22.7899
 601	1	3	0.299417	20.9075	-14.4895	-22.0733
 602	1	3	-0.384234	20.2923	-15.7519	-22.1992
 603	1	6	0.146041	17.7368	-14.9789	-24.308
 604	1	6	0.136211	18.6969	-16.9112	-23.0925
 605	1	6	0.166859	19.3322	-9.46213	-27.1076
 606	1	6	0.137644	17.5094	-7.81907	-27.2566
 607	1	6	0.148636	15.138	-10.2381	-24.4973
 608	1	5	-0.470939	16.5199	-12.452	-23.236
 609	1	5	-0.47569	20.38	-11.884	-25.7123
 610	1	6	0.193108	20.6921	-16.6035	-21.6539
 611	1	6	0.21486	20.8349	-12.4235	-22.7303
 612	1	1	0.473101	5.33008	4.4568	-15.6261
 613	1	2	0.047723	6.65524	4.26926	-16.041
 614	1	3	0.004987	6.81193	2.79875	-16.219
 615	1	2	0.062675	4.65193	3.24926	-15.4573
 616	1	3	0.048591	5.61331	2.20452	-15.8831
 617	1	5	-0.383443	7.48893	5.11366	-16.3245
 618	1	5	-0.390296	3.49586	3.06188	-15.1106
 619	1	3	-0.001908	7.89948	2.04447	-16.6921
 620	1	3	-0.038207	5.42035	0.831977	-16.0226
 621	1	3	-0.215576	6.48986	0.0605288	-16.5144
 622	1	3	-0.070363	7.74395	0.640566	-16.865
 623	1	6	0.160197	8.83678	2.54624	-16.9199
 624	1	6	0.153305	4.46495	0.380874	-15.7634
 625	1	6	0.179436	6.3214	-1.00697	-16.5942
 626	1	7	-0.074672	8.94579	-0.25133	-17.3131
 627	1	7	0.280369	9.70497	-0.642306	-15.9866
 628	1	8	-0.106158	8.8537	-1.03993	-15.014
 629	1	8	-0.092663	10.3848	0.414226	-15.4855
 630	1	8	-0.102536	10.5816	-1.6604	-16.1449
 631	1	7	0.310197	8.48926	-1.56159	-18.0711
 632	1	8	-0.10503	7.54428	-1.28949	-19.0002
 633	1	8	-0.101207	9.51346	-2.14656	-18.7352
 634	1	8	-0.097553	7.98975	-2.51744	-17.2554
 635	1	3	-0.010565	9.85902	0.50021	-18.3292
 636	1	3	-0.081209	11.2662	0.309947	-18.3405
 637	1	3	-0.082072	12.0209	0.835227	-19.3911
 638	1	3	-0.061713	9.27858	1.23728	-19.4008
 639	1	3	-0.146525	10.0634	1.77763	-20.4447
 640	1	3	-0.036475	11.4457	1.55422	-20.4156
 641	1	2	0.474489	12.4944	1.80321	-21.4458
 642	1	1	-0.056758	13.6215	1.13177	-20.9921
 643	1	2	0.480785	13.4391	0.573278	-19.7374
 644	1	3	0.11186	14.7336	0.825878	-21.8147
 645	1	3	-0.193084	15.5964	1.82603	-22.2881
 646	1	3	-0.037687	16.6668	1.49252	-23.1335
 647	1	3	-0.413926	14.9435	-0.507137	-22.2009
 648	1	3	0.299417	15.9983	-0.857721	-23.0627
 649	1	3	-0.384234	16.8635	0.155917	-23.5223