pySIMM System Object

2352 atoms
2601 bonds
4500 angles
7096 dihedrals
800 impropers

8 atom types
10 bond types
16 angle types
7 dihedral types
4 improper types

-219.025456 219.025456 xlo xhi
-219.025456 219.025456 ylo yhi
-219.025456 219.025456 zlo zhi

Masses

   1	14.01	# n
   2	12.01	# c
   3	12.01	# ca
   4	1.008	# hn
   5	16.0	# o
   6	1.008	# ha
   7	12.01	# c3
   8	19.0	# f

Pair Coeffs

   1	0.17	3.249998523775958	# n
   2	0.086	3.3996695084235347	# c
   3	0.086	3.3996695084235347	# ca
   4	0.0157	1.069078461768407	# hn
   5	0.21	2.959921901149463	# o
   6	0.015	2.59964245953351	# ha
   7	0.1094	3.3996695084235347	# c3
   8	0.061	3.1181455134911875	# f

Bond Coeffs

   1	345.8	1.086	# ca,ha
   2	384.2	1.4121	# ca,n
   3	637.7	1.2183	# c,o
   4	321.0	1.5156	# c3,ca
   5	403.2	1.0129	# hn,n
   6	356.9	1.3497	# c3,f
   7	427.6	1.3789	# c,n
   8	461.1	1.3984	# ca,ca
   9	345.9	1.4906	# c,ca
  10	300.9	1.5375	# c3,c3

Angle Coeffs

   1	66.11	109.24	# c3,c3,f
   2	66.62	120.02	# ca,ca,ca
   3	63.53	120.77	# c3,ca,ca
   4	62.86	111.51	# c3,c3,c3
   5	63.74	127.08	# c,n,c
   6	63.15	112.07	# c3,c3,ca
   7	48.18	119.88	# ca,ca,ha
   8	70.89	107.36	# f,c3,f
   9	68.72	122.6	# ca,c,o
  10	63.82	123.71	# c,n,ca
  11	67.87	120.19	# ca,ca,n
  12	67.68	115.25	# ca,c,n
  13	63.56	112.24	# ca,c3,ca
  14	64.28	120.33	# c,ca,ca
  15	48.33	117.55	# c,n,hn
  16	74.22	123.05	# n,c,o

Dihedral Coeffs

   1	1	3.625	2	180	# X,ca,ca,X
   2	1	1.0	2	180	# X,c,ca,X
   3	1	0.15555555555555556	3	0	# X,c3,c3,X
   4	1	0.0	2	0	# X,c3,ca,X
   5	1	2.5	2	180	# X,c,n,X
   6	1	0.45	2	180	# X,ca,n,X
   7	2	2.5	2	180	2.0	1	0	# hn,n,c,o

Improper Coeffs

   1	1.1	-1	2	# ca,ca,ca,c3
   2	1.1	-1	2	# n,X,X,hn
   3	1.1	-1	2	# ca,X,X,ha
   4	10.5	-1	2	# c,X,X,o

Atoms

   1	1	1	0.473101	-73.537	28.5286	41.7664
   2	1	2	0.047723	-74.5994	29.4271	41.8835
   3	1	3	0.004987	-74.9363	29.445	43.3245
   4	1	2	0.062675	-73.1652	27.9793	42.9973
   5	1	3	0.048591	-74.0752	28.6044	43.9936
   6	1	5	-0.383443	-75.1432	30.0936	41.0182
   7	1	5	-0.390296	-72.3288	27.1194	43.224
   8	1	3	-0.001908	-75.9618	30.1235	43.982
   9	1	3	-0.038207	-74.1633	28.4406	45.3796
  10	1	3	-0.215576	-75.1834	29.1335	46.0707
  11	1	3	-0.070363	-76.1195	29.9582	45.3825
  12	1	6	0.160197	-76.648	30.7285	43.3951
  13	1	6	0.153305	-73.4713	27.7822	45.9003
  14	1	6	0.179436	-75.2477	28.9884	47.1447
  15	1	7	-0.074672	-77.3572	30.6187	46.0599
  16	1	7	0.280369	-77.6369	30.1236	47.5329
  17	1	8	-0.106158	-77.6897	28.7758	47.627
  18	1	8	-0.092663	-78.8321	30.5675	47.9837
  19	1	8	-0.102536	-76.7037	30.5421	48.4171
  20	1	7	0.310197	-77.099	32.1777	46.0824
  21	1	8	-0.10503	-75.9048	32.4717	46.6447
  22	1	8	-0.101207	-78.0361	32.864	46.7745
  23	1	8	-0.097553	-77.0638	32.7149	44.842
  24	1	3	-0.010565	-78.578	30.1838	45.198
  25	1	3	-0.081209	-78.6887	28.813	44.8487
  26	1	3	-0.082072	-79.7035	28.4067	43.98
  27	1	3	-0.061713	-79.5536	31.0885	44.6881
  28	1	3	-0.146525	-80.5674	30.6557	43.8046
  29	1	3	-0.036475	-80.6062	29.3008	43.4526
  30	1	2	0.474489	-81.4957	28.558	42.5173
  31	1	1	-0.056758	-81.0601	27.2352	42.5495
  32	1	2	0.480785	-79.9932	27.0626	43.4245
  33	1	3	0.11186	-81.6263	26.1783	41.7797
  34	1	3	-0.193084	-80.8001	25.2074	41.1803
  35	1	3	-0.037687	-81.3549	24.147	40.4498
  36	1	3	-0.413926	-83.0199	26.0786	41.6101
  37	1	3	0.299417	-83.5783	25.0363	40.8582
  38	1	3	-0.384234	-82.7455	24.0635	40.2927
  39	1	6	0.146041	-79.7188	25.2635	41.284
  40	1	6	0.136211	-80.7063	23.4008	39.9985
  41	1	6	0.166859	-81.2911	31.3541	43.3889
  42	1	6	0.137644	-79.527	32.1422	44.944
  43	1	6	0.148636	-77.9756	28.074	45.2077
  44	1	5	-0.470939	-79.4039	26.0368	43.7181
  45	1	5	-0.47569	-82.3966	29.0471	41.8564
  46	1	6	0.193108	-83.1831	23.2632	39.7055
  47	1	6	0.21486	-83.684	26.8189	42.0424
  48	1	1	0.473101	-76.0586	24.4886	26.8463
  49	1	2	0.047723	-77.0822	25.2814	27.3688
  50	1	3	0.004987	-76.7657	25.4282	28.8113
  51	1	2	0.062675	-75.0858	24.1813	27.7994
  52	1	3	0.048591	-75.5778	24.7737	29.0599
  53	1	5	-0.383443	-78.0879	25.689	26.8152
  54	1	5	-0.390296	-74.0847	23.495	27.683
  55	1	3	-0.001908	-77.516	26.0088	29.8406
  56	1	3	-0.038207	-75.0664	24.6496	30.3495
  57	1	3	-0.215576	-75.8028	25.2263	31.3985
  58	1	3	-0.070363	-77.0249	25.9211	31.1692
  59	1	6	0.160197	-78.4605	26.4834	29.5963
  60	1	6	0.153305	-74.1533	24.0874	30.5342
  61	1	6	0.179436	-75.4256	25.0959	32.4107
  62	1	7	-0.074672	-77.7879	26.4932	32.3937
  63	1	7	0.280369	-78.8332	27.6225	32.0362
  64	1	8	-0.106158	-78.3141	28.5645	31.2174
  65	1	8	-0.092663	-79.2533	28.2738	33.1439
  66	1	8	-0.102536	-79.9437	27.1557	31.4223
  67	1	7	0.310197	-78.5498	25.2718	33.0447
  68	1	8	-0.10503	-79.3288	24.633	32.141
  69	1	8	-0.101207	-79.3608	25.6386	34.0609
  70	1	8	-0.097553	-77.7052	24.3306	33.5239
  71	1	3	-0.010565	-76.7058	27.1414	33.3061
  72	1	3	-0.081209	-76.5146	26.7757	34.6632
  73	1	3	-0.082072	-75.4358	27.3262	35.3654
  74	1	3	-0.061713	-75.7994	28.077	32.7285
  75	1	3	-0.146525	-74.7242	28.624	33.4553
  76	1	3	-0.036475	-74.5618	28.2173	34.7814
  77	1	2	0.474489	-73.5051	28.5543	35.7712
  78	1	1	-0.056758	-73.8143	27.821	36.9087
  79	1	2	0.480785	-74.97	27.0685	36.7503
  80	1	3	0.11186	-73.0375	27.8468	38.0973
  81	1	3	-0.193084	-71.6433	27.6847	38.0472
  82	1	3	-0.037687	-70.8757	27.7772	39.2149
  83	1	3	-0.413926	-73.655	28.0874	39.3349
  84	1	3	0.299417	-72.9015	28.2111	40.5213
  85	1	3	-0.384234	-71.5022	28.0448	40.4405
  86	1	6	0.146041	-71.1465	27.5092	37.0967
  87	1	6	0.136211	-69.7947	27.6581	39.1651
  88	1	6	0.166859	-74.0239	29.3191	32.9961
  89	1	6	0.137644	-75.9012	28.3559	31.6836
  90	1	6	0.148636	-77.1581	26.0686	35.1771
  91	1	5	-0.470939	-75.4701	26.285	37.5367
  92	1	5	-0.47569	-72.541	29.274	35.5748
  93	1	6	0.193108	-70.8895	28.1292	41.335
  94	1	6	0.21486	-74.7355	28.2136	39.3686
  95	1	1	0.473101	-69.9026	16.506	30.6633
  96	1	2	0.047723	-69.5333	16.2652	29.3373
  97	1	3	0.004987	-70.8029	15.9679	28.6216
  98	1	2	0.062675	-71.2718	16.3361	30.8684
  99	1	3	0.048591	-71.8392	16.0475	29.5276
 100	1	5	-0.383443	-68.4273	16.343	28.8294
 101	1	5	-0.390296	-71.8876	16.3748	31.9202
 102	1	3	-0.001908	-71.0259	15.6756	27.2695
 103	1	3	-0.038207	-73.168	15.9107	29.1204
 104	1	3	-0.215576	-73.4162	15.6568	27.7559
 105	1	3	-0.070363	-72.3618	15.5033	26.8115
 106	1	6	0.160197	-70.1635	15.5966	26.6166
 107	1	6	0.153305	-73.9822	16.0144	29.8347
 108	1	6	0.179436	-74.4522	15.5736	27.4348
 109	1	7	-0.074672	-72.727	15.1509	25.3354
 110	1	7	0.280369	-71.5017	15.2166	24.3403
 111	1	8	-0.106158	-70.8529	16.4018	24.3968
 112	1	8	-0.092663	-71.8948	15.0801	23.0532
 113	1	8	-0.102536	-70.5829	14.2524	24.5735
 114	1	7	0.310197	-73.2918	13.6739	25.3465
 115	1	8	-0.10503	-74.4898	13.5803	25.9663
 116	1	8	-0.101207	-72.4627	12.8346	26.0081
 117	1	8	-0.097553	-73.4591	13.1525	24.1101
 118	1	3	-0.010565	-73.7475	16.2124	24.8354
 119	1	3	-0.081209	-73.4567	17.578	25.0734
 120	1	3	-0.082072	-74.3264	18.5561	24.5863
 121	1	3	-0.061713	-74.9337	15.8943	24.1105
 122	1	3	-0.146525	-75.8173	16.8998	23.6578
 123	1	3	-0.036475	-75.483	18.2353	23.9102
 124	1	2	0.474489	-76.2031	19.504	23.5998
 125	1	1	-0.056758	-75.4055	20.5184	24.1102
 126	1	2	0.480785	-74.252	20.0297	24.7111
 127	1	3	0.11186	-75.7869	21.8847	24.1644
 128	1	3	-0.193084	-76.1921	22.6025	23.0288
 129	1	3	-0.037687	-76.5464	23.9578	23.1414
 130	1	3	-0.413926	-75.7559	22.5354	25.4012
 131	1	3	0.299417	-76.0932	23.8919	25.5455
 132	1	3	-0.384234	-76.4963	24.5976	24.3935
 133	1	6	0.146041	-76.2377	22.1095	22.061
 134	1	6	0.136211	-76.8644	24.5081	22.2575
 135	1	6	0.166859	-76.7331	16.6513	23.1253
 136	1	6	0.137644	-75.1941	14.8655	23.8888
 137	1	6	0.148636	-72.5683	17.884	25.6206
 138	1	5	-0.470939	-73.3747	20.6533	25.2847
 139	1	5	-0.47569	-77.2996	19.6094	23.0766
 140	1	6	0.193108	-76.7774	25.6449	24.4711
 141	1	6	0.21486	-75.4229	21.9733	26.2643
 142	1	1	0.473101	-76.8503	23.7639	38.6734
 143	1	2	0.047723	-75.8707	22.9186	38.1416
 144	1	3	0.004987	-74.6357	23.2223	38.9025
 145	1	2	0.062675	-76.3711	24.542	39.7311
 146	1	3	0.048591	-74.9265	24.2001	39.8297
 147	1	5	-0.383443	-75.9585	22.1308	37.2128
 148	1	5	-0.390296	-76.973	25.3529	40.4196
 149	1	3	-0.001908	-73.3508	22.6828	38.7721
 150	1	3	-0.038207	-73.9294	24.7225	40.6542
 151	1	3	-0.215576	-72.6158	24.2294	40.5065
 152	1	3	-0.070363	-72.2952	23.2062	39.5649
 153	1	6	0.160197	-73.1897	21.876	38.0616
 154	1	6	0.153305	-74.1686	25.4871	41.3874
 155	1	6	0.179436	-71.8607	24.6437	41.1664
 156	1	7	-0.074672	-70.8653	22.5837	39.4725
 157	1	7	0.280369	-69.7224	23.6207	39.7937
 158	1	8	-0.106158	-69.9039	24.7751	39.1154
 159	1	8	-0.092663	-68.5066	23.1521	39.4287
 160	1	8	-0.102536	-69.6195	23.9339	41.1045
 161	1	7	0.310197	-70.8447	21.4198	40.5369
 162	1	8	-0.10503	-71.6237	20.3867	40.1438
 163	1	8	-0.101207	-71.3258	21.8177	41.7371
 164	1	8	-0.097553	-69.6066	20.9324	40.7782
 165	1	3	-0.010565	-70.5761	22.0866	38.0181
 166	1	3	-0.081209	-69.8685	20.8827	37.7502
 167	1	3	-0.082072	-69.6058	20.5222	36.4225
 168	1	3	-0.061713	-70.9495	22.8966	36.9067
 169	1	3	-0.146525	-70.6987	22.5004	35.574
 170	1	3	-0.036475	-70.0234	21.2934	35.3604
 171	1	2	0.474489	-69.6191	20.6051	34.0997
 172	1	1	-0.056758	-68.9809	19.4357	34.4981
 173	1	2	0.480785	-68.8937	19.3367	35.8787
 174	1	3	0.11186	-68.5311	18.424	33.6022
 175	1	3	-0.193084	-67.2581	17.8434	33.7277
 176	1	3	-0.037687	-66.8514	16.8248	32.8526
 177	1	3	-0.413926	-69.3896	17.9603	32.5936
 178	1	3	0.299417	-69.005	16.9414	31.695
 179	1	3	-0.384234	-67.7204	16.3782	31.8437
 180	1	6	0.146041	-66.5829	18.1761	34.5115
 181	1	6	0.136211	-65.8613	16.3849	32.9567
 182	1	6	0.166859	-71.0128	23.1114	34.7303
 183	1	6	0.137644	-71.4514	23.846	37.0786
 184	1	6	0.148636	-69.5091	20.2253	38.5338
 185	1	5	-0.470939	-68.3188	18.4869	36.5349
 186	1	5	-0.47569	-69.7943	21.0113	32.9625
 187	1	6	0.193108	-67.3865	15.6011	31.1597
 188	1	6	0.21486	-70.3739	18.4071	32.513
 189	1	1	0.473101	-84.9619	30.7345	29.4237
 190	1	2	0.047723	-84.6632	29.857	30.4719
 191	1	3	0.004987	-84.6992	30.6856	31.704
 192	1	2	0.062675	-85.1329	32.0489	29.8673
 193	1	3	0.048591	-84.9775	31.9861	31.3429
 194	1	5	-0.383443	-84.4784	28.6515	30.4296
 195	1	5	-0.390296	-85.4032	33.047	29.219
 196	1	3	-0.001908	-84.5848	30.3043	33.0464
 197	1	3	-0.038207	-85.1477	32.9827	32.306
 198	1	3	-0.215576	-85.0491	32.6183	33.6655
 199	1	3	-0.070363	-84.774	31.2778	34.0633
 200	1	6	0.160197	-84.4007	29.2599	33.286
 201	1	6	0.153305	-85.3893	34.0005	32.0069
 202	1	6	0.179436	-85.2261	33.3979	34.3989
 203	1	7	-0.074672	-84.7721	30.82	35.5536
 204	1	7	0.280369	-84.6804	32.0076	36.5913
 205	1	8	-0.106158	-83.667	32.8573	36.3083
 206	1	8	-0.092663	-84.445	31.5547	37.8439
 207	1	8	-0.102536	-85.8094	32.7493	36.6578
 208	1	7	0.310197	-86.134	30.0513	35.7798
 209	1	8	-0.10503	-86.1826	28.8865	35.0942
 210	1	8	-0.101207	-87.1913	30.7768	35.3486
 211	1	8	-0.097553	-86.3731	29.7559	37.0775
 212	1	3	-0.010565	-83.509	29.9424	35.792
 213	1	3	-0.081209	-83.5465	28.6934	36.4693
 214	1	3	-0.082072	-82.3494	27.9915	36.666
 215	1	3	-0.061713	-82.2466	30.4293	35.3508
 216	1	3	-0.146525	-81.0525	29.7157	35.5768
 217	1	3	-0.036475	-81.1376	28.4907	36.2451
 218	1	2	0.474489	-80.0843	27.4934	36.5687
 219	1	1	-0.056758	-80.7476	26.4013	37.1192
 220	1	2	0.480785	-82.1136	26.6453	37.2524
 221	1	3	0.11186	-80.1238	25.1441	37.3871
 222	1	3	-0.193084	-80.7704	23.9466	37.0292
 223	1	3	-0.037687	-80.163	22.7058	37.2544
 224	1	3	-0.413926	-78.8331	25.0706	37.9491
 225	1	3	0.299417	-78.1891	23.8314	38.1641
 226	1	3	-0.384234	-78.8845	22.6518	37.8241
 227	1	6	0.146041	-81.7549	23.9692	36.5712
 228	1	6	0.136211	-80.6787	21.7894	36.9736
 229	1	6	0.166859	-80.0924	30.0933	35.2311
 230	1	6	0.137644	-82.1871	31.3809	34.8286
 231	1	6	0.148636	-84.4665	28.2516	36.8382
 232	1	5	-0.470939	-82.9871	25.8891	37.6409
 233	1	5	-0.47569	-78.8969	27.6152	36.3209
 234	1	6	0.193108	-78.4112	21.6829	37.9656
 235	1	6	0.21486	-78.306	25.9873	38.2074
 236	1	1	0.473101	-76.497	20.6181	28.8988
 237	1	2	0.047723	-76.9671	20.2571	27.6349
 238	1	3	0.004987	-78.149	21.1296	27.3921
 239	1	2	0.062675	-77.2722	21.6055	29.4995
 240	1	3	0.048591	-78.3272	21.9223	28.5084
 241	1	5	-0.383443	-76.4923	19.4483	26.8557
 242	1	5	-0.390296	-77.1007	22.1588	30.5727
 243	1	3	-0.001908	-78.9896	21.2335	26.2726
 244	1	3	-0.038207	-79.3622	22.8527	28.5833
 245	1	3	-0.215576	-80.2262	22.9623	27.4782
 246	1	3	-0.070363	-80.0553	22.1754	26.3027
 247	1	6	0.160197	-78.8087	20.5866	25.419
 248	1	6	0.153305	-79.4961	23.4626	29.4742
 249	1	6	0.179436	-81.0472	23.6729	27.5468
 250	1	7	-0.074672	-81.087	22.3315	25.1437
 251	1	7	0.280369	-80.543	21.8675	23.7366
 252	1	8	-0.106158	-80.4416	20.5258	23.6108
 253	1	8	-0.092663	-79.3195	22.3729	23.4736
 254	1	8	-0.102536	-81.3514	22.2869	22.7365
 255	1	7	0.310197	-82.3227	21.4359	25.5422
 256	1	8	-0.10503	-81.956	20.1609	25.8069
 257	1	8	-0.101207	-83.2649	21.3803	24.5738
 258	1	8	-0.097553	-82.9261	21.8776	26.6697
 259	1	3	-0.010565	-81.429	23.8491	25.0192
 260	1	3	-0.081209	-82.7506	24.3678	25.1027
 261	1	3	-0.082072	-82.9318	25.7571	25.1686
 262	1	3	-0.061713	-80.3542	24.7752	24.919
 263	1	3	-0.146525	-80.5573	26.1673	24.982
 264	1	3	-0.036475	-81.8649	26.6311	25.1359
 265	1	2	0.474489	-82.3663	28.0004	25.4271
 266	1	1	-0.056758	-83.7271	27.8513	25.6423
 267	1	2	0.480785	-84.1608	26.5475	25.4505
 268	1	3	0.11186	-84.5499	28.8744	26.1718
 269	1	3	-0.193084	-85.6273	29.3823	25.4322
 270	1	3	-0.037687	-86.4643	30.3581	25.9895
 271	1	3	-0.413926	-84.3169	29.3458	27.4748
 272	1	3	0.299417	-85.1571	30.3131	28.0655
 273	1	3	-0.384234	-86.2323	30.8121	27.2975
 274	1	6	0.146041	-85.8242	29.0112	24.4302
 275	1	6	0.136211	-87.3009	30.7492	25.4136
 276	1	6	0.166859	-79.7173	26.8587	24.9905
 277	1	6	0.137644	-79.3323	24.4109	24.8729
 278	1	6	0.148636	-83.6262	23.7331	25.1897
 279	1	5	-0.470939	-85.2843	26.1021	25.6052
 280	1	5	-0.47569	-81.6866	28.9986	25.5954
 281	1	6	0.193108	-86.9003	31.5601	27.718
 282	1	6	0.21486	-83.49	28.9323	28.0467
 283	1	1	0.473101	-69.9857	9.95305	38.9692
 284	1	2	0.047723	-70.6737	10.9634	39.6528
 285	1	3	0.004987	-70.9159	12.0316	38.6526
 286	1	2	0.062675	-69.737	10.3	37.6368
 287	1	3	0.048591	-70.3518	11.6439	37.4572
 288	1	5	-0.383443	-71.0317	10.9957	40.8188
 289	1	5	-0.390296	-69.1875	9.64289	36.7672
 290	1	3	-0.001908	-71.5876	13.2515	38.7949
 291	1	3	-0.038207	-70.415	12.4718	36.3325
 292	1	3	-0.215576	-71.0779	13.7131	36.4558
 293	1	3	-0.070363	-71.6922	14.1198	37.6751
 294	1	6	0.160197	-71.9893	13.5047	39.7698
 295	1	6	0.153305	-69.9493	12.1668	35.3981
 296	1	6	0.179436	-71.09	14.3754	35.5921
 297	1	7	-0.074672	-72.3381	15.5348	37.7875
 298	1	7	0.280369	-73.487	15.61	38.8681
 299	1	8	-0.106158	-74.2285	16.7318	38.7218
 300	1	8	-0.092663	-73.0402	15.6205	40.1438
 301	1	8	-0.102536	-74.3409	14.5667	38.7646
 302	1	7	0.310197	-71.1658	16.4998	38.203
 303	1	8	-0.10503	-70.245	16.5746	37.2203
 304	1	8	-0.101207	-70.5029	16.0603	39.2975
 305	1	8	-0.097553	-71.5824	17.7558	38.4837
 306	1	3	-0.010565	-73.0006	15.9213	36.4257
 307	1	3	-0.081209	-72.7657	17.1614	35.769
 308	1	3	-0.082072	-73.428	17.4351	34.565
 309	1	3	-0.061713	-73.9103	15.01	35.8182
 310	1	3	-0.146525	-74.5693	15.3065	34.6057
 311	1	3	-0.036475	-74.31	16.5405	33.9993
 312	1	2	0.474489	-74.7743	17.1042	32.6999
 313	1	1	-0.056758	-74.1006	18.3098	32.5486
 314	1	2	0.480785	-73.2911	18.5942	33.6431
 315	1	3	0.11186	-74.0977	19.0516	31.3334
 316	1	3	-0.193084	-72.8809	19.3388	30.6918
 317	1	3	-0.037687	-72.8536	19.9846	29.4508
 318	1	3	-0.413926	-75.2993	19.4567	30.7243
 319	1	3	0.299417	-75.291	20.1276	29.4816
 320	1	3	-0.384234	-74.0565	20.3675	28.8474
 321	1	6	0.146041	-71.9441	19.0622	31.1563
 322	1	6	0.136211	-71.9034	20.1997	28.964
 323	1	6	0.166859	-75.246	14.5932	34.1401
 324	1	6	0.137644	-74.102	14.0489	36.2883
 325	1	6	0.148636	-72.0811	17.9102	36.1504
 326	1	5	-0.470939	-72.5342	19.5372	33.8002
 327	1	5	-0.47569	-75.5259	16.5629	31.9047
 328	1	6	0.193108	-74.018	20.8831	27.891
 329	1	6	0.21486	-76.2446	19.2573	31.2223
 330	1	1	0.473101	-57.0495	0.334689	37.6999
 331	1	2	0.047723	-57.9639	-0.110575	38.6642
 332	1	3	0.004987	-59.2035	0.677301	38.4401
 333	1	2	0.062675	-57.6005	1.34442	36.8968
 334	1	3	0.048591	-58.9922	1.52749	37.3793
 335	1	5	-0.383443	-57.8319	-0.986074	39.5028
 336	1	5	-0.390296	-57.0823	1.9834	35.995
 337	1	3	-0.001908	-60.4352	0.619967	39.1026
 338	1	3	-0.038207	-60.0145	2.34754	36.894
 339	1	3	-0.215576	-61.2709	2.29142	37.5344
 340	1	3	-0.070363	-61.4993	1.45689	38.6647
 341	1	6	0.160197	-60.5419	-0.0867615	39.9179
 342	1	6	0.153305	-59.843	2.98886	36.032
 343	1	6	0.179436	-62.08	2.89843	37.1332
 344	1	7	-0.074672	-62.919	1.3983	39.309
 345	1	7	0.280369	-62.8814	0.980815	40.8303
 346	1	8	-0.106158	-64.0611	1.22318	41.447
 347	1	8	-0.092663	-61.945	1.6814	41.5097
 348	1	8	-0.102536	-62.6204	-0.331104	41.0258
 349	1	7	0.310197	-63.722	0.321204	38.4829
 350	1	8	-0.10503	-64.0241	0.776787	37.2458
 351	1	8	-0.101207	-64.8785	-0.0569957	39.0732
 352	1	8	-0.097553	-63.0061	-0.812942	38.3041
 353	1	3	-0.010565	-63.5841	2.81174	39.2852
 354	1	3	-0.081209	-64.9742	2.99163	39.0522
 355	1	3	-0.082072	-65.5317	4.26948	39.1838
 356	1	3	-0.061713	-62.8174	3.95817	39.6418
 357	1	3	-0.146525	-63.3982	5.24056	39.76
 358	1	3	-0.036475	-64.7738	5.36616	39.5314
 359	1	2	0.474489	-65.6943	6.52636	39.7196
 360	1	1	-0.056758	-66.9738	6.02626	39.5111
 361	1	2	0.480785	-66.9562	4.68737	39.1391
 362	1	3	0.11186	-68.1739	6.73292	39.8084
 363	1	3	-0.193084	-69.1067	6.14774	40.681
 364	1	3	-0.037687	-70.3087	6.79494	40.9822
 365	1	3	-0.413926	-68.4519	7.9995	39.2563
 366	1	3	0.299417	-69.6629	8.67565	39.5463
 367	1	3	-0.384234	-70.5848	8.0422	40.4092
 368	1	6	0.146041	-68.9074	5.17401	41.1209
 369	1	6	0.136211	-71.026	6.32605	41.6531
 370	1	6	0.166859	-62.8092	6.10126	40.071
 371	1	6	0.137644	-61.7596	3.84793	39.8677
 372	1	6	0.148636	-65.6429	2.16733	38.8309
 373	1	5	-0.470939	-67.9047	3.95256	38.9249
 374	1	5	-0.47569	-65.3769	7.64644	40.0812
 375	1	6	0.193108	-71.5271	8.5281	40.6513
 376	1	6	0.21486	-67.7267	8.45711	38.5876
 377	1	1	0.473101	-45.4482	-9.15415	43.7996
 378	1	2	0.047723	-46.378	-8.63974	44.7055
 379	1	3	0.004987	-47.2431	-7.73186	43.9089
 380	1	2	0.062675	-45.593	-8.61522	42.5218
 381	1	3	0.048591	-46.7815	-7.72458	42.6095
 382	1	5	-0.383443	-46.5442	-8.94479	45.8747
 383	1	5	-0.390296	-44.977	-8.89817	41.5079
 384	1	3	-0.001908	-48.4241	-7.07544	44.2775
 385	1	3	-0.038207	-47.4891	-7.068	41.5991
 386	1	3	-0.215576	-48.6923	-6.41537	41.9454
 387	1	3	-0.070363	-49.1771	-6.39002	43.2849
 388	1	6	0.160197	-48.7624	-7.16912	45.3035
 389	1	6	0.153305	-47.1435	-7.11401	40.5685
 390	1	6	0.179436	-49.2743	-5.96317	41.1453
 391	1	7	-0.074672	-50.5728	-5.76432	43.5981
 392	1	7	0.280369	-51.6155	-6.93476	43.4203
 393	1	8	-0.106158	-51.7141	-7.31522	42.1259
 394	1	8	-0.092663	-52.8556	-6.60999	43.8512
 395	1	8	-0.102536	-51.257	-8.0449	44.1054
 396	1	7	0.310197	-50.6723	-5.18647	45.0634
 397	1	8	-0.10503	-49.5871	-4.4435	45.3772
 398	1	8	-0.101207	-50.7866	-6.13608	46.0187
 399	1	8	-0.097553	-51.7483	-4.37881	45.2067
 400	1	3	-0.010565	-50.8388	-4.55726	42.643
 401	1	3	-0.081209	-52.0674	-4.37435	41.9503
 402	1	3	-0.082072	-52.2185	-3.26685	41.1061
 403	1	3	-0.061713	-49.8246	-3.57253	42.471
 404	1	3	-0.146525	-49.9937	-2.46811	41.6088
 405	1	3	-0.036475	-51.2103	-2.34439	40.9287
 406	1	2	0.474489	-51.6624	-1.35169	39.9136
 407	1	1	-0.056758	-52.9346	-1.75892	39.533
 408	1	2	0.480785	-53.3532	-2.8885	40.2217
 409	1	3	0.11186	-53.6593	-1.19429	38.4495
 410	1	3	-0.193084	-53.0951	-1.21391	37.1655
 411	1	3	-0.037687	-53.8232	-0.748532	36.066
 412	1	3	-0.413926	-54.9553	-0.673807	38.6276
 413	1	3	0.299417	-55.7158	-0.192138	37.5331
 414	1	3	-0.384234	-55.124	-0.259631	36.2501
 415	1	6	0.146041	-52.0925	-1.60568	37.0161
 416	1	6	0.136211	-53.3826	-0.776314	35.0711
 417	1	6	0.166859	-49.1998	-1.7383	41.4618
 418	1	6	0.137644	-48.879	-3.67762	42.9972
 419	1	6	0.148636	-52.8984	-5.06679	42.03
 420	1	5	-0.470939	-54.3869	-3.51582	40.0754
 421	1	5	-0.47569	-50.9976	-0.439397	39.4537
 422	1	6	0.193108	-55.6713	0.0805703	35.3751
 423	1	6	0.21486	-55.3852	-0.678227	39.6256
 424	1	1	0.473101	-32.9283	-16.5841	45.439
 425	1	2	0.047723	-33.6185	-15.7113	44.5935
 426	1	3	0.004987	-33.9581	-14.5332	45.4372
 427	1	2	0.062675	-32.8427	-16.1078	46.7457
 428	1	3	0.048591	-33.4985	-14.7773	46.7149
 429	1	5	-0.383443	-33.834	-15.8264	43.3983
 430	1	5	-0.390296	-32.286	-16.6162	47.7053
 431	1	3	-0.001908	-34.5177	-13.2964	45.083
 432	1	3	-0.038207	-33.5912	-13.8104	47.7156
 433	1	3	-0.215576	-34.1338	-12.5547	47.3766
 434	1	3	-0.070363	-34.5915	-12.2647	46.058
 435	1	6	0.160197	-34.8139	-13.1237	44.0514
 436	1	6	0.153305	-33.2004	-14.0108	48.711
 437	1	6	0.179436	-34.1383	-11.8001	48.1554
 438	1	7	-0.074672	-34.9945	-10.8249	45.6162
 439	1	7	0.280369	-35.3143	-9.85071	46.8237
 440	1	8	-0.106158	-35.9017	-8.7091	46.3966
 441	1	8	-0.092663	-34.2183	-9.47284	47.5201
 442	1	8	-0.102536	-36.1708	-10.3961	47.717
 443	1	7	0.310197	-33.7471	-10.25	44.8329
 444	1	8	-0.10503	-33.8584	-8.93281	44.5459
 445	1	8	-0.101207	-33.536	-10.8958	43.6634
 446	1	8	-0.097553	-32.6021	-10.3928	45.5395
 447	1	3	-0.010565	-36.3004	-10.8796	44.7645
 448	1	3	-0.081209	-37.4539	-11.4912	45.3221
 449	1	3	-0.082072	-38.6907	-11.3364	44.6781
 450	1	3	-0.061713	-36.4422	-10.2	43.518
 451	1	3	-0.146525	-37.6892	-10.0882	42.8695
 452	1	3	-0.036475	-38.8083	-10.6478	43.4913
 453	1	2	0.474489	-40.251	-10.5627	43.1351
 454	1	1	-0.056758	-40.9332	-11.195	44.1678
 455	1	2	0.480785	-40.0598	-11.7103	45.1235
 456	1	3	0.11186	-42.3554	-11.2822	44.2594
 457	1	3	-0.193084	-42.9566	-12.4905	44.6544
 458	1	3	-0.037687	-44.3467	-12.5919	44.7862
 459	1	3	-0.413926	-43.1807	-10.1716	43.9777
 460	1	3	0.299417	-44.5861	-10.2562	44.1011
 461	1	3	-0.384234	-45.1526	-11.4792	44.5131
 462	1	6	0.146041	-42.343	-13.3596	44.8758
 463	1	6	0.136211	-44.7955	-13.5308	45.1049
 464	1	6	0.166859	-37.7954	-9.52949	41.9414
 465	1	6	0.137644	-35.6041	-9.69846	43.0489
 466	1	6	0.148636	-37.4134	-12.0043	46.2802
 467	1	5	-0.470939	-40.3301	-12.3013	46.1547
 468	1	5	-0.47569	-40.7118	-9.9918	42.1621
 469	1	6	0.193108	-46.2306	-11.5642	44.6277
 470	1	6	0.21486	-42.733	-9.24023	43.6404
 471	1	1	0.473101	-18.0495	-18.7985	42.6108
 472	1	2	0.047723	-18.339	-19.4101	43.8328
 473	1	3	0.004987	-19.7843	-19.7422	43.771
 474	1	2	0.062675	-19.1693	-18.6855	41.7883
 475	1	3	0.048591	-20.2725	-19.3202	42.5517
 476	1	5	-0.383443	-17.5803	-19.6742	44.7511
 477	1	5	-0.390296	-19.2439	-18.2218	40.6621
 478	1	3	-0.001908	-20.5977	-20.3855	44.7117
 479	1	3	-0.038207	-21.599	-19.5503	42.1852
 480	1	3	-0.215576	-22.4362	-20.1966	43.1168
 481	1	3	-0.070363	-21.9692	-20.5936	44.4031
 482	1	6	0.160197	-20.1517	-20.6958	45.6506
 483	1	6	0.153305	-21.9641	-19.2385	41.2089
 484	1	6	0.179436	-23.4727	-20.375	42.8364
 485	1	7	-0.074672	-22.9794	-21.234	45.4043
 486	1	7	0.280369	-23.1721	-22.7307	44.9457
 487	1	8	-0.106158	-23.8471	-23.4833	45.8433
 488	1	8	-0.092663	-21.9828	-23.3448	44.749
 489	1	8	-0.102536	-23.8396	-22.8144	43.7727
 490	1	7	0.310197	-22.493	-21.2	46.9034
 491	1	8	-0.10503	-22.0788	-19.9643	47.2648
 492	1	8	-0.101207	-21.4735	-22.0529	47.1524
 493	1	8	-0.097553	-23.4881	-21.5282	47.7586
 494	1	3	-0.010565	-24.2894	-20.3922	45.3527
 495	1	3	-0.081209	-25.5866	-20.9731	45.3658
 496	1	3	-0.082072	-26.7049	-20.1355	45.2374
 497	1	3	-0.061713	-24.1889	-18.9731	45.2838
 498	1	3	-0.146525	-25.323	-18.1531	45.1347
 499	1	3	-0.036475	-26.5744	-18.7719	45.0974
 500	1	2	0.474489	-27.9242	-18.187	44.8993
 501	1	1	-0.056758	-28.8169	-19.2544	44.9537
 502	1	2	0.480785	-28.1559	-20.4631	45.1713
 503	1	3	0.11186	-30.2281	-19.1186	44.7636
 504	1	3	-0.193084	-30.9643	-20.0915	44.0615
 505	1	3	-0.037687	-32.3403	-19.9324	43.8411
 506	1	3	-0.413926	-30.9087	-17.981	45.2389
 507	1	3	0.299417	-32.2845	-17.7834	44.9992
 508	1	3	-0.384234	-32.9937	-18.7783	44.2987
 509	1	6	0.146041	-30.4731	-20.9803	43.6756
 510	1	6	0.136211	-32.8933	-20.6969	43.2984
 511	1	6	0.166859	-25.2338	-17.0728	45.0381
 512	1	6	0.137644	-23.2125	-18.4961	45.3072
 513	1	6	0.148636	-25.7453	-22.0436	45.4485
 514	1	5	-0.470939	-28.6311	-21.5806	45.2749
 515	1	5	-0.47569	-28.1515	-17.0107	44.6704
 516	1	6	0.193108	-34.053	-18.6462	44.0929
 517	1	6	0.21486	-30.3628	-17.2186	45.789
 518	1	1	0.473101	-6.57662	-26.232	37.9216
 519	1	2	0.047723	-7.80262	-25.584	38.1063
 520	1	3	0.004987	-8.20214	-25.8908	39.5067
 521	1	2	0.062675	-6.13164	-26.857	39.0934
 522	1	3	0.048591	-7.21433	-26.6583	40.0827
 523	1	5	-0.383443	-8.47557	-24.9778	37.2891
 524	1	5	-0.390296	-5.10316	-27.4839	39.2925
 525	1	3	-0.001908	-9.38338	-25.5926	40.1946
 526	1	3	-0.038207	-7.35657	-27.1919	41.3651
 527	1	3	-0.215576	-8.54711	-26.9202	42.0683
 528	1	3	-0.070363	-9.57395	-26.1116	41.5041
 529	1	6	0.160197	-10.1465	-24.9952	39.7016
 530	1	6	0.153305	-6.58014	-27.8277	41.7858
 531	1	6	0.179436	-8.65836	-27.3712	43.0492
 532	1	7	-0.074672	-10.9162	-25.824	42.2337
 533	1	7	0.280369	-12.0136	-26.7112	41.5212
 534	1	8	-0.106158	-12.2575	-26.3046	40.2547
 535	1	8	-0.092663	-13.2014	-26.7191	42.168
 536	1	8	-0.102536	-11.6202	-28.0017	41.4263
 537	1	7	0.310197	-10.9088	-26.1668	43.7758
 538	1	8	-0.10503	-10.8828	-27.4953	44.0275
 539	1	8	-0.101207	-12.0068	-25.6792	44.3979
 540	1	8	-0.097553	-9.85039	-25.622	44.4176
 541	1	3	-0.010565	-11.1735	-24.2957	42.1339
 542	1	3	-0.081209	-12.436	-23.7597	41.7807
 543	1	3	-0.082072	-12.6006	-22.3725	41.7768
 544	1	3	-0.061713	-10.1257	-23.389	42.4662
 545	1	3	-0.146525	-10.3208	-21.9913	42.4699
 546	1	3	-0.036475	-11.5865	-21.5073	42.1237
 547	1	2	0.474489	-12.135	-20.1212	42.1113
 548	1	1	-0.056758	-13.4768	-20.2567	41.7702
 549	1	2	0.480785	-13.8189	-21.5789	41.5099
 550	1	3	0.11186	-14.4278	-19.1988	41.7532
 551	1	3	-0.193084	-14.1398	-17.9482	41.1808
 552	1	3	-0.037687	-15.129	-16.9539	41.1144
 553	1	3	-0.413926	-15.7103	-19.4254	42.2772
 554	1	3	0.299417	-16.7276	-18.4615	42.1863
 555	1	3	-0.384234	-16.421	-17.2157	41.6017
 556	1	6	0.146041	-13.1518	-17.7475	40.7743
 557	1	6	0.136211	-14.9004	-15.9929	40.6571
 558	1	6	0.166859	-9.52426	-21.3077	42.7576
 559	1	6	0.137644	-9.15047	-23.7733	42.7547
 560	1	6	0.148636	-13.2934	-24.3792	41.539
 561	1	5	-0.470939	-14.8956	-22.0371	41.1653
 562	1	5	-0.47569	-11.5252	-19.1047	42.3965
 563	1	6	0.193108	-17.1961	-16.4602	41.4975
 564	1	6	0.21486	-15.9441	-20.3876	42.7268
 565	1	1	0.473101	0.807323	-18.0794	28.5323
 566	1	2	0.047723	0.248463	-19.1666	29.2036
 567	1	3	0.004987	-1.00634	-19.4735	28.4683
 568	1	2	0.062675	0.0535915	-17.6717	27.4366
 569	1	3	0.048591	-1.12052	-18.5782	27.4244
 570	1	5	-0.383443	0.644806	-19.7145	30.2182
 571	1	5	-0.390296	0.261748	-16.7408	26.6763
 572	1	3	-0.001908	-1.97883	-20.4542	28.7064
 573	1	3	-0.038207	-2.21839	-18.6045	26.5659
 574	1	3	-0.215576	-3.22028	-19.5665	26.8032
 575	1	3	-0.070363	-3.13422	-20.4987	27.8795
 576	1	6	0.160197	-1.8296	-21.1631	29.5172
 577	1	6	0.153305	-2.2869	-17.9015	25.7382
 578	1	6	0.179436	-4.05183	-19.5836	26.1084
 579	1	7	-0.074672	-4.19515	-21.6282	28.0764
 580	1	7	0.280369	-3.6256	-22.8679	27.2806
 581	1	8	-0.106158	-3.16187	-22.516	26.0593
 582	1	8	-0.092663	-2.5822	-23.4291	27.9337
 583	1	8	-0.102536	-4.53887	-23.8401	27.0592
 584	1	7	0.310197	-5.61957	-21.2444	27.5195
 585	1	8	-0.10503	-5.69398	-21.2516	26.169
 586	1	8	-0.101207	-5.99442	-20.0164	27.9443
 587	1	8	-0.097553	-6.57602	-22.1015	27.9445
 588	1	3	-0.010565	-4.40686	-21.937	29.5936
 589	1	3	-0.081209	-4.71866	-23.2468	30.0399
 590	1	3	-0.082072	-4.90957	-23.4812	31.4035
 591	1	3	-0.061713	-4.37425	-20.8991	30.5706
 592	1	3	-0.146525	-4.54074	-21.1658	31.9514
 593	1	3	-0.036475	-4.79543	-22.487	32.346
 594	1	2	0.474489	-4.95627	-23.1149	33.695
 595	1	1	-0.056758	-5.14704	-24.4764	33.461
 596	1	2	0.480785	-5.18722	-24.7571	32.0979
 597	1	3	0.11186	-5.18744	-25.4966	34.4642
 598	1	3	-0.193084	-4.53961	-26.7215	34.2157
 599	1	3	-0.037687	-4.61074	-27.7755	35.1277
 600	1	3	-0.413926	-5.85622	-25.3255	35.6967
 601	1	3	0.299417	-5.9094	-26.3692	36.6552
 602	1	3	-0.384234	-5.30477	-27.6022	36.3273
 603	1	6	0.146041	-3.99007	-26.8805	33.2927
 604	1	6	0.136211	-4.12918	-28.7249	34.9017
 605	1	6	0.166859	-4.47003	-20.3721	32.6928
 606	1	6	0.137644	-4.20025	-19.8719	30.2601
 607	1	6	0.148636	-4.81492	-24.0899	29.3656
 608	1	5	-0.470939	-5.36746	-25.8256	31.5394
 609	1	5	-0.47569	-4.86366	-22.5414	34.7672
 610	1	6	0.193108	-5.34787	-28.4394	37.0197
 611	1	6	0.21486	-6.34445	-24.3771	35.9108
 612	1	1	0.473101	15.8968	-21.3443	26.7433
 613	1	2	0.047723	15.5564	-20.0301	26.4116
 614	1	3	0.004987	14.1122	-20.0651	26.0819
 615	1	2	0.062675	14.8067	-22.214	26.6404
 616	1	3	0.048591	13.6592	-21.3548	26.2505
 617	1	5	-0.383443	16.2379	-19.0226	26.5015
 618	1	5	-0.390296	14.7634	-23.417	26.8412
 619	1	3	-0.001908	13.2585	-19.0194	25.7168
 620	1	3	-0.038207	12.3038	-21.6636	26.1194
 621	1	3	-0.215576	11.4152	-20.6144	25.8023
 622	1	3	-0.070363	11.8687	-19.2838	25.5729
 623	1	6	0.160197	13.6976	-18.037	25.5723
 624	1	6	0.153305	11.951	-22.679	26.2868
 625	1	6	0.179436	10.3548	-20.8455	25.7369
 626	1	7	-0.074672	10.825	-18.1858	25.197
 627	1	7	0.280369	11.439	-16.734	25.1129
 628	1	8	-0.106158	12.323	-16.6061	24.0975
 629	1	8	-0.092663	12.0676	-16.3838	26.2582
 630	1	8	-0.102536	10.487	-15.7905	24.9267
 631	1	7	0.310197	10.2418	-18.5735	23.7783
 632	1	8	-0.10503	9.42304	-19.648	23.8326
 633	1	8	-0.101207	9.52823	-17.5857	23.1927
 634	1	8	-0.097553	11.2302	-18.8933	22.9116
 635	1	3	-0.010565	9.75526	-18.1318	26.3246
 636	1	3	-0.081209	8.3742	-17.9242	26.0647
 637	1	3	-0.082072	7.49305	-17.7867	27.147
 638	1	3	-0.061713	10.1835	-18.1903	27.6814
 639	1	3	-0.146525	9.28295	-18.0387	28.7546
 640	1	3	-0.036475	7.93413	-17.8309	28.4528
 641	1	2	0.474489	6.7756	-17.5695	29.3484
 642	1	1	-0.056758	5.68741	-17.3805	28.5068
 643	1	2	0.480785	6.03068	-17.5107	27.167
 644	1	3	0.11186	4.3884	-17.0303	28.9652
 645	1	3	-0.193084	4.22525	-15.949	29.8488
 646	1	3	-0.037687	2.95143	-15.5797	30.3004
 647	1	3	-0.413926	3.25412	-17.7426	28.5347
 648	1	3	0.299417	1.96548	-17.3821	28.9794