pySIMM System Object

801 atoms
885 bonds
1530 angles
2410 dihedrals
272 impropers

8 atom types
10 bond types
16 angle types
7 dihedral types
4 improper types

-150.823574 150.823574 xlo xhi
-150.823574 150.823574 ylo yhi
-150.823574 150.823574 zlo zhi

Masses

   1	14.01	# n
   2	12.01	# c
   3	12.01	# ca
   4	1.008	# hn
   5	16.0	# o
   6	1.008	# ha
   7	12.01	# c3
   8	19.0	# f

Pair Coeffs

   1	0.17	3.249998523775958	# n
   2	0.086	3.3996695084235347	# c
   3	0.086	3.3996695084235347	# ca
   4	0.0157	1.069078461768407	# hn
   5	0.21	2.959921901149463	# o
   6	0.015	2.59964245953351	# ha
   7	0.1094	3.3996695084235347	# c3
   8	0.061	3.1181455134911875	# f

Bond Coeffs

   1	345.8	1.086	# ca,ha
   2	384.2	1.4121	# ca,n
   3	637.7	1.2183	# c,o
   4	321.0	1.5156	# c3,ca
   5	403.2	1.0129	# hn,n
   6	356.9	1.3497	# c3,f
   7	427.6	1.3789	# c,n
   8	461.1	1.3984	# ca,ca
   9	345.9	1.4906	# c,ca
  10	300.9	1.5375	# c3,c3

Angle Coeffs

   1	66.11	109.24	# c3,c3,f
   2	66.62	120.02	# ca,ca,ca
   3	63.53	120.77	# c3,ca,ca
   4	62.86	111.51	# c3,c3,c3
   5	63.74	127.08	# c,n,c
   6	63.15	112.07	# c3,c3,ca
   7	48.18	119.88	# ca,ca,ha
   8	70.89	107.36	# f,c3,f
   9	68.72	122.6	# ca,c,o
  10	63.82	123.71	# c,n,ca
  11	67.87	120.19	# ca,ca,n
  12	67.68	115.25	# ca,c,n
  13	63.56	112.24	# ca,c3,ca
  14	64.28	120.33	# c,ca,ca
  15	48.33	117.55	# c,n,hn
  16	74.22	123.05	# n,c,o

Dihedral Coeffs

   1	1	3.625	2	180	# X,ca,ca,X
   2	1	1.0	2	180	# X,c,ca,X
   3	1	0.15555555555555556	3	0	# X,c3,c3,X
   4	1	0.0	2	0	# X,c3,ca,X
   5	1	2.5	2	180	# X,c,n,X
   6	1	0.45	2	180	# X,ca,n,X
   7	2	2.5	2	180	2.0	1	0	# hn,n,c,o

Improper Coeffs

   1	1.1	-1	2	# ca,ca,ca,c3
   2	1.1	-1	2	# n,X,X,hn
   3	1.1	-1	2	# ca,X,X,ha
   4	10.5	-1	2	# c,X,X,o

Atoms

   1	1	1	0.473101	-9.91351	8.18768	40.6598
   2	1	2	0.047723	-11.0097	8.28688	41.5179
   3	1	3	0.004987	-10.5298	9.07885	42.6828
   4	1	2	0.062675	-8.787	8.84253	41.1549
   5	1	3	0.048591	-9.2059	9.39854	42.4691
   6	1	5	-0.383443	-12.1353	7.84507	41.3598
   7	1	5	-0.390296	-7.69961	8.98701	40.622
   8	1	3	-0.001908	-11.2019	9.47658	43.8467
   9	1	3	-0.038207	-8.48045	10.1312	43.4115
  10	1	3	-0.215576	-9.13113	10.5188	44.603
  11	1	3	-0.070363	-10.4944	10.1877	44.857
  12	1	6	0.160197	-12.2439	9.19457	43.9754
  13	1	6	0.153305	-7.43665	10.3781	43.2286
  14	1	6	0.179436	-8.54211	11.0747	45.3248
  15	1	7	-0.074672	-11.2286	10.558	46.1908
  16	1	7	0.280369	-10.2635	11.0432	47.3387
  17	1	8	-0.106158	-9.27067	10.1519	47.5596
  18	1	8	-0.092663	-10.906	11.1777	48.5219
  19	1	8	-0.102536	-9.69517	12.2425	47.0782
  20	1	7	0.310197	-12.2438	11.7127	45.8303
  21	1	8	-0.10503	-11.6589	12.6644	45.0682
  22	1	8	-0.101207	-12.752	12.3558	46.9054
  23	1	8	-0.097553	-13.297	11.2454	45.1228
  24	1	3	-0.010565	-11.9392	9.28541	46.7406
  25	1	3	-0.081209	-11.4008	8.0018	46.4616
  26	1	3	-0.082072	-12.107	6.86556	46.8656
  27	1	3	-0.061713	-13.116	9.35825	47.5419
  28	1	3	-0.146525	-13.7893	8.19852	47.9784
  29	1	3	-0.036475	-13.272	6.95733	47.5966
  30	1	2	0.474489	-13.8144	5.58494	47.7792
  31	1	1	-0.056758	-12.9422	4.75302	47.0947
  32	1	2	0.480785	-11.8684	5.43497	46.5453
  33	1	3	0.11186	-13.1874	3.3774	46.882
  34	1	3	-0.193084	-14.0656	2.97529	45.8614
  35	1	3	-0.037687	-14.3329	1.61445	45.6503
  36	1	3	-0.413926	-12.5707	2.40903	47.6891
  37	1	3	0.299417	-12.8331	1.0482	47.4815
  38	1	3	-0.384234	-13.7152	0.653232	46.4657
  39	1	6	0.146041	-14.546	3.71971	45.2328
  40	1	6	0.136211	-15.0177	1.30987	44.8612
  41	1	6	0.166859	-14.7061	8.26077	48.5615
  42	1	6	0.137644	-13.5351	10.3155	47.8294
  43	1	6	0.148636	-10.4817	7.87189	45.8956
  44	1	5	-0.470939	-10.9675	4.99337	45.8539
  45	1	5	-0.47569	-14.8534	5.28631	48.3413
  46	1	6	0.193108	-13.9182	-0.40239	46.3147
  47	1	6	0.21486	-11.8883	2.70485	48.4782
  48	1	1	0.473101	-4.26253	-6.02031	34.9419
  49	1	2	0.047723	-4.57918	-5.68683	36.2649
  50	1	3	0.004987	-5.13846	-4.31386	36.2113
  51	1	2	0.062675	-4.57703	-4.97281	34.0597
  52	1	3	0.048591	-5.12098	-3.87835	34.9082
  53	1	5	-0.383443	-4.38347	-6.3221	37.2881
  54	1	5	-0.390296	-4.44102	-4.91748	32.8483
  55	1	3	-0.001908	-5.57174	-3.49336	37.2549
  56	1	3	-0.038207	-5.51198	-2.57408	34.5816
  57	1	3	-0.215576	-5.92877	-1.71637	35.6276
  58	1	3	-0.070363	-5.98911	-2.16179	36.9793
  59	1	6	0.160197	-5.52383	-3.89251	38.2614
  60	1	6	0.153305	-5.45892	-2.22867	33.5511
  61	1	6	0.179436	-6.1791	-0.688061	35.3778
  62	1	7	-0.074672	-6.367	-1.19609	38.1489
  63	1	7	0.280369	-7.22768	-1.941	39.2459
  64	1	8	-0.106158	-8.17677	-2.72147	38.6801
  65	1	8	-0.092663	-7.87448	-1.07172	40.0558
  66	1	8	-0.102536	-6.50488	-2.7374	40.0647
  67	1	7	0.310197	-5.00013	-0.717558	38.7791
  68	1	8	-0.10503	-4.14933	-1.73891	39.0274
  69	1	8	-0.101207	-5.15801	-0.0810137	39.9621
  70	1	8	-0.097553	-4.34117	0.111946	37.9379
  71	1	3	-0.010565	-7.25414	0.00417494	37.6688
  72	1	3	-0.081209	-7.03544	1.33917	38.1133
  73	1	3	-0.082072	-7.95725	2.34018	37.786
  74	1	3	-0.061713	-8.41883	-0.243105	36.8864
  75	1	3	-0.146525	-9.32998	0.786233	36.5518
  76	1	3	-0.036475	-9.07474	2.07976	37.0277
  77	1	2	0.474489	-9.86531	3.34257	36.927
  78	1	1	-0.056758	-9.17138	4.29227	37.676
  79	1	2	0.480785	-7.99982	3.76627	38.2072
  80	1	3	0.11186	-9.6049	5.63943	37.8841
  81	1	3	-0.193084	-10.0932	6.40029	36.8066
  82	1	3	-0.037687	-10.5213	7.72203	36.9949
  83	1	3	-0.413926	-9.54728	6.23713	39.1626
  84	1	3	0.299417	-9.9697	7.57033	39.3704
  85	1	3	-0.384234	-10.4602	8.30105	38.2707
  86	1	6	0.146041	-10.15	5.96457	35.8128
  87	1	6	0.136211	-10.9016	8.29445	36.1509
  88	1	6	0.166859	-10.2293	0.578511	35.9749
  89	1	6	0.137644	-8.63771	-1.25625	36.5581
  90	1	6	0.148636	-6.20103	1.6252	38.7423
  91	1	5	-0.470939	-7.17432	4.32385	38.9091
  92	1	5	-0.47569	-10.9078	3.48277	36.3104
  93	1	6	0.193108	-10.7954	9.32575	38.4081
  94	1	6	0.21486	-9.15719	5.66883	40.003
  95	1	1	0.473101	-1.24978	-0.20636	26.71
  96	1	2	0.047723	-0.94825	-1.26203	25.8274
  97	1	3	0.004987	-0.60071	-2.42908	26.6796
  98	1	2	0.062675	-1.21466	-0.647389	28.044
  99	1	3	0.048591	-0.785997	-2.06367	27.9913
 100	1	5	-0.383443	-0.930515	-1.27676	24.6085
 101	1	5	-0.390296	-1.35126	-0.017211	29.0803
 102	1	3	-0.001908	-0.0378939	-3.66749	26.3324
 103	1	3	-0.038207	-0.446871	-2.9189	29.0382
 104	1	3	-0.215576	0.143599	-4.15514	28.7155
 105	1	3	-0.070363	0.361614	-4.56129	27.3653
 106	1	6	0.160197	0.150128	-3.87615	25.2843
 107	1	6	0.153305	-0.577579	-2.60312	30.071
 108	1	6	0.179436	0.475229	-4.77174	29.5462
 109	1	7	-0.074672	1.15653	-5.87252	27.0596
 110	1	7	0.280369	0.62033	-6.63705	25.7857
 111	1	8	-0.106158	-0.727608	-6.72861	25.7825
 112	1	8	-0.092663	1.09925	-7.90138	25.737
 113	1	8	-0.102536	0.960739	-6.0591	24.6127
 114	1	7	0.310197	2.65089	-5.42741	26.8156
 115	1	8	-0.10503	3.17654	-4.83926	27.9149
 116	1	8	-0.101207	2.76778	-4.50868	25.8298
 117	1	8	-0.097553	3.45353	-6.45999	26.471
 118	1	3	-0.010565	0.99889	-6.84978	28.2702
 119	1	3	-0.081209	-0.312976	-7.16942	28.7048
 120	1	3	-0.082072	-0.487	-7.87001	29.902
 121	1	3	-0.061713	2.09417	-7.34514	29.0411
 122	1	3	-0.146525	1.89526	-8.05295	30.2458
 123	1	3	-0.036475	0.582288	-8.2813	30.6679
 124	1	2	0.474489	0.0602204	-8.76488	31.977
 125	1	1	-0.056758	-1.30814	-8.54164	31.924
 126	1	2	0.480785	-1.7276	-8.08427	30.684
 127	1	3	0.11186	-2.15262	-8.53925	33.0614
 128	1	3	-0.193084	-2.38302	-9.70571	33.802
 129	1	3	-0.037687	-3.24619	-9.6711	34.9051
 130	1	3	-0.413926	-2.76061	-7.33462	33.4543
 131	1	3	0.299417	-3.64438	-7.26722	34.5534
 132	1	3	-0.384234	-3.87943	-8.46874	35.2632
 133	1	6	0.146041	-1.89532	-10.636	33.5233
 134	1	6	0.136211	-3.42539	-10.577	35.4815
 135	1	6	0.166859	2.73566	-8.35208	30.8702
 136	1	6	0.137644	3.12098	-7.13878	28.7636
 137	1	6	0.148636	-1.18936	-6.77916	28.193
 138	1	5	-0.470939	-2.84866	-7.74761	30.347
 139	1	5	-0.47569	0.728569	-9.09472	32.9411
 140	1	6	0.193108	-4.54759	-8.47501	36.1202
 141	1	6	0.21486	-2.55656	-6.441	32.8723
 142	1	1	0.473101	4.63344	9.88009	20.2246
 143	1	2	0.047723	4.1028	8.70016	20.7361
 144	1	3	0.004987	3.7706	7.88688	19.5425
 145	1	2	0.062675	4.69879	9.89466	18.8325
 146	1	3	0.048591	4.13297	8.58804	18.4114
 147	1	5	-0.383443	3.88271	8.40698	21.8999
 148	1	5	-0.390296	5.06503	10.7994	18.1002
 149	1	3	-0.001908	3.16626	6.63244	19.466
 150	1	3	-0.038207	3.9329	8.05605	17.1346
 151	1	3	-0.215576	3.33504	6.78101	17.0334
 152	1	3	-0.070363	2.91841	6.06196	18.1895
 153	1	6	0.160197	2.90524	6.12395	20.3911
 154	1	6	0.153305	4.23572	8.61485	16.2514
 155	1	6	0.179436	3.20269	6.36024	16.0408
 156	1	7	-0.074672	2.27143	4.65326	18.1076
 157	1	7	0.280369	1.46853	4.4027	16.7628
 158	1	8	-0.106158	0.745642	5.47833	16.3768
 159	1	8	-0.092663	0.593892	3.38035	16.899
 160	1	8	-0.102536	2.24589	4.09238	15.7014
 161	1	7	0.310197	3.45976	3.61983	18.2036
 162	1	8	-0.10503	4.17096	3.7635	19.3448
 163	1	8	-0.101207	4.36789	3.78819	17.2148
 164	1	8	-0.097553	3.02992	2.3395	18.1375
 165	1	3	-0.010565	1.25238	4.55051	19.2887
 166	1	3	-0.081209	1.42394	3.67838	20.4015
 167	1	3	-0.082072	0.520023	3.75351	21.4702
 168	1	3	-0.061713	0.143326	5.44558	19.3106
 169	1	3	-0.146525	-0.777262	5.473	20.3749
 170	1	3	-0.036475	-0.552253	4.6165	21.4535
 171	1	2	0.474489	-1.30361	4.45886	22.7234
 172	1	1	-0.056758	-0.614662	3.49762	23.4565
 173	1	2	0.480785	0.500101	3.02506	22.7681
 174	1	3	0.11186	-1.03297	3.04336	24.7425
 175	1	3	-0.193084	-1.5703	3.94778	25.6725
 176	1	3	-0.037687	-2.08699	3.48944	26.8866
 177	1	3	-0.413926	-0.947143	1.6825	25.0918
 178	1	3	0.299417	-1.43085	1.18221	26.3246
 179	1	3	-0.384234	-2.04028	2.12247	27.192
 180	1	6	0.146041	-1.62301	5.00819	25.4409
 181	1	6	0.136211	-2.53242	4.19404	27.5865
 182	1	6	0.166859	-1.62054	6.16042	20.3798
 183	1	6	0.137644	-0.00160083	6.15965	18.5074
 184	1	6	0.148636	2.24545	2.9735	20.4853
 185	1	5	-0.470939	1.29161	2.16479	23.112
 186	1	5	-0.47569	-2.33729	5.04208	23.0107
 187	1	6	0.193108	-2.4712	1.8095	28.1366
 188	1	6	0.21486	-0.477149	1.00876	24.3843
 189	1	1	0.473101	-1.92643	18.6649	27.1815
 190	1	2	0.047723	-0.738627	18.3929	26.5032
 191	1	3	0.004987	-0.797229	19.2193	25.2766
 192	1	2	0.062675	-2.70538	19.6277	26.5343
 193	1	3	0.048591	-1.96391	19.9515	25.288
 194	1	5	-0.383443	0.133079	17.5856	26.7783
 195	1	5	-0.390296	-3.80785	20.0483	26.8447
 196	1	3	-0.001908	0.0633534	19.2248	24.18
 197	1	3	-0.038207	-2.32067	20.7569	24.2019
 198	1	3	-0.215576	-1.47177	20.7657	23.0725
 199	1	3	-0.070363	-0.291941	19.9702	23.0257
 200	1	6	0.160197	0.953896	18.6013	24.2114
 201	1	6	0.153305	-3.24978	21.3229	24.2191
 202	1	6	0.179436	-1.76759	21.3741	22.223
 203	1	7	-0.074672	0.593148	19.8277	21.755
 204	1	7	0.280369	-0.136372	20.224	20.4108
 205	1	8	-0.106158	-1.36988	19.6789	20.3113
 206	1	8	-0.092663	0.553833	19.7877	19.3327
 207	1	8	-0.102536	-0.292584	21.5578	20.2551
 208	1	7	0.310197	1.84577	20.7617	21.9641
 209	1	8	-0.10503	2.60041	20.3703	23.0163
 210	1	8	-0.101207	1.4813	22.0359	22.2328
 211	1	8	-0.097553	2.65269	20.8038	20.8796
 212	1	3	-0.010565	0.94482	18.3143	21.6424
 213	1	3	-0.081209	2.277	17.8264	21.5655
 214	1	3	-0.082072	2.49166	16.4433	21.6059
 215	1	3	-0.061713	-0.117776	17.3666	21.7051
 216	1	3	-0.146525	0.119384	15.9797	21.7233
 217	1	3	-0.036475	1.44625	15.5483	21.6851
 218	1	2	0.474489	2.00786	14.1775	21.7536
 219	1	1	-0.056758	3.38685	14.3379	21.7242
 220	1	2	0.480785	3.76224	15.6705	21.6297
 221	1	3	0.11186	4.29637	13.2514	21.7837
 222	1	3	-0.193084	5.36636	13.2411	22.695
 223	1	3	-0.037687	6.21352	12.1253	22.7836
 224	1	3	-0.413926	4.0954	12.142	20.9517
 225	1	3	0.299417	4.9242	11.0113	21.0352
 226	1	3	-0.384234	5.98596	11.0091	21.9617
 227	1	6	0.146041	5.53827	14.0963	23.3439
 228	1	6	0.136211	7.03238	12.1222	23.5009
 229	1	6	0.166859	-0.696779	15.2633	21.7954
 230	1	6	0.137644	-1.14653	17.708	21.7831
 231	1	6	0.148636	3.14297	18.4784	21.5136
 232	1	5	-0.470939	4.88773	16.1362	21.6033
 233	1	5	-0.47569	1.36458	13.1434	21.8254
 234	1	6	0.193108	6.62335	10.1337	22.0557
 235	1	6	0.21486	3.26693	12.14	20.2479
 236	1	1	0.473101	2.61819	5.29441	26.1242
 237	1	2	0.047723	2.822	5.85241	27.3902
 238	1	3	0.004987	1.85489	6.97475	27.4882
 239	1	2	0.062675	1.75839	6.07148	25.3395
 240	1	3	0.048591	1.23868	7.12546	26.2643
 241	1	5	-0.383443	3.42224	5.3654	28.3338
 242	1	5	-0.390296	1.28158	5.7874	24.2524
 243	1	3	-0.001908	1.32959	7.54952	28.6538
 244	1	3	-0.038207	0.111156	7.94681	26.1327
 245	1	3	-0.215576	-0.437988	8.53243	27.2985
 246	1	3	-0.070363	0.118981	8.29466	28.5856
 247	1	6	0.160197	1.77395	7.25392	29.5973
 248	1	6	0.153305	-0.398446	8.02341	25.1746
 249	1	6	0.179436	-1.38197	9.06492	27.2077
 250	1	7	-0.074672	-0.753715	8.53225	29.8616
 251	1	7	0.280369	-1.59659	7.20067	30.0162
 252	1	8	-0.106158	-0.830533	6.08746	29.9498
 253	1	8	-0.092663	-2.50457	7.06947	29.021
 254	1	8	-0.102536	-2.25905	7.12113	31.193
 255	1	7	0.310197	0.105257	8.74709	31.1713
 256	1	8	-0.10503	0.669758	7.61558	31.6507
 257	1	8	-0.101207	-0.646569	9.23854	32.1835
 258	1	8	-0.097553	1.10795	9.63032	30.9686
 259	1	3	-0.010565	-1.65851	9.80626	29.726
 260	1	3	-0.081209	-1.07062	11.0619	29.4104
 261	1	3	-0.082072	-1.86461	12.2242	29.4472
 262	1	3	-0.061713	-3.05233	9.79283	30.0409
 263	1	3	-0.146525	-3.83197	10.9655	30.0589
 264	1	3	-0.036475	-3.20454	12.1774	29.7699
 265	1	2	0.474489	-3.74066	13.5656	29.8031
 266	1	1	-0.056758	-2.66387	14.3873	29.5043
 267	1	2	0.480785	-1.50399	13.6586	29.2562
 268	1	3	0.11186	-2.73961	15.8092	29.4891
 269	1	3	-0.193084	-3.2716	16.5092	30.5862
 270	1	3	-0.037687	-3.34036	17.91	30.5767
 271	1	3	-0.413926	-2.2888	16.535	28.3745
 272	1	3	0.299417	-2.3543	17.9454	28.3406
 273	1	3	-0.384234	-2.88206	18.6223	29.4587
 274	1	6	0.146041	-3.64089	15.9658	31.4517
 275	1	6	0.136211	-3.75741	18.4402	31.4311
 276	1	6	0.166859	-4.88606	10.9386	30.3296
 277	1	6	0.137644	-3.56517	8.88023	30.3155
 278	1	6	0.148636	-0.00883602	11.1449	29.1895
 279	1	5	-0.470939	-0.402401	14.0827	28.9571
 280	1	5	-0.47569	-4.88424	13.8903	30.0755
 281	1	6	0.193108	-2.95748	19.7074	29.4505
 282	1	6	0.21486	-1.86259	15.9981	27.5305
 283	1	1	0.473101	5.79549	-4.65375	14.9358
 284	1	2	0.047723	6.77884	-3.71469	15.2535
 285	1	3	0.004987	6.49699	-3.30221	16.6542
 286	1	2	0.062675	4.86334	-4.80476	15.9727
 287	1	3	0.048591	5.36255	-3.95146	17.0857
 288	1	5	-0.383443	7.76439	-3.40198	14.6076
 289	1	5	-0.390296	3.90875	-5.56319	16.0348
 290	1	3	-0.001908	7.3028	-2.57381	17.5344
 291	1	3	-0.038207	4.95767	-3.88163	18.4247
 292	1	3	-0.215576	5.7713	-3.16828	19.3366
 293	1	3	-0.070363	6.96916	-2.52439	18.9175
 294	1	6	0.160197	8.23212	-2.17522	17.1449
 295	1	6	0.153305	4.08554	-4.43832	18.7612
 296	1	6	0.179436	5.50695	-3.19519	20.3916
 297	1	7	-0.074672	8.0133	-2.03271	19.9677
 298	1	7	0.280369	8.99902	-3.25772	20.1596
 299	1	8	-0.106158	10.0849	-2.95364	20.9065
 300	1	8	-0.092663	9.48561	-3.73285	18.99
 301	1	8	-0.102536	8.37373	-4.30979	20.7373
 302	1	7	0.310197	8.83928	-0.785108	19.4592
 303	1	8	-0.10503	8.03376	0.149453	18.9071
 304	1	8	-0.101207	9.78033	-1.07935	18.5349
 305	1	8	-0.097553	9.50066	-0.181567	20.4738
 306	1	3	-0.010565	7.34079	-1.56859	21.3101
 307	1	3	-0.081209	6.35512	-0.536845	21.3045
 308	1	3	-0.082072	5.91601	0.0142324	22.528
 309	1	3	-0.061713	7.78944	-2.0415	22.5804
 310	1	3	-0.146525	7.32936	-1.49118	23.7897
 311	1	3	-0.036475	6.4086	-0.44534	23.7303
 312	1	2	0.474489	5.77289	0.314899	24.8343
 313	1	1	-0.056758	4.88153	1.19443	24.2325
 314	1	2	0.480785	4.92564	1.09846	22.8405
 315	1	3	0.11186	3.88915	1.88003	24.9989
 316	1	3	-0.193084	3.0465	1.08086	25.7922
 317	1	3	-0.037687	2.09814	1.65056	26.6421
 318	1	3	-0.413926	3.76781	3.29135	25.0684
 319	1	3	0.299417	2.79882	3.88374	25.9244
 320	1	3	-0.384234	1.97337	3.03932	26.6958
 321	1	6	0.146041	3.14539	-0.00033809	25.7696
 322	1	6	0.136211	1.47618	1.01936	27.271
 323	1	6	0.166859	7.69629	-1.85081	24.7496
 324	1	6	0.137644	8.53064	-2.82497	22.6709
 325	1	6	0.148636	5.96533	-0.141272	20.3696
 326	1	5	-0.470939	4.2715	1.72084	22.0223
 327	1	5	-0.47569	5.95138	0.116061	26.0244
 328	1	6	0.193108	1.23727	3.47041	27.3698
 329	1	6	0.21486	4.4207	3.91811	24.4694
 330	1	1	0.473101	8.74164	-4.16941	-1.47368
 331	1	2	0.047723	9.52226	-4.91837	-0.591867
 332	1	3	0.004987	8.89925	-4.73681	0.7439
 333	1	2	0.062675	7.73648	-3.45526	-0.816822
 334	1	3	0.048591	7.84125	-3.86195	0.615934
 335	1	5	-0.383443	10.4128	-5.70715	-0.860078
 336	1	5	-0.390296	6.83902	-2.79438	-1.31284
 337	1	3	-0.001908	9.12027	-5.46347	1.92031
 338	1	3	-0.038207	6.9757	-3.62642	1.69136
 339	1	3	-0.215576	7.18877	-4.34089	2.89351
 340	1	3	-0.070363	8.23119	-5.30036	3.0187
 341	1	6	0.160197	9.90638	-6.20981	1.90834
 342	1	6	0.153305	6.11419	-2.97333	1.56891
 343	1	6	0.179436	6.46791	-4.22212	3.70011
 344	1	7	-0.074672	8.19031	-6.31524	4.20246
 345	1	7	0.280369	9.55292	-7.09323	4.41266
 346	1	8	-0.106158	9.56649	-7.76448	5.58756
 347	1	8	-0.092663	10.6151	-6.25726	4.44034
 348	1	8	-0.102536	9.80871	-8.0142	3.45606
 349	1	7	0.310197	7.07593	-7.3658	3.80231
 350	1	8	-0.10503	5.83822	-6.81871	3.80636
 351	1	8	-0.101207	7.04245	-8.4451	4.61752
 352	1	8	-0.097553	7.2551	-7.84458	2.54973
 353	1	3	-0.010565	7.8971	-5.59983	5.56302
 354	1	3	-0.081209	6.90849	-6.07586	6.46532
 355	1	3	-0.082072	6.876	-5.58713	7.77445
 356	1	3	-0.061713	8.76115	-4.56498	6.02358
 357	1	3	-0.146525	8.72678	-4.10285	7.36274
 358	1	3	-0.036475	7.78318	-4.6636	8.2367
 359	1	2	0.474489	7.61747	-4.56533	9.72285
 360	1	1	-0.056758	6.62325	-5.48507	10.0587
 361	1	2	0.480785	6.07635	-6.07381	8.92172
 362	1	3	0.11186	6.30303	-5.92489	11.3856
 363	1	3	-0.193084	6.11003	-7.30172	11.6123
 364	1	3	-0.037687	5.77543	-7.7897	12.8772
 365	1	3	-0.413926	6.19164	-5.04162	12.4842
 366	1	3	0.299417	5.86245	-5.51483	13.7826
 367	1	3	-0.384234	5.65616	-6.9016	13.9502
 368	1	6	0.146041	6.21125	-8.01571	10.7998
 369	1	6	0.136211	5.61388	-8.85642	13.0225
 370	1	6	0.166859	9.45611	-3.38235	7.72864
 371	1	6	0.137644	9.52849	-4.17392	5.3602
 372	1	6	0.148636	6.22126	-6.87792	6.22317
 373	1	5	-0.470939	5.17713	-6.89339	8.84314
 374	1	5	-0.47569	8.30574	-3.89678	10.4737
 375	1	6	0.193108	5.40406	-7.30283	14.929
 376	1	6	0.21486	6.3973	-3.98347	12.3392
 377	1	1	0.473101	10.5709	2.76919	-15.9019
 378	1	2	0.047723	10.9135	3.31459	-14.6576
 379	1	3	0.004987	11.3327	2.16668	-13.812
 380	1	2	0.062675	10.7242	1.38053	-15.9212
 381	1	3	0.048591	11.2195	1.01717	-14.5622
 382	1	5	-0.383443	10.897	4.48279	-14.3059
 383	1	5	-0.390296	10.5367	0.610684	-16.849
 384	1	3	-0.001908	11.7735	2.14663	-12.4809
 385	1	3	-0.038207	11.5481	-0.226194	-14.0145
 386	1	3	-0.215576	11.9695	-0.272642	-12.6661
 387	1	3	-0.070363	12.0874	0.900525	-11.8648
 388	1	6	0.160197	11.8398	3.09665	-11.9628
 389	1	6	0.153305	11.4626	-1.13001	-14.6139
 390	1	6	0.179436	12.1904	-1.24652	-12.2364
 391	1	7	-0.074672	12.5128	0.760692	-10.3583
 392	1	7	0.280369	13.9841	0.179261	-10.3412
 393	1	8	-0.106158	14.0111	-1.14096	-10.6286
 394	1	8	-0.092663	14.6222	0.316556	-9.15776
 395	1	8	-0.102536	14.7645	0.795393	-11.2585
 396	1	7	0.310197	12.4899	2.13486	-9.58237
 397	1	8	-0.10503	11.2663	2.70953	-9.63298
 398	1	8	-0.101207	13.3872	3.02111	-10.0701
 399	1	8	-0.097553	12.7615	1.99803	-8.26431
 400	1	3	-0.010565	11.494	-0.154583	-9.60977
 401	1	3	-0.081209	11.8218	-0.814301	-8.38977
 402	1	3	-0.082072	10.8179	-1.51085	-7.69289
 403	1	3	-0.061713	10.1501	-0.240192	-10.074
 404	1	3	-0.146525	9.1672	-0.970176	-9.37944
 405	1	3	-0.036475	9.53075	-1.58788	-8.18038
 406	1	2	0.474489	8.71301	-2.39035	-7.23468
 407	1	1	-0.056758	9.57217	-2.76285	-6.21002
 408	1	2	0.480785	10.8558	-2.26102	-6.39897
 409	1	3	0.11186	9.20331	-3.71177	-5.21384
 410	1	3	-0.193084	8.81408	-4.99051	-5.64573
 411	1	3	-0.037687	8.40286	-5.96359	-4.73063
 412	1	3	-0.413926	9.18296	-3.41188	-3.83224
 413	1	3	0.299417	8.77422	-4.39063	-2.89025
 414	1	3	-0.384234	8.38358	-5.66025	-3.36477
 415	1	6	0.146041	8.81588	-5.22961	-6.70572
 416	1	6	0.136211	8.09985	-6.94825	-5.08146
 417	1	6	0.166859	8.14433	-1.03134	-9.74612
 418	1	6	0.137644	9.8407	0.282847	-10.9739
 419	1	6	0.148636	12.8165	-0.762499	-7.95755
 420	1	5	-0.470939	11.8339	-2.43192	-5.69323
 421	1	5	-0.47569	7.54793	-2.71024	-7.39557
 422	1	6	0.193108	8.07318	-6.42794	-2.66012
 423	1	6	0.21486	9.48167	-2.42484	-3.49174
 424	1	1	0.473101	0.698162	3.35929	-27.6751
 425	1	2	0.047723	1.20438	3.0767	-26.3924
 426	1	3	0.004987	1.52733	4.39403	-25.7726
 427	1	2	0.062675	0.669594	4.7393	-27.9142
 428	1	3	0.048591	1.19119	5.3723	-26.6806
 429	1	5	-0.383443	1.3624	1.99613	-25.8506
 430	1	5	-0.390296	0.350864	5.34556	-28.9246
 431	1	3	-0.001908	2.08664	4.71483	-24.5207
 432	1	3	-0.038207	1.35983	6.72348	-26.3872
 433	1	3	-0.215576	1.92351	7.06657	-25.1439
 434	1	3	-0.070363	2.33233	6.08096	-24.197
 435	1	6	0.160197	2.34001	3.91487	-23.8282
 436	1	6	0.153305	1.06565	7.48365	-27.108
 437	1	6	0.179436	2.03431	8.12513	-24.9437
 438	1	7	-0.074672	2.96781	6.4792	-22.8186
 439	1	7	0.280369	3.62026	7.92041	-22.8374
 440	1	8	-0.106158	4.385	8.15287	-21.7458
 441	1	8	-0.092663	2.71517	8.92595	-22.8652
 442	1	8	-0.102536	4.43934	8.07727	-23.9028
 443	1	7	0.310197	1.79363	6.45462	-21.7668
 444	1	8	-0.10503	2.08017	7.10051	-20.6134
 445	1	8	-0.101207	1.4535	5.18678	-21.4454
 446	1	8	-0.097553	0.675653	7.04227	-22.2531
 447	1	3	-0.010565	4.14049	5.51465	-22.4447
 448	1	3	-0.081209	4.50845	5.26114	-21.0922
 449	1	3	-0.082072	5.6919	4.5556	-20.8157
 450	1	3	-0.061713	5.00269	5.02622	-23.4664
 451	1	3	-0.146525	6.18466	4.31453	-23.1688
 452	1	3	-0.036475	6.51365	4.10159	-21.8244
 453	1	2	0.474489	7.78768	3.62178	-21.2121
 454	1	1	-0.056758	7.67284	3.88379	-19.8504
 455	1	2	0.480785	6.4116	4.36745	-19.5223
 456	1	3	0.11186	8.80588	4.07884	-19.0051
 457	1	3	-0.193084	9.60765	5.20055	-19.2694
 458	1	3	-0.037687	10.6939	5.51836	-18.4497
 459	1	3	-0.413926	9.11449	3.25936	-17.8945
 460	1	3	0.299417	10.2152	3.56456	-17.0481
 461	1	3	-0.384234	10.9912	4.70467	-17.3506
 462	1	6	0.146041	9.37777	5.8424	-20.1152
 463	1	6	0.136211	11.2947	6.40114	-18.6603
 464	1	6	0.166859	6.86655	4.00386	-23.9577
 465	1	6	0.137644	4.79482	5.25734	-24.5078
 466	1	6	0.148636	3.95617	5.67833	-20.2566
 467	1	5	-0.470939	6.03369	4.77064	-18.4367
 468	1	5	-0.47569	8.79642	3.31713	-21.8252
 469	1	6	0.193108	11.8277	4.97786	-16.7114
 470	1	6	0.21486	8.49942	2.38799	-17.6865
 471	1	1	0.473101	8.60746	-4.83086	-31.6824
 472	1	2	0.047723	7.57007	-4.64623	-30.764
 473	1	3	0.004987	6.42695	-5.41739	-31.2973
 474	1	2	0.062675	8.20695	-5.59465	-32.7836
 475	1	3	0.048591	6.79405	-5.9715	-32.5034
 476	1	5	-0.383443	7.56679	-4.01068	-29.7233
 477	1	5	-0.390296	8.87172	-5.96066	-33.7394
 478	1	3	-0.001908	5.1902	-5.68085	-30.7055
 479	1	3	-0.038207	5.91849	-6.80694	-33.2036
 480	1	3	-0.215576	4.65698	-7.08286	-32.6286
 481	1	3	-0.070363	4.27241	-6.53015	-31.372
 482	1	6	0.160197	4.9777	-5.26732	-29.7228
 483	1	6	0.153305	6.22553	-7.25685	-34.1452
 484	1	6	0.179436	4.00226	-7.76595	-33.1603
 485	1	7	-0.074672	2.956	-6.91745	-30.6402
 486	1	7	0.280369	1.82193	-7.43425	-31.6047
 487	1	8	-0.106158	1.67029	-6.63924	-32.687
 488	1	8	-0.092663	0.625364	-7.44709	-30.9767
 489	1	8	-0.102536	2.03133	-8.68913	-32.0646
 490	1	7	0.310197	3.34992	-8.06958	-29.6334
 491	1	8	-0.10503	4.14964	-7.61889	-28.6395
 492	1	8	-0.101207	4.04698	-9.05458	-30.2451
 493	1	8	-0.097553	2.27882	-8.66227	-29.0579
 494	1	3	-0.010565	2.38397	-5.64547	-29.9406
 495	1	3	-0.081209	2.243	-4.44751	-30.6933
 496	1	3	-0.082072	1.70713	-3.30793	-30.0743
 497	1	3	-0.061713	1.95114	-5.63941	-28.5817
 498	1	3	-0.146525	1.43266	-4.47968	-27.9745
 499	1	3	-0.036475	1.32798	-3.32297	-28.749
 500	1	2	0.474489	0.811314	-1.97895	-28.3905
 501	1	1	-0.056758	0.891606	-1.22387	-29.55
 502	1	2	0.480785	1.41821	-1.94786	-30.6139
 503	1	3	0.11186	0.4162	0.113009	-29.6262
 504	1	3	-0.193084	-0.546231	0.459619	-30.5845
 505	1	3	-0.037687	-1.12274	1.73395	-30.5749
 506	1	3	-0.413926	0.833855	1.07526	-28.6871
 507	1	3	0.299417	0.272035	2.37296	-28.6459
 508	1	3	-0.384234	-0.731473	2.66746	-29.6025
 509	1	6	0.146041	-0.854001	-0.265616	-31.3312
 510	1	6	0.136211	-1.87688	1.9943	-31.316
 511	1	6	0.166859	1.10889	-4.4809	-26.9346
 512	1	6	0.137644	2.00193	-6.52973	-27.9656
 513	1	6	0.148636	2.53307	-4.40029	-31.7407
 514	1	5	-0.470939	1.6161	-1.56665	-31.755
 515	1	5	-0.47569	0.414377	-1.63071	-27.2928
 516	1	6	0.193108	-1.21033	3.64239	-29.614
 517	1	6	0.21486	1.57729	0.784954	-27.95
 518	1	1	0.473101	6.73278	-3.71298	-22.3937
 519	1	2	0.047723	7.36515	-4.92612	-22.6709
 520	1	3	0.004987	8.79565	-4.71729	-22.3118
 521	1	2	0.062675	7.6	-2.77301	-21.8394
 522	1	3	0.048591	8.93154	-3.43391	-21.8294
 523	1	5	-0.383443	6.89686	-5.91268	-23.2131
 524	1	5	-0.390296	7.36186	-1.61902	-21.5226
 525	1	3	-0.001908	9.90566	-5.548	-22.5259
 526	1	3	-0.038207	10.1906	-2.90557	-21.5467
 527	1	3	-0.215576	11.3221	-3.70634	-21.8074
 528	1	3	-0.070363	11.2225	-5.04245	-22.2995
 529	1	6	0.160197	9.70877	-6.52936	-22.9377
 530	1	6	0.153305	10.2907	-1.87808	-21.2019
 531	1	6	0.179436	12.2861	-3.2361	-21.6583
 532	1	7	-0.074672	12.5259	-5.81636	-22.7359
 533	1	7	0.280369	13.6373	-5.63156	-21.6138
 534	1	8	-0.106158	14.2505	-4.42953	-21.6864
 535	1	8	-0.092663	14.6491	-6.5266	-21.6539
 536	1	8	-0.102536	13.1049	-5.74094	-20.3753
 537	1	7	0.310197	12.2707	-7.36518	-22.9411
 538	1	8	-0.10503	11.7455	-7.93575	-21.8336
 539	1	8	-0.101207	13.3853	-8.06174	-23.2599
 540	1	8	-0.097553	11.4374	-7.61741	-23.9751
 541	1	3	-0.010565	12.977	-5.26098	-24.1213
 542	1	3	-0.081209	12.0167	-4.68922	-24.9966
 543	1	3	-0.082072	12.3851	-4.35287	-26.301
 544	1	3	-0.061713	14.3021	-5.4357	-24.6164
 545	1	3	-0.146525	14.6493	-5.10159	-25.9471
 546	1	3	-0.036475	13.6528	-4.57794	-26.7821
 547	1	2	0.474489	13.6365	-4.31123	-28.2515
 548	1	1	-0.056758	12.3191	-3.97656	-28.5648
 549	1	2	0.480785	11.5296	-3.897	-27.421
 550	1	3	0.11186	11.7939	-3.88845	-29.8936
 551	1	3	-0.193084	12.528	-3.31802	-30.9487
 552	1	3	-0.037687	12.003	-3.28928	-32.2507
 553	1	3	-0.413926	10.5212	-4.41904	-30.1794
 554	1	3	0.299417	9.94351	-4.3496	-31.4643
 555	1	3	-0.384234	10.7178	-3.79605	-32.5042
 556	1	6	0.146041	13.5189	-2.90988	-30.7687
 557	1	6	0.136211	12.5932	-2.86855	-33.0627
 558	1	6	0.166859	15.6477	-5.29541	-26.3349
 559	1	6	0.137644	15.0648	-5.88889	-23.9915
 560	1	6	0.148636	10.9753	-4.56551	-24.7211
 561	1	5	-0.470939	10.3531	-3.59429	-27.3207
 562	1	5	-0.47569	14.5719	-4.48323	-29.0141
 563	1	6	0.193108	10.3236	-3.76431	-33.5174
 564	1	6	0.21486	9.93968	-4.86539	-29.3772
 565	1	1	0.473101	-3.51328	-10.7828	-24.0031
 566	1	2	0.047723	-3.03009	-10.5343	-22.7063
 567	1	3	0.004987	-3.56928	-9.20119	-22.3202
 568	1	2	0.062675	-4.37608	-9.7655	-24.4293
 569	1	3	0.048591	-4.32882	-8.73673	-23.3664
 570	1	5	-0.383443	-2.2275	-11.1761	-22.0487
 571	1	5	-0.390296	-5.03406	-9.68215	-25.4541
 572	1	3	-0.001908	-3.33052	-8.42071	-21.1773
 573	1	3	-0.038207	-4.8145	-7.43331	-23.3764
 574	1	3	-0.215576	-4.53321	-6.61369	-22.2667
 575	1	3	-0.070363	-3.83899	-7.08733	-21.1083
 576	1	6	0.160197	-2.7271	-8.8663	-20.3984
 577	1	6	0.153305	-5.36116	-7.05702	-24.2391
 578	1	6	0.179436	-4.89595	-5.59618	-22.3364
 579	1	7	-0.074672	-3.6149	-6.14292	-19.8579
 580	1	7	0.280369	-3.52283	-6.95097	-18.5004
 581	1	8	-0.106158	-4.62308	-7.71006	-18.3012
 582	1	8	-0.092663	-2.44253	-7.75644	-18.444
 583	1	8	-0.102536	-3.38137	-6.16627	-17.4072
 584	1	7	0.310197	-4.8455	-5.14221	-19.7499
 585	1	8	-0.10503	-4.67502	-4.103	-20.5976
 586	1	8	-0.101207	-5.03905	-4.57702	-18.5386
 587	1	8	-0.097553	-6.02589	-5.7396	-20.0348
 588	1	3	-0.010565	-2.29574	-5.3244	-20.0172
 589	1	3	-0.081209	-1.3013	-5.67043	-20.974
 590	1	3	-0.082072	-0.149027	-4.87109	-21.0789
 591	1	3	-0.061713	-2.05719	-4.18735	-19.19
 592	1	3	-0.146525	-0.907951	-3.38789	-19.3255
 593	1	3	-0.036475	0.0312995	-3.75433	-20.2892
 594	1	2	0.474489	1.30096	-3.09052	-20.6814
 595	1	1	-0.056758	1.82749	-3.87057	-21.6971
 596	1	2	0.480785	1.02626	-4.96641	-21.993
 597	1	3	0.11186	2.96687	-3.49009	-22.4499
 598	1	3	-0.193084	2.77935	-2.72167	-23.6088
 599	1	3	-0.037687	3.87827	-2.29088	-24.3611
 600	1	3	-0.413926	4.27227	-3.82721	-22.0398
 601	1	3	0.299417	5.39334	-3.40113	-22.7886
 602	1	3	-0.384234	5.17606	-2.63183	-23.9512
 603	1	6	0.146041	1.77506	-2.44532	-23.9234
 604	1	6	0.136211	3.71944	-1.68808	-25.2536
 605	1	6	0.166859	-0.751722	-2.50833	-18.7035
 606	1	6	0.137644	-2.77167	-3.89488	-18.4299
 607	1	6	0.148636	-1.40702	-6.52587	-21.6346
 608	1	5	-0.470939	1.21027	-5.81847	-22.8441
 609	1	5	-0.47569	1.73155	-2.04321	-20.2304
 610	1	6	0.193108	6.02364	-2.28712	-24.5384
 611	1	6	0.21486	4.41653	-4.41349	-21.1375
 612	1	1	0.473101	-0.297347	-8.70976	-38.1307
 613	1	2	0.047723	-1.08269	-9.15853	-37.0611
 614	1	3	0.004987	-0.622087	-10.5453	-36.8091
 615	1	2	0.062675	0.450164	-9.72913	-38.7157
 616	1	3	0.048591	0.2979	-10.8676	-37.7854
 617	1	5	-0.383443	-1.75572	-8.49923	-36.2867
 618	1	5	-0.390296	1.27635	-9.65123	-39.611
 619	1	3	-0.001908	-0.765659	-11.3104	-35.6418
 620	1	3	-0.038207	1.13319	-11.97	-37.6526
 621	1	3	-0.215576	1.05542	-12.7059	-36.4593
 622	1	3	-0.070363	0.139519	-12.3811	-35.4139
 623	1	6	0.160197	-1.48371	-10.987	-34.8953
 624	1	6	0.153305	1.90086	-12.1733	-38.3962
 625	1	6	0.179436	1.7769	-13.5072	-36.3426
 626	1	7	-0.074672	0.260014	-13.1134	-34.0364
 627	1	7	0.280369	-0.134499	-14.6312	-34.2549
 628	1	8	-0.106158	0.435848	-15.2035	-35.3364
 629	1	8	-0.092663	-1.46711	-14.7635	-34.4427
 630	1	8	-0.102536	0.232726	-15.4169	-33.2163
 631	1	7	0.310197	1.76153	-13.0141	-33.5413
 632	1	8	-0.10503	2.59817	-13.8866	-34.1448
 633	1	8	-0.101207	1.88011	-13.2479	-32.2137
 634	1	8	-0.097553	2.2732	-11.7789	-33.7573
 635	1	3	-0.010565	-0.578231	-12.4537	-32.8801
 636	1	3	-0.081209	-1.29654	-13.2424	-31.9351
 637	1	3	-0.082072	-1.73821	-12.6694	-30.7391
 638	1	3	-0.061713	-0.424671	-11.0671	-32.5798
 639	1	3	-0.146525	-0.91643	-10.5001	-31.3832
 640	1	3	-0.036475	-1.53315	-11.343	-30.4545
 641	1	2	0.474489	-1.88392	-11.1167	-29.0255
 642	1	1	-0.056758	-2.24314	-12.3663	-28.5148
 643	1	2	0.480785	-2.25159	-13.3365	-29.5148
 644	1	3	0.11186	-2.4222	-12.644	-27.119
 645	1	3	-0.193084	-1.95063	-13.8418	-26.5496
 646	1	3	-0.037687	-2.05109	-14.0692	-25.1708