pySIMM System Object

2258 atoms
2497 bonds
4320 angles
6812 dihedrals
768 impropers

8 atom types
10 bond types
16 angle types
7 dihedral types
4 improper types

-216.004029 216.004029 xlo xhi
-216.004029 216.004029 ylo yhi
-216.004029 216.004029 zlo zhi

Masses

   1	14.01	# n
   2	12.01	# c
   3	12.01	# ca
   4	1.008	# hn
   5	16.0	# o
   6	1.008	# ha
   7	12.01	# c3
   8	19.0	# f

Pair Coeffs

   1	0.17	3.249998523775958	# n
   2	0.086	3.3996695084235347	# c
   3	0.086	3.3996695084235347	# ca
   4	0.0157	1.069078461768407	# hn
   5	0.21	2.959921901149463	# o
   6	0.015	2.59964245953351	# ha
   7	0.1094	3.3996695084235347	# c3
   8	0.061	3.1181455134911875	# f

Bond Coeffs

   1	345.8	1.086	# ca,ha
   2	384.2	1.4121	# ca,n
   3	637.7	1.2183	# c,o
   4	321.0	1.5156	# c3,ca
   5	403.2	1.0129	# hn,n
   6	356.9	1.3497	# c3,f
   7	427.6	1.3789	# c,n
   8	461.1	1.3984	# ca,ca
   9	345.9	1.4906	# c,ca
  10	300.9	1.5375	# c3,c3

Angle Coeffs

   1	66.11	109.24	# c3,c3,f
   2	66.62	120.02	# ca,ca,ca
   3	63.53	120.77	# c3,ca,ca
   4	62.86	111.51	# c3,c3,c3
   5	63.74	127.08	# c,n,c
   6	63.15	112.07	# c3,c3,ca
   7	48.18	119.88	# ca,ca,ha
   8	70.89	107.36	# f,c3,f
   9	68.72	122.6	# ca,c,o
  10	63.82	123.71	# c,n,ca
  11	67.87	120.19	# ca,ca,n
  12	67.68	115.25	# ca,c,n
  13	63.56	112.24	# ca,c3,ca
  14	64.28	120.33	# c,ca,ca
  15	48.33	117.55	# c,n,hn
  16	74.22	123.05	# n,c,o

Dihedral Coeffs

   1	1	3.625	2	180	# X,ca,ca,X
   2	1	1.0	2	180	# X,c,ca,X
   3	1	0.15555555555555556	3	0	# X,c3,c3,X
   4	1	0.0	2	0	# X,c3,ca,X
   5	1	2.5	2	180	# X,c,n,X
   6	1	0.45	2	180	# X,ca,n,X
   7	2	2.5	2	180	2.0	1	0	# hn,n,c,o

Improper Coeffs

   1	1.1	-1	2	# ca,ca,ca,c3
   2	1.1	-1	2	# n,X,X,hn
   3	1.1	-1	2	# ca,X,X,ha
   4	10.5	-1	2	# c,X,X,o

Atoms

   1	1	1	0.473101	-71.7413	-42.9091	25.3529
   2	1	2	0.047723	-72.7267	-43.067	26.3303
   3	1	3	0.004987	-73.1407	-44.4874	26.2395
   4	1	2	0.062675	-71.4937	-44.0915	24.6492
   5	1	3	0.048591	-72.402	-45.1008	25.2519
   6	1	5	-0.383443	-73.1597	-42.2473	27.1239
   7	1	5	-0.390296	-70.7372	-44.2746	23.7081
   8	1	3	-0.001908	-74.1232	-45.1745	26.9548
   9	1	3	-0.038207	-72.5798	-46.4545	24.9535
  10	1	3	-0.215576	-73.5624	-47.1721	25.6707
  11	1	3	-0.070363	-74.3711	-46.5411	26.6593
  12	1	6	0.160197	-74.708	-44.6336	27.6945
  13	1	6	0.153305	-71.9839	-46.9289	24.177
  14	1	6	0.179436	-73.6972	-48.2196	25.4201
  15	1	7	-0.074672	-75.559	-47.2468	27.3797
  16	1	7	0.280369	-75.9803	-48.6264	26.7389
  17	1	8	-0.106158	-76.1906	-48.5338	25.4063
  18	1	8	-0.092663	-77.1414	-49.0815	27.2623
  19	1	8	-0.102536	-75.0607	-49.5997	26.9262
  20	1	7	0.310197	-75.1158	-47.4871	28.876
  21	1	8	-0.10503	-73.9238	-48.1226	28.9418
  22	1	8	-0.101207	-75.9942	-48.236	29.5801
  23	1	8	-0.097553	-74.9576	-46.3292	29.5561
  24	1	3	-0.010565	-76.7779	-46.2927	27.2199
  25	1	3	-0.081209	-77.0236	-45.7371	25.9379
  26	1	3	-0.082072	-78.0528	-44.8068	25.7804
  27	1	3	-0.061713	-77.636	-45.9135	28.2924
  28	1	3	-0.146525	-78.6709	-44.9691	28.1094
  29	1	3	-0.036475	-78.8477	-44.4186	26.8344
  30	1	2	0.474489	-79.7946	-43.3813	26.3385
  31	1	1	-0.056758	-79.4907	-43.2077	24.9916
  32	1	2	0.480785	-78.4643	-44.0463	24.576
  33	1	3	0.11186	-80.1307	-42.2691	24.1352
  34	1	3	-0.193084	-79.3698	-41.4735	23.2564
  35	1	3	-0.037687	-79.9941	-40.5618	22.3934
  36	1	3	-0.413926	-81.5299	-42.1239	24.146
  37	1	3	0.299417	-82.1573	-41.2021	23.2974
  38	1	3	-0.384234	-81.3896	-40.4303	22.4173
  39	1	6	0.146041	-78.2867	-41.5648	23.2292
  40	1	6	0.136211	-79.3972	-39.9533	21.7174
  41	1	6	0.166859	-79.3072	-44.6595	28.9367
  42	1	6	0.137644	-77.5034	-46.3264	29.2866
  43	1	6	0.148636	-76.4066	-45.991	25.0783
  44	1	5	-0.470939	-77.975	-44.1587	23.4655
  45	1	5	-0.47569	-80.6381	-42.8069	27.0067
  46	1	6	0.193108	-81.8783	-39.7061	21.7733
  47	1	6	0.21486	-82.1416	-42.7116	24.8229
  48	1	1	0.473101	-73.1254	-27.4017	23.278
  49	1	2	0.047723	-74.1636	-27.9576	24.0266
  50	1	3	0.004987	-73.9819	-29.4264	23.911
  51	1	2	0.062675	-72.255	-28.3683	22.7713
  52	1	3	0.048591	-72.8436	-29.6622	23.169
  53	1	5	-0.383443	-75.0949	-27.3931	24.5724
  54	1	5	-0.390296	-71.2823	-28.2254	22.0493
  55	1	3	-0.001908	-74.8102	-30.471	24.3376
  56	1	3	-0.038207	-72.4574	-30.95	22.8066
  57	1	3	-0.215576	-73.2671	-32.0148	23.2354
  58	1	3	-0.070363	-74.4461	-31.802	24.006
  59	1	6	0.160197	-75.7146	-30.2306	24.8861
  60	1	6	0.153305	-71.5796	-31.1138	22.1845
  61	1	6	0.179436	-72.983	-33.0197	22.9294
  62	1	7	-0.074672	-75.2938	-33.0388	24.4032
  63	1	7	0.280369	-76.3108	-32.7804	25.5861
  64	1	8	-0.106158	-75.7362	-32.1608	26.6409
  65	1	8	-0.092663	-76.8182	-33.94	26.0608
  66	1	8	-0.102536	-77.3677	-32.0155	25.2315
  67	1	7	0.310197	-76.1086	-33.4579	23.1154
  68	1	8	-0.10503	-76.853	-32.433	22.6401
  69	1	8	-0.101207	-76.9604	-34.4819	23.3473
  70	1	8	-0.097553	-75.3087	-33.8287	22.0901
  71	1	3	-0.010565	-74.2726	-34.1051	24.8956
  72	1	3	-0.081209	-74.1548	-35.3939	24.3149
  73	1	3	-0.082072	-73.1519	-36.2546	24.7768
  74	1	3	-0.061713	-73.3502	-33.7438	25.9199
  75	1	3	-0.146525	-72.351	-34.6266	26.3731
  76	1	3	-0.036475	-72.2778	-35.8868	25.7767
  77	1	2	0.474489	-71.3284	-37.0069	26.0037
  78	1	1	-0.056758	-71.6983	-37.9937	25.1026
  79	1	2	0.480785	-72.7896	-37.6236	24.3321
  80	1	3	0.11186	-71.0199	-39.2319	24.9767
  81	1	3	-0.193084	-69.6397	-39.2594	24.7237
  82	1	3	-0.037687	-68.9561	-40.4793	24.6581
  83	1	3	-0.413926	-71.7145	-40.4397	25.1527
  84	1	3	0.299417	-71.0428	-41.6803	25.1146
  85	1	3	-0.384234	-69.6541	-41.6784	24.8587
  86	1	6	0.146041	-69.089	-38.3308	24.5994
  87	1	6	0.136211	-67.8843	-40.4923	24.4688
  88	1	6	0.166859	-71.6443	-34.3359	27.1478
  89	1	6	0.137644	-73.385	-32.7498	26.3558
  90	1	6	0.148636	-74.8123	-35.7471	23.527
  91	1	5	-0.470939	-73.2968	-38.2383	23.4123
  92	1	5	-0.47569	-70.3847	-37.0065	26.7749
  93	1	6	0.193108	-69.1047	-42.6161	24.8187
  94	1	6	0.21486	-72.784	-40.4111	25.353
  95	1	1	0.473101	-68.3692	-31.0308	14.1091
  96	1	2	0.047723	-67.8669	-29.7409	13.9263
  97	1	3	0.004987	-69.047	-28.8421	14.0157
  98	1	2	0.062675	-69.7562	-31.0439	14.2553
  99	1	3	0.048591	-70.1678	-29.6155	14.2329
 100	1	5	-0.383443	-66.7086	-29.3893	13.7774
 101	1	5	-0.390296	-70.4919	-32.0108	14.3649
 102	1	3	-0.001908	-69.1178	-27.4467	13.9234
 103	1	3	-0.038207	-71.4227	-29.0292	14.4191
 104	1	3	-0.215576	-71.5113	-27.6224	14.3577
 105	1	3	-0.070363	-70.3762	-26.8058	14.09
 106	1	6	0.160197	-68.2015	-26.903	13.7213
 107	1	6	0.153305	-72.3	-29.6435	14.6099
 108	1	6	0.179436	-72.4877	-27.1649	14.5046
 109	1	7	-0.074672	-70.5762	-25.2664	13.9319
 110	1	7	0.280369	-69.2257	-24.4471	13.9383
 111	1	8	-0.106158	-68.4462	-24.753	15.0002
 112	1	8	-0.092663	-69.4516	-23.1157	14.0171
 113	1	8	-0.102536	-68.4774	-24.6473	12.83
 114	1	7	0.310197	-71.2953	-25.056	12.5417
 115	1	8	-0.10503	-72.5654	-25.5205	12.5461
 116	1	8	-0.101207	-70.6597	-25.7205	11.5494
 117	1	8	-0.097553	-71.3529	-23.7599	12.1599
 118	1	3	-0.010565	-71.3997	-24.7473	15.1471
 119	1	3	-0.081209	-70.9953	-25.1385	16.4469
 120	1	3	-0.082072	-71.6822	-24.6354	17.556
 121	1	3	-0.061713	-72.5069	-23.8551	15.0303
 122	1	3	-0.146525	-73.2083	-23.3883	16.1643
 123	1	3	-0.036475	-72.768	-23.7968	17.4276
 124	1	2	0.474489	-73.3126	-23.5284	18.7907
 125	1	1	-0.056758	-72.4952	-24.2354	19.661
 126	1	2	0.480785	-71.4769	-24.9089	18.9965
 127	1	3	0.11186	-72.7733	-24.4272	21.04
 128	1	3	-0.193084	-72.9832	-23.3653	21.9335
 129	1	3	-0.037687	-73.2416	-23.6272	23.291
 130	1	3	-0.413926	-72.8425	-25.7372	21.5207
 131	1	3	0.299417	-73.0769	-26.0311	22.8729
 132	1	3	-0.384234	-73.2902	-24.9544	23.758
 133	1	6	0.146041	-72.9522	-22.3392	21.576
 134	1	6	0.136211	-73.4098	-22.7989	23.9772
 135	1	6	0.166859	-74.0695	-22.7302	16.0665
 136	1	6	0.137644	-72.8486	-23.5109	14.0611
 137	1	6	0.148636	-70.1604	-25.818	16.6009
 138	1	5	-0.470939	-70.6262	-25.647	19.4642
 139	1	5	-0.47569	-74.322	-22.8992	19.0615
 140	1	6	0.193108	-73.4951	-25.1473	24.8082
 141	1	6	0.21486	-72.6658	-26.5478	20.8252
 142	1	1	0.473101	-74.719	-39.242	21.003
 143	1	2	0.047723	-73.7415	-38.733	20.14
 144	1	3	0.004987	-72.5661	-39.6174	20.3137
 145	1	2	0.062675	-74.2943	-40.3966	21.6697
 146	1	3	0.048591	-72.8857	-40.5945	21.231
 147	1	5	-0.383443	-73.7815	-37.739	19.431
 148	1	5	-0.390296	-74.9025	-41.0829	22.4775
 149	1	3	-0.001908	-71.3009	-39.5393	19.7231
 150	1	3	-0.038207	-71.9386	-41.543	21.6217
 151	1	3	-0.215576	-70.6408	-41.4562	21.0734
 152	1	3	-0.070363	-70.2881	-40.4494	20.127
 153	1	6	0.160197	-71.1227	-38.7692	18.9782
 154	1	6	0.153305	-72.2013	-42.3213	22.3318
 155	1	6	0.179436	-69.9222	-42.2071	21.3865
 156	1	7	-0.074672	-68.8685	-40.3858	19.4791
 157	1	7	0.280369	-67.7195	-40.7732	20.4891
 158	1	8	-0.106158	-67.8691	-40.1441	21.6755
 159	1	8	-0.092663	-66.5039	-40.4139	20.0157
 160	1	8	-0.102536	-67.6394	-42.0962	20.7534
 161	1	7	0.310197	-68.8905	-41.4147	18.2852
 162	1	8	-0.10503	-69.7304	-41.0089	17.3079
 163	1	8	-0.101207	-69.33	-42.636	18.6651
 164	1	8	-0.097553	-67.6728	-41.6098	17.7305
 165	1	3	-0.010565	-68.555	-38.921	19.0259
 166	1	3	-0.081209	-68.0163	-38.5994	17.7489
 167	1	3	-0.082072	-67.7628	-37.2576	17.4303
 168	1	3	-0.061713	-68.7775	-37.8505	19.94
 169	1	3	-0.146525	-68.5328	-36.5053	19.5922
 170	1	3	-0.036475	-68.0268	-36.2373	18.3168
 171	1	2	0.474489	-67.7079	-34.9443	17.6503
 172	1	1	-0.056758	-67.292	-35.2744	16.3642
 173	1	2	0.480785	-67.2532	-36.6503	16.1705
 174	1	3	0.11186	-67.0001	-34.317	15.3474
 175	1	3	-0.193084	-65.9231	-34.4986	14.462
 176	1	3	-0.037687	-65.6624	-33.5625	13.4515
 177	1	3	-0.413926	-67.8091	-33.1759	15.2004
 178	1	3	0.299417	-67.5562	-32.2084	14.2037
 179	1	3	-0.384234	-66.4754	-32.4261	13.3245
 180	1	6	0.146041	-65.2827	-35.3723	14.5504
 181	1	6	0.136211	-64.8237	-33.715	12.7746
 182	1	6	0.166859	-68.738	-35.6921	20.2857
 183	1	6	0.137644	-69.1715	-38.0629	20.9308
 184	1	6	0.148636	-67.8007	-39.3484	16.9949
 185	1	5	-0.470939	-66.9079	-37.2603	15.1727
 186	1	5	-0.47569	-67.7885	-33.8361	18.1534
 187	1	6	0.193108	-66.2476	-31.6949	12.5521
 188	1	6	0.21486	-68.6427	-33.0304	15.8827
 189	1	1	0.473101	-81.6651	-30.3219	29.9577
 190	1	2	0.047723	-81.4754	-31.1981	28.8819
 191	1	3	0.004987	-81.5504	-32.5624	29.463
 192	1	2	0.062675	-81.8015	-31.0017	31.172
 193	1	3	0.048591	-81.746	-32.4436	30.8217
 194	1	5	-0.383443	-81.3449	-30.9386	27.6964
 195	1	5	-0.390296	-81.9761	-30.546	32.2908
 196	1	3	-0.001908	-81.5429	-33.8101	28.8276
 197	1	3	-0.038207	-81.9372	-33.5695	31.6253
 198	1	3	-0.215576	-81.9527	-34.8358	31.0036
 199	1	3	-0.070363	-81.7665	-34.9817	29.5984
 200	1	6	0.160197	-81.4221	-33.8546	27.7479
 201	1	6	0.153305	-82.1144	-33.459	32.6931
 202	1	6	0.179436	-82.1531	-35.6932	31.6374
 203	1	7	-0.074672	-81.9159	-36.3469	28.8629
 204	1	7	0.280369	-81.8624	-37.6041	29.819
 205	1	8	-0.106158	-80.7938	-37.5746	30.6474
 206	1	8	-0.092663	-81.7564	-38.7558	29.1177
 207	1	8	-0.102536	-82.96	-37.7306	30.5991
 208	1	7	0.310197	-83.3283	-36.3106	28.1535
 209	1	8	-0.10503	-83.3747	-35.4032	27.1516
 210	1	8	-0.101207	-84.3087	-35.9547	29.015
 211	1	8	-0.097553	-83.6927	-37.5007	27.625
 212	1	3	-0.010565	-80.7223	-36.5068	27.8771
 213	1	3	-0.081209	-80.8862	-36.9038	26.5232
 214	1	3	-0.082072	-79.749	-37.0901	25.728
 215	1	3	-0.061713	-79.3986	-36.3092	28.362
 216	1	3	-0.146525	-78.2666	-36.5257	27.5489
 217	1	3	-0.036475	-78.4771	-36.9268	26.2255
 218	1	2	0.474489	-77.511	-37.2138	25.1315
 219	1	1	-0.056758	-78.2771	-37.4937	24.0027
 220	1	2	0.480785	-79.6407	-37.4562	24.2934
 221	1	3	0.11186	-77.7405	-37.7098	22.6932
 222	1	3	-0.193084	-78.3929	-37.1714	21.5682
 223	1	3	-0.037687	-77.8932	-37.3752	20.2775
 224	1	3	-0.413926	-76.5406	-38.4251	22.4922
 225	1	3	0.299417	-75.9919	-38.6079	21.201
 226	1	3	-0.384234	-76.7058	-38.0944	20.0983
 227	1	6	0.146041	-79.2999	-36.5856	21.6839
 228	1	6	0.136211	-78.4168	-36.956	19.4204
 229	1	6	0.166859	-77.2581	-36.386	27.9327
 230	1	6	0.137644	-79.2422	-36.0021	29.393
 231	1	6	0.148636	-81.8578	-37.0797	26.0737
 232	1	5	-0.470939	-80.5869	-37.5874	23.5362
 233	1	5	-0.47569	-76.2976	-37.1783	25.2363
 234	1	6	0.193108	-76.3099	-38.2146	19.0925
 235	1	6	0.21486	-76.001	-38.8244	23.3486
 236	1	1	0.473101	-74.3707	-28.7809	19.2846
 237	1	2	0.047723	-74.6787	-27.4205	19.193
 238	1	3	0.004987	-75.7364	-27.1812	20.2163
 239	1	2	0.062675	-75.1424	-29.4378	20.239
 240	1	3	0.048591	-76.0139	-28.3904	20.8223
 241	1	5	-0.383443	-74.1651	-26.5797	18.4749
 242	1	5	-0.390296	-75.0719	-30.599	20.6046
 243	1	3	-0.001908	-76.3875	-25.9968	20.6038
 244	1	3	-0.038207	-76.9725	-28.4982	21.8281
 245	1	3	-0.215576	-77.6494	-27.3283	22.218
 246	1	3	-0.070363	-77.3636	-26.0585	21.6386
 247	1	6	0.160197	-76.1329	-25.0674	20.1016
 248	1	6	0.153305	-77.1886	-29.4608	22.2866
 249	1	6	0.179436	-78.4105	-27.4204	22.9898
 250	1	7	-0.074672	-78.1804	-24.8199	22.1236
 251	1	7	0.280369	-77.4598	-23.4379	21.869
 252	1	8	-0.106158	-77.4555	-23.0576	20.5724
 253	1	8	-0.092663	-76.17	-23.4546	22.2636
 254	1	8	-0.102536	-78.0564	-22.4402	22.5607
 255	1	7	0.310197	-79.5368	-24.8486	21.3195
 256	1	8	-0.10503	-79.3312	-24.8764	19.9828
 257	1	8	-0.101207	-80.3187	-23.7753	21.5755
 258	1	8	-0.097553	-80.2655	-25.9553	21.592
 259	1	3	-0.010565	-78.3675	-24.9597	23.6683
 260	1	3	-0.081209	-79.6367	-25.0079	24.3098
 261	1	3	-0.082072	-79.6979	-25.3418	25.6713
 262	1	3	-0.061713	-77.2101	-25.1696	24.4677
 263	1	3	-0.146525	-77.2919	-25.4986	25.8343
 264	1	3	-0.036475	-78.5605	-25.6036	26.4068
 265	1	2	0.474489	-78.9671	-26.1192	27.7409
 266	1	1	-0.056758	-80.352	-26.158	27.7101
 267	1	2	0.480785	-80.8751	-25.657	26.5264
 268	1	3	0.11186	-81.1341	-26.8096	28.695
 269	1	3	-0.193084	-82.0942	-26.1059	29.436
 270	1	3	-0.037687	-82.8921	-26.7795	30.3708
 271	1	3	-0.413926	-80.9785	-28.1912	28.8951
 272	1	3	0.299417	-81.7826	-28.8972	29.8144
 273	1	3	-0.384234	-82.741	-28.1642	30.5493
 274	1	6	0.146041	-82.231	-25.0396	29.2786
 275	1	6	0.136211	-83.6373	-26.231	30.9442
 276	1	6	0.166859	-76.4003	-25.7432	26.4081
 277	1	6	0.137644	-76.2282	-25.1616	24.0052
 278	1	6	0.148636	-80.5708	-24.8705	23.7753
 279	1	5	-0.470939	-82.0454	-25.5948	26.1926
 280	1	5	-0.47569	-78.2246	-26.5628	28.6005
 281	1	6	0.193108	-83.3799	-28.6709	31.2687
 282	1	6	0.21486	-80.2391	-28.7282	28.3065
 283	1	1	0.473101	-69.0327	-39.9878	8.69622
 284	1	2	0.047723	-69.9398	-40.4584	9.65625
 285	1	3	0.004987	-70.1667	-39.3286	10.5882
 286	1	2	0.062675	-68.6397	-38.6693	8.95899
 287	1	3	0.048591	-69.384	-38.2689	10.1885
 288	1	5	-0.383443	-70.4571	-41.5594	9.75476
 289	1	5	-0.390296	-67.8904	-37.9552	8.31201
 290	1	3	-0.001908	-70.989	-39.2621	11.7186
 291	1	3	-0.038207	-69.3688	-37.0778	10.9235
 292	1	3	-0.215576	-70.1774	-36.9941	12.0815
 293	1	3	-0.070363	-71.0126	-38.0722	12.4938
 294	1	6	0.160197	-71.5552	-40.1453	11.9929
 295	1	6	0.153305	-68.7254	-36.2543	10.6213
 296	1	6	0.179436	-70.1195	-36.0876	12.6805
 297	1	7	-0.074672	-71.7963	-38.0021	13.8406
 298	1	7	0.280369	-73.1555	-38.8108	13.8075
 299	1	8	-0.106158	-73.9618	-38.4613	14.8361
 300	1	8	-0.092663	-73.0066	-40.1513	13.8943
 301	1	8	-0.102536	-73.8518	-38.5822	12.6719
 302	1	7	0.310197	-70.8484	-38.6512	14.9173
 303	1	8	-0.10503	-69.7199	-37.9305	15.0579
 304	1	8	-0.101207	-70.4366	-39.8923	14.5723
 305	1	8	-0.097553	-71.4279	-38.7577	16.1348
 306	1	3	-0.010565	-72.1752	-36.5202	14.1751
 307	1	3	-0.081209	-71.7981	-35.875	15.3859
 308	1	3	-0.082072	-72.2407	-34.5711	15.6378
 309	1	3	-0.061713	-72.9746	-35.7807	13.2567
 310	1	3	-0.146525	-73.4295	-34.4735	13.5405
 311	1	3	-0.036475	-73.0547	-33.8928	14.7577
 312	1	2	0.474489	-73.3202	-32.5371	15.3234
 313	1	1	-0.056758	-72.5975	-32.4775	16.5085
 314	1	2	0.480785	-71.9317	-33.6671	16.7761
 315	1	3	0.11186	-72.4116	-31.2855	17.2611
 316	1	3	-0.193084	-71.1146	-30.7727	17.4249
 317	1	3	-0.037687	-70.8976	-29.5847	18.1314
 318	1	3	-0.413926	-73.4973	-30.604	17.8429
 319	1	3	0.299417	-73.2955	-29.4186	18.5875
 320	1	3	-0.384234	-71.9842	-28.9155	18.707
 321	1	6	0.146041	-70.2648	-31.307	17.0119
 322	1	6	0.136211	-69.8875	-29.1973	18.2562
 323	1	6	0.166859	-74.0435	-33.9218	12.8321
 324	1	6	0.137644	-73.2558	-36.2276	12.3074
 325	1	6	0.148636	-71.1791	-36.3448	16.1407
 326	1	5	-0.470939	-71.1637	-33.9134	17.6908
 327	1	5	-0.47569	-73.9875	-31.6527	14.8114
 328	1	6	0.193108	-71.7891	-28.0147	19.2818
 329	1	6	0.21486	-74.4983	-31.0167	17.7456
 330	1	1	0.473101	-56.1317	-40.5744	-1.54173
 331	1	2	0.047723	-57.0003	-41.6678	-1.62932
 332	1	3	0.004987	-58.0476	-41.4291	-0.606124
 333	1	2	0.062675	-56.5234	-39.6765	-0.539617
 334	1	3	0.048591	-57.7769	-40.2407	0.0323613
 335	1	5	-0.383443	-56.9871	-42.5958	-2.42152
 336	1	5	-0.390296	-55.9933	-38.6312	-0.19883
 337	1	3	-0.001908	-59.1982	-42.1711	-0.32582
 338	1	3	-0.038207	-58.663	-39.7187	0.98148
 339	1	3	-0.215576	-59.8495	-40.4376	1.2581
 340	1	3	-0.070363	-60.1369	-41.6794	0.622491
 341	1	6	0.160197	-59.3683	-43.0781	-0.895954
 342	1	6	0.153305	-58.4566	-38.7614	1.45521
 343	1	6	0.179436	-60.5628	-39.9954	1.9493
 344	1	7	-0.074672	-61.4959	-42.4146	0.843134
 345	1	7	0.280369	-61.2906	-43.9794	0.958466
 346	1	8	-0.106158	-62.3725	-44.5857	1.49906
 347	1	8	-0.092663	-60.2367	-44.2872	1.74772
 348	1	8	-0.102536	-61.0726	-44.5988	-0.222521
 349	1	7	0.310197	-62.3835	-42.0995	-0.427034
 350	1	8	-0.10503	-62.7005	-40.786	-0.486964
 351	1	8	-0.101207	-63.5321	-42.8138	-0.453984
 352	1	8	-0.097553	-61.7594	-42.371	-1.59543
 353	1	3	-0.010565	-62.1868	-41.9758	2.18285
 354	1	3	-0.081209	-63.5482	-41.5678	2.24509
 355	1	3	-0.082072	-64.1622	-41.39	3.48993
 356	1	3	-0.061713	-61.4948	-42.1268	3.42029
 357	1	3	-0.146525	-62.1371	-41.9481	4.6691
 358	1	3	-0.036475	-63.4938	-41.5965	4.67495
 359	1	2	0.474489	-64.491	-41.5104	5.7886
 360	1	1	-0.056758	-65.7211	-41.2946	5.17512
 361	1	2	0.480785	-65.5931	-41.1492	3.79848
 362	1	3	0.11186	-66.9917	-41.4062	5.81579
 363	1	3	-0.193084	-67.9427	-42.2788	5.2593
 364	1	3	-0.037687	-69.2271	-42.3782	5.79801
 365	1	3	-0.413926	-67.3366	-40.6621	6.96507
 366	1	3	0.299417	-68.6338	-40.7499	7.53697
 367	1	3	-0.384234	-69.5695	-41.6064	6.91307
 368	1	6	0.146041	-67.6965	-42.8695	4.38077
 369	1	6	0.136211	-69.9584	-43.0438	5.34331
 370	1	6	0.166859	-61.6126	-42.1354	5.60422
 371	1	6	0.137644	-60.4544	-42.4411	3.41695
 372	1	6	0.148636	-64.1736	-41.45	1.36804
 373	1	5	-0.470939	-66.4735	-40.9822	2.97217
 374	1	5	-0.47569	-64.2709	-41.7192	6.96911
 375	1	6	0.193108	-70.5802	-41.6912	7.30396
 376	1	6	0.21486	-66.5964	-39.9995	7.40683
 377	1	1	0.473101	-44.7644	-47.2552	-10.5873
 378	1	2	0.047723	-46.0868	-47.6195	-10.8266
 379	1	3	0.004987	-46.8295	-47.2139	-9.61019
 380	1	2	0.062675	-44.5846	-46.6717	-9.33244
 381	1	3	0.048591	-45.942	-46.6488	-8.72019
 382	1	5	-0.383443	-46.5641	-48.1309	-11.8254
 383	1	5	-0.390296	-43.5598	-46.2291	-8.84122
 384	1	3	-0.001908	-48.1906	-47.3354	-9.32213
 385	1	3	-0.038207	-46.3788	-46.1663	-7.48246
 386	1	3	-0.215576	-47.7539	-46.2749	-7.17065
 387	1	3	-0.070363	-48.6855	-46.8524	-8.08226
 388	1	6	0.160197	-48.8272	-47.8152	-10.0573
 389	1	6	0.153305	-45.6697	-45.727	-6.78385
 390	1	6	0.179436	-48.0786	-45.9146	-6.19886
 391	1	7	-0.074672	-50.1844	-47.0454	-7.70759
 392	1	7	0.280369	-51.1305	-46.6849	-8.93698
 393	1	8	-0.106158	-50.7269	-45.5598	-9.5695
 394	1	8	-0.092663	-52.4112	-46.5012	-8.54264
 395	1	8	-0.102536	-51.1939	-47.6123	-9.91676
 396	1	7	0.310197	-50.3704	-48.5796	-7.35685
 397	1	8	-0.10503	-49.4476	-49.0158	-6.46965
 398	1	8	-0.101207	-50.2048	-49.4124	-8.40844
 399	1	8	-0.097553	-51.5971	-48.8313	-6.84675
 400	1	3	-0.010565	-50.575	-46.1218	-6.48721
 401	1	3	-0.081209	-50.9909	-44.7714	-6.68476
 402	1	3	-0.082072	-51.4444	-44.0119	-5.59633
 403	1	3	-0.061713	-50.5538	-46.5918	-5.13648
 404	1	3	-0.146525	-50.9787	-45.7997	-4.05078
 405	1	3	-0.036475	-51.4417	-44.5111	-4.31579
 406	1	2	0.474489	-52.0452	-43.4981	-3.41074
 407	1	1	-0.056758	-52.4253	-42.4398	-4.2281
 408	1	2	0.480785	-52.0689	-42.6601	-5.55645
 409	1	3	0.11186	-53.1607	-41.3059	-3.76936
 410	1	3	-0.193084	-52.8567	-40.0134	-4.22871
 411	1	3	-0.037687	-53.6106	-38.9112	-3.80344
 412	1	3	-0.413926	-54.2311	-41.4697	-2.86871
 413	1	3	0.299417	-55.011	-40.378	-2.42455
 414	1	3	-0.384234	-54.6804	-39.0953	-2.9138
 415	1	6	0.146041	-52.0422	-39.8594	-4.93147
 416	1	6	0.136211	-53.3705	-37.9159	-4.17304
 417	1	6	0.166859	-50.9884	-46.1904	-3.03483
 418	1	6	0.137644	-50.2306	-47.592	-4.8866
 419	1	6	0.148636	-51.0249	-44.306	-7.66212
 420	1	5	-0.470939	-52.2677	-41.9417	-6.52078
 421	1	5	-0.47569	-52.1946	-43.6186	-2.20648
 422	1	6	0.193108	-55.2573	-38.2278	-2.60243
 423	1	6	0.21486	-54.475	-42.4693	-2.51758
 424	1	1	0.473101	-34.6117	-49.5526	-18.1685
 425	1	2	0.047723	-35.0525	-49.3686	-16.8583
 426	1	3	0.004987	-35.0792	-50.729	-16.2632
 427	1	2	0.062675	-34.3407	-50.8848	-18.4668
 428	1	3	0.048591	-34.6704	-51.629	-17.2253
 429	1	5	-0.383443	-35.412	-48.3366	-16.317
 430	1	5	-0.390296	-33.9618	-51.3639	-19.5224
 431	1	3	-0.001908	-35.4395	-51.1411	-14.9745
 432	1	3	-0.038207	-34.6259	-52.9981	-16.9612
 433	1	3	-0.215576	-35.0051	-53.4374	-15.676
 434	1	3	-0.070363	-35.4209	-52.5269	-14.6607
 435	1	6	0.160197	-35.7131	-50.3887	-14.2392
 436	1	6	0.153305	-34.2989	-53.6963	-17.729
 437	1	6	0.179436	-34.9376	-54.5019	-15.4794
 438	1	7	-0.074672	-35.7227	-53.0028	-13.2063
 439	1	7	0.280369	-36.3273	-54.4589	-13.1429
 440	1	8	-0.106158	-36.8696	-54.7178	-11.9309
 441	1	8	-0.092663	-35.4197	-55.4377	-13.3594
 442	1	8	-0.102536	-37.316	-54.6248	-14.0502
 443	1	7	0.310197	-34.3313	-52.9741	-12.463
 444	1	8	-0.10503	-34.3626	-53.5657	-11.2473
 445	1	8	-0.101207	-33.8911	-51.7057	-12.295
 446	1	8	-0.097553	-33.3647	-53.611	-13.1629
 447	1	3	-0.010565	-36.7897	-52.0691	-12.55
 448	1	3	-0.081209	-37.9607	-51.7227	-13.278
 449	1	3	-0.082072	-38.9085	-50.872	-12.6866
 450	1	3	-0.061713	-36.6595	-51.571	-11.2196
 451	1	3	-0.146525	-37.6287	-50.7298	-10.6413
 452	1	3	-0.036475	-38.7455	-50.3909	-11.4058
 453	1	2	0.474489	-39.8713	-49.4741	-11.0939
 454	1	1	-0.056758	-40.6421	-49.4225	-12.2465
 455	1	2	0.480785	-40.1513	-50.2662	-13.2407
 456	1	3	0.11186	-41.7234	-48.5121	-12.42
 457	1	3	-0.193084	-41.7845	-47.7111	-13.574
 458	1	3	-0.037687	-42.8071	-46.7682	-13.7387
 459	1	3	-0.413926	-42.7038	-48.3477	-11.4216
 460	1	3	0.299417	-43.7401	-47.4017	-11.5703
 461	1	3	-0.384234	-43.7793	-46.6177	-12.7407
 462	1	6	0.146041	-41.032	-47.8146	-14.3512
 463	1	6	0.136211	-42.8446	-46.1587	-14.6396
 464	1	6	0.166859	-37.5077	-50.3344	-9.63446
 465	1	6	0.137644	-35.8026	-51.8146	-10.6043
 466	1	6	0.148636	-38.1219	-52.0828	-14.2921
 467	1	5	-0.470939	-40.5827	-50.4347	-14.3681
 468	1	5	-0.47569	-40.0258	-48.8622	-10.0511
 469	1	6	0.193108	-44.5795	-45.8956	-12.8815
 470	1	6	0.21486	-42.6508	-48.9407	-10.5122
 471	1	1	0.473101	-23.7325	-41.1141	-24.4472
 472	1	2	0.047723	-24.3238	-42.2583	-23.9092
 473	1	3	0.004987	-25.5346	-42.4934	-24.735
 474	1	2	0.062675	-24.4747	-40.5689	-25.4951
 475	1	3	0.048591	-25.6186	-41.493	-25.6786
 476	1	5	-0.383443	-23.911	-42.9817	-23.0182
 477	1	5	-0.390296	-24.2358	-39.5794	-26.1671
 478	1	3	-0.001908	-26.4514	-43.5483	-24.7007
 479	1	3	-0.038207	-26.6214	-41.4935	-26.6477
 480	1	3	-0.215576	-27.5433	-42.5599	-26.6463
 481	1	3	-0.070363	-27.4773	-43.6089	-25.6812
 482	1	6	0.160197	-26.3448	-44.3101	-23.9339
 483	1	6	0.153305	-26.6623	-40.7055	-27.3972
 484	1	6	0.179436	-28.2937	-42.5506	-27.4291
 485	1	7	-0.074672	-28.4628	-44.8199	-25.661
 486	1	7	0.280369	-29.6006	-44.7243	-26.7507
 487	1	8	-0.106158	-30.503	-45.7262	-26.645
 488	1	8	-0.092663	-29.1153	-44.7722	-28.0125
 489	1	8	-0.102536	-30.3221	-43.5867	-26.6249
 490	1	7	0.310197	-27.5988	-46.1202	-25.9257
 491	1	8	-0.10503	-26.8908	-46.4909	-24.8356
 492	1	8	-0.101207	-26.7036	-45.9192	-26.9198
 493	1	8	-0.097553	-28.3213	-47.2036	-26.2871
 494	1	3	-0.010565	-29.1893	-44.8391	-24.2879
 495	1	3	-0.081209	-29.7058	-46.0411	-23.7383
 496	1	3	-0.082072	-30.501	-45.9751	-22.5871
 497	1	3	-0.061713	-29.4954	-43.6116	-23.6327
 498	1	3	-0.146525	-30.2932	-43.5678	-22.4723
 499	1	3	-0.036475	-30.795	-44.7742	-21.9758
 500	1	2	0.474489	-31.836	-45.0182	-20.9424
 501	1	1	-0.056758	-32.1439	-46.3676	-21.0435
 502	1	2	0.480785	-31.337	-47.03	-21.9562
 503	1	3	0.11186	-33.346	-46.9245	-20.5405
 504	1	3	-0.193084	-34.5614	-46.4844	-21.0892
 505	1	3	-0.037687	-35.776	-47.0448	-20.6793
 506	1	3	-0.413926	-33.3504	-47.9417	-19.569
 507	1	3	0.299417	-34.5703	-48.5102	-19.1389
 508	1	3	-0.384234	-35.7764	-48.0528	-19.7067
 509	1	6	0.146041	-34.5633	-45.7081	-21.8495
 510	1	6	0.136211	-36.7102	-46.7017	-21.1197
 511	1	6	0.166859	-30.5786	-42.621	-22.0177
 512	1	6	0.137644	-29.1719	-42.666	-24.0593
 513	1	6	0.148636	-29.581	-47.0018	-24.2282
 514	1	5	-0.470939	-31.4094	-48.1921	-22.3128
 515	1	5	-0.47569	-32.4234	-44.1617	-20.3046
 516	1	6	0.193108	-36.7217	-48.4874	-19.393
 517	1	6	0.21486	-32.4092	-48.306	-19.1677
 518	1	1	0.473101	-11.0662	-36.4914	-30.553
 519	1	2	0.047723	-12.3094	-36.5018	-29.9159
 520	1	3	0.004987	-13.1012	-37.5444	-30.6317
 521	1	2	0.062675	-10.9725	-37.4452	-31.5643
 522	1	3	0.048591	-12.2969	-38.1	-31.605
 523	1	5	-0.383443	-12.7051	-35.7821	-29.0142
 524	1	5	-0.390296	-10.0383	-37.669	-32.317
 525	1	3	-0.001908	-14.4366	-37.9448	-30.4816
 526	1	3	-0.038207	-12.7715	-39.0719	-32.4844
 527	1	3	-0.215576	-14.105	-39.4972	-32.3411
 528	1	3	-0.070363	-14.9542	-38.9636	-31.3305
 529	1	6	0.160197	-15.0531	-37.4696	-29.722
 530	1	6	0.153305	-12.1256	-39.4722	-33.263
 531	1	6	0.179436	-14.4629	-40.2414	-33.0444
 532	1	7	-0.074672	-16.4319	-39.4281	-31.1675
 533	1	7	0.280369	-17.3205	-38.361	-31.9133
 534	1	8	-0.106158	-17.3281	-37.1775	-31.2595
 535	1	8	-0.092663	-18.6071	-38.7491	-32.066
 536	1	8	-0.102536	-16.8516	-38.1036	-33.1559
 537	1	7	0.310197	-16.7149	-40.8603	-31.7726
 538	1	8	-0.10503	-16.7577	-40.8775	-33.1245
 539	1	8	-0.101207	-17.9022	-41.3544	-31.3526
 540	1	8	-0.097553	-15.7801	-41.7609	-31.3912
 541	1	3	-0.010565	-16.743	-39.5481	-29.648
 542	1	3	-0.081209	-17.979	-39.136	-29.0835
 543	1	3	-0.082072	-18.2156	-39.3755	-27.7243
 544	1	3	-0.061713	-15.7961	-40.1897	-28.7997
 545	1	3	-0.146525	-16.0549	-40.4192	-27.4338
 546	1	3	-0.036475	-17.2878	-40.0038	-26.9229
 547	1	2	0.474489	-17.8969	-40.2194	-25.5834
 548	1	1	-0.056758	-19.1928	-39.7247	-25.6756
 549	1	2	0.480785	-19.4454	-39.1576	-26.9209
 550	1	3	0.11186	-20.1817	-39.9121	-24.6675
 551	1	3	-0.193084	-19.883	-39.723	-23.3068
 552	1	3	-0.037687	-20.8461	-39.9855	-22.321
 553	1	3	-0.413926	-21.4642	-40.3638	-25.0218
 554	1	3	0.299417	-22.4506	-40.623	-24.0503
 555	1	3	-0.384234	-22.1228	-40.4349	-22.6926
 556	1	6	0.146041	-18.8914	-39.396	-23.0059
 557	1	6	0.136211	-20.5944	-39.8573	-21.2699
 558	1	6	0.166859	-15.3409	-40.9427	-26.8009
 559	1	6	0.137644	-14.8556	-40.5475	-29.2114
 560	1	6	0.148636	-18.7702	-38.682	-29.6712
 561	1	5	-0.470939	-20.4776	-38.6574	-27.3315
 562	1	5	-0.47569	-17.3762	-40.8063	-24.6502
 563	1	6	0.193108	-22.8549	-40.6624	-21.9211
 564	1	6	0.21486	-21.7081	-40.511	-26.0715
 565	1	1	0.473101	0.605127	-35.8592	-21.9108
 566	1	2	0.047723	-0.389029	-35.7332	-22.882
 567	1	3	0.004987	-1.26134	-34.6281	-22.4007
 568	1	2	0.062675	0.449867	-34.9612	-20.8581
 569	1	3	0.048591	-0.767363	-34.189	-21.1899
 570	1	5	-0.383443	-0.532956	-36.3748	-23.909
 571	1	5	-0.390296	1.15976	-34.8026	-19.8786
 572	1	3	-0.001908	-2.38229	-34.0314	-22.9935
 573	1	3	-0.038207	-1.37542	-33.1514	-20.4874
 574	1	3	-0.215576	-2.52987	-32.57	-21.0436
 575	1	3	-0.070363	-3.06392	-32.9968	-22.2944
 576	1	6	0.160197	-2.69819	-34.3705	-23.9764
 577	1	6	0.153305	-0.957161	-32.804	-19.545
 578	1	6	0.179436	-2.97778	-31.7475	-20.4969
 579	1	7	-0.074672	-4.29804	-32.2742	-22.9176
 580	1	7	0.280369	-3.74442	-30.947	-23.5707
 581	1	8	-0.106158	-2.95345	-30.2421	-22.7301
 582	1	8	-0.092663	-2.98215	-31.2192	-24.6544
 583	1	8	-0.102536	-4.72247	-30.0934	-23.9501
 584	1	7	0.310197	-5.3877	-31.9175	-21.8314
 585	1	8	-0.10503	-5.07672	-30.8464	-21.0674
 586	1	8	-0.101207	-5.60088	-32.954	-20.9893
 587	1	8	-0.097553	-6.58202	-31.6301	-22.3986
 588	1	3	-0.010565	-5.02663	-33.2015	-23.9444
 589	1	3	-0.081209	-5.49901	-32.7199	-25.1934
 590	1	3	-0.082072	-6.23234	-33.5711	-26.024
 591	1	3	-0.061713	-5.34421	-34.547	-23.5947
 592	1	3	-0.146525	-6.06307	-35.3993	-24.4651
 593	1	3	-0.036475	-6.50109	-34.8765	-25.6888
 594	1	2	0.474489	-7.31039	-35.4765	-26.7922
 595	1	1	-0.056758	-7.4971	-34.4594	-27.7298
 596	1	2	0.480785	-6.87917	-33.2783	-27.3228
 597	1	3	0.11186	-8.21203	-34.5873	-28.9657
 598	1	3	-0.193084	-7.77955	-33.867	-30.0977
 599	1	3	-0.037687	-8.47783	-33.9231	-31.3071
 600	1	3	-0.413926	-9.34365	-35.4242	-29.0971
 601	1	3	0.299417	-10.0238	-35.5397	-30.3313
 602	1	3	-0.384234	-9.59584	-34.7531	-31.4186
 603	1	6	0.146041	-6.89409	-33.2406	-30.0524
 604	1	6	0.136211	-8.13395	-33.3444	-32.1623
 605	1	6	0.166859	-6.29841	-36.4249	-24.1867
 606	1	6	0.137644	-5.03535	-34.9378	-22.6282
 607	1	6	0.148636	-5.34627	-31.7022	-25.5332
 608	1	5	-0.470939	-6.87341	-32.1873	-27.8665
 609	1	5	-0.47569	-7.70844	-36.6286	-26.8349
 610	1	6	0.193108	-10.1008	-34.8305	-32.3786
 611	1	6	0.21486	-9.68366	-36.0146	-28.25
 612	1	1	0.473101	14.5688	-31.28	-22.7148
 613	1	2	0.047723	14.5181	-32.3898	-21.8766
 614	1	3	0.004987	13.1607	-32.3762	-21.3028
 615	1	2	0.062675	13.3603	-30.5912	-22.7875
 616	1	3	0.048591	12.4648	-31.3161	-21.8444
 617	1	5	-0.383443	15.4012	-33.1893	-21.614
 618	1	5	-0.390296	13.0871	-29.5969	-23.4399
 619	1	3	-0.001908	12.5987	-33.2511	-20.3738
 620	1	3	-0.038207	11.142	-31.0721	-21.474
 621	1	3	-0.215576	10.5319	-31.9773	-20.579
 622	1	3	-0.070363	11.2358	-33.0857	-20.0205
 623	1	6	0.160197	13.2206	-34.057	-19.9997
 624	1	6	0.153305	10.5974	-30.2301	-21.8959
 625	1	6	0.179436	9.47843	-31.8306	-20.3587
 626	1	7	-0.074672	10.4515	-34.1488	-19.1918
 627	1	7	0.280369	11.3244	-35.3817	-18.7308
 628	1	8	-0.106158	12.3192	-35.0213	-17.8889
 629	1	8	-0.092663	11.885	-36.0287	-19.7785
 630	1	8	-0.102536	10.5909	-36.3249	-18.0971
 631	1	7	0.310197	9.86679	-33.4229	-17.9115
 632	1	8	-0.10503	8.82712	-32.6113	-18.2052
 633	1	8	-0.101207	9.41496	-34.264	-16.9549
 634	1	8	-0.097553	10.8063	-32.6488	-17.3213