pySIMM System Object

1882 atoms
2081 bonds
3600 angles
5676 dihedrals
640 impropers

8 atom types
10 bond types
16 angle types
7 dihedral types
4 improper types

-202.978841 202.978841 xlo xhi
-202.978841 202.978841 ylo yhi
-202.978841 202.978841 zlo zhi

Masses

   1	14.01	# n
   2	12.01	# c
   3	12.01	# ca
   4	1.008	# hn
   5	16.0	# o
   6	1.008	# ha
   7	12.01	# c3
   8	19.0	# f

Pair Coeffs

   1	0.17	3.249998523775958	# n
   2	0.086	3.3996695084235347	# c
   3	0.086	3.3996695084235347	# ca
   4	0.0157	1.069078461768407	# hn
   5	0.21	2.959921901149463	# o
   6	0.015	2.59964245953351	# ha
   7	0.1094	3.3996695084235347	# c3
   8	0.061	3.1181455134911875	# f

Bond Coeffs

   1	345.8	1.086	# ca,ha
   2	384.2	1.4121	# ca,n
   3	637.7	1.2183	# c,o
   4	321.0	1.5156	# c3,ca
   5	403.2	1.0129	# hn,n
   6	356.9	1.3497	# c3,f
   7	427.6	1.3789	# c,n
   8	461.1	1.3984	# ca,ca
   9	345.9	1.4906	# c,ca
  10	300.9	1.5375	# c3,c3

Angle Coeffs

   1	66.11	109.24	# c3,c3,f
   2	66.62	120.02	# ca,ca,ca
   3	63.53	120.77	# c3,ca,ca
   4	62.86	111.51	# c3,c3,c3
   5	63.74	127.08	# c,n,c
   6	63.15	112.07	# c3,c3,ca
   7	48.18	119.88	# ca,ca,ha
   8	70.89	107.36	# f,c3,f
   9	68.72	122.6	# ca,c,o
  10	63.82	123.71	# c,n,ca
  11	67.87	120.19	# ca,ca,n
  12	67.68	115.25	# ca,c,n
  13	63.56	112.24	# ca,c3,ca
  14	64.28	120.33	# c,ca,ca
  15	48.33	117.55	# c,n,hn
  16	74.22	123.05	# n,c,o

Dihedral Coeffs

   1	1	3.625	2	180	# X,ca,ca,X
   2	1	1.0	2	180	# X,c,ca,X
   3	1	0.15555555555555556	3	0	# X,c3,c3,X
   4	1	0.0	2	0	# X,c3,ca,X
   5	1	2.5	2	180	# X,c,n,X
   6	1	0.45	2	180	# X,ca,n,X
   7	2	2.5	2	180	2.0	1	0	# hn,n,c,o

Improper Coeffs

   1	1.1	-1	2	# ca,ca,ca,c3
   2	1.1	-1	2	# n,X,X,hn
   3	1.1	-1	2	# ca,X,X,ha
   4	10.5	-1	2	# c,X,X,o

Atoms

   1	1	1	0.473101	-27.7363	72.8339	-6.72099
   2	1	2	0.047723	-27.322	74.1394	-6.99666
   3	1	3	0.004987	-28.0025	74.9863	-5.98799
   4	1	2	0.062675	-28.6154	72.774	-5.63485
   5	1	3	0.048591	-28.7601	74.177	-5.17107
   6	1	5	-0.383443	-26.5516	74.535	-7.85609
   7	1	5	-0.390296	-29.2026	71.8056	-5.17935
   8	1	3	-0.001908	-27.9756	76.3728	-5.82567
   9	1	3	-0.038207	-29.5087	74.7108	-4.11857
  10	1	3	-0.215576	-29.4902	76.1101	-3.93042
  11	1	3	-0.070363	-28.7486	76.9673	-4.7931
  12	1	6	0.160197	-27.3903	76.9712	-6.51955
  13	1	6	0.153305	-30.0955	74.0589	-3.47487
  14	1	6	0.179436	-30.0824	76.5113	-3.11398
  15	1	7	-0.074672	-28.7834	78.5222	-4.69684
  16	1	7	0.280369	-29.9404	79.0907	-3.78636
  17	1	8	-0.106158	-31.1482	78.5749	-4.10952
  18	1	8	-0.092663	-30.0635	80.4306	-3.92328
  19	1	8	-0.102536	-29.7467	78.8507	-2.46995
  20	1	7	0.310197	-27.3894	78.9744	-4.11046
  21	1	8	-0.10503	-27.0931	78.3092	-2.97084
  22	1	8	-0.101207	-27.3359	80.2931	-3.81543
  23	1	8	-0.097553	-26.3713	78.7218	-4.9643
  24	1	3	-0.010565	-29.0631	79.0369	-6.13726
  25	1	3	-0.081209	-30.0901	78.4019	-6.88104
  26	1	3	-0.082072	-30.2974	78.7702	-8.21104
  27	1	3	-0.061713	-28.3241	80.0818	-6.76371
  28	1	3	-0.146525	-28.5527	80.439	-8.11041
  29	1	3	-0.036475	-29.5412	79.7461	-8.81864
  30	1	2	0.474489	-29.9685	79.8395	-10.2408
  31	1	1	-0.056758	-30.9716	78.8869	-10.3958
  32	1	2	0.480785	-31.2441	78.218	-9.20943
  33	1	3	0.11186	-31.6358	78.6116	-11.6231
  34	1	3	-0.193084	-31.8891	77.2835	-12.019
  35	1	3	-0.037687	-32.5575	77.0111	-13.2215
  36	1	3	-0.413926	-32.05	79.662	-12.4613
  37	1	3	0.299417	-32.6979	79.3952	-13.6737
  38	1	3	-0.384234	-32.9594	78.0716	-14.0465
  39	1	6	0.146041	-31.5754	76.4522	-11.392
  40	1	6	0.136211	-32.754	75.9823	-13.5143
  41	1	6	0.166859	-27.9672	81.2167	-8.59725
  42	1	6	0.137644	-27.5476	80.6173	-6.22827
  43	1	6	0.148636	-30.6952	77.6052	-6.45369
  44	1	5	-0.470939	-32.0829	77.3608	-8.99248
  45	1	5	-0.47569	-29.4975	80.5924	-11.0771
  46	1	6	0.193108	-33.4501	77.8717	-14.9934
  47	1	6	0.21486	-31.8545	80.6944	-12.1898
  48	1	1	0.473101	-25.7808	66.3656	-20.8488
  49	1	2	0.047723	-25.6081	67.7508	-20.8807
  50	1	3	0.004987	-26.0444	68.23	-19.5441
  51	1	2	0.062675	-26.2215	65.9128	-19.604
  52	1	3	0.048591	-26.4057	67.1326	-18.7908
  53	1	5	-0.383443	-25.2806	68.4541	-21.8205
  54	1	5	-0.390296	-26.5059	64.7793	-19.2553
  55	1	3	-0.001908	-26.1948	69.5355	-19.0601
  56	1	3	-0.038207	-26.9459	67.2667	-17.5136
  57	1	3	-0.215576	-27.092	68.5679	-17.0024
  58	1	3	-0.070363	-26.7137	69.719	-17.7513
  59	1	6	0.160197	-25.9266	70.366	-19.704
  60	1	6	0.153305	-27.2678	66.3927	-16.9507
  61	1	6	0.179436	-27.5355	68.6761	-16.0145
  62	1	7	-0.074672	-26.9235	71.1163	-17.1075
  63	1	7	0.280369	-26.0877	72.2756	-17.7841
  64	1	8	-0.106158	-24.7892	71.9446	-17.9611
  65	1	8	-0.092663	-26.0913	73.3944	-17.0249
  66	1	8	-0.102536	-26.5528	72.6361	-19.0014
  67	1	7	0.310197	-28.4616	71.4506	-17.2444
  68	1	8	-0.10503	-28.8746	71.3855	-18.5311
  69	1	8	-0.101207	-28.7675	72.6903	-16.8007
  70	1	8	-0.097553	-29.2449	70.5791	-16.5694
  71	1	3	-0.010565	-26.4225	70.984	-15.6393
  72	1	3	-0.081209	-27.2376	71.2567	-14.5098
  73	1	3	-0.082072	-26.7212	71.0212	-13.2293
  74	1	3	-0.061713	-25.1095	70.4792	-15.4128
  75	1	3	-0.146525	-24.6087	70.251	-14.1172
  76	1	3	-0.036475	-25.4476	70.5311	-13.0372
  77	1	2	0.474489	-25.2338	70.3378	-11.5804
  78	1	1	-0.056758	-26.4229	70.7209	-10.9758
  79	1	2	0.480785	-27.3614	71.1667	-11.8964
  80	1	3	0.11186	-26.6561	70.6276	-9.57815
  81	1	3	-0.193084	-26.3697	69.4364	-8.89144
  82	1	3	-0.037687	-26.5412	69.3564	-7.50457
  83	1	3	-0.413926	-27.1368	71.7352	-8.86014
  84	1	3	0.299417	-27.3001	71.6848	-7.45865
  85	1	3	-0.384234	-26.9959	70.4764	-6.7952
  86	1	6	0.146041	-25.9889	68.5728	-9.43059
  87	1	6	0.136211	-26.3081	68.4314	-6.98022
  88	1	6	0.166859	-23.6115	69.8461	-13.9564
  89	1	6	0.137644	-24.4738	70.2232	-16.2551
  90	1	6	0.148636	-28.25	71.6388	-14.5941
  91	1	5	-0.470939	-28.507	71.5222	-11.6842
  92	1	5	-0.47569	-24.2407	69.8602	-11.0594
  93	1	6	0.193108	-27.1118	70.4005	-5.71641
  94	1	6	0.21486	-27.359	72.6563	-9.39568
  95	1	1	0.473101	-33.9475	61.0705	-16.2073
  96	1	2	0.047723	-33.6444	59.9503	-16.9829
  97	1	3	0.004987	-33.5435	60.4541	-18.3761
  98	1	2	0.062675	-34.075	62.2307	-16.9705
  99	1	3	0.048591	-33.7757	61.814	-18.3662
 100	1	5	-0.383443	-33.4559	58.8009	-16.6212
 101	1	5	-0.390296	-34.4053	63.3444	-16.5956
 102	1	3	-0.001908	-33.2763	59.756	-19.5598
 103	1	3	-0.038207	-33.7049	62.5654	-19.5421
 104	1	3	-0.215576	-33.4144	61.884	-20.7442
 105	1	3	-0.070363	-33.2139	60.4739	-20.7845
 106	1	6	0.160197	-33.1374	58.6821	-19.4991
 107	1	6	0.153305	-33.8742	63.641	-19.5225
 108	1	6	0.179436	-33.3643	62.4661	-21.6622
 109	1	7	-0.074672	-33.0001	59.778	-22.1646
 110	1	7	0.280369	-32.4565	58.2986	-22.0572
 111	1	8	-0.106158	-31.3709	58.2089	-21.256
 112	1	8	-0.092663	-32.0689	57.8236	-23.2631
 113	1	8	-0.102536	-33.3719	57.4273	-21.5764
 114	1	7	0.310197	-34.4136	59.7538	-22.8678
 115	1	8	-0.10503	-34.8387	60.9931	-23.2035
 116	1	8	-0.101207	-35.3654	59.2436	-22.0529
 117	1	8	-0.097553	-34.4349	59.0098	-23.997
 118	1	3	-0.010565	-31.9214	60.5797	-22.9501
 119	1	3	-0.081209	-30.7163	60.9108	-22.283
 120	1	3	-0.082072	-29.728	61.6219	-22.97
 121	1	3	-0.061713	-32.0662	60.98	-24.3114
 122	1	3	-0.146525	-31.0686	61.7287	-24.9743
 123	1	3	-0.036475	-29.9017	62.044	-24.2697
 124	1	2	0.474489	-28.7279	62.8837	-24.6456
 125	1	1	-0.056758	-27.9123	62.9079	-23.5222
 126	1	2	0.480785	-28.4291	62.1421	-22.4832
 127	1	3	0.11186	-26.8045	63.7845	-23.3641
 128	1	3	-0.193084	-25.7758	63.8878	-24.3131
 129	1	3	-0.037687	-24.723	64.7984	-24.117
 130	1	3	-0.413926	-26.763	64.6079	-22.2341
 131	1	3	0.299417	-25.7259	65.5276	-22.0083
 132	1	3	-0.384234	-24.702	65.6187	-22.9735
 133	1	6	0.146041	-25.7985	63.2726	-25.2092
 134	1	6	0.136211	-23.9332	64.8771	-24.8622
 135	1	6	0.166859	-31.2026	62.0669	-26.0
 136	1	6	0.137644	-32.9594	60.7362	-24.8749
 137	1	6	0.148636	-30.5506	60.6392	-21.2433
 138	1	5	-0.470939	-27.9797	61.9885	-21.36
 139	1	5	-0.47569	-28.5884	63.5115	-25.6822
 140	1	6	0.193108	-23.8922	66.332	-22.8408
 141	1	6	0.21486	-27.5524	64.5092	-21.5002
 142	1	1	0.473101	-31.4139	72.1901	-11.849
 143	1	2	0.047723	-31.6961	70.8217	-11.8335
 144	1	3	0.004987	-31.4596	70.3973	-10.436
 145	1	2	0.062675	-31.0548	72.6823	-10.589
 146	1	3	0.048591	-31.0766	71.4933	-9.69548
 147	1	5	-0.383443	-32.0257	70.0901	-12.7551
 148	1	5	-0.390296	-30.7488	73.8215	-10.2695
 149	1	3	-0.001908	-31.5842	69.1295	-9.86936
 150	1	3	-0.038207	-30.7849	71.3698	-8.33496
 151	1	3	-0.215576	-30.8796	70.0902	-7.74446
 152	1	3	-0.070363	-31.281	68.9472	-8.49497
 153	1	6	0.160197	-31.9257	68.3206	-10.5062
 154	1	6	0.153305	-30.5114	72.244	-7.75217
 155	1	6	0.179436	-30.669	70.0105	-6.68123
 156	1	7	-0.074672	-31.4994	67.5587	-7.82373
 157	1	7	0.280369	-30.3582	67.1995	-6.78954
 158	1	8	-0.106158	-29.128	67.4754	-7.27429
 159	1	8	-0.092663	-30.3707	65.8808	-6.48814
 160	1	8	-0.102536	-30.4474	67.8534	-5.61052
 161	1	7	0.310197	-32.8811	67.6474	-7.06473
 162	1	8	-0.10503	-33.8982	67.9046	-7.9176
 163	1	8	-0.101207	-32.9242	68.6485	-6.15674
 164	1	8	-0.097553	-33.175	66.5104	-6.39387
 165	1	3	-0.010565	-31.4818	66.4486	-8.93008
 166	1	3	-0.081209	-32.5913	65.6005	-9.20259
 167	1	3	-0.082072	-32.5109	64.6817	-10.2564
 168	1	3	-0.061713	-30.3247	66.3033	-9.75148
 169	1	3	-0.146525	-30.2604	65.3617	-10.8004
 170	1	3	-0.036475	-31.38	64.5578	-11.0321
 171	1	2	0.474489	-31.6265	63.5006	-12.0525
 172	1	1	-0.056758	-32.9252	63.0568	-11.8255
 173	1	2	0.480785	-33.5247	63.7204	-10.763
 174	1	3	0.11186	-33.5689	62.0441	-12.5924
 175	1	3	-0.193084	-34.3139	61.027	-11.969
 176	1	3	-0.037687	-34.9432	60.0334	-12.7321
 177	1	3	-0.413926	-33.4669	62.0498	-13.9933
 178	1	3	0.299417	-34.0814	61.0534	-14.7819
 179	1	3	-0.384234	-34.8252	60.0481	-14.1301
 180	1	6	0.146041	-34.4091	61.003	-10.8864
 181	1	6	0.136211	-35.5146	59.2498	-12.2376
 182	1	6	0.166859	-29.3759	65.2695	-11.4278
 183	1	6	0.137644	-29.4679	66.9533	-9.60045
 184	1	6	0.148636	-33.5179	65.6369	-8.64115
 185	1	5	-0.470939	-34.6543	63.5781	-10.328
 186	1	5	-0.47569	-30.8256	63.0932	-12.8781
 187	1	6	0.193108	-35.2991	59.261	-14.7124
 188	1	6	0.21486	-32.8923	62.8366	-14.4747
 189	1	1	0.473101	-23.2582	77.241	-22.3065
 190	1	2	0.047723	-24.3697	77.0699	-21.4733
 191	1	3	0.004987	-24.1587	78.0029	-20.3364
 192	1	2	0.062675	-22.3362	78.1484	-21.7761
 193	1	3	0.048591	-22.9501	78.6399	-20.5173
 194	1	5	-0.383443	-25.3543	76.3696	-21.6454
 195	1	5	-0.390296	-21.2739	78.5245	-22.2453
 196	1	3	-0.001908	-25.0107	78.3348	-19.2762
 197	1	3	-0.038207	-22.519	79.6382	-19.641
 198	1	3	-0.215576	-23.3655	79.9942	-18.5703
 199	1	3	-0.070363	-24.6233	79.3574	-18.3693
 200	1	6	0.160197	-25.9746	77.8378	-19.1951
 201	1	6	0.153305	-21.5741	80.1495	-19.812
 202	1	6	0.179436	-23.0357	80.8017	-17.9245
 203	1	7	-0.074672	-25.6283	79.8101	-17.27
 204	1	7	0.280369	-24.9702	80.6393	-16.0959
 205	1	8	-0.106158	-23.8566	80.0463	-15.6092
 206	1	8	-0.092663	-25.8159	80.7665	-15.0478
 207	1	8	-0.102536	-24.6161	81.8943	-16.4537
 208	1	7	0.310197	-26.6977	80.7159	-17.9972
 209	1	8	-0.10503	-27.4393	80.0134	-18.8839
 210	1	8	-0.101207	-26.1124	81.703	-18.7132
 211	1	8	-0.097553	-27.5565	81.3148	-17.1414
 212	1	3	-0.010565	-26.2295	78.5345	-16.6124
 213	1	3	-0.081209	-27.6257	78.3304	-16.4431
 214	1	3	-0.082072	-28.0666	77.1661	-15.8023
 215	1	3	-0.061713	-25.3395	77.537	-16.1235
 216	1	3	-0.146525	-25.8045	76.3855	-15.4585
 217	1	3	-0.036475	-27.185	76.2322	-15.3071
 218	1	2	0.474489	-27.9687	75.1331	-14.69
 219	1	1	-0.056758	-29.3054	75.4513	-14.9027
 220	1	2	0.480785	-29.4471	76.6769	-15.5485
 221	1	3	0.11186	-30.3906	74.5865	-14.5739
 222	1	3	-0.193084	-31.4466	74.395	-15.4833
 223	1	3	-0.037687	-32.5079	73.5335	-15.1798
 224	1	3	-0.413926	-30.4054	73.8719	-13.3611
 225	1	3	0.299417	-31.4497	72.9768	-13.0449
 226	1	3	-0.384234	-32.509	72.8349	-13.9656
 227	1	6	0.146041	-31.451	74.9163	-16.4362
 228	1	6	0.136211	-33.3184	73.3957	-15.8932
 229	1	6	0.166859	-25.1177	75.6308	-15.0804
 230	1	6	0.137644	-24.2671	77.6592	-16.251
 231	1	6	0.148636	-28.3727	79.038	-16.7876
 232	1	5	-0.470939	-30.4683	77.2156	-15.9389
 233	1	5	-0.47569	-27.4976	74.1572	-14.133
 234	1	6	0.193108	-33.3219	72.1443	-13.754
 235	1	6	0.21486	-29.5826	73.985	-12.6576
 236	1	1	0.473101	-29.9345	66.337	-20.6175
 237	1	2	0.047723	-29.8001	65.8959	-21.9356
 238	1	3	0.004987	-29.2118	67.0482	-22.6768
 239	1	2	0.062675	-29.5275	67.6573	-20.45
 240	1	3	0.048591	-29.0767	68.095	-21.7864
 241	1	5	-0.383443	-30.0929	64.8074	-22.4001
 242	1	5	-0.390296	-29.489	68.3216	-19.428
 243	1	3	-0.001908	-28.8054	67.1685	-24.0163
 244	1	3	-0.038207	-28.5791	69.3341	-22.1782
 245	1	3	-0.215576	-28.1885	69.4827	-23.5185
 246	1	3	-0.070363	-28.2578	68.408	-24.4517
 247	1	6	0.160197	-28.9118	66.3144	-24.6795
 248	1	6	0.153305	-28.4975	70.1519	-21.4653
 249	1	6	0.179436	-27.8067	70.454	-23.8246
 250	1	7	-0.074672	-27.747	68.6647	-25.9013
 251	1	7	0.280369	-27.3642	67.3524	-26.6918
 252	1	8	-0.106158	-28.4332	66.6192	-27.0738
 253	1	8	-0.092663	-26.5782	66.5281	-25.9683
 254	1	8	-0.102536	-26.6734	67.6444	-27.8169
 255	1	7	0.310197	-28.9192	69.3997	-26.6599
 256	1	8	-0.10503	-30.0682	68.6869	-26.6219
 257	1	8	-0.101207	-28.6365	69.626	-27.9628
 258	1	8	-0.097553	-29.2231	70.5932	-26.1003
 259	1	3	-0.010565	-26.4486	69.5212	-25.7599
 260	1	3	-0.081209	-26.2996	70.8204	-26.3189
 261	1	3	-0.082072	-25.2198	71.6158	-25.9059
 262	1	3	-0.061713	-25.4307	69.052	-24.8825
 263	1	3	-0.146525	-24.349	69.8622	-24.4891
 264	1	3	-0.036475	-24.2877	71.1609	-24.9962
 265	1	2	0.474489	-23.4079	72.2961	-24.6105
 266	1	1	-0.056758	-23.8902	73.3885	-25.3148
 267	1	2	0.480785	-24.9454	73.0572	-26.1545
 268	1	3	0.11186	-23.4415	74.7179	-25.1075
 269	1	3	-0.193084	-22.9727	75.4845	-26.1846
 270	1	3	-0.037687	-22.5764	76.8129	-25.9854
 271	1	3	-0.413926	-23.5097	75.2932	-23.8257
 272	1	3	0.299417	-23.1287	76.6338	-23.6015
 273	1	3	-0.384234	-22.6624	77.3814	-24.7054
 274	1	6	0.146041	-22.9301	75.055	-27.1819
 275	1	6	0.136211	-22.217	77.4043	-26.8256
 276	1	6	0.166859	-23.6334	69.5214	-23.7436
 277	1	6	0.137644	-25.5292	68.0785	-24.4119
 278	1	6	0.148636	-27.0352	71.2601	-26.9844
 279	1	5	-0.470939	-25.5939	73.799	-26.8716
 280	1	5	-0.47569	-22.5451	72.2808	-23.7488
 281	1	6	0.193108	-22.3611	78.4178	-24.573
 282	1	6	0.21486	-23.8852	74.6982	-22.9969
 283	1	1	0.473101	-42.2673	66.8243	-10.8635
 284	1	2	0.047723	-41.4446	67.9531	-10.7868
 285	1	3	0.004987	-40.1536	67.5418	-11.4005
 286	1	2	0.062675	-41.6334	65.7488	-11.4942
 287	1	3	0.048591	-40.2698	66.2306	-11.8113
 288	1	5	-0.383443	-41.6869	69.0431	-10.2951
 289	1	5	-0.390296	-42.0703	64.6366	-11.747
 290	1	3	-0.001908	-38.956	68.2539	-11.548
 291	1	3	-0.038207	-39.1939	65.5443	-12.3744
 292	1	3	-0.215576	-37.9782	66.2378	-12.5234
 293	1	3	-0.070363	-37.8397	67.6022	-12.1399
 294	1	6	0.160197	-38.9121	69.2759	-11.1864
 295	1	6	0.153305	-39.2936	64.5003	-12.6643
 296	1	6	0.179436	-37.1289	65.6914	-12.9293
 297	1	7	-0.074672	-36.4555	68.2914	-12.3094
 298	1	7	0.280369	-36.5394	69.8656	-12.4077
 299	1	8	-0.106158	-35.3783	70.3951	-12.8561
 300	1	8	-0.092663	-36.7996	70.4691	-11.2263
 301	1	8	-0.102536	-37.5006	70.2696	-13.2683
 302	1	7	0.310197	-35.6146	67.8931	-11.039
 303	1	8	-0.10503	-35.3456	66.569	-11.004
 304	1	8	-0.101207	-36.2778	68.164	-9.89171
 305	1	8	-0.097553	-34.4367	68.5484	-10.9696
 306	1	3	-0.010565	-35.8374	67.7943	-13.6515
 307	1	3	-0.081209	-34.5286	67.2489	-13.7565
 308	1	3	-0.082072	-34.0883	66.779	-15.0013
 309	1	3	-0.061713	-36.6307	67.8679	-14.8316
 310	1	3	-0.146525	-36.1585	67.4151	-16.0787
 311	1	3	-0.036475	-34.8744	66.8682	-16.131
 312	1	2	0.474489	-34.11	66.317	-17.2801
 313	1	1	-0.056758	-32.8862	65.9238	-16.7556
 314	1	2	0.480785	-32.7994	66.1433	-15.3867
 315	1	3	0.11186	-31.8507	65.3727	-17.552
 316	1	3	-0.193084	-31.2369	64.155	-17.2184
 317	1	3	-0.037687	-30.2393	63.6148	-18.0429
 318	1	3	-0.413926	-31.4334	66.0574	-18.7019
 319	1	3	0.299417	-30.415	65.5492	-19.5284
 320	1	3	-0.384234	-29.8342	64.3094	-19.1933
 321	1	6	0.146041	-31.5277	63.6309	-16.3134
 322	1	6	0.136211	-29.7638	62.6715	-17.7785
 323	1	6	0.166859	-36.7725	67.4759	-16.9748
 324	1	6	0.137644	-37.6387	68.2704	-14.7809
 325	1	6	0.148636	-33.8522	67.1754	-12.9118
 326	1	5	-0.470939	-31.8838	65.8641	-14.6305
 327	1	5	-0.47569	-34.4832	66.2686	-18.4422
 328	1	6	0.193108	-29.0371	63.89	-19.8018
 329	1	6	0.21486	-31.8857	67.0173	-18.9401
 330	1	1	0.473101	-42.3065	54.0533	-9.16212
 331	1	2	0.047723	-43.6204	54.0945	-8.68149
 332	1	3	0.004987	-44.1345	55.4403	-9.04376
 333	1	2	0.062675	-41.9466	55.2348	-9.81553
 334	1	3	0.048591	-43.1393	56.1114	-9.72231
 335	1	5	-0.383443	-44.2419	53.2345	-8.07933
 336	1	5	-0.390296	-40.8765	55.5384	-10.3181
 337	1	3	-0.001908	-45.3727	56.0362	-8.7675
 338	1	3	-0.038207	-43.3279	57.4145	-10.1836
 339	1	3	-0.215576	-44.5646	58.0337	-9.91664
 340	1	3	-0.070363	-45.5975	57.3745	-9.18982
 341	1	6	0.160197	-46.1157	55.4595	-8.22645
 342	1	6	0.153305	-42.5359	57.9301	-10.7229
 343	1	6	0.179436	-44.7133	59.0506	-10.2754
 344	1	7	-0.074672	-46.9203	58.1477	-8.90758
 345	1	7	0.280369	-47.7859	57.5367	-7.73649
 346	1	8	-0.106158	-48.774	58.3811	-7.36268
 347	1	8	-0.092663	-47.0518	57.3012	-6.62594
 348	1	8	-0.102536	-48.3804	56.3668	-8.06106
 349	1	7	0.310197	-47.7557	58.1015	-10.2456
 350	1	8	-0.10503	-47.1418	58.7615	-11.254
 351	1	8	-0.101207	-48.9921	58.6332	-10.1142
 352	1	8	-0.097553	-47.9199	56.8335	-10.6872
 353	1	3	-0.010565	-46.5186	59.5857	-8.46039
 354	1	3	-0.081209	-47.0213	60.7659	-9.07316
 355	1	3	-0.082072	-46.4923	62.0064	-8.68926
 356	1	3	-0.061713	-45.5369	59.7254	-7.43825
 357	1	3	-0.146525	-45.0268	60.9815	-7.05985
 358	1	3	-0.036475	-45.5166	62.1105	-7.71993
 359	1	2	0.474489	-45.038	63.5164	-7.68146
 360	1	1	-0.056758	-45.7377	64.1692	-8.6865
 361	1	2	0.480785	-46.6783	63.3518	-9.29762
 362	1	3	0.11186	-45.3427	65.423	-9.21719
 363	1	3	-0.193084	-46.2466	66.486	-9.36162
 364	1	3	-0.037687	-45.8323	67.683	-9.96611
 365	1	3	-0.413926	-44.0304	65.5674	-9.68922
 366	1	3	0.299417	-43.5969	66.7448	-10.3298
 367	1	3	-0.384234	-44.5189	67.8066	-10.4524
 368	1	6	0.146041	-47.2728	66.3791	-9.02069
 369	1	6	0.136211	-46.5358	68.5065	-10.0744
 370	1	6	0.166859	-44.2327	61.0711	-6.32106
 371	1	6	0.137644	-45.1167	58.8416	-6.96591
 372	1	6	0.148636	-47.7535	60.7455	-9.87388
 373	1	5	-0.470939	-47.3947	63.6157	-10.2472
 374	1	5	-0.47569	-44.0921	63.9301	-7.03271
 375	1	6	0.193108	-44.216	68.7357	-10.9297
 376	1	6	0.21486	-43.3405	64.7339	-9.58286
 377	1	1	0.473101	-35.6915	42.2986	-2.21731
 378	1	2	0.047723	-37.0771	42.2838	-2.03395
 379	1	3	0.004987	-37.5096	43.6968	-2.1796
 380	1	2	0.062675	-35.2085	43.5761	-2.50991
 381	1	3	0.048591	-36.3985	44.4644	-2.45569
 382	1	5	-0.383443	-37.7992	41.3426	-1.74938
 383	1	5	-0.390296	-34.0552	43.931	-2.69344
 384	1	3	-0.001908	-38.7719	44.2688	-1.98256
 385	1	3	-0.038207	-36.4864	45.8556	-2.54337
 386	1	3	-0.215576	-37.7462	46.4553	-2.33177
 387	1	3	-0.070363	-38.9104	45.6812	-2.05806
 388	1	6	0.160197	-39.597	43.6154	-1.72004
 389	1	6	0.153305	-35.5945	46.4522	-2.72336
 390	1	6	0.179436	-37.7995	47.5414	-2.34278
 391	1	7	-0.074672	-40.2493	46.3919	-1.69884
 392	1	7	0.280369	-41.5245	45.5507	-2.10432
 393	1	8	-0.106158	-41.4146	45.0391	-3.3506
 394	1	8	-0.092663	-42.6413	46.3142	-2.09564
 395	1	8	-0.102536	-41.7779	44.5078	-1.28252
 396	1	7	0.310197	-40.226	46.5805	-0.132698
 397	1	8	-0.10503	-39.2421	47.4257	0.251936
 398	1	8	-0.101207	-39.9825	45.4211	0.520359
 399	1	8	-0.097553	-41.3943	47.0556	0.356396
 400	1	3	-0.010565	-40.3465	47.739	-2.48396
 401	1	3	-0.081209	-40.1983	47.7209	-3.89637
 402	1	3	-0.082072	-40.3107	48.9195	-4.61446
 403	1	3	-0.061713	-40.6102	48.9938	-1.85742
 404	1	3	-0.146525	-40.6987	50.1902	-2.59714
 405	1	3	-0.036475	-40.5417	50.1207	-3.98325
 406	1	2	0.474489	-40.6015	51.1903	-5.01336
 407	1	1	-0.056758	-40.4265	50.5494	-6.23605
 408	1	2	0.480785	-40.2386	49.1782	-6.07729
 409	1	3	0.11186	-40.4526	51.2178	-7.49725
 410	1	3	-0.193084	-39.5668	50.8524	-8.52638
 411	1	3	-0.037687	-39.603	51.5038	-9.76615
 412	1	3	-0.413926	-41.3646	52.2643	-7.73254
 413	1	3	0.299417	-41.4084	52.9508	-8.96466
 414	1	3	-0.384234	-40.5194	52.5431	-9.98174
 415	1	6	0.146041	-38.8466	50.0533	-8.37338
 416	1	6	0.136211	-38.9136	51.2075	-10.5549
 417	1	6	0.166859	-40.8988	51.1433	-2.11078
 418	1	6	0.137644	-40.7553	49.0736	-0.786851
 419	1	6	0.148636	-40.003	46.7953	-4.43263
 420	1	5	-0.470939	-40.0619	48.3325	-6.9369
 421	1	5	-0.47569	-40.7508	52.3806	-4.79212
 422	1	6	0.193108	-40.5201	53.0527	-10.9425
 423	1	6	0.21486	-42.0503	52.559	-6.94188
 424	1	1	0.473101	-24.3766	36.1116	-1.27983
 425	1	2	0.047723	-25.3429	35.8426	-2.25013
 426	1	3	0.004987	-25.2359	36.9585	-3.22538
 427	1	2	0.062675	-23.6549	37.2744	-1.54633
 428	1	3	0.048591	-24.2256	37.8004	-2.81089
 429	1	5	-0.383443	-26.1332	34.9147	-2.29878
 430	1	5	-0.390296	-22.7626	37.7844	-0.888274
 431	1	3	-0.001908	-25.983	37.2222	-4.37926
 432	1	3	-0.038207	-23.8891	38.9415	-3.54016
 433	1	3	-0.215576	-24.618	39.2175	-4.71527
 434	1	3	-0.070363	-25.6846	38.3774	-5.15089
 435	1	6	0.160197	-26.7824	36.541	-4.65903
 436	1	6	0.153305	-23.0845	39.5919	-3.20352
 437	1	6	0.179436	-24.3303	40.1028	-5.27183
 438	1	7	-0.074672	-26.5136	38.6544	-6.44371
 439	1	7	0.280369	-26.2726	40.0861	-7.0598
 440	1	8	-0.106158	-27.1405	40.3567	-8.06168
 441	1	8	-0.092663	-25.0318	40.2369	-7.5769
 442	1	8	-0.102536	-26.458	41.0642	-6.14379
 443	1	7	0.310197	-26.0776	37.5555	-7.49208
 444	1	8	-0.10503	-26.4728	37.8185	-8.75808
 445	1	8	-0.101207	-26.5698	36.3362	-7.17698
 446	1	8	-0.097553	-24.732	37.4246	-7.5383
 447	1	3	-0.010565	-28.0268	38.6041	-6.08313
 448	1	3	-0.081209	-28.4646	39.136	-4.84106
 449	1	3	-0.082072	-29.8352	39.1588	-4.55223
 450	1	3	-0.061713	-29.0125	38.1323	-6.99739
 451	1	3	-0.146525	-30.3885	38.1765	-6.69212
 452	1	3	-0.036475	-30.7724	38.7027	-5.45529
 453	1	2	0.474489	-32.1247	38.9031	-4.86801
 454	1	1	-0.056758	-31.9057	39.4636	-3.61988
 455	1	2	0.480785	-30.5578	39.6481	-3.34699
 456	1	3	0.11186	-32.9467	39.7618	-2.70752
 457	1	3	-0.193084	-33.146	38.9403	-1.58812
 458	1	3	-0.037687	-34.1854	39.2102	-0.689332
 459	1	3	-0.413926	-33.7949	40.8616	-2.92352
 460	1	3	0.299417	-34.8463	41.1558	-2.02745
 461	1	3	-0.384234	-35.0246	40.3124	-0.909225
 462	1	6	0.146041	-32.4942	38.0883	-1.41535
 463	1	6	0.136211	-34.3389	38.5665	0.174865
 464	1	6	0.166859	-31.1372	37.8267	-7.40042
 465	1	6	0.137644	-28.7311	37.7476	-7.97085
 466	1	6	0.148636	-27.7633	39.5474	-4.11838
 467	1	5	-0.470939	-30.0491	40.0807	-2.32789
 468	1	5	-0.47569	-33.1901	38.6204	-5.38795
 469	1	6	0.193108	-35.8301	40.5089	-0.205357
 470	1	6	0.21486	-33.6291	41.5012	-3.78657
 471	1	1	0.473101	-20.2315	21.2546	3.27241
 472	1	2	0.047723	-20.6199	21.5485	1.96513
 473	1	3	0.004987	-20.5126	23.0248	1.84477
 474	1	2	0.062675	-19.8905	22.3962	3.9985
 475	1	3	0.048591	-20.0846	23.5283	3.05521
 476	1	5	-0.383443	-20.9583	20.7784	1.08266
 477	1	5	-0.390296	-19.5082	22.4758	5.15455
 478	1	3	-0.001908	-20.7611	23.854	0.744441
 479	1	3	-0.038207	-19.8878	24.899	3.23723
 480	1	3	-0.215576	-20.1446	25.7546	2.14495
 481	1	3	-0.070363	-20.5886	25.2586	0.886008
 482	1	6	0.160197	-21.0759	23.388	-0.182954
 483	1	6	0.153305	-19.5425	25.2838	4.19457
 484	1	6	0.179436	-19.9888	26.8231	2.28069
 485	1	7	-0.074672	-20.8248	26.2688	-0.280623
 486	1	7	0.280369	-19.3928	26.7065	-0.780902
 487	1	8	-0.106158	-19.4103	27.3714	-1.95803
 488	1	8	-0.092663	-18.5851	25.6366	-0.962581
 489	1	8	-0.102536	-18.7693	27.5062	0.113815
 490	1	7	0.310197	-21.6366	25.6598	-1.4875
 491	1	8	-0.10503	-22.7817	25.073	-1.07078
 492	1	8	-0.101207	-20.9375	24.7347	-2.18322
 493	1	8	-0.097553	-22.0077	26.6104	-2.37551
 494	1	3	-0.010565	-21.6824	27.4545	0.252966
 495	1	3	-0.081209	-21.4833	28.7974	-0.168786
 496	1	3	-0.082072	-22.3261	29.7999	0.332646
 497	1	3	-0.061713	-22.7567	27.1841	1.14772
 498	1	3	-0.146525	-23.5847	28.2082	1.64916
 499	1	3	-0.036475	-23.3404	29.5166	1.22239
 500	1	2	0.474489	-24.0294	30.7883	1.56954
 501	1	1	-0.056758	-23.3722	31.778	0.851235
 502	1	2	0.480785	-22.3427	31.2656	0.0714386
 503	1	3	0.11186	-23.6832	33.1612	0.949664
 504	1	3	-0.193084	-23.7734	33.772	2.21216
 505	1	3	-0.037687	-24.0612	35.1382	2.32565
 506	1	3	-0.413926	-23.8918	33.9371	-0.204916
 507	1	3	0.299417	-24.1777	35.3156	-0.110893
 508	1	3	-0.384234	-24.2579	35.9039	1.16792
 509	1	6	0.146041	-23.6216	33.1845	3.11378
 510	1	6	0.136211	-24.125	35.601	3.30883
 511	1	6	0.166859	-24.3975	27.993	2.34009
 512	1	6	0.137644	-22.9584	26.1627	1.46013
 513	1	6	0.148636	-20.7075	29.0789	-0.873536
 514	1	5	-0.470939	-21.5809	31.8716	-0.662091
 515	1	5	-0.47569	-24.9515	30.9121	2.35731
 516	1	6	0.193108	-24.4627	36.9679	1.26243
 517	1	6	0.21486	-23.8239	33.4704	-1.18459
 518	1	1	0.473101	-27.4513	8.29022	2.91692
 519	1	2	0.047723	-26.6765	9.39954	2.57943
 520	1	3	0.004987	-27.509	10.5772	2.94368
 521	1	2	0.062675	-28.6963	8.63499	3.43477
 522	1	3	0.048591	-28.7098	10.1172	3.44416
 523	1	5	-0.383443	-25.539	9.42401	2.14102
 524	1	5	-0.390296	-29.5721	7.89867	3.85835
 525	1	3	-0.001908	-27.2256	11.9469	2.86497
 526	1	3	-0.038207	-29.6998	10.9966	3.88161
 527	1	3	-0.215576	-29.4399	12.3791	3.80065
 528	1	3	-0.070363	-28.2009	12.8813	3.30671
 529	1	6	0.160197	-26.2687	12.2705	2.46207
 530	1	6	0.153305	-30.6435	10.6156	4.26658
 531	1	6	0.179436	-30.2319	13.0458	4.12372
 532	1	7	-0.074672	-27.912	14.4058	3.16535
 533	1	7	0.280369	-28.1164	14.747	1.63865
 534	1	8	-0.106158	-27.1399	14.2113	0.871889
 535	1	8	-0.092663	-28.1447	16.0746	1.38293
 536	1	8	-0.102536	-29.2822	14.2454	1.17002
 537	1	7	0.310197	-28.8663	15.3169	4.0339
 538	1	8	-0.10503	-30.134	15.3677	3.5654
 539	1	8	-0.101207	-28.429	16.5963	4.08206
 540	1	8	-0.097553	-28.9306	14.8979	5.31878
 541	1	3	-0.010565	-26.4735	14.6999	3.68377
 542	1	3	-0.081209	-25.6004	15.615	3.03699
 543	1	3	-0.082072	-24.3767	15.9306	3.64098
 544	1	3	-0.061713	-26.0513	14.128	4.91748
 545	1	3	-0.146525	-24.8166	14.4652	5.51073
 546	1	3	-0.036475	-24.0001	15.3882	4.84843
 547	1	2	0.474489	-22.7085	16.0076	5.25343
 548	1	1	-0.056758	-22.3775	16.9051	4.23965
 549	1	2	0.480785	-23.3281	16.8961	3.22167
 550	1	3	0.11186	-21.2263	17.7547	4.26268
 551	1	3	-0.193084	-20.0029	17.2909	4.78235
 552	1	3	-0.037687	-18.8788	18.1262	4.83542
 553	1	3	-0.413926	-21.2894	19.0768	3.77649
 554	1	3	0.299417	-20.1632	19.9266	3.79912
 555	1	3	-0.384234	-18.9608	19.4374	4.34636
 556	1	6	0.146041	-19.9171	16.2767	5.16237
 557	1	6	0.136211	-17.9465	17.7545	5.25674
 558	1	6	0.166859	-24.5172	14.0508	6.47157
 559	1	6	0.137644	-26.7075	13.4421	5.4477
 560	1	6	0.148636	-25.8581	16.1164	2.11013
 561	1	5	-0.470939	-23.3517	17.5551	2.19722
 562	1	5	-0.47569	-22.1212	15.7941	6.30048
 563	1	6	0.193108	-18.0859	20.0815	4.39656
 564	1	6	0.21486	-22.2156	19.4502	3.34706
 565	1	1	0.473101	-23.6585	-3.71261	8.652
 566	1	2	0.047723	-23.5332	-2.32817	8.4793
 567	1	3	0.004987	-24.6277	-1.72427	9.27971
 568	1	2	0.062675	-24.7348	-4.03837	9.48561
 569	1	3	0.048591	-25.3475	-2.74151	9.86559
 570	1	5	-0.383443	-22.7237	-1.70625	7.81208
 571	1	5	-0.390296	-25.0976	-5.13509	9.87999
 572	1	3	-0.001908	-24.9356	-0.377919	9.50803
 573	1	3	-0.038207	-26.4359	-2.47218	10.6972
 574	1	3	-0.215576	-26.7762	-1.12315	10.9269
 575	1	3	-0.070363	-26.039	-0.0535788	10.3425
 576	1	6	0.160197	-24.3017	0.385002	9.06403
 577	1	6	0.153305	-26.9846	-3.28564	11.1671
 578	1	6	0.179436	-27.6008	-0.924243	11.6039
 579	1	7	-0.074672	-26.3381	1.42864	10.7099
 580	1	7	0.280369	-25.6046	1.69144	12.0825
 581	1	8	-0.106158	-25.9654	0.810989	13.0436
 582	1	8	-0.092663	-24.264	1.55498	11.9617
 583	1	8	-0.102536	-25.8577	2.92354	12.5805
 584	1	7	0.310197	-27.8845	1.72041	10.8846
 585	1	8	-0.10503	-28.4038	1.28808	12.0554
 586	1	8	-0.101207	-28.623	1.14272	9.91086
 587	1	8	-0.097553	-28.1436	3.04745	10.8335
 588	1	3	-0.010565	-25.8415	2.36075	9.55631
 589	1	3	-0.081209	-26.3699	2.1843	8.24775
 590	1	3	-0.082072	-25.9979	3.07449	7.22973
 591	1	3	-0.061713	-24.9163	3.4279	9.76172
 592	1	3	-0.146525	-24.5437	4.30057	8.72192
 593	1	3	-0.036475	-25.1133	4.10493	7.46337
 594	1	2	0.474489	-25.0098	4.92887	6.23313
 595	1	1	-0.056758	-25.8863	4.35111	5.3262
 596	1	2	0.480785	-26.4903	3.20579	5.82942
 597	1	3	0.11186	-26.2254	4.95755	4.08881
 598	1	3	-0.193084	-26.1427	4.25341	2.87669
 599	1	3	-0.037687	-26.4693	4.88582	1.66603
 600	1	3	-0.413926	-26.6574	6.29277	4.07752
 601	1	3	0.299417	-26.9878	6.94372	2.87574
 602	1	3	-0.384234	-26.8859	6.22843	1.66586
 603	1	6	0.146041	-25.8266	3.21353	2.87268
 604	1	6	0.136211	-26.4004	4.33258	0.731155
 605	1	6	0.166859	-23.8623	5.13112	8.89677
 606	1	6	0.137644	-24.4829	3.62818	10.7337
 607	1	6	0.148636	-27.0855	1.39691	8.02495
 608	1	5	-0.470939	-27.3221	2.49765	5.29015
 609	1	5	-0.47569	-24.3718	5.96141	6.11406
 610	1	6	0.193108	-27.1363	6.7125	0.725679
 611	1	6	0.21486	-26.7343	6.83819	5.01419
 612	1	1	0.473101	-10.7055	-10.6727	5.47357
 613	1	2	0.047723	-10.4459	-9.59918	6.33328
 614	1	3	0.004987	-11.4938	-8.58388	6.033
 615	1	2	0.062675	-11.7933	-10.4183	4.63261
 616	1	3	0.048591	-12.2912	-9.07704	5.02412
 617	1	5	-0.383443	-9.5584	-9.48833	7.1634
 618	1	5	-0.390296	-12.2377	-11.1012	3.72438
 619	1	3	-0.001908	-11.7212	-7.31797	6.59232
 620	1	3	-0.038207	-13.3535	-8.33206	4.50954
 621	1	3	-0.215576	-13.5814	-7.04553	5.03646
 622	1	3	-0.070363	-12.7925	-6.51963	6.09723
 623	1	6	0.160197	-11.047	-6.97122	7.36782
 624	1	6	0.153305	-13.9636	-8.72789	3.70308
 625	1	6	0.179436	-14.3702	-6.44593	4.58749
 626	1	7	-0.074672	-13.0404	-5.05998	6.59099
 627	1	7	0.280369	-12.6879	-4.86598	8.1173
 628	1	8	-0.106158	-11.361	-4.83056	8.37249
 629	1	8	-0.092663	-13.2037	-5.85853	8.87635
 630	1	8	-0.102536	-13.193	-3.70714	8.59901
 631	1	7	0.310197	-12.103	-4.1443	5.71531
 632	1	8	-0.10503	-12.4837	-4.14034	4.41705
 633	1	8	-0.101207	-10.8282	-4.58007	5.72128
 634	1	8	-0.097553	-12.0563	-2.86201	6.14267
 635	1	3	-0.010565	-14.5534	-4.68934	6.44916
 636	1	3	-0.081209	-15.5382	-5.56425	6.98369
 637	1	3	-0.082072	-16.893	-5.20425	6.90436
 638	1	3	-0.061713	-14.9986	-3.4713	5.85244
 639	1	3	-0.146525	-16.3627	-3.1307	5.78034
 640	1	3	-0.036475	-17.2908	-4.0202	6.32198
 641	1	2	0.474489	-18.77	-3.92312	6.4024