pySIMM System Object

2164 atoms
2393 bonds
4140 angles
6528 dihedrals
736 impropers

8 atom types
10 bond types
16 angle types
7 dihedral types
4 improper types

-212.895625 212.895625 xlo xhi
-212.895625 212.895625 ylo yhi
-212.895625 212.895625 zlo zhi

Masses

   1	14.01	# n
   2	12.01	# c
   3	12.01	# ca
   4	1.008	# hn
   5	16.0	# o
   6	1.008	# ha
   7	12.01	# c3
   8	19.0	# f

Pair Coeffs

   1	0.17	3.249998523775958	# n
   2	0.086	3.3996695084235347	# c
   3	0.086	3.3996695084235347	# ca
   4	0.0157	1.069078461768407	# hn
   5	0.21	2.959921901149463	# o
   6	0.015	2.59964245953351	# ha
   7	0.1094	3.3996695084235347	# c3
   8	0.061	3.1181455134911875	# f

Bond Coeffs

   1	345.8	1.086	# ca,ha
   2	384.2	1.4121	# ca,n
   3	637.7	1.2183	# c,o
   4	321.0	1.5156	# c3,ca
   5	403.2	1.0129	# hn,n
   6	356.9	1.3497	# c3,f
   7	427.6	1.3789	# c,n
   8	461.1	1.3984	# ca,ca
   9	345.9	1.4906	# c,ca
  10	300.9	1.5375	# c3,c3

Angle Coeffs

   1	66.11	109.24	# c3,c3,f
   2	66.62	120.02	# ca,ca,ca
   3	63.53	120.77	# c3,ca,ca
   4	62.86	111.51	# c3,c3,c3
   5	63.74	127.08	# c,n,c
   6	63.15	112.07	# c3,c3,ca
   7	48.18	119.88	# ca,ca,ha
   8	70.89	107.36	# f,c3,f
   9	68.72	122.6	# ca,c,o
  10	63.82	123.71	# c,n,ca
  11	67.87	120.19	# ca,ca,n
  12	67.68	115.25	# ca,c,n
  13	63.56	112.24	# ca,c3,ca
  14	64.28	120.33	# c,ca,ca
  15	48.33	117.55	# c,n,hn
  16	74.22	123.05	# n,c,o

Dihedral Coeffs

   1	1	3.625	2	180	# X,ca,ca,X
   2	1	1.0	2	180	# X,c,ca,X
   3	1	0.15555555555555556	3	0	# X,c3,c3,X
   4	1	0.0	2	0	# X,c3,ca,X
   5	1	2.5	2	180	# X,c,n,X
   6	1	0.45	2	180	# X,ca,n,X
   7	2	2.5	2	180	2.0	1	0	# hn,n,c,o

Improper Coeffs

   1	1.1	-1	2	# ca,ca,ca,c3
   2	1.1	-1	2	# n,X,X,hn
   3	1.1	-1	2	# ca,X,X,ha
   4	10.5	-1	2	# c,X,X,o

Atoms

   1	1	1	0.473101	-76.1715	-20.5299	-12.8103
   2	1	2	0.047723	-77.2938	-21.0174	-12.1349
   3	1	3	0.004987	-78.0745	-21.7568	-13.155
   4	1	2	0.062675	-76.1637	-20.8983	-14.1596
   5	1	3	0.048591	-77.3976	-21.702	-14.353
   6	1	5	-0.383443	-77.5897	-20.9059	-10.9565
   7	1	5	-0.390296	-75.3674	-20.5878	-15.0314
   8	1	3	-0.001908	-79.3103	-22.3966	-13.0386
   9	1	3	-0.038207	-77.9033	-22.3259	-15.4966
  10	1	3	-0.215576	-79.1449	-22.9914	-15.3992
  11	1	3	-0.070363	-79.8838	-23.015	-14.1813
  12	1	6	0.160197	-79.8269	-22.37	-12.0823
  13	1	6	0.153305	-77.3546	-22.2825	-16.4351
  14	1	6	0.179436	-79.5286	-23.4631	-16.2984
  15	1	7	-0.074672	-81.315	-23.6197	-14.0546
  16	1	7	0.280369	-81.9965	-23.9712	-15.4336
  17	1	8	-0.106158	-81.9742	-22.9308	-16.2976
  18	1	8	-0.092663	-83.3022	-24.2865	-15.2753
  19	1	8	-0.102536	-81.4147	-25.0199	-16.058
  20	1	7	0.310197	-81.1852	-24.9336	-13.1883
  21	1	8	-0.10503	-80.2199	-25.7486	-13.671
  22	1	8	-0.101207	-82.3226	-25.6636	-13.146
  23	1	8	-0.097553	-80.8448	-24.6695	-11.9065
  24	1	3	-0.010565	-82.1914	-22.5137	-13.4026
  25	1	3	-0.081209	-82.0609	-21.1884	-13.8908
  26	1	3	-0.082072	-82.7665	-20.1585	-13.2672
  27	1	3	-0.061713	-83.0969	-22.7515	-12.3286
  28	1	3	-0.146525	-83.803	-21.6937	-11.7148
  29	1	3	-0.036475	-83.6016	-20.3957	-12.1991
  30	1	2	0.474489	-84.1424	-19.0877	-11.7393
  31	1	1	-0.056758	-83.5799	-18.1321	-12.5805
  32	1	2	0.480785	-82.7525	-18.7013	-13.5404
  33	1	3	0.11186	-83.8066	-16.7328	-12.4698
  34	1	3	-0.193084	-82.7355	-15.8254	-12.5819
  35	1	3	-0.037687	-82.9576	-14.4441	-12.4876
  36	1	3	-0.413926	-85.1027	-16.2335	-12.2469
  37	1	3	0.299417	-85.327	-14.8557	-12.1333
  38	1	3	-0.384234	-84.2561	-13.9639	-12.2639
  39	1	6	0.146041	-81.7232	-16.1864	-12.7513
  40	1	6	0.136211	-82.1249	-13.7521	-12.5794
  41	1	6	0.166859	-84.474	-21.8727	-10.8767
  42	1	6	0.137644	-83.2532	-23.7522	-11.94
  43	1	6	0.148636	-81.3966	-20.9472	-14.718
  44	1	5	-0.470939	-82.1367	-18.1548	-14.4394
  45	1	5	-0.47569	-84.903	-18.9208	-10.8006
  46	1	6	0.193108	-84.4331	-12.898	-12.162
  47	1	6	0.21486	-85.9444	-16.9095	-12.1418
  48	1	1	0.473101	-72.6304	-8.75882	-3.1009
  49	1	2	0.047723	-73.9244	-9.2389	-2.89139
  50	1	3	0.004987	-74.207	-10.1202	-4.05501
  51	1	2	0.062675	-72.0415	-9.29813	-4.24591
  52	1	3	0.048591	-73.0863	-10.1431	-4.85865
  53	1	5	-0.383443	-74.7149	-8.93052	-2.01662
  54	1	5	-0.390296	-70.9401	-9.07661	-4.72061
  55	1	3	-0.001908	-75.3815	-10.7929	-4.41557
  56	1	3	-0.038207	-73.0735	-10.8118	-6.08083
  57	1	3	-0.215576	-74.2384	-11.5027	-6.45664
  58	1	3	-0.070363	-75.399	-11.5278	-5.63121
  59	1	6	0.160197	-76.2418	-10.7287	-3.75859
  60	1	6	0.153305	-72.1958	-10.7801	-6.72361
  61	1	6	0.179436	-74.2348	-12.0161	-7.41647
  62	1	7	-0.074672	-76.6252	-12.3524	-6.11251
  63	1	7	0.280369	-77.6605	-12.6966	-4.96935
  64	1	8	-0.106158	-77.064	-13.2024	-3.86661
  65	1	8	-0.092663	-78.5528	-13.628	-5.37334
  66	1	8	-0.102536	-78.3798	-11.6294	-4.55539
  67	1	7	0.310197	-77.3513	-11.4897	-7.2185
  68	1	8	-0.10503	-77.6738	-10.2591	-6.75848
  69	1	8	-0.101207	-78.5006	-12.0544	-7.65408
  70	1	8	-0.097553	-76.5728	-11.2804	-8.30425
  71	1	3	-0.010565	-76.0497	-13.7042	-6.62872
  72	1	3	-0.081209	-76.288	-14.206	-7.93495
  73	1	3	-0.082072	-75.6446	-15.3847	-8.33394
  74	1	3	-0.061713	-75.1722	-14.4363	-5.77775
  75	1	3	-0.146525	-74.5378	-15.6208	-6.19701
  76	1	3	-0.036475	-74.7914	-16.0688	-7.49461
  77	1	2	0.474489	-74.226	-17.2231	-8.23872
  78	1	1	-0.056758	-74.7799	-17.1529	-9.50819
  79	1	2	0.480785	-75.6604	-16.0893	-9.64192
  80	1	3	0.11186	-74.4498	-18.0528	-10.5537
  81	1	3	-0.193084	-73.1075	-18.2647	-10.9059
  82	1	3	-0.037687	-72.7724	-19.2015	-11.8905
  83	1	3	-0.413926	-75.4571	-18.7766	-11.2115
  84	1	3	0.299417	-75.1433	-19.7463	-12.1885
  85	1	3	-0.384234	-73.7842	-19.9413	-12.5192
  86	1	6	0.146041	-72.3173	-17.7198	-10.396
  87	1	6	0.136211	-71.7285	-19.3662	-12.1514
  88	1	6	0.166859	-73.8498	-16.1579	-5.54692
  89	1	6	0.137644	-74.9442	-14.0623	-4.78406
  90	1	6	0.148636	-76.9408	-13.7087	-8.64538
  91	1	5	-0.470939	-76.2641	-15.7409	-10.6403
  92	1	5	-0.47569	-73.3833	-18.0007	-7.82515
  93	1	6	0.193108	-73.5039	-20.6768	-13.2698
  94	1	6	0.21486	-76.4954	-18.6067	-10.9333
  95	1	1	0.473101	-68.3466	-6.29598	-12.6663
  96	1	2	0.047723	-67.3712	-5.51866	-12.0368
  97	1	3	0.004987	-68.1069	-4.67761	-11.0552
  98	1	2	0.062675	-69.6302	-6.01735	-12.1969
  99	1	3	0.048591	-69.4483	-4.98868	-11.1383
 100	1	5	-0.383443	-66.1644	-5.52406	-12.2128
 101	1	5	-0.390296	-70.6895	-6.47862	-12.5898
 102	1	3	-0.001908	-67.6282	-3.69985	-10.1721
 103	1	3	-0.038207	-70.385	-4.36464	-10.3103
 104	1	3	-0.215576	-69.9218	-3.39103	-9.40087
 105	1	3	-0.070363	-68.548	-3.02695	-9.32067
 106	1	6	0.160197	-66.5667	-3.47745	-10.1818
 107	1	6	0.153305	-71.44	-4.61929	-10.3749
 108	1	6	0.179436	-70.6542	-2.89597	-8.76614
 109	1	7	-0.074672	-68.1345	-1.86037	-8.37041
 110	1	7	0.280369	-66.5842	-1.80248	-8.07611
 111	1	8	-0.106158	-66.0935	-3.00312	-7.69419
 112	1	8	-0.092663	-66.3028	-0.944063	-7.06922
 113	1	8	-0.102536	-65.8519	-1.40058	-9.1394
 114	1	7	0.310197	-68.57	-0.529418	-9.09867
 115	1	8	-0.10503	-69.9148	-0.412351	-9.18486
 116	1	8	-0.101207	-68.1132	-0.485392	-10.3713
 117	1	8	-0.097553	-68.1121	0.586333	-8.48673
 118	1	3	-0.010565	-68.8319	-2.07433	-6.99292
 119	1	3	-0.081209	-68.7385	-3.35044	-6.3856
 120	1	3	-0.082072	-69.3484	-3.56464	-5.14537
 121	1	3	-0.061713	-69.5451	-1.05361	-6.29598
 122	1	3	-0.146525	-70.1805	-1.30251	-5.05865
 123	1	3	-0.036475	-70.0668	-2.5809	-4.50165
 124	1	2	0.474489	-70.6882	-3.17936	-3.28299
 125	1	1	-0.056758	-70.2982	-4.51183	-3.28643
 126	1	2	0.480785	-69.4599	-4.81104	-4.35435
 127	1	3	0.11186	-70.8784	-5.51396	-2.46301
 128	1	3	-0.193084	-70.9215	-5.42964	-1.06323
 129	1	3	-0.037687	-71.5199	-6.45904	-0.314254
 130	1	3	-0.413926	-71.4532	-6.62395	-3.08784
 131	1	3	0.299417	-72.0501	-7.67219	-2.37134
 132	1	3	-0.384234	-72.0847	-7.57296	-0.96517
 133	1	6	0.146041	-70.4988	-4.56548	-0.556977
 134	1	6	0.136211	-71.553	-6.38497	0.771424
 135	1	6	0.166859	-70.7588	-0.530906	-4.5544
 136	1	6	0.137644	-69.638	-0.0548738	-6.70654
 137	1	6	0.148636	-68.2187	-4.17228	-6.87188
 138	1	5	-0.470939	-68.9938	-5.89283	-4.66987
 139	1	5	-0.47569	-71.4764	-2.63596	-2.52672
 140	1	6	0.193108	-72.554	-8.35723	-0.376294
 141	1	6	0.21486	-71.4032	-6.68284	-4.16605
 142	1	1	0.473101	-77.7459	-14.3787	-12.8156
 143	1	2	0.047723	-76.5655	-13.7493	-13.2252
 144	1	3	0.004987	-75.7794	-14.803	-13.908
 145	1	2	0.062675	-77.7978	-15.7233	-13.1985
 146	1	3	0.048591	-76.5034	-15.975	-13.8872
 147	1	5	-0.383443	-76.2085	-12.5934	-13.0546
 148	1	5	-0.390296	-78.6861	-16.5408	-13.0079
 149	1	3	-0.001908	-74.523	-14.7211	-14.5136
 150	1	3	-0.038207	-75.9956	-17.1397	-14.4664
 151	1	3	-0.215576	-74.7133	-17.0902	-15.055
 152	1	3	-0.070363	-73.9505	-15.8872	-15.0871
 153	1	6	0.160197	-74.0199	-13.759	-14.5363
 154	1	6	0.153305	-76.5865	-18.0502	-14.4728
 155	1	6	0.179436	-74.3401	-18.0009	-15.5143
 156	1	7	-0.074672	-72.5808	-15.794	-15.8238
 157	1	7	0.280369	-71.7279	-17.1203	-15.7248
 158	1	8	-0.106158	-71.701	-17.6103	-14.4662
 159	1	8	-0.092663	-70.4405	-16.9017	-16.0791
 160	1	8	-0.102536	-72.1684	-18.1217	-16.5184
 161	1	7	0.310197	-72.9231	-15.507	-17.3356
 162	1	8	-0.10503	-73.5362	-14.3116	-17.4825
 163	1	8	-0.101207	-73.7787	-16.4174	-17.8536
 164	1	8	-0.097553	-71.8294	-15.5121	-18.1311
 165	1	3	-0.010565	-71.724	-14.6687	-15.158
 166	1	3	-0.081209	-71.1463	-13.5917	-15.886
 167	1	3	-0.082072	-70.4209	-12.6107	-15.1962
 168	1	3	-0.061713	-71.5137	-14.7077	-13.7493
 169	1	3	-0.146525	-70.7703	-13.7162	-13.0761
 170	1	3	-0.036475	-70.233	-12.6705	-13.8328
 171	1	2	0.474489	-69.4389	-11.4817	-13.4182
 172	1	1	-0.056758	-69.213	-10.754	-14.5816
 173	1	2	0.480785	-69.7719	-11.368	-15.6963
 174	1	3	0.11186	-68.5111	-9.51429	-14.6246
 175	1	3	-0.193084	-67.5723	-9.25104	-15.6374
 176	1	3	-0.037687	-66.8928	-8.02572	-15.6796
 177	1	3	-0.413926	-68.7534	-8.52803	-13.6526
 178	1	3	0.299417	-68.0783	-7.28721	-13.6689
 179	1	3	-0.384234	-67.1477	-7.0514	-14.7026
 180	1	6	0.146041	-67.367	-9.99679	-16.4012
 181	1	6	0.136211	-66.1676	-7.83448	-16.4689
 182	1	6	0.166859	-70.6268	-13.7486	-11.9978
 183	1	6	0.137644	-71.9513	-15.51	-13.1604
 184	1	6	0.148636	-71.2565	-13.4784	-16.959
 185	1	5	-0.470939	-69.789	-10.9621	-16.846
 186	1	5	-0.47569	-69.0701	-11.2235	-12.2847
 187	1	6	0.193108	-66.6056	-6.10897	-14.741
 188	1	6	0.21486	-69.4759	-8.73096	-12.8666
 189	1	1	0.473101	-82.5734	-12.5095	0.570928
 190	1	2	0.047723	-82.5724	-12.3934	-0.824253
 191	1	3	0.004987	-83.1667	-13.6591	-1.32754
 192	1	2	0.062675	-83.0645	-13.7473	0.996209
 193	1	3	0.048591	-83.4575	-14.46	-0.244599
 194	1	5	-0.383443	-82.2254	-11.4477	-1.51302
 195	1	5	-0.390296	-83.1967	-14.1705	2.13343
 196	1	3	-0.001908	-83.4981	-14.0427	-2.63323
 197	1	3	-0.038207	-84.092	-15.6931	-0.405181
 198	1	3	-0.215576	-84.4448	-16.0942	-1.71025
 199	1	3	-0.070363	-84.1595	-15.2822	-2.84567
 200	1	6	0.160197	-83.2783	-13.3671	-3.45634
 201	1	6	0.153305	-84.3348	-16.3037	0.461918
 202	1	6	0.179436	-84.9717	-17.0374	-1.81021
 203	1	7	-0.074672	-84.6204	-15.6552	-4.28709
 204	1	7	0.280369	-85.0359	-17.1693	-4.45803
 205	1	8	-0.106158	-84.0957	-18.0129	-3.9745
 206	1	8	-0.092663	-85.1933	-17.4974	-5.76084
 207	1	8	-0.102536	-86.2002	-17.4774	-3.84254
 208	1	7	0.310197	-85.8713	-14.7428	-4.60058
 209	1	8	-0.10503	-85.5304	-13.4399	-4.72367
 210	1	8	-0.101207	-86.7852	-14.7951	-3.60465
 211	1	8	-0.097553	-86.52	-15.091	-5.73476
 212	1	3	-0.010565	-83.4233	-15.4326	-5.25488
 213	1	3	-0.081209	-83.5587	-14.7917	-6.51521
 214	1	3	-0.082072	-82.4369	-14.6892	-7.34718
 215	1	3	-0.061713	-82.1458	-15.9479	-4.89612
 216	1	3	-0.146525	-81.0328	-15.8436	-5.75484
 217	1	3	-0.036475	-81.2136	-15.2074	-6.98667
 218	1	2	0.474489	-80.2479	-14.9258	-8.08134
 219	1	1	-0.056758	-80.9532	-14.2001	-9.03614
 220	1	2	0.480785	-82.2901	-14.0413	-8.67588
 221	1	3	0.11186	-80.36	-13.6122	-10.1947
 222	1	3	-0.193084	-80.7067	-12.3022	-10.5734
 223	1	3	-0.037687	-80.1324	-11.7037	-11.7007
 224	1	3	-0.413926	-79.3947	-14.3018	-10.9564
 225	1	3	0.299417	-78.7778	-13.7069	-12.0805
 226	1	3	-0.384234	-79.1807	-12.4064	-12.4499
 227	1	6	0.146041	-81.4319	-11.7369	-9.99495
 228	1	6	0.136211	-80.4149	-10.6913	-11.9831
 229	1	6	0.166859	-80.06	-16.2419	-5.47373
 230	1	6	0.137644	-82.015	-16.4512	-3.9414
 231	1	6	0.148636	-84.4987	-14.381	-6.86878
 232	1	5	-0.470939	-83.1653	-13.4205	-9.25413
 233	1	5	-0.47569	-79.0749	-15.2565	-8.09304
 234	1	6	0.193108	-78.7225	-11.9209	-13.3085
 235	1	6	0.21486	-79.093	-15.3057	-10.6639
 236	1	1	0.473101	-73.6559	-6.45312	-6.38612
 237	1	2	0.047723	-73.424	-5.42651	-5.46955
 238	1	3	0.004987	-74.5288	-5.53542	-4.47411
 239	1	2	0.062675	-74.8077	-7.17983	-6.10237
 240	1	3	0.048591	-75.3539	-6.5678	-4.87567
 241	1	5	-0.383443	-72.5108	-4.61863	-5.46067
 242	1	5	-0.390296	-75.2565	-8.15787	-6.67673
 243	1	3	-0.001908	-74.7773	-4.81699	-3.2925
 244	1	3	-0.038207	-76.4936	-6.9206	-4.16103
 245	1	3	-0.215576	-76.7718	-6.20192	-2.98843
 246	1	3	-0.070363	-75.9148	-5.16793	-2.51193
 247	1	6	0.160197	-74.0903	-4.02743	-2.9997
 248	1	6	0.153305	-77.1349	-7.73068	-4.50153
 249	1	6	0.179436	-77.663	-6.48044	-2.43069
 250	1	7	-0.074672	-76.2816	-4.4884	-1.15919
 251	1	7	0.280369	-75.0791	-3.73634	-0.464989
 252	1	8	-0.106158	-74.7237	-2.59297	-1.09163
 253	1	8	-0.092663	-73.9648	-4.49465	-0.400077
 254	1	8	-0.102536	-75.3829	-3.4025	0.809589
 255	1	7	0.310197	-77.423	-3.4464	-1.47993
 256	1	8	-0.10503	-77.0419	-2.56038	-2.4283
 257	1	8	-0.101207	-77.7958	-2.73012	-0.39541
 258	1	8	-0.097553	-78.5367	-4.03615	-1.97163
 259	1	3	-0.010565	-76.7242	-5.64524	-0.208411
 260	1	3	-0.081209	-78.0169	-5.72947	0.378255
 261	1	3	-0.082072	-78.4115	-6.93683	0.975377
 262	1	3	-0.061713	-75.8536	-6.76273	-0.0681271
 263	1	3	-0.146525	-76.2642	-7.95992	0.547095
 264	1	3	-0.036475	-77.5697	-8.02837	1.03447
 265	1	2	0.474489	-78.3418	-9.19759	1.53169
 266	1	1	-0.056758	-79.6312	-8.72815	1.72633
 267	1	2	0.480785	-79.75	-7.3704	1.46093
 268	1	3	0.11186	-80.7299	-9.56525	2.04647
 269	1	3	-0.193084	-81.4994	-9.31808	3.1926
 270	1	3	-0.037687	-82.605	-10.1259	3.48739
 271	1	3	-0.413926	-81.0759	-10.6304	1.19569
 272	1	3	0.299417	-82.1921	-11.4518	1.46458
 273	1	3	-0.384234	-82.9497	-11.1777	2.62476
 274	1	6	0.146041	-81.2473	-8.49071	3.85039
 275	1	6	0.136211	-83.1991	-9.92951	4.37793
 276	1	6	0.166859	-75.619	-8.83596	0.559462
 277	1	6	0.137644	-74.8737	-6.74669	-0.535535
 278	1	6	0.148636	-78.7472	-4.93024	0.303831
 279	1	5	-0.470939	-80.755	-6.68313	1.50674
 280	1	5	-0.47569	-77.9413	-10.3466	1.61361
 281	1	6	0.193108	-83.8154	-11.7894	2.86801
 282	1	6	0.21486	-80.4803	-10.8114	0.304442
 283	1	1	0.473101	-71.9904	-6.44381	-21.5757
 284	1	2	0.047723	-73.2184	-7.05759	-21.2994
 285	1	3	0.004987	-73.0809	-7.6227	-19.931
 286	1	2	0.062675	-71.0848	-6.57625	-20.519
 287	1	3	0.048591	-71.809	-7.34175	-19.4774
 288	1	5	-0.383443	-74.2174	-7.11844	-21.9975
 289	1	5	-0.390296	-69.96	-6.11367	-20.4082
 290	1	3	-0.001908	-74.0161	-8.29815	-19.1336
 291	1	3	-0.038207	-71.3843	-7.73808	-18.2097
 292	1	3	-0.215576	-72.3108	-8.40577	-17.3877
 293	1	3	-0.070363	-73.6412	-8.68018	-17.817
 294	1	6	0.160197	-75.0048	-8.48751	-19.5387
 295	1	6	0.153305	-70.373	-7.52279	-17.8703
 296	1	6	0.179436	-71.9818	-8.70202	-16.3938
 297	1	7	-0.074672	-74.6127	-9.36437	-16.8118
 298	1	7	0.280369	-76.1401	-9.27125	-17.2104
 299	1	8	-0.106158	-76.9386	-9.64936	-16.1864
 300	1	8	-0.092663	-76.4673	-10.0492	-18.2663
 301	1	8	-0.102536	-76.5201	-8.01525	-17.535
 302	1	7	0.310197	-74.2033	-10.8864	-16.7462
 303	1	8	-0.10503	-72.958	-11.065	-16.2571
 304	1	8	-0.101207	-74.1917	-11.4494	-17.9753
 305	1	8	-0.097553	-75.0359	-11.6252	-15.9793
 306	1	3	-0.010565	-74.4428	-8.59711	-15.4673
 307	1	3	-0.081209	-74.0571	-9.2209	-14.2496
 308	1	3	-0.082072	-73.8	-8.41483	-13.132
 309	1	3	-0.061713	-74.5906	-7.18027	-15.4799
 310	1	3	-0.146525	-74.3782	-6.39495	-14.3324
 311	1	3	-0.036475	-73.9763	-7.04635	-13.1659
 312	1	2	0.474489	-73.5893	-6.4878	-11.8464
 313	1	1	-0.056758	-73.1439	-7.57262	-11.1083
 314	1	2	0.480785	-73.2478	-8.77196	-11.797
 315	1	3	0.11186	-72.5711	-7.437	-9.82363
 316	1	3	-0.193084	-71.2176	-7.73681	-9.60745
 317	1	3	-0.037687	-70.6401	-7.53015	-8.34806
 318	1	3	-0.413926	-73.3539	-6.96514	-8.76302
 319	1	3	0.299417	-72.804	-6.78969	-7.4795
 320	1	3	-0.384234	-71.4314	-7.05346	-7.29317
 321	1	6	0.146041	-70.6125	-8.1276	-10.4201
 322	1	6	0.136211	-69.5879	-7.75765	-8.18328
 323	1	6	0.166859	-74.4743	-5.31154	-14.3591
 324	1	6	0.137644	-74.8414	-6.66792	-16.4039
 325	1	6	0.148636	-73.9165	-10.2928	-14.1547
 326	1	5	-0.470939	-72.8814	-9.87888	-11.4394
 327	1	5	-0.47569	-73.6388	-5.31563	-11.5084
 328	1	6	0.193108	-70.9688	-6.92675	-6.31931
 329	1	6	0.21486	-74.4104	-6.76952	-8.93028
 330	1	1	0.473101	-57.4996	-6.12328	-26.7239
 331	1	2	0.047723	-58.35	-5.7142	-27.7532
 332	1	3	0.004987	-59.6127	-5.30541	-27.0836
 333	1	2	0.062675	-58.1039	-6.03575	-25.4681
 334	1	3	0.048591	-59.4694	-5.50831	-25.7274
 335	1	5	-0.383443	-58.1244	-5.66786	-28.951
 336	1	5	-0.390296	-57.63	-6.30074	-24.3752
 337	1	3	-0.001908	-60.7787	-4.75265	-27.6279
 338	1	3	-0.038207	-60.4995	-5.19323	-24.8375
 339	1	3	-0.215576	-61.6886	-4.6465	-25.3662
 340	1	3	-0.070363	-61.8528	-4.40842	-26.7604
 341	1	6	0.160197	-60.8087	-4.58481	-28.6988
 342	1	6	0.153305	-60.3702	-5.34992	-23.7686
 343	1	6	0.179436	-62.4849	-4.37931	-24.6743
 344	1	7	-0.074672	-63.156	-3.70631	-27.2577
 345	1	7	0.280369	-63.3648	-3.80299	-28.8174
 346	1	8	-0.106158	-64.5947	-3.37918	-29.1892
 347	1	8	-0.092663	-63.2637	-5.07938	-29.2531
 348	1	8	-0.102536	-62.4774	-3.06161	-29.518
 349	1	7	0.310197	-63.0188	-2.18912	-26.8404
 350	1	8	-0.10503	-63.1681	-2.0202	-25.5068
 351	1	8	-0.101207	-63.9154	-1.37613	-27.443
 352	1	8	-0.097553	-61.7971	-1.69844	-27.1529
 353	1	3	-0.010565	-64.3952	-4.40671	-26.6259
 354	1	3	-0.081209	-65.5694	-3.69258	-26.2633
 355	1	3	-0.082072	-66.6787	-4.40293	-25.7853
 356	1	3	-0.061713	-64.4063	-5.82457	-26.4979
 357	1	3	-0.146525	-65.5314	-6.51932	-26.008
 358	1	3	-0.036475	-66.663	-5.77483	-25.6603
 359	1	2	0.474489	-67.9926	-6.21306	-25.1561
 360	1	1	-0.056758	-68.7396	-5.05115	-25.002
 361	1	2	0.480785	-68.0205	-3.91774	-25.3645
 362	1	3	0.11186	-70.0692	-5.02125	-24.4931
 363	1	3	-0.193084	-71.059	-4.23154	-25.1014
 364	1	3	-0.037687	-72.3528	-4.17556	-24.5656
 365	1	3	-0.413926	-70.4015	-5.76464	-23.348
 366	1	3	0.299417	-71.6931	-5.71885	-22.7801
 367	1	3	-0.384234	-72.6624	-4.90714	-23.4089
 368	1	6	0.146041	-70.8237	-3.6455	-25.9858
 369	1	6	0.136211	-73.1105	-3.5557	-25.0413
 370	1	6	0.166859	-65.5342	-7.60398	-25.9197
 371	1	6	0.137644	-63.5373	-6.40258	-26.8018
 372	1	6	0.148636	-65.6539	-2.61589	-26.3667
 373	1	5	-0.470939	-68.3857	-2.75483	-25.3507
 374	1	5	-0.47569	-68.329	-7.36395	-24.9344
 375	1	6	0.193108	-73.6691	-4.84453	-23.0021
 376	1	6	0.21486	-69.6348	-6.37752	-22.8806
 377	1	1	0.473101	-47.5292	-12.3421	-36.8588
 378	1	2	0.047723	-48.7723	-11.7524	-37.1148
 379	1	3	0.004987	-49.5735	-11.9568	-35.8845
 380	1	2	0.062675	-47.4676	-12.8812	-35.5649
 381	1	3	0.048591	-48.8003	-12.6182	-34.9584
 382	1	5	-0.383443	-49.1641	-11.1857	-38.1216
 383	1	5	-0.390296	-46.5592	-13.4982	-35.0318
 384	1	3	-0.001908	-50.9187	-11.6639	-35.6483
 385	1	3	-0.038207	-49.3265	-12.9924	-33.7169
 386	1	3	-0.215576	-50.6874	-12.7099	-33.4569
 387	1	3	-0.070363	-51.5115	-12.0631	-34.42
 388	1	6	0.160197	-51.4838	-11.2057	-36.4519
 389	1	6	0.153305	-48.7106	-13.5324	-33.0008
 390	1	6	0.179436	-51.1186	-13.0612	-32.5221
 391	1	7	-0.074672	-53.0533	-12.0135	-34.2165
 392	1	7	0.280369	-53.7464	-10.8483	-35.0338
 393	1	8	-0.106158	-53.0776	-9.67939	-34.9128
 394	1	8	-0.092663	-55.0062	-10.6183	-34.597
 395	1	8	-0.102536	-53.8547	-11.0945	-36.3586
 396	1	7	0.310197	-53.5813	-13.4007	-34.7581
 397	1	8	-0.10503	-53.164	-14.4308	-33.9861
 398	1	8	-0.101207	-53.1229	-13.6749	-36.0013
 399	1	8	-0.097553	-54.9309	-13.4595	-34.8311
 400	1	3	-0.010565	-53.4196	-11.7533	-32.7179
 401	1	3	-0.081209	-52.9435	-10.5752	-32.0794
 402	1	3	-0.082072	-53.4833	-10.2021	-30.8362
 403	1	3	-0.061713	-54.3645	-12.5566	-32.0111
 404	1	3	-0.146525	-54.8732	-12.1784	-30.7544
 405	1	3	-0.036475	-54.4347	-10.974	-30.2037
 406	1	2	0.474489	-54.9244	-10.2436	-29.0061
 407	1	1	-0.056758	-54.2428	-9.0356	-29.0028
 408	1	2	0.480785	-53.3249	-8.94746	-30.0449
 409	1	3	0.11186	-54.5171	-7.99117	-28.0766
 410	1	3	-0.193084	-53.4805	-7.39036	-27.3443
 411	1	3	-0.037687	-53.7622	-6.38264	-26.4105
 412	1	3	-0.413926	-55.8411	-7.55905	-27.8705
 413	1	3	0.299417	-56.1483	-6.55147	-26.932
 414	1	3	-0.384234	-55.0885	-5.97111	-26.2047
 415	1	6	0.146041	-52.4518	-7.70567	-27.4979
 416	1	6	0.136211	-52.9528	-5.92648	-25.8434
 417	1	6	0.166859	-55.6402	-12.7674	-30.2548
 418	1	6	0.137644	-54.7783	-13.4602	-32.4405
 419	1	6	0.148636	-52.2389	-9.91161	-32.5752
 420	1	5	-0.470939	-52.5774	-8.02227	-30.3089
 421	1	5	-0.47569	-55.8107	-10.6123	-28.2532
 422	1	6	0.193108	-55.2977	-5.20082	-25.466
 423	1	6	0.21486	-56.6463	-8.01544	-28.441
 424	1	1	0.473101	-42.3095	-6.50047	-44.6283
 425	1	2	0.047723	-42.2819	-7.88398	-44.8029
 426	1	3	0.004987	-43.3352	-8.16493	-45.8133
 427	1	2	0.062675	-43.2061	-5.86406	-45.4845
 428	1	3	0.048591	-43.8854	-6.96512	-46.2127
 429	1	5	-0.383443	-41.6756	-8.71502	-44.1476
 430	1	5	-0.390296	-43.5157	-4.68425	-45.5113
 431	1	3	-0.001908	-43.8735	-9.38979	-46.2241
 432	1	3	-0.038207	-44.9989	-6.92498	-47.0544
 433	1	3	-0.215576	-45.5651	-8.14863	-47.4697
 434	1	3	-0.070363	-45.0372	-9.40093	-47.0411
 435	1	6	0.160197	-43.4339	-10.311	-45.8495
 436	1	6	0.153305	-45.4403	-5.97099	-47.335
 437	1	6	0.179436	-46.4444	-8.09463	-48.1027
 438	1	7	-0.074672	-45.6962	-10.7705	-47.4037
 439	1	7	0.280369	-47.1778	-10.6477	-47.9265
 440	1	8	-0.106158	-47.7773	-11.8568	-48.0208
 441	1	8	-0.092663	-47.2654	-10.0839	-49.1529
 442	1	8	-0.102536	-47.9434	-9.91783	-47.0837
 443	1	7	0.310197	-44.789	-11.4015	-48.5292
 444	1	8	-0.10503	-45.3479	-12.466	-49.1477
 445	1	8	-0.101207	-43.5976	-11.8088	-48.036
 446	1	8	-0.097553	-44.5126	-10.5036	-49.5027
 447	1	3	-0.010565	-45.7729	-11.6386	-46.1103
 448	1	3	-0.081209	-46.0349	-11.0087	-44.8648
 449	1	3	-0.082072	-46.02	-11.7746	-43.6938
 450	1	3	-0.061713	-45.6062	-13.054	-46.1213
 451	1	3	-0.146525	-45.625	-13.8124	-44.9311
 452	1	3	-0.036475	-45.816	-13.1375	-43.7208
 453	1	2	0.474489	-45.7544	-13.627	-42.315
 454	1	1	-0.056758	-45.8843	-12.4942	-41.5255
 455	1	2	0.480785	-46.0839	-11.3431	-42.2731
 456	1	3	0.11186	-45.6378	-12.4735	-40.1308
 457	1	3	-0.193084	-44.3157	-12.3736	-39.6754
 458	1	3	-0.037687	-44.0461	-12.2809	-38.3055
 459	1	3	-0.413926	-46.6929	-12.4938	-39.2032
 460	1	3	0.299417	-46.45	-12.3802	-37.8122
 461	1	3	-0.384234	-45.1064	-12.2722	-37.3873
 462	1	6	0.146041	-43.4946	-12.3541	-40.3869
 463	1	6	0.136211	-43.0176	-12.2006	-37.9583
 464	1	6	0.166859	-45.4606	-14.8883	-44.9439
 465	1	6	0.137644	-45.4437	-13.5885	-47.0503
 466	1	6	0.148636	-46.1981	-9.93572	-44.7911
 467	1	5	-0.470939	-46.1472	-10.1924	-41.8772
 468	1	5	-0.47569	-45.5207	-14.7679	-41.9561
 469	1	6	0.193108	-44.8739	-12.1821	-36.3292
 470	1	6	0.21486	-47.7117	-12.5625	-39.5739
 471	1	1	0.473101	-29.2929	-1.04346	-39.8427
 472	1	2	0.047723	-30.1689	-1.69746	-40.7078
 473	1	3	0.004987	-31.1193	-0.648108	-41.1601
 474	1	2	0.062675	-29.5893	0.309062	-39.6916
 475	1	3	0.048591	-30.7723	0.540715	-40.5539
 476	1	5	-0.383443	-30.1819	-2.87419	-41.0275
 477	1	5	-0.390296	-29.0422	1.1321	-38.9763
 478	1	3	-0.001908	-32.2254	-0.739829	-42.0122
 479	1	3	-0.038207	-31.504	1.7072	-40.7733
 480	1	3	-0.215576	-32.6259	1.63579	-41.6235
 481	1	3	-0.070363	-33.0225	0.414592	-42.2466
 482	1	6	0.160197	-32.4775	-1.70459	-42.4447
 483	1	6	0.153305	-31.2152	2.63712	-40.2872
 484	1	6	0.179436	-33.1795	2.55671	-41.7696
 485	1	7	-0.074672	-34.2995	0.284157	-43.1417
 486	1	7	0.280369	-35.1868	1.5889	-43.1545
 487	1	8	-0.106158	-36.3443	1.42525	-43.8337
 488	1	8	-0.092663	-34.559	2.64197	-43.7264
 489	1	8	-0.102536	-35.5535	1.94859	-41.9028
 490	1	7	0.310197	-33.7923	-0.0242256	-44.606
 491	1	8	-0.10503	-33.3545	-1.29756	-44.7255
 492	1	8	-0.101207	-32.7562	0.776118	-44.9463
 493	1	8	-0.097553	-34.7295	0.146745	-45.5642
 494	1	3	-0.010565	-35.2032	-0.853917	-42.5778
 495	1	3	-0.081209	-36.1815	-1.49787	-43.3847
 496	1	3	-0.082072	-37.0163	-2.46579	-42.8063
 497	1	3	-0.061713	-35.142	-1.2024	-41.197
 498	1	3	-0.146525	-35.9607	-2.20595	-40.6461
 499	1	3	-0.036475	-36.89	-2.82637	-41.4839
 500	1	2	0.474489	-37.959	-3.80157	-41.1579
 501	1	1	-0.056758	-38.7411	-3.91092	-42.3056
 502	1	2	0.480785	-38.2036	-3.17676	-43.3612
 503	1	3	0.11186	-40.0134	-4.5648	-42.3336
 504	1	3	-0.193084	-40.8592	-4.47221	-41.2102
 505	1	3	-0.037687	-42.1176	-5.0809	-41.1952
 506	1	3	-0.413926	-40.4796	-5.25593	-43.4738
 507	1	3	0.299417	-41.7627	-5.84949	-43.4836
 508	1	3	-0.384234	-42.5634	-5.76655	-42.3285
 509	1	6	0.146041	-40.5477	-3.92115	-40.3279
 510	1	6	0.136211	-42.7489	-5.00688	-40.3117
 511	1	6	0.166859	-35.9125	-2.45903	-39.5887
 512	1	6	0.137644	-34.4706	-0.679802	-40.5219
 513	1	6	0.148636	-36.343	-1.2254	-44.423
 514	1	5	-0.470939	-38.642	-3.04729	-44.4912
 515	1	5	-0.47569	-38.1214	-4.32355	-40.0677
 516	1	6	0.193108	-43.5504	-6.22271	-42.3178
 517	1	6	0.21486	-39.8605	-5.30713	-44.3653
 518	1	1	0.473101	-13.3895	0.403814	-40.2599
 519	1	2	0.047723	-14.2279	1.50085	-40.0906
 520	1	3	0.004987	-15.5595	1.04425	-40.5563
 521	1	2	0.062675	-14.0401	-0.697528	-40.8135
 522	1	3	0.048591	-15.4485	-0.258071	-40.9957
 523	1	5	-0.383443	-13.9619	2.59163	-39.6156
 524	1	5	-0.390296	-13.5903	-1.80829	-41.0407
 525	1	3	-0.001908	-16.7842	1.7158	-40.5298
 526	1	3	-0.038207	-16.5624	-0.954156	-41.471
 527	1	3	-0.215576	-17.8084	-0.290533	-41.4634
 528	1	3	-0.070363	-17.9556	1.03654	-40.9622
 529	1	6	0.160197	-16.7905	2.73061	-40.1492
 530	1	6	0.153305	-16.4653	-1.98196	-41.8151
 531	1	6	0.179436	-18.6818	-0.836372	-41.8149
 532	1	7	-0.074672	-19.3796	1.68082	-40.9036
 533	1	7	0.280369	-19.4177	3.02782	-40.0839
 534	1	8	-0.106158	-18.9176	2.85596	-38.839
 535	1	8	-0.092663	-20.6736	3.49835	-39.9111
 536	1	8	-0.102536	-18.7233	4.02316	-40.6804
 537	1	7	0.310197	-19.7977	1.95762	-42.4015
 538	1	8	-0.10503	-18.7795	2.50386	-43.1055
 539	1	8	-0.101207	-20.8413	2.8056	-42.5347
 540	1	8	-0.097553	-20.1438	0.818034	-43.0416
 541	1	3	-0.010565	-20.3652	0.706786	-40.1879
 542	1	3	-0.081209	-21.7692	0.816127	-40.3689
 543	1	3	-0.082072	-22.6148	-0.0833165	-39.7071
 544	1	3	-0.061713	-19.8896	-0.27872	-39.2738
 545	1	3	-0.146525	-20.7566	-1.20678	-38.6629
 546	1	3	-0.036475	-22.1255	-1.09122	-38.9184
 547	1	2	0.474489	-23.2701	-1.9037	-38.4355
 548	1	1	-0.056758	-24.4355	-1.29236	-38.9218
 549	1	2	0.480785	-24.095	-0.166511	-39.6898
 550	1	3	0.11186	-25.7852	-1.76403	-38.6795
 551	1	3	-0.193084	-26.0729	-2.75603	-37.7115
 552	1	3	-0.037687	-27.375	-3.23239	-37.5003
 553	1	3	-0.413926	-26.8901	-1.24821	-39.3954
 554	1	3	0.299417	-28.2109	-1.67571	-39.1635
 555	1	3	-0.384234	-28.4438	-2.6928	-38.2235
 556	1	6	0.146041	-25.2986	-3.18896	-37.0924
 557	1	6	0.136211	-27.5518	-4.01189	-36.7612
 558	1	6	0.166859	-20.3807	-1.98149	-37.9975
 559	1	6	0.137644	-18.8324	-0.346931	-39.0356
 560	1	6	0.148636	-22.2145	1.58649	-40.9907
 561	1	5	-0.470939	-24.8082	0.657013	-40.2351
 562	1	5	-0.47569	-23.1344	-2.93271	-37.797
 563	1	6	0.193108	-29.4535	-3.05501	-38.0466
 564	1	6	0.21486	-26.7653	-0.473827	-40.1399
 565	1	1	0.473101	-6.13288	-6.55787	-29.8456
 566	1	2	0.047723	-6.049	-5.17481	-30.0186
 567	1	3	0.004987	-7.4378	-4.68191	-29.8895
 568	1	2	0.062675	-7.42295	-6.97938	-29.5167
 569	1	3	0.048591	-8.25166	-5.74461	-29.5695
 570	1	5	-0.383443	-5.07841	-4.49695	-30.3154
 571	1	5	-0.390296	-7.83837	-8.11922	-29.3844
 572	1	3	-0.001908	-7.95239	-3.42355	-30.2097
 573	1	3	-0.038207	-9.63456	-5.57997	-29.4844
 574	1	3	-0.215576	-10.1749	-4.30667	-29.7713
 575	1	3	-0.070363	-9.35698	-3.20504	-30.1757
 576	1	6	0.160197	-7.25235	-2.6756	-30.5603
 577	1	6	0.153305	-10.2746	-6.42954	-29.2549
 578	1	6	0.179436	-11.2542	-4.22757	-29.7236
 579	1	7	-0.074672	-9.94485	-1.86634	-30.7575
 580	1	7	0.280369	-9.14224	-0.651071	-30.1255
 581	1	8	-0.106158	-8.93531	-0.840313	-28.8024
 582	1	8	-0.092663	-7.93184	-0.479073	-30.7006
 583	1	8	-0.102536	-9.74376	0.552366	-30.2396
 584	1	7	0.310197	-11.4829	-1.69569	-30.434
 585	1	8	-0.10503	-11.7315	-1.79233	-29.1081
 586	1	8	-0.101207	-12.2372	-2.61961	-31.0723
 587	1	8	-0.097553	-11.9996	-0.515939	-30.8444
 588	1	3	-0.010565	-9.81044	-1.90967	-32.3121
 589	1	3	-0.081209	-9.96878	-0.741591	-33.1104
 590	1	3	-0.082072	-9.9257	-0.859489	-34.5121
 591	1	3	-0.061713	-9.62854	-3.15599	-32.9834
 592	1	3	-0.146525	-9.56791	-3.24925	-34.3843
 593	1	3	-0.036475	-9.71926	-2.07856	-35.1248
 594	1	2	0.474489	-9.79857	-1.89846	-36.5947
 595	1	1	-0.056758	-10.087	-0.560098	-36.7862
 596	1	2	0.480785	-10.161	0.14683	-35.5914
 597	1	3	0.11186	-10.3853	-0.0377313	-38.0684
 598	1	3	-0.193084	-9.3559	0.327332	-38.9507
 599	1	3	-0.037687	-9.65484	0.734117	-40.2601
 600	1	3	-0.413926	-11.7174	-0.00544795	-38.5095
 601	1	3	0.299417	-12.0337	0.389263	-39.8244
 602	1	3	-0.384234	-10.99	0.763278	-40.6939
 603	1	6	0.146041	-8.31991	0.275556	-38.6288
 604	1	6	0.136211	-8.85109	1.00953	-40.9406
 605	1	6	0.166859	-9.44822	-4.2083	-34.8847
 606	1	6	0.137644	-9.56123	-4.08903	-32.4352
 607	1	6	0.148636	-10.1633	0.231377	-32.6674
 608	1	5	-0.470939	-10.4433	1.32098	-35.4348
 609	1	5	-0.47569	-9.70575	-2.77639	-37.4346
 610	1	6	0.193108	-11.2153	1.06972	-41.712
 611	1	6	0.21486	-12.5115	-0.309178	-37.8346
 612	1	1	0.473101	5.65326	-13.3944	-22.2955
 613	1	2	0.047723	5.56418	-13.054	-23.6509
 614	1	3	0.004987	4.15631	-13.3161	-24.0305
 615	1	2	0.062675	4.40466	-13.7448	-21.7636
 616	1	3	0.048591	3.46789	-13.7373	-22.9176
 617	1	5	-0.383443	6.44333	-12.7052	-24.4231
 618	1	5	-0.390296	4.11543	-14.0397	-20.6152
 619	1	3	-0.001908	3.56834	-13.2809	-25.296
 620	1	3	-0.038207	2.14178	-14.1669	-23.0174
 621	1	3	-0.215576	1.53112	-14.1492	-24.2919
 622	1	3	-0.070363	2.21606	-13.6922	-25.4566
 623	1	6	0.160197	4.19818	-12.9624	-26.1157
 624	1	6	0.153305	1.61446	-14.5326	-22.1387
 625	1	6	0.179436	0.501309	-14.4906	-24.3693