

################################################################################
##################################    Init    ##################################
################################################################################
units           real
atom_style      full
pair_style      lj/cut/coul/long 12.0  12.0
kspace_style    pppm 1e-4
bond_style      harmonic
angle_style     harmonic
dihedral_style  fourier
improper_style  cvff
special_bonds   amber
pair_modify     mix arithmetic
read_data       temp.lmps
  orthogonal box = (-102.35 -102.35 -102.35) to (102.35 102.35 102.35)
  1 by 1 by 1 MPI processor grid
  reading atoms ...
  94 atoms
  reading velocities ...
  94 velocities
  scanning bonds ...
  3 = max bonds/atom
  scanning angles ...
  6 = max angles/atom
  scanning dihedrals ...
  24 = max dihedrals/atom
  scanning impropers ...
  2 = max impropers/atom
  reading bonds ...
  103 bonds
  reading angles ...
  176 angles
  reading dihedrals ...
  272 dihedrals
  reading impropers ...
  32 impropers
  4 = max # of 1-2 neighbors
  10 = max # of 1-3 neighbors
  19 = max # of 1-4 neighbors
  22 = max # of special neighbors
  special bonds CPU = 0.000313044 secs
  read_data CPU = 0.00433207 secs
################################################################################

timestep        1
fix             pysimm_md all nve/limit 0.1
run             2000
PPPM initialization ...
  using 12-bit tables for long-range coulomb (../kspace.cpp:332)
  G vector (1/distance) = 0.0206278
  grid = 3 3 3
  stencil order = 5
  estimated absolute RMS force accuracy = 0.0450377
  estimated relative force accuracy = 0.00013563
  using double precision KISS FFT
  3d grid and FFT values/proc = 512 27
Neighbor list info ...
  update every 1 steps, delay 10 steps, check yes
  max neighbors/atom: 2000, page size: 100000
  master list distance cutoff = 14
  ghost atom cutoff = 14
  binsize = 7, bins = 30 30 30
  1 neighbor lists, perpetual/occasional/extra = 1 0 0
  (1) pair lj/cut/coul/long, perpetual
      attributes: half, newton on
      pair build: half/bin/newton
      stencil: half/bin/3d/newton
      bin: standard
Per MPI rank memory allocation (min/avg/max) = 17.89 | 17.89 | 17.89 Mbytes
Step Temp E_pair E_mol TotEng Press 
       0    8.3423704    2245.4581    257.88456    2505.6553    71.414139 
    2000     652.1594   -3.1131948    304.24417    481.91956   -2.9124624 
Loop time of 0.386824 on 1 procs for 2000 steps with 94 atoms

Performance: 446.715 ns/day, 0.054 hours/ns, 5170.308 timesteps/s
100.0% CPU use with 1 MPI tasks x no OpenMP threads

MPI task timing breakdown:
Section |  min time  |  avg time  |  max time  |%varavg| %total
---------------------------------------------------------------
Pair    | 0.14316    | 0.14316    | 0.14316    |   0.0 | 37.01
Bond    | 0.087006   | 0.087006   | 0.087006   |   0.0 | 22.49
Kspace  | 0.1407     | 0.1407     | 0.1407     |   0.0 | 36.37
Neigh   | 0.0077512  | 0.0077512  | 0.0077512  |   0.0 |  2.00
Comm    | 0.0010891  | 0.0010891  | 0.0010891  |   0.0 |  0.28
Output  | 2.6941e-05 | 2.6941e-05 | 2.6941e-05 |   0.0 |  0.01
Modify  | 0.0036185  | 0.0036185  | 0.0036185  |   0.0 |  0.94
Other   |            | 0.003473   |            |       |  0.90

Nlocal:    94 ave 94 max 94 min
Histogram: 1 0 0 0 0 0 0 0 0 0
Nghost:    29 ave 29 max 29 min
Histogram: 1 0 0 0 0 0 0 0 0 0
Neighs:    3245 ave 3245 max 3245 min
Histogram: 1 0 0 0 0 0 0 0 0 0

Total # of neighbors = 3245
Ave neighs/atom = 34.5213
Ave special neighs/atom = 10.9149
Neighbor list builds = 58
Dangerous builds = 0
unfix pysimm_md
min_style cg
minimize 0.001 0.001 10000 100000
WARNING: Using 'neigh_modify every 1 delay 0 check yes' setting during minimization (../min.cpp:190)
PPPM initialization ...
  using 12-bit tables for long-range coulomb (../kspace.cpp:332)
  G vector (1/distance) = 0.0206278
  grid = 3 3 3
  stencil order = 5
  estimated absolute RMS force accuracy = 0.0450377
  estimated relative force accuracy = 0.00013563
  using double precision KISS FFT
  3d grid and FFT values/proc = 512 27
Per MPI rank memory allocation (min/avg/max) = 19.01 | 19.01 | 19.01 Mbytes
Step Temp E_pair E_mol TotEng Press 
    2000     652.1594   -3.1131948    304.24417    481.91956   -2.9124624 
    2012     652.1594   -7.2870454    132.46531    305.96685   0.91371419 
Loop time of 0.0212989 on 1 procs for 12 steps with 94 atoms

103.3% CPU use with 1 MPI tasks x no OpenMP threads

Minimization stats:
  Stopping criterion = linesearch alpha is zero
  Energy initial, next-to-last, final = 
         301.130974585       125.17826778       125.17826778
  Force two-norm initial, final = 562.249 60.4294
  Force max component initial, final = 137.049 13.1136
  Final line search alpha, max atom move = 1.74594e-12 2.28956e-11
  Iterations, force evaluations = 12 84

MPI task timing breakdown:
Section |  min time  |  avg time  |  max time  |%varavg| %total
---------------------------------------------------------------
Pair    | 0.010819   | 0.010819   | 0.010819   |   0.0 | 50.80
Bond    | 0.0040348  | 0.0040348  | 0.0040348  |   0.0 | 18.94
Kspace  | 0.0061285  | 0.0061285  | 0.0061285  |   0.0 | 28.77
Neigh   | 0          | 0          | 0          |   0.0 |  0.00
Comm    | 3.1948e-05 | 3.1948e-05 | 3.1948e-05 |   0.0 |  0.15
Output  | 0          | 0          | 0          |   0.0 |  0.00
Modify  | 0          | 0          | 0          |   0.0 |  0.00
Other   |            | 0.0002842  |            |       |  1.33

Nlocal:    94 ave 94 max 94 min
Histogram: 1 0 0 0 0 0 0 0 0 0
Nghost:    29 ave 29 max 29 min
Histogram: 1 0 0 0 0 0 0 0 0 0
Neighs:    3243 ave 3243 max 3243 min
Histogram: 1 0 0 0 0 0 0 0 0 0

Total # of neighbors = 3243
Ave neighs/atom = 34.5
Ave special neighs/atom = 10.9149
Neighbor list builds = 0
Dangerous builds = 0
write_dump all custom pysimm.dump.tmp id q x y z vx vy vz
quit


################################################################################
##################################    Init    ##################################
################################################################################
units           real
atom_style      full
pair_style      lj/cut/coul/long 12.0  12.0
kspace_style    pppm 1e-4
bond_style      harmonic
angle_style     harmonic
dihedral_style  fourier
improper_style  cvff
special_bonds   amber
pair_modify     mix arithmetic
read_data       temp.lmps
  orthogonal box = (-102.35 -102.35 -102.35) to (102.35 102.35 102.35)
  1 by 1 by 1 MPI processor grid
  reading atoms ...
  141 atoms
  reading velocities ...
  141 velocities
  scanning bonds ...
  3 = max bonds/atom
  scanning angles ...
  6 = max angles/atom
  scanning dihedrals ...
  24 = max dihedrals/atom
  scanning impropers ...
  2 = max impropers/atom
  reading bonds ...
  155 bonds
  reading angles ...
  266 angles
  reading dihedrals ...
  414 dihedrals
  reading impropers ...
  48 impropers
  4 = max # of 1-2 neighbors
  10 = max # of 1-3 neighbors
  19 = max # of 1-4 neighbors
  22 = max # of special neighbors
  special bonds CPU = 0.000360012 secs
  read_data CPU = 0.00472021 secs
################################################################################

timestep        1
fix             pysimm_md all nve/limit 0.1
run             2000
PPPM initialization ...
  using 12-bit tables for long-range coulomb (../kspace.cpp:332)
  G vector (1/distance) = 0.0558605
  grid = 9 9 9
  stencil order = 5
  estimated absolute RMS force accuracy = 0.0374176
  estimated relative force accuracy = 0.000112682
  using double precision KISS FFT
  3d grid and FFT values/proc = 2744 729
Neighbor list info ...
  update every 1 steps, delay 10 steps, check yes
  max neighbors/atom: 2000, page size: 100000
  master list distance cutoff = 14
  ghost atom cutoff = 14
  binsize = 7, bins = 30 30 30
  1 neighbor lists, perpetual/occasional/extra = 1 0 0
  (1) pair lj/cut/coul/long, perpetual
      attributes: half, newton on
      pair build: half/bin/newton
      stencil: half/bin/3d/newton
      bin: standard
Per MPI rank memory allocation (min/avg/max) = 18.04 | 18.04 | 18.04 Mbytes
Step Temp E_pair E_mol TotEng Press 
       0    435.99117    394.21126    368.19559    944.35181     12.21478 
    2000     641.8885    22.789385     399.9666    690.62466  -0.69994316 
Loop time of 0.924873 on 1 procs for 2000 steps with 141 atoms

Performance: 186.836 ns/day, 0.128 hours/ns, 2162.459 timesteps/s
99.9% CPU use with 1 MPI tasks x no OpenMP threads

MPI task timing breakdown:
Section |  min time  |  avg time  |  max time  |%varavg| %total
---------------------------------------------------------------
Pair    | 0.23851    | 0.23851    | 0.23851    |   0.0 | 25.79
Bond    | 0.13414    | 0.13414    | 0.13414    |   0.0 | 14.50
Kspace  | 0.53089    | 0.53089    | 0.53089    |   0.0 | 57.40
Neigh   | 0.0093369  | 0.0093369  | 0.0093369  |   0.0 |  1.01
Comm    | 0.0016298  | 0.0016298  | 0.0016298  |   0.0 |  0.18
Output  | 2.8133e-05 | 2.8133e-05 | 2.8133e-05 |   0.0 |  0.00
Modify  | 0.0053034  | 0.0053034  | 0.0053034  |   0.0 |  0.57
Other   |            | 0.00503    |            |       |  0.54

Nlocal:    141 ave 141 max 141 min
Histogram: 1 0 0 0 0 0 0 0 0 0
Nghost:    42 ave 42 max 42 min
Histogram: 1 0 0 0 0 0 0 0 0 0
Neighs:    5058 ave 5058 max 5058 min
Histogram: 1 0 0 0 0 0 0 0 0 0

Total # of neighbors = 5058
Ave neighs/atom = 35.8723
Ave special neighs/atom = 11.0355
Neighbor list builds = 46
Dangerous builds = 0
unfix pysimm_md
min_style cg
minimize 0.001 0.001 10000 100000
WARNING: Using 'neigh_modify every 1 delay 0 check yes' setting during minimization (../min.cpp:190)
PPPM initialization ...
  using 12-bit tables for long-range coulomb (../kspace.cpp:332)
  G vector (1/distance) = 0.0558605
  grid = 9 9 9
  stencil order = 5
  estimated absolute RMS force accuracy = 0.0374176
  estimated relative force accuracy = 0.000112682
  using double precision KISS FFT
  3d grid and FFT values/proc = 2744 729
Per MPI rank memory allocation (min/avg/max) = 19.17 | 19.17 | 19.17 Mbytes
Step Temp E_pair E_mol TotEng Press 
    2000     641.8885    22.789385     399.9666    690.62466  -0.69994316 
    2023     641.8885   -3.6579513     177.3924    441.60312    1.4448614 
Loop time of 0.0573852 on 1 procs for 23 steps with 141 atoms

101.1% CPU use with 1 MPI tasks x no OpenMP threads

Minimization stats:
  Stopping criterion = linesearch alpha is zero
  Energy initial, next-to-last, final = 
         422.755984155      173.734447276      173.734447276
  Force two-norm initial, final = 595.651 35.7582
  Force max component initial, final = 129.843 6.72588
  Final line search alpha, max atom move = 6.89067e-12 4.63458e-11
  Iterations, force evaluations = 23 103

MPI task timing breakdown:
Section |  min time  |  avg time  |  max time  |%varavg| %total
---------------------------------------------------------------
Pair    | 0.020602   | 0.020602   | 0.020602   |   0.0 | 35.90
Bond    | 0.0074451  | 0.0074451  | 0.0074451  |   0.0 | 12.97
Kspace  | 0.028787   | 0.028787   | 0.028787   |   0.0 | 50.16
Neigh   | 0          | 0          | 0          |   0.0 |  0.00
Comm    | 8.893e-05  | 8.893e-05  | 8.893e-05  |   0.0 |  0.15
Output  | 0          | 0          | 0          |   0.0 |  0.00
Modify  | 0          | 0          | 0          |   0.0 |  0.00
Other   |            | 0.0004625  |            |       |  0.81

Nlocal:    141 ave 141 max 141 min
Histogram: 1 0 0 0 0 0 0 0 0 0
Nghost:    42 ave 42 max 42 min
Histogram: 1 0 0 0 0 0 0 0 0 0
Neighs:    5052 ave 5052 max 5052 min
Histogram: 1 0 0 0 0 0 0 0 0 0

Total # of neighbors = 5052
Ave neighs/atom = 35.8298
Ave special neighs/atom = 11.0355
Neighbor list builds = 0
Dangerous builds = 0
write_dump all custom pysimm.dump.tmp id q x y z vx vy vz
quit


################################################################################
##################################    Init    ##################################
################################################################################
units           real
atom_style      full
pair_style      lj/cut/coul/long 12.0  12.0
kspace_style    pppm 1e-4
bond_style      harmonic
angle_style     harmonic
dihedral_style  fourier
improper_style  cvff
special_bonds   amber
pair_modify     mix arithmetic
read_data       temp.lmps
  orthogonal box = (-102.35 -102.35 -102.35) to (102.35 102.35 102.35)
  1 by 1 by 1 MPI processor grid
  reading atoms ...
  188 atoms
  reading velocities ...
  188 velocities
  scanning bonds ...
  3 = max bonds/atom
  scanning angles ...
  6 = max angles/atom
  scanning dihedrals ...
  24 = max dihedrals/atom
  scanning impropers ...
  2 = max impropers/atom
  reading bonds ...
  207 bonds
  reading angles ...
  356 angles
  reading dihedrals ...
  556 dihedrals
  reading impropers ...
  64 impropers
  4 = max # of 1-2 neighbors
  10 = max # of 1-3 neighbors
  19 = max # of 1-4 neighbors
  22 = max # of special neighbors
  special bonds CPU = 0.000404119 secs
  read_data CPU = 0.00516701 secs
################################################################################

timestep        1
fix             pysimm_md all nve/limit 0.1
run             2000
PPPM initialization ...
  using 12-bit tables for long-range coulomb (../kspace.cpp:332)
  G vector (1/distance) = 0.0710998
  grid = 12 12 12
  stencil order = 5
  estimated absolute RMS force accuracy = 0.0326996
  estimated relative force accuracy = 9.84738e-05
  using double precision KISS FFT
  3d grid and FFT values/proc = 4913 1728
Neighbor list info ...
  update every 1 steps, delay 10 steps, check yes
  max neighbors/atom: 2000, page size: 100000
  master list distance cutoff = 14
  ghost atom cutoff = 14
  binsize = 7, bins = 30 30 30
  1 neighbor lists, perpetual/occasional/extra = 1 0 0
  (1) pair lj/cut/coul/long, perpetual
      attributes: half, newton on
      pair build: half/bin/newton
      stencil: half/bin/3d/newton
      bin: standard
Per MPI rank memory allocation (min/avg/max) = 18.22 | 18.22 | 18.22 Mbytes
Step Temp E_pair E_mol TotEng Press 
       0     482.6328    57.157672    379.50447     705.6872    1.6657917 
    2000    473.36727    10.197689    419.82142    693.87946   -2.1987213 
Loop time of 1.53926 on 1 procs for 2000 steps with 188 atoms

Performance: 112.262 ns/day, 0.214 hours/ns, 1299.325 timesteps/s
100.0% CPU use with 1 MPI tasks x no OpenMP threads

MPI task timing breakdown:
Section |  min time  |  avg time  |  max time  |%varavg| %total
---------------------------------------------------------------
Pair    | 0.35443    | 0.35443    | 0.35443    |   0.0 | 23.03
Bond    | 0.17596    | 0.17596    | 0.17596    |   0.0 | 11.43
Kspace  | 0.98268    | 0.98268    | 0.98268    |   0.0 | 63.84
Neigh   | 0.010782   | 0.010782   | 0.010782   |   0.0 |  0.70
Comm    | 0.0018425  | 0.0018425  | 0.0018425  |   0.0 |  0.12
Output  | 2.6941e-05 | 2.6941e-05 | 2.6941e-05 |   0.0 |  0.00
Modify  | 0.0069849  | 0.0069849  | 0.0069849  |   0.0 |  0.45
Other   |            | 0.006543   |            |       |  0.43

Nlocal:    188 ave 188 max 188 min
Histogram: 1 0 0 0 0 0 0 0 0 0
Nghost:    36 ave 36 max 36 min
Histogram: 1 0 0 0 0 0 0 0 0 0
Neighs:    7395 ave 7395 max 7395 min
Histogram: 1 0 0 0 0 0 0 0 0 0

Total # of neighbors = 7395
Ave neighs/atom = 39.3351
Ave special neighs/atom = 11.0957
Neighbor list builds = 39
Dangerous builds = 0
unfix pysimm_md
min_style cg
minimize 0.001 0.001 10000 100000
WARNING: Using 'neigh_modify every 1 delay 0 check yes' setting during minimization (../min.cpp:190)
PPPM initialization ...
  using 12-bit tables for long-range coulomb (../kspace.cpp:332)
  G vector (1/distance) = 0.0710998
  grid = 12 12 12
  stencil order = 5
  estimated absolute RMS force accuracy = 0.0326996
  estimated relative force accuracy = 9.84738e-05
  using double precision KISS FFT
  3d grid and FFT values/proc = 4913 1728
Per MPI rank memory allocation (min/avg/max) = 19.34 | 19.34 | 19.34 Mbytes
Step Temp E_pair E_mol TotEng Press 
    2000    473.36727    10.197689    419.82142    693.87946   -2.1987213 
    2017    473.36727    12.530286    230.39441    506.78505    1.4876692 
Loop time of 0.0825269 on 1 procs for 17 steps with 188 atoms

100.6% CPU use with 1 MPI tasks x no OpenMP threads

Minimization stats:
  Stopping criterion = linesearch alpha is zero
  Energy initial, next-to-last, final = 
         430.019103956      242.924698235      242.924698235
  Force two-norm initial, final = 546.351 37.5909
  Force max component initial, final = 101.003 5.76411
  Final line search alpha, max atom move = 8.19495e-12 4.72366e-11
  Iterations, force evaluations = 17 92

MPI task timing breakdown:
Section |  min time  |  avg time  |  max time  |%varavg| %total
---------------------------------------------------------------
Pair    | 0.027221   | 0.027221   | 0.027221   |   0.0 | 32.98
Bond    | 0.008965   | 0.008965   | 0.008965   |   0.0 | 10.86
Kspace  | 0.045747   | 0.045747   | 0.045747   |   0.0 | 55.43
Neigh   | 0          | 0          | 0          |   0.0 |  0.00
Comm    | 7.7963e-05 | 7.7963e-05 | 7.7963e-05 |   0.0 |  0.09
Output  | 0          | 0          | 0          |   0.0 |  0.00
Modify  | 0          | 0          | 0          |   0.0 |  0.00
Other   |            | 0.0005164  |            |       |  0.63

Nlocal:    188 ave 188 max 188 min
Histogram: 1 0 0 0 0 0 0 0 0 0
Nghost:    36 ave 36 max 36 min
Histogram: 1 0 0 0 0 0 0 0 0 0
Neighs:    7408 ave 7408 max 7408 min
Histogram: 1 0 0 0 0 0 0 0 0 0

Total # of neighbors = 7408
Ave neighs/atom = 39.4043
Ave special neighs/atom = 11.0957
Neighbor list builds = 0
Dangerous builds = 0
write_dump all custom pysimm.dump.tmp id q x y z vx vy vz
quit


################################################################################
##################################    Init    ##################################
################################################################################
units           real
atom_style      full
pair_style      lj/cut/coul/long 12.0  12.0
kspace_style    pppm 1e-4
bond_style      harmonic
angle_style     harmonic
dihedral_style  fourier
improper_style  cvff
special_bonds   amber
pair_modify     mix arithmetic
read_data       temp.lmps
  orthogonal box = (-102.35 -102.35 -102.35) to (102.35 102.35 102.35)
  1 by 1 by 1 MPI processor grid
  reading atoms ...
  235 atoms
  reading velocities ...
  235 velocities
  scanning bonds ...
  3 = max bonds/atom
  scanning angles ...
  6 = max angles/atom
  scanning dihedrals ...
  24 = max dihedrals/atom
  scanning impropers ...
  2 = max impropers/atom
  reading bonds ...
  259 bonds
  reading angles ...
  446 angles
  reading dihedrals ...
  698 dihedrals
  reading impropers ...
  80 impropers
  4 = max # of 1-2 neighbors
  10 = max # of 1-3 neighbors
  19 = max # of 1-4 neighbors
  22 = max # of special neighbors
  special bonds CPU = 0.00041008 secs
  read_data CPU = 0.00553608 secs
################################################################################

timestep        1
fix             pysimm_md all nve/limit 0.1
run             2000
PPPM initialization ...
  using 12-bit tables for long-range coulomb (../kspace.cpp:332)
  G vector (1/distance) = 0.0710999
  grid = 12 12 12
  stencil order = 5
  estimated absolute RMS force accuracy = 0.0365595
  estimated relative force accuracy = 0.000110098
  using double precision KISS FFT
  3d grid and FFT values/proc = 4913 1728
Neighbor list info ...
  update every 1 steps, delay 10 steps, check yes
  max neighbors/atom: 2000, page size: 100000
  master list distance cutoff = 14
  ghost atom cutoff = 14
  binsize = 7, bins = 30 30 30
  1 neighbor lists, perpetual/occasional/extra = 1 0 0
  (1) pair lj/cut/coul/long, perpetual
      attributes: half, newton on
      pair build: half/bin/newton
      stencil: half/bin/3d/newton
      bin: standard
Per MPI rank memory allocation (min/avg/max) = 18.22 | 18.22 | 18.22 Mbytes
Step Temp E_pair E_mol TotEng Press 
       0    379.94697    24.425014    401.54234      690.984   0.31448446 
    2000    310.09131    16.053886    461.70949    694.05503   -2.5000249 
Loop time of 1.69979 on 1 procs for 2000 steps with 235 atoms

Performance: 101.660 ns/day, 0.236 hours/ns, 1176.616 timesteps/s
100.0% CPU use with 1 MPI tasks x no OpenMP threads

MPI task timing breakdown:
Section |  min time  |  avg time  |  max time  |%varavg| %total
---------------------------------------------------------------
Pair    | 0.47462    | 0.47462    | 0.47462    |   0.0 | 27.92
Bond    | 0.22086    | 0.22086    | 0.22086    |   0.0 | 12.99
Kspace  | 0.97651    | 0.97651    | 0.97651    |   0.0 | 57.45
Neigh   | 0.011564   | 0.011564   | 0.011564   |   0.0 |  0.68
Comm    | 0.0015683  | 0.0015683  | 0.0015683  |   0.0 |  0.09
Output  | 2.9087e-05 | 2.9087e-05 | 2.9087e-05 |   0.0 |  0.00
Modify  | 0.0083313  | 0.0083313  | 0.0083313  |   0.0 |  0.49
Other   |            | 0.006306   |            |       |  0.37

Nlocal:    235 ave 235 max 235 min
Histogram: 1 0 0 0 0 0 0 0 0 0
Nghost:    13 ave 13 max 13 min
Histogram: 1 0 0 0 0 0 0 0 0 0
Neighs:    11022 ave 11022 max 11022 min
Histogram: 1 0 0 0 0 0 0 0 0 0

Total # of neighbors = 11022
Ave neighs/atom = 46.9021
Ave special neighs/atom = 11.1319
Neighbor list builds = 31
Dangerous builds = 0
unfix pysimm_md
min_style cg
minimize 0.001 0.001 10000 100000
WARNING: Using 'neigh_modify every 1 delay 0 check yes' setting during minimization (../min.cpp:190)
PPPM initialization ...
  using 12-bit tables for long-range coulomb (../kspace.cpp:332)
  G vector (1/distance) = 0.0710999
  grid = 12 12 12
  stencil order = 5
  estimated absolute RMS force accuracy = 0.0365595
  estimated relative force accuracy = 0.000110098
  using double precision KISS FFT
  3d grid and FFT values/proc = 4913 1728
Per MPI rank memory allocation (min/avg/max) = 19.35 | 19.35 | 19.35 Mbytes
Step Temp E_pair E_mol TotEng Press 
    2000    310.09131    16.053886    461.70949    694.05503   -2.5000249 
    2016    310.09131     18.76043    309.03833    544.09041   0.97851863 
Loop time of 0.0994439 on 1 procs for 16 steps with 235 atoms

100.5% CPU use with 1 MPI tasks x no OpenMP threads

Minimization stats:
  Stopping criterion = linesearch alpha is zero
  Energy initial, next-to-last, final = 
         477.763378837      327.798760699      327.798760699
  Force two-norm initial, final = 501.41 50.7132
  Force max component initial, final = 100.902 9.05671
  Final line search alpha, max atom move = 4.02088e-12 3.6416e-11
  Iterations, force evaluations = 16 91

MPI task timing breakdown:
Section |  min time  |  avg time  |  max time  |%varavg| %total
---------------------------------------------------------------
Pair    | 0.037948   | 0.037948   | 0.037948   |   0.0 | 38.16
Bond    | 0.011037   | 0.011037   | 0.011037   |   0.0 | 11.10
Kspace  | 0.049876   | 0.049876   | 0.049876   |   0.0 | 50.16
Neigh   | 0          | 0          | 0          |   0.0 |  0.00
Comm    | 7.6532e-05 | 7.6532e-05 | 7.6532e-05 |   0.0 |  0.08
Output  | 0          | 0          | 0          |   0.0 |  0.00
Modify  | 0          | 0          | 0          |   0.0 |  0.00
Other   |            | 0.0005062  |            |       |  0.51

Nlocal:    235 ave 235 max 235 min
Histogram: 1 0 0 0 0 0 0 0 0 0
Nghost:    13 ave 13 max 13 min
Histogram: 1 0 0 0 0 0 0 0 0 0
Neighs:    11082 ave 11082 max 11082 min
Histogram: 1 0 0 0 0 0 0 0 0 0

Total # of neighbors = 11082
Ave neighs/atom = 47.1574
Ave special neighs/atom = 11.1319
Neighbor list builds = 0
Dangerous builds = 0
write_dump all custom pysimm.dump.tmp id q x y z vx vy vz
quit


################################################################################
##################################    Init    ##################################
################################################################################
units           real
atom_style      full
pair_style      lj/cut/coul/long 12.0  12.0
kspace_style    pppm 1e-4
bond_style      harmonic
angle_style     harmonic
dihedral_style  fourier
improper_style  cvff
special_bonds   amber
pair_modify     mix arithmetic
read_data       temp.lmps
  orthogonal box = (-102.35 -102.35 -102.35) to (102.35 102.35 102.35)
  1 by 1 by 1 MPI processor grid
  reading atoms ...
  282 atoms
  reading velocities ...
  282 velocities
  scanning bonds ...
  3 = max bonds/atom
  scanning angles ...
  6 = max angles/atom
  scanning dihedrals ...
  24 = max dihedrals/atom
  scanning impropers ...
  2 = max impropers/atom
  reading bonds ...
  311 bonds
  reading angles ...
  536 angles
  reading dihedrals ...
  840 dihedrals
  reading impropers ...
  96 impropers
  4 = max # of 1-2 neighbors
  10 = max # of 1-3 neighbors
  19 = max # of 1-4 neighbors
  22 = max # of special neighbors
  special bonds CPU = 0.000438213 secs
  read_data CPU = 0.005826 secs
################################################################################

timestep        1
fix             pysimm_md all nve/limit 0.1
run             2000
PPPM initialization ...
WARNING: System is not charge neutral, net charge = 1.2e-05 (../kspace.cpp:313)
  using 12-bit tables for long-range coulomb (../kspace.cpp:332)
  G vector (1/distance) = 0.0848438
  grid = 15 15 15
  stencil order = 5
  estimated absolute RMS force accuracy = 0.0294155
  estimated relative force accuracy = 8.8584e-05
  using double precision KISS FFT
  3d grid and FFT values/proc = 8000 3375
Neighbor list info ...
  update every 1 steps, delay 10 steps, check yes
  max neighbors/atom: 2000, page size: 100000
  master list distance cutoff = 14
  ghost atom cutoff = 14
  binsize = 7, bins = 30 30 30
  1 neighbor lists, perpetual/occasional/extra = 1 0 0
  (1) pair lj/cut/coul/long, perpetual
      attributes: half, newton on
      pair build: half/bin/newton
      stencil: half/bin/3d/newton
      bin: standard
Per MPI rank memory allocation (min/avg/max) = 18.49 | 18.49 | 18.49 Mbytes
Step Temp E_pair E_mol TotEng Press 
       0    259.60595      3706898    577.10752    3707692.5    118559.45 
    2000    478.39768    27.737777    663.11502    1091.5623   -2.6222708 
Loop time of 2.83305 on 1 procs for 2000 steps with 282 atoms

Performance: 60.994 ns/day, 0.393 hours/ns, 705.954 timesteps/s
100.1% CPU use with 1 MPI tasks x no OpenMP threads

MPI task timing breakdown:
Section |  min time  |  avg time  |  max time  |%varavg| %total
---------------------------------------------------------------
Pair    | 0.68335    | 0.68335    | 0.68335    |   0.0 | 24.12
Bond    | 0.26491    | 0.26491    | 0.26491    |   0.0 |  9.35
Kspace  | 1.833      | 1.833      | 1.833      |   0.0 | 64.70
Neigh   | 0.034375   | 0.034375   | 0.034375   |   0.0 |  1.21
Comm    | 0.0014729  | 0.0014729  | 0.0014729  |   0.0 |  0.05
Output  | 2.8133e-05 | 2.8133e-05 | 2.8133e-05 |   0.0 |  0.00
Modify  | 0.0098305  | 0.0098305  | 0.0098305  |   0.0 |  0.35
Other   |            | 0.006089   |            |       |  0.21

Nlocal:    282 ave 282 max 282 min
Histogram: 1 0 0 0 0 0 0 0 0 0
Nghost:    0 ave 0 max 0 min
Histogram: 1 0 0 0 0 0 0 0 0 0
Neighs:    14800 ave 14800 max 14800 min
Histogram: 1 0 0 0 0 0 0 0 0 0

Total # of neighbors = 14800
Ave neighs/atom = 52.4823
Ave special neighs/atom = 11.156
Neighbor list builds = 70
Dangerous builds = 0
unfix pysimm_md
min_style cg
minimize 0.001 0.001 10000 100000
WARNING: Using 'neigh_modify every 1 delay 0 check yes' setting during minimization (../min.cpp:190)
PPPM initialization ...
  using 12-bit tables for long-range coulomb (../kspace.cpp:332)
  G vector (1/distance) = 0.0848438
  grid = 15 15 15
  stencil order = 5
  estimated absolute RMS force accuracy = 0.0294155
  estimated relative force accuracy = 8.8584e-05
  using double precision KISS FFT
  3d grid and FFT values/proc = 8000 3375
Per MPI rank memory allocation (min/avg/max) = 19.62 | 19.62 | 19.62 Mbytes
Step Temp E_pair E_mol TotEng Press 
    2000    478.39768    27.737777    663.11502    1091.5623   -2.6222708 
    2032    478.39768    17.923245    350.53586    769.16865    1.8303364 
Loop time of 0.189644 on 1 procs for 32 steps with 282 atoms

99.6% CPU use with 1 MPI tasks x no OpenMP threads

Minimization stats:
  Stopping criterion = linesearch alpha is zero
  Energy initial, next-to-last, final = 
         690.852794564      368.459103409      368.459103409
  Force two-norm initial, final = 662.908 40.4047
  Force max component initial, final = 109.902 7.43819
  Final line search alpha, max atom move = 7.25326e-12 5.39511e-11
  Iterations, force evaluations = 32 121

MPI task timing breakdown:
Section |  min time  |  avg time  |  max time  |%varavg| %total
---------------------------------------------------------------
Pair    | 0.065518   | 0.065518   | 0.065518   |   0.0 | 34.55
Bond    | 0.017463   | 0.017463   | 0.017463   |   0.0 |  9.21
Kspace  | 0.10523    | 0.10523    | 0.10523    |   0.0 | 55.49
Neigh   | 0.00052404 | 0.00052404 | 0.00052404 |   0.0 |  0.28
Comm    | 5.6982e-05 | 5.6982e-05 | 5.6982e-05 |   0.0 |  0.03
Output  | 0          | 0          | 0          |   0.0 |  0.00
Modify  | 0          | 0          | 0          |   0.0 |  0.00
Other   |            | 0.0008528  |            |       |  0.45

Nlocal:    282 ave 282 max 282 min
Histogram: 1 0 0 0 0 0 0 0 0 0
Nghost:    0 ave 0 max 0 min
Histogram: 1 0 0 0 0 0 0 0 0 0
Neighs:    14748 ave 14748 max 14748 min
Histogram: 1 0 0 0 0 0 0 0 0 0

Total # of neighbors = 14748
Ave neighs/atom = 52.2979
Ave special neighs/atom = 11.156
Neighbor list builds = 1
Dangerous builds = 0
write_dump all custom pysimm.dump.tmp id q x y z vx vy vz
quit


################################################################################
##################################    Init    ##################################
################################################################################
units           real
atom_style      full
pair_style      lj/cut/coul/long 12.0  12.0
kspace_style    pppm 1e-4
bond_style      harmonic
angle_style     harmonic
dihedral_style  fourier
improper_style  cvff
special_bonds   amber
pair_modify     mix arithmetic
read_data       temp.lmps
  orthogonal box = (-102.35 -102.35 -102.35) to (102.35 102.35 102.35)
  1 by 1 by 1 MPI processor grid
  reading atoms ...
  329 atoms
  reading velocities ...
  329 velocities
  scanning bonds ...
  3 = max bonds/atom
  scanning angles ...
  6 = max angles/atom
  scanning dihedrals ...
  24 = max dihedrals/atom
  scanning impropers ...
  2 = max impropers/atom
  reading bonds ...
  363 bonds
  reading angles ...
  626 angles
  reading dihedrals ...
  982 dihedrals
  reading impropers ...
  112 impropers
  4 = max # of 1-2 neighbors
  10 = max # of 1-3 neighbors
  19 = max # of 1-4 neighbors
  22 = max # of special neighbors
  special bonds CPU = 0.00047183 secs
  read_data CPU = 0.00619602 secs
################################################################################

timestep        1
fix             pysimm_md all nve/limit 0.1
run             2000
PPPM initialization ...
WARNING: System is not charge neutral, net charge = 1.4e-05 (../kspace.cpp:313)
  using 12-bit tables for long-range coulomb (../kspace.cpp:332)
  G vector (1/distance) = 0.0848428
  grid = 15 15 15
  stencil order = 5
  estimated absolute RMS force accuracy = 0.0317712
  estimated relative force accuracy = 9.5678e-05
  using double precision KISS FFT
  3d grid and FFT values/proc = 8000 3375
Neighbor list info ...
  update every 1 steps, delay 10 steps, check yes
  max neighbors/atom: 2000, page size: 100000
  master list distance cutoff = 14
  ghost atom cutoff = 14
  binsize = 7, bins = 30 30 30
  1 neighbor lists, perpetual/occasional/extra = 1 0 0
  (1) pair lj/cut/coul/long, perpetual
      attributes: half, newton on
      pair build: half/bin/newton
      stencil: half/bin/3d/newton
      bin: standard
Per MPI rank memory allocation (min/avg/max) = 18.5 | 18.5 | 18.5 Mbytes
Step Temp E_pair E_mol TotEng Press 
       0    411.02945    24260.121    571.92318     25233.91    777.00642 
    2000     492.9163    68.080366    739.99529    1290.0027   0.73459249 
Loop time of 3.01298 on 1 procs for 2000 steps with 329 atoms

Performance: 57.352 ns/day, 0.418 hours/ns, 663.795 timesteps/s
100.0% CPU use with 1 MPI tasks x no OpenMP threads

MPI task timing breakdown:
Section |  min time  |  avg time  |  max time  |%varavg| %total
---------------------------------------------------------------
Pair    | 0.7588     | 0.7588     | 0.7588     |   0.0 | 25.18
Bond    | 0.3087     | 0.3087     | 0.3087     |   0.0 | 10.25
Kspace  | 1.8869     | 1.8869     | 1.8869     |   0.0 | 62.63
Neigh   | 0.039417   | 0.039417   | 0.039417   |   0.0 |  1.31
Comm    | 0.0015285  | 0.0015285  | 0.0015285  |   0.0 |  0.05
Output  | 3.0041e-05 | 3.0041e-05 | 3.0041e-05 |   0.0 |  0.00
Modify  | 0.011189   | 0.011189   | 0.011189   |   0.0 |  0.37
Other   |            | 0.006421   |            |       |  0.21

Nlocal:    329 ave 329 max 329 min
Histogram: 1 0 0 0 0 0 0 0 0 0
Nghost:    0 ave 0 max 0 min
Histogram: 1 0 0 0 0 0 0 0 0 0
Neighs:    16095 ave 16095 max 16095 min
Histogram: 1 0 0 0 0 0 0 0 0 0

Total # of neighbors = 16095
Ave neighs/atom = 48.921
Ave special neighs/atom = 11.1733
Neighbor list builds = 68
Dangerous builds = 0
unfix pysimm_md
min_style cg
minimize 0.001 0.001 10000 100000
WARNING: Using 'neigh_modify every 1 delay 0 check yes' setting during minimization (../min.cpp:190)
PPPM initialization ...
  using 12-bit tables for long-range coulomb (../kspace.cpp:332)
  G vector (1/distance) = 0.0848428
  grid = 15 15 15
  stencil order = 5
  estimated absolute RMS force accuracy = 0.0317712
  estimated relative force accuracy = 9.5678e-05
  using double precision KISS FFT
  3d grid and FFT values/proc = 8000 3375
Per MPI rank memory allocation (min/avg/max) = 19.62 | 19.62 | 19.62 Mbytes
Step Temp E_pair E_mol TotEng Press 
    2000     492.9163    68.080366    739.99529    1290.0027   0.73459249 
    2028     492.9163     39.97002    400.79187    922.68896    3.1718271 
Loop time of 0.191648 on 1 procs for 28 steps with 329 atoms

100.2% CPU use with 1 MPI tasks x no OpenMP threads

Minimization stats:
  Stopping criterion = linesearch alpha is zero
  Energy initial, next-to-last, final = 
         808.075653754      440.761890759      440.761890759
  Force two-norm initial, final = 756.536 35.4618
  Force max component initial, final = 129.495 5.14716
  Final line search alpha, max atom move = 9.28294e-12 4.77808e-11
  Iterations, force evaluations = 28 113

MPI task timing breakdown:
Section |  min time  |  avg time  |  max time  |%varavg| %total
---------------------------------------------------------------
Pair    | 0.065286   | 0.065286   | 0.065286   |   0.0 | 34.07
Bond    | 0.019104   | 0.019104   | 0.019104   |   0.0 |  9.97
Kspace  | 0.10633    | 0.10633    | 0.10633    |   0.0 | 55.48
Neigh   | 0          | 0          | 0          |   0.0 |  0.00
Comm    | 5.9843e-05 | 5.9843e-05 | 5.9843e-05 |   0.0 |  0.03
Output  | 0          | 0          | 0          |   0.0 |  0.00
Modify  | 0          | 0          | 0          |   0.0 |  0.00
Other   |            | 0.0008702  |            |       |  0.45

Nlocal:    329 ave 329 max 329 min
Histogram: 1 0 0 0 0 0 0 0 0 0
Nghost:    0 ave 0 max 0 min
Histogram: 1 0 0 0 0 0 0 0 0 0
Neighs:    16086 ave 16086 max 16086 min
Histogram: 1 0 0 0 0 0 0 0 0 0

Total # of neighbors = 16086
Ave neighs/atom = 48.8936
Ave special neighs/atom = 11.1733
Neighbor list builds = 0
Dangerous builds = 0
write_dump all custom pysimm.dump.tmp id q x y z vx vy vz
quit


################################################################################
##################################    Init    ##################################
################################################################################
units           real
atom_style      full
pair_style      lj/cut/coul/long 12.0  12.0
kspace_style    pppm 1e-4
bond_style      harmonic
angle_style     harmonic
dihedral_style  fourier
improper_style  cvff
special_bonds   amber
pair_modify     mix arithmetic
read_data       temp.lmps
  orthogonal box = (-102.35 -102.35 -102.35) to (102.35 102.35 102.35)
  1 by 1 by 1 MPI processor grid
  reading atoms ...
  376 atoms
  reading velocities ...
  376 velocities
  scanning bonds ...
  3 = max bonds/atom
  scanning angles ...
  6 = max angles/atom
  scanning dihedrals ...
  24 = max dihedrals/atom
  scanning impropers ...
  2 = max impropers/atom
  reading bonds ...
  415 bonds
  reading angles ...
  716 angles
  reading dihedrals ...
  1124 dihedrals
  reading impropers ...
  128 impropers
  4 = max # of 1-2 neighbors
  10 = max # of 1-3 neighbors
  19 = max # of 1-4 neighbors
  22 = max # of special neighbors
  special bonds CPU = 0.000503778 secs
  read_data CPU = 0.00672412 secs
################################################################################

timestep        1
fix             pysimm_md all nve/limit 0.1
run             2000
PPPM initialization ...
WARNING: System is not charge neutral, net charge = 1.6e-05 (../kspace.cpp:313)
  using 12-bit tables for long-range coulomb (../kspace.cpp:332)
  G vector (1/distance) = 0.0848445
  grid = 15 15 15
  stencil order = 5
  estimated absolute RMS force accuracy = 0.0339671
  estimated relative force accuracy = 0.000102291
  using double precision KISS FFT
  3d grid and FFT values/proc = 8000 3375
Neighbor list info ...
  update every 1 steps, delay 10 steps, check yes
  max neighbors/atom: 2000, page size: 100000
  master list distance cutoff = 14
  ghost atom cutoff = 14
  binsize = 7, bins = 30 30 30
  1 neighbor lists, perpetual/occasional/extra = 1 0 0
  (1) pair lj/cut/coul/long, perpetual
      attributes: half, newton on
      pair build: half/bin/newton
      stencil: half/bin/3d/newton
      bin: standard
Per MPI rank memory allocation (min/avg/max) = 18.5 | 18.5 | 18.5 Mbytes
Step Temp E_pair E_mol TotEng Press 
       0     432.1719    6061980.5    651.11608    6063114.7    193865.36 
    2000    427.65553    78.321028    863.69676    1420.0528    2.4088597 
Loop time of 3.2035 on 1 procs for 2000 steps with 376 atoms

Performance: 53.941 ns/day, 0.445 hours/ns, 624.317 timesteps/s
100.0% CPU use with 1 MPI tasks x no OpenMP threads

MPI task timing breakdown:
Section |  min time  |  avg time  |  max time  |%varavg| %total
---------------------------------------------------------------
Pair    | 0.8619     | 0.8619     | 0.8619     |   0.0 | 26.90
Bond    | 0.34964    | 0.34964    | 0.34964    |   0.0 | 10.91
Kspace  | 1.9217     | 1.9217     | 1.9217     |   0.0 | 59.99
Neigh   | 0.049239   | 0.049239   | 0.049239   |   0.0 |  1.54
Comm    | 0.0015197  | 0.0015197  | 0.0015197  |   0.0 |  0.05
Output  | 3.0994e-05 | 3.0994e-05 | 3.0994e-05 |   0.0 |  0.00
Modify  | 0.012951   | 0.012951   | 0.012951   |   0.0 |  0.40
Other   |            | 0.006489   |            |       |  0.20

Nlocal:    376 ave 376 max 376 min
Histogram: 1 0 0 0 0 0 0 0 0 0
Nghost:    0 ave 0 max 0 min
Histogram: 1 0 0 0 0 0 0 0 0 0
Neighs:    20099 ave 20099 max 20099 min
Histogram: 1 0 0 0 0 0 0 0 0 0

Total # of neighbors = 20099
Ave neighs/atom = 53.4548
Ave special neighs/atom = 11.1862
Neighbor list builds = 74
Dangerous builds = 0
unfix pysimm_md
min_style cg
minimize 0.001 0.001 10000 100000
WARNING: Using 'neigh_modify every 1 delay 0 check yes' setting during minimization (../min.cpp:190)
PPPM initialization ...
  using 12-bit tables for long-range coulomb (../kspace.cpp:332)
  G vector (1/distance) = 0.0848445
  grid = 15 15 15
  stencil order = 5
  estimated absolute RMS force accuracy = 0.0339671
  estimated relative force accuracy = 0.000102291
  using double precision KISS FFT
  3d grid and FFT values/proc = 8000 3375
Per MPI rank memory allocation (min/avg/max) = 19.63 | 19.63 | 19.63 Mbytes
Step Temp E_pair E_mol TotEng Press 
    2000    427.65553    78.321028    863.69676    1420.0528    2.4088597 
    2017    427.65553    45.545076    483.19147    1006.7715     3.745868 
Loop time of 0.0676968 on 1 procs for 17 steps with 376 atoms

100.4% CPU use with 1 MPI tasks x no OpenMP threads

Minimization stats:
  Stopping criterion = energy tolerance
  Energy initial, next-to-last, final = 
         942.017786696      528.977122987      528.736551224
  Force two-norm initial, final = 840.731 60.0091
  Force max component initial, final = 121.748 9.28185
  Final line search alpha, max atom move = 0.00558127 0.0518045
  Iterations, force evaluations = 17 34

MPI task timing breakdown:
Section |  min time  |  avg time  |  max time  |%varavg| %total
---------------------------------------------------------------
Pair    | 0.025873   | 0.025873   | 0.025873   |   0.0 | 38.22
Bond    | 0.0066874  | 0.0066874  | 0.0066874  |   0.0 |  9.88
Kspace  | 0.034738   | 0.034738   | 0.034738   |   0.0 | 51.31
Neigh   | 0          | 0          | 0          |   0.0 |  0.00
Comm    | 1.812e-05  | 1.812e-05  | 1.812e-05  |   0.0 |  0.03
Output  | 0          | 0          | 0          |   0.0 |  0.00
Modify  | 0          | 0          | 0          |   0.0 |  0.00
Other   |            | 0.0003803  |            |       |  0.56

Nlocal:    376 ave 376 max 376 min
Histogram: 1 0 0 0 0 0 0 0 0 0
Nghost:    0 ave 0 max 0 min
Histogram: 1 0 0 0 0 0 0 0 0 0
Neighs:    20114 ave 20114 max 20114 min
Histogram: 1 0 0 0 0 0 0 0 0 0

Total # of neighbors = 20114
Ave neighs/atom = 53.4947
Ave special neighs/atom = 11.1862
Neighbor list builds = 0
Dangerous builds = 0
write_dump all custom pysimm.dump.tmp id q x y z vx vy vz
quit


################################################################################
##################################    Init    ##################################
################################################################################
units           real
atom_style      full
pair_style      lj/cut/coul/long 12.0  12.0
kspace_style    pppm 1e-4
bond_style      harmonic
angle_style     harmonic
dihedral_style  fourier
improper_style  cvff
special_bonds   amber
pair_modify     mix arithmetic
read_data       temp.lmps
  orthogonal box = (-102.35 -102.35 -102.35) to (102.35 102.35 102.35)
  1 by 1 by 1 MPI processor grid
  reading atoms ...
  423 atoms
  reading velocities ...
  423 velocities
  scanning bonds ...
  3 = max bonds/atom
  scanning angles ...
  6 = max angles/atom
  scanning dihedrals ...
  24 = max dihedrals/atom
  scanning impropers ...
  2 = max impropers/atom
  reading bonds ...
  467 bonds
  reading angles ...
  806 angles
  reading dihedrals ...
  1266 dihedrals
  reading impropers ...
  144 impropers
  4 = max # of 1-2 neighbors
  10 = max # of 1-3 neighbors
  19 = max # of 1-4 neighbors
  22 = max # of special neighbors
  special bonds CPU = 0.000534058 secs
  read_data CPU = 0.00714898 secs
################################################################################

timestep        1
fix             pysimm_md all nve/limit 0.1
run             2000
PPPM initialization ...
WARNING: System is not charge neutral, net charge = 1.8e-05 (../kspace.cpp:313)
  using 12-bit tables for long-range coulomb (../kspace.cpp:332)
  G vector (1/distance) = 0.0848429
  grid = 15 15 15
  stencil order = 5
  estimated absolute RMS force accuracy = 0.0360252
  estimated relative force accuracy = 0.000108489
  using double precision KISS FFT
  3d grid and FFT values/proc = 8000 3375
Neighbor list info ...
  update every 1 steps, delay 10 steps, check yes
  max neighbors/atom: 2000, page size: 100000
  master list distance cutoff = 14
  ghost atom cutoff = 14
  binsize = 7, bins = 30 30 30
  1 neighbor lists, perpetual/occasional/extra = 1 0 0
  (1) pair lj/cut/coul/long, perpetual
      attributes: half, newton on
      pair build: half/bin/newton
      stencil: half/bin/3d/newton
      bin: standard
Per MPI rank memory allocation (min/avg/max) = 18.51 | 18.51 | 18.51 Mbytes
Step Temp E_pair E_mol TotEng Press 
       0    380.94493    51.983132    622.35313    1153.5276    2.6456265 
    2000    255.18895    61.127976    770.64608    1152.7767  -0.71102818 
Loop time of 3.46439 on 1 procs for 2000 steps with 423 atoms

Performance: 49.879 ns/day, 0.481 hours/ns, 577.303 timesteps/s
100.0% CPU use with 1 MPI tasks x no OpenMP threads

MPI task timing breakdown:
Section |  min time  |  avg time  |  max time  |%varavg| %total
---------------------------------------------------------------
Pair    | 1.0422     | 1.0422     | 1.0422     |   0.0 | 30.08
Bond    | 0.39538    | 0.39538    | 0.39538    |   0.0 | 11.41
Kspace  | 1.9742     | 1.9742     | 1.9742     |   0.0 | 56.99
Neigh   | 0.028991   | 0.028991   | 0.028991   |   0.0 |  0.84
Comm    | 0.0012798  | 0.0012798  | 0.0012798  |   0.0 |  0.04
Output  | 2.8133e-05 | 2.8133e-05 | 2.8133e-05 |   0.0 |  0.00
Modify  | 0.014299   | 0.014299   | 0.014299   |   0.0 |  0.41
Other   |            | 0.008007   |            |       |  0.23

Nlocal:    423 ave 423 max 423 min
Histogram: 1 0 0 0 0 0 0 0 0 0
Nghost:    0 ave 0 max 0 min
Histogram: 1 0 0 0 0 0 0 0 0 0
Neighs:    22147 ave 22147 max 22147 min
Histogram: 1 0 0 0 0 0 0 0 0 0

Total # of neighbors = 22147
Ave neighs/atom = 52.357
Ave special neighs/atom = 11.1962
Neighbor list builds = 37
Dangerous builds = 0
unfix pysimm_md
min_style cg
minimize 0.001 0.001 10000 100000
WARNING: Using 'neigh_modify every 1 delay 0 check yes' setting during minimization (../min.cpp:190)
PPPM initialization ...
  using 12-bit tables for long-range coulomb (../kspace.cpp:332)
  G vector (1/distance) = 0.0848429
  grid = 15 15 15
  stencil order = 5
  estimated absolute RMS force accuracy = 0.0360252
  estimated relative force accuracy = 0.000108489
  using double precision KISS FFT
  3d grid and FFT values/proc = 8000 3375
Per MPI rank memory allocation (min/avg/max) = 19.63 | 19.63 | 19.63 Mbytes
Step Temp E_pair E_mol TotEng Press 
    2000    255.18895    61.127976    770.64608    1152.7767  -0.71102818 
    2026    255.18895    39.597134    516.62113    877.22092    2.0018532 
Loop time of 0.229716 on 1 procs for 26 steps with 423 atoms

99.7% CPU use with 1 MPI tasks x no OpenMP threads

Minimization stats:
  Stopping criterion = linesearch alpha is zero
  Energy initial, next-to-last, final = 
          831.77406041      556.218263569      556.218263569
  Force two-norm initial, final = 659.182 37.8878
  Force max component initial, final = 121.923 6.22683
  Final line search alpha, max atom move = 6.05957e-12 3.77319e-11
  Iterations, force evaluations = 26 111

MPI task timing breakdown:
Section |  min time  |  avg time  |  max time  |%varavg| %total
---------------------------------------------------------------
Pair    | 0.092132   | 0.092132   | 0.092132   |   0.0 | 40.11
Bond    | 0.02421    | 0.02421    | 0.02421    |   0.0 | 10.54
Kspace  | 0.1123     | 0.1123     | 0.1123     |   0.0 | 48.88
Neigh   | 0          | 0          | 0          |   0.0 |  0.00
Comm    | 5.5313e-05 | 5.5313e-05 | 5.5313e-05 |   0.0 |  0.02
Output  | 0          | 0          | 0          |   0.0 |  0.00
Modify  | 0          | 0          | 0          |   0.0 |  0.00
Other   |            | 0.001023   |            |       |  0.45

Nlocal:    423 ave 423 max 423 min
Histogram: 1 0 0 0 0 0 0 0 0 0
Nghost:    0 ave 0 max 0 min
Histogram: 1 0 0 0 0 0 0 0 0 0
Neighs:    22103 ave 22103 max 22103 min
Histogram: 1 0 0 0 0 0 0 0 0 0

Total # of neighbors = 22103
Ave neighs/atom = 52.253
Ave special neighs/atom = 11.1962
Neighbor list builds = 0
Dangerous builds = 0
write_dump all custom pysimm.dump.tmp id q x y z vx vy vz
quit


################################################################################
##################################    Init    ##################################
################################################################################
units           real
atom_style      full
pair_style      lj/cut/coul/long 12.0  12.0
kspace_style    pppm 1e-4
bond_style      harmonic
angle_style     harmonic
dihedral_style  fourier
improper_style  cvff
special_bonds   amber
pair_modify     mix arithmetic
read_data       temp.lmps
  orthogonal box = (-102.35 -102.35 -102.35) to (102.35 102.35 102.35)
  1 by 1 by 1 MPI processor grid
  reading atoms ...
  470 atoms
  reading velocities ...
  470 velocities
  scanning bonds ...
  3 = max bonds/atom
  scanning angles ...
  6 = max angles/atom
  scanning dihedrals ...
  24 = max dihedrals/atom
  scanning impropers ...
  2 = max impropers/atom
  reading bonds ...
  519 bonds
  reading angles ...
  896 angles
  reading dihedrals ...
  1408 dihedrals
  reading impropers ...
  160 impropers
  4 = max # of 1-2 neighbors
  10 = max # of 1-3 neighbors
  19 = max # of 1-4 neighbors
  22 = max # of special neighbors
  special bonds CPU = 0.000569105 secs
  read_data CPU = 0.00752783 secs
################################################################################

timestep        1
fix             pysimm_md all nve/limit 0.1
run             2000
PPPM initialization ...
WARNING: System is not charge neutral, net charge = 2e-05 (../kspace.cpp:313)
  using 12-bit tables for long-range coulomb (../kspace.cpp:332)
  G vector (1/distance) = 0.0891128
  grid = 16 16 16
  stencil order = 5
  estimated absolute RMS force accuracy = 0.0341221
  estimated relative force accuracy = 0.000102758
  using double precision KISS FFT
  3d grid and FFT values/proc = 9261 4096
Neighbor list info ...
  update every 1 steps, delay 10 steps, check yes
  max neighbors/atom: 2000, page size: 100000
  master list distance cutoff = 14
  ghost atom cutoff = 14
  binsize = 7, bins = 30 30 30
  1 neighbor lists, perpetual/occasional/extra = 1 0 0
  (1) pair lj/cut/coul/long, perpetual
      attributes: half, newton on
      pair build: half/bin/newton
      stencil: half/bin/3d/newton
      bin: standard
Per MPI rank memory allocation (min/avg/max) = 18.62 | 18.62 | 18.62 Mbytes
Step Temp E_pair E_mol TotEng Press 
       0    230.44274    62.344122    676.82197     1061.325    1.3425343 
    2000    193.65753    53.920337    739.06721    1063.7208 -0.092738314 
Loop time of 3.86943 on 1 procs for 2000 steps with 470 atoms

Performance: 44.658 ns/day, 0.537 hours/ns, 516.872 timesteps/s
100.0% CPU use with 1 MPI tasks x no OpenMP threads

MPI task timing breakdown:
Section |  min time  |  avg time  |  max time  |%varavg| %total
---------------------------------------------------------------
Pair    | 1.0855     | 1.0855     | 1.0855     |   0.0 | 28.05
Bond    | 0.43755    | 0.43755    | 0.43755    |   0.0 | 11.31
Kspace  | 2.2964     | 2.2964     | 2.2964     |   0.0 | 59.35
Neigh   | 0.024249   | 0.024249   | 0.024249   |   0.0 |  0.63
Comm    | 0.0012605  | 0.0012605  | 0.0012605  |   0.0 |  0.03
Output  | 3.0994e-05 | 3.0994e-05 | 3.0994e-05 |   0.0 |  0.00
Modify  | 0.015921   | 0.015921   | 0.015921   |   0.0 |  0.41
Other   |            | 0.008538   |            |       |  0.22

Nlocal:    470 ave 470 max 470 min
Histogram: 1 0 0 0 0 0 0 0 0 0
Nghost:    0 ave 0 max 0 min
Histogram: 1 0 0 0 0 0 0 0 0 0
Neighs:    24079 ave 24079 max 24079 min
Histogram: 1 0 0 0 0 0 0 0 0 0

Total # of neighbors = 24079
Ave neighs/atom = 51.2319
Ave special neighs/atom = 11.2043
Neighbor list builds = 28
Dangerous builds = 0
unfix pysimm_md
min_style cg
minimize 0.001 0.001 10000 100000
WARNING: Using 'neigh_modify every 1 delay 0 check yes' setting during minimization (../min.cpp:190)
PPPM initialization ...
  using 12-bit tables for long-range coulomb (../kspace.cpp:332)
  G vector (1/distance) = 0.0891128
  grid = 16 16 16
  stencil order = 5
  estimated absolute RMS force accuracy = 0.0341221
  estimated relative force accuracy = 0.000102758
  using double precision KISS FFT
  3d grid and FFT values/proc = 9261 4096
Per MPI rank memory allocation (min/avg/max) = 19.75 | 19.75 | 19.75 Mbytes
Step Temp E_pair E_mol TotEng Press 
    2000    193.65753    53.920337    739.06721    1063.7208 -0.092738314 
    2014    193.65753    49.769459    568.13695    888.63962    1.6137244 
Loop time of 0.201084 on 1 procs for 14 steps with 470 atoms

99.9% CPU use with 1 MPI tasks x no OpenMP threads

Minimization stats:
  Stopping criterion = linesearch alpha is zero
  Energy initial, next-to-last, final = 
         792.987551338      617.906413732      617.906413732
  Force two-norm initial, final = 525.928 56.472
  Force max component initial, final = 126.378 9.19668
  Final line search alpha, max atom move = 2.20097e-12 2.02416e-11
  Iterations, force evaluations = 14 89

MPI task timing breakdown:
Section |  min time  |  avg time  |  max time  |%varavg| %total
---------------------------------------------------------------
Pair    | 0.076312   | 0.076312   | 0.076312   |   0.0 | 37.95
Bond    | 0.021381   | 0.021381   | 0.021381   |   0.0 | 10.63
Kspace  | 0.10258    | 0.10258    | 0.10258    |   0.0 | 51.01
Neigh   | 0          | 0          | 0          |   0.0 |  0.00
Comm    | 3.3855e-05 | 3.3855e-05 | 3.3855e-05 |   0.0 |  0.02
Output  | 0          | 0          | 0          |   0.0 |  0.00
Modify  | 0          | 0          | 0          |   0.0 |  0.00
Other   |            | 0.0007813  |            |       |  0.39

Nlocal:    470 ave 470 max 470 min
Histogram: 1 0 0 0 0 0 0 0 0 0
Nghost:    0 ave 0 max 0 min
Histogram: 1 0 0 0 0 0 0 0 0 0
Neighs:    24079 ave 24079 max 24079 min
Histogram: 1 0 0 0 0 0 0 0 0 0

Total # of neighbors = 24079
Ave neighs/atom = 51.2319
Ave special neighs/atom = 11.2043
Neighbor list builds = 0
Dangerous builds = 0
write_dump all custom pysimm.dump.tmp id q x y z vx vy vz
quit


################################################################################
##################################    Init    ##################################
################################################################################
units           real
atom_style      full
pair_style      lj/cut/coul/long 12.0  12.0
kspace_style    pppm 1e-4
bond_style      harmonic
angle_style     harmonic
dihedral_style  fourier
improper_style  cvff
special_bonds   amber
pair_modify     mix arithmetic
read_data       temp.lmps
  orthogonal box = (-128.952 -128.952 -128.952) to (128.952 128.952 128.952)
  1 by 1 by 1 MPI processor grid
  reading atoms ...
  517 atoms
  reading velocities ...
  517 velocities
  scanning bonds ...
  3 = max bonds/atom
  scanning angles ...
  6 = max angles/atom
  scanning dihedrals ...
  24 = max dihedrals/atom
  scanning impropers ...
  2 = max impropers/atom
  reading bonds ...
  571 bonds
  reading angles ...
  986 angles
  reading dihedrals ...
  1550 dihedrals
  reading impropers ...
  176 impropers
  4 = max # of 1-2 neighbors
  10 = max # of 1-3 neighbors
  19 = max # of 1-4 neighbors
  22 = max # of special neighbors
  special bonds CPU = 0.000605822 secs
  read_data CPU = 0.00795913 secs
################################################################################

timestep        1
fix             pysimm_md all nve/limit 0.1
run             2000
PPPM initialization ...
WARNING: System is not charge neutral, net charge = 2.2e-05 (../kspace.cpp:313)
  using 12-bit tables for long-range coulomb (../kspace.cpp:332)
  G vector (1/distance) = 0.0744325
  grid = 16 16 16
  stencil order = 5
  estimated absolute RMS force accuracy = 0.0357571
  estimated relative force accuracy = 0.000107681
  using double precision KISS FFT
  3d grid and FFT values/proc = 9261 4096
Neighbor list info ...
  update every 1 steps, delay 10 steps, check yes
  max neighbors/atom: 2000, page size: 100000
  master list distance cutoff = 14
  ghost atom cutoff = 14
  binsize = 7, bins = 37 37 37
  1 neighbor lists, perpetual/occasional/extra = 1 0 0
  (1) pair lj/cut/coul/long, perpetual
      attributes: half, newton on
      pair build: half/bin/newton
      stencil: half/bin/3d/newton
      bin: standard
Per MPI rank memory allocation (min/avg/max) = 18.75 | 18.75 | 18.75 Mbytes
Step Temp E_pair E_mol TotEng Press 
       0    176.76995    38.524649    321496.79    321807.21   -895.70174 
    2000    2629.6288    148.01079    2789.4422    6982.0797   -6.2336888 
Loop time of 4.34557 on 1 procs for 2000 steps with 517 atoms

Performance: 39.765 ns/day, 0.604 hours/ns, 460.239 timesteps/s
99.9% CPU use with 1 MPI tasks x no OpenMP threads

MPI task timing breakdown:
Section |  min time  |  avg time  |  max time  |%varavg| %total
---------------------------------------------------------------
Pair    | 1.2912     | 1.2912     | 1.2912     |   0.0 | 29.71
Bond    | 0.48551    | 0.48551    | 0.48551    |   0.0 | 11.17
Kspace  | 2.3814     | 2.3814     | 2.3814     |   0.0 | 54.80
Neigh   | 0.16243    | 0.16243    | 0.16243    |   0.0 |  3.74
Comm    | 0.0024078  | 0.0024078  | 0.0024078  |   0.0 |  0.06
Output  | 3.0041e-05 | 3.0041e-05 | 3.0041e-05 |   0.0 |  0.00
Modify  | 0.017954   | 0.017954   | 0.017954   |   0.0 |  0.41
Other   |            | 0.004629   |            |       |  0.11

Nlocal:    517 ave 517 max 517 min
Histogram: 1 0 0 0 0 0 0 0 0 0
Nghost:    0 ave 0 max 0 min
Histogram: 1 0 0 0 0 0 0 0 0 0
Neighs:    28611 ave 28611 max 28611 min
Histogram: 1 0 0 0 0 0 0 0 0 0

Total # of neighbors = 28611
Ave neighs/atom = 55.3404
Ave special neighs/atom = 11.2108
Neighbor list builds = 168
Dangerous builds = 0
unfix pysimm_md
min_style cg
minimize 0.001 0.001 10000 100000
WARNING: Using 'neigh_modify every 1 delay 0 check yes' setting during minimization (../min.cpp:190)
PPPM initialization ...
  using 12-bit tables for long-range coulomb (../kspace.cpp:332)
  G vector (1/distance) = 0.0744325
  grid = 16 16 16
  stencil order = 5
  estimated absolute RMS force accuracy = 0.0357571
  estimated relative force accuracy = 0.000107681
  using double precision KISS FFT
  3d grid and FFT values/proc = 9261 4096
Per MPI rank memory allocation (min/avg/max) = 19.87 | 19.87 | 19.87 Mbytes
Step Temp E_pair E_mol TotEng Press 
    2000    2629.6288    148.01079    2789.4422    6982.0797   -6.2336888 
    2070    2629.6288    80.768707    796.37661     4921.772    10.259813 
Loop time of 0.337666 on 1 procs for 70 steps with 517 atoms

100.4% CPU use with 1 MPI tasks x no OpenMP threads

Minimization stats:
  Stopping criterion = energy tolerance
  Energy initial, next-to-last, final = 
         2937.45299434      877.613194637      877.145314222
  Force two-norm initial, final = 1313.68 79.4812
  Force max component initial, final = 180.64 10.8187
  Final line search alpha, max atom move = 0.00160892 0.0174064
  Iterations, force evaluations = 70 133

MPI task timing breakdown:
Section |  min time  |  avg time  |  max time  |%varavg| %total
---------------------------------------------------------------
Pair    | 0.13953    | 0.13953    | 0.13953    |   0.0 | 41.32
Bond    | 0.035052   | 0.035052   | 0.035052   |   0.0 | 10.38
Kspace  | 0.15706    | 0.15706    | 0.15706    |   0.0 | 46.51
Neigh   | 0.0039752  | 0.0039752  | 0.0039752  |   0.0 |  1.18
Comm    | 0.00010228 | 0.00010228 | 0.00010228 |   0.0 |  0.03
Output  | 0          | 0          | 0          |   0.0 |  0.00
Modify  | 0          | 0          | 0          |   0.0 |  0.00
Other   |            | 0.001951   |            |       |  0.58

Nlocal:    517 ave 517 max 517 min
Histogram: 1 0 0 0 0 0 0 0 0 0
Nghost:    0 ave 0 max 0 min
Histogram: 1 0 0 0 0 0 0 0 0 0
Neighs:    29249 ave 29249 max 29249 min
Histogram: 1 0 0 0 0 0 0 0 0 0

Total # of neighbors = 29249
Ave neighs/atom = 56.5745
Ave special neighs/atom = 11.2108
Neighbor list builds = 4
Dangerous builds = 0
write_dump all custom pysimm.dump.tmp id q x y z vx vy vz
quit


################################################################################
##################################    Init    ##################################
################################################################################
units           real
atom_style      full
pair_style      lj/cut/coul/long 12.0  12.0
kspace_style    pppm 1e-4
bond_style      harmonic
angle_style     harmonic
dihedral_style  fourier
improper_style  cvff
special_bonds   amber
pair_modify     mix arithmetic
read_data       temp.lmps
  orthogonal box = (-133.115 -133.115 -133.115) to (133.115 133.115 133.115)
  1 by 1 by 1 MPI processor grid
  reading atoms ...
  564 atoms
  reading velocities ...
  564 velocities
  scanning bonds ...
  3 = max bonds/atom
  scanning angles ...
  6 = max angles/atom
  scanning dihedrals ...
  24 = max dihedrals/atom
  scanning impropers ...
  2 = max impropers/atom
  reading bonds ...
  623 bonds
  reading angles ...
  1076 angles
  reading dihedrals ...
  1692 dihedrals
  reading impropers ...
  192 impropers
  4 = max # of 1-2 neighbors
  10 = max # of 1-3 neighbors
  19 = max # of 1-4 neighbors
  22 = max # of special neighbors
  special bonds CPU = 0.000677824 secs
  read_data CPU = 0.00846195 secs
################################################################################

timestep        1
fix             pysimm_md all nve/limit 0.1
run             2000
PPPM initialization ...
WARNING: System is not charge neutral, net charge = 2.4e-05 (../kspace.cpp:313)
  using 12-bit tables for long-range coulomb (../kspace.cpp:332)
  G vector (1/distance) = 0.0797006
  grid = 18 18 18
  stencil order = 5
  estimated absolute RMS force accuracy = 0.0316847
  estimated relative force accuracy = 9.54174e-05
  using double precision KISS FFT
  3d grid and FFT values/proc = 12167 5832
Neighbor list info ...
  update every 1 steps, delay 10 steps, check yes
  max neighbors/atom: 2000, page size: 100000
  master list distance cutoff = 14
  ghost atom cutoff = 14
  binsize = 7, bins = 39 39 39
  1 neighbor lists, perpetual/occasional/extra = 1 0 0
  (1) pair lj/cut/coul/long, perpetual
      attributes: half, newton on
      pair build: half/bin/newton
      stencil: half/bin/3d/newton
      bin: standard
Per MPI rank memory allocation (min/avg/max) = 19.06 | 19.06 | 19.06 Mbytes
Step Temp E_pair E_mol TotEng Press 
       0    2410.7929    65.874047    243477.58    247589.24   -611.14956 
    2000    2641.9404    185.24892    2932.4291     7551.372    2.3762295 
Loop time of 5.25876 on 1 procs for 2000 steps with 564 atoms

Performance: 32.859 ns/day, 0.730 hours/ns, 380.318 timesteps/s
100.0% CPU use with 1 MPI tasks x no OpenMP threads

MPI task timing breakdown:
Section |  min time  |  avg time  |  max time  |%varavg| %total
---------------------------------------------------------------
Pair    | 1.3766     | 1.3766     | 1.3766     |   0.0 | 26.18
Bond    | 0.52222    | 0.52222    | 0.52222    |   0.0 |  9.93
Kspace  | 3.1571     | 3.1571     | 3.1571     |   0.0 | 60.04
Neigh   | 0.17618    | 0.17618    | 0.17618    |   0.0 |  3.35
Comm    | 0.0026131  | 0.0026131  | 0.0026131  |   0.0 |  0.05
Output  | 3.0041e-05 | 3.0041e-05 | 3.0041e-05 |   0.0 |  0.00
Modify  | 0.019239   | 0.019239   | 0.019239   |   0.0 |  0.37
Other   |            | 0.004762   |            |       |  0.09

Nlocal:    564 ave 564 max 564 min
Histogram: 1 0 0 0 0 0 0 0 0 0
Nghost:    0 ave 0 max 0 min
Histogram: 1 0 0 0 0 0 0 0 0 0
Neighs:    26751 ave 26751 max 26751 min
Histogram: 1 0 0 0 0 0 0 0 0 0

Total # of neighbors = 26751
Ave neighs/atom = 47.4309
Ave special neighs/atom = 11.2163
Neighbor list builds = 170
Dangerous builds = 0
unfix pysimm_md
min_style cg
minimize 0.001 0.001 10000 100000
WARNING: Using 'neigh_modify every 1 delay 0 check yes' setting during minimization (../min.cpp:190)
PPPM initialization ...
  using 12-bit tables for long-range coulomb (../kspace.cpp:332)
  G vector (1/distance) = 0.0797006
  grid = 18 18 18
  stencil order = 5
  estimated absolute RMS force accuracy = 0.0316847
  estimated relative force accuracy = 9.54174e-05
  using double precision KISS FFT
  3d grid and FFT values/proc = 12167 5832
Per MPI rank memory allocation (min/avg/max) = 20.18 | 20.18 | 20.18 Mbytes
Step Temp E_pair E_mol TotEng Press 
    2000    2641.9404    185.24892    2932.4291     7551.372    2.3762295 
    2072    2641.9404    74.578075    758.08146    5266.3535    10.832415 
Loop time of 0.409128 on 1 procs for 72 steps with 564 atoms

100.0% CPU use with 1 MPI tasks x no OpenMP threads

Minimization stats:
  Stopping criterion = energy tolerance
  Energy initial, next-to-last, final = 
         3117.67806422      833.011896729      832.659534131
  Force two-norm initial, final = 1553.53 58.5247
  Force max component initial, final = 174.534 7.9285
  Final line search alpha, max atom move = 0.0027775 0.0220214
  Iterations, force evaluations = 72 142

MPI task timing breakdown:
Section |  min time  |  avg time  |  max time  |%varavg| %total
---------------------------------------------------------------
Pair    | 0.13685    | 0.13685    | 0.13685    |   0.0 | 33.45
Bond    | 0.04       | 0.04       | 0.04       |   0.0 |  9.78
Kspace  | 0.2271     | 0.2271     | 0.2271     |   0.0 | 55.51
Neigh   | 0.0029101  | 0.0029101  | 0.0029101  |   0.0 |  0.71
Comm    | 0.00010109 | 0.00010109 | 0.00010109 |   0.0 |  0.02
Output  | 0          | 0          | 0          |   0.0 |  0.00
Modify  | 0          | 0          | 0          |   0.0 |  0.00
Other   |            | 0.002171   |            |       |  0.53

Nlocal:    564 ave 564 max 564 min
Histogram: 1 0 0 0 0 0 0 0 0 0
Nghost:    0 ave 0 max 0 min
Histogram: 1 0 0 0 0 0 0 0 0 0
Neighs:    26632 ave 26632 max 26632 min
Histogram: 1 0 0 0 0 0 0 0 0 0

Total # of neighbors = 26632
Ave neighs/atom = 47.2199
Ave special neighs/atom = 11.2163
Neighbor list builds = 3
Dangerous builds = 0
write_dump all custom pysimm.dump.tmp id q x y z vx vy vz
quit


################################################################################
##################################    Init    ##################################
################################################################################
units           real
atom_style      full
pair_style      lj/cut/coul/long 12.0  12.0
kspace_style    pppm 1e-4
bond_style      harmonic
angle_style     harmonic
dihedral_style  fourier
improper_style  cvff
special_bonds   amber
pair_modify     mix arithmetic
read_data       temp.lmps
  orthogonal box = (-137.032 -137.032 -137.032) to (137.032 137.032 137.032)
  1 by 1 by 1 MPI processor grid
  reading atoms ...
  611 atoms
  reading velocities ...
  611 velocities
  scanning bonds ...
  3 = max bonds/atom
  scanning angles ...
  6 = max angles/atom
  scanning dihedrals ...
  24 = max dihedrals/atom
  scanning impropers ...
  2 = max impropers/atom
  reading bonds ...
  675 bonds
  reading angles ...
  1166 angles
  reading dihedrals ...
  1834 dihedrals
  reading impropers ...
  208 impropers
  4 = max # of 1-2 neighbors
  10 = max # of 1-3 neighbors
  19 = max # of 1-4 neighbors
  22 = max # of special neighbors
  special bonds CPU = 0.000643015 secs
  read_data CPU = 0.00858593 secs
################################################################################

timestep        1
fix             pysimm_md all nve/limit 0.1
run             2000
PPPM initialization ...
WARNING: System is not charge neutral, net charge = 2.6e-05 (../kspace.cpp:313)
  using 12-bit tables for long-range coulomb (../kspace.cpp:332)
  G vector (1/distance) = 0.0778967
  grid = 18 18 18
  stencil order = 5
  estimated absolute RMS force accuracy = 0.0328915
  estimated relative force accuracy = 9.90516e-05
  using double precision KISS FFT
  3d grid and FFT values/proc = 12167 5832
Neighbor list info ...
  update every 1 steps, delay 10 steps, check yes
  max neighbors/atom: 2000, page size: 100000
  master list distance cutoff = 14
  ghost atom cutoff = 14
  binsize = 7, bins = 40 40 40
  1 neighbor lists, perpetual/occasional/extra = 1 0 0
  (1) pair lj/cut/coul/long, perpetual
      attributes: half, newton on
      pair build: half/bin/newton
      stencil: half/bin/3d/newton
      bin: standard
Per MPI rank memory allocation (min/avg/max) = 19.08 | 19.08 | 19.08 Mbytes
Step Temp E_pair E_mol TotEng Press 
       0    2439.0166    60.974545    297336.26    301832.09   -681.72433 
    2000    2215.1104    219.92408    2963.6293    7211.2756    2.7137636 
Loop time of 5.51501 on 1 procs for 2000 steps with 611 atoms

Performance: 31.333 ns/day, 0.766 hours/ns, 362.647 timesteps/s
100.0% CPU use with 1 MPI tasks x no OpenMP threads

MPI task timing breakdown:
Section |  min time  |  avg time  |  max time  |%varavg| %total
---------------------------------------------------------------
Pair    | 1.4061     | 1.4061     | 1.4061     |   0.0 | 25.50
Bond    | 0.57365    | 0.57365    | 0.57365    |   0.0 | 10.40
Kspace  | 3.3198     | 3.3198     | 3.3198     |   0.0 | 60.20
Neigh   | 0.18662    | 0.18662    | 0.18662    |   0.0 |  3.38
Comm    | 0.0026886  | 0.0026886  | 0.0026886  |   0.0 |  0.05
Output  | 2.6941e-05 | 2.6941e-05 | 2.6941e-05 |   0.0 |  0.00
Modify  | 0.021037   | 0.021037   | 0.021037   |   0.0 |  0.38
Other   |            | 0.005031   |            |       |  0.09

Nlocal:    611 ave 611 max 611 min
Histogram: 1 0 0 0 0 0 0 0 0 0
Nghost:    0 ave 0 max 0 min
Histogram: 1 0 0 0 0 0 0 0 0 0
Neighs:    32781 ave 32781 max 32781 min
Histogram: 1 0 0 0 0 0 0 0 0 0

Total # of neighbors = 32781
Ave neighs/atom = 53.6514
Ave special neighs/atom = 11.2209
Neighbor list builds = 172
Dangerous builds = 0
unfix pysimm_md
min_style cg
minimize 0.001 0.001 10000 100000
WARNING: Using 'neigh_modify every 1 delay 0 check yes' setting during minimization (../min.cpp:190)
PPPM initialization ...
  using 12-bit tables for long-range coulomb (../kspace.cpp:332)
  G vector (1/distance) = 0.0778967
  grid = 18 18 18
  stencil order = 5
  estimated absolute RMS force accuracy = 0.0328915
  estimated relative force accuracy = 9.90516e-05
  using double precision KISS FFT
  3d grid and FFT values/proc = 12167 5832
Per MPI rank memory allocation (min/avg/max) = 20.21 | 20.21 | 20.21 Mbytes
Step Temp E_pair E_mol TotEng Press 
    2000    2215.1104    219.92408    2963.6293    7211.2756    2.7137636 
    2055    2215.1104    90.255253    859.49638    4977.4739    9.2504411 
Loop time of 0.532415 on 1 procs for 55 steps with 611 atoms

100.1% CPU use with 1 MPI tasks x no OpenMP threads

Minimization stats:
  Stopping criterion = linesearch alpha is zero
  Energy initial, next-to-last, final = 
         3183.55335181      949.751630276      949.751630276
  Force two-norm initial, final = 1559.83 71.6854
  Force max component initial, final = 184.596 10.0768
  Final line search alpha, max atom move = 2.05593e-12 2.07171e-11
  Iterations, force evaluations = 55 166

MPI task timing breakdown:
Section |  min time  |  avg time  |  max time  |%varavg| %total
---------------------------------------------------------------
Pair    | 0.19888    | 0.19888    | 0.19888    |   0.0 | 37.35
Bond    | 0.051882   | 0.051882   | 0.051882   |   0.0 |  9.74
Kspace  | 0.27565    | 0.27565    | 0.27565    |   0.0 | 51.77
Neigh   | 0.0036199  | 0.0036199  | 0.0036199  |   0.0 |  0.68
Comm    | 0.00012398 | 0.00012398 | 0.00012398 |   0.0 |  0.02
Output  | 0          | 0          | 0          |   0.0 |  0.00
Modify  | 0          | 0          | 0          |   0.0 |  0.00
Other   |            | 0.002255   |            |       |  0.42

Nlocal:    611 ave 611 max 611 min
Histogram: 1 0 0 0 0 0 0 0 0 0
Nghost:    0 ave 0 max 0 min
Histogram: 1 0 0 0 0 0 0 0 0 0
Neighs:    32791 ave 32791 max 32791 min
Histogram: 1 0 0 0 0 0 0 0 0 0

Total # of neighbors = 32791
Ave neighs/atom = 53.6678
Ave special neighs/atom = 11.2209
Neighbor list builds = 3
Dangerous builds = 0
write_dump all custom pysimm.dump.tmp id q x y z vx vy vz
quit


################################################################################
##################################    Init    ##################################
################################################################################
units           real
atom_style      full
pair_style      lj/cut/coul/long 12.0  12.0
kspace_style    pppm 1e-4
bond_style      harmonic
angle_style     harmonic
dihedral_style  fourier
improper_style  cvff
special_bonds   amber
pair_modify     mix arithmetic
read_data       temp.lmps
  orthogonal box = (-140.738 -140.738 -140.738) to (140.738 140.738 140.738)
  1 by 1 by 1 MPI processor grid
  reading atoms ...
  658 atoms
  reading velocities ...
  658 velocities
  scanning bonds ...
  3 = max bonds/atom
  scanning angles ...
  6 = max angles/atom
  scanning dihedrals ...
  24 = max dihedrals/atom
  scanning impropers ...
  2 = max impropers/atom
  reading bonds ...
  727 bonds
  reading angles ...
  1256 angles
  reading dihedrals ...
  1976 dihedrals
  reading impropers ...
  224 impropers
  4 = max # of 1-2 neighbors
  10 = max # of 1-3 neighbors
  19 = max # of 1-4 neighbors
  22 = max # of special neighbors
  special bonds CPU = 0.000686169 secs
  read_data CPU = 0.00920296 secs
################################################################################

timestep        1
fix             pysimm_md all nve/limit 0.1
run             2000
PPPM initialization ...
WARNING: System is not charge neutral, net charge = 2.8e-05 (../kspace.cpp:313)
  using 12-bit tables for long-range coulomb (../kspace.cpp:332)
  G vector (1/distance) = 0.0762619
  grid = 18 18 18
  stencil order = 5
  estimated absolute RMS force accuracy = 0.0340043
  estimated relative force accuracy = 0.000102403
  using double precision KISS FFT
  3d grid and FFT values/proc = 12167 5832
Neighbor list info ...
  update every 1 steps, delay 10 steps, check yes
  max neighbors/atom: 2000, page size: 100000
  master list distance cutoff = 14
  ghost atom cutoff = 14
  binsize = 7, bins = 41 41 41
  1 neighbor lists, perpetual/occasional/extra = 1 0 0
  (1) pair lj/cut/coul/long, perpetual
      attributes: half, newton on
      pair build: half/bin/newton
      stencil: half/bin/3d/newton
      bin: standard
Per MPI rank memory allocation (min/avg/max) = 19.11 | 19.11 | 19.11 Mbytes
Step Temp E_pair E_mol TotEng Press 
       0    2057.2376     76.77788    197941.74    202047.39   -420.21273 
    2000    1805.4023    217.26945     2465.803    6218.7583    2.5197402 
Loop time of 5.84535 on 1 procs for 2000 steps with 658 atoms

Performance: 29.562 ns/day, 0.812 hours/ns, 342.153 timesteps/s
99.9% CPU use with 1 MPI tasks x no OpenMP threads

MPI task timing breakdown:
Section |  min time  |  avg time  |  max time  |%varavg| %total
---------------------------------------------------------------
Pair    | 1.6107     | 1.6107     | 1.6107     |   0.0 | 27.56
Bond    | 0.6166     | 0.6166     | 0.6166     |   0.0 | 10.55
Kspace  | 3.385      | 3.385      | 3.385      |   0.0 | 57.91
Neigh   | 0.20248    | 0.20248    | 0.20248    |   0.0 |  3.46
Comm    | 0.0028074  | 0.0028074  | 0.0028074  |   0.0 |  0.05
Output  | 3.4094e-05 | 3.4094e-05 | 3.4094e-05 |   0.0 |  0.00
Modify  | 0.022267   | 0.022267   | 0.022267   |   0.0 |  0.38
Other   |            | 0.005375   |            |       |  0.09

Nlocal:    658 ave 658 max 658 min
Histogram: 1 0 0 0 0 0 0 0 0 0
Nghost:    0 ave 0 max 0 min
Histogram: 1 0 0 0 0 0 0 0 0 0
Neighs:    31134 ave 31134 max 31134 min
Histogram: 1 0 0 0 0 0 0 0 0 0

Total # of neighbors = 31134
Ave neighs/atom = 47.3161
Ave special neighs/atom = 11.2249
Neighbor list builds = 162
Dangerous builds = 0
unfix pysimm_md
min_style cg
minimize 0.001 0.001 10000 100000
WARNING: Using 'neigh_modify every 1 delay 0 check yes' setting during minimization (../min.cpp:190)
PPPM initialization ...
  using 12-bit tables for long-range coulomb (../kspace.cpp:332)
  G vector (1/distance) = 0.0762619
  grid = 18 18 18
  stencil order = 5
  estimated absolute RMS force accuracy = 0.0340043
  estimated relative force accuracy = 0.000102403
  using double precision KISS FFT
  3d grid and FFT values/proc = 12167 5832
Per MPI rank memory allocation (min/avg/max) = 20.24 | 20.24 | 20.24 Mbytes
Step Temp E_pair E_mol TotEng Press 
    2000    1805.4023    217.26945     2465.803    6218.7583    2.5197402 
    2029    1805.4023    132.85325    899.11356    4567.6526    7.7359536 
Loop time of 0.184758 on 1 procs for 29 steps with 658 atoms

100.7% CPU use with 1 MPI tasks x no OpenMP threads

Minimization stats:
  Stopping criterion = energy tolerance
  Energy initial, next-to-last, final = 
         2683.07243108      1032.99583312      1031.96681284
  Force two-norm initial, final = 1566.95 74.0358
  Force max component initial, final = 170.285 8.48325
  Final line search alpha, max atom move = 0.00273993 0.0232435
  Iterations, force evaluations = 29 57

MPI task timing breakdown:
Section |  min time  |  avg time  |  max time  |%varavg| %total
---------------------------------------------------------------
Pair    | 0.064444   | 0.064444   | 0.064444   |   0.0 | 34.88
Bond    | 0.019523   | 0.019523   | 0.019523   |   0.0 | 10.57
Kspace  | 0.098591   | 0.098591   | 0.098591   |   0.0 | 53.36
Neigh   | 0.0011768  | 0.0011768  | 0.0011768  |   0.0 |  0.64
Comm    | 4.4346e-05 | 4.4346e-05 | 4.4346e-05 |   0.0 |  0.02
Output  | 0          | 0          | 0          |   0.0 |  0.00
Modify  | 0          | 0          | 0          |   0.0 |  0.00
Other   |            | 0.000978   |            |       |  0.53

Nlocal:    658 ave 658 max 658 min
Histogram: 1 0 0 0 0 0 0 0 0 0
Nghost:    0 ave 0 max 0 min
Histogram: 1 0 0 0 0 0 0 0 0 0
Neighs:    31082 ave 31082 max 31082 min
Histogram: 1 0 0 0 0 0 0 0 0 0

Total # of neighbors = 31082
Ave neighs/atom = 47.2371
Ave special neighs/atom = 11.2249
Neighbor list builds = 1
Dangerous builds = 0
write_dump all custom pysimm.dump.tmp id q x y z vx vy vz
quit


################################################################################
##################################    Init    ##################################
################################################################################
units           real
atom_style      full
pair_style      lj/cut/coul/long 12.0  12.0
kspace_style    pppm 1e-4
bond_style      harmonic
angle_style     harmonic
dihedral_style  fourier
improper_style  cvff
special_bonds   amber
pair_modify     mix arithmetic
read_data       temp.lmps
  orthogonal box = (-144.258 -144.258 -144.258) to (144.258 144.258 144.258)
  1 by 1 by 1 MPI processor grid
  reading atoms ...
  705 atoms
  reading velocities ...
  705 velocities
  scanning bonds ...
  3 = max bonds/atom
  scanning angles ...
  6 = max angles/atom
  scanning dihedrals ...
  24 = max dihedrals/atom
  scanning impropers ...
  2 = max impropers/atom
  reading bonds ...
  779 bonds
  reading angles ...
  1346 angles
  reading dihedrals ...
  2118 dihedrals
  reading impropers ...
  240 impropers
  4 = max # of 1-2 neighbors
  10 = max # of 1-3 neighbors
  19 = max # of 1-4 neighbors
  22 = max # of special neighbors
  special bonds CPU = 0.000720024 secs
  read_data CPU = 0.00957513 secs
################################################################################

timestep        1
fix             pysimm_md all nve/limit 0.1
run             2000
PPPM initialization ...
WARNING: System is not charge neutral, net charge = 3e-05 (../kspace.cpp:313)
  using 12-bit tables for long-range coulomb (../kspace.cpp:332)
  G vector (1/distance) = 0.0747696
  grid = 18 18 18
  stencil order = 5
  estimated absolute RMS force accuracy = 0.0350354
  estimated relative force accuracy = 0.000105508
  using double precision KISS FFT
  3d grid and FFT values/proc = 12167 5832
Neighbor list info ...
  update every 1 steps, delay 10 steps, check yes
  max neighbors/atom: 2000, page size: 100000
  master list distance cutoff = 14
  ghost atom cutoff = 14
  binsize = 7, bins = 42 42 42
  1 neighbor lists, perpetual/occasional/extra = 1 0 0
  (1) pair lj/cut/coul/long, perpetual
      attributes: half, newton on
      pair build: half/bin/newton
[...]
  using double precision KISS FFT
  3d grid and FFT values/proc = 27000 15625
Per MPI rank memory allocation (min/avg/max) = 23.37 | 23.37 | 23.37 Mbytes
Step Temp E_pair E_mol TotEng Press 
    2000    636.11275    384.49746    5119.1902    9690.3455  -0.70656983 
    2035    636.11275    238.59591    2865.1619    7290.4157    2.1899882 
Loop time of 0.850655 on 1 procs for 35 steps with 2209 atoms

100.1% CPU use with 1 MPI tasks x no OpenMP threads

Minimization stats:
  Stopping criterion = energy tolerance
  Energy initial, next-to-last, final = 
         5503.68761367      3104.69575049      3103.75780688
  Force two-norm initial, final = 1639.72 112.489
  Force max component initial, final = 231.972 12.9633
  Final line search alpha, max atom move = 0.0023684 0.0307022
  Iterations, force evaluations = 35 68

MPI task timing breakdown:
Section |  min time  |  avg time  |  max time  |%varavg| %total
---------------------------------------------------------------
Pair    | 0.44054    | 0.44054    | 0.44054    |   0.0 | 51.79
Bond    | 0.077039   | 0.077039   | 0.077039   |   0.0 |  9.06
Kspace  | 0.32301    | 0.32301    | 0.32301    |   0.0 | 37.97
Neigh   | 0.00633    | 0.00633    | 0.00633    |   0.0 |  0.74
Comm    | 9.203e-05  | 9.203e-05  | 9.203e-05  |   0.0 |  0.01
Output  | 0          | 0          | 0          |   0.0 |  0.00
Modify  | 0          | 0          | 0          |   0.0 |  0.00
Other   |            | 0.003642   |            |       |  0.43

Nlocal:    2209 ave 2209 max 2209 min
Histogram: 1 0 0 0 0 0 0 0 0 0
Nghost:    0 ave 0 max 0 min
Histogram: 1 0 0 0 0 0 0 0 0 0
Neighs:    190862 ave 190862 max 190862 min
Histogram: 1 0 0 0 0 0 0 0 0 0

Total # of neighbors = 190862
Ave neighs/atom = 86.402
Ave special neighs/atom = 11.2612
Neighbor list builds = 1
Dangerous builds = 0
write_dump all custom pysimm.dump.tmp id q x y z vx vy vz
quit


################################################################################
##################################    Init    ##################################
################################################################################
units           real
atom_style      full
pair_style      lj/cut/coul/long 12.0  12.0
kspace_style    pppm 1e-4
bond_style      harmonic
angle_style     harmonic
dihedral_style  fourier
improper_style  cvff
special_bonds   amber
pair_modify     mix arithmetic
read_data       temp.lmps
  orthogonal box = (-216.004 -216.004 -216.004) to (216.004 216.004 216.004)
  1 by 1 by 1 MPI processor grid
  reading atoms ...
  2256 atoms
  reading velocities ...
  2256 velocities
  scanning bonds ...
  3 = max bonds/atom
  scanning angles ...
  6 = max angles/atom
  scanning dihedrals ...
  24 = max dihedrals/atom
  scanning impropers ...
  2 = max impropers/atom
  reading bonds ...
  2495 bonds
  reading angles ...
  4316 angles
  reading dihedrals ...
  6804 dihedrals
  reading impropers ...
  768 impropers
  4 = max # of 1-2 neighbors
  10 = max # of 1-3 neighbors
  19 = max # of 1-4 neighbors
  22 = max # of special neighbors
  special bonds CPU = 0.00177884 secs
  read_data CPU = 0.023454 secs
################################################################################

timestep        1
fix             pysimm_md all nve/limit 0.1
run             2000
PPPM initialization ...
WARNING: System is not charge neutral, net charge = 9.6e-05 (../kspace.cpp:313)
  using 12-bit tables for long-range coulomb (../kspace.cpp:332)
  G vector (1/distance) = 0.0748771
  grid = 27 27 27
  stencil order = 5
  estimated absolute RMS force accuracy = 0.0341298
  estimated relative force accuracy = 0.000102781
  using double precision KISS FFT
  3d grid and FFT values/proc = 32768 19683
Neighbor list info ...
  update every 1 steps, delay 10 steps, check yes
  max neighbors/atom: 2000, page size: 100000
  master list distance cutoff = 14
  ghost atom cutoff = 14
  binsize = 7, bins = 62 62 62
  1 neighbor lists, perpetual/occasional/extra = 1 0 0
  (1) pair lj/cut/coul/long, perpetual
      attributes: half, newton on
      pair build: half/bin/newton
      stencil: half/bin/3d/newton
      bin: standard
Per MPI rank memory allocation (min/avg/max) = 22.43 | 22.43 | 22.43 Mbytes
Step Temp E_pair E_mol TotEng Press 
       0    623.02659    218.28936    225135.03    229541.13   -131.17834 
    2000    554.65649    310.86609    5012.1163    9051.2317   0.73306281 
Loop time of 23.8129 on 1 procs for 2000 steps with 2256 atoms

Performance: 7.257 ns/day, 3.307 hours/ns, 83.988 timesteps/s
100.0% CPU use with 1 MPI tasks x no OpenMP threads

MPI task timing breakdown:
Section |  min time  |  avg time  |  max time  |%varavg| %total
---------------------------------------------------------------
Pair    | 8.5487     | 8.5487     | 8.5487     |   0.0 | 35.90
Bond    | 2.076      | 2.076      | 2.076      |   0.0 |  8.72
Kspace  | 12.038     | 12.038     | 12.038     |   0.0 | 50.55
Neigh   | 1.0568     | 1.0568     | 1.0568     |   0.0 |  4.44
Comm    | 0.0078709  | 0.0078709  | 0.0078709  |   0.0 |  0.03
Output  | 3.4809e-05 | 3.4809e-05 | 3.4809e-05 |   0.0 |  0.00
Modify  | 0.072147   | 0.072147   | 0.072147   |   0.0 |  0.30
Other   |            | 0.01326    |            |       |  0.06

Nlocal:    2256 ave 2256 max 2256 min
Histogram: 1 0 0 0 0 0 0 0 0 0
Nghost:    0 ave 0 max 0 min
Histogram: 1 0 0 0 0 0 0 0 0 0
Neighs:    192784 ave 192784 max 192784 min
Histogram: 1 0 0 0 0 0 0 0 0 0

Total # of neighbors = 192784
Ave neighs/atom = 85.4539
Ave special neighs/atom = 11.2615
Neighbor list builds = 164
Dangerous builds = 0
unfix pysimm_md
min_style cg
minimize 0.001 0.001 10000 100000
WARNING: Using 'neigh_modify every 1 delay 0 check yes' setting during minimization (../min.cpp:190)
PPPM initialization ...
  using 12-bit tables for long-range coulomb (../kspace.cpp:332)
  G vector (1/distance) = 0.0748771
  grid = 27 27 27
  stencil order = 5
  estimated absolute RMS force accuracy = 0.0341298
  estimated relative force accuracy = 0.000102781
  using double precision KISS FFT
  3d grid and FFT values/proc = 32768 19683
Per MPI rank memory allocation (min/avg/max) = 23.94 | 23.94 | 23.94 Mbytes
Step Temp E_pair E_mol TotEng Press 
    2000    554.65649    310.86609    5012.1163    9051.2317   0.73306281 
    2030    554.65649    179.90902    2908.1212    6816.2795    2.0148319 
Loop time of 0.82151 on 1 procs for 30 steps with 2256 atoms

100.2% CPU use with 1 MPI tasks x no OpenMP threads

Minimization stats:
  Stopping criterion = energy tolerance
  Energy initial, next-to-last, final = 
         5322.98237818      3090.84336412      3088.03018659
  Force two-norm initial, final = 1588.14 100.366
  Force max component initial, final = 166.768 11.2536
  Final line search alpha, max atom move = 0.00363109 0.0408629
  Iterations, force evaluations = 30 59

MPI task timing breakdown:
Section |  min time  |  avg time  |  max time  |%varavg| %total
---------------------------------------------------------------
Pair    | 0.38232    | 0.38232    | 0.38232    |   0.0 | 46.54
Bond    | 0.068624   | 0.068624   | 0.068624   |   0.0 |  8.35
Kspace  | 0.36097    | 0.36097    | 0.36097    |   0.0 | 43.94
Neigh   | 0.00634    | 0.00634    | 0.00634    |   0.0 |  0.77
Comm    | 5.6982e-05 | 5.6982e-05 | 5.6982e-05 |   0.0 |  0.01
Output  | 0          | 0          | 0          |   0.0 |  0.00
Modify  | 0          | 0          | 0          |   0.0 |  0.00
Other   |            | 0.0032     |            |       |  0.39

Nlocal:    2256 ave 2256 max 2256 min
Histogram: 1 0 0 0 0 0 0 0 0 0
Nghost:    0 ave 0 max 0 min
Histogram: 1 0 0 0 0 0 0 0 0 0
Neighs:    192625 ave 192625 max 192625 min
Histogram: 1 0 0 0 0 0 0 0 0 0

Total # of neighbors = 192625
Ave neighs/atom = 85.3834
Ave special neighs/atom = 11.2615
Neighbor list builds = 1
Dangerous builds = 0
write_dump all custom pysimm.dump.tmp id q x y z vx vy vz
quit


################################################################################
##################################    Init    ##################################
################################################################################
units           real
atom_style      full
pair_style      lj/cut/coul/long 12.0  12.0
kspace_style    pppm 1e-4
bond_style      harmonic
angle_style     harmonic
dihedral_style  fourier
improper_style  cvff
special_bonds   amber
pair_modify     mix arithmetic
read_data       temp.lmps
  orthogonal box = (-217.525 -217.525 -217.525) to (217.525 217.525 217.525)
  1 by 1 by 1 MPI processor grid
  reading atoms ...
  2303 atoms
  reading velocities ...
  2303 velocities
  scanning bonds ...
  3 = max bonds/atom
  scanning angles ...
  6 = max angles/atom
  scanning dihedrals ...
  24 = max dihedrals/atom
  scanning impropers ...
  2 = max impropers/atom
  reading bonds ...
  2547 bonds
  reading angles ...
  4406 angles
  reading dihedrals ...
  6946 dihedrals
  reading impropers ...
  784 impropers
  4 = max # of 1-2 neighbors
  10 = max # of 1-3 neighbors
  19 = max # of 1-4 neighbors
  22 = max # of special neighbors
  special bonds CPU = 0.00183892 secs
  read_data CPU = 0.0236628 secs
################################################################################

timestep        1
fix             pysimm_md all nve/limit 0.1
run             2000
PPPM initialization ...
WARNING: System is not charge neutral, net charge = 9.8e-05 (../kspace.cpp:313)
  using 12-bit tables for long-range coulomb (../kspace.cpp:332)
  G vector (1/distance) = 0.0744561
  grid = 27 27 27
  stencil order = 5
  estimated absolute RMS force accuracy = 0.0344317
  estimated relative force accuracy = 0.00010369
  using double precision KISS FFT
  3d grid and FFT values/proc = 32768 19683
Neighbor list info ...
  update every 1 steps, delay 10 steps, check yes
  max neighbors/atom: 2000, page size: 100000
  master list distance cutoff = 14
  ghost atom cutoff = 14
  binsize = 7, bins = 63 63 63
  1 neighbor lists, perpetual/occasional/extra = 1 0 0
  (1) pair lj/cut/coul/long, perpetual
      attributes: half, newton on
      pair build: half/bin/newton
      stencil: half/bin/3d/newton
      bin: standard
Per MPI rank memory allocation (min/avg/max) = 22.49 | 22.49 | 22.49 Mbytes
Step Temp E_pair E_mol TotEng Press 
       0    543.50066     167.2262    120115.94    124012.57   -68.170784 
    2000    431.04576    305.26668    4825.7203    8088.7474  -0.69956801 
Loop time of 23.6716 on 1 procs for 2000 steps with 2303 atoms

Performance: 7.300 ns/day, 3.288 hours/ns, 84.489 timesteps/s
100.0% CPU use with 1 MPI tasks x no OpenMP threads

MPI task timing breakdown:
Section |  min time  |  avg time  |  max time  |%varavg| %total
---------------------------------------------------------------
Pair    | 8.3278     | 8.3278     | 8.3278     |   0.0 | 35.18
Bond    | 2.1487     | 2.1487     | 2.1487     |   0.0 |  9.08
Kspace  | 12.087     | 12.087     | 12.087     |   0.0 | 51.06
Neigh   | 1.0112     | 1.0112     | 1.0112     |   0.0 |  4.27
Comm    | 0.0079954  | 0.0079954  | 0.0079954  |   0.0 |  0.03
Output  | 3.5048e-05 | 3.5048e-05 | 3.5048e-05 |   0.0 |  0.00
Modify  | 0.074502   | 0.074502   | 0.074502   |   0.0 |  0.31
Other   |            | 0.01423    |            |       |  0.06

Nlocal:    2303 ave 2303 max 2303 min
Histogram: 1 0 0 0 0 0 0 0 0 0
Nghost:    0 ave 0 max 0 min
Histogram: 1 0 0 0 0 0 0 0 0 0
Neighs:    188335 ave 188335 max 188335 min
Histogram: 1 0 0 0 0 0 0 0 0 0

Total # of neighbors = 188335
Ave neighs/atom = 81.7781
Ave special neighs/atom = 11.2618
Neighbor list builds = 160
Dangerous builds = 0
unfix pysimm_md
min_style cg
minimize 0.001 0.001 10000 100000
WARNING: Using 'neigh_modify every 1 delay 0 check yes' setting during minimization (../min.cpp:190)
PPPM initialization ...
  using 12-bit tables for long-range coulomb (../kspace.cpp:332)
  G vector (1/distance) = 0.0744561
  grid = 27 27 27
  stencil order = 5
  estimated absolute RMS force accuracy = 0.0344317
  estimated relative force accuracy = 0.00010369
  using double precision KISS FFT
  3d grid and FFT values/proc = 32768 19683
Per MPI rank memory allocation (min/avg/max) = 23.61 | 23.61 | 23.61 Mbytes
Step Temp E_pair E_mol TotEng Press 
    2000    431.04576    305.26668    4825.7203    8088.7474  -0.69956801 
    2039    431.04576    138.50272    2872.9876    5969.2508    1.4800447 
Loop time of 1.90435 on 1 procs for 39 steps with 2303 atoms

100.0% CPU use with 1 MPI tasks x no OpenMP threads

Minimization stats:
  Stopping criterion = linesearch alpha is zero
  Energy initial, next-to-last, final = 
         5130.98698441      3011.49029821      3011.49029821
  Force two-norm initial, final = 1612.45 82.0569
  Force max component initial, final = 171.247 9.90335
  Final line search alpha, max atom move = 1.56791e-12 1.55276e-11
  Iterations, force evaluations = 39 138

MPI task timing breakdown:
Section |  min time  |  avg time  |  max time  |%varavg| %total
---------------------------------------------------------------
Pair    | 0.88       | 0.88       | 0.88       |   0.0 | 46.21
Bond    | 0.16165    | 0.16165    | 0.16165    |   0.0 |  8.49
Kspace  | 0.84438    | 0.84438    | 0.84438    |   0.0 | 44.34
Neigh   | 0.012303   | 0.012303   | 0.012303   |   0.0 |  0.65
Comm    | 0.00016499 | 0.00016499 | 0.00016499 |   0.0 |  0.01
Output  | 0          | 0          | 0          |   0.0 |  0.00
Modify  | 0          | 0          | 0          |   0.0 |  0.00
Other   |            | 0.005855   |            |       |  0.31

Nlocal:    2303 ave 2303 max 2303 min
Histogram: 1 0 0 0 0 0 0 0 0 0
Nghost:    0 ave 0 max 0 min
Histogram: 1 0 0 0 0 0 0 0 0 0
Neighs:    188139 ave 188139 max 188139 min
Histogram: 1 0 0 0 0 0 0 0 0 0

Total # of neighbors = 188139
Ave neighs/atom = 81.693
Ave special neighs/atom = 11.2618
Neighbor list builds = 2
Dangerous builds = 0
write_dump all custom pysimm.dump.tmp id q x y z vx vy vz
quit


################################################################################
##################################    Init    ##################################
################################################################################
units           real
atom_style      full
pair_style      lj/cut/coul/long 12.0  12.0
kspace_style    pppm 1e-4
bond_style      harmonic
angle_style     harmonic
dihedral_style  fourier
improper_style  cvff
special_bonds   amber
pair_modify     mix arithmetic
read_data       temp.lmps
  orthogonal box = (-219.025 -219.025 -219.025) to (219.025 219.025 219.025)
  1 by 1 by 1 MPI processor grid
  reading atoms ...
  2350 atoms
  reading velocities ...
  2350 velocities
  scanning bonds ...
  3 = max bonds/atom
  scanning angles ...
  6 = max angles/atom
  scanning dihedrals ...
  24 = max dihedrals/atom
  scanning impropers ...
  2 = max impropers/atom
  reading bonds ...
  2599 bonds
  reading angles ...
  4496 angles
  reading dihedrals ...
  7088 dihedrals
  reading impropers ...
  800 impropers
  4 = max # of 1-2 neighbors
  10 = max # of 1-3 neighbors
  19 = max # of 1-4 neighbors
  22 = max # of special neighbors
  special bonds CPU = 0.00187707 secs
  read_data CPU = 0.0241461 secs
################################################################################

timestep        1
fix             pysimm_md all nve/limit 0.1
run             2000
PPPM initialization ...
WARNING: System is not charge neutral, net charge = 0.0001 (../kspace.cpp:313)
  using 12-bit tables for long-range coulomb (../kspace.cpp:332)
  G vector (1/distance) = 0.0740455
  grid = 27 27 27
  stencil order = 5
  estimated absolute RMS force accuracy = 0.0347274
  estimated relative force accuracy = 0.000104581
  using double precision KISS FFT
  3d grid and FFT values/proc = 32768 19683
Neighbor list info ...
  update every 1 steps, delay 10 steps, check yes
  max neighbors/atom: 2000, page size: 100000
  master list distance cutoff = 14
  ghost atom cutoff = 14
  binsize = 7, bins = 63 63 63
  1 neighbor lists, perpetual/occasional/extra = 1 0 0
  (1) pair lj/cut/coul/long, perpetual
      attributes: half, newton on
      pair build: half/bin/newton
      stencil: half/bin/3d/newton
      bin: standard
Per MPI rank memory allocation (min/avg/max) = 22.49 | 22.49 | 22.49 Mbytes
Step Temp E_pair E_mol TotEng Press 
       0     422.5864    124.95316    324371.64    327455.51   -181.82904 
    2000    592.15027    397.68765    5060.9851    9604.8632       1.1649 
Loop time of 23.7559 on 1 procs for 2000 steps with 2350 atoms

Performance: 7.274 ns/day, 3.299 hours/ns, 84.190 timesteps/s
100.0% CPU use with 1 MPI tasks x no OpenMP threads

MPI task timing breakdown:
Section |  min time  |  avg time  |  max time  |%varavg| %total
---------------------------------------------------------------
Pair    | 8.327      | 8.327      | 8.327      |   0.0 | 35.05
Bond    | 2.1811     | 2.1811     | 2.1811     |   0.0 |  9.18
Kspace  | 12.086     | 12.086     | 12.086     |   0.0 | 50.87
Neigh   | 1.0639     | 1.0639     | 1.0639     |   0.0 |  4.48
Comm    | 0.0083628  | 0.0083628  | 0.0083628  |   0.0 |  0.04
Output  | 4.7922e-05 | 4.7922e-05 | 4.7922e-05 |   0.0 |  0.00
Modify  | 0.076135   | 0.076135   | 0.076135   |   0.0 |  0.32
Other   |            | 0.01378    |            |       |  0.06

Nlocal:    2350 ave 2350 max 2350 min
Histogram: 1 0 0 0 0 0 0 0 0 0
Nghost:    0 ave 0 max 0 min
Histogram: 1 0 0 0 0 0 0 0 0 0
Neighs:    195050 ave 195050 max 195050 min
Histogram: 1 0 0 0 0 0 0 0 0 0

Total # of neighbors = 195050
Ave neighs/atom = 83
Ave special neighs/atom = 11.2621
Neighbor list builds = 168
Dangerous builds = 0
unfix pysimm_md
min_style cg
minimize 0.001 0.001 10000 100000
WARNING: Using 'neigh_modify every 1 delay 0 check yes' setting during minimization (../min.cpp:190)
PPPM initialization ...
  using 12-bit tables for long-range coulomb (../kspace.cpp:332)
  G vector (1/distance) = 0.0740455
  grid = 27 27 27
  stencil order = 5
  estimated absolute RMS force accuracy = 0.0347274
  estimated relative force accuracy = 0.000104581
  using double precision KISS FFT
  3d grid and FFT values/proc = 32768 19683
Per MPI rank memory allocation (min/avg/max) = 23.62 | 23.62 | 23.62 Mbytes
Step Temp E_pair E_mol TotEng Press 
    2000    592.15027    397.68765    5060.9851    9604.8632       1.1649 
    2038    592.15027    207.20405    2983.3849    7336.7794    2.2478164 
Loop time of 0.995986 on 1 procs for 38 steps with 2350 atoms

100.1% CPU use with 1 MPI tasks x no OpenMP threads

Minimization stats:
  Stopping criterion = energy tolerance
  Energy initial, next-to-last, final = 
         5458.67271971      3192.23763931      3190.58893043
  Force two-norm initial, final = 1567.21 106.062
  Force max component initial, final = 218.577 13.7694
  Final line search alpha, max atom move = 0.00154043 0.0212107
  Iterations, force evaluations = 38 70

MPI task timing breakdown:
Section |  min time  |  avg time  |  max time  |%varavg| %total
---------------------------------------------------------------
Pair    | 0.46995    | 0.46995    | 0.46995    |   0.0 | 47.18
Bond    | 0.084577   | 0.084577   | 0.084577   |   0.0 |  8.49
Kspace  | 0.42462    | 0.42462    | 0.42462    |   0.0 | 42.63
Neigh   | 0.012529   | 0.012529   | 0.012529   |   0.0 |  1.26
Comm    | 0.00011492 | 0.00011492 | 0.00011492 |   0.0 |  0.01
Output  | 0          | 0          | 0          |   0.0 |  0.00
Modify  | 0          | 0          | 0          |   0.0 |  0.00
Other   |            | 0.004189   |            |       |  0.42

Nlocal:    2350 ave 2350 max 2350 min
Histogram: 1 0 0 0 0 0 0 0 0 0
Nghost:    0 ave 0 max 0 min
Histogram: 1 0 0 0 0 0 0 0 0 0
Neighs:    195206 ave 195206 max 195206 min
Histogram: 1 0 0 0 0 0 0 0 0 0

Total # of neighbors = 195206
Ave neighs/atom = 83.0664
Ave special neighs/atom = 11.2621
Neighbor list builds = 2
Dangerous builds = 0
write_dump all custom pysimm.dump.tmp id q x y z vx vy vz
quit
