pySIMM System Object

182 atoms
181 bonds
300 angles
394 dihedrals
40 impropers

7 atom types
6 bond types
10 angle types
4 dihedral types
2 improper types

-87.555004 87.555004 xlo xhi
-87.555004 87.555004 ylo yhi
-87.555004 87.555004 zlo zhi

Masses

   1	12.01	# c3
   2	12.01	# c
   3	1.008	# hc
   4	14.01	# n
   5	16.0	# o
   6	1.008	# hn
   7	1.008	# h5

Pair Coeffs

   1	0.1094	3.3996695084235347	# c3
   2	0.086	3.3996695084235347	# c
   3	0.0157	2.649532787749369	# hc
   4	0.17	3.249998523775958	# n
   5	0.21	2.959921901149463	# o
   6	0.0157	1.069078461768407	# hn
   7	0.015	2.421462715905442	# h5

Bond Coeffs

   1	319.7	1.1051	# c,h5
   2	427.6	1.3789	# c,n
   3	313.0	1.5241	# c,c3
   4	330.6	1.0969	# c3,hc
   5	637.7	1.2183	# c,o
   6	403.2	1.0129	# hn,n

Angle Coeffs

   1	48.33	117.55	# c,n,hn
   2	74.22	123.05	# n,c,o
   3	53.7	123.65	# h5,c,o
   4	39.4	107.58	# hc,c3,hc
   5	63.74	127.08	# c,n,c
   6	67.4	123.2	# c3,c,o
   7	46.93	108.77	# c,c3,hc
   8	66.79	115.18	# c3,c,n
   9	51.42	112.16	# h5,c,n
  10	63.38	111.63	# c,c3,c

Dihedral Coeffs

   1	3	0.8	1	0	0.0	2	0	0.08	3	180	# hc,c3,c,o
   2	1	2.5	2	180	# X,c,n,X
   3	2	2.5	2	180	2.0	1	0	# hn,n,c,o
   4	1	0.0	2	180	# X,c,c3,X

Improper Coeffs

   1	10.5	-1	2	# c,X,X,o
   2	1.1	-1	2	# n,X,X,hn

Atoms

   1	1	1	-0.041892	-11.8566	14.776	16.1125
   2	1	2	0.591489	-12.6812	14.3503	17.303
   3	1	3	0.048074	-11.4612	15.7863	16.2676
   4	1	4	-0.651929	-12.9621	13.0201	17.4066
   5	1	3	0.049056	-11.0166	14.0869	15.9645
   6	1	5	-0.529683	-13.2061	15.164	18.0312
   7	1	2	0.758009	-13.835	12.4377	18.271
   8	1	6	0.367145	-12.5448	12.3696	16.7637
   9	1	5	-0.590269	-14.0343	11.2458	18.1846
  10	1	1	-0.041892	-15.1784	14.6467	13.0129
  11	1	2	0.591489	-15.0105	15.5811	14.1964
  12	1	3	0.048074	-14.9983	13.6183	13.3428
  13	1	4	-0.651929	-13.8998	15.5095	14.9928
  14	1	3	0.049056	-16.2099	14.7037	12.6476
  15	1	5	-0.529683	-15.887	16.3439	14.5388
  16	1	2	0.758009	-12.7587	14.7533	14.9023
  17	1	6	0.367145	-13.9753	16.1177	15.7934
  18	1	5	-0.590269	-12.589	13.9277	14.0307
  19	1	1	-0.041892	-14.4671	12.5496	9.03264
  20	1	2	0.591489	-14.7239	13.0382	10.4433
  21	1	3	0.048074	-15.2754	11.872	8.73395
  22	1	4	-0.651929	-14.1392	14.2353	10.7688
  23	1	3	0.049056	-14.474	13.4029	8.34461
  24	1	5	-0.529683	-15.5037	12.4682	11.1741
  25	1	2	0.758009	-14.2331	15.0191	11.8826
  26	1	6	0.367145	-13.4961	14.6383	10.1143
  27	1	5	-0.590269	-13.5979	16.0529	11.851
  28	1	1	-0.041892	-10.5012	10.501	8.1237
  29	1	2	0.591489	-11.4197	11.2968	7.2064
  30	1	3	0.048074	-10.1146	11.1715	8.90014
  31	1	4	-0.651929	-12.6064	11.7874	7.6765
  32	1	3	0.049056	-11.0671	9.70135	8.61434
  33	1	5	-0.529683	-11.1447	11.5825	6.06301
  34	1	2	0.758009	-13.1492	11.8099	8.9338
  35	1	6	0.367145	-13.1397	12.2226	6.94485
  36	1	5	-0.590269	-12.5208	11.4386	9.90095
  37	1	1	-0.041892	-6.62853	9.07437	6.20627
  38	1	2	0.591489	-6.9341	9.38196	7.66488
  39	1	3	0.048074	-6.8744	8.02658	5.99873
  40	1	4	-0.651929	-8.15591	9.87608	8.0251
  41	1	3	0.049056	-7.22679	9.70627	5.54074
  42	1	5	-0.529683	-6.11579	9.24257	8.54722
  43	1	2	0.758009	-9.35321	9.87002	7.36142
  44	1	6	0.367145	-8.15841	10.2477	8.95762
  45	1	5	-0.590269	-9.52371	9.12316	6.42011
  46	1	1	-0.041892	-2.18216	9.39554	5.17894
  47	1	2	0.591489	-3.21699	8.36019	4.73327
  48	1	3	0.048074	-2.49651	10.3847	4.82706
  49	1	4	-0.651929	-4.50557	8.42259	5.18748
  50	1	3	0.049056	-2.16798	9.42239	6.27449
  51	1	5	-0.529683	-2.94553	7.38453	4.06745
  52	1	2	0.758009	-5.16936	9.36982	5.92248
  53	1	6	0.367145	-5.04198	7.61908	4.91367
  54	1	5	-0.590269	-4.67464	10.4536	6.1483
  55	1	1	-0.041892	2.20526	7.98867	4.20263
  56	1	2	0.591489	0.87965	7.24625	4.38274
  57	1	3	0.048074	2.08021	9.07072	4.15025
  58	1	4	-0.651929	-0.318826	7.86124	4.62158
  59	1	3	0.049056	2.82999	7.78021	5.07764
  60	1	5	-0.529683	0.844561	6.03197	4.40005
  61	1	2	0.758009	-0.751399	9.16057	4.69765
  62	1	6	0.367145	-1.06712	7.18395	4.67475
  63	1	5	-0.590269	0.015252	10.0906	4.58445
  64	1	1	-0.041892	2.9373	4.08335	1.48943
  65	1	2	0.591489	3.47502	5.49685	1.61959
  66	1	3	0.048074	2.19326	3.88035	2.26822
  67	1	4	-0.651929	2.94426	6.20354	2.67017
  68	1	3	0.049056	2.43283	4.01352	0.519738
  69	1	5	-0.529683	4.15966	5.99922	0.755164
  70	1	2	0.758009	2.9631	7.54767	2.95351
  71	1	6	0.367145	2.36161	5.66961	3.29826
  72	1	5	-0.590269	3.52168	8.36294	2.25241
  73	1	1	-0.041892	2.56896	-0.45184	0.967843
  74	1	2	0.591489	2.52722	1.066	1.08014
  75	1	3	0.048074	2.72324	-0.874814	1.96667
  76	1	4	-0.651929	3.7034	1.7032	1.39408
  77	1	3	0.049056	1.59653	-0.802782	0.619237
  78	1	5	-0.529683	1.49053	1.67686	0.934452
  79	1	2	0.758009	4.02574	3.0237	1.56226
  80	1	6	0.367145	4.52317	1.11505	1.47286
  81	1	5	-0.590269	5.15779	3.24873	1.92931
  82	1	1	-0.041892	2.80421	-2.58326	-3.18433
  83	1	2	0.591489	2.49842	-2.05359	-1.79968
  84	1	3	0.048074	1.91897	-2.4999	-3.8145
  85	1	4	-0.651929	3.56711	-1.5109	-1.13563
  86	1	3	0.049056	3.57702	-1.95942	-3.64752
  87	1	5	-0.529683	1.39671	-2.14074	-1.30809
  88	1	2	0.758009	3.72264	-0.902695	0.0787863
  89	1	6	0.367145	4.46074	-1.60792	-1.59127
  90	1	5	-0.590269	4.86833	-0.65465	0.38945
  91	1	1	-0.041892	1.08423	-6.77473	-4.2703
  92	1	2	0.591489	1.44775	-5.32151	-4.04477
  93	1	3	0.048074	0.0883954	-6.97172	-3.85855
  94	1	4	-0.651929	2.68288	-5.11294	-3.48293
  95	1	3	0.049056	1.8025	-7.3917	-3.7224
  96	1	5	-0.529683	0.696732	-4.41618	-4.32814
  97	1	2	0.758009	3.34628	-3.99728	-3.05737
  98	1	6	0.367145	3.22396	-5.94129	-3.29058
  99	1	5	-0.590269	4.49938	-4.17418	-2.72734
 100	1	1	-0.041892	2.7353	-10.4055	-6.01003
 101	1	2	0.591489	1.67216	-9.51605	-5.39587
 102	1	3	0.048074	2.42841	-10.7322	-7.0101
 103	1	4	-0.651929	1.35451	-8.40922	-6.13431
 104	1	3	0.049056	2.84477	-11.2912	-5.37491
 105	1	5	-0.529683	1.27782	-9.67049	-4.25955
 106	1	2	0.758009	1.0918	-7.12768	-5.75346
 107	1	6	0.367145	1.62506	-8.44962	-7.10883
 108	1	5	-0.590269	1.35874	-6.30827	-6.61046
 109	1	1	-0.041892	6.82002	-11.9621	-7.35147
 110	1	2	0.591489	5.43863	-11.6199	-6.83059
 111	1	3	0.048074	6.76072	-12.9332	-7.8553
 112	1	4	-0.651929	5.19167	-10.3018	-6.54583
 113	1	3	0.049056	7.15201	-11.2407	-8.10352
 114	1	5	-0.529683	4.58063	-12.466	-6.70685
 115	1	2	0.758009	4.07178	-9.66264	-6.09399
 116	1	6	0.367145	5.97524	-9.66287	-6.65165
 117	1	5	-0.590269	4.16442	-8.45856	-5.93287
 118	1	1	-0.041892	9.64895	-8.84312	-5.46694
 119	1	2	0.591489	8.5945	-9.71812	-6.11551
 120	1	3	0.048074	9.28712	-7.80934	-5.41508
 121	1	4	-0.651929	8.60996	-11.0568	-5.81504
 122	1	3	0.049056	10.5411	-8.84818	-6.10308
 123	1	5	-0.529683	7.77074	-9.24993	-6.8722
 124	1	2	0.758009	7.81517	-12.0974	-6.20955
 125	1	6	0.367145	9.3076	-11.3783	-5.1633
 126	1	5	-0.590269	8.05201	-13.1608	-5.68156
 127	1	1	-0.041892	7.86675	-7.58352	-1.57882
 128	1	2	0.591489	8.12335	-8.35971	-2.85473
 129	1	3	0.048074	8.79355	-7.12583	-1.21398
 130	1	4	-0.651929	9.37075	-8.90677	-2.97268
 131	1	3	0.049056	7.50511	-8.27136	-0.80627
 132	1	5	-0.529683	7.30588	-8.4645	-3.74406
 133	1	2	0.758009	10.0448	-9.32473	-4.08065
 134	1	6	0.367145	9.92709	-8.98096	-2.14042
 135	1	5	-0.590269	11.0598	-9.96007	-3.90053
 136	1	1	-0.041892	8.04111	-4.08488	-4.55669
 137	1	2	0.591489	8.13772	-5.18369	-3.51033
 138	1	3	0.048074	8.77938	-3.31755	-4.29713
 139	1	4	-0.651929	7.0506	-5.48027	-2.7195
 140	1	3	0.049056	8.34323	-4.49036	-5.52805
 141	1	5	-0.529683	9.19292	-5.76706	-3.36674
 142	1	2	0.758009	6.82991	-6.4966	-1.82515
 143	1	6	0.367145	6.22174	-4.90162	-2.79375
 144	1	5	-0.590269	5.75849	-6.51444	-1.25679
 145	1	1	-0.041892	4.5459	-4.74302	-7.45183
 146	1	2	0.591489	5.67969	-4.84302	-6.45
 147	1	3	0.048074	4.61443	-3.77184	-7.95656
 148	1	4	-0.651929	5.79893	-3.74066	-5.64581
 149	1	3	0.049056	3.58886	-4.76502	-6.91879
 150	1	5	-0.529683	6.37074	-5.82362	-6.29505
 151	1	2	0.758009	6.68812	-3.40375	-4.66562
 152	1	6	0.367145	5.11161	-3.02096	-5.76692
 153	1	5	-0.590269	6.44686	-2.36663	-4.08548
 154	1	1	-0.041892	3.41742	-7.77516	-10.7187
 155	1	2	0.591489	3.15014	-7.76067	-9.22631
 156	1	3	0.048074	2.47613	-7.98558	-11.2398
 157	1	4	-0.651929	3.63985	-6.79735	-8.38708
 158	1	3	0.049056	3.78113	-6.81857	-11.1001
 159	1	5	-0.529683	2.41587	-8.59495	-8.73703
 160	1	2	0.758009	4.59136	-5.82106	-8.52043
 161	1	6	0.367145	3.2198	-6.84139	-7.47048
 162	1	5	-0.590269	5.1669	-5.62822	-9.56844
 163	1	1	-0.041892	5.98869	-11.438	-11.482
 164	1	2	0.591489	4.47612	-11.343	-11.3887
 165	1	3	0.048074	6.35079	-10.9148	-12.3727
 166	1	4	-0.651929	3.88301	-10.1321	-11.1533
 167	1	3	0.049056	6.42948	-10.9405	-10.612
 168	1	5	-0.529683	3.74395	-12.307	-11.4505
 169	1	2	0.758009	4.41065	-8.87307	-11.0105
 170	1	6	0.367145	2.88577	-10.2152	-11.0604
 171	1	5	-0.590269	5.60007	-8.656	-11.0733
 172	1	1	-0.041892	6.79715	-14.3579	-14.9168
 173	1	2	0.591489	6.2946	-13.3376	-13.9016
 174	1	3	0.048074	7.13213	-13.838	-15.8224
 175	1	4	-0.651929	6.65765	-13.583	-12.6052
 176	1	3	0.049056	5.98797	-15.0495	-15.1782
 177	1	5	-0.529683	5.64821	-12.3663	-14.231
 178	1	2	0.758009	6.45438	-12.8806	-11.4523
 179	1	6	0.367145	7.14494	-14.4417	-12.4292
 180	1	5	-0.590269	6.94989	-13.3519	-10.4498
 181	1	7	0	-14.3782	13.1347	18.9353
 182	1	3	0	7.63969	-14.935	-14.5135

Velocities

   1	-0.000295456	0.000408805	0.00106828
   2	-0.000613965	0.00021091	0.000973401
   3	-0.00138437	0.000923032	0.000491271
   4	-0.000229436	0.000242819	0.000428743
   5	0.000426909	0.00118611	0.00194161
   6	-0.000230854	0.000127523	0.00155694
   7	0.000654088	-0.000626776	0.000903572
   8	-0.000732846	0.00091708	-0.00046973
   9	0.00149391	-0.000724134	0.000379495
  10	-8.87482e-05	-7.96538e-05	-0.000259835
  11	0.000943918	-7.27147e-05	-0.000384347
  12	0.000160551	-0.000189429	-0.000685627
  13	0.000798663	-0.000426487	-0.000371204
  14	-0.000405388	0.000135288	0.000513223
  15	0.00191097	0.00108542	-0.000646939
  16	0.00021984	-0.00124281	0.000618716
  17	0.00102148	0.00016817	-0.000847955
  18	6.7957e-05	-0.00198786	0.0012763
  19	-1.60227e-05	0.000104635	-0.000784579
  20	-0.00111295	0.00034296	-0.00108725
  21	0.000169426	0.000159695	-0.00137716
  22	-0.00104841	0.000245256	-0.000882224
  23	0.000679392	0.000111822	-0.000817236
  24	-0.00208066	0.000821928	-0.00170352
  25	-0.00102825	0.000234929	-0.000841736
  26	-0.00109947	0.00030229	-0.000886459
  27	-0.00116269	0.000314825	-0.00107684
  28	1.21784e-05	-0.000500337	5.09907e-05
  29	0.000327195	9.08809e-05	0.000149667
  30	0.000197286	-0.000665734	9.77766e-05
  31	0.000327496	-4.83775e-05	0.00017851
  32	-0.000242504	-0.000409552	-0.000125172
  33	0.000582661	0.000767661	0.000464854
  34	5.83087e-05	-6.77307e-05	1.33784e-05
  35	0.000481856	0.00014759	0.000145248
  36	-0.000232751	9.37945e-05	0.000336031
  37	0.000515779	0.000471793	0.000305887
  38	0.000410981	0.000572987	0.000235851
  39	0.000835646	0.00040679	0.000693273
  40	-0.000177847	-0.00106182	0.000455407
  41	0.000370092	0.000172042	0.000262601
  42	0.000560228	0.00174396	0.000294304
  43	2.74957e-05	-0.000515651	-2.71242e-05
  44	-0.000777363	-0.00181556	0.000723591
  45	0.000285872	0.000963425	-0.00127453
  46	-5.85152e-05	-0.000186429	-0.000546239
  47	-6.14235e-05	-0.000261922	-0.000312355
  48	0.000162097	-0.000433817	-0.00144324
  49	-1.84414e-05	0.000285337	-0.000205773
  50	-0.000691918	0.000512931	-0.000574577
  51	-4.68074e-05	-0.000690722	0.000382347
  52	0.000342737	0.000553854	-0.000221699
  53	-0.00018253	0.000349064	0.000124566
  54	0.000453602	0.000673259	-0.000871112
  55	-3.57186e-05	-0.000189035	-0.000162143
  56	0.000154569	-0.000447737	0.000654448
  57	-0.000244655	-0.000209573	-0.000706793
  58	0.000108323	-0.000655731	0.000916238
  59	0.00034056	0.000445836	-0.000285953
  60	0.000312091	-0.000455733	0.000719531
  61	8.41605e-05	-0.000666972	0.000220611
  62	0.00026412	-0.000765287	0.00142766
  63	-7.14781e-05	-0.000670747	-0.000449624
  64	-0.00102401	-0.000287891	-0.000219535
  65	-0.00109533	-0.000388182	-0.000275977
  66	-0.00135142	-0.000407935	-0.000546097
  67	-0.000585427	-0.000405714	-8.96551e-05
  68	-0.000585643	-0.000403696	-0.000494485
  69	-0.00095703	-0.000548188	-0.000277297
  70	-0.000232715	-0.00046768	-0.000185971
  71	-0.000423288	-0.000336604	0.000188884
  72	-0.000388328	-0.000668691	-0.000565831
  73	0.00106345	5.84384e-05	-0.000822865
  74	0.000604093	-2.63795e-06	-0.00138167
  75	0.000385516	0.000332938	-0.000698768
  76	0.000223833	0.000264096	-0.000692055
  77	0.001221	0.000194035	-0.00113693
  78	0.000486986	-0.000374279	-0.00193878
  79	-0.000602924	0.000246159	0.000429771
  80	0.00031808	0.00049386	-7.1572e-05
  81	-0.00152768	0.000472739	0.00303644
  82	-0.000103604	0.000699108	-0.0002084
  83	0.00122379	0.000234789	0.000153442
  84	-0.000963024	0.000451283	0.000948634
  85	0.00171735	-0.000257287	-0.000133948
  86	-0.0008692	0.00108772	-0.000962551
  87	0.00155406	0.00016864	0.000719852
  88	0.00149298	-0.000237349	-0.000101779
  89	0.00163826	-0.000562849	-0.00025073
  90	0.0013878	-0.000184758	0.000396746
  91	-0.000101587	0.000237745	0.00106103
  92	-0.000496099	0.000329388	0.00137013
  93	-0.000212064	-6.38477e-05	0.000670223
  94	6.14925e-05	0.000663108	6.32596e-05
  95	-0.000145025	0.000275248	0.00116795
  96	-0.0012907	8.03677e-05	0.00266912
  97	0.000293087	0.000834279	-0.000686911
  98	0.000385303	0.00082269	-0.000247233
  99	0.000439978	0.00102804	-0.00114592
 100	-0.000137273	-0.000305916	0.000766111
 101	0.000129363	0.000186284	0.00065889
 102	-0.0004813	-0.000654418	0.000988278
 103	0.000610446	0.00040521	0.000772235
 104	1.50472e-05	-8.70652e-05	0.00106433
 105	4.61818e-06	0.0002898	0.00065447
 106	0.000358314	0.000372002	0.00096392
 107	0.000337467	0.000429888	0.000649367
 108	0.000165015	0.00060922	0.00111663
 109	-0.00021295	-0.000412571	-0.000228228
 110	-0.000314946	-0.000582393	-0.000296093
 111	-4.53609e-05	-0.000355137	-0.000387742
 112	-0.000140528	-0.000680738	0.000116493
 113	-0.000301944	-0.00025395	-8.3552e-05
 114	-0.000493126	-0.00047186	-0.00078615
 115	1.02105e-05	-0.000566486	0.000342846
 116	-1.57022e-05	-0.000768184	0.000341794
 117	0.000390058	-0.000669082	0.000821071
 118	-0.000355544	-0.000300704	-2.26683e-05
 119	-0.00030905	-0.00025316	-0.000240309
 120	-0.00048614	-0.000358477	0.000227029
 121	-0.000376825	-0.000279065	-8.9213e-05
 122	-0.000285061	-7.65228e-05	0.000108976
 123	-0.000140617	-0.000302184	-0.00033675
 124	-0.000117035	-0.000370832	-0.000324139
 125	-0.00043839	-0.000208499	-5.73389e-06
 126	0.000561789	-0.000540425	-0.000832282
 127	-0.000651733	-8.19507e-05	-0.000444774
 128	-0.000320742	-0.000139175	-0.000309904
 129	-0.000803073	7.09155e-05	-0.000370594
 130	-0.000128304	0.000193432	-0.000147311
 131	-0.000627797	-0.000203539	-0.000551389
 132	-0.000351672	-0.000977291	-0.000112635
 133	-0.000474195	-0.000477498	-9.64833e-05
 134	0.000103705	0.00088326	-0.000231116
 135	-0.000622349	-0.000820287	-8.1088e-05
 136	-0.000665828	0.00045221	5.7129e-05
 137	-0.000458522	0.000433371	0.00016369
 138	-0.000639769	0.000498617	0.000149055
 139	-0.000581733	0.000144168	-9.297e-05
 140	-0.000185966	0.000456075	0.000126602
 141	-0.000565178	0.000327568	9.41429e-06
 142	-0.000802031	-0.000358666	-0.000737021
 143	-0.000398197	0.000477215	5.29496e-05
 144	-0.00143372	-0.00110656	-0.00185101
 145	-0.00135907	-6.16987e-05	0.000136993
 146	-0.000155854	0.001097	-0.000992679
 147	-0.00347214	8.75751e-05	0.00014353
 148	-0.000598714	0.000744845	-0.000459527
 149	-0.000862606	-0.00184032	0.000927686
 150	0.00112855	0.00186899	-0.00243642
 151	-0.00062064	0.000523124	-0.000409085
 152	-0.00105622	0.000433533	0.000282967
 153	-0.00109762	-1.52258e-05	0.000402203
 154	0.000976169	0.000562303	-0.000313498
 155	0.000448098	-0.000126708	-0.000336676
 156	0.00114787	0.000744192	-0.000517339
 157	0.000977786	-0.0010165	0.000350521
 158	0.000961225	0.00073969	0.000249107
 159	-0.000807235	0.000596579	-0.000810991
 160	3.70441e-05	-4.44933e-05	0.000192168
 161	0.00173034	-0.00183102	0.000614326
 162	-0.000196429	0.000687411	0.000263766
 163	0.000961526	-0.000192232	0.000807484
 164	0.00104865	0.000403822	0.000608358
 165	0.00144014	7.62492e-05	0.00122137
 166	0.00114984	0.000655079	-0.000406921
 167	0.000996714	-0.000537096	0.00117676
 168	0.000863861	0.000461678	0.00199333
 169	0.00118108	0.000650655	-0.000782571
 170	0.0011299	0.000746445	-0.000331712
 171	0.00120043	0.000613401	-0.000492751
 172	-0.000628846	-0.000200439	-0.000109434
 173	0.000112626	0.000414439	-0.000363224
 174	-0.0011835	-0.00106499	-0.00070086
 175	-0.000289279	-0.00016162	-0.000268984
 176	-0.000627871	-0.000650154	0.00116106
 177	0.00161632	0.00135348	-0.000231233
 178	0.000555181	-0.000358468	8.24787e-05
 179	-0.000849841	-0.000703137	-0.000734495
 180	0.000280177	-0.00128013	-0.000237412
 181	0.00119147	-0.00134958	0.00221219
 182	-0.000378284	0.000252846	-0.000302306

Bonds

   1	3	1	2
   2	4	1	3
   3	4	1	5
   4	2	2	4
   5	5	2	6
   6	2	4	7
   7	6	4	8
   8	5	7	9
   9	3	10	11
  10	4	10	12
  11	4	10	14
  12	2	11	13
  13	5	11	15
  14	2	13	16
  15	6	13	17
  16	5	16	18
  17	3	1	16
  18	3	19	20
  19	4	19	21
  20	4	19	23
  21	2	20	22
  22	5	20	24
  23	2	22	25
  24	6	22	26
  25	5	25	27
  26	3	10	25
  27	3	28	29
  28	4	28	30
  29	4	28	32
  30	2	29	31
  31	5	29	33
  32	2	31	34
  33	6	31	35
  34	5	34	36
  35	3	19	34
  36	3	37	38
  37	4	37	39
  38	4	37	41
  39	2	38	40
  40	5	38	42
  41	2	40	43
  42	6	40	44
  43	5	43	45
  44	3	28	43
  45	3	46	47
  46	4	46	48
  47	4	46	50
  48	2	47	49
  49	5	47	51
  50	2	49	52
  51	6	49	53
  52	5	52	54
  53	3	37	52
  54	3	55	56
  55	4	55	57
  56	4	55	59
  57	2	56	58
  58	5	56	60
  59	2	58	61
  60	6	58	62
  61	5	61	63
  62	3	46	61
  63	3	64	65
  64	4	64	66
  65	4	64	68
  66	2	65	67
  67	5	65	69
  68	2	67	70
  69	6	67	71
  70	5	70	72
  71	3	55	70
  72	3	73	74
  73	4	73	75
  74	4	73	77
  75	2	74	76
  76	5	74	78
  77	2	76	79
  78	6	76	80
  79	5	79	81
  80	3	64	79
  81	3	82	83
  82	4	82	84
  83	4	82	86
  84	2	83	85
  85	5	83	87
  86	2	85	88
  87	6	85	89
  88	5	88	90
  89	3	73	88
  90	3	91	92
  91	4	91	93
  92	4	91	95
  93	2	92	94
  94	5	92	96
  95	2	94	97
  96	6	94	98
  97	5	97	99
  98	3	82	97
  99	3	100	101
 100	4	100	102
 101	4	100	104
 102	2	101	103
 103	5	101	105
 104	2	103	106
 105	6	103	107
 106	5	106	108
 107	3	91	106
 108	3	109	110
 109	4	109	111
 110	4	109	113
 111	2	110	112
 112	5	110	114
 113	2	112	115
 114	6	112	116
 115	5	115	117
 116	3	100	115
 117	3	118	119
 118	4	118	120
 119	4	118	122
 120	2	119	121
 121	5	119	123
 122	2	121	124
 123	6	121	125
 124	5	124	126
 125	3	109	124
 126	3	127	128
 127	4	127	129
 128	4	127	131
 129	2	128	130
 130	5	128	132
 131	2	130	133
 132	6	130	134
 133	5	133	135
 134	3	118	133
 135	3	136	137
 136	4	136	138
 137	4	136	140
 138	2	137	139
 139	5	137	141
 140	2	139	142
 141	6	139	143
 142	5	142	144
 143	3	127	142
 144	3	145	146
 145	4	145	147
 146	4	145	149
 147	2	146	148
 148	5	146	150
 149	2	148	151
 150	6	148	152
 151	5	151	153
 152	3	136	151
 153	3	154	155
 154	4	154	156
 155	4	154	158
 156	2	155	157
 157	5	155	159
 158	2	157	160
 159	6	157	161
 160	5	160	162
 161	3	145	160
 162	3	163	164
 163	4	163	165
 164	4	163	167
 165	2	164	166
 166	5	164	168
 167	2	166	169
 168	6	166	170
 169	5	169	171
 170	3	154	169
 171	3	172	173
 172	4	172	174
 173	4	172	176
 174	2	173	175
 175	5	173	177
 176	2	175	178
 177	6	175	179
 178	5	178	180
 179	3	163	178
 180	1	7	181
 181	4	172	182

Angles

   1	7	2	1	3
   2	7	2	1	5
   3	4	3	1	5
   4	8	1	2	4
   5	6	1	2	6
   6	2	4	2	6
   7	5	2	4	7
   8	1	2	4	8
   9	1	7	4	8
  10	2	4	7	9
  11	7	11	10	12
  12	7	11	10	14
  13	4	12	10	14
  14	8	10	11	13
  15	6	10	11	15
  16	2	13	11	15
  17	5	11	13	16
  18	1	11	13	17
  19	1	16	13	17
  20	2	13	16	18
  21	10	2	1	16
  22	7	3	1	16
  23	7	5	1	16
  24	8	1	16	13
  25	6	1	16	18
  26	7	20	19	21
  27	7	20	19	23
  28	4	21	19	23
  29	8	19	20	22
  30	6	19	20	24
  31	2	22	20	24
  32	5	20	22	25
  33	1	20	22	26
  34	1	25	22	26
  35	2	22	25	27
  36	10	11	10	25
  37	7	12	10	25
  38	7	14	10	25
  39	8	10	25	22
  40	6	10	25	27
  41	7	29	28	30
  42	7	29	28	32
  43	4	30	28	32
  44	8	28	29	31
  45	6	28	29	33
  46	2	31	29	33
  47	5	29	31	34
  48	1	29	31	35
  49	1	34	31	35
  50	2	31	34	36
  51	10	20	19	34
  52	7	21	19	34
  53	7	23	19	34
  54	8	19	34	31
  55	6	19	34	36
  56	7	38	37	39
  57	7	38	37	41
  58	4	39	37	41
  59	8	37	38	40
  60	6	37	38	42
  61	2	40	38	42
  62	5	38	40	43
  63	1	38	40	44
  64	1	43	40	44
  65	2	40	43	45
  66	10	29	28	43
  67	7	30	28	43
  68	7	32	28	43
  69	8	28	43	40
  70	6	28	43	45
  71	7	47	46	48
  72	7	47	46	50
  73	4	48	46	50
  74	8	46	47	49
  75	6	46	47	51
  76	2	49	47	51
  77	5	47	49	52
  78	1	47	49	53
  79	1	52	49	53
  80	2	49	52	54
  81	10	38	37	52
  82	7	39	37	52
  83	7	41	37	52
  84	8	37	52	49
  85	6	37	52	54
  86	7	56	55	57
  87	7	56	55	59
  88	4	57	55	59
  89	8	55	56	58
  90	6	55	56	60
  91	2	58	56	60
  92	5	56	58	61
  93	1	56	58	62
  94	1	61	58	62
  95	2	58	61	63
  96	10	47	46	61
  97	7	48	46	61
  98	7	50	46	61
  99	8	46	61	58
 100	6	46	61	63
 101	7	65	64	66
 102	7	65	64	68
 103	4	66	64	68
 104	8	64	65	67
 105	6	64	65	69
 106	2	67	65	69
 107	5	65	67	70
 108	1	65	67	71
 109	1	70	67	71
 110	2	67	70	72
 111	10	56	55	70
 112	7	57	55	70
 113	7	59	55	70
 114	8	55	70	67
 115	6	55	70	72
 116	7	74	73	75
 117	7	74	73	77
 118	4	75	73	77
 119	8	73	74	76
 120	6	73	74	78
 121	2	76	74	78
 122	5	74	76	79
 123	1	74	76	80
 124	1	79	76	80
 125	2	76	79	81
 126	10	65	64	79
 127	7	66	64	79
 128	7	68	64	79
 129	8	64	79	76
 130	6	64	79	81
 131	7	83	82	84
 132	7	83	82	86
 133	4	84	82	86
 134	8	82	83	85
 135	6	82	83	87
 136	2	85	83	87
 137	5	83	85	88
 138	1	83	85	89
 139	1	88	85	89
 140	2	85	88	90
 141	10	74	73	88
 142	7	75	73	88
 143	7	77	73	88
 144	8	73	88	85
 145	6	73	88	90
 146	7	92	91	93
 147	7	92	91	95
 148	4	93	91	95
 149	8	91	92	94
 150	6	91	92	96
 151	2	94	92	96
 152	5	92	94	97
 153	1	92	94	98
 154	1	97	94	98
 155	2	94	97	99
 156	10	83	82	97
 157	7	84	82	97
 158	7	86	82	97
 159	8	82	97	94
 160	6	82	97	99
 161	7	101	100	102
 162	7	101	100	104
 163	4	102	100	104
 164	8	100	101	103
 165	6	100	101	105
 166	2	103	101	105
 167	5	101	103	106
 168	1	101	103	107
 169	1	106	103	107
 170	2	103	106	108
 171	10	92	91	106
 172	7	93	91	106
 173	7	95	91	106
 174	8	91	106	103
 175	6	91	106	108
 176	7	110	109	111
 177	7	110	109	113
 178	4	111	109	113
 179	8	109	110	112
 180	6	109	110	114
 181	2	112	110	114
 182	5	110	112	115
 183	1	110	112	116
 184	1	115	112	116
 185	2	112	115	117
 186	10	101	100	115
 187	7	102	100	115
 188	7	104	100	115
 189	8	100	115	112
 190	6	100	115	117
 191	7	119	118	120
 192	7	119	118	122
 193	4	120	118	122
 194	8	118	119	121
 195	6	118	119	123
 196	2	121	119	123
 197	5	119	121	124
 198	1	119	121	125
 199	1	124	121	125
 200	2	121	124	126
 201	10	110	109	124
 202	7	111	109	124
 203	7	113	109	124
 204	8	109	124	121
 205	6	109	124	126
 206	7	128	127	129
 207	7	128	127	131
 208	4	129	127	131
 209	8	127	128	130
 210	6	127	128	132
 211	2	130	128	132
 212	5	128	130	133
 213	1	128	130	134
 214	1	133	130	134
 215	2	130	133	135
 216	10	119	118	133
 217	7	120	118	133
 218	7	122	118	133
 219	8	118	133	130
 220	6	118	133	135
 221	7	137	136	138
 222	7	137	136	140
 223	4	138	136	140
 224	8	136	137	139
 225	6	136	137	141
 226	2	139	137	141
 227	5	137	139	142
 228	1	137	139	143
 229	1	142	139	143
 230	2	139	142	144
 231	10	128	127	142
 232	7	129	127	142
 233	7	131	127	142
 234	8	127	142	139
 235	6	127	142	144
 236	7	146	145	147
 237	7	146	145	149
 238	4	147	145	149
 239	8	145	146	148
 240	6	145	146	150
 241	2	148	146	150
 242	5	146	148	151
 243	1	146	148	152
 244	1	151	148	152
 245	2	148	151	153
 246	10	137	136	151
 247	7	138	136	151
 248	7	140	136	151
 249	8	136	151	148
 250	6	136	151	153
 251	7	155	154	156
 252	7	155	154	158
 253	4	156	154	158
 254	8	154	155	157
 255	6	154	155	159
 256	2	157	155	159
 257	5	155	157	160
 258	1	155	157	161
 259	1	160	157	161
 260	2	157	160	162
 261	10	146	145	160
 262	7	147	145	160
 263	7	149	145	160
 264	8	145	160	157
 265	6	145	160	162
 266	7	164	163	165
 267	7	164	163	167
 268	4	165	163	167
 269	8	163	164	166
 270	6	163	164	168
 271	2	166	164	168
 272	5	164	166	169
 273	1	164	166	170
 274	1	169	166	170
 275	2	166	169	171
 276	10	155	154	169
 277	7	156	154	169
 278	7	158	154	169
 279	8	154	169	166
 280	6	154	169	171
 281	7	173	172	174
 282	7	173	172	176
 283	4	174	172	176
 284	8	172	173	175
 285	6	172	173	177
 286	2	175	173	177
 287	5	173	175	178
 288	1	173	175	179
 289	1	178	175	179
 290	2	175	178	180
 291	10	164	163	178
 292	7	165	163	178
 293	7	167	163	178
 294	8	163	178	175
 295	6	163	178	180
 296	9	4	7	181
 297	3	9	7	181
 298	7	173	172	182
 299	4	174	172	182
 300	4	176	172	182

Dihedrals

   1	4	3	1	2	4
   2	1	3	1	2	6
   3	4	5	1	2	4
   4	1	5	1	2	6
   5	2	1	2	4	7
   6	2	1	2	4	8
   7	2	6	2	4	7
   8	3	6	2	4	8
   9	2	2	4	7	9
  10	3	8	4	7	9
  11	4	12	10	11	13
  12	1	12	10	11	15
  13	4	14	10	11	13
  14	1	14	10	11	15
  15	2	10	11	13	16
  16	2	10	11	13	17
  17	2	15	11	13	16
  18	3	15	11	13	17
  19	2	11	13	16	18
  20	3	17	13	16	18
  21	4	4	2	1	16
  22	4	6	2	1	16
  23	2	1	16	13	11
  24	2	1	16	13	17
  25	4	2	1	16	13
  26	4	2	1	16	18
  27	4	3	1	16	13
  28	1	3	1	16	18
  29	4	5	1	16	13
  30	1	5	1	16	18
  31	4	21	19	20	22
  32	1	21	19	20	24
  33	4	23	19	20	22
  34	1	23	19	20	24
  35	2	19	20	22	25
  36	2	19	20	22	26
  37	2	24	20	22	25
  38	3	24	20	22	26
  39	2	20	22	25	27
  40	3	26	22	25	27
  41	4	13	11	10	25
  42	4	15	11	10	25
  43	2	10	25	22	20
  44	2	10	25	22	26
  45	4	11	10	25	22
  46	4	11	10	25	27
  47	4	12	10	25	22
  48	1	12	10	25	27
  49	4	14	10	25	22
  50	1	14	10	25	27
  51	4	30	28	29	31
  52	1	30	28	29	33
  53	4	32	28	29	31
  54	1	32	28	29	33
  55	2	28	29	31	34
  56	2	28	29	31	35
  57	2	33	29	31	34
  58	3	33	29	31	35
  59	2	29	31	34	36
  60	3	35	31	34	36
  61	4	22	20	19	34
  62	4	24	20	19	34
  63	2	19	34	31	29
  64	2	19	34	31	35
  65	4	20	19	34	31
  66	4	20	19	34	36
  67	4	21	19	34	31
  68	1	21	19	34	36
  69	4	23	19	34	31
  70	1	23	19	34	36
  71	4	39	37	38	40
  72	1	39	37	38	42
  73	4	41	37	38	40
  74	1	41	37	38	42
  75	2	37	38	40	43
  76	2	37	38	40	44
  77	2	42	38	40	43
  78	3	42	38	40	44
  79	2	38	40	43	45
  80	3	44	40	43	45
  81	4	31	29	28	43
  82	4	33	29	28	43
  83	2	28	43	40	38
  84	2	28	43	40	44
  85	4	29	28	43	40
  86	4	29	28	43	45
  87	4	30	28	43	40
  88	1	30	28	43	45
  89	4	32	28	43	40
  90	1	32	28	43	45
  91	4	48	46	47	49
  92	1	48	46	47	51
  93	4	50	46	47	49
  94	1	50	46	47	51
  95	2	46	47	49	52
  96	2	46	47	49	53
  97	2	51	47	49	52
  98	3	51	47	49	53
  99	2	47	49	52	54
 100	3	53	49	52	54
 101	4	40	38	37	52
 102	4	42	38	37	52
 103	2	37	52	49	47
 104	2	37	52	49	53
 105	4	38	37	52	49
 106	4	38	37	52	54
 107	4	39	37	52	49
 108	1	39	37	52	54
 109	4	41	37	52	49
 110	1	41	37	52	54
 111	4	57	55	56	58
 112	1	57	55	56	60
 113	4	59	55	56	58
 114	1	59	55	56	60
 115	2	55	56	58	61
 116	2	55	56	58	62
 117	2	60	56	58	61
 118	3	60	56	58	62
 119	2	56	58	61	63
 120	3	62	58	61	63
 121	4	49	47	46	61
 122	4	51	47	46	61
 123	2	46	61	58	56
 124	2	46	61	58	62
 125	4	47	46	61	58
 126	4	47	46	61	63
 127	4	48	46	61	58
 128	1	48	46	61	63
 129	4	50	46	61	58
 130	1	50	46	61	63
 131	4	66	64	65	67
 132	1	66	64	65	69
 133	4	68	64	65	67
 134	1	68	64	65	69
 135	2	64	65	67	70
 136	2	64	65	67	71
 137	2	69	65	67	70
 138	3	69	65	67	71
 139	2	65	67	70	72
 140	3	71	67	70	72
 141	4	58	56	55	70
 142	4	60	56	55	70
 143	2	55	70	67	65
 144	2	55	70	67	71
 145	4	56	55	70	67
 146	4	56	55	70	72
 147	4	57	55	70	67
 148	1	57	55	70	72
 149	4	59	55	70	67
 150	1	59	55	70	72
 151	4	75	73	74	76
 152	1	75	73	74	78
 153	4	77	73	74	76
 154	1	77	73	74	78
 155	2	73	74	76	79
 156	2	73	74	76	80
 157	2	78	74	76	79
 158	3	78	74	76	80
 159	2	74	76	79	81
 160	3	80	76	79	81
 161	4	67	65	64	79
 162	4	69	65	64	79
 163	2	64	79	76	74
 164	2	64	79	76	80
 165	4	65	64	79	76
 166	4	65	64	79	81
 167	4	66	64	79	76
 168	1	66	64	79	81
 169	4	68	64	79	76
 170	1	68	64	79	81
 171	4	84	82	83	85
 172	1	84	82	83	87
 173	4	86	82	83	85
 174	1	86	82	83	87
 175	2	82	83	85	88
 176	2	82	83	85	89
 177	2	87	83	85	88
 178	3	87	83	85	89
 179	2	83	85	88	90
 180	3	89	85	88	90
 181	4	76	74	73	88
 182	4	78	74	73	88
 183	2	73	88	85	83
 184	2	73	88	85	89
 185	4	74	73	88	85
 186	4	74	73	88	90
 187	4	75	73	88	85
 188	1	75	73	88	90
 189	4	77	73	88	85
 190	1	77	73	88	90
 191	4	93	91	92	94
 192	1	93	91	92	96
 193	4	95	91	92	94
 194	1	95	91	92	96
 195	2	91	92	94	97
 196	2	91	92	94	98
 197	2	96	92	94	97
 198	3	96	92	94	98
 199	2	92	94	97	99
 200	3	98	94	97	99
 201	4	85	83	82	97
 202	4	87	83	82	97
 203	2	82	97	94	92
 204	2	82	97	94	98
 205	4	83	82	97	94
 206	4	83	82	97	99
 207	4	84	82	97	94
 208	1	84	82	97	99
 209	4	86	82	97	94
 210	1	86	82	97	99
 211	4	102	100	101	103
 212	1	102	100	101	105
 213	4	104	100	101	103
 214	1	104	100	101	105
 215	2	100	101	103	106
 216	2	100	101	103	107
 217	2	105	101	103	106
 218	3	105	101	103	107
 219	2	101	103	106	108
 220	3	107	103	106	108
 221	4	94	92	91	106
 222	4	96	92	91	106
 223	2	91	106	103	101
 224	2	91	106	103	107
 225	4	92	91	106	103
 226	4	92	91	106	108
 227	4	93	91	106	103
 228	1	93	91	106	108
 229	4	95	91	106	103
 230	1	95	91	106	108
 231	4	111	109	110	112
 232	1	111	109	110	114
 233	4	113	109	110	112
 234	1	113	109	110	114
 235	2	109	110	112	115
 236	2	109	110	112	116
 237	2	114	110	112	115
 238	3	114	110	112	116
 239	2	110	112	115	117
 240	3	116	112	115	117
 241	4	103	101	100	115
 242	4	105	101	100	115
 243	2	100	115	112	110
 244	2	100	115	112	116
 245	4	101	100	115	112
 246	4	101	100	115	117
 247	4	102	100	115	112
 248	1	102	100	115	117
 249	4	104	100	115	112
 250	1	104	100	115	117
 251	4	120	118	119	121
 252	1	120	118	119	123
 253	4	122	118	119	121
 254	1	122	118	119	123
 255	2	118	119	121	124
 256	2	118	119	121	125
 257	2	123	119	121	124
 258	3	123	119	121	125
 259	2	119	121	124	126
 260	3	125	121	124	126
 261	4	112	110	109	124
 262	4	114	110	109	124
 263	2	109	124	121	119
 264	2	109	124	121	125
 265	4	110	109	124	121
 266	4	110	109	124	126
 267	4	111	109	124	121
 268	1	111	109	124	126
 269	4	113	109	124	121
 270	1	113	109	124	126
 271	4	129	127	128	130
 272	1	129	127	128	132
 273	4	131	127	128	130
 274	1	131	127	128	132
 275	2	127	128	130	133
 276	2	127	128	130	134
 277	2	132	128	130	133