pySIMM System Object

164 atoms
163 bonds
270 angles
354 dihedrals
36 impropers

7 atom types
6 bond types
10 angle types
4 dihedral types
2 improper types

-84.368322 84.368322 xlo xhi
-84.368322 84.368322 ylo yhi
-84.368322 84.368322 zlo zhi

Masses

   1	12.01	# c3
   2	12.01	# c
   3	1.008	# hc
   4	14.01	# n
   5	16.0	# o
   6	1.008	# hn
   7	1.008	# h5

Pair Coeffs

   1	0.1094	3.3996695084235347	# c3
   2	0.086	3.3996695084235347	# c
   3	0.0157	2.649532787749369	# hc
   4	0.17	3.249998523775958	# n
   5	0.21	2.959921901149463	# o
   6	0.0157	1.069078461768407	# hn
   7	0.015	2.421462715905442	# h5

Bond Coeffs

   1	319.7	1.1051	# c,h5
   2	427.6	1.3789	# c,n
   3	313.0	1.5241	# c,c3
   4	330.6	1.0969	# c3,hc
   5	637.7	1.2183	# c,o
   6	403.2	1.0129	# hn,n

Angle Coeffs

   1	48.33	117.55	# c,n,hn
   2	74.22	123.05	# n,c,o
   3	53.7	123.65	# h5,c,o
   4	39.4	107.58	# hc,c3,hc
   5	63.74	127.08	# c,n,c
   6	67.4	123.2	# c3,c,o
   7	46.93	108.77	# c,c3,hc
   8	66.79	115.18	# c3,c,n
   9	51.42	112.16	# h5,c,n
  10	63.38	111.63	# c,c3,c

Dihedral Coeffs

   1	3	0.8	1	0	0.0	2	0	0.08	3	180	# hc,c3,c,o
   2	1	2.5	2	180	# X,c,n,X
   3	2	2.5	2	180	2.0	1	0	# hn,n,c,o
   4	1	0.0	2	180	# X,c,c3,X

Improper Coeffs

   1	10.5	-1	2	# c,X,X,o
   2	1.1	-1	2	# n,X,X,hn

Atoms

   1	1	1	-0.041892	-7.62587	3.65475	2.11333
   2	1	2	0.591489	-7.76413	2.46072	1.19528
   3	1	3	0.048074	-8.62327	3.97108	2.44187
   4	1	4	-0.651929	-6.85782	1.4561	1.35835
   5	1	3	0.049056	-7.04367	3.39124	3.00393
   6	1	5	-0.529683	-8.66458	2.38612	0.386883
   7	1	2	0.758009	-6.74774	0.30558	0.64223
   8	1	6	0.367145	-6.0974	1.59822	2.01041
   9	1	5	-0.590269	-5.88293	-0.501307	0.937171
  10	1	1	-0.041892	-6.13267	7.12516	-0.551569
  11	1	2	0.591489	-7.50285	6.48847	-0.388296
  12	1	3	0.048074	-6.25652	8.14688	-0.928599
  13	1	4	-0.651929	-7.7231	5.4199	0.437182
  14	1	3	0.049056	-5.57727	7.19035	0.38696
  15	1	5	-0.529683	-8.42093	6.82211	-1.10429
  16	1	2	0.758009	-6.94946	4.79074	1.37695
  17	1	6	0.367145	-8.62808	5.00603	0.271911
  18	1	5	-0.590269	-5.89012	5.2461	1.75925
  19	1	1	-0.041892	-4.7312	4.3667	-3.85671
  20	1	2	0.591489	-5.71585	5.51155	-3.9228
  21	1	3	0.048074	-4.87029	3.82476	-2.91778
  22	1	4	-0.651929	-5.95549	6.27745	-2.81799
  23	1	3	0.049056	-4.93153	3.66657	-4.67543
  24	1	5	-0.529683	-6.40546	5.7093	-4.8985
  25	1	2	0.758009	-5.37399	6.3159	-1.57655
  26	1	6	0.367145	-6.75333	6.87847	-2.9522
  27	1	5	-0.590269	-4.40244	5.64638	-1.28875
  28	1	1	-0.041892	-0.226944	5.17413	-4.16743
  29	1	2	0.591489	-0.993877	3.9967	-3.58017
  30	1	3	0.048074	0.80826	4.86437	-4.35013
  31	1	4	-0.651929	-2.36074	3.99349	-3.52835
  32	1	3	0.049056	-0.642556	5.47084	-5.13614
  33	1	5	-0.529683	-0.435902	2.97307	-3.24193
  34	1	2	0.758009	-3.31194	4.86726	-3.97861
  35	1	6	0.367145	-2.73415	3.19662	-3.04397
  36	1	5	-0.590269	-3.00795	5.86035	-4.60921
  37	1	1	-0.041892	-0.603315	8.9547	-1.58284
  38	1	2	0.591489	-1.18242	8.63708	-2.94764
  39	1	3	0.048074	0.483482	8.81785	-1.58461
  40	1	4	-0.651929	-0.969398	7.42178	-3.53881
  41	1	3	0.049056	-0.803919	10.0042	-1.33831
  42	1	5	-0.529683	-1.87138	9.43528	-3.54303
  43	1	2	0.758009	-0.203721	6.33878	-3.19567
  44	1	6	0.367145	-1.57428	7.28385	-4.34008
  45	1	5	-0.590269	0.609845	6.40578	-2.29728
  46	1	1	-0.041892	-1.9965	6.01009	1.68144
  47	1	2	0.591489	-0.61301	6.44446	1.23342
  48	1	3	0.048074	-1.93763	5.81556	2.75909
  49	1	4	-0.651929	-0.424366	7.35487	0.235416
  50	1	3	0.049056	-2.76389	6.77486	1.55321
  51	1	5	-0.529683	0.383225	5.99051	1.75341
  52	1	2	0.758009	-1.27843	8.08522	-0.544008
  53	1	6	0.367145	0.543005	7.39417	-0.0398544
  54	1	5	-0.590269	-2.47793	8.11358	-0.359425
  55	1	1	-0.041892	-2.92653	1.69958	0.633964
  56	1	2	0.591489	-3.57878	2.63293	1.64218
  57	1	3	0.048074	-1.8551	1.90249	0.535039
  58	1	4	-0.651929	-3.22428	3.94672	1.72316
  59	1	3	0.049056	-3.03053	0.675597	0.999364
  60	1	5	-0.529683	-4.39113	2.23499	2.45522
  61	1	2	0.758009	-2.38895	4.72809	0.973451
  62	1	6	0.367145	-3.73115	4.43696	2.44054
  63	1	5	-0.590269	-1.82211	4.29668	-0.0132913
  64	1	1	-0.041892	-2.51878	0.369459	-4.03941
  65	1	2	0.591489	-3.46676	0.988888	-3.03803
  66	1	3	0.048074	-2.60567	0.920349	-4.98294
  67	1	4	-0.651929	-2.99717	1.2022	-1.7646
  68	1	3	0.049056	-1.47473	0.445874	-3.72549
  69	1	5	-0.529683	-4.56069	1.36089	-3.39341
  70	1	2	0.758009	-3.63136	1.80482	-0.701514
  71	1	6	0.367145	-2.09402	0.789812	-1.55784
  72	1	5	-0.590269	-4.72685	2.32248	-0.803257
  73	1	1	-0.041892	-1.78496	-3.38468	-1.54745
  74	1	2	0.591489	-1.85546	-2.06089	-2.26688
  75	1	3	0.048074	-1.38908	-4.1444	-2.23131
  76	1	4	-0.651929	-2.61795	-2.05568	-3.40372
  77	1	3	0.049056	-1.10618	-3.32714	-0.689365
  78	1	5	-0.529683	-1.25359	-1.0772	-1.88818
  79	1	2	0.758009	-2.94825	-1.06424	-4.28087
  80	1	6	0.367145	-3.06059	-2.92473	-3.66606
  81	1	5	-0.590269	-3.65291	-1.38324	-5.21046
  82	1	1	-0.041892	-3.74259	-2.73465	2.43932
  83	1	2	0.591489	-3.23077	-2.55635	1.03214
  84	1	3	0.048074	-4.10166	-1.77517	2.8299
  85	1	4	-0.651929	-3.67694	-3.45704	0.104449
  86	1	3	0.049056	-4.56225	-3.46088	2.48021
  87	1	5	-0.529683	-2.37509	-1.73759	0.775686
  88	1	2	0.758009	-3.18476	-3.78713	-1.1231
  89	1	6	0.367145	-4.49898	-3.98654	0.335259
  90	1	5	-0.590269	-3.86063	-4.51048	-1.82016
  91	1	1	-0.041892	0.216122	-3.52801	4.58889
  92	1	2	0.591489	-0.735404	-2.3479	4.68094
  93	1	3	0.048074	1.19202	-3.18607	4.94807
  94	1	4	-0.651929	-1.91352	-2.3144	3.98901
  95	1	3	0.049056	0.341074	-3.84399	3.54706
  96	1	5	-0.529683	-0.438515	-1.33942	5.28325
  97	1	2	0.758009	-2.55768	-3.24973	3.2263
  98	1	6	0.367145	-2.36261	-1.42131	4.07388
  99	1	5	-0.590269	-2.08513	-4.34523	2.9995
 100	1	1	-0.041892	2.21729	-7.55777	5.17181
 101	1	2	0.591489	1.77247	-6.11377	5.05824
 102	1	3	0.048074	1.38622	-8.2375	4.95455
 103	1	4	-0.651929	0.491602	-5.85363	5.4694
 104	1	3	0.049056	2.52998	-7.7207	6.20555
 105	1	5	-0.529683	2.52943	-5.22474	4.72997
 106	1	2	0.758009	-0.247749	-4.70365	5.43627
 107	1	6	0.367145	-0.0232269	-6.60714	5.88613
 108	1	5	-0.590269	-1.32682	-4.74759	5.98954
 109	1	1	-0.041892	6.56611	-8.85094	5.85032
 110	1	2	0.591489	5.05767	-8.76968	5.70419
 111	1	3	0.048074	6.99184	-7.85657	6.01027
 112	1	4	-0.651929	4.59313	-8.11956	4.59512
 113	1	3	0.049056	6.79274	-9.44114	6.7464
 114	1	5	-0.529683	4.30218	-9.30151	6.48882
 115	1	2	0.758009	3.33705	-7.80879	4.16951
 116	1	6	0.367145	5.28417	-7.79158	3.94222
 117	1	5	-0.590269	3.23446	-7.51974	2.99563
 118	1	1	-0.041892	7.82933	-7.2423	1.70096
 119	1	2	0.591489	7.48951	-7.55604	3.14114
 120	1	3	0.048074	6.93836	-6.84708	1.19982
 121	1	4	-0.651929	7.5561	-8.87524	3.51374
 122	1	3	0.049056	8.13723	-8.15119	1.17057
 123	1	5	-0.529683	7.00156	-6.71312	3.8607
 124	1	2	0.758009	7.19706	-9.54992	4.65359
 125	1	6	0.367145	7.94368	-9.51518	2.83988
 126	1	5	-0.590269	7.34685	-10.7497	4.6212
 127	1	1	-0.041892	8.70673	-2.50401	2.22646
 128	1	2	0.591489	9.34776	-3.7765	1.70822
 129	1	3	0.048074	9.15659	-2.27694	3.19926
 130	1	4	-0.651929	8.58767	-4.91536	1.83202
 131	1	3	0.049056	7.63735	-2.6433	2.40796
 132	1	5	-0.529683	10.4741	-3.78607	1.26493
 133	1	2	0.758009	8.94936	-6.22642	1.63227
 134	1	6	0.367145	7.63586	-4.76924	2.11799
 135	1	5	-0.590269	10.085	-6.596	1.43142
 136	1	1	-0.041892	5.79453	-0.417824	-0.577445
 137	1	2	0.591489	6.78257	-1.36878	0.0789344
 138	1	3	0.048074	4.83752	-0.93841	-0.623407
 139	1	4	-0.651929	7.95406	-0.821984	0.52914
 140	1	3	0.049056	5.66138	0.472512	0.0481735
 141	1	5	-0.529683	6.52295	-2.54261	0.251006
 142	1	2	0.758009	8.97034	-1.32726	1.29298
 143	1	6	0.367145	8.18362	0.0977085	0.185538
 144	1	5	-0.590269	9.86872	-0.544956	1.51305
 145	1	1	-0.041892	3.54276	0.593231	-4.50729
 146	1	2	0.591489	4.08756	0.121273	-3.17782
 147	1	3	0.048074	4.08093	1.49592	-4.81982
 148	1	4	-0.651929	5.43852	0.270233	-2.99837
 149	1	3	0.049056	2.49005	0.873132	-4.41668
 150	1	5	-0.529683	3.35688	-0.33614	-2.32988
 151	1	2	0.758009	6.28472	0.0174004	-1.95197
 152	1	6	0.367145	5.95466	0.631339	-3.78483
 153	1	5	-0.590269	7.42568	0.390416	-2.11214
 154	1	1	-0.041892	1.06208	-1.47475	-4.32948
 155	1	2	0.591489	1.41462	-1.36965	-5.81012
 156	1	3	0.048074	0.178376	-2.11182	-4.22076
 157	1	4	-0.651929	2.68749	-1.04371	-6.18668
 158	1	3	0.049056	0.834977	-0.49157	-3.90477
 159	1	5	-0.529683	0.650622	-1.74472	-6.66963
 160	1	2	0.758009	3.75903	-0.478583	-5.5571
 161	1	6	0.367145	2.90233	-1.34058	-7.12363
 162	1	5	-0.590269	4.81713	-0.523459	-6.14299
 163	1	7	0	-7.54283	0.144832	-0.108487
 164	1	3	0	1.88241	-1.93993	-3.77099

Velocities

   1	0.00135309	-0.000506538	0.000191738
   2	0.00122413	-0.000357138	7.51998e-05
   3	0.00141185	-0.000334294	0.000519406
   4	0.000731614	-0.000803242	7.39595e-05
   5	0.00176326	-0.000474757	-0.000140454
   6	0.00151336	0.00043415	-0.000287864
   7	0.000648045	-0.00020745	-0.000809694
   8	0.000709892	-0.00100137	0.000136367
   9	0.00183805	0.000514399	-0.00242431
  10	0.00024329	0.000173972	0.000744508
  11	0.000224821	0.000327631	0.00118352
  12	0.000128636	0.000363693	0.00105176
  13	0.000686553	-9.22913e-05	0.000875009
  14	0.000619046	-9.82372e-05	0.000441359
  15	-0.000200411	0.00103839	0.00190672
  16	0.00136031	-0.000694413	-0.000200393
  17	0.000278727	0.000394392	0.001429
  18	0.0018806	-0.00111072	-0.00109472
  19	-0.000439401	0.00126366	-0.000827724
  20	-0.000128892	0.00162102	-0.000274026
  21	-0.000228327	0.00104079	-0.000960849
  22	-0.00025745	0.00096001	0.000215888
  23	-0.000797212	0.00160281	-0.000945021
  24	-0.00010115	0.00222048	-9.67823e-05
  25	-1.07766e-06	0.000631047	0.000147393
  26	-0.000426831	0.000885415	0.000579366
  27	0.00051077	0.000872971	-0.000620213
  28	8.87884e-05	-0.000676621	1.86279e-05
  29	-0.000697269	0.000316343	0.000926294
  30	-0.000128593	-0.00137696	0.000225726
  31	-0.000720251	0.000808062	9.18466e-05
  32	0.000273392	-0.0010433	-0.000274618
  33	-0.00119405	0.000600664	0.00270655
  34	-0.000269004	0.000661843	-0.00118128
  35	-0.00110298	0.00136574	0.000732098
  36	0.000271079	-6.96053e-05	-0.00221295
  37	0.000287936	-0.000305993	-0.000774662
  38	-0.000847446	-0.000827925	-0.000215947
  39	0.000177297	-0.000662768	-0.00136022
  40	-0.000726608	-0.000842375	-0.00015032
  41	0.000796958	-0.000175665	-0.0011747
  42	-0.00239333	-0.00160245	0.000567335
  43	0.000592532	-8.03027e-05	-0.000708723
  44	-0.00163446	-0.00155198	0.000545678
  45	0.00153119	0.000809296	-0.00156892
  46	-0.00095149	4.68907e-05	-0.000468651
  47	-0.000719703	0.00030118	0.000225874
  48	-0.00164299	0.000902464	-0.000278108
  49	-2.23934e-05	0.000388078	0.000311475
  50	-0.00121367	-0.000417877	-0.00155983
  51	-0.000988154	0.000544441	0.00100773
  52	0.000307365	0.00024354	-0.000275414
  53	0.000290537	0.00104296	0.00150421
  54	0.00016956	-0.000470992	-0.00119726
  55	-0.000198913	-0.000838049	-0.000654433
  56	0.000338479	-0.00113048	-4.57732e-05
  57	-0.000262384	-0.000733182	-0.00119464
  58	0.000376468	-0.00111455	0.000337362
  59	0.000213403	-0.00084981	-0.000636299
  60	0.000818575	-0.00149404	0.000281191
  61	0.000107651	-0.000790421	0.000330525
  62	0.000362823	-0.00129667	0.000476509
  63	0.000272246	-0.000632269	0.000376518
  64	0.000336579	-9.2965e-06	-0.00057729
  65	-0.000174996	-0.000163541	-0.000874189
  66	0.000620389	3.7761e-05	-0.000577613
  67	-0.000754818	-0.000923429	-0.000533006
  68	0.000190879	0.000304471	-0.000124647
  69	0.000246064	0.000619116	-0.00134238
  70	-0.000674747	-0.000947433	-0.000481184
  71	-0.000895077	-0.00116581	-0.000419051
  72	-0.000291961	-0.000117241	-0.000535649
  73	-0.000335634	0.00014502	0.000162237
  74	-0.000201321	5.18171e-06	-9.72334e-05
  75	-0.000159725	6.57673e-05	0.00035325
  76	0.000363544	-7.97826e-05	-0.000437686
  77	-0.00042873	0.000303925	0.000214581
  78	-0.000110838	6.00965e-05	-0.000132795
  79	0.000989166	-0.00018949	-0.000900381
  80	0.000571193	-0.000114527	-0.000623801
  81	0.00191256	-0.000424538	-0.00147228
  82	2.19259e-07	-0.000102063	0.000329339
  83	-0.000215821	-0.000293686	0.000240855
  84	-8.46015e-05	-3.45017e-05	9.51497e-05
  85	-0.000221235	-0.000288177	0.000280922
  86	4.73983e-05	-0.000168098	0.000600679
  87	-0.000223129	-0.000284351	0.000131667
  88	-0.000276708	-0.000138591	0.000184331
  89	-3.49498e-05	-0.000571446	0.000349971
  90	0.000309361	-0.00113841	0.000716022
  91	-1.193e-05	0.00107889	0.00138327
  92	-0.000638972	0.000734733	0.00118184
  93	-0.000391771	0.00114933	0.00226232
  94	-0.000442028	0.000362185	0.000833217
  95	0.000766919	0.00163325	0.00129288
  96	-0.00134871	0.000792656	0.00143446
  97	0.000211521	0.000235819	0.000346142
  98	-0.0009596	6.98168e-05	0.00100873
  99	0.000889301	0.000622091	9.81266e-05
 100	-0.000387302	-0.000139067	-0.000338279
 101	-0.000462964	-2.45907e-05	-0.000357669
 102	-0.000299984	2.29972e-05	-0.00130367
 103	-0.000422405	0.000225902	-0.000167162
 104	-0.00105994	-0.00082804	-0.000230222
 105	-0.000710076	-3.47581e-05	-0.00101988
 106	-0.000289099	0.000519509	0.000437578
 107	-0.00058712	0.000253111	-0.000354077
 108	-0.000238208	0.00058673	0.000460321
 109	0.000851008	0.000729826	-0.000371539
 110	0.00069572	0.000475664	0.000492386
 111	0.000767255	0.000907047	-0.00104943
 112	0.000292473	0.000551827	0.000759249
 113	0.00147936	0.00115758	-0.000202929
 114	0.000989095	0.000149824	0.000625784
 115	0.000264547	9.63095e-06	0.000384795
 116	0.00021762	0.000798328	0.000776751
 117	0.000668996	-0.000687712	0.000233504
 118	-0.000439095	1.79186e-05	-0.00118845
 119	-0.000797266	-3.07388e-05	-0.00126917
 120	-0.000451734	-0.000636181	-0.00161576
 121	-0.000269511	7.1332e-05	-0.000844623
 122	0.000349114	8.69917e-05	-0.000886384
 123	-0.00117017	-1.90741e-06	-0.00151428
 124	0.000308921	0.000372149	-0.000505436
 125	-0.000186835	-6.26922e-05	-0.00064331
 126	0.00111798	0.000486388	8.11023e-05
 127	-0.000500636	0.000285125	0.00110786
 128	-0.00122058	0.000463167	-0.000146014
 129	0.000151362	-0.000277437	0.000932429
 130	-0.00125116	0.000413907	-0.000399531
 131	-0.000488658	0.000685865	0.00144533
 132	-0.00183925	0.000779123	-0.0018424
 133	-0.000918982	0.000564242	-0.000702507
 134	-0.00126993	0.000280432	-0.00052047
 135	-0.000447677	0.000924005	0.00115995
 136	0.000105318	-0.00197367	-0.000395074
 137	0.000285617	-0.00146227	8.98198e-05
 138	0.000491824	-0.00268035	-0.000634551
 139	0.000213687	-0.000833317	-0.000254292
 140	-0.000602708	-0.00213073	-0.000148488
 141	0.000255543	-0.00124481	0.00139653
 142	-0.000290828	0.000270517	0.00118705
 143	0.000305672	-0.00118617	-0.0012343
 144	-0.000749264	0.000639084	0.00150713
 145	-0.000305015	0.000473227	0.00078865
 146	0.000116956	5.05795e-05	0.000501356
 147	-0.000847069	0.000848679	0.00107749
 148	0.000164981	-0.00058499	8.08112e-05
 149	-0.000391738	0.000174569	0.00128222
 150	0.000324351	0.000115349	0.000777973
 151	0.000237677	-0.00122788	-0.000144876
 152	0.000177072	-0.000484235	7.83313e-05
 153	0.000363339	-0.00133479	7.54392e-05
 154	0.000370591	0.000244273	0.00022273
 155	0.000120726	0.000510682	0.000240498
 156	0.000863834	-0.000210354	0.000254132
 157	0.00013172	0.000298442	0.000296684
 158	-0.00032805	-1.637e-05	0.000376506
 159	-0.000124878	0.000530946	0.000526252
 160	-5.55557e-05	0.000829561	0.000265874
 161	0.000351881	-0.000310092	0.000482611
 162	0.000262583	0.00104334	0.000632412
 163	8.92764e-05	-0.00015655	-0.000371351
 164	0.000838634	0.000654098	-5.33736e-05

Bonds

   1	3	1	2
   2	4	1	3
   3	4	1	5
   4	2	2	4
   5	5	2	6
   6	2	4	7
   7	6	4	8
   8	5	7	9
   9	3	10	11
  10	4	10	12
  11	4	10	14
  12	2	11	13
  13	5	11	15
  14	2	13	16
  15	6	13	17
  16	5	16	18
  17	3	1	16
  18	3	19	20
  19	4	19	21
  20	4	19	23
  21	2	20	22
  22	5	20	24
  23	2	22	25
  24	6	22	26
  25	5	25	27
  26	3	10	25
  27	3	28	29
  28	4	28	30
  29	4	28	32
  30	2	29	31
  31	5	29	33
  32	2	31	34
  33	6	31	35
  34	5	34	36
  35	3	19	34
  36	3	37	38
  37	4	37	39
  38	4	37	41
  39	2	38	40
  40	5	38	42
  41	2	40	43
  42	6	40	44
  43	5	43	45
  44	3	28	43
  45	3	46	47
  46	4	46	48
  47	4	46	50
  48	2	47	49
  49	5	47	51
  50	2	49	52
  51	6	49	53
  52	5	52	54
  53	3	37	52
  54	3	55	56
  55	4	55	57
  56	4	55	59
  57	2	56	58
  58	5	56	60
  59	2	58	61
  60	6	58	62
  61	5	61	63
  62	3	46	61
  63	3	64	65
  64	4	64	66
  65	4	64	68
  66	2	65	67
  67	5	65	69
  68	2	67	70
  69	6	67	71
  70	5	70	72
  71	3	55	70
  72	3	73	74
  73	4	73	75
  74	4	73	77
  75	2	74	76
  76	5	74	78
  77	2	76	79
  78	6	76	80
  79	5	79	81
  80	3	64	79
  81	3	82	83
  82	4	82	84
  83	4	82	86
  84	2	83	85
  85	5	83	87
  86	2	85	88
  87	6	85	89
  88	5	88	90
  89	3	73	88
  90	3	91	92
  91	4	91	93
  92	4	91	95
  93	2	92	94
  94	5	92	96
  95	2	94	97
  96	6	94	98
  97	5	97	99
  98	3	82	97
  99	3	100	101
 100	4	100	102
 101	4	100	104
 102	2	101	103
 103	5	101	105
 104	2	103	106
 105	6	103	107
 106	5	106	108
 107	3	91	106
 108	3	109	110
 109	4	109	111
 110	4	109	113
 111	2	110	112
 112	5	110	114
 113	2	112	115
 114	6	112	116
 115	5	115	117
 116	3	100	115
 117	3	118	119
 118	4	118	120
 119	4	118	122
 120	2	119	121
 121	5	119	123
 122	2	121	124
 123	6	121	125
 124	5	124	126
 125	3	109	124
 126	3	127	128
 127	4	127	129
 128	4	127	131
 129	2	128	130
 130	5	128	132
 131	2	130	133
 132	6	130	134
 133	5	133	135
 134	3	118	133
 135	3	136	137
 136	4	136	138
 137	4	136	140
 138	2	137	139
 139	5	137	141
 140	2	139	142
 141	6	139	143
 142	5	142	144
 143	3	127	142
 144	3	145	146
 145	4	145	147
 146	4	145	149
 147	2	146	148
 148	5	146	150
 149	2	148	151
 150	6	148	152
 151	5	151	153
 152	3	136	151
 153	3	154	155
 154	4	154	156
 155	4	154	158
 156	2	155	157
 157	5	155	159
 158	2	157	160
 159	6	157	161
 160	5	160	162
 161	3	145	160
 162	1	7	163
 163	4	154	164

Angles

   1	7	2	1	3
   2	7	2	1	5
   3	4	3	1	5
   4	8	1	2	4
   5	6	1	2	6
   6	2	4	2	6
   7	5	2	4	7
   8	1	2	4	8
   9	1	7	4	8
  10	2	4	7	9
  11	7	11	10	12
  12	7	11	10	14
  13	4	12	10	14
  14	8	10	11	13
  15	6	10	11	15
  16	2	13	11	15
  17	5	11	13	16
  18	1	11	13	17
  19	1	16	13	17
  20	2	13	16	18
  21	10	2	1	16
  22	7	3	1	16
  23	7	5	1	16
  24	8	1	16	13
  25	6	1	16	18
  26	7	20	19	21
  27	7	20	19	23
  28	4	21	19	23
  29	8	19	20	22
  30	6	19	20	24
  31	2	22	20	24
  32	5	20	22	25
  33	1	20	22	26
  34	1	25	22	26
  35	2	22	25	27
  36	10	11	10	25
  37	7	12	10	25
  38	7	14	10	25
  39	8	10	25	22
  40	6	10	25	27
  41	7	29	28	30
  42	7	29	28	32
  43	4	30	28	32
  44	8	28	29	31
  45	6	28	29	33
  46	2	31	29	33
  47	5	29	31	34
  48	1	29	31	35
  49	1	34	31	35
  50	2	31	34	36
  51	10	20	19	34
  52	7	21	19	34
  53	7	23	19	34
  54	8	19	34	31
  55	6	19	34	36
  56	7	38	37	39
  57	7	38	37	41
  58	4	39	37	41
  59	8	37	38	40
  60	6	37	38	42
  61	2	40	38	42
  62	5	38	40	43
  63	1	38	40	44
  64	1	43	40	44
  65	2	40	43	45
  66	10	29	28	43
  67	7	30	28	43
  68	7	32	28	43
  69	8	28	43	40
  70	6	28	43	45
  71	7	47	46	48
  72	7	47	46	50
  73	4	48	46	50
  74	8	46	47	49
  75	6	46	47	51
  76	2	49	47	51
  77	5	47	49	52
  78	1	47	49	53
  79	1	52	49	53
  80	2	49	52	54
  81	10	38	37	52
  82	7	39	37	52
  83	7	41	37	52
  84	8	37	52	49
  85	6	37	52	54
  86	7	56	55	57
  87	7	56	55	59
  88	4	57	55	59
  89	8	55	56	58
  90	6	55	56	60
  91	2	58	56	60
  92	5	56	58	61
  93	1	56	58	62
  94	1	61	58	62
  95	2	58	61	63
  96	10	47	46	61
  97	7	48	46	61
  98	7	50	46	61
  99	8	46	61	58
 100	6	46	61	63
 101	7	65	64	66
 102	7	65	64	68
 103	4	66	64	68
 104	8	64	65	67
 105	6	64	65	69
 106	2	67	65	69
 107	5	65	67	70
 108	1	65	67	71
 109	1	70	67	71
 110	2	67	70	72
 111	10	56	55	70
 112	7	57	55	70
 113	7	59	55	70
 114	8	55	70	67
 115	6	55	70	72
 116	7	74	73	75
 117	7	74	73	77
 118	4	75	73	77
 119	8	73	74	76
 120	6	73	74	78
 121	2	76	74	78
 122	5	74	76	79
 123	1	74	76	80
 124	1	79	76	80
 125	2	76	79	81
 126	10	65	64	79
 127	7	66	64	79
 128	7	68	64	79
 129	8	64	79	76
 130	6	64	79	81
 131	7	83	82	84
 132	7	83	82	86
 133	4	84	82	86
 134	8	82	83	85
 135	6	82	83	87
 136	2	85	83	87
 137	5	83	85	88
 138	1	83	85	89
 139	1	88	85	89
 140	2	85	88	90
 141	10	74	73	88
 142	7	75	73	88
 143	7	77	73	88
 144	8	73	88	85
 145	6	73	88	90
 146	7	92	91	93
 147	7	92	91	95
 148	4	93	91	95
 149	8	91	92	94
 150	6	91	92	96
 151	2	94	92	96
 152	5	92	94	97
 153	1	92	94	98
 154	1	97	94	98
 155	2	94	97	99
 156	10	83	82	97
 157	7	84	82	97
 158	7	86	82	97
 159	8	82	97	94
 160	6	82	97	99
 161	7	101	100	102
 162	7	101	100	104
 163	4	102	100	104
 164	8	100	101	103
 165	6	100	101	105
 166	2	103	101	105
 167	5	101	103	106
 168	1	101	103	107
 169	1	106	103	107
 170	2	103	106	108
 171	10	92	91	106
 172	7	93	91	106
 173	7	95	91	106
 174	8	91	106	103
 175	6	91	106	108
 176	7	110	109	111
 177	7	110	109	113
 178	4	111	109	113
 179	8	109	110	112
 180	6	109	110	114
 181	2	112	110	114
 182	5	110	112	115
 183	1	110	112	116
 184	1	115	112	116
 185	2	112	115	117
 186	10	101	100	115
 187	7	102	100	115
 188	7	104	100	115
 189	8	100	115	112
 190	6	100	115	117
 191	7	119	118	120
 192	7	119	118	122
 193	4	120	118	122
 194	8	118	119	121
 195	6	118	119	123
 196	2	121	119	123
 197	5	119	121	124
 198	1	119	121	125
 199	1	124	121	125
 200	2	121	124	126
 201	10	110	109	124
 202	7	111	109	124
 203	7	113	109	124
 204	8	109	124	121
 205	6	109	124	126
 206	7	128	127	129
 207	7	128	127	131
 208	4	129	127	131
 209	8	127	128	130
 210	6	127	128	132
 211	2	130	128	132
 212	5	128	130	133
 213	1	128	130	134
 214	1	133	130	134
 215	2	130	133	135
 216	10	119	118	133
 217	7	120	118	133
 218	7	122	118	133
 219	8	118	133	130
 220	6	118	133	135
 221	7	137	136	138
 222	7	137	136	140
 223	4	138	136	140
 224	8	136	137	139
 225	6	136	137	141
 226	2	139	137	141
 227	5	137	139	142
 228	1	137	139	143
 229	1	142	139	143
 230	2	139	142	144
 231	10	128	127	142
 232	7	129	127	142
 233	7	131	127	142
 234	8	127	142	139
 235	6	127	142	144
 236	7	146	145	147
 237	7	146	145	149
 238	4	147	145	149
 239	8	145	146	148
 240	6	145	146	150
 241	2	148	146	150
 242	5	146	148	151
 243	1	146	148	152
 244	1	151	148	152
 245	2	148	151	153
 246	10	137	136	151
 247	7	138	136	151
 248	7	140	136	151
 249	8	136	151	148
 250	6	136	151	153
 251	7	155	154	156
 252	7	155	154	158
 253	4	156	154	158
 254	8	154	155	157
 255	6	154	155	159
 256	2	157	155	159
 257	5	155	157	160
 258	1	155	157	161
 259	1	160	157	161
 260	2	157	160	162
 261	10	146	145	160
 262	7	147	145	160
 263	7	149	145	160
 264	8	145	160	157
 265	6	145	160	162
 266	9	4	7	163
 267	3	9	7	163
 268	7	155	154	164
 269	4	156	154	164
 270	4	158	154	164

Dihedrals

   1	4	3	1	2	4
   2	1	3	1	2	6
   3	4	5	1	2	4
   4	1	5	1	2	6
   5	2	1	2	4	7
   6	2	1	2	4	8
   7	2	6	2	4	7
   8	3	6	2	4	8
   9	2	2	4	7	9
  10	3	8	4	7	9
  11	4	12	10	11	13
  12	1	12	10	11	15
  13	4	14	10	11	13
  14	1	14	10	11	15
  15	2	10	11	13	16
  16	2	10	11	13	17
  17	2	15	11	13	16
  18	3	15	11	13	17
  19	2	11	13	16	18
  20	3	17	13	16	18
  21	4	4	2	1	16
  22	4	6	2	1	16
  23	2	1	16	13	11
  24	2	1	16	13	17
  25	4	2	1	16	13
  26	4	2	1	16	18
  27	4	3	1	16	13
  28	1	3	1	16	18
  29	4	5	1	16	13
  30	1	5	1	16	18
  31	4	21	19	20	22
  32	1	21	19	20	24
  33	4	23	19	20	22
  34	1	23	19	20	24
  35	2	19	20	22	25
  36	2	19	20	22	26
  37	2	24	20	22	25
  38	3	24	20	22	26
  39	2	20	22	25	27
  40	3	26	22	25	27
  41	4	13	11	10	25
  42	4	15	11	10	25
  43	2	10	25	22	20
  44	2	10	25	22	26
  45	4	11	10	25	22
  46	4	11	10	25	27
  47	4	12	10	25	22
  48	1	12	10	25	27
  49	4	14	10	25	22
  50	1	14	10	25	27
  51	4	30	28	29	31
  52	1	30	28	29	33
  53	4	32	28	29	31
  54	1	32	28	29	33
  55	2	28	29	31	34
  56	2	28	29	31	35
  57	2	33	29	31	34
  58	3	33	29	31	35
  59	2	29	31	34	36
  60	3	35	31	34	36
  61	4	22	20	19	34
  62	4	24	20	19	34
  63	2	19	34	31	29
  64	2	19	34	31	35
  65	4	20	19	34	31
  66	4	20	19	34	36
  67	4	21	19	34	31
  68	1	21	19	34	36
  69	4	23	19	34	31
  70	1	23	19	34	36
  71	4	39	37	38	40
  72	1	39	37	38	42
  73	4	41	37	38	40
  74	1	41	37	38	42
  75	2	37	38	40	43
  76	2	37	38	40	44
  77	2	42	38	40	43
  78	3	42	38	40	44
  79	2	38	40	43	45
  80	3	44	40	43	45
  81	4	31	29	28	43
  82	4	33	29	28	43
  83	2	28	43	40	38
  84	2	28	43	40	44
  85	4	29	28	43	40
  86	4	29	28	43	45
  87	4	30	28	43	40
  88	1	30	28	43	45
  89	4	32	28	43	40
  90	1	32	28	43	45
  91	4	48	46	47	49
  92	1	48	46	47	51
  93	4	50	46	47	49
  94	1	50	46	47	51
  95	2	46	47	49	52
  96	2	46	47	49	53
  97	2	51	47	49	52
  98	3	51	47	49	53
  99	2	47	49	52	54
 100	3	53	49	52	54
 101	4	40	38	37	52
 102	4	42	38	37	52
 103	2	37	52	49	47
 104	2	37	52	49	53
 105	4	38	37	52	49
 106	4	38	37	52	54
 107	4	39	37	52	49
 108	1	39	37	52	54
 109	4	41	37	52	49
 110	1	41	37	52	54
 111	4	57	55	56	58
 112	1	57	55	56	60
 113	4	59	55	56	58
 114	1	59	55	56	60
 115	2	55	56	58	61
 116	2	55	56	58	62
 117	2	60	56	58	61
 118	3	60	56	58	62
 119	2	56	58	61	63
 120	3	62	58	61	63
 121	4	49	47	46	61
 122	4	51	47	46	61
 123	2	46	61	58	56
 124	2	46	61	58	62
 125	4	47	46	61	58
 126	4	47	46	61	63
 127	4	48	46	61	58
 128	1	48	46	61	63
 129	4	50	46	61	58
 130	1	50	46	61	63
 131	4	66	64	65	67
 132	1	66	64	65	69
 133	4	68	64	65	67
 134	1	68	64	65	69
 135	2	64	65	67	70
 136	2	64	65	67	71
 137	2	69	65	67	70
 138	3	69	65	67	71
 139	2	65	67	70	72
 140	3	71	67	70	72
 141	4	58	56	55	70
 142	4	60	56	55	70
 143	2	55	70	67	65
 144	2	55	70	67	71
 145	4	56	55	70	67
 146	4	56	55	70	72
 147	4	57	55	70	67
 148	1	57	55	70	72
 149	4	59	55	70	67
 150	1	59	55	70	72
 151	4	75	73	74	76
 152	1	75	73	74	78
 153	4	77	73	74	76
 154	1	77	73	74	78
 155	2	73	74	76	79
 156	2	73	74	76	80
 157	2	78	74	76	79
 158	3	78	74	76	80
 159	2	74	76	79	81
 160	3	80	76	79	81
 161	4	67	65	64	79
 162	4	69	65	64	79
 163	2	64	79	76	74
 164	2	64	79	76	80
 165	4	65	64	79	76
 166	4	65	64	79	81
 167	4	66	64	79	76
 168	1	66	64	79	81
 169	4	68	64	79	76
 170	1	68	64	79	81
 171	4	84	82	83	85
 172	1	84	82	83	87
 173	4	86	82	83	85
 174	1	86	82	83	87
 175	2	82	83	85	88
 176	2	82	83	85	89
 177	2	87	83	85	88
 178	3	87	83	85	89
 179	2	83	85	88	90
 180	3	89	85	88	90
 181	4	76	74	73	88
 182	4	78	74	73	88
 183	2	73	88	85	83
 184	2	73	88	85	89
 185	4	74	73	88	85
 186	4	74	73	88	90
 187	4	75	73	88	85
 188	1	75	73	88	90
 189	4	77	73	88	85
 190	1	77	73	88	90
 191	4	93	91	92	94
 192	1	93	91	92	96
 193	4	95	91	92	94
 194	1	95	91	92	96
 195	2	91	92	94	97
 196	2	91	92	94	98
 197	2	96	92	94	97
 198	3	96	92	94	98
 199	2	92	94	97	99
 200	3	98	94	97	99
 201	4	85	83	82	97
 202	4	87	83	82	97
 203	2	82	97	94	92
 204	2	82	97	94	98
 205	4	83	82	97	94
 206	4	83	82	97	99
 207	4	84	82	97	94
 208	1	84	82	97	99
 209	4	86	82	97	94
 210	1	86	82	97	99
 211	4	102	100	101	103
 212	1	102	100	101	105
 213	4	104	100	101	103
 214	1	104	100	101	105
 215	2	100	101	103	106
 216	2	100	101	103	107
 217	2	105	101	103	106
 218	3	105	101	103	107
 219	2	101	103	106	108
 220	3	107	103	106	108
 221	4	94	92	91	106
 222	4	96	92	91	106
 223	2	91	106	103	101
 224	2	91	106	103	107
 225	4	92	91	106	103
 226	4	92	91	106	108
 227	4	93	91	106	103
 228	1	93	91	106	108
 229	4	95	91	106	103
 230	1	95	91	106	108
 231	4	111	109	110	112
 232	1	111	109	110	114
 233	4	113	109	110	112
 234	1	113	109	110	114
 235	2	109	110	112	115
 236	2	109	110	112	116
 237	2	114	110	112	115
 238	3	114	110	112	116
 239	2	110	112	115	117
 240	3	116	112	115	117
 241	4	103	101	100	115
 242	4	105	101	100	115
 243	2	100	115	112	110
 244	2	100	115	112	116
 245	4	101	100	115	112
 246	4	101	100	115	117
 247	4	102	100	115	112
 248	1	102	100	115	117
 249	4	104	100	115	112
 250	1	104	100	115	117
 251	4	120	118	119	121
 252	1	120	118	119	123
 253	4	122	118	119	121
 254	1	122	118	119	123
 255	2	118	119	121	124
 256	2	118	119	121	125
 257	2	123	119	121	124
 258	3	123	119	121	125
 259	2	119	121	124	126
 260	3	125	121	124	126
 261	4	112	110	109	124
 262	4	114	110	109	124
 263	2	109	124	121	119
 264	2	109	124	121	125
 265	4	110	109	124	121
 266	4	110	109	124	126
 267	4	111	109	124	121
 268	1	111	109	124	126
 269	4	113	109	124	121
 270	1	113	109	124	126
 271	4	129	127	128	130
 272	1	129	127	128	132
 273	4	131	127	128	130
 274	1	131	127	128	132
 275	2	127	128	130	133
 276	2	127	128	130	134
 277	2	132	128	130	133
 278	3	132	128	130	134
 279	2	128	130	133	135
 280	3	134	130	133	135
 281	4	121	119	118	133
 282	4	123	119	118	133
 283	2	118	133	130	128
 284	2	118	133	130	134
 285	4	119	118	133	130
 286	4	119	118	133	135
 287	4	120	118	133	130
 288	1	120	118	133	135
 289	4	122	118	133	130
 290	1	122	118	133	135
 291	4	138	136	137	139
 292	1	138	136	137	141
 293	4	140	136	137	139
 294	1	140	136	137	141
 295	2	136	137	139	142
 296	2	136	137	139	143
 297	2	141	137	139	142
 298	3	141	137	139	143
 299	2	137	139	142	144
 300	3	143	139	142	144
 301	4	130	128	127	142
 302	4	132	128	127	142
 303	2	127	142	139	137
 304	2	127	142	139	143
 305	4	128	127	142	139
 306	4	128	127	142	144
 307	4	129	127	142	139
 308	1	129	127	142	144
 309	4	131	127	142	139
 310	1	131	127	142	144
 311	4	147	145	146	148
 312	1	147	145	146	150
 313	4	149	145	146	148
 314	1	149	145	146	150
 315	2	145	146	148	151
 316	2	145	146	148	152
 317	2	150	146	148	151
 318	3	150	146	148	152
 319	2	146	148	151	153
 320	3	152	148	151	153
 321	4	139	137	136	151
 322	4	141	137	136	151
 323	2	136	151	148	146
 324	2	136	151	148	152
 325	4	137	136	151	148
 326	4	137	136	151	153
 327	4	138	136	151	148
 328	1	138	136	151	153
 329	4	140	136	151	148
 330	1	140	136	151	153
 331	4	156	154	155	157
 332	1	156	154	155	159
 333	4	158	154	155	157
 334	1	158	154	155	159
 335	2	154	155	157	160
 336	2	154	155	157	161
 337	2	159	155	157	160
 338	3	159	155	157	161
 339	2	155	157	160	162
 340	3	161	157	160	162
 341	4	148	146	145	160
 342	4	150	146	145	160
 343	2	145	160	157	155
 344	2	145	160	157	161
 345	4	146	145	160	157
 346	4	146	145	160	162
 347	4	147	145	160	157
 348	1	147	145	160	162
 349	4	149	145	160	157
 350	1	149	145	160	162
 351	2	2	4	7	163
 352	2	8	4	7	163
 353	4	157	155	154	164
 354	1	159	155	154	164

Impropers

   1	1	2	1	4	6
   2	2	4	2	7	8
   3	1	11	10	13	15
   4	2	13	11	16	17
   5	1	20	19	22	24
   6	2	22	20	25	26
   7	1	29	28	31	33
   8	2	31	29	34	35
   9	1	38	37	40	42
  10	2	40	38	43	44
  11	1	47	46	49	51
  12	2	49	47	52	53
  13	1	56	55	58	60
  14	2	58	56	61	62
  15	1	65	64	67	69
  16	2	67	65	70	71
  17	1	74	73	76	78
  18	2	76	74	79	80
  19	1	83	82	85	87
  20	2	85	83	88	89
  21	1	92	91	94	96
  22	2	94	92	97	98
  23	1	101	100	103	105
  24	2	103	101	106	107
  25	1	110	109	112	114
  26	2	112	110	115	116
  27	1	119	118	121	123
  28	2	121	119	124	125