pySIMM System Object

191 atoms
190 bonds
315 angles
414 dihedrals
42 impropers

7 atom types
6 bond types
10 angle types
4 dihedral types
2 improper types

-89.064870 89.064870 xlo xhi
-89.064870 89.064870 ylo yhi
-89.064870 89.064870 zlo zhi

Masses

   1	12.01	# c3
   2	12.01	# c
   3	1.008	# hc
   4	14.01	# n
   5	16.0	# o
   6	1.008	# hn
   7	1.008	# h5

Pair Coeffs

   1	0.1094	3.3996695084235347	# c3
   2	0.086	3.3996695084235347	# c
   3	0.0157	2.649532787749369	# hc
   4	0.17	3.249998523775958	# n
   5	0.21	2.959921901149463	# o
   6	0.0157	1.069078461768407	# hn
   7	0.015	2.421462715905442	# h5

Bond Coeffs

   1	319.7	1.1051	# c,h5
   2	427.6	1.3789	# c,n
   3	313.0	1.5241	# c,c3
   4	330.6	1.0969	# c3,hc
   5	637.7	1.2183	# c,o
   6	403.2	1.0129	# hn,n

Angle Coeffs

   1	48.33	117.55	# c,n,hn
   2	74.22	123.05	# n,c,o
   3	53.7	123.65	# h5,c,o
   4	39.4	107.58	# hc,c3,hc
   5	63.74	127.08	# c,n,c
   6	67.4	123.2	# c3,c,o
   7	46.93	108.77	# c,c3,hc
   8	66.79	115.18	# c3,c,n
   9	51.42	112.16	# h5,c,n
  10	63.38	111.63	# c,c3,c

Dihedral Coeffs

   1	3	0.8	1	0	0.0	2	0	0.08	3	180	# hc,c3,c,o
   2	1	2.5	2	180	# X,c,n,X
   3	2	2.5	2	180	2.0	1	0	# hn,n,c,o
   4	1	0.0	2	180	# X,c,c3,X

Improper Coeffs

   1	10.5	-1	2	# c,X,X,o
   2	1.1	-1	2	# n,X,X,hn

Atoms

   1	1	1	-0.041892	16.6457	-11.9376	-6.96469
   2	1	2	0.591489	16.3259	-10.69	-7.76102
   3	1	3	0.048074	15.845	-12.16	-6.24982
   4	1	4	-0.651929	15.0213	-10.2935	-7.77082
   5	1	3	0.049056	16.7451	-12.7878	-7.64899
   6	1	5	-0.529683	17.17	-10.0848	-8.38959
   7	1	2	0.758009	14.4867	-9.22484	-8.41857
   8	1	6	0.367145	14.3419	-10.8136	-7.24654
   9	1	5	-0.590269	13.2949	-9.02775	-8.32939
  10	1	1	-0.041892	20.9631	-11.3779	-5.39344
  11	1	2	0.591489	20.2832	-12.5515	-6.09244
  12	1	3	0.048074	20.2878	-10.802	-4.76209
  13	1	4	-0.651929	18.9724	-12.5252	-6.48571
  14	1	3	0.049056	21.7321	-11.7833	-4.7264
  15	1	5	-0.529683	20.8949	-13.5419	-6.42476
  16	1	2	0.758009	17.928	-11.6882	-6.20247
  17	1	6	0.367145	18.7704	-13.2998	-7.09169
  18	1	5	-0.590269	17.9822	-10.8426	-5.34088
  19	1	1	-0.041892	19.2979	-7.85305	-7.67239
  20	1	2	0.591489	20.0317	-8.65101	-6.61998
  21	1	3	0.048074	19.4478	-8.29625	-8.66433
  22	1	4	-0.651929	20.9777	-9.52698	-7.07542
  23	1	3	0.049056	18.2253	-7.88439	-7.45247
  24	1	5	-0.529683	19.8333	-8.47365	-5.43889
  25	1	2	0.758009	21.6608	-10.5277	-6.44674
  26	1	6	0.367145	21.3145	-9.39321	-8.01274
  27	1	5	-0.590269	22.6124	-10.9492	-7.06543
  28	1	1	-0.041892	19.5207	-3.29211	-7.59269
  29	1	2	0.591489	19.3015	-4.27912	-6.45178
  30	1	3	0.048074	20.5008	-2.81734	-7.47096
  31	1	4	-0.651929	19.323	-5.63466	-6.64781
  32	1	3	0.049056	19.4872	-3.76604	-8.57556
  33	1	5	-0.529683	19.0361	-3.89373	-5.33505
  34	1	2	0.758009	19.7537	-6.41232	-7.68831
  35	1	6	0.367145	18.9852	-6.13973	-5.84202
  36	1	5	-0.590269	20.3818	-5.96168	-8.6224
  37	1	1	-0.041892	16.5679	0.199825	-7.50813
  38	1	2	0.591489	18.0492	0.192272	-7.85442
  39	1	3	0.048074	15.9833	-0.145085	-8.36839
  40	1	4	-0.651929	18.7819	-0.963467	-7.78581
  41	1	3	0.049056	16.3781	-0.481403	-6.67132
  42	1	5	-0.529683	18.6362	1.19248	-8.20473
  43	1	2	0.758009	18.4056	-2.26535	-7.56831
  44	1	6	0.367145	19.7619	-0.800179	-7.93007
  45	1	5	-0.590269	17.2404	-2.59832	-7.63025
  46	1	1	-0.041892	14.8052	4.34746	-6.70811
  47	1	2	0.591489	15.1966	3.70043	-8.04007
  48	1	3	0.048074	14.2241	3.62023	-6.13075
  49	1	4	-0.651929	15.7494	2.44768	-8.06807
  50	1	3	0.049056	15.7221	4.55663	-6.14567
  51	1	5	-0.529683	15.0672	4.23688	-9.11973
  52	1	2	0.758009	16.1166	1.57988	-7.07012
  53	1	6	0.367145	15.96	2.15235	-9.00446
  54	1	5	-0.590269	15.9615	1.8471	-5.89773
  55	1	1	-0.041892	12.1037	8.05423	-7.20823
  56	1	2	0.591489	12.9447	7.33693	-8.25643
  57	1	3	0.048074	12.7304	8.35504	-6.36229
  58	1	4	-0.651929	13.7244	6.25933	-7.93035
  59	1	3	0.049056	11.6922	8.96879	-7.64996
  60	1	5	-0.529683	12.9794	7.7209	-9.40563
  61	1	2	0.758009	13.9647	5.6246	-6.74037
  62	1	6	0.367145	14.1452	5.82777	-8.74431
  63	1	5	-0.590269	13.581	6.1194	-5.69977
  64	1	1	-0.041892	8.84569	7.83446	-3.64867
  65	1	2	0.591489	9.23154	7.13732	-4.94032
  66	1	3	0.048074	9.31187	8.82311	-3.57272
  67	1	4	-0.651929	10.3461	7.62647	-5.58223
  68	1	3	0.049056	7.75838	7.96779	-3.65777
  69	1	5	-0.529683	8.53366	6.25753	-5.39522
  70	1	2	0.758009	10.9456	7.18998	-6.74095
  71	1	6	0.367145	10.8227	8.37407	-5.11997
  72	1	5	-0.590269	10.5379	6.25215	-7.39361
  73	1	1	-0.041892	7.66531	8.10668	0.788276
  74	1	2	0.591489	7.8562	8.12022	-0.718547
  75	1	3	0.048074	8.44029	7.50122	1.27238
  76	1	4	-0.651929	8.75089	7.20357	-1.20887
  77	1	3	0.049056	7.77621	9.13833	1.13951
  78	1	5	-0.529683	7.39542	9.00071	-1.41329
  79	1	2	0.758009	9.25487	6.97794	-2.45993
  80	1	6	0.367145	9.1552	6.56538	-0.54854
  81	1	5	-0.590269	10.1973	6.21791	-2.49976
  82	1	1	-0.041892	5.61864	8.20389	4.87403
  83	1	2	0.591489	6.45702	8.17959	3.61219
  84	1	3	0.048074	5.78762	9.16371	5.37489
  85	1	4	-0.651929	5.86527	7.65417	2.49038
  86	1	3	0.049056	4.55497	8.17595	4.63401
  87	1	5	-0.529683	7.56757	8.66256	3.57895
  88	1	2	0.758009	6.29349	7.57732	1.18917
  89	1	6	0.367145	4.94792	7.25175	2.60292
  90	1	5	-0.590269	5.57847	6.96785	0.42517
  91	1	1	-0.041892	3.34119	4.60458	6.67209
  92	1	2	0.591489	3.98278	5.70302	5.84592
  93	1	3	0.048074	4.10182	3.95443	7.11938
  94	1	4	-0.651929	5.21618	6.1254	6.26563
  95	1	3	0.049056	2.72692	3.99879	5.99693
  96	1	5	-0.529683	3.49119	6.09733	4.80948
  97	1	2	0.758009	6.06597	7.10145	5.82685
  98	1	6	0.367145	5.60932	5.65382	7.06042
  99	1	5	-0.590269	7.11914	7.16051	6.42049
 100	1	1	-0.041892	-0.0292065	2.64249	9.03021
 101	1	2	0.591489	1.19285	3.10819	8.26824
 102	1	3	0.048074	-0.15755	3.21642	9.95505
 103	1	4	-0.651929	1.51092	4.43701	8.38506
 104	1	3	0.049056	0.119086	1.58965	9.29485
 105	1	5	-0.529683	1.88479	2.33295	7.64348
 106	1	2	0.758009	2.46708	5.19394	7.76922
 107	1	6	0.367145	0.945239	4.99128	9.00229
 108	1	5	-0.590269	2.59843	6.32915	8.17368
 109	1	1	-0.041892	-4.28441	1.20076	9.80049
 110	1	2	0.591489	-2.82282	1.57433	9.70194
 111	1	3	0.048074	-4.69537	1.03284	8.79815
 112	1	4	-0.651929	-2.46879	2.28195	8.58239
 113	1	3	0.049056	-4.37503	0.267357	10.3677
 114	1	5	-0.529683	-2.01596	1.23404	10.5403
 115	1	2	0.758009	-1.27042	2.78089	8.16409
 116	1	6	0.367145	-3.20261	2.52072	7.94
 117	1	5	-0.590269	-1.30193	3.46007	7.16072
 118	1	1	-0.041892	-8.77337	1.58277	10.3322
 119	1	2	0.591489	-7.30823	1.24625	10.1619
 120	1	3	0.048074	-8.8918	2.62973	10.6347
 121	1	4	-0.651929	-6.43513	2.24312	10.5144
 122	1	3	0.049056	-9.17087	0.949554	11.1326
 123	1	5	-0.529683	-6.92612	0.136706	9.85932
 124	1	2	0.758009	-5.07234	2.29562	10.5
 125	1	6	0.367145	-6.82989	3.09742	10.8647
 126	1	5	-0.590269	-4.58505	3.35438	10.8331
 127	1	1	-0.041892	-13.2056	2.30763	9.63025
 128	1	2	0.591489	-11.7825	1.97482	10.0407
 129	1	3	0.048074	-13.1935	3.15734	8.93873
 130	1	4	-0.651929	-10.909	1.62312	9.04129
 131	1	3	0.049056	-13.7512	2.61108	10.5315
 132	1	5	-0.529683	-11.4148	2.12709	11.1862
 133	1	2	0.758009	-9.57005	1.3499	9.05638
 134	1	6	0.367145	-11.3012	1.46026	8.12974
 135	1	5	-0.590269	-9.05773	1.17227	7.97246
 136	1	1	-0.041892	-17.4954	2.06391	8.06425
 137	1	2	0.591489	-16.1261	2.30718	8.6821
 138	1	3	0.048074	-17.435	1.16941	7.44366
 139	1	4	-0.651929	-15.2258	1.27931	8.55031
 140	1	3	0.049056	-18.2142	1.85847	8.865
 141	1	5	-0.529683	-15.8434	3.30755	9.30174
 142	1	2	0.758009	-13.9367	1.13878	8.9848
 143	1	6	0.367145	-15.5356	0.45779	8.0612
 144	1	5	-0.590269	-13.3757	0.122772	8.63764
 145	1	1	-0.041892	-19.5486	2.51831	3.90474
 146	1	2	0.591489	-18.922	2.11954	5.22418
 147	1	3	0.048074	-19.3527	3.57885	3.7054
 148	1	4	-0.651929	-18.5702	3.1655	6.03707
 149	1	3	0.049056	-20.6294	2.40485	3.96432
 150	1	5	-0.529683	-18.8097	0.958156	5.54764
 151	1	2	0.758009	-17.98	3.27385	7.26527
 152	1	6	0.367145	-18.7781	4.08747	5.69518
 153	1	5	-0.590269	-17.9378	4.40895	7.68071
 154	1	1	-0.041892	-21.6945	0.201455	2.74752
 155	1	2	0.591489	-20.9623	0.833205	1.56209
 156	1	3	0.048074	-22.0786	0.9909	3.39733
 157	1	4	-0.651929	-19.696	1.32729	1.72622
 158	1	3	0.049056	-20.969	-0.383294	3.32602
 159	1	5	-0.529683	-21.3795	0.808297	0.423977
 160	1	2	0.758009	-18.9153	1.71816	2.77921
 161	1	6	0.367145	-19.1836	1.37918	0.860396
 162	1	5	-0.590269	-17.7595	1.93505	2.49527
 163	1	1	-0.041892	-24.4457	-1.74067	-0.844098
 164	1	2	0.591489	-24.2364	-1.78447	0.652824
 165	1	3	0.048074	-25.5067	-1.55554	-1.04961
 166	1	4	-0.651929	-23.252	-0.965572	1.14989
 167	1	3	0.049056	-23.8657	-0.929849	-1.30005
 168	1	5	-0.529683	-24.9194	-2.51089	1.339
 169	1	2	0.758009	-22.8819	-0.721539	2.45146
 170	1	6	0.367145	-22.7069	-0.46178	0.462817
 171	1	5	-0.590269	-23.5251	-1.13947	3.38812
 172	1	1	-0.041892	-23.7346	-5.94675	-2.5877
 173	1	2	0.591489	-25.0077	-5.11999	-2.46658
 174	1	3	0.048074	-23.0362	-5.70031	-1.78187
 175	1	4	-0.651929	-25.0133	-3.88352	-1.87879
 176	1	3	0.049056	-23.2444	-5.72671	-3.54223
 177	1	5	-0.529683	-26.0638	-5.50048	-2.92448
 178	1	2	0.758009	-24.008	-3.06796	-1.42607
 179	1	6	0.367145	-25.9481	-3.53663	-1.75647
 180	1	5	-0.590269	-22.8423	-3.2805	-1.68183
 181	1	1	-0.041892	-25.9125	-9.54767	-4.99533
 182	1	2	0.591489	-25.0738	-9.30142	-3.74419
 183	1	3	0.048074	-25.9686	-8.64768	-5.61865
 184	1	4	-0.651929	-24.7397	-7.98964	-3.51572
 185	1	3	0.049056	-25.4578	-10.3524	-5.58578
 186	1	5	-0.529683	-24.7042	-10.2207	-3.04722
 187	1	2	0.758009	-24.0246	-7.4354	-2.48129
 188	1	6	0.367145	-25.1454	-7.32454	-4.14729
 189	1	5	-0.590269	-23.5363	-8.08799	-1.58455
 190	1	7	0	15.1988	-8.61924	-9.00859
 191	1	3	0	-26.9311	-9.84305	-4.71431

Velocities

   1	3.01384e-05	-0.000248889	-1.48639e-05
   2	-0.000425131	-0.000590707	-0.000565064
   3	0.000270788	-0.000116831	8.74e-05
   4	-0.000379783	-0.000230821	0.000101863
   5	0.000272781	-0.000606735	0.0004638
   6	-0.000743236	-0.00123721	-0.00173532
   7	1.02353e-05	-6.06724e-05	8.59484e-05
   8	-0.000377615	0.000247711	0.000483916
   9	-7.72767e-06	0.000136393	-0.000697685
  10	0.000194753	0.000950344	-1.35631e-05
  11	0.000201386	0.000647912	0.000675917
  12	0.000115758	0.00125106	-0.000171111
  13	0.000212524	0.00056618	0.000307355
  14	0.000340624	0.00139901	0.000177823
  15	0.000143977	0.000230399	0.00179932
  16	0.000160242	0.000566935	-0.000402133
  17	0.000313784	0.000146327	0.000635418
  18	0.000190587	0.00151079	-0.00123634
  19	-0.000456413	0.000268919	9.63915e-05
  20	0.00010144	0.000392906	-0.000170939
  21	-0.000722198	0.000214438	6.14231e-05
  22	-0.000340607	0.000201691	-0.000654596
  23	-0.00021032	8.12177e-05	0.000641573
  24	0.00117794	0.000789342	-2.21389e-05
  25	-6.64094e-05	0.000250994	-0.000775632
  26	-0.00104764	-0.000322041	-0.000989714
  27	-0.000958921	-0.000570385	-0.00158858
  28	-0.000333864	-0.000125561	-0.000200718
  29	-2.39178e-05	0.000156109	-2.58336e-05
  30	-0.000342656	8.08731e-05	-0.000398822
  31	-9.32766e-05	0.000141971	0.000147223
  32	-0.000214885	-0.000375068	-0.000145574
  33	-3.56601e-05	0.000340116	-0.000111014
  34	-8.30713e-05	7.24145e-05	0.000263073
  35	-0.000137143	0.000284688	0.000177929
  36	0.000779766	-0.000260162	0.000721161
  37	-0.000352971	-8.72097e-05	0.000292127
  38	-8.80903e-05	-4.15748e-05	0.00120166
  39	0.000127615	0.000380399	-0.000180627
  40	-0.000343477	-0.000171118	0.000974428
  41	-0.00102748	-0.000216628	-2.23075e-05
  42	0.000244232	-3.67952e-07	0.00203111
  43	-0.000496822	-0.000254238	-0.000176433
  44	-0.000225101	-0.000212352	0.00173212
  45	-0.000450568	-0.000325803	-0.000985498
  46	-0.000326117	-0.000310716	-1.13226e-05
  47	9.26543e-05	-5.67537e-05	5.75942e-05
  48	-0.000404364	-0.000503955	-0.000297658
  49	-0.000481242	-0.000317182	0.00014959
  50	-0.000515348	-0.000328594	0.000312188
  51	0.000490867	1.98639e-05	8.17765e-05
  52	2.69375e-05	1.01969e-05	0.000270124
  53	-0.00110557	-0.000662753	0.000137981
  54	0.00210937	0.000947229	0.000322687
  55	0.000157357	-3.16508e-05	0.000443382
  56	-0.000179067	-6.60871e-05	0.000160757
  57	0.000282656	-0.000539591	0.000551124
  58	-0.000456505	-0.000397969	-0.000116702
  59	0.000549582	0.000329681	0.000765975
  60	-0.000270575	0.000146009	0.00026222
  61	-0.000323498	-0.000342009	-0.000108588
  62	-0.000645335	-0.000384289	-0.000192629
  63	7.64198e-07	-0.000217405	-8.34693e-05
  64	-6.28004e-05	-0.00087187	0.000477195
  65	3.05921e-05	-0.000495641	0.000277448
  66	-0.000507429	-0.00067371	0.00047438
  67	5.56672e-05	-0.000321189	0.000454679
  68	-0.000104567	-0.00130944	0.000523543
  69	-0.000273594	4.86282e-05	-0.000317517
  70	-0.00016265	0.000202881	0.000110224
  71	0.000234641	-0.000623768	0.000785773
  72	-0.000342964	0.000517675	-0.000218756
  73	-0.000273766	0.000245488	0.000246538
  74	0.000102432	-0.000199116	0.000294017
  75	0.000187681	0.00121938	0.000726537
  76	0.000298004	-0.000217605	0.000664999
  77	-0.00137061	0.000522378	-0.000194083
  78	-7.28287e-05	-0.000583452	-2.86146e-05
  79	0.000131867	-0.000662066	0.000610396
  80	0.000319667	3.98561e-06	0.000862934
  81	-0.000205409	-0.00101568	0.000585308
  82	0.000415964	0.000416432	0.000255573
  83	-5.20086e-05	0.000111902	-3.34215e-05
  84	0.000991533	0.000329312	0.000228632
  85	-0.000358419	0.000210983	5.82055e-05
  86	0.000284424	0.000808955	0.000766847
  87	0.000386427	-0.000911699	-5.89946e-05
  88	3.52578e-05	-0.000592699	0.000208291
  89	-0.000534113	0.000580534	9.20328e-05
  90	0.000509103	-0.00126729	0.000289293
  91	0.000120197	0.000198045	-0.00138004
  92	0.000701497	-1.90433e-05	-0.00127564
  93	-0.000125411	-3.05944e-05	-0.00128403
  94	0.000490043	-7.37517e-05	-0.000634433
  95	-1.94076e-05	0.00040917	-0.00142722
  96	0.00120837	5.89968e-05	-0.00148617
  97	0.000467165	0.00026505	3.90716e-05
  98	0.00010988	-4.48369e-05	-0.000454962
  99	-0.000134119	0.000809839	0.00106427
 100	0.00090603	-5.29055e-05	-0.000118595
 101	0.000799223	9.56646e-05	-0.00039886
 102	0.00121887	-0.000209119	6.60649e-06
 103	0.0007139	0.000183529	-0.000665083
 104	0.000845371	-0.000114442	-0.000310934
 105	0.000590813	0.000199183	-0.000744197
 106	0.000142318	0.000374785	-0.00144714
 107	0.000845883	0.000187432	-0.000567996
 108	-0.000467004	0.000757481	-0.0023028
 109	0.000284963	-0.000545171	-0.000142597
 110	0.000388649	-0.000241873	5.0917e-05
 111	0.000648473	-0.00167095	-9.29263e-05
 112	0.000658285	-0.000441594	-2.57736e-05
 113	0.000165996	7.46021e-06	0.000762007
 114	0.000228643	0.000710264	0.000584547
 115	0.000597833	0.00013752	0.000253445
 116	0.000776167	-0.000713176	-0.000255044
 117	0.000446819	0.000321558	0.000409181
 118	-0.000465291	-0.000383837	0.00130717
 119	-0.000465112	-0.000415911	0.000615766
 120	-0.000493822	-0.000640139	0.00227259
 121	-0.000193364	-0.000272735	-0.00050784
 122	-0.000607132	-0.00106868	0.000743999
 123	-0.000656423	-0.000344715	8.59261e-05
 124	-0.000199659	5.3162e-05	-0.00138988
 125	-0.000101349	-0.000122059	-0.000742792
 126	-0.000311959	0.000219662	-0.00188806
 127	-0.000276213	0.000223536	-0.000885942
 128	-0.000841757	-0.000621052	0.000266756
 129	0.000583339	-0.000197013	-0.00140426
 130	-0.000137025	0.000284006	0.000579558
 131	-0.000649955	0.00108397	-0.00143408
 132	-0.00173106	-0.00198875	0.000715102
 133	-6.82997e-05	0.000753415	0.000874418
 134	0.000500339	0.00125194	0.000164169
 135	0.000463357	0.00357472	0.000658529
 136	-0.00022522	-0.00027467	-0.000611402
 137	-0.000658557	-0.000320901	0.000242002
 138	0.000693668	0.00015716	-0.0011438
 139	-0.000510475	-0.000148064	-6.35211e-05
 140	-0.000777852	-0.00108227	-0.00128346
 141	-0.000984453	-0.000465347	0.000585534
 142	-0.000379997	6.91046e-05	-0.000480767
 143	-0.000602385	-0.000200827	6.01993e-05
 144	-0.000470029	8.28734e-05	-0.000512966
 145	-0.000276234	-0.000293543	-5.59047e-05
 146	0.000303023	3.25778e-05	-0.000271427
 147	-0.00103369	-0.000159009	-0.000173625
 148	0.000718173	0.00014038	-0.000634096
 149	-0.000184221	-0.00106837	0.000541781
 150	-0.000496496	0.000117855	0.000252301
 151	0.000167751	3.81125e-05	-0.000404442
 152	0.0009942	0.000151715	-0.000794817
 153	-0.000308251	-0.000165236	7.22315e-05
 154	-0.000869999	0.000725439	-9.05158e-05
 155	-0.000218696	-8.73069e-05	-0.000245568
 156	-0.0025515	0.00140293	-0.00177891
 157	-0.00027312	-0.000105169	-8.6547e-05
 158	-0.000764169	0.00258161	0.00172654
 159	0.000173488	-0.000604215	-0.000327594
 160	-0.000307682	-7.0627e-05	-0.000181213
 161	-0.000220222	-0.000271901	-6.58743e-05
 162	-0.000304388	-9.16858e-05	-0.000166143
 163	0.000907089	0.000128191	-0.000191464
 164	0.000298731	-6.04106e-05	-0.000103973
 165	0.00116957	0.00126965	-0.000940583
 166	0.00100912	-0.00117581	7.94472e-05
 167	0.00214697	-0.000759604	-6.16337e-05
 168	-0.00113686	0.00113988	-0.00029095
 169	0.000699791	-0.00111542	3.36119e-05
 170	0.00153215	-0.0016629	4.46539e-05
 171	0.000903278	-0.00158392	-2.58361e-05
 172	-0.000108214	0.000107345	0.000525743
 173	-0.00038926	-7.17372e-05	0.000605102
 174	-5.70347e-05	0.000130976	0.000500496
 175	-0.000390911	-0.000363572	0.00110016
 176	-1.85377e-05	0.000535157	0.00061185
 177	-7.38031e-05	0.000108337	-0.000199887
 178	-0.000125473	-0.000359158	0.000510236
 179	-0.000402661	-0.000521372	0.00181896
 180	-0.000218206	-0.000638249	0.000175622
 181	-6.955e-05	0.000729704	0.000197482
 182	0.000606223	0.000601155	-0.000247741
 183	0.000649189	0.000424152	-0.000261242
 184	0.000386176	0.000561346	0.000219539
 185	-0.00106422	-0.000267574	0.000877284
 186	0.00175192	0.000512445	-0.00106804
 187	0.000282757	0.000167583	0.00026275
 188	-0.000185514	0.000939836	0.000793847
 189	-7.54605e-05	9.20543e-05	0.000468139
 190	0.000380986	-0.000186773	0.000381014
 191	-0.000163089	0.00206026	0.001081

Bonds

   1	3	1	2
   2	4	1	3
   3	4	1	5
   4	2	2	4
   5	5	2	6
   6	2	4	7
   7	6	4	8
   8	5	7	9
   9	3	10	11
  10	4	10	12
  11	4	10	14
  12	2	11	13
  13	5	11	15
  14	2	13	16
  15	6	13	17
  16	5	16	18
  17	3	1	16
  18	3	19	20
  19	4	19	21
  20	4	19	23
  21	2	20	22
  22	5	20	24
  23	2	22	25
  24	6	22	26
  25	5	25	27
  26	3	10	25
  27	3	28	29
  28	4	28	30
  29	4	28	32
  30	2	29	31
  31	5	29	33
  32	2	31	34
  33	6	31	35
  34	5	34	36
  35	3	19	34
  36	3	37	38
  37	4	37	39
  38	4	37	41
  39	2	38	40
  40	5	38	42
  41	2	40	43
  42	6	40	44
  43	5	43	45
  44	3	28	43
  45	3	46	47
  46	4	46	48
  47	4	46	50
  48	2	47	49
  49	5	47	51
  50	2	49	52
  51	6	49	53
  52	5	52	54
  53	3	37	52
  54	3	55	56
  55	4	55	57
  56	4	55	59
  57	2	56	58
  58	5	56	60
  59	2	58	61
  60	6	58	62
  61	5	61	63
  62	3	46	61
  63	3	64	65
  64	4	64	66
  65	4	64	68
  66	2	65	67
  67	5	65	69
  68	2	67	70
  69	6	67	71
  70	5	70	72
  71	3	55	70
  72	3	73	74
  73	4	73	75
  74	4	73	77
  75	2	74	76
  76	5	74	78
  77	2	76	79
  78	6	76	80
  79	5	79	81
  80	3	64	79
  81	3	82	83
  82	4	82	84
  83	4	82	86
  84	2	83	85
  85	5	83	87
  86	2	85	88
  87	6	85	89
  88	5	88	90
  89	3	73	88
  90	3	91	92
  91	4	91	93
  92	4	91	95
  93	2	92	94
  94	5	92	96
  95	2	94	97
  96	6	94	98
  97	5	97	99
  98	3	82	97
  99	3	100	101
 100	4	100	102
 101	4	100	104
 102	2	101	103
 103	5	101	105
 104	2	103	106
 105	6	103	107
 106	5	106	108
 107	3	91	106
 108	3	109	110
 109	4	109	111
 110	4	109	113
 111	2	110	112
 112	5	110	114
 113	2	112	115
 114	6	112	116
 115	5	115	117
 116	3	100	115
 117	3	118	119
 118	4	118	120
 119	4	118	122
 120	2	119	121
 121	5	119	123
 122	2	121	124
 123	6	121	125
 124	5	124	126
 125	3	109	124
 126	3	127	128
 127	4	127	129
 128	4	127	131
 129	2	128	130
 130	5	128	132
 131	2	130	133
 132	6	130	134
 133	5	133	135
 134	3	118	133
 135	3	136	137
 136	4	136	138
 137	4	136	140
 138	2	137	139
 139	5	137	141
 140	2	139	142
 141	6	139	143
 142	5	142	144
 143	3	127	142
 144	3	145	146
 145	4	145	147
 146	4	145	149
 147	2	146	148
 148	5	146	150
 149	2	148	151
 150	6	148	152
 151	5	151	153
 152	3	136	151
 153	3	154	155
 154	4	154	156
 155	4	154	158
 156	2	155	157
 157	5	155	159
 158	2	157	160
 159	6	157	161
 160	5	160	162
 161	3	145	160
 162	3	163	164
 163	4	163	165
 164	4	163	167
 165	2	164	166
 166	5	164	168
 167	2	166	169
 168	6	166	170
 169	5	169	171
 170	3	154	169
 171	3	172	173
 172	4	172	174
 173	4	172	176
 174	2	173	175
 175	5	173	177
 176	2	175	178
 177	6	175	179
 178	5	178	180
 179	3	163	178
 180	3	181	182
 181	4	181	183
 182	4	181	185
 183	2	182	184
 184	5	182	186
 185	2	184	187
 186	6	184	188
 187	5	187	189
 188	3	172	187
 189	1	7	190
 190	4	181	191

Angles

   1	7	2	1	3
   2	7	2	1	5
   3	4	3	1	5
   4	8	1	2	4
   5	6	1	2	6
   6	2	4	2	6
   7	5	2	4	7
   8	1	2	4	8
   9	1	7	4	8
  10	2	4	7	9
  11	7	11	10	12
  12	7	11	10	14
  13	4	12	10	14
  14	8	10	11	13
  15	6	10	11	15
  16	2	13	11	15
  17	5	11	13	16
  18	1	11	13	17
  19	1	16	13	17
  20	2	13	16	18
  21	10	2	1	16
  22	7	3	1	16
  23	7	5	1	16
  24	8	1	16	13
  25	6	1	16	18
  26	7	20	19	21
  27	7	20	19	23
  28	4	21	19	23
  29	8	19	20	22
  30	6	19	20	24
  31	2	22	20	24
  32	5	20	22	25
  33	1	20	22	26
  34	1	25	22	26
  35	2	22	25	27
  36	10	11	10	25
  37	7	12	10	25
  38	7	14	10	25
  39	8	10	25	22
  40	6	10	25	27
  41	7	29	28	30
  42	7	29	28	32
  43	4	30	28	32
  44	8	28	29	31
  45	6	28	29	33
  46	2	31	29	33
  47	5	29	31	34
  48	1	29	31	35
  49	1	34	31	35
  50	2	31	34	36
  51	10	20	19	34
  52	7	21	19	34
  53	7	23	19	34
  54	8	19	34	31
  55	6	19	34	36
  56	7	38	37	39
  57	7	38	37	41
  58	4	39	37	41
  59	8	37	38	40
  60	6	37	38	42
  61	2	40	38	42
  62	5	38	40	43
  63	1	38	40	44
  64	1	43	40	44
  65	2	40	43	45
  66	10	29	28	43
  67	7	30	28	43
  68	7	32	28	43
  69	8	28	43	40
  70	6	28	43	45
  71	7	47	46	48
  72	7	47	46	50
  73	4	48	46	50
  74	8	46	47	49
  75	6	46	47	51
  76	2	49	47	51
  77	5	47	49	52
  78	1	47	49	53
  79	1	52	49	53
  80	2	49	52	54
  81	10	38	37	52
  82	7	39	37	52
  83	7	41	37	52
  84	8	37	52	49
  85	6	37	52	54
  86	7	56	55	57
  87	7	56	55	59
  88	4	57	55	59
  89	8	55	56	58
  90	6	55	56	60
  91	2	58	56	60
  92	5	56	58	61
  93	1	56	58	62
  94	1	61	58	62
  95	2	58	61	63
  96	10	47	46	61
  97	7	48	46	61
  98	7	50	46	61
  99	8	46	61	58
 100	6	46	61	63
 101	7	65	64	66
 102	7	65	64	68
 103	4	66	64	68
 104	8	64	65	67
 105	6	64	65	69
 106	2	67	65	69
 107	5	65	67	70
 108	1	65	67	71
 109	1	70	67	71
 110	2	67	70	72
 111	10	56	55	70
 112	7	57	55	70
 113	7	59	55	70
 114	8	55	70	67
 115	6	55	70	72
 116	7	74	73	75
 117	7	74	73	77
 118	4	75	73	77
 119	8	73	74	76
 120	6	73	74	78
 121	2	76	74	78
 122	5	74	76	79
 123	1	74	76	80
 124	1	79	76	80
 125	2	76	79	81
 126	10	65	64	79
 127	7	66	64	79
 128	7	68	64	79
 129	8	64	79	76
 130	6	64	79	81
 131	7	83	82	84
 132	7	83	82	86
 133	4	84	82	86
 134	8	82	83	85
 135	6	82	83	87
 136	2	85	83	87
 137	5	83	85	88
 138	1	83	85	89
 139	1	88	85	89
 140	2	85	88	90
 141	10	74	73	88
 142	7	75	73	88
 143	7	77	73	88
 144	8	73	88	85
 145	6	73	88	90
 146	7	92	91	93
 147	7	92	91	95
 148	4	93	91	95
 149	8	91	92	94
 150	6	91	92	96
 151	2	94	92	96
 152	5	92	94	97
 153	1	92	94	98
 154	1	97	94	98
 155	2	94	97	99
 156	10	83	82	97
 157	7	84	82	97
 158	7	86	82	97
 159	8	82	97	94
 160	6	82	97	99
 161	7	101	100	102
 162	7	101	100	104
 163	4	102	100	104
 164	8	100	101	103
 165	6	100	101	105
 166	2	103	101	105
 167	5	101	103	106
 168	1	101	103	107
 169	1	106	103	107
 170	2	103	106	108
 171	10	92	91	106
 172	7	93	91	106
 173	7	95	91	106
 174	8	91	106	103
 175	6	91	106	108
 176	7	110	109	111
 177	7	110	109	113
 178	4	111	109	113
 179	8	109	110	112
 180	6	109	110	114
 181	2	112	110	114
 182	5	110	112	115
 183	1	110	112	116
 184	1	115	112	116
 185	2	112	115	117
 186	10	101	100	115
 187	7	102	100	115
 188	7	104	100	115
 189	8	100	115	112
 190	6	100	115	117
 191	7	119	118	120
 192	7	119	118	122
 193	4	120	118	122
 194	8	118	119	121
 195	6	118	119	123
 196	2	121	119	123
 197	5	119	121	124
 198	1	119	121	125
 199	1	124	121	125
 200	2	121	124	126
 201	10	110	109	124
 202	7	111	109	124
 203	7	113	109	124
 204	8	109	124	121
 205	6	109	124	126
 206	7	128	127	129
 207	7	128	127	131
 208	4	129	127	131
 209	8	127	128	130
 210	6	127	128	132
 211	2	130	128	132
 212	5	128	130	133
 213	1	128	130	134
 214	1	133	130	134
 215	2	130	133	135
 216	10	119	118	133
 217	7	120	118	133
 218	7	122	118	133
 219	8	118	133	130
 220	6	118	133	135
 221	7	137	136	138
 222	7	137	136	140
 223	4	138	136	140
 224	8	136	137	139
 225	6	136	137	141
 226	2	139	137	141
 227	5	137	139	142
 228	1	137	139	143
 229	1	142	139	143
 230	2	139	142	144
 231	10	128	127	142
 232	7	129	127	142
 233	7	131	127	142
 234	8	127	142	139
 235	6	127	142	144
 236	7	146	145	147
 237	7	146	145	149
 238	4	147	145	149
 239	8	145	146	148
 240	6	145	146	150
 241	2	148	146	150
 242	5	146	148	151
 243	1	146	148	152
 244	1	151	148	152
 245	2	148	151	153
 246	10	137	136	151
 247	7	138	136	151
 248	7	140	136	151
 249	8	136	151	148
 250	6	136	151	153
 251	7	155	154	156
 252	7	155	154	158
 253	4	156	154	158
 254	8	154	155	157
 255	6	154	155	159
 256	2	157	155	159
 257	5	155	157	160
 258	1	155	157	161
 259	1	160	157	161
 260	2	157	160	162
 261	10	146	145	160
 262	7	147	145	160
 263	7	149	145	160
 264	8	145	160	157
 265	6	145	160	162
 266	7	164	163	165
 267	7	164	163	167
 268	4	165	163	167
 269	8	163	164	166
 270	6	163	164	168
 271	2	166	164	168
 272	5	164	166	169
 273	1	164	166	170
 274	1	169	166	170
 275	2	166	169	171
 276	10	155	154	169
 277	7	156	154	169
 278	7	158	154	169
 279	8	154	169	166
 280	6	154	169	171
 281	7	173	172	174
 282	7	173	172	176
 283	4	174	172	176
 284	8	172	173	175
 285	6	172	173	177
 286	2	175	173	177
 287	5	173	175	178
 288	1	173	175	179
 289	1	178	175	179
 290	2	175	178	180
 291	10	164	163	178
 292	7	165	163	178
 293	7	167	163	178
 294	8	163	178	175
 295	6	163	178	180
 296	7	182	181	183
 297	7	182	181	185
 298	4	183	181	185
 299	8	181	182	184
 300	6	181	182	186
 301	2	184	182	186
 302	5	182	184	187
 303	1	182	184	188
 304	1	187	184	188
 305	2	184	187	189
 306	10	173	172	187
 307	7	174	172	187
 308	7	176	172	187
 309	8	172	187	184
 310	6	172	187	189
 311	9	4	7	190
 312	3	9	7	190
 313	7	182	181	191
 314	4	183	181	191
 315	4	185	181	191

Dihedrals

   1	4	3	1	2	4
   2	1	3	1	2	6
   3	4	5	1	2	4
   4	1	5	1	2	6
   5	2	1	2	4	7
   6	2	1	2	4	8
   7	2	6	2	4	7
   8	3	6	2	4	8
   9	2	2	4	7	9
  10	3	8	4	7	9
  11	4	12	10	11	13
  12	1	12	10	11	15
  13	4	14	10	11	13
  14	1	14	10	11	15
  15	2	10	11	13	16
  16	2	10	11	13	17
  17	2	15	11	13	16
  18	3	15	11	13	17
  19	2	11	13	16	18
  20	3	17	13	16	18
  21	4	4	2	1	16
  22	4	6	2	1	16
  23	2	1	16	13	11
  24	2	1	16	13	17
  25	4	2	1	16	13
  26	4	2	1	16	18
  27	4	3	1	16	13
  28	1	3	1	16	18
  29	4	5	1	16	13
  30	1	5	1	16	18
  31	4	21	19	20	22
  32	1	21	19	20	24
  33	4	23	19	20	22
  34	1	23	19	20	24
  35	2	19	20	22	25
  36	2	19	20	22	26
  37	2	24	20	22	25
  38	3	24	20	22	26
  39	2	20	22	25	27
  40	3	26	22	25	27
  41	4	13	11	10	25
  42	4	15	11	10	25
  43	2	10	25	22	20
  44	2	10	25	22	26
  45	4	11	10	25	22
  46	4	11	10	25	27
  47	4	12	10	25	22
  48	1	12	10	25	27
  49	4	14	10	25	22
  50	1	14	10	25	27
  51	4	30	28	29	31
  52	1	30	28	29	33
  53	4	32	28	29	31
  54	1	32	28	29	33
  55	2	28	29	31	34
  56	2	28	29	31	35
  57	2	33	29	31	34
  58	3	33	29	31	35
  59	2	29	31	34	36
  60	3	35	31	34	36
  61	4	22	20	19	34
  62	4	24	20	19	34
  63	2	19	34	31	29
  64	2	19	34	31	35
  65	4	20	19	34	31
  66	4	20	19	34	36
  67	4	21	19	34	31
  68	1	21	19	34	36
  69	4	23	19	34	31
  70	1	23	19	34	36
  71	4	39	37	38	40
  72	1	39	37	38	42
  73	4	41	37	38	40
  74	1	41	37	38	42
  75	2	37	38	40	43
  76	2	37	38	40	44
  77	2	42	38	40	43
  78	3	42	38	40	44
  79	2	38	40	43	45
  80	3	44	40	43	45
  81	4	31	29	28	43
  82	4	33	29	28	43
  83	2	28	43	40	38
  84	2	28	43	40	44
  85	4	29	28	43	40
  86	4	29	28	43	45
  87	4	30	28	43	40
  88	1	30	28	43	45
  89	4	32	28	43	40
  90	1	32	28	43	45
  91	4	48	46	47	49
  92	1	48	46	47	51
  93	4	50	46	47	49
  94	1	50	46	47	51
  95	2	46	47	49	52
  96	2	46	47	49	53
  97	2	51	47	49	52
  98	3	51	47	49	53
  99	2	47	49	52	54
 100	3	53	49	52	54
 101	4	40	38	37	52
 102	4	42	38	37	52
 103	2	37	52	49	47
 104	2	37	52	49	53
 105	4	38	37	52	49
 106	4	38	37	52	54
 107	4	39	37	52	49
 108	1	39	37	52	54
 109	4	41	37	52	49
 110	1	41	37	52	54
 111	4	57	55	56	58
 112	1	57	55	56	60
 113	4	59	55	56	58
 114	1	59	55	56	60
 115	2	55	56	58	61
 116	2	55	56	58	62
 117	2	60	56	58	61
 118	3	60	56	58	62
 119	2	56	58	61	63
 120	3	62	58	61	63
 121	4	49	47	46	61
 122	4	51	47	46	61
 123	2	46	61	58	56
 124	2	46	61	58	62
 125	4	47	46	61	58
 126	4	47	46	61	63
 127	4	48	46	61	58
 128	1	48	46	61	63
 129	4	50	46	61	58
 130	1	50	46	61	63
 131	4	66	64	65	67
 132	1	66	64	65	69
 133	4	68	64	65	67
 134	1	68	64	65	69
 135	2	64	65	67	70
 136	2	64	65	67	71
 137	2	69	65	67	70
 138	3	69	65	67	71
 139	2	65	67	70	72
 140	3	71	67	70	72
 141	4	58	56	55	70
 142	4	60	56	55	70
 143	2	55	70	67	65
 144	2	55	70	67	71
 145	4	56	55	70	67
 146	4	56	55	70	72
 147	4	57	55	70	67
 148	1	57	55	70	72
 149	4	59	55	70	67
 150	1	59	55	70	72
 151	4	75	73	74	76
 152	1	75	73	74	78
 153	4	77	73	74	76
 154	1	77	73	74	78
 155	2	73	74	76	79
 156	2	73	74	76	80
 157	2	78	74	76	79
 158	3	78	74	76	80
 159	2	74	76	79	81
 160	3	80	76	79	81
 161	4	67	65	64	79
 162	4	69	65	64	79
 163	2	64	79	76	74
 164	2	64	79	76	80
 165	4	65	64	79	76
 166	4	65	64	79	81
 167	4	66	64	79	76
 168	1	66	64	79	81
 169	4	68	64	79	76
 170	1	68	64	79	81
 171	4	84	82	83	85
 172	1	84	82	83	87
 173	4	86	82	83	85
 174	1	86	82	83	87
 175	2	82	83	85	88
 176	2	82	83	85	89
 177	2	87	83	85	88
 178	3	87	83	85	89
 179	2	83	85	88	90
 180	3	89	85	88	90
 181	4	76	74	73	88
 182	4	78	74	73	88
 183	2	73	88	85	83
 184	2	73	88	85	89
 185	4	74	73	88	85
 186	4	74	73	88	90
 187	4	75	73	88	85
 188	1	75	73	88	90
 189	4	77	73	88	85
 190	1	77	73	88	90
 191	4	93	91	92	94
 192	1	93	91	92	96
 193	4	95	91	92	94
 194	1	95	91	92	96
 195	2	91	92	94	97
 196	2	91	92	94	98
 197	2	96	92	94	97
 198	3	96	92	94	98
 199	2	92	94	97	99
 200	3	98	94	97	99
 201	4	85	83	82	97
 202	4	87	83	82	97
 203	2	82	97	94	92
 204	2	82	97	94	98
 205	4	83	82	97	94
 206	4	83	82	97	99
 207	4	84	82	97	94
 208	1	84	82	97	99
 209	4	86	82	97	94
 210	1	86	82	97	99
 211	4	102	100	101	103
 212	1	102	100	101	105
 213	4	104	100	101	103
 214	1	104	100	101	105
 215	2	100	101	103	106
 216	2	100	101	103	107
 217	2	105	101	103	106
 218	3	105	101	103	107
 219	2	101	103	106	108
 220	3	107	103	106	108
 221	4	94	92	91	106
 222	4	96	92	91	106
 223	2	91	106	103	101