pySIMM System Object

209 atoms
208 bonds
345 angles
454 dihedrals
46 impropers

7 atom types
6 bond types
10 angle types
4 dihedral types
2 improper types

-91.939894 91.939894 xlo xhi
-91.939894 91.939894 ylo yhi
-91.939894 91.939894 zlo zhi

Masses

   1	12.01	# c3
   2	12.01	# c
   3	1.008	# hc
   4	14.01	# n
   5	16.0	# o
   6	1.008	# hn
   7	1.008	# h5

Pair Coeffs

   1	0.1094	3.3996695084235347	# c3
   2	0.086	3.3996695084235347	# c
   3	0.0157	2.649532787749369	# hc
   4	0.17	3.249998523775958	# n
   5	0.21	2.959921901149463	# o
   6	0.0157	1.069078461768407	# hn
   7	0.015	2.421462715905442	# h5

Bond Coeffs

   1	319.7	1.1051	# c,h5
   2	427.6	1.3789	# c,n
   3	313.0	1.5241	# c,c3
   4	330.6	1.0969	# c3,hc
   5	637.7	1.2183	# c,o
   6	403.2	1.0129	# hn,n

Angle Coeffs

   1	48.33	117.55	# c,n,hn
   2	74.22	123.05	# n,c,o
   3	53.7	123.65	# h5,c,o
   4	39.4	107.58	# hc,c3,hc
   5	63.74	127.08	# c,n,c
   6	67.4	123.2	# c3,c,o
   7	46.93	108.77	# c,c3,hc
   8	66.79	115.18	# c3,c,n
   9	51.42	112.16	# h5,c,n
  10	63.38	111.63	# c,c3,c

Dihedral Coeffs

   1	3	0.8	1	0	0.0	2	0	0.08	3	180	# hc,c3,c,o
   2	1	2.5	2	180	# X,c,n,X
   3	2	2.5	2	180	2.0	1	0	# hn,n,c,o
   4	1	0.0	2	180	# X,c,c3,X

Improper Coeffs

   1	10.5	-1	2	# c,X,X,o
   2	1.1	-1	2	# n,X,X,hn

Atoms

   1	1	1	-0.041892	3.82114	26.0357	-3.81413
   2	1	2	0.591489	4.7299	24.8331	-3.58398
   3	1	3	0.048074	2.99495	26.0133	-3.0949
   4	1	4	-0.651929	4.37891	23.6507	-4.17053
   5	1	3	0.049056	4.40027	26.9511	-3.64112
   6	1	5	-0.529683	5.76265	24.9265	-2.95752
   7	1	2	0.758009	5.09986	22.502	-4.2396
   8	1	6	0.367145	3.55098	23.6486	-4.75045
   9	1	5	-0.590269	4.78447	21.6706	-5.07118
  10	1	1	-0.041892	3.20071	26.4981	-8.3086
  11	1	2	0.591489	2.9632	27.5192	-7.20113
  12	1	3	0.048074	3.16027	27.0343	-9.26385
  13	1	4	-0.651929	3.28414	27.2201	-5.9042
  14	1	3	0.049056	4.22096	26.126	-8.23052
  15	1	5	-0.529683	2.83047	28.696	-7.45127
  16	1	2	0.758009	3.25011	26.0384	-5.22085
  17	1	6	0.367145	3.5222	28.0418	-5.37783
  18	1	5	-0.590269	2.57093	25.1164	-5.62204
  19	1	1	-0.041892	3.67427	21.9023	-8.31152
  20	1	2	0.591489	3.65592	23.3999	-8.05669
  21	1	3	0.048074	3.5186	21.3682	-7.36806
  22	1	4	-0.651929	2.52162	24.0698	-8.44716
  23	1	3	0.049056	2.86428	21.6219	-8.99496
  24	1	5	-0.529683	4.57518	23.9523	-7.48901
  25	1	2	0.758009	2.15484	25.3921	-8.39023
  26	1	6	0.367145	1.75048	23.5113	-8.76661
  27	1	5	-0.590269	1.02638	25.626	-8.76264
  28	1	1	-0.041892	7.98324	21.2949	-9.76837
  29	1	2	0.591489	7.43287	21.3646	-8.34889
  30	1	3	0.048074	7.37	21.8598	-10.477
  31	1	4	-0.651929	6.09253	21.5068	-8.10562
  32	1	3	0.049056	8.96999	21.7725	-9.77445
  33	1	5	-0.529683	8.16631	21.4263	-7.38856
  34	1	2	0.758009	5.00153	21.498	-8.93076
  35	1	6	0.367145	5.9014	21.7175	-7.13389
  36	1	5	-0.590269	5.09028	21.155	-10.0939
  37	1	1	-0.041892	8.29579	17.1174	-11.6117
  38	1	2	0.591489	7.28663	18.225	-11.8941
  39	1	3	0.048074	9.30666	17.479	-11.8337
  40	1	4	-0.651929	7.31662	19.4006	-11.1855
  41	1	3	0.049056	8.25759	16.8543	-10.5485
  42	1	5	-0.529683	6.3928	18.0907	-12.7002
  43	1	2	0.758009	8.16303	19.8537	-10.205
  44	1	6	0.367145	6.55692	20.0224	-11.4257
  45	1	5	-0.590269	9.10283	19.1876	-9.82839
  46	1	1	-0.041892	7.24092	13.0563	-13.5097
  47	1	2	0.591489	6.63621	13.7859	-12.3156
  48	1	3	0.048074	7.18841	13.6904	-14.4022
  49	1	4	-0.651929	7.0761	15.0228	-11.9316
  50	1	3	0.049056	8.29551	12.8339	-13.3099
  51	1	5	-0.529683	5.72358	13.3256	-11.6656
  52	1	2	0.758009	8.02201	15.8735	-12.4432
  53	1	6	0.367145	6.56777	15.3628	-11.1359
  54	1	5	-0.590269	8.71535	15.5558	-13.3871
  55	1	1	-0.041892	4.25549	9.64117	-14.1631
  56	1	2	0.591489	4.35485	11.0006	-14.8339
  57	1	3	0.048074	4.61504	9.68034	-13.1296
  58	1	4	-0.651929	5.36076	11.8743	-14.5257
  59	1	3	0.049056	3.19937	9.35205	-14.1163
  60	1	5	-0.529683	3.47253	11.4354	-15.5397
  61	1	2	0.758009	6.48744	11.7582	-13.755
  62	1	6	0.367145	5.18316	12.7797	-14.9209
  63	1	5	-0.590269	6.86612	10.6821	-13.3314
  64	1	1	-0.041892	7.61824	6.26536	-13.5961
  65	1	2	0.591489	6.63584	6.76428	-14.6321
  66	1	3	0.048074	8.3977	5.67091	-14.0753
  67	1	4	-0.651929	5.95326	7.9046	-14.2855
  68	1	3	0.049056	8.11369	7.11762	-13.1182
  69	1	5	-0.529683	6.4313	6.14578	-15.6534
  70	1	2	0.758009	4.98799	8.59367	-14.9742
  71	1	6	0.367145	6.1803	8.29502	-13.3857
  72	1	5	-0.590269	4.62352	8.2936	-16.09
  73	1	1	-0.041892	6.57398	1.78048	-13.229
  74	1	2	0.591489	7.24407	3.14143	-13.3039
  75	1	3	0.048074	5.53106	1.88886	-13.5475
  76	1	4	-0.651929	6.63144	4.15253	-12.606
  77	1	3	0.049056	7.06993	1.09481	-13.9261
  78	1	5	-0.529683	8.2459	3.31871	-13.9609
  79	1	2	0.758009	6.83606	5.50162	-12.5423
  80	1	6	0.367145	5.93424	3.86798	-11.9423
  81	1	5	-0.590269	6.14907	6.10437	-11.7434
  82	1	1	-0.041892	3.95058	-1.46003	-11.5222
  83	1	2	0.591489	5.00385	-0.663857	-12.2674
  84	1	3	0.048074	3.40554	-0.785862	-10.8523
  85	1	4	-0.651929	5.76096	0.181416	-11.4986
  86	1	3	0.049056	3.23688	-1.86885	-12.2471
  87	1	5	-0.529683	5.07827	-0.672913	-13.4773
  88	1	2	0.758009	6.62313	1.18564	-11.8289
  89	1	6	0.367145	5.74007	0.030623	-10.5056
  90	1	5	-0.590269	7.09101	1.78114	-10.8823
  91	1	1	-0.041892	1.82138	-4.58534	-8.9573
  92	1	2	0.591489	2.38601	-3.42855	-9.76583
  93	1	3	0.048074	1.99977	-5.51736	-9.50446
  94	1	4	-0.651929	3.74138	-3.42549	-9.98397
  95	1	3	0.049056	0.740915	-4.45871	-8.8873
  96	1	5	-0.529683	1.66781	-2.56642	-10.2234
  97	1	2	0.758009	4.54905	-2.60036	-10.7157
  98	1	6	0.367145	4.27558	-4.11254	-9.46852
  99	1	5	-0.590269	5.74376	-2.75445	-10.5865
 100	1	1	-0.041892	0.249312	-4.95652	-4.56931
 101	1	2	0.591489	0.513518	-4.76716	-6.05244
 102	1	3	0.048074	-0.210663	-4.04329	-4.17545
 103	1	4	-0.651929	1.83425	-4.85108	-6.41792
 104	1	3	0.049056	1.19785	-5.10838	-4.04192
 105	1	5	-0.529683	-0.350124	-4.41083	-6.82159
 106	1	2	0.758009	2.50449	-4.69483	-7.59922
 107	1	6	0.367145	2.48173	-5.04726	-5.67558
 108	1	5	-0.590269	3.70786	-4.8348	-7.52862
 109	1	1	-0.041892	-0.618126	-6.99416	-0.59668
 110	1	2	0.591489	-0.378355	-6.10943	-1.80643
 111	1	3	0.048074	-0.610142	-6.36545	0.301206
 112	1	4	-0.651929	-0.82773	-6.59228	-3.01042
 113	1	3	0.049056	-1.59784	-7.48024	-0.666188
 114	1	5	-0.529683	0.180814	-5.03717	-1.71071
 115	1	2	0.758009	-0.667188	-6.14095	-4.29105
 116	1	6	0.367145	-1.3161	-7.46952	-3.00014
 117	1	5	-0.590269	-1.094	-6.87266	-5.15694
 118	1	1	-0.041892	0.0304846	-10.2547	2.56289
 119	1	2	0.591489	-0.293637	-9.07957	1.65685
 120	1	3	0.048074	-0.327591	-10.0246	3.57313
 121	1	4	-0.651929	0.495678	-8.94262	0.543605
 122	1	3	0.049056	1.1142	-10.4097	2.61254
 123	1	5	-0.529683	-1.17055	-8.28552	1.92257
 124	1	2	0.758009	0.476236	-8.04768	-0.488047
 125	1	6	0.367145	1.20653	-9.63701	0.402616
 126	1	5	-0.590269	1.27949	-8.25219	-1.37308
 127	1	1	-0.041892	-0.0399417	-14.4646	4.42089
 128	1	2	0.591489	0.041059	-13.0135	3.95878
 129	1	3	0.048074	0.363307	-14.4921	5.43475
 130	1	4	-0.651929	-0.544261	-12.6949	2.75991
 131	1	3	0.049056	0.604187	-15.086	3.78937
 132	1	5	-0.529683	0.654098	-12.1846	4.59637
 133	1	2	0.758009	-0.648269	-11.5225	2.06454
 134	1	6	0.367145	-1.07688	-13.4341	2.32015
 135	1	5	-0.590269	-1.18197	-11.5907	0.978497
 136	1	1	-0.041892	-2.55967	-16.9463	7.43349
 137	1	2	0.591489	-1.54085	-16.2646	6.54149
 138	1	3	0.048074	-3.21155	-17.6026	6.84636
 139	1	4	-0.651929	-2.02053	-15.7638	5.35908
 140	1	3	0.049056	-2.01131	-17.5641	8.15426
 141	1	5	-0.529683	-0.365747	-16.232	6.83329
 142	1	2	0.758009	-1.46187	-15.0186	4.36026
 143	1	6	0.367145	-2.99387	-15.9251	5.17267
 144	1	5	-0.590269	-2.16455	-14.8566	3.38433
 145	1	1	-0.041892	-4.85191	-17.4306	11.3107
 146	1	2	0.591489	-4.27805	-17.4734	9.91314
 147	1	3	0.048074	-5.51204	-16.5658	11.4358
 148	1	4	-0.651929	-4.04493	-16.2539	9.33465
 149	1	3	0.049056	-4.02726	-17.2975	12.0199
 150	1	5	-0.529683	-4.01709	-18.5097	9.34153
 151	1	2	0.758009	-3.39977	-15.9181	8.17891
 152	1	6	0.367145	-4.43094	-15.4484	9.79468
 153	1	5	-0.590269	-3.49384	-14.763	7.82297
 154	1	1	-0.041892	-9.12222	-17.7595	12.0714
 155	1	2	0.591489	-7.85609	-17.8754	11.2518
 156	1	3	0.048074	-9.21772	-18.5918	12.7787
 157	1	4	-0.651929	-6.91801	-18.73	11.7566
 158	1	3	0.049056	-9.9921	-17.7651	11.4048
 159	1	5	-0.529683	-7.62798	-17.1496	10.3064
 160	1	2	0.758009	-5.56127	-18.7383	11.6328
 161	1	6	0.367145	-7.21785	-19.4379	12.4014
 162	1	5	-0.590269	-5.01199	-19.6012	12.2811
 163	1	1	-0.041892	-9.49891	-13.6322	13.9316
 164	1	2	0.591489	-10.5503	-14.7227	13.8056
 165	1	3	0.048074	-8.8694	-13.8116	14.8039
 166	1	4	-0.651929	-10.2438	-15.9139	13.2078
 167	1	3	0.049056	-8.8458	-13.6472	13.0522
 168	1	5	-0.529683	-11.7064	-14.5627	14.1289
 169	1	2	0.758009	-9.04304	-16.4531	12.8371
 170	1	6	0.367145	-11.0651	-16.4601	13.0213
 171	1	5	-0.590269	-7.98803	-15.9776	13.2074
 172	1	1	-0.041892	-9.81801	-10.2246	17.065
 173	1	2	0.591489	-9.75395	-11.5292	16.2976
 174	1	3	0.048074	-10.5501	-9.54726	16.6113
 175	1	4	-0.651929	-10.1513	-11.4223	14.9923
 176	1	3	0.049056	-8.83409	-9.74449	17.0108
 177	1	5	-0.529683	-9.27524	-12.5351	16.7744
 178	1	2	0.758009	-10.181	-12.2764	13.9276
 179	1	6	0.367145	-10.5387	-10.5399	14.712
 180	1	5	-0.590269	-10.5571	-11.7712	12.8925
 181	1	1	-0.041892	-10.7549	-10.2821	21.5873
 182	1	2	0.591489	-9.69047	-9.54541	20.7835
 183	1	3	0.048074	-10.9602	-9.70219	22.4949
 184	1	4	-0.651929	-9.56513	-9.68792	19.4271
 185	1	3	0.049056	-11.6973	-10.3732	21.0407
 186	1	5	-0.529683	-8.90382	-8.78778	21.3022
 187	1	2	0.758009	-10.2219	-10.4579	18.5046
 188	1	6	0.367145	-8.8329	-9.09514	19.0744
 189	1	5	-0.590269	-11.1447	-11.1816	18.8148
 190	1	1	-0.041892	-7.89832	-13.535	21.5214
 191	1	2	0.591489	-9.24689	-13.594	20.8106
 192	1	3	0.048074	-7.92022	-14.1901	22.3991
 193	1	4	-0.651929	-10.1266	-12.5667	20.9999
 194	1	3	0.049056	-7.7051	-12.5171	21.8735
 195	1	5	-0.529683	-9.46259	-14.3384	19.8778
 196	1	2	0.758009	-10.2119	-11.6336	21.9972
 197	1	6	0.367145	-10.7561	-12.4364	20.2154
 198	1	5	-0.590269	-9.70043	-11.8193	23.0798
 199	1	1	-0.041892	-6.32093	-13.7532	16.8878
 200	1	2	0.591489	-5.85083	-13.6224	18.3318
 201	1	3	0.048074	-6.34623	-12.7636	16.4167
 202	1	4	-0.651929	-6.82859	-13.7349	19.2872
 203	1	3	0.049056	-7.31927	-14.2012	16.8413
 204	1	5	-0.529683	-4.69989	-13.3454	18.5905
 205	1	2	0.758009	-6.69545	-13.8692	20.65
 206	1	6	0.367145	-7.77677	-13.8102	18.9459
 207	1	5	-0.590269	-5.62229	-14.0655	21.1769
 208	1	7	0	6.04895	22.5118	-3.67414
 209	1	3	0	-5.63193	-14.3981	16.3284

Velocities

   1	-0.000834681	-0.000839077	-0.000165918
   2	0.000434483	-4.17459e-05	-0.00106464
   3	-0.000965972	-0.00239227	-0.000273799
   4	0.00228103	0.000297337	-0.00270342
   5	-0.00177338	-0.000269622	0.000451306
   6	-0.000692592	0.000218413	0.000890231
   7	0.00293326	0.00056514	-0.00311841
   8	0.00241747	3.53798e-05	-0.00285475
   9	0.00230514	-0.000164999	-0.00225321
  10	0.000549665	5.91696e-05	-3.65058e-05
  11	-0.000375237	-5.38242e-05	-0.000119776
  12	0.00103901	0.0001244	-0.00014104
  13	-0.000705897	-0.000156872	-3.25483e-05
  14	0.000459644	8.96341e-05	0.000595685
  15	-0.00072806	-0.000242288	-0.000183831
  16	-0.000740167	-0.000344546	-0.000127586
  17	-0.00107043	-0.000309467	5.83735e-05
  18	-0.000286941	-0.000422758	-0.000606046
  19	-1.55356e-05	-0.000194853	-6.51882e-05
  20	0.000331185	-0.000135521	-0.00039655
  21	-3.80217e-06	-8.26288e-05	7.98952e-05
  22	0.000342325	6.61555e-05	-0.000388598
  23	-9.0561e-05	-0.000167267	0.000107631
  24	0.000457258	-0.000257097	-0.00053547
  25	0.000545219	0.000125699	-0.000382351
  26	0.000175812	0.000105435	-0.000125345
  27	0.000224886	0.000236327	0.000720886
  28	0.000193831	-0.00077179	0.000598
  29	-0.000268606	-0.000956394	0.000459163
  30	0.000549416	-0.000503899	0.000400983
  31	-0.000407733	-0.00153302	0.000185623
  32	0.000315246	-0.00101957	0.000874175
  33	-0.000465721	-0.00125712	0.000682582
  34	-0.000137713	-0.000281713	-0.000118046
  35	-0.000569588	-0.00279065	0.000412017
  36	0.000230807	0.00221348	-0.000877652
  37	-0.000165098	-0.000222069	-6.07436e-05
  38	-0.0012028	-0.000770337	0.00133839
  39	-0.00072159	0.00037745	-0.00133098
  40	-0.000881814	-0.000752182	0.0013127
  41	0.0013167	-0.000464697	-9.26605e-05
  42	-0.00197889	-0.00103196	0.00222921
  43	-0.000230744	-0.000765647	0.000708084
  44	-0.0010179	-0.000710763	0.00167721
  45	-0.00037339	-0.000972182	0.000698025
  46	-0.000567262	0.000238872	0.000658354
  47	-0.000744657	0.000112192	0.000634546
  48	-0.000479372	0.000319123	0.000725649
  49	-0.000761401	0.000206963	0.000341698
  50	-0.000618015	0.00020879	0.000828588
  51	-0.000600905	-1.97793e-05	0.000712221
  52	-0.00052102	-0.000165637	0.000176276
  53	-0.000906124	0.000507906	0.000182921
  54	-0.000526516	-0.00059721	0.0003513
  55	4.41496e-05	0.000509973	-0.000111443
  56	-0.000120788	0.000491674	-0.00016949
  57	-0.000291761	0.000736925	-7.96412e-06
  58	-0.000330307	0.000587485	0.000215088
  59	9.07519e-05	0.00029946	-0.00041737
  60	-4.65951e-05	0.000473322	-0.000258284
  61	-0.000437426	0.00035293	0.000329159
  62	-0.0003704	0.000698001	0.000494818
  63	-0.000101836	0.000202418	-0.000430846
  64	0.000745273	0.000437895	0.000193986
  65	0.000727488	0.000811426	0.000381361
  66	0.000497365	0.000218827	2.20305e-05
  67	0.000790632	0.000870217	0.000350081
  68	0.0010726	0.000157586	0.000372852
  69	0.000217311	0.000547408	0.000633618
  70	0.000569313	0.000562578	0.000227484
  71	0.000869553	0.00107596	0.000236078
  72	0.000710787	0.000241193	0.000288413
  73	-0.000121262	0.000358541	1.13455e-05
  74	-5.32676e-05	0.000334509	-0.000272128
  75	-7.07871e-05	0.000354607	-0.000144573
  76	-0.000149968	0.00049777	-0.000587268
  77	-6.47924e-05	0.000143252	0.000260078
  78	0.000263878	9.49729e-05	0.000147613
  79	0.000362237	0.000406391	-0.000147471
  80	-0.000774733	0.000727953	-0.00117816
  81	0.000161043	0.000429558	-0.00032307
  82	-0.000267747	5.7083e-05	0.000520877
  83	-0.000608364	0.000749711	0.000664071
  84	-0.000592443	-0.000374037	0.000639531
  85	-0.000490133	0.000823028	0.000564496
  86	-2.18974e-05	2.72222e-05	0.000312667
  87	-0.000984615	0.00118048	0.000686873
  88	-0.000329466	0.000668502	0.000184992
  89	-0.000328743	0.000922369	0.00059162
  90	0.00063259	0.000433318	-0.00012215
  91	-0.000249719	-0.000567095	0.000191433
  92	-0.000145918	-0.000635673	7.40164e-07
  93	-0.00039521	-0.000655252	0.000284345
  94	-7.65032e-05	-0.000661676	-0.000192077
  95	-0.000276552	-0.000481169	0.000324235
  96	-6.23943e-05	-0.000503386	0.000400414
  97	-0.000208216	-0.000282603	5.87624e-05
  98	-1.26182e-05	-0.000938524	-0.000633582
  99	-0.000129868	-0.00044461	-0.000399299
 100	0.000159079	2.66866e-05	0.000560271
 101	-3.5151e-06	0.000729001	0.000522378
 102	-0.000697843	-0.000486526	0.000729781
 103	-5.81795e-05	-0.0001686	0.000261311
 104	0.000220001	0.00075192	0.000587924
 105	0.000309769	0.00218099	0.000999427
 106	-0.000224896	-0.000359737	0.000174657
 107	-8.14294e-05	-0.000600253	8.01032e-05
 108	-0.000190589	-0.000749498	4.28152e-05
 109	0.000100172	-0.000682048	-5.50412e-05
 110	1.74119e-05	-0.000519416	0.000230122
 111	0.000196548	-0.000867363	7.11843e-05
 112	0.000613624	-0.000652417	0.000117077
 113	4.26351e-05	-0.000668911	-0.000117368
 114	-0.000293601	-0.000298811	0.000545996
 115	0.00101452	-0.000729741	0.000119204
 116	0.000808452	-0.000782776	-9.24055e-06
 117	0.00190626	-0.00100812	1.5987e-06
 118	-3.5596e-05	-6.39641e-05	-0.000454195
 119	-8.1918e-05	-0.000210649	-0.000385065
 120	8.60264e-06	-6.18644e-05	-0.000439876
 121	0.000362817	-0.000179942	4.38937e-06
 122	-1.38477e-05	-0.000116793	-0.000543229
 123	-0.000761529	-0.000755608	-0.000926354
 124	0.000196702	-0.000549982	-0.000200848
 125	0.000700266	5.78982e-05	0.00051221
 126	0.000760919	-3.57381e-05	0.000188933
 127	-0.000483172	0.000917697	-0.000238873
 128	-0.000549259	0.000758722	-0.000409078
 129	-0.000632668	0.00135302	-0.000185652
 130	0.000162649	0.000189031	-0.000892401
 131	-0.000385857	0.000815042	4.59723e-06
 132	-0.00144078	0.00106574	-1.8731e-05
 133	-0.000169222	0.000191471	-0.000710177
 134	0.0007494	-5.98127e-05	-0.00113487
 135	-0.000146505	0.000269024	-0.000730953
 136	-2.39873e-05	0.000201996	-0.000687599
 137	-0.000318873	0.000909293	-0.000441022
 138	-0.000503537	0.000960212	-0.00103574
 139	-0.000458792	0.000890261	-0.000407918
 140	7.1782e-05	-0.000618272	-0.00141927
 141	-0.000405674	0.00158749	-0.000235277
 142	-0.000484678	0.00102809	-0.000305452
 143	-0.000283926	0.000277177	-0.000773268
 144	3.163e-05	9.89669e-05	-0.000828297
 145	0.00109654	-0.000577142	-0.000315422
 146	-0.000347419	-0.00118032	-0.000881202
 147	0.00123537	-0.000469671	-0.000156944
 148	-8.22109e-05	-0.00104427	-0.000343516
 149	0.00178676	3.50808e-05	-0.001281
 150	-0.00058939	-0.00115474	-0.00109722
 151	0.000659708	-0.000117431	0.000397807
 152	4.7588e-05	-0.00125901	0.000141634
 153	0.00215389	0.000593571	0.00227752
 154	-0.00028503	0.000302123	-0.000578533
 155	0.00128442	-0.00019576	0.00164525
 156	-0.00244022	-0.000291189	-0.00154836
 157	0.00125435	2.40053e-05	0.00244556
 158	0.00113404	0.00154141	-0.00242576
 159	0.00174338	-0.00147642	0.000781633
 160	0.0013362	-0.000289477	0.00131694
 161	0.00111375	-0.00025756	0.00210117
 162	0.0023714	-0.000453323	0.000227356
 163	-0.000600914	9.54183e-05	0.000663271
 164	-0.000961086	0.000396347	0.000514904
 165	-0.00147859	0.000149321	0.00129826
 166	-0.00136392	0.000229662	0.000334083
 167	0.000205854	-0.000566435	0.00126958
 168	-0.000768437	0.000795076	0.0011611
 169	-0.00127521	-4.24618e-05	0.000490879
 170	-0.0015924	0.000468677	0.000571258
 171	-0.00144474	0.000181542	0.000638018
 172	-0.000446661	0.00181055	-0.000495254
 173	-6.85245e-05	0.00202571	-0.000851449
 174	0.000415314	0.00232539	-0.00116004
 175	-0.00085356	0.00107779	-0.000825914
 176	-0.000137271	0.00128656	0.000280078
 177	0.0022178	0.00296927	-0.00110144
 178	0.000290478	0.000619998	-0.000725885
 179	-0.00209437	0.000471164	-0.00119264
 180	0.00145294	0.000102327	-0.00143078
 181	-0.00169923	-0.00107637	0.000234267
 182	-0.00233542	0.000259614	0.000523239
 183	-0.00334705	-0.00121896	9.80612e-06
 184	-0.000272176	-0.000812949	0.000634617
 185	-0.00127733	-0.00383663	-7.75983e-05
 186	-0.00310309	0.000695416	0.00112313
 187	-0.00142652	0.00147998	-0.00055455
 188	0.00179605	-0.00271476	0.00153256
 189	-0.00365874	0.00385636	-0.00132873
 190	0.000667572	-0.00143179	0.000325668
 191	0.000947336	0.000918007	-0.000521986
 192	-8.0539e-05	-0.00370086	-0.00141867
 193	0.00110848	0.000957685	6.56765e-05
 194	0.00138191	-0.00249647	0.00281107
 195	0.000323326	0.00192551	-0.00111225
 196	0.001282	0.000658661	0.000348256
 197	5.31558e-05	0.000784741	0.000861032
 198	0.00394216	0.00241249	-0.000406817
 199	-0.000436682	-0.00141758	9.67179e-05
 200	0.00063187	-0.00167392	-0.000363625
 201	-0.00348348	-0.000899743	0.00120667
 202	0.000792461	-0.000761584	-4.16877e-06
 203	0.000539469	-0.00374828	0.000391837
 204	0.00124287	-0.00323294	-0.00109999
 205	0.00102423	-0.00017423	8.13197e-05
 206	0.000718522	5.69522e-05	0.000351944
 207	0.00109446	0.000209118	0.000166967
 208	0.0023931	0.000322397	-0.0024131
 209	0.000692226	0.000988816	-0.00141878

Bonds

   1	3	1	2
   2	4	1	3
   3	4	1	5
   4	2	2	4
   5	5	2	6
   6	2	4	7
   7	6	4	8
   8	5	7	9
   9	3	10	11
  10	4	10	12
  11	4	10	14
  12	2	11	13
  13	5	11	15
  14	2	13	16
  15	6	13	17
  16	5	16	18
  17	3	1	16
  18	3	19	20
  19	4	19	21
  20	4	19	23
  21	2	20	22
  22	5	20	24
  23	2	22	25
  24	6	22	26
  25	5	25	27
  26	3	10	25
  27	3	28	29
  28	4	28	30
  29	4	28	32
  30	2	29	31
  31	5	29	33
  32	2	31	34
  33	6	31	35
  34	5	34	36
  35	3	19	34
  36	3	37	38
  37	4	37	39
  38	4	37	41
  39	2	38	40
  40	5	38	42
  41	2	40	43
  42	6	40	44
  43	5	43	45
  44	3	28	43
  45	3	46	47
  46	4	46	48
  47	4	46	50
  48	2	47	49
  49	5	47	51
  50	2	49	52
  51	6	49	53
  52	5	52	54
  53	3	37	52
  54	3	55	56
  55	4	55	57
  56	4	55	59
  57	2	56	58
  58	5	56	60
  59	2	58	61
  60	6	58	62
  61	5	61	63
  62	3	46	61
  63	3	64	65
  64	4	64	66
  65	4	64	68
  66	2	65	67
  67	5	65	69
  68	2	67	70
  69	6	67	71
  70	5	70	72
  71	3	55	70
  72	3	73	74
  73	4	73	75
  74	4	73	77
  75	2	74	76
  76	5	74	78
  77	2	76	79
  78	6	76	80
  79	5	79	81
  80	3	64	79
  81	3	82	83
  82	4	82	84
  83	4	82	86
  84	2	83	85
  85	5	83	87
  86	2	85	88
  87	6	85	89
  88	5	88	90
  89	3	73	88
  90	3	91	92
  91	4	91	93
  92	4	91	95
  93	2	92	94
  94	5	92	96
  95	2	94	97
  96	6	94	98
  97	5	97	99
  98	3	82	97
  99	3	100	101
 100	4	100	102
 101	4	100	104
 102	2	101	103
 103	5	101	105
 104	2	103	106
 105	6	103	107
 106	5	106	108
 107	3	91	106
 108	3	109	110
 109	4	109	111
 110	4	109	113
 111	2	110	112
 112	5	110	114
 113	2	112	115
 114	6	112	116
 115	5	115	117
 116	3	100	115
 117	3	118	119
 118	4	118	120
 119	4	118	122
 120	2	119	121
 121	5	119	123
 122	2	121	124
 123	6	121	125
 124	5	124	126
 125	3	109	124
 126	3	127	128
 127	4	127	129
 128	4	127	131
 129	2	128	130
 130	5	128	132
 131	2	130	133
 132	6	130	134
 133	5	133	135
 134	3	118	133
 135	3	136	137
 136	4	136	138
 137	4	136	140
 138	2	137	139
 139	5	137	141
 140	2	139	142
 141	6	139	143
 142	5	142	144
 143	3	127	142
 144	3	145	146
 145	4	145	147
 146	4	145	149
 147	2	146	148
 148	5	146	150
 149	2	148	151
 150	6	148	152
 151	5	151	153
 152	3	136	151
 153	3	154	155
 154	4	154	156
 155	4	154	158
 156	2	155	157
 157	5	155	159
 158	2	157	160
 159	6	157	161
 160	5	160	162
 161	3	145	160
 162	3	163	164
 163	4	163	165
 164	4	163	167
 165	2	164	166
 166	5	164	168
 167	2	166	169
 168	6	166	170
 169	5	169	171
 170	3	154	169
 171	3	172	173
 172	4	172	174
 173	4	172	176
 174	2	173	175
 175	5	173	177
 176	2	175	178
 177	6	175	179
 178	5	178	180
 179	3	163	178
 180	3	181	182
 181	4	181	183
 182	4	181	185
 183	2	182	184
 184	5	182	186
 185	2	184	187
 186	6	184	188
 187	5	187	189
 188	3	172	187
 189	3	190	191
 190	4	190	192
 191	4	190	194
 192	2	191	193
 193	5	191	195
 194	2	193	196
 195	6	193	197
 196	5	196	198
 197	3	181	196
 198	3	199	200
 199	4	199	201
 200	4	199	203
 201	2	200	202
 202	5	200	204
 203	2	202	205
 204	6	202	206
 205	5	205	207
 206	3	190	205
 207	1	7	208
 208	4	199	209

Angles

   1	7	2	1	3
   2	7	2	1	5
   3	4	3	1	5
   4	8	1	2	4
   5	6	1	2	6
   6	2	4	2	6
   7	5	2	4	7
   8	1	2	4	8
   9	1	7	4	8
  10	2	4	7	9
  11	7	11	10	12
  12	7	11	10	14
  13	4	12	10	14
  14	8	10	11	13
  15	6	10	11	15
  16	2	13	11	15
  17	5	11	13	16
  18	1	11	13	17
  19	1	16	13	17
  20	2	13	16	18
  21	10	2	1	16
  22	7	3	1	16
  23	7	5	1	16
  24	8	1	16	13
  25	6	1	16	18
  26	7	20	19	21
  27	7	20	19	23
  28	4	21	19	23
  29	8	19	20	22
  30	6	19	20	24
  31	2	22	20	24
  32	5	20	22	25
  33	1	20	22	26
  34	1	25	22	26
  35	2	22	25	27
  36	10	11	10	25
  37	7	12	10	25
  38	7	14	10	25
  39	8	10	25	22
  40	6	10	25	27
  41	7	29	28	30
  42	7	29	28	32
  43	4	30	28	32
  44	8	28	29	31
  45	6	28	29	33
  46	2	31	29	33
  47	5	29	31	34
  48	1	29	31	35
  49	1	34	31	35
  50	2	31	34	36
  51	10	20	19	34
  52	7	21	19	34
  53	7	23	19	34
  54	8	19	34	31
  55	6	19	34	36
  56	7	38	37	39
  57	7	38	37	41
  58	4	39	37	41
  59	8	37	38	40
  60	6	37	38	42
  61	2	40	38	42
  62	5	38	40	43
  63	1	38	40	44
  64	1	43	40	44
  65	2	40	43	45
  66	10	29	28	43
  67	7	30	28	43
  68	7	32	28	43
  69	8	28	43	40
  70	6	28	43	45
  71	7	47	46	48
  72	7	47	46	50
  73	4	48	46	50
  74	8	46	47	49
  75	6	46	47	51
  76	2	49	47	51
  77	5	47	49	52
  78	1	47	49	53
  79	1	52	49	53
  80	2	49	52	54
  81	10	38	37	52
  82	7	39	37	52
  83	7	41	37	52
  84	8	37	52	49
  85	6	37	52	54
  86	7	56	55	57
  87	7	56	55	59
  88	4	57	55	59
  89	8	55	56	58
  90	6	55	56	60
  91	2	58	56	60
  92	5	56	58	61
  93	1	56	58	62
  94	1	61	58	62
  95	2	58	61	63
  96	10	47	46	61
  97	7	48	46	61
  98	7	50	46	61
  99	8	46	61	58
 100	6	46	61	63
 101	7	65	64	66
 102	7	65	64	68
 103	4	66	64	68
 104	8	64	65	67
 105	6	64	65	69
 106	2	67	65	69
 107	5	65	67	70
 108	1	65	67	71
 109	1	70	67	71
 110	2	67	70	72
 111	10	56	55	70
 112	7	57	55	70
 113	7	59	55	70
 114	8	55	70	67
 115	6	55	70	72
 116	7	74	73	75
 117	7	74	73	77
 118	4	75	73	77
 119	8	73	74	76
 120	6	73	74	78
 121	2	76	74	78
 122	5	74	76	79
 123	1	74	76	80
 124	1	79	76	80
 125	2	76	79	81
 126	10	65	64	79
 127	7	66	64	79
 128	7	68	64	79
 129	8	64	79	76
 130	6	64	79	81
 131	7	83	82	84
 132	7	83	82	86
 133	4	84	82	86
 134	8	82	83	85
 135	6	82	83	87
 136	2	85	83	87
 137	5	83	85	88
 138	1	83	85	89
 139	1	88	85	89
 140	2	85	88	90
 141	10	74	73	88
 142	7	75	73	88
 143	7	77	73	88
 144	8	73	88	85
 145	6	73	88	90
 146	7	92	91	93
 147	7	92	91	95
 148	4	93	91	95
 149	8	91	92	94
 150	6	91	92	96
 151	2	94	92	96
 152	5	92	94	97
 153	1	92	94	98
 154	1	97	94	98
 155	2	94	97	99
 156	10	83	82	97
 157	7	84	82	97
 158	7	86	82	97
 159	8	82	97	94
 160	6	82	97	99
 161	7	101	100	102
 162	7	101	100	104
 163	4	102	100	104
 164	8	100	101	103
 165	6	100	101	105
 166	2	103	101	105
 167	5	101	103	106
 168	1	101	103	107
 169	1	106	103	107
 170	2	103	106	108
 171	10	92	91	106
 172	7	93	91	106
 173	7	95	91	106
 174	8	91	106	103
 175	6	91	106	108
 176	7	110	109	111
 177	7	110	109	113
 178	4	111	109	113
 179	8	109	110	112
 180	6	109	110	114
 181	2	112	110	114
 182	5	110	112	115
 183	1	110	112	116
 184	1	115	112	116
 185	2	112	115	117
 186	10	101	100	115
 187	7	102	100	115
 188	7	104	100	115
 189	8	100	115	112
 190	6	100	115	117
 191	7	119	118	120
 192	7	119	118	122
 193	4	120	118	122
 194	8	118	119	121
 195	6	118	119	123
 196	2	121	119	123
 197	5	119	121	124
 198	1	119	121	125
 199	1	124	121	125
 200	2	121	124	126
 201	10	110	109	124
 202	7	111	109	124
 203	7	113	109	124
 204	8	109	124	121
 205	6	109	124	126
 206	7	128	127	129
 207	7	128	127	131
 208	4	129	127	131
 209	8	127	128	130
 210	6	127	128	132
 211	2	130	128	132
 212	5	128	130	133
 213	1	128	130	134
 214	1	133	130	134
 215	2	130	133	135
 216	10	119	118	133
 217	7	120	118	133
 218	7	122	118	133
 219	8	118	133	130
 220	6	118	133	135
 221	7	137	136	138
 222	7	137	136	140
 223	4	138	136	140
 224	8	136	137	139
 225	6	136	137	141
 226	2	139	137	141
 227	5	137	139	142
 228	1	137	139	143
 229	1	142	139	143
 230	2	139	142	144
 231	10	128	127	142
 232	7	129	127	142
 233	7	131	127	142
 234	8	127	142	139
 235	6	127	142	144
 236	7	146	145	147
 237	7	146	145	149
 238	4	147	145	149
 239	8	145	146	148
 240	6	145	146	150
 241	2	148	146	150
 242	5	146	148	151
 243	1	146	148	152
 244	1	151	148	152
 245	2	148	151	153
 246	10	137	136	151
 247	7	138	136	151
 248	7	140	136	151
 249	8	136	151	148
 250	6	136	151	153
 251	7	155	154	156
 252	7	155	154	158
 253	4	156	154	158
 254	8	154	155	157
 255	6	154	155	159
 256	2	157	155	159
 257	5	155	157	160
 258	1	155	157	161
 259	1	160	157	161
 260	2	157	160	162
 261	10	146	145	160
 262	7	147	145	160
 263	7	149	145	160
 264	8	145	160	157
 265	6	145	160	162
 266	7	164	163	165
 267	7	164	163	167
 268	4	165	163	167
 269	8	163	164	166
 270	6	163	164	168
 271	2	166	164	168
 272	5	164	166	169
 273	1	164	166	170
 274	1	169	166	170
 275	2	166	169	171
 276	10	155	154	169
 277	7	156	154	169
 278	7	158	154	169
 279	8	154	169	166
 280	6	154	169	171
 281	7	173	172	174
 282	7	173	172	176
 283	4	174	172	176
 284	8	172	173	175
 285	6	172	173	177
 286	2	175	173	177
 287	5	173	175	178
 288	1	173	175	179
 289	1	178	175	179
 290	2	175	178	180
 291	10	164	163	178
 292	7	165	163	178
 293	7	167	163	178
 294	8	163	178	175
 295	6	163	178	180
 296	7	182	181	183
 297	7	182	181	185
 298	4	183	181	185
 299	8	181	182	184
 300	6	181	182	186
 301	2	184	182	186
 302	5	182	184	187
 303	1	182	184	188
 304	1	187	184	188
 305	2	184	187	189
 306	10	173	172	187
 307	7	174	172	187
 308	7	176	172	187
 309	8	172	187	184
 310	6	172	187	189
 311	7	191	190	192
 312	7	191	190	194
 313	4	192	190	194
 314	8	190	191	193
 315	6	190	191	195
 316	2	193	191	195
 317	5	191	193	196
 318	1	191	193	197
 319	1	196	193	197
 320	2	193	196	198
 321	10	182	181	196
 322	7	183	181	196
 323	7	185	181	196
 324	8	181	196	193
 325	6	181	196	198
 326	7	200	199	201
 327	7	200	199	203
 328	4	201	199	203
 329	8	199	200	202
 330	6	199	200	204
 331	2	202	200	204
 332	5	200	202	205
 333	1	200	202	206
 334	1	205	202	206
 335	2	202	205	207
 336	10	191	190	205
 337	7	192	190	205
 338	7	194	190	205
 339	8	190	205	202
 340	6	190	205	207
 341	9	4	7	208
 342	3	9	7	208
 343	7	200	199	209
 344	4	201	199	209
 345	4	203	199	209

Dihedrals

   1	4	3	1	2	4
   2	1	3	1	2	6
   3	4	5	1	2	4
   4	1	5	1	2	6
   5	2	1	2	4	7
   6	2	1	2	4	8
   7	2	6	2	4	7
   8	3	6	2	4	8
   9	2	2	4	7	9
  10	3	8	4	7	9
  11	4	12	10	11	13
  12	1	12	10	11	15
  13	4	14	10	11	13
  14	1	14	10	11	15
  15	2	10	11	13	16
  16	2	10	11	13	17
  17	2	15	11	13	16
  18	3	15	11	13	17
  19	2	11	13	16	18
  20	3	17	13	16	18
  21	4	4	2	1	16
  22	4	6	2	1	16
  23	2	1	16	13	11
  24	2	1	16	13	17
  25	4	2	1	16	13
  26	4	2	1	16	18
  27	4	3	1	16	13
  28	1	3	1	16	18
  29	4	5	1	16	13
  30	1	5	1	16	18
  31	4	21	19	20	22
  32	1	21	19	20	24
  33	4	23	19	20	22
  34	1	23	19	20	24
  35	2	19	20	22	25
  36	2	19	20	22	26
  37	2	24	20	22	25
  38	3	24	20	22	26
  39	2	20	22	25	27
  40	3	26	22	25	27
  41	4	13	11	10	25
  42	4	15	11	10	25
  43	2	10	25	22	20
  44	2	10	25	22	26
  45	4	11	10	25	22
  46	4	11	10	25	27
  47	4	12	10	25	22
  48	1	12	10	25	27
  49	4	14	10	25	22
  50	1	14	10	25	27
  51	4	30	28	29	31
  52	1	30	28	29	33
  53	4	32	28	29	31
  54	1	32	28	29	33
  55	2	28	29	31	34
  56	2	28	29	31	35
  57	2	33	29	31	34
  58	3	33	29	31	35
  59	2	29	31	34	36
  60	3	35	31	34	36
  61	4	22	20	19	34
  62	4	24	20	19	34
  63	2	19	34	31	29
  64	2	19	34	31	35
  65	4	20	19	34	31
  66	4	20	19	34	36
  67	4	21	19	34	31
  68	1	21	19	34	36
  69	4	23	19	34	31
  70	1	23	19	34	36
  71	4	39	37	38	40
  72	1	39	37	38	42
  73	4	41	37	38	40
  74	1	41	37	38	42
  75	2	37	38	40	43
  76	2	37	38	40	44
  77	2	42	38	40	43
  78	3	42	38	40	44
  79	2	38	40	43	45
  80	3	44	40	43	45
  81	4	31	29	28	43
  82	4	33	29	28	43
  83	2	28	43	40	38
  84	2	28	43	40	44
  85	4	29	28	43	40
  86	4	29	28	43	45
  87	4	30	28	43	40
  88	1	30	28	43	45
  89	4	32	28	43	40
  90	1	32	28	43	45
  91	4	48	46	47	49
  92	1	48	46	47	51
  93	4	50	46	47	49
  94	1	50	46	47	51
  95	2	46	47	49	52
  96	2	46	47	49	53
  97	2	51	47	49	52
  98	3	51	47	49	53
  99	2	47	49	52	54
 100	3	53	49	52	54
 101	4	40	38	37	52
 102	4	42	38	37	52