pySIMM System Object

326 atoms
325 bonds
540 angles
714 dihedrals
72 impropers

7 atom types
6 bond types
10 angle types
4 dihedral types
2 improper types

-107.329504 107.329504 xlo xhi
-107.329504 107.329504 ylo yhi
-107.329504 107.329504 zlo zhi

Masses

   1	12.01	# c3
   2	12.01	# c
   3	1.008	# hc
   4	14.01	# n
   5	16.0	# o
   6	1.008	# hn
   7	1.008	# h5

Pair Coeffs

   1	0.1094	3.3996695084235347	# c3
   2	0.086	3.3996695084235347	# c
   3	0.0157	2.649532787749369	# hc
   4	0.17	3.249998523775958	# n
   5	0.21	2.959921901149463	# o
   6	0.0157	1.069078461768407	# hn
   7	0.015	2.421462715905442	# h5

Bond Coeffs

   1	319.7	1.1051	# c,h5
   2	427.6	1.3789	# c,n
   3	313.0	1.5241	# c,c3
   4	330.6	1.0969	# c3,hc
   5	637.7	1.2183	# c,o
   6	403.2	1.0129	# hn,n

Angle Coeffs

   1	48.33	117.55	# c,n,hn
   2	74.22	123.05	# n,c,o
   3	53.7	123.65	# h5,c,o
   4	39.4	107.58	# hc,c3,hc
   5	63.74	127.08	# c,n,c
   6	67.4	123.2	# c3,c,o
   7	46.93	108.77	# c,c3,hc
   8	66.79	115.18	# c3,c,n
   9	51.42	112.16	# h5,c,n
  10	63.38	111.63	# c,c3,c

Dihedral Coeffs

   1	3	0.8	1	0	0.0	2	0	0.08	3	180	# hc,c3,c,o
   2	1	2.5	2	180	# X,c,n,X
   3	2	2.5	2	180	2.0	1	0	# hn,n,c,o
   4	1	0.0	2	180	# X,c,c3,X

Improper Coeffs

   1	10.5	-1	2	# c,X,X,o
   2	1.1	-1	2	# n,X,X,hn

Atoms

   1	1	1	-0.041892	-16.0498	0.148277	14.42
   2	1	2	0.591489	-17.4444	0.639933	14.1052
   3	1	3	0.048074	-15.5445	0.839466	15.1056
   4	1	4	-0.651929	-17.7448	1.92198	14.4583
   5	1	3	0.049056	-16.1213	-0.826352	14.9158
   6	1	5	-0.529683	-18.2636	-0.0769245	13.5707
   7	1	2	0.758009	-18.9353	2.55997	14.2976
   8	1	6	0.367145	-17.043	2.499	14.8871
   9	1	5	-0.590269	-19.0494	3.69656	14.7009
  10	1	1	-0.041892	-13.8199	-0.913205	10.5824
  11	1	2	0.591489	-15.2667	-1.19985	10.9546
  12	1	3	0.048074	-13.6768	0.155614	10.3918
  13	1	4	-0.651929	-15.7709	-0.764617	12.1522
  14	1	3	0.049056	-13.1749	-1.18792	11.4244
  15	1	5	-0.529683	-16.0013	-1.87506	10.2656
  16	1	2	0.758009	-15.2303	0.00266734	13.1521
  17	1	6	0.367145	-16.7299	-1.05086	12.2883
  18	1	5	-0.590269	-14.1162	0.474586	13.0783
  19	1	1	-0.041892	-14.3307	-0.168864	6.08308
  20	1	2	0.591489	-14.3681	-0.319776	7.58582
  21	1	3	0.048074	-13.8643	-1.0441	5.6146
  22	1	4	-0.651929	-13.5999	-1.32692	8.10413
  23	1	3	0.049056	-15.3516	-0.0799783	5.69435
  24	1	5	-0.529683	-15.0309	0.426508	8.2717
  25	1	2	0.758009	-13.381	-1.74246	9.38732
  26	1	6	0.367145	-13.1047	-1.91188	7.4555
  27	1	5	-0.590269	-12.622	-2.68029	9.50852
  28	1	1	-0.041892	-12.4582	3.94416	4.99742
  29	1	2	0.591489	-13.8923	3.50546	5.24759
  30	1	3	0.048074	-11.7213	3.23498	5.37502
  31	1	4	-0.651929	-14.2365	2.22277	5.58456
  32	1	3	0.049056	-12.2983	4.05086	3.91833
  33	1	5	-0.529683	-14.8082	4.28361	5.10518
  34	1	2	0.758009	-13.5218	1.0655	5.75383
  35	1	6	0.367145	-15.2237	2.15	5.76381
  36	1	5	-0.590269	-12.3347	0.983081	5.52894
  37	1	1	-0.041892	-11.129	8.0602	6.47969
  38	1	2	0.591489	-11.8351	7.67459	5.18692
  39	1	3	0.048074	-10.4194	7.27961	6.77518
  40	1	4	-0.651929	-12.2021	6.38024	4.9322
  41	1	3	0.049056	-10.5379	8.96537	6.3007
  42	1	5	-0.529683	-11.9384	8.44903	4.26182
  43	1	2	0.758009	-12.2104	5.2563	5.71455
  44	1	6	0.367145	-12.555	6.27394	3.99769
  45	1	5	-0.590269	-11.8706	5.29083	6.879
  46	1	1	-0.041892	-13.4767	8.94258	10.3377
  47	1	2	0.591489	-12.272	8.04056	10.0798
  48	1	3	0.048074	-13.2633	9.96974	10.028
  49	1	4	-0.651929	-11.7437	7.88863	8.82792
  50	1	3	0.049056	-14.3218	8.59648	9.73257
  51	1	5	-0.529683	-11.7005	7.43499	10.9632
  52	1	2	0.758009	-12.1162	8.35381	7.59554
  53	1	6	0.367145	-10.9436	7.2795	8.83538
  54	1	5	-0.590269	-13.0917	9.05786	7.44278
  55	1	1	-0.041892	-11.0739	10.4291	13.7752
  56	1	2	0.591489	-12.1269	10.3902	12.6906
  57	1	3	0.048074	-10.8402	11.4756	14.0017
  58	1	4	-0.651929	-13.0583	9.39267	12.7714
  59	1	3	0.049056	-11.4208	9.97229	14.7052
  60	1	5	-0.529683	-12.1339	11.1892	11.7798
  61	1	2	0.758009	-13.8774	8.86378	11.81
  62	1	6	0.367145	-13.1048	8.86774	13.6302
  63	1	5	-0.590269	-14.6791	8.03769	12.1925
  64	1	1	-0.041892	-9.94318	5.97924	13.4398
  65	1	2	0.591489	-10.3491	7.38966	13.8227
  66	1	3	0.048074	-10.5899	5.27588	13.9772
  67	1	4	-0.651929	-9.67416	8.40564	13.2011
  68	1	3	0.049056	-10.1198	5.81662	12.373
  69	1	5	-0.529683	-11.2361	7.60653	14.6232
  70	1	2	0.758009	-9.82915	9.76395	13.2064
  71	1	6	0.367145	-8.96418	8.12813	12.5339
  72	1	5	-0.590269	-8.9994	10.3973	12.5917
  73	1	1	-0.041892	-6.34698	5.42348	10.7224
  74	1	2	0.591489	-7.48916	5.97547	11.5593
  75	1	3	0.048074	-5.43763	5.90662	11.0819
  76	1	4	-0.651929	-7.56796	5.48214	12.8351
  77	1	3	0.049056	-6.24872	4.34519	10.8952
  78	1	5	-0.529683	-8.18288	6.9127	11.225
  79	1	2	0.758009	-8.50138	5.66746	13.8185
  80	1	6	0.367145	-6.80337	4.91453	13.1567
  81	1	5	-0.590269	-8.21703	5.19223	14.8957
  82	1	1	-0.041892	-3.32302	5.52623	7.23929
  83	1	2	0.591489	-4.14313	5.62493	8.5124
  84	1	3	0.048074	-3.95298	5.71741	6.36316
  85	1	4	-0.651929	-5.50677	5.60963	8.34794
  86	1	3	0.049056	-2.54545	6.29833	7.27127
  87	1	5	-0.529683	-3.62115	5.79711	9.59206
  88	1	2	0.758009	-6.55872	5.64103	9.22421
  89	1	6	0.367145	-5.84323	5.55235	7.40412
  90	1	5	-0.590269	-7.64513	5.51752	8.69869
  91	1	1	-0.041892	-0.395937	4.08584	4.01357
  92	1	2	0.591489	-1.42561	4.64465	4.98943
  93	1	3	0.048074	0.607506	4.18702	4.44093
  94	1	4	-0.651929	-1.81298	3.88809	6.06755
  95	1	3	0.049056	-0.454178	4.73779	3.14053
  96	1	5	-0.529683	-1.86836	5.76117	4.82532
  97	1	2	0.758009	-2.66767	4.15556	7.10614
  98	1	6	0.367145	-1.48799	2.93021	6.08233
  99	1	5	-0.590269	-2.9544	3.22214	7.8241
 100	1	1	-0.041892	1.32621	1.8258	0.404549
 101	1	2	0.591489	0.646886	2.72682	1.41711
 102	1	3	0.048074	0.994628	2.14866	-0.584703
 103	1	4	-0.651929	0.00852396	2.12443	2.47714
 104	1	3	0.049056	1.04337	0.776107	0.541253
 105	1	5	-0.529683	0.660765	3.92732	1.26585
 106	1	2	0.758009	-0.603091	2.63168	3.59555
 107	1	6	0.367145	-0.0150645	1.12055	2.48013
 108	1	5	-0.590269	-1.0262	1.80193	4.37363
 109	1	1	-0.041892	4.85034	1.25053	-2.53264
 110	1	2	0.591489	3.57717	1.62382	-1.80034
 111	1	3	0.048074	5.29197	0.377689	-2.03833
 112	1	4	-0.651929	3.71318	1.7965	-0.446387
 113	1	3	0.049056	4.62438	0.940844	-3.55462
 114	1	5	-0.529683	2.50454	1.68469	-2.36794
 115	1	2	0.758009	2.83083	1.97935	0.582523
 116	1	6	0.367145	4.66335	1.80774	-0.103271
 117	1	5	-0.590269	3.32281	2.02186	1.68978
 118	1	1	-0.041892	6.64001	4.03969	-5.76476
 119	1	2	0.591489	5.81873	3.17041	-4.83653
 120	1	3	0.048074	6.24984	3.95602	-6.78572
 121	1	4	-0.651929	6.30891	3.05189	-3.56112
 122	1	3	0.049056	7.66281	3.66425	-5.77249
 123	1	5	-0.529683	4.78455	2.6467	-5.18878
 124	1	2	0.758009	5.8595	2.38337	-2.45846
 125	1	6	0.367145	7.12852	3.58832	-3.33651
 126	1	5	-0.590269	6.43742	2.6235	-1.42042
 127	1	1	-0.041892	9.77165	7.23656	-4.46433
 128	1	2	0.591489	8.95315	6.06445	-4.96745
 129	1	3	0.048074	9.1327	8.01272	-4.02695
 130	1	4	-0.651929	7.59245	6.23557	-4.91335
 131	1	3	0.049056	10.2712	7.65734	-5.33989
 132	1	5	-0.529683	9.47803	5.11005	-5.50212
 133	1	2	0.758009	6.51881	5.4897	-5.31688
 134	1	6	0.367145	7.26858	7.10788	-4.53202
 135	1	5	-0.590269	5.44372	6.00405	-5.10779
 136	1	1	-0.041892	13.5489	9.31483	-2.87413
 137	1	2	0.591489	12.3765	8.70252	-3.61348
 138	1	3	0.048074	13.2708	10.3318	-2.57374
 139	1	4	-0.651929	11.8432	7.56391	-3.06821
 140	1	3	0.049056	13.7849	8.76322	-1.958
 141	1	5	-0.529683	11.9377	9.19182	-4.6292
 142	1	2	0.758009	10.7788	6.77981	-3.41699
 143	1	6	0.367145	12.3467	7.16677	-2.29054
 144	1	5	-0.590269	10.5878	5.81052	-2.71669
 145	1	1	-0.041892	16.7394	6.16171	-3.83509
 146	1	2	0.591489	15.5802	7.05312	-3.45084
 147	1	3	0.048074	16.8135	5.32873	-3.1264
 148	1	4	-0.651929	15.6319	8.34377	-3.90113
 149	1	3	0.049056	17.6806	6.72403	-3.80671
 150	1	5	-0.529683	14.5986	6.5953	-2.90316
 151	1	2	0.758009	14.7597	9.39195	-3.79034
 152	1	6	0.367145	16.4372	8.61301	-4.44493
 153	1	5	-0.590269	15.1198	10.4311	-4.29353
 154	1	1	-0.041892	13.2641	4.10954	-6.45435
 155	1	2	0.591489	14.7103	4.5448	-6.56971
 156	1	3	0.048074	12.7164	4.46613	-7.33469
 157	1	4	-0.651929	15.2666	5.0501	-5.42288
 158	1	3	0.049056	12.7886	4.53029	-5.56121
 159	1	5	-0.529683	15.3243	4.40533	-7.60452
 160	1	2	0.758009	16.5013	5.6169	-5.22654
 161	1	6	0.367145	14.6839	5.01451	-4.60257
 162	1	5	-0.590269	17.2735	5.86581	-6.12447
 163	1	1	-0.041892	12.8471	-0.463724	-6.87284
 164	1	2	0.591489	11.9818	0.670184	-7.39648
 165	1	3	0.048074	13.1375	-0.289933	-5.835
 166	1	4	-0.651929	12.2743	1.98416	-7.14153
 167	1	3	0.049056	12.264	-1.39211	-6.89214
 168	1	5	-0.529683	11.0044	0.471962	-8.08153
 169	1	2	0.758009	13.2298	2.60099	-6.38008
 170	1	6	0.367145	11.6324	2.59017	-7.62218
 171	1	5	-0.590269	14.0475	1.98407	-5.72761
 172	1	1	-0.041892	17.2806	1.32836	-7.54235
 173	1	2	0.591489	16.2979	0.358977	-8.16226
 174	1	3	0.048074	16.752	2.0776	-6.94085
 175	1	4	-0.651929	15.1359	0.148103	-7.46644
 176	1	3	0.049056	17.8279	1.85094	-8.33483
 177	1	5	-0.529683	16.5989	-0.238065	-9.17206
 178	1	2	0.758009	14.0516	-0.63186	-7.77818
 179	1	6	0.367145	15.0186	0.680544	-6.61025
 180	1	5	-0.590269	14.0151	-1.34753	-8.75349
 181	1	1	-0.041892	19.6248	-1.85888	-5.18266
 182	1	2	0.591489	19.4722	-1.64806	-6.68556
 183	1	3	0.048074	20.441	-2.57109	-5.01285
 184	1	4	-0.651929	18.8036	-0.571294	-7.21461
 185	1	3	0.049056	19.8885	-0.931262	-4.66668
 186	1	5	-0.529683	19.8678	-2.47449	-7.47405
 187	1	2	0.758009	18.2542	0.563088	-6.67209
 188	1	6	0.367145	18.6397	-0.694208	-8.20723
 189	1	5	-0.590269	18.3385	0.794391	-5.48297
 190	1	1	-0.041892	15.3807	-3.12416	-4.01705
 191	1	2	0.591489	15.9539	-1.76265	-4.38505
 192	1	3	0.048074	15.6895	-3.37801	-2.99745
 193	1	4	-0.651929	17.2864	-1.59776	-4.58789
 194	1	3	0.049056	15.7936	-3.88254	-4.69252
 195	1	5	-0.529683	15.2871	-0.759724	-4.52642
 196	1	2	0.758009	18.348	-2.45371	-4.61939
 197	1	6	0.367145	17.5191	-0.636601	-4.7962
 198	1	5	-0.590269	18.2532	-3.60464	-4.25204
 199	1	1	-0.041892	10.7999	-3.06464	-3.73948
 200	1	2	0.591489	11.787	-1.92506	-3.55328
 201	1	3	0.048074	11.2707	-4.03133	-3.54172
 202	1	4	-0.651929	13.1325	-2.1592	-3.61423
 203	1	3	0.049056	10.4683	-3.04363	-4.78199
 204	1	5	-0.529683	11.4502	-0.764205	-3.4541
 205	1	2	0.758009	13.8652	-3.20507	-4.11765
 206	1	6	0.367145	13.6682	-1.3312	-3.4017
 207	1	5	-0.590269	13.3382	-4.12443	-4.70302
 208	1	1	-0.041892	7.4598	-6.04322	-3.37275
 209	1	2	0.591489	8.47188	-4.99013	-3.7515
 210	1	3	0.048074	6.83909	-6.23445	-4.25396
 211	1	4	-0.651929	8.68544	-3.99215	-2.83435
 212	1	3	0.049056	6.81358	-5.70053	-2.5569
 213	1	5	-0.529683	9.032	-5.02707	-4.82491
 214	1	2	0.758009	9.60978	-2.98688	-2.79764
 215	1	6	0.367145	8.11481	-3.98872	-2.00926
 216	1	5	-0.590269	9.60076	-2.32708	-1.7802
 217	1	1	-0.041892	5.74985	-10.0641	-2.1691
 218	1	2	0.591489	6.15658	-8.76046	-2.81862
 219	1	3	0.048074	6.38397	-10.8758	-2.54355
 220	1	4	-0.651929	7.47565	-8.4346	-2.64998
 221	1	3	0.049056	5.91549	-9.98157	-1.08851
 222	1	5	-0.529683	5.38746	-8.07091	-3.44985
 223	1	2	0.758009	8.18643	-7.31088	-2.95596
 224	1	6	0.367145	8.06702	-9.10773	-2.19532
 225	1	5	-0.590269	9.32622	-7.31121	-2.54421
 226	1	1	-0.041892	1.62222	-11.8261	-3.06025
 227	1	2	0.591489	2.94325	-11.9772	-3.7987
 228	1	3	0.048074	1.68206	-12.3321	-2.08974
 229	1	4	-0.651929	4.05554	-11.2762	-3.4222
 230	1	3	0.049056	1.40628	-10.7672	-2.88204
 231	1	5	-0.529683	3.10401	-12.7835	-4.68717
 232	1	2	0.758009	4.28512	-10.378	-2.41311
 233	1	6	0.367145	4.83653	-11.4899	-4.01534
 234	1	5	-0.590269	3.44103	-10.1321	-1.57822
 235	1	1	-0.041892	-1.85053	-13.8987	-5.19718
 236	1	2	0.591489	-1.06806	-14.3428	-3.97035
 237	1	3	0.048074	-2.20686	-12.8708	-5.08303
 238	1	4	-0.651929	-0.0287571	-13.5889	-3.49332
 239	1	3	0.049056	-1.18405	-13.9211	-6.06696
 240	1	5	-0.529683	-1.29905	-15.3772	-3.38015
 241	1	2	0.758009	0.494603	-12.3883	-3.9039
 242	1	6	0.367145	0.414563	-14.0249	-2.70681
 243	1	5	-0.590269	0.00824078	-11.7439	-4.80902
 244	1	1	-0.041892	-6.02595	-13.9874	-3.29805
 245	1	2	0.591489	-4.59234	-13.8562	-3.75832
 246	1	3	0.048074	-6.05441	-13.9892	-2.20203
 247	1	4	-0.651929	-4.21674	-14.6669	-4.79655
 248	1	3	0.049056	-6.46632	-14.9271	-3.65077
 249	1	5	-0.529683	-3.83767	-13.0758	-3.21939
 250	1	2	0.758009	-3.02857	-14.8226	-5.45678
 251	1	6	0.367145	-4.91108	-15.2862	-5.17515
 252	1	5	-0.590269	-3.03689	-15.6148	-6.37443
 253	1	1	-0.041892	-8.33059	-10.0936	-4.3735
 254	1	2	0.591489	-7.9419	-10.728	-3.04628
 255	1	3	0.048074	-8.40652	-10.8094	-5.19405
 256	1	4	-0.651929	-7.22047	-11.8857	-2.9437
 257	1	3	0.049056	-9.32137	-9.63865	-4.26061
 258	1	5	-0.529683	-8.17029	-10.1453	-2.00853
 259	1	2	0.758009	-6.81003	-12.8211	-3.8572
 260	1	6	0.367145	-6.93794	-12.0555	-1.9943
 261	1	5	-0.590269	-7.18456	-12.8165	-5.00764
 262	1	1	-0.041892	-5.74135	-6.30045	-4.96095
 263	1	2	0.591489	-6.30428	-6.95975	-3.70764
 264	1	3	0.048074	-6.20685	-6.67771	-5.87552
 265	1	4	-0.651929	-7.12265	-8.05375	-3.75477
 266	1	3	0.049056	-5.98986	-5.23455	-4.90585
 267	1	5	-0.529683	-6.10695	-6.47421	-2.6154
 268	1	2	0.758009	-7.33371	-9.00361	-4.71911
 269	1	6	0.367145	-7.57154	-8.23882	-2.86696
 270	1	5	-0.590269	-6.65122	-9.04277	-5.71827
 271	1	1	-0.041892	-1.1785	-5.68838	-4.6718
 272	1	2	0.591489	-2.1883	-6.11996	-3.61617
 273	1	3	0.048074	-1.65728	-5.31963	-5.58217
 274	1	4	-0.651929	-3.52143	-6.27086	-3.89092
 275	1	3	0.049056	-0.534414	-6.53508	-4.93537
 276	1	5	-0.529683	-1.85352	-6.24484	-2.45845
 277	1	2	0.758009	-4.22758	-6.41298	-5.05862
 278	1	6	0.367145	-4.07966	-6.3081	-3.04769
 279	1	5	-0.590269	-3.66644	-6.49783	-6.1304
 280	1	1	-0.041892	1.25081	-3.07087	-1.8885
 281	1	2	0.591489	1.76397	-4.11746	-2.86971
 282	1	3	0.048074	1.61948	-3.34599	-0.893775
 283	1	4	-0.651929	0.88315	-4.84229	-3.62717
 284	1	3	0.049056	0.164461	-3.09351	-1.81499
 285	1	5	-0.529683	2.90706	-4.51652	-2.83587
 286	1	2	0.758009	-0.374633	-4.5444	-4.08094
 287	1	6	0.367145	1.24536	-5.74716	-3.86747
 288	1	5	-0.590269	-0.730766	-3.38871	-4.19704
 289	1	1	-0.041892	-0.655517	0.599693	-3.8818
 290	1	2	0.591489	-0.269168	-0.529264	-2.9481
 291	1	3	0.048074	-0.30582	0.374423	-4.89637
 292	1	4	-0.651929	1.07557	-0.715852	-2.80026
 293	1	3	0.049056	-0.177115	1.53083	-3.5558
 294	1	5	-0.529683	-1.08315	-1.17291	-2.323
 295	1	2	0.758009	1.82246	-1.6997	-2.21885
 296	1	6	0.367145	1.65638	0.0634745	-3.08283
 297	1	5	-0.590269	2.98789	-1.42449	-2.02029
 298	1	1	-0.041892	-5.23938	0.51952	-4.10129
 299	1	2	0.591489	-4.19985	-0.349749	-4.78881
 300	1	3	0.048074	-4.95102	0.742796	-3.06928
 301	1	4	-0.651929	-2.86161	-0.143032	-4.61895
 302	1	3	0.049056	-6.16983	-0.0569794	-4.04916
 303	1	5	-0.529683	-4.52338	-1.24365	-5.54306
 304	1	2	0.758009	-2.15962	0.774004	-3.88298
 305	1	6	0.367145	-2.31137	-0.844857	-5.0823
 306	1	5	-0.590269	-2.70007	1.70442	-3.32558
 307	1	1	-0.041892	-5.30374	2.28172	-8.59022
 308	1	2	0.591489	-5.823	2.56634	-7.19767
 309	1	3	0.048074	-4.21855	2.40562	-8.63631
 310	1	4	-0.651929	-5.25691	1.82449	-6.19076
 311	1	3	0.049056	-5.73429	3.01966	-9.2768
 312	1	5	-0.529683	-6.73845	3.34016	-7.02479
 313	1	2	0.758009	-5.56152	1.80376	-4.84787
 314	1	6	0.367145	-4.54008	1.17801	-6.48913
 315	1	5	-0.590269	-6.32678	2.59752	-4.34437
 316	1	1	-0.041892	-2.99469	-1.68363	-8.77953
 317	1	2	0.591489	-3.67214	-0.362461	-8.43471
 318	1	3	0.048074	-3.59457	-2.52438	-8.41125
 319	1	4	-0.651929	-4.89009	-0.163182	-9.0241
 320	1	3	0.049056	-2.00076	-1.72626	-8.3179
 321	1	5	-0.529683	-3.18048	0.445727	-7.67199
 322	1	2	0.758009	-5.74958	0.900073	-9.04431
 323	1	6	0.367145	-5.2648	-0.934938	-9.54748
 324	1	5	-0.590269	-6.77799	0.722894	-9.65778
 325	1	7	0	-19.7415	1.95506	13.8439
 326	1	3	0	-2.88361	-1.77816	-9.86751

Velocities

   1	0.000232153	3.79079e-05	-0.000556886
   2	0.000425302	0.000285603	-0.000662328
   3	0.000374057	-0.000198708	-0.000387067
   4	0.00012306	-5.37687e-05	-0.000600395
   5	-0.000116746	-4.96502e-05	-0.0013757
   6	0.000856497	0.00108503	-0.00223351
   7	7.90886e-05	-1.85736e-05	-0.000273354
   8	-0.000161263	4.16448e-05	0.000369699
   9	-0.000641106	-0.00055966	0.00060191
  10	-0.000408549	0.000266895	-6.13042e-05
  11	4.69755e-05	-0.00116187	0.000313611
  12	-0.00185974	0.0004335	-3.1775e-05
  13	0.000133615	-0.00104246	0.000148898
  14	0.000135373	0.00135802	-0.000239012
  15	0.000686401	-0.00247027	0.00125696
  16	-4.4153e-05	0.000171009	-0.000723681
  17	0.000308727	-0.00144918	0.000999348
  18	-0.000658304	0.00153602	-0.00117904
  19	-0.000610176	0.000407929	0.000447766
  20	0.00125514	0.00146207	0.000581207
  21	-0.00140867	-2.1148e-07	0.000132199
  22	-0.000428533	2.95425e-05	0.000136892
  23	-0.000952247	0.000796977	0.00161128
  24	0.00444214	0.00387212	0.000787096
  25	-0.000102615	0.000329256	0.000152674
  26	-0.00200092	-0.00104467	9.18367e-06
  27	-0.000478976	2.03709e-05	0.000710773
  28	0.000206535	0.000286586	0.00171004
  29	0.000156705	0.000519834	0.00114892
  30	-0.000302447	0.000331179	0.0026053
  31	-0.000327859	0.000479469	0.0001227
  32	0.000801432	-0.00035371	0.00184688
  33	0.000233768	0.000699768	0.00182369
  34	-0.000462689	0.000181988	-0.000928314
  35	-0.000181754	0.000316425	0.000779993
  36	-0.000726412	-0.000335704	-0.00179024
  37	-0.000503403	0.000524878	0.000559626
  38	-0.000559148	0.000541593	0.00073128
  39	0.000608456	0.00114517	-0.000103146
  40	6.61875e-05	0.000367084	0.000836924
  41	-0.00191946	0.00168981	0.00135467
  42	-0.00109508	0.000776033	0.0010308
  43	8.26041e-05	0.000528283	0.00107147
  44	0.000371801	0.000245626	0.000773115
  45	-0.000188439	0.0010502	0.00120839
  46	0.000614463	-0.00202027	-0.000230168
  47	0.00142161	-0.00106221	0.000565427
  48	-0.00043798	-0.00202292	-0.00108879
  49	0.000582237	-0.00177777	0.000475666
  50	0.00103665	-0.00354796	9.61997e-05
  51	0.00257608	0.000479586	0.00080179
  52	-0.000657363	-0.00168673	0.000890773
  53	0.000850413	-0.00150511	-2.46401e-05
  54	-0.00055002	-0.00130492	0.00180734
  55	0.00074956	-0.000133398	-0.00102629
  56	0.00153245	-0.00175018	-0.00159434
  57	-0.000206616	0.000244875	-0.00181356
  58	0.0010648	-0.00128892	-0.000734228
  59	0.000536637	0.000318953	-0.000888332
  60	0.0024353	-0.00303486	-0.00281282
  61	0.000558848	-0.00119379	-0.000422884
  62	0.00129747	-0.00106456	-0.000541707
  63	-0.000311897	-0.000229336	-0.000373789
  64	-0.00143181	-0.000120348	-0.00205518
  65	-0.000734077	0.000107161	-0.0024507
  66	-0.0019741	0.000344133	-0.00211665
  67	-0.000124967	1.04106e-05	-0.0018974
  68	-0.000829381	-0.000644403	-0.00210032
  69	-3.70196e-05	0.000471062	-0.00157521
  70	0.0014068	0.000232293	2.04295e-05
  71	-0.000757017	-4.90636e-05	-0.00267038
  72	0.00266334	0.000596752	0.00227097
  73	0.000886635	0.00227087	0.000705726
  74	-0.000387404	0.000364644	3.54217e-05
  75	-0.000331699	0.00511457	0.000107054
  76	-0.00116853	-0.000314624	-0.000303275
  77	0.00358782	0.0025845	0.00157347
  78	-0.000531383	0.000295683	-7.52276e-05
  79	-0.00185343	-0.000411526	-0.000909187
  80	-0.00124763	-0.000233967	7.03975e-05
  81	-0.00265237	0.000355561	-0.000425154
  82	-0.000448072	-0.000850379	8.31333e-05
  83	7.85711e-05	-0.00132881	0.000393443
  84	-0.000786775	-0.000402264	0.000476468
  85	7.143e-05	-0.0004338	0.000464953
  86	-0.000358822	-0.000929471	9.2058e-05
  87	0.000302456	-0.00235562	0.000423614
  88	0.000304309	0.000491109	0.000591559
  89	-4.90461e-05	-0.000734986	0.000538668
  90	0.000120172	0.000236993	0.000939998
  91	4.86866e-05	0.0013828	-0.000125142
  92	-0.00104242	0.000694348	-0.000908994
  93	-0.000506834	0.00101928	0.0012617
  94	-0.00070786	0.000135046	-0.00114726
  95	0.00126066	0.00173208	-2.33958e-06
  96	-0.00175708	0.000391278	-0.000976575
  97	-0.000568396	-0.000735451	-0.000924024
  98	-0.000222268	0.000253554	-0.00161927
  99	0.000491845	-0.000990335	-0.000825019
 100	0.000180833	0.000754365	0.000177232
 101	0.000822508	0.00139226	-8.54099e-05
 102	0.000322605	0.00054931	5.54729e-05
 103	7.55805e-05	0.0015482	-0.000504877
 104	-0.000415764	0.0009166	0.000542909
 105	0.00185227	0.00145912	0.000351804
 106	0.000314034	0.00153526	-0.000499482
 107	-0.000532372	0.00159979	-0.000724118
 108	-6.77343e-05	0.00129242	-0.000900472
 109	-0.000357838	-0.00111302	5.93515e-05
 110	-0.000232056	-0.000647063	8.23905e-05
 111	-0.000722213	-0.00140302	-4.40226e-05
 112	1.64452e-05	-0.00132368	0.000173804
 113	-0.000522784	-0.00087636	1.33109e-05
 114	-1.60405e-05	0.00090672	-1.59942e-05
 115	0.000232797	-0.00038932	0.000103258
 116	2.53294e-05	-0.00256263	0.000164705
 117	0.000362741	-0.00122024	0.000152168
 118	-0.000190612	-9.54172e-05	0.000900503
 119	-0.000467392	-5.76901e-05	0.000722124
 120	0.000380451	-0.000528718	0.000708629
 121	-0.00077822	-0.000102187	0.000894419
 122	-0.000263575	-0.000243486	0.00163785
 123	0.000758158	-0.00173921	-0.000223119
 124	-0.000136099	-0.00137901	0.000405719
 125	-0.0013545	0.000734177	0.00146496
 126	4.23031e-05	-0.00200121	0.000519464
 127	0.000928229	-0.000278432	-0.00137659
 128	0.000220602	0.000115743	-0.00125996
 129	0.00126111	0.000550685	-0.00231302
 130	0.000270932	0.000413424	-0.000978668
 131	0.00197714	-0.00136263	-0.00126407
 132	-0.000194047	3.48253e-05	-0.00162518
 133	-6.07811e-05	0.000174763	7.64539e-05
 134	0.000525777	0.00079148	-0.00150958
 135	2.67111e-05	0.000172432	0.000364656
 136	0.000148954	-0.000315543	8.05181e-05
 137	0.000215006	6.80231e-05	-0.000340137
 138	1.7899e-05	-0.000584221	0.000748333
 139	0.000753241	-0.000569697	-0.00111945
 140	2.93266e-05	-0.000929582	-0.000216497
 141	-0.00138033	0.00187137	0.00116673
 142	0.000247027	-0.000300004	-0.000507782
 143	0.00122495	-0.000950282	-0.00149471
 144	-0.000778374	0.000828016	0.000393623
 145	-7.75175e-05	-0.000102385	-8.91225e-05
 146	0.000161788	0.000181096	-0.000283008
 147	7.81509e-05	0.000457365	0.000387142
 148	0.000314866	0.000343092	7.70213e-05
 149	5.66914e-05	-9.64012e-05	-0.000803799
 150	0.00013781	0.000169211	-0.000306576
 151	0.000419421	0.000408441	0.000557997
 152	0.000607597	0.00059368	0.000533969
 153	0.000918422	0.000894279	0.00200287
 154	-0.00135507	0.000370645	0.000534881
 155	-0.00111062	-0.000365726	0.00066961
 156	-0.00100252	0.000390651	0.000226482
 157	-0.000995655	-0.000300276	0.000657261
 158	-0.00142523	0.00054484	0.000290368
 159	-0.000852433	-0.00145102	0.000991466
 160	-0.000611149	-0.000822441	0.000250269
 161	-0.000926889	0.000137254	0.00068933
 162	-0.000997384	-0.00113046	-0.000114168
 163	-0.000236385	0.000571972	-0.000371031
 164	-0.00094553	0.000421067	0.000219019
 165	-0.000176261	0.000164612	-0.000316216
 166	-0.00182563	0.000415417	0.000911575
 167	8.49658e-05	0.00042315	-0.00067943
 168	-0.000957012	0.000222208	0.000290897
 169	-0.00153101	0.000332332	0.000552356
 170	-0.0023991	0.000369187	0.00176956
 171	-0.000639109	0.000264749	-0.000729307
 172	0.000589804	-0.00011137	-0.000809251
 173	0.000488719	-0.000346175	-0.000184269
 174	0.000763913	-9.62508e-05	-0.000627937
 175	4.53677e-06	0.000881133	-0.000682401
 176	0.000293908	-5.79745e-05	-0.000965947
 177	0.000821803	-0.00180588	0.000863749
 178	-0.000111782	0.000885175	-0.000364218
 179	-0.000252617	0.00200911	-0.00131349
 180	0.000667449	-0.000626149	0.000880355
 181	0.000616725	0.00121849	3.15503e-05
 182	0.000695745	0.000206236	-6.49902e-05
 183	0.00145628	0.00247321	0.000820393
 184	0.00113111	9.90314e-05	-0.000712474
 185	-0.000677512	0.00184774	-0.00035903
 186	9.6247e-05	-0.000803995	0.000539392
 187	0.000713524	2.77593e-06	-0.000839197
 188	0.00114339	-0.000224726	-0.000663415
 189	3.8008e-06	-8.16347e-05	-0.000867029
 190	0.000439212	0.000275448	0.000926029
 191	0.000779148	0.000339412	0.00137142
 192	-0.000504173	0.000333745	0.00121069
 193	0.000895255	9.6264e-05	0.000874775
 194	0.00102614	0.000232351	0.00136189
 195	0.00100193	0.000557098	0.00235708
 196	0.000794775	0.00049799	-0.000496046
 197	0.000784368	0.000349066	0.00130044
 198	0.00108229	-0.000423578	-0.00228539
 199	-0.000465592	2.72021e-05	-0.00105391
 200	-0.00013605	-0.000154479	-8.25396e-05
 201	-0.00048426	-0.000234898	-0.0022985
 202	-6.98815e-05	0.000140105	-0.000452557
 203	-0.000871959	0.0010557	-0.00093281
 204	-0.000125408	-0.000334024	0.0017971
 205	0.000418848	0.000518877	-0.000497984
 206	-0.000227137	0.000144898	0.000192464
 207	0.000748215	0.000587375	-0.000936138
 208	-0.00174937	7.46993e-05	-0.000575582
 209	-0.00167246	0.000113333	-0.00111253
 210	-0.00121775	-0.00124394	-0.000674638
 211	-0.00112637	0.000132975	-0.00118671
 212	-0.00245314	0.000887065	-0.00141807
 213	-0.00152812	-5.51311e-05	-0.00103501
 214	-0.000289379	-0.000597598	-0.000688131
 215	-0.00149623	0.000779339	-0.00153497
 216	-0.000105094	-0.00117457	-0.000255638
 217	9.32395e-05	-0.00169557	0.000472072
 218	-0.000927931	-0.00063941	0.00180081
 219	0.000212353	-0.000916898	-0.00100574
 220	-0.00138333	0.000641743	0.0026136
 221	0.000528582	-0.0032431	0.000548526
 222	-0.000930747	-0.00173153	0.000541317
 223	-0.00175928	0.00065923	0.00144066
 224	-0.00117987	0.00134191	0.00329652
 225	-0.00134346	0.0010407	0.000277855
 226	-0.000182894	0.000631238	-0.000798864
 227	-0.000164541	-0.000436358	-0.000526863
 228	-0.000583106	0.00134238	-0.000361479
 229	6.54025e-05	-0.00110205	-0.000130071
 230	0.000331028	0.000878593	-0.00168833
 231	-0.000608608	-0.000327174	-0.000678566
 232	0.000174088	-0.0019877	0.000620738
 233	-1.26492e-06	-0.000904905	-0.000308135
 234	0.000319175	-0.00274605	0.00101647
 235	-0.000210386	0.000963308	5.34972e-05
 236	-0.000546991	0.00103555	0.000240799
 237	-0.000515708	0.00086655	-1.62865e-05
 238	-0.000241373	0.000801339	-0.000147026
 239	1.31634e-05	0.00114527	0.000169459
 240	-0.00109982	0.00151579	0.00082559
 241	-0.000156017	0.000546649	-0.000602667
 242	-0.000180894	0.000936783	-9.47651e-05
 243	-0.000155849	0.00042282	-0.000726758
 244	-0.000163747	-0.000396815	-0.000302749
 245	-0.000199195	1.27007e-05	-0.000127557
 246	-0.000305182	-0.000894049	-0.000275559
 247	0.000105692	0.000213681	-0.000166054
 248	-0.000172948	-0.00015237	-0.000929103
 249	-0.000416768	0.000162858	0.000111511
 250	0.000229652	0.000543066	-5.38317e-05
 251	0.000418838	-0.000214776	-3.52525e-05
 252	0.000986172	-0.000164391	0.000598956
 253	0.00125741	-5.95872e-06	0.00023106
 254	0.000724901	-5.51956e-05	0.000351163
 255	0.000239816	-5.29708e-05	0.000381819
 256	-0.00012601	-0.00050852	0.000457248
 257	0.00180577	0.00112964	0.00035981
 258	0.00121312	0.000298887	0.000282074
 259	5.27301e-06	-0.000154243	0.000135786
 260	-0.00082188	-0.00114681	0.000588393
 261	0.00131954	0.000977573	-0.000238459
 262	0.000558551	6.73379e-05	-0.000436177
 263	0.000398726	0.000471476	-0.00040504
 264	0.00128051	-0.000530754	-0.000518106
 265	0.00278748	-0.00131924	4.01845e-05
 266	7.1677e-05	5.06432e-05	-0.00112584
 267	-0.00110271	0.00160265	-0.000729101
 268	0.00189633	-0.000877722	-0.00015525
 269	0.00371561	-0.00191572	0.000419651
 270	-0.00155771	0.00104587	-0.00269783
 271	-0.000550979	0.000911776	0.000415843
 272	-0.000194134	0.0017501	0.00128062
 273	-0.00116757	0.00167506	0.00113011
 274	6.43873e-05	-0.00030339	0.000995072
 275	-0.00185273	0.000125709	-0.000511583
 276	-0.000167542	0.00350274	0.00139127
 277	0.000496139	0.000295759	0.000622958
 278	-4.85173e-05	-0.00131779	0.000972609
 279	0.000832666	0.00185263	0.000654005
 280	-0.000309628	-0.000478659	-0.00152615
 281	0.000617758	-0.00179465	0.000356367
 282	-0.00215929	0.000376023	-0.000651077
 283	0.000941276	-0.000648273	-0.00118885
 284	-0.000316362	-0.000112618	-0.00346483
 285	-0.000241637	-0.00381321	0.00333332
 286	0.00112966	0.000352509	-0.000915454
 287	0.000414002	-0.00110117	-0.00101708
 288	0.00172855	0.000666282	-0.000231323
 289	-0.000113188	-1.42313e-05	0.00158169
 290	0.000303629	0.000787922	0.00215236
 291	0.000466605	-4.18744e-05	0.00172473
 292	0.000371151	-0.000116803	-0.000552265
 293	-0.00136014	0.000573019	0.00164266
 294	0.000921948	0.00254281	0.00473891
 295	0.000382681	-0.000834079	-0.00171019
 296	0.000360602	-0.0003744	-0.00146642
 297	0.000632864	-0.00127601	-0.00222703
 298	0.000650818	-0.000561232	0.000555742
 299	0.000124138	-0.000866578	0.000142939
 300	0.00269514	0.0020034	-0.000502086
 301	0.000190437	-0.00286245	0.00204935
 302	0.00155482	-0.00143266	0.00443723
 303	-0.000476243	0.00053085	-0.00125912
 304	-0.000149805	-0.00137819	0.000770292
 305	0.00036938	-0.00388194	0.00360335
 306	-0.000143184	0.00119426	-0.00349876
 307	9.01863e-05	0.00116101	-0.000686818
 308	-0.000520413	1.58814e-05	-0.000706763
 309	0.000153783	0.0020633	0.00030538
 310	-0.00259906	-0.00260127	-0.0015439
 311	-0.000521794	0.00138283	-9.13152e-05
 312	0.00145917	0.00231151	-0.000107848
 313	-0.00190799	-0.00215285	-0.00123072
 314	-0.0040674	-0.00371848	-0.0022443
 315	0.00030683	-0.000705315	-0.00039493
 316	-0.000593026	-0.000357451	0.000878114
 317	0.000899014	0.000630147	0.000723337
 318	-0.00141882	0.00059522	0.00148525
 319	0.000930331	0.000898853	0.000453113
 320	-0.000253916	-0.00148591	0.000911055
 321	0.00102872	0.000962549	5.53981e-05
 322	0.00133311	0.00114555	-0.000891943
 323	0.00063965	0.000158236	0.00154231
 324	0.00149437	0.000705553	-0.00135989
 325	0.000262345	-6.84971e-05	-0.000363361
 326	-0.00123585	-0.000928358	0.000936824

Bonds

   1	3	1	2
   2	4	1	3
   3	4	1	5
   4	2	2	4
   5	5	2	6
   6	2	4	7
   7	6	4	8
   8	5	7	9
   9	3	10	11
  10	4	10	12
  11	4	10	14
  12	2	11	13
  13	5	11	15
  14	2	13	16
  15	6	13	17
  16	5	16	18
  17	3	1	16
  18	3	19	20
  19	4	19	21
  20	4	19	23
  21	2	20	22
  22	5	20	24
  23	2	22	25
  24	6	22	26
  25	5	25	27
  26	3	10	25
  27	3	28	29
  28	4	28	30
  29	4	28	32
  30	2	29	31
  31	5	29	33
  32	2	31	34
  33	6	31	35
  34	5	34	36
  35	3	19	34
  36	3	37	38
  37	4	37	39
  38	4	37	41
  39	2	38	40
  40	5	38	42
  41	2	40	43
  42	6	40	44
  43	5	43	45
  44	3	28	43
  45	3	46	47
  46	4	46	48
  47	4	46	50
  48	2	47	49
  49	5	47	51
  50	2	49	52
  51	6	49	53
  52	5	52	54
  53	3	37	52
  54	3	55	56
  55	4	55	57
  56	4	55	59
  57	2	56	58
  58	5	56	60
  59	2	58	61
  60	6	58	62
  61	5	61	63
  62	3	46	61
  63	3	64	65
  64	4	64	66
  65	4	64	68
  66	2	65	67
  67	5	65	69
  68	2	67	70
  69	6	67	71