pySIMM System Object

281 atoms
280 bonds
465 angles
614 dihedrals
62 impropers

7 atom types
6 bond types
10 angle types
4 dihedral types
2 improper types

-101.953825 101.953825 xlo xhi
-101.953825 101.953825 ylo yhi
-101.953825 101.953825 zlo zhi

Masses

   1	12.01	# c3
   2	12.01	# c
   3	1.008	# hc
   4	14.01	# n
   5	16.0	# o
   6	1.008	# hn
   7	1.008	# h5

Pair Coeffs

   1	0.1094	3.3996695084235347	# c3
   2	0.086	3.3996695084235347	# c
   3	0.0157	2.649532787749369	# hc
   4	0.17	3.249998523775958	# n
   5	0.21	2.959921901149463	# o
   6	0.0157	1.069078461768407	# hn
   7	0.015	2.421462715905442	# h5

Bond Coeffs

   1	319.7	1.1051	# c,h5
   2	427.6	1.3789	# c,n
   3	313.0	1.5241	# c,c3
   4	330.6	1.0969	# c3,hc
   5	637.7	1.2183	# c,o
   6	403.2	1.0129	# hn,n

Angle Coeffs

   1	48.33	117.55	# c,n,hn
   2	74.22	123.05	# n,c,o
   3	53.7	123.65	# h5,c,o
   4	39.4	107.58	# hc,c3,hc
   5	63.74	127.08	# c,n,c
   6	67.4	123.2	# c3,c,o
   7	46.93	108.77	# c,c3,hc
   8	66.79	115.18	# c3,c,n
   9	51.42	112.16	# h5,c,n
  10	63.38	111.63	# c,c3,c

Dihedral Coeffs

   1	3	0.8	1	0	0.0	2	0	0.08	3	180	# hc,c3,c,o
   2	1	2.5	2	180	# X,c,n,X
   3	2	2.5	2	180	2.0	1	0	# hn,n,c,o
   4	1	0.0	2	180	# X,c,c3,X

Improper Coeffs

   1	10.5	-1	2	# c,X,X,o
   2	1.1	-1	2	# n,X,X,hn

Atoms

   1	1	1	-0.041892	19.0094	-18.3115	-1.51437
   2	1	2	0.591489	20.1426	-17.9762	-2.46071
   3	1	3	0.048074	18.6074	-19.3058	-1.74101
   4	1	4	-0.651929	20.7357	-16.7591	-2.29402
   5	1	3	0.049056	19.3785	-18.31	-0.482083
   6	1	5	-0.529683	20.4876	-18.731	-3.34341
   7	1	2	0.758009	21.7039	-16.1978	-3.06464
   8	1	6	0.367145	20.3871	-16.1423	-1.5801
   9	1	5	-0.590269	22.0965	-15.0827	-2.78952
  10	1	1	-0.041892	16.0781	-15.1465	-2.90895
  11	1	2	0.591489	16.1421	-16.6196	-3.27836
  12	1	3	0.048074	15.2273	-14.6811	-3.41949
  13	1	4	-0.651929	17.0315	-17.4653	-2.6704
  14	1	3	0.049056	15.913	-15.051	-1.831
  15	1	5	-0.529683	15.4384	-17.0954	-4.14141
  16	1	2	0.758009	17.9395	-17.2584	-1.66638
  17	1	6	0.367145	17.0522	-18.3624	-3.12321
  18	1	5	-0.590269	18.0089	-16.2171	-1.04432
  19	1	1	-0.041892	17.6187	-11.0488	-1.64802
  20	1	2	0.591489	16.9092	-12.3132	-2.07559
  21	1	3	0.048074	17.3563	-10.8318	-0.605753
  22	1	4	-0.651929	17.6421	-13.1862	-2.83358
  23	1	3	0.049056	18.7067	-11.1657	-1.70881
  24	1	5	-0.529683	15.7592	-12.5218	-1.75556
  25	1	2	0.758009	17.3549	-14.4268	-3.32527
  26	1	6	0.367145	18.5627	-12.8968	-3.11419
  27	1	5	-0.590269	18.2464	-14.9585	-3.9553
  28	1	1	-0.041892	16.1482	-7.37961	-3.92664
  29	1	2	0.591489	16.3116	-7.58811	-2.42829
  30	1	3	0.048074	17.1298	-7.42979	-4.41254
  31	1	4	-0.651929	16.7565	-8.7819	-1.93448
  32	1	3	0.049056	15.5179	-8.17277	-4.34502
  33	1	5	-0.529683	15.9835	-6.75989	-1.60843
  34	1	2	0.758009	17.1779	-9.92569	-2.55805
  35	1	6	0.367145	16.7497	-8.79509	-0.929977
  36	1	5	-0.590269	17.2793	-10.0058	-3.76296
  37	1	1	-0.041892	13.6519	-3.60253	-4.69945
  38	1	2	0.591489	13.2765	-4.92198	-4.04209
  39	1	3	0.048074	14.2601	-3.0069	-4.0096
  40	1	4	-0.651929	14.1826	-5.93366	-3.90937
  41	1	3	0.049056	14.24	-3.78971	-5.60429
  42	1	5	-0.529683	12.1844	-5.12201	-3.55852
  43	1	2	0.758009	15.5137	-6.03483	-4.22109
  44	1	6	0.367145	13.7867	-6.71803	-3.42345
  45	1	5	-0.590269	16.1209	-5.14053	-4.77077
  46	1	1	-0.041892	9.77474	-1.31386	-5.43775
  47	1	2	0.591489	10.4937	-1.57327	-4.12404
  48	1	3	0.048074	10.3386	-0.574928	-6.01901
  49	1	4	-0.651929	11.6604	-2.28613	-4.10417
  50	1	3	0.049056	9.71859	-2.23913	-6.02229
  51	1	5	-0.529683	10.0903	-1.1475	-3.06371
  52	1	2	0.758009	12.4137	-2.82962	-5.11383
  53	1	6	0.367145	11.952	-2.50702	-3.16833
  54	1	5	-0.590269	12.1954	-2.57121	-6.2794
  55	1	1	-0.041892	5.55223	0.511209	-5.25169
  56	1	2	0.591489	6.84493	1.04094	-5.85141
  57	1	3	0.048074	5.72624	-0.0265971	-4.31522
  58	1	4	-0.651929	8.02799	0.359977	-5.74238
  59	1	3	0.049056	4.91382	1.36619	-5.00035
  60	1	5	-0.529683	6.89993	2.11169	-6.41321
  61	1	2	0.758009	8.35616	-0.847822	-5.18618
  62	1	6	0.367145	8.78376	0.879047	-6.15249
  63	1	5	-0.590269	7.49383	-1.60351	-4.7857
  64	1	1	-0.041892	5.20051	-4.11449	-6.79146
  65	1	2	0.591489	4.59251	-2.72767	-6.96878
  66	1	3	0.048074	4.42876	-4.87445	-6.95784
  67	1	4	-0.651929	5.15387	-1.68183	-6.27106
  68	1	3	0.049056	5.9618	-4.25196	-7.56712
  69	1	5	-0.529683	3.67167	-2.56939	-7.74083
  70	1	2	0.758009	4.81107	-0.350426	-6.25691
  71	1	6	0.367145	5.91123	-1.90944	-5.63903
  72	1	5	-0.590269	3.91722	0.113779	-6.93339
  73	1	1	-0.041892	3.37923	-3.82531	-2.62389
  74	1	2	0.591489	3.80172	-4.14799	-4.04374
  75	1	3	0.048074	3.53046	-4.71103	-1.99712
  76	1	4	-0.651929	5.15058	-4.20686	-4.2718
  77	1	3	0.049056	3.9939	-3.01835	-2.21055
  78	1	5	-0.529683	3.0048	-4.37108	-4.92817
  79	1	2	0.758009	5.85305	-4.34322	-5.43626
  80	1	6	0.367145	5.76095	-4.13815	-3.47673
  81	1	5	-0.590269	7.05382	-4.46766	-5.3326
  82	1	1	-0.041892	1.26903	-0.185884	-4.42489
  83	1	2	0.591489	2.1352	-1.25127	-3.78789
  84	1	3	0.048074	1.82947	0.278065	-5.24469
  85	1	4	-0.651929	1.4668	-2.29088	-3.20052
  86	1	3	0.049056	0.359983	-0.612123	-4.85904
  87	1	5	-0.529683	3.34292	-1.15169	-3.71738
  88	1	2	0.758009	1.90751	-3.43573	-2.59892
  89	1	6	0.367145	0.455478	-2.24307	-3.22171
  90	1	5	-0.590269	1.07695	-4.11393	-2.03389
  91	1	1	-0.041892	-1.53087	-0.32855	-0.778836
  92	1	2	0.591489	-0.899642	-0.309253	-2.16295
  93	1	3	0.048074	-0.898409	0.198402	-0.0557416
  94	1	4	-0.651929	0.0499362	0.653779	-2.38838
  95	1	3	0.049056	-1.57658	-1.3721	-0.445543
  96	1	5	-0.529683	-1.14152	-1.16775	-2.98411
  97	1	2	0.758009	0.955434	0.878696	-3.39049
  98	1	6	0.367145	0.0663669	1.41468	-1.71533
  99	1	5	-0.590269	1.61327	1.89183	-3.30365
 100	1	1	-0.041892	-3.00102	3.95965	-0.178202
 101	1	2	0.591489	-2.32447	2.64432	-0.487798
 102	1	3	0.048074	-3.85586	3.8055	0.489728
 103	1	4	-0.651929	-3.16439	1.56506	-0.521139
 104	1	3	0.049056	-3.36697	4.35983	-1.12945
 105	1	5	-0.529683	-1.17453	2.55657	-0.856986
 106	1	2	0.758009	-2.94728	0.239308	-0.775376
 107	1	6	0.367145	-4.13298	1.78949	-0.360805
 108	1	5	-0.590269	-3.94221	-0.464868	-0.770717
 109	1	1	-0.041892	-3.51229	8.43448	0.404992
 110	1	2	0.591489	-3.50591	6.95537	0.0966764
 111	1	3	0.048074	-4.55131	8.71948	0.593539
 112	1	4	-0.651929	-2.38994	6.27459	0.504981
 113	1	3	0.049056	-2.94462	8.65292	1.31488
 114	1	5	-0.529683	-4.48567	6.39943	-0.360093
 115	1	2	0.758009	-2.06247	4.95115	0.483493
 116	1	6	0.367145	-1.65362	6.82937	0.926857
 117	1	5	-0.590269	-1.10046	4.618	1.14087
 118	1	1	-0.041892	0.63746	10.1506	-0.506904
 119	1	2	0.591489	-0.586767	9.31403	-0.195194
 120	1	3	0.048074	1.26798	10.18	0.389452
 121	1	4	-0.651929	-1.72776	9.66807	-0.85799
 122	1	3	0.049056	0.362855	11.1859	-0.731754
 123	1	5	-0.529683	-0.575542	8.42562	0.629576
 124	1	2	0.758009	-3.0257	9.2606	-0.766788
 125	1	6	0.367145	-1.61337	10.3577	-1.59202
 126	1	5	-0.590269	-3.80453	9.83265	-1.50197
 127	1	1	-0.041892	0.405007	10.7593	-5.08231
 128	1	2	0.591489	0.256875	10.6004	-3.58059
 129	1	3	0.048074	1.20197	11.4862	-5.27484
 130	1	4	-0.651929	1.22641	9.86388	-2.94539
 131	1	3	0.049056	-0.514069	11.1588	-5.52424
 132	1	5	-0.529683	-0.658465	11.115	-2.97126
 133	1	2	0.758009	1.44516	9.5328	-1.63574
 134	1	6	0.367145	1.94646	9.46205	-3.53095
 135	1	5	-0.590269	2.43176	8.86807	-1.42021
 136	1	1	-0.041892	-2.0107	6.90338	-5.62239
 137	1	2	0.591489	-1.42132	8.29627	-5.51742
 138	1	3	0.048074	-1.47441	6.33706	-6.39277
 139	1	4	-0.651929	-0.0806575	8.38991	-5.78667
 140	1	3	0.049056	-1.87847	6.35885	-4.68257
 141	1	5	-0.529683	-2.07492	9.26949	-5.20787
 142	1	2	0.758009	0.789837	9.44082	-5.73065
 143	1	6	0.367145	0.384786	7.54638	-6.0765
 144	1	5	-0.590269	1.95764	9.1591	-5.87899
 145	1	1	-0.041892	-5.78522	7.83307	-3.14995
 146	1	2	0.591489	-4.45178	7.47275	-3.77806
 147	1	3	0.048074	-5.6718	7.98985	-2.07246
 148	1	4	-0.651929	-4.46871	7.26225	-5.13239
 149	1	3	0.049056	-6.48968	7.0069	-3.29695
 150	1	5	-0.529683	-3.44111	7.34359	-3.11711
 151	1	2	0.758009	-3.47307	6.99216	-6.0308
 152	1	6	0.367145	-5.35386	7.39493	-5.60012
 153	1	5	-0.590269	-3.80573	6.84436	-7.18545
 154	1	1	-0.041892	-5.0496	12.5703	-3.23774
 155	1	2	0.591489	-6.05744	11.5501	-3.72829
 156	1	3	0.048074	-4.72451	13.167	-4.09766
 157	1	4	-0.651929	-5.80712	10.2585	-3.35137
 158	1	3	0.049056	-4.16152	12.0829	-2.82147
 159	1	5	-0.529683	-6.97391	11.874	-4.4527
 160	1	2	0.758009	-6.34796	9.08269	-3.79119
 161	1	6	0.367145	-5.08616	10.1507	-2.64704
 162	1	5	-0.590269	-7.04833	8.99499	-4.7777
 163	1	1	-0.041892	-6.23436	15.6853	-0.0536735
 164	1	2	0.591489	-5.37859	15.8062	-1.30552
 165	1	3	0.048074	-6.16839	14.6884	0.393116
 166	1	4	-0.651929	-5.15693	14.7442	-2.14127
 167	1	3	0.049056	-5.84487	16.3862	0.69392
 168	1	5	-0.529683	-4.7676	16.8166	-1.56703
 169	1	2	0.758009	-5.65959	13.4719	-2.18673
 170	1	6	0.367145	-4.48582	14.9777	-2.85184
 171	1	5	-0.590269	-6.53441	13.1159	-1.42666
 172	1	1	-0.041892	-10.3714	13.6594	-1.44709
 173	1	2	0.591489	-9.82692	14.9786	-0.948531
 174	1	3	0.048074	-9.94127	13.4263	-2.42806
 175	1	4	-0.651929	-8.46552	15.0333	-0.789429
 176	1	3	0.049056	-11.461	13.725	-1.55512
 177	1	5	-0.529683	-10.5812	15.8662	-0.619208
 178	1	2	0.758009	-7.67422	16.0601	-0.340574
 179	1	6	0.367145	-7.9596	14.1801	-1.00771
 180	1	5	-0.590269	-8.11121	17.149	-0.0408727
 181	1	1	-0.041892	-9.69591	10.5587	1.86061
 182	1	2	0.591489	-10.6988	11.6976	1.77442
 183	1	3	0.048074	-10.1214	9.7737	2.49671
 184	1	4	-0.651929	-10.7761	12.5041	0.671749
 185	1	3	0.049056	-9.50948	10.0905	0.889225
 186	1	5	-0.529683	-11.5068	11.904	2.64967
 187	1	2	0.758009	-10.0138	12.5725	-0.460094
 188	1	6	0.367145	-11.5285	13.1702	0.747432
 189	1	5	-0.590269	-8.99018	11.9296	-0.561913
 190	1	1	-0.041892	-5.47167	10.5071	3.34729
 191	1	2	0.591489	-5.96267	11.0132	1.99153
 192	1	3	0.048074	-5.9209	11.0558	4.18043
 193	1	4	-0.651929	-7.30358	11.0907	1.70229
 194	1	3	0.049056	-4.38863	10.6659	3.41053
 195	1	5	-0.529683	-5.18035	11.2332	1.09116
 196	1	2	0.758009	-8.41267	11.0337	2.50817
 197	1	6	0.367145	-7.49673	11.2072	0.71266
 198	1	5	-0.590269	-8.29686	11.0803	3.71594
 199	1	1	-0.041892	-7.16711	6.27337	3.11727
 200	1	2	0.591489	-7.70204	7.51015	3.82109
 201	1	3	0.048074	-7.72894	5.41669	3.5067
 202	1	4	-0.651929	-6.9744	8.66364	3.9128
 203	1	3	0.049056	-6.11322	6.08995	3.34318
 204	1	5	-0.529683	-8.84242	7.55553	4.22771
 205	1	2	0.758009	-5.73748	9.0165	3.45408
 206	1	6	0.367145	-7.53392	9.42786	4.27552
 207	1	5	-0.590269	-4.95755	8.19588	3.0202
 208	1	1	-0.041892	-7.77422	2.83595	0.290675
 209	1	2	0.591489	-7.19652	3.93126	1.16819
 210	1	3	0.048074	-8.63484	3.19602	-0.28396
 211	1	4	-0.651929	-7.57725	5.22154	0.89591
 212	1	3	0.049056	-8.12503	2.05401	0.969933
 213	1	5	-0.529683	-6.45239	3.66358	2.08731
 214	1	2	0.758009	-7.39171	6.37394	1.61253
 215	1	6	0.367145	-8.02995	5.39958	0.019357
 216	1	5	-0.590269	-7.74558	7.40244	1.06589
 217	1	1	-0.041892	-7.08704	-1.3239	-1.63409
 218	1	2	0.591489	-7.52608	-0.0508938	-0.936428
 219	1	3	0.048074	-7.72101	-1.49285	-2.51147
 220	1	4	-0.651929	-6.70648	1.02355	-1.13551
 221	1	3	0.049056	-6.04791	-1.25934	-1.97236
 222	1	5	-0.529683	-8.49355	0.00255984	-0.210586
 223	1	2	0.758009	-6.70565	2.30035	-0.653461
 224	1	6	0.367145	-5.92086	0.859359	-1.74095
 225	1	5	-0.590269	-5.76493	2.96502	-1.0275
 226	1	1	-0.041892	-7.63704	-3.88715	1.98442
 227	1	2	0.591489	-6.37234	-3.15098	1.5652
 228	1	3	0.048074	-8.52336	-3.30907	1.69912
 229	1	4	-0.651929	-6.3404	-2.48697	0.370706
 230	1	3	0.049056	-7.68522	-4.8563	1.47522
 231	1	5	-0.529683	-5.42315	-2.99273	2.29951
 232	1	2	0.758009	-7.23536	-2.47235	-0.666982
 233	1	6	0.367145	-5.52388	-1.90014	0.27815
 234	1	5	-0.590269	-8.1542	-3.25939	-0.747625
 235	1	1	-0.041892	-8.18324	-4.07409	6.50839
 236	1	2	0.591489	-8.69081	-3.05402	5.51026
 237	1	3	0.048074	-8.6904	-3.93663	7.46986
 238	1	4	-0.651929	-8.41115	-3.18186	4.17819
 239	1	3	0.049056	-8.43192	-5.07427	6.14153
 240	1	5	-0.529683	-9.38896	-2.12022	5.84015
 241	1	2	0.758009	-7.66211	-4.09646	3.48059
 242	1	6	0.367145	-8.80312	-2.42637	3.64719
 243	1	5	-0.590269	-7.20169	-5.09279	3.99979
 244	1	1	-0.041892	-5.22564	-6.77876	8.69212
 245	1	2	0.591489	-6.33273	-6.0483	7.95165
 246	1	3	0.048074	-4.49858	-6.0485	9.06635
 247	1	4	-0.651929	-5.96768	-4.8539	7.39702
 248	1	3	0.049056	-4.70389	-7.42318	7.97562
 249	1	5	-0.529683	-7.47053	-6.46136	7.89454
 250	1	2	0.758009	-6.68362	-3.91712	6.70924
 251	1	6	0.367145	-5.00472	-4.57854	7.46732
 252	1	5	-0.590269	-6.07191	-2.91294	6.41467
 253	1	1	-0.041892	-7.02532	-9.31036	12.0824
 254	1	2	0.591489	-7.67517	-8.19133	11.2888
 255	1	3	0.048074	-6.31096	-9.86565	11.4693
 256	1	4	-0.651929	-6.97097	-7.54657	10.311
 257	1	3	0.049056	-6.48428	-8.8616	12.9232
 258	1	5	-0.529683	-8.79019	-7.77954	11.5192
 259	1	2	0.758009	-5.67212	-7.63411	9.87522
 260	1	6	0.367145	-7.57434	-6.94926	9.76041
 261	1	5	-0.590269	-4.83989	-8.25496	10.5024
 262	1	1	-0.041892	-9.43596	-12.622	14.2042
 263	1	2	0.591489	-7.9809	-12.1666	14.2838
 264	1	3	0.048074	-9.77588	-12.9055	15.2052
 265	1	4	-0.651929	-7.51643	-11.0803	13.6044
 266	1	3	0.049056	-10.0833	-11.8014	13.8794
 267	1	5	-0.529683	-7.16714	-12.6719	15.0247
 268	1	2	0.758009	-8.02517	-10.3278	12.5857
 269	1	6	0.367145	-6.59157	-10.836	13.9053
 270	1	5	-0.590269	-8.96203	-10.7255	11.9305
 271	1	1	-0.041892	-7.2604	-16.5218	14.3652
 272	1	2	0.591489	-8.33247	-15.4654	14.6003
 273	1	3	0.048074	-6.54179	-16.5017	15.1935
 274	1	4	-0.651929	-8.90257	-14.9565	13.4665
 275	1	3	0.049056	-6.71776	-16.3064	13.4362
 276	1	5	-0.529683	-8.65456	-15.0931	15.7083
 277	1	2	0.758009	-9.59412	-13.8006	13.2533
 278	1	6	0.367145	-8.80774	-15.492	12.6246
 279	1	5	-0.590269	-10.1017	-13.6935	12.159
 280	1	7	0	22.0854	-16.8317	-3.88591
 281	1	3	0	-7.70861	-17.5196	14.292

Velocities

   1	-0.000196119	-0.000583173	-0.000228036
   2	-0.000170317	6.52159e-05	0.000151514
   3	0.00020176	-0.000575545	-0.000576605
   4	-0.000352375	0.000124818	0.000420802
   5	-0.000264049	-0.000979788	-0.000131713
   6	-2.30018e-06	0.000635223	-0.000444391
   7	-0.000584379	0.000154393	5.38953e-05
   8	-0.000573249	7.19344e-05	0.000277807
   9	-0.000101967	0.000117733	0.000291534
  10	3.74115e-05	-0.000362183	0.000344655
  11	0.000141912	-0.000267156	4.19805e-05
  12	0.00014479	-0.000248376	0.000368005
  13	4.08654e-05	-0.000319575	-1.8669e-05
  14	0.000157035	-0.00042875	0.000339073
  15	0.000181775	-0.000126008	0.000155103
  16	-1.26786e-05	-0.000501574	-8.48279e-05
  17	-5.72842e-05	-0.000371038	0.000101719
  18	0.000538344	-0.000284555	-0.000515197
  19	0.00071731	0.000122492	-0.000369277
  20	0.000259983	0.000122624	-8.80494e-05
  21	0.0012896	8.68173e-05	-0.000273664
  22	6.84929e-05	-0.000124899	0.00015623
  23	0.00063524	-0.000212877	-0.000957698
  24	0.000236758	0.000393486	0.000142926
  25	6.18456e-05	-0.000323201	0.000320317
  26	0.000257234	-0.000271009	0.000162746
  27	0.000189699	-0.000394933	0.000588887
  28	1.55384e-05	0.00029454	0.000373937
  29	8.30814e-05	5.55969e-05	0.000256264
  30	-4.96608e-05	0.000521101	0.000211592
  31	0.000345621	5.34447e-05	1.10544e-05
  32	8.01677e-06	0.00038171	0.00016298
  33	-0.000235656	-0.000268893	0.000450455
  34	0.000571637	0.000252392	-0.000205182
  35	0.000406209	-0.00018133	-3.25495e-05
  36	0.000589351	0.000468765	-0.000207252
  37	-0.00020194	-7.2624e-05	-0.000235089
  38	-0.000364098	-0.000148772	-0.000492462
  39	-0.000330688	-0.000186348	-2.19116e-05
  40	-0.000328379	-0.000116466	-0.000328429
  41	-3.98205e-05	1.8884e-05	-0.000153313
  42	-0.000603342	-0.000414748	-0.00114903
  43	-2.66881e-05	0.000374823	0.000713976
  44	-0.0005962	-0.000480144	-0.0011225
  45	0.000329383	0.00112166	0.0022675
  46	-0.00052017	-0.000356478	0.000358849
  47	0.000147975	0.000239198	0.000137804
  48	-0.000572565	-0.000942608	-0.000451079
  49	0.000222683	0.00029551	-0.00012136
  50	-0.00101336	-0.00078247	0.00106
  51	0.000655067	0.000657136	0.000165873
  52	-0.000257398	-0.000187129	-0.00020309
  53	0.000700812	0.000808144	-0.000165838
  54	-0.000957288	-0.00111211	-0.00027125
  55	-0.000422941	0.000397217	-0.000198972
  56	-0.000287792	0.000104852	-0.000159265
  57	-0.00063088	0.000285955	-0.000202945
  58	-0.000298461	3.71942e-05	8.31993e-05
  59	-0.000309658	0.000480932	-0.000173497
  60	-0.000234241	-8.39385e-05	-0.00052981
  61	-0.00035386	0.000237211	0.000599464
  62	-0.000300668	-0.000160707	-0.000157803
  63	-0.000495861	0.000544771	0.000798382
  64	0.000349893	0.000740363	-0.000201588
  65	-0.000242537	0.000416672	-0.000113283
  66	0.000797208	0.00038429	-0.000649832
  67	-1.0385e-05	0.000674336	-0.000637302
  68	0.000696123	0.00135246	1.63911e-05
  69	-0.000708369	-0.000108178	0.000348862
  70	-0.00065598	0.000449984	-0.0001156
  71	0.000365832	0.000842919	-0.00104143
  72	-0.0016252	0.000129232	0.000940252
  73	-0.000205089	-0.00087598	-4.18096e-05
  74	-0.000150813	-0.000394871	-0.000136546
  75	-0.000275253	-0.00110946	-0.000343612
  76	-0.000143059	3.11298e-05	-9.50927e-05
  77	-0.000123823	-0.00107706	0.000247032
  78	-6.90929e-05	-0.000280758	-0.00025548
  79	8.15196e-05	0.000775248	-6.51571e-05
  80	-0.000240241	-0.000155079	-4.2079e-05
  81	0.000113464	0.00112928	0.000157994
  82	-0.00102223	-0.000896287	0.000130974
  83	-0.000615809	-0.000931262	-0.000329256
  84	-0.001545	-0.00102924	-0.000298302
  85	-0.000296517	-0.000751505	0.000336867
  86	-0.0012245	-0.000972881	0.000644547
  87	-0.00053076	-0.00121862	-0.00126127
  88	-0.00019763	-0.000725588	0.000258649
  89	-0.000328113	-0.000679986	0.000918179
  90	-7.51343e-05	-0.000381914	0.000813875
  91	-0.00061207	0.000237799	0.000586788
  92	-0.000113569	-0.000368207	0.000860559
  93	-0.000660375	-9.41364e-05	0.000869603
  94	-0.00052349	-0.000104962	0.000301173
  95	-0.00138989	0.000270852	0.000623173
  96	0.000165173	-0.000888313	0.00131425
  97	-0.00059156	-0.000635336	6.90928e-05
  98	-0.000422391	9.40464e-05	8.66729e-05
  99	-0.00104196	-0.000252901	-0.0009337
 100	0.000334111	0.00109874	0.000386568
 101	0.0003278	0.000772857	0.000776133
 102	0.000304344	0.00108262	0.00035356
 103	-8.10572e-05	0.00113196	-0.000956192
 104	0.000135989	0.00103481	0.000428968
 105	0.00103039	8.00429e-05	0.00300862
 106	-0.000310662	0.000949828	-0.000524282
 107	-0.00030532	0.00162285	-0.00288206
 108	-0.00062997	0.00137188	-0.00215116
 109	-0.000343266	0.00153576	0.000396199
 110	-0.000776594	0.00128854	0.00126447
 111	-0.000299475	0.00200353	-8.35527e-05
 112	-0.000645744	0.00145999	0.00102229
 113	-0.000595427	0.00193986	0.000459949
 114	-0.000784453	0.00112195	0.00141889
 115	-9.61996e-05	0.00155437	0.000499291
 116	-0.000801241	0.00154502	0.00116561
 117	0.000405642	0.00207033	-1.36991e-05
 118	0.000256878	0.000569404	0.000187644
 119	0.000266614	0.000614476	0.000397022
 120	0.000430959	0.000775812	8.11243e-05
 121	0.000527037	0.000216248	-0.000276246
 122	8.62361e-05	0.000521262	0.000195602
 123	-0.000174674	0.00145605	0.00133649
 124	0.000343285	0.000714192	3.52472e-06
 125	0.000840321	-0.000171412	-0.0005772
 126	0.000711311	0.000448523	-0.000528697
 127	0.000661986	0.000312869	-0.000171967
 128	0.00127606	0.00168753	8.149e-05
 129	0.000724356	-2.33824e-05	-0.00131162
 130	0.000661261	0.000918842	0.000128143
 131	0.000553281	3.69068e-05	-0.000172916
 132	0.0017969	0.00248076	0.000188048
 133	9.61036e-05	0.000438229	9.9766e-05
 134	0.000110475	-2.44325e-05	8.29756e-05
 135	-0.00140524	-0.00180275	6.241e-05
 136	-0.000852216	0.000456481	-0.00118179
 137	-0.000450033	0.000243142	0.000594215
 138	-0.00103568	0.00154531	-0.00208599
 139	-0.000292458	-5.37081e-05	0.000984798
 140	-0.000748925	-0.00088538	-0.00198448
 141	-0.000133026	0.000242688	0.00130632
 142	8.73983e-05	-0.000334812	0.000873777
 143	-0.000500611	-0.000194487	0.00107316
 144	2.35621e-05	-0.000551228	0.000561652
 145	-9.63514e-05	-0.000276935	6.23627e-05
 146	-0.00023459	-0.000255382	-0.000222624
 147	0.000119212	-0.00026673	1.11229e-05
 148	-0.000849251	-0.000785413	-8.85762e-05
 149	-0.000206869	-0.000296808	0.000173155
 150	0.000207999	0.000903024	-0.000678968
 151	-0.00103851	0.000330178	-0.000695492
 152	-0.00131555	-0.0021487	0.000366829
 153	-0.0018048	-0.00109738	-0.000273029
 154	0.000750024	7.23502e-05	-0.000369317
 155	0.000818477	-6.84566e-05	-0.000478827
 156	0.000784855	6.57117e-05	-0.00043514
 157	0.00080454	-0.000274892	-0.000605695
 158	0.000722536	0.000188404	-0.000324729
 159	0.000744175	-0.000167582	-0.000291026
 160	0.000111751	-0.00019974	0.000128325
 161	0.00121359	-0.000395481	-0.00100317
 162	-0.000945736	-0.000251575	0.000660446
 163	0.000560708	0.000109728	0.000180048
 164	9.92743e-05	0.000451445	-0.000152483
 165	0.000909287	4.17623e-05	-6.1866e-05
 166	0.000550453	0.00040167	-0.000183584
 167	0.000560087	8.83276e-05	0.000169316
 168	-0.000713018	0.0008719	-0.000477864
 169	0.000708808	0.000341143	-0.000417198
 170	0.000507015	0.000722874	-8.95176e-05
 171	0.000472035	0.000320999	-0.000697468
 172	0.00156336	-0.00102277	-7.24926e-05
 173	0.000818374	-0.000954795	0.000417716
 174	0.00286234	-0.00106164	0.000502141
 175	0.000695427	-0.000510864	0.00080449
 176	0.00172818	-0.00123559	-0.00137135
 177	0.00040099	-0.0012369	0.000147346
 178	0.000426942	-0.000137145	0.000562365
 179	0.00103379	-0.000269346	0.000930758
 180	0.000238148	-0.000130929	-7.00262e-05
 181	-0.00131696	-0.000529384	0.000329544
 182	-0.000718939	-2.47278e-05	0.000180408
 183	-0.00131023	0.000228102	0.00132731
 184	-6.81095e-05	-0.000265059	-3.89919e-05
 185	-0.00233725	-0.00133668	0.00050051
 186	-0.000734532	0.000492382	5.26728e-05
 187	0.000609345	-0.000845427	0.000399109
 188	0.000138133	2.75529e-05	-0.000536185
 189	0.000606777	-0.000986113	0.00118585
 190	-0.00103278	0.000688549	-0.000431983
 191	-0.000824885	-9.44506e-05	-0.000811592
 192	-0.00131902	0.000959125	-0.000804691
 193	-0.00085949	-0.00112535	-0.00102794
 194	-0.00113436	0.00110236	-0.000185376
 195	-0.00070063	0.000213969	-0.000589085
 196	-0.000700513	-0.000674535	-0.000776533
 197	-0.00093261	-0.00155889	-0.00108959
 198	-0.000449512	0.000373051	-0.000855154
 199	0.00111724	-0.000311686	5.63524e-05
 200	0.000543535	-0.000777777	0.000521253
 201	0.00149223	-0.000639507	-9.68721e-05
 202	-0.000434518	-5.21503e-05	6.72343e-05
 203	0.0012285	0.00018712	2.87774e-05
 204	0.000954048	-0.0021712	0.0018166
 205	-0.00066715	0.000659777	-4.0856e-05
 206	-0.000809694	-0.000441521	0.000330994
 207	-0.0002571	0.000930004	0.000137844
 208	0.00102144	-0.000177061	-0.0006873
 209	0.000783011	-0.000547561	9.10292e-06
 210	0.00168011	0.000430739	-0.0013205
 211	0.00107429	-0.000416295	4.56886e-05
 212	0.000109003	-0.000192367	-0.00116825
 213	-6.14844e-05	-0.00095464	0.0005633
 214	0.000922652	-0.000357804	9.83907e-05
 215	0.00109793	-0.000379244	5.68207e-05
 216	0.000347806	-0.000516471	0.000188095
 217	-0.000690724	-0.00033286	-0.00134047
 218	-0.000194507	8.38264e-05	-0.00169962
 219	-0.00121128	-0.000628994	-0.000915508
 220	0.000863087	-0.000508042	-0.000550121
 221	-0.000839778	-0.000705753	-0.00193768
 222	-0.00129091	0.0010065	-0.00327852
 223	0.00133192	-0.000597742	-0.00013043
 224	0.00140703	-0.000979508	0.000230127
 225	0.00171968	-0.000903062	0.000485269
 226	0.000687054	-0.000216665	-0.000414254
 227	0.000117495	0.00049268	-0.000818907
 228	0.000200483	-0.00106641	-0.000646448
 229	-0.000318445	0.000311692	-0.000954795
 230	0.00138854	-0.000552612	0.000174321
 231	6.4157e-05	0.00129777	-0.00093681
 232	-0.000538218	1.49589e-05	-0.000821249
 233	-0.000462829	0.000438958	-0.00124753
 234	-0.000299788	-0.00026149	-0.000537842
 235	-0.000486956	0.00100766	-0.000127142
 236	-0.00019228	0.000765727	-0.000893124
 237	-0.000931367	0.00154723	-0.000410212
 238	0.000767791	0.000730385	-0.000712648
 239	-0.000624034	0.000919456	0.000262588
 240	-0.000901857	0.000409259	-0.00164735
 241	0.000966143	0.000579676	-0.000244115
 242	0.00107453	0.000749895	-0.00101232
 243	0.000211624	0.000468365	0.000209083
 244	-3.57682e-06	-0.00031423	0.000202317
 245	0.000101467	0.00048179	0.00044107
 246	-0.000112498	-0.00079831	0.00115276
 247	-0.000298884	0.000552849	0.000260681
 248	0.000373928	0.000211158	3.77542e-05
 249	0.000120208	0.000546761	0.000255721
 250	-0.000433494	0.000645224	0.000267332
 251	-0.000248339	0.000487717	-0.000351582
 252	-0.000176293	0.000125263	-0.000981612
 253	0.000876936	-0.00145528	-0.000301845
 254	0.000772919	-0.000813405	0.000679666
 255	-0.0013797	-0.00286102	-0.00194202
 256	-6.3098e-05	-0.00217868	-0.000861127
 257	0.00350979	-0.00208843	-0.00170034
 258	0.00174958	0.000466466	0.00285254
 259	-2.85601e-05	-0.00134112	-0.000325661
 260	-0.000455371	-0.00303206	-0.001162
 261	0.000306956	0.000902189	0.00145416
 262	-0.000409888	-0.000192361	0.000212005
 263	-0.000845472	0.000533313	0.00196558
 264	-0.00158352	-0.000863841	-0.000258164
 265	-0.0001737	0.000620284	0.00193863
 266	-0.00075246	-0.00069606	-0.000177975
 267	-0.000838189	-0.000131212	0.00163326
 268	-0.000124969	0.000554575	0.00210654
 269	-0.00017629	-0.000129307	0.00168452
 270	-0.00143499	0.00157106	0.00325316
 271	-0.00129734	-0.00198382	0.000685424
 272	0.000584069	0.000121814	0.000169252
 273	-0.00225177	-0.00434742	0.00147965
 274	0.00232073	0.000675535	-0.000281366
 275	0.000292804	-0.00193815	0.0014247
 276	-0.000258191	-0.00063719	0.000317895
 277	0.00154222	0.000220523	-0.000517263
 278	0.0041837	0.00133036	-0.000416965
 279	0.00313272	-2.10716e-05	-0.0012902
 280	-0.000620156	0.000279534	0.000100721
 281	-0.00392525	-0.000350344	-0.00114463

Bonds

   1	3	1	2
   2	4	1	3
   3	4	1	5
   4	2	2	4
   5	5	2	6
   6	2	4	7
   7	6	4	8
   8	5	7	9
   9	3	10	11
  10	4	10	12
  11	4	10	14
  12	2	11	13
  13	5	11	15
  14	2	13	16
  15	6	13	17
  16	5	16	18
  17	3	1	16
  18	3	19	20
  19	4	19	21
  20	4	19	23
  21	2	20	22
  22	5	20	24
  23	2	22	25
  24	6	22	26
  25	5	25	27
  26	3	10	25
  27	3	28	29
  28	4	28	30
  29	4	28	32
  30	2	29	31
  31	5	29	33
  32	2	31	34
  33	6	31	35
  34	5	34	36
  35	3	19	34
  36	3	37	38
  37	4	37	39
  38	4	37	41
  39	2	38	40
  40	5	38	42
  41	2	40	43
  42	6	40	44
  43	5	43	45
  44	3	28	43
  45	3	46	47
  46	4	46	48
  47	4	46	50
  48	2	47	49
  49	5	47	51
  50	2	49	52
  51	6	49	53
  52	5	52	54
  53	3	37	52
  54	3	55	56
  55	4	55	57
  56	4	55	59
  57	2	56	58
  58	5	56	60
  59	2	58	61
  60	6	58	62
  61	5	61	63
  62	3	46	61
  63	3	64	65
  64	4	64	66
  65	4	64	68
  66	2	65	67
  67	5	65	69
  68	2	67	70
  69	6	67	71
  70	5	70	72
  71	3	55	70
  72	3	73	74
  73	4	73	75
  74	4	73	77
  75	2	74	76
  76	5	74	78
  77	2	76	79
  78	6	76	80
  79	5	79	81
  80	3	64	79
  81	3	82	83
  82	4	82	84
  83	4	82	86
  84	2	83	85
  85	5	83	87
  86	2	85	88
  87	6	85	89
  88	5	88	90
  89	3	73	88
  90	3	91	92
  91	4	91	93
  92	4	91	95
  93	2	92	94
  94	5	92	96
  95	2	94	97
  96	6	94	98
  97	5	97	99
  98	3	82	97
  99	3	100	101
 100	4	100	102
 101	4	100	104
 102	2	101	103
 103	5	101	105
 104	2	103	106
 105	6	103	107
 106	5	106	108
 107	3	91	106
 108	3	109	110
 109	4	109	111
 110	4	109	113
 111	2	110	112
 112	5	110	114
 113	2	112	115
 114	6	112	116
 115	5	115	117
 116	3	100	115
 117	3	118	119
 118	4	118	120
 119	4	118	122
 120	2	119	121
 121	5	119	123
 122	2	121	124
 123	6	121	125
 124	5	124	126
 125	3	109	124
 126	3	127	128
 127	4	127	129
 128	4	127	131
 129	2	128	130
 130	5	128	132
 131	2	130	133
 132	6	130	134
 133	5	133	135
 134	3	118	133
 135	3	136	137
 136	4	136	138
 137	4	136	140
 138	2	137	139
 139	5	137	141
 140	2	139	142
 141	6	139	143
 142	5	142	144
 143	3	127	142
 144	3	145	146
 145	4	145	147
 146	4	145	149
 147	2	146	148
 148	5	146	150
 149	2	148	151
 150	6	148	152
 151	5	151	153
 152	3	136	151
 153	3	154	155
 154	4	154	156
 155	4	154	158
 156	2	155	157
 157	5	155	159
 158	2	157	160
 159	6	157	161
 160	5	160	162
 161	3	145	160
 162	3	163	164
 163	4	163	165
 164	4	163	167
 165	2	164	166
 166	5	164	168
 167	2	166	169
 168	6	166	170
 169	5	169	171
 170	3	154	169
 171	3	172	173
 172	4	172	174
 173	4	172	176
 174	2	173	175
 175	5	173	177
 176	2	175	178
 177	6	175	179
 178	5	178	180
 179	3	163	178
 180	3	181	182
 181	4	181	183
 182	4	181	185
 183	2	182	184
 184	5	182	186
 185	2	184	187
 186	6	184	188
 187	5	187	189
 188	3	172	187
 189	3	190	191
 190	4	190	192
 191	4	190	194
 192	2	191	193
 193	5	191	195
 194	2	193	196
 195	6	193	197
 196	5	196	198
 197	3	181	196
 198	3	199	200
 199	4	199	201
 200	4	199	203
 201	2	200	202
 202	5	200	204
 203	2	202	205
 204	6	202	206
 205	5	205	207
 206	3	190	205
 207	3	208	209
 208	4	208	210
 209	4	208	212
 210	2	209	211
 211	5	209	213
 212	2	211	214
 213	6	211	215
 214	5	214	216
 215	3	199	214
 216	3	217	218
 217	4	217	219
 218	4	217	221
 219	2	218	220
 220	5	218	222
 221	2	220	223
 222	6	220	224
 223	5	223	225
 224	3	208	223
 225	3	226	227
 226	4	226	228
 227	4	226	230
 228	2	227	229
 229	5	227	231
 230	2	229	232
 231	6	229	233
 232	5	232	234
 233	3	217	232
 234	3	235	236
 235	4	235	237
 236	4	235	239
 237	2	236	238
 238	5	236	240
 239	2	238	241
 240	6	238	242
 241	5	241	243
 242	3	226	241
 243	3	244	245
 244	4	244	246
 245	4	244	248
 246	2	245	247
 247	5	245	249
 248	2	247	250
 249	6	247	251
 250	5	250	252
 251	3	235	250
 252	3	253	254
 253	4	253	255
 254	4	253	257
 255	2	254	256
 256	5	254	258
 257	2	256	259
 258	6	256	260
 259	5	259	261
 260	3	244	259
 261	3	262	263
 262	4	262	264
 263	4	262	266
 264	2	263	265
 265	5	263	267
 266	2	265	268
 267	6	265	269
 268	5	268	270
 269	3	253	268
 270	3	271	272
 271	4	271	273
 272	4	271	275
 273	2	272	274
 274	5	272	276
 275	2	274	277
 276	6	274	278
 277	5	277	279
 278	3	262	277
 279	1	7	280
 280	4	271	281

Angles

   1	7	2	1	3
   2	7	2	1	5
   3	4	3	1	5
   4	8	1	2	4
   5	6	1	2	6
   6	2	4	2	6
   7	5	2	4	7
   8	1	2	4	8
   9	1	7	4	8
  10	2	4	7	9
  11	7	11	10	12
  12	7	11	10	14
  13	4	12	10	14
  14	8	10	11	13
  15	6	10	11	15
  16	2	13	11	15
  17	5	11	13	16
  18	1	11	13	17
  19	1	16	13	17
  20	2	13	16	18
  21	10	2	1	16
  22	7	3	1	16
  23	7	5	1	16
  24	8	1	16	13
  25	6	1	16	18
  26	7	20	19	21
  27	7	20	19	23
  28	4	21	19	23
  29	8	19	20	22
  30	6	19	20	24
  31	2	22	20	24
  32	5	20	22	25
  33	1	20	22	26
  34	1	25	22	26
  35	2	22	25	27
  36	10	11	10	25
  37	7	12	10	25
  38	7	14	10	25
  39	8	10	25	22