pySIMM System Object

227 atoms
226 bonds
375 angles
494 dihedrals
50 impropers

7 atom types
6 bond types
10 angle types
4 dihedral types
2 improper types

-94.645547 94.645547 xlo xhi
-94.645547 94.645547 ylo yhi
-94.645547 94.645547 zlo zhi

Masses

   1	12.01	# c3
   2	12.01	# c
   3	1.008	# hc
   4	14.01	# n
   5	16.0	# o
   6	1.008	# hn
   7	1.008	# h5

Pair Coeffs

   1	0.1094	3.3996695084235347	# c3
   2	0.086	3.3996695084235347	# c
   3	0.0157	2.649532787749369	# hc
   4	0.17	3.249998523775958	# n
   5	0.21	2.959921901149463	# o
   6	0.0157	1.069078461768407	# hn
   7	0.015	2.421462715905442	# h5

Bond Coeffs

   1	319.7	1.1051	# c,h5
   2	427.6	1.3789	# c,n
   3	313.0	1.5241	# c,c3
   4	330.6	1.0969	# c3,hc
   5	637.7	1.2183	# c,o
   6	403.2	1.0129	# hn,n

Angle Coeffs

   1	48.33	117.55	# c,n,hn
   2	74.22	123.05	# n,c,o
   3	53.7	123.65	# h5,c,o
   4	39.4	107.58	# hc,c3,hc
   5	63.74	127.08	# c,n,c
   6	67.4	123.2	# c3,c,o
   7	46.93	108.77	# c,c3,hc
   8	66.79	115.18	# c3,c,n
   9	51.42	112.16	# h5,c,n
  10	63.38	111.63	# c,c3,c

Dihedral Coeffs

   1	3	0.8	1	0	0.0	2	0	0.08	3	180	# hc,c3,c,o
   2	1	2.5	2	180	# X,c,n,X
   3	2	2.5	2	180	2.0	1	0	# hn,n,c,o
   4	1	0.0	2	180	# X,c,c3,X

Improper Coeffs

   1	10.5	-1	2	# c,X,X,o
   2	1.1	-1	2	# n,X,X,hn

Atoms

   1	1	1	-0.041892	24.0956	8.8997	10.3195
   2	1	2	0.591489	23.6628	8.9288	8.87184
   3	1	3	0.048074	24.9176	8.18591	10.4459
   4	1	4	-0.651929	23.3159	10.142	8.35459
   5	1	3	0.049056	24.4384	9.88912	10.6443
   6	1	5	-0.529683	23.6157	7.91939	8.20306
   7	1	2	0.758009	22.8358	10.3905	7.10716
   8	1	6	0.367145	23.3756	10.9622	8.92921
   9	1	5	-0.590269	22.5862	11.5353	6.79405
  10	1	1	-0.041892	20.2307	7.21539	11.9905
  11	1	2	0.591489	21.4398	6.47649	11.4407
  12	1	3	0.048074	19.489	6.4782	12.3179
  13	1	4	-0.651929	22.5725	7.14819	11.07
  14	1	3	0.049056	20.5176	7.809	12.8647
  15	1	5	-0.529683	21.4271	5.27889	11.2584
  16	1	2	0.758009	22.9018	8.47534	11.1396
  17	1	6	0.367145	23.1941	6.55856	10.5425
  18	1	5	-0.590269	22.2454	9.28596	11.7608
  19	1	1	-0.041892	16.5706	9.93671	12.2266
  20	1	2	0.591489	17.7299	8.9718	12.3309
  21	1	3	0.048074	16.8348	10.8742	12.7286
  22	1	4	-0.651929	18.4904	8.84567	11.2002
  23	1	3	0.049056	16.3484	10.1635	11.1772
  24	1	5	-0.529683	17.9908	8.39983	13.3666
  25	1	2	0.758009	19.603	8.10516	10.9251
  26	1	6	0.367145	18.2125	9.37433	10.3937
  27	1	5	-0.590269	20.0439	8.23465	9.8009
  28	1	1	-0.041892	12.7105	8.65183	14.3629
  29	1	2	0.591489	13.686	9.77663	14.6706
  30	1	3	0.048074	12.6134	8.50449	13.284
  31	1	4	-0.651929	14.8192	9.96768	13.9278
  32	1	3	0.049056	13.0749	7.71793	14.8053
  33	1	5	-0.529683	13.5321	10.5249	15.6105
  34	1	2	0.758009	15.3466	9.30296	12.8505
  35	1	6	0.367145	15.3615	10.7364	14.279
  36	1	5	-0.590269	14.7887	8.36848	12.3191
  37	1	1	-0.041892	8.60206	8.71026	16.3049
  38	1	2	0.591489	9.97133	8.76033	16.9659
  39	1	3	0.048074	7.84263	8.87306	17.0786
  40	1	4	-0.651929	11.1185	8.82611	16.2246
  41	1	3	0.049056	8.48114	9.51169	15.5693
  42	1	5	-0.529683	10.0908	8.68019	18.1686
  43	1	2	0.758009	11.3219	8.97001	14.8771
  44	1	6	0.367145	11.9444	8.74529	16.7911
  45	1	5	-0.590269	10.4092	9.21322	14.1134
  46	1	1	-0.041892	7.10095	4.62718	14.7637
  47	1	2	0.591489	6.39767	5.96723	14.95
  48	1	3	0.048074	7.42866	4.51962	13.7239
  49	1	4	-0.651929	7.04866	7.08537	15.3903
  50	1	3	0.049056	7.97621	4.53771	15.4124
  51	1	5	-0.529683	5.21452	6.10345	14.7271
  52	1	2	0.758009	8.36324	7.35477	15.6633
  53	1	6	0.367145	6.4113	7.84784	15.533
  54	1	5	-0.590269	9.24252	6.54603	15.4473
  55	1	1	-0.041892	3.74141	1.7047	15.6924
  56	1	2	0.591489	4.05192	2.41217	14.3714
  57	1	3	0.048074	4.50354	0.936006	15.8639
  58	1	4	-0.651929	5.1544	3.21238	14.2657
  59	1	3	0.049056	3.81715	2.43514	16.5053
  60	1	5	-0.529683	3.30938	2.41793	13.4118
  61	1	2	0.758009	6.15954	3.50403	15.151
  62	1	6	0.367145	5.14651	3.75167	13.4181
  63	1	5	-0.590269	6.28579	2.90902	16.1996
  64	1	1	-0.041892	-0.796098	2.17503	14.1157
  65	1	2	0.591489	0.00925268	1.31126	15.0614
  66	1	3	0.048074	-1.84871	2.14907	14.4208
  67	1	4	-0.651929	1.34945	1.59528	15.0826
  68	1	3	0.049056	-0.447267	3.2115	14.1843
  69	1	5	-0.529683	-0.525941	0.513347	15.8005
  70	1	2	0.758009	2.36845	1.05285	15.8208
  71	1	6	0.367145	1.66843	2.22648	14.3633
  72	1	5	-0.590269	2.17318	0.24742	16.7054
  73	1	1	-0.041892	-2.84978	3.76953	10.3926
  74	1	2	0.591489	-2.14108	3.45783	11.6909
  75	1	3	0.048074	-3.07374	2.84037	9.85605
  76	1	4	-0.651929	-1.34871	2.33878	11.6815
  77	1	3	0.049056	-3.79936	4.25991	10.6351
  78	1	5	-0.529683	-2.3508	4.09939	12.6981
  79	1	2	0.758009	-0.680322	1.69176	12.6799
  80	1	6	0.367145	-1.19085	1.89463	10.7957
  81	1	5	-0.590269	0.00396558	0.751933	12.338
  82	1	1	-0.041892	-3.93137	5.40581	6.30791
  83	1	2	0.591489	-3.74563	4.84816	7.698
  84	1	3	0.048074	-4.99336	5.63524	6.16314
  85	1	4	-0.651929	-2.52695	5.06732	8.28708
  86	1	3	0.049056	-3.38433	6.34304	6.16928
  87	1	5	-0.529683	-4.62723	4.22372	8.24695
  88	1	2	0.758009	-2.02705	4.6847	9.50117
  89	1	6	0.367145	-1.84291	5.5723	7.73278
  90	1	5	-0.590269	-0.859342	4.92943	9.71424
  91	1	1	-0.041892	-0.110785	5.02975	3.88258
  92	1	2	0.591489	-1.17548	5.11295	4.95434
  93	1	3	0.048074	-0.254806	4.12387	3.28216
  94	1	4	-0.651929	-2.28931	4.34289	4.73298
  95	1	3	0.049056	0.863147	4.9387	4.37845
  96	1	5	-0.529683	-1.03005	5.77297	5.96298
  97	1	2	0.758009	-3.53029	4.3429	5.30239
  98	1	6	0.367145	-2.29736	3.77254	3.89717
  99	1	5	-0.590269	-4.34394	3.59413	4.80594
 100	1	1	-0.041892	-3.35885	6.06673	1.14583
 101	1	2	0.591489	-2.44073	6.4645	2.27932
 102	1	3	0.048074	-2.89105	6.2489	0.171973
 103	1	4	-0.651929	-1.09645	6.33813	2.05699
 104	1	3	0.049056	-4.27412	6.66556	1.21588
 105	1	5	-0.529683	-2.87053	6.79857	3.36194
 106	1	2	0.758009	-0.0695988	6.2391	2.95066
 107	1	6	0.367145	-0.768045	6.44158	1.11379
 108	1	5	-0.590269	1.0014	6.54583	2.47442
 109	1	1	-0.041892	-6.3906	3.47389	-1.0904
 110	1	2	0.591489	-5.51474	4.50468	-0.405849
 111	1	3	0.048074	-6.42606	3.69166	-2.16426
 112	1	4	-0.651929	-4.67996	4.00656	0.562304
 113	1	3	0.049056	-5.94584	2.48146	-0.962068
 114	1	5	-0.529683	-5.42034	5.64388	-0.809873
 115	1	2	0.758009	-3.68958	4.58786	1.3005
 116	1	6	0.367145	-4.77714	3.03269	0.787406
 117	1	5	-0.590269	-2.9889	3.8305	1.94626
 118	1	1	-0.041892	-9.84992	0.655179	-2.0223
 119	1	2	0.591489	-8.58478	1.44757	-1.78179
 120	1	3	0.048074	-10.5644	0.821849	-1.20831
 121	1	4	-0.651929	-8.69723	2.51016	-0.92087
 122	1	3	0.049056	-9.62613	-0.412081	-2.02899
 123	1	5	-0.529683	-7.54716	1.18147	-2.34916
 124	1	2	0.758009	-7.80805	3.47637	-0.540353
 125	1	6	0.367145	-9.59848	2.66424	-0.502746
 126	1	5	-0.590269	-8.19457	4.2599	0.297824
 127	1	1	-0.041892	-9.76375	-0.962426	-6.3733
 128	1	2	0.591489	-9.82246	-0.687354	-4.88573
 129	1	3	0.048074	-8.77935	-1.39124	-6.58453
 130	1	4	-0.651929	-10.3232	0.536007	-4.51939
 131	1	3	0.049056	-9.8718	-0.0404952	-6.95612
 132	1	5	-0.529683	-9.4174	-1.50013	-4.08507
 133	1	2	0.758009	-10.4584	1.16941	-3.31559
 134	1	6	0.367145	-10.6876	1.1098	-5.25796
 135	1	5	-0.590269	-10.9489	2.27674	-3.3562
 136	1	1	-0.041892	-10.452	-3.30343	-10.2311
 137	1	2	0.591489	-9.9239	-2.61675	-8.98795
 138	1	3	0.048074	-11.1992	-4.05349	-9.94567
 139	1	4	-0.651929	-10.8344	-2.58533	-7.96199
 140	1	3	0.049056	-10.9573	-2.5317	-10.8209
 141	1	5	-0.529683	-8.90197	-1.9663	-8.96305
 142	1	2	0.758009	-10.8598	-1.93952	-6.75964
 143	1	6	0.367145	-11.6891	-3.09364	-8.10291
 144	1	5	-0.590269	-11.9116	-2.00589	-6.1611
 145	1	1	-0.041892	-11.1407	-5.57732	-14.08
 146	1	2	0.591489	-11.0249	-4.65151	-12.886
 147	1	3	0.048074	-10.4192	-6.39947	-14.0052
 148	1	4	-0.651929	-9.80541	-4.61651	-12.2539
 149	1	3	0.049056	-10.9338	-5.01717	-14.999
 150	1	5	-0.529683	-11.9854	-4.06177	-12.443
 151	1	2	0.758009	-9.40471	-3.99209	-11.0997
 152	1	6	0.367145	-9.04745	-5.13218	-12.6683
 153	1	5	-0.590269	-8.28471	-4.25577	-10.7259
 154	1	1	-0.041892	-13.7985	-8.86478	-11.8293
 155	1	2	0.591489	-13.9258	-7.84095	-12.9427
 156	1	3	0.048074	-14.7671	-9.35883	-11.6868
 157	1	4	-0.651929	-12.8014	-7.09069	-13.173
 158	1	3	0.049056	-13.5366	-8.35941	-10.8926
 159	1	5	-0.529683	-14.9737	-7.68469	-13.528
 160	1	2	0.758009	-12.5488	-6.14023	-14.1277
 161	1	6	0.367145	-12.0066	-7.35476	-12.6226
 162	1	5	-0.590269	-13.3341	-5.82135	-14.9924
 163	1	1	-0.041892	-10.6724	-12.2171	-12.0488
 164	1	2	0.591489	-11.8221	-11.9768	-11.0873
 165	1	3	0.048074	-10.4088	-13.2766	-11.9702
 166	1	4	-0.651929	-12.7062	-10.9476	-11.2544
 167	1	3	0.049056	-10.9599	-12.0283	-13.0884
 168	1	5	-0.529683	-12.0221	-12.7062	-10.1415
 169	1	2	0.758009	-12.7451	-9.91088	-12.1435
 170	1	6	0.367145	-13.4196	-10.9627	-10.5489
 171	1	5	-0.590269	-11.8471	-9.72018	-12.9385
 172	1	1	-0.041892	-6.23497	-12.7523	-12.9562
 173	1	2	0.591489	-7.73811	-12.7568	-12.7966
 174	1	3	0.048074	-5.78744	-12.0847	-12.2119
 175	1	4	-0.651929	-8.21212	-11.7439	-12.0044
 176	1	3	0.049056	-6.0135	-12.3435	-13.9491
 177	1	5	-0.529683	-8.46787	-13.4508	-13.4704
 178	1	2	0.758009	-9.47707	-11.3605	-11.6658
 179	1	6	0.367145	-7.52904	-11.1279	-11.6012
 180	1	5	-0.590269	-9.55939	-10.3585	-10.9834
 181	1	1	-0.041892	-2.23882	-13.7289	-14.4844
 182	1	2	0.591489	-3.35	-13.3356	-13.5356
 183	1	3	0.048074	-1.32557	-13.9424	-13.9172
 184	1	4	-0.651929	-4.31021	-14.2817	-13.2901
 185	1	3	0.049056	-2.51365	-14.6204	-15.06
 186	1	5	-0.529683	-3.48569	-12.1915	-13.165
 187	1	2	0.758009	-5.58833	-14.1266	-12.8265
 188	1	6	0.367145	-4.07755	-15.2501	-13.4267
 189	1	5	-0.590269	-6.18167	-15.1424	-12.5441
 190	1	1	-0.041892	-2.22649	-10.2389	-17.5099
 191	1	2	0.591489	-3.32142	-11.1987	-17.08
 192	1	3	0.048074	-2.41581	-9.9501	-18.5502
 193	1	4	-0.651929	-3.08219	-12.2362	-16.2239
 194	1	3	0.049056	-1.23413	-10.6974	-17.4867
 195	1	5	-0.529683	-4.45234	-11.1178	-17.5019
 196	1	2	0.758009	-2.01091	-12.5645	-15.4324
 197	1	6	0.367145	-3.90808	-12.7957	-16.114
 198	1	5	-0.590269	-1.00757	-11.8833	-15.3993
 199	1	1	-0.041892	-2.01645	-6.7875	-14.4002
 200	1	2	0.591489	-1.43728	-8.19394	-14.4144
 201	1	3	0.048074	-2.64087	-6.54721	-15.2583
 202	1	4	-0.651929	-1.6152	-9.06711	-15.456
 203	1	3	0.049056	-1.16353	-6.10894	-14.419
 204	1	5	-0.529683	-0.723233	-8.57637	-13.5128
 205	1	2	0.758009	-2.28193	-8.9956	-16.6511
 206	1	6	0.367145	-1.1541	-9.95062	-15.2709
 207	1	5	-0.590269	-2.82804	-7.98958	-17.0474
 208	1	1	-0.041892	-3.46068	-2.8928	-12.6412
 209	1	2	0.591489	-2.61752	-4.1031	-12.9855
 210	1	3	0.048074	-4.52485	-3.14392	-12.591
 211	1	4	-0.651929	-3.20001	-5.32404	-12.7693
 212	1	3	0.049056	-3.34492	-2.16356	-13.4515
 213	1	5	-0.529683	-1.51548	-3.98515	-13.4721
 214	1	2	0.758009	-2.87539	-6.59307	-13.1617
 215	1	6	0.367145	-4.00999	-5.3224	-12.159
 216	1	5	-0.590269	-3.65218	-7.45169	-12.7961
 217	1	1	-0.041892	-4.3023	-3.96362	-8.24529
 218	1	2	0.591489	-4.15786	-3.77805	-9.74991
 219	1	3	0.048074	-4.40461	-2.99228	-7.74676
 220	1	4	-0.651929	-3.37037	-2.72525	-10.1302
 221	1	3	0.049056	-5.19159	-4.56753	-8.02818
 222	1	5	-0.529683	-4.67888	-4.52486	-10.5509
 223	1	2	0.758009	-2.98057	-2.25298	-11.3514
 224	1	6	0.367145	-2.99631	-2.15729	-9.39132
 225	1	5	-0.590269	-2.35913	-1.2132	-11.3398
 226	1	7	0	22.7148	9.50388	6.45836
 227	1	3	0	-3.41495	-4.47228	-7.84777

Velocities

   1	0.000136367	-0.000204756	1.60989e-05
   2	0.00077837	-0.000431605	-0.000175825
   3	-0.000114759	-0.00026076	8.94139e-05
   4	-0.000320517	-0.000527325	8.78886e-05
   5	7.09871e-05	-0.000163091	-0.000255254
   6	0.00266707	3.53601e-05	-0.000786351
   7	0.000343401	-2.03575e-05	-0.000139867
   8	-0.00151203	-0.000678754	0.000564454
   9	-0.000691925	2.36832e-05	0.000681132
  10	-0.000332807	0.000269868	0.000170882
  11	-0.000214239	0.000322144	0.000168017
  12	-9.0394e-06	0.000131615	0.000488584
  13	-0.00013361	0.000131898	3.7803e-05
  14	-0.000198858	0.000534203	-6.58824e-05
  15	-8.69188e-05	0.000346076	-0.000226562
  16	3.90424e-05	0.000144952	-5.65898e-05
  17	-5.74119e-05	-8.55759e-05	0.000587359
  18	0.000212528	0.000406656	-4.19301e-05
  19	-6.63189e-05	0.00050774	0.000273091
  20	-3.84239e-05	0.000365215	8.0382e-05
  21	0.00010223	0.000220325	0.000589423
  22	-0.000507255	-0.000322434	-0.000190879
  23	-3.44338e-06	0.000798556	0.000413244
  24	0.000440783	0.000879469	0.000264687
  25	-0.000532531	-0.000389188	-7.64335e-05
  26	-0.00085262	-0.000894736	-0.000407608
  27	-0.000871183	-0.00101309	-0.000304606
  28	-0.000123768	6.38998e-06	-0.000725843
  29	-0.000291973	9.26718e-05	-0.000246461
  30	3.12335e-05	0.000506738	-0.000804587
  31	-0.000128937	0.000284043	-2.59999e-05
  32	0.000153075	-6.67012e-05	-0.00110375
  33	-0.000666277	7.84834e-05	-0.000240372
  34	0.000192354	0.000209809	0.000210339
  35	-0.000391155	0.000447029	8.79787e-05
  36	0.000759871	-0.000325579	0.000612255
  37	0.00030355	-0.000149733	0.000540914
  38	0.000637106	-0.000290626	-8.36906e-05
  39	0.000658278	-9.55787e-05	0.000861492
  40	0.00030825	-0.00032329	-0.000529933
  41	0.000157938	-0.000109436	0.000618124
  42	0.00117091	-3.46311e-05	-0.000108357
  43	-0.000133615	-0.000536888	-0.000598494
  44	0.000521674	3.02114e-05	-0.000774764
  45	-0.000398088	-0.00095008	-0.000424808
  46	-0.000356815	0.000266197	0.00029034
  47	-0.000220231	0.000372353	3.13627e-05
  48	-0.000715371	-3.85142e-05	0.00022291
  49	-0.000195289	0.000208191	0.00045215
  50	-0.000227045	0.000241415	8.87956e-05
  51	-6.445e-05	0.000587527	-0.000736655
  52	-0.000130311	-6.10211e-05	0.000525091
  53	-0.000101288	0.000312731	0.000401855
  54	-0.00027615	-8.13994e-05	7.14892e-05
  55	0.000133269	-0.000108642	4.33791e-05
  56	0.000223566	-8.67446e-05	0.000178574
  57	0.000315121	0.00012111	0.000327038
  58	-2.11788e-05	0.000168659	0.000430665
  59	-0.000428014	-6.48927e-05	6.21791e-05
  60	0.000301645	-4.87141e-05	6.26662e-05
  61	-0.000310782	0.000425786	0.000675554
  62	8.67362e-05	0.000146221	0.000431033
  63	-0.000257884	0.000504715	0.000684914
  64	0.000236868	0.000240862	9.87755e-05
  65	0.000218805	0.000268827	0.00014581
  66	0.000284719	0.000477935	0.000300551
  67	0.000185422	0.000413645	0.000237125
  68	0.000436647	0.000185846	-0.000242368
  69	0.00026227	0.000282148	0.000135879
  70	0.000316865	-0.000560668	-0.000629855
  71	6.52358e-05	0.00104751	0.000753235
  72	0.00070758	-0.00229941	-0.00219007
  73	-0.000556153	-7.26757e-05	0.000394969
  74	-0.000320088	-0.000140871	0.000308926
  75	-0.00107766	-6.40316e-05	0.000628803
  76	-0.000408725	-0.000261029	0.000247758
  77	-0.000303752	0.000365633	0.000520436
  78	0.000275721	0.000169042	0.000196631
  79	-7.97497e-05	-2.92029e-05	0.000182535
  80	-0.000557802	-0.000309933	0.000262632
  81	0.000120966	6.69127e-05	0.000168016
  82	-0.000106245	2.81772e-05	-1.46012e-05
  83	-0.000299465	7.45854e-05	7.76365e-05
  84	-1.36687e-05	0.000374035	-0.000151293
  85	-0.000201118	-0.000435595	7.96982e-05
  86	0.000176692	-0.00015427	-7.07063e-05
  87	-0.00055872	0.000513221	0.00018322
  88	-0.000281525	-0.0006001	9.54589e-05
  89	-1.30007e-05	-0.000718649	6.12664e-05
  90	-5.49635e-05	-0.00138735	-0.000250599
  91	-0.000759847	-0.000339481	-0.000356395
  92	-0.000453071	-0.000185032	-0.000153025
  93	-0.00125351	-8.6843e-05	-0.000599189
  94	-0.000475578	-0.000117847	-8.06581e-05
  95	-0.000705011	-0.000896541	-0.000552913
  96	-0.000229602	-0.000163455	-0.000201539
  97	-0.000410757	-3.51399e-05	-3.7996e-05
  98	-0.000530787	-1.48555e-05	-0.000152193
  99	-0.00058999	0.000344252	-0.000346747
 100	-6.11861e-05	0.000412333	-0.000436095
 101	-0.000341226	0.000752874	-0.00036016
 102	-0.000160649	0.000627407	-0.00046032
 103	-0.000346557	0.000379608	-4.64896e-05
 104	-0.000442172	-0.000121781	-0.000547346
 105	-0.000545611	0.000505805	-0.000347576
 106	-0.000550974	2.87217e-05	0.000156369
 107	-0.000110035	0.000171573	1.95452e-05
 108	-0.000455465	9.47062e-05	0.000468823
 109	0.000702597	-0.000968715	0.000439136
 110	0.00100558	-0.000864231	-0.000214249
 111	0.000499729	-0.00127241	0.000366213
 112	0.00128238	-0.000450759	-0.000271152
 113	0.000372962	-0.00109228	0.00066753
 114	0.000562774	-0.000918289	-0.000450654
 115	0.000862782	0.00021676	-0.000288821
 116	0.00169082	-0.000431413	-3.26465e-05
 117	0.00101154	0.000705446	0.000143844
 118	-0.000279084	0.00095213	-8.71023e-05
 119	-0.000270225	0.00108877	-0.000809192
 120	-2.72241e-05	0.00137431	1.76149e-05
 121	0.000158615	0.000674619	-0.000236134
 122	-0.000223822	0.000960794	0.000502257
 123	-0.000465462	0.00104644	-0.00114959
 124	0.000824553	-0.000307151	0.000631612
 125	0.000254067	0.000769614	-0.000100704
 126	0.00167053	-0.00111378	0.00179505
 127	0.00138552	-0.000647471	0.000580661
 128	0.00142941	0.000162131	0.000425039
 129	0.00107353	-0.00147863	0.000767843
 130	0.000274275	-0.000143291	-6.6283e-05
 131	0.00206033	-0.000806589	0.000185243
 132	0.00219839	0.000866427	0.000797143
 133	-0.000729238	2.29657e-05	-0.000236312
 134	-0.000301096	-0.00078066	-0.000332205
 135	-0.00235937	-0.00072572	-0.000384392
 136	-0.000736583	0.00144713	-0.000365489
 137	-0.000240895	0.00108466	-0.000239009
 138	-0.00108888	0.00179891	-0.000448916
 139	0.000314483	0.000245807	0.000434178
 140	-0.000245342	0.0016158	-0.000534175
 141	-0.000633965	0.00147671	-0.000616645
 142	0.000879772	-0.000105012	0.000597592
 143	0.000423522	9.36296e-05	0.000641561
 144	0.000937343	0.000247986	0.000877878
 145	0.000444423	0.000278443	-0.000100615
 146	-0.000346734	0.000233016	-2.98293e-05
 147	0.000747381	0.000514774	0.000110113
 148	-0.000510747	0.000863358	4.69586e-05
 149	0.00070783	0.000362177	1.84495e-05
 150	-0.000826861	-0.000579477	0.000245901
 151	-0.000702055	0.000795573	0.000168695
 152	-0.000361246	0.000818051	0.000282538
 153	-0.00137076	-0.000424673	0.00101876
 154	-2.28164e-05	-5.57778e-05	-0.000624485
 155	0.000620276	-0.000538266	-0.00124223
 156	-0.000332746	0.000592041	-0.000506216
 157	0.000627612	-0.000477508	-0.000991059
 158	-8.02649e-06	0.000385618	-0.000860684
 159	0.000925401	-0.000829131	-0.00190601
 160	0.00070023	-0.000186242	-0.000723652
 161	0.000427095	-0.000324522	-0.000638605
 162	0.000524726	0.000769426	-0.000248295
 163	-0.000665051	-0.00164212	0.0012969
 164	-0.00135619	-0.00115886	0.000633649
 165	0.000278861	-0.00134842	0.00225403
 166	-0.00107915	-0.00090918	0.000129161
 167	-0.00069111	-0.0028211	0.00107536
 168	-0.00211371	-0.0010098	0.000626851
 169	-0.000257991	-0.000730566	0.000205156
 170	-0.00138722	-0.00068392	-0.000148134
 171	0.000270234	-0.00115957	0.000782709
 172	0.000403778	0.00153704	0.00173458
 173	0.00010348	0.00138473	-2.25942e-05
 174	-0.000127	0.000379887	0.00308203
 175	-0.000858082	0.000551487	0.00038618
 176	0.00154279	0.0029289	0.00252694
 177	0.000703411	0.00169903	-0.00100191
 178	-0.00117919	-0.000562852	0.000655558
 179	-0.00132463	0.000566044	0.00110358
 180	-0.00149453	-0.00174442	0.00238912
 181	0.000277474	0.000212634	0.000163806
 182	0.000205688	0.000846389	-0.000214683
 183	9.08731e-05	0.000404887	0.000511039
 184	-0.000201747	0.00119333	-0.000519824
 185	0.000262049	-0.000184333	0.000825079
 186	0.000758898	0.000884776	-4.19629e-05
 187	0.00010964	0.00128951	0.000331401
 188	-0.000890492	0.00121265	-0.00179736
 189	-6.04661e-05	0.00123599	-0.00024945
 190	0.000264045	0.000106435	-0.000526899
 191	0.000816322	-0.0012709	-0.00195232
 192	0.000829987	0.000426137	-0.000541413
 193	0.000358734	-8.7288e-05	-0.000273677
 194	0.000558003	0.000877279	-0.000141425
 195	0.00156377	-0.00329025	-0.00437893
 196	0.000558198	-0.000469128	-0.000659806
 197	0.000100109	0.000406667	0.000406256
 198	0.00173789	-0.00212926	-0.00281867
 199	0.00237401	0.00031087	-7.83288e-05
 200	-0.000195437	-0.000792445	4.65862e-05
 201	0.00422363	0.00209539	-0.00104927
 202	-0.00104694	-0.000701675	0.000179975
 203	0.00341941	-0.000841548	0.00217823
 204	-0.0014542	-0.00209685	0.000543047
 205	-0.000848512	-0.0002819	0.000122559
 206	-0.00176556	-0.000906826	0.000198766
 207	-0.000140054	0.000104515	0.000175584
 208	-0.00132481	0.000476749	0.000135634
 209	-0.00135828	0.000805568	-0.0015305
 210	-0.00125637	0.000391677	0.000300149
 211	-0.000472876	0.00042405	-0.00109496
 212	-0.00186118	0.00100621	0.000367737
 213	-0.00205569	0.00146902	-0.00263418
 214	0.000681207	0.000655364	-0.00110536
 215	-0.000240461	-0.000137189	-0.000883578
 216	0.00189532	-0.000229449	-0.000365205
 217	-0.000982621	-7.30041e-05	0.000791474
 218	0.000377845	-0.000404353	0.000669845
 219	-0.0031679	-0.000333026	0.000719093
 220	0.000198501	-0.000566906	0.000301056
 221	-0.000214956	-0.00142943	0.000340909
 222	-0.000312209	-0.000145542	0.000776776
 223	-0.000437121	-0.000314034	7.35529e-05
 224	0.00132837	-0.00108127	0.000250772
 225	0.00127185	-0.00140425	0.000138496
 226	0.00153436	0.000486097	-0.000920331
 227	-0.000752843	0.0014025	0.00234243

Bonds

   1	3	1	2
   2	4	1	3
   3	4	1	5
   4	2	2	4
   5	5	2	6
   6	2	4	7
   7	6	4	8
   8	5	7	9
   9	3	10	11
  10	4	10	12
  11	4	10	14
  12	2	11	13
  13	5	11	15
  14	2	13	16
  15	6	13	17
  16	5	16	18
  17	3	1	16
  18	3	19	20
  19	4	19	21
  20	4	19	23
  21	2	20	22
  22	5	20	24
  23	2	22	25
  24	6	22	26
  25	5	25	27
  26	3	10	25
  27	3	28	29
  28	4	28	30
  29	4	28	32
  30	2	29	31
  31	5	29	33
  32	2	31	34
  33	6	31	35
  34	5	34	36
  35	3	19	34
  36	3	37	38
  37	4	37	39
  38	4	37	41
  39	2	38	40
  40	5	38	42
  41	2	40	43
  42	6	40	44
  43	5	43	45
  44	3	28	43
  45	3	46	47
  46	4	46	48
  47	4	46	50
  48	2	47	49
  49	5	47	51
  50	2	49	52
  51	6	49	53
  52	5	52	54
  53	3	37	52
  54	3	55	56
  55	4	55	57
  56	4	55	59
  57	2	56	58
  58	5	56	60
  59	2	58	61
  60	6	58	62
  61	5	61	63
  62	3	46	61
  63	3	64	65
  64	4	64	66
  65	4	64	68
  66	2	65	67
  67	5	65	69
  68	2	67	70
  69	6	67	71
  70	5	70	72
  71	3	55	70
  72	3	73	74
  73	4	73	75
  74	4	73	77
  75	2	74	76
  76	5	74	78
  77	2	76	79
  78	6	76	80
  79	5	79	81
  80	3	64	79
  81	3	82	83
  82	4	82	84
  83	4	82	86
  84	2	83	85
  85	5	83	87
  86	2	85	88
  87	6	85	89
  88	5	88	90
  89	3	73	88
  90	3	91	92
  91	4	91	93
  92	4	91	95
  93	2	92	94
  94	5	92	96
  95	2	94	97
  96	6	94	98
  97	5	97	99
  98	3	82	97
  99	3	100	101
 100	4	100	102
 101	4	100	104
 102	2	101	103
 103	5	101	105
 104	2	103	106
 105	6	103	107
 106	5	106	108
 107	3	91	106
 108	3	109	110
 109	4	109	111
 110	4	109	113
 111	2	110	112
 112	5	110	114
 113	2	112	115
 114	6	112	116
 115	5	115	117
 116	3	100	115
 117	3	118	119
 118	4	118	120
 119	4	118	122
 120	2	119	121
 121	5	119	123
 122	2	121	124
 123	6	121	125
 124	5	124	126
 125	3	109	124
 126	3	127	128
 127	4	127	129
 128	4	127	131
 129	2	128	130
 130	5	128	132
 131	2	130	133
 132	6	130	134
 133	5	133	135
 134	3	118	133
 135	3	136	137
 136	4	136	138
 137	4	136	140
 138	2	137	139
 139	5	137	141
 140	2	139	142
 141	6	139	143
 142	5	142	144
 143	3	127	142
 144	3	145	146
 145	4	145	147
 146	4	145	149
 147	2	146	148
 148	5	146	150
 149	2	148	151
 150	6	148	152
 151	5	151	153
 152	3	136	151
 153	3	154	155
 154	4	154	156
 155	4	154	158
 156	2	155	157
 157	5	155	159
 158	2	157	160
 159	6	157	161
 160	5	160	162
 161	3	145	160
 162	3	163	164
 163	4	163	165
 164	4	163	167
 165	2	164	166
 166	5	164	168
 167	2	166	169
 168	6	166	170
 169	5	169	171
 170	3	154	169
 171	3	172	173
 172	4	172	174
 173	4	172	176
 174	2	173	175
 175	5	173	177
 176	2	175	178
 177	6	175	179
 178	5	178	180
 179	3	163	178
 180	3	181	182
 181	4	181	183
 182	4	181	185
 183	2	182	184
 184	5	182	186
 185	2	184	187
 186	6	184	188
 187	5	187	189
 188	3	172	187
 189	3	190	191
 190	4	190	192
 191	4	190	194
 192	2	191	193
 193	5	191	195
 194	2	193	196
 195	6	193	197
 196	5	196	198
 197	3	181	196
 198	3	199	200
 199	4	199	201
 200	4	199	203
 201	2	200	202
 202	5	200	204
 203	2	202	205
 204	6	202	206
 205	5	205	207
 206	3	190	205
 207	3	208	209
 208	4	208	210
 209	4	208	212
 210	2	209	211
 211	5	209	213
 212	2	211	214
 213	6	211	215
 214	5	214	216
 215	3	199	214
 216	3	217	218
 217	4	217	219
 218	4	217	221
 219	2	218	220
 220	5	218	222
 221	2	220	223
 222	6	220	224
 223	5	223	225
 224	3	208	223
 225	1	7	226
 226	4	217	227

Angles

   1	7	2	1	3
   2	7	2	1	5
   3	4	3	1	5
   4	8	1	2	4
   5	6	1	2	6
   6	2	4	2	6
   7	5	2	4	7
   8	1	2	4	8
   9	1	7	4	8
  10	2	4	7	9
  11	7	11	10	12
  12	7	11	10	14
  13	4	12	10	14
  14	8	10	11	13
  15	6	10	11	15
  16	2	13	11	15
  17	5	11	13	16
  18	1	11	13	17
  19	1	16	13	17
  20	2	13	16	18
  21	10	2	1	16
  22	7	3	1	16
  23	7	5	1	16
  24	8	1	16	13
  25	6	1	16	18
  26	7	20	19	21
  27	7	20	19	23
  28	4	21	19	23
  29	8	19	20	22
  30	6	19	20	24
  31	2	22	20	24
  32	5	20	22	25
  33	1	20	22	26
  34	1	25	22	26
  35	2	22	25	27
  36	10	11	10	25
  37	7	12	10	25
  38	7	14	10	25
  39	8	10	25	22
  40	6	10	25	27
  41	7	29	28	30
  42	7	29	28	32
  43	4	30	28	32
  44	8	28	29	31
  45	6	28	29	33
  46	2	31	29	33
  47	5	29	31	34
  48	1	29	31	35
  49	1	34	31	35
  50	2	31	34	36
  51	10	20	19	34
  52	7	21	19	34
  53	7	23	19	34
  54	8	19	34	31
  55	6	19	34	36
  56	7	38	37	39
  57	7	38	37	41
  58	4	39	37	41
  59	8	37	38	40
  60	6	37	38	42
  61	2	40	38	42
  62	5	38	40	43
  63	1	38	40	44
  64	1	43	40	44
  65	2	40	43	45
  66	10	29	28	43
  67	7	30	28	43
  68	7	32	28	43
  69	8	28	43	40
  70	6	28	43	45
  71	7	47	46	48
  72	7	47	46	50
  73	4	48	46	50
  74	8	46	47	49
  75	6	46	47	51
  76	2	49	47	51
  77	5	47	49	52
  78	1	47	49	53
  79	1	52	49	53
  80	2	49	52	54
  81	10	38	37	52
  82	7	39	37	52
  83	7	41	37	52
  84	8	37	52	49
  85	6	37	52	54
  86	7	56	55	57
  87	7	56	55	59
  88	4	57	55	59
  89	8	55	56	58
  90	6	55	56	60
  91	2	58	56	60
  92	5	56	58	61
  93	1	56	58	62
  94	1	61	58	62
  95	2	58	61	63
  96	10	47	46	61
  97	7	48	46	61
  98	7	50	46	61
  99	8	46	61	58
 100	6	46	61	63
 101	7	65	64	66
 102	7	65	64	68
 103	4	66	64	68
 104	8	64	65	67
 105	6	64	65	69
 106	2	67	65	69
 107	5	65	67	70
 108	1	65	67	71
 109	1	70	67	71
 110	2	67	70	72
 111	10	56	55	70
 112	7	57	55	70
 113	7	59	55	70
 114	8	55	70	67
 115	6	55	70	72
 116	7	74	73	75
 117	7	74	73	77
 118	4	75	73	77
 119	8	73	74	76
 120	6	73	74	78
 121	2	76	74	78
 122	5	74	76	79
 123	1	74	76	80
 124	1	79	76	80
 125	2	76	79	81
 126	10	65	64	79
 127	7	66	64	79
 128	7	68	64	79
 129	8	64	79	76
 130	6	64	79	81
 131	7	83	82	84
 132	7	83	82	86
 133	4	84	82	86
 134	8	82	83	85
 135	6	82	83	87
 136	2	85	83	87
 137	5	83	85	88
 138	1	83	85	89
 139	1	88	85	89
 140	2	85	88	90
 141	10	74	73	88
 142	7	75	73	88
 143	7	77	73	88
 144	8	73	88	85
 145	6	73	88	90
 146	7	92	91	93
 147	7	92	91	95
 148	4	93	91	95
 149	8	91	92	94
 150	6	91	92	96
 151	2	94	92	96
 152	5	92	94	97
 153	1	92	94	98
 154	1	97	94	98
 155	2	94	97	99
 156	10	83	82	97
 157	7	84	82	97
 158	7	86	82	97
 159	8	82	97	94
 160	6	82	97	99
 161	7	101	100	102
 162	7	101	100	104
 163	4	102	100	104
 164	8	100	101	103
 165	6	100	101	105
 166	2	103	101	105
 167	5	101	103	106
 168	1	101	103	107
 169	1	106	103	107
 170	2	103	106	108
 171	10	92	91	106
 172	7	93	91	106
 173	7	95	91	106
 174	8	91	106	103
 175	6	91	106	108
 176	7	110	109	111
 177	7	110	109	113
 178	4	111	109	113
 179	8	109	110	112
 180	6	109	110	114
 181	2	112	110	114
 182	5	110	112	115
 183	1	110	112	116
 184	1	115	112	116
 185	2	112	115	117
 186	10	101	100	115
 187	7	102	100	115
 188	7	104	100	115
 189	8	100	115	112
 190	6	100	115	117
 191	7	119	118	120
 192	7	119	118	122
 193	4	120	118	122
 194	8	118	119	121
 195	6	118	119	123
 196	2	121	119	123
 197	5	119	121	124
 198	1	119	121	125
 199	1	124	121	125
 200	2	121	124	126
 201	10	110	109	124
 202	7	111	109	124
 203	7	113	109	124
 204	8	109	124	121
 205	6	109	124	126
 206	7	128	127	129
 207	7	128	127	131
 208	4	129	127	131
 209	8	127	128	130
 210	6	127	128	132
 211	2	130	128	132
 212	5	128	130	133
 213	1	128	130	134
 214	1	133	130	134
 215	2	130	133	135
 216	10	119	118	133
 217	7	120	118	133
 218	7	122	118	133
 219	8	118	133	130
 220	6	118	133	135
 221	7	137	136	138
 222	7	137	136	140
 223	4	138	136	140
 224	8	136	137	139
 225	6	136	137	141
 226	2	139	137	141
 227	5	137	139	142
 228	1	137	139	143
 229	1	142	139	143
 230	2	139	142	144
 231	10	128	127	142
 232	7	129	127	142
 233	7	131	127	142
 234	8	127	142	139
 235	6	127	142	144
 236	7	146	145	147
 237	7	146	145	149
 238	4	147	145	149
 239	8	145	146	148
 240	6	145	146	150
 241	2	148	146	150
 242	5	146	148	151
 243	1	146	148	152
 244	1	151	148	152
 245	2	148	151	153
 246	10	137	136	151
 247	7	138	136	151
 248	7	140	136	151
 249	8	136	151	148
 250	6	136	151	153
 251	7	155	154	156
 252	7	155	154	158
 253	4	156	154	158
 254	8	154	155	157
 255	6	154	155	159
 256	2	157	155	159
 257	5	155	157	160
 258	1	155	157	161
 259	1	160	157	161
 260	2	157	160	162
 261	10	146	145	160
 262	7	147	145	160
 263	7	149	145	160
 264	8	145	160	157
 265	6	145	160	162
 266	7	164	163	165
 267	7	164	163	167
 268	4	165	163	167
 269	8	163	164	166
 270	6	163	164	168
 271	2	166	164	168
 272	5	164	166	169
 273	1	164	166	170
 274	1	169	166	170
 275	2	166	169	171
 276	10	155	154	169
 277	7	156	154	169
 278	7	158	154	169
 279	8	154	169	166
 280	6	154	169	171
 281	7	173	172	174
 282	7	173	172	176
 283	4	174	172	176
 284	8	172	173	175
 285	6	172	173	177
 286	2	175	173	177
 287	5	173	175	178
 288	1	173	175	179
 289	1	178	175	179
 290	2	175	178	180
 291	10	164	163	178
 292	7	165	163	178
 293	7	167	163	178
 294	8	163	178	175
 295	6	163	178	180
 296	7	182	181	183
 297	7	182	181	185
 298	4	183	181	185
 299	8	181	182	184
 300	6	181	182	186
 301	2	184	182	186
 302	5	182	184	187
 303	1	182	184	188
 304	1	187	184	188
 305	2	184	187	189
 306	10	173	172	187
 307	7	174	172	187
 308	7	176	172	187
 309	8	172	187	184
 310	6	172	187	189
 311	7	191	190	192
 312	7	191	190	194
 313	4	192	190	194
 314	8	190	191	193
 315	6	190	191	195
 316	2	193	191	195
 317	5	191	193	196
 318	1	191	193	197
 319	1	196	193	197
 320	2	193	196	198
 321	10	182	181	196
 322	7	183	181	196
 323	7	185	181	196
 324	8	181	196	193
 325	6	181	196	198
 326	7	200	199	201
 327	7	200	199	203
 328	4	201	199	203
 329	8	199	200	202
 330	6	199	200	204
 331	2	202	200	204
 332	5	200	202	205
 333	1	200	202	206
 334	1	205	202	206
 335	2	202	205	207
 336	10	191	190	205
 337	7	192	190	205
 338	7	194	190	205
 339	8	190	205	202
 340	6	190	205	207
 341	7	209	208	210
 342	7	209	208	212
 343	4	210	208	212
 344	8	208	209	211
 345	6	208	209	213
 346	2	211	209	213
 347	5	209	211	214