pySIMM System Object

344 atoms
343 bonds
570 angles
754 dihedrals
76 impropers

7 atom types
6 bond types
10 angle types
4 dihedral types
2 improper types

-109.336126 109.336126 xlo xhi
-109.336126 109.336126 ylo yhi
-109.336126 109.336126 zlo zhi

Masses

   1	12.01	# c3
   2	12.01	# c
   3	1.008	# hc
   4	14.01	# n
   5	16.0	# o
   6	1.008	# hn
   7	1.008	# h5

Pair Coeffs

   1	0.1094	3.3996695084235347	# c3
   2	0.086	3.3996695084235347	# c
   3	0.0157	2.649532787749369	# hc
   4	0.17	3.249998523775958	# n
   5	0.21	2.959921901149463	# o
   6	0.0157	1.069078461768407	# hn
   7	0.015	2.421462715905442	# h5

Bond Coeffs

   1	319.7	1.1051	# c,h5
   2	427.6	1.3789	# c,n
   3	313.0	1.5241	# c,c3
   4	330.6	1.0969	# c3,hc
   5	637.7	1.2183	# c,o
   6	403.2	1.0129	# hn,n

Angle Coeffs

   1	48.33	117.55	# c,n,hn
   2	74.22	123.05	# n,c,o
   3	53.7	123.65	# h5,c,o
   4	39.4	107.58	# hc,c3,hc
   5	63.74	127.08	# c,n,c
   6	67.4	123.2	# c3,c,o
   7	46.93	108.77	# c,c3,hc
   8	66.79	115.18	# c3,c,n
   9	51.42	112.16	# h5,c,n
  10	63.38	111.63	# c,c3,c

Dihedral Coeffs

   1	3	0.8	1	0	0.0	2	0	0.08	3	180	# hc,c3,c,o
   2	1	2.5	2	180	# X,c,n,X
   3	2	2.5	2	180	2.0	1	0	# hn,n,c,o
   4	1	0.0	2	180	# X,c,c3,X

Improper Coeffs

   1	10.5	-1	2	# c,X,X,o
   2	1.1	-1	2	# n,X,X,hn

Atoms

   1	1	1	-0.041892	-7.14925	18.1208	-8.17547
   2	1	2	0.591489	-8.17236	19.18	-7.83871
   3	1	3	0.048074	-7.56329	17.1151	-8.0445
   4	1	4	-0.651929	-9.21017	18.8007	-7.04228
   5	1	3	0.049056	-6.84517	18.2264	-9.22349
   6	1	5	-0.529683	-8.05943	20.3187	-8.2429
   7	1	2	0.758009	-10.1976	19.5911	-6.54264
   8	1	6	0.367145	-9.25619	17.8408	-6.71915
   9	1	5	-0.590269	-11.062	19.1045	-5.84218
  10	1	1	-0.041892	-3.4194	19.3646	-5.75222
  11	1	2	0.591489	-3.85434	19.6825	-7.17701
  12	1	3	0.048074	-4.24701	19.0601	-5.11099
  13	1	4	-0.651929	-4.99977	19.1709	-7.72389
  14	1	3	0.049056	-2.69691	18.5414	-5.77572
  15	1	5	-0.529683	-3.23219	20.4529	-7.87562
  16	1	2	0.758009	-5.96621	18.3201	-7.25608
  17	1	6	0.367145	-5.1868	19.5847	-8.62026
  18	1	5	-0.590269	-5.87832	17.7321	-6.19614
  19	1	1	-0.041892	-5.38149	23.1832	-4.16131
  20	1	2	0.591489	-4.88294	21.8929	-4.78069
  21	1	3	0.048074	-4.65478	23.5708	-3.4376
  22	1	4	-0.651929	-3.5371	21.6479	-4.69619
  23	1	3	0.049056	-5.53189	23.9372	-4.94198
  24	1	5	-0.529683	-5.64503	21.1205	-5.31871
  25	1	2	0.758009	-2.77589	20.5962	-5.13517
  26	1	6	0.367145	-2.96309	22.3389	-4.24757
  27	1	5	-0.590269	-1.6008	20.6343	-4.84238
  28	1	1	-0.041892	-9.31206	21.3927	-2.85257
  29	1	2	0.591489	-9.046	22.3238	-4.02626
  30	1	3	0.048074	-9.1164	21.9128	-1.90829
  31	1	4	-0.651929	-7.81388	22.8877	-4.21602
  32	1	3	0.049056	-10.368	21.099	-2.85443
  33	1	5	-0.529683	-9.87752	22.5337	-4.88122
  34	1	2	0.758009	-6.68079	22.8777	-3.44617
  35	1	6	0.367145	-7.72682	23.2634	-5.14392
  36	1	5	-0.590269	-6.69349	22.5181	-2.288
  37	1	1	-0.041892	-6.35016	17.8813	-2.70963
  38	1	2	0.591489	-6.83253	18.814	-1.61231
  39	1	3	0.048074	-6.11985	18.4518	-3.61476
  40	1	4	-0.651929	-7.77557	19.7751	-1.85435
  41	1	3	0.049056	-5.42134	17.3969	-2.3893
  42	1	5	-0.529683	-6.33402	18.8092	-0.508401
  43	1	2	0.758009	-8.46298	20.1395	-2.98191
  44	1	6	0.367145	-7.91692	20.3585	-1.04874
  45	1	5	-0.590269	-8.28556	19.5778	-4.04308
  46	1	1	-0.041892	-9.18489	14.5926	-4.18193
  47	1	2	0.591489	-8.60792	15.8052	-4.91327
  48	1	3	0.048074	-8.45953	14.2034	-3.46031
  49	1	4	-0.651929	-7.71986	16.6333	-4.28785
  50	1	3	0.049056	-10.0732	14.9166	-3.62869
  51	1	5	-0.529683	-8.90566	16.1215	-6.04844
  52	1	2	0.758009	-7.38209	16.8048	-2.97566
  53	1	6	0.367145	-7.28265	17.2899	-4.92062
  54	1	5	-0.590269	-7.93018	16.1935	-2.08385
  55	1	1	-0.041892	-11.6066	10.7671	-3.45453
  56	1	2	0.591489	-10.7513	12.0182	-3.44678
  57	1	3	0.048074	-12.4588	10.9415	-4.12099
  58	1	4	-0.651929	-10.2788	12.379	-4.68131
  59	1	3	0.049056	-11.0487	9.93326	-3.88579
  60	1	5	-0.529683	-10.494	12.6498	-2.44565
  61	1	2	0.758009	-9.5409	13.4424	-5.11989
  62	1	6	0.367145	-10.458	11.7422	-5.43529
  63	1	5	-0.590269	-9.12617	13.3258	-6.25356
  64	1	1	-0.041892	-11.0021	7.10406	-0.790396
  65	1	2	0.591489	-10.8295	8.38649	-1.58597
  66	1	3	0.048074	-10.8734	7.32895	0.274459
  67	1	4	-0.651929	-11.8519	9.28505	-1.43681
  68	1	3	0.049056	-12.0164	6.71104	-0.922857
  69	1	5	-0.529683	-9.87063	8.60877	-2.29588
  70	1	2	0.758009	-12.16	10.4565	-2.06934
  71	1	6	0.367145	-12.5359	9.07901	-0.732512
  72	1	5	-0.590269	-13.1909	10.9697	-1.69093
  73	1	1	-0.041892	-10.4729	4.91926	-4.78048
  74	1	2	0.591489	-10.8655	5.62873	-3.5027
  75	1	3	0.048074	-10.905	5.46823	-5.62549
  76	1	4	-0.651929	-10.0233	5.46211	-2.43613
  77	1	3	0.049056	-9.38852	4.92892	-4.92472
  78	1	5	-0.529683	-11.8674	6.30952	-3.43376
  79	1	2	0.758009	-9.98726	6.0471	-1.20012
  80	1	6	0.367145	-9.24708	4.82174	-2.5644
  81	1	5	-0.590269	-9.17042	5.62071	-0.413479
  82	1	1	-0.041892	-8.62672	0.900214	-3.49606
  83	1	2	0.591489	-9.12332	2.32089	-3.68496
  84	1	3	0.048074	-9.46319	0.192351	-3.48079
  85	1	4	-0.651929	-10.3336	2.43776	-4.31812
  86	1	3	0.049056	-8.00588	0.678918	-4.36655
  87	1	5	-0.529683	-8.45594	3.29377	-3.40361
  88	1	2	0.758009	-11.0426	3.51057	-4.78469
  89	1	6	0.367145	-10.8287	1.58399	-4.50559
  90	1	5	-0.590269	-12.0855	3.24245	-5.33775
  91	1	1	-0.041892	-4.84989	-1.54826	-2.47391
  92	1	2	0.591489	-6.1344	-0.899775	-2.95711
  93	1	3	0.048074	-4.87043	-2.60002	-2.78042
  94	1	4	-0.651929	-6.73787	-0.0261499	-2.08762
  95	1	3	0.049056	-4.77251	-1.5106	-1.38165
  96	1	5	-0.529683	-6.64829	-1.2267	-4.00565
  97	1	2	0.758009	-7.85039	0.764451	-2.19171
  98	1	6	0.367145	-6.31407	0.0789797	-1.18367
  99	1	5	-0.590269	-8.26297	1.2271	-1.15106
 100	1	1	-0.041892	-0.492866	-2.92413	-2.90595
 101	1	2	0.591489	-1.93976	-2.60949	-2.57135
 102	1	3	0.048074	0.180525	-2.41993	-2.20934
 103	1	4	-0.651929	-2.4142	-1.43973	-3.10653
 104	1	3	0.049056	-0.260081	-2.53173	-3.90268
 105	1	5	-0.529683	-2.63189	-3.32085	-1.87249
 106	1	2	0.758009	-3.64879	-0.853167	-3.09738
 107	1	6	0.367145	-1.7516	-0.872492	-3.60552
 108	1	5	-0.590269	-3.70669	0.263622	-3.56262
 109	1	1	-0.041892	0.741564	-5.97328	0.345243
 110	1	2	0.591489	0.50059	-4.80573	-0.588281
 111	1	3	0.048074	0.466469	-6.92878	-0.106185
 112	1	4	-0.651929	0.136001	-5.13901	-1.86208
 113	1	3	0.049056	1.81227	-6.02479	0.569747
 114	1	5	-0.529683	0.711342	-3.66474	-0.233112
 115	1	2	0.758009	-0.280045	-4.42859	-2.95008
 116	1	6	0.367145	0.142354	-6.12953	-2.07099
 117	1	5	-0.590269	-0.563314	-5.07434	-3.93885
 118	1	1	-0.041892	-3.51538	-7.28974	1.4087
 119	1	2	0.591489	-2.22721	-6.69583	0.86118
 120	1	3	0.048074	-3.27618	-8.05822	2.15238
 121	1	4	-0.651929	-1.31723	-6.21759	1.77253
 122	1	3	0.049056	-4.02371	-7.77446	0.569923
 123	1	5	-0.529683	-1.96292	-6.78502	-0.318412
 124	1	2	0.758009	-0.033802	-5.75937	1.63271
 125	1	6	0.367145	-1.65	-6.08051	2.71285
 126	1	5	-0.590269	0.52894	-5.39839	2.64398
 127	1	1	-0.041892	-7.5486	-7.98038	3.29692
 128	1	2	0.591489	-6.42738	-7.75968	2.29548
 129	1	3	0.048074	-8.22014	-7.11795	3.34125
 130	1	4	-0.651929	-5.64619	-6.65959	2.54108
 131	1	3	0.049056	-7.10587	-8.07476	4.29516
 132	1	5	-0.529683	-6.15345	-8.55418	1.41457
 133	1	2	0.758009	-4.43698	-6.25577	2.04207
 134	1	6	0.367145	-6.00774	-5.98828	3.19825
 135	1	5	-0.590269	-3.99715	-5.24355	2.53957
 136	1	1	-0.041892	-10.677	-8.85599	0.0641478
 137	1	2	0.591489	-9.77114	-8.37906	1.1859
 138	1	3	0.048074	-11.6808	-9.02308	0.471444
 139	1	4	-0.651929	-9.25528	-9.33945	2.02038
 140	1	3	0.049056	-10.757	-8.08468	-0.710225
 141	1	5	-0.529683	-9.49074	-7.20789	1.32201
 142	1	2	0.758009	-8.29627	-9.27195	2.99266
 143	1	6	0.367145	-9.58109	-10.2852	1.88514
 144	1	5	-0.590269	-7.92474	-10.3262	3.46175
 145	1	1	-0.041892	-6.72756	-9.72724	-2.09604
 146	1	2	0.591489	-8.06469	-9.26546	-1.55219
 147	1	3	0.048074	-5.96908	-8.95561	-1.91889
 148	1	4	-0.651929	-8.97848	-10.2296	-1.20324
 149	1	3	0.049056	-6.81605	-9.87903	-3.17796
 150	1	5	-0.529683	-8.27919	-8.08966	-1.36934
 151	1	2	0.758009	-10.1762	-10.1559	-0.546649
 152	1	6	0.367145	-8.7412	-11.1894	-1.41538
 153	1	5	-0.590269	-10.6282	-11.2145	-0.172565
 154	1	1	-0.041892	-4.6939	-11.5466	1.91748
 155	1	2	0.591489	-5.47259	-11.9524	0.688196
 156	1	3	0.048074	-4.93758	-12.2268	2.7421
 157	1	4	-0.651929	-5.85779	-10.9375	-0.152131
 158	1	3	0.049056	-4.91984	-10.5273	2.236
 159	1	5	-0.529683	-5.57151	-13.1244	0.403632
 160	1	2	0.758009	-6.29647	-11.0228	-1.44972
 161	1	6	0.367145	-5.76959	-10.0008	0.221345
 162	1	5	-0.590269	-6.50412	-12.0746	-2.0168
 163	1	1	-0.041892	-0.346954	-12.649	0.931275
 164	1	2	0.591489	-1.15311	-12.8656	2.20498
 165	1	3	0.048074	-0.479969	-11.65	0.510197
 166	1	4	-0.651929	-2.44714	-12.4347	2.32775
 167	1	3	0.049056	0.717371	-12.744	1.17762
 168	1	5	-0.529683	-0.70033	-13.4475	3.16311
 169	1	2	0.758009	-3.23697	-11.6552	1.53154
 170	1	6	0.367145	-2.87108	-12.8013	3.16335
 171	1	5	-0.590269	-2.7945	-11.0938	0.549366
 172	1	1	-0.041892	-3.60269	-13.8178	-2.49976
 173	1	2	0.591489	-2.31129	-14.2861	-1.86622
 174	1	3	0.048074	-4.36559	-13.6848	-1.7305
 175	1	4	-0.651929	-1.78043	-13.4845	-0.880055
 176	1	3	0.049056	-3.96544	-14.5741	-3.20626
 177	1	5	-0.529683	-1.79159	-15.3106	-2.24705
 178	1	2	0.758009	-0.692783	-13.7289	-0.0741839
 179	1	6	0.367145	-2.24048	-12.5955	-0.734362
 180	1	5	-0.590269	-0.0751151	-14.7688	-0.0905703
 181	1	1	-0.041892	-1.93631	-10.3334	-4.85798
 182	1	2	0.591489	-2.3557	-11.7103	-5.35169
 183	1	3	0.048074	-1.60194	-9.73814	-5.71564
 184	1	4	-0.651929	-2.95296	-12.613	-4.51465
 185	1	3	0.049056	-2.78701	-9.8103	-4.40892
 186	1	5	-0.529683	-2.13336	-12.0659	-6.48661
 187	1	2	0.758009	-3.3557	-12.5129	-3.2099
 188	1	6	0.367145	-3.0072	-13.5285	-4.92986
 189	1	5	-0.590269	-3.35921	-11.4532	-2.61018
 190	1	1	-0.041892	1.44348	-9.99488	-1.73558
 191	1	2	0.591489	0.729142	-8.93795	-2.5629
 192	1	3	0.048074	0.788197	-10.824	-1.45754
 193	1	4	-0.651929	-0.272821	-9.24307	-3.44378
 194	1	3	0.049056	1.77227	-9.53232	-0.797716
 195	1	5	-0.529683	0.970321	-7.76227	-2.41117
 196	1	2	0.758009	-0.795797	-10.4367	-3.86152
 197	1	6	0.367145	-0.677729	-8.41776	-3.85601
 198	1	5	-0.590269	-0.337543	-11.4891	-3.46344
 199	1	1	-0.041892	4.87172	-12.1609	-3.84032
 200	1	2	0.591489	3.37047	-12.3542	-3.97369
 201	1	3	0.048074	5.13523	-11.1247	-4.07741
 202	1	4	-0.651929	2.48784	-11.5571	-3.29673
 203	1	3	0.049056	5.37343	-12.8058	-4.57059
 204	1	5	-0.529683	2.90074	-13.2081	-4.6929
 205	1	2	0.758009	2.67318	-10.4859	-2.46716
 206	1	6	0.367145	1.53172	-11.8741	-3.4099
 207	1	5	-0.590269	3.75686	-9.96529	-2.29964
 208	1	1	-0.041892	9.02011	-11.5072	-2.04984
 209	1	2	0.591489	7.74368	-11.8559	-2.80416
 210	1	3	0.048074	8.89254	-10.5341	-1.56245
 211	1	4	-0.651929	6.65439	-12.2665	-2.08078
 212	1	3	0.049056	9.8035	-11.4049	-2.80606
 213	1	5	-0.529683	7.68805	-11.7069	-4.00571
 214	1	2	0.758009	5.36202	-12.526	-2.44481
 215	1	6	0.367145	6.81926	-12.4989	-1.11194
 216	1	5	-0.590269	4.63111	-12.9268	-1.56172
 217	1	1	-0.041892	12.7735	-11.4583	0.453663
 218	1	2	0.591489	11.7637	-11.6324	-0.656205
 219	1	3	0.048074	12.7447	-12.3047	1.15008
 220	1	4	-0.651929	10.6476	-12.3677	-0.354609
 221	1	3	0.049056	13.7833	-11.3843	0.0327266
 222	1	5	-0.529683	11.8991	-11.0439	-1.70493
 223	1	2	0.758009	9.45127	-12.5263	-0.999047
 224	1	6	0.367145	10.6549	-12.8822	0.510106
 225	1	5	-0.590269	8.65007	-13.2016	-0.390377
 226	1	1	-0.041892	11.3701	-7.36329	1.84875
 227	1	2	0.591489	12.2471	-7.73058	0.662375
 228	1	3	0.048074	10.4462	-7.95213	1.81689
 229	1	4	-0.651929	12.6447	-9.02433	0.46741
 230	1	3	0.049056	11.8949	-7.60475	2.78013
 231	1	5	-0.529683	12.5463	-6.9383	-0.20159
 232	1	2	0.758009	12.4067	-10.177	1.16908
 233	1	6	0.367145	13.1406	-9.13105	-0.403828
 234	1	5	-0.590269	11.7112	-10.1937	2.1617
 235	1	1	-0.041892	9.80571	-3.05575	1.7381
 236	1	2	0.591489	9.05929	-4.37534	1.58189
 237	1	3	0.048074	10.4631	-3.09011	2.61145
 238	1	4	-0.651929	9.73598	-5.56593	1.59439
 239	1	3	0.049056	10.4288	-2.89029	0.851274
 240	1	5	-0.529683	7.85758	-4.44977	1.43952
 241	1	2	0.758009	11.0502	-5.88014	1.83855
 242	1	6	0.367145	9.12826	-6.33703	1.3859
 243	1	5	-0.590269	11.8214	-5.06209	2.29467
 244	1	1	-0.041892	8.35806	0.191595	5.00662
 245	1	2	0.591489	8.04347	-0.297862	3.60766
 246	1	3	0.048074	9.2152	-0.347425	5.42585
 247	1	4	-0.651929	8.80385	-1.34637	3.15282
 248	1	3	0.049056	7.50662	0.0150622	5.66633
 249	1	5	-0.529683	7.12943	0.167619	2.96587
 250	1	2	0.758009	8.84195	-1.89561	1.89266
 251	1	6	0.367145	9.43473	-1.7503	3.81449
 252	1	5	-0.590269	8.35803	-1.34824	0.924928
 253	1	1	-0.041892	9.07448	4.73918	5.29357
 254	1	2	0.591489	7.83336	3.91786	5.61068
 255	1	3	0.048074	9.09136	5.60777	5.96215
 256	1	4	-0.651929	7.80921	2.55611	5.45136
 257	1	3	0.049056	9.99929	4.18506	5.47525
 258	1	5	-0.529683	6.84344	4.44506	6.06725
 259	1	2	0.758009	8.708	1.66286	4.93224
 260	1	6	0.367145	6.91877	2.1651	5.75409
 261	1	5	-0.590269	9.77581	2.01072	4.46606
 262	1	1	-0.041892	8.45778	5.43154	0.844627
 263	1	2	0.591489	9.26807	4.35055	1.54546
 264	1	3	0.048074	7.71233	5.88317	1.50456
 265	1	4	-0.651929	9.37528	4.3339	2.90795
 266	1	3	0.049056	9.13475	6.22591	0.511658
 267	1	5	-0.529683	9.74659	3.41216	0.943967
 268	1	2	0.758009	8.99797	5.23445	3.86574
 269	1	6	0.367145	9.7172	3.44724	3.25544
 270	1	5	-0.590269	8.80413	6.404	3.60126
 271	1	1	-0.041892	4.68197	2.84161	0.722935
 272	1	2	0.591489	5.98116	3.58819	0.94522
 273	1	3	0.048074	4.42254	2.81848	-0.335492
 274	1	4	-0.651929	6.59103	4.08991	-0.178568
 275	1	3	0.049056	3.88274	3.3966	1.22657
 276	1	5	-0.529683	6.42382	3.7731	2.05789
 277	1	2	0.758009	7.7286	4.83623	-0.347814
 278	1	6	0.367145	6.1736	3.86565	-1.06408
 279	1	5	-0.590269	7.97996	5.17153	-1.48639
 280	1	1	-0.041892	5.59868	-1.34053	-1.08302
 281	1	2	0.591489	5.17403	0.0633908	-0.696414
 282	1	3	0.048074	6.3844	-1.71873	-0.431393
 283	1	4	-0.651929	5.16381	0.355285	0.640655
 284	1	3	0.049056	6.0221	-1.30522	-2.09268
 285	1	5	-0.529683	4.72997	0.833194	-1.52047
 286	1	2	0.758009	4.78696	1.45895	1.35632
 287	1	6	0.367145	5.48534	-0.384739	1.25834
 288	1	5	-0.590269	4.34672	1.23803	2.46614
 289	1	1	-0.041892	3.75665	-3.96436	2.22116
 290	1	2	0.591489	4.50382	-3.03248	1.29234
 291	1	3	0.048074	4.04496	-4.9992	2.00162
 292	1	4	-0.651929	4.0325	-2.99891	0.00732661
 293	1	3	0.049056	2.67948	-3.86563	2.04956
 294	1	5	-0.529683	5.34522	-2.25925	1.69171
 295	1	2	0.758009	4.39732	-2.27413	-1.09483
 296	1	6	0.367145	3.24561	-3.58787	-0.207304
 297	1	5	-0.590269	3.76304	-2.50837	-2.1014
 298	1	1	-0.041892	3.57218	-0.363919	5.48277
 299	1	2	0.591489	3.72784	-1.87291	5.36196
 300	1	3	0.048074	2.59593	-0.142401	5.926
 301	1	4	-0.651929	3.76987	-2.37662	4.09228
 302	1	3	0.049056	3.59567	0.0970575	4.49322
 303	1	5	-0.529683	3.75592	-2.58473	6.34786
 304	1	2	0.758009	4.04444	-3.65982	3.67997
 305	1	6	0.367145	3.66381	-1.70376	3.35112
 306	1	5	-0.590269	4.44367	-4.526	4.4308
 307	1	1	-0.041892	6.40748	-1.49869	9.13442
 308	1	2	0.591489	6.05571	-0.266673	8.32436
 309	1	3	0.048074	6.29767	-2.39968	8.51861
 310	1	4	-0.651929	5.05685	-0.481373	7.42101
 311	1	3	0.049056	5.70604	-1.57696	9.97326
 312	1	5	-0.529683	6.603	0.805057	8.44961
 313	1	2	0.758009	4.66523	0.26037	6.33942
 314	1	6	0.367145	4.58516	-1.37451	7.4884
 315	1	5	-0.590269	5.32117	1.20265	5.94934
 316	1	1	-0.041892	9.59725	-1.23726	12.2447
 317	1	2	0.591489	9.14595	-2.47666	11.4782
 318	1	3	0.048074	10.3859	-1.50871	12.9541
 319	1	4	-0.651929	8.08066	-2.35377	10.6347
 320	1	3	0.049056	8.74317	-0.895468	12.8405
 321	1	5	-0.529683	9.3281	-3.58755	11.9227
 322	1	2	0.758009	7.82798	-1.43652	9.65708
 323	1	6	0.367145	7.47386	-3.15189	10.6674
 324	1	5	-0.590269	8.76397	-1.04586	8.98785
 325	1	1	-0.041892	13.4366	-0.589687	9.82375
 326	1	2	0.591489	12.2751	-0.968691	10.7134
 327	1	3	0.048074	13.8415	0.37215	10.1588
 328	1	4	-0.651929	11.2687	-0.0442978	10.7823
 329	1	3	0.049056	14.2447	-1.32318	9.89443
 330	1	5	-0.529683	12.2347	-2.01284	11.3241
 331	1	2	0.758009	10.0505	-0.0673318	11.3922
 332	1	6	0.367145	11.3766	0.791608	10.2281
 333	1	5	-0.590269	9.37669	0.93601	11.3046
 334	1	1	-0.041892	12.6893	-3.63872	6.43199
 335	1	2	0.591489	13.1004	-2.80201	7.63709
 336	1	3	0.048074	13.1478	-4.63313	6.49345
 337	1	4	-0.651929	12.7344	-1.48601	7.56592
 338	1	3	0.049056	13.0244	-3.15346	5.50781
 339	1	5	-0.529683	13.759	-3.25376	8.54594
 340	1	2	0.758009	12.9166	-0.428805	8.40758
 341	1	6	0.367145	12.2363	-1.20518	6.74359
 342	1	5	-0.590269	12.4384	0.623816	8.04327
 343	1	7	0	-10.1637	20.6446	-6.87505
 344	1	3	0	11.5977	-3.747	6.39851

Velocities

   1	-8.6827e-05	0.000154481	0.000895613
   2	-0.000202238	3.24712e-05	0.000411209
   3	-3.87614e-05	7.36559e-05	0.00110219
   4	-0.000369284	5.61996e-05	0.000226682
   5	-0.000113549	-0.000224073	0.000963958
   6	-0.000282681	0.000119635	0.000562207
   7	-0.000372705	-3.12486e-05	0.000460039
   8	-0.000539388	8.02625e-05	0.000138025
   9	0.000144078	0.000152762	0.00109261
  10	0.000317153	0.000339829	-0.000239634
  11	-4.20729e-05	0.000343307	-0.000188065
  12	0.000392354	0.000402314	-0.00015918
  13	6.22675e-05	6.64239e-05	0.000114458
  14	0.000185684	0.00018569	-0.000295082
  15	-0.00039913	0.00038122	-0.000236928
  16	5.5042e-05	0.000349248	0.000618286
  17	-0.000258694	-0.000110632	0.000116573
  18	0.000309394	0.000251233	0.000616419
  19	-0.000103221	-0.000152946	-0.000216075
  20	0.000248384	6.94069e-05	-0.000208472
  21	-0.000186156	0.000181228	-0.000156207
  22	0.000233821	4.66907e-05	0.000214741
  23	-0.000153157	-8.0574e-05	-0.000279717
  24	0.000433619	0.000442017	-0.000780254
  25	0.000177102	0.000230766	-0.000182885
  26	-7.18942e-05	-0.000244375	0.000664977
  27	0.000185273	-0.000107311	0.000151237
  28	-6.4034e-05	-0.000361599	-0.000149971
  29	-2.33765e-05	-0.000751625	-0.000477928
  30	-0.000175894	-0.00013315	-0.000312444
  31	-7.58947e-05	-0.000748022	-0.000607724
  32	1.04312e-05	-0.000494886	-0.000208101
  33	4.94587e-05	-0.00127923	-0.000707481
  34	-0.00015962	-0.000270331	-0.000368185
  35	0.000170494	-0.00122061	-0.000761328
  36	-0.000353281	0.000381129	-0.000185697
  37	-1.53514e-05	-0.000337854	0.000217688
  38	4.8162e-05	-0.000266226	0.000140227
  39	0.000170555	-0.000401618	0.000196935
  40	0.000188705	-0.000139715	8.434e-05
  41	-3.07603e-05	-0.000467616	0.000231164
  42	-6.02168e-05	-0.000377018	0.000195161
  43	0.000113712	-0.000284791	5.93379e-05
  44	0.000173059	-0.000171483	2.99954e-05
  45	0.000202036	-0.000355584	0.000132935
  46	0.000198212	-0.000283561	-0.000124302
  47	0.000112032	-0.000181468	-4.03736e-05
  48	0.000226688	-0.000242085	-0.000137334
  49	-0.000113226	-6.28682e-05	0.00011825
  50	0.000149881	-0.000366699	-0.000189142
  51	0.000245375	-0.000257082	-9.24181e-05
  52	-9.0092e-05	-0.000216787	8.9613e-05
  53	-0.000321104	0.000171295	0.000242296
  54	0.000279252	-0.00061523	6.6123e-05
  55	-0.000459212	5.42743e-05	-0.00026832
  56	-0.000365385	-5.9747e-05	-0.000242952
  57	-0.00043491	5.18981e-05	-0.000297941
  58	0.000127609	-0.00025164	-0.00015742
  59	-0.00052386	-2.01028e-06	-0.000245377
  60	-0.000677595	0.000156987	-0.000311571
  61	0.000319979	-0.000371463	-0.000130418
  62	0.000287544	-0.000383114	-0.000131414
  63	0.000478991	-0.000367555	-4.36574e-05
  64	0.000372328	0.000582522	-0.000161024
  65	0.000107284	0.000667189	2.65201e-05
  66	7.27952e-05	0.000440429	-9.08043e-05
  67	-0.000233215	0.000239276	-0.00015395
  68	0.000552633	0.000196466	-0.000457533
  69	0.000171086	0.00111035	0.000196731
  70	-0.000462277	0.000132352	-0.000218073
  71	-0.00026232	-7.00874e-05	-0.000250295
  72	-0.000477254	6.91145e-05	-0.000258847
  73	-0.000189215	-0.000332233	0.000304843
  74	0.000156324	-5.26048e-06	0.000241938
  75	-0.000242156	-0.000400411	0.000311154
  76	0.000536392	0.000612562	2.79897e-05
  77	-0.000212789	-0.000489517	0.000126928
  78	0.000260686	0.000206416	0.00013961
  79	0.000912224	0.00118265	-0.00022773
  80	0.000575459	0.000644344	6.54354e-05
  81	0.00168876	0.00221135	-0.000492087
  82	0.00072059	7.69329e-05	-0.000542466
  83	-6.08264e-05	-0.000168738	-0.000198389
  84	0.00119936	-0.000529481	-0.00138334
  85	3.36986e-05	-0.000413165	-0.000417259
  86	0.00146661	0.000892357	-0.000255853
  87	-0.000755943	5.84428e-05	0.000673127
  88	-0.000373423	-0.00028718	0.00047389
  89	0.000411224	-0.000506966	-0.00102825
  90	-0.000544859	-0.00014279	0.000710887
  91	0.00020368	4.69179e-05	0.000153976
  92	0.000104858	-7.59858e-05	0.000293115
  93	0.000259921	0.000103243	-3.24354e-05
  94	0.000115196	8.45471e-05	0.000181734
  95	0.00020983	-0.000118109	0.0001424
  96	-0.000141967	-0.000403947	0.000576957
  97	0.000168912	0.000140736	-0.000224935
  98	7.82334e-05	0.000362716	0.000119954
  99	0.000177904	0.00077042	-0.000471127
 100	0.000192123	0.000139695	0.000140332
 101	0.000232388	0.00035755	0.000140099
 102	0.00022763	4.57749e-05	0.000166555
 103	0.000230927	0.000457501	0.000262621
 104	0.000301964	0.000107833	0.000151148
 105	0.000118427	0.000283234	-8.35475e-05
 106	0.00010208	0.0002116	0.000130665
 107	0.000223961	0.000551038	0.000347863
 108	-0.000193165	1.72346e-05	-0.000365455
 109	0.000117053	9.52714e-05	0.000297461
 110	0.000402392	-2.41575e-05	7.67183e-05
 111	0.000405066	1.77579e-05	0.000310971
 112	-0.000419085	-2.48955e-05	0.000298943
 113	4.21638e-05	0.000223565	0.000657178
 114	0.00170965	-0.00011434	-0.000379249
 115	-6.42174e-05	7.22742e-05	0.000216941
 116	-0.00111339	-7.51793e-05	0.000498839
 117	-0.000316204	0.000104083	0.000259805
 118	-0.000171347	-3.23086e-06	-0.00107262
 119	0.000178674	-0.000390904	-0.000621766
 120	-0.000629261	-0.000831913	-0.00179041
 121	-0.000341605	0.000114053	-0.000364103
 122	-0.000473486	0.00108874	-0.00153409
 123	0.000825726	-0.00111272	-0.000399721
 124	-0.000307101	0.000153835	2.88979e-05
 125	-0.00085359	0.00057951	-0.000607852
 126	-0.000765909	0.000496097	0.000155999
 127	0.000427615	-1.31147e-05	-0.000291919
 128	0.000445824	-4.85255e-05	-0.00021966
 129	0.000320376	-9.77938e-05	-0.000420823
 130	0.000252268	8.96959e-05	-0.000370794
 131	0.000325422	0.000121176	-0.000237191
 132	0.00077563	-0.000328905	0.000101328
 133	0.000330537	-5.66221e-05	-0.000239992
 134	0.000137051	0.000137052	-0.000464006
 135	0.000651972	-0.000299685	-3.73869e-05
 136	0.000269815	4.70971e-05	-2.44348e-05
 137	0.000388597	-8.18314e-05	-8.58826e-05
 138	0.000325413	4.19261e-05	8.50589e-05
 139	0.000698424	-0.000162408	-0.000355753
 140	0.000234351	9.36922e-05	3.29862e-05
 141	0.000134171	-3.89274e-05	0.000109025
 142	0.000722685	-0.000133414	-0.000377483
 143	0.000947569	-0.00022386	-0.000580222
 144	0.00123455	-0.000139083	-0.000770066
 145	0.000294432	-0.000195495	0.00013705
 146	0.00037193	2.43303e-06	0.000125348
 147	0.000476485	-0.00040945	0.000287432
 148	0.000162651	0.00010338	-0.000158586
 149	0.000334244	-4.33439e-05	0.000103712
 150	0.000727688	-1.25369e-06	0.000563747
 151	0.000151729	0.000106917	-0.000176112
 152	9.45094e-05	0.000103494	-0.000304132
 153	9.72483e-05	0.000133315	-0.000182041
 154	-9.72539e-05	-0.000693599	5.24172e-05
 155	-3.06163e-05	-0.000501713	-4.76254e-05
 156	-5.08005e-05	-0.000929658	-0.000128354
 157	0.000589613	-0.000428774	-0.000236646
 158	-0.000250464	-0.000825001	0.000315101
 159	-0.000582161	-0.00049464	0.000126744
 160	-0.000188711	-0.000380063	5.61332e-05
 161	0.00149857	-0.000388971	-0.000509546
 162	-0.00224521	-0.000378278	0.000752683
 163	-3.47087e-05	-0.000254131	0.000377882
 164	-4.38046e-06	-0.000190263	0.000418693
 165	6.69036e-06	-0.000229386	0.000390576
 166	-4.16888e-05	-0.000243494	0.000285007
 167	-3.69734e-05	-0.000313773	0.000332494
 168	-6.6421e-06	-9.67111e-05	0.000422847
 169	-7.36479e-05	-0.000432368	0.000206326
 170	-3.75602e-05	-0.000177111	0.000346544
 171	-0.000169736	-0.000783983	-9.53086e-05
 172	-0.000358265	0.000589403	0.00050402
 173	-0.000505509	0.000186344	0.000474353
 174	-0.000252177	0.00101448	0.000509092
 175	-0.000445889	-0.000182166	0.000692596
 176	-0.000721274	0.000620478	0.00065939
 177	-0.000491298	0.000331887	4.06396e-05
 178	-0.00022107	-0.000180377	0.000395523
 179	-0.000545502	-0.000287851	0.00115866
 180	0.000221057	5.24167e-05	-0.00028467
 181	-9.88868e-05	0.000253486	-0.000226027
 182	-0.000351187	0.000261178	-1.8009e-06
 183	-0.000137624	0.000152254	-0.000321014
 184	-1.96346e-05	0.000227233	0.000268489
 185	8.48784e-05	0.000442525	-9.00442e-05
 186	-0.000755114	0.000214201	-9.54296e-05
 187	0.000107336	0.000418214	0.000282458
 188	0.000101501	0.000166027	0.00042697
 189	-0.000555524	0.00060903	-8.56182e-05
 190	-0.000479852	-0.000423258	-4.41206e-05
 191	-9.98462e-05	-0.000149669	-6.00878e-05
 192	-0.000658732	-0.000336952	-0.000192322
 193	0.000190157	6.48935e-05	-0.000432113
 194	-0.000539079	-0.000575255	4.32682e-05
 195	-7.905e-05	-0.000193297	0.000286269
 196	5.61162e-05	0.000132155	-0.000457855
 197	0.00045641	0.000155994	-0.000572047
 198	-0.000252599	5.7635e-05	-0.000283578
 199	-4.35522e-05	-2.73514e-05	0.000268061
 200	-1.23631e-05	-0.000391854	0.000203024
 201	-0.000237632	-2.56202e-05	0.000143004
 202	-0.000230889	-0.000570452	0.000141522
 203	8.35012e-05	-3.18319e-05	0.000378186
 204	0.000254861	-0.000420443	9.33616e-05
 205	-0.000465785	-0.000450461	3.17148e-05
 206	-0.000172899	-0.000712566	2.00179e-05
 207	-0.000622387	2.87424e-05	-0.00035498
 208	0.000428054	-0.000616045	-0.000946169
 209	0.000283504	-0.000725196	-0.000631752
 210	0.000584247	-0.000445433	-0.0012811
 211	0.000281364	9.37446e-05	-0.000166706
 212	0.000445295	-0.00108778	-0.00101834
 213	0.000198181	-0.0014663	-0.00071889
 214	0.000119291	0.000324533	0.000284041
 215	0.000442082	0.000514293	-8.96021e-05
 216	0.000231852	0.000873332	0.000619803
 217	-0.000508038	0.000344083	0.000306576
 218	-0.000238776	0.000467721	5.47408e-05
 219	-0.00121334	0.000473352	0.000490598
 220	-2.1513e-05	7.28978e-05	-0.000295487
 221	-0.000371471	-0.000277806	0.000596709
 222	-0.000281914	0.000892018	0.000256527
 223	0.000193746	-0.000264117	-0.000511899
 224	-0.000128056	0.000131595	-0.000252756
 225	0.000110605	4.61467e-05	-0.000332525
 226	0.000157468	0.000282495	0.00020117
 227	-0.000309596	0.000515116	-0.000252466
 228	0.000123391	0.000336703	0.000325186
 229	-0.000410403	0.000401412	-0.000451347
 230	0.000535165	-1.501e-05	-9.72545e-05
 231	-0.000716111	0.000682216	-0.000206105
 232	-2.49894e-05	0.000628413	1.43121e-05
 233	-0.0010686	0.000285297	-0.000753562
 234	0.000719954	0.000878478	0.000534396
 235	0.000271545	0.000155068	0.00128597
 236	0.000322268	0.000272866	0.000546634
 237	-0.000545073	-1.35195e-05	0.0019246
 238	0.000268572	0.000291574	0.000422576
 239	0.00113694	0.000179991	0.00189351
 240	0.000325373	0.000311739	-2.54633e-05
 241	0.000229183	0.000292592	0.000823326
 242	0.000421223	0.000371157	-0.000169675
 243	-1.71037e-05	4.13401e-05	0.00160611
 244	-0.000538671	0.00022137	4.07996e-05
 245	-0.000411257	0.000521877	-8.62539e-05
 246	-0.000720352	2.13598e-05	0.000106852
 247	-0.000294803	0.00047798	0.000228064
 248	-0.000628341	0.000253428	-0.000118141
 249	-0.000116435	0.000650422	-0.000341827
 250	0.000125945	0.000165291	0.000425857
 251	-0.000489379	0.00068588	0.000523314
 252	0.000193313	-0.000423076	5.74405e-05
 253	-0.000173906	-1.97653e-05	-2.00249e-05
 254	-0.000106725	7.74696e-05	0.00028579
 255	-0.000286867	0.000301044	-0.000421157
 256	-0.000190336	9.66822e-05	0.000413581
 257	-0.000120673	0.000168888	0.000345846
 258	-5.7455e-05	0.000106164	0.000512587
 259	-0.000201357	0.00012226	0.000342075
 260	-0.000128857	4.75223e-05	0.000402761
 261	-6.08364e-05	6.46533e-07	0.000651213
 262	-0.000173388	-0.000544051	1.24662e-05
 263	6.54326e-05	-0.000416834	-0.000104351
 264	-7.69512e-05	-0.00043858	3.58473e-05
 265	0.000409577	-0.000424908	-2.6481e-05
 266	-0.000241158	-0.00060673	-0.000207449
 267	0.000148167	-0.000276411	-0.000228358
 268	-4.93538e-05	-0.000450272	-0.000160967
 269	0.000949313	-0.000164251	-0.00014295
 270	-0.000945372	-0.000632236	-0.000325216
 271	-0.000358677	-0.000584136	0.000545325
 272	5.79963e-05	-0.00127191	0.000453697
 273	-0.00112667	0.000171479	0.000708648
 274	0.000113921	-0.0013773	0.000464199
 275	0.000212222	-0.000541997	0.00134741
 276	-0.00019144	-0.000707216	0.000522028
 277	-0.000309557	-0.000756667	0.000193618
 278	0.000288232	-0.00186004	0.000455432
 279	-0.000944223	-0.000358504	0.000245827
 280	0.000178903	9.10283e-05	-0.0012346
 281	0.00155863	0.000577679	-0.00104552
 282	0.000152462	-0.000403741	-0.00144593
 283	-0.000546546	-0.000414054	-0.000966063
 284	-0.000273054	-0.0003629	-0.00143442
 285	0.00422979	0.00196029	-0.00131656
 286	-0.000839926	-0.00106261	-0.000336234
 287	-0.0013715	-0.00111954	-0.00113609
 288	-0.00182261	-0.00196104	-0.000991974
 289	-0.000636738	0.00106333	-0.000437255
 290	-0.000484945	0.000810644	-0.000524728
 291	-0.000784244	0.00104645	-0.000482195
 292	-0.000415043	0.000863662	-0.000575579
 293	-0.000630023	0.00117069	-0.000502197
 294	-0.000235194	0.000677038	-0.000553393
 295	-0.000595643	0.000869791	-0.000676856
 296	-0.000633233	0.00104207	-0.000462996
 297	-0.00151963	0.00176201	-0.00027891
 298	-0.00127267	-6.15889e-05	0.0010534
 299	-0.0011633	-2.59048e-05	0.000526192
 300	-0.000711781	-0.000329097	0.00245138
 301	-0.00058427	0.000507145	0.000207678
 302	-0.00252822	0.000207457	0.00111517
 303	-0.00118073	-0.000250585	0.000375851
 304	-0.000726519	0.000636504	-0.000294314
 305	-0.000158667	0.000926586	0.000565574
 306	-0.00192572	4.63907e-05	-0.000312109
 307	0.000875709	0.000526055	-7.57517e-05
 308	0.0016397	-2.31234e-05	-0.00127368
 309	0.00118175	5.55241e-05	0.000578834
 310	0.000881593	-0.000265454	-0.000418906
 311	0.000383359	0.00136625	-0.000507933
 312	0.00249784	-0.000313825	-0.00269239
 313	-6.57048e-05	-0.000425291	-0.000240432
 314	0.00061348	-0.000127374	0.000319889
 315	-0.000362294	-0.000532867	-0.00108342
 316	0.00111486	-0.000454841	0.000979918
 317	-0.0003983	0.000136538	0.00125326
 318	0.00196483	-0.000798927	-1.95881e-05
 319	-0.00082941	0.00116958	0.0020296
 320	0.00196377	-0.000404837	0.0021227
 321	-0.00132095	-1.21231e-05	0.00115339
 322	0.000614859	0.000461518	0.000786664