pySIMM System Object

450 atoms
449 bonds
745 angles
990 dihedrals
100 impropers

7 atom types
6 bond types
10 angle types
4 dihedral types
2 improper types

-120.068329 120.068329 xlo xhi
-120.068329 120.068329 ylo yhi
-120.068329 120.068329 zlo zhi

Masses

   1	12.01	# c3
   2	12.01	# c
   3	1.008	# hc
   4	14.01	# n
   5	16.0	# o
   6	1.008	# hn
   7	1.008	# h5

Pair Coeffs

   1	0.1094	3.3996695084235347	# c3
   2	0.086	3.3996695084235347	# c
   3	0.0157	2.649532787749369	# hc
   4	0.17	3.249998523775958	# n
   5	0.21	2.959921901149463	# o
   6	0.0157	1.069078461768407	# hn
   7	0.015	2.421462715905442	# h5

Bond Coeffs

   1	319.7	1.1051	# c,h5
   2	427.6	1.3789	# c,n
   3	313.0	1.5241	# c,c3
   4	330.6	1.0969	# c3,hc
   5	637.7	1.2183	# c,o
   6	403.2	1.0129	# hn,n

Angle Coeffs

   1	48.33	117.55	# c,n,hn
   2	74.22	123.05	# n,c,o
   3	53.7	123.65	# h5,c,o
   4	39.4	107.58	# hc,c3,hc
   5	63.74	127.08	# c,n,c
   6	67.4	123.2	# c3,c,o
   7	46.93	108.77	# c,c3,hc
   8	66.79	115.18	# c3,c,n
   9	51.42	112.16	# h5,c,n
  10	63.38	111.63	# c,c3,c

Dihedral Coeffs

   1	3	0.8	1	0	0.0	2	0	0.08	3	180	# hc,c3,c,o
   2	1	2.5	2	180	# X,c,n,X
   3	2	2.5	2	180	2.0	1	0	# hn,n,c,o
   4	1	0.0	2	180	# X,c,c3,X

Improper Coeffs

   1	10.5	-1	2	# c,X,X,o
   2	1.1	-1	2	# n,X,X,hn

Atoms

   1	1	1	-0.041892	21.8995	-85.2316	-37.6919
   2	1	2	0.591489	20.6687	-85.1087	-36.8137
   3	1	3	0.048074	22.764	-84.7983	-37.1874
   4	1	4	-0.651929	20.7014	-84.2068	-35.7965
   5	1	3	0.049056	22.1034	-86.2968	-37.849
   6	1	5	-0.529683	19.6714	-85.7625	-37.0349
   7	1	2	0.758009	19.6718	-83.9281	-34.9554
   8	1	6	0.367145	21.5313	-83.6519	-35.662
   9	1	5	-0.590269	19.8133	-83.0278	-34.1466
  10	1	1	-0.041892	20.7915	-83.6919	-41.9031
  11	1	2	0.591489	19.9101	-84.0269	-40.6989
  12	1	3	0.048074	21.6073	-83.0167	-41.631
  13	1	4	-0.651929	20.4405	-84.521	-39.5436
  14	1	3	0.049056	21.2462	-84.6141	-42.2758
  15	1	5	-0.529683	18.7011	-83.8944	-40.7048
  16	1	2	0.758009	21.7186	-84.5634	-39.0479
  17	1	6	0.367145	19.7232	-84.8435	-38.904
  18	1	5	-0.590269	22.6568	-84.0644	-39.6447
  19	1	1	-0.041892	18.0919	-80.3374	-41.2868
  20	1	2	0.591489	19.3595	-81.0375	-41.7306
  21	1	3	0.048074	18.0537	-79.3353	-41.7258
  22	1	4	-0.651929	19.2348	-81.9276	-42.7627
  23	1	3	0.049056	17.1987	-80.8947	-41.5893
  24	1	5	-0.529683	20.3898	-80.9628	-41.0952
  25	1	2	0.758009	19.9597	-83.0611	-43.0164
  26	1	6	0.367145	18.4425	-81.8519	-43.3755
  27	1	5	-0.590269	19.6589	-83.6747	-44.0177
  28	1	1	-0.041892	19.1943	-80.8529	-36.9639
  29	1	2	0.591489	18.3239	-81.7665	-37.8069
  30	1	3	0.048074	18.7779	-79.8445	-36.9076
  31	1	4	-0.651929	18.0099	-81.4242	-39.0943
  32	1	3	0.049056	19.2445	-81.2336	-35.9391
  33	1	5	-0.529683	18.0523	-82.8918	-37.4493
  34	1	2	0.758009	18.1407	-80.2398	-39.7776
  35	1	6	0.367145	17.7445	-82.2391	-39.63
  36	1	5	-0.590269	18.383	-79.1926	-39.2141
  37	1	1	-0.041892	23.1902	-80.327	-39.1375
  38	1	2	0.591489	22.2221	-79.2862	-38.602
  39	1	3	0.048074	22.642	-81.1466	-39.6148
  40	1	4	-0.651929	21.0674	-79.6573	-37.9756
  41	1	3	0.049056	23.824	-79.86	-39.9002
  42	1	5	-0.529683	22.4075	-78.0984	-38.7627
  43	1	2	0.758009	20.5856	-80.8711	-37.5685
  44	1	6	0.367145	20.4791	-78.8661	-37.7813
  45	1	5	-0.590269	21.1946	-81.9098	-37.7486
  46	1	1	-0.041892	25.749	-82.3653	-36.0016
  47	1	2	0.591489	25.0937	-82.9811	-37.2263
  48	1	3	0.048074	26.4748	-81.6129	-36.3283
  49	1	4	-0.651929	24.3317	-82.1937	-38.0488
  50	1	3	0.049056	24.9881	-81.8615	-35.4004
  51	1	5	-0.529683	25.1683	-84.1672	-37.4831
  52	1	2	0.758009	24.0788	-80.8419	-38.0258
  53	1	6	0.367145	23.8809	-82.7142	-38.7888
  54	1	5	-0.590269	24.5145	-80.1097	-37.1531
  55	1	1	-0.041892	23.9004	-84.6809	-32.6586
  56	1	2	0.591489	24.3773	-84.2214	-34.0242
  57	1	3	0.048074	23.9569	-85.7743	-32.6087
  58	1	4	-0.651929	25.7298	-84.0229	-34.1574
  59	1	3	0.049056	24.5362	-84.2769	-31.8639
  60	1	5	-0.529683	23.6	-83.9819	-34.9279
  61	1	2	0.758009	26.4523	-83.3971	-35.1389
  62	1	6	0.367145	26.3159	-84.3298	-33.4037
  63	1	5	-0.590269	27.6563	-83.3453	-34.9508
  64	1	1	-0.041892	22.2365	-80.4557	-32.83
  65	1	2	0.591489	22.9175	-81.7764	-32.5244
  66	1	3	0.048074	21.1477	-80.584	-32.8191
  67	1	4	-0.651929	22.1303	-82.9006	-32.5339
  68	1	3	0.049056	22.4878	-79.706	-32.076
  69	1	5	-0.529683	24.1084	-81.8479	-32.2991
  70	1	2	0.758009	22.4582	-84.2297	-32.4554
  71	1	6	0.367145	21.1426	-82.781	-32.7453
  72	1	5	-0.590269	21.5508	-85.0333	-32.4606
  73	1	1	-0.041892	26.2647	-79.0093	-34.3712
  74	1	2	0.591489	24.9119	-79.0907	-33.6911
  75	1	3	0.048074	26.6693	-80.0239	-34.4426
  76	1	4	-0.651929	23.8918	-79.5213	-34.4916
  77	1	3	0.049056	26.1765	-78.6325	-35.3957
  78	1	5	-0.529683	24.755	-78.8658	-32.5104
  79	1	2	0.758009	22.6423	-79.9982	-34.2189
  80	1	6	0.367145	24.0851	-79.5167	-35.49
  81	1	5	-0.590269	21.9668	-80.3157	-35.1719
  82	1	1	-0.041892	26.6009	-74.4438	-34.0249
  83	1	2	0.591489	26.3978	-75.9215	-34.3113
  84	1	3	0.048074	25.9691	-73.8423	-34.68
  85	1	4	-0.651929	27.182	-76.7936	-33.5998
  86	1	3	0.049056	26.257	-74.2601	-33.0023
  87	1	5	-0.529683	25.533	-76.3135	-35.065
  88	1	2	0.758009	27.2206	-78.1599	-33.5485
  89	1	6	0.367145	27.8998	-76.3699	-33.0285
  90	1	5	-0.590269	28.2124	-78.6476	-33.0409
  91	1	1	-0.041892	28.9411	-71.5485	-36.7699
  92	1	2	0.591489	28.0765	-72.6275	-36.1488
  93	1	3	0.048074	29.9478	-71.9209	-36.9803
  94	1	4	-0.651929	28.5647	-73.1401	-34.9745
  95	1	3	0.049056	29.0304	-70.7479	-36.0314
  96	1	5	-0.529683	27.0175	-72.9746	-36.6256
  97	1	2	0.758009	28.0723	-74.0512	-34.0797
  98	1	6	0.367145	29.4985	-72.853	-34.7323
  99	1	5	-0.590269	28.8074	-74.3769	-33.1679
 100	1	1	-0.041892	29.2414	-72.712	-41.1973
 101	1	2	0.591489	29.1074	-72.6106	-39.6863
 102	1	3	0.048074	29.0007	-71.7607	-41.683
 103	1	4	-0.651929	28.5009	-71.4662	-39.2419
 104	1	3	0.049056	28.5165	-73.4497	-41.5565
 105	1	5	-0.529683	29.5247	-73.462	-38.9284
 106	1	2	0.758009	28.3229	-70.9224	-38.0037
 107	1	6	0.367145	28.1918	-70.8223	-39.9472
 108	1	5	-0.590269	27.947	-69.768	-37.9878
 109	1	1	-0.041892	33.2856	-70.5719	-40.7448
 110	1	2	0.591489	31.8663	-71.0898	-40.8776
 111	1	3	0.048074	33.8887	-71.2863	-40.1814
 112	1	4	-0.651929	31.7365	-72.3586	-41.3886
 113	1	3	0.049056	33.7187	-70.4957	-41.7491
 114	1	5	-0.529683	30.9064	-70.4305	-40.5399
 115	1	2	0.758009	30.6341	-73.148	-41.6279
 116	1	6	0.367145	32.593	-72.778	-41.7394
 117	1	5	-0.590269	30.7649	-74.1149	-42.3545
 118	1	1	-0.041892	32.433	-69.2165	-36.4119
 119	1	2	0.591489	32.7854	-69.8853	-37.7264
 120	1	3	0.048074	31.5175	-68.6287	-36.5522
 121	1	4	-0.651929	33.0847	-69.0221	-38.7447
 122	1	3	0.049056	33.2276	-68.5198	-36.126
 123	1	5	-0.529683	32.8715	-71.0877	-37.8644
 124	1	2	0.758009	33.3266	-69.2004	-40.0826
 125	1	6	0.367145	33.085	-68.0451	-38.518
 126	1	5	-0.590269	33.6415	-68.1981	-40.6849
 127	1	1	-0.041892	35.361	-71.5843	-33.7847
 128	1	2	0.591489	34.5738	-70.7382	-34.767
 129	1	3	0.048074	34.895	-71.5969	-32.7962
 130	1	4	-0.651929	33.2208	-70.7609	-34.5936
 131	1	3	0.049056	36.3591	-71.146	-33.6506
 132	1	5	-0.529683	35.1018	-70.1312	-35.6774
 133	1	2	0.758009	32.1904	-70.2221	-35.2995
 134	1	6	0.367145	32.8721	-71.3539	-33.845
 135	1	5	-0.590269	31.0843	-70.4169	-34.8463
 136	1	1	-0.041892	32.4081	-75.1202	-33.7294
 137	1	2	0.591489	33.3389	-73.9334	-33.5437
 138	1	3	0.048074	32.4653	-75.7428	-32.8283
 139	1	4	-0.651929	34.5514	-73.9428	-34.1948
 140	1	3	0.049056	31.3734	-74.7712	-33.8248
 141	1	5	-0.529683	32.9784	-72.9779	-32.8898
 142	1	2	0.758009	35.5126	-72.9836	-34.3602
 143	1	6	0.367145	34.7825	-74.7857	-34.7035
 144	1	5	-0.590269	36.3717	-73.2193	-35.1814
 145	1	1	-0.041892	32.4117	-74.2819	-38.2458
 146	1	2	0.591489	32.19	-74.3694	-36.7502
 147	1	3	0.048074	32.0459	-73.329	-38.6337
 148	1	4	-0.651929	32.6105	-75.5481	-36.2011
 149	1	3	0.049056	31.8696	-75.0808	-38.7568
 150	1	5	-0.529683	31.9059	-73.4056	-36.0674
 151	1	2	0.758009	32.77	-75.9849	-34.9201
 152	1	6	0.367145	32.8775	-76.2614	-36.8697
 153	1	5	-0.590269	33.5228	-76.9223	-34.7735
 154	1	1	-0.041892	36.4137	-71.6517	-38.1375
 155	1	2	0.591489	35.9676	-73.0602	-38.4716
 156	1	3	0.048074	36.6164	-71.5875	-37.0671
 157	1	4	-0.651929	34.6276	-73.2811	-38.2915
 158	1	3	0.049056	35.5974	-70.9581	-38.3638
 159	1	5	-0.529683	36.701	-73.904	-38.9415
 160	1	2	0.758009	33.8875	-74.4085	-38.5438
 161	1	6	0.367145	34.0888	-72.496	-37.9452
 162	1	5	-0.590269	34.3883	-75.4776	-38.8331
 163	1	1	-0.041892	39.9833	-69.5831	-40.0112
 164	1	2	0.591489	38.9629	-69.0693	-39.0194
 165	1	3	0.048074	39.5243	-70.1936	-40.7983
 166	1	4	-0.651929	37.9598	-69.8836	-38.5881
 167	1	3	0.049056	40.4064	-68.7137	-40.52
 168	1	5	-0.529683	38.9761	-67.9261	-38.608
 169	1	2	0.758009	37.6579	-71.1869	-38.8618
 170	1	6	0.367145	37.3246	-69.4076	-37.9706
 171	1	5	-0.590269	38.3837	-71.8795	-39.55
 172	1	1	-0.041892	42.3056	-73.9376	-39.6123
 173	1	2	0.591489	42.3526	-72.439	-39.3539
 174	1	3	0.048074	42.8123	-74.4454	-38.7792
 175	1	4	-0.651929	41.2249	-71.6628	-39.5248
 176	1	3	0.049056	42.8874	-74.1492	-40.522
 177	1	5	-0.529683	43.4422	-71.9176	-39.2293
 178	1	2	0.758009	41.094	-70.317	-39.2819
 179	1	6	0.367145	40.3811	-72.1011	-39.8701
 180	1	5	-0.590269	41.9019	-69.7156	-38.6114
 181	1	1	-0.041892	38.3571	-75.8408	-40.9308
 182	1	2	0.591489	39.1629	-74.6972	-41.5366
 183	1	3	0.048074	38.9369	-76.7693	-41.0073
 184	1	4	-0.651929	40.2996	-74.2222	-40.9502
 185	1	3	0.049056	38.1572	-75.6644	-39.8703
 186	1	5	-0.529683	38.8668	-74.1619	-42.5829
 187	1	2	0.758009	40.9315	-74.545	-39.7818
 188	1	6	0.367145	40.7558	-73.53	-41.5312
 189	1	5	-0.590269	40.5072	-75.386	-39.021
 190	1	1	-0.041892	34.2044	-75.5953	-42.9512
 191	1	2	0.591489	34.921	-74.6581	-41.997
 192	1	3	0.048074	34.8883	-76.0812	-43.6555
 193	1	4	-0.651929	36.1528	-74.9623	-41.4868
 194	1	3	0.049056	33.484	-75.0171	-43.5449
 195	1	5	-0.529683	34.4174	-73.608	-41.6338
 196	1	2	0.758009	37.0339	-75.9953	-41.6698
 197	1	6	0.367145	36.4344	-74.3305	-40.7507
 198	1	5	-0.590269	36.8112	-76.9085	-42.4364
 199	1	1	-0.041892	32.5644	-78.8719	-40.268
 200	1	2	0.591489	33.4013	-79.0232	-41.5267
 201	1	3	0.048074	32.9419	-78.0123	-39.7085
 202	1	4	-0.651929	33.8234	-77.9136	-42.2106
 203	1	3	0.049056	32.6763	-79.7561	-39.6295
 204	1	5	-0.529683	33.7913	-80.1078	-41.9018
 205	1	2	0.758009	33.4394	-76.5986	-42.1147
 206	1	6	0.367145	34.5371	-78.125	-42.8898
 207	1	5	-0.590269	32.5598	-76.2455	-41.3538
 208	1	1	-0.041892	29.0671	-77.2285	-37.8017
 209	1	2	0.591489	30.3434	-77.6682	-38.4941
 210	1	3	0.048074	28.2247	-77.8785	-38.0624
 211	1	4	-0.651929	30.1856	-78.2227	-39.7358
 212	1	3	0.049056	28.8175	-76.2132	-38.1375
 213	1	5	-0.529683	31.4297	-77.5053	-37.9728
 214	1	2	0.758009	31.0947	-78.7184	-40.6331
 215	1	6	0.367145	29.2332	-78.3005	-40.0745
 216	1	5	-0.590269	30.6516	-79.1192	-41.6948
 217	1	1	-0.041892	30.164	-80.6476	-34.9677
 218	1	2	0.591489	29.5793	-79.6756	-35.9729
 219	1	3	0.048074	30.8176	-80.1146	-34.2649
 220	1	4	-0.651929	29.6026	-78.3569	-35.6111
 221	1	3	0.049056	29.3621	-81.1236	-34.3935
 222	1	5	-0.529683	29.0656	-80.0393	-37.0075
 223	1	2	0.758009	29.3021	-77.2127	-36.2987
 224	1	6	0.367145	29.9003	-78.1679	-34.6683
 225	1	5	-0.590269	29.4273	-76.1781	-35.6765
 226	1	1	-0.041892	29.6396	-84.8042	-37.3147
 227	1	2	0.591489	30.7161	-83.8193	-36.9243
 228	1	3	0.048074	30.0829	-85.7014	-37.7605
 229	1	4	-0.651929	30.3144	-82.8061	-36.0905
 230	1	3	0.049056	29.0737	-85.1058	-36.4286
 231	1	5	-0.529683	31.8208	-83.8963	-37.4122
 232	1	2	0.758009	30.99	-81.6763	-35.7121
 233	1	6	0.367145	29.3441	-82.8336	-35.8001
 234	1	5	-0.590269	32.1479	-81.4597	-35.9952
 235	1	1	-0.041892	26.8232	-83.196	-40.5465
 236	1	2	0.591489	28.1473	-83.9337	-40.6988
 237	1	3	0.048074	26.1817	-83.4441	-41.3995
 238	1	4	-0.651929	28.8716	-84.3654	-39.6194
 239	1	3	0.049056	26.2852	-83.5341	-39.6602
 240	1	5	-0.529683	28.5783	-84.1953	-41.8005
 241	1	2	0.758009	28.7177	-84.1073	-38.2837
 242	1	6	0.367145	29.6706	-84.9179	-39.8817
 243	1	5	-0.590269	27.9466	-83.265	-37.8915
 244	1	1	-0.041892	28.202	-79.7561	-43.5108
 245	1	2	0.591489	27.7197	-79.8715	-42.0814
 246	1	3	0.048074	27.4994	-80.2783	-44.1736
 247	1	4	-0.651929	27.4492	-81.1706	-41.7254
 248	1	3	0.049056	29.1667	-80.2703	-43.584
 249	1	5	-0.529683	27.6707	-78.9307	-41.3098
 250	1	2	0.758009	27.0592	-81.6957	-40.5217
 251	1	6	0.367145	27.608	-81.8582	-42.4426
 252	1	5	-0.590269	26.7137	-80.9979	-39.5926
 253	1	1	-0.041892	29.5465	-76.0505	-45.714
 254	1	2	0.591489	30.3022	-76.914	-44.7163
 255	1	3	0.048074	29.2226	-76.67	-46.5607
 256	1	4	-0.651929	29.6573	-77.9042	-44.0283
 257	1	3	0.049056	28.653	-75.6202	-45.2487
 258	1	5	-0.529683	31.4961	-76.8015	-44.5329
 259	1	2	0.758009	28.3533	-78.3206	-43.9764
 260	1	6	0.367145	30.2865	-78.4144	-43.4176
 261	1	5	-0.590269	27.487	-77.795	-44.6458
 262	1	1	-0.041892	31.7463	-72.2161	-46.8237
 263	1	2	0.591489	31.3431	-72.7339	-45.4549
 264	1	3	0.048074	32.1243	-73.0103	-47.4713
 265	1	4	-0.651929	30.7488	-73.959	-45.322
 266	1	3	0.049056	30.8771	-71.7852	-47.334
 267	1	5	-0.529683	31.4143	-72.047	-44.4544
 268	1	2	0.758009	30.4044	-74.9216	-46.2435
 269	1	6	0.367145	30.5995	-74.193	-44.3489
 270	1	5	-0.590269	30.481	-74.7224	-47.438
 271	1	1	-0.041892	36.2169	-72.7505	-46.9429
 272	1	2	0.591489	34.7264	-72.7293	-46.689
 273	1	3	0.048074	36.6239	-71.7334	-46.9149
 274	1	4	-0.651929	34.1085	-71.5242	-46.8986
 275	1	3	0.049056	36.394	-73.1519	-47.9461
 276	1	5	-0.529683	34.1428	-73.6802	-46.2109
 277	1	2	0.758009	32.8145	-71.1563	-46.6893
 278	1	6	0.367145	34.6984	-70.7336	-47.0981
 279	1	5	-0.590269	32.5638	-69.9747	-46.7926
 280	1	1	-0.041892	37.4152	-71.4975	-42.8095
 281	1	2	0.591489	36.666	-71.9969	-44.023
 282	1	3	0.048074	38.4917	-71.442	-43.0032
 283	1	4	-0.651929	37.1808	-73.094	-44.66
 284	1	3	0.049056	37.2677	-72.192	-41.9717
 285	1	5	-0.529683	35.6954	-71.4002	-44.4361
 286	1	2	0.758009	36.9231	-73.6103	-45.8981
 287	1	6	0.367145	37.8976	-73.6175	-44.1763
 288	1	5	-0.590269	37.5441	-74.606	-46.2015
 289	1	1	-0.041892	38.8639	-67.5793	-44.4662
 290	1	2	0.591489	38.1401	-68.8946	-44.2384
 291	1	3	0.048074	39.2487	-67.1922	-43.5168
 292	1	4	-0.651929	37.4053	-69.0077	-43.0805
 293	1	3	0.049056	38.1629	-66.8388	-44.8651
 294	1	5	-0.529683	38.3016	-69.8395	-44.9798
 295	1	2	0.758009	36.905	-70.1167	-42.4444
 296	1	6	0.367145	37.16	-68.1537	-42.6118
 297	1	5	-0.590269	36.3075	-69.9418	-41.3997
 298	1	1	-0.041892	42.4473	-70.3553	-44.0899
 299	1	2	0.591489	41.3877	-69.2783	-43.9879
 300	1	3	0.048074	43.3927	-69.9505	-44.4579
 301	1	4	-0.651929	41.0834	-68.599	-45.1315
 302	1	3	0.049056	42.1251	-71.1127	-44.8102
 303	1	5	-0.529683	40.7595	-69.0991	-42.967
 304	1	2	0.758009	40.0413	-67.7629	-45.4278
 305	1	6	0.367145	41.6793	-68.7367	-45.9296
 306	1	5	-0.590269	40.0405	-67.2988	-46.5498
 307	1	1	-0.041892	44.4975	-68.6972	-40.357
 308	1	2	0.591489	43.9695	-69.1526	-41.7081
 309	1	3	0.048074	45.4798	-68.2394	-40.4864
 310	1	4	-0.651929	43.3077	-70.3552	-41.7271
 311	1	3	0.049056	44.6042	-69.5288	-39.6519
 312	1	5	-0.529683	44.1164	-68.4743	-42.7023
 313	1	2	0.758009	42.6226	-71.005	-42.7241
 314	1	6	0.367145	43.2918	-70.8508	-40.8419
 315	1	5	-0.590269	41.9941	-71.9996	-42.3994
 316	1	1	-0.041892	41.8181	-65.7961	-38.0488
 317	1	2	0.591489	43.1961	-66.3403	-37.7072
 318	1	3	0.048074	41.4123	-65.2189	-37.2067
 319	1	4	-0.651929	43.8833	-67.1474	-38.572
 320	1	3	0.049056	41.1506	-66.6346	-38.2534
 321	1	5	-0.529683	43.7016	-66.1389	-36.6277
 322	1	2	0.758009	43.537	-67.6791	-39.782
 323	1	6	0.367145	44.7686	-67.4257	-38.1912
 324	1	5	-0.590269	42.4852	-67.4037	-40.318
 325	1	1	-0.041892	41.6757	-63.8273	-42.0479
 326	1	2	0.591489	40.5002	-64.2361	-41.1843
 327	1	3	0.048074	42.5301	-64.469	-41.8377
 328	1	4	-0.651929	40.7638	-64.8407	-39.9991
 329	1	3	0.049056	41.9343	-62.778	-41.8433
 330	1	5	-0.529683	39.3346	-64.1082	-41.5054
 331	1	2	0.758009	41.9041	-64.8717	-39.2352
 332	1	6	0.367145	39.988	-65.3762	-39.6489
 333	1	5	-0.590269	42.8778	-64.1733	-39.4507
 334	1	1	-0.041892	41.502	-64.3465	-46.5614
 335	1	2	0.591489	42.3675	-63.4551	-45.679
 336	1	3	0.048074	41.6516	-65.3904	-46.2773
 337	1	4	-0.651929	42.2606	-63.4662	-44.3252
 338	1	3	0.049056	41.855	-64.2422	-47.5904
 339	1	5	-0.529683	43.2454	-62.7559	-46.1443
 340	1	2	0.758009	41.3713	-64.0768	-43.4937
 341	1	6	0.367145	42.9617	-62.8936	-43.8799
 342	1	5	-0.590269	40.6667	-64.9935	-43.8683
 343	1	1	-0.041892	36.8824	-64.0546	-47.0141
 344	1	2	0.591489	37.9508	-64.8856	-47.7197
 345	1	3	0.048074	36.9987	-64.1471	-45.9287
 346	1	4	-0.651929	39.2821	-64.7803	-47.4156
 347	1	3	0.049056	35.9107	-64.507	-47.2726
 348	1	5	-0.529683	37.6262	-65.7664	-48.4828
 349	1	2	0.758009	40.0208	-64.048	-46.5288
 350	1	6	0.367145	39.8019	-65.5213	-47.8648
 351	1	5	-0.590269	39.5299	-63.1848	-45.823
 352	1	1	-0.041892	38.7988	-60.0013	-45.5478
 353	1	2	0.591489	37.7758	-60.434	-46.5926
 354	1	3	0.048074	38.8102	-60.7368	-44.7379
 355	1	4	-0.651929	37.4644	-61.7611	-46.5498
 356	1	3	0.049056	38.4624	-59.055	-45.0978
 357	1	5	-0.529683	37.2777	-59.6458	-47.3622
 358	1	2	0.758009	36.8652	-62.5944	-47.4463
 359	1	6	0.367145	37.9417	-62.2829	-45.8238
 360	1	5	-0.590269	36.5159	-62.2393	-48.5554
 361	1	1	-0.041892	41.6228	-59.0909	-49.502
 362	1	2	0.591489	41.6297	-59.1262	-47.9782
 363	1	3	0.048074	40.5969	-59.0603	-49.8631
 364	1	4	-0.651929	40.4402	-59.42	-47.3521
 365	1	3	0.049056	42.1358	-58.1896	-49.8649
 366	1	5	-0.529683	42.6763	-58.9563	-47.384
 367	1	2	0.758009	40.2312	-59.8619	-46.067
 368	1	6	0.367145	39.6021	-59.3028	-47.8959
 369	1	5	-0.590269	41.162	-60.2516	-45.3799
 370	1	1	-0.041892	45.4554	-61.6705	-48.5032
 371	1	2	0.591489	44.4688	-61.5991	-49.6531
 372	1	3	0.048074	46.323	-61.0805	-48.7792
 373	1	4	-0.651929	43.5609	-60.5727	-49.5098
 374	1	3	0.049056	45.029	-61.2	-47.6211
 375	1	5	-0.529683	44.4787	-62.3718	-50.5837
 376	1	2	0.758009	42.3374	-60.324	-50.0685
 377	1	6	0.367145	43.7843	-59.9239	-48.7693
 378	1	5	-0.590269	41.8106	-61.1106	-50.8347
 379	1	1	-0.041892	46.2522	-66.1729	-47.8601
 380	1	2	0.591489	45.0283	-65.334	-47.4996
 381	1	3	0.048074	46.9459	-66.1241	-47.0262
 382	1	4	-0.651929	44.9441	-64.0028	-47.8694
 383	1	3	0.049056	46.797	-65.7831	-48.7178
 384	1	5	-0.529683	44.0381	-65.8174	-46.9752
 385	1	2	0.758009	45.9101	-63.0817	-48.1906
 386	1	6	0.367145	44.0417	-63.5939	-47.654
 387	1	5	-0.590269	47.0552	-63.355	-47.9071
 388	1	1	-0.041892	44.6524	-66.2872	-50.9028
 389	1	2	0.591489	44.3503	-67.6008	-50.195
 390	1	3	0.048074	45.0342	-66.498	-51.9249
 391	1	4	-0.651929	44.9695	-68.0398	-49.0416
 392	1	3	0.049056	45.355	-65.6736	-50.3542
 393	1	5	-0.529683	43.5705	-68.4055	-50.669
 394	1	2	0.758009	45.8528	-67.6247	-48.0699
 395	1	6	0.367145	44.5981	-68.9564	-48.8519
 396	1	5	-0.590269	46.0994	-68.476	-47.2363
 397	1	1	-0.041892	42.0925	-63.9443	-54.0468
 398	1	2	0.591489	43.1031	-64.8222	-53.3349
 399	1	3	0.048074	41.2493	-63.6697	-53.3948
 400	1	4	-0.651929	42.8453	-64.8498	-51.9875
 401	1	3	0.049056	42.5801	-62.9946	-54.328
 402	1	5	-0.529683	43.927	-65.5267	-53.8952
 403	1	2	0.758009	43.3137	-65.5685	-50.9301
 404	1	6	0.367145	42.0468	-64.3125	-51.6855
 405	1	5	-0.590269	42.6436	-65.4384	-49.9296
 406	1	1	-0.041892	38.5044	-66.4397	-54.631
 407	1	2	0.591489	39.9556	-66.258	-54.2636
 408	1	3	0.048074	38.1026	-65.4185	-54.7323
 409	1	4	-0.651929	40.5329	-65.5019	-55.2394
 410	1	3	0.049056	38.4278	-66.9917	-55.5874
 411	1	5	-0.529683	40.4631	-66.6154	-53.2223
 412	1	2	0.758009	41.5784	-64.6348	-55.3008
 413	1	6	0.367145	40.0383	-65.4584	-56.1155
 414	1	5	-0.590269	41.5392	-63.9912	-56.3293
 415	1	1	-0.041892	36.2242	-69.2248	-51.7949
 416	1	2	0.591489	37.0812	-69.5014	-53.0311
 417	1	3	0.048074	36.8151	-69.5558	-50.9428
 418	1	4	-0.651929	37.7585	-68.4903	-53.6708
 419	1	3	0.049056	35.9837	-68.1722	-51.6213
 420	1	5	-0.529683	37.2349	-70.6201	-53.4526
 421	1	2	0.758009	37.7128	-67.1263	-53.5708
 422	1	6	0.367145	38.4486	-68.84	-54.3239
 423	1	5	-0.590269	36.7678	-66.5539	-53.0561
 424	1	1	-0.041892	31.9469	-70.6007	-51.1527
 425	1	2	0.591489	32.5072	-69.5982	-52.1695
 426	1	3	0.048074	31.9245	-70.148	-50.15
 427	1	4	-0.651929	33.8498	-69.3895	-52.2908
 428	1	3	0.049056	32.5695	-71.5122	-51.1159
 429	1	5	-0.529683	31.7865	-68.8618	-52.8109
 430	1	2	0.758009	34.9365	-70.0217	-51.7634
 431	1	6	0.367145	34.0498	-68.6204	-52.8965
 432	1	5	-0.590269	34.8513	-70.9701	-51.0129
 433	1	1	-0.041892	27.5402	-69.7023	-49.923
 434	1	2	0.591489	29.0407	-69.7662	-50.0976
 435	1	3	0.048074	27.0739	-70.7012	-50.1003
 436	1	4	-0.651929	29.3998	-70.6642	-51.0794
 437	1	3	0.049056	27.1191	-69.0032	-50.6456
 438	1	5	-0.529683	29.8285	-69.0986	-49.4527
 439	1	2	0.758009	30.5805	-71.0849	-51.6292
 440	1	6	0.367145	28.6403	-71.1559	-51.5032
 441	1	5	-0.590269	30.4939	-72.0128	-52.4029
 442	1	1	-0.041892	28.2785	-71.5534	-45.8431
 443	1	2	0.591489	27.8802	-71.277	-47.2706
 444	1	3	0.048074	29.3072	-71.1847	-45.7554
 445	1	4	-0.651929	27.442	-69.9951	-47.4212
 446	1	3	0.049056	28.2443	-72.6321	-45.617
 447	1	5	-0.529683	27.9921	-72.0782	-48.1768
 448	1	2	0.758009	27.1829	-69.2303	-48.5183
 449	1	6	0.367145	27.2601	-69.4861	-46.5812
 450	1	5	-0.590269	26.6567	-68.1646	-48.2905

Velocities

   1	0.00254362	0.00689329	0.00173766
   2	0.00120676	0.00532674	-0.00137296
   3	0.000392328	0.0101465	-0.00290668
   4	0.000570195	0.00347327	-0.000843672
   5	0.0107558	0.00571848	0.00704449
   6	0.00217914	0.00396119	0.000876568
   7	-0.000927971	0.00378445	-0.00154562
   8	0.00177107	0.00146439	0.00239403
   9	0.00124612	0.0025495	-0.00197972
  10	0.00112913	0.00499992	-0.0001939
  11	0.000981739	0.00524451	7.04239e-05
  12	0.00478752	0.00182033	-0.000364515
  13	0.00321991	0.00571148	-0.00217278
  14	-0.00224125	0.00788696	0.00428734
  15	0.00085077	0.00433733	-0.000140643
  16	0.00364614	0.00396871	0.00128034
  17	0.0031031	0.00362581	0.00246266
  18	0.00394793	0.00106356	-0.00349387
  19	0.00246938	0.00525452	0.00183757
  20	0.000578975	0.00469787	0.00136288
  21	0.000578005	0.00505518	0.00123796
  22	-0.000656446	0.00449251	0.000913028
  23	0.00277155	0.00622966	-0.000942017
  24	0.00439041	0.00559938	0.00018421
  25	-0.0025505	0.00513645	-0.00103579
  26	-0.00511405	0.00310874	0.0023095
  27	-0.000262979	0.00407117	-0.000239592
  28	0.00126424	0.00216629	0.000311358
  29	0.000349081	0.00341823	6.65666e-05
  30	0.00380544	0.00355906	0.00709799
  31	-1.02543e-05	0.00501625	0.00180011
  32	0.00197395	0.000191119	-0.00319357
  33	0.000313298	0.00503959	0.00132693
  34	0.00155749	0.00387846	0.00130193
  35	-0.00208866	0.00819063	-0.00088199
  36	0.00209701	0.00362085	0.00201186
  37	0.000646965	0.00218922	-0.00315641
  38	0.00105793	0.00719312	-0.00117453
  39	-0.00153296	0.00284985	-0.00446683
  40	0.001723	0.00494949	-0.00158615
  41	0.00262621	0.00793196	-0.00348459
  42	-0.000947495	0.00724531	-0.0027221
  43	0.0012348	0.00396511	-0.000606476
  44	0.00110243	0.00912503	0.00581861
  45	0.000419743	0.0040975	-0.00227731
  46	5.54522e-05	0.00445203	0.00285765
  47	0.00255503	0.00363004	-0.000586415
  48	-0.00200366	0.00914057	0.00752106
  49	0.00270541	0.00431569	-0.00105493
  50	-0.00428281	0.00174912	0.000995661
  51	-0.000575119	0.00414253	0.000642636
  52	0.000332129	0.00438503	-0.00269222
  53	-5.72278e-05	0.00453485	0.00454451
  54	-0.00020513	0.0027029	-0.00142148
  55	0.00162456	0.00279993	0.000297262
  56	-0.000857447	0.00245935	-0.00081132
  57	-0.00283543	0.00127821	-0.000159023
  58	-0.000112735	0.0018862	0.00027329
  59	-0.000874299	0.0014252	0.00146245
  60	-0.00141095	0.0026313	-0.00143611
  61	0.00123455	0.00311946	0.00297243
  62	0.00424129	0.00117573	-0.000802341
  63	-0.000115375	0.00589335	0.00340435
  64	0.00143212	0.00206376	-0.00248813
  65	0.00180041	0.00270015	-0.000392259
  66	0.00302808	0.00485601	-0.00491016
  67	0.00106477	0.002355	-0.000783224
  68	-0.00246317	-0.000482457	-0.00413389
  69	0.000692346	0.00278795	-0.00129937
  70	-0.000221541	0.00198589	-0.00234383
  71	-0.00101773	0.00171889	-0.00232656
  72	0.000520089	0.00397614	-0.00496748
  73	-0.000280872	0.00518722	-0.00110465
  74	0.000598777	0.00377046	0.000757307
  75	-0.0013269	0.00540537	0.000209342
  76	0.000873638	0.00242633	-0.000150374
  77	-0.0054087	0.00269285	-0.00135116
  78	0.00192705	0.00438356	0.000697781
  79	0.000651258	0.0041682	-0.000244929
  80	0.000865493	0.0015463	0.00208771
  81	0.00239787	0.00364858	-0.000626477
  82	-0.000217677	0.00409043	-0.00209206
  83	9.36565e-05	0.0030685	-0.00389886
  84	-0.000373103	0.00769492	-0.00128325
  85	0.00103138	0.00397173	-0.00314567
  86	0.000744078	0.00494649	-0.0016959
  87	-0.00104066	0.00367223	-0.000516581
  88	-3.27197e-05	0.00368592	0.000329945
  89	0.00374219	-0.00274418	-0.002734
  90	-0.000505206	0.00427456	0.000969759
  91	-0.00013725	0.00274539	-0.00344111
  92	0.00122123	0.00209531	-0.00334534
  93	0.00100932	0.00386094	-0.00349889
  94	0.00291619	-1.55033e-05	-0.00183372
  95	-0.000331537	-0.00217266	0.000599724
  96	-0.000331055	4.99831e-06	0.00184578
  97	-0.000347731	0.00265454	-0.000296885
  98	-0.00831725	0.0112477	0.00121423
  99	-0.00226742	0.00356081	-0.00133207
 100	0.00437251	0.000607033	0.00120194
 101	0.00243379	0.00151748	-0.000579203
 102	0.00763572	0.00116241	0.000688218
 103	0.0020755	0.00365427	-0.0029664
 104	0.00561682	0.00103624	-0.00479876
 105	0.000480789	0.00105772	-0.000725952
 106	-0.000593508	0.00141086	-0.00199713
 107	-0.0104419	0.00402527	0.00129285
 108	-0.000182224	0.00357252	-0.0016067
 109	-0.000401515	0.00417281	-0.000824769
 110	0.000781094	-0.000122628	-0.00490106
 111	-0.00428827	-0.00214536	-0.00471154
 112	0.00371399	0.00249498	-0.000250251
 113	0.00769517	0.00608262	0.00419885
 114	0.000907564	-0.000681075	-0.000619009
 115	0.000610502	0.00124189	-0.000119581
 116	-0.0046362	0.011384	0.000737921
 117	0.000138783	6.22014e-05	0.0026833
 118	-0.000215795	0.0034616	-0.000164823
 119	0.00068764	0.00198456	0.000385842
 120	0.000772386	0.00773401	-0.00116635
 121	0.00173358	0.00545126	0.00051684
 122	0.00379712	-0.00225719	-0.00508841
 123	0.000607457	0.00213526	-0.000934692
 124	0.000841862	0.00401607	0.00179463
 125	0.00388567	0.00775809	-0.00399802
 126	0.00507805	0.00445533	-0.00197685
 127	-0.000497261	0.00131968	0.00132128
 128	0.00236754	-0.00167196	-0.0040494
 129	0.00356399	0.00631248	0.00241152
 130	-0.00011366	-0.00208033	-0.00217223
 131	-0.00122822	0.00424763	-0.00301933
 132	0.00351107	0.00472956	0.00289127
 133	-0.00121342	0.00283189	-0.00239286
 134	0.0026927	-0.00664335	-0.00219309
 135	0.00070478	0.000685613	-0.00108189
 136	0.00156924	0.00046179	0.00460483
 137	0.0037251	-0.000998966	0.00233319
 138	0.00716986	-0.0111373	-0.00444698
 139	0.0025896	0.00174029	-0.000558651
 140	0.000371989	-0.00669763	0.00747638
 141	0.00188495	0.0014328	0.000914561
 142	-0.000420202	0.00247211	-0.0020681
 143	0.000106247	0.0113207	-0.00546152
 144	0.00101314	0.00321969	-0.00255285
 145	0.00159497	0.00334915	0.00249455
 146	-0.000196543	0.00354215	0.00151363
 147	-0.00131989	0.00345985	0.00758916
 148	0.0016831	0.0029625	0.000159044
 149	-0.00416671	0.00695542	0.0037459
 150	0.00234308	0.00733868	0.00291487
 151	0.000972724	0.0035894	0.00185354
 152	-0.00302239	0.000712251	0.00614791
 153	0.00242708	0.00468994	-0.00217815
 154	0.0019148	0.00177152	-0.00396502
 155	0.00173518	0.00151775	-0.00251091
 156	0.00566798	-0.0056265	-0.0045837
 157	0.0013683	0.00381065	-0.000943948
 158	0.0110342	0.00255015	-0.00455436
 159	-0.000834999	-0.00289143	0.00781992
 160	0.00135705	0.0029913	0.00220943
 161	0.00538283	0.0127394	-0.00602188
 162	0.00287757	0.00417158	0.00208762
 163	0.002834	-0.000230404	0.000204711
 164	0.00432001	0.00214272	0.00365415
 165	0.00404341	-0.000535772	0.00473826
 166	0.00271029	0.00146714	0.00195244
 167	0.00359367	-0.00664769	-0.00339896
 168	0.00263682	0.00375077	0.00391185
 169	-0.0026671	0.00255251	-0.00216098
 170	-0.0076126	-0.00450482	-0.000345968
 171	-0.000486516	0.000644041	0.000361248
 172	-0.000939038	0.00371381	-0.00360796
 173	0.00221846	0.00282602	-0.00532875
 174	-0.00133464	0.00548423	-0.00274906
 175	0.000557658	0.0029533	-0.0025072
 176	-0.00835211	0.014211	-0.00909507
 177	0.00300595	0.00232656	0.00199786
 178	-0.00103913	-1.20098e-05	0.00238348
 179	-0.000273839	-0.00819267	-0.00649227
 180	0.00102695	0.00228312	-0.00661603
 181	0.00232583	1.66172e-05	-0.00118857
 182	-0.000226697	0.00168809	-0.00101331
 183	-0.00407808	-0.00490228	0.00575332
 184	-0.0038459	0.0021595	-0.000113621
 185	0.00436711	0.00303266	0.00253223
 186	-0.00283101	9.68119e-05	-0.00253325
 187	0.00439202	0.00281882	-0.00458909
 188	-0.00245477	-0.00688467	-0.0044676
 189	0.00764154	0.00122339	-0.00422742
 190	0.00361393	0.00331686	0.00201335
 191	0.00455324	0.00318835	0.00166215
 192	-0.00459591	0.0138422	0.00901255
 193	0.00194584	-0.0012202	0.0027769
 194	0.0056521	0.0063055	0.00542648
 195	0.00691383	0.00388688	-0.000129754
 196	-0.00148366	0.00235593	0.00250129
 197	0.00678874	-0.00304652	0.000634512
 198	0.00425135	0.00323005	-0.00234611
 199	-0.000663474	0.00405782	-0.000727336
 200	0.00138387	0.0012781	-0.00181359
 201	-0.00139115	0.000816398	-0.0035073
 202	-0.00168866	0.000104719	-0.00203256
 203	-0.00524302	0.00922547	-0.00512759
 204	-0.0034107	0.00209981	-0.00152934
 205	0.00537167	-0.00218729	0.00191265
 206	-0.000821371	0.00140869	0.00493823
 207	0.00375224	0.00521855	0.000398684
 208	-0.00222744	0.00434283	0.00123824
 209	-0.000705983	0.00639623	-0.000984686
 210	-0.000166497	0.00163167	0.00545544
 211	0.000991053	0.00280271	-0.00155405
 212	-0.00444773	0.00210302	0.00270343
 213	0.000778326	0.00333746	-0.000813551
 214	-0.00131963	0.0051544	-0.00177704
 215	-0.00434607	-0.00138869	0.00393415
 216	0.000410471	0.00938859	-0.00197278
 217	0.00106023	0.00386979	0.000495351
 218	0.000731121	0.00421168	0.00120471
 219	0.000529825	0.0011217	0.00302893
 220	0.00305507	0.00238342	-0.0002138
 221	0.00231804	-0.00122044	-0.00242432
 222	0.00314324	0.00299164	0.000739792
 223	0.00230723	0.00308731	-0.000600659
 224	0.00811713	0.00160653	0.00137576