pySIMM System Object

236 atoms
235 bonds
390 angles
514 dihedrals
52 impropers

7 atom types
6 bond types
10 angle types
4 dihedral types
2 improper types

-95.942223 95.942223 xlo xhi
-95.942223 95.942223 ylo yhi
-95.942223 95.942223 zlo zhi

Masses

   1	12.01	# c3
   2	12.01	# c
   3	1.008	# hc
   4	14.01	# n
   5	16.0	# o
   6	1.008	# hn
   7	1.008	# h5

Pair Coeffs

   1	0.1094	3.3996695084235347	# c3
   2	0.086	3.3996695084235347	# c
   3	0.0157	2.649532787749369	# hc
   4	0.17	3.249998523775958	# n
   5	0.21	2.959921901149463	# o
   6	0.0157	1.069078461768407	# hn
   7	0.015	2.421462715905442	# h5

Bond Coeffs

   1	319.7	1.1051	# c,h5
   2	427.6	1.3789	# c,n
   3	313.0	1.5241	# c,c3
   4	330.6	1.0969	# c3,hc
   5	637.7	1.2183	# c,o
   6	403.2	1.0129	# hn,n

Angle Coeffs

   1	48.33	117.55	# c,n,hn
   2	74.22	123.05	# n,c,o
   3	53.7	123.65	# h5,c,o
   4	39.4	107.58	# hc,c3,hc
   5	63.74	127.08	# c,n,c
   6	67.4	123.2	# c3,c,o
   7	46.93	108.77	# c,c3,hc
   8	66.79	115.18	# c3,c,n
   9	51.42	112.16	# h5,c,n
  10	63.38	111.63	# c,c3,c

Dihedral Coeffs

   1	3	0.8	1	0	0.0	2	0	0.08	3	180	# hc,c3,c,o
   2	1	2.5	2	180	# X,c,n,X
   3	2	2.5	2	180	2.0	1	0	# hn,n,c,o
   4	1	0.0	2	180	# X,c,c3,X

Improper Coeffs

   1	10.5	-1	2	# c,X,X,o
   2	1.1	-1	2	# n,X,X,hn

Atoms

   1	1	1	-0.041892	-26.0981	2.56387	-24.3307
   2	1	2	0.591489	-25.9006	2.95585	-25.7806
   3	1	3	0.048074	-27.0425	2.9906	-23.9757
   4	1	4	-0.651929	-25.5107	1.97721	-26.6452
   5	1	3	0.049056	-26.1673	1.47329	-24.2426
   6	1	5	-0.529683	-26.0036	4.10635	-26.148
   7	1	2	0.758009	-25.2578	2.11735	-27.9745
   8	1	6	0.367145	-25.3733	1.03996	-26.3126
   9	1	5	-0.590269	-24.9306	1.14032	-28.6117
  10	1	1	-0.041892	-22.2984	3.98292	-22.1995
  11	1	2	0.591489	-22.8905	4.4476	-23.5173
  12	1	3	0.048074	-21.4207	4.59508	-21.9624
  13	1	4	-0.651929	-24.1049	3.98763	-23.9486
  14	1	3	0.049056	-23.0392	4.13875	-21.4087
  15	1	5	-0.529683	-22.3249	5.2523	-24.224
  16	1	2	0.758009	-24.9707	3.05376	-23.4359
  17	1	6	0.367145	-24.3622	4.39394	-24.8374
  18	1	5	-0.590269	-24.7993	2.54974	-22.3447
  19	1	1	-0.041892	-21.1557	1.20019	-18.7791
  20	1	2	0.591489	-21.4577	2.26987	-19.8065
  21	1	3	0.048074	-22.0861	0.892622	-18.2876
  22	1	4	-0.651929	-21.5616	1.84814	-21.1061
  23	1	3	0.049056	-20.7124	0.318673	-19.257
  24	1	5	-0.529683	-21.6126	3.4268	-19.4803
  25	1	2	0.758009	-21.8762	2.52082	-22.2547
  26	1	6	0.367145	-21.3917	0.877548	-21.2969
  27	1	5	-0.590269	-21.8803	1.85737	-23.2719
  28	1	1	-0.041892	-18.6622	3.35	-15.6179
  29	1	2	0.591489	-20.1588	3.07722	-15.6453
  30	1	3	0.048074	-18.1156	2.405	-15.5217
  31	1	4	-0.651929	-20.7207	2.37779	-16.6757
  32	1	3	0.049056	-18.355	3.82938	-16.5548
  33	1	5	-0.529683	-20.9281	3.53563	-14.8297
  34	1	2	0.758009	-20.1741	1.76554	-17.7726
  35	1	6	0.367145	-21.7237	2.38691	-16.6228
  36	1	5	-0.590269	-18.9765	1.67449	-17.936
  37	1	1	-0.041892	-18.0588	6.52823	-12.3788
  38	1	2	0.591489	-18.1705	6.67763	-13.8882
  39	1	3	0.048074	-18.3868	7.46474	-11.9132
  40	1	4	-0.651929	-18.3409	5.59135	-14.7009
  41	1	3	0.049056	-18.724	5.74059	-12.0101
  42	1	5	-0.529683	-18.2216	7.76816	-14.4131
  43	1	2	0.758009	-18.3216	4.2452	-14.4431
  44	1	6	0.367145	-18.5093	5.86363	-15.6519
  45	1	5	-0.590269	-18.02	3.79969	-13.3541
  46	1	1	-0.041892	-13.9284	6.11381	-10.4668
  47	1	2	0.591489	-15.3123	6.01662	-9.8428
  48	1	3	0.048074	-13.6761	5.16224	-10.9481
  49	1	4	-0.651929	-16.4401	6.15619	-10.6051
  50	1	3	0.049056	-13.9099	6.89924	-11.2294
  51	1	5	-0.529683	-15.4798	5.80443	-8.66172
  52	1	2	0.758009	-16.6279	6.25495	-11.9602
  53	1	6	0.367145	-17.2723	6.15705	-10.0439
  54	1	5	-0.590269	-15.7043	6.17058	-12.7433
  55	1	1	-0.041892	-10.3819	6.91893	-7.70714
  56	1	2	0.591489	-10.7816	5.63012	-8.4096
  57	1	3	0.048074	-10.4014	7.74635	-8.42552
  58	1	4	-0.651929	-11.919	5.57235	-9.17072
  59	1	3	0.049056	-11.1038	7.14369	-6.9141
  60	1	5	-0.529683	-10.1558	4.59986	-8.29759
  61	1	2	0.758009	-12.9018	6.49726	-9.41976
  62	1	6	0.367145	-12.0341	4.67336	-9.60218
  63	1	5	-0.590269	-12.8638	7.61451	-8.9482
  64	1	1	-0.041892	-8.0998	6.35134	-3.49703
  65	1	2	0.591489	-7.80719	6.61972	-4.95853
  66	1	3	0.048074	-7.84377	7.22968	-2.90352
  67	1	4	-0.651929	-8.90272	6.61176	-5.79095
  68	1	3	0.049056	-9.17014	6.17011	-3.34949
  69	1	5	-0.529683	-6.67671	6.82825	-5.34008
  70	1	2	0.758009	-8.97405	6.83382	-7.14708
  71	1	6	0.367145	-9.77392	6.38486	-5.35517
  72	1	5	-0.590269	-8.02592	7.19101	-7.81281
  73	1	1	-0.041892	-4.30907	5.57607	-0.893794
  74	1	2	0.591489	-5.55174	6.06843	-1.61121
  75	1	3	0.048074	-4.05042	4.57573	-1.25796
  76	1	4	-0.651929	-6.26763	5.08967	-2.25361
  77	1	3	0.049056	-3.47651	6.2463	-1.13643
  78	1	5	-0.529683	-5.83	7.24535	-1.68126
  79	1	2	0.758009	-7.35087	5.09532	-3.08724
  80	1	6	0.367145	-5.93752	4.15056	-2.13214
  81	1	5	-0.590269	-7.7609	4.00202	-3.41303
  82	1	1	-0.041892	-1.40934	4.03845	2.26836
  83	1	2	0.591489	-2.26306	4.49912	1.10673
  84	1	3	0.048074	-0.383673	3.89793	1.90747
  85	1	4	-0.651929	-3.48805	5.03615	1.41292
  86	1	3	0.049056	-1.36137	4.80196	3.04962
  87	1	5	-0.529683	-1.87497	4.39271	-0.036116
  88	1	2	0.758009	-4.4876	5.53388	0.618464
  89	1	6	0.367145	-3.72947	5.0851	2.39728
  90	1	5	-0.590269	-5.53541	5.79364	1.16928
  91	1	1	-0.041892	-3.78957	3.14815	6.04714
  92	1	2	0.591489	-3.28424	3.58209	4.68593
  93	1	3	0.048074	-4.48763	2.31071	5.9621
  94	1	4	-0.651929	-2.65197	2.62868	3.93546
  95	1	3	0.049056	-4.35164	3.97953	6.48885
  96	1	5	-0.529683	-3.44219	4.71005	4.26741
  97	1	2	0.758009	-1.91191	2.70052	2.78847
  98	1	6	0.367145	-2.73735	1.67084	4.26075
  99	1	5	-0.590269	-1.45588	1.65399	2.38693
 100	1	1	-0.041892	-1.80184	-0.87652	7.05985
 101	1	2	0.591489	-2.43074	0.3802	6.4989
 102	1	3	0.048074	-2.60487	-1.5946	7.26021
 103	1	4	-0.651929	-2.13592	1.55942	7.13174
 104	1	3	0.049056	-1.32122	-0.687699	8.02121
 105	1	5	-0.529683	-3.16804	0.352961	5.53816
 106	1	2	0.758009	-2.61002	2.83514	6.96196
 107	1	6	0.367145	-1.42733	1.52521	7.84887
 108	1	5	-0.590269	-2.09063	3.69146	7.64082
 109	1	1	-0.041892	2.74843	-1.58957	7.10921
 110	1	2	0.591489	1.33553	-1.03939	7.12778
 111	1	3	0.048074	2.85849	-2.21599	7.99379
 112	1	4	-0.651929	0.472385	-1.60349	6.22533
 113	1	3	0.049056	2.90607	-2.22868	6.23271
 114	1	5	-0.529683	0.97322	-0.201232	7.92633
 115	1	2	0.758009	-0.873752	-1.49216	6.02098
 116	1	6	0.367145	0.875697	-2.21467	5.53716
 117	1	5	-0.590269	-1.30421	-2.15634	5.10592
 118	1	1	-0.041892	6.96712	-1.12553	8.94651
 119	1	2	0.591489	5.49474	-1.31039	8.63511
 120	1	3	0.048074	7.55286	-1.06595	8.02229
 121	1	4	-0.651929	4.97193	-0.510541	7.65069
 122	1	3	0.049056	7.28984	-2.01188	9.50218
 123	1	5	-0.529683	4.84391	-2.1604	9.20151
 124	1	2	0.758009	3.74678	-0.441613	7.04614
 125	1	6	0.367145	5.55659	0.241899	7.33561
 126	1	5	-0.590269	3.6546	0.404051	6.18274
 127	1	1	-0.041892	10.6028	0.0281788	11.4638
 128	1	2	0.591489	9.53019	-0.48146	10.523
 129	1	3	0.048074	11.3982	-0.710703	11.5938
 130	1	4	-0.651929	8.38986	0.281118	10.4635
 131	1	3	0.049056	10.1588	0.189109	12.4532
 132	1	5	-0.529683	9.66132	-1.48801	9.85926
 133	1	2	0.758009	7.21236	0.114435	9.79004
 134	1	6	0.367145	8.40747	1.15428	10.971
 135	1	5	-0.590269	6.46734	1.06969	9.76919
 136	1	1	-0.041892	14.1369	1.17155	8.71073
 137	1	2	0.591489	13.0741	0.567091	9.60532
 138	1	3	0.048074	13.6892	1.99355	8.14061
 139	1	4	-0.651929	12.2275	1.48507	10.1701
 140	1	3	0.049056	14.9459	1.60345	9.30708
 141	1	5	-0.529683	12.9241	-0.625446	9.74729
 142	1	2	0.758009	11.1207	1.36184	10.9575
 143	1	6	0.367145	12.4039	2.44575	9.94267
 144	1	5	-0.590269	10.4764	2.37546	11.1301
 145	1	1	-0.041892	17.5724	-1.85213	9.0028
 146	1	2	0.591489	16.4003	-0.904596	9.16772
 147	1	3	0.048074	18.3718	-1.32874	8.46516
 148	1	4	-0.651929	15.6933	-0.68864	8.01168
 149	1	3	0.049056	17.2612	-2.70035	8.38215
 150	1	5	-0.529683	16.15	-0.318214	10.1978
 151	1	2	0.758009	14.6532	0.147206	7.71481
 152	1	6	0.367145	15.9426	-1.252	7.21259
 153	1	5	-0.590269	14.3653	0.231015	6.53728
 154	1	1	-0.041892	18.7321	-5.99436	11.0285
 155	1	2	0.591489	18.7598	-4.51956	11.3537
 156	1	3	0.048074	19.5135	-6.51636	11.5935
 157	1	4	-0.651929	18.1571	-3.71228	10.4225
 158	1	3	0.049056	18.924	-6.14888	9.9603
 159	1	5	-0.529683	19.2925	-4.11839	12.3639
 160	1	2	0.758009	18.1292	-2.34205	10.3288
 161	1	6	0.367145	17.6399	-4.19755	9.71096
 162	1	5	-0.590269	18.8597	-1.64013	10.994
 163	1	1	-0.041892	14.8195	-7.76315	12.6234
 164	1	2	0.591489	16.245	-7.92068	13.1193
 165	1	3	0.048074	14.146	-8.04647	13.4396
 166	1	4	-0.651929	17.2887	-7.27597	12.5166
 167	1	3	0.049056	14.6088	-6.71912	12.3679
 168	1	5	-0.529683	16.5085	-8.55946	14.1144
 169	1	2	0.758009	17.3657	-6.529	11.374
 170	1	6	0.367145	18.1447	-7.40812	13.0252
 171	1	5	-0.590269	16.4183	-6.31887	10.6458
 172	1	1	-0.041892	10.9326	-8.27232	10.2731
 173	1	2	0.591489	12.1077	-8.09385	11.2229
 174	1	3	0.048074	10.9342	-7.46048	9.54215
 175	1	4	-0.651929	13.2944	-8.69963	10.8783
 176	1	3	0.049056	9.99617	-8.21463	10.8398
 177	1	5	-0.529683	11.9993	-7.43082	12.2311
 178	1	2	0.758009	14.5411	-8.65892	11.4307
 179	1	6	0.367145	13.2851	-9.32831	10.0975
 180	1	5	-0.590269	15.3818	-9.34182	10.88
 181	1	1	-0.041892	13.1159	-10.2902	6.50202
 182	1	2	0.591489	12.2032	-10.6428	7.65626
 183	1	3	0.048074	14.0446	-9.85453	6.88968
 184	1	4	-0.651929	11.7989	-9.59141	8.44237
 185	1	3	0.049056	13.3656	-11.1965	5.93728
 186	1	5	-0.529683	11.777	-11.7686	7.77294
 187	1	2	0.758009	10.9893	-9.5988	9.55293
 188	1	6	0.367145	12.0849	-8.66881	8.14668
 189	1	5	-0.590269	10.6198	-10.6194	10.0877
 190	1	1	-0.041892	10.1567	-7.40572	4.59972
 191	1	2	0.591489	10.0643	-8.90375	4.83195
 192	1	3	0.048074	9.37763	-7.13072	3.87968
 193	1	4	-0.651929	11.1316	-9.64339	5.25904
 194	1	3	0.049056	11.1121	-7.11359	4.15387
 195	1	5	-0.529683	9.00901	-9.48243	4.71541
 196	1	2	0.758009	12.4129	-9.29989	5.60188
 197	1	6	0.367145	10.8583	-10.5927	5.46645
 198	1	5	-0.590269	12.8307	-8.16755	5.47721
 199	1	1	-0.041892	9.27246	-4.61165	8.174
 200	1	2	0.591489	8.82584	-4.55862	6.71964
 201	1	3	0.048074	8.95364	-5.56437	8.61203
 202	1	4	-0.651929	9.20584	-5.50455	5.80113
 203	1	3	0.049056	8.76018	-3.81527	8.72305
 204	1	5	-0.529683	8.15494	-3.64017	6.30334
 205	1	2	0.758009	9.92358	-6.67135	5.90756
 206	1	6	0.367145	8.85262	-5.28702	4.88461
 207	1	5	-0.590269	10.3554	-7.06786	6.97243
 208	1	1	-0.041892	13.2883	-4.06276	5.63097
 209	1	2	0.591489	12.8623	-4.12217	7.08054
 210	1	3	0.048074	12.4498	-4.23682	4.9491
 211	1	4	-0.651929	11.5082	-4.05799	7.28523
 212	1	3	0.049056	14.0066	-4.8703	5.4513
 213	1	5	-0.529683	13.6734	-4.34185	7.95345
 214	1	2	0.758009	10.7729	-4.44109	8.38363
 215	1	6	0.367145	10.9785	-3.70511	6.50132
 216	1	5	-0.590269	11.2925	-4.96661	9.34549
 217	1	1	-0.041892	11.6139	-0.0680501	4.14908
 218	1	2	0.591489	11.9315	-1.42887	4.73404
 219	1	3	0.048074	12.2634	0.69787	4.58716
 220	1	4	-0.651929	13.2709	-1.69272	4.83667
 221	1	3	0.049056	11.8341	-0.0893547	3.07522
 222	1	5	-0.529683	11.0849	-2.23033	5.08198
 223	1	2	0.758009	13.9714	-2.73976	5.36146
 224	1	6	0.367145	13.8815	-0.903347	4.68464
 225	1	5	-0.590269	15.1713	-2.59118	5.48953
 226	1	1	-0.041892	9.78467	2.69579	7.23466
 227	1	2	0.591489	10.4005	1.51884	6.48735
 228	1	3	0.048074	10.3655	3.60159	7.02206
 229	1	4	-0.651929	9.79199	1.17958	5.30998
 230	1	3	0.049056	8.74796	2.86421	6.92014
 231	1	5	-0.529683	11.3602	0.915409	6.91732
 232	1	2	0.758009	10.1484	0.29066	4.33646
 233	1	6	0.367145	8.91396	1.61931	5.10094
 234	1	5	-0.590269	9.35923	0.17405	3.42487
 235	1	7	0	-25.4198	3.13079	-28.3853
 236	1	3	0	9.79814	2.50801	8.31487

Velocities

   1	-0.000583476	0.000506358	-0.000450224
   2	-0.000263164	0.000279867	-0.000697382
   3	-0.000114779	0.0015129	-0.000463159
   4	-0.000876977	-0.000265156	-0.000372759
   5	-0.00180688	0.000655583	-0.000316886
   6	0.000319678	0.000285191	-0.000753185
   7	-0.000261474	-0.000748974	-0.000452939
   8	-0.00170023	-0.000331566	-0.000220362
   9	-0.000276769	-0.00129707	0.000256525
  10	-0.000339935	0.000292133	0.000541135
  11	-0.000147466	7.92245e-05	0.000437005
  12	-0.000417559	0.000565229	0.000636794
  13	6.1211e-05	-0.000261395	9.26971e-06
  14	-0.00042558	-5.86062e-05	0.00057445
  15	-0.000278004	0.000302113	0.000855192
  16	-7.48452e-05	-0.000484423	-0.000449887
  17	0.000151723	-0.000306153	-5.7598e-05
  18	3.00934e-05	-0.000843173	-0.000607542
  19	0.000853628	0.00014932	4.16037e-05
  20	0.000370349	0.000307077	0.000508771
  21	0.00106483	-0.00059679	2.1851e-05
  22	0.000580589	0.000455727	0.000491964
  23	0.00141309	0.00045834	-0.000207843
  24	-0.000183113	0.000134501	0.000850794
  25	0.000297057	0.000489068	0.000529348
  26	0.00100387	0.000534168	0.000346056
  27	0.000998042	0.00061713	0.000399548
  28	0.000115339	-0.000268241	0.000722306
  29	7.8226e-05	0.000408399	0.0001391
  30	-0.000327328	-0.000451793	0.0012986
  31	0.00028596	0.000375125	0.000115271
  32	0.000833479	-0.000621811	0.000776261
  33	-6.75371e-05	0.000743175	-0.000219214
  34	0.000610957	0.000253475	0.000298782
  35	0.000280794	0.000460056	-0.000313076
  36	0.000671063	0.000550894	0.000354095
  37	0.000458592	-8.5904e-05	8.58393e-05
  38	-0.000139421	5.01165e-06	0.000177749
  39	0.00134491	0.000117395	0.000274186
  40	-0.000686376	-7.2238e-05	0.000401999
  41	4.15811e-05	0.000342974	0.000267146
  42	-0.000428931	-2.04762e-05	0.000154321
  43	-1.52356e-05	-4.01501e-05	0.000540895
  44	-0.00170404	-0.000197309	0.000520314
  45	0.00106625	0.000174448	0.000354242
  46	0.000256879	0.000182649	-0.000259988
  47	0.000325934	-0.000302872	-0.000255927
  48	0.000536882	0.000300336	-0.000361982
  49	0.000335686	-0.00136379	-0.000414402
  50	-1.04705e-05	0.00026866	-0.000166533
  51	0.000337911	0.00052157	-0.000103424
  52	0.000369675	-0.00107676	-0.000392207
  53	0.00028198	-0.00188209	-0.000529771
  54	0.000444251	0.000237247	-0.000461957
  55	-0.000238942	0.000238943	6.37722e-05
  56	-0.000354415	0.000108886	0.000424637
  57	3.51437e-07	1.91607e-05	-0.00019964
  58	-0.000147936	0.000204025	0.000152816
  59	-0.000259067	0.000625529	-5.52219e-05
  60	-0.000720407	-5.64253e-05	0.0010127
  61	0.000159373	0.000376986	-0.000287826
  62	-0.000295044	0.000116495	0.000372407
  63	0.000326033	0.000547667	-0.00069667
  64	-0.000136031	8.50646e-05	8.64395e-05
  65	-0.000220163	-0.000436094	-2.83102e-05
  66	0.000449173	0.000108097	-0.000215956
  67	-0.000320398	2.9835e-05	0.000107657
  68	-0.000212406	0.000763397	0.000321363
  69	-0.000166949	-0.00109025	-0.000230286
  70	-0.000298789	8.14303e-05	0.000118285
  71	-0.00037371	0.000340949	0.000178195
  72	-0.000242332	-0.000157632	7.16289e-05
  73	0.000145792	-0.000572792	-0.000505717
  74	-4.57128e-05	-0.000700361	-0.000297359
  75	0.000456733	-0.000446094	-0.000640371
  76	-0.0004818	-0.000588008	2.07626e-05
  77	-7.71641e-05	-0.000275284	-0.000473379
  78	-1.64883e-05	-0.000691169	-0.000154832
  79	-0.000747564	-0.000238435	0.000318037
  80	-0.000717744	-0.000675142	-1.46995e-05
  81	-0.00131017	-7.04921e-05	0.000464791
  82	0.000292866	0.000371782	-0.000109409
  83	0.000550574	0.000312308	-0.000301296
  84	0.000368317	0.000218845	0.000146543
  85	0.00035272	-8.89464e-05	-0.000398097
  86	0.000144109	0.000449166	-0.000170465
  87	0.000745738	0.000394323	-0.000240064
  88	0.000215704	-0.000566884	-0.000499869
  89	0.000321253	2.56018e-06	-0.00042849
  90	0.000213158	-0.000629457	-0.00045275
  91	0.000507068	8.87675e-05	0.000134261
  92	0.000462422	0.000455166	0.000218702
  93	0.000494919	0.000115747	-0.000139071
  94	7.91364e-05	0.000504836	-0.000136725
  95	0.000546244	-1.75696e-05	0.00037017
  96	0.00055763	0.000572465	0.000420624
  97	-0.000101691	0.000486793	-0.000255258
  98	-0.000154037	0.000449917	-0.000346376
  99	-0.00073787	0.00037711	-0.000643785
 100	-0.000408555	-0.000490856	-0.000340214
 101	0.000408548	-0.000240484	-0.00075726
 102	-0.000856031	-3.10421e-05	-0.000466853
 103	0.000422764	-0.0004004	-0.000390403
 104	-0.000545078	-0.000692815	-0.000228943
 105	0.000731972	5.59741e-05	-0.000953259
 106	0.000419992	-0.00035582	0.0001237
 107	0.00023852	-0.0007344	-0.000210754
 108	-0.000430788	-0.000890264	0.00149001
 109	-0.000757908	0.00120746	0.00049464
 110	-0.000527442	0.00171648	-0.000840803
 111	-0.00160235	0.00207168	0.00122248
 112	-0.000233817	0.000459767	-0.000275995
 113	-0.000479143	0.000326056	0.00117512
 114	-0.000987705	0.00222576	-0.00147453
 115	-0.000406394	-0.00113358	4.60755e-05
 116	0.000123079	-4.25676e-06	0.000304639
 117	-0.00021087	-0.00335577	0.00163123
 118	-9.04083e-05	-0.000778273	-0.000736208
 119	-0.000191524	-0.000692307	-0.000433801
 120	-0.000358201	-0.000913853	-0.000890519
 121	-0.000290333	0.000113252	0.00021678
 122	-1.60728e-05	-0.000712224	-0.000699458
 123	0.000101416	-0.00138901	-0.00125695
 124	-0.000131599	0.000563405	0.000100536
 125	-0.000191673	0.000212219	0.000622587
 126	0.00055763	0.000198793	-0.00037324
 127	0.00023708	-0.00106594	-0.00097048
 128	0.000332916	-0.00057158	-0.00142249
 129	0.000344253	-0.00109368	-0.00121124
 130	0.000410603	-0.000329644	-0.00150126
 131	8.20471e-05	-0.00154461	-0.000946575
 132	0.000354144	-0.000407653	-0.00152379
 133	0.000219147	-0.000525877	-0.00116013
 134	0.000360699	-0.000358262	-0.00143932
 135	0.000109967	-0.000582257	-0.00113329
 136	0.000351671	0.00079003	-0.000352252
 137	-0.000746124	-0.000333183	-0.00228061
 138	0.00137959	0.00201758	0.000603379
 139	-0.000451073	-0.000617677	-0.00134949
 140	-0.000157028	-0.000591919	0.00137713
 141	-0.00111059	-0.000377363	-0.00364814
 142	0.000420343	-0.00102381	-0.000205601
 143	-0.000370262	-0.000557573	-0.000642978
 144	0.00175249	-0.000531071	0.00264835
 145	-0.00150133	-0.0010794	-0.00135892
 146	-0.00127231	-0.000915989	-0.00109475
 147	-0.00149005	-0.000920902	-0.00120371
 148	3.06996e-05	0.000993976	-0.00147084
 149	-0.00147868	-0.000970149	-0.00149549
 150	-0.00190522	-0.00223976	-0.000459882
 151	0.00103807	0.00230002	-0.00143514
 152	0.000404705	0.0017299	-0.00181598
 153	0.00220233	0.00395546	-0.00168686
 154	-0.000188075	-0.000289431	0.000652662
 155	-0.000534227	1.93336e-05	-0.000664479
 156	-0.000573629	0.00046158	0.00187681
 157	-0.00178826	-0.00079224	-0.000547222
 158	0.000602279	-0.00135674	0.000962025
 159	0.000918191	0.00100416	-0.0018522
 160	-0.00135524	-0.000847414	-0.00141905
 161	-0.00293421	-0.00126892	0.00051758
 162	-0.000495444	-0.000821933	-0.00241088
 163	-2.75944e-05	0.000689491	0.0013879
 164	3.66272e-07	0.000207774	0.000917862
 165	-7.22737e-05	0.000898628	0.00145088
 166	-4.65679e-05	-0.000428391	0.000272338
 167	0.000173864	0.000761902	0.00132784
 168	0.000326653	-0.000359386	0.000530375
 169	-0.000268612	-7.78214e-05	0.000459771
 170	0.000295829	-0.00146678	-0.000615677
 171	-0.000606119	0.00138389	0.00121381
 172	0.000523807	0.000383473	0.000429832
 173	0.000142372	0.000514364	0.000852394
 174	0.000931215	0.000153329	0.000267439
 175	0.000385318	0.000991589	0.000808849
 176	0.000225165	0.000441334	-0.00012408
 177	-0.000377248	-0.000335033	0.00132493
 178	5.50377e-05	0.000734144	0.00138073
 179	0.000804871	0.00151359	0.000431099
 180	0.000150505	0.000552443	0.0016859
 181	-0.000712825	0.00155348	-0.000881153
 182	0.000495463	0.000977363	-0.000207811
 183	-0.000335012	0.00155442	-0.00177996
 184	0.000859626	0.000707238	0.000372971
 185	-0.00119403	0.00184041	-0.00159136
 186	0.00101214	0.000859888	-0.000149116
 187	0.000946343	0.000500494	0.000389435
 188	0.000686456	0.000822331	0.000465897
 189	0.000420395	0.000416485	-0.000118504
 190	-0.00167936	0.000344167	-9.81388e-05
 191	-0.00131888	0.000168127	-0.00173274
 192	-0.00128902	0.00110643	-0.000308538
 193	-0.00135714	0.00073572	-0.000494788
 194	-0.00147401	0.00087773	0.000620535
 195	-0.000692418	-0.00045296	-0.00463455
 196	-0.00184179	0.00171175	0.000400922
 197	-0.000812029	0.000424101	-0.00121668
 198	-0.00251812	0.00206877	0.00120574
 199	0.00166363	0.000480097	0.000147748
 200	0.00138306	0.000602119	0.00032309
 201	0.00154799	0.000487662	0.00014372
 202	-0.000909869	-0.000569891	0.000838099
 203	0.00191302	0.000466109	0.000379582
 204	0.00279386	0.00151781	9.71112e-05
 205	-0.00189656	-0.00105088	0.000610496
 206	-0.00148591	-0.000854617	0.00101697
 207	-0.00113628	-0.00112898	0.000216103
 208	0.0018577	-0.00102529	0.000697732
 209	0.00175247	-0.000856693	0.000548082
 210	0.00198445	-0.00150704	0.000626164
 211	0.00176847	0.000799676	0.000468155
 212	0.00234565	-0.000727685	0.00113307
 213	0.00157021	-0.00181235	0.000471156
 214	0.00174851	-0.000339357	7.70464e-05
 215	0.00204305	0.00222468	0.000866867
 216	0.00185328	-0.00253512	-0.00116402
 217	-0.000318201	-0.00120094	0.00124599
 218	-0.00045096	-0.00103042	0.00186454
 219	-0.000161504	-0.000995095	0.000492612
 220	-0.000356309	0.000677888	0.00505052
 221	2.11927e-05	-0.00236179	0.00117995
 222	-0.000401086	-0.00310861	-0.00269943
 223	0.00096137	-0.000512475	0.00150964
 224	-0.00100407	0.00205562	0.00879946
 225	0.000821612	0.000439974	0.0022416
 226	-0.00149355	-0.00049823	0.000920445
 227	5.87782e-06	0.000603814	0.000278368
 228	-0.00278091	0.000295716	0.00103738
 229	-0.000478542	-0.000367139	0.000608519
 230	-0.00194875	-0.00188554	0.00143917
 231	0.0014988	0.00232133	-0.000396163
 232	-0.000121882	0.000165888	0.000195259
 233	-0.000495084	-0.000648826	0.000680256
 234	0.000245383	0.00139421	-0.000381061
 235	0.00182027	-0.000720674	-0.000513781
 236	-0.000813948	-0.0008442	0.000728712

Bonds

   1	3	1	2
   2	4	1	3
   3	4	1	5
   4	2	2	4
   5	5	2	6
   6	2	4	7
   7	6	4	8
   8	5	7	9
   9	3	10	11
  10	4	10	12
  11	4	10	14
  12	2	11	13
  13	5	11	15
  14	2	13	16
  15	6	13	17
  16	5	16	18
  17	3	1	16
  18	3	19	20
  19	4	19	21
  20	4	19	23
  21	2	20	22
  22	5	20	24
  23	2	22	25
  24	6	22	26
  25	5	25	27
  26	3	10	25
  27	3	28	29
  28	4	28	30
  29	4	28	32
  30	2	29	31
  31	5	29	33
  32	2	31	34
  33	6	31	35
  34	5	34	36
  35	3	19	34
  36	3	37	38
  37	4	37	39
  38	4	37	41
  39	2	38	40
  40	5	38	42
  41	2	40	43
  42	6	40	44
  43	5	43	45
  44	3	28	43
  45	3	46	47
  46	4	46	48
  47	4	46	50
  48	2	47	49
  49	5	47	51
  50	2	49	52
  51	6	49	53
  52	5	52	54
  53	3	37	52
  54	3	55	56
  55	4	55	57
  56	4	55	59
  57	2	56	58
  58	5	56	60
  59	2	58	61
  60	6	58	62
  61	5	61	63
  62	3	46	61
  63	3	64	65
  64	4	64	66
  65	4	64	68
  66	2	65	67
  67	5	65	69
  68	2	67	70
  69	6	67	71
  70	5	70	72
  71	3	55	70
  72	3	73	74
  73	4	73	75
  74	4	73	77
  75	2	74	76
  76	5	74	78
  77	2	76	79
  78	6	76	80
  79	5	79	81
  80	3	64	79
  81	3	82	83
  82	4	82	84
  83	4	82	86
  84	2	83	85
  85	5	83	87
  86	2	85	88
  87	6	85	89
  88	5	88	90
  89	3	73	88
  90	3	91	92
  91	4	91	93
  92	4	91	95
  93	2	92	94
  94	5	92	96
  95	2	94	97
  96	6	94	98
  97	5	97	99
  98	3	82	97
  99	3	100	101
 100	4	100	102
 101	4	100	104
 102	2	101	103
 103	5	101	105
 104	2	103	106
 105	6	103	107
 106	5	106	108
 107	3	91	106
 108	3	109	110
 109	4	109	111
 110	4	109	113
 111	2	110	112
 112	5	110	114
 113	2	112	115
 114	6	112	116
 115	5	115	117
 116	3	100	115
 117	3	118	119
 118	4	118	120
 119	4	118	122
 120	2	119	121
 121	5	119	123
 122	2	121	124
 123	6	121	125
 124	5	124	126
 125	3	109	124
 126	3	127	128
 127	4	127	129
 128	4	127	131
 129	2	128	130
 130	5	128	132
 131	2	130	133
 132	6	130	134
 133	5	133	135
 134	3	118	133
 135	3	136	137
 136	4	136	138
 137	4	136	140
 138	2	137	139
 139	5	137	141
 140	2	139	142
 141	6	139	143
 142	5	142	144
 143	3	127	142
 144	3	145	146
 145	4	145	147
 146	4	145	149
 147	2	146	148
 148	5	146	150
 149	2	148	151
 150	6	148	152
 151	5	151	153
 152	3	136	151
 153	3	154	155
 154	4	154	156
 155	4	154	158
 156	2	155	157
 157	5	155	159
 158	2	157	160
 159	6	157	161
 160	5	160	162
 161	3	145	160
 162	3	163	164
 163	4	163	165
 164	4	163	167
 165	2	164	166
 166	5	164	168
 167	2	166	169
 168	6	166	170
 169	5	169	171
 170	3	154	169
 171	3	172	173
 172	4	172	174
 173	4	172	176
 174	2	173	175
 175	5	173	177
 176	2	175	178
 177	6	175	179
 178	5	178	180
 179	3	163	178
 180	3	181	182
 181	4	181	183
 182	4	181	185
 183	2	182	184
 184	5	182	186
 185	2	184	187
 186	6	184	188
 187	5	187	189
 188	3	172	187
 189	3	190	191
 190	4	190	192
 191	4	190	194
 192	2	191	193
 193	5	191	195
 194	2	193	196
 195	6	193	197
 196	5	196	198
 197	3	181	196
 198	3	199	200
 199	4	199	201
 200	4	199	203
 201	2	200	202
 202	5	200	204
 203	2	202	205
 204	6	202	206
 205	5	205	207
 206	3	190	205
 207	3	208	209
 208	4	208	210
 209	4	208	212
 210	2	209	211
 211	5	209	213
 212	2	211	214
 213	6	211	215
 214	5	214	216
 215	3	199	214
 216	3	217	218
 217	4	217	219
 218	4	217	221
 219	2	218	220
 220	5	218	222
 221	2	220	223
 222	6	220	224
 223	5	223	225
 224	3	208	223
 225	3	226	227
 226	4	226	228
 227	4	226	230
 228	2	227	229
 229	5	227	231
 230	2	229	232
 231	6	229	233
 232	5	232	234
 233	3	217	232
 234	1	7	235
 235	4	226	236

Angles

   1	7	2	1	3
   2	7	2	1	5
   3	4	3	1	5
   4	8	1	2	4
   5	6	1	2	6
   6	2	4	2	6
   7	5	2	4	7
   8	1	2	4	8
   9	1	7	4	8
  10	2	4	7	9
  11	7	11	10	12
  12	7	11	10	14
  13	4	12	10	14
  14	8	10	11	13
  15	6	10	11	15
  16	2	13	11	15
  17	5	11	13	16
  18	1	11	13	17
  19	1	16	13	17
  20	2	13	16	18
  21	10	2	1	16
  22	7	3	1	16
  23	7	5	1	16
  24	8	1	16	13
  25	6	1	16	18
  26	7	20	19	21
  27	7	20	19	23
  28	4	21	19	23
  29	8	19	20	22
  30	6	19	20	24
  31	2	22	20	24
  32	5	20	22	25
  33	1	20	22	26
  34	1	25	22	26
  35	2	22	25	27
  36	10	11	10	25
  37	7	12	10	25
  38	7	14	10	25
  39	8	10	25	22
  40	6	10	25	27
  41	7	29	28	30
  42	7	29	28	32
  43	4	30	28	32
  44	8	28	29	31
  45	6	28	29	33
  46	2	31	29	33
  47	5	29	31	34
  48	1	29	31	35
  49	1	34	31	35
  50	2	31	34	36
  51	10	20	19	34
  52	7	21	19	34
  53	7	23	19	34
  54	8	19	34	31
  55	6	19	34	36
  56	7	38	37	39
  57	7	38	37	41
  58	4	39	37	41
  59	8	37	38	40
  60	6	37	38	42
  61	2	40	38	42
  62	5	38	40	43
  63	1	38	40	44
  64	1	43	40	44
  65	2	40	43	45
  66	10	29	28	43
  67	7	30	28	43
  68	7	32	28	43
  69	8	28	43	40
  70	6	28	43	45
  71	7	47	46	48
  72	7	47	46	50
  73	4	48	46	50
  74	8	46	47	49
  75	6	46	47	51
  76	2	49	47	51
  77	5	47	49	52
  78	1	47	49	53
  79	1	52	49	53
  80	2	49	52	54
  81	10	38	37	52
  82	7	39	37	52
  83	7	41	37	52
  84	8	37	52	49
  85	6	37	52	54
  86	7	56	55	57
  87	7	56	55	59
  88	4	57	55	59
  89	8	55	56	58
  90	6	55	56	60
  91	2	58	56	60
  92	5	56	58	61
  93	1	56	58	62
  94	1	61	58	62
  95	2	58	61	63
  96	10	47	46	61
  97	7	48	46	61
  98	7	50	46	61
  99	8	46	61	58
 100	6	46	61	63
 101	7	65	64	66
 102	7	65	64	68
 103	4	66	64	68
 104	8	64	65	67
 105	6	64	65	69
 106	2	67	65	69
 107	5	65	67	70
 108	1	65	67	71
 109	1	70	67	71
 110	2	67	70	72
 111	10	56	55	70
 112	7	57	55	70
 113	7	59	55	70
 114	8	55	70	67
 115	6	55	70	72
 116	7	74	73	75
 117	7	74	73	77
 118	4	75	73	77
 119	8	73	74	76
 120	6	73	74	78
 121	2	76	74	78
 122	5	74	76	79
 123	1	74	76	80
 124	1	79	76	80
 125	2	76	79	81
 126	10	65	64	79
 127	7	66	64	79
 128	7	68	64	79
 129	8	64	79	76
 130	6	64	79	81
 131	7	83	82	84
 132	7	83	82	86
 133	4	84	82	86
 134	8	82	83	85
 135	6	82	83	87
 136	2	85	83	87
 137	5	83	85	88
 138	1	83	85	89
 139	1	88	85	89
 140	2	85	88	90
 141	10	74	73	88
 142	7	75	73	88
 143	7	77	73	88
 144	8	73	88	85
 145	6	73	88	90
 146	7	92	91	93
 147	7	92	91	95
 148	4	93	91	95
 149	8	91	92	94
 150	6	91	92	96
 151	2	94	92	96
 152	5	92	94	97
 153	1	92	94	98
 154	1	97	94	98
 155	2	94	97	99
 156	10	83	82	97
 157	7	84	82	97
 158	7	86	82	97
 159	8	82	97	94
 160	6	82	97	99
 161	7	101	100	102
 162	7	101	100	104
 163	4	102	100	104
 164	8	100	101	103
 165	6	100	101	105
 166	2	103	101	105
 167	5	101	103	106
 168	1	101	103	107
 169	1	106	103	107
 170	2	103	106	108
 171	10	92	91	106
 172	7	93	91	106
 173	7	95	91	106
 174	8	91	106	103
 175	6	91	106	108
 176	7	110	109	111
 177	7	110	109	113
 178	4	111	109	113
 179	8	109	110	112
 180	6	109	110	114
 181	2	112	110	114
 182	5	110	112	115
 183	1	110	112	116
 184	1	115	112	116
 185	2	112	115	117
 186	10	101	100	115
 187	7	102	100	115
 188	7	104	100	115
 189	8	100	115	112
 190	6	100	115	117
 191	7	119	118	120
 192	7	119	118	122
 193	4	120	118	122
 194	8	118	119	121
 195	6	118	119	123
 196	2	121	119	123
 197	5	119	121	124
 198	1	119	121	125
 199	1	124	121	125
 200	2	121	124	126
 201	10	110	109	124
 202	7	111	109	124
 203	7	113	109	124
 204	8	109	124	121
 205	6	109	124	126
 206	7	128	127	129
 207	7	128	127	131
 208	4	129	127	131
 209	8	127	128	130
 210	6	127	128	132
 211	2	130	128	132
 212	5	128	130	133
 213	1	128	130	134
 214	1	133	130	134
 215	2	130	133	135
 216	10	119	118	133
 217	7	120	118	133
 218	7	122	118	133
 219	8	118	133	130
 220	6	118	133	135
 221	7	137	136	138
 222	7	137	136	140
 223	4	138	136	140
 224	8	136	137	139
 225	6	136	137	141
 226	2	139	137	141
 227	5	137	139	142
 228	1	137	139	143
 229	1	142	139	143
 230	2	139	142	144
 231	10	128	127	142
 232	7	129	127	142
 233	7	131	127	142
 234	8	127	142	139
 235	6	127	142	144
 236	7	146	145	147
 237	7	146	145	149
 238	4	147	145	149
 239	8	145	146	148
 240	6	145	146	150
 241	2	148	146	150
 242	5	146	148	151
 243	1	146	148	152
 244	1	151	148	152
 245	2	148	151	153
 246	10	137	136	151
 247	7	138	136	151
 248	7	140	136	151
 249	8	136	151	148
 250	6	136	151	153
 251	7	155	154	156
 252	7	155	154	158
 253	4	156	154	158
 254	8	154	155	157
 255	6	154	155	159
 256	2	157	155	159
 257	5	155	157	160
 258	1	155	157	161
 259	1	160	157	161
 260	2	157	160	162
 261	10	146	145	160
 262	7	147	145	160
 263	7	149	145	160
 264	8	145	160	157
 265	6	145	160	162
 266	7	164	163	165
 267	7	164	163	167
 268	4	165	163	167
 269	8	163	164	166
 270	6	163	164	168
 271	2	166	164	168
 272	5	164	166	169
 273	1	164	166	170
 274	1	169	166	170
 275	2	166	169	171
 276	10	155	154	169
 277	7	156	154	169
 278	7	158	154	169
 279	8	154	169	166
 280	6	154	169	171
 281	7	173	172	174
 282	7	173	172	176
 283	4	174	172	176
 284	8	172	173	175
 285	6	172	173	177
 286	2	175	173	177
 287	5	173	175	178
 288	1	173	175	179
 289	1	178	175	179
 290	2	175	178	180
 291	10	164	163	178
 292	7	165	163	178
 293	7	167	163	178
 294	8	163	178	175
 295	6	163	178	180
 296	7	182	181	183
 297	7	182	181	185
 298	4	183	181	185
 299	8	181	182	184
 300	6	181	182	186
 301	2	184	182	186
 302	5	182	184	187
 303	1	182	184	188
 304	1	187	184	188
 305	2	184	187	189
 306	10	173	172	187