pySIMM System Object

371 atoms
370 bonds
615 angles
814 dihedrals
82 impropers

7 atom types
6 bond types
10 angle types
4 dihedral types
2 improper types

-112.214704 112.214704 xlo xhi
-112.214704 112.214704 ylo yhi
-112.214704 112.214704 zlo zhi

Masses

   1	12.01	# c3
   2	12.01	# c
   3	1.008	# hc
   4	14.01	# n
   5	16.0	# o
   6	1.008	# hn
   7	1.008	# h5

Pair Coeffs

   1	0.1094	3.3996695084235347	# c3
   2	0.086	3.3996695084235347	# c
   3	0.0157	2.649532787749369	# hc
   4	0.17	3.249998523775958	# n
   5	0.21	2.959921901149463	# o
   6	0.0157	1.069078461768407	# hn
   7	0.015	2.421462715905442	# h5

Bond Coeffs

   1	319.7	1.1051	# c,h5
   2	427.6	1.3789	# c,n
   3	313.0	1.5241	# c,c3
   4	330.6	1.0969	# c3,hc
   5	637.7	1.2183	# c,o
   6	403.2	1.0129	# hn,n

Angle Coeffs

   1	48.33	117.55	# c,n,hn
   2	74.22	123.05	# n,c,o
   3	53.7	123.65	# h5,c,o
   4	39.4	107.58	# hc,c3,hc
   5	63.74	127.08	# c,n,c
   6	67.4	123.2	# c3,c,o
   7	46.93	108.77	# c,c3,hc
   8	66.79	115.18	# c3,c,n
   9	51.42	112.16	# h5,c,n
  10	63.38	111.63	# c,c3,c

Dihedral Coeffs

   1	3	0.8	1	0	0.0	2	0	0.08	3	180	# hc,c3,c,o
   2	1	2.5	2	180	# X,c,n,X
   3	2	2.5	2	180	2.0	1	0	# hn,n,c,o
   4	1	0.0	2	180	# X,c,c3,X

Improper Coeffs

   1	10.5	-1	2	# c,X,X,o
   2	1.1	-1	2	# n,X,X,hn

Atoms

   1	1	1	-0.041892	8.97726	-12.5721	6.25151
   2	1	2	0.591489	8.78061	-13.841	5.44645
   3	1	3	0.048074	8.82389	-11.7008	5.61082
   4	1	4	-0.651929	8.75471	-13.7128	4.09131
   5	1	3	0.049056	8.22083	-12.5401	7.04292
   6	1	5	-0.529683	8.70167	-14.9264	5.98213
   7	1	2	0.758009	8.71314	-14.7076	3.16652
   8	1	6	0.367145	8.85838	-12.7886	3.69339
   9	1	5	-0.590269	8.949	-14.4359	2.0062
  10	1	1	-0.041892	12.9979	-12.8419	8.49352
  11	1	2	0.591489	12.2696	-13.8994	7.66114
  12	1	3	0.048074	13.0859	-11.8942	7.95672
  13	1	4	-0.651929	11.0614	-13.6361	7.07802
  14	1	3	0.049056	12.4187	-12.6483	9.4033
  15	1	5	-0.529683	12.722	-15.0127	7.47431
  16	1	2	0.758009	10.3564	-12.4751	6.88914
  17	1	6	0.367145	10.6366	-14.4686	6.6826
  18	1	5	-0.590269	10.8313	-11.393	7.18071
  19	1	1	-0.041892	15.8322	-14.4421	5.64893
  20	1	2	0.591489	15.2584	-13.3811	6.56436
  21	1	3	0.048074	16.8401	-14.1511	5.33169
  22	1	4	-0.651929	15.2832	-13.6709	7.90099
  23	1	3	0.049056	15.887	-15.4115	6.15768
  24	1	5	-0.529683	14.6214	-12.4414	6.13663
  25	1	2	0.758009	14.3918	-13.3258	8.8805
  26	1	6	0.367145	15.9511	-14.3418	8.23624
  27	1	5	-0.590269	14.6395	-13.7361	9.99313
  28	1	1	-0.041892	12.3625	-14.079	2.77531
  29	1	2	0.591489	12.4902	-14.9861	3.98649
  30	1	3	0.048074	13.1929	-14.2091	2.07563
  31	1	4	-0.651929	13.6601	-15.0533	4.6942
  32	1	3	0.049056	11.4536	-14.3338	2.22566
  33	1	5	-0.529683	11.5224	-15.526	4.47531
  34	1	2	0.758009	14.9136	-14.5489	4.44672
  35	1	6	0.367145	13.5041	-15.4664	5.60623
  36	1	5	-0.590269	15.2114	-14.0681	3.37316
  37	1	1	-0.041892	12.9445	-9.96911	4.63801
  38	1	2	0.591489	13.6679	-10.6015	3.45994
  39	1	3	0.048074	12.7783	-10.7201	5.41604
  40	1	4	-0.651929	13.3144	-11.8414	3.00189
  41	1	3	0.049056	13.5776	-9.18708	5.0707
  42	1	5	-0.529683	14.6745	-10.1135	2.99504
  43	1	2	0.758009	12.251	-12.654	3.27852
  44	1	6	0.367145	14.0266	-12.2345	2.40655
  45	1	5	-0.590269	11.3416	-12.291	4.00055
  46	1	1	-0.041892	8.74855	-8.36426	3.8838
  47	1	2	0.591489	9.35138	-8.94338	5.14979
  48	1	3	0.048074	9.1369	-7.35021	3.73656
  49	1	4	-0.651929	10.6475	-9.3715	5.16683
  50	1	3	0.049056	9.02454	-8.94984	3.00169
  51	1	5	-0.529683	8.7084	-9.06644	6.17363
  52	1	2	0.758009	11.6331	-9.34665	4.21411
  53	1	6	0.367145	10.8842	-9.85383	6.02608
  54	1	5	-0.590269	11.4986	-8.75346	3.1653
  55	1	1	-0.041892	5.56436	-11.3915	2.59009
  56	1	2	0.591489	6.7233	-10.5886	3.15401
  57	1	3	0.048074	5.25006	-12.1257	3.34037
  58	1	4	-0.651929	6.43891	-9.30359	3.53939
  59	1	3	0.049056	4.69959	-10.7553	2.3732
  60	1	5	-0.529683	7.82249	-11.0772	3.31811
  61	1	2	0.758009	7.23991	-8.30463	4.02111
  62	1	6	0.367145	5.48654	-9.00039	3.42276
  63	1	5	-0.590269	6.68461	-7.34472	4.51903
  64	1	1	-0.041892	7.3458	-9.56791	-1.12518
  65	1	2	0.591489	6.41976	-10.0936	-0.0434068
  66	1	3	0.048074	8.04988	-10.3516	-1.4283
  67	1	4	-0.651929	6.50339	-11.4271	0.259649
  68	1	3	0.049056	6.78151	-9.28429	-2.01815
  69	1	5	-0.529683	5.6641	-9.37267	0.574332
  70	1	2	0.758009	6.01261	-12.1226	1.33202
  71	1	6	0.367145	7.02171	-12.0235	-0.362947
  72	1	5	-0.590269	6.09311	-13.3294	1.29824
  73	1	1	-0.041892	5.76926	-5.61498	0.279489
  74	1	2	0.591489	6.33271	-6.69713	-0.626036
  75	1	3	0.048074	6.50418	-5.34946	1.04721
  76	1	4	-0.651929	7.54587	-7.21174	-0.25242
  77	1	3	0.049056	5.56474	-4.70396	-0.289323
  78	1	5	-0.529683	5.71875	-7.16373	-1.5635
  79	1	2	0.758009	8.14564	-8.4036	-0.550467
  80	1	6	0.367145	8.07795	-6.68796	0.418739
  81	1	5	-0.590269	9.18158	-8.61562	0.037903
  82	1	1	-0.041892	2.02129	-6.75394	-1.77897
  83	1	2	0.591489	3.01285	-5.91726	-0.99856
  84	1	3	0.048074	2.22111	-6.66963	-2.84956
  85	1	4	-0.651929	3.40666	-6.41892	0.218207
  86	1	3	0.049056	2.1533	-7.81086	-1.5216
  87	1	5	-0.529683	3.44092	-4.86677	-1.42485
  88	1	2	0.758009	4.52277	-6.1614	0.969938
  89	1	6	0.367145	2.8416	-7.14715	0.61482
  90	1	5	-0.590269	4.6124	-6.76728	2.02568
  91	1	1	-0.041892	-0.683271	-3.3979	-3.40062
  92	1	2	0.591489	0.210974	-4.59854	-3.17408
  93	1	3	0.048074	-1.70342	-3.58665	-3.05421
  94	1	4	-0.651929	-0.0366534	-5.31017	-2.0314
  95	1	3	0.049056	-0.74272	-3.20136	-4.4776
  96	1	5	-0.529683	1.04015	-4.94858	-3.98351
  97	1	2	0.758009	0.614115	-6.33313	-1.40535
  98	1	6	0.367145	-0.824277	-4.98565	-1.48311
  99	1	5	-0.590269	0.0982718	-6.76295	-0.395726
 100	1	1	-0.041892	-0.944541	-1.88452	0.958328
 101	1	2	0.591489	-0.994111	-2.53648	-0.405361
 102	1	3	0.048074	-0.410443	-0.928245	0.938454
 103	1	4	-0.651929	-0.27624	-1.91793	-1.39473
 104	1	3	0.049056	-0.402692	-2.54751	1.64187
 105	1	5	-0.529683	-1.6345	-3.54952	-0.599637
 106	1	2	0.758009	-0.0783178	-2.18022	-2.72335
 107	1	6	0.367145	0.147953	-1.03879	-1.14493
 108	1	5	-0.590269	0.566269	-1.35872	-3.33746
 109	1	1	-0.041892	-4.11782	1.25808	-0.105927
 110	1	2	0.591489	-2.95717	0.301006	0.0739818
 111	1	3	0.048074	-5.06574	0.783188	0.167323
 112	1	4	-0.651929	-3.16277	-0.698408	0.98621
 113	1	3	0.049056	-3.9698	2.10842	0.567656
 114	1	5	-0.529683	-1.9454	0.370728	-0.590684
 115	1	2	0.758009	-2.36145	-1.69317	1.46636
 116	1	6	0.367145	-4.0383	-0.674726	1.47619
 117	1	5	-0.590269	-2.88127	-2.44429	2.26506
 118	1	1	-0.041892	-5.45082	-0.770699	-4.01928
 119	1	2	0.591489	-5.07676	-0.316311	-2.62445
 120	1	3	0.048074	-5.00923	-0.0953108	-4.76137
 121	1	4	-0.651929	-4.61381	0.970847	-2.55885
 122	1	3	0.049056	-6.53102	-0.69993	-4.15068
 123	1	5	-0.529683	-5.30016	-0.98979	-1.63572
 124	1	2	0.758009	-4.17284	1.76273	-1.53709
 125	1	6	0.367145	-4.53655	1.46265	-3.43141
 126	1	5	-0.590269	-3.98576	2.92452	-1.83796
 127	1	1	-0.041892	-7.52483	-4.78199	-5.01726
 128	1	2	0.591489	-7.02018	-3.46809	-4.45135
 129	1	3	0.048074	-6.91277	-5.12341	-5.85751
 130	1	4	-0.651929	-5.68052	-3.22208	-4.58556
 131	1	3	0.049056	-8.53401	-4.61957	-5.41373
 132	1	5	-0.529683	-7.76313	-2.68001	-3.90625
 133	1	2	0.758009	-4.88121	-2.15675	-4.27505
 134	1	6	0.367145	-5.1216	-4.00943	-4.90066
 135	1	5	-0.590269	-3.69453	-2.28684	-4.47852
 136	1	1	-0.041892	-4.18736	-7.23057	-3.00894
 137	1	2	0.591489	-5.19665	-6.50194	-3.87955
 138	1	3	0.048074	-4.05677	-8.24394	-3.40535
 139	1	4	-0.651929	-6.51213	-6.51532	-3.48296
 140	1	3	0.049056	-3.21752	-6.72271	-3.06279
 141	1	5	-0.529683	-4.83965	-5.88065	-4.85895
 142	1	2	0.758009	-7.61166	-5.82904	-3.91908
 143	1	6	0.367145	-6.75252	-7.11026	-2.70331
 144	1	5	-0.590269	-8.63714	-6.01692	-3.30598
 145	1	1	-0.041892	-4.83679	-3.97726	0.165772
 146	1	2	0.591489	-4.50233	-4.90006	-0.980219
 147	1	3	0.048074	-4.45293	-2.9747	-0.0418089
 148	1	4	-0.651929	-4.72254	-6.23299	-0.753985
 149	1	3	0.049056	-4.37138	-4.34248	1.08848
 150	1	5	-0.529683	-4.20198	-4.47079	-2.07326
 151	1	2	0.758009	-4.62674	-7.33298	-1.55808
 152	1	6	0.367145	-5.09487	-6.47184	0.154421
 153	1	5	-0.590269	-5.15906	-8.33909	-1.14879
 154	1	1	-0.041892	-8.81074	-1.58301	-1.28265
 155	1	2	0.591489	-8.3444	-2.68769	-0.357124
 156	1	3	0.048074	-9.44428	-2.03117	-2.05683
 157	1	4	-0.651929	-7.00333	-2.97419	-0.368578
 158	1	3	0.049056	-7.9677	-1.08741	-1.7726
 159	1	5	-0.529683	-9.12195	-3.21372	0.413044
 160	1	2	0.758009	-6.33543	-3.94207	0.340939
 161	1	6	0.367145	-6.41503	-2.36127	-0.917528
 162	1	5	-0.590269	-6.9031	-4.84368	0.922304
 163	1	1	-0.041892	-11.641	1.57745	0.574324
 164	1	2	0.591489	-11.6211	0.914896	-0.797009
 165	1	3	0.048074	-10.6322	1.79729	0.935155
 166	1	4	-0.651929	-10.6722	-0.00879513	-1.15349
 167	1	3	0.049056	-12.1595	2.53951	0.482194
 168	1	5	-0.529683	-12.4156	1.2044	-1.66167
 169	1	2	0.758009	-9.59983	-0.555352	-0.501658
 170	1	6	0.367145	-10.8314	-0.333363	-2.09288
 171	1	5	-0.590269	-9.31458	-0.240125	0.636797
 172	1	1	-0.041892	-11.1166	-2.47652	3.10826
 173	1	2	0.591489	-12.0802	-1.3133	2.96847
 174	1	3	0.048074	-10.8942	-2.87402	2.11511
 175	1	4	-0.651929	-11.7043	-0.349845	2.06518
 176	1	3	0.049056	-11.594	-3.27857	3.68226
 177	1	5	-0.529683	-13.1497	-1.31111	3.53523
 178	1	2	0.758009	-12.4015	0.723948	1.572
 179	1	6	0.367145	-10.7672	-0.42952	1.70194
 180	1	5	-0.590269	-13.5446	0.979842	1.87816
 181	1	1	-0.041892	-7.04772	-1.27845	4.80028
 182	1	2	0.591489	-7.39094	-1.83925	3.42252
 183	1	3	0.048074	-7.60001	-0.345549	4.96022
 184	1	4	-0.651929	-8.67872	-2.20629	3.12624
 185	1	3	0.049056	-7.35569	-1.99337	5.57253
 186	1	5	-0.529683	-6.57356	-1.89645	2.52454
 187	1	2	0.758009	-9.85083	-2.0511	3.8249
 188	1	6	0.367145	-8.76283	-2.65713	2.22108
 189	1	5	-0.590269	-9.88148	-1.44277	4.87216
 190	1	1	-0.041892	-2.78778	0.448634	5.09205
 191	1	2	0.591489	-3.85502	0.588536	4.02373
 192	1	3	0.048074	-3.22217	0.352247	6.09233
 193	1	4	-0.651929	-5.06858	-0.0275283	4.12094
 194	1	3	0.049056	-2.19995	1.37222	5.09275
 195	1	5	-0.529683	-3.71936	1.30668	3.05854
 196	1	2	0.758009	-5.5659	-0.987268	4.95945
 197	1	6	0.367145	-5.69494	0.25739	3.39062
 198	1	5	-0.590269	-4.89289	-1.46598	5.84932
 199	1	1	-0.041892	0.0177503	-3.16615	5.01709
 200	1	2	0.591489	-1.41006	-3.04997	5.53031
 201	1	3	0.048074	0.0994624	-2.76837	4.00378
 202	1	4	-0.651929	-2.1054	-1.87396	5.44049
 203	1	3	0.049056	0.290778	-4.22636	4.96877
 204	1	5	-0.529683	-1.94561	-3.97136	6.10863
 205	1	2	0.758009	-1.84989	-0.700232	4.7838
 206	1	6	0.367145	-2.9854	-1.90773	5.94164
 207	1	5	-0.590269	-0.975158	-0.612167	3.94377
 208	1	1	-0.041892	4.55397	-2.71947	4.77532
 209	1	2	0.591489	3.05177	-2.82971	4.59904
 210	1	3	0.048074	4.81973	-2.55884	5.82473
 211	1	4	-0.651929	2.31647	-2.40025	5.66702
 212	1	3	0.049056	4.91937	-1.85757	4.20676
 213	1	5	-0.529683	2.54298	-3.33411	3.61806
 214	1	2	0.758009	0.985114	-2.46244	5.95817
 215	1	6	0.367145	2.85573	-2.01261	6.43293
 216	1	5	-0.590269	0.67437	-2.06785	7.06699
 217	1	1	-0.041892	3.96659	-7.02414	6.14693
 218	1	2	0.591489	4.24644	-5.54553	5.97132
 219	1	3	0.048074	2.88136	-7.16335	6.21308
 220	1	4	-0.651929	4.9175	-5.19751	4.82923
 221	1	3	0.049056	4.3202	-7.60651	5.29201
 222	1	5	-0.529683	3.92726	-4.73148	6.81029
 223	1	2	0.758009	5.21671	-3.98741	4.26879
 224	1	6	0.367145	5.28266	-5.95469	4.26404
 225	1	5	-0.590269	5.87745	-4.00869	3.24914
 226	1	1	-0.041892	8.0995	-6.88032	8.56889
 227	1	2	0.591489	6.7916	-7.63519	8.57434
 228	1	3	0.048074	8.83001	-7.41501	9.18647
 229	1	4	-0.651929	5.97375	-7.38905	7.50012
 230	1	3	0.049056	8.49443	-6.8035	7.5498
 231	1	5	-0.529683	6.4167	-8.1647	9.59888
 232	1	2	0.758009	4.60912	-7.52844	7.42057
 233	1	6	0.367145	6.41878	-7.00389	6.68028
 234	1	5	-0.590269	3.93329	-7.95716	8.33006
 235	1	1	-0.041892	6.71128	-2.83273	10.3405
 236	1	2	0.591489	6.35798	-4.25706	10.7187
 237	1	3	0.048074	6.5972	-2.19932	11.2279
 238	1	4	-0.651929	6.93347	-5.34688	10.1226
 239	1	3	0.049056	7.74741	-2.72205	10.0133
 240	1	5	-0.529683	5.48627	-4.45739	11.5357
 241	1	2	0.758009	7.88058	-5.4863	9.13474
 242	1	6	0.367145	6.51549	-6.21473	10.4407
 243	1	5	-0.590269	8.46627	-4.53713	8.6643
 244	1	1	-0.041892	2.34712	-0.824954	9.86583
 245	1	2	0.591489	3.5485	-1.24711	9.03819
 246	1	3	0.048074	2.63273	-0.717054	10.9188
 247	1	4	-0.651929	4.56276	-1.86051	9.7318
 248	1	3	0.049056	1.5766	-1.60204	9.8033
 249	1	5	-0.529683	3.59344	-1.05849	7.83992
 250	1	2	0.758009	5.7538	-2.36701	9.26502
 251	1	6	0.367145	4.41396	-1.98436	10.7176
 252	1	5	-0.590269	6.06662	-2.35579	8.09342
 253	1	1	-0.041892	0.145637	2.78535	8.06582
 254	1	2	0.591489	0.400625	1.39967	7.49657
 255	1	3	0.048074	-0.167891	2.71194	9.11302
 256	1	4	-0.651929	1.06564	0.454607	8.21889
 257	1	3	0.049056	1.07131	3.37063	8.02369
 258	1	5	-0.529683	0.0268616	1.07041	6.3935
 259	1	2	0.758009	1.78649	0.500638	9.37715
 260	1	6	0.367145	1.04876	-0.448321	7.75613
 261	1	5	-0.590269	1.94106	1.53281	9.99732
 262	1	1	-0.041892	-2.76843	5.19416	5.47449
 263	1	2	0.591489	-1.38446	5.56066	5.98637
 264	1	3	0.048074	-2.70903	4.34626	4.78385
 265	1	4	-0.651929	-0.66286	4.68292	6.7505
 266	1	3	0.049056	-3.39889	4.88768	6.31551
 267	1	5	-0.529683	-0.851174	6.62293	5.74712
 268	1	2	0.758009	-0.96913	3.45702	7.28287
 269	1	6	0.367145	0.262547	5.02667	6.92748
 270	1	5	-0.590269	-2.09602	3.00304	7.25356
 271	1	1	-0.041892	-2.78078	6.61661	1.1023
 272	1	2	0.591489	-2.51685	6.12594	2.51493
 273	1	3	0.048074	-1.81708	6.76194	0.601276
 274	1	4	-0.651929	-3.32286	6.65424	3.48883
 275	1	3	0.049056	-3.31333	7.57439	1.10597
 276	1	5	-0.529683	-1.64457	5.31996	2.76121
 277	1	2	0.758009	-3.4338	6.39863	4.82682
 278	1	6	0.367145	-3.96134	7.37585	3.21291
 279	1	5	-0.590269	-4.28285	7.04	5.40943
 280	1	1	-0.041892	-3.61132	6.04849	-3.38072
 281	1	2	0.591489	-3.29869	6.49157	-1.96218
 282	1	3	0.048074	-4.61324	5.6096	-3.43206
 283	1	4	-0.651929	-3.69671	5.59966	-1.00403
 284	1	3	0.049056	-2.90555	5.25604	-3.6555
 285	1	5	-0.529683	-2.75805	7.54253	-1.68503
 286	1	2	0.758009	-3.59979	5.57639	0.35547
 287	1	6	0.367145	-4.13691	4.75395	-1.34328
 288	1	5	-0.590269	-4.23169	4.705	0.917265
 289	1	1	-0.041892	-6.3511	9.64979	-4.18975
 290	1	2	0.591489	-5.64082	8.34778	-3.87511
 291	1	3	0.048074	-5.66136	10.3916	-4.60325
 292	1	4	-0.651929	-4.46853	8.12465	-4.54678
 293	1	3	0.049056	-6.72356	10.0661	-3.24673
 294	1	5	-0.529683	-6.03628	7.59424	-3.01135
 295	1	2	0.758009	-3.48155	7.18826	-4.3816
 296	1	6	0.367145	-4.25022	8.76811	-5.29631
 297	1	5	-0.590269	-2.57637	7.21172	-5.1865
 298	1	1	-0.041892	-6.81849	10.1723	-8.73268
 299	1	2	0.591489	-6.4213	9.87795	-7.2962
 300	1	3	0.048074	-7.86447	10.4964	-8.78532
 301	1	4	-0.651929	-7.47093	9.6582	-6.44392
 302	1	3	0.049056	-6.7404	9.24496	-9.31122
 303	1	5	-0.529683	-5.26867	9.75489	-6.93436
 304	1	2	0.758009	-7.54504	9.41999	-5.10145
 305	1	6	0.367145	-8.39317	9.72549	-6.83793
 306	1	5	-0.590269	-8.66108	9.25205	-4.66326
 307	1	1	-0.041892	-7.16242	14.6973	-8.50243
 308	1	2	0.591489	-7.00974	13.2058	-8.29248
 309	1	3	0.048074	-7.80972	14.8768	-9.36844
 310	1	4	-0.651929	-6.22381	12.5595	-9.2079
 311	1	3	0.049056	-6.18524	15.1473	-8.71648
 312	1	5	-0.529683	-7.49869	12.6169	-7.35235
 313	1	2	0.758009	-5.92882	11.2327	-9.369
 314	1	6	0.367145	-5.7455	13.1306	-9.88706
 315	1	5	-0.590269	-5.22128	10.9672	-10.3157
 316	1	1	-0.041892	-5.74416	16.588	-4.30462
 317	1	2	0.591489	-6.98482	16.4506	-5.18153
 318	1	3	0.048074	-5.77286	15.8176	-3.52646
 319	1	4	-0.651929	-6.85888	15.6885	-6.31638
 320	1	3	0.049056	-5.77016	17.5653	-3.80724
 321	1	5	-0.529683	-7.99854	17.0454	-4.89438
 322	1	2	0.758009	-7.77397	15.3492	-7.27752
 323	1	6	0.367145	-5.93937	15.2991	-6.46712
 324	1	5	-0.590269	-8.95364	15.6174	-7.2145
 325	1	1	-0.041892	-2.04639	16.8221	-7.02458
 326	1	2	0.591489	-2.5881	17.8202	-6.00841
 327	1	3	0.048074	-1.98566	15.8112	-6.60887
 328	1	4	-0.651929	-3.69142	17.5593	-5.24153
 329	1	3	0.049056	-1.02456	17.1202	-7.28475
 330	1	5	-0.529683	-2.19731	18.9641	-5.99904
 331	1	2	0.758009	-4.45377	16.434	-5.09041
 332	1	6	0.367145	-3.98032	18.3677	-4.71517
 333	1	5	-0.590269	-4.20857	15.4213	-5.71354
 334	1	1	-0.041892	-3.78965	17.9935	-11.0074
 335	1	2	0.591489	-4.37012	18.284	-9.63821
 336	1	3	0.048074	-2.70776	17.8414	-10.9317
 337	1	4	-0.651929	-3.61594	17.9505	-8.55354
 338	1	3	0.049056	-3.94906	18.8939	-11.612
 339	1	5	-0.529683	-5.21807	19.1299	-9.46465
 340	1	2	0.758009	-2.87067	16.8305	-8.30288
 341	1	6	0.367145	-3.64288	18.6588	-7.83845
 342	1	5	-0.590269	-2.98633	15.8513	-9.01022
 343	1	1	-0.041892	-3.51347	17.2958	-15.3833
 344	1	2	0.591489	-3.30023	17.3644	-13.8871
 345	1	3	0.048074	-3.17927	16.3149	-15.7395
 346	1	4	-0.651929	-4.189	16.6915	-13.0794
 347	1	3	0.049056	-2.87826	18.0517	-15.862
 348	1	5	-0.529683	-2.37165	18.0032	-13.4391
 349	1	2	0.758009	-4.41576	16.8133	-11.7316
 350	1	6	0.367145	-4.81066	16.0293	-13.507
 351	1	5	-0.590269	-5.28046	16.1047	-11.2522
 352	1	1	-0.041892	-5.34368	21.2468	-15.8284
 353	1	2	0.591489	-5.20893	19.8958	-15.1611
 354	1	3	0.048074	-5.83134	21.9527	-15.1449
 355	1	4	-0.651929	-5.41416	18.8005	-15.957
 356	1	3	0.049056	-5.92715	21.1836	-16.7538
 357	1	5	-0.529683	-4.78803	19.7746	-14.0359
 358	1	2	0.758009	-4.95839	17.5202	-15.8133
 359	1	6	0.367145	-6.07987	18.8804	-16.7061
 360	1	5	-0.590269	-5.50974	16.7024	-16.5136
 361	1	1	-0.041892	-0.88076	21.6023	-16.5733
 362	1	2	0.591489	-1.93313	20.7762	-17.3094
 363	1	3	0.048074	0.1219	21.2812	-16.8799
 364	1	4	-0.651929	-3.25795	20.9051	-17.0138
 365	1	3	0.049056	-1.00243	22.6652	-16.8117
 366	1	5	-0.529683	-1.65043	19.9051	-18.1026
 367	1	2	0.758009	-3.92902	21.7029	-16.1235
 368	1	6	0.367145	-3.79893	20.2224	-17.5077
 369	1	5	-0.590269	-3.39839	22.6107	-15.523
 370	1	7	0	8.67491	-15.7303	3.5844
 371	1	3	0	-0.974827	21.4641	-15.4889

Velocities

   1	5.43501e-05	-0.000133383	0.00057994
   2	9.56134e-05	-6.36029e-05	-8.32779e-05
   3	-0.000239186	0.000140032	0.0010446
   4	0.000472144	0.000368519	8.10665e-05
   5	-0.000210953	-0.000651852	0.000420849
   6	-0.000584628	-5.86343e-06	-3.96128e-05
   7	-9.64407e-05	0.000564154	-6.93186e-05
   8	-8.35858e-06	0.000524694	0.000141536
   9	-0.00121464	0.000391491	-0.000333041
  10	-8.67656e-05	-8.76195e-05	-9.23961e-05
  11	0.000315939	-0.000114677	-0.000357242
  12	-0.000138474	-5.94338e-05	1.55285e-05
  13	8.73257e-05	-0.000406353	3.20177e-05
  14	-5.08732e-05	-0.000361916	-0.000122526
  15	0.000737865	0.00015092	-0.00100337
  16	-0.000158111	-0.00047617	0.000769583
  17	0.000319811	-0.000283901	-0.000319858
  18	-0.000557375	-0.000478627	0.00112531
  19	-0.000147706	-0.000137418	-6.36685e-06
  20	-0.000208916	1.11967e-05	-0.000234407
  21	-8.5185e-05	-0.000223161	0.000265266
  22	7.02231e-05	0.000372686	-2.46819e-05
  23	-0.000217316	-7.17717e-05	0.000234148
  24	-0.000452809	-0.00022493	-0.000335782
  25	-6.57699e-05	0.000239271	-3.23623e-05
  26	0.000163959	0.000450143	-3.08917e-05
  27	-6.71315e-05	0.000153241	-3.49555e-05
  28	0.000281729	0.00035481	-0.000327515
  29	5.71185e-05	0.000137703	-0.000452165
  30	0.000285585	0.000360845	-0.000395694
  31	3.06097e-05	-7.20681e-05	-0.000347155
  32	0.0001434	0.000803999	-0.000335517
  33	-0.000244392	0.000643416	-0.000383135
  34	0.000100561	-0.000399386	-0.000189515
  35	-0.000324909	0.000231929	-0.000211338
  36	0.000522422	-0.00112051	-0.000391965
  37	0.000170698	0.000147958	0.000625738
  38	0.000475081	0.000304714	0.000697915
  39	0.000143373	9.67028e-05	0.000530575
  40	0.000696342	0.000264306	0.0004208
  41	1.90736e-05	0.000133995	0.000707861
  42	0.000431936	0.000541765	0.000759256
  43	0.000643147	0.000205236	0.000198894
  44	0.000657051	0.000487524	0.000181864
  45	0.000731716	6.47933e-05	0.00037344
  46	9.47679e-05	-0.000381892	-0.000409201
  47	-0.000305103	-0.000619787	-0.000300506
  48	0.000408691	-0.000493463	-0.000333831
  49	-0.000212609	-0.000472142	9.93984e-05
  50	0.000169132	-0.000455228	-0.000350536
  51	-0.000681356	-0.000827023	-0.000555731
  52	0.000174254	3.07232e-05	0.000468215
  53	-0.000456691	-0.000568672	0.000139958
  54	0.000414703	0.000508653	0.000712616
  55	-0.000181931	-0.000191693	0.000279005
  56	-0.000200279	-0.000127982	0.000210333
  57	-0.000124137	-0.000221098	0.000290607
  58	-4.42012e-05	0.00013305	-0.000572036
  59	-0.000217481	-0.000242444	0.000256531
  60	-0.000297287	-0.000210008	0.00066085
  61	6.61081e-05	0.000110091	-0.000792741
  62	4.95808e-05	0.000322949	-0.00109015
  63	0.000158469	0.000456389	-0.00137903
  64	0.000116208	5.15691e-05	0.00060267
  65	-9.02839e-05	3.92032e-07	0.000406375
  66	0.000120719	3.25427e-05	0.000694481
  67	-6.34678e-05	-1.51938e-05	0.000348039
  68	0.000250476	7.55398e-05	0.000528998
  69	-0.000222647	-4.19172e-05	0.000308427
  70	-0.000212889	2.99195e-05	0.00024701
  71	-2.62723e-05	2.02045e-05	0.000363375
  72	9.80339e-06	-8.95402e-05	0.000226599
  73	-8.37724e-05	-7.96093e-05	0.000529638
  74	0.000114841	2.03528e-05	0.000562396
  75	-0.000148548	-1.75936e-05	0.000550902
  76	6.55405e-05	2.48545e-05	0.000717523
  77	-0.000132325	-9.99875e-05	0.00053141
  78	0.000296136	6.55315e-05	0.000447711
  79	7.85717e-05	2.30004e-05	0.000725966
  80	5.60809e-05	6.03307e-05	0.000717561
  81	0.000128692	4.35386e-05	0.000633416
  82	-0.000502016	-0.000220331	0.000704848
  83	-0.000152964	-0.000342867	0.000428157
  84	-0.000640324	-0.000468739	0.000661674
  85	-6.08805e-05	-0.000320338	0.00039899
  86	-0.000670273	-0.000219852	0.000834217
  87	-4.80783e-05	-0.000450883	0.000279599
  88	-6.24343e-05	-0.000272448	0.000406025
  89	-1.30773e-05	-0.000292791	0.00043934
  90	-0.000133886	-0.000287268	0.000392595
  91	-0.000595682	-0.000316637	0.000298287
  92	-0.000296838	1.36777e-05	0.000658937
  93	-0.000514412	-0.000370881	0.000480389
  94	-0.000444721	-3.75262e-05	0.000604973
  95	-0.000740064	-0.000659619	0.000235765
  96	0.000324154	0.000447631	0.00109564
  97	-0.000409995	0.00012557	0.000772686
  98	-0.000629475	-0.000124093	0.000426107
  99	-0.000678007	-4.60085e-05	0.000595539
 100	-0.000289481	0.00080123	-0.000105903
 101	-0.000159236	0.000206549	0.000111063
 102	-0.000541237	0.000936894	-0.000532313
 103	-0.000102388	-3.95444e-05	-6.4498e-05
 104	3.11889e-05	0.00119843	1.8413e-05
 105	-0.0005308	0.000468179	0.000268826
 106	-0.000643612	-9.31316e-05	-0.000142266
 107	0.000282183	-0.000188676	-0.000230492
 108	-0.000799593	-0.000180476	-0.000452282
 109	-0.000784342	0.000137957	-0.000489663
 110	-0.000758881	0.000191101	-0.000363781
 111	-0.000761237	0.000127954	-0.000401911
 112	-0.000323908	0.000785836	0.000400271
 113	-0.000771375	0.000193791	-0.000553432
 114	-0.00127889	-0.000544538	-0.00119742
 115	-0.000245115	0.00068673	0.000125285
 116	3.01148e-05	0.0012123	0.00101544
 117	4.33908e-05	0.000837554	0.000449618
 118	0.000764774	-0.000493336	-0.000775786
 119	-0.000139895	-0.000284379	-0.000617589
 120	0.0012493	-0.000664066	-0.000623596
 121	-0.00051628	-0.000161139	-0.000565
 122	0.000851786	-0.000541609	-0.00160232
 123	-0.000235371	-0.000276951	-0.000634976
 124	-0.00078727	-1.98328e-05	-0.0005691
 125	-0.000283953	-0.000281149	-0.000591235
 126	-0.000405788	-0.000108691	-0.000750611
 127	0.000453247	-9.14888e-05	-9.76426e-05
 128	0.000930933	-0.000324365	6.49591e-06
 129	0.000318088	-0.000368767	-8.97318e-05
 130	0.000902384	-0.00040549	-0.000463707
 131	0.000517562	0.000289041	-0.000106462
 132	0.00138791	-0.000552195	0.000946668
 133	0.000920505	-0.000535912	-0.000163833
 134	0.000811497	-0.000491712	-0.00044176
 135	0.000997031	-0.000648188	0.000295872
 136	0.000141286	0.000206362	0.000189252
 137	1.53898e-05	-0.00019787	-2.7879e-06
 138	0.000748101	0.000319585	0.000134699
 139	1.30024e-05	-0.000145878	-1.30947e-05
 140	-0.000104882	0.000737402	0.000412624
 141	9.20008e-05	-0.000307175	-4.63456e-05
 142	0.000126715	4.47577e-05	-1.55277e-05
 143	-4.16736e-05	5.2044e-05	0.000120962
 144	0.000202441	0.000750762	0.000310981
 145	0.000120551	0.000214322	-7.06483e-05
 146	-0.000377064	-6.81493e-06	-2.7837e-05
 147	7.02515e-05	0.00016214	-0.000465051
 148	-0.000265147	-3.40883e-05	0.000110825
 149	0.000402523	0.000425411	-0.000138044
 150	-0.000821895	-7.76753e-05	-0.000177216
 151	-9.55334e-05	3.03797e-05	5.78814e-05
 152	-0.00015309	-2.63668e-05	0.000168683
 153	0.000333068	-0.000288607	5.17643e-06
 154	0.000622551	0.00047602	0.000236424
 155	0.000313977	0.000296053	0.000145939
 156	0.000769531	0.000714088	-1.84044e-05
 157	0.000213322	4.06073e-05	1.26836e-06
 158	0.000742627	0.00056391	0.000553646
 159	0.000265151	0.000553094	0.000275392
 160	0.00021805	0.00025549	0.000259029
 161	0.000189854	-0.000258286	-0.000347716
 162	0.000252234	0.000456035	0.00060852
 163	0.000443574	-0.000132476	0.000409917
 164	0.000316775	-0.000161893	0.000487593
 165	0.000435262	3.64251e-05	0.000354984
 166	0.000456862	0.000111355	0.000391224
 167	0.000290329	-0.000205461	0.000462821
 168	-3.1552e-05	-0.000465277	0.000584332
 169	0.00061606	0.000370938	0.000339392
 170	0.000465895	-1.87111e-05	0.000420631
 171	0.000689326	0.000417039	0.000332848
 172	0.000284137	-0.000589735	0.000615566
 173	0.000315256	-0.000554031	9.37492e-05
 174	-8.56493e-05	-0.0015107	0.000898404
 175	0.000783985	-0.000160136	0.00058818
 176	0.000285649	4.55767e-05	0.00148962
 177	-0.000156191	-0.000988026	-0.000911699
 178	0.000618947	-0.000359241	0.000332075
 179	0.00098132	0.000188984	0.00109682
 180	0.000125825	-0.0011362	-0.000639185
 181	0.000184595	-4.89471e-05	-0.000366398
 182	0.000286198	0.000197595	-0.000453437
 183	-1.48192e-05	-0.000219794	-8.49386e-05
 184	0.000353408	-0.000221218	-0.000212929
 185	0.000446344	-0.000358852	-0.000525251
 186	0.000225086	0.000807325	-0.000560254
 187	0.000479495	-0.000353143	5.58516e-05
 188	0.000277498	-0.000315734	-0.000163756
 189	0.000619395	-0.000185605	-3.96913e-05
 190	-0.000306073	0.000399191	0.000107704
 191	-0.000354483	0.000926485	0.000217218
 192	-0.000342374	0.000135646	6.59216e-05
 193	-0.000345264	0.000996048	0.000185624
 194	-0.000194554	0.000326151	0.000398583
 195	-0.000342587	0.00116714	0.000373281
 196	3.41468e-05	0.000241342	-0.000417538
 197	-0.000618898	0.00155099	0.000622246
 198	0.000351745	-0.000545772	-0.00107422
 199	-0.000283503	0.000384434	-0.000100338
 200	-0.000246081	0.000405298	-1.69361e-05
 201	-0.00040059	0.000468147	-7.54365e-05
 202	-0.000243197	0.000370176	-0.00012976
 203	-0.000346704	0.000365833	-0.000233206
 204	-0.000248126	0.000477846	0.000103137
 205	-0.000396478	0.000384711	-0.000190163
 206	-0.000355775	0.000262961	-0.000303045
 207	-0.000259321	0.000542389	-3.94838e-05
 208	-0.000281401	-8.88363e-05	-0.000799936
 209	-0.000378751	0.000146831	-0.000407903
 210	-4.26385e-05	-8.19939e-05	-0.000866438
 211	-0.000215157	0.000896433	-0.000556838
 212	-0.00019987	-0.000258113	-0.000980179
 213	-0.000572943	-0.000851882	0.000207114
 214	-0.000155568	0.0003656	-0.000214696
 215	-0.000195995	0.00140209	-0.000835095
 216	-6.25128e-05	0.000122952	-9.81716e-05
 217	-0.000362592	-0.000256821	-0.000853088
 218	-0.00100585	-0.0001971	-0.00101957
 219	-0.000320371	-0.00073003	-0.000868768
 220	-0.000532791	-0.000237893	-0.000705513
 221	-5.92055e-05	-0.000213023	-0.000780447
 222	-0.00165421	-0.000155344	-0.00130953
 223	-0.000501922	-0.00027848	-0.000753228
 224	-0.000186585	-0.000250587	-0.000503871
 225	5.76848e-05	-0.000343608	-0.00040564
 226	-6.69224e-05	-0.000177897	-0.000274869
 227	-0.000155475	-3.00079e-05	-0.000825419
 228	-0.000411825	-0.00022136	0.000123744
 229	-0.00028333	0.000883523	-0.000519278
 230	0.000411791	-0.000438355	-9.98956e-05
 231	-5.09765e-07	-0.00112087	-0.00134377
 232	-0.000177601	7.60981e-05	-0.000829966
 233	-0.000404717	0.00192227	-0.000144888
 234	6.86251e-05	-0.00152969	-0.00140624
 235	0.000513857	0.000228601	-0.000584936
 236	0.000252168	0.000292778	-0.000533407
 237	0.000956022	0.000218557	-0.000519691
 238	-2.27402e-05	9.24222e-05	-0.00045107
 239	0.000464827	-3.8161e-05	-0.000830175
 240	0.000271395	0.000590516	-0.000328001
 241	-0.000158652	-0.000127544	-0.000555793
 242	-6.57346e-06	0.000178062	-0.000210176
 243	-0.000511999	-0.000164573	-0.00113755
 244	-0.000267479	-0.00040919	-7.6854e-05
 245	4.65271e-05	0.000122761	2.6344e-05
 246	-0.00064738	-0.00071628	4.79914e-05
 247	0.000144583	7.24282e-05	-6.71551e-05
 248	-0.00014431	-0.000489978	-0.000625201
 249	0.000149761	0.000574396	9.48298e-05
 250	0.00033452	0.000653135	-0.000270817
 251	6.24453e-05	-0.00049472	-0.000168696
 252	0.000283504	0.00124236	-0.000297622
 253	-0.000289562	-0.000263325	-0.000221105
 254	-0.000239721	-0.000358031	1.69585e-05
 255	-0.000841829	-0.000296437	-0.000370481
 256	-0.000570335	-0.000360222	0.000244749
 257	-0.000180821	-0.00039623	0.0003494
 258	-0.000142358	-0.000520485	-4.03953e-07
 259	-0.000238875	-0.000348011	4.22689e-05
 260	-0.000868012	-0.000457428	0.000453078
 261	0.000565839	-0.00015563	-0.000426193
 262	-0.000195475	0.000807521	0.000488499
 263	0.000331669	0.000199289	-0.00045599
 264	-0.00105146	0.000385951	0.00093026
 265	0.000374465	-8.43364e-05	-0.000738552
 266	0.000222118	0.00160374	0.00109477
 267	0.000480627	0.000105628	-0.000583647
 268	0.000163534	-0.000133348	-0.000843033
 269	0.000486022	-0.000348671	-0.000824531
 270	0.000115461	1.01762e-05	-0.00116906
 271	4.78757e-05	-0.000504923	-6.45254e-05
 272	-0.000136346	-0.000174302	0.000142514
 273	9.22934e-05	-0.000705549	-6.67953e-05
 274	-0.000374708	-7.96067e-05	-0.000116519
 275	0.000260756	-0.000378496	-0.000261609
 276	0.000278595	0.000413313	0.000672613
 277	-0.000130051	0.000649557	3.62227e-05
 278	-0.000701156	-0.000479345	-0.00048677
 279	-0.000583062	0.000528775	-0.000421105
 280	-0.000108315	0.000462859	-2.57866e-05
 281	-0.00111218	0.000708649	0.000103499
 282	-2.74054e-05	0.000360624	-0.000531205
 283	-0.000122319	-4.7446e-05	-0.000178947
 284	0.000130911	0.00049701	0.000546673
 285	-0.00296835	0.00160354	0.000554781
 286	-8.23616e-05	-0.000327598	-0.000205305
 287	0.00045001	-0.000261606	-0.000448747
 288	0.000452425	-0.000837969	-0.000356214
 289	0.000678521	0.000655224	0.00024945
 290	0.000602438	0.000621418	0.000199584
 291	0.000557587	0.000742182	0.000131461
 292	0.000617407	0.000699847	0.000105942
 293	0.000902226	0.000644532	0.000332782