pySIMM System Object

146 atoms
145 bonds
240 angles
314 dihedrals
32 impropers

7 atom types
6 bond types
10 angle types
4 dihedral types
2 improper types

-80.920805 80.920805 xlo xhi
-80.920805 80.920805 ylo yhi
-80.920805 80.920805 zlo zhi

Masses

   1	12.01	# c3
   2	12.01	# c
   3	1.008	# hc
   4	14.01	# n
   5	16.0	# o
   6	1.008	# hn
   7	1.008	# h5

Pair Coeffs

   1	0.1094	3.3996695084235347	# c3
   2	0.086	3.3996695084235347	# c
   3	0.0157	2.649532787749369	# hc
   4	0.17	3.249998523775958	# n
   5	0.21	2.959921901149463	# o
   6	0.0157	1.069078461768407	# hn
   7	0.015	2.421462715905442	# h5

Bond Coeffs

   1	319.7	1.1051	# c,h5
   2	427.6	1.3789	# c,n
   3	313.0	1.5241	# c,c3
   4	330.6	1.0969	# c3,hc
   5	637.7	1.2183	# c,o
   6	403.2	1.0129	# hn,n

Angle Coeffs

   1	48.33	117.55	# c,n,hn
   2	74.22	123.05	# n,c,o
   3	53.7	123.65	# h5,c,o
   4	39.4	107.58	# hc,c3,hc
   5	63.74	127.08	# c,n,c
   6	67.4	123.2	# c3,c,o
   7	46.93	108.77	# c,c3,hc
   8	66.79	115.18	# c3,c,n
   9	51.42	112.16	# h5,c,n
  10	63.38	111.63	# c,c3,c

Dihedral Coeffs

   1	3	0.8	1	0	0.0	2	0	0.08	3	180	# hc,c3,c,o
   2	1	2.5	2	180	# X,c,n,X
   3	2	2.5	2	180	2.0	1	0	# hn,n,c,o
   4	1	0.0	2	180	# X,c,c3,X

Improper Coeffs

   1	10.5	-1	2	# c,X,X,o
   2	1.1	-1	2	# n,X,X,hn

Atoms

   1	1	1	-0.041892	-3.28666	10.474	-9.81563
   2	1	2	0.591489	-4.44451	10.1432	-10.7296
   3	1	3	0.048074	-2.34171	10.1135	-10.2379
   4	1	4	-0.651929	-4.24794	9.14036	-11.6328
   5	1	3	0.049056	-3.21715	11.561	-9.69255
   6	1	5	-0.529683	-5.4981	10.7379	-10.6703
   7	1	2	0.758009	-5.13329	8.68094	-12.5561
   8	1	6	0.367145	-3.37694	8.64372	-11.6372
   9	1	5	-0.590269	-4.7944	7.77275	-13.2844
  10	1	1	-0.041892	-4.71389	9.02938	-5.67233
  11	1	2	0.591489	-4.2142	10.3817	-6.1461
  12	1	3	0.048074	-5.73006	9.17034	-5.28667
  13	1	4	-0.651929	-3.84974	10.6148	-7.44433
  14	1	3	0.049056	-4.79306	8.30656	-6.48036
  15	1	5	-0.529683	-4.30237	11.3551	-5.4287
  16	1	2	0.758009	-3.5397	9.79033	-8.49412
  17	1	6	0.367145	-3.79035	11.5997	-7.62785
  18	1	5	-0.590269	-3.37318	8.59403	-8.38867
  19	1	1	-0.041892	-2.72186	7.68627	-1.77375
  20	1	2	0.591489	-3.43495	8.98087	-2.12705
  21	1	3	0.048074	-1.92289	7.50828	-2.49113
  22	1	4	-0.651929	-3.87838	9.22471	-3.39855
  23	1	3	0.049056	-2.26458	7.78154	-0.782334
  24	1	5	-0.529683	-3.6247	9.84639	-1.29973
  25	1	2	0.758009	-3.8551	8.48041	-4.55065
  26	1	6	0.367145	-4.3075	10.1342	-3.48266
  27	1	5	-0.590269	-3.39308	7.3535	-4.57833
  28	1	1	-0.041892	-5.06192	3.74737	-2.02776
  29	1	2	0.591489	-3.61163	4.00457	-1.65378
  30	1	3	0.048074	-5.31141	2.71146	-1.77186
  31	1	4	-0.651929	-3.08877	5.27142	-1.6636
  32	1	3	0.049056	-5.74178	4.38638	-1.45522
  33	1	5	-0.529683	-2.88062	3.09487	-1.32535
  34	1	2	0.758009	-3.67306	6.50848	-1.76847
  35	1	6	0.367145	-2.07531	5.25948	-1.60078
  36	1	5	-0.590269	-4.88353	6.63304	-1.80623
  37	1	1	-0.041892	-6.02841	4.7357	-6.40483
  38	1	2	0.591489	-6.24495	5.55288	-5.14219
  39	1	3	0.048074	-6.24544	3.67345	-6.26076
  40	1	4	-0.651929	-5.86161	5.08369	-3.91708
  41	1	3	0.049056	-6.7237	5.09172	-7.17343
  42	1	5	-0.529683	-6.7626	6.64832	-5.17849
  43	1	2	0.758009	-5.2515	3.92462	-3.52231
  44	1	6	0.367145	-5.99178	5.76928	-3.18107
  45	1	5	-0.590269	-5.01803	3.04283	-4.32149
  46	1	1	-0.041892	-2.00133	4.83981	-8.56119
  47	1	2	0.591489	-2.63557	3.71398	-7.7506
  48	1	3	0.048074	-1.44096	4.393	-9.39051
  49	1	4	-0.651929	-3.82209	3.87561	-7.08259
  50	1	3	0.049056	-2.73076	5.51308	-9.01887
  51	1	5	-0.529683	-2.11651	2.62169	-7.69997
  52	1	2	0.758009	-4.6222	4.97258	-6.90869
  53	1	6	0.367145	-4.11971	3.03536	-6.60386
  54	1	5	-0.590269	-4.29301	6.05022	-7.34759
  55	1	1	-0.041892	0.60069	7.4113	-5.74735
  56	1	2	0.591489	-0.724991	7.73525	-6.42647
  57	1	3	0.048074	1.29434	6.89674	-6.4186
  58	1	4	-0.651929	-1.35912	6.83144	-7.24597
  59	1	3	0.049056	1.08391	8.35331	-5.46257
  60	1	5	-0.529683	-1.24405	8.8235	-6.28678
  61	1	2	0.758009	-1.0176	5.57549	-7.67953
  62	1	6	0.367145	-2.26997	7.17207	-7.554
  63	1	5	-0.590269	0.0472969	5.07182	-7.38203
  64	1	1	-0.041892	-0.0624623	2.87373	-4.36889
  65	1	2	0.591489	-0.058296	4.26647	-3.76391
  66	1	3	0.048074	-0.377016	2.93987	-5.41713
  67	1	4	-0.651929	0.284789	5.25246	-4.65022
  68	1	3	0.049056	0.945993	2.45448	-4.3804
  69	1	5	-0.529683	-0.42936	4.51152	-2.63264
  70	1	2	0.758009	0.351509	6.61073	-4.48463
  71	1	6	0.367145	0.456669	4.94007	-5.59807
  72	1	5	-0.590269	0.279675	7.14788	-3.40044
  73	1	1	-0.041892	0.378371	0.186123	-0.619762
  74	1	2	0.591489	0.446292	1.02186	-1.88966
  75	1	3	0.048074	1.37145	0.219946	-0.161195
  76	1	4	-0.651929	-0.729936	1.22929	-2.56227
  77	1	3	0.049056	-0.337393	0.626592	0.0828357
  78	1	5	-0.529683	1.50229	1.47109	-2.28093
  79	1	2	0.758009	-1.06147	1.97946	-3.65571
  80	1	6	0.367145	-1.54158	0.749715	-2.21188
  81	1	5	-0.590269	-2.1938	1.86596	-4.07376
  82	1	1	-0.041892	1.20713	-3.76766	1.62797
  83	1	2	0.591489	1.07203	-2.37091	1.05878
  84	1	3	0.048074	0.313294	-4.00608	2.21548
  85	1	4	-0.651929	0.361448	-2.29556	-0.109647
  86	1	3	0.049056	1.27128	-4.49379	0.80811
  87	1	5	-0.529683	1.4576	-1.39255	1.65728
  88	1	2	0.758009	-0.0170217	-1.25541	-0.912576
  89	1	6	0.367145	0.00700096	-3.15976	-0.479496
  90	1	5	-0.590269	-0.789296	-1.55862	-1.79519
  91	1	1	-0.041892	4.36432	-4.45394	4.8425
  92	1	2	0.591489	3.15002	-3.53644	4.86721
  93	1	3	0.048074	5.14797	-4.00101	4.22474
  94	1	4	-0.651929	2.35639	-3.40015	3.75975
  95	1	3	0.049056	4.09563	-5.41681	4.3956
  96	1	5	-0.529683	2.77265	-2.97168	5.8684
  97	1	2	0.758009	2.44815	-3.90953	2.49021
  98	1	6	0.367145	1.60155	-2.75377	3.92039
  99	1	5	-0.590269	3.32919	-4.67933	2.17249
 100	1	1	-0.041892	5.75568	-5.99704	9.00944
 101	1	2	0.591489	4.86114	-6.57893	7.92653
 102	1	3	0.048074	6.09594	-4.98637	8.78943
 103	1	4	-0.651929	4.54623	-5.9083	6.77532
 104	1	3	0.049056	6.65889	-6.60314	9.10796
 105	1	5	-0.529683	4.34461	-7.67015	8.04744
 106	1	2	0.758009	4.90483	-4.69561	6.23897
 107	1	6	0.367145	3.91114	-6.44685	6.22025
 108	1	5	-0.590269	5.78563	-4.00708	6.70537
 109	1	1	-0.041892	5.97516	-8.51008	12.8619
 110	1	2	0.591489	5.88901	-7.92299	11.4717
 111	1	3	0.048074	6.94544	-9.00555	12.9811
 112	1	4	-0.651929	5.18487	-6.75651	11.3512
 113	1	3	0.049056	5.89992	-7.71958	13.618
 114	1	5	-0.529683	6.36469	-8.51506	10.5261
 115	1	2	0.758009	4.95144	-5.9216	10.2945
 116	1	6	0.367145	4.68689	-6.43564	12.1642
 117	1	5	-0.590269	4.23205	-4.97661	10.5317
 118	1	1	-0.041892	3.77676	-12.1159	10.5714
 119	1	2	0.591489	3.77501	-11.4238	11.9147
 120	1	3	0.048074	3.51457	-13.17	10.7182
 121	1	4	-0.651929	4.71177	-10.4326	12.0541
 122	1	3	0.049056	4.77298	-12.0693	10.1165
 123	1	5	-0.529683	3.0157	-11.7607	12.7966
 124	1	2	0.758009	4.87193	-9.52461	13.0686
 125	1	6	0.367145	5.322	-10.2905	11.264
 126	1	5	-0.590269	4.13862	-9.4432	14.0286
 127	1	1	-0.041892	2.7062	-13.1023	6.25167
 128	1	2	0.591489	3.15022	-12.9569	7.69108
 129	1	3	0.048074	1.96411	-12.3527	5.97209
 130	1	4	-0.651929	2.55247	-11.9462	8.39287
 131	1	3	0.049056	2.22041	-14.0801	6.14979
 132	1	5	-0.529683	4.01302	-13.6542	8.17477
 133	1	2	0.758009	2.75501	-11.467	9.6532
 134	1	6	0.367145	1.86498	-11.3894	7.91986
 135	1	5	-0.590269	2.18063	-10.4306	9.90277
 136	1	1	-0.041892	3.19489	-9.94298	5.68536
 137	1	2	0.591489	4.53279	-10.584	5.32483
 138	1	3	0.048074	3.22114	-8.88393	5.4026
 139	1	4	-0.651929	4.65364	-11.9338	5.12021
 140	1	3	0.049056	2.37288	-10.4074	5.13242
 141	1	5	-0.529683	5.49011	-9.89942	5.04265
 142	1	2	0.758009	3.91949	-13.0698	5.3373
 143	1	6	0.367145	5.53	-12.1609	4.68015
 144	1	5	-0.590269	4.33626	-14.0803	4.81819
 145	1	7	0	-6.10773	9.20191	-12.585
 146	1	3	0	3.01063	-9.9976	6.76165

Velocities

   1	0.00060925	0.000898119	0.000119885
   2	0.000833694	0.00122904	-0.000366095
   3	0.000692066	0.00155583	-2.19668e-05
   4	0.000568048	0.000610941	-6.42364e-05
   5	0.00063946	0.000952458	0.000670066
   6	0.00122799	0.00156574	-0.000642001
   7	0.000204094	0.000163558	0.000763023
   8	0.000310568	0.000366463	0.000206643
   9	6.54855e-05	-0.000316581	0.000773256
  10	0.000322603	-0.00072842	-0.000688517
  11	0.000870517	-0.000856494	-8.71391e-05
  12	8.83873e-05	-0.000834433	-0.00100931
  13	0.00107661	-0.000263033	-5.38085e-05
  14	0.000674404	-0.000465562	-0.000969746
  15	0.000930985	-0.00103539	0.000488544
  16	0.000665461	-1.9895e-05	-0.000414628
  17	0.00128005	-0.000437522	0.000580343
  18	-0.00027587	-8.42499e-06	-0.00132557
  19	0.000431734	-0.00137586	-0.000916563
  20	0.000479108	-0.00157238	-0.000876849
  21	-0.000204148	-0.00210017	-0.00161277
  22	0.000476865	-0.00128354	-0.000558091
  23	0.00134475	-0.00154673	-0.00129183
  24	0.000534317	-0.00148403	-0.000494408
  25	-0.000186974	-0.00177333	-0.000616077
  26	0.000964784	-0.00121874	-0.00058446
  27	-0.00155742	-0.0018704	-0.000456149
  28	0.00063824	-0.00116075	-0.000291606
  29	0.000305333	-0.000899158	0.000390718
  30	0.000709711	-0.00126796	-0.000566471
  31	7.96298e-05	-0.000985454	3.66746e-05
  32	0.000335779	-0.0013597	-0.000395964
  33	0.000277659	-0.000642791	0.00134646
  34	-4.43477e-05	-0.00105326	8.48678e-05
  35	0.000120319	-0.000656204	-0.000259746
  36	3.71689e-05	-0.000835308	0.000854082
  37	-0.000584465	0.000653684	0.000319656
  38	0.000730375	0.000299714	0.000713169
  39	-0.000685829	0.00066662	2.62593e-05
  40	0.00100045	-0.000412886	0.00027564
  41	-0.00105748	0.00117382	0.000919693
  42	0.00150728	0.000644924	0.00136066
  43	0.000839782	-0.000628829	-0.000320949
  44	0.00138939	-0.000706148	0.000610988
  45	0.000324263	-0.000480858	-0.000723278
  46	-0.000295124	-0.000965221	0.000672656
  47	-0.000561123	-0.000221136	0.00137707
  48	8.25544e-05	-0.00160626	0.00125993
  49	-0.00059471	0.000364895	0.00106888
  50	0.000156609	-0.00114644	-7.36886e-05
  51	-0.000330071	-0.00010676	0.00299486
  52	-0.000936833	0.000557396	-0.000803438
  53	-0.000351203	0.00119357	0.00260555
  54	-0.00170757	-0.000188741	-0.00276338
  55	-0.000836613	0.000381311	0.000116876
  56	-0.00104854	-0.000354118	0.000279204
  57	-0.000885914	0.000501725	4.20605e-05
  58	-0.00119481	-0.000629065	0.000680889
  59	-0.00107791	0.000657879	-0.000230469
  60	-0.00118628	-0.000235389	-0.000361617
  61	-0.000307518	-0.000673323	0.000620279
  62	-0.00110638	-0.00107292	0.000543556
  63	-0.000590677	-0.00018139	0.00065667
  64	0.000309763	0.000638025	-6.59793e-06
  65	-0.000114709	0.000576167	-7.00614e-05
  66	0.00081107	0.000465203	-0.000129004
  67	-0.000368352	0.000527284	0.000243622
  68	0.000365971	0.000696591	0.000419606
  69	-0.000679796	0.000601742	-2.39258e-05
  70	2.95569e-05	0.000644483	0.000470169
  71	-0.000847569	0.000701288	9.08689e-05
  72	0.00134641	0.000311786	0.000528969
  73	-0.000428907	0.000496011	-6.21236e-05
  74	-0.000349078	0.000812275	2.76064e-05
  75	-0.000636397	0.00127587	0.000243163
  76	-0.000655938	0.00157208	0.000390592
  77	-0.00107228	-0.000355399	-0.000207696
  78	-0.000350394	-0.000110542	-0.000348465
  79	9.01893e-05	0.000988547	-0.000132067
  80	-0.00108746	0.00317996	0.00122
  81	-0.000511287	0.00271681	0.00064912
  82	-0.000758132	0.000897198	0.00041249
  83	-0.000700592	0.000879474	0.000421952
  84	-0.000288296	0.00132178	0.00145604
  85	-0.000287177	0.000575579	0.000158167
  86	-0.00180296	0.00064368	0.000596146
  87	7.07744e-05	0.000736092	-6.351e-05
  88	0.00101931	0.000369831	-0.000928353
  89	-0.00013694	0.000630993	0.000189409
  90	0.00314519	-0.000220332	-0.00233751
  91	0.000232026	-0.000496105	-0.00136499
  92	-0.000364352	-0.00135836	-0.000396893
  93	-0.000286433	0.000351604	-0.00141971
  94	-6.74391e-06	-0.000216094	-0.000279493
  95	0.000654689	-0.000403092	-0.00178196
  96	-0.00139934	-0.00361705	0.000539822
  97	-1.23362e-05	0.00121764	-0.000779167
  98	-0.000570322	-0.000967327	0.000372115
  99	0.000619414	0.00214699	-0.00196776
 100	-0.00149353	0.000518649	-1.87447e-05
 101	-0.00109481	0.000179755	-0.000288059
 102	-0.00306024	0.00108847	0.000498032
 103	-0.00070056	7.07941e-05	-0.000650955
 104	-0.000892601	0.00137275	-0.000435047
 105	-0.000671399	0.000192111	-0.000513376
 106	0.00101948	-0.000710324	-0.00150713
 107	-0.00121475	0.00047238	-0.000354898
 108	0.00291427	-0.00259616	-0.00288587
 109	6.18354e-05	0.000220586	0.000698122
 110	0.00128589	0.000294423	0.000701176
 111	-3.54459e-05	0.000406958	0.00231233
 112	0.00254534	0.00103002	0.00108832
 113	-0.00114451	0.000298679	0.000544414
 114	-0.00139017	-0.00113841	-6.4231e-05
 115	-0.000764133	-0.000806095	0.000658027
 116	0.00526266	0.00226573	0.00236772
 117	-0.00137115	-0.00134862	0.00154943
 118	-6.98302e-05	-0.000157513	0.000188301
 119	0.000203705	-4.1209e-05	0.000114044
 120	0.00115441	-0.000398756	0.000458004
 121	-0.000634842	0.000936502	-0.0006019
 122	-0.000360934	0.000995842	-0.000457238
 123	0.0015655	-0.00121007	0.000876373
 124	-0.000356447	0.000393756	-0.000164255
 125	-0.00166252	0.00198021	-0.00116434
 126	-0.00029036	-4.86745e-05	-0.000136116
 127	0.000324232	0.0009522	0.000361267
 128	0.000290166	0.000243788	0.000445302
 129	0.00132539	0.00197551	0.000813385
 130	-0.000877402	-0.000777321	0.00100224
 131	-0.000579708	0.00147715	-3.55782e-05
 132	0.00140372	0.001267	-0.000129099
 133	-0.00136394	-0.00113153	0.00103189
 134	-0.000721705	-0.000587749	0.000856972
 135	-0.00165841	-0.00138336	0.00117049
 136	0.000247421	0.000107672	-0.000952832
 137	-0.000123445	0.000406329	-0.00168849
 138	0.00163733	0.0014197	0.00390241
 139	0.000294528	0.000422289	-0.000771613
 140	0.000775661	0.00285363	-0.0047922
 141	-0.000315455	0.000907361	-0.00203306
 142	0.000575497	0.000279502	0.000892998
 143	-0.000447154	0.000135317	-0.00173688
 144	0.00022042	0.000119998	0.000816366
 145	-0.000174252	-0.000688817	0.00103187
 146	-0.00157063	-0.00486725	-0.00182343

Bonds

   1	3	1	2
   2	4	1	3
   3	4	1	5
   4	2	2	4
   5	5	2	6
   6	2	4	7
   7	6	4	8
   8	5	7	9
   9	3	10	11
  10	4	10	12
  11	4	10	14
  12	2	11	13
  13	5	11	15
  14	2	13	16
  15	6	13	17
  16	5	16	18
  17	3	1	16
  18	3	19	20
  19	4	19	21
  20	4	19	23
  21	2	20	22
  22	5	20	24
  23	2	22	25
  24	6	22	26
  25	5	25	27
  26	3	10	25
  27	3	28	29
  28	4	28	30
  29	4	28	32
  30	2	29	31
  31	5	29	33
  32	2	31	34
  33	6	31	35
  34	5	34	36
  35	3	19	34
  36	3	37	38
  37	4	37	39
  38	4	37	41
  39	2	38	40
  40	5	38	42
  41	2	40	43
  42	6	40	44
  43	5	43	45
  44	3	28	43
  45	3	46	47
  46	4	46	48
  47	4	46	50
  48	2	47	49
  49	5	47	51
  50	2	49	52
  51	6	49	53
  52	5	52	54
  53	3	37	52
  54	3	55	56
  55	4	55	57
  56	4	55	59
  57	2	56	58
  58	5	56	60
  59	2	58	61
  60	6	58	62
  61	5	61	63
  62	3	46	61
  63	3	64	65
  64	4	64	66
  65	4	64	68
  66	2	65	67
  67	5	65	69
  68	2	67	70
  69	6	67	71
  70	5	70	72
  71	3	55	70
  72	3	73	74
  73	4	73	75
  74	4	73	77
  75	2	74	76
  76	5	74	78
  77	2	76	79
  78	6	76	80
  79	5	79	81
  80	3	64	79
  81	3	82	83
  82	4	82	84
  83	4	82	86
  84	2	83	85
  85	5	83	87
  86	2	85	88
  87	6	85	89
  88	5	88	90
  89	3	73	88
  90	3	91	92
  91	4	91	93
  92	4	91	95
  93	2	92	94
  94	5	92	96
  95	2	94	97
  96	6	94	98
  97	5	97	99
  98	3	82	97
  99	3	100	101
 100	4	100	102
 101	4	100	104
 102	2	101	103
 103	5	101	105
 104	2	103	106
 105	6	103	107
 106	5	106	108
 107	3	91	106
 108	3	109	110
 109	4	109	111
 110	4	109	113
 111	2	110	112
 112	5	110	114
 113	2	112	115
 114	6	112	116
 115	5	115	117
 116	3	100	115
 117	3	118	119
 118	4	118	120
 119	4	118	122
 120	2	119	121
 121	5	119	123
 122	2	121	124
 123	6	121	125
 124	5	124	126
 125	3	109	124
 126	3	127	128
 127	4	127	129
 128	4	127	131
 129	2	128	130
 130	5	128	132
 131	2	130	133
 132	6	130	134
 133	5	133	135
 134	3	118	133
 135	3	136	137
 136	4	136	138
 137	4	136	140
 138	2	137	139
 139	5	137	141
 140	2	139	142
 141	6	139	143
 142	5	142	144
 143	3	127	142
 144	1	7	145
 145	4	136	146

Angles

   1	7	2	1	3
   2	7	2	1	5
   3	4	3	1	5
   4	8	1	2	4
   5	6	1	2	6
   6	2	4	2	6
   7	5	2	4	7
   8	1	2	4	8
   9	1	7	4	8
  10	2	4	7	9
  11	7	11	10	12
  12	7	11	10	14
  13	4	12	10	14
  14	8	10	11	13
  15	6	10	11	15
  16	2	13	11	15
  17	5	11	13	16
  18	1	11	13	17
  19	1	16	13	17
  20	2	13	16	18
  21	10	2	1	16
  22	7	3	1	16
  23	7	5	1	16
  24	8	1	16	13
  25	6	1	16	18
  26	7	20	19	21
  27	7	20	19	23
  28	4	21	19	23
  29	8	19	20	22
  30	6	19	20	24
  31	2	22	20	24
  32	5	20	22	25
  33	1	20	22	26
  34	1	25	22	26
  35	2	22	25	27
  36	10	11	10	25
  37	7	12	10	25
  38	7	14	10	25
  39	8	10	25	22
  40	6	10	25	27
  41	7	29	28	30
  42	7	29	28	32
  43	4	30	28	32
  44	8	28	29	31
  45	6	28	29	33
  46	2	31	29	33
  47	5	29	31	34
  48	1	29	31	35
  49	1	34	31	35
  50	2	31	34	36
  51	10	20	19	34
  52	7	21	19	34
  53	7	23	19	34
  54	8	19	34	31
  55	6	19	34	36
  56	7	38	37	39
  57	7	38	37	41
  58	4	39	37	41
  59	8	37	38	40
  60	6	37	38	42
  61	2	40	38	42
  62	5	38	40	43
  63	1	38	40	44
  64	1	43	40	44
  65	2	40	43	45
  66	10	29	28	43
  67	7	30	28	43
  68	7	32	28	43
  69	8	28	43	40
  70	6	28	43	45
  71	7	47	46	48
  72	7	47	46	50
  73	4	48	46	50
  74	8	46	47	49
  75	6	46	47	51
  76	2	49	47	51
  77	5	47	49	52
  78	1	47	49	53
  79	1	52	49	53
  80	2	49	52	54
  81	10	38	37	52
  82	7	39	37	52
  83	7	41	37	52
  84	8	37	52	49
  85	6	37	52	54
  86	7	56	55	57
  87	7	56	55	59
  88	4	57	55	59
  89	8	55	56	58
  90	6	55	56	60
  91	2	58	56	60
  92	5	56	58	61
  93	1	56	58	62
  94	1	61	58	62
  95	2	58	61	63
  96	10	47	46	61
  97	7	48	46	61
  98	7	50	46	61
  99	8	46	61	58
 100	6	46	61	63
 101	7	65	64	66
 102	7	65	64	68
 103	4	66	64	68
 104	8	64	65	67
 105	6	64	65	69
 106	2	67	65	69
 107	5	65	67	70
 108	1	65	67	71
 109	1	70	67	71
 110	2	67	70	72
 111	10	56	55	70
 112	7	57	55	70
 113	7	59	55	70
 114	8	55	70	67
 115	6	55	70	72
 116	7	74	73	75
 117	7	74	73	77
 118	4	75	73	77
 119	8	73	74	76
 120	6	73	74	78
 121	2	76	74	78
 122	5	74	76	79
 123	1	74	76	80
 124	1	79	76	80
 125	2	76	79	81
 126	10	65	64	79
 127	7	66	64	79
 128	7	68	64	79
 129	8	64	79	76
 130	6	64	79	81
 131	7	83	82	84
 132	7	83	82	86
 133	4	84	82	86
 134	8	82	83	85
 135	6	82	83	87
 136	2	85	83	87
 137	5	83	85	88
 138	1	83	85	89
 139	1	88	85	89
 140	2	85	88	90
 141	10	74	73	88
 142	7	75	73	88
 143	7	77	73	88
 144	8	73	88	85
 145	6	73	88	90
 146	7	92	91	93
 147	7	92	91	95
 148	4	93	91	95
 149	8	91	92	94
 150	6	91	92	96
 151	2	94	92	96
 152	5	92	94	97
 153	1	92	94	98
 154	1	97	94	98
 155	2	94	97	99
 156	10	83	82	97
 157	7	84	82	97
 158	7	86	82	97
 159	8	82	97	94
 160	6	82	97	99
 161	7	101	100	102
 162	7	101	100	104
 163	4	102	100	104
 164	8	100	101	103
 165	6	100	101	105
 166	2	103	101	105
 167	5	101	103	106
 168	1	101	103	107
 169	1	106	103	107
 170	2	103	106	108
 171	10	92	91	106
 172	7	93	91	106
 173	7	95	91	106
 174	8	91	106	103
 175	6	91	106	108
 176	7	110	109	111
 177	7	110	109	113
 178	4	111	109	113
 179	8	109	110	112
 180	6	109	110	114
 181	2	112	110	114
 182	5	110	112	115
 183	1	110	112	116
 184	1	115	112	116
 185	2	112	115	117
 186	10	101	100	115
 187	7	102	100	115
 188	7	104	100	115
 189	8	100	115	112
 190	6	100	115	117
 191	7	119	118	120
 192	7	119	118	122
 193	4	120	118	122
 194	8	118	119	121
 195	6	118	119	123
 196	2	121	119	123
 197	5	119	121	124
 198	1	119	121	125
 199	1	124	121	125
 200	2	121	124	126
 201	10	110	109	124
 202	7	111	109	124
 203	7	113	109	124
 204	8	109	124	121
 205	6	109	124	126
 206	7	128	127	129
 207	7	128	127	131
 208	4	129	127	131
 209	8	127	128	130
 210	6	127	128	132
 211	2	130	128	132
 212	5	128	130	133
 213	1	128	130	134
 214	1	133	130	134
 215	2	130	133	135
 216	10	119	118	133
 217	7	120	118	133
 218	7	122	118	133
 219	8	118	133	130
 220	6	118	133	135
 221	7	137	136	138
 222	7	137	136	140
 223	4	138	136	140
 224	8	136	137	139
 225	6	136	137	141
 226	2	139	137	141
 227	5	137	139	142
 228	1	137	139	143
 229	1	142	139	143
 230	2	139	142	144
 231	10	128	127	142
 232	7	129	127	142
 233	7	131	127	142
 234	8	127	142	139
 235	6	127	142	144
 236	9	4	7	145
 237	3	9	7	145
 238	7	137	136	146
 239	4	138	136	146
 240	4	140	136	146

Dihedrals

   1	4	3	1	2	4
   2	1	3	1	2	6
   3	4	5	1	2	4
   4	1	5	1	2	6
   5	2	1	2	4	7
   6	2	1	2	4	8
   7	2	6	2	4	7
   8	3	6	2	4	8
   9	2	2	4	7	9
  10	3	8	4	7	9
  11	4	12	10	11	13
  12	1	12	10	11	15
  13	4	14	10	11	13
  14	1	14	10	11	15
  15	2	10	11	13	16
  16	2	10	11	13	17
  17	2	15	11	13	16
  18	3	15	11	13	17
  19	2	11	13	16	18
  20	3	17	13	16	18
  21	4	4	2	1	16
  22	4	6	2	1	16
  23	2	1	16	13	11
  24	2	1	16	13	17
  25	4	2	1	16	13
  26	4	2	1	16	18
  27	4	3	1	16	13
  28	1	3	1	16	18
  29	4	5	1	16	13
  30	1	5	1	16	18
  31	4	21	19	20	22
  32	1	21	19	20	24
  33	4	23	19	20	22
  34	1	23	19	20	24
  35	2	19	20	22	25
  36	2	19	20	22	26
  37	2	24	20	22	25
  38	3	24	20	22	26
  39	2	20	22	25	27
  40	3	26	22	25	27
  41	4	13	11	10	25
  42	4	15	11	10	25
  43	2	10	25	22	20
  44	2	10	25	22	26
  45	4	11	10	25	22
  46	4	11	10	25	27
  47	4	12	10	25	22
  48	1	12	10	25	27
  49	4	14	10	25	22
  50	1	14	10	25	27
  51	4	30	28	29	31
  52	1	30	28	29	33
  53	4	32	28	29	31
  54	1	32	28	29	33
  55	2	28	29	31	34
  56	2	28	29	31	35
  57	2	33	29	31	34
  58	3	33	29	31	35
  59	2	29	31	34	36
  60	3	35	31	34	36
  61	4	22	20	19	34
  62	4	24	20	19	34
  63	2	19	34	31	29
  64	2	19	34	31	35
  65	4	20	19	34	31
  66	4	20	19	34	36
  67	4	21	19	34	31
  68	1	21	19	34	36
  69	4	23	19	34	31
  70	1	23	19	34	36
  71	4	39	37	38	40
  72	1	39	37	38	42
  73	4	41	37	38	40
  74	1	41	37	38	42
  75	2	37	38	40	43
  76	2	37	38	40	44
  77	2	42	38	40	43
  78	3	42	38	40	44
  79	2	38	40	43	45
  80	3	44	40	43	45
  81	4	31	29	28	43
  82	4	33	29	28	43
  83	2	28	43	40	38
  84	2	28	43	40	44
  85	4	29	28	43	40
  86	4	29	28	43	45
  87	4	30	28	43	40
  88	1	30	28	43	45
  89	4	32	28	43	40
  90	1	32	28	43	45
  91	4	48	46	47	49
  92	1	48	46	47	51
  93	4	50	46	47	49
  94	1	50	46	47	51
  95	2	46	47	49	52
  96	2	46	47	49	53
  97	2	51	47	49	52
  98	3	51	47	49	53
  99	2	47	49	52	54
 100	3	53	49	52	54
 101	4	40	38	37	52
 102	4	42	38	37	52
 103	2	37	52	49	47
 104	2	37	52	49	53
 105	4	38	37	52	49
 106	4	38	37	52	54
 107	4	39	37	52	49
 108	1	39	37	52	54
 109	4	41	37	52	49
 110	1	41	37	52	54
 111	4	57	55	56	58
 112	1	57	55	56	60
 113	4	59	55	56	58
 114	1	59	55	56	60
 115	2	55	56	58	61
 116	2	55	56	58	62
 117	2	60	56	58	61
 118	3	60	56	58	62
 119	2	56	58	61	63
 120	3	62	58	61	63
 121	4	49	47	46	61
 122	4	51	47	46	61
 123	2	46	61	58	56
 124	2	46	61	58	62
 125	4	47	46	61	58
 126	4	47	46	61	63
 127	4	48	46	61	58
 128	1	48	46	61	63
 129	4	50	46	61	58
 130	1	50	46	61	63
 131	4	66	64	65	67
 132	1	66	64	65	69
 133	4	68	64	65	67
 134	1	68	64	65	69
 135	2	64	65	67	70
 136	2	64	65	67	71
 137	2	69	65	67	70
 138	3	69	65	67	71
 139	2	65	67	70	72
 140	3	71	67	70	72
 141	4	58	56	55	70
 142	4	60	56	55	70
 143	2	55	70	67	65
 144	2	55	70	67	71
 145	4	56	55	70	67
 146	4	56	55	70	72
 147	4	57	55	70	67
 148	1	57	55	70	72
 149	4	59	55	70	67
 150	1	59	55	70	72
 151	4	75	73	74	76
 152	1	75	73	74	78
 153	4	77	73	74	76
 154	1	77	73	74	78
 155	2	73	74	76	79
 156	2	73	74	76	80
 157	2	78	74	76	79
 158	3	78	74	76	80
 159	2	74	76	79	81
 160	3	80	76	79	81
 161	4	67	65	64	79
 162	4	69	65	64	79
 163	2	64	79	76	74
 164	2	64	79	76	80
 165	4	65	64	79	76
 166	4	65	64	79	81
 167	4	66	64	79	76
 168	1	66	64	79	81
 169	4	68	64	79	76
 170	1	68	64	79	81
 171	4	84	82	83	85
 172	1	84	82	83	87
 173	4	86	82	83	85
 174	1	86	82	83	87
 175	2	82	83	85	88
 176	2	82	83	85	89
 177	2	87	83	85	88
 178	3	87	83	85	89
 179	2	83	85	88	90
 180	3	89	85	88	90
 181	4	76	74	73	88
 182	4	78	74	73	88
 183	2	73	88	85	83
 184	2	73	88	85	89
 185	4	74	73	88	85
 186	4	74	73	88	90
 187	4	75	73	88	85
 188	1	75	73	88	90
 189	4	77	73	88	85
 190	1	77	73	88	90
 191	4	93	91	92	94
 192	1	93	91	92	96
 193	4	95	91	92	94
 194	1	95	91	92	96
 195	2	91	92	94	97
 196	2	91	92	94	98
 197	2	96	92	94	97
 198	3	96	92	94	98
 199	2	92	94	97	99
 200	3	98	94	97	99
 201	4	85	83	82	97
 202	4	87	83	82	97
 203	2	82	97	94	92
 204	2	82	97	94	98
 205	4	83	82	97	94
 206	4	83	82	97	99
 207	4	84	82	97	94
 208	1	84	82	97	99
 209	4	86	82	97	94
 210	1	86	82	97	99
 211	4	102	100	101	103
 212	1	102	100	101	105
 213	4	104	100	101	103
 214	1	104	100	101	105
 215	2	100	101	103	106
 216	2	100	101	103	107
 217	2	105	101	103	106
 218	3	105	101	103	107
 219	2	101	103	106	108
 220	3	107	103	106	108
 221	4	94	92	91	106
 222	4	96	92	91	106
 223	2	91	106	103	101
 224	2	91	106	103	107
 225	4	92	91	106	103
 226	4	92	91	106	108
 227	4	93	91	106	103
 228	1	93	91	106	108
 229	4	95	91	106	103
 230	1	95	91	106	108
 231	4	111	109	110	112
 232	1	111	109	110	114
 233	4	113	109	110	112
 234	1	113	109	110	114
 235	2	109	110	112	115
 236	2	109	110	112	116
 237	2	114	110	112	115
 238	3	114	110	112	116
 239	2	110	112	115	117
 240	3	116	112	115	117
 241	4	103	101	100	115
 242	4	105	101	100	115
 243	2	100	115	112	110
 244	2	100	115	112	116
 245	4	101	100	115	112
 246	4	101	100	115	117
 247	4	102	100	115	112
 248	1	102	100	115	117
 249	4	104	100	115	112
 250	1	104	100	115	117
 251	4	120	118	119	121
 252	1	120	118	119	123
 253	4	122	118	119	121
 254	1	122	118	119	123
 255	2	118	119	121	124
 256	2	118	119	121	125
 257	2	123	119	121	124
 258	3	123	119	121	125
 259	2	119	121	124	126
 260	3	125	121	124	126
 261	4	112	110	109	124
 262	4	114	110	109	124
 263	2	109	124	121	119
 264	2	109	124	121	125
 265	4	110	109	124	121
 266	4	110	109	124	126
 267	4	111	109	124	121
 268	1	111	109	124	126
 269	4	113	109	124	121
 270	1	113	109	124	126
 271	4	129	127	128	130
 272	1	129	127	128	132
 273	4	131	127	128	130
 274	1	131	127	128	132
 275	2	127	128	130	133
 276	2	127	128	130	134
 277	2	132	128	130	133
 278	3	132	128	130	134
 279	2	128	130	133	135
 280	3	134	130	133	135
 281	4	121	119	118	133
 282	4	123	119	118	133
 283	2	118	133	130	128
 284	2	118	133	130	134
 285	4	119	118	133	130
 286	4	119	118	133	135
 287	4	120	118	133	130
 288	1	120	118	133	135
 289	4	122	118	133	130
 290	1	122	118	133	135
 291	4	138	136	137	139
 292	1	138	136	137	141
 293	4	140	136	137	139
 294	1	140	136	137	141
 295	2	136	137	139	142
 296	2	136	137	139	143
 297	2	141	137	139	142
 298	3	141	137	139	143
 299	2	137	139	142	144
 300	3	143	139	142	144
 301	4	130	128	127	142
 302	4	132	128	127	142
 303	2	127	142	139	137
 304	2	127	142	139	143
 305	4	128	127	142	139
 306	4	128	127	142	144
 307	4	129	127	142	139
 308	1	129	127	142	144
 309	4	131	127	142	139
 310	1	131	127	142	144
 311	2	2	4	7	145
 312	2	8	4	7	145
 313	4	139	137	136	146
 314	1	141	137	136	146

Impropers

   1	1	2	1	4	6
   2	2	4	2	7	8
   3	1	11	10	13	15
   4	2	13	11	16	17
   5	1	20	19	22	24
   6	2	22	20	25	26
   7	1	29	28	31	33
   8	2	31	29	34	35
   9	1	38	37	40	42
  10	2	40	38	43	44
  11	1	47	46	49	51
  12	2	49	47	52	53
  13	1	56	55	58	60
  14	2	58	56	61	62
  15	1	65	64	67	69
  16	2	67	65	70	71
  17	1	74	73	76	78
  18	2	76	74	79	80
  19	1	83	82	85	87
  20	2	85	83	88	89
  21	1	92	91	94	96
  22	2	94	92	97	98
  23	1	101	100	103	105
  24	2	103	101	106	107
  25	1	110	109	112	114
  26	2	112	110	115	116
  27	1	119	118	121	123
  28	2	121	119	124	125
  29	1	128	127	130	132
  30	2	130	128	133	134
  31	1	137	136	139	141
  32	2	139	137	142	143

