pySIMM System Object

353 atoms
352 bonds
585 angles
774 dihedrals
78 impropers

7 atom types
6 bond types
10 angle types
4 dihedral types
2 improper types

-110.312393 110.312393 xlo xhi
-110.312393 110.312393 ylo yhi
-110.312393 110.312393 zlo zhi

Masses

   1	12.01	# c3
   2	12.01	# c
   3	1.008	# hc
   4	14.01	# n
   5	16.0	# o
   6	1.008	# hn
   7	1.008	# h5

Pair Coeffs

   1	0.1094	3.3996695084235347	# c3
   2	0.086	3.3996695084235347	# c
   3	0.0157	2.649532787749369	# hc
   4	0.17	3.249998523775958	# n
   5	0.21	2.959921901149463	# o
   6	0.0157	1.069078461768407	# hn
   7	0.015	2.421462715905442	# h5

Bond Coeffs

   1	319.7	1.1051	# c,h5
   2	427.6	1.3789	# c,n
   3	313.0	1.5241	# c,c3
   4	330.6	1.0969	# c3,hc
   5	637.7	1.2183	# c,o
   6	403.2	1.0129	# hn,n

Angle Coeffs

   1	48.33	117.55	# c,n,hn
   2	74.22	123.05	# n,c,o
   3	53.7	123.65	# h5,c,o
   4	39.4	107.58	# hc,c3,hc
   5	63.74	127.08	# c,n,c
   6	67.4	123.2	# c3,c,o
   7	46.93	108.77	# c,c3,hc
   8	66.79	115.18	# c3,c,n
   9	51.42	112.16	# h5,c,n
  10	63.38	111.63	# c,c3,c

Dihedral Coeffs

   1	3	0.8	1	0	0.0	2	0	0.08	3	180	# hc,c3,c,o
   2	1	2.5	2	180	# X,c,n,X
   3	2	2.5	2	180	2.0	1	0	# hn,n,c,o
   4	1	0.0	2	180	# X,c,c3,X

Improper Coeffs

   1	10.5	-1	2	# c,X,X,o
   2	1.1	-1	2	# n,X,X,hn

Atoms

   1	1	1	-0.041892	17.4817	1.6296	9.84636
   2	1	2	0.591489	18.4276	0.603408	10.4267
   3	1	3	0.048074	16.637	1.80424	10.5235
   4	1	4	-0.651929	17.8661	-0.397537	11.1593
   5	1	3	0.049056	18.0117	2.57763	9.69852
   6	1	5	-0.529683	19.6171	0.628765	10.1899
   7	1	2	0.758009	18.4838	-1.4763	11.7065
   8	1	6	0.367145	16.8647	-0.379371	11.3149
   9	1	5	-0.590269	17.8181	-2.33229	12.2593
  10	1	1	-0.041892	16.7212	-0.419293	5.86406
  11	1	2	0.591489	17.8969	0.450863	6.28541
  12	1	3	0.048074	16.2858	-0.945848	6.71837
  13	1	4	-0.651929	17.9216	1.03153	7.52392
  14	1	3	0.049056	15.9441	0.215541	5.42462
  15	1	5	-0.529683	18.8946	0.570997	5.60557
  16	1	2	0.758009	16.983	1.1054	8.51995
  17	1	6	0.367145	18.8375	1.37991	7.75245
  18	1	5	-0.590269	15.825	0.779011	8.35958
  19	1	1	-0.041892	19.2131	-4.2095	6.48437
  20	1	2	0.591489	18.4664	-2.89135	6.44593
  21	1	3	0.048074	18.864	-4.87293	5.68438
  22	1	4	-0.651929	17.878	-2.56615	5.25144
  23	1	3	0.049056	20.2838	-4.02675	6.33867
  24	1	5	-0.529683	18.4528	-2.14637	7.40179
  25	1	2	0.758009	17.1678	-1.46372	4.85645
  26	1	6	0.367145	17.9835	-3.21064	4.48975
  27	1	5	-0.590269	16.7524	-1.48405	3.71778
  28	1	1	-0.041892	18.3721	-5.32321	10.8164
  29	1	2	0.591489	19.5139	-4.50796	10.229
  30	1	3	0.048074	18.383	-6.34053	10.4103
  31	1	4	-0.651929	19.6775	-4.36845	8.88013
  32	1	3	0.049056	18.5247	-5.40306	11.8987
  33	1	5	-0.529683	20.3018	-3.91667	10.9338
  34	1	2	0.758009	18.9651	-4.87173	7.82442
  35	1	6	0.367145	20.3321	-3.63721	8.66477
  36	1	5	-0.590269	18.2021	-5.80885	7.94419
  37	1	1	-0.041892	14.0056	-4.51242	9.91145
  38	1	2	0.591489	14.6324	-5.02162	11.2012
  39	1	3	0.048074	14.6789	-4.60962	9.0558
  40	1	4	-0.651929	15.9866	-5.18297	11.3018
  41	1	3	0.049056	13.1423	-5.1525	9.69522
  42	1	5	-0.529683	13.9624	-5.46649	12.1051
  43	1	2	0.758009	17.0186	-4.68024	10.5574
  44	1	6	0.367145	16.2441	-5.75203	12.0881
  45	1	5	-0.590269	16.8251	-3.77621	9.76728
  46	1	1	-0.041892	12.8853	-0.0821314	10.5699
  47	1	2	0.591489	14.1488	-0.844809	10.9453
  48	1	3	0.048074	13.0368	0.379984	9.58827
  49	1	4	-0.651929	14.3215	-2.17027	10.6374
  50	1	3	0.049056	12.0049	-0.720327	10.4917
  51	1	5	-0.529683	15.0746	-0.298517	11.5119
  52	1	2	0.758009	13.5048	-3.08652	10.0217
  53	1	6	0.367145	15.2199	-2.51907	10.9325
  54	1	5	-0.590269	12.4721	-2.76943	9.47209
  55	1	1	-0.041892	10.0283	-0.253424	14.058
  56	1	2	0.591489	11.202	-0.412218	13.111
  57	1	3	0.048074	10.4097	-0.0421224	15.0634
  58	1	4	-0.651929	11.7063	0.757959	12.6067
  59	1	3	0.049056	9.39981	0.591507	13.7556
  60	1	5	-0.529683	11.6756	-1.49233	12.8256
  61	1	2	0.758009	12.5958	0.999363	11.5966
  62	1	6	0.367145	11.3529	1.61393	12.9907
  63	1	5	-0.590269	12.8435	2.16867	11.3861
  64	1	1	-0.041892	7.4555	-2.25179	10.8256
  65	1	2	0.591489	8.25494	-1.38041	11.7749
  66	1	3	0.048074	7.99371	-3.19755	10.6926
  67	1	4	-0.651929	8.43921	-1.91892	13.0223
  68	1	3	0.049056	6.48057	-2.49967	11.2551
  69	1	5	-0.529683	8.72705	-0.306454	11.4617
  70	1	2	0.758009	9.19246	-1.52365	14.0934
  71	1	6	0.367145	7.97308	-2.78705	13.213
  72	1	5	-0.590269	9.08455	-2.1888	15.1011
  73	1	1	-0.041892	4.45103	0.847633	9.20362
  74	1	2	0.591489	5.28438	-0.188824	9.93191
  75	1	3	0.048074	5.05449	1.75629	9.09781
  76	1	4	-0.651929	6.29769	-0.72099	9.17888
  77	1	3	0.049056	4.21643	0.509178	8.18932
  78	1	5	-0.529683	5.11564	-0.48415	11.0965
  79	1	2	0.758009	7.31146	-1.59274	9.46244
  80	1	6	0.367145	6.35025	-0.423286	8.22168
  81	1	5	-0.590269	8.00796	-1.9128	8.52422
  82	1	1	-0.041892	0.18514	-0.679296	8.60151
  83	1	2	0.591489	1.66394	-0.454634	8.8714
  84	1	3	0.048074	-0.0262045	-1.75099	8.68561
  85	1	4	-0.651929	1.98073	0.648956	9.62103
  86	1	3	0.049056	-0.426868	-0.152445	9.34281
  87	1	5	-0.529683	2.51412	-1.23555	8.49772
  88	1	2	0.758009	3.18342	1.19791	9.97096
  89	1	6	0.367145	1.22212	1.17936	10.0077
  90	1	5	-0.590269	3.11239	2.2112	10.6325
  91	1	1	-0.041892	-3.83017	-0.856667	6.35755
  92	1	2	0.591489	-2.57143	-0.952214	7.20748
  93	1	3	0.048074	-4.19549	0.173126	6.31865
  94	1	4	-0.651929	-1.46213	-0.300235	6.73902
  95	1	3	0.049056	-4.61591	-1.44361	6.84827
  96	1	5	-0.529683	-2.55354	-1.55152	8.26105
  97	1	2	0.758009	-0.182906	-0.187298	7.20787
  98	1	6	0.367145	-1.58974	0.24402	5.89735
  99	1	5	-0.590269	0.567076	0.479586	6.52815
 100	1	1	-0.041892	-2.1858	1.07611	2.4972
 101	1	2	0.591489	-2.78936	0.633467	3.81208
 102	1	3	0.048074	-1.90486	0.220385	1.87687
 103	1	4	-0.651929	-3.18655	-0.675787	3.90438
 104	1	3	0.049056	-1.25158	1.60479	2.71848
 105	1	5	-0.529683	-2.74408	1.34234	4.79285
 106	1	2	0.758009	-3.62243	-1.43745	4.96075
 107	1	6	0.367145	-3.16417	-1.21501	3.04978
 108	1	5	-0.590269	-3.84832	-2.60206	4.72331
 109	1	1	-0.041892	-4.44433	0.434915	-1.36634
 110	1	2	0.591489	-3.99322	0.45297	0.081861
 111	1	3	0.048074	-4.51214	1.44399	-1.78601
 112	1	4	-0.651929	-3.72168	1.68292	0.614879
 113	1	3	0.049056	-3.69081	-0.101144	-1.9542
 114	1	5	-0.529683	-3.86361	-0.558658	0.740334
 115	1	2	0.758009	-3.11657	2.04835	1.78398
 116	1	6	0.367145	-4.05623	2.48472	0.102242
 117	1	5	-0.590269	-3.08202	3.23687	2.01505
 118	1	1	-0.041892	-8.6919	1.79024	-0.302694
 119	1	2	0.591489	-7.2447	1.55091	-0.67262
 120	1	3	0.048074	-9.34523	1.36879	-1.07494
 121	1	4	-0.651929	-6.94221	0.29187	-1.1167
 122	1	3	0.049056	-8.86274	2.86458	-0.289154
 123	1	5	-0.529683	-6.4264	2.44683	-0.655537
 124	1	2	0.758009	-5.76695	-0.300293	-1.48172
 125	1	6	0.367145	-7.6947	-0.379677	-1.13074
 126	1	5	-0.590269	-5.84756	-1.41707	-1.93964
 127	1	1	-0.041892	-10.4729	3.25004	3.75455
 128	1	2	0.591489	-9.85505	3.01494	2.38833
 129	1	3	0.048074	-10.0677	2.56088	4.50315
 130	1	4	-0.651929	-9.52715	1.71721	2.10767
 131	1	3	0.049056	-11.5495	3.05672	3.6901
 132	1	5	-0.529683	-9.74483	3.90315	1.56746
 133	1	2	0.758009	-8.98515	1.09291	1.01927
 134	1	6	0.367145	-9.65267	1.05773	2.85675
 135	1	5	-0.590269	-8.88963	-0.110578	1.10429
 136	1	1	-0.041892	-6.5501	5.35858	4.6333
 137	1	2	0.591489	-7.7989	4.49553	4.58942
 138	1	3	0.048074	-6.34482	5.62543	5.67624
 139	1	4	-0.651929	-9.00488	5.14884	4.50024
 140	1	3	0.049056	-5.68858	4.79536	4.25581
 141	1	5	-0.529683	-7.73461	3.28392	4.56888
 142	1	2	0.758009	-10.2535	4.69368	4.18017
 143	1	6	0.367145	-8.99003	6.15233	4.61444
 144	1	5	-0.590269	-11.1071	5.53381	3.98945
 145	1	1	-0.041892	-7.1728	5.97277	0.123606
 146	1	2	0.591489	-6.84125	5.60395	1.55379
 147	1	3	0.048074	-7.4141	5.06899	-0.446632
 148	1	4	-0.651929	-6.84805	6.62652	2.46852
 149	1	3	0.049056	-6.29554	6.44196	-0.336047
 150	1	5	-0.529683	-6.70776	4.44666	1.88314
 151	1	2	0.758009	-6.72087	6.6384	3.82984
 152	1	6	0.367145	-7.02508	7.5562	2.11251
 153	1	5	-0.590269	-7.11241	7.64672	4.37328
 154	1	1	-0.041892	-12.0134	6.16247	0.548743
 155	1	2	0.591489	-10.8023	7.03792	0.31191
 156	1	3	0.048074	-12.6549	6.61835	1.31184
 157	1	4	-0.651929	-9.5817	6.40773	0.311222
 158	1	3	0.049056	-11.7383	5.16428	0.895111
 159	1	5	-0.529683	-10.9506	8.19289	-0.0210711
 160	1	2	0.758009	-8.33906	6.93626	0.0661811
 161	1	6	0.367145	-9.59708	5.42471	0.553873
 162	1	5	-0.590269	-8.14303	8.12641	-0.0428316
 163	1	1	-0.041892	-14.7812	5.69355	-3.1102
 164	1	2	0.591489	-14.9939	6.42414	-1.7902
 165	1	3	0.048074	-14.1352	4.81917	-2.98971
 166	1	4	-0.651929	-14.034	6.44436	-0.811691
 167	1	3	0.049056	-15.754	5.31757	-3.44836
 168	1	5	-0.529683	-16.0621	6.90166	-1.48529
 169	1	2	0.758009	-12.7298	6.03186	-0.775406
 170	1	6	0.367145	-14.387	6.87378	0.0279325
 171	1	5	-0.590269	-12.1599	5.60658	-1.76266
 172	1	1	-0.041892	-10.7963	8.02932	-4.4127
 173	1	2	0.591489	-12.0908	7.53295	-5.02627
 174	1	3	0.048074	-10.8853	8.03398	-3.31968
 175	1	4	-0.651929	-12.8829	6.80569	-4.17269
 176	1	3	0.049056	-10.6501	9.06946	-4.72612
 177	1	5	-0.529683	-12.4653	7.93345	-6.10551
 178	1	2	0.758009	-14.2422	6.62091	-4.18319
 179	1	6	0.367145	-12.4129	6.37813	-3.3884
 180	1	5	-0.590269	-14.9849	7.21481	-4.93237
 181	1	1	-0.041892	-6.64749	6.25134	-5.18935
 182	1	2	0.591489	-7.2217	6.99253	-3.98859
 183	1	3	0.048074	-7.00819	5.21735	-5.20758
 184	1	4	-0.651929	-8.49447	7.4823	-3.99913
 185	1	3	0.049056	-6.966	6.7428	-6.11709
 186	1	5	-0.529683	-6.58951	7.18234	-2.97229
 187	1	2	0.758009	-9.56681	7.23897	-4.81395
 188	1	6	0.367145	-8.65641	8.12461	-3.24035
 189	1	5	-0.590269	-9.56541	6.29439	-5.57453
 190	1	1	-0.041892	-2.22982	6.40692	-4.13278
 191	1	2	0.591489	-3.2835	5.40688	-3.67718
 192	1	3	0.048074	-2.63686	7.42269	-4.07352
 193	1	4	-0.651929	-4.54872	5.45622	-4.19734
 194	1	3	0.049056	-1.9781	6.20956	-5.18111
 195	1	5	-0.529683	-3.10699	4.60413	-2.78543
 196	1	2	0.758009	-5.13067	6.29092	-5.12012
 197	1	6	0.367145	-5.16863	4.83006	-3.7197
 198	1	5	-0.590269	-4.48784	7.09958	-5.75443
 199	1	1	-0.041892	1.64647	7.13674	-1.64646
 200	1	2	0.591489	0.290659	7.82549	-1.69487
 201	1	3	0.048074	1.68077	6.20578	-2.21032
 202	1	4	-0.651929	-0.765528	7.38075	-2.44894
 203	1	3	0.049056	1.83598	6.86379	-0.608438
 204	1	5	-0.529683	0.0808337	8.82926	-1.04931
 205	1	2	0.758009	-0.961688	6.32319	-3.3035
 206	1	6	0.367145	-1.54683	8.00228	-2.34928
 207	1	5	-0.590269	-0.0938082	5.5175	-3.55988
 208	1	1	-0.041892	5.92132	7.65529	-0.261481
 209	1	2	0.591489	4.43098	7.87421	-0.422284
 210	1	3	0.048074	6.35193	7.26125	-1.1839
 211	1	4	-0.651929	3.97394	8.09017	-1.69743
 212	1	3	0.049056	6.05984	6.86856	0.488482
 213	1	5	-0.529683	3.67749	7.7942	0.520589
 214	1	2	0.758009	2.70676	8.07104	-2.22181
 215	1	6	0.367145	4.65221	8.35054	-2.39261
 216	1	5	-0.590269	2.63482	8.44486	-3.37375
 217	1	1	-0.041892	9.47329	9.95616	-2.0036
 218	1	2	0.591489	8.09412	9.35839	-1.71642
 219	1	3	0.048074	9.39916	11.0462	-1.91708
 220	1	4	-0.651929	7.69568	9.43064	-0.410808
 221	1	3	0.049056	10.1665	9.61978	-1.22311
 222	1	5	-0.529683	7.34801	8.90017	-2.56031
 223	1	2	0.758009	6.62114	8.90763	0.255981
 224	1	6	0.367145	8.25378	9.9901	0.212291
 225	1	5	-0.590269	6.56209	9.23137	1.41961
 226	1	1	-0.041892	8.58111	7.71557	-6.19118
 227	1	2	0.591489	9.70355	8.46358	-5.51412
 228	1	3	0.048074	7.69104	7.67769	-5.55083
 229	1	4	-0.651929	9.43321	8.83741	-4.22682
 230	1	3	0.049056	8.30793	8.23008	-7.11917
 231	1	5	-0.529683	10.7169	8.74571	-6.11319
 232	1	2	0.758009	10.1226	9.63549	-3.35292
 233	1	6	0.367145	8.54628	8.51398	-3.87043
 234	1	5	-0.590269	11.1781	10.1526	-3.64279
 235	1	1	-0.041892	9.66577	3.48067	-7.612
 236	1	2	0.591489	9.41265	4.76246	-8.38998
 237	1	3	0.048074	10.2722	2.81043	-8.23142
 238	1	4	-0.651929	9.16371	5.95807	-7.77642
 239	1	3	0.049056	10.2272	3.66372	-6.69052
 240	1	5	-0.529683	9.28639	4.73447	-9.59604
 241	1	2	0.758009	9.04986	6.30727	-6.45691
 242	1	6	0.367145	9.03994	6.7044	-8.43749
 243	1	5	-0.590269	9.09294	5.49324	-5.56356
 244	1	1	-0.041892	5.53134	2.4165	-9.79458
 245	1	2	0.591489	6.21918	2.21618	-8.46488
 246	1	3	0.048074	6.11163	3.08709	-10.4396
 247	1	4	-0.651929	7.50532	2.68683	-8.39824
 248	1	3	0.049056	4.55466	2.88232	-9.61836
 249	1	5	-0.529683	5.6108	1.77486	-7.51716
 250	1	2	0.758009	8.34297	2.80249	-7.31568
 251	1	6	0.367145	7.89296	3.03529	-9.26057
 252	1	5	-0.590269	8.04085	2.45078	-6.19723
 253	1	1	-0.041892	4.77554	-0.758359	-13.0075
 254	1	2	0.591489	3.83733	0.206815	-12.2936
 255	1	3	0.048074	4.85945	-0.444294	-14.0537
 256	1	4	-0.651929	4.23008	0.991629	-11.2437
 257	1	3	0.049056	5.78643	-0.79198	-12.6046
 258	1	5	-0.529683	2.72439	0.428131	-12.7133
 259	1	2	0.758009	5.3724	1.08699	-10.4954
 260	1	6	0.367145	3.4931	1.62507	-10.9868
 261	1	5	-0.590269	6.32049	0.351191	-10.6659
 262	1	1	-0.041892	2.55912	-4.49508	-11.9249
 263	1	2	0.591489	3.91174	-4.03571	-11.3862
 264	1	3	0.048074	2.00679	-3.67541	-12.394
 265	1	4	-0.651929	4.46254	-2.87354	-11.8471
 266	1	3	0.049056	2.71855	-5.27253	-12.6802
 267	1	5	-0.529683	4.43062	-4.53303	-10.4089
 268	1	2	0.758009	4.16614	-2.13716	-12.9603
 269	1	6	0.367145	5.13458	-2.48554	-11.209
 270	1	5	-0.590269	3.62043	-2.63583	-13.923
 271	1	1	-0.041892	1.67005	-2.56577	-7.96566
 272	1	2	0.591489	1.66197	-2.94318	-9.42873
 273	1	3	0.048074	2.71091	-2.40328	-7.66314
 274	1	4	-0.651929	1.427	-4.26721	-9.69663
 275	1	3	0.049056	1.28013	-3.37503	-7.33904
 276	1	5	-0.529683	1.95335	-2.14318	-10.2935
 277	1	2	0.758009	1.69666	-5.03502	-10.7969
 278	1	6	0.367145	1.01044	-4.8104	-8.9606
 279	1	5	-0.590269	1.33542	-6.19215	-10.7598
 280	1	1	-0.041892	-2.64645	-2.08562	-6.75185
 281	1	2	0.591489	-1.34714	-2.34963	-7.48142
 282	1	3	0.048074	-3.181	-1.25124	-7.20809
 283	1	4	-0.651929	-0.426572	-1.34059	-7.39176
 284	1	3	0.049056	-2.41295	-1.77687	-5.72675
 285	1	5	-0.529683	-1.10154	-3.38503	-8.06495
 286	1	2	0.758009	0.888929	-1.28175	-7.75306
 287	1	6	0.367145	-0.734861	-0.466552	-7.00645
 288	1	5	-0.590269	1.44137	-0.22522	-7.53621
 289	1	1	-0.041892	-6.48573	-3.44375	-8.93244
 290	1	2	0.591489	-5.17746	-2.86446	-8.43937
 291	1	3	0.048074	-6.85646	-4.21169	-8.24267
 292	1	4	-0.651929	-4.56435	-3.58571	-7.4483
 293	1	3	0.049056	-6.31318	-3.93026	-9.899
 294	1	5	-0.529683	-4.72397	-1.82983	-8.87823
 295	1	2	0.758009	-3.46447	-3.36488	-6.67117
 296	1	6	0.367145	-5.0292	-4.42547	-7.15592
 297	1	5	-0.590269	-3.25237	-4.18577	-5.80492
 298	1	1	-0.041892	-9.43657	-2.41477	-5.85902
 299	1	2	0.591489	-8.18247	-2.29707	-6.69822
 300	1	3	0.048074	-10.203	-1.70524	-6.19046
 301	1	4	-0.651929	-8.35603	-2.0774	-8.03921
 302	1	3	0.049056	-9.16939	-2.1846	-4.82182
 303	1	5	-0.529683	-7.08382	-2.47816	-6.22063
 304	1	2	0.758009	-7.53241	-2.34995	-9.09419
 305	1	6	0.367145	-9.2521	-1.75834	-8.35884
 306	1	5	-0.590269	-8.00218	-2.09248	-10.1809
 307	1	1	-0.041892	-12.4629	-4.74932	-3.29013
 308	1	2	0.591489	-11.4756	-3.83368	-3.98604
 309	1	3	0.048074	-13.1986	-5.10695	-4.01035
 310	1	4	-0.651929	-10.8847	-4.34845	-5.10821
 311	1	3	0.049056	-13.0124	-4.16959	-2.54017
 312	1	5	-0.529683	-11.2697	-2.6975	-3.61487
 313	1	2	0.758009	-9.95502	-3.84532	-5.97208
 314	1	6	0.367145	-11.1566	-5.27782	-5.38109
 315	1	5	-0.590269	-9.64743	-4.58239	-6.8849
 316	1	1	-0.041892	-12.6372	-9.40101	-3.58851
 317	1	2	0.591489	-12.6889	-7.88884	-3.71885
 318	1	3	0.048074	-12.2876	-9.69542	-2.59234
 319	1	4	-0.651929	-11.9663	-7.19509	-2.78074
 320	1	3	0.049056	-11.9175	-9.78198	-4.3223
 321	1	5	-0.529683	-13.159	-7.3463	-4.69374
 322	1	2	0.758009	-11.7214	-5.86485	-2.56393
 323	1	6	0.367145	-11.48	-7.74567	-2.09415
 324	1	5	-0.590269	-10.9316	-5.62711	-1.6793
 325	1	1	-0.041892	-16.3889	-11.9605	-4.51508
 326	1	2	0.591489	-14.9109	-12.1472	-4.83042
 327	1	3	0.048074	-16.6444	-10.9005	-4.44288
 328	1	4	-0.651929	-13.9652	-11.2161	-4.49625
 329	1	3	0.049056	-16.6437	-12.423	-3.55661
 330	1	5	-0.529683	-14.4908	-13.1081	-5.4399
 331	1	2	0.758009	-14.0017	-10.0248	-3.81846
 332	1	6	0.367145	-13.0661	-11.4964	-4.84202
 333	1	5	-0.590269	-14.9849	-9.64424	-3.22155
 334	1	1	-0.041892	-17.3859	-16.2834	-5.71264
 335	1	2	0.591489	-17.1445	-14.9498	-5.03097
 336	1	3	0.048074	-16.6293	-16.4162	-6.4946
 337	1	4	-0.651929	-17.4691	-13.8631	-5.79691
 338	1	3	0.049056	-18.3679	-16.2679	-6.20065
 339	1	5	-0.529683	-16.6251	-14.846	-3.94092
 340	1	2	0.758009	-17.2132	-12.5273	-5.66017
 341	1	6	0.367145	-17.9144	-14.0442	-6.67835
 342	1	5	-0.590269	-17.5658	-11.8323	-6.58801
 343	1	1	-0.041892	-16.3471	-20.0367	-3.29658
 344	1	2	0.591489	-15.6385	-18.6829	-3.3646
 345	1	3	0.048074	-15.62	-20.8125	-3.02799
 346	1	4	-0.651929	-16.1522	-17.6464	-4.09279
 347	1	3	0.049056	-16.7824	-20.3086	-4.26418
 348	1	5	-0.529683	-14.5629	-18.4975	-2.83778
 349	1	2	0.758009	-17.3294	-17.4747	-4.77036
 350	1	6	0.367145	-15.5626	-16.8308	-4.04624
 351	1	5	-0.590269	-18.182	-18.3357	-4.82047
 352	1	7	0	19.5762	-1.51561	11.5474
 353	1	3	0	-17.1382	-20.0142	-2.5368

Velocities

   1	-0.000363583	-0.000735444	0.000354883
   2	8.26293e-05	-0.000239539	0.000265217
   3	-0.000354994	-0.00123833	0.000343366
   4	0.000343465	0.000309211	0.000862953
   5	-0.00068593	-0.000849101	0.000136133
   6	-0.00019756	-0.000182947	-1.59382e-05
   7	-7.08963e-06	-0.000114293	0.00100834
   8	0.000353316	0.000109061	0.000953708
   9	-0.000146947	-0.000609847	6.74478e-05
  10	-5.68549e-05	-0.000229854	-7.61219e-05
  11	-0.000561974	0.000524383	-0.00016909
  12	0.000552395	-0.000594949	3.3887e-06
  13	-0.000610937	0.00012276	2.43095e-05
  14	-0.00067647	-0.000564159	0.000585225
  15	-0.000642349	0.00125788	2.27148e-05
  16	-0.000318089	-0.000781503	0.000324659
  17	-0.000789385	0.000717152	-8.62895e-05
  18	-0.000563875	-0.000553005	0.00023617
  19	-0.000519175	-0.00011105	0.000190984
  20	-5.92924e-06	8.91329e-05	-0.000332469
  21	-0.000674643	-0.000341841	0.0004609
  22	0.000193742	0.000114429	-0.000399018
  23	-0.000448951	-0.000532905	0.000156604
  24	0.00030181	0.000300568	-0.000507442
  25	0.000386529	0.000225743	-0.000326827
  26	-0.000164379	0.000126103	-0.000292229
  27	-0.00015509	0.000207257	-0.000159159
  28	-0.000189224	0.000819997	0.000787048
  29	-0.000126504	0.000506861	0.000495548
  30	-0.000428974	0.00076873	0.000911328
  31	-0.000390363	0.0004278	0.000367508
  32	2.45509e-05	0.000881814	0.000759585
  33	0.000290623	0.000203869	0.000242081
  34	-0.000600156	0.000420618	0.000517834
  35	-0.000241361	0.000257096	0.000167063
  36	-0.000536867	0.000319715	0.000787605
  37	3.26305e-05	-0.000133975	-0.000649811
  38	-0.000463466	-0.000489638	-0.000575168
  39	0.000554882	0.000668239	-0.000319041
  40	-0.000356083	0.000242902	0.000151981
  41	0.000436759	-0.000413383	-0.00145122
  42	-0.00074482	-0.00154045	-0.00132577
  43	-0.000142678	0.000894405	0.000924324
  44	-0.000590444	-8.21509e-05	-6.941e-06
  45	-0.00012326	0.00103752	0.000965482
  46	-1.86623e-05	1.52343e-05	-0.000690231
  47	-0.000211394	-0.000286197	-0.000610032
  48	0.000111727	-2.4873e-05	-0.000685448
  49	-0.000604249	-0.000329297	-0.000188832
  50	-0.000136303	0.000141663	-0.000682214
  51	-3.38709e-05	-0.000354289	-0.00082807
  52	-0.000655798	-0.000385713	-8.78647e-05
  53	-0.000637261	-0.000395656	-0.000154056
  54	-0.000679399	-0.000485028	-1.86785e-05
  55	0.000189967	0.00021583	-0.000621773
  56	0.000136185	0.000379034	-0.000696856
  57	0.000334	0.000236871	-0.000675143
  58	6.13049e-05	0.000349211	-0.000826673
  59	8.04161e-05	0.000172061	-0.00050287
  60	0.000572662	0.000437315	-0.000264417
  61	0.0003966	6.44067e-05	-0.000655219
  62	0.000181031	0.000390225	-0.000860672
  63	0.00126806	-5.9847e-05	-0.000385907
  64	-0.000535173	-0.000110453	-5.34046e-05
  65	-0.000650458	-1.18138e-05	-4.72207e-06
  66	-0.00057629	-0.000171223	5.19981e-05
  67	0.000251946	-0.000216035	-0.000256456
  68	-0.000598441	-0.000123609	-0.000166929
  69	-0.00143704	0.000430821	0.000194519
  70	0.000488906	8.44184e-06	-0.000449611
  71	0.000828245	-0.000512428	-0.00022208
  72	0.00122964	-0.000236512	-0.000566645
  73	-3.11852e-05	0.000328947	-0.00011183
  74	-0.000104823	0.000104471	-0.000323957
  75	-6.953e-05	0.000430234	0.000323718
  76	-0.000183923	-3.42109e-05	-0.000288128
  77	0.000190625	0.000666778	-0.000292155
  78	-0.000148001	7.01423e-05	-0.000304578
  79	-0.0003058	-0.000180514	-9.80293e-05
  80	6.13272e-05	8.44398e-05	-0.000210399
  81	0.000222811	0.00018368	0.000174427
  82	0.000400249	-0.000954831	-0.000331641
  83	0.000358876	-0.000497606	-0.000386985
  84	0.00103699	-0.00123085	-0.00211142
  85	-3.44684e-05	-0.000384872	-0.000419189
  86	0.000307428	-0.00256894	0.000762927
  87	0.00061914	-0.000113332	-0.000597497
  88	-0.000226205	-0.000115723	-0.000233244
  89	-0.000227182	-0.00052864	-0.000632596
  90	-0.000546057	-0.000417161	0.000202697
  91	0.000348487	0.000594718	-0.000528658
  92	0.000456393	-0.000416685	-0.000794073
  93	0.000907457	0.000796568	-0.000212741
  94	5.2397e-06	0.0012017	0.000432327
  95	3.10489e-05	0.000924261	-0.000613698
  96	0.000902806	-0.00254386	-0.00200654
  97	-6.60968e-05	0.00130515	0.000623438
  98	-0.00034482	0.00259301	0.00133749
  99	-0.000664939	0.00337589	0.00199313
 100	0.000297318	0.00129669	-0.000131921
 101	0.000489271	0.000922445	-0.000161507
 102	0.0008642	0.00144253	-0.000113861
 103	-0.000198827	0.00108083	-0.000602624
 104	-8.43344e-05	0.00184823	4.09523e-05
 105	0.00115569	0.000553135	6.35006e-05
 106	-7.33919e-05	0.000865485	-0.000714307
 107	-0.000714031	0.00138732	-0.000839228
 108	-0.000627199	0.00104069	-0.000981192
 109	0.000466317	-0.000742767	0.000385707
 110	0.000213113	-0.000197619	0.00045387
 111	0.000808805	-0.000890746	-3.1417e-05
 112	-0.00025422	0.000118426	-4.42826e-06
 113	0.000512325	-0.00121537	0.000877411
 114	0.000783875	6.05138e-05	0.000702343
 115	-0.000141676	0.000758714	-0.000292411
 116	-0.00053381	-0.000207806	-0.000328478
 117	-0.000401816	0.000897057	-0.000834389
 118	7.03796e-05	-0.00101621	0.000158658
 119	0.00016523	-0.000624156	0.000222074
 120	0.0003145	-0.00172196	0.000305601
 121	0.000397796	-0.000557316	0.000393976
 122	-0.000577001	-0.00112598	-0.000285631
 123	-2.88302e-06	-0.000365298	-0.000209573
 124	0.000342215	-0.000542631	0.000192198
 125	0.000445216	-0.000625816	0.000393532
 126	0.000155997	-0.000251903	-0.000322406
 127	-0.000179917	-0.000153435	-0.000170449
 128	-0.000357194	-0.000432229	-0.000198362
 129	-0.000183599	-5.9346e-05	-4.19924e-05
 130	0.000215131	-0.000368176	0.000262585
 131	-0.000192242	-0.000208218	-2.60482e-05
 132	-0.00106661	-0.000647542	-0.000647428
 133	0.000239725	-0.000727101	0.000405387
 134	0.000611712	-0.000184003	0.000523605
 135	0.00062618	-0.000569669	0.000858051
 136	0.000117329	-0.00043016	-0.000283469
 137	-0.000279782	7.07717e-05	0.000135424
 138	0.000637894	-0.000643162	-0.000308715
 139	-0.000155468	0.000190887	-0.000781593
 140	-0.000327764	-0.00090495	-0.000536881
 141	-0.000619429	2.83256e-05	0.00155382
 142	-0.000193213	-4.9906e-05	-0.000453121
 143	-0.000172539	0.000221671	-0.00128414
 144	-0.000282931	-0.000133691	-0.000532818
 145	0.000584498	5.49958e-05	-0.000267351
 146	5.23821e-06	-0.000111073	-0.000192676
 147	0.00118147	0.000166646	-0.000715479
 148	0.000468189	-0.000158647	-0.000187414
 149	0.000672545	0.000485869	0.000322586
 150	-0.000564721	-0.000206627	-0.000195144
 151	0.000783478	-0.000270739	-0.000193305
 152	0.00108515	-7.44476e-06	-0.000117271
 153	0.00254227	0.000286839	-3.73944e-05
 154	-7.02713e-05	0.00173836	-3.21549e-05
 155	0.000513554	0.00059289	-0.00154896
 156	-9.69057e-05	0.0042245	-0.00152933
 157	0.000349482	0.000112603	-0.000385764
 158	-0.000831874	0.00257568	0.00300657
 159	0.00110379	3.70551e-05	-0.00349636
 160	0.000436713	-0.000161149	-0.000690529
 161	5.45012e-06	0.00028269	0.00039586
 162	0.000448468	-0.000251538	-0.00149433
 163	0.000194262	-0.000700333	-0.000889108
 164	0.000481256	-0.000533531	-0.00100329
 165	1.90776e-05	-0.000837467	-0.000967525
 166	0.00048051	-6.93081e-05	-0.00101988
 167	1.26607e-05	-0.00027729	-0.000860488
 168	0.000644565	-3.0013e-05	-0.00120778
 169	0.000140605	-0.00104551	-1.61707e-05
 170	0.000566309	0.00101079	-0.0015799
 171	0.000121448	-0.00247608	0.000602238
 172	0.000110455	0.000887116	0.00200424
 173	0.000333994	0.00110575	0.00159098
 174	-0.000195206	0.00102533	0.00198732
 175	0.000126292	0.000833539	0.00107141
 176	0.000640436	0.000788448	0.00187305
 177	0.00102466	0.00087468	0.00123795
 178	0.000408372	-0.000898103	-0.000853137
 179	-0.000368719	0.00134444	0.0016625
 180	0.000743329	-0.00323087	-0.00304348
 181	-0.000858148	-0.000793399	0.00206904
 182	-0.000499688	-0.000521368	0.00206692
 183	-0.000292129	-0.000988215	0.00302162
 184	-0.00040554	-0.000399882	0.00238852
 185	-0.00170493	-0.00160491	0.00190828
 186	-0.000214721	-0.00046302	0.00187901
 187	-0.000320835	0.000254371	0.0021818
 188	-0.000291662	-0.000556241	0.00256244
 189	-0.000521695	0.000772249	0.00154895
 190	-8.35453e-05	7.08631e-05	2.63167e-05
 191	0.000196779	-0.000223235	-5.47492e-05
 192	-0.000339027	-6.42818e-05	0.000591325
 193	-0.000241652	0.000288649	0.00116599
 194	-0.00039054	0.000670496	-0.00016768
 195	0.000723955	-0.000885494	-0.000698299
 196	-0.000806359	-6.39317e-05	0.00122945
 197	-8.30619e-05	0.00066919	0.00182416
 198	-0.0011823	-0.000993868	-0.00023726
 199	0.000158195	5.6627e-05	0.000399694
 200	0.00057537	0.00061187	-0.00101067
 201	9.05437e-06	-0.000339276	0.00109553
 202	0.000463488	0.00029681	-0.000672205
 203	-0.000781291	0.000829385	0.000769631
 204	0.00107103	0.00156535	-0.00232726
 205	0.000251989	7.95361e-05	-0.000321932
 206	0.000612521	0.000599425	-0.0011332
 207	0.000366887	0.000265934	-0.000553418
 208	0.000195059	-0.00093308	0.0011712
 209	0.000235079	-0.00123629	0.00116121
 210	0.00038452	-0.000919803	0.0011921
 211	0.000611299	-0.000796219	0.00111024
 212	0.000374972	-0.000536856	0.00153358
 213	0.000145577	-0.00172158	0.00104683
 214	0.000850054	-0.000619326	0.000576404
 215	0.000882629	-0.0006307	0.00142542
 216	0.00141766	-0.000518005	0.000570199
 217	-0.00170311	8.73732e-05	-0.000299316
 218	-0.00155007	3.16951e-05	-0.000288724
 219	-0.00137954	-1.71368e-06	0.000882539
 220	-0.000580233	-0.000699853	2.2769e-05
 221	-0.00154175	-0.000985446	-0.000894102
 222	-0.00226206	0.00103805	-0.000333718
 223	-0.000360566	-0.000440242	0.000521339
 224	0.000137014	-0.00136898	-2.3694e-05
 225	-0.000133837	-1.21192e-06	0.000363584
 226	0.000486966	0.000267169	-0.00125922
 227	-0.000408048	0.000908656	-0.00058151
 228	-0.000533824	0.00120783	-0.00267094
 229	-0.00210754	0.00192814	-0.00119651
 230	0.00223865	-0.000483245	-0.00217657
 231	0.000411114	0.00032122	0.000545837
 232	-0.00193962	0.00103087	-0.000537299
 233	-0.00278674	0.0027673	-0.00211042
 234	-0.000586404	-0.000983067	0.000931191
 235	-6.78816e-05	-0.000718989	-5.0722e-05
 236	0.000827914	-0.000355433	0.000359683
 237	-0.000991369	-0.00103446	-0.000652733
 238	0.000413106	-0.000570096	0.000492006
 239	0.000483421	-0.0013837	-0.00023011
 240	0.00165219	0.000258119	0.000281835
 241	0.000723737	-1.42424e-05	0.000348845
 242	0.000206327	-0.000673481	0.000448336
 243	0.00171723	0.000612033	0.000906581
 244	-0.000636133	-0.000498183	0.000633528
 245	-0.00022616	-0.000881026	0.000417712
 246	-0.00196286	0.0013913	0.00145093
 247	-0.000584145	0.000309516	0.000340888
 248	-0.0013321	-0.00231922	0.00162208
 249	0.000325808	-0.00147942	0.000365719
 250	-0.000450301	0.000345632	0.000211886
 251	-0.00102841	0.000774848	0.000371285
 252	0.000319833	-0.00111661	7.3637e-05
 253	-3.60372e-05	-0.000142736	-0.00111033
 254	0.000287749	-0.000103821	-0.000788086
 255	-0.000448311	-0.00019618	-0.00117081
 256	0.00110632	0.000772243	-0.00181689
 257	0.000100701	0.000101459	-0.00127861
 258	-0.00027517	-0.000860127	0.000340489
 259	0.000698275	0.00029174	-0.00118825
 260	0.00148088	0.00145236	-0.00235714
 261	0.000420157	-0.00037221	-6.10348e-05
 262	-1.98205e-05	0.000346893	0.000451698
 263	0.0003796	9.91475e-05	-0.000418392
 264	-0.0003554	0.000528821	0.00117693
 265	0.000875826	-0.000525633	-0.00141848
 266	-0.000648947	0.000631086	6.08051e-05
 267	0.000698031	0.000235055	-0.000544239
 268	-0.000121436	-0.000140283	-0.000895683
 269	0.0020541	-0.0011018	-0.00230122
 270	-0.0024179	0.000750337	-7.40134e-05
 271	-0.000137953	0.00029767	0.000497881
 272	0.000225946	-7.04135e-05	0.000579784
 273	-0.000222213	0.000375472	0.000761502
 274	8.32034e-05	1.29083e-06	0.000626468
 275	-0.000289819	0.000508222	0.000689991
 276	0.000973489	-0.00029929	0.000612864
 277	0.000792986	-0.000125801	0.000918105
 278	-0.000609005	0.000227258	0.000401662
 279	0.000830993	-9.06708e-05	0.000608622
 280	0.000216543	-0.000237179	0.000610583
 281	9.24863e-05	-2.75769e-05	0.000379387
 282	0.000143828	-8.40189e-05	0.000970951
 283	-0.000263964	0.000352422	-0.000365442
 284	0.000463864	-0.000697997	0.000710198
 285	0.000381065	-0.000360026	0.00104849
 286	-0.000258819	0.000372297	-0.000394897
 287	-0.000484942	0.000581276	-0.00106612
 288	-0.000467637	0.000761518	-0.00178309
 289	0.00045619	0.000705746	-0.000420318
 290	0.000387114	0.000667235	-0.000171945
 291	0.000938124	-4.93451e-05	-0.00097313
 292	-0.000258621	0.000736462	0.000279274
 293	0.000524188	0.00145669	-0.000768251
 294	0.00122949	6.34375e-05	-0.000845616
 295	-3.59622e-05	-7.90144e-05	0.000191674
 296	-0.0011757	0.00147831	0.000835539
 297	-0.000763836	-0.000186047	0.000265721
 298	-0.000637814	-0.00172522	5.35483e-05
 299	-0.000593839	-0.00228857	0.000300623
 300	-0.000451487	-0.00153658	6.45644e-05
 301	-0.000414856	-0.00112866	0.00051005
 302	-0.000529665	-0.00184362	2.48761e-05
 303	-0.000801911	-0.00346964	0.000279797
 304	-0.000134872	0.000206363	0.00041121
 305	-0.00047815	-0.00114484	0.000705303
 306	-0.000236573	0.000845377	0.000595849
 307	-0.000999547	0.000516479	0.000171887
 308	-0.000709262	-0.000272363	-0.000183843
 309	-0.00121564	0.000315692	0.000442834
 310	-0.000679233	-0.00126264	0.000378605
 311	-0.000578307	0.00118725	-7.46049e-05
 312	-0.000633075	-4.0388e-05	-0.000981115
 313	-0.00104595	-0.00155563	-1.06185e-05
 314	-0.000748773	-0.00147483	0.000884729
 315	-0.00220701	-0.00144024	-0.000514411