pySIMM System Object

335 atoms
334 bonds
555 angles
734 dihedrals
74 impropers

7 atom types
6 bond types
10 angle types
4 dihedral types
2 improper types

-108.342106 108.342106 xlo xhi
-108.342106 108.342106 ylo yhi
-108.342106 108.342106 zlo zhi

Masses

   1	12.01	# c3
   2	12.01	# c
   3	1.008	# hc
   4	14.01	# n
   5	16.0	# o
   6	1.008	# hn
   7	1.008	# h5

Pair Coeffs

   1	0.1094	3.3996695084235347	# c3
   2	0.086	3.3996695084235347	# c
   3	0.0157	2.649532787749369	# hc
   4	0.17	3.249998523775958	# n
   5	0.21	2.959921901149463	# o
   6	0.0157	1.069078461768407	# hn
   7	0.015	2.421462715905442	# h5

Bond Coeffs

   1	319.7	1.1051	# c,h5
   2	427.6	1.3789	# c,n
   3	313.0	1.5241	# c,c3
   4	330.6	1.0969	# c3,hc
   5	637.7	1.2183	# c,o
   6	403.2	1.0129	# hn,n

Angle Coeffs

   1	48.33	117.55	# c,n,hn
   2	74.22	123.05	# n,c,o
   3	53.7	123.65	# h5,c,o
   4	39.4	107.58	# hc,c3,hc
   5	63.74	127.08	# c,n,c
   6	67.4	123.2	# c3,c,o
   7	46.93	108.77	# c,c3,hc
   8	66.79	115.18	# c3,c,n
   9	51.42	112.16	# h5,c,n
  10	63.38	111.63	# c,c3,c

Dihedral Coeffs

   1	3	0.8	1	0	0.0	2	0	0.08	3	180	# hc,c3,c,o
   2	1	2.5	2	180	# X,c,n,X
   3	2	2.5	2	180	2.0	1	0	# hn,n,c,o
   4	1	0.0	2	180	# X,c,c3,X

Improper Coeffs

   1	10.5	-1	2	# c,X,X,o
   2	1.1	-1	2	# n,X,X,hn

Atoms

   1	1	1	-0.041892	3.30379	19.7006	8.97274
   2	1	2	0.591489	4.66796	20.0981	8.44811
   3	1	3	0.048074	3.07429	18.6633	8.70101
   4	1	4	-0.651929	5.43698	19.1169	7.88634
   5	1	3	0.049056	3.30479	19.7745	10.0664
   6	1	5	-0.529683	5.09101	21.2288	8.58567
   7	1	2	0.758009	6.67771	19.2759	7.34921
   8	1	6	0.367145	5.09226	18.1708	7.81323
   9	1	5	-0.590269	7.26259	18.3222	6.87777
  10	1	1	-0.041892	0.492649	23.0222	7.43105
  11	1	2	0.591489	1.44144	22.9898	8.62415
  12	1	3	0.048074	0.722887	22.2607	6.68389
  13	1	4	-0.651929	2.1814	21.8792	8.93302
  14	1	3	0.049056	-0.529945	22.8468	7.78154
  15	1	5	-0.529683	1.66425	23.9821	9.28532
  16	1	2	0.758009	2.24393	20.6191	8.39202
  17	1	6	0.367145	2.8957	22.0923	9.60752
  18	1	5	-0.590269	1.40045	20.193	7.63006
  19	1	1	-0.041892	3.93224	24.8499	5.03609
  20	1	2	0.591489	2.87459	24.0897	5.80768
  21	1	3	0.048074	3.46398	25.5015	4.28908
  22	1	4	-0.651929	1.69482	24.7466	6.04157
  23	1	3	0.049056	4.51754	25.4723	5.7226
  24	1	5	-0.529683	3.07554	22.964	6.20565
  25	1	2	0.758009	0.580343	24.3786	6.74949
  26	1	6	0.367145	1.58622	25.668	5.65827
  27	1	5	-0.590269	-0.353735	25.1502	6.71023
  28	1	1	-0.041892	6.48892	21.345	3.64511
  29	1	2	0.591489	6.65547	22.233	4.86617
  30	1	3	0.048074	6.48086	21.9505	2.73262
  31	1	4	-0.651929	5.83672	23.3066	5.08047
  32	1	3	0.049056	7.34521	20.6651	3.57528
  33	1	5	-0.529683	7.50591	22.0175	5.70065
  34	1	2	0.758009	4.81833	23.8398	4.33438
  35	1	6	0.367145	5.95835	23.6754	6.00781
  36	1	5	-0.590269	4.59183	23.4783	3.1982
  37	1	1	-0.041892	2.83767	18.5981	3.29928
  38	1	2	0.591489	3.60223	19.3695	2.23613
  39	1	3	0.048074	2.52605	19.2734	4.10372
  40	1	4	-0.651929	4.63481	20.2036	2.56321
  41	1	3	0.049056	1.92758	18.1843	2.84967
  42	1	5	-0.529683	3.29505	19.3129	1.0653
  43	1	2	0.758009	5.22952	20.5072	3.7583
  44	1	6	0.367145	5.02189	20.651	1.75256
  45	1	5	-0.590269	4.81836	20.0661	4.81351
  46	1	1	-0.041892	4.64925	14.9314	5.54941
  47	1	2	0.591489	3.38662	15.7655	5.72073
  48	1	3	0.048074	4.32165	13.9365	5.24221
  49	1	4	-0.651929	3.06863	16.8408	4.93734
  50	1	3	0.049056	5.33327	15.3077	4.78828
  51	1	5	-0.529683	2.5715	15.4968	6.57656
  52	1	2	0.758009	3.65574	17.4516	3.86173
  53	1	6	0.367145	2.20834	17.2571	5.24462
  54	1	5	-0.590269	4.66173	17.0296	3.33203
  55	1	1	-0.041892	7.27151	11.6872	7.59968
  56	1	2	0.591489	6.33722	12.5624	6.77802
  57	1	3	0.048074	8.27747	12.1188	7.54602
  58	1	4	-0.651929	6.12037	13.8186	7.29419
  59	1	3	0.049056	6.97978	11.6938	8.65405
  60	1	5	-0.529683	5.85172	12.1928	5.73035
  61	1	2	0.758009	5.38947	14.9046	6.88039
  62	1	6	0.367145	6.5635	14.018	8.17163
  63	1	5	-0.590269	5.4134	15.8713	7.62027
  64	1	1	-0.041892	4.07908	8.43957	7.58777
  65	1	2	0.591489	5.15115	9.44051	7.9706
  66	1	3	0.048074	3.27026	8.99313	7.09841
  67	1	4	-0.651929	6.3091	9.37007	7.24198
  68	1	3	0.049056	4.451	7.73169	6.84077
  69	1	5	-0.529683	4.96206	10.3243	8.77811
  70	1	2	0.758009	7.33229	10.2608	7.06013
  71	1	6	0.367145	6.44881	8.53612	6.6989
  72	1	5	-0.590269	8.27205	9.87207	6.39943
  73	1	1	-0.041892	4.2784	4.08514	8.32993
  74	1	2	0.591489	4.65052	5.55572	8.42981
  75	1	3	0.048074	4.32151	3.63158	9.32665
  76	1	4	-0.651929	3.66472	6.3753	8.90701
  77	1	3	0.049056	3.24908	3.98244	7.96628
  78	1	5	-0.529683	5.7143	6.00941	8.05523
  79	1	2	0.758009	3.49567	7.72617	8.80148
  80	1	6	0.367145	2.88316	5.94889	9.37116
  81	1	5	-0.590269	2.50256	8.14434	9.35492
  82	1	1	-0.041892	5.11432	4.79351	3.89279
  83	1	2	0.591489	4.59493	4.55742	5.29403
  84	1	3	0.048074	5.09409	5.87218	3.7002
  85	1	4	-0.651929	5.27478	3.63924	6.052
  86	1	3	0.049056	6.15727	4.48126	3.78711
  87	1	5	-0.529683	3.67387	5.20784	5.74108
  88	1	2	0.758009	5.21605	3.33893	7.38818
  89	1	6	0.367145	5.96307	3.07597	5.56907
  90	1	5	-0.590269	5.93121	2.44511	7.78767
  91	1	1	-0.041892	5.2351	0.553757	2.1069
  92	1	2	0.591489	5.34603	1.88717	2.81997
  93	1	3	0.048074	6.247	0.168524	1.94046
  94	1	4	-0.651929	4.4432	2.8456	2.44029
  95	1	3	0.049056	4.74364	0.663176	1.13285
  96	1	5	-0.529683	6.15872	2.07885	3.70146
  97	1	2	0.758009	4.20287	4.11392	2.88671
  98	1	6	0.367145	3.77659	2.58934	1.73421
  99	1	5	-0.590269	3.3022	4.70426	2.33351
 100	1	1	-0.041892	4.72691	-4.00212	1.92634
 101	1	2	0.591489	5.00259	-2.52043	1.77137
 102	1	3	0.048074	3.64905	-4.19137	1.95561
 103	1	4	-0.651929	4.41691	-1.74403	2.73374
 104	1	3	0.049056	5.13465	-4.33502	2.88758
 105	1	5	-0.529683	5.70791	-2.05323	0.902409
 106	1	2	0.758009	4.43808	-0.403204	2.97835
 107	1	6	0.367145	3.82798	-2.21819	3.39409
 108	1	5	-0.590269	3.706	-0.02122	3.86534
 109	1	1	-0.041892	3.35141	-4.89736	-2.36072
 110	1	2	0.591489	3.66437	-4.41195	-0.958613
 111	1	3	0.048074	3.93899	-5.8026	-2.54146
 112	1	4	-0.651929	4.80306	-4.94382	-0.408411
 113	1	3	0.049056	2.29287	-5.16913	-2.43169
 114	1	5	-0.529683	2.90883	-3.70466	-0.325132
 115	1	2	0.758009	5.38961	-4.79807	0.815777
 116	1	6	0.367145	5.35228	-5.54358	-0.996311
 117	1	5	-0.590269	6.3696	-5.48241	1.02114
 118	1	1	-0.041892	5.31483	-5.47737	-6.35706
 119	1	2	0.591489	4.30512	-5.39788	-5.23185
 120	1	3	0.048074	5.21796	-4.62152	-7.0337
 121	1	4	-0.651929	4.18245	-4.18083	-4.6135
 122	1	3	0.049056	5.11506	-6.39411	-6.92355
 123	1	5	-0.529683	3.6983	-6.37754	-4.85975
 124	1	2	0.758009	3.66742	-3.82713	-3.39951
 125	1	6	0.367145	4.61531	-3.38917	-5.05333
 126	1	5	-0.590269	3.77036	-2.65109	-3.12948
 127	1	1	-0.041892	9.16881	-7.16346	-8.11328
 128	1	2	0.591489	7.87823	-6.44152	-7.78225
 129	1	3	0.048074	10.0085	-6.53233	-7.80089
 130	1	4	-0.651929	7.77474	-5.99935	-6.48938
 131	1	3	0.049056	9.24759	-7.32675	-9.19378
 132	1	5	-0.529683	6.98565	-6.2988	-8.58883
 133	1	2	0.758009	6.71925	-5.5279	-5.76873
 134	1	6	0.367145	8.5893	-6.07466	-5.90818
 135	1	5	-0.590269	6.96629	-5.26301	-4.61106
 136	1	1	-0.041892	12.6093	-9.11717	-5.9155
 137	1	2	0.591489	11.6463	-8.6458	-6.99058
 138	1	3	0.048074	13.5738	-8.62122	-6.07649
 139	1	4	-0.651929	10.3247	-8.86148	-6.73059
 140	1	3	0.049056	12.2593	-8.81677	-4.92302
 141	1	5	-0.529683	11.9987	-8.10113	-8.01233
 142	1	2	0.758009	9.19191	-8.50542	-7.38999
 143	1	6	0.367145	10.1208	-9.40636	-5.90683
 144	1	5	-0.590269	8.18973	-9.0461	-6.9638
 145	1	1	-0.041892	10.0795	-12.6502	-4.33447
 146	1	2	0.591489	10.8324	-11.3837	-4.65449
 147	1	3	0.048074	9.34075	-12.4553	-3.54825
 148	1	4	-0.651929	11.9771	-11.5194	-5.39543
 149	1	3	0.049056	10.7733	-13.4195	-3.97419
 150	1	5	-0.529683	10.3498	-10.3044	-4.3907
 151	1	2	0.758009	12.8277	-10.6221	-5.98929
 152	1	6	0.367145	12.2974	-12.4596	-5.5736
 153	1	5	-0.590269	13.7759	-11.1042	-6.56264
 154	1	1	-0.041892	6.40161	-11.6406	-7.37749
 155	1	2	0.591489	7.63308	-12.5183	-7.22128
 156	1	3	0.048074	6.52387	-11.0068	-8.26265
 157	1	4	-0.651929	8.42333	-12.2944	-6.11905
 158	1	3	0.049056	6.28423	-10.9872	-6.50492
 159	1	5	-0.529683	7.88169	-13.3865	-8.03151
 160	1	2	0.758009	9.37769	-13.1308	-5.5855
 161	1	6	0.367145	8.19722	-11.4707	-5.58869
 162	1	5	-0.590269	9.60868	-14.2408	-6.0123
 163	1	1	-0.041892	2.97808	-14.6651	-8.18457
 164	1	2	0.591489	4.27543	-14.3924	-8.9301
 165	1	3	0.048074	2.47186	-13.731	-7.92275
 166	1	4	-0.651929	5.15176	-13.4182	-8.53655
 167	1	3	0.049056	2.30962	-15.2163	-8.85565
 168	1	5	-0.529683	4.68437	-15.1617	-9.76868
 169	1	2	0.758009	5.14474	-12.4891	-7.52687
 170	1	6	0.367145	6.02334	-13.4722	-9.04888
 171	1	5	-0.590269	4.18804	-12.3501	-6.79531
 172	1	1	-0.041892	6.40936	-16.1644	-5.26638
 173	1	2	0.591489	4.9717	-16.5139	-5.54622
 174	1	3	0.048074	6.96126	-15.966	-6.19384
 175	1	4	-0.651929	4.4676	-15.9194	-6.6701
 176	1	3	0.049056	6.90387	-16.9786	-4.72481
 177	1	5	-0.529683	4.30769	-17.0907	-4.71603
 178	1	2	0.758009	3.18186	-15.5104	-6.935
 179	1	6	0.367145	5.15028	-15.6393	-7.35049
 180	1	5	-0.590269	2.30373	-15.5752	-6.10324
 181	1	1	-0.041892	5.8541	-12.7199	-2.30126
 182	1	2	0.591489	6.17427	-14.1869	-2.04575
 183	1	3	0.048074	5.9498	-12.1735	-1.35583
 184	1	4	-0.651929	6.36747	-15.0733	-3.07025
 185	1	3	0.049056	6.57584	-12.2818	-2.99802
 186	1	5	-0.529683	6.3305	-14.6046	-0.921055
 187	1	2	0.758009	6.33734	-14.9101	-4.42649
 188	1	6	0.367145	6.41583	-16.0227	-2.74062
 189	1	5	-0.590269	6.29631	-13.8054	-4.92992
 190	1	1	-0.041892	1.91061	-11.4313	-4.24628
 191	1	2	0.591489	2.8905	-10.6525	-3.37845
 192	1	3	0.048074	2.41519	-12.2059	-4.83045
 193	1	4	-0.651929	4.02472	-11.2318	-2.88099
 194	1	3	0.049056	1.46294	-10.7361	-4.9653
 195	1	5	-0.529683	2.78989	-9.46057	-3.18769
 196	1	2	0.758009	4.4436	-12.5328	-2.8324
 197	1	6	0.367145	4.62954	-10.5485	-2.46525
 198	1	5	-0.590269	3.71857	-13.446	-3.16199
 199	1	1	-0.041892	-1.25247	-13.7111	-1.80183
 200	1	2	0.591489	-0.233048	-14.2214	-2.80876
 201	1	3	0.048074	-0.866082	-12.8357	-1.27672
 202	1	4	-0.651929	0.673809	-13.3783	-3.40033
 203	1	3	0.049056	-1.40016	-14.4871	-1.04285
 204	1	5	-0.529683	-0.0977478	-15.4091	-3.00428
 205	1	2	0.758009	0.794702	-12.012	-3.40256
 206	1	6	0.367145	1.38072	-13.8915	-3.91011
 207	1	5	-0.590269	-0.0400934	-11.2928	-2.89415
 208	1	1	-0.041892	-5.04698	-12.2344	0.288732
 209	1	2	0.591489	-3.70568	-12.5506	-0.366446
 210	1	3	0.048074	-4.90734	-11.3029	0.84869
 211	1	4	-0.651929	-3.65345	-13.007	-1.66035
 212	1	3	0.049056	-5.25667	-13.0273	1.0152
 213	1	5	-0.529683	-2.69684	-12.416	0.290542
 214	1	2	0.758009	-2.60158	-13.4132	-2.44208
 215	1	6	0.367145	-4.5257	-13.0095	-2.17474
 216	1	5	-0.590269	-2.87294	-13.696	-3.59039
 217	1	1	-0.041892	-9.34411	-11.398	1.52445
 218	1	2	0.591489	-7.85781	-11.5084	1.25646
 219	1	3	0.048074	-9.87884	-12.2016	1.00627
 220	1	4	-0.651929	-7.48816	-11.7802	-0.0369417
 221	1	3	0.049056	-9.51881	-11.5154	2.60096
 222	1	5	-0.529683	-7.05938	-11.4299	2.16302
 223	1	2	0.758009	-6.27399	-12.0641	-0.602011
 224	1	6	0.367145	-8.21445	-11.7462	-0.733692
 225	1	5	-0.590269	-6.30103	-12.34	-1.78285
 226	1	1	-0.041892	-11.3368	-7.40608	0.524896
 227	1	2	0.591489	-11.3945	-8.2318	1.81331
 228	1	3	0.048074	-10.2847	-7.26076	0.255993
 229	1	4	-0.651929	-10.6745	-9.38947	1.9274
 230	1	3	0.049056	-11.8014	-7.99452	-0.27442
 231	1	5	-0.529683	-12.0671	-7.94284	2.77816
 232	1	2	0.758009	-9.86779	-10.0622	1.04691
 233	1	6	0.367145	-10.7842	-9.8054	2.83666
 234	1	5	-0.590269	-9.75398	-9.72104	-0.110585
 235	1	1	-0.041892	-14.1458	-3.72832	0.650705
 236	1	2	0.591489	-13.5934	-4.56571	1.79702
 237	1	3	0.048074	-13.6771	-3.92981	-0.313283
 238	1	4	-0.651929	-12.7849	-5.64556	1.571
 239	1	3	0.049056	-15.2089	-3.97112	0.541539
 240	1	5	-0.529683	-13.9552	-4.40299	2.93889
 241	1	2	0.758009	-11.9915	-6.02252	0.522493
 242	1	6	0.367145	-12.7624	-6.26665	2.37321
 243	1	5	-0.590269	-11.6977	-5.21281	-0.334971
 244	1	1	-0.041892	-11.0079	-0.0639967	0.374013
 245	1	2	0.591489	-12.3901	-0.402453	0.898751
 246	1	3	0.048074	-11.0117	-0.12772	-0.720559
 247	1	4	-0.651929	-12.8134	-1.68703	0.656111
 248	1	3	0.049056	-10.2745	-0.781828	0.757911
 249	1	5	-0.529683	-13.0138	0.374625	1.58705
 250	1	2	0.758009	-14.0188	-2.26055	0.989107
 251	1	6	0.367145	-12.1748	-2.28937	0.170342
 252	1	5	-0.590269	-14.9766	-1.62171	1.36634
 253	1	1	-0.041892	-10.1336	3.98854	2.44862
 254	1	2	0.591489	-9.78131	2.55603	2.8227
 255	1	3	0.048074	-10.6943	4.06879	1.51586
 256	1	4	-0.651929	-10.1121	1.47519	2.05311
 257	1	3	0.049056	-10.7697	4.40592	3.23633
 258	1	5	-0.529683	-9.28585	2.30469	3.89993
 259	1	2	0.758009	-10.6316	1.3481	0.789497
 260	1	6	0.367145	-10.002	0.624604	2.57211
 261	1	5	-0.590269	-10.6507	2.26541	0.000141933
 262	1	1	-0.041892	-6.11114	6.08271	2.60984
 263	1	2	0.591489	-6.96652	5.60021	3.77553
 264	1	3	0.048074	-6.21449	5.3303	1.82311
 265	1	4	-0.651929	-8.16124	4.98499	3.50884
 266	1	3	0.049056	-6.51081	7.02779	2.22748
 267	1	5	-0.529683	-6.66854	5.69008	4.94577
 268	1	2	0.758009	-8.87149	4.81556	2.34558
 269	1	6	0.367145	-8.5434	4.54076	4.32799
 270	1	5	-0.590269	-8.57894	5.38777	1.31838
 271	1	1	-0.041892	-3.13194	5.15399	-0.382231
 272	1	2	0.591489	-4.05737	6.01032	0.452016
 273	1	3	0.048074	-2.42167	4.60785	0.24821
 274	1	4	-0.651929	-3.77885	6.05556	1.79318
 275	1	3	0.049056	-2.55715	5.80559	-1.04984
 276	1	5	-0.529683	-5.02915	6.55577	-0.0242899
 277	1	2	0.758009	-4.61265	6.22376	2.86213
 278	1	6	0.367145	-2.88893	5.70851	2.09961
 279	1	5	-0.590269	-4.07152	6.11812	3.94086
 280	1	1	-0.041892	-4.59982	1.01619	0.81979
 281	1	2	0.591489	-4.44299	2.51214	0.60398
 282	1	3	0.048074	-4.94872	0.829746	1.84218
 283	1	4	-0.651929	-4.35242	2.97452	-0.685295
 284	1	3	0.049056	-3.59236	0.596779	0.731197
 285	1	5	-0.529683	-4.21395	3.23257	1.54858
 286	1	2	0.758009	-3.95372	4.17509	-1.21233
 287	1	6	0.367145	-4.72494	2.37266	-1.40382
 288	1	5	-0.590269	-3.94819	4.2269	-2.42326
 289	1	1	-0.041892	-3.93566	-3.05454	-0.765945
 290	1	2	0.591489	-4.43619	-1.91592	0.0979076
 291	1	3	0.048074	-2.90003	-3.26574	-0.474353
 292	1	4	-0.651929	-5.21055	-0.972786	-0.524078
 293	1	3	0.049056	-3.91015	-2.7723	-1.82309
 294	1	5	-0.529683	-4.10467	-1.79411	1.25684
 295	1	2	0.758009	-5.5291	0.302234	-0.152425
 296	1	6	0.367145	-5.63079	-1.24231	-1.40781
 297	1	5	-0.590269	-6.29792	0.893546	-0.878216
 298	1	1	-0.041892	-7.94992	-4.38812	-2.58692
 299	1	2	0.591489	-6.62608	-3.80081	-2.14354
 300	1	3	0.048074	-8.51409	-3.66329	-3.17799
 301	1	4	-0.651929	-5.91748	-4.54239	-1.23259
 302	1	3	0.049056	-8.55229	-4.59779	-1.69583
 303	1	5	-0.529683	-6.27027	-2.692	-2.48053
 304	1	2	0.758009	-4.76028	-4.30887	-0.540549
 305	1	6	0.367145	-6.27919	-5.46116	-1.02012
 306	1	5	-0.590269	-4.38662	-5.20232	0.185014
 307	1	1	-0.041892	-8.03001	-5.54469	-7.07881
 308	1	2	0.591489	-7.98199	-4.93447	-5.69215
 309	1	3	0.048074	-8.82896	-6.29065	-7.14102
 310	1	4	-0.651929	-7.82318	-5.83786	-4.6727
 311	1	3	0.049056	-7.08628	-6.06885	-7.26639
 312	1	5	-0.529683	-8.01757	-3.73984	-5.49695
 313	1	2	0.758009	-7.72304	-5.70105	-3.31608
 314	1	6	0.367145	-7.7393	-6.80218	-4.94167
 315	1	5	-0.590269	-7.47591	-6.70718	-2.68677
 316	1	1	-0.041892	-11.818	-3.58037	-8.77026
 317	1	2	0.591489	-10.6957	-4.26831	-8.01544
 318	1	3	0.048074	-12.0244	-4.14547	-9.68713
 319	1	4	-0.651929	-9.44852	-4.0631	-8.54101
 320	1	3	0.049056	-11.4916	-2.57637	-9.06476
 321	1	5	-0.529683	-10.8673	-4.89806	-6.99335
 322	1	2	0.758009	-8.20606	-4.47127	-8.14288
 323	1	6	0.367145	-9.38009	-3.46747	-9.34799
 324	1	5	-0.590269	-7.28559	-4.11189	-8.84267
 325	1	1	-0.041892	-15.309	-2.11052	-6.28139
 326	1	2	0.591489	-13.8989	-2.46919	-5.81161
 327	1	3	0.048074	-15.9015	-3.02274	-6.4176
 328	1	4	-0.651929	-12.9856	-2.97925	-6.69039
 329	1	3	0.049056	-15.7985	-1.47336	-5.53575
 330	1	5	-0.529683	-13.5123	-2.24545	-4.68416
 331	1	2	0.758009	-13.1073	-3.43682	-7.97682
 332	1	6	0.367145	-12.0801	-3.0915	-6.26645
 333	1	5	-0.590269	-14.1796	-3.51118	-8.5377
 334	1	7	0	7.10784	20.2848	7.47316
 335	1	3	0	-15.274	-1.56096	-7.23081

Velocities

   1	0.000135251	-0.00107422	-0.00123682
   2	0.000199106	-0.000576284	-0.000527085
   3	0.000494553	-0.000993496	-0.0016746
   4	0.000546124	-0.000423371	-0.000640051
   5	-3.87869e-05	-0.00120224	-0.0013486
   6	3.72544e-05	-0.000494788	-0.000126675
   7	0.000531854	-0.000495517	-0.000778709
   8	0.000975772	-0.000568615	-0.000261725
   9	0.000558933	-0.000449956	-0.000854744
  10	-0.000342872	-0.000240858	0.000292223
  11	-0.000102711	-0.00125613	-7.0112e-05
  12	-0.00110377	-0.000336408	2.68714e-05
  13	5.03323e-05	-0.00130608	-0.000767762
  14	-0.000358386	0.000337777	0.000592493
  15	0.000398102	-0.00174521	0.000569723
  16	7.52737e-05	-0.00118239	-0.00115118
  17	0.000110797	-0.00150003	-0.000785517
  18	-0.000213302	-0.00113998	-0.000946488
  19	-4.6336e-05	-0.000811287	-0.000242813
  20	-0.000141646	-0.000634841	-7.95798e-06
  21	-0.00013989	-0.000928253	-9.35276e-05
  22	6.1484e-05	-0.00030856	0.000341099
  23	-0.000207034	-0.000814086	-0.000194563
  24	-0.000313731	-0.000814012	-1.8496e-05
  25	0.000165824	-0.000115991	0.000611721
  26	7.88853e-05	-0.000414263	0.000396619
  27	0.00037041	0.000202308	0.00063871
  28	0.00106782	-0.000458649	-7.35306e-05
  29	0.000292644	-0.000449351	0.000152391
  30	0.0014495	-0.000304387	7.10628e-06
  31	2.64831e-06	-0.000523445	-0.000153561
  32	0.0012415	-0.000310654	0.000399314
  33	-8.52641e-05	-0.000509972	0.00060386
  34	-0.000141961	-0.000869171	-6.41189e-05
  35	8.57559e-05	-0.000377195	-0.000131372
  36	1.30222e-05	-0.000988581	6.81675e-07
  37	3.23329e-05	0.00089154	0.000538033
  38	0.000111532	0.000315176	-4.14227e-05
  39	0.000805646	0.00129884	0.000457091
  40	0.00121842	-0.000802181	-0.000559312
  41	-0.000505233	0.00156367	0.000979032
  42	-0.00095453	0.000858352	0.000283668
  43	0.00118079	-0.000570437	-0.000592885
  44	0.00162201	-0.0015957	-0.000819007
  45	0.000104847	0.00081139	-0.000420024
  46	-0.000689041	0.000263109	0.00115907
  47	-0.000660979	0.000554741	0.000745172
  48	-0.000847807	0.000236737	0.00148831
  49	-0.000384955	0.000595384	0.000594527
  50	-0.000610142	-5.95493e-05	0.00106321
  51	-0.000793756	0.000877077	0.000646079
  52	-0.000466235	0.000426385	0.000458819
  53	-0.000281344	0.00086308	0.000746542
  54	-0.000652097	-5.48276e-05	0.00037546
  55	-0.000160052	-3.74228e-05	0.00076658
  56	9.23279e-05	0.00054439	0.00102587
  57	-9.23623e-06	-0.000297108	0.00124041
  58	-0.000413018	0.000350505	0.00131027
  59	-0.000300064	-0.000544811	0.00075843
  60	0.000427075	0.00097128	0.000692657
  61	-0.000753037	0.000268277	0.00133142
  62	-0.000778698	0.000227128	0.00154162
  63	-0.00134387	9.96461e-05	0.0015457
  64	-0.000824185	0.000950946	-0.000746328
  65	-0.000886083	0.00092799	-0.000806313
  66	-0.00114841	0.000923043	-0.000271704
  67	-0.000565587	0.000285951	-0.000209116
  68	-0.000974958	0.0011224	-0.00098047
  69	-0.00115543	0.00127961	-0.00133675
  70	-0.00047329	0.000233668	5.18646e-05
  71	-0.000606597	0.000184709	-0.000110443
  72	-0.000586169	0.000274291	-0.000190419
  73	0.00167978	0.000968409	-5.69152e-05
  74	0.000989018	0.00120275	-0.00100902
  75	0.00291844	0.0015383	0.000141986
  76	0.000714337	0.000785957	-0.000746184
  77	0.00135293	0.000431974	0.001092
  78	0.000675892	0.00159152	-0.00151812
  79	0.000201269	0.000738695	-0.000455571
  80	0.00102622	0.000381909	-0.000650386
  81	0.000820421	0.000713518	0.000667852
  82	-0.000340324	0.000385335	-0.000643412
  83	-0.000496421	-6.32758e-05	-0.00070696
  84	-0.000611843	0.000393847	-0.00043208
  85	-0.000289405	-2.67691e-05	-0.000830901
  86	-0.000279902	0.000765118	-0.000510314
  87	-0.000284636	-1.44272e-05	-0.000370098
  88	0.000835791	0.000638485	-0.000633895
  89	-0.000817602	-0.000430241	-0.00114934
  90	0.000766534	0.000401033	-0.00102696
  91	7.86997e-05	-0.000567153	0.00176119
  92	-0.000340333	-0.000151188	0.000993831
  93	0.000269189	-0.000817973	0.00348267
  94	-0.000418546	-0.000429807	0.000366944
  95	0.00153052	-0.000968188	0.000993375
  96	0.000530317	0.000902529	-5.42469e-05
  97	0.000358925	0.000315384	-0.0013398
  98	-0.000488563	-0.000989616	0.000657287
  99	0.00165223	0.000622371	-0.00305189
 100	0.000605067	-0.000126236	0.000159368
 101	-0.000584783	0.00014151	0.000778941
 102	0.00079511	-0.000956398	0.000966242
 103	-0.0013593	-0.000264911	0.000690957
 104	0.00176191	-0.000226837	-0.000358941
 105	-0.000143818	0.000770649	0.00149035
 106	-0.00110057	-0.000260429	0.00102312
 107	-0.00179783	-0.000483081	0.000234395
 108	-0.00105085	-6.50194e-05	0.000985704
 109	-0.00101369	0.00018097	2.38697e-05
 110	-0.000972479	0.000167907	9.87392e-05
 111	-0.00123954	1.00074e-05	6.066e-05
 112	-0.000385203	0.000863567	-0.000511524
 113	-0.00105164	0.000375262	-0.000157294
 114	-0.00110028	-0.000403005	0.000732796
 115	0.000239149	0.000665882	-0.000755342
 116	-0.000418294	0.00121802	-0.000875025
 117	-6.34635e-06	0.000310816	-0.00145859
 118	0.000345246	0.000902688	-0.000275275
 119	0.000526889	0.000299777	-5.122e-05
 120	0.000799469	0.00165216	0.000632278
 121	0.0003413	8.82501e-05	0.000320998
 122	-0.000264455	0.00162439	-0.00118838
 123	0.000548716	0.000139896	-0.000463356
 124	-0.000487648	4.18879e-05	1.56493e-05
 125	0.000611929	0.000141022	0.000703912
 126	-0.000656779	5.96411e-05	4.91267e-05
 127	-0.000223838	-0.000856608	-0.000622944
 128	-0.000280938	-0.00113866	-0.000483518
 129	-0.000435182	-0.000330138	-0.00114884
 130	2.17153e-05	-0.000928555	-0.000532137
 131	-0.000508633	-0.00136918	-0.000547027
 132	-0.000442841	-0.0013537	-0.000352524
 133	0.000358144	-0.000337144	-0.000422723
 134	0.000124964	-0.00102788	-0.00068084
 135	0.000750592	-3.70036e-05	-0.00059947
 136	0.000428567	0.000190608	0.000449988
 137	0.000393056	0.00131131	0.000997723
 138	0.000649943	-0.000316594	0.000251122
 139	0.000444132	7.02546e-05	0.000282918
 140	0.000960712	-7.16492e-05	0.000723139
 141	0.000409356	0.00298412	0.00188943
 142	0.000407938	-0.000482387	4.19818e-05
 143	0.000551678	-0.00057459	-0.000145067
 144	0.000583199	-0.00119682	-0.00048239
 145	-0.000181585	-0.000126553	-0.000392581
 146	-0.000210378	1.34511e-05	-0.00014048
 147	-0.00036206	-0.000260458	-0.000570028
 148	-0.000475486	8.15436e-05	-0.000613804
 149	-0.000176095	-8.0916e-05	-0.000304323
 150	7.29724e-05	-1.9041e-05	0.000346466
 151	-0.000352029	8.22139e-05	-0.000412657
 152	-0.00079192	7.57042e-05	-0.0011631
 153	-0.000670244	-0.000164835	-0.00103656
 154	0.000242854	7.52588e-05	-0.000365019
 155	0.000290181	0.000126255	-0.000646241
 156	-3.39803e-05	3.56723e-06	-0.000471223
 157	0.000164272	-4.99922e-05	-0.000553981
 158	0.000366054	0.000112161	-0.000414439
 159	0.000235085	0.000260226	-0.000779047
 160	0.000104773	-0.00012383	-0.000560573
 161	-0.000149229	-0.000342548	-0.000239435
 162	0.000374551	3.86778e-05	-0.000755167
 163	-0.000235084	0.00104677	-0.000368217
 164	-0.000394497	0.000854391	-0.00066934
 165	-0.000541241	0.00118349	-0.00135887
 166	5.78596e-05	0.00029065	-0.000335769
 167	-4.71773e-05	8.27661e-05	0.000219471
 168	-0.00115526	0.00142352	-0.00157312
 169	0.000345122	-5.87011e-05	-3.37024e-05
 170	-5.4058e-05	0.000339251	-0.000578621
 171	0.000545722	-0.00021905	0.000221248
 172	-0.00012633	-0.000455735	0.00106316
 173	-0.000472576	0.00123971	0.000385364
 174	0.000366576	-0.000968527	0.00126892
 175	4.24145e-05	0.00247265	0.000798738
 176	-0.00124582	-0.00119037	0.00101349
 177	-0.000904335	-0.000248643	-0.000952175
 178	5.67528e-05	0.00240284	0.000470181
 179	0.000323391	0.00287554	0.00127705
 180	-1.19707e-05	0.00286876	0.000448621
 181	-0.000561876	-0.000643048	0.000985836
 182	-0.000179481	-0.000580978	0.00119225
 183	-0.00127479	-0.000629441	0.00102431
 184	0.000676875	-0.000570693	0.00130241
 185	-0.000238188	-0.00038808	0.00145966
 186	-0.00106013	-0.000619295	0.00130978
 187	0.00129445	-0.000508448	0.00129269
 188	0.000672623	-0.000568979	0.00139207
 189	0.00199015	-0.000449489	0.00137852
 190	-0.000190408	-0.0012259	-0.00125747
 191	-0.000370352	-0.00107861	-0.00120934
 192	-0.000108829	-0.0015657	-0.000650949
 193	-0.000558582	-0.000969841	-0.000526928
 194	0.000288507	-0.00146705	-0.00184062
 195	-0.000470586	-0.00102516	-0.00158498
 196	-0.000310579	-0.00092668	3.21839e-05
 197	-0.000817932	-0.000800492	-0.000456352
 198	0.000193635	-0.00114841	-0.000462691
 199	0.000648135	-5.67015e-05	0.000971385
 200	0.000305123	-0.000396525	0.000633179
 201	0.0015333	-0.000760251	0.00169352
 202	-0.000148333	-0.000637951	-0.000303239
 203	-0.000307426	-0.000626812	0.000233128
 204	0.000395634	-0.00046423	0.00109224
 205	-0.000593092	-0.000675776	-0.00134829
 206	-0.000272238	-0.000776715	-0.000301578
 207	-0.000727364	-0.0006444	-0.00158974
 208	-0.000102001	0.000226734	0.000510859
 209	0.000302699	0.000155337	0.00125429
 210	-0.000403888	-0.000241864	0.00134554
 211	0.00110214	0.00222335	0.000623501
 212	-0.000683188	-0.00029115	-0.000232975
 213	-0.00013442	-0.00291044	0.00266153
 214	0.00116014	0.00161838	0.000850618
 215	0.00169932	0.0040988	-0.00025506
 216	0.00111347	0.00211754	0.000662767
 217	-0.000942613	-0.000734676	-0.000599597
 218	-0.000944284	-0.000824023	-0.000380248
 219	-0.00123846	-0.000632766	-0.000499295
 220	-0.000427192	-0.00120969	-0.000176635
 221	-0.001083	-0.000493606	-0.000568074
 222	-0.00100293	0.000846327	-0.00039968
 223	0.000171438	0.000639231	2.42245e-05
 224	-0.000326056	-0.00184136	-0.000336283
 225	0.00120615	0.0026071	-0.000432337
 226	0.000900198	0.000557719	-0.000236279
 227	0.00137975	0.000744389	-6.71504e-05
 228	0.000792262	0.000595268	-0.000566498
 229	0.000161385	-4.06191e-05	-0.000552004
 230	0.000735564	0.000358914	-4.46525e-06
 231	0.00256739	0.00145108	0.000558704
 232	-0.000298338	-0.000462715	-0.000653798
 233	-7.24001e-05	-0.000109841	-0.000646563
 234	0.000705763	8.48214e-05	-0.000386548
 235	-6.81064e-05	0.000150335	-0.000442995
 236	-0.00107023	-0.000703234	-0.000646761
 237	0.000614954	0.000642769	-0.000206595
 238	-0.00102423	-0.000638349	-0.00088185
 239	-6.8939e-05	0.000590815	-0.00133689
 240	-0.00172672	-0.00127625	-0.000793566
 241	0.000596778	0.000488738	-7.07051e-05
 242	-0.00141295	-0.00110396	-0.00119735
 243	0.00154278	0.00129677	0.000986583
 244	0.000105777	-3.33161e-05	0.000108495
 245	0.00018066	-0.000209298	0.000236297
 246	0.000847375	-0.00129402	0.000167787
 247	0.000145737	-0.000119578	0.000411176
 248	0.000159056	0.000697397	0.00135654
 249	0.000303105	-0.000139604	0.000376281
 250	0.000275584	-0.000145783	0.000742378
 251	-6.02833e-06	-0.000147414	0.000232809
 252	0.000580888	-0.000266207	0.00170627
 253	-0.00110824	-5.84503e-05	0.00114577
 254	-0.00121761	-0.000282422	0.000200085
 255	-0.00284454	9.85029e-05	0.00213807
 256	-0.0019005	0.000232079	-7.02838e-05
 257	0.000475147	-6.17684e-05	0.0024885
 258	-0.0004655	-0.00100768	-0.000338097
 259	-0.000698468	0.000402833	-0.000508255
 260	-0.0031386	0.000147063	-6.86731e-05
 261	0.000941582	0.000170132	-0.00086662
 262	-0.000431729	0.000927302	-0.000519179
 263	-0.00047209	0.000405403	-0.000707775
 264	-0.000601478	0.00137442	-0.000867037
 265	-0.000339838	-5.12868e-05	-0.000620401
 266	-0.000228263	0.00116702	-7.29408e-05
 267	-0.00073744	0.000609358	-0.000721907
 268	-0.000681817	-0.000673747	-0.000135331
 269	-0.000156485	0.000413138	-0.000288931
 270	-0.000836141	-0.00168203	-0.000808772
 271	0.000729045	-0.000255829	0.00022081
 272	0.000515514	-0.000421505	0.000187061
 273	0.0007228	-0.000332325	0.000134929
 274	0.000141886	5.04597e-05	0.00021882
 275	0.000708109	-0.000103071	0.000304901
 276	0.000365729	-0.000841196	-3.4603e-05
 277	-0.000342934	0.000676747	-0.000160414
 278	0.000254029	0.000595577	0.000631063
 279	-0.000676197	0.00275081	0.000168059
 280	0.000719926	0.000181705	0.00027015
 281	0.000175147	0.000238622	0.000180792
 282	-0.000100282	0.000215362	2.85982e-05
 283	0.000475582	4.80395e-05	8.4528e-05
 284	0.000972526	0.000503107	0.00127682
 285	-0.000547652	0.000457726	0.000164539
 286	0.000755824	-0.000129369	4.87319e-05
 287	0.000236651	0.000102626	0.000201165
 288	0.00104733	-0.000238728	1.91371e-05
 289	-0.000100128	-0.00104625	-0.000659907
 290	0.00154078	-7.69387e-05	-0.000992225
 291	-0.000187139	-0.0020937	-0.0011693
 292	0.00261981	0.000515328	-0.0013535
 293	-0.000419279	-0.0015804	-0.000826375
 294	0.00078811	-0.000539812	-0.000704633
 295	0.00179896	7.31015e-05	-0.000634657
 296	0.00275737	0.000757729	-0.00145693
 297	0.0016506	-2.08071e-05	-0.000597251
 298	-0.00119631	-1.62474e-05	8.62008e-05
 299	-0.00125976	0.000258867	0.000186302
 300	-0.00142704	-0.000112859	0.00020476
 301	-0.00120799	4.06609e-05	-7.63393e-05
 302	-0.000976198	-0.000212497	0.000237605
 303	-0.0014712	0.000538876	0.000811768
 304	-0.00135076	-0.000137925	0.000218968
 305	-0.00131374	4.5933e-07	-0.000228618
 306	-0.00168114	-0.000480752	-4.87945e-05
 307	0.00104829	-0.000450023	0.000116261
 308	0.000118248	-5.53777e-05	-8.7643e-05
 309	0.00135553	-0.000856084	-6.62007e-05
 310	0.000815274	0.000190867	-8.42991e-05
 311	0.00142984	2.54923e-07	0.000448354
 312	-0.00249327	-3.66438e-05	-0.000275718
 313	-0.000946145	-0.000259971	-8.8374e-05
 314	0.00211222	0.000369624	-3.35831e-06
 315	-0.00138549	-3.31369e-06	0.00016185
 316	0.000776994	0.000345915	0.000599709
 317	0.000635417	-1.59465e-05	0.00049555
 318	0.000640214	0.000604914	0.000516132
 319	0.000637454	-0.000336609	0.000282701
 320	0.00104322	0.000381834	0.000992101
 321	0.000236006	-0.000860196	-0.000113006
 322	0.000649936	-0.00111802	-0.000600391
 323	0.000567747	-0.00016817	0.000456008
 324	-3.55465e-05	-0.00221128	-0.0019452
 325	-0.00044786	-0.000135821	0.00115421
 326	1.32213e-05	-1.69954e-05	0.000315801
 327	-0.000102356	-0.000294542	-0.00181513
 328	0.000349302	0.00140271	-0.000130287
 329	-0.000957859	-0.00290959	0.00280265
 330	-0.000464724	-0.000971068	0.000573076
 331	0.000577338	0.000666349	0.000413249
 332	0.000515585	0.00315981	-0.000182597
 333	0.000430258	-0.00141833	0.00115576
 334	0.000356102	-0.000328664	-0.00122731
 335	-0.000911928	0.00267948	0.00250254

Bonds

   1	3	1	2
   2	4	1	3
   3	4	1	5
   4	2	2	4
   5	5	2	6
   6	2	4	7