

################################################################################
##################################    Init    ##################################
################################################################################
units           real
atom_style      full
pair_style      lj/cut/coul/long 12.0  12.0
kspace_style    pppm 1e-4
bond_style      harmonic
angle_style     harmonic
dihedral_style  fourier
improper_style  cvff
special_bonds   amber
pair_modify     mix arithmetic
read_data       temp.lmps
  orthogonal box = (-56.1074 -56.1074 -56.1074) to (56.1074 56.1074 56.1074)
  1 by 1 by 1 MPI processor grid
  reading atoms ...
  18 atoms
  reading velocities ...
  18 velocities
  scanning bonds ...
  4 = max bonds/atom
  scanning angles ...
  6 = max angles/atom
  scanning dihedrals ...
  10 = max dihedrals/atom
  scanning impropers ...
  1 = max impropers/atom
  reading bonds ...
  17 bonds
  reading angles ...
  25 angles
  reading dihedrals ...
  30 dihedrals
  reading impropers ...
  4 impropers
  4 = max # of 1-2 neighbors
  5 = max # of 1-3 neighbors
  9 = max # of 1-4 neighbors
  12 = max # of special neighbors
  special bonds CPU = 0.000228882 secs
  read_data CPU = 0.00335288 secs
################################################################################

timestep        1
fix             pysimm_md all nve/limit 0.1
run             2000
PPPM initialization ...
  using 12-bit tables for long-range coulomb (../kspace.cpp:332)
  G vector (1/distance) = 0.111471
  grid = 12 12 12
  stencil order = 5
  estimated absolute RMS force accuracy = 0.0380782
  estimated relative force accuracy = 0.000114671
  using double precision KISS FFT
  3d grid and FFT values/proc = 4913 1728
Neighbor list info ...
  update every 1 steps, delay 10 steps, check yes
  max neighbors/atom: 2000, page size: 100000
  master list distance cutoff = 14
  ghost atom cutoff = 14
  binsize = 7, bins = 17 17 17
  1 neighbor lists, perpetual/occasional/extra = 1 0 0
  (1) pair lj/cut/coul/long, perpetual
      attributes: half, newton on
      pair build: half/bin/newton
      stencil: half/bin/3d/newton
      bin: standard
Per MPI rank memory allocation (min/avg/max) = 12.89 | 12.89 | 12.89 Mbytes
Step Temp E_pair E_mol TotEng Press 
       0    27.287058   -72.372723    314.63671    243.64673    24.023836 
    2000    983.74825   -194.96969     67.09777   -78.021683   -2.2506927 
Loop time of 1.07472 on 1 procs for 2000 steps with 18 atoms

Performance: 160.786 ns/day, 0.149 hours/ns, 1860.946 timesteps/s
99.9% CPU use with 1 MPI tasks x no OpenMP threads

MPI task timing breakdown:
Section |  min time  |  avg time  |  max time  |%varavg| %total
---------------------------------------------------------------
Pair    | 0.015512   | 0.015512   | 0.015512   |   0.0 |  1.44
Bond    | 0.018711   | 0.018711   | 0.018711   |   0.0 |  1.74
Kspace  | 1.0319     | 1.0319     | 1.0319     |   0.0 | 96.01
Neigh   | 0.0017941  | 0.0017941  | 0.0017941  |   0.0 |  0.17
Comm    | 0.0011055  | 0.0011055  | 0.0011055  |   0.0 |  0.10
Output  | 2.0981e-05 | 2.0981e-05 | 2.0981e-05 |   0.0 |  0.00
Modify  | 0.0019739  | 0.0019739  | 0.0019739  |   0.0 |  0.18
Other   |            | 0.003733   |            |       |  0.35

Nlocal:    18 ave 18 max 18 min
Histogram: 1 0 0 0 0 0 0 0 0 0
Nghost:    0 ave 0 max 0 min
Histogram: 1 0 0 0 0 0 0 0 0 0
Neighs:    153 ave 153 max 153 min
Histogram: 1 0 0 0 0 0 0 0 0 0

Total # of neighbors = 153
Ave neighs/atom = 8.5
Ave special neighs/atom = 8
Neighbor list builds = 87
Dangerous builds = 0
unfix pysimm_md
min_style cg
minimize 0.001 0.001 10000 100000
WARNING: Using 'neigh_modify every 1 delay 0 check yes' setting during minimization (../min.cpp:190)
PPPM initialization ...
  using 12-bit tables for long-range coulomb (../kspace.cpp:332)
  G vector (1/distance) = 0.111471
  grid = 12 12 12
  stencil order = 5
  estimated absolute RMS force accuracy = 0.0380782
  estimated relative force accuracy = 0.000114671
  using double precision KISS FFT
  3d grid and FFT values/proc = 4913 1728
Per MPI rank memory allocation (min/avg/max) = 14.01 | 14.01 | 14.01 Mbytes
Step Temp E_pair E_mol TotEng Press 
    2000    983.74825   -194.96969     67.09777   -78.021683   -2.2506927 
    2015    983.74825   -204.02304    14.903405   -139.26941     1.411456 
Loop time of 0.0127711 on 1 procs for 15 steps with 18 atoms

101.8% CPU use with 1 MPI tasks x no OpenMP threads

Minimization stats:
  Stopping criterion = energy tolerance
  Energy initial, next-to-last, final = 
        -127.871915742     -188.983120112      -189.11963931
  Force two-norm initial, final = 315.828 12.1476
  Force max component initial, final = 147.01 4.57723
  Final line search alpha, max atom move = 0.00911782 0.0417343
  Iterations, force evaluations = 15 30

MPI task timing breakdown:
Section |  min time  |  avg time  |  max time  |%varavg| %total
---------------------------------------------------------------
Pair    | 0.00029063 | 0.00029063 | 0.00029063 |   0.0 |  2.28
Bond    | 0.00026989 | 0.00026989 | 0.00026989 |   0.0 |  2.11
Kspace  | 0.012113   | 0.012113   | 0.012113   |   0.0 | 94.85
Neigh   | 0          | 0          | 0          |   0.0 |  0.00
Comm    | 1.1921e-05 | 1.1921e-05 | 1.1921e-05 |   0.0 |  0.09
Output  | 0          | 0          | 0          |   0.0 |  0.00
Modify  | 0          | 0          | 0          |   0.0 |  0.00
Other   |            | 8.535e-05  |            |       |  0.67

Nlocal:    18 ave 18 max 18 min
Histogram: 1 0 0 0 0 0 0 0 0 0
Nghost:    0 ave 0 max 0 min
Histogram: 1 0 0 0 0 0 0 0 0 0
Neighs:    153 ave 153 max 153 min
Histogram: 1 0 0 0 0 0 0 0 0 0

Total # of neighbors = 153
Ave neighs/atom = 8.5
Ave special neighs/atom = 8
Neighbor list builds = 0
Dangerous builds = 0
write_dump all custom pysimm.dump.tmp id q x y z vx vy vz
quit


################################################################################
##################################    Init    ##################################
################################################################################
units           real
atom_style      full
pair_style      lj/cut/coul/long 12.0  12.0
kspace_style    pppm 1e-4
bond_style      harmonic
angle_style     harmonic
dihedral_style  fourier
improper_style  cvff
special_bonds   amber
pair_modify     mix arithmetic
read_data       temp.lmps
  orthogonal box = (-56.1074 -56.1074 -56.1074) to (56.1074 56.1074 56.1074)
  1 by 1 by 1 MPI processor grid
  reading atoms ...
  27 atoms
  reading velocities ...
  27 velocities
  scanning bonds ...
  4 = max bonds/atom
  scanning angles ...
  6 = max angles/atom
  scanning dihedrals ...
  10 = max dihedrals/atom
  scanning impropers ...
  1 = max impropers/atom
  reading bonds ...
  26 bonds
  reading angles ...
  40 angles
  reading dihedrals ...
  50 dihedrals
  reading impropers ...
  6 impropers
  4 = max # of 1-2 neighbors
  5 = max # of 1-3 neighbors
  10 = max # of 1-4 neighbors
  13 = max # of special neighbors
  special bonds CPU = 0.000205994 secs
  read_data CPU = 0.0035758 secs
################################################################################

timestep        1
fix             pysimm_md all nve/limit 0.1
run             2000
PPPM initialization ...
  using 12-bit tables for long-range coulomb (../kspace.cpp:332)
  G vector (1/distance) = 0.128657
  grid = 15 15 15
  stencil order = 5
  estimated absolute RMS force accuracy = 0.025742
  estimated relative force accuracy = 7.75213e-05
  using double precision KISS FFT
  3d grid and FFT values/proc = 8000 3375
Neighbor list info ...
  update every 1 steps, delay 10 steps, check yes
  max neighbors/atom: 2000, page size: 100000
  master list distance cutoff = 14
  ghost atom cutoff = 14
  binsize = 7, bins = 17 17 17
  1 neighbor lists, perpetual/occasional/extra = 1 0 0
  (1) pair lj/cut/coul/long, perpetual
      attributes: half, newton on
      pair build: half/bin/newton
      stencil: half/bin/3d/newton
      bin: standard
Per MPI rank memory allocation (min/avg/max) = 13.21 | 13.21 | 13.21 Mbytes
Step Temp E_pair E_mol TotEng Press 
       0      652.141   -266.76481    174.87516   -41.348025     8.356069 
    2000    737.69015   -334.89855    84.543647   -193.18313   -3.2589414 
Loop time of 1.38898 on 1 procs for 2000 steps with 27 atoms

Performance: 124.407 ns/day, 0.193 hours/ns, 1439.901 timesteps/s
100.1% CPU use with 1 MPI tasks x no OpenMP threads

MPI task timing breakdown:
Section |  min time  |  avg time  |  max time  |%varavg| %total
---------------------------------------------------------------
Pair    | 0.021222   | 0.021222   | 0.021222   |   0.0 |  1.53
Bond    | 0.019252   | 0.019252   | 0.019252   |   0.0 |  1.39
Kspace  | 1.3416     | 1.3416     | 1.3416     |   0.0 | 96.59
Neigh   | 0.00095701 | 0.00095701 | 0.00095701 |   0.0 |  0.07
Comm    | 0.0010905  | 0.0010905  | 0.0010905  |   0.0 |  0.08
Output  | 1.7881e-05 | 1.7881e-05 | 1.7881e-05 |   0.0 |  0.00
Modify  | 0.0015652  | 0.0015652  | 0.0015652  |   0.0 |  0.11
Other   |            | 0.003314   |            |       |  0.24

Nlocal:    27 ave 27 max 27 min
Histogram: 1 0 0 0 0 0 0 0 0 0
Nghost:    9 ave 9 max 9 min
Histogram: 1 0 0 0 0 0 0 0 0 0
Neighs:    351 ave 351 max 351 min
Histogram: 1 0 0 0 0 0 0 0 0 0

Total # of neighbors = 351
Ave neighs/atom = 13
Ave special neighs/atom = 8.59259
Neighbor list builds = 43
Dangerous builds = 0
unfix pysimm_md
min_style cg
minimize 0.001 0.001 10000 100000
WARNING: Using 'neigh_modify every 1 delay 0 check yes' setting during minimization (../min.cpp:190)
PPPM initialization ...
  using 12-bit tables for long-range coulomb (../kspace.cpp:332)
  G vector (1/distance) = 0.128657
  grid = 15 15 15
  stencil order = 5
  estimated absolute RMS force accuracy = 0.025742
  estimated relative force accuracy = 7.75213e-05
  using double precision KISS FFT
  3d grid and FFT values/proc = 8000 3375
Per MPI rank memory allocation (min/avg/max) = 14.34 | 14.34 | 14.34 Mbytes
Step Temp E_pair E_mol TotEng Press 
    2000    737.69015   -334.89855    84.543647   -193.18313   -3.2589414 
    2019    737.69015   -342.47861    31.252985   -254.05386    1.7217031 
Loop time of 0.0277281 on 1 procs for 19 steps with 27 atoms

101.0% CPU use with 1 MPI tasks x no OpenMP threads

Minimization stats:
  Stopping criterion = energy tolerance
  Energy initial, next-to-last, final = 
         -250.35490019     -310.976278999     -311.225628264
  Force two-norm initial, final = 285.817 21.3079
  Force max component initial, final = 112.554 7.08204
  Final line search alpha, max atom move = 0.00528731 0.0374449
  Iterations, force evaluations = 19 38

MPI task timing breakdown:
Section |  min time  |  avg time  |  max time  |%varavg| %total
---------------------------------------------------------------
Pair    | 0.0006485  | 0.0006485  | 0.0006485  |   0.0 |  2.34
Bond    | 0.00041604 | 0.00041604 | 0.00041604 |   0.0 |  1.50
Kspace  | 0.026501   | 0.026501   | 0.026501   |   0.0 | 95.57
Neigh   | 0          | 0          | 0          |   0.0 |  0.00
Comm    | 2.1696e-05 | 2.1696e-05 | 2.1696e-05 |   0.0 |  0.08
Output  | 0          | 0          | 0          |   0.0 |  0.00
Modify  | 0          | 0          | 0          |   0.0 |  0.00
Other   |            | 0.0001411  |            |       |  0.51

Nlocal:    27 ave 27 max 27 min
Histogram: 1 0 0 0 0 0 0 0 0 0
Nghost:    10 ave 10 max 10 min
Histogram: 1 0 0 0 0 0 0 0 0 0
Neighs:    351 ave 351 max 351 min
Histogram: 1 0 0 0 0 0 0 0 0 0

Total # of neighbors = 351
Ave neighs/atom = 13
Ave special neighs/atom = 8.59259
Neighbor list builds = 0
Dangerous builds = 0
write_dump all custom pysimm.dump.tmp id q x y z vx vy vz
quit


################################################################################
##################################    Init    ##################################
################################################################################
units           real
atom_style      full
pair_style      lj/cut/coul/long 12.0  12.0
kspace_style    pppm 1e-4
bond_style      harmonic
angle_style     harmonic
dihedral_style  fourier
improper_style  cvff
special_bonds   amber
pair_modify     mix arithmetic
read_data       temp.lmps
  orthogonal box = (-56.1074 -56.1074 -56.1074) to (56.1074 56.1074 56.1074)
  1 by 1 by 1 MPI processor grid
  reading atoms ...
  36 atoms
  reading velocities ...
  36 velocities
  scanning bonds ...
  4 = max bonds/atom
  scanning angles ...
  6 = max angles/atom
  scanning dihedrals ...
  10 = max dihedrals/atom
  scanning impropers ...
  1 = max impropers/atom
  reading bonds ...
  35 bonds
  reading angles ...
  55 angles
  reading dihedrals ...
  70 dihedrals
  reading impropers ...
  8 impropers
  4 = max # of 1-2 neighbors
  5 = max # of 1-3 neighbors
  10 = max # of 1-4 neighbors
  13 = max # of special neighbors
  special bonds CPU = 0.000216007 secs
  read_data CPU = 0.00334907 secs
################################################################################

timestep        1
fix             pysimm_md all nve/limit 0.1
run             2000
PPPM initialization ...
  using 12-bit tables for long-range coulomb (../kspace.cpp:332)
  G vector (1/distance) = 0.128657
  grid = 15 15 15
  stencil order = 5
  estimated absolute RMS force accuracy = 0.0297243
  estimated relative force accuracy = 8.95139e-05
  using double precision KISS FFT
  3d grid and FFT values/proc = 8000 3375
Neighbor list info ...
  update every 1 steps, delay 10 steps, check yes
  max neighbors/atom: 2000, page size: 100000
  master list distance cutoff = 14
  ghost atom cutoff = 14
  binsize = 7, bins = 17 17 17
  1 neighbor lists, perpetual/occasional/extra = 1 0 0
  (1) pair lj/cut/coul/long, perpetual
      attributes: half, newton on
      pair build: half/bin/newton
      stencil: half/bin/3d/newton
      bin: standard
Per MPI rank memory allocation (min/avg/max) = 13.21 | 13.21 | 13.21 Mbytes
Step Temp E_pair E_mol TotEng Press 
       0    554.62524   -467.44631    85.252603   -324.33057   -3.9672199 
    2000    577.04097   -462.37988    77.248838   -324.92931    3.4325063 
Loop time of 1.38741 on 1 procs for 2000 steps with 36 atoms

Performance: 124.549 ns/day, 0.193 hours/ns, 1441.536 timesteps/s
100.0% CPU use with 1 MPI tasks x no OpenMP threads

MPI task timing breakdown:
Section |  min time  |  avg time  |  max time  |%varavg| %total
---------------------------------------------------------------
Pair    | 0.036369   | 0.036369   | 0.036369   |   0.0 |  2.62
Bond    | 0.026776   | 0.026776   | 0.026776   |   0.0 |  1.93
Kspace  | 1.3164     | 1.3164     | 1.3164     |   0.0 | 94.88
Neigh   | 0.0010939  | 0.0010939  | 0.0010939  |   0.0 |  0.08
Comm    | 0.0011089  | 0.0011089  | 0.0011089  |   0.0 |  0.08
Output  | 1.9073e-05 | 1.9073e-05 | 1.9073e-05 |   0.0 |  0.00
Modify  | 0.0019701  | 0.0019701  | 0.0019701  |   0.0 |  0.14
Other   |            | 0.003685   |            |       |  0.27

Nlocal:    36 ave 36 max 36 min
Histogram: 1 0 0 0 0 0 0 0 0 0
Nghost:    18 ave 18 max 18 min
Histogram: 1 0 0 0 0 0 0 0 0 0
Neighs:    627 ave 627 max 627 min
Histogram: 1 0 0 0 0 0 0 0 0 0

Total # of neighbors = 627
Ave neighs/atom = 17.4167
Ave special neighs/atom = 8.88889
Neighbor list builds = 34
Dangerous builds = 0
unfix pysimm_md
min_style cg
minimize 0.001 0.001 10000 100000
WARNING: Using 'neigh_modify every 1 delay 0 check yes' setting during minimization (../min.cpp:190)
PPPM initialization ...
  using 12-bit tables for long-range coulomb (../kspace.cpp:332)
  G vector (1/distance) = 0.128657
  grid = 15 15 15
  stencil order = 5
  estimated absolute RMS force accuracy = 0.0297243
  estimated relative force accuracy = 8.95139e-05
  using double precision KISS FFT
  3d grid and FFT values/proc = 8000 3375
Per MPI rank memory allocation (min/avg/max) = 14.34 | 14.34 | 14.34 Mbytes
Step Temp E_pair E_mol TotEng Press 
    2000    577.04097   -462.37988    77.248838   -324.92931    3.4325063 
    2010    577.04097   -471.24341    41.720402   -369.32127    2.8029261 
Loop time of 0.0162051 on 1 procs for 10 steps with 36 atoms

98.7% CPU use with 1 MPI tasks x no OpenMP threads

Minimization stats:
  Stopping criterion = energy tolerance
  Energy initial, next-to-last, final = 
        -385.131042173     -429.200846952      -429.52300715
  Force two-norm initial, final = 248.211 24.42
  Force max component initial, final = 63.0896 7.48331
  Final line search alpha, max atom move = 0.00948918 0.0710105
  Iterations, force evaluations = 10 20

MPI task timing breakdown:
Section |  min time  |  avg time  |  max time  |%varavg| %total
---------------------------------------------------------------
Pair    | 0.00064516 | 0.00064516 | 0.00064516 |   0.0 |  3.98
Bond    | 0.00032735 | 0.00032735 | 0.00032735 |   0.0 |  2.02
Kspace  | 0.015146   | 0.015146   | 0.015146   |   0.0 | 93.46
Neigh   | 0          | 0          | 0          |   0.0 |  0.00
Comm    | 1.2159e-05 | 1.2159e-05 | 1.2159e-05 |   0.0 |  0.08
Output  | 0          | 0          | 0          |   0.0 |  0.00
Modify  | 0          | 0          | 0          |   0.0 |  0.00
Other   |            | 7.439e-05  |            |       |  0.46

Nlocal:    36 ave 36 max 36 min
Histogram: 1 0 0 0 0 0 0 0 0 0
Nghost:    18 ave 18 max 18 min
Histogram: 1 0 0 0 0 0 0 0 0 0
Neighs:    628 ave 628 max 628 min
Histogram: 1 0 0 0 0 0 0 0 0 0

Total # of neighbors = 628
Ave neighs/atom = 17.4444
Ave special neighs/atom = 8.88889
Neighbor list builds = 0
Dangerous builds = 0
write_dump all custom pysimm.dump.tmp id q x y z vx vy vz
quit


################################################################################
##################################    Init    ##################################
################################################################################
units           real
atom_style      full
pair_style      lj/cut/coul/long 12.0  12.0
kspace_style    pppm 1e-4
bond_style      harmonic
angle_style     harmonic
dihedral_style  fourier
improper_style  cvff
special_bonds   amber
pair_modify     mix arithmetic
read_data       temp.lmps
  orthogonal box = (-56.1074 -56.1074 -56.1074) to (56.1074 56.1074 56.1074)
  1 by 1 by 1 MPI processor grid
  reading atoms ...
  45 atoms
  reading velocities ...
  45 velocities
  scanning bonds ...
  4 = max bonds/atom
  scanning angles ...
  6 = max angles/atom
  scanning dihedrals ...
  10 = max dihedrals/atom
  scanning impropers ...
  1 = max impropers/atom
  reading bonds ...
  44 bonds
  reading angles ...
  70 angles
  reading dihedrals ...
  90 dihedrals
  reading impropers ...
  10 impropers
  4 = max # of 1-2 neighbors
  5 = max # of 1-3 neighbors
  10 = max # of 1-4 neighbors
  13 = max # of special neighbors
  special bonds CPU = 0.000235081 secs
  read_data CPU = 0.00377107 secs
################################################################################

timestep        1
fix             pysimm_md all nve/limit 0.1
run             2000
PPPM initialization ...
  using 12-bit tables for long-range coulomb (../kspace.cpp:332)
  G vector (1/distance) = 0.128657
  grid = 15 15 15
  stencil order = 5
  estimated absolute RMS force accuracy = 0.0332328
  estimated relative force accuracy = 0.00010008
  using double precision KISS FFT
  3d grid and FFT values/proc = 8000 3375
Neighbor list info ...
  update every 1 steps, delay 10 steps, check yes
  max neighbors/atom: 2000, page size: 100000
  master list distance cutoff = 14
  ghost atom cutoff = 14
  binsize = 7, bins = 17 17 17
  1 neighbor lists, perpetual/occasional/extra = 1 0 0
  (1) pair lj/cut/coul/long, perpetual
      attributes: half, newton on
      pair build: half/bin/newton
      stencil: half/bin/3d/newton
      bin: standard
Per MPI rank memory allocation (min/avg/max) = 13.21 | 13.21 | 13.21 Mbytes
Step Temp E_pair E_mol TotEng Press 
       0    464.28084   -534.68002    204.28998   -269.49699    9.9834989 
    2000    544.48254   -615.40586    127.73755   -416.25635    1.6619198 
Loop time of 1.48476 on 1 procs for 2000 steps with 45 atoms

Performance: 116.383 ns/day, 0.206 hours/ns, 1347.022 timesteps/s
100.0% CPU use with 1 MPI tasks x no OpenMP threads

MPI task timing breakdown:
Section |  min time  |  avg time  |  max time  |%varavg| %total
---------------------------------------------------------------
Pair    | 0.053584   | 0.053584   | 0.053584   |   0.0 |  3.61
Bond    | 0.033957   | 0.033957   | 0.033957   |   0.0 |  2.29
Kspace  | 1.3881     | 1.3881     | 1.3881     |   0.0 | 93.49
Neigh   | 0.0016     | 0.0016     | 0.0016     |   0.0 |  0.11
Comm    | 0.0012696  | 0.0012696  | 0.0012696  |   0.0 |  0.09
Output  | 2.0027e-05 | 2.0027e-05 | 2.0027e-05 |   0.0 |  0.00
Modify  | 0.0022335  | 0.0022335  | 0.0022335  |   0.0 |  0.15
Other   |            | 0.004009   |            |       |  0.27

Nlocal:    45 ave 45 max 45 min
Histogram: 1 0 0 0 0 0 0 0 0 0
Nghost:    23 ave 23 max 23 min
Histogram: 1 0 0 0 0 0 0 0 0 0
Neighs:    990 ave 990 max 990 min
Histogram: 1 0 0 0 0 0 0 0 0 0

Total # of neighbors = 990
Ave neighs/atom = 22
Ave special neighs/atom = 9.06667
Neighbor list builds = 35
Dangerous builds = 0
unfix pysimm_md
min_style cg
minimize 0.001 0.001 10000 100000
WARNING: Using 'neigh_modify every 1 delay 0 check yes' setting during minimization (../min.cpp:190)
PPPM initialization ...
  using 12-bit tables for long-range coulomb (../kspace.cpp:332)
  G vector (1/distance) = 0.128657
  grid = 15 15 15
  stencil order = 5
  estimated absolute RMS force accuracy = 0.0332328
  estimated relative force accuracy = 0.00010008
  using double precision KISS FFT
  3d grid and FFT values/proc = 8000 3375
Per MPI rank memory allocation (min/avg/max) = 14.34 | 14.34 | 14.34 Mbytes
Step Temp E_pair E_mol TotEng Press 
    2000    544.48254   -615.40586    127.73755   -416.25635    1.6619198 
    2016    544.48254   -613.36461    60.959865   -480.99279    1.8675951 
Loop time of 0.025898 on 1 procs for 16 steps with 45 atoms

100.4% CPU use with 1 MPI tasks x no OpenMP threads

Minimization stats:
  Stopping criterion = energy tolerance
  Energy initial, next-to-last, final = 
        -487.668308663     -551.913221739      -552.40474621
  Force two-norm initial, final = 266.355 27.2393
  Force max component initial, final = 76.4536 7.52405
  Final line search alpha, max atom move = 0.00405645 0.0305209
  Iterations, force evaluations = 16 32

MPI task timing breakdown:
Section |  min time  |  avg time  |  max time  |%varavg| %total
---------------------------------------------------------------
Pair    | 0.0014322  | 0.0014322  | 0.0014322  |   0.0 |  5.53
Bond    | 0.00062895 | 0.00062895 | 0.00062895 |   0.0 |  2.43
Kspace  | 0.023678   | 0.023678   | 0.023678   |   0.0 | 91.43
Neigh   | 0          | 0          | 0          |   0.0 |  0.00
Comm    | 2.5749e-05 | 2.5749e-05 | 2.5749e-05 |   0.0 |  0.10
Output  | 0          | 0          | 0          |   0.0 |  0.00
Modify  | 0          | 0          | 0          |   0.0 |  0.00
Other   |            | 0.0001333  |            |       |  0.51

Nlocal:    45 ave 45 max 45 min
Histogram: 1 0 0 0 0 0 0 0 0 0
Nghost:    25 ave 25 max 25 min
Histogram: 1 0 0 0 0 0 0 0 0 0
Neighs:    990 ave 990 max 990 min
Histogram: 1 0 0 0 0 0 0 0 0 0

Total # of neighbors = 990
Ave neighs/atom = 22
Ave special neighs/atom = 9.06667
Neighbor list builds = 0
Dangerous builds = 0
write_dump all custom pysimm.dump.tmp id q x y z vx vy vz
quit


################################################################################
##################################    Init    ##################################
################################################################################
units           real
atom_style      full
pair_style      lj/cut/coul/long 12.0  12.0
kspace_style    pppm 1e-4
bond_style      harmonic
angle_style     harmonic
dihedral_style  fourier
improper_style  cvff
special_bonds   amber
pair_modify     mix arithmetic
read_data       temp.lmps
  orthogonal box = (-56.1074 -56.1074 -56.1074) to (56.1074 56.1074 56.1074)
  1 by 1 by 1 MPI processor grid
  reading atoms ...
  54 atoms
  reading velocities ...
  54 velocities
  scanning bonds ...
  4 = max bonds/atom
  scanning angles ...
  6 = max angles/atom
  scanning dihedrals ...
  10 = max dihedrals/atom
  scanning impropers ...
  1 = max impropers/atom
  reading bonds ...
  53 bonds
  reading angles ...
  85 angles
  reading dihedrals ...
  110 dihedrals
  reading impropers ...
  12 impropers
  4 = max # of 1-2 neighbors
  5 = max # of 1-3 neighbors
  10 = max # of 1-4 neighbors
  13 = max # of special neighbors
  special bonds CPU = 0.000257015 secs
  read_data CPU = 0.00371504 secs
################################################################################

timestep        1
fix             pysimm_md all nve/limit 0.1
run             2000
PPPM initialization ...
  using 12-bit tables for long-range coulomb (../kspace.cpp:332)
  G vector (1/distance) = 0.133758
  grid = 16 16 16
  stencil order = 5
  estimated absolute RMS force accuracy = 0.0300222
  estimated relative force accuracy = 9.04109e-05
  using double precision KISS FFT
  3d grid and FFT values/proc = 9261 4096
Neighbor list info ...
  update every 1 steps, delay 10 steps, check yes
  max neighbors/atom: 2000, page size: 100000
  master list distance cutoff = 14
  ghost atom cutoff = 14
  binsize = 7, bins = 17 17 17
  1 neighbor lists, perpetual/occasional/extra = 1 0 0
  (1) pair lj/cut/coul/long, perpetual
      attributes: half, newton on
      pair build: half/bin/newton
      stencil: half/bin/3d/newton
      bin: standard
Per MPI rank memory allocation (min/avg/max) = 13.32 | 13.32 | 13.32 Mbytes
Step Temp E_pair E_mol TotEng Press 
       0    456.39926    -738.3225     111.9302   -554.28901   -4.0300297 
    2000    420.27113   -741.68105    120.54724   -554.73815    1.3441335 
Loop time of 1.82552 on 1 procs for 2000 steps with 54 atoms

Performance: 94.658 ns/day, 0.254 hours/ns, 1095.580 timesteps/s
100.0% CPU use with 1 MPI tasks x no OpenMP threads

MPI task timing breakdown:
Section |  min time  |  avg time  |  max time  |%varavg| %total
---------------------------------------------------------------
Pair    | 0.074088   | 0.074088   | 0.074088   |   0.0 |  4.06
Bond    | 0.040909   | 0.040909   | 0.040909   |   0.0 |  2.24
Kspace  | 1.7001     | 1.7001     | 1.7001     |   0.0 | 93.13
Neigh   | 0.0019412  | 0.0019412  | 0.0019412  |   0.0 |  0.11
Comm    | 0.0016551  | 0.0016551  | 0.0016551  |   0.0 |  0.09
Output  | 2.2888e-05 | 2.2888e-05 | 2.2888e-05 |   0.0 |  0.00
Modify  | 0.0026057  | 0.0026057  | 0.0026057  |   0.0 |  0.14
Other   |            | 0.004182   |            |       |  0.23

Nlocal:    54 ave 54 max 54 min
Histogram: 1 0 0 0 0 0 0 0 0 0
Nghost:    48 ave 48 max 48 min
Histogram: 1 0 0 0 0 0 0 0 0 0
Neighs:    1416 ave 1416 max 1416 min
Histogram: 1 0 0 0 0 0 0 0 0 0

Total # of neighbors = 1416
Ave neighs/atom = 26.2222
Ave special neighs/atom = 9.18519
Neighbor list builds = 31
Dangerous builds = 0
unfix pysimm_md
min_style cg
minimize 0.001 0.001 10000 100000
WARNING: Using 'neigh_modify every 1 delay 0 check yes' setting during minimization (../min.cpp:190)
PPPM initialization ...
  using 12-bit tables for long-range coulomb (../kspace.cpp:332)
  G vector (1/distance) = 0.133758
  grid = 16 16 16
  stencil order = 5
  estimated absolute RMS force accuracy = 0.0300222
  estimated relative force accuracy = 9.04109e-05
  using double precision KISS FFT
  3d grid and FFT values/proc = 9261 4096
Per MPI rank memory allocation (min/avg/max) = 14.45 | 14.45 | 14.45 Mbytes
Step Temp E_pair E_mol TotEng Press 
    2000    420.27113   -741.68105    120.54724   -554.73815    1.3441335 
    2013    420.27113    -740.8367    66.484168   -607.95687    1.2069486 
Loop time of 0.0258539 on 1 procs for 13 steps with 54 atoms

96.7% CPU use with 1 MPI tasks x no OpenMP threads

Minimization stats:
  Stopping criterion = energy tolerance
  Energy initial, next-to-last, final = 
         -621.13381254     -674.112989766     -674.352534462
  Force two-norm initial, final = 295.405 30.6202
  Force max component initial, final = 88.0943 6.89591
  Final line search alpha, max atom move = 0.00554055 0.0382072
  Iterations, force evaluations = 13 26

MPI task timing breakdown:
Section |  min time  |  avg time  |  max time  |%varavg| %total
---------------------------------------------------------------
Pair    | 0.0017171  | 0.0017171  | 0.0017171  |   0.0 |  6.64
Bond    | 0.00067091 | 0.00067091 | 0.00067091 |   0.0 |  2.60
Kspace  | 0.023334   | 0.023334   | 0.023334   |   0.0 | 90.25
Neigh   | 0          | 0          | 0          |   0.0 |  0.00
Comm    | 1.7166e-05 | 1.7166e-05 | 1.7166e-05 |   0.0 |  0.07
Output  | 0          | 0          | 0          |   0.0 |  0.00
Modify  | 0          | 0          | 0          |   0.0 |  0.00
Other   |            | 0.0001144  |            |       |  0.44

Nlocal:    54 ave 54 max 54 min
Histogram: 1 0 0 0 0 0 0 0 0 0
Nghost:    45 ave 45 max 45 min
Histogram: 1 0 0 0 0 0 0 0 0 0
Neighs:    1423 ave 1423 max 1423 min
Histogram: 1 0 0 0 0 0 0 0 0 0

Total # of neighbors = 1423
Ave neighs/atom = 26.3519
Ave special neighs/atom = 9.18519
Neighbor list builds = 0
Dangerous builds = 0
write_dump all custom pysimm.dump.tmp id q x y z vx vy vz
quit


################################################################################
##################################    Init    ##################################
################################################################################
units           real
atom_style      full
pair_style      lj/cut/coul/long 12.0  12.0
kspace_style    pppm 1e-4
bond_style      harmonic
angle_style     harmonic
dihedral_style  fourier
improper_style  cvff
special_bonds   amber
pair_modify     mix arithmetic
read_data       temp.lmps
  orthogonal box = (-56.1074 -56.1074 -56.1074) to (56.1074 56.1074 56.1074)
  1 by 1 by 1 MPI processor grid
  reading atoms ...
  63 atoms
  reading velocities ...
  63 velocities
  scanning bonds ...
  4 = max bonds/atom
  scanning angles ...
  6 = max angles/atom
  scanning dihedrals ...
  10 = max dihedrals/atom
  scanning impropers ...
  1 = max impropers/atom
  reading bonds ...
  62 bonds
  reading angles ...
  100 angles
  reading dihedrals ...
  130 dihedrals
  reading impropers ...
  14 impropers
  4 = max # of 1-2 neighbors
  5 = max # of 1-3 neighbors
  10 = max # of 1-4 neighbors
  13 = max # of special neighbors
  special bonds CPU = 0.000236034 secs
  read_data CPU = 0.00388503 secs
################################################################################

timestep        1
fix             pysimm_md all nve/limit 0.1
run             2000
PPPM initialization ...
  using 12-bit tables for long-range coulomb (../kspace.cpp:332)
  G vector (1/distance) = 0.133758
  grid = 16 16 16
  stencil order = 5
  estimated absolute RMS force accuracy = 0.0324277
  estimated relative force accuracy = 9.7655e-05
  using double precision KISS FFT
  3d grid and FFT values/proc = 9261 4096
Neighbor list info ...
  update every 1 steps, delay 10 steps, check yes
  max neighbors/atom: 2000, page size: 100000
  master list distance cutoff = 14
  ghost atom cutoff = 14
  binsize = 7, bins = 17 17 17
  1 neighbor lists, perpetual/occasional/extra = 1 0 0
  (1) pair lj/cut/coul/long, perpetual
      attributes: half, newton on
      pair build: half/bin/newton
      stencil: half/bin/3d/newton
      bin: standard
Per MPI rank memory allocation (min/avg/max) = 13.33 | 13.33 | 13.33 Mbytes
Step Temp E_pair E_mol TotEng Press 
       0    363.00496    -865.2844    118.50183   -679.69554   -4.7446363 
    2000    356.44966   -864.74397    120.12683    -678.7416    3.9729663 
Loop time of 1.83896 on 1 procs for 2000 steps with 63 atoms

Performance: 93.966 ns/day, 0.255 hours/ns, 1087.572 timesteps/s
100.0% CPU use with 1 MPI tasks x no OpenMP threads

MPI task timing breakdown:
Section |  min time  |  avg time  |  max time  |%varavg| %total
---------------------------------------------------------------
Pair    | 0.096027   | 0.096027   | 0.096027   |   0.0 |  5.22
Bond    | 0.04559    | 0.04559    | 0.04559    |   0.0 |  2.48
Kspace  | 1.687      | 1.687      | 1.687      |   0.0 | 91.74
Neigh   | 0.0019665  | 0.0019665  | 0.0019665  |   0.0 |  0.11
Comm    | 0.0016265  | 0.0016265  | 0.0016265  |   0.0 |  0.09
Output  | 2.3127e-05 | 2.3127e-05 | 2.3127e-05 |   0.0 |  0.00
Modify  | 0.0027266  | 0.0027266  | 0.0027266  |   0.0 |  0.15
Other   |            | 0.004004   |            |       |  0.22

Nlocal:    63 ave 63 max 63 min
Histogram: 1 0 0 0 0 0 0 0 0 0
Nghost:    63 ave 63 max 63 min
Histogram: 1 0 0 0 0 0 0 0 0 0
Neighs:    1889 ave 1889 max 1889 min
Histogram: 1 0 0 0 0 0 0 0 0 0

Total # of neighbors = 1889
Ave neighs/atom = 29.9841
Ave special neighs/atom = 9.26984
Neighbor list builds = 28
Dangerous builds = 0
unfix pysimm_md
min_style cg
minimize 0.001 0.001 10000 100000
WARNING: Using 'neigh_modify every 1 delay 0 check yes' setting during minimization (../min.cpp:190)
PPPM initialization ...
  using 12-bit tables for long-range coulomb (../kspace.cpp:332)
  G vector (1/distance) = 0.133758
  grid = 16 16 16
  stencil order = 5
  estimated absolute RMS force accuracy = 0.0324277
  estimated relative force accuracy = 9.7655e-05
  using double precision KISS FFT
  3d grid and FFT values/proc = 9261 4096
Per MPI rank memory allocation (min/avg/max) = 14.45 | 14.45 | 14.45 Mbytes
Step Temp E_pair E_mol TotEng Press 
    2000    356.44966   -864.74397    120.12683    -678.7416    3.9729663 
    2011    356.44966   -868.57321    79.785956   -722.91171    3.7380274 
Loop time of 0.0225308 on 1 procs for 11 steps with 63 atoms

97.6% CPU use with 1 MPI tasks x no OpenMP threads

Minimization stats:
  Stopping criterion = energy tolerance
  Energy initial, next-to-last, final = 
        -744.617143517     -788.175207949     -788.787252881
  Force two-norm initial, final = 252.711 31.1791
  Force max component initial, final = 92.3221 6.17944
  Final line search alpha, max atom move = 0.0043997 0.0271877
  Iterations, force evaluations = 11 22

MPI task timing breakdown:
Section |  min time  |  avg time  |  max time  |%varavg| %total
---------------------------------------------------------------
Pair    | 0.0018909  | 0.0018909  | 0.0018909  |   0.0 |  8.39
Bond    | 0.00063062 | 0.00063062 | 0.00063062 |   0.0 |  2.80
Kspace  | 0.019905   | 0.019905   | 0.019905   |   0.0 | 88.35
Neigh   | 0          | 0          | 0          |   0.0 |  0.00
Comm    | 1.4067e-05 | 1.4067e-05 | 1.4067e-05 |   0.0 |  0.06
Output  | 0          | 0          | 0          |   0.0 |  0.00
Modify  | 0          | 0          | 0          |   0.0 |  0.00
Other   |            | 9.012e-05  |            |       |  0.40

Nlocal:    63 ave 63 max 63 min
Histogram: 1 0 0 0 0 0 0 0 0 0
Nghost:    64 ave 64 max 64 min
Histogram: 1 0 0 0 0 0 0 0 0 0
Neighs:    1902 ave 1902 max 1902 min
Histogram: 1 0 0 0 0 0 0 0 0 0

Total # of neighbors = 1902
Ave neighs/atom = 30.1905
Ave special neighs/atom = 9.26984
Neighbor list builds = 0
Dangerous builds = 0
write_dump all custom pysimm.dump.tmp id q x y z vx vy vz
quit


################################################################################
##################################    Init    ##################################
################################################################################
units           real
atom_style      full
pair_style      lj/cut/coul/long 12.0  12.0
kspace_style    pppm 1e-4
bond_style      harmonic
angle_style     harmonic
dihedral_style  fourier
improper_style  cvff
special_bonds   amber
pair_modify     mix arithmetic
read_data       temp.lmps
  orthogonal box = (-56.1074 -56.1074 -56.1074) to (56.1074 56.1074 56.1074)
  1 by 1 by 1 MPI processor grid
  reading atoms ...
  72 atoms
  reading velocities ...
  72 velocities
  scanning bonds ...
  4 = max bonds/atom
  scanning angles ...
  6 = max angles/atom
  scanning dihedrals ...
  10 = max dihedrals/atom
  scanning impropers ...
  1 = max impropers/atom
  reading bonds ...
  71 bonds
  reading angles ...
  115 angles
  reading dihedrals ...
  150 dihedrals
  reading impropers ...
  16 impropers
  4 = max # of 1-2 neighbors
  5 = max # of 1-3 neighbors
  10 = max # of 1-4 neighbors
  13 = max # of special neighbors
  special bonds CPU = 0.000267982 secs
  read_data CPU = 0.00381899 secs
################################################################################

timestep        1
fix             pysimm_md all nve/limit 0.1
run             2000
PPPM initialization ...
  using 12-bit tables for long-range coulomb (../kspace.cpp:332)
  G vector (1/distance) = 0.143164
  grid = 18 18 18
  stencil order = 5
  estimated absolute RMS force accuracy = 0.0238241
  estimated relative force accuracy = 7.17455e-05
  using double precision KISS FFT
  3d grid and FFT values/proc = 12167 5832
Neighbor list info ...
  update every 1 steps, delay 10 steps, check yes
  max neighbors/atom: 2000, page size: 100000
  master list distance cutoff = 14
  ghost atom cutoff = 14
  binsize = 7, bins = 17 17 17
  1 neighbor lists, perpetual/occasional/extra = 1 0 0
  (1) pair lj/cut/coul/long, perpetual
      attributes: half, newton on
      pair build: half/bin/newton
      stencil: half/bin/3d/newton
      bin: standard
Per MPI rank memory allocation (min/avg/max) = 13.59 | 13.59 | 13.59 Mbytes
Step Temp E_pair E_mol TotEng Press 
       0    314.53266   -994.19272    126.39444   -801.23138    -1.686073 
    2000    307.83625   -994.17327    128.32827    -800.6953   -2.0669027 
Loop time of 2.56783 on 1 procs for 2000 steps with 72 atoms

Performance: 67.294 ns/day, 0.357 hours/ns, 778.867 timesteps/s
100.0% CPU use with 1 MPI tasks x no OpenMP threads

MPI task timing breakdown:
Section |  min time  |  avg time  |  max time  |%varavg| %total
---------------------------------------------------------------
Pair    | 0.11615    | 0.11615    | 0.11615    |   0.0 |  4.52
Bond    | 0.053014   | 0.053014   | 0.053014   |   0.0 |  2.06
Kspace  | 2.3872     | 2.3872     | 2.3872     |   0.0 | 92.97
Neigh   | 0.0022836  | 0.0022836  | 0.0022836  |   0.0 |  0.09
Comm    | 0.0017676  | 0.0017676  | 0.0017676  |   0.0 |  0.07
Output  | 2.3842e-05 | 2.3842e-05 | 2.3842e-05 |   0.0 |  0.00
Modify  | 0.0029795  | 0.0029795  | 0.0029795  |   0.0 |  0.12
Other   |            | 0.004399   |            |       |  0.17

Nlocal:    72 ave 72 max 72 min
Histogram: 1 0 0 0 0 0 0 0 0 0
Nghost:    71 ave 71 max 71 min
Histogram: 1 0 0 0 0 0 0 0 0 0
Neighs:    2302 ave 2302 max 2302 min
Histogram: 1 0 0 0 0 0 0 0 0 0

Total # of neighbors = 2302
Ave neighs/atom = 31.9722
Ave special neighs/atom = 9.33333
Neighbor list builds = 25
Dangerous builds = 0
unfix pysimm_md
min_style cg
minimize 0.001 0.001 10000 100000
WARNING: Using 'neigh_modify every 1 delay 0 check yes' setting during minimization (../min.cpp:190)
PPPM initialization ...
  using 12-bit tables for long-range coulomb (../kspace.cpp:332)
  G vector (1/distance) = 0.143164
  grid = 18 18 18
  stencil order = 5
  estimated absolute RMS force accuracy = 0.0238241
  estimated relative force accuracy = 7.17455e-05
  using double precision KISS FFT
  3d grid and FFT values/proc = 12167 5832
Per MPI rank memory allocation (min/avg/max) = 14.71 | 14.71 | 14.71 Mbytes
Step Temp E_pair E_mol TotEng Press 
    2000    307.83625   -994.17327    128.32827    -800.6953   -2.0669027 
    2009    307.83625   -1001.3438    90.285673   -845.90847    1.3226899 
Loop time of 0.028151 on 1 procs for 9 steps with 72 atoms

99.4% CPU use with 1 MPI tasks x no OpenMP threads

Minimization stats:
  Stopping criterion = energy tolerance
  Energy initial, next-to-last, final = 
        -865.845004309     -910.231787284     -911.058170714
  Force two-norm initial, final = 250.686 32.2691
  Force max component initial, final = 73.3977 7.81289
  Final line search alpha, max atom move = 0.00679218 0.0530666
  Iterations, force evaluations = 9 18

MPI task timing breakdown:
Section |  min time  |  avg time  |  max time  |%varavg| %total
---------------------------------------------------------------
Pair    | 0.0018589  | 0.0018589  | 0.0018589  |   0.0 |  6.60
Bond    | 0.00058937 | 0.00058937 | 0.00058937 |   0.0 |  2.09
Kspace  | 0.025604   | 0.025604   | 0.025604   |   0.0 | 90.95
Neigh   | 0          | 0          | 0          |   0.0 |  0.00
Comm    | 1.812e-05  | 1.812e-05  | 1.812e-05  |   0.0 |  0.06
Output  | 0          | 0          | 0          |   0.0 |  0.00
Modify  | 0          | 0          | 0          |   0.0 |  0.00
Other   |            | 8.082e-05  |            |       |  0.29

Nlocal:    72 ave 72 max 72 min
Histogram: 1 0 0 0 0 0 0 0 0 0
Nghost:    69 ave 69 max 69 min
Histogram: 1 0 0 0 0 0 0 0 0 0
Neighs:    2310 ave 2310 max 2310 min
Histogram: 1 0 0 0 0 0 0 0 0 0

Total # of neighbors = 2310
Ave neighs/atom = 32.0833
Ave special neighs/atom = 9.33333
Neighbor list builds = 0
Dangerous builds = 0
write_dump all custom pysimm.dump.tmp id q x y z vx vy vz
quit


################################################################################
##################################    Init    ##################################
################################################################################
units           real
atom_style      full
pair_style      lj/cut/coul/long 12.0  12.0
kspace_style    pppm 1e-4
bond_style      harmonic
angle_style     harmonic
dihedral_style  fourier
improper_style  cvff
special_bonds   amber
pair_modify     mix arithmetic
read_data       temp.lmps
  orthogonal box = (-56.1074 -56.1074 -56.1074) to (56.1074 56.1074 56.1074)
  1 by 1 by 1 MPI processor grid
  reading atoms ...
  81 atoms
  reading velocities ...
  81 velocities
  scanning bonds ...
  4 = max bonds/atom
  scanning angles ...
  6 = max angles/atom
  scanning dihedrals ...
  10 = max dihedrals/atom
  scanning impropers ...
  1 = max impropers/atom
  reading bonds ...
  80 bonds
  reading angles ...
  130 angles
  reading dihedrals ...
  170 dihedrals
  reading impropers ...
  18 impropers
  4 = max # of 1-2 neighbors
  5 = max # of 1-3 neighbors
  10 = max # of 1-4 neighbors
  13 = max # of special neighbors
  special bonds CPU = 0.000291824 secs
  read_data CPU = 0.00409198 secs
################################################################################

timestep        1
fix             pysimm_md all nve/limit 0.1
run             2000
PPPM initialization ...
  using 12-bit tables for long-range coulomb (../kspace.cpp:332)
  G vector (1/distance) = 0.143165
  grid = 18 18 18
  stencil order = 5
  estimated absolute RMS force accuracy = 0.0252694
  estimated relative force accuracy = 7.6098e-05
  using double precision KISS FFT
  3d grid and FFT values/proc = 12167 5832
Neighbor list info ...
  update every 1 steps, delay 10 steps, check yes
  max neighbors/atom: 2000, page size: 100000
  master list distance cutoff = 14
  ghost atom cutoff = 14
  binsize = 7, bins = 17 17 17
  1 neighbor lists, perpetual/occasional/extra = 1 0 0
  (1) pair lj/cut/coul/long, perpetual
      attributes: half, newton on
      pair build: half/bin/newton
      stencil: half/bin/3d/newton
      bin: standard
Per MPI rank memory allocation (min/avg/max) = 13.59 | 13.59 | 13.59 Mbytes
Step Temp E_pair E_mol TotEng Press 
       0    276.10396    -1129.935     155.9113   -908.18262    -4.788715 
    2000    292.32748    -1142.627    164.97162   -907.94556    4.3260547 
Loop time of 2.75408 on 1 procs for 2000 steps with 81 atoms

Performance: 62.743 ns/day, 0.383 hours/ns, 726.195 timesteps/s
100.0% CPU use with 1 MPI tasks x no OpenMP threads

MPI task timing breakdown:
Section |  min time  |  avg time  |  max time  |%varavg| %total
---------------------------------------------------------------
Pair    | 0.15297    | 0.15297    | 0.15297    |   0.0 |  5.55
Bond    | 0.061634   | 0.061634   | 0.061634   |   0.0 |  2.24
Kspace  | 2.5269     | 2.5269     | 2.5269     |   0.0 | 91.75
Neigh   | 0.0027709  | 0.0027709  | 0.0027709  |   0.0 |  0.10
Comm    | 0.001893   | 0.001893   | 0.001893   |   0.0 |  0.07
Output  | 2.0981e-05 | 2.0981e-05 | 2.0981e-05 |   0.0 |  0.00
Modify  | 0.0035915  | 0.0035915  | 0.0035915  |   0.0 |  0.13
Other   |            | 0.00435    |            |       |  0.16

Nlocal:    81 ave 81 max 81 min
Histogram: 1 0 0 0 0 0 0 0 0 0
Nghost:    81 ave 81 max 81 min
Histogram: 1 0 0 0 0 0 0 0 0 0
Neighs:    3095 ave 3095 max 3095 min
Histogram: 1 0 0 0 0 0 0 0 0 0

Total # of neighbors = 3095
Ave neighs/atom = 38.2099
Ave special neighs/atom = 9.38272
Neighbor list builds = 26
Dangerous builds = 0
unfix pysimm_md
min_style cg
minimize 0.001 0.001 10000 100000
WARNING: Using 'neigh_modify every 1 delay 0 check yes' setting during minimization (../min.cpp:190)
PPPM initialization ...
  using 12-bit tables for long-range coulomb (../kspace.cpp:332)
  G vector (1/distance) = 0.143165
  grid = 18 18 18
  stencil order = 5
  estimated absolute RMS force accuracy = 0.0252694
  estimated relative force accuracy = 7.6098e-05
  using double precision KISS FFT
  3d grid and FFT values/proc = 12167 5832
Per MPI rank memory allocation (min/avg/max) = 14.71 | 14.71 | 14.71 Mbytes
Step Temp E_pair E_mol TotEng Press 
    2000    292.32748    -1142.627    164.97162   -907.94556    4.3260547 
    2008    292.32748   -1140.4534    109.01359   -961.72996   0.93312714 
Loop time of 0.0229909 on 1 procs for 8 steps with 81 atoms

100.0% CPU use with 1 MPI tasks x no OpenMP threads

Minimization stats:
  Stopping criterion = energy tolerance
  Energy initial, next-to-last, final = 
        -977.655372181     -1030.53950222     -1031.43977339
  Force two-norm initial, final = 283.071 37.0975
  Force max component initial, final = 68.277 8.4572
  Final line search alpha, max atom move = 0.00721636 0.0610302
  Iterations, force evaluations = 8 16

MPI task timing breakdown:
Section |  min time  |  avg time  |  max time  |%varavg| %total
---------------------------------------------------------------
Pair    | 0.0020366  | 0.0020366  | 0.0020366  |   0.0 |  8.86
Bond    | 0.00055099 | 0.00055099 | 0.00055099 |   0.0 |  2.40
Kspace  | 0.020312   | 0.020312   | 0.020312   |   0.0 | 88.35
Neigh   | 0          | 0          | 0          |   0.0 |  0.00
Comm    | 1.4067e-05 | 1.4067e-05 | 1.4067e-05 |   0.0 |  0.06
Output  | 0          | 0          | 0          |   0.0 |  0.00
Modify  | 0          | 0          | 0          |   0.0 |  0.00
Other   |            | 7.725e-05  |            |       |  0.34

Nlocal:    81 ave 81 max 81 min
Histogram: 1 0 0 0 0 0 0 0 0 0
Nghost:    81 ave 81 max 81 min
Histogram: 1 0 0 0 0 0 0 0 0 0
Neighs:    3095 ave 3095 max 3095 min
Histogram: 1 0 0 0 0 0 0 0 0 0

Total # of neighbors = 3095
Ave neighs/atom = 38.2099
Ave special neighs/atom = 9.38272
Neighbor list builds = 0
Dangerous builds = 0
write_dump all custom pysimm.dump.tmp id q x y z vx vy vz
quit


################################################################################
##################################    Init    ##################################
################################################################################
units           real
atom_style      full
pair_style      lj/cut/coul/long 12.0  12.0
kspace_style    pppm 1e-4
bond_style      harmonic
angle_style     harmonic
dihedral_style  fourier
improper_style  cvff
special_bonds   amber
pair_modify     mix arithmetic
read_data       temp.lmps
  orthogonal box = (-56.1074 -56.1074 -56.1074) to (56.1074 56.1074 56.1074)
  1 by 1 by 1 MPI processor grid
  reading atoms ...
  90 atoms
  reading velocities ...
  90 velocities
  scanning bonds ...
  4 = max bonds/atom
  scanning angles ...
  6 = max angles/atom
  scanning dihedrals ...
  10 = max dihedrals/atom
  scanning impropers ...
  1 = max impropers/atom
  reading bonds ...
  89 bonds
  reading angles ...
  145 angles
  reading dihedrals ...
  190 dihedrals
  reading impropers ...
  20 impropers
  4 = max # of 1-2 neighbors
  5 = max # of 1-3 neighbors
  10 = max # of 1-4 neighbors
  13 = max # of special neighbors
  special bonds CPU = 0.00022006 secs
  read_data CPU = 0.00375485 secs
################################################################################

timestep        1
fix             pysimm_md all nve/limit 0.1
run             2000
PPPM initialization ...
  using 12-bit tables for long-range coulomb (../kspace.cpp:332)
  G vector (1/distance) = 0.143165
  grid = 18 18 18
  stencil order = 5
  estimated absolute RMS force accuracy = 0.0266364
  estimated relative force accuracy = 8.02149e-05
  using double precision KISS FFT
  3d grid and FFT values/proc = 12167 5832
Neighbor list info ...
  update every 1 steps, delay 10 steps, check yes
  max neighbors/atom: 2000, page size: 100000
  master list distance cutoff = 14
  ghost atom cutoff = 14
  binsize = 7, bins = 17 17 17
  1 neighbor lists, perpetual/occasional/extra = 1 0 0
  (1) pair lj/cut/coul/long, perpetual
      attributes: half, newton on
      pair build: half/bin/newton
      stencil: half/bin/3d/newton
      bin: standard
Per MPI rank memory allocation (min/avg/max) = 13.59 | 13.59 | 13.59 Mbytes
Step Temp E_pair E_mol TotEng Press 
       0    265.37242   -1260.8549    159.50841   -1030.9453   -4.4900728 
    2000    257.84669   -1277.9216    178.48784   -1031.0291   -1.0595688 
Loop time of 2.80318 on 1 procs for 2000 steps with 90 atoms

Performance: 61.644 ns/day, 0.389 hours/ns, 713.475 timesteps/s
100.0% CPU use with 1 MPI tasks x no OpenMP threads

MPI task timing breakdown:
Section |  min time  |  avg time  |  max time  |%varavg| %total
---------------------------------------------------------------
Pair    | 0.18214    | 0.18214    | 0.18214    |   0.0 |  6.50
Bond    | 0.065067   | 0.065067   | 0.065067   |   0.0 |  2.32
Kspace  | 2.5416     | 2.5416     | 2.5416     |   0.0 | 90.67
Neigh   | 0.0041313  | 0.0041313  | 0.0041313  |   0.0 |  0.15
Comm    | 0.0019774  | 0.0019774  | 0.0019774  |   0.0 |  0.07
Output  | 2.2888e-05 | 2.2888e-05 | 2.2888e-05 |   0.0 |  0.00
Modify  | 0.003715   | 0.003715   | 0.003715   |   0.0 |  0.13
Other   |            | 0.004507   |            |       |  0.16

Nlocal:    90 ave 90 max 90 min
Histogram: 1 0 0 0 0 0 0 0 0 0
Nghost:    77 ave 77 max 77 min
Histogram: 1 0 0 0 0 0 0 0 0 0
Neighs:    3982 ave 3982 max 3982 min
Histogram: 1 0 0 0 0 0 0 0 0 0

Total # of neighbors = 3982
Ave neighs/atom = 44.2444
Ave special neighs/atom = 9.42222
Neighbor list builds = 37
Dangerous builds = 0
unfix pysimm_md
min_style cg
minimize 0.001 0.001 10000 100000
WARNING: Using 'neigh_modify every 1 delay 0 check yes' setting during minimization (../min.cpp:190)
PPPM initialization ...
  using 12-bit tables for long-range coulomb (../kspace.cpp:332)
  G vector (1/distance) = 0.143165
  grid = 18 18 18
  stencil order = 5
  estimated absolute RMS force accuracy = 0.0266364
  estimated relative force accuracy = 8.02149e-05
  using double precision KISS FFT
  3d grid and FFT values/proc = 12167 5832
Per MPI rank memory allocation (min/avg/max) = 14.71 | 14.71 | 14.71 Mbytes
Step Temp E_pair E_mol TotEng Press 
    2000    257.84669   -1277.9216    178.48784   -1031.0291   -1.0595688 
    2013    257.84669    -1277.629    121.35283   -1087.8715   -0.3137183 
Loop time of 0.039176 on 1 procs for 13 steps with 90 atoms

99.5% CPU use with 1 MPI tasks x no OpenMP threads

Minimization stats:
  Stopping criterion = energy tolerance
  Energy initial, next-to-last, final = 
        -1099.43380294     -1155.43687767     -1156.27614386
  Force two-norm initial, final = 279.983 43.5306
  Force max component initial, final = 67.0374 9.45264
  Final line search alpha, max atom move = 0.00412265 0.0389699
  Iterations, force evaluations = 13 26

MPI task timing breakdown:
Section |  min time  |  avg time  |  max time  |%varavg| %total
---------------------------------------------------------------
Pair    | 0.0043869  | 0.0043869  | 0.0043869  |   0.0 | 11.20
Bond    | 0.0010059  | 0.0010059  | 0.0010059  |   0.0 |  2.57
Kspace  | 0.033631   | 0.033631   | 0.033631   |   0.0 | 85.84
Neigh   | 0          | 0          | 0          |   0.0 |  0.00
Comm    | 3.5286e-05 | 3.5286e-05 | 3.5286e-05 |   0.0 |  0.09
Output  | 0          | 0          | 0          |   0.0 |  0.00
Modify  | 0          | 0          | 0          |   0.0 |  0.00
Other   |            | 0.0001173  |            |       |  0.30

Nlocal:    90 ave 90 max 90 min
Histogram: 1 0 0 0 0 0 0 0 0 0
Nghost:    76 ave 76 max 76 min
Histogram: 1 0 0 0 0 0 0 0 0 0
Neighs:    3980 ave 3980 max 3980 min
Histogram: 1 0 0 0 0 0 0 0 0 0

Total # of neighbors = 3980
Ave neighs/atom = 44.2222
Ave special neighs/atom = 9.42222
Neighbor list builds = 0
Dangerous builds = 0
write_dump all custom pysimm.dump.tmp id q x y z vx vy vz
quit


################################################################################
##################################    Init    ##################################
################################################################################
units           real
atom_style      full
pair_style      lj/cut/coul/long 12.0  12.0
kspace_style    pppm 1e-4
bond_style      harmonic
angle_style     harmonic
dihedral_style  fourier
improper_style  cvff
special_bonds   amber
pair_modify     mix arithmetic
read_data       temp.lmps
  orthogonal box = (-70.6908 -70.6908 -70.6908) to (70.6908 70.6908 70.6908)
  1 by 1 by 1 MPI processor grid
  reading atoms ...
  99 atoms
  reading velocities ...
  99 velocities
  scanning bonds ...
  4 = max bonds/atom
  scanning angles ...
  6 = max angles/atom
  scanning dihedrals ...
  10 = max dihedrals/atom
  scanning impropers ...
  1 = max impropers/atom
  reading bonds ...
  98 bonds
  reading angles ...
  160 angles
  reading dihedrals ...
  210 dihedrals
  reading impropers ...
  22 impropers
  4 = max # of 1-2 neighbors
  5 = max # of 1-3 neighbors
  10 = max # of 1-4 neighbors
  13 = max # of special neighbors
  special bonds CPU = 0.000659943 secs
  read_data CPU = 0.010155 secs
################################################################################

timestep        1
fix             pysimm_md all nve/limit 0.1
run             2000
PPPM initialization ...
  using 12-bit tables for long-range coulomb (../kspace.cpp:332)
  G vector (1/distance) = 0.12484
  grid = 18 18 18
  stencil order = 5
  estimated absolute RMS force accuracy = 0.0400693
  estimated relative force accuracy = 0.000120667
  using double precision KISS FFT
  3d grid and FFT values/proc = 12167 5832
Neighbor list info ...
  update every 1 steps, delay 10 steps, check yes
  max neighbors/atom: 2000, page size: 100000
  master list distance cutoff = 14
  ghost atom cutoff = 14
  binsize = 7, bins = 21 21 21
  1 neighbor lists, perpetual/occasional/extra = 1 0 0
  (1) pair lj/cut/coul/long, perpetual
      attributes: half, newton on
      pair build: half/bin/newton
      stencil: half/bin/3d/newton
      bin: standard
Per MPI rank memory allocation (min/avg/max) = 13.61 | 13.61 | 13.61 Mbytes
Step Temp E_pair E_mol TotEng Press 
       0     236.5335   -1382.0911    7120.5859    5807.5909   -144.25652 
    2000    714.77476   -1408.6941    371.68019   -828.21437    4.7237687 
Loop time of 3.36989 on 1 procs for 2000 steps with 99 atoms

Performance: 51.278 ns/day, 0.468 hours/ns, 593.491 timesteps/s
99.0% CPU use with 1 MPI tasks x no OpenMP threads

MPI task timing breakdown:
Section |  min time  |  avg time  |  max time  |%varavg| %total
---------------------------------------------------------------
Pair    | 0.2551     | 0.2551     | 0.2551     |   0.0 |  7.57
Bond    | 0.084305   | 0.084305   | 0.084305   |   0.0 |  2.50
Kspace  | 3.0045     | 3.0045     | 3.0045     |   0.0 | 89.16
Neigh   | 0.016186   | 0.016186   | 0.016186   |   0.0 |  0.48
Comm    | 0.0012386  | 0.0012386  | 0.0012386  |   0.0 |  0.04
Output  | 2.3842e-05 | 2.3842e-05 | 2.3842e-05 |   0.0 |  0.00
Modify  | 0.0046806  | 0.0046806  | 0.0046806  |   0.0 |  0.14
Other   |            | 0.003852   |            |       |  0.11

Nlocal:    99 ave 99 max 99 min
Histogram: 1 0 0 0 0 0 0 0 0 0
Nghost:    0 ave 0 max 0 min
Histogram: 1 0 0 0 0 0 0 0 0 0
Neighs:    4698 ave 4698 max 4698 min
Histogram: 1 0 0 0 0 0 0 0 0 0

Total # of neighbors = 4698
Ave neighs/atom = 47.4545
Ave special neighs/atom = 9.45455
Neighbor list builds = 98
Dangerous builds = 0
unfix pysimm_md
min_style cg
minimize 0.001 0.001 10000 100000
WARNING: Using 'neigh_modify every 1 delay 0 check yes' setting during minimization (../min.cpp:190)
PPPM initialization ...
  using 12-bit tables for long-range coulomb (../kspace.cpp:332)
  G vector (1/distance) = 0.12484
  grid = 18 18 18
  stencil order = 5
  estimated absolute RMS force accuracy = 0.0400693
  estimated relative force accuracy = 0.000120667
  using double precision KISS FFT
  3d grid and FFT values/proc = 12167 5832
Per MPI rank memory allocation (min/avg/max) = 14.74 | 14.74 | 14.74 Mbytes
Step Temp E_pair E_mol TotEng Press 
    2000    714.77476   -1408.6941    371.68019   -828.21437    4.7237687 
    2017    714.77476   -1396.2164      136.203   -1051.2139    3.4647087 
Loop time of 0.051204 on 1 procs for 17 steps with 99 atoms

101.5% CPU use with 1 MPI tasks x no OpenMP threads

Minimization stats:
  Stopping criterion = energy tolerance
  Energy initial, next-to-last, final = 
        -1037.01393197      -1258.9040126     -1260.01344017
  Force two-norm initial, final = 534.955 44.1327
  Force max component initial, final = 109.704 13.1582
  Final line search alpha, max atom move = 0.00327678 0.0431164
  Iterations, force evaluations = 17 34

MPI task timing breakdown:
Section |  min time  |  avg time  |  max time  |%varavg| %total
---------------------------------------------------------------
Pair    | 0.0061772  | 0.0061772  | 0.0061772  |   0.0 | 12.06
Bond    | 0.0013161  | 0.0013161  | 0.0013161  |   0.0 |  2.57
Kspace  | 0.043555   | 0.043555   | 0.043555   |   0.0 | 85.06
Neigh   | 0          | 0          | 0          |   0.0 |  0.00
Comm    | 1.6928e-05 | 1.6928e-05 | 1.6928e-05 |   0.0 |  0.03
Output  | 0          | 0          | 0          |   0.0 |  0.00
Modify  | 0          | 0          | 0          |   0.0 |  0.00
Other   |            | 0.0001383  |            |       |  0.27

Nlocal:    99 ave 99 max 99 min
Histogram: 1 0 0 0 0 0 0 0 0 0
Nghost:    0 ave 0 max 0 min
Histogram: 1 0 0 0 0 0 0 0 0 0
Neighs:    4715 ave 4715 max 4715 min
Histogram: 1 0 0 0 0 0 0 0 0 0

Total # of neighbors = 4715
Ave neighs/atom = 47.6263
Ave special neighs/atom = 9.45455
Neighbor list builds = 0
Dangerous builds = 0
write_dump all custom pysimm.dump.tmp id q x y z vx vy vz
quit


################################################################################
##################################    Init    ##################################
################################################################################
units           real
atom_style      full
pair_style      lj/cut/coul/long 12.0  12.0
kspace_style    pppm 1e-4
bond_style      harmonic
angle_style     harmonic
dihedral_style  fourier
improper_style  cvff
special_bonds   amber
pair_modify     mix arithmetic
read_data       temp.lmps
  orthogonal box = (-72.9727 -72.9727 -72.9727) to (72.9727 72.9727 72.9727)
  1 by 1 by 1 MPI processor grid
  reading atoms ...
  108 atoms
  reading velocities ...
  108 velocities
  scanning bonds ...
  4 = max bonds/atom
  scanning angles ...
  6 = max angles/atom
  scanning dihedrals ...
  10 = max dihedrals/atom
  scanning impropers ...
  1 = max impropers/atom
  reading bonds ...
  107 bonds
  reading angles ...
  175 angles
  reading dihedrals ...
  230 dihedrals
  reading impropers ...
  24 impropers
  4 = max # of 1-2 neighbors
  5 = max # of 1-3 neighbors
  10 = max # of 1-4 neighbors
  13 = max # of special neighbors
  special bonds CPU = 0.000504017 secs
  read_data CPU = 0.0101109 secs
################################################################################

timestep        1
fix             pysimm_md all nve/limit 0.1
run             2000
PPPM initialization ...
  using 12-bit tables for long-range coulomb (../kspace.cpp:332)
  G vector (1/distance) = 0.122366
  grid = 18 18 18
  stencil order = 5
  estimated absolute RMS force accuracy = 0.0435731
  estimated relative force accuracy = 0.000131219
  using double precision KISS FFT
  3d grid and FFT values/proc = 12167 5832
Neighbor list info ...
  update every 1 steps, delay 10 steps, check yes
  max neighbors/atom: 2000, page size: 100000
  master list distance cutoff = 14
  ghost atom cutoff = 14
  binsize = 7, bins = 21 21 21
  1 neighbor lists, perpetual/occasional/extra = 1 0 0
  (1) pair lj/cut/coul/long, perpetual
      attributes: half, newton on
      pair build: half/bin/newton
      stencil: half/bin/3d/newton
      bin: standard
Per MPI rank memory allocation (min/avg/max) = 13.62 | 13.62 | 13.62 Mbytes
Step Temp E_pair E_mol TotEng Press 
       0    656.82098   -1497.9261    11536.636    10248.201   -203.18716 
    2000    818.16092   -1467.3362    316.87764   -889.50881    1.3756289 
Loop time of 3.05827 on 1 procs for 2000 steps with 108 atoms

Performance: 56.502 ns/day, 0.425 hours/ns, 653.964 timesteps/s
100.0% CPU use with 1 MPI tasks x no OpenMP threads

MPI task timing breakdown:
Section |  min time  |  avg time  |  max time  |%varavg| %total
---------------------------------------------------------------
Pair    | 0.25347    | 0.25347    | 0.25347    |   0.0 |  8.29
Bond    | 0.086962   | 0.086962   | 0.086962   |   0.0 |  2.84
Kspace  | 2.6887     | 2.6887     | 2.6887     |   0.0 | 87.92
Neigh   | 0.019447   | 0.019447   | 0.019447   |   0.0 |  0.64
Comm    | 0.0016186  | 0.0016186  | 0.0016186  |   0.0 |  0.05
Output  | 2.3127e-05 | 2.3127e-05 | 2.3127e-05 |   0.0 |  0.00
Modify  | 0.0045273  | 0.0045273  | 0.0045273  |   0.0 |  0.15
Other   |            | 0.003473   |            |       |  0.11

Nlocal:    108 ave 108 max 108 min
Histogram: 1 0 0 0 0 0 0 0 0 0
Nghost:    12 ave 12 max 12 min
Histogram: 1 0 0 0 0 0 0 0 0 0
Neighs:    4789 ave 4789 max 4789 min
Histogram: 1 0 0 0 0 0 0 0 0 0

Total # of neighbors = 4789
Ave neighs/atom = 44.3426
Ave special neighs/atom = 9.48148
Neighbor list builds = 115
Dangerous builds = 0
unfix pysimm_md
min_style cg
minimize 0.001 0.001 10000 100000
WARNING: Using 'neigh_modify every 1 delay 0 check yes' setting during minimization (../min.cpp:190)
PPPM initialization ...
  using 12-bit tables for long-range coulomb (../kspace.cpp:332)
  G vector (1/distance) = 0.122366
  grid = 18 18 18
  stencil order = 5
  estimated absolute RMS force accuracy = 0.0435731
  estimated relative force accuracy = 0.000131219
  using double precision KISS FFT
  3d grid and FFT values/proc = 12167 5832
Per MPI rank memory allocation (min/avg/max) = 14.74 | 14.74 | 14.74 Mbytes
Step Temp E_pair E_mol TotEng Press 
    2000    818.16092   -1467.3362    316.87764   -889.50881    1.3756289 
    2015    818.16092   -1487.1276    138.99226   -1087.1857    2.7684949 
Loop time of 0.046165 on 1 procs for 15 steps with 108 atoms

99.6% CPU use with 1 MPI tasks x no OpenMP threads

Minimization stats:
  Stopping criterion = energy tolerance
  Energy initial, next-to-last, final = 
        -1150.45851492     -1346.81261644     -1348.13536399
  Force two-norm initial, final = 544.061 47.6463
  Force max component initial, final = 118.667 8.63743
  Final line search alpha, max atom move = 0.00308437 0.026641
  Iterations, force evaluations = 15 30

MPI task timing breakdown:
Section |  min time  |  avg time  |  max time  |%varavg| %total
---------------------------------------------------------------
Pair    | 0.0056534  | 0.0056534  | 0.0056534  |   0.0 | 12.25
Bond    | 0.001394   | 0.001394   | 0.001394   |   0.0 |  3.02
Kspace  | 0.038933   | 0.038933   | 0.038933   |   0.0 | 84.33
Neigh   | 0          | 0          | 0          |   0.0 |  0.00
Comm    | 1.502e-05  | 1.502e-05  | 1.502e-05  |   0.0 |  0.03
Output  | 0          | 0          | 0          |   0.0 |  0.00
Modify  | 0          | 0          | 0          |   0.0 |  0.00
Other   |            | 0.0001695  |            |       |  0.37

Nlocal:    108 ave 108 max 108 min
Histogram: 1 0 0 0 0 0 0 0 0 0
Nghost:    12 ave 12 max 12 min
Histogram: 1 0 0 0 0 0 0 0 0 0
Neighs:    4785 ave 4785 max 4785 min
Histogram: 1 0 0 0 0 0 0 0 0 0

Total # of neighbors = 4785
Ave neighs/atom = 44.3056
Ave special neighs/atom = 9.48148
Neighbor list builds = 0
Dangerous builds = 0
write_dump all custom pysimm.dump.tmp id q x y z vx vy vz
quit


################################################################################
##################################    Init    ##################################
################################################################################
units           real
atom_style      full
pair_style      lj/cut/coul/long 12.0  12.0
kspace_style    pppm 1e-4
bond_style      harmonic
angle_style     harmonic
dihedral_style  fourier
improper_style  cvff
special_bonds   amber
pair_modify     mix arithmetic
read_data       temp.lmps
  orthogonal box = (-75.1202 -75.1202 -75.1202) to (75.1202 75.1202 75.1202)
  1 by 1 by 1 MPI processor grid
  reading atoms ...
  117 atoms
  reading velocities ...
  117 velocities
  scanning bonds ...
  4 = max bonds/atom
  scanning angles ...
  6 = max angles/atom
  scanning dihedrals ...
  10 = max dihedrals/atom
  scanning impropers ...
  1 = max impropers/atom
  reading bonds ...
  116 bonds
  reading angles ...
  190 angles
  reading dihedrals ...
  250 dihedrals
  reading impropers ...
  26 impropers
  4 = max # of 1-2 neighbors
  5 = max # of 1-3 neighbors
  10 = max # of 1-4 neighbors
  13 = max # of special neighbors
  special bonds CPU = 0.000668049 secs
  read_data CPU = 0.0106032 secs
################################################################################

timestep        1
fix             pysimm_md all nve/limit 0.1
run             2000
PPPM initialization ...
  using 12-bit tables for long-range coulomb (../kspace.cpp:332)
  G vector (1/distance) = 0.128331
  grid = 20 20 20
  stencil order = 5
  estimated absolute RMS force accuracy = 0.0350092
  estimated relative force accuracy = 0.000105429
  using double precision KISS FFT
  3d grid and FFT values/proc = 15625 8000
Neighbor list info ...
  update every 1 steps, delay 10 steps, check yes
  max neighbors/atom: 2000, page size: 100000
  master list distance cutoff = 14
  ghost atom cutoff = 14
  binsize = 7, bins = 22 22 22
  1 neighbor lists, perpetual/occasional/extra = 1 0 0
  (1) pair lj/cut/coul/long, perpetual
      attributes: half, newton on
      pair build: half/bin/newton
      stencil: half/bin/3d/newton
      bin: standard
Per MPI rank memory allocation (min/avg/max) = 13.94 | 13.94 | 13.94 Mbytes
Step Temp E_pair E_mol TotEng Press 
       0    756.68237    -1589.738    11556.214    10228.117    -186.6965 
    2000    866.93935   -1629.7025    356.11661   -973.82086    7.4302551 
Loop time of 3.80095 on 1 procs for 2000 steps with 117 atoms

Performance: 45.462 ns/day, 0.528 hours/ns, 526.184 timesteps/s
100.0% CPU use with 1 MPI tasks x no OpenMP threads

MPI task timing breakdown:
Section |  min time  |  avg time  |  max time  |%varavg| %total
---------------------------------------------------------------
Pair    | 0.26414    | 0.26414    | 0.26414    |   0.0 |  6.95
Bond    | 0.095478   | 0.095478   | 0.095478   |   0.0 |  2.51
Kspace  | 3.4126     | 3.4126     | 3.4126     |   0.0 | 89.78
Neigh   | 0.019033   | 0.019033   | 0.019033   |   0.0 |  0.50
Comm    | 0.0010653  | 0.0010653  | 0.0010653  |   0.0 |  0.03
Output  | 2.1935e-05 | 2.1935e-05 | 2.1935e-05 |   0.0 |  0.00
Modify  | 0.0051234  | 0.0051234  | 0.0051234  |   0.0 |  0.13
Other   |            | 0.003519   |            |       |  0.09

Nlocal:    117 ave 117 max 117 min
Histogram: 1 0 0 0 0 0 0 0 0 0
Nghost:    0 ave 0 max 0 min
Histogram: 1 0 0 0 0 0 0 0 0 0
Neighs:    4835 ave 4835 max 4835 min
Histogram: 1 0 0 0 0 0 0 0 0 0

Total # of neighbors = 4835
Ave neighs/atom = 41.3248
Ave special neighs/atom = 9.50427
Neighbor list builds = 106
Dangerous builds = 0
unfix pysimm_md
min_style cg
minimize 0.001 0.001 10000 100000
WARNING: Using 'neigh_modify every 1 delay 0 check yes' setting during minimization (../min.cpp:190)
PPPM initialization ...
  using 12-bit tables for long-range coulomb (../kspace.cpp:332)
  G vector (1/distance) = 0.128331
  grid = 20 20 20
  stencil order = 5
  estimated absolute RMS force accuracy = 0.0350092
  estimated relative force accuracy = 0.000105429
  using double precision KISS FFT
  3d grid and FFT values/proc = 15625 8000
Per MPI rank memory allocation (min/avg/max) = 15.07 | 15.07 | 15.07 Mbytes
Step Temp E_pair E_mol TotEng Press 
    2000    866.93935   -1629.7025    356.11661   -973.82086    7.4302551 
    2015    866.93935   -1648.3809    172.96255   -1175.6533    2.3026368 
Loop time of 0.056757 on 1 procs for 15 steps with 117 atoms

100.4% CPU use with 1 MPI tasks x no OpenMP threads

Minimization stats:
  Stopping criterion = energy tolerance
  Energy initial, next-to-last, final = 
        -1273.58591822     -1474.07940138     -1475.41830701
  Force two-norm initial, final = 510.744 53.5888
  Force max component initial, final = 122.759 12.1613
  Final line search alpha, max atom move = 0.00263412 0.0320343
  Iterations, force evaluations = 15 30

MPI task timing breakdown:
Section |  min time  |  avg time  |  max time  |%varavg| %total
---------------------------------------------------------------
Pair    | 0.005935   | 0.005935   | 0.005935   |   0.0 | 10.46
Bond    | 0.0015135  | 0.0015135  | 0.0015135  |   0.0 |  2.67
Kspace  | 0.049145   | 0.049145   | 0.049145   |   0.0 | 86.59
Neigh   | 0          | 0          | 0          |   0.0 |  0.00
Comm    | 1.2875e-05 | 1.2875e-05 | 1.2875e-05 |   0.0 |  0.02
Output  | 0          | 0          | 0          |   0.0 |  0.00
Modify  | 0          | 0          | 0          |   0.0 |  0.00
Other   |            | 0.0001512  |            |       |  0.27

Nlocal:    117 ave 117 max 117 min
Histogram: 1 0 0 0 0 0 0 0 0 0
Nghost:    0 ave 0 max 0 min
Histogram: 1 0 0 0 0 0 0 0 0 0
Neighs:    4827 ave 4827 max 4827 min
Histogram: 1 0 0 0 0 0 0 0 0 0

Total # of neighbors = 4827
Ave neighs/atom = 41.2564
Ave special neighs/atom = 9.50427
Neighbor list builds = 0
Dangerous builds = 0
write_dump all custom pysimm.dump.tmp id q x y z vx vy vz
quit


################################################################################
##################################    Init    ##################################
################################################################################
units           real
atom_style      full
pair_style      lj/cut/coul/long 12.0  12.0
kspace_style    pppm 1e-4
bond_style      harmonic
angle_style     harmonic
dihedral_style  fourier
improper_style  cvff
special_bonds   amber
pair_modify     mix arithmetic
read_data       temp.lmps
  orthogonal box = (-77.1515 -77.1515 -77.1515) to (77.1515 77.1515 77.1515)
  1 by 1 by 1 MPI processor grid
  reading atoms ...
  126 atoms
  reading velocities ...
  126 velocities
  scanning bonds ...
  4 = max bonds/atom
  scanning angles ...
  6 = max angles/atom
  scanning dihedrals ...
  10 = max dihedrals/atom
  scanning impropers ...
  1 = max impropers/atom
  reading bonds ...
  125 bonds
  reading angles ...
  205 angles
  reading dihedrals ...
  270 dihedrals
  reading impropers ...
  28 impropers
  4 = max # of 1-2 neighbors
  5 = max # of 1-3 neighbors
  10 = max # of 1-4 neighbors
  13 = max # of special neighbors
  special bonds CPU = 0.000217199 secs
  read_data CPU = 0.00402117 secs
################################################################################

timestep        1
fix             pysimm_md all nve/limit 0.1
run             2000
PPPM initialization ...
  using 12-bit tables for long-range coulomb (../kspace.cpp:332)
  G vector (1/distance) = 0.126238
  grid = 20 20 20
  stencil order = 5
  estimated absolute RMS force accuracy = 0.0376895
  estimated relative force accuracy = 0.000113501
  using double precision KISS FFT
  3d grid and FFT values/proc = 15625 8000
Neighbor list info ...
  update every 1 steps, delay 10 steps, check yes
  max neighbors/atom: 2000, page size: 100000
  master list distance cutoff = 14
  ghost atom cutoff = 14
  binsize = 7, bins = 23 23 23
  1 neighbor lists, perpetual/occasional/extra = 1 0 0
  (1) pair lj/cut/coul/long, perpetual
      attributes: half, newton on
      pair build: half/bin/newton
      stencil: half/bin/3d/newton
      bin: standard
Per MPI rank memory allocation (min/avg/max) = 13.95 | 13.95 | 13.95 Mbytes
Step Temp E_pair E_mol TotEng Press 
       0    806.37522   -1749.8594     11906.48    10457.077   -176.79397 
    2000    892.52485   -1745.7423    400.36066   -1012.8257    1.5016791 
Loop time of 3.43219 on 1 procs for 2000 steps with 126 atoms

Performance: 50.347 ns/day, 0.477 hours/ns, 582.718 timesteps/s
100.0% CPU use with 1 MPI tasks x no OpenMP threads

MPI task timing breakdown:
Section |  min time  |  avg time  |  max time  |%varavg| %total
---------------------------------------------------------------
Pair    | 0.25657    | 0.25657    | 0.25657    |   0.0 |  7.48
Bond    | 0.090588   | 0.090588   | 0.090588   |   0.0 |  2.64
Kspace  | 3.058      | 3.058      | 3.058      |   0.0 | 89.10
Neigh   | 0.01776    | 0.01776    | 0.01776    |   0.0 |  0.52
Comm    | 0.0010445  | 0.0010445  | 0.0010445  |   0.0 |  0.03
Output  | 2.2173e-05 | 2.2173e-05 | 2.2173e-05 |   0.0 |  0.00
Modify  | 0.0048397  | 0.0048397  | 0.0048397  |   0.0 |  0.14
Other   |            | 0.00337    |            |       |  0.10

Nlocal:    126 ave 126 max 126 min
Histogram: 1 0 0 0 0 0 0 0 0 0
Nghost:    0 ave 0 max 0 min
Histogram: 1 0 0 0 0 0 0 0 0 0
Neighs:    6191 ave 6191 max 6191 min
Histogram: 1 0 0 0 0 0 0 0 0 0

Total # of neighbors = 6191
Ave neighs/atom = 49.1349
Ave special neighs/atom = 9.52381
Neighbor list builds = 108
Dangerous builds = 0
unfix pysimm_md
min_style cg
minimize 0.001 0.001 10000 100000
WARNING: Using 'neigh_modify every 1 delay 0 check yes' setting during minimization (../min.cpp:190)
PPPM initialization ...
  using 12-bit tables for long-range coulomb (../kspace.cpp:332)
  G vector (1/distance) = 0.126238
  grid = 20 20 20
  stencil order = 5
  estimated absolute RMS force accuracy = 0.0376895
  estimated relative force accuracy = 0.000113501
  using double precision KISS FFT
  3d grid and FFT values/proc = 15625 8000
Per MPI rank memory allocation (min/avg/max) = 15.08 | 15.08 | 15.08 Mbytes
Step Temp E_pair E_mol TotEng Press 
    2000    892.52485   -1745.7423    400.36066   -1012.8257    1.5016791 
    2016    892.52485   -1751.3342    167.62011   -1251.1582    3.0614147 
Loop time of 0.0602529 on 1 procs for 16 steps with 126 atoms

99.6% CPU use with 1 MPI tasks x no OpenMP threads

Minimization stats:
  Stopping criterion = energy tolerance
  Energy initial, next-to-last, final = 
        -1345.38158771     -1582.29709339     -1583.71406559
  Force two-norm initial, final = 638.902 55.055
  Force max component initial, final = 142.171 14.1652
  Final line search alpha, max atom move = 0.0027676 0.0392036
  Iterations, force evaluations = 16 32

MPI task timing breakdown:
Section |  min time  |  avg time  |  max time  |%varavg| %total
---------------------------------------------------------------
Pair    | 0.007199   | 0.007199   | 0.007199   |   0.0 | 11.95
Bond    | 0.0017424  | 0.0017424  | 0.0017424  |   0.0 |  2.89
Kspace  | 0.051134   | 0.051134   | 0.051134   |   0.0 | 84.87
Neigh   | 0          | 0          | 0          |   0.0 |  0.00
Comm    | 9.0599e-06 | 9.0599e-06 | 9.0599e-06 |   0.0 |  0.02
Output  | 0          | 0          | 0          |   0.0 |  0.00
Modify  | 0          | 0          | 0          |   0.0 |  0.00
Other   |            | 0.0001688  |            |       |  0.28

Nlocal:    126 ave 126 max 126 min
Histogram: 1 0 0 0 0 0 0 0 0 0
Nghost:    0 ave 0 max 0 min
Histogram: 1 0 0 0 0 0 0 0 0 0
Neighs:    6233 ave 6233 max 6233 min
Histogram: 1 0 0 0 0 0 0 0 0 0

Total # of neighbors = 6233
Ave neighs/atom = 49.4683
Ave special neighs/atom = 9.52381
Neighbor list builds = 0
Dangerous builds = 0
write_dump all custom pysimm.dump.tmp id q x y z vx vy vz
quit


################################################################################
##################################    Init    ##################################
################################################################################
units           real
atom_style      full
pair_style      lj/cut/coul/long 12.0  12.0
kspace_style    pppm 1e-4
bond_style      harmonic
angle_style     harmonic
dihedral_style  fourier
improper_style  cvff
special_bonds   amber
pair_modify     mix arithmetic
read_data       temp.lmps
  orthogonal box = (-79.0811 -79.0811 -79.0811) to (79.0811 79.0811 79.0811)
  1 by 1 by 1 MPI processor grid
  reading atoms ...
  135 atoms
  reading velocities ...
  135 velocities
  scanning bonds ...
  4 = max bonds/atom
  scanning angles ...
  6 = max angles/atom
  scanning dihedrals ...
  10 = max dihedrals/atom
  scanning impropers ...
  1 = max impropers/atom
  reading bonds ...
  134 bonds
  reading angles ...
  220 angles
  reading dihedrals ...
  290 dihedrals
  reading impropers ...
  30 impropers
  4 = max # of 1-2 neighbors
  5 = max # of 1-3 neighbors
  10 = max # of 1-4 neighbors
  13 = max # of special neighbors
  special bonds CPU = 0.000587225 secs
  read_data CPU = 0.0109279 secs
################################################################################

timestep        1
fix             pysimm_md all nve/limit 0.1
run             2000
PPPM initialization ...
  using 12-bit tables for long-range coulomb (../kspace.cpp:332)
  G vector (1/distance) = 0.124309
  grid = 20 20 20
  stencil order = 5
  estimated absolute RMS force accuracy = 0.0403047
  estimated relative force accuracy = 0.000121376
  using double precision KISS FFT
  3d grid and FFT values/proc = 15625 8000
Neighbor list info ...
  update every 1 steps, delay 10 steps, check yes
  max neighbors/atom: 2000, page size: 100000
  master list distance cutoff = 14
  ghost atom cutoff = 14
  binsize = 7, bins = 23 23 23
  1 neighbor lists, perpetual/occasional/extra = 1 0 0
  (1) pair lj/cut/coul/long, perpetual
      attributes: half, newton on
      pair build: half/bin/newton
      stencil: half/bin/3d/newton
      bin: standard
Per MPI rank memory allocation (min/avg/max) = 13.95 | 13.95 | 13.95 Mbytes
Step Temp E_pair E_mol TotEng Press 
       0    834.31041   -1853.9157    12076.809    10556.141   -165.17415 
    2000    792.38351   -1886.8196    375.61634   -1194.7026   -1.8758674 
Loop time of 3.89434 on 1 procs for 2000 steps with 135 atoms

Performance: 44.372 ns/day, 0.541 hours/ns, 513.566 timesteps/s
100.0% CPU use with 1 MPI tasks x no OpenMP threads

MPI task timing breakdown:
Section |  min time  |  avg time  |  max time  |%varavg| %total
---------------------------------------------------------------
Pair    | 0.37303    | 0.37303    | 0.37303    |   0.0 |  9.58
Bond    | 0.10617    | 0.10617    | 0.10617    |   0.0 |  2.73
Kspace  | 3.38       | 3.38       | 3.38       |   0.0 | 86.79
Neigh   | 0.024062   | 0.024062   | 0.024062   |   0.0 |  0.62
Comm    | 0.0013049  | 0.0013049  | 0.0013049  |   0.0 |  0.03
Output  | 2.1935e-05 | 2.1935e-05 | 2.1935e-05 |   0.0 |  0.00
Modify  | 0.0056665  | 0.0056665  | 0.0056665  |   0.0 |  0.15
[...]
PPPM initialization ...
  using 12-bit tables for long-range coulomb (../kspace.cpp:332)
  G vector (1/distance) = 0.125005
  grid = 30 30 30
  stencil order = 5
  estimated absolute RMS force accuracy = 0.0383852
  estimated relative force accuracy = 0.000115596
  using double precision KISS FFT
  3d grid and FFT values/proc = 42875 27000
Per MPI rank memory allocation (min/avg/max) = 17.9 | 17.9 | 17.9 Mbytes
Step Temp E_pair E_mol TotEng Press 
    2000    469.40011   -6144.0741    889.97638   -4663.6384    2.1006264 
    2013    469.40011   -6140.5813    555.56529   -4994.5568    1.6149524 
Loop time of 0.196341 on 1 procs for 13 steps with 423 atoms

99.8% CPU use with 1 MPI tasks x no OpenMP threads

Minimization stats:
  Stopping criterion = energy tolerance
  Energy initial, next-to-last, final = 
        -5254.09770235     -5580.80983661     -5585.01604137
  Force two-norm initial, final = 658.429 89.7887
  Force max component initial, final = 128.85 20.3209
  Final line search alpha, max atom move = 0.00277906 0.0564731
  Iterations, force evaluations = 13 26

MPI task timing breakdown:
Section |  min time  |  avg time  |  max time  |%varavg| %total
---------------------------------------------------------------
Pair    | 0.034892   | 0.034892   | 0.034892   |   0.0 | 17.77
Bond    | 0.0045481  | 0.0045481  | 0.0045481  |   0.0 |  2.32
Kspace  | 0.15661    | 0.15661    | 0.15661    |   0.0 | 79.76
Neigh   | 0          | 0          | 0          |   0.0 |  0.00
Comm    | 1.3113e-05 | 1.3113e-05 | 1.3113e-05 |   0.0 |  0.01
Output  | 0          | 0          | 0          |   0.0 |  0.00
Modify  | 0          | 0          | 0          |   0.0 |  0.00
Other   |            | 0.0002773  |            |       |  0.14

Nlocal:    423 ave 423 max 423 min
Histogram: 1 0 0 0 0 0 0 0 0 0
Nghost:    0 ave 0 max 0 min
Histogram: 1 0 0 0 0 0 0 0 0 0
Neighs:    38113 ave 38113 max 38113 min
Histogram: 1 0 0 0 0 0 0 0 0 0

Total # of neighbors = 38113
Ave neighs/atom = 90.1017
Ave special neighs/atom = 9.70213
Neighbor list builds = 0
Dangerous builds = 0
write_dump all custom pysimm.dump.tmp id q x y z vx vy vz
quit


################################################################################
##################################    Init    ##################################
################################################################################
units           real
atom_style      full
pair_style      lj/cut/coul/long 12.0  12.0
kspace_style    pppm 1e-4
bond_style      harmonic
angle_style     harmonic
dihedral_style  fourier
improper_style  cvff
special_bonds   amber
pair_modify     mix arithmetic
read_data       temp.lmps
  orthogonal box = (-118.412 -118.412 -118.412) to (118.412 118.412 118.412)
  1 by 1 by 1 MPI processor grid
  reading atoms ...
  432 atoms
  reading velocities ...
  432 velocities
  scanning bonds ...
  4 = max bonds/atom
  scanning angles ...
  6 = max angles/atom
  scanning dihedrals ...
  10 = max dihedrals/atom
  scanning impropers ...
  1 = max impropers/atom
  reading bonds ...
  431 bonds
  reading angles ...
  715 angles
  reading dihedrals ...
  950 dihedrals
  reading impropers ...
  96 impropers
  4 = max # of 1-2 neighbors
  5 = max # of 1-3 neighbors
  10 = max # of 1-4 neighbors
  13 = max # of special neighbors
  special bonds CPU = 0.000426054 secs
  read_data CPU = 0.00629997 secs
################################################################################

timestep        1
fix             pysimm_md all nve/limit 0.1
run             2000
PPPM initialization ...
  using 12-bit tables for long-range coulomb (../kspace.cpp:332)
  G vector (1/distance) = 0.124449
  grid = 30 30 30
  stencil order = 5
  estimated absolute RMS force accuracy = 0.0391571
  estimated relative force accuracy = 0.00011792
  using double precision KISS FFT
  3d grid and FFT values/proc = 42875 27000
Neighbor list info ...
  update every 1 steps, delay 10 steps, check yes
  max neighbors/atom: 2000, page size: 100000
  master list distance cutoff = 14
  ghost atom cutoff = 14
  binsize = 7, bins = 34 34 34
  1 neighbor lists, perpetual/occasional/extra = 1 0 0
  (1) pair lj/cut/coul/long, perpetual
      attributes: half, newton on
      pair build: half/bin/newton
      stencil: half/bin/3d/newton
      bin: standard
Per MPI rank memory allocation (min/avg/max) = 16.78 | 16.78 | 16.78 Mbytes
Step Temp E_pair E_mol TotEng Press 
       0    460.13643   -6244.1159    7625.1027    1972.1375   -29.823607 
    2000    328.02401   -6272.9658    848.68562   -5002.8582   0.43729801 
Loop time of 13.9151 on 1 procs for 2000 steps with 432 atoms

Performance: 12.418 ns/day, 1.933 hours/ns, 143.729 timesteps/s
99.6% CPU use with 1 MPI tasks x no OpenMP threads

MPI task timing breakdown:
Section |  min time  |  avg time  |  max time  |%varavg| %total
---------------------------------------------------------------
Pair    | 1.8331     | 1.8331     | 1.8331     |   0.0 | 13.17
Bond    | 0.32211    | 0.32211    | 0.32211    |   0.0 |  2.31
Kspace  | 11.636     | 11.636     | 11.636     |   0.0 | 83.62
Neigh   | 0.101      | 0.101      | 0.101      |   0.0 |  0.73
Comm    | 0.0017812  | 0.0017812  | 0.0017812  |   0.0 |  0.01
Output  | 2.5034e-05 | 2.5034e-05 | 2.5034e-05 |   0.0 |  0.00
Modify  | 0.014591   | 0.014591   | 0.014591   |   0.0 |  0.10
Other   |            | 0.00611    |            |       |  0.04

Nlocal:    432 ave 432 max 432 min
Histogram: 1 0 0 0 0 0 0 0 0 0
Nghost:    0 ave 0 max 0 min
Histogram: 1 0 0 0 0 0 0 0 0 0
Neighs:    42559 ave 42559 max 42559 min
Histogram: 1 0 0 0 0 0 0 0 0 0

Total # of neighbors = 42559
Ave neighs/atom = 98.5162
Ave special neighs/atom = 9.7037
Neighbor list builds = 95
Dangerous builds = 0
unfix pysimm_md
min_style cg
minimize 0.001 0.001 10000 100000
WARNING: Using 'neigh_modify every 1 delay 0 check yes' setting during minimization (../min.cpp:190)
PPPM initialization ...
  using 12-bit tables for long-range coulomb (../kspace.cpp:332)
  G vector (1/distance) = 0.124449
  grid = 30 30 30
  stencil order = 5
  estimated absolute RMS force accuracy = 0.0391571
  estimated relative force accuracy = 0.00011792
  using double precision KISS FFT
  3d grid and FFT values/proc = 42875 27000
Per MPI rank memory allocation (min/avg/max) = 17.9 | 17.9 | 17.9 Mbytes
Step Temp E_pair E_mol TotEng Press 
    2000    328.02401   -6272.9658    848.68562   -5002.8582   0.43729801 
    2012    328.02401   -6315.3386    557.42721   -5336.4894   0.81751664 
Loop time of 0.168726 on 1 procs for 12 steps with 432 atoms

100.1% CPU use with 1 MPI tasks x no OpenMP threads

Minimization stats:
  Stopping criterion = energy tolerance
  Energy initial, next-to-last, final = 
        -5424.28017798     -5753.25596333     -5757.91135267
  Force two-norm initial, final = 719.364 83.1805
  Force max component initial, final = 117.769 13.4066
  Final line search alpha, max atom move = 0.00376997 0.0505426
  Iterations, force evaluations = 12 24

MPI task timing breakdown:
Section |  min time  |  avg time  |  max time  |%varavg| %total
---------------------------------------------------------------
Pair    | 0.032864   | 0.032864   | 0.032864   |   0.0 | 19.48
Bond    | 0.0039034  | 0.0039034  | 0.0039034  |   0.0 |  2.31
Kspace  | 0.13169    | 0.13169    | 0.13169    |   0.0 | 78.05
Neigh   | 0          | 0          | 0          |   0.0 |  0.00
Comm    | 9.0599e-06 | 9.0599e-06 | 9.0599e-06 |   0.0 |  0.01
Output  | 0          | 0          | 0          |   0.0 |  0.00
Modify  | 0          | 0          | 0          |   0.0 |  0.00
Other   |            | 0.000257   |            |       |  0.15

Nlocal:    432 ave 432 max 432 min
Histogram: 1 0 0 0 0 0 0 0 0 0
Nghost:    0 ave 0 max 0 min
Histogram: 1 0 0 0 0 0 0 0 0 0
Neighs:    42690 ave 42690 max 42690 min
Histogram: 1 0 0 0 0 0 0 0 0 0

Total # of neighbors = 42690
Ave neighs/atom = 98.8194
Ave special neighs/atom = 9.7037
Neighbor list builds = 0
Dangerous builds = 0
write_dump all custom pysimm.dump.tmp id q x y z vx vy vz
quit


################################################################################
##################################    Init    ##################################
################################################################################
units           real
atom_style      full
pair_style      lj/cut/coul/long 12.0  12.0
kspace_style    pppm 1e-4
bond_style      harmonic
angle_style     harmonic
dihedral_style  fourier
improper_style  cvff
special_bonds   amber
pair_modify     mix arithmetic
read_data       temp.lmps
  orthogonal box = (-119.246 -119.246 -119.246) to (119.246 119.246 119.246)
  1 by 1 by 1 MPI processor grid
  reading atoms ...
  441 atoms
  reading velocities ...
  441 velocities
  scanning bonds ...
  4 = max bonds/atom
  scanning angles ...
  6 = max angles/atom
  scanning dihedrals ...
  10 = max dihedrals/atom
  scanning impropers ...
  1 = max impropers/atom
  reading bonds ...
  440 bonds
  reading angles ...
  730 angles
  reading dihedrals ...
  970 dihedrals
  reading impropers ...
  98 impropers
  4 = max # of 1-2 neighbors
  5 = max # of 1-3 neighbors
  10 = max # of 1-4 neighbors
  13 = max # of special neighbors
  special bonds CPU = 0.000380039 secs
  read_data CPU = 0.00622916 secs
################################################################################

timestep        1
fix             pysimm_md all nve/limit 0.1
run             2000
PPPM initialization ...
  using 12-bit tables for long-range coulomb (../kspace.cpp:332)
  G vector (1/distance) = 0.123901
  grid = 30 30 30
  stencil order = 5
  estimated absolute RMS force accuracy = 0.0399212
  estimated relative force accuracy = 0.000120222
  using double precision KISS FFT
  3d grid and FFT values/proc = 42875 27000
Neighbor list info ...
  update every 1 steps, delay 10 steps, check yes
  max neighbors/atom: 2000, page size: 100000
  master list distance cutoff = 14
  ghost atom cutoff = 14
  binsize = 7, bins = 35 35 35
  1 neighbor lists, perpetual/occasional/extra = 1 0 0
  (1) pair lj/cut/coul/long, perpetual
      attributes: half, newton on
      pair build: half/bin/newton
      stencil: half/bin/3d/newton
      bin: standard
Per MPI rank memory allocation (min/avg/max) = 16.8 | 16.8 | 16.8 Mbytes
Step Temp E_pair E_mol TotEng Press 
       0    321.84153   -6416.1636    12246.975    6252.9252   -47.505653 
    2000    310.86913   -6438.3927    829.45439   -5201.2159  -0.38993632 
Loop time of 14.7319 on 1 procs for 2000 steps with 441 atoms

Performance: 11.730 ns/day, 2.046 hours/ns, 135.760 timesteps/s
99.8% CPU use with 1 MPI tasks x no OpenMP threads

MPI task timing breakdown:
Section |  min time  |  avg time  |  max time  |%varavg| %total
---------------------------------------------------------------
Pair    | 2.0912     | 2.0912     | 2.0912     |   0.0 | 14.19
Bond    | 0.34146    | 0.34146    | 0.34146    |   0.0 |  2.32
Kspace  | 12.14      | 12.14      | 12.14      |   0.0 | 82.41
Neigh   | 0.1344     | 0.1344     | 0.1344     |   0.0 |  0.91
Comm    | 0.0019467  | 0.0019467  | 0.0019467  |   0.0 |  0.01
Output  | 2.408e-05  | 2.408e-05  | 2.408e-05  |   0.0 |  0.00
Modify  | 0.016603   | 0.016603   | 0.016603   |   0.0 |  0.11
Other   |            | 0.006032   |            |       |  0.04

Nlocal:    441 ave 441 max 441 min
Histogram: 1 0 0 0 0 0 0 0 0 0
Nghost:    0 ave 0 max 0 min
Histogram: 1 0 0 0 0 0 0 0 0 0
Neighs:    49191 ave 49191 max 49191 min
Histogram: 1 0 0 0 0 0 0 0 0 0

Total # of neighbors = 49191
Ave neighs/atom = 111.544
Ave special neighs/atom = 9.70522
Neighbor list builds = 114
Dangerous builds = 0
unfix pysimm_md
min_style cg
minimize 0.001 0.001 10000 100000
WARNING: Using 'neigh_modify every 1 delay 0 check yes' setting during minimization (../min.cpp:190)
PPPM initialization ...
  using 12-bit tables for long-range coulomb (../kspace.cpp:332)
  G vector (1/distance) = 0.123901
  grid = 30 30 30
  stencil order = 5
  estimated absolute RMS force accuracy = 0.0399212
  estimated relative force accuracy = 0.000120222
  using double precision KISS FFT
  3d grid and FFT values/proc = 42875 27000
Per MPI rank memory allocation (min/avg/max) = 17.92 | 17.92 | 17.92 Mbytes
Step Temp E_pair E_mol TotEng Press 
    2000    310.86913   -6438.3927    829.45439   -5201.2159  -0.38993632 
    2014    310.86913   -6462.7276    550.52216    -5504.483   0.87607759 
Loop time of 0.208269 on 1 procs for 14 steps with 441 atoms

99.9% CPU use with 1 MPI tasks x no OpenMP threads

Minimization stats:
  Stopping criterion = energy tolerance
  Energy initial, next-to-last, final = 
        -5608.93832426     -5909.54921383     -5912.20543581
  Force two-norm initial, final = 609.155 80.3643
  Force max component initial, final = 116.36 13.3458
  Final line search alpha, max atom move = 0.00190374 0.0254069
  Iterations, force evaluations = 14 28

MPI task timing breakdown:
Section |  min time  |  avg time  |  max time  |%varavg| %total
---------------------------------------------------------------
Pair    | 0.045928   | 0.045928   | 0.045928   |   0.0 | 22.05
Bond    | 0.0047915  | 0.0047915  | 0.0047915  |   0.0 |  2.30
Kspace  | 0.15724    | 0.15724    | 0.15724    |   0.0 | 75.50
Neigh   | 0          | 0          | 0          |   0.0 |  0.00
Comm    | 1.0252e-05 | 1.0252e-05 | 1.0252e-05 |   0.0 |  0.00
Output  | 0          | 0          | 0          |   0.0 |  0.00
Modify  | 0          | 0          | 0          |   0.0 |  0.00
Other   |            | 0.0003016  |            |       |  0.14

Nlocal:    441 ave 441 max 441 min
Histogram: 1 0 0 0 0 0 0 0 0 0
Nghost:    0 ave 0 max 0 min
Histogram: 1 0 0 0 0 0 0 0 0 0
Neighs:    49214 ave 49214 max 49214 min
Histogram: 1 0 0 0 0 0 0 0 0 0

Total # of neighbors = 49214
Ave neighs/atom = 111.596
Ave special neighs/atom = 9.70522
Neighbor list builds = 0
Dangerous builds = 0
write_dump all custom pysimm.dump.tmp id q x y z vx vy vz
quit


################################################################################
##################################    Init    ##################################
################################################################################
units           real
atom_style      full
pair_style      lj/cut/coul/long 12.0  12.0
kspace_style    pppm 1e-4
bond_style      harmonic
angle_style     harmonic
dihedral_style  fourier
improper_style  cvff
special_bonds   amber
pair_modify     mix arithmetic
read_data       temp.lmps
  orthogonal box = (-120.068 -120.068 -120.068) to (120.068 120.068 120.068)
  1 by 1 by 1 MPI processor grid
  reading atoms ...
  450 atoms
  reading velocities ...
  450 velocities
  scanning bonds ...
  4 = max bonds/atom
  scanning angles ...
  6 = max angles/atom
  scanning dihedrals ...
  10 = max dihedrals/atom
  scanning impropers ...
  1 = max impropers/atom
  reading bonds ...
  449 bonds
  reading angles ...
  745 angles
  reading dihedrals ...
  990 dihedrals
  reading impropers ...
  100 impropers
  4 = max # of 1-2 neighbors
  5 = max # of 1-3 neighbors
  10 = max # of 1-4 neighbors
  13 = max # of special neighbors
  special bonds CPU = 0.000437975 secs
  read_data CPU = 0.00670695 secs
################################################################################

timestep        1
fix             pysimm_md all nve/limit 0.1
run             2000
PPPM initialization ...
  using 12-bit tables for long-range coulomb (../kspace.cpp:332)
  G vector (1/distance) = 0.123365
  grid = 30 30 30
  stencil order = 5
  estimated absolute RMS force accuracy = 0.0406799
  estimated relative force accuracy = 0.000122506
  using double precision KISS FFT
  3d grid and FFT values/proc = 42875 27000
Neighbor list info ...
  update every 1 steps, delay 10 steps, check yes
  max neighbors/atom: 2000, page size: 100000
  master list distance cutoff = 14
  ghost atom cutoff = 14
  binsize = 7, bins = 35 35 35
  1 neighbor lists, perpetual/occasional/extra = 1 0 0
  (1) pair lj/cut/coul/long, perpetual
      attributes: half, newton on
      pair build: half/bin/newton
      stencil: half/bin/3d/newton
      bin: standard
Per MPI rank memory allocation (min/avg/max) = 16.8 | 16.8 | 16.8 Mbytes
Step Temp E_pair E_mol TotEng Press 
       0    305.15443   -6563.9464    12237.062    6081.5291   -46.340995 
    2000    281.23851   -6602.9683    830.20199   -5396.3613  0.035353737 
Loop time of 14.3984 on 1 procs for 2000 steps with 450 atoms

Performance: 12.001 ns/day, 2.000 hours/ns, 138.905 timesteps/s
99.8% CPU use with 1 MPI tasks x no OpenMP threads

MPI task timing breakdown:
Section |  min time  |  avg time  |  max time  |%varavg| %total
---------------------------------------------------------------
Pair    | 2.1494     | 2.1494     | 2.1494     |   0.0 | 14.93
Bond    | 0.3337     | 0.3337     | 0.3337     |   0.0 |  2.32
Kspace  | 11.761     | 11.761     | 11.761     |   0.0 | 81.68
Neigh   | 0.13109    | 0.13109    | 0.13109    |   0.0 |  0.91
Comm    | 0.0018229  | 0.0018229  | 0.0018229  |   0.0 |  0.01
Output  | 2.1935e-05 | 2.1935e-05 | 2.1935e-05 |   0.0 |  0.00
Modify  | 0.015297   | 0.015297   | 0.015297   |   0.0 |  0.11
Other   |            | 0.006188   |            |       |  0.04

Nlocal:    450 ave 450 max 450 min
Histogram: 1 0 0 0 0 0 0 0 0 0
Nghost:    0 ave 0 max 0 min
Histogram: 1 0 0 0 0 0 0 0 0 0
Neighs:    52241 ave 52241 max 52241 min
Histogram: 1 0 0 0 0 0 0 0 0 0

Total # of neighbors = 52241
Ave neighs/atom = 116.091
Ave special neighs/atom = 9.70667
Neighbor list builds = 106
Dangerous builds = 0
unfix pysimm_md
min_style cg
minimize 0.001 0.001 10000 100000
WARNING: Using 'neigh_modify every 1 delay 0 check yes' setting during minimization (../min.cpp:190)
PPPM initialization ...
  using 12-bit tables for long-range coulomb (../kspace.cpp:332)
  G vector (1/distance) = 0.123365
  grid = 30 30 30
  stencil order = 5
  estimated absolute RMS force accuracy = 0.0406799
  estimated relative force accuracy = 0.000122506
  using double precision KISS FFT
  3d grid and FFT values/proc = 42875 27000
Per MPI rank memory allocation (min/avg/max) = 17.92 | 17.92 | 17.92 Mbytes
Step Temp E_pair E_mol TotEng Press 
    2000    281.23851   -6602.9683    830.20199   -5396.3613  0.035353737 
    2008    281.23851   -6617.7417    580.55744   -5660.7792   0.76101414 
Loop time of 0.1363 on 1 procs for 8 steps with 450 atoms

100.5% CPU use with 1 MPI tasks x no OpenMP threads

Minimization stats:
  Stopping criterion = energy tolerance
  Energy initial, next-to-last, final = 
        -5772.76633727     -6031.28621129     -6037.18422299
  Force two-norm initial, final = 680.902 98.2409
  Force max component initial, final = 130.709 19.1155
  Final line search alpha, max atom move = 0.00307995 0.0588748
  Iterations, force evaluations = 8 16

MPI task timing breakdown:
Section |  min time  |  avg time  |  max time  |%varavg| %total
---------------------------------------------------------------
Pair    | 0.030986   | 0.030986   | 0.030986   |   0.0 | 22.73
Bond    | 0.0031576  | 0.0031576  | 0.0031576  |   0.0 |  2.32
Kspace  | 0.10191    | 0.10191    | 0.10191    |   0.0 | 74.77
Neigh   | 0          | 0          | 0          |   0.0 |  0.00
Comm    | 1.0729e-05 | 1.0729e-05 | 1.0729e-05 |   0.0 |  0.01
Output  | 0          | 0          | 0          |   0.0 |  0.00
Modify  | 0          | 0          | 0          |   0.0 |  0.00
Other   |            | 0.0002325  |            |       |  0.17

Nlocal:    450 ave 450 max 450 min
Histogram: 1 0 0 0 0 0 0 0 0 0
Nghost:    0 ave 0 max 0 min
Histogram: 1 0 0 0 0 0 0 0 0 0
Neighs:    52357 ave 52357 max 52357 min
Histogram: 1 0 0 0 0 0 0 0 0 0

Total # of neighbors = 52357
Ave neighs/atom = 116.349
Ave special neighs/atom = 9.70667
Neighbor list builds = 0
Dangerous builds = 0
write_dump all custom pysimm.dump.tmp id q x y z vx vy vz
quit
