pySIMM System Object

522 atoms
570 bonds
1018 angles
1611 dihedrals
147 impropers

10 atom types
13 bond types
25 angle types
12 dihedral types
4 improper types

-60.915650 60.915650 xlo xhi
-60.915650 60.915650 ylo yhi
-60.915650 60.915650 zlo zhi

Masses

   1	12.01	# c3
   2	1.008	# hc
   3	19.0	# f
   4	1.008	# h2
   5	14.01	# n
   6	12.01	# c
   7	12.01	# ca
   8	1.008	# hn
   9	16.0	# o
  10	1.008	# ha

Pair Coeffs

   1	0.1094	3.3996695084235347	# c3
   2	0.0157	2.649532787749369	# hc
   3	0.061	3.1181455134911875	# f
   4	0.0157	2.2931733004932333	# h2
   5	0.17	3.249998523775958	# n
   6	0.086	3.3996695084235347	# c
   7	0.086	3.3996695084235347	# ca
   8	0.0157	1.069078461768407	# hn
   9	0.21	2.959921901149463	# o
  10	0.015	2.59964245953351	# ha

Bond Coeffs

   1	331.7	1.0961	# c3,h2
   2	330.6	1.0969	# c3,hc
   3	300.9	1.5375	# c3,c3
   4	356.9	1.3497	# c3,f
   5	637.7	1.2183	# c,o
   6	321.0	1.5156	# c3,ca
   7	384.2	1.4121	# ca,n
   8	403.2	1.0129	# hn,n
   9	427.6	1.3789	# c,n
  10	461.1	1.3984	# ca,ca
  11	345.9	1.4906	# c,ca
  12	345.8	1.086	# ca,ha
  13	328.7	1.4619	# c3,n

Angle Coeffs

   1	46.34	109.8	# c3,c3,hc
   2	70.89	107.36	# f,c3,f
   3	39.4	107.58	# hc,c3,hc
   4	66.11	109.24	# c3,c3,f
   5	46.25	110.22	# c3,c3,h2
   6	51.15	108.79	# f,c3,h2
   7	64.28	120.33	# c,ca,ca
   8	63.53	120.77	# c3,ca,ca
   9	66.62	120.02	# ca,ca,ca
  10	74.22	123.05	# n,c,o
  11	62.86	111.51	# c3,c3,c3
  12	63.74	127.08	# c,n,c
  13	63.15	112.07	# c3,c3,ca
  14	48.18	119.88	# ca,ca,ha
  15	67.87	120.19	# ca,ca,n
  16	68.72	122.6	# ca,c,o
  17	63.0	118.11	# ca,c,ca
  18	63.82	123.71	# c,n,ca
  19	67.68	115.25	# ca,c,n
  20	63.56	112.24	# ca,c3,ca
  21	48.33	117.55	# c,n,hn
  22	46.8	110.47	# ca,c3,hc
  23	63.39	120.69	# c,n,c3
  24	65.91	111.61	# c3,c3,n
  25	69.52	110.41	# f,c3,n

Dihedral Coeffs

   1	2	0.0	3	0	0.19	1	0	# hc,c3,c3,f
   2	1	0.15555555555555556	3	0	# X,c3,c3,X
   3	2	2.5	2	180	2.0	1	0	# hn,n,c,o
   4	1	3.625	2	180	# X,ca,ca,X
   5	1	0.16	3	0	# hc,c3,c3,c3
   6	1	1.0	2	180	# X,c,ca,X
   7	1	0.0	2	0	# X,c3,ca,X
   8	1	2.5	2	180	# X,c,n,X
   9	1	0.45	2	180	# X,ca,n,X
  10	3	0.18	3	0	0.25	2	180	0.2	1	180	# c3,c3,c3,c3
  11	4	0.5	4	180	0.15	3	180	0.0	2	0	0.53	1	0	# c3,c3,n,c
  12	1	0.0	2	0	# X,c3,n,X

Improper Coeffs

   1	10.5	-1	2	# c,X,X,o
   2	1.1	-1	2	# ca,X,X,ha
   3	1.1	-1	2	# ca,ca,ca,c3
   4	1.1	-1	2	# n,X,X,hn

Atoms

   1	1	1	0.070548	-36.9498	3.76897	-27.4832
   2	1	1	0.506757	-36.1939	4.92565	-28.0951
   3	1	2	-0.012767	-37.7774	3.49252	-28.1114
   4	1	2	-0.014806	-36.2395	2.92716	-27.4956
   5	1	3	-0.274996	-37.0294	5.95358	-28.3603
   6	1	3	-0.274736	-35.3296	5.42501	-27.1628
   7	1	5	0.463181	-23.6519	10.365	-13.427
   8	1	6	0.074399	-23.5997	9.09938	-14.0125
   9	1	7	0.034296	-24.9453	8.90358	-14.6155
  10	1	6	0.051625	-24.8899	11.0019	-13.5947
  11	1	7	0.019035	-25.6945	10.0252	-14.3999
  12	1	9	-0.389616	-22.6142	8.39453	-14.1418
  13	1	9	-0.380104	-25.268	12.131	-13.3022
  14	1	7	-0.045097	-25.4702	7.80235	-15.2665
  15	1	7	-0.056032	-27.0079	10.0773	-14.8713
  16	1	7	-0.174781	-27.5539	8.96503	-15.5606
  17	1	7	-0.129342	-26.8005	7.79952	-15.7385
  18	1	10	0.168842	-24.842	6.91837	-15.3947
  19	1	10	0.15893	-27.6249	10.9493	-14.6468
  20	1	10	0.147704	-28.5969	9.00853	-15.8422
  21	1	6	0.584577	-27.4596	6.53674	-16.2521
  22	1	7	-0.046755	-28.4629	6.60932	-17.4019
  23	1	7	-0.110868	-29.357	5.5404	-17.59
  24	1	7	-0.046132	-30.3383	5.62858	-18.6072
  25	1	7	-0.135873	-28.6086	7.76884	-18.2375
  26	1	7	-0.117662	-29.5583	7.80153	-19.3232
  27	1	7	-0.064457	-30.4269	6.70157	-19.4464
  28	1	6	0.492569	-31.5174	6.41759	-20.4357
  29	1	5	-0.072087	-32.0548	5.18281	-20.0831
  30	1	6	0.477555	-31.3694	4.64188	-18.988
  31	1	7	0.042617	-33.1721	4.63921	-20.7984
  32	1	7	-0.20367	-34.2468	5.47146	-21.1448
  33	1	7	-0.057018	-35.3941	4.91775	-21.7737
  34	1	7	-0.18182	-33.2415	3.30247	-21.2183
  35	1	7	-0.14326	-34.3832	2.73533	-21.8008
  36	1	7	0.043342	-35.5126	3.53356	-22.0827
  37	1	10	0.163244	-34.2476	6.51357	-20.8781
  38	1	10	0.101178	-36.1953	5.60877	-22.0323
  39	1	10	0.165346	-29.6222	8.61775	-20.0353
  40	1	10	0.135111	-27.926	8.62118	-18.1211
  41	1	10	0.171751	-29.2815	4.64784	-16.9716
  42	1	9	-0.478239	-31.5307	3.53084	-18.5205
  43	1	9	-0.481107	-31.7877	7.14692	-21.3848
  44	1	9	-0.49957	-27.2425	5.49624	-15.6547
  45	1	10	0.151248	-32.4081	2.65438	-20.9543
  46	1	10	0.146138	-34.3944	1.65108	-21.9012
  47	1	1	0.044043	-36.8822	2.95882	-22.4479
  48	1	1	-0.215975	-36.9524	1.40552	-22.5288
  49	1	2	0.063789	-37.9991	1.08512	-22.7229
  50	1	2	0.072206	-36.6845	0.958127	-21.5612
  51	1	2	0.045489	-36.3325	0.995924	-23.3224
  52	1	1	0.005306	-37.9686	3.44313	-21.4217
  53	1	1	0.164932	-39.024	4.35264	-22.1328
  54	1	2	0.005277	-37.513	3.97274	-20.5956
  55	1	2	0.017604	-38.4755	2.577	-20.9724
  56	1	7	0.008363	-38.5186	4.37079	-23.5631
  57	1	1	-0.151488	-39.1272	5.75651	-21.4648
  58	1	1	-0.269275	-40.409	3.72481	-22.1322
  59	1	7	0.096378	-37.3923	3.56264	-23.7377
  60	1	2	0.063418	-41.1247	4.44373	-22.5233
  61	1	2	0.061085	-40.6952	3.49982	-21.0951
  62	1	2	0.065045	-40.4217	2.77546	-22.6706
  63	1	7	-0.142025	-39.0974	5.08298	-24.6334
  64	1	7	-0.448546	-36.8736	3.33458	-25.0212
  65	1	7	0.277842	-37.4267	4.03696	-26.0872
  66	1	7	-0.409063	-38.5076	4.90276	-25.8905
  67	1	10	0.203923	-36.0045	2.68721	-25.1616
  68	1	2	0.016419	-38.1232	6.13295	-21.2753
  69	1	2	0.049665	-39.6639	5.74078	-20.4855
  70	1	2	0.035794	-39.6987	6.456	-22.0591
  71	1	10	0.161583	-39.9553	5.73768	-24.4779
  72	1	10	0.199011	-38.888	5.45138	-26.7272
  73	1	1	0.070548	-21.4558	10.403	-12.1472
  74	1	1	0.506757	-22.4586	11.1408	-13.052
  75	1	2	-0.012767	-20.9306	9.61788	-12.6773
  76	1	2	-0.014806	-20.6689	11.1448	-11.9212
  77	1	3	-0.274996	-21.8496	11.6485	-14.1801
  78	1	3	-0.274736	-22.8034	12.2457	-12.3707
  79	1	1	0.070548	-21.0305	10.1011	-9.63117
  80	1	1	0.506757	-22.0291	9.85003	-10.8024
  81	1	2	-0.012767	-20.0845	10.487	-10.0216
  82	1	2	-0.014806	-21.4111	10.8633	-8.96787
  83	1	3	-0.274996	-22.339	8.55214	-10.9724
  84	1	3	-0.274736	-23.2143	10.4246	-10.5249
  85	1	1	0.070548	-20.1791	9.06035	-7.40277
  86	1	1	0.506757	-20.8095	8.82934	-8.77085
  87	1	2	-0.012767	-20.9409	9.25264	-6.63648
  88	1	2	-0.014806	-19.6444	8.12932	-7.07155
  89	1	3	-0.274996	-20.0638	8.00446	-9.52553
  90	1	3	-0.274736	-21.9307	8.17291	-8.48539
  91	1	5	0.463181	-8.69857	11.9645	8.88685
  92	1	6	0.074399	-8.5496	11.3885	7.63376
  93	1	7	0.034296	-9.79759	11.6824	6.93541
  94	1	6	0.051625	-9.98445	12.5377	9.09632
  95	1	7	0.019035	-10.7103	12.3506	7.73885
  96	1	9	-0.389616	-7.58253	10.8431	7.12644
  97	1	9	-0.380104	-10.4367	12.9447	10.1615
  98	1	7	-0.045097	-9.9764	11.4317	5.5787
  99	1	7	-0.056032	-11.866	12.8491	7.10191
 100	1	7	-0.174781	-12.1278	12.4997	5.73905
 101	1	7	-0.129342	-11.1725	11.7961	4.95469
 102	1	10	0.168842	-9.17789	10.8926	5.04903
 103	1	10	0.15893	-12.5781	13.4751	7.64265
 104	1	10	0.147704	-13.0257	12.9346	5.30004
 105	1	6	0.584577	-11.2676	11.6	3.45689
 106	1	7	-0.046755	-12.5682	11.7395	2.72069
 107	1	7	-0.110868	-12.5329	12.137	1.35543
 108	1	7	-0.046132	-13.7572	12.1804	0.711623
 109	1	7	-0.135873	-13.76	11.2562	3.31186
 110	1	7	-0.117662	-14.9834	11.3106	2.61885
 111	1	7	-0.064457	-14.9295	11.7941	1.31907
 112	1	6	0.492569	-16.0132	11.7984	0.2907
 113	1	5	-0.072087	-15.4054	12.2019	-0.863675
 114	1	6	0.477555	-14.0604	12.4926	-0.697726
 115	1	7	0.042617	-16.0795	12.4816	-2.05098
 116	1	7	-0.20367	-16.6021	13.754	-2.24913
 117	1	7	-0.057018	-17.3856	14.0848	-3.35414
 118	1	7	-0.18182	-16.421	11.4724	-2.98927
 119	1	7	-0.14326	-17.2279	11.8071	-4.10357
 120	1	7	0.043342	-17.718	13.1346	-4.32499
 121	1	10	0.163244	-16.3856	14.5087	-1.48766
 122	1	10	0.101178	-17.7733	15.1115	-3.46521
 123	1	10	0.165346	-15.9092	10.9281	3.03451
 124	1	10	0.135111	-13.7337	10.7676	4.2973
 125	1	10	0.171751	-11.6228	12.337	0.818927
 126	1	9	-0.478239	-13.263	12.9078	-1.51454
 127	1	9	-0.481107	-17.2261	11.7714	0.440754
 128	1	9	-0.49957	-10.2757	11.2322	2.85496
 129	1	10	0.151248	-16.1456	10.4244	-2.83533
 130	1	10	0.146138	-17.5012	10.9868	-4.74602
 131	1	1	0.044043	-18.4284	13.6112	-5.60539
 132	1	1	-0.215975	-19.8731	14.2344	-5.34688
 133	1	2	0.063789	-19.8479	15.2554	-4.93114
 134	1	2	0.072206	-20.4251	13.5599	-4.69592
 135	1	2	0.045489	-20.4341	14.2835	-6.28653
 136	1	1	0.005306	-17.4674	14.5884	-6.36223
 137	1	1	0.164932	-16.6652	13.7404	-7.38815
 138	1	2	0.005277	-16.7884	15.1181	-5.68147
 139	1	2	0.017604	-18.0362	15.3975	-6.86474
 140	1	7	0.008363	-17.4446	12.4692	-7.39397
 141	1	1	-0.151488	-15.1869	13.4729	-6.96513
 142	1	1	-0.269275	-16.7056	14.4695	-8.76412
 143	1	7	0.096378	-18.5478	12.4397	-6.55669
 144	1	2	0.063418	-16.1788	15.441	-8.70283
 145	1	2	0.061085	-17.7788	14.6249	-9.06583
 146	1	2	0.065045	-16.1915	13.8769	-9.50733
 147	1	7	-0.142025	-17.179	11.3638	-8.19415
 148	1	7	-0.448546	-19.4255	11.3403	-6.50986
 149	1	7	0.277842	-19.1952	10.2256	-7.38642
 150	1	7	-0.409063	-18.0344	10.2205	-8.14711
 151	1	10	0.203923	-20.2591	11.3774	-5.82155
 152	1	2	0.016419	-15.1361	12.962	-6.00171
 153	1	2	0.049665	-14.6776	14.4204	-6.92434
 154	1	2	0.035794	-14.6864	12.8653	-7.7132
 155	1	10	0.161583	-16.3131	11.4197	-8.85318
 156	1	10	0.199011	-17.7783	9.33825	-8.77303
 157	1	1	0.070548	-7.67944	11.0697	11.0367
 158	1	1	0.506757	-7.54639	12.1246	9.86342
 159	1	2	-0.012767	-8.58125	11.2699	11.6313
 160	1	2	-0.014806	-7.80715	10.0618	10.6066
 161	1	3	-0.274996	-6.34864	12.0843	9.26831
 162	1	3	-0.274736	-7.56875	13.3973	10.3512
 163	1	1	0.070548	-6.81484	10.4762	13.4773
 164	1	1	0.506757	-6.5028	10.997	12.0215
 165	1	2	-0.012767	-7.69071	11.0372	13.812
 166	1	2	-0.014806	-5.97741	10.7283	14.1316
 167	1	3	-0.274996	-5.98184	12.2264	12.1876
 168	1	3	-0.274736	-5.54755	10.2115	11.4709
 169	1	5	0.463181	-4.14755	5.87641	-3.04675
 170	1	6	0.074399	-4.07186	7.10252	-2.4072
 171	1	7	0.034296	-4.70871	6.91008	-1.07492
 172	1	6	0.051625	-4.72062	4.88911	-2.22158
 173	1	7	0.019035	-5.10354	5.59113	-0.963189
 174	1	9	-0.389616	-3.48643	8.12273	-2.75344
 175	1	9	-0.380104	-4.99196	3.73731	-2.47446
 176	1	7	-0.045097	-5.04829	7.86685	-0.113023
 177	1	7	-0.056032	-5.82503	5.17156	0.125863
 178	1	7	-0.174781	-6.12606	6.07252	1.16624
 179	1	7	-0.129342	-5.79071	7.43594	0.988628
 180	1	10	0.168842	-4.77314	8.94476	-0.225692
 181	1	10	0.15893	-6.13347	4.13183	0.173413
 182	1	10	0.147704	-6.63346	5.76245	2.06628
 183	1	6	0.584577	-6.17383	8.52047	1.90196
 184	1	7	-0.046755	-5.52236	8.60706	3.30012
 185	1	7	-0.110868	-4.85124	7.52406	3.97231
 186	1	7	-0.046132	-4.48031	7.64291	5.34776
 187	1	7	-0.135873	-5.64254	9.81192	4.00279
 188	1	7	-0.117662	-5.14623	9.97405	5.3294
 189	1	7	-0.064457	-4.60423	8.87131	5.97874
 190	1	6	0.492569	-4.56131	8.64422	7.45225
 191	1	5	-0.072087	-4.28207	7.27306	7.57642
 192	1	6	0.477555	-4.18321	6.59416	6.35814
 193	1	7	0.042617	-4.42653	6.66227	8.82339
 194	1	7	-0.20367	-5.63862	6.06007	9.1198
 195	1	7	-0.057018	-5.89998	5.68983	10.4521
 196	1	7	-0.18182	-3.49381	6.88962	9.86312
 197	1	7	-0.14326	-3.73317	6.4511	11.173
 198	1	7	0.043342	-4.94309	5.83848	11.5104
 199	1	10	0.163244	-6.41581	5.97573	8.33741
 200	1	10	0.101178	-6.89435	5.36141	10.7287
 201	1	10	0.165346	-5.39485	10.8626	5.89206
 202	1	10	0.135111	-6.19083	10.6401	3.53415
 203	1	10	0.171751	-4.73616	6.5675	3.52089
 204	1	9	-0.478239	-3.99536	5.39649	6.15139
 205	1	9	-0.481107	-4.5814	9.49451	8.3415
 206	1	9	-0.49957	-6.90785	9.40527	1.46804
 207	1	10	0.151248	-2.56501	7.43122	9.61204
 208	1	10	0.146138	-2.9928	6.71276	11.9426
 209	1	1	0.044043	-5.31547	5.52835	12.9744
 210	1	1	-0.215975	-4.08324	5.42858	13.9417
 211	1	2	0.063789	-3.27183	4.80395	13.5065
 212	1	2	0.072206	-4.34643	4.92909	14.8632
 213	1	2	0.045489	-3.63006	6.43871	14.1987
 214	1	1	0.005306	-6.24163	4.29491	13.1713
 215	1	1	0.164932	-7.47876	4.69036	14.0307
 216	1	2	0.005277	-5.69236	3.45318	13.7001
 217	1	2	0.017604	-6.53154	3.77221	12.2415
 218	1	7	0.008363	-7.41026	6.21234	13.9691
 219	1	1	-0.151488	-7.36274	4.0997	15.4478
 220	1	1	-0.269275	-8.7874	4.17385	13.4188
 221	1	7	0.096378	-6.19992	6.65477	13.4766
 222	1	2	0.063418	-8.91596	4.68558	12.4487
 223	1	2	0.061085	-9.66622	4.33682	14.0837
 224	1	2	0.065045	-8.73464	3.08945	13.2411
 225	1	7	-0.142025	-8.40601	7.12672	14.2955
 226	1	7	-0.448546	-5.98981	8.03602	13.273
 227	1	7	0.277842	-6.97641	8.97795	13.6277
 228	1	7	-0.409063	-8.17947	8.48139	14.1566
 229	1	10	0.203923	-5.03763	8.4043	12.8762
 230	1	2	0.016419	-6.48933	4.49994	15.9742
 231	1	2	0.049665	-7.18552	3.0068	15.4015
 232	1	2	0.035794	-8.23001	4.2917	16.0648
 233	1	10	0.161583	-9.3612	6.75034	14.6565
 234	1	10	0.199011	-8.99801	9.1602	14.3442
 235	1	5	0.463181	-7.18542	16.6735	6.26775
 236	1	6	0.074399	-6.8747	17.4994	5.14809
 237	1	7	0.034296	-6.83215	16.5821	3.93036
 238	1	6	0.051625	-7.24921	15.3413	5.9234
 239	1	7	0.019035	-6.99018	15.3343	4.4449
 240	1	9	-0.389616	-6.86922	18.7158	5.1391
 241	1	9	-0.380104	-7.57381	14.3633	6.58978
 242	1	7	-0.045097	-6.68042	16.769	2.54031
 243	1	7	-0.056032	-6.85677	14.202	3.63319
 244	1	7	-0.174781	-6.64768	14.3792	2.23332
 245	1	7	-0.129342	-6.58457	15.6612	1.64367
 246	1	10	0.168842	-6.56376	17.7772	2.17177
 247	1	10	0.15893	-6.91281	13.2146	4.06444
 248	1	10	0.147704	-6.49444	13.4759	1.6511
 249	1	6	0.584577	-6.34518	15.8908	0.160352
 250	1	7	-0.046755	-6.45246	14.7449	-0.821251
 251	1	7	-0.110868	-5.62386	14.7516	-1.97513
 252	1	7	-0.046132	-5.66418	13.6028	-2.77994
 253	1	7	-0.135873	-7.3713	13.6945	-0.583134
 254	1	7	-0.117662	-7.3423	12.5571	-1.36982
 255	1	7	-0.064457	-6.52678	12.5783	-2.4659
 256	1	6	0.492569	-6.3295	11.487	-3.39332
 257	1	5	-0.072087	-5.43312	11.9817	-4.33083
 258	1	6	0.477555	-4.92587	13.2293	-4.04259
 259	1	7	0.042617	-5.03268	11.1394	-5.41158
 260	1	7	-0.20367	-3.67114	10.7753	-5.68422
 261	1	7	-0.057018	-3.42143	9.68637	-6.56083
 262	1	7	-0.18182	-6.04295	10.4359	-6.10199
 263	1	7	-0.14326	-5.80395	9.40261	-6.98957
 264	1	7	0.043342	-4.45195	8.97829	-7.19464
 265	1	10	0.163244	-2.85884	11.3181	-5.21584
 266	1	10	0.101178	-2.38921	9.45758	-6.78483
 267	1	10	0.165346	-8.00513	11.7	-1.15343
 268	1	10	0.135111	-8.08466	13.7878	0.240194
 269	1	10	0.171751	-4.89316	15.5508	-2.20862
 270	1	9	-0.478239	-3.92711	13.746	-4.53773
 271	1	9	-0.481107	-6.72938	10.3512	-3.17787
 272	1	9	-0.49957	-6.03372	16.9869	-0.260882
 273	1	10	0.151248	-7.0636	10.6439	-5.8115
 274	1	10	0.146138	-6.66124	8.85632	-7.36992
 275	1	1	0.044043	-4.16642	7.53271	-7.78227
 276	1	1	-0.215975	-5.38017	6.89571	-8.53888
 277	1	2	0.063789	-5.88999	7.61901	-9.14896
 278	1	2	0.072206	-6.08115	6.50136	-7.78074
 279	1	2	0.045489	-5.16285	5.98718	-9.14496
 280	1	1	0.005306	-2.97078	7.47208	-8.74263
 281	1	1	0.164932	-1.99501	6.27659	-8.31114
 282	1	2	0.005277	-2.42632	8.44753	-8.76859
 283	1	2	0.017604	-3.29212	7.39176	-9.78102
 284	1	7	0.008363	-2.46429	5.9592	-6.92867
 285	1	1	-0.151488	-0.512272	6.71085	-8.39297
 286	1	1	-0.269275	-2.23488	5.06224	-9.24404
 287	1	7	0.096378	-3.65677	6.63573	-6.6838
 288	1	2	0.063418	-2.0208	5.27291	-10.2982
 289	1	2	0.061085	-3.27533	4.75031	-9.12574
 290	1	2	0.065045	-1.62435	4.22152	-8.87467
 291	1	7	-0.142025	-1.8238	5.21551	-5.9169
 292	1	7	-0.448546	-4.235	6.58865	-5.40102
 293	1	7	0.277842	-3.68437	5.73857	-4.40342
 294	1	7	-0.409063	-2.46772	5.06885	-4.66999
 295	1	10	0.203923	-5.13857	7.1738	-5.19313
 296	1	2	0.016419	-0.189316	6.89504	-9.42943
 297	1	2	0.049665	0.0929126	5.86847	-8.01956
 298	1	2	0.035794	-0.305487	7.58571	-7.78895
 299	1	10	0.161583	-0.872165	4.76722	-6.13872
 300	1	10	0.199011	-1.96773	4.48605	-3.89782
 301	1	5	0.463181	-0.427109	17.751	-2.51086
 302	1	6	0.074399	-0.781967	18.9873	-3.04278
 303	1	7	0.034296	-1.86566	19.4725	-2.12155
 304	1	6	0.051625	-1.2589	17.3269	-1.4742
 305	1	7	0.019035	-2.20503	18.4635	-1.2473
 306	1	9	-0.389616	-0.141674	19.5904	-3.87497
 307	1	9	-0.380104	-1.2371	16.2554	-0.880592
 308	1	7	-0.045097	-2.45911	20.7357	-1.99729
 309	1	7	-0.056032	-3.10051	18.7059	-0.146464
 310	1	7	-0.174781	-3.70373	19.9863	-0.0149189
 311	1	7	-0.129342	-3.33153	21.0034	-0.930662
 312	1	10	0.168842	-2.2005	21.5369	-2.71835
 313	1	10	0.15893	-3.31736	17.9673	0.595192
 314	1	10	0.147704	-4.35648	20.2317	0.811824
 315	1	6	0.584577	-3.86352	22.3607	-0.746535
 316	1	7	-0.046755	-4.12981	22.7706	0.669117
 317	1	7	-0.110868	-5.4213	23.0068	1.12972
 318	1	7	-0.046132	-5.52965	23.2188	2.52926
 319	1	7	-0.135873	-3.00122	22.9097	1.54563
 320	1	7	-0.117662	-3.14454	23.2155	2.88825
 321	1	7	-0.064457	-4.43959	23.3806	3.35347
 322	1	6	0.492569	-4.98731	23.4944	4.74526
 323	1	5	-0.072087	-6.3596	23.1871	4.71529
 324	1	6	0.477555	-6.73952	23.0417	3.39395
 325	1	7	0.042617	-7.01867	22.8324	5.91707
 326	1	7	-0.20367	-8.01668	21.8684	5.87886
 327	1	7	-0.057018	-8.41972	21.1959	7.01426
 328	1	7	-0.18182	-6.64264	23.3459	7.16138
 329	1	7	-0.14326	-7.09267	22.6946	8.33526
 330	1	7	0.043342	-7.82545	21.4788	8.23454
 331	1	10	0.163244	-8.33535	21.4823	4.90665
 332	1	10	0.101178	-9.11091	20.3327	6.88877
 333	1	10	0.165346	-2.31339	23.3525	3.58887
 334	1	10	0.135111	-2.00595	22.819	1.15539
 335	1	10	0.171751	-6.31578	22.8813	0.536064
 336	1	9	-0.478239	-7.74988	22.5981	2.91704
 337	1	9	-0.481107	-4.23221	23.2599	5.6806
 338	1	9	-0.49957	-3.95432	23.1992	-1.64394
 339	1	10	0.151248	-5.90506	24.1381	7.27663
 340	1	10	0.146138	-6.58874	22.8799	9.24638
 341	1	1	0.044043	-8.0079	20.5719	9.42232
 342	1	1	-0.215975	-6.80621	20.4906	10.3364
 343	1	2	0.063789	-6.82514	19.5463	10.8944
 344	1	2	0.072206	-6.75719	21.3717	11.0141
 345	1	2	0.045489	-5.86636	20.4512	9.77712
 346	1	1	0.005306	-9.26399	20.897	10.237
 347	1	1	0.164932	-10.0709	19.5442	10.3679
 348	1	2	0.005277	-9.83173	21.6568	9.68148
 349	1	2	0.017604	-8.98554	21.3352	11.1936
 350	1	7	0.008363	-9.38717	18.556	9.37601
 351	1	1	-0.151488	-11.6031	19.7601	10.0798
 352	1	1	-0.269275	-9.95447	19.0749	11.84
 353	1	7	0.096378	-8.23787	19.1281	8.89971
 354	1	2	0.063418	-9.02059	18.6092	12.0493
 355	1	2	0.061085	-10.7145	18.3184	12.0641
 356	1	2	0.065045	-10.1026	19.8905	12.5555
 357	1	7	-0.142025	-9.85542	17.3222	8.85935
 358	1	7	-0.448546	-7.39265	18.4329	8.0154
 359	1	7	0.277842	-7.84112	17.2368	7.40703
 360	1	7	-0.409063	-9.0938	16.7398	7.83712
 361	1	10	0.203923	-6.48858	18.8972	7.63166
 362	1	2	0.016419	-11.7878	20.1779	9.10028
 363	1	2	0.049665	-12.1271	20.3127	10.8488
 364	1	2	0.035794	-12.0142	18.7517	10.0517
 365	1	10	0.161583	-10.7999	16.8585	9.16484
 366	1	10	0.199011	-9.49232	15.8853	7.28213
 367	1	1	0.070548	1.91432	17.5073	-3.70223
 368	1	1	0.506757	0.769783	16.8669	-2.8709
 369	1	2	-0.012767	2.62652	16.724	-4.02265
 370	1	2	-0.014806	1.5672	17.8827	-4.67819
 371	1	3	-0.274996	1.40963	16.3371	-1.7679
 372	1	3	-0.274736	0.284684	15.827	-3.6076
 373	1	5	0.463181	0.821372	12.4194	11.2404
 374	1	6	0.074399	0.791418	13.5022	10.3527
 375	1	7	0.034296	-0.579284	13.7108	9.96859
 376	1	6	0.051625	-0.466019	11.9363	11.5574
 377	1	7	0.019035	-1.33825	12.8956	10.7611
 378	1	9	-0.389616	1.69944	14.1147	9.89579
 379	1	9	-0.380104	-0.714934	10.7475	11.7922
 380	1	7	-0.045097	-1.19708	14.4013	8.8967
 381	1	7	-0.056032	-2.6974	12.8071	10.5498
 382	1	7	-0.174781	-3.31395	13.6002	9.54872
 383	1	7	-0.129342	-2.56454	14.3662	8.64331
 384	1	10	0.168842	-0.591635	15.075	8.28533
 385	1	10	0.15893	-3.2604	12.0406	11.0993
 386	1	10	0.147704	-4.3934	13.5716	9.37529
 387	1	6	0.584577	-3.12243	15.1737	7.4648
 388	1	7	-0.046755	-2.39857	15.3266	6.18745
 389	1	7	-0.110868	-2.58806	16.5191	5.4356
 390	1	7	-0.046132	-1.80438	16.6722	4.27176
 391	1	7	-0.135873	-1.60244	14.2973	5.6959
 392	1	7	-0.117662	-0.938312	14.4346	4.47139
 393	1	7	-0.064457	-0.957098	15.6897	3.81043
 394	1	6	0.492569	-0.147168	16.2901	2.7481
 395	1	5	-0.072087	-0.56668	17.6527	2.667
 396	1	6	0.477555	-1.64727	17.9131	3.48492
 397	1	7	0.042617	0.183352	18.727	2.02905
 398	1	7	-0.20367	-0.460836	19.8638	1.48371
 399	1	7	-0.057018	0.248929	20.9069	0.899701
 400	1	7	-0.18182	1.56868	18.7052	2.02732
 401	1	7	-0.14326	2.28823	19.6719	1.32094
 402	1	7	0.043342	1.61031	20.6878	0.665058
 403	1	10	0.163244	-1.5358	19.9204	1.57314
 404	1	10	0.101178	-0.263148	21.7023	0.342305
 405	1	10	0.165346	-0.119383	13.7351	4.14575
 406	1	10	0.135111	-1.58008	13.3104	6.2235
 407	1	10	0.171751	-3.148	17.3001	5.89889
 408	1	9	-0.478239	-2.24434	18.9263	3.72799
 409	1	9	-0.481107	0.877771	15.8242	2.31981
 410	1	9	-0.49957	-4.24474	15.634	7.53306
 411	1	10	0.151248	2.15166	17.9048	2.52075
 412	1	10	0.146138	3.36378	19.6096	1.24391
 413	1	1	0.044043	2.38162	21.485	-0.374888
 414	1	1	-0.215975	1.57341	22.501	-1.17848
 415	1	2	0.063789	0.750028	22.0083	-1.74022
 416	1	2	0.072206	2.22428	23.0388	-1.88178
 417	1	2	0.045489	1.11687	23.2157	-0.513723
 418	1	1	0.005306	3.75653	22.0894	0.147888
 419	1	1	0.164932	4.87746	21.7797	-0.92224
 420	1	2	0.005277	4.04348	21.7378	1.15051
 421	1	2	0.017604	3.60613	23.1907	0.258458
 422	1	7	0.008363	4.17499	20.7889	-1.81895
 423	1	1	-0.151488	6.04259	21.2036	-0.108171
 424	1	1	-0.269275	5.30761	23.0589	-1.75869
 425	1	7	0.096378	2.88682	20.5018	-1.42244
 426	1	2	0.063418	6.0459	22.8355	-2.55702
 427	1	2	0.061085	5.80045	23.7893	-1.15334
 428	1	2	0.065045	4.53807	23.5569	-2.24157
 429	1	7	-0.142025	4.77299	19.9984	-2.83958
 430	1	7	-0.448546	2.12434	19.4257	-1.96959
 431	1	7	0.277842	2.6679	18.6153	-3.02122
 432	1	7	-0.409063	3.95412	18.938	-3.48969
 433	1	10	0.203923	1.17984	19.221	-1.56703
 434	1	2	0.016419	5.93701	20.1643	0.242633
 435	1	2	0.049665	6.22686	21.8946	0.710217
 436	1	2	0.035794	7.0152	21.2876	-0.611912
 437	1	10	0.161583	5.85931	20.1678	-3.06046
 438	1	10	0.199011	4.36388	18.3875	-4.33204
 439	1	1	0.070548	2.28513	10.2565	11.1173
 440	1	1	0.506757	2.06594	11.6741	11.7432
 441	1	2	-0.012767	3.38926	9.979	11.2809
 442	1	2	-0.014806	1.63076	9.63323	11.8035
 443	1	3	-0.274996	2.11044	11.638	13.0697
 444	1	3	-0.274736	3.20123	12.2309	11.3478
 445	1	1	0.070548	2.97563	10.8541	8.63671
 446	1	1	0.506757	2.11149	9.97741	9.60639
 447	1	2	-0.012767	4.03149	10.5438	8.89782
 448	1	2	-0.014806	2.85418	11.9378	8.75002
 449	1	3	-0.274996	0.811911	10.0801	9.30284
 450	1	3	-0.274736	2.375	8.6711	9.46819
 451	1	1	0.070548	4.10791	10.9182	6.37932
 452	1	1	0.506757	2.81308	10.6314	7.11884
 453	1	2	-0.012767	4.01748	10.3865	5.42904
 454	1	2	-0.014806	4.95475	10.4063	6.73448
 455	1	3	-0.274996	1.82522	11.3086	6.55922
 456	1	3	-0.274736	2.39924	9.43438	6.87663
 457	1	5	0.463181	15.3202	4.20342	7.83792
 458	1	6	0.074399	14.5317	5.29486	8.17105
 459	1	7	0.034296	15.3753	6.05024	9.18634
 460	1	6	0.051625	16.6675	4.29997	8.26288
 461	1	7	0.019035	16.6404	5.47755	9.15344
 462	1	9	-0.389616	13.3845	5.44377	7.85904
 463	1	9	-0.380104	17.6201	3.57861	8.08326
 464	1	7	-0.045097	15.0373	7.23249	9.87598
 465	1	7	-0.056032	17.6005	5.95713	10.0394
 466	1	7	-0.174781	17.2594	7.082	10.8332
 467	1	7	-0.129342	15.9539	7.69787	10.8066
 468	1	10	0.168842	14.0308	7.65713	9.82484
 469	1	10	0.15893	18.5887	5.45898	10.0632
 470	1	10	0.147704	17.9635	7.45281	11.5288
 471	1	6	0.584577	15.4941	8.80615	11.7406
 472	1	7	-0.046755	14.8035	9.98533	11.1196
 473	1	7	-0.110868	13.646	10.5463	11.6761
 474	1	7	-0.046132	13.0396	11.6352	10.9909
 475	1	7	-0.135873	15.3827	10.5979	9.98842
 476	1	7	-0.117662	14.7756	11.6842	9.30981
 477	1	7	-0.064457	13.5591	12.1527	9.80951
 478	1	6	0.492569	12.5439	13.1018	9.23251
 479	1	5	-0.072087	11.3981	13.0045	10.0299
 480	1	6	0.477555	11.6648	12.2293	11.1023
 481	1	7	0.042617	10.0451	13.46	9.67248
 482	1	7	-0.20367	9.39482	12.9412	8.49929
 483	1	7	-0.057018	8.13892	13.4382	8.13175
 484	1	7	-0.18182	9.40508	14.3935	10.4652
 485	1	7	-0.14326	8.03333	14.7567	10.1531
 486	1	7	0.043342	7.48212	14.3982	8.91926
 487	1	10	0.163244	9.90634	12.2799	7.79757
 488	1	10	0.101178	7.81651	13.073	7.14018
 489	1	10	0.165346	15.2712	12.0808	8.41727
 490	1	10	0.135111	16.3698	10.2037	9.63709
 491	1	10	0.171751	13.1556	10.078	12.5634
 492	1	9	-0.478239	10.9326	12.0456	12.0115
 493	1	9	-0.481107	12.7127	13.7285	8.19973
 494	1	9	-0.49957	15.6172	8.7041	12.9433
 495	1	10	0.151248	9.91668	14.8346	11.337
 496	1	10	0.146138	7.58633	15.5515	10.7242
 497	1	1	0.044043	6.12768	14.9887	8.54575
 498	1	1	-0.215975	5.07012	14.9399	9.69368
 499	1	2	0.063789	5.30778	15.7352	10.3983
 500	1	2	0.072206	5.12144	13.9584	10.1601
 501	1	2	0.045489	4.04597	14.9903	9.28085
 502	1	1	0.005306	6.30895	16.3973	7.89965
 503	1	1	0.164932	5.606	16.4187	6.5489
 504	1	2	0.005277	7.42099	16.5402	7.85386
 505	1	2	0.017604	5.95366	17.1948	8.5339
 506	1	7	0.008363	5.0723	15.0394	6.35798
 507	1	1	-0.151488	6.64239	16.5298	5.44699
 508	1	1	-0.269275	4.47925	17.4806	6.43754
 509	1	7	0.096378	5.53254	14.2207	7.40506
 510	1	2	0.063418	3.73586	17.1655	7.23617
 511	1	2	0.061085	4.0647	17.4024	5.49616
 512	1	2	0.065045	4.88189	18.4941	6.49879
 513	1	7	-0.142025	4.26574	14.5594	5.25576
 514	1	7	-0.448546	5.27556	12.8645	7.3127
 515	1	7	0.277842	4.43867	12.3481	6.27658
 516	1	7	-0.409063	3.90933	13.183	5.27427
 517	1	10	0.203923	5.67382	12.2822	8.08221
 518	1	2	0.016419	6.12862	16.5583	4.46435
 519	1	2	0.049665	7.35984	15.6738	5.61844
 520	1	2	0.035794	7.25219	17.4246	5.58741
 521	1	10	0.161583	3.99813	15.2366	4.46821
 522	1	10	0.199011	3.28144	12.7415	4.45442

Velocities

   1	-0.00772971	-0.00287307	0.00485518
   2	-0.00486345	0.00220963	0.0137439
   3	0.0103712	-0.0230965	0.0041256
   4	-0.00561174	0.0010605	0.0136697
   5	-0.00304323	0.00687015	0.00650592
   6	-0.00815651	0.00235243	0.00822752
   7	-0.00418922	0.000167383	0.0025097
   8	-0.00867202	0.0027775	0.00835043
   9	-0.00438879	0.00414872	0.00148837
  10	-0.00318091	0.00100936	0.0089594
  11	-0.00459251	-0.000480772	0.00806178
  12	-0.00858291	0.000530209	0.00932074
  13	-0.00204367	0.00566427	0.00878738
  14	-0.000974694	-0.00113713	-0.00348484
  15	-0.00664608	0.0021929	0.010571
  16	-0.00478018	0.00100808	0.00745843
  17	-0.00562159	0.000301324	0.00900573
  18	0.00439952	-0.00256827	-0.0118493
  19	-0.0032919	-0.00095201	0.00576287
  20	-0.0111522	0.000256747	0.0173027
  21	-0.00844905	0.00380774	0.00492783
  22	-0.0117803	0.00056968	0.00695945
  23	-0.00635357	-0.00688059	0.00555655
  24	-0.00707298	-0.00196204	0.00553445
  25	-0.0117712	-0.000218619	0.00495124
  26	-0.00580913	-0.000441099	0.00724814
  27	-0.00429695	0.00304942	0.0118128
  28	-0.00579905	0.0014237	0.00769122
  29	-0.00429825	0.000169491	0.00749387
  30	-0.00808731	-0.00185379	0.00395108
  31	-0.00775455	0.00151395	0.00922391
  32	-0.00814646	0.00115315	0.00393458
  33	-0.00222871	0.00213907	0.00577924
  34	-0.00279457	0.000918798	0.00550282
  35	-0.00596931	0.00325544	0.00836374
  36	-0.00599719	0.00502576	0.0122877
  37	-0.00780053	-0.0123968	0.0135045
  38	0.00765672	0.00368424	0.0120228
  39	-0.00281231	-0.00600269	0.00935197
  40	-0.0211342	0.0104887	-0.00155278
  41	-0.00786221	-0.00443054	0.000538444
  42	-0.00175088	-0.00665087	-0.000817976
  43	-0.00984025	0.00261021	0.00978232
  44	-0.00660069	0.00047628	0.00153948
  45	-0.00810134	0.00151261	0.00834479
  46	-0.0137303	0.00750493	0.000229247
  47	-0.00958006	0.00395224	0.0104451
  48	-0.0156757	0.00456302	0.0080791
  49	-0.0107221	-0.00968489	0.026679
  50	0.00752454	0.000643902	0.0146388
  51	-0.0184336	0.0140467	0.00282021
  52	-0.00928886	0.00874024	0.00115714
  53	-0.0115043	0.00805199	0.00683778
  54	-0.0102034	-0.00150037	0.00431332
  55	-0.016724	0.0119714	0.000508489
  56	-0.0139127	-0.000376894	0.00862202
  57	-0.0139283	0.0113831	0.00460399
  58	-0.0111964	0.00319244	0.0109458
  59	-0.00866376	0.00459001	0.0122557
  60	-0.0143002	0.00980307	0.00604986
  61	-0.0117421	0.0167221	0.00508478
  62	-0.00416134	-0.00343042	0.0181593
  63	-0.0010373	0.00257387	0.00840362
  64	-0.00922206	0.00475169	0.0104469
  65	-0.00694686	-0.00392611	0.00549941
  66	-0.001618	0.00334806	0.00869718
  67	-0.017112	-0.000270682	0.0212756
  68	-0.00655591	0.00773443	0.0215892
  69	-0.00902169	0.00963265	0.0108012
  70	0.00803698	0.00601998	-0.0120947
  71	0.000798556	0.0121357	6.7471e-05
  72	-0.000456733	0.00388054	0.00899066
  73	-0.00520631	0.00238181	0.00706223
  74	-0.00824935	0.00451574	7.80108e-05
  75	-0.0111601	-0.00419231	0.0117794
  76	-0.00512468	-0.000401028	0.00499538
  77	-0.00769791	0.00724644	0.00395505
  78	-0.0073619	-0.00295354	0.00372507
  79	-0.00240396	0.00271957	0.00403292
  80	-0.00561655	0.00384157	0.000446991
  81	-0.00592588	0.00123556	-0.000267942
  82	-0.00676064	0.00680763	0.00273528
  83	-0.00572443	0.0075563	0.011005
  84	0.000980802	0.010091	0.00394851
  85	-0.00687422	0.00516034	0.00355058
  86	-0.00382988	0.00414148	-0.000109596
  87	0.00178528	-0.0081596	0.0158224
  88	0.0126313	0.0190992	0.00357018
  89	-0.00573292	0.00442239	0.00113436
  90	-0.0037874	-0.000799109	-0.00455227
  91	-0.00489296	0.00597179	-0.00427612
  92	0.000673205	0.00741883	-0.00402161
  93	-0.00444056	-0.000222363	-0.000592481
  94	-0.00246669	0.00302105	-0.00453333
  95	-0.00898591	0.00761516	-0.007514
  96	0.000494403	0.00928402	-0.00214044
  97	-0.00691175	-0.00446459	-0.000740092
  98	-0.00151288	0.00127206	-0.000256497
  99	0.0011035	0.0115232	-0.00111895
 100	-0.00601885	0.000360843	-1.48761e-05
 101	0.00148314	0.00331205	0.00167789
 102	-0.00312124	-0.00356595	0.00290357
 103	0.00545329	0.0100874	0.00470173
 104	-0.000428537	0.0111304	-0.0141247
 105	0.000871847	-0.00533743	-0.00369854
 106	-0.00427872	-0.00137845	-0.00225153
 107	-0.00446388	0.00172917	0.000470068
 108	-0.00573702	0.00849368	-0.00125235
 109	-0.00120685	-0.00429724	-0.00232138
 110	-0.00399408	0.00191735	0.000256551
 111	-0.00287877	0.0067574	-0.00337606
 112	-0.000441853	0.00627229	-0.00106869
 113	-0.00221969	0.0104604	-0.000396724
 114	-0.00724586	0.0121987	-0.000915453
 115	-0.00461171	0.00807562	-0.00208019
 116	-0.00344852	0.0092972	-0.00416613
 117	-0.000809293	0.00546906	-0.00231153
 118	0.0024691	0.00688822	-0.00180186
 119	0.00452842	0.00210905	-0.00304494
 120	-0.00744842	0.000752359	0.00244361
 121	-0.00355778	-0.00101269	-0.00110952
 122	-0.0027638	0.00206269	-0.0154809
 123	0.00994839	-0.00691446	-0.00316684
 124	0.00210062	-0.00800316	-0.00491071