pySIMM System Object

1326 atoms
1451 bonds
2594 angles
4120 dihedrals
378 impropers

10 atom types
13 bond types
25 angle types
12 dihedral types
4 improper types

-167.555800 167.555800 xlo xhi
-167.555800 167.555800 ylo yhi
-167.555800 167.555800 zlo zhi

Masses

   1	14.01	# n
   2	12.01	# c
   3	12.01	# ca
   4	1.008	# hn
   5	16.0	# o
   6	1.008	# ha
   7	12.01	# c3
   8	1.008	# hc
   9	19.0	# f
  10	1.008	# h2

Pair Coeffs

   1	0.17	3.249998523775958	# n
   2	0.086	3.3996695084235347	# c
   3	0.086	3.3996695084235347	# ca
   4	0.0157	1.069078461768407	# hn
   5	0.21	2.959921901149463	# o
   6	0.015	2.59964245953351	# ha
   7	0.1094	3.3996695084235347	# c3
   8	0.0157	2.649532787749369	# hc
   9	0.061	3.1181455134911875	# f
  10	0.0157	2.2931733004932333	# h2

Bond Coeffs

   1	637.7	1.2183	# c,o
   2	321.0	1.5156	# c3,ca
   3	384.2	1.4121	# ca,n
   4	403.2	1.0129	# hn,n
   5	330.6	1.0969	# c3,hc
   6	427.6	1.3789	# c,n
   7	461.1	1.3984	# ca,ca
   8	345.9	1.4906	# c,ca
   9	300.9	1.5375	# c3,c3
  10	345.8	1.086	# ca,ha
  11	331.7	1.0961	# c3,h2
  12	356.9	1.3497	# c3,f
  13	328.7	1.4619	# c3,n

Angle Coeffs

   1	64.28	120.33	# c,ca,ca
   2	63.53	120.77	# c3,ca,ca
   3	66.62	120.02	# ca,ca,ca
   4	74.22	123.05	# n,c,o
   5	62.86	111.51	# c3,c3,c3
   6	63.74	127.08	# c,n,c
   7	63.15	112.07	# c3,c3,ca
   8	48.18	119.88	# ca,ca,ha
   9	67.87	120.19	# ca,ca,n
  10	68.72	122.6	# ca,c,o
  11	46.34	109.8	# c3,c3,hc
  12	63.0	118.11	# ca,c,ca
  13	63.82	123.71	# c,n,ca
  14	67.68	115.25	# ca,c,n
  15	63.56	112.24	# ca,c3,ca
  16	48.33	117.55	# c,n,hn
  17	39.4	107.58	# hc,c3,hc
  18	70.89	107.36	# f,c3,f
  19	66.11	109.24	# c3,c3,f
  20	46.25	110.22	# c3,c3,h2
  21	51.15	108.79	# f,c3,h2
  22	63.39	120.69	# c,n,c3
  23	65.91	111.61	# c3,c3,n
  24	69.52	110.41	# f,c3,n
  25	46.8	110.47	# ca,c3,hc

Dihedral Coeffs

   1	2	2.5	2	180	2.0	1	0	# hn,n,c,o
   2	1	3.625	2	180	# X,ca,ca,X
   3	1	0.16	3	0	# hc,c3,c3,c3
   4	1	1.0	2	180	# X,c,ca,X
   5	1	0.15555555555555556	3	0	# X,c3,c3,X
   6	1	0.0	2	0	# X,c3,ca,X
   7	1	2.5	2	180	# X,c,n,X
   8	1	0.45	2	180	# X,ca,n,X
   9	3	0.18	3	0	0.25	2	180	0.2	1	180	# c3,c3,c3,c3
  10	2	0.0	3	0	0.19	1	0	# hc,c3,c3,f
  11	4	0.5	4	180	0.15	3	180	0.0	2	0	0.53	1	0	# c3,c3,n,c
  12	1	0.0	2	0	# X,c3,n,X

Improper Coeffs

   1	10.5	-1	2	# c,X,X,o
   2	1.1	-1	2	# ca,X,X,ha
   3	1.1	-1	2	# ca,ca,ca,c3
   4	1.1	-1	2	# n,X,X,hn

Atoms

   1	1	1	0.463181	-54.2384	37.1707	67.6233
   2	1	2	0.074399	-55.3184	37.3227	68.4768
   3	1	3	0.034296	-54.7486	37.958	69.6998
   4	1	2	0.051625	-53.035	37.6173	68.2301
   5	1	3	0.019035	-53.4088	38.2278	69.5486
   6	1	5	-0.389616	-56.4741	36.961	68.3171
   7	1	5	-0.380104	-51.8972	37.4718	67.82
   8	1	3	-0.045097	-55.4149	38.2729	70.8874
   9	1	3	-0.056032	-52.7139	38.9738	70.5324
  10	1	3	-0.174781	-53.4311	39.4114	71.6809
  11	1	3	-0.129342	-54.806	39.0989	71.8667
  12	1	6	0.168842	-56.4242	37.9085	70.9901
  13	1	6	0.15893	-51.6593	39.2035	70.4116
  14	1	6	0.147704	-52.9154	40.0035	72.433
  15	1	2	0.584577	-55.588	39.6413	73.0742
  16	1	3	-0.046755	-56.9777	39.1056	73.4062
  17	1	3	-0.110868	-57.2358	38.6274	74.7128
  18	1	3	-0.046132	-58.4445	37.9618	74.9601
  19	1	3	-0.135873	-58.0246	39.0562	72.4463
  20	1	3	-0.117662	-59.2553	38.4286	72.7237
  21	1	3	-0.064457	-59.4128	37.8573	73.9879
  22	1	2	0.492569	-60.5755	37.1619	74.5699
  23	1	1	-0.072087	-60.2094	36.7778	75.8421
  24	1	2	0.477555	-58.9625	37.2838	76.1788
  25	1	3	0.042617	-60.8998	35.7571	76.5643
  26	1	3	-0.20367	-60.2671	34.5164	76.7433
  27	1	3	-0.057018	-60.9046	33.4569	77.4147
  28	1	3	-0.18182	-62.2118	35.9119	77.041
  29	1	3	-0.14326	-62.8606	34.8365	77.6896
  30	1	3	0.043342	-62.2179	33.5902	77.8952
  31	1	6	0.163244	-59.2544	34.3718	76.3751
  32	1	6	0.101178	-60.3633	32.5287	77.5711
  33	1	6	0.165346	-60.049	38.3635	71.9806
  34	1	6	0.135111	-57.8805	39.5063	71.4639
  35	1	6	0.171751	-56.4801	38.6958	75.4922
  36	1	5	-0.478239	-58.3626	37.1444	77.2252
  37	1	5	-0.481107	-61.5951	36.8977	73.9746
  38	1	5	-0.49957	-55.0159	40.3445	73.889
  39	1	6	0.151248	-62.7435	36.8472	76.8839
  40	1	6	0.146138	-63.8798	34.9915	78.0334
  41	1	7	0.044043	-62.8453	32.4612	78.7464
  42	1	7	-0.215975	-62.7618	31.0842	78.0341
  43	1	8	0.063789	-61.7384	30.6926	78.0407
  44	1	8	0.072206	-63.0913	31.1662	76.9915
  45	1	8	0.045489	-63.4045	30.3458	78.5283
  46	1	7	0.005306	-62.1866	32.4663	80.1687
  47	1	7	0.164932	-63.0175	33.4493	81.0473
  48	1	8	0.005277	-61.1262	32.7425	80.1411
  49	1	8	0.017604	-62.2382	31.4546	80.5928
  50	1	3	0.008363	-64.371	33.4398	80.337
  51	1	7	-0.151488	-62.3644	34.8452	81.1669
  52	1	7	-0.269275	-63.1016	32.9169	82.475
  53	1	3	0.096378	-64.2812	32.7865	79.1137
  54	1	8	0.063418	-63.5008	31.8953	82.4981
  55	1	8	0.061085	-63.7591	33.5514	83.085
  56	1	8	0.065045	-62.103	32.9086	82.9332
  57	1	3	-0.142025	-65.6109	33.9481	80.7567
  58	1	3	-0.448546	-65.4105	32.5435	78.3163
  59	1	3	0.277842	-66.6626	33.0012	78.7398
  60	1	3	-0.409063	-66.7461	33.7492	79.9305
  61	1	6	0.203923	-65.3151	32.0364	77.364
  62	1	8	0.016419	-62.3086	35.3578	80.2022
  63	1	8	0.049665	-61.3438	34.7646	81.5656
  64	1	8	0.035794	-62.9369	35.4816	81.8535
  65	1	6	0.161583	-65.6878	34.4767	81.7044
  66	1	6	0.199011	-67.7167	34.1234	80.2445
  67	1	1	0.463181	-36.442	34.9177	58.2227
  68	1	2	0.074399	-37.5801	34.6302	57.5074
  69	1	3	0.034296	-38.5948	35.6005	58.0307
  70	1	2	0.051625	-36.6076	35.974	59.1143
  71	1	3	0.019035	-38.0075	36.4358	58.9625
  72	1	5	-0.389616	-37.7822	33.6827	56.7725
  73	1	5	-0.380104	-35.8731	36.2757	60.0343
  74	1	3	-0.045097	-39.9887	35.5886	57.8698
  75	1	3	-0.056032	-38.7336	37.4059	59.6696
  76	1	3	-0.174781	-40.1339	37.4145	59.4971
  77	1	3	-0.129342	-40.774	36.4744	58.6407
  78	1	6	0.168842	-40.4542	34.8918	57.1744
  79	1	6	0.15893	-38.2398	38.0705	60.3762
  80	1	6	0.147704	-40.7266	38.1575	60.0275
  81	1	2	0.584577	-42.2658	36.4956	58.3722
  82	1	3	-0.046755	-43.2793	36.2895	59.4817
  83	1	3	-0.110868	-44.5454	36.8807	59.3537
  84	1	3	-0.046132	-45.4677	36.7144	60.3831
  85	1	3	-0.135873	-43.0184	35.4576	60.6039
  86	1	3	-0.117662	-44.0034	35.2448	61.6082
  87	1	3	-0.064457	-45.2287	35.9371	61.4936
  88	1	2	0.492569	-46.5284	35.892	62.2678
  89	1	1	-0.072087	-47.4502	36.6653	61.5514
  90	1	2	0.477555	-46.8601	37.1845	60.4149
  91	1	3	0.042617	-48.861	36.7643	61.803
  92	1	3	-0.20367	-49.7884	37.0359	60.7667
  93	1	3	-0.057018	-51.1484	37.2145	61.0583
  94	1	3	-0.18182	-49.3708	36.5685	63.1032
  95	1	3	-0.14326	-50.741	36.686	63.3829
  96	1	3	0.043342	-51.6527	37.0748	62.3714
  97	1	6	0.163244	-49.4991	37.1325	59.7251
  98	1	6	0.101178	-51.7954	37.5463	60.2558
  99	1	6	0.165346	-43.8218	34.604	62.4681
 100	1	6	0.135111	-42.0536	34.9627	60.6969
 101	1	6	0.171751	-44.8122	37.4468	58.4616
 102	1	5	-0.478239	-47.3498	37.8811	59.5492
 103	1	5	-0.481107	-46.7389	35.2321	63.2693
 104	1	5	-0.49957	-42.6047	36.7586	57.2283
 105	1	6	0.151248	-48.7097	36.3549	63.9364
 106	1	6	0.146138	-51.0776	36.586	64.4121
 107	1	7	0.044043	-53.0475	37.6753	62.7285
 108	1	7	-0.215975	-52.7791	39.1749	63.0239
 109	1	8	0.063789	-53.6886	39.7054	63.3353
 110	1	8	0.072206	-52.383	39.6913	62.1407
 111	1	8	0.045489	-52.0461	39.2753	63.8313
 112	1	7	0.005306	-54.1924	37.4694	61.6654
 113	1	7	0.164932	-55.0658	36.2313	62.0793
 114	1	8	0.005277	-53.849	37.3584	60.6335
 115	1	8	0.017604	-54.8373	38.3615	61.6586
 116	1	3	0.008363	-54.7597	36.1174	63.5421
 117	1	7	-0.151488	-54.6413	34.9494	61.317
 118	1	7	-0.269275	-56.566	36.5237	61.8309
 119	1	3	0.096378	-53.7274	36.9854	63.9069
 120	1	8	0.063418	-56.8984	37.3923	62.4115
 121	1	8	0.061085	-57.1949	35.6651	62.0942
 122	1	8	0.065045	-56.7488	36.741	60.7707
 123	1	3	-0.142025	-55.5041	35.3984	64.4909
 124	1	3	-0.448546	-53.5639	37.3089	65.2618
 125	1	3	0.277842	-54.3727	36.7179	66.2576
 126	1	3	-0.409063	-55.3158	35.7285	65.8506
 127	1	6	0.203923	-52.8602	38.0843	65.5437
 128	1	8	0.016419	-55.2613	34.0888	61.6073
 129	1	8	0.049665	-53.5932	34.7104	61.5502
 130	1	8	0.035794	-54.7264	35.0853	60.2269
 131	1	6	0.161583	-56.2678	34.691	64.1822
 132	1	6	0.199011	-55.9428	35.2458	66.6001
 133	1	1	0.463181	-17.1254	28.8735	50.2324
 134	1	2	0.074399	-17.4052	29.1195	51.5876
 135	1	3	0.034296	-18.633	29.9564	51.5843
 136	1	2	0.051625	-17.9424	29.6384	49.4027
 137	1	3	0.019035	-18.9927	30.2212	50.2829
 138	1	5	-0.389616	-16.9083	28.6369	52.5965
 139	1	5	-0.380104	-17.7625	29.8912	48.229
 140	1	3	-0.045097	-19.4962	30.2269	52.6511
 141	1	3	-0.056032	-20.295	30.66	49.9795
 142	1	3	-0.174781	-21.1877	30.9182	51.0391
 143	1	3	-0.129342	-20.775	30.7856	52.387
 144	1	6	0.168842	-19.1981	29.9637	53.6644
 145	1	6	0.15893	-20.6142	30.7621	48.9456
 146	1	6	0.147704	-22.1982	31.2155	50.7864
 147	1	2	0.584577	-21.6703	31.1272	53.5727
 148	1	3	-0.046755	-23.0673	31.6629	53.4501
 149	1	3	-0.110868	-23.968	31.2632	54.4655
 150	1	3	-0.046132	-25.2561	31.7918	54.455
 151	1	3	-0.135873	-23.4683	32.614	52.4768
 152	1	3	-0.117662	-24.7828	33.1098	52.4852
 153	1	3	-0.064457	-25.678	32.6672	53.4774
 154	1	2	0.492569	-27.1246	33.0185	53.7309
 155	1	1	-0.072087	-27.4597	32.3289	54.8982
 156	1	2	0.477555	-26.4008	31.5705	55.3608
 157	1	3	0.042617	-28.74	32.2243	55.4971
 158	1	3	-0.20367	-29.4177	33.2895	56.1171
 159	1	3	-0.057018	-30.7522	33.124	56.5428
 160	1	3	-0.18182	-29.3621	30.9893	55.3468
 161	1	3	-0.14326	-30.7043	30.8446	55.7078
 162	1	3	0.043342	-31.4172	31.8874	56.3445
 163	1	6	0.163244	-28.9408	34.2603	56.1877
 164	1	6	0.101178	-31.2662	33.9688	56.9982
 165	1	6	0.165346	-25.1181	33.8208	51.7345
 166	1	6	0.135111	-22.7481	33.019	51.7679
 167	1	6	0.171751	-23.6771	30.5548	55.2485
 168	1	5	-0.478239	-26.4485	30.7438	56.2415
 169	1	5	-0.481107	-27.8402	33.7136	53.0227
 170	1	5	-0.49957	-21.2782	30.8777	54.7014
 171	1	6	0.151248	-28.8229	30.1643	54.8797
 172	1	6	0.146138	-31.1723	29.9018	55.4657
 173	1	7	0.044043	-32.9233	31.6576	56.6276
 174	1	7	-0.215975	-33.6919	31.7156	55.2643
 175	1	8	0.063789	-33.5653	32.695	54.8041
 176	1	8	0.072206	-34.7695	31.589	55.4303
 177	1	8	0.045489	-33.3465	30.9396	54.568
 178	1	7	0.005306	-33.078	30.2641	57.3426
 179	1	7	0.164932	-33.0277	30.5323	58.869
 180	1	8	0.005277	-32.3438	29.5024	57.0587
 181	1	8	0.017604	-34.0652	29.8476	57.0978
 182	1	3	0.008363	-33.6538	31.908	58.9207
 183	1	7	-0.151488	-31.5956	30.6483	59.4558
 184	1	7	-0.269275	-33.8417	29.4609	59.6486
 185	1	3	0.096378	-33.576	32.5612	57.6895
 186	1	8	0.063418	-33.5483	28.4358	59.4018
 187	1	8	0.061085	-34.9071	29.545	59.4075
 188	1	8	0.065045	-33.7369	29.5816	60.7322
 189	1	3	-0.142025	-34.4167	32.4116	59.9773
 190	1	3	-0.448546	-34.4215	33.6533	57.4204
 191	1	3	0.277842	-35.3586	34.0295	58.4109
 192	1	3	-0.409063	-35.3036	33.4464	59.6971
 193	1	6	0.203923	-34.5009	34.0661	56.4195
 194	1	8	0.016419	-31.1587	31.6273	59.2335
 195	1	8	0.049665	-30.9337	29.8695	59.0531
 196	1	8	0.035794	-31.5951	30.5391	60.5518
 197	1	6	0.161583	-34.4507	31.889	60.93
 198	1	6	0.199011	-36.0061	33.7448	60.4719
 199	1	7	0.070548	-14.8167	28.17	49.3171
 200	1	7	0.506757	-16.291	27.7641	49.6749
 201	1	8	-0.012767	-14.3114	28.5555	50.2101
 202	1	8	-0.014806	-14.8461	29.0306	48.6331
 203	1	9	-0.274996	-16.9537	27.2352	48.6023
 204	1	9	-0.274736	-16.255	26.7755	50.5942
 205	1	7	0.070548	-12.8467	27.5078	47.7568
 206	1	7	0.506757	-13.9624	27.0153	48.6989
 207	1	8	-0.012767	-12.3541	28.375	48.2277
 208	1	8	-0.014806	-13.3137	27.8924	46.8367
 209	1	9	-0.274996	-14.7489	26.2181	47.9558
 210	1	9	-0.274736	-13.4779	26.2512	49.703
 211	1	7	0.070548	-12.1589	25.1718	46.6339
 212	1	7	0.506757	-11.7424	26.4757	47.3787
 213	1	8	-0.012767	-13.1201	24.7994	47.0049
 214	1	8	-0.014806	-12.3445	25.4141	45.5764
 215	1	9	-0.274996	-10.989	27.144	46.4611
 216	1	9	-0.274736	-10.9824	26.2111	48.472
 217	1	7	0.070548	-11.2144	22.9405	45.5465
 218	1	7	0.506757	-11.1339	24.0017	46.7292
 219	1	8	-0.012767	-12.2285	22.5255	45.5035
 220	1	8	-0.014806	-11.08	23.501	44.6142
 221	1	9	-0.274996	-11.3757	23.3852	47.9126
 222	1	9	-0.274736	-9.86578	24.4776	46.8042
 223	1	1	0.463181	-1.98564	4.85673	36.5357
 224	1	2	0.074399	-3.2516	5.40064	36.2896
 225	1	3	0.034296	-3.22228	6.79646	36.8108
 226	1	2	0.051625	-1.12706	5.8104	37.1063
 227	1	3	0.019035	-1.96501	7.03734	37.3277
 228	1	5	-0.389616	-4.22629	4.82884	35.8301
 229	1	5	-0.380104	0.0134449	5.65746	37.5063
 230	1	3	-0.045097	-4.2529	7.73698	36.9226
 231	1	3	-0.056032	-1.67337	8.26233	37.964
 232	1	3	-0.174781	-2.6955	9.23958	38.0764
 233	1	3	-0.129342	-3.99442	8.98712	37.5523
 234	1	6	0.168842	-5.24579	7.47386	36.5674
 235	1	6	0.15893	-0.691871	8.44069	38.3969
 236	1	6	0.147704	-2.49138	10.1849	38.5773
 237	1	2	0.584577	-5.17192	9.94485	37.7746
 238	1	3	-0.046755	-5.03768	11.4416	38.1071
 239	1	3	-0.110868	-5.95586	12.0317	39.0125
 240	1	3	-0.046132	-5.98924	13.4296	39.1886
 241	1	3	-0.135873	-4.20573	12.3232	37.3669
 242	1	3	-0.117662	-4.26312	13.7251	37.5415
 243	1	3	-0.064457	-5.19744	14.2616	38.4405
 244	1	2	0.492569	-5.41411	15.6546	38.8982
 245	1	1	-0.072087	-6.29706	15.5838	40.0007
 246	1	2	0.477555	-6.73353	14.2643	40.1841
 247	1	3	0.042617	-6.63872	16.7252	40.818
 248	1	3	-0.20367	-7.92968	17.0334	41.3369
 249	1	3	-0.057018	-8.15912	18.2066	42.1056
 250	1	3	-0.18182	-5.609	17.6484	41.0782
 251	1	3	-0.14326	-5.85096	18.8272	41.7946
 252	1	3	0.043342	-7.10161	19.1044	42.3867
 253	1	6	0.163244	-8.76699	16.366	41.1438
 254	1	6	0.101178	-9.14092	18.3918	42.5356
 255	1	6	0.165346	-3.61309	14.3827	36.9723
 256	1	6	0.135111	-3.51687	11.9141	36.6268
 257	1	6	0.171751	-6.62766	11.4047	39.5911
 258	1	5	-0.478239	-7.50297	13.8082	41.0118
 259	1	5	-0.481107	-4.86804	16.6199	38.3887
 260	1	5	-0.49957	-6.30328	9.52506	37.5607
 261	1	6	0.151248	-4.6061	17.4889	40.6915
 262	1	6	0.146138	-5.01244	19.5053	41.9238
 263	1	7	0.044043	-7.14637	20.3023	43.392
 264	1	7	-0.215975	-6.77649	21.608	42.629
 265	1	8	0.063789	-5.81617	21.5165	42.1085
 266	1	8	0.072206	-6.70267	22.466	43.3095
 267	1	8	0.045489	-7.53684	21.847	41.874
 268	1	7	0.005306	-6.09139	19.965	44.4864
 269	1	7	0.164932	-6.81808	19.1851	45.618
 270	1	8	0.005277	-5.76873	20.922	44.9164
 271	1	8	0.017604	-5.17711	19.4681	44.1475
 272	1	3	0.008363	-8.18886	19.7978	45.5623
 273	1	7	-0.151488	-6.11909	19.4552	46.9704
 274	1	7	-0.269275	-6.84779	17.6535	45.4468
 275	1	3	0.096378	-8.36302	20.4918	44.3618
 276	1	8	0.063418	-7.52938	17.1868	46.175
 277	1	8	0.061085	-5.84496	17.2509	45.6385
 278	1	8	0.065045	-7.15202	17.3528	44.4402
 279	1	3	-0.142025	-9.05948	19.9385	46.6558
 280	1	3	-0.448546	-9.31733	21.5514	44.373
 281	1	3	0.277842	-10.1694	21.7942	45.5131
 282	1	3	-0.409063	-10.0932	20.8955	46.5979
 283	1	6	0.203923	-9.37364	22.2107	43.5149
 284	1	8	0.016419	-6.5252	18.816	47.7567
 285	1	8	0.049665	-6.24711	20.4967	47.2766
 286	1	8	0.035794	-5.04651	19.2592	46.8709
 287	1	6	0.161583	-8.88271	19.3815	47.5755
 288	1	6	0.199011	-10.7358	21.0211	47.4708
 289	1	1	0.463181	6.92823	-12.2937	25.5977
 290	1	2	0.074399	6.56431	-12.5191	26.9227
 291	1	3	0.034296	6.14664	-11.1849	27.467
 292	1	2	0.051625	6.70473	-10.9842	25.1889
 293	1	3	0.019035	6.21136	-10.2852	26.4215
 294	1	5	-0.389616	6.47158	-13.5926	27.4953
 295	1	5	-0.380104	7.00624	-10.5084	24.1038
 296	1	3	-0.045097	5.8029	-10.7613	28.7786
 297	1	3	-0.056032	5.86975	-8.93812	26.6295
 298	1	3	-0.174781	5.3614	-8.53774	27.8891
 299	1	3	-0.129342	5.35852	-9.41776	29.0027
 300	1	6	0.168842	5.82191	-11.4917	29.5888
 301	1	6	0.15893	5.94077	-8.21704	25.8183
 302	1	6	0.147704	5.01105	-7.51618	27.9849
 303	1	2	0.584577	4.91146	-8.97381	30.3997
 304	1	3	-0.046755	4.66218	-7.51493	30.7513
 305	1	3	-0.110868	3.58971	-7.1302	31.6163
 306	1	3	-0.046132	3.38074	-5.76062	31.903
 307	1	3	-0.135873	5.53607	-6.50412	30.2643
 308	1	3	-0.117662	5.27052	-5.14694	30.5066
 309	1	3	-0.064457	4.18515	-4.79537	31.3249
 310	1	2	0.492569	3.65534	-3.45872	31.6702
 311	1	1	-0.072087	2.5493	-3.67821	32.4841
 312	1	2	0.477555	2.32322	-5.04724	32.6906
 313	1	3	0.042617	1.61051	-2.64763	32.8663
 314	1	3	-0.20367	1.94294	-1.64567	33.7971
 315	1	3	-0.057018	0.984435	-0.674591	34.216
 316	1	3	-0.18182	0.31638	-2.62971	32.3251
 317	1	3	-0.14326	-0.604959	-1.62881	32.6986
 318	1	3	0.043342	-0.335181	-0.649574	33.6904
 319	1	6	0.163244	2.9468	-1.63741	34.201
 320	1	6	0.101178	1.2596	0.0488924	34.975
 321	1	6	0.165346	5.90915	-4.38586	30.0669
 322	1	6	0.135111	6.40506	-6.76566	29.6591
 323	1	6	0.171751	2.9284	-7.87359	32.0656
 324	1	5	-0.478239	1.45443	-5.56409	33.3775
 325	1	5	-0.481107	3.98164	-2.41837	31.1304
 326	1	5	-0.49957	4.71579	-9.8161	31.2499
 327	1	6	0.151248	0.0233603	-3.39781	31.6079
 328	1	6	0.146138	-1.59864	-1.68358	32.269
 329	1	7	0.044043	-1.55875	0.239575	34.1756
 330	1	7	-0.215975	-2.23173	0.956305	32.9537
 331	1	8	0.063789	-2.58355	0.265302	32.1864
 332	1	8	0.072206	-1.52265	1.62369	32.4594
 333	1	8	0.045489	-3.09035	1.56905	33.2643
 334	1	7	0.005306	-2.59826	-0.745301	34.8016
 335	1	7	0.164932	-2.34467	-0.821235	36.3313
 336	1	8	0.005277	-2.62217	-1.74116	34.3469
 337	1	8	0.017604	-3.6019	-0.322729	34.6527
 338	1	3	0.008363	-1.93879	0.625643	36.5547
 339	1	7	-0.151488	-1.18244	-1.77926	36.7093
 340	1	7	-0.269275	-3.62351	-1.28072	37.0982
 341	1	3	0.096378	-1.48255	1.24369	35.3832
 342	1	8	0.063418	-4.46258	-0.599878	36.9105
 343	1	8	0.061085	-3.42395	-1.29464	38.179
 344	1	8	0.065045	-3.93277	-2.29091	36.7914
 345	1	3	-0.142025	-2.191	1.34258	37.7311
 346	1	3	-0.448546	-1.41066	2.67503	35.3602
 347	1	3	0.277842	-1.75072	3.43194	36.541
 348	1	3	-0.409063	-2.09556	2.73777	37.7397
 349	1	6	0.203923	-1.21971	3.19564	34.4246
 350	1	8	0.016419	-0.217242	-1.41576	36.3572
 351	1	8	0.049665	-1.36012	-2.78483	36.2962
 352	1	8	0.035794	-1.08102	-1.86357	37.7964
 353	1	6	0.161583	-2.55489	0.825265	38.6139
 354	1	6	0.199011	-2.34386	3.28411	38.6472
 355	1	7	0.070548	6.31284	-13.6869	23.5904
 356	1	7	0.506757	7.39679	-13.3954	24.6695
 357	1	8	-0.012767	6.31698	-12.8566	22.8699
 358	1	8	-0.014806	5.32839	-13.6755	24.0767
 359	1	9	-0.274996	8.53801	-13.1112	24.0152
 360	1	9	-0.274736	7.72357	-14.5409	25.3177
 361	1	7	0.070548	7.9302	-15.3841	22.3095
 362	1	7	0.506757	6.49372	-15.0442	22.817
 363	1	8	-0.012767	8.31584	-14.5291	21.7259
 364	1	8	-0.014806	8.62041	-15.5336	23.1481
 365	1	9	-0.274996	5.67179	-15.0363	21.7511
 366	1	9	-0.274736	6.02819	-16.051	23.5789
 367	1	1	0.463181	18.4025	-17.8388	5.40777
 368	1	2	0.074399	17.6583	-16.6576	5.4726
 369	1	3	0.034296	17.3601	-16.4488	6.90557
 370	1	2	0.051625	18.5296	-18.4502	6.66055
 371	1	3	0.019035	17.8625	-17.5207	7.60258
 372	1	5	-0.389616	17.2653	-15.9543	4.56414
 373	1	5	-0.380104	19.0823	-19.4966	6.96252
 374	1	3	-0.045097	16.6566	-15.4205	7.55297
 375	1	3	-0.056032	17.7575	-17.6083	8.9906
 376	1	3	-0.174781	17.0931	-16.5615	9.67146
 377	1	3	-0.129342	16.5032	-15.4748	8.96153
 378	1	6	0.168842	16.2395	-14.597	6.97852
 379	1	6	0.15893	18.1624	-18.46	9.53376
 380	1	6	0.147704	16.9775	-16.6384	10.7512
 381	1	2	0.584577	15.6151	-14.4548	9.64017
 382	1	3	-0.046755	15.0224	-14.7937	10.9878
 383	1	3	-0.110868	13.6445	-15.0924	11.1117
 384	1	3	-0.046132	13.1612	-15.4819	12.3813
 385	1	3	-0.135873	15.8393	-14.7868	12.1502
 386	1	3	-0.117662	15.3417	-15.1195	13.4189
 387	1	3	-0.064457	13.9895	-15.4791	13.4975
 388	1	2	0.492569	13.1969	-15.9303	14.6659
 389	1	1	-0.072087	11.9008	-16.1476	14.2108
 390	1	2	0.477555	11.7917	-15.8882	12.8535
 391	1	3	0.042617	10.814	-16.5713	15.049
 392	1	3	-0.20367	10.6662	-16.0317	16.3502
 393	1	3	-0.057018	9.6138	-16.4122	17.1959
 394	1	3	-0.18182	9.85358	-17.519	14.6384
 395	1	3	-0.14326	8.77458	-17.8714	15.4702
 396	1	3	0.043342	8.654	-17.3613	16.7873
 397	1	6	0.163244	11.3695	-15.2886	16.7169
 398	1	6	0.101178	9.5672	-15.9454	18.1739
 399	1	6	0.165346	15.9884	-15.1055	14.2947
 400	1	6	0.135111	16.8848	-14.5112	12.0673
 401	1	6	0.171751	12.9913	-15.0827	10.2442
 402	1	5	-0.478239	10.7948	-15.9553	12.1666
 403	1	5	-0.481107	13.655	-16.1497	15.7723
 404	1	5	-0.49957	15.1138	-13.5632	8.98594
 405	1	6	0.151248	9.89929	-17.9492	13.643
 406	1	6	0.146138	8.02669	-18.5391	15.0641
 407	1	7	0.044043	7.4167	-17.6907	17.6712
 408	1	7	-0.215975	6.2777	-16.7145	17.2937
 409	1	8	0.063789	5.96949	-16.8765	16.2501
 410	1	8	0.072206	6.60615	-15.6663	17.3882
 411	1	8	0.045489	5.41336	-16.8727	17.9498
 412	1	7	0.005306	6.9525	-19.1867	17.5807
 413	1	7	0.164932	7.69375	-19.9737	18.7226
 414	1	8	0.005277	7.0984	-19.663	16.6073
 415	1	8	0.017604	5.86902	-19.2421	17.765
 416	1	3	0.008363	7.89756	-18.8848	19.7451
 417	1	7	-0.151488	9.05219	-20.5491	18.227
 418	1	7	-0.269275	6.80288	-21.1034	19.3347
 419	1	3	0.096378	7.69835	-17.6309	19.1854
 420	1	8	0.063418	5.92083	-20.67	19.8136
 421	1	8	0.061085	7.33474	-21.693	20.0915
 422	1	8	0.065045	6.47006	-21.7944	18.5486
 423	1	3	-0.142025	8.18647	-19.0639	21.1094
 424	1	3	-0.448546	7.71132	-16.5132	20.0315
 425	1	3	0.277842	7.9575	-16.6367	21.4144
 426	1	3	-0.409063	8.2415	-17.9224	21.9224
 427	1	6	0.203923	7.5236	-15.5241	19.6192
 428	1	8	0.016419	8.89174	-21.2281	17.384
 429	1	8	0.049665	9.55418	-21.1251	19.0163
 430	1	8	0.035794	9.73428	-19.748	17.9225
 431	1	6	0.161583	8.38596	-20.0539	21.5167
 432	1	6	0.199011	8.44735	-18.0357	22.9808
 433	1	7	0.070548	17.9069	-19.1854	3.35776
 434	1	7	0.506757	18.9771	-18.3935	4.12443
 435	1	8	-0.012767	17.6075	-20.0258	3.99228
 436	1	8	-0.014806	17.0257	-18.5343	3.22607
 437	1	9	-0.274996	19.3891	-17.3651	3.35448
 438	1	9	-0.274736	20.0683	-19.1888	4.32446
 439	1	7	0.070548	18.5251	-18.68	0.835294
 440	1	7	0.506757	18.2941	-19.7528	1.93359
 441	1	8	-0.012767	17.5812	-18.0957	0.722467
 442	1	8	-0.014806	19.2825	-17.9597	1.15717
 443	1	9	-0.274996	17.2736	-20.5371	1.51927
 444	1	9	-0.274736	19.3262	-20.6029	2.03751
 445	1	7	0.070548	19.0307	-18.0483	-1.57884
 446	1	7	0.506757	18.9521	-19.2234	-0.561935
 447	1	8	-0.012767	18.0206	-17.6556	-1.733
 448	1	8	-0.014806	19.6069	-17.2232	-1.14014
 449	1	9	-0.274996	18.0886	-20.1697	-1.00046
 450	1	9	-0.274736	20.1602	-19.7875	-0.421725
 451	1	7	0.070548	19.693	-17.1545	-3.84092
 452	1	7	0.506757	19.6871	-18.3932	-2.93213
 453	1	8	-0.012767	18.6493	-16.8394	-3.9738
 454	1	8	-0.014806	20.1969	-16.3349	-3.31182
 455	1	9	-0.274996	20.9556	-18.826	-2.72386
 456	1	9	-0.274736	18.9841	-19.3852	-3.5218
 457	1	7	0.070548	20.1434	-16.0771	-6.09109
 458	1	7	0.506757	20.3844	-17.3258	-5.22034
 459	1	8	-0.012767	20.7642	-15.2557	-5.73151
 460	1	8	-0.014806	19.1002	-15.7456	-5.96488
 461	1	9	-0.274996	19.9544	-18.4413	-5.82014
 462	1	9	-0.274736	21.7094	-17.4543	-5.01495
 463	1	7	0.070548	20.5403	-14.939	-8.34581
 464	1	7	0.506757	20.3989	-16.2909	-7.58836
 465	1	8	-0.012767	20.4095	-15.1368	-9.42688
 466	1	8	-0.014806	19.7194	-14.2815	-8.04455
 467	1	9	-0.274996	21.4786	-17.079	-7.82118
 468	1	9	-0.274736	19.3097	-16.9264	-8.12827
 469	1	1	0.463181	27.4875	-9.90905	-26.5797
 470	1	2	0.074399	28.4161	-10.4923	-25.6896
 471	1	3	0.034296	27.7454	-10.3869	-24.3551
 472	1	2	0.051625	26.3323	-9.45255	-25.9529
 473	1	3	0.019035	26.4943	-9.7994	-24.5045
 474	1	5	-0.389616	29.5279	-10.9813	-25.8569
 475	1	5	-0.380104	25.3548	-8.88121	-26.3977
 476	1	3	-0.045097	28.1651	-10.7517	-23.0655
 477	1	3	-0.056032	25.628	-9.53796	-23.417
 478	1	3	-0.174781	26.0335	-9.92575	-22.1276
 479	1	3	-0.129342	27.3028	-10.5283	-21.9487
 480	1	6	0.168842	29.1399	-11.2067	-22.8975
 481	1	6	0.15893	24.6705	-9.07475	-23.5728
 482	1	6	0.147704	25.3971	-9.70676	-21.2715
 483	1	2	0.584577	27.826	-10.8941	-20.585
 484	1	3	-0.046755	26.8961	-11.2278	-19.4369
 485	1	3	-0.110868	27.3907	-11.1034	-18.1078
 486	1	3	-0.046132	26.6262	-11.5746	-17.0142
 487	1	3	-0.135873	25.6043	-11.8051	-19.5918
 488	1	3	-0.117662	24.8435	-12.2545	-18.501
 489	1	3	-0.064457	25.3935	-12.1471	-17.223
 490	1	2	0.492569	24.838	-12.5658	-15.9192
 491	1	1	-0.072087	25.8278	-12.3348	-14.9651
 492	1	2	0.477555	26.9346	-11.7347	-15.5619
 493	1	3	0.042617	25.7471	-12.7511	-13.5901
 494	1	3	-0.20367	24.6049	-12.4904	-12.8137
 495	1	3	-0.057018	24.5331	-12.945	-11.4816
 496	1	3	-0.18182	26.812	-13.4689	-13.0242
 497	1	3	-0.14326	26.7333	-13.9493	-11.7182
 498	1	3	0.043342	25.5967	-13.6859	-10.9192
 499	1	6	0.163244	23.7429	-11.9814	-13.2533
 500	1	6	0.101178	23.645	-12.705	-10.9079
 501	1	6	0.165346	23.8442	-12.6731	-18.6109
 502	1	6	0.135111	25.1744	-11.9412	-20.5814
 503	1	6	0.171751	28.3873	-10.6782	-17.9369
 504	1	5	-0.478239	27.9773	-11.4377	-15.0288
 505	1	5	-0.481107	23.7115	-12.9982	-15.7663
 506	1	5	-0.49957	29.0379	-11.0112	-20.4
 507	1	6	0.151248	27.7067	-13.6697	-13.5997
 508	1	6	0.146138	27.5744	-14.5222	-11.3288
 509	1	7	0.044043	25.5372	-14.2971	-9.48751
 510	1	7	-0.215975	25.7534	-15.8421	-9.52059
 511	1	8	0.063789	26.7594	-16.1087	-9.87579
 512	1	8	0.072206	25.0299	-16.3451	-10.1911
 513	1	8	0.045489	25.631	-16.2354	-8.51698
 514	1	7	0.005306	26.5672	-13.6263	-8.52723
 515	1	7	0.164932	25.8457	-12.5846	-7.62412
 516	1	8	0.005277	27.3811	-13.1682	-9.10084
 517	1	8	0.017604	27.0478	-14.394	-7.9048
 518	1	3	0.008363	24.3855	-12.9739	-7.79367
 519	1	7	-0.151488	26.0878	-11.1657	-8.17513
 520	1	7	-0.269275	26.3078	-12.667	-6.14237
 521	1	3	0.096378	24.2412	-13.9408	-8.77513
 522	1	8	0.063418	25.8491	-11.8839	-5.52523
 523	1	8	0.061085	27.3864	-12.5094	-6.04439
 524	1	8	0.065045	26.0132	-13.6441	-5.71329
 525	1	3	-0.142025	23.2972	-12.5834	-6.98484
 526	1	3	-0.448546	23.0032	-14.5897	-8.94007
 527	1	3	0.277842	21.8785	-14.2271	-8.14365
 528	1	3	-0.409063	22.0416	-13.1941	-7.18383
 529	1	6	0.203923	22.9016	-15.3754	-9.69049
 530	1	8	0.016419	27.1399	-10.903	-8.1037
 531	1	8	0.049665	25.5302	-10.4206	-7.5999
 532	1	8	0.035794	25.8024	-11.0785	-9.22172
 533	1	6	0.161583	23.4034	-11.844	-6.19652
 534	1	6	0.199011	21.1828	-12.9009	-6.57322
 535	1	7	0.070548	26.7784	-9.04269	-28.9212
 536	1	7	0.506757	27.7855	-9.80548	-28.0394
 537	1	8	-0.012767	26.5803	-8.05519	-28.4529
 538	1	8	-0.014806	25.8053	-9.57278	-28.8914
 539	1	9	-0.274996	27.9049	-11.0609	-28.5511
 540	1	9	-0.274736	28.9955	-9.23737	-28.2015
 541	1	7	0.070548	25.9889	-8.05536	-31.0936
 542	1	7	0.506757	27.1906	-8.74428	-30.3815
 543	1	8	-0.012767	25.0611	-8.64579	-30.9744
 544	1	8	-0.014806	25.7776	-7.11236	-30.5935
 545	1	9	-0.274996	27.5529	-9.85526	-31.0677
 546	1	9	-0.274736	28.2233	-7.88607	-30.3861
 547	1	7	0.070548	26.1547	-8.95875	-33.5613
 548	1	7	0.506757	26.1458	-7.75507	-32.6009
 549	1	8	-0.012767	25.6078	-9.79807	-33.1269
 550	1	8	-0.014806	27.1674	-9.34581	-33.699
 551	1	9	-0.274996	25.1023	-6.94208	-32.8926
 552	1	9	-0.274736	27.2395	-7.00416	-32.8119
 553	1	1	0.463181	39.6798	-11.8125	-48.2296
 554	1	2	0.074399	39.6207	-10.8133	-47.2425
 555	1	3	0.034296	38.33	-11.0518	-46.5592
 556	1	2	0.051625	38.5583	-12.6389	-48.2715
 557	1	3	0.019035	37.6898	-12.1151	-47.164
 558	1	5	-0.389616	40.3596	-9.87489	-47.0017
 559	1	5	-0.380104	38.2645	-13.4894	-49.0915
 560	1	3	-0.045097	37.7477	-10.2686	-45.543
 561	1	3	-0.056032	36.4395	-12.5305	-46.7038
 562	1	3	-0.174781	35.8327	-11.8038	-45.6491
 563	1	3	-0.129342	36.4711	-10.658	-45.0937
 564	1	6	0.168842	38.2748	-9.41785	-45.1562
 565	1	6	0.15893	35.9558	-13.3781	-47.1818
 566	1	6	0.147704	34.8747	-12.1315	-45.2519
 567	1	2	0.584577	35.8578	-9.82504	-43.9759
 568	1	3	-0.046755	34.3746	-9.62135	-43.8401
 569	1	3	-0.110868	33.904	-9.24833	-42.5571
 570	1	3	-0.046132	32.5352	-9.06128	-42.3977
 571	1	3	-0.135873	33.4656	-9.79727	-44.9169
 572	1	3	-0.117662	32.0896	-9.58836	-44.7489
 573	1	3	-0.064457	31.6613	-9.21784	-43.4571
 574	1	2	0.492569	30.2938	-8.89361	-42.9907
 575	1	1	-0.072087	30.4244	-8.66671	-41.6168
 576	1	2	0.477555	31.7482	-8.69073	-41.2066
 577	1	3	0.042617	29.3916	-8.19568	-40.778
 578	1	3	-0.20367	28.7867	-6.95942	-41.0574
 579	1	3	-0.057018	27.8435	-6.44905	-40.1882
 580	1	3	-0.18182	28.9699	-8.94545	-39.6638
 581	1	3	-0.14326	27.9414	-8.47004	-38.8383
 582	1	3	0.043342	27.4102	-7.19659	-39.0591
 583	1	6	0.163244	29.1197	-6.3966	-41.9278
 584	1	6	0.101178	27.4905	-5.44785	-40.3337
 585	1	6	0.165346	31.3607	-9.67624	-45.5537
 586	1	6	0.135111	33.8683	-10.023	-45.9153
 587	1	6	0.171751	34.5739	-9.10607	-41.7142
 588	1	5	-0.478239	32.1876	-8.43705	-40.1036
 589	1	5	-0.481107	29.308	-8.80891	-43.7136
 590	1	5	-0.49957	36.591	-9.25271	-43.1957
 591	1	6	0.151248	29.4284	-9.9091	-39.4317
 592	1	6	0.146138	27.655	-9.05732	-37.9713
 593	1	7	0.044043	26.3935	-6.51989	-38.1109
 594	1	7	-0.215975	27.0771	-5.30145	-37.4344
 595	1	8	0.063789	27.4594	-4.57234	-38.172
 596	1	8	0.072206	27.965	-5.6319	-36.8911
 597	1	8	0.045489	26.4063	-4.79521	-36.7435
 598	1	7	0.005306	25.1051	-6.14566	-38.9032
 599	1	7	0.164932	24.0869	-7.30103	-38.7632
 600	1	8	0.005277	25.2945	-5.91885	-39.9533
 601	1	8	0.017604	24.6739	-5.24876	-38.4389
 602	1	3	0.008363	24.5214	-7.88613	-37.4427
 603	1	7	-0.151488	24.2099	-8.34072	-39.9119
 604	1	7	-0.269275	22.626	-6.7979	-38.6884
 605	1	3	0.096378	25.7857	-7.46517	-37.0811
 606	1	8	0.063418	22.5048	-6.1416	-37.8171
 607	1	8	0.061085	21.8978	-7.60854	-38.6203
 608	1	8	0.065045	22.3781	-6.20539	-39.58
 609	1	3	-0.142025	23.7903	-8.75527	-36.6109
 610	1	3	-0.448546	26.3267	-7.80304	-35.8194
 611	1	3	0.277842	25.5914	-8.62487	-34.9343
 612	1	3	-0.409063	24.3587	-9.16495	-35.3831
 613	1	6	0.203923	27.2932	-7.38171	-35.5342
 614	1	8	0.016419	23.8605	-7.86866	-40.8349
 615	1	8	0.049665	23.6416	-9.23815	-39.6902
 616	1	8	0.035794	25.2512	-8.63104	-40.0214
 617	1	6	0.161583	22.8404	-9.14257	-36.9358
 618	1	6	0.199011	23.8401	-9.88257	-34.7612
 619	1	7	0.070548	40.6886	-11.1452	-50.4464
 620	1	7	0.506757	40.8416	-11.953	-49.1211
 621	1	8	-0.012767	40.0109	-10.2979	-50.3042
 622	1	8	-0.014806	40.2315	-11.7749	-51.2188
 623	1	9	-0.274996	41.1002	-13.2369	-49.4321
 624	1	9	-0.274736	41.9735	-11.597	-48.4805
 625	1	1	0.463181	49.8817	-16.4834	-68.3469
 626	1	2	0.074399	50.3197	-17.1308	-67.1733
 627	1	3	0.034296	49.4355	-16.5928	-66.0856
 628	1	2	0.051625	48.8164	-15.6194	-68.1056
 629	1	3	0.019035	48.5254	-15.705	-66.6495
 630	1	5	-0.389616	51.1699	-17.9965	-67.0362
 631	1	5	-0.380104	48.163	-14.9812	-68.921
 632	1	3	-0.045097	49.4204	-16.8918	-64.7154
 633	1	3	-0.056032	47.5409	-15.0921	-65.8587
 634	1	3	-0.174781	47.5087	-15.3856	-64.4758
 635	1	3	-0.129342	48.4779	-16.2292	-63.8759