pySIMM System Object

426 atoms
467 bonds
828 angles
1316 dihedrals
126 impropers

10 atom types
13 bond types
25 angle types
12 dihedral types
4 improper types

-52.687808 52.687808 xlo xhi
-52.687808 52.687808 ylo yhi
-52.687808 52.687808 zlo zhi

Masses

   1	12.01	# c3
   2	1.008	# hc
   3	19.0	# f
   4	1.008	# h2
   5	14.01	# n
   6	12.01	# c
   7	12.01	# ca
   8	1.008	# hn
   9	16.0	# o
  10	1.008	# ha

Pair Coeffs

   1	0.1094	3.3996695084235347	# c3
   2	0.0157	2.649532787749369	# hc
   3	0.061	3.1181455134911875	# f
   4	0.0157	2.2931733004932333	# h2
   5	0.17	3.249998523775958	# n
   6	0.086	3.3996695084235347	# c
   7	0.086	3.3996695084235347	# ca
   8	0.0157	1.069078461768407	# hn
   9	0.21	2.959921901149463	# o
  10	0.015	2.59964245953351	# ha

Bond Coeffs

   1	331.7	1.0961	# c3,h2
   2	330.6	1.0969	# c3,hc
   3	300.9	1.5375	# c3,c3
   4	356.9	1.3497	# c3,f
   5	637.7	1.2183	# c,o
   6	321.0	1.5156	# c3,ca
   7	384.2	1.4121	# ca,n
   8	403.2	1.0129	# hn,n
   9	427.6	1.3789	# c,n
  10	461.1	1.3984	# ca,ca
  11	345.9	1.4906	# c,ca
  12	345.8	1.086	# ca,ha
  13	328.7	1.4619	# c3,n

Angle Coeffs

   1	46.34	109.8	# c3,c3,hc
   2	70.89	107.36	# f,c3,f
   3	39.4	107.58	# hc,c3,hc
   4	66.11	109.24	# c3,c3,f
   5	46.25	110.22	# c3,c3,h2
   6	51.15	108.79	# f,c3,h2
   7	62.86	111.51	# c3,c3,c3
   8	64.28	120.33	# c,ca,ca
   9	63.53	120.77	# c3,ca,ca
  10	66.62	120.02	# ca,ca,ca
  11	74.22	123.05	# n,c,o
  12	63.74	127.08	# c,n,c
  13	63.15	112.07	# c3,c3,ca
  14	48.18	119.88	# ca,ca,ha
  15	67.87	120.19	# ca,ca,n
  16	68.72	122.6	# ca,c,o
  17	63.0	118.11	# ca,c,ca
  18	63.82	123.71	# c,n,ca
  19	67.68	115.25	# ca,c,n
  20	63.56	112.24	# ca,c3,ca
  21	48.33	117.55	# c,n,hn
  22	46.8	110.47	# ca,c3,hc
  23	63.39	120.69	# c,n,c3
  24	65.91	111.61	# c3,c3,n
  25	69.52	110.41	# f,c3,n

Dihedral Coeffs

   1	2	0.0	3	0	0.19	1	0	# hc,c3,c3,f
   2	1	0.15555555555555556	3	0	# X,c3,c3,X
   3	1	0.16	3	0	# hc,c3,c3,c3
   4	3	0.18	3	0	0.25	2	180	0.2	1	180	# c3,c3,c3,c3
   5	2	2.5	2	180	2.0	1	0	# hn,n,c,o
   6	1	3.625	2	180	# X,ca,ca,X
   7	1	1.0	2	180	# X,c,ca,X
   8	1	0.0	2	0	# X,c3,ca,X
   9	1	2.5	2	180	# X,c,n,X
  10	1	0.45	2	180	# X,ca,n,X
  11	4	0.5	4	180	0.15	3	180	0.0	2	0	0.53	1	0	# c3,c3,n,c
  12	1	0.0	2	0	# X,c3,n,X

Improper Coeffs

   1	10.5	-1	2	# c,X,X,o
   2	1.1	-1	2	# ca,X,X,ha
   3	1.1	-1	2	# ca,ca,ca,c3
   4	1.1	-1	2	# n,X,X,hn

Atoms

   1	1	1	0.070548	-28.7436	15.2161	0.955802
   2	1	1	0.506757	-29.7621	15.258	2.06476
   3	1	2	-0.012767	-28.9042	16.1208	0.290856
   4	1	2	-0.014806	-28.9393	14.3441	0.274776
   5	1	3	-0.274996	-30.6402	16.2517	1.96452
   6	1	3	-0.274736	-30.4799	14.1457	2.1383
   7	1	1	0.070548	-26.2917	14.3418	0.678319
   8	1	1	0.506757	-27.3437	15.0541	1.55771
   9	1	2	-0.012767	-25.3315	14.3672	1.19238
  10	1	2	-0.014806	-26.4909	13.3169	0.609331
  11	1	3	-0.274996	-27.3368	14.2965	2.69503
  12	1	3	-0.274736	-26.8952	16.2559	1.93628
  13	1	5	0.463181	-8.89183	8.97473	0.650194
  14	1	6	0.074399	-9.54393	9.26935	-0.557564
  15	1	7	0.034296	-10.5958	10.2414	-0.253962
  16	1	6	0.051625	-9.33828	9.85684	1.67458
  17	1	7	0.019035	-10.5405	10.5478	1.10306
  18	1	9	-0.389616	-9.43966	8.65989	-1.57911
  19	1	9	-0.380104	-8.99989	9.98703	2.85371
  20	1	7	-0.045097	-11.644	10.6653	-1.09507
  21	1	7	-0.056032	-11.6017	11.3411	1.683
  22	1	7	-0.174781	-12.6978	11.797	0.837527
  23	1	7	-0.129342	-12.6686	11.4423	-0.544556
  24	1	10	0.168842	-11.724	10.2381	-2.09284
  25	1	10	0.15893	-11.5937	11.6376	2.71463
  26	1	10	0.147704	-13.5467	12.3196	1.27497
  27	1	6	0.584577	-13.9349	11.4088	-1.34256
  28	1	7	-0.046755	-14.7384	12.6419	-1.5888
  29	1	7	-0.110868	-16.0355	12.5049	-2.11962
  30	1	7	-0.046132	-16.7919	13.6534	-2.21016
  31	1	7	-0.135873	-14.1941	13.9405	-1.33008
  32	1	7	-0.117662	-14.9714	15.0993	-1.48266
  33	1	7	-0.064457	-16.3225	14.9052	-1.93695
  34	1	6	0.492569	-17.4483	15.8388	-2.16841
  35	1	5	-0.072087	-18.5388	15.0617	-2.53445
  36	1	6	0.477555	-18.2158	13.7534	-2.69798
  37	1	7	0.042617	-19.82	15.6127	-2.83832
  38	1	7	-0.20367	-20.0576	16.9495	-3.24185
  39	1	7	-0.057018	-21.3672	17.4933	-3.33889
  40	1	7	-0.18182	-20.9582	14.8849	-2.41754
  41	1	7	-0.14326	-22.2901	15.4149	-2.51488
  42	1	7	0.043342	-22.5181	16.7454	-2.95527
  43	1	10	0.163244	-19.2467	17.6205	-3.41648
  44	1	10	0.101178	-21.45	18.5626	-3.59135
  45	1	10	0.165346	-14.5898	16.0788	-1.2089
  46	1	10	0.135111	-13.1365	14.0174	-0.990865
  47	1	10	0.171751	-16.4385	11.5588	-2.45462
  48	1	9	-0.478239	-18.8528	12.9478	-3.28536
  49	1	9	-0.481107	-17.4516	17.0539	-1.99358
  50	1	9	-0.49957	-14.2959	10.3219	-1.79958
  51	1	10	0.151248	-20.8225	13.8758	-2.0294
  52	1	10	0.146138	-23.1225	14.735	-2.25988
  53	1	1	0.044043	-23.8977	17.3767	-2.83803
  54	1	1	-0.215975	-23.8084	18.6168	-1.96141
  55	1	2	0.063789	-23.2831	19.5201	-2.3816
  56	1	2	0.072206	-23.2018	18.4501	-1.08048
  57	1	2	0.045489	-24.8055	18.9631	-1.65782
  58	1	1	0.005306	-24.5411	17.7704	-4.23375
  59	1	1	0.164932	-25.3632	16.5354	-4.73502
  60	1	2	0.005277	-23.8311	18.1921	-4.95858
  61	1	2	0.017604	-25.183	18.5752	-4.08517
  62	1	7	0.008363	-25.6563	15.8085	-3.41253
  63	1	1	-0.151488	-24.5622	15.7914	-5.8218
  64	1	1	-0.269275	-26.6987	17.0321	-5.36897
  65	1	7	0.096378	-24.9617	16.3833	-2.31538
  66	1	2	0.063418	-27.166	16.1996	-5.86309
  67	1	2	0.061085	-26.5282	17.8047	-6.14347
  68	1	2	0.065045	-27.3975	17.2902	-4.57045
  69	1	7	-0.142025	-26.6115	14.8329	-3.17683
  70	1	7	-0.448546	-25.1436	15.8696	-1.00735
  71	1	7	0.277842	-26.0693	14.8652	-0.778548
  72	1	7	-0.409063	-26.7824	14.3238	-1.86674
  73	1	10	0.203923	-24.5917	16.3109	-0.132425
  74	1	2	0.016419	-25.1427	14.9595	-6.26911
  75	1	2	0.049665	-23.6191	15.3379	-5.38208
  76	1	2	0.035794	-24.2742	16.5538	-6.60749
  77	1	10	0.161583	-27.1901	14.4356	-3.98208
  78	1	10	0.199011	-27.6267	13.6393	-1.69312
  79	1	5	0.463181	3.25909	-5.299	7.50984
  80	1	6	0.074399	3.19567	-3.91781	7.39797
  81	1	7	0.034296	3.1634	-3.59578	5.97158
  82	1	6	0.051625	3.27549	-5.91615	6.23196
  83	1	7	0.019035	3.24648	-4.79908	5.25806
  84	1	9	-0.389616	2.96966	-3.11898	8.29208
  85	1	9	-0.380104	3.10705	-7.09055	5.91389
  86	1	7	-0.045097	3.01785	-2.34401	5.37427
  87	1	7	-0.056032	3.29524	-4.84999	3.85267
  88	1	7	-0.174781	3.21891	-3.60963	3.2432
  89	1	7	-0.129342	3.10015	-2.40487	3.97895
  90	1	10	0.168842	2.87619	-1.40073	5.90987
  91	1	10	0.15893	3.38822	-5.81843	3.35539
  92	1	10	0.147704	3.34262	-3.60455	2.17815
  93	1	6	0.584577	2.90793	-1.14449	3.21735
  94	1	7	-0.046755	1.65261	-0.364435	3.48234
  95	1	7	-0.110868	1.66975	1.01291	3.12799
  96	1	7	-0.046132	0.48873	1.75766	3.23189
  97	1	7	-0.135873	0.425597	-0.988694	3.78102
  98	1	7	-0.117662	-0.755196	-0.260722	3.81431
  99	1	7	-0.064457	-0.693907	1.14949	3.55309
 100	1	6	0.492569	-1.84875	2.14083	3.39121
 101	1	5	-0.072087	-1.24721	3.30458	2.9187
 102	1	6	0.477555	0.158322	3.15965	2.79436
 103	1	7	0.042617	-1.96742	4.35646	2.26117
 104	1	7	-0.20367	-1.72258	4.55981	0.893208
 105	1	7	-0.057018	-2.65957	5.20389	0.076159
 106	1	7	-0.18182	-3.16651	4.91068	2.80737
 107	1	7	-0.14326	-4.09085	5.62694	1.97877
 108	1	7	0.043342	-3.90993	5.57175	0.561546
 109	1	10	0.163244	-0.956208	4.01752	0.337851
 110	1	10	0.101178	-2.51437	5.07396	-1.00628
 111	1	10	0.165346	-1.71326	-0.803834	3.92622
 112	1	10	0.135111	0.387542	-2.0374	3.9769
 113	1	10	0.171751	2.59591	1.58894	2.83612
 114	1	9	-0.478239	1.00693	3.9185	2.33798
 115	1	9	-0.481107	-3.04502	1.8995	3.55544
 116	1	9	-0.49957	3.69787	-0.808552	2.38283
 117	1	10	0.151248	-3.41388	4.79391	3.86561
 118	1	10	0.146138	-4.99472	6.08381	2.36696
 119	1	1	0.044043	-5.11538	5.75593	-0.399898
 120	1	1	-0.215975	-4.87321	6.65044	-1.65711
 121	1	2	0.063789	-4.4853	7.65375	-1.33685
 122	1	2	0.072206	-5.74593	6.74474	-2.27262
 123	1	2	0.045489	-4.07544	6.16314	-2.24205
 124	1	1	0.005306	-5.4965	4.34182	-0.906485
 125	1	1	0.164932	-6.67657	3.80472	-0.0461659
 126	1	2	0.005277	-4.66382	3.64069	-0.875868
 127	1	2	0.017604	-5.78592	4.43538	-1.96612
 128	1	7	0.008363	-7.25157	5.06987	0.592245
 129	1	1	-0.151488	-6.21103	2.89459	1.12478
 130	1	1	-0.269275	-7.73502	3.12404	-0.881541
 131	1	7	0.096378	-6.43447	6.16384	0.303534
 132	1	2	0.063418	-8.59032	2.81527	-0.244207
 133	1	2	0.061085	-7.3639	2.25641	-1.41632
 134	1	2	0.065045	-8.14751	3.84022	-1.63379
 135	1	7	-0.142025	-8.54675	5.30928	1.11161
 136	1	7	-0.448546	-6.89279	7.51018	0.453842
 137	1	7	0.277842	-8.21612	7.76396	0.875035
 138	1	7	-0.409063	-8.98501	6.64802	1.2834
 139	1	10	0.203923	-6.29147	8.31638	0.0548216
 140	1	2	0.016419	-5.56049	2.01551	0.811837
 141	1	2	0.049665	-7.14225	2.49759	1.55118
 142	1	2	0.035794	-5.67894	3.46351	1.88173
 143	1	10	0.161583	-9.15836	4.51445	1.38814
 144	1	10	0.199011	-10.0024	6.81243	1.62036
 145	1	5	0.463181	2.69926	7.08402	10.1683
 146	1	6	0.074399	3.38173	5.93391	10.5871
 147	1	7	0.034296	4.84032	6.13468	10.4324
 148	1	6	0.051625	3.629	7.93329	9.57192
 149	1	7	0.019035	4.97039	7.31565	9.75719
 150	1	9	-0.389616	2.90095	4.82507	10.9127
 151	1	9	-0.380104	3.45047	8.88082	8.84429
 152	1	7	-0.045097	5.91161	5.40678	10.9336
 153	1	7	-0.056032	6.23738	7.76319	9.36883
 154	1	7	-0.174781	7.35347	6.993	9.71117
 155	1	7	-0.129342	7.17813	5.82466	10.5075
 156	1	10	0.168842	5.74355	4.51021	11.5177
 157	1	10	0.15893	6.40049	8.68083	8.849
 158	1	10	0.147704	8.32376	7.30484	9.39106
 159	1	6	0.584577	8.38157	5.08164	11.0423
 160	1	7	-0.046755	8.26425	3.69949	11.6232
 161	1	7	-0.110868	7.51302	2.69826	10.9551
 162	1	7	-0.046132	7.47824	1.43568	11.5411
 163	1	7	-0.135873	8.92696	3.43007	12.8614
 164	1	7	-0.117662	8.92545	2.12127	13.3277
 165	1	7	-0.064457	8.21735	1.13545	12.6657
 166	1	6	0.492569	8.15307	-0.324562	12.9166
 167	1	5	-0.072087	7.41765	-0.89079	11.8939
 168	1	6	0.477555	7.00002	0.138324	10.9966
 169	1	7	0.042617	6.92454	-2.2587	11.8834
 170	1	7	-0.20367	5.56158	-2.51375	12.1966
 171	1	7	-0.057018	5.05093	-3.83434	12.2948
 172	1	7	-0.18182	7.79623	-3.37905	11.8244
 173	1	7	-0.14326	7.23993	-4.67123	11.7722
 174	1	7	0.043342	5.90096	-4.94856	12.112
 175	1	10	0.163244	4.92891	-1.67631	12.4437
 176	1	10	0.101178	3.9715	-3.92336	12.4933
 177	1	10	0.165346	9.49203	1.83964	14.213
 178	1	10	0.135111	9.44371	4.23383	13.4057
 179	1	10	0.171751	7.00488	2.95328	10.0331
 180	1	9	-0.478239	6.253	0.0438202	10.0483
 181	1	9	-0.481107	8.63613	-0.941543	13.8419
 182	1	9	-0.49957	9.46047	5.57273	10.9809
 183	1	10	0.151248	8.85538	-3.2148	11.5974
 184	1	10	0.146138	7.86044	-5.53159	11.456
 185	1	1	0.044043	5.28847	-6.40918	12.0406
 186	1	1	-0.215975	6.31674	-7.50522	11.645
 187	1	2	0.063789	6.81489	-7.22905	10.7316
 188	1	2	0.072206	5.85738	-8.53487	11.4652
 189	1	2	0.045489	7.08611	-7.58641	12.4545
 190	1	1	0.005306	4.47434	-6.85508	13.3484
 191	1	1	0.164932	3.10647	-7.43167	12.8895
 192	1	2	0.005277	4.30728	-5.98154	14.0147
 193	1	2	0.017604	4.99846	-7.59612	13.9183
 194	1	7	0.008363	2.95679	-6.87232	11.5195
 195	1	1	-0.151488	1.99628	-6.88218	13.7245
 196	1	1	-0.269275	3.19916	-8.97492	12.9228
 197	1	7	0.096378	4.18119	-6.4576	10.9757
 198	1	2	0.063418	3.36933	-9.37472	13.8911
 199	1	2	0.061085	3.9563	-9.39214	12.2126
 200	1	2	0.065045	2.26774	-9.40566	12.5519
 201	1	7	-0.142025	1.8017	-6.89595	10.6378
 202	1	7	-0.448546	4.25328	-5.92859	9.69781
 203	1	7	0.277842	3.14305	-5.89318	8.84264
 204	1	7	-0.409063	1.9159	-6.37645	9.31714
 205	1	10	0.203923	5.16739	-5.52385	9.26386
 206	1	2	0.016419	0.997501	-7.33227	13.3968
 207	1	2	0.049665	1.98301	-5.8066	13.6272
 208	1	2	0.035794	2.14627	-7.14947	14.7674
 209	1	10	0.161583	0.865064	-7.31186	11.0203
 210	1	10	0.199011	1.04048	-6.30566	8.68768
 211	1	5	0.463181	12.7462	8.88437	12.5993
 212	1	6	0.074399	12.4013	9.12604	13.9107
 213	1	7	0.034296	12.2397	7.80119	14.5607
 214	1	6	0.051625	12.8062	7.51948	12.3348
 215	1	7	0.019035	12.4475	6.80977	13.6048
 216	1	9	-0.389616	12.4566	10.1628	14.5617
 217	1	9	-0.380104	12.8764	6.97228	11.2842
 218	1	7	-0.045097	11.7083	7.5462	15.8494
 219	1	7	-0.056032	12.1711	5.4618	13.8775
 220	1	7	-0.174781	11.626	5.18683	15.165
 221	1	7	-0.129342	11.3277	6.21207	16.1073
 222	1	10	0.168842	11.5306	8.33176	16.5305
 223	1	10	0.15893	12.1636	4.79091	13.0636
 224	1	10	0.147704	11.3672	4.13056	15.3682
 225	1	6	0.584577	10.8856	5.82114	17.4676
 226	1	7	-0.046755	9.46073	6.17007	17.7743
 227	1	7	-0.110868	8.53008	6.27133	16.7589
 228	1	7	-0.046132	7.15546	6.54611	17.0689
 229	1	7	-0.135873	8.98124	6.36753	19.1292
 230	1	7	-0.117662	7.62178	6.72473	19.431
 231	1	7	-0.064457	6.72811	6.87026	18.34
 232	1	6	0.492569	5.24637	7.23539	18.2322
 233	1	5	-0.072087	4.96738	7.19108	16.8837
 234	1	6	0.477555	6.02992	6.73095	16.1478
 235	1	7	0.042617	3.71294	7.59212	16.3334
 236	1	7	-0.20367	3.68845	8.21751	15.1059
 237	1	7	-0.057018	2.46786	8.49731	14.4882
 238	1	7	-0.18182	2.4903	7.10852	16.8607
 239	1	7	-0.14326	1.27777	7.27792	16.1479
 240	1	7	0.043342	1.23141	7.96406	14.9465
 241	1	10	0.163244	4.61465	8.6023	14.6406
 242	1	10	0.101178	2.44199	9.02919	13.529
 243	1	10	0.165346	7.26051	6.80791	20.4262
 244	1	10	0.135111	9.6694	6.20686	19.9773
 245	1	10	0.171751	8.79706	6.16665	15.7256
 246	1	9	-0.478239	6.16063	6.61787	14.9154
 247	1	9	-0.481107	4.46405	7.48809	19.1524
 248	1	9	-0.49957	11.7433	5.67879	18.3265
 249	1	10	0.151248	2.4419	6.6029	17.8218
 250	1	10	0.146138	0.370097	6.86668	16.6312
 251	1	1	0.044043	-0.082782	8.13006	14.1185
 252	1	1	-0.215975	-1.05794	6.96035	14.478
 253	1	2	0.063789	-1.39324	7.07699	15.4993
 254	1	2	0.072206	-0.594965	5.97146	14.3697
 255	1	2	0.045489	-1.96595	7.02503	13.8096
 256	1	1	0.005306	-0.747585	9.51846	14.3818
 257	1	1	0.164932	-0.845626	10.2837	12.9967
 258	1	2	0.005277	-0.263011	10.1059	15.1998
 259	1	2	0.017604	-1.76944	9.46343	14.7444
 260	1	7	0.008363	-0.325897	9.27745	11.9756
 261	1	1	-0.151488	0.172209	11.4542	13.0068
 262	1	1	-0.269275	-2.29077	10.7939	12.674
 263	1	7	0.096378	0.175215	8.16349	12.6291
 264	1	2	0.063418	-2.79408	11.3153	13.4966
 265	1	2	0.061085	-3.00013	10.0007	12.5203
 266	1	2	0.065045	-2.28916	11.5347	11.8383
 267	1	7	-0.142025	-0.130578	9.42216	10.6024
 268	1	7	-0.448546	1.02785	7.28727	11.935
 269	1	7	0.277842	1.42564	7.5267	10.632
 270	1	7	-0.409063	0.76562	8.54959	9.92155
 271	1	10	0.203923	1.60758	6.51153	12.5062
 272	1	2	0.016419	0.294035	11.9695	12.044
 273	1	2	0.049665	1.18779	11.1486	13.3454
 274	1	2	0.035794	-0.134156	12.1243	13.7924
 275	1	10	0.161583	-0.530097	10.2975	10.0963
 276	1	10	0.199011	1.031	8.74788	8.88401
 277	1	5	0.463181	26.1933	1.132	2.693
 278	1	6	0.074399	25.4753	2.10381	3.31496
 279	1	7	0.034296	24.2492	2.25178	2.46577
 280	1	6	0.051625	25.6395	0.66566	1.51452
 281	1	7	0.019035	24.3968	1.4821	1.35366
 282	1	9	-0.389616	25.8174	2.6812	4.33951
 283	1	9	-0.380104	25.951	-0.220856	0.760855
 284	1	7	-0.045097	23.0961	2.96013	2.7053
 285	1	7	-0.056032	23.3949	1.43699	0.358705
 286	1	7	-0.174781	22.1719	2.17686	0.534085
 287	1	7	-0.129342	22.0047	2.89871	1.77424
 288	1	10	0.168842	23.0095	3.4612	3.71375
 289	1	10	0.15893	23.4869	0.772272	-0.530199
 290	1	10	0.147704	21.3498	1.97821	-0.145342
 291	1	6	0.584577	20.7341	3.61387	2.02198
 292	1	7	-0.046755	20.4491	4.07738	3.41544
 293	1	7	-0.110868	19.9289	5.37341	3.57737
 294	1	7	-0.046132	19.3703	5.66743	4.84656
 295	1	7	-0.135873	20.4524	3.12931	4.45324
 296	1	7	-0.117662	19.9874	3.54224	5.77823
 297	1	7	-0.064457	19.4206	4.78906	5.90535
 298	1	6	0.492569	18.8903	5.4305	7.10759
 299	1	5	-0.072087	18.4491	6.66001	6.65024
 300	1	6	0.477555	18.596	6.84985	5.29643
 301	1	7	0.042617	18.006	7.76299	7.47123
 302	1	7	-0.20367	16.6635	8.15384	7.41828
 303	1	7	-0.057018	16.2365	9.24988	8.15123
 304	1	7	-0.18182	18.8832	8.43105	8.3511
 305	1	7	-0.14326	18.3582	9.27508	9.34846
 306	1	7	0.043342	17.0568	9.81652	9.14281
 307	1	10	0.163244	15.9734	7.82096	6.69269
 308	1	10	0.101178	15.2047	9.57839	7.99435
 309	1	10	0.165346	19.8062	2.76468	6.57207
 310	1	10	0.135111	20.7913	2.13758	4.23237
 311	1	10	0.171751	19.7578	6.09563	2.7873
 312	1	9	-0.478239	18.3563	7.84845	4.61472
 313	1	9	-0.481107	18.7545	5.04424	8.25806
 314	1	9	-0.49957	19.8524	3.71164	1.17687
 315	1	10	0.151248	19.8985	8.15255	8.46672
 316	1	10	0.146138	18.9857	9.64678	10.1251
 317	1	1	0.044043	16.5261	11.0434	9.98039
 318	1	1	-0.215975	17.5269	11.4142	11.1409
 319	1	2	0.063789	18.5441	11.6793	10.7138
 320	1	2	0.072206	17.7334	10.6374	11.8583
 321	1	2	0.045489	17.1453	12.2383	11.7002
 322	1	1	0.005306	16.3568	12.2424	9.04133
 323	1	1	0.164932	15.1422	13.0591	9.52869
 324	1	2	0.005277	16.283	11.9153	7.9543
 325	1	2	0.017604	17.2387	12.8703	9.06081
 326	1	7	0.008363	14.3059	12.0146	10.1936
 327	1	1	-0.151488	14.3523	13.628	8.27787
 328	1	1	-0.269275	15.5725	14.2126	10.5115
 329	1	7	0.096378	15.074	10.8981	10.5127
 330	1	2	0.063418	14.7499	14.9323	10.6516
 331	1	2	0.061085	16.3833	14.8271	10.0766
 332	1	2	0.065045	15.8864	13.8659	11.4917
 333	1	7	-0.142025	12.9256	12.0728	10.5319
 334	1	7	-0.448546	14.54	9.85942	11.2898
 335	1	7	0.277842	13.2043	9.8821	11.6934
 336	1	7	-0.409063	12.3685	10.9506	11.2854
 337	1	10	0.203923	15.2014	9.03955	11.5291
 338	1	2	0.016419	14.9855	14.1292	7.53258
 339	1	2	0.049665	13.6495	14.4028	8.5365
 340	1	2	0.035794	13.7574	12.8112	7.85087
 341	1	10	0.161583	12.3473	12.8536	10.1303
 342	1	10	0.199011	11.3297	11.0488	11.5773
 343	1	5	0.463181	22.552	-15.9572	4.33477
 344	1	6	0.074399	23.8058	-16.1517	3.75031
 345	1	7	0.034296	24.3611	-14.7744	3.45409
 346	1	6	0.051625	22.3291	-14.5688	4.52392
 347	1	7	0.019035	23.4726	-13.8192	3.92189
 348	1	9	-0.389616	24.3054	-17.2104	3.44261
 349	1	9	-0.380104	21.313	-14.0523	4.84168
 350	1	7	-0.045097	25.5067	-14.4254	2.69742
 351	1	7	-0.056032	23.5488	-12.5008	3.47634
 352	1	7	-0.174781	24.6373	-12.134	2.6828
 353	1	7	-0.129342	25.7293	-13.0312	2.36769
 354	1	10	0.168842	26.2096	-15.1576	2.25854
 355	1	10	0.15893	22.7311	-11.7817	3.64023
 356	1	10	0.147704	24.7897	-11.1224	2.33478
 357	1	6	0.584577	27.0025	-12.5732	1.60456
 358	1	7	-0.046755	27.43	-11.1246	1.35513
 359	1	7	-0.110868	27.4461	-10.2047	2.45228
 360	1	7	-0.046132	28.2348	-9.02272	2.4211
 361	1	7	-0.135873	28.0309	-10.6419	0.112263
 362	1	7	-0.117662	28.5168	-9.24144	-0.00975838
 363	1	7	-0.064457	28.617	-8.51218	1.19137
 364	1	6	0.492569	29.0443	-7.10634	1.40008
 365	1	5	-0.072087	28.9513	-6.88994	2.76902
 366	1	6	0.477555	28.5237	-8.0241	3.48849
 367	1	7	0.042617	29.2198	-5.62038	3.33054
 368	1	7	-0.20367	30.0009	-5.51113	4.53911
 369	1	7	-0.057018	30.1422	-4.22327	5.16396
 370	1	7	-0.18182	28.6253	-4.49548	2.79875
 371	1	7	-0.14326	28.8757	-3.19511	3.33773
 372	1	7	0.043342	29.5785	-3.0434	4.52534
 373	1	10	0.163244	30.3651	-6.42913	5.02244
 374	1	10	0.101178	30.7161	-4.19254	6.08262
 375	1	10	0.165346	28.8313	-8.84625	-1.03162
 376	1	10	0.135111	28.1665	-11.2741	-0.781278
 377	1	10	0.171751	27.0103	-10.5256	3.3219
 378	1	9	-0.478239	28.3881	-8.15243	4.66691
 379	1	9	-0.481107	29.221	-6.39508	0.449101
 380	1	9	-0.49957	27.6241	-13.4846	1.05412
 381	1	10	0.151248	28.0086	-4.63527	1.97283
 382	1	10	0.146138	28.5351	-2.40299	2.76887
 383	1	1	0.044043	29.9404	-1.57075	5.00322
 384	1	1	-0.215975	29.4799	-1.31214	6.47451
 385	1	2	0.063789	28.4181	-1.68832	6.66475
 386	1	2	0.072206	29.624	-0.235043	6.81564
 387	1	2	0.045489	30.0911	-1.92351	7.13771
 388	1	1	0.005306	31.5141	-1.24133	4.84678
 389	1	1	0.164932	31.6901	0.07476	4.00616
 390	1	2	0.005277	32.0204	-2.14027	4.46833
 391	1	2	0.017604	32.0179	-1.18204	5.81819
 392	1	7	0.008363	30.2261	0.435354	3.60699
 393	1	1	-0.151488	32.7305	-0.313237	2.88848
 394	1	1	-0.269275	32.3155	1.24047	4.77497
 395	1	7	0.096378	29.2508	-0.43148	4.10464
 396	1	2	0.063418	31.6303	1.61147	5.55718
 397	1	2	0.061085	32.6743	2.04141	4.15972
 398	1	2	0.065045	33.193	0.837474	5.34649
 399	1	7	-0.142025	29.8721	1.4296	2.67868
 400	1	7	-0.448546	27.8856	-0.2066	3.86718
 401	1	7	0.277842	27.5931	0.736828	2.89065
 402	1	7	-0.409063	28.5247	1.59456	2.32929
 403	1	10	0.203923	27.1688	-0.8022	4.365
 404	1	2	0.016419	33.7823	-0.393192	3.23805
 405	1	2	0.049665	32.5696	0.489718	2.13211
 406	1	2	0.035794	32.4629	-1.27286	2.42407
 407	1	10	0.161583	30.6326	2.14723	2.25412
 408	1	10	0.199011	28.109	2.1773	1.48119
 409	1	1	0.070548	21.3516	-17.3701	6.08408
 410	1	1	0.506757	21.4467	-17.019	4.57837
 411	1	2	-0.012767	21.2733	-16.485	6.74648
 412	1	2	-0.014806	20.3188	-17.6886	6.33308
 413	1	3	-0.274996	20.2303	-16.5666	4.25124
 414	1	3	-0.274736	21.4962	-18.1614	3.84445
 415	1	1	0.070548	21.7212	-19.8371	7.05287
 416	1	1	0.506757	22.3646	-18.422	6.6662
 417	1	2	-0.012767	21.2235	-19.7554	7.97865
 418	1	2	-0.014806	20.9841	-20.0177	6.19686
 419	1	3	-0.274996	23.4078	-18.6624	5.85509
 420	1	3	-0.274736	22.7998	-17.8075	7.78054
 421	1	1	0.070548	23.9631	-20.7405	7.8886
 422	1	1	0.506757	22.6556	-21.0702	7.11159
 423	1	2	-0.012767	23.762	-19.9732	8.71186
 424	1	2	-0.014806	24.4006	-21.6649	8.3695
 425	1	3	-0.274996	22.9223	-21.5573	5.86909
 426	1	3	-0.274736	22.0497	-22.0996	7.73365

Velocities

   1	-0.00240359	-7.63973e-05	-0.00119869
   2	0.000664331	-0.004192	0.00143614
   3	0.00313816	-0.0319839	-0.0117751
   4	0.00603867	-0.0146674	-0.0179257
   5	0.00741364	-0.00802262	-0.00923987
   6	0.00259085	-0.00717947	-0.00836399
   7	0.00505062	-0.0064228	-0.00649461
   8	0.00220112	-0.000769209	-0.0036705
   9	0.00749976	-0.00071341	0.0107555
  10	0.00848962	0.00246085	-0.00227885
  11	0.00847528	0.00150632	0.00463228
  12	0.000789096	0.00174154	-0.000180294
  13	0.00276853	-0.00284262	0.00617765
  14	-0.00201199	0.00039262	0.00961089
  15	0.00270109	0.00253942	-0.00158985
  16	0.00168429	0.000938401	-0.000271522
  17	0.00211905	0.00269848	0.00639298
  18	-0.00235256	0.00993367	0.00651935
  19	0.0022505	-0.00255868	0.00238749
  20	0.00194357	0.00274763	-0.00408966
  21	0.000681054	0.00505749	0.00347283
  22	0.00244791	0.000462115	0.00555692
  23	0.00511286	0.0013691	-0.00138722
  24	-0.0182959	0.0141044	0.0119592
  25	-0.00858984	-0.0118072	0.0259961
  26	0.00708538	-0.00971459	-0.00438394
  27	-0.00199266	0.00118829	-0.0037606
  28	-0.00396598	-0.000911952	0.00459884
  29	-0.00394549	0.000544519	0.000293105
  30	0.00835746	-0.00306051	-0.00124182
  31	-0.000248691	0.000283527	0.000482162
  32	0.0026761	0.00159497	-0.0012319
  33	0.00184079	-0.00060653	-0.00349
  34	-0.000748792	0.00197488	-0.00650598
  35	-0.00218563	-0.00364507	0.00111619
  36	0.00295319	0.00319747	-0.00318342
  37	0.000516414	0.00185006	0.00376811
  38	0.00424686	0.00927183	-0.00159255
  39	-0.00411532	0.000917762	-0.00107847
  40	-0.000751581	0.000794445	-0.00328419
  41	-0.00160161	0.00700822	-0.00556007
  42	-0.00244503	-0.00364105	-0.00933954
  43	0.00294397	-0.00498326	-0.00363748
  44	-0.00226976	0.00297006	-0.0136337
  45	0.0126554	0.000983297	6.36688e-05
  46	0.00887878	0.0121893	-0.00118487
  47	0.0207885	-0.00973072	0.00806802
  48	0.00553925	-0.0010263	-0.00728378
  49	0.000429423	-0.00198222	0.00722737
  50	-0.00381605	0.00109599	0.000100552
  51	0.00454319	0.00994011	-0.00799361
  52	0.0174176	-0.0069259	-0.0180757
  53	-0.00229359	-0.00438056	-0.00438425
  54	0.00182706	-0.00100107	-0.00278922
  55	-0.0179438	0.0260308	-0.0220412
  56	0.00864918	0.00443183	0.00198095
  57	-0.0240238	0.00849735	0.00587932
  58	-0.00364916	-0.000366489	-0.0114582
  59	-0.0043268	-0.00448959	-0.00261466
  60	-0.00663103	0.00102212	0.0094171
  61	0.0012643	0.00267465	-0.00605835
  62	0.00648015	-0.00472847	0.00181136
  63	-0.000209152	-0.0120989	0.000329601
  64	-0.00654832	-0.0106643	-0.0041715
  65	0.000438184	-0.00441842	-0.00679658
  66	-0.00648846	-0.0116936	0.00896282
  67	0.00506694	-0.0226507	-0.00278986
  68	-0.00910882	-0.00551951	-0.0123546
  69	-0.000613622	-0.00391571	-0.00195474
  70	0.00397067	-0.000780595	-0.00287997
  71	0.00960423	-0.00535392	-0.0011591
  72	0.00174278	0.00241274	-0.00152224
  73	-0.00403165	0.00525441	0.00644339
  74	0.000600083	-0.0205425	0.00108677
  75	0.00688594	0.0155208	-0.00811774
  76	0.0104299	-0.00682675	-0.0356422
  77	0.00584409	-0.0383528	-0.00724753
  78	0.0171252	-0.0161608	0.0130021
  79	0.0102073	0.00376035	0.00159027
  80	0.00222512	0.00286444	0.0030465
  81	-0.0061564	0.0139074	0.00459145
  82	0.00110731	0.0086598	0.00155533
  83	0.000750414	0.00884616	-0.00235036
  84	0.00388951	-0.00310731	0.00469023
  85	0.0042149	0.00684964	0.00166484
  86	0.00622779	0.00590441	0.00578786
  87	0.000972112	-0.000647072	0.0051649
  88	0.00349502	0.00412301	-0.00219865
  89	0.00472601	0.00675796	0.00506875
  90	-0.00655446	0.0143071	-0.0107601
  91	-0.0098615	0.00607175	0.010534
  92	-0.0171552	0.0100411	0.00153406
  93	-0.00249482	0.00182589	0.00122434
  94	0.00905851	0.0119147	0.00461227
  95	0.00245679	0.0152446	0.00708002
  96	0.0063457	0.00685634	0.00910966
  97	0.00260958	0.0086516	0.00239874
  98	0.00293359	0.00843922	0.00353226
  99	-0.00280592	0.00481618	0.0062345
 100	0.00130587	0.012946	0.00111269
 101	0.00438525	0.00206959	0.000672119
 102	-0.000238345	0.0035974	0.00343282
 103	0.00534084	0.00797128	0.00205663
 104	0.00112545	0.00332078	-0.00520066
 105	-0.00608643	-0.00187238	0.00277
 106	-0.00112062	0.00659535	0.000367239
 107	-0.0044768	0.00586344	0.00228263
 108	-0.00210235	0.00312875	-0.00137828
 109	0.00179384	-0.00995897	0.00175059
 110	-0.012764	0.0245853	0.0050194
 111	0.00665189	0.0233354	-0.00578974
 112	0.0194923	-0.0139159	0.025528
 113	-0.00282491	0.0358051	-0.00260216
 114	0.00157275	0.00973909	0.00241268
 115	-0.000612821	0.00479688	-0.00550065
 116	0.000161012	0.0142878	0.00460468
 117	-0.00832625	0.0113268	0.00310826
 118	-0.0153347	-0.00437236	-0.0108594
 119	-0.00313227	0.00650184	0.00299993
 120	-0.00395287	0.00176549	0.0016039
 121	-0.0152275	0.0154421	-0.00118616
 122	0.0150963	0.0272383	-0.000808655
 123	-0.000700191	0.0196329	0.0257925
 124	0.00215189	-0.00485966	0.00434402
 125	-0.00238607	0.000880806	0.00381868
 126	0.00632544	0.0126734	0.00735734
 127	0.0123406	-0.00767091	0.0142978
 128	-0.00147805	0.00483694	0.00277754
 129	0.009946	0.00825785	-0.00189194
 130	0.00397336	0.00183192	0.0106117
 131	-0.00335419	0.00309622	0.00329344
 132	-0.0050677	-0.0130953	0.0165138
 133	0.0254086	-0.00108432	-0.0196705
 134	-0.00220829	-0.00415595	0.0291002
 135	-0.00399499	-0.00190929	-0.00239838
 136	0.00266771	-0.003117	0.00504867
 137	-0.0036683	0.00273202	0.00199993
 138	0.00519593	-0.00483062	0.00289393
 139	0.0100287	0.00872086	0.0206844
 140	0.00175413	0.0116123	0.00261361
 141	0.017308	0.0133546	0.0213137
 142	0.0200797	0.0224914	-0.0110899
 143	-0.0224178	0.00340792	0.000447351
 144	-0.00159014	0.0210071	-0.00898012
 145	0.00333045	0.00111824	0.00758905
 146	-0.000163191	0.00209562	0.00408571
 147	-0.00372466	0.0105864	0.00383766
 148	-0.00376353	-0.00112361	-0.00128056
 149	-0.000157857	0.00735254	-0.00641624
 150	0.0083842	-0.0020999	0.0140839
 151	-0.0024803	0.0104615	0.0115322
 152	-0.00322344	-0.00204272	-0.00231733
 153	-0.00200078	0.00207423	-0.00267848
 154	-0.00227943	0.000423209	0.00275644
 155	0.00365825	-0.000413875	0.00593196
 156	-0.00870559	-0.00411945	-0.0133679
 157	0.00543819	0.00816991	0.00965533
 158	0.00280018	0.00426571	-0.0133702
 159	-0.00691129	-0.00192556	-0.00355065
 160	-0.00207982	-0.000475672	0.0021803
 161	-0.00570141	-0.00340896	0.00360157
 162	-0.00409584	-0.0019554	0.0022573
 163	-0.00612277	1.3101e-05	0.00207047
 164	0.00483967	-0.00039552	0.00338756
 165	0.0014632	-0.00815633	-0.00393416
 166	0.00544815	-0.00186494	-0.00460932
 167	0.000366024	0.000826469	-0.00193737
 168	-0.00577931	0.0012622	-0.00481886
 169	0.000691387	0.00208076	0.00264654
 170	0.00317671	-0.008803	-0.00372751
 171	0.00384111	-0.00266352	-0.00110057
 172	-0.000793242	-8.98245e-05	-0.00282872
 173	0.00264841	-0.00423655	-0.0036287
 174	0.00249252	-0.00471137	0.0073658
 175	-0.0124416	0.00443648	-0.0282793
 176	0.010054	0.00486899	0.00244724
 177	0.00102334	0.00929469	-0.00549024
 178	-0.000848093	-0.0213639	-0.013996
 179	-0.0112065	-0.0133753	0.0134805
 180	0.00333747	-0.000934131	-0.00209229
 181	-0.00116489	-0.00745384	-0.00892907
 182	0.000334114	-0.00501677	-0.00671834
 183	0.00199913	-0.0160774	0.00499675
 184	0.0172475	-0.00105099	0.00387998
 185	2.10161e-05	-0.00211158	0.00214481
 186	0.00569772	-0.0016472	-0.00258846
 187	-0.00703788	-0.00645532	-0.0193914
 188	-0.0210468	-0.00262001	-0.00826609
 189	0.00817421	-0.00710194	0.0303127
 190	0.00346583	-0.00676821	0.00359046
 191	0.00479338	-0.0028345	0.0122644
 192	-0.0188582	-0.00646881	0.0132151
 193	0.00777524	0.00705481	0.0156788
 194	0.00501676	0.000899902	-0.0015603
 195	0.00145011	-0.00309164	0.00236294
 196	0.00363106	-0.00452277	-0.00223057
 197	-0.00230899	-0.00643714	0.00481704
 198	0.023298	0.00770339	0.00783055
 199	-0.0117492	-0.00968123	-0.0102015
 200	0.00433824	-0.0118658	-0.0089576
 201	0.00456641	0.00546574	0.00328174
 202	0.000734684	0.00395539	0.00884074
 203	0.010403	0.00278786	0.00506025
 204	0.00242499	0.0031906	0.00631459
 205	0.0112581	-0.00321972	0.00950283
 206	-0.0117232	-0.00712836	0.0298075
 207	0.00127704	0.0015429	-0.0128102
 208	-0.00648249	0.00945153	-0.00693046
 209	0.00034883	0.0249624	0.0159056
 210	0.017363	-6.91882e-05	0.00305986
 211	0.00306604	0.00229576	0.000409448
 212	0.00220264	-0.00526826	0.0018015
 213	-0.000217208	-0.000614977	0.00129922
 214	0.0115694	-0.00341701	0.00118425
 215	0.000897945	0.000388442	-0.000101351
 216	0.00299219	0.00138133	0.000480602
 217	-0.00582223	-0.00490839	0.00162193
 218	-0.00405484	0.00232748	-0.000411953
 219	0.00493733	-0.00127814	-0.0011897
 220	-0.00101829	0.00433971	0.00259377
 221	0.00424474	0.00257706	0.00187742
 222	0.0131187	-0.0131801	0.00588496
 223	-0.0129672	-0.00524005	0.0264091
 224	-0.0055938	0.0268319	0.00777593
 225	0.00619114	-0.00705161	-0.00511329
 226	0.00587978	-0.00393947	-0.00522936
 227	-0.00181793	-0.00640261	0.000850402
 228	-0.00169658	-0.00713141	0.00617016
 229	0.00256672	0.00731978	0.00714539
 230	0.00344635	-0.00325405	0.00250859
 231	-0.00161752	0.0056945	0.00268258
 232	0.00821592	0.00699814	0.000828421
 233	0.00296042	-3.93918e-05	0.00323214
 234	-0.00194092	-0.00884034	0.00358841
 235	0.00908404	0.00340298	0.000275548
 236	0.00139456	0.00190909	0.00281952