pySIMM System Object

444 atoms
485 bonds
865 angles
1370 dihedrals
126 impropers

10 atom types
13 bond types
25 angle types
12 dihedral types
4 improper types

-117.113652 117.113652 xlo xhi
-117.113652 117.113652 ylo yhi
-117.113652 117.113652 zlo zhi

Masses

   1	14.01	# n
   2	12.01	# c
   3	12.01	# ca
   4	1.008	# hn
   5	16.0	# o
   6	1.008	# ha
   7	12.01	# c3
   8	1.008	# hc
   9	19.0	# f
  10	1.008	# h2

Pair Coeffs

   1	0.17	3.249998523775958	# n
   2	0.086	3.3996695084235347	# c
   3	0.086	3.3996695084235347	# ca
   4	0.0157	1.069078461768407	# hn
   5	0.21	2.959921901149463	# o
   6	0.015	2.59964245953351	# ha
   7	0.1094	3.3996695084235347	# c3
   8	0.0157	2.649532787749369	# hc
   9	0.061	3.1181455134911875	# f
  10	0.0157	2.2931733004932333	# h2

Bond Coeffs

   1	637.7	1.2183	# c,o
   2	321.0	1.5156	# c3,ca
   3	384.2	1.4121	# ca,n
   4	403.2	1.0129	# hn,n
   5	330.6	1.0969	# c3,hc
   6	427.6	1.3789	# c,n
   7	461.1	1.3984	# ca,ca
   8	345.9	1.4906	# c,ca
   9	300.9	1.5375	# c3,c3
  10	345.8	1.086	# ca,ha
  11	331.7	1.0961	# c3,h2
  12	356.9	1.3497	# c3,f
  13	328.7	1.4619	# c3,n

Angle Coeffs

   1	64.28	120.33	# c,ca,ca
   2	63.53	120.77	# c3,ca,ca
   3	66.62	120.02	# ca,ca,ca
   4	74.22	123.05	# n,c,o
   5	62.86	111.51	# c3,c3,c3
   6	63.74	127.08	# c,n,c
   7	63.15	112.07	# c3,c3,ca
   8	48.18	119.88	# ca,ca,ha
   9	67.87	120.19	# ca,ca,n
  10	68.72	122.6	# ca,c,o
  11	46.34	109.8	# c3,c3,hc
  12	63.0	118.11	# ca,c,ca
  13	63.82	123.71	# c,n,ca
  14	67.68	115.25	# ca,c,n
  15	63.56	112.24	# ca,c3,ca
  16	48.33	117.55	# c,n,hn
  17	39.4	107.58	# hc,c3,hc
  18	70.89	107.36	# f,c3,f
  19	66.11	109.24	# c3,c3,f
  20	46.25	110.22	# c3,c3,h2
  21	51.15	108.79	# f,c3,h2
  22	63.39	120.69	# c,n,c3
  23	65.91	111.61	# c3,c3,n
  24	69.52	110.41	# f,c3,n
  25	46.8	110.47	# ca,c3,hc

Dihedral Coeffs

   1	2	2.5	2	180	2.0	1	0	# hn,n,c,o
   2	1	3.625	2	180	# X,ca,ca,X
   3	1	0.16	3	0	# hc,c3,c3,c3
   4	1	1.0	2	180	# X,c,ca,X
   5	1	0.15555555555555556	3	0	# X,c3,c3,X
   6	1	0.0	2	0	# X,c3,ca,X
   7	1	2.5	2	180	# X,c,n,X
   8	1	0.45	2	180	# X,ca,n,X
   9	3	0.18	3	0	0.25	2	180	0.2	1	180	# c3,c3,c3,c3
  10	2	0.0	3	0	0.19	1	0	# hc,c3,c3,f
  11	4	0.5	4	180	0.15	3	180	0.0	2	0	0.53	1	0	# c3,c3,n,c
  12	1	0.0	2	0	# X,c3,n,X

Improper Coeffs

   1	10.5	-1	2	# c,X,X,o
   2	1.1	-1	2	# ca,X,X,ha
   3	1.1	-1	2	# ca,ca,ca,c3
   4	1.1	-1	2	# n,X,X,hn

Atoms

   1	1	1	0.463181	23.1082	4.35395	-2.4124
   2	1	2	0.074399	22.5437	3.43834	-3.32653
   3	1	3	0.034296	21.3774	4.09956	-3.86394
   4	1	2	0.051625	22.2823	5.47411	-2.27048
   5	1	3	0.019035	21.1409	5.27541	-3.21237
   6	1	5	-0.389616	22.8033	2.30411	-3.66119
   7	1	5	-0.380104	22.3337	6.35817	-1.42854
   8	1	3	-0.045097	20.5636	3.62397	-4.87352
   9	1	3	-0.056032	19.9922	6.036	-3.53661
  10	1	3	-0.174781	19.212	5.64505	-4.66018
  11	1	3	-0.129342	19.4603	4.39823	-5.30859
  12	1	6	0.168842	20.8226	2.67126	-5.37661
  13	1	6	0.15893	19.7847	6.92703	-2.95715
  14	1	6	0.147704	18.4239	6.29366	-5.01032
  15	1	2	0.584577	18.6352	3.90214	-6.48867
  16	1	3	-0.046755	17.4187	4.70118	-6.96281
  17	1	3	-0.110868	16.3796	5.09492	-6.06689
  18	1	3	-0.046132	15.3835	5.94082	-6.59565
  19	1	3	-0.135873	17.2807	4.88816	-8.35736
  20	1	3	-0.117662	16.2591	5.6806	-8.87095
  21	1	3	-0.064457	15.4126	6.2813	-7.94563
  22	1	2	0.492569	14.4417	7.33106	-8.2253
  23	1	1	-0.072087	13.8134	7.60512	-7.01658
  24	1	2	0.477555	14.2971	6.75082	-5.9903
  25	1	3	0.042617	12.9167	8.72031	-6.82017
  26	1	3	-0.20367	12.5599	9.17005	-5.53438
  27	1	3	-0.057018	11.8093	10.3461	-5.36369
  28	1	3	-0.18182	12.4144	9.46526	-7.91265
  29	1	3	-0.14326	11.6979	10.6687	-7.72411
  30	1	3	0.043342	11.3799	11.1346	-6.44147
  31	1	6	0.163244	12.8934	8.65394	-4.63025
  32	1	6	0.101178	11.5528	10.6002	-4.33235
  33	1	6	0.165346	16.1248	5.82065	-9.93772
  34	1	6	0.135111	17.9978	4.46714	-9.05345
  35	1	6	0.171751	16.4048	4.86123	-4.99824
  36	1	5	-0.478239	14.1167	6.73797	-4.78151
  37	1	5	-0.481107	14.2384	7.83481	-9.30675
  38	1	5	-0.49957	19.0348	2.91779	-7.1062
  39	1	6	0.151248	12.576	9.16121	-8.93685
  40	1	6	0.146138	11.45	11.2895	-8.58047
  41	1	7	0.044043	10.6896	12.5084	-6.2501
  42	1	7	-0.215975	9.34729	12.6077	-7.06718
  43	1	8	0.063789	9.54341	12.6717	-8.1443
  44	1	8	0.072206	8.73408	13.4687	-6.74191
  45	1	8	0.045489	8.70955	11.7392	-6.90483
  46	1	7	0.005306	11.764	13.6607	-6.56575
  47	1	7	0.164932	12.1673	14.3082	-5.19423
  48	1	8	0.005277	11.3102	14.3935	-7.24888
  49	1	8	0.017604	12.636	13.2481	-7.08942
  50	1	3	0.008363	11.2136	13.7536	-4.20242
  51	1	7	-0.151488	12.1215	15.8454	-5.19851
  52	1	7	-0.269275	13.5755	13.8223	-4.78583
  53	1	3	0.096378	10.4448	12.7288	-4.75275
  54	1	8	0.063418	13.7447	12.7995	-5.11967
  55	1	8	0.061085	13.7273	13.8629	-3.69444
  56	1	8	0.065045	14.3563	14.4802	-5.22417
  57	1	3	-0.142025	11.0694	14.1422	-2.85136
  58	1	3	-0.448546	9.46408	12.0941	-3.96709
  59	1	3	0.277842	9.36319	12.3856	-2.59982
  60	1	3	-0.409063	10.1774	13.4203	-2.04749
  61	1	6	0.203923	8.83161	11.3181	-4.403
  62	1	8	0.016419	11.1549	16.2109	-5.56499
  63	1	8	0.049665	12.9245	16.2712	-5.81256
  64	1	8	0.035794	12.2223	16.2418	-4.16607
  65	1	6	0.161583	11.6572	14.9304	-2.41709
  66	1	6	0.199011	10.0565	13.7162	-1.00927
  67	1	1	0.463181	18.3971	16.4497	4.08049
  68	1	2	0.074399	19.5274	16.5264	4.8966
  69	1	3	0.034296	19.4527	15.2383	5.61756
  70	1	2	0.051625	17.6506	15.2811	4.22007
  71	1	3	0.019035	18.3406	14.5324	5.22739
  72	1	5	-0.389616	20.5399	17.2243	4.81927
  73	1	5	-0.380104	16.5988	14.9158	3.69052
  74	1	3	-0.045097	20.3817	14.7058	6.49445
  75	1	3	-0.056032	18.1499	13.1815	5.56359
  76	1	3	-0.174781	19.1512	12.5947	6.31709
  77	1	3	-0.129342	20.1974	13.3636	6.88415
  78	1	6	0.168842	21.288	15.2649	6.74759
  79	1	6	0.15893	17.3116	12.617	5.15286
  80	1	6	0.147704	19.1174	11.5131	6.4924
  81	1	2	0.584577	21.2175	12.7399	7.7853
  82	1	3	-0.046755	22.0657	11.5749	7.28254
  83	1	3	-0.110868	22.1146	11.2277	5.89361
  84	1	3	-0.046132	22.9726	10.1863	5.52121
  85	1	3	-0.135873	22.8016	10.7818	8.20234
  86	1	3	-0.117662	23.5859	9.70954	7.81202
  87	1	3	-0.064457	23.6728	9.4344	6.46459
  88	1	2	0.492569	24.4497	8.40654	5.7639
  89	1	1	-0.072087	24.1695	8.6072	4.43813
  90	1	2	0.477555	23.2903	9.62707	4.20632
  91	1	3	0.042617	24.9561	8.00652	3.4038
  92	1	3	-0.20367	24.3361	7.07847	2.56651
  93	1	3	-0.057018	24.9885	6.54214	1.48619
  94	1	3	-0.18182	26.266	8.49934	3.08512
  95	1	3	-0.14326	26.9265	7.97432	1.96773
  96	1	3	0.043342	26.2977	6.98732	1.16142
  97	1	6	0.163244	23.3143	6.7538	2.74326
  98	1	6	0.101178	24.4255	5.86865	0.87403
  99	1	6	0.165346	24.0779	9.07521	8.53639
 100	1	6	0.135111	22.7601	11.032	9.26593
 101	1	6	0.171751	21.5515	11.7719	5.1306
 102	1	5	-0.478239	22.9298	10.1303	3.15689
 103	1	5	-0.481107	25.3756	7.72989	6.20086
 104	1	5	-0.49957	21.4588	13.2683	8.84528
 105	1	6	0.151248	26.7202	9.23088	3.71491
 106	1	6	0.146138	27.8999	8.35808	1.66809
 107	1	7	0.044043	27.0868	6.45475	-0.0653699
 108	1	7	-0.215975	27.3609	7.60353	-1.08892
 109	1	8	0.063789	28.0907	8.35787	-0.666721
 110	1	8	0.072206	26.4157	8.11951	-1.31129
 111	1	8	0.045489	27.7083	7.1901	-2.0452
 112	1	7	0.005306	28.3867	5.72213	0.417141
 113	1	7	0.164932	28.1027	4.19315	0.480777
 114	1	8	0.005277	28.8885	6.13245	1.30881
 115	1	8	0.017604	29.0796	5.83616	-0.437704
 116	1	3	0.008363	26.8883	4.05404	-0.400413
 117	1	7	-0.151488	27.7737	3.65913	1.87708
 118	1	7	-0.269275	29.3391	3.49763	-0.105248
 119	1	3	0.096378	26.3376	5.29819	-0.733406
 120	1	8	0.063418	29.3242	2.42227	0.066015
 121	1	8	0.061085	30.2701	3.86784	0.351971
 122	1	8	0.065045	29.4489	3.66409	-1.19134
 123	1	3	-0.142025	26.2335	2.88302	-0.802382
 124	1	3	-0.448546	25.1532	5.40847	-1.46864
 125	1	3	0.277842	24.3829	4.25507	-1.7397
 126	1	3	-0.409063	25.0005	3.00947	-1.45454
 127	1	6	0.203923	24.777	6.39348	-1.73356
 128	1	8	0.016419	27.2358	2.65877	1.78466
 129	1	8	0.049665	27.0591	4.33292	2.39899
 130	1	8	0.035794	28.6645	3.56841	2.49412
 131	1	6	0.161583	26.5681	1.90484	-0.478982
 132	1	6	0.199011	24.4987	2.07117	-1.71207
 133	1	7	0.070548	18.7402	17.2949	1.7653
 134	1	7	0.506757	17.9845	17.4718	3.13928
 135	1	8	-0.012767	18.4419	16.3262	1.31684
 136	1	8	-0.014806	19.836	17.1713	1.92728
 137	1	9	-0.274996	18.2149	18.7304	3.56432
 138	1	9	-0.274736	16.6507	17.4012	2.9526
 139	1	1	0.463181	24.005	9.66636	-13.7979
 140	1	2	0.074399	22.9364	10.4921	-14.0913
 141	1	3	0.034296	22.1078	10.492	-12.814
 142	1	2	0.051625	24.0115	9.2355	-12.4841
 143	1	3	0.019035	22.8029	9.83599	-11.8296
 144	1	5	-0.389616	22.7353	11.1615	-15.1146
 145	1	5	-0.380104	24.7252	8.4121	-11.9548
 146	1	3	-0.045097	20.8634	11.1038	-12.4591
 147	1	3	-0.056032	22.389	9.75272	-10.4944
 148	1	3	-0.174781	21.1398	10.3371	-10.1178
 149	1	3	-0.129342	20.3514	11.0284	-11.0838
 150	1	6	0.168842	20.313	11.5823	-13.285
 151	1	6	0.15893	22.9831	9.19673	-9.76992
 152	1	6	0.147704	20.7483	10.1361	-9.16044
 153	1	2	0.584577	18.9491	11.5403	-10.8381
 154	1	3	-0.046755	18.6897	12.5287	-9.70265
 155	1	3	-0.110868	19.6954	13.4116	-9.19534
 156	1	3	-0.046132	19.2967	14.3542	-8.19266
 157	1	3	-0.135873	17.3522	12.6299	-9.23298
 158	1	3	-0.117662	16.9927	13.5401	-8.23661
 159	1	3	-0.064457	17.9942	14.3736	-7.75612
 160	1	2	0.492569	17.8416	15.499	-6.81582
 161	1	1	-0.072087	19.1331	16.0299	-6.61673
 162	1	2	0.477555	20.0478	15.4034	-7.44666
 163	1	3	0.042617	19.4247	17.0194	-5.62852
 164	1	3	-0.20367	18.7652	16.8678	-4.4024
 165	1	3	-0.057018	18.9922	17.807	-3.41685
 166	1	3	-0.18182	20.348	18.0826	-5.84552
 167	1	3	-0.14326	20.4837	19.0583	-4.83555
 168	1	3	0.043342	19.8418	18.908	-3.6088
 169	1	6	0.163244	17.9781	16.1094	-4.19845
 170	1	6	0.101178	18.4294	17.6928	-2.48824
 171	1	6	0.165346	15.9569	13.5854	-7.86683
 172	1	6	0.135111	16.5776	11.9966	-9.68062
 173	1	6	0.171751	20.681	13.5014	-9.61455
 174	1	5	-0.478239	21.2451	15.572	-7.54636
 175	1	5	-0.481107	16.7717	15.8906	-6.37139
 176	1	5	-0.49957	18.0425	11.0928	-11.5227
 177	1	6	0.151248	20.9294	18.1706	-6.79082
 178	1	6	0.146138	21.1374	19.9204	-5.01311
 179	1	7	0.044043	20.0516	19.9405	-2.49092
 180	1	7	-0.215975	21.5728	20.0717	-2.05558
 181	1	8	0.063789	21.8938	19.0846	-1.72684
 182	1	8	0.072206	21.6586	20.7444	-1.18562
 183	1	8	0.045489	22.2841	20.3865	-2.8053
 184	1	7	0.005306	19.4353	21.333	-2.92199
 185	1	7	0.164932	17.9662	21.3794	-2.44049
 186	1	8	0.005277	19.5402	21.5748	-4.00011
 187	1	8	0.017604	19.9619	22.1143	-2.34111
 188	1	3	0.008363	18.0639	20.4552	-1.22291
 189	1	7	-0.151488	16.9528	20.7126	-3.43372
 190	1	7	-0.269275	17.489	22.803	-2.14957
 191	1	3	0.096378	19.2268	19.6578	-1.25115
 192	1	8	0.063418	17.3456	23.3733	-3.1028
 193	1	8	0.061085	18.2162	23.3977	-1.57216
 194	1	8	0.065045	16.5388	22.7393	-1.67797
 195	1	3	-0.142025	17.1199	20.2674	-0.187222
 196	1	3	-0.448546	19.43	18.6172	-0.298283
 197	1	3	0.277842	18.4808	18.3926	0.709363
 198	1	3	-0.409063	17.2952	19.1834	0.714388
 199	1	6	0.203923	20.301	17.9284	-0.349469
 200	1	8	0.016419	16.8224	21.2638	-4.37893
 201	1	8	0.049665	15.9637	20.6102	-2.9854
 202	1	8	0.035794	17.2777	19.7133	-3.74523
 203	1	6	0.161583	16.2456	20.9093	-0.143069
 204	1	6	0.199011	16.565	19.0627	1.49793
 205	1	1	0.463181	24.7619	21.0824	-8.18085
 206	1	2	0.074399	25.6079	20.5317	-9.13066
 207	1	3	0.034296	26.9761	20.7064	-8.63341
 208	1	2	0.051625	25.5243	21.7165	-7.16148
 209	1	3	0.019035	26.9217	21.3585	-7.4678
 210	1	5	-0.389616	25.3133	19.9626	-10.1959
 211	1	5	-0.380104	25.126	22.3794	-6.26102
 212	1	3	-0.045097	28.1281	20.0961	-9.11485
 213	1	3	-0.056032	28.0241	21.382	-6.64326
 214	1	3	-0.174781	29.1831	20.648	-6.9873
 215	1	3	-0.129342	29.2668	20.0049	-8.23102
 216	1	6	0.168842	28.1162	19.6409	-10.0999
 217	1	6	0.15893	27.9641	21.8653	-5.69075
 218	1	6	0.147704	29.9803	20.6531	-6.26199
 219	1	2	0.584577	30.5429	19.2766	-8.47721
 220	1	3	-0.046755	30.627	18.341	-9.69738
 221	1	3	-0.110868	29.5332	17.5032	-10.0702
 222	1	3	-0.046132	29.532	16.9567	-11.3638
 223	1	3	-0.135873	31.7401	18.5063	-10.6164
 224	1	3	-0.117662	31.7561	17.7901	-11.8322
 225	1	3	-0.064457	30.6706	16.9358	-12.1604
 226	1	2	0.492569	30.4911	16.0377	-13.3514
 227	1	1	-0.072087	29.303	15.3908	-13.0619
 228	1	2	0.477555	28.6038	15.931	-11.9887
 229	1	3	0.042617	28.8113	14.34	-13.8749
 230	1	3	-0.20367	28.1534	14.7158	-15.053
 231	1	3	-0.057018	27.8967	13.7579	-16.0396
 232	1	3	-0.18182	29.0728	12.9658	-13.6111
 233	1	3	-0.14326	28.7329	12.0195	-14.5592
 234	1	3	0.043342	28.2286	12.4101	-15.8136
 235	1	6	0.163244	27.8702	15.7479	-15.2512
 236	1	6	0.101178	27.5931	14.0989	-17.0273
 237	1	6	0.165346	32.6252	17.8766	-12.478
 238	1	6	0.135111	32.5314	19.2401	-10.3392
 239	1	6	0.171751	28.6824	17.4524	-9.44875
 240	1	5	-0.478239	27.6626	15.3914	-11.4699
 241	1	5	-0.481107	31.3284	15.7652	-14.2145
 242	1	5	-0.49957	31.5635	19.511	-7.85487
 243	1	6	0.151248	29.4344	12.5966	-12.6203
 244	1	6	0.146138	28.8156	10.9685	-14.3725
 245	1	7	0.044043	27.8103	11.3074	-16.8532
 246	1	7	-0.215975	27.0632	11.9189	-18.109
 247	1	8	0.063789	26.1778	12.5437	-17.8575
 248	1	8	0.072206	26.6748	11.0903	-18.7335
 249	1	8	0.045489	27.7181	12.5144	-18.7366
 250	1	7	0.005306	28.9984	10.4704	-17.3442
 251	1	7	0.164932	28.7502	8.97551	-16.9057
 252	1	8	0.005277	29.9171	10.922	-16.8571
 253	1	8	0.017604	29.1316	10.6082	-18.3975
 254	1	3	0.008363	27.3801	9.02235	-16.3355
 255	1	7	-0.151488	29.7538	8.54653	-15.8304
 256	1	7	-0.269275	28.8351	7.94414	-18.0234
 257	1	3	0.096378	26.8687	10.3042	-16.2135
 258	1	8	0.063418	29.647	8.22613	-18.7349
 259	1	8	0.061085	27.9092	7.86342	-18.6658
 260	1	8	0.065045	29.0543	6.93133	-17.6698
 261	1	3	-0.142025	26.6869	7.90888	-15.7804
 262	1	3	-0.448546	25.7854	10.5639	-15.3587
 263	1	3	0.277842	25.0683	9.49067	-14.7553
 264	1	3	-0.409063	25.5528	8.18341	-15.0154
 265	1	6	0.203923	25.4547	11.6074	-15.2353
 266	1	8	0.016419	29.5241	7.54645	-15.4674
 267	1	8	0.049665	29.6079	9.15296	-14.9465
 268	1	8	0.035794	30.8279	8.61911	-16.1364
 269	1	6	0.161583	27.0742	6.90506	-15.8984
 270	1	6	0.199011	25.0175	7.37845	-14.5179
 271	1	7	0.070548	22.6445	21.8117	-9.39639
 272	1	7	0.506757	23.2501	20.9889	-8.22023
 273	1	8	-0.012767	23.3636	21.8649	-10.2333
 274	1	8	-0.014806	22.5314	22.8871	-9.11944
 275	1	9	-0.274996	22.6299	21.4259	-7.07752
 276	1	9	-0.274736	22.8152	19.7042	-8.20928
 277	1	7	0.070548	21.8058	20.0492	-11.1595
 278	1	7	0.506757	21.4591	21.1735	-10.1768
 279	1	8	-0.012767	22.2246	19.1706	-10.6645
 280	1	8	-0.014806	22.5908	20.4077	-11.8048
 281	1	9	-0.274996	20.4639	20.8428	-9.27789
 282	1	9	-0.274736	21.043	22.1664	-10.958
 283	1	7	0.070548	20.7726	18.2351	-12.6137
 284	1	7	0.506757	20.5461	19.653	-12.0187
 285	1	8	-0.012767	19.7931	17.7565	-12.8278
 286	1	8	-0.014806	21.251	17.6122	-11.8261
 287	1	9	-0.274996	19.3667	19.7959	-11.4007
 288	1	9	-0.274736	20.3992	20.423	-13.0939
 289	1	7	0.070548	22.5822	16.7989	-14.0296
 290	1	7	0.506757	21.6728	18.0854	-13.8496
 291	1	8	-0.012767	22.5672	16.602	-15.0955
 292	1	8	-0.014806	23.642	17.0658	-13.8792
 293	1	9	-0.274996	22.5712	19.1213	-13.8867
 294	1	9	-0.274736	20.8692	18.1747	-14.9747
 295	1	7	0.070548	22.6061	14.226	-13.9847
 296	1	7	0.506757	22.0861	15.5142	-13.3238
 297	1	8	-0.012767	22.135	13.3525	-13.53
 298	1	8	-0.014806	23.6618	14.054	-13.764
 299	1	9	-0.274996	20.7318	15.5684	-13.2522
 300	1	9	-0.274736	22.513	15.4416	-12.063
 301	1	1	0.463181	7.43724	1.5084	-13.3992
 302	1	2	0.074399	8.61043	1.18831	-14.1339
 303	1	3	0.034296	9.46679	2.39487	-13.9878
 304	1	2	0.051625	7.56521	2.75336	-12.7416
 305	1	3	0.019035	8.89838	3.28534	-13.1009
 306	1	5	-0.389616	8.89129	0.384574	-14.9808
 307	1	5	-0.380104	6.8314	3.30435	-11.8653
 308	1	3	-0.045097	10.6387	2.70727	-14.6129
 309	1	3	-0.056032	9.45765	4.48601	-12.8178
 310	1	3	-0.174781	10.6822	4.89388	-13.4246
 311	1	3	-0.129342	11.2899	3.97403	-14.3371
 312	1	6	0.168842	11.0868	2.0188	-15.3471
 313	1	6	0.15893	8.90375	5.12741	-12.1648
 314	1	6	0.147704	11.1349	5.79559	-13.099
 315	1	2	0.584577	12.5481	4.28709	-15.0771
 316	1	3	-0.046755	13.2865	5.58566	-14.8182
 317	1	3	-0.110868	13.7522	6.3392	-15.9324
 318	1	3	-0.046132	14.6591	7.35509	-15.6083
 319	1	3	-0.135873	13.8288	5.87854	-13.5349
 320	1	3	-0.117662	14.9003	6.75804	-13.3757
 321	1	3	-0.064457	15.2669	7.52542	-14.4324
 322	1	2	0.492569	16.3332	8.52807	-14.5784
 323	1	1	-0.072087	16.3722	8.89079	-15.9131
 324	1	2	0.477555	15.3297	8.25645	-16.6429
 325	1	3	0.042617	17.185	9.97809	-16.3966
 326	1	3	-0.20367	18.5832	9.7822	-16.6719
 327	1	3	-0.057018	19.3548	10.8618	-17.0647
 328	1	3	-0.18182	16.5457	11.1996	-16.7037
 329	1	3	-0.14326	17.3094	12.2279	-17.2411
 330	1	3	0.043342	18.7376	12.0874	-17.4466
 331	1	6	0.163244	19.0391	8.80379	-16.5389
 332	1	6	0.101178	20.4168	10.6604	-17.2731
 333	1	6	0.165346	15.4554	6.85161	-12.4521
 334	1	6	0.135111	13.6477	5.24009	-12.7395
 335	1	6	0.171751	13.462	6.10132	-16.9867
 336	1	5	-0.478239	14.9191	8.50506	-17.771
 337	1	5	-0.481107	17.2293	8.81695	-13.7603
 338	1	5	-0.49957	13.0162	3.42334	-15.8073
 339	1	6	0.151248	15.4806	11.3493	-16.47
 340	1	6	0.146138	16.7844	13.094	-17.5385
 341	1	7	0.044043	19.5852	13.2601	-18.0819
 342	1	7	-0.215975	18.8202	14.6891	-18.1067
 343	1	8	0.063789	19.5818	15.5072	-18.0329
 344	1	8	0.072206	18.1688	14.819	-17.2846
 345	1	8	0.045489	18.1049	14.8114	-18.9877
 346	1	7	0.005306	19.9941	12.9288	-19.5152
 347	1	7	0.164932	21.4589	13.5894	-19.6071
 348	1	8	0.005277	19.2677	13.2575	-20.2369
 349	1	8	0.017604	19.9964	11.8339	-19.6198
 350	1	3	0.008363	21.9257	13.7954	-18.1971
 351	1	7	-0.151488	21.4203	14.9691	-20.2983
 352	1	7	-0.269275	22.2785	12.551	-20.191
 353	1	3	0.096378	20.9038	13.5295	-17.3471
 354	1	8	0.063418	23.3091	12.8152	-20.0998
 355	1	8	0.061085	21.9951	12.4374	-21.2216
 356	1	8	0.065045	22.1343	11.57	-19.6789
 357	1	3	-0.142025	23.2125	14.2226	-17.7678
 358	1	3	-0.448546	21.1103	13.7196	-15.9577
 359	1	3	0.277842	22.3548	14.0842	-15.4377
 360	1	3	-0.409063	23.3876	14.3636	-16.3771
 361	1	6	0.203923	20.3244	13.4497	-15.293
 362	1	8	0.016419	22.4038	15.4986	-20.2339
 363	1	8	0.049665	20.6582	15.6091	-19.8117
 364	1	8	0.035794	21.183	14.869	-21.3861
 365	1	6	0.161583	23.9867	14.4257	-18.5236
 366	1	6	0.199011	24.3863	14.5405	-16.006
 367	1	1	0.463181	-5.43675	-7.41506	0.106017
 368	1	2	0.074399	-4.51881	-6.4227	-0.256905
 369	1	3	0.034296	-5.08279	-5.88115	-1.50811
 370	1	2	0.051625	-6.47217	-7.62166	-0.785555
 371	1	3	0.019035	-6.25595	-6.61249	-1.83166
 372	1	5	-0.389616	-3.47814	-6.13812	0.275577
 373	1	5	-0.380104	-7.32265	-8.50427	-0.885781
 374	1	3	-0.045097	-4.79253	-4.63155	-2.15678
 375	1	3	-0.056032	-7.04183	-6.13484	-2.81052
 376	1	3	-0.174781	-6.58159	-5.13309	-3.62643
 377	1	3	-0.129342	-5.50115	-4.24254	-3.29592
 378	1	6	0.168842	-3.92446	-4.02584	-1.81122
 379	1	6	0.15893	-8.0426	-6.664	-2.99645
 380	1	6	0.147704	-7.14791	-4.98697	-4.51992
 381	1	2	0.584577	-4.98831	-3.06676	-4.20128
 382	1	3	-0.046755	-3.51564	-2.87925	-4.50887
 383	1	3	-0.110868	-3.0527	-1.73913	-5.20444
 384	1	3	-0.046132	-1.78841	-1.70354	-5.7993
 385	1	3	-0.135873	-2.60764	-3.94339	-4.46269
 386	1	3	-0.117662	-1.29193	-3.86092	-4.96711
 387	1	3	-0.064457	-0.932899	-2.74241	-5.69379
 388	1	2	0.492569	0.207198	-2.44534	-6.63022
 389	1	1	-0.072087	-0.0416566	-1.19327	-7.23581
 390	1	2	0.477555	-1.1968	-0.656182	-6.71897
 391	1	3	0.042617	0.692899	-0.730864	-8.3903
 392	1	3	-0.20367	-0.0669852	-0.241962	-9.49878
 393	1	3	-0.057018	0.559883	0.16783	-10.6545
 394	1	3	-0.18182	2.09577	-0.810652	-8.49728
 395	1	3	-0.14326	2.70489	-0.422398	-9.73196
 396	1	3	0.043342	1.95064	0.0981686	-10.8481
 397	1	6	0.163244	-1.15728	-0.167787	-9.43565
 398	1	6	0.101178	-0.163936	0.534791	-11.3981
 399	1	6	0.165346	-0.65036	-4.7359	-4.79692
 400	1	6	0.135111	-2.94808	-4.85625	-3.976
 401	1	6	0.171751	-3.76363	-0.941499	-5.36886
 402	1	5	-0.478239	-1.77471	0.376622	-7.05825
 403	1	5	-0.481107	1.06295	-3.2758	-6.93705
 404	1	5	-0.49957	-5.76658	-2.24394	-4.70854
 405	1	6	0.151248	2.71182	-1.24704	-7.75527
 406	1	6	0.146138	3.76682	-0.517885	-9.84786
 407	1	7	0.044043	2.59147	0.609768	-12.1917
 408	1	7	-0.215975	2.42704	2.14356	-12.2349
 409	1	8	0.063789	1.36641	2.36641	-12.3979
 410	1	8	0.072206	2.80706	2.47937	-13.1509
 411	1	8	0.045489	2.73501	2.68134	-11.2944
 412	1	7	0.005306	1.92501	-0.247825	-13.3368
 413	1	7	0.164932	2.79218	-1.5663	-13.5448
 414	1	8	0.005277	2.0036	0.355068	-14.3146
 415	1	8	0.017604	0.900133	-0.516515	-13.2461
 416	1	3	0.008363	4.1506	-1.0658	-13.1772
 417	1	7	-0.151488	2.8073	-2.05598	-14.9906
 418	1	7	-0.269275	2.28546	-2.79081	-12.6777
 419	1	3	0.096378	4.0595	0.184046	-12.5471
 420	1	8	0.063418	1.32817	-3.19862	-12.9698
 421	1	8	0.061085	2.18432	-2.55142	-11.6061
 422	1	8	0.065045	3.06926	-3.56471	-12.7515
 423	1	3	-0.142025	5.30809	-1.58546	-13.6657
 424	1	3	-0.448546	5.07733	1.0812	-12.7245
 425	1	3	0.277842	6.33244	0.622641	-13.188
 426	1	3	-0.409063	6.42036	-0.6611	-13.714
 427	1	6	0.203923	4.93833	2.1104	-12.4158
 428	1	8	0.016419	3.45393	-2.93502	-15.2536
 429	1	8	0.049665	2.91991	-1.2661	-15.7532
 430	1	8	0.035794	1.78959	-2.45951	-15.0593
 431	1	6	0.161583	5.37954	-2.54148	-14.1439
 432	1	6	0.199011	7.34858	-1.10116	-14.0391
 433	1	7	0.070548	-3.77862	-9.14426	0.862273
 434	1	7	0.506757	-5.0115	-8.31092	1.25282
 435	1	8	-0.012767	-2.92777	-8.46385	1.1366
 436	1	8	-0.014806	-3.86478	-9.29177	-0.207589
 437	1	9	-0.274996	-4.73022	-7.60264	2.32824
 438	1	9	-0.274736	-6.08637	-8.9552	1.64744
 439	1	7	0.070548	-3.54781	-10.5623	3.18085
 440	1	7	0.506757	-3.58907	-10.4838	1.5828
 441	1	8	-0.012767	-2.61619	-10.053	3.43319
 442	1	8	-0.014806	-4.38953	-10.0139	3.59381
 443	1	9	-0.274996	-2.56415	-11.1408	0.964228
 444	1	9	-0.274736	-4.64662	-11.2281	1.21204

Velocities

   1	0.00582062	0.00220974	-0.00498673
   2	0.0035838	-0.000882492	-0.00153878
   3	0.0029128	0.00171731	-0.00234551
   4	0.00417788	8.50046e-05	0.000573791
   5	0.00292925	0.00259899	-0.00302967
   6	-0.000522084	0.000132616	-0.000586194
   7	0.0021506	0.00768164	-0.0098803
   8	0.00236854	0.00454754	-0.00306394
   9	0.0039783	0.00865679	-0.000416613
  10	0.00270196	0.00888907	0.00154147
  11	0.00151522	0.00634607	-0.00489596
  12	-0.00752607	0.00104186	-0.000116564
  13	-0.00365557	0.0155823	-0.00804092
  14	0.00592345	0.00528173	-0.00201704
  15	-0.00213062	0.0034146	-0.00303381
  16	0.00350063	0.000457734	-0.00178489
  17	0.00578577	-0.000960118	-0.00706907
  18	0.00631611	-0.000903506	0.000537764
  19	0.000946846	0.0029964	-0.00248201
  20	0.000493415	-0.00337574	-0.00192808
  21	0.0065382	0.00285146	-0.00183021
  22	0.00523246	0.00312414	-0.000775987
  23	0.00517217	-0.00155104	0.00182664
  24	0.00485981	-0.00311433	0.00180001
  25	0.00323902	0.00126408	0.00178245
  26	9.35071e-05	0.00588077	7.65853e-05
  27	0.00332969	0.00361554	0.000725278
  28	0.010583	0.00681989	-0.00590829
  29	-0.00166849	0.00494641	-0.000612829
  30	0.00358705	0.00162847	0.00176404
  31	0.0112997	0.00611199	-0.00147339
  32	-0.00136486	-0.00392098	-0.000527793
  33	-0.00267911	-0.00699872	-0.00184391
  34	-0.0101035	0.003128	-0.00669902
  35	0.0147688	0.00270787	-0.00282563
  36	0.00182341	0.00557408	0.00153174
  37	0.00330196	0.00801138	-0.000384695
  38	0.000823754	0.00486024	-0.0076241
  39	-0.00039625	0.00812457	-0.00485508
  40	-0.0121197	-0.00229736	0.00412259
  41	0.00510827	0.00678849	-0.00149068
  42	0.00625702	-0.00100462	0.0035977
  43	0.0175371	-0.00585938	0.00696537
  44	0.00874875	-0.00848716	-0.011822
  45	0.00279805	-0.00134928	-0.00648771
  46	0.00488334	0.00623076	-0.00373763
  47	0.00303841	0.00153107	-0.0032991
  48	0.00459492	0.00140392	-0.00273051
  49	-0.00130088	-0.00550303	-0.0114868
  50	0.00584566	0.00250494	-0.00205306
  51	0.00561163	0.00406823	-0.00460224
  52	0.0103873	0.00723748	-0.00564766
  53	0.00121752	0.0041897	-0.00102909
  54	0.00513716	0.019168	0.00564096
  55	0.0103148	0.0196705	-0.00728343
  56	-0.00371264	0.0029637	-0.0247758
  57	0.0028625	-0.00263467	-0.00382159
  58	0.00451728	0.00599543	0.00123109
  59	0.00512404	0.0088253	0.00214436
  60	0.00342095	0.00622131	-0.0013532
  61	0.0126227	-0.00403086	0.00377466
  62	-0.000706452	0.0156459	0.0016624
  63	0.00384743	0.00282261	-0.0133597
  64	0.0111338	0.00955584	-0.0121151
  65	0.000224224	-0.00358178	-0.00200181
  66	0.0105918	0.00201107	0.00124816
  67	-0.000949251	0.00229813	-0.000518362
  68	0.00349943	0.00887824	-0.00294634
  69	-2.23509e-05	0.0103462	0.00161273
  70	0.0075363	0.00330405	0.00240857
  71	0.00521694	0.0031018	-0.00102328
  72	0.00294155	0.00727512	-0.000816122
  73	0.00718171	-0.00569636	-0.00563114
  74	-0.00160023	0.00511071	0.00180372
  75	0.00822634	0.000947587	-0.00606454
  76	0.00380485	0.0038663	0.000773046
  77	0.00339499	0.000742445	-0.00247613
  78	-0.00316652	0.00536524	0.00879968
  79	0.012534	0.00974097	-0.00987664
  80	-0.00556111	-0.00257138	0.0116311
  81	0.00129043	0.000623832	-0.00587454
  82	0.000928605	0.00213611	-0.0024526
  83	-0.00436027	0.0059111	-0.004245
  84	-0.0035996	0.00843817	-0.00181504
  85	-0.002979	0.000397212	-0.00436458
  86	0.00187947	0.00684158	-0.00670268
  87	-0.00119569	0.0111182	-0.00816352
  88	-0.0042074	0.00137827	-0.00254782
  89	-0.0047487	0.000930068	-0.0035371
  90	-0.00157226	0.00535489	-0.00261577
  91	-0.00296566	0.00585897	-0.000576666
  92	0.00112922	-0.00136144	-0.00167287
  93	0.00503052	0.00594866	0.00206098
  94	-0.00639055	0.0110802	-0.000311116
  95	-0.00358774	0.0103661	0.00255461
  96	0.00371053	0.0012151	0.00696162
  97	-0.00791791	0.00105525	-0.00231791
  98	0.0030103	-0.0026503	0.00174548
  99	-0.0237387	-0.01015	-0.0113879
 100	-0.0145863	-0.0099535	-0.00473494
 101	0.00437242	0.00231509	0.00394105
 102	0.00550399	0.00567303	-0.0035356
 103	-0.000920144	0.00316212	0.00152828
 104	-0.00237557	-0.00394678	0.00192344
 105	-0.00504136	0.0044571	0.0140141
 106	0.00506132	0.00745584	-0.00288409
 107	0.00340737	0.00282542	0.0053003
 108	0.0023013	0.00696133	0.00306815
 109	0.00366739	0.00792985	-0.00341481
 110	-0.00251669	-0.00394234	0.00079296
 111	0.0057007	-0.000212584	-0.00256177
 112	0.00507948	0.00353147	0.00294538
 113	0.00314777	0.00225954	0.00140002
 114	-0.0164525	-0.00584968	0.0059362
 115	0.00913986	0.0031994	0.00872632
 116	0.00181033	0.0022506	0.00329931
 117	0.0104493	0.00810526	0.00567962
 118	0.0084705	0.0104093	-0.00367745
 119	0.00154111	0.00385183	0.00895852
 120	0.00808545	0.0138361	-0.00450682
 121	0.0131373	0.00177646	0.00158758
 122	0.0101796	0.0221827	0.00743188
 123	0.00614495	-0.00209962	0.00431106
 124	0.00337165	0.00489013	0.00490707
 125	-0.00167725	0.00201445	-0.00243924
 126	0.00608691	0.00268037	-0.00985026
 127	0.00452746	0.00332049	-0.00254799
 128	0.0138567	-0.000637781	-0.00388953
 129	0.00148548	0.00799238	-0.010779
 130	0.00126126	0.00741323	0.0127764
 131	0.00437939	0.00249303	-0.00377353
 132	-0.00485066	0.00578527	-0.012822
 133	0.00167986	0.00488508	-0.00120882
 134	0.000484092	0.00717251	-0.00423031
 135	0.00417135	-0.0118942	-0.00314065
 136	-0.0057609	0.00870641	0.00561755
 137	-0.0011325	-0.000240648	0.000758827
 138	-0.00280285	0.00455021	-0.00238753
 139	0.00846022	0.00496695	-0.00108604
 140	0.00715538	0.00378815	-0.00230009
 141	-0.00129141	-0.00488408	-0.00129922
 142	0.000785915	-0.00248328	-0.000369745
 143	0.00473066	-0.00938592	-0.00157156
 144	0.0106727	0.0012998	-0.0013857
 145	0.0102919	0.00358981	-0.00129621
 146	-0.00153402	0.00164675	-0.00563827
 147	0.00138833	0.0027157	-0.00234576
 148	0.00258035	0.000519591	-0.00225285
 149	0.00284334	-0.000207208	-0.00283191
 150	0.0033292	0.00878788	-0.0136011
 151	-0.00207134	0.00650382	-0.0126851
 152	0.00661352	0.00414366	-0.0114625
 153	0.00219654	0.00515148	0.00205537
 154	0.00391227	0.00246491	-0.006888
 155	0.00397206	-0.00169865	-0.00372047
 156	0.00396441	-0.00110458	-0.00227905
 157	0.00350565	0.0078688	-0.00794784
 158	-0.00120575	0.00282537	-0.00684757
 159	0.00435963	0.00577165	-0.00791033
 160	0.00381663	0.000824144	-0.00847043
 161	0.00410956	0.0018697	-0.00839418
 162	0.00330972	-0.00410024	0.00213301
 163	0.010182	-0.00200169	-0.00679478
 164	-0.000742056	0.00772475	-0.00791109
 165	0.00127588	-0.00119409	-0.00236277
 166	0.0109167	0.000770761	-5.71827e-05
 167	0.0069824	0.00205111	-0.00302757
 168	-0.00271868	0.00154408	-0.000335935
 169	0.00220969	-0.00302222	-0.00684477
 170	-0.00241289	0.0162124	-0.00175131
 171	0.0015643	-0.000521109	-0.0156469
 172	0.0026035	0.00221775	-0.0107139
 173	0.0182314	0.00166139	0.00138505
 174	0.00500677	0.00253367	0.000746626
 175	0.00884135	-0.00302845	-0.00781698
 176	0.00362032	0.0111296	-0.00946045
 177	0.0166463	-0.0078408	-0.00573853
 178	0.0212259	0.000866791	-0.00827585
 179	0.000722786	0.00455599	-0.000154412
 180	0.00498689	0.000933067	-0.00620836
 181	0.00273716	0.0128021	0.0161698
 182	-0.00596516	0.0172273	-0.00144954
 183	0.0159808	-0.0192445	0.0122344
 184	0.000846464	0.000137825	-0.000587481
 185	-0.000190253	0.00264593	-0.00365748
 186	-0.0043982	-0.00169467	-0.0189838
 187	0.00180334	0.00254275	-0.00235019
 188	0.00170513	0.00451399	-0.00683993
 189	0.000472577	0.00553388	-0.00509326
 190	0.00304973	0.00341927	-0.00313414
 191	-0.000959514	0.00508918	-0.00804934
 192	0.0141197	0.017777	-0.00844274
 193	-0.00294453	0.0167804	-0.0139796
 194	-0.00164922	-0.0110919	-0.0112442
 195	0.00177569	0.00276533	-0.00640076
 196	-0.00156547	0.00274792	-0.00367255
 197	0.00190835	0.00242968	-0.00669861
 198	0.00568381	0.00175262	-0.00317042
 199	-0.000276751	-0.0033199	-0.00633523
 200	-0.00574796	0.00114855	0.0063762
 201	-0.0057855	0.00698995	-0.0148211
 202	-0.00425961	-0.00302124	0.000746073
 203	-0.00177606	-0.00342879	-0.00135117
 204	0.00101061	0.0154608	0.000388989
 205	0.00765128	0.00162529	-0.0020787
 206	0.00367308	0.000908425	0.00446442
 207	7.10081e-07	0.00197134	-0.00162705
 208	-0.00301482	-0.00597789	-0.00296103
 209	0.00469831	-0.00642989	-0.00189297
 210	0.00341457	0.00201877	0.00456059
 211	-0.0030273	0.00576938	0.000155076
 212	0.00668601	0.00502211	0.000413771
 213	0.00923438	-0.00533547	-0.00190822
 214	-0.00117121	0.00512951	-0.00341531
 215	0.00603593	0.00821882	-0.00306884