pySIMM System Object

510 atoms
558 bonds
994 angles
1576 dihedrals
147 impropers

10 atom types
13 bond types
25 angle types
12 dihedral types
4 improper types

-58.426471 58.426471 xlo xhi
-58.426471 58.426471 ylo yhi
-58.426471 58.426471 zlo zhi

Masses

   1	12.01	# c3
   2	1.008	# hc
   3	19.0	# f
   4	1.008	# h2
   5	14.01	# n
   6	12.01	# c
   7	12.01	# ca
   8	1.008	# hn
   9	16.0	# o
  10	1.008	# ha

Pair Coeffs

   1	0.1094	3.3996695084235347	# c3
   2	0.0157	2.649532787749369	# hc
   3	0.061	3.1181455134911875	# f
   4	0.0157	2.2931733004932333	# h2
   5	0.17	3.249998523775958	# n
   6	0.086	3.3996695084235347	# c
   7	0.086	3.3996695084235347	# ca
   8	0.0157	1.069078461768407	# hn
   9	0.21	2.959921901149463	# o
  10	0.015	2.59964245953351	# ha

Bond Coeffs

   1	331.7	1.0961	# c3,h2
   2	330.6	1.0969	# c3,hc
   3	300.9	1.5375	# c3,c3
   4	356.9	1.3497	# c3,f
   5	637.7	1.2183	# c,o
   6	321.0	1.5156	# c3,ca
   7	384.2	1.4121	# ca,n
   8	403.2	1.0129	# hn,n
   9	427.6	1.3789	# c,n
  10	461.1	1.3984	# ca,ca
  11	345.9	1.4906	# c,ca
  12	345.8	1.086	# ca,ha
  13	328.7	1.4619	# c3,n

Angle Coeffs

   1	46.34	109.8	# c3,c3,hc
   2	70.89	107.36	# f,c3,f
   3	39.4	107.58	# hc,c3,hc
   4	66.11	109.24	# c3,c3,f
   5	46.25	110.22	# c3,c3,h2
   6	51.15	108.79	# f,c3,h2
   7	64.28	120.33	# c,ca,ca
   8	63.53	120.77	# c3,ca,ca
   9	66.62	120.02	# ca,ca,ca
  10	74.22	123.05	# n,c,o
  11	62.86	111.51	# c3,c3,c3
  12	63.74	127.08	# c,n,c
  13	63.15	112.07	# c3,c3,ca
  14	48.18	119.88	# ca,ca,ha
  15	67.87	120.19	# ca,ca,n
  16	68.72	122.6	# ca,c,o
  17	63.0	118.11	# ca,c,ca
  18	63.82	123.71	# c,n,ca
  19	67.68	115.25	# ca,c,n
  20	63.56	112.24	# ca,c3,ca
  21	48.33	117.55	# c,n,hn
  22	46.8	110.47	# ca,c3,hc
  23	63.39	120.69	# c,n,c3
  24	65.91	111.61	# c3,c3,n
  25	69.52	110.41	# f,c3,n

Dihedral Coeffs

   1	2	0.0	3	0	0.19	1	0	# hc,c3,c3,f
   2	1	0.15555555555555556	3	0	# X,c3,c3,X
   3	2	2.5	2	180	2.0	1	0	# hn,n,c,o
   4	1	3.625	2	180	# X,ca,ca,X
   5	1	0.16	3	0	# hc,c3,c3,c3
   6	1	1.0	2	180	# X,c,ca,X
   7	1	0.0	2	0	# X,c3,ca,X
   8	1	2.5	2	180	# X,c,n,X
   9	1	0.45	2	180	# X,ca,n,X
  10	3	0.18	3	0	0.25	2	180	0.2	1	180	# c3,c3,c3,c3
  11	4	0.5	4	180	0.15	3	180	0.0	2	0	0.53	1	0	# c3,c3,n,c
  12	1	0.0	2	0	# X,c3,n,X

Improper Coeffs

   1	10.5	-1	2	# c,X,X,o
   2	1.1	-1	2	# ca,X,X,ha
   3	1.1	-1	2	# ca,ca,ca,c3
   4	1.1	-1	2	# n,X,X,hn

Atoms

   1	1	1	0.070548	3.53533	-31.8936	-15.8187
   2	1	1	0.506757	2.20963	-32.3579	-16.4098
   3	1	2	-0.012767	4.36806	-32.269	-16.4256
   4	1	2	-0.014806	3.60014	-30.7964	-15.8414
   5	1	3	-0.274996	1.46233	-31.2818	-16.6813
   6	1	3	-0.274736	2.39063	-33.0162	-17.5835
   7	1	5	0.463181	19.7815	-28.7911	-18.0385
   8	1	6	0.074399	18.4691	-28.9047	-17.5493
   9	1	7	0.034296	18.6119	-29.6515	-16.2833
  10	1	6	0.051625	20.7212	-29.3215	-17.1671
  11	1	7	0.019035	19.9446	-29.8878	-16.038
  12	1	9	-0.389616	17.4017	-28.6998	-18.1123
  13	1	9	-0.380104	21.9235	-29.4245	-17.3404
  14	1	7	-0.045097	17.6258	-30.1347	-15.4377
  15	1	7	-0.056032	20.3605	-30.6845	-14.9692
  16	1	7	-0.174781	19.3624	-31.2224	-14.139
  17	1	7	-0.129342	17.9758	-30.9956	-14.3651
  18	1	10	0.168842	16.5994	-29.8346	-15.6246
  19	1	10	0.15893	21.4037	-30.9103	-14.7958
  20	1	10	0.147704	19.6708	-31.8026	-13.2588
  21	1	6	0.584577	16.905	-31.5795	-13.4713
  22	1	7	-0.046755	15.5324	-31.959	-14.0241
  23	1	7	-0.110868	14.4751	-32.2277	-13.1312
  24	1	7	-0.046132	13.2236	-32.6289	-13.6191
  25	1	7	-0.135873	15.2568	-32.1358	-15.4165
  26	1	7	-0.117662	13.9818	-32.5165	-15.8989
  27	1	7	-0.064457	12.9616	-32.7775	-14.9623
  28	1	6	0.492569	11.5619	-33.2622	-15.1246
  29	1	5	-0.072087	11.0611	-33.3708	-13.8299
  30	1	6	0.477555	12.0069	-33.012	-12.8806
  31	1	7	0.042617	9.74301	-33.7674	-13.4269
  32	1	7	-0.20367	8.95156	-32.8774	-12.6757
  33	1	7	-0.057018	7.65766	-33.2409	-12.2537
  34	1	7	-0.18182	9.19348	-35.0172	-13.7898
  35	1	7	-0.14326	7.91614	-35.3927	-13.3235
  36	1	7	0.043342	7.10625	-34.488	-12.5956
  37	1	10	0.163244	9.35148	-31.8849	-12.4663
  38	1	10	0.101178	7.07947	-32.5261	-11.6839
  39	1	10	0.165346	13.8288	-32.698	-16.957
  40	1	10	0.135111	16.0481	-32.0504	-16.1484
  41	1	10	0.171751	14.618	-32.1209	-12.0557
  42	1	9	-0.478239	11.9029	-33.0948	-11.6752
  43	1	9	-0.481107	10.9985	-33.5661	-16.1668
  44	1	9	-0.49957	17.1332	-31.8022	-12.2942
  45	1	10	0.151248	9.77549	-35.6812	-14.4235
  46	1	10	0.146138	7.53027	-36.3669	-13.5989
  47	1	1	0.044043	5.66104	-34.8024	-12.1585
  48	1	1	-0.215975	5.18072	-36.1998	-12.6108
  49	1	2	0.063789	5.24697	-36.3253	-13.6958
  50	1	2	0.072206	4.12551	-36.3297	-12.3532
  51	1	2	0.045489	5.73465	-37.0023	-12.1026
  52	1	1	0.005306	5.48464	-34.7215	-10.6067
  53	1	1	0.164932	4.37974	-33.6705	-10.2704
  54	1	2	0.005277	6.41853	-34.5142	-10.0826
  55	1	2	0.017604	5.2034	-35.6996	-10.226
  56	1	7	0.008363	3.97515	-33.1558	-11.647
  57	1	1	-0.151488	4.95863	-32.5403	-9.39524
  58	1	1	-0.269275	3.21959	-34.364	-9.49076
  59	1	7	0.096378	4.67668	-33.7708	-12.6894
  60	1	2	0.063418	3.57502	-34.7399	-8.52555
  61	1	2	0.061085	2.82319	-35.215	-10.0627
  62	1	2	0.065045	2.38417	-33.675	-9.29975
  63	1	7	-0.142025	3.15303	-32.0609	-11.9531
  64	1	7	-0.448546	4.50032	-33.4278	-14.0416
  65	1	7	0.277842	3.65803	-32.3576	-14.3683
  66	1	7	-0.409063	2.98912	-31.6838	-13.3093
  67	1	10	0.203923	5.05432	-33.9507	-14.8162
  68	1	2	0.016419	5.37564	-32.9361	-8.45537
  69	1	2	0.049665	4.19128	-31.7874	-9.16775
  70	1	2	0.035794	5.75626	-32.0086	-9.929
  71	1	10	0.161583	2.64944	-31.5288	-11.1429
  72	1	10	0.199011	2.35019	-30.8463	-13.5555
  73	1	1	0.070548	20.4679	-29.1791	-20.4404
  74	1	1	0.506757	20.1571	-28.1638	-19.315
  75	1	2	-0.012767	20.4275	-28.7122	-21.4262
  76	1	2	-0.014806	21.5016	-29.5233	-20.3395
  77	1	3	-0.274996	21.2678	-27.4236	-19.2019
  78	1	3	-0.274736	19.2478	-27.2507	-19.7423
  79	1	5	0.463181	10.2771	-18.5341	-27.7899
  80	1	6	0.074399	11.035	-19.4976	-27.0829
  81	1	7	0.034296	11.8595	-20.1629	-28.1266
  82	1	6	0.051625	10.6375	-18.4544	-29.1529
  83	1	7	0.019035	11.6517	-19.542	-29.3311
  84	1	9	-0.389616	11.1068	-19.6069	-25.8536
  85	1	9	-0.380104	10.0752	-17.8325	-30.0336
  86	1	7	-0.045097	12.6999	-21.262	-27.9542
  87	1	7	-0.056032	12.4053	-19.9488	-30.4404
  88	1	7	-0.174781	13.2797	-21.0523	-30.3161
  89	1	7	-0.129342	13.3658	-21.7758	-29.083
  90	1	10	0.168842	12.795	-21.7023	-26.9627
  91	1	10	0.15893	12.2906	-19.4711	-31.3971
  92	1	10	0.147704	13.8134	-21.4311	-31.211
  93	1	6	0.584577	14.1617	-23.0613	-28.9734
  94	1	7	-0.046755	13.7019	-24.0643	-27.9782
  95	1	7	-0.110868	14.6697	-24.8517	-27.3497
  96	1	7	-0.046132	14.2417	-25.8396	-26.4475
  97	1	7	-0.135873	12.3263	-24.3156	-27.7478
  98	1	7	-0.117662	11.9313	-25.3204	-26.8284
  99	1	7	-0.064457	12.9202	-26.0576	-26.186
 100	1	6	0.492569	12.8294	-27.2229	-25.2625
 101	1	5	-0.072087	14.151	-27.615	-25.0138
 102	1	6	0.477555	15.0552	-26.8453	-25.7466
 103	1	7	0.042617	14.5314	-28.5405	-24.0019
 104	1	7	-0.20367	13.8677	-28.5428	-22.7629
 105	1	7	-0.057018	14.2567	-29.4179	-21.749
 106	1	7	-0.18182	15.6339	-29.4092	-24.1656
 107	1	7	-0.14326	16.0256	-30.2892	-23.1373
 108	1	7	0.043342	15.3247	-30.3149	-21.9153
 109	1	10	0.163244	13.0637	-27.8606	-22.5442
 110	1	10	0.101178	13.6684	-29.377	-20.8284
 111	1	10	0.165346	10.8658	-25.5358	-26.657
 112	1	10	0.135111	11.5297	-23.789	-28.2904
 113	1	10	0.171751	15.7222	-24.696	-27.5608
 114	1	9	-0.478239	16.2637	-26.9647	-25.8794
 115	1	9	-0.481107	11.773	-27.7404	-24.9018
 116	1	9	-0.49957	15.2167	-23.228	-29.5581
 117	1	10	0.151248	16.1961	-29.4069	-25.0885
 118	1	10	0.146138	16.9003	-30.9218	-23.2603
 119	1	1	0.044043	15.7882	-31.2483	-20.7754
 120	1	1	-0.215975	15.1644	-30.8609	-19.3833
 121	1	2	0.063789	15.2272	-29.7839	-19.1867
 122	1	2	0.072206	15.6771	-31.3166	-18.5411
 123	1	2	0.045489	14.0983	-31.1556	-19.3331
 124	1	1	0.005306	15.4778	-32.7794	-21.067
 125	1	1	0.164932	16.6585	-33.6048	-20.4962
 126	1	2	0.005277	15.4157	-32.9257	-22.1622
 127	1	2	0.017604	14.5022	-33.0965	-20.6887
 128	1	7	0.008363	17.7795	-32.5826	-20.4737
 129	1	1	-0.151488	16.9852	-34.8076	-21.4188
 130	1	1	-0.269275	16.3524	-34.1458	-19.0823
 131	1	7	0.096378	17.2948	-31.2866	-20.6677
 132	1	2	0.063418	15.5273	-34.8679	-19.0977
 133	1	2	0.061085	16.1237	-33.3572	-18.3701
 134	1	2	0.065045	17.2332	-34.6723	-18.6997
 135	1	7	-0.142025	19.1567	-32.8192	-20.2945
 136	1	7	-0.448546	18.159	-30.1747	-20.6737
 137	1	7	0.277842	19.5263	-30.3816	-20.4568
 138	1	7	-0.409063	20.0161	-31.6949	-20.3182
 139	1	10	0.203923	17.7782	-29.1845	-20.8241
 140	1	2	0.016419	16.0954	-35.4005	-21.5565
 141	1	2	0.049665	17.7733	-35.4606	-21.0054
 142	1	2	0.035794	17.3112	-34.4787	-22.4065
 143	1	10	0.161583	19.533	-33.8407	-20.1907
 144	1	10	0.199011	21.0966	-31.8533	-20.237
 145	1	5	0.463181	15.5625	-20.0121	-10.9799
 146	1	6	0.074399	15.4677	-18.6428	-11.2599
 147	1	7	0.034296	14.2932	-18.5053	-12.1611
 148	1	6	0.051625	14.4523	-20.7022	-11.4801
 149	1	7	0.019035	13.6253	-19.713	-12.2041
 150	1	9	-0.389616	16.2254	-17.742	-10.9399
 151	1	9	-0.380104	14.1811	-21.8876	-11.3655
 152	1	7	-0.045097	13.7622	-17.3858	-12.8118
 153	1	7	-0.056032	12.4432	-19.9036	-12.929
 154	1	7	-0.174781	11.9001	-18.7832	-13.5929
 155	1	7	-0.129342	12.5448	-17.5235	-13.5557
 156	1	10	0.168842	14.2516	-16.4202	-12.7577
 157	1	10	0.15893	12.0162	-20.8956	-12.9899
 158	1	10	0.147704	10.9489	-18.9067	-14.1012
 159	1	6	0.584577	12.0019	-16.2797	-14.2557
 160	1	7	-0.046755	10.8745	-16.3327	-15.264
 161	1	7	-0.110868	10.8363	-17.2579	-16.3353
 162	1	7	-0.046132	9.84119	-17.1101	-17.3191
 163	1	7	-0.135873	9.95455	-15.2467	-15.2905
 164	1	7	-0.117662	8.94394	-15.1124	-16.2527
 165	1	7	-0.064457	8.88251	-16.1076	-17.2204
 166	1	6	0.492569	8.01672	-16.2248	-18.4187
 167	1	5	-0.072087	8.57693	-17.2406	-19.1996
 168	1	6	0.477555	9.62778	-17.8888	-18.575
 169	1	7	0.042617	8.0991	-17.5951	-20.5098
 170	1	7	-0.20367	8.95224	-17.5858	-21.6235
 171	1	7	-0.057018	8.45841	-17.8722	-22.9074
 172	1	7	-0.18182	6.71529	-17.7252	-20.732
 173	1	7	-0.14326	6.19323	-17.9094	-22.0187
 174	1	7	0.043342	7.05029	-17.9712	-23.135
 175	1	10	0.163244	10.0225	-17.4174	-21.5127
 176	1	10	0.101178	9.19057	-17.9305	-23.7067
 177	1	10	0.165346	8.21285	-14.3023	-16.2489
 178	1	10	0.135111	10.0195	-14.4793	-14.5369
 179	1	10	0.171751	11.5921	-18.0365	-16.4481
 180	1	9	-0.478239	10.343	-18.7976	-19.0036
 181	1	9	-0.481107	7.01997	-15.5905	-18.6659
 182	1	9	-0.49957	12.488	-15.1862	-13.9796
 183	1	10	0.151248	6.0185	-17.6403	-19.8941
 184	1	10	0.146138	5.1251	-17.9812	-22.1348
 185	1	1	0.044043	6.40988	-18.1995	-24.5187
 186	1	1	-0.215975	5.97005	-19.6618	-24.6903
 187	1	2	0.063789	6.8178	-20.3423	-24.4983
 188	1	2	0.072206	5.55842	-19.8567	-25.7004
 189	1	2	0.045489	5.19302	-19.9106	-23.9652
 190	1	1	0.005306	5.21009	-17.2616	-24.8326
 191	1	1	0.164932	5.82788	-15.9052	-25.3341
 192	1	2	0.005277	4.53294	-17.106	-24.0047
 193	1	2	0.017604	4.60229	-17.6745	-25.6554
 194	1	7	0.008363	7.10668	-16.424	-25.9692
 195	1	1	-0.151488	6.07496	-14.9015	-24.1773
 196	1	1	-0.269275	4.92004	-15.2606	-26.3733
 197	1	7	0.096378	7.33965	-17.7249	-25.6052
 198	1	2	0.063418	5.29399	-14.2558	-26.6509
 199	1	2	0.061085	3.89777	-15.1706	-25.974
 200	1	2	0.065045	4.86748	-15.8795	-27.298
 201	1	7	-0.142025	7.90146	-15.7656	-26.9157
 202	1	7	-0.448546	8.41005	-18.418	-26.1608
 203	1	7	0.277842	9.2032	-17.8191	-27.1764
 204	1	7	-0.409063	8.89045	-16.5044	-27.576
 205	1	10	0.203923	8.53053	-19.4445	-25.8512
 206	1	2	0.016419	6.46927	-13.9254	-24.5243
 207	1	2	0.049665	6.7645	-15.2832	-23.4271
 208	1	2	0.035794	5.12823	-14.6982	-23.6809
 209	1	10	0.161583	7.64686	-14.7693	-27.2477
 210	1	10	0.199011	9.46301	-16.0147	-28.3758
 211	1	5	0.463181	13.8611	-16.6678	8.35345
 212	1	6	0.074399	13.8188	-17.902	7.72027
 213	1	7	0.034296	13.7197	-17.5831	6.27398
 214	1	6	0.051625	13.7672	-15.5863	7.49393
 215	1	7	0.019035	13.6577	-16.2051	6.13533
 216	1	9	-0.389616	13.7156	-19.0094	8.25469
 217	1	9	-0.380104	13.8474	-14.3794	7.76943
 218	1	7	-0.045097	13.5643	-18.4392	5.17579
 219	1	7	-0.056032	13.3655	-15.5784	4.90782
 220	1	7	-0.174781	13.1691	-16.4239	3.79789
 221	1	7	-0.129342	13.382	-17.8293	3.88877
 222	1	10	0.168842	13.5609	-19.5136	5.37387
 223	1	10	0.15893	13.1805	-14.4876	4.87567
 224	1	10	0.147704	12.9091	-16.0071	2.83782
 225	1	6	0.584577	13.3272	-18.7079	2.64346
 226	1	7	-0.046755	14.1885	-18.3065	1.43896
 227	1	7	-0.110868	14.2131	-19.1419	0.30669
 228	1	7	-0.046132	15.0814	-18.8103	-0.756194
 229	1	7	-0.135873	15.143	-17.2377	1.51944
 230	1	7	-0.117662	15.9539	-16.8794	0.404963
 231	1	7	-0.064457	15.8868	-17.6869	-0.73593
 232	1	6	0.492569	16.7917	-17.7291	-1.88796
 233	1	5	-0.072087	16.493	-18.8929	-2.56426
 234	1	6	0.477555	15.4613	-19.6002	-1.96608
 235	1	7	0.042617	17.226	-19.2729	-3.68765
 236	1	7	-0.20367	16.4877	-19.6907	-4.79268
 237	1	7	-0.057018	17.1469	-19.9773	-5.98515
 238	1	7	-0.18182	18.6274	-19.1816	-3.76243
 239	1	7	-0.14326	19.2908	-19.4712	-4.9773
 240	1	7	0.043342	18.5325	-19.8663	-6.0948
 241	1	10	0.163244	15.3733	-19.7211	-4.72712
 242	1	10	0.101178	16.5538	-20.3128	-6.83242
 243	1	10	0.165346	16.7058	-16.0793	0.407054
 244	1	10	0.135111	15.2757	-16.6776	2.44609
 245	1	10	0.171751	13.6134	-20.0229	0.282349
 246	1	9	-0.478239	15.0752	-20.7416	-2.21326
 247	1	9	-0.481107	17.7228	-16.9742	-2.04089
 248	1	9	-0.49957	12.7205	-19.7467	2.69478
 249	1	10	0.151248	19.1811	-18.8663	-2.90829
 250	1	10	0.146138	20.3552	-19.364	-5.07627
 251	1	1	0.044043	19.236	-20.1364	-7.4405
 252	1	1	-0.215975	19.8513	-18.8595	-8.03784
 253	1	2	0.063789	20.377	-19.0968	-8.99192
 254	1	2	0.072206	20.5727	-18.4003	-7.36474
 255	1	2	0.045489	19.0445	-18.1194	-8.24385
 256	1	1	0.005306	20.2955	-21.2521	-7.20479
 257	1	1	0.164932	20.0029	-22.4123	-8.24121
 258	1	2	0.005277	20.1631	-21.7008	-6.21051
 259	1	2	0.017604	21.3207	-20.8575	-7.26787
 260	1	7	0.008363	18.7967	-21.9372	-9.00349
 261	1	1	-0.151488	19.661	-23.7644	-7.5582
 262	1	1	-0.269275	21.26	-22.5519	-9.1292
 263	1	7	0.096378	18.3521	-20.7101	-8.54577
 264	1	2	0.063418	21.2365	-23.471	-9.71111
 265	1	2	0.061085	22.1918	-22.606	-8.51213
 266	1	2	0.065045	21.3649	-21.6855	-9.82976
 267	1	7	-0.142025	18.2042	-22.5768	-10.0922
 268	1	7	-0.448546	17.2505	-20.0608	-9.14985
 269	1	7	0.277842	16.6406	-20.6557	-10.2826
 270	1	7	-0.409063	17.1494	-21.8984	-10.7777
 271	1	10	0.203923	16.9812	-19.0495	-8.81893
 272	1	2	0.016419	20.503	-24.086	-6.94541
 273	1	2	0.049665	19.3888	-24.5098	-8.30815
 274	1	2	0.035794	18.8131	-23.6541	-6.86885
 275	1	10	0.161583	18.551	-23.5023	-10.4937
 276	1	10	0.199011	16.6707	-22.3672	-11.6358
 277	1	1	0.070548	12.3897	-16.7356	10.4258
 278	1	1	0.506757	13.8285	-16.5718	9.84249
 279	1	2	-0.012767	12.52	-16.6516	11.5201
 280	1	2	-0.014806	12.0829	-17.8058	10.2958
 281	1	3	-0.274996	14.4428	-15.4461	10.3468
 282	1	3	-0.274736	14.5691	-17.528	10.4311
 283	1	1	0.070548	10.0248	-15.7281	10.8379
 284	1	1	0.506757	11.26	-15.7662	9.91567
 285	1	2	-0.012767	9.39162	-14.904	10.4532
 286	1	2	-0.014806	9.4262	-16.6452	10.6847
 287	1	3	-0.274996	10.9095	-16.1413	8.63078
 288	1	3	-0.274736	11.7097	-14.5107	9.77702
 289	1	5	0.463181	5.25781	1.13689	17.2434
 290	1	6	0.074399	5.67274	-0.190482	17.0031
 291	1	7	0.034296	7.09092	-0.263378	17.316
 292	1	6	0.051625	6.3403	1.90563	17.6921
 293	1	7	0.019035	7.50771	1.02011	17.7169
 294	1	9	-0.389616	5.11008	-1.03784	16.3442
 295	1	9	-0.380104	6.41076	3.09192	18.0081
 296	1	7	-0.045097	7.97252	-1.37374	17.1978
 297	1	7	-0.056032	8.81634	1.21183	18.1449
 298	1	7	-0.174781	9.67563	0.0421684	18.1091
 299	1	7	-0.129342	9.30247	-1.25158	17.5815
 300	1	10	0.168842	7.54555	-2.29902	16.8002
 301	1	10	0.15893	9.17138	2.17882	18.5431
 302	1	10	0.147704	10.7186	0.19356	18.4812
 303	1	6	0.584577	10.3632	-2.38758	17.5197
 304	1	7	-0.046755	10.1997	-3.55727	16.6124
 305	1	7	-0.110868	10.5666	-4.82577	17.0906
 306	1	7	-0.046132	10.4927	-5.91953	16.2593
 307	1	7	-0.135873	9.79435	-3.42251	15.2764
 308	1	7	-0.117662	9.73636	-4.54569	14.4036
 309	1	7	-0.064457	10.1419	-5.78224	14.9493
 310	1	6	0.492569	10.2517	-7.10985	14.3431
 311	1	5	-0.072087	10.6175	-8.0042	15.3584
 312	1	6	0.477555	10.8046	-7.33548	16.5349
 313	1	7	0.042617	11.0298	-9.34754	15.1886
 314	1	7	-0.20367	10.2894	-10.2713	14.4405
 315	1	7	-0.057018	10.8072	-11.5425	14.2076
 316	1	7	-0.18182	12.2919	-9.71018	15.6957
 317	1	7	-0.14326	12.8373	-10.9655	15.4207
 318	1	7	0.043342	12.0879	-11.9263	14.7078
 319	1	10	0.163244	9.28976	-10.0043	14.0773
 320	1	10	0.101178	10.2643	-12.222	13.5765
 321	1	10	0.165346	9.35488	-4.46627	13.3983
 322	1	10	0.135111	9.45954	-2.47062	14.9038
 323	1	10	0.171751	10.8559	-4.96755	18.145
 324	1	9	-0.478239	11.1584	-7.80433	17.5973
 325	1	9	-0.481107	10.281	-7.30482	13.1331
 326	1	9	-0.49957	11.3457	-2.41644	18.2448
 327	1	10	0.151248	12.9682	-9.05393	16.2113
 328	1	10	0.146138	13.8403	-11.1964	15.7769
 329	1	1	0.044043	12.7167	-13.2859	14.418
 330	1	1	-0.215975	13.7544	-13.0529	13.2958
 331	1	2	0.063789	13.2726	-12.5202	12.4778
 332	1	2	0.072206	14.1416	-13.9474	12.8481
 333	1	2	0.045489	14.595	-12.4391	13.6342
 334	1	1	0.005306	13.3542	-13.9663	15.6692
 335	1	1	0.164932	12.2579	-15.0071	16.1911
 336	1	2	0.005277	13.6102	-13.2912	16.4928
 337	1	2	0.017604	14.2461	-14.5527	15.385
 338	1	7	0.008363	11.5296	-15.3636	14.8842
 339	1	1	-0.151488	11.2974	-14.2229	17.163
 340	1	1	-0.269275	12.9135	-16.2128	16.8598
 341	1	7	0.096378	11.7062	-14.3206	13.9853
 342	1	2	0.063418	12.2595	-17.1137	16.9284
 343	1	2	0.061085	13.2879	-15.932	17.8679
 344	1	2	0.065045	13.8041	-16.536	16.2958
 345	1	7	-0.142025	10.7769	-16.4753	14.5495
 346	1	7	-0.448546	11.1468	-14.4123	12.7001
 347	1	7	0.277842	10.3943	-15.5329	12.3104
 348	1	7	-0.409063	10.2425	-16.5898	13.2471
 349	1	10	0.203923	11.3542	-13.624	11.9958
 350	1	2	0.016419	10.5088	-14.8656	17.5429
 351	1	2	0.049665	10.8151	-13.3341	16.7035
 352	1	2	0.035794	11.8203	-13.8948	18.0328
 353	1	10	0.161583	10.6343	-17.2545	15.2943
 354	1	10	0.199011	9.77788	-17.5214	12.9559
 355	1	5	0.463181	3.18131	10.0778	0.255064
 356	1	6	0.074399	4.28085	9.73967	1.0383
 357	1	7	0.034296	3.63352	9.09877	2.20785
 358	1	6	0.051625	1.96551	9.6183	0.725502
 359	1	7	0.019035	2.26984	9.18028	2.04071
 360	1	9	-0.389616	5.41488	10.0961	0.78949
 361	1	9	-0.380104	0.871676	9.6032	0.191653
 362	1	7	-0.045097	4.1363	8.44629	3.35755
 363	1	7	-0.056032	1.34227	8.74099	2.90317
 364	1	7	-0.174781	1.80308	8.07941	4.07667
 365	1	7	-0.129342	3.22307	8.00442	4.33868
 366	1	10	0.168842	5.21086	8.40182	3.40655
 367	1	10	0.15893	0.288599	8.81892	2.60169
 368	1	10	0.147704	1.06225	7.66015	4.78468
 369	1	6	0.584577	3.81279	7.23702	5.51117
 370	1	7	-0.046755	3.24863	7.39678	6.9218
 371	1	7	-0.110868	3.40447	6.42505	7.9504
 372	1	7	-0.046132	2.71582	6.56906	9.21366
 373	1	7	-0.135873	2.40982	8.53498	7.21751
 374	1	7	-0.117662	1.79923	8.69263	8.46511
 375	1	7	-0.064457	1.94081	7.68411	9.44855
 376	1	6	0.492569	1.46218	7.64953	10.8693
 377	1	5	-0.072087	2.01869	6.48455	11.4492
 378	1	6	0.477555	2.76288	5.77771	10.4822
 379	1	7	0.042617	1.81246	6.09838	12.7962
 380	1	7	-0.20367	2.70597	6.50406	13.7747
 381	1	7	-0.057018	2.64402	6.03346	15.0909
 382	1	7	-0.18182	0.796134	5.25387	13.1699
 383	1	7	-0.14326	0.712977	4.70549	14.4497
 384	1	7	0.043342	1.60538	5.12904	15.4652
 385	1	10	0.163244	3.47409	7.19664	13.5309
 386	1	10	0.101178	3.35482	6.3777	15.8238
 387	1	10	0.165346	1.1496	9.55898	8.62012
 388	1	10	0.135111	2.28133	9.32239	6.50523
 389	1	10	0.171751	4.11707	5.52716	7.86082
 390	1	9	-0.478239	3.34525	4.712	10.6269
 391	1	9	-0.481107	0.592234	8.40828	11.3039
 392	1	9	-0.49957	4.59088	6.35455	5.31896
 393	1	10	0.151248	0.117388	4.87005	12.4279
 394	1	10	0.146138	-0.0528978	3.9729	14.6956
 395	1	1	0.044043	1.47273	4.54685	16.9447
 396	1	1	-0.215975	2.18609	5.44982	18.0546
 397	1	2	0.063789	1.97863	6.54274	17.9881
 398	1	2	0.072206	3.2996	5.3442	17.9138
 399	1	2	0.045489	1.95119	5.15778	19.0524
 400	1	1	0.005306	-0.0528685	4.32756	17.3298
 401	1	1	0.164932	-0.27506	2.79443	17.7491
 402	1	2	0.005277	-0.656908	4.59939	16.5291
 403	1	2	0.017604	-0.41838	4.97986	18.1529
 404	1	7	0.008363	1.0934	2.17683	17.3671
 405	1	1	-0.151488	-1.49815	2.0176	17.0666
 406	1	1	-0.269275	-0.458479	2.80701	19.3005
 407	1	7	0.096378	2.0307	3.11794	16.9887
 408	1	2	0.063418	0.442635	3.33966	19.713
 409	1	2	0.061085	-0.498797	1.81467	19.7299
 410	1	2	0.065045	-1.39389	3.36805	19.5488
 411	1	7	-0.142025	1.49202	0.837179	17.5635
 412	1	7	-0.448546	3.37616	2.79758	16.9474
 413	1	7	0.277842	3.86395	1.51815	17.2767
 414	1	7	-0.409063	2.88327	0.547206	17.5655
 415	1	10	0.203923	4.10352	3.57008	16.7305
 416	1	2	0.016419	-2.39317	2.63762	17.0967
 417	1	2	0.049665	-1.69104	1.12147	17.6345
 418	1	2	0.035794	-1.33097	1.88359	15.9732
 419	1	10	0.161583	0.778892	0.0788474	17.8587
 420	1	10	0.199011	3.22968	-0.48242	17.8298
 421	1	1	0.070548	3.41728	9.86701	-2.16185
 422	1	1	0.506757	3.25242	10.8224	-1.0136
 423	1	2	-0.012767	2.68721	9.02411	-1.89545
 424	1	2	-0.014806	4.42026	9.46595	-2.15379
 425	1	3	-0.274996	4.30528	11.6954	-1.08233
 426	1	3	-0.274736	2.14927	11.5536	-1.15978
 427	1	1	0.070548	3.45173	9.52802	-4.63412
 428	1	1	0.506757	3.02416	10.5415	-3.52259
 429	1	2	-0.012767	4.50264	9.26707	-4.5406
 430	1	2	-0.014806	3.03341	8.50144	-4.38817
 431	1	3	-0.274996	3.63646	11.6992	-3.76027
 432	1	3	-0.274736	1.69031	10.7624	-3.66246
 433	1	1	0.070548	3.92878	11.3044	-6.54682
 434	1	1	0.506757	3.38353	9.90195	-6.17508
 435	1	2	-0.012767	4.93604	11.4634	-6.15682
 436	1	2	-0.014806	3.34327	11.9796	-5.91625
 437	1	3	-0.274996	2.08116	9.76994	-6.5824
 438	1	3	-0.274736	3.97899	8.97872	-6.98185
 439	1	1	0.070548	2.54819	12.2331	-8.53036
 440	1	1	0.506757	3.90394	11.8203	-8.04917
 441	1	2	-0.012767	2.02659	11.2226	-8.67194
 442	1	2	-0.014806	2.0444	12.7465	-7.74789
 443	1	3	-0.274996	4.66012	12.8945	-8.03958
 444	1	3	-0.274736	4.578	10.8778	-8.77381
 445	1	5	0.463181	-3.69076	2.43311	-6.01144
 446	1	6	0.074399	-3.59312	3.1608	-7.14503
 447	1	7	0.034296	-4.57685	2.71713	-8.14476
 448	1	6	0.051625	-4.57246	1.40963	-6.13167
 449	1	7	0.019035	-5.10852	1.60285	-7.54098
 450	1	9	-0.389616	-2.88448	4.10331	-7.10749
 451	1	9	-0.380104	-4.92199	0.625655	-5.26507
 452	1	7	-0.045097	-4.96227	3.23117	-9.38568
 453	1	7	-0.056032	-5.83336	0.760899	-8.40384
 454	1	7	-0.174781	-6.20299	1.12755	-9.7082
 455	1	7	-0.129342	-5.74254	2.36774	-10.2086
 456	1	10	0.168842	-4.53832	4.18633	-9.65583
 457	1	10	0.15893	-6.1295	-0.206117	-8.02328
 458	1	10	0.147704	-6.77173	0.436844	-10.3388
 459	1	6	0.584577	-6.01409	2.94902	-11.605
 460	1	7	-0.046755	-5.56589	4.42318	-11.8271
 461	1	7	-0.110868	-4.34801	4.73192	-12.4486
 462	1	7	-0.046132	-3.95648	6.08614	-12.5942
 463	1	7	-0.135873	-6.36408	5.46614	-11.2882
 464	1	7	-0.117662	-5.95004	6.83536	-11.3572
 465	1	7	-0.064457	-4.74907	7.08597	-11.9812
 466	1	6	0.492569	-4.05443	8.39433	-12.2476
 467	1	5	-0.072087	-2.78315	8.064	-12.73
 468	1	6	0.477555	-2.64716	6.6947	-12.9817
 469	1	7	0.042617	-1.80914	9.05145	-12.9653
 470	1	7	-0.20367	-1.63972	10.1731	-12.1242
 471	1	7	-0.057018	-0.452847	10.9981	-12.1986
 472	1	7	-0.18182	-0.817064	8.82945	-13.8973
 473	1	7	-0.14326	0.346021	9.67241	-13.9821
 474	1	7	0.043342	0.516302	10.8267	-13.2506
 475	1	10	0.163244	-2.3366	10.338	-11.2861
 476	1	10	0.101178	-0.440471	11.9331	-11.5672
 477	1	10	0.165346	-6.57539	7.61266	-10.9566
 478	1	10	0.135111	-7.33226	5.20329	-10.8402
 479	1	10	0.171751	-3.78191	3.89969	-12.8467
 480	1	9	-0.478239	-1.67434	6.05917	-13.2703
 481	1	9	-0.481107	-4.50814	9.55572	-12.2238
 482	1	9	-0.49957	-6.52137	2.26237	-12.4701
 483	1	10	0.151248	-0.76905	7.90497	-14.5421
 484	1	10	0.146138	1.11899	9.48314	-14.842
 485	1	1	0.044043	1.70681	11.7886	-13.5154
 486	1	1	-0.215975	3.02792	11.2107	-14.0973
 487	1	2	0.063789	3.78516	11.9965	-14.1685
 488	1	2	0.072206	2.95221	10.8176	-15.0755
 489	1	2	0.045489	3.41383	10.3796	-13.4582
 490	1	1	0.005306	1.22521	13.0405	-14.4814
 491	1	1	0.164932	1.35681	14.3668	-13.7158
 492	1	2	0.005277	0.164116	12.8806	-14.7883
 493	1	2	0.017604	1.81453	13.0556	-15.3889
 494	1	7	0.008363	1.70331	13.9285	-12.3143
 495	1	1	-0.151488	0.0312975	15.1537	-13.6008
 496	1	1	-0.269275	2.42748	15.3349	-14.3173
 497	1	7	0.096378	1.96131	12.5482	-12.2441
 498	1	2	0.063418	3.43074	14.9655	-14.2891
 499	1	2	0.061085	2.56484	16.3318	-13.9319
 500	1	2	0.065045	2.26355	15.4212	-15.3861
 501	1	7	-0.142025	1.69456	14.7787	-11.2155
 502	1	7	-0.448546	2.25982	12.0328	-11.013
 503	1	7	0.277842	2.34473	12.8531	-9.8607
 504	1	7	-0.409063	1.93724	14.207	-9.96735
 505	1	10	0.203923	2.2762	11.0027	-11.0287
 506	1	2	0.016419	-0.681534	14.6418	-12.9241
 507	1	2	0.049665	-0.463023	15.2403	-14.5768
 508	1	2	0.035794	0.203724	16.1622	-13.3108
 509	1	10	0.161583	1.44616	15.813	-11.2995
 510	1	10	0.199011	1.93955	14.7763	-9.04936

Velocities

   1	-0.000627181	0.00342626	0.00105728
   2	0.000112518	5.01838e-05	-8.20312e-05
   3	0.00043364	0.00505666	-0.00549099
   4	-0.00721821	0.00121441	0.00461732
   5	-0.00195559	8.64085e-05	-0.00126983
   6	-0.000160222	0.0017209	7.5656e-05
   7	-0.00301769	-0.000237782	-0.00363463
   8	-0.00210533	0.00151571	-0.00469461
   9	-0.00118394	-0.000767967	-0.00314308
  10	-0.00394631	-0.000607025	-0.00369161
  11	0.000133137	0.00163472	-0.00196392
  12	-0.00184999	0.00421902	-0.000200185
  13	-0.00274416	-0.00120069	-0.00616641
  14	-0.00115262	-0.00288132	-0.0014363
  15	-0.00272349	0.000640406	-0.00360605
  16	-0.00182444	-0.00453101	-0.00854248
  17	-0.00127609	-0.00348192	-0.00758244
  18	-0.00193585	-0.00355347	-0.00488729
  19	-0.00659451	-0.00990709	-0.00356188
  20	-0.002361	-0.00482957	-0.00816807
  21	0.000884888	-0.00980849	-0.00425043
  22	-2.42658e-05	-0.00521862	-0.00325159
  23	0.00117232	-0.00148172	-0.00476841
  24	-0.00202655	0.0022288	-0.00273245
  25	0.000165216	-0.00768849	-0.00162709
  26	-0.000431571	-0.00745806	-0.00441609
  27	0.00229093	-0.00515113	-0.00220244
  28	-9.24308e-05	-0.00113005	-0.000996658
  29	-0.00339441	0.00337349	-0.00227601
  30	-0.00399921	0.00190655	-0.00206214
  31	-0.00186188	0.000190456	-0.000794886
  32	0.00182823	-0.000940873	0.00255061
  33	-0.00057813	0.00070474	-0.00198545
  34	-0.0017968	0.00445759	-0.00922753
  35	-0.00129631	0.00385703	-0.00842661
  36	-0.000514823	0.000415216	-0.00358222
  37	0.00377059	-0.00382154	0.00124858
  38	-0.00447295	-0.00441399	-0.00473356
  39	-0.00285582	-0.00609614	-0.00757083
  40	-0.00132495	-0.00401864	-0.0033847
  41	0.00380052	-0.00395485	-0.00588184
  42	-0.00158477	0.00122718	-0.00449328
  43	0.00111563	-0.00206442	-0.000461869
  44	-0.000686848	-0.0114235	-0.00537672
  45	-0.000533375	0.00749288	-0.0099346
  46	0.00210813	0.00343535	-0.0061835
  47	-0.00111689	0.000220594	-0.00292275
  48	-0.00134109	0.000877851	-0.00374945
  49	-0.00961813	0.00196627	-0.00275347
  50	0.000473181	0.000594533	-0.000847906
  51	0.00416753	0.00158751	-0.00894994
  52	-0.0016732	-0.0023189	-0.00446695
  53	-0.0026121	-0.000507709	-0.00364577
  54	-0.0042741	0.00246727	-0.00243969
  55	0.00219187	-0.000768378	0.00172245
  56	-0.00240416	-0.00375629	-0.00499018
  57	-0.00544987	-0.0013986	-0.000143452
  58	-0.00232674	-0.00288807	-0.00607203
  59	-0.00135346	-0.00147084	-0.00281161
  60	-0.00759708	-0.00070668	-0.00103041
  61	0.00158602	-0.00673512	-0.00175212
  62	-0.00502434	-0.00176388	-0.00765897
  63	-0.0010469	-0.00498426	-0.00270536
  64	-0.000160686	0.000156849	-0.0047764
  65	-0.00165712	-0.00238537	-0.00282376
  66	0.00106639	-0.00220756	-0.00133905
  67	-0.00231818	0.00044076	-0.00329477
  68	-0.00182965	-0.00492027	-0.00606975
  69	-0.00895273	-0.00633821	0.0118351
  70	-0.0146642	0.00580621	-0.00349423
  71	-0.00190581	-0.000942077	-0.00149282
  72	0.00681313	-0.000630865	-0.00421638
  73	-0.000768286	-0.00209753	0.001228
  74	-0.00374624	-0.00155787	-0.00349405
  75	0.00512309	-0.000185506	0.000441967
  76	-0.0062196	0.00223773	0.00603311
  77	-0.00377482	-0.000885825	-0.00600869
  78	-0.00139514	-0.000650021	-0.00598636
  79	-0.00246954	-0.00587135	-7.41267e-05
  80	-0.00531497	-0.00473084	-0.00589854
  81	0.000296884	-0.00101438	-0.00530647
  82	-0.0026372	-0.00503252	-0.00164145
  83	-0.000518237	-0.00233337	-0.00346893
  84	-0.00247839	-0.00209687	-0.00431285
  85	-0.00421204	-0.00119449	-0.00462915
  86	-0.00327074	-0.00664117	-0.00146369
  87	-0.00320707	-0.0040084	-0.00335609
  88	-0.00110039	-0.00429795	-0.00410419
  89	-0.00487324	-0.00186987	-0.00237522
  90	0.00191637	-0.00489013	-0.0110497
  91	-8.19596e-05	-0.00660187	-0.0106178
  92	-0.00217781	-0.00310246	-0.00285771
  93	-0.003861	-0.00612578	-0.00500442
  94	-0.00546652	-0.00771789	-0.00375654
  95	-0.00342593	-0.00565824	-0.00509807
  96	-0.0042235	-0.00651253	-0.00085046
  97	-0.00697407	-0.00187112	-0.00178782
  98	-0.00642121	-0.00635728	-0.000637335
  99	-0.00702496	-0.0041034	-0.00466509
 100	-0.00419818	-0.00440581	-0.000709895
 101	-0.00422339	-0.00388692	-0.00331439
 102	-0.00700547	-0.00343542	-0.00259564
 103	-0.00191052	-0.00449463	-0.00206681
 104	-0.00265718	-0.00459886	-0.00408206
 105	-0.00187547	-0.00257273	-0.00509984
 106	-0.00191063	-0.00481904	-0.00310828
 107	-0.00150917	-0.000826363	-0.00307619
 108	0.00217121	-0.0037928	-5.97279e-06
 109	-0.00523392	-0.0117891	-0.00291938
 110	0.00187574	-0.0021522	-0.00037863
 111	-0.00343917	-0.012661	0.00502638
 112	-0.00468463	-0.00361934	-0.000541731
 113	-0.00138699	-0.00714077	-0.00142665
 114	-0.00714776	-0.00229169	-0.00148547
 115	-0.00265093	-0.00364216	-0.00181573
 116	-0.00169079	-0.000298074	0.000376202
 117	-0.00381684	0.000601293	-0.000321968
 118	-0.000851314	-0.00041769	-0.00839961
 119	-0.00210945	-0.00497283	-0.00176033
 120	-0.00309597	-0.00197301	-0.00193235
 121	-0.00499349	-0.00932622	-0.000483313
 122	-0.00164317	-0.00673852	0.000370439
 123	-0.00675327	-0.00724437	-0.00192631
 124	-0.000286743	-0.0054599	-0.00197063
 125	-0.00237593	-0.000293966	-0.00121556
 126	-0.00428765	-0.0098623	0.00521834
 127	-0.00868599	0.00255924	-0.00190647
 128	-0.00192014	0.000285543	-0.00521152
 129	0.00058812	-0.00205793	-0.00374535