pySIMM System Object

678 atoms
740 bonds
1325 angles
2100 dihedrals
189 impropers

10 atom types
13 bond types
25 angle types
12 dihedral types
4 improper types

-138.189207 138.189207 xlo xhi
-138.189207 138.189207 ylo yhi
-138.189207 138.189207 zlo zhi

Masses

   1	14.01	# n
   2	12.01	# c
   3	12.01	# ca
   4	1.008	# hn
   5	16.0	# o
   6	1.008	# ha
   7	12.01	# c3
   8	1.008	# hc
   9	19.0	# f
  10	1.008	# h2

Pair Coeffs

   1	0.17	3.249998523775958	# n
   2	0.086	3.3996695084235347	# c
   3	0.086	3.3996695084235347	# ca
   4	0.0157	1.069078461768407	# hn
   5	0.21	2.959921901149463	# o
   6	0.015	2.59964245953351	# ha
   7	0.1094	3.3996695084235347	# c3
   8	0.0157	2.649532787749369	# hc
   9	0.061	3.1181455134911875	# f
  10	0.0157	2.2931733004932333	# h2

Bond Coeffs

   1	637.7	1.2183	# c,o
   2	321.0	1.5156	# c3,ca
   3	384.2	1.4121	# ca,n
   4	403.2	1.0129	# hn,n
   5	330.6	1.0969	# c3,hc
   6	427.6	1.3789	# c,n
   7	461.1	1.3984	# ca,ca
   8	345.9	1.4906	# c,ca
   9	300.9	1.5375	# c3,c3
  10	345.8	1.086	# ca,ha
  11	331.7	1.0961	# c3,h2
  12	356.9	1.3497	# c3,f
  13	328.7	1.4619	# c3,n

Angle Coeffs

   1	64.28	120.33	# c,ca,ca
   2	63.53	120.77	# c3,ca,ca
   3	66.62	120.02	# ca,ca,ca
   4	74.22	123.05	# n,c,o
   5	62.86	111.51	# c3,c3,c3
   6	63.74	127.08	# c,n,c
   7	63.15	112.07	# c3,c3,ca
   8	48.18	119.88	# ca,ca,ha
   9	67.87	120.19	# ca,ca,n
  10	68.72	122.6	# ca,c,o
  11	46.34	109.8	# c3,c3,hc
  12	63.0	118.11	# ca,c,ca
  13	63.82	123.71	# c,n,ca
  14	67.68	115.25	# ca,c,n
  15	63.56	112.24	# ca,c3,ca
  16	48.33	117.55	# c,n,hn
  17	39.4	107.58	# hc,c3,hc
  18	70.89	107.36	# f,c3,f
  19	66.11	109.24	# c3,c3,f
  20	46.25	110.22	# c3,c3,h2
  21	51.15	108.79	# f,c3,h2
  22	63.39	120.69	# c,n,c3
  23	65.91	111.61	# c3,c3,n
  24	69.52	110.41	# f,c3,n
  25	46.8	110.47	# ca,c3,hc

Dihedral Coeffs

   1	2	2.5	2	180	2.0	1	0	# hn,n,c,o
   2	1	3.625	2	180	# X,ca,ca,X
   3	1	0.16	3	0	# hc,c3,c3,c3
   4	1	1.0	2	180	# X,c,ca,X
   5	1	0.15555555555555556	3	0	# X,c3,c3,X
   6	1	0.0	2	0	# X,c3,ca,X
   7	1	2.5	2	180	# X,c,n,X
   8	1	0.45	2	180	# X,ca,n,X
   9	3	0.18	3	0	0.25	2	180	0.2	1	180	# c3,c3,c3,c3
  10	2	0.0	3	0	0.19	1	0	# hc,c3,c3,f
  11	4	0.5	4	180	0.15	3	180	0.0	2	0	0.53	1	0	# c3,c3,n,c
  12	1	0.0	2	0	# X,c3,n,X

Improper Coeffs

   1	10.5	-1	2	# c,X,X,o
   2	1.1	-1	2	# ca,X,X,ha
   3	1.1	-1	2	# ca,ca,ca,c3
   4	1.1	-1	2	# n,X,X,hn

Atoms

   1	1	1	0.463181	-1.83113	-18.8909	-13.6445
   2	1	2	0.074399	-1.48283	-18.352	-12.3998
   3	1	3	0.034296	-1.77688	-19.4313	-11.4034
   4	1	2	0.051625	-2.38669	-20.1567	-13.5238
   5	1	3	0.019035	-2.33972	-20.4922	-12.0717
   6	1	5	-0.389616	-1.00554	-17.257	-12.1459
   7	1	5	-0.380104	-2.66878	-20.9561	-14.3984
   8	1	3	-0.045097	-1.50366	-19.5544	-10.0131
   9	1	3	-0.056032	-2.81375	-21.6095	-11.3772
  10	1	3	-0.174781	-2.58811	-21.731	-9.99765
  11	1	3	-0.129342	-1.90462	-20.721	-9.29487
  12	1	6	0.168842	-0.942631	-18.8107	-9.48689
  13	1	6	0.15893	-3.28689	-22.4197	-11.9348
  14	1	6	0.147704	-2.81384	-22.6832	-9.53412
  15	1	2	0.584577	-1.39067	-20.91	-7.88075
  16	1	3	-0.046755	-2.18302	-21.6839	-6.87718
  17	1	3	-0.110868	-1.38929	-22.4346	-6.01628
  18	1	3	-0.046132	-1.99625	-23.2002	-4.98343
  19	1	3	-0.135873	-3.60083	-21.6519	-6.65095
  20	1	3	-0.117662	-4.18736	-22.4566	-5.65741
  21	1	3	-0.064457	-3.36455	-23.2341	-4.79093
  22	1	2	0.492569	-3.64561	-24.1201	-3.5749
  23	1	1	-0.072087	-2.4025	-24.6594	-3.20732
  24	1	2	0.477555	-1.37594	-24.1235	-4.00022
  25	1	3	0.042617	-2.14329	-25.5989	-2.14958
  26	1	3	-0.20367	-2.69209	-25.4354	-0.861782
  27	1	3	-0.057018	-2.26871	-26.2519	0.196287
  28	1	3	-0.18182	-1.22776	-26.6495	-2.37026
  29	1	3	-0.14326	-0.834313	-27.4666	-1.30649
  30	1	3	0.043342	-1.28277	-27.2449	0.0148842
  31	1	6	0.163244	-3.38082	-24.6135	-0.69299
  32	1	6	0.101178	-2.59292	-25.9952	1.18047
  33	1	6	0.165346	-5.27332	-22.4169	-5.54135
  34	1	6	0.135111	-4.25825	-21.0277	-7.24826
  35	1	6	0.171751	-0.298073	-22.5074	-6.15535
  36	1	5	-0.478239	-0.176715	-24.2647	-3.90864
  37	1	5	-0.481107	-4.72176	-24.3497	-3.03348
  38	1	5	-0.49957	-0.230416	-20.6336	-7.66096
  39	1	6	0.151248	-0.833993	-26.8194	-3.36526
  40	1	6	0.146138	-0.147649	-28.2731	-1.53772
  41	1	7	0.044043	-0.749223	-28.1164	1.19827
  42	1	7	-0.215975	-0.368042	-27.2623	2.48047
  43	1	8	0.063789	-1.18311	-26.5925	2.79431
  44	1	8	0.072206	0.460708	-26.5979	2.26207
  45	1	8	0.045489	-0.0785029	-27.8769	3.3437
  46	1	7	0.005306	-1.79291	-29.2351	1.55365
  47	1	7	0.164932	-1.03581	-30.5796	1.66021
  48	1	8	0.005277	-2.56775	-29.2967	0.762557
  49	1	8	0.017604	-2.35038	-29.0017	2.46861
  50	1	3	0.008363	0.335748	-30.2493	1.11838
  51	1	7	-0.151488	-1.68848	-31.7903	0.912759
  52	1	7	-0.269275	-0.835361	-30.9168	3.13144
  53	1	3	0.096378	0.49032	-28.9329	0.778313
  54	1	8	0.063418	-0.200148	-31.7973	3.28251
  55	1	8	0.061085	-1.7939	-31.0315	3.63243
  56	1	8	0.065045	-0.298743	-30.0948	3.64068
  57	1	3	-0.142025	1.37376	-31.1742	0.990533
  58	1	3	-0.448546	1.69433	-28.4982	0.147488
  59	1	3	0.277842	2.75789	-29.423	-0.051957
  60	1	3	-0.409063	2.55678	-30.7818	0.352488
  61	1	6	0.203923	1.8206	-27.4474	-0.0874478
  62	1	8	0.016419	-2.51699	-32.2082	1.4676
  63	1	8	0.049665	-0.965757	-32.5883	0.743369
  64	1	8	0.035794	-2.06964	-31.537	-0.0887051
  65	1	6	0.161583	1.21595	-32.2006	1.31782
  66	1	6	0.199011	3.32214	-31.5325	0.119191
  67	1	1	0.463181	-0.488637	-1.28439	-9.24233
  68	1	2	0.074399	-0.370101	-1.78106	-10.5638
  69	1	3	0.034296	-1.69513	-2.3633	-10.8354
  70	1	2	0.051625	-1.78442	-1.38528	-8.67845
  71	1	3	0.019035	-2.4956	-2.2008	-9.71712
  72	1	5	-0.389616	0.628589	-1.94731	-11.2585
  73	1	5	-0.380104	-2.20551	-1.10951	-7.56216
  74	1	3	-0.045097	-2.00176	-3.2371	-11.8705
  75	1	3	-0.056032	-3.69152	-2.88401	-9.58053
  76	1	3	-0.174781	-4.07906	-3.72384	-10.6616
  77	1	3	-0.129342	-3.22651	-3.92679	-11.7735
  78	1	6	0.168842	-1.28875	-3.38395	-12.6808
  79	1	6	0.15893	-4.25939	-2.80261	-8.65422
  80	1	6	0.147704	-5.02896	-4.26358	-10.6478
  81	1	2	0.584577	-3.64524	-4.90862	-12.83
  82	1	3	-0.046755	-2.81732	-6.12894	-13.0567
  83	1	3	-0.110868	-3.22217	-7.09485	-14.0195
  84	1	3	-0.046132	-2.39734	-8.19767	-14.2835
  85	1	3	-0.135873	-1.62742	-6.40537	-12.3179
  86	1	3	-0.117662	-0.793556	-7.51166	-12.6347
  87	1	3	-0.064457	-1.17072	-8.35169	-13.6934
  88	1	2	0.492569	-0.561389	-9.61957	-14.199
  89	1	1	-0.072087	-1.4578	-10.1129	-15.1351
  90	1	2	0.477555	-2.58449	-9.30417	-15.2501
  91	1	3	0.042617	-1.35435	-11.4105	-15.7452
  92	1	3	-0.20367	-1.82468	-11.5592	-17.0476
  93	1	3	-0.057018	-2.07871	-12.8471	-17.5406
  94	1	3	-0.18182	-0.831852	-12.5647	-15.1054
  95	1	3	-0.14326	-1.09759	-13.8646	-15.5844
  96	1	3	0.043342	-1.75367	-14.0326	-16.8149
  97	1	6	0.163244	-2.14966	-10.6996	-17.6296
  98	1	6	0.101178	-2.6175	-12.9155	-18.4939
  99	1	6	0.165346	0.157729	-7.69066	-12.1384
 100	1	6	0.135111	-1.31745	-5.73032	-11.5202
 101	1	6	0.171751	-4.1527	-7.03175	-14.5653
 102	1	5	-0.478239	-3.59273	-9.45957	-15.9349
 103	1	5	-0.481107	0.389841	-10.1698	-13.6671
 104	1	5	-0.49957	-4.64963	-4.72611	-13.4979
 105	1	6	0.151248	-0.290419	-12.4571	-14.1649
 106	1	6	0.146138	-0.770309	-14.7388	-15.0066
 107	1	7	0.044043	-2.23561	-15.4241	-17.3662
 108	1	7	-0.215975	-3.76861	-15.4303	-17.2246
 109	1	8	0.063789	-4.07336	-15.2647	-16.1859
 110	1	8	0.072206	-4.2403	-16.3503	-17.564
 111	1	8	0.045489	-4.15822	-14.5982	-17.8119
 112	1	7	0.005306	-1.8275	-15.6495	-18.8602
 113	1	7	0.164932	-0.698986	-16.7175	-18.8697
 114	1	8	0.005277	-1.55285	-14.7217	-19.385
 115	1	8	0.017604	-2.6958	-16.0517	-19.4166
 116	1	3	0.008363	-0.929192	-17.4321	-17.5387
 117	1	7	-0.151488	0.736204	-16.0852	-18.9021
 118	1	7	-0.269275	-0.988414	-17.6267	-20.0614
 119	1	3	0.096378	-1.73374	-16.6881	-16.6749
 120	1	8	0.063418	-1.16203	-17.0344	-20.9629
 121	1	8	0.061085	-1.89835	-18.2158	-19.881
 122	1	8	0.065045	-0.190288	-18.3358	-20.2386
 123	1	3	-0.142025	-0.399552	-18.6582	-17.1028
 124	1	3	-0.448546	-2.00947	-17.151	-15.373
 125	1	3	0.277842	-1.49821	-18.3688	-14.9224
 126	1	3	-0.409063	-0.725952	-19.1604	-15.8152
 127	1	6	0.203923	-2.5884	-16.5259	-14.7074
 128	1	8	0.016419	0.888615	-15.3526	-18.0988
 129	1	8	0.049665	0.852552	-15.5548	-19.8504
 130	1	8	0.035794	1.51985	-16.8676	-18.8053
 131	1	6	0.161583	0.213851	-19.2188	-17.8042
 132	1	6	0.199011	-0.284079	-20.0982	-15.4907
 133	1	1	0.463181	-0.103415	-3.01741	11.1478
 134	1	2	0.074399	-0.575529	-2.04891	10.286
 135	1	3	0.034296	0.0461652	-2.29972	8.96909
 136	1	2	0.051625	0.790887	-3.84817	10.4761
 137	1	3	0.019035	0.960418	-3.30328	9.11814
 138	1	5	-0.389616	-1.40888	-1.21687	10.4992
 139	1	5	-0.380104	1.31787	-4.86498	10.8655
 140	1	3	-0.045097	-0.0722962	-1.60334	7.7774
 141	1	3	-0.056032	1.75528	-3.74817	8.05601
 142	1	3	-0.174781	1.64776	-3.09744	6.80908
 143	1	3	-0.129342	0.734861	-2.00386	6.67681
 144	1	6	0.168842	-0.709063	-0.742477	7.71789
 145	1	6	0.15893	2.43374	-4.58957	8.22186
 146	1	6	0.147704	2.29664	-3.4275	5.96634
 147	1	2	0.584577	0.61266	-1.27989	5.3384
 148	1	3	-0.046755	0.537924	-2.05593	4.0265
 149	1	3	-0.110868	0.556629	-1.31275	2.83715
 150	1	3	-0.046132	0.588684	-1.98579	1.61709
 151	1	3	-0.135873	0.404869	-3.46009	3.93746
 152	1	3	-0.117662	0.458506	-4.12217	2.68325
 153	1	3	-0.064457	0.563793	-3.34387	1.54416
 154	1	2	0.492569	0.759387	-3.72705	0.115669
 155	1	1	-0.072087	0.890484	-2.50666	-0.603995
 156	1	2	0.477555	0.756977	-1.4118	0.269442
 157	1	3	0.042617	1.53523	-2.36896	-1.87558
 158	1	3	-0.20367	0.860608	-1.67506	-2.91387
 159	1	3	-0.057018	1.43013	-1.50815	-4.16967
 160	1	3	-0.18182	2.81944	-2.92855	-2.15535
 161	1	3	-0.14326	3.40539	-2.69243	-3.41412
 162	1	3	0.043342	2.70922	-1.99783	-4.43291
 163	1	6	0.163244	-0.144737	-1.28339	-2.7837
 164	1	6	0.101178	0.862494	-0.984835	-4.93789
 165	1	6	0.165346	0.412185	-5.19595	2.5816
 166	1	6	0.135111	0.287849	-4.05927	4.83613
 167	1	6	0.171751	0.550787	-0.228696	2.84057
 168	1	5	-0.478239	0.794805	-0.21017	0.0172079
 169	1	5	-0.481107	0.760083	-4.89176	-0.284041
 170	1	5	-0.49957	0.385423	-0.0791032	5.36736
 171	1	6	0.151248	3.33986	-3.55037	-1.42969
 172	1	6	0.146138	4.36768	-3.14007	-3.68978
 173	1	7	0.044043	3.28812	-1.83672	-5.88357
 174	1	7	-0.215975	3.80566	-3.17764	-6.48653
 175	1	8	0.063789	3.06963	-3.97426	-6.39902
 176	1	8	0.072206	4.73455	-3.49062	-6.0044
 177	1	8	0.045489	4.01958	-3.08346	-7.5702
 178	1	7	0.005306	4.49748	-0.855771	-5.85801
 179	1	7	0.164932	4.096	0.511788	-6.47612
 180	1	8	0.005277	5.2982	-1.27057	-6.46907
 181	1	8	0.017604	4.92984	-0.768571	-4.82536
 182	1	3	0.008363	2.82582	0.175766	-7.21605
 183	1	7	-0.151488	5.17572	1.13249	-7.37423
 184	1	7	-0.269275	3.84025	1.51993	-5.37052
 185	1	3	0.096378	2.36555	-1.11496	-6.89816
 186	1	8	0.063418	3.26361	2.34088	-5.78482
 187	1	8	0.061085	4.75182	1.94448	-4.90616
 188	1	8	0.065045	3.27494	1.06318	-4.55989
 189	1	3	-0.142025	2.23009	0.975394	-8.21188
 190	1	3	-0.448546	1.23736	-1.63087	-7.53543
 191	1	3	0.277842	0.634573	-0.837652	-8.53699
 192	1	3	-0.409063	1.10871	0.447575	-8.87191
 193	1	6	0.203923	0.887049	-2.65057	-7.32938
 194	1	8	0.016419	5.37663	0.511487	-8.25308
 195	1	8	0.049665	6.12422	1.27185	-6.86255
 196	1	8	0.035794	4.85965	2.12198	-7.74586
 197	1	6	0.161583	2.6359	1.95518	-8.47132
 198	1	6	0.199011	0.580602	1.0548	-9.62701
 199	1	7	0.070548	-1.93703	-3.5025	12.7639
 200	1	7	0.506757	-0.429011	-3.08178	12.569
 201	1	8	-0.012767	-2.20683	-4.26076	12.0242
 202	1	8	-0.014806	-2.57156	-2.64394	12.5069
 203	1	9	-0.274996	0.407514	-3.92905	13.2216
 204	1	9	-0.274736	-0.244542	-1.91424	13.1953
 205	1	7	0.070548	-2.05129	-5.45678	14.5616
 206	1	7	0.506757	-2.35885	-3.98512	14.1995
 207	1	8	-0.012767	-0.989091	-5.66103	14.3193
 208	1	8	-0.014806	-2.0881	-5.56534	15.6518
 209	1	9	-0.274996	-1.78245	-3.17109	15.1236
 210	1	9	-0.274736	-3.67549	-3.7808	14.3442
 211	1	7	0.070548	-2.46694	-7.95901	14.5924
 212	1	7	0.506757	-2.83343	-6.61646	13.9044
 213	1	8	-0.012767	-2.89582	-8.75561	13.9726
 214	1	8	-0.014806	-1.36981	-8.10189	14.5772
 215	1	9	-0.274996	-4.16603	-6.4582	13.7069
 216	1	9	-0.274736	-2.35816	-6.77379	12.6664
 217	1	1	0.463181	-8.67461	-16.0446	5.78793
 218	1	2	0.074399	-9.10661	-16.4696	7.03361
 219	1	3	0.034296	-8.01087	-17.3717	7.51669
 220	1	2	0.051625	-7.5565	-16.7388	5.35718
 221	1	3	0.019035	-7.13074	-17.5592	6.48143
 222	1	5	-0.389616	-10.0898	-16.1441	7.67479
 223	1	5	-0.380104	-6.91487	-16.5892	4.32929
 224	1	3	-0.045097	-7.76066	-17.9257	8.78351
 225	1	3	-0.056032	-5.9412	-18.2642	6.58424
 226	1	3	-0.174781	-5.68055	-18.8854	7.81615
 227	1	3	-0.129342	-6.55343	-18.6657	8.92017
 228	1	6	0.168842	-8.43416	-17.7188	9.60749
 229	1	6	0.15893	-5.24099	-18.3326	5.74933
 230	1	6	0.147704	-4.73947	-19.4297	7.95633
 231	1	2	0.584577	-6.12355	-19.294	10.1751
 232	1	3	-0.046755	-5.94155	-18.4363	11.4039
 233	1	3	-0.110868	-6.14147	-17.0149	11.4923
 234	1	3	-0.046132	-5.94161	-16.3998	12.7626
 235	1	3	-0.135873	-5.59797	-19.1288	12.5936
 236	1	3	-0.117662	-5.43468	-18.5165	13.8358
 237	1	3	-0.064457	-5.5775	-17.1391	13.8765
 238	1	2	0.492569	-5.4296	-16.2311	15.0418
 239	1	1	-0.072087	-5.77183	-14.9617	14.5883
 240	1	2	0.477555	-6.09005	-14.975	13.2298
 241	1	3	0.042617	-5.81695	-13.778	15.3961
 242	1	3	-0.20367	-6.84495	-13.5054	16.337
 243	1	3	-0.057018	-6.87053	-12.2853	17.0471
 244	1	3	-0.18182	-4.84776	-12.7912	15.1349
 245	1	3	-0.14326	-4.85209	-11.5866	15.8804
 246	1	3	0.043342	-5.86034	-11.2927	16.8497
 247	1	6	0.163244	-7.64889	-14.2441	16.5059
 248	1	6	0.101178	-7.65441	-12.0756	17.7852
 249	1	6	0.165346	-5.16735	-19.0844	14.7312
 250	1	6	0.135111	-5.45651	-20.1997	12.5569
 251	1	6	0.171751	-6.40048	-16.411	10.6207
 252	1	5	-0.478239	-6.53337	-14.0633	12.5611
 253	1	5	-0.481107	-5.01279	-16.5427	16.1477
 254	1	5	-0.49957	-5.8219	-20.4743	10.1705
 255	1	6	0.151248	-4.07812	-12.9781	14.4083
 256	1	6	0.146138	-4.02429	-10.918	15.6891
 257	1	7	0.044043	-5.88435	-9.95377	17.6724
 258	1	7	-0.215975	-7.14872	-9.13144	17.3822
 259	1	8	0.063789	-8.02878	-9.6524	17.7551
 260	1	8	0.072206	-7.26983	-8.96035	16.3108
 261	1	8	0.045489	-7.07871	-8.14868	17.8592
 262	1	7	0.005306	-5.76761	-10.1949	19.2165
 263	1	7	0.164932	-4.25138	-10.1956	19.5603
 264	1	8	0.005277	-6.30108	-11.0855	19.5779
 265	1	8	0.017604	-6.23319	-9.33969	19.7306
 266	1	3	0.008363	-3.71647	-9.33345	18.4097
 267	1	7	-0.151488	-3.69504	-11.6389	19.5428
 268	1	7	-0.269275	-3.93671	-9.63467	20.9714
 269	1	3	0.096378	-4.64327	-9.1296	17.3872
 270	1	8	0.063418	-2.84821	-9.61319	21.1386
 271	1	8	0.061085	-4.39643	-10.2391	21.7556
 272	1	8	0.065045	-4.32125	-8.61234	21.052
 273	1	3	-0.142025	-2.38829	-8.93555	18.2347
 274	1	3	-0.448546	-4.30375	-8.49191	16.1731
 275	1	3	0.277842	-2.95954	-8.17652	15.9893
 276	1	3	-0.409063	-2.0106	-8.33657	17.0124
 277	1	6	0.203923	-5.01622	-8.43561	15.3385
 278	1	8	0.016419	-2.64392	-11.6587	19.8393
 279	1	8	0.049665	-3.72976	-12.1045	18.5444
 280	1	8	0.035794	-4.29249	-12.2887	20.192
 281	1	6	0.161583	-1.64901	-9.12058	19.0086
 282	1	6	0.199011	-0.96081	-8.09193	16.8346
 283	1	1	0.463181	-12.8497	-11.2854	-11.9056
 284	1	2	0.074399	-12.6862	-11.7132	-10.561
 285	1	3	0.034296	-14.0081	-12.2371	-10.1501
 286	1	2	0.051625	-14.0477	-11.725	-12.4231
 287	1	3	0.019035	-14.8139	-12.3281	-11.2868
 288	1	5	-0.389616	-11.7005	-11.7131	-9.8174
 289	1	5	-0.380104	-14.4211	-11.6749	-13.5883
 290	1	3	-0.045097	-14.4891	-12.5201	-8.8611
 291	1	3	-0.056032	-16.1476	-12.7241	-11.1874
 292	1	3	-0.174781	-16.6506	-13.0139	-9.90834
 293	1	3	-0.129342	-15.8404	-12.9132	-8.74459
 294	1	6	0.168842	-13.8394	-12.3756	-7.99202
 295	1	6	0.15893	-16.8059	-12.7328	-12.0621
 296	1	6	0.147704	-17.7051	-13.2622	-9.78988
 297	1	2	0.584577	-16.4339	-13.1415	-7.37903
 298	1	3	-0.046755	-15.5117	-13.6523	-6.30674
 299	1	3	-0.110868	-15.424	-12.9632	-5.0651
 300	1	3	-0.046132	-14.5271	-13.4367	-4.06991
 301	1	3	-0.135873	-14.7787	-14.8251	-6.54035
 302	1	3	-0.117662	-13.9551	-15.3357	-5.53032
 303	1	3	-0.064457	-13.8251	-14.6121	-4.31653
 304	1	2	0.492569	-12.9594	-14.9249	-3.13565
 305	1	1	-0.072087	-13.1285	-13.829	-2.28104
 306	1	2	0.477555	-14.1226	-12.937	-2.70522
 307	1	3	0.042617	-12.1684	-13.562	-1.25357
 308	1	3	-0.20367	-12.0594	-14.3989	-0.138997
 309	1	3	-0.057018	-11.0462	-14.1921	0.808674
 310	1	3	-0.18182	-11.1333	-12.6169	-1.49347
 311	1	3	-0.14326	-10.0889	-12.4533	-0.568204
 312	1	3	0.043342	-10.0913	-13.1793	0.651648
 313	1	6	0.163244	-12.7838	-15.2015	0.0361167
 314	1	6	0.101178	-10.9645	-14.839	1.68024
 315	1	6	0.165346	-13.4164	-16.274	-5.69952
 316	1	6	0.135111	-14.8856	-15.3514	-7.48601
 317	1	6	0.171751	-16.0266	-12.0635	-4.91748
 318	1	5	-0.478239	-14.4513	-11.894	-2.17288
 319	1	5	-0.481107	-12.1732	-15.8565	-3.03532
 320	1	5	-0.49957	-17.6307	-13.0859	-7.16274
 321	1	6	0.151248	-11.1243	-12.0669	-2.42794
 322	1	6	0.146138	-9.29799	-11.7454	-0.794724
 323	1	7	0.044043	-8.94643	-13.0045	1.66135
 324	1	7	-0.215975	-7.69433	-13.7448	1.09193
 325	1	8	0.063789	-6.91594	-13.8518	1.85126
 326	1	8	0.072206	-7.26489	-13.2124	0.235755
 327	1	8	0.045489	-7.96849	-14.747	0.727132
 328	1	7	0.005306	-8.64405	-11.4821	1.93688
 329	1	7	0.164932	-9.44571	-11.0076	3.19185
 330	1	8	0.005277	-8.82686	-10.853	1.07878
 331	1	8	0.017604	-7.5638	-11.3911	2.16874
 332	1	3	0.008363	-9.54742	-12.3486	3.90268
 333	1	7	-0.151488	-10.7907	-10.3908	2.74356
 334	1	7	-0.269275	-8.70312	-9.91763	4.00224
 335	1	3	0.096378	-9.26119	-13.4506	3.09888
 336	1	8	0.063418	-7.67155	-10.2401	4.17092
 337	1	8	0.061085	-9.18523	-9.77866	4.97193
 338	1	8	0.065045	-8.68996	-8.93811	3.51083
 339	1	3	-0.142025	-9.6895	-12.5084	5.2944
 340	1	3	-0.448546	-9.02117	-14.7188	3.68745
 341	1	3	0.277842	-9.12674	-14.8904	5.101
 342	1	3	-0.409063	-9.45907	-13.7655	5.87447
 343	1	6	0.203923	-8.73454	-15.5594	3.06206
 344	1	8	0.016419	-10.6648	-9.4088	2.28163
 345	1	8	0.049665	-11.4539	-10.2593	3.60398
 346	1	8	0.035794	-11.3057	-11.0073	2.0216
 347	1	6	0.161583	-9.89982	-11.6628	5.93703
 348	1	6	0.199011	-9.4611	-13.8386	6.95776
 349	1	1	0.463181	-22.1493	-11.2727	-13.9716
 350	1	2	0.074399	-21.2077	-11.09	-12.9556
 351	1	3	0.034296	-21.9461	-10.5638	-11.7885
 352	1	2	0.051625	-23.4244	-10.8527	-13.5386
 353	1	3	0.019035	-23.279	-10.3944	-12.1333
 354	1	5	-0.389616	-19.9941	-11.1748	-12.9957
 355	1	5	-0.380104	-24.474	-10.8328	-14.136
 356	1	3	-0.045097	-21.4324	-10.1161	-10.5747
 357	1	3	-0.056032	-24.1861	-9.74269	-11.2714
 358	1	3	-0.174781	-23.6163	-9.12969	-10.1138
 359	1	3	-0.129342	-22.2409	-9.26923	-9.78341
 360	1	6	0.168842	-20.4056	-10.3461	-10.3035
 361	1	6	0.15893	-25.2159	-9.57044	-11.5632
 362	1	6	0.147704	-24.2382	-8.56444	-9.43706
 363	1	2	0.584577	-21.6461	-8.54043	-8.5707
 364	1	3	-0.046755	-20.2589	-7.93213	-8.71999
 365	1	3	-0.110868	-19.6924	-7.70706	-9.99902
 366	1	3	-0.046132	-18.4058	-7.16396	-10.0813
 367	1	3	-0.135873	-19.4615	-7.65233	-7.57932
 368	1	3	-0.117662	-18.2146	-7.01361	-7.67996
 369	1	3	-0.064457	-17.7003	-6.76483	-8.97094
 370	1	2	0.492569	-16.3668	-6.30369	-9.45381
 371	1	1	-0.072087	-16.366	-6.51869	-10.8184
 372	1	2	0.477555	-17.5579	-7.01471	-11.293
 373	1	3	0.042617	-15.2272	-6.28937	-11.6582
 374	1	3	-0.20367	-13.9655	-6.60408	-11.1617
 375	1	3	-0.057018	-12.839	-6.59724	-11.9994
 376	1	3	-0.18182	-15.3464	-5.91971	-13.0146
 377	1	3	-0.14326	-14.2369	-6.01362	-13.8891
 378	1	3	0.043342	-12.9808	-6.38937	-13.3905
 379	1	6	0.163244	-13.8327	-6.92972	-10.1462
 380	1	6	0.101178	-11.8743	-6.89504	-11.5808
 381	1	6	0.165346	-17.6274	-6.79304	-6.78585
 382	1	6	0.135111	-19.8088	-7.88847	-6.5885
 383	1	6	0.171751	-20.221	-7.93143	-10.909
 384	1	5	-0.478239	-17.9046	-7.28858	-12.4388
 385	1	5	-0.481107	-15.4489	-5.87858	-8.77031
 386	1	5	-0.49957	-22.2009	-8.51192	-7.4794
 387	1	6	0.151248	-16.3217	-5.67205	-13.4242
 388	1	6	0.146138	-14.3864	-5.82789	-14.9456
 389	1	7	0.044043	-11.8421	-6.91404	-14.3219
 390	1	7	-0.215975	-12.2499	-6.97577	-15.8185
 391	1	8	0.063789	-12.1084	-5.98423	-16.2972
 392	1	8	0.072206	-13.2735	-7.30123	-15.9844
 393	1	8	0.045489	-11.6397	-7.69743	-16.377
 394	1	7	0.005306	-10.4881	-6.18346	-14.1716
 395	1	7	0.164932	-9.3544	-7.25016	-14.0922
 396	1	8	0.005277	-10.5372	-5.60027	-13.2376
 397	1	8	0.017604	-10.3106	-5.40475	-14.903
 398	1	3	0.008363	-10.1174	-8.47825	-13.6384
 399	1	7	-0.151488	-8.26754	-6.80768	-13.0946
 400	1	7	-0.269275	-8.69075	-7.45889	-15.4829
 401	1	3	0.096378	-11.4947	-8.30828	-13.8318
 402	1	8	0.063418	-8.23776	-6.53403	-15.8313
 403	1	8	0.061085	-9.43817	-7.76214	-16.2191
 404	1	8	0.065045	-7.89268	-8.22797	-15.4641
 405	1	3	-0.142025	-9.60958	-9.60212	-12.9478
 406	1	3	-0.448546	-12.4015	-9.27263	-13.3352
 407	1	3	0.277842	-11.9243	-10.3943	-12.5911
 408	1	3	-0.409063	-10.5229	-10.5746	-12.488
 409	1	6	0.203923	-13.4637	-9.10706	-13.4197
 410	1	8	0.016419	-7.67789	-6.00109	-13.5166
 411	1	8	0.049665	-7.58219	-7.62102	-12.8237
 412	1	8	0.035794	-8.72777	-6.47111	-12.1669
 413	1	6	0.161583	-8.56782	-9.67106	-12.6663
 414	1	6	0.199011	-10.1602	-11.4012	-11.9157
 415	1	7	0.070548	-22.7601	-12.0128	-16.4112
 416	1	7	0.506757	-21.7119	-11.7007	-15.3298
 417	1	8	-0.012767	-22.2825	-11.9469	-17.4001
 418	1	8	-0.014806	-23.5111	-11.2223	-16.4813
 419	1	9	-0.274996	-20.9185	-10.7402	-15.8627
 420	1	9	-0.274736	-20.8914	-12.7554	-15.1721
 421	1	7	0.070548	-22.7016	-14.6564	-16.9251
 422	1	7	0.506757	-23.4219	-13.4149	-16.2732
 423	1	8	-0.012767	-23.4228	-15.4542	-16.9337
 424	1	8	-0.014806	-21.8684	-14.9664	-16.272
 425	1	9	-0.274996	-24.6642	-13.3029	-16.8263
 426	1	9	-0.274736	-23.5846	-13.6954	-14.9425
 427	1	7	0.070548	-23.2961	-14.1877	-19.5316
 428	1	7	0.506757	-22.2073	-14.5619	-18.4023
 429	1	8	-0.012767	-23.8386	-15.0801	-19.8657
 430	1	8	-0.014806	-24.0485	-13.5279	-19.1041
 431	1	9	-0.274996	-21.0761	-13.8176	-18.4017
 432	1	9	-0.274736	-21.7248	-15.8203	-18.6205
 433	1	7	0.070548	-21.5819	-14.2848	-21.4774
 434	1	7	0.506757	-22.7945	-13.5319	-20.8386
 435	1	8	-0.012767	-21.0961	-13.5687	-22.1648
 436	1	8	-0.014806	-20.8017	-14.5035	-20.7387
 437	1	9	-0.274996	-22.4423	-12.2663	-20.5479
 438	1	9	-0.274736	-23.8255	-13.3501	-21.7044
 439	1	7	0.070548	-20.6247	-16.3318	-22.8142
 440	1	7	0.506757	-21.8663	-15.5902	-22.2577
 441	1	8	-0.012767	-20.3733	-17.1765	-22.1508
 442	1	8	-0.014806	-20.9215	-16.7996	-23.7733
 443	1	9	-0.274996	-22.7214	-15.2753	-23.2514
 444	1	9	-0.274736	-22.4702	-16.432	-21.4535
 445	1	1	0.463181	-8.60803	-23.3193	-10.8228
 446	1	2	0.074399	-9.75522	-23.9656	-11.1672
 447	1	3	0.034296	-10.6546	-22.9361	-11.7204
 448	1	2	0.051625	-8.64441	-21.9636	-11.2068
 449	1	3	0.019035	-10.0157	-21.7151	-11.7956
 450	1	5	-0.389616	-10.014	-25.1349	-11.0249
 451	1	5	-0.380104	-7.76869	-21.1504	-10.9555
 452	1	3	-0.045097	-11.9829	-23.1136	-12.0688
 453	1	3	-0.056032	-10.7383	-20.5448	-12.1131
 454	1	3	-0.174781	-12.1073	-20.7027	-12.4356
 455	1	3	-0.129342	-12.7085	-21.9906	-12.4712
 456	1	6	0.168842	-12.4366	-24.1072	-12.0037
 457	1	6	0.15893	-10.2793	-19.5627	-12.0142
 458	1	6	0.147704	-12.7194	-19.8332	-12.6285
 459	1	2	0.584577	-14.1517	-22.2526	-12.7808
 460	1	3	-0.046755	-14.8048	-21.4884	-13.8844
 461	1	3	-0.110868	-14.0843	-20.6768	-14.8293
 462	1	3	-0.046132	-14.8158	-19.9505	-15.779
 463	1	3	-0.135873	-16.2044	-21.607	-14.0488
 464	1	3	-0.117662	-16.8982	-20.8594	-15.0611
 465	1	3	-0.064457	-16.1878	-20.0507	-15.9557
 466	1	2	0.492569	-16.6573	-19.1664	-17.0778
 467	1	1	-0.072087	-15.4843	-18.5654	-17.5322
 468	1	2	0.477555	-14.3338	-19.052	-16.883
 469	1	3	0.042617	-15.4158	-17.5333	-18.5111
 470	1	3	-0.20367	-15.7104	-17.7846	-19.8618
 471	1	3	-0.057018	-15.8468	-16.6981	-20.7889
 472	1	3	-0.18182	-15.0876	-16.2358	-18.0909
 473	1	3	-0.14326	-15.1493	-15.1503	-19.022
 474	1	3	0.043342	-15.6933	-15.3617	-20.3221
 475	1	6	0.163244	-15.9935	-18.7931	-20.1742
 476	1	6	0.101178	-16.1964	-16.8798	-21.8006
 477	1	6	0.165346	-17.9668	-21.0014	-15.1614
 478	1	6	0.135111	-16.7533	-22.2474	-13.3482
 479	1	6	0.171751	-13.0318	-20.527	-14.8241
 480	1	5	-0.478239	-13.1579	-18.7404	-17.1263
 481	1	5	-0.481107	-17.7834	-19.0955	-17.5671
 482	1	5	-0.49957	-14.7453	-23.1646	-12.1955
 483	1	6	0.151248	-14.8694	-16.0241	-17.0456
 484	1	6	0.146138	-14.9319	-14.1443	-18.6468
 485	1	7	0.044043	-16.2603	-14.1417	-21.0882
 486	1	7	-0.215975	-16.8227	-13.0671	-20.1042
 487	1	8	0.063789	-17.4461	-12.3329	-20.6005
 488	1	8	0.072206	-16.0377	-12.4998	-19.5781
 489	1	8	0.045489	-17.4681	-13.5453	-19.3543
 490	1	7	0.005306	-15.2388	-13.5407	-22.0815
 491	1	7	0.164932	-15.8905	-13.0598	-23.3963
 492	1	8	0.005277	-14.4475	-14.2849	-22.3217
 493	1	8	0.017604	-14.6841	-12.7152	-21.5928
 494	1	3	0.008363	-17.2541	-13.731	-23.2897
 495	1	7	-0.151488	-15.0948	-13.5535	-24.6612
 496	1	7	-0.269275	-15.9773	-11.5073	-23.3689
 497	1	3	0.096378	-17.3892	-14.405	-22.0694
 498	1	8	0.063418	-16.7448	-11.179	-22.6293
 499	1	8	0.061085	-16.2568	-11.1233	-24.3539
 500	1	8	0.065045	-15.0265	-11.0373	-23.0447
 501	1	3	-0.142025	-18.2207	-13.8315	-24.3093
 502	1	3	-0.448546	-18.5387	-15.1907	-21.9035
 503	1	3	0.277842	-19.4039	-15.4774	-22.9975
 504	1	3	-0.409063	-19.2358	-14.7876	-24.1969
 505	1	6	0.203923	-18.638	-15.7337	-20.9584
 506	1	8	0.016419	-15.2896	-14.6338	-24.8108
 507	1	8	0.049665	-14.0317	-13.4019	-24.4999
 508	1	8	0.035794	-15.4063	-13.0257	-25.5703
 509	1	6	0.161583	-18.0451	-13.2976	-25.2462
 510	1	6	0.199011	-19.9565	-14.9722	-24.9811
 511	1	1	0.463181	9.37382	-23.5053	-5.77902
 512	1	2	0.074399	8.1259	-24.0217	-6.17113
 513	1	3	0.034296	8.17755	-23.9478	-7.63342
 514	1	2	0.051625	10.1604	-23.0865	-6.78031
 515	1	3	0.019035	9.40699	-23.4277	-7.99211
 516	1	5	-0.389616	7.1005	-24.2536	-5.54864
 517	1	5	-0.380104	11.2267	-22.5288	-6.7193
 518	1	3	-0.045097	7.24752	-24.4152	-8.57159
 519	1	3	-0.056032	9.81299	-23.3488	-9.34041
 520	1	3	-0.174781	8.85575	-23.7625	-10.2623
 521	1	3	-0.129342	7.53671	-24.263	-9.95565
 522	1	6	0.168842	6.30046	-24.6995	-8.14945
 523	1	6	0.15893	10.7765	-23.0513	-9.68854
 524	1	6	0.147704	9.10966	-23.6791	-11.3333
 525	1	2	0.584577	6.62526	-24.7003	-11.0713
 526	1	3	-0.046755	5.17572	-24.4922	-11.0719
 527	1	3	-0.110868	4.27493	-25.5014	-11.4524
 528	1	3	-0.046132	2.89437	-25.231	-11.2714
 529	1	3	-0.135873	4.717	-23.2804	-10.5176
 530	1	3	-0.117662	3.32981	-23.0024	-10.4826
 531	1	3	-0.064457	2.4382	-24.0357	-10.7655
 532	1	2	0.492569	0.954093	-24.0744	-10.7148
 533	1	1	-0.072087	0.568006	-25.3495	-11.1175
 534	1	2	0.477555	1.68419	-26.0667	-11.5551
 535	1	3	0.042617	-0.787787	-25.7909	-11.224
 536	1	3	-0.20367	-1.82723	-24.901	-11.502
 537	1	3	-0.057018	-3.19018	-25.1743	-11.2338
 538	1	3	-0.18182	-1.17413	-27.0937	-10.8963
 539	1	3	-0.14326	-2.49777	-27.4255	-10.5995
 540	1	3	0.043342	-3.50364	-26.4498	-10.6564
 541	1	6	0.163244	-1.61959	-23.9165	-11.8367
 542	1	6	0.101178	-3.92614	-24.4115	-11.365
 543	1	6	0.165346	2.96958	-21.9981	-10.2717
 544	1	6	0.135111	5.45394	-22.5026	-10.1982
 545	1	6	0.171751	4.73296	-26.4417	-11.7446
 546	1	5	-0.478239	1.59556	-27.1105	-12.2145
 547	1	5	-0.481107	0.326489	-23.0163	-10.5189
 548	1	5	-0.49957	7.0365	-25.3393	-12.0097
 549	1	6	0.151248	-0.40973	-27.8497	-10.6998
 550	1	6	0.146138	-2.70484	-28.4834	-10.3142
 551	1	7	0.044043	-4.90613	-26.7705	-10.0972
 552	1	7	-0.215975	-5.56926	-27.6586	-11.134
 553	1	8	0.063789	-4.94432	-28.5678	-11.2547
 554	1	8	0.072206	-5.6548	-27.1667	-12.1132
 555	1	8	0.045489	-6.59514	-27.9318	-10.8468
 556	1	7	0.005306	-4.80145	-27.4682	-8.64927
 557	1	7	0.164932	-4.82198	-26.2935	-7.61055
 558	1	8	0.005277	-3.94237	-28.1584	-8.51203
 559	1	8	0.017604	-5.69638	-28.0699	-8.54956
 560	1	3	0.008363	-5.72878	-25.3295	-8.39739
 561	1	7	-0.151488	-3.40233	-25.6105	-7.40229
 562	1	7	-0.269275	-5.48332	-26.6167	-6.16857
 563	1	3	0.096378	-5.71347	-25.5263	-9.74886
 564	1	8	0.063418	-6.53715	-26.931	-6.27061
 565	1	8	0.061085	-5.4931	-25.7427	-5.4995
 566	1	8	0.065045	-4.92637	-27.4119	-5.70443
 567	1	3	-0.142025	-6.52652	-24.3123	-7.87294
 568	1	3	-0.448546	-6.65087	-24.8646	-10.5925
 569	1	3	0.277842	-7.57205	-23.9469	-10.0547
 570	1	3	-0.409063	-7.43119	-23.6611	-8.67981
 571	1	6	0.203923	-6.78759	-25.1409	-11.6327
 572	1	8	0.016419	-2.96519	-25.2404	-8.2828
 573	1	8	0.049665	-2.7	-26.245	-6.86805
 574	1	8	0.035794	-3.49982	-24.715	-6.77552
 575	1	6	0.161583	-6.58308	-24.1273	-6.82039
 576	1	6	0.199011	-8.06292	-22.8994	-8.22289
 577	1	7	0.070548	9.2912	-22.2696	-3.48165
 578	1	7	0.506757	9.68931	-23.5776	-4.32742
 579	1	8	-0.012767	9.72223	-21.3404	-3.94391
 580	1	8	-0.014806	8.1849	-22.0007	-3.60428
 581	1	9	-0.274996	9.24978	-24.8034	-3.73486
 582	1	9	-0.274736	11.0045	-23.5969	-4.29358
 583	1	7	0.070548	8.89283	-21.1113	-1.31117
 584	1	7	0.506757	9.59615	-22.3065	-2.00214
 585	1	8	-0.012767	7.80956	-21.1544	-1.21944
 586	1	8	-0.014806	9.04064	-20.404	-2.05049
 587	1	9	-0.274996	10.9832	-22.2243	-2.06339
 588	1	9	-0.274736	9.10173	-23.4357	-1.33841
 589	1	7	0.070548	9.9115	-19.0771	0.0621547
 590	1	7	0.506757	9.47677	-20.6052	0.00200241
 591	1	8	-0.012767	10.2196	-18.7297	-0.917413
 592	1	8	-0.014806	10.782	-18.852	0.764409
 593	1	9	-0.274996	10.4851	-21.3119	0.519564
 594	1	9	-0.274736	8.55331	-20.8892	1.00367
 595	1	7	0.070548	8.78983	-16.6372	0.0868667
 596	1	7	0.506757	8.79542	-18.1669	0.487994
 597	1	8	-0.012767	7.79844	-16.2385	0.151926
 598	1	8	-0.014806	9.04979	-16.5589	-1.01135
 599	1	9	-0.274996	8.52536	-18.284	1.78784
 600	1	9	-0.274736	7.65737	-18.5507	-0.149018
 601	1	7	0.070548	9.84887	-14.3882	0.502192
 602	1	7	0.506757	9.85927	-15.86	0.84018
 603	1	8	-0.012767	9.12356	-13.971	1.23615
 604	1	8	-0.014806	9.4171	-14.1931	-0.480432
 605	1	9	-0.274996	9.68608	-15.9924	2.19671
 606	1	9	-0.274736	11.0957	-16.3727	0.434654
 607	1	7	0.070548	12.0333	-14.0293	2.22257
 608	1	7	0.506757	11.1914	-13.6443	0.925981
 609	1	8	-0.012767	11.3612	-14.0984	3.19061
 610	1	8	-0.014806	12.4357	-15.0824	1.9403
 611	1	9	-0.274996	10.8779	-12.3759	0.861813
 612	1	9	-0.274736	11.8937	-13.7195	-0.130206
 613	1	1	0.463181	18.9411	-9.42091	17.533
 614	1	2	0.074399	18.386	-9.04166	16.2992
 615	1	3	0.034296	16.9234	-9.45925	16.3798
 616	1	2	0.051625	18.0449	-10.0521	18.3896