pySIMM System Object

1140 atoms
1244 bonds
2230 angles
3533 dihedrals
315 impropers

10 atom types
13 bond types
25 angle types
12 dihedral types
4 improper types

-81.021305 81.021305 xlo xhi
-81.021305 81.021305 ylo yhi
-81.021305 81.021305 zlo zhi

Masses

   1	12.01	# c3
   2	1.008	# hc
   3	19.0	# f
   4	1.008	# h2
   5	14.01	# n
   6	12.01	# c
   7	12.01	# ca
   8	1.008	# hn
   9	16.0	# o
  10	1.008	# ha

Pair Coeffs

   1	0.1094	3.3996695084235347	# c3
   2	0.0157	2.649532787749369	# hc
   3	0.061	3.1181455134911875	# f
   4	0.0157	2.2931733004932333	# h2
   5	0.17	3.249998523775958	# n
   6	0.086	3.3996695084235347	# c
   7	0.086	3.3996695084235347	# ca
   8	0.0157	1.069078461768407	# hn
   9	0.21	2.959921901149463	# o
  10	0.015	2.59964245953351	# ha

Bond Coeffs

   1	331.7	1.0961	# c3,h2
   2	330.6	1.0969	# c3,hc
   3	300.9	1.5375	# c3,c3
   4	356.9	1.3497	# c3,f
   5	637.7	1.2183	# c,o
   6	321.0	1.5156	# c3,ca
   7	384.2	1.4121	# ca,n
   8	403.2	1.0129	# hn,n
   9	427.6	1.3789	# c,n
  10	461.1	1.3984	# ca,ca
  11	345.9	1.4906	# c,ca
  12	345.8	1.086	# ca,ha
  13	328.7	1.4619	# c3,n

Angle Coeffs

   1	46.34	109.8	# c3,c3,hc
   2	70.89	107.36	# f,c3,f
   3	39.4	107.58	# hc,c3,hc
   4	66.11	109.24	# c3,c3,f
   5	46.25	110.22	# c3,c3,h2
   6	51.15	108.79	# f,c3,h2
   7	62.86	111.51	# c3,c3,c3
   8	64.28	120.33	# c,ca,ca
   9	63.53	120.77	# c3,ca,ca
  10	66.62	120.02	# ca,ca,ca
  11	74.22	123.05	# n,c,o
  12	63.74	127.08	# c,n,c
  13	63.15	112.07	# c3,c3,ca
  14	48.18	119.88	# ca,ca,ha
  15	67.87	120.19	# ca,ca,n
  16	68.72	122.6	# ca,c,o
  17	63.0	118.11	# ca,c,ca
  18	63.82	123.71	# c,n,ca
  19	67.68	115.25	# ca,c,n
  20	63.56	112.24	# ca,c3,ca
  21	48.33	117.55	# c,n,hn
  22	46.8	110.47	# ca,c3,hc
  23	63.39	120.69	# c,n,c3
  24	65.91	111.61	# c3,c3,n
  25	69.52	110.41	# f,c3,n

Dihedral Coeffs

   1	2	0.0	3	0	0.19	1	0	# hc,c3,c3,f
   2	1	0.15555555555555556	3	0	# X,c3,c3,X
   3	1	0.16	3	0	# hc,c3,c3,c3
   4	3	0.18	3	0	0.25	2	180	0.2	1	180	# c3,c3,c3,c3
   5	2	2.5	2	180	2.0	1	0	# hn,n,c,o
   6	1	3.625	2	180	# X,ca,ca,X
   7	1	1.0	2	180	# X,c,ca,X
   8	1	0.0	2	0	# X,c3,ca,X
   9	1	2.5	2	180	# X,c,n,X
  10	1	0.45	2	180	# X,ca,n,X
  11	4	0.5	4	180	0.15	3	180	0.0	2	0	0.53	1	0	# c3,c3,n,c
  12	1	0.0	2	0	# X,c3,n,X

Improper Coeffs

   1	10.5	-1	2	# c,X,X,o
   2	1.1	-1	2	# ca,X,X,ha
   3	1.1	-1	2	# ca,ca,ca,c3
   4	1.1	-1	2	# n,X,X,hn

Atoms

   1	1	1	0.070548	13.1928	-20.6655	-55.6647
   2	1	1	0.506757	14.4648	-21.3641	-55.126
   3	1	2	-0.012767	13.4082	-20.2765	-56.6704
   4	1	2	-0.014806	12.4101	-21.4233	-55.8083
   5	1	3	-0.274996	14.154	-22.1742	-54.0888
   6	1	3	-0.274736	15.406	-20.4896	-54.7098
   7	1	1	0.070548	12.3121	-19.8988	-53.3159
   8	1	1	0.506757	12.6096	-19.5172	-54.7923
   9	1	2	-0.012767	13.2475	-20.1769	-52.8146
  10	1	2	-0.014806	11.6859	-20.8	-53.3213
  11	1	3	-0.274996	13.4757	-18.4771	-54.8264
  12	1	3	-0.274736	11.4623	-19.1074	-55.3939
  13	1	1	0.070548	12.322	-17.4423	-52.4106
  14	1	1	0.506757	11.6002	-18.8189	-52.4538
  15	1	2	-0.012767	12.1426	-16.9329	-53.3598
  16	1	2	-0.014806	13.4033	-17.6147	-52.3524
  17	1	3	-0.274996	11.4407	-19.3461	-51.2169
  18	1	3	-0.274736	10.3588	-18.6308	-52.9318
  19	1	1	0.070548	12.621	-15.1135	-51.3673
  20	1	1	0.506757	11.9332	-16.501	-51.2373
  21	1	2	-0.012767	13.7097	-15.2551	-51.4018
  22	1	2	-0.014806	12.4283	-14.5312	-50.4552
  23	1	3	-0.274996	12.342	-17.0504	-50.067
  24	1	3	-0.274736	10.5879	-16.3436	-51.1475
  25	1	5	0.463181	9.52073	-2.41666	-42.8318
  26	1	6	0.074399	9.43638	-2.66475	-44.205
  27	1	7	0.034296	10.8029	-2.44062	-44.7295
  28	1	6	0.051625	10.8125	-2.06569	-42.4344
  29	1	7	0.019035	11.6218	-2.07963	-43.6779
  30	1	9	-0.389616	8.4562	-2.91952	-44.8811
  31	1	9	-0.380104	11.1897	-1.68372	-41.3377
  32	1	7	-0.045097	11.2587	-2.46006	-46.0528
  33	1	7	-0.056032	12.9536	-1.70917	-43.8796
  34	1	7	-0.174781	13.4298	-1.6961	-45.2052
  35	1	7	-0.129342	12.5971	-2.06922	-46.2987
  36	1	10	0.168842	10.5631	-2.68902	-46.8575
  37	1	10	0.15893	13.5783	-1.40074	-43.0462
  38	1	10	0.147704	14.45	-1.36429	-45.3962
  39	1	6	0.584577	13.1237	-1.92736	-47.7065
  40	1	7	-0.046755	12.5537	-2.75937	-48.8225
  41	1	7	-0.110868	12.3086	-4.14478	-48.6566
  42	1	7	-0.046132	11.8179	-4.85969	-49.7623
  43	1	7	-0.135873	12.3356	-2.15334	-50.0887
  44	1	7	-0.117662	11.8481	-2.89403	-51.1845
  45	1	7	-0.064457	11.5793	-4.25151	-50.9805
  46	1	6	0.492569	11.0853	-5.28888	-51.9301
  47	1	5	-0.072087	11.0981	-6.48519	-51.2258
  48	1	6	0.477555	11.5195	-6.31003	-49.916
  49	1	7	0.042617	10.7635	-7.74242	-51.807
  50	1	7	-0.20367	11.6853	-8.80511	-51.8173
  51	1	7	-0.057018	11.3644	-10.0294	-52.4407
  52	1	7	-0.18182	9.53202	-7.91069	-52.466
  53	1	7	-0.14326	9.21481	-9.12845	-53.089
  54	1	7	0.043342	10.1033	-10.2216	-53.0604
  55	1	10	0.163244	12.6532	-8.68852	-51.3362
  56	1	10	0.101178	12.0943	-10.8316	-52.3981
  57	1	10	0.165346	11.6856	-2.43274	-52.1548
  58	1	10	0.135111	12.5622	-1.09367	-50.2202
  59	1	10	0.171751	12.5216	-4.65702	-47.725
  60	1	9	-0.478239	11.6571	-7.16016	-49.0554
  61	1	9	-0.481107	10.758	-5.11495	-53.0925
  62	1	9	-0.49957	13.9837	-1.09664	-47.9475
  63	1	10	0.151248	8.82181	-7.08736	-52.5109
  64	1	10	0.146138	8.24892	-9.23056	-53.5761
  65	1	1	0.044043	9.65183	-11.5735	-53.6608
  66	1	1	-0.215975	8.35261	-12.0812	-52.984
  67	1	2	0.063789	8.42911	-12.0293	-51.8913
  68	1	2	0.072206	8.14245	-13.1221	-53.2561
  69	1	2	0.045489	7.4846	-11.4745	-53.2873
  70	1	1	0.005306	9.41126	-11.4729	-55.1965
  71	1	1	0.164932	10.706	-11.9528	-55.9079
  72	1	2	0.005277	9.12239	-10.4616	-55.5154
  73	1	2	0.017604	8.58218	-12.1345	-55.4802
  74	1	7	0.008363	11.3629	-12.8012	-54.8303
  75	1	1	-0.151488	11.5891	-10.7403	-56.2927
  76	1	1	-0.269275	10.3661	-12.782	-57.1658
  77	1	7	0.096378	10.7488	-12.6227	-53.5956
  78	1	2	0.063418	11.2821	-13.0719	-57.6959
  79	1	2	0.061085	9.73579	-12.2135	-57.8553
  80	1	2	0.065045	9.82858	-13.7004	-56.8878
  81	1	7	-0.142025	12.446	-13.6876	-54.9652
  82	1	7	-0.448546	11.1302	-13.3779	-52.4736
  83	1	7	0.277842	12.1851	-14.3057	-52.591
  84	1	7	-0.409063	12.8648	-14.4167	-53.8318
  85	1	10	0.203923	10.6165	-13.2498	-51.5268
  86	1	2	0.016419	11.7937	-10.1046	-55.4232
  87	1	2	0.049665	11.098	-10.1201	-57.0579
  88	1	2	0.035794	12.5483	-11.0764	-56.6976
  89	1	10	0.161583	12.9495	-13.7947	-55.9216
  90	1	10	0.199011	13.7109	-15.0911	-53.9212
  91	1	5	0.463181	13.7813	3.55131	-24.7212
  92	1	6	0.074399	13.2067	2.27529	-24.7901
  93	1	7	0.034296	13.1942	1.93427	-26.2397
  94	1	6	0.051625	14.1232	4.05235	-25.9784
  95	1	7	0.019035	13.754	2.9841	-26.9445
  96	1	9	-0.389616	12.8531	1.54887	-23.8826
  97	1	9	-0.380104	14.67	5.11164	-26.2519
  98	1	7	-0.045097	12.7858	0.761329	-26.8864
  99	1	7	-0.056032	13.9128	2.92112	-28.3339
 100	1	7	-0.174781	13.4895	1.75662	-29.0064
 101	1	7	-0.129342	12.9233	0.668607	-28.2914
 102	1	10	0.168842	12.3881	-0.0686609	-26.3051
 103	1	10	0.15893	14.3634	3.7533	-28.8707
 104	1	10	0.147704	13.6311	1.69263	-30.0872
 105	1	6	0.584577	12.5599	-0.637299	-28.9615
 106	1	7	-0.046755	12.3591	-0.712829	-30.454
 107	1	7	-0.110868	11.2843	-0.0291212	-31.0798
 108	1	7	-0.046132	11.0859	-0.214051	-32.4608
 109	1	7	-0.135873	13.1997	-1.55097	-31.2276
 110	1	7	-0.117662	13.0086	-1.68516	-32.6148
 111	1	7	-0.064457	11.941	-0.998579	-33.2091
 112	1	6	0.492569	11.4261	-1.06505	-34.6061
 113	1	5	-0.072087	10.2199	-0.37248	-34.5987
 114	1	6	0.477555	9.95546	0.197616	-33.3467
 115	1	7	0.042617	9.34905	-0.304489	-35.7307
 116	1	7	-0.20367	8.59266	0.85691	-35.9943
 117	1	7	-0.057018	7.75925	0.927813	-37.122
 118	1	7	-0.18182	9.22508	-1.40047	-36.6049
 119	1	7	-0.14326	8.40642	-1.32576	-37.738
 120	1	7	0.043342	7.66915	-0.153726	-38.0248
 121	1	10	0.163244	8.65648	1.72097	-35.3366
 122	1	10	0.101178	7.20247	1.84517	-37.2974
 123	1	10	0.165346	13.6343	-2.34761	-33.2069
 124	1	10	0.135111	13.9921	-2.11614	-30.7369
 125	1	10	0.171751	10.571	0.568467	-30.4993
 126	1	9	-0.478239	8.97375	0.844194	-32.9998
 127	1	9	-0.481107	11.9664	-1.63886	-35.5349
 128	1	9	-0.49957	12.5567	-1.66101	-28.2982
 129	1	10	0.151248	9.78034	-2.31563	-36.4248
 130	1	10	0.146138	8.36855	-2.18771	-38.3989
 131	1	1	0.044043	6.79917	-0.0400829	-39.2943
 132	1	1	-0.215975	6.98591	1.33665	-39.9859
 133	1	2	0.063789	6.52788	2.14717	-39.4069
 134	1	2	0.072206	6.51038	1.34264	-40.9842
 135	1	2	0.045489	8.05214	1.56397	-40.122
 136	1	1	0.005306	5.29215	-0.302435	-38.9758
 137	1	1	0.164932	4.94257	-1.77089	-39.3769
 138	1	2	0.005277	4.67889	0.379397	-39.5804
 139	1	2	0.017604	5.04554	-0.0852352	-37.9269
 140	1	7	0.008363	6.07921	-2.10148	-40.3342
 141	1	1	-0.151488	3.53934	-1.87505	-40.0274
 142	1	1	-0.269275	4.98274	-2.7002	-38.1413
 143	1	7	0.096378	7.08653	-1.14686	-40.2892
 144	1	2	0.063418	4.23359	-2.39475	-37.3976
 145	1	2	0.061085	5.96772	-2.68542	-37.6583
 146	1	2	0.065045	4.76368	-3.73683	-38.4259
 147	1	7	-0.142025	6.22474	-3.23253	-41.1518
 148	1	7	-0.448546	8.23939	-1.26544	-41.0749
 149	1	7	0.277842	8.38559	-2.35598	-41.9594
 150	1	7	-0.409063	7.36395	-3.33644	-41.9803
 151	1	10	0.203923	9.00421	-0.499896	-41.0011
 152	1	2	0.016419	2.75901	-1.55346	-39.3265
 153	1	2	0.049665	3.31793	-2.90782	-40.3247
 154	1	2	0.035794	3.46368	-1.24868	-40.9225
 155	1	10	0.161583	5.45266	-3.99847	-41.1673
 156	1	10	0.199011	7.45707	-4.18413	-42.658
 157	1	1	0.070548	15.4358	4.11622	-22.8767
 158	1	1	0.506757	13.9888	4.287	-23.4278
 159	1	2	-0.012767	15.6199	3.03832	-22.7616
 160	1	2	-0.014806	16.1318	4.44639	-23.6592
 161	1	3	-0.274996	13.1156	3.88776	-22.4753
 162	1	3	-0.274736	13.7063	5.59896	-23.5735
 163	1	1	0.070548	15.1826	4.19263	-20.2684
 164	1	1	0.506757	15.828	4.83576	-21.5258
 165	1	2	-0.012767	15.2533	3.10059	-20.385
 166	1	2	-0.014806	14.1125	4.42856	-20.2575
 167	1	3	-0.274996	17.1706	4.75716	-21.4202
 168	1	3	-0.274736	15.5583	6.16367	-21.5386
 169	1	1	0.070548	15.5738	6.04626	-18.4332
 170	1	1	0.506757	15.7801	4.56401	-18.881
 171	1	2	-0.012767	16.2844	6.68852	-18.971
 172	1	2	-0.014806	14.578	6.37627	-18.7668
 173	1	3	-0.274996	17.0837	4.21674	-18.8198
 174	1	3	-0.274736	15.1756	3.73139	-18.0175
 175	1	1	0.070548	15.6573	7.87002	-16.652
 176	1	1	0.506757	15.7	6.34184	-16.9071
 177	1	2	-0.012767	14.6872	8.23889	-17.0173
 178	1	2	-0.014806	16.4199	8.34583	-17.2864
 179	1	3	-0.274996	16.8333	5.8116	-16.398
 180	1	3	-0.274736	14.6553	5.79173	-16.2455
 181	1	1	0.070548	15.4002	9.81864	-14.9603
 182	1	1	0.506757	15.8494	8.34747	-15.1844
 183	1	2	-0.012767	14.3104	9.87602	-15.0934
 184	1	2	-0.014806	15.587	10.0925	-13.9115
 185	1	3	-0.274996	15.1392	7.59	-14.3278
 186	1	3	-0.274736	17.1332	8.17969	-14.8186
 187	1	1	0.070548	15.7378	12.2949	-15.3524
 188	1	1	0.506757	16.0327	10.8757	-15.8972
 189	1	2	-0.012767	16.1062	12.3425	-14.3319
 190	1	2	-0.014806	14.6531	12.4178	-15.2567
 191	1	3	-0.274996	15.518	10.7654	-17.148
 192	1	3	-0.274736	17.3559	10.64	-16.0013
 193	1	1	0.070548	15.6654	13.875	-17.4739
 194	1	1	0.506757	16.3572	13.4813	-16.1368
 195	1	2	-0.012767	16.1652	14.7774	-17.8552
 196	1	2	-0.014806	15.854	13.0998	-18.2363
 197	1	3	-0.274996	17.6556	13.2305	-16.4063
 198	1	3	-0.274736	16.3838	14.5613	-15.3247
 199	1	1	0.070548	13.6097	15.116	-18.462
 200	1	1	0.506757	14.1326	14.1381	-17.3761
 201	1	2	-0.012767	14.3972	15.8412	-18.7237
 202	1	2	-0.014806	13.4185	14.5534	-19.3895
 203	1	3	-0.274996	13.8105	14.5884	-16.1471
 204	1	3	-0.274736	13.4798	12.9588	-17.516
 205	1	1	0.070548	11.077	15.0564	-17.6859
 206	1	1	0.506757	12.3354	15.9105	-18.0643
 207	1	2	-0.012767	10.2275	15.3976	-18.2952
 208	1	2	-0.014806	11.2333	14.0114	-17.9867
 209	1	3	-0.274996	12.0056	16.6768	-19.128
 210	1	3	-0.274736	12.6384	16.778	-17.0672
 211	1	5	0.463181	26.8075	15.2341	-7.30699
 212	1	6	0.074399	26.5353	13.9673	-7.84444
 213	1	7	0.034296	25.0779	13.9875	-8.17204
 214	1	6	0.051625	25.6966	16.0784	-7.31113
 215	1	7	0.019035	24.593	15.2388	-7.84507
 216	1	9	-0.389616	27.2867	13.0137	-7.92312
 217	1	9	-0.380104	25.5788	17.2033	-6.83514
 218	1	7	-0.045097	24.233	12.9988	-8.71284
 219	1	7	-0.056032	23.2466	15.5627	-8.01077
 220	1	7	-0.174781	22.3705	14.5704	-8.49231
 221	1	7	-0.129342	22.8456	13.2763	-8.83372
 222	1	10	0.168842	24.638	12.0231	-8.97778
 223	1	10	0.15893	22.8968	16.5614	-7.76115
 224	1	10	0.147704	21.3217	14.8313	-8.62219
 225	1	6	0.584577	21.8948	12.2108	-9.33843
 226	1	7	-0.046755	20.4052	12.411	-9.18483
 227	1	7	-0.110868	19.5871	12.3393	-10.3276
 228	1	7	-0.046132	18.2204	12.5936	-10.1633
 229	1	7	-0.135873	19.8216	12.7149	-7.92362
 230	1	7	-0.117662	18.4323	12.944	-7.78281
 231	1	7	-0.064457	17.6469	12.8564	-8.93317
 232	1	6	0.492569	16.1739	13.0197	-9.12144
 233	1	5	-0.072087	15.9726	12.8431	-10.486
 234	1	6	0.477555	17.1437	12.5626	-11.1667
 235	1	7	0.042617	14.703	12.8757	-11.1058
 236	1	7	-0.20367	13.6131	12.2263	-10.5112
 237	1	7	-0.057018	12.3504	12.2593	-11.1127
 238	1	7	-0.18182	14.5065	13.5819	-12.3054
 239	1	7	-0.14326	13.2335	13.6187	-12.9019
 240	1	7	0.043342	12.1285	12.9822	-12.2996
 241	1	10	0.163244	13.7346	11.7042	-9.56767
 242	1	10	0.101178	11.5284	11.7538	-10.6179
 243	1	10	0.165346	17.9828	13.1745	-6.82079
 244	1	10	0.135111	20.4579	12.7787	-7.04558
 245	1	10	0.171751	20.0011	12.1196	-11.3077
 246	1	9	-0.478239	17.2832	12.2083	-12.3182
 247	1	9	-0.481107	15.3391	13.2432	-8.25689
 248	1	9	-0.49957	22.3269	11.2556	-9.96063
 249	1	10	0.151248	15.3378	14.1099	-12.7688
 250	1	10	0.146138	13.1134	14.1971	-13.8139
 251	1	1	0.044043	10.7009	13.0697	-12.8874
 252	1	1	-0.215975	10.2899	11.6683	-13.4226
 253	1	2	0.063789	11.0094	11.3013	-14.1594
 254	1	2	0.072206	9.30565	11.6946	-13.9087
 255	1	2	0.045489	10.2365	10.93	-12.6132
 256	1	1	0.005306	9.6649	13.5875	-11.8261
 257	1	1	0.164932	9.48305	15.1246	-12.0297
 258	1	2	0.005277	9.93447	13.3393	-10.7983
 259	1	2	0.017604	8.70864	13.0932	-12.0061
 260	1	7	0.008363	9.88335	15.2744	-13.4854
 261	1	1	-0.151488	10.4484	15.9306	-11.1314
 262	1	1	-0.269275	8.01401	15.5811	-11.7887
 263	1	7	0.096378	10.5396	14.1447	-13.9602
 264	1	2	0.063418	7.69784	15.3986	-10.7529
 265	1	2	0.061085	7.32859	15.0404	-12.4531
 266	1	2	0.065045	7.90168	16.654	-11.987
 267	1	7	-0.142025	9.60994	16.3567	-14.339
 268	1	7	-0.448546	10.8971	14.0506	-15.3231
 269	1	7	0.277842	10.6621	15.1307	-16.2064
 270	1	7	-0.409063	10.0137	16.2754	-15.6905
 271	1	10	0.203923	11.3673	13.153	-15.697
 272	1	2	0.016419	10.2066	15.7689	-10.0704
 273	1	2	0.049665	10.3681	17.008	-11.3416
 274	1	2	0.035794	11.4918	15.6364	-11.3009
 275	1	10	0.161583	9.10327	17.2436	-13.9673
 276	1	10	0.199011	9.83177	17.1197	-16.3469
 277	1	1	0.070548	28.1433	15.4059	-5.1895
 278	1	1	0.506757	28.1149	15.6353	-6.73442
 279	1	2	-0.012767	28.341	14.3409	-5.00124
 280	1	2	-0.014806	27.1385	15.5913	-4.77992
 281	1	3	-0.274996	28.3677	16.9332	-7.02279
 282	1	3	-0.274736	29.1573	14.987	-7.30685
 283	1	1	0.070548	30.5891	16.2532	-5.00788
 284	1	1	0.506757	29.1665	16.2651	-4.39654
 285	1	2	-0.012767	30.5753	16.9036	-5.89215
 286	1	2	-0.014806	30.8232	15.2421	-5.36818
 287	1	3	-0.274996	29.1958	15.7991	-3.12668
 288	1	3	-0.274736	28.7088	17.5365	-4.29454
 289	1	1	0.070548	33.0058	17.0608	-4.94549
 290	1	1	0.506757	31.7553	16.7185	-4.0907
 291	1	2	-0.012767	32.6937	17.2809	-5.97415
 292	1	2	-0.014806	33.659	16.1829	-5.02313
 293	1	3	-0.274996	32.1237	15.7075	-3.26505
 294	1	3	-0.274736	31.3674	17.7472	-3.30736
 295	1	1	0.070548	35.1985	18.4223	-5.24761
 296	1	1	0.506757	33.8545	18.2634	-4.47255
 297	1	2	-0.012767	35.8755	17.6306	-4.89288
 298	1	2	-0.014806	35.6609	19.3639	-4.93255
 299	1	3	-0.274996	34.1385	18.152	-3.15345
 300	1	3	-0.274736	33.1305	19.3906	-4.59325
 301	1	1	0.070548	34.3102	19.4086	-7.57119
 302	1	1	0.506757	35.1795	18.3741	-6.81011
 303	1	2	-0.012767	33.2601	19.3009	-7.2804
 304	1	2	-0.014806	34.3378	19.1837	-8.64836
 305	1	3	-0.274996	34.842	17.1324	-7.24026
 306	1	3	-0.274736	36.4459	18.5596	-7.23992
 307	1	5	0.463181	39.7251	15.8145	5.84114
 308	1	6	0.074399	39.18	16.8876	6.53125
 309	1	7	0.034296	37.8213	17.077	5.93632
 310	1	6	0.051625	38.8048	15.1823	4.99255
 311	1	7	0.019035	37.6124	16.0673	5.00907
 312	1	9	-0.389616	39.6871	17.5171	7.44594
 313	1	9	-0.380104	38.9333	14.1525	4.36566
 314	1	7	-0.045097	36.8403	18.0548	6.17908
 315	1	7	-0.056032	36.4728	16.0172	4.20294
 316	1	7	-0.174781	35.5094	17.0337	4.39369
 317	1	7	-0.129342	35.6736	18.0518	5.36688
 318	1	10	0.168842	36.9983	18.825	6.93711
 319	1	10	0.15893	36.3418	15.2475	3.44857
 320	1	10	0.147704	34.6169	17.0301	3.76654
 321	1	6	0.584577	34.6111	19.124	5.5479
 322	1	7	-0.046755	33.9412	19.7815	4.35029
 323	1	7	-0.110868	34.5269	19.7603	3.0589
 324	1	7	-0.046132	33.9077	20.4696	2.01784
 325	1	7	-0.135873	32.7612	20.5586	4.53738
 326	1	7	-0.117662	32.1583	21.2683	3.47515
 327	1	7	-0.064457	32.7573	21.2054	2.21283
 328	1	6	0.492569	32.4034	21.8448	0.920134
 329	1	5	-0.072087	33.4053	21.4808	0.0230542
 330	1	6	0.477555	34.3224	20.6221	0.603374
 331	1	7	0.042617	33.5184	21.9754	-1.30824
 332	1	7	-0.20367	34.7722	22.3273	-1.84544
 333	1	7	-0.057018	34.8752	22.9116	-3.11965
 334	1	7	-0.18182	32.3729	22.1618	-2.10497
 335	1	7	-0.14326	32.4738	22.766	-3.36736
 336	1	7	0.043342	33.7201	23.2003	-3.87308
 337	1	10	0.163244	35.6801	22.1836	-1.27063
 338	1	10	0.101178	35.857	23.1853	-3.48436
 339	1	10	0.165346	31.2696	21.8713	3.6337
 340	1	10	0.135111	32.3224	20.6332	5.53161
 341	1	10	0.171751	35.4608	19.236	2.86648
 342	1	9	-0.478239	35.3655	20.195	0.144146
 343	1	9	-0.481107	31.4164	22.5201	0.696053
 344	1	9	-0.49957	34.314	19.4775	6.67782
 345	1	10	0.151248	31.3885	21.8929	-1.72817
 346	1	10	0.146138	31.5577	22.9455	-3.91251
 347	1	1	0.044043	33.8322	23.8993	-5.25113
 348	1	1	-0.215975	32.4602	24.3167	-5.86127
 349	1	2	0.063789	32.6047	24.8597	-6.80151
 350	1	2	0.072206	31.9116	24.9734	-5.17127
 351	1	2	0.045489	31.8371	23.4442	-6.07969
 352	1	1	0.005306	34.8307	25.1258	-5.27067
 353	1	1	0.164932	35.883	24.9159	-6.41481
 354	1	2	0.005277	35.3516	25.2265	-4.30368
 355	1	2	0.017604	34.2905	26.0838	-5.40927
 356	1	7	0.008363	35.6494	23.4708	-6.80601
 357	1	1	-0.151488	37.3556	25.1153	-5.97194
 358	1	1	-0.269275	35.526	25.8527	-7.6086
 359	1	7	0.096378	34.5019	22.9616	-6.2175
 360	1	2	0.063418	35.6313	26.9051	-7.31854
 361	1	2	0.061085	34.4941	25.6952	-7.94949
 362	1	2	0.065045	36.1902	25.6701	-8.46616
 363	1	7	-0.142025	36.4154	22.6708	-7.66434
 364	1	7	-0.448546	34.0505	21.6628	-6.49977
 365	1	7	0.277842	34.7908	20.84	-7.35027
 366	1	7	-0.409063	35.9732	21.3533	-7.93389
 367	1	10	0.203923	33.1396	21.3146	-6.03218
 368	1	2	0.016419	37.4989	26.0923	-5.49306
 369	1	2	0.049665	38.0278	25.0756	-6.83496
 370	1	2	0.035794	37.6625	24.3323	-5.26575
 371	1	10	0.161583	37.3214	23.05	-8.12993
 372	1	10	0.199011	36.5514	20.7295	-8.60936
 373	1	1	0.070548	41.3433	14.3365	7.01474
 374	1	1	0.506757	41.1522	15.4105	5.92402
 375	1	2	-0.012767	41.2232	14.8186	7.9959
 376	1	2	-0.014806	40.5325	13.5969	6.93891
 377	1	3	-0.274996	41.6137	14.9636	4.73988
 378	1	3	-0.274736	41.9591	16.4751	6.18607
 379	1	1	0.070548	43.0696	12.7618	8.2525
 380	1	1	0.506757	42.6993	13.5789	6.96683
 381	1	2	-0.012767	43.9932	12.2085	8.03016
 382	1	2	-0.014806	43.3556	13.48	9.03048
 383	1	3	-0.274996	43.6933	14.4798	6.74971
 384	1	3	-0.274736	42.7518	12.7621	5.88956
 385	1	5	0.463181	41.153	-7.12491	9.75437
 386	1	6	0.074399	41.3388	-6.06406	8.86161
 387	1	7	0.034296	42.5597	-5.39152	9.32919
 388	1	6	0.051625	42.0697	-7.11011	10.81
 389	1	7	0.019035	43.0073	-6.00955	10.474
 390	1	9	-0.389616	40.6864	-5.70876	7.89314
 391	1	9	-0.380104	42.0994	-7.80534	11.8146
 392	1	7	-0.045097	43.1809	-4.26542	8.78483
 393	1	7	-0.056032	44.0878	-5.48761	11.1904
 394	1	7	-0.174781	44.7222	-4.32835	10.6898
 395	1	7	-0.129342	44.2738	-3.72545	9.48603
 396	1	10	0.168842	42.7894	-3.79383	7.8842
 397	1	10	0.15893	44.4098	-5.95667	12.1191
 398	1	10	0.147704	45.5626	-3.9057	11.2319
 399	1	6	0.584577	44.8741	-2.47569	8.94808
 400	1	7	-0.046755	44.4212	-1.18079	9.55695
 401	1	7	-0.110868	44.3387	-0.0704055	8.69259
 402	1	7	-0.046132	43.889	1.15417	9.19006
 403	1	7	-0.135873	43.9626	-1.04825	10.8965
 404	1	7	-0.117662	43.5307	0.204536	11.3937
 405	1	7	-0.064457	43.5412	1.30515	10.5165
 406	1	6	0.492569	43.0769	2.70989	10.6881
 407	1	5	-0.072087	43.1051	3.29842	9.42361
 408	1	6	0.477555	43.6007	2.41938	8.46115
 409	1	7	0.042617	42.5113	4.55999	9.1061
 410	1	7	-0.20367	41.3168	4.55456	8.36846
 411	1	7	-0.057018	40.655	5.75579	8.06085
 412	1	7	-0.18182	43.0102	5.79598	9.55439
 413	1	7	-0.14326	42.3274	6.99763	9.27148
 414	1	7	0.043342	41.1354	6.99832	8.52197
 415	1	10	0.163244	40.904	3.60281	8.02713
 416	1	10	0.101178	39.7448	5.72591	7.46898
 417	1	10	0.165346	43.1964	0.322976	12.4248
 418	1	10	0.135111	43.9732	-1.90052	11.5652
 419	1	10	0.171751	44.5754	-0.155953	7.62949
 420	1	9	-0.478239	43.5455	2.5447	7.24615
 421	1	9	-0.481107	42.7295	3.22757	11.7328
 422	1	9	-0.49957	45.3908	-2.47682	7.84564
 423	1	10	0.151248	43.925	5.82053	10.1256
 424	1	10	0.146138	42.7203	7.92919	9.6656
 425	1	1	0.044043	40.333	8.28652	8.21583
 426	1	1	-0.215975	40.1479	8.45203	6.68955
 427	1	2	0.063789	39.656	7.58731	6.22053
 428	1	2	0.072206	41.1234	8.57858	6.20427
 429	1	2	0.045489	39.5513	9.3439	6.47323
 430	1	1	0.005306	38.9711	8.22073	8.98575
 431	1	1	0.164932	39.2031	8.88298	10.3823
 432	1	2	0.005277	38.5708	7.20795	9.06978
 433	1	2	0.017604	38.2339	8.8077	8.42954
 434	1	7	0.008363	40.2741	9.90536	10.0138
 435	1	1	-0.151488	39.7225	7.90483	11.4772
 436	1	1	-0.269275	37.8934	9.53402	10.8838
 437	1	7	0.096378	40.8951	9.58911	8.81122
 438	1	2	0.063418	37.5815	10.3688	10.236
 439	1	2	0.061085	38.0127	9.91923	11.9042
 440	1	2	0.065045	37.0787	8.80166	10.8906
 441	1	7	-0.142025	40.5622	11.1099	10.6791
 442	1	7	-0.448546	41.7726	10.5257	8.21749
 443	1	7	0.277842	42.057	11.7563	8.85162
 444	1	7	-0.409063	41.4707	12.018	10.1089
 445	1	10	0.203923	42.2051	10.3286	7.24169
 446	1	2	0.016419	39.0044	7.10266	11.6871
 447	1	2	0.049665	39.9026	8.43988	12.4174
 448	1	2	0.035794	40.665	7.43778	11.1938
 449	1	10	0.161583	40.0566	11.3446	11.6117
 450	1	10	0.199011	41.6903	12.9445	10.6323
 451	1	1	0.070548	39.189	-8.21295	8.46857
 452	1	1	0.506757	40.0692	-8.14255	9.75136
 453	1	2	-0.012767	39.8329	-8.07528	7.58899
 454	1	2	-0.014806	38.4672	-7.38743	8.45746
 455	1	3	-0.274996	39.2264	-7.83993	10.7623
 456	1	3	-0.274736	40.563	-9.39564	10.0011
 457	1	5	0.463181	19.0326	-9.00685	5.72713
 458	1	6	0.074399	20.2469	-9.55983	5.28443
 459	1	7	0.034296	21.2998	-8.95182	6.1686
 460	1	6	0.051625	19.1947	-8.28328	6.92726
 461	1	7	0.019035	20.6707	-8.23902	7.1796
 462	1	9	-0.389616	20.4061	-10.4377	4.44321
 463	1	9	-0.380104	18.3358	-7.68342	7.56496
 464	1	7	-0.045097	22.683	-8.87031	6.01755
 465	1	7	-0.056032	21.3823	-7.60085	8.21035
 466	1	7	-0.174781	22.786	-7.52791	8.05738
 467	1	7	-0.129342	23.426	-8.07329	6.917
 468	1	10	0.168842	23.1593	-9.30426	5.14822
 469	1	10	0.15893	20.8707	-7.08578	9.02063
 470	1	10	0.147704	23.3689	-6.95888	8.77783
 471	1	6	0.584577	24.8722	-7.73052	6.60229
 472	1	7	-0.046755	25.959	-8.07835	7.60499
 473	1	7	-0.110868	27.3282	-7.78678	7.34507
 474	1	7	-0.046132	28.3061	-8.21092	8.27051
 475	1	7	-0.135873	25.633	-8.75943	8.80214
 476	1	7	-0.117662	26.6103	-9.13326	9.72221
 477	1	7	-0.064457	27.9431	-8.89072	9.41075
 478	1	6	0.492569	29.1649	-9.33991	10.1184
 479	1	5	-0.072087	30.2342	-9.05564	9.27177
 480	1	6	0.477555	29.7983	-8.26773	8.19938
 481	1	7	0.042617	31.5596	-9.63898	9.40387
 482	1	7	-0.20367	32.7169	-9.06283	8.81559
 483	1	7	-0.057018	33.9741	-9.69788	8.88932
 484	1	7	-0.18182	31.7152	-10.8665	10.0983
 485	1	7	-0.14326	32.9758	-11.4927	10.1829
 486	1	7	0.043342	34.1198	-10.9285	9.56419
 487	1	10	0.163244	32.6519	-8.12651	8.26463
 488	1	10	0.101178	34.8084	-9.25245	8.35298
 489	1	10	0.165346	26.357	-9.67849	10.6298
 490	1	10	0.135111	24.608	-9.02497	9.03969
 491	1	10	0.171751	27.6475	-7.32426	6.41327
 492	1	9	-0.478239	30.4577	-7.75539	7.31653
 493	1	9	-0.481107	29.1807	-9.74086	11.2645
 494	1	9	-0.49957	25.1232	-7.26302	5.50783
 495	1	10	0.151248	30.8592	-11.388	10.5212
 496	1	10	0.146138	33.0504	-12.4517	10.6944
 497	1	1	0.044043	35.4817	-11.6927	9.65645
 498	1	1	-0.215975	35.978	-11.8131	11.1464
 499	1	2	0.063789	35.2332	-12.2815	11.8019
 500	1	2	0.072206	36.1842	-10.8191	11.5616
 501	1	2	0.045489	36.9146	-12.3883	11.2288
 502	1	1	0.005306	35.3333	-13.1224	9.02527
 503	1	1	0.164932	36.2394	-13.2318	7.77051
 504	1	2	0.005277	34.2908	-13.3339	8.74515
 505	1	2	0.017604	35.5802	-13.893	9.77095
 506	1	7	0.008363	37.0948	-11.976	7.8633
 507	1	1	-0.151488	35.3865	-13.2512	6.47382
 508	1	1	-0.269275	37.1137	-14.4994	7.88629
 509	1	7	0.096378	36.6304	-11.0906	8.83546
 510	1	2	0.063418	36.488	-15.389	7.98848
 511	1	2	0.061085	37.7718	-14.4603	8.76356
 512	1	2	0.065045	37.7579	-14.6472	7.01535
 513	1	7	-0.142025	38.2442	-11.6812	7.10849
 514	1	7	-0.448546	37.2771	-9.85184	9.03925
 515	1	7	0.277842	38.4306	-9.53159	8.29729
 516	1	7	-0.409063	38.9199	-10.4762	7.36319
 517	1	10	0.203923	36.9165	-9.15587	9.78841
 518	1	2	0.016419	34.6493	-12.4341	6.50288
 519	1	2	0.049665	34.854	-14.2059	6.37984
 520	1	2	0.035794	36.0177	-13.1307	5.58106
 521	1	10	0.161583	38.633	-12.3864	6.38013
 522	1	10	0.199011	39.8422	-10.2692	6.82618
 523	1	5	0.463181	0.357484	-0.465757	6.67851
 524	1	6	0.074399	1.18558	-0.440826	7.79664
 525	1	7	0.034296	1.96109	-1.68723	7.67525
 526	1	6	0.051625	0.385912	-1.67581	5.99546
 527	1	7	0.019035	1.48811	-2.43308	6.61744
 528	1	9	-0.389616	1.4121	0.446222	8.59933
 529	1	9	-0.380104	-0.13996	-2.00579	4.94339
 530	1	7	-0.045097	3.20256	-1.96563	8.22298
 531	1	7	-0.056032	2.15886	-3.55012	6.10795
 532	1	7	-0.174781	3.40342	-3.85867	6.66188
 533	1	7	-0.129342	3.95885	-3.0089	7.68149
 534	1	10	0.168842	3.62881	-1.31525	8.98859
 535	1	10	0.15893	1.76285	-4.0864	5.24812
 536	1	10	0.147704	3.97212	-4.70145	6.25938
 537	1	6	0.584577	5.36441	-3.12259	8.14131
 538	1	7	-0.046755	6.37356	-3.65165	7.17253
 539	1	7	-0.110868	7.42757	-4.38486	7.73293
 540	1	7	-0.046132	8.23146	-5.09637	6.85867
 541	1	7	-0.135873	6.2144	-3.52399	5.76198
 542	1	7	-0.117662	6.9978	-4.31328	4.90748
 543	1	7	-0.064457	7.99163	-5.09539	5.49842
 544	1	6	0.492569	9.01511	-5.97922	4.88758
 545	1	5	-0.072087	9.76536	-6.50227	5.94336
 546	1	6	0.477555	9.36313	-5.99185	7.16501
 547	1	7	0.042617	10.8735	-7.40396	5.86051
 548	1	7	-0.20367	12.2106	-6.9537	5.88214
 549	1	7	-0.057018	13.279	-7.86381	5.85409
 550	1	7	-0.18182	10.6473	-8.78018	6.01591
 551	1	7	-0.14326	11.7125	-9.67994	5.97266
 552	1	7	0.043342	13.0289	-9.23669	5.74973
 553	1	10	0.163244	12.433	-5.88398	5.91802
 554	1	10	0.101178	14.3063	-7.48137	5.81356
 555	1	10	0.165346	6.85979	-4.32143	3.83111
 556	1	10	0.135111	5.44902	-2.88196	5.3486
 557	1	10	0.171751	7.58001	-4.42756	8.80978
 558	1	9	-0.478239	9.85798	-6.19748	8.25476
 559	1	9	-0.481107	9.01643	-6.30293	3.7111
 560	1	9	-0.49957	5.61681	-2.99456	9.33491
 561	1	10	0.151248	9.63221	-9.15237	6.11687
 562	1	10	0.146138	11.4791	-10.7531	6.01793
 563	1	1	0.044043	14.0856	-10.2587	5.30067
 564	1	1	-0.215975	14.2934	-11.3214	6.38965
 565	1	2	0.063789	14.7356	-10.8594	7.29173
 566	1	2	0.072206	14.992	-12.094	6.0472
 567	1	2	0.045489	13.3486	-11.8189	6.66683
 568	1	1	0.005306	13.5961	-10.9511	3.99026
 569	1	1	0.164932	14.1678	-10.1437	2.79382
 570	1	2	0.005277	12.5036	-11.0699	3.93105
 571	1	2	0.017604	14.0075	-11.9585	3.94754
 572	1	7	0.008363	15.4756	-9.65521	3.42587
 573	1	1	-0.151488	13.2937	-8.92934	2.42682
 574	1	1	-0.269275	14.3091	-11.0864	1.55241
 575	1	7	0.096378	15.4215	-9.70926	4.81687
 576	1	2	0.063418	14.6429	-10.5273	0.668395
 577	1	2	0.061085	13.3362	-11.5364	1.31224
 578	1	2	0.065045	15.0332	-11.8901	1.75529
 579	1	7	-0.142025	16.6628	-9.27716	2.78379
 580	1	7	-0.448546	16.5634	-9.42234	5.60238
 581	1	7	0.277842	17.7969	-9.11419	4.97104
 582	1	7	-0.409063	17.8168	-9.0336	3.56037
 583	1	10	0.203923	16.5067	-9.54365	6.68306
 584	1	2	0.016419	12.2997	-9.23152	2.07925
 585	1	2	0.049665	13.7758	-8.34695	1.63518
 586	1	2	0.035794	13.1405	-8.26297	3.2768
 587	1	10	0.161583	16.719	-9.25404	1.69824
 588	1	10	0.199011	18.762	-8.83698	3.0555
 589	1	5	0.463181	-9.67346	14.2029	15.9847
 590	1	6	0.074399	-8.88701	13.1602	16.5432
 591	1	7	0.034296	-9.08774	12.0193	15.6396
 592	1	6	0.051625	-10.556	13.6588	15.0317
 593	1	7	0.019035	-10.1636	12.2582	14.8068
 594	1	9	-0.389616	-7.98232	13.2129	17.3813
 595	1	9	-0.380104	-11.2902	14.2705	14.3124
 596	1	7	-0.045097	-8.38754	10.8106	15.6072
 597	1	7	-0.056032	-10.4984	11.3604	13.7994
 598	1	7	-0.174781	-9.80319	10.1081	13.7599
 599	1	7	-0.129342	-8.76247	9.78929	14.7023
 600	1	10	0.168842	-7.51351	10.6822	16.2521
 601	1	10	0.15893	-11.2695	11.6044	13.1065
 602	1	10	0.147704	-10.0512	9.40979	12.9459
 603	1	6	0.584577	-7.82369	8.57999	14.6044
 604	1	7	-0.046755	-7.9304	7.47546	13.5854
 605	1	7	-0.110868	-6.77749	6.97167	12.9118
 606	1	7	-0.046132	-6.93544	5.92063	11.9883
 607	1	7	-0.135873	-9.13121	6.77466	13.3976
 608	1	7	-0.117662	-9.25292	5.68196	12.4921
 609	1	7	-0.064457	-8.13979	5.311	11.7438
 610	1	6	0.492569	-7.94538	4.34233	10.6438
 611	1	5	-0.072087	-6.59298	4.35608	10.3111
 612	1	6	0.477555	-5.92538	5.25603	11.114
 613	1	7	0.042617	-5.99929	3.65769	9.21229
 614	1	7	-0.20367	-6.65336	3.61203	7.9621
 615	1	7	-0.057018	-6.02574	3.02775	6.83396
 616	1	7	-0.18182	-4.74206	2.99212	9.32206
 617	1	7	-0.14326	-4.13017	2.41102	8.19113
 618	1	7	0.043342	-4.73174	2.46904	6.90787
 619	1	10	0.163244	-7.60154	4.1251	7.84998
 620	1	10	0.101178	-6.56225	3.02917	5.88324
 621	1	10	0.165346	-10.1923	5.16381	12.3353
 622	1	10	0.135111	-9.99311	7.0986	13.9727
 623	1	10	0.171751	-5.78792	7.38453	13.0911
 624	1	9	-0.478239	-4.74113	5.48036	11.1534
 625	1	9	-0.481107	-8.8457	3.84495	10.0025
 626	1	9	-0.49957	-6.81726	8.51798	15.295
 627	1	10	0.151248	-4.1954	2.97401	10.2758
 628	1	10	0.146138	-3.1601	1.94494	8.32741
 629	1	1	0.044043	-4.14873	1.71774	5.65379
 630	1	1	-0.215975	-4.85138	0.340294	5.35532
 631	1	2	0.063789	-4.82941	-0.323705	6.23262
 632	1	2	0.072206	-4.32604	-0.169649	4.53408
 633	1	2	0.045489	-5.89602	0.455396	5.03186
 634	1	1	0.005306	-4.27247	2.62816	4.3789
 635	1	1	0.164932	-2.9805	3.51853	4.33523
 636	1	2	0.005277	-5.15103	3.26509	4.34998