pySIMM System Object

870 atoms
953 bonds
1698 angles
2697 dihedrals
252 impropers

10 atom types
13 bond types
25 angle types
12 dihedral types
4 improper types

-69.272242 69.272242 xlo xhi
-69.272242 69.272242 ylo yhi
-69.272242 69.272242 zlo zhi

Masses

   1	12.01	# c3
   2	1.008	# hc
   3	19.0	# f
   4	1.008	# h2
   5	14.01	# n
   6	12.01	# c
   7	12.01	# ca
   8	1.008	# hn
   9	16.0	# o
  10	1.008	# ha

Pair Coeffs

   1	0.1094	3.3996695084235347	# c3
   2	0.0157	2.649532787749369	# hc
   3	0.061	3.1181455134911875	# f
   4	0.0157	2.2931733004932333	# h2
   5	0.17	3.249998523775958	# n
   6	0.086	3.3996695084235347	# c
   7	0.086	3.3996695084235347	# ca
   8	0.0157	1.069078461768407	# hn
   9	0.21	2.959921901149463	# o
  10	0.015	2.59964245953351	# ha

Bond Coeffs

   1	331.7	1.0961	# c3,h2
   2	330.6	1.0969	# c3,hc
   3	300.9	1.5375	# c3,c3
   4	356.9	1.3497	# c3,f
   5	637.7	1.2183	# c,o
   6	321.0	1.5156	# c3,ca
   7	384.2	1.4121	# ca,n
   8	403.2	1.0129	# hn,n
   9	427.6	1.3789	# c,n
  10	461.1	1.3984	# ca,ca
  11	345.9	1.4906	# c,ca
  12	345.8	1.086	# ca,ha
  13	328.7	1.4619	# c3,n

Angle Coeffs

   1	46.34	109.8	# c3,c3,hc
   2	70.89	107.36	# f,c3,f
   3	39.4	107.58	# hc,c3,hc
   4	66.11	109.24	# c3,c3,f
   5	46.25	110.22	# c3,c3,h2
   6	51.15	108.79	# f,c3,h2
   7	62.86	111.51	# c3,c3,c3
   8	64.28	120.33	# c,ca,ca
   9	63.53	120.77	# c3,ca,ca
  10	66.62	120.02	# ca,ca,ca
  11	74.22	123.05	# n,c,o
  12	63.74	127.08	# c,n,c
  13	63.15	112.07	# c3,c3,ca
  14	48.18	119.88	# ca,ca,ha
  15	67.87	120.19	# ca,ca,n
  16	68.72	122.6	# ca,c,o
  17	63.0	118.11	# ca,c,ca
  18	63.82	123.71	# c,n,ca
  19	67.68	115.25	# ca,c,n
  20	63.56	112.24	# ca,c3,ca
  21	48.33	117.55	# c,n,hn
  22	46.8	110.47	# ca,c3,hc
  23	63.39	120.69	# c,n,c3
  24	65.91	111.61	# c3,c3,n
  25	69.52	110.41	# f,c3,n

Dihedral Coeffs

   1	2	0.0	3	0	0.19	1	0	# hc,c3,c3,f
   2	1	0.15555555555555556	3	0	# X,c3,c3,X
   3	1	0.16	3	0	# hc,c3,c3,c3
   4	3	0.18	3	0	0.25	2	180	0.2	1	180	# c3,c3,c3,c3
   5	2	2.5	2	180	2.0	1	0	# hn,n,c,o
   6	1	3.625	2	180	# X,ca,ca,X
   7	1	1.0	2	180	# X,c,ca,X
   8	1	0.0	2	0	# X,c3,ca,X
   9	1	2.5	2	180	# X,c,n,X
  10	1	0.45	2	180	# X,ca,n,X
  11	4	0.5	4	180	0.15	3	180	0.0	2	0	0.53	1	0	# c3,c3,n,c
  12	1	0.0	2	0	# X,c3,n,X

Improper Coeffs

   1	10.5	-1	2	# c,X,X,o
   2	1.1	-1	2	# ca,X,X,ha
   3	1.1	-1	2	# ca,ca,ca,c3
   4	1.1	-1	2	# n,X,X,hn

Atoms

   1	1	1	0.070548	9.86694	17.85	-7.75582
   2	1	1	0.506757	9.12077	16.8582	-8.68386
   3	1	2	-0.012767	9.23282	18.0807	-6.8986
   4	1	2	-0.014806	10.7725	17.3723	-7.36288
   5	1	3	-0.274996	8.54666	15.8852	-7.93568
   6	1	3	-0.274736	9.9771	16.225	-9.51007
   7	1	1	0.070548	10.8415	20.2008	-7.46669
   8	1	1	0.506757	10.2512	19.1662	-8.47374
   9	1	2	-0.012767	11.5438	19.6755	-6.79633
  10	1	2	-0.014806	10.0351	20.5773	-6.81998
  11	1	3	-0.274996	11.113	18.8925	-9.47361
  12	1	3	-0.274736	9.13354	19.678	-9.04607
  13	1	1	0.070548	12.1245	22.4514	-7.07043
  14	1	1	0.506757	11.5846	21.4121	-8.09813
  15	1	2	-0.012767	12.7889	21.9503	-6.35852
  16	1	2	-0.014806	11.2848	22.8382	-6.47897
  17	1	3	-0.274996	10.7656	22.0575	-8.95886
  18	1	3	-0.274736	12.6433	20.9655	-8.80189
  19	1	5	0.463181	3.40527	36.672	2.13338
  20	1	6	0.074399	4.11887	37.3502	1.1309
  21	1	7	0.034296	4.7838	36.2975	0.310195
  22	1	6	0.051625	3.49605	35.2843	1.95561
  23	1	7	0.019035	4.41774	35.0654	0.8065
  24	1	9	-0.389616	4.29559	38.5494	0.990554
  25	1	9	-0.380104	3.0179	34.3962	2.63938
  26	1	7	-0.045097	5.68452	36.4188	-0.761001
  27	1	7	-0.056032	4.91415	33.8755	0.247375
  28	1	7	-0.174781	5.83932	33.9757	-0.819902
  29	1	7	-0.129342	6.25842	35.2457	-1.30914
  30	1	10	0.168842	5.95933	37.4059	-1.13369
  31	1	10	0.15893	4.59835	32.9077	0.635087
  32	1	10	0.147704	6.2256	33.063	-1.26588
  33	1	6	0.584577	7.2571	35.3723	-2.43888
  34	1	7	-0.046755	8.17802	34.2366	-2.73347
  35	1	7	-0.110868	8.11764	33.6064	-3.99338
  36	1	7	-0.046132	9.02289	32.5684	-4.22546
  37	1	7	-0.135873	9.15521	33.8533	-1.77784
  38	1	7	-0.117662	10.1209	32.8747	-2.08148
  39	1	7	-0.064457	10.0173	32.2429	-3.32846
  40	1	6	0.492569	10.8492	31.1683	-3.92882
  41	1	5	-0.072087	10.2471	30.8608	-5.15188
  42	1	6	0.477555	9.14085	31.6645	-5.3882
  43	1	7	0.042617	10.6907	29.9107	-6.11551
  44	1	7	-0.20367	10.6879	30.2453	-7.48089
  45	1	7	-0.057018	11.1216	29.3333	-8.44587
  46	1	7	-0.18182	11.1098	28.6254	-5.74269
  47	1	7	-0.14326	11.618	27.7332	-6.70458
  48	1	7	0.043342	11.6335	28.0744	-8.07771
  49	1	10	0.163244	10.3616	31.2283	-7.81234
  50	1	10	0.101178	11.1258	29.6407	-9.48934
  51	1	10	0.165346	10.9089	32.6126	-1.37716
  52	1	10	0.135111	9.2105	34.3691	-0.818608
  53	1	10	0.171751	7.38178	33.8907	-4.74659
  54	1	9	-0.478239	8.41063	31.6856	-6.36247
  55	1	9	-0.481107	11.8535	30.7064	-3.41642
  56	1	9	-0.49957	7.29675	36.3619	-3.14986
  57	1	10	0.151248	11.1053	28.3342	-4.69203
  58	1	10	0.146138	12.0215	26.789	-6.35847
  59	1	1	0.044043	12.2517	27.1786	-9.16943
  60	1	1	-0.215975	11.1789	26.829	-10.2385
  61	1	2	0.063789	10.3438	26.2848	-9.77886
  62	1	2	0.072206	11.5993	26.1852	-11.0211
  63	1	2	0.045489	10.7756	27.7246	-10.7244
  64	1	1	0.005306	13.4773	27.8943	-9.84548
  65	1	1	0.164932	14.6972	26.9145	-9.85784
  66	1	2	0.005277	13.7307	28.7998	-9.28157
  67	1	2	0.017604	13.2286	28.2428	-10.858
  68	1	7	0.008363	14.2092	25.7579	-9.00533
  69	1	1	-0.151488	15.9595	27.5725	-9.25058
  70	1	1	-0.269275	14.9742	26.419	-11.3023
  71	1	7	0.096378	12.8733	25.8932	-8.64066
  72	1	2	0.063418	14.1212	25.8413	-11.6931
  73	1	2	0.061085	15.8561	25.7687	-11.3231
  74	1	2	0.065045	15.1506	27.2543	-11.9895
  75	1	7	-0.142025	14.9064	24.5699	-8.72737
  76	1	7	-0.448546	12.1921	24.8292	-8.02077
  77	1	7	0.277842	12.8597	23.6207	-7.74166
  78	1	7	-0.409063	14.2245	23.5133	-8.09086
  79	1	10	0.203923	11.1336	24.9248	-7.79363
  80	1	2	0.016419	15.7774	27.9075	-8.22325
  81	1	2	0.049665	16.2698	28.4403	-9.84915
  82	1	2	0.035794	16.7973	26.8628	-9.22858
  83	1	10	0.161583	15.9378	24.4542	-9.04654
  84	1	10	0.199011	14.7517	22.5809	-7.89172
  85	1	5	0.463181	-12.7806	42.6332	11.6018
  86	1	6	0.074399	-12.857	43.3362	10.4088
  87	1	7	0.034296	-11.6991	42.8451	9.61856
  88	1	6	0.051625	-11.6862	41.785	11.7053
  89	1	7	0.019035	-11.0093	41.9296	10.3952
  90	1	9	-0.389616	-13.7685	44.0377	10.0128
  91	1	9	-0.380104	-11.4522	40.9624	12.5859
  92	1	7	-0.045097	-11.3686	43.0672	8.27416
  93	1	7	-0.056032	-9.90048	41.2452	9.89631
  94	1	7	-0.174781	-9.53419	41.4704	8.55242
  95	1	7	-0.129342	-10.31	42.3161	7.70293
  96	1	10	0.168842	-11.9709	43.7378	7.66773
  97	1	10	0.15893	-9.35405	40.543	10.5249
  98	1	10	0.147704	-8.6708	40.9408	8.15999
  99	1	6	0.584577	-10.0431	42.4458	6.21112
 100	1	7	-0.046755	-8.94862	41.6245	5.5855
 101	1	7	-0.110868	-7.87936	42.2747	4.92383
 102	1	7	-0.046132	-6.75898	41.514	4.57929
 103	1	7	-0.135873	-8.92688	40.2089	5.73866
 104	1	7	-0.117662	-7.79044	39.4596	5.36432
 105	1	7	-0.064457	-6.69237	40.1624	4.8431
 106	1	6	0.492569	-5.29839	39.7246	4.57181
 107	1	5	-0.072087	-4.61557	40.8593	4.13177
 108	1	6	0.477555	-5.44491	41.9664	4.06672
 109	1	7	0.042617	-3.20367	40.9159	3.91943
 110	1	7	-0.20367	-2.52075	39.7947	3.41625
 111	1	7	-0.057018	-1.11913	39.7486	3.43199
 112	1	7	-0.18182	-2.46382	42.0447	4.32784
 113	1	7	-0.14326	-1.06021	42.0202	4.29219
 114	1	7	0.043342	-0.376574	40.8411	3.92781
 115	1	10	0.163244	-3.06831	38.9069	3.10301
 116	1	10	0.101178	-0.629099	38.8262	3.13467
 117	1	10	0.165346	-7.72936	38.3937	5.55749
 118	1	10	0.135111	-9.75867	39.7054	6.22652
 119	1	10	0.171751	-7.87992	43.3526	4.77463
 120	1	9	-0.478239	-5.17714	43.0926	3.68323
 121	1	9	-0.481107	-4.86264	38.6187	4.84661
 122	1	9	-0.49957	-10.5839	43.3305	5.56801
 123	1	10	0.151248	-2.95846	42.9184	4.73426
 124	1	10	0.146138	-0.514372	42.8777	4.65806
 125	1	1	0.044043	1.12383	40.7129	4.26066
 126	1	1	-0.215975	1.99905	41.6305	3.37332
 127	1	2	0.063789	1.78778	42.6938	3.56769
 128	1	2	0.072206	1.81549	41.443	2.3074
 129	1	2	0.045489	3.06656	41.4648	3.56398
 130	1	1	0.005306	1.33052	41.049	5.77487
 131	1	1	0.164932	1.2694	39.721	6.57708
 132	1	2	0.005277	0.642285	41.7988	6.18383
 133	1	2	0.017604	2.33448	41.4771	5.89369
 134	1	7	0.008363	1.7452	38.7404	5.51283
 135	1	1	-0.151488	-0.168622	39.3952	7.04831
 136	1	1	-0.269275	2.17586	39.8313	7.82705
 137	1	7	0.096378	1.65182	39.2808	4.22995
 138	1	2	0.063418	1.78348	40.5751	8.52947
 139	1	2	0.061085	3.19818	40.1307	7.56261
 140	1	2	0.065045	2.23016	38.8726	8.35793
 141	1	7	-0.142025	2.28688	37.4593	5.69824
 142	1	7	-0.448546	2.14049	38.5862	3.10759
 143	1	7	0.277842	2.76242	37.323	3.25869
 144	1	7	-0.409063	2.78801	36.7671	4.5695
 145	1	10	0.203923	2.09455	39.0641	2.13057
 146	1	2	0.016419	-0.589063	40.2255	7.63604
 147	1	2	0.049665	-0.178006	38.4999	7.68146
 148	1	2	0.035794	-0.844316	39.2101	6.20383
 149	1	10	0.161583	2.36924	37.0325	6.69389
 150	1	10	0.199011	3.23768	35.787	4.72266
 151	1	5	0.463181	-19.8495	31.6382	2.79115
 152	1	6	0.074399	-19.476	30.7707	3.80694
 153	1	7	0.034296	-19.6104	31.5688	5.02472
 154	1	6	0.051625	-20.1836	32.9219	3.22872
 155	1	7	0.019035	-20.0501	32.8335	4.70796
 156	1	9	-0.389616	-19.0546	29.6291	3.73042
 157	1	9	-0.380104	-20.5125	33.9025	2.57474
 158	1	7	-0.045097	-19.4771	31.1315	6.33582
 159	1	7	-0.056032	-20.375	33.7372	5.71982
 160	1	7	-0.174781	-20.225	33.3255	7.06506
 161	1	7	-0.129342	-19.7647	32.0125	7.38756
 162	1	10	0.168842	-19.1932	30.1019	6.53179
 163	1	10	0.15893	-20.7513	34.7197	5.46525
 164	1	10	0.147704	-20.5015	34.0286	7.85252
 165	1	6	0.584577	-19.6765	31.4806	8.80348
 166	1	7	-0.046755	-19.563	32.4771	9.90947
 167	1	7	-0.110868	-18.6721	33.5606	9.76208
 168	1	7	-0.046132	-18.6269	34.5109	10.7777
 169	1	7	-0.135873	-20.3348	32.3264	11.0948
 170	1	7	-0.117662	-20.3098	33.3298	12.0822
 171	1	7	-0.064457	-19.4394	34.4178	11.8872
 172	1	6	0.492569	-19.2432	35.6715	12.6725
 173	1	5	-0.072087	-18.3496	36.4395	11.9556
 174	1	6	0.477555	-17.8568	35.7777	10.8491
 175	1	7	0.042617	-18.106	37.8012	12.2214
 176	1	7	-0.20367	-16.8363	38.263	12.5945
 177	1	7	-0.057018	-16.6554	39.6248	12.8678
 178	1	7	-0.18182	-19.1595	38.7162	12.0576
 179	1	7	-0.14326	-18.9713	40.0815	12.315
 180	1	7	0.043342	-17.7208	40.5502	12.7644
 181	1	10	0.163244	-16.0039	37.5782	12.715
 182	1	10	0.101178	-15.6794	39.9338	13.2205
 183	1	10	0.165346	-20.9427	33.2733	12.9663
 184	1	10	0.135111	-20.9936	31.4654	11.2133
 185	1	10	0.171751	-18.0602	33.6825	8.87263
 186	1	9	-0.478239	-16.9671	36.1427	10.0987
 187	1	9	-0.481107	-19.8251	35.9969	13.6872
 188	1	9	-0.49957	-19.7425	30.2848	9.04986
 189	1	10	0.151248	-20.1412	38.365	11.7407
 190	1	10	0.146138	-19.8036	40.7644	12.1933
 191	1	1	0.044043	-17.5157	42.0301	13.1412
 192	1	1	-0.215975	-18.1346	42.9892	12.0851
 193	1	2	0.063789	-17.8628	44.0154	12.3147
 194	1	2	0.072206	-19.2312	42.9456	12.0832
 195	1	2	0.045489	-17.7716	42.7626	11.0769
 196	1	1	0.005306	-18.0444	42.3466	14.5794
 197	1	1	0.164932	-16.8537	42.4121	15.595
 198	1	2	0.005277	-18.8252	41.6391	14.8943
 199	1	2	0.017604	-18.5137	43.3384	14.5543
 200	1	7	0.008363	-15.689	42.5865	14.6475
 201	1	1	-0.151488	-16.6894	41.0831	16.3689
 202	1	1	-0.269275	-16.9952	43.6032	16.5784
 203	1	7	0.096378	-16.0539	42.3669	13.3215
 204	1	2	0.063418	-16.9476	44.5597	16.041
 205	1	2	0.061085	-16.1856	43.595	17.3183
 206	1	2	0.065045	-17.9498	43.5636	17.118
 207	1	7	-0.142025	-14.3615	42.8778	14.9867
 208	1	7	-0.448546	-15.1058	42.3997	12.2964
 209	1	7	0.277842	-13.7676	42.6906	12.6081
 210	1	7	-0.409063	-13.4062	42.9302	13.9528
 211	1	10	0.203923	-15.4055	42.1926	11.2711
 212	1	2	0.016419	-16.5824	40.2306	15.682
 213	1	2	0.049665	-17.5733	40.8956	16.9986
 214	1	2	0.035794	-15.7947	41.1002	17.0127
 215	1	10	0.161583	-14.0817	43.0451	16.0236
 216	1	10	0.199011	-12.3621	43.1214	14.1981
 217	1	1	0.070548	-18.6358	30.8637	0.774211
 218	1	1	0.506757	-20.038	31.0971	1.44258
 219	1	2	-0.012767	-18.0023	31.7438	0.941797
 220	1	2	-0.014806	-18.1365	30.0227	1.27571
 221	1	3	-0.274996	-20.8095	31.8677	0.635146
 222	1	3	-0.274736	-20.7535	29.9506	1.6236
 223	1	1	0.070548	-19.6388	29.4039	-1.13214
 224	1	1	0.506757	-18.6696	30.5781	-0.758252
 225	1	2	-0.012767	-19.1228	28.4578	-0.910124
 226	1	2	-0.014806	-20.4968	29.3858	-0.470612
 227	1	3	-0.274996	-17.422	30.2539	-1.1697
 228	1	3	-0.274736	-18.9521	31.7505	-1.36547
 229	1	1	0.070548	-20.822	30.5934	-3.11671
 230	1	1	0.506757	-20.2977	29.2664	-2.51009
 231	1	2	-0.012767	-20.0079	31.0924	-3.65631
 232	1	2	-0.014806	-21.083	31.2677	-2.29235
 233	1	3	-0.274996	-19.4049	28.6337	-3.3114
 234	1	3	-0.274736	-21.3529	28.4364	-2.28697
 235	1	5	0.463181	-13.914	19.626	-11.3878
 236	1	6	0.074399	-14.6818	19.7709	-12.5433
 237	1	7	0.034296	-14.8766	21.2316	-12.6715
 238	1	6	0.051625	-13.4271	20.8533	-10.9291
 239	1	7	0.019035	-14.1918	21.8769	-11.6661
 240	1	9	-0.389616	-14.9705	18.9302	-13.3824
 241	1	9	-0.380104	-12.4147	21.0512	-10.2853
 242	1	7	-0.045097	-15.6266	21.9502	-13.5934
 243	1	7	-0.056032	-14.2549	23.2704	-11.502
 244	1	7	-0.174781	-15.0996	24.0036	-12.3695
 245	1	7	-0.129342	-15.817	23.3307	-13.3999
 246	1	10	0.168842	-16.1387	21.4455	-14.4115
 247	1	10	0.15893	-13.7091	23.7693	-10.7021
 248	1	10	0.147704	-15.1795	25.084	-12.2549
 249	1	6	0.584577	-16.8268	23.9819	-14.3247
 250	1	7	-0.046755	-18.0077	24.7114	-13.7475
 251	1	7	-0.110868	-18.6316	24.3103	-12.5349
 252	1	7	-0.046132	-19.652	25.1317	-12.0214
 253	1	7	-0.135873	-18.4528	25.8669	-14.4335
 254	1	7	-0.117662	-19.372	26.7393	-13.8267
 255	1	7	-0.064457	-19.9132	26.3671	-12.5965
 256	1	6	0.492569	-20.7997	27.1211	-11.6713
 257	1	5	-0.072087	-21.0761	26.2498	-10.6348
 258	1	6	0.477555	-20.5096	24.977	-10.8005
 259	1	7	0.042617	-21.7659	26.7091	-9.50257
 260	1	7	-0.20367	-21.4278	27.9521	-8.91729
 261	1	7	-0.057018	-22.1939	28.4644	-7.86261
 262	1	7	-0.18182	-22.8655	25.9826	-9.0386
 263	1	7	-0.14326	-23.6348	26.501	-7.99041
 264	1	7	0.043342	-23.2861	27.7198	-7.36227
 265	1	10	0.163244	-20.5893	28.5295	-9.29041
 266	1	10	0.101178	-21.9274	29.4349	-7.45461
 267	1	10	0.165346	-19.6438	27.6805	-14.2988
 268	1	10	0.135111	-17.9675	26.1546	-15.3659
 269	1	10	0.171751	-18.3106	23.422	-11.995
 270	1	9	-0.478239	-20.7085	23.932	-10.18
 271	1	9	-0.481107	-21.1425	28.2879	-11.7627
 272	1	9	-0.49957	-16.7847	23.799	-15.535
 273	1	10	0.151248	-23.169	25.0619	-9.53157
 274	1	10	0.146138	-24.5239	25.9604	-7.67784
 275	1	1	0.044043	-24.2317	28.3251	-6.32321
 276	1	1	-0.215975	-24.6349	27.2855	-5.24687
 277	1	2	0.063789	-25.2152	26.4512	-5.66594
 278	1	2	0.072206	-25.2615	27.7589	-4.48114
 279	1	2	0.045489	-23.7396	26.8676	-4.74843
 280	1	1	0.005306	-25.4188	28.9704	-7.09344
 281	1	1	0.164932	-25.5433	30.4504	-6.63965
 282	1	2	0.005277	-26.3486	28.3878	-6.99458
 283	1	2	0.017604	-25.1984	28.9669	-8.17362
 284	1	7	0.008363	-24.3316	30.6767	-5.7384
 285	1	1	-0.151488	-26.8462	30.6059	-5.81184
 286	1	1	-0.269275	-25.5427	31.3857	-7.87802
 287	1	7	0.096378	-23.6424	29.4826	-5.54258
 288	1	2	0.063418	-26.2951	31.0664	-8.61385
 289	1	2	0.061085	-24.5584	31.3886	-8.3613
 290	1	2	0.065045	-25.7698	32.4149	-7.57517
 291	1	7	-0.142025	-23.9749	31.8182	-4.98272
 292	1	7	-0.448546	-22.5247	29.3931	-4.6938
 293	1	7	0.277842	-22.0753	30.5326	-4.00468
 294	1	7	-0.409063	-22.8532	31.7086	-4.1148
 295	1	10	0.203923	-21.9893	28.4533	-4.62191
 296	1	2	0.016419	-26.994	31.65	-5.5052
 297	1	2	0.049665	-26.8171	29.9792	-4.89897
 298	1	2	0.035794	-27.7285	30.3019	-6.39604
 299	1	10	0.161583	-24.5445	32.7404	-5.0702
 300	1	10	0.199011	-22.5416	32.5835	-3.55251
 301	1	5	0.463181	-23.7094	4.18503	-3.32531
 302	1	6	0.074399	-22.6074	4.29894	-2.46087
 303	1	7	0.034296	-21.9816	5.62469	-2.79833
 304	1	6	0.051625	-23.849	5.30316	-4.13204
 305	1	7	0.019035	-22.7644	6.2459	-3.74199
 306	1	9	-0.389616	-22.2966	3.55798	-1.53837
 307	1	9	-0.380104	-24.545	5.40295	-5.12474
 308	1	7	-0.045097	-20.7449	6.16319	-2.47846
 309	1	7	-0.056032	-22.3703	7.41238	-4.41418
 310	1	7	-0.174781	-21.1324	7.95316	-4.09701
 311	1	7	-0.129342	-20.3409	7.37696	-3.08541
 312	1	10	0.168842	-20.0864	5.60757	-1.81402
 313	1	10	0.15893	-22.9537	7.79778	-5.2516
 314	1	10	0.147704	-20.7812	8.77863	-4.70965
 315	1	6	0.584577	-18.9101	7.83593	-2.8949
 316	1	7	-0.046755	-18.5344	9.26046	-3.26525
 317	1	7	-0.110868	-17.235	9.62391	-3.70589
 318	1	7	-0.046132	-17.0272	10.954	-4.06008
 319	1	7	-0.135873	-19.5523	10.2527	-3.12861
 320	1	7	-0.117662	-19.3819	11.5334	-3.65669
 321	1	7	-0.064457	-18.0804	11.8583	-4.10558
 322	1	6	0.492569	-17.572	13.0747	-4.80718
 323	1	5	-0.072087	-16.268	12.8	-5.19383
 324	1	6	0.477555	-15.8539	11.5425	-4.77143
 325	1	7	0.042617	-15.3471	13.6749	-5.84873
 326	1	7	-0.20367	-14.1067	13.956	-5.24107
 327	1	7	-0.057018	-13.2066	14.813	-5.87768
 328	1	7	-0.18182	-15.6546	14.2269	-7.11121
 329	1	7	-0.14326	-14.7049	15.0157	-7.78819
 330	1	7	0.043342	-13.4884	15.3622	-7.15681
 331	1	10	0.163244	-13.8566	13.5617	-4.26078
 332	1	10	0.101178	-12.2741	15.0421	-5.37182
 333	1	10	0.165346	-20.2023	12.2505	-3.69936
 334	1	10	0.135111	-20.5228	10.0178	-2.70159
 335	1	10	0.171751	-16.4355	8.88861	-3.77577
 336	1	9	-0.478239	-14.7544	11.0231	-4.91817
 337	1	9	-0.481107	-18.2374	14.0497	-5.08717
 338	1	9	-0.49957	-18.0736	7.0379	-2.48893
 339	1	10	0.151248	-16.6241	14.0306	-7.57103
 340	1	10	0.146138	-14.9417	15.4198	-8.76118
 341	1	1	0.044043	-12.4153	16.2402	-7.82544
 342	1	1	-0.215975	-12.1056	17.4533	-6.91284
 343	1	2	0.063789	-13.0217	18.0192	-6.71352
 344	1	2	0.072206	-11.3855	18.1282	-7.37878
 345	1	2	0.045489	-11.7263	17.1359	-5.94044
 346	1	1	0.005306	-11.1588	15.3253	-8.03734
 347	1	1	0.164932	-10.8771	15.139	-9.58112
 348	1	2	0.005277	-11.3015	14.3547	-7.54521
 349	1	2	0.017604	-10.2848	15.7939	-7.55714
 350	1	7	0.008363	-11.8078	16.1628	-10.1845
 351	1	1	-0.151488	-11.2279	13.7334	-10.1972
 352	1	1	-0.269275	-9.3768	15.4331	-9.86955
 353	1	7	0.096378	-12.6941	16.7372	-9.26474
 354	1	2	0.063418	-9.15305	15.4841	-10.9419
 355	1	2	0.061085	-8.77106	14.6397	-9.41016
 356	1	2	0.065045	-9.06969	16.3796	-9.40519
 357	1	7	-0.142025	-11.7597	16.5795	-11.5114
 358	1	7	-0.448546	-13.4609	17.8587	-9.64547
 359	1	7	0.277842	-13.3522	18.3705	-10.9717
 360	1	7	-0.409063	-12.5733	17.6499	-11.9053
 361	1	10	0.203923	-14.0676	18.38	-8.91097
 362	1	2	0.016419	-11.0384	13.7081	-11.2789
 363	1	2	0.049665	-12.2941	13.5015	-10.0711
 364	1	2	0.035794	-10.6372	12.9536	-9.71075
 365	1	10	0.161583	-11.0604	16.117	-12.1978
 366	1	10	0.199011	-12.4949	18.0243	-12.9198
 367	1	5	0.463181	-20.6778	-15.0746	-7.89093
 368	1	6	0.074399	-20.968	-14.3892	-9.08685
 369	1	7	0.034296	-20.6854	-12.9448	-8.81046
 370	1	6	0.051625	-20.2668	-14.183	-6.89082
 371	1	7	0.019035	-20.2473	-12.8277	-7.50501
 372	1	9	-0.389616	-21.6043	-14.7938	-10.0215
 373	1	9	-0.380104	-20.1296	-14.4576	-5.72058
 374	1	7	-0.045097	-20.6621	-11.8221	-9.65376
 375	1	7	-0.056032	-19.9036	-11.6046	-6.91884
 376	1	7	-0.174781	-19.917	-10.465	-7.7262
 377	1	7	-0.129342	-20.2556	-10.6073	-9.0997
 378	1	10	0.168842	-20.9519	-11.9116	-10.7044
 379	1	10	0.15893	-19.5574	-11.5568	-5.88803
 380	1	10	0.147704	-19.5746	-9.52749	-7.2924
 381	1	6	0.584577	-20.2187	-9.51674	-10.097
 382	1	7	-0.046755	-20.2128	-8.12177	-9.54702
 383	1	7	-0.110868	-21.3908	-7.65592	-8.96478
 384	1	7	-0.046132	-21.4231	-6.3498	-8.46833
 385	1	7	-0.135873	-19.0664	-7.28296	-9.61567
 386	1	7	-0.117662	-19.0899	-5.97915	-9.12107
 387	1	7	-0.064457	-20.2752	-5.56432	-8.51476
 388	1	6	0.492569	-20.5544	-4.25732	-7.85425
 389	1	5	-0.072087	-21.8619	-4.35365	-7.40582
 390	1	6	0.477555	-22.4716	-5.53029	-7.79744
 391	1	7	0.042617	-22.4222	-3.45224	-6.43401
 392	1	7	-0.20367	-22.4841	-3.87979	-5.09442
 393	1	7	-0.057018	-22.7078	-2.98017	-4.04908
 394	1	7	-0.18182	-22.7731	-2.1188	-6.7199
 395	1	7	-0.14326	-23.1982	-1.24943	-5.6934
 396	1	7	0.043342	-23.1887	-1.68751	-4.35847
 397	1	10	0.163244	-22.2988	-4.93795	-4.88311
 398	1	10	0.101178	-22.7153	-3.33131	-3.00667
 399	1	10	0.165346	-18.2174	-5.34671	-9.20374
 400	1	10	0.135111	-18.1395	-7.63827	-10.0617
 401	1	10	0.171751	-22.2683	-8.28962	-8.8985
 402	1	9	-0.478239	-23.5286	-5.96037	-7.41024
 403	1	9	-0.481107	-19.7359	-3.38687	-7.62926
 404	1	9	-0.49957	-20.1758	-9.70703	-11.3112
 405	1	10	0.151248	-22.7245	-1.73795	-7.74135
 406	1	10	0.146138	-23.6219	-0.293908	-5.96555
 407	1	1	0.044043	-23.6207	-0.783686	-3.17628
 408	1	1	-0.215975	-22.4012	-0.500669	-2.27038
 409	1	2	0.063789	-22.0442	-1.43824	-1.7864
 410	1	2	0.072206	-22.5681	0.240371	-1.48443
 411	1	2	0.045489	-21.6089	-0.0780475	-2.89955
 412	1	1	0.005306	-24.7963	-1.43774	-2.3451
 413	1	1	0.164932	-26.1665	-0.865615	-2.86428
 414	1	2	0.005277	-24.6504	-1.13796	-1.28611
 415	1	2	0.017604	-24.8079	-2.54812	-2.39457
 416	1	7	0.008363	-25.7185	0.488907	-3.41331
 417	1	1	-0.151488	-27.1602	-0.849842	-1.67724
 418	1	1	-0.269275	-26.7358	-1.73939	-4.00901
 419	1	7	0.096378	-24.3218	0.526351	-3.57385
 420	1	2	0.063418	-26.9565	-2.75706	-3.66834
 421	1	2	0.061085	-26.0222	-1.80806	-4.8236
 422	1	2	0.065045	-27.6406	-1.28843	-4.43093
 423	1	7	-0.142025	-26.4932	1.66982	-3.34748
 424	1	7	-0.448546	-23.6745	1.76907	-3.59893
 425	1	7	0.277842	-24.4276	2.95718	-3.55235
 426	1	7	-0.409063	-25.8465	2.90616	-3.51068
 427	1	10	0.203923	-22.5857	1.82499	-3.5511
 428	1	2	0.016419	-28.0709	-0.322185	-1.92194
 429	1	2	0.049665	-26.7058	-0.35889	-0.843403
 430	1	2	0.035794	-27.4628	-1.84511	-1.32634
 431	1	10	0.161583	-27.5574	1.58807	-3.14751
 432	1	10	0.199011	-26.4352	3.82104	-3.48227
 433	1	5	0.463181	-7.13277	-28.6282	-13.2994
 434	1	6	0.074399	-7.54326	-28.3727	-11.9733
 435	1	7	0.034296	-8.71698	-27.5028	-12.0474
 436	1	6	0.051625	-8.04899	-28.0453	-14.1682
 437	1	7	0.019035	-9.06675	-27.3527	-13.3529
 438	1	9	-0.389616	-7.00369	-28.6148	-10.905
 439	1	9	-0.380104	-7.96773	-27.9491	-15.3675
 440	1	7	-0.045097	-9.326	-26.8224	-11.0033
 441	1	7	-0.056032	-10.1933	-26.6011	-13.7155
 442	1	7	-0.174781	-10.8257	-25.8342	-12.6834
 443	1	7	-0.129342	-10.3955	-25.9716	-11.3329
 444	1	10	0.168842	-8.97673	-26.904	-9.97117
 445	1	10	0.15893	-10.5269	-26.5387	-14.7656
 446	1	10	0.147704	-11.6195	-25.1574	-12.9308
 447	1	6	0.584577	-11.0121	-25.1177	-10.2896
 448	1	7	-0.046755	-12.5209	-24.8941	-10.353
 449	1	7	-0.110868	-13.1045	-23.6224	-10.1168
 450	1	7	-0.046132	-14.4668	-23.4865	-10.2005
 451	1	7	-0.135873	-13.3219	-26.0268	-10.6015
 452	1	7	-0.117662	-14.6935	-25.9225	-10.5864
 453	1	7	-0.064457	-15.226	-24.642	-10.3741
 454	1	6	0.492569	-16.6379	-24.3151	-10.2258
 455	1	5	-0.072087	-16.659	-22.914	-10.0298
 456	1	6	0.477555	-15.3775	-22.3297	-10.0019
 457	1	7	0.042617	-17.8777	-22.1653	-9.91434
 458	1	7	-0.20367	-18.1376	-21.4681	-8.73993
 459	1	7	-0.057018	-19.2834	-20.7033	-8.58431
 460	1	7	-0.18182	-18.8308	-22.0783	-10.9492
 461	1	7	-0.14326	-19.9577	-21.2516	-10.8304
 462	1	7	0.043342	-20.2117	-20.5793	-9.61892
 463	1	10	0.163244	-17.4334	-21.4913	-7.9323
 464	1	10	0.101178	-19.4493	-20.176	-7.65833
 465	1	10	0.165346	-15.3371	-26.7569	-10.7713
 466	1	10	0.135111	-12.8974	-27.0182	-10.8509
 467	1	10	0.171751	-12.4916	-22.7801	-9.87173
 468	1	9	-0.478239	-15.0692	-21.2186	-9.62218
 469	1	9	-0.481107	-17.5726	-25.1291	-10.2697
 470	1	9	-0.49957	-10.3635	-24.7846	-9.29576
 471	1	10	0.151248	-18.6802	-22.7073	-11.8186
 472	1	10	0.146138	-20.6813	-21.2956	-11.631
 473	1	1	0.044043	-21.5692	-19.8933	-9.41395
 474	1	1	-0.215975	-22.2678	-19.4226	-10.7209
 475	1	2	0.063789	-21.5759	-18.9281	-11.4139
 476	1	2	0.072206	-23.0961	-18.7527	-10.5553
 477	1	2	0.045489	-22.6883	-20.269	-11.2539
 478	1	1	0.005306	-22.5554	-20.9082	-8.76663
 479	1	1	0.164932	-22.8887	-20.3849	-7.33832
 480	1	2	0.005277	-22.1671	-21.9309	-8.7766
 481	1	2	0.017604	-23.4852	-20.9537	-9.34508
 482	1	7	0.008363	-22.1495	-19.073	-7.23624
 483	1	1	-0.151488	-22.4431	-21.4494	-6.30414
 484	1	1	-0.269275	-24.4066	-20.1455	-7.17874
 485	1	7	0.096378	-21.4991	-18.7486	-8.41603
 486	1	2	0.063418	-25.0264	-20.9783	-7.5199
 487	1	2	0.061085	-24.7378	-19.2167	-7.69367
 488	1	2	0.065045	-24.6524	-20.0345	-6.13941
 489	1	7	-0.142025	-22.2032	-18.1485	-6.22148
 490	1	7	-0.448546	-20.8554	-17.4763	-8.60241
 491	1	7	0.277842	-21.0182	-16.4565	-7.62152
 492	1	7	-0.409063	-21.7158	-16.843	-6.43509
 493	1	10	0.203923	-20.3724	-17.231	-9.54471
 494	1	2	0.016419	-21.3945	-21.7488	-6.43506
 495	1	2	0.049665	-23.0504	-22.3592	-6.44241
 496	1	2	0.035794	-22.644	-21.0907	-5.3023
 497	1	10	0.161583	-22.8221	-18.3479	-5.35548
 498	1	10	0.199011	-21.9551	-16.0924	-5.68013
 499	1	1	0.070548	-4.8589	-29.7462	-12.742
 500	1	1	0.506757	-6.06281	-29.5763	-13.685
 501	1	2	-0.012767	-5.10919	-30.1559	-11.7364
 502	1	2	-0.014806	-4.28244	-30.5827	-13.2356
 503	1	3	-0.274996	-5.56251	-29.4546	-14.986
 504	1	3	-0.274736	-6.62343	-30.8332	-13.706
 505	1	5	0.463181	10.6796	-41.6233	-14.5472
 506	1	6	0.074399	10.6979	-40.2761	-15.0203
 507	1	7	0.034296	9.29413	-39.8902	-15.059
 508	1	6	0.051625	9.34626	-42.0973	-14.3889
 509	1	7	0.019035	8.49024	-40.8982	-14.605
 510	1	9	-0.389616	11.6514	-39.5772	-15.3703
 511	1	9	-0.380104	8.95135	-43.2213	-14.1182
 512	1	7	-0.045097	8.73705	-38.6431	-15.3457
 513	1	7	-0.056032	7.0801	-40.8069	-14.5526
 514	1	7	-0.174781	6.49517	-39.5692	-14.8575
 515	1	7	-0.129342	7.33793	-38.4747	-15.1677
 516	1	10	0.168842	9.37592	-37.8434	-15.7223
 517	1	10	0.15893	6.48817	-41.6757	-14.2965
 518	1	10	0.147704	5.40328	-39.4568	-14.821
 519	1	6	0.584577	6.80868	-37.0902	-15.3284
 520	1	7	-0.046755	5.6287	-36.5727	-14.551
 521	1	7	-0.110868	5.0156	-35.3753	-15.0084
 522	1	7	-0.046132	3.89033	-34.8711	-14.3763
 523	1	7	-0.135873	5.18693	-37.192	-13.3849
 524	1	7	-0.117662	4.11552	-36.6265	-12.6787
 525	1	7	-0.064457	3.46245	-35.4962	-13.2072
 526	1	6	0.492569	2.45873	-34.6251	-12.5464
 527	1	5	-0.072087	2.40801	-33.4837	-13.3454
 528	1	6	0.477555	3.1469	-33.6012	-14.5136
 529	1	7	0.042617	1.7653	-32.2824	-12.9011
 530	1	7	-0.20367	0.670239	-31.6293	-13.5766
 531	1	7	-0.057018	0.0998338	-30.3954	-13.1336
 532	1	7	-0.18182	2.178	-31.6221	-11.7369
 533	1	7	-0.14326	1.65974	-30.3735	-11.2948
 534	1	7	0.043342	0.592002	-29.7624	-11.9755
 535	1	10	0.163244	0.207175	-32.1529	-14.3785
 536	1	10	0.101178	-0.686366	-29.9515	-13.7338
 537	1	10	0.165346	3.83308	-36.9903	-11.7063
 538	1	10	0.135111	5.77386	-37.9812	-12.948
 539	1	10	0.171751	5.40276	-34.8642	-15.8594
 540	1	9	-0.478239	3.12767	-32.8829	-15.4745
 541	1	9	-0.481107	1.84668	-34.7877	-11.5023
 542	1	9	-0.49957	7.39881	-36.3408	-16.0955
 543	1	10	0.151248	2.98384	-32.0909	-11.175
 544	1	10	0.146138	2.04476	-29.8877	-10.4198
 545	1	1	0.044043	0.00236227	-28.3674	-11.5705
 546	1	1	-0.215975	0.01172	-28.1602	-10.0163
 547	1	2	0.063789	-0.330048	-28.9929	-9.3837
 548	1	2	0.072206	-0.640883	-27.3149	-9.69194
 549	1	2	0.045489	1.04033	-27.8961	-9.67797
 550	1	1	0.005306	0.759335	-27.2226	-12.3144
 551	1	1	0.164932	-0.270393	-26.0721	-12.6379
 552	1	2	0.005277	1.199	-27.6056	-13.2547
 553	1	2	0.017604	1.55613	-26.8366	-11.7413
 554	1	7	0.008363	-1.56412	-26.8622	-12.5432
 555	1	1	-0.151488	-0.0601465	-25.6079	-14.0987
 556	1	1	-0.269275	-0.147154	-24.9101	-11.598
 557	1	7	0.096378	-1.42276	-28.1079	-11.9752
 558	1	2	0.063418	-0.825187	-24.0832	-11.8501
 559	1	2	0.061085	0.912402	-24.5775	-11.5745
 560	1	2	0.065045	-0.368503	-25.2568	-10.554
 561	1	7	-0.142025	-2.78426	-26.4321	-13.0874
 562	1	7	-0.448546	-2.54214	-28.9643	-11.9436
 563	1	7	0.277842	-3.77689	-28.6156	-12.5375
 564	1	7	-0.409063	-3.8661	-27.3153	-13.0244
 565	1	10	0.203923	-2.39593	-29.9995	-11.6337
 566	1	2	0.016419	-0.344921	-26.3307	-14.8778
 567	1	2	0.049665	1.00279	-25.4159	-14.2119
 568	1	2	0.035794	-0.602587	-24.6998	-14.291
 569	1	10	0.161583	-2.8445	-25.4253	-13.4954
 570	1	10	0.199011	-4.80737	-27.019	-13.4843
 571	1	1	0.070548	11.7767	-43.9189	-14.2891
 572	1	1	0.506757	11.9611	-42.3904	-14.2317
 573	1	2	-0.012767	11.0212	-44.2274	-13.585
 574	1	2	-0.014806	11.4118	-44.1905	-15.2745
 575	1	3	-0.274996	12.9934	-42.0643	-15.0977
 576	1	3	-0.274736	12.3675	-42.1415	-12.9491
 577	1	5	0.463181	10.942	-53.2143	1.1564
 578	1	6	0.074399	10.0713	-52.442	0.407474
 579	1	7	0.034296	10.0114	-53.0074	-0.978
 580	1	6	0.051625	11.5022	-54.2292	0.375282
 581	1	7	0.019035	10.803	-54.1338	-0.934666
 582	1	9	-0.389616	9.57915	-51.3888	0.736456
 583	1	9	-0.380104	12.2914	-55.1582	0.615593
 584	1	7	-0.045097	9.29634	-52.6134	-2.14267
 585	1	7	-0.056032	10.891	-54.982	-2.04324
 586	1	7	-0.174781	10.0962	-54.7186	-3.18994
 587	1	7	-0.129342	9.28619	-53.5411	-3.22169
 588	1	10	0.168842	8.76102	-51.6676	-2.15352
 589	1	10	0.15893	11.6638	-55.7955	-2.03203
 590	1	10	0.147704	10.0948	-55.367	-4.08032
 591	1	6	0.584577	8.32924	-53.4101	-4.39349
 592	1	7	-0.046755	8.48041	-52.2035	-5.30555
 593	1	7	-0.110868	9.66956	-51.3944	-5.27668
 594	1	7	-0.046132	9.86505	-50.4012	-6.27506
 595	1	7	-0.135873	7.49605	-51.9067	-6.28396
 596	1	7	-0.117662	7.71236	-50.9465	-7.31236
 597	1	7	-0.064457	8.93948	-50.2366	-7.30741
 598	1	6	0.492569	9.57172	-49.3392	-8.29422
 599	1	5	-0.072087	10.8845	-49.1183	-7.94339
 600	1	6	0.477555	11.1104	-49.6986	-6.688
 601	1	7	0.042617	11.8698	-48.4831	-8.78162
 602	1	7	-0.20367	11.9739	-48.8183	-10.1212
 603	1	7	-0.057018	13.0368	-48.2821	-10.9261
 604	1	7	-0.18182	12.8741	-47.6631	-8.29236
 605	1	7	-0.14326	14.0028	-47.2229	-9.05478
 606	1	7	0.043342	14.082	-47.4984	-10.4119
 607	1	10	0.163244	11.2349	-49.4151	-10.5976
 608	1	10	0.101178	12.999	-48.4731	-12.0304
 609	1	10	0.165346	6.99528	-50.7318	-8.0826
 610	1	10	0.135111	6.59429	-52.4852	-6.33634
 611	1	10	0.171751	10.5188	-51.6297	-4.59182
 612	1	9	-0.478239	12.147	-49.7916	-6.09371
 613	1	9	-0.481107	9.0066	-48.8772	-9.29346
 614	1	9	-0.49957	7.64081	-54.3856	-4.69691
 615	1	10	0.151248	12.8675	-47.4755	-7.26403
 616	1	10	0.146138	14.7441	-46.611	-8.63067
 617	1	1	0.044043	15.1077	-46.846	-11.4562
 618	1	1	-0.215975	16.0656	-45.7661	-10.8154
 619	1	2	0.063789	16.6834	-46.2286	-10.0276
 620	1	2	0.072206	15.5199	-44.8943	-10.4519
 621	1	2	0.045489	16.7453	-45.3368	-11.5573
 622	1	1	0.005306	15.9913	-47.96	-12.1156
 623	1	1	0.164932	16.3354	-47.5208	-13.5996
 624	1	2	0.005277	15.4072	-48.909	-12.1
 625	1	2	0.017604	16.8848	-48.1971	-11.563