pySIMM System Object

1170 atoms
1281 bonds
2288 angles
3633 dihedrals
336 impropers

10 atom types
13 bond types
25 angle types
12 dihedral types
4 improper types

-158.947680 158.947680 xlo xhi
-158.947680 158.947680 ylo yhi
-158.947680 158.947680 zlo zhi

Masses

   1	14.01	# n
   2	12.01	# c
   3	12.01	# ca
   4	1.008	# hn
   5	16.0	# o
   6	1.008	# ha
   7	12.01	# c3
   8	1.008	# hc
   9	19.0	# f
  10	1.008	# h2

Pair Coeffs

   1	0.17	3.249998523775958	# n
   2	0.086	3.3996695084235347	# c
   3	0.086	3.3996695084235347	# ca
   4	0.0157	1.069078461768407	# hn
   5	0.21	2.959921901149463	# o
   6	0.015	2.59964245953351	# ha
   7	0.1094	3.3996695084235347	# c3
   8	0.0157	2.649532787749369	# hc
   9	0.061	3.1181455134911875	# f
  10	0.0157	2.2931733004932333	# h2

Bond Coeffs

   1	637.7	1.2183	# c,o
   2	321.0	1.5156	# c3,ca
   3	384.2	1.4121	# ca,n
   4	403.2	1.0129	# hn,n
   5	330.6	1.0969	# c3,hc
   6	427.6	1.3789	# c,n
   7	461.1	1.3984	# ca,ca
   8	345.9	1.4906	# c,ca
   9	300.9	1.5375	# c3,c3
  10	345.8	1.086	# ca,ha
  11	331.7	1.0961	# c3,h2
  12	356.9	1.3497	# c3,f
  13	328.7	1.4619	# c3,n

Angle Coeffs

   1	64.28	120.33	# c,ca,ca
   2	63.53	120.77	# c3,ca,ca
   3	66.62	120.02	# ca,ca,ca
   4	74.22	123.05	# n,c,o
   5	62.86	111.51	# c3,c3,c3
   6	63.74	127.08	# c,n,c
   7	63.15	112.07	# c3,c3,ca
   8	48.18	119.88	# ca,ca,ha
   9	67.87	120.19	# ca,ca,n
  10	68.72	122.6	# ca,c,o
  11	46.34	109.8	# c3,c3,hc
  12	63.0	118.11	# ca,c,ca
  13	63.82	123.71	# c,n,ca
  14	67.68	115.25	# ca,c,n
  15	63.56	112.24	# ca,c3,ca
  16	48.33	117.55	# c,n,hn
  17	39.4	107.58	# hc,c3,hc
  18	70.89	107.36	# f,c3,f
  19	66.11	109.24	# c3,c3,f
  20	46.25	110.22	# c3,c3,h2
  21	51.15	108.79	# f,c3,h2
  22	63.39	120.69	# c,n,c3
  23	65.91	111.61	# c3,c3,n
  24	69.52	110.41	# f,c3,n
  25	46.8	110.47	# ca,c3,hc

Dihedral Coeffs

   1	2	2.5	2	180	2.0	1	0	# hn,n,c,o
   2	1	3.625	2	180	# X,ca,ca,X
   3	1	0.16	3	0	# hc,c3,c3,c3
   4	1	1.0	2	180	# X,c,ca,X
   5	1	0.15555555555555556	3	0	# X,c3,c3,X
   6	1	0.0	2	0	# X,c3,ca,X
   7	1	2.5	2	180	# X,c,n,X
   8	1	0.45	2	180	# X,ca,n,X
   9	3	0.18	3	0	0.25	2	180	0.2	1	180	# c3,c3,c3,c3
  10	2	0.0	3	0	0.19	1	0	# hc,c3,c3,f
  11	4	0.5	4	180	0.15	3	180	0.0	2	0	0.53	1	0	# c3,c3,n,c
  12	1	0.0	2	0	# X,c3,n,X

Improper Coeffs

   1	10.5	-1	2	# c,X,X,o
   2	1.1	-1	2	# ca,X,X,ha
   3	1.1	-1	2	# ca,ca,ca,c3
   4	1.1	-1	2	# n,X,X,hn

Atoms

   1	1	1	0.463181	3.49351	-11.047	-60.9967
   2	1	2	0.074399	4.08509	-10.6149	-62.1958
   3	1	3	0.034296	4.72778	-11.8405	-62.6958
   4	1	2	0.051625	3.56254	-12.4046	-60.7948
   5	1	3	0.019035	4.43239	-12.9237	-61.8819
   6	1	5	-0.389616	4.13319	-9.4749	-62.6458
   7	1	5	-0.380104	3.35922	-12.9616	-59.729
   8	1	3	-0.045097	5.52185	-11.9189	-63.8527
   9	1	3	-0.056032	4.95838	-14.1872	-62.1036
  10	1	3	-0.174781	5.80701	-14.3059	-63.2582
  11	1	3	-0.129342	6.1061	-13.159	-64.0949
  12	1	6	0.168842	5.75306	-11.023	-64.4579
  13	1	6	0.15893	4.78608	-15.0012	-61.381
  14	1	6	0.147704	6.29227	-15.2476	-63.508
  15	1	2	0.584577	7.09355	-13.3046	-65.174
  16	1	3	-0.046755	6.66435	-13.303	-66.622
  17	1	3	-0.110868	7.66325	-13.4125	-67.57
  18	1	3	-0.046132	7.2742	-13.5415	-68.9002
  19	1	3	-0.135873	5.28077	-13.2956	-66.9986
  20	1	3	-0.117662	4.90991	-13.4547	-68.3625
  21	1	3	-0.064457	5.96172	-13.5466	-69.2964
  22	1	2	0.492569	5.9546	-13.6666	-70.7827
  23	1	1	-0.072087	7.26698	-13.9348	-71.1199
  24	1	2	0.477555	8.13145	-13.8272	-70.0449
  25	1	3	0.042617	7.75047	-14.1059	-72.4565
  26	1	3	-0.20367	7.43129	-13.1138	-73.3907
  27	1	3	-0.057018	7.8904	-13.2202	-74.7082
  28	1	3	-0.18182	8.48202	-15.2278	-72.8314
  29	1	3	-0.14326	8.86788	-15.4075	-74.1727
  30	1	3	0.043342	8.58218	-14.3903	-75.1409
  31	1	6	0.163244	6.82642	-12.2733	-73.0895
  32	1	6	0.101178	7.65818	-12.4185	-75.4097
  33	1	6	0.165346	3.85956	-13.5264	-68.6314
  34	1	6	0.135111	4.48191	-13.1914	-66.2644
  35	1	6	0.171751	8.7017	-13.514	-67.2709
  36	1	5	-0.478239	9.34179	-13.9566	-70.0075
  37	1	5	-0.481107	5.01422	-13.464	-71.5239
  38	1	5	-0.49957	8.25313	-13.3758	-64.855
  39	1	6	0.151248	8.79067	-15.9483	-72.068
  40	1	6	0.146138	9.42783	-16.3206	-74.4748
  41	1	7	0.044043	9.10674	-14.5693	-76.5823
  42	1	7	-0.215975	8.46393	-13.5351	-77.5309
  43	1	8	0.063789	8.71103	-12.5118	-77.231
  44	1	8	0.072206	7.3838	-13.7042	-77.5697
  45	1	8	0.045489	8.79404	-13.6644	-78.5413
  46	1	7	0.005306	10.6671	-14.4623	-76.7127
  47	1	7	0.164932	11.1741	-15.6077	-77.6212
  48	1	8	0.005277	11.0805	-14.5539	-75.7021
  49	1	8	0.017604	11.0215	-13.4878	-77.1162
  50	1	3	0.008363	9.96488	-16.4395	-77.8428
  51	1	7	-0.151488	12.2788	-16.4322	-76.903
  52	1	7	-0.269275	11.6571	-15.1068	-78.9821
  53	1	3	0.096378	8.83191	-15.9002	-77.2209
  54	1	8	0.063418	10.818	-14.6531	-79.5578
  55	1	8	0.061085	12.0375	-15.9554	-79.5928
  56	1	8	0.065045	12.4566	-14.3727	-78.8359
  57	1	3	-0.142025	9.91083	-17.6771	-78.5226
  58	1	3	-0.448546	7.60476	-16.5677	-77.316
  59	1	3	0.277842	7.53091	-17.7819	-78.0373
  60	1	3	-0.409063	8.66428	-18.3333	-78.6448
  61	1	6	0.203923	6.73619	-16.1606	-76.7907
  62	1	8	0.016419	11.8828	-16.9122	-76.0076
  63	1	8	0.049665	13.1124	-15.8157	-76.6304
  64	1	8	0.035794	12.7017	-17.2368	-77.5153
  65	1	6	0.161583	10.7939	-18.0832	-79.0185
  66	1	6	0.199011	8.56439	-19.186	-79.2928
  67	1	7	0.070548	4.1293	-9.95345	-58.7509
  68	1	7	0.506757	3.00883	-10.1793	-59.842
  69	1	8	-0.012767	5.01792	-9.5129	-59.2273
  70	1	8	-0.014806	4.4579	-10.9359	-58.39
  71	1	9	-0.274996	2.61195	-8.92002	-60.2
  72	1	9	-0.274736	1.86589	-10.7618	-59.2333
  73	1	7	0.070548	4.72776	-9.20525	-56.3817
  74	1	7	0.506757	3.71799	-9.03118	-57.569
  75	1	8	-0.012767	4.5542	-10.1501	-55.8545
  76	1	8	-0.014806	5.72803	-9.33722	-56.7798
  77	1	9	-0.274996	3.66582	-7.74944	-57.9961
  78	1	9	-0.274736	2.51234	-9.37949	-57.1076
  79	1	7	0.070548	3.38897	-7.71318	-54.7265
  80	1	7	0.506757	4.78746	-8.06805	-55.3163
  81	1	8	-0.012767	2.73313	-7.45937	-55.5921
  82	1	8	-0.014806	2.97002	-8.60233	-54.2455
  83	1	9	-0.274996	5.60992	-8.43879	-54.3212
  84	1	9	-0.274736	5.29485	-6.94113	-55.875
  85	1	1	0.463181	3.30239	-17.7665	-49.5837
  86	1	2	0.074399	4.08691	-17.6427	-48.4197
  87	1	3	0.034296	3.09358	-17.2932	-47.3755
  88	1	2	0.051625	1.9292	-17.4938	-49.3862
  89	1	3	0.019035	1.83266	-17.3026	-47.9481
  90	1	5	-0.389616	5.23835	-17.9254	-48.2127
  91	1	5	-0.380104	1.07922	-17.1412	-50.2055
  92	1	3	-0.045097	3.32363	-16.835	-46.0854
  93	1	3	-0.056032	0.717767	-17.0497	-47.2261
  94	1	3	-0.174781	0.83249	-16.6399	-45.9046
  95	1	3	-0.129342	2.15332	-16.4318	-45.3851
  96	1	6	0.168842	4.34102	-16.6158	-45.6925
  97	1	6	0.15893	-0.256621	-17.081	-47.6994
  98	1	6	0.147704	-0.0528968	-16.3718	-45.3321
  99	1	2	0.584577	2.33784	-15.5865	-44.2268
 100	1	3	-0.046755	2.65869	-14.1381	-44.5109
 101	1	3	-0.110868	2.84914	-13.6695	-45.8466
 102	1	3	-0.046132	3.15176	-12.2997	-46.0221
 103	1	3	-0.135873	2.66397	-13.2325	-43.4089
 104	1	3	-0.117662	2.98148	-11.8743	-43.6376
 105	1	3	-0.064457	3.19093	-11.4548	-44.957
 106	1	2	0.492569	3.32464	-10.0869	-45.4324
 107	1	1	-0.072087	3.49574	-10.1883	-46.8049
 108	1	2	0.477555	3.39455	-11.507	-47.2548
 109	1	3	0.042617	3.66334	-9.04454	-47.6594
 110	1	3	-0.20367	4.63435	-8.10686	-47.3456
 111	1	3	-0.057018	4.80211	-6.95425	-48.1448
 112	1	3	-0.18182	2.8868	-8.87457	-48.8206
 113	1	3	-0.14326	3.1065	-7.7582	-49.6268
 114	1	3	0.043342	4.05684	-6.75951	-49.3252
 115	1	6	0.163244	5.23408	-8.18556	-46.4373
 116	1	6	0.101178	5.48082	-6.19541	-47.7898
 117	1	6	0.165346	2.876	-11.147	-42.846
 118	1	6	0.135111	2.44437	-13.5377	-42.3962
 119	1	6	0.171751	2.72102	-14.335	-46.725
 120	1	5	-0.478239	3.3417	-11.8723	-48.4154
 121	1	5	-0.481107	3.19761	-9.09691	-44.7547
 122	1	5	-0.49957	2.12196	-16.0113	-43.1085
 123	1	6	0.151248	2.07792	-9.59823	-49.0671
 124	1	6	0.146138	2.45091	-7.63112	-50.4917
 125	1	7	0.044043	4.14115	-5.41582	-50.1065
 126	1	7	-0.215975	5.59636	-4.85236	-50.0805
 127	1	8	0.063789	5.89872	-4.41492	-49.1063
 128	1	8	0.072206	5.68781	-4.03925	-50.7784
 129	1	8	0.045489	6.31747	-5.67674	-50.3573
 130	1	7	0.005306	3.12244	-4.34169	-49.5564
 131	1	7	0.164932	2.42565	-3.60358	-50.7968
 132	1	8	0.005277	3.68877	-3.66846	-48.8959
 133	1	8	0.017604	2.37284	-4.79242	-48.8936
 134	1	3	0.008363	2.93373	-4.43519	-51.939
 135	1	7	-0.151488	2.94344	-2.13328	-50.9567
 136	1	7	-0.269275	0.864991	-3.75235	-50.778
 137	1	3	0.096378	3.78754	-5.51318	-51.6017
 138	1	8	0.063418	0.369515	-3.13746	-51.5762
 139	1	8	0.061085	0.409883	-3.44975	-49.8291
 140	1	8	0.065045	0.582181	-4.80615	-50.8971
 141	1	3	-0.142025	2.38731	-4.38339	-53.2149
 142	1	3	-0.448546	4.0429	-6.56727	-52.5163
 143	1	3	0.277842	3.43491	-6.50734	-53.7905
 144	1	3	-0.409063	2.63193	-5.42178	-54.0912
 145	1	6	0.203923	4.61351	-7.43236	-52.1911
 146	1	8	0.016419	2.53956	-1.48766	-50.2057
 147	1	8	0.049665	2.71121	-1.73394	-51.9441
 148	1	8	0.035794	4.019	-2.10624	-50.8909
 149	1	6	0.161583	1.67238	-3.60355	-53.5077
 150	1	6	0.199011	2.13163	-5.45547	-55.0415
 151	1	7	0.070548	4.06643	-16.8966	-51.7264
 152	1	7	0.506757	3.80596	-18.1599	-50.8593
 153	1	8	-0.012767	3.12819	-16.4609	-52.0064
 154	1	8	-0.014806	4.5423	-16.1236	-51.1233
 155	1	9	-0.274996	2.8624	-18.9588	-51.4201
 156	1	9	-0.274736	4.92276	-18.8927	-50.7272
 157	1	7	0.070548	4.7093	-15.8379	-54.0608
 158	1	7	0.506757	4.76846	-17.0639	-53.1047
 159	1	8	-0.012767	3.6823	-15.4626	-54.0699
 160	1	8	-0.014806	4.8116	-16.1479	-55.0879
 161	1	9	-0.274996	4.15565	-18.0891	-53.7414
 162	1	9	-0.274736	6.00655	-17.5903	-52.9347
 163	1	7	0.070548	7.01643	-14.8609	-54.3083
 164	1	7	0.506757	5.5994	-14.6474	-53.751
 165	1	8	-0.012767	6.93789	-15.3849	-55.2341
 166	1	8	-0.014806	7.51079	-15.5607	-53.668
 167	1	9	-0.274996	5.59159	-14.3767	-52.4479
 168	1	9	-0.274736	5.05925	-13.4965	-54.1986
 169	1	7	0.070548	8.20419	-12.7753	-53.169
 170	1	7	0.506757	7.85789	-13.587	-54.4342
 171	1	8	-0.012767	7.26091	-12.4056	-52.756
 172	1	8	-0.014806	8.8058	-11.9308	-53.5034
 173	1	9	-0.274996	7.42031	-12.7607	-55.3785
 174	1	9	-0.274736	9.0122	-13.9832	-54.9378
 175	1	1	0.463181	16.3021	-3.67087	-37.8421
 176	1	2	0.074399	16.359	-4.1502	-39.1611
 177	1	3	0.034296	15.0529	-4.80273	-39.3673
 178	1	2	0.051625	15.0828	-3.91494	-37.2256
 179	1	3	0.019035	14.2526	-4.60566	-38.2398
 180	1	5	-0.389616	17.2247	-4.04403	-40.039
 181	1	5	-0.380104	14.7309	-3.34119	-36.1983
 182	1	3	-0.045097	14.4932	-5.29305	-40.5296
 183	1	3	-0.056032	12.8724	-4.85222	-38.2656
 184	1	3	-0.174781	12.314	-5.49101	-39.3837
 185	1	3	-0.129342	13.1603	-5.78767	-40.462
 186	1	6	0.168842	15.1143	-5.37208	-41.4208
 187	1	6	0.15893	12.2593	-4.53117	-37.4647
 188	1	6	0.147704	11.2626	-5.66091	-39.4524
 189	1	2	0.584577	12.622	-6.30256	-41.7303
 190	1	3	-0.046755	12.2306	-7.74979	-41.9588
 191	1	3	-0.110868	11.5311	-8.02226	-43.1253
 192	1	3	-0.046132	11.1438	-9.35877	-43.4161
 193	1	3	-0.135873	12.6616	-8.84907	-41.151
 194	1	3	-0.117662	12.2667	-10.2067	-41.435
 195	1	3	-0.064457	11.4735	-10.4334	-42.5827
 196	1	2	0.492569	11.0602	-11.6889	-43.2893
 197	1	1	-0.072087	10.4203	-11.274	-44.47
 198	1	2	0.477555	10.3979	-9.8888	-44.6082
 199	1	3	0.042617	10.003	-12.1899	-45.4781
 200	1	3	-0.20367	9.34149	-13.3645	-45.1271
 201	1	3	-0.057018	8.75101	-14.2094	-46.0874
 202	1	3	-0.18182	10.0869	-11.855	-46.8428
 203	1	3	-0.14326	9.6057	-12.7291	-47.8353
 204	1	3	0.043342	8.952	-13.9377	-47.4533
 205	1	6	0.163244	9.22173	-13.6332	-44.0908
 206	1	6	0.101178	8.30713	-15.1309	-45.7434
 207	1	6	0.165346	12.5741	-11.0431	-40.7667
 208	1	6	0.135111	13.2652	-8.65045	-40.2674
 209	1	6	0.171751	11.293	-7.21105	-43.8248
 210	1	5	-0.478239	9.95817	-9.23252	-45.5593
 211	1	5	-0.481107	11.3822	-12.8211	-43.0235
 212	1	5	-0.49957	12.5716	-5.46993	-42.6474
 213	1	6	0.151248	10.5909	-10.9538	-47.1906
 214	1	6	0.146138	9.81241	-12.5025	-48.8675
 215	1	7	0.044043	8.60469	-14.9973	-48.5194
 216	1	7	-0.215975	7.07273	-15.2953	-48.4607
 217	1	8	0.063789	6.82783	-16.0171	-49.2374
 218	1	8	0.072206	6.39314	-14.4111	-48.6161
 219	1	8	0.045489	6.8457	-15.8392	-47.5291
 220	1	7	0.005306	9.57579	-16.2288	-48.2164
 221	1	7	0.164932	10.8081	-16.1267	-49.1402
 222	1	8	0.005277	9.00563	-17.1432	-48.4491
 223	1	8	0.017604	9.89003	-16.2629	-47.1475
 224	1	3	0.008363	10.2564	-15.2595	-50.2512
 225	1	7	-0.151488	11.1957	-17.4854	-49.7583
 226	1	7	-0.269275	12.049	-15.5495	-48.4462
 227	1	3	0.096378	9.06506	-14.653	-49.9393
 228	1	8	0.063418	11.7558	-14.7369	-47.7516
 229	1	8	0.061085	12.7869	-15.2063	-49.1633
 230	1	8	0.065045	12.4906	-16.3613	-47.8581
 231	1	3	-0.142025	10.9093	-14.9477	-51.4555
 232	1	3	-0.448546	8.43761	-13.778	-50.8659
 233	1	3	0.277842	9.00791	-13.5409	-52.1109
 234	1	3	-0.409063	10.2642	-14.1691	-52.3903
 235	1	6	0.203923	7.47574	-13.3761	-50.6097
 236	1	8	0.016419	10.3655	-17.8054	-50.4235
 237	1	8	0.049665	11.2412	-18.2431	-48.9736
 238	1	8	0.035794	12.0925	-17.3842	-50.3277
 239	1	6	0.161583	11.8807	-15.4037	-51.6466
 240	1	6	0.199011	10.7304	-14.0243	-53.3557
 241	1	1	0.463181	23.1072	6.94725	-43.131
 242	1	2	0.074399	23.4498	5.57712	-43.0877
 243	1	3	0.034296	24.8393	5.50383	-43.6411
 244	1	2	0.051625	24.1297	7.66937	-43.7475
 245	1	3	0.019035	25.2364	6.72912	-44.1034
 246	1	5	-0.389616	23.0079	4.67273	-42.4057
 247	1	5	-0.380104	24.2371	8.87451	-43.6217
 248	1	3	-0.045097	25.7952	4.53106	-43.3492
 249	1	3	-0.056032	26.5929	6.97439	-44.4361
 250	1	3	-0.174781	27.5474	5.95614	-44.2754
 251	1	3	-0.129342	27.1889	4.73978	-43.6195
 252	1	6	0.168842	25.422	3.659	-42.7971
 253	1	6	0.15893	26.9373	7.98544	-44.686
 254	1	6	0.147704	28.5892	6.14697	-44.5679
 255	1	2	0.584577	28.2803	3.67114	-43.3419
 256	1	3	-0.046755	27.9527	2.4073	-42.5471
 257	1	3	-0.110868	27.0666	2.54221	-41.4797
 258	1	3	-0.046132	26.5338	1.3679	-40.9619
 259	1	3	-0.135873	28.3559	1.09764	-42.965
 260	1	3	-0.117662	27.8031	-0.068944	-42.3895
 261	1	3	-0.064457	26.783	0.101493	-41.4698
 262	1	2	0.492569	26.0432	-0.905716	-40.6802
 263	1	1	-0.072087	25.2848	-0.144048	-39.8012
 264	1	2	0.477555	25.5256	1.23159	-39.8814
 265	1	3	0.042617	24.406	-0.661956	-38.828
 266	1	3	-0.20367	23.1137	-1.10947	-39.0665
 267	1	3	-0.057018	22.282	-1.49281	-37.9874
 268	1	3	-0.18182	24.8356	-0.544282	-37.5041
 269	1	3	-0.14326	23.9353	-0.756404	-36.4587
 270	1	3	0.043342	22.6241	-1.16994	-36.6513
 271	1	6	0.163244	22.7834	-1.22552	-40.1027
 272	1	6	0.101178	21.3134	-1.96698	-38.212
 273	1	6	0.165346	28.1206	-1.05914	-42.6901
 274	1	6	0.135111	29.0791	1.01935	-43.7586
 275	1	6	0.171751	26.8359	3.51813	-41.0895
 276	1	5	-0.478239	24.9493	2.22372	-39.4278
 277	1	5	-0.481107	26.2234	-2.09843	-40.6674
 278	1	5	-0.49957	29.4205	3.82985	-43.7775
 279	1	6	0.151248	25.8159	-0.137269	-37.2819
 280	1	6	0.146138	24.247	-0.490635	-35.4622
 281	1	7	0.044043	21.6915	-1.23767	-35.4398
 282	1	7	-0.215975	22.2225	-2.25276	-34.3774
 283	1	8	0.063789	22.2923	-3.28769	-34.7217
 284	1	8	0.072206	21.6034	-2.26329	-33.4561
 285	1	8	0.045489	23.233	-2.03073	-34.1012
 286	1	7	0.005306	21.5402	0.149458	-34.7856
 287	1	7	0.164932	20.5247	0.972541	-35.6342
 288	1	8	0.005277	22.5067	0.680499	-34.7225
 289	1	8	0.017604	21.151	0.0607819	-33.7642
 290	1	3	0.008363	19.3701	-0.131254	-36.1612
 291	1	7	-0.151488	21.3432	1.69202	-36.7774
 292	1	7	-0.269275	20.2136	2.0436	-34.5257
 293	1	3	0.096378	20.2289	-1.36639	-35.8933
 294	1	8	0.063418	19.6667	2.91846	-34.9599
 295	1	8	0.061085	21.1533	2.52442	-34.1671
 296	1	8	0.065045	19.6016	1.65622	-33.6806
 297	1	3	-0.142025	17.2238	-0.22016	-37.0714
 298	1	3	-0.448546	19.591	-2.64304	-36.2602
 299	1	3	0.277842	17.2401	-2.68823	-37.2841
 300	1	3	-0.409063	16.4991	-1.40293	-37.4894
 301	1	6	0.203923	20.2801	-3.44695	-35.9847
 302	1	8	0.016419	21.3794	1.12405	-37.6993
 303	1	8	0.049665	22.3827	1.94541	-36.562
 304	1	8	0.035794	20.8671	2.62567	-37.0135
 305	1	6	0.161583	16.5354	0.601861	-37.2966
 306	1	6	0.199011	15.4964	-1.30115	-37.919
 307	1	1	0.463181	12.5982	18.8057	-44.2064
 308	1	2	0.074399	12.4723	17.4543	-44.447
 309	1	3	0.034296	12.5582	17.3393	-45.9112
 310	1	2	0.051625	12.6014	19.6094	-45.3759
 311	1	3	0.019035	12.6124	18.5904	-46.4697
 312	1	5	-0.389616	12.4782	16.5408	-43.6558
 313	1	5	-0.380104	12.8095	20.8313	-45.4496
 314	1	3	-0.045097	12.7709	16.1979	-46.6565
 315	1	3	-0.056032	12.6953	18.7507	-47.8451
 316	1	3	-0.174781	12.8035	17.6143	-48.6452
 317	1	3	-0.129342	12.8976	16.3247	-48.0612
 318	1	6	0.168842	12.6981	15.2487	-46.1524
 319	1	6	0.15893	12.7852	19.735	-48.2806
 320	1	6	0.147704	12.7785	17.6818	-49.7456
 321	1	2	0.584577	12.98	15.0814	-48.8598
 322	1	3	-0.046755	13.244	13.7789	-48.2102
 323	1	3	-0.110868	14.2781	13.6054	-47.2651
 324	1	3	-0.046132	14.309	12.3633	-46.58
 325	1	3	-0.135873	12.4237	12.6448	-48.5298
 326	1	3	-0.117662	12.5873	11.3772	-47.9301
 327	1	3	-0.064457	13.5141	11.3062	-46.8962
 328	1	2	0.492569	13.9509	10.1575	-46.049
 329	1	1	-0.072087	15.0016	10.6325	-45.2277
 330	1	2	0.477555	15.1704	11.9998	-45.4486
 331	1	3	0.042617	15.8432	9.8554	-44.3359
 332	1	3	-0.20367	15.3019	8.96077	-43.4232
 333	1	3	-0.057018	16.0762	8.38855	-42.3694
 334	1	3	-0.18182	17.2751	9.96343	-44.2889
 335	1	3	-0.14326	18.0786	9.23983	-43.3546
 336	1	3	0.043342	17.4926	8.46957	-42.3327
 337	1	6	0.163244	14.2317	8.87389	-43.4009
 338	1	6	0.101178	15.5888	7.78015	-41.6016
 339	1	6	0.165346	12.0087	10.5014	-48.2181
 340	1	6	0.135111	11.6807	12.7484	-49.294
 341	1	6	0.171751	14.9534	14.407	-47.0158
 342	1	5	-0.478239	15.9281	12.7612	-44.8494
 343	1	5	-0.481107	13.476	9.02735	-46.0159
 344	1	5	-0.49957	12.5484	15.0324	-49.9886
 345	1	6	0.151248	17.7727	10.6038	-45.042
 346	1	6	0.146138	19.1756	9.3561	-43.3786
 347	1	7	0.044043	18.3679	7.77321	-41.23
 348	1	7	-0.215975	18.075	6.26509	-41.2614
 349	1	8	0.063789	18.7358	5.75083	-40.5496
 350	1	8	0.072206	18.2574	5.83722	-42.238
 351	1	8	0.045489	17.0766	6.0946	-40.9447
 352	1	7	0.005306	18.0651	8.48611	-39.8797
 353	1	7	0.164932	19.3474	9.22907	-39.3887
 354	1	8	0.005277	17.8174	7.69669	-39.1651
 355	1	8	0.017604	17.1555	9.14157	-39.9163
 356	1	3	0.008363	20.4275	8.6384	-40.2665
 357	1	7	-0.151488	19.6303	8.88833	-37.8719
 358	1	7	-0.269275	19.3036	10.764	-39.6769
 359	1	3	0.096378	19.9152	7.91887	-41.3641
 360	1	8	0.063418	20.1805	11.2962	-39.2923
 361	1	8	0.061085	18.4333	11.1956	-39.1986
 362	1	8	0.065045	19.2163	10.982	-40.7447
 363	1	3	-0.142025	21.7874	9.00612	-40.2669
 364	1	3	-0.448546	20.7993	7.2731	-42.2901
 365	1	3	0.277842	22.1905	7.57877	-42.2368
 366	1	3	-0.409063	22.596	8.56829	-41.3008
 367	1	6	0.203923	20.4426	6.58541	-43.0294
 368	1	8	0.016419	18.7942	9.25538	-37.2417
 369	1	8	0.049665	20.5352	9.36382	-37.479
 370	1	8	0.035794	19.6787	7.80297	-37.7079
 371	1	6	0.161583	22.1746	9.7297	-39.5045
 372	1	6	0.199011	23.629	8.89262	-41.2709
 373	1	1	0.463181	15.4337	5.64697	-30.8737
 374	1	2	0.074399	14.1269	5.74012	-31.358
 375	1	3	0.034296	13.9173	7.22983	-31.5618
 376	1	2	0.051625	16.0891	6.89801	-30.8377
 377	1	3	0.019035	15.0804	7.9112	-31.2767
 378	1	5	-0.389616	13.4253	4.81103	-31.7412
 379	1	5	-0.380104	17.2856	7.06159	-30.6271
 380	1	3	-0.045097	12.8145	7.89211	-32.1086
 381	1	3	-0.056032	15.2876	9.23144	-31.6807
 382	1	3	-0.174781	14.1925	9.96442	-32.1794
 383	1	3	-0.129342	12.9497	9.29289	-32.4
 384	1	6	0.168842	11.9407	7.32098	-32.3838
 385	1	6	0.15893	16.2531	9.72153	-31.5572
 386	1	6	0.147704	14.34	10.9848	-32.5216
 387	1	2	0.584577	11.7975	10.0887	-33.0014
 388	1	3	-0.046755	12.102	10.706	-34.3356
 389	1	3	-0.110868	12.3955	12.0632	-34.4219
 390	1	3	-0.046132	12.9142	12.537	-35.6282
 391	1	3	-0.135873	12.3895	9.88167	-35.4686
 392	1	3	-0.117662	12.8472	10.4122	-36.7106
 393	1	3	-0.064457	13.2544	11.7617	-36.7214
 394	1	2	0.492569	13.8158	12.6774	-37.7762
 395	1	1	-0.072087	13.7324	13.9535	-37.2609
 396	1	2	0.477555	13.2177	13.9333	-35.9798
 397	1	3	0.042617	14.1641	15.1158	-37.9641
 398	1	3	-0.20367	13.3863	16.2652	-37.7783
 399	1	3	-0.057018	13.6799	17.4767	-38.418
 400	1	3	-0.18182	15.2738	15.194	-38.8211
 401	1	3	-0.14326	15.6492	16.4254	-39.341
 402	1	3	0.043342	14.8632	17.5811	-39.1506
 403	1	6	0.163244	12.5001	16.1963	-37.16
 404	1	6	0.101178	12.9868	18.3029	-38.3235
 405	1	6	0.165346	12.9981	9.76022	-37.584
 406	1	6	0.135111	12.2267	8.80726	-35.4444
 407	1	6	0.171751	12.1598	12.7321	-33.616
 408	1	5	-0.478239	13.2854	14.8761	-35.1865
 409	1	5	-0.481107	14.2383	12.4111	-38.8825
 410	1	5	-0.49957	10.6659	10.0725	-32.5331
 411	1	6	0.151248	15.8929	14.3349	-39.043
 412	1	6	0.146138	16.5279	16.4638	-39.9618
 413	1	7	0.044043	15.2636	18.9355	-39.7823
 414	1	7	-0.215975	16.6647	18.859	-40.4082
 415	1	8	0.063789	17.0066	19.8635	-40.6636
 416	1	8	0.072206	16.6426	18.2988	-41.3455
 417	1	8	0.045489	17.4698	18.4731	-39.7355
 418	1	7	0.005306	15.1965	20.1394	-38.7629
 419	1	7	0.164932	14.4302	21.2825	-39.4557
 420	1	8	0.005277	16.1689	20.4701	-38.4123
 421	1	8	0.017604	14.6071	19.861	-37.8514
 422	1	3	0.008363	13.6411	20.5588	-40.4802
 423	1	7	-0.151488	15.2603	22.3536	-40.2419
 424	1	7	-0.269275	13.5435	22.0438	-38.4821
 425	1	3	0.096378	14.2085	19.3427	-40.8011
 426	1	8	0.063418	12.8601	22.775	-38.9429
 427	1	8	0.061085	14.2287	22.608	-37.8173
 428	1	8	0.065045	12.9125	21.3826	-37.8512
 429	1	3	-0.142025	12.5889	21.0902	-41.2402
 430	1	3	-0.448546	13.9243	18.7301	-42.0501
 431	1	3	0.277842	12.8929	19.2596	-42.8733
 432	1	3	-0.409063	12.1968	20.3735	-42.399
 433	1	6	0.203923	14.4407	17.8438	-42.3772
 434	1	8	0.016419	14.5692	23.0972	-40.6357
 435	1	8	0.049665	15.8712	21.976	-41.1149
 436	1	8	0.035794	15.9249	22.9315	-39.5555
 437	1	6	0.161583	12.1274	22.0412	-40.973
 438	1	6	0.199011	11.445	20.7948	-43.0609
 439	1	7	0.070548	16.6401	3.52229	-31.5729
 440	1	7	0.506757	16.0658	4.37616	-30.3928
 441	1	8	-0.012767	17.7391	3.57239	-31.6572
 442	1	8	-0.014806	16.1905	3.92364	-32.5135
 443	1	9	-0.274996	17.0838	4.57996	-29.5573
 444	1	9	-0.274736	15.1964	3.6895	-29.6549
 445	1	1	0.463181	10.5337	-0.890991	-49.2433
 446	1	2	0.074399	9.7214	-1.19048	-48.1405
 447	1	3	0.034296	10.2504	-0.311034	-47.0776
 448	1	2	0.051625	11.6118	-0.00702971	-48.9349
 449	1	3	0.019035	11.4704	0.23856	-47.4537
 450	1	5	-0.389616	8.95003	-2.11352	-47.937
 451	1	5	-0.380104	12.4229	0.568261	-49.6766
 452	1	3	-0.045097	9.83272	-0.267241	-45.7451
 453	1	3	-0.056032	12.3869	0.769686	-46.4955
 454	1	3	-0.174781	11.967	0.771347	-45.1295
 455	1	3	-0.129342	10.6607	0.304843	-44.7469
 456	1	6	0.168842	8.92378	-0.788313	-45.5148
 457	1	6	0.15893	13.3975	1.06905	-46.7856
 458	1	6	0.147704	12.665	1.24333	-44.4243
 459	1	2	0.584577	10.0496	0.416067	-43.3521
 460	1	3	-0.046755	10.8993	0.66373	-42.1496
 461	1	3	-0.110868	10.8054	-0.0774363	-40.9653
 462	1	3	-0.046132	11.5199	0.440052	-39.8749
 463	1	3	-0.135873	11.6366	1.87241	-42.2109
 464	1	3	-0.117662	12.3376	2.39839	-41.088
 465	1	3	-0.064457	12.1816	1.66938	-39.9282
 466	1	2	0.492569	12.7203	1.99166	-38.5885
 467	1	1	-0.072087	12.2174	0.956361	-37.7998
 468	1	2	0.477555	11.5977	-0.0596382	-38.5373
 469	1	3	0.042617	12.3455	0.775226	-36.3689
 470	1	3	-0.20367	11.2415	0.63725	-35.4789
 471	1	3	-0.057018	11.4585	0.438334	-34.125
 472	1	3	-0.18182	13.6547	0.780511	-35.8517
 473	1	3	-0.14326	13.8728	0.415183	-34.5331
 474	1	3	0.043342	12.7879	0.26706	-33.6453
 475	1	6	0.163244	10.2036	0.701372	-35.8438
 476	1	6	0.101178	10.637	0.392302	-33.4242
 477	1	6	0.165346	12.8875	3.33424	-41.0787
 478	1	6	0.135111	11.6434	2.52296	-43.0971
 479	1	6	0.171751	10.1747	-0.969709	-40.8515
 480	1	5	-0.478239	11.0224	-1.03503	-38.1135
 481	1	5	-0.481107	13.3494	3.01492	-38.2991
 482	1	5	-0.49957	8.8474	0.232443	-43.1638
 483	1	6	0.151248	14.4714	0.944747	-36.5282
 484	1	6	0.146138	14.9123	0.299608	-34.1922
 485	1	7	0.044043	13.0653	-0.0702835	-32.1504
 486	1	7	-0.215975	11.9657	0.434102	-31.1559
 487	1	8	0.063789	11.0154	-0.0929779	-31.2414
 488	1	8	0.072206	11.8083	1.4974	-31.359
 489	1	8	0.045489	12.2528	0.299558	-30.1056
 490	1	7	0.005306	13.2484	-1.60203	-31.9462
 491	1	7	0.164932	14.7191	-1.9735	-31.5981
 492	1	8	0.005277	12.9651	-2.1318	-32.8595
 493	1	8	0.017604	12.5639	-2.01231	-31.1645
 494	1	3	0.008363	15.3854	-0.594139	-31.4803
 495	1	7	-0.151488	15.2984	-2.88942	-32.6906
 496	1	7	-0.269275	14.8035	-2.67375	-30.2194
 497	1	3	0.096378	14.4801	0.412933	-31.8275
 498	1	8	0.063418	15.6692	-3.31603	-30.0666
 499	1	8	0.061085	13.9376	-3.33597	-30.0632
 500	1	8	0.065045	14.7615	-1.91331	-29.4159
 501	1	3	-0.142025	16.7091	-0.287197	-31.1644
 502	1	3	-0.448546	14.8715	1.75323	-31.8774
 503	1	3	0.277842	16.1858	2.08751	-31.5401
 504	1	3	-0.409063	17.1076	1.05329	-31.2376
 505	1	6	0.203923	14.1081	2.49077	-32.1586
 506	1	8	0.016419	16.377	-3.0581	-32.4719
 507	1	8	0.049665	15.2888	-2.42758	-33.7017
 508	1	8	0.035794	14.8384	-3.88622	-32.771
 509	1	6	0.161583	17.4301	-1.08663	-30.9561
 510	1	6	0.199011	18.1526	1.30385	-31.0616
 511	1	1	0.463181	-0.567783	9.88438	-41.5108
 512	1	2	0.074399	-0.0288652	10.4061	-42.6771
 513	1	3	0.034296	0.950404	9.41465	-43.1464
 514	1	2	0.051625	-0.053704	8.66687	-41.2238
 515	1	3	0.019035	0.964802	8.38556	-42.2416
 516	1	5	-0.389616	-0.435301	11.3619	-43.3095
 517	1	5	-0.380104	-0.289082	8.03354	-40.2229
 518	1	3	-0.045097	1.50171	9.27699	-44.4117
 519	1	3	-0.056032	1.62172	7.18609	-42.531
 520	1	3	-0.174781	2.29591	7.04764	-43.758
 521	1	3	-0.129342	2.24865	8.08793	-44.7229
 522	1	6	0.168842	1.35437	10.1176	-45.0946
 523	1	6	0.15893	1.56755	6.34556	-41.8191
 524	1	6	0.147704	2.73202	6.07266	-44.0264
 525	1	2	0.584577	2.69226	7.96449	-46.123
 526	1	3	-0.046755	3.69623	6.95668	-46.5532
 527	1	3	-0.110868	3.57881	6.28465	-47.7963
 528	1	3	-0.046132	4.61173	5.46956	-48.239
 529	1	3	-0.135873	4.86379	6.77255	-45.7795
 530	1	3	-0.117662	5.87286	5.87794	-46.2415
 531	1	3	-0.064457	5.76366	5.26487	-47.5037
 532	1	2	0.492569	6.62121	4.28562	-48.2784
 533	1	1	-0.072087	5.89339	3.91083	-49.3958
 534	1	2	0.477555	4.69141	4.67192	-49.4801
 535	1	3	0.042617	6.28834	2.93901	-50.3965
 536	1	3	-0.20367	5.32157	1.99032	-50.7474
 537	1	3	-0.057018	5.54468	0.902186	-51.6234
 538	1	3	-0.18182	7.54877	2.81946	-51.0318
 539	1	3	-0.14326	7.75443	1.74889	-51.9354
 540	1	3	0.043342	6.8114	0.723013	-52.1773
 541	1	6	0.163244	4.32969	2.06493	-50.2908
 542	1	6	0.101178	4.74702	0.207353	-51.837
 543	1	6	0.165346	6.75585	5.68572	-45.6519
 544	1	6	0.135111	4.95962	7.29226	-44.8335
 545	1	6	0.171751	2.73834	6.46139	-48.466
 546	1	5	-0.478239	3.84984	4.6563	-50.3718
 547	1	5	-0.481107	7.66559	3.77228	-47.9126
 548	1	5	-0.49957	2.04394	8.5321	-46.9692
 549	1	6	0.151248	8.36307	3.53678	-50.8345
 550	1	6	0.146138	8.73193	1.6105	-52.3773
 551	1	7	0.044043	7.24725	-0.575862	-52.9808
 552	1	7	-0.215975	6.11381	-1.62489	-53.0352
 553	1	8	0.063789	6.3837	-2.46986	-53.6643
 554	1	8	0.072206	5.19081	-1.19268	-53.4703
 555	1	8	0.045489	5.90174	-1.94026	-52.0111
 556	1	7	0.005306	7.73007	-0.340384	-54.4525
 557	1	7	0.164932	9.03341	-1.16414	-54.7404
 558	1	8	0.005277	7.9003	0.73416	-54.57
 559	1	8	0.017604	6.96559	-0.590075	-55.214
 560	1	3	0.008363	9.44302	-1.5577	-53.3257
 561	1	7	-0.151488	10.0675	-0.281417	-55.4856
 562	1	7	-0.269275	8.73001	-2.32993	-55.6459
 563	1	3	0.096378	8.49078	-1.19376	-52.3509
 564	1	8	0.063418	8.25507	-3.14505	-55.1451
 565	1	8	0.061085	9.62147	-2.72208	-56.1881
 566	1	8	0.065045	8.07354	-1.97944	-56.4634
 567	1	3	-0.142025	10.7121	-2.04388	-52.9195
 568	1	3	-0.448546	8.79955	-1.12712	-50.9816
 569	1	3	0.277842	10.1622	-1.31205	-50.5951
 570	1	3	-0.409063	11.0548	-1.85612	-51.5361
 571	1	6	0.203923	8.07144	-0.736715	-50.3095
 572	1	8	0.016419	9.63617	0.358166	-56.2807
 573	1	8	0.049665	10.874	-0.883278	-55.9297
 574	1	8	0.035794	10.5297	0.408365	-54.769
 575	1	6	0.161583	11.438	-2.36058	-53.6803
 576	1	6	0.199011	12.1033	-2.02884	-51.2353
 577	1	1	0.463181	9.64485	16.4929	-39.8429
 578	1	2	0.074399	9.69606	17.2494	-38.6645
 579	1	3	0.034296	8.44424	18.0013	-38.6771
 580	1	2	0.051625	8.44074	16.6448	-40.5671
 581	1	3	0.019035	7.69858	17.6526	-39.79
 582	1	5	-0.389616	10.2886	16.9824	-37.6352
 583	1	5	-0.380104	7.98504	15.9011	-41.3931
 584	1	3	-0.045097	7.81882	18.7525	-37.6591
 585	1	3	-0.056032	6.40136	18.1654	-39.9983
 586	1	3	-0.174781	5.77596	18.9329	-38.9718
 587	1	3	-0.129342	6.47183	19.2135	-37.7599
 588	1	6	0.168842	8.34163	18.9038	-36.7393
 589	1	6	0.15893	5.88046	17.8803	-40.9139
 590	1	6	0.147704	4.74858	19.2735	-39.0798
 591	1	2	0.584577	5.77304	19.6832	-36.476
 592	1	3	-0.046755	4.52083	18.9456	-35.9648
 593	1	3	-0.110868	4.02237	17.8092	-36.6493
 594	1	3	-0.046132	2.85306	17.1496	-36.1708
 595	1	3	-0.135873	3.85171	19.3784	-34.7831
 596	1	3	-0.117662	2.66824	18.7345	-34.3431
 597	1	3	-0.064457	2.1217	17.6759	-35.1067
 598	1	2	0.492569	0.733875	17.0274	-35.0568
 599	1	1	-0.072087	0.818696	16.0248	-36.0566
 600	1	2	0.477555	2.03753	16.0061	-36.759
 601	1	3	0.042617	-0.316965	15.2358	-36.4283
 602	1	3	-0.20367	-0.642903	14.9382	-37.795
 603	1	3	-0.057018	-1.51342	13.8723	-38.1139
 604	1	3	-0.18182	-0.969822	14.5304	-35.4081
 605	1	3	-0.14326	-1.91181	13.4982	-35.7387
 606	1	3	0.043342	-2.07885	13.0799	-37.0821
 607	1	6	0.163244	-0.186975	15.5224	-38.6033
 608	1	6	0.101178	-1.76836	13.6638	-39.1519
 609	1	6	0.165346	2.14232	19.155	-33.4594
 610	1	6	0.135111	4.17169	20.2711	-34.2739
 611	1	6	0.171751	4.45663	17.4205	-37.5747
 612	1	5	-0.478239	2.43702	15.2291	-37.6274
 613	1	5	-0.481107	-0.269551	17.284	-34.3918
 614	1	5	-0.49957	6.26248	20.6385	-35.8579
 615	1	6	0.151248	-0.733015	14.7018	-34.3593
 616	1	6	0.146138	-2.41221	12.926	-34.9522
 617	1	7	0.044043	-2.81684	11.7707	-37.3876
 618	1	7	-0.215975	-2.1986	10.6043	-36.6213
 619	1	8	0.063789	-2.4357	10.7766	-35.559
 620	1	8	0.072206	-1.12243	10.5221	-36.7478
 621	1	8	0.045489	-2.68908	9.62625	-36.8892
 622	1	7	0.005306	-4.39388	11.9629	-37.1711
 623	1	7	0.164932	-5.07312	11.5558	-38.5557
 624	1	8	0.005277	-4.59864	13.0328	-36.9945
 625	1	8	0.017604	-4.83485	11.4322	-36.2937
 626	1	3	0.008363	-3.91298	11.4242	-39.5079
 627	1	7	-0.151488	-6.21326	12.5159	-38.9989
 628	1	7	-0.269275	-5.74653	10.1484	-38.458
 629	1	3	0.096378	-2.72482	11.3917	-38.8497
 630	1	8	0.063418	-5.10699	9.47369	-37.8941
 631	1	8	0.061085	-5.8851	9.66579	-39.4166