pySIMM System Object

1308 atoms
1426 bonds
2559 angles
4051 dihedrals
357 impropers

10 atom types
13 bond types
25 angle types
12 dihedral types
4 improper types

-86.097985 86.097985 xlo xhi
-86.097985 86.097985 ylo yhi
-86.097985 86.097985 zlo zhi

Masses

   1	12.01	# c3
   2	1.008	# hc
   3	19.0	# f
   4	1.008	# h2
   5	14.01	# n
   6	12.01	# c
   7	12.01	# ca
   8	1.008	# hn
   9	16.0	# o
  10	1.008	# ha

Pair Coeffs

   1	0.1094	3.3996695084235347	# c3
   2	0.0157	2.649532787749369	# hc
   3	0.061	3.1181455134911875	# f
   4	0.0157	2.2931733004932333	# h2
   5	0.17	3.249998523775958	# n
   6	0.086	3.3996695084235347	# c
   7	0.086	3.3996695084235347	# ca
   8	0.0157	1.069078461768407	# hn
   9	0.21	2.959921901149463	# o
  10	0.015	2.59964245953351	# ha

Bond Coeffs

   1	331.7	1.0961	# c3,h2
   2	330.6	1.0969	# c3,hc
   3	300.9	1.5375	# c3,c3
   4	356.9	1.3497	# c3,f
   5	637.7	1.2183	# c,o
   6	321.0	1.5156	# c3,ca
   7	384.2	1.4121	# ca,n
   8	403.2	1.0129	# hn,n
   9	427.6	1.3789	# c,n
  10	461.1	1.3984	# ca,ca
  11	345.9	1.4906	# c,ca
  12	345.8	1.086	# ca,ha
  13	328.7	1.4619	# c3,n

Angle Coeffs

   1	46.34	109.8	# c3,c3,hc
   2	70.89	107.36	# f,c3,f
   3	39.4	107.58	# hc,c3,hc
   4	66.11	109.24	# c3,c3,f
   5	46.25	110.22	# c3,c3,h2
   6	51.15	108.79	# f,c3,h2
   7	62.86	111.51	# c3,c3,c3
   8	64.28	120.33	# c,ca,ca
   9	63.53	120.77	# c3,ca,ca
  10	66.62	120.02	# ca,ca,ca
  11	74.22	123.05	# n,c,o
  12	63.74	127.08	# c,n,c
  13	63.15	112.07	# c3,c3,ca
  14	48.18	119.88	# ca,ca,ha
  15	67.87	120.19	# ca,ca,n
  16	68.72	122.6	# ca,c,o
  17	63.0	118.11	# ca,c,ca
  18	63.82	123.71	# c,n,ca
  19	67.68	115.25	# ca,c,n
  20	63.56	112.24	# ca,c3,ca
  21	48.33	117.55	# c,n,hn
  22	46.8	110.47	# ca,c3,hc
  23	63.39	120.69	# c,n,c3
  24	65.91	111.61	# c3,c3,n
  25	69.52	110.41	# f,c3,n

Dihedral Coeffs

   1	2	0.0	3	0	0.19	1	0	# hc,c3,c3,f
   2	1	0.15555555555555556	3	0	# X,c3,c3,X
   3	1	0.16	3	0	# hc,c3,c3,c3
   4	3	0.18	3	0	0.25	2	180	0.2	1	180	# c3,c3,c3,c3
   5	2	2.5	2	180	2.0	1	0	# hn,n,c,o
   6	1	3.625	2	180	# X,ca,ca,X
   7	1	1.0	2	180	# X,c,ca,X
   8	1	0.0	2	0	# X,c3,ca,X
   9	1	2.5	2	180	# X,c,n,X
  10	1	0.45	2	180	# X,ca,n,X
  11	4	0.5	4	180	0.15	3	180	0.0	2	0	0.53	1	0	# c3,c3,n,c
  12	1	0.0	2	0	# X,c3,n,X

Improper Coeffs

   1	10.5	-1	2	# c,X,X,o
   2	1.1	-1	2	# ca,X,X,ha
   3	1.1	-1	2	# ca,ca,ca,c3
   4	1.1	-1	2	# n,X,X,hn

Atoms

   1	1	1	0.070548	-74.5445	31.9008	49.4821
   2	1	1	0.506757	-74.6844	32.9641	50.585
   3	1	2	-0.012767	-73.5881	31.3691	49.5875
   4	1	2	-0.014806	-75.3382	31.1492	49.586
   5	1	3	-0.274996	-75.6006	32.5575	51.4874
   6	1	3	-0.274736	-73.514	33.1012	51.2491
   7	1	1	0.070548	-74.251	31.5919	46.9386
   8	1	1	0.506757	-74.6169	32.5545	48.0888
   9	1	2	-0.012767	-73.1823	31.35	47.0196
  10	1	2	-0.014806	-74.3631	32.1367	45.9912
  11	1	3	-0.274996	-73.7648	33.6045	48.034
  12	1	3	-0.274736	-75.8402	33.0905	47.8753
  13	1	1	0.070548	-75.0328	29.6034	45.4681
  14	1	1	0.506757	-75.0662	30.2691	46.8671
  15	1	2	-0.012767	-75.5091	30.2789	44.7425
  16	1	2	-0.014806	-75.675	28.7149	45.5109
  17	1	3	-0.274996	-76.3711	30.4831	47.1563
  18	1	3	-0.274736	-74.6208	29.393	47.7963
  19	1	1	0.070548	-73.7332	28.3398	43.6408
  20	1	1	0.506757	-73.6364	29.2016	44.9327
  21	1	2	-0.012767	-72.7208	28.1256	43.2782
  22	1	2	-0.014806	-74.2112	28.9355	42.8516
  23	1	3	-0.274996	-72.92	30.3213	44.6662
  24	1	3	-0.274736	-72.9327	28.5289	45.8691
  25	1	5	0.463181	-74.9179	20.1689	26.7556
  26	1	6	0.074399	-75.8894	21.1065	27.1161
  27	1	7	0.034296	-76.2377	20.7687	28.5174
  28	1	6	0.051625	-74.6655	19.2349	27.7709
  29	1	7	0.019035	-75.5301	19.646	28.9009
  30	1	9	-0.389616	-76.3396	22.0432	26.4744
  31	1	9	-0.380104	-73.8311	18.3424	27.8046
  32	1	7	-0.045097	-77.0659	21.4543	29.4117
  33	1	7	-0.056032	-75.6453	19.1093	30.1916
  34	1	7	-0.174781	-76.4831	19.7763	31.1064
  35	1	7	-0.129342	-77.1489	20.9754	30.7413
  36	1	10	0.168842	-77.5919	22.356	29.0975
  37	1	10	0.15893	-75.0899	18.2181	30.4738
  38	1	10	0.147704	-76.5814	19.3878	32.1204
  39	1	6	0.584577	-77.9519	21.7577	31.7363
  40	1	7	-0.046755	-77.4332	21.9449	33.1405
  41	1	7	-0.110868	-78.3572	22.2607	34.1641
  42	1	7	-0.046132	-77.8596	22.4915	35.4469
  43	1	7	-0.135873	-76.0402	21.9074	33.4331
  44	1	7	-0.117662	-75.5629	22.1239	34.7369
  45	1	7	-0.064457	-76.5067	22.4045	35.7263
  46	1	6	0.492569	-76.299	22.7801	37.1391
  47	1	5	-0.072087	-77.5531	23.151	37.6123
  48	1	6	0.477555	-78.5551	22.9737	36.6686
  49	1	7	0.042617	-77.7412	23.7411	38.8947
  50	1	7	-0.20367	-76.885	24.7718	39.3117
  51	1	7	-0.057018	-76.9619	25.2816	40.614
  52	1	7	-0.18182	-78.7605	23.3183	39.7628
  53	1	7	-0.14326	-78.8438	23.835	41.0686
  54	1	7	0.043342	-77.8965	24.7768	41.541
  55	1	10	0.163244	-76.1179	25.1401	38.6345
  56	1	10	0.101178	-76.2519	26.0443	40.9026
  57	1	10	0.165346	-74.4966	22.1256	34.9677
  58	1	10	0.135111	-75.3208	21.7362	32.6321
  59	1	10	0.171751	-79.4206	22.3659	33.9569
  60	1	9	-0.478239	-79.7393	23.2478	36.763
  61	1	9	-0.481107	-75.2245	22.838	37.7132
  62	1	9	-0.49957	-78.9997	22.2777	31.3876
  63	1	10	0.151248	-79.4757	22.5677	39.4406
  64	1	10	0.146138	-79.6413	23.4817	41.7095
  65	1	1	0.044043	-77.8636	25.2388	43.0108
  66	1	1	-0.215975	-78.8976	26.3728	43.211
  67	1	2	0.063789	-79.9197	25.9955	43.0591
  68	1	2	0.072206	-78.7212	27.1823	42.4913
  69	1	2	0.045489	-78.8277	26.7958	44.2247
  70	1	1	0.005306	-78.1515	24.0495	43.9866
  71	1	1	0.164932	-76.7932	23.4027	44.3858
  72	1	2	0.005277	-78.8523	23.2959	43.6136
  73	1	2	0.017604	-78.616	24.4571	44.8958
  74	1	7	0.008363	-75.8834	24.606	44.2564
  75	1	1	-0.151488	-76.3576	22.2936	43.3984
  76	1	1	-0.269275	-76.8524	22.8316	45.8242
  77	1	7	0.096378	-76.4601	25.6279	43.4994
  78	1	2	0.063418	-75.9005	22.3584	46.1007
  79	1	2	0.061085	-77.6383	22.0738	45.919
  80	1	2	0.065045	-77.0581	23.6278	46.5506
  81	1	7	-0.142025	-74.6091	24.7636	44.8186
  82	1	7	-0.448546	-75.7815	26.8509	43.3039
  83	1	7	0.277842	-74.4911	27.0261	43.8443
  84	1	7	-0.409063	-73.921	25.975	44.5974
  85	1	10	0.203923	-76.2549	27.6429	42.7357
  86	1	2	0.016419	-76.2578	22.6884	42.3798
  87	1	2	0.049665	-77.0866	21.4721	43.376
  88	1	2	0.035794	-75.3834	21.8795	43.689
  89	1	10	0.161583	-74.1675	23.9724	45.4161
  90	1	10	0.199011	-72.9304	26.0987	45.0223
  91	1	5	0.463181	-75.736	7.10188	10.4356
  92	1	6	0.074399	-76.7562	7.32665	11.3681
  93	1	7	0.034296	-76.2233	8.35207	12.3091
  94	1	6	0.051625	-74.6244	7.91624	10.669
  95	1	7	0.019035	-74.9529	8.69588	11.8925
  96	1	9	-0.389616	-77.8661	6.82026	11.41
  97	1	9	-0.380104	-73.6133	8.03734	9.99955
  98	1	7	-0.045097	-76.7792	8.88828	13.4841
  99	1	7	-0.056032	-74.1615	9.59371	12.6193
 100	1	7	-0.174781	-74.7074	10.1616	13.7953
 101	1	7	-0.129342	-76.0116	9.81271	14.2398
 102	1	10	0.168842	-77.7581	8.56022	13.8202
 103	1	10	0.15893	-73.1505	9.82802	12.2959
 104	1	10	0.147704	-74.0826	10.8366	14.3934
 105	1	6	0.584577	-76.5486	10.2783	15.5757
 106	1	7	-0.046755	-76.1782	11.6388	16.1107
 107	1	7	-0.110868	-75.9833	11.8047	17.5033
 108	1	7	-0.046132	-75.5944	13.0661	17.9732
 109	1	7	-0.135873	-76.069	12.7554	15.2466
 110	1	7	-0.117662	-75.7111	14.0248	15.7481
 111	1	7	-0.064457	-75.4604	14.1438	17.119
 112	1	6	0.492569	-74.9969	15.3113	17.9211
 113	1	5	-0.072087	-74.8776	14.8498	19.2245
 114	1	6	0.477555	-75.2448	13.5116	19.3479
 115	1	7	0.042617	-74.2392	15.584	20.2612
 116	1	7	-0.20367	-73.1144	15.0365	20.8964
 117	1	7	-0.057018	-72.4362	15.756	21.8884
 118	1	7	-0.18182	-74.6789	16.8701	20.6355
 119	1	7	-0.14326	-74.0096	17.5865	21.647
 120	1	7	0.043342	-72.8777	17.0307	22.2924
 121	1	10	0.163244	-72.7531	14.0519	20.6091
 122	1	10	0.101178	-71.5448	15.3132	22.3273
 123	1	10	0.165346	-75.6034	14.8826	15.0917
 124	1	10	0.135111	-76.2598	12.6381	14.1773
 125	1	10	0.171751	-76.0724	10.9678	18.1917
 126	1	9	-0.478239	-75.1766	12.8017	20.3367
 127	1	9	-0.481107	-74.6957	16.4116	17.4922
 128	1	9	-0.49957	-77.2484	9.53717	16.2478
 129	1	10	0.151248	-75.5319	17.3291	20.1368
 130	1	10	0.146138	-74.3608	18.5836	21.9091
 131	1	1	0.044043	-72.0681	17.7996	23.3538
 132	1	1	-0.215975	-71.6478	16.8903	24.5429
 133	1	2	0.063789	-72.5151	16.3497	24.9502
 134	1	2	0.072206	-71.2195	17.4861	25.3587
 135	1	2	0.045489	-70.8973	16.152	24.2529
 136	1	1	0.005306	-70.7975	18.4335	22.6971
 137	1	1	0.164932	-71.0337	19.9693	22.5489
 138	1	2	0.005277	-70.5611	17.9582	21.7352
 139	1	2	0.017604	-69.9278	18.2634	23.3443
 140	1	7	0.008363	-72.196	20.2068	23.5016
 141	1	1	-0.151488	-71.434	20.3229	21.0957
 142	1	1	-0.269275	-69.7695	20.7648	22.9666
 143	1	7	0.096378	-72.7836	19.0178	23.9211
 144	1	2	0.063418	-68.9129	20.5278	22.3259
 145	1	2	0.061085	-69.4862	20.5373	24.0047
 146	1	2	0.065045	-69.9414	21.8414	22.8842
 147	1	7	-0.142025	-72.6114	21.4308	24.0463
 148	1	7	-0.448546	-73.7818	19.004	24.9079
 149	1	7	0.277842	-74.1505	20.2081	25.5434
 150	1	7	-0.409063	-73.5697	21.4186	25.0812
 151	1	10	0.203923	-74.1569	18.0481	25.2688
 152	1	2	0.016419	-72.3027	19.7337	20.7628
 153	1	2	0.049665	-70.6164	20.1289	20.3945
 154	1	2	0.035794	-71.6973	21.3837	21.0176
 155	1	10	0.161583	-72.1421	22.3636	23.7389
 156	1	10	0.199011	-73.8338	22.3562	25.5707
 157	1	1	0.070548	-76.849	6.61521	8.22756
 158	1	1	0.506757	-75.8556	6.10885	9.32171
 159	1	2	-0.012767	-76.6134	7.66099	7.98771
 160	1	2	-0.014806	-77.8505	6.63916	8.6736
 161	1	3	-0.274996	-76.2764	4.91722	9.82547
 162	1	3	-0.274736	-74.6506	5.82958	8.7636
 163	1	1	0.070548	-78.2399	6.1119	6.11662
 164	1	1	0.506757	-76.9187	5.80378	6.89654
 165	1	2	-0.012767	-78.0487	6.91271	5.38835
 166	1	2	-0.014806	-78.9879	6.54182	6.79403
 167	1	3	-0.274996	-75.8751	6.16053	6.12066
 168	1	3	-0.274736	-76.751	4.47839	7.11887
 169	1	5	0.463181	-68.2469	-3.0074	-9.29347
 170	1	6	0.074399	-67.9982	-2.02051	-8.33994
 171	1	7	0.034296	-69.3124	-1.7335	-7.73066
 172	1	6	0.051625	-69.5861	-3.40074	-9.33014
 173	1	7	0.019035	-70.2619	-2.54583	-8.31674
 174	1	9	-0.389616	-66.9789	-1.39693	-8.10296
 175	1	9	-0.380104	-70.1145	-4.23628	-10.0449
 176	1	7	-0.045097	-69.6328	-0.814685	-6.72232
 177	1	7	-0.056032	-71.6121	-2.42719	-7.97433
 178	1	7	-0.174781	-71.9656	-1.47979	-6.98422
 179	1	7	-0.129342	-70.9789	-0.709682	-6.30405
 180	1	10	0.168842	-68.8513	-0.198516	-6.27916
 181	1	10	0.15893	-72.3616	-3.04088	-8.46766
 182	1	10	0.147704	-73.0204	-1.34988	-6.75062
 183	1	6	0.584577	-71.3115	0.27489	-5.19823
 184	1	7	-0.046755	-72.5671	0.135733	-4.37044
 185	1	7	-0.110868	-73.1037	1.2945	-3.75291
 186	1	7	-0.046132	-74.2629	1.17549	-2.9744
 187	1	7	-0.135873	-73.1701	-1.12622	-4.12717
 188	1	7	-0.117662	-74.3517	-1.22357	-3.36756
 189	1	7	-0.064457	-74.8732	-0.0487415	-2.81011
 190	1	6	0.492569	-76.0931	0.156353	-1.986
 191	1	5	-0.072087	-76.1098	1.50084	-1.64259
 192	1	6	0.477555	-75.0523	2.19509	-2.21772
 193	1	7	0.042617	-77.0905	2.07193	-0.785419
 194	1	7	-0.20367	-76.7273	2.52645	0.494214
 195	1	7	-0.057018	-77.692	3.04792	1.36851
 196	1	7	-0.18182	-78.4291	2.18152	-1.20184
 197	1	7	-0.14326	-79.3897	2.73686	-0.335941
 198	1	7	0.043342	-79.0413	3.15791	0.971216
 199	1	10	0.163244	-75.691	2.46274	0.820652
 200	1	10	0.101178	-77.3757	3.37647	2.35277
 201	1	10	0.165346	-74.8323	-2.18354	-3.18805
 202	1	10	0.135111	-72.7253	-2.03165	-4.52207
 203	1	10	0.171751	-72.6321	2.26826	-3.87951
 204	1	9	-0.478239	-74.7893	3.37965	-2.10866
 205	1	9	-0.481107	-76.9367	-0.689112	-1.7448
 206	1	9	-0.49957	-70.5662	1.21497	-4.98194
 207	1	10	0.151248	-78.7158	1.84958	-2.19868
 208	1	10	0.146138	-80.4121	2.83421	-0.685253
 209	1	1	0.044043	-80.1174	3.73576	1.91506
 210	1	1	-0.215975	-80.5777	5.11462	1.36685
 211	1	2	0.063789	-81.222	5.6233	2.09139
 212	1	2	0.072206	-81.1296	5.0053	0.424817
 213	1	2	0.045489	-79.7077	5.76266	1.17295
 214	1	1	0.005306	-81.3051	2.7232	2.07081
 215	1	1	0.164932	-80.9699	1.81825	3.29323
 216	1	2	0.005277	-81.5119	2.13974	1.16202
 217	1	2	0.017604	-82.2247	3.29123	2.29494
 218	1	7	0.008363	-80.2237	2.80697	4.15045
 219	1	1	-0.151488	-80.0647	0.628088	2.88811
 220	1	1	-0.269275	-82.2256	1.25589	3.99987
 221	1	7	0.096378	-79.7034	3.84748	3.38749
 222	1	2	0.063418	-82.8391	0.682189	3.29515
 223	1	2	0.061085	-82.8446	2.06343	4.41367
 224	1	2	0.065045	-81.9514	0.58791	4.82079
 225	1	7	-0.142025	-80.1493	2.81659	5.55055
 226	1	7	-0.448546	-79.0356	4.91553	4.01827
 227	1	7	0.277842	-78.8931	4.92055	5.41764
 228	1	7	-0.409063	-79.4928	3.89095	6.17349
 229	1	10	0.203923	-78.6574	5.74695	3.42933
 230	1	2	0.016419	-79.7923	0.021088	3.76294
 231	1	2	0.049665	-79.1294	0.956965	2.42358
 232	1	2	0.035794	-80.5882	-0.0227304	2.17809
 233	1	10	0.161583	-80.5974	2.02226	6.14131
 234	1	10	0.199011	-79.4315	3.91756	7.25993
 235	1	1	0.070548	-66.5677	-4.84801	-9.87153
 236	1	1	0.506757	-67.2196	-3.50065	-10.2511
 237	1	2	-0.012767	-67.2776	-5.64012	-10.1435
 238	1	2	-0.014806	-65.6953	-5.0106	-10.5198
 239	1	3	-0.274996	-67.7644	-3.64128	-11.4853
 240	1	3	-0.274736	-66.214	-2.62061	-10.4616
 241	1	1	0.070548	-65.2035	-6.29988	-8.24678
 242	1	1	0.506757	-66.142	-5.06178	-8.39325
 243	1	2	-0.012767	-64.1873	-6.03462	-8.56016
 244	1	2	-0.014806	-65.1226	-6.57556	-7.18643
 245	1	3	-0.274996	-67.265	-5.2039	-7.64809
 246	1	3	-0.274736	-65.514	-3.98438	-7.87217
 247	1	5	0.463181	-54.658	-21.5051	-10.6272
 248	1	6	0.074399	-55.4322	-20.3428	-10.4453
 249	1	7	0.034296	-55.3404	-19.5719	-11.7143
 250	1	6	0.051625	-54.1338	-21.5416	-11.9289
 251	1	7	0.019035	-54.5512	-20.2898	-12.582
 252	1	9	-0.389616	-56.1164	-20.0075	-9.4948
 253	1	9	-0.380104	-53.5351	-22.4251	-12.5178
 254	1	7	-0.045097	-55.9138	-18.3422	-12.0806
 255	1	7	-0.056032	-54.2963	-19.861	-13.8812
 256	1	7	-0.174781	-54.9185	-18.6729	-14.2968
 257	1	7	-0.129342	-55.7409	-17.9147	-13.4225
 258	1	10	0.168842	-56.5021	-17.779	-11.3587
 259	1	10	0.15893	-53.6767	-20.4472	-14.556
 260	1	10	0.147704	-54.7695	-18.3355	-15.3208
 261	1	6	0.584577	-56.3971	-16.6856	-14.0021
 262	1	7	-0.046755	-57.754	-16.212	-13.5248
 263	1	7	-0.110868	-58.1165	-14.8629	-13.7564
 264	1	7	-0.046132	-59.372	-14.4074	-13.3221
 265	1	7	-0.135873	-58.6825	-17.0718	-12.8749
 266	1	7	-0.117662	-59.947	-16.6004	-12.4617
 267	1	7	-0.064457	-60.2638	-15.2594	-12.7058
 268	1	6	0.492569	-61.5146	-14.5064	-12.4298
 269	1	5	-0.072087	-61.297	-13.2184	-12.9028
 270	1	6	0.477555	-60.0191	-13.064	-13.4313
 271	1	7	0.042617	-62.2815	-12.1875	-12.8303
 272	1	7	-0.20367	-62.7782	-11.5803	-13.9958
 273	1	7	-0.057018	-63.7871	-10.5959	-13.9183
 274	1	7	-0.18182	-62.7951	-11.7732	-11.5877
 275	1	7	-0.14326	-63.7691	-10.7623	-11.503
 276	1	7	0.043342	-64.3178	-10.1838	-12.6709
 277	1	10	0.163244	-62.3934	-11.8824	-14.9663
 278	1	10	0.101178	-64.1818	-10.1852	-14.8413
 279	1	10	0.165346	-60.6639	-17.257	-11.9697
 280	1	10	0.135111	-58.449	-18.1185	-12.7105
 281	1	10	0.171751	-57.4397	-14.1759	-14.2602
 282	1	9	-0.478239	-59.5046	-12.0322	-13.8285
 283	1	9	-0.481107	-62.5086	-14.954	-11.8849
 284	1	9	-0.49957	-55.8309	-16.0941	-14.9082
 285	1	10	0.151248	-62.4286	-12.2326	-10.6709
 286	1	10	0.146138	-64.1311	-10.488	-10.5174
 287	1	1	0.044043	-65.5216	-9.20875	-12.5875
 288	1	1	-0.215975	-65.3203	-7.97024	-13.5017
 289	1	2	0.063789	-66.1612	-7.27276	-13.4014
 290	1	2	0.072206	-65.2462	-8.24865	-14.5576
 291	1	2	0.045489	-64.4072	-7.4339	-13.2232
 292	1	1	0.005306	-66.8546	-9.95183	-12.9513
 293	1	1	0.164932	-67.4851	-10.4688	-11.6221
 294	1	2	0.005277	-66.7144	-10.7525	-13.6887
 295	1	2	0.017604	-67.5507	-9.23422	-13.4063
 296	1	7	0.008363	-66.9052	-9.4843	-10.6241
 297	1	1	-0.151488	-67.0267	-11.9086	-11.283
 298	1	1	-0.269275	-69.0327	-10.4225	-11.6409
 299	1	7	0.096378	-65.8248	-8.78037	-11.1459
 300	1	2	0.063418	-69.4336	-11.0427	-12.4544
 301	1	2	0.061085	-69.3941	-9.39327	-11.7856
 302	1	2	0.065045	-69.4528	-10.8012	-10.6999
 303	1	7	-0.142025	-67.3994	-9.21551	-9.34308
 304	1	7	-0.448546	-65.1814	-7.79621	-10.3511
 305	1	7	0.277842	-65.6848	-7.49958	-9.06191
 306	1	7	-0.409063	-66.781	-8.21936	-8.56479
 307	1	10	0.203923	-64.3451	-7.23974	-10.7661
 308	1	2	0.016419	-67.4213	-12.2223	-10.3085
 309	1	2	0.049665	-65.9426	-11.994	-11.2329
 310	1	2	0.035794	-67.3768	-12.6198	-12.0398
 311	1	10	0.161583	-68.2656	-9.74297	-8.95348
 312	1	10	0.199011	-67.1909	-7.97682	-7.58598
 313	1	5	0.463181	-37.5032	-25.7787	0.824967
 314	1	6	0.074399	-38.8209	-25.3244	0.971124
 315	1	7	0.034296	-39.4138	-25.2649	-0.384289
 316	1	6	0.051625	-37.1896	-25.9259	-0.533325
 317	1	7	0.019035	-38.4526	-25.6306	-1.29057
 318	1	9	-0.389616	-39.4307	-25.039	1.98474
 319	1	9	-0.380104	-36.1367	-26.28	-1.03068
 320	1	7	-0.045097	-40.7176	-24.9219	-0.777047
 321	1	7	-0.056032	-38.7456	-25.6277	-2.66415
 322	1	7	-0.174781	-40.0605	-25.3012	-3.08635
 323	1	7	-0.129342	-41.0898	-25.0082	-2.14838
 324	1	10	0.168842	-41.4401	-24.6353	-0.016292
 325	1	10	0.15893	-37.9612	-25.8547	-3.38108
 326	1	10	0.147704	-40.2614	-25.2568	-4.15466
 327	1	6	0.584577	-42.5443	-24.7007	-2.51251
 328	1	7	-0.046755	-43.3063	-25.1733	-3.76588
 329	1	7	-0.110868	-44.6339	-24.6998	-3.96216
 330	1	7	-0.046132	-45.3535	-25.0634	-5.11502
 331	1	7	-0.135873	-42.8105	-26.1112	-4.71767
 332	1	7	-0.117662	-43.5594	-26.4835	-5.86779
 333	1	7	-0.064457	-44.8263	-25.9108	-6.05796
 334	1	6	0.492569	-45.8387	-26.0544	-7.15287
 335	1	5	-0.072087	-46.9521	-25.3106	-6.76376
 336	1	6	0.477555	-46.7131	-24.6637	-5.55908
 337	1	7	0.042617	-48.2349	-25.3412	-7.40799
 338	1	7	-0.20367	-49.1311	-24.249	-7.33489
 339	1	7	-0.057018	-50.4356	-24.3476	-7.85036
 340	1	7	-0.18182	-48.6711	-26.5205	-8.03891
 341	1	7	-0.14326	-49.9553	-26.6113	-8.57887
 342	1	7	0.043342	-50.8548	-25.5331	-8.48637
 343	1	10	0.163244	-48.8302	-23.3194	-6.85389
 344	1	10	0.101178	-51.1027	-23.496	-7.75532
 345	1	10	0.165346	-43.1631	-27.1911	-6.59351
 346	1	10	0.135111	-41.8478	-26.587	-4.56665
 347	1	10	0.171751	-45.1049	-24.0308	-3.24049
 348	1	9	-0.478239	-47.4679	-23.9494	-4.93056
 349	1	9	-0.481107	-45.6609	-26.618	-8.21919
 350	1	9	-0.49957	-43.1739	-24.0711	-1.68241
 351	1	10	0.151248	-48.0238	-27.3889	-8.10838
 352	1	10	0.146138	-50.2622	-27.5399	-9.05336
 353	1	1	0.044043	-52.2491	-25.7098	-9.08478
 354	1	1	-0.215975	-52.1339	-26.0008	-10.6029
 355	1	2	0.063789	-51.6358	-25.1822	-11.1226
 356	1	2	0.072206	-53.1307	-26.1303	-11.0533
 357	1	2	0.045489	-51.5536	-26.9146	-10.8095
 358	1	1	0.005306	-52.9846	-26.8771	-8.34895
 359	1	1	0.164932	-54.0921	-26.2584	-7.44016
 360	1	2	0.005277	-52.3117	-27.5014	-7.76596
 361	1	2	0.017604	-53.4374	-27.5401	-9.0864
 362	1	7	0.008363	-54.214	-24.8496	-7.98167
 363	1	1	-0.151488	-53.6813	-26.2159	-5.94837
 364	1	1	-0.269275	-55.4225	-27.0315	-7.6289
 365	1	7	0.096378	-53.2044	-24.5407	-8.87978
 366	1	2	0.063418	-56.2382	-26.5795	-7.04386
 367	1	2	0.061085	-55.3179	-28.0702	-7.30525
 368	1	2	0.065045	-55.7371	-27.0375	-8.6837
 369	1	7	-0.142025	-55.3043	-23.9863	-7.80541
 370	1	7	-0.448546	-53.3017	-23.3866	-9.68455
 371	1	7	0.277842	-54.4551	-22.559	-9.64288
 372	1	7	-0.409063	-55.4308	-22.8625	-8.6521
 373	1	10	0.203923	-52.5335	-23.2097	-10.4305
 374	1	2	0.016419	-52.7834	-25.6082	-5.80129
 375	1	2	0.049665	-53.4721	-27.2247	-5.56513
 376	1	2	0.035794	-54.4781	-25.7827	-5.33716
 377	1	10	0.161583	-56.0964	-24.2383	-7.10393
 378	1	10	0.199011	-56.326	-22.2534	-8.56719
 379	1	5	0.463181	-20.8002	-14.1815	1.97525
 380	1	6	0.074399	-21.257	-14.5933	3.23462
 381	1	7	0.034296	-22.1594	-15.7417	2.92456
 382	1	6	0.051625	-21.3406	-14.9208	0.894396
 383	1	7	0.019035	-22.1747	-15.9469	1.55468
 384	1	9	-0.389616	-21.0918	-14.0646	4.33131
 385	1	9	-0.380104	-21.2516	-14.7812	-0.320099
 386	1	7	-0.045097	-22.856	-16.6102	3.77976
 387	1	7	-0.056032	-22.8093	-17.0556	0.983197
 388	1	7	-0.174781	-23.5432	-17.9159	1.82365
 389	1	7	-0.129342	-23.6147	-17.675	3.21926
 390	1	10	0.168842	-22.8285	-16.4428	4.855
 391	1	10	0.15893	-22.7361	-17.242	-0.0866744
 392	1	10	0.147704	-24.0477	-18.7729	1.38073
 393	1	6	0.584577	-24.4732	-18.5336	4.11004
 394	1	7	-0.046755	-25.8159	-19.0593	3.58977
 395	1	7	-0.110868	-26.4273	-20.1026	4.31251
 396	1	7	-0.046132	-27.663	-20.5943	3.89307
 397	1	7	-0.135873	-26.5198	-18.5221	2.46191
 398	1	7	-0.117662	-27.7847	-19.0229	2.06276
 399	1	7	-0.064457	-28.3373	-20.074	2.80807
 400	1	6	0.492569	-29.5883	-20.8638	2.6296
 401	1	5	-0.072087	-29.5335	-21.865	3.59878
 402	1	6	0.477555	-28.4425	-21.7152	4.45057
 403	1	7	0.042617	-30.4376	-22.9604	3.67126
 404	1	7	-0.20367	-29.9301	-24.2416	3.9403
 405	1	7	-0.057018	-30.7505	-25.3671	3.82551
 406	1	7	-0.18182	-31.8103	-22.8135	3.38809
 407	1	7	-0.14326	-32.641	-23.9489	3.28854
 408	1	7	0.043342	-32.1119	-25.2475	3.46707
 409	1	10	0.163244	-28.8797	-24.3833	4.17275
 410	1	10	0.101178	-30.297	-26.3458	3.95917
 411	1	10	0.165346	-28.3199	-18.6062	1.21275
 412	1	10	0.135111	-26.1159	-17.6753	1.91245
 413	1	10	0.171751	-25.94	-20.5385	5.18243
 414	1	9	-0.478239	-28.1833	-22.3069	5.48748
 415	1	9	-0.481107	-30.447	-20.6856	1.78283
 416	1	9	-0.49957	-24.1318	-18.6938	5.27477
 417	1	10	0.151248	-32.2253	-21.8273	3.19322
 418	1	10	0.146138	-33.6841	-23.8122	3.0123
 419	1	1	0.044043	-32.9261	-26.5222	3.13425
 420	1	1	-0.215975	-32.3925	-27.1087	1.79555
 421	1	2	0.063789	-32.3809	-26.343	1.01354
 422	1	2	0.072206	-33.0313	-27.9337	1.44369
 423	1	2	0.045489	-31.3756	-27.4908	1.90591
 424	1	1	0.005306	-32.7985	-27.5947	4.26381
 425	1	1	0.164932	-34.0963	-27.5805	5.11538
 426	1	2	0.005277	-31.9179	-27.4642	4.89883
 427	1	2	0.017604	-32.6755	-28.5847	3.80296
 428	1	7	0.008363	-35.0866	-26.9393	4.1674
 429	1	1	-0.151488	-33.8532	-26.7652	6.40718
 430	1	1	-0.269275	-34.5026	-29.0337	5.46076
 431	1	7	0.096378	-34.4567	-26.3559	3.06898
 432	1	2	0.063418	-35.4282	-29.0643	6.05762
 433	1	2	0.061085	-33.7099	-29.5332	6.05006
 434	1	2	0.065045	-34.6664	-29.6164	4.54739
 435	1	7	-0.142025	-36.4769	-27.1117	4.20413
 436	1	7	-0.448546	-35.2332	-25.9512	1.95567
 437	1	7	0.277842	-36.6494	-26.1282	1.94809
 438	1	7	-0.409063	-37.2317	-26.7469	3.07974
 439	1	10	0.203923	-34.7374	-25.5673	1.06782
 440	1	2	0.016419	-33.1376	-27.2812	7.05818
 441	1	2	0.049665	-34.7861	-26.6303	6.97289
 442	1	2	0.035794	-33.4465	-25.7714	6.17881
 443	1	10	0.161583	-36.9581	-27.6077	5.0428
 444	1	10	0.199011	-38.301	-26.9505	3.09594
 445	1	1	0.070548	-20.2929	-11.6894	1.92045
 446	1	1	0.506757	-19.7513	-13.1516	1.8602
 447	1	2	-0.012767	-21.2102	-11.602	1.32666
 448	1	2	-0.014806	-20.6047	-11.4776	2.95536
 449	1	3	-0.274996	-18.8262	-13.2775	2.84246
 450	1	3	-0.274736	-19.0627	-13.4046	0.731591
 451	1	5	0.463181	-5.06439	-14.3392	0.496983
 452	1	6	0.074399	-6.13193	-14.0325	1.33091
 453	1	7	0.034296	-5.50538	-13.4564	2.53346
 454	1	6	0.051625	-3.81678	-14.0241	1.05088
 455	1	7	0.019035	-4.14028	-13.4235	2.36977
 456	1	9	-0.389616	-7.33086	-14.1409	1.12881
 457	1	9	-0.380104	-2.69434	-14.2086	0.599572
 458	1	7	-0.045097	-6.11587	-13.0602	3.7159
 459	1	7	-0.056032	-3.30496	-12.9488	3.38387
 460	1	7	-0.174781	-3.91547	-12.4993	4.58265
 461	1	7	-0.129342	-5.33095	-12.5234	4.75467
 462	1	10	0.168842	-7.18588	-13.1917	3.80851
 463	1	10	0.15893	-2.22453	-12.9439	3.25521
 464	1	10	0.147704	-3.29094	-12.1178	5.3852
 465	1	6	0.584577	-6.00043	-12.004	6.01458
 466	1	7	-0.046755	-7.44206	-11.4862	6.01216
 467	1	7	-0.110868	-8.15845	-11.0611	4.85076
 468	1	7	-0.046132	-9.47508	-10.5863	4.9924
 469	1	7	-0.135873	-8.09407	-11.3953	7.2699
 470	1	7	-0.117662	-9.38525	-10.8515	7.40192
 471	1	7	-0.064457	-10.0581	-10.4649	6.23806
 472	1	6	0.492569	-11.4444	-9.98629	6.05982
 473	1	5	-0.072087	-11.646	-9.88705	4.69523
 474	1	6	0.477555	-10.5009	-10.211	3.96696
 475	1	7	0.042617	-12.8852	-9.43433	4.15688
 476	1	7	-0.20367	-13.9491	-10.3088	3.86478
 477	1	7	-0.057018	-15.2049	-9.80384	3.46477
 478	1	7	-0.18182	-13.1071	-8.05423	4.07918
 479	1	7	-0.14326	-14.3388	-7.55497	3.64027
 480	1	7	0.043342	-15.3945	-8.41973	3.2789
 481	1	10	0.163244	-13.8104	-11.3833	3.95687
 482	1	10	0.101178	-16.012	-10.5043	3.2536
 483	1	10	0.165346	-9.86657	-10.773	8.37831
 484	1	10	0.135111	-7.57734	-11.7107	8.16896
 485	1	10	0.171751	-7.70991	-11.054	3.86372
 486	1	9	-0.478239	-10.369	-10.2741	2.75315
 487	1	9	-0.481107	-12.2387	-9.76802	6.94939
 488	1	9	-0.49957	-5.3684	-12.0102	7.06234
 489	1	10	0.151248	-12.3157	-7.36699	4.33664
 490	1	10	0.146138	-14.4621	-6.48121	3.58182
 491	1	1	0.044043	-16.7247	-7.85074	2.75194
 492	1	1	-0.215975	-17.4629	-7.18009	3.95083
 493	1	2	0.063789	-17.5516	-7.88899	4.78724
 494	1	2	0.072206	-18.4754	-6.87287	3.65672
 495	1	2	0.045489	-16.9205	-6.29291	4.31348
 496	1	1	0.005306	-16.4181	-6.81893	1.60358
 497	1	1	0.164932	-16.4186	-7.58107	0.242428
 498	1	2	0.005277	-15.4924	-6.23621	1.7287
 499	1	2	0.017604	-17.2355	-6.07833	1.58495
 500	1	7	0.008363	-17.4087	-8.69306	0.576866
 501	1	1	-0.151488	-15.0282	-8.16903	-0.130136
 502	1	1	-0.269275	-16.8935	-6.68944	-0.93114
 503	1	7	0.096378	-17.5873	-8.87049	1.95426
 504	1	2	0.063418	-16.8029	-7.20982	-1.89953
 505	1	2	0.061085	-16.3047	-5.76471	-0.986842
 506	1	2	0.065045	-17.9474	-6.41836	-0.797588
 507	1	7	-0.142025	-18.1537	-9.44327	-0.352202
 508	1	7	-0.448546	-18.5104	-9.86185	2.41543
 509	1	7	0.277842	-19.2633	-10.6334	1.48539
 510	1	7	-0.409063	-19.0794	-10.4075	0.108436
 511	1	10	0.203923	-18.6551	-10.0191	3.47957
 512	1	2	0.016419	-15.0819	-8.75952	-1.05334
 513	1	2	0.049665	-14.6508	-8.8291	0.658751
 514	1	2	0.035794	-14.2864	-7.3693	-0.279995
 515	1	10	0.161583	-18.025	-9.26972	-1.41752
 516	1	10	0.199011	-19.6497	-10.9925	-0.609777
 517	1	5	0.463181	3.85988	-5.27252	-13.5024
 518	1	6	0.074399	4.49788	-6.49304	-13.2848
 519	1	7	0.034296	4.36438	-6.7	-11.8325
 520	1	6	0.051625	3.36162	-4.69124	-12.3236
 521	1	7	0.019035	3.64434	-5.6825	-11.2488
 522	1	9	-0.389616	4.88515	-7.3341	-14.0884
 523	1	9	-0.380104	2.84348	-3.59835	-12.1797
 524	1	7	-0.045097	4.72537	-7.82549	-11.1209
 525	1	7	-0.056032	3.21503	-5.75184	-9.91211
 526	1	7	-0.174781	3.53567	-6.92093	-9.17931
 527	1	7	-0.129342	4.30638	-7.96308	-9.78309
 528	1	10	0.168842	5.26487	-8.61935	-11.635
 529	1	10	0.15893	2.61156	-4.95616	-9.48534
 530	1	10	0.147704	3.16982	-7.01812	-8.16146
 531	1	6	0.584577	4.66231	-9.2809	-9.13002
 532	1	7	-0.046755	3.83272	-9.79295	-7.98754
 533	1	7	-0.110868	3.10861	-10.9943	-8.18353
 534	1	7	-0.046132	2.26987	-11.4361	-7.16378
 535	1	7	-0.135873	3.79798	-9.13292	-6.73287
 536	1	7	-0.117662	2.953	-9.60435	-5.70327
 537	1	7	-0.064457	2.16893	-10.7427	-5.97804
 538	1	6	0.492569	1.11549	-11.4008	-5.16425
 539	1	5	-0.072087	0.565619	-12.4111	-5.9707
 540	1	6	0.477555	1.25167	-12.5144	-7.18948
 541	1	7	0.042617	-0.691147	-13.0279	-5.65798
 542	1	7	-0.20367	-0.932311	-13.7025	-4.44389
 543	1	7	-0.057018	-2.24967	-14.0234	-4.03622
 544	1	7	-0.18182	-1.78517	-12.7199	-6.4724
 545	1	7	-0.14326	-3.08547	-13.0509	-6.08301
 546	1	7	0.043342	-3.34694	-13.6776	-4.85413
 547	1	10	0.163244	-0.0980094	-13.9172	-3.77847
 548	1	10	0.101178	-2.40147	-14.5141	-3.08091
 549	1	10	0.165346	2.86801	-9.08746	-4.74817
 550	1	10	0.135111	4.40363	-8.24534	-6.56768
 551	1	10	0.171751	3.14613	-11.5285	-9.13049
 552	1	9	-0.478239	1.05813	-13.2395	-8.15338
 553	1	9	-0.481107	0.741842	-10.9912	-4.07324
 554	1	9	-0.49957	5.45347	-10.0416	-9.66705
 555	1	10	0.151248	-1.63639	-12.1536	-7.38742
 556	1	10	0.146138	-3.90411	-12.7514	-6.73387
 557	1	1	0.044043	-4.82683	-13.9244	-4.50749
 558	1	1	-0.215975	-5.55813	-12.5522	-4.46654
 559	1	2	0.063789	-5.02967	-11.8332	-3.81452
 560	1	2	0.072206	-6.58	-12.6761	-4.07306
 561	1	2	0.045489	-5.64712	-12.0963	-5.46294
 562	1	1	0.005306	-5.50511	-14.8764	-5.54948
 563	1	1	0.164932	-5.9394	-16.2045	-4.84912
 564	1	2	0.005277	-4.86602	-15.0703	-6.41732
 565	1	2	0.017604	-6.39801	-14.378	-5.95164
 566	1	7	0.008363	-5.74304	-15.8849	-3.376
 567	1	1	-0.151488	-5.04519	-17.3926	-5.28466
 568	1	1	-0.269275	-7.41895	-16.5327	-5.16091
 569	1	7	0.096378	-5.08997	-14.6678	-3.20944
 570	1	2	0.063418	-8.07075	-15.6866	-4.91808
 571	1	2	0.061085	-7.75366	-17.3907	-4.57366
 572	1	2	0.065045	-7.55118	-16.7749	-6.22396
 573	1	7	-0.142025	-6.18543	-16.6316	-2.26131
 574	1	7	-0.448546	-4.84307	-14.1753	-1.92522
 575	1	7	0.277842	-5.25633	-14.904	-0.793698
 576	1	7	-0.409063	-5.96454	-16.1186	-0.964569
 577	1	10	0.203923	-4.34265	-13.2138	-1.80588
 578	1	2	0.016419	-3.99283	-17.2017	-5.02581
 579	1	2	0.049665	-5.09875	-17.5662	-6.3647
 580	1	2	0.035794	-5.35641	-18.3177	-4.78207
 581	1	10	0.161583	-6.72016	-17.5663	-2.40578
 582	1	10	0.199011	-6.34685	-16.6474	-0.0970422
 583	1	1	0.070548	2.71719	-5.4783	-15.7267
 584	1	1	0.506757	3.78522	-4.72183	-14.881
 585	1	2	-0.012767	1.71547	-5.14415	-15.4209
 586	1	2	-0.014806	2.75233	-6.55046	-15.4931
 587	1	3	-0.274996	5.01781	-4.75394	-15.4539
 588	1	3	-0.274736	3.48511	-3.40696	-14.9356
 589	1	1	0.070548	1.63399	-5.79971	-18.038
 590	1	1	0.506757	2.88684	-5.30219	-17.2604
 591	1	2	-0.012767	1.42297	-6.84091	-17.7638
 592	1	2	-0.014806	0.749388	-5.21834	-17.741
 593	1	3	-0.274996	3.96404	-6.01381	-17.6619
 594	1	3	-0.274736	3.15203	-4.00912	-17.5758
 595	1	5	0.463181	8.5409	9.00386	-27.2877
 596	1	6	0.074399	9.42455	9.01587	-26.2032
 597	1	7	0.034296	8.86888	8.01162	-25.2448
 598	1	6	0.051625	7.46171	8.1631	-27.1053
 599	1	7	0.019035	7.70727	7.49532	-25.7989
 600	1	9	-0.389616	10.4196	9.68819	-26.0495
 601	1	9	-0.380104	6.41701	8.15168	-27.7486
 602	1	7	-0.045097	9.30453	7.60964	-23.9671
 603	1	7	-0.056032	6.9097	6.59499	-25.0931
 604	1	7	-0.174781	7.35083	6.15116	-23.8295
 605	1	7	-0.129342	8.57165	6.60718	-23.2667
 606	1	10	0.168842	10.209	8.04862	-23.5413
 607	1	10	0.15893	5.9588	6.26059	-25.5058
 608	1	10	0.147704	6.69865	5.48037	-23.2761
 609	1	6	0.584577	9.03669	6.12511	-21.8954
 610	1	7	-0.046755	8.53574	4.81978	-21.299
 611	1	7	-0.110868	8.21035	3.71968	-22.1262
 612	1	7	-0.046132	7.67821	2.57363	-21.5387
 613	1	7	-0.135873	8.39397	4.68312	-19.8897
 614	1	7	-0.117662	7.83405	3.52032	-19.3071
 615	1	7	-0.064457	7.47684	2.47668	-20.1771
 616	1	6	0.492569	6.68884	1.24198	-19.935
 617	1	5	-0.072087	6.40976	0.731127	-21.203
 618	1	6	0.477555	7.06909	1.41383	-22.2181
 619	1	7	0.042617	5.37313	-0.214864	-21.455
 620	1	7	-0.20367	5.47465	-1.55496	-21.0294
 621	1	7	-0.057018	4.44421	-2.48339	-21.2825
 622	1	7	-0.18182	4.21136	0.179963	-22.1492