pySIMM System Object

846 atoms
929 bonds
1651 angles
2628 dihedrals
252 impropers

10 atom types
13 bond types
25 angle types
12 dihedral types
4 improper types

-65.361048 65.361048 xlo xhi
-65.361048 65.361048 ylo yhi
-65.361048 65.361048 zlo zhi

Masses

   1	12.01	# c3
   2	1.008	# hc
   3	19.0	# f
   4	1.008	# h2
   5	14.01	# n
   6	12.01	# c
   7	12.01	# ca
   8	1.008	# hn
   9	16.0	# o
  10	1.008	# ha

Pair Coeffs

   1	0.1094	3.3996695084235347	# c3
   2	0.0157	2.649532787749369	# hc
   3	0.061	3.1181455134911875	# f
   4	0.0157	2.2931733004932333	# h2
   5	0.17	3.249998523775958	# n
   6	0.086	3.3996695084235347	# c
   7	0.086	3.3996695084235347	# ca
   8	0.0157	1.069078461768407	# hn
   9	0.21	2.959921901149463	# o
  10	0.015	2.59964245953351	# ha

Bond Coeffs

   1	331.7	1.0961	# c3,h2
   2	330.6	1.0969	# c3,hc
   3	300.9	1.5375	# c3,c3
   4	356.9	1.3497	# c3,f
   5	637.7	1.2183	# c,o
   6	321.0	1.5156	# c3,ca
   7	384.2	1.4121	# ca,n
   8	403.2	1.0129	# hn,n
   9	427.6	1.3789	# c,n
  10	461.1	1.3984	# ca,ca
  11	345.9	1.4906	# c,ca
  12	345.8	1.086	# ca,ha
  13	328.7	1.4619	# c3,n

Angle Coeffs

   1	46.34	109.8	# c3,c3,hc
   2	70.89	107.36	# f,c3,f
   3	39.4	107.58	# hc,c3,hc
   4	66.11	109.24	# c3,c3,f
   5	46.25	110.22	# c3,c3,h2
   6	51.15	108.79	# f,c3,h2
   7	64.28	120.33	# c,ca,ca
   8	63.53	120.77	# c3,ca,ca
   9	66.62	120.02	# ca,ca,ca
  10	74.22	123.05	# n,c,o
  11	62.86	111.51	# c3,c3,c3
  12	63.74	127.08	# c,n,c
  13	63.15	112.07	# c3,c3,ca
  14	48.18	119.88	# ca,ca,ha
  15	67.87	120.19	# ca,ca,n
  16	68.72	122.6	# ca,c,o
  17	63.0	118.11	# ca,c,ca
  18	63.82	123.71	# c,n,ca
  19	67.68	115.25	# ca,c,n
  20	63.56	112.24	# ca,c3,ca
  21	48.33	117.55	# c,n,hn
  22	46.8	110.47	# ca,c3,hc
  23	63.39	120.69	# c,n,c3
  24	65.91	111.61	# c3,c3,n
  25	69.52	110.41	# f,c3,n

Dihedral Coeffs

   1	2	0.0	3	0	0.19	1	0	# hc,c3,c3,f
   2	1	0.15555555555555556	3	0	# X,c3,c3,X
   3	2	2.5	2	180	2.0	1	0	# hn,n,c,o
   4	1	3.625	2	180	# X,ca,ca,X
   5	1	0.16	3	0	# hc,c3,c3,c3
   6	1	1.0	2	180	# X,c,ca,X
   7	1	0.0	2	0	# X,c3,ca,X
   8	1	2.5	2	180	# X,c,n,X
   9	1	0.45	2	180	# X,ca,n,X
  10	3	0.18	3	0	0.25	2	180	0.2	1	180	# c3,c3,c3,c3
  11	4	0.5	4	180	0.15	3	180	0.0	2	0	0.53	1	0	# c3,c3,n,c
  12	1	0.0	2	0	# X,c3,n,X

Improper Coeffs

   1	10.5	-1	2	# c,X,X,o
   2	1.1	-1	2	# ca,X,X,ha
   3	1.1	-1	2	# ca,ca,ca,c3
   4	1.1	-1	2	# n,X,X,hn

Atoms

   1	1	1	0.070548	-22.5208	-31.6883	61.4799
   2	1	1	0.506757	-23.6947	-32.4845	60.8791
   3	1	2	-0.012767	-22.0577	-31.0468	60.71
   4	1	2	-0.014806	-22.8786	-31.0038	62.2682
   5	1	3	-0.274996	-23.9488	-32.0919	59.611
   6	1	3	-0.274736	-24.8189	-32.2927	61.6069
   7	1	5	0.463181	-14.4009	-19.2336	52.6495
   8	1	6	0.074399	-14.7817	-19.3789	53.9908
   9	1	7	0.034296	-14.7547	-20.8426	54.2414
  10	1	6	0.051625	-14.1344	-20.4718	52.0469
  11	1	7	0.019035	-14.3926	-21.4983	53.0853
  12	1	9	-0.389616	-15.2217	-18.5365	54.7626
  13	1	9	-0.380104	-13.8291	-20.7264	50.8944
  14	1	7	-0.045097	-15.1066	-21.5534	55.3911
  15	1	7	-0.056032	-14.3821	-22.8993	52.9981
  16	1	7	-0.174781	-14.7843	-23.6357	54.1339
  17	1	7	-0.129342	-15.1289	-22.9682	55.3452
  18	1	10	0.168842	-15.418	-21.0123	56.2836
  19	1	10	0.15893	-14.1259	-23.3909	52.0624
  20	1	10	0.147704	-14.8487	-24.7175	54.0526
  21	1	6	0.584577	-15.648	-23.6906	56.5627
  22	1	7	-0.046755	-15.3329	-25.141	56.8199
  23	1	7	-0.110868	-16.2883	-25.8924	57.5381
  24	1	7	-0.046132	-16.0267	-27.2444	57.7771
  25	1	7	-0.135873	-14.1191	-25.7592	56.4094
  26	1	7	-0.117662	-13.8999	-27.1443	56.6156
  27	1	7	-0.064457	-14.886	-27.8636	57.3045
  28	1	6	0.492569	-14.8741	-29.2596	57.823
  29	1	5	-0.072087	-16.0236	-29.3821	58.5974
  30	1	6	0.477555	-16.7835	-28.222	58.5973
  31	1	7	0.042617	-16.3965	-30.5691	59.2861
  32	1	7	-0.20367	-16.2757	-31.801	58.6272
  33	1	7	-0.057018	-16.7414	-32.9778	59.2256
  34	1	7	-0.18182	-16.9487	-30.5341	60.5818
  35	1	7	-0.14326	-17.4621	-31.7056	61.1621
  36	1	7	0.043342	-17.4042	-32.9357	60.4723
  37	1	10	0.163244	-15.8459	-31.8515	57.6287
  38	1	10	0.101178	-16.6454	-33.9068	58.6761
  39	1	10	0.165346	-12.9671	-27.6265	56.3227
  40	1	10	0.135111	-13.3454	-25.172	55.9349
  41	1	10	0.171751	-17.1988	-25.4352	57.9249
  42	1	9	-0.478239	-17.8222	-27.9961	59.1944
  43	1	9	-0.481107	-13.9806	-30.0764	57.6654
  44	1	9	-0.49957	-16.4471	-23.1123	57.281
  45	1	10	0.151248	-17.0486	-29.5847	61.1045
  46	1	10	0.146138	-17.945	-31.6472	62.1351
  47	1	1	0.044043	-18.0884	-34.177	61.0806
  48	1	1	-0.215975	-18.4575	-35.2474	60.0195
  49	1	2	0.063789	-19.0456	-36.0554	60.4698
  50	1	2	0.072206	-17.5615	-35.7008	59.5732
  51	1	2	0.045489	-19.0603	-34.807	59.215
  52	1	1	0.005306	-17.2419	-34.7736	62.2456
  53	1	1	0.164932	-18.2042	-35.0828	63.4396
  54	1	2	0.005277	-16.4951	-34.0403	62.5671
  55	1	2	0.017604	-16.6851	-35.6603	61.9259
  56	1	7	0.008363	-19.4563	-34.309	63.0711
  57	1	1	-0.151488	-17.6144	-34.5729	64.7782
  58	1	1	-0.269275	-18.4777	-36.6045	63.5423
  59	1	7	0.096378	-19.378	-33.8088	61.7805
  60	1	2	0.063418	-19.3019	-36.8016	64.2384
  61	1	2	0.061085	-17.5958	-37.1427	63.9098
  62	1	2	0.065045	-18.7458	-37.0343	62.5696
  63	1	7	-0.142025	-20.5622	-33.9958	63.8823
  64	1	7	-0.448546	-20.3919	-33.0115	61.2478
  65	1	7	0.277842	-21.4782	-32.6406	62.0478
  66	1	7	-0.409063	-21.558	-33.133	63.3687
  67	1	10	0.203923	-20.2921	-32.6276	60.2376
  68	1	2	0.016419	-17.4187	-33.4932	64.7352
  69	1	2	0.049665	-16.667	-35.0796	65.0052
  70	1	2	0.035794	-18.302	-34.7618	-65.1115
  71	1	10	0.161583	-20.616	-34.3703	64.8991
  72	1	10	0.199011	-22.3935	-32.8453	64.0018
  73	1	5	0.463181	-4.49374	-10.6932	37.6815
  74	1	6	0.074399	-5.59267	-10.8338	38.5339
  75	1	7	0.034296	-5.618	-12.2711	38.906
  76	1	6	0.051625	-3.82704	-11.8988	37.4561
  77	1	7	0.019035	-4.54675	-12.8903	38.2868
  78	1	9	-0.389616	-6.43988	-9.99962	38.8058
  79	1	9	-0.380104	-2.89584	-12.1301	36.7079
  80	1	7	-0.045097	-6.57206	-12.9988	39.6299
  81	1	7	-0.056032	-4.35616	-14.2684	38.356
  82	1	7	-0.174781	-5.34467	-15.0325	38.9994
  83	1	7	-0.129342	-6.44653	-14.4101	39.6303
  84	1	10	0.168842	-7.43761	-12.498	40.0616
  85	1	10	0.15893	-3.52519	-14.7374	37.8343
  86	1	10	0.147704	-5.28217	-16.1204	38.9788
  87	1	6	0.584577	-7.55476	-15.2665	40.1723
  88	1	7	-0.046755	-8.15904	-14.9451	41.5123
  89	1	7	-0.110868	-9.38443	-15.5489	41.8483
  90	1	7	-0.046132	-9.89659	-15.3373	43.1222
  91	1	7	-0.135873	-7.49556	-14.1364	42.4755
  92	1	7	-0.117662	-8.01743	-13.9671	43.7793
  93	1	7	-0.064457	-9.24518	-14.5849	44.0746
  94	1	6	0.492569	-10.0482	-14.6735	45.3333
  95	1	5	-0.072087	-11.186	-15.4174	45.0052
  96	1	6	0.477555	-11.1507	-15.8538	43.6881
  97	1	7	0.042617	-12.2597	-15.7148	45.8968
  98	1	7	-0.20367	-12.0326	-16.0978	47.2337
  99	1	7	-0.057018	-13.1149	-16.3949	48.0855
 100	1	7	-0.18182	-13.5793	-15.6178	45.4359
 101	1	7	-0.14326	-14.6573	-15.8713	46.2922
 102	1	7	0.043342	-14.4514	-16.2578	47.6334
 103	1	10	0.163244	-11.0243	-16.1511	47.6178
 104	1	10	0.101178	-12.8965	-16.68	49.1048
 105	1	10	0.165346	-7.47786	-13.4007	44.5392
 106	1	10	0.135111	-6.52719	-13.7022	42.2489
 107	1	10	0.171751	-9.92473	-16.1824	41.1461
 108	1	9	-0.478239	-11.9232	-16.577	43.0823
 109	1	9	-0.481107	-9.73765	-14.2164	46.4209
 110	1	9	-0.49957	-7.91245	-16.2509	39.5486
 111	1	10	0.151248	-13.7767	-15.3126	44.4103
 112	1	10	0.146138	-15.6614	-15.748	45.9109
 113	1	1	0.044043	-15.6672	-16.3911	48.5683
 114	1	1	-0.215975	-16.6823	-17.4273	48.0092
 115	1	2	0.063789	-17.5365	-17.5638	48.6932
 116	1	2	0.072206	-16.2061	-18.4006	47.8677
 117	1	2	0.045489	-17.0872	-17.1076	47.0399
 118	1	1	0.005306	-16.3026	-14.9712	48.7452
 119	1	1	0.164932	-15.6421	-14.2879	49.9798
 120	1	2	0.005277	-17.3796	-15.0901	48.9337
 121	1	2	0.017604	-16.22	-14.3552	47.8398
 122	1	7	0.008363	-15.1083	-15.4985	50.7328
 123	1	1	-0.151488	-16.6894	-13.5151	50.8207
 124	1	1	-0.269275	-14.4982	-13.3075	49.585
 125	1	7	0.096378	-15.2273	-16.6756	50.0058
 126	1	2	0.063418	-14.8365	-12.591	48.8159
 127	1	2	0.061085	-13.6332	-13.8467	49.1926
 128	1	2	0.065045	-14.1464	-12.736	50.4555
 129	1	7	-0.142025	-14.5667	-15.5225	52.026
 130	1	7	-0.448546	-14.9454	-17.9181	50.6077
 131	1	7	0.277842	-14.4835	-17.9834	51.9461
 132	1	7	-0.409063	-14.2239	-16.7575	52.611
 133	1	10	0.203923	-15.1271	-18.8272	50.0405
 134	1	2	0.016419	-17.2282	-12.789	50.204
 135	1	2	0.049665	-16.2202	-12.9646	51.6526
 136	1	2	0.035794	-17.4245	-14.2025	51.2522
 137	1	10	0.161583	-14.4375	-14.5938	52.5795
 138	1	10	0.199011	-13.8506	-16.758	53.6319
 139	1	1	0.070548	-4.69762	-9.09587	35.7393
 140	1	1	0.506757	-4.06164	-9.38016	37.1247
 141	1	2	-0.012767	-5.78179	-8.99136	35.8866
 142	1	2	-0.014806	-4.58429	-9.98546	35.1079
 143	1	3	-0.274996	-4.40187	-8.36162	37.937
 144	1	3	-0.274736	-2.71437	-9.2961	37.0714
 145	1	1	0.070548	-4.23239	-6.4695	35.6964
 146	1	1	0.506757	-4.19357	-7.84481	34.9395
 147	1	2	-0.012767	-5.21365	-6.35267	36.1846
 148	1	2	-0.014806	-3.501	-6.50515	36.5176
 149	1	3	-0.274996	-2.95185	-8.03881	34.4471
 150	1	3	-0.274736	-4.97874	-7.81844	33.8468
 151	1	1	0.070548	-4.93647	-4.92888	33.6663
 152	1	1	0.506757	-3.9433	-5.1781	34.8498
 153	1	2	-0.012767	-4.79953	-5.67675	32.8791
 154	1	2	-0.014806	-5.97143	-5.04678	34.0141
 155	1	3	-0.274996	-2.66513	-5.26635	34.4184
 156	1	3	-0.274736	-3.98186	-4.06811	35.6532
 157	1	5	0.463181	2.65567	-5.73913	14.5175
 158	1	6	0.074399	3.22455	-6.32281	15.6377
 159	1	7	0.034296	2.32417	-5.9774	16.7648
 160	1	6	0.051625	1.45348	-5.09106	14.8069
 161	1	7	0.019035	1.23108	-5.29338	16.271
 162	1	9	-0.389616	4.28091	-6.90721	15.7193
 163	1	9	-0.380104	0.708413	-4.50604	14.0422
 164	1	7	-0.045097	2.50331	-6.20165	18.1363
 165	1	7	-0.056032	0.206965	-4.85532	17.1245
 166	1	7	-0.174781	0.381949	-5.03967	18.5127
 167	1	7	-0.129342	1.52098	-5.71176	19.031
 168	1	10	0.168842	3.40644	-6.68714	18.4914
 169	1	10	0.15893	-0.640186	-4.30201	16.7311
 170	1	10	0.147704	-0.348443	-4.60077	19.1866
 171	1	6	0.584577	1.78792	-5.77374	20.5152
 172	1	7	-0.046755	0.661475	-5.64051	21.5357
 173	1	7	-0.110868	0.965746	-5.05343	22.7859
 174	1	7	-0.046132	-0.0103553	-5.03517	23.7858
 175	1	7	-0.135873	-0.634588	-6.21299	21.3644
 176	1	7	-0.117662	-1.57799	-6.25585	22.4293
 177	1	7	-0.064457	-1.23342	-5.64671	23.6491
 178	1	6	0.492569	-1.93844	-5.49916	24.967
 179	1	5	-0.072087	-1.10196	-4.73721	25.7817
 180	1	6	0.477555	0.106252	-4.49136	25.142
 181	1	7	0.042617	-1.41822	-4.22924	27.091
 182	1	7	-0.20367	-2.7326	-3.87336	27.4588
 183	1	7	-0.057018	-2.98335	-3.14283	28.6381
 184	1	7	-0.18182	-0.406098	-3.9988	28.0383
 185	1	7	-0.14326	-0.656484	-3.29548	29.2255
 186	1	7	0.043342	-1.93822	-2.76851	29.5076
 187	1	10	0.163244	-3.56528	-4.08358	26.7896
 188	1	10	0.101178	-4.00004	-2.80839	28.8496
 189	1	10	0.165346	-2.5416	-6.74698	22.3181
 190	1	10	0.135111	-0.890448	-6.71428	20.4317
 191	1	10	0.171751	1.9529	-4.6385	22.9814
 192	1	9	-0.478239	1.04918	-3.81454	25.4966
 193	1	9	-0.481107	-2.98862	-6.02552	25.2822
 194	1	9	-0.49957	2.93309	-5.97341	20.8977
 195	1	10	0.151248	0.614088	-4.31806	27.8505
 196	1	10	0.146138	0.186367	-3.10788	29.8784
 197	1	1	0.044043	-2.20495	-1.80298	30.6973
 198	1	1	-0.215975	-0.990601	-1.67561	31.6517
 199	1	2	0.063789	-1.19328	-0.963601	32.4594
 200	1	2	0.072206	-0.100702	-1.33462	31.1076
 201	1	2	0.045489	-0.773727	-2.63889	32.1285
 202	1	1	0.005306	-2.60213	-0.369593	30.2252
 203	1	1	0.164932	-3.91978	0.0787088	30.9269
 204	1	2	0.005277	-2.75733	-0.356124	29.1271
 205	1	2	0.017604	-1.79246	0.360298	30.4256
 206	1	7	0.008363	-4.33131	-1.15146	31.679
 207	1	1	-0.151488	-4.98009	0.51968	29.8948
 208	1	1	-0.269275	-3.67926	1.24035	31.901
 209	1	7	0.096378	-3.41649	-2.18316	31.5279
 210	1	2	0.063418	-3.29398	2.13139	31.374
 211	1	2	0.061085	-2.94741	0.957468	32.6799
 212	1	2	0.065045	-4.61112	1.52166	32.417
 213	1	7	-0.142025	-5.43994	-1.27	32.541
 214	1	7	-0.448546	-3.6331	-3.39533	32.1747
 215	1	7	0.277842	-4.75469	-3.57606	33.0012
 216	1	7	-0.409063	-5.66291	-2.5066	33.1853
 217	1	10	0.203923	-2.91435	-4.19264	32.0411
 218	1	2	0.016419	-5.9335	0.791078	30.3773
 219	1	2	0.049665	-5.18801	-0.274043	29.1659
 220	1	2	0.035794	-4.62065	1.3873	29.3234
 221	1	10	0.161583	-6.11829	-0.434309	32.6954
 222	1	10	0.199011	-6.52026	-2.61608	33.8416
 223	1	1	0.070548	2.537	-6.87596	12.2806
 224	1	1	0.506757	3.25983	-5.79492	13.1592
 225	1	2	-0.012767	2.38461	-7.78569	12.8781
 226	1	2	-0.014806	1.52858	-6.52353	12.0258
 227	1	3	-0.274996	3.2125	-4.57285	12.5824
 228	1	3	-0.274736	4.59348	-6.06807	13.1698
 229	1	5	0.463181	-1.30029	-20.6905	-0.0133913
 230	1	6	0.074399	-0.957523	-20.8075	1.32603
 231	1	7	0.034296	-1.78716	-19.7839	2.01171
 232	1	6	0.051625	-2.22518	-19.6723	-0.276737
 233	1	7	0.019035	-2.54463	-19.1148	1.06329
 234	1	9	-0.389616	-0.121013	-21.5633	1.79405
 235	1	9	-0.380104	-2.72014	-19.3446	-1.34773
 236	1	7	-0.045097	-1.79393	-19.4107	3.36162
 237	1	7	-0.056032	-3.39101	-18.0596	1.41219
 238	1	7	-0.174781	-3.44169	-17.6777	2.75537
 239	1	7	-0.129342	-2.62197	-18.3057	3.73765
 240	1	10	0.168842	-1.18902	-19.9625	4.07505
 241	1	10	0.15893	-3.96949	-17.5295	0.657729
 242	1	10	0.147704	-4.07856	-16.8379	3.0425
 243	1	6	0.584577	-2.69925	-17.6872	5.14103
 244	1	7	-0.046755	-1.47206	-17.2995	5.9487
 245	1	7	-0.110868	-1.03005	-15.9532	5.90361
 246	1	7	-0.046132	-0.0826348	-15.5281	6.8377
 247	1	7	-0.135873	-0.922319	-18.177	6.93617
 248	1	7	-0.117662	0.00236248	-17.6992	7.89951
 249	1	7	-0.064457	0.405285	-16.3618	7.81845
 250	1	6	0.492569	1.4027	-15.5852	8.62062
 251	1	5	-0.072087	1.42373	-14.3172	8.05962
 252	1	6	0.477555	0.507169	-14.181	7.03901
 253	1	7	0.042617	2.35534	-13.314	8.4813
 254	1	7	-0.20367	3.73007	-13.6093	8.54809
 255	1	7	-0.057018	4.67076	-12.6164	8.91851
 256	1	7	-0.18182	1.96328	-11.9989	8.79341
 257	1	7	-0.14326	2.89803	-11.017	9.19185
 258	1	7	0.043342	4.27738	-11.3048	9.25955
 259	1	10	0.163244	4.08487	-14.6051	8.29414
 260	1	10	0.101178	5.72261	-12.8764	8.90926
 261	1	10	0.165346	0.421745	-18.349	8.67323
 262	1	10	0.135111	-1.25501	-19.2142	6.99527
 263	1	10	0.171751	-1.44933	-15.2286	5.2095
 264	1	9	-0.478239	0.232116	-13.1445	6.47327
 265	1	9	-0.481107	2.07684	-15.987	9.5556
 266	1	9	-0.49957	-3.78487	-17.3163	5.56892
 267	1	10	0.151248	0.90602	-11.7341	8.76721
 268	1	10	0.146138	2.5203	-10.038	9.45588
 269	1	1	0.044043	5.33466	-10.2082	9.54996
 270	1	1	-0.215975	6.25615	-10.6824	10.7051
 271	1	2	0.063789	5.66581	-11.0078	11.5649
 272	1	2	0.072206	6.94607	-9.89011	11.0409
 273	1	2	0.045489	6.87644	-11.5198	10.3836
 274	1	1	0.005306	6.19953	-9.8884	8.28057
 275	1	1	0.164932	5.76721	-8.48292	7.71796
 276	1	2	0.005277	6.10958	-10.6637	7.51477
 277	1	2	0.017604	7.25517	-9.87033	8.56103
 278	1	7	0.008363	4.87048	-7.92889	8.81198
 279	1	1	-0.151488	4.94066	-8.63559	6.41902
 280	1	1	-0.269275	6.99413	-7.54849	7.50353
 281	1	7	0.096378	4.70374	-8.84564	9.84693
 282	1	2	0.063418	7.56914	-7.44708	8.43318
 283	1	2	0.061085	6.69423	-6.53978	7.18751
 284	1	2	0.065045	7.66378	-7.95191	6.73516
 285	1	7	-0.142025	4.15374	-6.71641	8.80125
 286	1	7	-0.448546	3.94187	-8.50777	10.9687
 287	1	7	0.277842	3.28712	-7.26384	11.0163
 288	1	7	-0.409063	3.34577	-6.39876	9.90765
 289	1	10	0.203923	3.86797	-9.21012	11.7925
 290	1	2	0.016419	5.46696	-9.27457	5.69734
 291	1	2	0.049665	4.75453	-7.6669	5.94353
 292	1	2	0.035794	3.96356	-9.08612	6.64111
 293	1	10	0.161583	4.2552	-6.03119	7.96544
 294	1	10	0.199011	2.81477	-5.45407	9.943
 295	1	5	0.463181	-11.5465	-20.1313	-17.3243
 296	1	6	0.074399	-11.9314	-19.4379	-16.1892
 297	1	7	0.034296	-10.9326	-19.8751	-15.152
 298	1	6	0.051625	-10.3504	-20.8306	-17.1554
 299	1	7	0.019035	-9.99131	-20.7041	-15.7395
 300	1	9	-0.389616	-12.9547	-18.8018	-16.0157
 301	1	9	-0.380104	-9.72007	-21.4172	-17.9995
 302	1	7	-0.045097	-10.8738	-19.6362	-13.7761
 303	1	7	-0.056032	-9.00505	-21.37	-15.0107
 304	1	7	-0.174781	-8.96159	-21.1811	-13.6165
 305	1	7	-0.129342	-9.85043	-20.2439	-13.0233
 306	1	10	0.168842	-11.5953	-18.9989	-13.2958
 307	1	10	0.15893	-8.30721	-22.063	-15.4912
 308	1	10	0.147704	-8.18705	-21.6947	-13.0609
 309	1	6	0.584577	-9.7197	-19.9182	-11.5785
 310	1	7	-0.046755	-8.362	-20.0573	-10.9306
 311	1	7	-0.110868	-8.3244	-20.5589	-9.61964
 312	1	7	-0.046132	-7.08575	-20.7685	-9.04178
 313	1	7	-0.135873	-7.14051	-19.8356	-11.6506
 314	1	7	-0.117662	-5.89688	-20.115	-11.0441
 315	1	7	-0.064457	-5.91511	-20.5291	-9.71593
 316	1	6	0.492569	-4.82233	-21.0146	-8.85942
 317	1	5	-0.072087	-5.39523	-21.6012	-7.75488
 318	1	6	0.477555	-6.767	-21.4719	-7.79336
 319	1	7	0.042617	-4.66793	-22.1547	-6.65167
 320	1	7	-0.20367	-4.84407	-23.4875	-6.25315
 321	1	7	-0.057018	-3.9932	-24.0327	-5.29745
 322	1	7	-0.18182	-3.76086	-21.3309	-5.93472
 323	1	7	-0.14326	-2.95389	-21.8806	-4.9138
 324	1	7	0.043342	-3.03058	-23.2611	-4.62835
 325	1	10	0.163244	-5.58054	-24.1215	-6.74184
 326	1	10	0.101178	-4.055	-25.1118	-5.11919
 327	1	10	0.165346	-4.95683	-20.0011	-11.578
 328	1	10	0.135111	-7.1689	-19.4825	-12.6701
 329	1	10	0.171751	-9.22385	-20.8064	-9.0496
 330	1	9	-0.478239	-7.60961	-21.8021	-6.97945
 331	1	9	-0.481107	-3.6466	-20.8949	-9.08501
 332	1	9	-0.49957	-10.6937	-19.6236	-10.9111
 333	1	10	0.151248	-3.65599	-20.288	-6.21857
 334	1	10	0.146138	-2.23685	-21.2224	-4.39409
 335	1	1	0.044043	-1.99603	-24.0082	-3.74588
 336	1	1	-0.215975	-2.67186	-25.1043	-2.8601
 337	1	2	0.063789	-3.57472	-24.6871	-2.38812
 338	1	2	0.072206	-1.97439	-25.432	-2.07371
 339	1	2	0.045489	-2.96403	-26.006	-3.42998
 340	1	1	0.005306	-0.895593	-24.6539	-4.63706
 341	1	1	0.164932	0.444183	-23.8782	-4.44628
 342	1	2	0.005277	-1.18806	-24.6897	-5.69637
 343	1	2	0.017604	-0.75591	-25.702	-4.35255
 344	1	7	0.008363	0.15205	-23.0415	-3.23406
 345	1	1	-0.151488	0.722921	-23.0234	-5.70348
 346	1	1	-0.269275	1.60455	-24.8646	-4.16453
 347	1	7	0.096378	-1.17795	-23.0693	-2.88331
 348	1	2	0.063418	1.41386	-25.436	-3.25121
 349	1	2	0.061085	2.56768	-24.3529	-4.03461
 350	1	2	0.065045	1.68781	-25.5907	-4.98587
 351	1	7	-0.142025	1.08544	-22.3319	-2.46365
 352	1	7	-0.448546	-1.63968	-22.3023	-1.81213
 353	1	7	0.277842	-0.752442	-21.5122	-1.05144
 354	1	7	-0.409063	0.624931	-21.542	-1.37747
 355	1	10	0.203923	-2.69389	-22.3273	-1.57242
 356	1	2	0.016419	-0.055315	-22.2764	-5.8586
 357	1	2	0.049665	0.752232	-23.6646	-6.59648
 358	1	2	0.035794	1.69201	-22.5269	-5.61986
 359	1	10	0.161583	2.13821	-22.3538	-2.72363
 360	1	10	0.199011	1.33178	-20.9644	-0.792403
 361	1	5	0.463181	-9.66232	-2.59383	-21.4459
 362	1	6	0.074399	-10.3342	-3.66884	-22.0948
 363	1	7	0.034296	-10.8623	-4.53172	-20.9831
 364	1	6	0.051625	-9.77455	-2.7024	-20.0458
 365	1	7	0.019035	-10.4933	-3.95336	-19.7903
 366	1	9	-0.389616	-10.5362	-3.83369	-23.2956
 367	1	9	-0.380104	-9.60183	-1.84146	-19.2116
 368	1	7	-0.045097	-11.5718	-5.7191	-21.0251
 369	1	7	-0.056032	-10.8176	-4.50385	-18.5662
 370	1	7	-0.174781	-11.5601	-5.70795	-18.5904
 371	1	7	-0.129342	-11.9286	-6.34488	-19.8128
 372	1	10	0.168842	-11.919	-6.0765	-21.9878
 373	1	10	0.15893	-10.4952	-4.02007	-17.6323
 374	1	10	0.147704	-11.8667	-6.13784	-17.6559
 375	1	6	0.584577	-12.6055	-7.66888	-19.7329
 376	1	7	-0.046755	-12.2192	-8.76027	-20.6989
 377	1	7	-0.110868	-13.0595	-9.89634	-20.7686
 378	1	7	-0.046132	-12.7165	-10.9254	-21.6418
 379	1	7	-0.135873	-11.0517	-8.69628	-21.5155
 380	1	7	-0.117662	-10.6434	-9.81688	-22.2797
 381	1	7	-0.064457	-11.4886	-10.9261	-22.2453
 382	1	6	0.492569	-11.1896	-12.2973	-22.691
 383	1	5	-0.072087	-12.2714	-13.0718	-22.3655
 384	1	6	0.477555	-13.2567	-12.2961	-21.7816
 385	1	7	0.042617	-12.2922	-14.5273	-22.3167
 386	1	7	-0.20367	-12.4231	-15.1785	-21.0914
 387	1	7	-0.057018	-12.4976	-16.5722	-20.9611
 388	1	7	-0.18182	-12.1624	-15.2919	-23.4609
 389	1	7	-0.14326	-12.1774	-16.6872	-23.3641
 390	1	7	0.043342	-12.3559	-17.3554	-22.1237
 391	1	10	0.163244	-12.5191	-14.5814	-20.178
 392	1	10	0.101178	-12.6681	-17.0291	-19.9825
 393	1	10	0.165346	-9.65338	-9.83165	-22.7753
 394	1	10	0.135111	-10.3488	-7.8757	-21.4621
 395	1	10	0.171751	-13.8944	-10.0232	-20.088
 396	1	9	-0.478239	-14.3585	-12.6558	-21.3941
 397	1	9	-0.481107	-10.0917	-12.6694	-23.0611
 398	1	9	-0.49957	-13.2711	-7.91944	-18.7672
 399	1	10	0.151248	-12.0273	-14.7983	-24.4087
 400	1	10	0.146138	-12.0553	-17.2776	-24.2695
 401	1	1	0.044043	-12.517	-18.9045	-22.1275
 402	1	1	-0.215975	-11.3109	-19.6438	-22.7744
 403	1	2	0.063789	-11.2081	-19.4974	-23.8432
 404	1	2	0.072206	-11.3764	-20.7124	-22.5745
 405	1	2	0.045489	-10.359	-19.3363	-22.3664
 406	1	1	0.005306	-13.8084	-19.3147	-22.9414
 407	1	1	0.164932	-14.763	-20.1235	-22.0091
 408	1	2	0.005277	-13.5079	-19.9232	-23.8131
 409	1	2	0.017604	-14.3087	-18.4186	-23.3513
 410	1	7	0.008363	-13.9442	-20.2946	-20.7591
 411	1	1	-0.151488	-15.1066	-21.4936	-22.6287
 412	1	1	-0.269275	-16.0215	-19.3072	-21.7236
 413	1	7	0.096378	-12.7978	-19.5304	-20.7609
 414	1	2	0.063418	-16.5237	-18.9875	-22.6264
 415	1	2	0.061085	-15.7914	-18.3851	-21.1637
 416	1	2	0.065045	-16.7478	-19.8701	-21.1484
 417	1	7	-0.142025	-14.2884	-21.0926	-19.6645
 418	1	7	-0.448546	-11.9643	-19.4589	-19.6236
 419	1	7	0.277842	-12.3151	-20.2135	-18.4912
 420	1	7	-0.409063	-13.4563	-21.0612	-18.527
 421	1	10	0.203923	-11.0589	-18.8423	-19.6159
 422	1	2	0.016419	-14.2357	-22.1714	-22.7135
 423	1	2	0.049665	-15.5584	-21.4074	-23.6148
 424	1	2	0.035794	-15.8653	-22.0113	-22.0275
 425	1	10	0.161583	-15.1863	-21.6626	-19.6756
 426	1	10	0.199011	-13.7303	-21.6465	-17.6667
 427	1	1	0.070548	-9.28466	-1.29032	-23.6064
 428	1	1	0.506757	-8.99106	-1.40402	-22.0771
 429	1	2	-0.012767	-8.89406	-2.24276	-24.0381
 430	1	2	-0.014806	-10.3606	-1.31561	-23.7831
 431	1	3	-0.274996	-7.65517	-1.44061	-21.8387
 432	1	3	-0.274736	-9.49391	-0.273818	-21.526
 433	1	5	0.463181	6.42975	5.8996	-15.8192
 434	1	6	0.074399	5.41204	4.95861	-16.1119
 435	1	7	0.034296	4.12952	5.66731	-15.8831
 436	1	6	0.051625	5.88679	7.11845	-15.3991
 437	1	7	0.019035	4.39239	6.98674	-15.5046
 438	1	9	-0.389616	5.5023	3.83853	-16.5339
 439	1	9	-0.380104	6.43127	8.11754	-14.9151
 440	1	7	-0.045097	2.81123	5.19928	-16.1417
 441	1	7	-0.056032	3.35318	7.96793	-15.3373
 442	1	7	-0.174781	2.05633	7.46387	-15.5378
 443	1	7	-0.129342	1.75595	6.12426	-15.9954
 444	1	10	0.168842	2.55671	4.13357	-16.3572
 445	1	10	0.15893	3.51303	8.97708	-15.0826
 446	1	10	0.147704	1.16189	8.16094	-15.4308
 447	1	6	0.584577	0.3303	5.63429	-16.1742
 448	1	7	-0.046755	-0.247627	5.42256	-17.5639
 449	1	7	-0.110868	-1.60084	4.9444	-17.7834
 450	1	7	-0.046132	-2.01173	4.78624	-19.1032
 451	1	7	-0.135873	0.564982	5.71959	-18.6715
 452	1	7	-0.117662	0.167098	5.43405	-19.9945
 453	1	7	-0.064457	-1.19672	5.03147	-20.2216
 454	1	6	0.492569	-2.00854	4.74996	-21.4935
 455	1	5	-0.072087	-3.262	4.33608	-21.0374
 456	1	6	0.477555	-3.32185	4.26761	-19.6313
 457	1	7	0.042617	-4.36602	4.18612	-21.9355
 458	1	7	-0.20367	-5.25079	5.27933	-22.0955
 459	1	7	-0.057018	-6.45507	5.07577	-22.865
 460	1	7	-0.18182	-4.53619	3.02155	-22.6877
 461	1	7	-0.14326	-5.75403	2.83033	-23.4283
 462	1	7	0.043342	-6.70609	3.86147	-23.5719
 463	1	10	0.163244	-5.07083	6.13483	-21.451
 464	1	10	0.101178	-7.22177	5.81162	-22.9419
 465	1	10	0.165346	0.823088	5.48092	-20.8465
 466	1	10	0.135111	1.58321	6.01545	-18.4769
 467	1	10	0.171751	-2.25003	4.71981	-16.9687
 468	1	9	-0.478239	-4.25823	3.91242	-18.954
 469	1	9	-0.481107	-1.61557	4.75535	-22.6365
 470	1	9	-0.49957	-0.351506	5.37249	-15.1878
 471	1	10	0.151248	-3.80651	2.19327	-22.6552
 472	1	10	0.146138	-5.83392	1.87453	-23.984
 473	1	1	0.044043	-7.97168	3.65368	-24.4345
 474	1	1	-0.215975	-9.23388	4.24655	-23.7637
 475	1	2	0.063789	-10.117	4.02105	-24.3406
 476	1	2	0.072206	-9.26316	5.35149	-23.6968
 477	1	2	0.045489	-9.35954	3.83246	-22.7492
 478	1	1	0.005306	-7.64706	4.30081	-25.814
 479	1	1	0.164932	-7.94894	3.33586	-26.9961
 480	1	2	0.005277	-6.59755	4.58958	-25.8343
 481	1	2	0.017604	-8.21961	5.2196	-25.9953
 482	1	7	0.008363	-8.11359	2.00705	-26.2313
 483	1	1	-0.151488	-6.80772	3.29679	-28.0523
 484	1	1	-0.269275	-9.23851	3.69259	-27.7714
 485	1	7	0.096378	-8.20686	2.219	-24.8805
 486	1	2	0.063418	-10.1258	3.5386	-27.1154
 487	1	2	0.061085	-9.32612	3.06993	-28.6593
 488	1	2	0.065045	-9.23956	4.77808	-28.1214
 489	1	7	-0.142025	-8.34	0.741301	-26.7695
 490	1	7	-0.448546	-8.46264	1.13299	-23.9908
 491	1	7	0.277842	-8.79428	-0.147958	-24.4833
 492	1	7	-0.409063	-8.67927	-0.343876	-25.8951
 493	1	10	0.203923	-8.41115	1.32746	-22.902
 494	1	2	0.016419	-6.90118	2.47314	-28.772
 495	1	2	0.049665	-5.84927	3.20277	-27.5541
 496	1	2	0.035794	-6.80191	4.25698	-28.6089
 497	1	10	0.161583	-8.2618	0.615616	-27.8405
 498	1	10	0.199011	-8.97785	-1.30273	-26.3373
 499	1	1	0.070548	9.00067	6.43824	-15.3978
 500	1	1	0.506757	7.89489	5.54324	-16.0036
 501	1	2	-0.012767	8.78309	7.44364	-15.815
 502	1	2	-0.014806	8.86567	6.52987	-14.3369
 503	1	3	-0.274996	8.02003	4.35305	-15.4247
 504	1	3	-0.274736	8.10576	5.47663	-17.3293
 505	1	1	0.070548	10.9018	4.53699	-15.4567
 506	1	1	0.506757	10.5103	6.05635	-15.6332
 507	1	2	-0.012767	10.6835	4.2282	-14.4399
 508	1	2	-0.014806	10.2849	3.96973	-16.117
 509	1	3	-0.274996	11.1796	6.82793	-14.7633
 510	1	3	-0.274736	11.0141	6.47697	-16.8288
 511	1	1	0.070548	12.9264	4.05293	-17.1745
 512	1	1	0.506757	12.4268	4.17813	-15.6981
 513	1	2	-0.012767	12.5933	3.05242	-17.5229
 514	1	2	-0.014806	12.4504	4.73716	-17.8771
 515	1	3	-0.274996	12.7085	2.97236	-15.1711
 516	1	3	-0.274736	13.2456	5.08094	-14.9786
 517	1	5	0.463181	22.0342	10.2848	-7.48764
 518	1	6	0.074399	22.7984	9.95043	-8.64352
 519	1	7	0.034296	23.0217	11.2195	-9.35077
 520	1	6	0.051625	21.8392	11.7118	-7.29643
 521	1	7	0.019035	22.4643	12.2373	-8.55713
 522	1	9	-0.389616	23.1334	8.80621	-8.95353
 523	1	9	-0.380104	21.3068	12.3572	-6.38525
 524	1	7	-0.045097	23.6971	11.3684	-10.5579
 525	1	7	-0.056032	22.3429	13.5065	-9.12846
 526	1	7	-0.174781	22.8868	13.6916	-10.419
 527	1	7	-0.129342	23.4767	12.664	-11.1809
 528	1	10	0.168842	24.0311	10.5179	-11.141
 529	1	10	0.15893	21.8855	14.3134	-8.5288
 530	1	10	0.147704	22.7235	14.6202	-10.9377
 531	1	6	0.584577	23.8498	12.9982	-12.5565
 532	1	7	-0.046755	22.8159	12.7824	-13.6666
 533	1	7	-0.110868	21.9693	11.6383	-13.5633
 534	1	7	-0.046132	21.4278	11.277	-14.8067
 535	1	7	-0.135873	23.0558	13.504	-14.8994
 536	1	7	-0.117662	22.3148	13.166	-16.0155
 537	1	7	-0.064457	21.4516	12.0413	-15.9057
 538	1	6	0.492569	20.7526	11.3383	-17.0621
 539	1	5	-0.072087	20.3417	10.1484	-16.5022
 540	1	6	0.477555	20.6787	10.1064	-15.1417
 541	1	7	0.042617	19.5025	9.18614	-17.0347
 542	1	7	-0.20367	18.3183	8.62918	-16.4852
 543	1	7	-0.057018	17.6724	7.60953	-17.0784
 544	1	7	-0.18182	19.9196	8.7165	-18.2788
 545	1	7	-0.14326	19.1757	7.78105	-18.9831
 546	1	7	0.043342	18.0891	7.13702	-18.3607
 547	1	10	0.163244	17.914	8.94803	-15.5058
 548	1	10	0.101178	16.8902	7.05436	-16.5578
 549	1	10	0.165346	22.4246	13.7353	-16.9706
 550	1	10	0.135111	23.827	14.2612	-14.8888
 551	1	10	0.171751	21.979	10.9805	-12.7235
 552	1	9	-0.478239	20.2476	9.38317	-14.2411
 553	1	9	-0.481107	20.6087	11.7103	-18.1964
 554	1	9	-0.49957	24.9345	13.5363	-12.8075
 555	1	10	0.151248	20.8322	9.04151	-18.6836
 556	1	10	0.146138	19.4998	7.61183	-19.9879
 557	1	1	0.044043	17.3106	6.09337	-19.1364
 558	1	1	-0.215975	16.4267	6.9117	-20.1088
 559	1	2	0.063789	15.9097	7.68552	-19.6245
 560	1	2	0.072206	15.7301	6.17054	-20.6507
 561	1	2	0.045489	16.9583	7.34033	-20.9551
 562	1	1	0.005306	18.3784	5.04752	-19.7217
 563	1	1	0.164932	18.4373	3.83914	-18.7248
 564	1	2	0.005277	19.3847	5.34602	-19.9727
 565	1	2	0.017604	17.8771	4.71468	-20.6639
 566	1	7	0.008363	17.0371	3.81732	-18.1073
 567	1	1	-0.151488	19.4684	3.97814	-17.5211
 568	1	1	-0.269275	18.7483	2.51196	-19.4093
 569	1	7	0.096378	16.4606	5.09774	-18.3581
 570	1	2	0.063418	19.7081	2.49626	-20.0362
 571	1	2	0.061085	17.8458	2.23303	-19.9782
 572	1	2	0.065045	18.8136	1.73995	-18.6393
 573	1	7	-0.142025	16.4583	2.85625	-17.2292
 574	1	7	-0.448546	15.1057	5.1846	-18.0486
 575	1	7	0.277842	14.4457	4.10298	-17.3374
 576	1	7	-0.409063	15.1646	3.04778	-16.7619
 577	1	10	0.203923	14.5408	6.0507	-18.3388
 578	1	2	0.016419	19.397	3.03544	-16.873
 579	1	2	0.049665	19.3765	4.9674	-16.9662
 580	1	2	0.035794	20.4739	3.9527	-17.938
 581	1	10	0.161583	17.0601	1.97862	-16.9918
 582	1	10	0.199011	14.7361	2.31659	-16.0876
 583	1	5	0.463181	13.7004	13.6056	-21.2368
 584	1	6	0.074399	13.7796	14.2184	-20.0172
 585	1	7	0.034296	14.0263	13.088	-19.0951
 586	1	6	0.051625	13.6924	12.2331	-21.2633
 587	1	7	0.019035	13.9154	11.9314	-19.7668
 588	1	9	-0.389616	13.5163	15.3438	-19.6699
 589	1	9	-0.380104	13.4568	11.4465	-22.1128
 590	1	7	-0.045097	14.6577	13.2064	-17.8349
 591	1	7	-0.056032	14.4231	10.7542	-19.1165
 592	1	7	-0.174781	14.8244	10.8439	-17.7152
 593	1	7	-0.129342	15.0061	12.0779	-17.1178
 594	1	10	0.168842	14.7867	14.1131	-17.2605
 595	1	10	0.15893	14.4613	9.78154	-19.5855
 596	1	10	0.147704	15.3194	9.94046	-17.2715
 597	1	6	0.584577	15.5636	12.1728	-15.7743
 598	1	7	-0.046755	15.5721	10.9994	-14.7766
 599	1	7	-0.110868	16.5317	10.9578	-13.7444
 600	1	7	-0.046132	16.37	10.1355	-12.6405
 601	1	7	-0.135873	14.47	10.103	-14.7017
 602	1	7	-0.117662	14.3962	9.07094	-13.717
 603	1	7	-0.064457	15.3218	9.19992	-12.6747
 604	1	6	0.492569	15.3811	8.45839	-11.4117
 605	1	5	-0.072087	16.5657	8.83518	-10.7698
 606	1	6	0.477555	17.2036	9.94015	-11.405
 607	1	7	0.042617	16.8669	8.60157	-9.42746
 608	1	7	-0.20367	16.4714	9.49802	-8.46522
 609	1	7	-0.057018	16.6707	9.19454	-7.1115
 610	1	7	-0.18182	17.6637	7.53976	-9.09931
 611	1	7	-0.14326	17.9496	7.28801	-7.73848
 612	1	7	0.043342	17.3914	8.05229	-6.75436
 613	1	10	0.163244	15.6492	10.2294	-8.68956
 614	1	10	0.101178	16.2124	9.91042	-6.36187
 615	1	10	0.165346	13.5074	8.40387	-13.688
 616	1	10	0.135111	13.6077	10.0856	-15.3891
 617	1	10	0.171751	17.2572	11.787	-13.7561
 618	1	9	-0.478239	18.1405	10.5614	-11.0771
 619	1	9	-0.481107	14.454	7.85036	-10.9883
 620	1	9	-0.49957	15.9653	13.2573	-15.4396
 621	1	10	0.151248	18.2525	7.03558	-9.79018
 622	1	10	0.146138	18.6203	6.52177	-7.4277
 623	1	1	0.044043	17.9092	7.89099	-5.3422
 624	1	1	-0.215975	17.3085	8.846	-4.28607
 625	1	2	0.063789	16.2548	8.85507	-4.27489