pySIMM System Object

2040 atoms
2242 bonds
3987 angles
6353 dihedrals
609 impropers

10 atom types
13 bond types
25 angle types
12 dihedral types
4 improper types

-87.277556 87.277556 xlo xhi
-87.277556 87.277556 ylo yhi
-87.277556 87.277556 zlo zhi

Masses

   1	12.01	# c3
   2	1.008	# hc
   3	19.0	# f
   4	1.008	# h2
   5	14.01	# n
   6	12.01	# c
   7	12.01	# ca
   8	1.008	# hn
   9	16.0	# o
  10	1.008	# ha

Pair Coeffs

   1	0.1094	3.3996695084235347	# c3
   2	0.0157	2.649532787749369	# hc
   3	0.061	3.1181455134911875	# f
   4	0.0157	2.2931733004932333	# h2
   5	0.17	3.249998523775958	# n
   6	0.086	3.3996695084235347	# c
   7	0.086	3.3996695084235347	# ca
   8	0.0157	1.069078461768407	# hn
   9	0.21	2.959921901149463	# o
  10	0.015	2.59964245953351	# ha

Bond Coeffs

   1	331.7	1.0961	# c3,h2
   2	330.6	1.0969	# c3,hc
   3	300.9	1.5375	# c3,c3
   4	356.9	1.3497	# c3,f
   5	637.7	1.2183	# c,o
   6	321.0	1.5156	# c3,ca
   7	384.2	1.4121	# ca,n
   8	403.2	1.0129	# hn,n
   9	427.6	1.3789	# c,n
  10	461.1	1.3984	# ca,ca
  11	345.9	1.4906	# c,ca
  12	345.8	1.086	# ca,ha
  13	328.7	1.4619	# c3,n

Angle Coeffs

   1	46.34	109.8	# c3,c3,hc
   2	70.89	107.36	# f,c3,f
   3	39.4	107.58	# hc,c3,hc
   4	66.11	109.24	# c3,c3,f
   5	46.25	110.22	# c3,c3,h2
   6	51.15	108.79	# f,c3,h2
   7	62.86	111.51	# c3,c3,c3
   8	64.28	120.33	# c,ca,ca
   9	63.53	120.77	# c3,ca,ca
  10	66.62	120.02	# ca,ca,ca
  11	74.22	123.05	# n,c,o
  12	63.74	127.08	# c,n,c
  13	63.15	112.07	# c3,c3,ca
  14	48.18	119.88	# ca,ca,ha
  15	67.87	120.19	# ca,ca,n
  16	68.72	122.6	# ca,c,o
  17	63.0	118.11	# ca,c,ca
  18	63.82	123.71	# c,n,ca
  19	67.68	115.25	# ca,c,n
  20	63.56	112.24	# ca,c3,ca
  21	48.33	117.55	# c,n,hn
  22	46.8	110.47	# ca,c3,hc
  23	63.39	120.69	# c,n,c3
  24	65.91	111.61	# c3,c3,n
  25	69.52	110.41	# f,c3,n

Dihedral Coeffs

   1	2	0.0	3	0	0.19	1	0	# hc,c3,c3,f
   2	1	0.15555555555555556	3	0	# X,c3,c3,X
   3	1	0.16	3	0	# hc,c3,c3,c3
   4	3	0.18	3	0	0.25	2	180	0.2	1	180	# c3,c3,c3,c3
   5	2	2.5	2	180	2.0	1	0	# hn,n,c,o
   6	1	3.625	2	180	# X,ca,ca,X
   7	1	1.0	2	180	# X,c,ca,X
   8	1	0.0	2	0	# X,c3,ca,X
   9	1	2.5	2	180	# X,c,n,X
  10	1	0.45	2	180	# X,ca,n,X
  11	4	0.5	4	180	0.15	3	180	0.0	2	0	0.53	1	0	# c3,c3,n,c
  12	1	0.0	2	0	# X,c3,n,X

Improper Coeffs

   1	10.5	-1	2	# c,X,X,o
   2	1.1	-1	2	# ca,X,X,ha
   3	1.1	-1	2	# ca,ca,ca,c3
   4	1.1	-1	2	# n,X,X,hn

Atoms

   1	1	1	0.070548	-44.1078	-6.22579	-85.8045
   2	1	1	0.506757	-43.0937	-6.0127	-84.6444
   3	1	2	-0.012767	-43.9197	-7.15318	-86.3471
   4	1	2	-0.014806	-45.1372	-6.27914	-85.4198
   5	1	3	-0.274996	-42.2119	-7.02806	-84.4826
   6	1	3	-0.274736	-43.7468	-5.79543	-83.4871
   7	1	1	0.070548	-45.0769	-5.05534	86.6426
   8	1	1	0.506757	-44.0059	-5.0402	-86.7744
   9	1	2	-0.012767	-44.9365	-5.91905	85.9772
  10	1	2	-0.014806	-46.0657	-5.21579	87.097
  11	1	3	-0.274996	-42.7611	-5.06148	-87.2952
  12	1	3	-0.274736	-44.1177	-3.9047	-86.0451
  13	1	5	0.463181	-40.7574	-11.4318	68.9116
  14	1	6	0.074399	-40.2706	-10.2592	69.4864
  15	1	7	0.034296	-41.2537	-9.89265	70.5277
  16	1	6	0.051625	-41.98	-11.8621	69.4687
  17	1	7	0.019035	-42.2711	-10.8307	70.5274
  18	1	9	-0.389616	-39.3767	-9.53079	69.0936
  19	1	9	-0.380104	-42.7743	-12.7052	69.0567
  20	1	7	-0.045097	-41.3281	-8.72542	71.3083
  21	1	7	-0.056032	-43.378	-10.6767	71.3798
  22	1	7	-0.174781	-43.4519	-9.53186	72.2093
  23	1	7	-0.129342	-42.4324	-8.53389	72.1757
  24	1	10	0.168842	-40.5426	-7.97639	71.2359
  25	1	10	0.15893	-44.1714	-11.4199	71.3785
  26	1	10	0.147704	-44.3388	-9.40416	72.8283
  27	1	6	0.584577	-42.4713	-7.23788	72.9563
  28	1	7	-0.046755	-42.9817	-7.17147	74.3883
  29	1	7	-0.110868	-43.1906	-5.88973	74.9584
  30	1	7	-0.046132	-43.3583	-5.81017	76.3517
  31	1	7	-0.135873	-43.1167	-8.32885	75.2085
  32	1	7	-0.117662	-43.328	-8.23918	76.6005
  33	1	7	-0.064457	-43.4127	-6.95031	77.1435
  34	1	6	0.492569	-43.4878	-6.5175	78.5578
  35	1	5	-0.072087	-43.404	-5.13511	78.5406
  36	1	6	0.477555	-43.3255	-4.62848	77.2651
  37	1	7	0.042617	-43.2778	-4.33543	79.7008
  38	1	7	-0.20367	-42.0174	-3.97708	80.2013
  39	1	7	-0.057018	-41.8889	-3.17952	81.3517
  40	1	7	-0.18182	-44.4143	-3.9672	80.4325
  41	1	7	-0.14326	-44.2839	-3.15875	81.5828
  42	1	7	0.043342	-43.0299	-2.71461	82.0405
  43	1	10	0.163244	-41.1154	-4.2898	79.6858
  44	1	10	0.101178	-40.8919	-2.89235	81.6567
  45	1	10	0.165346	-43.3413	-9.12193	77.2356
  46	1	10	0.135111	-42.9323	-9.30969	74.7807
  47	1	10	0.171751	-43.0786	-4.98241	74.3642
  48	1	9	-0.478239	-43.224	-3.46305	76.9516
  49	1	9	-0.481107	-43.6038	-7.25094	79.5212
  50	1	9	-0.49957	-41.9285	-6.26448	72.4475
  51	1	10	0.151248	-45.406	-4.26591	80.109
  52	1	10	0.146138	-45.1775	-2.80915	82.0918
  53	1	1	0.044043	-42.9629	-1.74592	83.2595
  54	1	1	-0.215975	-41.5223	-1.67837	83.859
  55	1	2	0.063789	-40.7948	-1.30142	83.1292
  56	1	2	0.072206	-41.1939	-2.67442	84.1751
  57	1	2	0.045489	-41.4852	-1.01627	84.7352
  58	1	1	0.005306	-43.5346	-0.335333	82.8862
  59	1	1	0.164932	-44.5118	0.132259	84.0161
  60	1	2	0.005277	-44.0738	-0.411442	81.9363
  61	1	2	0.017604	-42.7361	0.381643	82.7192
  62	1	7	0.008363	-44.8373	-1.17847	84.7097
  63	1	1	-0.151488	-45.7579	0.830708	83.4055
  64	1	1	-0.269275	-43.8127	1.1326	84.9806
  65	1	7	0.096378	-43.9391	-2.17765	84.345
  66	1	2	0.063418	-44.5473	1.57156	85.6644
  67	1	2	0.061085	-43.3507	1.96022	84.4281
  68	1	2	0.065045	-43.0359	0.644431	85.5912
  69	1	7	-0.142025	-45.8553	-1.45277	85.6424
  70	1	7	-0.448546	-44.0687	-3.48537	84.8566
  71	1	7	0.277842	-45.0524	-3.74943	85.8438
  72	1	7	-0.409063	-45.9481	-2.72747	86.2333
  73	1	10	0.203923	-43.3644	-4.25521	84.5508
  74	1	2	0.016419	-46.4681	1.12639	84.1863
  75	1	2	0.049665	-46.2784	0.16324	82.7166
  76	1	2	0.035794	-45.4821	1.73302	82.8476
  77	1	10	0.161583	-46.5153	-0.655273	85.9651
  78	1	10	0.199011	-46.6975	-2.91702	86.998
  79	1	1	0.070548	-40.1593	-13.5512	67.6007
  80	1	1	0.506757	-40.1083	-11.9905	67.6921
  81	1	2	-0.012767	-40.0973	-13.9646	68.6185
  82	1	2	-0.014806	-41.1538	-13.831	67.2461
  83	1	3	-0.274996	-40.7044	-11.4961	66.5871
  84	1	3	-0.274736	-38.8134	-11.6181	67.5582
  85	1	5	0.463181	-36.0636	-17.0292	46.7357
  86	1	6	0.074399	-36.8495	-16.0271	47.2971
  87	1	7	0.034296	-36.8037	-16.228	48.7522
  88	1	6	0.051625	-35.4379	-17.7866	47.7193
  89	1	7	0.019035	-35.9196	-17.2465	49.0324
  90	1	9	-0.389616	-37.5189	-15.1966	46.7171
  91	1	9	-0.380104	-34.7411	-18.7625	47.5432
  92	1	7	-0.045097	-37.5438	-15.5644	49.7262
  93	1	7	-0.056032	-35.7159	-17.6821	50.3497
  94	1	7	-0.174781	-36.4915	-17.0648	51.3606
  95	1	7	-0.129342	-37.3831	-15.9812	51.0728
  96	1	10	0.168842	-38.221	-14.7574	49.4388
  97	1	10	0.15893	-35.0494	-18.5145	50.5675
  98	1	10	0.147704	-36.4249	-17.4646	52.3714
  99	1	6	0.584577	-38.1629	-15.2939	52.1796
 100	1	7	-0.046755	-37.6153	-15.3371	53.5894
 101	1	7	-0.110868	-38.5454	-15.2294	54.632
 102	1	7	-0.046132	-38.1075	-15.2933	55.9539
 103	1	7	-0.135873	-36.2325	-15.4931	53.9095
 104	1	7	-0.117662	-35.8014	-15.6071	55.252
 105	1	7	-0.064457	-36.7767	-15.4884	56.2574
 106	1	6	0.492569	-36.6684	-15.5248	57.739
 107	1	5	-0.072087	-37.9509	-15.3549	58.2368
 108	1	6	0.477555	-38.8825	-15.2092	57.211
 109	1	7	0.042617	-38.2746	-15.6477	59.5881
 110	1	7	-0.20367	-38.0219	-14.7601	60.6469
 111	1	7	-0.057018	-38.3399	-15.1356	61.9562
 112	1	7	-0.18182	-38.6967	-16.9558	59.8726
 113	1	7	-0.14326	-38.9166	-17.3562	61.1951
 114	1	7	0.043342	-38.7471	-16.4444	62.2689
 115	1	10	0.163244	-37.6483	-13.7553	60.4573
 116	1	10	0.101178	-38.2414	-14.3959	62.7397
 117	1	10	0.165346	-34.7518	-15.7454	55.5124
 118	1	10	0.135111	-35.4867	-15.5201	53.1202
 119	1	10	0.171751	-39.6008	-15.0684	54.4168
 120	1	9	-0.478239	-40.0977	-15.1754	57.2747
 121	1	9	-0.481107	-35.6467	-15.7145	58.3681
 122	1	9	-0.49957	-39.2496	-14.7776	51.9562
 123	1	10	0.151248	-38.8666	-17.6629	59.0643
 124	1	10	0.146138	-39.2631	-18.3645	61.3803
 125	1	1	0.044043	-39.099	-16.84	63.7252
 126	1	1	-0.215975	-40.6147	-17.1015	63.7371
 127	1	2	0.063789	-41.1493	-16.2091	63.3914
 128	1	2	0.072206	-40.9779	-17.3251	64.7497
 129	1	2	0.045489	-40.9044	-17.9383	63.0863
 130	1	1	0.005306	-38.2827	-18.1027	64.1558
 131	1	1	0.164932	-37.0242	-17.6329	64.9452
 132	1	2	0.005277	-38.0334	-18.7578	63.3143
 133	1	2	0.017604	-38.9168	-18.7006	64.8237
 134	1	7	0.008363	-37.5636	-16.3306	65.5387
 135	1	1	-0.151488	-35.8461	-17.3337	64.0067
 136	1	1	-0.269275	-36.5965	-18.7266	65.9764
 137	1	7	0.096378	-38.7023	-15.8762	64.871
 138	1	2	0.063418	-35.6857	-18.4291	66.5096
 139	1	2	0.061085	-36.3883	-19.6789	65.466
 140	1	2	0.065045	-37.3882	-18.9135	66.7147
 141	1	7	-0.142025	-37.1218	-15.6938	66.7092
 142	1	7	-0.448546	-39.4827	-14.8445	65.4607
 143	1	7	0.277842	-39.1313	-14.2998	66.7185
 144	1	7	-0.409063	-37.9205	-14.6951	67.3029
 145	1	10	0.203923	-40.4376	-14.5823	65.0175
 146	1	2	0.016419	-34.9996	-16.9356	64.5802
 147	1	2	0.049665	-36.1086	-16.5913	63.2459
 148	1	2	0.035794	-35.4995	-18.2459	63.5075
 149	1	10	0.161583	-36.2563	-16.0834	67.2432
 150	1	10	0.199011	-37.6717	-14.3159	68.2888
 151	1	1	0.070548	-37.5493	-17.7118	44.8671
 152	1	1	0.506757	-36.0997	-17.3082	45.2705
 153	1	2	-0.012767	-38.202	-16.8366	44.9581
 154	1	2	-0.014806	-37.9427	-18.4472	45.5864
 155	1	3	-0.274996	-35.7317	-16.1787	44.6225
 156	1	3	-0.274736	-35.251	-18.255	44.7678
 157	1	1	0.070548	-37.2389	-17.3499	42.2791
 158	1	1	0.506757	-37.7386	-18.2785	43.4369
 159	1	2	-0.012767	-37.6523	-16.3463	42.4403
 160	1	2	-0.014806	-36.1464	-17.2463	42.3404
 161	1	3	-0.274996	-39.0842	-18.489	43.3775
 162	1	3	-0.274736	-37.086	-19.4518	43.3024
 163	1	1	0.070548	-37.2177	-16.6811	39.783
 164	1	1	0.506757	-37.5739	-17.7723	40.8213
 165	1	2	-0.012767	-37.178	-15.6991	40.2695
 166	1	2	-0.014806	-38.0157	-16.5859	39.035
 167	1	3	-0.274996	-37.0084	-18.953	40.4313
 168	1	3	-0.274736	-38.903	-17.9319	40.7067
 169	1	5	0.463181	-33.0978	-5.75872	25.6689
 170	1	6	0.074399	-34.4141	-6.21829	25.7432
 171	1	7	0.034296	-34.2929	-7.64555	26.1547
 172	1	6	0.051625	-32.1685	-6.76577	25.8768
 173	1	7	0.019035	-32.9519	-7.97187	26.2145
 174	1	9	-0.389616	-35.4332	-5.63425	25.417
 175	1	9	-0.380104	-30.957	-6.66997	25.8619
 176	1	7	-0.045097	-35.2775	-8.62393	26.3416
 177	1	7	-0.056032	-32.5206	-9.25659	26.5602
 178	1	7	-0.174781	-33.5006	-10.2509	26.7787
 179	1	7	-0.129342	-34.8766	-9.9436	26.6514
 180	1	10	0.168842	-36.3257	-8.37882	26.1806
 181	1	10	0.15893	-31.4575	-9.47907	26.5792
 182	1	10	0.147704	-33.1754	-11.2773	26.9275
 183	1	6	0.584577	-35.9259	-11.0179	26.5789
 184	1	7	-0.046755	-36.2702	-11.8499	27.7798
 185	1	7	-0.110868	-35.2926	-12.599	28.4538
 186	1	7	-0.046132	-35.6515	-13.2652	29.6171
 187	1	7	-0.135873	-37.6123	-11.9125	28.2182
 188	1	7	-0.117662	-37.9711	-12.6028	29.3969
 189	1	7	-0.064457	-36.9424	-13.2362	30.0996
 190	1	6	0.492569	-36.9941	-14.1227	31.289
 191	1	5	-0.072087	-35.689	-14.5418	31.4849
 192	1	6	0.477555	-34.8284	-14.128	30.5007
 193	1	7	0.042617	-35.269	-15.3568	32.5428
 194	1	7	-0.20367	-35.5981	-15.0055	33.865
 195	1	7	-0.057018	-35.3006	-15.9044	34.8969
 196	1	7	-0.18182	-34.659	-16.5894	32.2517
 197	1	7	-0.14326	-34.4772	-17.5204	33.2743
 198	1	7	0.043342	-34.8094	-17.1891	34.6024
 199	1	10	0.163244	-36.0993	-14.0681	34.0949
 200	1	10	0.101178	-35.5518	-15.6182	35.9115
 201	1	10	0.165346	-39.004	-12.6735	29.731
 202	1	10	0.135111	-38.3775	-11.4157	27.6269
 203	1	10	0.171751	-34.272	-12.655	28.1027
 204	1	9	-0.478239	-33.641	-14.3781	30.3878
 205	1	9	-0.481107	-37.9477	-14.2711	32.0281
 206	1	9	-0.49957	-36.6372	-11.0808	25.5975
 207	1	10	0.151248	-34.4286	-16.8563	31.2238
 208	1	10	0.146138	-34.0838	-18.5057	33.0308
 209	1	1	0.044043	-34.5878	-18.2329	35.6888
 210	1	1	-0.215975	-35.5392	-19.4314	35.4024
 211	1	2	0.063789	-35.7325	-20.0177	36.3138
 212	1	2	0.072206	-35.1538	-20.1159	34.6316
 213	1	2	0.045489	-36.5114	-19.0556	35.0376
 214	1	1	0.005306	-33.0737	-18.6135	35.7251
 215	1	1	0.164932	-32.3835	-17.8158	36.871
 216	1	2	0.005277	-32.5743	-18.4781	34.7613
 217	1	2	0.017604	-32.9922	-19.6858	35.9441
 218	1	7	0.008363	-33.5398	-17.4303	37.7513
 219	1	1	-0.151488	-31.7712	-16.5535	36.255
 220	1	1	-0.269275	-31.3183	-18.6746	37.5923
 221	1	7	0.096378	-34.7477	-17.6998	37.1122
 222	1	2	0.063418	-30.6239	-19.0985	36.857
 223	1	2	0.061085	-31.8005	-19.4974	38.1383
 224	1	2	0.065045	-30.7301	-18.083	38.3053
 225	1	7	-0.142025	-33.4635	-16.9419	39.0664
 226	1	7	-0.448546	-35.9452	-17.5059	37.7995
 227	1	7	0.277842	-35.9017	-16.9596	39.0914
 228	1	7	-0.409063	-34.6745	-16.6732	39.7268
 229	1	10	0.203923	-36.8982	-17.7655	37.3415
 230	1	2	0.016419	-32.5371	-15.8594	35.8757
 231	1	2	0.049665	-31.1164	-16.8042	35.414
 232	1	2	0.035794	-31.1689	-16.0119	36.9893
 233	1	10	0.161583	-32.5053	-16.7577	39.5431
 234	1	10	0.199011	-34.6582	-16.249	40.7302
 235	1	5	0.463181	-43.0857	-3.91157	11.9827
 236	1	6	0.074399	-42.1356	-3.74422	13.0062
 237	1	7	0.034296	-41.154	-2.72846	12.5312
 238	1	6	0.051625	-42.7687	-3.07191	10.9085
 239	1	7	0.019035	-41.5209	-2.33178	11.2684
 240	1	9	-0.389616	-41.9381	-4.45309	13.9774
 241	1	9	-0.380104	-43.411	-2.83861	9.90431
 242	1	7	-0.045097	-40.0134	-2.24764	13.1819
 243	1	7	-0.056032	-40.7625	-1.37963	10.566
 244	1	7	-0.174781	-39.5768	-0.917804	11.1885
 245	1	7	-0.129342	-39.1857	-1.34084	12.4913
 246	1	10	0.168842	-39.77	-2.62623	14.1715
 247	1	10	0.15893	-41.0295	-1.08059	9.55429
 248	1	10	0.147704	-38.9154	-0.250982	10.6353
 249	1	6	0.584577	-37.8371	-0.945624	13.0449
 250	1	7	-0.046755	-37.5952	-0.975029	14.5238
 251	1	7	-0.110868	-36.3446	-1.39357	15.0119
 252	1	7	-0.046132	-36.1427	-1.41036	16.3825
 253	1	7	-0.135873	-38.581	-0.512027	15.4169
 254	1	7	-0.117662	-38.3948	-0.598336	16.804
 255	1	7	-0.064457	-37.1453	-1.04674	17.2572
 256	1	6	0.492569	-36.5845	-1.15458	18.6307
 257	1	5	-0.072087	-35.2817	-1.61533	18.4828
 258	1	6	0.477555	-34.9345	-1.80732	17.1509
 259	1	7	0.042617	-34.3321	-1.67494	19.5458
 260	1	7	-0.20367	-33.0693	-1.07402	19.3863
 261	1	7	-0.057018	-32.0828	-1.19125	20.3922
 262	1	7	-0.18182	-34.6317	-2.33339	20.7509
 263	1	7	-0.14326	-33.6397	-2.48151	21.7475
 264	1	7	0.043342	-32.3422	-1.90634	21.5903
 265	1	10	0.163244	-32.846	-0.536085	18.4659
 266	1	10	0.101178	-31.0965	-0.763603	20.2193
 267	1	10	0.165346	-39.1691	-0.300789	17.506
 268	1	10	0.135111	-39.5181	-0.124031	15.0315
 269	1	10	0.171751	-35.541	-1.69976	14.34
 270	1	9	-0.478239	-33.8522	-2.18575	16.7105
 271	1	9	-0.481107	-37.1196	-0.750142	19.6445
 272	1	9	-0.49957	-36.8979	-0.760137	12.2866
 273	1	10	0.151248	-35.6123	-2.78226	20.8883
 274	1	10	0.146138	-33.8948	-3.05029	22.6364
 275	1	1	0.044043	-31.2111	-2.09826	22.6621
 276	1	1	-0.215975	-30.04	-2.9385	22.0799
 277	1	2	0.063789	-29.3015	-3.17507	22.8566
 278	1	2	0.072206	-29.5205	-2.41912	21.264
 279	1	2	0.045489	-30.4117	-3.89108	21.6855
 280	1	1	0.005306	-30.6563	-0.750496	23.2166
 281	1	1	0.164932	-31.4455	-0.377767	24.5059
 282	1	2	0.005277	-30.6553	0.0542266	22.4701
 283	1	2	0.017604	-29.6071	-0.90519	23.4971
 284	1	7	0.008363	-31.9062	-1.74053	24.9514
 285	1	1	-0.151488	-32.5952	0.593444	24.1294
 286	1	1	-0.269275	-30.5347	0.234258	25.5988
 287	1	7	0.096378	-31.7287	-2.70411	23.9596
 288	1	2	0.063418	-30.0613	1.1542	25.2302
 289	1	2	0.061085	-29.7496	-0.473854	25.9036
 290	1	2	0.065045	-31.1148	0.492816	26.4935
 291	1	7	-0.142025	-32.4438	-2.08677	26.2017
 292	1	7	-0.448546	-32.093	-4.04541	24.1721
 293	1	7	0.277842	-32.6864	-4.41132	25.3999
 294	1	7	-0.409063	-32.8569	-3.41916	26.3979
 295	1	10	0.203923	-31.9609	-4.77853	23.381
 296	1	2	0.016419	-33.1722	0.88077	25.0153
 297	1	2	0.049665	-33.2848	0.145199	23.4016
 298	1	2	0.035794	-32.1923	1.51061	23.6817
 299	1	10	0.161583	-32.5935	-1.33571	26.9751
 300	1	10	0.199011	-33.317	-3.69317	27.3446
 301	1	1	0.070548	-43.5874	-6.33304	11.8382
 302	1	1	0.506757	-44.1806	-4.91735	11.9797
 303	1	2	-0.012767	-42.7929	-6.48192	12.5812
 304	1	2	-0.014806	-43.0978	-6.42691	10.8577
 305	1	3	-0.274996	-45.0152	-4.78502	13.0471
 306	1	3	-0.274736	-45.0212	-4.72788	10.9351
 307	1	5	0.463181	-41.157	-11.8092	-1.51088
 308	1	6	0.074399	-42.2143	-11.7692	-0.605754
 309	1	7	0.034296	-42.6117	-13.1943	-0.436606
 310	1	6	0.051625	-40.8929	-13.1143	-1.96647
 311	1	7	0.019035	-41.8339	-14.0062	-1.2281
 312	1	9	-0.389616	-42.7268	-10.7976	-0.065935
 313	1	9	-0.380104	-40.194	-13.4409	-2.91171
 314	1	7	-0.045097	-43.7014	-13.7112	0.249695
 315	1	7	-0.056032	-42.109	-15.38	-1.3538
 316	1	7	-0.174781	-43.2104	-15.9171	-0.646935
 317	1	7	-0.129342	-44.0178	-15.0859	0.177392
 318	1	10	0.168842	-44.3295	-13.0118	0.794293
 319	1	10	0.15893	-41.5132	-15.9888	-2.03098
 320	1	10	0.147704	-43.4653	-16.9681	-0.778556
 321	1	6	0.584577	-45.2678	-15.6405	0.840683
 322	1	7	-0.046755	-46.0383	-14.9103	1.90799
 323	1	7	-0.110868	-45.4079	-14.1151	2.88322
 324	1	7	-0.046132	-46.229	-13.4285	3.78508
 325	1	7	-0.135873	-47.4589	-14.9832	1.87419
 326	1	7	-0.117662	-48.2677	-14.2654	2.76616
 327	1	7	-0.064457	-47.6052	-13.5371	3.76307
 328	1	6	0.492569	-48.1103	-12.7364	4.90474
 329	1	5	-0.072087	-47.0062	-12.1127	5.48206
 330	1	6	0.477555	-45.8301	-12.5056	4.86971
 331	1	7	0.042617	-47.0475	-11.1943	6.57232
 332	1	7	-0.20367	-46.0965	-11.2231	7.61369
 333	1	7	-0.057018	-46.2856	-10.4451	8.77319
 334	1	7	-0.18182	-48.1269	-10.3063	6.66723
 335	1	7	-0.14326	-48.3233	-9.5314	7.81359
 336	1	7	0.043342	-47.4342	-9.62154	8.90983
 337	1	10	0.163244	-45.2557	-11.9127	7.56299
 338	1	10	0.101178	-45.5653	-10.5357	9.58142
 339	1	10	0.165346	-49.3527	-14.3292	2.71834
 340	1	10	0.135111	-47.9486	-15.5844	1.11136
 341	1	10	0.171751	-44.3248	-14.0166	2.93891
 342	1	9	-0.478239	-44.6953	-12.0942	5.04556
 343	1	9	-0.481107	-49.2751	-12.6584	5.22587
 344	1	9	-0.49957	-45.7553	-16.66	0.39442
 345	1	10	0.151248	-48.8679	-10.245	5.87391
 346	1	10	0.146138	-49.2127	-8.91246	7.86313
 347	1	1	0.044043	-47.7764	-8.86397	10.2147
 348	1	1	-0.215975	-48.4311	-7.4806	9.93991
 349	1	2	0.063789	-49.436	-7.55571	9.50598
 350	1	2	0.072206	-47.8106	-6.87613	9.26728
 351	1	2	0.045489	-48.5281	-6.91017	10.8729
 352	1	1	0.005306	-48.6983	-9.74461	11.1215
 353	1	1	0.164932	-47.8802	-10.2707	12.3269
 354	1	2	0.005277	-49.1089	-10.5928	10.5599
 355	1	2	0.017604	-49.5575	-9.1566	11.4753
 356	1	7	0.008363	-46.7037	-9.30832	12.3399
 357	1	1	-0.151488	-47.3553	-11.7229	12.1449
 358	1	1	-0.269275	-48.8223	-10.2624	13.564
 359	1	7	0.096378	-46.584	-8.62271	11.1335
 360	1	2	0.063418	-48.3195	-10.6422	14.4578
 361	1	2	0.061085	-49.6959	-10.901	13.3872
 362	1	2	0.065045	-49.1754	-9.24659	13.7855
 363	1	7	-0.142025	-45.8253	-9.0404	13.403
 364	1	7	-0.448546	-45.5481	-7.68628	10.9304
 365	1	7	0.277842	-44.6589	-7.40263	11.9905
 366	1	7	-0.409063	-44.8153	-8.07104	13.2212
 367	1	10	0.203923	-45.5028	-7.11502	10.0082
 368	1	2	0.016419	-46.7019	-11.812	11.2691
 369	1	2	0.049665	-48.1797	-12.4355	12.0197
 370	1	2	0.035794	-46.7804	-12.0343	13.0252
 371	1	10	0.161583	-45.9533	-9.54631	14.3577
 372	1	10	0.199011	-44.1569	-7.82533	14.052
 373	1	5	0.463181	-47.9133	5.68824	4.29376
 374	1	6	0.074399	-48.4519	4.40117	4.42932
 375	1	7	0.034296	-47.9878	3.63444	3.25812
 376	1	6	0.051625	-47.1235	5.79298	3.15158
 377	1	7	0.019035	-47.1994	4.47276	2.49161
 378	1	9	-0.389616	-49.1413	3.9352	5.31857
 379	1	9	-0.380104	-46.407	6.70345	2.78154
 380	1	7	-0.045097	-48.2645	2.31658	2.86585
 381	1	7	-0.056032	-46.6194	4.0467	1.29752
 382	1	7	-0.174781	-46.7951	2.71025	0.912607
 383	1	7	-0.129342	-47.6454	1.87305	1.67673
 384	1	10	0.168842	-48.9299	1.67778	3.4472
 385	1	10	0.15893	-46.0041	4.72945	0.718588
 386	1	10	0.147704	-46.2955	2.32419	0.0199077
 387	1	6	0.584577	-47.8004	0.451483	1.26118
 388	1	7	-0.046755	-46.5066	-0.288916	1.08545
 389	1	7	-0.110868	-46.3635	-1.16865	-0.0121481
 390	1	7	-0.046132	-45.1283	-1.78426	-0.18825
 391	1	7	-0.135873	-45.4332	-0.065397	1.99529
 392	1	7	-0.117662	-44.2175	-0.746505	1.83237
 393	1	7	-0.064457	-44.1021	-1.59307	0.718563
 394	1	6	0.492569	-42.9953	-2.50383	0.353126
 395	1	5	-0.072087	-43.3925	-3.1127	-0.826127
 396	1	6	0.477555	-44.6415	-2.68865	-1.25209
 397	1	7	0.042617	-42.6134	-4.07662	-1.51072
 398	1	7	-0.20367	-42.122	-5.20496	-0.82369
 399	1	7	-0.057018	-41.5263	-6.26534	-1.53748
 400	1	7	-0.18182	-42.3422	-3.92527	-2.87905
 401	1	7	-0.14326	-41.6428	-4.93161	-3.559
 402	1	7	0.043342	-41.3181	-6.15237	-2.93326
 403	1	10	0.163244	-42.2659	-5.30018	0.248511
 404	1	10	0.101178	-41.2448	-7.16945	-1.00297
 405	1	10	0.165346	-43.411	-0.651554	2.56241
 406	1	10	0.135111	-45.5492	0.617248	2.83923
 407	1	10	0.171751	-47.1798	-1.33177	-0.717554
 408	1	9	-0.478239	-45.1827	-2.93426	-2.31734
 409	1	9	-0.481107	-41.9555	-2.65581	0.972951
 410	1	9	-0.49957	-48.8787	-0.00327886	0.910062
 411	1	10	0.151248	-42.6948	-3.04842	-3.41946
 412	1	10	0.146138	-41.4508	-4.79689	-4.61959
 413	1	1	0.044043	-40.7474	-7.2778	-3.81698
 414	1	1	-0.215975	-41.7887	-7.64997	-4.92973
 415	1	2	0.063789	-42.7696	-7.88364	-4.4951
 416	1	2	0.072206	-41.4619	-8.50823	-5.53292
 417	1	2	0.045489	-41.9338	-6.8068	-5.61854
 418	1	1	0.005306	-39.397	-6.81153	-4.47245
 419	1	1	0.164932	-38.2069	-7.38199	-3.65698
 420	1	2	0.005277	-39.3201	-5.72496	-4.60046
 421	1	2	0.017604	-39.3501	-7.22737	-5.49106
 422	1	7	0.008363	-38.8642	-8.57527	-2.98915
 423	1	1	-0.151488	-37.6997	-6.38621	-2.57941
 424	1	1	-0.269275	-37.0558	-7.76408	-4.62375
 425	1	7	0.096378	-40.2625	-8.48869	-3.01793
 426	1	2	0.063418	-36.6673	-6.88166	-5.14882
 427	1	2	0.061085	-37.4029	-8.47705	-5.38847
 428	1	2	0.065045	-36.2205	-8.22227	-4.08186
 429	1	7	-0.142025	-38.1954	-9.66288	-2.38965
 430	1	7	-0.448546	-41.0455	-9.533	-2.48223
 431	1	7	0.277842	-40.3996	-10.6652	-1.92237
 432	1	7	-0.409063	-38.9781	-10.6927	-1.82696
 433	1	10	0.203923	-42.1291	-9.48675	-2.54744
 434	1	2	0.016419	-36.9327	-6.84947	-1.94507
 435	1	2	0.049665	-38.5146	-6.05786	-1.92686
 436	1	2	0.035794	-37.2549	-5.49222	-3.03146
 437	1	10	0.161583	-37.1071	-9.70159	-2.36237
 438	1	10	0.199011	-38.4827	-11.5584	-1.38915
 439	1	5	0.463181	-32.6416	14.5872	-1.23915
 440	1	6	0.074399	-32.4958	13.4766	-0.391718
 441	1	7	0.034296	-33.7579	13.3888	0.387516
 442	1	6	0.051625	-33.8654	15.2315	-1.05388
 443	1	7	0.019035	-34.5321	14.4767	0.0387858
 444	1	9	-0.389616	-31.5471	12.7346	-0.230828
 445	1	9	-0.380104	-34.3349	16.172	-1.68541
 446	1	7	-0.045097	-34.1479	12.513	1.41539
 447	1	7	-0.056032	-35.701	14.7852	0.731098
 448	1	7	-0.174781	-36.1104	13.9073	1.74583
 449	1	7	-0.129342	-35.3909	12.7383	2.05772
 450	1	10	0.168842	-33.5116	11.6772	1.70027
 451	1	10	0.15893	-36.2532	15.6892	0.492369
 452	1	10	0.147704	-37.0068	14.1477	2.31956
 453	1	6	0.584577	-35.9271	11.803	3.13559
 454	1	7	-0.046755	-37.4183	11.4907	3.29575
 455	1	7	-0.110868	-37.865	10.8283	4.47121
 456	1	7	-0.046132	-39.2069	10.4387	4.58027
 457	1	7	-0.135873	-38.3497	11.7118	2.25549
 458	1	7	-0.117662	-39.715	11.362	2.3897
 459	1	7	-0.064457	-40.1065	10.7522	3.58898
 460	1	6	0.492569	-41.4431	10.3179	4.05711
 461	1	5	-0.072087	-41.2778	9.85908	5.36064
 462	1	6	0.477555	-39.947	9.8557	5.74841
 463	1	7	0.042617	-42.3865	9.50086	6.19463
 464	1	7	-0.20367	-43.4899	10.3739	6.29078
 465	1	7	-0.057018	-44.6699	9.9706	6.94724
 466	1	7	-0.18182	-42.4743	8.2546	6.84751
 467	1	7	-0.14326	-43.6318	7.8776	7.56151
 468	1	7	0.043342	-44.7527	8.72895	7.62055
 469	1	10	0.163244	-43.4788	11.3195	5.74881
 470	1	10	0.101178	-45.55	10.6017	6.87561
 471	1	10	0.165346	-40.4444	11.5865	1.61385
 472	1	10	0.135111	-38.0222	12.1666	1.32302
 473	1	10	0.171751	-37.1766	10.6048	5.28785
 474	1	9	-0.478239	-39.4861	9.50474	6.82596
 475	1	9	-0.481107	-42.4629	10.38	3.3958
 476	1	9	-0.49957	-35.1365	11.3016	3.90855
 477	1	10	0.151248	-41.6455	7.56085	6.76038
 478	1	10	0.146138	-43.6652	6.88916	8.00196
 479	1	1	0.044043	-46.068	8.27592	8.2782
 480	1	1	-0.215975	-45.9162	7.04613	9.20421
 481	1	2	0.063789	-46.8709	6.8116	9.68575
 482	1	2	0.072206	-45.1824	7.23418	10.0003
 483	1	2	0.045489	-45.602	6.15194	8.63937
 484	1	1	0.005306	-46.7641	9.42198	9.08875
 485	1	1	0.164932	-48.2588	9.48153	8.64916
 486	1	2	0.005277	-46.2692	10.3874	8.92088
 487	1	2	0.017604	-46.6612	9.26109	10.1757
 488	1	7	0.008363	-48.309	8.54495	7.4442
 489	1	1	-0.151488	-48.5895	10.9254	8.23351
 490	1	1	-0.269275	-49.2483	9.08527	9.78617
 491	1	7	0.096378	-47.091	7.91969	7.19961
 492	1	2	0.063418	-48.9917	8.11212	10.2265
 493	1	2	0.061085	-50.2811	9.02415	9.42985
 494	1	2	0.065045	-49.2195	9.82223	10.5907
 495	1	7	-0.142025	-49.4038	8.32266	6.59662
 496	1	7	-0.448546	-46.9407	6.98862	6.15002
 497	1	7	0.277842	-48.0304	6.71131	5.29846
 498	1	7	-0.409063	-49.2596	7.3921	5.5361
 499	1	10	0.203923	-46.0007	6.45773	6.02608
 500	1	2	0.016419	-47.9427	11.2582	7.40696
 501	1	2	0.049665	-48.4435	11.608	9.07446
 502	1	2	0.035794	-49.6272	11.0168	7.90457
 503	1	10	0.161583	-50.3438	8.85038	6.77887
 504	1	10	0.199011	-50.1132	7.18153	4.90458
 505	1	1	0.070548	-31.9078	15.2057	-3.64451
 506	1	1	0.506757	-31.5762	15.1823	-2.1115
 507	1	2	-0.012767	-31.6026	16.1784	-4.06166
 508	1	2	-0.014806	-32.9968	15.1878	-3.78436
 509	1	3	-0.274996	-31.3506	16.4604	-1.72774
 510	1	3	-0.274736	-30.3792	14.5661	-1.96485
 511	1	5	0.463181	-12.1056	14.7431	-3.2365
 512	1	6	0.074399	-13.3917	15.2137	-3.49521
 513	1	7	0.034296	-14.2411	14.0195	-3.36152
 514	1	6	0.051625	-12.0468	13.3516	-3.05556
 515	1	7	0.019035	-13.45	12.9089	-3.14424
 516	1	9	-0.389616	-13.8031	16.3303	-3.7692
 517	1	9	-0.380104	-11.0812	12.6365	-2.8424
 518	1	7	-0.045097	-15.6313	13.9355	-3.29788
 519	1	7	-0.056032	-13.9694	11.6335	-2.94933
 520	1	7	-0.174781	-15.3624	11.5266	-2.91438
 521	1	7	-0.129342	-16.1896	12.6656	-3.04019
 522	1	10	0.168842	-16.2441	14.8361	-3.35458
 523	1	10	0.15893	-13.3123	10.7795	-2.77553
 524	1	10	0.147704	-15.8052	10.5536	-2.7071
 525	1	6	0.584577	-17.6318	12.4872	-2.70414
 526	1	7	-0.046755	-18.7172	13.0809	-3.56783
 527	1	7	-0.110868	-20.0683	12.9064	-3.15987
 528	1	7	-0.046132	-21.0846	13.4168	-3.98481
 529	1	7	-0.135873	-18.4377	13.6842	-4.82506
 530	1	7	-0.117662	-19.4662	14.1652	-5.64351
 531	1	7	-0.064457	-20.7726	14.0301	-5.17664
 532	1	6	0.492569	-22.023	14.2196	-5.9492
 533	1	5	-0.072087	-23.0802	13.8028	-5.14256
 534	1	6	0.477555	-22.5774	13.2872	-3.93263
 535	1	7	0.042617	-24.4756	13.8587	-5.57743
 536	1	7	-0.20367	-24.9572	14.9013	-6.41367
 537	1	7	-0.057018	-26.2859	14.9037	-6.93371
 538	1	7	-0.18182	-25.4204	12.8686	-5.22347
 539	1	7	-0.14326	-26.7207	12.8492	-5.77132
 540	1	7	0.043342	-27.1835	13.8406	-6.66803
 541	1	10	0.163244	-24.2859	15.695	-6.7298
 542	1	10	0.101178	-26.5908	15.7049	-7.59928
 543	1	10	0.165346	-19.2746	14.564	-6.63654
 544	1	10	0.135111	-17.4179	13.7325	-5.20975
 545	1	10	0.171751	-20.3254	12.3735	-2.2436
 546	1	9	-0.478239	-23.1786	12.6433	-3.10079
 547	1	9	-0.481107	-22.0537	14.544	-7.12022
 548	1	9	-0.49957	-17.8977	11.6991	-1.81431
 549	1	10	0.151248	-25.1336	12.052	-4.56456
 550	1	10	0.146138	-27.3761	12.0335	-5.48952
 551	1	1	0.044043	-28.5997	13.6939	-7.34554
 552	1	1	-0.215975	-29.0363	14.8684	-8.28897
 553	1	2	0.063789	-29.1027	15.8155	-7.73352
 554	1	2	0.072206	-30.0276	14.6701	-8.73975
 555	1	2	0.045489	-28.3218	15.0064	-9.11439
 556	1	1	0.005306	-28.6345	12.3455	-8.14718
 557	1	1	0.164932	-29.7474	11.4152	-7.5785
 558	1	2	0.005277	-27.6544	11.8452	-8.129
 559	1	2	0.017604	-28.8046	12.563	-9.21145
 560	1	7	0.008363	-30.3071	12.2358	-6.42773
 561	1	1	-0.151488	-29.1924	10.0603	-7.08687
 562	1	1	-0.269275	-30.7989	11.1769	-8.6678
 563	1	7	0.096378	-29.6984	13.477	-6.31069
 564	1	2	0.063418	-30.3797	10.6162	-9.51136
 565	1	2	0.061085	-31.1738	12.1371	-9.03472
 566	1	2	0.065045	-31.6614	10.623	-8.28084
 567	1	7	-0.142025	-31.3326	11.8528	-5.5529
 568	1	7	-0.448546	-30.2139	14.4186	-5.39409
 569	1	7	0.277842	-31.2919	14.0921	-4.53543
 570	1	7	-0.409063	-31.7992	12.769	-4.58367
 571	1	10	0.203923	-29.8037	15.424	-5.38058
 572	1	2	0.016419	-28.4019	10.2078	-6.33859
 573	1	2	0.049665	-28.7929	9.46612	-7.9184
 574	1	2	0.035794	-29.9863	9.48305	-6.59445
 575	1	10	0.161583	-31.7866	10.8691	-5.65335
 576	1	10	0.199011	-32.623	12.4757	-3.93654
 577	1	1	0.070548	-10.7871	16.295	-1.74758
 578	1	1	0.506757	-10.9146	15.6275	-3.14673
 579	1	2	-0.012767	-10.2577	17.2496	-1.84935
 580	1	2	-0.014806	-11.7946	16.5521	-1.3908
 581	1	3	-0.274996	-9.76837	14.9531	-3.42937
 582	1	3	-0.274736	-10.9433	16.5755	-4.12797
 583	1	5	0.463181	9.24584	13.0037	-0.51251
 584	1	6	0.074399	8.82548	13.9021	-1.48685
 585	1	7	0.034296	7.35802	13.9075	-1.35436
 586	1	6	0.051625	8.19186	12.4043	0.177257
 587	1	7	0.019035	6.97044	13.0713	-0.32203
 588	1	9	-0.389616	9.48122	14.6022	-2.25028
 589	1	9	-0.380104	8.2455	11.6099	1.08668
 590	1	7	-0.045097	6.42149	14.6675	-2.05221
 591	1	7	-0.056032	5.64407	13.0293	0.138587
 592	1	7	-0.174781	4.69173	13.8219	-0.536172
 593	1	7	-0.129342	5.06667	14.6252	-1.65256
 594	1	10	0.168842	6.75002	15.337	-2.84093
 595	1	10	0.15893	5.36022	12.4417	1.0134
 596	1	10	0.147704	3.67034	13.8337	-0.163118
 597	1	6	0.584577	4.084	15.5578	-2.32944
 598	1	7	-0.046755	2.63968	15.1338	-2.39784
 599	1	7	-0.110868	1.58772	16.0879	-2.30966
 600	1	7	-0.046132	0.25697	15.6292	-2.21047
 601	1	7	-0.135873	2.32818	13.7509	-2.45579
 602	1	7	-0.117662	1.00861	13.3064	-2.34959
 603	1	7	-0.064457	-0.0019735	14.2739	-2.24344
 604	1	6	0.492569	-1.41603	14.0645	-1.82823
 605	1	5	-0.072087	-1.92702	15.3168	-1.49784
 606	1	6	0.477555	-0.987288	16.3393	-1.75871
 607	1	7	0.042617	-3.17576	15.4313	-0.791942
 608	1	7	-0.20367	-3.25802	16.0968	0.442552
 609	1	7	-0.057018	-4.46279	16.07	1.17017
 610	1	7	-0.18182	-4.34288	14.8046	-1.28505
 611	1	7	-0.14326	-5.56767	14.8345	-0.586377
 612	1	7	0.043342	-5.64168	15.4534	0.676619
 613	1	10	0.163244	-2.39054	16.5736	0.873935
 614	1	10	0.101178	-4.47736	16.5646	2.1375
 615	1	10	0.165346	0.781054	12.2446	-2.28151
 616	1	10	0.135111	3.11532	13.0103	-2.52745
 617	1	10	0.171751	1.80321	17.1428	-2.19153
 618	1	9	-0.478239	-0.996362	17.5127	-1.40852
 619	1	9	-0.481107	-1.8789	12.9683	-1.56982
 620	1	9	-0.49957	4.44623	16.6197	-2.80045
 621	1	10	0.151248	-4.30295	14.2696	-2.2273
 622	1	10	0.146138	-6.41795	14.3008	-1.00986
 623	1	1	0.044043	-6.8915	15.2184	1.55203