pySIMM System Object

2040 atoms
2242 bonds
3987 angles
6353 dihedrals
609 impropers

10 atom types
13 bond types
25 angle types
12 dihedral types
4 improper types

-87.277556 87.277556 xlo xhi
-87.277556 87.277556 ylo yhi
-87.277556 87.277556 zlo zhi

Masses

   1	12.01	# c3
   2	1.008	# hc
   3	19.0	# f
   4	1.008	# h2
   5	14.01	# n
   6	12.01	# c
   7	12.01	# ca
   8	1.008	# hn
   9	16.0	# o
  10	1.008	# ha

Pair Coeffs

   1	0.1094	3.3996695084235347	# c3
   2	0.0157	2.649532787749369	# hc
   3	0.061	3.1181455134911875	# f
   4	0.0157	2.2931733004932333	# h2
   5	0.17	3.249998523775958	# n
   6	0.086	3.3996695084235347	# c
   7	0.086	3.3996695084235347	# ca
   8	0.0157	1.069078461768407	# hn
   9	0.21	2.959921901149463	# o
  10	0.015	2.59964245953351	# ha

Bond Coeffs

   1	331.7	1.0961	# c3,h2
   2	330.6	1.0969	# c3,hc
   3	300.9	1.5375	# c3,c3
   4	356.9	1.3497	# c3,f
   5	637.7	1.2183	# c,o
   6	321.0	1.5156	# c3,ca
   7	384.2	1.4121	# ca,n
   8	403.2	1.0129	# hn,n
   9	427.6	1.3789	# c,n
  10	461.1	1.3984	# ca,ca
  11	345.9	1.4906	# c,ca
  12	345.8	1.086	# ca,ha
  13	328.7	1.4619	# c3,n

Angle Coeffs

   1	46.34	109.8	# c3,c3,hc
   2	70.89	107.36	# f,c3,f
   3	39.4	107.58	# hc,c3,hc
   4	66.11	109.24	# c3,c3,f
   5	46.25	110.22	# c3,c3,h2
   6	51.15	108.79	# f,c3,h2
   7	62.86	111.51	# c3,c3,c3
   8	64.28	120.33	# c,ca,ca
   9	63.53	120.77	# c3,ca,ca
  10	66.62	120.02	# ca,ca,ca
  11	74.22	123.05	# n,c,o
  12	63.74	127.08	# c,n,c
  13	63.15	112.07	# c3,c3,ca
  14	48.18	119.88	# ca,ca,ha
  15	67.87	120.19	# ca,ca,n
  16	68.72	122.6	# ca,c,o
  17	63.0	118.11	# ca,c,ca
  18	63.82	123.71	# c,n,ca
  19	67.68	115.25	# ca,c,n
  20	63.56	112.24	# ca,c3,ca
  21	48.33	117.55	# c,n,hn
  22	46.8	110.47	# ca,c3,hc
  23	63.39	120.69	# c,n,c3
  24	65.91	111.61	# c3,c3,n
  25	69.52	110.41	# f,c3,n

Dihedral Coeffs

   1	2	0.0	3	0	0.19	1	0	# hc,c3,c3,f
   2	1	0.15555555555555556	3	0	# X,c3,c3,X
   3	1	0.16	3	0	# hc,c3,c3,c3
   4	3	0.18	3	0	0.25	2	180	0.2	1	180	# c3,c3,c3,c3
   5	2	2.5	2	180	2.0	1	0	# hn,n,c,o
   6	1	3.625	2	180	# X,ca,ca,X
   7	1	1.0	2	180	# X,c,ca,X
   8	1	0.0	2	0	# X,c3,ca,X
   9	1	2.5	2	180	# X,c,n,X
  10	1	0.45	2	180	# X,ca,n,X
  11	4	0.5	4	180	0.15	3	180	0.0	2	0	0.53	1	0	# c3,c3,n,c
  12	1	0.0	2	0	# X,c3,n,X

Improper Coeffs

   1	10.5	-1	2	# c,X,X,o
   2	1.1	-1	2	# ca,X,X,ha
   3	1.1	-1	2	# ca,ca,ca,c3
   4	1.1	-1	2	# n,X,X,hn

Atoms

   1	1	1	0.070548	73.7388	67.4639	33.2192
   2	1	1	0.506757	74.6143	66.2981	33.727
   3	1	2	-0.012767	72.7915	67.4877	33.7751
   4	1	2	-0.014806	74.2389	68.4213	33.4203
   5	1	3	-0.274996	73.8765	65.4534	34.4819
   6	1	3	-0.274736	75.5893	66.7778	34.5335
   7	1	1	0.070548	72.7752	68.6411	31.1587
   8	1	1	0.506757	73.4382	67.3466	31.7071
   9	1	2	-0.012767	72.0446	68.9963	31.8956
  10	1	2	-0.014806	73.5328	69.4326	31.0911
  11	1	3	-0.274996	72.6359	66.2801	31.4949
  12	1	3	-0.274736	74.5943	67.1059	31.0457
  13	1	5	0.463181	68.529	87.0335	30.6009
  14	1	6	0.074399	67.4689	86.1777	30.9039
  15	1	7	0.034296	67.9266	84.8319	30.4866
  16	1	6	0.051625	69.6085	86.3542	30.0104
  17	1	7	0.019035	69.2089	84.9234	29.986
  18	1	9	-0.389616	66.4181	86.4127	31.4744
  19	1	9	-0.380104	70.6842	86.794	29.6381
  20	1	7	-0.045097	67.246	83.6145	30.5412
  21	1	7	-0.056032	69.9061	83.7848	29.5548
  22	1	7	-0.174781	69.2507	82.5371	29.6342
  23	1	7	-0.129342	67.9189	82.446	30.1186
  24	1	10	0.168842	66.2121	83.5864	30.8833
  25	1	10	0.15893	70.9143	83.8686	29.1519
  26	1	10	0.147704	69.7575	81.6482	29.2624
  27	1	6	0.584577	67.1481	81.1538	30.0758
  28	1	7	-0.046755	67.8537	79.8286	30.2049
  29	1	7	-0.110868	67.333	78.7313	29.4842
  30	1	7	-0.046132	67.9294	77.4772	29.6495
  31	1	7	-0.135873	68.9577	79.6292	31.0793
  32	1	7	-0.117662	69.5322	78.3466	31.241
  33	1	7	-0.064457	68.9984	77.2853	30.4927
  34	1	6	0.492569	69.4104	75.8556	30.3798
  35	1	5	-0.072087	68.554	75.2645	29.4401
  36	1	6	0.477555	67.6064	76.1899	28.9948
  37	1	7	0.042617	68.6452	73.9021	28.9704
  38	1	7	-0.20367	67.5192	73.2162	28.4651
  39	1	7	-0.057018	67.5902	71.8651	28.0741
  40	1	7	-0.18182	69.8689	73.2004	28.9746
  41	1	7	-0.14326	69.9427	71.8564	28.5675
  42	1	7	0.043342	68.7911	71.1337	28.1836
  43	1	10	0.163244	66.5549	73.7071	28.3919
  44	1	10	0.101178	66.688	71.3872	27.7084
  45	1	10	0.165346	70.3643	78.178	31.9234
  46	1	10	0.135111	69.3537	80.4632	31.6567
  47	1	10	0.171751	66.4924	78.8539	28.803
  48	1	9	-0.478239	66.688	76.0404	28.2079
  49	1	9	-0.481107	70.3462	75.3594	30.9843
  50	1	9	-0.49957	65.9441	81.1837	29.8807
  51	1	10	0.151248	70.7839	73.6776	29.3148
  52	1	10	0.146138	70.9142	71.3754	28.5882
  53	1	1	0.044043	68.8278	69.5981	27.9394
  54	1	1	-0.215975	67.645	68.8796	28.6477
  55	1	2	0.063789	66.6762	69.1993	28.2429
  56	1	2	0.072206	67.6487	69.0773	29.7255
  57	1	2	0.045489	67.701	67.7941	28.5105
  58	1	1	0.005306	68.7919	69.2575	26.4119
  59	1	1	0.164932	69.9203	68.2207	26.1227
  60	1	2	0.005277	68.9747	70.1701	25.8292
  61	1	2	0.017604	67.8131	68.8763	26.0883
  62	1	7	0.008363	70.8206	68.3779	27.3118
  63	1	1	-0.151488	70.6596	68.5434	24.807
  64	1	1	-0.269275	69.4017	66.7573	26.163
  65	1	7	0.096378	70.1622	68.9779	28.3703
  66	1	2	0.063418	70.2384	66.0469	26.1277
  67	1	2	0.061085	68.7191	66.5314	25.3375
  68	1	2	0.065045	68.8738	66.5552	27.1034
  69	1	7	-0.142025	72.1368	67.9133	27.428
  70	1	7	-0.448546	70.77	69.0048	29.6419
  71	1	7	0.277842	72.0859	68.5151	29.8017
  72	1	7	-0.409063	72.7768	68.0251	28.6712
  73	1	10	0.203923	70.2339	69.4367	30.4788
  74	1	2	0.016419	71.4021	67.7733	24.5665
  75	1	2	0.049665	71.1885	69.5004	24.9032
  76	1	2	0.035794	69.9582	68.6227	23.969
  77	1	10	0.161583	72.6445	67.4768	26.5689
  78	1	10	0.199011	73.8105	67.6986	28.7549
  79	1	1	0.070548	69.9517	-85.7997	31.701
  80	1	1	0.506757	68.5905	-86.0889	31.0181
  81	1	2	-0.012767	70.3433	-86.7479	32.0881
  82	1	2	-0.014806	70.6643	-85.4868	30.9271
  83	1	3	-0.274996	68.448	-85.2823	29.937
  84	1	3	-0.274736	67.5943	-85.7253	31.8601
  85	1	5	0.463181	67.405	-66.6142	34.5464
  86	1	6	0.074399	66.2208	-67.2936	34.2332
  87	1	7	0.034296	66.3875	-68.6658	34.7818
  88	1	6	0.051625	68.3044	-67.4278	35.2499
  89	1	7	0.019035	67.6319	-68.7463	35.3721
  90	1	9	-0.389616	65.232	-66.886	33.6476
  91	1	9	-0.380104	69.3887	-67.1537	35.7355
  92	1	7	-0.045097	65.4954	-69.7475	34.8029
  93	1	7	-0.056032	68.0676	-69.9168	36.0039
  94	1	7	-0.174781	67.2001	-71.0278	36.0104
  95	1	7	-0.129342	65.9148	-70.9554	35.4096
  96	1	10	0.168842	64.4985	-69.6483	34.374
  97	1	10	0.15893	69.0397	-69.9543	36.4909
  98	1	10	0.147704	67.5184	-71.9321	36.5245
  99	1	6	0.584577	64.9523	-72.1149	35.4846
 100	1	7	-0.046755	65.489	-73.5229	35.5399
 101	1	7	-0.110868	66.6895	-73.8757	34.8726
 102	1	7	-0.046132	67.1309	-75.2035	34.9499
 103	1	7	-0.135873	64.7589	-74.5216	36.2368
 104	1	7	-0.117662	65.2167	-75.8543	36.2915
 105	1	7	-0.064457	66.4136	-76.162	35.6328
 106	1	6	0.492569	67.1112	-77.4627	35.4689
 107	1	5	-0.072087	68.2247	-77.2068	34.6668
 108	1	6	0.477555	68.3166	-75.8582	34.3347
 109	1	7	0.042617	69.1418	-78.2151	34.2352
 110	1	7	-0.20367	68.6673	-79.4931	33.897
 111	1	7	-0.057018	69.5572	-80.5424	33.6258
 112	1	7	-0.18182	70.5317	-77.9828	34.1761
 113	1	7	-0.14326	71.4244	-79.0302	33.8837
 114	1	7	0.043342	70.9551	-80.343	33.667
 115	1	10	0.163244	67.6018	-79.7059	33.9007
 116	1	10	0.101178	69.1264	-81.5209	33.4461
 117	1	10	0.165346	64.6561	-76.6256	36.8175
 118	1	10	0.135111	63.8274	-74.2574	36.7346
 119	1	10	0.171751	67.2582	-73.1514	34.2935
 120	1	9	-0.478239	69.1721	-75.2945	33.6733
 121	1	9	-0.481107	66.7379	-78.5243	35.9403
 122	1	9	-0.49957	63.7508	-71.9053	35.5236
 123	1	10	0.151248	70.9307	-76.995	34.3933
 124	1	10	0.146138	72.4931	-78.835	33.8883
 125	1	1	0.044043	71.9452	-81.5278	33.6239
 126	1	1	-0.215975	72.9294	-81.4733	32.424
 127	1	2	0.063789	72.4089	-81.2925	31.4768
 128	1	2	0.072206	73.4743	-82.4246	32.3347
 129	1	2	0.045489	73.6787	-80.6837	32.5654
 130	1	1	0.005306	72.7703	-81.5946	34.9484
 131	1	1	0.164932	72.021	-82.5298	35.9387
 132	1	2	0.005277	72.978	-80.6109	35.3863
 133	1	2	0.017604	73.7508	-82.0369	34.7249
 134	1	7	0.008363	71.2026	-83.3811	34.9827
 135	1	1	-0.151488	71.108	-81.7177	36.8852
 136	1	1	-0.269275	73.0468	-83.3468	36.7651
 137	1	7	0.096378	71.2047	-82.8561	33.6951
 138	1	2	0.063418	72.5571	-84.1176	37.3714
 139	1	2	0.061085	73.6047	-82.686	37.4417
 140	1	2	0.065045	73.7751	-83.8469	36.1129
 141	1	7	-0.142025	70.5499	-84.5917	35.259
 142	1	7	-0.448546	70.6068	-83.5495	32.629
 143	1	7	0.277842	70.0472	-84.8194	32.8608
 144	1	7	-0.409063	69.9883	-85.3124	34.1842
 145	1	10	0.203923	70.6658	-83.1528	31.6203
 146	1	2	0.016419	70.5621	-82.38	37.5678
 147	1	2	0.049665	70.3715	-81.1313	36.3235
 148	1	2	0.035794	71.701	-81.0195	37.4897
 149	1	10	0.161583	70.5519	-85.0014	36.267
 150	1	10	0.199011	69.5934	-86.3077	34.3701
 151	1	1	0.070548	67.2431	-64.6321	32.8721
 152	1	1	0.506757	67.5867	-65.1444	34.3149
 153	1	2	-0.012767	67.0177	-63.5579	32.9309
 154	1	2	-0.014806	66.3183	-65.0831	32.5045
 155	1	3	-0.274996	66.7997	-64.4707	35.1876
 156	1	3	-0.274736	68.8343	-64.7157	34.6251
 157	1	1	0.070548	67.8727	-65.0567	30.3448
 158	1	1	0.506757	68.363	-64.8394	31.8137
 159	1	2	-0.012767	68.6912	-65.5334	29.7887
 160	1	2	-0.014806	67.0649	-65.7988	30.3614
 161	1	3	-0.274996	69.0698	-65.9471	32.1359
 162	1	3	-0.274736	69.2407	-63.8152	31.8904
 163	1	1	0.070548	67.1922	-64.1417	28.0026
 164	1	1	0.506757	67.3895	-63.8228	29.5255
 165	1	2	-0.012767	67.8375	-64.9813	27.7155
 166	1	2	-0.014806	67.5805	-63.2915	27.4247
 167	1	3	-0.274996	66.2549	-63.3367	30.0737
 168	1	3	-0.274736	68.2964	-62.825	29.6057
 169	1	5	0.463181	65.1012	-64.1739	8.23655
 170	1	6	0.074399	64.1335	-64.7728	9.04988
 171	1	7	0.034296	63.8801	-63.8214	10.148
 172	1	6	0.051625	65.4423	-62.8928	8.68906
 173	1	7	0.019035	64.6478	-62.6926	9.94224
 174	1	9	-0.389616	63.5721	-65.8485	8.91745
 175	1	9	-0.380104	66.2272	-62.099	8.19706
 176	1	7	-0.045097	63.0325	-63.9667	11.2506
 177	1	7	-0.056032	64.5923	-61.6217	10.8479
 178	1	7	-0.174781	63.7713	-61.7594	11.9943
 179	1	7	-0.129342	63.004	-62.9352	12.2107
 180	1	10	0.168842	62.4242	-64.8622	11.3573
 181	1	10	0.15893	65.1676	-60.715	10.6682
 182	1	10	0.147704	63.7071	-60.9375	12.7064
 183	1	6	0.584577	62.0904	-63.0678	13.3995
 184	1	7	-0.046755	62.6527	-63.4832	14.7386
 185	1	7	-0.110868	62.0592	-62.9751	15.9191
 186	1	7	-0.046132	62.5773	-63.3739	17.1618
 187	1	7	-0.135873	63.7344	-64.3984	14.848
 188	1	7	-0.117662	64.1796	-64.85	16.1136
 189	1	7	-0.064457	63.5702	-64.3196	17.2612
 190	1	6	0.492569	63.8165	-64.575	18.7124
 191	1	5	-0.072087	63.04	-63.6545	19.4233
 192	1	6	0.477555	62.2386	-62.9176	18.5358
 193	1	7	0.042617	63.066	-63.4873	20.8658
 194	1	7	-0.20367	64.1554	-63.9034	21.6742
 195	1	7	-0.057018	64.1479	-63.7396	23.0829
 196	1	7	-0.18182	61.9976	-62.8593	21.5362
 197	1	7	-0.14326	62.0171	-62.6448	22.9197
 198	1	7	0.043342	63.0628	-63.1134	23.7384
 199	1	10	0.163244	65.0266	-64.3693	21.2206
 200	1	10	0.101178	64.999	-64.0925	23.66
 201	1	10	0.165346	64.9852	-65.577	16.2042
 202	1	10	0.135111	64.2082	-64.7921	13.9512
 203	1	10	0.171751	61.2247	-62.2769	15.8673
 204	1	9	-0.478239	61.4465	-62.0201	18.7663
 205	1	9	-0.481107	64.4873	-65.4956	19.1482
 206	1	9	-0.49957	60.8957	-62.8629	13.2666
 207	1	10	0.151248	61.1229	-62.5115	21.0015
 208	1	10	0.146138	61.1868	-62.0969	23.3505
 209	1	1	0.044043	62.9874	-62.858	25.2709
 210	1	1	-0.215975	63.304	-61.3648	25.5612
 211	1	2	0.063789	63.1338	-61.1213	26.6188
 212	1	2	0.072206	62.6671	-60.7049	24.9597
 213	1	2	0.045489	64.3475	-61.1222	25.3297
 214	1	1	0.005306	61.562	-63.2014	25.8346
 215	1	1	0.164932	61.604	-64.6271	26.4513
 216	1	2	0.005277	60.7463	-63.1185	25.1109
 217	1	2	0.017604	61.3119	-62.4812	26.625
 218	1	7	0.008363	63.0829	-64.7853	26.7492
 219	1	1	-0.151488	61.0919	-65.6806	25.4417
 220	1	1	-0.269275	60.7476	-64.6748	27.7407
 221	1	7	0.096378	63.8428	-63.7869	26.1431
 222	1	2	0.063418	59.6873	-64.5056	27.5168
 223	1	2	0.061085	61.0697	-63.9038	28.4529
 224	1	2	0.065045	60.8374	-65.6463	28.2391
 225	1	7	-0.142025	63.6694	-65.698	27.6414
 226	1	7	-0.448546	65.1848	-63.6016	26.5296
 227	1	7	0.277842	65.7635	-64.423	27.5238
 228	1	7	-0.409063	65.0166	-65.5164	28.0171
 229	1	10	0.203923	65.7562	-62.7828	26.1065
 230	1	2	0.016419	61.7292	-65.7203	24.5496
 231	1	2	0.049665	60.0705	-65.4396	25.1163
 232	1	2	0.035794	61.0711	-66.6787	25.8957
 233	1	10	0.161583	63.0741	-66.4979	28.0774
 234	1	10	0.199011	65.4589	-66.2044	28.7304
 235	1	5	0.463181	75.1784	-64.1217	-11.3376
 236	1	6	0.074399	74.4946	-63.0119	-10.8406
 237	1	7	0.034296	73.9813	-63.4386	-9.51477
 238	1	6	0.051625	75.0476	-65.2531	-10.5279
 239	1	7	0.019035	74.2819	-64.7764	-9.34483
 240	1	9	-0.389616	74.2963	-61.9357	-11.3831
 241	1	9	-0.380104	75.4931	-66.3783	-10.6879
 242	1	7	-0.045097	73.3462	-62.6909	-8.51293
 243	1	7	-0.056032	73.892	-65.4623	-8.19142
 244	1	7	-0.174781	73.1913	-64.7459	-7.19969
 245	1	7	-0.129342	72.9567	-63.346	-7.31604
 246	1	10	0.168842	73.1671	-61.6266	-8.66568
 247	1	10	0.15893	74.1146	-66.5211	-8.07521
 248	1	10	0.147704	72.8305	-65.3017	-6.34098
 249	1	6	0.584577	72.2612	-62.5418	-6.23087
 250	1	7	-0.046755	71.9769	-63.1449	-4.87011
 251	1	7	-0.110868	70.7894	-62.7845	-4.19025
 252	1	7	-0.046132	70.5502	-63.3335	-2.92201
 253	1	7	-0.135873	72.9069	-63.9956	-4.21271
 254	1	7	-0.117662	72.6137	-64.5824	-2.96189
 255	1	7	-0.064457	71.4043	-64.244	-2.34156
 256	1	6	0.492569	70.8473	-64.6216	-1.00709
 257	1	5	-0.072087	69.6789	-63.8728	-0.846816
 258	1	6	0.477555	69.477	-63.0314	-1.94645
 259	1	7	0.042617	68.7439	-63.9765	0.246445
 260	1	7	-0.20367	67.3881	-63.7026	-0.00643787
 261	1	7	-0.057018	66.4152	-63.8329	0.983208
 262	1	7	-0.18182	69.0835	-64.3937	1.55748
 263	1	7	-0.14326	68.0913	-64.5309	2.56409
 264	1	7	0.043342	66.7283	-64.2692	2.28274
 265	1	10	0.163244	67.044	-63.4227	-0.996194
 266	1	10	0.101178	65.3878	-63.6648	0.687463
 267	1	10	0.165346	73.3249	-65.2383	-2.46473
 268	1	10	0.135111	73.875	-64.1909	-4.66762
 269	1	10	0.171751	70.082	-62.078	-4.62431
 270	1	9	-0.478239	68.685	-62.1129	-2.0709
 271	1	9	-0.481107	71.3496	-65.425	-0.239286
 272	1	9	-0.49957	71.8852	-61.4068	-6.47344
 273	1	10	0.151248	70.1127	-64.657	1.79532
 274	1	10	0.146138	68.3809	-64.9138	3.54118
 275	1	1	0.044043	65.536	-64.6619	3.19465
 276	1	1	-0.215975	64.3922	-63.6037	3.16955
 277	1	2	0.063789	63.6107	-63.8626	3.89597
 278	1	2	0.072206	63.8965	-63.5496	2.19377
 279	1	2	0.045489	64.7696	-62.6043	3.41848
 280	1	1	0.005306	65.002	-66.0173	2.63805
 281	1	1	0.164932	65.617	-67.1681	3.48273
 282	1	2	0.005277	65.1938	-66.1525	1.56537
 283	1	2	0.017604	63.9099	-66.0337	2.75544
 284	1	7	0.008363	65.9517	-66.4394	4.77292
 285	1	1	-0.151488	66.8663	-67.8086	2.82605
 286	1	1	-0.269275	64.537	-68.2581	3.69413
 287	1	7	0.096378	65.8496	-65.0535	4.64262
 288	1	2	0.063418	64.0618	-68.5208	2.74017
 289	1	2	0.061085	63.7515	-67.8965	4.37112
 290	1	2	0.065045	64.9636	-69.1714	4.12419
 291	1	7	-0.142025	66.0516	-67.0385	6.03384
 292	1	7	-0.448546	65.6603	-64.2513	5.7951
 293	1	7	0.277842	65.6281	-64.8511	7.07963
 294	1	7	-0.409063	65.9147	-66.2349	7.1767
 295	1	10	0.203923	65.4045	-63.2004	5.68892
 296	1	2	0.016419	67.2899	-68.5854	3.47544
 297	1	2	0.049665	67.6563	-67.0779	2.63554
 298	1	2	0.035794	66.6073	-68.276	1.8678
 299	1	10	0.161583	66.0964	-68.1217	6.12607
 300	1	10	0.199011	65.8689	-66.7259	8.14635
 301	1	1	0.070548	75.3749	-63.9839	-13.8641
 302	1	1	0.506757	76.1006	-64.0	-12.4918
 303	1	2	-0.012767	74.4046	-63.4793	-13.7656
 304	1	2	-0.014806	75.1436	-65.0082	-14.1892
 305	1	3	-0.274996	76.8443	-62.8758	-12.339
 306	1	3	-0.274736	77.0263	-64.9887	-12.524
 307	1	5	0.463181	69.3507	-70.3032	-26.1136
 308	1	6	0.074399	70.1149	-71.0032	-25.163
 309	1	7	0.034296	71.5349	-70.772	-25.5407
 310	1	6	0.051625	70.1753	-69.6767	-27.065
 311	1	7	0.019035	71.5612	-69.9284	-26.6298
 312	1	9	-0.389616	69.7513	-71.569	-24.144
 313	1	9	-0.380104	69.8867	-69.0645	-28.08
 314	1	7	-0.045097	72.7206	-71.2186	-24.944
 315	1	7	-0.056032	72.7504	-69.3885	-27.1259
 316	1	7	-0.174781	73.9497	-69.7497	-26.4852
 317	1	7	-0.129342	73.9418	-70.6898	-25.4254
 318	1	10	0.168842	72.6922	-71.9261	-24.1167
 319	1	10	0.15893	72.7354	-68.6889	-27.9593
 320	1	10	0.147704	74.889	-69.3241	-26.8337
 321	1	6	0.584577	75.2366	-71.1334	-24.8255
 322	1	7	-0.046755	76.2158	-70.0792	-24.4116
 323	1	7	-0.110868	75.8111	-69.0928	-23.4868
 324	1	7	-0.046132	76.8087	-68.3248	-22.8752
 325	1	7	-0.135873	77.5791	-70.1944	-24.7816
 326	1	7	-0.117662	78.56	-69.3784	-24.1842
 327	1	7	-0.064457	78.1413	-68.4736	-23.2011
 328	1	6	0.492569	78.9435	-67.6617	-22.25
 329	1	5	-0.072087	78.0284	-67.1057	-21.3645
 330	1	6	0.477555	76.7152	-67.4193	-21.7044
 331	1	7	0.042617	78.3907	-66.3012	-20.2448
 332	1	7	-0.20367	77.6288	-65.165	-19.9417
 333	1	7	-0.057018	77.9699	-64.3515	-18.861
 334	1	7	-0.18182	79.5127	-66.6019	-19.4407
 335	1	7	-0.14326	79.8758	-65.7641	-18.3689
 336	1	7	0.043342	79.0947	-64.6298	-18.0597
 337	1	10	0.163244	76.7681	-64.8936	-20.546
 338	1	10	0.101178	77.3658	-63.469	-18.6746
 339	1	10	0.165346	79.6176	-69.5068	-24.4077
 340	1	10	0.135111	77.879	-70.9662	-25.486
 341	1	10	0.171751	74.7774	-69.0113	-23.1535
 342	1	9	-0.478239	75.68	-67.087	-21.1509
 343	1	9	-0.481107	80.1586	-67.5657	-22.2441
 344	1	9	-0.49957	75.4361	-72.3057	-24.5584
 345	1	10	0.151248	80.1278	-67.4708	-19.6654
 346	1	10	0.146138	80.7762	-65.9873	-17.8022
 347	1	1	0.044043	79.4673	-63.6051	-16.9806
 348	1	1	-0.215975	80.4411	-64.0987	-15.8731
 349	1	2	0.063789	81.4306	-64.3541	-16.268
 350	1	2	0.072206	80.0348	-64.9758	-15.3526
 351	1	2	0.045489	80.58	-63.3146	-15.1153
 352	1	1	0.005306	80.0078	-62.3247	-17.7009
 353	1	1	0.164932	79.1417	-61.1025	-17.2637
 354	1	2	0.005277	79.9401	-62.4473	-18.7909
 355	1	2	0.017604	81.0738	-62.1666	-17.4922
 356	1	7	0.008363	78.0076	-61.7515	-16.4855
 357	1	1	-0.151488	78.645	-60.2737	-18.4761
 358	1	1	-0.269275	79.9776	-60.176	-16.3554
 359	1	7	0.096378	78.2085	-63.1125	-16.2936
 360	1	2	0.063418	79.3672	-59.3522	-15.9671
 361	1	2	0.061085	80.8153	-59.7437	-16.9187
 362	1	2	0.065045	80.3908	-60.7303	-15.5037
 363	1	7	-0.142025	76.8922	-61.1186	-15.9174
 364	1	7	-0.448546	77.3229	-63.8852	-15.5208
 365	1	7	0.277842	76.2273	-63.2566	-14.9002
 366	1	7	-0.409063	76.0148	-61.8801	-15.1205
 367	1	10	0.203923	77.5273	-64.9394	-15.3484
 368	1	2	0.016419	78.0297	-60.8728	-19.1582
 369	1	2	0.049665	79.4958	-59.8778	-19.0468
 370	1	2	0.035794	78.0468	-59.4161	-18.1426
 371	1	10	0.161583	76.7437	-60.0499	-16.0429
 372	1	10	0.199011	75.202	-61.3819	-14.599
 373	1	5	0.463181	61.9092	-71.9831	-7.48622
 374	1	6	0.074399	62.1553	-73.1685	-8.1783
 375	1	7	0.034296	62.2871	-72.7565	-9.597
 376	1	6	0.051625	61.867	-70.8637	-8.31605
 377	1	7	0.019035	62.0901	-71.3939	-9.67963
 378	1	9	-0.389616	62.2864	-74.2993	-7.73813
 379	1	9	-0.380104	61.7514	-69.6868	-8.01185
 380	1	7	-0.045097	62.6129	-73.5177	-10.7245
 381	1	7	-0.056032	62.1088	-70.725	-10.9034
 382	1	7	-0.174781	62.3886	-71.481	-12.0615
 383	1	7	-0.129342	62.728	-72.8658	-11.9772
 384	1	10	0.168842	62.8018	-74.5843	-10.6179
 385	1	10	0.15893	61.9118	-69.6549	-10.945
 386	1	10	0.147704	62.3613	-70.9686	-13.0202
 387	1	6	0.584577	63.2066	-73.6909	-13.1618
 388	1	7	-0.046755	63.8514	-73.0469	-14.3724
 389	1	7	-0.110868	63.868	-73.736	-15.6164
 390	1	7	-0.046132	64.4166	-73.0863	-16.7389
 391	1	7	-0.135873	64.4699	-71.7699	-14.2865
 392	1	7	-0.117662	64.977	-71.1246	-15.4249
 393	1	7	-0.064457	64.9246	-71.8071	-16.6412
 394	1	6	0.492569	65.2583	-71.316	-17.9959
 395	1	5	-0.072087	64.8949	-72.3342	-18.8626
 396	1	6	0.477555	64.4453	-73.4677	-18.1836
 397	1	7	0.042617	64.8343	-72.139	-20.269
 398	1	7	-0.20367	65.9237	-71.5917	-20.9732
 399	1	7	-0.057018	65.8406	-71.3577	-22.3577
 400	1	7	-0.18182	63.6415	-72.394	-20.9629
 401	1	7	-0.14326	63.5658	-72.1767	-22.3471
 402	1	7	0.043342	64.664	-71.6673	-23.0741
 403	1	10	0.163244	66.8423	-71.3477	-20.446
 404	1	10	0.101178	66.7193	-70.9739	-22.8635
 405	1	10	0.165346	65.3697	-70.1104	-15.3757
 406	1	10	0.135111	64.548	-71.2503	-13.3366
 407	1	10	0.171751	63.4248	-74.7271	-15.7164
 408	1	9	-0.478239	64.066	-74.525	-18.6585
 409	1	9	-0.481107	65.6359	-70.191	-18.2732
 410	1	9	-0.49957	63.1333	-74.9086	-13.1071
 411	1	10	0.151248	62.7754	-72.7874	-20.436
 412	1	10	0.146138	62.6545	-72.4581	-22.8645
 413	1	1	0.044043	64.6038	-71.6969	-24.6174
 414	1	1	-0.215975	64.7297	-73.1971	-24.9887
 415	1	2	0.063789	65.6092	-73.6347	-24.4955
 416	1	2	0.072206	64.8327	-73.3493	-26.0681
 417	1	2	0.045489	63.8552	-73.762	-24.6401
 418	1	1	0.005306	63.2666	-71.0688	-25.1717
 419	1	1	0.164932	63.5936	-69.7817	-25.9954
 420	1	2	0.005277	62.5645	-70.8125	-24.3693
 421	1	2	0.017604	62.7462	-71.7987	-25.8054
 422	1	7	0.008363	65.0975	-69.8392	-26.0867
 423	1	1	-0.151488	63.1865	-68.4913	-25.2451
 424	1	1	-0.269275	62.9196	-69.7763	-27.3971
 425	1	7	0.096378	65.6667	-70.8702	-25.3501
 426	1	2	0.063418	61.8391	-69.5974	-27.3165
 427	1	2	0.061085	63.069	-70.7251	-27.9279
 428	1	2	0.065045	63.331	-68.9775	-28.0284
 429	1	7	-0.142025	65.8914	-68.9263	-26.7801
 430	1	7	-0.448546	67.0626	-71.0798	-25.3943
 431	1	7	0.277842	67.9098	-70.1675	-26.0836
 432	1	7	-0.409063	67.2839	-69.0745	-26.7388
 433	1	10	0.203923	67.4801	-71.9338	-24.8682
 434	1	2	0.016419	63.539	-67.6021	-25.7846
 435	1	2	0.049665	63.6222	-68.4677	-24.239
 436	1	2	0.035794	62.0965	-68.4132	-25.1527
 437	1	10	0.161583	65.4393	-68.0988	-27.3204
 438	1	10	0.199011	67.866	-68.3146	-27.2472
 439	1	5	0.463181	65.0466	-52.5745	-5.45347
 440	1	6	0.074399	65.5507	-53.67	-6.15045
 441	1	7	0.034296	64.8349	-54.8396	-5.58435
 442	1	6	0.051625	63.9535	-52.9051	-4.64252
 443	1	7	0.019035	63.849	-54.3841	-4.73012
 444	1	9	-0.389616	66.41	-53.695	-7.01565
 445	1	9	-0.380104	63.3066	-52.1955	-3.89065
 446	1	7	-0.045097	65.1844	-56.1916	-5.6303
 447	1	7	-0.056032	63.0829	-55.2659	-3.95866
 448	1	7	-0.174781	63.3822	-56.6453	-4.03131
 449	1	7	-0.129342	64.455	-57.1099	-4.83812
 450	1	10	0.168842	66.0489	-56.5091	-6.21255
 451	1	10	0.15893	62.3366	-54.8817	-3.26699
 452	1	10	0.147704	62.8508	-57.3345	-3.37826
 453	1	6	0.584577	64.9601	-58.5273	-4.74698
 454	1	7	-0.046755	64.0117	-59.6968	-4.62653
 455	1	7	-0.110868	64.4956	-60.9012	-4.06928
 456	1	7	-0.046132	63.6885	-62.0433	-4.13131
 457	1	7	-0.135873	62.701	-59.6645	-5.17464
 458	1	7	-0.117662	61.9168	-60.84	-5.25448
 459	1	7	-0.064457	62.4538	-62.0336	-4.74332
 460	1	6	0.492569	61.9377	-63.4385	-4.74936
 461	1	5	-0.072087	62.9142	-64.213	-4.12051
 462	1	6	0.477555	63.9714	-63.423	-3.67099
 463	1	7	0.042617	62.9118	-65.6406	-3.98489
 464	1	7	-0.20367	61.7562	-66.3909	-3.68249
 465	1	7	-0.057018	61.8429	-67.7834	-3.45392
 466	1	7	-0.18182	64.1271	-66.3352	-4.12578
 467	1	7	-0.14326	64.2184	-67.7098	-3.86944
 468	1	7	0.043342	63.0873	-68.4544	-3.47976
 469	1	10	0.163244	60.7896	-65.8997	-3.60225
 470	1	10	0.101178	60.9392	-68.3384	-3.21506
 471	1	10	0.165346	60.9379	-60.8335	-5.72979
 472	1	10	0.135111	62.317	-58.7413	-5.59928
 473	1	10	0.171751	65.4944	-60.9615	-3.63533
 474	1	9	-0.478239	64.9122	-63.7465	-2.96363
 475	1	9	-0.481107	60.8742	-63.8052	-5.22132
 476	1	9	-0.49957	66.1609	-58.7338	-4.80604
 477	1	10	0.151248	65.0338	-65.7985	-4.38957
 478	1	10	0.146138	65.1964	-68.1682	-3.95235
 479	1	1	0.044043	63.2043	-69.9427	-3.06049
 480	1	1	-0.215975	64.672	-70.4648	-3.04582
 481	1	2	0.063789	64.7222	-71.5068	-2.70668
 482	1	2	0.072206	65.3016	-69.8666	-2.37494
 483	1	2	0.045489	65.1126	-70.4346	-4.05098
 484	1	1	0.005306	62.549	-70.2154	-1.66197
 485	1	1	0.164932	61.5737	-71.4348	-1.79857
 486	1	2	0.005277	61.9994	-69.3323	-1.31373
 487	1	2	0.017604	63.313	-70.4009	-0.894801
 488	1	7	0.008363	61.5357	-71.6769	-3.28766
 489	1	1	-0.151488	60.1533	-71.0992	-1.2878
 490	1	1	-0.269275	62.1252	-72.6908	-1.08208
 491	1	7	0.096378	62.4048	-70.8458	-3.97408
 492	1	2	0.063418	63.166	-72.8827	-1.37097
 493	1	2	0.061085	61.5407	-73.5788	-1.35377
 494	1	2	0.065045	62.0863	-72.5804	0.00831501
 495	1	7	-0.142025	60.7572	-72.6299	-3.9641
 496	1	7	-0.448546	62.5355	-70.9408	-5.36192
 497	1	7	0.277842	61.7791	-71.8958	-6.07161
 498	1	7	-0.409063	60.8902	-72.7377	-5.36048
 499	1	10	0.203923	63.2114	-70.2691	-5.88399
 500	1	2	0.016419	59.7423	-70.2338	-1.82403
 501	1	2	0.049665	60.1565	-70.8702	-0.215545
 502	1	2	0.035794	59.4729	-71.9443	-1.45247
 503	1	10	0.161583	60.0768	-73.2768	-3.41481
 504	1	10	0.199011	60.3056	-73.4853	-5.8947
 505	1	1	0.070548	65.3312	-50.3165	-6.57556
 506	1	1	0.506757	65.7474	-51.2629	-5.42811
 507	1	2	-0.012767	65.797	-50.6415	-7.51581
 508	1	2	-0.014806	65.7178	-49.3085	-6.3734
 509	1	3	-0.274996	65.5707	-50.614	-4.25108
 510	1	3	-0.274736	67.0918	-51.4221	-5.48857
 511	1	5	0.463181	64.5972	-65.7801	-13.6923
 512	1	6	0.074399	64.3166	-64.5089	-13.184
 513	1	7	0.034296	64.5533	-64.6104	-11.722
 514	1	6	0.051625	65.0721	-66.6616	-12.7156
 515	1	7	0.019035	65.0356	-65.8765	-11.4534
 516	1	9	-0.389616	63.8896	-63.5267	-13.7671
 517	1	9	-0.380104	65.2949	-67.8594	-12.7939
 518	1	7	-0.045097	64.2078	-63.7152	-10.6968
 519	1	7	-0.056032	65.2641	-66.3004	-10.1424
 520	1	7	-0.174781	64.9021	-65.4278	-9.09478
 521	1	7	-0.129342	64.3377	-64.1466	-9.35246
 522	1	10	0.168842	63.7959	-62.7413	-10.9527
 523	1	10	0.15893	65.6458	-67.3004	-9.94767
 524	1	10	0.147704	65.0111	-65.7736	-8.06738
 525	1	6	0.584577	63.8653	-63.2867	-8.19377
 526	1	7	-0.046755	62.9812	-62.0898	-8.44686
 527	1	7	-0.110868	63.5085	-60.7891	-8.27543
 528	1	7	-0.046132	62.6714	-59.6861	-8.51507
 529	1	7	-0.135873	61.608	-62.2449	-8.78805
 530	1	7	-0.117662	60.7843	-61.1204	-9.02564
 531	1	7	-0.064457	61.3558	-59.8467	-8.89923
 532	1	6	0.492569	60.7589	-58.4932	-9.08994
 533	1	5	-0.072087	61.7574	-57.5921	-8.74691
 534	1	6	0.477555	62.9439	-58.2264	-8.40964
 535	1	7	0.042617	61.5918	-56.1793	-8.74809
 536	1	7	-0.20367	61.282	-55.507	-9.93968
 537	1	7	-0.057018	61.0918	-54.1158	-9.94321
 538	1	7	-0.18182	61.7355	-55.4365	-7.56345
 539	1	7	-0.14326	61.5722	-54.0392	-7.57188
 540	1	7	0.043342	61.2286	-53.3557	-8.76154
 541	1	10	0.163244	61.1614	-56.0631	-10.864
 542	1	10	0.101178	60.8199	-53.6429	-10.8804
 543	1	10	0.165346	59.7325	-61.2287	-9.29103
 544	1	10	0.135111	61.1722	-63.24	-8.84781
 545	1	10	0.171751	64.5399	-60.6389	-7.95886
 546	1	9	-0.478239	63.993	-57.7148	-8.06244
 547	1	9	-0.481107	59.638	-58.252	-9.50215
 548	1	9	-0.49957	64.2249	-63.5356	-7.05351
 549	1	10	0.151248	61.9639	-55.946	-6.6303
 550	1	10	0.146138	61.691	-53.4897	-6.64178
 551	1	1	0.044043	60.9353	-51.8393	-8.75065
 552	1	1	-0.215975	61.1215	-51.1611	-10.1387
 553	1	2	0.063789	62.1154	-51.3623	-10.5567
 554	1	2	0.072206	61.0083	-50.0717	-10.056
 555	1	2	0.045489	60.3662	-51.5038	-10.8568
 556	1	1	0.005306	59.4826	-51.556	-8.24225
 557	1	1	0.164932	59.5621	-50.7854	-6.88478
 558	1	2	0.005277	58.9214	-52.4938	-8.13644
 559	1	2	0.017604	58.929	-50.9578	-8.97775
 560	1	7	0.008363	61.0343	-50.4507	-6.77234
 561	1	1	-0.151488	59.1366	-51.7122	-5.7206
 562	1	1	-0.269275	58.687	-49.509	-6.87568
 563	1	7	0.096378	61.7914	-51.099	-7.73859
 564	1	2	0.063418	57.6277	-49.7557	-7.01757
 565	1	2	0.061085	58.9889	-48.8163	-7.67119
 566	1	2	0.065045	58.7807	-48.9811	-5.91804
 567	1	7	-0.142025	61.6451	-49.6386	-5.80499
 568	1	7	-0.448546	63.1918	-51.0491	-7.7065
 569	1	7	0.277842	63.8253	-50.271	-6.72053
 570	1	7	-0.409063	63.0491	-49.5422	-5.79991
 571	1	10	0.203923	63.7721	-51.6175	-8.42844
 572	1	2	0.016419	59.6372	-52.6856	-5.78471
 573	1	2	0.049665	58.0545	-51.891	-5.74107
 574	1	2	0.035794	59.3909	-51.269	-4.74991
 575	1	10	0.161583	61.0524	-49.1191	-5.05541
 576	1	10	0.199011	63.5407	-48.9521	-5.02935
 577	1	1	0.070548	64.7569	-65.2386	-16.1722
 578	1	1	0.506757	64.2106	-66.1844	-15.0738
 579	1	2	-0.012767	64.608	-65.7028	-17.1559
 580	1	2	-0.014806	64.1747	-64.3098	-16.1904
 581	1	3	-0.274996	64.5986	-67.4458	-15.3879
 582	1	3	-0.274736	62.8602	-66.2177	-15.1791
 583	1	5	0.463181	79.9132	-51.9796	-21.1005
 584	1	6	0.074399	78.9768	-52.2906	-22.0888
 585	1	7	0.034296	77.9989	-53.2142	-21.4436
 586	1	6	0.051625	79.5598	-52.556	-19.8661
 587	1	7	0.019035	78.362	-53.406	-20.1288
 588	1	9	-0.389616	78.9934	-51.982	-23.2673
 589	1	9	-0.380104	80.0973	-52.4203	-18.7797
 590	1	7	-0.045097	76.9103	-53.8956	-21.9971
 591	1	7	-0.056032	77.7014	-54.3493	-19.3207
 592	1	7	-0.174781	76.6266	-55.085	-19.8757
 593	1	7	-0.129342	76.1903	-54.8319	-21.2046
 594	1	10	0.168842	76.6463	-53.7177	-23.0374
 595	1	10	0.15893	78.0389	-54.531	-18.3001
 596	1	10	0.147704	76.1488	-55.8589	-19.2744
 597	1	6	0.584577	75.0395	-55.5479	-21.8777
 598	1	7	-0.046755	74.2221	-56.6455	-21.2402
 599	1	7	-0.110868	73.5474	-56.5184	-19.9962
 600	1	7	-0.046132	72.6068	-57.5107	-19.6631
 601	1	7	-0.135873	73.9657	-57.7737	-22.0577
 602	1	7	-0.117662	73.0163	-58.7472	-21.7057
 603	1	7	-0.064457	72.3222	-58.5613	-20.5113
 604	1	6	0.492569	71.2048	-59.3498	-19.9421
 605	1	5	-0.072087	70.9391	-58.782	-18.7022
 606	1	6	0.477555	71.719	-57.6426	-18.4794
 607	1	7	0.042617	70.1617	-59.4399	-17.7009
 608	1	7	-0.20367	70.6298	-59.426	-16.3764
 609	1	7	-0.057018	70.0423	-60.2251	-15.4035
 610	1	7	-0.18182	69.0372	-60.2353	-18.0052
 611	1	7	-0.14326	68.4951	-61.1099	-17.0386
 612	1	7	0.043342	69.0512	-61.1624	-15.7391
 613	1	10	0.163244	71.4973	-58.8419	-16.091
 614	1	10	0.101178	70.4351	-60.1755	-14.3939
 615	1	10	0.165346	72.7954	-59.5903	-22.3566
 616	1	10	0.135111	74.4687	-57.8589	-23.0182
 617	1	10	0.171751	73.6694	-55.6508	-19.3493
 618	1	9	-0.478239	71.7683	-56.9263	-17.494
 619	1	9	-0.481107	70.6496	-60.2853	-20.495
 620	1	9	-0.49957	74.803	-55.294	-23.0503
 621	1	10	0.151248	68.6296	-60.2482	-19.0154
 622	1	10	0.146138	67.6846	-61.7771	-17.3238
 623	1	1	0.044043	68.6879	-62.2204	-14.685
 624	1	1	-0.215975	67.8741	-61.5447	-13.5564
 625	1	2	0.063789	68.5018	-60.8298	-13.0082
 626	1	2	0.072206	67.4952	-62.2812	-12.8395
 627	1	2	0.045489	67.0238	-60.9882	-13.9694
 628	1	1	0.005306	69.9827	-62.8886	-14.1088
 629	1	1	0.164932	70.3301	-64.1051	-15.0107
 630	1	2	0.005277	69.755	-63.2553	-13.099
 631	1	2	0.017604	70.8421	-62.2199	-13.9942
 632	1	7	0.008363	68.9492	-64.4923	-15.486