pySIMM System Object

954 atoms
1044 bonds
1864 angles
2957 dihedrals
273 impropers

10 atom types
13 bond types
25 angle types
12 dihedral types
4 improper types

-149.290044 149.290044 xlo xhi
-149.290044 149.290044 ylo yhi
-149.290044 149.290044 zlo zhi

Masses

   1	14.01	# n
   2	12.01	# c
   3	12.01	# ca
   4	1.008	# hn
   5	16.0	# o
   6	1.008	# ha
   7	12.01	# c3
   8	1.008	# hc
   9	19.0	# f
  10	1.008	# h2

Pair Coeffs

   1	0.17	3.249998523775958	# n
   2	0.086	3.3996695084235347	# c
   3	0.086	3.3996695084235347	# ca
   4	0.0157	1.069078461768407	# hn
   5	0.21	2.959921901149463	# o
   6	0.015	2.59964245953351	# ha
   7	0.1094	3.3996695084235347	# c3
   8	0.0157	2.649532787749369	# hc
   9	0.061	3.1181455134911875	# f
  10	0.0157	2.2931733004932333	# h2

Bond Coeffs

   1	637.7	1.2183	# c,o
   2	321.0	1.5156	# c3,ca
   3	384.2	1.4121	# ca,n
   4	403.2	1.0129	# hn,n
   5	330.6	1.0969	# c3,hc
   6	427.6	1.3789	# c,n
   7	461.1	1.3984	# ca,ca
   8	345.9	1.4906	# c,ca
   9	300.9	1.5375	# c3,c3
  10	345.8	1.086	# ca,ha
  11	331.7	1.0961	# c3,h2
  12	356.9	1.3497	# c3,f
  13	328.7	1.4619	# c3,n

Angle Coeffs

   1	64.28	120.33	# c,ca,ca
   2	63.53	120.77	# c3,ca,ca
   3	66.62	120.02	# ca,ca,ca
   4	74.22	123.05	# n,c,o
   5	62.86	111.51	# c3,c3,c3
   6	63.74	127.08	# c,n,c
   7	63.15	112.07	# c3,c3,ca
   8	48.18	119.88	# ca,ca,ha
   9	67.87	120.19	# ca,ca,n
  10	68.72	122.6	# ca,c,o
  11	46.34	109.8	# c3,c3,hc
  12	63.0	118.11	# ca,c,ca
  13	63.82	123.71	# c,n,ca
  14	67.68	115.25	# ca,c,n
  15	63.56	112.24	# ca,c3,ca
  16	48.33	117.55	# c,n,hn
  17	39.4	107.58	# hc,c3,hc
  18	70.89	107.36	# f,c3,f
  19	66.11	109.24	# c3,c3,f
  20	46.25	110.22	# c3,c3,h2
  21	51.15	108.79	# f,c3,h2
  22	63.39	120.69	# c,n,c3
  23	65.91	111.61	# c3,c3,n
  24	69.52	110.41	# f,c3,n
  25	46.8	110.47	# ca,c3,hc

Dihedral Coeffs

   1	2	2.5	2	180	2.0	1	0	# hn,n,c,o
   2	1	3.625	2	180	# X,ca,ca,X
   3	1	0.16	3	0	# hc,c3,c3,c3
   4	1	1.0	2	180	# X,c,ca,X
   5	1	0.15555555555555556	3	0	# X,c3,c3,X
   6	1	0.0	2	0	# X,c3,ca,X
   7	1	2.5	2	180	# X,c,n,X
   8	1	0.45	2	180	# X,ca,n,X
   9	3	0.18	3	0	0.25	2	180	0.2	1	180	# c3,c3,c3,c3
  10	2	0.0	3	0	0.19	1	0	# hc,c3,c3,f
  11	4	0.5	4	180	0.15	3	180	0.0	2	0	0.53	1	0	# c3,c3,n,c
  12	1	0.0	2	0	# X,c3,n,X

Improper Coeffs

   1	10.5	-1	2	# c,X,X,o
   2	1.1	-1	2	# ca,X,X,ha
   3	1.1	-1	2	# ca,ca,ca,c3
   4	1.1	-1	2	# n,X,X,hn

Atoms

   1	1	1	0.463181	19.8792	7.62941	35.8438
   2	1	2	0.074399	20.363	8.34274	36.935
   3	1	3	0.034296	19.4927	9.54031	37.0407
   4	1	2	0.051625	18.7721	8.24463	35.2238
   5	1	3	0.019035	18.5074	9.47838	36.072
   6	1	5	-0.389616	21.3286	8.10309	37.636
   7	1	5	-0.380104	18.3406	7.99148	34.0958
   8	1	3	-0.045097	19.5473	10.5963	37.9619
   9	1	3	-0.056032	17.5439	10.5064	35.9771
  10	1	3	-0.174781	17.6565	11.6434	36.8138
  11	1	3	-0.129342	18.6716	11.7029	37.812
  12	1	6	0.168842	20.3151	10.5857	38.7337
  13	1	6	0.15893	16.7734	10.4559	35.2113
  14	1	6	0.147704	16.9713	12.4783	36.6749
  15	1	2	0.584577	18.8249	12.9408	38.6833
  16	1	3	-0.046755	20.1522	13.6468	38.8736
  17	1	3	-0.110868	20.2596	14.6565	39.8682
  18	1	3	-0.046132	21.542	15.0826	40.237
  19	1	3	-0.135873	21.3064	13.3035	38.1219
  20	1	3	-0.117662	22.5681	13.8205	38.4511
  21	1	3	-0.064457	22.6608	14.6534	39.5573
  22	1	2	0.492569	23.8349	15.3949	40.0129
  23	1	1	-0.072087	23.3153	16.3384	40.887
  24	1	2	0.477555	21.9683	16.1465	41.1644
  25	1	3	0.042617	24.0453	17.4519	41.3528
  26	1	3	-0.20367	23.779	18.7431	40.8652
  27	1	3	-0.057018	24.5568	19.8227	41.323
  28	1	3	-0.18182	25.1095	17.2431	42.2402
  29	1	3	-0.14326	25.912	18.3202	42.6548
  30	1	3	0.043342	25.6233	19.633	42.2291
  31	1	6	0.163244	22.992	18.9037	40.1317
  32	1	6	0.101178	24.3242	20.8198	40.9599
  33	1	6	0.165346	23.4543	13.5727	37.8677
  34	1	6	0.135111	21.2387	12.6134	37.2861
  35	1	6	0.171751	19.3832	15.0405	40.3898
  36	1	5	-0.478239	21.2396	16.8087	41.8795
  37	1	5	-0.481107	24.9509	15.2678	39.5383
  38	1	5	-0.49957	17.8437	13.4169	39.2159
  39	1	6	0.151248	25.3444	16.2331	42.5656
  40	1	6	0.146138	26.7445	18.1395	43.3268
  41	1	7	0.044043	26.421	20.8183	42.8231
  42	1	7	-0.215975	26.299	20.8013	44.3591
  43	1	8	0.063789	26.9102	19.9964	44.7885
  44	1	8	0.072206	25.2629	20.6297	44.681
  45	1	8	0.045489	26.6467	21.7536	44.7905
  46	1	7	0.005306	27.9279	20.7898	42.4229
  47	1	7	0.164932	28.1373	21.7675	41.2167
  48	1	8	0.005277	28.2581	19.7706	42.1851
  49	1	8	0.017604	28.5409	21.1265	43.269
  50	1	3	0.008363	27.0021	22.7276	41.4254
  51	1	7	-0.151488	27.9166	20.9829	39.9139
  52	1	7	-0.269275	29.5309	22.4824	41.1915
  53	1	3	0.096378	26.0475	22.1974	42.2983
  54	1	8	0.063418	29.6475	23.0939	40.2875
  55	1	8	0.061085	30.3476	21.7512	41.1969
  56	1	8	0.065045	29.6631	23.1291	42.0663
  57	1	3	-0.142025	27.0139	24.0762	41.0399
  58	1	3	-0.448546	25.0083	23.0146	42.7637
  59	1	3	0.277842	24.9799	24.3631	42.3715
  60	1	3	-0.409063	26.0246	24.912	41.5955
  61	1	6	0.203923	24.2953	22.6534	43.4959
  62	1	8	0.016419	28.0827	21.6256	39.039
  63	1	8	0.049665	26.8968	20.5828	39.8479
  64	1	8	0.035794	28.611	20.1331	39.8569
  65	1	6	0.161583	27.8216	24.4751	40.4312
  66	1	6	0.199011	26.0345	25.982	41.406
  67	1	1	0.463181	6.3013	-5.05532	39.3968
  68	1	2	0.074399	7.58409	-5.60561	39.5137
  69	1	3	0.034296	8.52554	-4.61876	38.933
  70	1	2	0.051625	6.3406	-3.83111	38.7342
  71	1	3	0.019035	7.77905	-3.55627	38.453
  72	1	5	-0.389616	7.92591	-6.68231	39.9489
  73	1	5	-0.380104	5.40922	-3.07048	38.5175
  74	1	3	-0.045097	9.9227	-4.6229	38.8355
  75	1	3	-0.056032	8.34797	-2.48114	37.7504
  76	1	3	-0.174781	9.7368	-2.4905	37.6531
  77	1	3	-0.129342	10.5313	-3.52532	38.1899
  78	1	6	0.168842	10.5102	-5.455	39.2271
  79	1	6	0.15893	7.74439	-1.69695	37.2912
  80	1	6	0.147704	10.1829	-1.71895	37.0309
  81	1	2	0.584577	12.0027	-3.49142	37.9839
  82	1	3	-0.046755	12.6847	-2.18454	37.6183
  83	1	3	-0.110868	13.8651	-2.25606	36.8429
  84	1	3	-0.046132	14.6477	-1.10891	36.6505
  85	1	3	-0.135873	12.2467	-0.892574	38.0355
  86	1	3	-0.117662	12.9935	0.265879	37.7402
  87	1	3	-0.064457	14.2386	0.112014	37.1244
  88	1	2	0.492569	15.3377	1.08314	36.8567
  89	1	1	-0.072087	16.3673	0.339316	36.3158
  90	1	2	0.477555	15.9923	-0.94918	36.0157
  91	1	3	0.042617	17.6436	0.933779	36.1179
  92	1	3	-0.20367	18.6519	0.814629	37.0738
  93	1	3	-0.057018	19.9247	1.35315	36.7816
  94	1	3	-0.18182	17.8837	1.69897	34.968
  95	1	3	-0.14326	19.0982	2.36539	34.766
  96	1	3	0.043342	20.1646	2.19467	35.6646
  97	1	6	0.163244	18.5001	0.203279	37.9593
  98	1	6	0.101178	20.7318	1.14358	37.4731
  99	1	6	0.165346	12.6725	1.24519	38.0902
 100	1	6	0.135111	11.3586	-0.775627	38.6507
 101	1	6	0.171751	14.2238	-3.21437	36.4792
 102	1	5	-0.478239	16.5564	-1.69109	35.2372
 103	1	5	-0.481107	15.4359	2.239	37.2347
 104	1	5	-0.49957	12.6311	-4.53421	38.0676
 105	1	6	0.151248	17.106	1.78929	34.2147
 106	1	6	0.146138	19.2082	2.99018	33.8876
 107	1	7	0.044043	21.5342	2.89306	35.4015
 108	1	7	-0.215975	22.4633	3.0373	36.6456
 109	1	8	0.063789	21.9221	3.48256	37.493
 110	1	8	0.072206	23.3126	3.70184	36.4218
 111	1	8	0.045489	22.8755	2.07277	36.9709
 112	1	7	0.005306	22.3057	2.2832	34.1787
 113	1	7	0.164932	22.3643	3.32558	32.9972
 114	1	8	0.005277	21.8526	1.33661	33.8508
 115	1	8	0.017604	23.3326	2.04741	34.484
 116	1	3	0.008363	21.841	4.57352	33.6856
 117	1	7	-0.151488	21.4157	2.91465	31.8534
 118	1	7	-0.269275	23.8012	3.4904	32.414
 119	1	3	0.096378	21.3039	4.29797	34.939
 120	1	8	0.063418	24.5139	3.78804	33.192
 121	1	8	0.061085	23.8107	4.28088	31.656
 122	1	8	0.065045	24.1687	2.56897	31.9447
 123	1	3	-0.142025	21.7579	5.86543	33.1564
 124	1	3	-0.448546	20.6804	5.28518	35.7123
 125	1	3	0.277842	20.6272	6.59588	35.2045
 126	1	3	-0.409063	21.2215	6.88108	33.9533
 127	1	6	0.203923	20.2642	5.05308	36.6869
 128	1	8	0.016419	20.379	2.8598	32.1852
 129	1	8	0.049665	21.6835	1.92382	31.4643
 130	1	8	0.035794	21.4579	3.62347	31.0182
 131	1	6	0.161583	22.0947	6.08067	32.1442
 132	1	6	0.199011	21.1629	7.88452	33.5406
 133	1	1	0.463181	-0.608544	11.2979	39.5111
 134	1	2	0.074399	-0.764379	10.4084	38.4775
 135	1	3	0.034296	0.277604	9.37984	38.6909
 136	1	2	0.051625	0.409444	10.9507	40.3804
 137	1	3	0.019035	1.01937	9.72879	39.8048
 138	1	5	-0.389616	-1.61385	10.4682	37.6222
 139	1	5	-0.380104	0.692309	11.476	41.4402
 140	1	3	-0.045097	0.607856	8.27018	37.9212
 141	1	3	-0.056032	2.13805	9.00718	40.2338
 142	1	3	-0.174781	2.48548	7.88141	39.4501
 143	1	3	-0.129342	1.72042	7.48754	38.3019
 144	1	6	0.168842	0.0275566	8.02131	37.0343
 145	1	6	0.15893	2.69025	9.28628	41.1303
 146	1	6	0.147704	3.35382	7.2914	39.7341
 147	1	2	0.584577	1.93375	6.16783	37.5191
 148	1	3	-0.046755	1.86969	4.81463	38.271
 149	1	3	-0.110868	1.73878	3.58633	37.5498
 150	1	3	-0.046132	1.63562	2.35573	38.2482
 151	1	3	-0.135873	1.86461	4.73573	39.689
 152	1	3	-0.117662	1.71666	3.51165	40.3622
 153	1	3	-0.064457	1.59693	2.33279	39.6161
 154	1	2	0.492569	1.46845	0.934392	40.0872
 155	1	1	-0.072087	1.39607	0.106961	38.9557
 156	1	2	0.477555	1.53705	0.930099	37.8062
 157	1	3	0.042617	1.22078	-1.34724	38.9615
 158	1	3	-0.20367	1.09759	-2.08871	40.1541
 159	1	3	-0.057018	1.02955	-3.4917	40.1563
 160	1	3	-0.18182	1.16906	-2.1067	37.7655
 161	1	3	-0.14326	1.11797	-3.51359	37.7544
 162	1	3	0.043342	1.05447	-4.23213	38.9612
 163	1	6	0.163244	1.06704	-1.5976	41.1184
 164	1	6	0.101178	0.978045	-4.0017	41.1051
 165	1	6	0.165346	1.74585	3.47099	41.4489
 166	1	6	0.135111	1.9303	5.62364	40.3028
 167	1	6	0.171751	1.7228	3.59919	36.4611
 168	1	5	-0.478239	1.56391	0.631591	36.6267
 169	1	5	-0.481107	1.42853	0.696639	41.2782
 170	1	5	-0.49957	1.7516	6.16865	36.2982
 171	1	6	0.151248	1.17359	-1.63261	36.7942
 172	1	6	0.146138	1.14546	-4.01208	36.788
 173	1	7	0.044043	1.24603	-5.76263	39.0032
 174	1	7	-0.215975	1.06469	-6.50034	37.6092
 175	1	8	0.063789	1.70617	-6.08644	36.8219
 176	1	8	0.072206	0.0302988	-6.48165	37.2512
 177	1	8	0.045489	1.34885	-7.55224	37.717
 178	1	7	0.005306	0.340153	-6.44035	40.1096
 179	1	7	0.164932	1.2169	-7.00499	41.2899
 180	1	8	0.005277	-0.209233	-7.26825	39.6442
 181	1	8	0.017604	-0.440452	-5.76379	40.4687
 182	1	3	0.008363	2.6134	-6.66766	40.7788
 183	1	7	-0.151488	1.0191	-8.54962	41.4111
 184	1	7	-0.269275	0.945012	-6.35044	42.692
 185	1	3	0.096378	2.64202	-5.97273	39.5824
 186	1	8	0.063418	-0.127473	-6.27107	42.9082
 187	1	8	0.061085	1.39616	-5.35467	42.7518
 188	1	8	0.065045	1.39465	-6.94185	43.5023
 189	1	3	-0.142025	3.79168	-6.90772	41.4888
 190	1	3	-0.448546	3.85107	-5.4041	39.1361
 191	1	3	0.277842	5.06672	-5.62591	39.8477
 192	1	3	-0.409063	5.00843	-6.39104	41.0238
 193	1	6	0.203923	3.82893	-4.83488	38.2093
 194	1	8	0.016419	-0.0243134	-8.82226	41.6417
 195	1	8	0.049665	1.6588	-8.97309	42.2024
 196	1	8	0.035794	1.29905	-9.06246	40.4769
 197	1	6	0.161583	3.74951	-7.44039	42.4374
 198	1	6	0.199011	5.92015	-6.59604	41.5796
 199	1	7	0.070548	-0.990666	13.807	38.9846
 200	1	7	0.506757	-1.46375	12.49	39.7026
 201	1	8	-0.012767	-1.79106	14.5508	39.1022
 202	1	8	-0.014806	-0.912817	13.609	37.9051
 203	1	9	-0.274996	-1.71296	12.6854	41.0068
 204	1	9	-0.274736	-2.71644	12.2524	39.2768
 205	1	7	0.070548	0.927315	15.7253	38.8234
 206	1	7	0.506757	0.370196	14.4109	39.4727
 207	1	8	-0.012767	1.85927	15.4885	38.288
 208	1	8	-0.014806	1.23408	16.438	39.6023
 209	1	9	-0.274996	1.31503	13.4692	39.279
 210	1	9	-0.274736	0.382827	14.6349	40.7972
 211	1	1	0.463181	3.86266	19.8761	19.0222
 212	1	2	0.074399	2.70513	20.0644	19.8078
 213	1	3	0.034296	3.15693	19.8666	21.1891
 214	1	2	0.051625	5.01387	19.7331	19.7907
 215	1	3	0.019035	4.50415	19.5844	21.1701
 216	1	5	-0.389616	1.57403	20.411	19.486
 217	1	5	-0.380104	6.17808	19.9574	19.5069
 218	1	3	-0.045097	2.49724	20.2298	22.3521
 219	1	3	-0.056032	5.23567	19.4418	22.3511
 220	1	3	-0.174781	4.57914	19.7275	23.5531
 221	1	3	-0.129342	3.23987	20.1963	23.5441
 222	1	6	0.168842	1.48136	20.6253	22.3096
 223	1	6	0.15893	6.29779	19.2139	22.3317
 224	1	6	0.147704	5.15564	19.7	24.4771
 225	1	2	0.584577	2.61501	20.7911	24.7508
 226	1	3	-0.046755	3.21641	20.573	26.0793
 227	1	3	-0.110868	2.45017	19.8049	26.9757
 228	1	3	-0.046132	2.86861	19.7322	28.3003
 229	1	3	-0.135873	4.38359	21.2612	26.5225
 230	1	3	-0.117662	4.75134	21.2159	27.8766
 231	1	3	-0.064457	3.94985	20.4683	28.7378
 232	1	2	0.492569	3.95719	20.4023	30.2233
 233	1	1	-0.072087	2.92692	19.5439	30.5761
 234	1	2	0.477555	2.1723	19.1468	29.4869
 235	1	3	0.042617	2.57503	19.1202	31.902
 236	1	3	-0.20367	1.71449	19.9041	32.6986
 237	1	3	-0.057018	0.794841	19.2848	33.554
 238	1	3	-0.18182	2.67506	17.737	32.1954
 239	1	3	-0.14326	1.76207	17.1117	33.072
 240	1	3	0.043342	0.700368	17.8726	33.6237
 241	1	6	0.163244	1.59703	20.9624	32.4951
 242	1	6	0.101178	0.0754636	19.9177	34.0589
 243	1	6	0.165346	5.61259	21.767	28.254
 244	1	6	0.135111	4.94997	21.9025	25.8484
 245	1	6	0.171751	1.50988	19.3462	26.6764
 246	1	5	-0.478239	1.12195	18.5184	29.5141
 247	1	5	-0.481107	4.72432	20.9587	30.9823
 248	1	5	-0.49957	1.72101	21.6049	24.6728
 249	1	6	0.151248	3.3593	17.1169	31.6245
 250	1	6	0.146138	1.77154	16.0259	33.144
 251	1	7	0.044043	-0.637367	17.2216	34.079
 252	1	7	-0.215975	-0.945119	15.8213	33.4124
 253	1	8	0.063789	-0.170858	15.065	33.5848
 254	1	8	0.072206	-1.03148	15.9328	32.3243
 255	1	8	0.045489	-1.89619	15.4398	33.8208
 256	1	7	0.005306	-1.91982	18.1436	33.8057
 257	1	7	0.164932	-2.70813	18.3566	35.1341
 258	1	8	0.005277	-2.56613	17.6593	33.0678
 259	1	8	0.017604	-1.67833	19.0892	33.3232
 260	1	3	0.008363	-1.82224	17.6799	36.1412
 261	1	7	-0.151488	-4.15196	17.7555	35.1086
 262	1	7	-0.269275	-2.7853	19.8505	35.471
 263	1	3	0.096378	-0.67158	17.1028	35.6001
 264	1	8	0.063418	-3.0457	20.4557	34.5985
 265	1	8	0.061085	-1.8309	20.1997	35.8866
 266	1	8	0.065045	-3.58176	20.0369	36.2073
 267	1	3	-0.142025	-2.05412	17.6996	37.5216
 268	1	3	-0.448546	0.241816	16.464	36.4773
 269	1	3	0.277842	0.00725113	16.4509	37.873
 270	1	3	-0.409063	-1.11734	17.1222	38.3991
 271	1	6	0.203923	1.10448	15.953	36.0681
 272	1	8	0.016419	-4.8244	18.3487	34.4721
 273	1	8	0.049665	-4.60058	17.7451	36.1122
 274	1	8	0.035794	-4.15262	16.7285	34.7226
 275	1	6	0.161583	-2.9393	18.2038	37.9101
 276	1	6	0.199011	-1.29354	17.1673	39.4695
 277	1	7	0.070548	5.11139	19.7602	16.6865
 278	1	7	0.506757	3.84968	20.0751	17.5589
 279	1	8	-0.012767	4.99813	20.2667	15.7118
 280	1	8	-0.014806	5.97335	20.2773	17.1284
 281	1	9	-0.274996	3.56353	21.3723	17.3939
 282	1	9	-0.274736	2.8452	19.353	17.0283
 283	1	7	0.070548	6.46097	18.0408	15.1687
 284	1	7	0.506757	5.53088	18.234	16.4282
 285	1	8	-0.012767	7.12838	17.1785	15.3302
 286	1	8	-0.014806	7.14263	18.9071	15.2017
 287	1	9	-0.274996	4.52648	17.2942	16.348
 288	1	9	-0.274736	6.17898	17.8813	17.5905
 289	1	7	0.070548	6.71955	18.4972	12.6128
 290	1	7	0.506757	5.80411	17.9389	13.7256
 291	1	8	-0.012767	7.20399	19.4163	12.9664
 292	1	8	-0.014806	6.12336	18.7994	11.7448
 293	1	9	-0.274996	5.46876	16.6598	13.4118
 294	1	9	-0.274736	4.66567	18.6529	13.6773
 295	1	1	0.463181	3.75264	18.0261	-6.12151
 296	1	2	0.074399	4.59092	19.0552	-5.73186
 297	1	3	0.034296	5.25869	18.6016	-4.48017
 298	1	2	0.051625	3.70643	16.9982	-5.16476
 299	1	3	0.019035	4.71892	17.3756	-4.14253
 300	1	5	-0.389616	4.68724	20.1554	-6.24107
 301	1	5	-0.380104	2.99781	16.0039	-5.1167
 302	1	3	-0.045097	6.22302	19.2294	-3.66922
 303	1	3	-0.056032	5.16066	16.6661	-3.02138
 304	1	3	-0.174781	6.14431	17.259	-2.20439
 305	1	3	-0.129342	6.66315	18.5468	-2.50676
 306	1	6	0.168842	6.6176	20.205	-3.95142
 307	1	6	0.15893	4.76524	15.6771	-2.78402
 308	1	6	0.147704	6.53376	16.6843	-1.36631
 309	1	2	0.584577	7.69785	19.25	-1.66155
 310	1	3	-0.046755	8.19985	18.746	-0.335732
 311	1	3	-0.110868	7.37906	18.1314	0.663765
 312	1	3	-0.046132	7.94442	17.9584	1.94513
 313	1	3	-0.135873	9.53228	19.1335	-0.0209134
 314	1	3	-0.117662	10.0704	18.9073	1.25205
 315	1	3	-0.064457	9.24625	18.3332	2.21083
 316	1	2	0.492569	9.56315	18.0596	3.6147
 317	1	1	-0.072087	8.41244	17.5176	4.17362
 318	1	2	0.477555	7.41789	17.3556	3.19381
 319	1	3	0.042617	8.33867	16.9419	5.49552
 320	1	3	-0.20367	8.4463	17.6839	6.68851
 321	1	3	-0.057018	8.48808	17.015	7.93434
 322	1	3	-0.18182	8.30174	15.5447	5.60349
 323	1	3	-0.14326	8.37426	14.8919	6.83771
 324	1	3	0.043342	8.46953	15.6111	8.03809
 325	1	6	0.163244	8.5556	18.7668	6.64547
 326	1	6	0.101178	8.634	17.6177	8.82434
 327	1	6	0.165346	11.0787	19.2215	1.51397
 328	1	6	0.135111	10.1289	19.6673	-0.76275
 329	1	6	0.171751	6.32982	17.8802	0.497048
 330	1	5	-0.478239	6.31622	16.8509	3.28718
 331	1	5	-0.481107	10.6294	18.3464	4.12387
 332	1	5	-0.49957	8.11405	20.3342	-2.04124
 333	1	6	0.151248	8.27694	14.9423	4.70289
 334	1	6	0.146138	8.39259	13.8043	6.85313
 335	1	7	0.044043	8.65131	14.8703	9.38418
 336	1	7	-0.215975	7.61766	13.6917	9.50471
 337	1	8	0.063789	7.87667	12.8426	8.84769
 338	1	8	0.072206	6.60789	14.029	9.23165
 339	1	8	0.045489	7.55687	13.3274	10.5405
 340	1	7	0.005306	10.106	14.2936	9.47913
 341	1	7	0.164932	10.8111	14.7395	10.8164
 342	1	8	0.005277	10.7008	14.6454	8.62443
 343	1	8	0.017604	10.0944	13.2007	9.38585
 344	1	3	0.008363	9.77841	15.6849	11.4043
 345	1	7	-0.151488	12.1938	15.4499	10.6337
 346	1	7	-0.269275	11.0475	13.5073	11.7113
 347	1	3	0.096378	8.61779	15.7886	10.6275
 348	1	8	0.063418	10.1046	13.0059	11.9393
 349	1	8	0.061085	11.5193	13.7877	12.6593
 350	1	8	0.065045	11.7125	12.8082	11.191
 351	1	3	-0.142025	9.93243	16.4289	12.5869
 352	1	3	-0.448546	7.59317	16.6747	11.0233
 353	1	3	0.277842	7.75965	17.4696	12.1909
 354	1	3	-0.409063	8.93639	17.3413	12.9471
 355	1	6	0.203923	6.70454	16.7645	10.4072
 356	1	8	0.016419	12.0821	16.412	10.1217
 357	1	8	0.049665	12.8854	14.831	10.0479
 358	1	8	0.035794	12.6774	15.6435	11.6009
 359	1	6	0.161583	10.8584	16.3678	13.1584
 360	1	6	0.199011	9.11895	18.0028	13.7964
 361	1	7	0.070548	1.87844	17.0414	-7.51718
 362	1	7	0.506757	2.98334	18.1076	-7.39967
 363	1	8	-0.012767	2.35896	16.0637	-7.41113
 364	1	8	-0.014806	1.1761	17.1584	-6.67631
 365	1	9	-0.274996	3.83369	17.9921	-8.48172
 366	1	9	-0.274736	2.30808	19.293	-7.45438
 367	1	7	0.070548	0.270584	18.1799	-9.33577
 368	1	7	0.506757	1.07524	16.9274	-8.84158
 369	1	8	-0.012767	0.0529325	18.0539	-10.4019
 370	1	8	-0.014806	0.963889	19.0227	-9.35298
 371	1	9	-0.274996	0.233463	15.8735	-8.71339
 372	1	9	-0.274736	1.94686	16.5023	-9.78942
 373	1	7	0.070548	-2.35615	17.939	-9.17318
 374	1	7	0.506757	-1.04095	18.6194	-8.58402
 375	1	8	-0.012767	-2.47825	16.9575	-8.68822
 376	1	8	-0.014806	-2.14709	17.7088	-10.2185
 377	1	9	-0.274996	-0.952498	18.4279	-7.21811
 378	1	9	-0.274736	-1.09977	19.9565	-8.75795
 379	1	1	0.463181	-7.70401	8.93659	-19.1674
 380	1	2	0.074399	-7.46056	9.88088	-20.1794
 381	1	3	0.034296	-7.69674	11.2168	-19.6201
 382	1	2	0.051625	-8.19203	9.55338	-18.0284
 383	1	3	0.019035	-8.17602	11.0021	-18.3306
 384	1	5	-0.389616	-7.13762	9.64229	-21.3207
 385	1	5	-0.380104	-8.40631	9.06448	-16.9297
 386	1	3	-0.045097	-7.45422	12.5111	-20.1205
 387	1	3	-0.056032	-8.5249	12.0473	-17.4899
 388	1	3	-0.174781	-8.31957	13.3432	-17.9959
 389	1	3	-0.129342	-7.7694	13.6116	-19.2732
 390	1	6	0.168842	-7.05435	12.6446	-21.1241
 391	1	6	0.15893	-8.8573	11.8489	-16.4683
 392	1	6	0.147704	-8.42207	14.1548	-17.2947
 393	1	2	0.584577	-7.45405	15.0622	-19.6631
 394	1	3	-0.046755	-7.76306	16.1834	-18.7394
 395	1	3	-0.110868	-6.69851	16.9122	-18.1795
 396	1	3	-0.046132	-7.0345	18.0518	-17.4666
 397	1	3	-0.135873	-9.12524	16.4812	-18.4771
 398	1	3	-0.117662	-9.44378	17.5344	-17.5949
 399	1	3	-0.064457	-8.366	18.332	-17.1429
 400	1	2	0.492569	-8.36259	19.3634	-16.0794
 401	1	1	-0.072087	-7.00361	19.6194	-15.8804
 402	1	2	0.477555	-6.12614	18.9583	-16.7167
 403	1	3	0.042617	-6.60201	20.1287	-14.6456
 404	1	3	-0.20367	-6.67042	19.2615	-13.554
 405	1	3	-0.057018	-6.28022	19.7051	-12.3069
 406	1	3	-0.18182	-6.17005	21.435	-14.521
 407	1	3	-0.14326	-5.89392	21.9	-13.2505
 408	1	3	0.043342	-5.92247	21.056	-12.1392
 409	1	6	0.163244	-6.97621	18.2345	-13.6975
 410	1	6	0.101178	-6.30459	18.9838	-11.4961
 411	1	6	0.165346	-10.4604	17.7779	-17.3256
 412	1	6	0.135111	-9.8981	15.9085	-18.9547
 413	1	6	0.171751	-5.6615	16.6673	-18.356
 414	1	5	-0.478239	-4.90266	19.0152	-16.6926
 415	1	5	-0.481107	-9.27631	19.5235	-15.2688
 416	1	5	-0.49957	-6.77912	15.3241	-20.6398
 417	1	6	0.151248	-6.03556	22.0843	-15.3826
 418	1	6	0.146138	-5.61847	22.9512	-13.1578
 419	1	7	0.044043	-5.50171	21.6341	-10.7997
 420	1	7	-0.215975	-4.28102	22.6016	-10.9097
 421	1	8	0.063789	-3.52268	22.191	-11.5888
 422	1	8	0.072206	-3.79385	22.7325	-9.94235
 423	1	8	0.045489	-4.55423	23.5899	-11.3086
 424	1	7	0.005306	-6.7273	22.2619	-10.0586
 425	1	7	0.164932	-7.27151	21.1923	-9.04227
 426	1	8	0.005277	-7.51277	22.6032	-10.7473
 427	1	8	0.017604	-6.35745	23.1401	-9.52231
 428	1	3	0.008363	-6.16389	20.1334	-9.03085
 429	1	7	-0.151488	-8.59559	20.5652	-9.53961
 430	1	7	-0.269275	-7.42322	21.8556	-7.62328
 431	1	3	0.096378	-5.14994	20.4822	-9.90737
 432	1	8	0.063418	-7.85375	21.1361	-6.91425
 433	1	8	0.061085	-8.05561	22.7586	-7.61881
 434	1	8	0.065045	-6.43726	22.1514	-7.22083
 435	1	3	-0.142025	-5.98462	18.976	-8.25478
 436	1	3	-0.448546	-3.92907	19.7957	-9.97317
 437	1	3	0.277842	-3.69086	18.6966	-9.12611
 438	1	3	-0.409063	-4.7685	18.2534	-8.32268
 439	1	6	0.203923	-3.17653	20.1108	-10.6803
 440	1	8	0.016419	-9.32276	21.3161	-9.87042
 441	1	8	0.049665	-9.06584	19.9639	-8.75169
 442	1	8	0.035794	-8.43132	19.894	-10.3885
 443	1	6	0.161583	-6.75013	18.6937	-7.53925
 444	1	6	0.199011	-4.63373	17.4262	-7.65185
 445	1	1	0.463181	5.17824	-2.39953	-11.708
 446	1	2	0.074399	5.48048	-1.05821	-11.3954
 447	1	3	0.034296	4.1666	-0.421218	-11.2846
 448	1	2	0.051625	3.83169	-2.68037	-11.7661
 449	1	3	0.019035	3.17591	-1.37276	-11.4942
 450	1	5	-0.389616	6.54852	-0.575672	-11.0525
 451	1	5	-0.380104	3.28488	-3.72913	-12.0813
 452	1	3	-0.045097	3.89428	0.918299	-11.0491
 453	1	3	-0.056032	1.82103	-1.08581	-11.2992
 454	1	3	-0.174781	1.51058	0.237214	-10.9402
 455	1	3	-0.129342	2.5282	1.24196	-10.8064
 456	1	6	0.168842	4.7028	1.67144	-11.0071
 457	1	6	0.15893	1.08184	-1.87489	-11.4123
 458	1	6	0.147704	0.474725	0.506195	-10.7865
 459	1	2	0.584577	2.11189	2.66678	-10.501
 460	1	3	-0.046755	0.775871	3.14278	-11.0272
 461	1	3	-0.110868	0.371578	2.84484	-12.3385
 462	1	3	-0.046132	-0.951559	3.12076	-12.6999
 463	1	3	-0.135873	-0.11999	3.80272	-10.1681
 464	1	3	-0.117662	-1.41787	4.14627	-10.5716
 465	1	3	-0.064457	-1.82894	3.74995	-11.8543
 466	1	2	0.492569	-3.09792	4.02545	-12.5978
 467	1	1	-0.072087	-2.9077	3.51668	-13.8755
 468	1	2	0.477555	-1.65965	2.92092	-13.9827
 469	1	3	0.042617	-3.65812	3.81963	-15.0429
 470	1	3	-0.20367	-3.72932	5.13529	-15.5011
 471	1	3	-0.057018	-4.15742	5.41627	-16.8161
 472	1	3	-0.18182	-4.11584	2.80099	-15.899
 473	1	3	-0.14326	-4.49401	3.08002	-17.224
 474	1	3	0.043342	-4.49709	4.39832	-17.7208
 475	1	6	0.163244	-3.43953	5.9495	-14.8267
 476	1	6	0.101178	-4.1903	6.45518	-17.1264
 477	1	6	0.165346	-2.06111	4.69174	-9.90605
 478	1	6	0.135111	0.201632	4.03667	-9.16255
 479	1	6	0.171751	1.04531	2.36674	-13.026
 480	1	5	-0.478239	-1.23038	2.30178	-14.9372
 481	1	5	-0.481107	-4.07832	4.62715	-12.1826
 482	1	5	-0.49957	2.86783	3.41918	-9.91423
 483	1	6	0.151248	-4.14233	1.75731	-15.5731
 484	1	6	0.146138	-4.76866	2.24804	-17.8389
 485	1	7	0.044043	-4.73596	4.75593	-19.2075
 486	1	7	-0.215975	-3.4808	5.47492	-19.7868
 487	1	8	0.063789	-3.62052	5.69827	-20.8431
 488	1	8	0.072206	-2.58414	4.83669	-19.6953
 489	1	8	0.045489	-3.29543	6.43308	-19.2925
 490	1	7	0.005306	-5.05053	3.52633	-20.1111
 491	1	7	0.164932	-6.58275	3.32622	-20.1691
 492	1	8	0.005277	-4.53144	2.5841	-19.8556
 493	1	8	0.017604	-4.66178	3.74541	-21.116
 494	1	3	0.008363	-7.03427	4.72575	-19.7781
 495	1	7	-0.151488	-7.1343	2.24437	-19.1941
 496	1	7	-0.269275	-6.99734	2.94705	-21.6034
 497	1	3	0.096378	-6.02893	5.56789	-19.3445
 498	1	8	0.063418	-6.80078	1.88402	-21.8137
 499	1	8	0.061085	-6.45072	3.5188	-22.3587
 500	1	8	0.065045	-8.07267	3.11573	-21.8032
 501	1	3	-0.142025	-8.3166	5.23876	-19.8599
 502	1	3	-0.448546	-6.24064	6.95631	-19.1131
 503	1	3	0.277842	-7.52613	7.50945	-19.3018
 504	1	3	-0.409063	-8.5704	6.59723	-19.6147
 505	1	6	0.203923	-5.40161	7.5703	-18.8433
 506	1	8	0.016419	-8.22717	2.13743	-19.3116
 507	1	8	0.049665	-6.96187	2.50772	-18.1385
 508	1	8	0.035794	-6.66204	1.26394	-19.3953
 509	1	6	0.161583	-9.11037	4.59133	-20.1772
 510	1	6	0.199011	-9.57879	6.94996	-19.7689
 511	1	7	0.070548	6.71245	-3.90195	-10.4499
 512	1	7	0.506757	6.23714	-3.38478	-11.8211
 513	1	8	-0.012767	7.57924	-4.54728	-10.5893
 514	1	8	-0.014806	7.07937	-3.05243	-9.84935
 515	1	9	-0.274996	5.87631	-4.45243	-12.5761
 516	1	9	-0.274736	7.27025	-2.84456	-12.5106
 517	1	1	0.463181	-10.5533	6.74894	-8.17867
 518	1	2	0.074399	-10.2537	5.39781	-8.36649
 519	1	3	0.034296	-8.84608	5.32495	-8.75678
 520	1	2	0.051625	-9.45969	7.54155	-8.54369
 521	1	3	0.019035	-8.3564	6.6069	-8.91998
 522	1	5	-0.389616	-10.9678	4.4301	-8.34514
 523	1	5	-0.380104	-9.43142	8.76292	-8.60485
 524	1	3	-0.045097	-8.04036	4.19824	-8.96683
 525	1	3	-0.056032	-7.02429	6.84413	-9.31058
 526	1	3	-0.174781	-6.24072	5.72103	-9.6471
 527	1	3	-0.129342	-6.70921	4.38031	-9.45262
 528	1	6	0.168842	-8.47005	3.2009	-8.95179
 529	1	6	0.15893	-6.66536	7.86194	-9.43102
 530	1	6	0.147704	-5.20366	5.8796	-9.99084
 531	1	2	0.584577	-5.946	3.19962	-10.0149
 532	1	3	-0.046755	-4.90364	2.45189	-9.15111
 533	1	3	-0.110868	-3.98907	1.4544	-9.71266
 534	1	3	-0.046132	-3.05995	0.806349	-8.82487
 535	1	3	-0.135873	-4.94315	2.66196	-7.72181
 536	1	3	-0.117662	-4.0272	1.99536	-6.91245
 537	1	3	-0.064457	-3.09565	1.09266	-7.46868
 538	1	2	0.492569	-2.01456	0.290838	-6.82299
 539	1	1	-0.072087	-1.33358	-0.457843	-7.8029
 540	1	2	0.477555	-1.99061	-0.253111	-9.04231
 541	1	3	0.042617	-0.208001	-1.33851	-7.57289
 542	1	3	-0.20367	0.701844	-1.14881	-6.50826
 543	1	3	-0.057018	1.68669	-2.11348	-6.19287
 544	1	3	-0.18182	0.010502	-2.47054	-8.37567
 545	1	3	-0.14326	1.07583	-3.38663	-8.15035
 546	1	3	0.043342	1.93863	-3.20403	-7.06021
 547	1	6	0.163244	0.605305	-0.287448	-5.85655
 548	1	6	0.101178	2.28847	-1.90437	-5.30881
 549	1	6	0.165346	-4.00661	2.15628	-5.84361
 550	1	6	0.135111	-5.64452	3.35452	-7.25067
 551	1	6	0.171751	-4.01862	1.19724	-10.7874
 552	1	5	-0.478239	-1.75538	-0.752792	-10.1256
 553	1	5	-0.481107	-1.73713	0.448766	-5.64536
 554	1	5	-0.49957	-6.24453	2.80779	-11.1202
 555	1	6	0.151248	-0.683159	-2.67346	-9.18606
 556	1	6	0.146138	1.22154	-4.18848	-8.87137
 557	1	7	0.044043	3.00732	-4.2822	-6.72348
 558	1	7	-0.215975	3.89798	-3.8197	-5.53222
 559	1	8	0.063789	4.80677	-4.45803	-5.42075
 560	1	8	0.072206	3.34525	-3.86738	-4.58072
 561	1	8	0.045489	4.25214	-2.79042	-5.63244
 562	1	7	0.005306	2.27701	-5.6375	-6.36041
 563	1	7	0.164932	2.71445	-6.80796	-7.35452
 564	1	8	0.005277	1.1793	-5.54485	-6.40688
 565	1	8	0.017604	2.48355	-5.92489	-5.30268
 566	1	3	0.008363	3.83114	-6.13658	-8.09669
 567	1	7	-0.151488	1.62574	-7.1741	-8.42862
 568	1	7	-0.269275	3.16979	-8.05526	-6.53123
 569	1	3	0.096378	3.88277	-4.74235	-7.90548
 570	1	8	0.063418	3.80584	-7.75335	-5.68577
 571	1	8	0.061085	3.71689	-8.79667	-7.12248
 572	1	8	0.065045	2.29894	-8.58678	-6.06555
 573	1	3	-0.142025	4.69849	-6.81747	-8.96259
 574	1	3	-0.448546	4.86795	-4.01347	-8.61529
 575	1	3	0.277842	5.66672	-4.6668	-9.61991
 576	1	3	-0.409063	5.5627	-6.06324	-9.75691
 577	1	6	0.203923	4.95846	-2.94736	-8.40096
 578	1	8	0.016419	1.39808	-6.31486	-9.04853
 579	1	8	0.049665	0.676748	-7.51939	-8.01695
 580	1	8	0.035794	1.99559	-7.94304	-9.14541
 581	1	6	0.161583	4.63999	-7.9033	-9.04999
 582	1	6	0.199011	6.19763	-6.5823	-10.4773
 583	1	7	0.070548	-13.1358	6.98776	-8.50666
 584	1	7	0.506757	-11.8569	7.30611	-7.63682
 585	1	8	-0.012767	-14.043	7.40733	-8.04438
 586	1	8	-0.014806	-13.2901	5.92986	-8.45554
 587	1	9	-0.274996	-11.8916	8.62802	-7.34203
 588	1	9	-0.274736	-12.1398	6.77638	-6.39465
 589	1	1	0.463181	-5.86625	17.539	-2.44535
 590	1	2	0.074399	-4.91199	17.7466	-3.48967
 591	1	3	0.034296	-4.58431	16.371	-4.0039
 592	1	2	0.051625	-6.21461	16.2032	-2.37651
 593	1	3	0.019035	-5.48282	15.4815	-3.40388
 594	1	5	-0.389616	-4.24927	18.7834	-3.69969
 595	1	5	-0.380104	-7.01156	15.6916	-1.63822
 596	1	3	-0.045097	-3.66813	15.9088	-4.97816
 597	1	3	-0.056032	-5.60223	14.113	-3.73895
 598	1	3	-0.174781	-4.87063	13.7864	-4.91977
 599	1	3	-0.129342	-3.87425	14.6336	-5.53118
 600	1	6	0.168842	-2.94637	16.6061	-5.41292
 601	1	6	0.15893	-6.29252	13.4593	-3.22872
 602	1	6	0.147704	-5.00865	12.8275	-5.37276
 603	1	2	0.584577	-3.27566	14.1726	-6.83216
 604	1	3	-0.046755	-4.20129	13.4904	-7.85844
 605	1	3	-0.110868	-5.59749	13.7193	-7.98373
 606	1	3	-0.046132	-6.33248	13.2073	-9.04256
 607	1	3	-0.135873	-3.58538	12.665	-8.84505
 608	1	3	-0.117662	-4.35328	12.1656	-9.92752
 609	1	3	-0.064457	-5.69913	12.4589	-10.0018
 610	1	2	0.492569	-6.7109	12.1366	-11.0913
 611	1	1	-0.072087	-7.93529	12.698	-10.6724
 612	1	2	0.477555	-7.75068	13.4742	-9.48035
 613	1	3	0.042617	-9.21315	12.2477	-11.1888
 614	1	3	-0.20367	-9.5838	12.0155	-12.5492
 615	1	3	-0.057018	-10.899	11.6496	-12.9263
 616	1	3	-0.18182	-10.1569	11.8761	-10.2425
 617	1	3	-0.14326	-11.4044	11.392	-10.5912
 618	1	3	0.043342	-11.8022	11.1965	-11.9508
 619	1	6	0.163244	-8.86679	12.286	-13.3615
 620	1	6	0.101178	-11.1096	11.6779	-13.9664
 621	1	6	0.165346	-3.87599	11.6182	-10.6989
 622	1	6	0.135111	-2.5255	12.465	-8.72987
 623	1	6	0.171751	-6.19982	14.2603	-7.21747
 624	1	5	-0.478239	-8.52927	14.2185	-8.92045
 625	1	5	-0.481107	-6.42814	11.612	-12.17
 626	1	5	-0.49957	-2.10095	14.2965	-7.12077
 627	1	6	0.151248	-9.94626	11.9564	-9.19989
 628	1	6	0.146138	-12.0356	11.1389	-9.81352
 629	1	7	0.044043	-13.1372	10.5185	-12.2649
 630	1	7	-0.215975	-14.2949	11.3723	-11.7406
 631	1	8	0.063789	-15.2964	10.9241	-11.8986
 632	1	8	0.072206	-14.1416	12.3563	-12.1787
 633	1	8	0.045489	-14.1948	11.4758	-10.6392
 634	1	7	0.005306	-13.2894	10.0933	-13.7662
 635	1	7	0.164932	-12.6846	8.71906	-13.9915
 636	1	8	0.005277	-12.894	10.8435	-14.4834
 637	1	8	0.017604	-14.3915	10.0634	-13.9453
 638	1	3	0.008363	-12.9419	8.13695	-12.6068
 639	1	7	-0.151488	-11.1888	8.74741	-14.3503