pySIMM System Object

492 atoms
540 bonds
958 angles
1523 dihedrals
147 impropers

10 atom types
13 bond types
25 angle types
12 dihedral types
4 improper types

-54.238332 54.238332 xlo xhi
-54.238332 54.238332 ylo yhi
-54.238332 54.238332 zlo zhi

Masses

   1	12.01	# c3
   2	1.008	# hc
   3	19.0	# f
   4	1.008	# h2
   5	14.01	# n
   6	12.01	# c
   7	12.01	# ca
   8	1.008	# hn
   9	16.0	# o
  10	1.008	# ha

Pair Coeffs

   1	0.1094	3.3996695084235347	# c3
   2	0.0157	2.649532787749369	# hc
   3	0.061	3.1181455134911875	# f
   4	0.0157	2.2931733004932333	# h2
   5	0.17	3.249998523775958	# n
   6	0.086	3.3996695084235347	# c
   7	0.086	3.3996695084235347	# ca
   8	0.0157	1.069078461768407	# hn
   9	0.21	2.959921901149463	# o
  10	0.015	2.59964245953351	# ha

Bond Coeffs

   1	331.7	1.0961	# c3,h2
   2	330.6	1.0969	# c3,hc
   3	300.9	1.5375	# c3,c3
   4	356.9	1.3497	# c3,f
   5	637.7	1.2183	# c,o
   6	321.0	1.5156	# c3,ca
   7	384.2	1.4121	# ca,n
   8	403.2	1.0129	# hn,n
   9	427.6	1.3789	# c,n
  10	461.1	1.3984	# ca,ca
  11	345.9	1.4906	# c,ca
  12	345.8	1.086	# ca,ha
  13	328.7	1.4619	# c3,n

Angle Coeffs

   1	46.34	109.8	# c3,c3,hc
   2	70.89	107.36	# f,c3,f
   3	39.4	107.58	# hc,c3,hc
   4	66.11	109.24	# c3,c3,f
   5	46.25	110.22	# c3,c3,h2
   6	51.15	108.79	# f,c3,h2
   7	62.86	111.51	# c3,c3,c3
   8	64.28	120.33	# c,ca,ca
   9	63.53	120.77	# c3,ca,ca
  10	66.62	120.02	# ca,ca,ca
  11	74.22	123.05	# n,c,o
  12	63.74	127.08	# c,n,c
  13	63.15	112.07	# c3,c3,ca
  14	48.18	119.88	# ca,ca,ha
  15	67.87	120.19	# ca,ca,n
  16	68.72	122.6	# ca,c,o
  17	63.0	118.11	# ca,c,ca
  18	63.82	123.71	# c,n,ca
  19	67.68	115.25	# ca,c,n
  20	63.56	112.24	# ca,c3,ca
  21	48.33	117.55	# c,n,hn
  22	46.8	110.47	# ca,c3,hc
  23	63.39	120.69	# c,n,c3
  24	65.91	111.61	# c3,c3,n
  25	69.52	110.41	# f,c3,n

Dihedral Coeffs

   1	2	0.0	3	0	0.19	1	0	# hc,c3,c3,f
   2	1	0.15555555555555556	3	0	# X,c3,c3,X
   3	1	0.16	3	0	# hc,c3,c3,c3
   4	3	0.18	3	0	0.25	2	180	0.2	1	180	# c3,c3,c3,c3
   5	2	2.5	2	180	2.0	1	0	# hn,n,c,o
   6	1	3.625	2	180	# X,ca,ca,X
   7	1	1.0	2	180	# X,c,ca,X
   8	1	0.0	2	0	# X,c3,ca,X
   9	1	2.5	2	180	# X,c,n,X
  10	1	0.45	2	180	# X,ca,n,X
  11	4	0.5	4	180	0.15	3	180	0.0	2	0	0.53	1	0	# c3,c3,n,c
  12	1	0.0	2	0	# X,c3,n,X

Improper Coeffs

   1	10.5	-1	2	# c,X,X,o
   2	1.1	-1	2	# ca,X,X,ha
   3	1.1	-1	2	# ca,ca,ca,c3
   4	1.1	-1	2	# n,X,X,hn

Atoms

   1	1	1	0.070548	-31.9008	0.434398	21.8262
   2	1	1	0.506757	-33.1412	0.413722	20.9505
   3	1	2	-0.012767	-32.2225	0.393005	22.8644
   4	1	2	-0.014806	-31.3736	-0.494798	21.6023
   5	1	3	-0.274996	-34.1003	1.14952	21.5175
   6	1	3	-0.274736	-33.6456	-0.826962	20.8639
   7	1	1	0.070548	-29.9889	1.92057	22.5366
   8	1	1	0.506757	-31.0709	1.66735	21.4966
   9	1	2	-0.012767	-30.4666	1.94674	23.5292
  10	1	2	-0.014806	-29.6023	2.94832	22.3729
  11	1	3	-0.274996	-31.8327	2.7913	21.5067
  12	1	3	-0.274736	-30.5686	1.54613	20.23
  13	1	5	0.463181	-27.4508	5.46454	4.90419
  14	1	6	0.074399	-26.2918	4.80599	5.33705
  15	1	7	0.034296	-26.5259	4.40829	6.7504
  16	1	6	0.051625	-28.4036	5.5713	5.96253
  17	1	7	0.019035	-27.7703	4.84921	7.10845
  18	1	9	-0.389616	-25.3552	4.38652	4.68881
  19	1	9	-0.380104	-29.4083	6.26208	6.06309
  20	1	7	-0.045097	-25.6296	3.84118	7.67951
  21	1	7	-0.056032	-28.2021	4.70427	8.41075
  22	1	7	-0.174781	-27.3452	4.09375	9.35266
  23	1	7	-0.129342	-26.0515	3.64288	9.02609
  24	1	10	0.168842	-24.6465	3.51784	7.34845
  25	1	10	0.15893	-29.1635	5.08157	8.71344
  26	1	10	0.147704	-27.6757	4.01778	10.3817
  27	1	6	0.584577	-25.1476	3.06444	10.1121
  28	1	7	-0.046755	-25.7412	2.19301	11.2372
  29	1	7	-0.110868	-25.08	1.98695	12.4804
  30	1	7	-0.046132	-25.6685	1.15199	13.473
  31	1	7	-0.135873	-26.9411	1.49433	11.0048
  32	1	7	-0.117662	-27.5159	0.639828	11.9815
  33	1	7	-0.064457	-26.8722	0.495629	13.2425
  34	1	6	0.492569	-27.2634	-0.283031	14.4458
  35	1	5	-0.072087	-26.2716	-0.0333988	15.3702
  36	1	6	0.477555	-25.3093	0.846642	14.8927
  37	1	7	0.042617	-26.3546	-0.487864	16.7322
  38	1	7	-0.20367	-26.7491	0.384545	17.7726
  39	1	7	-0.057018	-26.9654	-0.0530449	19.0951
  40	1	7	-0.18182	-26.1477	-1.83328	17.0818
  41	1	7	-0.14326	-26.3535	-2.27732	18.4046
  42	1	7	0.043342	-26.7961	-1.40041	19.4251
  43	1	10	0.163244	-26.878	1.44798	17.5365
  44	1	10	0.101178	-27.2091	0.695567	19.8419
  45	1	10	0.165346	-28.4555	0.0846389	11.7966
  46	1	10	0.135111	-27.4595	1.58268	10.0494
  47	1	10	0.171751	-24.1385	2.49433	12.656
  48	1	9	-0.478239	-24.3561	1.23513	15.5369
  49	1	9	-0.481107	-28.1261	-1.14024	14.5033
  50	1	9	-0.49957	-23.9475	3.07555	9.89575
  51	1	10	0.151248	-25.8675	-2.53632	16.3066
  52	1	10	0.146138	-26.2068	-3.33665	18.6232
  53	1	1	0.044043	-27.0522	-1.92636	20.8348
  54	1	1	-0.215975	-28.1144	-3.04692	20.7216
  55	1	2	0.063789	-28.3398	-3.50146	21.6945
  56	1	2	0.072206	-27.7801	-3.87811	20.0909
  57	1	2	0.045489	-29.0388	-2.65435	20.2866
  58	1	1	0.005306	-25.7032	-2.43516	21.4628
  59	1	1	0.164932	-25.1908	-1.47051	22.5535
  60	1	2	0.005277	-24.969	-2.61	20.6742
  61	1	2	0.017604	-25.8644	-3.40856	21.922
  62	1	7	0.008363	-26.4615	-0.623387	22.7755
  63	1	1	-0.151488	-24.0148	-0.63144	22.0101
  64	1	1	-0.269275	-24.6659	-2.20545	23.7914
  65	1	7	0.096378	-27.4754	-0.897473	21.8601
  66	1	2	0.063418	-24.1023	-1.50917	24.4344
  67	1	2	0.061085	-23.9978	-3.04266	23.515
  68	1	2	0.065045	-25.4989	-2.58009	24.3982
  69	1	7	-0.142025	-26.6577	0.431287	23.6714
  70	1	7	-0.448546	-28.6576	-0.154357	21.7862
  71	1	7	0.277842	-28.8335	0.953546	22.6438
  72	1	7	-0.409063	-27.8332	1.21461	23.6026
  73	1	10	0.203923	-29.3777	-0.421964	21.0077
  74	1	2	0.016419	-23.1309	-1.26299	21.8954
  75	1	2	0.049665	-23.721	0.156839	22.7265
  76	1	2	0.035794	-24.2539	-0.163313	21.0511
  77	1	10	0.161583	-25.8859	0.654974	24.4123
  78	1	10	0.199011	-27.929	2.07556	24.2537
  79	1	5	0.463181	-14.0048	16.9779	4.05631
  80	1	6	0.074399	-13.4949	15.749	4.49451
  81	1	7	0.034296	-14.2974	14.649	3.80203
  82	1	6	0.051625	-15.0276	16.7672	3.0938
  83	1	7	0.019035	-15.2173	15.264	2.95862
  84	1	9	-0.389616	-12.7303	15.579	5.42073
  85	1	9	-0.380104	-15.6478	17.5892	2.41612
  86	1	7	-0.045097	-14.1729	13.2322	3.81724
  87	1	7	-0.056032	-16.1253	14.5178	2.19156
  88	1	7	-0.174781	-16.0591	13.1103	2.26376
  89	1	7	-0.129342	-15.0621	12.4469	3.00887
  90	1	10	0.168842	-13.3763	12.7444	4.40972
  91	1	10	0.15893	-16.8769	15.0006	1.57129
  92	1	10	0.147704	-16.8055	12.5546	1.67875
  93	1	6	0.584577	-14.9766	10.9114	2.93823
  94	1	7	-0.046755	-16.1875	10.0654	2.50987
  95	1	7	-0.110868	-17.4277	10.3445	3.06802
  96	1	7	-0.046132	-18.5597	9.61937	2.67708
  97	1	7	-0.135873	-16.0651	8.9914	1.58542
  98	1	7	-0.117662	-17.1993	8.26313	1.19155
  99	1	7	-0.064457	-18.4417	8.56762	1.78395
 100	1	6	0.492569	-19.8648	8.14537	1.49371
 101	1	5	-0.072087	-20.7024	8.90299	2.29599
 102	1	6	0.477555	-20.0009	9.91102	2.94343
 103	1	7	0.042617	-22.1314	8.95482	2.07078
 104	1	7	-0.20367	-22.7953	10.1895	1.86727
 105	1	7	-0.057018	-24.1972	10.2675	1.65473
 106	1	7	-0.18182	-22.9539	7.81525	1.99914
 107	1	7	-0.14326	-24.3599	7.93679	2.00213
 108	1	7	0.043342	-25.0222	9.1484	1.82808
 109	1	10	0.163244	-22.2034	11.0959	1.80981
 110	1	10	0.101178	-24.6118	11.2289	1.39954
 111	1	10	0.165346	-17.1868	7.5672	0.346593
 112	1	10	0.135111	-15.0748	8.70947	1.19593
 113	1	10	0.171751	-17.5118	11.1621	3.78236
 114	1	9	-0.478239	-20.4632	10.8375	3.59588
 115	1	9	-0.481107	-20.2659	7.52422	0.510847
 116	1	9	-0.49957	-13.9478	10.4064	3.33041
 117	1	10	0.151248	-22.5481	6.81629	2.15025
 118	1	10	0.146138	-24.9591	7.02227	1.98548
 119	1	1	0.044043	-26.5527	9.25505	1.67605
 120	1	1	-0.215975	-27.1025	10.4957	2.39234
 121	1	2	0.063789	-26.827	10.502	3.45563
 122	1	2	0.072206	-28.1917	10.3883	2.42966
 123	1	2	0.045489	-26.8093	11.4686	1.96058
 124	1	1	0.005306	-26.976	9.20062	0.154242
 125	1	1	0.164932	-28.2536	8.29854	0.0130746
 126	1	2	0.005277	-26.1735	8.67683	-0.350628
 127	1	2	0.017604	-27.0763	10.1606	-0.291203
 128	1	7	0.008363	-28.1652	7.47344	1.27487
 129	1	1	-0.151488	-28.1739	7.43118	-1.24981
 130	1	1	-0.269275	-29.5662	9.18323	-0.0542745
 131	1	7	0.096378	-27.3028	8.04286	2.20747
 132	1	2	0.063418	-29.8289	9.58154	0.945917
 133	1	2	0.061085	-30.3908	8.58938	-0.44061
 134	1	2	0.065045	-29.4882	9.98715	-0.800766
 135	1	7	-0.142025	-28.8212	6.24851	1.48253
 136	1	7	-0.448546	-27.0283	7.36227	3.39378
 137	1	7	0.277842	-27.6751	6.136	3.65819
 138	1	7	-0.409063	-28.5784	5.57488	2.68931
 139	1	10	0.203923	-26.2661	7.75798	4.06869
 140	1	2	0.016419	-29.0999	6.88608	-1.42673
 141	1	2	0.049665	-27.4104	6.65164	-1.14747
 142	1	2	0.035794	-27.9695	8.04869	-2.10648
 143	1	10	0.161583	-29.491	5.81028	0.746036
 144	1	10	0.199011	-29.0352	4.58551	2.86891
 145	1	5	0.463181	-6.97574	7.15447	-1.13942
 146	1	6	0.074399	-7.04414	8.2347	-0.239658
 147	1	7	0.034296	-8.43126	8.73742	-0.351243
 148	1	6	0.051625	-8.22314	6.89448	-1.76394
 149	1	7	0.019035	-9.14624	7.89728	-1.17895
 150	1	9	-0.389616	-6.14884	8.71799	0.411096
 151	1	9	-0.380104	-8.56311	5.98556	-2.50918
 152	1	7	-0.045097	-9.01748	9.89225	0.154544
 153	1	7	-0.056032	-10.4684	8.13948	-1.52839
 154	1	7	-0.174781	-11.0669	9.30211	-1.03741
 155	1	7	-0.129342	-10.3362	10.177	-0.230466
 156	1	10	0.168842	-8.52449	10.5452	0.877408
 157	1	10	0.15893	-11.0428	7.45573	-2.17378
 158	1	10	0.147704	-12.1216	9.53616	-1.30985
 159	1	6	0.584577	-11.0209	11.4344	0.177774
 160	1	7	-0.046755	-10.6498	12.7925	-0.414873
 161	1	7	-0.110868	-11.3778	13.9172	-0.00862057
 162	1	7	-0.046132	-10.8021	15.1848	-0.196028
 163	1	7	-0.135873	-9.42631	12.9972	-1.07334
 164	1	7	-0.117662	-9.00377	14.3151	-1.48831
 165	1	7	-0.064457	-9.71103	15.3981	-1.00331
 166	1	6	0.492569	-9.35749	16.8453	-0.874284
 167	1	5	-0.072087	-10.2466	17.3981	0.0303639
 168	1	6	0.477555	-11.2228	16.509	0.377931
 169	1	7	0.042617	-9.96526	18.4702	0.914189
 170	1	7	-0.20367	-9.0089	18.2397	1.92623
 171	1	7	-0.057018	-8.88797	19.0805	3.03682
 172	1	7	-0.18182	-10.7522	19.5996	0.984648
 173	1	7	-0.14326	-10.6161	20.4099	2.10717
 174	1	7	0.043342	-9.8226	20.1043	3.21066
 175	1	10	0.163244	-8.49301	17.2754	1.94247
 176	1	10	0.101178	-8.25002	18.8132	3.8682
 177	1	10	0.165346	-8.10007	14.468	-2.09582
 178	1	10	0.135111	-8.84855	12.1127	-1.3288
 179	1	10	0.171751	-12.2589	13.7635	0.621737
 180	1	9	-0.478239	-11.963	16.6635	1.35232
 181	1	9	-0.481107	-8.44239	17.4094	-1.41018
 182	1	9	-0.49957	-12.0073	11.3732	0.890565
 183	1	10	0.151248	-11.5221	19.8052	0.233319
 184	1	10	0.146138	-11.3441	21.2076	2.20082
 185	1	1	0.044043	-10.3384	20.5128	4.61469
 186	1	1	-0.215975	-9.56624	19.9486	5.81191
 187	1	2	0.063789	-8.5033	20.1367	5.76216
 188	1	2	0.072206	-9.67089	18.8656	5.8609
 189	1	2	0.045489	-9.93331	20.3747	6.76965
 190	1	1	0.005306	-10.4787	22.0415	4.85736
 191	1	1	0.164932	-11.9619	22.2767	5.30035
 192	1	2	0.005277	-10.2093	22.5554	3.94171
 193	1	2	0.017604	-9.84476	22.4399	5.65191
 194	1	7	0.008363	-12.5694	20.9039	5.11702
 195	1	1	-0.151488	-12.5846	23.3394	4.32434
 196	1	1	-0.269275	-12.2665	22.7221	6.80339
 197	1	7	0.096378	-11.7012	19.9454	4.71198
 198	1	2	0.063418	-11.759	23.6578	7.03778
 199	1	2	0.061085	-12.0071	21.9406	7.53792
 200	1	2	0.065045	-13.3358	22.9522	6.93108
 201	1	7	-0.142025	-13.907	20.5589	5.4011
 202	1	7	-0.448546	-12.098	18.6487	4.29453
 203	1	7	0.277842	-13.4741	18.2809	4.47592
 204	1	7	-0.409063	-14.3305	19.2536	5.10496
 205	1	10	0.203923	-11.4269	17.97	3.79926
 206	1	2	0.016419	-11.8348	24.0759	4.02283
 207	1	2	0.049665	-13.4844	23.8691	4.6564
 208	1	2	0.035794	-12.917	22.8668	3.41504
 209	1	10	0.161583	-14.5811	21.3396	5.80969
 210	1	10	0.199011	-15.3357	18.9626	5.32438
 211	1	1	0.070548	-5.41006	5.31473	-0.329526
 212	1	1	0.506757	-5.75361	6.4165	-1.36302
 213	1	2	-0.012767	-4.55251	5.64891	0.318007
 214	1	2	-0.014806	-4.9802	4.44986	-0.834618
 215	1	3	-0.274996	-5.66652	5.81142	-2.54902
 216	1	3	-0.274736	-4.64843	7.27102	-1.38447
 217	1	5	0.463181	-2.01194	-10.7733	3.00246
 218	1	6	0.074399	-3.00058	-9.93795	2.46479
 219	1	7	0.034296	-2.43232	-9.42859	1.16355
 220	1	6	0.051625	-0.898813	-10.794	2.16634
 221	1	7	0.019035	-1.11939	-9.83946	1.09533
 222	1	9	-0.389616	-4.18651	-9.82452	2.84322
 223	1	9	-0.380104	0.118617	-11.4768	2.27058
 224	1	7	-0.045097	-2.99514	-8.57981	0.152258
 225	1	7	-0.056032	-0.24446	-9.46878	0.0773055
 226	1	7	-0.174781	-0.742577	-8.58366	-0.852342
 227	1	7	-0.129342	-2.06554	-8.09987	-0.792481
 228	1	10	0.168842	-4.07642	-8.23735	0.179773
 229	1	10	0.15893	0.745702	-9.92028	0.0122703
 230	1	10	0.147704	-0.0737991	-8.24952	-1.64866
 231	1	6	0.584577	-2.53623	-7.20821	-1.97737
 232	1	7	-0.046755	-3.73193	-6.26584	-1.79908
 233	1	7	-0.110868	-3.9416	-5.5042	-0.607761
 234	1	7	-0.046132	-4.95435	-4.55911	-0.65318
 235	1	7	-0.135873	-4.53109	-6.03558	-2.96592
 236	1	7	-0.117662	-5.61757	-5.18085	-2.88718
 237	1	7	-0.064457	-5.80262	-4.45559	-1.73476
 238	1	6	0.492569	-6.90508	-3.54156	-1.40377
 239	1	5	-0.072087	-6.62271	-2.98936	-0.143859
 240	1	6	0.477555	-5.51301	-3.65599	0.393461
 241	1	7	0.042617	-7.44329	-1.94449	0.413529
 242	1	7	-0.20367	-6.76604	-0.874184	1.02625
 243	1	7	-0.057018	-7.33594	0.376342	1.2487
 244	1	7	-0.18182	-8.77967	-1.6516	-0.0362326
 245	1	7	-0.14326	-9.3165	-0.364596	0.129885
 246	1	7	0.043342	-8.61313	0.727917	0.712752
 247	1	10	0.163244	-5.73229	-0.976548	1.36732
 248	1	10	0.101178	-6.76654	1.10743	1.79312
 249	1	10	0.165346	-6.28652	-5.06933	-3.76369
 250	1	10	0.135111	-4.34962	-6.52379	-3.94172
 251	1	10	0.171751	-3.27289	-5.61794	0.209333
 252	1	9	-0.478239	-4.90679	-3.38157	1.42042
 253	1	9	-0.481107	-7.87474	-3.42358	-2.12491
 254	1	9	-0.49957	-1.95491	-7.4243	-3.03314
 255	1	10	0.151248	-9.39677	-2.43463	-0.449231
 256	1	10	0.146138	-10.3559	-0.233319	-0.159005
 257	1	1	0.044043	-9.31852	2.05218	0.921878
 258	1	1	-0.215975	-10.3082	2.23224	-0.296826
 259	1	2	0.063789	-10.8015	3.19997	-0.0985794
 260	1	2	0.072206	-11.1173	1.5404	-0.374892
 261	1	2	0.045489	-9.81988	2.38978	-1.29833
 262	1	1	0.005306	-10.066	2.02645	2.36058
 263	1	1	0.164932	-9.72682	3.39411	3.11864
 264	1	2	0.005277	-9.79357	1.13677	2.95802
 265	1	2	0.017604	-11.1333	1.89448	2.23543
 266	1	7	0.008363	-8.67311	3.97809	2.20513
 267	1	1	-0.151488	-9.13882	3.14272	4.5079
 268	1	1	-0.269275	-10.9617	4.28893	3.24753
 269	1	7	0.096378	-8.39386	3.27693	1.02806
 270	1	2	0.063418	-10.6803	5.3719	3.41167
 271	1	2	0.061085	-11.5901	3.96793	4.06985
 272	1	2	0.065045	-11.5473	4.21143	2.31518
 273	1	7	-0.142025	-7.98504	5.18146	2.54525
 274	1	7	-0.448546	-7.34678	3.67083	0.194968
 275	1	7	0.277842	-6.61024	4.83424	0.45511
 276	1	7	-0.409063	-6.98305	5.58887	1.60975
 277	1	10	0.203923	-7.15566	3.06169	-0.713337
 278	1	2	0.016419	-8.10964	2.70675	4.42573
 279	1	2	0.049665	-9.82482	2.54658	5.10449
 280	1	2	0.035794	-9.16944	4.06424	5.03786
 281	1	10	0.161583	-8.17902	5.69853	3.50202
 282	1	10	0.199011	-6.38005	6.41171	1.86393
 283	1	5	0.463181	2.85165	-0.443503	9.22675
 284	1	6	0.074399	3.09565	-1.80651	9.39448
 285	1	7	0.034296	3.54595	-1.88646	10.7772
 286	1	6	0.051625	3.052	0.324344	10.3499
 287	1	7	0.019035	3.54154	-0.677323	11.3681
 288	1	9	-0.389616	3.12017	-2.69013	8.5518
 289	1	9	-0.380104	2.86998	1.48376	10.5004
 290	1	7	-0.045097	3.9066	-2.97411	11.5066
 291	1	7	-0.056032	3.73737	-0.581741	12.7311
 292	1	7	-0.174781	4.06695	-1.74225	13.4995
 293	1	7	-0.129342	4.17604	-2.97609	12.8968
 294	1	10	0.168842	3.79159	-3.89745	10.9401
 295	1	10	0.15893	3.7064	0.411033	13.2446
 296	1	10	0.147704	4.2485	-1.5906	14.5861
 297	1	6	0.584577	4.64517	-4.26713	13.5893
 298	1	7	-0.046755	4.79115	-5.47502	12.7556
 299	1	7	-0.110868	3.67771	-6.33055	12.5013
 300	1	7	-0.046132	3.8616	-7.37972	11.5936
 301	1	7	-0.135873	5.99832	-5.62573	11.9555
 302	1	7	-0.117662	6.10987	-6.67034	10.9678
 303	1	7	-0.064457	5.02334	-7.58448	10.8639
 304	1	6	0.492569	4.75215	-8.66769	9.8613
 305	1	5	-0.072087	3.46183	-9.1509	10.1246
 306	1	6	0.477555	2.85585	-8.41813	11.1466
 307	1	7	0.042617	2.77649	-10.112	9.25301
 308	1	7	-0.20367	3.14491	-11.4783	9.13899
 309	1	7	-0.057018	2.54818	-12.3337	8.19796
 310	1	7	-0.18182	1.80515	-9.64662	8.32913
 311	1	7	-0.14326	1.06426	-10.5929	7.51914
 312	1	7	0.043342	1.41284	-11.9599	7.45554
 313	1	10	0.163244	4.05356	-11.7279	9.70148
 314	1	10	0.101178	2.85421	-13.3593	8.09762
 315	1	10	0.165346	7.02747	-6.81972	10.406
 316	1	10	0.135111	6.78301	-4.78167	11.972
 317	1	10	0.171751	2.70004	-6.18385	13.0452
 318	1	9	-0.478239	1.75388	-8.52215	11.542
 319	1	9	-0.481107	5.53337	-9.13623	9.07496
 320	1	9	-0.49957	5.3264	-4.25195	14.5917
 321	1	10	0.151248	1.53408	-8.56333	8.2595
 322	1	10	0.146138	0.260297	-10.1482	6.89271
 323	1	1	0.044043	0.523826	-13.0826	6.70559
 324	1	1	-0.215975	1.33038	-13.8184	5.56016
 325	1	2	0.063789	2.14975	-13.152	5.20463
 326	1	2	0.072206	0.676481	-13.9746	4.69064
 327	1	2	0.045489	1.74946	-14.7895	5.7767
 328	1	1	0.005306	0.0360439	-14.2174	7.65119
 329	1	1	0.164932	-1.47674	-14.4935	7.30403
 330	1	2	0.005277	-0.0158243	-13.9145	8.73165
 331	1	2	0.017604	0.663176	-15.0779	7.66011
 332	1	7	0.008363	-1.87505	-13.3477	6.35025
 333	1	1	-0.151488	-2.4139	-14.3179	8.57469
 334	1	1	-0.269275	-1.67201	-15.8992	6.6644
 335	1	7	0.096378	-0.786908	-12.503	6.17741
 336	1	2	0.063418	-1.26816	-15.8892	5.65676
 337	1	2	0.061085	-2.70181	-16.2563	6.41632
 338	1	2	0.065045	-1.14717	-16.6225	7.3526
 339	1	7	-0.142025	-3.04507	-13.331	5.54579
 340	1	7	-0.448546	-0.876218	-11.6091	5.09161
 341	1	7	0.277842	-2.05628	-11.577	4.21773
 342	1	7	-0.409063	-3.14769	-12.4207	4.47898
 343	1	10	0.203923	0.0474049	-11.2044	4.72756
 344	1	2	0.016419	-3.44681	-14.1505	8.18774
 345	1	2	0.049665	-2.10387	-13.3436	9.04653
 346	1	2	0.035794	-2.37728	-15.2111	9.18879
 347	1	10	0.161583	-3.82585	-14.1126	5.66714
 348	1	10	0.199011	-3.99453	-12.5184	3.76755
 349	1	1	0.070548	3.5835	0.0929177	6.78024
 350	1	1	0.506757	2.47038	0.156316	7.89604
 351	1	2	-0.012767	3.60345	-0.725491	6.1691
 352	1	2	-0.014806	3.31469	0.92198	6.10342
 353	1	3	-0.274996	2.0618	1.46969	7.92971
 354	1	3	-0.274736	1.44316	-0.500777	7.30267
 355	1	1	0.070548	5.14204	2.06572	7.60649
 356	1	1	0.506757	5.04113	0.601059	7.07109
 357	1	2	-0.012767	5.46102	2.11391	8.70178
 358	1	2	-0.014806	4.23766	2.68167	7.47364
 359	1	3	-0.274996	5.7701	0.446017	5.89601
 360	1	3	-0.274736	5.63125	-0.268035	7.90166
 361	1	5	0.463181	3.929	-3.39569	-4.88007
 362	1	6	0.074399	4.96904	-4.33638	-5.06911
 363	1	7	0.034296	5.10961	-4.94752	-3.68278
 364	1	6	0.051625	3.22881	-3.48448	-3.68291
 365	1	7	0.019035	4.14798	-4.35293	-2.86647
 366	1	9	-0.389616	5.68926	-4.4699	-6.03372
 367	1	9	-0.380104	2.30293	-2.80891	-3.22656
 368	1	7	-0.045097	6.05978	-5.89533	-3.17601
 369	1	7	-0.056032	4.23261	-4.52824	-1.45688
 370	1	7	-0.174781	5.28498	-5.27413	-0.919829
 371	1	7	-0.129342	6.16701	-6.03204	-1.76492
 372	1	10	0.168842	6.88221	-6.23845	-3.79308
 373	1	10	0.15893	3.5245	-4.05883	-0.825997
 374	1	10	0.147704	5.36261	-5.35427	0.1945
 375	1	6	0.584577	7.35667	-6.64409	-1.06705
 376	1	7	-0.046755	7.78423	-5.92524	0.176955
 377	1	7	-0.110868	8.19784	-4.59473	0.0537168
 378	1	7	-0.046132	8.52356	-3.93964	1.23407
 379	1	7	-0.135873	7.76144	-6.60057	1.3998
 380	1	7	-0.117662	8.11801	-5.9141	2.52413
 381	1	7	-0.064457	8.64328	-4.59078	2.40129
 382	1	6	0.492569	9.25246	-3.72142	3.42844
 383	1	5	-0.072087	9.34457	-2.48428	2.74235
 384	1	6	0.477555	9.09704	-2.59294	1.43273
 385	1	7	0.042617	9.58295	-1.26183	3.44064
 386	1	7	-0.20367	10.5308	-1.1207	4.42592
 387	1	7	-0.057018	10.7583	0.0949896	5.15122
 388	1	7	-0.18182	8.66853	-0.142953	3.19082
 389	1	7	-0.14326	8.8725	1.01471	3.92682
 390	1	7	0.043342	9.92802	1.19299	4.86042
 391	1	10	0.163244	11.1114	-1.94737	4.78379
 392	1	10	0.101178	11.516	0.0181717	5.91637
 393	1	10	0.165346	8.20806	-6.50851	3.42039
 394	1	10	0.135111	7.37611	-7.6181	1.56564
 395	1	10	0.171751	8.22552	-4.08755	-0.900961
 396	1	9	-0.478239	9.17235	-1.73893	0.525725
 397	1	9	-0.481107	9.2149	-3.89999	4.64479
 398	1	9	-0.49957	7.57062	-7.83429	-1.14959
 399	1	10	0.151248	7.83521	-0.137505	2.51458
 400	1	10	0.146138	8.20039	1.89057	3.85792
 401	1	1	0.044043	10.0091	2.46952	5.72415
 402	1	1	-0.215975	10.9827	2.28319	7.02055
 403	1	2	0.063789	11.9897	2.02586	6.76248
 404	1	2	0.072206	10.5855	1.53468	7.60932
 405	1	2	0.045489	11.0737	3.19404	7.62735
 406	1	1	0.005306	10.5556	3.62169	4.81109
 407	1	1	0.164932	9.36852	4.5719	4.36413
 408	1	2	0.005277	11.1571	3.22823	3.99566
 409	1	2	0.017604	11.3291	4.08256	5.39966
 410	1	7	0.008363	8.28793	4.15795	5.35286
 411	1	1	-0.151488	8.91784	4.43636	2.84804
 412	1	1	-0.269275	9.84322	6.01409	4.63594
 413	1	7	0.096378	8.54731	2.98328	6.01243
 414	1	2	0.063418	10.949	6.10487	4.42596
 415	1	2	0.061085	9.67633	6.37413	5.69425
 416	1	2	0.065045	9.36102	6.74009	3.99465
 417	1	7	-0.142025	6.98081	4.73783	5.46725
 418	1	7	-0.448546	7.62046	2.32344	6.81609
 419	1	7	0.277842	6.25601	2.7249	6.78562
 420	1	7	-0.409063	6.06196	4.00411	6.26253
 421	1	10	0.203923	7.98306	1.38596	7.28856
 422	1	2	0.016419	9.68099	4.79807	2.09688
 423	1	2	0.049665	8.00198	5.00563	2.739
 424	1	2	0.035794	8.52004	3.45116	2.59774
 425	1	10	0.161583	6.70241	5.64868	5.00496
 426	1	10	0.199011	5.03405	4.45927	6.36544
 427	1	5	0.463181	13.6627	8.19672	-13.5908
 428	1	6	0.074399	14.0642	8.10136	-12.2822
 429	1	7	0.034296	12.8564	7.77928	-11.5199
 430	1	6	0.051625	12.3408	7.9825	-13.7652
 431	1	7	0.019035	11.8346	7.70578	-12.4066
 432	1	9	-0.389616	15.1114	8.46683	-11.8571
 433	1	9	-0.380104	11.8277	8.08205	-14.8423
 434	1	7	-0.045097	12.5864	7.94988	-10.1501
 435	1	7	-0.056032	10.4933	7.74154	-11.9884
 436	1	7	-0.174781	10.1936	7.92519	-10.6406
 437	1	7	-0.129342	11.2071	7.79145	-9.69885
 438	1	10	0.168842	13.43	7.9271	-9.44129
 439	1	10	0.15893	9.72352	7.86171	-12.7263
 440	1	10	0.147704	9.13208	8.0796	-10.3397
 441	1	6	0.584577	10.8886	7.81298	-8.27391
 442	1	7	-0.046755	9.49215	7.41699	-7.75676
 443	1	7	-0.110868	8.88433	6.20408	-8.23061
 444	1	7	-0.046132	7.65952	5.8782	-7.59446
 445	1	7	-0.135873	8.81334	8.16974	-6.74066
 446	1	7	-0.117662	7.58239	7.76788	-6.18648
 447	1	7	-0.064457	6.97842	6.58596	-6.6341
 448	1	6	0.492569	5.61496	5.97324	-6.40124
 449	1	5	-0.072087	5.66957	4.77603	-7.12062
 450	1	6	0.477555	6.81777	4.73507	-7.89771
 451	1	7	0.042617	4.62092	3.80832	-7.21221
 452	1	7	-0.20367	3.26509	4.09845	-7.37894
 453	1	7	-0.057018	2.28109	3.11656	-7.21728
 454	1	7	-0.18182	4.9429	2.45844	-7.07913
 455	1	7	-0.14326	3.97435	1.41905	-6.96962
 456	1	7	0.043342	2.58945	1.75626	-6.95902
 457	1	10	0.163244	2.92448	5.12693	-7.49313
 458	1	10	0.101178	1.27662	3.40881	-7.12667
 459	1	10	0.165346	7.04037	8.35894	-5.42585
 460	1	10	0.135111	9.20549	9.14379	-6.33116
 461	1	10	0.171751	9.35135	5.59531	-9.00485
 462	1	9	-0.478239	7.01998	3.9571	-8.82476
 463	1	9	-0.481107	4.7011	6.39735	-5.73421
 464	1	9	-0.49957	11.7389	8.13906	-7.49682
 465	1	10	0.151248	5.98873	2.1597	-6.91192
 466	1	10	0.146138	4.35947	0.416301	-6.99993
 467	1	1	0.044043	1.53095	0.69855	-6.75922
 468	1	1	-0.215975	0.748611	0.914825	-5.47176
 469	1	2	0.063789	1.51839	1.28747	-4.73281
 470	1	2	0.072206	0.14219	0.0789198	-5.06263
 471	1	2	0.045489	0.211618	1.81399	-5.56188
 472	1	1	0.005306	0.6425	0.806725	-8.0158
 473	1	1	0.164932	0.778027	-0.571168	-8.70029
 474	1	2	0.005277	0.795487	1.71107	-8.74948
 475	1	2	0.017604	-0.431637	0.860042	-7.73296
 476	1	7	0.008363	1.87004	-1.36381	-7.94447
 477	1	1	-0.151488	1.13438	-0.158368	-10.1314
 478	1	1	-0.269275	-0.502347	-1.34443	-8.6902
 479	1	7	0.096378	2.11486	-0.726008	-6.7247
 480	1	2	0.063418	-1.37087	-0.775752	-9.08184
 481	1	2	0.061085	-0.684047	-1.67549	-7.6144
 482	1	2	0.065045	-0.375314	-2.256	-9.21388
 483	1	7	-0.142025	2.31212	-2.64808	-8.21572
 484	1	7	-0.448546	2.83934	-1.33338	-5.69433
 485	1	7	0.277842	3.33038	-2.62226	-5.96139
 486	1	7	-0.409063	3.09091	-3.25652	-7.2103
 487	1	10	0.203923	3.01355	-0.822596	-4.73269
 488	1	2	0.016419	1.34081	-1.03003	-10.8275
 489	1	2	0.049665	2.04507	0.457004	-10.1458
 490	1	2	0.035794	0.358963	0.399343	-10.5632
 491	1	10	0.161583	2.05432	-3.22917	-9.10504
 492	1	10	0.199011	3.55039	-4.24099	-7.45585

Velocities

   1	-0.00579455	0.00675221	-0.00403495
   2	-0.00684529	0.00815794	-0.00392916
   3	-0.00334189	-0.00419343	0.00354629
   4	-0.0052926	0.00402665	-0.0129604
   5	-0.00177285	0.00510666	-0.000886913
   6	-0.00557156	0.00775512	0.00120484
   7	-0.00580087	0.00394488	5.60831e-05
   8	-0.00680173	0.00450181	-0.00355204
   9	-0.00877172	0.00453805	-0.00281961
  10	-0.003644	-0.00451854	-0.0040579
  11	-0.00414974	0.00670295	-0.00307757
  12	-0.00422835	0.000607558	-0.00315292
  13	-0.000793171	-0.00231757	6.65034e-05
  14	-0.00253779	-0.000856006	-0.000150962
  15	-0.000958188	0.000509846	-0.00093984
  16	0.00798539	0.00699788	0.00273844
  17	0.00210484	0.00423541	-0.00308174
  18	-0.00812097	0.000423679	-0.00296622
  19	0.00144937	0.000680346	-0.00233305
  20	-0.00317988	0.00146165	-0.000893006
  21	-0.00279535	0.0101914	-0.00465907
  22	0.00213462	0.0156442	-0.00215779
  23	0.000152703	0.00394432	0.000367969
  24	-0.000141068	0.00268901	-0.00277587
  25	-0.000643089	0.0176281	-0.00144067
  26	0.00832613	0.0362022	-0.00144164
  27	-0.00471783	0.00403061	-3.1511e-05
  28	0.000544211	0.00392109	-0.00225004
  29	-0.0051861	-0.00197936	-0.00067248
  30	-0.0023157	0.00241661	0.000766778
  31	-0.00308072	0.00777454	-0.000242797
  32	-0.00614099	0.0100369	0.00157465
  33	-0.00438612	0.00347617	0.00264675
  34	-0.00854467	0.00194553	0.00314277
  35	-0.00730951	0.0059296	-0.00300272
  36	-0.00469921	0.00749235	-0.00294069
  37	-0.00720262	0.00181526	-0.00183839
  38	-0.00535482	0.00586872	0.000302273
  39	-6.36906e-05	0.00301367	0.000992289
  40	-0.00234468	0.0013344	0.00105051
  41	-0.00272865	3.15844e-05	2.29847e-06
  42	-0.00236321	0.00208344	-0.00159937
  43	-0.00395955	0.00360168	0.00803446
  44	0.00756339	-0.000402378	0.00750938
  45	-0.00517906	-0.00326323	-0.00813534
  46	-0.00900868	0.0239878	0.00634989
  47	-0.00416085	7.86747e-06	0.00054089
  48	-0.00931919	0.00010286	0.00300894
  49	-0.0104323	0.00682954	-0.00179303
  50	-0.00172865	0.00828978	0.00311
  51	-0.00479365	0.00272318	0.00176324
  52	-0.0283436	-0.0075912	-0.000248122
  53	-0.0102761	0.00117638	-0.00329786
  54	-0.0135717	0.00495856	0.00215753
  55	-0.00217352	0.00533387	0.00136824
  56	-0.0190483	-0.000696854	0.00631851
  57	-0.0173213	0.0105789	0.0120589
  58	-0.00917447	-0.00121014	-0.00234966
  59	-0.00684811	0.00432425	-0.00136232
  60	-0.00827371	-0.0068595	0.00244205
  61	-0.0141953	-0.00228395	0.00989815
  62	-0.00925093	0.00235819	-0.00193254
  63	-0.00525423	0.00269031	0.00151217
  64	-0.00930766	-0.00219561	-0.0027076
  65	-0.00709175	0.00300306	-0.00418745
  66	-0.00267981	-0.0064801	-0.00289808
  67	-0.0169963	-0.00268424	-0.0106584
  68	-0.0143919	0.000257982	-0.00374696
  69	-0.00719931	-0.000418735	0.00267749
  70	-0.0052957	0.00562654	-0.00115254
  71	-0.00555996	0.00353711	0.000416892
  72	-0.00574388	0.000757672	-0.00020919
  73	-0.00284213	0.00733855	-0.00245062
  74	-0.00132606	0.00471456	0.0124192
  75	-0.0160311	0.0019353	0.00924588
  76	-0.00711086	-0.00214782	-0.000649035
  77	-0.012994	-0.00435572	0.00663226
  78	-0.00690149	-0.00395846	0.00845192
  79	-0.000673767	-0.00108194	0.00558424
  80	-0.00217621	-0.00122675	0.00320482
  81	0.00334977	-0.000492028	-0.00360569
  82	0.00166688	-0.00229177	0.00411716
  83	0.000102913	-0.00312741	0.00280102
  84	0.00028155	-0.00577507	0.000961206
  85	0.0107935	-0.00298767	0.00183697
  86	-0.000789936	0.000238807	-0.00239999
  87	-0.00105722	-0.00183292	-0.00260558
  88	0.00209963	0.0017446	0.000804134
  89	-0.00490408	-0.000534801	0.00529762
  90	-0.00237284	0.00177768	-0.00719902
  91	0.000796984	-0.0020944	0.00573457
  92	0.0100011	-0.00592916	0.0153186
  93	0.00165625	0.00283039	0.00054947
  94	-0.00154657	-0.00228849	-0.00369266
  95	0.000330206	-0.00206951	-0.0024794
  96	-0.000960897	0.00167096	0.00183771
  97	-0.00397294	0.00235702	-0.00501658
  98	-0.00195573	0.00284469	-0.00123878
  99	0.000848902	-0.00120176	0.00351277
 100	-1.31239e-05	-0.00233384	-0.00389899
 101	-0.00287443	-0.00163151	0.00175506
 102	0.00069552	-0.00064273	-0.000283003
 103	-0.00605005	-0.00199861	-0.00170895
 104	0.000305726	0.00344201	0.00425187
 105	-0.00269811	0.00344336	0.00458539
 106	-0.00549367	-0.001268	-0.00137321
 107	-0.00264737	-0.00133524	0.000134082
 108	-0.00109794	0.00179156	-0.000292038
 109	0.0200853	-0.00182529	0.0173439
 110	0.00589793	-0.000782997	0.00860735
 111	0.00799432	-0.00312869	-0.00103092
 112	-0.0118552	-0.000988503	0.000425828
 113	0.00716248	-0.00542706	0.000372982
 114	0.0032058	0.00124436	0.00614266
 115	-0.00352014	-0.000535346	-0.00437363
 116	-0.00499658	0.00340736	-0.0087837
 117	-0.00524316	0.00143385	0.0117952
 118	0.000826117	0.00644686	-0.00142258
 119	5.70534e-05	0.00131222	-0.00531588
 120	-0.005619	0.00063116	-0.00513743
 121	0.00362555	0.0124751	-0.00153936
 122	-0.00914859	-0.00580583	0.0116425
 123	-0.0131694	-0.0073017	-0.00363821
 124	-0.00118539	0.00196463	-0.0012098
 125	-0.00297057	-0.00039525	-0.00441433
 126	-0.00427011	0.0149534	-0.00106555
 127	-0.00446484	-0.00548377	-0.0109599
 128	-0.00335272	-0.0015383	-0.00355316
 129	-0.0106899	-0.00209976	0.00121874
 130	-0.00282731	0.00161429	0.00826805
 131	-0.00187265	0.00183756	-0.00668416
 132	0.00990537	-0.00555572	0.00778616
 133	-0.0108548	0.0101571	0.0139711
 134	-0.000134808	0.0207162	0.0140953
 135	-1.52442e-05	-0.000634371	-0.00398043
 136	-0.00155059	0.00334919	-0.000608116
 137	-0.000442235	0.0020498	0.00203877
 138	0.00237833	0.00101561	0.000925304
 139	-0.0104774	0.0112515	0.00642227
 140	-0.01616	-0.00404715	-0.00220091
 141	-0.00792633	-0.00175021	-0.014742
 142	-0.0143007	0.00628797	0.0107459
 143	0.00512498	0.00442712	-0.00903167
 144	0.0120363	-0.00601295	0.0042536
 145	-0.000635377	-0.00161876	0.0046267
 146	0.00387542	-0.00843543	0.00425481
 147	0.000570458	0.00208967	-0.00339952
 148	0.00231524	0.00218736	0.00172304
 149	0.00462539	0.00365943	-0.00532351
 150	0.00347421	-0.00345815	0.00595
 151	-0.00402624	0.0052553	0.00481389
 152	0.00259887	0.00169846	0.00479081