pySIMM System Object

1044 atoms
1141 bonds
2041 angles
3237 dihedrals
294 impropers

10 atom types
13 bond types
25 angle types
12 dihedral types
4 improper types

-157.419242 157.419242 xlo xhi
-157.419242 157.419242 ylo yhi
-157.419242 157.419242 zlo zhi

Masses

   1	14.01	# n
   2	12.01	# c
   3	12.01	# ca
   4	1.008	# hn
   5	16.0	# o
   6	1.008	# ha
   7	12.01	# c3
   8	1.008	# hc
   9	19.0	# f
  10	1.008	# h2

Pair Coeffs

   1	0.17	3.249998523775958	# n
   2	0.086	3.3996695084235347	# c
   3	0.086	3.3996695084235347	# ca
   4	0.0157	1.069078461768407	# hn
   5	0.21	2.959921901149463	# o
   6	0.015	2.59964245953351	# ha
   7	0.1094	3.3996695084235347	# c3
   8	0.0157	2.649532787749369	# hc
   9	0.061	3.1181455134911875	# f
  10	0.0157	2.2931733004932333	# h2

Bond Coeffs

   1	637.7	1.2183	# c,o
   2	321.0	1.5156	# c3,ca
   3	384.2	1.4121	# ca,n
   4	403.2	1.0129	# hn,n
   5	330.6	1.0969	# c3,hc
   6	427.6	1.3789	# c,n
   7	461.1	1.3984	# ca,ca
   8	345.9	1.4906	# c,ca
   9	300.9	1.5375	# c3,c3
  10	345.8	1.086	# ca,ha
  11	331.7	1.0961	# c3,h2
  12	356.9	1.3497	# c3,f
  13	328.7	1.4619	# c3,n

Angle Coeffs

   1	64.28	120.33	# c,ca,ca
   2	63.53	120.77	# c3,ca,ca
   3	66.62	120.02	# ca,ca,ca
   4	74.22	123.05	# n,c,o
   5	62.86	111.51	# c3,c3,c3
   6	63.74	127.08	# c,n,c
   7	63.15	112.07	# c3,c3,ca
   8	48.18	119.88	# ca,ca,ha
   9	67.87	120.19	# ca,ca,n
  10	68.72	122.6	# ca,c,o
  11	46.34	109.8	# c3,c3,hc
  12	63.0	118.11	# ca,c,ca
  13	63.82	123.71	# c,n,ca
  14	67.68	115.25	# ca,c,n
  15	63.56	112.24	# ca,c3,ca
  16	48.33	117.55	# c,n,hn
  17	39.4	107.58	# hc,c3,hc
  18	70.89	107.36	# f,c3,f
  19	66.11	109.24	# c3,c3,f
  20	46.25	110.22	# c3,c3,h2
  21	51.15	108.79	# f,c3,h2
  22	63.39	120.69	# c,n,c3
  23	65.91	111.61	# c3,c3,n
  24	69.52	110.41	# f,c3,n
  25	46.8	110.47	# ca,c3,hc

Dihedral Coeffs

   1	2	2.5	2	180	2.0	1	0	# hn,n,c,o
   2	1	3.625	2	180	# X,ca,ca,X
   3	1	0.16	3	0	# hc,c3,c3,c3
   4	1	1.0	2	180	# X,c,ca,X
   5	1	0.15555555555555556	3	0	# X,c3,c3,X
   6	1	0.0	2	0	# X,c3,ca,X
   7	1	2.5	2	180	# X,c,n,X
   8	1	0.45	2	180	# X,ca,n,X
   9	3	0.18	3	0	0.25	2	180	0.2	1	180	# c3,c3,c3,c3
  10	2	0.0	3	0	0.19	1	0	# hc,c3,c3,f
  11	4	0.5	4	180	0.15	3	180	0.0	2	0	0.53	1	0	# c3,c3,n,c
  12	1	0.0	2	0	# X,c3,n,X

Improper Coeffs

   1	10.5	-1	2	# c,X,X,o
   2	1.1	-1	2	# ca,X,X,ha
   3	1.1	-1	2	# ca,ca,ca,c3
   4	1.1	-1	2	# n,X,X,hn

Atoms

   1	1	1	0.463181	-6.42807	-12.2427	-12.9628
   2	1	2	0.074399	-5.74288	-11.7251	-11.8645
   3	1	3	0.034296	-4.41426	-11.3386	-12.3968
   4	1	2	0.051625	-5.68906	-12.1603	-14.1599
   5	1	3	0.019035	-4.36398	-11.6206	-13.7513
   6	1	5	-0.389616	-6.06744	-11.7028	-10.6896
   7	1	5	-0.380104	-6.01139	-12.4384	-15.3081
   8	1	3	-0.045097	-3.36273	-10.6972	-11.7172
   9	1	3	-0.056032	-3.24712	-11.2701	-14.5184
  10	1	3	-0.174781	-2.16114	-10.6457	-13.8477
  11	1	3	-0.129342	-2.20225	-10.3111	-12.4562
  12	1	6	0.168842	-3.47363	-10.4459	-10.6619
  13	1	6	0.15893	-3.2358	-11.4682	-15.5895
  14	1	6	0.147704	-1.27726	-10.4076	-14.4405
  15	1	2	0.584577	-1.05059	-9.54671	-11.7856
  16	1	3	-0.046755	-0.0230743	-8.79242	-12.6201
  17	1	3	-0.110868	1.3648	-8.69894	-12.2548
  18	1	3	-0.046132	2.20395	-7.83635	-12.9861
  19	1	3	-0.135873	-0.482054	-8.07731	-13.7487
  20	1	3	-0.117662	0.346825	-7.20482	-14.4598
  21	1	3	-0.064457	1.67551	-7.11944	-14.0417
  22	1	2	0.492569	2.75478	-6.28058	-14.5908
  23	1	1	-0.072087	3.89292	-6.51914	-13.8345
  24	1	2	0.477555	3.64485	-7.41988	-12.8211
  25	1	3	0.042617	5.18804	-6.00508	-14.1417
  26	1	3	-0.20367	6.05645	-5.50776	-13.1576
  27	1	3	-0.057018	7.30411	-4.97341	-13.5113
  28	1	3	-0.18182	5.64676	-6.0644	-15.4591
  29	1	3	-0.14326	6.89915	-5.54348	-15.8154
  30	1	3	0.043342	7.72216	-4.91696	-14.86
  31	1	6	0.163244	5.7653	-5.51745	-12.1121
  32	1	6	0.101178	7.94969	-4.59463	-12.7234
  33	1	6	0.165346	-0.0385094	-6.58307	-15.264
  34	1	6	0.135111	-1.53558	-8.09455	-14.0025
  35	1	6	0.171751	1.74483	-9.19031	-11.3642
  36	1	5	-0.478239	4.46986	-7.78263	-11.9988
  37	1	5	-0.481107	2.64183	-5.5486	-15.5526
  38	1	5	-0.49957	-1.03758	-9.41084	-10.5743
  39	1	6	0.151248	5.01525	-6.4909	-16.2276
  40	1	6	0.146138	7.19879	-5.62039	-16.8565
  41	1	7	0.044043	9.05959	-4.24252	-15.2269
  42	1	7	-0.215975	9.11174	-2.79296	-14.6593
  43	1	8	0.063789	9.05338	-2.76452	-13.5637
  44	1	8	0.072206	8.27845	-2.21027	-15.0715
  45	1	8	0.045489	10.0439	-2.29353	-14.9574
  46	1	7	0.005306	10.2381	-5.1349	-14.7159
  47	1	7	0.164932	11.1383	-5.59234	-15.9112
  48	1	8	0.005277	9.82665	-6.02255	-14.2106
  49	1	8	0.017604	10.8361	-4.61185	-13.9554
  50	1	3	0.008363	10.4942	-4.90029	-17.0656
  51	1	7	-0.151488	11.058	-7.11823	-16.1532
  52	1	7	-0.269275	12.6135	-5.14031	-15.7298
  53	1	3	0.096378	9.33454	-4.21169	-16.7285
  54	1	8	0.063418	13.2033	-5.42379	-16.6095
  55	1	8	0.061085	13.0648	-5.62344	-14.8564
  56	1	8	0.065045	12.6891	-4.05306	-15.613
  57	1	3	-0.142025	10.9338	-5.01122	-18.3837
  58	1	3	-0.448546	8.5224	-3.6648	-17.7375
  59	1	3	0.277842	8.94142	-3.78885	-19.0698
  60	1	3	-0.409063	10.1506	-4.43228	-19.3855
  61	1	6	0.203923	7.59835	-3.15272	-17.4913
  62	1	8	0.016419	11.7292	-7.41544	-16.9667
  63	1	8	0.049665	10.0332	-7.40229	-16.4364
  64	1	8	0.035794	11.3421	-7.68575	-15.259
  65	1	6	0.161583	11.8371	-5.56489	-18.6278
  66	1	6	0.199011	10.4715	-4.49222	-20.4198
  67	1	7	0.070548	-8.94376	-11.8189	-12.7914
  68	1	7	0.506757	-7.77651	-12.8599	-12.8159
  69	1	8	-0.012767	-9.9003	-12.3208	-12.9768
  70	1	8	-0.014806	-9.01215	-11.4043	-11.7795
  71	1	9	-0.274996	-7.82796	-13.6078	-11.6942
  72	1	9	-0.274736	-8.03348	-13.7626	-13.783
  73	1	1	0.463181	-1.86171	-1.76206	-2.59084
  74	1	2	0.074399	-1.97693	-2.21131	-3.93592
  75	1	3	0.034296	-1.1643	-3.45911	-3.9898
  76	1	2	0.051625	-1.16496	-2.67138	-1.78533
  77	1	3	0.019035	-0.643978	-3.69155	-2.7306
  78	1	5	-0.389616	-2.63948	-1.80214	-4.88284
  79	1	5	-0.380104	-0.908884	-2.61629	-0.598612
  80	1	3	-0.045097	-0.754922	-4.26116	-5.06883
  81	1	3	-0.056032	0.301416	-4.71037	-2.50279
  82	1	3	-0.174781	0.766323	-5.48503	-3.57937
  83	1	3	-0.129342	0.227487	-5.27248	-4.87593
  84	1	6	0.168842	-1.12541	-4.03516	-6.06382
  85	1	6	0.15893	0.724289	-4.85662	-1.50819
  86	1	6	0.147704	1.54293	-6.22611	-3.39369
  87	1	2	0.584577	0.807754	-6.06906	-6.02357
  88	1	3	-0.046755	0.0594206	-6.30406	-7.32818
  89	1	3	-0.110868	-1.34764	-6.46654	-7.37906
  90	1	3	-0.046132	-1.96278	-6.54555	-8.64971
  91	1	3	-0.135873	0.805947	-6.33934	-8.53838
  92	1	3	-0.117662	0.189288	-6.39371	-9.80337
  93	1	3	-0.064457	-1.20577	-6.4175	-9.81195
  94	1	2	0.492569	-2.12175	-6.29438	-10.9692
  95	1	1	-0.072087	-3.39358	-6.56015	-10.4789
  96	1	2	0.477555	-3.39923	-6.70711	-9.08804
  97	1	3	0.042617	-4.56164	-6.65057	-11.3235
  98	1	3	-0.20367	-4.48905	-7.28973	-12.5831
  99	1	3	-0.057018	-5.62683	-7.35534	-13.4142
 100	1	3	-0.18182	-5.78748	-6.06894	-10.9386
 101	1	3	-0.14326	-6.90443	-6.08155	-11.7916
 102	1	3	0.043342	-6.84671	-6.75728	-13.0268
 103	1	6	0.163244	-3.56394	-7.75363	-12.9129
 104	1	6	0.101178	-5.54261	-7.88725	-14.3567
 105	1	6	0.165346	0.745016	-6.39433	-10.7373
 106	1	6	0.135111	1.89379	-6.29673	-8.48303
 107	1	6	0.171751	-1.94238	-6.55013	-6.47199
 108	1	5	-0.478239	-4.3626	-7.02706	-8.41857
 109	1	5	-0.481107	-1.79388	-5.9822	-12.1101
 110	1	5	-0.49957	1.94188	-6.51839	-5.90878
 111	1	6	0.151248	-5.86662	-5.56368	-9.98017
 112	1	6	0.146138	-7.81296	-5.60502	-11.4467
 113	1	7	0.044043	-8.07952	-6.92475	-13.9428
 114	1	7	-0.215975	-9.38176	-6.35231	-13.3352
 115	1	8	0.063789	-10.2286	-6.56241	-13.9859
 116	1	8	0.072206	-9.32027	-5.26828	-13.1825
 117	1	8	0.045489	-9.56603	-6.83454	-12.3684
 118	1	7	0.005306	-7.80094	-6.29536	-15.3383
 119	1	7	0.164932	-8.15762	-7.36226	-16.4192
 120	1	8	0.005277	-6.73314	-6.02514	-15.4109
 121	1	8	0.017604	-8.34602	-5.37459	-15.4988
 122	1	3	0.008363	-8.38448	-8.63778	-15.6232
 123	1	7	-0.151488	-6.98418	-7.5038	-17.3955
 124	1	7	-0.269275	-9.42971	-6.88113	-17.137
 125	1	3	0.096378	-8.3255	-8.37667	-14.2715
 126	1	8	0.063418	-9.30899	-5.8405	-17.4981
 127	1	8	0.061085	-10.2901	-6.89167	-16.456
 128	1	8	0.065045	-9.68236	-7.5235	-18.001
 129	1	3	-0.142025	-8.65659	-9.92479	-16.1232
 130	1	3	-0.448546	-8.48049	-9.40707	-13.3485
 131	1	3	0.277842	-8.77305	-10.7027	-13.7993
 132	1	3	-0.409063	-8.87276	-10.953	-15.1812
 133	1	6	0.203923	-8.42865	-9.18279	-12.2936
 134	1	8	0.016419	-7.21505	-8.24847	-18.1652
 135	1	8	0.049665	-6.09006	-7.83508	-16.8464
 136	1	8	0.035794	-6.77346	-6.55033	-17.8942
 137	1	6	0.161583	-8.74723	-10.1196	-17.1854
 138	1	6	0.199011	-9.0542	-11.9616	-15.5277
 139	1	7	0.070548	-2.82078	0.56841	-3.03902
 140	1	7	0.506757	-2.3229	-0.458222	-1.99679
 141	1	8	-0.012767	-2.11672	0.539748	-3.87835
 142	1	8	-0.014806	-3.75807	0.220872	-3.48436
 143	1	9	-0.274996	-3.27999	-0.631967	-1.02284
 144	1	9	-0.274736	-1.29724	0.169025	-1.37808
 145	1	1	0.463181	5.42021	-3.51723	-5.39468
 146	1	2	0.074399	4.13324	-3.14657	-5.81909
 147	1	3	0.034296	3.93955	-3.71449	-7.15607
 148	1	2	0.051625	6.05773	-4.25524	-6.39943
 149	1	3	0.019035	5.09512	-4.36953	-7.52328
 150	1	5	-0.389616	3.28454	-2.44184	-5.29661
 151	1	5	-0.380104	7.18466	-4.70029	-6.44123
 152	1	3	-0.045097	2.84353	-3.51056	-7.9991
 153	1	3	-0.056032	5.16426	-5.01741	-8.75388
 154	1	3	-0.174781	4.07129	-4.84944	-9.61537
 155	1	3	-0.129342	2.98832	-3.98966	-9.31022
 156	1	6	0.168842	1.9961	-2.91865	-7.66393
 157	1	6	0.15893	6.0388	-5.59593	-9.03827
 158	1	6	0.147704	4.09953	-5.32817	-10.5883
 159	1	2	0.584577	2.01599	-3.56818	-10.3792
 160	1	3	-0.046755	1.25538	-2.30623	-10.2133
 161	1	3	-0.110868	1.88419	-1.11424	-9.8014
 162	1	3	-0.046132	1.08117	-0.0762607	-9.37059
 163	1	3	-0.135873	-0.141273	-2.41625	-10.2747
 164	1	3	-0.117662	-0.933632	-1.37937	-9.79993
 165	1	3	-0.064457	-0.281622	-0.239904	-9.3332
 166	1	2	0.492569	-0.837965	0.869647	-8.5272
 167	1	1	-0.072087	0.256891	1.63552	-8.10924
 168	1	2	0.477555	1.46703	1.13989	-8.59801
 169	1	3	0.042617	0.0525657	2.73123	-7.20742
 170	1	3	-0.20367	0.880596	2.93869	-6.1004
 171	1	3	-0.057018	0.491957	3.85624	-5.11606
 172	1	3	-0.18182	-1.10192	3.53923	-7.32999
 173	1	3	-0.14326	-1.53413	4.4026	-6.31469
 174	1	3	0.043342	-0.71879	4.58872	-5.1749
 175	1	6	0.163244	1.7708	2.32964	-5.95243
 176	1	6	0.101178	1.10379	3.90786	-4.21962
 177	1	6	0.165346	-2.01337	-1.46389	-9.7427
 178	1	6	0.135111	-0.612913	-3.33954	-10.6016
 179	1	6	0.171751	2.96629	-1.03122	-9.71759
 180	1	5	-0.478239	2.61378	1.48455	-8.3624
 181	1	5	-0.481107	-1.98116	0.887313	-8.07515
 182	1	5	-0.49957	1.7918	-4.25245	-11.3567
 183	1	6	0.151248	-1.75129	3.40203	-8.19511
 184	1	6	0.146138	-2.49096	4.89629	-6.44854
 185	1	7	0.044043	-1.27481	5.27454	-3.89758
 186	1	7	-0.215975	-0.193837	5.79799	-2.88279
 187	1	8	0.063789	0.490633	6.52366	-3.34166
 188	1	8	0.072206	0.432054	4.98795	-2.49626
 189	1	8	0.045489	-0.656973	6.27163	-2.00888
 190	1	7	0.005306	-2.28377	6.45307	-4.22723
 191	1	7	0.164932	-3.62542	6.19462	-3.48425
 192	1	8	0.005277	-2.45627	6.59371	-5.29863
 193	1	8	0.017604	-1.87314	7.41499	-3.91761
 194	1	3	0.008363	-3.44145	4.77448	-2.95811
 195	1	7	-0.151488	-4.78631	6.33107	-4.50782
 196	1	7	-0.269275	-3.86783	7.18822	-2.32631
 197	1	3	0.096378	-2.15319	4.26869	-3.16598
 198	1	8	0.063418	-4.90162	7.12248	-1.96446
 199	1	8	0.061085	-3.71135	8.21347	-2.67867
 200	1	8	0.065045	-3.17347	7.00853	-1.49514
 201	1	3	-0.142025	-4.50493	3.93234	-2.5541
 202	1	3	-0.448546	-1.92082	2.88805	-3.01365
 203	1	3	0.277842	-2.96024	2.02688	-2.59029
 204	1	3	-0.409063	-4.25495	2.55565	-2.3454
 205	1	6	0.203923	-0.979529	2.47179	-3.36107
 206	1	8	0.016419	-4.60605	5.69102	-5.38087
 207	1	8	0.049665	-4.84133	7.36663	-4.87588
 208	1	8	0.035794	-5.76773	6.05881	-4.0992
 209	1	6	0.161583	-5.5203	4.31728	-2.47522
 210	1	6	0.199011	-5.09225	1.8756	-2.19466
 211	1	1	0.463181	-8.60915	5.62218	5.6359
 212	1	2	0.074399	-7.55982	6.25317	4.94291
 213	1	3	0.034296	-6.79075	5.209	4.21938
 214	1	2	0.051625	-8.55776	4.24245	5.41214
 215	1	3	0.019035	-7.40883	4.01677	4.48559
 216	1	5	-0.389616	-7.14785	7.3798	5.12438
 217	1	5	-0.380104	-9.26569	3.34708	5.83604
 218	1	3	-0.045097	-5.71709	5.27702	3.3157
 219	1	3	-0.056032	-6.95892	2.82474	3.88655
 220	1	3	-0.174781	-5.81799	2.84578	3.04476
 221	1	3	-0.129342	-5.20435	4.08122	2.74217
 222	1	6	0.168842	-5.30443	6.24117	3.0452
 223	1	6	0.15893	-7.49886	1.89683	4.06529
 224	1	6	0.147704	-5.46009	1.94142	2.56011
 225	1	2	0.584577	-4.09611	4.18235	1.75061
 226	1	3	-0.046755	-2.92855	3.22704	1.83514
 227	1	3	-0.110868	-2.04859	3.2037	0.7359
 228	1	3	-0.046132	-0.963683	2.32502	0.794933
 229	1	3	-0.135873	-2.72512	2.3168	2.91847
 230	1	3	-0.117662	-1.68019	1.3576	2.86715
 231	1	3	-0.064457	-0.795394	1.38421	1.78516
 232	1	2	0.492569	0.415573	0.574211	1.44958
 233	1	1	-0.072087	0.963144	1.16651	0.3341
 234	1	2	0.477555	0.170968	2.19935	-0.147337
 235	1	3	0.042617	2.23483	0.821655	-0.187012
 236	1	3	-0.20367	3.27129	1.77017	-0.109101
 237	1	3	-0.057018	4.56797	1.43736	-0.523502
 238	1	3	-0.18182	2.49376	-0.472138	-0.680799
 239	1	3	-0.14326	3.79799	-0.809771	-1.08428
 240	1	3	0.043342	4.82496	0.153708	-1.05867
 241	1	6	0.163244	3.05428	2.77126	0.231442
 242	1	6	0.101178	5.35845	2.17741	-0.494701
 243	1	6	0.165346	-1.53439	0.629878	3.66947
 244	1	6	0.135111	-3.39904	2.32263	3.76916
 245	1	6	0.171751	-2.1838	3.87415	-0.114156
 246	1	5	-0.478239	0.321807	2.82663	-1.18308
 247	1	5	-0.481107	0.819789	-0.406579	2.04208
 248	1	5	-0.49957	-4.1417	5.04138	0.879898
 249	1	6	0.151248	1.69675	-1.21394	-0.73485
 250	1	6	0.146138	3.97907	-1.82236	-1.43176
 251	1	7	0.044043	6.21358	-0.164292	-1.64719
 252	1	7	-0.215975	6.66884	0.946422	-2.64109
 253	1	8	0.063789	7.72223	0.811146	-2.90555
 254	1	8	0.072206	6.57193	1.95445	-2.23256
 255	1	8	0.045489	6.08353	0.911979	-3.56369
 256	1	7	0.005306	7.20194	-0.289836	-0.461116
 257	1	7	0.164932	7.79589	-1.71219	-0.404128
 258	1	8	0.005277	6.68111	-0.0702972	0.479737
 259	1	8	0.017604	7.99626	0.467436	-0.534486
 260	1	3	0.008363	7.21967	-2.35926	-1.65674
 261	1	7	-0.151488	7.2529	-2.43226	0.856266
 262	1	7	-0.269275	9.35204	-1.52715	-0.410354
 263	1	3	0.096378	6.34422	-1.52718	-2.32009
 264	1	8	0.063418	9.66882	-0.923998	0.452158
 265	1	8	0.061085	9.66433	-0.983901	-1.3126
 266	1	8	0.065045	9.87182	-2.49472	-0.373855
 267	1	3	-0.142025	7.48888	-3.63175	-2.20903
 268	1	3	-0.448546	5.76788	-1.91462	-3.54701
 269	1	3	0.277842	6.00268	-3.17304	-4.12606
 270	1	3	-0.409063	6.89527	-4.01751	-3.44198
 271	1	6	0.203923	5.11301	-1.21456	-4.05759
 272	1	8	0.016419	7.56468	-1.89062	1.76092
 273	1	8	0.049665	7.60149	-3.4718	0.943351
 274	1	8	0.035794	6.15463	-2.42718	0.834964
 275	1	6	0.161583	8.17648	-4.31088	-1.71091
 276	1	6	0.199011	7.14335	-4.97732	-3.89066
 277	1	1	0.463181	-16.6245	1.432	22.083
 278	1	2	0.074399	-16.2122	0.400677	21.2412
 279	1	3	0.034296	-14.937	0.951207	20.7108
 280	1	2	0.051625	-15.8074	2.59196	22.1044
 281	1	3	0.019035	-14.6527	2.20899	21.2447
 282	1	5	-0.389616	-16.7652	-0.673071	21.0109
 283	1	5	-0.380104	-15.9712	3.64414	22.7213
 284	1	3	-0.045097	-14.1212	0.415708	19.7122
 285	1	3	-0.056032	-13.5108	2.93575	20.878
 286	1	3	-0.174781	-12.6879	2.37985	19.8841
 287	1	3	-0.129342	-12.9991	1.14495	19.2461
 288	1	6	0.168842	-14.3317	-0.584661	19.3358
 289	1	6	0.15893	-13.2973	3.8975	21.3402
 290	1	6	0.147704	-11.8051	2.9425	19.5886
 291	1	2	0.584577	-12.1373	0.534673	18.1673
 292	1	3	-0.046755	-11.1693	1.36361	17.3584
 293	1	3	-0.110868	-11.5893	2.62052	16.8836
 294	1	3	-0.046132	-10.7629	3.37686	16.0512
 295	1	3	-0.135873	-9.8667	0.909512	17.0056
 296	1	3	-0.117662	-9.01393	1.70648	16.1766
 297	1	3	-0.064457	-9.52774	2.92607	15.6855
 298	1	2	0.492569	-9.0752	3.85605	14.6183
 299	1	1	-0.072087	-10.0455	4.83569	14.433
 300	1	2	0.477555	-11.0602	4.64614	15.3461
 301	1	3	0.042617	-10.0809	5.75251	13.3124
 302	1	3	-0.20367	-9.77747	5.2758	12.0169
 303	1	3	-0.057018	-9.77837	6.11554	10.8881
 304	1	3	-0.18182	-10.3852	7.12675	13.4597
 305	1	3	-0.14326	-10.338	7.96832	12.3175
 306	1	3	0.043342	-10.0566	7.49119	11.009
 307	1	6	0.163244	-9.53629	4.22695	11.8695
 308	1	6	0.101178	-9.47675	5.68623	9.93852
 309	1	6	0.165346	-8.02795	1.3552	15.8697
 310	1	6	0.135111	-9.51786	-0.059381	17.3524
 311	1	6	0.171751	-12.6027	2.9622	17.0823
 312	1	5	-0.478239	-12.1167	5.23085	15.4091
 313	1	5	-0.481107	-8.15965	3.63306	13.8485
 314	1	5	-0.49957	-12.2773	-0.649384	17.9347
 315	1	6	0.151248	-10.632	7.51378	14.4522
 316	1	6	0.146138	-10.5361	9.02643	12.4653
 317	1	7	0.044043	-10.0568	8.40004	9.76056
 318	1	7	-0.215975	-8.73291	9.16854	9.75626
 319	1	8	0.063789	-8.57048	9.59394	10.7622
 320	1	8	0.072206	-8.72963	9.99828	9.02376
 321	1	8	0.045489	-7.84026	8.55114	9.54233
 322	1	7	0.005306	-11.4086	9.16294	9.73182
 323	1	7	0.164932	-12.4709	8.25008	9.0274
 324	1	8	0.005277	-11.3195	10.0951	9.16338
 325	1	8	0.017604	-11.7586	9.43051	10.7275
 326	1	3	0.008363	-11.5569	7.54701	8.05906
 327	1	7	-0.151488	-13.5688	9.0637	8.30307
 328	1	7	-0.269275	-13.162	7.2146	9.95626
 329	1	3	0.096378	-10.2321	7.62334	8.46576
 330	1	8	0.063418	-13.9999	6.72984	9.4491
 331	1	8	0.061085	-13.5436	7.6691	10.8803
 332	1	8	0.065045	-12.4766	6.41284	10.2484
 333	1	3	-0.142025	-11.9163	6.79805	6.9482
 334	1	3	-0.448546	-9.20388	7.03449	7.68833
 335	1	3	0.277842	-9.55808	6.2924	6.51814
 336	1	3	-0.409063	-10.9231	6.19953	6.16665
 337	1	6	0.203923	-8.15576	7.13406	7.95525
 338	1	8	0.016419	-14.2023	9.57534	9.03247
 339	1	8	0.049665	-14.2201	8.4375	7.68659
 340	1	8	0.035794	-13.1256	9.80398	7.62551
 341	1	6	0.161583	-12.974	6.71125	6.6907
 342	1	6	0.199011	-11.2165	5.62829	5.29393
 343	1	7	0.070548	-19.1588	0.971101	22.1407
 344	1	7	0.506757	-17.8131	1.20064	22.9166
 345	1	8	-0.012767	-19.8483	1.77479	22.4339
 346	1	8	-0.014806	-19.0023	1.11518	21.0695
 347	1	9	-0.274996	-17.4638	0.177602	23.7029
 348	1	9	-0.274736	-18.0082	2.18726	23.7852
 349	1	1	0.463181	-21.0875	6.24927	10.373
 350	1	2	0.074399	-21.545	6.33648	11.7227
 351	1	3	0.034296	-22.884	5.66908	11.7557
 352	1	2	0.051625	-22.042	5.7011	9.52372
 353	1	3	0.019035	-23.1774	5.35818	10.4311
 354	1	5	-0.389616	-21.0649	6.95036	12.6584
 355	1	5	-0.380104	-21.9978	5.62558	8.3083
 356	1	3	-0.045097	-23.7873	5.3801	12.8039
 357	1	3	-0.056032	-24.4095	4.82587	10.0615
 358	1	3	-0.174781	-25.3663	4.63999	11.0809
 359	1	3	-0.129342	-25.0447	4.82985	12.4596
 360	1	6	0.168842	-23.572	5.75011	13.7949
 361	1	6	0.15893	-24.6543	4.70712	9.01361
 362	1	6	0.147704	-26.3651	4.34329	10.8068
 363	1	2	0.584577	-26.1751	4.863	13.4645
 364	1	3	-0.046755	-26.2189	3.89828	14.6174
 365	1	3	-0.110868	-25.4255	2.71865	14.6607
 366	1	3	-0.046132	-25.527	1.89703	15.7854
 367	1	3	-0.135873	-27.0856	4.18964	15.7046
 368	1	3	-0.117662	-27.2548	3.29473	16.7703
 369	1	3	-0.064457	-26.4204	2.16919	16.8001
 370	1	2	0.492569	-26.3022	1.08551	17.7936
 371	1	1	-0.072087	-25.2527	0.313615	17.3817
 372	1	2	0.477555	-24.8489	0.622218	16.1
 373	1	3	0.042617	-24.5565	-0.579121	18.2014
 374	1	3	-0.20367	-24.039	-1.7471	17.6171
 375	1	3	-0.057018	-23.2465	-2.62904	18.3608
 376	1	3	-0.18182	-24.3463	-0.318388	19.5812
 377	1	3	-0.14326	-23.5485	-1.19166	20.3337
 378	1	3	0.043342	-22.9537	-2.31107	19.7153
 379	1	6	0.163244	-24.2123	-1.98413	16.5706
 380	1	6	0.101178	-22.7809	-3.49174	17.8838
 381	1	6	0.165346	-27.996	3.46656	17.5348
 382	1	6	0.135111	-27.665	5.10377	15.6788
 383	1	6	0.171751	-24.7424	2.46292	13.8601
 384	1	5	-0.478239	-24.1511	0.0159817	15.3048
 385	1	5	-0.481107	-27.0561	0.901431	18.7181
 386	1	5	-0.49957	-27.169	5.51012	13.211
 387	1	6	0.151248	-24.7235	0.583971	20.0513
 388	1	6	0.146138	-23.2795	-0.926532	21.3557
 389	1	7	0.044043	-21.9199	-3.08294	20.5259
 390	1	7	-0.215975	-20.8629	-3.84048	19.6556
 391	1	8	0.063789	-21.3176	-4.66757	19.0847
 392	1	8	0.072206	-20.0944	-4.25642	20.3246
 393	1	8	0.045489	-20.3542	-3.14606	18.9728
 394	1	7	0.005306	-22.6967	-4.09094	21.4182
 395	1	7	0.164932	-22.3693	-3.8128	22.9291
 396	1	8	0.005277	-22.4671	-5.10801	21.12
 397	1	8	0.017604	-23.7737	-3.9705	21.2296
 398	1	3	0.008363	-21.4391	-2.61301	22.854
 399	1	7	-0.151488	-21.6757	-5.02608	23.521
 400	1	7	-0.269275	-23.6539	-3.4965	23.7603
 401	1	3	0.096378	-21.218	-2.17651	21.5501
 402	1	8	0.063418	-24.4279	-4.28309	23.6592
 403	1	8	0.061085	-24.0985	-2.54449	23.4232
 404	1	8	0.065045	-23.4028	-3.41518	24.8205
 405	1	3	-0.142025	-20.7748	-1.97775	23.8984
 406	1	3	-0.448546	-20.4115	-1.05697	21.2904
 407	1	3	0.277842	-19.8836	-0.325141	22.3597
 408	1	3	-0.409063	-20.1241	-0.767822	23.6519
 409	1	6	0.203923	-20.2547	-0.72543	20.2642
 410	1	8	0.016419	-20.6719	-5.14988	23.1123
 411	1	8	0.049665	-22.2239	-5.933	23.2758
 412	1	8	0.035794	-21.6309	-4.97416	24.61
 413	1	6	0.161583	-20.8376	-2.36192	24.9112
 414	1	6	0.199011	-19.7265	-0.225363	24.4958
 415	1	7	0.070548	-18.9034	5.94699	8.91453
 416	1	7	0.506757	-19.826	6.86195	9.81524
 417	1	8	-0.012767	-18.6893	5.02157	9.4807
 418	1	8	-0.014806	-19.4688	5.61586	8.04444
 419	1	9	-0.274996	-18.9904	7.19228	10.8092
 420	1	9	-0.274736	-20.1655	8.0644	9.26661
 421	1	7	0.070548	-16.7779	5.67616	7.37459
 422	1	7	0.506757	-17.5155	6.59382	8.4381
 423	1	8	-0.012767	-16.9385	4.62405	7.64895
 424	1	8	-0.014806	-15.6817	5.76546	7.42896
 425	1	9	-0.274996	-16.6698	6.73538	9.46817
 426	1	9	-0.274736	-17.6639	7.88088	7.99251
 427	1	7	0.070548	-16.9824	4.8462	4.77998
 428	1	7	0.506757	-17.2495	5.93747	5.87723
 429	1	8	-0.012767	-16.0772	5.10883	4.19675
 430	1	8	-0.014806	-17.8159	4.87033	4.05991
 431	1	9	-0.274996	-16.6748	7.09544	5.44816
 432	1	9	-0.274736	-18.5774	6.19603	5.89004
 433	1	7	0.070548	-16.8663	2.41385	3.93159
 434	1	7	0.506757	-16.8777	3.34273	5.21077
 435	1	8	-0.012767	-17.1067	1.40464	4.22876
 436	1	8	-0.014806	-17.6373	2.70348	3.22749
 437	1	9	-0.274996	-18.05	3.14831	5.89731
 438	1	9	-0.274736	-15.8103	3.1448	6.07618
 439	1	1	0.463181	-18.8692	-9.87377	-5.19496
 440	1	2	0.074399	-17.6044	-10.4507	-5.07867
 441	1	3	0.034296	-16.8152	-9.5947	-4.15427
 442	1	2	0.051625	-18.8946	-8.61947	-4.5528
 443	1	3	0.019035	-17.5662	-8.47412	-3.90377
 444	1	5	-0.389616	-17.2498	-11.4917	-5.62258
 445	1	5	-0.380104	-19.8696	-7.96795	-4.2168
 446	1	3	-0.045097	-15.6125	-9.83223	-3.46221
 447	1	3	-0.056032	-17.1492	-7.49169	-2.99336
 448	1	3	-0.174781	-15.9428	-7.69948	-2.26614
 449	1	3	-0.129342	-15.2159	-8.89108	-2.49402
 450	1	6	0.168842	-15.0447	-10.7468	-3.5675
 451	1	6	0.15893	-17.7894	-6.63167	-2.79831
 452	1	6	0.147704	-15.6939	-7.02941	-1.44957
 453	1	2	0.584577	-14.1317	-9.26706	-1.53195
 454	1	3	-0.046755	-13.5297	-8.25918	-0.579214
 455	1	3	-0.110868	-13.1162	-6.93294	-0.945501
 456	1	3	-0.046132	-12.6337	-6.09605	0.0956701
 457	1	3	-0.135873	-13.4782	-8.6756	0.770227
 458	1	3	-0.117662	-12.9381	-7.84484	1.73454
 459	1	3	-0.064457	-12.5328	-6.56609	1.38061
 460	1	2	0.492569	-12.1614	-5.45384	2.2896
 461	1	1	-0.072087	-11.8975	-4.37446	1.47581
 462	1	2	0.477555	-12.2528	-4.64348	0.145006
 463	1	3	0.042617	-11.8765	-3.06341	2.0436
 464	1	3	-0.20367	-12.868	-2.12322	1.68608
 465	1	3	-0.057018	-12.8974	-0.893854	2.324
 466	1	3	-0.18182	-10.9667	-2.74535	3.07144
 467	1	3	-0.14326	-10.9299	-1.47589	3.64824
 468	1	3	0.043342	-11.895	-0.507261	3.27082
 469	1	6	0.163244	-13.6056	-2.3625	0.927632
 470	1	6	0.101178	-13.6265	-0.17785	1.94139
 471	1	6	0.165346	-12.9221	-8.13627	2.77593
 472	1	6	0.135111	-13.874	-9.64796	1.0602
 473	1	6	0.171751	-13.1492	-6.58098	-1.97983
 474	1	5	-0.478239	-12.5231	-3.86745	-0.742398
 475	1	5	-0.481107	-12.3737	-5.46452	3.49005
 476	1	5	-0.49957	-14.0073	-10.4487	-1.30208
 477	1	6	0.151248	-10.2046	-3.47069	3.38758
 478	1	6	0.146138	-10.2051	-1.26821	4.4213
 479	1	7	0.044043	-11.8751	0.937525	3.80393
 480	1	7	-0.215975	-11.7655	0.975142	5.34395
 481	1	8	0.063789	-10.7943	0.54764	5.65803
 482	1	8	0.072206	-12.4598	0.303986	5.85669
 483	1	8	0.045489	-11.8729	1.96947	5.78374
 484	1	7	0.005306	-10.6971	1.67675	3.05914
 485	1	7	0.164932	-11.3887	2.54985	1.96043
 486	1	8	0.005277	-9.97153	0.983411	2.6327
 487	1	8	0.017604	-10.1769	2.36828	3.76595
 488	1	3	0.008363	-12.8569	2.5765	2.34846
 489	1	7	-0.151488	-11.1815	1.86873	0.556463
 490	1	7	-0.269275	-10.9165	4.0154	1.93446
 491	1	3	0.096378	-13.1382	1.72246	3.39003
 492	1	8	0.063418	-11.3298	4.52957	2.81818
 493	1	8	0.061085	-11.2766	4.52903	1.04287
 494	1	8	0.065045	-9.81601	4.06816	1.99029
 495	1	3	-0.142025	-13.8472	3.40828	1.7863
 496	1	3	-0.448546	-14.4749	1.60078	3.8316
 497	1	3	0.277842	-15.4582	2.45355	3.32689
 498	1	3	-0.409063	-15.1544	3.36406	2.29469
 499	1	6	0.203923	-14.6878	0.949779	4.65127
 500	1	8	0.016419	-11.5026	0.832531	0.549897
 501	1	8	0.049665	-10.1251	1.81026	0.268186
 502	1	8	0.035794	-11.7618	2.40349	-0.214723
 503	1	6	0.161583	-13.5862	4.0597	0.956874
 504	1	6	0.199011	-15.9381	3.91227	1.8185
 505	1	1	0.463181	-12.2356	-11.8654	4.81506
 506	1	2	0.074399	-13.526	-11.7021	4.28121
 507	1	3	0.034296	-14.2865	-12.8095	4.89202
 508	1	2	0.051625	-12.1577	-12.9271	5.73036
 509	1	3	0.019035	-13.4699	-13.5615	5.70251
 510	1	5	-0.389616	-14.0112	-10.826	3.57979
 511	1	5	-0.380104	-11.2983	-13.2296	6.5337
 512	1	3	-0.045097	-15.6045	-13.1671	4.6361
 513	1	3	-0.056032	-13.8794	-14.7667	6.26185
 514	1	3	-0.174781	-15.2181	-15.1202	6.06533
 515	1	3	-0.129342	-16.0938	-14.3092	5.30338
 516	1	6	0.168842	-16.249	-12.5028	4.0639
 517	1	6	0.15893	-13.209	-15.3736	6.86378
 518	1	6	0.147704	-15.6239	-15.9747	6.61235
 519	1	2	0.584577	-17.5459	-14.4984	5.58159
 520	1	3	-0.046755	-18.5846	-14.2188	4.52609
 521	1	3	-0.110868	-18.3412	-14.2656	3.13933
 522	1	3	-0.046132	-19.4026	-14.0339	2.25368
 523	1	3	-0.135873	-19.9159	-13.99	4.95144
 524	1	3	-0.117662	-20.9824	-13.6899	4.07919
 525	1	3	-0.064457	-20.6729	-13.6957	2.70872
 526	1	2	0.492569	-21.5596	-13.6113	1.48153
 527	1	1	-0.072087	-20.7637	-13.9205	0.368291
 528	1	2	0.477555	-19.4318	-14.1156	0.743263
 529	1	3	0.042617	-21.2526	-14.1181	-0.954993
 530	1	3	-0.20367	-21.8961	-13.0678	-1.61843
 531	1	3	-0.057018	-22.0693	-13.1196	-3.02258
 532	1	3	-0.18182	-21.0162	-15.3235	-1.6858
 533	1	3	-0.14326	-21.2832	-15.4223	-3.09321
 534	1	3	0.043342	-21.7061	-14.2677	-3.79633
 535	1	6	0.163244	-22.1492	-12.1712	-1.08744
 536	1	6	0.101178	-22.4095	-12.2086	-3.52282
 537	1	6	0.165346	-21.9851	-13.4812	4.46792
 538	1	6	0.135111	-20.1148	-14.0061	6.02215
 539	1	6	0.171751	-17.3519	-14.4702	2.7371
 540	1	5	-0.478239	-18.4816	-14.3344	0.0178008
 541	1	5	-0.481107	-22.7673	-13.4604	1.47075
 542	1	5	-0.49957	-17.8932	-14.8086	6.71893
 543	1	6	0.151248	-20.5085	-16.1425	-1.17444
 544	1	6	0.146138	-21.0462	-16.3344	-3.65008
 545	1	7	0.044043	-21.7085	-14.1634	-5.35646
 546	1	7	-0.215975	-20.7883	-15.1948	-6.04802
 547	1	8	0.063789	-19.7974	-15.2495	-5.55196
 548	1	8	0.072206	-20.6042	-14.9531	-7.10344
 549	1	8	0.045489	-21.2465	-16.1965	-5.98873
 550	1	7	0.005306	-23.173	-14.242	-5.91735
 551	1	7	0.164932	-23.4375	-13.0758	-6.92131
 552	1	8	0.005277	-23.8851	-14.1896	-5.06576
 553	1	8	0.017604	-23.3764	-15.1886	-6.42411
 554	1	3	0.008363	-22.316	-12.1152	-6.56212
 555	1	7	-0.151488	-24.8132	-12.3924	-6.66003
 556	1	7	-0.269275	-23.4043	-13.6114	-8.39966
 557	1	3	0.096378	-21.3233	-12.7411	-5.80296
 558	1	8	0.063418	-24.2737	-14.2558	-8.57313
 559	1	8	0.061085	-22.515	-14.2351	-8.6125
 560	1	8	0.065045	-23.4273	-12.8091	-9.1445
 561	1	3	-0.142025	-22.2725	-10.7143	-6.76975
 562	1	3	-0.448546	-20.2209	-12.002	-5.33593
 563	1	3	0.277842	-20.0499	-10.6123	-5.63321
 564	1	3	-0.409063	-21.1537	-9.99894	-6.26974
 565	1	6	0.203923	-19.462	-12.5189	-4.75618
 566	1	8	0.016419	-24.9136	-12.0801	-5.61431
 567	1	8	0.049665	-25.6368	-13.0969	-6.84167
 568	1	8	0.035794	-24.9501	-11.495	-7.28631
 569	1	6	0.161583	-23.048	-10.2038	-7.33364
 570	1	6	0.199011	-21.122	-8.9231	-6.45135
 571	1	7	0.070548	-10.9552	-9.98203	5.83636
 572	1	7	0.506757	-11.1096	-10.9071	4.59692
 573	1	8	-0.012767	-10.8206	-10.6227	6.71544
 574	1	8	-0.014806	-11.9217	-9.47928	5.9652
 575	1	9	-0.274996	-9.94831	-11.5809	4.31718
 576	1	9	-0.274736	-11.3596	-10.1592	3.49414
 577	1	7	0.070548	-9.72382	-8.19713	7.17708
 578	1	7	0.506757	-9.76583	-8.96035	5.81237
 579	1	8	-0.012767	-9.98013	-8.9113	7.98254
 580	1	8	-0.014806	-10.5394	-7.46234	7.19473
 581	1	9	-0.274996	-10.011	-8.0808	4.80098
 582	1	9	-0.274736	-8.58981	-9.60492	5.61932
 583	1	1	0.463181	-18.6461	5.5962	14.5719
 584	1	2	0.074399	-18.4701	4.68989	13.51
 585	1	3	0.034296	-16.989	4.81619	13.1506
 586	1	2	0.051625	-17.525	6.37258	14.8453
 587	1	3	0.019035	-16.468	5.80484	13.9732
 588	1	5	-0.389616	-19.2471	3.86049	13.043
 589	1	5	-0.380104	-17.3907	7.2025	15.735
 590	1	3	-0.045097	-16.1228	4.07247	12.2971
 591	1	3	-0.056032	-15.1055	6.05837	14.0511
 592	1	3	-0.174781	-14.2666	5.41664	13.1265
 593	1	3	-0.129342	-14.7469	4.41697	12.2662
 594	1	6	0.168842	-16.5141	3.27679	11.6567
 595	1	6	0.15893	-14.705	6.72645	14.8252
 596	1	6	0.147704	-13.2165	5.70491	13.0941
 597	1	2	0.584577	-13.8337	3.82033	11.2501
 598	1	3	-0.046755	-12.5724	3.0185	11.53
 599	1	3	-0.110868	-11.9054	2.59539	10.3766
 600	1	3	-0.046132	-10.8672	1.68228	10.503
 601	1	3	-0.135873	-12.093	2.54768	12.8038
 602	1	3	-0.117662	-10.947	1.68781	12.9228
 603	1	3	-0.064457	-10.387	1.23453	11.7045
 604	1	2	0.492569	-9.4007	0.129095	11.3991
 605	1	1	-0.072087	-9.48079	-0.139146	10.0394
 606	1	2	0.477555	-10.3295	0.756566	9.45174
 607	1	3	0.042617	-8.7671	-1.14089	9.30591
 608	1	3	-0.20367	-8.7068	-2.47328	9.778
 609	1	3	-0.057018	-7.99985	-3.45847	9.0659
 610	1	3	-0.18182	-8.17364	-0.844616	8.05169
 611	1	3	-0.14326	-7.56895	-1.86974	7.29247
 612	1	3	0.043342	-7.41144	-3.18355	7.8038
 613	1	6	0.163244	-9.18229	-2.74514	10.7139
 614	1	6	0.101178	-7.90492	-4.43902	9.51402
 615	1	6	0.165346	-10.5978	1.31102	13.8815
 616	1	6	0.135111	-12.6302	2.87147	13.6935
 617	1	6	0.171751	-12.2416	2.85523	9.37226
 618	1	5	-0.478239	-10.6165	0.73659	8.28412
 619	1	5	-0.481107	-8.80101	-0.532643	12.2129
 620	1	5	-0.49957	-14.215	3.92972	10.1071
 621	1	6	0.151248	-8.22451	0.16325	7.65428
 622	1	6	0.146138	-7.13318	-1.57098	6.3429
 623	1	7	0.044043	-6.46645	-4.24337	7.19771
 624	1	7	-0.215975	-6.24079	-4.11261	5.67127
 625	1	8	0.063789	-7.19382	-4.00102	5.15535