pySIMM System Object

1362 atoms
1494 bonds
2662 angles
4233 dihedrals
399 impropers

10 atom types
13 bond types
25 angle types
12 dihedral types
4 improper types

-161.919351 161.919351 xlo xhi
-161.919351 161.919351 ylo yhi
-161.919351 161.919351 zlo zhi

Masses

   1	14.01	# n
   2	12.01	# c
   3	12.01	# ca
   4	1.008	# hn
   5	16.0	# o
   6	1.008	# ha
   7	12.01	# c3
   8	1.008	# hc
   9	19.0	# f
  10	1.008	# h2

Pair Coeffs

   1	0.17	3.249998523775958	# n
   2	0.086	3.3996695084235347	# c
   3	0.086	3.3996695084235347	# ca
   4	0.0157	1.069078461768407	# hn
   5	0.21	2.959921901149463	# o
   6	0.015	2.59964245953351	# ha
   7	0.1094	3.3996695084235347	# c3
   8	0.0157	2.649532787749369	# hc
   9	0.061	3.1181455134911875	# f
  10	0.0157	2.2931733004932333	# h2

Bond Coeffs

   1	637.7	1.2183	# c,o
   2	321.0	1.5156	# c3,ca
   3	384.2	1.4121	# ca,n
   4	403.2	1.0129	# hn,n
   5	330.6	1.0969	# c3,hc
   6	427.6	1.3789	# c,n
   7	461.1	1.3984	# ca,ca
   8	345.9	1.4906	# c,ca
   9	300.9	1.5375	# c3,c3
  10	345.8	1.086	# ca,ha
  11	331.7	1.0961	# c3,h2
  12	356.9	1.3497	# c3,f
  13	328.7	1.4619	# c3,n

Angle Coeffs

   1	64.28	120.33	# c,ca,ca
   2	63.53	120.77	# c3,ca,ca
   3	66.62	120.02	# ca,ca,ca
   4	74.22	123.05	# n,c,o
   5	62.86	111.51	# c3,c3,c3
   6	63.74	127.08	# c,n,c
   7	63.15	112.07	# c3,c3,ca
   8	48.18	119.88	# ca,ca,ha
   9	67.87	120.19	# ca,ca,n
  10	68.72	122.6	# ca,c,o
  11	46.34	109.8	# c3,c3,hc
  12	63.0	118.11	# ca,c,ca
  13	63.82	123.71	# c,n,ca
  14	67.68	115.25	# ca,c,n
  15	63.56	112.24	# ca,c3,ca
  16	48.33	117.55	# c,n,hn
  17	39.4	107.58	# hc,c3,hc
  18	70.89	107.36	# f,c3,f
  19	66.11	109.24	# c3,c3,f
  20	46.25	110.22	# c3,c3,h2
  21	51.15	108.79	# f,c3,h2
  22	63.39	120.69	# c,n,c3
  23	65.91	111.61	# c3,c3,n
  24	69.52	110.41	# f,c3,n
  25	46.8	110.47	# ca,c3,hc

Dihedral Coeffs

   1	2	2.5	2	180	2.0	1	0	# hn,n,c,o
   2	1	3.625	2	180	# X,ca,ca,X
   3	1	0.16	3	0	# hc,c3,c3,c3
   4	1	1.0	2	180	# X,c,ca,X
   5	1	0.15555555555555556	3	0	# X,c3,c3,X
   6	1	0.0	2	0	# X,c3,ca,X
   7	1	2.5	2	180	# X,c,n,X
   8	1	0.45	2	180	# X,ca,n,X
   9	3	0.18	3	0	0.25	2	180	0.2	1	180	# c3,c3,c3,c3
  10	2	0.0	3	0	0.19	1	0	# hc,c3,c3,f
  11	4	0.5	4	180	0.15	3	180	0.0	2	0	0.53	1	0	# c3,c3,n,c
  12	1	0.0	2	0	# X,c3,n,X

Improper Coeffs

   1	10.5	-1	2	# c,X,X,o
   2	1.1	-1	2	# ca,X,X,ha
   3	1.1	-1	2	# ca,ca,ca,c3
   4	1.1	-1	2	# n,X,X,hn

Atoms

   1	1	1	0.463181	-78.5146	57.4627	37.8647
   2	1	2	0.074399	-77.1556	57.7509	37.7288
   3	1	3	0.034296	-77.1378	59.1457	37.2233
   4	1	2	0.051625	-79.3467	58.4938	37.4395
   5	1	3	0.019035	-78.4327	59.5955	37.0604
   6	1	5	-0.389616	-76.1896	57.0283	37.8613
   7	1	5	-0.380104	-80.564	58.5042	37.3437
   8	1	3	-0.045097	-76.0356	59.9749	37.0058
   9	1	3	-0.056032	-78.7031	60.9128	36.6964
  10	1	3	-0.174781	-77.6167	61.7689	36.4554
  11	1	3	-0.129342	-76.273	61.3091	36.6027
  12	1	6	0.168842	-75.0322	59.5736	37.0903
  13	1	6	0.15893	-79.7271	61.2573	36.5992
  14	1	6	0.147704	-77.8034	62.8002	36.1413
  15	1	2	0.584577	-75.1268	62.263	36.3658
  16	1	3	-0.046755	-73.7333	62.004	36.896
  17	1	3	-0.110868	-72.6271	62.4098	36.1115
  18	1	3	-0.046132	-71.3307	62.1921	36.6048
  19	1	3	-0.135873	-73.4983	61.4396	38.1772
  20	1	3	-0.117662	-72.1899	61.2078	38.6575
  21	1	3	-0.064457	-71.1109	61.5861	37.833
  22	1	2	0.492569	-69.6219	61.3977	37.9915
  23	1	1	-0.072087	-69.0449	61.9909	36.8801
  24	1	2	0.477555	-70.0013	62.48	35.9928
  25	1	3	0.042617	-67.6501	62.1967	36.7025
  26	1	3	-0.20367	-66.8951	62.8589	37.6884
  27	1	3	-0.057018	-65.5607	63.2099	37.4352
  28	1	3	-0.18182	-67.0205	61.8019	35.5145
  29	1	3	-0.14326	-65.7025	62.2314	35.2521
  30	1	3	0.043342	-64.9744	62.98	36.1906
  31	1	6	0.163244	-67.3454	63.1379	38.6363
  32	1	6	0.101178	-65.0005	63.7533	38.1955
  33	1	6	0.165346	-72.013	60.7177	39.6138
  34	1	6	0.135111	-74.3401	61.174	38.8037
  35	1	6	0.171751	-72.7803	62.894	35.1476
  36	1	5	-0.478239	-69.8269	63.1147	34.9706
  37	1	5	-0.481107	-69.0503	60.8602	38.9289
  38	1	5	-0.49957	-75.3087	63.2606	35.689
  39	1	6	0.151248	-67.5901	61.2748	34.76
  40	1	6	0.146138	-65.2326	61.9759	34.3116
  41	1	7	0.044043	-63.6033	63.6255	35.9137
  42	1	7	-0.215975	-63.6637	65.1902	36.056
  43	1	8	0.063789	-63.9355	65.507	37.0675
  44	1	8	0.072206	-64.3938	65.6369	35.3548
  45	1	8	0.045489	-62.6915	65.6344	35.8374
  46	1	7	0.005306	-62.4752	63.0529	36.8256
  47	1	7	0.164932	-61.6592	62.0174	36.0103
  48	1	8	0.005277	-62.8834	62.644	37.7555
  49	1	8	0.017604	-61.8211	63.8649	37.1343
  50	1	3	0.008363	-62.0008	62.4116	34.5745
  51	1	7	-0.151488	-62.1594	60.6003	36.3513
  52	1	7	-0.269275	-60.1459	62.0995	36.3397
  53	1	3	0.096378	-63.0752	63.2953	34.5355
  54	1	8	0.063418	-59.7524	63.111	36.139
  55	1	8	0.061085	-59.5901	61.384	35.7297
  56	1	8	0.065045	-59.9806	61.859	37.402
  57	1	3	-0.142025	-61.3607	62.0036	33.3887
  58	1	3	-0.448546	-63.5063	63.838	33.3041
  59	1	3	0.277842	-62.8463	63.4632	32.1206
  60	1	3	-0.409063	-61.7971	62.5381	32.1666
  61	1	6	0.203923	-64.3368	64.5327	33.2702
  62	1	8	0.016419	-61.9082	60.3222	37.3759
  63	1	8	0.049665	-61.6901	59.8555	35.7024
  64	1	8	0.035794	-63.2551	60.5095	36.2181
  65	1	6	0.161583	-60.5291	61.3067	33.4069
  66	1	6	0.199011	-61.3121	62.2706	31.2431
  67	1	7	0.070548	-79.086	55.1654	37.1979
  68	1	7	0.506757	-79.0164	56.1625	38.3854
  69	1	8	-0.012767	-78.097	55.051	36.7451
  70	1	8	-0.014806	-79.6968	55.5872	36.4041
  71	1	9	-0.274996	-78.2286	55.7068	39.391
  72	1	9	-0.274736	-80.2704	56.2575	38.895
  73	1	1	0.463181	-81.2437	45.5325	23.3096
  74	1	2	0.074399	-81.4389	46.0952	24.5879
  75	1	3	0.034296	-82.2948	47.3014	24.3834
  76	1	2	0.051625	-81.9239	46.2691	22.3298
  77	1	3	0.019035	-82.5429	47.42	23.0365
  78	1	5	-0.389616	-81.0052	45.7151	25.6644
  79	1	5	-0.380104	-82.2993	45.8992	21.2289
  80	1	3	-0.045097	-82.8612	48.1874	25.3212
  81	1	3	-0.056032	-83.3577	48.4465	22.5428
  82	1	3	-0.174781	-83.9454	49.3425	23.4517
  83	1	3	-0.129342	-83.7434	49.2058	24.8529
  84	1	6	0.168842	-82.6334	48.0714	26.3796
  85	1	6	0.15893	-83.5594	48.535	21.4816
  86	1	6	0.147704	-84.5983	50.1239	23.0813
  87	1	2	0.584577	-84.3984	50.2133	25.7999
  88	1	3	-0.046755	-84.5345	49.8917	27.2627
  89	1	3	-0.110868	-84.2937	50.8776	28.2536
  90	1	3	-0.046132	-84.3303	50.4682	29.597
  91	1	3	-0.135873	-84.8699	48.5731	27.6523
  92	1	3	-0.117662	-84.9056	48.1977	29.0045
  93	1	3	-0.064457	-84.6258	49.1718	29.9589
  94	1	2	0.492569	-84.5468	49.0721	31.441
  95	1	1	-0.072087	-84.1394	50.3188	31.8907
  96	1	2	0.477555	-83.9813	51.2035	30.8369
  97	1	3	0.042617	-83.8286	50.6106	33.2554
  98	1	3	-0.20367	-84.6703	50.2036	34.3167
  99	1	3	-0.057018	-84.3137	50.4733	35.6559
 100	1	3	-0.18182	-82.6275	51.2979	33.5557
 101	1	3	-0.14326	-82.2681	51.5658	34.8871
 102	1	3	0.043342	-83.1026	51.1456	35.9634
 103	1	6	0.163244	-85.5955	49.6825	34.1045
 104	1	6	0.101178	-85.0079	50.1908	36.4344
 105	1	6	0.165346	-85.1495	47.1815	29.3134
 106	1	6	0.135111	-85.0933	47.8266	26.899
 107	1	6	0.171751	-84.0279	51.9007	27.9748
 108	1	5	-0.478239	-83.632	52.3573	30.887
 109	1	5	-0.481107	-84.6643	48.0452	32.0819
 110	1	5	-0.49957	-84.7131	51.322	25.403
 111	1	6	0.151248	-81.965	51.6377	32.7499
 112	1	6	0.146138	-81.3559	52.1027	35.0744
 113	1	7	0.044043	-82.8289	51.5742	37.4301
 114	1	7	-0.215975	-83.9159	52.5897	37.8851
 115	1	8	0.063789	-83.9008	53.4714	37.2283
 116	1	8	0.072206	-83.7404	52.9229	38.9214
 117	1	8	0.045489	-84.9242	52.1627	37.8336
 118	1	7	0.005306	-82.7554	50.3329	38.3819
 119	1	7	0.164932	-81.2507	49.9081	38.4972
 120	1	8	0.005277	-83.3856	49.507	38.0211
 121	1	8	0.017604	-83.1635	50.6221	39.3633
 122	1	3	0.008363	-80.5498	51.2176	38.1957
 123	1	7	-0.151488	-80.8669	48.8383	37.4418
 124	1	7	-0.269275	-80.9282	49.3429	39.8973
 125	1	3	0.096378	-81.4267	52.1513	37.6274
 126	1	8	0.063418	-81.5688	48.4812	40.1149
 127	1	8	0.061085	-81.0511	50.0884	40.707
 128	1	8	0.065045	-79.8899	48.9797	39.9362
 129	1	3	-0.142025	-79.2006	51.5381	38.4333
 130	1	3	-0.448546	-80.9513	53.4361	37.2736
 131	1	3	0.277842	-79.6261	53.796	37.5881
 132	1	3	-0.409063	-78.7525	52.8397	38.1478
 133	1	6	0.203923	-81.6017	54.1504	36.7776
 134	1	8	0.016419	-79.7906	48.6814	37.4461
 135	1	8	0.049665	-81.1025	49.1753	36.4183
 136	1	8	0.035794	-81.3831	47.8883	37.6231
 137	1	6	0.161583	-78.531	50.8162	38.8965
 138	1	6	0.199011	-77.7257	53.1188	38.3763
 139	1	7	0.070548	-79.8121	43.98	21.7557
 140	1	7	0.506757	-80.6626	44.165	23.0634
 141	1	8	-0.012767	-80.3502	44.3736	20.8893
 142	1	8	-0.014806	-78.9065	44.618	21.866
 143	1	9	-0.274996	-79.8095	43.7764	24.046
 144	1	9	-0.274736	-81.6821	43.2856	23.0413
 145	1	7	0.070548	-78.3148	41.8182	22.329
 146	1	7	0.506757	-79.3301	42.5252	21.3767
 147	1	8	-0.012767	-77.4511	42.4861	22.4547
 148	1	8	-0.014806	-78.7729	41.739	23.3186
 149	1	9	-0.274996	-78.7207	42.6471	20.1854
 150	1	9	-0.274736	-80.3721	41.6905	21.1718
 151	1	7	0.070548	-77.0337	40.2107	20.6114
 152	1	7	0.506757	-77.7912	40.367	21.9471
 153	1	8	-0.012767	-77.7682	40.2927	19.7965
 154	1	8	-0.014806	-76.5855	39.2231	20.5313
 155	1	9	-0.274996	-78.7989	39.4747	21.9411
 156	1	9	-0.274736	-76.9556	39.9206	22.9034
 157	1	1	0.463181	-60.7684	30.6919	24.342
 158	1	2	0.074399	-61.0599	31.8971	24.9784
 159	1	3	0.034296	-62.508	32.0924	24.7767
 160	1	2	0.051625	-61.8823	30.1234	23.7201
 161	1	3	0.019035	-62.9876	31.0796	23.9857
 162	1	5	-0.389616	-60.287	32.689	25.4836
 163	1	5	-0.380104	-62.0022	29.0447	23.1392
 164	1	3	-0.045097	-63.3404	33.1291	25.208
 165	1	3	-0.056032	-64.3213	31.0575	23.5504
 166	1	3	-0.174781	-65.1573	32.1121	23.93
 167	1	3	-0.129342	-64.6866	33.1331	24.7904
 168	1	6	0.168842	-62.9427	33.9084	25.856
 169	1	6	0.15893	-64.6789	30.2425	22.9265
 170	1	6	0.147704	-66.2176	32.098	23.6333
 171	1	2	0.584577	-65.5746	34.1935	25.3502
 172	1	3	-0.046755	-66.2212	35.2164	24.4157
 173	1	3	-0.110868	-66.9425	36.2947	24.9686
 174	1	3	-0.046132	-67.4605	37.272	24.1113
 175	1	3	-0.135873	-66.0772	35.1341	23.003
 176	1	3	-0.117662	-66.6503	36.1056	22.1459
 177	1	3	-0.064457	-67.3264	37.176	22.7328
 178	1	2	0.492569	-68.1984	38.2009	22.1227
 179	1	1	-0.072087	-68.7972	38.877	23.1888
 180	1	2	0.477555	-68.3664	38.428	24.4247
 181	1	3	0.042617	-69.8111	39.8511	23.0382
 182	1	3	-0.20367	-69.7954	41.061	23.7419
 183	1	3	-0.057018	-70.7727	42.0451	23.4949
 184	1	3	-0.18182	-70.8796	39.6004	22.1643
 185	1	3	-0.14326	-71.8557	40.5606	21.9153
 186	1	3	0.043342	-71.8186	41.8123	22.5603
 187	1	6	0.163244	-68.9961	41.2643	24.4533
 188	1	6	0.101178	-70.6742	42.9823	24.0377
 189	1	6	0.165346	-66.5712	36.0052	21.071
 190	1	6	0.135111	-65.5589	34.2987	22.5232
 191	1	6	0.171751	-67.115	36.3705	26.0429
 192	1	5	-0.478239	-68.6804	38.8578	25.5258
 193	1	5	-0.481107	-68.311	38.3983	20.9179
 194	1	5	-0.49957	-65.5971	34.3148	26.5744
 195	1	6	0.151248	-70.9352	38.642	21.6563
 196	1	6	0.146138	-72.6396	40.3297	21.2053
 197	1	7	0.044043	-72.8973	42.8861	22.2603
 198	1	7	-0.215975	-73.5501	43.3774	23.5721
 199	1	8	0.063789	-74.0071	42.5456	24.1202
 200	1	8	0.072206	-74.3261	44.1446	23.3834
 201	1	8	0.045489	-72.8047	43.8196	24.2416
 202	1	7	0.005306	-72.2472	44.098	21.5394
 203	1	7	0.164932	-73.1893	44.5656	20.3802
 204	1	8	0.005277	-71.288	43.7428	21.1299
 205	1	8	0.017604	-71.9687	44.898	22.2232
 206	1	3	0.008363	-74.152	43.3976	20.2329
 207	1	7	-0.151488	-72.3267	44.8432	19.1375
 208	1	7	-0.269275	-73.9956	45.8242	20.8016
 209	1	3	0.096378	-74.0175	42.4861	21.2856
 210	1	8	0.063418	-74.4874	46.2577	19.9105
 211	1	8	0.061085	-73.3166	46.5858	21.2315
 212	1	8	0.065045	-74.7532	45.5783	21.5588
 213	1	3	-0.142025	-75.1541	43.2282	19.2536
 214	1	3	-0.448546	-74.9126	41.4024	21.4086
 215	1	3	0.277842	-75.9475	41.2423	20.4626
 216	1	3	-0.409063	-76.0283	42.125	19.3678
 217	1	6	0.203923	-74.8174	40.7402	22.2606
 218	1	8	0.016419	-71.7635	45.7786	19.2458
 219	1	8	0.049665	-72.9709	44.9264	18.2507
 220	1	8	0.035794	-71.5939	44.0442	18.993
 221	1	6	0.161583	-75.2312	43.928	18.4247
 222	1	6	0.199011	-76.8194	42.0017	18.6189
 223	1	1	0.463181	-57.8053	11.0549	21.7217
 224	1	2	0.074399	-57.0428	11.9215	20.9297
 225	1	3	0.034296	-57.0136	13.1874	21.6746
 226	1	2	0.051625	-58.1984	11.6473	22.9228
 227	1	3	0.019035	-57.6641	13.0106	22.8746
 228	1	5	-0.389616	-56.449	11.7192	19.8766
 229	1	5	-0.380104	-58.8113	11.192	23.8758
 230	1	3	-0.045097	-56.3943	14.4028	21.3492
 231	1	3	-0.056032	-57.699	14.0079	23.8554
 232	1	3	-0.174781	-57.0559	15.2293	23.5669
 233	1	3	-0.129342	-56.4227	15.4456	22.3162
 234	1	6	0.168842	-55.8914	14.5499	20.3926
 235	1	6	0.15893	-58.1879	13.8081	24.806
 236	1	6	0.147704	-57.0157	16.0002	24.3356
 237	1	2	0.584577	-55.7246	16.7359	21.9823
 238	1	3	-0.046755	-56.3239	18.0716	22.3299
 239	1	3	-0.110868	-55.5692	19.2576	22.14
 240	1	3	-0.046132	-56.1874	20.4932	22.3922
 241	1	3	-0.135873	-57.6645	18.1683	22.7955
 242	1	3	-0.117662	-58.2545	19.4135	23.0295
 243	1	3	-0.064457	-57.5109	20.556	22.7822
 244	1	2	0.492569	-57.9547	21.9457	22.8699
 245	1	1	-0.072087	-56.8406	22.739	22.5314
 246	1	2	0.477555	-55.705	21.9076	22.2991
 247	1	3	0.042617	-56.8984	24.1788	22.3251
 248	1	3	-0.20367	-56.1117	24.7916	21.3203
 249	1	3	-0.057018	-56.16	26.1961	21.1465
 250	1	3	-0.18182	-57.7978	25.002	23.0391
 251	1	3	-0.14326	-57.8007	26.3991	22.8681
 252	1	3	0.043342	-56.9626	27.0331	21.9478
 253	1	6	0.163244	-55.4411	24.2024	20.708
 254	1	6	0.101178	-55.5145	26.6382	20.3962
 255	1	6	0.165346	-59.2941	19.4929	23.3464
 256	1	6	0.135111	-58.3017	17.294	22.8852
 257	1	6	0.171751	-54.5328	19.2258	21.7906
 258	1	5	-0.478239	-54.5677	22.2572	22.069
 259	1	5	-0.481107	-59.0865	22.2588	23.2043
 260	1	5	-0.49957	-54.6828	16.7109	21.3361
 261	1	6	0.151248	-58.4899	24.5424	23.7504
 262	1	6	0.146138	-58.4905	26.9756	23.4782
 263	1	7	0.044043	-56.9259	28.5693	21.7597
 264	1	7	-0.215975	-57.4907	28.9369	20.3693
 265	1	8	0.063789	-58.5061	28.5316	20.2373
 266	1	8	0.072206	-56.8374	28.5431	19.5729
 267	1	8	0.045489	-57.5388	30.0133	20.2416
 268	1	7	0.005306	-55.4661	29.0824	21.9823
 269	1	7	0.164932	-55.2892	29.3806	23.515
 270	1	8	0.005277	-55.3379	30.028	21.4289
 271	1	8	0.017604	-54.6779	28.4252	21.6053
 272	1	3	0.008363	-56.715	29.6358	23.9169
 273	1	7	-0.151488	-54.4075	30.6407	23.766
 274	1	7	-0.269275	-54.7299	28.1737	24.3201
 275	1	3	0.096378	-57.6087	29.3113	22.8969
 276	1	8	0.063418	-55.4111	27.3175	24.2778
 277	1	8	0.061085	-54.6012	28.4377	25.3867
 278	1	8	0.065045	-53.7544	27.8407	23.9355
 279	1	3	-0.142025	-57.1386	30.1853	25.1242
 280	1	3	-0.448546	-58.9622	29.6638	23.0279
 281	1	3	0.277842	-59.4289	30.2178	24.2321
 282	1	3	-0.409063	-58.5087	30.4285	25.2847
 283	1	6	0.203923	-59.6386	29.4618	22.2177
 284	1	8	0.016419	-53.4119	30.4937	23.3295
 285	1	8	0.049665	-54.2727	30.8342	24.8326
 286	1	8	0.035794	-54.8745	31.5389	23.3286
 287	1	6	0.161583	-56.4218	30.4856	25.8954
 288	1	6	0.199011	-58.8311	30.8745	26.2359
 289	1	1	0.463181	-45.4772	-1.96581	27.4908
 290	1	2	0.074399	-46.3582	-2.79407	26.7651
 291	1	3	0.034296	-47.6376	-2.11354	26.8298
 292	1	2	0.051625	-46.0956	-0.853863	28.0648
 293	1	3	0.019035	-47.5032	-0.943205	27.5546
 294	1	5	-0.389616	-46.1345	-3.8055	26.1141
 295	1	5	-0.380104	-45.6259	0.0227213	28.776
 296	1	3	-0.045097	-48.832	-2.47146	26.1919
 297	1	3	-0.056032	-48.5437	-0.00916686	27.5781
 298	1	3	-0.174781	-49.757	-0.332283	26.9327
 299	1	3	-0.129342	-49.9164	-1.57691	26.2545
 300	1	6	0.168842	-48.9216	-3.37934	25.6277
 301	1	6	0.15893	-48.4255	0.963685	28.0804
 302	1	6	0.147704	-50.5463	0.406872	26.9438
 303	1	2	0.584577	-51.1968	-1.92916	25.525
 304	1	3	-0.046755	-52.2411	-0.85701	25.3466
 305	1	3	-0.110868	-52.4841	-0.306062	24.0768
 306	1	3	-0.046132	-53.3635	0.769644	23.9651
 307	1	3	-0.135873	-52.9514	-0.346821	26.4609
 308	1	3	-0.117662	-53.8632	0.73047	26.3154
 309	1	3	-0.064457	-54.0511	1.26832	25.0369
 310	1	2	0.492569	-54.9373	2.36604	24.516
 311	1	1	-0.072087	-54.6602	2.49778	23.1458
 312	1	2	0.477555	-53.7307	1.52398	22.7494
 313	1	3	0.042617	-55.2338	3.50462	22.2747
 314	1	3	-0.20367	-55.849	4.68649	22.771
 315	1	3	-0.057018	-56.4238	5.66672	21.9331
 316	1	3	-0.18182	-55.2115	3.38463	20.8694
 317	1	3	-0.14326	-55.7572	4.37981	20.0354
 318	1	3	0.043342	-56.3683	5.53781	20.5386
 319	1	6	0.163244	-55.8802	4.87098	23.8419
 320	1	6	0.101178	-56.8853	6.52768	22.3826
 321	1	6	0.165346	-54.4218	1.11774	27.1688
 322	1	6	0.135111	-52.7969	-0.762202	27.4566
 323	1	6	0.171751	-51.9381	-0.686647	23.2161
 324	1	5	-0.478239	-53.2303	1.29473	21.6579
 325	1	5	-0.481107	-55.8435	2.9035	25.1369
 326	1	5	-0.49957	-51.3225	-3.02906	25.0158
 327	1	6	0.151248	-54.8109	2.49315	20.385
 328	1	6	0.146138	-55.7223	4.21431	18.9616
 329	1	7	0.044043	-57.0292	6.51185	19.5346
 330	1	7	-0.215975	-55.976	7.03563	18.5056
 331	1	8	0.063789	-56.4535	7.61991	17.7193
 332	1	8	0.072206	-55.4394	6.2185	18.0172
 333	1	8	0.045489	-55.2162	7.67642	18.9686
 334	1	7	0.005306	-58.171	5.71972	18.834
 335	1	7	0.164932	-59.5131	6.00797	19.6114
 336	1	8	0.005277	-57.9865	4.64359	18.737
 337	1	8	0.017604	-58.2631	6.08654	17.7956
 338	1	3	0.008363	-59.2085	7.3743	20.188
 339	1	7	-0.151488	-59.7647	5.01496	20.7661
 340	1	7	-0.269275	-60.7391	5.92383	18.6714
 341	1	3	0.096378	-57.8431	7.64391	20.1616
 342	1	8	0.063418	-61.6701	6.09013	19.2204
 343	1	8	0.061085	-60.7965	4.93464	18.2019
 344	1	8	0.065045	-60.6452	6.66495	17.8633
 345	1	3	-0.142025	-60.1083	8.30279	20.7313
 346	1	3	-0.448546	-57.3504	8.86246	20.6609
 347	1	3	0.277842	-58.2441	9.80127	21.2273
 348	1	3	-0.409063	-59.6195	9.51792	21.2538
 349	1	6	0.203923	-56.2871	9.08922	20.5828
 350	1	8	0.016419	-60.6698	5.29833	21.3272
 351	1	8	0.049665	-58.9436	5.0195	21.4912
 352	1	8	0.035794	-59.9109	3.99109	20.3685
 353	1	6	0.161583	-61.1718	8.06383	20.7692
 354	1	6	0.199011	-60.3219	10.2478	21.6689
 355	1	7	0.070548	-43.9057	-3.16975	28.9601
 356	1	7	0.506757	-44.0464	-2.29414	27.6845
 357	1	8	-0.012767	-43.6392	-4.19413	28.6653
 358	1	8	-0.014806	-44.8817	-3.26657	29.4768
 359	1	9	-0.274996	-43.2469	-1.19781	27.6953
 360	1	9	-0.274736	-43.5577	-3.00529	26.637
 361	1	1	0.463181	-23.9033	-0.118045	24.194
 362	1	2	0.074399	-24.4386	-1.20256	24.9044
 363	1	3	0.034296	-25.8851	-1.23444	24.5222
 364	1	2	0.051625	-24.8288	0.496072	23.3417
 365	1	3	0.019035	-26.1032	-0.254779	23.5633
 366	1	5	-0.389616	-23.9005	-1.94398	25.7128
 367	1	5	-0.380104	-24.6465	1.41711	22.5572
 368	1	3	-0.045097	-26.9227	-2.05226	25.0087
 369	1	3	-0.056032	-27.3727	-0.0886667	22.9885
 370	1	3	-0.174781	-28.4303	-0.896599	23.4745
 371	1	3	-0.129342	-28.2315	-1.87012	24.5067
 372	1	6	0.168842	-26.7029	-2.83886	25.7293
 373	1	6	0.15893	-27.5448	0.682007	22.2346
 374	1	6	0.147704	-29.4179	-0.774098	23.0604
 375	1	2	0.584577	-29.3442	-2.77122	25.0065
 376	1	3	-0.046755	-30.5724	-2.21517	25.6894
 377	1	3	-0.110868	-31.5373	-3.1414	26.1632
 378	1	3	-0.046132	-32.6941	-2.65917	26.7965
 379	1	3	-0.135873	-30.8115	-0.822768	25.8413
 380	1	3	-0.117662	-31.9472	-0.354332	26.5336
 381	1	3	-0.064457	-32.8717	-1.3007	27.0265
 382	1	2	0.492569	-34.1408	-1.14593	27.795
 383	1	1	-0.072087	-34.6662	-2.41906	27.9529
 384	1	2	0.477555	-33.8743	-3.40202	27.3535
 385	1	3	0.042617	-35.8362	-2.65498	28.737
 386	1	3	-0.20367	-37.0579	-2.0144	28.4279
 387	1	3	-0.057018	-38.2003	-2.2013	29.2369
 388	1	3	-0.18182	-35.7491	-3.42641	29.9107
 389	1	3	-0.14326	-36.8808	-3.59867	30.7308
 390	1	3	0.043342	-38.126	-2.99017	30.4203
 391	1	6	0.163244	-37.1058	-1.36875	27.5533
 392	1	6	0.101178	-39.1327	-1.7305	28.9453
 393	1	6	0.165346	-32.0937	0.709694	26.7071
 394	1	6	0.135111	-30.096	-0.0960465	25.4799
 395	1	6	0.171751	-31.3854	-4.2119	26.0441
 396	1	5	-0.478239	-34.0599	-4.60892	27.2978
 397	1	5	-0.481107	-34.5839	-0.103775	28.2582
 398	1	5	-0.49957	-29.2267	-3.98798	24.9032
 399	1	6	0.151248	-34.7979	-3.88379	30.181
 400	1	6	0.146138	-36.7761	-4.18868	31.6452
 401	1	7	0.044043	-39.3349	-3.30263	31.3164
 402	1	7	-0.215975	-39.5031	-4.83478	31.5203
 403	1	8	0.063789	-40.3826	-5.04576	32.1584
 404	1	8	0.072206	-38.6406	-5.27352	32.0425
 405	1	8	0.045489	-39.6516	-5.36323	30.5643
 406	1	7	0.005306	-39.1216	-2.63553	32.7099
 407	1	7	0.164932	-39.9363	-1.31834	32.7617
 408	1	8	0.005277	-38.0657	-2.47426	32.9226
 409	1	8	0.017604	-39.5021	-3.29602	33.5119
 410	1	3	0.008363	-41.0594	-1.66877	31.8093
 411	1	7	-0.151488	-39.1254	-0.123849	32.2064
 412	1	7	-0.269275	-40.3925	-0.967266	34.1935
 413	1	3	0.096378	-40.6796	-2.68657	30.9265
 414	1	8	0.063418	-40.8837	0.019361	34.241
 415	1	8	0.061085	-39.5239	-0.921417	34.867
 416	1	8	0.065045	-41.0998	-1.72299	34.5708
 417	1	3	-0.142025	-42.357	-1.13492	31.814
 418	1	3	-0.448546	-41.5971	-3.20074	30.0042
 419	1	3	0.277842	-42.889	-2.64565	29.9475
 420	1	3	-0.409063	-43.2794	-1.67188	30.8981
 421	1	6	0.203923	-41.32	-4.0264	29.3528
 422	1	8	0.016419	-39.6435	0.821558	32.3958
 423	1	8	0.049665	-38.9948	-0.222286	31.1268
 424	1	8	0.035794	-38.134	-0.0724061	32.6801
 425	1	6	0.161583	-42.6432	-0.37274	32.5355
 426	1	6	0.199011	-44.2987	-1.28717	30.8837
 427	1	1	0.463181	-3.90707	-3.66817	17.2881
 428	1	2	0.074399	-5.04762	-4.31608	16.7704
 429	1	3	0.034296	-6.20587	-3.6889	17.4773
 430	1	2	0.051625	-4.20215	-2.65746	18.2013
 431	1	3	0.019035	-5.69479	-2.72303	18.3315
 432	1	5	-0.389616	-5.13188	-5.27542	16.0161
 433	1	5	-0.380104	-3.42358	-2.02263	18.9081
 434	1	3	-0.045097	-7.56521	-4.06715	17.5087
 435	1	3	-0.056032	-6.54992	-2.03528	19.2164
 436	1	3	-0.174781	-7.90767	-2.42288	19.2905
 437	1	3	-0.129342	-8.41829	-3.44139	18.4436
 438	1	6	0.168842	-7.92704	-4.87146	16.8663
 439	1	6	0.15893	-6.15767	-1.26909	19.8805
 440	1	6	0.147704	-8.55283	-1.94684	20.0292
 441	1	2	0.584577	-9.85294	-3.92372	18.5651
 442	1	3	-0.046755	-10.9005	-2.98737	19.0803
 443	1	3	-0.110868	-11.8949	-3.46884	19.9642
 444	1	3	-0.046132	-12.9243	-2.59582	20.3401
 445	1	3	-0.135873	-10.9467	-1.62864	18.6561
 446	1	3	-0.117662	-12.0113	-0.7781	19.0367
 447	1	3	-0.064457	-13.011	-1.302	19.859
 448	1	2	0.492569	-14.1913	-0.638742	20.4387
 449	1	1	-0.072087	-14.7708	-1.59252	21.2623
 450	1	2	0.477555	-14.0929	-2.8058	21.2271
 451	1	3	0.042617	-15.8243	-1.29036	22.152
 452	1	3	-0.20367	-15.584	-0.411249	23.2049
 453	1	3	-0.057018	-16.5951	-0.157984	24.1381
 454	1	3	-0.18182	-17.0842	-1.86634	22.0061
 455	1	3	-0.14326	-18.0962	-1.63243	22.9614
 456	1	3	0.043342	-17.8659	-0.775299	24.0708
 457	1	6	0.163244	-14.6108	0.0458443	23.3326
 458	1	6	0.101178	-16.3469	0.538094	24.925
 459	1	6	0.165346	-12.0708	0.250194	18.6927
 460	1	6	0.135111	-10.1976	-1.24062	17.9745
 461	1	6	0.171751	-11.8779	-4.50201	20.314
 462	1	5	-0.478239	-14.4076	-3.84814	21.7683
 463	1	5	-0.481107	-14.5858	0.488825	20.1936
 464	1	5	-0.49957	-10.1608	-5.06858	18.267
 465	1	6	0.151248	-17.2629	-2.55221	21.1743
 466	1	6	0.146138	-19.0769	-2.07931	22.8324
 467	1	7	0.044043	-18.9288	-0.607886	25.2119
 468	1	7	-0.215975	-19.309	-2.02503	25.7717
 469	1	8	0.063789	-20.0575	-1.96301	26.5776
 470	1	8	0.072206	-18.4004	-2.50238	26.1776
 471	1	8	0.045489	-19.7353	-2.69384	25.0092
 472	1	7	0.005306	-18.4227	0.320408	26.3792
 473	1	7	0.164932	-18.884	1.80016	26.1447
 474	1	8	0.005277	-17.3872	0.198965	26.6855
 475	1	8	0.017604	-18.9873	-0.0182206	27.2634
 476	1	3	0.008363	-20.1451	1.51038	25.3396
 477	1	7	-0.151488	-17.8997	2.71454	25.3717
 478	1	7	-0.269275	-19.1952	2.48268	27.5066
 479	1	3	0.096378	-20.2012	0.195624	24.8613
 480	1	8	0.063418	-19.5939	3.49948	27.3664
 481	1	8	0.061085	-18.2962	2.53808	28.1382
 482	1	8	0.065045	-19.943	1.90572	28.0701
 483	1	3	-0.142025	-21.2706	2.33666	25.2791
 484	1	3	-0.448546	-21.4274	-0.337814	24.4127
 485	1	3	0.277842	-22.6073	0.439939	24.4402
 486	1	3	-0.409063	-22.4982	1.78584	24.8535
 487	1	6	0.203923	-21.491	-1.38753	24.1368
 488	1	8	0.016419	-18.3391	3.7145	25.2434
 489	1	8	0.049665	-17.7232	2.3243	24.3636
 490	1	8	0.035794	-16.939	2.83716	25.8924
 491	1	6	0.161583	-21.21	3.36413	25.6276
 492	1	6	0.199011	-23.38	2.42513	24.8474
 493	1	1	0.463181	14.9676	1.94232	12.3419
 494	1	2	0.074399	14.2645	1.04793	11.5423
 495	1	3	0.034296	13.1611	0.586451	12.4054
 496	1	2	0.051625	14.3726	2.16342	13.5627
 497	1	3	0.019035	13.2548	1.20019	13.6375
 498	1	5	-0.389616	14.5771	0.529183	10.4815
 499	1	5	-0.380104	14.6174	3.04134	14.3523
 500	1	3	-0.045097	12.2638	-0.449866	12.1581
 501	1	3	-0.056032	12.453	0.834638	14.7233
 502	1	3	-0.174781	11.5376	-0.205412	14.5124
 503	1	3	-0.129342	11.4485	-0.852877	13.2401
 504	1	6	0.168842	12.2157	-0.938786	11.1854
 505	1	6	0.15893	12.5486	1.32563	15.6924
 506	1	6	0.147704	10.9169	-0.511256	15.3433
 507	1	2	0.584577	10.4561	-1.94453	12.9629
 508	1	3	-0.046755	9.02349	-1.73332	13.3401
 509	1	3	-0.110868	8.14229	-2.79657	13.0602
 510	1	3	-0.046132	6.79244	-2.53754	13.2234
 511	1	3	-0.135873	8.51695	-0.431191	13.6292
 512	1	3	-0.117662	7.13655	-0.18977	13.7109
 513	1	3	-0.064457	6.30311	-1.29503	13.5723
 514	1	2	0.492569	4.83757	-1.38689	13.7484
 515	1	1	-0.072087	4.55782	-2.74193	13.4949
 516	1	2	0.477555	5.68741	-3.49056	13.1389
 517	1	3	0.042617	3.30482	-3.34946	13.6991
 518	1	3	-0.20367	2.53835	-3.02985	14.8413
 519	1	3	-0.057018	1.39032	-3.77748	15.1327
 520	1	3	-0.18182	2.88354	-4.37997	12.8338
 521	1	3	-0.14326	1.71885	-5.08702	13.1023
 522	1	3	0.043342	0.966529	-4.80674	14.2503
 523	1	6	0.163244	2.85447	-2.24334	15.5181
 524	1	6	0.101178	0.832749	-3.54261	16.0251
 525	1	6	0.165346	6.73973	0.804763	13.9263
 526	1	6	0.135111	9.18555	0.414706	13.7103
 527	1	6	0.171751	8.49033	-3.78333	12.7392
 528	1	5	-0.478239	5.83828	-4.65902	12.7955
 529	1	5	-0.481107	4.11685	-0.468322	14.1188
 530	1	5	-0.49957	10.6976	-2.81659	12.1365
 531	1	6	0.151248	3.47679	-4.66926	11.9583
 532	1	6	0.146138	1.44712	-5.9152	12.4348
 533	1	7	0.044043	-0.242517	-5.68402	14.4984
 534	1	7	-0.215975	-1.1691	-5.62123	13.2585
 535	1	8	0.063789	-0.727873	-6.16895	12.4198
 536	1	8	0.072206	-1.3551	-4.58427	12.9286
 537	1	8	0.045489	-2.12968	-6.1089	13.468
 538	1	7	0.005306	0.196064	-7.16037	14.8114
 539	1	7	0.164932	0.290997	-7.27233	16.3624
 540	1	8	0.005277	1.1347	-7.4385	14.3196
 541	1	8	0.017604	-0.556605	-7.86393	14.4236
 542	1	3	0.008363	-0.537273	-6.09781	16.8374
 543	1	7	-0.151488	1.74151	-7.13573	16.8437
 544	1	7	-0.269275	-0.305223	-8.6189	16.8209
 545	1	3	0.096378	-0.935566	-5.29397	15.7814
 546	1	8	0.063418	-0.12592	-8.81642	17.8831
 547	1	8	0.061085	0.110807	-9.45751	16.2414
 548	1	8	0.065045	-1.39111	-8.62722	16.6806
 549	1	3	-0.142025	-1.04536	-5.89624	18.135
 550	1	3	-0.448546	-1.94522	-4.34803	15.9422
 551	1	3	0.277842	-2.58995	-4.22528	17.1923
 552	1	3	-0.409063	-2.06753	-4.93521	18.3008
 553	1	6	0.203923	-2.34649	-3.84459	15.0663
 554	1	8	0.016419	1.77363	-7.03866	17.9384
 555	1	8	0.049665	2.20153	-6.24415	16.4063
 556	1	8	0.035794	2.3489	-8.0053	16.5615
 557	1	6	0.161583	-0.716052	-6.5205	18.9565
 558	1	6	0.199011	-2.55003	-4.85492	19.277
 559	1	7	0.070548	16.0719	3.85271	11.1789
 560	1	7	0.506757	16.2618	2.54866	11.9774
 561	1	8	-0.012767	15.2428	4.4428	11.6053
 562	1	8	-0.014806	15.7611	3.60495	10.1519
 563	1	9	-0.274996	17.01	2.79851	13.0895
 564	1	9	-0.274736	16.9727	1.74306	11.1843
 565	1	1	0.463181	18.236	13.5293	-5.33967
 566	1	2	0.074399	18.6543	13.2882	-4.00072
 567	1	3	0.034296	17.7732	12.2866	-3.51538
 568	1	2	0.051625	17.1245	12.7746	-5.74504
 569	1	3	0.019035	16.8776	11.9625	-4.51447
 570	1	5	-0.389616	19.4601	13.8423	-3.27877
 571	1	5	-0.380104	16.2937	12.9788	-6.62028
 572	1	3	-0.045097	17.5515	12.0387	-2.15541
 573	1	3	-0.056032	15.8198	11.1161	-4.19956
 574	1	3	-0.174781	15.6156	10.7225	-2.85385
 575	1	3	-0.129342	16.4628	11.2253	-1.83313
 576	1	6	0.168842	18.1967	12.4944	-1.41297
 577	1	6	0.15893	15.0734	10.9407	-4.96674
 578	1	6	0.147704	14.7477	10.1283	-2.63101
 579	1	2	0.584577	16.2252	10.8439	-0.411043
 580	1	3	-0.046755	17.1763	9.85175	0.164211
 581	1	3	-0.110868	16.9674	9.51339	1.51412
 582	1	3	-0.046132	17.7667	8.53454	2.09205
 583	1	3	-0.135873	18.234	9.22427	-0.5535
 584	1	3	-0.117662	18.9629	8.15841	0.047639
 585	1	3	-0.064457	18.7326	7.83491	1.39845
 586	1	2	0.492569	19.2966	6.77103	2.29572
 587	1	1	-0.072087	18.6139	6.95893	3.53826
 588	1	2	0.477555	17.7129	8.03198	3.47587
 589	1	3	0.042617	18.991	6.44192	4.81472
 590	1	3	-0.20367	18.0978	6.37833	5.9125
 591	1	3	-0.057018	18.5315	6.03904	7.20045
 592	1	3	-0.18182	20.3419	6.15048	5.04899
 593	1	3	-0.14326	20.7651	5.76763	6.31515
 594	1	3	0.043342	19.8809	5.69966	7.40933
 595	1	6	0.163244	17.0428	6.56379	5.76294
 596	1	6	0.101178	17.7931	5.98524	7.99731
 597	1	6	0.165346	19.7181	7.632	-0.521762
 598	1	6	0.135111	18.3493	9.42504	-1.60535
 599	1	6	0.171751	16.2349	10.0309	2.13775
 600	1	5	-0.478239	17.0041	8.51589	4.33819
 601	1	5	-0.481107	20.2271	6.01635	2.00156
 602	1	5	-0.49957	15.4756	11.4749	0.330608
 603	1	6	0.151248	21.0866	6.17402	4.2572
 604	1	6	0.146138	21.8353	5.58658	6.47879
 605	1	7	0.044043	20.4011	5.24696	8.78995
 606	1	7	-0.215975	21.049	3.85305	8.62802
 607	1	8	0.063789	20.3433	3.16682	8.14924
 608	1	8	0.072206	21.3665	3.4231	9.59356
 609	1	8	0.045489	21.9482	3.92832	7.99743
 610	1	7	0.005306	21.455	6.28252	9.30645
 611	1	7	0.164932	20.6558	7.21991	10.2527
 612	1	8	0.005277	21.9815	6.85458	8.54104
 613	1	8	0.017604	22.2292	5.75287	9.87338
 614	1	3	0.008363	19.5293	6.34558	10.7266
 615	1	7	-0.151488	20.0328	8.43601	9.52277
 616	1	7	-0.269275	21.5037	7.74118	11.4051
 617	1	3	0.096378	19.3374	5.27014	9.88413
 618	1	8	0.063418	20.9341	8.42638	12.0567
 619	1	8	0.061085	22.3924	8.26337	11.0241
 620	1	8	0.065045	21.8873	6.89044	11.9918
 621	1	3	-0.142025	18.667	6.6084	11.8034
 622	1	3	-0.448546	18.2177	4.45047	10.056
 623	1	3	0.277842	17.3477	4.66775	11.1334
 624	1	3	-0.409063	17.5848	5.73898	12.0189
 625	1	6	0.203923	18.0102	3.68566	9.31488
 626	1	8	0.016419	19.3414	8.98487	10.1882
 627	1	8	0.049665	19.5159	8.19892	8.588
 628	1	8	0.035794	20.828	9.14605	9.2554
 629	1	6	0.161583	18.8144	7.45852	12.4571
 630	1	6	0.199011	16.8849	5.93079	12.8339
 631	1	1	0.463181	31.8308	14.2791	-18.5209
 632	1	2	0.074399	30.6655	13.8035	-17.9427
 633	1	3	0.034296	30.9056	13.7201	-16.4674
 634	1	2	0.051625	32.8268	14.4394	-17.5629
 635	1	3	0.019035	32.2355	14.0471	-16.2452
 636	1	5	-0.389616	29.5725	13.681	-18.4915
 637	1	5	-0.380104	33.9037	14.9538	-17.7756