pySIMM System Object

1650 atoms
1810 bonds
3225 angles
5133 dihedrals
483 impropers

10 atom types
13 bond types
25 angle types
12 dihedral types
4 improper types

-84.265553 84.265553 xlo xhi
-84.265553 84.265553 ylo yhi
-84.265553 84.265553 zlo zhi

Masses

   1	12.01	# c3
   2	1.008	# hc
   3	19.0	# f
   4	1.008	# h2
   5	14.01	# n
   6	12.01	# c
   7	12.01	# ca
   8	1.008	# hn
   9	16.0	# o
  10	1.008	# ha

Pair Coeffs

   1	0.1094	3.3996695084235347	# c3
   2	0.0157	2.649532787749369	# hc
   3	0.061	3.1181455134911875	# f
   4	0.0157	2.2931733004932333	# h2
   5	0.17	3.249998523775958	# n
   6	0.086	3.3996695084235347	# c
   7	0.086	3.3996695084235347	# ca
   8	0.0157	1.069078461768407	# hn
   9	0.21	2.959921901149463	# o
  10	0.015	2.59964245953351	# ha

Bond Coeffs

   1	331.7	1.0961	# c3,h2
   2	330.6	1.0969	# c3,hc
   3	300.9	1.5375	# c3,c3
   4	356.9	1.3497	# c3,f
   5	637.7	1.2183	# c,o
   6	321.0	1.5156	# c3,ca
   7	384.2	1.4121	# ca,n
   8	403.2	1.0129	# hn,n
   9	427.6	1.3789	# c,n
  10	461.1	1.3984	# ca,ca
  11	345.9	1.4906	# c,ca
  12	345.8	1.086	# ca,ha
  13	328.7	1.4619	# c3,n

Angle Coeffs

   1	46.34	109.8	# c3,c3,hc
   2	70.89	107.36	# f,c3,f
   3	39.4	107.58	# hc,c3,hc
   4	66.11	109.24	# c3,c3,f
   5	46.25	110.22	# c3,c3,h2
   6	51.15	108.79	# f,c3,h2
   7	62.86	111.51	# c3,c3,c3
   8	64.28	120.33	# c,ca,ca
   9	63.53	120.77	# c3,ca,ca
  10	66.62	120.02	# ca,ca,ca
  11	74.22	123.05	# n,c,o
  12	63.74	127.08	# c,n,c
  13	63.15	112.07	# c3,c3,ca
  14	48.18	119.88	# ca,ca,ha
  15	67.87	120.19	# ca,ca,n
  16	68.72	122.6	# ca,c,o
  17	63.0	118.11	# ca,c,ca
  18	63.82	123.71	# c,n,ca
  19	67.68	115.25	# ca,c,n
  20	63.56	112.24	# ca,c3,ca
  21	48.33	117.55	# c,n,hn
  22	46.8	110.47	# ca,c3,hc
  23	63.39	120.69	# c,n,c3
  24	65.91	111.61	# c3,c3,n
  25	69.52	110.41	# f,c3,n

Dihedral Coeffs

   1	2	0.0	3	0	0.19	1	0	# hc,c3,c3,f
   2	1	0.15555555555555556	3	0	# X,c3,c3,X
   3	1	0.16	3	0	# hc,c3,c3,c3
   4	3	0.18	3	0	0.25	2	180	0.2	1	180	# c3,c3,c3,c3
   5	2	2.5	2	180	2.0	1	0	# hn,n,c,o
   6	1	3.625	2	180	# X,ca,ca,X
   7	1	1.0	2	180	# X,c,ca,X
   8	1	0.0	2	0	# X,c3,ca,X
   9	1	2.5	2	180	# X,c,n,X
  10	1	0.45	2	180	# X,ca,n,X
  11	4	0.5	4	180	0.15	3	180	0.0	2	0	0.53	1	0	# c3,c3,n,c
  12	1	0.0	2	0	# X,c3,n,X

Improper Coeffs

   1	10.5	-1	2	# c,X,X,o
   2	1.1	-1	2	# ca,X,X,ha
   3	1.1	-1	2	# ca,ca,ca,c3
   4	1.1	-1	2	# n,X,X,hn

Atoms

   1	1	1	0.070548	-38.7105	17.0347	56.5967
   2	1	1	0.506757	-39.6328	18.1219	57.1757
   3	1	2	-0.012767	-37.869	17.4951	56.058
   4	1	2	-0.014806	-38.2694	16.4329	57.4051
   5	1	3	-0.274996	-39.8366	17.8835	58.4878
   6	1	3	-0.274736	-39.0232	19.3231	57.0872
   7	1	1	0.070548	-38.5684	15.0544	55.0063
   8	1	1	0.506757	-39.4933	16.1242	55.637
   9	1	2	-0.012767	-37.7891	15.5605	54.4202
  10	1	2	-0.014806	-38.035	14.5285	55.8097
  11	1	3	-0.274996	-40.5186	15.5482	56.3098
  12	1	3	-0.274736	-40.0306	16.8947	54.6642
  13	1	5	0.463181	-30.6151	18.3806	37.3386
  14	1	6	0.074399	-30.7792	19.1066	38.521
  15	1	7	0.034296	-31.7317	18.3068	39.3413
  16	1	6	0.051625	-31.2811	17.1554	37.3522
  17	1	7	0.019035	-32.0298	17.1538	38.6374
  18	1	9	-0.389616	-30.2756	20.1755	38.8264
  19	1	9	-0.380104	-31.2414	16.2478	36.5334
  20	1	7	-0.045097	-32.344	18.5942	40.5738
  21	1	7	-0.056032	-32.963	16.2311	39.1129
  22	1	7	-0.174781	-33.6272	16.5261	40.3205
  23	1	7	-0.129342	-33.3128	17.6863	41.0766
  24	1	10	0.168842	-32.1087	19.5176	41.1033
  25	1	10	0.15893	-33.2015	15.3419	38.5328
  26	1	10	0.147704	-34.4081	15.8476	40.6625
  27	1	6	0.584577	-34.0616	18.0212	42.3487
  28	1	7	-0.046755	-34.6052	16.9236	43.255
  29	1	7	-0.110868	-35.7524	17.1821	44.0511
  30	1	7	-0.046132	-36.227	16.1789	44.9143
  31	1	7	-0.135873	-33.9642	15.6567	43.3743
  32	1	7	-0.117662	-34.4529	14.6655	44.2571
  33	1	7	-0.064457	-35.5928	14.9562	45.0219
  34	1	6	0.492569	-36.3137	14.1489	46.0551
  35	1	5	-0.072087	-37.3581	14.9435	46.5031
  36	1	6	0.477555	-37.3793	16.1754	45.863
  37	1	7	0.042617	-38.294	14.5717	47.5193
  38	1	7	-0.20367	-37.8543	14.2216	48.8071
  39	1	7	-0.057018	-38.7721	13.9262	49.8289
  40	1	7	-0.18182	-39.6808	14.5989	47.2753
  41	1	7	-0.14326	-40.605	14.312	48.3018
  42	1	7	0.043342	-40.1664	13.9801	49.6025
  43	1	10	0.163244	-36.7921	14.1869	49.0248
  44	1	10	0.101178	-38.3655	13.6605	50.7989
  45	1	10	0.165346	-33.9541	13.7036	44.3599
  46	1	10	0.135111	-33.0565	15.4519	42.8057
  47	1	10	0.171751	-36.2613	18.1441	44.003
  48	1	9	-0.478239	-38.1732	17.08	46.0416
  49	1	9	-0.481107	-36.018	13.03	46.4334
  50	1	9	-0.49957	-34.2601	19.1977	42.6102
  51	1	10	0.151248	-40.0496	14.8783	46.2888
  52	1	10	0.146138	-41.6693	14.3641	48.0864
  53	1	1	0.044043	-41.179	13.73	50.7455
  54	1	1	-0.215975	-42.1509	14.9301	50.897
  55	1	2	0.063789	-42.8536	14.9865	50.0583
  56	1	2	0.072206	-41.601	15.8744	50.942
  57	1	2	0.045489	-42.7364	14.8418	51.8168
  58	1	1	0.005306	-41.956	12.382	50.5733
  59	1	1	0.164932	-41.1706	11.2889	51.3658
  60	1	2	0.005277	-42.0983	12.1107	49.5197
  61	1	2	0.017604	-42.9558	12.4864	51.0124
  62	1	7	0.008363	-40.4821	12.1385	52.4212
  63	1	1	-0.151488	-40.1177	10.5956	50.4613
  64	1	1	-0.269275	-42.1153	10.2161	51.9659
  65	1	7	0.096378	-40.4786	13.4805	52.0709
  66	1	2	0.063418	-41.5476	9.44264	52.5024
  67	1	2	0.061085	-42.6897	9.72219	51.1745
  68	1	2	0.065045	-42.8286	10.6653	52.6743
  69	1	7	-0.142025	-39.8966	11.7215	53.6276
  70	1	7	-0.448546	-39.8476	14.4385	52.8843
  71	1	7	0.277842	-39.2916	14.0511	54.1171
  72	1	7	-0.409063	-39.3343	12.6901	54.4841
  73	1	10	0.203923	-39.8104	15.475	52.5655
  74	1	2	0.016419	-39.4366	11.3168	50.0005
  75	1	2	0.049665	-40.606	10.0338	49.6517
  76	1	2	0.035794	-39.5096	9.89296	51.0408
  77	1	10	0.161583	-39.9093	10.6713	53.9108
  78	1	10	0.199011	-38.9017	12.3761	55.4299
  79	1	5	0.463181	-23.482	12.8566	19.9819
  80	1	6	0.074399	-24.6194	12.0717	20.1826
  81	1	7	0.034296	-24.7792	11.975	21.6646
  82	1	6	0.051625	-22.8889	13.2315	21.1914
  83	1	7	0.019035	-23.7347	12.6454	22.2601
  84	1	9	-0.389616	-25.3715	11.5967	19.3498
  85	1	9	-0.380104	-21.946	13.9834	21.3639
  86	1	7	-0.045097	-25.8272	11.4489	22.431
  87	1	7	-0.056032	-23.6345	12.7595	23.6525
  88	1	7	-0.174781	-24.6587	12.2044	24.4478
  89	1	7	-0.129342	-25.7892	11.5984	23.8434
  90	1	10	0.168842	-26.6671	10.9605	21.938
  91	1	10	0.15893	-22.7879	13.2787	24.0947
  92	1	10	0.147704	-24.5653	12.2521	25.5305
  93	1	6	0.584577	-26.9277	11.0473	24.6659
  94	1	7	-0.046755	-27.306	11.6352	26.0111
  95	1	7	-0.110868	-26.9634	12.9554	26.4188
  96	1	7	-0.046132	-27.209	13.326	27.7555
  97	1	7	-0.135873	-28.0363	10.8054	26.9041
  98	1	7	-0.117662	-28.2883	11.2067	28.2277
  99	1	7	-0.064457	-27.8265	12.4617	28.6388
 100	1	6	0.492569	-27.9067	13.1069	29.9774
 101	1	5	-0.072087	-27.2915	14.3509	29.8243
 102	1	6	0.477555	-26.8219	14.5465	28.5201
 103	1	7	0.042617	-27.1351	15.3022	30.8808
 104	1	7	-0.20367	-28.2465	15.7121	31.6445
 105	1	7	-0.057018	-28.117	16.6814	32.656
 106	1	7	-0.18182	-25.8711	15.8391	31.1967
 107	1	7	-0.14326	-25.7413	16.8114	32.2104
 108	1	7	0.043342	-26.8639	17.261	32.9426
 109	1	10	0.163244	-29.2227	15.2785	31.4531
 110	1	10	0.101178	-29.0024	16.9686	33.2107
 111	1	10	0.165346	-28.8017	10.5507	28.9298
 112	1	10	0.135111	-28.3593	9.81587	26.5842
 113	1	10	0.171751	-26.4661	13.6538	25.7486
 114	1	9	-0.478239	-26.1268	15.4546	28.0893
 115	1	9	-0.481107	-28.3839	12.5957	30.9823
 116	1	9	-0.49957	-27.5411	10.0816	24.2455
 117	1	10	0.151248	-24.9889	15.5174	30.6431
 118	1	10	0.146138	-24.756	17.2118	32.4332
 119	1	1	0.044043	-26.6794	18.2764	34.0904
 120	1	1	-0.215975	-25.7765	17.6679	35.1926
 121	1	2	0.063789	-24.7737	17.4473	34.8099
 122	1	2	0.072206	-26.2015	16.7281	35.5657
 123	1	2	0.045489	-25.669	18.3519	36.0449
 124	1	1	0.005306	-26.0922	19.6123	33.5433
 125	1	1	0.164932	-27.2921	20.5387	33.1957
 126	1	2	0.005277	-25.4188	19.4748	32.6874
 127	1	2	0.017604	-25.4974	20.085	34.3376
 128	1	7	0.008363	-28.3381	20.0249	34.1707
 129	1	1	-0.151488	-27.724	20.3611	31.7159
 130	1	1	-0.269275	-26.9071	22.0116	33.4496
 131	1	7	0.096378	-27.994	18.7804	34.6837
 132	1	2	0.063418	-26.0791	22.3123	32.7964
 133	1	2	0.061085	-26.5901	22.163	34.4886
 134	1	2	0.065045	-27.7519	22.681	33.2537
 135	1	7	-0.142025	-29.4852	20.6953	34.6203
 136	1	7	-0.448546	-28.7601	18.1944	35.7088
 137	1	7	0.277842	-29.8814	18.8829	36.2246
 138	1	7	-0.409063	-30.2602	20.1121	35.6384
 139	1	10	0.203923	-28.4747	17.2301	36.1199
 140	1	2	0.016419	-28.6579	20.8983	31.5102
 141	1	2	0.049665	-27.8823	19.307	31.4672
 142	1	2	0.035794	-26.9568	20.7508	31.0355
 143	1	10	0.161583	-29.7476	21.6691	34.2119
 144	1	10	0.199011	-31.1244	20.6498	36.0232
 145	1	5	0.463181	-17.5147	17.467	5.24383
 146	1	6	0.074399	-17.9274	16.6088	6.27293
 147	1	7	0.034296	-18.4258	15.3858	5.58867
 148	1	6	0.051625	-17.6494	16.8821	3.97653
 149	1	7	0.019035	-18.2713	15.5491	4.22497
 150	1	9	-0.389616	-17.9874	16.8292	7.47268
 151	1	9	-0.380104	-17.351	17.3474	2.88522
 152	1	7	-0.045097	-18.9794	14.2141	6.12962
 153	1	7	-0.056032	-18.6919	14.5569	3.32779
 154	1	7	-0.174781	-19.2474	13.3669	3.85377
 155	1	7	-0.129342	-19.3812	13.1759	5.2548
 156	1	10	0.168842	-19.0889	14.1178	7.20863
 157	1	10	0.15893	-18.5672	14.6984	2.2567
 158	1	10	0.147704	-19.5581	12.5771	3.17347
 159	1	6	0.584577	-19.9103	11.8721	5.81406
 160	1	7	-0.046755	-19.3875	11.3903	7.14467
 161	1	7	-0.110868	-20.2607	11.1988	8.24559
 162	1	7	-0.046132	-19.6958	10.9261	9.50081
 163	1	7	-0.135873	-17.9907	11.1934	7.31235
 164	1	7	-0.117662	-17.4535	10.8574	8.56959
 165	1	7	-0.064457	-18.3371	10.7511	9.6481
 166	1	6	0.492569	-18.0121	10.7438	11.0877
 167	1	5	-0.072087	-19.1988	11.058	11.7416
 168	1	6	0.477555	-20.2807	11.0697	10.8632
 169	1	7	0.042617	-19.2534	11.6105	13.0583
 170	1	7	-0.20367	-18.3098	12.5834	13.4343
 171	1	7	-0.057018	-18.4381	13.2852	14.6418
 172	1	7	-0.18182	-20.3084	11.3248	13.9455
 173	1	7	-0.14326	-20.4612	12.0647	15.1366
 174	1	7	0.043342	-19.5626	13.1083	15.4696
 175	1	10	0.163244	-17.473	12.8232	12.7846
 176	1	10	0.101178	-17.6929	14.0356	14.8887
 177	1	10	0.165346	-16.3788	10.7708	8.72608
 178	1	10	0.135111	-17.318	11.35	6.47273
 179	1	10	0.171751	-21.3314	11.3848	8.15696
 180	1	9	-0.478239	-21.4485	11.3107	11.1174
 181	1	9	-0.481107	-16.8762	10.7255	11.5203
 182	1	9	-0.49957	-20.6635	11.1753	5.1575
 183	1	10	0.151248	-21.0626	10.5871	13.6744
 184	1	10	0.146138	-21.326	11.8657	15.7629
 185	1	1	0.044043	-19.8082	14.0985	16.6334
 186	1	1	-0.215975	-18.7287	13.9107	17.7255
 187	1	2	0.063789	-18.677	12.8656	18.0354
 188	1	2	0.072206	-18.9514	14.5264	18.6127
 189	1	2	0.045489	-17.738	14.2027	17.3546
 190	1	1	0.005306	-19.8533	15.5696	16.096
 191	1	1	0.164932	-21.3071	15.7943	15.563
 192	1	2	0.005277	-19.0967	15.7795	15.3277
 193	1	2	0.017604	-19.655	16.2568	16.9301
 194	1	7	0.008363	-22.0796	14.8814	16.51
 195	1	1	-0.151488	-21.4698	15.3662	14.0801
 196	1	1	-0.269275	-21.7194	17.2771	15.6923
 197	1	7	0.096378	-21.2322	14.0055	17.1814
 198	1	2	0.063418	-22.7465	17.4418	15.3289
 199	1	2	0.061085	-21.0481	17.9199	15.1104
 200	1	2	0.065045	-21.6825	17.5966	16.7368
 201	1	7	-0.142025	-23.4529	14.9059	16.8057
 202	1	7	-0.448546	-21.7014	13.2454	18.2756
 203	1	7	0.277842	-23.0476	13.3763	18.7063
 204	1	7	-0.409063	-23.924	14.1565	17.9074
 205	1	10	0.203923	-21.0033	12.6408	18.8491
 206	1	2	0.016419	-20.7769	15.9214	13.4336
 207	1	2	0.049665	-22.4874	15.5755	13.7329
 208	1	2	0.035794	-21.2976	14.2977	13.9244
 209	1	10	0.161583	-24.1209	15.5668	16.2581
 210	1	10	0.199011	-24.9748	14.2273	18.1862
 211	1	5	0.463181	-0.355204	19.4007	2.73948
 212	1	6	0.074399	-1.66174	19.7587	3.06093
 213	1	7	0.034296	-1.74263	19.6198	4.53839
 214	1	6	0.051625	0.41391	19.0764	3.84465
 215	1	7	0.019035	-0.504183	19.2157	5.00271
 216	1	9	-0.389616	-2.54603	20.129	2.30573
 217	1	9	-0.380104	1.60954	18.8444	3.8722
 218	1	7	-0.045097	-2.81553	19.8476	5.41037
 219	1	7	-0.056032	-0.266055	18.99	6.3601
 220	1	7	-0.174781	-1.33127	19.2094	7.25287
 221	1	7	-0.129342	-2.59379	19.6803	6.80273
 222	1	10	0.168842	-3.77449	20.1512	5.00135
 223	1	10	0.15893	0.712156	18.6601	6.70773
 224	1	10	0.147704	-1.16322	19.0495	8.31676
 225	1	6	0.584577	-3.66338	19.9356	7.83143
 226	1	7	-0.046755	-4.92792	20.6591	7.46299
 227	1	7	-0.110868	-6.14545	20.1215	7.93468
 228	1	7	-0.046132	-7.33928	20.7672	7.60274
 229	1	7	-0.135873	-4.93593	21.8758	6.72445
 230	1	7	-0.117662	-6.15633	22.5316	6.42681
 231	1	7	-0.064457	-7.34978	21.9443	6.87679
 232	1	6	0.492569	-8.77907	22.3611	6.71524
 233	1	5	-0.072087	-9.53009	21.3594	7.32265
 234	1	6	0.477555	-8.74616	20.3796	7.89655
 235	1	7	0.042617	-10.9392	21.3506	7.431
 236	1	7	-0.20367	-11.7293	20.7603	6.43373
 237	1	7	-0.057018	-13.1327	20.744	6.55597
 238	1	7	-0.18182	-11.5517	21.9157	8.5578
 239	1	7	-0.14326	-12.949	21.8879	8.68706
 240	1	7	0.043342	-13.7665	21.2906	7.69975
 241	1	10	0.163244	-11.2617	20.3208	5.55732
 242	1	10	0.101178	-13.7174	20.2797	5.76789
 243	1	10	0.165346	-6.18028	23.4621	5.86055
 244	1	10	0.135111	-3.99734	22.3229	6.40085
 245	1	10	0.171751	-6.16633	19.2067	8.52648
 246	1	9	-0.478239	-9.12517	19.4213	8.54669
 247	1	9	-0.481107	-9.18155	23.3919	6.19894
 248	1	9	-0.49957	-3.55031	19.4762	8.95607
 249	1	10	0.151248	-10.9421	22.3736	9.33168
 250	1	10	0.146138	-13.404	22.3348	9.56539
 251	1	1	0.044043	-15.3068	21.2557	7.91905
 252	1	1	-0.215975	-15.6475	20.5139	9.23516
 253	1	2	0.063789	-15.2544	21.0354	10.1141
 254	1	2	0.072206	-15.2273	19.5009	9.22754
 255	1	2	0.045489	-16.7365	20.4193	9.36119
 256	1	1	0.005306	-15.9206	22.694	7.95476
 257	1	1	0.164932	-16.5128	23.0008	6.55092
 258	1	2	0.005277	-15.1944	23.454	8.26717
 259	1	2	0.017604	-16.7365	22.7258	8.69082
 260	1	7	0.008363	-16.7942	21.5979	6.0398
 261	1	1	-0.151488	-15.4638	23.7198	5.67203
 262	1	1	-0.269275	-17.7816	23.8772	6.64168
 263	1	7	0.096378	-16.1154	20.6324	6.77897
 264	1	2	0.063418	-17.5685	24.8254	7.15743
 265	1	2	0.061085	-18.5695	23.3529	7.1966
 266	1	2	0.065045	-18.172	24.1175	5.64496
 267	1	7	-0.142025	-17.6612	21.2242	5.0001
 268	1	7	-0.448546	-16.301	19.2579	6.50176
 269	1	7	0.277842	-17.1723	18.8488	5.45638
 270	1	7	-0.409063	-17.8249	19.8568	4.70273
 271	1	10	0.203923	-15.8204	18.5156	7.13379
 272	1	2	0.016419	-15.1389	24.6585	6.13827
 273	1	2	0.049665	-15.8821	23.9582	4.68471
 274	1	2	0.035794	-14.5796	23.0889	5.52115
 275	1	10	0.161583	-18.2028	21.982	4.43791
 276	1	10	0.199011	-18.4967	19.5738	3.89538
 277	1	5	0.463181	-7.41638	4.98576	-3.55195
 278	1	6	0.074399	-8.28547	5.82569	-2.86647
 279	1	7	0.034296	-8.05119	7.16999	-3.43786
 280	1	6	0.051625	-6.65963	5.65173	-4.51197
 281	1	7	0.019035	-7.09586	7.07255	-4.4298
 282	1	9	-0.389616	-9.04573	5.55664	-1.9511
 283	1	9	-0.380104	-5.83885	5.18471	-5.28166
 284	1	7	-0.045097	-8.6835	8.37352	-3.13139
 285	1	7	-0.056032	-6.74421	8.18254	-5.20464
 286	1	7	-0.174781	-7.38637	9.41223	-4.93046
 287	1	7	-0.129342	-8.32545	9.52018	-3.86517
 288	1	10	0.168842	-9.44365	8.41131	-2.35102
 289	1	10	0.15893	-6.02404	8.07883	-6.01405
 290	1	10	0.147704	-7.1704	10.2652	-5.56981
 291	1	6	0.584577	-9.0057	10.806	-3.47813
 292	1	7	-0.046755	-8.18414	11.9827	-3.0134
 293	1	7	-0.110868	-6.85065	12.1952	-3.44557
 294	1	7	-0.046132	-6.1573	13.2979	-2.94599
 295	1	7	-0.135873	-8.78033	12.9065	-2.11184
 296	1	7	-0.117662	-8.04844	13.993	-1.5966
 297	1	7	-0.064457	-6.73311	14.1557	-2.03405
 298	1	6	0.492569	-5.71077	15.1366	-1.61008
 299	1	5	-0.072087	-4.55641	14.7999	-2.30905
 300	1	6	0.477555	-4.75157	13.7145	-3.16265
 301	1	7	0.042617	-3.29964	15.4235	-2.11886
 302	1	7	-0.20367	-2.1521	14.6284	-1.99369
 303	1	7	-0.057018	-0.883436	15.212	-1.90506
 304	1	7	-0.18182	-3.17363	16.8205	-2.0828
 305	1	7	-0.14326	-1.90617	17.4064	-1.95574
 306	1	7	0.043342	-0.740653	16.6157	-1.88187
 307	1	10	0.163244	-2.23072	13.5489	-2.02351
 308	1	10	0.101178	-0.0256775	14.5516	-1.84833
 309	1	10	0.165346	-8.48207	14.6771	-0.87273
 310	1	10	0.135111	-9.80462	12.7645	-1.78096
 311	1	10	0.171751	-6.32611	11.5327	-4.11848
 312	1	9	-0.478239	-3.95161	13.143	-3.88822
 313	1	9	-0.481107	-5.88081	16.0121	-0.780465
 314	1	9	-0.49957	-10.2102	10.8051	-3.28909
 315	1	10	0.151248	-4.05509	17.4537	-2.15292
 316	1	10	0.146138	-1.83445	18.4906	-1.92432
 317	1	1	0.044043	0.629218	17.306	-1.76937
 318	1	1	-0.215975	1.77714	16.3169	-1.39279
 319	1	2	0.063789	1.55514	15.786	-0.457362
 320	1	2	0.072206	2.72752	16.8535	-1.2483
 321	1	2	0.045489	1.9442	15.5718	-2.18245
 322	1	1	0.005306	0.971377	18.0878	-3.08653
 323	1	1	0.164932	1.36879	19.5587	-2.71704
 324	1	2	0.005277	0.0973936	18.0948	-3.74843
 325	1	2	0.017604	1.76863	17.5905	-3.65237
 326	1	7	0.008363	1.0037	19.6432	-1.24959
 327	1	1	-0.151488	0.5672	20.576	-3.57355
 328	1	1	-0.269275	2.89303	19.791	-2.86385
 329	1	7	0.096378	0.578108	18.4229	-0.738039
 330	1	2	0.063418	3.18085	20.7852	-2.49996
 331	1	2	0.061085	3.20346	19.7111	-3.91323
 332	1	2	0.065045	3.45586	19.0505	-2.28787
 333	1	7	-0.142025	1.09436	20.7766	-0.428529
 334	1	7	-0.448546	0.140094	18.3158	0.590001
 335	1	7	0.277842	0.166477	19.4553	1.4177
 336	1	7	-0.409063	0.665275	20.6753	0.904959
 337	1	10	0.203923	-0.236776	17.368	0.964401
 338	1	2	0.016419	0.841906	20.4995	-4.63377
 339	1	2	0.049665	0.752675	21.6086	-3.25187
 340	1	2	0.035794	-0.511417	20.386	-3.4857
 341	1	10	0.161583	1.45793	21.7198	-0.82966
 342	1	10	0.199011	0.684947	21.5571	1.54025
 343	1	5	0.463181	-19.7489	-5.47843	2.64233
 344	1	6	0.074399	-18.7442	-4.5364	2.3922
 345	1	7	0.034296	-18.8329	-3.58806	3.50753
 346	1	6	0.051625	-20.4642	-5.21133	3.81554
 347	1	7	0.019035	-19.8324	-3.9877	4.36947
 348	1	9	-0.389616	-17.9399	-4.45456	1.47476
 349	1	9	-0.380104	-21.4121	-5.8123	4.29523
 350	1	7	-0.045097	-18.0486	-2.46821	3.74389
 351	1	7	-0.056032	-20.0711	-3.30464	5.56611
 352	1	7	-0.174781	-19.2547	-2.18806	5.85699
 353	1	7	-0.129342	-18.2646	-1.74878	4.93751
 354	1	10	0.168842	-17.2544	-2.22339	3.0383
 355	1	10	0.15893	-20.8403	-3.64737	6.25415
 356	1	10	0.147704	-19.3846	-1.66198	6.80009
 357	1	6	0.584577	-17.3552	-0.594517	5.24167
 358	1	7	-0.046755	-16.7133	0.0356997	4.0409
 359	1	7	-0.110868	-15.327	-0.136287	3.81943
 360	1	7	-0.046132	-14.8075	0.238576	2.5745
 361	1	7	-0.135873	-17.538	0.586281	3.0246
 362	1	7	-0.117662	-16.9983	0.949556	1.77749
 363	1	7	-0.064457	-15.6265	0.74654	1.58633
 364	1	6	0.492569	-14.8102	0.927308	0.36802
 365	1	5	-0.072087	-13.5242	0.531828	0.703839
 366	1	6	0.477555	-13.4287	0.107129	2.02324
 367	1	7	0.042617	-12.4873	0.472197	-0.262244
 368	1	7	-0.20367	-11.2501	1.10658	-0.0643716
 369	1	7	-0.057018	-10.2958	1.12114	-1.09932
 370	1	7	-0.18182	-12.7418	-0.160604	-1.49108
 371	1	7	-0.14326	-11.7833	-0.17254	-2.50808
 372	1	7	0.043342	-10.556	0.490647	-2.34017
 373	1	10	0.163244	-11.0366	1.61303	0.874898
 374	1	10	0.101178	-9.34952	1.6216	-0.922845
 375	1	10	0.165346	-17.6237	1.34859	0.981381
 376	1	10	0.135111	-18.605	0.695047	3.18248
 377	1	10	0.171751	-14.6902	-0.611576	4.56377
 378	1	9	-0.478239	-12.4552	-0.339382	2.6064
 379	1	9	-0.481107	-15.2381	1.23455	-0.733062
 380	1	9	-0.49957	-16.9826	-0.367658	6.37869
 381	1	10	0.151248	-13.7034	-0.628328	-1.67483
 382	1	10	0.146138	-12.0075	-0.699496	-3.42979
 383	1	1	0.044043	-9.51088	0.407822	-3.46868
 384	1	1	-0.215975	-10.1242	0.593898	-4.88969
 385	1	2	0.063789	-10.7336	-0.266222	-5.19793
 386	1	2	0.072206	-9.32758	0.716172	-5.63866
 387	1	2	0.045489	-10.7576	1.49077	-4.93032
 388	1	1	0.005306	-8.75108	-0.951126	-3.36756
 389	1	1	0.164932	-7.34943	-0.682428	-2.73594
 390	1	2	0.005277	-8.63086	-1.37993	-4.3714
 391	1	2	0.017604	-9.31682	-1.69641	-2.79282
 392	1	7	0.008363	-7.20251	0.818638	-2.87551
 393	1	1	-0.151488	-6.25298	-1.44124	-3.51806
 394	1	1	-0.269275	-7.32527	-1.09045	-1.24548
 395	1	7	0.096378	-8.38887	1.41003	-3.28415
 396	1	2	0.063418	-8.0607	-0.520465	-0.666691
 397	1	2	0.061085	-6.33778	-0.912095	-0.800253
 398	1	2	0.065045	-7.56805	-2.15281	-1.13399
 399	1	7	-0.142025	-6.06002	1.59651	-2.63264
 400	1	7	-0.448546	-8.47481	2.78992	-3.49883
 401	1	7	0.277842	-7.33557	3.59045	-3.29817
 402	1	7	-0.409063	-6.13904	2.98794	-2.84408
 403	1	10	0.203923	-9.41536	3.23505	-3.81073
 404	1	2	0.016419	-6.23795	-1.13207	-4.57073
 405	1	2	0.049665	-6.42111	-2.52521	-3.48362
 406	1	2	0.035794	-5.26675	-1.22888	-3.09233
 407	1	10	0.161583	-5.13664	1.1294	-2.29565
 408	1	10	0.199011	-5.25961	3.60635	-2.6756
 409	1	5	0.463181	-2.22903	-2.6867	-2.6906
 410	1	6	0.074399	-3.17495	-2.52182	-1.6743
 411	1	7	0.034296	-4.11817	-3.64976	-1.84805
 412	1	6	0.051625	-2.48336	-3.80104	-3.49458
 413	1	7	0.019035	-3.71116	-4.41205	-2.9218
 414	1	9	-0.389616	-3.31945	-1.59686	-0.892081
 415	1	9	-0.380104	-1.95159	-4.11335	-4.54916
 416	1	7	-0.045097	-5.30596	-3.91951	-1.16517
 417	1	7	-0.056032	-4.45324	-5.51892	-3.34691
 418	1	7	-0.174781	-5.66051	-5.81168	-2.66996
 419	1	7	-0.129342	-6.12114	-4.98617	-1.60491
 420	1	10	0.168842	-5.61473	-3.27179	-0.345148
 421	1	10	0.15893	-4.11845	-6.11241	-4.19482
 422	1	10	0.147704	-6.25171	-6.66467	-2.997
 423	1	6	0.584577	-7.47383	-5.13478	-0.941762
 424	1	7	-0.046755	-8.65771	-5.7054	-1.68652
 425	1	7	-0.110868	-9.75597	-6.17599	-0.930583
 426	1	7	-0.046132	-10.9051	-6.59746	-1.60168
 427	1	7	-0.135873	-8.78008	-5.62285	-3.10151
 428	1	7	-0.117662	-9.96214	-6.03532	-3.75498
 429	1	7	-0.064457	-11.0049	-6.54488	-2.97441
 430	1	6	0.492569	-12.4189	-6.82768	-3.33814
 431	1	5	-0.072087	-13.0994	-7.02002	-2.13468
 432	1	6	0.477555	-12.2381	-6.92538	-1.04536
 433	1	7	0.042617	-14.5118	-7.23999	-2.02251
 434	1	7	-0.20367	-15.2189	-7.95434	-3.00991
 435	1	7	-0.057018	-16.6016	-8.17635	-2.88205
 436	1	7	-0.18182	-15.2322	-6.75906	-0.909741
 437	1	7	-0.14326	-16.6021	-7.01741	-0.762391
 438	1	7	0.043342	-17.32	-7.72653	-1.74934
 439	1	10	0.163244	-14.7101	-8.33005	-3.89298
 440	1	10	0.101178	-17.1201	-8.68092	-3.69265
 441	1	10	0.165346	-10.0961	-5.90142	-4.82652
 442	1	10	0.135111	-7.99726	-5.16159	-3.69731
 443	1	10	0.171751	-9.74356	-6.15293	0.159019
 444	1	9	-0.478239	-12.5061	-6.98354	0.142267
 445	1	9	-0.481107	-12.8857	-6.75797	-4.46112
 446	1	9	-0.49957	-7.65715	-4.64133	0.159185
 447	1	10	0.151248	-14.7402	-6.18967	-0.128573
 448	1	10	0.146138	-17.092	-6.62485	0.120355
 449	1	1	0.044043	-18.8613	-7.86394	-1.70117
 450	1	1	-0.215975	-19.447	-6.79939	-2.66179
 451	1	2	0.063789	-19.1791	-7.01699	-3.70284
 452	1	2	0.072206	-19.0561	-5.80313	-2.42037
 453	1	2	0.045489	-20.543	-6.75909	-2.59166
 454	1	1	0.005306	-19.3644	-9.30306	-2.05807
 455	1	1	0.164932	-19.5675	-10.082	-0.723012
 456	1	2	0.005277	-18.7099	-9.84597	-2.75014
 457	1	2	0.017604	-20.3375	-9.21823	-2.55885
 458	1	7	0.008363	-19.8082	-8.95789	0.254268
 459	1	1	-0.151488	-18.2801	-10.8341	-0.321872
 460	1	1	-0.269275	-20.755	-11.076	-0.813133
 461	1	7	0.096378	-19.4482	-7.73653	-0.297792
 462	1	2	0.063418	-21.6939	-10.5559	-1.0374
 463	1	2	0.061085	-20.8887	-11.6205	0.131117
 464	1	2	0.065045	-20.5827	-11.8183	-1.60226
 465	1	7	-0.142025	-20.2534	-9.0533	1.58247
 466	1	7	-0.448546	-19.5909	-6.56016	0.43785
 467	1	7	0.277842	-19.9331	-6.62216	1.80778
 468	1	7	-0.409063	-20.2776	-7.88019	2.35972
 469	1	10	0.203923	-19.3091	-5.62842	-0.0332944
 470	1	2	0.016419	-18.0011	-11.5693	-1.08427
 471	1	2	0.049665	-18.4203	-11.3639	0.626341
 472	1	2	0.035794	-17.4387	-10.1426	-0.195625
 473	1	10	0.161583	-20.508	-10.0178	2.01765
 474	1	10	0.199011	-20.5386	-7.95806	3.41452
 475	1	1	0.070548	-1.7599	-0.639678	-3.99355
 476	1	1	0.506757	-1.17975	-1.6866	-3.00609
 477	1	2	-0.012767	-2.27276	-1.16653	-4.80929
 478	1	2	-0.014806	-2.5569	-0.0954932	-3.46711
 479	1	3	-0.274996	-0.718543	-1.07498	-1.88425
 480	1	3	-0.274736	-0.0913338	-2.26791	-3.56406
 481	1	1	0.070548	-0.0114301	-0.0928093	-5.89105
 482	1	1	0.506757	-0.768026	0.389894	-4.614
 483	1	2	-0.012767	-0.403885	-1.07184	-6.1979
 484	1	2	-0.014806	1.04297	-0.27591	-5.64594
 485	1	3	-0.274996	0.143545	0.79827	-3.71035
 486	1	3	-0.274736	-1.49303	1.49539	-4.89513
 487	1	5	0.463181	-7.76394	5.77601	0.709242
 488	1	6	0.074399	-6.61384	6.18229	0.0275908
 489	1	7	0.034296	-6.67187	7.65858	-0.0134272
 490	1	6	0.051625	-8.56754	6.85102	1.09385
 491	1	7	0.019035	-7.8457	8.06028	0.591892
 492	1	9	-0.389616	-5.72655	5.50401	-0.458492
 493	1	9	-0.380104	-9.58991	6.83888	1.76005
 494	1	7	-0.045097	-5.71106	8.57171	-0.467416
 495	1	7	-0.056032	-8.1609	9.4177	0.707731
 496	1	7	-0.174781	-7.23126	10.3622	0.212555
 497	1	7	-0.129342	-5.98647	9.95643	-0.345737
 498	1	10	0.168842	-4.76356	8.19538	-0.840882
 499	1	10	0.15893	-9.0853	9.72754	1.19013
 500	1	10	0.147704	-7.4467	11.4245	0.325713
 501	1	6	0.584577	-4.92859	10.99	-0.679979
 502	1	7	-0.046755	-3.75206	10.6068	-1.54199
 503	1	7	-0.110868	-3.92874	9.8416	-2.71795
 504	1	7	-0.046132	-2.79187	9.47618	-3.45103
 505	1	7	-0.135873	-2.44541	11.0161	-1.17054
 506	1	7	-0.117662	-1.31604	10.6507	-1.93578
 507	1	7	-0.064457	-1.5202	9.86537	-3.07955
 508	1	6	0.492569	-0.546578	9.22131	-4.01095
 509	1	5	-0.072087	-1.31389	8.41294	-4.84805
 510	1	6	0.477555	-2.67766	8.55566	-4.60652
 511	1	7	0.042617	-0.768572	7.44926	-5.7487
 512	1	7	-0.20367	-1.2778	6.13938	-5.7739
 513	1	7	-0.057018	-0.716884	5.16068	-6.61348
 514	1	7	-0.18182	0.306809	7.76255	-6.59902
 515	1	7	-0.14326	0.871582	6.78134	-7.43659
 516	1	7	0.043342	0.387462	5.45521	-7.44188
 517	1	10	0.163244	-2.11752	5.86228	-5.14123
 518	1	10	0.101178	-1.15136	4.1656	-6.59793
 519	1	10	0.165346	-0.313147	10.937	-1.63013
 520	1	10	0.135111	-2.30626	11.6097	-0.271155
 521	1	10	0.171751	-4.91061	9.50621	-3.03852
 522	1	9	-0.478239	-3.61376	7.98436	-5.14043
 523	1	9	-0.481107	0.670115	9.29693	-3.9475
 524	1	9	-0.49957	-4.99725	12.1205	-0.224924
 525	1	10	0.151248	0.72493	8.7662	-6.59519
 526	1	10	0.146138	1.70314	7.05654	-8.07805
 527	1	1	0.044043	1.05126	4.38598	-8.3415
 528	1	1	-0.215975	2.58417	4.33024	-8.09607
 529	1	2	0.063789	3.0756	5.27136	-8.37441
 530	1	2	0.072206	3.04547	3.5287	-8.68978
 531	1	2	0.045489	2.80625	4.13406	-7.0393
 532	1	1	0.005306	0.756193	4.67495	-9.85075
 533	1	1	0.164932	-0.378297	3.71271	-10.3246
 534	1	2	0.005277	1.66152	4.48143	-10.4438
 535	1	2	0.017604	0.49156	5.7265	-10.0277
 536	1	7	0.008363	-0.344149	2.63824	-9.25891
 537	1	1	-0.151488	-0.0825702	3.14773	-11.7357
 538	1	1	-0.269275	-1.7567	4.42013	-10.3261
 539	1	7	0.096378	0.444184	2.9951	-8.17035
 540	1	2	0.063418	-1.7685	5.25297	-11.0406
 541	1	2	0.061085	-1.99977	4.82043	-9.33401
 542	1	2	0.065045	-2.5532	3.72105	-10.6078
 543	1	7	-0.142025	-1.01729	1.40967	-9.28928
 544	1	7	-0.448546	0.602108	2.11432	-7.07901
 545	1	7	0.277842	-0.08811	0.881028	-7.07487
 546	1	7	-0.409063	-0.880566	0.539416	-8.19345
 547	1	10	0.203923	1.21155	2.40439	-6.22935
 548	1	2	0.016419	-0.882422	2.47209	-12.0661
 549	1	2	0.049665	0.859282	2.58295	-11.7483
 550	1	2	0.035794	-0.00348184	3.95898	-12.4695
 551	1	10	0.161583	-1.63507	1.14244	-10.1421
 552	1	10	0.199011	-1.39986	-0.41388	-8.2104
 553	1	1	0.070548	-7.17793	3.95468	2.28423
 554	1	1	0.506757	-8.01212	4.34969	1.03319
 555	1	2	-0.012767	-6.11482	4.13601	2.07483
 556	1	2	-0.014806	-7.43413	4.64093	3.10308
 557	1	3	-0.274996	-9.3262	4.0658	1.23665
 558	1	3	-0.274736	-7.65181	3.57415	-0.0150016
 559	1	1	0.070548	-6.99998	1.41126	1.73797
 560	1	1	0.506757	-7.33154	2.49516	2.7972
 561	1	2	-0.012767	-7.80586	1.37397	0.995461
 562	1	2	-0.014806	-6.09464	1.71062	1.19129
 563	1	3	-0.274996	-8.57382	2.31763	3.30078
 564	1	3	-0.274736	-6.49542	2.35589	3.85086
 565	1	5	0.463181	-21.356	-0.994702	2.27594
 566	1	6	0.074399	-21.1521	-2.14765	1.51988
 567	1	7	0.034296	-20.5393	-1.68728	0.243194
 568	1	6	0.051625	-21.0906	0.158763	1.53456
 569	1	7	0.019035	-20.539	-0.306313	0.237567
 570	1	9	-0.389616	-21.4627	-3.29246	1.79071
 571	1	9	-0.380104	-21.3265	1.31447	1.84077
 572	1	7	-0.045097	-19.981	-2.41808	-0.812098
 573	1	7	-0.056032	-20.0512	0.42757	-0.853541
 574	1	7	-0.174781	-19.4798	-0.289806	-1.92689
 575	1	7	-0.129342	-19.4143	-1.70584	-1.8904
 576	1	10	0.168842	-19.9523	-3.50324	-0.776957
 577	1	10	0.15893	-20.081	1.51653	-0.849391
 578	1	10	0.147704	-19.0514	0.250593	-2.76981
 579	1	6	0.584577	-18.6622	-2.45864	-2.94786
 580	1	7	-0.046755	-17.2227	-2.81223	-2.65096
 581	1	7	-0.110868	-16.6759	-2.72718	-1.34572
 582	1	7	-0.046132	-15.3203	-3.04103	-1.17624
 583	1	7	-0.135873	-16.3763	-3.17751	-3.72756
 584	1	7	-0.117662	-15.0075	-3.45758	-3.53767
 585	1	7	-0.064457	-14.5081	-3.40284	-2.23293
 586	1	6	0.492569	-13.1329	-3.62247	-1.71657
 587	1	5	-0.072087	-13.2128	-3.37835	-0.350038
 588	1	6	0.477555	-14.4984	-3.01721	0.0544706
 589	1	7	0.042617	-12.0997	-3.40272	0.532029
 590	1	7	-0.20367	-10.8948	-2.76004	0.195294
 591	1	7	-0.057018	-9.8473	-2.68577	1.12878
 592	1	7	-0.18182	-12.2204	-4.01243	1.79124
 593	1	7	-0.14326	-11.1775	-3.92866	2.72699
 594	1	7	0.043342	-9.98822	-3.22749	2.42762
 595	1	10	0.163244	-10.7755	-2.28107	-0.772878
 596	1	10	0.101178	-8.94025	-2.17162	0.841549
 597	1	10	0.165346	-14.3636	-3.72616	-4.37396
 598	1	10	0.135111	-16.7879	-3.23133	-4.73568
 599	1	10	0.171751	-17.2637	-2.43477	-0.479941
 600	1	9	-0.478239	-14.8973	-2.6592	1.15377
 601	1	9	-0.481107	-12.1382	-3.8298	-2.39189
 602	1	9	-0.49957	-19.1646	-2.6895	-4.03667
 603	1	10	0.151248	-13.1359	-4.52851	2.06507
 604	1	10	0.146138	-11.3107	-4.38662	3.70204
 605	1	1	0.044043	-8.8996	-3.05686	3.51395
 606	1	1	-0.215975	-9.53674	-2.60368	4.85606
 607	1	2	0.063789	-10.1089	-3.40926	5.3313
 608	1	2	0.072206	-10.2213	-1.76307	4.68281
 609	1	2	0.045489	-8.78332	-2.26335	5.5722
 610	1	1	0.005306	-8.09238	-4.39044	3.67239
 611	1	1	0.164932	-6.58141	-4.0304	3.8337
 612	1	2	0.005277	-8.21595	-4.98772	2.76021
 613	1	2	0.017604	-8.46237	-5.00981	4.50062
 614	1	7	0.008363	-6.53021	-2.6429	3.21192
 615	1	1	-0.151488	-5.65251	-5.0621	3.14058
 616	1	1	-0.269275	-6.18148	-3.93918	5.32796
 617	1	7	0.096378	-7.79509	-2.06548	3.14571
 618	1	2	0.063418	-6.23341	-4.92257	5.80954
 619	1	2	0.061085	-6.8385	-3.25915	5.88022
 620	1	2	0.065045	-5.15409	-3.56653	5.4294
 621	1	7	-0.142025	-5.39977	-1.94132	2.758
 622	1	7	-0.448546	-7.95076	-0.726517	2.74026
 623	1	7	0.277842	-6.83028	0.00558437	2.30057
 624	1	7	-0.409063	-5.56681	-0.631921	2.26401
 625	1	10	0.203923	-8.94578	-0.287398	2.71704
 626	1	2	0.016419	-4.60217	-4.75742	3.21515