

################################################################################
##################################    Init    ##################################
################################################################################
units           real
atom_style      full
pair_style      lj/cut/coul/long 12.0  12.0
kspace_style    pppm 1e-4
bond_style      harmonic
angle_style     harmonic
dihedral_style  fourier
improper_style  cvff
special_bonds   amber
pair_modify     mix arithmetic
read_data       temp.lmps
  orthogonal box = (-179.014 -179.014 -179.014) to (179.014 179.014 179.014)
  2 by 2 by 4 MPI processor grid
  reading atoms ...
  1680 atoms
  reading velocities ...
  1680 velocities
  scanning bonds ...
  4 = max bonds/atom
  scanning angles ...
  6 = max angles/atom
  scanning dihedrals ...
  24 = max dihedrals/atom
  scanning impropers ...
  2 = max impropers/atom
  reading bonds ...
  1840 bonds
  reading angles ...
  3287 angles
  reading dihedrals ...
  5225 dihedrals
  reading impropers ...
  483 impropers
  4 = max # of 1-2 neighbors
  11 = max # of 1-3 neighbors
  23 = max # of 1-4 neighbors
  23 = max # of special neighbors
  special bonds CPU = 0.00103903 secs
  read_data CPU = 0.036207 secs
################################################################################

min_style cg
minimize 1e-05 1e-05 10000 100000
WARNING: Using 'neigh_modify every 1 delay 0 check yes' setting during minimization (../min.cpp:190)
PPPM initialization ...
WARNING: System is not charge neutral, net charge = -4.6e-05 (../kspace.cpp:313)
  using 12-bit tables for long-range coulomb (../kspace.cpp:332)
  G vector (1/distance) = 0.0791626
  grid = 24 24 24
  stencil order = 5
  estimated absolute RMS force accuracy = 0.0341934
  estimated relative force accuracy = 0.000102973
  using double precision KISS FFT
  3d grid and FFT values/proc = 3179 1152
Neighbor list info ...
  update every 1 steps, delay 0 steps, check yes
  max neighbors/atom: 2000, page size: 100000
  master list distance cutoff = 14
  ghost atom cutoff = 14
  binsize = 7, bins = 52 52 52
  1 neighbor lists, perpetual/occasional/extra = 1 0 0
  (1) pair lj/cut/coul/long, perpetual
      attributes: half, newton on
      pair build: half/bin/newton
      stencil: half/bin/3d/newton
      bin: standard
Per MPI rank memory allocation (min/avg/max) = 19.18 | 19.51 | 20.01 Mbytes
Step Temp E_pair E_mol TotEng Press 
       0    2006.3582    616.75503    2040.6465    12698.783    9.4774759 
       8    2006.3582    610.82544     2020.185    12672.392    9.5703951 
Loop time of 0.276115 on 16 procs for 8 steps with 1680 atoms

93.7% CPU use with 16 MPI tasks x no OpenMP threads

Minimization stats:
  Stopping criterion = linesearch alpha is zero
  Energy initial, next-to-last, final = 
         2657.40150251      2631.01041081      2631.01041081
  Force two-norm initial, final = 106.845 74.8339
  Force max component initial, final = 11.4549 7.22247
  Final line search alpha, max atom move = 1.35983e-12 9.82136e-12
  Iterations, force evaluations = 8 79

MPI task timing breakdown:
Section |  min time  |  avg time  |  max time  |%varavg| %total
---------------------------------------------------------------
Pair    | 1.1921e-05 | 0.033078   | 0.14299    |  23.2 | 11.98
Bond    | 1.7643e-05 | 0.0087802  | 0.031479   |  11.2 |  3.18
Kspace  | 0.098044   | 0.2308     | 0.27318    |  11.0 | 83.59
Neigh   | 0          | 0          | 0          |   0.0 |  0.00
Comm    | 2.1696e-05 | 0.0011459  | 0.0027072  |   3.3 |  0.42
Output  | 0          | 0          | 0          |   0.0 |  0.00
Modify  | 0          | 0          | 0          |   0.0 |  0.00
Other   |            | 0.002306   |            |       |  0.84

Nlocal:    105 ave 383 max 0 min
Histogram: 8 1 0 1 2 2 0 0 0 2
Nghost:    115 ave 498 max 0 min
Histogram: 8 0 2 2 2 1 0 0 0 1
Neighs:    4911.19 ave 21507 max 0 min
Histogram: 9 0 1 2 1 1 1 0 0 1

Total # of neighbors = 78579
Ave neighs/atom = 46.7732
Ave special neighs/atom = 11.5845
Neighbor list builds = 0
Dangerous builds = 0
timestep        1
fix             pysimm_md all nvt temp 300 300 100
run             5000
PPPM initialization ...
  using 12-bit tables for long-range coulomb (../kspace.cpp:332)
  G vector (1/distance) = 0.0791626
  grid = 24 24 24
  stencil order = 5
  estimated absolute RMS force accuracy = 0.0341934
  estimated relative force accuracy = 0.000102973
  using double precision KISS FFT
  3d grid and FFT values/proc = 3179 1152
Per MPI rank memory allocation (min/avg/max) = 18.06 | 18.39 | 18.88 Mbytes
Step Temp E_pair E_mol TotEng Press 
       8    2006.3582    610.82544     2020.185    12672.392    9.5703951 
    5008    285.08029    586.80783    2231.3992    4244.9712   0.44499724 
Loop time of 7.53462 on 16 procs for 5000 steps with 1680 atoms

Performance: 57.335 ns/day, 0.419 hours/ns, 663.603 timesteps/s
93.0% CPU use with 16 MPI tasks x no OpenMP threads

MPI task timing breakdown:
Section |  min time  |  avg time  |  max time  |%varavg| %total
---------------------------------------------------------------
Pair    | 0.00045991 | 0.66631    | 3.1968     | 110.5 |  8.84
Bond    | 0.00089812 | 0.23975    | 0.93651    |  61.1 |  3.18
Kspace  | 3.1062     | 5.7735     | 6.511      |  40.4 | 76.63
Neigh   | 0.13194    | 0.13537    | 0.1392     |   0.6 |  1.80
Comm    | 0.005959   | 0.23365    | 0.72386    |  56.0 |  3.10
Output  | 2.5034e-05 | 2.6062e-05 | 3.0041e-05 |   0.0 |  0.00
Modify  | 0.051343   | 0.46329    | 0.86105    |  57.8 |  6.15
Other   |            | 0.02275    |            |       |  0.30

Nlocal:    105 ave 413 max 0 min
Histogram: 9 1 0 1 1 1 1 0 1 1
Nghost:    168.75 ave 543 max 0 min
Histogram: 8 0 0 3 0 1 0 2 1 1
Neighs:    5599.12 ave 25555 max 0 min
Histogram: 9 1 0 2 2 0 0 1 0 1

Total # of neighbors = 89586
Ave neighs/atom = 53.325
Ave special neighs/atom = 11.5845
Neighbor list builds = 144
Dangerous builds = 0
unfix pysimm_md
write_dump all custom pysimm.dump.tmp id q x y z vx vy vz
quit


################################################################################
##################################    Init    ##################################
################################################################################
units           real
atom_style      full
pair_style      lj/cut/coul/long 12.0  12.0
kspace_style    pppm 1e-4
bond_style      harmonic
angle_style     harmonic
dihedral_style  fourier
improper_style  cvff
special_bonds   amber
pair_modify     mix arithmetic
read_data       temp.lmps
  orthogonal box = (-51.0402 -51.0402 -51.0402) to (51.0402 51.0402 51.0402)
  2 by 2 by 4 MPI processor grid
  reading atoms ...
  240 atoms
  reading velocities ...
  240 velocities
  scanning bonds ...
  4 = max bonds/atom
  scanning angles ...
  6 = max angles/atom
  scanning dihedrals ...
  24 = max dihedrals/atom
  scanning impropers ...
  2 = max impropers/atom
  reading bonds ...
  260 bonds
  reading angles ...
  465 angles
  reading dihedrals ...
  730 dihedrals
  reading impropers ...
  63 impropers
  4 = max # of 1-2 neighbors
  11 = max # of 1-3 neighbors
  23 = max # of 1-4 neighbors
  23 = max # of special neighbors
  special bonds CPU = 0.00128913 secs
  read_data CPU = 0.014456 secs
################################################################################

min_style cg
minimize 1e-05 1e-05 10000 100000
WARNING: Using 'neigh_modify every 1 delay 0 check yes' setting during minimization (../min.cpp:190)
PPPM initialization ...
  using 12-bit tables for long-range coulomb (../kspace.cpp:332)
  G vector (1/distance) = 0.118661
  grid = 12 12 12
  stencil order = 5
  estimated absolute RMS force accuracy = 0.0283706
  estimated relative force accuracy = 8.54372e-05
  using double precision KISS FFT
  3d grid and FFT values/proc = 968 108
Neighbor list info ...
  update every 1 steps, delay 0 steps, check yes
  max neighbors/atom: 2000, page size: 100000
  master list distance cutoff = 14
  ghost atom cutoff = 14
  binsize = 7, bins = 15 15 15
  1 neighbor lists, perpetual/occasional/extra = 1 0 0
  (1) pair lj/cut/coul/long, perpetual
      attributes: half, newton on
      pair build: half/bin/newton
      stencil: half/bin/3d/newton
      bin: standard
Per MPI rank memory allocation (min/avg/max) = 18.93 | 19.1 | 19.71 Mbytes
Step Temp E_pair E_mol TotEng Press 
       0     1996.037    31.208969     278.2001     1731.413    55.769837 
      29     1996.037    33.687551    266.73405    1722.4255    61.602012 
Loop time of 0.106034 on 16 procs for 29 steps with 240 atoms

94.7% CPU use with 16 MPI tasks x no OpenMP threads

Minimization stats:
  Stopping criterion = linesearch alpha is zero
  Energy initial, next-to-last, final = 
          309.40906945      300.421598516      300.421598516
  Force two-norm initial, final = 30.9236 18.8049
  Force max component initial, final = 5.17221 3.13635
  Final line search alpha, max atom move = 2.28655e-11 7.17143e-11
  Iterations, force evaluations = 29 113

MPI task timing breakdown:
Section |  min time  |  avg time  |  max time  |%varavg| %total
---------------------------------------------------------------
Pair    | 9.5367e-06 | 0.0064253  | 0.053433   |  18.6 |  6.06
Bond    | 3.3617e-05 | 0.0018194  | 0.012813   |   9.3 |  1.72
Kspace  | 0.035964   | 0.09421    | 0.10321    |   6.2 | 88.85
Neigh   | 0          | 0          | 0          |   0.0 |  0.00
Comm    | 5.5313e-05 | 0.001439   | 0.0025382  |   2.2 |  1.36
Output  | 0          | 0          | 0          |   0.0 |  0.00
Modify  | 0          | 0          | 0          |   0.0 |  0.00
Other   |            | 0.00214    |            |       |  2.02

Nlocal:    15 ave 105 max 0 min
Histogram: 13 0 1 0 0 0 0 0 0 2
Nghost:    87.3125 ave 195 max 0 min
Histogram: 4 4 0 0 1 1 0 0 1 5
Neighs:    672.25 ave 5933 max 0 min
Histogram: 14 0 0 0 0 0 1 0 0 1

Total # of neighbors = 10756
Ave neighs/atom = 44.8167
Ave special neighs/atom = 11.45
Neighbor list builds = 0
Dangerous builds = 0
timestep        1
fix             pysimm_md all nvt temp 300 300 100
run             5000
PPPM initialization ...
  using 12-bit tables for long-range coulomb (../kspace.cpp:332)
  G vector (1/distance) = 0.118661
  grid = 12 12 12
  stencil order = 5
  estimated absolute RMS force accuracy = 0.0283706
  estimated relative force accuracy = 8.54372e-05
  using double precision KISS FFT
  3d grid and FFT values/proc = 968 108
Per MPI rank memory allocation (min/avg/max) = 17.81 | 17.97 | 18.59 Mbytes
Step Temp E_pair E_mol TotEng Press 
      29     1996.037    33.687551    266.73405    1722.4255    61.602012 
    5029    271.58089    40.079802    400.44875    634.00647    2.6036865 
Loop time of 2.326 on 16 procs for 5000 steps with 240 atoms

Performance: 185.727 ns/day, 0.129 hours/ns, 2149.618 timesteps/s
94.6% CPU use with 16 MPI tasks x no OpenMP threads

MPI task timing breakdown:
Section |  min time  |  avg time  |  max time  |%varavg| %total
---------------------------------------------------------------
Pair    | 0.00043559 | 0.12117    | 0.92686    |  69.4 |  5.21
Bond    | 0.00090957 | 0.044673   | 0.26816    |  38.5 |  1.92
Kspace  | 0.96116    | 1.8144     | 1.961      |  19.3 | 78.01
Neigh   | 0.033643   | 0.035208   | 0.037288   |   0.6 |  1.51
Comm    | 0.0097399  | 0.11703    | 0.28795    |  30.3 |  5.03
Output  | 1.9073e-05 | 1.9863e-05 | 2.408e-05  |   0.0 |  0.00
Modify  | 0.028216   | 0.17859    | 0.30205    |  28.8 |  7.68
Other   |            | 0.01487    |            |       |  0.64

Nlocal:    15 ave 115 max 0 min
Histogram: 11 3 0 0 0 1 0 0 0 1
Nghost:    80 ave 200 max 0 min
Histogram: 8 0 0 0 0 0 2 2 3 1
Neighs:    839.062 ave 4796 max 0 min
Histogram: 11 1 0 1 1 0 0 0 1 1

Total # of neighbors = 13425
Ave neighs/atom = 55.9375
Ave special neighs/atom = 11.45
Neighbor list builds = 118
Dangerous builds = 0
unfix pysimm_md
write_dump all custom pysimm.dump.tmp id q x y z vx vy vz
quit


################################################################################
##################################    Init    ##################################
################################################################################
units           real
atom_style      full
pair_style      lj/cut/coul/long 12.0  12.0
kspace_style    pppm 1e-4
bond_style      harmonic
angle_style     harmonic
dihedral_style  fourier
improper_style  cvff
special_bonds   amber
pair_modify     mix arithmetic
read_data       temp.lmps
  orthogonal box = (-52.6878 -52.6878 -52.6878) to (52.6878 52.6878 52.6878)
  2 by 2 by 4 MPI processor grid
  reading atoms ...
  426 atoms
  reading velocities ...
  426 velocities
  scanning bonds ...
  4 = max bonds/atom
  scanning angles ...
  6 = max angles/atom
  scanning dihedrals ...
  24 = max dihedrals/atom
  scanning impropers ...
  2 = max impropers/atom
  reading bonds ...
  467 bonds
  reading angles ...
  828 angles
  reading dihedrals ...
  1316 dihedrals
  reading impropers ...
  126 impropers
  4 = max # of 1-2 neighbors
  11 = max # of 1-3 neighbors
  23 = max # of 1-4 neighbors
  23 = max # of special neighbors
  special bonds CPU = 0.00125694 secs
  read_data CPU = 0.0376408 secs
################################################################################

min_style cg
minimize 1e-05 1e-05 10000 100000
WARNING: Using 'neigh_modify every 1 delay 0 check yes' setting during minimization (../min.cpp:190)
PPPM initialization ...
WARNING: System is not charge neutral, net charge = -1.2e-05 (../kspace.cpp:313)
  using 12-bit tables for long-range coulomb (../kspace.cpp:332)
  G vector (1/distance) = 0.116229
  grid = 12 12 12
  stencil order = 5
  estimated absolute RMS force accuracy = 0.0376314
  estimated relative force accuracy = 0.000113326
  using double precision KISS FFT
  3d grid and FFT values/proc = 968 108
Neighbor list info ...
  update every 1 steps, delay 0 steps, check yes
  max neighbors/atom: 2000, page size: 100000
  master list distance cutoff = 14
  ghost atom cutoff = 14
  binsize = 7, bins = 16 16 16
  1 neighbor lists, perpetual/occasional/extra = 1 0 0
  (1) pair lj/cut/coul/long, perpetual
      attributes: half, newton on
      pair build: half/bin/newton
      stencil: half/bin/3d/newton
      bin: standard
Per MPI rank memory allocation (min/avg/max) = 18.94 | 19.25 | 19.73 Mbytes
Step Temp E_pair E_mol TotEng Press 
       0    623.91828    237.22389    515.61142    1543.2426    39.242642 
      72    623.91828    229.74032    481.21942     1501.367    29.572666 
Loop time of 0.172202 on 16 procs for 72 steps with 426 atoms

93.2% CPU use with 16 MPI tasks x no OpenMP threads

Minimization stats:
  Stopping criterion = linesearch alpha is zero
  Energy initial, next-to-last, final = 
         752.835312338      710.959733923      710.959733923
  Force two-norm initial, final = 36.4217 28.401
  Force max component initial, final = 4.76495 4.30327
  Final line search alpha, max atom move = 1.24125e-11 5.34142e-11
  Iterations, force evaluations = 72 199

MPI task timing breakdown:
Section |  min time  |  avg time  |  max time  |%varavg| %total
---------------------------------------------------------------
Pair    | 2.0027e-05 | 0.022793   | 0.090528   |  18.8 | 13.24
Bond    | 6.9857e-05 | 0.0057644  | 0.017088   |   8.7 |  3.35
Kspace  | 0.05616    | 0.1349     | 0.16509    |   9.6 | 78.34
Neigh   | 0.00094604 | 0.0010019  | 0.001061   |   0.1 |  0.58
Comm    | 0.0002234  | 0.0032341  | 0.0059409  |   3.7 |  1.88
Output  | 0          | 0          | 0          |   0.0 |  0.00
Modify  | 0          | 0          | 0          |   0.0 |  0.00
Other   |            | 0.004511   |            |       |  2.62

Nlocal:    26.625 ave 83 max 0 min
Histogram: 8 1 0 1 1 0 1 1 1 2
Nghost:    142.625 ave 343 max 0 min
Histogram: 8 0 0 0 0 0 1 5 0 2
Neighs:    1406.38 ave 6208 max 0 min
Histogram: 8 2 1 1 0 2 1 0 0 1

Total # of neighbors = 22502
Ave neighs/atom = 52.8216
Ave special neighs/atom = 11.4977
Neighbor list builds = 2
Dangerous builds = 0
timestep        1
fix             pysimm_md all nvt temp 300 300 100
run             5000
PPPM initialization ...
  using 12-bit tables for long-range coulomb (../kspace.cpp:332)
  G vector (1/distance) = 0.116229
  grid = 12 12 12
  stencil order = 5
  estimated absolute RMS force accuracy = 0.0376314
  estimated relative force accuracy = 0.000113326
  using double precision KISS FFT
  3d grid and FFT values/proc = 968 108
Per MPI rank memory allocation (min/avg/max) = 17.81 | 18.13 | 18.61 Mbytes
Step Temp E_pair E_mol TotEng Press 
      72    623.91828    229.74032    481.21942     1501.367    29.572666 
    5072    301.29251    233.16259     750.0755    1364.9288   -20.911424 
Loop time of 2.55493 on 16 procs for 5000 steps with 426 atoms

Performance: 169.085 ns/day, 0.142 hours/ns, 1957.002 timesteps/s
93.2% CPU use with 16 MPI tasks x no OpenMP threads

MPI task timing breakdown:
Section |  min time  |  avg time  |  max time  |%varavg| %total
---------------------------------------------------------------
Pair    | 0.00046062 | 0.19613    | 0.91911    |  56.4 |  7.68
Bond    | 0.00078487 | 0.076586   | 0.34124    |  34.4 |  3.00
Kspace  | 1.0969     | 1.8838     | 2.1274     |  20.2 | 73.73
Neigh   | 0.039092   | 0.041412   | 0.044644   |   0.9 |  1.62
Comm    | 0.0048649  | 0.13548    | 0.32281    |  32.1 |  5.30
Output  | 2.3842e-05 | 2.4334e-05 | 2.8849e-05 |   0.0 |  0.00
Modify  | 0.036211   | 0.20382    | 0.36341    |  34.7 |  7.98
Other   |            | 0.01769    |            |       |  0.69

Nlocal:    26.625 ave 156 max 0 min
Histogram: 12 0 0 1 1 0 0 0 1 1
Nghost:    133 ave 314 max 0 min
Histogram: 4 0 4 0 0 2 1 3 0 2
Neighs:    1368.81 ave 8960 max 0 min
Histogram: 12 0 0 2 0 0 1 0 0 1

Total # of neighbors = 21901
Ave neighs/atom = 51.4108
Ave special neighs/atom = 11.4977
Neighbor list builds = 126
Dangerous builds = 0
unfix pysimm_md
write_dump all custom pysimm.dump.tmp id q x y z vx vy vz
quit


################################################################################
##################################    Init    ##################################
################################################################################
units           real
atom_style      full
pair_style      lj/cut/coul/long 12.0  12.0
kspace_style    pppm 1e-4
bond_style      harmonic
angle_style     harmonic
dihedral_style  fourier
improper_style  cvff
special_bonds   amber
pair_modify     mix arithmetic
read_data       temp.lmps
  orthogonal box = (-54.2383 -54.2383 -54.2383) to (54.2383 54.2383 54.2383)
  2 by 2 by 4 MPI processor grid
  reading atoms ...
  492 atoms
  reading velocities ...
  492 velocities
  scanning bonds ...
  4 = max bonds/atom
  scanning angles ...
  6 = max angles/atom
  scanning dihedrals ...
  24 = max dihedrals/atom
  scanning impropers ...
  2 = max impropers/atom
  reading bonds ...
  540 bonds
  reading angles ...
  958 angles
  reading dihedrals ...
  1523 dihedrals
  reading impropers ...
  147 impropers
  4 = max # of 1-2 neighbors
  11 = max # of 1-3 neighbors
  23 = max # of 1-4 neighbors
  23 = max # of special neighbors
  special bonds CPU = 0.001266 secs
  read_data CPU = 0.017792 secs
################################################################################

min_style cg
minimize 1e-05 1e-05 10000 100000
WARNING: Using 'neigh_modify every 1 delay 0 check yes' setting during minimization (../min.cpp:190)
PPPM initialization ...
WARNING: System is not charge neutral, net charge = -1.4e-05 (../kspace.cpp:313)
  using 12-bit tables for long-range coulomb (../kspace.cpp:332)
  G vector (1/distance) = 0.114027
  grid = 12 12 12
  stencil order = 5
  estimated absolute RMS force accuracy = 0.0415074
  estimated relative force accuracy = 0.000124998
  using double precision KISS FFT
  3d grid and FFT values/proc = 968 108
Neighbor list info ...
  update every 1 steps, delay 0 steps, check yes
  max neighbors/atom: 2000, page size: 100000
  master list distance cutoff = 14
  ghost atom cutoff = 14
  binsize = 7, bins = 16 16 16
  1 neighbor lists, perpetual/occasional/extra = 1 0 0
  (1) pair lj/cut/coul/long, perpetual
      attributes: half, newton on
      pair build: half/bin/newton
      stencil: half/bin/3d/newton
      bin: standard
Per MPI rank memory allocation (min/avg/max) = 18.94 | 19.22 | 19.74 Mbytes
Step Temp E_pair E_mol TotEng Press 
       0    1577.7322    234.10519    639.18673    3182.4256    85.205103 
      81    1577.7322    222.61612     554.2575    3086.0073    86.883774 
Loop time of 0.285568 on 16 procs for 81 steps with 492 atoms

93.3% CPU use with 16 MPI tasks x no OpenMP threads

Minimization stats:
  Stopping criterion = linesearch alpha is zero
  Energy initial, next-to-last, final = 
         873.291911781       776.87362066       776.87362066
  Force two-norm initial, final = 62.1991 26.2686
  Force max component initial, final = 7.18356 3.39014
  Final line search alpha, max atom move = 1.66659e-11 5.64997e-11
  Iterations, force evaluations = 81 217

MPI task timing breakdown:
Section |  min time  |  avg time  |  max time  |%varavg| %total
---------------------------------------------------------------
Pair    | 1.6451e-05 | 0.040342   | 0.16863    |  27.3 | 14.13
Bond    | 8.297e-05  | 0.0071283  | 0.029158   |  11.2 |  2.50
Kspace  | 0.075621   | 0.22636    | 0.27437    |  13.5 | 79.27
Neigh   | 0.001472   | 0.0015495  | 0.0016222  |   0.1 |  0.54
Comm    | 0.0021887  | 0.0045783  | 0.0075097  |   3.1 |  1.60
Output  | 0          | 0          | 0          |   0.0 |  0.00
Modify  | 0          | 0          | 0          |   0.0 |  0.00
Other   |            | 0.005614   |            |       |  1.97

Nlocal:    30.75 ave 128 max 0 min
Histogram: 8 2 1 0 2 0 1 1 0 1
Nghost:    205.125 ave 432 max 13 min
Histogram: 4 4 0 0 0 0 1 0 5 2
Neighs:    2457.06 ave 9586 max 0 min
Histogram: 9 1 1 0 0 1 2 0 1 1

Total # of neighbors = 39313
Ave neighs/atom = 79.9045
Ave special neighs/atom = 11.5122
Neighbor list builds = 2
Dangerous builds = 0
timestep        1
fix             pysimm_md all nvt temp 300 300 100
run             5000
PPPM initialization ...
  using 12-bit tables for long-range coulomb (../kspace.cpp:332)
  G vector (1/distance) = 0.114027
  grid = 12 12 12
  stencil order = 5
  estimated absolute RMS force accuracy = 0.0415074
  estimated relative force accuracy = 0.000124998
  using double precision KISS FFT
  3d grid and FFT values/proc = 968 108
Per MPI rank memory allocation (min/avg/max) = 17.82 | 18.09 | 18.62 Mbytes
Step Temp E_pair E_mol TotEng Press 
      81    1577.7322    222.61612     554.2575    3086.0073    86.883774 
    5081    281.04534     246.9817    850.56752    1508.8809   -8.7328876 
Loop time of 2.43206 on 16 procs for 5000 steps with 492 atoms

Performance: 177.627 ns/day, 0.135 hours/ns, 2055.866 timesteps/s
94.0% CPU use with 16 MPI tasks x no OpenMP threads

MPI task timing breakdown:
Section |  min time  |  avg time  |  max time  |%varavg| %total
---------------------------------------------------------------
Pair    | 0.0004077  | 0.25587    | 0.85666    |  59.6 | 10.52
Bond    | 0.00076485 | 0.082306   | 0.2478     |  33.7 |  3.38
Kspace  | 1.0825     | 1.7148     | 1.9923     |  24.6 | 70.51
Neigh   | 0.046769   | 0.048813   | 0.051017   |   0.6 |  2.01
Comm    | 0.039623   | 0.13153    | 0.30951    |  27.0 |  5.41
Output  | 2.3127e-05 | 2.3976e-05 | 2.8133e-05 |   0.0 |  0.00
Modify  | 0.027269   | 0.18337    | 0.33626    |  34.8 |  7.54
Other   |            | 0.01532    |            |       |  0.63

Nlocal:    30.75 ave 172 max 0 min
Histogram: 8 2 3 1 1 0 0 0 0 1
Nghost:    165.375 ave 382 max 3 min
Histogram: 6 2 0 0 0 0 1 4 0 3
Neighs:    1810.88 ave 8257 max 0 min
Histogram: 8 1 0 3 3 0 0 0 0 1

Total # of neighbors = 28974
Ave neighs/atom = 58.8902
Ave special neighs/atom = 11.5122
Neighbor list builds = 138
Dangerous builds = 0
unfix pysimm_md
write_dump all custom pysimm.dump.tmp id q x y z vx vy vz
quit


################################################################################
##################################    Init    ##################################
################################################################################
units           real
atom_style      full
pair_style      lj/cut/coul/long 12.0  12.0
kspace_style    pppm 1e-4
bond_style      harmonic
angle_style     harmonic
dihedral_style  fourier
improper_style  cvff
special_bonds   amber
pair_modify     mix arithmetic
read_data       temp.lmps
  orthogonal box = (-55.7049 -55.7049 -55.7049) to (55.7049 55.7049 55.7049)
  2 by 2 by 4 MPI processor grid
  reading atoms ...
  438 atoms
  reading velocities ...
  438 velocities
  scanning bonds ...
  4 = max bonds/atom
  scanning angles ...
  6 = max angles/atom
  scanning dihedrals ...
  24 = max dihedrals/atom
  scanning impropers ...
  2 = max impropers/atom
  reading bonds ...
  479 bonds
  reading angles ...
  852 angles
  reading dihedrals ...
  1350 dihedrals
  reading impropers ...
  126 impropers
  4 = max # of 1-2 neighbors
  11 = max # of 1-3 neighbors
  23 = max # of 1-4 neighbors
  23 = max # of special neighbors
  special bonds CPU = 0.00175905 secs
  read_data CPU = 0.017966 secs
################################################################################

min_style cg
minimize 1e-05 1e-05 10000 100000
WARNING: Using 'neigh_modify every 1 delay 0 check yes' setting during minimization (../min.cpp:190)
PPPM initialization ...
WARNING: System is not charge neutral, net charge = -1.2e-05 (../kspace.cpp:313)
  using 12-bit tables for long-range coulomb (../kspace.cpp:332)
  G vector (1/distance) = 0.112012
  grid = 12 12 12
  stencil order = 5
  estimated absolute RMS force accuracy = 0.0407088
  estimated relative force accuracy = 0.000122593
  using double precision KISS FFT
  3d grid and FFT values/proc = 968 108
Neighbor list info ...
  update every 1 steps, delay 0 steps, check yes
  max neighbors/atom: 2000, page size: 100000
  master list distance cutoff = 14
  ghost atom cutoff = 14
  binsize = 7, bins = 16 16 16
  1 neighbor lists, perpetual/occasional/extra = 1 0 0
  (1) pair lj/cut/coul/long, perpetual
      attributes: half, newton on
      pair build: half/bin/newton
      stencil: half/bin/3d/newton
      bin: standard
Per MPI rank memory allocation (min/avg/max) = 18.94 | 19.19 | 19.73 Mbytes
Step Temp E_pair E_mol TotEng Press 
       0    1580.7089    160.95839    556.73506     2776.747    70.678245 
     110    1580.7089    142.15678     494.6863    2695.8966    67.171879 
Loop time of 0.324391 on 16 procs for 110 steps with 438 atoms

94.4% CPU use with 16 MPI tasks x no OpenMP threads

Minimization stats:
  Stopping criterion = linesearch alpha is zero
  Energy initial, next-to-last, final = 
         717.693452356      636.843083905      636.843083905
  Force two-norm initial, final = 45.8814 22.178
  Force max component initial, final = 9.16624 3.14382
  Final line search alpha, max atom move = 2.5341e-11 7.96676e-11
  Iterations, force evaluations = 110 273

MPI task timing breakdown:
Section |  min time  |  avg time  |  max time  |%varavg| %total
---------------------------------------------------------------
Pair    | 4.3154e-05 | 0.037404   | 0.17639    |  30.2 | 11.53
Bond    | 7.0333e-05 | 0.0080909  | 0.038577   |  13.5 |  2.49
Kspace  | 0.094639   | 0.2655     | 0.31295    |  13.8 | 81.85
Neigh   | 0.0021951  | 0.002341   | 0.0024657  |   0.2 |  0.72
Comm    | 0.00033689 | 0.0041162  | 0.0079346  |   4.2 |  1.27
Output  | 0          | 0          | 0          |   0.0 |  0.00
Modify  | 0          | 0          | 0          |   0.0 |  0.00
Other   |            | 0.006938   |            |       |  2.14

Nlocal:    27.375 ave 128 max 0 min
Histogram: 10 1 0 0 2 1 0 0 1 1
Nghost:    119.875 ave 315 max 0 min
Histogram: 8 0 0 0 0 1 3 1 1 2
Neighs:    1656.81 ave 7887 max 0 min
Histogram: 11 0 1 0 1 0 1 0 1 1

Total # of neighbors = 26509
Ave neighs/atom = 60.5228
Ave special neighs/atom = 11.5023
Neighbor list builds = 4
Dangerous builds = 0
timestep        1
fix             pysimm_md all nvt temp 300 300 100
run             5000
PPPM initialization ...
  using 12-bit tables for long-range coulomb (../kspace.cpp:332)
  G vector (1/distance) = 0.112012
  grid = 12 12 12
  stencil order = 5
  estimated absolute RMS force accuracy = 0.0407088
  estimated relative force accuracy = 0.000122593
  using double precision KISS FFT
  3d grid and FFT values/proc = 968 108
Per MPI rank memory allocation (min/avg/max) = 17.81 | 18.08 | 18.61 Mbytes
Step Temp E_pair E_mol TotEng Press 
     110    1580.7089    142.15678     494.6863    2695.8966    67.171879 
    5110    299.48801    177.95831     753.5777    1321.6533   -3.4814051 
Loop time of 2.74201 on 16 procs for 5000 steps with 438 atoms

Performance: 157.548 ns/day, 0.152 hours/ns, 1823.477 timesteps/s
94.7% CPU use with 16 MPI tasks x no OpenMP threads

MPI task timing breakdown:
Section |  min time  |  avg time  |  max time  |%varavg| %total
---------------------------------------------------------------
Pair    | 0.0004456  | 0.23833    | 1.2527     |  75.9 |  8.69
Bond    | 0.0008502  | 0.07282    | 0.28542    |  38.4 |  2.66
Kspace  | 0.97221    | 2.0345     | 2.3002     |  27.7 | 74.20
Neigh   | 0.053667   | 0.056016   | 0.05818    |   0.6 |  2.04
Comm    | 0.021428   | 0.13363    | 0.35406    |  33.0 |  4.87
Output  | 2.3842e-05 | 2.4721e-05 | 2.9087e-05 |   0.0 |  0.00
Modify  | 0.032219   | 0.19021    | 0.34723    |  35.0 |  6.94
Other   |            | 0.01644    |            |       |  0.60

Nlocal:    27.375 ave 175 max 0 min
Histogram: 10 3 0 0 1 0 1 0 0 1
Nghost:    151.25 ave 424 max 7 min
Histogram: 8 0 0 0 1 4 0 1 0 2
Neighs:    1816.06 ave 14181 max 0 min
Histogram: 11 2 0 2 0 0 0 0 0 1

Total # of neighbors = 29057
Ave neighs/atom = 66.3402
Ave special neighs/atom = 11.5023
Neighbor list builds = 146
Dangerous builds = 0
unfix pysimm_md
write_dump all custom pysimm.dump.tmp id q x y z vx vy vz
quit


################################################################################
##################################    Init    ##################################
################################################################################
units           real
atom_style      full
pair_style      lj/cut/coul/long 12.0  12.0
kspace_style    pppm 1e-4
bond_style      harmonic
angle_style     harmonic
dihedral_style  fourier
improper_style  cvff
special_bonds   amber
pair_modify     mix arithmetic
read_data       temp.lmps
  orthogonal box = (-117.114 -117.114 -117.114) to (117.114 117.114 117.114)
  2 by 2 by 4 MPI processor grid
  reading atoms ...
  444 atoms
  reading velocities ...
  444 velocities
  scanning bonds ...
  4 = max bonds/atom
  scanning angles ...
  6 = max angles/atom
  scanning dihedrals ...
  24 = max dihedrals/atom
  scanning impropers ...
  2 = max impropers/atom
  reading bonds ...
  485 bonds
  reading angles ...
  865 angles
  reading dihedrals ...
  1370 dihedrals
  reading impropers ...
  126 impropers
  4 = max # of 1-2 neighbors
  11 = max # of 1-3 neighbors
  23 = max # of 1-4 neighbors
  23 = max # of special neighbors
  special bonds CPU = 0.000835896 secs
  read_data CPU = 0.0174961 secs
################################################################################

min_style cg
minimize 1e-05 1e-05 10000 100000
WARNING: Using 'neigh_modify every 1 delay 0 check yes' setting during minimization (../min.cpp:190)
PPPM initialization ...
WARNING: System is not charge neutral, net charge = -1.2e-05 (../kspace.cpp:313)
  using 12-bit tables for long-range coulomb (../kspace.cpp:332)
  G vector (1/distance) = 0.0763484
  grid = 15 15 15
  stencil order = 5
  estimated absolute RMS force accuracy = 0.0355365
  estimated relative force accuracy = 0.000107017
  using double precision KISS FFT
  3d grid and FFT values/proc = 1521 256
Neighbor list info ...
  update every 1 steps, delay 0 steps, check yes
  max neighbors/atom: 2000, page size: 100000
  master list distance cutoff = 14
  ghost atom cutoff = 14
  binsize = 7, bins = 34 34 34
  1 neighbor lists, perpetual/occasional/extra = 1 0 0
  (1) pair lj/cut/coul/long, perpetual
      attributes: half, newton on
      pair build: half/bin/newton
      stencil: half/bin/3d/newton
      bin: standard
Per MPI rank memory allocation (min/avg/max) = 18.99 | 19.26 | 19.81 Mbytes
Step Temp E_pair E_mol TotEng Press 
       0    875.70211     138.0828    533.94048    1828.3869    4.5139597 
      11    875.70211    132.95876    527.23619    1816.5586    4.3776397 
Loop time of 0.11053 on 16 procs for 11 steps with 444 atoms

92.2% CPU use with 16 MPI tasks x no OpenMP threads

Minimization stats:
  Stopping criterion = linesearch alpha is zero
  Energy initial, next-to-last, final = 
         672.023275815      660.194942429      660.194942429
  Force two-norm initial, final = 56.1664 45.9508
  Force max component initial, final = 10.5157 5.68061
  Final line search alpha, max atom move = 3.43728e-12 1.95258e-11
  Iterations, force evaluations = 11 81

MPI task timing breakdown:
Section |  min time  |  avg time  |  max time  |%varavg| %total
---------------------------------------------------------------
Pair    | 9.7752e-06 | 0.0096208  | 0.060573   |  15.2 |  8.70
Bond    | 2.4557e-05 | 0.0020975  | 0.011225   |   6.3 |  1.90
Kspace  | 0.035315   | 0.095984   | 0.10821    |   5.8 | 86.84
Neigh   | 0          | 0          | 0          |   0.0 |  0.00
Comm    | 3.2187e-05 | 0.0011352  | 0.0025985  |   3.2 |  1.03
Output  | 0          | 0          | 0          |   0.0 |  0.00
Modify  | 0          | 0          | 0          |   0.0 |  0.00
Other   |            | 0.001693   |            |       |  1.53

Nlocal:    27.75 ave 123 max 0 min
Histogram: 8 2 0 4 0 0 0 0 1 1
Nghost:    168.625 ave 391 max 0 min
Histogram: 8 0 0 0 0 0 0 2 2 4
Neighs:    1807.19 ave 9954 max 0 min
Histogram: 8 2 4 0 0 0 0 1 0 1

Total # of neighbors = 28915
Ave neighs/atom = 65.1239
Ave special neighs/atom = 11.5225
Neighbor list builds = 0
Dangerous builds = 0
timestep        1
fix             pysimm_md all nvt temp 300 300 100
run             5000
PPPM initialization ...
  using 12-bit tables for long-range coulomb (../kspace.cpp:332)
  G vector (1/distance) = 0.0763484
  grid = 15 15 15
  stencil order = 5
  estimated absolute RMS force accuracy = 0.0355365
  estimated relative force accuracy = 0.000107017
  using double precision KISS FFT
  3d grid and FFT values/proc = 1521 256
Per MPI rank memory allocation (min/avg/max) = 17.87 | 18.13 | 18.68 Mbytes
Step Temp E_pair E_mol TotEng Press 
      11    875.70211    132.95876    527.23619    1816.5586    4.3776397 
    5011    321.52467    154.79306    711.74539    1291.1114   0.65896055 
Loop time of 4.27631 on 16 procs for 5000 steps with 444 atoms

Performance: 101.022 ns/day, 0.238 hours/ns, 1169.233 timesteps/s
92.5% CPU use with 16 MPI tasks x no OpenMP threads

MPI task timing breakdown:
Section |  min time  |  avg time  |  max time  |%varavg| %total
---------------------------------------------------------------
Pair    | 0.00046754 | 0.25255    | 1.9261     |  93.0 |  5.91
Bond    | 0.00090051 | 0.071977   | 0.4212     |  40.1 |  1.68
Kspace  | 1.6466     | 3.4088     | 3.6989     |  27.0 | 79.71
Neigh   | 0.084024   | 0.086512   | 0.08848    |   0.4 |  2.02
Comm    | 0.0056143  | 0.17479    | 0.43035    |  42.7 |  4.09
Output  | 2.2173e-05 | 2.3261e-05 | 3.0041e-05 |   0.0 |  0.00
Modify  | 0.038162   | 0.26195    | 0.4725     |  40.3 |  6.13
Other   |            | 0.01975    |            |       |  0.46

Nlocal:    27.75 ave 320 max 0 min
Histogram: 14 1 0 0 0 0 0 0 0 1
Nghost:    85 ave 288 max 0 min
Histogram: 8 0 0 2 3 0 0 1 0 2
Neighs:    2110.25 ave 29814 max 0 min
Histogram: 15 0 0 0 0 0 0 0 0 1

Total # of neighbors = 33764
Ave neighs/atom = 76.045
Ave special neighs/atom = 11.5225
Neighbor list builds = 126
Dangerous builds = 0
unfix pysimm_md
write_dump all custom pysimm.dump.tmp id q x y z vx vy vz
quit


################################################################################
##################################    Init    ##################################
################################################################################
units           real
atom_style      full
pair_style      lj/cut/coul/long 12.0  12.0
kspace_style    pppm 1e-4
bond_style      harmonic
angle_style     harmonic
dihedral_style  fourier
improper_style  cvff
special_bonds   amber
pair_modify     mix arithmetic
read_data       temp.lmps
  orthogonal box = (-58.4265 -58.4265 -58.4265) to (58.4265 58.4265 58.4265)
  2 by 2 by 4 MPI processor grid
  reading atoms ...
  510 atoms
  reading velocities ...
  510 velocities
  scanning bonds ...
  4 = max bonds/atom
  scanning angles ...
  6 = max angles/atom
  scanning dihedrals ...
  24 = max dihedrals/atom
  scanning impropers ...
  2 = max impropers/atom
  reading bonds ...
  558 bonds
  reading angles ...
  994 angles
  reading dihedrals ...
  1576 dihedrals
  reading impropers ...
  147 impropers
  4 = max # of 1-2 neighbors
  11 = max # of 1-3 neighbors
  23 = max # of 1-4 neighbors
  23 = max # of special neighbors
  special bonds CPU = 0.00136399 secs
  read_data CPU = 0.019485 secs
################################################################################

min_style cg
minimize 1e-05 1e-05 10000 100000
WARNING: Using 'neigh_modify every 1 delay 0 check yes' setting during minimization (../min.cpp:190)
PPPM initialization ...
WARNING: System is not charge neutral, net charge = -1.4e-05 (../kspace.cpp:313)
  using 12-bit tables for long-range coulomb (../kspace.cpp:332)
  G vector (1/distance) = 0.125481
  grid = 15 15 15
  stencil order = 5
  estimated absolute RMS force accuracy = 0.0257829
  estimated relative force accuracy = 7.76446e-05
  using double precision KISS FFT
  3d grid and FFT values/proc = 1521 256
Neighbor list info ...
  update every 1 steps, delay 0 steps, check yes
  max neighbors/atom: 2000, page size: 100000
  master list distance cutoff = 14
  ghost atom cutoff = 14
  binsize = 7, bins = 17 17 17
  1 neighbor lists, perpetual/occasional/extra = 1 0 0
  (1) pair lj/cut/coul/long, perpetual
      attributes: half, newton on
      pair build: half/bin/newton
      stencil: half/bin/3d/newton
      bin: standard
Per MPI rank memory allocation (min/avg/max) = 18.97 | 19.21 | 19.77 Mbytes
Step Temp E_pair E_mol TotEng Press 
       0    466.01231    173.54999    555.18402     1435.783    23.140478 
      63    466.01231    168.51585     529.8913    1405.4561    21.321966 
Loop time of 0.198955 on 16 procs for 63 steps with 510 atoms

95.3% CPU use with 16 MPI tasks x no OpenMP threads

Minimization stats:
  Stopping criterion = linesearch alpha is zero
  Energy initial, next-to-last, final = 
         728.734009281      698.407153762      698.407153762
  Force two-norm initial, final = 38.4022 24.9884
  Force max component initial, final = 6.67476 3.71208
  Final line search alpha, max atom move = 1.35274e-11 5.0215e-11
  Iterations, force evaluations = 63 181

MPI task timing breakdown:
Section |  min time  |  avg time  |  max time  |%varavg| %total
---------------------------------------------------------------
Pair    | 2.3603e-05 | 0.020669   | 0.083627   |  20.5 | 10.39
Bond    | 8.1301e-05 | 0.0060167  | 0.024545   |  10.6 |  3.02
Kspace  | 0.088173   | 0.16452    | 0.19243    |   9.4 | 82.69
Neigh   | 0.00096798 | 0.0010246  | 0.0010972  |   0.1 |  0.51
Comm    | 0.0002234  | 0.0025199  | 0.0052152  |   4.0 |  1.27
Output  | 0          | 0          | 0          |   0.0 |  0.00
Modify  | 0          | 0          | 0          |   0.0 |  0.00
Other   |            | 0.00421    |            |       |  2.12

Nlocal:    31.875 ave 132 max 0 min
Histogram: 10 0 2 0 0 0 1 1 1 1
Nghost:    101.562 ave 221 max 0 min
Histogram: 8 0 0 0 0 0 0 1 2 5
Neighs:    1383.56 ave 6326 max 0 min
Histogram: 9 2 1 0 1 0 1 0 1 1

Total # of neighbors = 22137
Ave neighs/atom = 43.4059
Ave special neighs/atom = 11.5255
Neighbor list builds = 2
Dangerous builds = 0
timestep        1
fix             pysimm_md all nvt temp 300 300 100
run             5000
PPPM initialization ...
  using 12-bit tables for long-range coulomb (../kspace.cpp:332)
  G vector (1/distance) = 0.125481
  grid = 15 15 15
  stencil order = 5
  estimated absolute RMS force accuracy = 0.0257829
  estimated relative force accuracy = 7.76446e-05
  using double precision KISS FFT
  3d grid and FFT values/proc = 1521 256
Per MPI rank memory allocation (min/avg/max) = 17.85 | 18.09 | 18.65 Mbytes
Step Temp E_pair E_mol TotEng Press 
      63    466.01231    168.51585     529.8913    1405.4561    21.321966 
    5063    303.31454    184.76526    712.88677    1357.8506    6.6637607 
Loop time of 3.75609 on 16 procs for 5000 steps with 510 atoms

Performance: 115.013 ns/day, 0.209 hours/ns, 1331.172 timesteps/s
94.6% CPU use with 16 MPI tasks x no OpenMP threads

MPI task timing breakdown:
Section |  min time  |  avg time  |  max time  |%varavg| %total
---------------------------------------------------------------
Pair    | 0.00052571 | 0.20022    | 1.5241     |  84.6 |  5.33
Bond    | 0.00093937 | 0.081566   | 0.51836    |  47.3 |  2.17
Kspace  | 1.5164     | 2.9142     | 3.1392     |  23.6 | 77.59
Neigh   | 0.067484   | 0.068697   | 0.070145   |   0.3 |  1.83
Comm    | 0.028759   | 0.19287    | 0.497      |  39.8 |  5.13
Output  | 2.1935e-05 | 2.2665e-05 | 2.8849e-05 |   0.0 |  0.00
Modify  | 0.026582   | 0.28179    | 0.50854    |  41.1 |  7.50
Other   |            | 0.01675    |            |       |  0.45

Nlocal:    31.875 ave 246 max 0 min
Histogram: 11 1 2 1 0 0 0 0 0 1
Nghost:    121.125 ave 285 max 3 min
Histogram: 2 0 6 1 2 1 1 0 1 2
Neighs:    1494.75 ave 12748 max 0 min
Histogram: 11 3 0 1 0 0 0 0 0 1

Total # of neighbors = 23916
Ave neighs/atom = 46.8941
Ave special neighs/atom = 11.5255
Neighbor list builds = 139
Dangerous builds = 0
unfix pysimm_md
write_dump all custom pysimm.dump.tmp id q x y z vx vy vz
quit


################################################################################
##################################    Init    ##################################
################################################################################
units           real
atom_style      full
pair_style      lj/cut/coul/long 12.0  12.0
kspace_style    pppm 1e-4
bond_style      harmonic
angle_style     harmonic
dihedral_style  fourier
improper_style  cvff
special_bonds   amber
pair_modify     mix arithmetic
read_data       temp.lmps
  orthogonal box = (-122.444 -122.444 -122.444) to (122.444 122.444 122.444)
  2 by 2 by 4 MPI processor grid
  reading atoms ...
  456 atoms
  reading velocities ...
  456 velocities
  scanning bonds ...
  4 = max bonds/atom
  scanning angles ...
  6 = max angles/atom
  scanning dihedrals ...
  24 = max dihedrals/atom
  scanning impropers ...
  2 = max impropers/atom
  reading bonds ...
  497 bonds
  reading angles ...
  889 angles
  reading dihedrals ...
  1406 dihedrals
  reading impropers ...
  126 impropers
  4 = max # of 1-2 neighbors
  11 = max # of 1-3 neighbors
  23 = max # of 1-4 neighbors
  23 = max # of special neighbors
  special bonds CPU = 0.00125599 secs
  read_data CPU = 0.0182669 secs
################################################################################

min_style cg
minimize 1e-05 1e-05 10000 100000
WARNING: Using 'neigh_modify every 1 delay 0 check yes' setting during minimization (../min.cpp:190)
PPPM initialization ...
WARNING: System is not charge neutral, net charge = -1.2e-05 (../kspace.cpp:313)
  using 12-bit tables for long-range coulomb (../kspace.cpp:332)
  G vector (1/distance) = 0.0736727
  grid = 15 15 15
  stencil order = 5
  estimated absolute RMS force accuracy = 0.0360063
  estimated relative force accuracy = 0.000108432
  using double precision KISS FFT
  3d grid and FFT values/proc = 1521 256
Neighbor list info ...
  update every 1 steps, delay 0 steps, check yes
  max neighbors/atom: 2000, page size: 100000
  master list distance cutoff = 14
  ghost atom cutoff = 14
  binsize = 7, bins = 35 35 35
  1 neighbor lists, perpetual/occasional/extra = 1 0 0
  (1) pair lj/cut/coul/long, perpetual
      attributes: half, newton on
      pair build: half/bin/newton
      stencil: half/bin/3d/newton
      bin: standard
Per MPI rank memory allocation (min/avg/max) = 18.99 | 19.25 | 19.81 Mbytes
Step Temp E_pair E_mol TotEng Press 
       0    270.45585    77.438769    520.98883    965.23836   0.56818945 
      26    270.45585    67.948738    492.42086    927.18036   0.81472574 
Loop time of 0.133961 on 16 procs for 26 steps with 456 atoms

95.0% CPU use with 16 MPI tasks x no OpenMP threads

Minimization stats:
  Stopping criterion = linesearch alpha is zero
  Energy initial, next-to-last, final = 
         598.427594699      560.369599132      560.369599132
  Force two-norm initial, final = 69.3406 32.7374
  Force max component initial, final = 12.2929 8.79289
  Final line search alpha, max atom move = 1.09438e-11 9.62274e-11
  Iterations, force evaluations = 26 109

MPI task timing breakdown:
Section |  min time  |  avg time  |  max time  |%varavg| %total
---------------------------------------------------------------
Pair    | 1.7166e-05 | 0.013577   | 0.068988   |  18.4 | 10.14
Bond    | 4.5776e-05 | 0.0029455  | 0.013215   |   8.3 |  2.20
Kspace  | 0.046596   | 0.11324    | 0.13052    |   7.9 | 84.53
Neigh   | 0          | 0          | 0          |   0.0 |  0.00
Comm    | 5.9366e-05 | 0.0015082  | 0.0036016  |   3.8 |  1.13
Output  | 0          | 0          | 0          |   0.0 |  0.00
Modify  | 0          | 0          | 0          |   0.0 |  0.00
Other   |            | 0.002688   |            |       |  2.01

Nlocal:    28.5 ave 113 max 0 min
Histogram: 11 0 0 1 0 0 0 1 1 2
Nghost:    143.875 ave 359 max 0 min
Histogram: 8 0 0 0 0 0 3 1 2 2
Neighs:    1749 ave 8348 max 0 min
Histogram: 10 2 0 0 0 1 1 1 0 1

Total # of neighbors = 27984
Ave neighs/atom = 61.3684
Ave special neighs/atom = 11.5351
Neighbor list builds = 0
Dangerous builds = 0
timestep        1
fix             pysimm_md all nvt temp 300 300 100
run             5000
PPPM initialization ...
  using 12-bit tables for long-range coulomb (../kspace.cpp:332)
  G vector (1/distance) = 0.0736727
  grid = 15 15 15
  stencil order = 5
  estimated absolute RMS force accuracy = 0.0360063
  estimated relative force accuracy = 0.000108432
  using double precision KISS FFT
  3d grid and FFT values/proc = 1521 256
Per MPI rank memory allocation (min/avg/max) = 17.87 | 18.12 | 18.68 Mbytes
Step Temp E_pair E_mol TotEng Press 
      26    270.45585    67.948738    492.42086    927.18036   0.81472574 
    5026    276.32652    123.10673    685.20101    1183.0807   0.59377039 
Loop time of 3.1729 on 16 procs for 5000 steps with 456 atoms

Performance: 136.153 ns/day, 0.176 hours/ns, 1575.847 timesteps/s
95.1% CPU use with 16 MPI tasks x no OpenMP threads

MPI task timing breakdown:
Section |  min time  |  avg time  |  max time  |%varavg| %total
---------------------------------------------------------------
Pair    | 0.00051713 | 0.20629    | 1.1866     |  73.1 |  6.50
Bond    | 0.0010095  | 0.075097   | 0.38759    |  41.9 |  2.37
Kspace  | 1.3919     | 2.4386     | 2.6841     |  23.3 | 76.86
Neigh   | 0.053144   | 0.056      | 0.059257   |   0.9 |  1.76
Comm    | 0.0057821  | 0.12806    | 0.34423    |  36.6 |  4.04
Output  | 2.0981e-05 | 2.2084e-05 | 2.9087e-05 |   0.0 |  0.00
Modify  | 0.02868    | 0.25278    | 0.41956    |  33.2 |  7.97
Other   |            | 0.01608    |            |       |  0.51

Nlocal:    28.5 ave 221 max 0 min
Histogram: 12 1 0 1 0 1 0 0 0 1
Nghost:    78.875 ave 303 max 0 min
Histogram: 8 0 2 1 2 0 1 1 0 1
Neighs:    1242.5 ave 9487 max 0 min
Histogram: 12 0 2 0 0 1 0 0 0 1

Total # of neighbors = 19880
Ave neighs/atom = 43.5965
Ave special neighs/atom = 11.5351
Neighbor list builds = 152
Dangerous builds = 0
unfix pysimm_md
write_dump all custom pysimm.dump.tmp id q x y z vx vy vz
quit


################################################################################
##################################    Init    ##################################
################################################################################
units           real
atom_style      full
pair_style      lj/cut/coul/long 12.0  12.0
kspace_style    pppm 1e-4
bond_style      harmonic
angle_style     harmonic
dihedral_style  fourier
improper_style  cvff
special_bonds   amber
pair_modify     mix arithmetic
read_data       temp.lmps
  orthogonal box = (-60.9156 -60.9156 -60.9156) to (60.9156 60.9156 60.9156)
  2 by 2 by 4 MPI processor grid
  reading atoms ...
  522 atoms
  reading velocities ...
  522 velocities
  scanning bonds ...
  4 = max bonds/atom
  scanning angles ...
  6 = max angles/atom
  scanning dihedrals ...
  24 = max dihedrals/atom
  scanning impropers ...
  2 = max impropers/atom
  reading bonds ...
  570 bonds
  reading angles ...
  1018 angles
  reading dihedrals ...
  1611 dihedrals
  reading impropers ...
  147 impropers
  4 = max # of 1-2 neighbors
  11 = max # of 1-3 neighbors
  23 = max # of 1-4 neighbors
  23 = max # of special neighbors
  special bonds CPU = 0.00139189 secs
  read_data CPU = 0.02088 secs
################################################################################

min_style cg
minimize 1e-05 1e-05 10000 100000
WARNING: Using 'neigh_modify every 1 delay 0 check yes' setting during minimization (../min.cpp:190)
PPPM initialization ...
WARNING: System is not charge neutral, net charge = -1.4e-05 (../kspace.cpp:313)
  using 12-bit tables for long-range coulomb (../kspace.cpp:332)
  G vector (1/distance) = 0.122232
  grid = 15 15 15
  stencil order = 5
  estimated absolute RMS force accuracy = 0.0277283
  estimated relative force accuracy = 8.35029e-05
  using double precision KISS FFT
  3d grid and FFT values/proc = 1521 256
Neighbor list info ...
  update every 1 steps, delay 0 steps, check yes
  max neighbors/atom: 2000, page size: 100000
  master list distance cutoff = 14
  ghost atom cutoff = 14
  binsize = 7, bins = 18 18 18
  1 neighbor lists, perpetual/occasional/extra = 1 0 0
  (1) pair lj/cut/coul/long, perpetual
      attributes: half, newton on
      pair build: half/bin/newton
      stencil: half/bin/3d/newton
      bin: standard
Per MPI rank memory allocation (min/avg/max) = 18.97 | 19.27 | 19.79 Mbytes
Step Temp E_pair E_mol TotEng Press 
       0    557.59098    127.55389    571.02498    1564.5188      18.9996 
      24    557.59098    124.11661    561.82117    1551.8777    18.413241 
Loop time of 0.119615 on 16 procs for 24 steps with 522 atoms

96.5% CPU use with 16 MPI tasks x no OpenMP threads

Minimization stats:
  Stopping criterion = linesearch alpha is zero
  Energy initial, next-to-last, final = 
         698.578864709      685.937781871      685.937781871
  Force two-norm initial, final = 40.9473 27.8866
  Force max component initial, final = 6.50431 4.38295
  Final line search alpha, max atom move = 1.25711e-11 5.50986e-11
  Iterations, force evaluations = 24 105

MPI task timing breakdown:
Section |  min time  |  avg time  |  max time  |%varavg| %total
---------------------------------------------------------------
Pair    | 2.0981e-05 | 0.015308   | 0.054664   |  14.4 | 12.80
Bond    | 4.2677e-05 | 0.0035737  | 0.013337   |   6.8 |  2.99
Kspace  | 0.045798   | 0.095715   | 0.11564    |   7.2 | 80.02
Neigh   | 0          | 0          | 0          |   0.0 |  0.00
Comm    | 6.1989e-05 | 0.0020568  | 0.004154   |   3.4 |  1.72
Output  | 0          | 0          | 0          |   0.0 |  0.00
Modify  | 0          | 0          | 0          |   0.0 |  0.00
Other   |            | 0.002962   |            |       |  2.48

Nlocal:    32.625 ave 119 max 0 min
Histogram: 8 0 0 3 0 2 1 1 0 1
Nghost:    186.125 ave 398 max 0 min
Histogram: 8 0 0 0 0 0 0 1 1 6
Neighs:    1948.19 ave 6299 max 0 min
Histogram: 8 0 1 1 1 2 1 0 0 2

Total # of neighbors = 31171
Ave neighs/atom = 59.7146
Ave special neighs/atom = 11.5326
Neighbor list builds = 0
Dangerous builds = 0
timestep        1
fix             pysimm_md all nvt temp 300 300 100
run             5000
PPPM initialization ...
  using 12-bit tables for long-range coulomb (../kspace.cpp:332)
  G vector (1/distance) = 0.122232
  grid = 15 15 15
  stencil order = 5
  estimated absolute RMS force accuracy = 0.0277283
  estimated relative force accuracy = 8.35029e-05
  using double precision KISS FFT
  3d grid and FFT values/proc = 1521 256
Per MPI rank memory allocation (min/avg/max) = 17.85 | 18.15 | 18.66 Mbytes
Step Temp E_pair E_mol TotEng Press 
      24    557.59098    124.11661    561.82117    1551.8777    18.413241 
    5024     327.1179    110.82684    801.25586    1420.0975    13.953284 
Loop time of 3.974 on 16 procs for 5000 steps with 522 atoms

Performance: 108.707 ns/day, 0.221 hours/ns, 1258.178 timesteps/s
94.8% CPU use with 16 MPI tasks x no OpenMP threads

MPI task timing breakdown:
Section |  min time  |  avg time  |  max time  |%varavg| %total
---------------------------------------------------------------
Pair    | 0.00057077 | 0.34125    | 1.7148     |  82.2 |  8.59
Bond    | 0.0010076  | 0.090312   | 0.35585    |  37.3 |  2.27
Kspace  | 1.6072     | 3.0405     | 3.4194     |  29.1 | 76.51
Neigh   | 0.061705   | 0.063662   | 0.065818   |   0.5 |  1.60
Comm    | 0.029656   | 0.17619    | 0.33621    |  26.4 |  4.43
Output  | 2.1935e-05 | 2.2486e-05 | 2.8849e-05 |   0.0 |  0.00
Modify  | 0.033683   | 0.24335    | 0.44152    |  33.3 |  6.12
Other   |            | 0.0187     |            |       |  0.47

Nlocal:    32.625 ave 201 max 0 min
Histogram: 12 1 0 0 1 0 0 0 0 2
Nghost:    141.5 ave 348 max 0 min
Histogram: 6 2 0 0 0 1 2 1 3 1
Neighs:    2769.31 ave 19315 max 0 min
Histogram: 12 1 0 1 0 0 0 0 1 1

Total # of neighbors = 44309
Ave neighs/atom = 84.8831
Ave special neighs/atom = 11.5326
Neighbor list builds = 124
Dangerous builds = 0
unfix pysimm_md
write_dump all custom pysimm.dump.tmp id q x y z vx vy vz
quit


################################################################################
##################################    Init    ##################################
################################################################################
units           real
atom_style      full
pair_style      lj/cut/coul/long 12.0  12.0
kspace_style    pppm 1e-4
bond_style      harmonic
angle_style     harmonic
dihedral_style  fourier
improper_style  cvff
special_bonds   amber
pair_modify     mix arithmetic
read_data       temp.lmps
  orthogonal box = (-127.347 -127.347 -127.347) to (127.347 127.347 127.347)
  2 by 2 by 4 MPI processor grid
  reading atoms ...
  588 atoms
  reading velocities ...
  588 velocities
  scanning bonds ...
  4 = max bonds/atom
  scanning angles ...
  6 = max angles/atom
  scanning dihedrals ...
  24 = max dihedrals/atom
  scanning impropers ...
  2 = max impropers/atom
  reading bonds ...
  643 bonds
  reading angles ...
  1147 angles
  reading dihedrals ...
  1818 dihedrals
  reading impropers ...
  168 impropers
  4 = max # of 1-2 neighbors
  11 = max # of 1-3 neighbors
  23 = max # of 1-4 neighbors
  23 = max # of special neighbors
  special bonds CPU = 0.000948906 secs
  read_data CPU = 0.0201159 secs
################################################################################

min_style cg
minimize 1e-05 1e-05 10000 100000
WARNING: Using 'neigh_modify every 1 delay 0 check yes' setting during minimization (../min.cpp:190)
PPPM initialization ...
WARNING: System is not charge neutral, net charge = -1.6e-05 (../kspace.cpp:313)
  using 12-bit tables for long-range coulomb (../kspace.cpp:332)
  G vector (1/distance) = 0.0825042
  grid = 18 18 18
  stencil order = 5
  estimated absolute RMS force accuracy = 0.0312585
  estimated relative force accuracy = 9.4134e-05
  using double precision KISS FFT
  3d grid and FFT values/proc = 1960 648
Neighbor list info ...
  update every 1 steps, delay 0 steps, check yes
  max neighbors/atom: 2000, page size: 100000
  master list distance cutoff = 14
  ghost atom cutoff = 14
  binsize = 7, bins = 37 37 37
  1 neighbor lists, perpetual/occasional/extra = 1 0 0
  (1) pair lj/cut/coul/long, perpetual
      attributes: half, newton on
      pair build: half/bin/newton
      stencil: half/bin/3d/newton
      bin: standard
Per MPI rank memory allocation (min/avg/max) = 19.04 | 19.28 | 19.85 Mbytes
Step Temp E_pair E_mol TotEng Press 
       0    841.34592    172.14396     730.5936    2374.8704    3.6209366 
      30    841.34592    152.02439    706.19521    2330.3524    3.3304737 
Loop time of 0.32966 on 16 procs for 30 steps with 588 atoms

95.0% CPU use with 16 MPI tasks x no OpenMP threads

Minimization stats:
  Stopping criterion = linesearch alpha is zero
  Energy initial, next-to-last, final = 
         902.737553839      858.219606653      858.219606653
  Force two-norm initial, final = 56.4241 44.6088
  Force max component initial, final = 9.33359 5.76447
  Final line search alpha, max atom move = 3.66046e-12 2.11006e-11
  Iterations, force evaluations = 30 179

MPI task timing breakdown:
Section |  min time  |  avg time  |  max time  |%varavg| %total
---------------------------------------------------------------
Pair    | 2.1458e-05 | 0.035232   | 0.17862    |  32.4 | 10.69
Bond    | 8.297e-05  | 0.0070204  | 0.032336   |  12.6 |  2.13
Kspace  | 0.11821    | 0.28078    | 0.32419    |  13.5 | 85.17
Neigh   | 0          | 0          | 0          |   0.0 |  0.00
Comm    | 6.8188e-05 | 0.0025568  | 0.0054607  |   4.8 |  0.78
Output  | 0          | 0          | 0          |   0.0 |  0.00
Modify  | 0          | 0          | 0          |   0.0 |  0.00
Other   |            | 0.004072   |            |       |  1.24

Nlocal:    36.75 ave 171 max 0 min
Histogram: 11 0 1 0 0 1 1 0 1 1
Nghost:    165.25 ave 435 max 0 min
Histogram: 8 0 0 0 1 2 0 0 3 2
Neighs:    2517.12 ave 13272 max 0 min
Histogram: 11 1 1 0 0 0 1 0 0 2

Total # of neighbors = 40274
Ave neighs/atom = 68.4932
Ave special neighs/atom = 11.5374
Neighbor list builds = 0
Dangerous builds = 0
timestep        1
fix             pysimm_md all nvt temp 300 300 100
run             5000
PPPM initialization ...
  using 12-bit tables for long-range coulomb (../kspace.cpp:332)
  G vector (1/distance) = 0.0825042
  grid = 18 18 18
  stencil order = 5
  estimated absolute RMS force accuracy = 0.0312585
  estimated relative force accuracy = 9.4134e-05
  using double precision KISS FFT
  3d grid and FFT values/proc = 1960 648
Per MPI rank memory allocation (min/avg/max) = 17.91 | 18.16 | 18.72 Mbytes
Step Temp E_pair E_mol TotEng Press 
      30    841.34592    152.02439    706.19521    2330.3524    3.3304737 
    5030    307.76426    153.11246     871.9681    1563.5866  -0.61581153 
Loop time of 4.97086 on 16 procs for 5000 steps with 588 atoms

Performance: 86.907 ns/day, 0.276 hours/ns, 1005.863 timesteps/s
94.6% CPU use with 16 MPI tasks x no OpenMP threads

MPI task timing breakdown:
Section |  min time  |  avg time  |  max time  |%varavg| %total
---------------------------------------------------------------
Pair    | 0.00051713 | 0.30685    | 2.1824     | 113.7 |  6.17
Bond    | 0.00096297 | 0.088113   | 0.5567     |  55.6 |  1.77
Kspace  | 1.9805     | 3.9854     | 4.347      |  34.0 | 80.17
Neigh   | 0.095769   | 0.098114   | 0.10103    |   0.6 |  1.97
Comm    | 0.0054712  | 0.16151    | 0.51005    |  44.6 |  3.25
Output  | 2.1935e-05 | 2.3648e-05 | 3.0994e-05 |   0.0 |  0.00
Modify  | 0.042645   | 0.31052    | 0.51456    |  36.9 |  6.25
Other   |            | 0.02035    |            |       |  0.41

Nlocal:    36.75 ave 316 max 0 min
Histogram: 12 1 1 0 1 0 0 0 0 1
Nghost:    85.3125 ave 377 max 0 min
Histogram: 9 1 1 1 0 1 1 1 0 1
Neighs:    2656.88 ave 27554 max 0 min
Histogram: 13 1 0 1 0 0 0 0 0 1

Total # of neighbors = 42510
Ave neighs/atom = 72.2959
Ave special neighs/atom = 11.5374
Neighbor list builds = 146
Dangerous builds = 0
unfix pysimm_md
write_dump all custom pysimm.dump.tmp id q x y z vx vy vz
quit


################################################################################
##################################    Init    ##################################
################################################################################
units           real
atom_style      full
pair_style      lj/cut/coul/long 12.0  12.0
kspace_style    pppm 1e-4
bond_style      harmonic
angle_style     harmonic
dihedral_style  fourier
improper_style  cvff
special_bonds   amber
pair_modify     mix arithmetic
read_data       temp.lmps
  orthogonal box = (-63.2165 -63.2165 -63.2165) to (63.2165 63.2165 63.2165)
  2 by 2 by 4 MPI processor grid
  reading atoms ...
  774 atoms
  reading velocities ...
  774 velocities
  scanning bonds ...
  4 = max bonds/atom
  scanning angles ...
  6 = max angles/atom
  scanning dihedrals ...
  24 = max dihedrals/atom
  scanning impropers ...
  2 = max impropers/atom
  reading bonds ...
  850 bonds
  reading angles ...
  1510 angles
  reading dihedrals ...
  2403 dihedrals
  reading impropers ...
  231 impropers
  4 = max # of 1-2 neighbors
  11 = max # of 1-3 neighbors
  23 = max # of 1-4 neighbors
  23 = max # of special neighbors
  special bonds CPU = 0.00101185 secs
  read_data CPU = 0.02354 secs
################################################################################

min_style cg
minimize 1e-05 1e-05 10000 100000
WARNING: Using 'neigh_modify every 1 delay 0 check yes' setting during minimization (../min.cpp:190)
PPPM initialization ...
WARNING: System is not charge neutral, net charge = -2.2e-05 (../kspace.cpp:313)
  using 12-bit tables for long-range coulomb (../kspace.cpp:332)
  G vector (1/distance) = 0.119368
  grid = 15 15 15
  stencil order = 5
  estimated absolute RMS force accuracy = 0.0345863
  estimated relative force accuracy = 0.000104156
  using double precision KISS FFT
  3d grid and FFT values/proc = 1521 256
Neighbor list info ...
  update every 1 steps, delay 0 steps, check yes
  max neighbors/atom: 2000, page size: 100000
  master list distance cutoff = 14
  ghost atom cutoff = 14
  binsize = 7, bins = 19 19 19
  1 neighbor lists, perpetual/occasional/extra = 1 0 0
  (1) pair lj/cut/coul/long, perpetual
      attributes: half, newton on
      pair build: half/bin/newton
      stencil: half/bin/3d/newton
      bin: standard
Per MPI rank memory allocation (min/avg/max) = 18.98 | 19.27 | 19.8 Mbytes
Step Temp E_pair E_mol TotEng Press 
       0    632.80812    350.02104    914.73328    2722.8494    27.948512 
      83    632.80812    337.26866    845.21282    2640.5765    32.753369 
Loop time of 0.475299 on 16 procs for 83 steps with 774 atoms

94.4% CPU use with 16 MPI tasks x no OpenMP threads

Minimization stats:
  Stopping criterion = linesearch alpha is zero
  Energy initial, next-to-last, final = 
         1264.75432133      1182.48148544      1182.48148544
  Force two-norm initial, final = 51.1605 31.6944
  Force max component initial, final = 6.29128 3.45704
  Final line search alpha, max atom move = 8.46344e-12 2.92584e-11
  Iterations, force evaluations = 83 223

MPI task timing breakdown:
Section |  min time  |  avg time  |  max time  |%varavg| %total
---------------------------------------------------------------
Pair    | 3.1233e-05 | 0.056276   | 0.27885    |  34.2 | 11.84
Bond    | 0.00010157 | 0.011648   | 0.052744   |  14.4 |  2.45
Kspace  | 0.12987    | 0.39435    | 0.46294    |  15.4 | 82.97
Neigh   | 0.001076   | 0.0011329  | 0.0011849  |   0.1 |  0.24
Comm    | 0.0024481  | 0.0051634  | 0.0086238  |   3.4 |  1.09
Output  | 0          | 0          | 0          |   0.0 |  0.00
Modify  | 0          | 0          | 0          |   0.0 |  0.00
Other   |            | 0.006728   |            |       |  1.42

Nlocal:    48.375 ave 223 max 0 min
Histogram: 9 1 1 1 2 0 1 0 0 1
Nghost:    207.062 ave 452 max 10 min
Histogram: 8 0 0 0 0 0 0 1 3 4
Neighs:    3229.56 ave 15637 max 0 min
Histogram: 9 0 3 2 0 0 0 0 1 1

Total # of neighbors = 51673
Ave neighs/atom = 66.761
Ave special neighs/atom = 11.5401
Neighbor list builds = 1
Dangerous builds = 0
timestep        1
fix             pysimm_md all nvt temp 300 300 100
run             5000
PPPM initialization ...
  using 12-bit tables for long-range coulomb (../kspace.cpp:332)
  G vector (1/distance) = 0.119368
  grid = 15 15 15
  stencil order = 5
  estimated absolute RMS force accuracy = 0.0345863
  estimated relative force accuracy = 0.000104156
  using double precision KISS FFT
  3d grid and FFT values/proc = 1521 256
Per MPI rank memory allocation (min/avg/max) = 17.86 | 18.14 | 18.67 Mbytes
Step Temp E_pair E_mol TotEng Press 
      83    632.80812    337.26866    845.21282    2640.5765    32.753369 
    5083    297.04731     319.7146    1260.6235    2264.7844    7.1495195 
Loop time of 4.58283 on 16 procs for 5000 steps with 774 atoms

Performance: 94.265 ns/day, 0.255 hours/ns, 1091.030 timesteps/s
94.8% CPU use with 16 MPI tasks x no OpenMP threads

MPI task timing breakdown:
Section |  min time  |  avg time  |  max time  |%varavg| %total
---------------------------------------------------------------
Pair    | 0.00048327 | 0.45715    | 2.4474     |  94.7 |  9.98
Bond    | 0.00088525 | 0.11801    | 0.44209    |  44.0 |  2.57
Kspace  | 1.3943     | 3.447      | 3.9362     |  36.1 | 75.22
Neigh   | 0.10384    | 0.10621    | 0.10905    |   0.5 |  2.32
Comm    | 0.035707   | 0.185      | 0.43148    |  35.1 |  4.04
Output  | 2.1219e-05 | 2.183e-05  | 2.9087e-05 |   0.0 |  0.00
Modify  | 0.031586   | 0.25239    | 0.48627    |  42.6 |  5.51
Other   |            | 0.01703    |            |       |  0.37

Nlocal:    48.375 ave 206 max 0 min
Histogram: 7 3 2 1 0 0 1 0 1 1
Nghost:    199.25 ave 527 max 0 min
Histogram: 5 3 0 0 1 1 3 2 0 1
Neighs:    3870.88 ave 17050 max 0 min
Histogram: 8 2 2 1 0 1 0 0 1 1

Total # of neighbors = 61934
Ave neighs/atom = 80.0181
Ave special neighs/atom = 11.5401
Neighbor list builds = 146
Dangerous builds = 0
unfix pysimm_md
write_dump all custom pysimm.dump.tmp id q x y z vx vy vz
quit


################################################################################
##################################    Init    ##################################
################################################################################
units           real
atom_style      full
pair_style      lj/cut/coul/long 12.0  12.0
kspace_style    pppm 1e-4
bond_style      harmonic
angle_style     harmonic
dihedral_style  fourier
improper_style  cvff
special_bonds   amber
pair_modify     mix arithmetic
read_data       temp.lmps
  orthogonal box = (-64.3067 -64.3067 -64.3067) to (64.3067 64.3067 64.3067)
  2 by 2 by 4 MPI processor grid
  reading atoms ...
  780 atoms
  reading velocities ...
  780 velocities
  scanning bonds ...
  4 = max bonds/atom
  scanning angles ...
  6 = max angles/atom
  scanning dihedrals ...
  24 = max dihedrals/atom
  scanning impropers ...
  2 = max impropers/atom
  reading bonds ...
  856 bonds
  reading angles ...
  1521 angles
  reading dihedrals ...
  2418 dihedrals
  reading impropers ...
  231 impropers
  4 = max # of 1-2 neighbors
  11 = max # of 1-3 neighbors
  23 = max # of 1-4 neighbors
  23 = max # of special neighbors
  special bonds CPU = 0.00105309 secs
  read_data CPU = 0.02338 secs
################################################################################

min_style cg
minimize 1e-05 1e-05 10000 100000
WARNING: Using 'neigh_modify every 1 delay 0 check yes' setting during minimization (../min.cpp:190)
PPPM initialization ...
WARNING: System is not charge neutral, net charge = -2.2e-05 (../kspace.cpp:313)
  using 12-bit tables for long-range coulomb (../kspace.cpp:332)
  G vector (1/distance) = 0.118054
  grid = 15 15 15
  stencil order = 5
  estimated absolute RMS force accuracy = 0.0354927
  estimated relative force accuracy = 0.000106885
  using double precision KISS FFT
  3d grid and FFT values/proc = 1521 256
Neighbor list info ...
  update every 1 steps, delay 0 steps, check yes
  max neighbors/atom: 2000, page size: 100000
  master list distance cutoff = 14
  ghost atom cutoff = 14
  binsize = 7, bins = 19 19 19
  1 neighbor lists, perpetual/occasional/extra = 1 0 0
  (1) pair lj/cut/coul/long, perpetual
      attributes: half, newton on
      pair build: half/bin/newton
      stencil: half/bin/3d/newton
      bin: standard
Per MPI rank memory allocation (min/avg/max) = 18.98 | 19.24 | 19.8 Mbytes
Step Temp E_pair E_mol TotEng Press 
       0     958.7904    305.96766    968.12979    3500.4577    46.640745 
     129     958.7904    280.50598    863.97866    3370.8449    44.956816 
Loop time of 0.776053 on 16 procs for 129 steps with 780 atoms

94.0% CPU use with 16 MPI tasks x no OpenMP threads

Minimization stats:
  Stopping criterion = linesearch alpha is zero
  Energy initial, next-to-last, final = 
         1274.09745177      1144.48463833      1144.48463833
  Force two-norm initial, final = 53.7813 36.9773
  Force max component initial, final = 7.30559 6.92139
  Final line search alpha, max atom move = 8.42128e-12 5.8287e-11
  Iterations, force evaluations = 129 313

MPI task timing breakdown:
Section |  min time  |  avg time  |  max time  |%varavg| %total
---------------------------------------------------------------
Pair    | 6.1035e-05 | 0.076674   | 0.5296     |  49.7 |  9.88
Bond    | 0.00014019 | 0.013651   | 0.066102   |  15.8 |  1.76
Kspace  | 0.15741    | 0.663      | 0.75423    |  19.1 | 85.43
Neigh   | 0.0062289  | 0.0063516  | 0.0064514  |   0.1 |  0.82
Comm    | 0.0037792  | 0.0077244  | 0.011948   |   3.2 |  1.00
Output  | 0          | 0          | 0          |   0.0 |  0.00
Modify  | 0          | 0          | 0          |   0.0 |  0.00
Other   |            | 0.008655   |            |       |  1.12

Nlocal:    48.75 ave 239 max 0 min
Histogram: 8 3 1 1 1 0 0 1 0 1
Nghost:    252.438 ave 589 max 26 min
Histogram: 4 4 0 1 0 0 2 2 1 2
Neighs:    3638.94 ave 25636 max 0 min
Histogram: 10 3 1 0 0 0 1 0 0 1

Total # of neighbors = 58223
Ave neighs/atom = 74.6449
Ave special neighs/atom = 11.5333
Neighbor list builds = 5
Dangerous builds = 0
timestep        1
fix             pysimm_md all nvt temp 300 300 100
run             5000
PPPM initialization ...
  using 12-bit tables for long-range coulomb (../kspace.cpp:332)
  G vector (1/distance) = 0.118054
  grid = 15 15 15
  stencil order = 5
  estimated absolute RMS force accuracy = 0.0354927
  estimated relative force accuracy = 0.000106885
  using double precision KISS FFT
  3d grid and FFT values/proc = 1521 256
Per MPI rank memory allocation (min/avg/max) = 17.86 | 18.12 | 18.68 Mbytes
Step Temp E_pair E_mol TotEng Press 
     129     958.7904    280.50598    863.97866    3370.8449    44.956816 
    5129     288.6591    340.55654    1210.0693     2220.907    10.591281 
Loop time of 4.78103 on 16 procs for 5000 steps with 780 atoms

Performance: 90.357 ns/day, 0.266 hours/ns, 1045.800 timesteps/s
94.5% CPU use with 16 MPI tasks x no OpenMP threads

MPI task timing breakdown:
Section |  min time  |  avg time  |  max time  |%varavg| %total
---------------------------------------------------------------
Pair    | 0.00053    | 0.39665    | 2.4168     | 106.4 |  8.30
Bond    | 0.00083971 | 0.11247    | 0.48302    |  46.3 |  2.35
Kspace  | 1.5782     | 3.668      | 4.0987     |  36.7 | 76.72
Neigh   | 0.092697   | 0.094192   | 0.095492   |   0.2 |  1.97
Comm    | 0.028396   | 0.22518    | 0.43096    |  28.1 |  4.71
Output  | 2.3127e-05 | 2.3916e-05 | 3.0041e-05 |   0.0 |  0.00
Modify  | 0.038942   | 0.26431    | 0.54073    |  35.4 |  5.53
Other   |            | 0.02017    |            |       |  0.42

Nlocal:    48.75 ave 303 max 0 min
Histogram: 12 0 1 0 1 0 1 0 0 1
Nghost:    161.812 ave 536 max 0 min
Histogram: 4 2 4 1 2 0 2 0 0 1
Neighs:    2879 ave 17141 max 0 min
Histogram: 12 1 0 0 0 0 1 0 1 1

Total # of neighbors = 46064
Ave neighs/atom = 59.0564
Ave special neighs/atom = 11.5333
Neighbor list builds = 139
Dangerous builds = 0
unfix pysimm_md
write_dump all custom pysimm.dump.tmp id q x y z vx vy vz
quit


################################################################################
##################################    Init    ##################################
################################################################################
units           real
atom_style      full
pair_style      lj/cut/coul/long 12.0  12.0
kspace_style    pppm 1e-4
bond_style      harmonic
angle_style     harmonic
dihedral_style  fourier
improper_style  cvff
special_bonds   amber
pair_modify     mix arithmetic
read_data       temp.lmps
  orthogonal box = (-65.361 -65.361 -65.361) to (65.361 65.361 65.361)
  2 by 2 by 4 MPI processor grid
  reading atoms ...
  846 atoms
  reading velocities ...
  846 velocities
  scanning bonds ...
  4 = max bonds/atom
  scanning angles ...
  6 = max angles/atom
  scanning dihedrals ...
  24 = max dihedrals/atom
  scanning impropers ...
  2 = max impropers/atom
  reading bonds ...
  929 bonds
  reading angles ...
  1651 angles
  reading dihedrals ...
  2628 dihedrals
  reading impropers ...
  252 impropers
  4 = max # of 1-2 neighbors
  11 = max # of 1-3 neighbors
  23 = max # of 1-4 neighbors
  23 = max # of special neighbors
  special bonds CPU = 0.00155401 secs
  read_data CPU = 0.0264258 secs
################################################################################

min_style cg
minimize 1e-05 1e-05 10000 100000
WARNING: Using 'neigh_modify every 1 delay 0 check yes' setting during minimization (../min.cpp:190)
PPPM initialization ...
WARNING: System is not charge neutral, net charge = -2.4e-05 (../kspace.cpp:313)
  using 12-bit tables for long-range coulomb (../kspace.cpp:332)
  G vector (1/distance) = 0.116809
  grid = 15 15 15
  stencil order = 5
  estimated absolute RMS force accuracy = 0.0375467
  estimated relative force accuracy = 0.000113071
  using double precision KISS FFT
  3d grid and FFT values/proc = 1521 256
Neighbor list info ...
  update every 1 steps, delay 0 steps, check yes
  max neighbors/atom: 2000, page size: 100000
  master list distance cutoff = 14
  ghost atom cutoff = 14
  binsize = 7, bins = 19 19 19
  1 neighbor lists, perpetual/occasional/extra = 1 0 0
  (1) pair lj/cut/coul/long, perpetual
      attributes: half, newton on
      pair build: half/bin/newton
      stencil: half/bin/3d/newton
      bin: standard
Per MPI rank memory allocation (min/avg/max) = 18.99 | 19.25 | 19.79 Mbytes
Step Temp E_pair E_mol TotEng Press 
       0    829.87248    395.87851     1045.347    3531.4955    39.650396 
     132    829.87248    376.74487    948.14685    3415.1616    42.251799 
Loop time of 0.648927 on 16 procs for 132 steps with 846 atoms

94.5% CPU use with 16 MPI tasks x no OpenMP threads

Minimization stats:
  Stopping criterion = linesearch alpha is zero
  Energy initial, next-to-last, final = 
          1441.2255186      1324.89171334      1324.89171334
  Force two-norm initial, final = 54.937 24.5745
  Force max component initial, final = 6.25108 3.88167
  Final line search alpha, max atom move = 1.76073e-11 6.83458e-11
  Iterations, force evaluations = 132 319

MPI task timing breakdown:
Section |  min time  |  avg time  |  max time  |%varavg| %total
---------------------------------------------------------------
Pair    | 5.4836e-05 | 0.072209   | 0.39646    |  36.7 | 11.13
Bond    | 0.0001359  | 0.016054   | 0.067148   |  13.8 |  2.47
Kspace  | 0.16349    | 0.54027    | 0.62935    |  15.8 | 83.26
Neigh   | 0.004447   | 0.0045197  | 0.0045922  |   0.1 |  0.70
Comm    | 0.0059369  | 0.0077316  | 0.010896   |   1.6 |  1.19
Output  | 0          | 0          | 0          |   0.0 |  0.00
Modify  | 0          | 0          | 0          |   0.0 |  0.00
Other   |            | 0.008141   |            |       |  1.25

Nlocal:    52.875 ave 225 max 0 min
Histogram: 7 0 4 3 0 1 0 0 0 1
Nghost:    267.625 ave 454 max 100 min
Histogram: 1 1 3 0 5 0 3 1 1 1
Neighs:    3158.12 ave 17548 max 0 min
Histogram: 7 6 0 1 1 0 0 0 0 1

Total # of neighbors = 50530
Ave neighs/atom = 59.7281
Ave special neighs/atom = 11.5461
Neighbor list builds = 4
Dangerous builds = 0
timestep        1
fix             pysimm_md all nvt temp 300 300 100
run             5000
PPPM initialization ...
  using 12-bit tables for long-range coulomb (../kspace.cpp:332)
  G vector (1/distance) = 0.116809
  grid = 15 15 15
  stencil order = 5
  estimated absolute RMS force accuracy = 0.0375467
  estimated relative force accuracy = 0.000113071
  using double precision KISS FFT
  3d grid and FFT values/proc = 1521 256
Per MPI rank memory allocation (min/avg/max) = 17.86 | 18.12 | 18.66 Mbytes
Step Temp E_pair E_mol TotEng Press 
     132    829.87248    376.74487    948.14685    3415.1616    42.251799 
    5132    287.02674    403.77568    1432.3683    2559.1025    -11.05388 
Loop time of 4.28968 on 16 procs for 5000 steps with 846 atoms

Performance: 100.707 ns/day, 0.238 hours/ns, 1165.587 timesteps/s
94.5% CPU use with 16 MPI tasks x no OpenMP threads

MPI task timing breakdown:
Section |  min time  |  avg time  |  max time  |%varavg| %total
---------------------------------------------------------------
Pair    | 0.00048923 | 0.37418    | 2.0157     |  87.1 |  8.72
Bond    | 0.00091958 | 0.12356    | 0.54292    |  43.4 |  2.88
Kspace  | 1.4788     | 3.2034     | 3.6051     |  31.5 | 74.68
Neigh   | 0.095578   | 0.096964   | 0.09797    |   0.2 |  2.26
Comm    | 0.065249   | 0.32223    | 0.51372    |  21.1 |  7.51
Output  | 2.1935e-05 | 2.2978e-05 | 3.0041e-05 |   0.0 |  0.00
Modify  | 0.026597   | 0.15024    | 0.35533    |  26.5 |  3.50
Other   |            | 0.01906    |            |       |  0.44

Nlocal:    52.875 ave 259 max 0 min
Histogram: 8 3 1 1 0 1 1 0 0 1
Nghost:    199.375 ave 530 max 51 min
Histogram: 3 2 1 7 2 0 0 0 0 1
Neighs:    2934.06 ave 18994 max 0 min
Histogram: 8 4 0 3 0 0 0 0 0 1

Total # of neighbors = 46945
Ave neighs/atom = 55.4905
Ave special neighs/atom = 11.5461
Neighbor list builds = 166
Dangerous builds = 0
unfix pysimm_md
write_dump all custom pysimm.dump.tmp id q x y z vx vy vz
quit


################################################################################
##################################    Init    ##################################
################################################################################
units           real
atom_style      full
pair_style      lj/cut/coul/long 12.0  12.0
kspace_style    pppm 1e-4
bond_style      harmonic
angle_style     harmonic
dihedral_style  fourier
improper_style  cvff
special_bonds   amber
pair_modify     mix arithmetic
read_data       temp.lmps
  orthogonal box = (-136.157 -136.157 -136.157) to (136.157 136.157 136.157)
  2 by 2 by 4 MPI processor grid
  reading atoms ...
  1032 atoms
  reading velocities ...
  1032 velocities
  scanning bonds ...
  4 = max bonds/atom
  scanning angles ...
  6 = max angles/atom
  scanning dihedrals ...
  24 = max dihedrals/atom
  scanning impropers ...
  2 = max impropers/atom
  reading bonds ...
  1136 bonds
  reading angles ...
  2014 angles
  reading dihedrals ...
  3212 dihedrals
  reading impropers ...
  315 impropers
  4 = max # of 1-2 neighbors
  11 = max # of 1-3 neighbors
  23 = max # of 1-4 neighbors
  23 = max # of special neighbors
  special bonds CPU = 0.000974894 secs
  read_data CPU = 0.02789 secs
################################################################################

min_style cg
minimize 1e-05 1e-05 10000 100000
WARNING: Using 'neigh_modify every 1 delay 0 check yes' setting during minimization (../min.cpp:190)
PPPM initialization ...
WARNING: System is not charge neutral, net charge = -3e-05 (../kspace.cpp:313)
  using 12-bit tables for long-range coulomb (../kspace.cpp:332)
[...]
PPPM initialization ...
  using 12-bit tables for long-range coulomb (../kspace.cpp:332)
  G vector (1/distance) = 0.118275
  grid = 20 20 20
  stencil order = 5
  estimated absolute RMS force accuracy = 0.0327028
  estimated relative force accuracy = 9.84834e-05
  using double precision KISS FFT
  3d grid and FFT values/proc = 2250 800
Per MPI rank memory allocation (min/avg/max) = 17.93 | 18.19 | 18.74 Mbytes
Step Temp E_pair E_mol TotEng Press 
     119    474.06364    435.00554    1622.5599    4235.1428    19.689764 
    5119    295.61846    518.31397    2244.2451    4120.4613    1.9860068 
Loop time of 9.26709 on 16 procs for 5000 steps with 1542 atoms

Performance: 46.617 ns/day, 0.515 hours/ns, 539.544 timesteps/s
91.8% CPU use with 16 MPI tasks x no OpenMP threads

MPI task timing breakdown:
Section |  min time  |  avg time  |  max time  |%varavg| %total
---------------------------------------------------------------
Pair    | 0.00050306 | 0.70565    | 5.173      | 150.1 |  7.61
Bond    | 0.00093579 | 0.20892    | 1.0215     |  59.8 |  2.25
Kspace  | 2.6299     | 7.2436     | 7.9983     |  48.6 | 78.17
Neigh   | 0.25389    | 0.25602    | 0.25731    |   0.2 |  2.76
Comm    | 0.052805   | 0.45433    | 0.85416    |  33.3 |  4.90
Output  | 2.3127e-05 | 2.3857e-05 | 3.0994e-05 |   0.0 |  0.00
Modify  | 0.054024   | 0.37177    | 0.93272    |  47.5 |  4.01
Other   |            | 0.02675    |            |       |  0.29

Nlocal:    96.375 ave 461 max 0 min
Histogram: 7 1 6 0 0 0 0 1 0 1
Nghost:    282.25 ave 787 max 6 min
Histogram: 1 2 4 4 2 1 1 0 0 1
Neighs:    5619.44 ave 38484 max 0 min
Histogram: 10 4 0 0 0 1 0 0 0 1

Total # of neighbors = 89911
Ave neighs/atom = 58.308
Ave special neighs/atom = 11.5759
Neighbor list builds = 184
Dangerous builds = 0
unfix pysimm_md
write_dump all custom pysimm.dump.tmp id q x y z vx vy vz
quit


################################################################################
##################################    Init    ##################################
################################################################################
units           real
atom_style      full
pair_style      lj/cut/coul/long 12.0  12.0
kspace_style    pppm 1e-4
bond_style      harmonic
angle_style     harmonic
dihedral_style  fourier
improper_style  cvff
special_bonds   amber
pair_modify     mix arithmetic
read_data       temp.lmps
  orthogonal box = (-86.098 -86.098 -86.098) to (86.098 86.098 86.098)
  2 by 2 by 4 MPI processor grid
  reading atoms ...
  1308 atoms
  reading velocities ...
  1308 velocities
  scanning bonds ...
  4 = max bonds/atom
  scanning angles ...
  6 = max angles/atom
  scanning dihedrals ...
  24 = max dihedrals/atom
  scanning impropers ...
  2 = max impropers/atom
  reading bonds ...
  1426 bonds
  reading angles ...
  2559 angles
  reading dihedrals ...
  4051 dihedrals
  reading impropers ...
  357 impropers
  4 = max # of 1-2 neighbors
  11 = max # of 1-3 neighbors
  23 = max # of 1-4 neighbors
  23 = max # of special neighbors
  special bonds CPU = 0.00156713 secs
  read_data CPU = 0.0335181 secs
################################################################################

min_style cg
minimize 1e-05 1e-05 10000 100000
WARNING: Using 'neigh_modify every 1 delay 0 check yes' setting during minimization (../min.cpp:190)
PPPM initialization ...
WARNING: System is not charge neutral, net charge = -3.4e-05 (../kspace.cpp:313)
  using 12-bit tables for long-range coulomb (../kspace.cpp:332)
  G vector (1/distance) = 0.117737
  grid = 20 20 20
  stencil order = 5
  estimated absolute RMS force accuracy = 0.0308222
  estimated relative force accuracy = 9.28203e-05
  using double precision KISS FFT
  3d grid and FFT values/proc = 2250 800
Neighbor list info ...
  update every 1 steps, delay 0 steps, check yes
  max neighbors/atom: 2000, page size: 100000
  master list distance cutoff = 14
  ghost atom cutoff = 14
  binsize = 7, bins = 25 25 25
  1 neighbor lists, perpetual/occasional/extra = 1 0 0
  (1) pair lj/cut/coul/long, perpetual
      attributes: half, newton on
      pair build: half/bin/newton
      stencil: half/bin/3d/newton
      bin: standard
Per MPI rank memory allocation (min/avg/max) = 19.05 | 19.28 | 19.86 Mbytes
Step Temp E_pair E_mol TotEng Press 
       0    370.37836    186.16316    1359.0648     2988.192    11.143364 
      15    370.37836     186.4693    1349.6946    2979.1279    12.222707 
Loop time of 0.285777 on 16 procs for 15 steps with 1308 atoms

94.4% CPU use with 16 MPI tasks x no OpenMP threads

Minimization stats:
  Stopping criterion = linesearch alpha is zero
  Energy initial, next-to-last, final = 
         1545.22799847        1536.163936        1536.163936
  Force two-norm initial, final = 53.157 34.4644
  Force max component initial, final = 9.66382 5.48504
  Final line search alpha, max atom move = 9.34006e-12 5.12306e-11
  Iterations, force evaluations = 15 87

MPI task timing breakdown:
Section |  min time  |  avg time  |  max time  |%varavg| %total
---------------------------------------------------------------
Pair    | 1.049e-05  | 0.032063   | 0.16577    |  28.6 | 11.22
Bond    | 3.7909e-05 | 0.0074665  | 0.032593   |  13.3 |  2.61
Kspace  | 0.082491   | 0.2417     | 0.28219    |  12.7 | 84.58
Neigh   | 0          | 0          | 0          |   0.0 |  0.00
Comm    | 6.4135e-05 | 0.001824   | 0.003396   |   2.6 |  0.64
Output  | 0          | 0          | 0          |   0.0 |  0.00
Modify  | 0          | 0          | 0          |   0.0 |  0.00
Other   |            | 0.002725   |            |       |  0.95

Nlocal:    81.75 ave 355 max 0 min
Histogram: 11 0 0 1 0 0 2 0 0 2
Nghost:    187.688 ave 454 max 0 min
Histogram: 8 0 0 0 0 1 2 1 1 3
Neighs:    4538.75 ave 23837 max 0 min
Histogram: 11 0 0 1 1 1 0 1 0 1

Total # of neighbors = 72620
Ave neighs/atom = 55.5199
Ave special neighs/atom = 11.5856
Neighbor list builds = 0
Dangerous builds = 0
timestep        1
fix             pysimm_md all nvt temp 300 300 100
run             5000
PPPM initialization ...
  using 12-bit tables for long-range coulomb (../kspace.cpp:332)
  G vector (1/distance) = 0.117737
  grid = 20 20 20
  stencil order = 5
  estimated absolute RMS force accuracy = 0.0308222
  estimated relative force accuracy = 9.28203e-05
  using double precision KISS FFT
  3d grid and FFT values/proc = 2250 800
Per MPI rank memory allocation (min/avg/max) = 17.92 | 18.15 | 18.74 Mbytes
Step Temp E_pair E_mol TotEng Press 
      15    370.37836     186.4693    1349.6946    2979.1279    12.222707 
    5015    295.36927    207.68171    1795.5574    3153.9738   0.63482821 
Loop time of 5.47847 on 16 procs for 5000 steps with 1308 atoms

Performance: 78.854 ns/day, 0.304 hours/ns, 912.664 timesteps/s
95.3% CPU use with 16 MPI tasks x no OpenMP threads

MPI task timing breakdown:
Section |  min time  |  avg time  |  max time  |%varavg| %total
---------------------------------------------------------------
Pair    | 0.00047565 | 0.56151    | 2.1748     | 100.6 | 10.25
Bond    | 0.00093532 | 0.18646    | 0.64506    |  55.7 |  3.40
Kspace  | 2.3536     | 4.0529     | 4.6784     |  39.8 | 73.98
Neigh   | 0.12637    | 0.13048    | 0.13402    |   0.5 |  2.38
Comm    | 0.016796   | 0.20041    | 0.57457    |  40.3 |  3.66
Output  | 2.3842e-05 | 2.4721e-05 | 3.314e-05  |   0.0 |  0.00
Modify  | 0.033796   | 0.32662    | 0.62954    |  47.9 |  5.96
Other   |            | 0.02008    |            |       |  0.37

Nlocal:    81.75 ave 287 max 0 min
Histogram: 9 1 0 1 0 1 0 0 3 1
Nghost:    254.5 ave 662 max 2 min
Histogram: 6 0 1 1 1 2 2 1 1 1
Neighs:    4188.88 ave 16617 max 0 min
Histogram: 10 0 0 1 1 0 1 2 0 1

Total # of neighbors = 67022
Ave neighs/atom = 51.2401
Ave special neighs/atom = 11.5856
Neighbor list builds = 189
Dangerous builds = 1
unfix pysimm_md
write_dump all custom pysimm.dump.tmp id q x y z vx vy vz
quit


################################################################################
##################################    Init    ##################################
################################################################################
units           real
atom_style      full
pair_style      lj/cut/coul/long 12.0  12.0
kspace_style    pppm 1e-4
bond_style      harmonic
angle_style     harmonic
dihedral_style  fourier
improper_style  cvff
special_bonds   amber
pair_modify     mix arithmetic
read_data       temp.lmps
  orthogonal box = (-177.813 -177.813 -177.813) to (177.813 177.813 177.813)
  2 by 2 by 4 MPI processor grid
  reading atoms ...
  2034 atoms
  reading velocities ...
  2034 velocities
  scanning bonds ...
  4 = max bonds/atom
  scanning angles ...
  6 = max angles/atom
  scanning dihedrals ...
  24 = max dihedrals/atom
  scanning impropers ...
  2 = max impropers/atom
  reading bonds ...
  2236 bonds
  reading angles ...
  3977 angles
  reading dihedrals ...
  6337 dihedrals
  reading impropers ...
  609 impropers
  4 = max # of 1-2 neighbors
  11 = max # of 1-3 neighbors
  23 = max # of 1-4 neighbors
  23 = max # of special neighbors
  special bonds CPU = 0.00136304 secs
  read_data CPU = 0.0429702 secs
################################################################################

min_style cg
minimize 1e-05 1e-05 10000 100000
WARNING: Using 'neigh_modify every 1 delay 0 check yes' setting during minimization (../min.cpp:190)
PPPM initialization ...
WARNING: System is not charge neutral, net charge = -5.8e-05 (../kspace.cpp:313)
  using 12-bit tables for long-range coulomb (../kspace.cpp:332)
  G vector (1/distance) = 0.0821658
  grid = 25 25 25
  stencil order = 5
  estimated absolute RMS force accuracy = 0.034949
  estimated relative force accuracy = 0.000105248
  using double precision KISS FFT
  3d grid and FFT values/proc = 3888 1250
Neighbor list info ...
  update every 1 steps, delay 0 steps, check yes
  max neighbors/atom: 2000, page size: 100000
  master list distance cutoff = 14
  ghost atom cutoff = 14
  binsize = 7, bins = 51 51 51
  1 neighbor lists, perpetual/occasional/extra = 1 0 0
  (1) pair lj/cut/coul/long, perpetual
      attributes: half, newton on
      pair build: half/bin/newton
      stencil: half/bin/3d/newton
      bin: standard
Per MPI rank memory allocation (min/avg/max) = 19.2 | 19.43 | 20.05 Mbytes
Step Temp E_pair E_mol TotEng Press 
       0    932.38869    929.16194    2310.0446    8889.4697    5.5245816 
      16    932.38869    926.55499    2282.0638     8858.882    5.5992402 
Loop time of 0.417254 on 16 procs for 16 steps with 2034 atoms

92.8% CPU use with 16 MPI tasks x no OpenMP threads

Minimization stats:
  Stopping criterion = linesearch alpha is zero
  Energy initial, next-to-last, final = 
         3239.20655668      3208.61883959      3208.61883959
  Force two-norm initial, final = 84.7551 60.4699
  Force max component initial, final = 10.7406 7.9153
  Final line search alpha, max atom move = 1.89382e-12 1.49902e-11
  Iterations, force evaluations = 16 93

MPI task timing breakdown:
Section |  min time  |  avg time  |  max time  |%varavg| %total
---------------------------------------------------------------
Pair    | 1.1683e-05 | 0.043985   | 0.21923    |  33.5 | 10.54
Bond    | 3.8147e-05 | 0.011031   | 0.053344   |  15.8 |  2.64
Kspace  | 0.13998    | 0.35828    | 0.41375    |  14.6 | 85.87
Neigh   | 0          | 0          | 0          |   0.0 |  0.00
Comm    | 4.4584e-05 | 0.00095457 | 0.0022964  |   0.0 |  0.23
Output  | 0          | 0          | 0          |   0.0 |  0.00
Modify  | 0          | 0          | 0          |   0.0 |  0.00
Other   |            | 0.003      |            |       |  0.72

Nlocal:    127.125 ave 645 max 0 min
Histogram: 9 2 2 0 1 0 0 0 1 1
Nghost:    106.062 ave 448 max 0 min
Histogram: 8 1 1 0 4 0 1 0 0 1
Neighs:    6389.56 ave 33968 max 0 min
Histogram: 9 2 2 1 0 0 0 0 0 2

Total # of neighbors = 102233
Ave neighs/atom = 50.262
Ave special neighs/atom = 11.5703
Neighbor list builds = 0
Dangerous builds = 0
timestep        1
fix             pysimm_md all nvt temp 300 300 100
run             5000
PPPM initialization ...
  using 12-bit tables for long-range coulomb (../kspace.cpp:332)
  G vector (1/distance) = 0.0821658
  grid = 25 25 25
  stencil order = 5
  estimated absolute RMS force accuracy = 0.034949
  estimated relative force accuracy = 0.000105248
  using double precision KISS FFT
  3d grid and FFT values/proc = 3888 1250
Per MPI rank memory allocation (min/avg/max) = 18.07 | 18.31 | 18.93 Mbytes
Step Temp E_pair E_mol TotEng Press 
      16    932.38869    926.55499    2282.0638     8858.882    5.5992402 
    5016    300.56134    957.00286    3048.0276    5826.4282 -0.00043856543 
Loop time of 10.1319 on 16 procs for 5000 steps with 2034 atoms

Performance: 42.637 ns/day, 0.563 hours/ns, 493.489 timesteps/s
92.6% CPU use with 16 MPI tasks x no OpenMP threads

MPI task timing breakdown:
Section |  min time  |  avg time  |  max time  |%varavg| %total
---------------------------------------------------------------
Pair    | 0.00047898 | 0.79206    | 4.1278     | 139.4 |  7.82
Bond    | 0.00097084 | 0.2838     | 1.4446     |  78.5 |  2.80
Kspace  | 4.0932     | 7.6537     | 8.5332     |  48.1 | 75.54
Neigh   | 0.29126    | 0.29583    | 0.30117    |   0.5 |  2.92
Comm    | 0.007473   | 0.33815    | 1.0916     |  70.9 |  3.34
Output  | 2.5034e-05 | 2.6882e-05 | 3.5048e-05 |   0.0 |  0.00
Modify  | 0.045182   | 0.74029    | 1.2831     |  62.4 |  7.31
Other   |            | 0.02804    |            |       |  0.28

Nlocal:    127.125 ave 758 max 0 min
Histogram: 8 6 0 0 0 0 1 0 0 1
Nghost:    112.562 ave 382 max 0 min
Histogram: 8 0 0 2 1 2 1 1 0 1
Neighs:    6335.44 ave 39306 max 0 min
Histogram: 8 6 0 0 0 0 0 1 0 1

Total # of neighbors = 101367
Ave neighs/atom = 49.8363
Ave special neighs/atom = 11.5703
Neighbor list builds = 234
Dangerous builds = 0
unfix pysimm_md
write_dump all custom pysimm.dump.tmp id q x y z vx vy vz
quit


################################################################################
##################################    Init    ##################################
################################################################################
units           real
atom_style      full
pair_style      lj/cut/coul/long 12.0  12.0
kspace_style    pppm 1e-4
bond_style      harmonic
angle_style     harmonic
dihedral_style  fourier
improper_style  cvff
special_bonds   amber
pair_modify     mix arithmetic
read_data       temp.lmps
  orthogonal box = (-87.2776 -87.2776 -87.2776) to (87.2776 87.2776 87.2776)
  2 by 2 by 4 MPI processor grid
  reading atoms ...
  2040 atoms
  reading velocities ...
  2040 velocities
  scanning bonds ...
  4 = max bonds/atom
  scanning angles ...
  6 = max angles/atom
  scanning dihedrals ...
  24 = max dihedrals/atom
  scanning impropers ...
  2 = max impropers/atom
  reading bonds ...
  2242 bonds
  reading angles ...
  3987 angles
  reading dihedrals ...
  6353 dihedrals
  reading impropers ...
  609 impropers
  4 = max # of 1-2 neighbors
  11 = max # of 1-3 neighbors
  23 = max # of 1-4 neighbors
  23 = max # of special neighbors
  special bonds CPU = 0.00180197 secs
  read_data CPU = 0.046037 secs
################################################################################

min_style cg
minimize 1e-05 1e-05 10000 100000
WARNING: Using 'neigh_modify every 1 delay 0 check yes' setting during minimization (../min.cpp:190)
PPPM initialization ...
WARNING: System is not charge neutral, net charge = -5.8e-05 (../kspace.cpp:313)
  using 12-bit tables for long-range coulomb (../kspace.cpp:332)
  G vector (1/distance) = 0.116696
  grid = 20 20 20
  stencil order = 5
  estimated absolute RMS force accuracy = 0.0379001
  estimated relative force accuracy = 0.000114135
  using double precision KISS FFT
  3d grid and FFT values/proc = 2250 800
Neighbor list info ...
  update every 1 steps, delay 0 steps, check yes
  max neighbors/atom: 2000, page size: 100000
  master list distance cutoff = 14
  ghost atom cutoff = 14
  binsize = 7, bins = 25 25 25
  1 neighbor lists, perpetual/occasional/extra = 1 0 0
  (1) pair lj/cut/coul/long, perpetual
      attributes: half, newton on
      pair build: half/bin/newton
      stencil: half/bin/3d/newton
      bin: standard
Per MPI rank memory allocation (min/avg/max) = 19.06 | 19.32 | 19.87 Mbytes
Step Temp E_pair E_mol TotEng Press 
       0    413.24576    1836.8919    4991.4877    9340.0343    15.373526 
      82    413.24576    1821.6109    4731.1407    9064.4062    17.513486 
Loop time of 0.979769 on 16 procs for 82 steps with 2040 atoms

94.0% CPU use with 16 MPI tasks x no OpenMP threads

Minimization stats:
  Stopping criterion = linesearch alpha is zero
  Energy initial, next-to-last, final = 
         6828.37958739      6552.75153565      6552.75153565
  Force two-norm initial, final = 265.788 43.3598
  Force max component initial, final = 82.9598 12.9155
  Final line search alpha, max atom move = 7.49492e-12 9.68006e-11
  Iterations, force evaluations = 82 222

MPI task timing breakdown:
Section |  min time  |  avg time  |  max time  |%varavg| %total
---------------------------------------------------------------
Pair    | 3.4571e-05 | 0.11197    | 0.65213    |  54.6 | 11.43
Bond    | 8.0824e-05 | 0.023159   | 0.098726   |  19.6 |  2.36
Kspace  | 0.21297    | 0.83038    | 0.96755    |  23.3 | 84.75
Neigh   | 0.0021691  | 0.0021984  | 0.0022311  |   0.0 |  0.22
Comm    | 0.00019169 | 0.0038755  | 0.0074306  |   3.8 |  0.40
Output  | 0          | 0          | 0          |   0.0 |  0.00
Modify  | 0          | 0          | 0          |   0.0 |  0.00
Other   |            | 0.008184   |            |       |  0.84

Nlocal:    127.5 ave 531 max 0 min
Histogram: 7 2 2 1 2 0 0 0 1 1
Nghost:    191.125 ave 476 max 0 min
Histogram: 5 1 1 2 1 0 1 2 2 1
Neighs:    8202.25 ave 47771 max 0 min
Histogram: 9 4 1 0 0 0 0 1 0 1

Total # of neighbors = 131236
Ave neighs/atom = 64.3314
Ave special neighs/atom = 11.5676
Neighbor list builds = 1
Dangerous builds = 0
timestep        1
fix             pysimm_md all nvt temp 300 300 100
run             5000
PPPM initialization ...
  using 12-bit tables for long-range coulomb (../kspace.cpp:332)
  G vector (1/distance) = 0.116696
  grid = 20 20 20
  stencil order = 5
  estimated absolute RMS force accuracy = 0.0379001
  estimated relative force accuracy = 0.000114135
  using double precision KISS FFT
  3d grid and FFT values/proc = 2250 800
Per MPI rank memory allocation (min/avg/max) = 17.93 | 18.19 | 18.74 Mbytes
Step Temp E_pair E_mol TotEng Press 
      82    413.24576    1821.6109    4731.1407    9064.4062    17.513486 
    5082    303.38549    1844.1652    5267.8214    8955.9246    3.8620432 
Loop time of 10.5171 on 16 procs for 5000 steps with 2040 atoms

Performance: 41.076 ns/day, 0.584 hours/ns, 475.418 timesteps/s
94.0% CPU use with 16 MPI tasks x no OpenMP threads

MPI task timing breakdown:
Section |  min time  |  avg time  |  max time  |%varavg| %total
---------------------------------------------------------------
Pair    | 0.00048041 | 0.95275    | 5.8941     | 154.0 |  9.06
Bond    | 0.0009973  | 0.27969    | 1.2223     |  65.0 |  2.66
Kspace  | 2.9248     | 8.0341     | 9.0704     |  55.3 | 76.39
Neigh   | 0.28042    | 0.28254    | 0.28591    |   0.3 |  2.69
Comm    | 0.019311   | 0.5104     | 1.0153     |  45.8 |  4.85
Output  | 2.3127e-05 | 2.493e-05  | 3.2902e-05 |   0.0 |  0.00
Modify  | 0.05431    | 0.42623    | 1.1064     |  59.6 |  4.05
Other   |            | 0.03131    |            |       |  0.30

Nlocal:    127.5 ave 549 max 0 min
Histogram: 9 0 2 2 0 0 2 0 0 1
Nghost:    190.438 ave 529 max 0 min
Histogram: 2 6 1 1 1 2 0 2 0 1
Neighs:    7891 ave 49973 max 0 min
Histogram: 9 3 1 0 2 0 0 0 0 1

Total # of neighbors = 126256
Ave neighs/atom = 61.8902
Ave special neighs/atom = 11.5676
Neighbor list builds = 174
Dangerous builds = 0
unfix pysimm_md
write_dump all custom pysimm.dump.tmp id q x y z vx vy vz
quit
