
Host: node19

Timers On : Wed Jan 18 16:01:40 2023
Timers Off: Wed Jan 18 16:01:44 2023

Wall Time:        4.21 seconds

                                                       Time (seconds)
Module                                       User      System        Wall        Calls

--------------------------------------------------------------------------------------

**************************************************************************************

Host: node19

Timers On : Wed Jan 18 16:02:29 2023
Timers Off: Wed Jan 18 16:02:33 2023

Wall Time:        4.14 seconds

                                                       Time (seconds)
Module                                       User      System        Wall        Calls

--------------------------------------------------------------------------------------

**************************************************************************************

Host: node19

Timers On : Wed Jan 18 16:03:28 2023
Timers Off: Wed Jan 18 16:03:32 2023

Wall Time:        4.12 seconds

                                                       Time (seconds)
Module                                       User      System        Wall        Calls

--------------------------------------------------------------------------------------

**************************************************************************************

Host: node19

Timers On : Wed Jan 18 16:05:57 2023
Timers Off: Wed Jan 18 16:06:01 2023

Wall Time:        4.35 seconds

                                                       Time (seconds)
Module                                       User      System        Wall        Calls

--------------------------------------------------------------------------------------

**************************************************************************************

Host: node19

Timers On : Wed Jan 18 16:06:48 2023
Timers Off: Wed Jan 18 16:06:52 2023

Wall Time:        4.09 seconds

                                                       Time (seconds)
Module                                       User      System        Wall        Calls

--------------------------------------------------------------------------------------

**************************************************************************************

Host: node19

Timers On : Wed Jan 18 16:08:57 2023
Timers Off: Wed Jan 18 16:09:01 2023

Wall Time:        4.22 seconds

                                                       Time (seconds)
Module                                       User      System        Wall        Calls

--------------------------------------------------------------------------------------

**************************************************************************************

Host: node19

Timers On : Wed Jan 18 16:10:17 2023
Timers Off: Wed Jan 18 16:10:21 2023

Wall Time:        4.13 seconds

                                                       Time (seconds)
Module                                       User      System        Wall        Calls

--------------------------------------------------------------------------------------

**************************************************************************************

Host: node19

Timers On : Wed Jan 18 16:11:10 2023
Timers Off: Wed Jan 18 16:11:14 2023

Wall Time:        3.99 seconds

                                                       Time (seconds)
Module                                       User      System        Wall        Calls

--------------------------------------------------------------------------------------

**************************************************************************************

Host: node19

Timers On : Wed Jan 18 16:15:30 2023
Timers Off: Wed Jan 18 16:15:34 2023

Wall Time:        4.08 seconds

                                                       Time (seconds)
Module                                       User      System        Wall        Calls

--------------------------------------------------------------------------------------

**************************************************************************************

Host: node19

Timers On : Wed Jan 18 16:18:03 2023
Timers Off: Wed Jan 18 16:18:07 2023

Wall Time:        4.31 seconds

                                                       Time (seconds)
Module                                       User      System        Wall        Calls

--------------------------------------------------------------------------------------

**************************************************************************************

Host: node19

Timers On : Wed Jan 18 16:18:43 2023
Timers Off: Wed Jan 18 16:18:47 2023

Wall Time:        4.14 seconds

                                                       Time (seconds)
Module                                       User      System        Wall        Calls

--------------------------------------------------------------------------------------

**************************************************************************************

Host: node19

Timers On : Wed Jan 18 16:19:22 2023
Timers Off: Wed Jan 18 16:19:54 2023

Wall Time:       32.81 seconds

                                                       Time (seconds)
Module                                       User      System        Wall        Calls

--------------------------------------------------------------------------------------

**************************************************************************************

Host: node19

Timers On : Wed Jan 18 16:22:06 2023
Timers Off: Wed Jan 18 16:22:39 2023

Wall Time:       32.30 seconds

                                                       Time (seconds)
Module                                       User      System        Wall        Calls

--------------------------------------------------------------------------------------

**************************************************************************************

Host: node19

Timers On : Wed Jan 18 16:22:53 2023
Timers Off: Wed Jan 18 16:23:23 2023

Wall Time:       30.25 seconds

                                                       Time (seconds)
Module                                       User      System        Wall        Calls

--------------------------------------------------------------------------------------

**************************************************************************************

Host: node19

Timers On : Wed Jan 18 16:25:02 2023
Timers Off: Wed Jan 18 16:25:34 2023

Wall Time:       31.65 seconds

                                                       Time (seconds)
Module                                       User      System        Wall        Calls

--------------------------------------------------------------------------------------

**************************************************************************************

Host: node19

Timers On : Wed Jan 18 16:45:00 2023
Timers Off: Wed Jan 18 16:45:05 2023

Wall Time:        5.22 seconds

                                                       Time (seconds)
Module                                       User      System        Wall        Calls

--------------------------------------------------------------------------------------

**************************************************************************************

Host: node19

Timers On : Wed Jan 18 16:45:51 2023
Timers Off: Wed Jan 18 16:45:55 2023

Wall Time:        4.51 seconds

                                                       Time (seconds)
Module                                       User      System        Wall        Calls

--------------------------------------------------------------------------------------

**************************************************************************************

Host: node19

Timers On : Wed Jan 18 16:46:26 2023
Timers Off: Wed Jan 18 16:46:31 2023

Wall Time:        4.95 seconds

                                                       Time (seconds)
Module                                       User      System        Wall        Calls

--------------------------------------------------------------------------------------

**************************************************************************************

Host: node19

Timers On : Wed Jan 18 16:47:14 2023
Timers Off: Wed Jan 18 16:47:19 2023

Wall Time:        4.84 seconds

                                                       Time (seconds)
Module                                       User      System        Wall        Calls

--------------------------------------------------------------------------------------

**************************************************************************************

Host: node19

Timers On : Wed Jan 18 16:49:15 2023
Timers Off: Wed Jan 18 16:49:20 2023

Wall Time:        5.04 seconds

                                                       Time (seconds)
Module                                       User      System        Wall        Calls

--------------------------------------------------------------------------------------

**************************************************************************************

Host: node19

Timers On : Wed Jan 18 16:49:50 2023
Timers Off: Wed Jan 18 16:49:54 2023

Wall Time:        4.58 seconds

                                                       Time (seconds)
Module                                       User      System        Wall        Calls

--------------------------------------------------------------------------------------

**************************************************************************************

Host: node19

Timers On : Wed Jan 18 16:50:11 2023
Timers Off: Wed Jan 18 16:50:16 2023

Wall Time:        4.94 seconds

                                                       Time (seconds)
Module                                       User      System        Wall        Calls

--------------------------------------------------------------------------------------

**************************************************************************************

Host: node19

Timers On : Wed Jan 18 16:51:22 2023
Timers Off: Wed Jan 18 16:51:27 2023

Wall Time:        4.92 seconds

                                                       Time (seconds)
Module                                       User      System        Wall        Calls

--------------------------------------------------------------------------------------

**************************************************************************************

Host: node19

Timers On : Wed Jan 18 16:51:41 2023
Timers Off: Wed Jan 18 16:52:09 2023

Wall Time:       27.67 seconds

                                                       Time (seconds)
Module                                       User      System        Wall        Calls

--------------------------------------------------------------------------------------

**************************************************************************************

Host: node19

Timers On : Wed Jan 18 16:53:24 2023
Timers Off: Wed Jan 18 16:54:08 2023

Wall Time:       44.35 seconds

                                                       Time (seconds)
Module                                       User      System        Wall        Calls

--------------------------------------------------------------------------------------

**************************************************************************************

Host: node19

Timers On : Wed Jan 18 16:58:55 2023
Timers Off: Wed Jan 18 16:59:33 2023

Wall Time:       37.37 seconds

                                                       Time (seconds)
Module                                       User      System        Wall        Calls

--------------------------------------------------------------------------------------

**************************************************************************************

Host: node19

Timers On : Wed Jan 18 17:03:02 2023
Timers Off: Wed Jan 18 17:03:17 2023

Wall Time:       15.33 seconds

                                                       Time (seconds)
Module                                       User      System        Wall        Calls

--------------------------------------------------------------------------------------

**************************************************************************************

Host: node19

Timers On : Wed Jan 18 17:18:17 2023
Timers Off: Wed Jan 18 17:19:17 2023

Wall Time:       60.47 seconds

                                                       Time (seconds)
Module                                       User      System        Wall        Calls

--------------------------------------------------------------------------------------

**************************************************************************************

Host: node19

Timers On : Wed Jan 18 17:22:00 2023
Timers Off: Wed Jan 18 17:22:28 2023

Wall Time:       28.01 seconds

                                                       Time (seconds)
Module                                       User      System        Wall        Calls

--------------------------------------------------------------------------------------

**************************************************************************************

Host: node19

Timers On : Wed Jan 18 17:31:00 2023
Timers Off: Wed Jan 18 17:31:29 2023

Wall Time:       29.29 seconds

                                                       Time (seconds)
Module                                       User      System        Wall        Calls

--------------------------------------------------------------------------------------

**************************************************************************************

Host: node19

Timers On : Wed Jan 18 17:32:33 2023
Timers Off: Wed Jan 18 21:48:46 2023

Wall Time:    15372.74 seconds

                                                       Time (seconds)
Module                                       User      System        Wall        Calls

--------------------------------------------------------------------------------------

**************************************************************************************

Host: node19

Timers On : Thu Jan 19 10:46:48 2023
Timers Off: Thu Jan 19 10:52:13 2023

Wall Time:      324.89 seconds

                                                       Time (seconds)
Module                                       User      System        Wall        Calls

--------------------------------------------------------------------------------------

**************************************************************************************

Host: node19

Timers On : Thu Jan 19 10:58:31 2023
Timers Off: Thu Jan 19 11:04:26 2023

Wall Time:      354.90 seconds

                                                       Time (seconds)
Module                                       User      System        Wall        Calls

--------------------------------------------------------------------------------------

**************************************************************************************

Host: node19

Timers On : Thu Jan 19 11:05:06 2023
Timers Off: Thu Jan 19 11:26:55 2023

Wall Time:     1309.39 seconds

                                                       Time (seconds)
Module                                       User      System        Wall        Calls

--------------------------------------------------------------------------------------

**************************************************************************************

Host: node19

Timers On : Thu Jan 19 11:55:28 2023
Timers Off: Thu Jan 19 15:42:42 2023

Wall Time:    13633.97 seconds

                                                       Time (seconds)
Module                                       User      System        Wall        Calls

--------------------------------------------------------------------------------------

**************************************************************************************
