

################################################################################
##################################    Init    ##################################
################################################################################
units           real
atom_style      full
pair_style      lj/cut/coul/long 12.0  12.0
kspace_style    pppm 1e-4
bond_style      harmonic
angle_style     harmonic
dihedral_style  fourier
improper_style  cvff
special_bonds   amber
pair_modify     mix arithmetic
read_data       temp.lmps
  orthogonal box = (-116.049 -116.049 -116.049) to (116.049 116.049 116.049)
  1 by 1 by 1 MPI processor grid
  reading atoms ...
  852 atoms
  reading velocities ...
  852 velocities
  scanning bonds ...
  3 = max bonds/atom
  scanning angles ...
  6 = max angles/atom
  scanning dihedrals ...
  24 = max dihedrals/atom
  scanning impropers ...
  2 = max impropers/atom
  reading bonds ...
  921 bonds
  reading angles ...
  1620 angles
  reading dihedrals ...
  2496 dihedrals
  reading impropers ...
  280 impropers
  4 = max # of 1-2 neighbors
  10 = max # of 1-3 neighbors
  19 = max # of 1-4 neighbors
  22 = max # of special neighbors
  special bonds CPU = 0.000818968 secs
  read_data CPU = 0.0106142 secs
################################################################################

min_style cg
minimize 1e-06 1e-06 1000000 10000000
WARNING: Using 'neigh_modify every 1 delay 0 check yes' setting during minimization (../min.cpp:190)
PPPM initialization ...
  using 12-bit tables for long-range coulomb (../kspace.cpp:332)
  G vector (1/distance) = 0.0809201
  grid = 16 16 16
  stencil order = 5
  estimated absolute RMS force accuracy = 0.0344192
  estimated relative force accuracy = 0.000103652
  using double precision KISS FFT
  3d grid and FFT values/proc = 9261 4096
Neighbor list info ...
  update every 1 steps, delay 0 steps, check yes
  max neighbors/atom: 2000, page size: 100000
  master list distance cutoff = 14
  ghost atom cutoff = 14
  binsize = 7, bins = 34 34 34
  1 neighbor lists, perpetual/occasional/extra = 1 0 0
  (1) pair lj/cut/coul/long, perpetual
      attributes: half, newton on
      pair build: half/bin/newton
      stencil: half/bin/3d/newton
      bin: standard
Per MPI rank memory allocation (min/avg/max) = 19.86 | 19.86 | 19.86 Mbytes
Step Temp E_pair E_mol TotEng Press 
       0    100.55977    406.17395    827.06561    1488.3265  -0.70201754 
       7    100.55977    404.55635    650.99673      1310.64    1.1522389 
Loop time of 0.237343 on 1 procs for 7 steps with 852 atoms

99.8% CPU use with 1 MPI tasks x no OpenMP threads

Minimization stats:
  Stopping criterion = linesearch alpha is zero
  Energy initial, next-to-last, final = 
         1233.23956782      1055.55307273      1055.55307273
  Force two-norm initial, final = 727.117 39.0185
  Force max component initial, final = 303.376 9.85251
  Final line search alpha, max atom move = 7.64563e-12 7.53286e-11
  Iterations, force evaluations = 7 71

MPI task timing breakdown:
Section |  min time  |  avg time  |  max time  |%varavg| %total
---------------------------------------------------------------
Pair    | 0.10276    | 0.10276    | 0.10276    |   0.0 | 43.30
Bond    | 0.030318   | 0.030318   | 0.030318   |   0.0 | 12.77
Kspace  | 0.10328    | 0.10328    | 0.10328    |   0.0 | 43.51
Neigh   | 0          | 0          | 0          |   0.0 |  0.00
Comm    | 3.5763e-05 | 3.5763e-05 | 3.5763e-05 |   0.0 |  0.02
Output  | 0          | 0          | 0          |   0.0 |  0.00
Modify  | 0          | 0          | 0          |   0.0 |  0.00
Other   |            | 0.0009484  |            |       |  0.40

Nlocal:    852 ave 852 max 852 min
Histogram: 1 0 0 0 0 0 0 0 0 0
Nghost:    0 ave 0 max 0 min
Histogram: 1 0 0 0 0 0 0 0 0 0
Neighs:    38366 ave 38366 max 38366 min
Histogram: 1 0 0 0 0 0 0 0 0 0

Total # of neighbors = 38366
Ave neighs/atom = 45.0305
Ave special neighs/atom = 11.2371
Neighbor list builds = 0
Dangerous builds = 0
write_dump all custom pysimm.dump.tmp id q x y z vx vy vz
quit


################################################################################
##################################    Init    ##################################
################################################################################
units           real
atom_style      full
pair_style      lj/cut/coul/long 12.0  12.0
kspace_style    pppm 1e-4
bond_style      harmonic
angle_style     harmonic
dihedral_style  fourier
improper_style  cvff
special_bonds   amber
pair_modify     mix arithmetic
read_data       temp.lmps
  orthogonal box = (-146.213 -146.213 -146.213) to (146.213 146.213 146.213)
  1 by 1 by 1 MPI processor grid
  reading atoms ...
  937 atoms
  reading velocities ...
  937 velocities
  scanning bonds ...
  3 = max bonds/atom
  scanning angles ...
  6 = max angles/atom
  scanning dihedrals ...
  24 = max dihedrals/atom
  scanning impropers ...
  2 = max impropers/atom
  reading bonds ...
  1013 bonds
  reading angles ...
  1782 angles
  reading dihedrals ...
  2746 dihedrals
  reading impropers ...
  308 impropers
  4 = max # of 1-2 neighbors
  10 = max # of 1-3 neighbors
  19 = max # of 1-4 neighbors
  22 = max # of special neighbors
  special bonds CPU = 0.000864983 secs
  read_data CPU = 0.0113339 secs
################################################################################

min_style cg
minimize 1e-06 1e-06 1000000 10000000
WARNING: Using 'neigh_modify every 1 delay 0 check yes' setting during minimization (../min.cpp:190)
PPPM initialization ...
  using 12-bit tables for long-range coulomb (../kspace.cpp:332)
  G vector (1/distance) = 0.0636745
  grid = 15 15 15
  stencil order = 5
  estimated absolute RMS force accuracy = 0.0365599
  estimated relative force accuracy = 0.000110099
  using double precision KISS FFT
  3d grid and FFT values/proc = 8000 3375
Neighbor list info ...
  update every 1 steps, delay 0 steps, check yes
  max neighbors/atom: 2000, page size: 100000
  master list distance cutoff = 14
  ghost atom cutoff = 14
  binsize = 7, bins = 42 42 42
  1 neighbor lists, perpetual/occasional/extra = 1 0 0
  (1) pair lj/cut/coul/long, perpetual
      attributes: half, newton on
      pair build: half/bin/newton
      stencil: half/bin/3d/newton
      bin: standard
Per MPI rank memory allocation (min/avg/max) = 19.93 | 19.93 | 19.93 Mbytes
Step Temp E_pair E_mol TotEng Press 
       0    1830.2189    469.76893    1192.3382    6768.4879    6.3207511 
      10    1830.2189     468.6814    1003.1891    6578.2512    7.4533914 
Loop time of 0.26948 on 1 procs for 10 steps with 937 atoms

99.8% CPU use with 1 MPI tasks x no OpenMP threads

Minimization stats:
  Stopping criterion = linesearch alpha is zero
  Energy initial, next-to-last, final = 
         1662.10712286      1471.87051574      1471.87051574
  Force two-norm initial, final = 733.066 59.5742
  Force max component initial, final = 364.765 14.1298
  Final line search alpha, max atom move = 2.80955e-12 3.96983e-11
  Iterations, force evaluations = 10 78

MPI task timing breakdown:
Section |  min time  |  avg time  |  max time  |%varavg| %total
---------------------------------------------------------------
Pair    | 0.12896    | 0.12896    | 0.12896    |   0.0 | 47.85
Bond    | 0.036353   | 0.036353   | 0.036353   |   0.0 | 13.49
Kspace  | 0.10296    | 0.10296    | 0.10296    |   0.0 | 38.21
Neigh   | 0          | 0          | 0          |   0.0 |  0.00
Comm    | 2.861e-05  | 2.861e-05  | 2.861e-05  |   0.0 |  0.01
Output  | 0          | 0          | 0          |   0.0 |  0.00
Modify  | 0          | 0          | 0          |   0.0 |  0.00
Other   |            | 0.001177   |            |       |  0.44

Nlocal:    937 ave 937 max 937 min
Histogram: 1 0 0 0 0 0 0 0 0 0
Nghost:    0 ave 0 max 0 min
Histogram: 1 0 0 0 0 0 0 0 0 0
Neighs:    46851 ave 46851 max 46851 min
Histogram: 1 0 0 0 0 0 0 0 0 0

Total # of neighbors = 46851
Ave neighs/atom = 50.0011
Ave special neighs/atom = 11.2401
Neighbor list builds = 0
Dangerous builds = 0
write_dump all custom pysimm.dump.tmp id q x y z vx vy vz
quit


################################################################################
##################################    Init    ##################################
################################################################################
units           real
atom_style      full
pair_style      lj/cut/coul/long 12.0  12.0
kspace_style    pppm 1e-4
bond_style      harmonic
angle_style     harmonic
dihedral_style  fourier
improper_style  cvff
special_bonds   amber
pair_modify     mix arithmetic
read_data       temp.lmps
  orthogonal box = (-150.933 -150.933 -150.933) to (150.933 150.933 150.933)
  1 by 1 by 1 MPI processor grid
  reading atoms ...
  1022 atoms
  reading velocities ...
  1022 velocities
  scanning bonds ...
  3 = max bonds/atom
  scanning angles ...
  6 = max angles/atom
  scanning dihedrals ...
  24 = max dihedrals/atom
  scanning impropers ...
  2 = max impropers/atom
  reading bonds ...
  1105 bonds
  reading angles ...
  1944 angles
  reading dihedrals ...
  2996 dihedrals
  reading impropers ...
  336 impropers
  4 = max # of 1-2 neighbors
  10 = max # of 1-3 neighbors
  19 = max # of 1-4 neighbors
  22 = max # of special neighbors
  special bonds CPU = 0.000959158 secs
  read_data CPU = 0.0120401 secs
################################################################################

min_style cg
minimize 1e-06 1e-06 1000000 10000000
WARNING: Using 'neigh_modify every 1 delay 0 check yes' setting during minimization (../min.cpp:190)
PPPM initialization ...
  using 12-bit tables for long-range coulomb (../kspace.cpp:332)
  G vector (1/distance) = 0.061997
  grid = 15 15 15
  stencil order = 5
  estimated absolute RMS force accuracy = 0.037532
  estimated relative force accuracy = 0.000113026
  using double precision KISS FFT
  3d grid and FFT values/proc = 8000 3375
Neighbor list info ...
  update every 1 steps, delay 0 steps, check yes
  max neighbors/atom: 2000, page size: 100000
  master list distance cutoff = 14
  ghost atom cutoff = 14
  binsize = 7, bins = 44 44 44
  1 neighbor lists, perpetual/occasional/extra = 1 0 0
  (1) pair lj/cut/coul/long, perpetual
      attributes: half, newton on
      pair build: half/bin/newton
      stencil: half/bin/3d/newton
      bin: standard
Per MPI rank memory allocation (min/avg/max) = 19.99 | 19.99 | 19.99 Mbytes
Step Temp E_pair E_mol TotEng Press 
       0    1425.5581    488.00049    1693.7615    6520.3156   -2.2090185 
      29    1425.5581    477.72251    1441.7111    6257.9873  -0.54132627 
Loop time of 0.414157 on 1 procs for 29 steps with 1022 atoms

99.9% CPU use with 1 MPI tasks x no OpenMP threads

Minimization stats:
  Stopping criterion = linesearch alpha is zero
  Energy initial, next-to-last, final = 
         2181.76195352      1919.43356849      1919.43356849
  Force two-norm initial, final = 735.459 67.4701
  Force max component initial, final = 330.594 10.2262
  Final line search alpha, max atom move = 1.59074e-12 1.62673e-11
  Iterations, force evaluations = 29 117

MPI task timing breakdown:
Section |  min time  |  avg time  |  max time  |%varavg| %total
---------------------------------------------------------------
Pair    | 0.18889    | 0.18889    | 0.18889    |   0.0 | 45.61
Bond    | 0.057924   | 0.057924   | 0.057924   |   0.0 | 13.99
Kspace  | 0.16515    | 0.16515    | 0.16515    |   0.0 | 39.88
Neigh   | 0          | 0          | 0          |   0.0 |  0.00
Comm    | 5.2691e-05 | 5.2691e-05 | 5.2691e-05 |   0.0 |  0.01
Output  | 0          | 0          | 0          |   0.0 |  0.00
Modify  | 0          | 0          | 0          |   0.0 |  0.00
Other   |            | 0.002144   |            |       |  0.52

Nlocal:    1022 ave 1022 max 1022 min
Histogram: 1 0 0 0 0 0 0 0 0 0
Nghost:    0 ave 0 max 0 min
Histogram: 1 0 0 0 0 0 0 0 0 0
Neighs:    46031 ave 46031 max 46031 min
Histogram: 1 0 0 0 0 0 0 0 0 0

Total # of neighbors = 46031
Ave neighs/atom = 45.0401
Ave special neighs/atom = 11.2427
Neighbor list builds = 0
Dangerous builds = 0
write_dump all custom pysimm.dump.tmp id q x y z vx vy vz
quit


################################################################################
##################################    Init    ##################################
################################################################################
units           real
atom_style      full
pair_style      lj/cut/coul/long 12.0  12.0
kspace_style    pppm 1e-4
bond_style      harmonic
angle_style     harmonic
dihedral_style  fourier
improper_style  cvff
special_bonds   amber
pair_modify     mix arithmetic
read_data       temp.lmps
  orthogonal box = (-155.375 -155.375 -155.375) to (155.375 155.375 155.375)
  1 by 1 by 1 MPI processor grid
  reading atoms ...
  1107 atoms
  reading velocities ...
  1107 velocities
  scanning bonds ...
  3 = max bonds/atom
  scanning angles ...
  6 = max angles/atom
  scanning dihedrals ...
  24 = max dihedrals/atom
  scanning impropers ...
  2 = max impropers/atom
  reading bonds ...
  1197 bonds
  reading angles ...
  2106 angles
  reading dihedrals ...
  3246 dihedrals
  reading impropers ...
  364 impropers
  4 = max # of 1-2 neighbors
  10 = max # of 1-3 neighbors
  19 = max # of 1-4 neighbors
  22 = max # of special neighbors
  special bonds CPU = 0.000980139 secs
  read_data CPU = 0.012888 secs
################################################################################

min_style cg
minimize 1e-06 1e-06 1000000 10000000
WARNING: Using 'neigh_modify every 1 delay 0 check yes' setting during minimization (../min.cpp:190)
PPPM initialization ...
  using 12-bit tables for long-range coulomb (../kspace.cpp:332)
  G vector (1/distance) = 0.0604963
  grid = 15 15 15
  stencil order = 5
  estimated absolute RMS force accuracy = 0.0384072
  estimated relative force accuracy = 0.000115662
  using double precision KISS FFT
  3d grid and FFT values/proc = 8000 3375
Neighbor list info ...
  update every 1 steps, delay 0 steps, check yes
  max neighbors/atom: 2000, page size: 100000
  master list distance cutoff = 14
  ghost atom cutoff = 14
  binsize = 7, bins = 45 45 45
  1 neighbor lists, perpetual/occasional/extra = 1 0 0
  (1) pair lj/cut/coul/long, perpetual
      attributes: half, newton on
      pair build: half/bin/newton
      stencil: half/bin/3d/newton
      bin: standard
Per MPI rank memory allocation (min/avg/max) = 20.03 | 20.03 | 20.03 Mbytes
Step Temp E_pair E_mol TotEng Press 
       0    1490.0027    548.72817    1232.6941    6693.6273    5.5040311 
      23    1490.0027    539.30531    1016.8342    6468.3445    6.7008916 
Loop time of 0.406605 on 1 procs for 23 steps with 1107 atoms

99.8% CPU use with 1 MPI tasks x no OpenMP threads

Minimization stats:
  Stopping criterion = linesearch alpha is zero
  Energy initial, next-to-last, final = 
         1781.42230496      1556.13956149      1556.13956149
  Force two-norm initial, final = 731.362 68.6651
  Force max component initial, final = 286.577 12.4301
  Final line search alpha, max atom move = 2.20466e-12 2.74042e-11
  Iterations, force evaluations = 23 103

MPI task timing breakdown:
Section |  min time  |  avg time  |  max time  |%varavg| %total
---------------------------------------------------------------
Pair    | 0.20236    | 0.20236    | 0.20236    |   0.0 | 49.77
Bond    | 0.055726   | 0.055726   | 0.055726   |   0.0 | 13.71
Kspace  | 0.14647    | 0.14647    | 0.14647    |   0.0 | 36.02
Neigh   | 0          | 0          | 0          |   0.0 |  0.00
Comm    | 5.0545e-05 | 5.0545e-05 | 5.0545e-05 |   0.0 |  0.01
Output  | 0          | 0          | 0          |   0.0 |  0.00
Modify  | 0          | 0          | 0          |   0.0 |  0.00
Other   |            | 0.002004   |            |       |  0.49

Nlocal:    1107 ave 1107 max 1107 min
Histogram: 1 0 0 0 0 0 0 0 0 0
Nghost:    0 ave 0 max 0 min
Histogram: 1 0 0 0 0 0 0 0 0 0
Neighs:    55452 ave 55452 max 55452 min
Histogram: 1 0 0 0 0 0 0 0 0 0

Total # of neighbors = 55452
Ave neighs/atom = 50.0921
Ave special neighs/atom = 11.2448
Neighbor list builds = 0
Dangerous builds = 0
write_dump all custom pysimm.dump.tmp id q x y z vx vy vz
quit


################################################################################
##################################    Init    ##################################
################################################################################
units           real
atom_style      full
pair_style      lj/cut/coul/long 12.0  12.0
kspace_style    pppm 1e-4
bond_style      harmonic
angle_style     harmonic
dihedral_style  fourier
improper_style  cvff
special_bonds   amber
pair_modify     mix arithmetic
read_data       temp.lmps
  orthogonal box = (-159.576 -159.576 -159.576) to (159.576 159.576 159.576)
  1 by 1 by 1 MPI processor grid
  reading atoms ...
  1192 atoms
  reading velocities ...
  1192 velocities
  scanning bonds ...
  3 = max bonds/atom
  scanning angles ...
  6 = max angles/atom
  scanning dihedrals ...
  24 = max dihedrals/atom
  scanning impropers ...
  2 = max impropers/atom
  reading bonds ...
  1289 bonds
  reading angles ...
  2268 angles
  reading dihedrals ...
  3496 dihedrals
  reading impropers ...
  392 impropers
  4 = max # of 1-2 neighbors
  10 = max # of 1-3 neighbors
  19 = max # of 1-4 neighbors
  22 = max # of special neighbors
  special bonds CPU = 0.00105405 secs
  read_data CPU = 0.0136518 secs
################################################################################

min_style cg
minimize 1e-06 1e-06 1000000 10000000
WARNING: Using 'neigh_modify every 1 delay 0 check yes' setting during minimization (../min.cpp:190)
PPPM initialization ...
  using 12-bit tables for long-range coulomb (../kspace.cpp:332)
  G vector (1/distance) = 0.0624616
  grid = 16 16 16
  stencil order = 5
  estimated absolute RMS force accuracy = 0.036989
  estimated relative force accuracy = 0.000111391
  using double precision KISS FFT
  3d grid and FFT values/proc = 9261 4096
Neighbor list info ...
  update every 1 steps, delay 0 steps, check yes
  max neighbors/atom: 2000, page size: 100000
  master list distance cutoff = 14
  ghost atom cutoff = 14
  binsize = 7, bins = 46 46 46
  1 neighbor lists, perpetual/occasional/extra = 1 0 0
  (1) pair lj/cut/coul/long, perpetual
      attributes: half, newton on
      pair build: half/bin/newton
      stencil: half/bin/3d/newton
      bin: standard
Per MPI rank memory allocation (min/avg/max) = 20.18 | 20.18 | 20.18 Mbytes
Step Temp E_pair E_mol TotEng Press 
       0     1513.484    653.98326    1622.2214    7649.2919    3.5304157 
      25     1513.484    594.45605    1386.2115    7353.7548    3.4656704 
Loop time of 0.495815 on 1 procs for 25 steps with 1192 atoms

100.0% CPU use with 1 MPI tasks x no OpenMP threads

Minimization stats:
  Stopping criterion = linesearch alpha is zero
  Energy initial, next-to-last, final = 
         2276.20464148      1980.66752885      1980.66752885
  Force two-norm initial, final = 734.913 92.912
  Force max component initial, final = 317.592 19.3442
  Final line search alpha, max atom move = 7.79259e-13 1.50742e-11
  Iterations, force evaluations = 25 109

MPI task timing breakdown:
Section |  min time  |  avg time  |  max time  |%varavg| %total
---------------------------------------------------------------
Pair    | 0.26072    | 0.26072    | 0.26072    |   0.0 | 52.58
Bond    | 0.063043   | 0.063043   | 0.063043   |   0.0 | 12.71
Kspace  | 0.16974    | 0.16974    | 0.16974    |   0.0 | 34.23
Neigh   | 0          | 0          | 0          |   0.0 |  0.00
Comm    | 5.9128e-05 | 5.9128e-05 | 5.9128e-05 |   0.0 |  0.01
Output  | 0          | 0          | 0          |   0.0 |  0.00
Modify  | 0          | 0          | 0          |   0.0 |  0.00
Other   |            | 0.002252   |            |       |  0.45

Nlocal:    1192 ave 1192 max 1192 min
Histogram: 1 0 0 0 0 0 0 0 0 0
Nghost:    0 ave 0 max 0 min
Histogram: 1 0 0 0 0 0 0 0 0 0
Neighs:    68886 ave 68886 max 68886 min
Histogram: 1 0 0 0 0 0 0 0 0 0

Total # of neighbors = 68886
Ave neighs/atom = 57.7903
Ave special neighs/atom = 11.2466
Neighbor list builds = 0
Dangerous builds = 0
write_dump all custom pysimm.dump.tmp id q x y z vx vy vz
quit


################################################################################
##################################    Init    ##################################
################################################################################
units           real
atom_style      full
pair_style      lj/cut/coul/long 12.0  12.0
kspace_style    pppm 1e-4
bond_style      harmonic
angle_style     harmonic
dihedral_style  fourier
improper_style  cvff
special_bonds   amber
pair_modify     mix arithmetic
read_data       temp.lmps
  orthogonal box = (-163.567 -163.567 -163.567) to (163.567 163.567 163.567)
  1 by 1 by 1 MPI processor grid
  reading atoms ...
  1277 atoms
  reading velocities ...
  1277 velocities
  scanning bonds ...
  3 = max bonds/atom
  scanning angles ...
  6 = max angles/atom
  scanning dihedrals ...
  24 = max dihedrals/atom
  scanning impropers ...
  2 = max impropers/atom
  reading bonds ...
  1381 bonds
  reading angles ...
  2430 angles
  reading dihedrals ...
  3746 dihedrals
  reading impropers ...
  420 impropers
  4 = max # of 1-2 neighbors
  10 = max # of 1-3 neighbors
  19 = max # of 1-4 neighbors
  22 = max # of special neighbors
  special bonds CPU = 0.00110698 secs
  read_data CPU = 0.0143809 secs
################################################################################

min_style cg
minimize 1e-06 1e-06 1000000 10000000
WARNING: Using 'neigh_modify every 1 delay 0 check yes' setting during minimization (../min.cpp:190)
PPPM initialization ...
  using 12-bit tables for long-range coulomb (../kspace.cpp:332)
  G vector (1/distance) = 0.0611735
  grid = 16 16 16
  stencil order = 5
  estimated absolute RMS force accuracy = 0.0377502
  estimated relative force accuracy = 0.000113684
  using double precision KISS FFT
  3d grid and FFT values/proc = 9261 4096
Neighbor list info ...
  update every 1 steps, delay 0 steps, check yes
  max neighbors/atom: 2000, page size: 100000
  master list distance cutoff = 14
  ghost atom cutoff = 14
  binsize = 7, bins = 47 47 47
  1 neighbor lists, perpetual/occasional/extra = 1 0 0
  (1) pair lj/cut/coul/long, perpetual
      attributes: half, newton on
      pair build: half/bin/newton
      stencil: half/bin/3d/newton
      bin: standard
Per MPI rank memory allocation (min/avg/max) = 20.22 | 20.22 | 20.22 Mbytes
Step Temp E_pair E_mol TotEng Press 
       0    1094.3911    659.43155    1316.5326    6138.4956     4.235078 
      32    1094.3911    635.58759    1091.1139     5889.233    4.6505229 
Loop time of 0.542445 on 1 procs for 32 steps with 1277 atoms

100.1% CPU use with 1 MPI tasks x no OpenMP threads

Minimization stats:
  Stopping criterion = linesearch alpha is zero
  Energy initial, next-to-last, final = 
         1975.96412662      1726.70147555      1726.70147555
  Force two-norm initial, final = 732.701 69.8853
  Force max component initial, final = 372.092 14.4948
  Final line search alpha, max atom move = 2.21684e-12 3.21328e-11
  Iterations, force evaluations = 32 120

MPI task timing breakdown:
Section |  min time  |  avg time  |  max time  |%varavg| %total
---------------------------------------------------------------
Pair    | 0.26948    | 0.26948    | 0.26948    |   0.0 | 49.68
Bond    | 0.075235   | 0.075235   | 0.075235   |   0.0 | 13.87
Kspace  | 0.19488    | 0.19488    | 0.19488    |   0.0 | 35.93
Neigh   | 0          | 0          | 0          |   0.0 |  0.00
Comm    | 4.7207e-05 | 4.7207e-05 | 4.7207e-05 |   0.0 |  0.01
Output  | 0          | 0          | 0          |   0.0 |  0.00
Modify  | 0          | 0          | 0          |   0.0 |  0.00
Other   |            | 0.002804   |            |       |  0.52

Nlocal:    1277 ave 1277 max 1277 min
Histogram: 1 0 0 0 0 0 0 0 0 0
Nghost:    0 ave 0 max 0 min
Histogram: 1 0 0 0 0 0 0 0 0 0
Neighs:    62195 ave 62195 max 62195 min
Histogram: 1 0 0 0 0 0 0 0 0 0

Total # of neighbors = 62195
Ave neighs/atom = 48.704
Ave special neighs/atom = 11.2482
Neighbor list builds = 0
Dangerous builds = 0
write_dump all custom pysimm.dump.tmp id q x y z vx vy vz
quit


################################################################################
##################################    Init    ##################################
################################################################################
units           real
atom_style      full
pair_style      lj/cut/coul/long 12.0  12.0
kspace_style    pppm 1e-4
bond_style      harmonic
angle_style     harmonic
dihedral_style  fourier
improper_style  cvff
special_bonds   amber
pair_modify     mix arithmetic
read_data       temp.lmps
  orthogonal box = (-167.372 -167.372 -167.372) to (167.372 167.372 167.372)
  1 by 1 by 1 MPI processor grid
  reading atoms ...
  1362 atoms
  reading velocities ...
  1362 velocities
  scanning bonds ...
  3 = max bonds/atom
  scanning angles ...
  6 = max angles/atom
  scanning dihedrals ...
  24 = max dihedrals/atom
  scanning impropers ...
  2 = max impropers/atom
  reading bonds ...
  1473 bonds
  reading angles ...
  2592 angles
  reading dihedrals ...
  3996 dihedrals
  reading impropers ...
  448 impropers
  4 = max # of 1-2 neighbors
  10 = max # of 1-3 neighbors
  19 = max # of 1-4 neighbors
  22 = max # of special neighbors
  special bonds CPU = 0.00121808 secs
  read_data CPU = 0.119788 secs
################################################################################

min_style cg
minimize 1e-06 1e-06 1000000 10000000
WARNING: Using 'neigh_modify every 1 delay 0 check yes' setting during minimization (../min.cpp:190)
PPPM initialization ...
  using 12-bit tables for long-range coulomb (../kspace.cpp:332)
  G vector (1/distance) = 0.0599936
  grid = 16 16 16
  stencil order = 5
  estimated absolute RMS force accuracy = 0.038451
  estimated relative force accuracy = 0.000115794
  using double precision KISS FFT
  3d grid and FFT values/proc = 9261 4096
Neighbor list info ...
  update every 1 steps, delay 0 steps, check yes
  max neighbors/atom: 2000, page size: 100000
  master list distance cutoff = 14
  ghost atom cutoff = 14
  binsize = 7, bins = 48 48 48
  1 neighbor lists, perpetual/occasional/extra = 1 0 0
  (1) pair lj/cut/coul/long, perpetual
      attributes: half, newton on
      pair build: half/bin/newton
      stencil: half/bin/3d/newton
      bin: standard
Per MPI rank memory allocation (min/avg/max) = 20.26 | 20.26 | 20.26 Mbytes
Step Temp E_pair E_mol TotEng Press 
       0    1229.8392    723.36858    1522.1961    7234.8778    4.3272717 
      16    1229.8392    718.50139    1291.7172    6999.5317    5.2375019 
Loop time of 0.452546 on 1 procs for 16 steps with 1362 atoms

100.1% CPU use with 1 MPI tasks x no OpenMP threads

Minimization stats:
  Stopping criterion = linesearch alpha is zero
  Energy initial, next-to-last, final = 
         2245.56466486      2010.21860524      2010.21860524
  Force two-norm initial, final = 731.589 88.5638
  Force max component initial, final = 347.205 16.9025
  Final line search alpha, max atom move = 1.36124e-12 2.30084e-11
  Iterations, force evaluations = 16 90

MPI task timing breakdown:
Section |  min time  |  avg time  |  max time  |%varavg| %total
---------------------------------------------------------------
Pair    | 0.23443    | 0.23443    | 0.23443    |   0.0 | 51.80
Bond    | 0.060414   | 0.060414   | 0.060414   |   0.0 | 13.35
Kspace  | 0.15566    | 0.15566    | 0.15566    |   0.0 | 34.40
Neigh   | 0          | 0          | 0          |   0.0 |  0.00
Comm    | 3.9101e-05 | 3.9101e-05 | 3.9101e-05 |   0.0 |  0.01
Output  | 0          | 0          | 0          |   0.0 |  0.00
Modify  | 0          | 0          | 0          |   0.0 |  0.00
Other   |            | 0.002005   |            |       |  0.44

Nlocal:    1362 ave 1362 max 1362 min
Histogram: 1 0 0 0 0 0 0 0 0 0
Nghost:    0 ave 0 max 0 min
Histogram: 1 0 0 0 0 0 0 0 0 0
Neighs:    71401 ave 71401 max 71401 min
Histogram: 1 0 0 0 0 0 0 0 0 0

Total # of neighbors = 71401
Ave neighs/atom = 52.4236
Ave special neighs/atom = 11.2496
Neighbor list builds = 0
Dangerous builds = 0
write_dump all custom pysimm.dump.tmp id q x y z vx vy vz
quit


################################################################################
##################################    Init    ##################################
################################################################################
units           real
atom_style      full
pair_style      lj/cut/coul/long 12.0  12.0
kspace_style    pppm 1e-4
bond_style      harmonic
angle_style     harmonic
dihedral_style  fourier
improper_style  cvff
special_bonds   amber
pair_modify     mix arithmetic
read_data       temp.lmps
  orthogonal box = (-171.012 -171.012 -171.012) to (171.012 171.012 171.012)
  1 by 1 by 1 MPI processor grid
  reading atoms ...
  1447 atoms
  reading velocities ...
  1447 velocities
  scanning bonds ...
  3 = max bonds/atom
  scanning angles ...
  6 = max angles/atom
  scanning dihedrals ...
  24 = max dihedrals/atom
  scanning impropers ...
  2 = max impropers/atom
  reading bonds ...
  1565 bonds
  reading angles ...
  2754 angles
  reading dihedrals ...
  4246 dihedrals
  reading impropers ...
  476 impropers
  4 = max # of 1-2 neighbors
  10 = max # of 1-3 neighbors
  19 = max # of 1-4 neighbors
  22 = max # of special neighbors
  special bonds CPU = 0.00118303 secs
  read_data CPU = 0.015692 secs
################################################################################

min_style cg
minimize 1e-06 1e-06 1000000 10000000
WARNING: Using 'neigh_modify every 1 delay 0 check yes' setting during minimization (../min.cpp:190)
PPPM initialization ...
  using 12-bit tables for long-range coulomb (../kspace.cpp:332)
  G vector (1/distance) = 0.065053
  grid = 18 18 18
  stencil order = 5
  estimated absolute RMS force accuracy = 0.0350357
  estimated relative force accuracy = 0.000105509
  using double precision KISS FFT
  3d grid and FFT values/proc = 12167 5832
Neighbor list info ...
  update every 1 steps, delay 0 steps, check yes
  max neighbors/atom: 2000, page size: 100000
  master list distance cutoff = 14
  ghost atom cutoff = 14
  binsize = 7, bins = 49 49 49
  1 neighbor lists, perpetual/occasional/extra = 1 0 0
  (1) pair lj/cut/coul/long, perpetual
      attributes: half, newton on
      pair build: half/bin/newton
      stencil: half/bin/3d/newton
      bin: standard
Per MPI rank memory allocation (min/avg/max) = 20.56 | 20.56 | 20.56 Mbytes
Step Temp E_pair E_mol TotEng Press 
       0    1342.5845    768.58189    1607.6959    8163.1544    5.1724171 
      60    1342.5845    718.36402    1263.6963     7768.937    5.9729625 
Loop time of 1.09626 on 1 procs for 60 steps with 1447 atoms

100.0% CPU use with 1 MPI tasks x no OpenMP threads

Minimization stats:
  Stopping criterion = linesearch alpha is zero
  Energy initial, next-to-last, final = 
          2376.2777522      1982.06033579      1982.06033579
  Force two-norm initial, final = 734.071 62.8712
  Force max component initial, final = 367.39 12.519
  Final line search alpha, max atom move = 2.34205e-12 2.93201e-11
  Iterations, force evaluations = 60 193

MPI task timing breakdown:
Section |  min time  |  avg time  |  max time  |%varavg| %total
---------------------------------------------------------------
Pair    | 0.50648    | 0.50648    | 0.50648    |   0.0 | 46.20
Bond    | 0.13782    | 0.13782    | 0.13782    |   0.0 | 12.57
Kspace  | 0.4411     | 0.4411     | 0.4411     |   0.0 | 40.24
Neigh   | 0.0052762  | 0.0052762  | 0.0052762  |   0.0 |  0.48
Comm    | 0.00014567 | 0.00014567 | 0.00014567 |   0.0 |  0.01
Output  | 0          | 0          | 0          |   0.0 |  0.00
Modify  | 0          | 0          | 0          |   0.0 |  0.00
Other   |            | 0.005432   |            |       |  0.50

Nlocal:    1447 ave 1447 max 1447 min
Histogram: 1 0 0 0 0 0 0 0 0 0
Nghost:    0 ave 0 max 0 min
Histogram: 1 0 0 0 0 0 0 0 0 0
Neighs:    72812 ave 72812 max 72812 min
Histogram: 1 0 0 0 0 0 0 0 0 0

Total # of neighbors = 72812
Ave neighs/atom = 50.3193
Ave special neighs/atom = 11.2509
Neighbor list builds = 2
Dangerous builds = 0
write_dump all custom pysimm.dump.tmp id q x y z vx vy vz
quit


################################################################################
##################################    Init    ##################################
################################################################################
units           real
atom_style      full
pair_style      lj/cut/coul/long 12.0  12.0
kspace_style    pppm 1e-4
bond_style      harmonic
angle_style     harmonic
dihedral_style  fourier
improper_style  cvff
special_bonds   amber
pair_modify     mix arithmetic
read_data       temp.lmps
  orthogonal box = (-174.503 -174.503 -174.503) to (174.503 174.503 174.503)
  1 by 1 by 1 MPI processor grid
  reading atoms ...
  1532 atoms
  reading velocities ...
  1532 velocities
  scanning bonds ...
  3 = max bonds/atom
  scanning angles ...
  6 = max angles/atom
  scanning dihedrals ...
  24 = max dihedrals/atom
  scanning impropers ...
  2 = max impropers/atom
  reading bonds ...
  1657 bonds
  reading angles ...
  2916 angles
  reading dihedrals ...
  4496 dihedrals
  reading impropers ...
  504 impropers
  4 = max # of 1-2 neighbors
  10 = max # of 1-3 neighbors
  19 = max # of 1-4 neighbors
  22 = max # of special neighbors
  special bonds CPU = 0.00125098 secs
  read_data CPU = 0.0166631 secs
################################################################################

min_style cg
minimize 1e-06 1e-06 1000000 10000000
WARNING: Using 'neigh_modify every 1 delay 0 check yes' setting during minimization (../min.cpp:190)
PPPM initialization ...
  using 12-bit tables for long-range coulomb (../kspace.cpp:332)
  G vector (1/distance) = 0.0639646
  grid = 18 18 18
  stencil order = 5
  estimated absolute RMS force accuracy = 0.0356907
  estimated relative force accuracy = 0.000107482
  using double precision KISS FFT
  3d grid and FFT values/proc = 12167 5832
Neighbor list info ...
  update every 1 steps, delay 0 steps, check yes
  max neighbors/atom: 2000, page size: 100000
  master list distance cutoff = 14
  ghost atom cutoff = 14
  binsize = 7, bins = 50 50 50
  1 neighbor lists, perpetual/occasional/extra = 1 0 0
  (1) pair lj/cut/coul/long, perpetual
      attributes: half, newton on
      pair build: half/bin/newton
      stencil: half/bin/3d/newton
      bin: standard
Per MPI rank memory allocation (min/avg/max) = 20.99 | 20.99 | 20.99 Mbytes
Step Temp E_pair E_mol TotEng Press 
       0    1090.1851    731.80918    1685.5982    7392.5982    4.1460281 
      16    1090.1851    727.01408    1482.9525    7185.1574    4.6205477 
Loop time of 0.659784 on 1 procs for 16 steps with 1532 atoms

100.0% CPU use with 1 MPI tasks x no OpenMP threads

Minimization stats:
  Stopping criterion = linesearch alpha is zero
  Energy initial, next-to-last, final = 
         2417.40736925      2209.96657255      2209.96657255
  Force two-norm initial, final = 732.893 60.4074
  Force max component initial, final = 347.983 11.1048
  Final line search alpha, max atom move = 2.76128e-12 3.06636e-11
  Iterations, force evaluations = 16 91

MPI task timing breakdown:
Section |  min time  |  avg time  |  max time  |%varavg| %total
---------------------------------------------------------------
Pair    | 0.37296    | 0.37296    | 0.37296    |   0.0 | 56.53
Bond    | 0.070324   | 0.070324   | 0.070324   |   0.0 | 10.66
Kspace  | 0.21417    | 0.21417    | 0.21417    |   0.0 | 32.46
Neigh   | 0          | 0          | 0          |   0.0 |  0.00
Comm    | 3.7193e-05 | 3.7193e-05 | 3.7193e-05 |   0.0 |  0.01
Output  | 0          | 0          | 0          |   0.0 |  0.00
Modify  | 0          | 0          | 0          |   0.0 |  0.00
Other   |            | 0.002291   |            |       |  0.35

Nlocal:    1532 ave 1532 max 1532 min
Histogram: 1 0 0 0 0 0 0 0 0 0
Nghost:    0 ave 0 max 0 min
Histogram: 1 0 0 0 0 0 0 0 0 0
Neighs:    121713 ave 121713 max 121713 min
Histogram: 1 0 0 0 0 0 0 0 0 0

Total # of neighbors = 121713
Ave neighs/atom = 79.4471
Ave special neighs/atom = 11.252
Neighbor list builds = 0
Dangerous builds = 0
write_dump all custom pysimm.dump.tmp id q x y z vx vy vz
quit


################################################################################
##################################    Init    ##################################
################################################################################
units           real
atom_style      full
pair_style      lj/cut/coul/long 12.0  12.0
kspace_style    pppm 1e-4
bond_style      harmonic
angle_style     harmonic
dihedral_style  fourier
improper_style  cvff
special_bonds   amber
pair_modify     mix arithmetic
read_data       temp.lmps
  orthogonal box = (-177.86 -177.86 -177.86) to (177.86 177.86 177.86)
  1 by 1 by 1 MPI processor grid
  reading atoms ...
  1617 atoms
  reading velocities ...
  1617 velocities
  scanning bonds ...
  3 = max bonds/atom
  scanning angles ...
  6 = max angles/atom
  scanning dihedrals ...
  24 = max dihedrals/atom
  scanning impropers ...
  2 = max impropers/atom
  reading bonds ...
  1749 bonds
  reading angles ...
  3078 angles
  reading dihedrals ...
  4746 dihedrals
  reading impropers ...
  532 impropers
  4 = max # of 1-2 neighbors
  10 = max # of 1-3 neighbors
  19 = max # of 1-4 neighbors
  22 = max # of special neighbors
  special bonds CPU = 0.00133204 secs
  read_data CPU = 0.017231 secs
################################################################################

min_style cg
minimize 1e-06 1e-06 1000000 10000000
WARNING: Using 'neigh_modify every 1 delay 0 check yes' setting during minimization (../min.cpp:190)
PPPM initialization ...
  using 12-bit tables for long-range coulomb (../kspace.cpp:332)
  G vector (1/distance) = 0.0629512
  grid = 18 18 18
  stencil order = 5
  estimated absolute RMS force accuracy = 0.036303
  estimated relative force accuracy = 0.000109325
  using double precision KISS FFT
  3d grid and FFT values/proc = 12167 5832
Neighbor list info ...
  update every 1 steps, delay 0 steps, check yes
  max neighbors/atom: 2000, page size: 100000
  master list distance cutoff = 14
  ghost atom cutoff = 14
  binsize = 7, bins = 51 51 51
  1 neighbor lists, perpetual/occasional/extra = 1 0 0
  (1) pair lj/cut/coul/long, perpetual
      attributes: half, newton on
      pair build: half/bin/newton
      stencil: half/bin/3d/newton
      bin: standard
Per MPI rank memory allocation (min/avg/max) = 21.03 | 21.03 | 21.03 Mbytes
Step Temp E_pair E_mol TotEng Press 
       0     1037.528    797.33659    1728.3568    7523.4543    4.0774268 
      18     1037.528    798.87147    1504.6246     7301.257    4.9447561 
Loop time of 0.631044 on 1 procs for 18 steps with 1617 atoms

100.0% CPU use with 1 MPI tasks x no OpenMP threads

Minimization stats:
  Stopping criterion = linesearch alpha is zero
  Energy initial, next-to-last, final = 
         2525.69334445      2303.49603757      2303.49603757
  Force two-norm initial, final = 735.461 69.2024
  Force max component initial, final = 375.329 13.6644
  Final line search alpha, max atom move = 1.51121e-12 2.06498e-11
  Iterations, force evaluations = 18 94

MPI task timing breakdown:
Section |  min time  |  avg time  |  max time  |%varavg| %total
---------------------------------------------------------------
Pair    | 0.33892    | 0.33892    | 0.33892    |   0.0 | 53.71
Bond    | 0.073467   | 0.073467   | 0.073467   |   0.0 | 11.64
Kspace  | 0.21615    | 0.21615    | 0.21615    |   0.0 | 34.25
Neigh   | 0          | 0          | 0          |   0.0 |  0.00
Comm    | 4.8161e-05 | 4.8161e-05 | 4.8161e-05 |   0.0 |  0.01
Output  | 0          | 0          | 0          |   0.0 |  0.00
Modify  | 0          | 0          | 0          |   0.0 |  0.00
Other   |            | 0.002462   |            |       |  0.39

Nlocal:    1617 ave 1617 max 1617 min
Histogram: 1 0 0 0 0 0 0 0 0 0
Nghost:    0 ave 0 max 0 min
Histogram: 1 0 0 0 0 0 0 0 0 0
Neighs:    104395 ave 104395 max 104395 min
Histogram: 1 0 0 0 0 0 0 0 0 0

Total # of neighbors = 104395
Ave neighs/atom = 64.5609
Ave special neighs/atom = 11.2529
Neighbor list builds = 0
Dangerous builds = 0
write_dump all custom pysimm.dump.tmp id q x y z vx vy vz
quit


################################################################################
##################################    Init    ##################################
################################################################################
units           real
atom_style      full
pair_style      lj/cut/coul/long 12.0  12.0
kspace_style    pppm 1e-4
bond_style      harmonic
angle_style     harmonic
dihedral_style  fourier
improper_style  cvff
special_bonds   amber
pair_modify     mix arithmetic
read_data       temp.lmps
  orthogonal box = (-181.094 -181.094 -181.094) to (181.094 181.094 181.094)
  1 by 1 by 1 MPI processor grid
  reading atoms ...
  1702 atoms
  reading velocities ...
  1702 velocities
  scanning bonds ...
  3 = max bonds/atom
  scanning angles ...
  6 = max angles/atom
  scanning dihedrals ...
  24 = max dihedrals/atom
  scanning impropers ...
  2 = max impropers/atom
  reading bonds ...
  1841 bonds
  reading angles ...
  3240 angles
  reading dihedrals ...
  4996 dihedrals
  reading impropers ...
  560 impropers
  4 = max # of 1-2 neighbors
  10 = max # of 1-3 neighbors
  19 = max # of 1-4 neighbors
  22 = max # of special neighbors
  special bonds CPU = 0.00139999 secs
  read_data CPU = 0.0181389 secs
################################################################################

min_style cg
minimize 1e-06 1e-06 1000000 10000000
WARNING: Using 'neigh_modify every 1 delay 0 check yes' setting during minimization (../min.cpp:190)
PPPM initialization ...
  using 12-bit tables for long-range coulomb (../kspace.cpp:332)
  G vector (1/distance) = 0.0620042
  grid = 18 18 18
  stencil order = 5
  estimated absolute RMS force accuracy = 0.0368769
  estimated relative force accuracy = 0.000111054
  using double precision KISS FFT
  3d grid and FFT values/proc = 12167 5832
Neighbor list info ...
  update every 1 steps, delay 0 steps, check yes
  max neighbors/atom: 2000, page size: 100000
  master list distance cutoff = 14
  ghost atom cutoff = 14
  binsize = 7, bins = 52 52 52
  1 neighbor lists, perpetual/occasional/extra = 1 0 0
  (1) pair lj/cut/coul/long, perpetual
      attributes: half, newton on
      pair build: half/bin/newton
      stencil: half/bin/3d/newton
      bin: standard
Per MPI rank memory allocation (min/avg/max) = 21.08 | 21.08 | 21.08 Mbytes
Step Temp E_pair E_mol TotEng Press 
       0    920.52828    868.43583    1665.3817    7201.2253    3.6458114 
      20    920.52828    869.26392    1432.6947    6969.3665    4.6299933 
Loop time of 0.669643 on 1 procs for 20 steps with 1702 atoms

100.0% CPU use with 1 MPI tasks x no OpenMP threads

Minimization stats:
  Stopping criterion = linesearch alpha is zero
  Energy initial, next-to-last, final = 
         2533.81749259       2301.9586595       2301.9586595
  Force two-norm initial, final = 730.957 58.4422
  Force max component initial, final = 308.441 10.4013
  Final line search alpha, max atom move = 2.17333e-12 2.26054e-11
  Iterations, force evaluations = 20 99

MPI task timing breakdown:
Section |  min time  |  avg time  |  max time  |%varavg| %total
---------------------------------------------------------------
Pair    | 0.35729    | 0.35729    | 0.35729    |   0.0 | 53.35
Bond    | 0.081738   | 0.081738   | 0.081738   |   0.0 | 12.21
Kspace  | 0.22782    | 0.22782    | 0.22782    |   0.0 | 34.02
Neigh   | 0          | 0          | 0          |   0.0 |  0.00
Comm    | 4.8161e-05 | 4.8161e-05 | 4.8161e-05 |   0.0 |  0.01
Output  | 0          | 0          | 0          |   0.0 |  0.00
Modify  | 0          | 0          | 0          |   0.0 |  0.00
Other   |            | 0.002753   |            |       |  0.41

Nlocal:    1702 ave 1702 max 1702 min
Histogram: 1 0 0 0 0 0 0 0 0 0
Nghost:    0 ave 0 max 0 min
Histogram: 1 0 0 0 0 0 0 0 0 0
Neighs:    102783 ave 102783 max 102783 min
Histogram: 1 0 0 0 0 0 0 0 0 0

Total # of neighbors = 102783
Ave neighs/atom = 60.3895
Ave special neighs/atom = 11.2538
Neighbor list builds = 0
Dangerous builds = 0
write_dump all custom pysimm.dump.tmp id q x y z vx vy vz
quit


################################################################################
##################################    Init    ##################################
################################################################################
units           real
atom_style      full
pair_style      lj/cut/coul/long 12.0  12.0
kspace_style    pppm 1e-4
bond_style      harmonic
angle_style     harmonic
dihedral_style  fourier
improper_style  cvff
special_bonds   amber
pair_modify     mix arithmetic
read_data       temp.lmps
  orthogonal box = (-184.217 -184.217 -184.217) to (184.217 184.217 184.217)
  1 by 1 by 1 MPI processor grid
  reading atoms ...
  1787 atoms
  reading velocities ...
  1787 velocities
  scanning bonds ...
  3 = max bonds/atom
  scanning angles ...
  6 = max angles/atom
  scanning dihedrals ...
  24 = max dihedrals/atom
  scanning impropers ...
  2 = max impropers/atom
  reading bonds ...
  1933 bonds
  reading angles ...
  3402 angles
  reading dihedrals ...
  5246 dihedrals
  reading impropers ...
  588 impropers
  4 = max # of 1-2 neighbors
  10 = max # of 1-3 neighbors
  19 = max # of 1-4 neighbors
  22 = max # of special neighbors
  special bonds CPU = 0.00151801 secs
  read_data CPU = 0.0188751 secs
################################################################################

min_style cg
minimize 1e-06 1e-06 1000000 10000000
WARNING: Using 'neigh_modify every 1 delay 0 check yes' setting during minimization (../min.cpp:190)
PPPM initialization ...
  using 12-bit tables for long-range coulomb (../kspace.cpp:332)
  G vector (1/distance) = 0.0611172
  grid = 18 18 18
  stencil order = 5
  estimated absolute RMS force accuracy = 0.0374193
  estimated relative force accuracy = 0.000112687
  using double precision KISS FFT
  3d grid and FFT values/proc = 12167 5832
Neighbor list info ...
  update every 1 steps, delay 0 steps, check yes
  max neighbors/atom: 2000, page size: 100000
  master list distance cutoff = 14
  ghost atom cutoff = 14
  binsize = 7, bins = 53 53 53
  1 neighbor lists, perpetual/occasional/extra = 1 0 0
  (1) pair lj/cut/coul/long, perpetual
      attributes: half, newton on
      pair build: half/bin/newton
      stencil: half/bin/3d/newton
      bin: standard
Per MPI rank memory allocation (min/avg/max) = 21.13 | 21.13 | 21.13 Mbytes
Step Temp E_pair E_mol TotEng Press 
       0      863.233    906.65847    1893.3779    7395.6529    3.7841027 
      42      863.233    848.34289    1545.3131    6989.2726    3.9498208 
Loop time of 1.50599 on 1 procs for 42 steps with 1787 atoms

100.1% CPU use with 1 MPI tasks x no OpenMP threads

Minimization stats:
  Stopping criterion = linesearch alpha is zero
  Energy initial, next-to-last, final = 
         2800.03634039      2393.65602477      2393.65602477
  Force two-norm initial, final = 737.275 80.1714
  Force max component initial, final = 290.673 11.8826
  Final line search alpha, max atom move = 1.88416e-12 2.23886e-11
  Iterations, force evaluations = 42 203

MPI task timing breakdown:
Section |  min time  |  avg time  |  max time  |%varavg| %total
---------------------------------------------------------------
Pair    | 0.84271    | 0.84271    | 0.84271    |   0.0 | 55.96
Bond    | 0.17535    | 0.17535    | 0.17535    |   0.0 | 11.64
Kspace  | 0.47782    | 0.47782    | 0.47782    |   0.0 | 31.73
Neigh   | 0.004004   | 0.004004   | 0.004004   |   0.0 |  0.27
Comm    | 0.00010729 | 0.00010729 | 0.00010729 |   0.0 |  0.01
Output  | 0          | 0          | 0          |   0.0 |  0.00
Modify  | 0          | 0          | 0          |   0.0 |  0.00
Other   |            | 0.005995   |            |       |  0.40

Nlocal:    1787 ave 1787 max 1787 min
Histogram: 1 0 0 0 0 0 0 0 0 0
Nghost:    0 ave 0 max 0 min
Histogram: 1 0 0 0 0 0 0 0 0 0
Neighs:    123647 ave 123647 max 123647 min
Histogram: 1 0 0 0 0 0 0 0 0 0

Total # of neighbors = 123647
Ave neighs/atom = 69.1925
Ave special neighs/atom = 11.2546
Neighbor list builds = 1
Dangerous builds = 0
write_dump all custom pysimm.dump.tmp id q x y z vx vy vz
quit


################################################################################
##################################    Init    ##################################
################################################################################
units           real
atom_style      full
pair_style      lj/cut/coul/long 12.0  12.0
kspace_style    pppm 1e-4
bond_style      harmonic
angle_style     harmonic
dihedral_style  fourier
improper_style  cvff
special_bonds   amber
pair_modify     mix arithmetic
read_data       temp.lmps
  orthogonal box = (-187.238 -187.238 -187.238) to (187.238 187.238 187.238)
  1 by 1 by 1 MPI processor grid
  reading atoms ...
  1872 atoms
  reading velocities ...
  1872 velocities
  scanning bonds ...
  3 = max bonds/atom
  scanning angles ...
  6 = max angles/atom
  scanning dihedrals ...
  24 = max dihedrals/atom
  scanning impropers ...
  2 = max impropers/atom
  reading bonds ...
  2025 bonds
  reading angles ...
  3564 angles
  reading dihedrals ...
  5496 dihedrals
  reading impropers ...
  616 impropers
  4 = max # of 1-2 neighbors
  10 = max # of 1-3 neighbors
  19 = max # of 1-4 neighbors
  22 = max # of special neighbors
  special bonds CPU = 0.00154996 secs
  read_data CPU = 0.019635 secs
################################################################################

min_style cg
minimize 1e-06 1e-06 1000000 10000000
WARNING: Using 'neigh_modify every 1 delay 0 check yes' setting during minimization (../min.cpp:190)
PPPM initialization ...
  using 12-bit tables for long-range coulomb (../kspace.cpp:332)
  G vector (1/distance) = 0.0602809
  grid = 18 18 18
  stencil order = 5
  estimated absolute RMS force accuracy = 0.0379258
  estimated relative force accuracy = 0.000114212
  using double precision KISS FFT
  3d grid and FFT values/proc = 12167 5832
Neighbor list info ...
  update every 1 steps, delay 0 steps, check yes
  max neighbors/atom: 2000, page size: 100000
  master list distance cutoff = 14
  ghost atom cutoff = 14
  binsize = 7, bins = 54 54 54
  1 neighbor lists, perpetual/occasional/extra = 1 0 0
  (1) pair lj/cut/coul/long, perpetual
      attributes: half, newton on
      pair build: half/bin/newton
      stencil: half/bin/3d/newton
      bin: standard
Per MPI rank memory allocation (min/avg/max) = 21.18 | 21.18 | 21.18 Mbytes
Step Temp E_pair E_mol TotEng Press 
       0    821.53303    956.11571    1915.7806    7453.6646    3.1233083 
       9    821.53303    947.71535    1727.4662    7256.9498     3.593738 
Loop time of 0.559026 on 1 procs for 9 steps with 1872 atoms

100.0% CPU use with 1 MPI tasks x no OpenMP threads

Minimization stats:
  Stopping criterion = linesearch alpha is zero
  Energy initial, next-to-last, final = 
         2871.89633027      2675.18154172      2675.18154172
  Force two-norm initial, final = 733.694 83.7771
  Force max component initial, final = 304.091 22.4419
  Final line search alpha, max atom move = 1.68904e-12 3.79052e-11
  Iterations, force evaluations = 9 77

MPI task timing breakdown:
Section |  min time  |  avg time  |  max time  |%varavg| %total
---------------------------------------------------------------
Pair    | 0.29919    | 0.29919    | 0.29919    |   0.0 | 53.52
Bond    | 0.070142   | 0.070142   | 0.070142   |   0.0 | 12.55
Kspace  | 0.18759    | 0.18759    | 0.18759    |   0.0 | 33.56
Neigh   | 0          | 0          | 0          |   0.0 |  0.00
Comm    | 3.9339e-05 | 3.9339e-05 | 3.9339e-05 |   0.0 |  0.01
Output  | 0          | 0          | 0          |   0.0 |  0.00
Modify  | 0          | 0          | 0          |   0.0 |  0.00
Other   |            | 0.00206    |            |       |  0.37

Nlocal:    1872 ave 1872 max 1872 min
Histogram: 1 0 0 0 0 0 0 0 0 0
Nghost:    0 ave 0 max 0 min
Histogram: 1 0 0 0 0 0 0 0 0 0
Neighs:    112810 ave 112810 max 112810 min
Histogram: 1 0 0 0 0 0 0 0 0 0

Total # of neighbors = 112810
Ave neighs/atom = 60.2618
Ave special neighs/atom = 11.2553
Neighbor list builds = 0
Dangerous builds = 0
write_dump all custom pysimm.dump.tmp id q x y z vx vy vz
quit


################################################################################
##################################    Init    ##################################
################################################################################
units           real
atom_style      full
pair_style      lj/cut/coul/long 12.0  12.0
kspace_style    pppm 1e-4
bond_style      harmonic
angle_style     harmonic
dihedral_style  fourier
improper_style  cvff
special_bonds   amber
pair_modify     mix arithmetic
read_data       temp.lmps
  orthogonal box = (-190.164 -190.164 -190.164) to (190.164 190.164 190.164)
  1 by 1 by 1 MPI processor grid
  reading atoms ...
  1957 atoms
  reading velocities ...
  1957 velocities
  scanning bonds ...
  3 = max bonds/atom
  scanning angles ...
  6 = max angles/atom
  scanning dihedrals ...
  24 = max dihedrals/atom
  scanning impropers ...
  2 = max impropers/atom
  reading bonds ...
  2117 bonds
  reading angles ...
  3726 angles
  reading dihedrals ...
  5746 dihedrals
  reading impropers ...
  644 impropers
  4 = max # of 1-2 neighbors
  10 = max # of 1-3 neighbors
  19 = max # of 1-4 neighbors
  22 = max # of special neighbors
  special bonds CPU = 0.00162697 secs
  read_data CPU = 0.02036 secs
################################################################################

min_style cg
minimize 1e-06 1e-06 1000000 10000000
WARNING: Using 'neigh_modify every 1 delay 0 check yes' setting during minimization (../min.cpp:190)
PPPM initialization ...
  using 12-bit tables for long-range coulomb (../kspace.cpp:332)
  G vector (1/distance) = 0.0594924
  grid = 18 18 18
  stencil order = 5
  estimated absolute RMS force accuracy = 0.0384053
  estimated relative force accuracy = 0.000115656
  using double precision KISS FFT
  3d grid and FFT values/proc = 12167 5832
Neighbor list info ...
  update every 1 steps, delay 0 steps, check yes
  max neighbors/atom: 2000, page size: 100000
  master list distance cutoff = 14
  ghost atom cutoff = 14
  binsize = 7, bins = 55 55 55
  1 neighbor lists, perpetual/occasional/extra = 1 0 0
  (1) pair lj/cut/coul/long, perpetual
      attributes: half, newton on
      pair build: half/bin/newton
      stencil: half/bin/3d/newton
      bin: standard
Per MPI rank memory allocation (min/avg/max) = 21.23 | 21.23 | 21.23 Mbytes
Step Temp E_pair E_mol TotEng Press 
       0    899.26589    963.81579    1890.7263    8097.6799    3.3003478 
      17    899.26589    961.06827    1682.5902    7886.7963    3.9754847 
Loop time of 0.676794 on 1 procs for 17 steps with 1957 atoms

99.9% CPU use with 1 MPI tasks x no OpenMP threads

Minimization stats:
  Stopping criterion = linesearch alpha is zero
  Energy initial, next-to-last, final = 
         2854.54207583      2643.65844226      2643.65844226
  Force two-norm initial, final = 733.196 56.6646
  Force max component initial, final = 306.82 10.3146
  Final line search alpha, max atom move = 2.68179e-12 2.76616e-11
  Iterations, force evaluations = 17 92

MPI task timing breakdown:
Section |  min time  |  avg time  |  max time  |%varavg| %total
---------------------------------------------------------------
Pair    | 0.35365    | 0.35365    | 0.35365    |   0.0 | 52.25
Bond    | 0.089361   | 0.089361   | 0.089361   |   0.0 | 13.20
Kspace  | 0.23091    | 0.23091    | 0.23091    |   0.0 | 34.12
Neigh   | 0          | 0          | 0          |   0.0 |  0.00
Comm    | 3.6955e-05 | 3.6955e-05 | 3.6955e-05 |   0.0 |  0.01
Output  | 0          | 0          | 0          |   0.0 |  0.00
Modify  | 0          | 0          | 0          |   0.0 |  0.00
Other   |            | 0.002837   |            |       |  0.42

Nlocal:    1957 ave 1957 max 1957 min
Histogram: 1 0 0 0 0 0 0 0 0 0
Nghost:    0 ave 0 max 0 min
Histogram: 1 0 0 0 0 0 0 0 0 0
Neighs:    105934 ave 105934 max 105934 min
Histogram: 1 0 0 0 0 0 0 0 0 0

Total # of neighbors = 105934
Ave neighs/atom = 54.1308
Ave special neighs/atom = 11.256
Neighbor list builds = 0
Dangerous builds = 0
write_dump all custom pysimm.dump.tmp id q x y z vx vy vz
quit


################################################################################
##################################    Init    ##################################
################################################################################
units           real
atom_style      full
pair_style      lj/cut/coul/long 12.0  12.0
kspace_style    pppm 1e-4
bond_style      harmonic
angle_style     harmonic
dihedral_style  fourier
improper_style  cvff
special_bonds   amber
pair_modify     mix arithmetic
read_data       temp.lmps
  orthogonal box = (-193.002 -193.002 -193.002) to (193.002 193.002 193.002)
  1 by 1 by 1 MPI processor grid
  reading atoms ...
  2042 atoms
  reading velocities ...
  2042 velocities
  scanning bonds ...
  3 = max bonds/atom
  scanning angles ...
  6 = max angles/atom
  scanning dihedrals ...
  24 = max dihedrals/atom
  scanning impropers ...
  2 = max impropers/atom
  reading bonds ...
  2209 bonds
  reading angles ...
  3888 angles
  reading dihedrals ...
  5996 dihedrals
  reading impropers ...
  672 impropers
  4 = max # of 1-2 neighbors
  10 = max # of 1-3 neighbors
  19 = max # of 1-4 neighbors
  22 = max # of special neighbors
  special bonds CPU = 0.00166512 secs
  read_data CPU = 0.02109 secs
################################################################################

min_style cg
minimize 1e-06 1e-06 1000000 10000000
WARNING: Using 'neigh_modify every 1 delay 0 check yes' setting during minimization (../min.cpp:190)
PPPM initialization ...
  using 12-bit tables for long-range coulomb (../kspace.cpp:332)
  G vector (1/distance) = 0.0587468
  grid = 18 18 18
  stencil order = 5
  estimated absolute RMS force accuracy = 0.0388597
  estimated relative force accuracy = 0.000117025
  using double precision KISS FFT
  3d grid and FFT values/proc = 12167 5832
Neighbor list info ...
  update every 1 steps, delay 0 steps, check yes
  max neighbors/atom: 2000, page size: 100000
  master list distance cutoff = 14
  ghost atom cutoff = 14
  binsize = 7, bins = 56 56 56
  1 neighbor lists, perpetual/occasional/extra = 1 0 0
  (1) pair lj/cut/coul/long, perpetual
      attributes: half, newton on
      pair build: half/bin/newton
      stencil: half/bin/3d/newton
      bin: standard
Per MPI rank memory allocation (min/avg/max) = 21.28 | 21.28 | 21.28 Mbytes
Step Temp E_pair E_mol TotEng Press 
       0    775.89998    1014.0183    1963.9536     7698.418    2.2432994 
      16    775.89998    1007.3746    1753.3469    7481.1676    2.8534081 
Loop time of 0.717034 on 1 procs for 16 steps with 2042 atoms

99.7% CPU use with 1 MPI tasks x no OpenMP threads

Minimization stats:
  Stopping criterion = linesearch alpha is zero
  Energy initial, next-to-last, final = 
         2977.97188486      2760.72148439      2760.72148439
  Force two-norm initial, final = 733.301 61.8649
  Force max component initial, final = 300.816 14.4619
  Final line search alpha, max atom move = 2.14274e-12 3.09881e-11
  Iterations, force evaluations = 16 91

MPI task timing breakdown:
Section |  min time  |  avg time  |  max time  |%varavg| %total
---------------------------------------------------------------
Pair    | 0.38139    | 0.38139    | 0.38139    |   0.0 | 53.19
Bond    | 0.093872   | 0.093872   | 0.093872   |   0.0 | 13.09
Kspace  | 0.23878    | 0.23878    | 0.23878    |   0.0 | 33.30
Neigh   | 0          | 0          | 0          |   0.0 |  0.00
Comm    | 4.3631e-05 | 4.3631e-05 | 4.3631e-05 |   0.0 |  0.01
Output  | 0          | 0          | 0          |   0.0 |  0.00
Modify  | 0          | 0          | 0          |   0.0 |  0.00
Other   |            | 0.002954   |            |       |  0.41

Nlocal:    2042 ave 2042 max 2042 min
Histogram: 1 0 0 0 0 0 0 0 0 0
Nghost:    0 ave 0 max 0 min
Histogram: 1 0 0 0 0 0 0 0 0 0
Neighs:    113768 ave 113768 max 113768 min
Histogram: 1 0 0 0 0 0 0 0 0 0

Total # of neighbors = 113768
Ave neighs/atom = 55.714
Ave special neighs/atom = 11.2566
Neighbor list builds = 0
Dangerous builds = 0
write_dump all custom pysimm.dump.tmp id q x y z vx vy vz
quit


################################################################################
##################################    Init    ##################################
################################################################################
units           real
atom_style      full
pair_style      lj/cut/coul/long 12.0  12.0
kspace_style    pppm 1e-4
bond_style      harmonic
angle_style     harmonic
dihedral_style  fourier
improper_style  cvff
special_bonds   amber
pair_modify     mix arithmetic
read_data       temp.lmps
  orthogonal box = (-195.76 -195.76 -195.76) to (195.76 195.76 195.76)
  1 by 1 by 1 MPI processor grid
  reading atoms ...
  2127 atoms
  reading velocities ...
  2127 velocities
  scanning bonds ...
  3 = max bonds/atom
  scanning angles ...
  6 = max angles/atom
  scanning dihedrals ...
  24 = max dihedrals/atom
  scanning impropers ...
  2 = max impropers/atom
  reading bonds ...
  2301 bonds
  reading angles ...
  4050 angles
  reading dihedrals ...
  6246 dihedrals
  reading impropers ...
  700 impropers
  4 = max # of 1-2 neighbors
  10 = max # of 1-3 neighbors
  19 = max # of 1-4 neighbors
  22 = max # of special neighbors
  special bonds CPU = 0.00171113 secs
  read_data CPU = 0.021735 secs
################################################################################

min_style cg
minimize 1e-06 1e-06 1000000 10000000
WARNING: Using 'neigh_modify every 1 delay 0 check yes' setting during minimization (../min.cpp:190)
PPPM initialization ...
  using 12-bit tables for long-range coulomb (../kspace.cpp:332)
  G vector (1/distance) = 0.0634532
  grid = 20 20 20
  stencil order = 5
  estimated absolute RMS force accuracy = 0.0357407
  estimated relative force accuracy = 0.000107632
  using double precision KISS FFT
  3d grid and FFT values/proc = 15625 8000
Neighbor list info ...
  update every 1 steps, delay 0 steps, check yes
  max neighbors/atom: 2000, page size: 100000
  master list distance cutoff = 14
  ghost atom cutoff = 14
  binsize = 7, bins = 56 56 56
  1 neighbor lists, perpetual/occasional/extra = 1 0 0
  (1) pair lj/cut/coul/long, perpetual
      attributes: half, newton on
      pair build: half/bin/newton
      stencil: half/bin/3d/newton
      bin: standard
Per MPI rank memory allocation (min/avg/max) = 21.61 | 21.61 | 21.61 Mbytes
Step Temp E_pair E_mol TotEng Press 
       0    683.63676    1036.4781    2105.6155    7474.4379    2.2400615 
      16    683.63676    1028.4898    1898.5917    7259.4259    2.8609906 
Loop time of 0.789685 on 1 procs for 16 steps with 2127 atoms

99.9% CPU use with 1 MPI tasks x no OpenMP threads

Minimization stats:
  Stopping criterion = linesearch alpha is zero
  Energy initial, next-to-last, final = 
         3142.09360029      2927.08152129      2927.08152129
  Force two-norm initial, final = 734.029 75.4801
  Force max component initial, final = 376.941 19.3585
  Final line search alpha, max atom move = 1.36219e-12 2.637e-11
  Iterations, force evaluations = 16 90

MPI task timing breakdown:
Section |  min time  |  avg time  |  max time  |%varavg| %total
---------------------------------------------------------------
Pair    | 0.42943    | 0.42943    | 0.42943    |   0.0 | 54.38
Bond    | 0.095577   | 0.095577   | 0.095577   |   0.0 | 12.10
Kspace  | 0.26158    | 0.26158    | 0.26158    |   0.0 | 33.12
Neigh   | 0          | 0          | 0          |   0.0 |  0.00
Comm    | 5.1498e-05 | 5.1498e-05 | 5.1498e-05 |   0.0 |  0.01
Output  | 0          | 0          | 0          |   0.0 |  0.00
Modify  | 0          | 0          | 0          |   0.0 |  0.00
Other   |            | 0.003041   |            |       |  0.39

Nlocal:    2127 ave 2127 max 2127 min
Histogram: 1 0 0 0 0 0 0 0 0 0
Nghost:    0 ave 0 max 0 min
Histogram: 1 0 0 0 0 0 0 0 0 0
Neighs:    133190 ave 133190 max 133190 min
Histogram: 1 0 0 0 0 0 0 0 0 0

Total # of neighbors = 133190
Ave neighs/atom = 62.6187
Ave special neighs/atom = 11.2572
Neighbor list builds = 0
Dangerous builds = 0
write_dump all custom pysimm.dump.tmp id q x y z vx vy vz
quit


################################################################################
##################################    Init    ##################################
################################################################################
units           real
atom_style      full
pair_style      lj/cut/coul/long 12.0  12.0
kspace_style    pppm 1e-4
bond_style      harmonic
angle_style     harmonic
dihedral_style  fourier
improper_style  cvff
special_bonds   amber
pair_modify     mix arithmetic
read_data       temp.lmps
  orthogonal box = (-198.442 -198.442 -198.442) to (198.442 198.442 198.442)
  1 by 1 by 1 MPI processor grid
  reading atoms ...
  2212 atoms
  reading velocities ...
  2212 velocities
  scanning bonds ...
  3 = max bonds/atom
  scanning angles ...
  6 = max angles/atom
  scanning dihedrals ...
  24 = max dihedrals/atom
  scanning impropers ...
  2 = max impropers/atom
  reading bonds ...
  2393 bonds
  reading angles ...
  4212 angles
  reading dihedrals ...
  6496 dihedrals
  reading impropers ...
  728 impropers
  4 = max # of 1-2 neighbors
  10 = max # of 1-3 neighbors
  19 = max # of 1-4 neighbors
  22 = max # of special neighbors
  special bonds CPU = 0.00177503 secs
  read_data CPU = 0.022665 secs
################################################################################

min_style cg
minimize 1e-06 1e-06 1000000 10000000
WARNING: Using 'neigh_modify every 1 delay 0 check yes' setting during minimization (../min.cpp:190)
PPPM initialization ...
  using 12-bit tables for long-range coulomb (../kspace.cpp:332)
  G vector (1/distance) = 0.0627326
  grid = 20 20 20
  stencil order = 5
  estimated absolute RMS force accuracy = 0.0361834
  estimated relative force accuracy = 0.000108965
  using double precision KISS FFT
  3d grid and FFT values/proc = 15625 8000
Neighbor list info ...
  update every 1 steps, delay 0 steps, check yes
  max neighbors/atom: 2000, page size: 100000
  master list distance cutoff = 14
  ghost atom cutoff = 14
  binsize = 7, bins = 57 57 57
  1 neighbor lists, perpetual/occasional/extra = 1 0 0
  (1) pair lj/cut/coul/long, perpetual
      attributes: half, newton on
      pair build: half/bin/newton
      stencil: half/bin/3d/newton
      bin: standard
Per MPI rank memory allocation (min/avg/max) = 21.66 | 21.66 | 21.66 Mbytes
Step Temp E_pair E_mol TotEng Press 
       0    564.88162    1125.8639    2116.1621    6964.9184    2.2661117 
      16    564.88162    1113.2711    1898.6975     6734.861    2.8262681 
Loop time of 0.769202 on 1 procs for 16 steps with 2212 atoms

100.0% CPU use with 1 MPI tasks x no OpenMP threads

Minimization stats:
  Stopping criterion = linesearch alpha is zero
  Energy initial, next-to-last, final = 
         3242.02602719      3011.96860631      3011.96860631
  Force two-norm initial, final = 732.544 67.1476
  Force max component initial, final = 353.225 15.195
  Final line search alpha, max atom move = 2.30953e-12 3.50933e-11
  Iterations, force evaluations = 16 90

MPI task timing breakdown:
Section |  min time  |  avg time  |  max time  |%varavg| %total
---------------------------------------------------------------
Pair    | 0.40194    | 0.40194    | 0.40194    |   0.0 | 52.25
Bond    | 0.099005   | 0.099005   | 0.099005   |   0.0 | 12.87
Kspace  | 0.26508    | 0.26508    | 0.26508    |   0.0 | 34.46
Neigh   | 0          | 0          | 0          |   0.0 |  0.00
Comm    | 3.9339e-05 | 3.9339e-05 | 3.9339e-05 |   0.0 |  0.01
Output  | 0          | 0          | 0          |   0.0 |  0.00
Modify  | 0          | 0          | 0          |   0.0 |  0.00
Other   |            | 0.003133   |            |       |  0.41

Nlocal:    2212 ave 2212 max 2212 min
Histogram: 1 0 0 0 0 0 0 0 0 0
Nghost:    0 ave 0 max 0 min
Histogram: 1 0 0 0 0 0 0 0 0 0
Neighs:    124769 ave 124769 max 124769 min
Histogram: 1 0 0 0 0 0 0 0 0 0

Total # of neighbors = 124769
Ave neighs/atom = 56.4055
Ave special neighs/atom = 11.2577
Neighbor list builds = 0
Dangerous builds = 0
write_dump all custom pysimm.dump.tmp id q x y z vx vy vz
quit


################################################################################
##################################    Init    ##################################
################################################################################
units           real
atom_style      full
pair_style      lj/cut/coul/long 12.0  12.0
kspace_style    pppm 1e-4
bond_style      harmonic
angle_style     harmonic
dihedral_style  fourier
improper_style  cvff
special_bonds   amber
pair_modify     mix arithmetic
read_data       temp.lmps
  orthogonal box = (-201.053 -201.053 -201.053) to (201.053 201.053 201.053)
  1 by 1 by 1 MPI processor grid
  reading atoms ...
  2297 atoms
  reading velocities ...
  2297 velocities
  scanning bonds ...
  3 = max bonds/atom
  scanning angles ...
  6 = max angles/atom
  scanning dihedrals ...
  24 = max dihedrals/atom
  scanning impropers ...
  2 = max impropers/atom
  reading bonds ...
  2485 bonds
  reading angles ...
  4374 angles
  reading dihedrals ...
  6746 dihedrals
  reading impropers ...
  756 impropers
  4 = max # of 1-2 neighbors
  10 = max # of 1-3 neighbors
  19 = max # of 1-4 neighbors
  22 = max # of special neighbors
  special bonds CPU = 0.00182509 secs
  read_data CPU = 0.02318 secs
################################################################################

min_style cg
minimize 1e-06 1e-06 1000000 10000000
WARNING: Using 'neigh_modify every 1 delay 0 check yes' setting during minimization (../min.cpp:190)
PPPM initialization ...
  using 12-bit tables for long-range coulomb (../kspace.cpp:332)
  G vector (1/distance) = 0.0620464
  grid = 20 20 20
  stencil order = 5
  estimated absolute RMS force accuracy = 0.0366058
  estimated relative force accuracy = 0.000110237
  using double precision KISS FFT
  3d grid and FFT values/proc = 15625 8000
Neighbor list info ...
  update every 1 steps, delay 0 steps, check yes
  max neighbors/atom: 2000, page size: 100000
  master list distance cutoff = 14
  ghost atom cutoff = 14
  binsize = 7, bins = 58 58 58
  1 neighbor lists, perpetual/occasional/extra = 1 0 0
  (1) pair lj/cut/coul/long, perpetual
      attributes: half, newton on
      pair build: half/bin/newton
      stencil: half/bin/3d/newton
      bin: standard
Per MPI rank memory allocation (min/avg/max) = 21.71 | 21.71 | 21.71 Mbytes
Step Temp E_pair E_mol TotEng Press 
       0    464.13657    1150.6556    2081.5837    6408.7621    1.6733803 
      23    464.13657    1128.1523    1869.8658    6174.5408    1.7816843 
Loop time of 0.936529 on 1 procs for 23 steps with 2297 atoms

99.9% CPU use with 1 MPI tasks x no OpenMP threads

Minimization stats:
  Stopping criterion = linesearch alpha is zero
  Energy initial, next-to-last, final = 
         3232.23928387      2998.01807765      2998.01807765
  Force two-norm initial, final = 736.016 80.9694
  Force max component initial, final = 332.457 14.0633
  Final line search alpha, max atom move = 1.32762e-12 1.86708e-11
  Iterations, force evaluations = 23 105

MPI task timing breakdown:
Section |  min time  |  avg time  |  max time  |%varavg| %total
---------------------------------------------------------------
Pair    | 0.50289    | 0.50289    | 0.50289    |   0.0 | 53.70
Bond    | 0.11802    | 0.11802    | 0.11802    |   0.0 | 12.60
Kspace  | 0.31157    | 0.31157    | 0.31157    |   0.0 | 33.27
Neigh   | 0          | 0          | 0          |   0.0 |  0.00
Comm    | 4.7445e-05 | 4.7445e-05 | 4.7445e-05 |   0.0 |  0.01
Output  | 0          | 0          | 0          |   0.0 |  0.00
Modify  | 0          | 0          | 0          |   0.0 |  0.00
Other   |            | 0.003996   |            |       |  0.43

Nlocal:    2297 ave 2297 max 2297 min
Histogram: 1 0 0 0 0 0 0 0 0 0
Nghost:    0 ave 0 max 0 min
Histogram: 1 0 0 0 0 0 0 0 0 0
Neighs:    138743 ave 138743 max 138743 min
Histogram: 1 0 0 0 0 0 0 0 0 0

Total # of neighbors = 138743
Ave neighs/atom = 60.4018
Ave special neighs/atom = 11.2582
Neighbor list builds = 0
Dangerous builds = 0
write_dump all custom pysimm.dump.tmp id q x y z vx vy vz
quit


################################################################################
##################################    Init    ##################################
################################################################################
units           real
atom_style      full
pair_style      lj/cut/coul/long 12.0  12.0
kspace_style    pppm 1e-4
bond_style      harmonic
angle_style     harmonic
dihedral_style  fourier
improper_style  cvff
special_bonds   amber
pair_modify     mix arithmetic
read_data       temp.lmps
  orthogonal box = (-203.598 -203.598 -203.598) to (203.598 203.598 203.598)
  1 by 1 by 1 MPI processor grid
  reading atoms ...
  2382 atoms
  reading velocities ...
  2382 velocities
  scanning bonds ...
  3 = max bonds/atom
  scanning angles ...
  6 = max angles/atom
  scanning dihedrals ...
  24 = max dihedrals/atom
  scanning impropers ...
  2 = max impropers/atom
  reading bonds ...
  2577 bonds
  reading angles ...
  4536 angles
  reading dihedrals ...
  6996 dihedrals
  reading impropers ...
  784 impropers
  4 = max # of 1-2 neighbors
  10 = max # of 1-3 neighbors
  19 = max # of 1-4 neighbors
  22 = max # of special neighbors
  special bonds CPU = 0.00184298 secs
  read_data CPU = 0.0238838 secs
################################################################################

min_style cg
minimize 1e-06 1e-06 1000000 10000000
WARNING: Using 'neigh_modify every 1 delay 0 check yes' setting during minimization (../min.cpp:190)
PPPM initialization ...
  using 12-bit tables for long-range coulomb (../kspace.cpp:332)
  G vector (1/distance) = 0.0613916
  grid = 20 20 20
  stencil order = 5
  estimated absolute RMS force accuracy = 0.0370095
  estimated relative force accuracy = 0.000111453
  using double precision KISS FFT
  3d grid and FFT values/proc = 15625 8000
Neighbor list info ...
  update every 1 steps, delay 0 steps, check yes
  max neighbors/atom: 2000, page size: 100000
  master list distance cutoff = 14
  ghost atom cutoff = 14
  binsize = 7, bins = 59 59 59
  1 neighbor lists, perpetual/occasional/extra = 1 0 0
  (1) pair lj/cut/coul/long, perpetual
      attributes: half, newton on
      pair build: half/bin/newton
      stencil: half/bin/3d/newton
      bin: standard
Per MPI rank memory allocation (min/avg/max) = 21.77 | 21.77 | 21.77 Mbytes
Step Temp E_pair E_mol TotEng Press 
       0    828.43451    1237.4236    2243.7144    9360.7935    3.2239261 
      24    828.43451    1212.5452    2016.1126    9108.3133     3.495459 
Loop time of 0.939524 on 1 procs for 24 steps with 2382 atoms

99.9% CPU use with 1 MPI tasks x no OpenMP threads

Minimization stats:
  Stopping criterion = linesearch alpha is zero
  Energy initial, next-to-last, final = 
         3481.13799406       3228.6578419       3228.6578419
  Force two-norm initial, final = 734.337 82.4252
  Force max component initial, final = 356.345 15.8148
  Final line search alpha, max atom move = 1.23419e-12 1.95184e-11
  Iterations, force evaluations = 24 106

MPI task timing breakdown:
Section |  min time  |  avg time  |  max time  |%varavg| %total
---------------------------------------------------------------
Pair    | 0.49083    | 0.49083    | 0.49083    |   0.0 | 52.24
Bond    | 0.12394    | 0.12394    | 0.12394    |   0.0 | 13.19
Kspace  | 0.32044    | 0.32044    | 0.32044    |   0.0 | 34.11
Neigh   | 0          | 0          | 0          |   0.0 |  0.00
Comm    | 5.2691e-05 | 5.2691e-05 | 5.2691e-05 |   0.0 |  0.01
Output  | 0          | 0          | 0          |   0.0 |  0.00
Modify  | 0          | 0          | 0          |   0.0 |  0.00
Other   |            | 0.004255   |            |       |  0.45

Nlocal:    2382 ave 2382 max 2382 min
Histogram: 1 0 0 0 0 0 0 0 0 0
Nghost:    0 ave 0 max 0 min
Histogram: 1 0 0 0 0 0 0 0 0 0
Neighs:    129148 ave 129148 max 129148 min
Histogram: 1 0 0 0 0 0 0 0 0 0

Total # of neighbors = 129148
Ave neighs/atom = 54.2183
Ave special neighs/atom = 11.2586
Neighbor list builds = 0
Dangerous builds = 0
write_dump all custom pysimm.dump.tmp id q x y z vx vy vz
quit


################################################################################
##################################    Init    ##################################
################################################################################
units           real
atom_style      full
pair_style      lj/cut/coul/long 12.0  12.0
kspace_style    pppm 1e-4
bond_style      harmonic
angle_style     harmonic
dihedral_style  fourier
improper_style  cvff
special_bonds   amber
pair_modify     mix arithmetic
read_data       temp.lmps
  orthogonal box = (-206.082 -206.082 -206.082) to (206.082 206.082 206.082)
  1 by 1 by 1 MPI processor grid
  reading atoms ...
  2467 atoms
  reading velocities ...
  2467 velocities
  scanning bonds ...
  3 = max bonds/atom
  scanning angles ...
  6 = max angles/atom
  scanning dihedrals ...
  24 = max dihedrals/atom
  scanning impropers ...
  2 = max impropers/atom
  reading bonds ...
  2669 bonds
  reading angles ...
  4698 angles
  reading dihedrals ...
  7246 dihedrals
  reading impropers ...
  812 impropers
  4 = max # of 1-2 neighbors
  10 = max # of 1-3 neighbors
  19 = max # of 1-4 neighbors
  22 = max # of special neighbors
  special bonds CPU = 0.00194883 secs
  read_data CPU = 0.0245841 secs
################################################################################

min_style cg
minimize 1e-06 1e-06 1000000 10000000
WARNING: Using 'neigh_modify every 1 delay 0 check yes' setting during minimization (../min.cpp:190)
PPPM initialization ...
  using 12-bit tables for long-range coulomb (../kspace.cpp:332)
  G vector (1/distance) = 0.0607657
  grid = 20 20 20
  stencil order = 5
  estimated absolute RMS force accuracy = 0.0373959
  estimated relative force accuracy = 0.000112617
  using double precision KISS FFT
  3d grid and FFT values/proc = 15625 8000
Neighbor list info ...
  update every 1 steps, delay 0 steps, check yes
  max neighbors/atom: 2000, page size: 100000
  master list distance cutoff = 14
  ghost atom cutoff = 14
  binsize = 7, bins = 59 59 59
  1 neighbor lists, perpetual/occasional/extra = 1 0 0
  (1) pair lj/cut/coul/long, perpetual
      attributes: half, newton on
      pair build: half/bin/newton
      stencil: half/bin/3d/newton
      bin: standard
Per MPI rank memory allocation (min/avg/max) = 21.78 | 21.78 | 21.78 Mbytes
Step Temp E_pair E_mol TotEng Press 
       0    768.93405    1226.6148    2336.5636    9215.3647     3.252339 
      24    768.93405    1205.9942    2114.1421    8972.3226    3.3865418 
Loop time of 1.03151 on 1 procs for 24 steps with 2467 atoms

100.0% CPU use with 1 MPI tasks x no OpenMP threads

Minimization stats:
[...]
angle_style     harmonic
dihedral_style  fourier
improper_style  cvff
special_bonds   amber
pair_modify     mix arithmetic
read_data       temp.lmps
  orthogonal box = (-241.393 -241.393 -241.393) to (241.393 241.393 241.393)
  1 by 1 by 1 MPI processor grid
  reading atoms ...
  3912 atoms
  reading velocities ...
  3912 velocities
  scanning bonds ...
  3 = max bonds/atom
  scanning angles ...
  6 = max angles/atom
  scanning dihedrals ...
  24 = max dihedrals/atom
  scanning impropers ...
  2 = max impropers/atom
  reading bonds ...
  4233 bonds
  reading angles ...
  7452 angles
  reading dihedrals ...
  11496 dihedrals
  reading impropers ...
  1288 impropers
  4 = max # of 1-2 neighbors
  10 = max # of 1-3 neighbors
  19 = max # of 1-4 neighbors
  22 = max # of special neighbors
  special bonds CPU = 0.00299621 secs
  read_data CPU = 0.0370951 secs
################################################################################

min_style cg
minimize 1e-06 1e-06 1000000 10000000
WARNING: Using 'neigh_modify every 1 delay 0 check yes' setting during minimization (../min.cpp:190)
PPPM initialization ...
  using 12-bit tables for long-range coulomb (../kspace.cpp:332)
  G vector (1/distance) = 0.0620185
  grid = 24 24 24
  stencil order = 5
  estimated absolute RMS force accuracy = 0.0363431
  estimated relative force accuracy = 0.000109446
  using double precision KISS FFT
  3d grid and FFT values/proc = 24389 13824
Neighbor list info ...
  update every 1 steps, delay 0 steps, check yes
  max neighbors/atom: 2000, page size: 100000
  master list distance cutoff = 14
  ghost atom cutoff = 14
  binsize = 7, bins = 69 69 69
  1 neighbor lists, perpetual/occasional/extra = 1 0 0
  (1) pair lj/cut/coul/long, perpetual
      attributes: half, newton on
      pair build: half/bin/newton
      stencil: half/bin/3d/newton
      bin: standard
Per MPI rank memory allocation (min/avg/max) = 24.09 | 24.09 | 24.09 Mbytes
Step Temp E_pair E_mol TotEng Press 
       0    500.88475     1824.953    3378.4935    11042.735    1.9826605 
      19    500.88475    1818.7642    3141.1949    10799.248    2.1444932 
Loop time of 1.79086 on 1 procs for 19 steps with 3912 atoms

100.0% CPU use with 1 MPI tasks x no OpenMP threads

Minimization stats:
  Stopping criterion = linesearch alpha is zero
  Energy initial, next-to-last, final = 
          5203.4464378      4959.95909899      4959.95909899
  Force two-norm initial, final = 739.543 116.644
  Force max component initial, final = 301.371 26.5082
  Final line search alpha, max atom move = 5.2565e-13 1.3934e-11
  Iterations, force evaluations = 19 99

MPI task timing breakdown:
Section |  min time  |  avg time  |  max time  |%varavg| %total
---------------------------------------------------------------
Pair    | 1.0606     | 1.0606     | 1.0606     |   0.0 | 59.22
Bond    | 0.18954    | 0.18954    | 0.18954    |   0.0 | 10.58
Kspace  | 0.53454    | 0.53454    | 0.53454    |   0.0 | 29.85
Neigh   | 0          | 0          | 0          |   0.0 |  0.00
Comm    | 5.0545e-05 | 5.0545e-05 | 5.0545e-05 |   0.0 |  0.00
Output  | 0          | 0          | 0          |   0.0 |  0.00
Modify  | 0          | 0          | 0          |   0.0 |  0.00
Other   |            | 0.006141   |            |       |  0.34

Nlocal:    3912 ave 3912 max 3912 min
Histogram: 1 0 0 0 0 0 0 0 0 0
Nghost:    0 ave 0 max 0 min
Histogram: 1 0 0 0 0 0 0 0 0 0
Neighs:    325993 ave 325993 max 325993 min
Histogram: 1 0 0 0 0 0 0 0 0 0

Total # of neighbors = 325993
Ave neighs/atom = 83.3315
Ave special neighs/atom = 11.2633
Neighbor list builds = 0
Dangerous builds = 0
write_dump all custom pysimm.dump.tmp id q x y z vx vy vz
quit


################################################################################
##################################    Init    ##################################
################################################################################
units           real
atom_style      full
pair_style      lj/cut/coul/long 12.0  12.0
kspace_style    pppm 1e-4
bond_style      harmonic
angle_style     harmonic
dihedral_style  fourier
improper_style  cvff
special_bonds   amber
pair_modify     mix arithmetic
read_data       temp.lmps
  orthogonal box = (-243.168 -243.168 -243.168) to (243.168 243.168 243.168)
  1 by 1 by 1 MPI processor grid
  reading atoms ...
  3997 atoms
  reading velocities ...
  3997 velocities
  scanning bonds ...
  3 = max bonds/atom
  scanning angles ...
  6 = max angles/atom
  scanning dihedrals ...
  24 = max dihedrals/atom
  scanning impropers ...
  2 = max impropers/atom
  reading bonds ...
  4325 bonds
  reading angles ...
  7614 angles
  reading dihedrals ...
  11746 dihedrals
  reading impropers ...
  1316 impropers
  4 = max # of 1-2 neighbors
  10 = max # of 1-3 neighbors
  19 = max # of 1-4 neighbors
  22 = max # of special neighbors
  special bonds CPU = 0.00307298 secs
  read_data CPU = 0.0384729 secs
################################################################################

min_style cg
minimize 1e-06 1e-06 1000000 10000000
WARNING: Using 'neigh_modify every 1 delay 0 check yes' setting during minimization (../min.cpp:190)
PPPM initialization ...
  using 12-bit tables for long-range coulomb (../kspace.cpp:332)
  G vector (1/distance) = 0.0616366
  grid = 24 24 24
  stencil order = 5
  estimated absolute RMS force accuracy = 0.0365826
  estimated relative force accuracy = 0.000110167
  using double precision KISS FFT
  3d grid and FFT values/proc = 24389 13824
Neighbor list info ...
  update every 1 steps, delay 0 steps, check yes
  max neighbors/atom: 2000, page size: 100000
  master list distance cutoff = 14
  ghost atom cutoff = 14
  binsize = 7, bins = 70 70 70
  1 neighbor lists, perpetual/occasional/extra = 1 0 0
  (1) pair lj/cut/coul/long, perpetual
      attributes: half, newton on
      pair build: half/bin/newton
      stencil: half/bin/3d/newton
      bin: standard
Per MPI rank memory allocation (min/avg/max) = 24.16 | 24.16 | 24.16 Mbytes
Step Temp E_pair E_mol TotEng Press 
       0    416.21922    1848.1128    3393.9294    10199.761    1.3434749 
       7    416.21922    1851.0135    3205.1339    10013.866    1.5947793 
Loop time of 1.30061 on 1 procs for 7 steps with 3997 atoms

100.1% CPU use with 1 MPI tasks x no OpenMP threads

Minimization stats:
  Stopping criterion = linesearch alpha is zero
  Energy initial, next-to-last, final = 
         5242.04220105      5056.14733956      5056.14733956
  Force two-norm initial, final = 733.538 80.3815
  Force max component initial, final = 354.934 22.5516
  Final line search alpha, max atom move = 1.61589e-12 3.6441e-11
  Iterations, force evaluations = 7 72

MPI task timing breakdown:
Section |  min time  |  avg time  |  max time  |%varavg| %total
---------------------------------------------------------------
Pair    | 0.75012    | 0.75012    | 0.75012    |   0.0 | 57.67
Bond    | 0.14431    | 0.14431    | 0.14431    |   0.0 | 11.10
Kspace  | 0.40216    | 0.40216    | 0.40216    |   0.0 | 30.92
Neigh   | 0          | 0          | 0          |   0.0 |  0.00
Comm    | 3.8624e-05 | 3.8624e-05 | 3.8624e-05 |   0.0 |  0.00
Output  | 0          | 0          | 0          |   0.0 |  0.00
Modify  | 0          | 0          | 0          |   0.0 |  0.00
Other   |            | 0.003978   |            |       |  0.31

Nlocal:    3997 ave 3997 max 3997 min
Histogram: 1 0 0 0 0 0 0 0 0 0
Nghost:    0 ave 0 max 0 min
Histogram: 1 0 0 0 0 0 0 0 0 0
Neighs:    307176 ave 307176 max 307176 min
Histogram: 1 0 0 0 0 0 0 0 0 0

Total # of neighbors = 307176
Ave neighs/atom = 76.8516
Ave special neighs/atom = 11.2634
Neighbor list builds = 0
Dangerous builds = 0
write_dump all custom pysimm.dump.tmp id q x y z vx vy vz
quit


################################################################################
##################################    Init    ##################################
################################################################################
units           real
atom_style      full
pair_style      lj/cut/coul/long 12.0  12.0
kspace_style    pppm 1e-4
bond_style      harmonic
angle_style     harmonic
dihedral_style  fourier
improper_style  cvff
special_bonds   amber
pair_modify     mix arithmetic
read_data       temp.lmps
  orthogonal box = (-244.917 -244.917 -244.917) to (244.917 244.917 244.917)
  1 by 1 by 1 MPI processor grid
  reading atoms ...
  4082 atoms
  reading velocities ...
  4082 velocities
  scanning bonds ...
  3 = max bonds/atom
  scanning angles ...
  6 = max angles/atom
  scanning dihedrals ...
  24 = max dihedrals/atom
  scanning impropers ...
  2 = max impropers/atom
  reading bonds ...
  4417 bonds
  reading angles ...
  7776 angles
  reading dihedrals ...
  11996 dihedrals
  reading impropers ...
  1344 impropers
  4 = max # of 1-2 neighbors
  10 = max # of 1-3 neighbors
  19 = max # of 1-4 neighbors
  22 = max # of special neighbors
  special bonds CPU = 0.0031302 secs
  read_data CPU = 0.03878 secs
################################################################################

min_style cg
minimize 1e-06 1e-06 1000000 10000000
WARNING: Using 'neigh_modify every 1 delay 0 check yes' setting during minimization (../min.cpp:190)
PPPM initialization ...
  using 12-bit tables for long-range coulomb (../kspace.cpp:332)
  G vector (1/distance) = 0.0612647
  grid = 24 24 24
  stencil order = 5
  estimated absolute RMS force accuracy = 0.036816
  estimated relative force accuracy = 0.00011087
  using double precision KISS FFT
  3d grid and FFT values/proc = 24389 13824
Neighbor list info ...
  update every 1 steps, delay 0 steps, check yes
  max neighbors/atom: 2000, page size: 100000
  master list distance cutoff = 14
  ghost atom cutoff = 14
  binsize = 7, bins = 70 70 70
  1 neighbor lists, perpetual/occasional/extra = 1 0 0
  (1) pair lj/cut/coul/long, perpetual
      attributes: half, newton on
      pair build: half/bin/newton
      stencil: half/bin/3d/newton
      bin: standard
Per MPI rank memory allocation (min/avg/max) = 24.18 | 24.18 | 24.18 Mbytes
Step Temp E_pair E_mol TotEng Press 
       0    426.15911    1873.5366    3430.0794    10487.708     1.582903 
       9    426.15911     1871.441    3238.7614    10294.294    1.7897512 
Loop time of 1.42277 on 1 procs for 9 steps with 4082 atoms

99.9% CPU use with 1 MPI tasks x no OpenMP threads

Minimization stats:
  Stopping criterion = linesearch alpha is zero
  Energy initial, next-to-last, final = 
         5303.61597059      5110.20234056      5110.20234056
  Force two-norm initial, final = 734.232 80.7105
  Force max component initial, final = 299.944 22.9417
  Final line search alpha, max atom move = 9.57337e-13 2.19629e-11
  Iterations, force evaluations = 9 79

MPI task timing breakdown:
Section |  min time  |  avg time  |  max time  |%varavg| %total
---------------------------------------------------------------
Pair    | 0.8289     | 0.8289     | 0.8289     |   0.0 | 58.26
Bond    | 0.15781    | 0.15781    | 0.15781    |   0.0 | 11.09
Kspace  | 0.43148    | 0.43148    | 0.43148    |   0.0 | 30.33
Neigh   | 0          | 0          | 0          |   0.0 |  0.00
Comm    | 4.8161e-05 | 4.8161e-05 | 4.8161e-05 |   0.0 |  0.00
Output  | 0          | 0          | 0          |   0.0 |  0.00
Modify  | 0          | 0          | 0          |   0.0 |  0.00
Other   |            | 0.004524   |            |       |  0.32

Nlocal:    4082 ave 4082 max 4082 min
Histogram: 1 0 0 0 0 0 0 0 0 0
Nghost:    0 ave 0 max 0 min
Histogram: 1 0 0 0 0 0 0 0 0 0
Neighs:    317440 ave 317440 max 317440 min
Histogram: 1 0 0 0 0 0 0 0 0 0

Total # of neighbors = 317440
Ave neighs/atom = 77.7658
Ave special neighs/atom = 11.2636
Neighbor list builds = 0
Dangerous builds = 0
write_dump all custom pysimm.dump.tmp id q x y z vx vy vz
quit


################################################################################
##################################    Init    ##################################
################################################################################
units           real
atom_style      full
pair_style      lj/cut/coul/long 12.0  12.0
kspace_style    pppm 1e-4
bond_style      harmonic
angle_style     harmonic
dihedral_style  fourier
improper_style  cvff
special_bonds   amber
pair_modify     mix arithmetic
read_data       temp.lmps
  orthogonal box = (-246.642 -246.642 -246.642) to (246.642 246.642 246.642)
  1 by 1 by 1 MPI processor grid
  reading atoms ...
  4167 atoms
  reading velocities ...
  4167 velocities
  scanning bonds ...
  3 = max bonds/atom
  scanning angles ...
  6 = max angles/atom
  scanning dihedrals ...
  24 = max dihedrals/atom
  scanning impropers ...
  2 = max impropers/atom
  reading bonds ...
  4509 bonds
  reading angles ...
  7938 angles
  reading dihedrals ...
  12246 dihedrals
  reading impropers ...
  1372 impropers
  4 = max # of 1-2 neighbors
  10 = max # of 1-3 neighbors
  19 = max # of 1-4 neighbors
  22 = max # of special neighbors
  special bonds CPU = 0.00317597 secs
  read_data CPU = 0.039077 secs
################################################################################

min_style cg
minimize 1e-06 1e-06 1000000 10000000
WARNING: Using 'neigh_modify every 1 delay 0 check yes' setting during minimization (../min.cpp:190)
PPPM initialization ...
  using 12-bit tables for long-range coulomb (../kspace.cpp:332)
  G vector (1/distance) = 0.0609024
  grid = 24 24 24
  stencil order = 5
  estimated absolute RMS force accuracy = 0.0370436
  estimated relative force accuracy = 0.000111556
  using double precision KISS FFT
  3d grid and FFT values/proc = 24389 13824
Neighbor list info ...
  update every 1 steps, delay 0 steps, check yes
  max neighbors/atom: 2000, page size: 100000
  master list distance cutoff = 14
  ghost atom cutoff = 14
  binsize = 7, bins = 71 71 71
  1 neighbor lists, perpetual/occasional/extra = 1 0 0
  (1) pair lj/cut/coul/long, perpetual
      attributes: half, newton on
      pair build: half/bin/newton
      stencil: half/bin/3d/newton
      bin: standard
Per MPI rank memory allocation (min/avg/max) = 24.25 | 24.25 | 24.25 Mbytes
Step Temp E_pair E_mol TotEng Press 
       0    373.94208     1887.515    3565.9466    10097.095     1.173886 
       7    373.94208    1886.7744    3369.1634     9899.571    1.4558839 
Loop time of 1.38571 on 1 procs for 7 steps with 4167 atoms

100.0% CPU use with 1 MPI tasks x no OpenMP threads

Minimization stats:
  Stopping criterion = linesearch alpha is zero
  Energy initial, next-to-last, final = 
         5453.46163383      5255.93776867      5255.93776867
  Force two-norm initial, final = 740.96 83.1787
  Force max component initial, final = 293.042 20.193
  Final line search alpha, max atom move = 9.49324e-13 1.91697e-11
  Iterations, force evaluations = 7 75

MPI task timing breakdown:
Section |  min time  |  avg time  |  max time  |%varavg| %total
---------------------------------------------------------------
Pair    | 0.81386    | 0.81386    | 0.81386    |   0.0 | 58.73
Bond    | 0.15227    | 0.15227    | 0.15227    |   0.0 | 10.99
Kspace  | 0.41532    | 0.41532    | 0.41532    |   0.0 | 29.97
Neigh   | 0          | 0          | 0          |   0.0 |  0.00
Comm    | 2.9564e-05 | 2.9564e-05 | 2.9564e-05 |   0.0 |  0.00
Output  | 0          | 0          | 0          |   0.0 |  0.00
Modify  | 0          | 0          | 0          |   0.0 |  0.00
Other   |            | 0.004233   |            |       |  0.31

Nlocal:    4167 ave 4167 max 4167 min
Histogram: 1 0 0 0 0 0 0 0 0 0
Nghost:    0 ave 0 max 0 min
Histogram: 1 0 0 0 0 0 0 0 0 0
Neighs:    332684 ave 332684 max 332684 min
Histogram: 1 0 0 0 0 0 0 0 0 0

Total # of neighbors = 332684
Ave neighs/atom = 79.8378
Ave special neighs/atom = 11.2637
Neighbor list builds = 0
Dangerous builds = 0
write_dump all custom pysimm.dump.tmp id q x y z vx vy vz
quit


################################################################################
##################################    Init    ##################################
################################################################################
units           real
atom_style      full
pair_style      lj/cut/coul/long 12.0  12.0
kspace_style    pppm 1e-4
bond_style      harmonic
angle_style     harmonic
dihedral_style  fourier
improper_style  cvff
special_bonds   amber
pair_modify     mix arithmetic
read_data       temp.lmps
  orthogonal box = (-248.343 -248.343 -248.343) to (248.343 248.343 248.343)
  1 by 1 by 1 MPI processor grid
  reading atoms ...
  4252 atoms
  reading velocities ...
  4252 velocities
  scanning bonds ...
  3 = max bonds/atom
  scanning angles ...
  6 = max angles/atom
  scanning dihedrals ...
  24 = max dihedrals/atom
  scanning impropers ...
  2 = max impropers/atom
  reading bonds ...
  4601 bonds
  reading angles ...
  8100 angles
  reading dihedrals ...
  12496 dihedrals
  reading impropers ...
  1400 impropers
  4 = max # of 1-2 neighbors
  10 = max # of 1-3 neighbors
  19 = max # of 1-4 neighbors
  22 = max # of special neighbors
  special bonds CPU = 0.00325298 secs
  read_data CPU = 0.0407431 secs
################################################################################

min_style cg
minimize 1e-06 1e-06 1000000 10000000
WARNING: Using 'neigh_modify every 1 delay 0 check yes' setting during minimization (../min.cpp:190)
PPPM initialization ...
  using 12-bit tables for long-range coulomb (../kspace.cpp:332)
  G vector (1/distance) = 0.0605492
  grid = 24 24 24
  stencil order = 5
  estimated absolute RMS force accuracy = 0.0372655
  estimated relative force accuracy = 0.000112224
  using double precision KISS FFT
  3d grid and FFT values/proc = 24389 13824
Neighbor list info ...
  update every 1 steps, delay 0 steps, check yes
  max neighbors/atom: 2000, page size: 100000
  master list distance cutoff = 14
  ghost atom cutoff = 14
  binsize = 7, bins = 71 71 71
  1 neighbor lists, perpetual/occasional/extra = 1 0 0
  (1) pair lj/cut/coul/long, perpetual
      attributes: half, newton on
      pair build: half/bin/newton
      stencil: half/bin/3d/newton
      bin: standard
Per MPI rank memory allocation (min/avg/max) = 24.26 | 24.26 | 24.26 Mbytes
Step Temp E_pair E_mol TotEng Press 
       0    306.98414    1906.7183    3514.4671    9311.1115    1.0857984 
       6    306.98414    1894.1649    3327.2159    9111.3069    1.2901337 
Loop time of 1.33723 on 1 procs for 6 steps with 4252 atoms

100.0% CPU use with 1 MPI tasks x no OpenMP threads

Minimization stats:
  Stopping criterion = linesearch alpha is zero
  Energy initial, next-to-last, final = 
         5421.18545419      5221.38079996      5221.38079996
  Force two-norm initial, final = 735.478 91.6176
  Force max component initial, final = 298.883 30.3732
  Final line search alpha, max atom move = 1.35319e-12 4.11009e-11
  Iterations, force evaluations = 6 71

MPI task timing breakdown:
Section |  min time  |  avg time  |  max time  |%varavg| %total
---------------------------------------------------------------
Pair    | 0.79228    | 0.79228    | 0.79228    |   0.0 | 59.25
Bond    | 0.14768    | 0.14768    | 0.14768    |   0.0 | 11.04
Kspace  | 0.39328    | 0.39328    | 0.39328    |   0.0 | 29.41
Neigh   | 0          | 0          | 0          |   0.0 |  0.00
Comm    | 4.1008e-05 | 4.1008e-05 | 4.1008e-05 |   0.0 |  0.00
Output  | 0          | 0          | 0          |   0.0 |  0.00
Modify  | 0          | 0          | 0          |   0.0 |  0.00
Other   |            | 0.003944   |            |       |  0.29

Nlocal:    4252 ave 4252 max 4252 min
Histogram: 1 0 0 0 0 0 0 0 0 0
Nghost:    0 ave 0 max 0 min
Histogram: 1 0 0 0 0 0 0 0 0 0
Neighs:    332089 ave 332089 max 332089 min
Histogram: 1 0 0 0 0 0 0 0 0 0

Total # of neighbors = 332089
Ave neighs/atom = 78.1018
Ave special neighs/atom = 11.2639
Neighbor list builds = 0
Dangerous builds = 0
write_dump all custom pysimm.dump.tmp id q x y z vx vy vz
quit
