pySIMM System Object

1277 atoms
1381 bonds
2430 angles
3746 dihedrals
420 impropers

9 atom types
11 bond types
18 angle types
8 dihedral types
4 improper types

-163.567080 163.567080 xlo xhi
-163.567080 163.567080 ylo yhi
-163.567080 163.567080 zlo zhi

Masses

   1	14.01	# n
   2	12.01	# c
   3	12.01	# ca
   4	1.008	# hn
   5	16.0	# o
   6	1.008	# ha
   7	12.01	# c3
   8	19.0	# f
   9	1.008	# hc

Pair Coeffs

   1	0.17	3.249998523775958	# n
   2	0.086	3.3996695084235347	# c
   3	0.086	3.3996695084235347	# ca
   4	0.0157	1.069078461768407	# hn
   5	0.21	2.959921901149463	# o
   6	0.015	2.59964245953351	# ha
   7	0.1094	3.3996695084235347	# c3
   8	0.061	3.1181455134911875	# f
   9	0.0157	2.649532787749369	# hc

Bond Coeffs

   1	345.8	1.086	# ca,ha
   2	384.2	1.4121	# ca,n
   3	637.7	1.2183	# c,o
   4	321.0	1.5156	# c3,ca
   5	461.1	1.3984	# ca,ca
   6	300.9	1.5375	# c3,c3
   7	330.6	1.0969	# c3,hc
   8	403.2	1.0129	# hn,n
   9	356.9	1.3497	# c3,f
  10	427.6	1.3789	# c,n
  11	345.9	1.4906	# c,ca

Angle Coeffs

   1	48.33	117.55	# c,n,hn
   2	74.22	123.05	# n,c,o
   3	64.28	120.33	# c,ca,ca
   4	70.89	107.36	# f,c3,f
   5	66.11	109.24	# c3,c3,f
   6	67.87	120.19	# ca,ca,n
   7	39.4	107.58	# hc,c3,hc
   8	63.53	120.77	# c3,ca,ca
   9	66.62	120.02	# ca,ca,ca
  10	63.82	123.71	# c,n,ca
  11	62.86	111.51	# c3,c3,c3
  12	46.34	109.8	# c3,c3,hc
  13	63.74	127.08	# c,n,c
  14	48.18	119.88	# ca,ca,ha
  15	68.72	122.6	# ca,c,o
  16	63.56	112.24	# ca,c3,ca
  17	63.15	112.07	# c3,c3,ca
  18	67.68	115.25	# ca,c,n

Dihedral Coeffs

   1	2	2.5	2	180	2.0	1	0	# hn,n,c,o
   2	1	3.625	2	180	# X,ca,ca,X
   3	1	0.16	3	0	# hc,c3,c3,c3
   4	1	1.0	2	180	# X,c,ca,X
   5	1	0.15555555555555556	3	0	# X,c3,c3,X
   6	1	0.0	2	0	# X,c3,ca,X
   7	1	2.5	2	180	# X,c,n,X
   8	1	0.45	2	180	# X,ca,n,X

Improper Coeffs

   1	10.5	-1	2	# c,X,X,o
   2	1.1	-1	2	# ca,X,X,ha
   3	1.1	-1	2	# ca,ca,ca,c3
   4	1.1	-1	2	# n,X,X,hn

Atoms

   1	1	1	0.469872	56.8493	101.14	28.8183
   2	1	2	0.06277	56.9394	102.53	28.6941
   3	1	3	0.008141	57.0844	102.786	27.234
   4	1	2	0.04539	56.9705	100.488	27.5902
   5	1	3	0.033062	57.1067	101.569	26.5864
   6	1	5	-0.387649	56.8655	103.377	29.5682
   7	1	5	-0.380594	56.9359	99.2913	27.3523
   8	1	3	0.006556	57.1216	103.993	26.5208
   9	1	3	-0.023388	57.1791	101.485	25.1963
  10	1	3	-0.199879	57.2114	102.686	24.4601
  11	1	3	-0.080819	57.1791	103.96	25.0997
  12	1	6	0.152396	57.0727	104.934	27.0645
  13	1	6	0.149363	57.177	100.516	24.7027
  14	1	6	0.171749	57.2329	102.592	23.38
  15	1	7	-0.126864	57.1123	105.299	24.3001
  16	1	7	0.414085	57.4589	105.148	22.769
  17	1	8	-0.136036	57.5937	106.346	22.1569
  18	1	8	-0.12675	56.5175	104.469	22.0748
  19	1	8	-0.136493	58.6383	104.51	22.588
  20	1	7	0.412463	55.6283	105.819	24.4364
  21	1	8	-0.134035	55.3099	106.804	23.5676
  22	1	8	-0.126523	55.3808	106.295	25.6772
  23	1	8	-0.120355	54.735	104.826	24.2231
  24	1	3	-0.02363	58.1681	106.29	24.8686
  25	1	3	-0.07382	57.9546	107.695	24.8798
  26	1	3	-0.058666	58.9995	108.539	25.2757
  27	1	3	-0.05367	59.4455	105.801	25.2628
  28	1	3	-0.161949	60.4805	106.668	25.669
  29	1	3	-0.052731	60.2266	108.044	25.6588
  30	1	2	0.511278	61.1265	109.197	25.933
  31	1	1	-0.11022	60.3734	110.337	25.6733
  32	1	2	0.48346	59.0752	110.024	25.289
  33	1	3	0.062835	60.8889	111.664	25.7352
  34	1	3	-0.214737	61.6813	112.077	26.8205
  35	1	3	-0.092253	62.2241	113.373	26.8619
  36	1	3	-0.160974	60.6373	112.579	24.6968
  37	1	3	-0.148646	61.1767	113.876	24.7391
  38	1	3	0.041241	61.9879	114.293	25.8151
  39	1	6	0.160326	61.896	111.386	27.6312
  40	1	6	0.154695	60.026	112.286	23.8469
  41	1	6	0.134327	60.9782	114.558	23.9164
  42	1	6	0.119951	62.8397	113.641	27.714
  43	1	6	0.172628	61.4633	106.289	25.9427
  44	1	6	0.137279	59.6571	104.735	25.2168
  45	1	6	0.14105	57.0275	108.148	24.5449
  46	1	5	-0.471402	58.1761	110.786	24.9802
  47	1	5	-0.485833	62.2973	109.126	26.2648
  48	1	7	0.140024	62.5936	115.717	25.7904
  49	1	7	-0.178691	63.5896	115.978	26.9517
  50	1	9	0.043413	63.0968	115.904	27.9295
  51	1	9	0.047557	64.0187	116.986	26.8738
  52	1	9	0.063016	64.423	115.265	26.9253
  53	1	7	-0.187892	61.4195	116.719	25.9621
  54	1	9	0.043685	60.7536	116.707	25.0901
  55	1	9	0.055699	61.7793	117.746	26.1038
  56	1	9	0.057684	60.8188	116.461	26.8437
  57	1	3	-0.164758	63.3705	117.151	23.7725
  58	1	3	-0.151844	64.1651	114.878	23.9587
  59	1	3	-0.169902	64.8992	115.037	22.7739
  60	1	3	0.006445	64.9028	116.262	22.0767
  61	1	3	-0.175352	64.1169	117.315	22.5924
  62	1	6	0.13478	65.4826	114.198	22.4035
  63	1	6	0.147112	64.0738	118.274	22.0883
  64	1	3	0.014571	63.3752	115.926	24.4736
  65	1	6	0.127309	64.2135	113.924	24.4765
  66	1	6	0.132317	62.7946	117.996	24.1351
  67	1	7	0.14442	65.7368	116.396	20.7822
  68	1	3	-0.008293	67.1122	115.72	20.9861
  69	1	7	-0.149636	66.0096	117.872	20.3857
  70	1	7	-0.207624	64.9027	115.762	19.6375
  71	1	3	-0.056733	67.8844	116.075	22.1135
  72	1	3	-0.427248	69.133	115.476	22.3521
  73	1	3	0.300563	69.6379	114.516	21.4672
  74	1	3	-0.034917	67.6361	114.754	20.0968
  75	1	3	-0.460652	68.8869	114.159	20.3412
  76	1	6	0.132306	67.5042	116.813	22.8163
  77	1	6	0.20081	69.7132	115.752	23.2265
  78	1	6	0.203835	69.2805	113.415	19.6556
  79	1	6	0.127298	67.0836	114.451	19.2132
  80	1	9	0.047033	64.7398	114.69	19.812
  81	1	9	0.065326	65.3933	115.886	18.664
  82	1	9	0.056928	63.9157	116.237	19.5714
  83	1	9	0.032023	66.4653	118.43	21.2135
  84	1	9	0.058797	65.0887	118.389	20.0894
  85	1	9	0.03359	66.6989	117.922	19.5329
  86	1	1	0.469872	49.7037	78.3808	33.2311
  87	1	2	0.06277	49.9379	79.7414	32.9675
  88	1	3	0.008141	49.0119	80.4998	33.8553
  89	1	2	0.04539	48.7138	78.2093	34.2039
  90	1	3	0.033062	48.2978	79.5813	34.5939
  91	1	5	-0.387649	50.7482	80.244	32.2062
  92	1	5	-0.380594	48.2439	77.1736	34.647
  93	1	3	0.006556	48.7881	81.8838	33.9827
  94	1	3	-0.023388	47.3391	79.9903	35.5198
  95	1	3	-0.199879	47.1083	81.372	35.6733
  96	1	3	-0.080819	47.8165	82.3501	34.913
  97	1	6	0.152396	49.3359	82.5737	33.3453
  98	1	6	0.149363	46.773	79.2539	36.0864
  99	1	6	0.171749	46.3306	81.6529	36.3734
 100	1	7	-0.126864	47.4291	83.8686	34.9656
 101	1	7	0.414085	46.4219	84.0845	33.7713
 102	1	8	-0.136036	47.0656	84.0572	32.5825
 103	1	8	-0.12675	45.7392	85.2499	33.8366
 104	1	8	-0.136493	45.4856	83.1095	33.7181
 105	1	7	0.412463	46.7221	84.2842	36.3139
 106	1	8	-0.134035	45.4564	83.822	36.4306
 107	1	8	-0.126523	46.6373	85.6276	36.4504
 108	1	8	-0.120355	47.417	83.8409	37.3863
 109	1	3	-0.02363	48.6887	84.7895	34.8686
 110	1	3	-0.07382	48.6488	86.0537	34.216
 111	1	3	-0.058666	49.7655	86.8979	34.2729
 112	1	3	-0.05367	49.879	84.446	35.5697
 113	1	3	-0.161949	51.0027	85.3048	35.5979
 114	1	3	-0.052731	50.9161	86.5374	34.935
 115	1	2	0.511278	51.9089	87.6418	34.7664
 116	1	1	-0.11022	51.2834	88.6103	33.9834
 117	1	2	0.48346	49.9737	88.246	33.6796
 118	1	3	0.062835	51.9441	89.7551	33.4279
 119	1	3	-0.214737	51.741	90.0816	32.076
 120	1	3	-0.092253	52.459	91.1195	31.4642
 121	1	3	-0.160974	52.8699	90.5265	34.1615
 122	1	3	-0.148646	53.6013	91.5656	33.5427
 123	1	3	0.041241	53.4179	91.8748	32.1762
 124	1	6	0.160326	51.0485	89.503	31.4705
 125	1	6	0.154695	53.0652	90.288	35.2041
 126	1	6	0.134327	54.3555	92.0977	34.1172
 127	1	6	0.119951	52.2942	91.2805	30.4053
 128	1	6	0.172628	51.9107	85.029	36.1313
 129	1	6	0.137279	49.9283	83.5088	36.119
 130	1	6	0.14105	47.7732	86.415	33.6892
 131	1	5	-0.471402	49.1512	88.8626	33.0246
 132	1	5	-0.485833	53.0513	87.6438	35.1915
 133	1	7	0.140024	54.3759	92.84	31.4274
 134	1	7	-0.178691	53.7417	93.4064	30.1252
 135	1	9	0.043413	53.6029	92.634	29.3596
 136	1	9	0.047557	54.3879	94.1755	29.6816
 137	1	9	0.063016	52.7702	93.8728	30.3335
 138	1	7	-0.187892	55.5904	91.965	31.0093
 139	1	9	0.043685	56.2283	92.4688	30.273
 140	1	9	0.055699	55.2545	91.0276	30.5475
 141	1	9	0.057684	56.2024	91.7036	31.8821
 142	1	3	-0.164758	53.8716	94.8165	33.0021
 143	1	3	-0.151844	56.0828	94.6712	32.0495
 144	1	3	-0.169902	56.3961	95.9331	32.5751
 145	1	3	0.006445	55.4523	96.6763	33.3077
 146	1	3	-0.175352	54.1899	96.081	33.5393
 147	1	6	0.13478	57.3687	96.3645	32.3533
 148	1	6	0.147112	53.42	96.6105	34.0909
 149	1	3	0.014571	54.8067	94.0928	32.233
 150	1	6	0.127309	56.8344	94.1869	31.4372
 151	1	6	0.132317	52.8673	94.4233	33.1378
 152	1	7	0.14442	55.8134	98.1266	33.7218
 153	1	3	-0.008293	56.104	98.9632	32.4505
 154	1	7	-0.149636	57.0334	98.0553	34.6834
 155	1	7	-0.207624	54.6734	98.8392	34.4955
 156	1	3	-0.056733	57.1238	99.9408	32.3895
 157	1	3	-0.427248	57.3631	100.667	31.2052
 158	1	3	0.300563	56.5913	100.446	30.0459
 159	1	3	-0.034917	55.3081	98.7753	31.3013
 160	1	3	-0.460652	55.5516	99.4985	30.1219
 161	1	6	0.132306	57.7427	100.147	33.2576
 162	1	6	0.20081	58.1544	101.413	31.1884
 163	1	6	0.203835	54.9389	99.299	29.2459
 164	1	6	0.127298	54.4991	98.0484	31.3132
 165	1	9	0.047033	54.971	99.8594	34.7711
 166	1	9	0.065326	54.4239	98.3039	35.4204
 167	1	9	0.056928	53.767	98.9189	33.8824
 168	1	9	0.032023	57.9387	97.719	34.163
 169	1	9	0.058797	56.8375	97.3498	35.501
 170	1	9	0.03359	57.2493	99.0296	35.1394
 171	1	1	0.469872	59.8575	53.8286	26.5375
 172	1	2	0.06277	58.9853	54.6635	25.8316
 173	1	3	0.008141	58.7127	55.8082	26.7356
 174	1	2	0.04539	60.2475	54.3947	27.7591
 175	1	3	0.033062	59.4688	55.659	27.8763
 176	1	5	-0.387649	58.4626	54.4831	24.7437
 177	1	5	-0.380594	60.9572	53.9159	28.629
 178	1	3	0.006556	57.725	56.7915	26.6291
 179	1	3	-0.023388	59.31	56.5287	28.9617
 180	1	3	-0.199879	58.3151	57.5304	28.876
 181	1	3	-0.080819	57.4839	57.6613	27.7287
 182	1	6	0.152396	57.1093	56.7826	25.7376
 183	1	6	0.149363	59.8853	56.3783	29.8727
 184	1	6	0.171749	58.1318	58.1533	29.7493
 185	1	7	-0.126864	56.2058	58.5551	27.8032
 186	1	7	0.414085	55.6074	58.8981	26.3837
 187	1	8	-0.136036	56.5667	59.3529	25.5457
 188	1	8	-0.12675	54.6704	59.8717	26.4488
 189	1	8	-0.136493	55.01	57.8464	25.7795
 190	1	7	0.412463	55.1481	57.7031	28.6084
 191	1	8	-0.134035	55.1053	56.4198	28.1808
 192	1	8	-0.126523	53.8826	58.1682	28.5077
 193	1	8	-0.120355	55.4551	57.6521	29.9246
 194	1	3	-0.02363	56.5079	59.9376	28.4613
 195	1	3	-0.07382	55.5425	60.6061	29.2619
 196	1	3	-0.058666	55.7326	61.9539	29.5869
 197	1	3	-0.05367	57.672	60.6621	28.0805
 198	1	3	-0.161949	57.8465	62.0238	28.4229
 199	1	3	-0.052731	56.836	62.6591	29.1595
 200	1	2	0.511278	56.6112	64.1028	29.4832
 201	1	1	-0.11022	55.3523	64.1654	30.0708
 202	1	2	0.48346	54.7823	62.9085	30.2127
 203	1	3	0.062835	54.6199	65.3584	30.337
 204	1	3	-0.214737	54.225	66.1991	29.2828
 205	1	3	-0.092253	53.2994	67.2384	29.5023
 206	1	3	-0.160974	54.131	65.6237	31.6264
 207	1	3	-0.148646	53.2063	66.6626	31.8454
 208	1	3	0.041241	52.7237	67.4574	30.7765
 209	1	6	0.160326	54.5885	66.0105	28.2759
 210	1	6	0.154695	54.4144	64.9778	32.4531
 211	1	6	0.134327	52.8252	66.7925	32.8523
 212	1	6	0.119951	52.984	67.8364	28.6528
 213	1	6	0.172628	58.7024	62.5897	28.0597
 214	1	6	0.137279	58.4123	60.1888	27.4397
 215	1	6	0.14105	54.604	60.1489	29.5533
 216	1	5	-0.471402	53.6796	62.633	30.652
 217	1	5	-0.485833	57.3342	65.0323	29.1706
 218	1	7	0.140024	51.5283	68.4476	30.9459
 219	1	7	-0.178691	50.7442	68.1739	32.2599
 220	1	9	0.043413	51.3463	68.4264	33.1414
 221	1	9	0.047557	50.4434	67.1202	32.3302
 222	1	9	0.063016	49.8317	68.7806	32.3132
 223	1	7	-0.187892	50.5231	68.1791	29.7851
 224	1	9	0.043685	49.5418	68.6306	29.9733
 225	1	9	0.055699	50.3593	67.1014	29.6532
 226	1	9	0.057684	50.889	68.5865	28.8349
 227	1	3	-0.164758	53.279	70.341	31.1511
 228	1	3	-0.151844	50.9735	70.9607	30.8145
 229	1	3	-0.169902	51.328	72.3233	30.8217
 230	1	3	0.006445	52.6669	72.7241	30.9948
 231	1	3	-0.175352	53.6328	71.703	31.1604
 232	1	6	0.13478	50.5539	73.0706	30.6671
 233	1	6	0.147112	54.683	71.9479	31.2713
 234	1	3	0.014571	51.9429	69.9406	30.9568
 235	1	6	0.127309	49.9271	70.7037	30.6858
 236	1	6	0.132317	54.0616	69.5993	31.2842
 237	1	7	0.14442	53.0749	74.214	30.8518
 238	1	3	-0.008293	52.019	75.2179	31.3945
 239	1	7	-0.149636	53.3782	74.4266	29.3438
 240	1	7	-0.207624	54.3849	74.5293	31.627
 241	1	3	-0.056733	51.6067	76.3555	30.6623
 242	1	3	-0.427248	50.8178	77.3607	31.2528
 243	1	3	0.300563	50.4176	77.2918	32.6038
 244	1	3	-0.034917	51.5637	75.1089	32.7243
 245	1	3	-0.460652	50.7849	76.1256	33.316
 246	1	6	0.132306	51.9308	76.5068	29.6377
 247	1	6	0.20081	50.5619	78.2357	30.6598
 248	1	6	0.203835	50.4855	76.0119	34.3552
 249	1	6	0.127298	51.8613	74.2488	33.3207
 250	1	9	0.047033	54.5836	75.609	31.6267
 251	1	9	0.065326	55.2588	74.045	31.1756
 252	1	9	0.056928	54.3128	74.2043	32.6727
 253	1	9	0.032023	52.4659	74.3281	28.7415
 254	1	9	0.058797	54.0934	73.677	28.9815
 255	1	9	0.03359	53.8189	75.4134	29.1537
 256	1	1	0.469872	53.5689	36.0452	9.87564
 257	1	2	0.06277	54.2114	35.2127	10.8008
 258	1	3	0.008141	55.1119	36.1032	11.5921
 259	1	2	0.04539	53.9503	37.384	10.036
 260	1	3	0.033062	54.9653	37.3895	11.1247
 261	1	5	-0.387649	54.1241	34.0018	10.9197
 262	1	5	-0.380594	53.6	38.3579	9.38938
 263	1	3	0.006556	56.0562	35.7907	12.5817
 264	1	3	-0.023388	55.7712	38.4278	11.6055
 265	1	3	-0.199879	56.7594	38.124	12.5702
 266	1	3	-0.080819	56.9226	36.8073	13.0858
 267	1	6	0.152396	56.1439	34.7537	12.8888
 268	1	6	0.149363	55.6656	39.4326	11.2022
 269	1	6	0.171749	57.4215	38.9263	12.8835
 270	1	7	-0.126864	58.0945	36.4531	14.0653
 271	1	7	0.414085	57.5787	35.5591	15.2598
 272	1	8	-0.136036	56.416	36.0314	15.761
 273	1	8	-0.12675	58.4646	35.5315	16.2819
 274	1	8	-0.136493	57.3495	34.2695	14.9282
 275	1	7	0.412463	59.1438	35.6176	13.2241
 276	1	8	-0.134035	58.6114	34.5536	12.5837
 277	1	8	-0.126523	60.1435	35.1146	13.9846
 278	1	8	-0.120355	59.6938	36.3726	12.2451
 279	1	3	-0.02363	58.7477	37.7304	14.7253
 280	1	3	-0.07382	57.9578	38.6316	15.5012
 281	1	3	-0.058666	58.5778	39.7102	16.1684
 282	1	3	-0.05367	60.1532	37.99	14.6653
 283	1	3	-0.161949	60.7527	39.0687	15.3402
 284	1	3	-0.052731	59.9375	39.9113	16.0931
 285	1	2	0.511278	60.2953	41.1163	16.8839
 286	1	1	-0.11022	59.0994	41.6202	17.3823
 287	1	2	0.48346	58.0202	40.8092	17.0189
 288	1	3	0.062835	58.9998	42.8623	18.0951
 289	1	3	-0.214737	59.7832	43.968	17.7141
 290	1	3	-0.092253	59.664	45.2085	18.3648
 291	1	3	-0.160974	58.1126	43.0332	19.1742
 292	1	3	-0.148646	57.9777	44.284	19.8132
 293	1	3	0.041241	58.7272	45.4146	19.4042
 294	1	6	0.160326	60.4888	43.8815	16.8922
 295	1	6	0.154695	57.4956	42.2008	19.5032
 296	1	6	0.134327	57.2522	44.3666	20.6142
 297	1	6	0.119951	60.2949	46.0166	18.0138
 298	1	6	0.172628	61.8263	39.2438	15.287
 299	1	6	0.137279	60.8338	37.3594	14.1091
 300	1	6	0.14105	56.8827	38.4978	15.5925
 301	1	5	-0.471402	56.8424	40.9692	17.2865
 302	1	5	-0.485833	61.4228	41.5608	17.0164
 303	1	7	0.140024	58.4579	46.8389	19.9858
 304	1	7	-0.178691	56.9327	47.0376	20.2387
 305	1	9	0.043413	56.5367	46.372	21.0122
 306	1	9	0.047557	56.3566	46.861	19.321
 307	1	9	0.063016	56.7243	48.0623	20.5734
 308	1	7	-0.187892	58.7812	47.9302	18.9159
 309	1	9	0.043685	59.85	47.9845	18.6804
 310	1	9	0.055699	58.479	48.9274	19.2621
 311	1	9	0.057684	58.2449	47.732	17.9788
 312	1	3	-0.164758	58.8688	46.3787	22.4842
 313	1	3	-0.151844	60.1579	48.1447	21.4751
 314	1	3	-0.169902	60.6971	48.4698	22.7326
 315	1	3	0.006445	60.3121	47.7794	23.897
 316	1	3	-0.175352	59.4056	46.7065	23.744
 317	1	6	0.13478	61.4053	49.291	22.8054
 318	1	6	0.147112	59.0869	46.1217	24.6003
 319	1	3	0.014571	59.2078	47.106	21.3232
 320	1	6	0.127309	60.4754	48.7462	20.6315
 321	1	6	0.132317	58.1518	45.5669	22.4241
 322	1	7	0.14442	60.9025	48.2083	25.2655
 323	1	3	-0.008293	60.7054	49.7275	25.499
 324	1	7	-0.149636	62.3956	47.7829	25.2766
 325	1	7	-0.207624	60.2217	47.4929	26.4646
 326	1	3	-0.056733	61.7071	50.5613	26.0479
 327	1	3	-0.427248	61.4443	51.9126	26.3517
 328	1	3	0.300563	60.171	52.4815	26.1339
 329	1	3	-0.034917	59.4419	50.3007	25.2562
 330	1	3	-0.460652	59.181	51.646	25.5709
 331	1	6	0.132306	62.6914	50.1657	26.2792
 332	1	6	0.20081	62.2287	52.5121	26.808
 333	1	6	0.203835	58.1831	52.037	25.3871
 334	1	6	0.127298	58.6419	49.6866	24.8478
 335	1	9	0.047033	59.1372	47.6618	26.4647
 336	1	9	0.065326	60.6128	47.8763	27.416
 337	1	9	0.056928	60.4038	46.4111	26.4463
 338	1	9	0.032023	62.8522	47.9318	26.2633
 339	1	9	0.058797	62.9762	48.3496	24.5383
 340	1	9	0.03359	62.4941	46.7175	25.031
 341	1	1	0.469872	38.6103	20.2111	-6.98032
 342	1	2	0.06277	38.4391	21.5943	-6.89186
 343	1	3	0.008141	39.364	22.0447	-5.81392
 344	1	2	0.04539	39.5883	19.7448	-6.09658
 345	1	3	0.033062	40.0549	20.947	-5.34897
 346	1	5	-0.387649	37.664	22.3015	-7.51401
 347	1	5	-0.380594	39.9594	18.5966	-5.91522
 348	1	3	0.006556	39.4985	23.3055	-5.2158
 349	1	3	-0.023388	40.9507	21.0625	-4.27973
 350	1	3	-0.199879	41.0965	22.3251	-3.6589
 351	1	3	-0.080819	40.3675	23.4668	-4.09558
 352	1	6	0.152396	38.8698	24.103	-5.59376
 353	1	6	0.149363	41.4741	20.1846	-3.90717
 354	1	6	0.171749	41.7385	22.3983	-2.78337
 355	1	7	-0.126864	40.3677	24.7634	-3.21249
 356	1	7	0.414085	39.8333	26.0274	-3.98676
 357	1	8	-0.136036	40.4659	26.1674	-5.1734
 358	1	8	-0.12675	40.0465	27.1768	-3.30646
 359	1	8	-0.136493	38.5044	25.9835	-4.23282
 360	1	7	0.412463	39.3897	24.4386	-2.01528
 361	1	8	-0.134035	38.9671	25.5291	-1.33791
 362	1	8	-0.126523	39.9739	23.6124	-1.11762
 363	1	8	-0.120355	38.2669	23.8111	-2.43577
 364	1	3	-0.02363	41.8014	25.1511	-2.71217
 365	1	3	-0.07382	41.9911	25.8768	-1.50223
 366	1	3	-0.058666	43.2722	26.3185	-1.14632
 367	1	3	-0.05367	42.9497	24.9145	-3.52039
 368	1	3	-0.161949	44.2418	25.3459	-3.12949
 369	1	3	-0.052731	44.3763	26.0561	-1.9256
 370	1	2	0.511278	45.5698	26.6575	-1.246
 371	1	1	-0.11022	45.0866	27.2629	-0.0896171
 372	1	2	0.48346	43.7126	27.11	0.0344768
 373	1	3	0.062835	45.8816	27.8529	0.939654
 374	1	3	-0.214737	45.7763	29.2209	1.2548
 375	1	3	-0.092253	46.3675	29.7391	2.42828
 376	1	3	-0.160974	46.648	27.0324	1.78114
 377	1	3	-0.148646	47.235	27.5486	2.9521
 378	1	3	0.041241	47.0775	28.9077	3.32506
 379	1	6	0.160326	45.1706	29.8725	0.630983
 380	1	6	0.154695	46.7279	25.9697	1.56765
 381	1	6	0.134327	47.7482	26.8468	3.59945
 382	1	6	0.119951	46.2018	30.7821	2.68548
 383	1	6	0.172628	45.1112	25.1564	-3.75642
 384	1	6	0.137279	42.839	24.4064	-4.47525
 385	1	6	0.14105	41.1698	26.1445	-0.847927
 386	1	5	-0.471402	42.9987	27.4954	0.943228
 387	1	5	-0.485833	46.7282	26.573	-1.61393
 388	1	7	0.140024	47.4283	29.4176	4.75886
 389	1	7	-0.178691	48.2458	28.3736	5.56986
 390	1	9	0.043413	49.1822	28.124	5.05496
 391	1	9	0.047557	47.6752	27.45	5.73047
 392	1	9	0.063016	48.5094	28.7601	6.56219
 393	1	7	-0.187892	46.0549	29.573	5.47412
 394	1	9	0.043685	45.5077	30.4437	5.09081
 395	1	9	0.055699	46.158	29.6894	6.55885
 396	1	9	0.057684	45.4277	28.6871	5.30814
 397	1	3	-0.164758	48.2673	31.4893	6.04334
 398	1	3	-0.151844	48.9832	31.2494	3.75681
 399	1	3	-0.169902	49.702	32.4591	3.86801
 400	1	3	0.006445	49.7151	33.2102	5.06976
 401	1	3	-0.175352	48.9896	32.6912	6.15711
 402	1	6	0.13478	50.2306	32.8135	2.98988
 403	1	6	0.147112	48.9615	33.2382	7.09616
 404	1	3	0.014571	48.2225	30.7533	4.83477
 405	1	6	0.127309	49.0135	30.7049	2.81707
 406	1	6	0.132317	47.7348	31.1359	6.91947
 407	1	7	0.14442	50.347	34.6251	5.1744
 408	1	3	-0.008293	51.0698	34.8902	6.53149
 409	1	7	-0.149636	49.1846	35.6251	4.92019
 410	1	7	-0.207624	51.3904	34.8911	4.05231
 411	1	3	-0.056733	50.7224	35.9646	7.38518
 412	1	3	-0.427248	51.5108	36.2999	8.50391
 413	1	3	0.300563	52.6882	35.5912	8.82258
 414	1	3	-0.034917	52.2056	34.1323	6.89017
 415	1	3	-0.460652	52.9995	34.4786	8.00706
 416	1	6	0.132306	49.8647	36.5936	7.1694
 417	1	6	0.20081	51.2359	37.1699	9.096
 418	1	6	0.203835	53.8895	33.8914	8.22182
 419	1	6	0.127298	52.5055	33.2951	6.26355
 420	1	9	0.047033	52.1705	34.1202	4.03735
 421	1	9	0.065326	51.8815	35.861	4.20575
 422	1	9	0.056928	50.923	34.9222	3.06018
 423	1	9	0.032023	49.5433	36.6621	4.88914
 424	1	9	0.058797	48.4154	35.5455	5.69885
 425	1	9	0.03359	48.6952	35.4185	3.95953
 426	1	1	0.469872	16.1751	7.66974	-14.3609
 427	1	2	0.06277	17.3201	6.92846	-14.0737
 428	1	3	0.008141	18.2904	7.91551	-13.5271
 429	1	2	0.04539	16.3276	9.02852	-14.0888
 430	1	3	0.033062	17.694	9.15914	-13.5284
 431	1	5	-0.387649	17.4854	5.72327	-14.1634
 432	1	5	-0.380594	15.5014	9.92084	-14.1897
 433	1	3	0.006556	19.5693	7.71732	-12.9938
 434	1	3	-0.023388	18.332	10.2717	-12.9766
 435	1	3	-0.199879	19.6185	10.0917	-12.4277
 436	1	3	-0.080819	20.2712	8.82698	-12.4426
 437	1	6	0.152396	19.9668	6.70863	-12.9926
 438	1	6	0.149363	17.8291	11.2359	-12.947
 439	1	6	0.171749	20.1032	10.9481	-11.9638
 440	1	7	-0.126864	21.6689	8.68371	-11.7616
 441	1	7	0.414085	21.3828	8.49691	-10.224
 442	1	8	-0.136036	20.9317	9.64253	-9.66501
 443	1	8	-0.12675	22.4677	8.10286	-9.52051
 444	1	8	-0.136493	20.4264	7.56587	-10.0013
 445	1	7	0.412463	22.4827	7.44302	-12.2924
 446	1	8	-0.134035	22.4845	7.40104	-13.6443
 447	1	8	-0.126523	22.0043	6.25549	-11.8575
 448	1	8	-0.120355	23.7791	7.49261	-11.9112
 449	1	3	-0.02363	22.5474	9.93735	-12.0801
 450	1	3	-0.07382	23.425	10.5346	-11.1298
 451	1	3	-0.058666	24.2363	11.6124	-11.5244
 452	1	3	-0.05367	22.5448	10.4607	-13.4037
 453	1	3	-0.161949	23.3566	11.5517	-13.7768
 454	1	3	-0.052731	24.2005	12.1087	-12.8093
 455	1	2	0.511278	25.177	13.2298	-12.9062
 456	1	1	-0.11022	25.759	13.3444	-11.6491
 457	1	2	0.48346	25.2472	12.4027	-10.7599
 458	1	3	0.062835	26.7287	14.3403	-11.3114
 459	1	3	-0.214737	27.9283	14.0088	-10.6544
 460	1	3	-0.092253	28.8613	15.0077	-10.3034
 461	1	3	-0.160974	26.4945	15.6907	-11.6222
 462	1	3	-0.148646	27.421	16.6877	-11.2648
 463	1	3	0.041241	28.627	16.3714	-10.5919
 464	1	6	0.160326	28.1309	12.9739	-10.3906
 465	1	6	0.154695	25.577	15.9763	-12.131
 466	1	6	0.134327	27.1635	17.7145	-11.499
 467	1	6	0.119951	29.7586	14.7158	-9.76779
 468	1	6	0.172628	23.3463	11.9428	-14.7925
 469	1	6	0.137279	21.909	10.0088	-14.1614
 470	1	6	0.14105	23.5089	10.1771	-10.109
 471	1	5	-0.471402	25.5375	12.2479	-9.58671
 472	1	5	-0.485833	25.388	13.9084	-13.8964
 473	1	7	0.140024	29.5756	17.4746	-10.0386
 474	1	7	-0.178691	29.2287	17.6477	-8.53242
 475	1	9	0.043413	29.9027	18.3692	-8.05232
 476	1	9	0.047557	29.2922	16.7001	-7.9853
 477	1	9	0.063016	28.201	18.0113	-8.40489
 478	1	7	-0.187892	29.2792	18.8725	-10.668
 479	1	9	0.043685	28.2993	19.2605	-10.3619
 480	1	9	0.055699	29.2868	18.8341	-11.7642
 481	1	9	0.057684	30.0259	19.6109	-10.3472
 482	1	3	-0.164758	31.8474	17.6606	-11.2928
 483	1	3	-0.151844	31.8164	16.4231	-9.23597
 484	1	3	-0.169902	33.2124	16.2546	-9.31601
 485	1	3	0.006445	33.9708	16.8039	-10.3737
 486	1	3	-0.175352	33.2458	17.5082	-11.3629
 487	1	6	0.13478	33.6979	15.6986	-8.52321
 488	1	6	0.147112	33.7532	17.9639	-12.205
 489	1	3	0.014571	31.0951	17.149	-10.2108
 490	1	6	0.127309	31.3051	15.992	-8.38271
 491	1	6	0.132317	31.3629	18.2181	-12.0871
 492	1	7	0.14442	35.5186	16.6116	-10.4539
 493	1	3	-0.008293	36.279	17.6328	-9.55225
 494	1	7	-0.149636	36.0034	16.6709	-11.9371
 495	1	7	-0.207624	35.9141	15.1654	-10.0212
 496	1	3	-0.056733	37.0742	18.6811	-10.0777
 497	1	3	-0.427248	37.8274	19.5274	-9.23742
 498	1	3	0.300563	37.8277	19.3624	-7.83763
 499	1	3	-0.034917	36.2511	17.5008	-8.14549
 500	1	3	-0.460652	37.0163	18.338	-7.30843
 501	1	6	0.132306	37.1351	18.8514	-11.1472
 502	1	6	0.20081	38.4216	20.3224	-9.68099
 503	1	6	0.203835	36.9908	18.1781	-6.23354
 504	1	6	0.127298	35.6476	16.7243	-7.68662
 505	1	9	0.047033	36.9979	15.0158	-10.1143
 506	1	9	0.065326	35.4184	14.4172	-10.6531
 507	1	9	0.056928	35.6573	14.9351	-8.98335
 508	1	9	0.032023	35.8514	17.6532	-12.3965
 509	1	9	0.058797	35.4652	15.937	-12.5515
 510	1	9	0.03359	37.0745	16.4411	-12.0132
 511	1	1	0.469872	-4.86281	9.82235	-5.07896
 512	1	2	0.06277	-3.84827	9.45746	-4.18721
 513	1	3	0.008141	-2.63545	10.1812	-4.64966
 514	1	2	0.04539	-4.43008	10.7638	-6.01616
 515	1	3	0.033062	-2.98491	10.9566	-5.73494
 516	1	5	-0.387649	-3.88899	8.64834	-3.27466
 517	1	5	-0.380594	-5.04512	11.2466	-6.95314
 518	1	3	0.006556	-1.30636	10.0685	-4.21866
 519	1	3	-0.023388	-2.02587	11.681	-6.44466
 520	1	3	-0.199879	-0.680857	11.5708	-6.03752
 521	1	3	-0.080819	-0.288081	10.7491	-4.94289
 522	1	6	0.152396	-1.09598	9.4204	-3.3744
 523	1	6	0.149363	-2.31151	12.2729	-7.31148
 524	1	6	0.171749	0.0722464	12.1046	-6.61329
 525	1	7	-0.126864	1.23636	10.5913	-4.64208
 526	1	7	0.414085	1.71589	11.9314	-3.96405
 527	1	8	-0.136036	2.97903	11.8658	-3.48654
 528	1	8	-0.12675	0.92272	12.2705	-2.92256
 529	1	8	-0.136493	1.67407	12.9767	-4.82064
 530	1	7	0.412463	1.57435	9.3883	-3.67869
 531	1	8	-0.134035	2.90347	9.14616	-3.62589
 532	1	8	-0.126523	1.00654	8.23262	-4.09256
 533	1	8	-0.120355	1.16145	9.59339	-2.40764
 534	1	3	-0.02363	1.94211	10.2847	-5.99848
 535	1	3	-0.07382	3.12608	10.9408	-6.44042
 536	1	3	-0.058666	3.64018	10.632	-7.71099
 537	1	3	-0.05367	1.35633	9.3072	-6.85189
 538	1	3	-0.161949	1.88972	9.00701	-8.11804
 539	1	3	-0.052731	3.03348	9.69662	-8.524
 540	1	2	0.511278	3.75875	9.65348	-9.81731
 541	1	1	-0.11022	4.76358	10.6003	-9.71315
 542	1	2	0.48346	4.7855	11.2184	-8.46959
 543	1	3	0.062835	5.58344	10.9406	-10.8181
 544	1	3	-0.214737	5.03554	11.6806	-11.8776
 545	1	3	-0.092253	5.758	11.8676	-13.0671
 546	1	3	-0.160974	6.8868	10.434	-10.9371
 547	1	3	-0.148646	7.61043	10.622	-12.1286
 548	1	3	0.041241	7.04113	11.3017	-13.2309
 549	1	6	0.160326	4.02572	12.0718	-11.7993
 550	1	6	0.154695	7.32343	9.8563	-10.1268
 551	1	6	0.134327	8.60657	10.1945	-12.205
 552	1	6	0.119951	5.28909	12.4242	-13.8713
 553	1	6	0.172628	1.41714	8.28028	-8.77627
 554	1	6	0.137279	0.453732	8.78674	-6.54253
 555	1	6	0.14105	3.63435	11.6934	-5.84594
 556	1	5	-0.471402	5.5219	12.1116	-8.09118
 557	1	5	-0.485833	3.4603	8.97804	-10.7869
 558	1	7	0.140024	7.80792	11.3945	-14.57
 559	1	7	-0.178691	8.73717	12.6375	-14.5196
 560	1	9	0.043413	9.36784	12.6946	-15.4168
 561	1	9	0.047557	9.38857	12.6156	-13.6373
 562	1	9	0.063016	8.15107	13.5637	-14.466
 563	1	7	-0.187892	6.86465	11.6138	-15.7908
 564	1	9	0.043685	6.42498	12.619	-15.7926
 565	1	9	0.055699	6.03826	10.8931	-15.8026
 566	1	9	0.057684	7.41938	11.5019	-16.7315
 567	1	3	-0.164758	7.8763	8.88533	-15.0871
 568	1	3	-0.151844	9.98062	9.98136	-14.6568
 569	1	3	-0.169902	10.6476	8.75838	-14.8217
 570	1	3	0.006445	9.95062	7.57757	-15.1684
 571	1	3	-0.175352	8.54814	7.66719	-15.2844
 572	1	6	0.13478	11.7221	8.76016	-14.6722
 573	1	6	0.147112	7.96364	6.78399	-15.5229
 574	1	3	0.014571	8.58073	10.0728	-14.7979
 575	1	6	0.127309	10.5765	10.8507	-14.4004
 576	1	6	0.132317	6.79276	8.89791	-15.156
 577	1	7	0.14442	10.6684	6.22495	-15.4132
 578	1	3	-0.008293	12.2018	6.37675	-15.2336
 579	1	7	-0.149636	10.3578	5.72952	-16.8539
 580	1	7	-0.207624	10.0804	5.15608	-14.4464
 581	1	3	-0.056733	12.8635	5.95976	-14.0559
 582	1	3	-0.427248	14.2013	6.31476	-13.8151
 583	1	3	0.300563	14.9167	7.10837	-14.7307
 584	1	3	-0.034917	12.9552	7.09279	-16.192
 585	1	3	-0.460652	14.287	7.4637	-15.9386
 586	1	6	0.132306	12.3362	5.41338	-13.2803
 587	1	6	0.20081	14.6662	6.02617	-12.8756
 588	1	6	0.203835	14.8045	8.10217	-16.6499
 589	1	6	0.127298	12.4766	7.46492	-17.0936
 590	1	9	0.047033	10.109	5.50377	-13.406
 591	1	9	0.065326	10.6372	4.21275	-14.5162
 592	1	9	0.056928	9.03258	4.93069	-14.6786
 593	1	9	0.032023	9.29603	5.48098	-16.974
 594	1	9	0.058797	10.9376	4.82837	-17.09
 595	1	9	0.03359	10.5894	6.49304	-17.6054
 596	1	1	0.469872	-28.1494	-0.114783	0.480105
 597	1	2	0.06277	-28.0149	1.27569	0.394516
 598	1	3	0.008141	-26.8954	1.50576	-0.534883
 599	1	2	0.04539	-27.1421	-0.785404	-0.221858
 600	1	3	0.033062	-26.342	0.291298	-0.869307
 601	1	5	-0.387649	-28.6599	2.15746	0.939516
 602	1	5	-0.380594	-26.9931	-1.98566	-0.383082
 603	1	3	0.006556	-26.4582	2.70983	-1.08624
 604	1	3	-0.023388	-25.2389	0.22707	-1.72296
 605	1	3	-0.199879	-24.7293	1.44106	-2.23578
 606	1	3	-0.080819	-25.3487	2.69844	-1.96897
 607	1	6	0.152396	-26.9945	3.61024	-0.810533
 608	1	6	0.149363	-24.7901	-0.731559	-1.97433
 609	1	6	0.171749	-23.841	1.38809	-2.85816
 610	1	7	-0.126864	-24.7525	4.00448	-2.58568
 611	1	7	0.414085	-25.539	5.32227	-2.20741
 612	1	8	-0.136036	-24.9334	6.4348	-2.68055
 613	1	8	-0.12675	-25.6108	5.51915	-0.871
 614	1	8	-0.136493	-26.805	5.32033	-2.68143
 615	1	7	0.412463	-24.7888	3.84485	-4.15993
 616	1	8	-0.134035	-24.5677	4.99202	-4.83834
 617	1	8	-0.126523	-25.9925	3.38341	-4.57091
 618	1	8	-0.120355	-23.867	2.96993	-4.61823
 619	1	3	-0.02363	-23.3366	4.16664	-1.97932
 620	1	3	-0.07382	-22.2195	4.64026	-2.71891
 621	1	3	-0.058666	-20.9936	4.79566	-2.05172
 622	1	3	-0.05367	-23.1735	3.89813	-0.590351
 623	1	3	-0.161949	-21.9406	4.06072	0.0571252
 624	1	3	-0.052731	-20.8656	4.50622	-0.70835
 625	1	2	0.511278	-19.472	4.76887	-0.294546
 626	1	1	-0.11022	-18.8212	5.20828	-1.43567
 627	1	2	0.48346	-19.6651	5.26976	-2.53858
 628	1	3	0.062835	-17.4473	5.55517	-1.42237
 629	1	3	-0.214737	-17.0092	6.81352	-1.86337
 630	1	3	-0.092253	-15.6728	7.20287	-1.66442
 631	1	3	-0.160974	-16.5229	4.67154	-0.843984
 632	1	3	-0.148646	-15.1937	5.06288	-0.637443
 633	1	3	0.041241	-14.754	6.35458	-1.00379
 634	1	6	0.160326	-17.709	7.50417	-2.32776
 635	1	6	0.154695	-16.8487	3.69422	-0.496579
 636	1	6	0.134327	-14.5287	4.3544	-0.156493
 637	1	6	0.119951	-15.3603	8.18629	-2.00289
 638	1	6	0.172628	-21.8237	3.86173	1.1209
 639	1	6	0.137279	-24.0176	3.57674	0.0127561
 640	1	6	0.14105	-22.2864	4.89621	-3.77244
 641	1	5	-0.471402	-19.395	5.63191	-3.67011
 642	1	5	-0.485833	-19.0195	4.60329	0.825496
 643	1	7	0.140024	-13.3181	6.84922	-0.701025
 644	1	7	-0.178691	-12.58	5.92642	0.30824
 645	1	9	0.043413	-11.6146	6.35438	0.605628
 646	1	9	0.047557	-12.3721	4.94324	-0.132522
 647	1	9	0.063016	-13.1735	5.78316	1.22086
 648	1	7	-0.187892	-13.4277	8.24418	-0.0171321
 649	1	9	0.043685	-12.4813	8.55296	0.442732
 650	1	9	0.055699	-14.1824	8.2261	0.780122
 651	1	9	0.057684	-13.711	9.02362	-0.734515
 652	1	3	-0.164758	-12.8233	6.20055	-3.14832
 653	1	3	-0.151844	-11.2764	7.6712	-2.0216
 654	1	3	-0.169902	-10.4853	7.73221	-3.18052
 655	1	3	0.006445	-10.8549	7.03749	-4.3522
 656	1	3	-0.175352	-12.0387	6.27113	-4.31041
 657	1	6	0.13478	-9.58204	8.33261	-3.14749
 658	1	6	0.147112	-12.3675	5.72323	-5.18776
 659	1	3	0.014571	-12.4685	6.91967	-1.98768
 660	1	6	0.127309	-10.9461	8.21369	-1.14185