pySIMM System Object

1107 atoms
1197 bonds
2106 angles
3246 dihedrals
364 impropers

9 atom types
11 bond types
18 angle types
8 dihedral types
4 improper types

-155.374700 155.374700 xlo xhi
-155.374700 155.374700 ylo yhi
-155.374700 155.374700 zlo zhi

Masses

   1	14.01	# n
   2	12.01	# c
   3	12.01	# ca
   4	1.008	# hn
   5	16.0	# o
   6	1.008	# ha
   7	12.01	# c3
   8	19.0	# f
   9	1.008	# hc

Pair Coeffs

   1	0.17	3.249998523775958	# n
   2	0.086	3.3996695084235347	# c
   3	0.086	3.3996695084235347	# ca
   4	0.0157	1.069078461768407	# hn
   5	0.21	2.959921901149463	# o
   6	0.015	2.59964245953351	# ha
   7	0.1094	3.3996695084235347	# c3
   8	0.061	3.1181455134911875	# f
   9	0.0157	2.649532787749369	# hc

Bond Coeffs

   1	345.8	1.086	# ca,ha
   2	384.2	1.4121	# ca,n
   3	637.7	1.2183	# c,o
   4	321.0	1.5156	# c3,ca
   5	461.1	1.3984	# ca,ca
   6	300.9	1.5375	# c3,c3
   7	330.6	1.0969	# c3,hc
   8	403.2	1.0129	# hn,n
   9	356.9	1.3497	# c3,f
  10	427.6	1.3789	# c,n
  11	345.9	1.4906	# c,ca

Angle Coeffs

   1	48.33	117.55	# c,n,hn
   2	74.22	123.05	# n,c,o
   3	64.28	120.33	# c,ca,ca
   4	70.89	107.36	# f,c3,f
   5	66.11	109.24	# c3,c3,f
   6	67.87	120.19	# ca,ca,n
   7	39.4	107.58	# hc,c3,hc
   8	63.53	120.77	# c3,ca,ca
   9	66.62	120.02	# ca,ca,ca
  10	63.82	123.71	# c,n,ca
  11	62.86	111.51	# c3,c3,c3
  12	46.34	109.8	# c3,c3,hc
  13	63.74	127.08	# c,n,c
  14	48.18	119.88	# ca,ca,ha
  15	68.72	122.6	# ca,c,o
  16	63.56	112.24	# ca,c3,ca
  17	63.15	112.07	# c3,c3,ca
  18	67.68	115.25	# ca,c,n

Dihedral Coeffs

   1	2	2.5	2	180	2.0	1	0	# hn,n,c,o
   2	1	3.625	2	180	# X,ca,ca,X
   3	1	0.16	3	0	# hc,c3,c3,c3
   4	1	1.0	2	180	# X,c,ca,X
   5	1	0.15555555555555556	3	0	# X,c3,c3,X
   6	1	0.0	2	0	# X,c3,ca,X
   7	1	2.5	2	180	# X,c,n,X
   8	1	0.45	2	180	# X,ca,n,X

Improper Coeffs

   1	10.5	-1	2	# c,X,X,o
   2	1.1	-1	2	# ca,X,X,ha
   3	1.1	-1	2	# ca,ca,ca,c3
   4	1.1	-1	2	# n,X,X,hn

Atoms

   1	1	1	0.469872	-91.5817	-43.2096	-43.6424
   2	1	2	0.06277	-92.8117	-42.8597	-44.2087
   3	1	3	0.008141	-93.4655	-41.9745	-43.2098
   4	1	2	0.04539	-91.385	-42.6164	-42.3921
   5	1	3	0.033062	-92.6165	-41.8346	-42.1336
   6	1	5	-0.387649	-93.2983	-43.224	-45.2666
   7	1	5	-0.380594	-90.4524	-42.7504	-41.6161
   8	1	3	0.006556	-94.731	-41.3767	-43.2251
   9	1	3	-0.023388	-92.9783	-41.0848	-41.0143
  10	1	3	-0.199879	-94.2533	-40.4849	-41.0025
  11	1	3	-0.080819	-95.1612	-40.6357	-42.0907
  12	1	6	0.152396	-95.373	-41.5155	-44.0918
  13	1	6	0.149363	-92.2941	-40.9846	-40.1743
  14	1	6	0.171749	-94.5143	-39.9081	-40.1221
  15	1	7	-0.126864	-96.5866	-40.0007	-42.093
  16	1	7	0.414085	-97.1035	-39.5947	-40.661
  17	1	8	-0.136036	-98.4166	-39.2706	-40.6714
  18	1	8	-0.12675	-96.4536	-38.5302	-40.1386
  19	1	8	-0.136493	-96.9793	-40.6178	-39.7848
  20	1	7	0.412463	-96.4882	-38.7117	-42.9939
  21	1	8	-0.134035	-97.5563	-37.8901	-42.8887
  22	1	8	-0.126523	-96.3602	-39.0345	-44.3007
  23	1	8	-0.120355	-95.4047	-37.9665	-42.6769
  24	1	3	-0.02363	-97.605	-41.0523	-42.6265
  25	1	3	-0.07382	-98.7451	-40.6844	-43.3903
  26	1	3	-0.058666	-99.6457	-41.68	-43.7903
  27	1	3	-0.05367	-97.4514	-42.4225	-42.2676
  28	1	3	-0.161949	-98.357	-43.4122	-42.6998
  29	1	3	-0.052731	-99.451	-43.0072	-43.4705
  30	1	2	0.511278	-100.593	-43.7899	-44.0153
  31	1	1	-0.11022	-101.43	-42.8597	-44.6129
  32	1	2	0.48346	-100.931	-41.5681	-44.5307
  33	1	3	0.062835	-102.684	-43.192	-45.1866
  34	1	3	-0.214737	-102.752	-44.0366	-46.3054
  35	1	3	-0.092253	-103.998	-44.4101	-46.8391
  36	1	3	-0.160974	-103.873	-42.7223	-44.6079
  37	1	3	-0.148646	-105.119	-43.1058	-45.1339
  38	1	3	0.041241	-105.204	-43.9481	-46.265
  39	1	6	0.160326	-101.839	-44.4238	-46.7497
  40	1	6	0.154695	-103.833	-42.0729	-43.7371
  41	1	6	0.134327	-106.025	-42.7508	-44.6486
  42	1	6	0.119951	-104.009	-45.0838	-47.6888
  43	1	6	0.172628	-98.2311	-44.4573	-42.4229
  44	1	6	0.137279	-96.6223	-42.7298	-41.6348
  45	1	6	0.14105	-98.9645	-39.6557	-43.6554
  46	1	5	-0.471402	-101.449	-40.5393	-44.9274
  47	1	5	-0.485833	-100.759	-44.9931	-43.9146
  48	1	7	0.140024	-106.586	-44.4105	-46.783
  49	1	7	-0.178691	-106.97	-45.6684	-45.9581
  50	1	9	0.043413	-106.185	-46.4324	-46.0276
  51	1	9	0.047557	-107.9	-46.1218	-46.3214
  52	1	9	0.063016	-107.093	-45.4196	-44.8963
  53	1	7	-0.187892	-106.558	-44.8316	-48.2782
  54	1	9	0.043685	-106.127	-44.041	-48.9053
  55	1	9	0.055699	-107.576	-45.026	-48.6407
  56	1	9	0.057684	-105.979	-45.75	-48.4349
  57	1	3	-0.164758	-107.318	-42.0035	-47.2085
  58	1	3	-0.151844	-108.886	-43.4383	-46.0609
  59	1	3	-0.169902	-109.802	-42.3758	-45.9952
  60	1	3	0.006445	-109.494	-41.1084	-46.5288
  61	1	3	-0.175352	-108.232	-40.9388	-47.1374
  62	1	6	0.13478	-110.771	-42.5436	-45.5326
  63	1	6	0.147112	-107.94	-39.9865	-47.5676
  64	1	3	0.014571	-107.622	-43.2684	-46.6654
  65	1	6	0.127309	-109.184	-44.3926	-45.6411
  66	1	6	0.132317	-106.357	-41.8411	-47.6893
  67	1	7	0.14442	-110.55	-39.9827	-46.4404
  68	1	3	-0.008293	-111.864	-40.4595	-47.0951
  69	1	7	-0.149636	-110.124	-38.6831	-47.1731
  70	1	7	-0.207624	-110.714	-39.6243	-44.9372
  71	1	3	-0.056733	-111.812	-41.1689	-48.3154
  72	1	3	-0.427248	-112.989	-41.603	-48.9479
  73	1	3	0.300563	-114.24	-41.3286	-48.3822
  74	1	3	-0.034917	-113.134	-40.1759	-46.5422
  75	1	3	-0.460652	-114.308	-40.612	-47.1815
  76	1	6	0.132306	-110.851	-41.386	-48.7769
  77	1	6	0.20081	-112.936	-42.1522	-49.8824
  78	1	6	0.203835	-115.279	-40.391	-46.7496
  79	1	6	0.127298	-113.226	-39.6128	-45.619
  80	1	9	0.047033	-111.17	-40.45	-44.3765
  81	1	9	0.065326	-111.337	-38.7316	-44.7979
  82	1	9	0.056928	-109.737	-39.4143	-44.4826
  83	1	9	0.032023	-109.935	-38.8716	-48.2377
  84	1	9	0.058797	-109.218	-38.2513	-46.7295
  85	1	9	0.03359	-110.916	-37.9259	-47.1102
  86	1	1	0.469872	-70.2114	-41.725	-39.1127
  87	1	2	0.06277	-71.5405	-41.6601	-39.5465
  88	1	3	0.008141	-71.7596	-42.9029	-40.3329
  89	1	2	0.04539	-69.5679	-42.8853	-39.5489
  90	1	3	0.033062	-70.5853	-43.6238	-40.3321
  91	1	5	-0.387649	-72.3733	-40.794	-39.3345
  92	1	5	-0.380594	-68.4325	-43.2681	-39.3162
  93	1	3	0.006556	-72.9043	-43.3686	-40.9933
  94	1	3	-0.023388	-70.4835	-44.8477	-40.9913
  95	1	3	-0.199879	-71.6204	-45.3329	-41.6662
  96	1	3	-0.080819	-72.8522	-44.6137	-41.6782
  97	1	6	0.152396	-73.812	-42.7706	-40.9682
  98	1	6	0.149363	-69.5468	-45.4008	-40.9841
  99	1	6	0.171749	-71.5057	-46.2791	-42.1826
 100	1	7	-0.126864	-74.1168	-45.1125	-42.4489
 101	1	7	0.414085	-74.2889	-44.15	-43.6874
 102	1	8	-0.136036	-74.7738	-42.9452	-43.3129
 103	1	8	-0.12675	-75.1178	-44.6212	-44.645
 104	1	8	-0.136493	-73.1047	-43.9175	-44.2984
 105	1	7	0.412463	-73.9942	-46.5983	-42.9648
 106	1	8	-0.134035	-73.0581	-46.7473	-43.9292
 107	1	8	-0.126523	-75.1514	-47.0647	-43.4871
 108	1	8	-0.120355	-73.6874	-47.4453	-41.9552
 109	1	3	-0.02363	-75.3484	-45.1033	-41.4971
 110	1	3	-0.07382	-76.6716	-45.0176	-42.0062
 111	1	3	-0.058666	-77.7512	-45.2178	-41.138
 112	1	3	-0.05367	-75.1798	-45.3671	-40.1073
 113	1	3	-0.161949	-76.2816	-45.5451	-39.2458
 114	1	3	-0.052731	-77.5649	-45.4798	-39.7978
 115	1	2	0.511278	-78.8821	-45.8406	-39.2078
 116	1	1	-0.11022	-79.7801	-45.8239	-40.266
 117	1	2	0.48346	-79.1931	-45.4011	-41.45
 118	1	3	0.062835	-81.0805	-46.389	-40.1987
 119	1	3	-0.214737	-82.2185	-45.6565	-40.5733
 120	1	3	-0.092253	-83.4878	-46.2628	-40.5507
 121	1	3	-0.160974	-81.229	-47.7285	-39.8034
 122	1	3	-0.148646	-82.4935	-48.3365	-39.7901
 123	1	3	0.041241	-83.6458	-47.6163	-40.1758
 124	1	6	0.160326	-82.1181	-44.6237	-40.8968
 125	1	6	0.154695	-80.3565	-48.3068	-39.5107
 126	1	6	0.134327	-82.5558	-49.3738	-39.4801
 127	1	6	0.119951	-84.3572	-45.6823	-40.8497
 128	1	6	0.172628	-76.1447	-45.8032	-38.1972
 129	1	6	0.137279	-74.185	-45.5013	-39.6912
 130	1	6	0.14105	-76.8799	-44.8974	-43.0641
 131	1	5	-0.471402	-79.6977	-45.341	-42.557
 132	1	5	-0.485833	-79.0745	-46.231	-38.0695
 133	1	7	0.140024	-85.0566	-48.2503	-40.1862
 134	1	7	-0.178691	-85.8338	-47.6211	-38.9966
 135	1	9	0.043413	-85.2456	-47.6886	-38.0723
 136	1	9	0.047557	-86.785	-48.1342	-38.8101
 137	1	9	0.063016	-86.0466	-46.5603	-39.1798
 138	1	7	-0.187892	-85.0405	-49.7868	-39.9649
 139	1	9	0.043685	-86.0559	-50.1985	-40.0307
 140	1	9	0.055699	-84.646	-50.0486	-38.9751
 141	1	9	0.057684	-84.4326	-50.2879	-40.7291
 142	1	3	-0.164758	-85.0093	-47.9911	-42.7448
 143	1	3	-0.151844	-87.1503	-47.8474	-41.638
 144	1	3	-0.169902	-87.7698	-47.6247	-42.876
 145	1	3	0.006445	-87.0206	-47.537	-44.0676
 146	1	3	-0.175352	-85.6287	-47.7516	-43.9845
 147	1	6	0.13478	-88.8489	-47.5005	-42.8998
 148	1	6	0.147112	-85.0091	-47.7311	-44.8749
 149	1	3	0.014571	-85.7528	-48.0043	-41.5443
 150	1	6	0.127309	-87.7773	-47.8955	-40.7546
 151	1	6	0.132317	-83.935	-48.1549	-42.7226
 152	1	7	0.14442	-87.7478	-47.2224	-45.3948
 153	1	3	-0.008293	-88.7953	-46.1216	-45.1105
 154	1	7	-0.149636	-88.3692	-48.5463	-45.9136
 155	1	7	-0.207624	-86.793	-46.7065	-46.5078
 156	1	3	-0.056733	-90.1872	-46.3317	-45.2259
 157	1	3	-0.427248	-91.1002	-45.3583	-44.7805
 158	1	3	0.300563	-90.6577	-44.142	-44.2188
 159	1	3	-0.034917	-88.3539	-44.8871	-44.5932
 160	1	3	-0.460652	-89.2681	-43.9124	-44.1628
 161	1	6	0.132306	-90.5787	-47.2664	-45.616
 162	1	6	0.20081	-92.1658	-45.5651	-44.8486
 163	1	6	0.203835	-88.8869	-42.9955	-43.7191
 164	1	6	0.127298	-87.2889	-44.705	-44.4676
 165	1	9	0.047033	-87.366	-46.3761	-47.3837
 166	1	9	0.065326	-86.105	-47.4918	-46.845
 167	1	9	0.056928	-86.191	-45.8571	-46.1629
 168	1	9	0.032023	-89.065	-48.975	-45.1813
 169	1	9	0.058797	-87.5878	-49.2951	-46.096
 170	1	9	0.03359	-88.9086	-48.3912	-46.8569
 171	1	1	0.469872	-60.1913	-28.4221	-32.9106
 172	1	2	0.06277	-58.9376	-28.2727	-33.5098
 173	1	3	0.008141	-58.6038	-29.6091	-34.0604
 174	1	2	0.04539	-60.657	-29.7365	-32.9654
 175	1	3	0.033062	-59.6241	-30.4767	-33.7336
 176	1	5	-0.387649	-58.2724	-27.259	-33.6452
 177	1	5	-0.380594	-61.7236	-30.1849	-32.5774
 178	1	3	0.006556	-57.5247	-30.002	-34.8619
 179	1	3	-0.023388	-59.6143	-31.7985	-34.1772
 180	1	3	-0.199879	-58.537	-32.2175	-34.9839
 181	1	3	-0.080819	-57.4857	-31.3291	-35.3663
 182	1	6	0.152396	-56.7562	-29.2715	-35.0947
 183	1	6	0.149363	-60.4297	-32.4716	-33.9214
 184	1	6	0.171749	-58.5543	-33.2509	-35.3132
 185	1	7	-0.126864	-56.3179	-31.798	-36.2908
 186	1	7	0.414085	-56.013	-30.7266	-37.4225
 187	1	8	-0.136036	-57.1447	-30.1879	-37.9295
 188	1	8	-0.12675	-55.3287	-31.2769	-38.4503
 189	1	8	-0.136493	-55.2905	-29.6569	-37.0267
 190	1	7	0.412463	-55.0317	-31.9646	-35.3865
 191	1	8	-0.134035	-54.5647	-30.8048	-34.8739
 192	1	8	-0.126523	-54.0155	-32.5365	-36.0703
 193	1	8	-0.120355	-55.275	-32.7124	-34.287
 194	1	3	-0.02363	-56.7461	-33.1493	-36.9732
 195	1	3	-0.07382	-56.4105	-34.4147	-36.4124
 196	1	3	-0.058666	-57.0971	-35.5603	-36.831
 197	1	3	-0.05367	-57.6977	-33.1448	-38.0385
 198	1	3	-0.161949	-58.3522	-34.3148	-38.4692
 199	1	3	-0.052731	-58.0612	-35.5096	-37.8099
 200	1	2	0.511278	-58.8598	-36.7604	-37.7469
 201	1	1	-0.11022	-58.3771	-37.4497	-36.6373
 202	1	2	0.48346	-57.2259	-36.8592	-36.1233
 203	1	3	0.062835	-59.1798	-38.3806	-35.9101
 204	1	3	-0.214737	-59.9867	-39.3216	-36.5741
 205	1	3	-0.092253	-60.9728	-40.0383	-35.8735
 206	1	3	-0.160974	-59.3364	-38.2307	-34.5181
 207	1	3	-0.148646	-60.2998	-38.967	-33.8136
 208	1	3	0.041241	-61.1628	-39.8587	-34.4862
 209	1	6	0.160326	-59.9117	-39.4416	-37.6521
 210	1	6	0.154695	-58.75	-37.498	-33.971
 211	1	6	0.134327	-60.4013	-38.7804	-32.75
 212	1	6	0.119951	-61.6365	-40.6931	-36.4305
 213	1	6	0.172628	-59.1563	-34.2709	-39.202
 214	1	6	0.137279	-58.0348	-32.2205	-38.4874
 215	1	6	0.14105	-55.7476	-34.5308	-35.5657
 216	1	5	-0.471402	-56.5948	-37.1773	-35.1305
 217	1	5	-0.485833	-59.8891	-36.9579	-38.3692
 218	1	7	0.140024	-62.3639	-40.5357	-33.7845
 219	1	7	-0.178691	-62.3622	-40.3365	-32.2439
 220	1	9	0.043413	-62.467	-39.2767	-31.9783
 221	1	9	0.047557	-61.4395	-40.7207	-31.7906
 222	1	9	0.063016	-63.207	-40.8647	-31.7836
 223	1	7	-0.187892	-62.2708	-42.0683	-34.0315
 224	1	9	0.043685	-62.9888	-42.6233	-33.415
 225	1	9	0.055699	-61.2696	-42.4382	-33.7751
 226	1	9	0.057684	-62.4654	-42.3223	-35.0803
 227	1	3	-0.164758	-63.7472	-38.5259	-34.5677
 228	1	3	-0.151844	-64.8593	-40.6664	-34.4637
 229	1	3	-0.169902	-66.0594	-40.0557	-34.866
 230	1	3	0.006445	-66.1251	-38.6732	-35.1398
 231	1	3	-0.175352	-64.945	-37.9172	-34.9777
 232	1	6	0.13478	-66.9529	-40.6683	-34.9522
 233	1	6	0.147112	-64.943	-36.8455	-35.1444
 234	1	3	0.014571	-63.6772	-39.9124	-34.3109
 235	1	6	0.127309	-64.8707	-41.7297	-34.25
 236	1	6	0.132317	-62.8702	-37.8993	-34.4319
 237	1	7	0.14442	-67.4782	-38.026	-35.5203
 238	1	3	-0.008293	-68.2565	-38.9508	-36.4835
 239	1	7	-0.149636	-67.3142	-36.6574	-36.2362
 240	1	7	-0.207624	-68.2328	-37.7626	-34.1896
 241	1	3	-0.056733	-67.603	-39.4536	-37.6262
 242	1	3	-0.427248	-68.2547	-40.3387	-38.5014
 243	1	3	0.300563	-69.5826	-40.752	-38.2683
 244	1	3	-0.034917	-69.6014	-39.3267	-36.2709
 245	1	3	-0.460652	-70.2486	-40.2167	-37.1466
 246	1	6	0.132306	-66.5681	-39.1773	-37.8194
 247	1	6	0.20081	-67.7056	-40.7377	-39.3511
 248	1	6	0.203835	-71.2804	-40.4967	-36.9466
 249	1	6	0.127298	-70.158	-38.9488	-35.4188
 250	1	9	0.047033	-69.1687	-37.2147	-34.3561
 251	1	9	0.065326	-67.6166	-37.1608	-33.5093
 252	1	9	0.056928	-68.4654	-38.7038	-33.675
 253	1	9	0.032023	-66.6519	-36.741	-37.1072
 254	1	9	0.058797	-66.9045	-35.8935	-35.5641
 255	1	9	0.03359	-68.2858	-36.2889	-36.5902
 256	1	1	0.469872	-54.5164	-12.2814	-17.4618
 257	1	2	0.06277	-55.7516	-12.3118	-16.7915
 258	1	3	0.008141	-56.7804	-12.5826	-17.8323
 259	1	2	0.04539	-54.6781	-12.5522	-18.8299
 260	1	3	0.033062	-56.1428	-12.7021	-19.045
 261	1	5	-0.387649	-55.9976	-12.0732	-15.6202
 262	1	5	-0.380594	-53.8308	-12.6337	-19.7042
 263	1	3	0.006556	-58.1788	-12.628	-17.7275
 264	1	3	-0.023388	-56.8726	-12.8335	-20.2304
 265	1	3	-0.199879	-58.2831	-12.8454	-20.1515
 266	1	3	-0.080819	-58.9682	-12.7734	-18.9048
 267	1	6	0.152396	-58.6209	-12.4934	-16.7464
 268	1	6	0.149363	-56.3584	-12.8786	-21.1878
 269	1	6	0.171749	-58.8409	-12.8856	-21.0836
 270	1	7	-0.126864	-60.5326	-12.7139	-18.8572
 271	1	7	0.414085	-61.1194	-13.4682	-17.6011
 272	1	8	-0.136036	-60.5392	-14.678	-17.4383
 273	1	8	-0.12675	-62.448	-13.6892	-17.7283
 274	1	8	-0.136493	-60.9608	-12.8037	-16.4352
 275	1	7	0.412463	-60.9118	-11.1862	-18.7605
 276	1	8	-0.134035	-60.2456	-10.5458	-17.7734
 277	1	8	-0.126523	-62.2263	-10.9798	-18.5176
 278	1	8	-0.120355	-60.5936	-10.5326	-19.901
 279	1	3	-0.02363	-61.1581	-13.4188	-20.1119
 280	1	3	-0.07382	-60.7261	-14.7267	-20.4596
 281	1	3	-0.058666	-61.2971	-15.372	-21.5682
 282	1	3	-0.05367	-62.193	-12.8354	-20.9061
 283	1	3	-0.161949	-62.7567	-13.5044	-22.0138
 284	1	3	-0.052731	-62.2826	-14.7812	-22.328
 285	1	2	0.511278	-62.6475	-15.7113	-23.4366
 286	1	1	-0.11022	-61.8353	-16.826	-23.2742
 287	1	2	0.48346	-60.9998	-16.6999	-22.1668
 288	1	3	0.062835	-61.7855	-17.94	-24.1652
 289	1	3	-0.214737	-61.7503	-19.2459	-23.6506
 290	1	3	-0.092253	-61.457	-20.3385	-24.483
 291	1	3	-0.160974	-61.6466	-17.7633	-25.5549
 292	1	3	-0.148646	-61.3588	-18.8607	-26.3917
 293	1	3	0.041241	-61.1832	-20.1584	-25.8596
 294	1	6	0.160326	-61.8605	-19.4103	-22.5817
 295	1	6	0.154695	-61.689	-16.7644	-25.9819
 296	1	6	0.134327	-61.1762	-18.6827	-27.4482
 297	1	6	0.119951	-61.3586	-21.31	-24.0119
 298	1	6	0.172628	-63.5396	-13.0435	-22.6141
 299	1	6	0.137279	-62.5879	-11.8506	-20.6877
 300	1	6	0.14105	-59.9487	-15.2316	-19.8904
 301	1	5	-0.471402	-60.1471	-17.478	-21.7763
 302	1	5	-0.485833	-63.4573	-15.4946	-24.3212
 303	1	7	0.140024	-60.4763	-21.2544	-26.7068
 304	1	7	-0.178691	-60.1178	-22.5092	-25.8625
 305	1	9	0.043413	-61.0243	-23.0071	-25.4944
 306	1	9	0.047557	-59.4844	-22.2502	-25.0046
 307	1	9	0.063016	-59.5692	-23.2453	-26.4636
 308	1	7	-0.187892	-59.1219	-20.6331	-27.1632
 309	1	9	0.043685	-59.2677	-19.9111	-27.9763
 310	1	9	0.055699	-58.4106	-21.3907	-27.5115
 311	1	9	0.057684	-58.6382	-20.1069	-26.3297
 312	1	3	-0.164758	-62.6973	-21.791	-27.9291
 313	1	3	-0.151844	-60.6195	-22.4322	-28.9739
 314	1	3	-0.169902	-61.3232	-23.089	-29.9915
 315	1	3	0.006445	-62.7297	-23.1496	-29.9829
 316	1	3	-0.175352	-63.4061	-22.4551	-28.953
 317	1	6	0.13478	-60.7526	-23.5809	-30.7739
 318	1	6	0.147112	-64.4908	-22.4433	-28.9228
 319	1	3	0.014571	-61.2871	-21.7826	-27.9134
 320	1	6	0.127309	-59.537	-22.4809	-29.002
 321	1	6	0.132317	-63.2532	-21.3151	-27.1259
 322	1	7	0.14442	-63.4726	-23.9274	-31.0956
 323	1	3	-0.008293	-62.6087	-25.12	-31.5923
 324	1	7	-0.149636	-63.7974	-22.919	-32.2308
 325	1	7	-0.207624	-64.8382	-24.4915	-30.6068
 326	1	3	-0.056733	-61.9526	-25.1067	-32.844
 327	1	3	-0.427248	-61.1552	-26.1866	-33.2562
 328	1	3	0.300563	-60.978	-27.3214	-32.4422
 329	1	3	-0.034917	-62.4148	-26.251	-30.7672
 330	1	3	-0.460652	-61.6239	-27.338	-31.1893
 331	1	6	0.132306	-62.0391	-24.2573	-33.5136
 332	1	6	0.20081	-60.6577	-26.1351	-34.222
 333	1	6	0.203835	-61.5223	-28.2061	-30.5418
 334	1	6	0.127298	-62.8811	-26.2907	-29.7861
 335	1	9	0.047033	-64.7379	-25.0288	-29.6563
 336	1	9	0.065326	-65.2545	-25.1878	-31.3466
 337	1	9	0.056928	-65.5784	-23.6957	-30.4594
 338	1	9	0.032023	-64.2728	-23.4205	-33.0841
 339	1	9	0.058797	-62.8901	-22.4128	-32.5835
 340	1	9	0.03359	-64.4824	-22.1375	-31.8789
 341	1	1	0.469872	-30.3657	-4.58438	-8.30029
 342	1	2	0.06277	-31.7001	-4.64473	-7.88245
 343	1	3	0.008141	-32.4532	-5.25199	-9.0085
 344	1	2	0.04539	-30.2001	-5.13297	-9.57944
 345	1	3	0.033062	-31.5692	-5.54367	-10.0217
 346	1	5	-0.387649	-32.1892	-4.27299	-6.8279
 347	1	5	-0.380594	-29.1756	-5.22661	-10.2356
 348	1	3	0.006556	-33.833	-5.43834	-9.14939
 349	1	3	-0.023388	-32.0334	-6.06537	-11.2377
 350	1	3	-0.199879	-33.4293	-6.25432	-11.4052
 351	1	3	-0.080819	-34.3602	-5.93455	-10.3765
 352	1	6	0.152396	-34.4573	-5.12662	-8.32108
 353	1	6	0.149363	-31.3345	-6.2691	-12.0462
 354	1	6	0.171749	-33.7948	-6.59553	-12.3718
 355	1	7	-0.126864	-35.8988	-5.90807	-10.6844
 356	1	7	0.414085	-36.7777	-5.88911	-9.37278
 357	1	8	-0.136036	-36.3892	-6.86084	-8.51583
 358	1	8	-0.12675	-38.0878	-6.11383	-9.62402
 359	1	8	-0.136493	-36.7286	-4.7133	-8.70713
 360	1	7	0.412463	-36.1369	-4.56439	-11.4784
 361	1	8	-0.134035	-37.4307	-4.17443	-11.5232
 362	1	8	-0.126523	-35.7036	-4.66869	-12.7552
 363	1	8	-0.120355	-35.4626	-3.52744	-10.9297
 364	1	3	-0.02363	-36.3931	-7.16708	-11.4742
 365	1	3	-0.07382	-37.5207	-7.09525	-12.3404
 366	1	3	-0.058666	-38.1238	-8.27292	-12.7988
 367	1	3	-0.05367	-35.8854	-8.46049	-11.165
 368	1	3	-0.161949	-36.4982	-9.64027	-11.6571
 369	1	3	-0.052731	-37.6455	-9.51617	-12.4577
 370	1	2	0.511278	-38.6001	-10.536	-13.0
 371	1	1	-0.11022	-39.6238	-9.82066	-13.6226
 372	1	2	0.48346	-39.3843	-8.45089	-13.5679
 373	1	3	0.062835	-40.7773	-10.394	-14.2564
 374	1	3	-0.214737	-42.0497	-9.80117	-14.1183
 375	1	3	-0.092253	-43.1593	-10.2682	-14.8521
 376	1	3	-0.160974	-40.6632	-11.5136	-15.1003
 377	1	3	-0.148646	-41.7732	-11.9846	-15.8297
 378	1	3	0.041241	-43.0399	-11.3587	-15.7396
 379	1	6	0.160326	-42.1758	-8.93186	-13.4783
 380	1	6	0.154695	-39.6993	-12.0	-15.2285
 381	1	6	0.134327	-41.6199	-12.8136	-16.5123
 382	1	6	0.119951	-44.1034	-9.73785	-14.7637
 383	1	6	0.172628	-36.1323	-10.6247	-11.3707
 384	1	6	0.137279	-35.0481	-8.55714	-10.4781
 385	1	6	0.14105	-38.0054	-6.16044	-12.5942
 386	1	5	-0.471402	-40.0598	-7.54869	-14.0317
 387	1	5	-0.485833	-38.4979	-11.7446	-12.8791
 388	1	7	0.140024	-44.19	-11.7412	-16.711
 389	1	7	-0.178691	-44.2355	-13.2757	-16.9734
 390	1	9	0.043413	-44.2451	-13.846	-16.0371
 391	1	9	0.047557	-43.3772	-13.6219	-17.5613
 392	1	9	0.063016	-45.1374	-13.5405	-17.5412
 393	1	7	-0.187892	-43.8363	-11.0864	-18.0758
 394	1	9	0.043685	-43.7068	-10.0014	-17.9718
 395	1	9	0.055699	-44.6166	-11.2755	-18.8242
 396	1	9	0.057684	-42.8924	-11.481	-18.4727
 397	1	3	-0.164758	-46.3109	-10.2227	-16.7926
 398	1	3	-0.151844	-46.2705	-12.0328	-15.2108
 399	1	3	-0.169902	-47.5846	-11.7147	-14.8155
 400	1	3	0.006445	-48.2865	-10.6231	-15.3761
 401	1	3	-0.175352	-47.6162	-9.89269	-16.3831
 402	1	6	0.13478	-48.0449	-12.3285	-14.0494
 403	1	6	0.147112	-48.0926	-9.04588	-16.8636
 404	1	3	0.014571	-45.6035	-11.3038	-16.2181
 405	1	6	0.127309	-45.7734	-12.8682	-14.7272
 406	1	6	0.132317	-45.8624	-9.61433	-17.5702
 407	1	7	0.14442	-49.6866	-10.1943	-14.838
 408	1	3	-0.008293	-50.8611	-10.9349	-15.5397
 409	1	7	-0.149636	-49.9228	-8.66657	-15.0405
 410	1	7	-0.207624	-49.7103	-10.3638	-13.2877
 411	1	3	-0.056733	-51.8402	-11.6701	-14.8324
 412	1	3	-0.427248	-52.999	-12.1558	-15.472
 413	1	3	0.300563	-53.2585	-11.9104	-16.84
 414	1	3	-0.034917	-51.0713	-10.7634	-16.9232
 415	1	3	-0.460652	-52.2481	-11.2201	-17.5507
 416	1	6	0.132306	-51.7445	-11.8386	-13.7645
 417	1	6	0.20081	-53.7342	-12.6834	-14.8697
 418	1	6	0.203835	-52.3802	-11.0038	-18.6074
 419	1	6	0.127298	-50.3408	-10.215	-17.5124
 420	1	9	0.047033	-49.6631	-11.4138	-12.9792
 421	1	9	0.065326	-50.6245	-9.93911	-12.8531
 422	1	9	0.056928	-48.8585	-9.84344	-12.8301
 423	1	9	0.032023	-50.8528	-8.34616	-14.5531
 424	1	9	0.058797	-50.0185	-8.3916	-16.0967
 425	1	9	0.03359	-49.101	-8.07828	-14.6121
 426	1	1	0.469872	-7.59707	-0.144759	4.80955
 427	1	2	0.06277	-8.80187	0.372547	5.30408
 428	1	3	0.008141	-9.72682	0.444836	4.14121
 429	1	2	0.04539	-7.68201	-0.416302	3.4365
 430	1	3	0.033062	-9.06458	-0.0192176	3.02802
 431	1	5	-0.387649	-9.06664	0.741225	6.43671
 432	1	5	-0.380594	-6.82265	-0.872091	2.69967
 433	1	3	0.006556	-11.0315	0.950573	4.06636
 434	1	3	-0.023388	-9.69038	-0.0100372	1.77309
 435	1	3	-0.199879	-11.0017	0.519801	1.67051
 436	1	3	-0.080819	-11.6958	1.02065	2.80767
 437	1	6	0.152396	-11.4757	1.33685	4.97764
 438	1	6	0.149363	-9.15633	-0.36722	0.895489
 439	1	6	0.171749	-11.4573	0.572985	0.685118
 440	1	7	-0.126864	-13.0628	1.77199	2.6742
 441	1	7	0.414085	-14.0888	1.29009	3.78379
 442	1	8	-0.136036	-14.0957	-0.0553747	3.90599
 443	1	8	-0.12675	-15.3525	1.67677	3.494
 444	1	8	-0.136493	-13.8464	1.74997	5.02995
 445	1	7	0.412463	-12.744	3.30436	2.93355
 446	1	8	-0.134035	-11.789	3.75982	2.08986
 447	1	8	-0.126523	-12.2433	3.57495	4.15926
 448	1	8	-0.120355	-13.8389	4.08721	2.79915
 449	1	3	-0.02363	-13.7658	1.55672	1.26768
 450	1	3	-0.07382	-14.468	0.347173	0.964504
 451	1	3	-0.058666	-15.3033	0.28147	-0.171948
 452	1	3	-0.05367	-13.8592	2.60445	0.297271
 453	1	3	-0.161949	-14.6765	2.51198	-0.845198
 454	1	3	-0.052731	-15.4166	1.34685	-1.0368
 455	1	2	0.511278	-16.4308	1.02251	-2.07458
 456	1	1	-0.11022	-16.896	-0.246805	-1.76934
 457	1	2	0.48346	-16.2522	-0.776818	-0.65197
 458	1	3	0.062835	-17.8819	-0.904179	-2.56711
 459	1	3	-0.214737	-19.163	-0.343525	-2.73526
 460	1	3	-0.092253	-20.0639	-0.868072	-3.68573
 461	1	3	-0.160974	-17.5404	-2.03065	-3.3323
 462	1	3	-0.148646	-18.4366	-2.54902	-4.28778
 463	1	3	0.041241	-19.7092	-1.96412	-4.50182
 464	1	6	0.160326	-19.4408	0.545539	-2.1754
 465	1	6	0.154695	-16.5507	-2.4686	-3.23228
 466	1	6	0.134327	-18.0965	-3.37516	-4.90193
 467	1	6	0.119951	-21.0196	-0.372915	-3.83719
 468	1	6	0.172628	-14.7756	3.34583	-1.53852
 469	1	6	0.137279	-13.3499	3.55015	0.420289
 470	1	6	0.14105	-14.4355	-0.51266	1.62509
 471	1	5	-0.471402	-16.4128	-1.87693	-0.154787
 472	1	5	-0.485833	-16.7739	1.74717	-2.99273
 473	1	7	0.140024	-20.6039	-2.35884	-5.71016
 474	1	7	-0.178691	-20.2712	-3.77328	-6.26284
 475	1	9	0.043413	-20.9942	-4.06361	-7.03645
 476	1	9	0.047557	-20.3112	-4.53061	-5.47006
 477	1	9	0.063016	-19.2766	-3.80937	-6.72392
 478	1	7	-0.187892	-20.2554	-1.35151	-6.84047
 479	1	9	0.043685	-19.1757	-1.34937	-7.03961
 480	1	9	0.055699	-20.5372	-0.328522	-6.55969
 481	1	9	0.057684	-20.7606	-1.60642	-7.78061
 482	1	3	-0.164758	-22.5914	-3.20015	-4.33513
 483	1	3	-0.151844	-23.0886	-1.67324	-6.13207
 484	1	3	-0.169902	-24.4641	-1.79074	-5.85332
 485	1	3	0.006445	-24.9341	-2.61201	-4.80997
 486	1	3	-0.175352	-23.9662	-3.31747	-4.05654
 487	1	6	0.13478	-25.1742	-1.22066	-6.44689
 488	1	6	0.147112	-24.2582	-3.95852	-3.23209
 489	1	3	0.014571	-22.1203	-2.37295	-5.37307
 490	1	6	0.127309	-22.7957	-1.02963	-6.95434
 491	1	6	0.132317	-21.8818	-3.76757	-3.73869
 492	1	7	0.14442	-26.4423	-2.59542	-4.44151
 493	1	3	-0.008293	-27.375	-2.9838	-5.62172
 494	1	7	-0.149636	-26.7319	-1.16906	-3.89259
 495	1	7	-0.207624	-26.7852	-3.58256	-3.29186
 496	1	3	-0.056733	-28.5985	-2.3159	-5.85448
 497	1	3	-0.427248	-29.5385	-2.81312	-6.7754
 498	1	3	0.300563	-29.3172	-4.00963	-7.49032
 499	1	3	-0.034917	-27.1142	-4.13938	-6.38925
 500	1	3	-0.460652	-28.067	-4.64263	-7.30461
 501	1	6	0.132306	-28.8685	-1.43414	-5.28171
 502	1	6	0.20081	-30.4889	-2.29444	-6.87894
 503	1	6	0.203835	-27.8453	-5.55746	-7.84907
 504	1	6	0.127298	-26.1861	-4.68449	-6.22972
 505	1	9	0.047033	-27.8601	-3.56011	-3.0695
 506	1	9	0.065326	-26.2553	-3.32593	-2.36606
 507	1	9	0.056928	-26.53	-4.61409	-3.56593
 508	1	9	0.032023	-26.7266	-0.422357	-4.69663
 509	1	9	0.058797	-25.9665	-0.873911	-3.16279
 510	1	9	0.03359	-27.7023	-1.11698	-3.38274
 511	1	1	0.469872	14.5464	10.9011	12.0512
 512	1	2	0.06277	15.029	9.748	11.4179
 513	1	3	0.008141	13.9129	8.75879	11.475
 514	1	2	0.04539	13.2412	10.733	12.5194
 515	1	3	0.033062	12.8562	9.35253	12.1321
 516	1	5	-0.387649	16.1112	9.57314	10.8823
 517	1	5	-0.380594	12.5323	11.532	13.1098
 518	1	3	0.006556	13.8228	7.44791	10.9741
 519	1	3	-0.023388	11.6538	8.67363	12.3337
 520	1	3	-0.199879	11.5427	7.35856	11.8393
 521	1	3	-0.080819	12.6056	6.7205	11.1415
 522	1	6	0.152396	14.6901	7.03386	10.4702
 523	1	6	0.149363	10.8312	9.15579	12.8569
 524	1	6	0.171749	10.6066	6.82891	12.0016
 525	1	7	-0.126864	12.386	5.25085	10.6422
 526	1	7	0.414085	13.4493	4.79647	9.57218
 527	1	8	-0.136036	13.1176	3.61687	9.00043
 528	1	8	-0.12675	14.6903	4.64089	10.0874
 529	1	8	-0.136493	13.5453	5.68998	8.56209
 530	1	7	0.412463	12.5174	4.32777	11.9138
 531	1	8	-0.134035	12.6001	3.01074	11.6204
 532	1	8	-0.126523	11.4647	4.47993	12.7486
 533	1	8	-0.120355	13.6208	4.62784	12.6367
 534	1	3	-0.02363	10.9806	5.1424	9.95739
 535	1	3	-0.07382	10.1241	4.00712	10.0847
 536	1	3	-0.058666	8.87468	4.00377	9.43286
 537	1	3	-0.05367	10.5421	6.21056	9.12616
 538	1	3	-0.161949	9.2829	6.19453	8.49273
 539	1	3	-0.052731	8.46273	5.07508	8.67471
 540	1	2	0.511278	7.12261	4.7636	8.10667
 541	1	1	-0.11022	6.80235	3.46824	8.51759
 542	1	2	0.48346	7.8059	2.95726	9.34857
 543	1	3	0.062835	5.6513	2.7329	8.04499
 544	1	3	-0.214737	5.1679	2.94017	6.73861
 545	1	3	-0.092253	4.11149	2.17933	6.20985
 546	1	3	-0.160974	4.99565	1.74811	8.8177
 547	1	3	-0.148646	3.94637	0.964156	8.27702
 548	1	3	0.041241	3.49901	1.13615	6.9447
 549	1	6	0.160326	5.63565	3.67353	6.08868
 550	1	6	0.154695	5.33269	1.54474	9.83096
 551	1	6	0.134327	3.5217	0.168097	8.88295
 552	1	6	0.119951	3.83202	2.38428	5.18305
 553	1	6	0.172628	8.95769	7.02104	7.86365
 554	1	6	0.137279	11.1857	7.07283	8.96923
 555	1	6	0.14105	10.4041	3.13213	10.6618
 556	1	5	-0.471402	7.85353	1.86108	9.87849
 557	1	5	-0.485833	6.47379	5.525	7.40993
 558	1	7	0.140024	2.59239	0.0659195	6.24606
 559	1	7	-0.178691	3.38702	-1.26858	6.33317
 560	1	9	0.043413	2.97217	-2.04773	5.68393
 561	1	9	0.047557	3.39206	-1.65845	7.35875
 562	1	9	0.063016	4.43028	-1.11807	6.02691
 563	1	7	-0.187892	2.40546	0.376578	4.73122
 564	1	9	0.043685	3.36852	0.431952	4.20826
 565	1	9	0.055699	1.87236	1.32627	4.59248
 566	1	9	0.057684	1.81861	-0.397906	4.22378
 567	1	3	-0.164758	0.545653	0.723938	7.73546
 568	1	3	-0.151844	0.382802	-1.23375	6.3476
 569	1	3	-0.169902	-0.929502	-1.46074	6.79343
 570	1	3	0.006445	-1.53733	-0.618757	7.74463
 571	1	3	-0.175352	-0.77356	0.492351	8.18921
 572	1	6	0.13478	-1.47023	-2.31589	6.39863
 573	1	6	0.147112	-1.18495	1.19069	8.91006
 574	1	3	0.014571	1.16193	-0.150737	6.8187
 575	1	6	0.127309	0.789213	-1.92099	5.61309
 576	1	6	0.132317	1.08668	1.59019	8.10566
 577	1	7	0.14442	-2.94008	-0.990897	8.32355
 578	1	3	-0.008293	-4.13377	-0.764461	7.35011
 579	1	7	-0.149636	-3.2128	-0.203188	9.6376
 580	1	7	-0.207624	-2.91099	-2.49585	8.72904
 581	1	3	-0.056733	-3.99369	-0.221764	6.05284
 582	1	3	-0.427248	-5.11857	-0.0329656	5.21355
 583	1	3	0.300563	-6.42827	-0.369734	5.63267
 584	1	3	-0.034917	-5.44001	-1.11182	7.76064
 585	1	3	-0.460652	-6.55512	-0.920232	6.92506
 586	1	6	0.132306	-3.00995	0.0613892	5.68624
 587	1	6	0.20081	-4.96857	0.382273	4.2197
 588	1	6	0.203835	-7.54087	-1.18307	7.30209
 589	1	6	0.127298	-5.6044	-1.53082	8.74928
 590	1	9	0.047033	-2.94092	-3.15079	7.84976
 591	1	9	0.065326	-3.7662	-2.76982	9.35866
 592	1	9	0.056928	-2.0008	-2.73073	9.29613
 593	1	9	0.032023	-2.37429	-0.305168	10.3391
 594	1	9	0.058797	-4.10664	-0.567857	10.1574
 595	1	9	0.03359	-3.36965	0.862971	9.43275
 596	1	1	0.469872	33.8008	18.3148	19.6151
 597	1	2	0.06277	32.924	17.518	18.868
 598	1	3	0.008141	31.8057	18.4091	18.4839
 599	1	2	0.04539	33.3458	19.6359	19.7176
 600	1	3	0.033062	32.0461	19.6631	18.9977
 601	1	5	-0.387649	32.9823	16.3241	18.621
 602	1	5	-0.380594	33.8677	20.5889	20.273
 603	1	3	0.006556	30.6485	18.1128	17.7595
 604	1	3	-0.023388	31.1227	20.6985	18.8311
 605	1	3	-0.199879	29.9348	20.4172	18.1219
 606	1	3	-0.080819	29.6741	19.1295	17.5737
 607	1	6	0.152396	30.5382	17.1053	17.3738
 608	1	6	0.149363	31.3179	21.6838	19.2488
 609	1	6	0.171749	29.2073	21.2167	17.9972
 610	1	7	-0.126864	28.3567	18.8999	16.7747
 611	1	7	0.414085	28.056	17.3803	16.4735
 612	1	8	-0.136036	26.8161	17.1963	15.9655
 613	1	8	-0.12675	28.1042	16.6303	17.5984
 614	1	8	-0.136493	28.9209	16.8358	15.5881
 615	1	7	0.412463	28.5246	19.6644	15.4048
 616	1	8	-0.134035	27.5968	19.3367	14.4778
 617	1	8	-0.126523	29.727	19.4078	14.841
 618	1	8	-0.120355	28.4562	21.0046	15.5688
 619	1	3	-0.02363	27.157	19.4025	17.6276
 620	1	3	-0.07382	25.9972	19.9588	17.0298
 621	1	3	-0.058666	24.8688	20.1902	17.8229
 622	1	3	-0.05367	27.1336	19.1434	19.0279
 623	1	3	-0.161949	25.9818	19.3777	19.8083
 624	1	3	-0.052731	24.8455	19.8832	19.1672
 625	1	2	0.511278	23.4352	19.9811	19.6406
 626	1	1	-0.11022	22.6957	20.3103	18.5137
 627	1	2	0.48346	23.4888	20.5288	17.3992
 628	1	3	0.062835	21.2979	20.1243	18.3944
 629	1	3	-0.214737	20.4438	21.1965	18.0933
 630	1	3	-0.092253	19.0984	20.9558	17.7586
 631	1	3	-0.160974	20.7902	18.8162	18.3942