pySIMM System Object

1447 atoms
1565 bonds
2754 angles
4246 dihedrals
476 impropers

9 atom types
11 bond types
18 angle types
8 dihedral types
4 improper types

-171.011985 171.011985 xlo xhi
-171.011985 171.011985 ylo yhi
-171.011985 171.011985 zlo zhi

Masses

   1	14.01	# n
   2	12.01	# c
   3	12.01	# ca
   4	1.008	# hn
   5	16.0	# o
   6	1.008	# ha
   7	12.01	# c3
   8	19.0	# f
   9	1.008	# hc

Pair Coeffs

   1	0.17	3.249998523775958	# n
   2	0.086	3.3996695084235347	# c
   3	0.086	3.3996695084235347	# ca
   4	0.0157	1.069078461768407	# hn
   5	0.21	2.959921901149463	# o
   6	0.015	2.59964245953351	# ha
   7	0.1094	3.3996695084235347	# c3
   8	0.061	3.1181455134911875	# f
   9	0.0157	2.649532787749369	# hc

Bond Coeffs

   1	345.8	1.086	# ca,ha
   2	384.2	1.4121	# ca,n
   3	637.7	1.2183	# c,o
   4	321.0	1.5156	# c3,ca
   5	461.1	1.3984	# ca,ca
   6	300.9	1.5375	# c3,c3
   7	330.6	1.0969	# c3,hc
   8	403.2	1.0129	# hn,n
   9	356.9	1.3497	# c3,f
  10	427.6	1.3789	# c,n
  11	345.9	1.4906	# c,ca

Angle Coeffs

   1	48.33	117.55	# c,n,hn
   2	74.22	123.05	# n,c,o
   3	64.28	120.33	# c,ca,ca
   4	70.89	107.36	# f,c3,f
   5	66.11	109.24	# c3,c3,f
   6	67.87	120.19	# ca,ca,n
   7	39.4	107.58	# hc,c3,hc
   8	63.53	120.77	# c3,ca,ca
   9	66.62	120.02	# ca,ca,ca
  10	63.82	123.71	# c,n,ca
  11	62.86	111.51	# c3,c3,c3
  12	46.34	109.8	# c3,c3,hc
  13	63.74	127.08	# c,n,c
  14	48.18	119.88	# ca,ca,ha
  15	68.72	122.6	# ca,c,o
  16	63.56	112.24	# ca,c3,ca
  17	63.15	112.07	# c3,c3,ca
  18	67.68	115.25	# ca,c,n

Dihedral Coeffs

   1	2	2.5	2	180	2.0	1	0	# hn,n,c,o
   2	1	3.625	2	180	# X,ca,ca,X
   3	1	0.16	3	0	# hc,c3,c3,c3
   4	1	1.0	2	180	# X,c,ca,X
   5	1	0.15555555555555556	3	0	# X,c3,c3,X
   6	1	0.0	2	0	# X,c3,ca,X
   7	1	2.5	2	180	# X,c,n,X
   8	1	0.45	2	180	# X,ca,n,X

Improper Coeffs

   1	10.5	-1	2	# c,X,X,o
   2	1.1	-1	2	# ca,X,X,ha
   3	1.1	-1	2	# ca,ca,ca,c3
   4	1.1	-1	2	# n,X,X,hn

Atoms

   1	1	1	0.469872	-88.4009	-89.3354	22.789
   2	1	2	0.06277	-87.5414	-90.4382	22.7567
   3	1	3	0.008141	-88.3687	-91.5678	22.2678
   4	1	2	0.04539	-89.6921	-89.6572	22.3594
   5	1	3	0.033062	-89.6469	-91.1055	22.0401
   6	1	5	-0.387649	-86.3694	-90.51	23.0891
   7	1	5	-0.380594	-90.6676	-88.9321	22.2483
   8	1	3	0.006556	-88.0171	-92.9056	22.06
   9	1	3	-0.023388	-90.6572	-91.9609	21.5974
  10	1	3	-0.199879	-90.3317	-93.3191	21.4042
  11	1	3	-0.080819	-89.018	-93.8188	21.6319
  12	1	6	0.152396	-86.9896	-93.1978	22.2483
  13	1	6	0.149363	-91.6625	-91.5842	21.4217
  14	1	6	0.171749	-91.1198	-93.9927	21.0748
  15	1	7	-0.126864	-88.7452	-95.3351	21.4013
  16	1	7	0.414085	-88.7564	-95.5667	19.8405
  17	1	8	-0.136036	-88.3246	-96.7944	19.475
  18	1	8	-0.12675	-87.9643	-94.674	19.2039
  19	1	8	-0.136493	-89.9922	-95.4158	19.313
  20	1	7	0.412463	-87.3621	-95.8318	21.9745
  21	1	8	-0.134035	-87.2623	-97.1801	21.9452
  22	1	8	-0.126523	-87.1968	-95.4803	23.27
  23	1	8	-0.120355	-86.2999	-95.3454	21.294
  24	1	3	-0.02363	-89.84	-96.1309	22.1682
  25	1	3	-0.07382	-90.4985	-97.2649	21.6222
  26	1	3	-0.058666	-91.4358	-97.9471	22.41
  27	1	3	-0.05367	-90.1576	-95.7438	23.5012
  28	1	3	-0.161949	-91.0988	-96.4475	24.2776
  29	1	3	-0.052731	-91.7255	-97.5543	23.6989
  30	1	2	0.511278	-92.7248	-98.4994	24.2628
  31	1	1	-0.11022	-92.9792	-99.4241	23.2572
  32	1	2	0.48346	-92.246	-99.1567	22.1063
  33	1	3	0.062835	-93.8739	-100.523	23.3963
  34	1	3	-0.214737	-93.8413	-101.328	24.5484
  35	1	3	-0.092253	-94.721	-102.415	24.6905
  36	1	3	-0.160974	-94.8054	-100.823	22.3873
  37	1	3	-0.148646	-95.6848	-101.91	22.5285
  38	1	3	0.041241	-95.6537	-102.73	23.6769
  39	1	6	0.160326	-93.1359	-101.109	25.3461
  40	1	6	0.154695	-94.8455	-100.219	21.4842
  41	1	6	0.134327	-96.3909	-102.125	21.7304
  42	1	6	0.119951	-94.6636	-103.002	25.6004
  43	1	6	0.172628	-91.3255	-96.1527	25.3006
  44	1	6	0.137279	-89.6566	-94.8911	23.9524
  45	1	6	0.14105	-90.2953	-97.6361	20.6228
  46	1	5	-0.471402	-92.2464	-99.7701	21.0534
  47	1	5	-0.485833	-93.1981	-98.4511	25.3851
  48	1	7	0.140024	-96.6415	-103.915	23.7839
  49	1	7	-0.178691	-98.0441	-103.306	24.0562
  50	1	9	0.043413	-98.0106	-102.633	24.9231
  51	1	9	0.047557	-98.7891	-104.08	24.2757
  52	1	9	0.063016	-98.3966	-102.722	23.1967
  53	1	7	-0.187892	-96.3234	-104.873	24.9635
  54	1	9	0.043685	-95.301	-105.265	24.8916
  55	1	9	0.055699	-97.0075	-105.732	24.9588
  56	1	9	0.057684	-96.4362	-104.371	25.9328
  57	1	3	-0.164758	-95.345	-105.05	21.8943
  58	1	3	-0.151844	-97.7487	-105.28	21.8729
  59	1	3	-0.169902	-97.6606	-106.033	20.6904
  60	1	3	0.006445	-96.4184	-106.297	20.0789
  61	1	3	-0.175352	-95.2578	-105.796	20.7071
  62	1	6	0.13478	-98.5724	-106.421	20.2435
  63	1	6	0.147112	-94.2727	-105.972	20.2881
  64	1	3	0.014571	-96.5906	-104.757	22.4874
  65	1	6	0.127309	-98.7311	-105.113	22.3005
  66	1	6	0.132317	-94.4287	-104.685	22.3507
  67	1	7	0.14442	-96.3834	-107.116	18.7671
  68	1	3	-0.008293	-97.1044	-108.465	18.9865
  69	1	7	-0.149636	-94.9434	-107.436	18.2829
  70	1	7	-0.207624	-97.0423	-106.245	17.6613
  71	1	3	-0.056733	-96.8076	-109.224	20.1396
  72	1	3	-0.427248	-97.4388	-110.458	20.3734
  73	1	3	0.300563	-98.3718	-110.961	19.4595
  74	1	3	-0.034917	-98.0374	-108.992	18.0641
  75	1	3	-0.460652	-98.6656	-110.227	18.3046
  76	1	6	0.132306	-96.0839	-108.85	20.8606
  77	1	6	0.20081	-97.2067	-111.03	21.2665
  78	1	6	0.203835	-99.3839	-110.622	17.593
  79	1	6	0.127298	-98.2854	-108.455	17.154
  80	1	9	0.047033	-98.1087	-106.083	17.861
  81	1	9	0.065326	-96.9453	-106.708	16.6711
  82	1	9	0.056928	-96.5614	-105.26	17.61
  83	1	9	0.032023	-94.3814	-107.995	19.0418
  84	1	9	0.058797	-94.3886	-106.519	18.0469
  85	1	9	0.03359	-94.9673	-108.05	17.3735
  86	1	1	0.469872	-74.1183	-69.9403	18.5776
  87	1	2	0.06277	-74.7165	-71.1669	18.8741
  88	1	3	0.008141	-75.7569	-70.8539	19.8914
  89	1	2	0.04539	-74.6968	-68.8782	19.2724
  90	1	3	0.033062	-75.7444	-69.4936	20.1171
  91	1	5	-0.387649	-74.4492	-72.2716	18.4308
  92	1	5	-0.380594	-74.4139	-67.6917	19.2315
  93	1	3	0.006556	-76.6144	-71.7017	20.6034
  94	1	3	-0.023388	-76.592	-68.8997	21.0512
  95	1	3	-0.199879	-77.463	-69.7339	21.778
  96	1	3	-0.080819	-77.4928	-71.1435	21.5724
  97	1	6	0.152396	-76.5764	-72.7727	20.419
  98	1	6	0.149363	-76.5555	-67.8262	21.2236
  99	1	6	0.171749	-78.0915	-69.254	22.5199
 100	1	7	-0.126864	-78.3869	-72.0956	22.4229
 101	1	7	0.414085	-77.4207	-72.7925	23.4574
 102	1	8	-0.136036	-76.6153	-73.6955	22.8538
 103	1	8	-0.12675	-78.0631	-73.4404	24.4548
 104	1	8	-0.136493	-76.6041	-71.8944	24.0545
 105	1	7	0.412463	-79.5371	-71.3611	23.2113
 106	1	8	-0.134035	-79.083	-70.5977	24.2311
 107	1	8	-0.126523	-80.4168	-72.2352	23.7515
 108	1	8	-0.120355	-80.2637	-70.5617	22.3972
 109	1	3	-0.02363	-79.1024	-73.0946	21.4704
 110	1	3	-0.07382	-79.372	-74.4343	21.8521
 111	1	3	-0.058666	-80.1059	-75.2505	20.9858
 112	1	3	-0.05367	-79.6075	-72.6357	20.22
 113	1	3	-0.161949	-80.3345	-73.4808	19.3555
 114	1	3	-0.052731	-80.5711	-74.7957	19.7701
 115	1	2	0.511278	-81.3492	-75.8941	19.1318
 116	1	1	-0.11022	-81.3166	-76.9438	20.0376
 117	1	2	0.48346	-80.5792	-76.6444	21.1719
 118	1	3	0.062835	-81.9862	-78.1784	19.8562
 119	1	3	-0.214737	-81.577	-79.0716	18.8553
 120	1	3	-0.092253	-82.1975	-80.326	18.7315
 121	1	3	-0.160974	-83.049	-78.5328	20.7017
 122	1	3	-0.148646	-83.6821	-79.7789	20.5645
 123	1	3	0.041241	-83.2399	-80.716	19.6029
 124	1	6	0.160326	-80.77	-78.7997	18.1801
 125	1	6	0.154695	-83.378	-77.8455	21.4767
 126	1	6	0.134327	-84.5093	-80.0121	21.229
 127	1	6	0.119951	-81.8581	-80.9954	17.9478
 128	1	6	0.172628	-80.7304	-73.1192	18.4081
 129	1	6	0.137279	-79.4582	-71.6011	19.921
 130	1	6	0.14105	-79.0637	-74.8462	22.8071
 131	1	5	-0.471402	-80.3855	-77.3466	22.1485
 132	1	5	-0.485833	-81.9159	-75.8491	18.054
 133	1	7	0.140024	-83.8927	-82.1117	19.4669
 134	1	7	-0.178691	-82.8136	-83.2128	19.2616
 135	1	9	0.043413	-82.3155	-83.1298	18.2885
 136	1	9	0.047557	-83.2677	-84.2112	19.3078
 137	1	9	0.063016	-82.0409	-83.1614	20.0388
 138	1	7	-0.187892	-84.7739	-82.0917	18.1884
 139	1	9	0.043685	-85.2218	-83.0752	17.996
 140	1	9	0.055699	-84.1814	-81.8262	17.304
 141	1	9	0.057684	-85.5789	-81.3513	18.2786
 142	1	3	-0.164758	-84.0248	-82.56	21.9832
 143	1	3	-0.151844	-86.0533	-82.8595	20.7082
 144	1	3	-0.169902	-86.7165	-83.2746	21.8731
 145	1	3	0.006445	-86.0501	-83.3451	23.1127
 146	1	3	-0.175352	-84.6922	-82.9626	23.1524
 147	1	6	0.13478	-87.7553	-83.5858	21.8008
 148	1	6	0.147112	-84.1264	-82.9996	24.0775
 149	1	3	0.014571	-84.6872	-82.5055	20.738
 150	1	6	0.127309	-86.6184	-82.8488	19.7827
 151	1	6	0.132317	-82.9737	-82.2902	22.0462
 152	1	7	0.14442	-86.8016	-83.9341	24.329
 153	1	3	-0.008293	-87.2355	-85.3748	23.9789
 154	1	7	-0.149636	-88.0025	-82.9976	24.6424
 155	1	7	-0.207624	-85.9358	-84.0024	25.6148
 156	1	3	-0.056733	-88.4768	-85.9139	24.378
 157	1	3	-0.427248	-88.8496	-87.2167	24.0003
 158	1	3	0.300563	-88.0032	-88.0231	23.2097
 159	1	3	-0.034917	-86.3672	-86.1998	23.233
 160	1	3	-0.460652	-86.7506	-87.4924	22.8433
 161	1	6	0.132306	-89.1693	-85.3276	24.9742
 162	1	6	0.20081	-89.8229	-87.5934	24.3053
 163	1	6	0.203835	-86.0589	-88.0885	22.2525
 164	1	6	0.127298	-85.3889	-85.8314	22.9316
 165	1	9	0.047033	-86.5105	-84.4295	26.4467
 166	1	9	0.065326	-85.5988	-83.0041	25.9218
 167	1	9	0.056928	-85.054	-84.6385	25.4671
 168	1	9	0.032023	-88.7516	-83.0197	23.8413
 169	1	9	0.058797	-87.6618	-81.96	24.7513
 170	1	9	0.03359	-88.5015	-83.2759	25.5791
 171	1	1	0.469872	-62.8227	-58.4169	0.212976
 172	1	2	0.06277	-61.9081	-58.1551	1.23283
 173	1	3	0.008141	-62.6513	-58.394	2.49475
 174	1	2	0.04539	-64.0713	-58.8086	0.696439
 175	1	3	0.033062	-63.9399	-58.7696	2.17639
 176	1	5	-0.387649	-60.7452	-57.7983	1.13934
 177	1	5	-0.380594	-65.0716	-59.1098	0.0660583
 178	1	3	0.006556	-62.2267	-58.2541	3.82061
 179	1	3	-0.023388	-64.8903	-59.0003	3.17322
 180	1	3	-0.199879	-64.4897	-58.8447	4.51708
 181	1	3	-0.080819	-63.1536	-58.4963	4.86957
 182	1	6	0.152396	-61.2059	-57.936	4.00249
 183	1	6	0.149363	-65.9118	-59.2665	2.91044
 184	1	6	0.171749	-65.2416	-58.9844	5.29088
 185	1	7	-0.126864	-62.778	-58.2905	6.36817
 186	1	7	0.414085	-61.2562	-58.5717	6.67887
 187	1	8	-0.136036	-60.8391	-59.7301	6.12038
 188	1	8	-0.12675	-61.0352	-58.6853	8.00857
 189	1	8	-0.136493	-60.4196	-57.607	6.23674
 190	1	7	0.412463	-63.0991	-56.7843	6.69628
 191	1	8	-0.134035	-62.5205	-55.9397	5.81215
 192	1	8	-0.126523	-62.6745	-56.4075	7.92353
 193	1	8	-0.120355	-64.4268	-56.5363	6.62758
 194	1	3	-0.02363	-63.5882	-59.3046	7.23199
 195	1	3	-0.07382	-64.3246	-58.9297	8.38919
 196	1	3	-0.058666	-65.0264	-59.9149	9.09577
 197	1	3	-0.05367	-63.5796	-60.6784	6.85748
 198	1	3	-0.161949	-64.2859	-61.6545	7.587
 199	1	3	-0.052731	-65.0072	-61.2366	8.70854
 200	1	2	0.511278	-65.8521	-62.0116	9.65296
 201	1	1	-0.11022	-66.3527	-61.0864	10.5609
 202	1	2	0.48346	-65.892	-59.8005	10.3005
 203	1	3	0.062835	-67.24	-61.4244	11.6219
 204	1	3	-0.214737	-67.0361	-60.9234	12.9199
 205	1	3	-0.092253	-67.8887	-61.2959	13.9742
 206	1	3	-0.160974	-68.3252	-62.2886	11.3929
 207	1	3	-0.148646	-69.1724	-62.666	12.4462
 208	1	3	0.041241	-68.9635	-62.1874	13.7561
 209	1	6	0.160326	-66.2099	-60.2451	13.1186
 210	1	6	0.154695	-68.5035	-62.6922	10.3994
 211	1	6	0.134327	-69.9873	-63.3575	12.247
 212	1	6	0.119951	-67.6898	-60.8902	14.9604
 213	1	6	0.172628	-64.279	-62.7016	7.29002
 214	1	6	0.137279	-63.0255	-60.9956	5.97763
 215	1	6	0.14105	-64.376	-57.9084	8.75131
 216	1	5	-0.471402	-66.1485	-58.7716	10.901
 217	1	5	-0.485833	-66.0579	-63.2118	9.60202
 218	1	7	0.140024	-69.8988	-62.6777	14.8835
 219	1	7	-0.178691	-71.3017	-62.0612	14.6244
 220	1	9	0.043413	-71.7397	-62.4378	13.6915
 221	1	9	0.047557	-71.2341	-60.9687	14.5412
 222	1	9	0.063016	-71.9971	-62.2844	15.4432
 223	1	7	-0.187892	-69.4589	-62.2105	16.297
 224	1	9	0.043685	-70.1326	-62.6149	17.0636
 225	1	9	0.055699	-69.4802	-61.1167	16.3833
 226	1	9	0.057684	-68.4456	-62.5583	16.534
 227	1	3	-0.164758	-68.677	-64.9204	14.8305
 228	1	3	-0.151844	-71.0876	-64.9849	14.9558
 229	1	3	-0.169902	-71.0438	-66.3883	14.949
 230	1	3	0.006445	-69.8187	-67.087	14.8985
 231	1	3	-0.175352	-68.6331	-66.3253	14.8278
 232	1	6	0.13478	-71.9819	-66.9353	14.9904
 233	1	6	0.147112	-67.6642	-66.8089	14.7639
 234	1	3	0.014571	-69.9022	-64.2237	14.8895
 235	1	6	0.127309	-72.0588	-64.5055	15.0119
 236	1	6	0.132317	-67.7433	-64.3667	14.7759
 237	1	7	0.14442	-69.8189	-68.6341	14.888
 238	1	3	-0.008293	-70.9116	-69.1378	15.8591
 239	1	7	-0.149636	-68.4619	-69.2432	15.3405
 240	1	7	-0.207624	-70.0476	-69.0821	13.4202
 241	1	3	-0.056733	-70.8416	-68.7455	17.2107
 242	1	3	-0.427248	-71.8751	-69.0558	18.1078
 243	1	3	0.300563	-73.0173	-69.7616	17.6845
 244	1	3	-0.034917	-72.0298	-69.8976	15.4451
 245	1	3	-0.460652	-73.0676	-70.2027	16.3467
 246	1	6	0.132306	-70.0023	-68.1458	17.5559
 247	1	6	0.20081	-71.8146	-68.6871	19.129
 248	1	6	0.203835	-73.931	-70.7637	15.9967
 249	1	6	0.127298	-72.1279	-70.2265	14.4148
 250	1	9	0.047033	-70.0502	-70.1759	13.3303
 251	1	9	0.065326	-69.2512	-68.6964	12.7705
 252	1	9	0.056928	-70.9984	-68.6961	13.0314
 253	1	9	0.032023	-68.1353	-68.8307	16.3031
 254	1	9	0.058797	-67.6689	-69.0545	14.6062
 255	1	9	0.03359	-68.5464	-70.3316	15.4547
 256	1	1	0.469872	-61.1883	-46.41	-20.1748
 257	1	2	0.06277	-62.4974	-46.8848	-20.3344
 258	1	3	0.008141	-62.5609	-48.153	-19.568
 259	1	2	0.04539	-60.4278	-47.2506	-19.3513
 260	1	3	0.033062	-61.3272	-48.3801	-19.0009
 261	1	5	-0.387649	-63.4025	-46.4355	-21.0188
 262	1	5	-0.380594	-59.2683	-47.1312	-18.9894
 263	1	3	0.006556	-63.6157	-49.0635	-19.4376
 264	1	3	-0.023388	-61.0627	-49.5608	-18.3035
 265	1	3	-0.199879	-62.1018	-50.5086	-18.1879
 266	1	3	-0.080819	-63.4052	-50.2671	-18.7116
 267	1	6	0.152396	-64.5549	-48.8299	-19.9261
 268	1	6	0.149363	-60.0731	-49.7475	-17.8921
 269	1	6	0.171749	-61.8812	-51.4455	-17.6812
 270	1	7	-0.126864	-64.5184	-51.3536	-18.5659
 271	1	7	0.414085	-65.9753	-50.7556	-18.5749
 272	1	8	-0.136036	-66.0747	-49.7007	-17.7351
 273	1	8	-0.12675	-66.8907	-51.6625	-18.1627
 274	1	8	-0.136493	-66.382	-50.3369	-19.7939
 275	1	7	0.412463	-64.3418	-52.3196	-19.7978
 276	1	8	-0.134035	-64.2226	-51.6384	-20.9602
 277	1	8	-0.126523	-65.3772	-53.1728	-19.9669
 278	1	8	-0.120355	-63.2179	-53.0627	-19.6793
 279	1	3	-0.02363	-64.3666	-52.0732	-17.19
 280	1	3	-0.07382	-64.0462	-51.3055	-16.039
 281	1	3	-0.058666	-63.8398	-51.9583	-14.8179
 282	1	3	-0.05367	-64.5591	-53.4767	-17.0272
 283	1	3	-0.161949	-64.3762	-54.1099	-15.7816
 284	1	3	-0.052731	-63.9976	-53.3205	-14.6925
 285	1	2	0.511278	-63.6348	-53.7065	-13.3047
 286	1	1	-0.11022	-63.2263	-52.5326	-12.6817
 287	1	2	0.48346	-63.3555	-51.428	-13.5161
 288	1	3	0.062835	-62.646	-52.4855	-11.3821
 289	1	3	-0.214737	-61.679	-53.4348	-11.0088
 290	1	3	-0.092253	-61.0892	-53.3916	-9.73687
 291	1	3	-0.160974	-62.9973	-51.4804	-10.4625
 292	1	3	-0.148646	-62.4018	-51.4331	-9.18855
 293	1	3	0.041241	-61.4436	-52.3977	-8.80178
 294	1	6	0.160326	-61.3838	-54.2197	-11.7004
 295	1	6	0.154695	-63.7283	-50.7241	-10.7375
 296	1	6	0.134327	-62.6949	-50.6355	-8.51393
 297	1	6	0.119951	-60.3517	-54.1453	-9.47272
 298	1	6	0.172628	-64.4959	-55.1863	-15.6697
 299	1	6	0.137279	-64.8398	-54.1075	-17.8623
 300	1	6	0.14105	-63.9058	-50.2284	-16.0971
 301	1	5	-0.471402	-63.0518	-50.2707	-13.2852
 302	1	5	-0.485833	-63.6351	-54.8412	-12.8597
 303	1	7	0.140024	-60.7624	-52.4085	-7.41557
 304	1	7	-0.178691	-61.4185	-51.4341	-6.40069
 305	1	9	0.043413	-62.4914	-51.6353	-6.28995
 306	1	9	0.047557	-61.2933	-50.3883	-6.70894
 307	1	9	0.063016	-60.9576	-51.5432	-5.41054
 308	1	7	-0.187892	-59.2986	-51.9304	-7.62138
 309	1	9	0.043685	-58.7359	-52.6279	-8.25483
 310	1	9	0.055699	-58.7695	-51.8302	-6.66533
 311	1	9	0.057684	-59.2783	-50.9495	-8.11385
 312	1	3	-0.164758	-62.1121	-54.4799	-6.79238
 313	1	3	-0.151844	-59.7456	-54.5398	-6.32673
 314	1	3	-0.169902	-59.8736	-55.8591	-5.85976
 315	1	3	0.006445	-61.1188	-56.5279	-5.87353
 316	1	3	-0.175352	-62.2408	-55.7957	-6.31842
 317	1	6	0.13478	-58.9811	-56.352	-5.49046
 318	1	6	0.147112	-63.2286	-56.2448	-6.31292
 319	1	3	0.014571	-60.8604	-53.8344	-6.82641
 320	1	6	0.127309	-58.7614	-54.0843	-6.30411
 321	1	6	0.132317	-62.9964	-53.9629	-7.15655
 322	1	7	0.14442	-61.2721	-57.9972	-5.39196
 323	1	3	-0.008293	-61.7541	-58.0751	-3.9252
 324	1	7	-0.149636	-59.9252	-58.7676	-5.49076
 325	1	7	-0.207624	-62.2618	-58.7397	-6.33917
 326	1	3	-0.056733	-62.1981	-59.3019	-3.38462
 327	1	3	-0.427248	-62.5732	-59.4084	-2.03361
 328	1	3	0.300563	-62.5029	-58.2955	-1.17408
 329	1	3	-0.034917	-61.6974	-56.9572	-3.06345
 330	1	3	-0.460652	-62.0661	-57.0685	-1.71082
 331	1	6	0.132306	-62.2355	-60.1908	-4.00788
 332	1	6	0.20081	-62.9117	-60.3667	-1.64802
 333	1	6	0.203835	-61.9842	-56.197	-1.06612
 334	1	6	0.127298	-61.3447	-55.9948	-3.42494
 335	1	9	0.047033	-63.2994	-58.4343	-6.15888
 336	1	9	0.065326	-62.2203	-59.8275	-6.20965
 337	1	9	0.056928	-62.0208	-58.5327	-7.39009
 338	1	9	0.032023	-60.0625	-59.8397	-5.30153
 339	1	9	0.058797	-59.2043	-58.4071	-4.74673
 340	1	9	0.03359	-59.4807	-58.6607	-6.48882
 341	1	1	0.469872	-39.7898	-32.3268	-18.5347
 342	1	2	0.06277	-40.4346	-33.0544	-17.5279
 343	1	3	0.008141	-41.67	-33.5957	-18.1542
 344	1	2	0.04539	-40.4568	-32.4402	-19.7636
 345	1	3	0.033062	-41.6876	-33.2262	-19.4799
 346	1	5	-0.387649	-40.1488	-33.1394	-16.3448
 347	1	5	-0.380594	-40.1733	-31.9374	-20.8392
 348	1	3	0.006556	-42.7721	-34.2102	-17.5496
 349	1	3	-0.023388	-42.8126	-33.4612	-20.2785
 350	1	3	-0.199879	-43.9479	-34.0535	-19.6795
 351	1	3	-0.080819	-43.9566	-34.4326	-18.3076
 352	1	6	0.152396	-42.7203	-34.3998	-16.4833
 353	1	6	0.149363	-42.8315	-33.1208	-21.3116
 354	1	6	0.171749	-44.8486	-34.151	-20.2807
 355	1	7	-0.126864	-45.2839	-34.8674	-17.6077
 356	1	7	0.414085	-45.0379	-35.9531	-16.4891
 357	1	8	-0.136036	-44.1997	-36.9213	-16.9227
 358	1	8	-0.12675	-46.1869	-36.5689	-16.1267
 359	1	8	-0.136493	-44.5057	-35.4597	-15.3495
 360	1	7	0.412463	-45.8614	-33.5588	-16.9381
 361	1	8	-0.134035	-46.894	-33.8018	-16.0996
 362	1	8	-0.126523	-46.2817	-32.6787	-17.8756
 363	1	8	-0.120355	-44.9418	-32.8943	-16.2025
 364	1	3	-0.02363	-46.2909	-35.5234	-18.6137
 365	1	3	-0.07382	-47.6724	-35.1859	-18.6358
 366	1	3	-0.058666	-48.5531	-35.9288	-19.4285
 367	1	3	-0.05367	-45.8664	-36.6024	-19.4417
 368	1	3	-0.161949	-46.7749	-37.3401	-20.2383
 369	1	3	-0.052731	-48.1316	-36.9875	-20.1998
 370	1	2	0.511278	-49.3408	-37.6082	-20.8273
 371	1	1	-0.11022	-50.4258	-36.8632	-20.3763
 372	1	2	0.48346	-50.0288	-35.8274	-19.5402
 373	1	3	0.062835	-51.7987	-37.1279	-20.6593
 374	1	3	-0.214737	-52.3793	-38.3795	-20.3808
 375	1	3	-0.092253	-53.7782	-38.5507	-20.4474
 376	1	3	-0.160974	-52.6331	-36.0784	-21.0779
 377	1	3	-0.148646	-54.0252	-36.2475	-21.1413
 378	1	3	0.041241	-54.6291	-37.4773	-20.7918
 379	1	6	0.160326	-51.7539	-39.2053	-20.051
 380	1	6	0.154695	-52.2098	-35.0973	-21.2776
 381	1	6	0.134327	-54.624	-35.3799	-21.3945
 382	1	6	0.119951	-54.2103	-39.5057	-20.1589
 383	1	6	0.172628	-46.4424	-38.1863	-20.8369
 384	1	6	0.137279	-44.8204	-36.8998	-19.4374
 385	1	6	0.14105	-48.1024	-34.4009	-18.025
 386	1	5	-0.471402	-50.7296	-35.0077	-18.9722
 387	1	5	-0.485833	-49.3559	-38.5911	-21.5471
 388	1	7	0.140024	-56.1597	-37.6007	-20.5839
 389	1	7	-0.178691	-56.951	-36.4213	-21.2182
 390	1	9	0.043413	-56.7163	-36.3132	-22.2848
 391	1	9	0.047557	-56.7363	-35.4687	-20.7179
 392	1	9	0.063016	-58.0322	-36.5932	-21.1351
 393	1	7	-0.187892	-56.3909	-37.5098	-19.0499
 394	1	9	0.043685	-55.9808	-38.3874	-18.5341
 395	1	9	0.055699	-57.4572	-37.4296	-18.8038
 396	1	9	0.057684	-55.8959	-36.6217	-18.6359
 397	1	3	-0.164758	-57.7055	-39.6804	-20.5195
 398	1	3	-0.151844	-56.5251	-39.1753	-22.5632
 399	1	3	-0.169902	-57.2566	-40.1754	-23.2298
 400	1	3	0.006445	-58.2441	-40.9301	-22.5579
 401	1	3	-0.175352	-58.4328	-40.6811	-21.1841
 402	1	6	0.13478	-57.0899	-40.3075	-24.2936
 403	1	6	0.147112	-59.1966	-41.219	-20.6296
 404	1	3	0.014571	-56.7603	-38.8844	-21.2051
 405	1	6	0.127309	-55.8221	-38.5696	-23.129
 406	1	6	0.132317	-57.9449	-39.4955	-19.4784
 407	1	7	0.14442	-59.2073	-41.872	-23.3166
 408	1	3	-0.008293	-59.7233	-43.0173	-22.4046
 409	1	7	-0.149636	-58.541	-42.5095	-24.5709
 410	1	7	-0.207624	-60.3669	-40.9861	-23.8522
 411	1	3	-0.056733	-61.0362	-43.0419	-21.8822
 412	1	3	-0.427248	-61.4931	-44.1275	-21.1146
 413	1	3	0.300563	-60.6743	-45.2468	-20.8535
 414	1	3	-0.034917	-58.8762	-44.0957	-22.077
 415	1	3	-0.460652	-59.3478	-45.1944	-21.3355
 416	1	6	0.132306	-61.7313	-42.2314	-22.0769
 417	1	6	0.20081	-62.5204	-44.1143	-20.7581
 418	1	6	0.203835	-58.667	-46.0201	-21.1433
 419	1	6	0.127298	-57.8456	-44.0998	-22.4219
 420	1	9	0.047033	-60.8564	-40.435	-23.0393
 421	1	9	0.065326	-61.1227	-41.5897	-24.3712
 422	1	9	0.056928	-59.9937	-40.2366	-24.5616
 423	1	9	0.032023	-59.181	-43.2967	-24.9905
 424	1	9	0.058797	-57.5685	-42.9549	-24.3304
 425	1	9	0.03359	-58.3777	-41.7726	-25.367
 426	1	1	0.469872	-24.6781	-15.144	-5.51684
 427	1	2	0.06277	-24.1484	-15.8284	-6.61774
 428	1	3	0.008141	-25.1523	-16.8685	-6.97062
 429	1	2	0.04539	-25.9029	-15.6931	-5.10977
 430	1	3	0.033062	-26.1972	-16.7869	-6.07867
 431	1	5	-0.387649	-23.1318	-15.5881	-7.24831
 432	1	5	-0.380594	-26.6346	-15.3358	-4.20056
 433	1	3	0.006556	-25.1889	-17.7353	-8.0705
 434	1	3	-0.023388	-27.3406	-17.5791	-6.23941
 435	1	3	-0.199879	-27.4031	-18.4523	-7.35127
 436	1	3	-0.080819	-26.3356	-18.5538	-8.28719
 437	1	6	0.152396	-24.355	-17.6984	-8.76102
 438	1	6	0.149363	-28.1775	-17.4779	-5.55168
 439	1	6	0.171749	-28.3184	-19.0182	-7.51281
 440	1	7	-0.126864	-26.5218	-19.3894	-9.59995
 441	1	7	0.414085	-27.2732	-18.4335	-10.6037
 442	1	8	-0.136036	-28.5728	-18.2902	-10.2587
 443	1	8	-0.12675	-27.2375	-18.8576	-11.8868
 444	1	8	-0.136493	-26.7425	-17.1888	-10.61
 445	1	7	0.412463	-25.1465	-19.8291	-10.2342
 446	1	8	-0.134035	-24.3328	-20.3698	-9.29898
 447	1	8	-0.126523	-24.4699	-18.8161	-10.8206
 448	1	8	-0.120355	-25.3053	-20.7719	-11.1912
 449	1	3	-0.02363	-27.3022	-20.7228	-9.3422
 450	1	3	-0.07382	-28.1698	-21.297	-10.3168
 451	1	3	-0.058666	-28.7059	-22.5766	-10.1028
 452	1	3	-0.05367	-27.0256	-21.4877	-8.17467
 453	1	3	-0.161949	-27.5846	-22.7702	-7.97226
 454	1	3	-0.052731	-28.4192	-23.2982	-8.96724
 455	1	2	0.511278	-29.0607	-24.6402	-9.09785
 456	1	1	-0.11022	-29.6966	-24.6535	-10.3391
 457	1	2	0.48346	-29.5431	-23.4318	-10.9933
 458	1	3	0.062835	-30.3613	-25.7991	-10.8974
 459	1	3	-0.214737	-30.2232	-26.1262	-12.2615
 460	1	3	-0.092253	-30.8228	-27.2824	-12.7982
 461	1	3	-0.160974	-31.1357	-26.6598	-10.0939
 462	1	3	-0.148646	-31.7215	-27.8261	-10.6265
 463	1	3	0.041241	-31.5677	-28.1673	-11.9908
 464	1	6	0.160326	-29.6329	-25.4923	-12.9177
 465	1	6	0.154695	-31.2615	-26.4464	-9.03555
 466	1	6	0.134327	-32.2713	-28.4728	-9.95087
 467	1	6	0.119951	-30.6762	-27.5118	-13.8503
 468	1	6	0.172628	-27.3408	-23.3577	-7.08907
 469	1	6	0.137279	-26.3336	-21.101	-7.43054
 470	1	6	0.14105	-28.3958	-20.8085	-11.2577
 471	1	5	-0.471402	-29.9661	-23.1071	-12.089
 472	1	5	-0.485833	-28.9806	-25.5437	-8.28326
 473	1	7	0.140024	-32.0733	-29.5061	-12.5925
 474	1	7	-0.178691	-32.9462	-30.3324	-11.6038
 475	1	9	0.043413	-33.3334	-31.235	-12.095
 476	1	9	0.047557	-33.808	-29.7599	-11.2411
 477	1	9	0.063016	-32.3664	-30.6589	-10.7311
 478	1	7	-0.187892	-30.8174	-30.3839	-12.8604
 479	1	9	0.043685	-30.2571	-30.5553	-11.9321
 480	1	9	0.055699	-30.1301	-29.9032	-13.5674
 481	1	9	0.057684	-31.0954	-31.3656	-13.2655
 482	1	3	-0.164758	-32.5273	-29.7277	-15.1508
 483	1	3	-0.151844	-34.1639	-28.615	-13.7792
 484	1	3	-0.169902	-34.9834	-28.4297	-14.9082
 485	1	3	0.006445	-34.5785	-28.8541	-16.1939
 486	1	3	-0.175352	-33.3382	-29.5255	-16.2824
 487	1	6	0.13478	-35.9376	-27.9316	-14.7706
 488	1	6	0.147112	-32.9762	-29.8965	-17.2351
 489	1	3	0.014571	-32.9178	-29.2668	-13.8732
 490	1	6	0.127309	-34.5088	-28.2477	-12.8169
 491	1	6	0.132317	-31.5872	-30.2492	-15.2933
 492	1	7	0.14442	-35.4366	-28.5342	-17.4551
 493	1	3	-0.008293	-36.5685	-29.5609	-17.7144
 494	1	7	-0.149636	-34.5512	-28.4795	-18.7324
 495	1	7	-0.207624	-36.0353	-27.1035	-17.2918
 496	1	3	-0.056733	-36.6012	-30.8333	-17.1032
 497	1	3	-0.427248	-37.6367	-31.7505	-17.3895
 498	1	3	0.300563	-38.6807	-31.4357	-18.2903
 499	1	3	-0.034917	-37.5939	-29.2577	-18.6349
 500	1	3	-0.460652	-38.631	-30.1662	-18.9038
 501	1	6	0.132306	-35.825	-31.1193	-16.3974
 502	1	6	0.20081	-37.641	-32.7109	-16.8792
 503	1	6	0.203835	-39.407	-29.8734	-19.6069
 504	1	6	0.127298	-37.5955	-28.3045	-19.1554
 505	1	9	0.047033	-36.3988	-26.6924	-18.2411
 506	1	9	0.065326	-35.2777	-26.4052	-16.9128
 507	1	9	0.056928	-36.882	-27.1021	-16.5944
 508	1	9	0.032023	-34.192	-29.4772	-19.0134
 509	1	9	0.058797	-33.6831	-27.8246	-18.5826
 510	1	9	0.03359	-35.1123	-28.0937	-19.593
 511	1	1	0.469872	-3.65968	-2.76139	6.13786
 512	1	2	0.06277	-4.42002	-3.75747	6.7634
 513	1	3	0.008141	-5.67909	-3.86327	5.97238
 514	1	2	0.04539	-4.35773	-2.17079	5.07608
 515	1	3	0.033062	-5.63502	-2.93117	4.96086
 516	1	5	-0.387649	-4.09854	-4.49216	7.68295
 517	1	5	-0.380594	-3.97479	-1.30664	4.30419
 518	1	3	0.006556	-6.7018	-4.81972	6.04459
 519	1	3	-0.023388	-6.60645	-2.92338	3.95222
 520	1	3	-0.199879	-7.62531	-3.90528	3.98701
 521	1	3	-0.080819	-7.71002	-4.86518	5.03511
 522	1	6	0.152396	-6.63126	-5.56313	6.82963
 523	1	6	0.149363	-6.52796	-2.22084	3.12536
 524	1	6	0.171749	-8.32214	-3.94665	3.15323
 525	1	7	-0.126864	-8.74396	-6.0472	4.96784
 526	1	7	0.414085	-7.97023	-7.25281	4.30573
 527	1	8	-0.136036	-8.58773	-8.4448	4.46381
 528	1	8	-0.12675	-6.73016	-7.42062	4.81879
 529	1	8	-0.136493	-7.80353	-7.04586	2.98005
 530	1	7	0.412463	-9.2372	-6.46834	6.40569
 531	1	8	-0.134035	-10.3315	-7.26231	6.35658
 532	1	8	-0.126523	-9.58302	-5.38219	7.13295
 533	1	8	-0.120355	-8.31871	-7.15288	7.1226
 534	1	3	-0.02363	-10.0531	-5.68294	4.17649
 535	1	3	-0.07382	-10.7691	-6.64605	3.40347
 536	1	3	-0.058666	-12.0232	-6.32076	2.86142
 537	1	3	-0.05367	-10.6692	-4.41334	4.36454
 538	1	3	-0.161949	-11.9219	-4.09495	3.78978
 539	1	3	-0.052731	-12.5847	-5.07864	3.04134
 540	1	2	0.511278	-13.9604	-5.10458	2.45865
 541	1	1	-0.11022	-14.1745	-6.40883	2.00863
 542	1	2	0.48346	-13.0289	-7.18596	2.17517
 543	1	3	0.062835	-15.4567	-6.94258	1.62982
 544	1	3	-0.214737	-16.6053	-6.57725	2.35404
 545	1	3	-0.092253	-17.8414	-7.20795	2.13154
 546	1	3	-0.160974	-15.6051	-7.93049	0.631308
 547	1	3	-0.148646	-16.8476	-8.57327	0.413945
 548	1	3	0.041241	-17.9899	-8.24487	1.17892
 549	1	6	0.160326	-16.5391	-5.83283	3.14306
 550	1	6	0.154695	-14.7375	-8.25366	0.061496
 551	1	6	0.134327	-16.9055	-9.38264	-0.309344
 552	1	6	0.119951	-18.6642	-6.91306	2.77192
 553	1	6	0.172628	-12.3949	-3.13145	3.97084
 554	1	6	0.137279	-10.1884	-3.67333	4.99992
 555	1	6	0.14105	-10.419	-7.66165	3.26447
 556	1	5	-0.471402	-12.8875	-8.37081	1.92804
 557	1	5	-0.485833	-14.7497	-4.17568	2.47865
 558	1	7	0.140024	-19.2671	-9.14203	1.15149
 559	1	7	-0.178691	-20.4671	-8.46684	1.87612
 560	1	9	0.043413	-21.3782	-9.07093	1.77709
 561	1	9	0.047557	-20.6801	-7.48049	1.44346
 562	1	9	0.063016	-20.2846	-8.34731	2.95097
 563	1	7	-0.187892	-18.8931	-10.4073	1.9726
 564	1	9	0.043685	-18.4057	-10.1262	2.9155
 565	1	9	0.055699	-18.1965	-11.0454	1.41469
 566	1	9	0.057684	-19.7721	-11.005	2.24007
 567	1	3	-0.164758	-19.7349	-8.61067	-1.33151
 568	1	3	-0.151844	-20.6274	-10.662	-0.4398
 569	1	3	-0.169902	-21.3658	-10.8712	-1.62083
 570	1	3	0.006445	-21.319	-9.94463	-2.67964
 571	1	3	-0.175352	-20.4648	-8.82648	-2.51834
 572	1	6	0.13478	-22.033	-11.7272	-1.67363
 573	1	6	0.147112	-20.4214	-8.06179	-3.28669
 574	1	3	0.014571	-19.8165	-9.51454	-0.255101
 575	1	6	0.127309	-20.7682	-11.3718	0.367016
 576	1	6	0.132317	-19.1639	-7.69235	-1.22397
 577	1	7	0.14442	-22.3008	-10.0261	-3.88231
 578	1	3	-0.008293	-22.9493	-11.4257	-4.11786
 579	1	7	-0.149636	-21.5838	-9.6538	-5.21002
 580	1	7	-0.207624	-23.3731	-8.92771	-3.62915
 581	1	3	-0.056733	-24.3498	-11.6106	-4.20863
 582	1	3	-0.427248	-24.9044	-12.8344	-4.62932
 583	1	3	0.300563	-24.0963	-13.9399	-4.96826
 584	1	3	-0.034917	-22.1388	-12.5439	-4.41041
 585	1	3	-0.460652	-22.6999	-13.7731	-4.82158
 586	1	6	0.132306	-25.0371	-10.797	-4.00038
 587	1	6	0.20081	-25.9854	-12.9106	-4.72282
 588	1	6	0.203835	-22.0328	-14.5893	-5.08947
 589	1	6	0.127298	-21.0566	-12.4426	-4.3656
 590	1	9	0.047033	-23.9519	-9.14893	-2.72278
 591	1	9	0.065326	-24.0658	-8.83442	-4.47496
 592	1	9	0.056928	-22.9101	-7.94354	-3.48539
 593	1	9	0.032023	-21.2741	-8.60265	-5.23495
 594	1	9	0.058797	-22.2546	-9.81001	-6.06522
 595	1	9	0.03359	-20.6915	-10.272	-5.36717
 596	1	1	0.469872	20.7895	7.44694	14.6225
 597	1	2	0.06277	19.7791	8.0345	13.854
 598	1	3	0.008141	18.8747	6.92437	13.4562
 599	1	2	0.04539	20.6286	6.05489	14.7066
 600	1	3	0.033062	19.3718	5.74539	13.9601
 601	1	5	-0.387649	19.5967	9.21509	13.6051
 602	1	5	-0.380594	21.3226	5.24451	15.2992
 603	1	3	0.006556	17.634	6.98551	12.8149
 604	1	3	-0.023388	18.6513	4.55006	13.818
 605	1	3	-0.199879	17.3768	4.59539	13.1961
 606	1	3	-0.080819	16.8321	5.81308	12.7003
 607	1	6	0.152396	17.2786	7.966	12.5213
 608	1	6	0.149363	19.0408	3.62621	14.2403
 609	1	6	0.171749	16.7844	3.68392	13.1649
 610	1	7	-0.126864	15.3297	5.92434	12.2684
 611	1	7	0.414085	15.1411	6.96178	11.0913
 612	1	8	-0.136036	13.9408	6.82425	10.4822
 613	1	8	-0.12675	16.0814	6.7891	10.1348
 614	1	8	-0.136493	15.2078	8.25528	11.4764
 615	1	7	0.412463	14.5677	6.4571	13.547
 616	1	8	-0.134035	13.3087	6.87487	13.2836
 617	1	8	-0.126523	15.1794	7.51308	14.1294
 618	1	8	-0.120355	14.5029	5.50206	14.5029
 619	1	3	-0.02363	14.7135	4.58174	11.7258
 620	1	3	-0.07382	13.3997	4.16208	12.082
 621	1	3	-0.058666	12.7618	3.15478	11.3486
 622	1	3	-0.05367	15.3506	3.87487	10.665
 623	1	3	-0.161949	14.6918	2.84376	9.94478
 624	1	3	-0.052731	13.3691	2.5188	10.292
 625	1	2	0.511278	12.349	1.61437	9.65826
 626	1	1	-0.11022	11.1663	1.80225	10.3747
 627	1	2	0.48346	11.3546	2.687	11.4312
 628	1	3	0.062835	9.89626	1.18667	10.1109
 629	1	3	-0.214737	9.76347	-0.202769	9.93776
 630	1	3	-0.092253	8.48899	-0.812945	9.95172
 631	1	3	-0.160974	8.71723	1.9552	10.1551
 632	1	3	-0.148646	7.44747	1.34677	10.1727