pySIMM System Object

1702 atoms
1841 bonds
3240 angles
4996 dihedrals
560 impropers

9 atom types
11 bond types
18 angle types
8 dihedral types
4 improper types

-181.094150 181.094150 xlo xhi
-181.094150 181.094150 ylo yhi
-181.094150 181.094150 zlo zhi

Masses

   1	14.01	# n
   2	12.01	# c
   3	12.01	# ca
   4	1.008	# hn
   5	16.0	# o
   6	1.008	# ha
   7	12.01	# c3
   8	19.0	# f
   9	1.008	# hc

Pair Coeffs

   1	0.17	3.249998523775958	# n
   2	0.086	3.3996695084235347	# c
   3	0.086	3.3996695084235347	# ca
   4	0.0157	1.069078461768407	# hn
   5	0.21	2.959921901149463	# o
   6	0.015	2.59964245953351	# ha
   7	0.1094	3.3996695084235347	# c3
   8	0.061	3.1181455134911875	# f
   9	0.0157	2.649532787749369	# hc

Bond Coeffs

   1	345.8	1.086	# ca,ha
   2	384.2	1.4121	# ca,n
   3	637.7	1.2183	# c,o
   4	321.0	1.5156	# c3,ca
   5	461.1	1.3984	# ca,ca
   6	300.9	1.5375	# c3,c3
   7	330.6	1.0969	# c3,hc
   8	403.2	1.0129	# hn,n
   9	356.9	1.3497	# c3,f
  10	427.6	1.3789	# c,n
  11	345.9	1.4906	# c,ca

Angle Coeffs

   1	48.33	117.55	# c,n,hn
   2	74.22	123.05	# n,c,o
   3	64.28	120.33	# c,ca,ca
   4	70.89	107.36	# f,c3,f
   5	66.11	109.24	# c3,c3,f
   6	67.87	120.19	# ca,ca,n
   7	39.4	107.58	# hc,c3,hc
   8	63.53	120.77	# c3,ca,ca
   9	66.62	120.02	# ca,ca,ca
  10	63.82	123.71	# c,n,ca
  11	62.86	111.51	# c3,c3,c3
  12	46.34	109.8	# c3,c3,hc
  13	63.74	127.08	# c,n,c
  14	48.18	119.88	# ca,ca,ha
  15	68.72	122.6	# ca,c,o
  16	63.56	112.24	# ca,c3,ca
  17	63.15	112.07	# c3,c3,ca
  18	67.68	115.25	# ca,c,n

Dihedral Coeffs

   1	2	2.5	2	180	2.0	1	0	# hn,n,c,o
   2	1	3.625	2	180	# X,ca,ca,X
   3	1	0.16	3	0	# hc,c3,c3,c3
   4	1	1.0	2	180	# X,c,ca,X
   5	1	0.15555555555555556	3	0	# X,c3,c3,X
   6	1	0.0	2	0	# X,c3,ca,X
   7	1	2.5	2	180	# X,c,n,X
   8	1	0.45	2	180	# X,ca,n,X

Improper Coeffs

   1	10.5	-1	2	# c,X,X,o
   2	1.1	-1	2	# ca,X,X,ha
   3	1.1	-1	2	# ca,ca,ca,c3
   4	1.1	-1	2	# n,X,X,hn

Atoms

   1	1	1	0.469872	-103.891	-41.1943	-71.5058
   2	1	2	0.06277	-104.233	-40.2976	-70.4838
   3	1	3	0.008141	-105.677	-40.5067	-70.2345
   4	1	2	0.04539	-105.006	-41.917	-71.955
   5	1	3	0.033062	-106.143	-41.4465	-71.1246
   6	1	5	-0.387649	-103.54	-39.4766	-69.9049
   7	1	5	-0.380594	-105.066	-42.7999	-72.7956
   8	1	3	0.006556	-106.5	-39.9274	-69.2652
   9	1	3	-0.023388	-107.487	-41.828	-71.1295
  10	1	3	-0.199879	-108.346	-41.2282	-70.1848
  11	1	3	-0.080819	-107.874	-40.2888	-69.2242
  12	1	6	0.152396	-106.049	-39.224	-68.5741
  13	1	6	0.149363	-107.849	-42.5665	-71.8415
  14	1	6	0.171749	-109.396	-41.5125	-70.1967
  15	1	7	-0.126864	-108.877	-39.7089	-68.1794
  16	1	7	0.414085	-109.291	-40.9038	-67.2318
  17	1	8	-0.136036	-109.938	-40.5152	-66.1105
  18	1	8	-0.12675	-108.207	-41.603	-66.8224
  19	1	8	-0.136493	-110.103	-41.788	-67.8524
  20	1	7	0.412463	-108.278	-38.5495	-67.2946
  21	1	8	-0.134035	-109.217	-37.9657	-66.5161
  22	1	8	-0.126523	-107.768	-37.5521	-68.053
  23	1	8	-0.120355	-107.293	-38.975	-66.471
  24	1	3	-0.02363	-110.067	-39.0832	-68.9569
  25	1	3	-0.07382	-111.401	-39.1324	-68.4756
  26	1	3	-0.058666	-112.406	-38.4796	-69.2018
  27	1	3	-0.05367	-109.805	-38.3543	-70.1521
  28	1	3	-0.161949	-110.831	-37.7055	-70.8669
  29	1	3	-0.052731	-112.131	-37.7865	-70.3612
  30	1	2	0.511278	-113.393	-37.1739	-70.8499
  31	1	1	-0.11022	-114.368	-37.5358	-69.9289
  32	1	2	0.48346	-113.856	-38.3337	-68.9125
  33	1	3	0.062835	-115.721	-37.1041	-70.0
  34	1	3	-0.214737	-116.02	-35.7535	-70.2459
  35	1	3	-0.092253	-117.352	-35.3157	-70.3181
  36	1	3	-0.160974	-116.778	-38.0108	-69.8167
  37	1	3	-0.148646	-118.112	-37.5726	-69.8862
  38	1	3	0.041241	-118.424	-36.2194	-70.1423
  39	1	6	0.160326	-115.217	-35.0349	-70.3903
  40	1	6	0.154695	-116.57	-39.0574	-69.6094
  41	1	6	0.134327	-118.911	-38.2906	-69.723
  42	1	6	0.119951	-117.528	-34.2631	-70.5112
  43	1	6	0.172628	-110.621	-37.1377	-71.7715
  44	1	6	0.137279	-108.788	-38.266	-70.5256
  45	1	6	0.14105	-111.671	-39.6341	-67.5519
  46	1	5	-0.471402	-114.448	-38.8104	-67.9598
  47	1	5	-0.485833	-113.513	-36.4788	-71.8443
  48	1	7	0.140024	-119.908	-35.7814	-70.205
  49	1	7	-0.178691	-120.578	-36.5882	-71.3537
  50	1	9	0.043413	-119.973	-36.5313	-72.268
  51	1	9	0.047557	-121.574	-36.2026	-71.6027
  52	1	9	0.063016	-120.687	-37.6469	-71.0885
  53	1	7	-0.187892	-120.078	-34.2771	-70.5511
  54	1	9	0.043685	-119.629	-33.6421	-69.7766
  55	1	9	0.055699	-121.139	-34.0065	-70.6159
  56	1	9	0.057684	-119.616	-34.0335	-71.5165
  57	1	3	-0.164758	-119.894	-36.0803	-67.6414
  58	1	3	-0.151844	-122.025	-36.0808	-68.7763
  59	1	3	-0.169902	-122.68	-36.222	-67.5424
  60	1	3	0.006445	-121.957	-36.2932	-66.3354
  61	1	3	-0.175352	-120.548	-36.229	-66.4071
  62	1	6	0.13478	-123.766	-36.2516	-67.5218
  63	1	6	0.147112	-119.939	-36.2758	-65.5109
  64	1	3	0.014571	-120.618	-36.0149	-68.8517
  65	1	6	0.127309	-122.63	-35.996	-69.6729
  66	1	6	0.132317	-118.81	-36.0024	-67.6398
  67	1	7	0.14442	-122.731	-36.4053	-65.0023
  68	1	3	-0.008293	-123.755	-35.2519	-64.9031
  69	1	7	-0.149636	-121.816	-36.3104	-63.7523
  70	1	7	-0.207624	-123.393	-37.8106	-64.9763
  71	1	3	-0.056733	-123.376	-33.9497	-65.298
  72	1	3	-0.427248	-124.281	-32.8768	-65.2115
  73	1	3	0.300563	-125.574	-33.0788	-64.7182
  74	1	3	-0.034917	-125.06	-35.4383	-64.3919
  75	1	3	-0.460652	-125.959	-34.3602	-64.3055
  76	1	6	0.132306	-122.373	-33.7685	-65.678
  77	1	6	0.20081	-123.979	-31.8831	-65.5262
  78	1	6	0.203835	-126.959	-34.5144	-63.9139
  79	1	6	0.127298	-125.389	-36.4149	-64.0532
  80	1	9	0.047033	-124.176	-37.8975	-65.7409
  81	1	9	0.065326	-123.842	-38.0304	-63.9994
  82	1	9	0.056928	-122.647	-38.5909	-65.1744
  83	1	9	0.032023	-121.26	-35.3647	-63.7389
  84	1	9	0.058797	-121.097	-37.1382	-63.7189
  85	1	9	0.03359	-122.412	-36.3542	-62.8316
  86	1	1	0.469872	-80.6481	-48.392	-66.7188
  87	1	2	0.06277	-81.7355	-47.5109	-66.6935
  88	1	3	0.008141	-82.2048	-47.4202	-68.1007
  89	1	2	0.04539	-80.4153	-48.9051	-67.9983
  90	1	3	0.033062	-81.4174	-48.2472	-68.8715
  91	1	5	-0.387649	-82.1882	-46.8805	-65.7519
  92	1	5	-0.380594	-79.5616	-49.6965	-68.3651
  93	1	3	0.006556	-83.2047	-46.6203	-68.6689
  94	1	3	-0.023388	-81.5827	-48.3219	-70.2548
  95	1	3	-0.199879	-82.5755	-47.5171	-70.8496
  96	1	3	-0.080819	-83.405	-46.6528	-70.0758
  97	1	6	0.152396	-83.7938	-45.9718	-68.0251
  98	1	6	0.149363	-80.9384	-48.964	-70.8518
  99	1	6	0.171749	-82.6618	-47.5722	-71.9291
 100	1	7	-0.126864	-84.474	-45.7068	-70.7109
 101	1	7	0.414085	-83.9171	-44.237	-70.5621
 102	1	8	-0.136036	-83.9985	-43.7998	-69.2855
 103	1	8	-0.12675	-84.5591	-43.3244	-71.3247
 104	1	8	-0.136493	-82.6117	-44.1678	-70.9095
 105	1	7	0.412463	-84.752	-45.9939	-72.2359
 106	1	8	-0.134035	-83.6984	-45.6968	-73.0299
 107	1	8	-0.126523	-85.8016	-45.2828	-72.7077
 108	1	8	-0.120355	-85.071	-47.2917	-72.4468
 109	1	3	-0.02363	-85.8348	-45.9253	-69.9907
 110	1	3	-0.07382	-86.793	-44.8842	-69.8574
 111	1	3	-0.058666	-88.0549	-45.1857	-69.3287
 112	1	3	-0.05367	-86.202	-47.2371	-69.576
 113	1	3	-0.161949	-87.4736	-47.5171	-69.0382
 114	1	3	-0.052731	-88.3873	-46.4646	-68.9348
 115	1	2	0.511278	-89.8186	-46.4723	-68.5353
 116	1	1	-0.11022	-90.271	-45.1772	-68.742
 117	1	2	0.48346	-89.2657	-44.3311	-69.1885
 118	1	3	0.062835	-91.6303	-44.7947	-68.6028
 119	1	3	-0.214737	-92.0029	-43.7459	-67.7462
 120	1	3	-0.092253	-93.3576	-43.4015	-67.591
 121	1	3	-0.160974	-92.624	-45.4761	-69.3242
 122	1	3	-0.148646	-93.9745	-45.1249	-69.1787
 123	1	3	0.041241	-94.3661	-44.093	-68.3013
 124	1	6	0.160326	-91.2425	-43.2002	-67.1935
 125	1	6	0.154695	-92.3513	-46.2897	-69.9914
 126	1	6	0.134327	-94.7264	-45.6684	-69.7452
 127	1	6	0.119951	-93.6062	-42.5967	-66.9072
 128	1	6	0.172628	-87.7601	-48.5283	-68.7549
 129	1	6	0.137279	-85.5123	-48.0662	-69.7112
 130	1	6	0.14105	-86.607	-43.8726	-70.2028
 131	1	5	-0.471402	-89.3535	-43.1507	-69.4774
 132	1	5	-0.485833	-90.4625	-47.4469	-68.1871
 133	1	7	0.140024	-95.8703	-43.7896	-68.1442
 134	1	7	-0.178691	-96.163	-42.5675	-67.2294
 135	1	9	0.043413	-95.8159	-42.7423	-66.203
 136	1	9	0.047557	-97.2421	-42.3708	-67.1834
 137	1	9	0.063016	-95.6802	-41.6567	-67.6043
 138	1	7	-0.187892	-96.5255	-45.0155	-67.448
 139	1	9	0.043685	-97.5913	-44.8425	-67.2506
 140	1	9	0.055699	-96.0398	-45.2177	-66.4847
 141	1	9	0.057684	-96.434	-45.9233	-68.0571
 142	1	3	-0.164758	-95.9172	-42.4396	-70.3052
 143	1	3	-0.151844	-97.5729	-44.1824	-70.0663
 144	1	3	-0.169902	-98.1312	-43.8118	-71.2995
 145	1	3	0.006445	-97.6243	-42.722	-72.0372
 146	1	3	-0.175352	-96.4853	-42.0586	-71.5324
 147	1	6	0.13478	-99.0139	-44.3379	-71.6538
 148	1	6	0.147112	-96.0463	-41.2181	-72.0596
 149	1	3	0.014571	-96.4679	-43.4842	-69.5352
 150	1	6	0.127309	-98.0389	-44.996	-69.5211
 151	1	6	0.132317	-95.0558	-41.8915	-69.9324
 152	1	7	0.14442	-98.4071	-42.2354	-73.2805
 153	1	3	-0.008293	-99.8601	-41.9119	-72.8608
 154	1	7	-0.149636	-98.3321	-43.3596	-74.3501
 155	1	7	-0.207624	-97.8115	-40.952	-73.9168
 156	1	3	-0.056733	-100.954	-42.0634	-73.7386
 157	1	3	-0.427248	-102.268	-41.7993	-73.3078
 158	1	3	0.300563	-102.546	-41.3949	-71.9818
 159	1	3	-0.034917	-100.127	-41.4357	-71.5607
 160	1	3	-0.460652	-101.44	-41.2154	-71.1239
 161	1	6	0.132306	-100.796	-42.3948	-74.7608
 162	1	6	0.20081	-103.083	-41.943	-74.0129
 163	1	6	0.203835	-101.587	-40.8981	-70.0951
 164	1	6	0.127298	-99.3139	-41.2615	-70.8594
 165	1	9	0.047033	-98.4035	-40.638	-74.786
 166	1	9	0.065326	-96.7819	-41.1164	-74.2592
 167	1	9	0.056928	-97.8138	-40.1197	-73.2014
 168	1	9	0.032023	-98.8925	-44.249	-74.0363
 169	1	9	0.058797	-97.2899	-43.6623	-74.515
 170	1	9	0.03359	-98.7315	-43.0311	-75.3174
 171	1	1	0.469872	-63.6071	-51.1036	-51.1912
 172	1	2	0.06277	-62.7981	-51.9497	-51.9536
 173	1	3	0.008141	-63.5647	-52.2085	-53.2019
 174	1	2	0.04539	-64.791	-50.7638	-51.8454
 175	1	3	0.033062	-64.7457	-51.4985	-53.1351
 176	1	5	-0.387649	-61.7211	-52.44	-51.6571
 177	1	5	-0.380594	-65.7076	-50.0644	-51.4457
 178	1	3	0.006556	-63.2865	-53.0768	-54.267
 179	1	3	-0.023388	-65.7135	-51.608	-54.1345
 180	1	3	-0.199879	-65.46	-52.4852	-55.2085
 181	1	3	-0.080819	-64.2493	-53.2309	-55.3027
 182	1	6	0.152396	-62.3675	-53.6532	-54.238
 183	1	6	0.149363	-66.6527	-51.0654	-54.0527
 184	1	6	0.171749	-66.2469	-52.6115	-55.9479
 185	1	7	-0.126864	-64.0821	-54.2953	-56.4299
 186	1	7	0.414085	-62.5845	-54.4741	-56.9018
 187	1	8	-0.136036	-61.9676	-53.285	-57.0795
 188	1	8	-0.12675	-62.5161	-55.1297	-58.0827
 189	1	8	-0.136493	-61.8094	-55.1681	-56.0398
 190	1	7	0.412463	-64.587	-55.6573	-55.8153
 191	1	8	-0.134035	-63.9322	-55.9896	-54.6796
 192	1	8	-0.126523	-64.442	-56.6976	-56.667
 193	1	8	-0.120355	-65.8906	-55.589	-55.4599
 194	1	3	-0.02363	-64.9039	-53.8419	-57.6823
 195	1	3	-0.07382	-65.972	-54.6048	-58.231
 196	1	3	-0.058666	-66.7205	-54.0731	-59.2882
 197	1	3	-0.05367	-64.6242	-52.5751	-58.2722
 198	1	3	-0.161949	-65.3747	-52.0692	-59.3546
 199	1	3	-0.052731	-66.4333	-52.8437	-59.84
 200	1	2	0.511278	-67.4735	-52.5386	-60.8627
 201	1	1	-0.11022	-68.3611	-53.604	-60.8177
 202	1	2	0.48346	-67.9597	-54.5888	-59.927
 203	1	3	0.062835	-69.6041	-53.63	-61.5023
 204	1	3	-0.214737	-69.6568	-53.6304	-62.9049
 205	1	3	-0.092253	-70.8959	-53.6747	-63.5701
 206	1	3	-0.160974	-70.8044	-53.6548	-60.773
 207	1	3	-0.148646	-72.0416	-53.6905	-61.437
 208	1	3	0.041241	-72.1118	-53.7088	-62.8461
 209	1	6	0.160326	-68.7364	-53.6036	-63.4824
 210	1	6	0.154695	-70.7797	-53.6581	-59.6865
 211	1	6	0.134327	-72.9566	-53.7144	-60.8508
 212	1	6	0.119951	-70.8898	-53.6906	-64.6546
 213	1	6	0.172628	-65.17	-51.0861	-59.775
 214	1	6	0.137279	-63.8382	-51.9482	-57.8611
 215	1	6	0.14105	-66.2721	-55.5715	-57.8422
 216	1	5	-0.471402	-68.5509	-55.61	-59.6241
 217	1	5	-0.485833	-67.5636	-51.515	-61.5177
 218	1	7	0.140024	-73.4991	-53.8143	-63.5266
 219	1	7	-0.178691	-74.076	-55.2063	-63.141
 220	1	9	0.043413	-74.3533	-55.2436	-62.08
 221	1	9	0.047557	-73.3332	-55.9946	-63.3196
 222	1	9	0.063016	-74.9632	-55.4625	-63.7321
 223	1	7	-0.187892	-73.4193	-53.7682	-65.0757
 224	1	9	0.043685	-74.4217	-53.8318	-65.5188
 225	1	9	0.055699	-72.8305	-54.6044	-65.4737
 226	1	9	0.057684	-72.9703	-52.8272	-65.4182
 227	1	3	-0.164758	-73.9126	-51.3833	-62.7845
 228	1	3	-0.151844	-75.8362	-52.8081	-63.0935
 229	1	3	-0.169902	-76.682	-51.7329	-62.7764
 230	1	3	0.006445	-76.1634	-50.4645	-62.4514
 231	1	3	-0.175352	-74.7594	-50.3089	-62.4568
 232	1	6	0.13478	-77.7577	-51.8849	-62.8009
 233	1	6	0.147112	-74.3022	-49.3531	-62.224
 234	1	3	0.014571	-74.4328	-52.6576	-63.0957
 235	1	6	0.127309	-76.2926	-53.7541	-63.3628
 236	1	6	0.132317	-72.8398	-51.211	-62.8072
 237	1	7	0.14442	-77.1466	-49.3146	-62.1292
 238	1	3	-0.008293	-78.114	-49.126	-63.3201
 239	1	7	-0.149636	-76.4383	-47.9525	-61.89
 240	1	7	-0.207624	-77.8687	-49.6697	-60.7999
 241	1	3	-0.056733	-77.5759	-48.9362	-64.6081
 242	1	3	-0.427248	-78.4087	-48.7054	-65.7159
 243	1	3	0.300563	-79.8123	-48.6701	-65.5845
 244	1	3	-0.034917	-79.5197	-49.0982	-63.1821
 245	1	3	-0.460652	-80.3513	-48.8809	-64.2974
 246	1	6	0.132306	-76.4972	-48.9563	-64.7489
 247	1	6	0.20081	-77.9512	-48.555	-66.6909
 248	1	6	0.203835	-81.4285	-48.8429	-64.1522
 249	1	6	0.127298	-79.9855	-49.2291	-62.2101
 250	1	9	0.047033	-78.5256	-48.8549	-60.4692
 251	1	9	0.065326	-77.137	-49.8472	-60.0012
 252	1	9	0.056928	-78.4739	-50.5791	-60.8995
 253	1	9	0.032023	-75.8456	-47.647	-62.7614
 254	1	9	0.058797	-75.7714	-47.9958	-61.0197
 255	1	9	0.03359	-77.1756	-47.161	-61.7022
 256	1	1	0.469872	-58.545	-34.1495	-32.3434
 257	1	2	0.06277	-58.3962	-35.4912	-31.9651
 258	1	3	0.008141	-58.6203	-36.2889	-33.1984
 259	1	2	0.04539	-58.8354	-34.0291	-33.71
 260	1	3	0.033062	-58.894	-35.4214	-34.2317
 261	1	5	-0.387649	-58.191	-35.9584	-30.8567
 262	1	5	-0.380594	-59.0101	-33.0187	-34.3721
 263	1	3	0.006556	-58.58	-37.6767	-33.3877
 264	1	3	-0.023388	-59.1736	-35.8983	-35.5159
 265	1	3	-0.199879	-59.1544	-37.2949	-35.7262
 266	1	3	-0.080819	-58.8485	-38.2102	-34.6799
 267	1	6	0.152396	-58.3278	-38.2961	-32.534
 268	1	6	0.149363	-59.3903	-35.2049	-36.3256
 269	1	6	0.171749	-59.3572	-37.6676	-36.7282
 270	1	7	-0.126864	-58.7362	-39.7328	-35.017
 271	1	7	0.414085	-57.3911	-39.9023	-35.8256
 272	1	8	-0.136036	-57.4859	-39.3855	-37.0716
 273	1	8	-0.12675	-56.9986	-41.1884	-35.9646
 274	1	8	-0.136493	-56.3667	-39.2548	-35.2242
 275	1	7	0.412463	-58.6784	-40.6573	-33.7417
 276	1	8	-0.134035	-57.5311	-40.5226	-33.0387
 277	1	8	-0.126523	-58.7844	-41.9671	-34.0623
 278	1	8	-0.120355	-59.7009	-40.3999	-32.8948
 279	1	3	-0.02363	-59.9984	-40.1843	-35.8142
 280	1	3	-0.07382	-59.9392	-41.1158	-36.8883
 281	1	3	-0.058666	-61.1303	-41.5239	-37.5076
 282	1	3	-0.05367	-61.2792	-39.7214	-35.4014
 283	1	3	-0.161949	-62.4654	-40.146	-36.0363
 284	1	3	-0.052731	-62.3578	-41.054	-37.096
 285	1	2	0.511278	-63.4059	-41.6756	-37.9528
 286	1	1	-0.11022	-62.7312	-42.4932	-38.8543
 287	1	2	0.48346	-61.3557	-42.4649	-38.6407
 288	1	3	0.062835	-63.3734	-43.2294	-39.8983
 289	1	3	-0.214737	-62.8444	-43.2421	-41.2021
 290	1	3	-0.092253	-63.5078	-43.918	-42.2425
 291	1	3	-0.160974	-64.5712	-43.9281	-39.6586
 292	1	3	-0.148646	-65.2394	-44.5977	-40.7007
 293	1	3	0.041241	-64.7265	-44.594	-42.0193
 294	1	6	0.160326	-61.9171	-42.7183	-41.4196
 295	1	6	0.154695	-65.0063	-43.9341	-38.6622
 296	1	6	0.134327	-66.1707	-45.1009	-40.464
 297	1	6	0.119951	-63.0757	-43.9038	-43.2395
 298	1	6	0.172628	-63.4407	-39.7888	-35.7107
 299	1	6	0.137279	-61.3604	-39.0325	-34.5642
 300	1	6	0.14105	-59.0058	-41.5384	-37.2449
 301	1	5	-0.471402	-60.4877	-43.0626	-39.2525
 302	1	5	-0.485833	-64.6046	-41.4692	-37.8708
 303	1	7	0.140024	-65.4636	-45.2516	-43.2174
 304	1	7	-0.178691	-65.809	-44.1092	-44.2154
 305	1	9	0.043413	-64.9098	-43.731	-44.7172
 306	1	9	0.047557	-66.2798	-43.2674	-43.6911
 307	1	9	0.063016	-66.5124	-44.4378	-44.9897
 308	1	7	-0.187892	-66.809	-45.9097	-42.8085
 309	1	9	0.043685	-66.649	-46.7177	-42.0834
 310	1	9	0.055699	-67.3095	-46.3495	-43.6808
 311	1	9	0.057684	-67.4971	-45.1757	-42.3696
 312	1	3	-0.164758	-64.788	-46.7168	-45.2385
 313	1	3	-0.151844	-63.6742	-47.0978	-43.1337
 314	1	3	-0.169902	-62.9329	-48.1369	-43.7204
 315	1	3	0.006445	-63.0996	-48.4896	-45.0773
 316	1	3	-0.175352	-64.0417	-47.7541	-45.8276
 317	1	6	0.13478	-62.2205	-48.6732	-43.1014
 318	1	6	0.147112	-64.2142	-47.9787	-46.876
 319	1	3	0.014571	-64.6078	-46.3559	-43.8844
 320	1	6	0.127309	-63.5196	-46.8809	-42.0805
 321	1	6	0.132317	-65.521	-46.204	-45.8519
 322	1	7	0.14442	-62.2611	-49.6421	-45.6843
 323	1	3	-0.008293	-62.6295	-49.9563	-47.1629
 324	1	7	-0.149636	-62.4762	-50.9329	-44.8415
 325	1	7	-0.207624	-60.7556	-49.2761	-45.542
 326	1	3	-0.056733	-61.7766	-49.635	-48.2459
 327	1	3	-0.427248	-62.1009	-50.004	-49.5647
 328	1	3	0.300563	-63.2939	-50.692	-49.8559
 329	1	3	-0.034917	-63.842	-50.6146	-47.4663
 330	1	3	-0.460652	-64.1672	-50.9748	-48.7867
 331	1	6	0.132306	-60.8393	-49.1127	-48.0825
 332	1	6	0.20081	-61.4042	-49.775	-50.3675
 333	1	6	0.203835	-65.1081	-51.4841	-48.9821
 334	1	6	0.127298	-64.5438	-50.8531	-46.6715
 335	1	9	0.047033	-60.5392	-48.3078	-46.0105
 336	1	9	0.065326	-60.1178	-50.0409	-46.0037
 337	1	9	0.056928	-60.4541	-49.1976	-44.4905
 338	1	9	0.032023	-61.9989	-51.7971	-45.3213
 339	1	9	0.058797	-63.5417	-51.1587	-44.7152
 340	1	9	0.03359	-62.0489	-50.8405	-43.8356
 341	1	1	0.469872	-49.6357	-15.3996	-14.8728
 342	1	2	0.06277	-50.1132	-15.0067	-16.125
 343	1	3	0.008141	-50.5826	-16.2533	-16.7777
 344	1	2	0.04539	-49.7992	-16.772	-14.6518
 345	1	3	0.033062	-50.3955	-17.3048	-15.9085
 346	1	5	-0.387649	-50.0841	-13.9014	-16.6416
 347	1	5	-0.380594	-49.478	-17.4294	-13.6752
 348	1	3	0.006556	-51.0209	-16.4494	-18.0897
 349	1	3	-0.023388	-50.6533	-18.6207	-16.3094
 350	1	3	-0.199879	-51.0757	-18.8444	-17.6411
 351	1	3	-0.080819	-51.2626	-17.7704	-18.5571
 352	1	6	0.152396	-51.0745	-15.5816	-18.737
 353	1	6	0.149363	-50.4702	-19.4471	-15.626
 354	1	6	0.171749	-51.1988	-19.8727	-17.9725
 355	1	7	-0.126864	-51.5157	-18.0445	-20.0727
 356	1	7	0.414085	-52.4155	-16.934	-20.7427
 357	1	8	-0.136036	-53.4834	-16.6362	-19.9687
 358	1	8	-0.12675	-52.9039	-17.3383	-21.9379
 359	1	8	-0.136493	-51.7703	-15.7708	-20.9808
 360	1	7	0.412463	-50.0891	-18.0279	-20.749
 361	1	8	-0.134035	-50.1403	-18.0235	-22.1002
 362	1	8	-0.126523	-49.3549	-19.0964	-20.3621
 363	1	8	-0.120355	-49.3604	-16.9416	-20.4057
 364	1	3	-0.02363	-52.2796	-19.3916	-20.3001
 365	1	3	-0.07382	-51.8891	-20.3226	-21.3003
 366	1	3	-0.058666	-52.7046	-21.424	-21.5735
 367	1	3	-0.05367	-53.4914	-19.6513	-19.5969
 368	1	3	-0.161949	-54.3018	-20.7755	-19.8882
 369	1	3	-0.052731	-53.8866	-21.6488	-20.9042
 370	1	2	0.511278	-54.5227	-22.8683	-21.4971
 371	1	1	-0.11022	-53.6533	-23.296	-22.4938
 372	1	2	0.48346	-52.5373	-22.4815	-22.5992
 373	1	3	0.062835	-53.8243	-24.4349	-23.3274
 374	1	3	-0.214737	-54.7238	-24.42	-24.4076
 375	1	3	-0.092253	-54.6994	-25.4517	-25.3687
 376	1	3	-0.160974	-52.9464	-25.5212	-23.1906
 377	1	3	-0.148646	-52.9243	-26.5504	-24.1464
 378	1	3	0.041241	-53.7784	-26.5194	-25.2739
 379	1	6	0.160326	-55.3974	-23.5778	-24.5408
 380	1	6	0.154695	-52.2247	-25.532	-22.3782
 381	1	6	0.134327	-52.1834	-27.3326	-24.0256
 382	1	6	0.119951	-55.359	-25.3883	-26.2304
 383	1	6	0.172628	-55.24	-20.9462	-19.3633
 384	1	6	0.137279	-53.8287	-18.9512	-18.8362
 385	1	6	0.14105	-50.9983	-20.2062	-21.906
 386	1	5	-0.471402	-51.5954	-22.5954	-23.3637
 387	1	5	-0.485833	-55.5848	-23.3661	-21.168
 388	1	7	0.140024	-53.6124	-27.5062	-26.4608
 389	1	7	-0.178691	-52.7071	-28.7193	-26.1133
 390	1	9	0.043413	-53.0939	-29.2621	-25.2413
 391	1	9	0.047557	-51.6755	-28.4097	-25.9034
 392	1	9	0.063016	-52.669	-29.4264	-26.9518
 393	1	7	-0.187892	-52.8893	-26.7061	-27.5802
 394	1	9	0.043685	-53.5487	-25.9408	-28.0089
 395	1	9	0.055699	-52.544	-27.3576	-28.3921
 396	1	9	0.057684	-52.0038	-26.1949	-27.18
 397	1	3	-0.164758	-55.2223	-28.3719	-28.302
 398	1	3	-0.151844	-55.9329	-28.4871	-25.9991
 399	1	3	-0.169902	-57.1308	-29.1022	-26.4036
 400	1	3	0.006445	-57.3939	-29.3763	-27.7653
 401	1	3	-0.175352	-56.42	-28.989	-28.7063
 402	1	6	0.13478	-57.8535	-29.3547	-25.6358
 403	1	6	0.147112	-56.5915	-29.164	-29.7654
 404	1	3	0.014571	-54.9595	-28.0993	-26.9396
 405	1	6	0.127309	-55.7607	-28.3165	-24.9396
 406	1	6	0.132317	-54.4987	-28.1181	-29.0688
 407	1	7	0.14442	-58.7404	-29.977	-28.2392
 408	1	3	-0.008293	-58.5728	-30.9595	-29.4282
 409	1	7	-0.149636	-59.6587	-28.7715	-28.5756
 410	1	7	-0.207624	-59.4479	-30.7884	-27.1183
 411	1	3	-0.056733	-57.6695	-32.0362	-29.3212
 412	1	3	-0.427248	-57.6237	-33.0502	-30.2986
 413	1	3	0.300563	-58.4898	-33.0435	-31.4156
 414	1	3	-0.034917	-59.3932	-30.9114	-30.5774
 415	1	3	-0.460652	-59.3539	-31.9338	-31.5433
 416	1	6	0.132306	-57.0304	-32.1124	-28.4438
 417	1	6	0.20081	-56.9422	-33.8842	-30.149
 418	1	6	0.203835	-60.0337	-31.8722	-32.3899
 419	1	6	0.127298	-60.1082	-30.107	-30.7188
 420	1	9	0.047033	-58.7777	-31.5481	-26.6961
 421	1	9	0.065326	-60.3296	-31.3077	-27.5156
 422	1	9	0.056928	-59.7951	-30.1439	-26.3018
 423	1	9	0.032023	-60.6809	-29.093	-28.8116
 424	1	9	0.058797	-59.2646	-28.2021	-29.4269
 425	1	9	0.03359	-59.724	-28.0845	-27.7218
 426	1	1	0.469872	-29.2428	-8.2367	-4.04639
 427	1	2	0.06277	-29.4096	-9.55282	-4.49274
 428	1	3	0.008141	-30.3746	-9.46878	-5.61791
 429	1	2	0.04539	-30.0385	-7.33338	-4.75905
 430	1	3	0.033062	-30.736	-8.14889	-5.78067
 431	1	5	-0.387649	-28.8477	-10.5687	-4.11634
 432	1	5	-0.380594	-30.1499	-6.12589	-4.61921
 433	1	3	0.006556	-30.862	-10.4762	-6.45912
 434	1	3	-0.023388	-31.5812	-7.74936	-6.816
 435	1	3	-0.199879	-32.0772	-8.74496	-7.67991
 436	1	3	-0.080819	-31.7583	-10.1219	-7.50352
 437	1	6	0.152396	-30.5306	-11.495	-6.28874
 438	1	6	0.149363	-31.8302	-6.69923	-6.95217
 439	1	6	0.171749	-32.7226	-8.43434	-8.49908
 440	1	7	-0.126864	-32.3687	-11.1662	-8.48481
 441	1	7	0.414085	-31.4698	-11.1404	-9.77788
 442	1	8	-0.136036	-31.583	-9.96696	-10.4406
 443	1	8	-0.12675	-31.7671	-12.1277	-10.6524
 444	1	8	-0.136493	-30.158	-11.2727	-9.47596
 445	1	7	0.412463	-32.4011	-12.6333	-7.90915
 446	1	8	-0.134035	-32.9126	-12.6662	-6.65784
 447	1	8	-0.126523	-31.1834	-13.2174	-7.85008
 448	1	8	-0.120355	-33.1812	-13.4442	-8.65947
 449	1	3	-0.02363	-33.8516	-10.7624	-8.74134
 450	1	3	-0.07382	-34.4347	-10.7226	-10.0368
 451	1	3	-0.058666	-35.7634	-10.2964	-10.1679
 452	1	3	-0.05367	-34.6636	-10.4082	-7.62602
 453	1	3	-0.161949	-35.9951	-9.97709	-7.77984
 454	1	3	-0.052731	-36.5173	-9.92253	-9.07449
 455	1	2	0.511278	-37.8599	-9.5018	-9.55367
 456	1	1	-0.11022	-37.8273	-9.66064	-10.9289
 457	1	2	0.48346	-36.6077	-10.1382	-11.3836
 458	1	3	0.062835	-38.9364	-9.38142	-11.7612
 459	1	3	-0.214737	-39.7051	-10.4319	-12.2828
 460	1	3	-0.092253	-40.8601	-10.1545	-13.0311
 461	1	3	-0.160974	-39.315	-8.05397	-12.0159
 462	1	3	-0.148646	-40.4683	-7.77625	-12.7696
 463	1	3	0.041241	-41.2721	-8.82581	-13.2714
 464	1	6	0.160326	-39.4231	-11.4632	-12.0889
 465	1	6	0.154695	-38.7272	-7.23556	-11.6089
 466	1	6	0.134327	-40.7358	-6.73786	-12.934
 467	1	6	0.119951	-41.4587	-10.9815	-13.4041
 468	1	6	0.172628	-36.6016	-9.6891	-6.92307
 469	1	6	0.137279	-34.2487	-10.443	-6.62167
 470	1	6	0.14105	-33.8906	-10.9962	-10.9349
 471	1	5	-0.471402	-36.2781	-10.3784	-12.5313
 472	1	5	-0.485833	-38.7764	-9.08577	-8.86647
 473	1	7	0.140024	-42.5912	-8.58342	-14.0381
 474	1	7	-0.178691	-42.3439	-8.9713	-15.5212
 475	1	9	0.043413	-43.2095	-8.7301	-16.151
 476	1	9	0.047557	-42.1314	-10.0428	-15.6241
 477	1	9	0.063016	-41.4826	-8.42241	-15.9236
 478	1	7	-0.187892	-43.0431	-7.09766	-14.028
 479	1	9	0.043685	-42.3269	-6.45405	-14.5545
 480	1	9	0.055699	-43.1572	-6.72293	-13.0028
 481	1	9	0.057684	-44.0143	-6.98735	-14.5274
 482	1	3	-0.164758	-43.86	-9.35624	-11.9668
 483	1	3	-0.151844	-44.6307	-10.1977	-14.0943
 484	1	3	-0.169902	-45.6403	-10.9257	-13.4389
 485	1	3	0.006445	-45.7717	-10.8915	-12.033
 486	1	3	-0.175352	-44.8661	-10.0844	-11.3127
 487	1	6	0.13478	-46.3242	-11.5105	-14.0466
 488	1	6	0.147112	-44.9409	-10.0062	-10.2327
 489	1	3	0.014571	-43.7156	-9.40609	-13.3678
 490	1	6	0.127309	-44.5789	-10.2564	-15.1762
 491	1	6	0.132317	-43.183	-8.74635	-11.3735
 492	1	7	0.14442	-46.892	-11.6554	-11.2878
 493	1	3	-0.008293	-47.6391	-12.6503	-12.2194
 494	1	7	-0.149636	-47.8676	-10.6054	-10.6836
 495	1	7	-0.207624	-46.2947	-12.4351	-10.0784
 496	1	3	-0.056733	-48.8506	-12.3066	-12.861
 497	1	3	-0.427248	-49.5091	-13.2143	-13.7097
 498	1	3	0.300563	-48.9847	-14.498	-13.9636
 499	1	3	-0.034917	-47.1021	-13.9284	-12.4923
 500	1	3	-0.460652	-47.7646	-14.8342	-13.3416
 501	1	6	0.132306	-49.2911	-11.3241	-12.7247
 502	1	6	0.20081	-50.4283	-12.9027	-14.2005
 503	1	6	0.203835	-47.3213	-15.8116	-13.5179
 504	1	6	0.127298	-46.1552	-14.2291	-12.0535
 505	1	9	0.047033	-47.0383	-13.1191	-9.64935
 506	1	9	0.065326	-45.9729	-11.763	-9.27387
 507	1	9	0.056928	-45.4159	-13.0213	-10.3724
 508	1	9	0.032023	-48.2228	-9.90312	-11.4478
 509	1	9	0.058797	-47.3781	-10.0028	-9.90831
 510	1	9	0.03359	-48.7375	-11.0921	-10.2241
 511	1	1	0.469872	-9.37503	1.9289	6.03741
 512	1	2	0.06277	-9.35931	2.35065	4.70635
 513	1	3	0.008141	-10.6724	1.94627	4.15182
 514	1	2	0.04539	-10.5763	1.30331	6.38418
 515	1	3	0.033062	-11.3978	1.32632	5.14595
 516	1	5	-0.387649	-8.46405	2.90135	4.08647
 517	1	5	-0.380594	-10.907	0.823794	7.45651
 518	1	3	0.006556	-11.1762	2.11208	2.85931
 519	1	3	-0.023388	-12.6843	0.839086	4.90151
 520	1	3	-0.199879	-13.2129	0.992599	3.60163
 521	1	3	-0.080819	-12.4724	1.61591	2.55706
 522	1	6	0.152396	-10.5503	2.619	2.13344
 523	1	6	0.149363	-13.2531	0.360091	5.69555
 524	1	6	0.171749	-14.2174	0.622083	3.40671
 525	1	7	-0.126864	-13.1302	1.77971	1.15345
 526	1	7	0.414085	-14.1827	2.94559	1.29766
 527	1	8	-0.136036	-14.6369	3.41998	0.116272
 528	1	8	-0.12675	-13.6583	4.0066	1.95298
 529	1	8	-0.136493	-15.2644	2.55396	2.0083
 530	1	7	0.412463	-12.1058	2.14805	0.0143346
 531	1	8	-0.134035	-12.6631	2.06626	-1.21546
 532	1	8	-0.126523	-11.0557	1.2955	0.00319015
 533	1	8	-0.120355	-11.6111	3.40116	0.128716
 534	1	3	-0.02363	-13.7622	0.42372	0.72509
 535	1	3	-0.07382	-14.942	0.363283	-0.0607393
 536	1	3	-0.058666	-15.4057	-0.882825	-0.49424
 537	1	3	-0.05367	-13.0943	-0.797513	1.02911
 538	1	3	-0.161949	-13.5875	-2.04516	0.591903
 539	1	3	-0.052731	-14.7538	-2.05498	-0.180896
 540	1	2	0.511278	-15.4898	-3.17939	-0.823275
 541	1	1	-0.11022	-16.5549	-2.59465	-1.49927
 542	1	2	0.48346	-16.5756	-1.21409	-1.34394
 543	1	3	0.062835	-17.5387	-3.3132	-2.23499
 544	1	3	-0.214737	-17.9846	-2.83865	-3.48161
 545	1	3	-0.092253	-19.0282	-3.48523	-4.16364
 546	1	3	-0.160974	-18.1174	-4.48064	-1.70853
 547	1	3	-0.148646	-19.1496	-5.13658	-2.39785
 548	1	3	0.041241	-19.6506	-4.62772	-3.61547
 549	1	6	0.160326	-17.5466	-1.94204	-3.91307
 550	1	6	0.154695	-17.7815	-4.87601	-0.753352
 551	1	6	0.134327	-19.5875	-6.03081	-1.96121
 552	1	6	0.119951	-19.3557	-3.07082	-5.11114
 553	1	6	0.172628	-13.068	-2.97337	0.823233
 554	1	6	0.137279	-12.1673	-0.782608	1.59677
 555	1	6	0.14105	-15.4868	1.24888	-0.369088
 556	1	5	-0.471402	-17.3831	-0.415133	-1.78598
 557	1	5	-0.485833	-15.2009	-4.36113	-0.746126
 558	1	7	0.140024	-20.8446	-5.328	-4.29964
 559	1	7	-0.178691	-20.2751	-6.53135	-5.09664
 560	1	9	0.043413	-21.0515	-7.02006	-5.69884
 561	1	9	0.047557	-19.8352	-7.27813	-4.4235
 562	1	9	0.063016	-19.4872	-6.20025	-5.78516
 563	1	7	-0.187892	-21.5864	-4.41211	-5.31199
 564	1	9	0.043685	-20.9643	-4.17969	-6.1851
 565	1	9	0.055699	-21.8907	-3.46761	-4.84301
 566	1	9	0.057684	-22.495	-4.90476	-5.68198
 567	1	3	-0.164758	-22.471	-7.01996	-3.19163
 568	1	3	-0.151844	-22.2931	-4.79588	-2.26456
 569	1	3	-0.169902	-23.2524	-5.11665	-1.28997
 570	1	3	0.006445	-23.851	-6.39406	-1.26137
 571	1	3	-0.175352	-23.4359	-7.33773	-2.22334
 572	1	6	0.13478	-23.5396	-4.3468	-0.581465
 573	1	6	0.147112	-23.8972	-8.32154	-2.24692
 574	1	3	0.014571	-21.8836	-5.73862	-3.23113
 575	1	6	0.127309	-21.8671	-3.79574	-2.27149
 576	1	6	0.132317	-22.2086	-7.77948	-3.92011
 577	1	7	0.14442	-25.0161	-6.76243	-0.314313
 578	1	3	-0.008293	-26.2221	-7.13605	-1.20079
 579	1	7	-0.149636	-25.4521	-5.59847	0.615077
 580	1	7	-0.207624	-24.5406	-7.92168	0.6044
 581	1	3	-0.056733	-26.5287	-6.31045	-2.30047
 582	1	3	-0.427248	-27.5276	-6.66738	-3.21583
 583	1	3	0.300563	-28.2848	-7.84452	-3.05156
 584	1	3	-0.034917	-27.0043	-8.29358	-1.0018
 585	1	3	-0.460652	-28.0225	-8.63619	-1.91161
 586	1	6	0.132306	-25.9552	-5.40245	-2.47546
 587	1	6	0.20081	-27.6974	-6.02246	-4.07446
 588	1	6	0.203835	-28.5816	-9.55554	-1.75273
 589	1	6	0.127298	-26.8135	-8.95445	-0.161377
 590	1	9	0.047033	-24.3238	-8.83009	0.0289356
 591	1	9	0.065326	-25.2939	-8.17	1.36236
 592	1	9	0.056928	-23.6219	-7.63837	1.13416
 593	1	9	0.032023	-24.6335	-5.289	1.27758
 594	1	9	0.058797	-26.2951	-5.90416	1.2479
 595	1	9	0.03359	-25.7776	-4.7246	0.0366865
 596	1	1	0.469872	9.15228	18.0073	10.8804
 597	1	2	0.06277	9.02385	17.1056	11.9383
 598	1	3	0.008141	8.40857	15.8978	11.3477
 599	1	2	0.04539	8.73258	17.467	9.66207
 600	1	3	0.033062	8.23891	16.1039	9.99572
 601	1	5	-0.387649	9.29489	17.2599	13.1181
 602	1	5	-0.380594	8.6912	18.0004	8.56536
 603	1	3	0.006556	7.9821	14.73	11.9822
 604	1	3	-0.023388	7.64676	15.1273	9.1904
 605	1	3	-0.199879	7.21226	13.934	9.80892
 606	1	3	-0.080819	7.34206	13.7256	11.2125
 607	1	6	0.152396	8.15042	14.6364	13.0494
 608	1	6	0.149363	7.52155	15.2942	8.12272
 609	1	6	0.171749	6.76561	13.1658	9.18146
 610	1	7	-0.126864	6.85273	12.396	11.8545
 611	1	7	0.414085	6.44384	12.5458	13.3733
 612	1	8	-0.136036	5.7275	11.4816	13.8017
 613	1	8	-0.12675	5.66902	13.6351	13.5784
 614	1	8	-0.136493	7.49482	12.6577	14.2156
 615	1	7	0.412463	8.05794	11.3878	11.748
 616	1	8	-0.134035	7.836	10.2294	12.4097
 617	1	8	-0.126523	9.19999	11.9081	12.2524
 618	1	8	-0.120355	8.33406	11.0802	10.4602
 619	1	3	-0.02363	5.56771	11.9212	11.1113
 620	1	3	-0.07382	5.41311	10.6017	10.6121
 621	1	3	-0.058666	4.20977	10.2458	9.99626
 622	1	3	-0.05367	4.47823	12.8267	10.9585
 623	1	3	-0.161949	3.26654	12.4409	10.3465
 624	1	3	-0.052731	3.15999	11.1281	9.87446
 625	1	2	0.511278	2.03717	10.4187	9.20013
 626	1	1	-0.11022	2.50408	9.13374	8.94011
 627	1	2	0.48346	3.80613	8.95421	9.39094