pySIMM System Object

4082 atoms
4417 bonds
7776 angles
11996 dihedrals
1344 impropers

9 atom types
11 bond types
18 angle types
8 dihedral types
4 improper types

-244.917137 244.917137 xlo xhi
-244.917137 244.917137 ylo yhi
-244.917137 244.917137 zlo zhi

Masses

   1	14.01	# n
   2	12.01	# c
   3	12.01	# ca
   4	1.008	# hn
   5	16.0	# o
   6	1.008	# ha
   7	12.01	# c3
   8	19.0	# f
   9	1.008	# hc

Pair Coeffs

   1	0.17	3.249998523775958	# n
   2	0.086	3.3996695084235347	# c
   3	0.086	3.3996695084235347	# ca
   4	0.0157	1.069078461768407	# hn
   5	0.21	2.959921901149463	# o
   6	0.015	2.59964245953351	# ha
   7	0.1094	3.3996695084235347	# c3
   8	0.061	3.1181455134911875	# f
   9	0.0157	2.649532787749369	# hc

Bond Coeffs

   1	345.8	1.086	# ca,ha
   2	384.2	1.4121	# ca,n
   3	637.7	1.2183	# c,o
   4	321.0	1.5156	# c3,ca
   5	461.1	1.3984	# ca,ca
   6	300.9	1.5375	# c3,c3
   7	330.6	1.0969	# c3,hc
   8	403.2	1.0129	# hn,n
   9	356.9	1.3497	# c3,f
  10	427.6	1.3789	# c,n
  11	345.9	1.4906	# c,ca

Angle Coeffs

   1	48.33	117.55	# c,n,hn
   2	74.22	123.05	# n,c,o
   3	64.28	120.33	# c,ca,ca
   4	70.89	107.36	# f,c3,f
   5	66.11	109.24	# c3,c3,f
   6	67.87	120.19	# ca,ca,n
   7	39.4	107.58	# hc,c3,hc
   8	63.53	120.77	# c3,ca,ca
   9	66.62	120.02	# ca,ca,ca
  10	63.82	123.71	# c,n,ca
  11	62.86	111.51	# c3,c3,c3
  12	46.34	109.8	# c3,c3,hc
  13	63.74	127.08	# c,n,c
  14	48.18	119.88	# ca,ca,ha
  15	68.72	122.6	# ca,c,o
  16	63.56	112.24	# ca,c3,ca
  17	63.15	112.07	# c3,c3,ca
  18	67.68	115.25	# ca,c,n

Dihedral Coeffs

   1	2	2.5	2	180	2.0	1	0	# hn,n,c,o
   2	1	3.625	2	180	# X,ca,ca,X
   3	1	0.16	3	0	# hc,c3,c3,c3
   4	1	1.0	2	180	# X,c,ca,X
   5	1	0.15555555555555556	3	0	# X,c3,c3,X
   6	1	0.0	2	0	# X,c3,ca,X
   7	1	2.5	2	180	# X,c,n,X
   8	1	0.45	2	180	# X,ca,n,X

Improper Coeffs

   1	10.5	-1	2	# c,X,X,o
   2	1.1	-1	2	# ca,X,X,ha
   3	1.1	-1	2	# ca,ca,ca,c3
   4	1.1	-1	2	# n,X,X,hn

Atoms

   1	1	1	0.469872	75.107	-20.8016	110.303
   2	1	2	0.06277	75.0787	-21.9726	111.065
   3	1	3	0.008141	75.0179	-21.5205	112.478
   4	1	2	0.04539	75.0707	-19.6506	111.095
   5	1	3	0.033062	75.0136	-20.142	112.493
   6	1	5	-0.387649	75.1149	-23.1329	110.69
   7	1	5	-0.380594	75.0701	-18.4805	110.747
   8	1	3	0.006556	74.9675	-22.2724	113.658
   9	1	3	-0.023388	74.9528	-19.4304	113.692
  10	1	3	-0.199879	74.9078	-20.1671	114.893
  11	1	3	-0.080819	74.9268	-21.5909	114.904
  12	1	6	0.152396	74.9619	-23.3541	113.576
  13	1	6	0.149363	74.9387	-18.3427	113.689
  14	1	6	0.171749	74.8557	-19.617	115.831
  15	1	7	-0.126864	74.8668	-22.3284	116.275
  16	1	7	0.414085	73.369	-22.2427	116.76
  17	1	8	-0.136036	73.1051	-23.0239	117.832
  18	1	8	-0.12675	72.5107	-22.6224	115.786
  19	1	8	-0.136493	73.0212	-20.9796	117.096
  20	1	7	0.412463	75.2948	-23.8436	116.205
  21	1	8	-0.134035	75.4616	-24.374	117.438
  22	1	8	-0.126523	76.4777	-23.9986	115.568
  23	1	8	-0.120355	74.3947	-24.6237	115.565
  24	1	3	-0.02363	75.879	-21.6373	117.235
  25	1	3	-0.07382	75.5825	-21.3511	118.595
  26	1	3	-0.058666	76.56	-20.7317	119.385
  27	1	3	-0.05367	77.1746	-21.3079	116.744
  28	1	3	-0.161949	78.1427	-20.6848	117.556
  29	1	3	-0.052731	77.8005	-20.4029	118.882
  30	1	2	0.511278	78.5907	-19.7652	119.968
  31	1	1	-0.11022	77.7596	-19.7529	121.081
  32	1	2	0.48346	76.5186	-20.3181	120.812
  33	1	3	0.062835	78.1401	-19.2296	122.347
  34	1	3	-0.214737	77.9214	-19.9723	123.52
  35	1	3	-0.092253	78.3123	-19.4666	124.772
  36	1	3	-0.160974	78.7539	-17.9689	122.446
  37	1	3	-0.148646	79.1447	-17.4629	123.697
  38	1	3	0.041241	78.9303	-18.2004	124.881
  39	1	6	0.160326	77.4449	-20.948	123.465
  40	1	6	0.154695	78.9404	-17.3814	121.551
  41	1	6	0.134327	79.6223	-16.4876	123.748
  42	1	6	0.119951	78.129	-20.0777	125.649
  43	1	6	0.172628	79.1293	-20.4325	117.172
  44	1	6	0.137279	77.4378	-21.5356	115.715
  45	1	6	0.14105	74.6283	-21.5937	119.051
  46	1	5	-0.471402	75.5732	-20.4518	121.57
  47	1	5	-0.485833	79.7276	-19.3369	119.869
  48	1	7	0.140024	79.4026	-17.6105	126.229
  49	1	7	-0.178691	80.9542	-17.6839	126.237
  50	1	9	0.043413	81.2935	-18.7087	126.038
  51	1	9	0.047557	81.3678	-17.3859	127.209
  52	1	9	0.063016	81.3879	-17.0359	125.465
  53	1	7	-0.187892	78.9064	-18.4169	127.459
  54	1	9	0.043685	77.8117	-18.4941	127.47
  55	1	9	0.055699	79.2108	-17.9233	128.391
  56	1	9	0.057684	79.3259	-19.4308	127.473
  57	1	3	-0.164758	77.4994	-15.9142	126.127
  58	1	3	-0.151844	79.6659	-15.0936	126.811
  59	1	3	-0.169902	79.1231	-13.8079	126.969
  60	1	3	0.006445	77.7606	-13.5511	126.717
  61	1	3	-0.175352	76.957	-14.6277	126.284
  62	1	6	0.13478	79.7696	-13.0013	127.305
  63	1	6	0.147112	75.9031	-14.489	126.068
  64	1	3	0.014571	78.8616	-16.1714	126.383
  65	1	6	0.127309	80.7175	-15.234	127.036
  66	1	6	0.132317	76.8492	-16.7231	125.803
  67	1	7	0.14442	77.2163	-12.1186	126.919
  68	1	3	-0.008293	77.6111	-11.6141	128.326
  69	1	7	-0.149636	75.6696	-12.0317	126.818
  70	1	7	-0.207624	77.7922	-11.2449	125.772
  71	1	3	-0.056733	77.3957	-12.4524	129.442
  72	1	3	-0.427248	77.7345	-12.0293	130.739
  73	1	3	0.300563	78.2879	-10.761	130.949
  74	1	3	-0.034917	78.1619	-10.3315	128.553
  75	1	3	-0.460652	78.4983	-9.91489	129.854
  76	1	6	0.132306	76.9653	-13.4415	129.301
  77	1	6	0.20081	77.5685	-12.6839	131.589
  78	1	6	0.203835	78.9225	-8.92964	130.02
  79	1	6	0.127298	78.3339	-9.64408	127.731
  80	1	9	0.047033	78.8834	-11.1565	125.846
  81	1	9	0.065326	77.3627	-10.2354	125.777
  82	1	9	0.056928	77.5626	-11.6926	124.796
  83	1	9	0.032023	75.1844	-12.6982	127.543
  84	1	9	0.058797	75.3181	-12.2983	125.814
  85	1	9	0.03359	75.3246	-11.0107	127.027
  86	1	1	0.469872	68.8761	-17.8665	87.6691
  87	1	2	0.06277	69.3938	-18.0505	88.9539
  88	1	3	0.008141	69.8529	-16.707	89.3873
  89	1	2	0.04539	68.9628	-16.5373	87.2457
  90	1	3	0.033062	69.597	-15.8101	88.3729
  91	1	5	-0.387649	69.4517	-19.0736	89.6164
  92	1	5	-0.380594	68.6127	-16.0465	86.1845
  93	1	3	0.006556	70.4528	-16.3071	90.5855
  94	1	3	-0.023388	69.9349	-14.4608	88.4961
  95	1	3	-0.199879	70.5378	-14.034	89.698
  96	1	3	-0.080819	70.7936	-14.9402	90.7673
  97	1	6	0.152396	70.645	-17.0507	91.3555
  98	1	6	0.149363	69.7392	-13.768	87.6804
  99	1	6	0.171749	70.8071	-12.9855	89.771
 100	1	7	-0.126864	71.4706	-14.5063	92.1013
 101	1	7	0.414085	72.9818	-14.9402	91.9913
 102	1	8	-0.136036	73.1153	-16.2859	92.0039
 103	1	8	-0.12675	73.7548	-14.4522	92.9874
 104	1	8	-0.136493	73.5369	-14.5203	90.8316
 105	1	7	0.412463	71.4033	-12.9562	92.3819
 106	1	8	-0.134035	72.2084	-12.2274	91.5763
 107	1	8	-0.126523	71.7653	-12.6641	93.6521
 108	1	8	-0.120355	70.1491	-12.4732	92.2305
 109	1	3	-0.02363	70.7039	-15.1893	93.2717
 110	1	3	-0.07382	71.3608	-15.7989	94.3739
 111	1	3	-0.058666	70.587	-16.3677	95.3937
 112	1	3	-0.05367	69.2799	-15.1653	93.2662
 113	1	3	-0.161949	68.5209	-15.7425	94.3038
 114	1	3	-0.052731	69.2096	-16.3428	95.3621
 115	1	2	0.511278	68.703	-17.0028	96.5952
 116	1	1	-0.11022	69.832	-17.3881	97.308
 117	1	2	0.48346	71.0065	-17.0464	96.6479
 118	1	3	0.062835	69.789	-18.0298	98.5781
 119	1	3	-0.214737	68.9197	-19.1109	98.8072
 120	1	3	-0.092253	68.8557	-19.7246	100.071
 121	1	3	-0.160974	70.5991	-17.577	99.6338
 122	1	3	-0.148646	70.5373	-18.1912	100.895
 123	1	3	0.041241	69.6688	-19.2773	101.136
 124	1	6	0.160326	68.2737	-19.4684	98.0094
 125	1	6	0.154695	71.2798	-16.7434	99.4801
 126	1	6	0.134327	71.1696	-17.8141	101.695
 127	1	6	0.119951	68.1557	-20.5417	100.208
 128	1	6	0.172628	67.4328	-15.7164	94.2943
 129	1	6	0.137279	68.7495	-14.6864	92.4465
 130	1	6	0.14105	72.4412	-15.8368	94.4669
 131	1	5	-0.471402	72.1552	-17.2364	97.0079
 132	1	5	-0.485833	67.5312	-17.1456	96.9
 133	1	7	0.140024	69.6039	-19.8916	102.551
 134	1	7	-0.178691	68.8969	-21.2758	102.589
 135	1	9	0.043413	67.8303	-21.1929	102.345
 136	1	9	0.047557	68.9683	-21.7156	103.593
 137	1	9	0.063016	69.3534	-21.9817	101.885
 138	1	7	-0.187892	68.7494	-18.9355	103.427
 139	1	9	0.043685	68.6417	-19.3186	104.45
 140	1	9	0.055699	67.7416	-18.8224	103.007
 141	1	9	0.057684	69.1954	-17.9341	103.477
 142	1	3	-0.164758	71.9329	-20.9131	102.37
 143	1	3	-0.151844	71.5261	-19.447	104.246
 144	1	3	-0.169902	72.8508	-19.634	104.672
 145	1	3	0.006445	73.7335	-20.4849	103.975
 146	1	3	-0.175352	73.2537	-21.1115	102.805
 147	1	6	0.13478	73.1903	-19.1075	105.56
 148	1	6	0.147112	73.8998	-21.7473	102.21
 149	1	3	0.014571	71.0418	-20.0871	103.085
 150	1	6	0.127309	70.8925	-18.7885	104.83
 151	1	6	0.132317	71.6027	-21.399	101.456
 152	1	7	0.14442	75.1897	-20.6547	104.465
 153	1	3	-0.008293	75.2222	-20.6886	106.01
 154	1	7	-0.149636	76.0068	-19.4818	103.861
 155	1	7	-0.207624	75.8427	-21.9738	103.968
 156	1	3	-0.056733	76.0442	-19.8385	106.782
 157	1	3	-0.427248	76.0114	-19.8872	108.186
 158	1	3	0.300563	75.1597	-20.7794	108.87
 159	1	3	-0.034917	74.3873	-21.5974	106.692
 160	1	3	-0.460652	74.3519	-21.6374	108.096
 161	1	6	0.132306	76.7087	-19.1228	106.307
 162	1	6	0.20081	76.6413	-19.2041	108.751
 163	1	6	0.203835	73.6923	-22.3493	108.588
 164	1	6	0.127298	73.7458	-22.2683	106.125
 165	1	9	0.047033	76.8239	-22.1184	104.439
 166	1	9	0.065326	76.0028	-21.9663	102.883
 167	1	9	0.056928	75.2226	-22.8438	104.218
 168	1	9	0.032023	75.6444	-18.5147	104.233
 169	1	9	0.058797	75.9133	-19.4689	102.767
 170	1	9	0.03359	77.0745	-19.5693	104.099
 171	1	1	0.469872	57.1619	-38.8426	79.3561
 172	1	2	0.06277	58.3404	-38.5445	78.6665
 173	1	3	0.008141	58.9117	-37.3613	79.3566
 174	1	2	0.04539	56.9415	-37.9754	80.4302
 175	1	3	0.033062	58.0808	-37.0235	80.4031
 176	1	5	-0.387649	58.8111	-39.091	77.6821
 177	1	5	-0.380594	56.019	-37.9643	81.2292
 178	1	3	0.006556	60.0537	-36.6141	79.049
 179	1	3	-0.023388	58.345	-35.912	81.2063
 180	1	3	-0.199879	59.4899	-35.142	80.9126
 181	1	3	-0.080819	60.3688	-35.479	79.8442
 182	1	6	0.152396	60.6458	-36.9156	78.1919
 183	1	6	0.149363	57.6689	-35.6432	82.015
 184	1	6	0.171749	59.6804	-34.2565	81.5155
 185	1	7	-0.126864	61.5726	-34.5425	79.5256
 186	1	7	0.414085	62.7199	-35.2483	78.7064
 187	1	8	-0.136036	63.0556	-36.4397	79.251
 188	1	8	-0.12675	63.8503	-34.5058	78.6899
 189	1	8	-0.136493	62.3968	-35.481	77.4146
 190	1	7	0.412463	60.984	-33.3574	78.6698
 191	1	8	-0.134035	60.2239	-33.8087	77.6457
 192	1	8	-0.126523	61.9352	-32.5684	78.1212
 193	1	8	-0.120355	60.1783	-32.5629	79.4108
 194	1	3	-0.02363	62.223	-34.0814	80.8647
 195	1	3	-0.07382	62.6353	-32.742	81.0984
 196	1	3	-0.058666	63.2456	-32.4212	82.3173
 197	1	3	-0.05367	62.4722	-35.0467	81.8813
 198	1	3	-0.161949	63.0885	-34.7019	83.1022
 199	1	3	-0.052731	63.4664	-33.3685	83.2929
 200	1	2	0.511278	64.1423	-32.7037	84.441
 201	1	1	-0.11022	64.2891	-31.3708	84.0737
 202	1	2	0.48346	63.7729	-31.1211	82.8076
 203	1	3	0.062835	64.9017	-30.3776	84.8907
 204	1	3	-0.214737	66.1154	-30.6406	85.5502
 205	1	3	-0.092253	66.7255	-29.6584	86.3498
 206	1	3	-0.160974	64.3071	-29.1131	85.049
 207	1	3	-0.148646	64.9177	-28.1306	85.8462
 208	1	3	0.041241	66.1414	-28.3811	86.5027
 209	1	6	0.160326	66.5888	-31.6142	85.4519
 210	1	6	0.154695	63.3709	-28.8833	84.5466
 211	1	6	0.134327	64.4367	-27.161	85.9491
 212	1	6	0.119951	67.6553	-29.9096	86.8489
 213	1	6	0.172628	63.2771	-35.4474	83.8726
 214	1	6	0.137279	62.1876	-36.0839	81.7217
 215	1	6	0.14105	62.5085	-31.9509	80.3672
 216	1	5	-0.471402	63.7441	-30.0647	82.2005
 217	1	5	-0.485833	64.4852	-33.2432	85.479
 218	1	7	0.140024	66.7679	-27.275	87.3817
 219	1	7	-0.178691	68.2513	-27.5525	87.75
 220	1	9	0.043413	68.8613	-27.7179	86.853
 221	1	9	0.047557	68.3502	-28.4303	88.4009
 222	1	9	0.063016	68.6795	-26.6969	88.2881
 223	1	7	-0.187892	65.9692	-27.2455	88.7128
 224	1	9	0.043685	66.4034	-26.5347	89.4273
 225	1	9	0.055699	65.9744	-28.2346	89.1887
 226	1	9	0.057684	64.9215	-26.9679	88.541
 227	1	3	-0.164758	66.2025	-24.7449	87.1731
 228	1	3	-0.151844	67.2653	-25.8668	85.3166
 229	1	3	-0.169902	67.259	-24.6695	84.5823
 230	1	3	0.006445	66.7263	-23.4849	85.1339
 231	1	3	-0.175352	66.1946	-23.5479	86.4378
 232	1	6	0.13478	67.6694	-24.6852	83.5784
 233	1	6	0.147112	65.7728	-22.6543	86.8912
 234	1	3	0.014571	66.7349	-25.9298	86.6208
 235	1	6	0.127309	67.682	-26.7608	84.8602
 236	1	6	0.132317	65.788	-24.7306	88.1754
 237	1	7	0.14442	66.6771	-22.1468	84.362
 238	1	3	-0.008293	67.2147	-21.0066	85.2555
 239	1	7	-0.149636	65.2028	-21.9358	83.922
 240	1	7	-0.207624	67.5409	-22.1537	83.0718
 241	1	3	-0.056733	68.4213	-21.1928	85.9612
 242	1	3	-0.427248	68.9602	-20.1683	86.7589
 243	1	3	0.300563	68.3158	-18.9198	86.8751
 244	1	3	-0.034917	66.5681	-19.7569	85.3688
 245	1	3	-0.460652	67.1082	-18.7363	86.1705
 246	1	6	0.132306	68.947	-22.1429	85.8878
 247	1	6	0.20081	69.8877	-20.3499	87.2972
 248	1	6	0.203835	66.5945	-17.7789	86.2205
 249	1	6	0.127298	65.648	-19.5551	84.8291
 250	1	9	0.047033	67.5357	-21.1634	82.5983
 251	1	9	0.065326	67.1592	-22.8708	82.3342
 252	1	9	0.056928	68.5849	-22.408	83.2946
 253	1	9	0.032023	64.545	-21.7937	84.7888
 254	1	9	0.058797	64.8377	-22.8114	83.3697
 255	1	9	0.03359	65.0971	-21.0661	83.2612
 256	1	1	0.469872	47.2358	-44.4259	59.5813
 257	1	2	0.06277	47.781	-43.6757	60.6303
 258	1	3	0.008141	49.1991	-44.1021	60.727
 259	1	2	0.04539	48.1825	-45.2755	58.9967
 260	1	3	0.033062	49.4389	-45.0436	59.7513
 261	1	5	-0.387649	47.2448	-42.8391	61.3388
 262	1	5	-0.380594	48.0369	-46.0855	58.0954
 263	1	3	0.006556	50.1961	-43.7039	61.6233
 264	1	3	-0.023388	50.6996	-45.6249	59.6
 265	1	3	-0.199879	51.723	-45.234	60.4891
 266	1	3	-0.080819	51.4876	-44.287	61.5275
 267	1	6	0.152396	49.9589	-42.9649	62.3848
 268	1	6	0.149363	50.8763	-46.3591	58.8169
 269	1	6	0.171749	52.6982	-45.6893	60.3509
 270	1	7	-0.126864	52.5848	-43.8494	62.5438
 271	1	7	0.414085	53.8272	-44.8188	62.6059
 272	1	8	-0.136036	53.4514	-46.1092	62.7584
 273	1	8	-0.12675	54.6261	-44.5383	63.6606
 274	1	8	-0.136493	54.6087	-44.7611	61.504
 275	1	7	0.412463	53.0752	-42.423	62.0854
 276	1	8	-0.134035	53.3882	-42.4048	60.7697
 277	1	8	-0.126523	54.1717	-41.9923	62.7486
 278	1	8	-0.120355	52.1153	-41.4857	62.2547
 279	1	3	-0.02363	51.9506	-43.8711	63.9658
 280	1	3	-0.07382	52.1628	-42.8444	64.925
 281	1	3	-0.058666	51.5721	-42.9662	66.1902
 282	1	3	-0.05367	51.1594	-44.9928	64.345
 283	1	3	-0.161949	50.5758	-45.0954	65.6233
 284	1	3	-0.052731	50.8014	-44.0563	66.5306
 285	1	2	0.511278	50.3416	-43.8836	67.9344
 286	1	1	-0.11022	50.8777	-42.6748	68.3635
 287	1	2	0.48346	51.6296	-42.0594	67.3678
 288	1	3	0.062835	50.6698	-42.1311	69.6652
 289	1	3	-0.214737	50.7512	-42.9497	70.806
 290	1	3	-0.092253	50.5058	-42.4232	72.0854
 291	1	3	-0.160974	50.3497	-40.7721	69.834
 292	1	3	-0.148646	50.113	-40.2426	71.1145
 293	1	3	0.041241	50.1939	-41.0583	72.2653
 294	1	6	0.160326	50.9843	-44.0067	70.7052
 295	1	6	0.154695	50.2758	-40.1188	68.9683
 296	1	6	0.134327	49.8508	-39.1933	71.1949
 297	1	6	0.119951	50.549	-43.0907	72.9422
 298	1	6	0.172628	49.9749	-45.9576	65.9066
 299	1	6	0.137279	50.9978	-45.8048	63.64
 300	1	6	0.14105	52.772	-41.9694	64.7234
 301	1	5	-0.471402	52.2193	-40.9941	67.4176
 302	1	5	-0.485833	49.6362	-44.6614	68.5539
 303	1	7	0.140024	49.8726	-40.5175	73.6773
 304	1	7	-0.178691	48.3555	-40.7457	73.9127
 305	1	9	0.043413	48.1082	-41.8148	73.8888
 306	1	9	0.047557	47.7622	-40.2548	73.1305
 307	1	9	0.063016	48.0333	-40.3344	74.8777
 308	1	7	-0.187892	50.1265	-38.989	73.8055
 309	1	9	0.043685	51.1365	-38.7223	73.4697
 310	1	9	0.055699	50.0283	-38.6695	74.8512
 311	1	9	0.057684	49.407	-38.4038	73.2202
 312	1	3	-0.164758	50.2385	-41.9067	75.8482
 313	1	3	-0.151844	52.1637	-41.1457	74.6039
 314	1	3	-0.169902	53.0111	-41.744	75.5498
 315	1	3	0.006445	52.4905	-42.4277	76.6668
 316	1	3	-0.175352	51.0871	-42.5069	76.7944
 317	1	6	0.13478	54.0871	-41.664	75.4175
 318	1	6	0.147112	50.6316	-43.0281	77.6296
 319	1	3	0.014571	50.7623	-41.211	74.7362
 320	1	6	0.127309	52.6037	-40.6225	73.7589
 321	1	6	0.132317	49.1681	-41.992	76.0013
 322	1	7	0.14442	53.4673	-43.047	77.6925
 323	1	3	-0.008293	54.4747	-41.9672	78.1448
 324	1	7	-0.149636	54.1409	-44.2674	77.0075
 325	1	7	-0.207624	52.7618	-43.5791	78.9692
 326	1	3	-0.056733	55.8676	-42.1905	78.201
 327	1	3	-0.427248	56.7437	-41.1688	78.609
 328	1	3	0.300563	56.2641	-39.8942	78.9764
 329	1	3	-0.034917	53.9919	-40.7009	78.5333
 330	1	3	-0.460652	54.871	-39.6819	78.9372
 331	1	6	0.132306	56.2897	-43.1513	77.9227
 332	1	6	0.20081	57.8136	-41.3641	78.6179
 333	1	6	0.203835	54.4619	-38.7163	79.2258
 334	1	6	0.127298	52.9222	-40.5022	78.5125
 335	1	9	0.047033	52.1871	-42.7877	79.4669
 336	1	9	0.065326	53.5002	-43.9528	79.69
 337	1	9	0.056928	52.0809	-44.4076	78.7366
 338	1	9	0.032023	54.779	-44.8224	77.7068
 339	1	9	0.058797	54.7549	-43.9565	76.153
 340	1	9	0.03359	53.3818	-44.966	76.6323
 341	1	1	0.469872	25.0299	-49.2469	47.9274
 342	1	2	0.06277	25.0826	-49.9647	49.1247
 343	1	3	0.008141	26.5213	-50.0383	49.4752
 344	1	2	0.04539	26.2946	-48.8339	47.4982
 345	1	3	0.033062	27.2421	-49.3677	48.5107
 346	1	5	-0.387649	24.1712	-50.4883	49.7447
 347	1	5	-0.380594	26.5948	-48.2037	46.4971
 348	1	3	0.006556	27.144	-50.7081	50.5327
 349	1	3	-0.023388	28.638	-49.3281	48.551
 350	1	3	-0.199879	29.2884	-50.0008	49.6075
 351	1	3	-0.080819	28.5617	-50.6913	50.6189
 352	1	6	0.152396	26.5179	-51.2491	51.2336
 353	1	6	0.149363	29.1976	-48.8182	47.7699
 354	1	6	0.171749	30.3764	-50.0058	49.6193
 355	1	7	-0.126864	29.3351	-51.4941	51.7066
 356	1	7	0.414085	28.4992	-51.7334	53.0226
 357	1	8	-0.136036	27.9092	-50.5937	53.4488
 358	1	8	-0.12675	29.2818	-52.1607	54.0397
 359	1	8	-0.136493	27.5201	-52.6549	52.8834
 360	1	7	0.412463	29.6775	-52.8872	51.0549
 361	1	8	-0.134035	30.1625	-53.7861	51.9407
 362	1	8	-0.126523	30.5901	-52.7594	50.0648
 363	1	8	-0.120355	28.5899	-53.458	50.4876
 364	1	3	-0.02363	30.5924	-50.6831	52.1418
 365	1	3	-0.07382	31.8701	-51.2794	52.3161
 366	1	3	-0.058666	32.9327	-50.489	52.7697
 367	1	3	-0.05367	30.4501	-49.2998	52.4475
 368	1	3	-0.161949	31.5334	-48.5225	52.9076
 369	1	3	-0.052731	32.7728	-49.1522	53.0638
 370	1	2	0.511278	34.0756	-48.6269	53.558
 371	1	1	-0.11022	34.9515	-49.7043	53.5259
 372	1	2	0.48346	34.3427	-50.8606	53.0563
 373	1	3	0.062835	36.309	-49.6417	53.9441
 374	1	3	-0.214737	36.6437	-49.1186	55.2043
 375	1	3	-0.092253	37.983	-49.0857	55.6285
 376	1	3	-0.160974	37.3344	-50.1289	53.1158
 377	1	3	-0.148646	38.6748	-50.0896	53.5368
 378	1	3	0.041241	39.0232	-49.5589	54.7995
 379	1	6	0.160326	35.8655	-48.7384	55.8611
 380	1	6	0.154695	37.0916	-50.5554	52.1457
 381	1	6	0.134327	39.4316	-50.4905	52.8713
 382	1	6	0.119951	38.2145	-48.6868	56.6129
 383	1	6	0.172628	31.4124	-47.4685	53.1512
 384	1	6	0.137279	29.48	-48.8208	52.3391
 385	1	6	0.14105	32.06	-52.3311	52.1307
 386	1	5	-0.471402	34.8397	-51.9622	52.9002
 387	1	5	-0.485833	34.2993	-47.4857	53.9229
 388	1	7	0.140024	40.4801	-49.5324	55.3175
 389	1	7	-0.178691	41.5302	-49.7057	54.187
 390	1	9	0.043413	41.3883	-48.9573	53.397
 391	1	9	0.047557	41.4792	-50.7035	53.7336
 392	1	9	0.063016	42.546	-49.58	54.5837
 393	1	7	-0.187892	40.6338	-50.7434	56.2774
 394	1	9	0.043685	40.0092	-50.6212	57.1716
 395	1	9	0.055699	41.6747	-50.8783	56.597
 396	1	9	0.057684	40.3228	-51.6718	55.781
 397	1	3	-0.164758	41.4686	-48.0811	57.2291
 398	1	3	-0.151844	40.3962	-46.9783	55.367
 399	1	3	-0.169902	40.6608	-45.727	55.9496
 400	1	3	0.006445	41.343	-45.6314	57.1813
 401	1	3	-0.175352	41.7378	-46.8306	57.8085
 402	1	6	0.13478	40.3233	-44.8379	55.4278
 403	1	6	0.147112	42.2643	-46.7962	58.7588
 404	1	3	0.014571	40.7826	-48.1779	55.9997
 405	1	6	0.127309	39.8751	-47.0139	54.4137
 406	1	6	0.132317	41.8062	-48.9688	57.7528
 407	1	7	0.14442	41.641	-44.2837	57.8754
 408	1	3	-0.008293	43.1081	-44.2823	58.3627
 409	1	7	-0.149636	40.6111	-44.1229	59.0263
 410	1	7	-0.207624	41.4522	-43.0566	56.9398
 411	1	3	-0.056733	44.1419	-44.4446	57.4193
 412	1	3	-0.427248	45.4901	-44.4696	57.8156
 413	1	3	0.300563	45.8586	-44.3595	59.173
 414	1	3	-0.034917	43.4701	-44.155	59.7213
 415	1	3	-0.460652	44.8189	-44.2044	60.1156
 416	1	6	0.132306	43.8955	-44.5651	56.3666
 417	1	6	0.20081	46.2546	-44.6044	57.0539
 418	1	6	0.203835	45.0566	-44.1087	61.1726
 419	1	6	0.127298	42.7149	-44.0266	60.4907
 420	1	9	0.047033	42.0436	-43.1532	56.0211
 421	1	9	0.065326	41.7708	-42.1356	57.4448
 422	1	9	0.056928	40.4008	-42.9259	56.6542
 423	1	9	0.032023	40.7491	-43.1726	59.5579
 424	1	9	0.058797	40.6917	-44.942	59.7518
 425	1	9	0.03359	39.5863	-44.1369	58.6331
 426	1	1	0.469872	2.8145	-56.2198	37.7097
 427	1	2	0.06277	4.06151	-56.2895	37.0823
 428	1	3	0.008141	5.05871	-56.2307	38.1806
 429	1	2	0.04539	2.92452	-56.1042	39.0982
 430	1	3	0.033062	4.38279	-56.123	39.377
 431	1	5	-0.387649	4.31521	-56.3848	35.8924
 432	1	5	-0.380594	2.0374	-56.0364	39.9335
 433	1	3	0.006556	6.45483	-56.3072	38.1253
 434	1	3	-0.023388	5.06717	-56.0921	40.5939
 435	1	3	-0.199879	6.47506	-56.1727	40.5622
 436	1	3	-0.080819	7.19584	-56.2683	39.3381
 437	1	6	0.152396	6.92114	-56.4165	37.1524
 438	1	6	0.149363	4.5207	-56.0295	41.5325
 439	1	6	0.171749	7.01022	-56.179	41.5095
 440	1	7	-0.126864	8.74714	-56.419	39.3823
 441	1	7	0.414085	9.02626	-57.9336	39.7179
 442	1	8	-0.136036	8.69103	-58.2286	40.9945
 443	1	8	-0.12675	10.3183	-58.294	39.5488
 444	1	8	-0.136493	8.29503	-58.7598	38.9351
 445	1	7	0.412463	9.45414	-56.0538	38.0224
 446	1	8	-0.134035	9.02483	-54.8622	37.5484
 447	1	8	-0.126523	9.24991	-56.9683	37.0477
 448	1	8	-0.120355	10.7943	-55.9422	38.1678
 449	1	3	-0.02363	9.32401	-55.4317	40.441
 450	1	3	-0.07382	10.3947	-55.7786	41.3084
 451	1	3	-0.058666	10.8883	-54.8162	42.1983
 452	1	3	-0.05367	8.81591	-54.1028	40.5008
 453	1	3	-0.161949	9.32252	-53.1511	41.41
 454	1	3	-0.052731	10.3664	-53.5418	42.2552
 455	1	2	0.511278	11.1233	-52.7752	43.2833
 456	1	1	-0.11022	12.078	-53.6529	43.7792
 457	1	2	0.48346	12.0014	-54.9036	43.1803
 458	1	3	0.062835	13.0361	-53.3052	44.7706
 459	1	3	-0.214737	14.4021	-53.5528	44.5557
 460	1	3	-0.092253	15.3504	-53.2011	45.5299
 461	1	3	-0.160974	12.6351	-52.7028	45.9758
 462	1	3	-0.148646	13.5837	-52.3568	46.9546
 463	1	3	0.041241	14.9604	-52.5989	46.7448
 464	1	6	0.160326	14.7338	-54.0219	43.6329
 465	1	6	0.154695	11.583	-52.4954	46.1539
 466	1	6	0.134327	13.2306	-51.8951	47.8704
 467	1	6	0.119951	16.4019	-53.3968	45.3368
 468	1	6	0.172628	8.93009	-52.1365	41.4465
 469	1	6	0.137279	8.01908	-53.7984	39.8264
 470	1	6	0.14105	10.8616	-56.7577	41.3023
 471	1	5	-0.471402	12.6986	-55.8809	43.389
 472	1	5	-0.485833	10.928	-51.6158	43.605
 473	1	7	0.140024	16.0495	-52.2321	47.7767
 474	1	7	-0.178691	16.6411	-53.557	48.3337
 475	1	9	0.043413	17.399	-53.3638	49.1038
 476	1	9	0.047557	17.1043	-54.1584	47.5417
 477	1	9	0.063016	15.8533	-54.1694	48.7909
 478	1	7	-0.187892	15.5016	-51.4539	49.0058
 479	1	9	0.043685	14.7924	-52.0617	49.5821
 480	1	9	0.055699	14.9941	-50.5287	48.7063
 481	1	9	0.057684	16.3213	-51.1746	49.6803
 482	1	3	-0.164758	16.6783	-50.1345	46.4752
 483	1	3	-0.151844	18.4673	-51.6686	47.0016
 484	1	3	-0.169902	19.3773	-50.8236	46.3453
 485	1	3	0.006445	18.9634	-49.6031	45.7698
 486	1	3	-0.175352	17.591	-49.2827	45.8315
 487	1	6	0.13478	20.4196	-51.127	46.2929
 488	1	6	0.147112	17.2111	-48.3763	45.3727
 489	1	3	0.014571	17.0985	-51.3354	47.0818
 490	1	6	0.127309	18.848	-52.5854	47.4389
 491	1	6	0.132317	15.627	-49.8592	46.4958
 492	1	7	0.14442	19.9861	-48.6938	45.0482
 493	1	3	-0.008293	21.3566	-48.774	45.7593
 494	1	7	-0.149636	19.5604	-47.1994	45.0486
 495	1	7	-0.207624	20.0363	-49.1571	43.568
 496	1	3	-0.056733	21.4243	-48.5075	47.1421
 497	1	3	-0.427248	22.6331	-48.6353	47.8466
 498	1	3	0.300563	23.8179	-49.0321	47.1942
 499	1	3	-0.034917	22.5492	-49.1363	45.0956
 500	1	3	-0.460652	23.7561	-49.2664	45.805
 501	1	6	0.132306	20.5199	-48.2343	47.682
 502	1	6	0.20081	22.6384	-48.4641	48.9206
 503	1	6	0.203835	24.6549	-49.5609	45.2678
 504	1	6	0.127298	22.5552	-49.3406	44.0293
 505	1	9	0.047033	20.6975	-48.5189	42.9681
 506	1	9	0.065326	19.0372	-49.1152	43.1153
 507	1	9	0.056928	20.3862	-50.1945	43.4918
 508	1	9	0.032023	19.3243	-46.8519	46.0622
 509	1	9	0.058797	18.6822	-47.0249	44.4153
 510	1	9	0.03359	20.3695	-46.5681	44.6589
 511	1	1	0.469872	-15.2544	-47.4537	21.2858
 512	1	2	0.06277	-14.6856	-48.7219	21.1566
 513	1	3	0.008141	-13.9453	-48.9497	22.4208
 514	1	2	0.04539	-14.9284	-46.8425	22.4988
 515	1	3	0.033062	-14.0946	-47.8379	23.2221
 516	1	5	-0.387649	-14.7704	-49.5075	20.2268
 517	1	5	-0.380594	-15.2649	-45.746	22.9154
 518	1	3	0.006556	-13.2307	-50.0757	22.8406
 519	1	3	-0.023388	-13.5469	-47.7975	24.5067
 520	1	3	-0.199879	-12.829	-48.927	24.9551
 521	1	3	-0.080819	-12.6392	-50.0741	24.1324
 522	1	6	0.152396	-13.173	-50.9222	22.1657
 523	1	6	0.149363	-13.6936	-46.9266	25.1418
 524	1	6	0.171749	-12.4255	-48.9115	25.9656
 525	1	7	-0.126864	-11.8749	-51.3073	24.7043
 526	1	7	0.414085	-12.9144	-52.0863	25.5963
 527	1	8	-0.136036	-12.4955	-53.3185	25.9618
 528	1	8	-0.12675	-14.0911	-52.2611	24.952
 529	1	8	-0.136493	-13.2006	-51.4061	26.7296
 530	1	7	0.412463	-11.3195	-52.2744	23.5914
 531	1	8	-0.134035	-10.4469	-53.1751	24.0983
 532	1	8	-0.126523	-10.6459	-51.5909	22.6382
 533	1	8	-0.120355	-12.2841	-52.9873	22.9675
 534	1	3	-0.02363	-10.6277	-50.8121	25.4951
 535	1	3	-0.07382	-10.1943	-51.4272	26.7003
 536	1	3	-0.058666	-9.03899	-50.9483	27.3302
 537	1	3	-0.05367	-9.84219	-49.7507	24.9622
 538	1	3	-0.161949	-8.68885	-49.2755	25.6189
 539	1	3	-0.052731	-8.31173	-49.898	26.8131
 540	1	2	0.511278	-7.15908	-49.6411	27.7181
 541	1	1	-0.11022	-7.26645	-50.5768	28.7384
 542	1	2	0.48346	-8.36831	-51.4061	28.5761
 543	1	3	0.062835	-6.3576	-50.6662	29.8272
 544	1	3	-0.214737	-5.76292	-51.8932	30.1658
 545	1	3	-0.092253	-4.8473	-51.9743	31.2294
 546	1	3	-0.160974	-6.0255	-49.5216	30.5702
 547	1	3	-0.148646	-5.11624	-49.6037	31.6374
 548	1	3	0.041241	-4.51663	-50.8318	31.9939
 549	1	6	0.160326	-6.00626	-52.7901	29.6014
 550	1	6	0.154695	-6.46127	-48.5599	30.311
 551	1	6	0.134327	-4.86539	-48.6953	32.1755
 552	1	6	0.119951	-4.39471	-52.9381	31.4438
 553	1	6	0.172628	-8.09779	-48.4588	25.2086
 554	1	6	0.137279	-10.128	-49.2849	24.0223
 555	1	6	0.14105	-10.7146	-52.2649	27.1522
 556	1	5	-0.471402	-8.73337	-52.3203	29.2942
 557	1	5	-0.485833	-6.31883	-48.7687	27.5807
 558	1	7	0.140024	-3.48545	-50.8849	33.1446
 559	1	7	-0.178691	-4.0173	-50.127	34.3961
 560	1	9	0.043413	-3.36245	-50.3001	35.26
 561	1	9	0.047557	-5.02791	-50.4556	34.6669
 562	1	9	0.063016	-4.05928	-49.0435	34.2349
 563	1	7	-0.187892	-2.21469	-50.1231	32.675
 564	1	9	0.043685	-2.43326	-49.0671	32.4729
 565	1	9	0.055699	-1.81841	-50.5523	31.746
 566	1	9	0.057684	-1.42796	-50.1553	33.4397
 567	1	3	-0.164758	-1.92858	-52.9626	33.3061
 568	1	3	-0.151844	-4.15347	-53.109	34.2311
 569	1	3	-0.169902	-3.89768	-54.4252	34.6509
 570	1	3	0.006445	-2.64303	-55.0273	34.4199
 571	1	3	-0.175352	-1.67415	-54.2787	33.7233
 572	1	6	0.13478	-4.69047	-54.9632	35.1596
 573	1	6	0.147112	-0.702255	-54.7179	33.5126
 574	1	3	0.014571	-3.17019	-52.3426	33.5693
 575	1	6	0.127309	-5.1352	-52.6853	34.4209
 576	1	6	0.132317	-1.13771	-52.4385	32.7809
 577	1	7	0.14442	-2.29383	-56.4576	34.888
 578	1	3	-0.008293	-0.92969	-56.4287	35.6131
 579	1	7	-0.149636	-2.30446	-57.3707	33.6323
 580	1	7	-0.207624	-3.33082	-57.0455	35.8833
 581	1	3	-0.056733	0.128436	-57.3091	35.2996
 582	1	3	-0.427248	1.35238	-57.2358	35.9881
 583	1	3	0.300563	1.56502	-56.2861	37.0093
 584	1	3	-0.034917	-0.721931	-55.4847	36.6396
 585	1	3	-0.460652	0.504286	-55.4119	37.3221
 586	1	6	0.132306	0.0197796	-58.0562	34.5193
 587	1	6	0.20081	2.15269	-57.9197	35.7147
 588	1	6	0.203835	0.623951	-54.6765	38.1142
 589	1	6	0.127298	-1.52127	-54.7969	36.908
 590	1	9	0.047033	-3.46393	-56.3917	36.7546
 591	1	9	0.065326	-2.99849	-58.0241	36.2529
 592	1	9	0.056928	-4.30928	-57.1891	35.4079
 593	1	9	0.032023	-3.27144	-57.3067	33.1167
 594	1	9	0.058797	-2.14426	-58.423	33.8994
 595	1	9	0.03359	-1.5281	-57.0737	32.9159
 596	1	1	0.469872	-29.643	-48.6428	4.19661
 597	1	2	0.06277	-28.3529	-48.1308	4.03112
 598	1	3	0.008141	-28.3932	-46.7696	4.62074
 599	1	2	0.04539	-30.4907	-47.7478	4.85434
 600	1	3	0.033062	-29.6624	-46.5424	5.10709
 601	1	5	-0.387649	-27.383	-48.6519	3.50471
 602	1	5	-0.380594	-31.6713	-47.8776	5.13535
 603	1	3	0.006556	-27.3964	-45.7908	4.68386
 604	1	3	-0.023388	-30.0081	-45.3183	5.68272
 605	1	3	-0.199879	-29.0202	-44.3134	5.75139
 606	1	3	-0.080819	-27.6998	-44.5293	5.26091
 607	1	6	0.152396	-26.4138	-46.0088	4.2727
 608	1	6	0.149363	-31.0191	-45.1479	6.04641
 609	1	6	0.171749	-29.3149	-43.3613	6.18017
 610	1	7	-0.126864	-26.6006	-43.4254	5.2692
 611	1	7	0.414085	-26.9074	-42.2204	6.23889
 612	1	8	-0.136036	-25.8288	-41.419	6.39444
 613	1	8	-0.12675	-27.2368	-42.6441	7.48023
 614	1	8	-0.136493	-27.9154	-41.4293	5.80744
 615	1	7	0.412463	-26.5111	-42.8792	3.79243
 616	1	8	-0.134035	-25.7598	-41.7612	3.67475
 617	1	8	-0.126523	-27.7332	-42.5743	3.2998
 618	1	8	-0.120355	-25.9867	-43.7979	2.94976
 619	1	3	-0.02363	-25.279	-44.0642	5.78517
 620	1	3	-0.07382	-25.3301	-44.8947	6.93462
 621	1	3	-0.058666	-24.1408	-45.4232	7.44898
 622	1	3	-0.05367	-24.0058	-43.7956	5.20353
 623	1	3	-0.161949	-22.8201	-44.3416	5.73682
 624	1	3	-0.052731	-22.9202	-45.1553	6.86965
 625	1	2	0.511278	-21.8649	-45.8188	7.68103
 626	1	1	-0.11022	-22.5322	-46.4481	8.72554
 627	1	2	0.48346	-23.908	-46.2669	8.64972
 628	1	3	0.062835	-21.8822	-47.1591	9.77324
 629	1	3	-0.214737	-20.7499	-46.6166	10.4041
 630	1	3	-0.092253	-20.1141	-47.3095	11.4462
 631	1	3	-0.160974	-22.3648	-48.4078	10.2042
 632	1	3	-0.148646	-21.7324	-49.0993	11.2525
 633	1	3	0.041241	-20.6001	-48.5546	11.8984
 634	1	6	0.160326	-20.352	-45.656	10.0863
 635	1	6	0.154695	-23.2409	-48.8439	9.731
 636	1	6	0.134327	-22.1375	-50.0598	11.5525
 637	1	6	0.119951	-19.2357	-46.8681	11.9099
 638	1	6	0.172628	-21.8482	-44.1223	5.29822
 639	1	6	0.137279	-23.9072	-43.1452	4.34189
 640	1	6	0.14105	-26.2696	-45.1087	7.43946
 641	1	5	-0.471402	-24.7662	-46.6801	9.41028
 642	1	5	-0.485833	-20.6652	-45.7725	7.46904
 643	1	7	0.140024	-19.8648	-49.2744	13.0498
 644	1	7	-0.178691	-18.5974	-49.9347	12.4432
 645	1	9	0.043413	-18.0377	-50.4981	13.2009
 646	1	9	0.047557	-17.9278	-49.1841	12.0046
 647	1	9	0.063016	-18.8713	-50.6354	11.6439
 648	1	7	-0.187892	-20.7002	-50.4163	13.6931
 649	1	9	0.043685	-20.1795	-50.8279	14.5675