pySIMM System Object

2977 atoms
3221 bonds
5670 angles
8746 dihedrals
980 impropers

9 atom types
11 bond types
18 angle types
8 dihedral types
4 improper types

-219.859985 219.859985 xlo xhi
-219.859985 219.859985 ylo yhi
-219.859985 219.859985 zlo zhi

Masses

   1	14.01	# n
   2	12.01	# c
   3	12.01	# ca
   4	1.008	# hn
   5	16.0	# o
   6	1.008	# ha
   7	12.01	# c3
   8	19.0	# f
   9	1.008	# hc

Pair Coeffs

   1	0.17	3.249998523775958	# n
   2	0.086	3.3996695084235347	# c
   3	0.086	3.3996695084235347	# ca
   4	0.0157	1.069078461768407	# hn
   5	0.21	2.959921901149463	# o
   6	0.015	2.59964245953351	# ha
   7	0.1094	3.3996695084235347	# c3
   8	0.061	3.1181455134911875	# f
   9	0.0157	2.649532787749369	# hc

Bond Coeffs

   1	345.8	1.086	# ca,ha
   2	384.2	1.4121	# ca,n
   3	637.7	1.2183	# c,o
   4	321.0	1.5156	# c3,ca
   5	461.1	1.3984	# ca,ca
   6	300.9	1.5375	# c3,c3
   7	330.6	1.0969	# c3,hc
   8	403.2	1.0129	# hn,n
   9	356.9	1.3497	# c3,f
  10	427.6	1.3789	# c,n
  11	345.9	1.4906	# c,ca

Angle Coeffs

   1	48.33	117.55	# c,n,hn
   2	74.22	123.05	# n,c,o
   3	64.28	120.33	# c,ca,ca
   4	70.89	107.36	# f,c3,f
   5	66.11	109.24	# c3,c3,f
   6	67.87	120.19	# ca,ca,n
   7	39.4	107.58	# hc,c3,hc
   8	63.53	120.77	# c3,ca,ca
   9	66.62	120.02	# ca,ca,ca
  10	63.82	123.71	# c,n,ca
  11	62.86	111.51	# c3,c3,c3
  12	46.34	109.8	# c3,c3,hc
  13	63.74	127.08	# c,n,c
  14	48.18	119.88	# ca,ca,ha
  15	68.72	122.6	# ca,c,o
  16	63.56	112.24	# ca,c3,ca
  17	63.15	112.07	# c3,c3,ca
  18	67.68	115.25	# ca,c,n

Dihedral Coeffs

   1	2	2.5	2	180	2.0	1	0	# hn,n,c,o
   2	1	3.625	2	180	# X,ca,ca,X
   3	1	0.16	3	0	# hc,c3,c3,c3
   4	1	1.0	2	180	# X,c,ca,X
   5	1	0.15555555555555556	3	0	# X,c3,c3,X
   6	1	0.0	2	0	# X,c3,ca,X
   7	1	2.5	2	180	# X,c,n,X
   8	1	0.45	2	180	# X,ca,n,X

Improper Coeffs

   1	10.5	-1	2	# c,X,X,o
   2	1.1	-1	2	# ca,X,X,ha
   3	1.1	-1	2	# ca,ca,ca,c3
   4	1.1	-1	2	# n,X,X,hn

Atoms

   1	1	1	0.469872	-65.9953	-96.6441	-32.9905
   2	1	2	0.06277	-66.016	-96.6516	-34.3871
   3	1	3	0.008141	-67.4219	-96.9547	-34.7572
   4	1	2	0.04539	-67.2443	-96.9323	-32.4365
   5	1	3	0.033062	-68.1517	-97.1126	-33.5979
   6	1	5	-0.387649	-65.1006	-96.4383	-35.1651
   7	1	5	-0.380594	-67.562	-96.9928	-31.2598
   8	1	3	0.006556	-68.0181	-97.0331	-36.0212
   9	1	3	-0.023388	-69.5289	-97.3394	-33.6358
  10	1	3	-0.199879	-70.1529	-97.4089	-34.8987
  11	1	3	-0.080819	-69.4153	-97.2792	-36.1103
  12	1	6	0.152396	-67.3949	-96.8699	-36.8939
  13	1	6	0.149363	-70.098	-97.429	-32.713
  14	1	6	0.171749	-71.2323	-97.5427	-34.927
  15	1	7	-0.126864	-70.1702	-97.295	-37.4734
  16	1	7	0.414085	-70.6326	-95.8111	-37.7308
  17	1	8	-0.136036	-71.1575	-95.6268	-38.9633
  18	1	8	-0.12675	-69.6092	-94.9345	-37.6128
  19	1	8	-0.136493	-71.5592	-95.4175	-36.8274
  20	1	7	0.412463	-69.2729	-97.7702	-38.6809
  21	1	8	-0.134035	-70.0217	-98.0728	-39.766
  22	1	8	-0.126523	-68.5751	-98.8866	-38.3731
  23	1	8	-0.120355	-68.3707	-96.8494	-39.0872
  24	1	3	-0.02363	-71.3523	-98.3097	-37.3856
  25	1	3	-0.07382	-72.679	-97.9908	-37.7837
  26	1	3	-0.058666	-73.6786	-98.9638	-37.6626
  27	1	3	-0.05367	-71.0971	-99.6248	-36.9021
  28	1	3	-0.161949	-72.1179	-100.592	-36.7947
  29	1	3	-0.052731	-73.4111	-100.227	-37.1831
  30	1	2	0.511278	-74.6868	-100.994	-37.1594
  31	1	1	-0.11022	-75.6637	-100.119	-37.6211
  32	1	2	0.48346	-75.1328	-98.8795	-37.9581
  33	1	3	0.062835	-77.0507	-100.435	-37.6957
  34	1	3	-0.214737	-77.81	-100.081	-38.8254
  35	1	3	-0.092253	-79.1856	-100.367	-38.8847
  36	1	3	-0.160974	-77.6911	-101.093	-36.6311
  37	1	3	-0.148646	-79.063	-101.386	-36.6932
  38	1	3	0.041241	-79.8389	-101.014	-37.8121
  39	1	6	0.160326	-77.3371	-99.5696	-39.6602
  40	1	6	0.154695	-77.1263	-101.384	-35.7491
  41	1	6	0.134327	-79.5275	-101.902	-35.8574
  42	1	6	0.119951	-79.7322	-100.076	-39.7753
  43	1	6	0.172628	-71.9145	-101.592	-36.4148
  44	1	6	0.137279	-70.0922	-99.8997	-36.5916
  45	1	6	0.14105	-72.9615	-97.018	-38.1716
  46	1	5	-0.471402	-75.7208	-97.8943	-38.369
  47	1	5	-0.485833	-74.8238	-102.141	-36.7693
  48	1	7	0.140024	-81.3447	-101.36	-37.8376
  49	1	7	-0.178691	-81.4653	-102.853	-38.2447
  50	1	9	0.043413	-81.0043	-103.026	-39.2257
  51	1	9	0.047557	-82.515	-103.166	-38.3114
  52	1	9	0.063016	-80.9535	-103.503	-37.524
  53	1	7	-0.187892	-82.1437	-100.543	-38.8918
  54	1	9	0.043685	-81.9893	-99.464	-38.7675
  55	1	9	0.055699	-83.2194	-100.738	-38.7928
  56	1	9	0.057684	-81.8573	-100.812	-39.9161
  57	1	3	-0.164758	-81.8584	-99.7469	-35.9327
  58	1	3	-0.151844	-82.5807	-102.034	-35.6487
  59	1	3	-0.169902	-83.0753	-101.714	-34.373
  60	1	3	0.006445	-82.9919	-100.402	-33.8608
  61	1	3	-0.175352	-82.3631	-99.4257	-34.662
  62	1	6	0.13478	-83.5214	-102.506	-33.7761
  63	1	6	0.147112	-82.2365	-98.4103	-34.3027
  64	1	3	0.014571	-81.9582	-101.053	-36.4514
  65	1	6	0.127309	-82.6767	-103.059	-35.9886
  66	1	6	0.132317	-81.3632	-98.9731	-36.5134
  67	1	7	0.14442	-83.495	-100.085	-32.433
  68	1	3	-0.008293	-84.728	-100.951	-32.0798
  69	1	7	-0.149636	-83.9321	-98.6023	-32.2763
  70	1	7	-0.207624	-82.2931	-100.313	-31.4776
  71	1	3	-0.056733	-85.8417	-100.943	-32.9481
  72	1	3	-0.427248	-86.9886	-101.704	-32.6608
  73	1	3	0.300563	-87.0501	-102.483	-31.4992
  74	1	3	-0.034917	-84.804	-101.741	-30.9088
  75	1	3	-0.460652	-85.9553	-102.498	-30.6267
  76	1	6	0.132306	-85.8115	-100.345	-33.8564
  77	1	6	0.20081	-87.836	-101.691	-33.3387
  78	1	6	0.203835	-86.0045	-103.1	-29.7246
  79	1	6	0.127298	-83.9792	-101.777	-30.204
  80	1	9	0.047033	-81.9783	-101.364	-31.4836
  81	1	9	0.065326	-82.5364	-100.025	-30.4472
  82	1	9	0.056928	-81.4303	-99.7109	-31.7916
  83	1	9	0.032023	-84.6489	-98.3144	-33.0556
  84	1	9	0.058797	-83.0783	-97.916	-32.327
  85	1	9	0.03359	-84.4149	-98.4434	-31.3034
  86	1	1	0.469872	-51.2275	-84.5442	-17.8781
  87	1	2	0.06277	-51.9409	-85.2242	-18.8711
  88	1	3	0.008141	-52.3572	-86.5062	-18.2496
  89	1	2	0.04539	-51.171	-85.2648	-16.6807
  90	1	3	0.033062	-51.9055	-86.5256	-16.9483
  91	1	5	-0.387649	-52.1934	-84.8726	-20.012
  92	1	5	-0.380594	-50.6116	-84.9757	-15.6351
  93	1	3	0.006556	-53.0481	-87.5895	-18.803
  94	1	3	-0.023388	-52.1267	-87.6279	-16.1209
  95	1	3	-0.199879	-52.8295	-88.7281	-16.6544
  96	1	3	-0.080819	-53.3077	-88.7296	-17.9968
  97	1	6	0.152396	-53.3584	-87.5446	-19.8442
  98	1	6	0.149363	-51.7474	-87.6354	-15.1012
  99	1	6	0.171749	-52.9695	-89.5853	-16.0046
 100	1	7	-0.126864	-54.0215	-89.9587	-18.6348
 101	1	7	0.414085	-52.9171	-90.7232	-19.4599
 102	1	8	-0.136036	-52.539	-90.0191	-20.5509
 103	1	8	-0.12675	-53.3105	-91.9443	-19.8864
 104	1	8	-0.136493	-51.7946	-90.9171	-18.7305
 105	1	7	0.412463	-54.6526	-90.9477	-17.5822
 106	1	8	-0.134035	-53.7335	-91.667	-16.8993
 107	1	8	-0.126523	-55.4771	-91.844	-18.1709
 108	1	8	-0.120355	-55.4036	-90.2896	-16.67
 109	1	3	-0.02363	-55.2078	-89.4486	-19.5052
 110	1	3	-0.07382	-55.5248	-90.0113	-20.77
 111	1	3	-0.058666	-56.6443	-89.5362	-21.4632
 112	1	3	-0.05367	-56.061	-88.4316	-18.9893
 113	1	3	-0.161949	-57.181	-87.9636	-19.7074
 114	1	3	-0.052731	-57.4493	-88.5407	-20.9532
 115	1	2	0.511278	-58.5659	-88.3108	-21.9114
 116	1	1	-0.11022	-58.3641	-89.2145	-22.9472
 117	1	2	0.48346	-57.2203	-89.9789	-22.7592
 118	1	3	0.062835	-59.2488	-89.376	-24.0488
 119	1	3	-0.214737	-59.6717	-88.2669	-24.8002
 120	1	3	-0.092253	-60.553	-88.433	-25.8832
 121	1	3	-0.160974	-59.731	-90.6511	-24.3901
 122	1	3	-0.148646	-60.6178	-90.8162	-25.4669
 123	1	3	0.041241	-61.0298	-89.7129	-26.2469
 124	1	6	0.160326	-59.3295	-87.2692	-24.5366
 125	1	6	0.154695	-59.4201	-91.5209	-23.8168
 126	1	6	0.134327	-60.9849	-91.8147	-25.6894
 127	1	6	0.119951	-60.8734	-87.5495	-26.4249
 128	1	6	0.172628	-57.8344	-87.1936	-19.3011
 129	1	6	0.137279	-55.8629	-88.0054	-18.0086
 130	1	6	0.14105	-54.9486	-90.8138	-21.2179
 131	1	5	-0.471402	-56.7818	-90.8639	-23.4731
 132	1	5	-0.485833	-59.4789	-87.5149	-21.7735
 133	1	7	0.140024	-62.0363	-89.9035	-27.4058
 134	1	7	-0.178691	-61.8332	-88.8603	-28.5404
 135	1	9	0.043413	-62.1137	-87.8483	-28.2246
 136	1	9	0.047557	-62.4571	-89.1109	-29.4082
 137	1	9	0.063016	-60.7893	-88.8349	-28.8765
 138	1	7	-0.187892	-63.4525	-89.6662	-26.8167
 139	1	9	0.043685	-64.2267	-89.7368	-27.5914
 140	1	9	0.055699	-63.5258	-88.6675	-26.3673
 141	1	9	0.057684	-63.6782	-90.3962	-26.0287
 142	1	3	-0.164758	-60.6218	-91.6804	-28.5739
 143	1	3	-0.151844	-62.9255	-92.2438	-28.1199
 144	1	3	-0.169902	-62.724	-93.51	-28.6934
 145	1	3	0.006445	-61.4741	-93.8826	-29.2286
 146	1	3	-0.175352	-60.4211	-92.9464	-29.1499
 147	1	6	0.13478	-63.5549	-94.2107	-28.7156
 148	1	6	0.147112	-59.4307	-93.1894	-29.5197
 149	1	3	0.014571	-61.8744	-91.3038	-28.047
 150	1	6	0.127309	-63.9111	-92.0159	-27.7288
 151	1	6	0.132317	-59.785	-90.989	-28.5193
 152	1	7	0.14442	-61.2848	-95.3009	-29.8131
 153	1	3	-0.008293	-62.5316	-95.698	-30.6374
 154	1	7	-0.149636	-61.0145	-96.2507	-28.6156
 155	1	7	-0.207624	-60.0553	-95.4067	-30.7582
 156	1	3	-0.056733	-63.3012	-96.8512	-30.3659
 157	1	3	-0.427248	-64.4341	-97.1598	-31.1403
 158	1	3	0.300563	-64.8333	-96.3362	-32.2124
 159	1	3	-0.034917	-62.9336	-94.8725	-31.7073
 160	1	3	-0.460652	-64.063	-95.1873	-32.4825
 161	1	6	0.132306	-63.0396	-97.5177	-29.5496
 162	1	6	0.20081	-65.0194	-98.0425	-30.8939
 163	1	6	0.203835	-64.3381	-94.5343	-33.3076
 164	1	6	0.127298	-62.3651	-93.9735	-31.9357
 165	1	9	0.047033	-60.0283	-96.3899	-31.2456
 166	1	9	0.065326	-59.1111	-95.2896	-30.2123
 167	1	9	0.056928	-60.09	-94.6456	-31.5477
 168	1	9	0.032023	-61.8656	-96.2688	-27.9229
 169	1	9	0.058797	-60.1376	-95.9153	-28.0469
 170	1	9	0.03359	-60.8177	-97.2764	-28.9529
 171	1	1	0.469872	-40.1768	-63.7203	-27.6233
 172	1	2	0.06277	-39.4743	-64.8976	-27.3497
 173	1	3	0.008141	-40.4622	-65.8105	-26.7222
 174	1	2	0.04539	-41.5165	-63.7999	-27.2307
 175	1	3	0.033062	-41.674	-65.1579	-26.6504
 176	1	5	-0.387649	-38.2996	-65.1543	-27.558
 177	1	5	-0.380594	-42.3987	-62.964	-27.3428
 178	1	3	0.006556	-40.2939	-67.1125	-26.2378
 179	1	3	-0.023388	-42.7928	-65.7715	-26.0826
 180	1	3	-0.199879	-42.6457	-67.0835	-25.5855
 181	1	3	-0.080819	-41.4079	-67.783	-25.6634
 182	1	6	0.152396	-39.3084	-67.5599	-26.3076
 183	1	6	0.149363	-43.7402	-65.2407	-26.0189
 184	1	6	0.171749	-43.5092	-67.5568	-25.1222
 185	1	7	-0.126864	-41.3054	-69.2123	-25.0498
 186	1	7	0.414085	-40.0844	-70.0467	-25.5944
 187	1	8	-0.136036	-40.0288	-70.0179	-26.9453
 188	1	8	-0.12675	-40.1756	-71.351	-25.2477
 189	1	8	-0.136493	-38.8889	-69.6111	-25.1375
 190	1	7	0.412463	-41.1363	-69.0078	-23.4962
 191	1	8	-0.134035	-40.174	-68.0994	-23.215
 192	1	8	-0.126523	-40.7976	-70.1393	-22.838
 193	1	8	-0.120355	-42.2717	-68.5391	-22.9302
 194	1	3	-0.02363	-42.5821	-70.0174	-25.4368
 195	1	3	-0.07382	-43.258	-70.8705	-24.5238
 196	1	3	-0.058666	-44.3805	-71.5834	-24.9633
 197	1	3	-0.05367	-43.0652	-69.9497	-26.7746
 198	1	3	-0.161949	-44.1991	-70.6751	-27.1955
 199	1	3	-0.052731	-44.8433	-71.4882	-26.2571
 200	1	2	0.511278	-46.0272	-72.3806	-26.3942
 201	1	1	-0.11022	-46.1999	-72.9755	-25.1491
 202	1	2	0.48346	-45.248	-72.5429	-24.2322
 203	1	3	0.062835	-47.209	-73.9379	-24.8526
 204	1	3	-0.214737	-47.4887	-74.9823	-25.7521
 205	1	3	-0.092253	-48.4551	-75.956	-25.4465
 206	1	3	-0.160974	-47.9247	-73.8809	-23.6432
 207	1	3	-0.148646	-48.8852	-74.8583	-23.3337
 208	1	3	0.041241	-49.1627	-75.9171	-24.224
 209	1	6	0.160326	-46.9525	-75.0479	-26.6955
 210	1	6	0.154695	-47.7228	-73.0903	-22.925
 211	1	6	0.134327	-49.402	-74.8069	-22.3788
 212	1	6	0.119951	-48.6302	-76.7447	-26.1704
 213	1	6	0.172628	-44.5602	-70.6186	-28.2208
 214	1	6	0.137279	-42.5512	-69.3275	-27.5033
 215	1	6	0.14105	-42.9356	-71.0054	-23.4969
 216	1	5	-0.471402	-45.1167	-72.8745	-23.0668
 217	1	5	-0.485833	-46.6854	-72.5424	-27.4074
 218	1	7	0.140024	-50.1906	-76.9964	-23.8096
 219	1	7	-0.178691	-50.3197	-78.1492	-24.8406
 220	1	9	0.043413	-49.3594	-78.6603	-24.9856
 221	1	9	0.047557	-50.6702	-77.7808	-25.8132
 222	1	9	0.063016	-51.04	-78.9004	-24.4919
 223	1	7	-0.187892	-51.5795	-76.3031	-23.7269
 224	1	9	0.043685	-52.3907	-77.0299	-23.5956
 225	1	9	0.055699	-51.7885	-75.7477	-24.6504
 226	1	9	0.057684	-51.6222	-75.5918	-22.8928
 227	1	3	-0.164758	-50.6921	-78.0335	-21.4886
 228	1	3	-0.151844	-48.3933	-77.8742	-22.2119
 229	1	3	-0.169902	-47.9677	-78.4499	-21.004
 230	1	3	0.006445	-48.8995	-78.8295	-20.0148
 231	1	3	-0.175352	-50.2667	-78.617	-20.2833
 232	1	6	0.13478	-46.9025	-78.5901	-20.8551
 233	1	6	0.147112	-51.0114	-78.9097	-19.5475
 234	1	3	0.014571	-49.7595	-77.6338	-22.469
 235	1	6	0.127309	-47.6433	-77.6055	-22.951
 236	1	6	0.132317	-51.757	-77.9018	-21.6475
 237	1	7	0.14442	-48.4844	-79.4463	-18.6605
 238	1	3	-0.008293	-49.2608	-80.7621	-18.4359
 239	1	7	-0.149636	-48.7571	-78.3761	-17.5681
 240	1	7	-0.207624	-46.9713	-79.7886	-18.5797
 241	1	3	-0.056733	-49.2592	-81.7405	-19.4503
 242	1	3	-0.427248	-49.9099	-82.9733	-19.2699
 243	1	3	0.300563	-50.5947	-83.2707	-18.0735
 244	1	3	-0.034917	-49.9483	-81.0528	-17.2381
 245	1	3	-0.460652	-50.6097	-82.2818	-17.0671
 246	1	6	0.132306	-48.7387	-81.5449	-20.3857
 247	1	6	0.20081	-49.8815	-83.7044	-20.0746
 248	1	6	0.203835	-51.1122	-82.4788	-16.1229
 249	1	6	0.127298	-49.9681	-80.3393	-16.4199
 250	1	9	0.047033	-46.7355	-80.2743	-17.6239
 251	1	9	0.065326	-46.3507	-78.8864	-18.6523
 252	1	9	0.056928	-46.6735	-80.477	-19.3806
 253	1	9	0.032023	-49.8278	-78.1514	-17.4847
 254	1	9	0.058797	-48.2414	-77.4383	-17.8124
 255	1	9	0.03359	-48.3959	-78.7022	-16.5844
 256	1	1	0.469872	-27.6864	-43.6453	-26.3024
 257	1	2	0.06277	-28.3487	-44.8114	-25.9025
 258	1	3	0.008141	-27.3855	-45.9139	-26.1415
 259	1	2	0.04539	-26.3897	-43.9074	-26.7602
 260	1	3	0.033062	-26.2212	-45.3772	-26.6439
 261	1	5	-0.387649	-29.4749	-44.9415	-25.4506
 262	1	5	-0.380594	-25.5616	-43.1319	-27.2101
 263	1	3	0.006556	-27.5359	-47.2902	-25.9492
 264	1	3	-0.023388	-25.1298	-46.1878	-26.9649
 265	1	3	-0.199879	-25.2582	-47.5806	-26.7782
 266	1	3	-0.080819	-26.4654	-48.1589	-26.2901
 267	1	6	0.152396	-28.4766	-47.6696	-25.5572
 268	1	6	0.149363	-24.2126	-45.7479	-27.3509
 269	1	6	0.171749	-24.3989	-48.1954	-27.026
 270	1	7	-0.126864	-26.6569	-49.6926	-26.0965
 271	1	7	0.414085	-25.611	-50.5764	-26.8777
 272	1	8	-0.136036	-25.5159	-50.212	-28.1767
 273	1	8	-0.12675	-25.967	-51.8812	-26.8819
 274	1	8	-0.136493	-24.3642	-50.5183	-26.3579
 275	1	7	0.412463	-26.5066	-49.9688	-24.5519
 276	1	8	-0.134035	-25.3791	-49.4112	-24.0548
 277	1	8	-0.126523	-26.4549	-51.2843	-24.2441
 278	1	8	-0.120355	-27.5292	-49.4347	-23.8463
 279	1	3	-0.02363	-28.0548	-50.0672	-26.6707
 280	1	3	-0.07382	-28.9618	-50.9299	-25.9991
 281	1	3	-0.058666	-30.2024	-51.2008	-26.5909
 282	1	3	-0.05367	-28.438	-49.5424	-27.9382
 283	1	3	-0.161949	-29.6915	-49.8279	-28.5147
 284	1	3	-0.052731	-30.5613	-50.6627	-27.8074
 285	1	2	0.511278	-31.9368	-51.1241	-28.1342
 286	1	1	-0.11022	-32.3307	-51.9256	-27.0684
 287	1	2	0.48346	-31.3355	-52.0299	-26.1025
 288	1	3	0.062835	-33.6148	-52.5345	-26.9631
 289	1	3	-0.214737	-34.2078	-53.1579	-28.075
 290	1	3	-0.092253	-35.492	-53.7195	-27.98
 291	1	3	-0.160974	-34.3305	-52.4928	-25.753
 292	1	3	-0.148646	-35.6111	-53.0633	-25.6546
 293	1	3	0.041241	-36.2122	-53.6949	-26.7656
 294	1	6	0.160326	-33.6848	-53.1912	-29.0275
 295	1	6	0.154695	-33.898	-52.0096	-24.8806
 296	1	6	0.134327	-36.1336	-52.9913	-24.7068
 297	1	6	0.119951	-35.9305	-54.1664	-28.8683
 298	1	6	0.172628	-29.9818	-49.4133	-29.4784
 299	1	6	0.137279	-27.7565	-48.895	-28.4849
 300	1	6	0.14105	-28.7385	-51.3863	-25.0404
 301	1	5	-0.471402	-31.3656	-52.6468	-25.0518
 302	1	5	-0.485833	-32.572	-50.8214	-29.1297
 303	1	7	0.140024	-37.6443	-54.2714	-26.7006
 304	1	7	-0.178691	-38.6138	-53.1227	-27.0883
 305	1	9	0.043413	-38.4004	-52.747	-28.0972
 306	1	9	0.047557	-38.5104	-52.2754	-26.3983
 307	1	9	0.063016	-39.6595	-53.4541	-27.0529
 308	1	7	-0.187892	-38.0417	-54.7275	-25.2676
 309	1	9	0.043685	-37.2862	-55.3937	-24.8332
 310	1	9	0.055699	-38.9953	-55.2708	-25.288
 311	1	9	0.057684	-38.1702	-53.8759	-24.5884
 312	1	3	-0.164758	-38.6139	-55.5393	-28.7547
 313	1	3	-0.151844	-36.9658	-56.6386	-27.3754
 314	1	3	-0.169902	-37.0177	-57.766	-28.2113
 315	1	3	0.006445	-37.8522	-57.7961	-29.3477
 316	1	3	-0.175352	-38.6573	-56.6628	-29.5969
 317	1	6	0.13478	-36.3967	-58.6244	-27.9708
 318	1	6	0.147112	-39.3275	-56.629	-30.449
 319	1	3	0.014571	-37.7612	-55.5033	-27.6301
 320	1	6	0.127309	-36.2881	-56.6448	-26.5259
 321	1	6	0.132317	-39.2482	-54.6955	-29.004
 322	1	7	0.14442	-37.8576	-59.0484	-30.2607
 323	1	3	-0.008293	-38.4316	-60.2797	-29.5245
 324	1	7	-0.149636	-36.3923	-59.2903	-30.7264
 325	1	7	-0.207624	-38.706	-58.8479	-31.5458
 326	1	3	-0.056733	-38.1619	-61.5857	-29.9853
 327	1	3	-0.427248	-38.7299	-62.7076	-29.3585
 328	1	3	0.300563	-39.5906	-62.5703	-28.2502
 329	1	3	-0.034917	-39.3072	-60.1376	-28.426
 330	1	3	-0.460652	-39.8662	-61.264	-27.7956
 331	1	6	0.132306	-37.5205	-61.742	-30.8475
 332	1	6	0.20081	-38.4923	-63.6985	-29.7382
 333	1	6	0.203835	-40.5446	-61.116	-26.9584
 334	1	6	0.127298	-39.5745	-59.1495	-28.0587
 335	1	9	0.047033	-39.7652	-58.6979	-31.3007
 336	1	9	0.065326	-38.6475	-59.729	-32.1972
 337	1	9	0.056928	-38.3536	-57.9848	-32.1249
 338	1	9	0.032023	-36.3333	-60.0166	-31.5457
 339	1	9	0.058797	-35.7672	-59.6641	-29.9064
 340	1	9	0.03359	-35.9448	-58.3569	-31.092
 341	1	1	0.469872	-26.6219	-20.2423	-24.1211
 342	1	2	0.06277	-27.0354	-20.0252	-25.438
 343	1	3	0.008141	-26.7852	-21.3097	-26.1437
 344	1	2	0.04539	-26.1486	-21.539	-23.9158
 345	1	3	0.033062	-26.2613	-22.2053	-25.2344
 346	1	5	-0.387649	-27.4881	-19.0081	-25.9372
 347	1	5	-0.380594	-25.725	-22.0466	-22.89
 348	1	3	0.006556	-26.9837	-21.6549	-27.4871
 349	1	3	-0.023388	-25.9031	-23.4993	-25.6108
 350	1	3	-0.199879	-26.0969	-23.8688	-26.9555
 351	1	3	-0.080819	-26.6477	-22.9693	-27.9126
 352	1	6	0.152396	-27.3805	-20.9027	-28.161
 353	1	6	0.149363	-25.4791	-24.1889	-24.8841
 354	1	6	0.171749	-25.8031	-24.8728	-27.2546
 355	1	7	-0.126864	-26.8052	-23.4549	-29.3838
 356	1	7	0.414085	-27.8231	-22.6036	-30.2356
 357	1	8	-0.136036	-28.9961	-22.4257	-29.5876
 358	1	8	-0.12675	-28.1242	-23.2153	-31.4035
 359	1	8	-0.136493	-27.3642	-21.3718	-30.5507
 360	1	7	0.412463	-25.3757	-23.3443	-30.0402
 361	1	8	-0.134035	-25.381	-23.5965	-31.3685
 362	1	8	-0.126523	-24.4928	-24.1985	-29.4742
 363	1	8	-0.120355	-24.845	-22.1106	-29.8789
 364	1	3	-0.02363	-27.3676	-24.9075	-29.3352
 365	1	3	-0.07382	-26.7807	-25.993	-30.0391
 366	1	3	-0.058666	-27.3006	-27.2805	-29.853
 367	1	3	-0.05367	-28.497	-25.1745	-28.5095
 368	1	3	-0.161949	-29.0097	-26.4765	-28.3444
 369	1	3	-0.052731	-28.3756	-27.5199	-29.025
 370	1	2	0.511278	-28.6125	-28.988	-28.9796
 371	1	1	-0.11022	-27.6285	-29.5527	-29.7818
 372	1	2	0.48346	-26.8179	-28.5875	-30.3693
 373	1	3	0.062835	-27.4232	-30.955	-29.9203
 374	1	3	-0.214737	-28.5048	-31.8263	-30.1375
 375	1	3	-0.092253	-28.2921	-33.2105	-30.2563
 376	1	3	-0.160974	-26.1292	-31.496	-29.8185
 377	1	3	-0.148646	-25.9152	-32.8782	-29.9438
 378	1	3	0.041241	-26.9958	-33.761	-30.1648
 379	1	6	0.160326	-29.5171	-31.4353	-30.2043
 380	1	6	0.154695	-25.2773	-30.8428	-29.6472
 381	1	6	0.134327	-24.897	-33.2443	-29.8675
 382	1	6	0.119951	-29.1453	-33.8649	-30.4158
 383	1	6	0.172628	-29.852	-26.6755	-27.6842
 384	1	6	0.137279	-28.9649	-24.3648	-27.9552
 385	1	6	0.14105	-25.9198	-25.877	-30.6892
 386	1	5	-0.471402	-25.8557	-28.7529	-31.0988
 387	1	5	-0.485833	-29.4522	-29.5542	-28.3013
 388	1	7	0.140024	-26.8124	-35.2882	-30.3206
 389	1	7	-0.178691	-25.3495	-35.7554	-30.0944
 390	1	9	0.043413	-24.9995	-35.487	-29.0893
 391	1	9	0.047557	-24.6671	-35.3139	-30.8319
 392	1	9	0.063016	-25.2736	-36.8466	-30.1861
 393	1	7	-0.187892	-27.1782	-35.6398	-31.7901
 394	1	9	0.043685	-28.2514	-35.5087	-31.977
 395	1	9	0.055699	-26.912	-36.6739	-32.0409
 396	1	9	0.057684	-26.6361	-34.9884	-32.4879
 397	1	3	-0.164758	-28.3008	-37.2725	-29.5907
 398	1	3	-0.151844	-27.8239	-35.5376	-27.979
 399	1	3	-0.169902	-28.5716	-36.2268	-27.0087
 400	1	3	0.006445	-29.1897	-37.4585	-27.3126
 401	1	3	-0.175352	-29.041	-37.9645	-28.6195
 402	1	6	0.13478	-28.6512	-35.7908	-26.0185
 403	1	6	0.147112	-29.4926	-38.9169	-28.8843
 404	1	3	0.014571	-27.6842	-36.04	-29.2901
 405	1	6	0.127309	-27.3432	-34.6038	-27.6998
 406	1	6	0.132317	-28.2015	-37.72	-30.5734
 407	1	7	0.14442	-30.0016	-38.276	-26.2845
 408	1	3	-0.008293	-29.4403	-39.7154	-26.2615
 409	1	7	-0.149636	-31.4963	-38.2013	-26.7012
 410	1	7	-0.207624	-29.9247	-37.707	-24.8398
 411	1	3	-0.056733	-28.0862	-39.9139	-25.9254
 412	1	3	-0.427248	-27.5198	-41.1998	-25.9192
 413	1	3	0.300563	-28.277	-42.3356	-26.2738
 414	1	3	-0.034917	-30.208	-40.8494	-26.6033
 415	1	3	-0.460652	-29.6311	-42.1319	-26.618
 416	1	6	0.132306	-27.4616	-39.0577	-25.68
 417	1	6	0.20081	-26.4685	-41.3064	-25.662
 418	1	6	0.203835	-30.253	-42.9811	-26.8919
 419	1	6	0.127298	-31.2554	-40.7531	-26.8728
 420	1	9	0.047033	-28.8891	-37.6288	-24.4872
 421	1	9	0.065326	-30.4633	-38.3592	-24.1403
 422	1	9	0.056928	-30.3801	-36.7103	-24.778
 423	1	9	0.032023	-32.1351	-38.7551	-26.0011
 424	1	9	0.058797	-31.6553	-38.6073	-27.7078
 425	1	9	0.03359	-31.8423	-37.1596	-26.7126
 426	1	1	0.469872	-17.1662	1.19133	-17.3427
 427	1	2	0.06277	-16.5206	-0.035639	-17.1585
 428	1	3	0.008141	-17.1945	-0.978948	-18.0865
 429	1	2	0.04539	-18.1705	1.12194	-18.3119
 430	1	3	0.033062	-18.1759	-0.289594	-18.7663
 431	1	5	-0.387649	-15.6302	-0.322212	-16.3748
 432	1	5	-0.380594	-18.9123	2.0038	-18.7136
 433	1	3	0.006556	-16.9854	-2.35003	-18.2794
 434	1	3	-0.023388	-19.0088	-0.930034	-19.684
 435	1	3	-0.199879	-18.8304	-2.31378	-19.8785
 436	1	3	-0.080819	-17.8324	-3.05155	-19.1803
 437	1	6	0.152396	-16.1985	-2.83358	-17.7101
 438	1	6	0.149363	-19.7831	-0.375104	-20.2093
 439	1	6	0.171749	-19.4973	-2.82152	-20.5718
 440	1	7	-0.126864	-17.7518	-4.59058	-19.413
 441	1	7	0.414085	-17.1569	-4.8063	-20.8592
 442	1	8	-0.136036	-18.0123	-4.40896	-21.8278
 443	1	8	-0.12675	-16.8411	-6.0935	-21.1256
 444	1	8	-0.136493	-16.0266	-4.08579	-21.0388
 445	1	7	0.412463	-16.8411	-5.35181	-18.375
 446	1	8	-0.134035	-17.1782	-5.06098	-17.0981
 447	1	8	-0.126523	-15.5274	-5.06361	-18.5126
 448	1	8	-0.120355	-16.9638	-6.69375	-18.4897
 449	1	3	-0.02363	-19.1912	-5.15204	-19.2279
 450	1	3	-0.07382	-19.7714	-6.10636	-20.1052
 451	1	3	-0.058666	-21.0839	-6.53535	-19.8636
 452	1	3	-0.05367	-19.9626	-4.69886	-18.1194
 453	1	3	-0.161949	-21.2784	-5.14661	-17.8931
 454	1	3	-0.052731	-21.8176	-6.06858	-18.7938
 455	1	2	0.511278	-23.1618	-6.70248	-18.8349
 456	1	1	-0.11022	-23.156	-7.52316	-19.9549
 457	1	2	0.48346	-21.938	-7.48469	-20.625
 458	1	3	0.062835	-24.2721	-8.29899	-20.3756
 459	1	3	-0.214737	-24.1024	-9.63923	-20.7594
 460	1	3	-0.092253	-25.1977	-10.3986	-21.1997
 461	1	3	-0.160974	-25.5594	-7.73514	-20.4334
 462	1	3	-0.148646	-26.6577	-8.49675	-20.8694
 463	1	3	0.041241	-26.4967	-9.84649	-21.2537
 464	1	6	0.160326	-23.1152	-10.094	-20.7361
 465	1	6	0.154695	-25.7126	-6.69872	-20.1432
 466	1	6	0.134327	-27.6305	-8.01891	-20.9149
 467	1	6	0.119951	-25.0233	-11.4244	-21.5119
 468	1	6	0.172628	-21.8634	-4.78785	-17.0482
 469	1	6	0.137279	-19.5399	-3.97982	-17.422
 470	1	6	0.14105	-19.243	-6.51255	-20.9619
 471	1	5	-0.471402	-21.618	-8.07327	-21.6429
 472	1	5	-0.485833	-24.0712	-6.50625	-18.0472
 473	1	7	0.140024	-27.6708	-10.6947	-21.7904
 474	1	7	-0.178691	-27.6852	-10.5391	-23.3351
 475	1	9	0.043413	-28.4699	-11.1575	-23.7899
 476	1	9	0.047557	-26.7201	-10.821	-23.7743
 477	1	9	0.063016	-27.8734	-9.49602	-23.62
 478	1	7	-0.187892	-29.0573	-10.1941	-21.2891
 479	1	9	0.043685	-29.3313	-9.23236	-21.7402
 480	1	9	0.055699	-29.0746	-10.0658	-20.2003
 481	1	9	0.057684	-29.8438	-10.9122	-21.5552
 482	1	3	-0.164758	-27.6378	-12.4897	-19.9708
 483	1	3	-0.151844	-27.104	-13.1953	-22.2159
 484	1	3	-0.169902	-26.8756	-14.5005	-21.7499
 485	1	3	0.006445	-27.0593	-14.8354	-20.391
 486	1	3	-0.175352	-27.4351	-13.8002	-19.5101
 487	1	6	0.13478	-26.5403	-15.2451	-22.4658
 488	1	6	0.147112	-27.5453	-13.9973	-18.4486
 489	1	3	0.014571	-27.4931	-12.1632	-21.3342
 490	1	6	0.127309	-26.9443	-13.0003	-23.2708
 491	1	6	0.132317	-27.8893	-11.7175	-19.25
 492	1	7	0.14442	-26.7828	-16.2585	-19.851
 493	1	3	-0.008293	-26.7055	-17.3057	-20.9901
 494	1	7	-0.149636	-27.9137	-16.7129	-18.8858
 495	1	7	-0.207624	-25.4744	-16.1887	-19.0152
 496	1	3	-0.056733	-27.834	-17.5271	-21.8093
 497	1	3	-0.427248	-27.8059	-18.4775	-22.8459
 498	1	3	0.300563	-26.6518	-19.2472	-23.0928
 499	1	3	-0.034917	-25.5446	-18.0677	-21.2498
 500	1	3	-0.460652	-25.5225	-19.0201	-22.2818
 501	1	6	0.132306	-28.7379	-16.9437	-21.6482
 502	1	6	0.20081	-28.6882	-18.6134	-23.4671
 503	1	6	0.203835	-24.6197	-19.6059	-22.4389
 504	1	6	0.127298	-24.6458	-17.9435	-20.6541
 505	1	9	0.047033	-25.2317	-17.1617	-18.569
 506	1	9	0.065326	-25.5659	-15.4678	-18.1934
 507	1	9	0.056928	-24.6291	-15.8655	-19.6362
 508	1	9	0.032023	-28.9029	-16.5952	-19.345
 509	1	9	0.058797	-27.9121	-16.1401	-17.951
 510	1	9	0.03359	-27.7907	-17.7702	-18.6173
 511	1	1	0.469872	-9.34604	18.9146	-2.55895
 512	1	2	0.06277	-8.82579	17.7074	-2.0815
 513	1	3	0.008141	-9.2322	16.6804	-3.0791
 514	1	2	0.04539	-10.0011	18.7602	-3.78431
 515	1	3	0.033062	-9.93233	17.3111	-4.08555
 516	1	5	-0.387649	-8.23299	17.493	-1.03687
 517	1	5	-0.380594	-10.562	19.6022	-4.46712
 518	1	3	0.006556	-9.0497	15.2907	-3.07036
 519	1	3	-0.023388	-10.495	16.5939	-5.14177
 520	1	3	-0.199879	-10.34	15.1941	-5.14241
 521	1	3	-0.080819	-9.62729	14.5151	-4.11466
 522	1	6	0.152396	-8.48983	14.8525	-2.25089
 523	1	6	0.149363	-11.052	17.1064	-5.92315
 524	1	6	0.171749	-10.7926	14.6299	-5.95514
 525	1	7	-0.126864	-9.52186	12.9622	-4.19413
 526	1	7	0.414085	-8.49944	12.6359	-5.35143
 527	1	8	-0.136036	-8.15304	11.3305	-5.41009
 528	1	8	-0.12675	-7.35062	13.3351	-5.20747
 529	1	8	-0.136493	-8.98598	12.9651	-6.56934
 530	1	7	0.412463	-9.00824	12.2852	-2.86543
 531	1	8	-0.134035	-9.13912	10.9397	-2.90666
 532	1	8	-0.126523	-9.71369	12.6909	-1.78538
 533	1	8	-0.120355	-7.70739	12.5449	-2.60484
 534	1	3	-0.02363	-10.9554	12.4042	-4.43994
 535	1	3	-0.07382	-11.2434	11.3944	-5.39729
 536	1	3	-0.058666	-12.5617	10.9327	-5.52044
 537	1	3	-0.05367	-12.0266	12.8972	-3.64164
 538	1	3	-0.161949	-13.3416	12.4077	-3.77223
 539	1	3	-0.052731	-13.5783	11.4139	-4.72648
 540	1	2	0.511278	-14.832	10.6999	-5.08795
 541	1	1	-0.11022	-14.4933	9.82445	-6.11655
 542	1	2	0.48346	-13.1381	9.90988	-6.43241
 543	1	3	0.062835	-15.4225	8.95701	-6.7735
 544	1	3	-0.214737	-15.0359	7.67147	-7.19594
 545	1	3	-0.092253	-15.9369	6.83587	-7.87693
 546	1	3	-0.160974	-16.744	9.37076	-7.03162
 547	1	3	-0.148646	-17.6554	8.52298	-7.68588
 548	1	3	0.041241	-17.2658	7.2379	-8.12593
 549	1	6	0.160326	-14.0234	7.31683	-7.02257
 550	1	6	0.154695	-17.077	10.3596	-6.72786
 551	1	6	0.134327	-18.6599	8.89331	-7.86023
 552	1	6	0.119951	-15.5877	5.86982	-8.22983
 553	1	6	0.172628	-14.1514	12.7828	-3.14908
 554	1	6	0.137279	-11.8371	13.6665	-2.89733
 555	1	6	0.14105	-10.4826	10.9573	-6.03594
 556	1	5	-0.471402	-12.5204	9.31292	-7.29656
 557	1	5	-0.485833	-15.9191	10.8725	-4.56367
 558	1	7	0.140024	-18.2029	6.29962	-8.92427
 559	1	7	-0.178691	-19.6657	6.81895	-9.00959
 560	1	9	0.043413	-20.2948	6.1134	-9.56759
 561	1	9	0.047557	-19.727	7.78308	-9.52877
 562	1	9	0.063016	-20.1036	6.93763	-8.01016
 563	1	7	-0.187892	-18.2863	4.93115	-8.18806
 564	1	9	0.043685	-18.6244	5.06968	-7.15296
 565	1	9	0.055699	-17.3162	4.42178	-8.1527
 566	1	9	0.057684	-18.9992	4.2572	-8.68018
 567	1	3	-0.164758	-17.353	4.96608	-10.9949
 568	1	3	-0.151844	-17.4101	7.37832	-11.0842
 569	1	3	-0.169902	-16.8844	7.34698	-12.3842
 570	1	3	0.006445	-16.5847	6.12482	-13.0203
 571	1	3	-0.175352	-16.8174	4.93548	-12.2956
 572	1	6	0.13478	-16.6883	8.29131	-12.8799
 573	1	6	0.147112	-16.5697	3.97145	-12.7315
 574	1	3	0.014571	-17.6524	6.19271	-10.3631
 575	1	6	0.127309	-17.614	8.34208	-10.6261
 576	1	6	0.132317	-17.5143	4.02204	-10.4853
 577	1	7	0.14442	-15.9319	6.10046	-14.4222
 578	1	3	-0.008293	-16.2213	4.77253	-15.1614
 579	1	7	-0.149636	-14.4156	6.35952	-14.2162
 580	1	7	-0.207624	-16.47	7.24286	-15.3306
 581	1	3	-0.056733	-15.2017	3.92017	-15.6407
 582	1	3	-0.427248	-15.5154	2.74859	-16.3515
 583	1	3	0.300563	-16.8522	2.38031	-16.6047
 584	1	3	-0.034917	-17.559	4.39964	-15.4039
 585	1	3	-0.460652	-17.8683	3.22306	-16.1075
 586	1	6	0.132306	-14.154	4.15316	-15.4775
 587	1	6	0.20081	-14.7055	2.11412	-16.7046
 588	1	6	0.203835	-18.9125	2.9788	-16.2887
 589	1	6	0.127298	-18.3674	5.03372	-15.0459
 590	1	9	0.047033	-17.567	7.25634	-15.3475
 591	1	9	0.065326	-16.1211	7.11143	-16.3631
 592	1	9	0.056928	-16.1263	8.22996	-14.9995
 593	1	9	0.032023	-14.249	7.30895	-13.6912
 594	1	9	0.058797	-13.8847	6.41775	-15.1747
 595	1	9	0.03359	-13.9594	5.56695	-13.6092
 596	1	1	0.469872	-6.34406	35.8979	1.46736
 597	1	2	0.06277	-5.61251	35.5077	2.59322
 598	1	3	0.008141	-6.45307	35.8871	3.75699
 599	1	2	0.04539	-7.55615	36.5059	1.80571
 600	1	3	0.033062	-7.60492	36.4799	3.28778
 601	1	5	-0.387649	-4.53168	34.9437	2.64782
 602	1	5	-0.380594	-8.41612	36.9632	1.07019
 603	1	3	0.006556	-6.22852	35.7036	5.12529
 604	1	3	-0.023388	-8.5948	36.9333	4.16126
 605	1	3	-0.199879	-8.39042	36.7571	5.54546
 606	1	3	-0.080819	-7.21731	36.1273	6.05342
 607	1	6	0.152396	-5.3077	35.2259	5.45117
 608	1	6	0.149363	-9.49602	37.4044	3.7747
 609	1	6	0.171749	-9.16872	37.1215	6.20722
 610	1	7	-0.126864	-6.96176	35.9114	7.57631
 611	1	7	0.414085	-8.25347	36.0478	8.46813
 612	1	8	-0.136036	-8.03238	35.6323	9.73622
 613	1	8	-0.12675	-9.26585	35.2841	7.99806
 614	1	8	-0.136493	-8.71167	37.3172	8.55506
 615	1	7	0.412463	-5.92096	37.0143	8.0071
 616	1	8	-0.134035	-5.77277	37.1282	9.34605
 617	1	8	-0.126523	-6.28008	38.2386	7.55781
 618	1	8	-0.120355	-4.69468	36.7675	7.49351
 619	1	3	-0.02363	-6.45326	34.4537	7.78101
 620	1	3	-0.07382	-7.0565	33.4053	7.0377
 621	1	3	-0.058666	-6.6136	32.0908	7.22461
 622	1	3	-0.05367	-5.44265	34.1119	8.72577
 623	1	3	-0.161949	-5.02265	32.7776	8.90898
 624	1	3	-0.052731	-5.62888	31.7818	8.1354
 625	1	2	0.511278	-5.4079	30.3103	8.09815
 626	1	1	-0.11022	-6.28129	29.8166	7.13305
 627	1	2	0.48346	-7.04403	30.832	6.56281