pySIMM System Object

2467 atoms
2669 bonds
4698 angles
7246 dihedrals
812 impropers

9 atom types
11 bond types
18 angle types
8 dihedral types
4 improper types

-206.081607 206.081607 xlo xhi
-206.081607 206.081607 ylo yhi
-206.081607 206.081607 zlo zhi

Masses

   1	14.01	# n
   2	12.01	# c
   3	12.01	# ca
   4	1.008	# hn
   5	16.0	# o
   6	1.008	# ha
   7	12.01	# c3
   8	19.0	# f
   9	1.008	# hc

Pair Coeffs

   1	0.17	3.249998523775958	# n
   2	0.086	3.3996695084235347	# c
   3	0.086	3.3996695084235347	# ca
   4	0.0157	1.069078461768407	# hn
   5	0.21	2.959921901149463	# o
   6	0.015	2.59964245953351	# ha
   7	0.1094	3.3996695084235347	# c3
   8	0.061	3.1181455134911875	# f
   9	0.0157	2.649532787749369	# hc

Bond Coeffs

   1	345.8	1.086	# ca,ha
   2	384.2	1.4121	# ca,n
   3	637.7	1.2183	# c,o
   4	321.0	1.5156	# c3,ca
   5	461.1	1.3984	# ca,ca
   6	300.9	1.5375	# c3,c3
   7	330.6	1.0969	# c3,hc
   8	403.2	1.0129	# hn,n
   9	356.9	1.3497	# c3,f
  10	427.6	1.3789	# c,n
  11	345.9	1.4906	# c,ca

Angle Coeffs

   1	48.33	117.55	# c,n,hn
   2	74.22	123.05	# n,c,o
   3	64.28	120.33	# c,ca,ca
   4	70.89	107.36	# f,c3,f
   5	66.11	109.24	# c3,c3,f
   6	67.87	120.19	# ca,ca,n
   7	39.4	107.58	# hc,c3,hc
   8	63.53	120.77	# c3,ca,ca
   9	66.62	120.02	# ca,ca,ca
  10	63.82	123.71	# c,n,ca
  11	62.86	111.51	# c3,c3,c3
  12	46.34	109.8	# c3,c3,hc
  13	63.74	127.08	# c,n,c
  14	48.18	119.88	# ca,ca,ha
  15	68.72	122.6	# ca,c,o
  16	63.56	112.24	# ca,c3,ca
  17	63.15	112.07	# c3,c3,ca
  18	67.68	115.25	# ca,c,n

Dihedral Coeffs

   1	2	2.5	2	180	2.0	1	0	# hn,n,c,o
   2	1	3.625	2	180	# X,ca,ca,X
   3	1	0.16	3	0	# hc,c3,c3,c3
   4	1	1.0	2	180	# X,c,ca,X
   5	1	0.15555555555555556	3	0	# X,c3,c3,X
   6	1	0.0	2	0	# X,c3,ca,X
   7	1	2.5	2	180	# X,c,n,X
   8	1	0.45	2	180	# X,ca,n,X

Improper Coeffs

   1	10.5	-1	2	# c,X,X,o
   2	1.1	-1	2	# ca,X,X,ha
   3	1.1	-1	2	# ca,ca,ca,c3
   4	1.1	-1	2	# n,X,X,hn

Atoms

   1	1	1	0.469872	52.5671	124.647	-4.2728
   2	1	2	0.06277	52.4545	124.565	-2.88324
   3	1	3	0.008141	51.7423	125.803	-2.474
   4	1	2	0.04539	52.0073	125.818	-4.78655
   5	1	3	0.033062	51.4722	126.542	-3.60665
   6	1	5	-0.387649	52.8382	123.678	-2.13812
   7	1	5	-0.380594	51.9318	126.183	-5.94885
   8	1	3	0.006556	51.3334	126.225	-1.20303
   9	1	3	-0.023388	50.7615	127.742	-3.53672
  10	1	3	-0.199879	50.3346	128.182	-2.26745
  11	1	3	-0.080819	50.6243	127.451	-1.08057
  12	1	6	0.152396	51.5539	125.587	-0.353366
  13	1	6	0.149363	50.5312	128.3	-4.44142
  14	1	6	0.171749	49.7519	129.1	-2.21536
  15	1	7	-0.126864	50.0744	127.966	0.282048
  16	1	7	0.414085	48.5952	127.434	0.386089
  17	1	8	-0.136036	48.0309	127.678	1.59041
  18	1	8	-0.12675	48.5246	126.098	0.185973
  19	1	8	-0.136493	47.7984	127.987	-0.556932
  20	1	7	0.412463	50.8921	127.451	1.52943
  21	1	8	-0.134035	50.5903	128.154	2.64438
  22	1	8	-0.126523	52.225	127.582	1.34413
  23	1	8	-0.120355	50.6715	126.151	1.82656
  24	1	3	-0.02363	50.1833	129.522	0.300132
  25	1	3	-0.07382	49.0929	130.375	0.622927
  26	1	3	-0.058666	49.2813	131.763	0.586877
  27	1	3	-0.05367	51.4316	130.126	-0.0249149
  28	1	3	-0.161949	51.6028	131.525	-0.0421212
  29	1	3	-0.052731	50.4982	132.324	0.268384
  30	1	2	0.511278	50.3435	133.803	0.269963
  31	1	1	-0.11022	49.0046	134.044	0.560282
  32	1	2	0.48346	48.3048	132.865	0.791943
  33	1	3	0.062835	48.3957	135.333	0.521464
  34	1	3	-0.214737	47.4351	135.712	1.4775
  35	1	3	-0.092253	46.7826	136.955	1.38845
  36	1	3	-0.160974	48.7116	136.237	-0.508736
  37	1	3	-0.148646	48.0713	137.482	-0.589973
  38	1	3	0.041241	47.0766	137.854	0.339209
  39	1	6	0.160326	47.1691	135.031	2.28201
  40	1	6	0.154695	49.4494	135.974	-1.26246
  41	1	6	0.134327	48.3368	138.155	-1.4019
  42	1	6	0.119951	46.0372	137.2	2.13767
  43	1	6	0.172628	52.5573	131.976	-0.306734
  44	1	6	0.137279	52.2816	129.501	-0.286459
  45	1	6	0.14105	48.1069	130.002	0.878701
  46	1	5	-0.471402	47.1178	132.726	1.03138
  47	1	5	-0.485833	51.2168	134.609	-0.00175432
  48	1	7	0.140024	46.359	139.211	0.170498
  49	1	7	-0.178691	47.2994	140.309	0.736488
  50	1	9	0.043413	47.5186	140.123	1.79583
  51	1	9	0.047557	46.8429	141.304	0.662375
  52	1	9	0.063016	48.2578	140.326	0.202259
  53	1	7	-0.187892	45.0269	139.305	0.965676
  54	1	9	0.043685	44.3557	138.471	0.726942
  55	1	9	0.055699	44.499	140.236	0.72126
  56	1	9	0.057684	45.201	139.303	2.04883
  57	1	3	-0.164758	45.2449	138.425	-1.98
  58	1	3	-0.151844	46.5153	140.477	-2.09776
  59	1	3	-0.169902	46.2546	140.551	-3.47599
  60	1	3	0.006445	45.4879	139.565	-4.13128
  61	1	3	-0.175352	44.9802	138.502	-3.35677
  62	1	6	0.13478	46.6634	141.382	-4.04502
  63	1	6	0.147112	44.3919	137.71	-3.80889
  64	1	3	0.014571	46.0235	139.402	-1.3268
  65	1	6	0.127309	47.1216	141.257	-1.65103
  66	1	6	0.132317	44.8635	137.576	-1.41857
  67	1	7	0.14442	45.2722	139.67	-5.65766
  68	1	3	-0.008293	44.7927	141.093	-6.01449
  69	1	7	-0.149636	44.1994	138.685	-6.19415
  70	1	7	-0.207624	46.6198	139.29	-6.32991
  71	1	3	-0.056733	43.7467	141.67	-5.26245
  72	1	3	-0.427248	43.2712	142.959	-5.5611
  73	1	3	0.300563	43.8241	143.69	-6.61887
  74	1	3	-0.034917	45.3363	141.837	-7.08668
  75	1	3	-0.460652	44.8546	143.125	-7.3801
  76	1	6	0.132306	43.3021	141.116	-4.43871
  77	1	6	0.20081	42.4697	143.394	-4.97355
  78	1	6	0.203835	45.2768	143.691	-8.204
  79	1	6	0.127298	46.1303	141.429	-7.70401
  80	1	9	0.047033	47.4012	140.025	-6.09673
  81	1	9	0.065326	46.5233	139.223	-7.42059
  82	1	9	0.056928	46.9676	138.313	-5.97036
  83	1	9	0.032023	43.2408	138.821	-5.67753
  84	1	9	0.058797	44.5133	137.641	-6.07187
  85	1	9	0.03359	44.024	138.852	-7.26487
  86	1	1	0.469872	50.8007	108.082	-20.7443
  87	1	2	0.06277	51.2674	108.998	-19.8004
  88	1	3	0.008141	52.1446	109.924	-20.558
  89	1	2	0.04539	51.2843	108.341	-22.0283
  90	1	3	0.033062	52.161	109.531	-21.8789
  91	1	5	-0.387649	51.0319	109.051	-18.6042
  92	1	5	-0.380594	51.0697	107.73	-23.0623
  93	1	3	0.006556	52.8849	111.021	-20.1088
  94	1	3	-0.023388	52.9378	110.206	-22.8237
  95	1	3	-0.199879	53.6981	111.315	-22.3916
  96	1	3	-0.080819	53.6746	111.751	-21.0353
  97	1	6	0.152396	52.8412	111.292	-19.0565
  98	1	6	0.149363	52.9565	109.873	-23.859
  99	1	6	0.171749	54.3079	111.819	-23.1346
 100	1	7	-0.126864	54.4936	112.97	-20.5141
 101	1	7	0.414085	55.735	112.377	-19.7429
 102	1	8	-0.136036	55.3645	111.722	-18.619
 103	1	8	-0.12675	56.6354	113.316	-19.3754
 104	1	8	-0.136493	56.4019	111.472	-20.4953
 105	1	7	0.412463	55.0148	113.933	-21.6481
 106	1	8	-0.134035	56.003	113.395	-22.398
 107	1	8	-0.126523	55.5022	115.086	-21.1349
 108	1	8	-0.120355	54.0277	114.294	-22.4993
 109	1	3	-0.02363	53.5395	113.815	-19.6201
 110	1	3	-0.07382	53.903	114.299	-18.3346
 111	1	3	-0.058666	52.9552	115.011	-17.587
 112	1	3	-0.05367	52.235	114.112	-20.1082
 113	1	3	-0.161949	51.2988	114.833	-19.3414
 114	1	3	-0.052731	51.6892	115.264	-18.0708
 115	1	2	0.511278	50.923	115.985	-17.0209
 116	1	1	-0.11022	51.7897	116.111	-15.9433
 117	1	2	0.48346	53.0408	115.57	-16.2107
 118	1	3	0.062835	51.4158	116.673	-14.6924
 119	1	3	-0.214737	50.2355	116.253	-14.0577
 120	1	3	-0.092253	49.85	116.807	-12.8269
 121	1	3	-0.160974	52.2066	117.657	-14.0749
 122	1	3	-0.148646	51.8184	118.215	-12.8436
 123	1	3	0.041241	50.6403	117.788	-12.1897
 124	1	6	0.160326	49.601	115.505	-14.5272
 125	1	6	0.154695	53.1234	117.996	-14.5509
 126	1	6	0.134327	52.4416	118.99	-12.4055
 127	1	6	0.119951	48.9163	116.476	-12.3847
 128	1	6	0.172628	50.2968	115.039	-19.7136
 129	1	6	0.137279	51.932	113.764	-21.0925
 130	1	6	0.14105	54.8795	114.125	-17.8947
 131	1	5	-0.471402	54.0108	115.523	-15.4746
 132	1	5	-0.485833	49.7615	116.347	-17.1018
 133	1	7	0.140024	50.1804	118.436	-10.8645
 134	1	7	-0.178691	49.4585	117.416	-9.93812
 135	1	9	0.043413	48.4772	117.123	-10.3305
 136	1	9	0.047557	49.2895	117.851	-8.94468
 137	1	9	0.063016	50.0534	116.503	-9.80712
 138	1	7	-0.187892	49.1372	119.527	-11.2305
 139	1	9	0.043685	48.7461	120.023	-10.3331
 140	1	9	0.055699	48.2838	119.09	-11.7645
 141	1	9	0.057684	49.5763	120.287	-11.8885
 142	1	3	-0.164758	52.387	118.117	-9.61218
 143	1	3	-0.151844	51.5372	120.37	-9.77951
 144	1	3	-0.169902	52.6352	120.834	-9.039
 145	1	3	0.006445	53.6145	119.948	-8.54457
 146	1	3	-0.175352	53.4826	118.58	-8.86354
 147	1	6	0.13478	52.7146	121.9	-8.84255
 148	1	6	0.147112	54.2258	117.859	-8.5392
 149	1	3	0.014571	51.385	118.998	-10.0702
 150	1	6	0.127309	50.8106	121.101	-10.1166
 151	1	6	0.132317	52.3195	117.057	-9.8422
 152	1	7	0.14442	54.7986	120.503	-7.72128
 153	1	3	-0.008293	54.281	121.618	-6.78167
 154	1	7	-0.149636	55.8701	120.999	-8.72853
 155	1	7	-0.207624	55.4831	119.419	-6.84022
 156	1	3	-0.056733	54.682	122.968	-6.89484
 157	1	3	-0.427248	54.126	123.956	-6.06305
 158	1	3	0.300563	53.1605	123.632	-5.08872
 159	1	3	-0.034917	53.3165	121.295	-5.80444
 160	1	3	-0.460652	52.7706	122.283	-4.96806
 161	1	6	0.132306	55.4079	123.274	-7.64171
 162	1	6	0.20081	54.4289	124.992	-6.19531
 163	1	6	0.203835	52.0317	121.999	-4.22232
 164	1	6	0.127298	52.9709	120.268	-5.70638
 165	1	9	0.047033	56.2232	119.879	-6.172
 166	1	9	0.065326	56.0125	118.676	-7.44862
 167	1	9	0.056928	54.7555	118.887	-6.21546
 168	1	9	0.032023	55.4651	121.773	-9.39269
 169	1	9	0.058797	56.2149	120.174	-9.36473
 170	1	9	0.03359	56.7468	121.408	-8.20976
 171	1	1	0.469872	44.1393	86.6287	-8.29992
 172	1	2	0.06277	44.7876	86.4075	-9.519
 173	1	3	0.008141	44.634	87.6729	-10.2818
 174	1	2	0.04539	43.5888	87.9108	-8.21686
 175	1	3	0.033062	43.9224	88.5625	-9.50576
 176	1	5	-0.387649	45.3722	85.4085	-9.90522
 177	1	5	-0.380594	42.9902	88.4315	-7.28941
 178	1	3	0.006556	45.1152	88.0208	-11.5498
 179	1	3	-0.023388	43.64	89.8529	-9.95416
 180	1	3	-0.199879	44.1272	90.2296	-11.2213
 181	1	3	-0.080819	44.8835	89.3378	-12.0345
 182	1	6	0.152396	45.6739	87.2754	-12.1057
 183	1	6	0.149363	43.0789	90.5444	-9.32921
 184	1	6	0.171749	43.9346	91.245	-11.5606
 185	1	7	-0.126864	45.4542	89.8685	-13.3866
 186	1	7	0.414085	46.5228	88.916	-14.0434
 187	1	8	-0.136036	47.5154	88.6093	-13.1773
 188	1	8	-0.12675	47.1281	89.4926	-15.1064
 189	1	8	-0.136493	45.9929	87.7505	-14.478
 190	1	7	0.412463	44.23	90.0211	-14.3699
 191	1	8	-0.134035	43.459	88.9098	-14.3714
 192	1	8	-0.126523	44.588	90.2404	-15.6547
 193	1	8	-0.120355	43.4216	91.0449	-14.0145
 194	1	3	-0.02363	46.191	91.2074	-13.0897
 195	1	3	-0.07382	46.1738	92.3156	-13.9803
 196	1	3	-0.058666	46.8682	93.4818	-13.6233
 197	1	3	-0.05367	46.9545	91.3166	-11.8921
 198	1	3	-0.161949	47.6304	92.5004	-11.5458
 199	1	3	-0.052731	47.5602	93.5745	-12.4351
 200	1	2	0.511278	48.1677	94.925	-12.3478
 201	1	1	-0.11022	47.8192	95.5756	-13.5254
 202	1	2	0.48346	47.0309	94.7747	-14.3465
 203	1	3	0.062835	48.2271	96.9065	-13.8325
 204	1	3	-0.214737	49.5397	97.3237	-13.5499
 205	1	3	-0.092253	49.9329	98.654	-13.7593
 206	1	3	-0.160974	47.323	97.8431	-14.3661
 207	1	3	-0.148646	47.719	99.1757	-14.5834
 208	1	3	0.041241	49.0292	99.6057	-14.2789
 209	1	6	0.160326	50.2565	96.6246	-13.1268
 210	1	6	0.154695	46.3027	97.5468	-14.5965
 211	1	6	0.134327	46.9915	99.8844	-14.9712
 212	1	6	0.119951	50.9424	98.936	-13.4812
 213	1	6	0.172628	48.1988	92.5808	-10.621
 214	1	6	0.137279	47.0238	90.4736	-11.2095
 215	1	6	0.14105	45.6479	92.2933	-14.9293
 216	1	5	-0.471402	46.5599	95.049	-15.4363
 217	1	5	-0.485833	48.819	95.3495	-11.4086
 218	1	7	0.140024	49.411	101.096	-14.4192
 219	1	7	-0.178691	50.9459	101.318	-14.5298
 220	1	9	0.043413	51.3816	100.701	-15.3262
 221	1	9	0.047557	51.4626	101.081	-13.5914
 222	1	9	0.063016	51.1665	102.367	-14.7639
 223	1	7	-0.187892	48.9448	101.8	-13.1165
 224	1	9	0.043685	49.2521	102.853	-13.095
 225	1	9	0.055699	49.382	101.313	-12.2351
 226	1	9	0.057684	47.8535	101.752	-13.0107
 227	1	3	-0.164758	48.0254	102.892	-15.6858
 228	1	3	-0.151844	49.0356	101.094	-16.9402
 229	1	3	-0.169902	48.5572	101.654	-18.1358
 230	1	3	0.006445	47.8023	102.849	-18.1314
 231	1	3	-0.175352	47.5474	103.452	-16.8811
 232	1	6	0.13478	48.8114	101.155	-19.0645
 233	1	6	0.147112	47.008	104.393	-16.8281
 234	1	3	0.014571	48.7863	101.703	-15.6952
 235	1	6	0.127309	49.6281	100.184	-16.9854
 236	1	6	0.132317	47.8164	103.416	-14.7598
 237	1	7	0.14442	47.3526	103.554	-19.438
 238	1	3	-0.008293	48.2655	104.76	-19.7615
 239	1	7	-0.149636	45.8759	104.019	-19.2764
 240	1	7	-0.207624	47.3772	102.585	-20.6531
 241	1	3	-0.056733	49.4672	105.0	-19.0569
 242	1	3	-0.427248	50.2868	106.095	-19.377
 243	1	3	0.300563	49.9495	106.979	-20.4201
 244	1	3	-0.034917	47.933	105.642	-20.8119
 245	1	3	-0.460652	48.7613	106.732	-21.1365
 246	1	6	0.132306	49.7856	104.341	-18.2531
 247	1	6	0.20081	51.1944	106.263	-18.8017
 248	1	6	0.203835	48.487	107.381	-21.9649
 249	1	6	0.127298	47.0307	105.477	-21.3945
 250	1	9	0.047033	46.9272	103.044	-21.5422
 251	1	9	0.065326	46.8165	101.666	-20.4363
 252	1	9	0.056928	48.4055	102.312	-20.9217
 253	1	9	0.032023	45.793	104.876	-18.5978
 254	1	9	0.058797	45.2559	103.206	-18.877
 255	1	9	0.03359	45.4354	104.324	-20.2331
 256	1	1	0.469872	34.4933	65.5502	-3.26066
 257	1	2	0.06277	34.7551	66.864	-3.66944
 258	1	3	0.008141	36.237	66.997	-3.65647
 259	1	2	0.04539	35.6659	64.8519	-2.95587
 260	1	3	0.033062	36.7715	65.7996	-3.23313
 261	1	5	-0.387649	33.9669	67.7302	-4.01225
 262	1	5	-0.380594	35.7975	63.7052	-2.55869
 263	1	3	0.006556	37.0557	68.0671	-4.04408
 264	1	3	-0.023388	38.1509	65.6013	-3.1686
 265	1	3	-0.199879	38.9928	66.6612	-3.56006
 266	1	3	-0.080819	38.4681	67.9099	-4.00248
 267	1	6	0.152396	36.5966	68.9862	-4.40054
 268	1	6	0.149363	38.5546	64.6418	-2.85255
 269	1	6	0.171749	40.0605	66.4725	-3.53564
 270	1	7	-0.126864	39.3795	69.0582	-4.53344
 271	1	7	0.414085	40.8921	68.9283	-4.10241
 272	1	8	-0.136036	41.0176	68.7178	-2.77209
 273	1	8	-0.12675	41.5872	70.0586	-4.36617
 274	1	8	-0.136493	41.5465	67.9241	-4.72852
 275	1	7	0.412463	39.2949	68.9934	-6.10686
 276	1	8	-0.134035	39.4833	67.7342	-6.56358
 277	1	8	-0.126523	40.2124	69.7663	-6.73039
 278	1	8	-0.120355	38.0787	69.3779	-6.55592
 279	1	3	-0.02363	38.8897	70.4087	-3.93567
 280	1	3	-0.07382	38.8437	71.6088	-4.69433
 281	1	3	-0.058666	38.5152	72.8072	-4.0495
 282	1	3	-0.05367	38.5892	70.4791	-2.54599
 283	1	3	-0.161949	38.2646	71.6982	-1.9156
 284	1	3	-0.052731	38.2442	72.8568	-2.6992
 285	1	2	0.511278	38.028	74.2805	-2.32135
 286	1	1	-0.11022	38.1946	75.0091	-3.49215
 287	1	2	0.48346	38.4695	74.1939	-4.58165
 288	1	3	0.062835	38.146	76.4282	-3.56194
 289	1	3	-0.214737	38.9343	77.2083	-2.69969
 290	1	3	-0.092253	38.904	78.6102	-2.78149
 291	1	3	-0.160974	37.3272	77.0724	-4.50525
 292	1	3	-0.148646	37.2921	78.4762	-4.58364
 293	1	3	0.041241	38.0874	79.2692	-3.72525
 294	1	6	0.160326	39.571	76.7293	-1.96025
 295	1	6	0.154695	36.7185	76.4827	-5.18597
 296	1	6	0.134327	36.64	78.9322	-5.32075
 297	1	6	0.119951	39.5213	79.1907	-2.10069
 298	1	6	0.172628	38.0692	71.7496	-0.846032
 299	1	6	0.137279	38.6466	69.5819	-1.93443
 300	1	6	0.14105	39.0935	71.6485	-5.74918
 301	1	5	-0.471402	38.6692	74.5257	-5.73698
 302	1	5	-0.485833	37.8036	74.6998	-1.19914
 303	1	7	0.140024	38.0725	80.8131	-3.75322
 304	1	7	-0.178691	37.265	81.2928	-2.51586
 305	1	9	0.043413	37.7094	80.9315	-1.58002
 306	1	9	0.047557	36.2358	80.9131	-2.55332
 307	1	9	0.063016	37.2142	82.3884	-2.47433
 308	1	7	-0.187892	37.3447	81.4008	-4.9965
 309	1	9	0.043685	37.7576	81.0086	-5.93386
 310	1	9	0.055699	37.4467	82.4934	-5.02135
 311	1	9	0.057684	36.2715	81.1723	-4.97994
 312	1	3	-0.164758	40.0919	82.0813	-2.71085
 313	1	3	-0.151844	40.3595	81.0237	-4.8642
 314	1	3	-0.169902	41.6898	81.4691	-4.91833
 315	1	3	0.006445	42.2546	82.2146	-3.8636
 316	1	3	-0.175352	41.4286	82.5132	-2.75761
 317	1	6	0.13478	42.2831	81.238	-5.79864
 318	1	6	0.147112	41.8036	83.0931	-1.92117
 319	1	3	0.014571	39.5312	81.3282	-3.76567
 320	1	6	0.127309	39.9699	80.4362	-5.69087
 321	1	6	0.132317	39.505	82.3433	-1.83716
 322	1	7	0.14442	43.7162	82.7134	-3.98428
 323	1	3	-0.008293	43.8374	83.7229	-5.14738
 324	1	7	-0.149636	44.6232	81.4661	-4.18931
 325	1	7	-0.207624	44.2205	83.4263	-2.70106
 326	1	3	-0.056733	45.0502	83.9119	-5.8445
 327	1	3	-0.427248	45.1495	84.861	-6.87849
 328	1	3	0.300563	44.0449	85.6555	-7.25093
 329	1	3	-0.034917	42.7408	84.5373	-5.50146
 330	1	3	-0.460652	42.8411	85.4753	-6.54128
 331	1	6	0.132306	45.9304	83.3311	-5.58513
 332	1	6	0.20081	46.0961	84.9739	-7.40231
 333	1	6	0.203835	41.9736	86.0852	-6.78256
 334	1	6	0.127298	41.7975	84.4539	-4.96673
 335	1	9	0.047033	43.6395	84.3348	-2.49769
 336	1	9	0.065326	45.2692	83.7309	-2.8102
 337	1	9	0.056928	44.1555	82.7656	-1.82704
 338	1	9	0.032023	45.6874	81.71	-4.08454
 339	1	9	0.058797	44.4786	81.022	-5.18162
 340	1	9	0.03359	44.3937	80.6963	-3.44106
 341	1	1	0.469872	16.8881	47.4769	1.46511
 342	1	2	0.06277	16.9371	48.569	2.33699
 343	1	3	0.008141	18.3772	48.9094	2.46358
 344	1	2	0.04539	18.1599	47.0816	1.04039
 345	1	3	0.033062	19.1018	48.0251	1.69438
 346	1	5	-0.387649	16.0165	49.1515	2.88672
 347	1	5	-0.380594	18.4651	46.1877	0.267728
 348	1	3	0.006556	18.9927	49.9427	3.17961
 349	1	3	-0.023388	20.4919	48.118	1.60298
 350	1	3	-0.199879	21.1324	49.1583	2.3082
 351	1	3	-0.080819	20.4048	50.0972	3.09402
 352	1	6	0.152396	18.3577	50.6021	3.76119
 353	1	6	0.149363	21.0527	47.4142	0.991734
 354	1	6	0.171749	22.2134	49.2449	2.22225
 355	1	7	-0.126864	21.1878	51.2454	3.80944
 356	1	7	0.414085	20.2523	52.3568	4.41815
 357	1	8	-0.136036	19.4095	52.8545	3.48469
 358	1	8	-0.12675	20.9502	53.4178	4.88314
 359	1	8	-0.136493	19.5024	51.9046	5.44847
 360	1	7	0.412463	22.0097	50.5701	4.97577
 361	1	8	-0.134035	22.4996	51.4447	5.88223
 362	1	8	-0.126523	23.0673	49.8727	4.50357
 363	1	8	-0.120355	21.2494	49.6933	5.67079
 364	1	3	-0.02363	22.089	51.9695	2.76366
 365	1	3	-0.07382	23.3027	52.6123	3.12945
 366	1	3	-0.058666	24.0293	53.305	2.1503
 367	1	3	-0.05367	21.652	52.0843	1.41212
 368	1	3	-0.161949	22.409	52.7661	0.438162
 369	1	3	-0.052731	23.6026	53.3722	0.840399
 370	1	2	0.511278	24.5756	54.1966	0.0718202
 371	1	1	-0.11022	25.5315	54.5948	0.991967
 372	1	2	0.48346	25.2849	54.0966	2.26307
 373	1	3	0.062835	26.6422	55.4141	0.670598
 374	1	3	-0.214737	26.5382	56.8137	0.721452
 375	1	3	-0.092253	27.6593	57.6198	0.448399
 376	1	3	-0.160974	27.8704	54.8292	0.330328
 377	1	3	-0.148646	28.9884	55.6339	0.0546734
 378	1	3	0.041241	28.9032	57.0448	0.105721
 379	1	6	0.160326	25.5946	57.2787	0.993254
 380	1	6	0.154695	27.9653	53.7472	0.300414
 381	1	6	0.134327	29.9276	55.141	-0.170251
 382	1	6	0.119951	27.5633	58.6997	0.526631
 383	1	6	0.172628	22.0668	52.8461	-0.592
 384	1	6	0.137279	20.7035	51.652	1.10513
 385	1	6	0.14105	23.6747	52.6148	4.14884
 386	1	5	-0.471402	25.9442	54.2661	3.27315
 387	1	5	-0.485833	24.5255	54.4526	-1.11828
 388	1	7	0.140024	30.153	57.9372	-0.0803138
 389	1	7	-0.178691	31.2347	57.2648	-0.971285
 390	1	9	0.043413	30.8105	56.9326	-1.92736
 391	1	9	0.047557	31.6947	56.3994	-0.479128
 392	1	9	0.063016	32.0425	57.9739	-1.195
 393	1	7	-0.187892	30.7743	58.1204	1.33072
 394	1	9	0.043685	30.1008	58.6863	1.98711
 395	1	9	0.055699	31.7374	58.6441	1.28329
 396	1	9	0.057684	30.9546	57.1472	1.80526
 397	1	3	-0.164758	30.2432	60.5273	-0.261113
 398	1	3	-0.151844	29.1215	59.2795	-1.99737
 399	1	3	-0.169902	28.8984	60.47	-2.71287
 400	1	3	0.006445	29.3674	61.7091	-2.22343
 401	1	3	-0.175352	30.0211	61.7152	-0.975645
 402	1	6	0.13478	28.3758	60.4065	-3.66147
 403	1	6	0.147112	30.3914	62.6513	-0.565727
 404	1	3	0.014571	29.8101	59.2819	-0.766919
 405	1	6	0.127309	28.7766	58.3385	-2.41849
 406	1	6	0.132317	30.7847	60.5955	0.676001
 407	1	7	0.14442	29.2104	63.0421	-2.99222
 408	1	3	-0.008293	30.5838	63.7523	-3.05572
 409	1	7	-0.149636	28.1217	63.8736	-2.26189
 410	1	7	-0.207624	28.722	62.8494	-4.45431
 411	1	3	-0.056733	31.694	63.0408	-3.5516
 412	1	3	-0.427248	32.9641	63.6369	-3.62785
 413	1	3	0.300563	33.1825	64.9625	-3.19774
 414	1	3	-0.034917	30.7897	65.0875	-2.64229
 415	1	3	-0.460652	32.0678	65.6758	-2.70626
 416	1	6	0.132306	31.5707	62.0089	-3.87416
 417	1	6	0.20081	33.7945	63.0469	-4.00861
 418	1	6	0.203835	32.1893	66.7072	-2.38315
 419	1	6	0.127298	29.9656	65.6857	-2.2652
 420	1	9	0.047033	29.3854	62.1779	-5.01379
 421	1	9	0.065326	28.7026	63.8107	-4.98385
 422	1	9	0.056928	27.7066	62.4349	-4.48803
 423	1	9	0.032023	27.9094	64.8114	-2.79082
 424	1	9	0.058797	28.4257	64.1159	-1.236
 425	1	9	0.03359	27.1818	63.3096	-2.20194
 426	1	1	0.469872	3.26956	26.0542	2.97163
 427	1	2	0.06277	4.40879	26.2416	2.18125
 428	1	3	0.008141	5.04902	27.4785	2.69085
 429	1	2	0.04539	3.12116	27.0661	3.92708
 430	1	3	0.033062	4.28332	27.9719	3.72428
 431	1	5	-0.387649	4.81572	25.5679	1.24854
 432	1	5	-0.380594	2.2536	27.1974	4.7753
 433	1	3	0.006556	6.23159	28.103	2.27933
 434	1	3	-0.023388	4.65822	29.1329	4.40597
 435	1	3	-0.199879	5.84435	29.7843	4.00298
 436	1	3	-0.080819	6.64921	29.2923	2.93624
 437	1	6	0.152396	6.79497	27.6433	1.47482
 438	1	6	0.149363	4.05335	29.5088	5.22831
 439	1	6	0.171749	6.14787	30.68	4.54119
 440	1	7	-0.126864	7.97826	30.0315	2.58426
 441	1	7	0.414085	9.00937	29.6372	3.71039
 442	1	8	-0.136036	8.70539	30.2223	4.8911
 443	1	8	-0.12675	10.2859	29.9736	3.41891
 444	1	8	-0.136493	9.01022	28.3033	3.93625
 445	1	7	0.412463	8.57253	29.6298	1.18151
 446	1	8	-0.134035	7.63959	29.7211	0.206573
 447	1	8	-0.126523	9.06513	28.371	1.15118
 448	1	8	-0.120355	9.58323	30.4479	0.808808
 449	1	3	-0.02363	7.70323	31.5624	2.50436
 450	1	3	-0.07382	8.6395	32.5312	2.95628
 451	1	3	-0.058666	8.3379	33.8908	2.80524
 452	1	3	-0.05367	6.50565	32.0229	1.88717
 453	1	3	-0.161949	6.21593	33.3965	1.75602
 454	1	3	-0.052731	7.15816	34.3141	2.23201
 455	1	2	0.511278	7.13802	35.8022	2.25433
 456	1	1	-0.11022	8.32985	36.1851	2.85501
 457	1	2	0.48346	9.11743	35.0945	3.19959
 458	1	3	0.062835	8.66604	37.5323	3.15993
 459	1	3	-0.214737	9.91008	38.0716	2.79048
 460	1	3	-0.092253	10.2467	39.3901	3.14584
 461	1	3	-0.160974	7.76384	38.3339	3.87811
 462	1	3	-0.148646	8.09799	39.6519	4.22916
 463	1	3	0.041241	9.34714	40.2059	3.86731
 464	1	6	0.160326	10.6284	37.4621	2.2478
 465	1	6	0.154695	6.79976	37.9307	4.17742
 466	1	6	0.134327	7.37459	40.2229	4.80058
 467	1	6	0.119951	11.2223	39.7804	2.86668
 468	1	6	0.172628	5.29249	33.7397	1.29316
 469	1	6	0.137279	5.78644	31.306	1.49901
 470	1	6	0.14105	9.5877	32.2631	3.40997
 471	1	5	-0.471402	10.2057	35.0968	3.74744
 472	1	5	-0.485833	6.22632	36.5141	1.87003
 473	1	7	0.140024	9.7849	41.6251	4.30491
 474	1	7	-0.178691	10.84	41.422	5.42809
 475	1	9	0.043413	11.0713	42.356	5.95368
 476	1	9	0.047557	11.7758	41.0177	5.02146
 477	1	9	0.063016	10.4706	40.7137	6.18093
 478	1	7	-0.187892	8.62148	42.4613	4.90313
 479	1	9	0.043685	8.232	42.0132	5.82585
 480	1	9	0.055699	7.79823	42.557	4.18352
 481	1	9	0.057684	8.95919	43.4753	5.15255
 482	1	3	-0.164758	9.91727	42.2344	1.80087
 483	1	3	-0.151844	11.2651	43.5005	3.34969
 484	1	3	-0.169902	11.7585	44.2759	2.28977
 485	1	3	0.006445	11.3792	44.017	0.955717
 486	1	3	-0.175352	10.428	42.9976	0.735797
 487	1	6	0.13478	12.4402	45.0875	2.52694
 488	1	6	0.147112	10.0613	42.7979	-0.265909
 489	1	3	0.014571	10.3559	42.4462	3.12507
 490	1	6	0.127309	11.5886	43.7479	4.3548
 491	1	6	0.132317	9.17036	41.4747	1.58612
 492	1	7	0.14442	11.9289	44.8643	-0.216785
 493	1	3	-0.008293	13.2363	45.592	0.188516
 494	1	7	-0.149636	10.8059	45.844	-0.652944
 495	1	7	-0.207624	12.254	43.9719	-1.44851
 496	1	3	-0.056733	13.3465	46.999	0.255703
 497	1	3	-0.427248	14.5438	47.6109	0.668746
 498	1	3	0.300563	15.6713	46.8478	1.03728
 499	1	3	-0.034917	14.3663	44.8286	0.550528
 500	1	3	-0.460652	15.5582	45.4443	0.970252
 501	1	6	0.132306	12.5066	47.6384	0.00164034
 502	1	6	0.20081	14.5877	48.6964	0.721482
 503	1	6	0.203835	16.4072	44.8195	1.23846
 504	1	6	0.127298	14.3117	43.7426	0.528269
 505	1	9	0.047033	12.7844	44.5505	-2.21587
 506	1	9	0.065326	11.3475	43.5697	-1.91594
 507	1	9	0.056928	12.8878	43.1209	-1.17084
 508	1	9	0.032023	10.5099	46.4998	0.175748
 509	1	9	0.058797	9.90863	45.2977	-0.970097
 510	1	9	0.03359	11.1264	46.4685	-1.49686
 511	1	1	0.469872	-17.7384	11.2095	-0.207753
 512	1	2	0.06277	-16.8471	11.1833	-1.28724
 513	1	3	0.008141	-15.6957	12.0284	-0.877176
 514	1	2	0.04539	-17.2755	12.0239	0.832257
 515	1	3	0.033062	-15.9556	12.5344	0.377653
 516	1	5	-0.387649	-16.9518	10.5997	-2.3538
 517	1	5	-0.380594	-17.7875	12.245	1.91789
 518	1	3	0.006556	-14.4859	12.2776	-1.53849
 519	1	3	-0.023388	-15.0249	13.341	1.03753
 520	1	3	-0.199879	-13.8036	13.6141	0.385389
 521	1	3	-0.080819	-13.504	13.0882	-0.902787
 522	1	6	0.152396	-14.3311	11.8142	-2.50682
 523	1	6	0.149363	-15.2342	13.7209	2.03514
 524	1	6	0.171749	-13.066	14.2202	0.907573
 525	1	7	-0.126864	-12.0877	13.3451	-1.50784
 526	1	7	0.414085	-11.0989	12.3932	-0.729991
 527	1	8	-0.136036	-9.87594	12.303	-1.29904
 528	1	8	-0.12675	-11.5802	11.131	-0.656549
 529	1	8	-0.136493	-10.9119	12.8	0.546122
 530	1	7	0.412463	-11.992	13.0276	-3.04856
 531	1	8	-0.134035	-10.8344	13.4786	-3.58377
 532	1	8	-0.126523	-12.984	13.6305	-3.74218
 533	1	8	-0.120355	-12.0567	11.7059	-3.32634
 534	1	3	-0.02363	-11.7369	14.8561	-1.36013
 535	1	3	-0.07382	-10.4371	15.3167	-1.01092
 536	1	3	-0.058666	-10.1929	16.6967	-0.961911
 537	1	3	-0.05367	-12.7336	15.8259	-1.66244
 538	1	3	-0.161949	-12.4664	17.2089	-1.61087
 539	1	3	-0.052731	-11.1761	17.6159	-1.25592
 540	1	2	0.511278	-10.5929	18.9785	-1.12998
 541	1	1	-0.11022	-9.26927	18.7939	-0.745894
 542	1	2	0.48346	-8.94793	17.4452	-0.631403
 543	1	3	0.062835	-8.36282	19.8664	-0.493414
 544	1	3	-0.214737	-7.05008	19.8436	-0.998602
 545	1	3	-0.092253	-6.18122	20.9293	-0.783145
 546	1	3	-0.160974	-8.77819	20.9878	0.246891
 547	1	3	-0.148646	-7.91353	22.0754	0.456215
 548	1	3	0.041241	-6.59859	22.0677	-0.0606798
 549	1	6	0.160326	-6.69907	18.9866	-1.56824
 550	1	6	0.154695	-9.78903	21.0328	0.644179
 551	1	6	0.134327	-8.29268	22.9277	1.00921
 552	1	6	0.119951	-5.17608	20.892	-1.19562
 553	1	6	0.172628	-13.2329	17.9436	-1.85065
 554	1	6	0.137279	-13.7294	15.5041	-1.95709
 555	1	6	0.14105	-9.61547	14.6425	-0.792557
 556	1	5	-0.471402	-7.88132	16.9513	-0.309852
 557	1	5	-0.485833	-11.1849	20.0266	-1.32334
 558	1	7	0.140024	-5.6395	23.2733	0.0811837
 559	1	7	-0.178691	-6.14493	24.3417	1.08985
 560	1	9	0.043413	-5.39851	25.1366	1.21582
 561	1	9	0.047557	-6.32748	23.9022	2.07871
 562	1	9	0.063016	-7.07245	24.816	0.745526
 563	1	7	-0.187892	-5.57536	23.9667	-1.30718
 564	1	9	0.043685	-6.58357	24.2216	-1.65873
 565	1	9	0.055699	-5.11947	23.3109	-2.05955
 566	1	9	0.057684	-4.99752	24.8987	-1.26567
 567	1	3	-0.164758	-3.04299	23.1825	-0.0203928
 568	1	3	-0.151844	-4.19022	21.9954	1.74207
 569	1	3	-0.169902	-2.95684	21.5837	2.27344
 570	1	3	0.006445	-1.73992	21.9691	1.66939
 571	1	3	-0.175352	-1.80945	22.7649	0.50759
 572	1	6	0.13478	-2.97038	20.9592	3.16007
 573	1	6	0.147112	-0.892059	23.0736	0.0124723
 574	1	3	0.014571	-4.25841	22.8016	0.588885
 575	1	6	0.127309	-5.10618	21.6858	2.23847
 576	1	6	0.132317	-3.0326	23.8107	-0.90452
 577	1	7	0.14442	-0.356134	21.5198	2.19982
 578	1	3	-0.008293	0.59616	22.7233	2.40342
 579	1	7	-0.149636	0.200409	20.5111	1.15588
 580	1	7	-0.207624	-0.441231	20.7774	3.55995
 581	1	3	-0.056733	1.99626	22.5623	2.33933
 582	1	3	-0.427248	2.86223	23.6496	2.5419
 583	1	3	0.300563	2.37042	24.9433	2.813
 584	1	3	-0.034917	0.099766	24.0047	2.72787
 585	1	3	-0.460652	0.97062	25.096	2.91285
 586	1	6	0.132306	2.43061	21.5887	2.1354
 587	1	6	0.20081	3.9346	23.4845	2.4668
 588	1	6	0.203835	0.549443	26.0702	3.15074
 589	1	6	0.127298	-0.971293	24.1631	2.83472
 590	1	9	0.047033	-0.90354	21.4131	4.32595
 591	1	9	0.065326	0.559232	20.5043	3.91876
 592	1	9	0.056928	-1.02276	19.8505	3.47636
 593	1	9	0.032023	-0.554148	19.7515	0.913211
 594	1	9	0.058797	1.08333	19.9773	1.52632
 595	1	9	0.03359	0.47498	21.018	0.222057
 596	1	1	0.469872	-26.9259	-8.33393	6.60572
 597	1	2	0.06277	-27.0262	-7.9207	5.2728
 598	1	3	0.008141	-28.1641	-6.96528	5.24246
 599	1	2	0.04539	-27.8692	-7.70657	7.42587
 600	1	3	0.033062	-28.6648	-6.84481	6.51984
 601	1	5	-0.387649	-26.3745	-8.2835	4.30678
 602	1	5	-0.380594	-28.043	-7.82406	8.62822
 603	1	3	0.006556	-28.7424	-6.28656	4.16428
 604	1	3	-0.023388	-29.7755	-6.04507	6.79255
 605	1	3	-0.199879	-30.3879	-5.36924	5.71731
 606	1	3	-0.080819	-29.8869	-5.47401	4.38732
 607	1	6	0.152396	-28.3144	-6.41015	3.17301
 608	1	6	0.149363	-30.163	-5.96996	7.80623
 609	1	6	0.171749	-31.2656	-4.77524	5.94864
 610	1	7	-0.126864	-30.5554	-4.77029	3.16746
 611	1	7	0.414085	-31.6695	-3.72256	3.55392
 612	1	8	-0.136036	-32.0823	-3.01084	2.4804
 613	1	8	-0.12675	-31.2211	-2.80844	4.44398
 614	1	8	-0.136493	-32.772	-4.29457	4.08906
 615	1	7	0.412463	-31.2222	-5.90975	2.2994
 616	1	8	-0.134035	-32.0396	-5.44629	1.32747
 617	1	8	-0.126523	-31.9675	-6.74052	3.06344
 618	1	8	-0.120355	-30.3021	-6.68864	1.68739
 619	1	3	-0.02363	-29.4479	-3.97024	2.42518
 620	1	3	-0.07382	-28.5389	-3.19425	3.19183
 621	1	3	-0.058666	-27.5711	-2.42547	2.53412
 622	1	3	-0.05367	-29.3427	-3.92555	1.00528
 623	1	3	-0.161949	-28.3525	-3.15339	0.363097
 624	1	3	-0.052731	-27.4756	-2.40878	1.15922
 625	1	2	0.511278	-26.3657	-1.49205	0.782339
 626	1	1	-0.11022	-25.8644	-0.998127	1.97789
 627	1	2	0.48346	-26.532	-1.51155	3.08137
 628	1	3	0.062835	-24.7797	-0.0849661	2.05662
 629	1	3	-0.214737	-24.942	1.17526	2.65571
 630	1	3	-0.092253	-23.8612	2.07302	2.72579
 631	1	3	-0.160974	-23.527	-0.431956	1.5263
 632	1	3	-0.148646	-22.4452	0.461873	1.60282
 633	1	3	0.041241	-22.5933	1.73313	2.20519
 634	1	6	0.160326	-25.9042	1.4586	3.07429
 635	1	6	0.154695	-23.3898	-1.40123	1.05377
 636	1	6	0.134327	-21.4941	0.143624	1.19015
 637	1	6	0.119951	-24.0073	3.04204	3.19629
 638	1	6	0.172628	-28.2774	-3.11916	-0.722283
 639	1	6	0.137279	-30.0319	-4.4762	0.374499
 640	1	6	0.14105	-28.591	-3.16742	4.27812
 641	1	5	-0.471402	-26.325	-1.27816	4.25917
 642	1	5	-0.485833	-25.9854	-1.24593	-0.348984
 643	1	7	0.140024	-21.4182	2.7301	2.3594
 644	1	7	-0.178691	-20.129	2.26855	1.62801
 645	1	9	0.043413	-19.3346	3.01884	1.73204
 646	1	9	0.047557	-20.3119	2.13139	0.554508
 647	1	9	0.063016	-19.7463	1.32687	2.04124
 648	1	7	-0.187892	-21.0831	2.78988	3.87608
 649	1	9	0.043685	-20.1456	3.32624	4.06737
 650	1	9	0.055699	-20.9654	1.77815	4.28536
 651	1	9	0.057684	-21.8826	3.28624	4.44046
 652	1	3	-0.164758	-21.3093	5.3164	2.35155