pySIMM System Object

3742 atoms
4049 bonds
7128 angles
10996 dihedrals
1232 impropers

9 atom types
11 bond types
18 angle types
8 dihedral types
4 improper types

-237.762143 237.762143 xlo xhi
-237.762143 237.762143 ylo yhi
-237.762143 237.762143 zlo zhi

Masses

   1	14.01	# n
   2	12.01	# c
   3	12.01	# ca
   4	1.008	# hn
   5	16.0	# o
   6	1.008	# ha
   7	12.01	# c3
   8	19.0	# f
   9	1.008	# hc

Pair Coeffs

   1	0.17	3.249998523775958	# n
   2	0.086	3.3996695084235347	# c
   3	0.086	3.3996695084235347	# ca
   4	0.0157	1.069078461768407	# hn
   5	0.21	2.959921901149463	# o
   6	0.015	2.59964245953351	# ha
   7	0.1094	3.3996695084235347	# c3
   8	0.061	3.1181455134911875	# f
   9	0.0157	2.649532787749369	# hc

Bond Coeffs

   1	345.8	1.086	# ca,ha
   2	384.2	1.4121	# ca,n
   3	637.7	1.2183	# c,o
   4	321.0	1.5156	# c3,ca
   5	461.1	1.3984	# ca,ca
   6	300.9	1.5375	# c3,c3
   7	330.6	1.0969	# c3,hc
   8	403.2	1.0129	# hn,n
   9	356.9	1.3497	# c3,f
  10	427.6	1.3789	# c,n
  11	345.9	1.4906	# c,ca

Angle Coeffs

   1	48.33	117.55	# c,n,hn
   2	74.22	123.05	# n,c,o
   3	64.28	120.33	# c,ca,ca
   4	70.89	107.36	# f,c3,f
   5	66.11	109.24	# c3,c3,f
   6	67.87	120.19	# ca,ca,n
   7	39.4	107.58	# hc,c3,hc
   8	63.53	120.77	# c3,ca,ca
   9	66.62	120.02	# ca,ca,ca
  10	63.82	123.71	# c,n,ca
  11	62.86	111.51	# c3,c3,c3
  12	46.34	109.8	# c3,c3,hc
  13	63.74	127.08	# c,n,c
  14	48.18	119.88	# ca,ca,ha
  15	68.72	122.6	# ca,c,o
  16	63.56	112.24	# ca,c3,ca
  17	63.15	112.07	# c3,c3,ca
  18	67.68	115.25	# ca,c,n

Dihedral Coeffs

   1	2	2.5	2	180	2.0	1	0	# hn,n,c,o
   2	1	3.625	2	180	# X,ca,ca,X
   3	1	0.16	3	0	# hc,c3,c3,c3
   4	1	1.0	2	180	# X,c,ca,X
   5	1	0.15555555555555556	3	0	# X,c3,c3,X
   6	1	0.0	2	0	# X,c3,ca,X
   7	1	2.5	2	180	# X,c,n,X
   8	1	0.45	2	180	# X,ca,n,X

Improper Coeffs

   1	10.5	-1	2	# c,X,X,o
   2	1.1	-1	2	# ca,X,X,ha
   3	1.1	-1	2	# ca,ca,ca,c3
   4	1.1	-1	2	# n,X,X,hn

Atoms

   1	1	1	0.469872	-60.5996	121.435	-0.444957
   2	1	2	0.06277	-60.8451	122.391	0.545444
   3	1	3	0.008141	-62.1988	122.925	0.25062
   4	1	2	0.04539	-61.6727	121.302	-1.3308
   5	1	3	0.033062	-62.6879	122.277	-0.86367
   6	1	5	-0.387649	-60.1132	122.764	1.44772
   7	1	5	-0.380594	-61.7839	120.562	-2.29525
   8	1	3	0.006556	-62.9314	123.921	0.906954
   9	1	3	-0.023388	-63.9455	122.583	-1.38632
  10	1	3	-0.199879	-64.698	123.588	-0.745344
  11	1	3	-0.080819	-64.2078	124.283	0.396329
  12	1	6	0.152396	-62.4913	124.388	1.78157
  13	1	6	0.149363	-64.3214	122.061	-2.26345
  14	1	6	0.171749	-65.6788	123.83	-1.1495
  15	1	7	-0.126864	-65.1021	125.385	1.04037
  16	1	7	0.414085	-66.2285	124.63	1.84519
  17	1	8	-0.136036	-66.9583	125.443	2.64115
  18	1	8	-0.12675	-65.707	123.674	2.64707
  19	1	8	-0.136493	-67.0967	123.999	1.02286
  20	1	7	0.412463	-64.3271	126.343	2.02318
  21	1	8	-0.134035	-65.0751	127.415	2.3706
  22	1	8	-0.126523	-63.2051	126.84	1.45455
  23	1	8	-0.120355	-63.9549	125.739	3.17404
  24	1	3	-0.02363	-65.6464	126.289	-0.104101
  25	1	3	-0.07382	-66.9899	126.748	-0.152781
  26	1	3	-0.058666	-67.3876	127.567	-1.21804
  27	1	3	-0.05367	-64.7536	126.71	-1.13097
  28	1	3	-0.161949	-65.175	127.532	-2.19417
  29	1	3	-0.052731	-66.5105	127.944	-2.21177
  30	1	2	0.511278	-67.2451	128.796	-3.1839
  31	1	1	-0.11022	-68.5459	128.88	-2.70339
  32	1	2	0.48346	-68.7129	128.169	-1.52069
  33	1	3	0.062835	-69.5907	129.592	-3.35528
  34	1	3	-0.214737	-70.4331	130.451	-2.62812
  35	1	3	-0.092253	-71.4795	131.138	-3.26686
  36	1	3	-0.160974	-69.8041	129.44	-4.73617
  37	1	3	-0.148646	-70.8479	130.129	-5.37497
  38	1	3	0.041241	-71.7101	130.98	-4.65184
  39	1	6	0.160326	-70.2871	130.579	-1.5582
  40	1	6	0.154695	-69.1608	128.787	-5.31984
  41	1	6	0.134327	-70.9963	129.99	-6.44286
  42	1	6	0.119951	-72.1088	131.786	-2.6654
  43	1	6	0.172628	-64.4873	127.844	-2.97816
  44	1	6	0.137279	-63.7141	126.392	-1.10845
  45	1	6	0.14105	-67.7252	126.492	0.602815
  46	1	5	-0.471402	-69.7285	128.032	-0.861083
  47	1	5	-0.485833	-66.7809	129.287	-4.19836
  48	1	7	0.140024	-72.858	131.693	-5.4006
  49	1	7	-0.178691	-72.2211	132.814	-6.26544
  50	1	9	0.043413	-71.6305	133.496	-5.64034
  51	1	9	0.047557	-72.987	133.414	-6.77369
  52	1	9	0.063016	-71.5483	132.398	-7.02579
  53	1	7	-0.187892	-73.8783	132.381	-4.45333
  54	1	9	0.043685	-74.303	131.669	-3.73527
  55	1	9	0.055699	-74.7114	132.806	-5.02855
  56	1	9	0.057684	-73.4158	133.203	-3.89142
  57	1	3	-0.164758	-74.0916	129.473	-5.59744
  58	1	3	-0.151844	-73.9049	130.8	-7.60738
  59	1	3	-0.169902	-74.6012	129.809	-8.31868
  60	1	3	0.006445	-75.0591	128.636	-7.68531
  61	1	3	-0.175352	-74.788	128.482	-6.3089
  62	1	6	0.13478	-74.7913	129.957	-9.37881
  63	1	6	0.147112	-75.1059	127.596	-5.77008
  64	1	3	0.014571	-73.6337	130.646	-6.23096
  65	1	6	0.127309	-73.5813	131.684	-8.14695
  66	1	6	0.132317	-73.8964	129.32	-4.5387
  67	1	7	0.14442	-75.8147	127.576	-8.5184
  68	1	3	-0.008293	-76.9502	128.261	-9.31061
  69	1	7	-0.149636	-76.4657	126.466	-7.64988
  70	1	7	-0.207624	-74.7648	126.879	-9.42645
  71	1	3	-0.056733	-77.8155	129.152	-8.63775
  72	1	3	-0.427248	-78.8629	129.795	-9.32037
  73	1	3	0.300563	-79.0717	129.558	-10.6838
  74	1	3	-0.034917	-77.1777	128.022	-10.6857
  75	1	3	-0.460652	-78.2281	128.669	-11.3619
  76	1	6	0.132306	-77.6706	129.35	-7.57784
  77	1	6	0.20081	-79.518	130.482	-8.79355
  78	1	6	0.203835	-78.395	128.482	-12.4178
  79	1	6	0.127298	-76.5494	127.337	-11.2449
  80	1	9	0.047033	-74.3387	127.58	-10.1552
  81	1	9	0.065326	-75.2009	126.033	-9.97331
  82	1	9	0.056928	-73.9363	126.486	-8.82278
  83	1	9	0.032023	-77.151	126.891	-6.90601
  84	1	9	0.058797	-75.7076	125.873	-7.12221
  85	1	9	0.03359	-77.0448	125.774	-8.27568
  86	1	1	0.469872	-45.0607	103.437	-3.64606
  87	1	2	0.06277	-45.8064	104.591	-3.38572
  88	1	3	0.008141	-46.771	104.696	-4.50936
  89	1	2	0.04539	-45.4686	102.794	-4.81771
  90	1	3	0.033062	-46.5695	103.629	-5.35741
  91	1	5	-0.387649	-45.7155	105.366	-2.44752
  92	1	5	-0.380594	-45.0207	101.782	-5.33285
  93	1	3	0.006556	-47.7338	105.675	-4.77806
  94	1	3	-0.023388	-47.3188	103.48	-6.52572
  95	1	3	-0.199879	-48.296	104.455	-6.81645
  96	1	3	-0.080819	-48.529	105.561	-5.94931
  97	1	6	0.152396	-47.8468	106.511	-4.09152
  98	1	6	0.149363	-47.1352	102.641	-7.1938
  99	1	6	0.171749	-48.8517	104.334	-7.74024
 100	1	7	-0.126864	-49.5655	106.681	-6.26659
 101	1	7	0.414085	-48.7369	107.902	-6.82113
 102	1	8	-0.136036	-47.9946	108.481	-5.85024
 103	1	8	-0.12675	-49.5039	108.872	-7.36752
 104	1	8	-0.136493	-47.8658	107.517	-7.7814
 105	1	7	0.412463	-50.6458	106.268	-7.33776
 106	1	8	-0.134035	-50.1481	106.166	-8.59097
 107	1	8	-0.126523	-51.6576	107.163	-7.39902
 108	1	8	-0.120355	-51.2181	105.08	-7.03703
 109	1	3	-0.02363	-50.3566	107.001	-4.96461
 110	1	3	-0.07382	-50.7119	108.324	-4.5898
 111	1	3	-0.058666	-51.4854	108.519	-3.43863
 112	1	3	-0.05367	-50.8174	105.926	-4.15282
 113	1	3	-0.161949	-51.594	106.145	-2.99661
 114	1	3	-0.052731	-51.9165	107.464	-2.66395
 115	1	2	0.511278	-52.76	108.009	-1.56505
 116	1	1	-0.11022	-52.7947	109.385	-1.76093
 117	1	2	0.48346	-52.0359	109.772	-2.85938
 118	1	3	0.062835	-53.5658	110.282	-0.967307
 119	1	3	-0.214737	-53.5569	110.193	0.436074
 120	1	3	-0.092253	-54.3502	111.055	1.21478
 121	1	3	-0.160974	-54.3798	111.253	-1.57736
 122	1	3	-0.148646	-55.1711	112.114	-0.800033
 123	1	3	0.041241	-55.1681	112.035	0.608885
 124	1	6	0.160326	-52.949	109.439	0.929281
 125	1	6	0.154695	-54.4069	111.34	-2.66066
 126	1	6	0.134327	-55.7983	112.847	-1.30183
 127	1	6	0.119951	-54.3293	110.936	2.29273
 128	1	6	0.172628	-51.9562	105.316	-2.39063
 129	1	6	0.137279	-50.5884	104.9	-4.43188
 130	1	6	0.14105	-50.4312	109.195	-5.17286
 131	1	5	-0.471402	-51.8699	110.895	-3.30236
 132	1	5	-0.485833	-53.3316	107.354	-0.710557
 133	1	7	0.140024	-56.0929	112.97	1.42067
 134	1	7	-0.178691	-55.7107	113.053	2.92549
 135	1	9	0.043413	-55.879	112.099	3.44042
 136	1	9	0.047557	-56.3212	113.81	3.43511
 137	1	9	0.063016	-54.6581	113.331	3.05941
 138	1	7	-0.187892	-57.5217	112.365	1.35998
 139	1	9	0.043685	-58.2365	112.969	1.93342
 140	1	9	0.055699	-57.5318	111.351	1.77983
 141	1	9	0.057684	-57.8797	112.292	0.325236
 142	1	3	-0.164758	-54.7671	115.06	0.815249
 143	1	3	-0.151844	-57.1232	115.076	0.289473
 144	1	3	-0.169902	-56.9889	116.362	-0.259297
 145	1	3	0.006445	-55.7489	117.036	-0.253983
 146	1	3	-0.175352	-54.6364	116.352	0.280352
 147	1	6	0.13478	-57.8656	116.831	-0.698303
 148	1	6	0.147112	-53.6506	116.804	0.266966
 149	1	3	0.014571	-56.0117	114.401	0.83939
 150	1	6	0.127309	-58.1038	114.613	0.263356
 151	1	6	0.132317	-53.883	114.559	1.20011
 152	1	7	0.14442	-55.6018	118.435	-0.895734
 153	1	3	-0.008293	-56.9272	119.231	-0.811856
 154	1	7	-0.149636	-55.12	118.21	-2.35393
 155	1	7	-0.207624	-54.5199	119.293	-0.181276
 156	1	3	-0.056733	-57.5577	119.793	-1.94335
 157	1	3	-0.427248	-58.7565	120.516	-1.81592
 158	1	3	0.300563	-59.3742	120.699	-0.561715
 159	1	3	-0.034917	-57.5369	119.424	0.445232
 160	1	3	-0.460652	-58.7416	120.139	0.567124
 161	1	6	0.132306	-57.1319	119.68	-2.93553
 162	1	6	0.20081	-59.219	120.927	-2.71039
 163	1	6	0.203835	-59.1788	120.272	1.55411
 164	1	6	0.127298	-57.073	119.006	1.33637
 165	1	9	0.047033	-54.5374	120.325	-0.555631
 166	1	9	0.065326	-53.5081	118.907	-0.352932
 167	1	9	0.056928	-54.6917	119.328	0.901794
 168	1	9	0.032023	-55.8695	117.658	-2.93544
 169	1	9	0.058797	-54.194	117.621	-2.37134
 170	1	9	0.03359	-54.9134	119.161	-2.86154
 171	1	1	0.469872	-29.4181	98.2436	15.3795
 172	1	2	0.06277	-28.6777	98.8101	14.3369
 173	1	3	0.008141	-29.6702	99.1474	13.2853
 174	1	2	0.04539	-30.7853	98.1941	15.0911
 175	1	3	0.033062	-30.9201	98.7788	13.734
 176	1	5	-0.387649	-27.4738	98.9962	14.2645
 177	1	5	-0.380594	-31.7022	97.7862	15.7857
 178	1	3	0.006556	-29.4783	99.7198	12.0224
 179	1	3	-0.023388	-32.0555	98.9542	12.9409
 180	1	3	-0.199879	-31.8854	99.525	11.663
 181	1	3	-0.080819	-30.6073	99.9324	11.1855
 182	1	6	0.152396	-28.4669	99.969	11.7197
 183	1	6	0.149363	-33.0338	98.6436	13.3014
 184	1	6	0.171749	-32.7649	99.6384	11.0328
 185	1	7	-0.126864	-30.4873	100.514	9.74551
 186	1	7	0.414085	-29.1964	101.393	9.52402
 187	1	8	-0.136036	-29.0292	102.293	10.519
 188	1	8	-0.12675	-29.2709	102.104	8.37581
 189	1	8	-0.136493	-28.0554	100.671	9.45491
 190	1	7	0.412463	-30.4339	99.2728	8.77636
 191	1	8	-0.134035	-29.4982	98.3753	9.16244
 192	1	8	-0.126523	-30.1446	99.6074	7.49858
 193	1	8	-0.120355	-31.6074	98.6003	8.76269
 194	1	3	-0.02363	-31.7035	101.456	9.49142
 195	1	3	-0.07382	-32.493	101.401	8.31101
 196	1	3	-0.058666	-33.57	102.286	8.17299
 197	1	3	-0.05367	-32.0326	102.432	10.4739
 198	1	3	-0.161949	-33.1163	103.319	10.3112
 199	1	3	-0.052731	-33.8748	103.219	9.14058
 200	1	2	0.511278	-35.0681	103.985	8.68899
 201	1	1	-0.11022	-35.4191	103.444	7.45866
 202	1	2	0.48346	-34.5619	102.421	7.07373
 203	1	3	0.062835	-36.5395	103.871	6.69316
 204	1	3	-0.214737	-36.7584	105.237	6.44547
 205	1	3	-0.092253	-37.8695	105.66	5.69522
 206	1	3	-0.160974	-37.4539	102.934	6.18285
 207	1	3	-0.148646	-38.5663	103.356	5.43589
 208	1	3	0.041241	-38.7879	104.724	5.16834
 209	1	6	0.160326	-36.0717	105.979	6.84508
 210	1	6	0.154695	-37.3032	101.872	6.36201
 211	1	6	0.134327	-39.2602	102.61	5.05614
 212	1	6	0.119951	-38.0067	106.724	5.53848
 213	1	6	0.172628	-33.3631	104.059	11.0706
 214	1	6	0.137279	-31.4427	102.502	11.3845
 215	1	6	0.14105	-32.303	100.699	7.50676
 216	1	5	-0.471402	-34.6096	101.74	6.06444
 217	1	5	-0.485833	-35.6173	104.885	9.30199
 218	1	7	0.140024	-40.0339	105.146	4.35686
 219	1	7	-0.178691	-39.9452	106.598	3.81327
 220	1	9	0.043413	-39.0315	106.747	3.22403
 221	1	9	0.047557	-39.9584	107.337	4.624
 222	1	9	0.063016	-40.7999	106.816	3.15974
 223	1	7	-0.187892	-41.2435	105.094	5.32868
 224	1	9	0.043685	-42.1582	105.474	4.8559
 225	1	9	0.055699	-41.0532	105.712	6.21597
 226	1	9	0.057684	-41.4305	104.07	5.67354
 227	1	3	-0.164758	-41.4221	103.601	2.79452
 228	1	3	-0.151844	-39.0902	103.983	2.29257
 229	1	3	-0.169902	-39.1897	103.149	1.16738
 230	1	3	0.006445	-40.4122	102.528	0.833257
 231	1	3	-0.175352	-41.5221	102.769	1.66786
 232	1	6	0.13478	-38.2998	102.995	0.566499
 233	1	6	0.147112	-42.4798	102.309	1.43584
 234	1	3	0.014571	-40.1984	104.218	3.1314
 235	1	6	0.127309	-38.1338	104.447	2.51926
 236	1	6	0.132317	-42.3124	103.758	3.39406
 237	1	7	0.14442	-40.5782	101.597	-0.389023
 238	1	3	-0.008293	-41.7957	102.054	-1.22271
 239	1	7	-0.149636	-40.7172	100.15	0.157409
 240	1	7	-0.207624	-39.349	101.607	-1.33764
 241	1	3	-0.056733	-41.9378	103.419	-1.54229
 242	1	3	-0.427248	-43.0124	103.872	-2.32648
 243	1	3	0.300563	-43.9827	102.977	-2.82085
 244	1	3	-0.034917	-42.7642	101.154	-1.7175
 245	1	3	-0.460652	-43.8412	101.612	-2.49682
 246	1	6	0.132306	-41.2041	104.137	-1.18062
 247	1	6	0.20081	-43.0926	104.934	-2.5487
 248	1	6	0.203835	-44.5586	100.889	-2.87931
 249	1	6	0.127298	-42.6889	100.089	-1.51647
 250	1	9	0.047033	-39.537	100.981	-2.21997
 251	1	9	0.065326	-38.4537	101.213	-0.840571
 252	1	9	0.056928	-39.1295	102.621	-1.69361
 253	1	9	0.032023	-41.6392	100.03	0.740067
 254	1	9	0.058797	-39.8745	99.9064	0.817468
 255	1	9	0.03359	-40.722	99.4097	-0.652648
 256	1	1	0.469872	-14.4507	83.3773	24.8218
 257	1	2	0.06277	-15.3354	83.9288	23.8894
 258	1	3	0.008141	-14.5943	85.0444	23.2562
 259	1	2	0.04539	-13.2175	84.0404	24.8351
 260	1	3	0.033062	-13.3354	85.1082	23.8098
 261	1	5	-0.387649	-16.4729	83.5871	23.6086
 262	1	5	-0.380594	-12.2424	83.8359	25.5401
 263	1	3	0.006556	-15.0093	85.9393	22.2682
 264	1	3	-0.023388	-12.4086	86.0651	23.3876
 265	1	3	-0.199879	-12.8042	86.9785	22.386
 266	1	3	-0.080819	-14.1129	86.9456	21.8233
 267	1	6	0.152396	-16.0173	85.854	21.8693
 268	1	6	0.149363	-11.4128	86.0964	23.8246
 269	1	6	0.171749	-12.0707	87.7103	22.063
 270	1	7	-0.126864	-14.6077	87.9504	20.7413
 271	1	7	0.414085	-13.7072	89.2355	20.5914
 272	1	8	-0.136036	-13.4726	89.8297	21.7833
 273	1	8	-0.12675	-14.3037	90.1729	19.8204
 274	1	8	-0.136493	-12.5023	88.9821	20.0327
 275	1	7	0.412463	-14.6109	87.1687	19.3715
 276	1	8	-0.134035	-13.4271	86.5539	19.1483
 277	1	8	-0.126523	-14.8442	87.9615	18.3017
 278	1	8	-0.120355	-15.5464	86.1924	19.3503
 279	1	3	-0.02363	-16.0133	88.4479	21.1888
 280	1	3	-0.07382	-17.1237	88.537	20.3072
 281	1	3	-0.058666	-18.3577	88.9657	20.8152
 282	1	3	-0.05367	-16.1978	88.8377	22.5462
 283	1	3	-0.161949	-17.4468	89.2668	23.0353
 284	1	3	-0.052731	-18.5179	89.3126	22.139
 285	1	2	0.511278	-19.9383	89.6942	22.3541
 286	1	1	-0.11022	-20.5607	89.5515	21.119
 287	1	2	0.48346	-19.6728	89.1208	20.1383
 288	1	3	0.062835	-21.9465	89.7997	20.894
 289	1	3	-0.214737	-22.5754	90.919	21.467
 290	1	3	-0.092253	-23.9484	91.1452	21.2772
 291	1	3	-0.160974	-22.7208	88.9151	20.1215
 292	1	3	-0.148646	-24.0926	89.1476	19.9209
 293	1	3	0.041241	-24.7297	90.2743	20.4863
 294	1	6	0.160326	-22.0064	91.6105	22.0833
 295	1	6	0.154695	-22.2619	88.0368	19.6747
 296	1	6	0.134327	-24.655	88.4305	19.3327
 297	1	6	0.119951	-24.403	92.0048	21.762
 298	1	6	0.172628	-17.5827	89.5504	24.0774
 299	1	6	0.137279	-15.3617	88.7973	23.2403
 300	1	6	0.14105	-17.061	88.2771	19.2554
 301	1	5	-0.471402	-19.8994	88.8944	18.9625
 302	1	5	-0.485833	-20.4291	90.0399	23.4153
 303	1	7	0.140024	-26.2478	90.5157	20.3235
 304	1	7	-0.178691	-26.9584	89.7109	21.4447
 305	1	9	0.043413	-26.6315	90.0435	22.4383
 306	1	9	0.047557	-26.7238	88.6415	21.3666
 307	1	9	0.063016	-28.049	89.8163	21.3819
 308	1	7	-0.187892	-26.7913	89.9783	18.9691
 309	1	9	0.043685	-26.1962	90.3457	18.1239
 310	1	9	0.055699	-27.8282	90.3038	18.815
 311	1	9	0.057684	-26.7887	88.8822	18.9318
 312	1	3	-0.164758	-27.366	92.618	21.3745
 313	1	3	-0.151844	-25.986	92.8857	19.4108
 314	1	3	-0.169902	-26.2084	94.2719	19.4432
 315	1	3	0.006445	-27.0086	94.859	20.4435
 316	1	3	-0.175352	-27.585	94.0055	21.4089
 317	1	6	0.13478	-25.7466	94.8978	18.684
 318	1	6	0.147112	-28.2041	94.402	22.2065
 319	1	3	0.014571	-26.5578	92.0317	20.3758
 320	1	6	0.127309	-25.3464	92.4742	18.6346
 321	1	6	0.132317	-27.8271	92.0136	22.1481
 322	1	7	0.14442	-27.1962	96.3943	20.4566
 323	1	3	-0.008293	-27.729	96.878	19.0898
 324	1	7	-0.149636	-25.819	97.0136	20.823
 325	1	7	-0.207624	-28.2098	96.8763	21.5289
 326	1	3	-0.056733	-27.3002	98.0843	18.495
 327	1	3	-0.427248	-27.8495	98.5235	17.2776
 328	1	3	0.300563	-28.8444	97.7792	16.6103
 329	1	3	-0.034917	-28.7306	96.1368	18.4299
 330	1	3	-0.460652	-29.2705	96.575	17.2083
 331	1	6	0.132306	-26.5469	98.7027	18.9732
 332	1	6	0.20081	-27.4931	99.4557	16.8452
 333	1	6	0.203835	-30.0503	95.9823	16.7353
 334	1	6	0.127298	-29.104	95.216	18.8736
 335	1	9	0.047033	-29.1951	96.4172	21.3776
 336	1	9	0.065326	-28.3428	97.9644	21.474
 337	1	9	0.056928	-27.8659	96.6378	22.5433
 338	1	9	0.032023	-25.8924	98.0926	21.0073
 339	1	9	0.058797	-25.0842	96.8508	20.0247
 340	1	9	0.03359	-25.4222	96.5553	21.7383
 341	1	1	0.469872	-10.0088	63.2992	38.3984
 342	1	2	0.06277	-10.7721	64.0027	39.3346
 343	1	3	0.008141	-10.7455	65.4146	38.8825
 344	1	2	0.04539	-9.52404	64.1248	37.3798
 345	1	3	0.033062	-10.0031	65.4874	37.7234
 346	1	5	-0.387649	-11.3072	63.5927	40.3518
 347	1	5	-0.380594	-8.82879	63.8318	36.4206
 348	1	3	0.006556	-11.2848	66.5536	39.4892
 349	1	3	-0.023388	-9.75252	66.7121	37.1016
 350	1	3	-0.199879	-10.2828	67.875	37.6977
 351	1	3	-0.080819	-11.0641	67.8209	38.8874
 352	1	6	0.152396	-11.8296	66.4311	40.4191
 353	1	6	0.149363	-9.14212	66.7594	36.2024
 354	1	6	0.171749	-10.0585	68.8341	37.2355
 355	1	7	-0.126864	-11.5562	69.1481	39.5353
 356	1	7	0.414085	-12.8042	68.9674	40.4823
 357	1	8	-0.136036	-13.7689	68.2212	39.8985
 358	1	8	-0.12675	-13.373	70.1564	40.7857
 359	1	8	-0.136493	-12.5097	68.3728	41.6599
 360	1	7	0.412463	-10.3444	69.693	40.3828
 361	1	8	-0.134035	-10.671	70.7521	41.1571
 362	1	8	-0.126523	-9.31388	70.0713	39.5924
 363	1	8	-0.120355	-9.84563	68.7478	41.212
 364	1	3	-0.02363	-12.0104	70.1108	38.3982
 365	1	3	-0.07382	-11.6098	71.4717	38.3331
 366	1	3	-0.058666	-12.0596	72.26	37.2678
 367	1	3	-0.05367	-12.8797	69.6167	37.3842
 368	1	3	-0.161949	-13.327	70.4308	36.3236
 369	1	3	-0.052731	-12.8931	71.7598	36.2909
 370	1	2	0.511278	-13.1555	72.8435	35.3049
 371	1	1	-0.11022	-12.4314	73.9404	35.7531
 372	1	2	0.48346	-11.7562	73.6758	36.937
 373	1	3	0.062835	-12.347	75.1758	35.0566
 374	1	3	-0.214737	-13.5085	75.8414	34.6315
 375	1	3	-0.092253	-13.4145	77.0604	33.9389
 376	1	3	-0.160974	-11.0936	75.749	34.7819
 377	1	3	-0.148646	-10.999	76.9641	34.0839
 378	1	3	0.041241	-12.16	77.6348	33.639
 379	1	6	0.160326	-14.4874	75.4121	34.83
 380	1	6	0.154695	-10.1851	75.2537	35.1156
 381	1	6	0.134327	-10.0112	77.3725	33.9
 382	1	6	0.119951	-14.3271	77.5576	33.6197
 383	1	6	0.172628	-13.9826	70.0416	35.5466
 384	1	6	0.137279	-13.2064	68.58	37.4115
 385	1	6	0.14105	-10.9594	71.9315	39.0696
 386	1	5	-0.471402	-11.0195	74.4161	37.5649
 387	1	5	-0.485833	-13.8355	72.7489	34.2978
 388	1	7	0.140024	-12.1038	78.9732	32.868
 389	1	7	-0.178691	-10.6926	79.2952	32.3066
 390	1	9	0.043413	-10.3233	78.4784	31.6733
 391	1	9	0.047557	-9.96574	79.4689	33.1099
 392	1	9	0.063016	-10.7217	80.2032	31.6904
 393	1	7	-0.187892	-12.4632	80.0915	33.8836
 394	1	9	0.043685	-13.5062	80.006	34.2141
 395	1	9	0.055699	-12.3162	81.0912	33.4563
 396	1	9	0.057684	-11.8259	80.0223	34.7748
 397	1	3	-0.164758	-13.8815	80.0153	31.2949
 398	1	3	-0.151844	-13.1037	77.7726	30.8445
 399	1	3	-0.169902	-13.9573	77.6937	29.7318
 400	1	3	0.006445	-14.7842	78.7806	29.3777
 401	1	3	-0.175352	-14.726	79.9406	30.176
 402	1	6	0.13478	-13.9599	76.7761	29.153
 403	1	6	0.147112	-15.3394	80.8013	29.9229
 404	1	3	0.014571	-13.0619	78.9255	31.6563
 405	1	6	0.127309	-12.4723	76.9201	31.081
 406	1	6	0.132317	-13.8716	80.9364	31.8674
 407	1	7	0.14442	-15.7363	78.7575	28.1632
 408	1	3	-0.008293	-15.4363	79.9936	27.2875
 409	1	7	-0.149636	-17.1912	78.7225	28.7075
 410	1	7	-0.207624	-15.5763	77.4924	27.2739
 411	1	3	-0.056733	-14.1414	80.1552	26.7554
 412	1	3	-0.427248	-13.8209	81.2584	25.9461
 413	1	3	0.300563	-14.7747	82.2565	25.6594
 414	1	3	-0.034917	-16.3946	80.9908	27.0072
 415	1	3	-0.460652	-16.0628	82.1051	26.2172
 416	1	6	0.132306	-13.3739	79.4158	26.9738
 417	1	6	0.20081	-12.8109	81.3415	25.5514
 418	1	6	0.203835	-16.8303	82.8491	26.0164
 419	1	6	0.127298	-17.4061	80.9181	27.395
 420	1	9	0.047033	-14.547	77.3754	26.9135
 421	1	9	0.065326	-16.2284	77.5564	26.3933
 422	1	9	0.056928	-15.8499	76.5814	27.8214
 423	1	9	0.032023	-17.9233	78.6847	27.8906
 424	1	9	0.058797	-17.4118	79.6003	29.3273
 425	1	9	0.03359	-17.3478	77.8347	29.3337
 426	1	1	0.469872	-4.49953	43.252	53.2895
 427	1	2	0.06277	-3.60691	43.6674	52.299
 428	1	3	0.008141	-4.09541	44.9999	51.8641
 429	1	2	0.04539	-5.50869	44.1885	53.5253
 430	1	3	0.033062	-5.22061	45.312	52.5974
 431	1	5	-0.387649	-2.6278	43.0858	51.8607
 432	1	5	-0.380594	-6.43	44.1339	54.3236
 433	1	3	0.006556	-3.57224	45.874	50.9049
 434	1	3	-0.023388	-5.87974	46.5312	52.4258
 435	1	3	-0.199879	-5.36668	47.4299	51.4672
 436	1	3	-0.080819	-4.22447	47.1159	50.6771
 437	1	6	0.152396	-2.67542	45.5737	50.3741
 438	1	6	0.149363	-6.75329	46.7758	53.0262
 439	1	6	0.171749	-5.86421	48.39	51.3462
 440	1	7	-0.126864	-3.69556	48.1675	49.6558
 441	1	7	0.414085	-2.84344	49.1979	50.4894
 442	1	8	-0.136036	-3.62339	49.9421	51.306
 443	1	8	-0.12675	-2.13441	50.0535	49.719
 444	1	8	-0.136493	-1.95046	48.5733	51.2909
 445	1	7	0.412463	-2.78933	47.5476	48.5244
 446	1	8	-0.134035	-3.36732	46.4596	47.9665
 447	1	8	-0.126523	-1.56753	47.1663	48.9596
 448	1	8	-0.120355	-2.58023	48.4243	47.5158
 449	1	3	-0.02363	-4.91328	48.8091	48.925
 450	1	3	-0.07382	-5.01439	50.204	48.675
 451	1	3	-0.058666	-6.13166	50.691	47.9851
 452	1	3	-0.05367	-5.95068	47.9634	48.4386
 453	1	3	-0.161949	-7.06766	48.4752	47.7467
 454	1	3	-0.052731	-7.13072	49.8562	47.5343
 455	1	2	0.511278	-8.15566	50.6874	46.8452
 456	1	1	-0.11022	-7.69849	51.9972	46.9288
 457	1	2	0.48346	-6.48407	52.0824	47.6001
 458	1	3	0.062835	-8.39559	53.1228	46.4042
 459	1	3	-0.214737	-7.70873	54.1154	45.6841
 460	1	3	-0.092253	-8.38902	55.2426	45.1962
 461	1	3	-0.160974	-9.77777	53.275	46.6161
 462	1	3	-0.148646	-10.4605	54.4011	46.1238
 463	1	3	0.041241	-9.77533	55.4043	45.4027
 464	1	6	0.160326	-6.63846	54.028	45.5149
 465	1	6	0.154695	-10.3294	52.5196	47.1701
 466	1	6	0.134327	-11.5239	54.4839	46.3215
 467	1	6	0.119951	-7.82762	56.0035	44.6601
 468	1	6	0.172628	-7.8565	47.8211	47.3799
 469	1	6	0.137279	-5.89108	46.8895	48.5986
 470	1	6	0.14105	-4.25823	50.9147	48.9911
 471	1	5	-0.471402	-5.82952	53.079	47.8522
 472	1	5	-0.485833	-9.18458	50.2777	46.3358
 473	1	7	0.140024	-10.4683	56.6826	44.8844
 474	1	7	-0.178691	-10.1195	57.8264	45.8754
 475	1	9	0.043413	-10.6026	58.7685	45.5859
 476	1	9	0.047557	-9.03622	57.9942	45.9268
 477	1	9	0.063016	-10.4592	57.5775	46.889
 478	1	7	-0.187892	-12.0191	56.576	44.8615
 479	1	9	0.043685	-12.4355	56.5041	45.8741
 480	1	9	0.055699	-12.3546	55.7006	44.292
 481	1	9	0.057684	-12.4574	57.4658	44.3909
 482	1	3	-0.164758	-10.2214	55.9893	42.4421
 483	1	3	-0.151844	-9.33589	58.1493	43.0622
 484	1	3	-0.169902	-8.92417	58.3544	41.7362
 485	1	3	0.006445	-9.17689	57.3969	40.732
 486	1	3	-0.175352	-9.81995	56.2001	41.112
 487	1	6	0.13478	-8.41227	59.2806	41.4877
 488	1	6	0.147112	-10.0154	55.4178	40.3863
 489	1	3	0.014571	-10.0002	56.9625	43.438
 490	1	6	0.127309	-9.12695	58.9301	43.7855
 491	1	6	0.132317	-10.7093	55.0536	42.7023
 492	1	7	0.14442	-8.72481	57.6805	39.2814
 493	1	3	-0.008293	-9.04372	59.153	38.9401
 494	1	7	-0.149636	-9.44792	56.7923	38.232
 495	1	7	-0.207624	-7.21206	57.343	39.1994
 496	1	3	-0.056733	-10.3608	59.6223	39.1196
 497	1	3	-0.427248	-10.6834	60.9732	38.9113
 498	1	3	0.300563	-9.70029	61.9047	38.5208
 499	1	3	-0.034917	-8.06454	60.0739	38.5091
 500	1	3	-0.460652	-8.38989	61.4269	38.3097
 501	1	6	0.132306	-11.1338	58.9381	39.4636
 502	1	6	0.20081	-11.7009	61.307	39.1012
 503	1	6	0.203835	-7.60874	62.1156	37.9956
 504	1	6	0.127298	-7.03702	59.7619	38.3483
 505	1	9	0.047033	-6.82516	57.4745	38.1808
 506	1	9	0.065326	-7.03336	56.2997	39.4893
 507	1	9	0.056928	-6.62744	57.9758	39.8792
 508	1	9	0.032023	-10.5384	56.8635	38.3299
 509	1	9	0.058797	-9.16399	55.7372	38.3309
 510	1	9	0.03359	-9.18357	57.1063	37.214
 511	1	1	0.469872	-1.4517	17.8003	57.4117
 512	1	2	0.06277	-0.515976	18.8072	57.6612
 513	1	3	0.008141	-1.29033	20.0741	57.6569
 514	1	2	0.04539	-2.74523	18.3048	57.2517
 515	1	3	0.033062	-2.61417	19.7751	57.4168
 516	1	5	-0.387649	0.688873	18.7078	57.8263
 517	1	5	-0.380594	-3.77964	17.6981	57.0254
 518	1	3	0.006556	-0.85346	21.3887	57.8532
 519	1	3	-0.023388	-3.5841	20.779	57.3683
 520	1	3	-0.199879	-3.1657	22.1125	57.5628
 521	1	3	-0.080819	-1.80126	22.4476	57.7936
 522	1	6	0.152396	0.20118	21.5484	58.0484
 523	1	6	0.149363	-4.6279	20.529	57.191
 524	1	6	0.171749	-3.91903	22.8973	57.5357
 525	1	7	-0.126864	-1.41966	23.9434	58.0257
 526	1	7	0.414085	-1.88806	24.2929	59.4901
 527	1	8	-0.136036	-1.38367	25.4554	59.9602
 528	1	8	-0.12675	-1.51561	23.3354	60.3704
 529	1	8	-0.136493	-3.23465	24.3845	59.5721
 530	1	7	0.412463	0.125009	24.2244	57.8972
 531	1	8	-0.134035	0.399645	25.5487	57.8797
 532	1	8	-0.126523	0.620462	23.726	56.7415
 533	1	8	-0.120355	0.848332	23.6953	58.9097
 534	1	3	-0.02363	-2.1013	24.8216	56.9337
 535	1	3	-0.07382	-2.55303	26.1441	57.194
 536	1	3	-0.058666	-3.0842	26.9026	56.1418
 537	1	3	-0.05367	-2.19034	24.3331	55.5991
 538	1	3	-0.161949	-2.74084	25.1076	54.5577
 539	1	3	-0.052731	-3.18267	26.3989	54.8629
 540	1	2	0.511278	-3.74568	27.4608	53.9858
 541	1	1	-0.11022	-3.9381	28.5662	54.8051
 542	1	2	0.48346	-3.57201	28.3089	56.121
 543	1	3	0.062835	-4.41386	29.8235	54.3355
 544	1	3	-0.214737	-3.72348	31.0094	54.6402
 545	1	3	-0.092253	-4.1594	32.2441	54.1273
 546	1	3	-0.160974	-5.55308	29.8966	53.5158
 547	1	3	-0.148646	-5.99236	31.1313	53.0076
 548	1	3	0.041241	-5.30904	32.3306	53.3103
 549	1	6	0.160326	-2.83547	30.9768	55.2665
 550	1	6	0.154695	-6.08783	28.989	53.2475
 551	1	6	0.134327	-6.85559	31.1386	52.351
 552	1	6	0.119951	-3.58272	33.135	54.3609
 553	1	6	0.172628	-2.79763	24.7291	53.5388
 554	1	6	0.137279	-1.81231	23.3431	55.3566
 555	1	6	0.14105	-2.47578	26.6054	58.1728
 556	1	5	-0.471402	-3.60867	29.0689	57.0728
 557	1	5	-0.485833	-3.96747	27.3584	52.7914
 558	1	7	0.140024	-5.74287	33.6791	52.6869
 559	1	7	-0.178691	-7.28682	33.778	52.5279
 560	1	9	0.043413	-7.57866	34.7943	52.2328
 561	1	9	0.047557	-7.80132	33.5417	53.4675
 562	1	9	0.063016	-7.66586	33.0988	51.7551
 563	1	7	-0.187892	-5.13704	33.7309	51.2584
 564	1	9	0.043685	-5.47686	32.8778	50.6572
 565	1	9	0.055699	-4.04089	33.688	51.2943
 566	1	9	0.057684	-5.43458	34.6457	50.7302
 567	1	3	-0.164758	-4.44262	35.8955	53.1128
 568	1	3	-0.151844	-5.77042	34.9572	54.8979
 569	1	3	-0.169902	-5.39487	36.0173	55.7402
 570	1	3	0.006445	-4.5394	37.0412	55.2802
 571	1	3	-0.175352	-4.06704	36.9553	53.9553
 572	1	6	0.13478	-5.77118	36.0191	56.7575
 573	1	6	0.147112	-3.39254	37.7167	53.5719
 574	1	3	0.014571	-5.30282	34.8728	53.5705
 575	1	6	0.127309	-6.42258	34.1813	55.2896
 576	1	6	0.132317	-4.04558	35.8864	52.1035
 577	1	7	0.14442	-4.05922	38.1998	56.1833
 578	1	3	-0.008293	-4.13413	39.5355	55.4084
 579	1	7	-0.149636	-2.62205	37.8422	56.6494
 580	1	7	-0.207624	-4.91758	38.3673	57.4678
 581	1	3	-0.056733	-3.02621	40.3978	55.2528
 582	1	3	-0.427248	-3.15103	41.6114	54.5544
 583	1	3	0.300563	-4.38091	42.0101	53.9931
 584	1	3	-0.034917	-5.36291	39.9301	54.8403
 585	1	3	-0.460652	-5.48497	41.1473	54.1467
 586	1	6	0.132306	-2.05588	40.1425	55.6674
 587	1	6	0.20081	-2.27673	42.2481	54.4396
 588	1	6	0.203835	-6.4522	41.4301	53.7377
 589	1	6	0.127298	-6.23346	39.2855	54.9435
 590	1	9	0.047033	-5.9821	38.48	57.2272
 591	1	9	0.065326	-4.60702	39.261	58.0244
 592	1	9	0.056928	-4.80829	37.5089	58.1423
 593	1	9	0.032023	-2.61156	36.8704	57.1598
 594	1	9	0.058797	-2.231	38.5879	57.3532
 595	1	9	0.03359	-1.93294	37.7727	55.7981
 596	1	1	0.469872	12.2835	0.224212	57.0361
 597	1	2	0.06277	11.8874	0.920014	55.8912
 598	1	3	0.008141	10.5377	0.396027	55.5659
 599	1	2	0.04539	11.3014	-0.659921	57.4902
 600	1	3	0.033062	10.1909	-0.541632	56.514
 601	1	5	-0.387649	12.5063	1.75065	55.2459
 602	1	5	-0.380594	11.3442	-1.43055	58.4356
 603	1	3	0.006556	9.7029	0.686328	54.4835
 604	1	3	-0.023388	8.98872	-1.24707	56.4299
 605	1	3	-0.199879	8.13171	-0.972962	55.3431
 606	1	3	-0.080819	8.46709	-0.00183837	54.356
 607	1	6	0.152396	10.0224	1.42692	53.7545
 608	1	6	0.149363	8.73908	-1.99845	57.1761
 609	1	6	0.171749	7.2107	-1.54348	55.285
 610	1	7	-0.126864	7.55996	0.318301	53.1306
 611	1	7	0.414085	6.08958	-0.235923	53.2524
 612	1	8	-0.136036	5.28952	0.254476	52.2783
 613	1	8	-0.12675	5.51098	0.122729	54.4209
 614	1	8	-0.136493	6.02037	-1.58379	53.1691
 615	1	7	0.412463	8.25101	-0.344495	51.8768
 616	1	8	-0.134035	7.47697	-0.343002	50.7684
 617	1	8	-0.126523	8.57848	-1.6348	52.116
 618	1	8	-0.120355	9.40449	0.280059	51.5484
 619	1	3	-0.02363	7.43521	1.86546	53.0395
 620	1	3	-0.07382	7.2137	2.59723	54.2347
 621	1	3	-0.058666	7.09373	3.9887	54.1713
 622	1	3	-0.05367	7.4934	2.5827	51.8098
 623	1	3	-0.161949	7.36603	3.98715	51.769
 624	1	3	-0.052731	7.16993	4.66771	52.9757
 625	1	2	0.511278	6.98852	6.11791	53.2556
 626	1	1	-0.11022	6.80918	6.21757	54.6309
 627	1	2	0.48346	6.86225	4.97739	55.2547
 628	1	3	0.062835	6.57497	7.44025	55.3206
 629	1	3	-0.214737	5.64557	8.37053	54.8261
 630	1	3	-0.092253	5.40256	9.57033	55.5139
 631	1	3	-0.160974	7.26082	7.73617	56.5123
 632	1	3	-0.148646	7.01268	8.93417	57.2051
 633	1	3	0.041241	6.06665	9.86659	56.7239
 634	1	6	0.160326	5.11045	8.17144	53.9009
 635	1	6	0.154695	7.98622	7.03115	56.9109
 636	1	6	0.134327	7.56679	9.12447	58.1179
 637	1	6	0.119951	4.68626	10.2744	55.0986
 638	1	6	0.172628	7.41128	4.5326	50.8281
 639	1	6	0.137279	7.63192	2.06696	50.8661
 640	1	6	0.14105	7.13207	2.10114	55.1994
 641	1	5	-0.471402	6.74127	4.72279	56.4406
 642	1	5	-0.485833	6.98625	7.01164	52.4265
 643	1	7	0.140024	5.77533	11.2014	57.4452
 644	1	7	-0.178691	6.64782	12.2903	56.7656
 645	1	9	0.043413	6.50472	13.27	57.2394
 646	1	9	0.047557	6.40989	12.3817	55.6983
 647	1	9	0.063016	7.71304	12.0367	56.8413
 648	1	7	-0.187892	6.17593	11.1801	58.9477
 649	1	9	0.043685	5.83149	12.093	59.4506