pySIMM System Object

2212 atoms
2393 bonds
4212 angles
6496 dihedrals
728 impropers

9 atom types
11 bond types
18 angle types
8 dihedral types
4 improper types

-198.441830 198.441830 xlo xhi
-198.441830 198.441830 ylo yhi
-198.441830 198.441830 zlo zhi

Masses

   1	14.01	# n
   2	12.01	# c
   3	12.01	# ca
   4	1.008	# hn
   5	16.0	# o
   6	1.008	# ha
   7	12.01	# c3
   8	19.0	# f
   9	1.008	# hc

Pair Coeffs

   1	0.17	3.249998523775958	# n
   2	0.086	3.3996695084235347	# c
   3	0.086	3.3996695084235347	# ca
   4	0.0157	1.069078461768407	# hn
   5	0.21	2.959921901149463	# o
   6	0.015	2.59964245953351	# ha
   7	0.1094	3.3996695084235347	# c3
   8	0.061	3.1181455134911875	# f
   9	0.0157	2.649532787749369	# hc

Bond Coeffs

   1	345.8	1.086	# ca,ha
   2	384.2	1.4121	# ca,n
   3	637.7	1.2183	# c,o
   4	321.0	1.5156	# c3,ca
   5	461.1	1.3984	# ca,ca
   6	300.9	1.5375	# c3,c3
   7	330.6	1.0969	# c3,hc
   8	403.2	1.0129	# hn,n
   9	356.9	1.3497	# c3,f
  10	427.6	1.3789	# c,n
  11	345.9	1.4906	# c,ca

Angle Coeffs

   1	48.33	117.55	# c,n,hn
   2	74.22	123.05	# n,c,o
   3	64.28	120.33	# c,ca,ca
   4	70.89	107.36	# f,c3,f
   5	66.11	109.24	# c3,c3,f
   6	67.87	120.19	# ca,ca,n
   7	39.4	107.58	# hc,c3,hc
   8	63.53	120.77	# c3,ca,ca
   9	66.62	120.02	# ca,ca,ca
  10	63.82	123.71	# c,n,ca
  11	62.86	111.51	# c3,c3,c3
  12	46.34	109.8	# c3,c3,hc
  13	63.74	127.08	# c,n,c
  14	48.18	119.88	# ca,ca,ha
  15	68.72	122.6	# ca,c,o
  16	63.56	112.24	# ca,c3,ca
  17	63.15	112.07	# c3,c3,ca
  18	67.68	115.25	# ca,c,n

Dihedral Coeffs

   1	2	2.5	2	180	2.0	1	0	# hn,n,c,o
   2	1	3.625	2	180	# X,ca,ca,X
   3	1	0.16	3	0	# hc,c3,c3,c3
   4	1	1.0	2	180	# X,c,ca,X
   5	1	0.15555555555555556	3	0	# X,c3,c3,X
   6	1	0.0	2	0	# X,c3,ca,X
   7	1	2.5	2	180	# X,c,n,X
   8	1	0.45	2	180	# X,ca,n,X

Improper Coeffs

   1	10.5	-1	2	# c,X,X,o
   2	1.1	-1	2	# ca,X,X,ha
   3	1.1	-1	2	# ca,ca,ca,c3
   4	1.1	-1	2	# n,X,X,hn

Atoms

   1	1	1	0.469872	-97.799	81.0168	31.2335
   2	1	2	0.06277	-97.3075	80.3581	32.3595
   3	1	3	0.008141	-98.509	79.998	33.1527
   4	1	2	0.04539	-99.1876	81.1463	31.2458
   5	1	3	0.033062	-99.6261	80.4572	32.4864
   6	1	5	-0.387649	-96.1533	80.0694	32.6289
   7	1	5	-0.380594	-99.9122	81.6458	30.4008
   8	1	3	0.006556	-98.6064	79.2498	34.3301
   9	1	3	-0.023388	-100.912	80.1756	32.9534
  10	1	3	-0.199879	-101.034	79.4109	34.1328
  11	1	3	-0.080819	-99.8937	78.9508	34.852
  12	1	6	0.152396	-97.6896	78.8886	34.7828
  13	1	6	0.149363	-101.785	80.5083	32.3968
  14	1	6	0.171749	-102.034	79.1517	34.4734
  15	1	7	-0.126864	-100.091	78.0415	36.1017
  16	1	7	0.414085	-100.263	76.5768	35.5462
  17	1	8	-0.136036	-100.222	75.6303	36.5108
  18	1	8	-0.12675	-99.2915	76.2585	34.6598
  19	1	8	-0.136493	-101.433	76.434	34.8844
  20	1	7	0.412463	-98.8726	78.0759	37.1012
  21	1	8	-0.134035	-99.1912	77.524	38.2944
  22	1	8	-0.126523	-98.4829	79.3448	37.359
  23	1	8	-0.120355	-97.7842	77.4107	36.6539
  24	1	3	-0.02363	-101.322	78.5475	36.9125
  25	1	3	-0.07382	-102.292	77.6668	37.4608
  26	1	3	-0.058666	-103.354	78.2005	38.1978
  27	1	3	-0.05367	-101.465	79.942	37.1644
  28	1	3	-0.161949	-102.549	80.4595	37.9038
  29	1	3	-0.052731	-103.488	79.5549	38.4109
  30	1	2	0.511278	-104.727	79.7782	39.2074
  31	1	1	-0.11022	-105.267	78.5161	39.4237
  32	1	2	0.48346	-104.494	77.5125	38.8536
  33	1	3	0.062835	-106.499	78.2708	40.0895
  34	1	3	-0.214737	-106.6	77.2553	41.0568
  35	1	3	-0.092253	-107.839	76.9407	41.64
  36	1	3	-0.160974	-107.653	78.9932	39.741
  37	1	3	-0.148646	-108.892	78.6782	40.3223
  38	1	3	0.041241	-109.011	77.6347	41.2651
  39	1	6	0.160326	-105.721	76.678	41.3319
  40	1	6	0.154695	-107.598	79.7833	38.9963
  41	1	6	0.134327	-109.776	79.2248	40.0063
  42	1	6	0.119951	-107.875	76.1282	42.3579
  43	1	6	0.172628	-102.657	81.528	38.0816
  44	1	6	0.137279	-100.726	80.6384	36.7753
  45	1	6	0.14105	-102.248	76.5902	37.3366
  46	1	5	-0.471402	-104.704	76.3119	38.8447
  47	1	5	-0.485833	-105.176	80.8582	39.5497
  48	1	7	0.140024	-110.418	77.2533	41.7787
  49	1	7	-0.178691	-110.949	78.4317	42.6407
  50	1	9	0.043413	-110.249	78.6594	43.4549
  51	1	9	0.047557	-111.917	78.1904	43.0974
  52	1	9	0.063016	-111.07	79.3441	42.0441
  53	1	7	-0.187892	-110.426	75.9956	42.6901
  54	1	9	0.043685	-110.014	75.1212	42.1705
  55	1	9	0.055699	-111.451	75.744	42.9906
  56	1	9	0.057684	-109.843	76.1602	43.6051
  57	1	3	-0.164758	-110.812	76.0593	39.5659
  58	1	3	-0.151844	-112.578	77.5082	40.3517
  59	1	3	-0.169902	-113.319	77.2186	39.1934
  60	1	3	0.006445	-112.82	76.3521	38.1994
  61	1	3	-0.175352	-111.551	75.7726	38.4078
  62	1	6	0.13478	-114.297	77.6757	39.0656
  63	1	6	0.147112	-111.113	75.0999	37.6781
  64	1	3	0.014571	-111.302	76.9412	40.5508
  65	1	6	0.127309	-113.011	78.1832	41.0823
  66	1	6	0.132317	-109.834	75.6008	39.6894
  67	1	7	0.14442	-113.665	76.0898	36.932
  68	1	3	-0.008293	-115.087	75.652	37.3458
  69	1	7	-0.149636	-113.086	74.966	36.0298
  70	1	7	-0.207624	-113.644	77.3973	36.093
  71	1	3	-0.056733	-115.238	74.6521	38.3313
  72	1	3	-0.427248	-116.515	74.2167	38.7278
  73	1	3	0.300563	-117.662	74.7655	38.1448
  74	1	3	-0.034917	-116.253	76.1903	36.757
  75	1	3	-0.460652	-117.528	75.7502	37.1587
  76	1	6	0.132306	-114.356	74.2119	38.7938
  77	1	6	0.20081	-116.618	73.4506	39.4892
  78	1	6	0.203835	-118.419	76.1701	36.7028
  79	1	6	0.127298	-116.189	76.9495	35.984
  80	1	9	0.047033	-114.152	78.2162	36.6173
  81	1	9	0.065326	-114.126	77.2598	35.1171
  82	1	9	0.056928	-112.611	77.7169	35.9049
  83	1	9	0.032023	-112.983	74.024	36.5832
  84	1	9	0.058797	-112.103	75.24	35.627
  85	1	9	0.03359	-113.75	74.7757	35.1759
  86	1	1	0.469872	-87.294	78.0963	12.3559
  87	1	2	0.06277	-88.0985	78.7938	13.2608
  88	1	3	0.008141	-88.7104	79.8868	12.472
  89	1	2	0.04539	-87.309	78.6717	11.0794
  90	1	3	0.033062	-88.2485	79.8161	11.1773
  91	1	5	-0.387649	-88.3456	78.5399	14.429
  92	1	5	-0.380594	-86.7308	78.3127	10.0666
  93	1	3	0.006556	-89.6703	80.8206	12.8579
  94	1	3	-0.023388	-88.7112	80.6959	10.1944
  95	1	3	-0.199879	-89.6997	81.6371	10.5569
  96	1	3	-0.080819	-90.2189	81.6923	11.8815
  97	1	6	0.152396	-90.0103	80.8243	13.8908
  98	1	6	0.149363	-88.3362	80.6286	9.17536
  99	1	6	0.171749	-90.0646	82.3061	9.78379
 100	1	7	-0.126864	-91.3692	82.6464	12.3077
 101	1	7	0.414085	-90.6904	83.8918	12.993
 102	1	8	-0.136036	-90.0219	83.5449	14.1165
 103	1	8	-0.12675	-91.5777	84.8543	13.3308
 104	1	8	-0.136493	-89.7704	84.4692	12.1875
 105	1	7	0.412463	-92.2713	83.1487	11.1138
 106	1	8	-0.134035	-91.6663	84.0614	10.3212
 107	1	8	-0.126523	-93.4083	83.7242	11.5661
 108	1	8	-0.120355	-92.6573	82.1369	10.3043
 109	1	3	-0.02363	-92.2936	81.8227	13.2551
 110	1	3	-0.07382	-92.6342	82.2424	14.5684
 111	1	3	-0.058666	-93.3806	81.3801	15.3808
 112	1	3	-0.05367	-92.7611	80.5503	12.8143
 113	1	3	-0.161949	-93.5285	79.7081	13.6422
 114	1	3	-0.052731	-93.8189	80.1532	14.9343
 115	1	2	0.511278	-94.5677	79.4952	16.037
 116	1	1	-0.11022	-94.5212	80.3818	17.108
 117	1	2	0.48346	-93.8181	81.5396	16.7909
 118	1	3	0.062835	-95.1394	80.1428	18.3703
 119	1	3	-0.214737	-95.1042	78.8664	18.961
 120	1	3	-0.092253	-95.7512	78.6224	20.1843
 121	1	3	-0.160974	-95.8097	81.1784	19.046
 122	1	3	-0.148646	-96.436	80.9408	20.2795
 123	1	3	0.041241	-96.437	79.6564	20.8608
 124	1	6	0.160326	-94.5902	78.0474	18.464
 125	1	6	0.154695	-95.8479	82.1775	18.6197
 126	1	6	0.134327	-96.9315	81.765	20.7852
 127	1	6	0.119951	-95.7124	77.6167	20.5889
 128	1	6	0.172628	-93.8693	78.732	13.3014
 129	1	6	0.137279	-92.4991	80.189	11.8232
 130	1	6	0.14105	-92.3187	83.1932	14.9854
 131	1	5	-0.471402	-93.5773	82.4984	17.5038
 132	1	5	-0.485833	-95.111	78.4054	15.976
 133	1	7	0.140024	-97.182	79.4406	22.1969
 134	1	7	-0.178691	-97.1451	77.9687	22.6894
 135	1	9	0.043413	-97.6065	77.2906	21.96
 136	1	9	0.047557	-97.6943	77.8639	23.6341
 137	1	9	0.063016	-96.1164	77.6347	22.8738
 138	1	7	-0.187892	-98.6807	79.7838	21.9581
 139	1	9	0.043685	-99.2993	79.5215	22.8255
 140	1	9	0.055699	-99.0715	79.2248	21.098
 141	1	9	0.057684	-98.8246	80.8516	21.7526
 142	1	3	-0.164758	-95.1224	80.3155	23.4266
 143	1	3	-0.151844	-97.2808	81.0462	24.2284
 144	1	3	-0.169902	-96.6495	81.7616	25.2577
 145	1	3	0.006445	-95.2475	81.7498	25.4073
 146	1	3	-0.175352	-94.4905	81.0294	24.4591
 147	1	6	0.13478	-97.2654	82.3129	25.9636
 148	1	6	0.147112	-93.4073	81.0005	24.5144
 149	1	3	0.014571	-96.5267	80.3039	23.2961
 150	1	6	0.127309	-98.3643	81.0652	24.1842
 151	1	6	0.132317	-94.5091	79.7524	22.7281
 152	1	7	0.14442	-94.6112	82.5085	26.5932
 153	1	3	-0.008293	-95.413	82.1714	27.8712
 154	1	7	-0.149636	-94.6177	84.0199	26.241
 155	1	7	-0.207624	-93.1274	82.1176	26.8455
 156	1	3	-0.056733	-96.1119	83.1406	28.6261
 157	1	3	-0.427248	-96.889	82.7642	29.7375
 158	1	3	0.300563	-96.9805	81.4155	30.1345
 159	1	3	-0.034917	-95.506	80.8236	28.2747
 160	1	3	-0.460652	-96.2709	80.4525	29.3921
 161	1	6	0.132306	-96.0823	84.1899	28.3484
 162	1	6	0.20081	-97.4434	83.5237	30.2828
 163	1	6	0.203835	-96.3213	79.4048	29.6783
 164	1	6	0.127298	-94.9957	80.0525	27.7019
 165	1	9	0.047033	-92.7535	82.5955	27.7602
 166	1	9	0.065326	-92.4799	82.4385	26.02
 167	1	9	0.056928	-93.0091	81.0338	26.9666
 168	1	9	0.032023	-95.6372	84.3866	26.0676
 169	1	9	0.058797	-94.0445	84.2042	25.3232
 170	1	9	0.03359	-94.1647	84.6183	27.0419
 171	1	1	0.469872	-66.5876	68.4557	8.90954
 172	1	2	0.06277	-66.9932	69.6541	8.323
 173	1	3	0.008141	-68.2655	70.0086	8.99436
 174	1	2	0.04539	-67.4764	68.0088	9.88872
 175	1	3	0.033062	-68.5525	69.0375	9.93057
 176	1	5	-0.387649	-66.4399	70.3002	7.44834
 177	1	5	-0.380594	-67.4047	67.0056	10.5793
 178	1	3	0.006556	-69.1162	71.0936	8.76356
 179	1	3	-0.023388	-69.7109	69.1131	10.7096
 180	1	3	-0.199879	-70.5842	70.203	10.4962
 181	1	3	-0.080819	-70.3094	71.2075	9.52473
 182	1	6	0.152396	-68.8473	71.7958	7.98208
 183	1	6	0.149363	-69.9358	68.3379	11.439
 184	1	6	0.171749	-71.5058	70.2432	11.0732
 185	1	7	-0.126864	-71.3724	72.3078	9.23411
 186	1	7	0.414085	-70.7777	73.6008	8.55026
 187	1	8	-0.136036	-69.6616	74.0318	9.1803
 188	1	8	-0.12675	-71.6557	74.6292	8.58474
 189	1	8	-0.136493	-70.447	73.4271	7.25122
 190	1	7	0.412463	-72.4118	71.6478	8.24947
 191	1	8	-0.134035	-71.8044	71.0761	7.18454
 192	1	8	-0.126523	-73.3084	72.5306	7.75397
 193	1	8	-0.120355	-73.1078	70.6554	8.85001
 194	1	3	-0.02363	-71.9995	72.7852	10.5789
 195	1	3	-0.07382	-73.4017	72.8924	10.7784
 196	1	3	-0.058666	-73.8794	73.3863	11.997
 197	1	3	-0.05367	-71.1401	73.1907	11.6394
 198	1	3	-0.161949	-71.6436	73.7014	12.8552
 199	1	3	-0.052731	-73.0319	73.792	13.0047
 200	1	2	0.511278	-73.8643	74.2523	14.1522
 201	1	1	-0.11022	-75.1812	74.055	13.7598
 202	1	2	0.48346	-75.2765	73.5555	12.4686
 203	1	3	0.062835	-76.3043	74.2517	14.606
 204	1	3	-0.214737	-76.528	75.483	15.2457
 205	1	3	-0.092253	-77.6527	75.6628	16.0724
 206	1	3	-0.160974	-77.2116	73.2001	14.8114
 207	1	3	-0.148646	-78.3314	73.3783	15.6366
 208	1	3	0.041241	-78.5761	74.6115	16.2756
 209	1	6	0.160326	-75.8287	76.3032	15.1039
 210	1	6	0.154695	-77.0572	72.243	14.3197
 211	1	6	0.134327	-79.0268	72.5532	15.7668
 212	1	6	0.119951	-77.7948	76.6291	16.5452
 213	1	6	0.172628	-70.9783	74.0156	13.6575
 214	1	6	0.137279	-70.0624	73.119	11.517
 215	1	6	0.14105	-74.1297	72.6121	10.0251
 216	1	5	-0.471402	-76.2811	73.2427	11.8543
 217	1	5	-0.485833	-73.4533	74.6716	15.2201
 218	1	7	0.140024	-79.8439	74.7503	17.1456
 219	1	7	-0.178691	-80.1154	76.204	17.621
 220	1	9	0.043413	-80.1991	76.8961	16.7739
 221	1	9	0.047557	-79.3187	76.5659	18.2832
 222	1	9	0.063016	-81.0582	76.2543	18.1812
 223	1	7	-0.187892	-79.6311	73.8959	18.4254
 224	1	9	0.043685	-80.4798	73.9882	19.1151
 225	1	9	0.055699	-78.7318	74.2234	18.9627
 226	1	9	0.057684	-79.5003	72.8341	18.1822
 227	1	3	-0.164758	-81.966	73.3044	16.7199
 228	1	3	-0.151844	-81.262	74.8933	15.0409
 229	1	3	-0.169902	-82.3352	74.5084	14.225
 230	1	3	0.006445	-83.2543	73.5262	14.6448
 231	1	3	-0.175352	-83.0461	72.9232	15.9045
 232	1	6	0.13478	-82.4655	74.9956	13.2619
 233	1	6	0.147112	-83.7182	72.156	16.274
 234	1	3	0.014571	-81.0567	74.3004	16.302
 235	1	6	0.127309	-80.5795	75.6598	14.6835
 236	1	6	0.132317	-81.852	72.8122	17.6798
 237	1	7	0.14442	-84.4487	73.181	13.7253
 238	1	3	-0.008293	-85.2154	74.4707	13.3556
 239	1	7	-0.149636	-85.4652	72.2097	14.3807
 240	1	7	-0.207624	-83.8636	72.4661	12.4758
 241	1	3	-0.056733	-85.2963	75.5409	14.2722
 242	1	3	-0.427248	-85.9568	76.7337	13.9357
 243	1	3	0.300563	-86.5954	76.889	12.6885
 244	1	3	-0.034917	-85.8786	74.6113	12.1189
 245	1	3	-0.460652	-86.5577	75.798	11.7953
 246	1	6	0.132306	-84.8335	75.4579	15.2533
 247	1	6	0.20081	-85.987	77.5392	14.6657
 248	1	6	0.203835	-87.0483	75.8733	10.8279
 249	1	6	0.127298	-85.876	73.8021	11.3951
 250	1	9	0.047033	-84.648	72.0257	11.8484
 251	1	9	0.065326	-83.1946	71.65	12.7778
 252	1	9	0.056928	-83.2812	73.1609	11.8574
 253	1	9	0.032023	-85.8682	72.6284	15.3117
 254	1	9	0.058797	-85.0042	71.2393	14.6044
 255	1	9	0.03359	-86.3131	72.0234	13.7091
 256	1	1	0.469872	-44.8733	57.4087	4.75631
 257	1	2	0.06277	-46.245	57.4221	5.01826
 258	1	3	0.008141	-46.7488	58.6866	4.42151
 259	1	2	0.04539	-44.4512	58.532	4.0483
 260	1	3	0.033062	-45.6787	59.3478	3.85419
 261	1	5	-0.387649	-46.9084	56.6021	5.63094
 262	1	5	-0.380594	-43.3235	58.8192	3.68157
 263	1	3	0.006556	-48.0501	59.2063	4.36839
 264	1	3	-0.023388	-45.847	60.5795	3.2203
 265	1	3	-0.199879	-47.1469	61.1233	3.15896
 266	1	3	-0.080819	-48.2715	60.4534	3.72487
 267	1	6	0.152396	-48.8701	58.6346	4.79647
 268	1	6	0.149363	-44.9961	61.0892	2.77323
 269	1	6	0.171749	-47.2571	62.0653	2.63306
 270	1	7	-0.126864	-49.7307	60.9784	3.54659
 271	1	7	0.414085	-49.8127	62.5237	3.23789
 272	1	8	-0.136036	-49.0659	63.2426	4.1068
 273	1	8	-0.12675	-51.0763	62.9934	3.35236
 274	1	8	-0.136493	-49.4029	62.8497	1.99134
 275	1	7	0.412463	-50.3256	60.1816	2.3232
 276	1	8	-0.134035	-49.4719	60.1641	1.27409
 277	1	8	-0.126523	-51.4866	60.6931	1.85539
 278	1	8	-0.120355	-50.555	58.8882	2.64443
 279	1	3	-0.02363	-50.5382	60.7785	4.86573
 280	1	3	-0.07382	-51.9112	60.4101	4.86593
 281	1	3	-0.058666	-52.6242	60.4262	6.071
 282	1	3	-0.05367	-49.9408	61.1287	6.10951
 283	1	3	-0.161949	-50.6777	61.1357	7.31413
 284	1	3	-0.052731	-52.0334	60.7891	7.26098
 285	1	2	0.511278	-53.094	60.8357	8.30842
 286	1	1	-0.11022	-54.2825	60.5152	7.65997
 287	1	2	0.48346	-54.0759	60.2221	6.31737
 288	1	3	0.062835	-55.5775	60.5937	8.25323
 289	1	3	-0.214737	-55.9581	61.7321	8.9854
 290	1	3	-0.092253	-57.268	61.8612	9.47933
 291	1	3	-0.160974	-56.5287	59.5783	8.04652
 292	1	3	-0.148646	-57.8385	59.7046	8.54467
 293	1	3	0.041241	-58.236	60.8572	9.26137
 294	1	6	0.160326	-55.2451	62.5353	9.15341
 295	1	6	0.154695	-56.2637	58.6988	7.46509
 296	1	6	0.134327	-58.5425	58.9065	8.33462
 297	1	6	0.119951	-57.543	62.7687	10.0102
 298	1	6	0.172628	-50.2257	61.4525	8.25234
 299	1	6	0.137279	-48.9033	61.4532	6.13669
 300	1	6	0.14105	-52.4569	60.1754	3.95884
 301	1	5	-0.471402	-54.9082	59.9352	5.47449
 302	1	5	-0.485833	-52.9392	61.1789	9.46767
 303	1	7	0.140024	-59.6885	61.0921	9.74955
 304	1	7	-0.178691	-59.6492	61.2325	11.2976
 305	1	9	0.043413	-59.144	62.1561	11.6058
 306	1	9	0.047557	-59.109	60.3897	11.7479
 307	1	9	0.063016	-60.6576	61.2401	11.7296
 308	1	7	-0.187892	-60.6399	59.9074	9.43298
 309	1	9	0.043685	-60.7155	59.7365	8.35159
 310	1	9	0.055699	-61.653	60.1146	9.80101
 311	1	9	0.057684	-60.2959	58.9806	9.90975
 312	1	3	-0.164758	-61.1079	63.2692	9.7078
 313	1	3	-0.151844	-59.964	62.5858	7.69473
 314	1	3	-0.169902	-60.4343	63.732	7.03673
 315	1	3	0.006445	-61.2507	64.6726	7.69898
 316	1	3	-0.175352	-61.582	64.4176	9.04664
 317	1	6	0.13478	-60.1255	63.893	6.00958
 318	1	6	0.147112	-62.1931	65.1231	9.60331
 319	1	3	0.014571	-60.2662	62.3451	9.05027
 320	1	6	0.127309	-59.3346	61.8927	7.14297
 321	1	6	0.132317	-61.3922	63.1206	10.7441
 322	1	7	0.14442	-61.6578	65.9919	7.00399
 323	1	3	-0.008293	-62.9342	66.6141	7.62494
 324	1	7	-0.149636	-61.9494	65.7824	5.49025
 325	1	7	-0.207624	-60.4254	66.933	7.09586
 326	1	3	-0.056733	-62.9483	67.9089	8.19011
 327	1	3	-0.427248	-64.1456	68.4867	8.64144
 328	1	3	0.300563	-65.3699	67.7983	8.54926
 329	1	3	-0.034917	-64.1545	65.9048	7.577
 330	1	3	-0.460652	-65.354	66.4869	8.03185
 331	1	6	0.132306	-62.0426	68.5028	8.25773
 332	1	6	0.20081	-64.1295	69.5047	9.0225
 333	1	6	0.203835	-66.282	65.9247	7.95912
 334	1	6	0.127298	-64.1755	64.9008	7.15846
 335	1	9	0.047033	-60.17	67.1458	8.14197
 336	1	9	0.065326	-60.6056	67.8829	6.57663
 337	1	9	0.056928	-59.5434	66.4702	6.63513
 338	1	9	0.032023	-62.3822	66.6909	5.05126
 339	1	9	0.058797	-62.6587	64.9613	5.32984
 340	1	9	0.03359	-61.0395	65.5568	4.92126
 341	1	1	0.469872	-29.54	36.0606	6.74746
 342	1	2	0.06277	-29.0893	37.106	7.56103
 343	1	3	0.008141	-29.6997	38.3425	6.99671
 344	1	2	0.04539	-30.3905	36.5099	5.735
 345	1	3	0.033062	-30.4664	37.9832	5.90846
 346	1	5	-0.387649	-28.3235	37.0548	8.50956
 347	1	5	-0.380594	-30.9191	35.8662	4.84323
 348	1	3	0.006556	-29.5444	39.6848	7.37512
 349	1	3	-0.023388	-31.1122	38.9448	5.12807
 350	1	3	-0.199879	-30.9672	40.3004	5.48974
 351	1	3	-0.080819	-30.1986	40.6996	6.61874
 352	1	6	0.152396	-28.9029	39.9075	8.22116
 353	1	6	0.149363	-31.6858	38.6477	4.25292
 354	1	6	0.171749	-31.4416	41.0516	4.86193
 355	1	7	-0.126864	-30.0169	42.2237	6.90646
 356	1	7	0.414085	-29.6243	42.5329	8.40248
 357	1	8	-0.136036	-30.4233	41.8743	9.2719
 358	1	8	-0.12675	-29.7515	43.8487	8.68964
 359	1	8	-0.136493	-28.3516	42.1962	8.70955
 360	1	7	0.412463	-28.8519	42.7105	5.96339
 361	1	8	-0.134035	-28.4341	43.9672	6.23701
 362	1	8	-0.126523	-29.2215	42.6815	4.66271
 363	1	8	-0.120355	-27.7622	41.9145	6.05738
 364	1	3	-0.02363	-31.3695	42.9659	6.65381
 365	1	3	-0.07382	-31.4674	44.1869	5.92794
 366	1	3	-0.058666	-32.7182	44.811	5.80075
 367	1	3	-0.05367	-32.56	42.4352	7.22595
 368	1	3	-0.161949	-33.8067	43.0823	7.09248
 369	1	3	-0.052731	-33.8545	44.2808	6.37164
 370	1	2	0.511278	-34.9966	45.1905	6.07073
 371	1	1	-0.11022	-34.4686	46.2278	5.31169
 372	1	2	0.48346	-33.1013	46.0724	5.10588
 373	1	3	0.062835	-35.2441	47.3009	4.77753
 374	1	3	-0.214737	-36.1229	48.0408	5.59068
 375	1	3	-0.092253	-36.8919	49.0938	5.05453
 376	1	3	-0.160974	-35.1512	47.6353	3.41623
 377	1	3	-0.148646	-35.9271	48.6774	2.87886
 378	1	3	0.041241	-36.817	49.4268	3.6824
 379	1	6	0.160326	-36.2168	47.7982	6.64614
 380	1	6	0.154695	-34.4718	47.0871	2.76817
 381	1	6	0.134327	-35.8249	48.9039	1.82224
 382	1	6	0.119951	-37.548	49.6445	5.72199
 383	1	6	0.172628	-34.7085	42.6713	7.54251
 384	1	6	0.137279	-32.5172	41.5091	7.79406
 385	1	6	0.14105	-30.6091	44.6698	5.47296
 386	1	5	-0.471402	-32.3538	46.79	4.46459
 387	1	5	-0.485833	-36.1534	45.0273	6.41832
 388	1	7	0.140024	-37.6469	50.5745	3.04703
 389	1	7	-0.178691	-38.4635	50.0171	1.84517
 390	1	9	0.043413	-39.0543	49.139	2.13204
 391	1	9	0.047557	-37.8154	49.7114	1.01505
 392	1	9	0.063016	-39.1535	50.7784	1.45874
 393	1	7	-0.187892	-36.658	51.6187	2.45218
 394	1	9	0.043685	-35.9693	51.9915	3.22096
 395	1	9	0.055699	-37.1966	52.4724	2.02086
 396	1	9	0.057684	-36.0443	51.1894	1.65124
 397	1	3	-0.164758	-38.4809	52.5617	4.52061
 398	1	3	-0.151844	-39.7957	50.5444	4.46383
 399	1	3	-0.169902	-40.7353	51.1307	5.33073
 400	1	3	0.006445	-40.5671	52.4478	5.81472
 401	1	3	-0.175352	-39.4263	53.1519	5.37886
 402	1	6	0.13478	-41.5896	50.5312	5.62575
 403	1	6	0.147112	-39.2584	54.1701	5.71832
 404	1	3	0.014571	-38.6455	51.2424	4.03779
 405	1	6	0.127309	-39.9646	49.524	4.13303
 406	1	6	0.132317	-37.6185	53.1569	4.24087
 407	1	7	0.14442	-41.534	53.1021	6.84022
 408	1	3	-0.008293	-42.3159	54.3036	6.2548
 409	1	7	-0.149636	-40.6776	53.5266	8.06966
 410	1	7	-0.207624	-42.5968	52.1004	7.36855
 411	1	3	-0.056733	-42.5607	54.4294	4.86914
 412	1	3	-0.427248	-43.3803	55.463	4.36869
 413	1	3	0.300563	-43.9907	56.3919	5.23674
 414	1	3	-0.034917	-42.9174	55.2485	7.11549
 415	1	3	-0.460652	-43.7353	56.2749	6.61528
 416	1	6	0.132306	-42.1383	53.7075	4.17366
 417	1	6	0.20081	-43.5559	55.5307	3.29815
 418	1	6	0.203835	-44.2054	56.9662	7.30984
 419	1	6	0.127298	-42.7886	55.1728	8.19067
 420	1	9	0.047033	-43.2627	51.7702	6.56099
 421	1	9	0.065326	-43.2288	52.5642	8.13655
 422	1	9	0.056928	-42.1251	51.2177	7.81858
 423	1	9	0.032023	-41.2952	53.7674	8.94319
 424	1	9	0.058797	-40.0624	54.4066	7.84569
 425	1	9	0.03359	-40.0046	52.7133	8.37068
 426	1	1	0.469872	-21.968	10.972	9.17948
 427	1	2	0.06277	-21.4733	12.0278	8.40592
 428	1	3	0.008141	-22.3466	13.1882	8.70727
 429	1	2	0.04539	-23.1064	11.3442	9.90486
 430	1	3	0.033062	-23.3186	12.7862	9.59588
 431	1	5	-0.387649	-20.5066	12.0467	7.66112
 432	1	5	-0.380594	-23.7618	10.6781	10.6897
 433	1	3	0.006556	-22.2261	14.5182	8.2915
 434	1	3	-0.023388	-24.2381	13.7043	10.1145
 435	1	3	-0.199879	-24.133	15.0553	9.71025
 436	1	3	-0.080819	-23.134	15.4909	8.79403
 437	1	6	0.152396	-21.4038	14.7639	7.62976
 438	1	6	0.149363	-24.9837	13.3849	10.8394
 439	1	6	0.171749	-24.8159	15.7803	10.1489
 440	1	7	-0.126864	-22.9717	17.0167	8.495
 441	1	7	0.414085	-22.1986	17.6133	9.73405
 442	1	8	-0.136036	-23.0012	17.6993	10.8191
 443	1	8	-0.12675	-21.6864	18.8453	9.51573
 444	1	8	-0.136493	-21.1529	16.8339	10.0941
 445	1	7	0.412463	-22.145	17.3056	7.1846
 446	1	8	-0.134035	-22.6125	16.5784	6.14467
 447	1	8	-0.126523	-20.8262	17.034	7.3101
 448	1	8	-0.120355	-22.2271	18.6017	6.80594
 449	1	3	-0.02363	-24.363	17.6871	8.2676
 450	1	3	-0.07382	-24.6109	19.0386	8.63112
 451	1	3	-0.058666	-25.8371	19.6264	8.29801
 452	1	3	-0.05367	-25.3869	16.9902	7.5649
 453	1	3	-0.161949	-26.6236	17.5987	7.25111
 454	1	3	-0.052731	-26.8196	18.9342	7.62815
 455	1	2	0.511278	-27.9674	19.8634	7.4066
 456	1	1	-0.11022	-27.5903	21.083	7.96565
 457	1	2	0.48346	-26.3179	21.0132	8.52619
 458	1	3	0.062835	-28.4103	22.256	8.00929
 459	1	3	-0.214737	-27.8476	23.535	7.83637
 460	1	3	-0.092253	-28.6208	24.6976	8.00607
 461	1	3	-0.160974	-29.784	22.1719	8.3026
 462	1	3	-0.148646	-30.5634	23.3349	8.45076
 463	1	3	0.041241	-29.9966	24.6235	8.3191
 464	1	6	0.160326	-26.7886	23.6401	7.61558
 465	1	6	0.154695	-30.2514	21.201	8.4466
 466	1	6	0.134327	-31.61	23.2231	8.71472
 467	1	6	0.119951	-28.1224	25.6591	7.92384
 468	1	6	0.172628	-27.3964	17.059	6.70696
 469	1	6	0.137279	-25.2153	15.9683	7.23563
 470	1	6	0.14105	-23.8716	19.656	9.1289
 471	1	5	-0.471402	-25.6983	21.8862	9.10893
 472	1	5	-0.485833	-29.015	19.5817	6.85047
 473	1	7	0.140024	-30.8335	25.8935	8.63049
 474	1	7	-0.178691	-31.0474	25.918	10.1693
 475	1	9	0.043413	-31.6554	26.7783	10.4765
 476	1	9	0.047557	-30.0861	25.9617	10.6975
 477	1	9	0.063016	-31.5636	25.0125	10.5125
 478	1	7	-0.187892	-32.2439	25.8152	7.98071
 479	1	9	0.043685	-32.8652	25.0344	8.43547
 480	1	9	0.055699	-32.1795	25.6054	6.90631
 481	1	9	0.057684	-32.7777	26.7662	8.1066
 482	1	3	-0.164758	-29.9171	27.3434	6.72917
 483	1	3	-0.151844	-29.6937	28.2207	8.9634
 484	1	3	-0.169902	-28.9795	29.3224	8.45753
 485	1	3	0.006445	-28.6762	29.4342	7.08559
 486	1	3	-0.175352	-29.196	28.4399	6.22496
 487	1	6	0.13478	-28.6102	30.0721	9.1522
 488	1	6	0.147112	-29.0108	28.4697	5.15674
 489	1	3	0.014571	-30.1461	27.1867	8.11132
 490	1	6	0.127309	-29.8508	28.1719	10.0354
 491	1	6	0.132317	-30.2523	26.575	6.03769
 492	1	7	0.14442	-27.6808	30.5267	6.60694
 493	1	3	-0.008293	-28.1913	31.9737	6.81649
 494	1	7	-0.149636	-27.3453	30.395	5.09625
 495	1	7	-0.207624	-26.3527	30.2711	7.37837
 496	1	3	-0.056733	-29.5686	32.2795	6.80463
 497	1	3	-0.427248	-30.0132	33.6183	6.82705
 498	1	3	0.300563	-29.1017	34.6969	6.85598
 499	1	3	-0.034917	-27.2818	33.0536	6.8746
 500	1	3	-0.460652	-27.7284	34.3863	6.89978
 501	1	6	0.132306	-30.3011	31.479	6.7285
 502	1	6	0.20081	-31.0794	33.8215	6.76408
 503	1	6	0.203835	-26.9954	35.1897	6.92023
 504	1	6	0.127298	-26.2117	32.8725	6.85238
 505	1	9	0.047033	-25.505	30.8091	6.93795
 506	1	9	0.065326	-26.0965	29.2034	7.35979
 507	1	9	0.056928	-26.4361	30.5761	8.42886
 508	1	9	0.032023	-28.2413	30.542	4.47945
 509	1	9	0.058797	-26.9183	29.4106	4.86551
 510	1	9	0.03359	-26.6111	31.1503	4.78815
 511	1	1	0.469872	-12.8778	-11.6994	0.834194
 512	1	2	0.06277	-13.0841	-10.5487	0.0705421
 513	1	3	0.008141	-13.6231	-9.54368	1.02363
 514	1	2	0.04539	-13.2851	-11.546	2.1594
 515	1	3	0.033062	-13.7308	-10.1368	2.26419
 516	1	5	-0.387649	-12.8064	-10.3512	-1.10101
 517	1	5	-0.380594	-13.2035	-12.3433	3.07984
 518	1	3	0.006556	-13.902	-8.18549	0.831395
 519	1	3	-0.023388	-14.0971	-9.40181	3.39188
 520	1	3	-0.199879	-14.3686	-8.02988	3.2235
 521	1	3	-0.080819	-14.3028	-7.40092	1.94792
 522	1	6	0.152396	-13.7662	-7.77057	-0.16141
 523	1	6	0.149363	-14.1307	-9.87427	4.37111
 524	1	6	0.171749	-14.6158	-7.44567	4.10746
 525	1	7	-0.126864	-14.5741	-5.86949	1.84736
 526	1	7	0.414085	-13.2269	-5.16032	2.25305
 527	1	8	-0.136036	-13.2121	-3.8361	1.98166
 528	1	8	-0.12675	-12.167	-5.6927	1.60264
 529	1	8	-0.136493	-12.9716	-5.30475	3.57323
 530	1	7	0.412463	-14.9928	-5.40187	0.402711
 531	1	8	-0.134035	-15.484	-4.14166	0.406779
 532	1	8	-0.126523	-15.9686	-6.189	-0.103982
 533	1	8	-0.120355	-13.9721	-5.41058	-0.483738
 534	1	3	-0.02363	-15.7691	-5.50687	2.78028
 535	1	3	-0.07382	-15.8072	-4.31057	3.5457
 536	1	3	-0.058666	-16.9388	-4.03716	4.32454
 537	1	3	-0.05367	-16.9054	-6.36459	2.81969
 538	1	3	-0.161949	-18.0287	-6.07812	3.62156
 539	1	3	-0.052731	-18.0147	-4.89743	4.37114
 540	1	2	0.511278	-19.0714	-4.27427	5.21335
 541	1	1	-0.11022	-18.5704	-3.03465	5.58885
 542	1	2	0.48346	-17.2773	-2.8302	5.12475
 543	1	3	0.062835	-19.3537	-2.03673	6.23187
 544	1	3	-0.214737	-19.4752	-0.762516	5.65393
 545	1	3	-0.092253	-20.3315	0.198125	6.216
 546	1	3	-0.160974	-20.0804	-2.32305	7.39983
 547	1	3	-0.148646	-20.9473	-1.3642	7.95654
 548	1	3	0.041241	-21.1096	-0.0918383	7.35711
 549	1	6	0.160326	-18.9205	-0.51867	4.75134
 550	1	6	0.154695	-20.0041	-3.30647	7.85713
 551	1	6	0.134327	-21.5096	-1.64346	8.84046
 552	1	6	0.119951	-20.4119	1.16865	5.73593
 553	1	6	0.172628	-18.898	-6.73305	3.63369
 554	1	6	0.137279	-16.9242	-7.2656	2.21145
 555	1	6	0.14105	-15.007	-3.57852	3.52989
 556	1	5	-0.471402	-16.5808	-1.83893	5.25474
 557	1	5	-0.485833	-20.1728	-4.74226	5.44574
 558	1	7	0.140024	-22.1348	0.956106	7.8564
 559	1	7	-0.178691	-23.04	0.417518	9.00698
 560	1	9	0.043413	-23.7336	1.19608	9.34984
 561	1	9	0.047557	-22.4675	0.0835723	9.87863
 562	1	9	0.063016	-23.642	-0.436323	8.66958
 563	1	7	-0.187892	-23.1394	1.24968	6.70167
 564	1	9	0.043685	-23.6971	0.343148	6.43238
 565	1	9	0.055699	-22.6462	1.59467	5.78665
 566	1	9	0.057684	-23.868	2.01453	6.99985
 567	1	3	-0.164758	-21.2509	3.38076	7.51
 568	1	3	-0.151844	-20.8051	2.28408	9.60834
 569	1	3	-0.169902	-20.1466	3.43396	10.0726
 570	1	3	0.006445	-20.0193	4.58387	9.26315
 571	1	3	-0.175352	-20.5702	4.52506	7.9667
 572	1	6	0.13478	-19.7173	3.39705	11.0674
 573	1	6	0.147112	-20.4614	5.37687	7.29983
 574	1	3	0.014571	-21.393	2.2356	8.32741
 575	1	6	0.127309	-20.8407	1.42041	10.2629
 576	1	6	0.132317	-21.6503	3.39807	6.50237
 577	1	7	0.14442	-19.2016	5.82694	9.70222
 578	1	3	-0.008293	-19.9597	7.16524	9.5067
 579	1	7	-0.149636	-17.8943	5.79225	8.861
 580	1	7	-0.207624	-18.7876	5.76854	11.1986
 581	1	3	-0.056733	-19.2469	8.38243	9.47325
 582	1	3	-0.427248	-19.9104	9.61488	9.36608
 583	1	3	0.300563	-21.3155	9.69277	9.28146
 584	1	3	-0.034917	-21.3697	7.23659	9.45803
 585	1	3	-0.460652	-22.0325	8.47652	9.33329
 586	1	6	0.132306	-18.1643	8.38772	9.55363
 587	1	6	0.20081	-19.3164	10.5257	9.34553
 588	1	6	0.203835	-23.1197	8.49283	9.30676
 589	1	6	0.127298	-21.9634	6.32812	9.53098
 590	1	9	0.047033	-19.671	5.69903	11.8464
 591	1	9	0.065326	-18.2359	6.67049	11.4915
 592	1	9	0.056928	-18.1332	4.91206	11.4039
 593	1	9	0.032023	-17.4388	4.79394	8.8968
 594	1	9	0.058797	-17.1417	6.49798	9.2308
 595	1	9	0.03359	-18.0951	6.02937	7.8086
 596	1	1	0.469872	3.65335	-27.5547	3.88148
 597	1	2	0.06277	3.39029	-26.6573	2.84433
 598	1	3	0.008141	1.93407	-26.7753	2.58346
 599	1	2	0.04539	2.50836	-28.2263	4.31216
 600	1	3	0.033062	1.41059	-27.7015	3.46089
 601	1	5	-0.387649	4.16997	-25.9342	2.2459
 602	1	5	-0.380594	2.40207	-29.0734	5.18379
 603	1	3	0.006556	1.1489	-26.1709	1.59482
 604	1	3	-0.023388	0.0591972	-28.0481	3.42411
 605	1	3	-0.199879	-0.748335	-27.4615	2.42767
 606	1	3	-0.080819	-0.217769	-26.5357	1.48175
 607	1	6	0.152396	1.6173	-25.4916	0.887019
 608	1	6	0.149363	-0.338982	-28.7862	4.11725
 609	1	6	0.171749	-1.78115	-27.7892	2.38015
 610	1	7	-0.126864	-1.01463	-26.0756	0.22594
 611	1	7	0.414085	-2.5774	-26.2536	0.357465
 612	1	8	-0.136036	-3.23569	-25.6241	-0.642831
 613	1	8	-0.12675	-3.04998	-25.7251	1.50881
 614	1	8	-0.136493	-2.97855	-27.5445	0.321337
 615	1	7	0.412463	-0.503988	-26.9992	-0.949457
 616	1	8	-0.134035	-1.25664	-26.9137	-2.06941
 617	1	8	-0.126523	-0.494861	-28.305	-0.595843
 618	1	8	-0.120355	0.768876	-26.7054	-1.30162
 619	1	3	-0.02363	-0.776989	-24.555	-0.0255403
 620	1	3	-0.07382	-0.970481	-23.6358	1.04097
 621	1	3	-0.058666	-0.946816	-22.2576	0.77042
 622	1	3	-0.05367	-0.526099	-24.0294	-1.32698
 623	1	3	-0.161949	-0.485223	-22.6444	-1.5727
 624	1	3	-0.052731	-0.711541	-21.7792	-0.500888
 625	1	2	0.511278	-0.921623	-20.3097	-0.501392
 626	1	1	-0.11022	-1.33918	-19.9904	0.782379
 627	1	2	0.48346	-1.32606	-21.097	1.62683
 628	1	3	0.062835	-1.93469	-18.736	1.09555
 629	1	3	-0.214737	-3.23115	-18.6973	1.63442
 630	1	3	-0.092253	-3.91209	-17.4775	1.76754
 631	1	3	-0.160974	-1.31391	-17.5257	0.736355
 632	1	3	-0.148646	-1.99784	-16.3023	0.866599
 633	1	3	0.041241	-3.32616	-16.2639	1.34814
 634	1	6	0.160326	-3.73539	-19.6186	1.91461
 635	1	6	0.154695	-0.316936	-17.5361	0.30311
 636	1	6	0.134327	-1.49368	-15.3943	0.552688
 637	1	6	0.119951	-4.9239	-17.4865	2.16385
 638	1	6	0.172628	-0.353397	-22.2528	-2.57987
 639	1	6	0.137279	-0.412809	-24.6772	-2.18787
 640	1	6	0.14105	-1.21782	-23.9792	2.04297
 641	1	5	-0.471402	-1.68633	-21.1544	2.78948
 642	1	5	-0.485833	-0.875516	-19.5844	-1.48012
 643	1	7	0.140024	-4.15578	-14.962	1.41868
 644	1	7	-0.178691	-3.58728	-13.8274	0.517703
 645	1	9	0.043413	-4.28091	-12.9772	0.485454
 646	1	9	0.047557	-3.42886	-14.1669	-0.51311
 647	1	9	0.063016	-2.62875	-13.4517	0.89661
 648	1	7	-0.187892	-4.08922	-14.4353	2.87723
 649	1	9	0.043685	-4.68562	-13.5214	2.99696