pySIMM System Object

937 atoms
1013 bonds
1782 angles
2746 dihedrals
308 impropers

9 atom types
11 bond types
18 angle types
8 dihedral types
4 improper types

-146.213191 146.213191 xlo xhi
-146.213191 146.213191 ylo yhi
-146.213191 146.213191 zlo zhi

Masses

   1	14.01	# n
   2	12.01	# c
   3	12.01	# ca
   4	1.008	# hn
   5	16.0	# o
   6	1.008	# ha
   7	12.01	# c3
   8	19.0	# f
   9	1.008	# hc

Pair Coeffs

   1	0.17	3.249998523775958	# n
   2	0.086	3.3996695084235347	# c
   3	0.086	3.3996695084235347	# ca
   4	0.0157	1.069078461768407	# hn
   5	0.21	2.959921901149463	# o
   6	0.015	2.59964245953351	# ha
   7	0.1094	3.3996695084235347	# c3
   8	0.061	3.1181455134911875	# f
   9	0.0157	2.649532787749369	# hc

Bond Coeffs

   1	345.8	1.086	# ca,ha
   2	384.2	1.4121	# ca,n
   3	637.7	1.2183	# c,o
   4	321.0	1.5156	# c3,ca
   5	461.1	1.3984	# ca,ca
   6	300.9	1.5375	# c3,c3
   7	330.6	1.0969	# c3,hc
   8	403.2	1.0129	# hn,n
   9	356.9	1.3497	# c3,f
  10	427.6	1.3789	# c,n
  11	345.9	1.4906	# c,ca

Angle Coeffs

   1	48.33	117.55	# c,n,hn
   2	74.22	123.05	# n,c,o
   3	64.28	120.33	# c,ca,ca
   4	70.89	107.36	# f,c3,f
   5	66.11	109.24	# c3,c3,f
   6	67.87	120.19	# ca,ca,n
   7	39.4	107.58	# hc,c3,hc
   8	63.53	120.77	# c3,ca,ca
   9	66.62	120.02	# ca,ca,ca
  10	63.82	123.71	# c,n,ca
  11	62.86	111.51	# c3,c3,c3
  12	46.34	109.8	# c3,c3,hc
  13	63.74	127.08	# c,n,c
  14	48.18	119.88	# ca,ca,ha
  15	68.72	122.6	# ca,c,o
  16	63.56	112.24	# ca,c3,ca
  17	63.15	112.07	# c3,c3,ca
  18	67.68	115.25	# ca,c,n

Dihedral Coeffs

   1	2	2.5	2	180	2.0	1	0	# hn,n,c,o
   2	1	3.625	2	180	# X,ca,ca,X
   3	1	0.16	3	0	# hc,c3,c3,c3
   4	1	1.0	2	180	# X,c,ca,X
   5	1	0.15555555555555556	3	0	# X,c3,c3,X
   6	1	0.0	2	0	# X,c3,ca,X
   7	1	2.5	2	180	# X,c,n,X
   8	1	0.45	2	180	# X,ca,n,X

Improper Coeffs

   1	10.5	-1	2	# c,X,X,o
   2	1.1	-1	2	# ca,X,X,ha
   3	1.1	-1	2	# ca,ca,ca,c3
   4	1.1	-1	2	# n,X,X,hn

Atoms

   1	1	1	0.469872	-44.3239	34.0731	-74.022
   2	1	2	0.06277	-44.1122	34.3187	-75.3824
   3	1	3	0.008141	-42.7901	34.9873	-75.4595
   4	1	2	0.04539	-43.2469	34.4932	-73.2344
   5	1	3	0.033062	-42.2749	35.0867	-74.1859
   6	1	5	-0.387649	-44.847	34.0862	-76.3285
   7	1	5	-0.380594	-43.1284	34.4668	-72.0199
   8	1	3	0.006556	-42.1168	35.5117	-76.5665
   9	1	3	-0.023388	-41.0442	35.7034	-73.9489
  10	1	3	-0.199879	-40.3468	36.2411	-75.0514
  11	1	3	-0.080819	-40.8771	36.1765	-76.3723
  12	1	6	0.152396	-42.5669	35.419	-77.5521
  13	1	6	0.149363	-40.649	35.7719	-72.9375
  14	1	6	0.171749	-39.3911	36.7141	-74.8504
  15	1	7	-0.126864	-40.1507	36.7815	-77.61
  16	1	7	0.414085	-39.0484	37.8504	-77.251
  17	1	8	-0.136036	-38.6339	38.5249	-78.3477
  18	1	8	-0.12675	-37.9423	37.3139	-76.688
  19	1	8	-0.136493	-39.516	38.7851	-76.3926
  20	1	7	0.412463	-39.4667	35.5735	-78.3562
  21	1	8	-0.134035	-38.6299	35.9584	-79.3459
  22	1	8	-0.126523	-40.3823	34.7445	-78.9069
  23	1	8	-0.120355	-38.7377	34.8132	-77.5077
  24	1	3	-0.02363	-41.2156	37.5291	-78.4662
  25	1	3	-0.07382	-41.2887	37.4152	-79.8801
  26	1	3	-0.058666	-42.2759	38.1326	-80.5678
  27	1	3	-0.05367	-42.14	38.3936	-77.8128
  28	1	3	-0.161949	-43.1232	39.1095	-78.5253
  29	1	3	-0.052731	-43.1669	38.9552	-79.9143
  30	1	2	0.511278	-44.0614	39.5733	-80.9302
  31	1	1	-0.11022	-43.6458	39.07	-82.1585
  32	1	2	0.48346	-42.5754	38.1921	-82.0223
  33	1	3	0.062835	-44.2392	39.4166	-83.4081
  34	1	3	-0.214737	-45.6369	39.5055	-83.5407
  35	1	3	-0.092253	-46.2224	39.8555	-84.7698
  36	1	3	-0.160974	-43.4384	39.6804	-84.5342
  37	1	3	-0.148646	-44.0233	40.022	-85.7647
  38	1	3	0.041241	-45.4237	40.1144	-85.9061
  39	1	6	0.160326	-46.2797	39.3147	-82.6853
  40	1	6	0.154695	-42.3556	39.6157	-84.4633
  41	1	6	0.134327	-43.3804	40.2116	-86.6206
  42	1	6	0.119951	-47.3039	39.9238	-84.8188
  43	1	6	0.172628	-43.8257	39.7683	-78.0181
  44	1	6	0.137279	-42.0966	38.5155	-76.733
  45	1	6	0.14105	-40.6085	36.7967	-80.4562
  46	1	5	-0.471402	-41.9864	37.5786	-82.8952
  47	1	5	-0.485833	-44.96	40.3647	-80.7011
  48	1	7	0.140024	-46.0146	40.511	-87.2785
  49	1	7	-0.178691	-45.6739	42.0111	-87.4974
  50	1	9	0.043413	-46.0016	42.6108	-86.6383
  51	1	9	0.047557	-46.1735	42.416	-88.3864
  52	1	9	0.063016	-44.5928	42.1601	-87.6129
  53	1	7	-0.187892	-47.56	40.3812	-87.3428
  54	1	9	0.043685	-47.8826	39.3593	-87.1061
  55	1	9	0.055699	-47.9249	40.6165	-88.3509
  56	1	9	0.057684	-48.0514	41.0721	-86.646
  57	1	3	-0.164758	-45.3263	38.2087	-88.1508
  58	1	3	-0.151844	-45.0353	40.0862	-89.6421
  59	1	3	-0.169902	-44.5159	39.2226	-90.62
  60	1	3	0.006445	-44.3808	37.8407	-90.3806
  61	1	3	-0.175352	-44.8011	37.3456	-89.1273
  62	1	6	0.13478	-44.2155	39.6341	-91.5801
  63	1	6	0.147112	-44.7263	36.2903	-88.8876
  64	1	3	0.014571	-45.4353	39.5957	-88.381
  65	1	6	0.127309	-45.1217	41.1395	-89.8855
  66	1	6	0.132317	-45.6436	37.7912	-87.1986
  67	1	7	0.14442	-43.7783	36.9444	-91.4864
  68	1	3	-0.008293	-44.5777	37.1415	-92.7934
  69	1	7	-0.149636	-43.8172	35.4317	-91.1391
  70	1	7	-0.207624	-42.2792	37.3304	-91.6206
  71	1	3	-0.056733	-45.9878	37.0778	-92.7515
  72	1	3	-0.427248	-46.7532	37.2491	-93.9184
  73	1	3	0.300563	-46.1272	37.4827	-95.1478
  74	1	3	-0.034917	-43.9577	37.3682	-94.044
  75	1	3	-0.460652	-44.7299	37.5401	-95.2071
  76	1	6	0.132306	-46.4932	36.8978	-91.8055
  77	1	6	0.20081	-47.8366	37.2023	-93.874
  78	1	6	0.203835	-44.2469	37.7173	-96.1628
  79	1	6	0.127298	-42.8771	37.4138	-94.1313
  80	1	9	0.047033	-42.1604	38.3594	-91.9827
  81	1	9	0.065326	-41.7492	36.6606	-92.3094
  82	1	9	0.056928	-41.7768	37.2637	-90.6471
  83	1	9	0.032023	-44.8438	35.0881	-90.9596
  84	1	9	0.058797	-43.2183	35.2114	-90.2463
  85	1	9	0.03359	-43.4092	34.8339	-91.9643
  86	1	1	0.469872	-43.7504	26.4987	-54.7874
  87	1	2	0.06277	-44.3261	26.6958	-56.0421
  88	1	3	0.008141	-45.785	26.5221	-55.8285
  89	1	2	0.04539	-44.6932	26.2304	-53.7955
  90	1	3	0.033062	-46.0005	26.2352	-54.4971
  91	1	5	-0.387649	-43.775	26.9333	-57.1042
  92	1	5	-0.380594	-44.5096	26.0066	-52.6101
  93	1	3	0.006556	-46.8394	26.5872	-56.744
  94	1	3	-0.023388	-47.2826	25.9733	-54.0106
  95	1	3	-0.199879	-48.3602	26.0192	-54.9199
  96	1	3	-0.080819	-48.1637	26.339	-56.2951
  97	1	6	0.152396	-46.6234	26.8217	-57.7835
  98	1	6	0.149363	-47.4326	25.7275	-52.9613
  99	1	6	0.171749	-49.3457	25.7927	-54.5267
 100	1	7	-0.126864	-49.3254	26.4013	-57.3321
 101	1	7	0.414085	-49.1922	25.1144	-58.235
 102	1	8	-0.136036	-48.1024	25.1693	-59.0333
 103	1	8	-0.12675	-50.2575	24.9073	-59.0409
 104	1	8	-0.136493	-49.052	23.9976	-57.4851
 105	1	7	0.412463	-50.7642	26.4199	-56.6869
 106	1	8	-0.134035	-51.1045	25.2451	-56.11
 107	1	8	-0.126523	-51.7202	26.6939	-57.6035
 108	1	8	-0.120355	-50.8806	27.3775	-55.7387
 109	1	3	-0.02363	-49.1845	27.7382	-58.1156
 110	1	3	-0.07382	-49.3711	27.8376	-59.5215
 111	1	3	-0.058666	-49.2627	29.0953	-60.1324
 112	1	3	-0.05367	-48.9116	28.9293	-57.3848
 113	1	3	-0.161949	-48.8137	30.1837	-58.0164
 114	1	3	-0.052731	-48.9964	30.2338	-59.4008
 115	1	2	0.511278	-48.9957	31.3952	-60.3271
 116	1	1	-0.11022	-49.2694	30.8738	-61.5833
 117	1	2	0.48346	-49.431	29.4953	-61.5581
 118	1	3	0.062835	-49.4006	31.6832	-62.7426
 119	1	3	-0.214737	-48.5638	31.4988	-63.8561
 120	1	3	-0.092253	-48.6296	32.3852	-64.9477
 121	1	3	-0.160974	-50.3282	32.7368	-62.7529
 122	1	3	-0.148646	-50.4004	33.6149	-63.8453
 123	1	3	0.041241	-49.544	33.4621	-64.959
 124	1	6	0.160326	-47.8387	30.6891	-63.8631
 125	1	6	0.154695	-50.9686	32.9036	-61.8907
 126	1	6	0.134327	-51.1022	34.4391	-63.7868
 127	1	6	0.119951	-47.9418	32.2516	-65.7789
 128	1	6	0.172628	-48.6172	31.0919	-57.4495
 129	1	6	0.137279	-48.7875	28.8879	-56.3053
 130	1	6	0.14105	-49.6096	26.9802	-60.1425
 131	1	5	-0.471402	-49.685	28.754	-62.4909
 132	1	5	-0.485833	-48.8318	32.5625	-60.0166
 133	1	7	0.140024	-49.4947	34.5079	-66.0977
 134	1	7	-0.178691	-48.3051	35.4479	-65.7581
 135	1	9	0.043413	-48.3733	35.7992	-64.7202
 136	1	9	0.047557	-48.2902	36.339	-66.3973
 137	1	9	0.063016	-47.3466	34.9248	-65.8691
 138	1	7	-0.187892	-50.7742	35.3856	-66.1678
 139	1	9	0.043685	-50.742	36.0461	-67.044
 140	1	9	0.055699	-50.8785	36.0285	-65.2853
 141	1	9	0.057684	-51.6734	34.7625	-66.2561
 142	1	3	-0.164758	-50.0816	32.6856	-67.8085
 143	1	3	-0.151844	-48.5954	34.4497	-68.5172
 144	1	3	-0.169902	-48.5608	33.9018	-69.8076
 145	1	3	0.006445	-49.2669	32.7218	-70.1234
 146	1	3	-0.175352	-50.0353	32.1277	-69.0992
 147	1	6	0.13478	-47.9892	34.4265	-70.5677
 148	1	6	0.147112	-50.6314	31.244	-69.3017
 149	1	3	0.014571	-49.3519	33.8494	-67.4892
 150	1	6	0.127309	-48.0483	35.3696	-68.3446
 151	1	6	0.132317	-50.7114	32.2182	-67.056
 152	1	7	0.14442	-49.2728	32.1701	-71.5689
 153	1	3	-0.008293	-47.9856	32.606	-72.3113
 154	1	7	-0.149636	-50.5669	32.6927	-72.2494
 155	1	7	-0.207624	-49.3408	30.6173	-71.6025
 156	1	3	-0.056733	-47.997	33.5014	-73.4035
 157	1	3	-0.427248	-46.7964	33.9608	-73.9714
 158	1	3	0.300563	-45.5421	33.5385	-73.484
 159	1	3	-0.034917	-46.7327	32.1674	-71.8346
 160	1	3	-0.460652	-45.5343	32.6203	-72.4138
 161	1	6	0.132306	-48.9309	33.8776	-73.8097
 162	1	6	0.20081	-46.845	34.6646	-74.7991
 163	1	6	0.203835	-44.5884	32.2866	-71.9929
 164	1	6	0.127298	-46.6866	31.5005	-70.9767
 165	1	9	0.047033	-49.1874	30.2476	-72.6247
 166	1	9	0.065326	-50.3155	30.2429	-71.2675
 167	1	9	0.056928	-48.5727	30.167	-70.9624
 168	1	9	0.032023	-50.6012	33.7898	-72.2445
 169	1	9	0.058797	-51.4591	32.3403	-71.7164
 170	1	9	0.03359	-50.6416	32.3447	-73.2877
 171	1	1	0.469872	-26.7931	17.4006	-44.5727
 172	1	2	0.06277	-27.8098	18.3266	-44.3338
 173	1	3	0.008141	-27.1104	19.5638	-43.8953
 174	1	2	0.04539	-25.5226	17.9214	-44.3222
 175	1	3	0.033062	-25.7541	19.3175	-43.8836
 176	1	5	-0.387649	-29.0146	18.1865	-44.4656
 177	1	5	-0.380594	-24.437	17.3754	-44.4335
 178	1	3	0.006556	-27.6254	20.816	-43.5451
 179	1	3	-0.023388	-24.8376	20.2988	-43.5015
 180	1	3	-0.199879	-25.3355	21.5676	-43.1411
 181	1	3	-0.080819	-26.7295	21.8561	-43.1754
 182	1	6	0.152396	-28.7011	20.9727	-43.5737
 183	1	6	0.149363	-23.7721	20.0799	-43.4864
 184	1	6	0.171749	-24.6111	22.3164	-42.8378
 185	1	7	-0.126864	-27.3129	23.2529	-42.8138
 186	1	7	0.414085	-27.9164	23.1265	-41.3626
 187	1	8	-0.136036	-28.9867	22.3007	-41.3328
 188	1	8	-0.12675	-28.3129	24.3103	-40.8436
 189	1	8	-0.136493	-27.0205	22.6023	-40.4958
 190	1	7	0.412463	-26.2537	24.4225	-42.8207
 191	1	8	-0.134035	-25.3807	24.3639	-41.7899
 192	1	8	-0.126523	-26.8516	25.6337	-42.7523
 193	1	8	-0.120355	-25.5187	24.4356	-43.956
 194	1	3	-0.02363	-28.36	23.6044	-43.909
 195	1	3	-0.07382	-29.6604	24.0893	-43.6103
 196	1	3	-0.058666	-30.5404	24.3543	-44.6665
 197	1	3	-0.05367	-28.0	23.4371	-45.2771
 198	1	3	-0.161949	-28.8983	23.7205	-46.3245
 199	1	3	-0.052731	-30.1743	24.1766	-45.9834
 200	1	2	0.511278	-31.3316	24.5412	-46.8428
 201	1	1	-0.11022	-32.344	24.9148	-45.9687
 202	1	2	0.48346	-31.9462	24.8332	-44.64
 203	1	3	0.062835	-33.6406	25.3233	-46.3839
 204	1	3	-0.214737	-34.3522	24.5762	-47.3378
 205	1	3	-0.092253	-35.6391	24.9731	-47.7356
 206	1	3	-0.160974	-34.237	26.4719	-45.8358
 207	1	3	-0.148646	-35.5255	26.8679	-46.2314
 208	1	3	0.041241	-36.2462	26.1257	-47.1935
 209	1	6	0.160326	-33.9099	23.6852	-47.7766
 210	1	6	0.154695	-33.7067	27.0552	-45.0871
 211	1	6	0.134327	-35.9535	27.751	-45.7698
 212	1	6	0.119951	-36.1711	24.3756	-48.4717
 213	1	6	0.172628	-28.6171	23.5867	-47.3675
 214	1	6	0.137279	-27.0085	23.0737	-45.5362
 215	1	6	0.14105	-30.0083	24.2564	-42.596
 216	1	5	-0.471402	-32.5962	25.0889	-43.6412
 217	1	5	-0.485833	-31.3578	24.512	-48.0613
 218	1	7	0.140024	-37.677	26.499	-47.6349
 219	1	7	-0.178691	-38.0945	27.9345	-47.2114
 220	1	9	0.043413	-37.3811	28.6834	-47.5777
 221	1	9	0.047557	-38.1642	28.0307	-46.1206
 222	1	9	0.063016	-39.0795	28.1854	-47.6256
 223	1	7	-0.187892	-38.6446	25.5201	-46.916
 224	1	9	0.043685	-39.6936	25.7613	-47.1303
 225	1	9	0.055699	-38.5097	25.5732	-45.8279
 226	1	9	0.057684	-38.4589	24.482	-47.2195
 227	1	3	-0.164758	-36.8559	27.1709	-49.9526
 228	1	3	-0.151844	-38.7491	25.674	-49.8532
 229	1	3	-0.169902	-38.8118	25.6693	-51.2557
 230	1	3	0.006445	-37.9241	26.4427	-52.0328
 231	1	3	-0.175352	-36.9268	27.1758	-51.3557
 232	1	6	0.13478	-39.5793	25.0711	-51.7404
 233	1	6	0.147112	-36.1966	27.7609	-51.9043
 234	1	3	0.014571	-37.7725	26.434	-49.1755
 235	1	6	0.127309	-39.4782	25.0831	-49.3093
 236	1	6	0.132317	-36.0795	27.7528	-49.4625
 237	1	7	0.14442	-38.0564	26.4465	-53.5738
 238	1	3	-0.008293	-39.5513	26.4702	-53.966
 239	1	7	-0.149636	-37.3056	25.1928	-54.0959
 240	1	7	-0.207624	-37.3997	27.69	-54.2323
 241	1	3	-0.056733	-40.1105	25.5845	-54.9133
 242	1	3	-0.427248	-41.4873	25.6127	-55.1968
 243	1	3	0.300563	-42.3446	26.5207	-54.5452
 244	1	3	-0.034917	-40.4061	27.4066	-53.3469
 245	1	3	-0.460652	-41.7831	27.4249	-53.6237
 246	1	6	0.132306	-39.4915	24.8582	-55.4312
 247	1	6	0.20081	-41.895	24.9166	-55.9258
 248	1	6	0.203835	-42.4231	28.1284	-53.0972
 249	1	6	0.127298	-40.0013	28.1053	-52.6176
 250	1	9	0.047033	-37.6228	27.7195	-55.3067
 251	1	9	0.065326	-36.3079	27.6775	-54.1277
 252	1	9	0.056928	-37.7785	28.6194	-53.7887
 253	1	9	0.032023	-37.7873	24.27	-53.7481
 254	1	9	0.058797	-36.2708	25.1831	-53.7298
 255	1	9	0.03359	-37.2657	25.1731	-55.1924
 256	1	1	0.469872	-27.6627	0.362323	-29.0571
 257	1	2	0.06277	-27.4827	-0.109981	-30.3681
 258	1	3	0.008141	-28.3537	0.735148	-31.2486
 259	1	2	0.04539	-28.541	1.44772	-29.0273
 260	1	3	0.033062	-28.9831	1.64981	-30.4391
 261	1	5	-0.387649	-26.8114	-1.05874	-30.7368
 262	1	5	-0.380594	-28.9212	2.08356	-28.0585
 263	1	3	0.006556	-28.6263	0.660017	-32.6331
 264	1	3	-0.023388	-29.9204	2.5307	-30.9744
 265	1	3	-0.199879	-30.2131	2.45692	-32.3546
 266	1	3	-0.080819	-29.5969	1.52571	-33.2479
 267	1	6	0.152396	-28.0815	-0.0992582	-33.1745
 268	1	6	0.149363	-30.4371	3.23568	-30.3268
 269	1	6	0.171749	-30.9663	3.14484	-32.6818
 270	1	7	-0.126864	-30.0722	1.38435	-34.7722
 271	1	7	0.414085	-29.0113	0.552028	-35.624
 272	1	8	-0.136036	-27.8032	1.1597	-35.6083
 273	1	8	-0.12675	-29.3703	0.379469	-36.917
 274	1	8	-0.136493	-28.8023	-0.714976	-35.2055
 275	1	7	0.412463	-31.4056	0.530233	-34.7929
 276	1	8	-0.134035	-31.2429	-0.725813	-34.3229
 277	1	8	-0.126523	-31.9264	0.430663	-36.038
 278	1	8	-0.120355	-32.3794	1.05275	-34.019
 279	1	3	-0.02363	-30.3761	2.7773	-35.5026
 280	1	3	-0.07382	-29.743	3.1901	-36.725
 281	1	3	-0.058666	-30.1701	4.35035	-37.4022
 282	1	3	-0.05367	-31.4427	3.62749	-35.068
 283	1	3	-0.161949	-31.7705	4.85096	-35.6865
 284	1	3	-0.052731	-31.1126	5.19292	-36.8648
 285	1	2	0.511278	-31.3956	6.28538	-37.8354
 286	1	1	-0.11022	-30.6777	5.96664	-38.9775
 287	1	2	0.48346	-29.8821	4.83744	-38.7882
 288	1	3	0.062835	-30.8894	6.61423	-40.2327
 289	1	3	-0.214737	-31.3683	5.87586	-41.3279
 290	1	3	-0.092253	-31.6502	6.5036	-42.5547
 291	1	3	-0.160974	-30.7142	8.00241	-40.3864
 292	1	3	-0.148646	-30.9876	8.6307	-41.6197
 293	1	3	0.041241	-31.4537	7.89363	-42.7313
 294	1	6	0.160326	-31.5371	4.80682	-41.2268
 295	1	6	0.154695	-30.3824	8.60114	-39.5422
 296	1	6	0.134327	-30.8499	9.70529	-41.71
 297	1	6	0.119951	-32.0345	5.88682	-43.3595
 298	1	6	0.172628	-32.586	5.47018	-35.3174
 299	1	6	0.137279	-32.0987	3.34263	-34.2611
 300	1	6	0.14105	-28.9695	2.61647	-37.2196
 301	1	5	-0.471402	-29.2246	4.24792	-39.6277
 302	1	5	-0.485833	-32.1755	7.2072	-37.6704
 303	1	7	0.140024	-31.7911	8.62142	-44.0622
 304	1	7	-0.178691	-33.096	9.42995	-43.8246
 305	1	9	0.043413	-32.9279	10.262	-43.1295
 306	1	9	0.047557	-33.8752	8.78738	-43.3945
 307	1	9	0.063016	-33.4966	9.83864	-44.7607
 308	1	7	-0.187892	-32.0776	7.63583	-45.2284
 309	1	9	0.043685	-32.2323	8.18071	-46.1688
 310	1	9	0.055699	-32.9798	7.03946	-45.0443
 311	1	9	0.057684	-31.2327	6.95208	-45.3823
 312	1	3	-0.164758	-30.8113	10.761	-45.1716
 313	1	3	-0.151844	-29.302	9.01139	-44.4835
 314	1	3	-0.169902	-28.2183	9.74509	-44.9945
 315	1	3	0.006445	-28.4032	11.0099	-45.5984
 316	1	3	-0.175352	-29.7275	11.4855	-45.7027
 317	1	6	0.13478	-27.2352	9.29321	-44.9295
 318	1	6	0.147112	-29.9203	12.4337	-46.199
 319	1	3	0.014571	-30.6172	9.50963	-44.5432
 320	1	6	0.127309	-29.1146	8.0303	-44.0551
 321	1	6	0.132317	-31.8062	11.1781	-45.2836
 322	1	7	0.14442	-27.226	11.8185	-46.2119
 323	1	3	-0.008293	-27.2363	13.3222	-45.8327
 324	1	7	-0.149636	-27.3123	11.6337	-47.7527
 325	1	7	-0.207624	-25.8446	11.2738	-45.7514
 326	1	3	-0.056733	-27.9346	13.8153	-44.7071
 327	1	3	-0.427248	-27.838	15.1678	-44.3271
 328	1	3	0.300563	-27.0054	16.0622	-45.0287
 329	1	3	-0.034917	-26.4257	14.2323	-46.5472
 330	1	3	-0.460652	-26.3113	15.5741	-46.1516
 331	1	6	0.132306	-28.5356	13.1473	-44.0959
 332	1	6	0.20081	-28.3886	15.5166	-43.4567
 333	1	6	0.203835	-25.6306	16.2289	-46.6908
 334	1	6	0.127298	-25.8271	13.8927	-47.387
 335	1	9	0.047033	-25.7777	11.2638	-44.6557
 336	1	9	0.065326	-25.0233	11.8988	-46.1236
 337	1	9	0.056928	-25.6637	10.2581	-46.1236
 338	1	9	0.032023	-26.4136	11.9959	-48.2662
 339	1	9	0.058797	-28.1778	12.1668	-48.1654
 340	1	9	0.03359	-27.4182	10.5721	-48.0107
 341	1	1	0.469872	-12.3863	-6.15927	-4.65658
 342	1	2	0.06277	-12.4946	-6.75482	-5.93263
 343	1	3	0.008141	-13.7099	-6.17865	-6.62035
 344	1	2	0.04539	-13.4708	-5.26904	-4.47863
 345	1	3	0.033062	-14.3077	-5.30967	-5.74801
 346	1	5	-0.387649	-11.7686	-7.60862	-6.41401
 347	1	5	-0.380594	-13.6929	-4.55897	-3.51205
 348	1	3	0.006556	-14.2474	-6.40592	-7.91295
 349	1	3	-0.023388	-15.5106	-4.67743	-6.14061
 350	1	3	-0.199879	-16.0759	-4.91943	-7.43883
 351	1	3	-0.080819	-15.451	-5.76317	-8.40807
 352	1	6	0.152396	-13.7106	-7.14183	-8.49636
 353	1	6	0.149363	-16.0106	-4.01485	-5.43721
 354	1	6	0.171749	-17.0271	-4.45277	-7.67122
 355	1	7	-0.126864	-16.025	-6.09276	-9.90275
 356	1	7	0.414085	-14.7942	-5.90814	-10.8816
 357	1	8	-0.136036	-14.2525	-4.68234	-10.6985
 358	1	8	-0.12675	-15.1037	-5.98623	-12.1938
 359	1	8	-0.136493	-13.8088	-6.81368	-10.723
 360	1	7	0.412463	-16.4897	-7.60896	-9.83633
 361	1	8	-0.134035	-16.4667	-8.25153	-11.0222
 362	1	8	-0.126523	-17.7488	-7.68504	-9.34946
 363	1	8	-0.120355	-15.7431	-8.39776	-9.03554
 364	1	3	-0.02363	-17.2047	-5.26603	-10.6705
 365	1	3	-0.07382	-17.8294	-5.78618	-11.8745
 366	1	3	-0.058666	-18.6959	-5.02088	-12.7028
 367	1	3	-0.05367	-17.5704	-3.91566	-10.3839
 368	1	3	-0.161949	-18.4808	-3.16695	-11.1996
 369	1	3	-0.052731	-19.0256	-3.73275	-12.3759
 370	1	2	0.511278	-19.9184	-3.18649	-13.4801
 371	1	1	-0.11022	-20.0695	-4.18819	-14.4507
 372	1	2	0.48346	-19.3563	-5.3252	-14.0341
 373	1	3	0.062835	-20.9051	-4.11666	-15.6638
 374	1	3	-0.214737	-20.7083	-3.21082	-16.7441
 375	1	3	-0.092253	-21.4887	-3.25584	-17.9507
 376	1	3	-0.160974	-21.9657	-5.02367	-15.8492
 377	1	3	-0.148646	-22.7508	-5.05212	-17.0309
 378	1	3	0.041241	-22.5422	-4.19046	-18.1508
 379	1	6	0.160326	-19.9061	-2.48211	-16.6705
 380	1	6	0.154695	-22.1666	-5.75965	-15.0755
 381	1	6	0.134327	-23.5016	-5.83048	-17.0666
 382	1	6	0.119951	-21.233	-2.58378	-18.7654
 383	1	6	0.172628	-18.7233	-2.13609	-10.9479
 384	1	6	0.137279	-17.1062	-3.406	-9.5474
 385	1	6	0.14105	-17.5906	-6.765	-12.2641
 386	1	5	-0.471402	-19.275	-6.38546	-14.6283
 387	1	5	-0.485833	-20.4233	-2.07818	-13.4962
 388	1	7	0.140024	-23.2131	-4.52469	-19.5715
 389	1	7	-0.178691	-24.4232	-5.49888	-19.3739
 390	1	9	0.043413	-25.1746	-5.06776	-18.6999
 391	1	9	0.047557	-24.1183	-6.47098	-18.9687
 392	1	9	0.063016	-24.913	-5.73538	-20.3278
 393	1	7	-0.187892	-22.1548	-5.42063	-20.2795
 394	1	9	0.043685	-21.2202	-4.87869	-20.4635
 395	1	9	0.055699	-22.5293	-5.79329	-21.2428
 396	1	9	0.057684	-21.8948	-6.29143	-19.6643
 397	1	3	-0.164758	-25.0617	-3.25044	-20.9981
 398	1	3	-0.151844	-22.7956	-2.95119	-21.6461
 399	1	3	-0.169902	-23.2261	-2.56405	-22.9442
 400	1	3	0.006445	-24.5838	-2.62488	-23.3607
 401	1	3	-0.175352	-25.494	-2.87748	-22.3051
 402	1	6	0.13478	-22.4477	-2.34667	-23.666
 403	1	6	0.147112	-26.5572	-2.91901	-22.5274
 404	1	3	0.014571	-23.6868	-3.43724	-20.6562
 405	1	6	0.127309	-21.7265	-3.01294	-21.4767
 406	1	6	0.132317	-25.8347	-3.54914	-20.2968
 407	1	7	0.14442	-24.9936	-2.80331	-24.8909
 408	1	3	-0.008293	-25.8582	-1.72413	-25.6677
 409	1	7	-0.149636	-25.6907	-4.19776	-24.9892
 410	1	7	-0.207624	-23.7212	-3.01398	-25.7727
 411	1	3	-0.056733	-27.175	-2.00506	-26.1279
 412	1	3	-0.427248	-27.7715	-1.2947	-27.1982
 413	1	3	0.300563	-27.0961	-0.256446	-27.8736
 414	1	3	-0.034917	-25.2444	-0.591847	-26.2645
 415	1	3	-0.460652	-25.8389	0.11277	-27.3441
 416	1	6	0.132306	-27.7315	-2.8452	-25.7257
 417	1	6	0.20081	-28.7533	-1.6002	-27.5515
 418	1	6	0.203835	-25.2855	0.921371	-27.8138
 419	1	6	0.127298	-24.242	-0.307604	-25.9579
 420	1	9	0.047033	-23.0586	-2.14167	-25.7638
 421	1	9	0.065326	-23.9977	-3.19553	-26.8207
 422	1	9	0.056928	-23.134	-3.87794	-25.4366
 423	1	9	0.032023	-25.9215	-4.4589	-26.0318
 424	1	9	0.058797	-26.6271	-4.23581	-24.4215
 425	1	9	0.03359	-25.0441	-4.9913	-24.5933
 426	1	1	0.469872	5.12081	-10.0322	17.4077
 427	1	2	0.06277	5.19744	-11.01	16.4127
 428	1	3	0.008141	4.63632	-10.363	15.1826
 429	1	2	0.04539	4.53378	-8.85314	16.9505
 430	1	3	0.033062	4.26909	-9.07538	15.5093
 431	1	5	-0.387649	5.71054	-12.1142	16.4819
 432	1	5	-0.380594	4.35402	-7.81157	17.5609
 433	1	3	0.006556	4.54896	-10.8265	13.8577
 434	1	3	-0.023388	3.85064	-8.16842	14.5341
 435	1	3	-0.199879	3.79106	-8.60728	13.1943
 436	1	3	-0.080819	4.09819	-9.94599	12.8206
 437	1	6	0.152396	4.87644	-11.8418	13.6696
 438	1	6	0.149363	3.62697	-7.13927	14.8067
 439	1	6	0.171749	3.51962	-7.88249	12.43
 440	1	7	-0.126864	4.08715	-10.3319	11.2903
 441	1	7	0.414085	5.43048	-9.7478	10.7082
 442	1	8	-0.136036	5.35881	-8.40491	10.5732
 443	1	8	-0.12675	5.76681	-10.2487	9.5
 444	1	8	-0.136493	6.4822	-9.99614	11.5244
 445	1	7	0.412463	4.06789	-11.8942	11.0845
 446	1	8	-0.134035	5.21505	-12.5025	11.462
 447	1	8	-0.126523	3.87528	-12.248	9.79451
 448	1	8	-0.120355	3.05632	-12.4539	11.7857
 449	1	3	-0.02363	2.82371	-9.77431	10.5217
 450	1	3	-0.07382	2.77187	-9.63992	9.09391
 451	1	3	-0.058666	1.56538	-9.25619	8.45554
 452	1	3	-0.05367	1.62059	-9.51071	11.2335
 453	1	3	-0.161949	0.440228	-9.09195	10.5835
 454	1	3	-0.052731	0.440065	-8.9817	9.18698
 455	1	2	0.511278	-0.684096	-8.69593	8.24947
 456	1	1	-0.11022	-0.208132	-8.85512	6.93641
 457	1	2	0.48346	1.17313	-9.15764	7.00442
 458	1	3	0.062835	-1.05506	-8.85074	5.72707
 459	1	3	-0.214737	-2.46085	-8.63455	5.7662
 460	1	3	-0.092253	-3.31259	-8.86857	4.65716
 461	1	3	-0.160974	-0.556149	-9.16402	4.4381
 462	1	3	-0.148646	-1.40603	-9.39584	3.32711
 463	1	3	0.041241	-2.8227	-9.32803	3.41771
 464	1	6	0.160326	-2.95624	-8.34611	6.68259
 465	1	6	0.154695	0.505508	-9.30893	4.27636
 466	1	6	0.134327	-0.92906	-9.7287	2.41162
 467	1	6	0.119951	-4.38665	-8.79786	4.80378
 468	1	6	0.172628	-0.472077	-8.90626	11.1467
 469	1	6	0.137279	1.57841	-9.65814	12.3087
 470	1	6	0.14105	3.62584	-9.88708	8.47088
 471	1	5	-0.471402	1.95199	-9.36065	6.09033
 472	1	5	-0.485833	-1.80671	-8.43296	8.64092
 473	1	7	0.140024	-3.77366	-10.092	2.4141
 474	1	7	-0.178691	-4.21728	-11.3433	3.237
 475	1	9	0.043413	-4.85697	-11.0678	4.08459
 476	1	9	0.047557	-3.34518	-11.8643	3.65738
 477	1	9	0.063016	-4.76008	-12.0703	2.62012
 478	1	7	-0.187892	-2.96292	-10.7081	1.23391
 479	1	9	0.043685	-2.19469	-11.4097	1.58815
 480	1	9	0.055699	-2.46535	-9.93479	0.637308
 481	1	9	0.057684	-3.62206	-11.2739	0.562693
 482	1	3	-0.164758	-6.35132	-9.83073	1.9289
 483	1	3	-0.151844	-4.88661	-8.41676	0.700455
 484	1	3	-0.169902	-5.96054	-8.07323	-0.179947
 485	1	3	0.006445	-7.25859	-8.65115	-0.085698
 486	1	3	-0.175352	-7.41713	-9.48534	1.0578
 487	1	6	0.13478	-5.7343	-7.43373	-1.02713
 488	1	6	0.147112	-8.35579	-9.99654	1.23694
 489	1	3	0.014571	-5.0246	-9.3622	1.74947
 490	1	6	0.127309	-3.89757	-8.02081	0.488235
 491	1	6	0.132317	-6.56925	-10.5708	2.69148
 492	1	7	0.14442	-8.24616	-8.76904	-1.34714
 493	1	3	-0.008293	-9.13582	-7.58378	-1.96757
 494	1	7	-0.149636	-9.27914	-9.91408	-1.10299
 495	1	7	-0.207624	-7.3432	-9.37207	-2.46852
 496	1	3	-0.056733	-8.90894	-7.10918	-3.28991
 497	1	3	-0.427248	-9.94462	-6.59011	-4.11744
 498	1	3	0.300563	-11.2927	-6.46295	-3.69602
 499	1	3	-0.034917	-10.4397	-7.27874	-1.48031
 500	1	3	-0.460652	-11.4765	-6.74194	-2.31179
 501	1	6	0.132306	-7.93891	-7.2544	-3.7543
 502	1	6	0.20081	-9.70409	-6.37139	-5.15448
 503	1	6	0.203835	-12.4677	-6.6138	-1.88358
 504	1	6	0.127298	-10.697	-7.57159	-0.465142
 505	1	9	0.047033	-6.85977	-10.298	-2.12994
 506	1	9	0.065326	-6.54263	-8.68462	-2.7648
 507	1	9	0.056928	-7.92387	-9.62041	-3.36667
 508	1	9	0.032023	-9.95353	-9.68625	-0.268915
 509	1	9	0.058797	-8.78639	-10.8699	-0.88346
 510	1	9	0.03359	-9.90434	-10.073	-1.99192
 511	1	1	0.469872	21.3533	-16.317	35.6635
 512	1	2	0.06277	20.6717	-15.1053	35.5186
 513	1	3	0.008141	19.6129	-15.3927	34.5033
 514	1	2	0.04539	20.7121	-17.3774	35.0262
 515	1	3	0.033062	19.6674	-16.7372	34.2095
 516	1	5	-0.387649	21.0155	-13.9998	35.902
 517	1	5	-0.380594	21.0971	-18.5287	34.8958
 518	1	3	0.006556	18.9023	-14.4999	33.6841
 519	1	3	-0.023388	19.0503	-17.2594	33.0814
 520	1	3	-0.199879	18.4056	-16.3678	32.2104
 521	1	3	-0.080819	18.3361	-14.9606	32.4561
 522	1	6	0.152396	18.9181	-13.4545	33.962
 523	1	6	0.149363	19.1878	-18.3063	32.8176
 524	1	6	0.171749	18.0505	-16.8257	31.3004
 525	1	7	-0.126864	17.846	-13.9469	31.3513
 526	1	7	0.414085	18.988	-12.8575	31.076
 527	1	8	-0.136036	19.4004	-12.1537	32.1486
 528	1	8	-0.12675	18.5898	-11.9139	30.1939
 529	1	8	-0.136493	20.1341	-13.3945	30.6047
 530	1	7	0.412463	17.6491	-14.6584	29.9269
 531	1	8	-0.134035	18.7765	-15.2268	29.4432
 532	1	8	-0.126523	17.2187	-13.7997	28.9747
 533	1	8	-0.120355	16.7485	-15.6661	29.9153
 534	1	3	-0.02363	16.5141	-13.2109	31.7745
 535	1	3	-0.07382	15.2583	-13.5141	31.1696
 536	1	3	-0.058666	14.2032	-12.6034	31.251
 537	1	3	-0.05367	16.5341	-12.0745	32.6404
 538	1	3	-0.161949	15.4565	-11.1626	32.7106
 539	1	3	-0.052731	14.3173	-11.4255	31.9433
 540	1	2	0.511278	13.1308	-10.5852	31.6148
 541	1	1	-0.11022	12.3619	-11.334	30.7228
 542	1	2	0.48346	12.9213	-12.5879	30.5013
 543	1	3	0.062835	11.1784	-10.8578	30.0722
 544	1	3	-0.214737	10.8853	-11.1965	28.7345
 545	1	3	-0.092253	9.7063	-10.7442	28.1095
 546	1	3	-0.160974	10.2647	-10.0424	30.7605
 547	1	3	-0.148646	9.10602	-9.56533	30.1266
 548	1	3	0.041241	8.80564	-9.89168	28.7835
 549	1	6	0.160326	11.5602	-11.836	28.1717
 550	1	6	0.154695	10.4453	-9.77446	31.7984
 551	1	6	0.134327	8.42384	-8.95941	30.7123
 552	1	6	0.119951	9.49484	-11.0723	27.0956
 553	1	6	0.172628	15.5341	-10.2416	33.2856
 554	1	6	0.137279	17.4147	-11.8226	33.2154
 555	1	6	0.14105	15.0787	-14.3671	30.5351
 556	1	5	-0.471402	12.5038	-13.494	29.8012
 557	1	5	-0.485833	12.9598	-9.4338	31.9764
 558	1	7	0.140024	7.46625	-9.4247	28.1518
 559	1	7	-0.178691	7.15594	-7.94982	28.5365
 560	1	9	0.043413	6.995	-7.81312	29.6109
 561	1	9	0.047557	6.24234	-7.60516	28.0343
 562	1	9	0.063016	7.97236	-7.28616	28.2233
 563	1	7	-0.187892	6.36203	-10.3215	28.7773
 564	1	9	0.043685	5.35567	-9.93429	28.5785
 565	1	9	0.055699	6.46693	-10.3725	29.8684
 566	1	9	0.057684	6.42798	-11.3463	28.3903
 567	1	3	-0.164758	6.21952	-9.67692	25.8973
 568	1	3	-0.151844	8.50195	-8.91966	25.8489
 569	1	3	-0.169902	8.37324	-8.62699	24.4788
 570	1	3	0.006445	7.13751	-8.77276	23.8026
 571	1	3	-0.175352	6.08217	-9.35545	24.5356
 572	1	6	0.13478	9.23593	-8.19595	23.9849
 573	1	6	0.147112	5.10607	-9.48252	24.0837
 574	1	3	0.014571	7.41967	-9.42284	26.5983
 575	1	6	0.127309	9.43657	-8.67449	26.3456
 576	1	6	0.132317	5.33837	-10.0364	26.416
 577	1	7	0.14442	6.8703	-8.12434	22.4109
 578	1	3	-0.008293	6.62966	-9.12696	21.2415
 579	1	7	-0.149636	7.99063	-7.09759	22.0484
 580	1	7	-0.207624	5.60697	-7.21056	22.5164
 581	1	3	-0.056733	5.38733	-9.79078	21.117
 582	1	3	-0.427248	4.92923	-10.2449	19.8647
 583	1	3	0.300563	5.71774	-10.0811	18.7087
 584	1	3	-0.034917	7.49944	-9.18235	20.1264
 585	1	3	-0.460652	7.04495	-9.64322	18.8779
 586	1	6	0.132306	4.69947	-9.82156	21.9546
 587	1	6	0.20081	3.90342	-10.5903	19.7736
 588	1	6	0.203835	7.68464	-9.51954	18.0081
 589	1	6	0.127298	8.48913	-8.7393	20.166
 590	1	9	0.047033	4.68897	-7.76221	22.7421
 591	1	9	0.065326	5.43076	-6.67994	21.5707
 592	1	9	0.056928	5.72817	-6.45756	23.3052
 593	1	9	0.032023	8.972	-7.57275	21.9378
 594	1	9	0.058797	8.08191	-6.32402	22.8223
 595	1	9	0.03359	7.76691	-6.58325	21.1041
 596	1	1	0.469872	36.8571	-12.3766	45.9587
 597	1	2	0.06277	35.8364	-11.8251	45.2021
 598	1	3	0.008141	34.7631	-11.5719	46.1845
 599	1	2	0.04539	36.6335	-12.3052	47.3369
 600	1	3	0.033062	35.2317	-11.8263	47.4569
 601	1	5	-0.387649	35.6913	-11.8766	43.9915
 602	1	5	-0.380594	37.2779	-12.8363	48.2268
 603	1	3	0.006556	33.41	-11.6522	45.89
 604	1	3	-0.023388	34.3495	-11.9991	48.53
 605	1	3	-0.199879	32.9681	-12.0809	48.2485
 606	1	3	-0.080819	32.5046	-12.0554	46.9041
 607	1	6	0.152396	33.1632	-11.7283	44.8368
 608	1	6	0.149363	34.731	-12.2486	49.5179
 609	1	6	0.171749	32.3082	-12.3622	49.0633
 610	1	7	-0.126864	31.3222	-12.9428	46.4299
 611	1	7	0.414085	30.3216	-12.1162	45.5083
 612	1	8	-0.136036	29.664	-11.1622	46.2011
 613	1	8	-0.12675	29.381	-12.8945	44.9263
 614	1	8	-0.136493	30.9141	-11.4547	44.4925
 615	1	7	0.412463	30.4397	-13.594	47.5804
 616	1	8	-0.134035	29.4816	-14.4056	47.0806
 617	1	8	-0.126523	29.8235	-12.6727	48.3522
 618	1	8	-0.120355	31.1251	-14.377	48.4408
 619	1	3	-0.02363	32.099	-14.0856	45.6993
 620	1	3	-0.07382	32.0035	-14.2984	44.3052
 621	1	3	-0.058666	32.7238	-15.35	43.7352
 622	1	3	-0.05367	33.037	-14.8894	46.4209
 623	1	3	-0.161949	33.6993	-15.9866	45.8353
 624	1	3	-0.052731	33.4802	-16.2212	44.478
 625	1	2	0.511278	33.6508	-17.4679	43.682
 626	1	1	-0.11022	32.7886	-17.3115	42.5923
 627	1	2	0.48346	32.5014	-15.954	42.4188
 628	1	3	0.062835	31.7664	-18.2783	42.2782
 629	1	3	-0.214737	30.8	-17.9516	41.3111
 630	1	3	-0.092253	29.5179	-18.4922	41.3677
 631	1	3	-0.160974	31.4572	-19.3536	43.149
 632	1	3	-0.148646	30.2093	-20.0087	43.1004
 633	1	3	0.041241	29.1943	-19.5581	42.2311
 634	1	6	0.160326	30.9687	-17.1808	40.569
 635	1	6	0.154695	32.1485	-19.6673	43.9234
 636	1	6	0.134327	30.0194	-20.811	43.805
 637	1	6	0.119951	28.7688	-18.0684	40.7042
 638	1	6	0.172628	34.2908	-16.6783	46.4321