pySIMM System Object

1957 atoms
2117 bonds
3726 angles
5746 dihedrals
644 impropers

9 atom types
11 bond types
18 angle types
8 dihedral types
4 improper types

-190.163625 190.163625 xlo xhi
-190.163625 190.163625 ylo yhi
-190.163625 190.163625 zlo zhi

Masses

   1	14.01	# n
   2	12.01	# c
   3	12.01	# ca
   4	1.008	# hn
   5	16.0	# o
   6	1.008	# ha
   7	12.01	# c3
   8	19.0	# f
   9	1.008	# hc

Pair Coeffs

   1	0.17	3.249998523775958	# n
   2	0.086	3.3996695084235347	# c
   3	0.086	3.3996695084235347	# ca
   4	0.0157	1.069078461768407	# hn
   5	0.21	2.959921901149463	# o
   6	0.015	2.59964245953351	# ha
   7	0.1094	3.3996695084235347	# c3
   8	0.061	3.1181455134911875	# f
   9	0.0157	2.649532787749369	# hc

Bond Coeffs

   1	345.8	1.086	# ca,ha
   2	384.2	1.4121	# ca,n
   3	637.7	1.2183	# c,o
   4	321.0	1.5156	# c3,ca
   5	461.1	1.3984	# ca,ca
   6	300.9	1.5375	# c3,c3
   7	330.6	1.0969	# c3,hc
   8	403.2	1.0129	# hn,n
   9	356.9	1.3497	# c3,f
  10	427.6	1.3789	# c,n
  11	345.9	1.4906	# c,ca

Angle Coeffs

   1	48.33	117.55	# c,n,hn
   2	74.22	123.05	# n,c,o
   3	64.28	120.33	# c,ca,ca
   4	70.89	107.36	# f,c3,f
   5	66.11	109.24	# c3,c3,f
   6	67.87	120.19	# ca,ca,n
   7	39.4	107.58	# hc,c3,hc
   8	63.53	120.77	# c3,ca,ca
   9	66.62	120.02	# ca,ca,ca
  10	63.82	123.71	# c,n,ca
  11	62.86	111.51	# c3,c3,c3
  12	46.34	109.8	# c3,c3,hc
  13	63.74	127.08	# c,n,c
  14	48.18	119.88	# ca,ca,ha
  15	68.72	122.6	# ca,c,o
  16	63.56	112.24	# ca,c3,ca
  17	63.15	112.07	# c3,c3,ca
  18	67.68	115.25	# ca,c,n

Dihedral Coeffs

   1	2	2.5	2	180	2.0	1	0	# hn,n,c,o
   2	1	3.625	2	180	# X,ca,ca,X
   3	1	0.16	3	0	# hc,c3,c3,c3
   4	1	1.0	2	180	# X,c,ca,X
   5	1	0.15555555555555556	3	0	# X,c3,c3,X
   6	1	0.0	2	0	# X,c3,ca,X
   7	1	2.5	2	180	# X,c,n,X
   8	1	0.45	2	180	# X,ca,n,X

Improper Coeffs

   1	10.5	-1	2	# c,X,X,o
   2	1.1	-1	2	# ca,X,X,ha
   3	1.1	-1	2	# ca,ca,ca,c3
   4	1.1	-1	2	# n,X,X,hn

Atoms

   1	1	1	0.469872	-122.265	-63.5021	3.00275
   2	1	2	0.06277	-122.038	-64.0374	4.27458
   3	1	3	0.008141	-122.032	-65.511	4.0895
   4	1	2	0.04539	-122.407	-64.4965	2.02965
   5	1	3	0.033062	-122.252	-65.7829	2.75654
   6	1	5	-0.387649	-121.893	-63.4539	5.33646
   7	1	5	-0.380594	-122.604	-64.372	0.831566
   8	1	3	0.006556	-121.827	-66.5298	5.02714
   9	1	3	-0.023388	-122.279	-67.0967	2.28215
  10	1	3	-0.199879	-122.074	-68.14	3.20996
  11	1	3	-0.080819	-121.854	-67.8837	4.59262
  12	1	6	0.152396	-121.636	-66.2443	6.05574
  13	1	6	0.149363	-122.438	-67.2978	1.22499
  14	1	6	0.171749	-122.069	-69.1637	2.84069
  15	1	7	-0.126864	-121.563	-69.082	5.54671
  16	1	7	0.414085	-120.052	-69.4676	5.31338
  17	1	8	-0.136036	-119.565	-70.3245	6.23884
  18	1	8	-0.12675	-119.25	-68.3785	5.34361
  19	1	8	-0.136493	-119.867	-70.0388	4.10167
  20	1	7	0.412463	-121.774	-68.7399	7.07105
  21	1	8	-0.134035	-121.767	-69.8521	7.84103
  22	1	8	-0.126523	-122.969	-68.1434	7.28284
  23	1	8	-0.120355	-120.825	-67.9194	7.57441
  24	1	3	-0.02363	-122.556	-70.2409	5.23249
  25	1	3	-0.07382	-122.163	-71.6064	5.23085
  26	1	3	-0.058666	-123.136	-72.595	5.0377
  27	1	3	-0.05367	-123.934	-69.9401	5.03559
  28	1	3	-0.161949	-124.898	-70.9521	4.84369
  29	1	3	-0.052731	-124.465	-72.2827	4.85732
  30	1	2	0.511278	-125.232	-73.5557	4.75994
  31	1	1	-0.11022	-124.297	-74.5762	4.89806
  32	1	2	0.48346	-123.007	-74.0755	5.04994
  33	1	3	0.062835	-124.622	-75.9657	4.92787
  34	1	3	-0.214737	-124.008	-76.8218	5.85955
  35	1	3	-0.092253	-124.323	-78.19	5.89912
  36	1	3	-0.160974	-125.58	-76.508	4.05076
  37	1	3	-0.148646	-125.908	-77.8743	4.10187
  38	1	3	0.041241	-125.268	-78.7464	5.00965
  39	1	6	0.160326	-123.276	-76.4307	6.56175
  40	1	6	0.154695	-126.087	-75.8691	3.33231
  41	1	6	0.134327	-126.669	-78.2543	3.42486
  42	1	6	0.119951	-123.828	-78.8076	6.64053
  43	1	6	0.172628	-125.952	-70.7136	4.71792
  44	1	6	0.137279	-124.269	-68.9061	5.05784
  45	1	6	0.14105	-121.14	-71.9232	5.40633
  46	1	5	-0.471402	-121.966	-74.6955	5.18387
  47	1	5	-0.485833	-126.44	-73.6506	4.62248
  48	1	7	0.140024	-125.652	-80.2442	5.06764
  49	1	7	-0.178691	-126.82	-80.367	6.08288
  50	1	9	0.043413	-126.541	-79.93	7.05042
  51	1	9	0.047557	-127.089	-81.415	6.26394
  52	1	9	0.063016	-127.709	-79.8338	5.7238
  53	1	7	-0.187892	-124.49	-81.1362	5.58657
  54	1	9	0.043685	-123.569	-80.9556	5.0188
  55	1	9	0.055699	-124.744	-82.1988	5.47959
  56	1	9	0.057684	-124.28	-80.9611	6.64853
  57	1	3	-0.164758	-125.134	-80.5407	2.58543
  58	1	3	-0.151844	-127.184	-81.5228	3.40083
  59	1	3	-0.169902	-127.466	-81.9932	2.10814
  60	1	3	0.006445	-126.602	-81.7304	1.02627
  61	1	3	-0.175352	-125.423	-81.0001	1.28962
  62	1	6	0.13478	-128.368	-82.5777	1.94755
  63	1	6	0.147112	-124.71	-80.7816	0.501343
  64	1	3	0.014571	-126.016	-80.7746	3.66036
  65	1	6	0.127309	-127.887	-81.7583	4.19204
  66	1	6	0.132317	-124.215	-79.9854	2.75481
  67	1	7	0.14442	-126.969	-82.2709	-0.376339
  68	1	3	-0.008293	-127.049	-83.8122	-0.332965
  69	1	7	-0.149636	-125.93	-81.8948	-1.46657
  70	1	7	-0.207624	-128.313	-81.6081	-0.791252
  71	1	3	-0.056733	-126.094	-84.5402	0.411405
  72	1	3	-0.427248	-126.129	-85.9453	0.451928
  73	1	3	0.300563	-127.109	-86.6509	-0.256135
  74	1	3	-0.034917	-128.022	-84.5378	-1.05737
  75	1	3	-0.460652	-128.051	-85.9433	-1.01259
  76	1	6	0.132306	-125.317	-84.0147	0.961799
  77	1	6	0.20081	-125.393	-86.4931	1.03173
  78	1	6	0.203835	-128.803	-86.4912	-1.57056
  79	1	6	0.127298	-128.759	-84.0244	-1.66549
  80	1	9	0.047033	-129.147	-81.9706	-0.177243
  81	1	9	0.065326	-128.557	-81.8042	-1.84257
  82	1	9	0.056928	-128.26	-80.5187	-0.66843
  83	1	9	0.032023	-124.942	-82.3143	-1.23667
  84	1	9	0.058797	-125.832	-80.8063	-1.5652
  85	1	9	0.03359	-126.233	-82.2908	-2.44464
  86	1	1	0.469872	-113.18	-41.903	-3.89322
  87	1	2	0.06277	-113.826	-42.9334	-3.20491
  88	1	3	0.008141	-115.278	-42.6911	-3.41067
  89	1	2	0.04539	-114.078	-41.0365	-4.52077
  90	1	3	0.033062	-115.424	-41.5633	-4.18916
  91	1	5	-0.387649	-113.335	-43.8447	-2.5586
  92	1	5	-0.380594	-113.845	-40.0351	-5.17825
  93	1	3	0.006556	-116.387	-43.3928	-2.92525
  94	1	3	-0.023388	-116.685	-41.0675	-4.52131
  95	1	3	-0.199879	-117.817	-41.7561	-4.03875
  96	1	3	-0.080819	-117.693	-42.9309	-3.24215
  97	1	6	0.152396	-116.228	-44.2703	-2.30293
  98	1	6	0.149363	-116.781	-40.1651	-5.1215
  99	1	6	0.171749	-118.789	-41.3417	-4.28734
 100	1	7	-0.126864	-118.921	-43.6882	-2.65437
 101	1	7	0.414085	-119.005	-43.2768	-1.13426
 102	1	8	-0.136036	-117.974	-43.7845	-0.420378
 103	1	8	-0.12675	-120.144	-43.6814	-0.529282
 104	1	8	-0.136493	-118.941	-41.9347	-0.978788
 105	1	7	0.412463	-120.29	-43.3352	-3.35229
 106	1	8	-0.134035	-120.73	-42.0874	-3.07246
 107	1	8	-0.126523	-121.274	-44.1832	-2.97628
 108	1	8	-0.120355	-120.208	-43.435	-4.69869
 109	1	3	-0.02363	-118.7	-45.2118	-2.88251
 110	1	3	-0.07382	-118.964	-46.1887	-1.88512
 111	1	3	-0.058666	-118.752	-47.5403	-2.18721
 112	1	3	-0.05367	-118.251	-45.656	-4.15887
 113	1	3	-0.161949	-118.05	-47.0214	-4.4436
 114	1	3	-0.052731	-118.311	-47.9469	-3.42875
 115	1	2	0.511278	-118.182	-49.4287	-3.41468
 116	1	1	-0.11022	-118.542	-49.8248	-2.13424
 117	1	2	0.48346	-118.908	-48.75	-1.33527
 118	1	3	0.062835	-118.463	-51.1691	-1.68127
 119	1	3	-0.214737	-117.681	-51.4912	-0.561046
 120	1	3	-0.092253	-117.514	-52.8296	-0.167106
 121	1	3	-0.160974	-119.116	-52.2014	-2.37459
 122	1	3	-0.148646	-118.963	-53.5392	-1.97034
 123	1	3	0.041241	-118.13	-53.8834	-0.882067
 124	1	6	0.160326	-117.181	-50.7035	-0.00251943
 125	1	6	0.154695	-119.725	-51.9702	-3.24499
 126	1	6	0.134327	-119.478	-54.3159	-2.52757
 127	1	6	0.119951	-116.884	-53.0278	0.69313
 128	1	6	0.172628	-117.7	-47.3526	-5.41982
 129	1	6	0.137279	-118.057	-44.9323	-4.94667
 130	1	6	0.14105	-119.323	-45.9335	-0.893675
 131	1	5	-0.471402	-119.251	-48.767	-0.166166
 132	1	5	-0.485833	-117.813	-50.128	-4.34242
 133	1	7	0.140024	-117.911	-55.3765	-0.523248
 134	1	7	-0.178691	-116.765	-55.5811	0.50388
 135	1	9	0.043413	-115.827	-55.1349	0.14883
 136	1	9	0.047557	-116.581	-56.6493	0.677108
 137	1	9	0.063016	-117.019	-55.1389	1.47546
 138	1	7	-0.187892	-117.468	-56.115	-1.82115
 139	1	9	0.043685	-117.069	-57.1142	-1.60865
 140	1	9	0.055699	-116.676	-55.554	-2.33343
 141	1	9	0.057684	-118.303	-56.2357	-2.52266
 142	1	3	-0.164758	-120.052	-55.206	0.882524
 143	1	3	-0.151844	-119.49	-57.3642	-0.0404339
 144	1	3	-0.169902	-120.621	-57.9243	0.57825
 145	1	3	0.006445	-121.477	-57.1409	1.38128
 146	1	3	-0.175352	-121.179	-55.767	1.5046
 147	1	6	0.13478	-120.821	-58.9815	0.428098
 148	1	6	0.147112	-121.823	-55.1139	2.08408
 149	1	3	0.014571	-119.187	-55.9921	0.0935294
 150	1	6	0.127309	-118.847	-58.019	-0.61831
 151	1	6	0.132317	-119.852	-54.1481	1.02831
 152	1	7	0.14442	-122.734	-57.7444	2.05123
 153	1	3	-0.008293	-122.606	-59.2775	2.24347
 154	1	7	-0.149636	-123.952	-57.3485	1.17394
 155	1	7	-0.207624	-122.975	-57.1298	3.46043
 156	1	3	-0.056733	-123.488	-60.2033	1.64218
 157	1	3	-0.427248	-123.366	-61.5827	1.8868
 158	1	3	0.300563	-122.361	-62.0945	2.73292
 159	1	3	-0.034917	-121.586	-59.7896	3.07268
 160	1	3	-0.460652	-121.465	-61.1707	3.31127
 161	1	6	0.132306	-124.285	-59.8706	0.984467
 162	1	6	0.20081	-124.065	-62.264	1.40712
 163	1	6	0.203835	-120.68	-61.5234	3.97654
 164	1	6	0.127298	-120.883	-59.1065	3.54373
 165	1	9	0.047033	-123.759	-57.6819	3.99402
 166	1	9	0.065326	-123.299	-56.0841	3.40542
 167	1	9	0.056928	-122.065	-57.165	4.07226
 168	1	9	0.032023	-123.854	-57.7524	0.158153
 169	1	9	0.058797	-124.032	-56.2578	1.08324
 170	1	9	0.03359	-124.893	-57.7121	1.6075
 171	1	1	0.469872	-93.8616	-24.1897	-1.43844
 172	1	2	0.06277	-94.6606	-24.6112	-0.372609
 173	1	3	0.008141	-95.6144	-25.5828	-0.954888
 174	1	2	0.04539	-94.2095	-24.819	-2.64007
 175	1	3	0.033062	-95.3565	-25.7059	-2.30158
 176	1	5	-0.387649	-94.651	-24.2394	0.789797
 177	1	5	-0.380594	-93.716	-24.6779	-3.74727
 178	1	3	0.006556	-96.6777	-26.246	-0.340765
 179	1	3	-0.023388	-96.1642	-26.5081	-3.11529
 180	1	3	-0.199879	-97.2561	-27.1793	-2.5171
 181	1	3	-0.080819	-97.5277	-27.072	-1.12355
 182	1	6	0.152396	-96.8462	-26.0597	0.713517
 183	1	6	0.149363	-95.9718	-26.5752	-4.18386
 184	1	6	0.171749	-97.917	-27.7597	-3.15718
 185	1	7	-0.126864	-98.8105	-27.7126	-0.512638
 186	1	7	0.414085	-98.632	-28.0934	1.0098
 187	1	8	-0.136036	-97.4571	-28.7295	1.22111
 188	1	8	-0.12675	-99.6033	-28.9324	1.43786
 189	1	8	-0.136493	-98.6631	-27.0329	1.84693
 190	1	7	0.412463	-99.9416	-26.6226	-0.643244
 191	1	8	-0.134035	-99.5267	-25.4052	-0.224593
 192	1	8	-0.126523	-101.048	-26.9067	0.0810186
 193	1	8	-0.120355	-100.321	-26.4666	-1.93197
 194	1	3	-0.02363	-99.1634	-29.0537	-1.22853
 195	1	3	-0.07382	-100.507	-29.4304	-1.4964
 196	1	3	-0.058666	-100.783	-30.7406	-1.89791
 197	1	3	-0.05367	-98.1444	-30.0255	-1.43936
 198	1	3	-0.161949	-98.4454	-31.3443	-1.8471
 199	1	3	-0.052731	-99.7899	-31.6834	-2.04576
 200	1	2	0.511278	-100.442	-33.0145	-2.22034
 201	1	1	-0.11022	-101.807	-32.7754	-2.11576
 202	1	2	0.48346	-102.096	-31.4248	-1.99257
 203	1	3	0.062835	-102.785	-33.7752	-1.86287
 204	1	3	-0.214737	-102.632	-34.6187	-0.750788
 205	1	3	-0.092253	-103.683	-35.453	-0.336273
 206	1	3	-0.160974	-103.983	-33.8239	-2.59479
 207	1	3	-0.148646	-105.03	-34.6729	-2.18945
 208	1	3	0.041241	-104.917	-35.4663	-1.02605
 209	1	6	0.160326	-101.714	-34.5899	-0.169156
 210	1	6	0.154695	-104.128	-33.1612	-3.44413
 211	1	6	0.134327	-105.957	-34.6718	-2.75573
 212	1	6	0.119951	-103.53	-36.0521	0.554523
 213	1	6	0.172628	-97.6678	-32.1021	-1.92463
 214	1	6	0.137279	-97.1107	-29.7783	-1.20977
 215	1	6	0.14105	-101.351	-28.7773	-1.30985
 216	1	5	-0.471402	-103.185	-30.904	-1.82198
 217	1	5	-0.485833	-99.8734	-34.0919	-2.25471
 218	1	7	0.140024	-106.148	-36.2557	-0.514792
 219	1	7	-0.178691	-107.309	-35.2413	-0.30106
 220	1	9	0.043413	-107.662	-34.8174	-1.24866
 221	1	9	0.047557	-106.981	-34.4076	0.333402
 222	1	9	0.063016	-108.167	-35.711	0.196057
 223	1	7	-0.187892	-105.912	-36.9168	0.87235
 224	1	9	0.043685	-106.816	-37.4375	1.21267
 225	1	9	0.055699	-105.653	-36.169	1.63309
 226	1	9	0.057684	-105.108	-37.663	0.832182
 227	1	3	-0.164758	-105.49	-38.274	-1.92172
 228	1	3	-0.151844	-107.819	-37.6372	-1.94097
 229	1	3	-0.169902	-108.113	-38.742	-2.75773
 230	1	3	0.006445	-107.11	-39.6617	-3.13435
 231	1	3	-0.175352	-105.787	-39.3868	-2.72517
 232	1	6	0.13478	-109.141	-38.879	-3.07942
 233	1	6	0.147112	-104.974	-40.0397	-3.02386
 234	1	3	0.014571	-106.502	-37.3903	-1.4983
 235	1	6	0.127309	-108.639	-36.99	-1.64794
 236	1	6	0.132317	-104.463	-38.1112	-1.60701
 237	1	7	0.14442	-107.422	-40.906	-4.00116
 238	1	3	-0.008293	-108.938	-41.2268	-4.01318
 239	1	7	-0.149636	-106.687	-42.1624	-3.45256
 240	1	7	-0.207624	-106.855	-40.6338	-5.42128
 241	1	3	-0.056733	-109.589	-41.5574	-2.80475
 242	1	3	-0.427248	-110.975	-41.7981	-2.76618
 243	1	3	0.300563	-111.759	-41.7259	-3.93537
 244	1	3	-0.034917	-109.721	-41.1765	-5.18778
 245	1	3	-0.460652	-111.104	-41.4253	-5.1463
 246	1	6	0.132306	-109.019	-41.5956	-1.8792
 247	1	6	0.20081	-111.445	-42.0376	-1.81498
 248	1	6	0.203835	-111.68	-41.3458	-6.06543
 249	1	6	0.127298	-109.278	-40.9246	-6.14615
 250	1	9	0.047033	-107.02	-41.4893	-6.08871
 251	1	9	0.065326	-105.774	-40.4491	-5.3865
 252	1	9	0.056928	-107.32	-39.7447	-5.86565
 253	1	9	0.032023	-106.88	-42.3044	-2.38215
 254	1	9	0.058797	-105.601	-42.0956	-3.58584
 255	1	9	0.03359	-107.022	-43.0663	-3.97773
 256	1	1	0.469872	-70.5645	-14.4504	-0.926662
 257	1	2	0.06277	-71.3882	-13.699	-1.77398
 258	1	3	0.008141	-72.7608	-13.8546	-1.23636
 259	1	2	0.04539	-71.2912	-15.0468	0.112477
 260	1	3	0.033062	-72.707	-14.6668	-0.12701
 261	1	5	-0.387649	-71.1004	-13.0974	-2.796
 262	1	5	-0.380594	-70.8914	-15.7459	1.02966
 263	1	3	0.006556	-73.9684	-13.3517	-1.72979
 264	1	3	-0.023388	-73.8718	-15.0452	0.543895
 265	1	3	-0.199879	-75.1055	-14.5739	0.0457057
 266	1	3	-0.080819	-75.1857	-13.7164	-1.08985
 267	1	6	0.152396	-73.9214	-12.7144	-2.6053
 268	1	6	0.149363	-73.8205	-15.7043	1.40791
 269	1	6	0.171749	-76.0131	-14.9006	0.546977
 270	1	7	-0.126864	-76.5924	-13.2509	-1.5956
 271	1	7	0.414085	-77.2315	-12.379	-0.442206
 272	1	8	-0.136036	-77.6844	-13.1439	0.57603
 273	1	8	-0.12675	-78.2802	-11.6212	-0.831348
 274	1	8	-0.136493	-76.3258	-11.5235	0.0845541
 275	1	7	0.412463	-76.5236	-12.385	-2.91162
 276	1	8	-0.134035	-75.8547	-11.2237	-2.73208
 277	1	8	-0.126523	-77.7448	-12.0595	-3.39229
 278	1	8	-0.120355	-75.9197	-13.0619	-3.91532
 279	1	3	-0.02363	-77.4473	-14.5021	-1.95248
 280	1	3	-0.07382	-78.8663	-14.4418	-2.00361
 281	1	3	-0.058666	-79.5805	-15.5614	-2.45297
 282	1	3	-0.05367	-76.8112	-15.7072	-2.37036
 283	1	3	-0.161949	-77.549	-16.8292	-2.79532
 284	1	3	-0.052731	-78.9417	-16.7237	-2.82913
 285	1	2	0.511278	-79.9653	-17.6853	-3.31544
 286	1	1	-0.11022	-81.1777	-17.0175	-3.22648
 287	1	2	0.48346	-81.0375	-15.7381	-2.70427
 288	1	3	0.062835	-82.4044	-17.5679	-3.68392
 289	1	3	-0.214737	-82.8484	-18.8101	-3.20286
 290	1	3	-0.092253	-84.0326	-19.3811	-3.69752
 291	1	3	-0.160974	-83.1656	-16.9018	-4.65919
 292	1	3	-0.148646	-84.3435	-17.4798	-5.1647
 293	1	3	0.041241	-84.7918	-18.7373	-4.69776
 294	1	6	0.160326	-82.2674	-19.3438	-2.45534
 295	1	6	0.154695	-82.8383	-15.936	-5.03594
 296	1	6	0.134327	-84.8948	-16.9353	-5.92382
 297	1	6	0.119951	-84.3585	-20.3408	-3.30555
 298	1	6	0.172628	-77.0551	-17.7394	-3.1305
 299	1	6	0.137279	-75.728	-15.7786	-2.40237
 300	1	6	0.14105	-79.4166	-13.5393	-1.75703
 301	1	5	-0.471402	-81.905	-14.8988	-2.53747
 302	1	5	-0.485833	-79.7513	-18.8051	-3.74644
 303	1	7	0.140024	-86.0719	-19.4265	-5.2241
 304	1	7	-0.178691	-85.6547	-20.7697	-5.88784
 305	1	9	0.043413	-85.2225	-21.4669	-5.15981
 306	1	9	0.047557	-84.9014	-20.5971	-6.66738
 307	1	9	0.063016	-86.5113	-21.2648	-6.36259
 308	1	7	-0.187892	-86.8022	-18.6105	-6.32636
 309	1	9	0.043685	-87.1118	-17.6239	-5.95956
 310	1	9	0.055699	-87.7093	-19.1335	-6.65612
 311	1	9	0.057684	-86.1631	-18.4666	-7.20686
 312	1	3	-0.164758	-87.6799	-20.8335	-3.73999
 313	1	3	-0.151844	-87.3772	-18.4874	-3.25442
 314	1	3	-0.169902	-88.2937	-18.5848	-2.19659
 315	1	3	0.006445	-88.9393	-19.8036	-1.90154
 316	1	3	-0.175352	-88.5929	-20.9322	-2.67547
 317	1	6	0.13478	-88.4882	-17.6976	-1.60347
 318	1	6	0.147112	-89.034	-21.9018	-2.46129
 319	1	3	0.014571	-87.0596	-19.6044	-4.0513
 320	1	6	0.127309	-86.9084	-17.5278	-3.45581
 321	1	6	0.132317	-87.4681	-21.7284	-4.31548
 322	1	7	0.14442	-89.9414	-19.9073	-0.728616
 323	1	3	-0.008293	-90.9203	-21.0918	-0.922574
 324	1	7	-0.149636	-90.8114	-18.6234	-0.607987
 325	1	7	-0.207624	-89.1086	-20.0145	0.577264
 326	1	3	-0.056733	-91.0571	-22.1345	0.019313
 327	1	3	-0.427248	-91.9962	-23.162	-0.173643
 328	1	3	0.300563	-92.8426	-23.1866	-1.302
 329	1	3	-0.034917	-91.7409	-21.132	-2.06969
 330	1	3	-0.460652	-92.6851	-22.1584	-2.25486
 331	1	6	0.132306	-90.456	-22.1553	0.923041
 332	1	6	0.20081	-92.0955	-23.9286	0.591399
 333	1	6	0.203835	-93.3083	-22.1474	-3.14633
 334	1	6	0.127298	-91.6502	-20.3518	-2.82247
 335	1	9	0.047033	-88.4909	-20.9215	0.577718
 336	1	9	0.065326	-89.7552	-20.0285	1.464
 337	1	9	0.056928	-88.4303	-19.1577	0.679807
 338	1	9	0.032023	-91.6197	-18.7706	0.119886
 339	1	9	0.058797	-91.27	-18.3616	-1.56953
 340	1	9	0.03359	-90.2282	-17.7592	-0.268064
 341	1	1	0.469872	-45.659	-10.1897	2.33369
 342	1	2	0.06277	-46.496	-10.6238	3.36768
 343	1	3	0.008141	-47.8186	-10.0044	3.09421
 344	1	2	0.04539	-46.3131	-9.31612	1.45889
 345	1	3	0.033062	-47.7074	-9.22634	1.96229
 346	1	5	-0.387649	-46.2485	-11.3965	4.27922
 347	1	5	-0.380594	-45.8911	-8.7986	0.437409
 348	1	3	0.006556	-49.0404	-10.1712	3.75804
 349	1	3	-0.023388	-48.8133	-8.55732	1.43274
 350	1	3	-0.199879	-50.0552	-8.7146	2.08295
 351	1	3	-0.080819	-50.2008	-9.53303	3.23837
 352	1	6	0.152396	-49.0595	-10.8043	4.63855
 353	1	6	0.149363	-48.7134	-7.95117	0.534942
 354	1	6	0.171749	-50.9209	-8.20133	1.66925
 355	1	7	-0.126864	-51.614	-9.67665	3.88367
 356	1	7	0.414085	-51.731	-10.8881	4.88542
 357	1	8	-0.136036	-51.2846	-12.0376	4.32971
 358	1	8	-0.12675	-53.0138	-11.1229	5.2446
 359	1	8	-0.136493	-51.0359	-10.7016	6.0297
 360	1	7	0.412463	-51.8855	-8.33649	4.66801
 361	1	8	-0.134035	-52.9601	-8.39685	5.48616
 362	1	8	-0.126523	-52.0874	-7.29753	3.82642
 363	1	8	-0.120355	-50.8321	-7.99565	5.44519
 364	1	3	-0.02363	-52.6501	-9.96193	2.75528
 365	1	3	-0.07382	-53.957	-9.40306	2.75081
 366	1	3	-0.058666	-54.855	-9.78239	1.74354
 367	1	3	-0.05367	-52.3142	-10.8923	1.73078
 368	1	3	-0.161949	-53.233	-11.2613	0.727692
 369	1	3	-0.052731	-54.5082	-10.6895	0.764605
 370	1	2	0.511278	-55.6974	-10.9224	-0.0993765
 371	1	1	-0.11022	-56.703	-10.1252	0.427424
 372	1	2	0.48346	-56.2761	-9.3969	1.52902
 373	1	3	0.062835	-58.0299	-10.0867	-0.0751343
 374	1	3	-0.214737	-58.8035	-11.2575	-0.125651
 375	1	3	-0.092253	-60.1302	-11.2176	-0.588322
 376	1	3	-0.160974	-58.5967	-8.87466	-0.500095
 377	1	3	-0.148646	-59.9204	-8.83554	-0.970044
 378	1	3	0.041241	-60.7125	-10.0042	-1.02211
 379	1	6	0.160326	-58.3795	-12.2035	0.201216
 380	1	6	0.154695	-58.0154	-7.95757	-0.452947
 381	1	6	0.134327	-60.3349	-7.88143	-1.28033
 382	1	6	0.119951	-60.6968	-12.1439	-0.595427
 383	1	6	0.172628	-52.9736	-11.988	-0.0400887
 384	1	6	0.137279	-51.3317	-11.3577	1.72327
 385	1	6	0.14105	-54.3025	-8.71424	3.51449
 386	1	5	-0.471402	-56.9193	-8.61044	2.20151
 387	1	5	-0.485833	-55.7597	-11.6841	-1.04858
 388	1	7	0.140024	-62.1785	-9.92098	-1.50536
 389	1	7	-0.178691	-62.2405	-9.21813	-2.89406
 390	1	9	0.043413	-61.5244	-9.65584	-3.59985
 391	1	9	0.047557	-62.0044	-8.1495	-2.82462
 392	1	9	0.063016	-63.2457	-9.30177	-3.32747
 393	1	7	-0.187892	-62.9713	-9.00759	-0.526291
 394	1	9	0.043685	-62.8422	-9.33045	0.514094
 395	1	9	0.055699	-64.0432	-9.01347	-0.762905
 396	1	9	0.057684	-62.6285	-7.96689	-0.577182
 397	1	3	-0.164758	-63.6058	-11.8664	-0.555119
 398	1	3	-0.151844	-62.6491	-12.1281	-2.75399
 399	1	3	-0.169902	-63.2684	-13.3827	-2.87795
 400	1	3	0.006445	-64.0879	-13.8927	-1.84924
 401	1	3	-0.175352	-64.2162	-13.1253	-0.67462
 402	1	6	0.13478	-63.1058	-13.942	-3.79306
 403	1	6	0.147112	-64.8254	-13.4954	0.146366
 404	1	3	0.014571	-62.8352	-11.3243	-1.60789
 405	1	6	0.127309	-62.0231	-11.7857	-3.57131
 406	1	6	0.132317	-63.7516	-11.3186	0.369531
 407	1	7	0.14442	-64.8518	-15.2335	-1.96366
 408	1	3	-0.008293	-66.3517	-15.0261	-1.64568
 409	1	7	-0.149636	-64.1697	-16.2281	-0.984697
 410	1	7	-0.207624	-64.7759	-15.8552	-3.38356
 411	1	3	-0.056733	-66.989	-13.8077	-1.96214
 412	1	3	-0.427248	-68.3535	-13.6098	-1.69204
 413	1	3	0.300563	-69.1528	-14.6344	-1.14165
 414	1	3	-0.034917	-67.1449	-16.0556	-1.09772
 415	1	3	-0.460652	-68.5172	-15.8633	-0.858071
 416	1	6	0.132306	-66.4264	-13.0001	-2.42573
 417	1	6	0.20081	-68.7977	-12.651	-1.94821
 418	1	6	0.203835	-69.0922	-16.6879	-0.443593
 419	1	6	0.127298	-66.7103	-17.0239	-0.868596
 420	1	9	0.047033	-65.1732	-15.1636	-4.13765
 421	1	9	0.065326	-65.3699	-16.7765	-3.43712
 422	1	9	0.056928	-63.7448	-16.1141	-3.6555
 423	1	9	0.032023	-64.5361	-17.2533	-1.11798
 424	1	9	0.058797	-64.339	-15.9365	0.0592618
 425	1	9	0.03359	-63.0851	-16.2503	-1.15327
 426	1	1	0.469872	-21.044	-19.296	-0.0470676
 427	1	2	0.06277	-21.3084	-17.933	-0.152672
 428	1	3	0.008141	-22.5734	-17.7222	0.593268
 429	1	2	0.04539	-22.0379	-19.984	0.652745
 430	1	3	0.033062	-23.0157	-18.9387	1.0665
 431	1	5	-0.387649	-20.6332	-17.0677	-0.68506
 432	1	5	-0.380594	-22.0875	-21.1717	0.926809
 433	1	3	0.006556	-23.2181	-16.5251	0.91343
 434	1	3	-0.023388	-24.1613	-19.0231	1.86546
 435	1	3	-0.199879	-24.829	-17.8228	2.20224
 436	1	3	-0.080819	-24.3669	-16.5533	1.75219
 437	1	6	0.152396	-22.7702	-15.609	0.547505
 438	1	6	0.149363	-24.4927	-19.9847	2.25152
 439	1	6	0.171749	-25.6886	-17.8787	2.86735
 440	1	7	-0.126864	-25.015	-15.2508	2.32575
 441	1	7	0.414085	-24.4969	-15.1403	3.81305
 442	1	8	-0.136036	-25.1385	-16.0118	4.62378
 443	1	8	-0.12675	-24.645	-13.9128	4.35881
 444	1	8	-0.136493	-23.178	-15.4284	3.90464
 445	1	7	0.412463	-24.5901	-13.9539	1.53473
 446	1	8	-0.134035	-24.8033	-14.1046	0.207542
 447	1	8	-0.126523	-23.29	-13.6254	1.70963
 448	1	8	-0.120355	-25.3015	-12.8642	1.90235
 449	1	3	-0.02363	-26.5716	-15.3067	2.23992
 450	1	3	-0.07382	-27.3795	-14.5329	3.11584
 451	1	3	-0.058666	-28.7579	-14.4522	2.89014
 452	1	3	-0.05367	-27.2172	-15.9919	1.1716
 453	1	3	-0.161949	-28.6149	-15.9135	0.973461
 454	1	3	-0.052731	-29.3657	-15.117	1.84857
 455	1	2	0.511278	-30.7947	-14.6855	1.79946
 456	1	1	-0.11022	-30.9354	-13.7303	2.79994
 457	1	2	0.48346	-29.7667	-13.5729	3.53467
 458	1	3	0.062835	-32.0744	-12.8866	2.95286
 459	1	3	-0.214737	-31.9021	-11.4925	2.98087
 460	1	3	-0.092253	-33.002	-10.6331	3.1277
 461	1	3	-0.160974	-33.376	-13.4065	3.07148
 462	1	3	-0.148646	-34.4804	-12.5432	3.22541
 463	1	3	0.041241	-34.3164	-11.1384	3.23815
 464	1	6	0.160326	-30.9051	-11.0659	2.90408
 465	1	6	0.154695	-33.5337	-14.4818	3.0477
 466	1	6	0.134327	-35.4724	-12.974	3.33523
 467	1	6	0.119951	-32.8103	-9.56694	3.16995
 468	1	6	0.172628	-29.0925	-16.4014	0.12576
 469	1	6	0.137279	-26.6268	-16.5502	0.449867
 470	1	6	0.14105	-26.9597	-13.9247	3.90928
 471	1	5	-0.471402	-29.5513	-12.7938	4.44676
 472	1	5	-0.485833	-31.6226	-15.0309	0.974386
 473	1	7	0.140024	-35.5247	-10.1888	3.44909
 474	1	7	-0.178691	-35.2948	-8.79542	2.79895
 475	1	9	0.043413	-36.2141	-8.19663	2.8345
 476	1	9	0.047557	-35.0041	-8.89442	1.74525
 477	1	9	0.063016	-34.5191	-8.21989	3.31808
 478	1	7	-0.187892	-35.6573	-9.96784	4.97945
 479	1	9	0.043685	-34.7057	-9.62649	5.4071
 480	1	9	0.055699	-35.9329	-10.9004	5.488
 481	1	9	0.057684	-36.4107	-9.20539	5.21397
 482	1	3	-0.164758	-36.783	-11.207	1.47666
 483	1	3	-0.151844	-38.065	-10.7666	3.47349
 484	1	3	-0.169902	-39.2235	-11.2488	2.83705
 485	1	3	0.006445	-39.185	-11.7115	1.50575
 486	1	3	-0.175352	-37.9384	-11.6913	0.843062
 487	1	6	0.13478	-40.1551	-11.2697	3.39616
 488	1	6	0.147112	-37.8437	-12.0683	-0.169343
 489	1	3	0.014571	-36.8184	-10.7477	2.8074
 490	1	6	0.127309	-38.1578	-10.4109	4.49379
 491	1	6	0.132317	-35.8444	-11.2005	0.928181
 492	1	7	0.14442	-40.4342	-12.3262	0.831623
 493	1	3	-0.008293	-41.7643	-11.7625	1.39601
 494	1	7	-0.149636	-40.3117	-13.8643	1.00345
 495	1	7	-0.207624	-40.4589	-12.0406	-0.697253
 496	1	3	-0.056733	-42.7929	-12.5938	1.89309
 497	1	3	-0.427248	-44.0491	-12.0654	2.23663
 498	1	3	0.300563	-44.3309	-10.69	2.10707
 499	1	3	-0.034917	-42.025	-10.3782	1.31663
 500	1	3	-0.460652	-43.2836	-9.85195	1.66741
 501	1	6	0.132306	-42.6518	-13.6662	1.98344
 502	1	6	0.20081	-44.8242	-12.7451	2.58295
 503	1	6	0.203835	-43.4641	-8.78713	1.53851
 504	1	6	0.127298	-41.2555	-9.70972	0.935908
 505	1	9	0.047033	-41.4189	-12.3489	-1.1314
 506	1	9	0.065326	-39.676	-12.5883	-1.23451
 507	1	9	0.056928	-40.3278	-10.9711	-0.904318
 508	1	9	0.032023	-40.3435	-14.1449	2.06414
 509	1	9	0.058797	-39.359	-14.228	0.597861
 510	1	9	0.03359	-41.1148	-14.3943	0.47561
 511	1	1	0.469872	0.720346	-16.3931	10.766
 512	1	2	0.06277	-0.598693	-15.9325	10.7728
 513	1	3	0.008141	-1.36633	-16.9219	9.97069
 514	1	2	0.04539	0.867386	-17.5719	10.0314
 515	1	3	0.033062	-0.4935	-17.8934	9.52959
 516	1	5	-0.387649	-1.05796	-14.9462	11.3251
 517	1	5	-0.380594	1.8799	-18.2215	9.82759
 518	1	3	0.006556	-2.7335	-16.9694	9.67099
 519	1	3	-0.023388	-0.939752	-18.9725	8.76256
 520	1	3	-0.199879	-2.31341	-19.038	8.44588
 521	1	3	-0.080819	-3.2322	-18.0398	8.87571
 522	1	6	0.152396	-3.36731	-16.1846	10.0688
 523	1	6	0.149363	-0.242077	-19.7394	8.43343
 524	1	6	0.171749	-2.66843	-19.8857	7.86299
 525	1	7	-0.126864	-4.74391	-18.1978	8.51743
 526	1	7	0.414085	-5.33086	-19.2553	9.52675
 527	1	8	-0.136036	-6.68196	-19.3016	9.53923
 528	1	8	-0.12675	-4.95027	-18.9924	10.798
 529	1	8	-0.136493	-4.89067	-20.5022	9.24502
 530	1	7	0.412463	-5.55565	-16.8523	8.64932
 531	1	8	-0.134035	-6.78727	-16.9465	8.09779
 532	1	8	-0.126523	-4.93425	-15.8384	8.00444
 533	1	8	-0.120355	-5.74055	-16.4608	9.93002
 534	1	3	-0.02363	-4.88901	-18.6245	7.02403
 535	1	3	-0.07382	-5.93843	-19.4715	6.56969
 536	1	3	-0.058666	-6.12395	-19.6528	5.19108
 537	1	3	-0.05367	-4.04845	-18.0183	6.04862
 538	1	3	-0.161949	-4.24678	-18.2195	4.66824
 539	1	3	-0.052731	-5.31149	-19.0337	4.26838
 540	1	2	0.511278	-5.89884	-19.2391	2.91853
 541	1	1	-0.11022	-7.08645	-19.9419	3.11608
 542	1	2	0.48346	-7.24967	-20.2941	4.45474
 543	1	3	0.062835	-8.10873	-20.0309	2.11577
 544	1	3	-0.214737	-9.45241	-19.7584	2.4408
 545	1	3	-0.092253	-10.4091	-19.5374	1.43369
 546	1	3	-0.160974	-7.77767	-20.1904	0.75678
 547	1	3	-0.148646	-8.72781	-19.9451	-0.250972
 548	1	3	0.041241	-10.0474	-19.5491	0.0713936
 549	1	6	0.160326	-9.75268	-19.6317	3.47725
 550	1	6	0.154695	-6.75095	-20.4014	0.467794
 551	1	6	0.134327	-8.38832	-19.9807	-1.28051
 552	1	6	0.119951	-11.4177	-19.2508	1.71917
 553	1	6	0.172628	-3.6415	-17.6982	3.92886
 554	1	6	0.137279	-3.26647	-17.3299	6.35885
 555	1	6	0.14105	-6.65943	-19.9196	7.24463
 556	1	5	-0.471402	-8.17773	-20.8939	4.9684
 557	1	5	-0.485833	-5.47983	-18.7322	1.89168
 558	1	7	0.140024	-11.0117	-18.9223	-0.969687
 559	1	7	-0.178691	-10.4271	-18.9324	-2.40865
 560	1	9	0.043413	-11.1304	-18.4766	-3.11737
 561	1	9	0.047557	-10.2347	-19.9571	-2.75105
 562	1	9	0.063016	-9.4907	-18.3625	-2.46617
 563	1	7	-0.187892	-11.1511	-17.4256	-0.564819
 564	1	9	0.043685	-10.1646	-16.9841	-0.370362
 565	1	9	0.055699	-11.7505	-17.3131	0.347426
 566	1	9	0.057684	-11.6192	-16.8266	-1.35511
 567	1	3	-0.164758	-13.5706	-18.9265	-1.34471
 568	1	3	-0.151844	-12.4615	-21.0403	-0.995378
 569	1	3	-0.169902	-13.6697	-21.7124	-1.26258
 570	1	3	0.006445	-14.8487	-21.0037	-1.59145
 571	1	3	-0.175352	-14.7773	-19.5975	-1.60851
 572	1	6	0.13478	-13.6566	-22.7968	-1.26496
 573	1	6	0.147112	-15.6516	-19.015	-1.88765
 574	1	3	0.014571	-12.3836	-19.6349	-1.04853
 575	1	6	0.127309	-11.5652	-21.6242	-0.803424
 576	1	6	0.132317	-13.5659	-17.8458	-1.43321
 577	1	7	0.14442	-16.1328	-21.7123	-2.0906
 578	1	3	-0.008293	-17.4213	-21.015	-1.58271
 579	1	7	-0.149636	-16.2155	-23.1921	-1.62583
 580	1	7	-0.207624	-16.0364	-21.734	-3.64122
 581	1	3	-0.056733	-17.6212	-20.8547	-0.195823
 582	1	3	-0.427248	-18.8166	-20.3068	0.308732
 583	1	3	0.300563	-19.8488	-19.8925	-0.556915
 584	1	3	-0.034917	-18.4564	-20.5909	-2.44909
 585	1	3	-0.460652	-19.6453	-20.0342	-1.94314
 586	1	6	0.132306	-16.8445	-21.172	0.496756
 587	1	6	0.20081	-18.9419	-20.2052	1.38357
 588	1	6	0.203835	-20.4153	-19.7046	-2.63595
 589	1	6	0.127298	-18.3606	-20.6908	-3.52572
 590	1	9	0.047033	-16.0488	-20.7161	-4.05212
 591	1	9	0.065326	-16.8603	-22.3025	-4.09045
 592	1	9	0.056928	-15.0987	-22.2041	-3.9647
 593	1	9	0.032023	-15.4442	-23.8123	-2.09899
 594	1	9	0.058797	-17.1878	-23.6251	-1.89421
 595	1	9	0.03359	-16.1025	-23.275	-0.537719
 596	1	1	0.469872	23.5696	-13.0502	0.891155
 597	1	2	0.06277	22.7331	-11.9958	1.24426
 598	1	3	0.008141	21.5666	-12.6313	1.8963
 599	1	2	0.04539	23.0027	-14.3009	1.1469
 600	1	3	0.033062	21.7108	-14.0004	1.83262
 601	1	5	-0.387649	22.9715	-10.7993	1.21645
 602	1	5	-0.380594	23.5181	-15.3997	1.02595
 603	1	3	0.006556	20.6145	-12.0239	2.71486
 604	1	3	-0.023388	20.8369	-14.8407	2.53346
 605	1	3	-0.199879	19.8688	-14.2449	3.37794
 606	1	3	-0.080819	19.7806	-12.8324	3.53383
 607	1	6	0.152396	20.6578	-10.9448	2.79282
 608	1	6	0.149363	20.9786	-15.9191	2.50983
 609	1	6	0.171749	19.2655	-14.8946	4.00883
 610	1	7	-0.126864	19.0561	-12.2373	4.7857
 611	1	7	0.414085	18.8501	-10.6748	4.69457
 612	1	8	-0.136036	18.0398	-10.1994	5.6669
 613	1	8	-0.12675	18.2686	-10.3324	3.52241
 614	1	8	-0.136493	20.0015	-9.97408	4.80533
 615	1	7	0.412463	20.0219	-12.5602	5.99575
 616	1	8	-0.134035	19.7904	-11.8193	7.10161
 617	1	8	-0.126523	21.3199	-12.3428	5.67918
 618	1	8	-0.120355	19.9323	-13.8593	6.36228
 619	1	3	-0.02363	17.6307	-12.8342	4.99485
 620	1	3	-0.07382	17.0443	-12.8594	6.28843
 621	1	3	-0.058666	15.6914	-13.1785	6.4303
 622	1	3	-0.05367	16.8043	-13.17	3.88618
 623	1	3	-0.161949	15.4404	-13.5133	4.05545
 624	1	3	-0.052731	14.9033	-13.4988	5.35303
 625	1	2	0.511278	13.4979	-13.6294	5.8456
 626	1	1	-0.11022	13.5195	-13.3	7.20635
 627	1	2	0.48346	14.8273	-13.0595	7.63097
 628	1	3	0.062835	12.3599	-13.0387	8.02404
 629	1	3	-0.214737	12.4084	-13.1426	9.4314