pySIMM System Object

2042 atoms
2209 bonds
3888 angles
5996 dihedrals
672 impropers

9 atom types
11 bond types
18 angle types
8 dihedral types
4 improper types

-193.002307 193.002307 xlo xhi
-193.002307 193.002307 ylo yhi
-193.002307 193.002307 zlo zhi

Masses

   1	14.01	# n
   2	12.01	# c
   3	12.01	# ca
   4	1.008	# hn
   5	16.0	# o
   6	1.008	# ha
   7	12.01	# c3
   8	19.0	# f
   9	1.008	# hc

Pair Coeffs

   1	0.17	3.249998523775958	# n
   2	0.086	3.3996695084235347	# c
   3	0.086	3.3996695084235347	# ca
   4	0.0157	1.069078461768407	# hn
   5	0.21	2.959921901149463	# o
   6	0.015	2.59964245953351	# ha
   7	0.1094	3.3996695084235347	# c3
   8	0.061	3.1181455134911875	# f
   9	0.0157	2.649532787749369	# hc

Bond Coeffs

   1	345.8	1.086	# ca,ha
   2	384.2	1.4121	# ca,n
   3	637.7	1.2183	# c,o
   4	321.0	1.5156	# c3,ca
   5	461.1	1.3984	# ca,ca
   6	300.9	1.5375	# c3,c3
   7	330.6	1.0969	# c3,hc
   8	403.2	1.0129	# hn,n
   9	356.9	1.3497	# c3,f
  10	427.6	1.3789	# c,n
  11	345.9	1.4906	# c,ca

Angle Coeffs

   1	48.33	117.55	# c,n,hn
   2	74.22	123.05	# n,c,o
   3	64.28	120.33	# c,ca,ca
   4	70.89	107.36	# f,c3,f
   5	66.11	109.24	# c3,c3,f
   6	67.87	120.19	# ca,ca,n
   7	39.4	107.58	# hc,c3,hc
   8	63.53	120.77	# c3,ca,ca
   9	66.62	120.02	# ca,ca,ca
  10	63.82	123.71	# c,n,ca
  11	62.86	111.51	# c3,c3,c3
  12	46.34	109.8	# c3,c3,hc
  13	63.74	127.08	# c,n,c
  14	48.18	119.88	# ca,ca,ha
  15	68.72	122.6	# ca,c,o
  16	63.56	112.24	# ca,c3,ca
  17	63.15	112.07	# c3,c3,ca
  18	67.68	115.25	# ca,c,n

Dihedral Coeffs

   1	2	2.5	2	180	2.0	1	0	# hn,n,c,o
   2	1	3.625	2	180	# X,ca,ca,X
   3	1	0.16	3	0	# hc,c3,c3,c3
   4	1	1.0	2	180	# X,c,ca,X
   5	1	0.15555555555555556	3	0	# X,c3,c3,X
   6	1	0.0	2	0	# X,c3,ca,X
   7	1	2.5	2	180	# X,c,n,X
   8	1	0.45	2	180	# X,ca,n,X

Improper Coeffs

   1	10.5	-1	2	# c,X,X,o
   2	1.1	-1	2	# ca,X,X,ha
   3	1.1	-1	2	# ca,ca,ca,c3
   4	1.1	-1	2	# n,X,X,hn

Atoms

   1	1	1	0.469872	-97.3015	79.1624	44.3046
   2	1	2	0.06277	-97.4206	78.8088	42.9571
   3	1	3	0.008141	-97.3695	80.0875	42.207
   4	1	2	0.04539	-97.2019	80.5466	44.4808
   5	1	3	0.033062	-97.2411	81.12	43.1103
   6	1	5	-0.387649	-97.5395	77.7	42.4616
   7	1	5	-0.380594	-97.0693	81.1787	45.5163
   8	1	3	0.006556	-97.3891	80.3098	40.8264
   9	1	3	-0.023388	-97.1275	82.4445	42.68
  10	1	3	-0.199879	-97.1453	82.6928	41.2905
  11	1	3	-0.080819	-97.2817	81.641	40.3406
  12	1	6	0.152396	-97.4601	79.4469	40.1737
  13	1	6	0.149363	-97.0059	83.25	43.401
  14	1	6	0.171749	-97.0265	83.7194	40.9496
  15	1	7	-0.126864	-97.2051	81.975	38.8199
  16	1	7	0.414085	-95.6733	82.1587	38.4941
  17	1	8	-0.136036	-95.405	82.205	37.1699
  18	1	8	-0.12675	-94.9322	81.1447	38.9968
  19	1	8	-0.136493	-95.1814	83.2928	39.0428
  20	1	7	0.412463	-97.7949	80.8439	37.8946
  21	1	8	-0.134035	-97.9493	81.2686	36.6197
  22	1	8	-0.126523	-99.0204	80.4537	38.3129
  23	1	8	-0.120355	-97.0202	79.7373	37.8378
  24	1	3	-0.02363	-98.0588	83.2454	38.5315
  25	1	3	-0.07382	-97.6415	84.2536	37.6225
  26	1	3	-0.058666	-98.4921	85.3361	37.3707
  27	1	3	-0.05367	-99.3418	83.3758	39.1352
  28	1	3	-0.161949	-100.18	84.4799	38.8733
  29	1	3	-0.052731	-99.7237	85.4527	37.9773
  30	1	2	0.511278	-100.358	86.7126	37.4992
  31	1	1	-0.11022	-99.4452	87.2838	36.6209
  32	1	2	0.48346	-98.2994	86.511	36.4828
  33	1	3	0.062835	-99.617	88.5481	35.9922
  34	1	3	-0.214737	-99.3382	88.7147	34.6238
  35	1	3	-0.092253	-99.4099	89.9858	34.0268
  36	1	3	-0.160974	-100.008	89.667	36.7463
  37	1	3	-0.148646	-100.082	90.9357	36.1502
  38	1	3	0.041241	-99.7593	91.123	34.7888
  39	1	6	0.160326	-99.0287	87.8621	34.0247
  40	1	6	0.154695	-100.232	89.5612	37.8046
  41	1	6	0.134327	-100.36	91.7887	36.7637
  42	1	6	0.119951	-99.1622	90.0736	32.9744
  43	1	6	0.172628	-101.158	84.5733	39.342
  44	1	6	0.137279	-99.6999	82.6057	39.814
  45	1	6	0.14105	-96.6912	84.2183	37.1007
  46	1	5	-0.471402	-97.3089	86.7458	35.8127
  47	1	5	-0.485833	-101.438	87.1527	37.8547
  48	1	7	0.140024	-99.7613	92.5563	34.213
  49	1	7	-0.178691	-101.239	93.0071	34.0549
  50	1	9	0.043413	-101.775	92.3402	33.3679
  51	1	9	0.047557	-101.303	94.0246	33.6484
  52	1	9	0.063016	-101.771	92.9842	35.014
  53	1	7	-0.187892	-99.1164	92.6586	32.8017
  54	1	9	0.043685	-98.0968	92.2542	32.7904
  55	1	9	0.055699	-99.0589	93.7066	32.4805
  56	1	9	0.057684	-99.7045	92.1157	32.051
  57	1	3	-0.164758	-97.5987	93.115	35.4317
  58	1	3	-0.151844	-99.4985	94.537	35.8822
  59	1	3	-0.169902	-98.7326	95.2512	36.8194
  60	1	3	0.006445	-97.3843	94.9211	37.0705
  61	1	3	-0.175352	-96.8302	93.8366	36.3589
  62	1	6	0.13478	-99.1982	96.0685	37.3641
  63	1	6	0.147112	-95.8069	93.5198	36.5281
  64	1	3	0.014571	-98.9446	93.4475	35.1767
  65	1	6	0.127309	-100.532	94.8321	35.7365
  66	1	6	0.132317	-97.1476	92.2652	34.9265
  67	1	7	0.14442	-96.5918	95.6988	38.1476
  68	1	3	-0.008293	-96.8603	97.2154	38.0258
  69	1	7	-0.149636	-95.0557	95.5085	38.0255
  70	1	7	-0.207624	-97.025	95.1156	39.5202
  71	1	3	-0.056733	-96.8544	97.8205	36.7498
  72	1	3	-0.427248	-97.0879	99.1992	36.6045
  73	1	3	0.300563	-97.3133	100.003	37.7284
  74	1	3	-0.034917	-97.0729	98.0411	39.1538
  75	1	3	-0.460652	-97.2999	99.4205	39.0015
  76	1	6	0.132306	-96.674	97.2144	35.8645
  77	1	6	0.20081	-97.0916	99.651	35.6179
  78	1	6	0.203835	-97.4635	100.046	39.8733
  79	1	6	0.127298	-97.0605	97.6285	40.1575
  80	1	9	0.047033	-98.076	95.3487	39.7336
  81	1	9	0.065326	-96.4085	95.5036	40.3404
  82	1	9	0.056928	-96.9215	94.0229	39.5247
  83	1	9	0.032023	-94.704	95.7689	37.019
  84	1	9	0.058797	-94.7556	94.4758	38.2416
  85	1	9	0.03359	-94.5284	96.1552	38.7389
  86	1	1	0.469872	-85.3748	61.6468	56.1909
  87	1	2	0.06277	-86.1731	62.5346	55.4629
  88	1	3	0.008141	-87.2255	62.9808	56.4064
  89	1	2	0.04539	-85.7854	61.5339	57.5225
  90	1	3	0.033062	-86.9943	62.3905	57.6298
  91	1	5	-0.387649	-86.0856	62.8631	54.2907
  92	1	5	-0.380594	-85.3278	60.8294	58.4079
  93	1	3	0.006556	-88.3565	63.7677	56.1699
  94	1	3	-0.023388	-87.8795	62.5684	58.6953
  95	1	3	-0.199879	-89.0314	63.3547	58.4788
  96	1	3	-0.080819	-89.2951	63.9612	57.2164
  97	1	6	0.152396	-88.5211	64.1718	55.174
  98	1	6	0.149363	-87.6995	62.0743	59.6477
  99	1	6	0.171749	-89.7308	63.4437	59.3034
 100	1	7	-0.126864	-90.6187	64.7169	56.9003
 101	1	7	0.414085	-91.53	63.6917	56.1204
 102	1	8	-0.136036	-91.028	63.4019	54.8983
 103	1	8	-0.12675	-92.7954	64.1315	55.9377
 104	1	8	-0.136493	-91.6218	62.509	56.7702
 105	1	7	0.412463	-91.3979	65.2121	58.1792
 106	1	8	-0.134035	-91.9784	64.2117	58.8797
 107	1	8	-0.126523	-92.3866	66.076	57.8538
 108	1	8	-0.120355	-90.5892	65.8741	59.0373
 109	1	3	-0.02363	-90.2696	65.9946	56.0812
 110	1	3	-0.07382	-90.9718	66.3729	54.9057
 111	1	3	-0.058666	-90.6261	67.5676	54.263
 112	1	3	-0.05367	-89.2391	66.8559	56.5543
 113	1	3	-0.161949	-88.9174	68.0633	55.8998
 114	1	3	-0.052731	-89.6386	68.3979	54.7486
 115	1	2	0.511278	-89.5576	69.5908	53.86
 116	1	1	-0.11022	-90.5101	69.3853	52.8716
 117	1	2	0.48346	-91.1942	68.1903	53.0392
 118	1	3	0.062835	-90.7556	70.2861	51.8023
 119	1	3	-0.214737	-90.6299	69.8531	50.4725
 120	1	3	-0.092253	-90.8708	70.7377	49.4077
 121	1	3	-0.160974	-91.1374	71.6138	52.056
 122	1	3	-0.148646	-91.3923	72.495	50.9907
 123	1	3	0.041241	-91.2565	72.0762	49.6495
 124	1	6	0.160326	-90.3461	68.8255	50.2611
 125	1	6	0.154695	-91.2351	71.9644	53.0802
 126	1	6	0.134327	-91.6919	73.5168	51.209
 127	1	6	0.119951	-90.7503	70.3618	48.3975
 128	1	6	0.172628	-88.1393	68.7241	56.2777
 129	1	6	0.137279	-88.6881	66.5946	57.4546
 130	1	6	0.14105	-91.7789	65.7828	54.4847
 131	1	5	-0.471402	-92.0738	67.7242	52.3366
 132	1	5	-0.485833	-88.8167	70.5482	54.0008
 133	1	7	0.140024	-91.5049	73.0955	48.5153
 134	1	7	-0.178691	-91.3868	72.4764	47.0936
 135	1	9	0.043413	-90.3733	72.1018	46.9013
 136	1	9	0.047557	-91.612	73.2283	46.3261
 137	1	9	0.063016	-92.0904	71.6467	46.953
 138	1	7	-0.187892	-90.3914	74.1766	48.6023
 139	1	9	0.043685	-90.4759	74.9045	47.7851
 140	1	9	0.055699	-89.3983	73.7146	48.531
 141	1	9	0.057684	-90.4307	74.7235	49.5522
 142	1	3	-0.164758	-94.0346	72.7973	48.618
 143	1	3	-0.151844	-93.1947	75.0577	48.7493
 144	1	3	-0.169902	-94.5134	75.5395	48.7851
 145	1	3	0.006445	-95.6165	74.6656	48.7051
 146	1	3	-0.175352	-95.354	73.28	48.6432
 147	1	6	0.13478	-94.6801	76.6124	48.8387
 148	1	6	0.147112	-96.1622	72.5579	48.5947
 149	1	3	0.014571	-92.9317	73.6747	48.6465
 150	1	6	0.127309	-92.388	75.7821	48.7788
 151	1	6	0.132317	-93.869	71.7252	48.5526
 152	1	7	0.14442	-97.044	75.2605	48.6536
 153	1	3	-0.008293	-97.1282	76.3112	47.5217
 154	1	7	-0.149636	-97.3401	75.8597	50.0556
 155	1	7	-0.207624	-98.1383	74.1975	48.3685
 156	1	3	-0.056733	-97.889	77.4945	47.6404
 157	1	3	-0.427248	-97.9481	78.4246	46.5859
 158	1	3	0.300563	-97.2533	78.2092	45.377
 159	1	3	-0.034917	-96.4579	76.0803	46.3022
 160	1	3	-0.460652	-96.5081	77.018	45.2574
 161	1	6	0.132306	-98.4435	77.7065	48.5495
 162	1	6	0.20081	-98.5311	79.333	46.7175
 163	1	6	0.203835	-95.9718	76.8045	44.3354
 164	1	6	0.127298	-95.8845	75.1664	46.1615
 165	1	9	0.047033	-99.1272	74.6685	48.2976
 166	1	9	0.065326	-98.1879	73.4469	49.1674
 167	1	9	0.056928	-97.9507	73.683	47.4173
 168	1	9	0.032023	-96.7088	76.7343	50.2569
 169	1	9	0.058797	-97.1409	75.1177	50.8397
 170	1	9	0.03359	-98.3894	76.1638	50.1558
 171	1	1	0.469872	-74.6565	42.0066	50.9437
 172	1	2	0.06277	-75.7236	41.6907	51.7841
 173	1	3	0.008141	-76.516	42.9431	51.894
 174	1	2	0.04539	-74.6872	43.3283	50.5038
 175	1	3	0.033062	-75.9007	43.9123	51.1278
 176	1	5	-0.387649	-75.9816	40.6234	52.3152
 177	1	5	-0.380594	-73.9113	43.8991	49.755
 178	1	3	0.006556	-77.6813	43.209	52.6242
 179	1	3	-0.023388	-76.419	45.205	51.0408
 180	1	3	-0.199879	-77.5919	45.4945	51.7667
 181	1	3	-0.080819	-78.2487	44.5106	52.5604
 182	1	6	0.152396	-78.1047	42.4136	53.2286
 183	1	6	0.149363	-75.9182	45.961	50.4399
 184	1	6	0.171749	-77.982	46.5093	51.7209
 185	1	7	-0.126864	-79.5052	44.9234	53.3823
 186	1	7	0.414085	-80.4291	43.7115	53.7926
 187	1	8	-0.136036	-80.6821	42.8933	52.7467
 188	1	8	-0.12675	-81.631	44.138	54.2426
 189	1	8	-0.136493	-79.9068	42.9356	54.7684
 190	1	7	0.412463	-78.9622	45.6125	54.6923
 191	1	8	-0.134035	-78.0764	44.8258	55.3449
 192	1	8	-0.126523	-79.9417	45.9143	55.5742
 193	1	8	-0.120355	-78.2955	46.7578	54.4206
 194	1	3	-0.02363	-80.3718	45.8623	52.4887
 195	1	3	-0.07382	-80.7981	47.1531	52.902
 196	1	3	-0.058666	-81.4971	47.959	51.9953
 197	1	3	-0.05367	-80.7163	45.4315	51.1756
 198	1	3	-0.161949	-81.4358	46.2528	50.2841
 199	1	3	-0.052731	-81.808	47.5267	50.7232
 200	1	2	0.511278	-82.4415	48.6558	49.9884
 201	1	1	-0.11022	-82.4261	49.7227	50.8727
 202	1	2	0.48346	-81.9138	49.3803	52.1145
 203	1	3	0.062835	-82.7141	51.0558	50.4947
 204	1	3	-0.214737	-84.0303	51.4772	50.2478
 205	1	3	-0.092253	-84.2886	52.8094	49.8756
 206	1	3	-0.160974	-81.6591	51.9701	50.3579
 207	1	3	-0.148646	-81.916	53.2962	49.9837
 208	1	3	0.041241	-83.2323	53.7408	49.7419
 209	1	6	0.160326	-84.8534	50.7747	50.3473
 210	1	6	0.154695	-80.6372	51.6555	50.5516
 211	1	6	0.134327	-81.085	53.9919	49.9003
 212	1	6	0.119951	-85.3183	53.1041	49.7024
 213	1	6	0.172628	-81.6614	45.9276	49.27
 214	1	6	0.137279	-80.3897	44.4567	50.8235
 215	1	6	0.14105	-80.5699	47.5659	53.879
 216	1	5	-0.471402	-81.7059	50.1126	53.0655
 217	1	5	-0.485833	-82.771	48.6586	48.8156
 218	1	7	0.140024	-83.449	55.2259	49.3813
 219	1	7	-0.178691	-84.9455	55.629	49.2909
 220	1	9	0.043413	-85.4697	55.4387	50.2358
 221	1	9	0.047557	-85.4611	55.0804	48.4924
 222	1	9	0.063016	-85.0422	56.7002	49.0719
 223	1	7	-0.187892	-82.8364	55.4628	47.9727
 224	1	9	0.043685	-83.0315	56.4816	47.6147
 225	1	9	0.055699	-83.2706	54.7685	47.2417
 226	1	9	0.057684	-81.7509	55.3035	47.9741
 227	1	3	-0.164758	-81.9198	57.1577	50.2128
 228	1	3	-0.151844	-83.0915	55.8052	51.8342
 229	1	3	-0.169902	-82.5226	56.555	52.8744
 230	1	3	0.006445	-81.637	57.6197	52.6086
 231	1	3	-0.175352	-81.35	57.9093	51.2553
 232	1	6	0.13478	-82.7989	56.3178	53.8976
 233	1	6	0.147112	-80.6957	58.7315	50.9863
 234	1	3	0.014571	-82.7985	56.0881	50.4853
 235	1	6	0.127309	-83.7724	54.9956	52.0836
 236	1	6	0.132317	-81.672	57.4287	49.1919
 237	1	7	0.14442	-81.097	58.4713	53.7859
 238	1	3	-0.008293	-82.2358	59.2936	54.4323
 239	1	7	-0.149636	-79.9932	59.4674	53.3392
 240	1	7	-0.207624	-80.4401	57.5085	54.8173
 241	1	3	-0.056733	-83.4528	59.5222	53.754
 242	1	3	-0.427248	-84.4754	60.2835	54.3405
 243	1	3	0.300563	-84.316	60.8739	55.6099
 244	1	3	-0.034917	-82.0704	59.8885	55.7016
 245	1	3	-0.460652	-83.0922	60.6653	56.2792
 246	1	6	0.132306	-83.6233	59.1155	52.7605
 247	1	6	0.20081	-85.3999	60.429	53.7868
 248	1	6	0.203835	-82.9358	61.0935	57.2664
 249	1	6	0.127298	-81.1401	59.7572	56.2472
 250	1	9	0.047033	-79.8529	58.049	55.5693
 251	1	9	0.065326	-79.7587	56.8108	54.3134
 252	1	9	0.056928	-81.1923	56.9169	55.3527
 253	1	9	0.032023	-80.3969	60.2243	52.6549
 254	1	9	0.058797	-79.1679	58.9457	52.8381
 255	1	9	0.03359	-79.5725	60.0035	54.1994
 256	1	1	0.469872	-56.9715	31.0402	38.0894
 257	1	2	0.06277	-57.1541	31.9471	39.1403
 258	1	3	0.008141	-58.3174	31.4269	39.9201
 259	1	2	0.04539	-57.8844	29.9891	38.133
 260	1	3	0.033062	-58.7392	30.2616	39.3137
 261	1	5	-0.387649	-56.5406	32.9769	39.3652
 262	1	5	-0.380594	-58.0033	29.0535	37.3587
 263	1	3	0.006556	-58.9599	31.9273	41.0679
 264	1	3	-0.023388	-59.8177	29.5322	39.8107
 265	1	3	-0.199879	-60.4682	30.0108	40.9636
 266	1	3	-0.080819	-60.0626	31.2118	41.6171
 267	1	6	0.152396	-58.5924	32.8397	41.5315
 268	1	6	0.149363	-60.1303	28.6113	39.3231
 269	1	6	0.171749	-61.2828	29.4034	41.3409
 270	1	7	-0.126864	-60.7093	31.6797	42.9639
 271	1	7	0.414085	-62.0845	30.9718	43.2854
 272	1	8	-0.136036	-62.9424	31.0637	42.2432
 273	1	8	-0.12675	-62.723	31.5396	44.3344
 274	1	8	-0.136493	-61.9538	29.6616	43.5943
 275	1	7	0.412463	-59.6723	31.3069	44.0933
 276	1	8	-0.134035	-59.175	30.061	43.9199
 277	1	8	-0.126523	-60.186	31.3302	45.3438
 278	1	8	-0.120355	-58.6134	32.1473	44.084
 279	1	3	-0.02363	-61.0432	33.2013	42.9184
 280	1	3	-0.07382	-61.0476	33.9909	44.0989
 281	1	3	-0.058666	-61.5767	35.2847	44.057
 282	1	3	-0.05367	-61.5556	33.7848	41.7249
 283	1	3	-0.161949	-62.0762	35.0993	41.7028
 284	1	3	-0.052731	-62.0897	35.8271	42.9004
 285	1	2	0.511278	-62.7176	37.1374	43.2468
 286	1	1	-0.11022	-62.5646	37.2787	44.6236
 287	1	2	0.48346	-61.8535	36.2202	45.1748
 288	1	3	0.062835	-63.1848	38.2854	45.4224
 289	1	3	-0.214737	-64.5451	38.5985	45.2517
 290	1	3	-0.092253	-65.1995	39.4599	46.15
 291	1	3	-0.160974	-62.4825	38.8953	46.4781
 292	1	3	-0.148646	-63.138	39.7523	47.3803
 293	1	3	0.041241	-64.5201	40.0178	47.255
 294	1	6	0.160326	-65.1127	38.1473	44.4418
 295	1	6	0.154695	-61.4316	38.6647	46.6336
 296	1	6	0.134327	-62.5622	40.1758	48.1961
 297	1	6	0.119951	-66.2572	39.6633	46.0035
 298	1	6	0.172628	-62.5176	35.5166	40.7995
 299	1	6	0.137279	-61.6161	33.191	40.8163
 300	1	6	0.14105	-60.7386	33.6041	45.0633
 301	1	5	-0.471402	-61.5892	36.0194	46.3476
 302	1	5	-0.485833	-63.3292	37.8621	42.4811
 303	1	7	0.140024	-65.2972	40.8786	48.2791
 304	1	7	-0.178691	-65.3907	42.3229	47.7195
 305	1	9	0.043413	-65.891	42.3416	46.7434
 306	1	9	0.047557	-64.3899	42.7518	47.5815
 307	1	9	0.063016	-65.9418	42.9785	48.4063
 308	1	7	-0.187892	-64.5695	40.9863	49.6513
 309	1	9	0.043685	-64.296	39.9989	50.0436
 310	1	9	0.055699	-65.2165	41.4706	50.3941
 311	1	9	0.057684	-63.6522	41.5836	49.5795
 312	1	3	-0.164758	-67.9015	40.8499	48.1767
 313	1	3	-0.151844	-66.7452	38.9514	49.1169
 314	1	3	-0.169902	-67.9741	38.3154	49.356
 315	1	3	0.006445	-69.1944	38.9362	49.0138
 316	1	3	-0.175352	-69.1305	40.2033	48.3966
 317	1	6	0.13478	-67.9562	37.3228	49.7924
 318	1	6	0.147112	-70.0464	40.6982	48.0826
 319	1	3	0.014571	-66.6822	40.235	48.5377
 320	1	6	0.127309	-65.828	38.4284	49.3734
 321	1	6	0.132317	-67.9178	41.8272	47.7062
 322	1	7	0.14442	-70.5606	38.234	49.2132
 323	1	3	-0.008293	-71.6564	39.2317	49.6604
 324	1	7	-0.149636	-70.5114	37.1258	50.2993
 325	1	7	-0.207624	-70.8938	37.5507	47.8589
 326	1	3	-0.056733	-72.9963	39.1116	49.229
 327	1	3	-0.427248	-73.9799	40.0172	49.6627
 328	1	3	0.300563	-73.6589	41.0698	50.54
 329	1	3	-0.034917	-71.3483	40.2616	50.5758
 330	1	3	-0.460652	-72.33	41.1777	50.9947
 331	1	6	0.132306	-73.2941	38.3116	48.5588
 332	1	6	0.20081	-75.0034	39.8984	49.3168
 333	1	6	0.203835	-72.0545	41.9812	51.6729
 334	1	6	0.127298	-70.3333	40.3631	50.9548
 335	1	9	0.047033	-71.1068	38.2979	47.0836
 336	1	9	0.065326	-71.7546	36.8762	47.9397
 337	1	9	0.056928	-70.0447	36.9471	47.5128
 338	1	9	0.032023	-71.5155	36.7253	50.4899
 339	1	9	0.058797	-70.1268	37.523	51.2473
 340	1	9	0.03359	-69.8815	36.2812	49.9942
 341	1	1	0.469872	-37.8805	25.1677	19.4045
 342	1	2	0.06277	-39.1052	24.5234	19.1965
 343	1	3	0.008141	-40.0008	24.981	20.3076
 344	1	2	0.04539	-37.9202	26.0045	20.5238
 345	1	3	0.033062	-39.286	25.852	21.0999
 346	1	5	-0.387649	-39.398	23.7321	18.3159
 347	1	5	-0.380594	-37.0278	26.705	20.9726
 348	1	3	0.006556	-41.3159	24.6093	20.6407
 349	1	3	-0.023388	-39.8399	26.3819	22.2719
 350	1	3	-0.199879	-41.1498	25.9936	22.6391
 351	1	3	-0.080819	-41.9237	25.1111	21.8353
 352	1	6	0.152396	-41.8115	23.8884	19.9997
 353	1	6	0.149363	-39.2495	27.0424	22.9031
 354	1	6	0.171749	-41.5437	26.3586	23.5841
 355	1	7	-0.126864	-43.3195	24.5866	22.3362
 356	1	7	0.414085	-44.3434	24.456	21.1418
 357	1	8	-0.136036	-44.3279	25.5605	20.3623
 358	1	8	-0.12675	-45.6144	24.3099	21.582
 359	1	8	-0.136493	-44.1089	23.4048	20.326
 360	1	7	0.412463	-43.0507	23.1526	22.9382
 361	1	8	-0.134035	-44.1852	22.4646	23.1996
 362	1	8	-0.126523	-42.3391	23.2374	24.0852
 363	1	8	-0.120355	-42.3253	22.3611	22.1163
 364	1	3	-0.02363	-44.0151	25.5455	23.3812
 365	1	3	-0.07382	-44.6306	25.0763	24.5824
 366	1	3	-0.058666	-45.3767	25.9572	25.3856
 367	1	3	-0.05367	-44.1861	26.9257	23.0709
 368	1	3	-0.161949	-44.9378	27.7993	23.8959
 369	1	3	-0.052731	-45.539	27.2822	25.0539
 370	1	2	0.511278	-46.4192	27.917	26.0902
 371	1	1	-0.11022	-46.7305	26.9152	27.0068
 372	1	2	0.48346	-46.1412	25.7047	26.6427
 373	1	3	0.062835	-47.5306	27.0863	28.1904
 374	1	3	-0.214737	-48.7957	27.7116	28.1682
 375	1	3	-0.092253	-49.6122	27.7525	29.3254
 376	1	3	-0.160974	-47.0875	26.5606	29.4169
 377	1	3	-0.148646	-47.897	26.6035	30.5673
 378	1	3	0.041241	-49.1905	27.1802	30.548
 379	1	6	0.160326	-49.1703	28.1345	27.2395
 380	1	6	0.154695	-46.1231	26.0621	29.4721
 381	1	6	0.134327	-47.514	26.1224	31.4597
 382	1	6	0.119951	-50.6065	28.1867	29.2574
 383	1	6	0.172628	-45.0741	28.8456	23.6287
 384	1	6	0.137279	-43.7529	27.3233	22.1563
 385	1	6	0.14105	-44.5828	24.0421	24.9027
 386	1	5	-0.471402	-46.2125	24.6355	27.2231
 387	1	5	-0.485833	-46.7782	29.0813	26.1096
 388	1	7	0.140024	-50.1846	26.9944	31.739
 389	1	7	-0.178691	-49.4636	26.5638	33.0471
 390	1	9	0.043413	-48.6786	27.282	33.3171
 391	1	9	0.047557	-49.0128	25.5676	32.9587
 392	1	9	0.063016	-50.1713	26.5205	33.8853
 393	1	7	-0.187892	-51.1053	25.8126	31.3236
 394	1	9	0.043685	-51.8006	26.1147	30.5301
 395	1	9	0.055699	-51.6891	25.4269	32.1681
 396	1	9	0.057684	-50.5096	24.9732	30.942
 397	1	3	-0.164758	-52.3187	28.1516	32.6602
 398	1	3	-0.151844	-50.4124	29.531	32.1487
 399	1	3	-0.169902	-51.1039	30.6542	32.6486
 400	1	3	0.006445	-52.412	30.5475	33.1799
 401	1	3	-0.175352	-53.0076	29.2722	33.1629
 402	1	6	0.13478	-50.6031	31.6154	32.6108
 403	1	6	0.147112	-54.0189	29.1423	33.5403
 404	1	3	0.014571	-51.0072	28.2543	32.1338
 405	1	6	0.127309	-49.3956	29.655	31.7861
 406	1	6	0.132317	-52.8231	27.1934	32.7099
 407	1	7	0.14442	-53.2265	31.7903	33.6308
 408	1	3	-0.008293	-54.2299	31.4962	34.7889
 409	1	7	-0.149636	-53.9419	32.3109	32.3541
 410	1	7	-0.207624	-52.3077	32.9501	34.1128
 411	1	3	-0.056733	-53.7589	31.2214	36.0938
 412	1	3	-0.427248	-54.6461	31.0861	37.1855
 413	1	3	0.300563	-56.0408	31.2022	37.0093
 414	1	3	-0.034917	-55.6318	31.5843	34.6177
 415	1	3	-0.460652	-56.5138	31.4364	35.7037
 416	1	6	0.132306	-52.689	31.1353	36.2683
 417	1	6	0.20081	-54.2433	30.8945	38.1767
 418	1	6	0.203835	-57.5843	31.5017	35.5268
 419	1	6	0.127298	-56.0649	31.7838	33.6431
 420	1	9	0.047033	-51.5957	32.6106	34.8747
 421	1	9	0.065326	-52.9073	33.7596	34.5494
 422	1	9	0.056928	-51.7331	33.3884	33.2878
 423	1	9	0.032023	-54.5355	33.2103	32.5636
 424	1	9	0.058797	-54.604	31.544	31.9321
 425	1	9	0.03359	-53.2137	32.5688	31.5746
 426	1	1	0.469872	-18.3293	10.9086	7.51233
 427	1	2	0.06277	-18.4167	10.9251	8.90895
 428	1	3	0.008141	-19.6096	11.7597	9.22644
 429	1	2	0.04539	-19.3914	11.5996	6.91597
 430	1	3	0.033062	-20.1885	12.1567	8.04149
 431	1	5	-0.387649	-17.6523	10.4359	9.72446
 432	1	5	-0.380594	-19.5916	11.8127	5.731
 433	1	3	0.006556	-20.1139	12.1787	10.4658
 434	1	3	-0.023388	-21.3103	12.9923	8.0302
 435	1	3	-0.199879	-21.8386	13.4198	9.26913
 436	1	3	-0.080819	-21.2488	13.0411	10.5073
 437	1	6	0.152396	-19.6169	11.8186	11.3592
 438	1	6	0.149363	-21.757	13.2988	7.08673
 439	1	6	0.171749	-22.7287	14.0457	9.26258
 440	1	7	-0.126864	-21.9275	13.4766	11.849
 441	1	7	0.414085	-23.0774	12.4281	12.0997
 442	1	8	-0.136036	-24.1028	12.6093	11.2367
 443	1	8	-0.12675	-23.5867	12.4754	13.3513
 444	1	8	-0.136493	-22.6494	11.158	11.9154
 445	1	7	0.412463	-20.9331	13.4531	13.0716
 446	1	8	-0.134035	-19.7779	14.0899	12.7731
 447	1	8	-0.126523	-20.6084	12.2062	13.4815
 448	1	8	-0.120355	-21.447	14.0841	14.1522
 449	1	3	-0.02363	-22.4536	14.9502	11.7671
 450	1	3	-0.07382	-23.6784	15.3608	12.3668
 451	1	3	-0.058666	-24.0439	16.7156	12.3421
 452	1	3	-0.05367	-21.6425	15.9575	11.172
 453	1	3	-0.161949	-22.0345	17.3165	11.1469
 454	1	3	-0.052731	-23.2513	17.6709	11.7482
 455	1	2	0.511278	-23.9492	18.9885	11.8675
 456	1	1	-0.11022	-25.1524	18.7352	12.5267
 457	1	2	0.48346	-25.2659	17.3891	12.8651
 458	1	3	0.062835	-26.2248	19.678	12.6789
 459	1	3	-0.214737	-27.0221	19.7222	13.8422
 460	1	3	-0.092253	-28.2155	20.4804	13.8838
 461	1	3	-0.160974	-26.6075	20.4847	11.5946
 462	1	3	-0.148646	-27.7867	21.2494	11.6409
 463	1	3	0.041241	-28.643	21.2397	12.7714
 464	1	6	0.160326	-26.7629	19.0992	14.6946
 465	1	6	0.154695	-26.0262	20.47	10.6756
 466	1	6	0.134327	-28.0603	21.7822	10.7381
 467	1	6	0.119951	-28.8525	20.411	14.7612
 468	1	6	0.172628	-21.4073	18.0747	10.6814
 469	1	6	0.137279	-20.6867	15.6846	10.7307
 470	1	6	0.14105	-24.3486	14.6675	12.8621
 471	1	5	-0.471402	-26.2023	16.8293	13.4077
 472	1	5	-0.485833	-23.5572	20.0439	11.4002
 473	1	7	0.140024	-30.1003	21.7945	12.6702
 474	1	7	-0.178691	-30.9372	20.5813	12.178
 475	1	9	0.043413	-31.9292	20.8737	11.8171
 476	1	9	0.047557	-31.0616	19.8441	12.9815
 477	1	9	0.063016	-30.4357	20.0765	11.3419
 478	1	7	-0.187892	-30.2057	22.9111	11.5914
 479	1	9	0.043685	-30.063	22.5222	10.576
 480	1	9	0.055699	-29.4628	23.6988	11.7727
 481	1	9	0.057684	-31.1958	23.3836	11.6061
 482	1	3	-0.164758	-29.9478	23.0839	14.9164
 483	1	3	-0.151844	-32.1382	22.5351	14.0882
 484	1	3	-0.169902	-32.7379	23.3127	15.1014
 485	1	3	0.006445	-31.9541	24.0082	16.0395
 486	1	3	-0.175352	-30.5477	23.8515	15.9371
 487	1	6	0.13478	-33.8183	23.4308	15.1057
 488	1	6	0.147112	-29.8895	24.398	16.6035
 489	1	3	0.014571	-30.7302	22.4173	13.9547
 490	1	6	0.127309	-32.7958	22.0901	13.3506
 491	1	6	0.132317	-28.8641	23.0721	14.8349
 492	1	7	0.14442	-32.5667	25.082	16.9878
 493	1	3	-0.008293	-34.0919	24.9557	17.3304
 494	1	7	-0.149636	-32.2449	26.4466	16.3134
 495	1	7	-0.207624	-31.8297	25.0847	18.3578
 496	1	3	-0.056733	-35.0012	26.0248	17.125
 497	1	3	-0.427248	-36.2667	26.053	17.747
 498	1	3	0.300563	-36.6957	25.0122	18.5942
 499	1	3	-0.034917	-34.5679	23.8637	18.0923
 500	1	3	-0.460652	-35.8412	23.8918	18.712
 501	1	6	0.132306	-34.7137	26.8979	16.5484
 502	1	6	0.20081	-36.8888	26.9367	17.6325
 503	1	6	0.203835	-36.136	23.063	19.35
 504	1	6	0.127298	-33.9067	23.0203	18.2784
 505	1	9	0.047033	-32.3372	25.7521	19.067
 506	1	9	0.065326	-30.7962	25.4398	18.2762
 507	1	9	0.056928	-31.8084	24.0806	18.7987
 508	1	9	0.032023	-32.766	26.5397	15.3515
 509	1	9	0.058797	-31.1717	26.5473	16.1088
 510	1	9	0.03359	-32.5301	27.2924	16.9518
 511	1	1	0.469872	6.53188	9.5323	-2.37792
 512	1	2	0.06277	5.97442	8.26501	-2.22184
 513	1	3	0.008141	4.55275	8.50134	-1.86335
 514	1	2	0.04539	5.59487	10.5532	-2.1858
 515	1	3	0.033062	4.31844	9.85784	-1.84657
 516	1	5	-0.387649	6.52895	7.18044	-2.28496
 517	1	5	-0.380594	5.77811	11.7593	-2.19729
 518	1	3	0.006556	3.55234	7.57772	-1.55104
 519	1	3	-0.023388	3.04946	10.3589	-1.52538
 520	1	3	-0.199879	2.01431	9.43745	-1.22696
 521	1	3	-0.080819	2.24497	8.03259	-1.21688
 522	1	6	0.152396	3.8094	6.52639	-1.60901
 523	1	6	0.149363	2.87187	11.4322	-1.52006
 524	1	6	0.171749	1.02124	9.82822	-1.01826
 525	1	7	-0.126864	1.09036	7.00658	-0.962944
 526	1	7	0.414085	0.654375	6.47031	-2.38158
 527	1	8	-0.136036	-0.165018	5.3965	-2.31191
 528	1	8	-0.12675	1.70072	6.07995	-3.1435
 529	1	8	-0.136493	0.0248263	7.43485	-3.08991
 530	1	7	0.412463	1.59546	5.78928	-0.087854
 531	1	8	-0.134035	0.567859	5.08376	0.438413
 532	1	8	-0.126523	2.34582	6.21248	0.955181
 533	1	8	-0.120355	2.34769	4.89291	-0.763171
 534	1	3	-0.02363	-0.113591	7.61132	-0.153032
 535	1	3	-0.07382	-1.47178	7.36295	-0.507097
 536	1	3	-0.058666	-2.49363	7.63968	0.411615
 537	1	3	-0.05367	0.127338	8.22703	1.109
 538	1	3	-0.161949	-0.919457	8.50051	2.02187
 539	1	3	-0.052731	-2.23015	8.16061	1.65591
 540	1	2	0.511278	-3.50135	8.13148	2.44476
 541	1	1	-0.11022	-4.46616	7.55925	1.61402
 542	1	2	0.48346	-3.93883	7.28986	0.351384
 543	1	3	0.062835	-5.79068	7.18017	2.02965
 544	1	3	-0.214737	-6.35942	5.97392	1.57582
 545	1	3	-0.092253	-7.63882	5.56438	1.9907
 546	1	3	-0.160974	-6.54741	7.95611	2.93271
 547	1	3	-0.148646	-7.82516	7.53556	3.36441
 548	1	3	0.041241	-8.40624	6.3373	2.89108
 549	1	6	0.160326	-5.80629	5.32815	0.899033
 550	1	6	0.154695	-6.13751	8.88229	3.32703
 551	1	6	0.134327	-8.36402	8.14287	4.08738
 552	1	6	0.119951	-8.00946	4.61736	1.61495
 553	1	6	0.172628	-0.7106	8.89554	3.01448
 554	1	6	0.137279	1.14994	8.42187	1.42294
 555	1	6	0.14105	-1.76296	6.87697	-1.43057
 556	1	5	-0.471402	-4.50062	6.80547	-0.615747
 557	1	5	-0.485833	-3.61499	8.45503	3.6145
 558	1	7	0.140024	-9.77524	5.83514	3.43783
 559	1	7	-0.178691	-9.46387	5.10025	4.76911
 560	1	9	0.043413	-10.3335	4.54911	5.14701
 561	1	9	0.047557	-9.13755	5.80872	5.5409
 562	1	9	0.063016	-8.65798	4.36867	4.62708
 563	1	7	-0.187892	-10.4496	4.80706	2.48672
 564	1	9	0.043685	-9.88815	3.86656	2.42955
 565	1	9	0.055699	-10.5485	5.21644	1.47304
 566	1	9	0.057684	-11.4578	4.55556	2.8408
 567	1	3	-0.164758	-11.7688	6.97438	4.67126
 568	1	3	-0.151844	-10.9027	8.00119	2.66923
 569	1	3	-0.169902	-11.8687	9.01365	2.78109
 570	1	3	0.006445	-12.8132	9.02877	3.83234
 571	1	3	-0.175352	-12.7477	7.98488	4.77666
 572	1	6	0.13478	-11.8679	9.80061	2.0345
 573	1	6	0.147112	-13.452	7.95058	5.60337
 574	1	3	0.014571	-10.8135	6.97296	3.62536
 575	1	6	0.127309	-10.2157	8.02162	1.82737
 576	1	6	0.132317	-11.774	6.18426	5.41411
 577	1	7	0.14442	-13.8148	10.2051	3.94398
 578	1	3	-0.008293	-14.9343	10.0476	5.0228
 579	1	7	-0.149636	-14.4871	10.4559	2.55926
 580	1	7	-0.207624	-12.9798	11.4851	4.24027
 581	1	3	-0.056733	-16.2195	9.55726	4.6887
 582	1	3	-0.427248	-17.3242	9.76075	5.5408
 583	1	3	0.300563	-17.1869	10.4383	6.77069
 584	1	3	-0.034917	-14.7722	10.5698	6.32632
 585	1	3	-0.460652	-15.8769	10.7692	7.17552
 586	1	6	0.132306	-16.3987	9.10103	3.71932
 587	1	6	0.20081	-18.3152	9.47766	5.1929
 588	1	6	0.203835	-15.7182	11.2575	8.13421
 589	1	6	0.127298	-13.7994	10.9128	6.66507
 590	1	9	0.047033	-12.3286	11.3437	5.11165
 591	1	9	0.065326	-13.6315	12.3482	4.42791
 592	1	9	0.056928	-12.3238	11.7436	3.40015
 593	1	9	0.032023	-13.7819	10.8459	1.81638
 594	1	9	0.058797	-15.2936	11.196	2.64508
 595	1	9	0.03359	-14.9087	9.53094	2.14673
 596	1	1	0.469872	15.5067	-1.13726	-18.9062
 597	1	2	0.06277	14.5832	-0.156416	-19.2803
 598	1	3	0.008141	14.0702	0.4253	-18.011
 599	1	2	0.04539	15.6104	-1.25019	-17.5154
 600	1	3	0.033062	14.6725	-0.226862	-16.9592
 601	1	5	-0.387649	14.2429	0.175364	-20.4038
 602	1	5	-0.380594	16.3242	-2.00014	-16.8704
 603	1	3	0.006556	13.1324	1.44609	-17.808
 604	1	3	-0.023388	14.3441	0.103755	-15.6376
 605	1	3	-0.199879	13.3742	1.11217	-15.411
 606	1	3	-0.080819	12.7644	1.82461	-16.4835
 607	1	6	0.152396	12.6779	1.88986	-18.6864
 608	1	6	0.149363	14.8132	-0.424437	-14.8106
 609	1	6	0.171749	13.0885	1.32197	-14.3834
 610	1	7	-0.126864	11.6395	2.89305	-16.2355
 611	1	7	0.414085	10.2675	2.15463	-16.5059
 612	1	8	-0.136036	9.22229	2.99927	-16.6639
 613	1	8	-0.12675	9.96672	1.30659	-15.4961
 614	1	8	-0.136493	10.2855	1.40102	-17.6277
 615	1	7	0.412463	11.7754	4.11058	-17.2293
 616	1	8	-0.134035	11.0411	5.17574	-16.832
 617	1	8	-0.126523	11.3741	3.83684	-18.4905
 618	1	8	-0.120355	13.0575	4.53268	-17.3029
 619	1	3	-0.02363	11.6959	3.53585	-14.801
 620	1	3	-0.07382	12.9345	3.95914	-14.2371
 621	1	3	-0.058666	12.9389	4.62785	-12.9959
 622	1	3	-0.05367	10.505	3.85691	-14.0786
 623	1	3	-0.161949	10.5281	4.54733	-12.8541
 624	1	3	-0.052731	11.7653	4.92214	-12.3351
 625	1	2	0.511278	12.0849	5.64111	-11.0764
 626	1	1	-0.11022	13.4673	5.7163	-11.0282
 627	1	2	0.48346	14.0604	5.14061	-12.1501
 628	1	3	0.062835	14.1634	6.2396	-9.90091
 629	1	3	-0.214737	15.1127	5.45471	-9.2266
 630	1	3	-0.092253	15.7102	5.91587	-8.04024
 631	1	3	-0.160974	13.8451	7.50867	-9.38322
 632	1	3	-0.148646	14.4485	7.97333	-8.20053
 633	1	3	0.041241	15.3666	7.17153	-7.48844
 634	1	6	0.160326	15.3771	4.47362	-9.61196
 635	1	6	0.154695	13.1038	8.12837	-9.8813
 636	1	6	0.134327	14.1799	8.95718	-7.82377
 637	1	6	0.119951	16.4389	5.27641	-7.5541
 638	1	6	0.172628	9.60943	4.79327	-12.3238
 639	1	6	0.137279	9.52272	3.60581	-14.4553
 640	1	6	0.14105	13.8751	3.78223	-14.7536
 641	1	5	-0.471402	15.2495	5.01098	-12.3799
 642	1	5	-0.485833	11.2786	6.0422	-10.2547
 643	1	7	0.140024	16.0115	7.69604	-6.18317
 644	1	7	-0.178691	17.2759	8.49564	-6.60193
 645	1	9	0.043413	17.8684	8.80179	-5.73018
 646	1	9	0.047557	17.0051	9.39332	-7.17218
 647	1	9	0.063016	17.9286	7.88484	-7.23893
 648	1	7	-0.187892	16.4913	6.54657	-5.25349
 649	1	9	0.043685	16.825	6.94638	-4.28697
 650	1	9	0.055699	17.339	5.9977	-5.6818
 651	1	9	0.057684	15.6817	5.83286	-5.05584
 652	1	3	-0.164758	15.3387	9.79875	-4.81939