

################################################################################
##################################    Init    ##################################
################################################################################
units           real
atom_style      full
pair_style      lj/cut/coul/long 12.0  12.0
kspace_style    pppm 1e-4
bond_style      harmonic
angle_style     harmonic
dihedral_style  fourier
improper_style  cvff
special_bonds   amber
pair_modify     mix arithmetic
read_data       temp.lmps
  orthogonal box = (-116.049 -116.049 -116.049) to (116.049 116.049 116.049)
  1 by 1 by 1 MPI processor grid
  reading atoms ...
  170 atoms
  reading velocities ...
  170 velocities
  scanning bonds ...
  3 = max bonds/atom
  scanning angles ...
  6 = max angles/atom
  scanning dihedrals ...
  24 = max dihedrals/atom
  scanning impropers ...
  2 = max impropers/atom
  reading bonds ...
  183 bonds
  reading angles ...
  320 angles
  reading dihedrals ...
  488 dihedrals
  reading impropers ...
  56 impropers
  4 = max # of 1-2 neighbors
  10 = max # of 1-3 neighbors
  19 = max # of 1-4 neighbors
  22 = max # of special neighbors
  special bonds CPU = 0.000365973 secs
  read_data CPU = 0.00494289 secs
################################################################################

timestep        1
fix             pysimm_md all nve/limit 0.1
run             2000
PPPM initialization ...
  using 12-bit tables for long-range coulomb (../kspace.cpp:332)
  G vector (1/distance) = 0.140471
  grid = 36 36 36
  stencil order = 5
  estimated absolute RMS force accuracy = 0.00230848
  estimated relative force accuracy = 6.95192e-06
  using double precision KISS FFT
  3d grid and FFT values/proc = 68921 46656
Neighbor list info ...
  update every 1 steps, delay 10 steps, check yes
  max neighbors/atom: 2000, page size: 100000
  master list distance cutoff = 14
  ghost atom cutoff = 14
  binsize = 7, bins = 34 34 34
  1 neighbor lists, perpetual/occasional/extra = 1 0 0
  (1) pair lj/cut/coul/long, perpetual
      attributes: half, newton on
      pair build: half/bin/newton
      stencil: half/bin/3d/newton
      bin: standard
Per MPI rank memory allocation (min/avg/max) = 24.54 | 24.54 | 24.54 Mbytes
Step Temp E_pair E_mol TotEng Press 
       0    7.4556575    3468.2042     310.4214    3782.3815    75.930339 
    2000     717.6381    85.018503    431.74208    878.27573  -0.59074604 
Loop time of 19.3918 on 1 procs for 2000 steps with 170 atoms

Performance: 8.911 ns/day, 2.693 hours/ns, 103.136 timesteps/s
100.0% CPU use with 1 MPI tasks x no OpenMP threads

MPI task timing breakdown:
Section |  min time  |  avg time  |  max time  |%varavg| %total
---------------------------------------------------------------
Pair    | 0.32246    | 0.32246    | 0.32246    |   0.0 |  1.66
Bond    | 0.15656    | 0.15656    | 0.15656    |   0.0 |  0.81
Kspace  | 18.872     | 18.872     | 18.872     |   0.0 | 97.32
Neigh   | 0.027391   | 0.027391   | 0.027391   |   0.0 |  0.14
Comm    | 0.0015533  | 0.0015533  | 0.0015533  |   0.0 |  0.01
Output  | 2.9087e-05 | 2.9087e-05 | 2.9087e-05 |   0.0 |  0.00
Modify  | 0.0064812  | 0.0064812  | 0.0064812  |   0.0 |  0.03
Other   |            | 0.005726   |            |       |  0.03

Nlocal:    170 ave 170 max 170 min
Histogram: 1 0 0 0 0 0 0 0 0 0
Nghost:    0 ave 0 max 0 min
Histogram: 1 0 0 0 0 0 0 0 0 0
Neighs:    6465 ave 6465 max 6465 min
Histogram: 1 0 0 0 0 0 0 0 0 0

Total # of neighbors = 6465
Ave neighs/atom = 38.0294
Ave special neighs/atom = 11.0706
Neighbor list builds = 100
Dangerous builds = 0
unfix pysimm_md
min_style cg
minimize 0.001 0.001 10000 100000
WARNING: Using 'neigh_modify every 1 delay 0 check yes' setting during minimization (../min.cpp:190)
PPPM initialization ...
  using 12-bit tables for long-range coulomb (../kspace.cpp:332)
  G vector (1/distance) = 0.140471
  grid = 36 36 36
  stencil order = 5
  estimated absolute RMS force accuracy = 0.00230848
  estimated relative force accuracy = 6.95192e-06
  using double precision KISS FFT
  3d grid and FFT values/proc = 68921 46656
Per MPI rank memory allocation (min/avg/max) = 25.66 | 25.66 | 25.66 Mbytes
Step Temp E_pair E_mol TotEng Press 
    2000     717.6381    85.018503    431.74208    878.27573  -0.59074604 
    2054     717.6381    66.665144    135.36273    563.54302    1.2066395 
Loop time of 1.08969 on 1 procs for 54 steps with 170 atoms

100.1% CPU use with 1 MPI tasks x no OpenMP threads

Minimization stats:
  Stopping criterion = energy tolerance
  Energy initial, next-to-last, final = 
         516.760581859      202.211865963      202.027872521
  Force two-norm initial, final = 634.077 24.134
  Force max component initial, final = 149.541 4.4526
  Final line search alpha, max atom move = 0.00463193 0.0206241
  Iterations, force evaluations = 54 108

MPI task timing breakdown:
Section |  min time  |  avg time  |  max time  |%varavg| %total
---------------------------------------------------------------
Pair    | 0.026332   | 0.026332   | 0.026332   |   0.0 |  2.42
Bond    | 0.0091977  | 0.0091977  | 0.0091977  |   0.0 |  0.84
Kspace  | 1.0531     | 1.0531     | 1.0531     |   0.0 | 96.64
Neigh   | 0.00025797 | 0.00025797 | 0.00025797 |   0.0 |  0.02
Comm    | 5.5313e-05 | 5.5313e-05 | 5.5313e-05 |   0.0 |  0.01
Output  | 0          | 0          | 0          |   0.0 |  0.00
Modify  | 0          | 0          | 0          |   0.0 |  0.00
Other   |            | 0.0007296  |            |       |  0.07

Nlocal:    170 ave 170 max 170 min
Histogram: 1 0 0 0 0 0 0 0 0 0
Nghost:    0 ave 0 max 0 min
Histogram: 1 0 0 0 0 0 0 0 0 0
Neighs:    6442 ave 6442 max 6442 min
Histogram: 1 0 0 0 0 0 0 0 0 0

Total # of neighbors = 6442
Ave neighs/atom = 37.8941
Ave special neighs/atom = 11.0706
Neighbor list builds = 1
Dangerous builds = 0
write_dump all custom pysimm.dump.tmp id q x y z vx vy vz
quit


################################################################################
##################################    Init    ##################################
################################################################################
units           real
atom_style      full
pair_style      lj/cut/coul/long 12.0  12.0
kspace_style    pppm 1e-4
bond_style      harmonic
angle_style     harmonic
dihedral_style  fourier
improper_style  cvff
special_bonds   amber
pair_modify     mix arithmetic
read_data       temp.lmps
  orthogonal box = (-116.049 -116.049 -116.049) to (116.049 116.049 116.049)
  1 by 1 by 1 MPI processor grid
  reading atoms ...
  255 atoms
  reading velocities ...
  255 velocities
  scanning bonds ...
  3 = max bonds/atom
  scanning angles ...
  6 = max angles/atom
  scanning dihedrals ...
  24 = max dihedrals/atom
  scanning impropers ...
  2 = max impropers/atom
  reading bonds ...
  275 bonds
  reading angles ...
  482 angles
  reading dihedrals ...
  738 dihedrals
  reading impropers ...
  84 impropers
  4 = max # of 1-2 neighbors
  10 = max # of 1-3 neighbors
  19 = max # of 1-4 neighbors
  22 = max # of special neighbors
  special bonds CPU = 0.000427961 secs
  read_data CPU = 0.00561285 secs
################################################################################

timestep        1
fix             pysimm_md all nve/limit 0.1
run             2000
PPPM initialization ...
  using 12-bit tables for long-range coulomb (../kspace.cpp:332)
  G vector (1/distance) = 0.0239872
  grid = 4 4 4
  stencil order = 5
  estimated absolute RMS force accuracy = 0.044606
  estimated relative force accuracy = 0.00013433
  using double precision KISS FFT
  3d grid and FFT values/proc = 729 64
Neighbor list info ...
  update every 1 steps, delay 10 steps, check yes
  max neighbors/atom: 2000, page size: 100000
  master list distance cutoff = 14
  ghost atom cutoff = 14
  binsize = 7, bins = 34 34 34
  1 neighbor lists, perpetual/occasional/extra = 1 0 0
  (1) pair lj/cut/coul/long, perpetual
      attributes: half, newton on
      pair build: half/bin/newton
      stencil: half/bin/3d/newton
      bin: standard
Per MPI rank memory allocation (min/avg/max) = 17.98 | 17.98 | 17.98 Mbytes
Step Temp E_pair E_mol TotEng Press 
       0    479.96394    155.07089    306.65658    825.12053   0.86366592 
    2000    355.25932    119.44139    412.31017    800.72755    1.1645639 
Loop time of 1.09539 on 1 procs for 2000 steps with 255 atoms

Performance: 157.751 ns/day, 0.152 hours/ns, 1825.827 timesteps/s
99.9% CPU use with 1 MPI tasks x no OpenMP threads

MPI task timing breakdown:
Section |  min time  |  avg time  |  max time  |%varavg| %total
---------------------------------------------------------------
Pair    | 0.48021    | 0.48021    | 0.48021    |   0.0 | 43.84
Bond    | 0.23053    | 0.23053    | 0.23053    |   0.0 | 21.05
Kspace  | 0.34997    | 0.34997    | 0.34997    |   0.0 | 31.95
Neigh   | 0.020718   | 0.020718   | 0.020718   |   0.0 |  1.89
Comm    | 0.00083661 | 0.00083661 | 0.00083661 |   0.0 |  0.08
Output  | 2.4796e-05 | 2.4796e-05 | 2.4796e-05 |   0.0 |  0.00
Modify  | 0.0084727  | 0.0084727  | 0.0084727  |   0.0 |  0.77
Other   |            | 0.004634   |            |       |  0.42

Nlocal:    255 ave 255 max 255 min
Histogram: 1 0 0 0 0 0 0 0 0 0
Nghost:    0 ave 0 max 0 min
Histogram: 1 0 0 0 0 0 0 0 0 0
Neighs:    10550 ave 10550 max 10550 min
Histogram: 1 0 0 0 0 0 0 0 0 0

Total # of neighbors = 10550
Ave neighs/atom = 41.3725
Ave special neighs/atom = 11.1373
Neighbor list builds = 54
Dangerous builds = 0
unfix pysimm_md
min_style cg
minimize 0.001 0.001 10000 100000
WARNING: Using 'neigh_modify every 1 delay 0 check yes' setting during minimization (../min.cpp:190)
PPPM initialization ...
  using 12-bit tables for long-range coulomb (../kspace.cpp:332)
  G vector (1/distance) = 0.0239872
  grid = 4 4 4
  stencil order = 5
  estimated absolute RMS force accuracy = 0.044606
  estimated relative force accuracy = 0.00013433
  using double precision KISS FFT
  3d grid and FFT values/proc = 729 64
Per MPI rank memory allocation (min/avg/max) = 19.11 | 19.11 | 19.11 Mbytes
Step Temp E_pair E_mol TotEng Press 
    2000    355.25932    119.44139    412.31017    800.72755    1.1645639 
    2017    355.25932    110.01944    202.94614    581.94157    1.1861742 
Loop time of 0.0646031 on 1 procs for 17 steps with 255 atoms

100.6% CPU use with 1 MPI tasks x no OpenMP threads

Minimization stats:
  Stopping criterion = linesearch alpha is zero
  Energy initial, next-to-last, final = 
         531.751567557      312.965584291      312.965584291
  Force two-norm initial, final = 592.866 44.7869
  Force max component initial, final = 121.154 7.51593
  Final line search alpha, max atom move = 4.25981e-12 3.20164e-11
  Iterations, force evaluations = 17 93

MPI task timing breakdown:
Section |  min time  |  avg time  |  max time  |%varavg| %total
---------------------------------------------------------------
Pair    | 0.036201   | 0.036201   | 0.036201   |   0.0 | 56.04
Bond    | 0.011487   | 0.011487   | 0.011487   |   0.0 | 17.78
Kspace  | 0.016382   | 0.016382   | 0.016382   |   0.0 | 25.36
Neigh   | 0          | 0          | 0          |   0.0 |  0.00
Comm    | 3.1471e-05 | 3.1471e-05 | 3.1471e-05 |   0.0 |  0.05
Output  | 0          | 0          | 0          |   0.0 |  0.00
Modify  | 0          | 0          | 0          |   0.0 |  0.00
Other   |            | 0.0005023  |            |       |  0.78

Nlocal:    255 ave 255 max 255 min
Histogram: 1 0 0 0 0 0 0 0 0 0
Nghost:    0 ave 0 max 0 min
Histogram: 1 0 0 0 0 0 0 0 0 0
Neighs:    10573 ave 10573 max 10573 min
Histogram: 1 0 0 0 0 0 0 0 0 0

Total # of neighbors = 10573
Ave neighs/atom = 41.4627
Ave special neighs/atom = 11.1373
Neighbor list builds = 0
Dangerous builds = 0
write_dump all custom pysimm.dump.tmp id q x y z vx vy vz
quit


################################################################################
##################################    Init    ##################################
################################################################################
units           real
atom_style      full
pair_style      lj/cut/coul/long 12.0  12.0
kspace_style    pppm 1e-4
bond_style      harmonic
angle_style     harmonic
dihedral_style  fourier
improper_style  cvff
special_bonds   amber
pair_modify     mix arithmetic
read_data       temp.lmps
  orthogonal box = (-116.049 -116.049 -116.049) to (116.049 116.049 116.049)
  1 by 1 by 1 MPI processor grid
  reading atoms ...
  340 atoms
  reading velocities ...
  340 velocities
  scanning bonds ...
  3 = max bonds/atom
  scanning angles ...
  6 = max angles/atom
  scanning dihedrals ...
  24 = max dihedrals/atom
  scanning impropers ...
  2 = max impropers/atom
  reading bonds ...
  367 bonds
  reading angles ...
  644 angles
  reading dihedrals ...
  988 dihedrals
  reading impropers ...
  112 impropers
  4 = max # of 1-2 neighbors
  10 = max # of 1-3 neighbors
  19 = max # of 1-4 neighbors
  22 = max # of special neighbors
  special bonds CPU = 0.00048089 secs
  read_data CPU = 0.00619102 secs
################################################################################

timestep        1
fix             pysimm_md all nve/limit 0.1
run             2000
PPPM initialization ...
  using 12-bit tables for long-range coulomb (../kspace.cpp:332)
  G vector (1/distance) = 0.0500876
  grid = 9 9 9
  stencil order = 5
  estimated absolute RMS force accuracy = 0.0389899
  estimated relative force accuracy = 0.000117417
  using double precision KISS FFT
  3d grid and FFT values/proc = 2744 729
Neighbor list info ...
  update every 1 steps, delay 10 steps, check yes
  max neighbors/atom: 2000, page size: 100000
  master list distance cutoff = 14
  ghost atom cutoff = 14
  binsize = 7, bins = 34 34 34
  1 neighbor lists, perpetual/occasional/extra = 1 0 0
  (1) pair lj/cut/coul/long, perpetual
      attributes: half, newton on
      pair build: half/bin/newton
      stencil: half/bin/3d/newton
      bin: standard
Per MPI rank memory allocation (min/avg/max) = 18.13 | 18.13 | 18.13 Mbytes
Step Temp E_pair E_mol TotEng Press 
       0    268.04086    139253.28    442.61266    139966.74    3055.4058 
    2000    425.72096    184.35279    661.65242    1276.1939  -0.82487236 
Loop time of 1.79754 on 1 procs for 2000 steps with 340 atoms

Performance: 96.131 ns/day, 0.250 hours/ns, 1112.629 timesteps/s
100.0% CPU use with 1 MPI tasks x no OpenMP threads

MPI task timing breakdown:
Section |  min time  |  avg time  |  max time  |%varavg| %total
---------------------------------------------------------------
Pair    | 0.67067    | 0.67067    | 0.67067    |   0.0 | 37.31
Bond    | 0.30381    | 0.30381    | 0.30381    |   0.0 | 16.90
Kspace  | 0.76187    | 0.76187    | 0.76187    |   0.0 | 42.38
Neigh   | 0.043399   | 0.043399   | 0.043399   |   0.0 |  2.41
Comm    | 0.0012348  | 0.0012348  | 0.0012348  |   0.0 |  0.07
Output  | 2.6941e-05 | 2.6941e-05 | 2.6941e-05 |   0.0 |  0.00
Modify  | 0.01127    | 0.01127    | 0.01127    |   0.0 |  0.63
Other   |            | 0.00526    |            |       |  0.29

Nlocal:    340 ave 340 max 340 min
Histogram: 1 0 0 0 0 0 0 0 0 0
Nghost:    0 ave 0 max 0 min
Histogram: 1 0 0 0 0 0 0 0 0 0
Neighs:    14845 ave 14845 max 14845 min
Histogram: 1 0 0 0 0 0 0 0 0 0

Total # of neighbors = 14845
Ave neighs/atom = 43.6618
Ave special neighs/atom = 11.1706
Neighbor list builds = 84
Dangerous builds = 0
unfix pysimm_md
min_style cg
minimize 0.001 0.001 10000 100000
WARNING: Using 'neigh_modify every 1 delay 0 check yes' setting during minimization (../min.cpp:190)
PPPM initialization ...
  using 12-bit tables for long-range coulomb (../kspace.cpp:332)
  G vector (1/distance) = 0.0500876
  grid = 9 9 9
  stencil order = 5
  estimated absolute RMS force accuracy = 0.0389899
  estimated relative force accuracy = 0.000117417
  using double precision KISS FFT
  3d grid and FFT values/proc = 2744 729
Per MPI rank memory allocation (min/avg/max) = 19.25 | 19.25 | 19.25 Mbytes
Step Temp E_pair E_mol TotEng Press 
    2000    425.72096    184.35279    661.65242    1276.1939  -0.82487236 
    2015    425.72096    161.65804    295.96726    887.81403    1.8920614 
Loop time of 0.0343461 on 1 procs for 15 steps with 340 atoms

99.0% CPU use with 1 MPI tasks x no OpenMP threads

Minimization stats:
  Stopping criterion = energy tolerance
  Energy initial, next-to-last, final = 
         846.005203743      457.735537278      457.625294981
  Force two-norm initial, final = 727.389 78.7594
  Force max component initial, final = 113.223 11.1406
  Final line search alpha, max atom move = 0.00350496 0.0390473
  Iterations, force evaluations = 15 30

MPI task timing breakdown:
Section |  min time  |  avg time  |  max time  |%varavg| %total
---------------------------------------------------------------
Pair    | 0.016575   | 0.016575   | 0.016575   |   0.0 | 48.26
Bond    | 0.0052016  | 0.0052016  | 0.0052016  |   0.0 | 15.14
Kspace  | 0.01226    | 0.01226    | 0.01226    |   0.0 | 35.69
Neigh   | 0          | 0          | 0          |   0.0 |  0.00
Comm    | 1.5497e-05 | 1.5497e-05 | 1.5497e-05 |   0.0 |  0.05
Output  | 0          | 0          | 0          |   0.0 |  0.00
Modify  | 0          | 0          | 0          |   0.0 |  0.00
Other   |            | 0.000294   |            |       |  0.86

Nlocal:    340 ave 340 max 340 min
Histogram: 1 0 0 0 0 0 0 0 0 0
Nghost:    0 ave 0 max 0 min
Histogram: 1 0 0 0 0 0 0 0 0 0
Neighs:    14839 ave 14839 max 14839 min
Histogram: 1 0 0 0 0 0 0 0 0 0

Total # of neighbors = 14839
Ave neighs/atom = 43.6441
Ave special neighs/atom = 11.1706
Neighbor list builds = 0
Dangerous builds = 0
write_dump all custom pysimm.dump.tmp id q x y z vx vy vz
quit


################################################################################
##################################    Init    ##################################
################################################################################
units           real
atom_style      full
pair_style      lj/cut/coul/long 12.0  12.0
kspace_style    pppm 1e-4
bond_style      harmonic
angle_style     harmonic
dihedral_style  fourier
improper_style  cvff
special_bonds   amber
pair_modify     mix arithmetic
read_data       temp.lmps
  orthogonal box = (-116.049 -116.049 -116.049) to (116.049 116.049 116.049)
  1 by 1 by 1 MPI processor grid
  reading atoms ...
  425 atoms
  reading velocities ...
  425 velocities
  scanning bonds ...
  3 = max bonds/atom
  scanning angles ...
  6 = max angles/atom
  scanning dihedrals ...
  24 = max dihedrals/atom
  scanning impropers ...
  2 = max impropers/atom
  reading bonds ...
  459 bonds
  reading angles ...
  806 angles
  reading dihedrals ...
  1238 dihedrals
  reading impropers ...
  140 impropers
  4 = max # of 1-2 neighbors
  10 = max # of 1-3 neighbors
  19 = max # of 1-4 neighbors
  22 = max # of special neighbors
  special bonds CPU = 0.000530005 secs
  read_data CPU = 0.00705695 secs
################################################################################

timestep        1
fix             pysimm_md all nve/limit 0.1
run             2000
PPPM initialization ...
  using 12-bit tables for long-range coulomb (../kspace.cpp:332)
  G vector (1/distance) = 0.0640982
  grid = 12 12 12
  stencil order = 5
  estimated absolute RMS force accuracy = 0.0346277
  estimated relative force accuracy = 0.00010428
  using double precision KISS FFT
  3d grid and FFT values/proc = 4913 1728
Neighbor list info ...
  update every 1 steps, delay 10 steps, check yes
  max neighbors/atom: 2000, page size: 100000
  master list distance cutoff = 14
  ghost atom cutoff = 14
  binsize = 7, bins = 34 34 34
  1 neighbor lists, perpetual/occasional/extra = 1 0 0
  (1) pair lj/cut/coul/long, perpetual
      attributes: half, newton on
      pair build: half/bin/newton
      stencil: half/bin/3d/newton
      bin: standard
Per MPI rank memory allocation (min/avg/max) = 18.31 | 18.31 | 18.31 Mbytes
Step Temp E_pair E_mol TotEng Press 
       0    341.86185    266.26003    526.61429     1224.941    2.4763099 
    2000    289.42619    228.92492    617.51102    1212.2311    2.6519909 
Loop time of 2.60288 on 1 procs for 2000 steps with 425 atoms

Performance: 66.388 ns/day, 0.362 hours/ns, 768.378 timesteps/s
100.0% CPU use with 1 MPI tasks x no OpenMP threads

MPI task timing breakdown:
Section |  min time  |  avg time  |  max time  |%varavg| %total
---------------------------------------------------------------
Pair    | 0.88796    | 0.88796    | 0.88796    |   0.0 | 34.11
Bond    | 0.38547    | 0.38547    | 0.38547    |   0.0 | 14.81
Kspace  | 1.2674     | 1.2674     | 1.2674     |   0.0 | 48.69
Neigh   | 0.03925    | 0.03925    | 0.03925    |   0.0 |  1.51
Comm    | 0.0017972  | 0.0017972  | 0.0017972  |   0.0 |  0.07
Output  | 2.6941e-05 | 2.6941e-05 | 2.6941e-05 |   0.0 |  0.00
Modify  | 0.01415    | 0.01415    | 0.01415    |   0.0 |  0.54
Other   |            | 0.006869   |            |       |  0.26

Nlocal:    425 ave 425 max 425 min
Histogram: 1 0 0 0 0 0 0 0 0 0
Nghost:    21 ave 21 max 21 min
Histogram: 1 0 0 0 0 0 0 0 0 0
Neighs:    19155 ave 19155 max 19155 min
Histogram: 1 0 0 0 0 0 0 0 0 0

Total # of neighbors = 19155
Ave neighs/atom = 45.0706
Ave special neighs/atom = 11.1906
Neighbor list builds = 57
Dangerous builds = 0
unfix pysimm_md
min_style cg
minimize 0.001 0.001 10000 100000
WARNING: Using 'neigh_modify every 1 delay 0 check yes' setting during minimization (../min.cpp:190)
PPPM initialization ...
  using 12-bit tables for long-range coulomb (../kspace.cpp:332)
  G vector (1/distance) = 0.0640982
  grid = 12 12 12
  stencil order = 5
  estimated absolute RMS force accuracy = 0.0346277
  estimated relative force accuracy = 0.00010428
  using double precision KISS FFT
  3d grid and FFT values/proc = 4913 1728
Per MPI rank memory allocation (min/avg/max) = 19.43 | 19.43 | 19.43 Mbytes
Step Temp E_pair E_mol TotEng Press 
    2000    289.42619    228.92492    617.51102    1212.2311    2.6519909 
    2023    289.42619    194.33228    334.37144    894.49891    2.1127795 
Loop time of 0.0735481 on 1 procs for 23 steps with 425 atoms

100.6% CPU use with 1 MPI tasks x no OpenMP threads

Minimization stats:
  Stopping criterion = energy tolerance
  Energy initial, next-to-last, final = 
         846.435933092      528.907492513      528.703718612
  Force two-norm initial, final = 655.622 46.2282
  Force max component initial, final = 96.0981 7.48211
  Final line search alpha, max atom move = 0.00508959 0.0380809
  Iterations, force evaluations = 23 46

MPI task timing breakdown:
Section |  min time  |  avg time  |  max time  |%varavg| %total
---------------------------------------------------------------
Pair    | 0.03321    | 0.03321    | 0.03321    |   0.0 | 45.15
Bond    | 0.0098512  | 0.0098512  | 0.0098512  |   0.0 | 13.39
Kspace  | 0.029908   | 0.029908   | 0.029908   |   0.0 | 40.66
Neigh   | 0          | 0          | 0          |   0.0 |  0.00
Comm    | 2.9802e-05 | 2.9802e-05 | 2.9802e-05 |   0.0 |  0.04
Output  | 0          | 0          | 0          |   0.0 |  0.00
Modify  | 0          | 0          | 0          |   0.0 |  0.00
Other   |            | 0.0005493  |            |       |  0.75

Nlocal:    425 ave 425 max 425 min
Histogram: 1 0 0 0 0 0 0 0 0 0
Nghost:    21 ave 21 max 21 min
Histogram: 1 0 0 0 0 0 0 0 0 0
Neighs:    19198 ave 19198 max 19198 min
Histogram: 1 0 0 0 0 0 0 0 0 0

Total # of neighbors = 19198
Ave neighs/atom = 45.1718
Ave special neighs/atom = 11.1906
Neighbor list builds = 0
Dangerous builds = 0
write_dump all custom pysimm.dump.tmp id q x y z vx vy vz
quit


################################################################################
##################################    Init    ##################################
################################################################################
units           real
atom_style      full
pair_style      lj/cut/coul/long 12.0  12.0
kspace_style    pppm 1e-4
bond_style      harmonic
angle_style     harmonic
dihedral_style  fourier
improper_style  cvff
special_bonds   amber
pair_modify     mix arithmetic
read_data       temp.lmps
  orthogonal box = (-116.049 -116.049 -116.049) to (116.049 116.049 116.049)
  1 by 1 by 1 MPI processor grid
  reading atoms ...
  510 atoms
  reading velocities ...
  510 velocities
  scanning bonds ...
  3 = max bonds/atom
  scanning angles ...
  6 = max angles/atom
  scanning dihedrals ...
  24 = max dihedrals/atom
  scanning impropers ...
  2 = max impropers/atom
  reading bonds ...
  551 bonds
  reading angles ...
  968 angles
  reading dihedrals ...
  1488 dihedrals
  reading impropers ...
  168 impropers
  4 = max # of 1-2 neighbors
  10 = max # of 1-3 neighbors
  19 = max # of 1-4 neighbors
  22 = max # of special neighbors
  special bonds CPU = 0.000590801 secs
  read_data CPU = 0.00753903 secs
################################################################################

timestep        1
fix             pysimm_md all nve/limit 0.1
run             2000
PPPM initialization ...
  using 12-bit tables for long-range coulomb (../kspace.cpp:332)
  G vector (1/distance) = 0.0640985
  grid = 12 12 12
  stencil order = 5
  estimated absolute RMS force accuracy = 0.0379334
  estimated relative force accuracy = 0.000114235
  using double precision KISS FFT
  3d grid and FFT values/proc = 4913 1728
Neighbor list info ...
  update every 1 steps, delay 10 steps, check yes
  max neighbors/atom: 2000, page size: 100000
  master list distance cutoff = 14
  ghost atom cutoff = 14
  binsize = 7, bins = 34 34 34
  1 neighbor lists, perpetual/occasional/extra = 1 0 0
  (1) pair lj/cut/coul/long, perpetual
      attributes: half, newton on
      pair build: half/bin/newton
      stencil: half/bin/3d/newton
      bin: standard
Per MPI rank memory allocation (min/avg/max) = 18.32 | 18.32 | 18.32 Mbytes
Step Temp E_pair E_mol TotEng Press 
       0    242.33149    321.40412    543.25955    1232.3368     3.172732 
    2000     222.8134    243.67843    644.63844    1226.3765  -0.45774043 
Loop time of 3.04226 on 1 procs for 2000 steps with 510 atoms

Performance: 56.800 ns/day, 0.423 hours/ns, 657.406 timesteps/s
100.0% CPU use with 1 MPI tasks x no OpenMP threads

MPI task timing breakdown:
Section |  min time  |  avg time  |  max time  |%varavg| %total
---------------------------------------------------------------
Pair    | 1.1094     | 1.1094     | 1.1094     |   0.0 | 36.47
Bond    | 0.46605    | 0.46605    | 0.46605    |   0.0 | 15.32
Kspace  | 1.3985     | 1.3985     | 1.3985     |   0.0 | 45.97
Neigh   | 0.040519   | 0.040519   | 0.040519   |   0.0 |  1.33
Comm    | 0.0028825  | 0.0028825  | 0.0028825  |   0.0 |  0.09
Output  | 2.5988e-05 | 2.5988e-05 | 2.5988e-05 |   0.0 |  0.00
Modify  | 0.017429   | 0.017429   | 0.017429   |   0.0 |  0.57
Other   |            | 0.007506   |            |       |  0.25

Nlocal:    510 ave 510 max 510 min
Histogram: 1 0 0 0 0 0 0 0 0 0
Nghost:    100 ave 100 max 100 min
Histogram: 1 0 0 0 0 0 0 0 0 0
Neighs:    22775 ave 22775 max 22775 min
Histogram: 1 0 0 0 0 0 0 0 0 0

Total # of neighbors = 22775
Ave neighs/atom = 44.6569
Ave special neighs/atom = 11.2039
Neighbor list builds = 47
Dangerous builds = 0
unfix pysimm_md
min_style cg
minimize 0.001 0.001 10000 100000
WARNING: Using 'neigh_modify every 1 delay 0 check yes' setting during minimization (../min.cpp:190)
PPPM initialization ...
  using 12-bit tables for long-range coulomb (../kspace.cpp:332)
  G vector (1/distance) = 0.0640985
  grid = 12 12 12
  stencil order = 5
  estimated absolute RMS force accuracy = 0.0379334
  estimated relative force accuracy = 0.000114235
  using double precision KISS FFT
  3d grid and FFT values/proc = 4913 1728
Per MPI rank memory allocation (min/avg/max) = 19.45 | 19.45 | 19.45 Mbytes
Step Temp E_pair E_mol TotEng Press 
    2000     222.8134    243.67843    644.63844    1226.3765  -0.45774043 
    2018     222.8134    231.83318    394.21772    964.11059   0.87236202 
Loop time of 0.0673881 on 1 procs for 18 steps with 510 atoms

99.4% CPU use with 1 MPI tasks x no OpenMP threads

Minimization stats:
  Stopping criterion = energy tolerance
  Energy initial, next-to-last, final = 
         888.316864995      626.341322733      626.050903048
  Force two-norm initial, final = 584.633 45.686
  Force max component initial, final = 101.838 5.21317
  Final line search alpha, max atom move = 0.00656207 0.0342091
  Iterations, force evaluations = 18 36

MPI task timing breakdown:
Section |  min time  |  avg time  |  max time  |%varavg| %total
---------------------------------------------------------------
Pair    | 0.032112   | 0.032112   | 0.032112   |   0.0 | 47.65
Bond    | 0.0094037  | 0.0094037  | 0.0094037  |   0.0 | 13.95
Kspace  | 0.025332   | 0.025332   | 0.025332   |   0.0 | 37.59
Neigh   | 0          | 0          | 0          |   0.0 |  0.00
Comm    | 3.8624e-05 | 3.8624e-05 | 3.8624e-05 |   0.0 |  0.06
Output  | 0          | 0          | 0          |   0.0 |  0.00
Modify  | 0          | 0          | 0          |   0.0 |  0.00
Other   |            | 0.0005016  |            |       |  0.74

Nlocal:    510 ave 510 max 510 min
Histogram: 1 0 0 0 0 0 0 0 0 0
Nghost:    100 ave 100 max 100 min
Histogram: 1 0 0 0 0 0 0 0 0 0
Neighs:    22774 ave 22774 max 22774 min
Histogram: 1 0 0 0 0 0 0 0 0 0

Total # of neighbors = 22774
Ave neighs/atom = 44.6549
Ave special neighs/atom = 11.2039
Neighbor list builds = 0
Dangerous builds = 0
write_dump all custom pysimm.dump.tmp id q x y z vx vy vz
quit


################################################################################
##################################    Init    ##################################
################################################################################
units           real
atom_style      full
pair_style      lj/cut/coul/long 12.0  12.0
kspace_style    pppm 1e-4
bond_style      harmonic
angle_style     harmonic
dihedral_style  fourier
improper_style  cvff
special_bonds   amber
pair_modify     mix arithmetic
read_data       temp.lmps
  orthogonal box = (-116.049 -116.049 -116.049) to (116.049 116.049 116.049)
  1 by 1 by 1 MPI processor grid
  reading atoms ...
  595 atoms
  reading velocities ...
  595 velocities
  scanning bonds ...
  3 = max bonds/atom
  scanning angles ...
  6 = max angles/atom
  scanning dihedrals ...
  24 = max dihedrals/atom
  scanning impropers ...
  2 = max impropers/atom
  reading bonds ...
  643 bonds
  reading angles ...
  1130 angles
  reading dihedrals ...
  1738 dihedrals
  reading impropers ...
  196 impropers
  4 = max # of 1-2 neighbors
  10 = max # of 1-3 neighbors
  19 = max # of 1-4 neighbors
  22 = max # of special neighbors
  special bonds CPU = 0.00070715 secs
  read_data CPU = 0.00853395 secs
################################################################################

timestep        1
fix             pysimm_md all nve/limit 0.1
run             2000
PPPM initialization ...
  using 12-bit tables for long-range coulomb (../kspace.cpp:332)
  G vector (1/distance) = 0.0769053
  grid = 15 15 15
  stencil order = 5
  estimated absolute RMS force accuracy = 0.0315855
  estimated relative force accuracy = 9.51187e-05
  using double precision KISS FFT
  3d grid and FFT values/proc = 8000 3375
Neighbor list info ...
  update every 1 steps, delay 10 steps, check yes
  max neighbors/atom: 2000, page size: 100000
  master list distance cutoff = 14
  ghost atom cutoff = 14
  binsize = 7, bins = 34 34 34
  1 neighbor lists, perpetual/occasional/extra = 1 0 0
  (1) pair lj/cut/coul/long, perpetual
      attributes: half, newton on
      pair build: half/bin/newton
      stencil: half/bin/3d/newton
      bin: standard
Per MPI rank memory allocation (min/avg/max) = 18.59 | 18.59 | 18.59 Mbytes
Step Temp E_pair E_mol TotEng Press 
       0    191.98995    287.25738    587.83579    1215.0308 -0.046302286 
    2000    152.83082    302.01992    645.65636    1218.2787    1.2381155 
Loop time of 4.09618 on 1 procs for 2000 steps with 595 atoms

Performance: 42.186 ns/day, 0.569 hours/ns, 488.260 timesteps/s
99.7% CPU use with 1 MPI tasks x no OpenMP threads

MPI task timing breakdown:
Section |  min time  |  avg time  |  max time  |%varavg| %total
---------------------------------------------------------------
Pair    | 1.255      | 1.255      | 1.255      |   0.0 | 30.64
Bond    | 0.54242    | 0.54242    | 0.54242    |   0.0 | 13.24
Kspace  | 2.2308     | 2.2308     | 2.2308     |   0.0 | 54.46
Neigh   | 0.035386   | 0.035386   | 0.035386   |   0.0 |  0.86
Comm    | 0.0034773  | 0.0034773  | 0.0034773  |   0.0 |  0.08
Output  | 2.9087e-05 | 2.9087e-05 | 2.9087e-05 |   0.0 |  0.00
Modify  | 0.0198     | 0.0198     | 0.0198     |   0.0 |  0.48
Other   |            | 0.009222   |            |       |  0.23

Nlocal:    595 ave 595 max 595 min
Histogram: 1 0 0 0 0 0 0 0 0 0
Nghost:    143 ave 143 max 143 min
Histogram: 1 0 0 0 0 0 0 0 0 0
Neighs:    27568 ave 27568 max 27568 min
Histogram: 1 0 0 0 0 0 0 0 0 0

Total # of neighbors = 27568
Ave neighs/atom = 46.3328
Ave special neighs/atom = 11.2134
Neighbor list builds = 34
Dangerous builds = 0
unfix pysimm_md
min_style cg
minimize 0.001 0.001 10000 100000
WARNING: Using 'neigh_modify every 1 delay 0 check yes' setting during minimization (../min.cpp:190)
PPPM initialization ...
  using 12-bit tables for long-range coulomb (../kspace.cpp:332)
  G vector (1/distance) = 0.0769053
  grid = 15 15 15
  stencil order = 5
  estimated absolute RMS force accuracy = 0.0315855
  estimated relative force accuracy = 9.51187e-05
  using double precision KISS FFT
  3d grid and FFT values/proc = 8000 3375
Per MPI rank memory allocation (min/avg/max) = 19.72 | 19.72 | 19.72 Mbytes
Step Temp E_pair E_mol TotEng Press 
    2000    152.83082    302.01992    645.65636    1218.2787    1.2381155 
    2019    152.83082    281.60239    449.72655    1001.9314    1.3731389 
Loop time of 0.092541 on 1 procs for 19 steps with 595 atoms

100.5% CPU use with 1 MPI tasks x no OpenMP threads

Minimization stats:
  Stopping criterion = energy tolerance
  Energy initial, next-to-last, final = 
         947.676277773      731.973197978      731.328944226
  Force two-norm initial, final = 573.141 44.8157
  Force max component initial, final = 95.373 7.38719
  Final line search alpha, max atom move = 0.00760327 0.0561668
  Iterations, force evaluations = 19 38

MPI task timing breakdown:
Section |  min time  |  avg time  |  max time  |%varavg| %total
---------------------------------------------------------------
Pair    | 0.038275   | 0.038275   | 0.038275   |   0.0 | 41.36
Bond    | 0.011295   | 0.011295   | 0.011295   |   0.0 | 12.21
Kspace  | 0.042316   | 0.042316   | 0.042316   |   0.0 | 45.73
Neigh   | 0          | 0          | 0          |   0.0 |  0.00
Comm    | 5.126e-05  | 5.126e-05  | 5.126e-05  |   0.0 |  0.06
Output  | 0          | 0          | 0          |   0.0 |  0.00
Modify  | 0          | 0          | 0          |   0.0 |  0.00
Other   |            | 0.0006037  |            |       |  0.65

Nlocal:    595 ave 595 max 595 min
Histogram: 1 0 0 0 0 0 0 0 0 0
Nghost:    142 ave 142 max 142 min
Histogram: 1 0 0 0 0 0 0 0 0 0
Neighs:    27565 ave 27565 max 27565 min
Histogram: 1 0 0 0 0 0 0 0 0 0

Total # of neighbors = 27565
Ave neighs/atom = 46.3277
Ave special neighs/atom = 11.2134
Neighbor list builds = 0
Dangerous builds = 0
write_dump all custom pysimm.dump.tmp id q x y z vx vy vz
quit


################################################################################
##################################    Init    ##################################
################################################################################
units           real
atom_style      full
pair_style      lj/cut/coul/long 12.0  12.0
kspace_style    pppm 1e-4
bond_style      harmonic
angle_style     harmonic
dihedral_style  fourier
improper_style  cvff
special_bonds   amber
pair_modify     mix arithmetic
read_data       temp.lmps
  orthogonal box = (-116.049 -116.049 -116.049) to (116.049 116.049 116.049)
  1 by 1 by 1 MPI processor grid
  reading atoms ...
  680 atoms
  reading velocities ...
  680 velocities
  scanning bonds ...
  3 = max bonds/atom
  scanning angles ...
  6 = max angles/atom
  scanning dihedrals ...
  24 = max dihedrals/atom
  scanning impropers ...
  2 = max impropers/atom
  reading bonds ...
  735 bonds
  reading angles ...
  1292 angles
  reading dihedrals ...
  1988 dihedrals
  reading impropers ...
  224 impropers
  4 = max # of 1-2 neighbors
  10 = max # of 1-3 neighbors
  19 = max # of 1-4 neighbors
  22 = max # of special neighbors
  special bonds CPU = 0.000747919 secs
  read_data CPU = 0.142529 secs
################################################################################

timestep        1
fix             pysimm_md all nve/limit 0.1
run             2000
PPPM initialization ...
  using 12-bit tables for long-range coulomb (../kspace.cpp:332)
  G vector (1/distance) = 0.0769058
  grid = 15 15 15
  stencil order = 5
  estimated absolute RMS force accuracy = 0.0337671
  estimated relative force accuracy = 0.000101689
  using double precision KISS FFT
  3d grid and FFT values/proc = 8000 3375
Neighbor list info ...
  update every 1 steps, delay 10 steps, check yes
  max neighbors/atom: 2000, page size: 100000
  master list distance cutoff = 14
  ghost atom cutoff = 14
  binsize = 7, bins = 34 34 34
  1 neighbor lists, perpetual/occasional/extra = 1 0 0
  (1) pair lj/cut/coul/long, perpetual
      attributes: half, newton on
      pair build: half/bin/newton
      stencil: half/bin/3d/newton
      bin: standard
Per MPI rank memory allocation (min/avg/max) = 18.6 | 18.6 | 18.6 Mbytes
Step Temp E_pair E_mol TotEng Press 
       0    134.62666      1320.08    677.40357    2269.9639      22.6737 
    2000    182.11292    355.51981    795.12697    1519.2379   0.45321392 
Loop time of 4.54498 on 1 procs for 2000 steps with 680 atoms

Performance: 38.020 ns/day, 0.631 hours/ns, 440.046 timesteps/s
100.0% CPU use with 1 MPI tasks x no OpenMP threads

MPI task timing breakdown:
Section |  min time  |  avg time  |  max time  |%varavg| %total
---------------------------------------------------------------
Pair    | 1.4246     | 1.4246     | 1.4246     |   0.0 | 31.34
Bond    | 0.6209     | 0.6209     | 0.6209     |   0.0 | 13.66
Kspace  | 2.3861     | 2.3861     | 2.3861     |   0.0 | 52.50
Neigh   | 0.077931   | 0.077931   | 0.077931   |   0.0 |  1.71
Comm    | 0.0037601  | 0.0037601  | 0.0037601  |   0.0 |  0.08
Output  | 2.5988e-05 | 2.5988e-05 | 2.5988e-05 |   0.0 |  0.00
Modify  | 0.023137   | 0.023137   | 0.023137   |   0.0 |  0.51
Other   |            | 0.008547   |            |       |  0.19

Nlocal:    680 ave 680 max 680 min
Histogram: 1 0 0 0 0 0 0 0 0 0
Nghost:    137 ave 137 max 137 min
Histogram: 1 0 0 0 0 0 0 0 0 0
Neighs:    30231 ave 30231 max 30231 min
Histogram: 1 0 0 0 0 0 0 0 0 0

Total # of neighbors = 30231
Ave neighs/atom = 44.4574
Ave special neighs/atom = 11.2206
Neighbor list builds = 68
Dangerous builds = 0
unfix pysimm_md
min_style cg
minimize 0.001 0.001 10000 100000
WARNING: Using 'neigh_modify every 1 delay 0 check yes' setting during minimization (../min.cpp:190)
PPPM initialization ...
  using 12-bit tables for long-range coulomb (../kspace.cpp:332)
  G vector (1/distance) = 0.0769058
  grid = 15 15 15
  stencil order = 5
  estimated absolute RMS force accuracy = 0.0337671
  estimated relative force accuracy = 0.000101689
  using double precision KISS FFT
  3d grid and FFT values/proc = 8000 3375
Per MPI rank memory allocation (min/avg/max) = 19.73 | 19.73 | 19.73 Mbytes
Step Temp E_pair E_mol TotEng Press 
    2000    182.11292    355.51981    795.12697    1519.2379   0.45321392 
    2020    182.11292    327.91681     514.2412    1210.7491    1.4813718 
Loop time of 0.108619 on 1 procs for 20 steps with 680 atoms

99.4% CPU use with 1 MPI tasks x no OpenMP threads

Minimization stats:
  Stopping criterion = energy tolerance
  Energy initial, next-to-last, final = 
         1150.64677952      842.849106334      842.158007591
  Force two-norm initial, final = 640.756 50.6361
  Force max component initial, final = 95.2275 6.37663
  Final line search alpha, max atom move = 0.00371698 0.0237018
  Iterations, force evaluations = 20 40

MPI task timing breakdown:
Section |  min time  |  avg time  |  max time  |%varavg| %total
---------------------------------------------------------------
Pair    | 0.046048   | 0.046048   | 0.046048   |   0.0 | 42.39
Bond    | 0.013816   | 0.013816   | 0.013816   |   0.0 | 12.72
Kspace  | 0.047988   | 0.047988   | 0.047988   |   0.0 | 44.18
Neigh   | 0          | 0          | 0          |   0.0 |  0.00
Comm    | 5.6028e-05 | 5.6028e-05 | 5.6028e-05 |   0.0 |  0.05
Output  | 0          | 0          | 0          |   0.0 |  0.00
Modify  | 0          | 0          | 0          |   0.0 |  0.00
Other   |            | 0.000711   |            |       |  0.65

Nlocal:    680 ave 680 max 680 min
Histogram: 1 0 0 0 0 0 0 0 0 0
Nghost:    138 ave 138 max 138 min
Histogram: 1 0 0 0 0 0 0 0 0 0
Neighs:    30221 ave 30221 max 30221 min
Histogram: 1 0 0 0 0 0 0 0 0 0

Total # of neighbors = 30221
Ave neighs/atom = 44.4426
Ave special neighs/atom = 11.2206
Neighbor list builds = 0
Dangerous builds = 0
write_dump all custom pysimm.dump.tmp id q x y z vx vy vz
quit


################################################################################
##################################    Init    ##################################
################################################################################
units           real
atom_style      full
pair_style      lj/cut/coul/long 12.0  12.0
kspace_style    pppm 1e-4
bond_style      harmonic
angle_style     harmonic
dihedral_style  fourier
improper_style  cvff
special_bonds   amber
pair_modify     mix arithmetic
read_data       temp.lmps
  orthogonal box = (-116.049 -116.049 -116.049) to (116.049 116.049 116.049)
  1 by 1 by 1 MPI processor grid
  reading atoms ...
  765 atoms
  reading velocities ...
  765 velocities
  scanning bonds ...
  3 = max bonds/atom
  scanning angles ...
  6 = max angles/atom
  scanning dihedrals ...
  24 = max dihedrals/atom
  scanning impropers ...
  2 = max impropers/atom
  reading bonds ...
  827 bonds
  reading angles ...
  1454 angles
  reading dihedrals ...
  2238 dihedrals
  reading impropers ...
  252 impropers
  4 = max # of 1-2 neighbors
  10 = max # of 1-3 neighbors
  19 = max # of 1-4 neighbors
  22 = max # of special neighbors
  special bonds CPU = 0.000808954 secs
  read_data CPU = 0.00999808 secs
################################################################################

timestep        1
fix             pysimm_md all nve/limit 0.1
run             2000
PPPM initialization ...
  using 12-bit tables for long-range coulomb (../kspace.cpp:332)
  G vector (1/distance) = 0.0769053
  grid = 15 15 15
  stencil order = 5
  estimated absolute RMS force accuracy = 0.0358145
  estimated relative force accuracy = 0.000107854
  using double precision KISS FFT
  3d grid and FFT values/proc = 8000 3375
Neighbor list info ...
  update every 1 steps, delay 10 steps, check yes
  max neighbors/atom: 2000, page size: 100000
  master list distance cutoff = 14
  ghost atom cutoff = 14
  binsize = 7, bins = 34 34 34
  1 neighbor lists, perpetual/occasional/extra = 1 0 0
  (1) pair lj/cut/coul/long, perpetual
      attributes: half, newton on
      pair build: half/bin/newton
      stencil: half/bin/3d/newton
      bin: standard
Per MPI rank memory allocation (min/avg/max) = 18.61 | 18.61 | 18.61 Mbytes
Step Temp E_pair E_mol TotEng Press 
       0    162.67627    468.60953    727.04332    1566.1218     2.762556 
    2000    137.23351    392.21546    810.45121    1515.1939  -0.31749177 
Loop time of 4.82859 on 1 procs for 2000 steps with 765 atoms

Performance: 35.787 ns/day, 0.671 hours/ns, 414.200 timesteps/s
100.0% CPU use with 1 MPI tasks x no OpenMP threads

MPI task timing breakdown:
Section |  min time  |  avg time  |  max time  |%varavg| %total
---------------------------------------------------------------
Pair    | 1.5832     | 1.5832     | 1.5832     |   0.0 | 32.79
Bond    | 0.69861    | 0.69861    | 0.69861    |   0.0 | 14.47
Kspace  | 2.4498     | 2.4498     | 2.4498     |   0.0 | 50.74
Neigh   | 0.058644   | 0.058644   | 0.058644   |   0.0 |  1.21
Comm    | 0.0038354  | 0.0038354  | 0.0038354  |   0.0 |  0.08
Output  | 3.0994e-05 | 3.0994e-05 | 3.0994e-05 |   0.0 |  0.00
Modify  | 0.025015   | 0.025015   | 0.025015   |   0.0 |  0.52
Other   |            | 0.009451   |            |       |  0.20

Nlocal:    765 ave 765 max 765 min
Histogram: 1 0 0 0 0 0 0 0 0 0
Nghost:    169 ave 169 max 169 min
Histogram: 1 0 0 0 0 0 0 0 0 0
Neighs:    34569 ave 34569 max 34569 min
Histogram: 1 0 0 0 0 0 0 0 0 0

Total # of neighbors = 34569
Ave neighs/atom = 45.1882
Ave special neighs/atom = 11.2261
Neighbor list builds = 45
Dangerous builds = 0
unfix pysimm_md
min_style cg
minimize 0.001 0.001 10000 100000
WARNING: Using 'neigh_modify every 1 delay 0 check yes' setting during minimization (../min.cpp:190)
PPPM initialization ...
  using 12-bit tables for long-range coulomb (../kspace.cpp:332)
  G vector (1/distance) = 0.0769053
  grid = 15 15 15
  stencil order = 5
  estimated absolute RMS force accuracy = 0.0358145
  estimated relative force accuracy = 0.000107854
  using double precision KISS FFT
  3d grid and FFT values/proc = 8000 3375
Per MPI rank memory allocation (min/avg/max) = 19.74 | 19.74 | 19.74 Mbytes
Step Temp E_pair E_mol TotEng Press 
    2000    137.23351    392.21546    810.45121    1515.1939  -0.31749177 
    2025    137.23351    371.65276    572.57436    1256.7543    1.4080545 
Loop time of 0.145311 on 1 procs for 25 steps with 765 atoms

100.5% CPU use with 1 MPI tasks x no OpenMP threads

Minimization stats:
  Stopping criterion = energy tolerance
  Energy initial, next-to-last, final = 
         1202.66666935      944.424440405      944.227119996
  Force two-norm initial, final = 576.809 42.3069
  Force max component initial, final = 80.483 5.79485
  Final line search alpha, max atom move = 0.00380731 0.0220628
  Iterations, force evaluations = 25 50

MPI task timing breakdown:
Section |  min time  |  avg time  |  max time  |%varavg| %total
---------------------------------------------------------------
Pair    | 0.063298   | 0.063298   | 0.063298   |   0.0 | 43.56
Bond    | 0.0193     | 0.0193     | 0.0193     |   0.0 | 13.28
Kspace  | 0.061653   | 0.061653   | 0.061653   |   0.0 | 42.43
Neigh   | 0          | 0          | 0          |   0.0 |  0.00
Comm    | 7.4625e-05 | 7.4625e-05 | 7.4625e-05 |   0.0 |  0.05
Output  | 0          | 0          | 0          |   0.0 |  0.00
Modify  | 0          | 0          | 0          |   0.0 |  0.00
Other   |            | 0.0009849  |            |       |  0.68

Nlocal:    765 ave 765 max 765 min
Histogram: 1 0 0 0 0 0 0 0 0 0
Nghost:    171 ave 171 max 171 min
Histogram: 1 0 0 0 0 0 0 0 0 0
Neighs:    34592 ave 34592 max 34592 min
Histogram: 1 0 0 0 0 0 0 0 0 0

Total # of neighbors = 34592
Ave neighs/atom = 45.2183
Ave special neighs/atom = 11.2261
Neighbor list builds = 0
Dangerous builds = 0
write_dump all custom pysimm.dump.tmp id q x y z vx vy vz
quit


################################################################################
##################################    Init    ##################################
################################################################################
units           real
atom_style      full
pair_style      lj/cut/coul/long 12.0  12.0
kspace_style    pppm 1e-4
bond_style      harmonic
angle_style     harmonic
dihedral_style  fourier
improper_style  cvff
special_bonds   amber
pair_modify     mix arithmetic
read_data       temp.lmps
  orthogonal box = (-116.049 -116.049 -116.049) to (116.049 116.049 116.049)
  1 by 1 by 1 MPI processor grid
  reading atoms ...
  850 atoms
  reading velocities ...
  850 velocities
  scanning bonds ...
  3 = max bonds/atom
  scanning angles ...
  6 = max angles/atom
  scanning dihedrals ...
  24 = max dihedrals/atom
  scanning impropers ...
  2 = max impropers/atom
  reading bonds ...
  919 bonds
  reading angles ...
  1616 angles
  reading dihedrals ...
  2488 dihedrals
  reading impropers ...
  280 impropers
  4 = max # of 1-2 neighbors
  10 = max # of 1-3 neighbors
  19 = max # of 1-4 neighbors
  22 = max # of special neighbors
  special bonds CPU = 0.000815868 secs
  read_data CPU = 0.0104439 secs
################################################################################

timestep        1
fix             pysimm_md all nve/limit 0.1
run             2000
PPPM initialization ...
  using 12-bit tables for long-range coulomb (../kspace.cpp:332)
  G vector (1/distance) = 0.0809201
  grid = 16 16 16
  stencil order = 5
  estimated absolute RMS force accuracy = 0.0344597
  estimated relative force accuracy = 0.000103774
  using double precision KISS FFT
  3d grid and FFT values/proc = 9261 4096
Neighbor list info ...
  update every 1 steps, delay 10 steps, check yes
  max neighbors/atom: 2000, page size: 100000
  master list distance cutoff = 14
  ghost atom cutoff = 14
  binsize = 7, bins = 34 34 34
  1 neighbor lists, perpetual/occasional/extra = 1 0 0
  (1) pair lj/cut/coul/long, perpetual
      attributes: half, newton on
      pair build: half/bin/newton
      stencil: half/bin/3d/newton
      bin: standard
Per MPI rank memory allocation (min/avg/max) = 18.73 | 18.73 | 18.73 Mbytes
Step Temp E_pair E_mol TotEng Press 
       0    124.23607    426.36009    748.96177     1489.727   0.66220243 
    2000    100.79665    422.37503    805.10083    1482.5627  -0.18934033 
Loop time of 5.35757 on 1 procs for 2000 steps with 850 atoms

Performance: 32.253 ns/day, 0.744 hours/ns, 373.304 timesteps/s
100.0% CPU use with 1 MPI tasks x no OpenMP threads

MPI task timing breakdown:
Section |  min time  |  avg time  |  max time  |%varavg| %total
---------------------------------------------------------------
Pair    | 1.7647     | 1.7647     | 1.7647     |   0.0 | 32.94
Bond    | 0.77226    | 0.77226    | 0.77226    |   0.0 | 14.41
Kspace  | 2.7347     | 2.7347     | 2.7347     |   0.0 | 51.04
Neigh   | 0.043623   | 0.043623   | 0.043623   |   0.0 |  0.81
Comm    | 0.004076   | 0.004076   | 0.004076   |   0.0 |  0.08
Output  | 2.6941e-05 | 2.6941e-05 | 2.6941e-05 |   0.0 |  0.00
Modify  | 0.027513   | 0.027513   | 0.027513   |   0.0 |  0.51
Other   |            | 0.01066    |            |       |  0.20

Nlocal:    850 ave 850 max 850 min
Histogram: 1 0 0 0 0 0 0 0 0 0
Nghost:    201 ave 201 max 201 min
Histogram: 1 0 0 0 0 0 0 0 0 0
Neighs:    38301 ave 38301 max 38301 min
Histogram: 1 0 0 0 0 0 0 0 0 0

Total # of neighbors = 38301
Ave neighs/atom = 45.06
Ave special neighs/atom = 11.2306
Neighbor list builds = 31
Dangerous builds = 0
unfix pysimm_md
min_style cg
minimize 0.001 0.001 10000 100000
WARNING: Using 'neigh_modify every 1 delay 0 check yes' setting during minimization (../min.cpp:190)
PPPM initialization ...
  using 12-bit tables for long-range coulomb (../kspace.cpp:332)
  G vector (1/distance) = 0.0809201
  grid = 16 16 16
  stencil order = 5
  estimated absolute RMS force accuracy = 0.0344597
  estimated relative force accuracy = 0.000103774
  using double precision KISS FFT
  3d grid and FFT values/proc = 9261 4096
Per MPI rank memory allocation (min/avg/max) = 19.86 | 19.86 | 19.86 Mbytes
Step Temp E_pair E_mol TotEng Press 
    2000    100.79665    422.37503    805.10083    1482.5627  -0.18934033 
    2018    100.79665    406.59349    642.05733    1303.7377    1.3352755 
Loop time of 0.118877 on 1 procs for 18 steps with 850 atoms

100.1% CPU use with 1 MPI tasks x no OpenMP threads

Minimization stats:
  Stopping criterion = energy tolerance
  Energy initial, next-to-last, final = 
         1227.47585474      1049.17689326       1048.6508139
  Force two-norm initial, final = 469.991 43.4669
  Force max component initial, final = 59.4392 8.96136
  Final line search alpha, max atom move = 0.00687528 0.0616119
  Iterations, force evaluations = 18 36

MPI task timing breakdown:
Section |  min time  |  avg time  |  max time  |%varavg| %total
---------------------------------------------------------------
Pair    | 0.050622   | 0.050622   | 0.050622   |   0.0 | 42.58
Bond    | 0.015632   | 0.015632   | 0.015632   |   0.0 | 13.15
Kspace  | 0.051779   | 0.051779   | 0.051779   |   0.0 | 43.56
Neigh   | 0          | 0          | 0          |   0.0 |  0.00
Comm    | 6.2466e-05 | 6.2466e-05 | 6.2466e-05 |   0.0 |  0.05
Output  | 0          | 0          | 0          |   0.0 |  0.00
Modify  | 0          | 0          | 0          |   0.0 |  0.00
Other   |            | 0.000782   |            |       |  0.66

Nlocal:    850 ave 850 max 850 min
Histogram: 1 0 0 0 0 0 0 0 0 0
Nghost:    199 ave 199 max 199 min
Histogram: 1 0 0 0 0 0 0 0 0 0
Neighs:    38293 ave 38293 max 38293 min
Histogram: 1 0 0 0 0 0 0 0 0 0

Total # of neighbors = 38293
Ave neighs/atom = 45.0506
Ave special neighs/atom = 11.2306
Neighbor list builds = 0
Dangerous builds = 0
write_dump all custom pysimm.dump.tmp id q x y z vx vy vz
quit


################################################################################
##################################    Init    ##################################
################################################################################
units           real
atom_style      full
pair_style      lj/cut/coul/long 12.0  12.0
kspace_style    pppm 1e-4
bond_style      harmonic
angle_style     harmonic
dihedral_style  fourier
improper_style  cvff
special_bonds   amber
pair_modify     mix arithmetic
read_data       temp.lmps
  orthogonal box = (-146.213 -146.213 -146.213) to (146.213 146.213 146.213)
  1 by 1 by 1 MPI processor grid
  reading atoms ...
  935 atoms
  reading velocities ...
  935 velocities
  scanning bonds ...
  3 = max bonds/atom
  scanning angles ...
  6 = max angles/atom
  scanning dihedrals ...
  24 = max dihedrals/atom
  scanning impropers ...
  2 = max impropers/atom
  reading bonds ...
  1011 bonds
  reading angles ...
  1778 angles
  reading dihedrals ...
  2738 dihedrals
  reading impropers ...
  308 impropers
  4 = max # of 1-2 neighbors
  10 = max # of 1-3 neighbors
  19 = max # of 1-4 neighbors
  22 = max # of special neighbors
  special bonds CPU = 0.000921965 secs
  read_data CPU = 0.011539 secs
################################################################################

timestep        1
fix             pysimm_md all nve/limit 0.1
run             2000
PPPM initialization ...
  using 12-bit tables for long-range coulomb (../kspace.cpp:332)
  G vector (1/distance) = 0.0636744
  grid = 15 15 15
  stencil order = 5
  estimated absolute RMS force accuracy = 0.0365987
  estimated relative force accuracy = 0.000110216
  using double precision KISS FFT
  3d grid and FFT values/proc = 8000 3375
Neighbor list info ...
  update every 1 steps, delay 10 steps, check yes
  max neighbors/atom: 2000, page size: 100000
  master list distance cutoff = 14
  ghost atom cutoff = 14
  binsize = 7, bins = 42 42 42
  1 neighbor lists, perpetual/occasional/extra = 1 0 0
  (1) pair lj/cut/coul/long, perpetual
      attributes: half, newton on
      pair build: half/bin/newton
      stencil: half/bin/3d/newton
      bin: standard
Per MPI rank memory allocation (min/avg/max) = 18.8 | 18.8 | 18.8 Mbytes
Step Temp E_pair E_mol TotEng Press 
       0    92.298039    421.30712    667648.12    668326.39   -1259.3641 
    2000    1834.1382    563.69046    3293.6062    8963.6777   -5.0928625 
Loop time of 5.74054 on 1 procs for 2000 steps with 935 atoms

Performance: 30.102 ns/day, 0.797 hours/ns, 348.399 timesteps/s
100.0% CPU use with 1 MPI tasks x no OpenMP threads

MPI task timing breakdown:
Section |  min time  |  avg time  |  max time  |%varavg| %total
---------------------------------------------------------------
Pair    | 1.9994     | 1.9994     | 1.9994     |   0.0 | 34.83
Bond    | 0.8529     | 0.8529     | 0.8529     |   0.0 | 14.86
Kspace  | 2.5822     | 2.5822     | 2.5822     |   0.0 | 44.98
Neigh   | 0.26528    | 0.26528    | 0.26528    |   0.0 |  4.62
Comm    | 0.0035539  | 0.0035539  | 0.0035539  |   0.0 |  0.06
Output  | 2.8849e-05 | 2.8849e-05 | 2.8849e-05 |   0.0 |  0.00
Modify  | 0.031041   | 0.031041   | 0.031041   |   0.0 |  0.54
Other   |            | 0.006169   |            |       |  0.11

Nlocal:    935 ave 935 max 935 min
Histogram: 1 0 0 0 0 0 0 0 0 0
Nghost:    0 ave 0 max 0 min
Histogram: 1 0 0 0 0 0 0 0 0 0
Neighs:    46693 ave 46693 max 46693 min
Histogram: 1 0 0 0 0 0 0 0 0 0

Total # of neighbors = 46693
Ave neighs/atom = 49.939
Ave special neighs/atom = 11.2342
Neighbor list builds = 173
Dangerous builds = 0
unfix pysimm_md
min_style cg
minimize 0.001 0.001 10000 100000
WARNING: Using 'neigh_modify every 1 delay 0 check yes' setting during minimization (../min.cpp:190)
PPPM initialization ...
  using 12-bit tables for long-range coulomb (../kspace.cpp:332)
  G vector (1/distance) = 0.0636744
  grid = 15 15 15
  stencil order = 5
  estimated absolute RMS force accuracy = 0.0365987
  estimated relative force accuracy = 0.000110216
  using double precision KISS FFT
  3d grid and FFT values/proc = 8000 3375
Per MPI rank memory allocation (min/avg/max) = 19.93 | 19.93 | 19.93 Mbytes
Step Temp E_pair E_mol TotEng Press 
    2000    1834.1382    563.69046    3293.6062    8963.6777   -5.0928625 
    2065    1834.1382    469.88183    1007.3643    6583.6273    7.3336614 
Loop time of 0.447893 on 1 procs for 65 steps with 935 atoms

100.2% CPU use with 1 MPI tasks x no OpenMP threads

Minimization stats:
  Stopping criterion = energy tolerance
  Energy initial, next-to-last, final = 
         3857.29661152      1478.70353965      1477.24617756
  Force two-norm initial, final = 1403.3 91.9189
  Force max component initial, final = 166.474 9.79107
  Final line search alpha, max atom move = 0.00224304 0.0219618
  Iterations, force evaluations = 65 125

MPI task timing breakdown:
Section |  min time  |  avg time  |  max time  |%varavg| %total
---------------------------------------------------------------
Pair    | 0.21289    | 0.21289    | 0.21289    |   0.0 | 47.53
Bond    | 0.058476   | 0.058476   | 0.058476   |   0.0 | 13.06
Kspace  | 0.16503    | 0.16503    | 0.16503    |   0.0 | 36.85
Neigh   | 0.0082862  | 0.0082862  | 0.0082862  |   0.0 |  1.85
Comm    | 0.00014997 | 0.00014997 | 0.00014997 |   0.0 |  0.03
Output  | 0          | 0          | 0          |   0.0 |  0.00
Modify  | 0          | 0          | 0          |   0.0 |  0.00
Other   |            | 0.003051   |            |       |  0.68

Nlocal:    935 ave 935 max 935 min
Histogram: 1 0 0 0 0 0 0 0 0 0
Nghost:    0 ave 0 max 0 min
Histogram: 1 0 0 0 0 0 0 0 0 0
Neighs:    46697 ave 46697 max 46697 min
Histogram: 1 0 0 0 0 0 0 0 0 0

Total # of neighbors = 46697
Ave neighs/atom = 49.9433
Ave special neighs/atom = 11.2342
Neighbor list builds = 5
Dangerous builds = 0
write_dump all custom pysimm.dump.tmp id q x y z vx vy vz
quit


################################################################################
##################################    Init    ##################################
################################################################################
units           real
atom_style      full
pair_style      lj/cut/coul/long 12.0  12.0
kspace_style    pppm 1e-4
bond_style      harmonic
angle_style     harmonic
dihedral_style  fourier
improper_style  cvff
special_bonds   amber
pair_modify     mix arithmetic
read_data       temp.lmps
  orthogonal box = (-150.933 -150.933 -150.933) to (150.933 150.933 150.933)
  1 by 1 by 1 MPI processor grid
  reading atoms ...
  1020 atoms
  reading velocities ...
  1020 velocities
  scanning bonds ...
  3 = max bonds/atom
  scanning angles ...
  6 = max angles/atom
  scanning dihedrals ...
  24 = max dihedrals/atom
  scanning impropers ...
  2 = max impropers/atom
  reading bonds ...
  1103 bonds
  reading angles ...
  1940 angles
  reading dihedrals ...
  2988 dihedrals
  reading impropers ...
  336 impropers
  4 = max # of 1-2 neighbors
  10 = max # of 1-3 neighbors
  19 = max # of 1-4 neighbors
  22 = max # of special neighbors
  special bonds CPU = 0.000946999 secs
  read_data CPU = 0.012193 secs
################################################################################

timestep        1
fix             pysimm_md all nve/limit 0.1
run             2000
PPPM initialization ...
  using 12-bit tables for long-range coulomb (../kspace.cpp:332)
  G vector (1/distance) = 0.061997
  grid = 15 15 15
  stencil order = 5
  estimated absolute RMS force accuracy = 0.0375687
  estimated relative force accuracy = 0.000113137
  using double precision KISS FFT
  3d grid and FFT values/proc = 8000 3375
Neighbor list info ...
  update every 1 steps, delay 10 steps, check yes
  max neighbors/atom: 2000, page size: 100000
  master list distance cutoff = 14
  ghost atom cutoff = 14
  binsize = 7, bins = 44 44 44
  1 neighbor lists, perpetual/occasional/extra = 1 0 0
  (1) pair lj/cut/coul/long, perpetual
      attributes: half, newton on
      pair build: half/bin/newton
      stencil: half/bin/3d/newton
      bin: standard
Per MPI rank memory allocation (min/avg/max) = 18.86 | 18.86 | 18.86 Mbytes
Step Temp E_pair E_mol TotEng Press 
       0    1681.7615    482.05381    355417.56    361007.88   -609.18841 
    2000     1428.356    589.78519    3982.7399    8911.0784   -11.345777 
Loop time of 6.03829 on 1 procs for 2000 steps with 1020 atoms

Performance: 28.617 ns/day, 0.839 hours/ns, 331.219 timesteps/s
100.0% CPU use with 1 MPI tasks x no OpenMP threads

MPI task timing breakdown:
Section |  min time  |  avg time  |  max time  |%varavg| %total
---------------------------------------------------------------
Pair    | 2.1478     | 2.1478     | 2.1478     |   0.0 | 35.57
Bond    | 0.9055     | 0.9055     | 0.9055     |   0.0 | 15.00
Kspace  | 2.6671     | 2.6671     | 2.6671     |   0.0 | 44.17
Neigh   | 0.27547    | 0.27547    | 0.27547    |   0.0 |  4.56
Comm    | 0.0037382  | 0.0037382  | 0.0037382  |   0.0 |  0.06
Output  | 3.0994e-05 | 3.0994e-05 | 3.0994e-05 |   0.0 |  0.00
Modify  | 0.032483   | 0.032483   | 0.032483   |   0.0 |  0.54
Other   |            | 0.006173   |            |       |  0.10

Nlocal:    1020 ave 1020 max 1020 min
Histogram: 1 0 0 0 0 0 0 0 0 0
Nghost:    0 ave 0 max 0 min
Histogram: 1 0 0 0 0 0 0 0 0 0
Neighs:    45528 ave 45528 max 45528 min
Histogram: 1 0 0 0 0 0 0 0 0 0

Total # of neighbors = 45528
Ave neighs/atom = 44.6353
Ave special neighs/atom = 11.2373
Neighbor list builds = 172
Dangerous builds = 0
unfix pysimm_md
min_style cg
minimize 0.001 0.001 10000 100000
WARNING: Using 'neigh_modify every 1 delay 0 check yes' setting during minimization (../min.cpp:190)
PPPM initialization ...
  using 12-bit tables for long-range coulomb (../kspace.cpp:332)
  G vector (1/distance) = 0.061997
  grid = 15 15 15
  stencil order = 5
  estimated absolute RMS force accuracy = 0.0375687
  estimated relative force accuracy = 0.000113137
  using double precision KISS FFT
  3d grid and FFT values/proc = 8000 3375
Per MPI rank memory allocation (min/avg/max) = 19.99 | 19.99 | 19.99 Mbytes
Step Temp E_pair E_mol TotEng Press 
    2000     1428.356    589.78519    3982.7399    8911.0784   -11.345777 
    2062     1428.356     488.0569    1508.6181    6335.2283   -1.2906096 
Loop time of 0.646262 on 1 procs for 62 steps with 1020 atoms

99.9% CPU use with 1 MPI tasks x no OpenMP threads

Minimization stats:
  Stopping criterion = linesearch alpha is zero
  Energy initial, next-to-last, final = 
          4572.5251237      1996.67497985      1996.67497985
  Force two-norm initial, final = 1628.75 110.549
  Force max component initial, final = 186.084 11.6523
  Final line search alpha, max atom move = 9.35143e-13 1.08965e-11
  Iterations, force evaluations = 62 183

MPI task timing breakdown:
Section |  min time  |  avg time  |  max time  |%varavg| %total
---------------------------------------------------------------
Pair    | 0.3019     | 0.3019     | 0.3019     |   0.0 | 46.71
Bond    | 0.090365   | 0.090365   | 0.090365   |   0.0 | 13.98
Kspace  | 0.24373    | 0.24373    | 0.24373    |   0.0 | 37.71
Neigh   | 0.0063598  | 0.0063598  | 0.0063598  |   0.0 |  0.98
Comm    | 0.00014496 | 0.00014496 | 0.00014496 |   0.0 |  0.02
Output  | 0          | 0          | 0          |   0.0 |  0.00
Modify  | 0          | 0          | 0          |   0.0 |  0.00
Other   |            | 0.003763   |            |       |  0.58

Nlocal:    1020 ave 1020 max 1020 min
Histogram: 1 0 0 0 0 0 0 0 0 0
Nghost:    0 ave 0 max 0 min
Histogram: 1 0 0 0 0 0 0 0 0 0
Neighs:    45899 ave 45899 max 45899 min
Histogram: 1 0 0 0 0 0 0 0 0 0

Total # of neighbors = 45899
Ave neighs/atom = 44.999
Ave special neighs/atom = 11.2373
Neighbor list builds = 4
Dangerous builds = 0
write_dump all custom pysimm.dump.tmp id q x y z vx vy vz
quit


################################################################################
##################################    Init    ##################################
################################################################################
units           real
atom_style      full
pair_style      lj/cut/coul/long 12.0  12.0
kspace_style    pppm 1e-4
bond_style      harmonic
angle_style     harmonic
dihedral_style  fourier
improper_style  cvff
special_bonds   amber
pair_modify     mix arithmetic
read_data       temp.lmps
  orthogonal box = (-155.375 -155.375 -155.375) to (155.375 155.375 155.375)
  1 by 1 by 1 MPI processor grid
  reading atoms ...
  1105 atoms
  reading velocities ...
  1105 velocities
  scanning bonds ...
  3 = max bonds/atom
  scanning angles ...
  6 = max angles/atom
  scanning dihedrals ...
  24 = max dihedrals/atom
  scanning impropers ...
  2 = max impropers/atom
  reading bonds ...
  1195 bonds
  reading angles ...
  2102 angles
  reading dihedrals ...
  3238 dihedrals
  reading impropers ...
  364 impropers
  4 = max # of 1-2 neighbors
  10 = max # of 1-3 neighbors
  19 = max # of 1-4 neighbors
  22 = max # of special neighbors
  special bonds CPU = 0.00100207 secs
  read_data CPU = 0.0130179 secs
################################################################################

timestep        1
fix             pysimm_md all nve/limit 0.1
run             2000
PPPM initialization ...
  using 12-bit tables for long-range coulomb (../kspace.cpp:332)
  G vector (1/distance) = 0.0604963
  grid = 15 15 15
  stencil order = 5
  estimated absolute RMS force accuracy = 0.0384419
  estimated relative force accuracy = 0.000115767
  using double precision KISS FFT
  3d grid and FFT values/proc = 8000 3375
Neighbor list info ...
  update every 1 steps, delay 10 steps, check yes
  max neighbors/atom: 2000, page size: 100000
  master list distance cutoff = 14
  ghost atom cutoff = 14
  binsize = 7, bins = 45 45 45
  1 neighbor lists, perpetual/occasional/extra = 1 0 0
  (1) pair lj/cut/coul/long, perpetual
      attributes: half, newton on
      pair build: half/bin/newton
      stencil: half/bin/3d/newton
      bin: standard
Per MPI rank memory allocation (min/avg/max) = 18.9 | 18.9 | 18.9 Mbytes
Step Temp E_pair E_mol TotEng Press 
       0    1318.9537    500.69175     685042.2    689883.32   -1076.8837 
    2000    1492.7018    652.30296      3428.56    8993.0673    -2.582163 
Loop time of 6.555 on 1 procs for 2000 steps with 1105 atoms

Performance: 26.362 ns/day, 0.910 hours/ns, 305.111 timesteps/s
100.0% CPU use with 1 MPI tasks x no OpenMP threads

MPI task timing breakdown:
Section |  min time  |  avg time  |  max time  |%varavg| %total
---------------------------------------------------------------
Pair    | 2.4113     | 2.4113     | 2.4113     |   0.0 | 36.79
Bond    | 0.98953    | 0.98953    | 0.98953    |   0.0 | 15.10
Kspace  | 2.7994     | 2.7994     | 2.7994     |   0.0 | 42.71
Neigh   | 0.30842    | 0.30842    | 0.30842    |   0.0 |  4.71
Comm    | 0.0040939  | 0.0040939  | 0.0040939  |   0.0 |  0.06
Output  | 2.7895e-05 | 2.7895e-05 | 2.7895e-05 |   0.0 |  0.00
Modify  | 0.03583    | 0.03583    | 0.03583    |   0.0 |  0.55
Other   |            | 0.006304   |            |       |  0.10

Nlocal:    1105 ave 1105 max 1105 min
Histogram: 1 0 0 0 0 0 0 0 0 0
Nghost:    0 ave 0 max 0 min
Histogram: 1 0 0 0 0 0 0 0 0 0
Neighs:    54485 ave 54485 max 54485 min
Histogram: 1 0 0 0 0 0 0 0 0 0

Total # of neighbors = 54485
Ave neighs/atom = 49.3077
Ave special neighs/atom = 11.2398
Neighbor list builds = 176
Dangerous builds = 0
unfix pysimm_md
min_style cg
minimize 0.001 0.001 10000 100000
WARNING: Using 'neigh_modify every 1 delay 0 check yes' setting during minimization (../min.cpp:190)
PPPM initialization ...
  using 12-bit tables for long-range coulomb (../kspace.cpp:332)
  G vector (1/distance) = 0.0604963
  grid = 15 15 15
  stencil order = 5
  estimated absolute RMS force accuracy = 0.0384419
  estimated relative force accuracy = 0.000115767
  using double precision KISS FFT
  3d grid and FFT values/proc = 8000 3375
Per MPI rank memory allocation (min/avg/max) = 20.03 | 20.03 | 20.03 Mbytes
Step Temp E_pair E_mol TotEng Press 
    2000    1492.7018    652.30296      3428.56    8993.0673    -2.582163 
    2047    1492.7018    548.83383    1047.6513    6508.6895    6.3486191 
Loop time of 0.362213 on 1 procs for 47 steps with 1105 atoms

100.2% CPU use with 1 MPI tasks x no OpenMP threads

Minimization stats:
  Stopping criterion = energy tolerance
  Energy initial, next-to-last, final = 
           4080.862933      1598.01269998      1596.48517337
  Force two-norm initial, final = 1592.75 98.3627
  Force max component initial, final = 164.017 10.0123
  Final line search alpha, max atom move = 0.00149629 0.0149814
  Iterations, force evaluations = 47 91

MPI task timing breakdown:
Section |  min time  |  avg time  |  max time  |%varavg| %total
---------------------------------------------------------------
Pair    | 0.17806    | 0.17806    | 0.17806    |   0.0 | 49.16
Bond    | 0.049241   | 0.049241   | 0.049241   |   0.0 | 13.59
Kspace  | 0.1268     | 0.1268     | 0.1268     |   0.0 | 35.01
Neigh   | 0.0055499  | 0.0055499  | 0.0055499  |   0.0 |  1.53
Comm    | 9.5129e-05 | 9.5129e-05 | 9.5129e-05 |   0.0 |  0.03
Output  | 0          | 0          | 0          |   0.0 |  0.00
Modify  | 0          | 0          | 0          |   0.0 |  0.00
Other   |            | 0.002468   |            |       |  0.68

Nlocal:    1105 ave 1105 max 1105 min
Histogram: 1 0 0 0 0 0 0 0 0 0
Nghost:    0 ave 0 max 0 min
Histogram: 1 0 0 0 0 0 0 0 0 0
Neighs:    55240 ave 55240 max 55240 min
Histogram: 1 0 0 0 0 0 0 0 0 0

Total # of neighbors = 55240
Ave neighs/atom = 49.991
Ave special neighs/atom = 11.2398
Neighbor list builds = 3
Dangerous builds = 0
write_dump all custom pysimm.dump.tmp id q x y z vx vy vz
quit


################################################################################
##################################    Init    ##################################
################################################################################
units           real
atom_style      full
pair_style      lj/cut/coul/long 12.0  12.0
kspace_style    pppm 1e-4
bond_style      harmonic
angle_style     harmonic
dihedral_style  fourier
improper_style  cvff
special_bonds   amber
pair_modify     mix arithmetic
read_data       temp.lmps
  orthogonal box = (-159.576 -159.576 -159.576) to (159.576 159.576 159.576)
  1 by 1 by 1 MPI processor grid
  reading atoms ...
  1190 atoms
  reading velocities ...
  1190 velocities
  scanning bonds ...
  3 = max bonds/atom
  scanning angles ...
  6 = max angles/atom
  scanning dihedrals ...
  24 = max dihedrals/atom
  scanning impropers ...
  2 = max impropers/atom
  reading bonds ...
  1287 bonds
  reading angles ...
  2264 angles
  reading dihedrals ...
  3488 dihedrals
  reading impropers ...
  392 impropers
  4 = max # of 1-2 neighbors
  10 = max # of 1-3 neighbors
  19 = max # of 1-4 neighbors
  22 = max # of special neighbors
  special bonds CPU = 0.00105381 secs
  read_data CPU = 0.0136781 secs
################################################################################

timestep        1
fix             pysimm_md all nve/limit 0.1
run             2000
PPPM initialization ...
  using 12-bit tables for long-range coulomb (../kspace.cpp:332)
  G vector (1/distance) = 0.0624615
  grid = 16 16 16
  stencil order = 5
  estimated absolute RMS force accuracy = 0.0370197
  estimated relative force accuracy = 0.000111484
  using double precision KISS FFT
  3d grid and FFT values/proc = 9261 4096
Neighbor list info ...
  update every 1 steps, delay 10 steps, check yes
  max neighbors/atom: 2000, page size: 100000
  master list distance cutoff = 14
  ghost atom cutoff = 14
  binsize = 7, bins = 46 46 46
  1 neighbor lists, perpetual/occasional/extra = 1 0 0
  (1) pair lj/cut/coul/long, perpetual
      attributes: half, newton on
      pair build: half/bin/newton
      stencil: half/bin/3d/newton
      bin: standard
Per MPI rank memory allocation (min/avg/max) = 19.05 | 19.05 | 19.05 Mbytes
Step Temp E_pair E_mol TotEng Press 
       0    1386.5206    561.59123    770640.96    776116.63    -1110.054 
    2000    1516.0296    797.29574    3738.3326     9908.715   -1.6524218 
Loop time of 7.4309 on 1 procs for 2000 steps with 1190 atoms

Performance: 23.254 ns/day, 1.032 hours/ns, 269.146 timesteps/s
100.0% CPU use with 1 MPI tasks x no OpenMP threads

MPI task timing breakdown:
Section |  min time  |  avg time  |  max time  |%varavg| %total
---------------------------------------------------------------
Pair    | 2.8613     | 2.8613     | 2.8613     |   0.0 | 38.50
Bond    | 1.0663     | 1.0663     | 1.0663     |   0.0 | 14.35
Kspace  | 3.0863     | 3.0863     | 3.0863     |   0.0 | 41.53
Neigh   | 0.3669     | 0.3669     | 0.3669     |   0.0 |  4.94
Comm    | 0.0045094  | 0.0045094  | 0.0045094  |   0.0 |  0.06
Output  | 3.0041e-05 | 3.0041e-05 | 3.0041e-05 |   0.0 |  0.00
Modify  | 0.038892   | 0.038892   | 0.038892   |   0.0 |  0.52
Other   |            | 0.00665    |            |       |  0.09

Nlocal:    1190 ave 1190 max 1190 min
Histogram: 1 0 0 0 0 0 0 0 0 0
Nghost:    0 ave 0 max 0 min
Histogram: 1 0 0 0 0 0 0 0 0 0
Neighs:    68384 ave 68384 max 68384 min
Histogram: 1 0 0 0 0 0 0 0 0 0

Total # of neighbors = 68384
Ave neighs/atom = 57.4655
Ave special neighs/atom = 11.242
Neighbor list builds = 177
Dangerous builds = 0
unfix pysimm_md
min_style cg
minimize 0.001 0.001 10000 100000
WARNING: Using 'neigh_modify every 1 delay 0 check yes' setting during minimization (../min.cpp:190)
PPPM initialization ...
  using 12-bit tables for long-range coulomb (../kspace.cpp:332)
  G vector (1/distance) = 0.0624615
  grid = 16 16 16
  stencil order = 5
  estimated absolute RMS force accuracy = 0.0370197
  estimated relative force accuracy = 0.000111484
  using double precision KISS FFT
  3d grid and FFT values/proc = 9261 4096
Per MPI rank memory allocation (min/avg/max) = 20.18 | 20.18 | 20.18 Mbytes
Step Temp E_pair E_mol TotEng Press 
    2000    1516.0296    797.29574    3738.3326     9908.715   -1.6524218 
    2036    1516.0296    654.08514     1436.966    7464.1378    4.3094087 
Loop time of 0.321751 on 1 procs for 36 steps with 1190 atoms

99.8% CPU use with 1 MPI tasks x no OpenMP threads

Minimization stats:
  Stopping criterion = energy tolerance
  Energy initial, next-to-last, final = 
         4535.62832226      2091.25245602      2091.05114969
  Force two-norm initial, final = 1706.37 118.318
  Force max component initial, final = 189.129 11.8449
  Final line search alpha, max atom move = 0.00187476 0.0222063
  Iterations, force evaluations = 36 68

MPI task timing breakdown:
Section |  min time  |  avg time  |  max time  |%varavg| %total
---------------------------------------------------------------
Pair    | 0.16879    | 0.16879    | 0.16879    |   0.0 | 52.46
Bond    | 0.039535   | 0.039535   | 0.039535   |   0.0 | 12.29
Kspace  | 0.10695    | 0.10695    | 0.10695    |   0.0 | 33.24
Neigh   | 0.0044429  | 0.0044429  | 0.0044429  |   0.0 |  1.38
Comm    | 6.5327e-05 | 6.5327e-05 | 6.5327e-05 |   0.0 |  0.02
Output  | 0          | 0          | 0          |   0.0 |  0.00
Modify  | 0          | 0          | 0          |   0.0 |  0.00
Other   |            | 0.001971   |            |       |  0.61

Nlocal:    1190 ave 1190 max 1190 min
Histogram: 1 0 0 0 0 0 0 0 0 0
Nghost:    0 ave 0 max 0 min
Histogram: 1 0 0 0 0 0 0 0 0 0
Neighs:    68667 ave 68667 max 68667 min
Histogram: 1 0 0 0 0 0 0 0 0 0

Total # of neighbors = 68667
Ave neighs/atom = 57.7034
Ave special neighs/atom = 11.242
Neighbor list builds = 2
Dangerous builds = 0
write_dump all custom pysimm.dump.tmp id q x y z vx vy vz
quit


################################################################################
##################################    Init    ##################################
################################################################################
units           real
atom_style      full
pair_style      lj/cut/coul/long 12.0  12.0
kspace_style    pppm 1e-4
bond_style      harmonic
angle_style     harmonic
dihedral_style  fourier
improper_style  cvff
special_bonds   amber
pair_modify     mix arithmetic
read_data       temp.lmps
  orthogonal box = (-163.567 -163.567 -163.567) to (163.567 163.567 163.567)
  1 by 1 by 1 MPI processor grid
  reading atoms ...
  1275 atoms
  reading velocities ...
  1275 velocities
  scanning bonds ...
  3 = max bonds/atom
  scanning angles ...
  6 = max angles/atom
  scanning dihedrals ...
  24 = max dihedrals/atom
  scanning impropers ...
  2 = max impropers/atom
  reading bonds ...
  1379 bonds
  reading angles ...
  2426 angles
  reading dihedrals ...
  3738 dihedrals
  reading impropers ...
  420 impropers
  4 = max # of 1-2 neighbors
  10 = max # of 1-3 neighbors
  19 = max # of 1-4 neighbors
  22 = max # of special neighbors
  special bonds CPU = 0.00108814 secs
  read_data CPU = 0.0143349 secs
################################################################################

timestep        1
fix             pysimm_md all nve/limit 0.1
run             2000
PPPM initialization ...
  using 12-bit tables for long-range coulomb (../kspace.cpp:332)
  G vector (1/distance) = 0.0611735
  grid = 16 16 16
  stencil order = 5
  estimated absolute RMS force accuracy = 0.0377797
  estimated relative force accuracy = 0.000113772
  using double precision KISS FFT
  3d grid and FFT values/proc = 9261 4096
Neighbor list info ...
  update every 1 steps, delay 10 steps, check yes
  max neighbors/atom: 2000, page size: 100000
  master list distance cutoff = 14
  ghost atom cutoff = 14
  binsize = 7, bins = 47 47 47
  1 neighbor lists, perpetual/occasional/extra = 1 0 0
  (1) pair lj/cut/coul/long, perpetual
      attributes: half, newton on
      pair build: half/bin/newton
      stencil: half/bin/3d/newton
      bin: standard
Per MPI rank memory allocation (min/avg/max) = 19.09 | 19.09 | 19.09 Mbytes
Step Temp E_pair E_mol TotEng Press 
       0    1415.3763    667.96279    313828.83    319871.76   -423.74224 
    2000    1096.1093    798.49923    3615.9274    8576.9585    -1.593444 
Loop time of 7.76515 on 1 procs for 2000 steps with 1275 atoms

Performance: 22.253 ns/day, 1.078 hours/ns, 257.561 timesteps/s
100.0% CPU use with 1 MPI tasks x no OpenMP threads

MPI task timing breakdown:
Section |  min time  |  avg time  |  max time  |%varavg| %total
---------------------------------------------------------------
Pair    | 3.0156     | 3.0156     | 3.0156     |   0.0 | 38.84
[...]
  using 12-bit tables for long-range coulomb (../kspace.cpp:332)
  G vector (1/distance) = 0.0616366
  grid = 24 24 24
  stencil order = 5
  estimated absolute RMS force accuracy = 0.0365918
  estimated relative force accuracy = 0.000110195
  using double precision KISS FFT
  3d grid and FFT values/proc = 24389 13824
Per MPI rank memory allocation (min/avg/max) = 24.16 | 24.16 | 24.16 Mbytes
Step Temp E_pair E_mol TotEng Press 
    2000     416.4276    1941.9429    5604.9499    12504.611  -0.24000838 
    2039     416.4276    1848.1056    3208.8292    10014.653    1.5627384 
Loop time of 2.33879 on 1 procs for 39 steps with 3995 atoms

100.1% CPU use with 1 MPI tasks x no OpenMP threads

Minimization stats:
  Stopping criterion = linesearch alpha is zero
  Energy initial, next-to-last, final = 
          7546.8927277      5056.93477653      5056.93477653
  Force two-norm initial, final = 1695.69 122.507
  Force max component initial, final = 195.686 14.3618
  Final line search alpha, max atom move = 6.02823e-13 8.65766e-12
  Iterations, force evaluations = 39 134

MPI task timing breakdown:
Section |  min time  |  avg time  |  max time  |%varavg| %total
---------------------------------------------------------------
Pair    | 1.3365     | 1.3365     | 1.3365     |   0.0 | 57.15
Bond    | 0.25935    | 0.25935    | 0.25935    |   0.0 | 11.09
Kspace  | 0.71395    | 0.71395    | 0.71395    |   0.0 | 30.53
Neigh   | 0.019237   | 0.019237   | 0.019237   |   0.0 |  0.82
Comm    | 0.00016689 | 0.00016689 | 0.00016689 |   0.0 |  0.01
Output  | 0          | 0          | 0          |   0.0 |  0.00
Modify  | 0          | 0          | 0          |   0.0 |  0.00
Other   |            | 0.009548   |            |       |  0.41

Nlocal:    3995 ave 3995 max 3995 min
Histogram: 1 0 0 0 0 0 0 0 0 0
Nghost:    0 ave 0 max 0 min
Histogram: 1 0 0 0 0 0 0 0 0 0
Neighs:    306984 ave 306984 max 306984 min
Histogram: 1 0 0 0 0 0 0 0 0 0

Total # of neighbors = 306984
Ave neighs/atom = 76.8421
Ave special neighs/atom = 11.2621
Neighbor list builds = 2
Dangerous builds = 0
write_dump all custom pysimm.dump.tmp id q x y z vx vy vz
quit


################################################################################
##################################    Init    ##################################
################################################################################
units           real
atom_style      full
pair_style      lj/cut/coul/long 12.0  12.0
kspace_style    pppm 1e-4
bond_style      harmonic
angle_style     harmonic
dihedral_style  fourier
improper_style  cvff
special_bonds   amber
pair_modify     mix arithmetic
read_data       temp.lmps
  orthogonal box = (-244.917 -244.917 -244.917) to (244.917 244.917 244.917)
  1 by 1 by 1 MPI processor grid
  reading atoms ...
  4080 atoms
  reading velocities ...
  4080 velocities
  scanning bonds ...
  3 = max bonds/atom
  scanning angles ...
  6 = max angles/atom
  scanning dihedrals ...
  24 = max dihedrals/atom
  scanning impropers ...
  2 = max impropers/atom
  reading bonds ...
  4415 bonds
  reading angles ...
  7772 angles
  reading dihedrals ...
  11988 dihedrals
  reading impropers ...
  1344 impropers
  4 = max # of 1-2 neighbors
  10 = max # of 1-3 neighbors
  19 = max # of 1-4 neighbors
  22 = max # of special neighbors
  special bonds CPU = 0.00314808 secs
  read_data CPU = 0.039355 secs
################################################################################

timestep        1
fix             pysimm_md all nve/limit 0.1
run             2000
PPPM initialization ...
  using 12-bit tables for long-range coulomb (../kspace.cpp:332)
  G vector (1/distance) = 0.0612647
  grid = 24 24 24
  stencil order = 5
  estimated absolute RMS force accuracy = 0.036825
  estimated relative force accuracy = 0.000110898
  using double precision KISS FFT
  3d grid and FFT values/proc = 24389 13824
Neighbor list info ...
  update every 1 steps, delay 10 steps, check yes
  max neighbors/atom: 2000, page size: 100000
  master list distance cutoff = 14
  ghost atom cutoff = 14
  binsize = 7, bins = 70 70 70
  1 neighbor lists, perpetual/occasional/extra = 1 0 0
  (1) pair lj/cut/coul/long, perpetual
      attributes: half, newton on
      pair build: half/bin/newton
      stencil: half/bin/3d/newton
      bin: standard
Per MPI rank memory allocation (min/avg/max) = 23.05 | 23.05 | 23.05 Mbytes
Step Temp E_pair E_mol TotEng Press 
       0    407.90439    1861.4035    748298.98    755119.98   -297.43141 
    2000     426.3681    2032.9211     5340.858    12557.871   0.68991248 
Loop time of 30.3023 on 1 procs for 2000 steps with 4080 atoms

Performance: 5.703 ns/day, 4.209 hours/ns, 66.001 timesteps/s
100.0% CPU use with 1 MPI tasks x no OpenMP threads

MPI task timing breakdown:
Section |  min time  |  avg time  |  max time  |%varavg| %total
---------------------------------------------------------------
Pair    | 13.621     | 13.621     | 13.621     |   0.0 | 44.95
Bond    | 3.734      | 3.734      | 3.734      |   0.0 | 12.32
Kspace  | 11.005     | 11.005     | 11.005     |   0.0 | 36.32
Neigh   | 1.7764     | 1.7764     | 1.7764     |   0.0 |  5.86
Comm    | 0.013724   | 0.013724   | 0.013724   |   0.0 |  0.05
Output  | 3.8862e-05 | 3.8862e-05 | 3.8862e-05 |   0.0 |  0.00
Modify  | 0.13145    | 0.13145    | 0.13145    |   0.0 |  0.43
Other   |            | 0.02148    |            |       |  0.07

Nlocal:    4080 ave 4080 max 4080 min
Histogram: 1 0 0 0 0 0 0 0 0 0
Nghost:    0 ave 0 max 0 min
Histogram: 1 0 0 0 0 0 0 0 0 0
Neighs:    316909 ave 316909 max 316909 min
Histogram: 1 0 0 0 0 0 0 0 0 0

Total # of neighbors = 316909
Ave neighs/atom = 77.6738
Ave special neighs/atom = 11.2623
Neighbor list builds = 175
Dangerous builds = 0
unfix pysimm_md
min_style cg
minimize 0.001 0.001 10000 100000
WARNING: Using 'neigh_modify every 1 delay 0 check yes' setting during minimization (../min.cpp:190)
PPPM initialization ...
  using 12-bit tables for long-range coulomb (../kspace.cpp:332)
  G vector (1/distance) = 0.0612647
  grid = 24 24 24
  stencil order = 5
  estimated absolute RMS force accuracy = 0.036825
  estimated relative force accuracy = 0.000110898
  using double precision KISS FFT
  3d grid and FFT values/proc = 24389 13824
Per MPI rank memory allocation (min/avg/max) = 24.17 | 24.17 | 24.17 Mbytes
Step Temp E_pair E_mol TotEng Press 
    2000     426.3681    2032.9211     5340.858    12557.871   0.68991248 
    2027     426.3681     1873.943    3245.0324    10303.068    1.7986234 
Loop time of 0.974481 on 1 procs for 27 steps with 4080 atoms

100.0% CPU use with 1 MPI tasks x no OpenMP threads

Minimization stats:
  Stopping criterion = energy tolerance
  Energy initial, next-to-last, final = 
         7373.77910939      5123.30229177      5118.97540456
  Force two-norm initial, final = 1732.2 110.113
  Force max component initial, final = 178.127 14.8961
  Final line search alpha, max atom move = 0.00236829 0.0352784
  Iterations, force evaluations = 27 52

MPI task timing breakdown:
Section |  min time  |  avg time  |  max time  |%varavg| %total
---------------------------------------------------------------
Pair    | 0.55743    | 0.55743    | 0.55743    |   0.0 | 57.20
Bond    | 0.10698    | 0.10698    | 0.10698    |   0.0 | 10.98
Kspace  | 0.29476    | 0.29476    | 0.29476    |   0.0 | 30.25
Neigh   | 0.010199   | 0.010199   | 0.010199   |   0.0 |  1.05
Comm    | 8.44e-05   | 8.44e-05   | 8.44e-05   |   0.0 |  0.01
Output  | 0          | 0          | 0          |   0.0 |  0.00
Modify  | 0          | 0          | 0          |   0.0 |  0.00
Other   |            | 0.005028   |            |       |  0.52

Nlocal:    4080 ave 4080 max 4080 min
Histogram: 1 0 0 0 0 0 0 0 0 0
Nghost:    0 ave 0 max 0 min
Histogram: 1 0 0 0 0 0 0 0 0 0
Neighs:    317210 ave 317210 max 317210 min
Histogram: 1 0 0 0 0 0 0 0 0 0

Total # of neighbors = 317210
Ave neighs/atom = 77.7475
Ave special neighs/atom = 11.2623
Neighbor list builds = 1
Dangerous builds = 0
write_dump all custom pysimm.dump.tmp id q x y z vx vy vz
quit


################################################################################
##################################    Init    ##################################
################################################################################
units           real
atom_style      full
pair_style      lj/cut/coul/long 12.0  12.0
kspace_style    pppm 1e-4
bond_style      harmonic
angle_style     harmonic
dihedral_style  fourier
improper_style  cvff
special_bonds   amber
pair_modify     mix arithmetic
read_data       temp.lmps
  orthogonal box = (-246.642 -246.642 -246.642) to (246.642 246.642 246.642)
  1 by 1 by 1 MPI processor grid
  reading atoms ...
  4165 atoms
  reading velocities ...
  4165 velocities
  scanning bonds ...
  3 = max bonds/atom
  scanning angles ...
  6 = max angles/atom
  scanning dihedrals ...
  24 = max dihedrals/atom
  scanning impropers ...
  2 = max impropers/atom
  reading bonds ...
  4507 bonds
  reading angles ...
  7934 angles
  reading dihedrals ...
  12238 dihedrals
  reading impropers ...
  1372 impropers
  4 = max # of 1-2 neighbors
  10 = max # of 1-3 neighbors
  19 = max # of 1-4 neighbors
  22 = max # of special neighbors
  special bonds CPU = 0.00317812 secs
  read_data CPU = 0.039438 secs
################################################################################

timestep        1
fix             pysimm_md all nve/limit 0.1
run             2000
PPPM initialization ...
  using 12-bit tables for long-range coulomb (../kspace.cpp:332)
  G vector (1/distance) = 0.0609024
  grid = 24 24 24
  stencil order = 5
  estimated absolute RMS force accuracy = 0.0370525
  estimated relative force accuracy = 0.000111582
  using double precision KISS FFT
  3d grid and FFT values/proc = 24389 13824
Neighbor list info ...
  update every 1 steps, delay 10 steps, check yes
  max neighbors/atom: 2000, page size: 100000
  master list distance cutoff = 14
  ghost atom cutoff = 14
  binsize = 7, bins = 71 71 71
  1 neighbor lists, perpetual/occasional/extra = 1 0 0
  (1) pair lj/cut/coul/long, perpetual
      attributes: half, newton on
      pair build: half/bin/newton
      stencil: half/bin/3d/newton
      bin: standard
Per MPI rank memory allocation (min/avg/max) = 23.13 | 23.13 | 23.13 Mbytes
Step Temp E_pair E_mol TotEng Press 
       0    417.81589    1886.6001    290611.89    297684.46   -113.19577 
    2000    374.12172    2025.8754    5307.9556    11977.465   0.43501585 
Loop time of 30.8234 on 1 procs for 2000 steps with 4165 atoms

Performance: 5.606 ns/day, 4.281 hours/ns, 64.886 timesteps/s
100.0% CPU use with 1 MPI tasks x no OpenMP threads

MPI task timing breakdown:
Section |  min time  |  avg time  |  max time  |%varavg| %total
---------------------------------------------------------------
Pair    | 14.252     | 14.252     | 14.252     |   0.0 | 46.24
Bond    | 3.7595     | 3.7595     | 3.7595     |   0.0 | 12.20
Kspace  | 10.894     | 10.894     | 10.894     |   0.0 | 35.34
Neigh   | 1.75       | 1.75       | 1.75       |   0.0 |  5.68
Comm    | 0.013134   | 0.013134   | 0.013134   |   0.0 |  0.04
Output  | 4.1008e-05 | 4.1008e-05 | 4.1008e-05 |   0.0 |  0.00
Modify  | 0.13161    | 0.13161    | 0.13161    |   0.0 |  0.43
Other   |            | 0.02266    |            |       |  0.07

Nlocal:    4165 ave 4165 max 4165 min
Histogram: 1 0 0 0 0 0 0 0 0 0
Nghost:    0 ave 0 max 0 min
Histogram: 1 0 0 0 0 0 0 0 0 0
Neighs:    332281 ave 332281 max 332281 min
Histogram: 1 0 0 0 0 0 0 0 0 0

Total # of neighbors = 332281
Ave neighs/atom = 79.7794
Ave special neighs/atom = 11.2624
Neighbor list builds = 166
Dangerous builds = 0
unfix pysimm_md
min_style cg
minimize 0.001 0.001 10000 100000
WARNING: Using 'neigh_modify every 1 delay 0 check yes' setting during minimization (../min.cpp:190)
PPPM initialization ...
  using 12-bit tables for long-range coulomb (../kspace.cpp:332)
  G vector (1/distance) = 0.0609024
  grid = 24 24 24
  stencil order = 5
  estimated absolute RMS force accuracy = 0.0370525
  estimated relative force accuracy = 0.000111582
  using double precision KISS FFT
  3d grid and FFT values/proc = 24389 13824
Per MPI rank memory allocation (min/avg/max) = 24.25 | 24.25 | 24.25 Mbytes
Step Temp E_pair E_mol TotEng Press 
    2000    374.12172    2025.8754    5307.9556    11977.465   0.43501585 
    2023    374.12172    1886.3294    3380.9369    9910.8999     1.384471 
Loop time of 0.862711 on 1 procs for 23 steps with 4165 atoms

100.0% CPU use with 1 MPI tasks x no OpenMP threads

Minimization stats:
  Stopping criterion = energy tolerance
  Energy initial, next-to-last, final = 
         7333.83093495      5270.62711168       5267.2663453
  Force two-norm initial, final = 1603.9 140.841
  Force max component initial, final = 172.918 19.5647
  Final line search alpha, max atom move = 0.00171534 0.0335601
  Iterations, force evaluations = 23 46

MPI task timing breakdown:
Section |  min time  |  avg time  |  max time  |%varavg| %total
---------------------------------------------------------------
Pair    | 0.50042    | 0.50042    | 0.50042    |   0.0 | 58.01
Bond    | 0.094103   | 0.094103   | 0.094103   |   0.0 | 10.91
Kspace  | 0.25337    | 0.25337    | 0.25337    |   0.0 | 29.37
Neigh   | 0.010434   | 0.010434   | 0.010434   |   0.0 |  1.21
Comm    | 8.3685e-05 | 8.3685e-05 | 8.3685e-05 |   0.0 |  0.01
Output  | 0          | 0          | 0          |   0.0 |  0.00
Modify  | 0          | 0          | 0          |   0.0 |  0.00
Other   |            | 0.004301   |            |       |  0.50

Nlocal:    4165 ave 4165 max 4165 min
Histogram: 1 0 0 0 0 0 0 0 0 0
Nghost:    0 ave 0 max 0 min
Histogram: 1 0 0 0 0 0 0 0 0 0
Neighs:    332451 ave 332451 max 332451 min
Histogram: 1 0 0 0 0 0 0 0 0 0

Total # of neighbors = 332451
Ave neighs/atom = 79.8202
Ave special neighs/atom = 11.2624
Neighbor list builds = 1
Dangerous builds = 0
write_dump all custom pysimm.dump.tmp id q x y z vx vy vz
quit


################################################################################
##################################    Init    ##################################
################################################################################
units           real
atom_style      full
pair_style      lj/cut/coul/long 12.0  12.0
kspace_style    pppm 1e-4
bond_style      harmonic
angle_style     harmonic
dihedral_style  fourier
improper_style  cvff
special_bonds   amber
pair_modify     mix arithmetic
read_data       temp.lmps
  orthogonal box = (-248.343 -248.343 -248.343) to (248.343 248.343 248.343)
  1 by 1 by 1 MPI processor grid
  reading atoms ...
  4250 atoms
  reading velocities ...
  4250 velocities
  scanning bonds ...
  3 = max bonds/atom
  scanning angles ...
  6 = max angles/atom
  scanning dihedrals ...
  24 = max dihedrals/atom
  scanning impropers ...
  2 = max impropers/atom
  reading bonds ...
  4599 bonds
  reading angles ...
  8096 angles
  reading dihedrals ...
  12488 dihedrals
  reading impropers ...
  1400 impropers
  4 = max # of 1-2 neighbors
  10 = max # of 1-3 neighbors
  19 = max # of 1-4 neighbors
  22 = max # of special neighbors
  special bonds CPU = 0.00322604 secs
  read_data CPU = 0.039912 secs
################################################################################

timestep        1
fix             pysimm_md all nve/limit 0.1
run             2000
PPPM initialization ...
  using 12-bit tables for long-range coulomb (../kspace.cpp:332)
  G vector (1/distance) = 0.0605492
  grid = 24 24 24
  stencil order = 5
  estimated absolute RMS force accuracy = 0.0372743
  estimated relative force accuracy = 0.00011225
  using double precision KISS FFT
  3d grid and FFT values/proc = 24389 13824
Neighbor list info ...
  update every 1 steps, delay 10 steps, check yes
  max neighbors/atom: 2000, page size: 100000
  master list distance cutoff = 14
  ghost atom cutoff = 14
  binsize = 7, bins = 71 71 71
  1 neighbor lists, perpetual/occasional/extra = 1 0 0
  (1) pair lj/cut/coul/long, perpetual
      attributes: half, newton on
      pair build: half/bin/newton
      stencil: half/bin/3d/newton
      bin: standard
Per MPI rank memory allocation (min/avg/max) = 23.14 | 23.14 | 23.14 Mbytes
Step Temp E_pair E_mol TotEng Press 
       0    366.78577    1901.1156    109763.71    116310.33   -41.536411 
    2000    307.12863    1995.9542      4907.04     10792.92   0.41311077 
Loop time of 30.5826 on 1 procs for 2000 steps with 4250 atoms

Performance: 5.650 ns/day, 4.248 hours/ns, 65.397 timesteps/s
100.0% CPU use with 1 MPI tasks x no OpenMP threads

MPI task timing breakdown:
Section |  min time  |  avg time  |  max time  |%varavg| %total
---------------------------------------------------------------
Pair    | 14.13      | 14.13      | 14.13      |   0.0 | 46.20
Bond    | 3.7905     | 3.7905     | 3.7905     |   0.0 | 12.39
Kspace  | 10.964     | 10.964     | 10.964     |   0.0 | 35.85
Neigh   | 1.5289     | 1.5289     | 1.5289     |   0.0 |  5.00
Comm    | 0.011813   | 0.011813   | 0.011813   |   0.0 |  0.04
Output  | 4.0054e-05 | 4.0054e-05 | 4.0054e-05 |   0.0 |  0.00
Modify  | 0.13259    | 0.13259    | 0.13259    |   0.0 |  0.43
Other   |            | 0.02478    |            |       |  0.08

Nlocal:    4250 ave 4250 max 4250 min
Histogram: 1 0 0 0 0 0 0 0 0 0
Nghost:    0 ave 0 max 0 min
Histogram: 1 0 0 0 0 0 0 0 0 0
Neighs:    331889 ave 331889 max 331889 min
Histogram: 1 0 0 0 0 0 0 0 0 0

Total # of neighbors = 331889
Ave neighs/atom = 78.0915
Ave special neighs/atom = 11.2626
Neighbor list builds = 144
Dangerous builds = 0
unfix pysimm_md
min_style cg
minimize 0.001 0.001 10000 100000
WARNING: Using 'neigh_modify every 1 delay 0 check yes' setting during minimization (../min.cpp:190)
PPPM initialization ...
  using 12-bit tables for long-range coulomb (../kspace.cpp:332)
  G vector (1/distance) = 0.0605492
  grid = 24 24 24
  stencil order = 5
  estimated absolute RMS force accuracy = 0.0372743
  estimated relative force accuracy = 0.00011225
  using double precision KISS FFT
  3d grid and FFT values/proc = 24389 13824
Per MPI rank memory allocation (min/avg/max) = 24.26 | 24.26 | 24.26 Mbytes
Step Temp E_pair E_mol TotEng Press 
    2000    307.12863    1995.9542      4907.04     10792.92   0.41311077 
    2018    307.12863    1906.6584     3329.386    9125.9704    1.2915572 
Loop time of 0.676526 on 1 procs for 18 steps with 4250 atoms

100.1% CPU use with 1 MPI tasks x no OpenMP threads

Minimization stats:
  Stopping criterion = energy tolerance
  Energy initial, next-to-last, final = 
         6902.99416155      5239.82042866      5236.04440353
  Force two-norm initial, final = 1577.97 120.108
  Force max component initial, final = 164.754 11.435
  Final line search alpha, max atom move = 0.0021362 0.0244274
  Iterations, force evaluations = 18 36

MPI task timing breakdown:
Section |  min time  |  avg time  |  max time  |%varavg| %total
---------------------------------------------------------------
Pair    | 0.39533    | 0.39533    | 0.39533    |   0.0 | 58.44
Bond    | 0.07562    | 0.07562    | 0.07562    |   0.0 | 11.18
Kspace  | 0.20211    | 0.20211    | 0.20211    |   0.0 | 29.88
Neigh   | 0          | 0          | 0          |   0.0 |  0.00
Comm    | 1.812e-05  | 1.812e-05  | 1.812e-05  |   0.0 |  0.00
Output  | 0          | 0          | 0          |   0.0 |  0.00
Modify  | 0          | 0          | 0          |   0.0 |  0.00
Other   |            | 0.003442   |            |       |  0.51

Nlocal:    4250 ave 4250 max 4250 min
Histogram: 1 0 0 0 0 0 0 0 0 0
Nghost:    0 ave 0 max 0 min
Histogram: 1 0 0 0 0 0 0 0 0 0
Neighs:    331760 ave 331760 max 331760 min
Histogram: 1 0 0 0 0 0 0 0 0 0

Total # of neighbors = 331760
Ave neighs/atom = 78.0612
Ave special neighs/atom = 11.2626
Neighbor list builds = 0
Dangerous builds = 0
write_dump all custom pysimm.dump.tmp id q x y z vx vy vz
quit
