

################################################################################
##################################    Init    ##################################
################################################################################
units           real
atom_style      full
pair_style      lj/cut/coul/long 12.0  12.0
kspace_style    pppm 1e-4
bond_style      harmonic
angle_style     harmonic
dihedral_style  fourier
improper_style  cvff
special_bonds   amber
pair_modify     mix arithmetic
read_data       temp.lmps
  orthogonal box = (-87.6536 -87.6536 -87.6536) to (87.6536 87.6536 87.6536)
  1 by 1 by 1 MPI processor grid
  reading atoms ...
  352 atoms
  reading velocities ...
  352 velocities
  scanning bonds ...
  3 = max bonds/atom
  scanning angles ...
  6 = max angles/atom
  scanning dihedrals ...
  10 = max dihedrals/atom
  scanning impropers ...
  1 = max impropers/atom
  reading bonds ...
  381 bonds
  reading angles ...
  620 angles
  reading dihedrals ...
  918 dihedrals
  reading impropers ...
  120 impropers
  4 = max # of 1-2 neighbors
  7 = max # of 1-3 neighbors
  13 = max # of 1-4 neighbors
  16 = max # of special neighbors
  special bonds CPU = 0.000386953 secs
  read_data CPU = 0.00590611 secs
################################################################################

min_style cg
minimize 1e-06 1e-06 1000000 10000000
WARNING: Using 'neigh_modify every 1 delay 0 check yes' setting during minimization (../min.cpp:190)
PPPM initialization ...
WARNING: System is not charge neutral, net charge = 1e-05 (../kspace.cpp:313)
  using 12-bit tables for long-range coulomb (../kspace.cpp:332)
  G vector (1/distance) = 0.116368
  grid = 20 20 20
  stencil order = 5
  estimated absolute RMS force accuracy = 0.0311065
  estimated relative force accuracy = 9.36764e-05
  using double precision KISS FFT
  3d grid and FFT values/proc = 15625 8000
Neighbor list info ...
  update every 1 steps, delay 0 steps, check yes
  max neighbors/atom: 2000, page size: 100000
  master list distance cutoff = 14
  ghost atom cutoff = 14
  binsize = 7, bins = 26 26 26
  1 neighbor lists, perpetual/occasional/extra = 1 0 0
  (1) pair lj/cut/coul/long, perpetual
      attributes: half, newton on
      pair build: half/bin/newton
      stencil: half/bin/3d/newton
      bin: standard
Per MPI rank memory allocation (min/avg/max) = 15.2 | 15.2 | 15.2 Mbytes
Step Temp E_pair E_mol TotEng Press 
       0     205.6289    401.78983     519.6387    1136.5707   -3.0381581 
      51     205.6289    402.53731    242.87519    860.55468    1.6053366 
Loop time of 0.346346 on 1 procs for 51 steps with 352 atoms

99.9% CPU use with 1 MPI tasks x no OpenMP threads

Minimization stats:
  Stopping criterion = linesearch alpha is zero
  Energy initial, next-to-last, final = 
         921.428528117      645.412495042      645.412495042
  Force two-norm initial, final = 1.76652e+15 27.7061
  Force max component initial, final = 9.25114e+14 7.65464
  Final line search alpha, max atom move = 1.60271e-11 1.22682e-10
  Iterations, force evaluations = 51 151

MPI task timing breakdown:
Section |  min time  |  avg time  |  max time  |%varavg| %total
---------------------------------------------------------------
Pair    | 0.067934   | 0.067934   | 0.067934   |   0.0 | 19.61
Bond    | 0.023449   | 0.023449   | 0.023449   |   0.0 |  6.77
Kspace  | 0.25312    | 0.25312    | 0.25312    |   0.0 | 73.08
Neigh   | 0.00045586 | 0.00045586 | 0.00045586 |   0.0 |  0.13
Comm    | 7.2956e-05 | 7.2956e-05 | 7.2956e-05 |   0.0 |  0.02
Output  | 0          | 0          | 0          |   0.0 |  0.00
Modify  | 0          | 0          | 0          |   0.0 |  0.00
Other   |            | 0.001309   |            |       |  0.38

Nlocal:    352 ave 352 max 352 min
Histogram: 1 0 0 0 0 0 0 0 0 0
Nghost:    0 ave 0 max 0 min
Histogram: 1 0 0 0 0 0 0 0 0 0
Neighs:    13018 ave 13018 max 13018 min
Histogram: 1 0 0 0 0 0 0 0 0 0

Total # of neighbors = 13018
Ave neighs/atom = 36.983
Ave special neighs/atom = 10.392
Neighbor list builds = 1
Dangerous builds = 0
write_dump all custom pysimm.dump.tmp id q x y z vx vy vz
quit


################################################################################
##################################    Init    ##################################
################################################################################
units           real
atom_style      full
pair_style      lj/cut/coul/long 12.0  12.0
kspace_style    pppm 1e-4
bond_style      harmonic
angle_style     harmonic
dihedral_style  fourier
improper_style  cvff
special_bonds   amber
pair_modify     mix arithmetic
read_data       temp.lmps
  orthogonal box = (-110.437 -110.437 -110.437) to (110.437 110.437 110.437)
  1 by 1 by 1 MPI processor grid
  reading atoms ...
  387 atoms
  reading velocities ...
  387 velocities
  scanning bonds ...
  3 = max bonds/atom
  scanning angles ...
  6 = max angles/atom
  scanning dihedrals ...
  10 = max dihedrals/atom
  scanning impropers ...
  1 = max impropers/atom
  reading bonds ...
  419 bonds
  reading angles ...
  682 angles
  reading dihedrals ...
  1010 dihedrals
  reading impropers ...
  132 impropers
  4 = max # of 1-2 neighbors
  7 = max # of 1-3 neighbors
  13 = max # of 1-4 neighbors
  16 = max # of special neighbors
  special bonds CPU = 0.000408888 secs
  read_data CPU = 0.00629902 secs
################################################################################

min_style cg
minimize 1e-06 1e-06 1000000 10000000
WARNING: Using 'neigh_modify every 1 delay 0 check yes' setting during minimization (../min.cpp:190)
PPPM initialization ...
WARNING: System is not charge neutral, net charge = 1.1e-05 (../kspace.cpp:313)
  using 12-bit tables for long-range coulomb (../kspace.cpp:332)
  G vector (1/distance) = 0.112673
  grid = 24 24 24
  stencil order = 5
  estimated absolute RMS force accuracy = 0.0260659
  estimated relative force accuracy = 7.84967e-05
  using double precision KISS FFT
  3d grid and FFT values/proc = 24389 13824
Neighbor list info ...
  update every 1 steps, delay 0 steps, check yes
  max neighbors/atom: 2000, page size: 100000
  master list distance cutoff = 14
  ghost atom cutoff = 14
  binsize = 7, bins = 32 32 32
  1 neighbor lists, perpetual/occasional/extra = 1 0 0
  (1) pair lj/cut/coul/long, perpetual
      attributes: half, newton on
      pair build: half/bin/newton
      stencil: half/bin/3d/newton
      bin: standard
Per MPI rank memory allocation (min/avg/max) = 16.11 | 16.11 | 16.11 Mbytes
Step Temp E_pair E_mol TotEng Press 
       0    1680.8316    446.17059    633.73675    3013.8599    3.9397553 
       2    1680.8316    446.17059    633.39264    3013.5158     3.939659 
Loop time of 0.644422 on 1 procs for 2 steps with 387 atoms

100.1% CPU use with 1 MPI tasks x no OpenMP threads

Minimization stats:
  Stopping criterion = energy tolerance
  Energy initial, next-to-last, final = 
          1079.9073416      1079.56323332      1079.56323332
  Force two-norm initial, final = 1.45396e+15 3.92712e+13
  Force max component initial, final = 1.01904e+15 2.27149e+13
  Final line search alpha, max atom move = 3.93239e-29 8.93237e-16
  Iterations, force evaluations = 2 161

MPI task timing breakdown:
Section |  min time  |  avg time  |  max time  |%varavg| %total
---------------------------------------------------------------
Pair    | 0.095772   | 0.095772   | 0.095772   |   0.0 | 14.86
Bond    | 0.029132   | 0.029132   | 0.029132   |   0.0 |  4.52
Kspace  | 0.51846    | 0.51846    | 0.51846    |   0.0 | 80.45
Neigh   | 0          | 0          | 0          |   0.0 |  0.00
Comm    | 7.4863e-05 | 7.4863e-05 | 7.4863e-05 |   0.0 |  0.01
Output  | 0          | 0          | 0          |   0.0 |  0.00
Modify  | 0          | 0          | 0          |   0.0 |  0.00
Other   |            | 0.0009847  |            |       |  0.15

Nlocal:    387 ave 387 max 387 min
Histogram: 1 0 0 0 0 0 0 0 0 0
Nghost:    0 ave 0 max 0 min
Histogram: 1 0 0 0 0 0 0 0 0 0
Neighs:    15481 ave 15481 max 15481 min
Histogram: 1 0 0 0 0 0 0 0 0 0

Total # of neighbors = 15481
Ave neighs/atom = 40.0026
Ave special neighs/atom = 10.3979
Neighbor list builds = 0
Dangerous builds = 0
write_dump all custom pysimm.dump.tmp id q x y z vx vy vz
quit


################################################################################
##################################    Init    ##################################
################################################################################
units           real
atom_style      full
pair_style      lj/cut/coul/long 12.0  12.0
kspace_style    pppm 1e-4
bond_style      harmonic
angle_style     harmonic
dihedral_style  fourier
improper_style  cvff
special_bonds   amber
pair_modify     mix arithmetic
read_data       temp.lmps
  orthogonal box = (-114.001 -114.001 -114.001) to (114.001 114.001 114.001)
  1 by 1 by 1 MPI processor grid
  reading atoms ...
  422 atoms
  reading velocities ...
  422 velocities
  scanning bonds ...
  3 = max bonds/atom
  scanning angles ...
  6 = max angles/atom
  scanning dihedrals ...
  10 = max dihedrals/atom
  scanning impropers ...
  1 = max impropers/atom
  reading bonds ...
  457 bonds
  reading angles ...
  744 angles
  reading dihedrals ...
  1102 dihedrals
  reading impropers ...
  144 impropers
  4 = max # of 1-2 neighbors
  7 = max # of 1-3 neighbors
  13 = max # of 1-4 neighbors
  16 = max # of special neighbors
  special bonds CPU = 0.000435829 secs
  read_data CPU = 0.00656199 secs
################################################################################

min_style cg
minimize 1e-06 1e-06 1000000 10000000
WARNING: Using 'neigh_modify every 1 delay 0 check yes' setting during minimization (../min.cpp:190)
PPPM initialization ...
WARNING: System is not charge neutral, net charge = 1.2e-05 (../kspace.cpp:313)
  using 12-bit tables for long-range coulomb (../kspace.cpp:332)
  G vector (1/distance) = 0.110288
  grid = 24 24 24
  stencil order = 5
  estimated absolute RMS force accuracy = 0.0280291
  estimated relative force accuracy = 8.44089e-05
  using double precision KISS FFT
  3d grid and FFT values/proc = 24389 13824
Neighbor list info ...
  update every 1 steps, delay 0 steps, check yes
  max neighbors/atom: 2000, page size: 100000
  master list distance cutoff = 14
  ghost atom cutoff = 14
  binsize = 7, bins = 33 33 33
  1 neighbor lists, perpetual/occasional/extra = 1 0 0
  (1) pair lj/cut/coul/long, perpetual
      attributes: half, newton on
      pair build: half/bin/newton
      stencil: half/bin/3d/newton
      bin: standard
Per MPI rank memory allocation (min/avg/max) = 16.13 | 16.13 | 16.13 Mbytes
Step Temp E_pair E_mol TotEng Press 
       0    1746.5151    481.06328    595.41581    3268.2176    5.3315916 
       5    1746.5151    481.06328    592.42827      3265.23    5.3315615 
Loop time of 0.711038 on 1 procs for 5 steps with 422 atoms

100.0% CPU use with 1 MPI tasks x no OpenMP threads

Minimization stats:
  Stopping criterion = energy tolerance
  Energy initial, next-to-last, final = 
         1076.47909547      1073.49189694      1073.49154736
  Force two-norm initial, final = 4.28375e+15 161702
  Force max component initial, final = 3.39728e+15 116774
  Final line search alpha, max atom move = 4.17264e-15 4.87254e-10
  Iterations, force evaluations = 5 179

MPI task timing breakdown:
Section |  min time  |  avg time  |  max time  |%varavg| %total
---------------------------------------------------------------
Pair    | 0.1144     | 0.1144     | 0.1144     |   0.0 | 16.09
Bond    | 0.033612   | 0.033612   | 0.033612   |   0.0 |  4.73
Kspace  | 0.56178    | 0.56178    | 0.56178    |   0.0 | 79.01
Neigh   | 0          | 0          | 0          |   0.0 |  0.00
Comm    | 7.8678e-05 | 7.8678e-05 | 7.8678e-05 |   0.0 |  0.01
Output  | 0          | 0          | 0          |   0.0 |  0.00
Modify  | 0          | 0          | 0          |   0.0 |  0.00
Other   |            | 0.001171   |            |       |  0.16

Nlocal:    422 ave 422 max 422 min
Histogram: 1 0 0 0 0 0 0 0 0 0
Nghost:    0 ave 0 max 0 min
Histogram: 1 0 0 0 0 0 0 0 0 0
Neighs:    18036 ave 18036 max 18036 min
Histogram: 1 0 0 0 0 0 0 0 0 0

Total # of neighbors = 18036
Ave neighs/atom = 42.7393
Ave special neighs/atom = 10.4028
Neighbor list builds = 0
Dangerous builds = 0
write_dump all custom pysimm.dump.tmp id q x y z vx vy vz
quit


################################################################################
##################################    Init    ##################################
################################################################################
units           real
atom_style      full
pair_style      lj/cut/coul/long 12.0  12.0
kspace_style    pppm 1e-4
bond_style      harmonic
angle_style     harmonic
dihedral_style  fourier
improper_style  cvff
special_bonds   amber
pair_modify     mix arithmetic
read_data       temp.lmps
  orthogonal box = (-117.356 -117.356 -117.356) to (117.356 117.356 117.356)
  1 by 1 by 1 MPI processor grid
  reading atoms ...
  457 atoms
  reading velocities ...
  457 velocities
  scanning bonds ...
  3 = max bonds/atom
  scanning angles ...
  6 = max angles/atom
  scanning dihedrals ...
  10 = max dihedrals/atom
  scanning impropers ...
  1 = max impropers/atom
  reading bonds ...
  495 bonds
  reading angles ...
  806 angles
  reading dihedrals ...
  1194 dihedrals
  reading impropers ...
  156 impropers
  4 = max # of 1-2 neighbors
  7 = max # of 1-3 neighbors
  13 = max # of 1-4 neighbors
  16 = max # of special neighbors
  special bonds CPU = 0.000451088 secs
  read_data CPU = 0.00775599 secs
################################################################################

min_style cg
minimize 1e-06 1e-06 1000000 10000000
WARNING: Using 'neigh_modify every 1 delay 0 check yes' setting during minimization (../min.cpp:190)
PPPM initialization ...
WARNING: System is not charge neutral, net charge = 1.3e-05 (../kspace.cpp:313)
  using 12-bit tables for long-range coulomb (../kspace.cpp:332)
  G vector (1/distance) = 0.10813
  grid = 24 24 24
  stencil order = 5
  estimated absolute RMS force accuracy = 0.0298991
  estimated relative force accuracy = 9.00402e-05
  using double precision KISS FFT
  3d grid and FFT values/proc = 24389 13824
Neighbor list info ...
  update every 1 steps, delay 0 steps, check yes
  max neighbors/atom: 2000, page size: 100000
  master list distance cutoff = 14
  ghost atom cutoff = 14
  binsize = 7, bins = 34 34 34
  1 neighbor lists, perpetual/occasional/extra = 1 0 0
  (1) pair lj/cut/coul/long, perpetual
      attributes: half, newton on
      pair build: half/bin/newton
      stencil: half/bin/3d/newton
      bin: standard
Per MPI rank memory allocation (min/avg/max) = 16.15 | 16.15 | 16.15 Mbytes
Step Temp E_pair E_mol TotEng Press 
       0    1994.9475    511.49497    666.69212    3889.8182    6.2842311 
      27    1994.9475    511.58011    386.63634    3609.8476    8.5961041 
Loop time of 0.696256 on 1 procs for 27 steps with 457 atoms

98.9% CPU use with 1 MPI tasks x no OpenMP threads

Minimization stats:
  Stopping criterion = linesearch alpha is zero
  Energy initial, next-to-last, final = 
         1178.18708922       898.21644788       898.21644788
  Force two-norm initial, final = 7.18406e+15 41.3287
  Force max component initial, final = 4.00696e+15 13.7606
  Final line search alpha, max atom move = 5.75165e-12 7.91461e-11
  Iterations, force evaluations = 27 164

MPI task timing breakdown:
Section |  min time  |  avg time  |  max time  |%varavg| %total
---------------------------------------------------------------
Pair    | 0.14556    | 0.14556    | 0.14556    |   0.0 | 20.91
Bond    | 0.033959   | 0.033959   | 0.033959   |   0.0 |  4.88
Kspace  | 0.51439    | 0.51439    | 0.51439    |   0.0 | 73.88
Neigh   | 0.00084805 | 0.00084805 | 0.00084805 |   0.0 |  0.12
Comm    | 8.4877e-05 | 8.4877e-05 | 8.4877e-05 |   0.0 |  0.01
Output  | 0          | 0          | 0          |   0.0 |  0.00
Modify  | 0          | 0          | 0          |   0.0 |  0.00
Other   |            | 0.00141    |            |       |  0.20

Nlocal:    457 ave 457 max 457 min
Histogram: 1 0 0 0 0 0 0 0 0 0
Nghost:    0 ave 0 max 0 min
Histogram: 1 0 0 0 0 0 0 0 0 0
Neighs:    25174 ave 25174 max 25174 min
Histogram: 1 0 0 0 0 0 0 0 0 0

Total # of neighbors = 25174
Ave neighs/atom = 55.0853
Ave special neighs/atom = 10.407
Neighbor list builds = 1
Dangerous builds = 0
write_dump all custom pysimm.dump.tmp id q x y z vx vy vz
quit


################################################################################
##################################    Init    ##################################
################################################################################
units           real
atom_style      full
pair_style      lj/cut/coul/long 12.0  12.0
kspace_style    pppm 1e-4
bond_style      harmonic
angle_style     harmonic
dihedral_style  fourier
improper_style  cvff
special_bonds   amber
pair_modify     mix arithmetic
read_data       temp.lmps
  orthogonal box = (-120.53 -120.53 -120.53) to (120.53 120.53 120.53)
  1 by 1 by 1 MPI processor grid
  reading atoms ...
  492 atoms
  reading velocities ...
  492 velocities
  scanning bonds ...
  3 = max bonds/atom
  scanning angles ...
  6 = max angles/atom
  scanning dihedrals ...
  10 = max dihedrals/atom
  scanning impropers ...
  1 = max impropers/atom
  reading bonds ...
  533 bonds
  reading angles ...
  868 angles
  reading dihedrals ...
  1286 dihedrals
  reading impropers ...
  168 impropers
  4 = max # of 1-2 neighbors
  7 = max # of 1-3 neighbors
  13 = max # of 1-4 neighbors
  16 = max # of special neighbors
  special bonds CPU = 0.000534058 secs
  read_data CPU = 0.00786209 secs
################################################################################

min_style cg
minimize 1e-06 1e-06 1000000 10000000
WARNING: Using 'neigh_modify every 1 delay 0 check yes' setting during minimization (../min.cpp:190)
PPPM initialization ...
WARNING: System is not charge neutral, net charge = 1.4e-05 (../kspace.cpp:313)
  using 12-bit tables for long-range coulomb (../kspace.cpp:332)
  G vector (1/distance) = 0.106164
  grid = 24 24 24
  stencil order = 5
  estimated absolute RMS force accuracy = 0.0316863
  estimated relative force accuracy = 9.54224e-05
  using double precision KISS FFT
  3d grid and FFT values/proc = 24389 13824
Neighbor list info ...
  update every 1 steps, delay 0 steps, check yes
  max neighbors/atom: 2000, page size: 100000
  master list distance cutoff = 14
  ghost atom cutoff = 14
  binsize = 7, bins = 35 35 35
  1 neighbor lists, perpetual/occasional/extra = 1 0 0
  (1) pair lj/cut/coul/long, perpetual
      attributes: half, newton on
      pair build: half/bin/newton
      stencil: half/bin/3d/newton
      bin: standard
Per MPI rank memory allocation (min/avg/max) = 16.17 | 16.17 | 16.17 Mbytes
Step Temp E_pair E_mol TotEng Press 
       0     1720.618    549.48629    710.50735    3778.2519    6.3965508 
      18     1720.618    546.01086    445.38588     3509.655    7.8937504 
Loop time of 0.752327 on 1 procs for 18 steps with 492 atoms

98.6% CPU use with 1 MPI tasks x no OpenMP threads

Minimization stats:
  Stopping criterion = linesearch alpha is zero
  Energy initial, next-to-last, final = 
         1259.99363389      991.396732922      991.396732922
  Force two-norm initial, final = 2.14994e+15 38.4319
  Force max component initial, final = 1.39849e+15 11.3086
  Final line search alpha, max atom move = 6.21468e-12 7.02796e-11
  Iterations, force evaluations = 18 160

MPI task timing breakdown:
Section |  min time  |  avg time  |  max time  |%varavg| %total
---------------------------------------------------------------
Pair    | 0.17268    | 0.17268    | 0.17268    |   0.0 | 22.95
Bond    | 0.036702   | 0.036702   | 0.036702   |   0.0 |  4.88
Kspace  | 0.54048    | 0.54048    | 0.54048    |   0.0 | 71.84
Neigh   | 0.00093603 | 0.00093603 | 0.00093603 |   0.0 |  0.12
Comm    | 0.00010538 | 0.00010538 | 0.00010538 |   0.0 |  0.01
Output  | 0          | 0          | 0          |   0.0 |  0.00
Modify  | 0          | 0          | 0          |   0.0 |  0.00
Other   |            | 0.001429   |            |       |  0.19

Nlocal:    492 ave 492 max 492 min
Histogram: 1 0 0 0 0 0 0 0 0 0
Nghost:    0 ave 0 max 0 min
Histogram: 1 0 0 0 0 0 0 0 0 0
Neighs:    27559 ave 27559 max 27559 min
Histogram: 1 0 0 0 0 0 0 0 0 0

Total # of neighbors = 27559
Ave neighs/atom = 56.0142
Ave special neighs/atom = 10.4106
Neighbor list builds = 1
Dangerous builds = 0
write_dump all custom pysimm.dump.tmp id q x y z vx vy vz
quit


################################################################################
##################################    Init    ##################################
################################################################################
units           real
atom_style      full
pair_style      lj/cut/coul/long 12.0  12.0
kspace_style    pppm 1e-4
bond_style      harmonic
angle_style     harmonic
dihedral_style  fourier
improper_style  cvff
special_bonds   amber
pair_modify     mix arithmetic
read_data       temp.lmps
  orthogonal box = (-123.544 -123.544 -123.544) to (123.544 123.544 123.544)
  1 by 1 by 1 MPI processor grid
  reading atoms ...
  527 atoms
  reading velocities ...
  527 velocities
  scanning bonds ...
  3 = max bonds/atom
  scanning angles ...
  6 = max angles/atom
  scanning dihedrals ...
  10 = max dihedrals/atom
  scanning impropers ...
  1 = max impropers/atom
  reading bonds ...
  571 bonds
  reading angles ...
  930 angles
  reading dihedrals ...
  1378 dihedrals
  reading impropers ...
  180 impropers
  4 = max # of 1-2 neighbors
  7 = max # of 1-3 neighbors
  13 = max # of 1-4 neighbors
  16 = max # of special neighbors
  special bonds CPU = 0.00050807 secs
  read_data CPU = 0.00754499 secs
################################################################################

min_style cg
minimize 1e-06 1e-06 1000000 10000000
WARNING: Using 'neigh_modify every 1 delay 0 check yes' setting during minimization (../min.cpp:190)
PPPM initialization ...
WARNING: System is not charge neutral, net charge = 1.5e-05 (../kspace.cpp:313)
  using 12-bit tables for long-range coulomb (../kspace.cpp:332)
  G vector (1/distance) = 0.104354
  grid = 24 24 24
  stencil order = 5
  estimated absolute RMS force accuracy = 0.03339
  estimated relative force accuracy = 0.000100553
  using double precision KISS FFT
  3d grid and FFT values/proc = 24389 13824
Neighbor list info ...
  update every 1 steps, delay 0 steps, check yes
  max neighbors/atom: 2000, page size: 100000
  master list distance cutoff = 14
  ghost atom cutoff = 14
  binsize = 7, bins = 36 36 36
  1 neighbor lists, perpetual/occasional/extra = 1 0 0
  (1) pair lj/cut/coul/long, perpetual
      attributes: half, newton on
      pair build: half/bin/newton
      stencil: half/bin/3d/newton
      bin: standard
Per MPI rank memory allocation (min/avg/max) = 16.19 | 16.19 | 16.19 Mbytes
Step Temp E_pair E_mol TotEng Press 
       0    1225.6118    587.34278    712.96758    3221.9546    3.2686922 
       4    1225.6118    587.34278    710.29113    3219.2781    3.2686449 
Loop time of 0.41545 on 1 procs for 4 steps with 527 atoms

100.1% CPU use with 1 MPI tasks x no OpenMP threads

Minimization stats:
  Stopping criterion = energy tolerance
  Energy initial, next-to-last, final = 
         1300.31036056      1297.63396808      1297.63391207
  Force two-norm initial, final = 2.33422e+15 796.864
  Force max component initial, final = 1.7179e+15 463.103
  Final line search alpha, max atom move = 7.50433e-11 3.47528e-08
  Iterations, force evaluations = 4 88

MPI task timing breakdown:
Section |  min time  |  avg time  |  max time  |%varavg| %total
---------------------------------------------------------------
Pair    | 0.095434   | 0.095434   | 0.095434   |   0.0 | 22.97
Bond    | 0.021463   | 0.021463   | 0.021463   |   0.0 |  5.17
Kspace  | 0.29773    | 0.29773    | 0.29773    |   0.0 | 71.67
Neigh   | 0          | 0          | 0          |   0.0 |  0.00
Comm    | 4.1246e-05 | 4.1246e-05 | 4.1246e-05 |   0.0 |  0.01
Output  | 0          | 0          | 0          |   0.0 |  0.00
Modify  | 0          | 0          | 0          |   0.0 |  0.00
Other   |            | 0.0007775  |            |       |  0.19

Nlocal:    527 ave 527 max 527 min
Histogram: 1 0 0 0 0 0 0 0 0 0
Nghost:    0 ave 0 max 0 min
Histogram: 1 0 0 0 0 0 0 0 0 0
Neighs:    30679 ave 30679 max 30679 min
Histogram: 1 0 0 0 0 0 0 0 0 0

Total # of neighbors = 30679
Ave neighs/atom = 58.2144
Ave special neighs/atom = 10.4137
Neighbor list builds = 0
Dangerous builds = 0
write_dump all custom pysimm.dump.tmp id q x y z vx vy vz
quit


################################################################################
##################################    Init    ##################################
################################################################################
units           real
atom_style      full
pair_style      lj/cut/coul/long 12.0  12.0
kspace_style    pppm 1e-4
bond_style      harmonic
angle_style     harmonic
dihedral_style  fourier
improper_style  cvff
special_bonds   amber
pair_modify     mix arithmetic
read_data       temp.lmps
  orthogonal box = (-126.418 -126.418 -126.418) to (126.418 126.418 126.418)
  1 by 1 by 1 MPI processor grid
  reading atoms ...
  562 atoms
  reading velocities ...
  562 velocities
  scanning bonds ...
  3 = max bonds/atom
  scanning angles ...
  6 = max angles/atom
  scanning dihedrals ...
  10 = max dihedrals/atom
  scanning impropers ...
  1 = max impropers/atom
  reading bonds ...
  609 bonds
  reading angles ...
  992 angles
  reading dihedrals ...
  1470 dihedrals
  reading impropers ...
  192 impropers
  4 = max # of 1-2 neighbors
  7 = max # of 1-3 neighbors
  13 = max # of 1-4 neighbors
  16 = max # of special neighbors
  special bonds CPU = 0.00059104 secs
  read_data CPU = 0.00876904 secs
################################################################################

min_style cg
minimize 1e-06 1e-06 1000000 10000000
WARNING: Using 'neigh_modify every 1 delay 0 check yes' setting during minimization (../min.cpp:190)
PPPM initialization ...
WARNING: System is not charge neutral, net charge = 1.6e-05 (../kspace.cpp:313)
  using 12-bit tables for long-range coulomb (../kspace.cpp:332)
  G vector (1/distance) = 0.102682
  grid = 24 24 24
  stencil order = 5
  estimated absolute RMS force accuracy = 0.0350206
  estimated relative force accuracy = 0.000105464
  using double precision KISS FFT
  3d grid and FFT values/proc = 24389 13824
Neighbor list info ...
  update every 1 steps, delay 0 steps, check yes
  max neighbors/atom: 2000, page size: 100000
  master list distance cutoff = 14
  ghost atom cutoff = 14
  binsize = 7, bins = 37 37 37
  1 neighbor lists, perpetual/occasional/extra = 1 0 0
  (1) pair lj/cut/coul/long, perpetual
      attributes: half, newton on
      pair build: half/bin/newton
      stencil: half/bin/3d/newton
      bin: standard
Per MPI rank memory allocation (min/avg/max) = 16.22 | 16.22 | 16.22 Mbytes
Step Temp E_pair E_mol TotEng Press 
       0    1296.0944    632.47171    767.93755     3567.783    4.2113743 
       3    1296.0944    632.47171    764.49648     3564.342     4.211366 
Loop time of 0.592859 on 1 procs for 3 steps with 562 atoms

100.0% CPU use with 1 MPI tasks x no OpenMP threads

Minimization stats:
  Stopping criterion = energy tolerance
  Energy initial, next-to-last, final = 
         1400.40925525      1396.96845689      1396.96818637
  Force two-norm initial, final = 5.10392e+14 1.08844e+06
  Force max component initial, final = 3.57968e+14 746334
  Final line search alpha, max atom move = 2.84346e-16 2.12217e-10
  Iterations, force evaluations = 3 108

MPI task timing breakdown:
Section |  min time  |  avg time  |  max time  |%varavg| %total
---------------------------------------------------------------
Pair    | 0.18457    | 0.18457    | 0.18457    |   0.0 | 31.13
Bond    | 0.02923    | 0.02923    | 0.02923    |   0.0 |  4.93
Kspace  | 0.37801    | 0.37801    | 0.37801    |   0.0 | 63.76
Neigh   | 0          | 0          | 0          |   0.0 |  0.00
Comm    | 7.6771e-05 | 7.6771e-05 | 7.6771e-05 |   0.0 |  0.01
Output  | 0          | 0          | 0          |   0.0 |  0.00
Modify  | 0          | 0          | 0          |   0.0 |  0.00
Other   |            | 0.0009701  |            |       |  0.16

Nlocal:    562 ave 562 max 562 min
Histogram: 1 0 0 0 0 0 0 0 0 0
Nghost:    0 ave 0 max 0 min
Histogram: 1 0 0 0 0 0 0 0 0 0
Neighs:    46692 ave 46692 max 46692 min
Histogram: 1 0 0 0 0 0 0 0 0 0

Total # of neighbors = 46692
Ave neighs/atom = 83.0819
Ave special neighs/atom = 10.4164
Neighbor list builds = 0
Dangerous builds = 0
write_dump all custom pysimm.dump.tmp id q x y z vx vy vz
quit


################################################################################
##################################    Init    ##################################
################################################################################
units           real
atom_style      full
pair_style      lj/cut/coul/long 12.0  12.0
kspace_style    pppm 1e-4
bond_style      harmonic
angle_style     harmonic
dihedral_style  fourier
improper_style  cvff
special_bonds   amber
pair_modify     mix arithmetic
read_data       temp.lmps
  orthogonal box = (-129.167 -129.167 -129.167) to (129.167 129.167 129.167)
  1 by 1 by 1 MPI processor grid
  reading atoms ...
  597 atoms
  reading velocities ...
  597 velocities
  scanning bonds ...
  3 = max bonds/atom
  scanning angles ...
  6 = max angles/atom
  scanning dihedrals ...
  10 = max dihedrals/atom
  scanning impropers ...
  1 = max impropers/atom
  reading bonds ...
  647 bonds
  reading angles ...
  1054 angles
  reading dihedrals ...
  1562 dihedrals
  reading impropers ...
  204 impropers
  4 = max # of 1-2 neighbors
  7 = max # of 1-3 neighbors
  13 = max # of 1-4 neighbors
  16 = max # of special neighbors
  special bonds CPU = 0.000515938 secs
  read_data CPU = 0.00792098 secs
################################################################################

min_style cg
minimize 1e-06 1e-06 1000000 10000000
WARNING: Using 'neigh_modify every 1 delay 0 check yes' setting during minimization (../min.cpp:190)
PPPM initialization ...
WARNING: System is not charge neutral, net charge = 1.7e-05 (../kspace.cpp:313)
  using 12-bit tables for long-range coulomb (../kspace.cpp:332)
  G vector (1/distance) = 0.10113
  grid = 24 24 24
  stencil order = 5
  estimated absolute RMS force accuracy = 0.0365837
  estimated relative force accuracy = 0.000110171
  using double precision KISS FFT
  3d grid and FFT values/proc = 24389 13824
Neighbor list info ...
  update every 1 steps, delay 0 steps, check yes
  max neighbors/atom: 2000, page size: 100000
  master list distance cutoff = 14
  ghost atom cutoff = 14
  binsize = 7, bins = 37 37 37
  1 neighbor lists, perpetual/occasional/extra = 1 0 0
  (1) pair lj/cut/coul/long, perpetual
      attributes: half, newton on
      pair build: half/bin/newton
      stencil: half/bin/3d/newton
      bin: standard
Per MPI rank memory allocation (min/avg/max) = 16.22 | 16.22 | 16.22 Mbytes
Step Temp E_pair E_mol TotEng Press 
       0    1074.0612    690.98211    770.83308    3369.9523    3.5126928 
       5    1074.0612    690.98211    769.89783    3369.0171    3.5127467 
Loop time of 1.7054 on 1 procs for 5 steps with 597 atoms

100.0% CPU use with 1 MPI tasks x no OpenMP threads

Minimization stats:
  Stopping criterion = energy tolerance
  Energy initial, next-to-last, final = 
         1461.81518433      1460.87993693      1460.87993693
  Force two-norm initial, final = 2.34313e+15 6.11449e+12
  Force max component initial, final = 1.80478e+15 3.62607e+12
  Final line search alpha, max atom move = 3.91908e-28 1.42109e-15
  Iterations, force evaluations = 5 365

MPI task timing breakdown:
Section |  min time  |  avg time  |  max time  |%varavg| %total
---------------------------------------------------------------
Pair    | 0.42201    | 0.42201    | 0.42201    |   0.0 | 24.75
Bond    | 0.098188   | 0.098188   | 0.098188   |   0.0 |  5.76
Kspace  | 1.182      | 1.182      | 1.182      |   0.0 | 69.31
Neigh   | 0          | 0          | 0          |   0.0 |  0.00
Comm    | 0.00016618 | 0.00016618 | 0.00016618 |   0.0 |  0.01
Output  | 0          | 0          | 0          |   0.0 |  0.00
Modify  | 0          | 0          | 0          |   0.0 |  0.00
Other   |            | 0.003022   |            |       |  0.18

Nlocal:    597 ave 597 max 597 min
Histogram: 1 0 0 0 0 0 0 0 0 0
Nghost:    0 ave 0 max 0 min
Histogram: 1 0 0 0 0 0 0 0 0 0
Neighs:    33547 ave 33547 max 33547 min
Histogram: 1 0 0 0 0 0 0 0 0 0

Total # of neighbors = 33547
Ave neighs/atom = 56.1926
Ave special neighs/atom = 10.4188
Neighbor list builds = 0
Dangerous builds = 0
write_dump all custom pysimm.dump.tmp id q x y z vx vy vz
quit


################################################################################
##################################    Init    ##################################
################################################################################
units           real
atom_style      full
pair_style      lj/cut/coul/long 12.0  12.0
kspace_style    pppm 1e-4
bond_style      harmonic
angle_style     harmonic
dihedral_style  fourier
improper_style  cvff
special_bonds   amber
pair_modify     mix arithmetic
read_data       temp.lmps
  orthogonal box = (-131.804 -131.804 -131.804) to (131.804 131.804 131.804)
  1 by 1 by 1 MPI processor grid
  reading atoms ...
  632 atoms
  reading velocities ...
  632 velocities
  scanning bonds ...
  3 = max bonds/atom
  scanning angles ...
  6 = max angles/atom
  scanning dihedrals ...
  10 = max dihedrals/atom
  scanning impropers ...
  1 = max impropers/atom
  reading bonds ...
  685 bonds
  reading angles ...
  1116 angles
  reading dihedrals ...
  1654 dihedrals
  reading impropers ...
  216 impropers
  4 = max # of 1-2 neighbors
  7 = max # of 1-3 neighbors
  13 = max # of 1-4 neighbors
  16 = max # of special neighbors
  special bonds CPU = 0.000599861 secs
  read_data CPU = 0.00866389 secs
################################################################################

min_style cg
minimize 1e-06 1e-06 1000000 10000000
WARNING: Using 'neigh_modify every 1 delay 0 check yes' setting during minimization (../min.cpp:190)
PPPM initialization ...
WARNING: System is not charge neutral, net charge = 1.8e-05 (../kspace.cpp:313)
  using 12-bit tables for long-range coulomb (../kspace.cpp:332)
  G vector (1/distance) = 0.102617
  grid = 25 25 25
  stencil order = 5
  estimated absolute RMS force accuracy = 0.0349658
  estimated relative force accuracy = 0.000105298
  using double precision KISS FFT
  3d grid and FFT values/proc = 27000 15625
Neighbor list info ...
  update every 1 steps, delay 0 steps, check yes
  max neighbors/atom: 2000, page size: 100000
  master list distance cutoff = 14
  ghost atom cutoff = 14
  binsize = 7, bins = 38 38 38
  1 neighbor lists, perpetual/occasional/extra = 1 0 0
  (1) pair lj/cut/coul/long, perpetual
      attributes: half, newton on
      pair build: half/bin/newton
      stencil: half/bin/3d/newton
      bin: standard
Per MPI rank memory allocation (min/avg/max) = 16.5 | 16.5 | 16.5 Mbytes
Step Temp E_pair E_mol TotEng Press 
       0    1150.8139    694.21801    797.24125    3656.0149     3.274565 
       4    1150.8139    694.21801    794.82477    3653.5984    3.2741362 
Loop time of 0.454545 on 1 procs for 4 steps with 632 atoms

100.1% CPU use with 1 MPI tasks x no OpenMP threads

Minimization stats:
  Stopping criterion = energy tolerance
  Energy initial, next-to-last, final = 
         1491.45926409      1489.04279603      1489.04277807
  Force two-norm initial, final = 8.21287e+15 732.53
  Force max component initial, final = 4.69814e+15 402.486
  Final line search alpha, max atom move = 4.30055e-10 1.73091e-07
  Iterations, force evaluations = 4 86

MPI task timing breakdown:
Section |  min time  |  avg time  |  max time  |%varavg| %total
---------------------------------------------------------------
Pair    | 0.10681    | 0.10681    | 0.10681    |   0.0 | 23.50
Bond    | 0.02573    | 0.02573    | 0.02573    |   0.0 |  5.66
Kspace  | 0.32109    | 0.32109    | 0.32109    |   0.0 | 70.64
Neigh   | 0          | 0          | 0          |   0.0 |  0.00
Comm    | 3.2425e-05 | 3.2425e-05 | 3.2425e-05 |   0.0 |  0.01
Output  | 0          | 0          | 0          |   0.0 |  0.00
Modify  | 0          | 0          | 0          |   0.0 |  0.00
Other   |            | 0.0008838  |            |       |  0.19

Nlocal:    632 ave 632 max 632 min
Histogram: 1 0 0 0 0 0 0 0 0 0
Nghost:    0 ave 0 max 0 min
Histogram: 1 0 0 0 0 0 0 0 0 0
Neighs:    34786 ave 34786 max 34786 min
Histogram: 1 0 0 0 0 0 0 0 0 0

Total # of neighbors = 34786
Ave neighs/atom = 55.0411
Ave special neighs/atom = 10.4209
Neighbor list builds = 0
Dangerous builds = 0
write_dump all custom pysimm.dump.tmp id q x y z vx vy vz
quit


################################################################################
##################################    Init    ##################################
################################################################################
units           real
atom_style      full
pair_style      lj/cut/coul/long 12.0  12.0
kspace_style    pppm 1e-4
bond_style      harmonic
angle_style     harmonic
dihedral_style  fourier
improper_style  cvff
special_bonds   amber
pair_modify     mix arithmetic
read_data       temp.lmps
  orthogonal box = (-134.339 -134.339 -134.339) to (134.339 134.339 134.339)
  1 by 1 by 1 MPI processor grid
  reading atoms ...
  667 atoms
  reading velocities ...
  667 velocities
  scanning bonds ...
  3 = max bonds/atom
  scanning angles ...
  6 = max angles/atom
  scanning dihedrals ...
  10 = max dihedrals/atom
  scanning impropers ...
  1 = max impropers/atom
  reading bonds ...
  723 bonds
  reading angles ...
  1178 angles
  reading dihedrals ...
  1746 dihedrals
  reading impropers ...
  228 impropers
  4 = max # of 1-2 neighbors
  7 = max # of 1-3 neighbors
  13 = max # of 1-4 neighbors
  16 = max # of special neighbors
  special bonds CPU = 0.00062108 secs
  read_data CPU = 0.00855803 secs
################################################################################

min_style cg
minimize 1e-06 1e-06 1000000 10000000
WARNING: Using 'neigh_modify every 1 delay 0 check yes' setting during minimization (../min.cpp:190)
PPPM initialization ...
WARNING: System is not charge neutral, net charge = 1.9e-05 (../kspace.cpp:313)
  using 12-bit tables for long-range coulomb (../kspace.cpp:332)
  G vector (1/distance) = 0.101242
  grid = 25 25 25
  stencil order = 5
  estimated absolute RMS force accuracy = 0.0363515
  estimated relative force accuracy = 0.000109471
  using double precision KISS FFT
  3d grid and FFT values/proc = 27000 15625
Neighbor list info ...
  update every 1 steps, delay 0 steps, check yes
  max neighbors/atom: 2000, page size: 100000
  master list distance cutoff = 14
  ghost atom cutoff = 14
  binsize = 7, bins = 39 39 39
  1 neighbor lists, perpetual/occasional/extra = 1 0 0
  (1) pair lj/cut/coul/long, perpetual
      attributes: half, newton on
      pair build: half/bin/newton
      stencil: half/bin/3d/newton
      bin: standard
Per MPI rank memory allocation (min/avg/max) = 16.52 | 16.52 | 16.52 Mbytes
Step Temp E_pair E_mol TotEng Press 
       0    1047.2825    734.63635    867.22933    3680.9512    3.0915295 
       3    1047.2825    734.63635    863.91924    3677.6411    3.0918121 
Loop time of 0.428442 on 1 procs for 3 steps with 667 atoms

100.1% CPU use with 1 MPI tasks x no OpenMP threads

Minimization stats:
  Stopping criterion = energy tolerance
  Energy initial, next-to-last, final = 
         1601.86567639      1598.55611639      1598.55558584
  Force two-norm initial, final = 2.31368e+15 4564.22
  Force max component initial, final = 1.42406e+15 3420.97
  Final line search alpha, max atom move = 4.29493e-11 1.46929e-07
  Iterations, force evaluations = 3 65

MPI task timing breakdown:
Section |  min time  |  avg time  |  max time  |%varavg| %total
---------------------------------------------------------------
Pair    | 0.16466    | 0.16466    | 0.16466    |   0.0 | 38.43
Bond    | 0.020719   | 0.020719   | 0.020719   |   0.0 |  4.84
Kspace  | 0.24233    | 0.24233    | 0.24233    |   0.0 | 56.56
Neigh   | 0          | 0          | 0          |   0.0 |  0.00
Comm    | 3.0518e-05 | 3.0518e-05 | 3.0518e-05 |   0.0 |  0.01
Output  | 0          | 0          | 0          |   0.0 |  0.00
Modify  | 0          | 0          | 0          |   0.0 |  0.00
Other   |            | 0.0007086  |            |       |  0.17

Nlocal:    667 ave 667 max 667 min
Histogram: 1 0 0 0 0 0 0 0 0 0
Nghost:    0 ave 0 max 0 min
Histogram: 1 0 0 0 0 0 0 0 0 0
Neighs:    74086 ave 74086 max 74086 min
Histogram: 1 0 0 0 0 0 0 0 0 0

Total # of neighbors = 74086
Ave neighs/atom = 111.073
Ave special neighs/atom = 10.4228
Neighbor list builds = 0
Dangerous builds = 0
write_dump all custom pysimm.dump.tmp id q x y z vx vy vz
quit


################################################################################
##################################    Init    ##################################
################################################################################
units           real
atom_style      full
pair_style      lj/cut/coul/long 12.0  12.0
kspace_style    pppm 1e-4
bond_style      harmonic
angle_style     harmonic
dihedral_style  fourier
improper_style  cvff
special_bonds   amber
pair_modify     mix arithmetic
read_data       temp.lmps
  orthogonal box = (-136.783 -136.783 -136.783) to (136.783 136.783 136.783)
  1 by 1 by 1 MPI processor grid
  reading atoms ...
  702 atoms
  reading velocities ...
  702 velocities
  scanning bonds ...
  3 = max bonds/atom
  scanning angles ...
  6 = max angles/atom
  scanning dihedrals ...
  10 = max dihedrals/atom
  scanning impropers ...
  1 = max impropers/atom
  reading bonds ...
  761 bonds
  reading angles ...
  1240 angles
  reading dihedrals ...
  1838 dihedrals
  reading impropers ...
  240 impropers
  4 = max # of 1-2 neighbors
  7 = max # of 1-3 neighbors
  13 = max # of 1-4 neighbors
  16 = max # of special neighbors
  special bonds CPU = 0.000633955 secs
  read_data CPU = 0.00903797 secs
################################################################################

min_style cg
minimize 1e-06 1e-06 1000000 10000000
WARNING: Using 'neigh_modify every 1 delay 0 check yes' setting during minimization (../min.cpp:190)
PPPM initialization ...
WARNING: System is not charge neutral, net charge = 2e-05 (../kspace.cpp:313)
  using 12-bit tables for long-range coulomb (../kspace.cpp:332)
  G vector (1/distance) = 0.105525
  grid = 27 27 27
  stencil order = 5
  estimated absolute RMS force accuracy = 0.0319633
  estimated relative force accuracy = 9.62565e-05
  using double precision KISS FFT
  3d grid and FFT values/proc = 32768 19683
Neighbor list info ...
  update every 1 steps, delay 0 steps, check yes
  max neighbors/atom: 2000, page size: 100000
  master list distance cutoff = 14
  ghost atom cutoff = 14
  binsize = 7, bins = 40 40 40
  1 neighbor lists, perpetual/occasional/extra = 1 0 0
  (1) pair lj/cut/coul/long, perpetual
      attributes: half, newton on
      pair build: half/bin/newton
      stencil: half/bin/3d/newton
      bin: standard
Per MPI rank memory allocation (min/avg/max) = 17.12 | 17.12 | 17.12 Mbytes
Step Temp E_pair E_mol TotEng Press 
       0    892.64995    767.24812    858.04642    3490.5293    2.1614676 
      24    892.64995    765.54618    585.51912    3216.3001    3.7618562 
Loop time of 1.26977 on 1 procs for 24 steps with 702 atoms

100.0% CPU use with 1 MPI tasks x no OpenMP threads

Minimization stats:
  Stopping criterion = linesearch alpha is zero
  Energy initial, next-to-last, final = 
         1625.29453425      1351.06529401      1351.06529401
  Force two-norm initial, final = 3.61602e+15 27.1882
  Force max component initial, final = 2.4385e+15 7.95437
  Final line search alpha, max atom move = 9.71003e-12 7.72371e-11
  Iterations, force evaluations = 24 171

MPI task timing breakdown:
Section |  min time  |  avg time  |  max time  |%varavg| %total
---------------------------------------------------------------
Pair    | 0.35125    | 0.35125    | 0.35125    |   0.0 | 27.66
Bond    | 0.055809   | 0.055809   | 0.055809   |   0.0 |  4.40
Kspace  | 0.85878    | 0.85878    | 0.85878    |   0.0 | 67.63
Neigh   | 0.0017369  | 0.0017369  | 0.0017369  |   0.0 |  0.14
Comm    | 9.2268e-05 | 9.2268e-05 | 9.2268e-05 |   0.0 |  0.01
Output  | 0          | 0          | 0          |   0.0 |  0.00
Modify  | 0          | 0          | 0          |   0.0 |  0.00
Other   |            | 0.002095   |            |       |  0.17

Nlocal:    702 ave 702 max 702 min
Histogram: 1 0 0 0 0 0 0 0 0 0
Nghost:    0 ave 0 max 0 min
Histogram: 1 0 0 0 0 0 0 0 0 0
Neighs:    55365 ave 55365 max 55365 min
Histogram: 1 0 0 0 0 0 0 0 0 0

Total # of neighbors = 55365
Ave neighs/atom = 78.8675
Ave special neighs/atom = 10.4245
Neighbor list builds = 1
Dangerous builds = 0
write_dump all custom pysimm.dump.tmp id q x y z vx vy vz
quit


################################################################################
##################################    Init    ##################################
################################################################################
units           real
atom_style      full
pair_style      lj/cut/coul/long 12.0  12.0
kspace_style    pppm 1e-4
bond_style      harmonic
angle_style     harmonic
dihedral_style  fourier
improper_style  cvff
special_bonds   amber
pair_modify     mix arithmetic
read_data       temp.lmps
  orthogonal box = (-139.141 -139.141 -139.141) to (139.141 139.141 139.141)
  1 by 1 by 1 MPI processor grid
  reading atoms ...
  737 atoms
  reading velocities ...
  737 velocities
  scanning bonds ...
  3 = max bonds/atom
  scanning angles ...
  6 = max angles/atom
  scanning dihedrals ...
  10 = max dihedrals/atom
  scanning impropers ...
  1 = max impropers/atom
  reading bonds ...
  799 bonds
  reading angles ...
  1302 angles
  reading dihedrals ...
  1930 dihedrals
  reading impropers ...
  252 impropers
  4 = max # of 1-2 neighbors
  7 = max # of 1-3 neighbors
  13 = max # of 1-4 neighbors
  16 = max # of special neighbors
  special bonds CPU = 0.000678062 secs
  read_data CPU = 0.00928092 secs
################################################################################

min_style cg
minimize 1e-06 1e-06 1000000 10000000
WARNING: Using 'neigh_modify every 1 delay 0 check yes' setting during minimization (../min.cpp:190)
PPPM initialization ...
WARNING: System is not charge neutral, net charge = 2.1e-05 (../kspace.cpp:313)
  using 12-bit tables for long-range coulomb (../kspace.cpp:332)
  G vector (1/distance) = 0.104274
  grid = 27 27 27
  stencil order = 5
  estimated absolute RMS force accuracy = 0.0331531
  estimated relative force accuracy = 9.98396e-05
  using double precision KISS FFT
  3d grid and FFT values/proc = 32768 19683
Neighbor list info ...
  update every 1 steps, delay 0 steps, check yes
  max neighbors/atom: 2000, page size: 100000
  master list distance cutoff = 14
  ghost atom cutoff = 14
  binsize = 7, bins = 40 40 40
  1 neighbor lists, perpetual/occasional/extra = 1 0 0
  (1) pair lj/cut/coul/long, perpetual
      attributes: half, newton on
      pair build: half/bin/newton
      stencil: half/bin/3d/newton
      bin: standard
Per MPI rank memory allocation (min/avg/max) = 17.12 | 17.12 | 17.12 Mbytes
Step Temp E_pair E_mol TotEng Press 
       0    747.26921    775.10788    853.33762    3267.8616    2.2595991 
       6    747.26921    775.10788    850.35151    3264.8755    2.2595971 
Loop time of 1.25726 on 1 procs for 6 steps with 737 atoms

100.0% CPU use with 1 MPI tasks x no OpenMP threads

Minimization stats:
  Stopping criterion = energy tolerance
  Energy initial, next-to-last, final = 
         1628.44549111      1625.45941909      1625.45939054
  Force two-norm initial, final = 1.535e+15 5143.15
  Force max component initial, final = 1.24617e+15 3427.08
  Final line search alpha, max atom move = 1.47993e-12 5.07183e-09
  Iterations, force evaluations = 6 168

MPI task timing breakdown:
Section |  min time  |  avg time  |  max time  |%varavg| %total
---------------------------------------------------------------
Pair    | 0.34079    | 0.34079    | 0.34079    |   0.0 | 27.11
Bond    | 0.057686   | 0.057686   | 0.057686   |   0.0 |  4.59
Kspace  | 0.85669    | 0.85669    | 0.85669    |   0.0 | 68.14
Neigh   | 0          | 0          | 0          |   0.0 |  0.00
Comm    | 8.4162e-05 | 8.4162e-05 | 8.4162e-05 |   0.0 |  0.01
Output  | 0          | 0          | 0          |   0.0 |  0.00
Modify  | 0          | 0          | 0          |   0.0 |  0.00
Other   |            | 0.002012   |            |       |  0.16

Nlocal:    737 ave 737 max 737 min
Histogram: 1 0 0 0 0 0 0 0 0 0
Nghost:    0 ave 0 max 0 min
Histogram: 1 0 0 0 0 0 0 0 0 0
Neighs:    58224 ave 58224 max 58224 min
Histogram: 1 0 0 0 0 0 0 0 0 0

Total # of neighbors = 58224
Ave neighs/atom = 79.0014
Ave special neighs/atom = 10.4261
Neighbor list builds = 0
Dangerous builds = 0
write_dump all custom pysimm.dump.tmp id q x y z vx vy vz
quit


################################################################################
##################################    Init    ##################################
################################################################################
units           real
atom_style      full
pair_style      lj/cut/coul/long 12.0  12.0
kspace_style    pppm 1e-4
bond_style      harmonic
angle_style     harmonic
dihedral_style  fourier
improper_style  cvff
special_bonds   amber
pair_modify     mix arithmetic
read_data       temp.lmps
  orthogonal box = (-141.423 -141.423 -141.423) to (141.423 141.423 141.423)
  1 by 1 by 1 MPI processor grid
  reading atoms ...
  772 atoms
  reading velocities ...
  772 velocities
  scanning bonds ...
  3 = max bonds/atom
  scanning angles ...
  6 = max angles/atom
  scanning dihedrals ...
  10 = max dihedrals/atom
  scanning impropers ...
  1 = max impropers/atom
  reading bonds ...
  837 bonds
  reading angles ...
  1364 angles
  reading dihedrals ...
  2022 dihedrals
  reading impropers ...
  264 impropers
  4 = max # of 1-2 neighbors
  7 = max # of 1-3 neighbors
  13 = max # of 1-4 neighbors
  16 = max # of special neighbors
  special bonds CPU = 0.000634909 secs
  read_data CPU = 0.00943518 secs
################################################################################

min_style cg
minimize 1e-06 1e-06 1000000 10000000
WARNING: Using 'neigh_modify every 1 delay 0 check yes' setting during minimization (../min.cpp:190)
PPPM initialization ...
WARNING: System is not charge neutral, net charge = 2.2e-05 (../kspace.cpp:313)
  using 12-bit tables for long-range coulomb (../kspace.cpp:332)
  G vector (1/distance) = 0.10309
  grid = 27 27 27
  stencil order = 5
  estimated absolute RMS force accuracy = 0.034307
  estimated relative force accuracy = 0.000103315
  using double precision KISS FFT
  3d grid and FFT values/proc = 32768 19683
Neighbor list info ...
  update every 1 steps, delay 0 steps, check yes
  max neighbors/atom: 2000, page size: 100000
  master list distance cutoff = 14
  ghost atom cutoff = 14
  binsize = 7, bins = 41 41 41
  1 neighbor lists, perpetual/occasional/extra = 1 0 0
  (1) pair lj/cut/coul/long, perpetual
      attributes: half, newton on
      pair build: half/bin/newton
      stencil: half/bin/3d/newton
      bin: standard
Per MPI rank memory allocation (min/avg/max) = 17.15 | 17.15 | 17.15 Mbytes
Step Temp E_pair E_mol TotEng Press 
       0    744.73185     827.5841    883.38941    3422.5196    2.0519226 
       4    744.73185     827.5841    882.62228    3421.7525     2.051891 
Loop time of 1.38798 on 1 procs for 4 steps with 772 atoms

99.4% CPU use with 1 MPI tasks x no OpenMP threads

Minimization stats:
  Stopping criterion = energy tolerance
  Energy initial, next-to-last, final = 
         1710.97350868      1710.20677014      1710.20638522
  Force two-norm initial, final = 2.64582e+15 346761
  Force max component initial, final = 1.6226e+15 196909
  Final line search alpha, max atom move = 4.33711e-16 8.54016e-11
  Iterations, force evaluations = 4 184

MPI task timing breakdown:
Section |  min time  |  avg time  |  max time  |%varavg| %total
---------------------------------------------------------------
Pair    | 0.37456    | 0.37456    | 0.37456    |   0.0 | 26.99
Bond    | 0.066475   | 0.066475   | 0.066475   |   0.0 |  4.79
Kspace  | 0.94467    | 0.94467    | 0.94467    |   0.0 | 68.06
Neigh   | 0          | 0          | 0          |   0.0 |  0.00
Comm    | 9.0837e-05 | 9.0837e-05 | 9.0837e-05 |   0.0 |  0.01
Output  | 0          | 0          | 0          |   0.0 |  0.00
Modify  | 0          | 0          | 0          |   0.0 |  0.00
Other   |            | 0.002194   |            |       |  0.16

Nlocal:    772 ave 772 max 772 min
Histogram: 1 0 0 0 0 0 0 0 0 0
Nghost:    0 ave 0 max 0 min
Histogram: 1 0 0 0 0 0 0 0 0 0
Neighs:    58185 ave 58185 max 58185 min
Histogram: 1 0 0 0 0 0 0 0 0 0

Total # of neighbors = 58185
Ave neighs/atom = 75.3692
Ave special neighs/atom = 10.4275
Neighbor list builds = 0
Dangerous builds = 0
write_dump all custom pysimm.dump.tmp id q x y z vx vy vz
quit


################################################################################
##################################    Init    ##################################
################################################################################
units           real
atom_style      full
pair_style      lj/cut/coul/long 12.0  12.0
kspace_style    pppm 1e-4
bond_style      harmonic
angle_style     harmonic
dihedral_style  fourier
improper_style  cvff
special_bonds   amber
pair_modify     mix arithmetic
read_data       temp.lmps
  orthogonal box = (-143.633 -143.633 -143.633) to (143.633 143.633 143.633)
  1 by 1 by 1 MPI processor grid
  reading atoms ...
  807 atoms
  reading velocities ...
  807 velocities
  scanning bonds ...
  3 = max bonds/atom
  scanning angles ...
  6 = max angles/atom
  scanning dihedrals ...
  10 = max dihedrals/atom
  scanning impropers ...
  1 = max impropers/atom
  reading bonds ...
  875 bonds
  reading angles ...
  1426 angles
  reading dihedrals ...
  2114 dihedrals
  reading impropers ...
  276 impropers
  4 = max # of 1-2 neighbors
  7 = max # of 1-3 neighbors
  13 = max # of 1-4 neighbors
  16 = max # of special neighbors
  special bonds CPU = 0.000762939 secs
  read_data CPU = 0.010416 secs
################################################################################

min_style cg
minimize 1e-06 1e-06 1000000 10000000
WARNING: Using 'neigh_modify every 1 delay 0 check yes' setting during minimization (../min.cpp:190)
PPPM initialization ...
WARNING: System is not charge neutral, net charge = 2.3e-05 (../kspace.cpp:313)
  using 12-bit tables for long-range coulomb (../kspace.cpp:332)
  G vector (1/distance) = 0.101968
  grid = 27 27 27
  stencil order = 5
  estimated absolute RMS force accuracy = 0.035427
  estimated relative force accuracy = 0.000106687
  using double precision KISS FFT
  3d grid and FFT values/proc = 32768 19683
Neighbor list info ...
  update every 1 steps, delay 0 steps, check yes
  max neighbors/atom: 2000, page size: 100000
  master list distance cutoff = 14
  ghost atom cutoff = 14
  binsize = 7, bins = 42 42 42
  1 neighbor lists, perpetual/occasional/extra = 1 0 0
  (1) pair lj/cut/coul/long, perpetual
      attributes: half, newton on
      pair build: half/bin/newton
      stencil: half/bin/3d/newton
      bin: standard
Per MPI rank memory allocation (min/avg/max) = 17.18 | 17.18 | 17.18 Mbytes
Step Temp E_pair E_mol TotEng Press 
       0     644.8289    857.08637    947.28006    3353.5891    1.5033838 
       1     644.8289    857.08637    947.28006    3353.5891    1.5033838 
Loop time of 0.530575 on 1 procs for 1 steps with 807 atoms

98.9% CPU use with 1 MPI tasks x no OpenMP threads

Minimization stats:
  Stopping criterion = energy tolerance
  Energy initial, next-to-last, final = 
         1804.36643517      1804.36643517      1804.36643517
  Force two-norm initial, final = 8.26693e+14 8.26693e+14
  Force max component initial, final = 5.35848e+14 5.35848e+14
  Final line search alpha, max atom move = 1.32602e-30 7.10543e-16
  Iterations, force evaluations = 1 72

MPI task timing breakdown:
Section |  min time  |  avg time  |  max time  |%varavg| %total
---------------------------------------------------------------
Pair    | 0.14102    | 0.14102    | 0.14102    |   0.0 | 26.58
Bond    | 0.026762   | 0.026762   | 0.026762   |   0.0 |  5.04
Kspace  | 0.36183    | 0.36183    | 0.36183    |   0.0 | 68.20
Neigh   | 0          | 0          | 0          |   0.0 |  0.00
Comm    | 4.5538e-05 | 4.5538e-05 | 4.5538e-05 |   0.0 |  0.01
Output  | 0          | 0          | 0          |   0.0 |  0.00
Modify  | 0          | 0          | 0          |   0.0 |  0.00
Other   |            | 0.0009139  |            |       |  0.17

Nlocal:    807 ave 807 max 807 min
Histogram: 1 0 0 0 0 0 0 0 0 0
Nghost:    0 ave 0 max 0 min
Histogram: 1 0 0 0 0 0 0 0 0 0
Neighs:    55364 ave 55364 max 55364 min
Histogram: 1 0 0 0 0 0 0 0 0 0

Total # of neighbors = 55364
Ave neighs/atom = 68.6047
Ave special neighs/atom = 10.4287
Neighbor list builds = 0
Dangerous builds = 0
write_dump all custom pysimm.dump.tmp id q x y z vx vy vz
quit


################################################################################
##################################    Init    ##################################
################################################################################
units           real
atom_style      full
pair_style      lj/cut/coul/long 12.0  12.0
kspace_style    pppm 1e-4
bond_style      harmonic
angle_style     harmonic
dihedral_style  fourier
improper_style  cvff
special_bonds   amber
pair_modify     mix arithmetic
read_data       temp.lmps
  orthogonal box = (-145.777 -145.777 -145.777) to (145.777 145.777 145.777)
  1 by 1 by 1 MPI processor grid
  reading atoms ...
  842 atoms
  reading velocities ...
  842 velocities
  scanning bonds ...
  3 = max bonds/atom
  scanning angles ...
  6 = max angles/atom
  scanning dihedrals ...
  10 = max dihedrals/atom
  scanning impropers ...
  1 = max impropers/atom
  reading bonds ...
  913 bonds
  reading angles ...
  1488 angles
  reading dihedrals ...
  2206 dihedrals
  reading impropers ...
  288 impropers
  4 = max # of 1-2 neighbors
  7 = max # of 1-3 neighbors
  13 = max # of 1-4 neighbors
  16 = max # of special neighbors
  special bonds CPU = 0.000766993 secs
  read_data CPU = 0.0106292 secs
################################################################################

min_style cg
minimize 1e-06 1e-06 1000000 10000000
WARNING: Using 'neigh_modify every 1 delay 0 check yes' setting during minimization (../min.cpp:190)
PPPM initialization ...
WARNING: System is not charge neutral, net charge = 2.4e-05 (../kspace.cpp:313)
  using 12-bit tables for long-range coulomb (../kspace.cpp:332)
  G vector (1/distance) = 0.100901
  grid = 27 27 27
  stencil order = 5
  estimated absolute RMS force accuracy = 0.0365148
  estimated relative force accuracy = 0.000109963
  using double precision KISS FFT
  3d grid and FFT values/proc = 32768 19683
Neighbor list info ...
  update every 1 steps, delay 0 steps, check yes
  max neighbors/atom: 2000, page size: 100000
  master list distance cutoff = 14
  ghost atom cutoff = 14
  binsize = 7, bins = 42 42 42
  1 neighbor lists, perpetual/occasional/extra = 1 0 0
  (1) pair lj/cut/coul/long, perpetual
      attributes: half, newton on
      pair build: half/bin/newton
      stencil: half/bin/3d/newton
      bin: standard
Per MPI rank memory allocation (min/avg/max) = 17.18 | 17.18 | 17.18 Mbytes
Step Temp E_pair E_mol TotEng Press 
       0    899.38776    900.93761    911.09458    4066.6725    2.5906302 
       4    899.38776    900.93761    907.28005     4062.858    2.5909184 
Loop time of 0.88781 on 1 procs for 4 steps with 842 atoms

100.0% CPU use with 1 MPI tasks x no OpenMP threads

Minimization stats:
  Stopping criterion = energy tolerance
  Energy initial, next-to-last, final = 
         1812.03219841      1808.21878066      1808.21766071
  Force two-norm initial, final = 4.87484e+15 54466.1
  Force max component initial, final = 3.31731e+15 36095.3
  Final line search alpha, max atom move = 4.27434e-13 1.54284e-08
  Iterations, force evaluations = 4 119

MPI task timing breakdown:
Section |  min time  |  avg time  |  max time  |%varavg| %total
---------------------------------------------------------------
Pair    | 0.23116    | 0.23116    | 0.23116    |   0.0 | 26.04
Bond    | 0.045261   | 0.045261   | 0.045261   |   0.0 |  5.10
Kspace  | 0.60988    | 0.60988    | 0.60988    |   0.0 | 68.69
Neigh   | 0          | 0          | 0          |   0.0 |  0.00
Comm    | 5.2691e-05 | 5.2691e-05 | 5.2691e-05 |   0.0 |  0.01
Output  | 0          | 0          | 0          |   0.0 |  0.00
Modify  | 0          | 0          | 0          |   0.0 |  0.00
Other   |            | 0.001459   |            |       |  0.16

Nlocal:    842 ave 842 max 842 min
Histogram: 1 0 0 0 0 0 0 0 0 0
Nghost:    0 ave 0 max 0 min
Histogram: 1 0 0 0 0 0 0 0 0 0
Neighs:    56204 ave 56204 max 56204 min
Histogram: 1 0 0 0 0 0 0 0 0 0

Total # of neighbors = 56204
Ave neighs/atom = 66.7506
Ave special neighs/atom = 10.4299
Neighbor list builds = 0
Dangerous builds = 0
write_dump all custom pysimm.dump.tmp id q x y z vx vy vz
quit


################################################################################
##################################    Init    ##################################
################################################################################
units           real
atom_style      full
pair_style      lj/cut/coul/long 12.0  12.0
kspace_style    pppm 1e-4
bond_style      harmonic
angle_style     harmonic
dihedral_style  fourier
improper_style  cvff
special_bonds   amber
pair_modify     mix arithmetic
read_data       temp.lmps
  orthogonal box = (-147.86 -147.86 -147.86) to (147.86 147.86 147.86)
  1 by 1 by 1 MPI processor grid
  reading atoms ...
  877 atoms
  reading velocities ...
  877 velocities
  scanning bonds ...
  3 = max bonds/atom
  scanning angles ...
  6 = max angles/atom
  scanning dihedrals ...
  10 = max dihedrals/atom
  scanning impropers ...
  1 = max impropers/atom
  reading bonds ...
  951 bonds
  reading angles ...
  1550 angles
  reading dihedrals ...
  2298 dihedrals
  reading impropers ...
  300 impropers
  4 = max # of 1-2 neighbors
  7 = max # of 1-3 neighbors
  13 = max # of 1-4 neighbors
  16 = max # of special neighbors
  special bonds CPU = 0.000730038 secs
  read_data CPU = 0.0107799 secs
################################################################################

min_style cg
minimize 1e-06 1e-06 1000000 10000000
WARNING: Using 'neigh_modify every 1 delay 0 check yes' setting during minimization (../min.cpp:190)
PPPM initialization ...
WARNING: System is not charge neutral, net charge = 2.5e-05 (../kspace.cpp:313)
  using 12-bit tables for long-range coulomb (../kspace.cpp:332)
  G vector (1/distance) = 0.107545
  grid = 30 30 30
  stencil order = 5
  estimated absolute RMS force accuracy = 0.0298875
  estimated relative force accuracy = 9.00054e-05
  using double precision KISS FFT
  3d grid and FFT values/proc = 42875 27000
Neighbor list info ...
  update every 1 steps, delay 0 steps, check yes
  max neighbors/atom: 2000, page size: 100000
  master list distance cutoff = 14
  ghost atom cutoff = 14
  binsize = 7, bins = 43 43 43
  1 neighbor lists, perpetual/occasional/extra = 1 0 0
  (1) pair lj/cut/coul/long, perpetual
      attributes: half, newton on
      pair build: half/bin/newton
      stencil: half/bin/3d/newton
      bin: standard
Per MPI rank memory allocation (min/avg/max) = 18.22 | 18.22 | 18.22 Mbytes
Step Temp E_pair E_mol TotEng Press 
       0    957.76423     947.1729    1036.3315    4484.4084    3.1285762 
       4    957.76423     947.1729    1033.8297    4481.9066    3.1287972 
Loop time of 1.25438 on 1 procs for 4 steps with 877 atoms

100.0% CPU use with 1 MPI tasks x no OpenMP threads

Minimization stats:
  Stopping criterion = energy tolerance
  Energy initial, next-to-last, final = 
         1983.50442841      1981.00310109      1981.00262474
  Force two-norm initial, final = 5.02537e+15 8.51572e+06
  Force max component initial, final = 3.48051e+15 4.85144e+06
  Final line search alpha, max atom move = 1.50565e-17 7.30458e-11
  Iterations, force evaluations = 4 145

MPI task timing breakdown:
Section |  min time  |  avg time  |  max time  |%varavg| %total
---------------------------------------------------------------
Pair    | 0.3069     | 0.3069     | 0.3069     |   0.0 | 24.47
Bond    | 0.057879   | 0.057879   | 0.057879   |   0.0 |  4.61
Kspace  | 0.88777    | 0.88777    | 0.88777    |   0.0 | 70.77
Neigh   | 0          | 0          | 0          |   0.0 |  0.00
Comm    | 9.6798e-05 | 9.6798e-05 | 9.6798e-05 |   0.0 |  0.01
Output  | 0          | 0          | 0          |   0.0 |  0.00
Modify  | 0          | 0          | 0          |   0.0 |  0.00
Other   |            | 0.00174    |            |       |  0.14

Nlocal:    877 ave 877 max 877 min
Histogram: 1 0 0 0 0 0 0 0 0 0
Nghost:    0 ave 0 max 0 min
Histogram: 1 0 0 0 0 0 0 0 0 0
Neighs:    62335 ave 62335 max 62335 min
Histogram: 1 0 0 0 0 0 0 0 0 0

Total # of neighbors = 62335
Ave neighs/atom = 71.0775
Ave special neighs/atom = 10.431
Neighbor list builds = 0
Dangerous builds = 0
write_dump all custom pysimm.dump.tmp id q x y z vx vy vz
quit


################################################################################
##################################    Init    ##################################
################################################################################
units           real
atom_style      full
pair_style      lj/cut/coul/long 12.0  12.0
kspace_style    pppm 1e-4
bond_style      harmonic
angle_style     harmonic
dihedral_style  fourier
improper_style  cvff
special_bonds   amber
pair_modify     mix arithmetic
read_data       temp.lmps
  orthogonal box = (-149.885 -149.885 -149.885) to (149.885 149.885 149.885)
  1 by 1 by 1 MPI processor grid
  reading atoms ...
  912 atoms
  reading velocities ...
  912 velocities
  scanning bonds ...
  3 = max bonds/atom
  scanning angles ...
  6 = max angles/atom
  scanning dihedrals ...
  10 = max dihedrals/atom
  scanning impropers ...
  1 = max impropers/atom
  reading bonds ...
  989 bonds
  reading angles ...
  1612 angles
  reading dihedrals ...
  2390 dihedrals
  reading impropers ...
  312 impropers
  4 = max # of 1-2 neighbors
  7 = max # of 1-3 neighbors
  13 = max # of 1-4 neighbors
  16 = max # of special neighbors
  special bonds CPU = 0.000710011 secs
  read_data CPU = 0.010592 secs
################################################################################

min_style cg
minimize 1e-06 1e-06 1000000 10000000
WARNING: Using 'neigh_modify every 1 delay 0 check yes' setting during minimization (../min.cpp:190)
PPPM initialization ...
WARNING: System is not charge neutral, net charge = 2.6e-05 (../kspace.cpp:313)
  using 12-bit tables for long-range coulomb (../kspace.cpp:332)
  G vector (1/distance) = 0.106541
  grid = 30 30 30
  stencil order = 5
  estimated absolute RMS force accuracy = 0.0308037
  estimated relative force accuracy = 9.27644e-05
  using double precision KISS FFT
  3d grid and FFT values/proc = 42875 27000
Neighbor list info ...
  update every 1 steps, delay 0 steps, check yes
  max neighbors/atom: 2000, page size: 100000
  master list distance cutoff = 14
  ghost atom cutoff = 14
  binsize = 7, bins = 43 43 43
  1 neighbor lists, perpetual/occasional/extra = 1 0 0
  (1) pair lj/cut/coul/long, perpetual
      attributes: half, newton on
      pair build: half/bin/newton
      stencil: half/bin/3d/newton
      bin: standard
Per MPI rank memory allocation (min/avg/max) = 18.22 | 18.22 | 18.22 Mbytes
Step Temp E_pair E_mol TotEng Press 
       0      812.699    952.73031    1037.9491    4197.5781     2.340012 
      29      812.699    950.96318    760.35776    3918.2197    3.2056201 
Loop time of 2.12936 on 1 procs for 29 steps with 912 atoms

98.8% CPU use with 1 MPI tasks x no OpenMP threads

Minimization stats:
  Stopping criterion = linesearch alpha is zero
  Energy initial, next-to-last, final = 
         1990.67936398      1711.32093837      1711.32093837
  Force two-norm initial, final = 2.99176e+15 58.5163
  Force max component initial, final = 1.87553e+15 13.8299
  Final line search alpha, max atom move = 2.0712e-12 2.86443e-11
  Iterations, force evaluations = 29 239

MPI task timing breakdown:
Section |  min time  |  avg time  |  max time  |%varavg| %total
---------------------------------------------------------------
Pair    | 0.5874     | 0.5874     | 0.5874     |   0.0 | 27.59
Bond    | 0.09803    | 0.09803    | 0.09803    |   0.0 |  4.60
Kspace  | 1.4378     | 1.4378     | 1.4378     |   0.0 | 67.52
Neigh   | 0.0024571  | 0.0024571  | 0.0024571  |   0.0 |  0.12
Comm    | 0.00012159 | 0.00012159 | 0.00012159 |   0.0 |  0.01
Output  | 0          | 0          | 0          |   0.0 |  0.00
Modify  | 0          | 0          | 0          |   0.0 |  0.00
Other   |            | 0.003562   |            |       |  0.17

Nlocal:    912 ave 912 max 912 min
Histogram: 1 0 0 0 0 0 0 0 0 0
Nghost:    0 ave 0 max 0 min
Histogram: 1 0 0 0 0 0 0 0 0 0
Neighs:    76382 ave 76382 max 76382 min
Histogram: 1 0 0 0 0 0 0 0 0 0

Total # of neighbors = 76382
Ave neighs/atom = 83.7522
Ave special neighs/atom = 10.432
Neighbor list builds = 1
Dangerous builds = 0
write_dump all custom pysimm.dump.tmp id q x y z vx vy vz
quit


################################################################################
##################################    Init    ##################################
################################################################################
units           real
atom_style      full
pair_style      lj/cut/coul/long 12.0  12.0
kspace_style    pppm 1e-4
bond_style      harmonic
angle_style     harmonic
dihedral_style  fourier
improper_style  cvff
special_bonds   amber
pair_modify     mix arithmetic
read_data       temp.lmps
  orthogonal box = (-151.858 -151.858 -151.858) to (151.858 151.858 151.858)
  1 by 1 by 1 MPI processor grid
  reading atoms ...
  947 atoms
  reading velocities ...
  947 velocities
  scanning bonds ...
  3 = max bonds/atom
  scanning angles ...
  6 = max angles/atom
  scanning dihedrals ...
  10 = max dihedrals/atom
  scanning impropers ...
  1 = max impropers/atom
  reading bonds ...
  1027 bonds
  reading angles ...
  1674 angles
  reading dihedrals ...
  2482 dihedrals
  reading impropers ...
  324 impropers
  4 = max # of 1-2 neighbors
  7 = max # of 1-3 neighbors
  13 = max # of 1-4 neighbors
  16 = max # of special neighbors
  special bonds CPU = 0.000827789 secs
  read_data CPU = 0.0112579 secs
################################################################################

min_style cg
minimize 1e-06 1e-06 1000000 10000000
WARNING: Using 'neigh_modify every 1 delay 0 check yes' setting during minimization (../min.cpp:190)
PPPM initialization ...
WARNING: System is not charge neutral, net charge = 2.7e-05 (../kspace.cpp:313)
  using 12-bit tables for long-range coulomb (../kspace.cpp:332)
  G vector (1/distance) = 0.10558
  grid = 30 30 30
  stencil order = 5
  estimated absolute RMS force accuracy = 0.0316987
  estimated relative force accuracy = 9.54598e-05
  using double precision KISS FFT
  3d grid and FFT values/proc = 42875 27000
Neighbor list info ...
  update every 1 steps, delay 0 steps, check yes
  max neighbors/atom: 2000, page size: 100000
  master list distance cutoff = 14
  ghost atom cutoff = 14
  binsize = 7, bins = 44 44 44
  1 neighbor lists, perpetual/occasional/extra = 1 0 0
  (1) pair lj/cut/coul/long, perpetual
      attributes: half, newton on
      pair build: half/bin/newton
      stencil: half/bin/3d/newton
      bin: standard
Per MPI rank memory allocation (min/avg/max) = 18.25 | 18.25 | 18.25 Mbytes
Step Temp E_pair E_mol TotEng Press 
       0    741.39896    982.56966    1048.8175    4122.0183     2.007266 
       2    741.39896    982.56966    1048.8072     4122.008    2.0072588 
Loop time of 1.451 on 1 procs for 2 steps with 947 atoms

99.6% CPU use with 1 MPI tasks x no OpenMP threads

Minimization stats:
  Stopping criterion = energy tolerance
  Energy initial, next-to-last, final = 
         2031.38712216      2031.37688726      2031.37688726
  Force two-norm initial, final = 2.7526e+14 1.28808e+14
  Force max component initial, final = 1.72945e+14 7.50469e+13
  Final line search alpha, max atom move = 9.46799e-30 7.10543e-16
  Iterations, force evaluations = 2 160

MPI task timing breakdown:
Section |  min time  |  avg time  |  max time  |%varavg| %total
---------------------------------------------------------------
Pair    | 0.36806    | 0.36806    | 0.36806    |   0.0 | 25.37
Bond    | 0.070086   | 0.070086   | 0.070086   |   0.0 |  4.83
Kspace  | 1.0108     | 1.0108     | 1.0108     |   0.0 | 69.66
Neigh   | 0          | 0          | 0          |   0.0 |  0.00
Comm    | 8.1062e-05 | 8.1062e-05 | 8.1062e-05 |   0.0 |  0.01
Output  | 0          | 0          | 0          |   0.0 |  0.00
Modify  | 0          | 0          | 0          |   0.0 |  0.00
Other   |            | 0.002019   |            |       |  0.14

Nlocal:    947 ave 947 max 947 min
Histogram: 1 0 0 0 0 0 0 0 0 0
Nghost:    0 ave 0 max 0 min
Histogram: 1 0 0 0 0 0 0 0 0 0
Neighs:    67050 ave 67050 max 67050 min
Histogram: 1 0 0 0 0 0 0 0 0 0

Total # of neighbors = 67050
Ave neighs/atom = 70.8025
Ave special neighs/atom = 10.4329
Neighbor list builds = 0
Dangerous builds = 0
write_dump all custom pysimm.dump.tmp id q x y z vx vy vz
quit


################################################################################
##################################    Init    ##################################
################################################################################
units           real
atom_style      full
pair_style      lj/cut/coul/long 12.0  12.0
kspace_style    pppm 1e-4
bond_style      harmonic
angle_style     harmonic
dihedral_style  fourier
improper_style  cvff
special_bonds   amber
pair_modify     mix arithmetic
read_data       temp.lmps
  orthogonal box = (-153.78 -153.78 -153.78) to (153.78 153.78 153.78)
  1 by 1 by 1 MPI processor grid
  reading atoms ...
  982 atoms
  reading velocities ...
  982 velocities
  scanning bonds ...
  3 = max bonds/atom
  scanning angles ...
  6 = max angles/atom
  scanning dihedrals ...
  10 = max dihedrals/atom
  scanning impropers ...
  1 = max impropers/atom
  reading bonds ...
  1065 bonds
  reading angles ...
  1736 angles
  reading dihedrals ...
  2574 dihedrals
  reading impropers ...
  336 impropers
  4 = max # of 1-2 neighbors
  7 = max # of 1-3 neighbors
  13 = max # of 1-4 neighbors
  16 = max # of special neighbors
  special bonds CPU = 0.000837088 secs
  read_data CPU = 0.0114062 secs
################################################################################

min_style cg
minimize 1e-06 1e-06 1000000 10000000
WARNING: Using 'neigh_modify every 1 delay 0 check yes' setting during minimization (../min.cpp:190)
PPPM initialization ...
WARNING: System is not charge neutral, net charge = 2.8e-05 (../kspace.cpp:313)
  using 12-bit tables for long-range coulomb (../kspace.cpp:332)
  G vector (1/distance) = 0.104663
  grid = 30 30 30
  stencil order = 5
  estimated absolute RMS force accuracy = 0.0325765
  estimated relative force accuracy = 9.81033e-05
  using double precision KISS FFT
  3d grid and FFT values/proc = 42875 27000
Neighbor list info ...
  update every 1 steps, delay 0 steps, check yes
  max neighbors/atom: 2000, page size: 100000
  master list distance cutoff = 14
  ghost atom cutoff = 14
  binsize = 7, bins = 44 44 44
  1 neighbor lists, perpetual/occasional/extra = 1 0 0
  (1) pair lj/cut/coul/long, perpetual
      attributes: half, newton on
      pair build: half/bin/newton
      stencil: half/bin/3d/newton
      bin: standard
Per MPI rank memory allocation (min/avg/max) = 18.25 | 18.25 | 18.25 Mbytes
Step Temp E_pair E_mol TotEng Press 
       0    679.05082    1027.3752    1075.2049    4088.2433      1.92903 
      25    679.05082    1018.4992    785.01616    3789.1785    2.7197912 
Loop time of 2.26334 on 1 procs for 25 steps with 982 atoms

99.7% CPU use with 1 MPI tasks x no OpenMP threads

Minimization stats:
  Stopping criterion = linesearch alpha is zero
  Energy initial, next-to-last, final = 
         2102.58011964      1803.51531251      1803.51531251
  Force two-norm initial, final = 1.44912e+15 83.1347
  Force max component initial, final = 1.05875e+15 21.999
  Final line search alpha, max atom move = 1.73598e-12 3.81898e-11
  Iterations, force evaluations = 25 237

MPI task timing breakdown:
Section |  min time  |  avg time  |  max time  |%varavg| %total
---------------------------------------------------------------
Pair    | 0.62509    | 0.62509    | 0.62509    |   0.0 | 27.62
Bond    | 0.10755    | 0.10755    | 0.10755    |   0.0 |  4.75
Kspace  | 1.5244     | 1.5244     | 1.5244     |   0.0 | 67.35
Neigh   | 0.0023839  | 0.0023839  | 0.0023839  |   0.0 |  0.11
Comm    | 0.00013661 | 0.00013661 | 0.00013661 |   0.0 |  0.01
Output  | 0          | 0          | 0          |   0.0 |  0.00
Modify  | 0          | 0          | 0          |   0.0 |  0.00
Other   |            | 0.003818   |            |       |  0.17

Nlocal:    982 ave 982 max 982 min
Histogram: 1 0 0 0 0 0 0 0 0 0
Nghost:    0 ave 0 max 0 min
Histogram: 1 0 0 0 0 0 0 0 0 0
Neighs:    76564 ave 76564 max 76564 min
Histogram: 1 0 0 0 0 0 0 0 0 0

Total # of neighbors = 76564
Ave neighs/atom = 77.9674
Ave special neighs/atom = 10.4338
Neighbor list builds = 1
Dangerous builds = 0
write_dump all custom pysimm.dump.tmp id q x y z vx vy vz
quit


################################################################################
##################################    Init    ##################################
################################################################################
units           real
atom_style      full
pair_style      lj/cut/coul/long 12.0  12.0
kspace_style    pppm 1e-4
bond_style      harmonic
angle_style     harmonic
dihedral_style  fourier
improper_style  cvff
special_bonds   amber
pair_modify     mix arithmetic
read_data       temp.lmps
  orthogonal box = (-155.656 -155.656 -155.656) to (155.656 155.656 155.656)
  1 by 1 by 1 MPI processor grid
  reading atoms ...
  1017 atoms
  reading velocities ...
  1017 velocities
  scanning bonds ...
  3 = max bonds/atom
  scanning angles ...
  6 = max angles/atom
  scanning dihedrals ...
  10 = max dihedrals/atom
  scanning impropers ...
  1 = max impropers/atom
  reading bonds ...
  1103 bonds
  reading angles ...
  1798 angles
  reading dihedrals ...
  2666 dihedrals
  reading impropers ...
  348 impropers
  4 = max # of 1-2 neighbors
  7 = max # of 1-3 neighbors
  13 = max # of 1-4 neighbors
  16 = max # of special neighbors
  special bonds CPU = 0.000818968 secs
  read_data CPU = 0.0115571 secs
[...]
  10 = max dihedrals/atom
  scanning impropers ...
  1 = max impropers/atom
  reading bonds ...
  1749 bonds
  reading angles ...
  2852 angles
  reading dihedrals ...
  4230 dihedrals
  reading impropers ...
  552 impropers
  4 = max # of 1-2 neighbors
  7 = max # of 1-3 neighbors
  13 = max # of 1-4 neighbors
  16 = max # of special neighbors
  special bonds CPU = 0.0012548 secs
  read_data CPU = 0.0165401 secs
################################################################################

min_style cg
minimize 1e-06 1e-06 1000000 10000000
WARNING: Using 'neigh_modify every 1 delay 0 check yes' setting during minimization (../min.cpp:190)
PPPM initialization ...
WARNING: System is not charge neutral, net charge = 4.6e-05 (../kspace.cpp:313)
  using 12-bit tables for long-range coulomb (../kspace.cpp:332)
  G vector (1/distance) = 0.105541
  grid = 36 36 36
  stencil order = 5
  estimated absolute RMS force accuracy = 0.0315011
  estimated relative force accuracy = 9.48646e-05
  using double precision KISS FFT
  3d grid and FFT values/proc = 68921 46656
Neighbor list info ...
  update every 1 steps, delay 0 steps, check yes
  max neighbors/atom: 2000, page size: 100000
  master list distance cutoff = 14
  ghost atom cutoff = 14
  binsize = 7, bins = 53 53 53
  1 neighbor lists, perpetual/occasional/extra = 1 0 0
  (1) pair lj/cut/coul/long, perpetual
      attributes: half, newton on
      pair build: half/bin/newton
      stencil: half/bin/3d/newton
      bin: standard
Per MPI rank memory allocation (min/avg/max) = 21.66 | 21.66 | 21.66 Mbytes
Step Temp E_pair E_mol TotEng Press 
       0    321.92465    1487.6555    1489.1054    4522.6704   0.77657526 
       1    321.92465    1487.6555    1489.1054    4522.6704   0.77657526 
Loop time of 1.46052 on 1 procs for 1 steps with 1612 atoms

100.0% CPU use with 1 MPI tasks x no OpenMP threads

Minimization stats:
  Stopping criterion = quadratic factors are zero
  Energy initial, next-to-last, final = 
         2976.76084432      2976.76084432      2976.76084432
  Force two-norm initial, final = 3.17043e+15 3.17043e+15
  Force max component initial, final = 2.48621e+15 2.48621e+15
  Final line search alpha, max atom move = 2.85794e-31 7.10543e-16
  Iterations, force evaluations = 1 86

MPI task timing breakdown:
Section |  min time  |  avg time  |  max time  |%varavg| %total
---------------------------------------------------------------
Pair    | 0.46622    | 0.46622    | 0.46622    |   0.0 | 31.92
Bond    | 0.06397    | 0.06397    | 0.06397    |   0.0 |  4.38
Kspace  | 0.92844    | 0.92844    | 0.92844    |   0.0 | 63.57
Neigh   | 0          | 0          | 0          |   0.0 |  0.00
Comm    | 5.126e-05  | 5.126e-05  | 5.126e-05  |   0.0 |  0.00
Output  | 0          | 0          | 0          |   0.0 |  0.00
Modify  | 0          | 0          | 0          |   0.0 |  0.00
Other   |            | 0.001837   |            |       |  0.13

Nlocal:    1612 ave 1612 max 1612 min
Histogram: 1 0 0 0 0 0 0 0 0 0
Nghost:    0 ave 0 max 0 min
Histogram: 1 0 0 0 0 0 0 0 0 0
Neighs:    158009 ave 158009 max 158009 min
Histogram: 1 0 0 0 0 0 0 0 0 0

Total # of neighbors = 158009
Ave neighs/atom = 98.0205
Ave special neighs/atom = 10.4429
Neighbor list builds = 0
Dangerous builds = 0
write_dump all custom pysimm.dump.tmp id q x y z vx vy vz
quit


################################################################################
##################################    Init    ##################################
################################################################################
units           real
atom_style      full
pair_style      lj/cut/coul/long 12.0  12.0
kspace_style    pppm 1e-4
bond_style      harmonic
angle_style     harmonic
dihedral_style  fourier
improper_style  cvff
special_bonds   amber
pair_modify     mix arithmetic
read_data       temp.lmps
  orthogonal box = (-183.667 -183.667 -183.667) to (183.667 183.667 183.667)
  1 by 1 by 1 MPI processor grid
  reading atoms ...
  1647 atoms
  reading velocities ...
  1647 velocities
  scanning bonds ...
  3 = max bonds/atom
  scanning angles ...
  6 = max angles/atom
  scanning dihedrals ...
  10 = max dihedrals/atom
  scanning impropers ...
  1 = max impropers/atom
  reading bonds ...
  1787 bonds
  reading angles ...
  2914 angles
  reading dihedrals ...
  4322 dihedrals
  reading impropers ...
  564 impropers
  4 = max # of 1-2 neighbors
  7 = max # of 1-3 neighbors
  13 = max # of 1-4 neighbors
  16 = max # of special neighbors
  special bonds CPU = 0.00123096 secs
  read_data CPU = 0.0166471 secs
################################################################################

min_style cg
minimize 1e-06 1e-06 1000000 10000000
WARNING: Using 'neigh_modify every 1 delay 0 check yes' setting during minimization (../min.cpp:190)
PPPM initialization ...
WARNING: System is not charge neutral, net charge = 4.7e-05 (../kspace.cpp:313)
  using 12-bit tables for long-range coulomb (../kspace.cpp:332)
  G vector (1/distance) = 0.105005
  grid = 36 36 36
  stencil order = 5
  estimated absolute RMS force accuracy = 0.0320105
  estimated relative force accuracy = 9.63988e-05
  using double precision KISS FFT
  3d grid and FFT values/proc = 68921 46656
Neighbor list info ...
  update every 1 steps, delay 0 steps, check yes
  max neighbors/atom: 2000, page size: 100000
  master list distance cutoff = 14
  ghost atom cutoff = 14
  binsize = 7, bins = 53 53 53
  1 neighbor lists, perpetual/occasional/extra = 1 0 0
  (1) pair lj/cut/coul/long, perpetual
      attributes: half, newton on
      pair build: half/bin/newton
      stencil: half/bin/3d/newton
      bin: standard
Per MPI rank memory allocation (min/avg/max) = 21.66 | 21.66 | 21.66 Mbytes
Step Temp E_pair E_mol TotEng Press 
       0    373.69312     1502.247    1482.8638    4818.6037    1.1630306 
       1    373.69312     1502.247    1482.8638    4818.6037    1.1630306 
Loop time of 1.30866 on 1 procs for 1 steps with 1647 atoms

100.0% CPU use with 1 MPI tasks x no OpenMP threads

Minimization stats:
  Stopping criterion = energy tolerance
  Energy initial, next-to-last, final = 
         2985.11083682      2985.11083682      2985.11083682
  Force two-norm initial, final = 3.5313e+14 3.5313e+14
  Force max component initial, final = 2.00181e+14 2.00181e+14
  Final line search alpha, max atom move = 1.77475e-30 3.55271e-16
  Iterations, force evaluations = 1 75

MPI task timing breakdown:
Section |  min time  |  avg time  |  max time  |%varavg| %total
---------------------------------------------------------------
Pair    | 0.43469    | 0.43469    | 0.43469    |   0.0 | 33.22
Bond    | 0.05694    | 0.05694    | 0.05694    |   0.0 |  4.35
Kspace  | 0.81537    | 0.81537    | 0.81537    |   0.0 | 62.31
Neigh   | 0          | 0          | 0          |   0.0 |  0.00
Comm    | 3.9101e-05 | 3.9101e-05 | 3.9101e-05 |   0.0 |  0.00
Output  | 0          | 0          | 0          |   0.0 |  0.00
Modify  | 0          | 0          | 0          |   0.0 |  0.00
Other   |            | 0.001623   |            |       |  0.12

Nlocal:    1647 ave 1647 max 1647 min
Histogram: 1 0 0 0 0 0 0 0 0 0
Nghost:    0 ave 0 max 0 min
Histogram: 1 0 0 0 0 0 0 0 0 0
Neighs:    165948 ave 165948 max 165948 min
Histogram: 1 0 0 0 0 0 0 0 0 0

Total # of neighbors = 165948
Ave neighs/atom = 100.758
Ave special neighs/atom = 10.4432
Neighbor list builds = 0
Dangerous builds = 0
write_dump all custom pysimm.dump.tmp id q x y z vx vy vz
quit


################################################################################
##################################    Init    ##################################
################################################################################
units           real
atom_style      full
pair_style      lj/cut/coul/long 12.0  12.0
kspace_style    pppm 1e-4
bond_style      harmonic
angle_style     harmonic
dihedral_style  fourier
improper_style  cvff
special_bonds   amber
pair_modify     mix arithmetic
read_data       temp.lmps
  orthogonal box = (-184.989 -184.989 -184.989) to (184.989 184.989 184.989)
  1 by 1 by 1 MPI processor grid
  reading atoms ...
  1682 atoms
  reading velocities ...
  1682 velocities
  scanning bonds ...
  3 = max bonds/atom
  scanning angles ...
  6 = max angles/atom
  scanning dihedrals ...
  10 = max dihedrals/atom
  scanning impropers ...
  1 = max impropers/atom
  reading bonds ...
  1825 bonds
  reading angles ...
  2976 angles
  reading dihedrals ...
  4414 dihedrals
  reading impropers ...
  576 impropers
  4 = max # of 1-2 neighbors
  7 = max # of 1-3 neighbors
  13 = max # of 1-4 neighbors
  16 = max # of special neighbors
  special bonds CPU = 0.00119805 secs
  read_data CPU = 0.0169868 secs
################################################################################

min_style cg
minimize 1e-06 1e-06 1000000 10000000
WARNING: Using 'neigh_modify every 1 delay 0 check yes' setting during minimization (../min.cpp:190)
PPPM initialization ...
WARNING: System is not charge neutral, net charge = 4.8e-05 (../kspace.cpp:313)
  using 12-bit tables for long-range coulomb (../kspace.cpp:332)
  G vector (1/distance) = 0.104484
  grid = 36 36 36
  stencil order = 5
  estimated absolute RMS force accuracy = 0.0325166
  estimated relative force accuracy = 9.79229e-05
  using double precision KISS FFT
  3d grid and FFT values/proc = 68921 46656
Neighbor list info ...
  update every 1 steps, delay 0 steps, check yes
  max neighbors/atom: 2000, page size: 100000
  master list distance cutoff = 14
  ghost atom cutoff = 14
  binsize = 7, bins = 53 53 53
  1 neighbor lists, perpetual/occasional/extra = 1 0 0
  (1) pair lj/cut/coul/long, perpetual
      attributes: half, newton on
      pair build: half/bin/newton
      stencil: half/bin/3d/newton
      bin: standard
Per MPI rank memory allocation (min/avg/max) = 21.67 | 21.67 | 21.67 Mbytes
Step Temp E_pair E_mol TotEng Press 
       0     496.6112    2088.5917    2745.3342    7322.3163    1.3835402 
       4     496.6112    2088.5917    2741.8768    7318.8589    1.3835327 
Loop time of 1.64186 on 1 procs for 4 steps with 1682 atoms

99.8% CPU use with 1 MPI tasks x no OpenMP threads

Minimization stats:
  Stopping criterion = energy tolerance
  Energy initial, next-to-last, final = 
         4833.92582607      4830.46964375      4830.46849405
  Force two-norm initial, final = 1.28745e+15 2721.52
  Force max component initial, final = 7.99307e+14 2165.41
  Final line search alpha, max atom move = 2.4609e-11 5.32887e-08
  Iterations, force evaluations = 4 90

MPI task timing breakdown:
Section |  min time  |  avg time  |  max time  |%varavg| %total
---------------------------------------------------------------
Pair    | 0.55661    | 0.55661    | 0.55661    |   0.0 | 33.90
Bond    | 0.070856   | 0.070856   | 0.070856   |   0.0 |  4.32
Kspace  | 1.0121     | 1.0121     | 1.0121     |   0.0 | 61.64
Neigh   | 0          | 0          | 0          |   0.0 |  0.00
Comm    | 5.8889e-05 | 5.8889e-05 | 5.8889e-05 |   0.0 |  0.00
Output  | 0          | 0          | 0          |   0.0 |  0.00
Modify  | 0          | 0          | 0          |   0.0 |  0.00
Other   |            | 0.002272   |            |       |  0.14

Nlocal:    1682 ave 1682 max 1682 min
Histogram: 1 0 0 0 0 0 0 0 0 0
Nghost:    0 ave 0 max 0 min
Histogram: 1 0 0 0 0 0 0 0 0 0
Neighs:    180258 ave 180258 max 180258 min
Histogram: 1 0 0 0 0 0 0 0 0 0

Total # of neighbors = 180258
Ave neighs/atom = 107.169
Ave special neighs/atom = 10.4435
Neighbor list builds = 0
Dangerous builds = 0
write_dump all custom pysimm.dump.tmp id q x y z vx vy vz
quit


################################################################################
##################################    Init    ##################################
################################################################################
units           real
atom_style      full
pair_style      lj/cut/coul/long 12.0  12.0
kspace_style    pppm 1e-4
bond_style      harmonic
angle_style     harmonic
dihedral_style  fourier
improper_style  cvff
special_bonds   amber
pair_modify     mix arithmetic
read_data       temp.lmps
  orthogonal box = (-186.292 -186.292 -186.292) to (186.292 186.292 186.292)
  1 by 1 by 1 MPI processor grid
  reading atoms ...
  1717 atoms
  reading velocities ...
  1717 velocities
  scanning bonds ...
  3 = max bonds/atom
  scanning angles ...
  6 = max angles/atom
  scanning dihedrals ...
  10 = max dihedrals/atom
  scanning impropers ...
  1 = max impropers/atom
  reading bonds ...
  1863 bonds
  reading angles ...
  3038 angles
  reading dihedrals ...
  4506 dihedrals
  reading impropers ...
  588 impropers
  4 = max # of 1-2 neighbors
  7 = max # of 1-3 neighbors
  13 = max # of 1-4 neighbors
  16 = max # of special neighbors
  special bonds CPU = 0.00132608 secs
  read_data CPU = 0.0175068 secs
################################################################################

min_style cg
minimize 1e-06 1e-06 1000000 10000000
WARNING: Using 'neigh_modify every 1 delay 0 check yes' setting during minimization (../min.cpp:190)
PPPM initialization ...
WARNING: System is not charge neutral, net charge = 4.9e-05 (../kspace.cpp:313)
  using 12-bit tables for long-range coulomb (../kspace.cpp:332)
  G vector (1/distance) = 0.103972
  grid = 36 36 36
  stencil order = 5
  estimated absolute RMS force accuracy = 0.0330125
  estimated relative force accuracy = 9.94163e-05
  using double precision KISS FFT
  3d grid and FFT values/proc = 68921 46656
Neighbor list info ...
  update every 1 steps, delay 0 steps, check yes
  max neighbors/atom: 2000, page size: 100000
  master list distance cutoff = 14
  ghost atom cutoff = 14
  binsize = 7, bins = 54 54 54
  1 neighbor lists, perpetual/occasional/extra = 1 0 0
  (1) pair lj/cut/coul/long, perpetual
      attributes: half, newton on
      pair build: half/bin/newton
      stencil: half/bin/3d/newton
      bin: standard
Per MPI rank memory allocation (min/avg/max) = 21.71 | 21.71 | 21.71 Mbytes
Step Temp E_pair E_mol TotEng Press 
       0    506.18544    2145.9488    2902.3035    7637.4263    1.5898972 
       1    506.18544    2145.9488    2902.3035    7637.4263    1.5898972 
Loop time of 1.31137 on 1 procs for 1 steps with 1717 atoms

100.0% CPU use with 1 MPI tasks x no OpenMP threads

Minimization stats:
  Stopping criterion = quadratic factors are zero
  Energy initial, next-to-last, final = 
         5048.25231046      5048.25231046      5048.25231046
  Force two-norm initial, final = 8.07885e+14 8.07885e+14
  Force max component initial, final = 6.22388e+14 6.22388e+14
  Final line search alpha, max atom move = 1.14164e-30 7.10543e-16
  Iterations, force evaluations = 1 75

MPI task timing breakdown:
Section |  min time  |  avg time  |  max time  |%varavg| %total
---------------------------------------------------------------
Pair    | 0.43682    | 0.43682    | 0.43682    |   0.0 | 33.31
Bond    | 0.059265   | 0.059265   | 0.059265   |   0.0 |  4.52
Kspace  | 0.81346    | 0.81346    | 0.81346    |   0.0 | 62.03
Neigh   | 0          | 0          | 0          |   0.0 |  0.00
Comm    | 3.9101e-05 | 3.9101e-05 | 3.9101e-05 |   0.0 |  0.00
Output  | 0          | 0          | 0          |   0.0 |  0.00
Modify  | 0          | 0          | 0          |   0.0 |  0.00
Other   |            | 0.001786   |            |       |  0.14

Nlocal:    1717 ave 1717 max 1717 min
Histogram: 1 0 0 0 0 0 0 0 0 0
Nghost:    0 ave 0 max 0 min
Histogram: 1 0 0 0 0 0 0 0 0 0
Neighs:    172863 ave 172863 max 172863 min
Histogram: 1 0 0 0 0 0 0 0 0 0

Total # of neighbors = 172863
Ave neighs/atom = 100.677
Ave special neighs/atom = 10.4438
Neighbor list builds = 0
Dangerous builds = 0
write_dump all custom pysimm.dump.tmp id q x y z vx vy vz
quit


################################################################################
##################################    Init    ##################################
################################################################################
units           real
atom_style      full
pair_style      lj/cut/coul/long 12.0  12.0
kspace_style    pppm 1e-4
bond_style      harmonic
angle_style     harmonic
dihedral_style  fourier
improper_style  cvff
special_bonds   amber
pair_modify     mix arithmetic
read_data       temp.lmps
  orthogonal box = (-187.576 -187.576 -187.576) to (187.576 187.576 187.576)
  1 by 1 by 1 MPI processor grid
  reading atoms ...
  1752 atoms
  reading velocities ...
  1752 velocities
  scanning bonds ...
  3 = max bonds/atom
  scanning angles ...
  6 = max angles/atom
  scanning dihedrals ...
  10 = max dihedrals/atom
  scanning impropers ...
  1 = max impropers/atom
  reading bonds ...
  1901 bonds
  reading angles ...
  3100 angles
  reading dihedrals ...
  4598 dihedrals
  reading impropers ...
  600 impropers
  4 = max # of 1-2 neighbors
  7 = max # of 1-3 neighbors
  13 = max # of 1-4 neighbors
  16 = max # of special neighbors
  special bonds CPU = 0.00133491 secs
  read_data CPU = 0.017668 secs
################################################################################

min_style cg
minimize 1e-06 1e-06 1000000 10000000
WARNING: Using 'neigh_modify every 1 delay 0 check yes' setting during minimization (../min.cpp:190)
PPPM initialization ...
WARNING: System is not charge neutral, net charge = 5e-05 (../kspace.cpp:313)
  using 12-bit tables for long-range coulomb (../kspace.cpp:332)
  G vector (1/distance) = 0.103472
  grid = 36 36 36
  stencil order = 5
  estimated absolute RMS force accuracy = 0.0335022
  estimated relative force accuracy = 0.000100891
  using double precision KISS FFT
  3d grid and FFT values/proc = 68921 46656
Neighbor list info ...
  update every 1 steps, delay 0 steps, check yes
  max neighbors/atom: 2000, page size: 100000
  master list distance cutoff = 14
  ghost atom cutoff = 14
  binsize = 7, bins = 54 54 54
  1 neighbor lists, perpetual/occasional/extra = 1 0 0
  (1) pair lj/cut/coul/long, perpetual
      attributes: half, newton on
      pair build: half/bin/newton
      stencil: half/bin/3d/newton
      bin: standard
Per MPI rank memory allocation (min/avg/max) = 21.71 | 21.71 | 21.71 Mbytes
Step Temp E_pair E_mol TotEng Press 
       0     579.4036    2203.0983    2917.2127    8144.4493    2.1402195 
       1     579.4036    2203.0983    2917.2127    8144.4493    2.1402195 
Loop time of 1.4059 on 1 procs for 1 steps with 1752 atoms

100.0% CPU use with 1 MPI tasks x no OpenMP threads

Minimization stats:
  Stopping criterion = quadratic factors are zero
  Energy initial, next-to-last, final = 
         5120.31103929      5120.31103929      5120.31103929
  Force two-norm initial, final = 7.17363e+14 7.17363e+14
  Force max component initial, final = 5.08767e+14 5.08767e+14
  Final line search alpha, max atom move = 6.98299e-31 3.55271e-16
  Iterations, force evaluations = 1 77

MPI task timing breakdown:
Section |  min time  |  avg time  |  max time  |%varavg| %total
---------------------------------------------------------------
Pair    | 0.48415    | 0.48415    | 0.48415    |   0.0 | 34.44
Bond    | 0.063516   | 0.063516   | 0.063516   |   0.0 |  4.52
Kspace  | 0.85638    | 0.85638    | 0.85638    |   0.0 | 60.91
Neigh   | 0          | 0          | 0          |   0.0 |  0.00
Comm    | 4.2915e-05 | 4.2915e-05 | 4.2915e-05 |   0.0 |  0.00
Output  | 0          | 0          | 0          |   0.0 |  0.00
Modify  | 0          | 0          | 0          |   0.0 |  0.00
Other   |            | 0.001817   |            |       |  0.13

Nlocal:    1752 ave 1752 max 1752 min
Histogram: 1 0 0 0 0 0 0 0 0 0
Nghost:    0 ave 0 max 0 min
Histogram: 1 0 0 0 0 0 0 0 0 0
Neighs:    185177 ave 185177 max 185177 min
Histogram: 1 0 0 0 0 0 0 0 0 0

Total # of neighbors = 185177
Ave neighs/atom = 105.695
Ave special neighs/atom = 10.4441
Neighbor list builds = 0
Dangerous builds = 0
write_dump all custom pysimm.dump.tmp id q x y z vx vy vz
quit
