pySIMM System Object

1612 atoms
1749 bonds
2852 angles
4230 dihedrals
552 impropers

7 atom types
7 bond types
11 angle types
4 dihedral types
1 improper types

-182.326752 182.326752 xlo xhi
-182.326752 182.326752 ylo yhi
-182.326752 182.326752 zlo zhi

Masses

   1	1.008	# ha
   2	12.01	# ca
   3	32.06	# sy
   4	16.0	# o
   5	16.0	# os
   6	1.008	# ho
   7	16.0	# oh

Pair Coeffs

   1	0.015	2.59964245953351	# ha
   2	0.086	3.3996695084235347	# ca
   3	0.25	3.563594872561357	# sy
   4	0.21	2.959921901149463	# o
   5	0.17	3.0000123434657784	# os
   6	0.0	0.0	# ho
   7	0.2104	3.0664733878390478	# oh

Bond Coeffs

   1	493.0	1.466	# o,sy
   2	345.8	1.086	# ca,ha
   3	384.0	1.3637	# ca,oh
   4	376.6	1.3696	# ca,os
   5	371.4	0.973	# ho,oh
   6	243.4	1.7909	# ca,sy
   7	461.1	1.3984	# ca,ca

Angle Coeffs

   1	48.18	119.88	# ca,ca,ha
   2	61.48	119.42	# ca,ca,sy
   3	72.54	121.41	# o,sy,o
   4	69.58	119.2	# ca,ca,os
   5	60.3	104.44	# ca,sy,ca
   6	49.0	108.58	# ca,oh,ho
   7	65.77	108.35	# ca,sy,o
   8	63.48	119.89	# ca,os,ca
   9	69.52	119.9	# ca,ca,oh
  10	66.62	120.02	# ca,ca,ca
  11	63.5	119.89	# ca,oh,ca

Dihedral Coeffs

   1	1	0.9	2	180	# X,ca,os,X
   2	1	0.9	2	180	# X,ca,oh,X
   3	1	3.625	2	180	# X,ca,ca,X
   4	1	1.3	2	180	# X,ca,sy,X

Improper Coeffs

   1	1.1	-1	2	# ca,X,X,ha

Atoms

   1	1	1	0.203463	19.2051	0.350128	-16.8496
   2	1	2	-0.404697	20.0486	-0.133471	-17.3344
   3	1	2	-0.023572	21.2057	-0.441837	-16.5977
   4	1	1	0.153856	21.2603	-0.1984	-15.5362
   5	1	2	-0.109138	22.2942	-1.06204	-17.2372
   6	1	3	0.998761	23.7733	-1.48215	-16.3023
   7	1	2	-0.03943	22.2155	-1.38566	-18.6046
   8	1	1	0.156851	23.0535	-1.8758	-19.0984
   9	1	2	-0.395833	21.0499	-1.08148	-19.3292
  10	1	1	0.202602	20.9825	-1.32918	-20.3845
  11	1	2	0.320255	19.9656	-0.453737	-18.6977
  12	1	4	-0.566353	24.9175	-0.728473	-16.8205
  13	1	4	-0.565639	23.4539	-1.41646	-14.8715
  14	1	1	0.171248	26.2309	-2.9852	-16.8148
  15	1	2	-0.142243	25.3963	-3.68142	-16.8849
  16	1	2	-0.199349	25.6361	-5.04502	-17.1273
  17	1	1	0.156233	26.6509	-5.41475	-17.2309
  18	1	2	0.310144	24.5615	-5.94205	-17.2093
  19	1	5	-0.374171	24.8005	-7.28653	-17.3168
  20	1	1	0.18393	21.9743	-3.77879	-16.6654
  21	1	2	-0.1794	22.9996	-4.12114	-16.8078
  22	1	2	-0.069637	24.0771	-3.21787	-16.7045
  23	1	1	0.24118	25.4387	-6.81075	-14.82
  24	1	1	0.2544	24.7425	-8.21021	-12.8521
  25	1	2	-0.557237	24.858	-7.71923	-14.9634
  26	1	2	-0.032586	24.4621	-8.50411	-13.8636
  27	1	2	0.370208	24.4793	-8.09889	-16.2616
  28	1	2	0.127886	23.6657	-9.65346	-14.0564
  29	1	7	-0.036788	23.2032	-10.3657	-12.9813
  30	1	2	0.039962	23.7247	-9.27073	-16.4616
  31	1	2	-0.445847	23.3093	-10.0478	-15.3586
  32	1	1	0.122566	23.4381	-9.55154	-17.4709
  33	1	1	0.163876	22.7051	-10.9386	-15.5145
  34	1	2	-0.180142	23.2445	-5.47834	-17.0703
  35	1	1	0.144642	22.4143	-6.17593	-17.1327
  36	1	1	0.203463	21.4924	-8.34274	-12.9211
  37	1	2	-0.404697	21.88	-8.63616	-11.9506
  38	1	2	-0.023572	21.4823	-7.93141	-10.8036
  39	1	1	0.153856	20.7943	-7.09001	-10.8888
  40	1	2	-0.109138	21.9793	-8.31352	-9.54606
  41	1	3	0.998761	21.5085	-7.37841	-8.08174
  42	1	2	-0.03943	22.8496	-9.41515	-9.4386
  43	1	1	0.156851	23.2272	-9.71808	-8.46234
  44	1	2	-0.395833	23.2389	-10.1163	-10.5944
  45	1	1	0.202602	23.9181	-10.9614	-10.517
  46	1	2	0.320255	22.7646	-9.72408	-11.8545
  47	1	4	-0.566353	20.1896	-6.79521	-8.34933
  48	1	4	-0.565639	21.7551	-8.2399	-6.91729
  49	1	1	0.171248	21.5432	-4.78175	-9.42847
  50	1	2	-0.142243	22.4521	-4.85437	-8.83255
  51	1	2	-0.199349	23.3485	-3.77059	-8.78907
  52	1	1	0.156233	23.1319	-2.86682	-9.34913
  53	1	2	0.310144	24.5045	-3.84245	-7.99254
  54	1	5	-0.374171	25.3621	-2.77848	-7.87097
  55	1	1	0.18393	24.0652	-6.97282	-6.67932
  56	1	2	-0.1794	23.8706	-6.08867	-7.28452
  57	1	2	-0.069637	22.7038	-6.01619	-8.07318
  58	1	1	0.24118	27.1181	-3.39149	-9.69281
  59	1	1	0.2544	27.846	-1.88991	-11.5834
  60	1	2	-0.557237	26.6768	-2.40858	-9.82486
  61	1	2	-0.032586	27.0822	-1.56375	-10.8787
  62	1	2	0.370208	25.7022	-1.96841	-8.92025
  63	1	2	0.127886	26.5103	-0.285611	-11.0321
  64	1	7	-0.036788	26.979	0.529891	-12.0293
  65	1	2	0.039962	25.1362	-0.686802	-9.05798
  66	1	2	-0.445847	25.531	0.155858	-10.1182
  67	1	1	0.122566	24.4032	-0.348678	-8.33176
  68	1	1	0.163876	25.1028	1.15193	-10.2081
  69	1	2	-0.180142	24.7619	-5.00055	-7.24377
  70	1	1	0.144642	25.6471	-5.03773	-6.61564
  71	1	1	0.203463	27.7108	2.91149	-12.8317
  72	1	2	-0.404697	26.7228	2.61597	-13.1703
  73	1	2	-0.023572	25.9705	3.48446	-13.9818
  74	1	1	0.153856	26.3741	4.45576	-14.2653
  75	1	2	-0.109138	24.6929	3.09826	-14.4255
  76	1	3	0.998761	23.7235	4.19627	-15.477
  77	1	2	-0.03943	24.1703	1.84948	-14.0453
  78	1	1	0.156851	23.1817	1.54779	-14.3862
  79	1	2	-0.395833	24.9257	0.992076	-13.2269
  80	1	1	0.202602	24.5194	0.0247564	-12.9478
  81	1	2	0.320255	26.2026	1.37197	-12.7817
  82	1	4	-0.566353	22.3136	3.99194	-15.1222
  83	1	4	-0.565639	24.3658	5.51597	-15.4514
  84	1	1	0.171248	25.731	4.6674	-17.5626
  85	1	2	-0.142243	25.0476	3.90377	-17.9305
  86	1	2	-0.199349	25.2469	3.33102	-19.2009
  87	1	1	0.156233	26.0855	3.6361	-19.8187
  88	1	2	0.310144	24.3663	2.34754	-19.673
  89	1	5	-0.374171	24.6007	1.74805	-20.8839
  90	1	1	0.18393	22.203	2.22775	-17.0274
  91	1	2	-0.1794	23.0613	2.52714	-17.6258
  92	1	2	-0.069637	23.9623	3.49115	-17.1294
  93	1	1	0.24118	23.8038	0.351152	-22.9096
  94	1	1	0.2544	24.0612	-2.15174	-23.1734
  95	1	2	-0.557237	24.2852	-0.248794	-22.1421
  96	1	2	-0.032586	24.4338	-1.64557	-22.2841
  97	1	2	0.370208	24.767	0.389446	-20.9906
  98	1	2	0.127886	25.0703	-2.40606	-21.2825
  99	1	7	-0.036788	25.1584	-3.76667	-21.4408
 100	1	2	0.039962	25.4092	-0.366581	-19.9872
 101	1	2	-0.445847	25.5543	-1.76235	-20.1257
 102	1	1	0.122566	25.7896	0.130939	-19.0995
 103	1	1	0.163876	26.0361	-2.32941	-19.3343
 104	1	2	-0.180142	23.2636	1.96197	-18.8962
 105	1	1	0.144642	22.5677	1.22762	-19.2841
 106	1	1	0.203463	27.7674	-3.18643	-21.3448
 107	1	2	-0.404697	27.4992	-4.15433	-20.9306
 108	1	2	-0.023572	28.5008	-4.99393	-20.4108
 109	1	1	0.153856	29.5428	-4.67585	-20.4234
 110	1	2	-0.109138	28.157	-6.25109	-19.8823
 111	1	3	0.998761	29.4254	-7.31316	-19.166
 112	1	2	-0.03943	26.8157	-6.67274	-19.8998
 113	1	1	0.156851	26.5484	-7.6521	-19.504
 114	1	2	-0.395833	25.8214	-5.82587	-20.4207
 115	1	1	0.202602	24.7852	-6.15034	-20.4261
 116	1	2	0.320255	26.152	-4.55783	-20.9221
 117	1	4	-0.566353	28.9713	-8.69924	-19.3233
 118	1	4	-0.565639	30.7283	-6.83627	-19.6438
 119	1	1	0.171248	27.8269	-8.4429	-16.987
 120	1	2	-0.142243	28.4132	-7.62243	-16.5744
 121	1	2	-0.199349	28.2857	-7.2805	-15.2166
 122	1	1	0.156233	27.6086	-7.83586	-14.5768
 123	1	2	0.310144	29.0344	-6.22006	-14.6836
 124	1	5	-0.374171	28.8487	-5.83632	-13.3807
 125	1	1	0.18393	30.777	-5.32004	-17.4871
 126	1	2	-0.1794	30.0721	-5.85983	-16.8553
 127	1	2	-0.069637	29.2994	-6.90525	-17.404
 128	1	1	0.24118	27.6513	-3.84711	-14.6373
 129	1	1	0.2544	25.4354	-2.83577	-13.9625
 130	1	2	-0.557237	27.1259	-4.20314	-13.7557
 131	1	2	-0.032586	25.8907	-3.63588	-13.3771
 132	1	2	0.370208	27.6736	-5.24865	-12.9923
 133	1	2	0.127886	25.2086	-4.11466	-12.2425
 134	1	7	-0.036788	23.9677	-3.62275	-11.9473
 135	1	2	0.039962	27.0028	-5.7105	-11.8436
 136	1	2	-0.445847	25.7603	-5.15656	-11.4716
 137	1	1	0.122566	27.4427	-6.5147	-11.2616
 138	1	1	0.163876	25.2303	-5.52655	-10.5965
 139	1	2	-0.180142	29.9385	-5.52029	-15.4961
 140	1	1	0.144642	30.526	-4.7124	-15.0701
 141	1	1	0.203463	23.7439	-5.89601	-13.3174
 142	1	2	-0.404697	22.8623	-5.27032	-13.3285
 143	1	2	-0.023572	21.749	-5.67785	-14.0723
 144	1	1	0.153856	21.782	-6.60764	-14.6373
 145	1	2	-0.109138	20.6036	-4.87058	-14.1101
 146	1	3	0.998761	19.2022	-5.41815	-15.0913
 147	1	2	-0.03943	20.5756	-3.65529	-13.401
 148	1	1	0.156851	19.692	-3.01884	-13.4442
 149	1	2	-0.395833	21.7041	-3.25191	-12.6624
 150	1	1	0.202602	21.7001	-2.29666	-12.1451
 151	1	2	0.320255	22.8598	-4.04759	-12.6347
 152	1	4	-0.566353	18.1306	-4.43218	-14.9189
 153	1	4	-0.565639	19.7476	-5.78179	-16.4052
 154	1	1	0.171248	19.7747	-8.25198	-15.6511
 155	1	2	-0.142243	19.1826	-8.20507	-14.738
 156	1	2	-0.199349	18.8231	-9.39368	-14.0747
 157	1	1	0.156233	19.128	-10.3554	-14.4771
 158	1	2	0.310144	18.0251	-9.34181	-12.918
 159	1	5	-0.374171	17.5971	-10.4861	-12.2925
 160	1	1	0.18393	17.5946	-5.95144	-12.7077
 161	1	2	-0.1794	17.9497	-6.91081	-13.0834
 162	1	2	-0.069637	18.7443	-6.95672	-14.2469
 163	1	1	0.24118	16.7519	-12.9031	-12.725
 164	1	1	0.2544	18.0398	-15.0031	-12.3048
 165	1	2	-0.557237	17.781	-12.8546	-12.3751
 166	1	2	-0.032586	18.5126	-14.0367	-12.1372
 167	1	2	0.370208	18.3687	-11.6081	-12.1327
 168	1	2	0.127886	19.8413	-13.976	-11.662
 169	1	7	-0.036788	20.5697	-15.1009	-11.3569
 170	1	2	0.039962	19.6853	-11.5401	-11.6383
 171	1	2	-0.445847	20.4267	-12.7189	-11.4131
 172	1	1	0.122566	20.1077	-10.5732	-11.393
 173	1	1	0.163876	21.4345	-12.657	-11.0133
 174	1	2	-0.180142	17.5897	-8.10208	-12.4275
 175	1	1	0.144642	16.959	-8.07403	-11.5444
 176	1	1	0.203463	20.7274	-17.1418	-9.74234
 177	1	2	-0.404697	20.4212	-17.4042	-10.7493
 178	1	2	-0.023572	20.1803	-18.7501	-11.0768
 179	1	1	0.153856	20.3086	-19.5298	-10.328
 180	1	2	-0.109138	19.7835	-19.0956	-12.3788
 181	1	3	0.998761	19.5469	-20.8335	-12.8065
 182	1	2	-0.03943	19.633	-18.0884	-13.3508
 183	1	1	0.156851	19.3486	-18.3551	-14.3684
 184	1	2	-0.395833	19.8868	-16.7442	-13.0172
 185	1	1	0.202602	19.81	-15.98	-13.785
 186	1	2	0.320255	20.2696	-16.3935	-11.7094
 187	1	4	-0.566353	19.5079	-20.9097	-14.2709
 188	1	4	-0.565639	20.4949	-21.6181	-12.0023
 189	1	1	0.171248	16.862	-20.32	-13.8775
 190	1	2	-0.142243	16.7494	-20.8571	-12.9369
 191	1	2	-0.199349	15.4647	-21.198	-12.4754
 192	1	1	0.156233	14.5845	-20.9184	-13.0471
 193	1	2	0.310144	15.3107	-21.9079	-11.2759
 194	1	5	-0.374171	14.0485	-22.2513	-10.862
 195	1	1	0.18393	18.5994	-22.1984	-10.3877
 196	1	2	-0.1794	17.7273	-21.9095	-10.9699
 197	1	2	-0.069637	17.8886	-21.2183	-12.1888
 198	1	1	0.24118	15.3031	-24.5539	-11.4372
 199	1	1	0.2544	14.6855	-26.77	-10.5416
 200	1	2	-0.557237	14.4488	-24.6392	-10.7696
 201	1	2	-0.032586	14.0834	-25.9051	-10.2705
 202	1	2	0.370208	13.7133	-23.5004	-10.3955
 203	1	2	0.127886	12.9553	-26.0537	-9.43053
 204	1	7	-0.036788	12.5507	-27.2704	-8.93167
 205	1	2	0.039962	12.597	-23.6418	-9.55055
 206	1	2	-0.445847	12.212	-24.9126	-9.07241
 207	1	1	0.122566	12.0351	-22.7561	-9.26889
 208	1	1	0.163876	11.3485	-25.0071	-8.41986
 209	1	2	-0.180142	16.4419	-22.2447	-10.512
 210	1	1	0.144642	16.319	-22.7859	-9.57797
 211	1	1	0.203463	13.5701	-28.6868	-6.98728
 212	1	2	-0.404697	13.7219	-29.1202	-7.97104
 213	1	2	-0.023572	14.4675	-30.3024	-8.11308
 214	1	1	0.153856	14.8932	-30.7848	-7.23499
 215	1	2	-0.109138	14.702	-30.8339	-9.39398
 216	1	3	0.998761	15.7472	-32.2885	-9.58676
 217	1	2	-0.03943	14.1687	-30.1915	-10.5265
 218	1	1	0.156851	14.363	-30.5918	-11.5206
 219	1	2	-0.395833	13.4145	-29.0139	-10.3741
 220	1	1	0.202602	13.0093	-28.5115	-11.2482
 221	1	2	0.320255	13.2222	-28.4531	-9.09878
 222	1	4	-0.566353	16.3866	-32.229	-10.9071
 223	1	4	-0.565639	16.5285	-32.4182	-8.35105
 224	1	1	0.171248	15.0752	-34.2483	-11.6489
 225	1	2	-0.142243	14.4987	-34.495	-10.759
 226	1	2	-0.199349	13.6751	-35.6325	-10.7556
 227	1	1	0.156233	13.6109	-36.2509	-11.6455
 228	1	2	0.310144	12.9451	-35.9763	-9.60289
 229	1	5	-0.374171	12.172	-37.111	-9.56939
 230	1	1	0.18393	13.9493	-33.4268	-7.55472
 231	1	2	-0.1794	13.8602	-34.0315	-8.4551
 232	1	2	-0.069637	14.6023	-33.6918	-9.60597
 233	1	1	0.24118	11.098	-37.9806	-11.7748
 234	1	1	0.2544	12.0041	-39.8853	-13.1767
 235	1	2	-0.557237	11.9547	-38.5632	-11.4484
 236	1	2	-0.032586	12.4663	-39.6233	-12.2269
 237	1	2	0.370208	12.5804	-38.2324	-10.2378
 238	1	2	0.127886	13.6066	-40.3346	-11.8037
 239	1	7	-0.036788	14.1163	-41.3197	-12.6094
 240	1	2	0.039962	13.6928	-38.9675	-9.78786
 241	1	2	-0.445847	14.2064	-40.0226	-10.5667
 242	1	1	0.122566	14.165	-38.6958	-8.84884
 243	1	1	0.163876	15.0719	-40.5777	-10.2147
 244	1	2	-0.180142	13.0279	-35.1672	-8.4601
 245	1	1	0.144642	12.4633	-35.4412	-7.57352
 246	1	1	0.203463	15.1915	-43.6975	-12.7981
 247	1	2	-0.404697	15.9112	-42.8851	-12.83
 248	1	2	-0.023572	17.2846	-43.1651	-12.9268
 249	1	1	0.153856	17.6284	-44.1963	-12.9731
 250	1	2	-0.109138	18.218	-42.1136	-12.9386
 251	1	3	0.998761	19.9794	-42.4922	-12.8982
 252	1	2	-0.03943	17.7695	-40.7809	-12.9163
 253	1	1	0.156851	18.487	-39.9604	-12.9507
 254	1	2	-0.395833	16.3938	-40.51	-12.8168
 255	1	1	0.202602	16.0523	-39.4797	-12.7703
 256	1	2	0.320255	15.4596	-41.56	-12.746
 257	1	4	-0.566353	20.21	-43.5313	-13.9063
 258	1	4	-0.565639	20.7183	-41.2252	-12.864
 259	1	1	0.171248	20.6778	-41.4848	-10.2289
 260	1	2	-0.142243	20.4427	-42.5436	-10.1324
 261	1	2	-0.199349	20.4568	-43.1565	-8.86586
 262	1	1	0.156233	20.6898	-42.579	-7.97666
 263	1	2	0.310144	20.1635	-44.5235	-8.74549
 264	1	5	-0.374171	20.1141	-45.1069	-7.50792
 265	1	1	0.18393	19.6475	-45.2745	-12.0396
 266	1	2	-0.1794	19.8644	-44.6798	-11.1532
 267	1	2	-0.069637	20.1243	-43.2988	-11.2804
 268	1	1	0.24118	17.6418	-44.3275	-8.25964
 269	1	1	0.2544	15.6384	-44.3232	-6.76486
 270	1	2	-0.557237	17.7319	-44.6952	-7.24171
 271	1	2	-0.032586	16.5959	-44.702	-6.40234
 272	1	2	0.370208	18.9713	-45.1457	-6.74521
 273	1	2	0.127886	16.691	-45.1624	-5.07514
 274	1	7	-0.036788	15.5837	-45.1368	-4.26907
 275	1	2	0.039962	19.0579	-45.6281	-5.42627
 276	1	2	-0.445847	17.9233	-45.645	-4.59115
 277	1	1	0.122566	20.015	-45.9815	-5.05418
 278	1	1	0.163876	18.0049	-46.0334	-3.58063
 279	1	2	-0.180142	19.8814	-45.2881	-9.88605
 280	1	1	0.144642	19.6637	-46.3465	-9.77993
 281	1	1	0.203463	15.9948	-42.6518	-3.50597
 282	1	2	-0.404697	15.9174	-43.361	-2.68818
 283	1	2	-0.023572	16.0665	-42.9234	-1.36092
 284	1	1	0.153856	16.2604	-41.8726	-1.14961
 285	1	2	-0.109138	15.9794	-43.8501	-0.307351
 286	1	3	0.998761	16.2786	-43.3245	1.38972
 287	1	2	-0.03943	15.701	-45.2011	-0.583854
 288	1	1	0.156851	15.6118	-45.9142	0.234621
 289	1	2	-0.395833	15.5498	-45.6276	-1.91564
 290	1	1	0.202602	15.3463	-46.6719	-2.13441
 291	1	2	0.320255	15.6688	-44.7121	-2.97209
 292	1	4	-0.566353	15.3063	-44.0256	2.23503
 293	1	4	-0.565639	16.436	-41.8653	1.38369
 294	1	1	0.171248	17.0615	-45.918	2.4947
 295	1	2	-0.142243	17.9734	-45.3839	2.23152
 296	1	2	-0.199349	19.2241	-45.9998	2.41064
 297	1	1	0.156233	19.2776	-47.0128	2.7981
 298	1	2	0.310144	20.4038	-45.3128	2.07368
 299	1	5	-0.374171	21.633	-45.9051	2.22499
 300	1	1	0.18393	19.0287	-42.3736	0.989279
 301	1	2	-0.1794	19.0813	-43.3862	1.38637
 302	1	2	-0.069637	17.8951	-44.0775	1.70789
 303	1	1	0.24118	22.3408	-48.3963	2.00562
 304	1	1	0.2544	22.8383	-49.9515	3.92946
 305	1	2	-0.557237	22.2747	-48.0545	3.03456
 306	1	2	-0.032586	22.5417	-48.9203	4.1175
 307	1	2	0.370208	21.9045	-46.7261	3.28632
 308	1	2	0.127886	22.431	-48.457	5.4496
 309	1	7	-0.036788	22.7077	-49.26	6.52712
 310	1	2	0.039962	21.7985	-46.2584	4.61074
 311	1	2	-0.445847	22.0632	-47.1214	5.69284
 312	1	1	0.122566	21.5126	-45.2262	4.79109
 313	1	1	0.163876	21.9851	-46.7543	6.71359
 314	1	2	-0.180142	20.3307	-44.0068	1.56791
 315	1	1	0.144642	21.2456	-43.4837	1.3075
 316	1	1	0.203463	20.6516	-50.7883	5.8203
 317	1	2	-0.404697	21.5564	-51.3329	6.07716
 318	1	2	-0.023572	21.5613	-52.7393	6.04733
 319	1	1	0.153856	20.6635	-53.2868	5.7614
 320	1	2	-0.109138	22.7226	-53.4438	6.41198
 321	1	3	0.998761	22.7224	-55.2466	6.39314
 322	1	2	-0.03943	23.8712	-52.7395	6.8176
 323	1	1	0.156851	24.7633	-53.2837	7.12646
 324	1	2	-0.395833	23.8553	-51.3342	6.8498
 325	1	1	0.202602	24.7347	-50.7885	7.18041
 326	1	2	0.320255	22.7014	-50.6272	6.48331
 327	1	4	-0.566353	21.3533	-55.6935	6.67263
 328	1	4	-0.565639	23.8797	-55.6803	7.18361
 329	1	1	0.171248	25.193	-55.1956	4.83321
 330	1	2	-0.142243	24.3944	-55.5168	4.1665
 331	1	2	-0.199349	24.6815	-55.8438	2.82846
 332	1	1	0.156233	25.6986	-55.7696	2.45611
 333	1	2	0.310144	23.6573	-56.2948	1.97699
 334	1	5	-0.374171	23.9159	-56.6519	0.676762
 335	1	1	0.18393	21.0416	-56.2103	4.18085
 336	1	2	-0.1794	22.0553	-56.0893	3.80036
 337	1	2	-0.069637	23.0787	-55.6352	4.65871
 338	1	1	0.24118	24.0819	-54.0181	0.512423
 339	1	1	0.2544	25.6104	-52.7637	-1.02236
 340	1	2	-0.557237	24.7629	-54.5523	-0.143511
 341	1	2	-0.032586	25.6246	-53.8528	-1.01418
 342	1	2	0.370208	24.7657	-55.9573	-0.144811
 343	1	2	0.127886	26.4952	-54.5542	-1.88248
 344	1	7	-0.036788	27.3397	-53.9081	-2.7517
 345	1	2	0.039962	25.616	-56.6578	-1.01967
 346	1	2	-0.445847	26.4858	-55.9607	-1.88311
 347	1	1	0.122566	25.5962	-57.7435	-1.01979
 348	1	1	0.163876	27.1411	-56.5101	-2.55442
 349	1	2	-0.180142	22.3495	-56.424	2.46611
 350	1	1	0.144642	21.5699	-56.7956	1.80779
 351	1	1	0.203463	26.2923	-52.3064	-4.55709
 352	1	2	-0.404697	26.8458	-51.7973	-3.7726
 353	1	2	-0.023572	26.9277	-50.3942	-3.76469
 354	1	1	0.153856	26.4411	-49.8116	-4.54574
 355	1	2	-0.109138	27.635	-49.7393	-2.74095
 356	1	3	0.998761	27.6847	-47.9388	-2.70934
 357	1	2	-0.03943	28.2803	-50.4901	-1.74119
 358	1	1	0.156851	28.8451	-49.9839	-0.958453
 359	1	2	-0.395833	28.1972	-51.8937	-1.75982
 360	1	1	0.202602	28.6965	-52.4786	-0.9918
 361	1	2	0.320255	27.481	-52.5492	-2.77398
 362	1	4	-0.566353	28.5672	-47.536	-1.60867
 363	1	4	-0.565639	27.8768	-47.4911	-4.09258
 364	1	1	0.171248	26.3445	-47.6692	-0.121828
 365	1	2	-0.142243	25.6012	-47.4847	-0.896331
 366	1	2	-0.199349	24.2719	-47.1884	-0.543053
 367	1	1	0.156233	23.9741	-47.1373	0.500322
 368	1	2	0.310144	23.323	-46.9308	-1.54201
 369	1	5	-0.374171	22.0386	-46.6191	-1.18802
 370	1	1	0.18393	25.3124	-47.2779	-4.3038
 371	1	2	-0.1794	25.02	-47.2633	-3.25409
 372	1	2	-0.069637	25.9798	-47.5275	-2.25426
 373	1	1	0.24118	19.5338	-46.2227	-1.66007
 374	1	1	0.2544	18.4566	-43.9949	-2.15396
 375	1	2	-0.557237	20.1235	-45.3119	-1.70109
 376	1	2	-0.032586	19.526	-44.061	-1.96771
 377	1	2	0.370208	21.4995	-45.3856	-1.45032
 378	1	2	0.127886	20.3041	-42.8832	-1.97831
 379	1	7	-0.036788	19.7353	-41.6532	-2.18848
 380	1	2	0.039962	22.2804	-44.2095	-1.46026
 381	1	2	-0.445847	21.6837	-42.9585	-1.71774
 382	1	1	0.122566	23.3448	-44.2656	-1.25283
 383	1	1	0.163876	22.2882	-42.0548	-1.7117
 384	1	2	-0.180142	23.6934	-46.9658	-2.89576
 385	1	1	0.144642	22.9516	-46.7592	-3.66144
 386	1	1	0.203463	19.7516	-42.7508	-4.62805
 387	1	2	-0.404697	18.9706	-42.0149	-4.45903
 388	1	2	-0.023572	18.0678	-41.7131	-5.49121
 389	1	1	0.153856	18.1462	-42.2203	-6.44938
 390	1	2	-0.109138	17.052	-40.7651	-5.28529
 391	1	3	0.998761	15.8604	-40.4515	-6.59913
 392	1	2	-0.03943	16.9617	-40.0948	-4.05175
 393	1	1	0.156851	16.1759	-39.3572	-3.88756
 394	1	2	-0.395833	17.8754	-40.3979	-3.0251
 395	1	1	0.202602	17.8055	-39.8843	-2.06949
 396	1	2	0.320255	18.8711	-41.3701	-3.2142
 397	1	4	-0.566353	14.8216	-39.5597	-6.07389
 398	1	4	-0.565639	15.5464	-41.7612	-7.18606
 399	1	1	0.171248	17.5175	-41.324	-8.85218
 400	1	2	-0.142243	17.5516	-40.2365	-8.81397
 401	1	2	-0.199349	18.2883	-39.5262	-9.77565
 402	1	1	0.156233	18.8358	-40.0539	-10.5469
 403	1	2	0.310144	18.3139	-38.1253	-9.76519
 404	1	5	-0.374171	19.0214	-37.4957	-10.7585
 405	1	1	0.18393	16.3025	-37.581	-7.0486
 406	1	2	-0.1794	16.8653	-38.1277	-7.80486
 407	1	2	-0.069637	16.8336	-39.5387	-7.8227
 408	1	1	0.24118	17.7222	-35.406	-11.6483
 409	1	1	0.2544	18.5845	-33.0374	-11.6201
 410	1	2	-0.557237	18.6869	-35.1726	-11.2099
 411	1	2	-0.032586	19.1764	-33.8475	-11.193
 412	1	2	0.370208	19.4711	-36.2053	-10.6782
 413	1	2	0.127886	20.4466	-33.5594	-10.6446
 414	1	7	-0.036788	20.9693	-32.2903	-10.6689
 415	1	2	0.039962	20.7374	-35.924	-10.1327
 416	1	2	-0.445847	21.2283	-34.6024	-10.1143
 417	1	1	0.122566	21.3404	-36.7385	-9.74381
 418	1	1	0.163876	22.213	-34.3918	-9.70583
 419	1	2	-0.180142	17.6027	-37.4225	-8.77504
 420	1	1	0.144642	17.6061	-36.3357	-8.76647
 421	1	1	0.203463	19.0787	-31.8882	-8.84155
 422	1	2	-0.404697	19.2496	-31.0521	-9.51576
 423	1	2	-0.023572	18.4783	-29.8865	-9.38059
 424	1	1	0.153856	17.7152	-29.8297	-8.60552
 425	1	2	-0.109138	18.6799	-28.8066	-10.2579
 426	1	3	0.998761	17.6835	-27.3165	-10.0911
 427	1	2	-0.03943	19.6601	-28.8947	-11.2627
 428	1	1	0.156851	19.8138	-28.0594	-11.9452
 429	1	2	-0.395833	20.4317	-30.0651	-11.3863
 430	1	1	0.202602	21.1879	-30.1386	-12.1623
 431	1	2	0.320255	20.2204	-31.1526	-10.524
 432	1	4	-0.566353	17.4224	-26.783	-11.4329
 433	1	4	-0.565639	16.5884	-27.6237	-9.1643
 434	1	1	0.171248	19.293	-25.0315	-11.0296
 435	1	2	-0.142243	19.4448	-25.1345	-9.9553
 436	1	2	-0.199349	20.2581	-24.2116	-9.2726
 437	1	1	0.156233	20.7402	-23.4022	-9.81543
 438	1	2	0.310144	20.4272	-24.3172	-7.88223
 439	1	5	-0.374171	21.125	-23.3572	-7.19837
 440	1	1	0.18393	18.4871	-27.0707	-7.29816
 441	1	2	-0.1794	18.9944	-26.2822	-7.852
 442	1	2	-0.069637	18.7975	-26.1668	-9.24396
 443	1	1	0.24118	18.716	-22.7065	-6.34429
 444	1	1	0.2544	17.7516	-20.3738	-6.37306
 445	1	2	-0.557237	19.3107	-21.868	-6.69507
 446	1	2	-0.032586	18.7724	-20.5635	-6.71248
 447	1	2	0.370208	20.6258	-22.083	-7.14064
 448	1	2	0.127886	19.5384	-19.4875	-7.20705
 449	1	7	-0.036788	18.9888	-18.2401	-7.33072
 450	1	2	0.039962	21.4106	-20.9989	-7.5741
 451	1	2	-0.445847	20.8696	-19.6973	-7.61257
 452	1	1	0.122566	22.4255	-21.1833	-7.91261
 453	1	1	0.163876	21.4692	-18.8693	-7.97766
 454	1	2	-0.180142	19.8123	-25.36	-7.17502
 455	1	1	0.144642	19.9449	-25.425	-6.09946
 456	1	1	0.203463	17.6773	-19.9168	-9.00185
 457	1	2	-0.404697	17.4863	-18.8591	-9.14297
 458	1	2	-0.023572	16.5973	-18.4735	-10.1548
 459	1	1	0.153856	16.1283	-19.2289	-10.7779
 460	1	2	-0.109138	16.318	-17.1165	-10.3694
 461	1	3	0.998761	15.219	-16.6411	-11.7153
 462	1	2	-0.03943	16.9263	-16.1441	-9.55688
 463	1	1	0.156851	16.708	-15.0911	-9.72295
 464	1	2	-0.395833	17.8164	-16.5397	-8.54033
 465	1	1	0.202602	18.2917	-15.7963	-7.91238
 466	1	2	0.320255	18.1052	-17.898	-8.32448
 467	1	4	-0.566353	15.1294	-17.7869	-12.6246
 468	1	4	-0.565639	15.6272	-15.3178	-12.2025
 469	1	1	0.171248	13.6487	-18.2941	-9.82801
 470	1	2	-0.142243	13.0775	-17.3955	-10.0584
 471	1	2	-0.199349	11.8208	-17.1944	-9.45763
 472	1	1	0.156233	11.4251	-17.9291	-8.76225
 473	1	2	0.310144	11.0808	-16.0348	-9.73442
 474	1	5	-0.374171	9.8904	-15.8229	-9.08133
 475	1	1	0.18393	13.2011	-14.5643	-11.9796
 476	1	2	-0.1794	12.8224	-15.2941	-11.2652
 477	1	2	-0.069637	13.5933	-16.4315	-10.9492
 478	1	1	0.24118	11.5339	-13.8482	-8.32682
 479	1	1	0.2544	10.8168	-11.7051	-7.27897
 480	1	2	-0.557237	10.4792	-13.6568	-8.15295
 481	1	2	-0.032586	10.0693	-12.4485	-7.55424
 482	1	2	0.370208	9.5208	-14.6218	-8.51915
 483	1	2	0.127886	8.70007	-12.1999	-7.30307
 484	1	7	-0.036788	8.269	-11.0432	-6.70234
 485	1	2	0.039962	8.15872	-14.3753	-8.26378
 486	1	2	-0.445847	7.74534	-13.1698	-7.65811
 487	1	1	0.122566	7.42676	-15.1291	-8.53838
 488	1	1	0.163876	6.68989	-12.9921	-7.46605
 489	1	2	-0.180142	11.5659	-15.1035	-10.6682
 490	1	1	0.144642	10.9737	-14.2269	-10.9127
 491	1	1	0.203463	8.86414	-9.21483	-8.504
 492	1	2	-0.404697	9.36059	-9.08199	-7.54643
 493	1	2	-0.023572	10.2549	-8.01474	-7.36119
 494	1	1	0.153856	10.4526	-7.31612	-8.17346
 495	1	2	-0.109138	10.9025	-7.85146	-6.12463
 496	1	3	0.998761	12.1069	-6.52868	-5.93232
 497	1	2	-0.03943	10.6436	-8.74692	-5.07008
 498	1	1	0.156851	11.1413	-8.61733	-4.10893
 499	1	2	-0.395833	9.73923	-9.80686	-5.26215
 500	1	1	0.202602	9.53175	-10.4985	-4.45028
 501	1	2	0.320255	9.09263	-9.97272	-6.49657
 502	1	4	-0.566353	11.6225	-5.37627	-6.69856
 503	1	4	-0.565639	12.4402	-6.44395	-4.50867
 504	1	1	0.171248	14.2524	-8.39327	-5.16448
 505	1	2	-0.142243	14.3876	-8.14278	-6.21593
 506	1	2	-0.199349	15.4289	-8.73715	-6.95359
 507	1	1	0.156233	16.103	-9.42866	-6.46223
 508	1	2	0.310144	15.5817	-8.44759	-8.32344
 509	1	5	-0.374171	16.5361	-9.04087	-9.11337
 510	1	1	0.18393	13.0127	-6.21761	-8.68921
 511	1	2	-0.1794	13.6852	-6.92311	-8.2019
 512	1	2	-0.069637	13.5094	-7.23221	-6.83846
 513	1	1	0.24118	18.6001	-8.59602	-7.56586
 514	1	1	0.2544	20.2839	-10.3349	-6.85023
 515	1	2	-0.557237	18.4875	-9.63644	-7.86181
 516	1	2	-0.032586	19.4331	-10.61	-7.47473
 517	1	2	0.370208	17.4147	-9.99904	-8.68889
 518	1	2	0.127886	19.287	-11.9468	-7.89684
 519	1	7	-0.036788	20.1793	-12.9007	-7.48499
 520	1	2	0.039962	17.272	-11.3305	-9.11897
 521	1	2	-0.445847	18.2011	-12.3095	-8.7149
 522	1	1	0.122566	16.4529	-11.5913	-9.78344
 523	1	1	0.163876	18.1045	-13.3305	-9.07045
 524	1	2	-0.180142	14.7131	-7.53539	-8.93776
 525	1	1	0.144642	14.8341	-7.31614	-9.99448
 526	1	1	0.203463	17.9052	-13.1155	-6.09301
 527	1	2	-0.404697	18.6109	-13.9183	-5.93424
 528	1	2	-0.023572	18.2869	-14.9417	-5.03053
 529	1	1	0.153856	17.3449	-14.9105	-4.48306
 530	1	2	-0.109138	19.1846	-16.0021	-4.83121
 531	1	3	0.998761	18.8061	-17.2779	-3.61532
 532	1	2	-0.03943	20.3965	-16.0358	-5.5471
 533	1	1	0.156851	21.0916	-16.8622	-5.39823
 534	1	2	-0.395833	20.7155	-14.9949	-6.44029
 535	1	1	0.202602	21.6574	-15.0151	-6.98102
 536	1	2	0.320255	19.8312	-13.9221	-6.63409
 537	1	4	-0.566353	17.7291	-16.7497	-2.7728
 538	1	4	-0.565639	18.6154	-18.5501	-4.31726
 539	1	1	0.171248	20.577	-19.5147	-2.9124
 540	1	2	-0.142243	21.0052	-18.6052	-2.49171
 541	1	2	-0.199349	22.2224	-18.6599	-1.787
 542	1	1	0.156233	22.7412	-19.6046	-1.65704
 543	1	2	0.310144	22.7762	-17.4915	-1.2426
 544	1	5	-0.374171	23.9849	-17.5559	-0.598037
 545	1	1	0.18393	20.4062	-15.2417	-2.24823
 546	1	2	-0.1794	20.9084	-16.1985	-2.11899
 547	1	2	-0.069637	20.3405	-17.3728	-2.65754
 548	1	1	0.24118	25.9496	-16.0018	0.069691
 549	1	1	0.2544	26.387	-15.0985	2.39518
 550	1	2	-0.557237	25.2842	-16.2294	0.896224
 551	1	2	-0.032586	25.5221	-15.7287	2.19568
 552	1	2	0.370208	24.1693	-17.0496	0.663451
 553	1	2	0.127886	24.6565	-16.0645	3.25847
 554	1	7	-0.036788	24.9194	-15.6576	4.53847
 555	1	2	0.039962	23.3101	-17.3929	1.72637
 556	1	2	-0.445847	23.5577	-16.9102	3.0278
 557	1	1	0.122566	22.4612	-18.0432	1.53847
 558	1	1	0.163876	22.8943	-17.1832	3.84324
 559	1	2	-0.180142	22.1251	-16.2598	-1.41566
 560	1	1	0.144642	22.5659	-15.3581	-0.999907
 561	1	1	0.203463	26.0839	-14.9017	6.72801
 562	1	2	-0.404697	25.6156	-14.0871	6.18368
 563	1	2	-0.023572	25.6498	-12.7849	6.70976
 564	1	1	0.153856	26.1474	-12.59	7.65901
 565	1	2	-0.109138	25.0195	-11.7351	6.02153
 566	1	3	0.998761	24.9599	-10.097	6.77648
 567	1	2	-0.03943	24.3762	-11.9914	4.79481
 568	1	1	0.156851	23.8833	-11.1792	4.26183
 569	1	2	-0.395833	24.3522	-13.2997	4.27154
 570	1	1	0.202602	23.8245	-13.5012	3.34052
 571	1	2	0.320255	24.9686	-14.3562	4.96811
 572	1	4	-0.566353	24.5992	-9.13602	5.72747
 573	1	4	-0.565639	26.1475	-9.94908	7.6253
 574	1	1	0.171248	22.0969	-9.77915	6.32532
 575	1	2	-0.142243	22.2316	-10.1084	7.35485
 576	1	2	-0.199349	21.1126	-10.3943	8.15298
 577	1	1	0.156233	20.1172	-10.2954	7.73916
 578	1	2	0.310144	21.2763	-10.8575	9.46941
 579	1	5	-0.374171	20.1838	-11.2965	10.1774
 580	1	1	0.18393	24.6946	-10.8409	9.61563
 581	1	2	-0.1794	23.6921	-10.7078	9.21019
 582	1	2	-0.069637	23.5289	-10.2894	7.87143
 583	1	1	0.24118	20.9411	-13.7396	9.66039
 584	1	1	0.2544	19.7184	-15.3232	8.1255
 585	1	2	-0.557237	19.9568	-13.4901	9.27318
 586	1	2	-0.032586	19.2724	-14.3713	8.41317
 587	1	2	0.370208	19.3956	-12.2396	9.57309
 588	1	2	0.127886	18.0471	-13.9864	7.83347
 589	1	7	-0.036788	17.5184	-14.7371	6.8217
 590	1	2	0.039962	18.1369	-11.8853	9.05253
 591	1	2	-0.445847	17.4657	-12.7492	8.16558
 592	1	1	0.122566	17.7306	-10.9057	9.26969
 593	1	1	0.163876	16.5334	-12.441	7.70186
 594	1	2	-0.180142	22.5653	-10.99	10.0071
 595	1	1	0.144642	22.6862	-11.3554	11.0225
 596	1	1	0.203463	17.1861	-16.6953	5.10396
 597	1	2	-0.404697	17.9063	-15.9443	4.78643
 598	1	2	-0.023572	18.5656	-16.0843	3.55083
 599	1	1	0.153856	18.3586	-16.9449	2.91456
 600	1	2	-0.109138	19.5009	-15.1171	3.14122
 601	1	3	0.998761	20.3701	-15.2891	1.57461
 602	1	2	-0.03943	19.7856	-14.0241	3.97421
 603	1	1	0.156851	20.5367	-13.2951	3.67296
 604	1	2	-0.395833	19.1136	-13.8839	5.19907
 605	1	1	0.202602	19.3416	-13.0289	5.82937
 606	1	2	0.320255	18.1732	-14.8484	5.61928
 607	1	4	-0.566353	20.2427	-16.6887	1.15542
 608	1	4	-0.565639	21.6695	-14.6212	1.72676
 609	1	1	0.171248	20.6434	-12.4998	0.749397
 610	1	2	-0.142243	19.7933	-12.9178	0.212426
 611	1	2	-0.199349	19.1066	-12.1302	-0.726923
 612	1	1	0.156233	19.4283	-11.1113	-0.912061
 613	1	2	0.310144	18.0325	-12.6567	-1.46144
 614	1	5	-0.374171	17.4433	-11.8188	-2.38775
 615	1	1	0.18393	18.0715	-15.8447	-0.193056
 616	1	2	-0.1794	18.3462	-14.7955	-0.315578
 617	1	2	-0.069637	19.4144	-14.2571	0.428869
 618	1	1	0.24118	15.1454	-13.0355	-1.76271
 619	1	1	0.2544	13.3857	-13.7132	-3.42203
 620	1	2	-0.557237	15.2472	-12.7743	-2.80722
 621	1	2	-0.032586	14.2471	-13.1242	-3.73471
 622	1	2	0.370208	16.392	-12.0836	-3.23365
 623	1	2	0.127886	14.3772	-12.7585	-5.08824
 624	1	7	-0.036788	13.5104	-13.2691	-6.01375
 625	1	2	0.039962	16.4682	-11.633	-4.56431
 626	1	2	-0.445847	15.4732	-11.9825	-5.50288
 627	1	1	0.122566	17.3417	-11.0679	-4.87502
 628	1	1	0.163876	15.581	-11.7094	-6.54896
 629	1	2	-0.180142	17.6709	-14.004	-1.26437
 630	1	1	0.144642	16.8938	-14.465	-1.86229
 631	1	1	0.203463	15.7056	-14.607	-6.65027
 632	1	2	-0.404697	14.8112	-15.2163	-6.56508
 633	1	2	-0.023572	14.9098	-16.6105	-6.69149
 634	1	1	0.153856	15.8764	-17.0801	-6.85218
 635	1	2	-0.109138	13.7643	-17.4081	-6.5517
 636	1	3	0.998761	13.9241	-19.1995	-6.49149
 637	1	2	-0.03943	12.5199	-16.8072	-6.28916
 638	1	1	0.156851	11.6357	-17.4294	-6.15653
 639	1	2	-0.395833	12.4303	-15.411	-6.15067
 640	1	1	0.202602	11.4726	-14.9534	-5.91854
 641	1	2	0.320255	13.5761	-14.6113	-6.27682
 642	1	4	-0.566353	12.6825	-19.7848	-7.0123
 643	1	4	-0.565639	15.256	-19.5615	-6.99251
 644	1	1	0.171248	15.9994	-18.7052	-4.51609
 645	1	2	-0.142243	15.0902	-18.9736	-3.98097
 646	1	2	-0.199349	15.0578	-18.8804	-2.58081
 647	1	1	0.156233	15.9404	-18.5535	-2.03791
 648	1	2	0.310144	13.8727	-19.1664	-1.88472
 649	1	5	-0.374171	13.7992	-18.9994	-0.526163
 650	1	1	0.18393	11.8645	-19.986	-4.53327
 651	1	2	-0.1794	12.7603	-19.6909	-3.98792
 652	1	2	-0.069637	13.9356	-19.357	-4.69212
 653	1	1	0.24118	13.7744	-16.4887	-1.40764
 654	1	1	0.2544	14.7017	-14.5065	-0.126051