pySIMM System Object

1227 atoms
1331 bonds
2170 angles
3218 dihedrals
420 impropers

7 atom types
7 bond types
11 angle types
4 dihedral types
1 improper types

-166.062867 166.062867 xlo xhi
-166.062867 166.062867 ylo yhi
-166.062867 166.062867 zlo zhi

Masses

   1	1.008	# ha
   2	12.01	# ca
   3	32.06	# sy
   4	16.0	# o
   5	16.0	# os
   6	1.008	# ho
   7	16.0	# oh

Pair Coeffs

   1	0.015	2.59964245953351	# ha
   2	0.086	3.3996695084235347	# ca
   3	0.25	3.563594872561357	# sy
   4	0.21	2.959921901149463	# o
   5	0.17	3.0000123434657784	# os
   6	0.0	0.0	# ho
   7	0.2104	3.0664733878390478	# oh

Bond Coeffs

   1	493.0	1.466	# o,sy
   2	345.8	1.086	# ca,ha
   3	384.0	1.3637	# ca,oh
   4	376.6	1.3696	# ca,os
   5	371.4	0.973	# ho,oh
   6	243.4	1.7909	# ca,sy
   7	461.1	1.3984	# ca,ca

Angle Coeffs

   1	48.18	119.88	# ca,ca,ha
   2	61.48	119.42	# ca,ca,sy
   3	72.54	121.41	# o,sy,o
   4	69.58	119.2	# ca,ca,os
   5	60.3	104.44	# ca,sy,ca
   6	49.0	108.58	# ca,oh,ho
   7	65.77	108.35	# ca,sy,o
   8	63.48	119.89	# ca,os,ca
   9	69.52	119.9	# ca,ca,oh
  10	66.62	120.02	# ca,ca,ca
  11	63.5	119.89	# ca,oh,ca

Dihedral Coeffs

   1	1	0.9	2	180	# X,ca,os,X
   2	1	0.9	2	180	# X,ca,oh,X
   3	1	3.625	2	180	# X,ca,ca,X
   4	1	1.3	2	180	# X,ca,sy,X

Improper Coeffs

   1	1.1	-1	2	# ca,X,X,ha

Atoms

   1	1	1	0.203463	-34.9466	1.884	9.71633
   2	1	2	-0.404697	-34.7828	2.7018	9.02055
   3	1	2	-0.023572	-33.4881	3.22207	8.83495
   4	1	1	0.153856	-32.6478	2.80715	9.39138
   5	1	2	-0.109138	-33.2857	4.28958	7.94177
   6	1	3	0.998761	-31.6287	4.95874	7.70417
   7	1	2	-0.03943	-34.3759	4.83051	7.23514
   8	1	1	0.156851	-34.2258	5.6573	6.54328
   9	1	2	-0.395833	-35.6646	4.29621	7.42215
  10	1	1	0.202602	-36.5104	4.70967	6.88131
  11	1	2	0.320255	-35.8699	3.23446	8.31462
  12	1	4	-0.566353	-31.5647	6.3022	8.28552
  13	1	4	-0.565639	-30.6701	3.92116	8.10298
  14	1	1	0.171248	-30.6709	7.16393	6.02776
  15	1	2	-0.142243	-30.9501	6.34301	5.36782
  16	1	2	-0.199349	-30.7852	6.4717	3.97703
  17	1	1	0.156233	-30.3738	7.38175	3.55058
  18	1	2	0.310144	-31.1307	5.41018	3.12894
  19	1	5	-0.374171	-30.8873	5.50981	1.78405
  20	1	1	0.18393	-32.1985	3.15308	5.46861
  21	1	2	-0.1794	-31.8133	4.08459	5.05477
  22	1	2	-0.069637	-31.4645	5.14847	5.91215
  23	1	1	0.24118	-29.0845	3.89579	2.95521
  24	1	1	0.2544	-27.2764	2.68302	1.77994
  25	1	2	-0.557237	-28.9964	3.98972	1.87904
  26	1	2	-0.032586	-27.9603	3.31118	1.21068
  27	1	2	0.370208	-29.8889	4.80262	1.15444
  28	1	2	0.127886	-27.7911	3.45299	-0.183901
  29	1	7	-0.036788	-26.7679	2.82389	-0.847355
  30	1	2	0.039962	-29.7318	4.9297	-0.238934
  31	1	2	-0.445847	-28.6851	4.26181	-0.909389
  32	1	1	0.122566	-30.4194	5.56243	-0.792737
  33	1	1	0.163876	-28.5675	4.3771	-1.98455
  34	1	2	-0.180142	-31.6553	4.2226	3.6648
  35	1	1	0.144642	-31.9073	3.40286	2.998
  36	1	1	0.203463	-26.3633	0.30306	-0.189109
  37	1	2	-0.404697	-25.5849	0.984677	0.143065
  38	1	2	-0.023572	-24.4891	0.497665	0.878292
  39	1	1	0.153856	-24.4146	-0.563845	1.11451
  40	1	2	-0.109138	-23.4753	1.3815	1.2912
  41	1	3	0.998761	-22.058	0.763278	2.21691
  42	1	2	-0.03943	-23.558	2.74682	0.962814
  43	1	1	0.156851	-22.7606	3.42628	1.26274
  44	1	2	-0.395833	-24.6631	3.22677	0.237861
  45	1	1	0.202602	-24.7302	4.28066	-0.0200583
  46	1	2	0.320255	-25.6689	2.34555	-0.188643
  47	1	4	-0.566353	-22.0414	-0.695075	2.07934
  48	1	4	-0.565639	-20.911	1.60421	1.85745
  49	1	1	0.171248	-23.3781	-0.789458	4.31592
  50	1	2	-0.142243	-23.1395	0.189066	4.73114
  51	1	2	-0.199349	-23.4506	0.47808	6.07168
  52	1	1	0.156233	-23.9267	-0.26822	6.69779
  53	1	2	0.310144	-23.1433	1.73132	6.61815
  54	1	5	-0.374171	-23.45	1.97083	7.93596
  55	1	1	0.18393	-21.6236	3.14112	3.89222
  56	1	2	-0.1794	-22.16	2.40658	4.49133
  57	1	2	-0.069637	-22.4928	1.15388	3.93259
  58	1	1	0.24118	-24.9652	3.62589	6.48107
  59	1	1	0.2544	-26.2503	5.57518	7.39221
  60	1	2	-0.557237	-24.9207	3.85883	7.5369
  61	1	2	-0.032586	-25.6489	4.95147	8.05114
  62	1	2	0.370208	-24.1448	3.06375	8.39941
  63	1	2	0.127886	-25.6188	5.24241	9.42742
  64	1	7	-0.036788	-26.3292	6.30488	9.9143
  65	1	2	0.039962	-24.1147	3.35967	9.77588
  66	1	2	-0.445847	-24.8465	4.44869	10.2945
  67	1	1	0.122566	-23.5216	2.73488	10.4369
  68	1	1	0.163876	-24.8178	4.66984	11.3587
  69	1	2	-0.180142	-22.4852	2.69265	5.8311
  70	1	1	0.144642	-22.2143	3.6487	6.26957
  71	1	1	0.203463	-27.375	8.12559	11.4564
  72	1	2	-0.404697	-28.0006	7.24731	11.3317
  73	1	2	-0.023572	-29.2371	7.16854	11.9968
  74	1	1	0.153856	-29.5625	7.98171	12.6436
  75	1	2	-0.109138	-30.0426	6.02552	11.8496
  76	1	3	0.998761	-31.5975	5.89394	12.7553
  77	1	2	-0.03943	-29.6032	4.96461	11.0382
  78	1	1	0.156851	-30.2192	4.07319	10.9288
  79	1	2	-0.395833	-28.3606	5.04612	10.3841
  80	1	1	0.202602	-28.0342	4.21363	9.76836
  81	1	2	0.320255	-27.5475	6.18515	10.5341
  82	1	4	-0.566353	-31.9553	4.47285	12.855
  83	1	4	-0.565639	-31.4572	6.7544	13.9356
  84	1	1	0.171248	-32.074	8.69936	12.0639
  85	1	2	-0.142243	-32.8156	8.10212	11.5375
  86	1	2	-0.199349	-33.769	8.727	10.7129
  87	1	1	0.156233	-33.7614	9.80398	10.5783
  88	1	2	0.310144	-34.7297	7.95381	10.045
  89	1	5	-0.374171	-35.5993	8.54825	9.17024
  90	1	1	0.18393	-33.8318	4.85425	11.167
  91	1	2	-0.1794	-33.8058	5.93404	11.0326
  92	1	2	-0.069637	-32.8197	6.69983	11.688
  93	1	1	0.24118	-37.4205	8.92807	7.38112
  94	1	1	0.2544	-37.0525	8.99156	4.87844
  95	1	2	-0.557237	-36.4322	8.77933	6.95456
  96	1	2	-0.032586	-36.2209	8.81342	5.55872
  97	1	2	0.370208	-35.3502	8.56427	7.82048
  98	1	2	0.127886	-34.9289	8.63375	5.02599
  99	1	7	-0.036788	-34.7518	8.67541	3.66536
 100	1	2	0.039962	-34.0557	8.37855	7.28907
 101	1	2	-0.445847	-33.8471	8.39853	5.89732
 102	1	1	0.122566	-33.2106	8.22243	7.9524
 103	1	1	0.163876	-32.8456	8.25279	5.5066
 104	1	2	-0.180142	-34.7571	6.56272	10.2118
 105	1	1	0.144642	-35.5108	5.97658	9.69709
 106	1	1	0.203463	-33.206	10.7315	4.38115
 107	1	2	-0.404697	-32.8475	10.1686	3.52369
 108	1	2	-0.023572	-31.645	10.5413	2.89975
 109	1	1	0.153856	-31.0758	11.3921	3.2729
 110	1	2	-0.109138	-31.1797	9.81507	1.78985
 111	1	3	0.998761	-29.6132	10.252	1.01656
 112	1	2	-0.03943	-31.928	8.7306	1.2985
 113	1	1	0.156851	-31.5732	8.17493	0.431589
 114	1	2	-0.395833	-33.1273	8.36192	1.93296
 115	1	1	0.202602	-33.6988	7.5178	1.55918
 116	1	2	0.320255	-33.586	9.06638	3.05621
 117	1	4	-0.566353	-29.6978	9.86826	-0.397096
 118	1	4	-0.565639	-29.2632	11.6048	1.46329
 119	1	1	0.171248	-28.5795	7.63109	0.230188
 120	1	2	-0.142243	-28.1658	7.86782	1.20899
 121	1	2	-0.199349	-27.3079	6.95633	1.84741
 122	1	1	0.156233	-27.0595	6.01556	1.36893
 123	1	2	0.310144	-26.7617	7.26477	3.10149
 124	1	5	-0.374171	-25.9273	6.37656	3.72506
 125	1	1	0.18393	-28.1339	10.367	3.54802
 126	1	2	-0.1794	-27.9143	9.40789	3.08024
 127	1	2	-0.069637	-28.4795	9.09509	1.82608
 128	1	1	0.24118	-28.053	5.97462	5.2345
 129	1	1	0.2544	-28.7995	3.72857	6.11145
 130	1	2	-0.557237	-27.5132	5.07009	4.96925
 131	1	2	-0.032586	-27.9339	3.81072	5.44985
 132	1	2	0.370208	-26.3765	5.15602	4.14866
 133	1	2	0.127886	-27.2341	2.63906	5.09552
 134	1	7	-0.036788	-27.6638	1.44912	5.62501
 135	1	2	0.039962	-25.6622	3.9933	3.81033
 136	1	2	-0.445847	-26.0932	2.73166	4.26759
 137	1	1	0.122566	-24.7685	4.08051	3.20071
 138	1	1	0.163876	-25.5099	1.84863	4.01613
 139	1	2	-0.180142	-27.0528	8.49281	3.7131
 140	1	1	0.144642	-26.6043	8.73087	4.67269
 141	1	1	0.203463	-27.6165	0.317609	3.21205
 142	1	2	-0.404697	-27.1941	-0.288463	4.00635
 143	1	2	-0.023572	-26.7245	-1.58534	3.72851
 144	1	1	0.153856	-26.7866	-1.98889	2.71879
 145	1	2	-0.109138	-26.2124	-2.38364	4.76703
 146	1	3	0.998761	-25.6961	-4.07779	4.42694
 147	1	2	-0.03943	-26.1858	-1.88718	6.0832
 148	1	1	0.156851	-25.8246	-2.51578	6.89696
 149	1	2	-0.395833	-26.6608	-0.592063	6.35234
 150	1	1	0.202602	-26.6589	-0.21291	7.37081
 151	1	2	0.320255	-27.1561	0.214967	5.3186
 152	1	4	-0.566353	-25.47	-4.72442	5.72434
 153	1	4	-0.565639	-26.639	-4.6035	3.4335
 154	1	1	0.171248	-24.9058	-4.08472	1.60176
 155	1	2	-0.142243	-24.0032	-3.95849	2.19725
 156	1	2	-0.199349	-22.75	-3.90506	1.56025
 157	1	1	0.156233	-22.6932	-3.97659	0.478944
 158	1	2	0.310144	-21.5712	-3.79881	2.32153
 159	1	5	-0.374171	-20.3263	-3.8041	1.7357
 160	1	1	0.18393	-22.9613	-3.78309	5.45192
 161	1	2	-0.1794	-22.907	-3.79335	4.36449
 162	1	2	-0.069637	-24.0894	-3.90576	3.60374
 163	1	1	0.24118	-20.4966	-5.04911	-0.564607
 164	1	1	0.2544	-20.0857	-3.99598	-2.818
 165	1	2	-0.557237	-20.2072	-4.00408	-0.648946
 166	1	2	-0.032586	-19.9843	-3.4071	-1.90808
 167	1	2	0.370208	-20.0924	-3.22858	0.515658
 168	1	2	0.127886	-19.6466	-2.03831	-2.00112
 169	1	7	-0.036788	-19.431	-1.42415	-3.2076
 170	1	2	0.039962	-19.7144	-1.87651	0.427717
 171	1	2	-0.445847	-19.4864	-1.27949	-0.82861
 172	1	1	0.122566	-19.6164	-1.29299	1.33834
 173	1	1	0.163876	-19.2212	-0.226454	-0.884964
 174	1	2	-0.180142	-21.6554	-3.74308	3.72171
 175	1	1	0.144642	-20.7418	-3.67485	4.30353
 176	1	1	0.203463	-18.4191	-1.14939	-5.58484
 177	1	2	-0.404697	-19.4438	-1.50438	-5.58853
 178	1	2	-0.023572	-20.092	-1.76026	-6.80868
 179	1	1	0.153856	-19.5628	-1.61283	-7.74917
 180	1	2	-0.109138	-21.4251	-2.20744	-6.8119
 181	1	3	0.998761	-22.2538	-2.56773	-8.37091
 182	1	2	-0.03943	-22.111	-2.37024	-5.59438
 183	1	1	0.156851	-23.1538	-2.68744	-5.59669
 184	1	2	-0.395833	-21.4525	-2.11208	-4.37831
 185	1	1	0.202602	-21.9963	-2.2158	-3.44275
 186	1	2	0.320255	-20.1086	-1.69418	-4.36885
 187	1	4	-0.566353	-23.6772	-2.26868	-8.18521
 188	1	4	-0.565639	-21.4452	-1.97582	-9.44504
 189	1	1	0.171248	-24.043	-4.78889	-7.65511
 190	1	2	-0.142243	-23.1328	-5.21483	-8.07633
 191	1	2	-0.199349	-23.0138	-6.60964	-8.21768
 192	1	1	0.156233	-23.8228	-7.26494	-7.90769
 193	1	2	0.310144	-21.8625	-7.16193	-8.79674
 194	1	5	-0.374171	-21.7916	-8.51438	-9.00633
 195	1	1	0.18393	-20.1126	-4.28859	-9.39643
 196	1	2	-0.1794	-20.9209	-4.93338	-9.05833
 197	1	2	-0.069637	-22.0888	-4.36809	-8.50435
 198	1	1	0.24118	-22.2116	-7.22759	-11.3524
 199	1	1	0.2544	-22.4214	-8.32495	-13.5499
 200	1	2	-0.557237	-22.1417	-8.31108	-11.4065
 201	1	2	-0.032586	-22.2727	-8.93925	-12.662
 202	1	2	0.370208	-21.9274	-9.08726	-10.2521
 203	1	2	0.127886	-22.2154	-10.3474	-12.7751
 204	1	7	-0.036788	-22.3514	-10.9963	-13.9791
 205	1	2	0.039962	-21.8599	-10.489	-10.3666
 206	1	2	-0.445847	-22.0079	-11.1219	-11.6189
 207	1	1	0.122566	-21.6964	-11.0823	-9.47272
 208	1	1	0.163876	-21.9552	-12.2048	-11.6908
 209	1	2	-0.180142	-20.8084	-6.32737	-9.19973
 210	1	1	0.144642	-19.9266	-6.76465	-9.65755
 211	1	1	0.203463	-20.3682	-10.7781	-15.6812
 212	1	2	-0.404697	-21.282	-10.2855	-15.9987
 213	1	2	-0.023572	-21.2978	-9.5309	-17.1837
 214	1	1	0.153856	-20.3948	-9.44421	-17.7859
 215	1	2	-0.109138	-22.4645	-8.84001	-17.5561
 216	1	3	0.998761	-22.4649	-7.7741	-19.0048
 217	1	2	-0.03943	-23.6148	-8.91732	-16.7503
 218	1	1	0.156851	-24.5088	-8.35997	-17.0267
 219	1	2	-0.395833	-23.591	-9.67716	-15.5678
 220	1	1	0.202602	-24.4676	-9.71635	-14.9273
 221	1	2	0.320255	-22.4173	-10.344	-15.179
 222	1	4	-0.566353	-23.2997	-6.61341	-18.6785
 223	1	4	-0.565639	-21.0737	-7.64766	-19.4564
 224	1	1	0.171248	-24.9812	-7.32229	-20.431
 225	1	2	-0.142243	-24.5598	-8.25631	-20.7956
 226	1	2	-0.199349	-25.2195	-8.97196	-21.8089
 227	1	1	0.156233	-26.1482	-8.58407	-22.2164
 228	1	2	0.310144	-24.6712	-10.1739	-22.2965
 229	1	5	-0.374171	-25.272	-10.8947	-23.301
 230	1	1	0.18393	-21.8325	-10.2801	-20.3852
 231	1	2	-0.1794	-22.7863	-9.9232	-20.77
 232	1	2	-0.069637	-23.3409	-8.72824	-20.2694
 233	1	1	0.24118	-27.3794	-11.4604	-21.8592
 234	1	1	0.2544	-29.7702	-10.9947	-22.5395
 235	1	2	-0.557237	-27.612	-11.0052	-22.8177
 236	1	2	-0.032586	-28.9438	-10.743	-23.2021
 237	1	2	0.370208	-26.5649	-10.6798	-23.6936
 238	1	2	0.127886	-29.2258	-10.143	-24.4454
 239	1	7	-0.036788	-30.535	-9.90209	-24.7765
 240	1	2	0.039962	-26.8397	-10.1063	-24.9483
 241	1	2	-0.445847	-28.169	-9.83402	-25.3286
 242	1	1	0.122566	-26.0168	-9.86626	-25.6152
 243	1	1	0.163876	-28.3652	-9.39232	-26.304
 244	1	2	-0.180142	-23.4551	-10.6426	-21.7771
 245	1	1	0.144642	-23.0306	-11.5619	-22.1693
 246	1	1	0.203463	-32.3314	-10.1203	-26.6688
 247	1	2	-0.404697	-31.9139	-9.12308	-26.569
 248	1	2	-0.023572	-32.3191	-8.10106	-27.4442
 249	1	1	0.153856	-33.046	-8.30385	-28.2301
 250	1	2	-0.109138	-31.75	-6.8214	-27.3322
 251	1	3	0.998761	-32.1215	-5.57899	-28.5791
 252	1	2	-0.03943	-30.8077	-6.55387	-26.3231
 253	1	1	0.156851	-30.3722	-5.5594	-26.2348
 254	1	2	-0.395833	-30.4092	-7.5817	-25.4522
 255	1	1	0.202602	-29.665	-7.3853	-24.6853
 256	1	2	0.320255	-30.9408	-8.87657	-25.5885
 257	1	4	-0.566353	-33.5642	-5.56196	-28.8405
 258	1	4	-0.565639	-31.3922	-4.35896	-28.217
 259	1	1	0.171248	-29.6618	-7.14552	-28.9699
 260	1	2	-0.142243	-30.1342	-7.00343	-29.9404
 261	1	2	-0.199349	-29.5452	-7.57969	-31.0755
 262	1	1	0.156233	-28.6367	-8.16319	-30.9586
 263	1	2	0.310144	-30.1287	-7.40951	-32.344
 264	1	5	-0.374171	-29.5399	-7.92152	-33.4751
 265	1	1	0.18393	-32.8689	-5.57384	-31.4172
 266	1	2	-0.1794	-31.9339	-6.12618	-31.3255
 267	1	2	-0.069637	-31.3345	-6.27318	-30.0571
 268	1	1	0.24118	-28.2556	-10.1156	-32.8715
 269	1	1	0.2544	-25.7395	-10.36	-32.8354
 270	1	2	-0.557237	-27.6076	-9.29499	-33.1679
 271	1	2	-0.032586	-26.2027	-9.42461	-33.1472
 272	1	2	0.370208	-28.1823	-8.07464	-33.5498
 273	1	2	0.127886	-25.3771	-8.34368	-33.5166
 274	1	7	-0.036788	-24.0171	-8.5199	-33.4932
 275	1	2	0.039962	-27.3658	-6.99482	-33.9323
 276	1	2	-0.445847	-25.9631	-7.12725	-33.9282
 277	1	1	0.122566	-27.8283	-6.05682	-34.2244
 278	1	1	0.163876	-25.3485	-6.29273	-34.246
 279	1	2	-0.180142	-31.327	-6.68924	-32.4647
 280	1	1	0.144642	-31.7808	-6.56997	-33.444
 281	1	1	0.203463	-23.6353	-6.83967	-31.4822
 282	1	2	-0.404697	-23.0069	-6.65404	-32.3493
 283	1	2	-0.023572	-22.072	-5.60371	-32.3302
 284	1	1	0.153856	-21.9744	-4.97328	-31.4481
 285	1	2	-0.109138	-21.2592	-5.37002	-33.4536
 286	1	3	0.998761	-20.1088	-3.98197	-33.4746
 287	1	2	-0.03943	-21.3594	-6.21194	-34.5757
 288	1	1	0.156851	-20.7116	-6.04946	-35.4354
 289	1	2	-0.395833	-22.2898	-7.26552	-34.5814
 290	1	1	0.202602	-22.3667	-7.92061	-35.444
 291	1	2	0.320255	-23.1204	-7.48694	-33.4736
 292	1	4	-0.566353	-18.8778	-4.46652	-34.1073
 293	1	4	-0.565639	-20.1388	-3.35311	-32.1484
 294	1	1	0.171248	-19.9914	-3.81394	-36.3915
 295	1	2	-0.142243	-20.6895	-3.05224	-36.0475
 296	1	2	-0.199349	-21.3793	-2.25869	-36.9811
 297	1	1	0.156233	-21.2264	-2.42344	-38.0432
 298	1	2	0.310144	-22.2813	-1.27295	-36.5396
 299	1	5	-0.374171	-23.0096	-0.514275	-37.4242
 300	1	1	0.18393	-21.9576	-1.71781	-33.1617
 301	1	2	-0.1794	-21.7912	-1.8689	-34.2272
 302	1	2	-0.069637	-20.9072	-2.8751	-34.666
 303	1	1	0.24118	-24.188	-1.43791	-39.5519
 304	1	1	0.2544	-23.4877	-0.968565	-41.9323
 305	1	2	-0.557237	-23.3213	-0.819198	-39.7709
 306	1	2	-0.032586	-22.9173	-0.559462	-41.0993
 307	1	2	0.370208	-22.595	-0.268056	-38.7054
 308	1	2	0.127886	-21.7803	0.241594	-41.3577
 309	1	7	-0.036788	-21.3741	0.554556	-42.6309
 310	1	2	0.039962	-21.4679	0.536268	-38.9574
 311	1	2	-0.445847	-21.0598	0.79175	-40.2818
 312	1	1	0.122566	-20.9214	0.964191	-38.1221
 313	1	1	0.163876	-20.1946	1.42257	-40.4717
 314	1	2	-0.180142	-22.473	-1.07246	-35.1647
 315	1	1	0.144642	-23.1717	-0.31209	-34.8299
 316	1	1	0.203463	-21.112	-2.08033	-42.9814
 317	1	2	-0.404697	-21.5233	-1.54312	-43.8318
 318	1	2	-0.023572	-21.83	-2.23827	-45.0164
 319	1	1	0.153856	-21.6716	-3.31461	-45.0804
 320	1	2	-0.109138	-22.3182	-1.53779	-46.134
 321	1	3	0.998761	-22.7059	-2.42401	-47.6554
 322	1	2	-0.03943	-22.4876	-0.143009	-46.0671
 323	1	1	0.156851	-22.8383	0.405783	-46.9407
 324	1	2	-0.395833	-22.178	0.543093	-44.8802
 325	1	1	0.202602	-22.2896	1.62282	-44.8334
 326	1	2	0.320255	-21.6976	-0.149713	-43.7598
 327	1	4	-0.566353	-21.8837	-3.63824	-47.703
 328	1	4	-0.565639	-22.7166	-1.42638	-48.7308
 329	1	1	0.171248	-25.1952	-0.909807	-47.5493
 330	1	2	-0.142243	-25.4443	-1.95546	-47.3782
 331	1	2	-0.199349	-26.7813	-2.33508	-47.1666
 332	1	1	0.156233	-27.5652	-1.58414	-47.167
 333	1	2	0.310144	-27.1084	-3.68901	-46.9737
 334	1	5	-0.374171	-28.4087	-4.08144	-46.7763
 335	1	1	0.18393	-23.9772	-5.04565	-47.2322
 336	1	2	-0.1794	-24.7581	-4.28626	-47.2016
 337	1	2	-0.069637	-24.4248	-2.92815	-47.3881
 338	1	1	0.24118	-27.9213	-3.25584	-44.3287
 339	1	1	0.2544	-29.5045	-1.92537	-42.9074
 340	1	2	-0.557237	-28.8961	-2.96477	-44.7095
 341	1	2	-0.032586	-29.7914	-2.21681	-43.917
 342	1	2	0.370208	-29.2782	-3.36064	-46.0013
 343	1	2	0.127886	-31.0605	-1.84724	-44.4213
 344	1	7	-0.036788	-31.9553	-1.11963	-43.6764
 345	1	2	0.039962	-30.5502	-3.0208	-46.4963
 346	1	2	-0.445847	-31.4405	-2.25917	-45.7116
 347	1	1	0.122566	-30.8334	-3.34262	-47.494
 348	1	1	0.163876	-32.4197	-1.99388	-46.1023
 349	1	2	-0.180142	-26.0992	-4.66256	-47.0033
 350	1	1	0.144642	-26.3639	-5.70774	-46.8734
 351	1	1	0.203463	-32.9357	-1.45964	-41.2663
 352	1	2	-0.404697	-32.177	-0.684731	-41.3331
 353	1	2	-0.023572	-31.7842	0.0170246	-40.1802
 354	1	1	0.153856	-32.2392	-0.212072	-39.2173
 355	1	2	-0.109138	-30.7971	1.01496	-40.2702
 356	1	3	0.998761	-30.2397	1.85975	-38.7803
 357	1	2	-0.03943	-30.2232	1.32471	-41.5161
 358	1	1	0.156851	-29.4714	2.1106	-41.5875
 359	1	2	-0.395833	-30.6238	0.618658	-42.6642
 360	1	1	0.202602	-30.187	0.860394	-43.6295
 361	1	2	0.320255	-31.5976	-0.390827	-42.5751
 362	1	4	-0.566353	-29.5786	3.10611	-39.1834
 363	1	4	-0.565639	-31.3467	1.81138	-37.8194
 364	1	1	0.171248	-27.3174	1.83196	-39.0523
 365	1	2	-0.142243	-27.6068	0.944799	-38.4899
 366	1	2	-0.199349	-26.625	0.0360746	-38.0554
 367	1	1	0.156233	-25.5757	0.214154	-38.2702
 368	1	2	0.310144	-26.9956	-1.09883	-37.3205
 369	1	5	-0.374171	-26.0328	-1.96887	-36.8852
 370	1	1	0.18393	-30.3757	-0.590605	-37.1841
 371	1	2	-0.1794	-29.3297	-0.420889	-37.4366
 372	1	2	-0.069637	-28.9651	0.717746	-38.1857
 373	1	1	0.24118	-24.8746	-4.05555	-35.9062
 374	1	1	0.2544	-24.2352	-4.39552	-33.4871
 375	1	2	-0.557237	-25.0999	-3.30301	-35.1562
 376	1	2	-0.032586	-24.7416	-3.48599	-33.8038
 377	1	2	0.370208	-25.7278	-2.11462	-35.5548
 378	1	2	0.127886	-25.0196	-2.48538	-32.8484
 379	1	7	-0.036788	-24.6671	-2.64522	-31.5344
 380	1	2	0.039962	-25.9979	-1.10788	-34.6006
 381	1	2	-0.445847	-25.6423	-1.29093	-33.2492
 382	1	1	0.122566	-26.4707	-0.179738	-34.9076
 383	1	1	0.163876	-25.8512	-0.511914	-32.5197
 384	1	2	-0.180142	-28.3447	-1.32826	-37.0083
 385	1	1	0.144642	-28.6201	-2.20684	-36.4323
 386	1	1	0.203463	-26.7935	-4.24119	-31.8217
 387	1	2	-0.404697	-26.0808	-4.55394	-31.0634
 388	1	2	-0.023572	-26.3357	-5.71292	-30.3129
 389	1	1	0.153856	-27.2331	-6.29391	-30.505
 390	1	2	-0.109138	-25.4352	-6.11411	-29.3111
 391	1	3	0.998761	-25.773	-7.57772	-28.3162
 392	1	2	-0.03943	-24.2827	-5.34782	-29.0605
 393	1	1	0.156851	-23.5839	-5.65479	-28.2832
 394	1	2	-0.395833	-24.0422	-4.18078	-29.8077
 395	1	1	0.202602	-23.1597	-3.5784	-29.6066
 396	1	2	0.320255	-24.9317	-3.78258	-30.8173
 397	1	4	-0.566353	-24.5743	-8.42064	-28.361
 398	1	4	-0.565639	-27.0954	-8.08156	-28.7068
 399	1	1	0.171248	-27.866	-6.07104	-26.9744
 400	1	2	-0.142243	-27.0369	-6.16426	-26.275
 401	1	2	-0.199349	-27.1108	-5.55858	-25.0087
 402	1	1	0.156233	-27.9935	-4.9966	-24.7185
 403	1	2	0.310144	-26.0391	-5.65878	-24.11
 404	1	5	-0.374171	-26.1662	-5.04969	-22.8853
 405	1	1	0.18393	-23.9281	-7.5758	-26.0093
 406	1	2	-0.1794	-24.8169	-7.00822	-25.733
 407	1	2	-0.069637	-25.8835	-6.8802	-26.6488
 408	1	1	0.24118	-26.0923	-5.09964	-20.3182
 409	1	1	0.2544	-24.2372	-4.24813	-18.8685
 410	1	2	-0.557237	-25.2278	-4.61392	-20.759
 411	1	2	-0.032586	-24.1867	-4.11534	-19.9485
 412	1	2	0.370208	-25.1356	-4.51404	-22.1509
 413	1	2	0.127886	-23.0603	-3.48545	-20.524
 414	1	7	-0.036788	-22.0271	-3.00391	-19.7527
 415	1	2	0.039962	-24.032	-3.85454	-22.7344
 416	1	2	-0.445847	-22.9977	-3.33713	-21.924
 417	1	1	0.122566	-23.9793	-3.74681	-23.8132
 418	1	1	0.163876	-22.1445	-2.84121	-22.3793
 419	1	2	-0.180142	-24.9	-6.4067	-24.4628
 420	1	1	0.144642	-24.0836	-6.52279	-23.7549
 421	1	1	0.203463	-20.2958	-4.95655	-19.4172
 422	1	2	-0.404697	-20.7571	-4.60596	-18.4977
 423	1	2	-0.023572	-20.4956	-5.27614	-17.2901
 424	1	1	0.153856	-19.8275	-6.1363	-17.284
 425	1	2	-0.109138	-21.1621	-4.88885	-16.1138
 426	1	3	0.998761	-20.9786	-5.8696	-14.6107
 427	1	2	-0.03943	-22.0575	-3.80307	-16.1461
 428	1	1	0.156851	-22.5898	-3.51349	-15.241
 429	1	2	-0.395833	-22.3088	-3.13386	-17.3591
 430	1	1	0.202602	-23.0219	-2.31579	-17.3909
 431	1	2	0.320255	-21.6874	-3.55883	-18.5463
 432	1	4	-0.566353	-22.2444	-5.76818	-13.8741
 433	1	4	-0.565639	-20.4245	-7.17564	-14.9847
 434	1	1	0.171248	-21.151	-3.70755	-12.6312
 435	1	2	-0.142243	-20.107	-4.01036	-12.704
 436	1	2	-0.199349	-19.1504	-3.425	-11.8552
 437	1	1	0.156233	-19.4489	-2.66109	-11.1425
 438	1	2	0.310144	-17.8138	-3.85055	-11.9012
 439	1	5	-0.374171	-16.9045	-3.35686	-11.0017
 440	1	1	0.18393	-18.0751	-6.21279	-14.3612
 441	1	2	-0.1794	-18.3734	-5.41998	-13.6761
 442	1	2	-0.069637	-19.7251	-5.01811	-13.6142
 443	1	1	0.24118	-17.4778	-5.76676	-10.0506
 444	1	1	0.2544	-17.6319	-6.35158	-7.60887
 445	1	2	-0.557237	-17.3056	-5.00914	-9.2915
 446	1	2	-0.032586	-17.3873	-5.33699	-7.92168
 447	1	2	0.370208	-16.9643	-3.69967	-9.67356
 448	1	2	0.127886	-17.1601	-4.35493	-6.93496
 449	1	7	-0.036788	-17.3178	-4.65486	-5.60581
 450	1	2	0.039962	-16.6866	-2.73257	-8.68875
 451	1	2	-0.445847	-16.7876	-3.0528	-7.31809
 452	1	1	0.122566	-16.411	-1.72961	-8.99947
 453	1	1	0.163876	-16.5833	-2.30026	-6.56353
 454	1	2	-0.180142	-17.4211	-4.83362	-12.8217
 455	1	1	0.144642	-16.3856	-5.16031	-12.8435
 456	1	1	0.203463	-19.774	-4.48432	-6.62029
 457	1	2	-0.404697	-19.6926	-5.09723	-5.73064
 458	1	2	-0.023572	-20.8459	-5.69998	-5.20866
 459	1	1	0.153856	-21.8065	-5.55616	-5.6996
 460	1	2	-0.109138	-20.76	-6.47216	-4.04038
 461	1	3	0.998761	-22.2423	-7.22593	-3.35564
 462	1	2	-0.03943	-19.5174	-6.64646	-3.40529
 463	1	1	0.156851	-19.4494	-7.24409	-2.49703
 464	1	2	-0.395833	-18.3673	-6.04134	-3.94405
 465	1	1	0.202602	-17.4051	-6.18301	-3.46067
 466	1	2	0.320255	-18.4441	-5.26168	-5.10875
 467	1	4	-0.566353	-23.3191	-7.0105	-4.32795
 468	1	4	-0.565639	-22.3569	-6.77791	-1.96315
 469	1	1	0.171248	-21.3084	-9.05038	-5.4416
 470	1	2	-0.142243	-21.3721	-9.61548	-4.51249
 471	1	2	-0.199349	-20.9986	-10.9714	-4.48735
 472	1	1	0.156233	-20.643	-11.461	-5.38864
 473	1	2	0.310144	-21.0784	-11.706	-3.29541
 474	1	5	-0.374171	-20.7092	-13.029	-3.31522
 475	1	1	0.18393	-22.2882	-9.25169	-1.23274
 476	1	2	-0.1794	-21.9199	-9.72947	-2.1406
 477	1	2	-0.069637	-21.8226	-8.98589	-3.33437
 478	1	1	0.24118	-18.743	-12.1448	-1.79006
 479	1	1	0.2544	-17.8215	-13.3381	0.214396
 480	1	2	-0.557237	-19.144	-13.108	-1.48733
 481	1	2	-0.032586	-18.6253	-13.7894	-0.36556
 482	1	2	0.370208	-20.1878	-13.6852	-2.22997
 483	1	2	0.127886	-19.143	-15.052	0.00904049
 484	1	7	-0.036788	-18.6842	-15.744	1.10235
 485	1	2	0.039962	-20.6967	-14.9447	-1.86684
 486	1	2	-0.445847	-20.1811	-15.6269	-0.746504
 487	1	1	0.122566	-21.5001	-15.3802	-2.45348
 488	1	1	0.163876	-20.5877	-16.5953	-0.465798
 489	1	2	-0.180142	-21.5559	-11.0878	-2.12452
 490	1	1	0.144642	-21.6458	-11.6593	-1.20557
 491	1	1	0.203463	-19.0332	-14.8791	3.55523
 492	1	2	-0.404697	-18.0012	-14.8538	3.21641
 493	1	2	-0.023572	-16.9888	-14.3942	4.076
 494	1	1	0.153856	-17.2331	-14.066	5.08538
 495	1	2	-0.109138	-15.6543	-14.3658	3.63416
 496	1	3	0.998761	-14.3683	-13.7484	4.73419
 497	1	2	-0.03943	-15.3332	-14.8152	2.33996
 498	1	1	0.156851	-14.2955	-14.8165	2.00615
 499	1	2	-0.395833	-16.3519	-15.2804	1.48902
 500	1	1	0.202602	-16.1043	-15.6501	0.497336
 501	1	2	0.320255	-17.6869	-15.3	1.92499
 502	1	4	-0.566353	-14.6741	-14.2682	6.07116
 503	1	4	-0.565639	-13.075	-13.9524	4.07198
 504	1	1	0.171248	-13.42	-11.5129	3.10097
 505	1	2	-0.142243	-14.1246	-11.1108	3.82822
 506	1	2	-0.199349	-14.4175	-9.73421	3.84369
 507	1	1	0.156233	-13.9413	-9.06567	3.13263
 508	1	2	0.310144	-15.3073	-9.21515	4.8
 509	1	5	-0.374171	-15.5966	-7.87598	4.84047
 510	1	1	0.18393	-16.0587	-12.0993	6.47608
 511	1	2	-0.1794	-15.6103	-11.443	5.73118
 512	1	2	-0.069637	-14.7252	-11.9725	4.76871
 513	1	1	0.24118	-14.4842	-5.67954	4.04047
 514	1	1	0.2544	-15.1227	-4.38403	1.96002
 515	1	2	-0.557237	-15.2959	-6.01008	3.39815
 516	1	2	-0.032586	-15.6604	-5.28791	2.2424
 517	1	2	0.370208	-15.9863	-7.18455	3.72522
 518	1	2	0.127886	-16.7144	-5.73954	1.42309
 519	1	7	-0.036788	-16.9854	-5.09142	0.248941
 520	1	2	0.039962	-17.0529	-7.63017	2.91741
 521	1	2	-0.445847	-17.4193	-6.90991	1.7617
 522	1	1	0.122566	-17.5875	-8.53508	3.1899
 523	1	1	0.163876	-18.2352	-7.25798	1.13331
 524	1	2	-0.180142	-15.8959	-10.0663	5.74522
 525	1	1	0.144642	-16.5683	-9.65047	6.48948
 526	1	1	0.203463	-15.396	-7.18544	-0.262366
 527	1	2	-0.404697	-15.3777	-6.39706	-1.00997
 528	1	2	-0.023572	-14.5609	-6.55206	-2.1404
 529	1	1	0.153856	-13.9629	-7.45561	-2.25655
 530	1	2	-0.109138	-14.5362	-5.55627	-3.13156
 531	1	3	0.998761	-13.5584	-5.81756	-4.62577
 532	1	2	-0.03943	-15.3241	-4.3997	-2.97757
 533	1	1	0.156851	-15.3163	-3.6333	-3.75132
 534	1	2	-0.395833	-16.142	-4.25348	-1.83906
 535	1	1	0.202602	-16.7641	-3.36942	-1.72082
 536	1	2	0.320255	-16.1767	-5.24934	-0.849028
 537	1	4	-0.566353	-12.8194	-7.06806	-4.42565
 538	1	4	-0.565639	-14.4679	-5.64136	-5.76215
 539	1	1	0.171248	-13.2315	-3.50094	-6.40551
 540	1	2	-0.142243	-12.4584	-3.44334	-5.63958
 541	1	2	-0.199349	-11.5214	-2.39293	-5.66365
 542	1	1	0.156233	-11.564	-1.63869	-6.44323
 543	1	2	0.310144	-10.516	-2.31884	-4.68295
 544	1	5	-0.374171	-9.59236	-1.3017	-4.6728
 545	1	1	0.18393	-11.2358	-5.18289	-2.95613
 546	1	2	-0.1794	-11.3363	-4.39038	-3.6958
 547	1	2	-0.069637	-12.3763	-4.44296	-4.64701
 548	1	1	0.24118	-12.0229	-0.118471	-4.51154
 549	1	1	0.2544	-12.3965	2.3586	-4.54922
 550	1	2	-0.557237	-11.1764	0.555439	-4.58558
 551	1	2	-0.032586	-11.388	1.9508	-4.59357
 552	1	2	0.370208	-9.86411	0.0467719	-4.66222
 553	1	2	0.127886	-10.298	2.83973	-4.6424
 554	1	7	-0.036788	-10.5268	4.18913	-4.65098
 555	1	2	0.039962	-8.77694	0.941166	-4.70167
 556	1	2	-0.445847	-8.98501	2.3367	-4.68841
 557	1	1	0.122566	-7.77008	0.537395	-4.73951
 558	1	1	0.163876	-8.13921	3.01767	-4.72295
 559	1	2	-0.180142	-10.4122	-3.32942	-3.71658
 560	1	1	0.144642	-9.60008	-3.28927	-2.99495
 561	1	1	0.203463	-10.255	6.77562	-4.88748
 562	1	2	-0.404697	-10.0688	6.40491	-3.88379
 563	1	2	-0.023572	-9.72241	7.30511	-2.85942
 564	1	1	0.153856	-9.63614	8.37031	-3.07232
 565	1	2	-0.109138	-9.48896	6.82783	-1.55721
 566	1	3	0.998761	-8.97071	7.95347	-0.245181
 567	1	2	-0.03943	-9.60628	5.4526	-1.28749
 568	1	1	0.156851	-9.43201	5.08321	-0.278052
 569	1	2	-0.395833	-9.94285	4.55837	-2.3192
 570	1	1	0.202602	-10.0304	3.49819	-2.09962
 571	1	2	0.320255	-10.1706	5.02881	-3.62605
 572	1	4	-0.566353	-9.61634	7.5074	0.994305
 573	1	4	-0.565639	-9.07952	9.32286	-0.760876
 574	1	1	0.171248	-7.49862	6.10027	1.49013
 575	1	2	-0.142243	-6.79139	6.52427	0.778404
 576	1	2	-0.199349	-5.4711	6.04229	0.724897
 577	1	1	0.156233	-5.15252	5.23353	1.37544
 578	1	2	0.310144	-4.58221	6.54409	-0.238297
 579	1	5	-0.374171	-3.39472	5.90131	-0.466752
 580	1	1	0.18393	-6.62723	8.82771	-1.75137
 581	1	2	-0.1794	-6.29992	8.06199	-1.04943
 582	1	2	-0.069637	-7.21878	7.51355	-0.131911
 583	1	1	0.24118	-5.41075	4.4754	-1.49267
 584	1	1	0.2544	-5.20603	2.82098	-3.33232
 585	1	2	-0.557237	-4.43915	4.29449	-1.94226
 586	1	2	-0.032586	-4.32434	3.35994	-2.9863
 587	1	2	0.370208	-3.29653	4.98054	-1.48519
 588	1	2	0.127886	-3.07135	3.09288	-3.5756
 589	1	7	-0.036788	-2.96078	2.12296	-4.53739
 590	1	2	0.039962	-2.04602	4.72075	-2.08038
 591	1	2	-0.445847	-1.92852	3.78063	-3.12834
 592	1	1	0.122566	-1.17059	5.25392	-1.72182
 593	1	1	0.163876	-0.958267	3.57976	-3.57584
 594	1	2	-0.180142	-4.98422	7.57153	-1.10427
 595	1	1	0.144642	-4.29131	7.93953	-1.85463
 596	1	1	0.203463	-4.45687	0.940672	-6.37279
 597	1	2	-0.404697	-4.41479	0.418984	-5.42042
 598	1	2	-0.023572	-5.15082	-0.767168	-5.23395
 599	1	1	0.153856	-5.75293	-1.17588	-6.04588
 600	1	2	-0.109138	-5.10788	-1.42779	-3.99211
 601	1	3	0.998761	-5.9517	-2.9993	-3.74379
 602	1	2	-0.03943	-4.32595	-0.907509	-2.94697
 603	1	1	0.156851	-4.28803	-1.42015	-1.98703
 604	1	2	-0.395833	-3.57984	0.262509	-3.14853
 605	1	1	0.202602	-2.9717	0.660874	-2.34009
 606	1	2	0.320255	-3.62046	0.932504	-4.3829
 607	1	4	-0.566353	-6.48359	-3.4188	-5.0435
 608	1	4	-0.565639	-6.79125	-2.8624	-2.54723
 609	1	1	0.171248	-4.96806	-4.05582	-1.18002
 610	1	2	-0.142243	-4.25688	-4.33726	-1.95581
 611	1	2	-0.199349	-3.05167	-4.97332	-1.60775
 612	1	1	0.156233	-2.82238	-5.18843	-0.568424
 613	1	2	0.310144	-2.11629	-5.29738	-2.60284
 614	1	5	-0.374171	-0.888567	-5.79433	-2.25532
 615	1	1	0.18393	-3.79802	-4.13513	-5.34398
 616	1	2	-0.1794	-3.59718	-4.38552	-4.30292
 617	1	2	-0.069637	-4.52531	-4.02425	-3.30498
 618	1	1	0.24118	-0.773374	-3.11526	-2.27454
 619	1	1	0.2544	0.986434	-1.75224	-1.11207
 620	1	2	-0.557237	0.0239212	-3.60753	-1.72515
 621	1	2	-0.032586	1.01611	-2.84052	-1.07815
 622	1	2	0.370208	0.0721455	-5.01529	-1.65382
 623	1	2	0.127886	2.06069	-3.47247	-0.376167
 624	1	7	-0.036788	2.99658	-2.72598	0.285001
 625	1	2	0.039962	1.12375	-5.64239	-0.958885
 626	1	2	-0.445847	2.11768	-4.87607	-0.315973
 627	1	1	0.122566	1.15401	-6.72706	-0.913739
 628	1	1	0.163876	2.91891	-5.36823	0.229787
 629	1	2	-0.180142	-2.39489	-5.02319	-3.94938
 630	1	1	0.144642	-1.65781	-5.27027	-4.70744
 631	1	1	0.203463	3.52243	-2.4746	-2.35892
 632	1	2	-0.404697	4.30916	-2.14653	-1.68716
 633	1	2	-0.023572	5.51006	-1.65328	-2.22791
 634	1	1	0.153856	5.64055	-1.59494	-3.3078
 635	1	2	-0.109138	6.55567	-1.25607	-1.37553
 636	1	3	0.998761	8.14388	-0.762028	-2.06955
 637	1	2	-0.03943	6.38484	-1.3219	0.0177764
 638	1	1	0.156851	7.19377	-1.01263	0.678703
 639	1	2	-0.395833	5.17686	-1.80488	0.551027
 640	1	1	0.202602	5.04868	-1.86806	1.62747
 641	1	2	0.320255	4.1406	-2.23619	-0.291862
 642	1	4	-0.566353	7.8831	-0.314565	-3.44179
 643	1	4	-0.565639	8.85545	0.0482372	-1.07399
 644	1	1	0.171248	10.2888	-2.01562	-0.496597
 645	1	2	-0.142243	9.96331	-2.73358	-1.24825