pySIMM System Object

947 atoms
1027 bonds
1674 angles
2482 dihedrals
324 impropers

7 atom types
7 bond types
11 angle types
4 dihedral types
1 improper types

-151.857883 151.857883 xlo xhi
-151.857883 151.857883 ylo yhi
-151.857883 151.857883 zlo zhi

Masses

   1	1.008	# ha
   2	12.01	# ca
   3	32.06	# sy
   4	16.0	# o
   5	16.0	# os
   6	1.008	# ho
   7	16.0	# oh

Pair Coeffs

   1	0.015	2.59964245953351	# ha
   2	0.086	3.3996695084235347	# ca
   3	0.25	3.563594872561357	# sy
   4	0.21	2.959921901149463	# o
   5	0.17	3.0000123434657784	# os
   6	0.0	0.0	# ho
   7	0.2104	3.0664733878390478	# oh

Bond Coeffs

   1	493.0	1.466	# o,sy
   2	345.8	1.086	# ca,ha
   3	384.0	1.3637	# ca,oh
   4	376.6	1.3696	# ca,os
   5	371.4	0.973	# ho,oh
   6	243.4	1.7909	# ca,sy
   7	461.1	1.3984	# ca,ca

Angle Coeffs

   1	48.18	119.88	# ca,ca,ha
   2	61.48	119.42	# ca,ca,sy
   3	72.54	121.41	# o,sy,o
   4	69.58	119.2	# ca,ca,os
   5	60.3	104.44	# ca,sy,ca
   6	49.0	108.58	# ca,oh,ho
   7	65.77	108.35	# ca,sy,o
   8	63.48	119.89	# ca,os,ca
   9	69.52	119.9	# ca,ca,oh
  10	66.62	120.02	# ca,ca,ca
  11	63.5	119.89	# ca,oh,ca

Dihedral Coeffs

   1	1	0.9	2	180	# X,ca,os,X
   2	1	0.9	2	180	# X,ca,oh,X
   3	1	3.625	2	180	# X,ca,ca,X
   4	1	1.3	2	180	# X,ca,sy,X

Improper Coeffs

   1	1.1	-1	2	# ca,X,X,ha

Atoms

   1	1	1	0.203463	-3.67277	-21.4362	23.7968
   2	1	2	-0.404697	-4.27448	-21.4885	22.894
   3	1	2	-0.023572	-4.64909	-20.3085	22.2303
   4	1	1	0.153856	-4.33122	-19.3428	22.6159
   5	1	2	-0.109138	-5.435	-20.3723	21.0664
   6	1	3	0.998761	-5.91799	-18.8554	20.2187
   7	1	2	-0.03943	-5.83144	-21.6261	20.5622
   8	1	1	0.156851	-6.43206	-21.6817	19.6531
   9	1	2	-0.395833	-5.44666	-22.8035	21.2284
  10	1	1	0.202602	-5.73826	-23.7739	20.8382
  11	1	2	0.320255	-4.67023	-22.7378	22.3961
  12	1	4	-0.566353	-6.78305	-19.2147	19.0902
  13	1	4	-0.565639	-6.36302	-17.8771	21.2196
  14	1	1	0.171248	-4.59802	-19.1617	17.6292
  15	1	2	-0.142243	-3.99226	-18.486	18.2327
  16	1	2	-0.199349	-2.88489	-17.8355	17.6622
  17	1	1	0.156233	-2.63522	-17.9918	16.6171
  18	1	2	0.310144	-2.15427	-16.904	18.4166
  19	1	5	-0.374171	-1.27207	-16.0681	17.7891
  20	1	1	0.18393	-3.86431	-17.0985	21.3661
  21	1	2	-0.1794	-3.58338	-17.3192	20.3364
  22	1	2	-0.069637	-4.36632	-18.2015	19.5614
  23	1	1	0.24118	-3.79068	-15.1276	17.661
  24	1	1	0.2544	-4.57608	-13.3657	16.0913
  25	1	2	-0.557237	-3.08148	-14.6621	16.982
  26	1	2	-0.032586	-3.52756	-13.6636	16.0943
  27	1	2	0.370208	-1.72752	-15.0613	16.9676
  28	1	2	0.127886	-2.62655	-13.0537	15.1962
  29	1	7	-0.036788	-3.0535	-12.1155	14.2957
  30	1	2	0.039962	-0.826699	-14.4307	16.0889
  31	1	2	-0.445847	-1.27242	-13.4317	15.1985
  32	1	1	0.122566	0.215644	-14.7353	16.0933
  33	1	1	0.163876	-0.572937	-12.9612	14.5124
  34	1	2	-0.180142	-2.47974	-16.6687	19.7593
  35	1	1	0.144642	-1.9165	-15.9323	20.3246
  36	1	1	0.203463	-3.11222	-10.6674	16.5267
  37	1	2	-0.404697	-3.9073	-10.4495	15.8185
  38	1	2	-0.023572	-4.82268	-9.42121	16.0969
  39	1	1	0.153856	-4.73406	-8.84431	17.0163
  40	1	2	-0.109138	-5.83673	-9.12067	15.1721
  41	1	3	0.998761	-6.99086	-7.78394	15.5141
  42	1	2	-0.03943	-5.93018	-9.84604	13.9704
  43	1	1	0.156851	-6.70795	-9.60573	13.2458
  44	1	2	-0.395833	-4.99215	-10.8532	13.6882
  45	1	1	0.202602	-5.03768	-11.3875	12.743
  46	1	2	0.320255	-3.97431	-11.1528	14.6042
  47	1	4	-0.566353	-6.19647	-6.59281	15.8281
  48	1	4	-0.565639	-7.98877	-7.79283	14.4386
  49	1	1	0.171248	-6.56919	-7.02842	18.3152
  50	1	2	-0.142243	-7.37112	-7.76526	18.2876
  51	1	2	-0.199349	-8.03608	-8.12382	19.4734
  52	1	1	0.156233	-7.76027	-7.66623	20.4181
  53	1	2	0.310144	-9.10613	-9.02952	19.4298
  54	1	5	-0.374171	-9.83278	-9.2738	20.5604
  55	1	1	0.18393	-9.19845	-9.61849	16.0617
  56	1	2	-0.1794	-8.85538	-9.22515	17.0178
  57	1	2	-0.069637	-7.78407	-8.30947	17.0535
  58	1	1	0.24118	-9.64123	-11.8815	20.2318
  59	1	1	0.2544	-9.17933	-13.5288	22.0826
  60	1	2	-0.557237	-9.40792	-11.537	21.2353
  61	1	2	-0.032586	-9.14916	-12.4568	22.2758
  62	1	2	0.370208	-9.43625	-10.162	21.5198
  63	1	2	0.127886	-8.89714	-11.9949	23.5869
  64	1	7	-0.036788	-8.74457	-12.8587	24.6372
  65	1	2	0.039962	-9.17656	-9.70265	22.8232
  66	1	2	-0.445847	-8.8978	-10.6163	23.8573
  67	1	1	0.122566	-9.22258	-8.63789	23.0307
  68	1	1	0.163876	-8.7211	-10.2589	24.8687
  69	1	2	-0.180142	-9.51664	-9.58057	18.2071
  70	1	1	0.144642	-10.373	-10.2476	18.1837
  71	1	1	0.203463	-8.84504	-14.7733	26.3845
  72	1	2	-0.404697	-7.99205	-14.8391	25.7146
  73	1	2	-0.023572	-7.05906	-15.8764	25.873
  74	1	1	0.153856	-7.1917	-16.6202	26.6581
  75	1	2	-0.109138	-5.95406	-15.9563	25.01
  76	1	3	0.998761	-4.7993	-17.3274	25.1773
  77	1	2	-0.03943	-5.77159	-14.9848	24.0087
  78	1	1	0.156851	-4.8991	-15.0358	23.359
  79	1	2	-0.395833	-6.70241	-13.9394	23.8673
  80	1	1	0.202602	-6.53254	-13.1652	23.1252
  81	1	2	0.320255	-7.82348	-13.8687	24.7156
  82	1	4	-0.566353	-3.9682	-17.3306	23.9667
  83	1	4	-0.565639	-4.18794	-17.2763	26.5078
  84	1	1	0.171248	-4.88263	-19.7679	26.8085
  85	1	2	-0.142243	-5.68987	-19.8305	26.08
  86	1	2	-0.199349	-6.54532	-20.9485	26.0684
  87	1	1	0.156233	-6.407	-21.7537	26.7834
  88	1	2	0.310144	-7.58862	-21.0357	25.135
  89	1	5	-0.374171	-8.41302	-22.1387	25.1729
  90	1	1	0.18393	-7.10277	-18.0566	23.521
  91	1	2	-0.1794	-6.9352	-18.8659	24.228
  92	1	2	-0.069637	-5.87785	-18.7843	25.1545
  93	1	1	0.24118	-7.81686	-23.1383	22.8496
  94	1	1	0.2544	-9.39208	-23.2648	20.8833
  95	1	2	-0.557237	-8.86357	-22.8667	22.9527
  96	1	2	-0.032586	-9.74708	-22.9296	21.8577
  97	1	2	0.370208	-9.32408	-22.3775	24.1822
  98	1	2	0.127886	-11.0786	-22.4778	21.9901
  99	1	7	-0.036788	-11.8876	-22.3738	20.8902
 100	1	2	0.039962	-10.6672	-21.9847	24.3363
 101	1	2	-0.445847	-11.5499	-22.0317	23.2379
 102	1	1	0.122566	-10.9981	-21.5873	25.2909
 103	1	1	0.163876	-12.572	-21.6759	23.3414
 104	1	2	-0.180142	-7.78145	-19.9862	24.2135
 105	1	1	0.144642	-8.58354	-20.028	23.4834
 106	1	1	0.203463	-12.719	-22.9913	18.4778
 107	1	2	-0.404697	-11.9591	-22.2155	18.5004
 108	1	2	-0.023572	-11.4817	-21.6665	17.2963
 109	1	1	0.153856	-11.8728	-22.0126	16.34
 110	1	2	-0.109138	-10.4815	-20.6788	17.3229
 111	1	3	0.998761	-9.85079	-19.9949	15.7805
 112	1	2	-0.03943	-9.97919	-20.2246	18.554
 113	1	1	0.156851	-9.20984	-19.4548	18.5812
 114	1	2	-0.395833	-10.4734	-20.7649	19.7514
 115	1	1	0.202602	-10.084	-20.3959	20.6965
 116	1	2	0.320255	-11.4506	-21.7795	19.7324
 117	1	4	-0.566353	-8.53694	-20.597	15.529
 118	1	4	-0.565639	-10.9387	-20.1231	14.8047
 119	1	1	0.171248	-7.4637	-18.2902	15.7837
 120	1	2	-0.142243	-8.3092	-17.6752	16.0894
 121	1	2	-0.199349	-8.11422	-16.3215	16.4144
 122	1	1	0.156233	-7.12222	-15.8861	16.3539
 123	1	2	0.310144	-9.20279	-15.5344	16.8276
 124	1	5	-0.374171	-9.03377	-14.2162	17.1648
 125	1	1	0.18393	-11.6856	-17.8783	16.6194
 126	1	2	-0.1794	-10.6889	-17.443	16.5626
 127	1	2	-0.069637	-9.59837	-18.2413	16.1607
 128	1	1	0.24118	-8.02545	-15.5096	19.2627
 129	1	1	0.2544	-6.16637	-14.656	20.7106
 130	1	2	-0.557237	-7.56745	-14.5444	19.0545
 131	1	2	-0.032586	-6.52332	-14.06	19.8698
 132	1	2	0.370208	-8.0112	-13.777	17.9631
 133	1	2	0.127886	-5.9263	-12.8102	19.6036
 134	1	7	-0.036788	-4.91701	-12.3776	20.4285
 135	1	2	0.039962	-7.41458	-12.5353	17.6888
 136	1	2	-0.445847	-6.36572	-12.0545	18.4934
 137	1	1	0.122566	-7.76557	-11.9526	16.8426
 138	1	1	0.163876	-5.91887	-11.0953	18.2491
 139	1	2	-0.180142	-10.4874	-16.0915	16.8951
 140	1	1	0.144642	-11.3204	-15.4723	17.213
 141	1	1	0.203463	-2.37494	-12.1835	19.8196
 142	1	2	-0.404697	-2.8847	-11.2282	19.9088
 143	1	2	-0.023572	-2.18341	-10.0322	19.6758
 144	1	1	0.153856	-1.1249	-10.0605	19.419
 145	1	2	-0.109138	-2.84957	-8.79651	19.7729
 146	1	3	0.998761	-1.96614	-7.26425	19.4133
 147	1	2	-0.03943	-4.2057	-8.76033	20.1452
 148	1	1	0.156851	-4.71453	-7.80236	20.2436
 149	1	2	-0.395833	-4.89627	-9.96109	20.3903
 150	1	1	0.202602	-5.94613	-9.94057	20.67
 151	1	2	0.320255	-4.24395	-11.1986	20.2509
 152	1	4	-0.566353	-2.66802	-6.15813	20.0767
 153	1	4	-0.565639	-0.544677	-7.54503	19.6352
 154	1	1	0.171248	-0.98679	-8.80644	17.1243
 155	1	2	-0.142243	-1.61423	-8.00692	16.7368
 156	1	2	-0.199349	-1.82675	-7.89511	15.3501
 157	1	1	0.156233	-1.37252	-8.61949	14.6846
 158	1	2	0.310144	-2.60668	-6.84207	14.8361
 159	1	5	-0.374171	-2.84083	-6.65963	13.4924
 160	1	1	0.18393	-3.42855	-5.29848	17.7795
 161	1	2	-0.1794	-2.9771	-6.02667	17.1068
 162	1	2	-0.069637	-2.20115	-7.08321	17.6249
 163	1	1	0.24118	-0.590578	-7.71498	12.6262
 164	1	1	0.2544	-0.40579	-9.40247	10.7805
 165	1	2	-0.557237	-1.48094	-8.09981	12.1329
 166	1	2	-0.032586	-1.38609	-9.0382	11.0849
 167	1	2	0.370208	-2.74087	-7.6298	12.531
 168	1	2	0.127886	-2.54896	-9.48915	10.4145
 169	1	7	-0.036788	-2.48485	-10.3767	9.36883
 170	1	2	0.039962	-3.8988	-8.07338	11.8656
 171	1	2	-0.445847	-3.80915	-9.00902	10.8132
 172	1	1	0.122566	-4.86289	-7.6736	12.1653
 173	1	1	0.163876	-4.70814	-9.33668	10.2978
 174	1	2	-0.180142	-3.16613	-5.90727	15.7188
 175	1	1	0.144642	-3.77573	-5.10262	15.3185
 176	1	1	0.203463	-1.33268	-8.64471	7.73843
 177	1	2	-0.404697	-0.78217	-9.57147	7.87757
 178	1	2	-0.023572	0.470853	-9.74423	7.26633
 179	1	1	0.153856	0.8926	-8.95559	6.64546
 180	1	2	-0.109138	1.19209	-10.9332	7.47514
 181	1	3	0.998761	2.8426	-11.1049	6.77944
 182	1	2	-0.03943	0.640525	-11.9636	8.25749
 183	1	1	0.156851	1.19514	-12.8903	8.40589
 184	1	2	-0.395833	-0.61822	-11.7862	8.85765
 185	1	1	0.202602	-1.04077	-12.5716	9.478
 186	1	2	0.320255	-1.32592	-10.5889	8.6777
 187	1	4	-0.566353	3.24167	-12.51	6.91009
 188	1	4	-0.565639	2.8185	-10.3996	5.49327
 189	1	1	0.171248	4.41631	-11.7987	9.15614
 190	1	2	-0.142243	4.47715	-10.7192	9.02399
 191	1	2	-0.199349	5.21458	-9.93935	9.93457
 192	1	1	0.156233	5.71783	-10.4033	10.7774
 193	1	2	0.310144	5.32223	-8.55368	9.74658
 194	1	5	-0.374171	6.03493	-7.79299	10.6338
 195	1	1	0.18393	3.43447	-8.23384	6.91624
 196	1	2	-0.1794	3.92523	-8.71155	7.76072
 197	1	2	-0.069637	3.82583	-10.1081	7.93245
 198	1	1	0.24118	8.09716	-9.26604	9.90878
 199	1	1	0.2544	10.3425	-8.37856	9.2444
 200	1	2	-0.557237	8.29107	-8.19752	9.93241
 201	1	2	-0.032586	9.55558	-7.69389	9.56101
 202	1	2	0.370208	7.27106	-7.30887	10.2989
 203	1	2	0.127886	9.79894	-6.30575	9.55199
 204	1	7	-0.036788	11.0334	-5.81247	9.22768
 205	1	2	0.039962	7.51839	-5.92326	10.3167
 206	1	2	-0.445847	8.78039	-5.41551	9.94067
 207	1	1	0.122566	6.7223	-5.24951	10.6169
 208	1	1	0.163876	8.9666	-4.34533	9.95681
 209	1	2	-0.180142	4.67908	-7.93949	8.66167
 210	1	1	0.144642	4.77254	-6.86813	8.52117
 211	1	1	0.203463	10.2534	-5.04199	6.82275
 212	1	2	-0.404697	11.181	-5.60572	6.832
 213	1	2	-0.023572	11.9046	-5.79921	5.64097
 214	1	1	0.153856	11.5345	-5.38698	4.70278
 215	1	2	-0.109138	13.119	-6.50976	5.66759
 216	1	3	0.998761	14.1219	-6.6734	4.18033
 217	1	2	-0.03943	13.6044	-7.02194	6.88359
 218	1	1	0.156851	14.5525	-7.55817	6.90566
 219	1	2	-0.395833	12.8863	-6.80301	8.07229
 220	1	1	0.202602	13.2803	-7.16349	9.01789
 221	1	2	0.320255	11.6722	-6.09934	8.05188
 222	1	4	-0.566353	14.6289	-8.04901	4.11588
 223	1	4	-0.565639	13.361	-6.07375	3.07861
 224	1	1	0.171248	16.9934	-7.16126	4.61387
 225	1	2	-0.142243	16.8059	-6.09965	4.77124
 226	1	2	-0.199349	17.856	-5.25247	5.17063
 227	1	1	0.156233	18.8479	-5.66676	5.32429
 228	1	2	0.310144	17.6165	-3.88207	5.39389
 229	1	5	-0.374171	18.6097	-3.02781	5.81085
 230	1	1	0.18393	14.2753	-3.79887	4.66427
 231	1	2	-0.1794	15.276	-4.20563	4.7992
 232	1	2	-0.069637	15.5086	-5.58002	4.58681
 233	1	1	0.24118	20.2782	-3.96023	7.58019
 234	1	1	0.2544	22.6661	-4.65134	7.09765
 235	1	2	-0.557237	20.7133	-3.83144	6.59288
 236	1	2	-0.032586	22.0431	-4.21468	6.31868
 237	1	2	0.370208	19.9279	-3.29105	5.56519
 238	1	2	0.127886	22.5745	-4.0695	5.02205
 239	1	7	-0.036788	23.8477	-4.51019	4.77368
 240	1	2	0.039962	20.4664	-3.10194	4.27902
 241	1	2	-0.445847	21.7939	-3.48414	4.00414
 242	1	1	0.122566	19.8419	-2.68112	3.49658
 243	1	1	0.163876	22.2015	-3.34927	3.0044
 244	1	2	-0.180142	16.3267	-3.365	5.20841
 245	1	1	0.144642	16.1484	-2.30942	5.38988
 246	1	1	0.203463	26.2804	-4.74319	3.86566
 247	1	2	-0.404697	25.5504	-5.32756	3.31447
 248	1	2	-0.023572	25.9591	-6.09245	2.2081
 249	1	1	0.153856	27.0027	-6.09608	1.89586
 250	1	2	-0.109138	25.0117	-6.83446	1.4836
 251	1	3	0.998761	25.5063	-7.67822	-0.0265504
 252	1	2	-0.03943	23.6645	-6.83578	1.88509
 253	1	1	0.156851	22.9299	-7.41404	1.32503
 254	1	2	-0.395833	23.2655	-6.07	2.99334
 255	1	1	0.202602	22.2207	-6.07022	3.28876
 256	1	2	0.320255	24.2015	-5.28912	3.69924
 257	1	4	-0.566353	26.9376	-7.994	0.0516773
 258	1	4	-0.565639	24.483	-8.69192	-0.306111
 259	1	1	0.171248	23.1354	-6.29122	-0.96102
 260	1	2	-0.142243	23.9937	-5.83455	-1.44963
 261	1	2	-0.199349	23.797	-4.74883	-2.31427
 262	1	1	0.156233	22.789	-4.37175	-2.45991
 263	1	2	0.310144	24.8868	-4.17532	-2.99365
 264	1	5	-0.374171	24.7104	-3.13971	-3.88267
 265	1	1	0.18393	27.3933	-6.11474	-1.68875
 266	1	2	-0.1794	26.3878	-5.73766	-1.87072
 267	1	2	-0.069637	25.2877	-6.33521	-1.21974
 268	1	1	0.24118	23.4111	-0.923207	-3.52988
 269	1	1	0.2544	21.0663	-0.454353	-4.3597
 270	1	2	-0.557237	22.8756	-1.64312	-4.14216
 271	1	2	-0.032586	21.5658	-1.39103	-4.60126
 272	1	2	0.370208	23.4858	-2.87031	-4.43538
 273	1	2	0.127886	20.8837	-2.35558	-5.36925
 274	1	7	-0.036788	19.614	-2.10162	-5.80626
 275	1	2	0.039962	22.8074	-3.83409	-5.20971
 276	1	2	-0.445847	21.5072	-3.57562	-5.68791
 277	1	1	0.122566	23.2846	-4.7893	-5.4082
 278	1	1	0.163876	20.9803	-4.32747	-6.26857
 279	1	2	-0.180142	26.1822	-4.66501	-2.76117
 280	1	1	0.144642	27.0224	-4.20969	-3.27613
 281	1	1	0.203463	17.1885	-1.94749	-6.74734
 282	1	2	-0.404697	17.9578	-1.77717	-7.49404
 283	1	2	-0.023572	17.5921	-1.45356	-8.81324
 284	1	1	0.153856	16.5399	-1.37118	-9.08525
 285	1	2	-0.109138	18.5867	-1.18061	-9.76937
 286	1	3	0.998761	18.1231	-0.601726	-11.4142
 287	1	2	-0.03943	19.9423	-1.24326	-9.40088
 288	1	1	0.156851	20.7142	-0.987164	-10.1238
 289	1	2	-0.395833	20.2986	-1.58351	-8.08444
 290	1	1	0.202602	21.3499	-1.60549	-7.80781
 291	1	2	0.320255	19.308	-1.83433	-7.11566
 292	1	4	-0.566353	18.9964	0.548805	-11.6689
 293	1	4	-0.565639	16.6605	-0.500803	-11.4721
 294	1	1	0.171248	20.753	-1.29837	-12.4819
 295	1	2	-0.142243	20.0276	-1.97178	-12.9329
 296	1	2	-0.199349	20.4387	-2.86948	-13.9317
 297	1	1	0.156233	21.4807	-2.90862	-14.2348
 298	1	2	0.310144	19.4934	-3.67129	-14.5928
 299	1	5	-0.374171	19.8711	-4.41552	-15.6833
 300	1	1	0.18393	16.6706	-2.6404	-12.9589
 301	1	2	-0.1794	17.7274	-2.72396	-13.2102
 302	1	2	-0.069637	18.6677	-1.88633	-12.5724
 303	1	1	0.24118	21.9386	-5.507	-16.82
 304	1	1	0.2544	23.4201	-4.40873	-18.5354
 305	1	2	-0.557237	21.7169	-4.51238	-17.1951
 306	1	2	-0.032586	22.543	-3.88684	-18.1558
 307	1	2	0.370208	20.6028	-3.8296	-16.6873
 308	1	2	0.127886	22.2496	-2.57936	-18.6125
 309	1	7	-0.036788	23.0418	-1.90801	-19.5099
 310	1	2	0.039962	20.2962	-2.53504	-17.158
 311	1	2	-0.445847	21.1177	-1.91034	-18.116
 312	1	1	0.122566	19.4328	-2.00851	-16.7613
 313	1	1	0.163876	20.8853	-0.90433	-18.4573
 314	1	2	-0.180142	18.1423	-3.61305	-14.2204
 315	1	1	0.144642	17.4161	-4.22103	-14.7511
 316	1	1	0.203463	25.4481	-1.13336	-18.788
 317	1	2	-0.404697	25.437	-1.90611	-19.5516
 318	1	2	-0.023572	26.6456	-2.39059	-20.0814
 319	1	1	0.153856	27.5976	-1.99292	-19.7321
 320	1	2	-0.109138	26.6255	-3.38311	-21.077
 321	1	3	0.998761	28.1794	-4.00101	-21.7468
 322	1	2	-0.03943	25.3965	-3.88156	-21.5477
 323	1	1	0.156851	25.3798	-4.63409	-22.3359
 324	1	2	-0.395833	24.1922	-3.38708	-21.0161
 325	1	1	0.202602	23.2409	-3.74898	-21.3971
 326	1	2	0.320255	24.2101	-2.39802	-20.0204
 327	1	4	-0.566353	29.072	-2.84546	-21.8856
 328	1	4	-0.565639	27.8564	-4.90035	-22.8603
 329	1	1	0.171248	27.7963	-6.80136	-21.0062
 330	1	2	-0.142243	28.4478	-6.35216	-20.2579
 331	1	2	-0.199349	28.9405	-7.12922	-19.1942
 332	1	1	0.156233	28.6699	-8.17766	-19.1184
 333	1	2	0.310144	29.8034	-6.5561	-18.243
 334	1	5	-0.374171	30.3292	-7.29917	-17.2166
 335	1	1	0.18393	29.9924	-3.38696	-19.5182
 336	1	2	-0.1794	29.6843	-4.42723	-19.4197
 337	1	2	-0.069637	28.8158	-4.99676	-20.3744
 338	1	1	0.24118	27.9829	-7.00098	-16.0722
 339	1	1	0.2544	26.7249	-8.81359	-14.8555
 340	1	2	-0.557237	28.3807	-8.00977	-16.0104
 341	1	2	-0.032586	27.6817	-9.02967	-15.3298
 342	1	2	0.370208	29.6305	-8.29229	-16.5848
 343	1	2	0.127886	28.2246	-10.3318	-15.24
 344	1	7	-0.036788	27.5864	-11.333	-14.5544
 345	1	2	0.039962	30.1788	-9.58368	-16.4874
 346	1	2	-0.445847	29.4757	-10.6072	-15.8207
 347	1	1	0.122566	31.1495	-9.78206	-16.9318
 348	1	1	0.163876	29.9051	-11.6032	-15.7454
 349	1	2	-0.180142	30.1779	-5.20986	-18.3606
 350	1	1	0.144642	30.8596	-4.78217	-17.6315
 351	1	1	0.203463	26.3253	-11.7251	-12.2897
 352	1	2	-0.404697	25.6708	-11.628	-13.1515
 353	1	2	-0.023572	24.2783	-11.74	-12.9924
 354	1	1	0.153856	23.853	-11.9277	-12.0071
 355	1	2	-0.109138	23.4344	-11.6352	-14.1128
 356	1	3	0.998761	21.6511	-11.8085	-13.9164
 357	1	2	-0.03943	23.9871	-11.4239	-15.3889
 358	1	1	0.156851	23.3354	-11.3715	-16.2605
 359	1	2	-0.395833	25.3809	-11.3115	-15.5383
 360	1	1	0.202602	25.8098	-11.178	-16.5277
 361	1	2	0.320255	26.2271	-11.418	-14.4214
 362	1	4	-0.566353	21.0918	-12.1625	-15.2258
 363	1	4	-0.565639	21.4316	-12.6158	-12.7114
 364	1	1	0.171248	20.6358	-9.62033	-15.5863
 365	1	2	-0.142243	20.6698	-9.2621	-14.5585
 366	1	2	-0.199349	20.2318	-7.96004	-14.2525
 367	1	1	0.156233	19.8663	-7.30003	-15.0343
 368	1	2	0.310144	20.2326	-7.51134	-12.925
 369	1	5	-0.374171	19.7571	-6.25454	-12.6487
 370	1	1	0.18393	21.4799	-10.3145	-11.4024
 371	1	2	-0.1794	21.143	-9.65431	-12.2008
 372	1	2	-0.069637	21.1224	-10.1178	-13.5323
 373	1	1	0.24118	20.3383	-4.39839	-10.9391
 374	1	1	0.2544	19.1335	-3.99404	-8.75815
 375	1	2	-0.557237	19.4679	-4.98452	-10.6606
 376	1	2	-0.032586	18.7877	-4.75953	-9.44719
 377	1	2	0.370208	19.0264	-5.99762	-11.5198
 378	1	2	0.127886	17.6668	-5.5406	-9.09856
 379	1	7	-0.036788	17.056	-5.36825	-7.88605
 380	1	2	0.039962	17.8943	-6.76952	-11.1849
 381	1	2	-0.445847	17.2096	-6.54192	-9.97341
 382	1	1	0.122566	17.5661	-7.55608	-11.858
 383	1	1	0.163876	16.3506	-7.15284	-9.70665
 384	1	2	-0.180142	20.7022	-8.35347	-11.9
 385	1	1	0.144642	20.7159	-8.00205	-10.8725
 386	1	1	0.203463	19.0649	-7.07675	-7.46054
 387	1	2	-0.404697	18.794	-6.46339	-6.60527
 388	1	2	-0.023572	19.495	-6.61434	-5.39814
 389	1	1	0.153856	20.3134	-7.32987	-5.32644
 390	1	2	-0.109138	19.1463	-5.83224	-4.28417
 391	1	3	0.998761	20.0557	-6.02783	-2.74391
 392	1	2	-0.03943	18.0845	-4.91491	-4.37493
 393	1	1	0.156851	17.8137	-4.31246	-3.50862
 394	1	2	-0.395833	17.3794	-4.77948	-5.5848
 395	1	1	0.202602	16.5515	-4.08129	-5.65481
 396	1	2	0.320255	17.7373	-5.54024	-6.70866
 397	1	4	-0.566353	19.903	-4.79138	-1.96757
 398	1	4	-0.565639	21.3679	-6.57723	-3.09676
 399	1	1	0.171248	20.2014	-8.94695	-2.89161
 400	1	2	-0.142243	19.3988	-8.6917	-2.20083
 401	1	2	-0.199349	18.6479	-9.71228	-1.58951
 402	1	1	0.156233	18.8582	-10.7554	-1.80635
 403	1	2	0.310144	17.6166	-9.39105	-0.694919
 404	1	5	-0.374171	16.8939	-10.4073	-0.122366
 405	1	1	0.18393	17.8966	-5.97917	-0.748204
 406	1	2	-0.1794	18.1008	-7.02005	-0.994569
 407	1	2	-0.069637	19.1214	-7.33917	-1.91434
 408	1	1	0.24118	15.8388	-10.316	2.26193
 409	1	1	0.2544	13.4002	-10.0487	2.77277
 410	1	2	-0.557237	15.1121	-10.2475	1.45726
 411	1	2	-0.032586	13.7359	-10.0961	1.73648
 412	1	2	0.370208	15.5531	-10.2846	0.128695
 413	1	2	0.127886	12.8012	-9.99563	0.678832
 414	1	7	-0.036788	11.4489	-9.88285	0.878715
 415	1	2	0.039962	14.6272	-10.1775	-0.926092
 416	1	2	-0.445847	13.2522	-10.0369	-0.65326
 417	1	1	0.122566	14.9811	-10.2085	-1.95168
 418	1	1	0.163876	12.539	-9.96201	-1.46988
 419	1	2	-0.180142	17.3507	-8.04426	-0.388508
 420	1	1	0.144642	16.5699	-7.79588	0.32551
 421	1	1	0.203463	11.5279	-7.8879	2.62148
 422	1	2	-0.404697	10.9194	-8.73547	2.92842
 423	1	2	-0.023572	10.2058	-8.69394	4.13813
 424	1	1	0.153856	10.2684	-7.82072	4.78349
 425	1	2	-0.109138	9.38671	-9.77525	4.50834
 426	1	3	0.998761	8.42455	-9.66859	6.02125
 427	1	2	-0.03943	9.29523	-10.9063	3.68018
 428	1	1	0.156851	8.66028	-11.7438	3.96849
 429	1	2	-0.395833	10.0144	-10.9404	2.47324
 430	1	1	0.202602	9.93402	-11.803	1.81851
 431	1	2	0.320255	10.8231	-9.85868	2.09278
 432	1	4	-0.566353	7.87694	-10.9961	6.32027
 433	1	4	-0.565639	9.2673	-8.93028	6.96546
 434	1	1	0.171248	5.80627	-10.2007	4.81979
 435	1	2	-0.142243	5.91302	-9.12068	4.92113
 436	1	2	-0.199349	4.87818	-8.27281	4.48868
 437	1	1	0.156233	3.97609	-8.69194	4.05297
 438	1	2	0.310144	4.98976	-6.88559	4.6506
 439	1	5	-0.374171	3.92478	-6.08117	4.33874
 440	1	1	0.18393	8.08768	-6.75583	6.10029
 441	1	2	-0.1794	7.19432	-7.17803	5.64319
 442	1	2	-0.069637	7.0741	-8.577	5.50679
 443	1	1	0.24118	4.2995	-4.84823	6.62279
 444	1	1	0.2544	2.58189	-4.56644	8.42127
 445	1	2	-0.557237	3.29264	-5.22597	6.48309
 446	1	2	-0.032586	2.32056	-5.06906	7.49007
 447	1	2	0.370208	2.95527	-5.8713	5.28321
 448	1	2	0.127886	1.01298	-5.57599	7.31282
 449	1	7	-0.036788	0.0696093	-5.47569	8.30729
 450	1	2	0.039962	1.64308	-6.34197	5.08357
 451	1	2	-0.445847	0.669902	-6.19639	6.09671
 452	1	1	0.122566	1.3952	-6.83948	4.15022
 453	1	1	0.163876	-0.338015	-6.57271	5.94103
 454	1	2	-0.180142	6.15501	-6.33548	5.20811
 455	1	1	0.144642	6.23811	-5.25947	5.31747
 456	1	1	0.203463	1.7968	-7.10566	9.50597
 457	1	2	-0.404697	1.36347	-6.34305	10.1482
 458	1	2	-0.023572	1.78009	-6.24667	11.4844
 459	1	1	0.153856	2.53481	-6.92831	11.8782
 460	1	2	-0.109138	1.22993	-5.2656	12.3252
 461	1	3	0.998761	1.81893	-5.22366	14.0265
 462	1	2	-0.03943	0.242892	-4.39017	11.8319
 463	1	1	0.156851	-0.203773	-3.63671	12.478
 464	1	2	-0.395833	-0.158034	-4.4838	10.485
 465	1	1	0.202602	-0.906168	-3.80037	10.0932
 466	1	2	0.320255	0.404964	-5.4509	9.63678
 467	1	4	-0.566353	3.2828	-5.18486	13.9422
 468	1	4	-0.565639	1.14724	-6.36525	14.6551
 469	1	1	0.171248	3.13161	-2.68108	14.7044
 470	1	2	-0.142243	2.09797	-2.62253	15.044
 471	1	2	-0.199349	1.66424	-1.50479	15.7833
 472	1	1	0.156233	2.35014	-0.693714	16.0111
 473	1	2	0.310144	0.35626	-1.45855	16.2877
 474	1	5	-0.374171	-0.0113404	-0.413869	17.1046
 475	1	1	0.18393	-0.779301	-4.47501	15.1285
 476	1	2	-0.1794	-0.105918	-3.63206	15.2785
 477	1	2	-0.069637	1.21934	-3.70181	14.8081
 478	1	1	0.24118	-2.06556	1.12592	17.4531
 479	1	1	0.2544	-3.95241	0.698969	19.0602
 480	1	2	-0.557237	-2.03628	0.286877	18.1424
 481	1	2	-0.032586	-3.09354	0.0335687	19.0427
 482	1	2	0.370208	-0.942542	-0.586923	18.0984
 483	1	2	0.127886	-3.06651	-1.1045	19.8831
 484	1	7	-0.036788	-4.12185	-1.4384	20.6952
 485	1	2	0.039962	-0.879559	-1.68508	18.9823
 486	1	2	-0.445847	-1.94708	-1.95429	19.8608
 487	1	1	0.122566	-0.026809	-2.35709	18.9432
 488	1	1	0.163876	-1.91394	-2.8339	20.501
 489	1	2	-0.180142	-0.539441	-2.50674	15.9981
 490	1	1	0.144642	-1.55817	-2.4747	16.3736
 491	1	1	0.203463	-6.12955	0.0930208	19.8685
 492	1	2	-0.404697	-5.80483	0.27244	20.889
 493	1	2	-0.023572	-6.38781	1.30858	21.6378
 494	1	1	0.153856	-7.14107	1.95139	21.1839
 495	1	2	-0.109138	-5.946	1.562	22.9503
 496	1	3	0.998761	-6.47968	3.07073	23.7799
 497	1	2	-0.03943	-4.97497	0.731688	23.5365
 498	1	1	0.156851	-4.63925	0.920672	24.5558
 499	1	2	-0.395833	-4.39911	-0.30393	22.781
 500	1	1	0.202602	-3.62365	-0.928427	23.216
 501	1	2	0.320255	-4.78154	-0.510351	21.448
 502	1	4	-0.566353	-7.93432	3.01075	23.9586
 503	1	4	-0.565639	-5.55676	3.30657	24.8944
 504	1	1	0.171248	-8.21711	4.79545	22.1741
 505	1	2	-0.142243	-7.20713	4.8679	21.7712
 506	1	2	-0.199349	-6.99288	5.4755	20.5233
 507	1	1	0.156233	-7.83097	5.87074	19.9576
 508	1	2	0.310144	-5.71725	5.46917	19.9434
 509	1	5	-0.374171	-5.62964	5.74173	18.6057
 510	1	1	0.18393	-4.01362	3.80356	22.3952
 511	1	2	-0.1794	-4.83584	4.31489	21.8947
 512	1	2	-0.069637	-6.13674	4.24274	22.44
 513	1	1	0.24118	-5.1169	5.62042	16.1294
 514	1	1	0.2544	-3.92107	7.36316	14.7661
 515	1	2	-0.557237	-4.68104	6.49654	16.6009
 516	1	2	-0.032586	-4.01485	7.47851	15.843
 517	1	2	0.370208	-4.8367	6.66637	17.9823
 518	1	2	0.127886	-3.51082	8.63703	16.4681
 519	1	7	-0.036788	-2.95324	9.64134	15.7252
 520	1	2	0.039962	-4.30227	7.80479	18.6216
 521	1	2	-0.445847	-3.63952	8.79375	17.8616
 522	1	1	0.122566	-4.43857	7.94109	19.6899
 523	1	1	0.163876	-3.25478	9.68788	18.3451
 524	1	2	-0.180142	-4.62866	4.92017	20.64
 525	1	1	0.144642	-3.65336	4.87104	20.1647
 526	1	1	0.203463	-2.61276	8.68167	13.2725
 527	1	2	-0.404697	-1.69819	8.93272	13.7986
 528	1	2	-0.023572	-0.456685	8.71874	13.1775
 529	1	1	0.153856	-0.441492	8.28891	12.1835
 530	1	2	-0.109138	0.738576	9.05754	13.8442
 531	1	3	0.998761	2.36881	8.70956	13.1415
 532	1	2	-0.03943	0.674408	9.63005	15.1268
 533	1	1	0.156851	1.59525	9.89466	15.6459
 534	1	2	-0.395833	-0.5709	9.83268	15.7458
 535	1	1	0.202602	-0.620305	10.2593	16.743
 536	1	2	0.320255	-1.75623	9.47028	15.0934
 537	1	4	-0.566353	3.25384	9.82884	13.4824
 538	1	4	-0.565639	2.6753	7.35101	13.5984
 539	1	1	0.171248	1.11579	6.71016	11.4433
 540	1	2	-0.142243	1.49196	7.49485	10.7884
 541	1	2	-0.199349	1.28102	7.41374	9.40332
 542	1	1	0.156233	0.711754	6.58173	9.00758
 543	1	2	0.310144	1.81784	8.39633	8.55075
 544	1	5	-0.374171	1.67015	8.35141	7.1856
 545	1	1	0.18393	3.26201	10.4208	10.9112
 546	1	2	-0.1794	2.7052	9.58289	10.4909
 547	1	2	-0.069637	2.1669	8.59885	11.3443
 548	1	1	0.24118	-0.320279	9.2861	5.84589
 549	1	1	0.2544	-1.88392	7.93416	4.3953
 550	1	2	-0.557237	-0.247421	8.2029	5.79984
 551	1	2	-0.032586	-1.12034	7.44222	4.99525
 552	1	2	0.370208	0.775027	7.56287	6.51116
 553	1	2	0.127886	-0.97298	6.04357	4.90956
 554	1	7	-0.036788	-1.68185	5.35165	3.97052
 555	1	2	0.039962	0.919369	6.16169	6.43535
 556	1	2	-0.445847	0.0375763	5.39513	5.64433
 557	1	1	0.122566	1.73542	5.68074	6.96629
 558	1	1	0.163876	0.177812	4.32124	5.55534
 559	1	2	-0.180142	2.54243	9.4674	9.09778
 560	1	1	0.144642	2.96764	10.2141	8.43339
 561	1	1	0.203463	-2.2265	3.24662	5.4928
 562	1	2	-0.404697	-3.07759	3.65564	4.95764
 563	1	2	-0.023572	-4.31944	2.99856	5.00506
 564	1	1	0.153856	-4.43672	2.08557	5.58718
 565	1	2	-0.109138	-5.39823	3.49335	4.2522
 566	1	3	0.998761	-6.93746	2.57198	4.18644
 567	1	2	-0.03943	-5.25437	4.6708	3.49822
 568	1	1	0.156851	-6.09601	5.05458	2.92044
 569	1	2	-0.395833	-4.01091	5.32253	3.45918
 570	1	1	0.202602	-3.88614	6.20352	2.83778
 571	1	2	0.320255	-2.91756	4.80991	4.17394
 572	1	4	-0.566353	-7.66359	3.04872	3.00379
 573	1	4	-0.565639	-7.5394	2.59132	5.52324
 574	1	1	0.171248	-7.278	0.077119	5.67412
 575	1	2	-0.142243	-6.7505	-0.158179	4.75055
 576	1	2	-0.199349	-6.54957	-1.49875	4.38421
 577	1	1	0.156233	-6.94153	-2.29281	5.01018
 578	1	2	0.310144	-6.01521	-1.81202	3.12401
 579	1	5	-0.374171	-6.32809	-3.02561	2.5631
 580	1	1	0.18393	-5.48021	1.35616	1.95604
 581	1	2	-0.1794	-5.74262	0.560168	2.65143
 582	1	2	-0.069637	-6.40143	0.873863	3.85816
 583	1	1	0.24118	-8.55952	-3.49783	3.84159
 584	1	1	0.2544	-10.7814	-2.58824	3.09401
 585	1	2	-0.557237	-8.69084	-3.12489	2.83148
 586	1	2	-0.032586	-9.93147	-2.60266	2.41388
 587	1	2	0.370208	-7.57449	-3.01449	1.98652
 588	1	2	0.127886	-10.0608	-2.00083	1.14854
 589	1	7	-0.036788	-11.2304	-1.35962	0.840003
 590	1	2	0.039962	-7.73203	-2.51802	0.676613
 591	1	2	-0.445847	-8.98261	-2.03333	0.242588
 592	1	1	0.122566	-6.85927	-2.4118	0.040423
 593	1	1	0.163876	-9.08442	-1.59657	-0.747415
 594	1	2	-0.180142	-5.54822	-0.784191	2.28764
 595	1	1	0.144642	-5.15869	-1.02995	1.30487
 596	1	1	0.203463	-9.31719	0.502442	0.279477
 597	1	2	-0.404697	-10.3193	0.881472	0.43924
 598	1	2	-0.023572	-10.5462	2.26036	0.283267
 599	1	1	0.153856	-9.72819	2.92082	-0.00384942
 600	1	2	-0.109138	-11.8357	2.7828	0.476185
 601	1	3	0.998761	-12.1891	4.50522	0.0869746
 602	1	2	-0.03943	-12.8772	1.93459	0.88805
 603	1	1	0.156851	-13.8692	2.34642	1.06797
 604	1	2	-0.395833	-12.6444	0.5543	1.02589
 605	1	1	0.202602	-13.4588	-0.101968	1.31479
 606	1	2	0.320255	-11.3741	0.00920558	0.776344
 607	1	4	-0.566353	-10.9117	5.19187	-0.137678
 608	1	4	-0.565639	-13.1999	4.98739	1.0365
 609	1	1	0.171248	-15.0014	4.64076	-0.733194
 610	1	2	-0.142243	-14.4104	4.4262	-1.62227
 611	1	2	-0.199349	-15.0457	4.26416	-2.86624
 612	1	1	0.156233	-16.1244	4.35381	-2.94681
 613	1	2	0.310144	-14.2981	3.98518	-4.01888
 614	1	5	-0.374171	-14.9845	3.87111	-5.20478
 615	1	1	0.18393	-11.1688	3.98559	-2.61658
 616	1	2	-0.1794	-12.2538	4.05496	-2.68737
 617	1	2	-0.069637	-13.0081	4.32633	-1.52515
 618	1	1	0.24118	-15.459	1.34098	-5.61914
 619	1	1	0.2544	-14.8634	0.0711743	-7.72292
 620	1	2	-0.557237	-14.91	1.81884	-6.42561
 621	1	2	-0.032586	-14.5803	1.11629	-7.60701
 622	1	2	0.370208	-14.5556	3.16965	-6.29963
 623	1	2	0.127886	-13.8937	1.75669	-8.66019
 624	1	7	-0.036788	-13.6017	1.03738	-9.79931
 625	1	2	0.039962	-13.8796	3.82013	-7.34703
 626	1	2	-0.445847	-13.5357	3.11782	-8.51937
 627	1	1	0.122566	-13.6387	4.87424	-7.2501
 628	1	1	0.163876	-13.0133	3.64584	-9.31292
 629	1	2	-0.180142	-12.8966	3.88107	-3.93074
 630	1	1	0.144642	-12.3064	3.67949	-4.81889
 631	1	1	0.203463	-14.2521	2.69988	-11.7564
 632	1	2	-0.404697	-13.1973	2.44577	-11.7109
 633	1	2	-0.023572	-12.2759	3.11825	-12.5349
 634	1	1	0.153856	-12.6156	3.88943	-13.2261
 635	1	2	-0.109138	-10.903	2.83753	-12.4184
 636	1	3	0.998761	-9.68514	3.89487	-13.2385
 637	1	2	-0.03943	-10.4733	1.79488	-11.5747
 638	1	1	0.156851	-9.41388	1.54472	-11.5199
 639	1	2	-0.395833	-11.3941	1.15652	-10.7263
 640	1	1	0.202602	-11.0505	0.420515	-10.0057
 641	1	2	0.320255	-12.7505	1.51271	-10.7608
 642	1	4	-0.566353	-8.50994	3.05291	-13.4852
 643	1	4	-0.565639	-10.3246	4.66856	-14.3065
 644	1	1	0.171248	-9.23072	3.6195	-10.3355
 645	1	2	-0.142243	-9.03018	4.64697	-10.6136
 646	1	2	-0.199349	-8.61207	5.54057	-9.61974
 647	1	1	0.156233	-8.50511	5.20143	-8.59431
 648	1	2	0.310144	-8.3095	6.87161	-9.92713
 649	1	5	-0.374171	-7.90359	7.62529	-8.85271
 650	1	1	0.18393	-8.97666	6.76707	-13.2903
 651	1	2	-0.1794	-8.87894	6.42907	-12.2583
 652	1	2	-0.069637	-9.17204	5.07894	-11.9469
 653	1	1	0.24118	-5.62603	8.73037	-9.6115
 654	1	1	0.2544	-4.70154	10.8158	-8.5429
 655	1	2	-0.557237	-6.26325	9.37194	-9.00895
 656	1	2	-0.032586	-5.7432	10.5374	-8.38917