pySIMM System Object

1750 atoms
1899 bonds
3097 angles
4592 dihedrals
600 impropers

7 atom types
7 bond types
11 angle types
4 dihedral types
1 improper types

-187.576424 187.576424 xlo xhi
-187.576424 187.576424 ylo yhi
-187.576424 187.576424 zlo zhi

Masses

   1	1.008	# ha
   2	12.01	# ca
   3	32.06	# sy
   4	16.0	# o
   5	16.0	# os
   6	1.008	# ho
   7	16.0	# oh

Pair Coeffs

   1	0.015	2.59964245953351	# ha
   2	0.086	3.3996695084235347	# ca
   3	0.25	3.563594872561357	# sy
   4	0.21	2.959921901149463	# o
   5	0.17	3.0000123434657784	# os
   6	0.0	0.0	# ho
   7	0.2104	3.0664733878390478	# oh

Bond Coeffs

   1	493.0	1.466	# o,sy
   2	345.8	1.086	# ca,ha
   3	384.0	1.3637	# ca,oh
   4	376.6	1.3696	# ca,os
   5	371.4	0.973	# ho,oh
   6	243.4	1.7909	# ca,sy
   7	461.1	1.3984	# ca,ca

Angle Coeffs

   1	48.18	119.88	# ca,ca,ha
   2	61.48	119.42	# ca,ca,sy
   3	72.54	121.41	# o,sy,o
   4	69.58	119.2	# ca,ca,os
   5	60.3	104.44	# ca,sy,ca
   6	49.0	108.58	# ca,oh,ho
   7	65.77	108.35	# ca,sy,o
   8	63.48	119.89	# ca,os,ca
   9	69.52	119.9	# ca,ca,oh
  10	66.62	120.02	# ca,ca,ca
  11	63.5	119.89	# ca,oh,ca

Dihedral Coeffs

   1	1	0.9	2	180	# X,ca,os,X
   2	1	0.9	2	180	# X,ca,oh,X
   3	1	3.625	2	180	# X,ca,ca,X
   4	1	1.3	2	180	# X,ca,sy,X

Improper Coeffs

   1	1.1	-1	2	# ca,X,X,ha

Atoms

   1	1	1	0.203463	48.1694	78.3458	-82.7117
   2	1	2	-0.404697	47.5499	79.1669	-82.3644
   3	1	2	-0.023572	46.275	78.9292	-81.8232
   4	1	1	0.153856	45.8917	77.9132	-81.7464
   5	1	2	-0.109138	45.4946	80.0092	-81.3748
   6	1	3	0.998761	43.9012	79.7039	-80.6001
   7	1	2	-0.03943	45.9983	81.3192	-81.4478
   8	1	1	0.156851	45.402	82.1513	-81.0769
   9	1	2	-0.395833	47.2832	81.5422	-81.9734
  10	1	1	0.202602	47.6953	82.5452	-82.0153
  11	1	2	0.320255	48.0613	80.47	-82.4327
  12	1	4	-0.566353	42.9669	80.7908	-80.898
  13	1	4	-0.565639	43.5082	78.3097	-80.845
  14	1	1	0.171248	42.1607	80.099	-78.3041
  15	1	2	-0.142243	43.174	79.9823	-77.9212
  16	1	2	-0.199349	43.4063	79.9738	-76.5335
  17	1	1	0.156233	42.5802	80.0674	-75.837
  18	1	2	0.310144	44.7075	79.8112	-76.0392
  19	1	5	-0.374171	44.9187	79.669	-74.6898
  20	1	1	0.18393	46.4051	79.5413	-78.991
  21	1	2	-0.1794	45.5561	79.6695	-78.3197
  22	1	2	-0.069637	44.2441	79.8077	-78.8224
  23	1	1	0.24118	44.1715	77.225	-75.2067
  24	1	1	0.2544	45.5131	75.1641	-74.7037
  25	1	2	-0.557237	45.1064	77.2923	-74.6548
  26	1	2	-0.032586	45.8678	76.1417	-74.3779
  27	1	2	0.370208	45.5824	78.552	-74.2585
  28	1	2	0.127886	47.1186	76.2525	-73.7327
  29	1	7	-0.036788	47.9183	75.1531	-73.5782
  30	1	2	0.039962	46.7988	78.6608	-73.5568
  31	1	2	-0.445847	47.5747	77.5103	-73.2969
  32	1	1	0.122566	47.1587	79.6432	-73.2649
  33	1	1	0.163876	48.5327	77.6001	-72.7899
  34	1	2	-0.180142	45.7825	79.6816	-76.9341
  35	1	1	0.144642	46.7911	79.5648	-76.5512
  36	1	1	0.203463	49.1827	75.5715	-75.8652
  37	1	2	-0.404697	48.708	74.5985	-75.7806
  38	1	2	-0.023572	48.7843	73.6913	-76.8516
  39	1	1	0.153856	49.3378	73.9519	-77.7534
  40	1	2	-0.109138	48.1644	72.4342	-76.7466
  41	1	3	0.998761	48.3901	71.2149	-78.0531
  42	1	2	-0.03943	47.4738	72.0885	-75.569
  43	1	1	0.156851	47.0099	71.1074	-75.4759
  44	1	2	-0.395833	47.4125	72.9972	-74.4986
  45	1	1	0.202602	46.8877	72.7293	-73.5855
  46	1	2	0.320255	48.0361	74.2498	-74.5979
  47	1	4	-0.566353	49.7049	71.4641	-78.6537
  48	1	4	-0.565639	48.0678	69.9234	-77.4347
  49	1	1	0.171248	48.5726	72.2539	-80.7798
  50	1	2	-0.142243	47.5217	72.0539	-80.5728
  51	1	2	-0.199349	46.5695	72.24	-81.5888
  52	1	1	0.156233	46.8771	72.5931	-82.5677
  53	1	2	0.310144	45.2188	71.9536	-81.3474
  54	1	5	-0.374171	44.2991	72.1419	-82.3433
  55	1	1	0.18393	45.4681	70.824	-78.1265
  56	1	2	-0.1794	45.7726	71.2499	-79.0809
  57	1	2	-0.069637	47.1303	71.5594	-79.3114
  58	1	1	0.24118	43.0187	73.7956	-80.7612
  59	1	1	0.2544	42.2469	76.1167	-81.4029
  60	1	2	-0.557237	43.2286	74.198	-81.7465
  61	1	2	-0.032586	42.7854	75.487	-82.1117
  62	1	2	0.370208	43.8945	73.4027	-82.6914
  63	1	2	0.127886	43.0132	75.9819	-83.4098
  64	1	7	-0.036788	42.4845	77.1998	-83.7438
  65	1	2	0.039962	44.1175	73.8897	-83.9936
  66	1	2	-0.445847	43.6824	75.1812	-84.3575
  67	1	1	0.122566	44.6157	73.2548	-84.7199
  68	1	1	0.163876	43.8315	75.5416	-85.3732
  69	1	2	-0.180142	44.8195	71.4525	-80.0986
  70	1	1	0.144642	43.7735	71.2097	-79.9357
  71	1	1	0.203463	41.2322	79.0738	-85.0286
  72	1	2	-0.404697	42.3128	79.1536	-85.0881
  73	1	2	-0.023572	42.8987	80.2302	-85.773
  74	1	1	0.153856	42.2716	80.9793	-86.2523
  75	1	2	-0.109138	44.2971	80.3598	-85.8097
  76	1	3	0.998761	45.0226	81.8246	-86.5628
  77	1	2	-0.03943	45.1068	79.3901	-85.1918
  78	1	1	0.156851	46.1911	79.4942	-85.2128
  79	1	2	-0.395833	44.5108	78.301	-84.53
  80	1	1	0.202602	45.1366	77.5597	-84.0473
  81	1	2	0.320255	43.1105	78.1855	-84.4611
  82	1	4	-0.566353	46.4825	81.6672	-86.5575
  83	1	4	-0.565639	44.2522	82.1083	-87.7789
  84	1	1	0.171248	42.6326	83.496	-86.2418
  85	1	2	-0.142243	43.3005	83.7097	-85.4091
  86	1	2	-0.199349	42.8998	84.5984	-84.3948
  87	1	1	0.156233	41.9231	85.0708	-84.4304
  88	1	2	0.310144	43.7521	84.8612	-83.3135
  89	1	5	-0.374171	43.322	85.6857	-82.3047
  90	1	1	0.18393	46.4067	82.9009	-84.2307
  91	1	2	-0.1794	45.4289	83.3771	-84.273
  92	1	2	-0.069637	44.5607	83.0798	-85.3416
  93	1	1	0.24118	44.0992	87.337	-80.4692
  94	1	1	0.2544	44.454	86.7669	-78.0291
  95	1	2	-0.557237	43.9109	86.3356	-80.0916
  96	1	2	-0.032586	44.1065	86.0112	-78.732
  97	1	2	0.370208	43.4717	85.3482	-80.9835
  98	1	2	0.127886	43.8541	84.7064	-78.2633
  99	1	7	-0.036788	44.0885	84.4139	-76.9452
 100	1	2	0.039962	43.21	84.0434	-80.5174
 101	1	2	-0.445847	43.412	83.7159	-79.1611
 102	1	1	0.122566	42.8549	83.2896	-81.2138
 103	1	1	0.163876	43.2212	82.703	-78.8167
 104	1	2	-0.180142	45.0252	84.2676	-83.2622
 105	1	1	0.144642	45.6918	84.4931	-82.4358
 106	1	1	0.203463	41.4177	84.1844	-77.1958
 107	1	2	-0.404697	41.8482	83.6741	-76.3384
 108	1	2	-0.023572	41.0057	82.9962	-75.4389
 109	1	1	0.153856	39.9284	82.9828	-75.6026
 110	1	2	-0.109138	41.5525	82.3516	-74.3147
 111	1	3	0.998761	40.4822	81.4687	-73.1644
 112	1	2	-0.03943	42.9403	82.391	-74.0939
 113	1	1	0.156851	43.3664	81.8975	-73.221
 114	1	2	-0.395833	43.774	83.072	-74.9979
 115	1	1	0.202602	44.8447	83.1073	-74.8219
 116	1	2	0.320255	43.2391	83.712	-76.1265
 117	1	4	-0.566353	41.1694	81.4247	-71.869
 118	1	4	-0.565639	39.1233	81.9941	-73.3344
 119	1	1	0.171248	42.1876	79.145	-72.6393
 120	1	2	-0.142243	41.4752	78.8627	-73.414
 121	1	2	-0.199349	41.5164	77.5732	-73.9744
 122	1	1	0.156233	42.2587	76.8557	-73.6406
 123	1	2	0.310144	40.5928	77.2082	-74.9669
 124	1	5	-0.374171	40.6625	75.9697	-75.55
 125	1	1	0.18393	38.811	80.122	-75.159
 126	1	2	-0.1794	39.5733	79.4136	-74.8355
 127	1	2	-0.069637	40.5079	79.792	-73.8492
 128	1	1	0.24118	41.8668	77.6379	-77.2327
 129	1	1	0.2544	43.744	77.0187	-78.7708
 130	1	2	-0.557237	42.2399	76.619	-77.2561
 131	1	2	-0.032586	43.2887	76.2669	-78.1286
 132	1	2	0.370208	41.6623	75.6405	-76.4294
 133	1	2	0.127886	43.7728	74.9427	-78.1683
 134	1	7	-0.036788	44.825	74.6019	-78.9766
 135	1	2	0.039962	42.117	74.3101	-76.4994
 136	1	2	-0.445847	43.1762	73.9574	-77.3626
 137	1	1	0.122566	41.6502	73.5606	-75.8677
 138	1	1	0.163876	43.5312	72.9316	-77.4039
 139	1	2	-0.180142	39.6171	78.1221	-75.3908
 140	1	1	0.144642	38.9025	77.8256	-76.1527
 141	1	1	0.203463	45.8969	76.0973	-77.056
 142	1	2	-0.404697	46.4236	76.1243	-78.0014
 143	1	2	-0.023572	47.5595	76.933	-78.1306
 144	1	1	0.153856	47.9017	77.5312	-77.2887
 145	1	2	-0.109138	48.2458	76.979	-79.3528
 146	1	3	0.998761	49.656	78.0786	-79.5088
 147	1	2	-0.03943	47.8056	76.2011	-80.4383
 148	1	1	0.156851	48.3404	76.233	-81.3871
 149	1	2	-0.395833	46.6488	75.4143	-80.3038
 150	1	1	0.202602	46.2747	74.8479	-81.1508
 151	1	2	0.320255	45.9528	75.3695	-79.0881
 152	1	4	-0.566353	50.265	77.8159	-80.8167
 153	1	4	-0.565639	49.1775	79.4064	-79.1064
 154	1	1	0.171248	50.3217	79.1264	-76.8436
 155	1	2	-0.142243	50.8587	78.1877	-76.9751
 156	1	2	-0.199349	51.7007	77.7125	-75.9518
 157	1	1	0.156233	51.8249	78.286	-75.0377
 158	1	2	0.310144	52.4211	76.5191	-76.1324
 159	1	5	-0.374171	53.2972	76.0536	-75.1841
 160	1	1	0.18393	51.4021	75.7392	-79.3073
 161	1	2	-0.1794	51.4708	76.2838	-78.3659
 162	1	2	-0.069637	50.7422	77.4763	-78.1886
 163	1	1	0.24118	55.1843	76.0596	-73.4323
 164	1	1	0.2544	54.9286	75.7952	-70.9678
 165	1	2	-0.557237	54.1914	75.9794	-72.9933
 166	1	2	-0.032586	54.0406	75.8319	-71.5986
 167	1	2	0.370208	53.0699	75.9997	-73.8297
 168	1	2	0.127886	52.7547	75.7091	-71.0277
 169	1	7	-0.036788	52.5498	75.51	-69.6817
 170	1	2	0.039962	51.7832	75.8676	-73.2674
 171	1	2	-0.445847	51.6251	75.7319	-71.8711
 172	1	1	0.122566	50.9135	75.8448	-73.9149
 173	1	1	0.163876	50.6309	75.621	-71.4469
 174	1	2	-0.180142	52.3108	75.8156	-77.3404
 175	1	1	0.144642	52.8984	74.915	-77.4831
 176	1	1	0.203463	52.8154	73.5371	-67.9913
 177	1	2	-0.404697	53.526	74.3423	-67.8393
 178	1	2	-0.023572	54.4451	74.2708	-66.7766
 179	1	1	0.153856	54.4421	73.4186	-66.1009
 180	1	2	-0.109138	55.3602	75.3135	-66.564
 181	1	3	0.998761	56.4618	75.2521	-65.1309
 182	1	2	-0.03943	55.3442	76.4327	-67.4189
 183	1	1	0.156851	56.0278	77.2618	-67.2375
 184	1	2	-0.395833	54.415	76.5016	-68.4763
 185	1	1	0.202602	54.3768	77.3912	-69.0982
 186	1	2	0.320255	53.5094	75.4489	-68.7009
 187	1	4	-0.566353	57.0644	76.5836	-64.9991
 188	1	4	-0.565639	55.7074	74.6241	-64.037
 189	1	1	0.171248	58.9616	75.5797	-66.6185
 190	1	2	-0.142243	58.8938	74.5358	-66.3169
 191	1	2	-0.199349	59.94	73.6483	-66.6283
 192	1	1	0.156233	60.811	73.9968	-67.1747
 193	1	2	0.310144	59.88	72.3114	-66.2112
 194	1	5	-0.374171	60.9288	71.4767	-66.5045
 195	1	1	0.18393	56.8634	72.3795	-64.5978
 196	1	2	-0.1794	57.7124	72.7349	-65.1794
 197	1	2	-0.069637	57.7724	74.0847	-65.5908
 198	1	1	0.24118	60.9813	71.9914	-63.8649
 199	1	1	0.2544	62.2373	70.6888	-62.1901
 200	1	2	-0.557237	61.584	71.1485	-64.1936
 201	1	2	-0.032586	62.3119	70.4115	-63.2399
 202	1	2	0.370208	61.6359	70.7806	-65.5501
 203	1	2	0.127886	63.1245	69.3227	-63.6299
 204	1	7	-0.036788	63.8278	68.5699	-62.7201
 205	1	2	0.039962	62.4584	69.7075	-65.944
 206	1	2	-0.445847	63.2036	68.9791	-64.9917
 207	1	1	0.122566	62.5097	69.4419	-66.9948
 208	1	1	0.163876	63.8239	68.146	-65.3099
 209	1	2	-0.180142	58.7595	71.8498	-65.4989
 210	1	1	0.144642	58.7207	70.8119	-65.1771
 211	1	1	0.203463	62.8317	67.1132	-60.775
 212	1	2	-0.404697	63.3273	68.0194	-60.4411
 213	1	2	-0.023572	63.3227	68.3631	-59.0783
 214	1	1	0.153856	62.8382	67.7114	-58.353
 215	1	2	-0.109138	63.9115	69.5705	-58.6625
 216	1	3	0.998761	63.8942	70.0493	-56.9309
 217	1	2	-0.03943	64.5119	70.423	-59.6053
 218	1	1	0.156851	64.9562	71.363	-59.2825
 219	1	2	-0.395833	64.5171	70.0678	-60.9644
 220	1	1	0.202602	64.9655	70.7307	-61.6991
 221	1	2	0.320255	63.906	68.876	-61.389
 222	1	4	-0.566353	63.5586	71.4762	-56.8683
 223	1	4	-0.565639	63.1367	69.0381	-56.1824
 224	1	1	0.171248	65.9459	72.0528	-56.3306
 225	1	2	-0.142243	66.4017	71.0694	-56.2279
 226	1	2	-0.199349	67.7487	70.9633	-55.8447
 227	1	1	0.156233	68.3325	71.8579	-55.6507
 228	1	2	0.310144	68.3452	69.7003	-55.6966
 229	1	5	-0.374171	69.6391	69.6045	-55.2512
 230	1	1	0.18393	65.66	67.7372	-56.4915
 231	1	2	-0.1794	66.243	68.6404	-56.319
 232	1	2	-0.069637	65.6381	69.9073	-56.4595
 233	1	1	0.24118	71.2306	71.6683	-55.0504
 234	1	1	0.2544	71.5852	73.0152	-52.9336
 235	1	2	-0.557237	70.7833	71.3656	-54.108
 236	1	2	-0.032586	70.9758	72.1135	-52.9251
 237	1	2	0.370208	69.9642	70.227	-54.0784
 238	1	2	0.127886	70.3422	71.7288	-51.7259
 239	1	7	-0.036788	70.4638	72.5233	-50.6138
 240	1	2	0.039962	69.3754	69.8089	-52.8722
 241	1	2	-0.445847	69.5679	70.5505	-51.6918
 242	1	1	0.122566	68.7444	68.927	-52.8717
 243	1	1	0.163876	69.0863	70.2289	-50.7733
 244	1	2	-0.180142	67.5955	68.5399	-55.9402
 245	1	1	0.144642	68.0595	67.5657	-55.8094
 246	1	1	0.203463	70.7735	72.5278	-48.0073
 247	1	2	-0.404697	69.7428	72.633	-48.3315
 248	1	2	-0.023572	68.7083	72.6836	-47.3816
 249	1	1	0.153856	68.9375	72.6183	-46.3192
 250	1	2	-0.109138	67.3697	72.7684	-47.8039
 251	1	3	0.998761	66.0513	72.5921	-46.5925
 252	1	2	-0.03943	67.0701	72.8625	-49.1738
 253	1	1	0.156851	66.0333	72.9339	-49.5055
 254	1	2	-0.395833	68.1112	72.8182	-50.116
 255	1	1	0.202602	67.8758	72.8559	-51.1761
 256	1	2	0.320255	69.4487	72.6707	-49.7024
 257	1	4	-0.566353	66.4645	73.3133	-45.3834
 258	1	4	-0.565639	64.7695	72.8148	-47.2701
 259	1	1	0.171248	64.8398	70.2123	-47.7992
 260	1	2	-0.142243	65.5392	69.876	-47.0345
 261	1	2	-0.199349	65.7644	68.5014	-46.8367
 262	1	1	0.156233	65.2448	67.7651	-47.4421
 263	1	2	0.310144	66.6673	68.0755	-45.8495
 264	1	5	-0.374171	66.9081	66.7424	-45.6586
 265	1	1	0.18393	67.6376	71.1154	-44.627
 266	1	2	-0.1794	67.1144	70.386	-45.2441
 267	1	2	-0.069637	66.2231	70.8238	-46.2456
 268	1	1	0.24118	68.4399	67.5915	-47.7053
 269	1	1	0.2544	69.676	66.0666	-49.2809
 270	1	2	-0.557237	68.3698	66.5139	-47.5889
 271	1	2	-0.032586	69.0783	65.6589	-48.4632
 272	1	2	0.370208	67.5996	65.959	-46.5481
 273	1	2	0.127886	69.0107	64.2603	-48.3093
 274	1	7	-0.036788	69.7038	63.4649	-49.1837
 275	1	2	0.039962	67.5477	64.5639	-46.3844
 276	1	2	-0.445847	68.2458	63.7106	-47.2591
 277	1	1	0.122566	66.9629	64.1498	-45.5686
 278	1	1	0.163876	68.198	62.6377	-47.1033
 279	1	2	-0.180142	67.3325	69.0122	-45.0473
 280	1	1	0.144642	68.0249	68.6679	-44.2852
 281	1	1	0.203463	68.0852	62.8771	-51.1599
 282	1	2	-0.404697	68.404	62.0178	-50.5796
 283	1	2	-0.023572	67.9487	60.7326	-50.917
 284	1	1	0.153856	67.2692	60.5974	-51.7579
 285	1	2	-0.109138	68.3824	59.6221	-50.1711
 286	1	3	0.998761	67.7801	57.9717	-50.5671
 287	1	2	-0.03943	69.2746	59.8018	-49.0978
 288	1	1	0.156851	69.6198	58.9395	-48.5287
 289	1	2	-0.395833	69.7217	61.0934	-48.7679
 290	1	1	0.202602	70.4128	61.2402	-47.9426
 291	1	2	0.320255	69.2875	62.2045	-49.5081
 292	1	4	-0.566353	68.9122	57.052	-50.4139
 293	1	4	-0.565639	66.9826	58.0697	-51.7949
 294	1	1	0.171248	68.1647	56.6997	-47.9594
 295	1	2	-0.142243	67.1356	57.054	-48.005
 296	1	2	-0.199349	66.2866	56.8958	-46.8953
 297	1	1	0.156233	66.6657	56.4312	-45.9907
 298	1	2	0.310144	64.9581	57.3571	-46.9525
 299	1	5	-0.374171	64.1094	57.2582	-45.8781
 300	1	1	0.18393	64.947	58.5854	-50.1463
 301	1	2	-0.1794	65.3225	58.1138	-49.2395
 302	1	2	-0.069637	66.6601	57.6748	-49.1776
 303	1	1	0.24118	65.3808	57.537	-43.618
 304	1	1	0.2544	65.5729	55.7583	-41.8304
 305	1	2	-0.557237	64.9366	56.553	-43.7509
 306	1	2	-0.032586	65.0441	55.553	-42.7606
 307	1	2	0.370208	64.2335	56.2791	-44.9332
 308	1	2	0.127886	64.4621	54.2803	-42.9634
 309	1	7	-0.036788	64.5253	53.2941	-42.0128
 310	1	2	0.039962	63.645	55.0176	-45.1356
 311	1	2	-0.445847	63.7568	54.0164	-44.1507
 312	1	1	0.122566	63.1003	54.8264	-46.0553
 313	1	1	0.163876	63.2961	53.0437	-44.3076
 314	1	2	-0.180142	64.4785	57.9561	-48.1262
 315	1	1	0.144642	63.4538	58.3131	-48.1598
 316	1	1	0.203463	67.1274	53.5366	-42.5865
 317	1	2	-0.404697	66.9042	53.2847	-41.5531
 318	1	2	-0.023572	67.9575	53.0853	-40.6434
 319	1	1	0.153856	68.9921	53.2001	-40.9659
 320	1	2	-0.109138	67.6758	52.7146	-39.317
 321	1	3	0.998761	69.022	52.472	-38.1454
 322	1	2	-0.03943	66.3426	52.5354	-38.9063
 323	1	1	0.156851	66.1249	52.2243	-37.8851
 324	1	2	-0.395833	65.2958	52.7414	-39.8211
 325	1	1	0.202602	64.2657	52.5922	-39.51
 326	1	2	0.320255	65.5689	53.118	-41.144
 327	1	4	-0.566353	70.2502	52.2162	-38.9063
 328	1	4	-0.565639	68.517	51.5674	-37.107
 329	1	1	0.171248	67.394	53.8536	-36.166
 330	1	2	-0.142243	68.1948	54.5314	-36.4563
 331	1	2	-0.199349	68.2769	55.8114	-35.8821
 332	1	1	0.156233	67.5382	56.131	-35.1541
 333	1	2	0.310144	69.3267	56.6751	-36.2366
 334	1	5	-0.374171	69.4171	57.9257	-35.6821
 335	1	1	0.18393	70.9663	54.6606	-38.4637
 336	1	2	-0.1794	70.21	54.9851	-37.7495
 337	1	2	-0.069637	69.1571	54.1145	-37.3973
 338	1	1	0.24118	67.8289	58.462	-37.7094
 339	1	1	0.2544	65.8626	60.0101	-37.6349
 340	1	2	-0.557237	67.5587	58.9662	-36.7862
 341	1	2	-0.032586	66.4518	59.8384	-36.7352
 342	1	2	0.370208	68.3384	58.7678	-35.6354
 343	1	2	0.127886	66.1073	60.4942	-35.5289
 344	1	7	-0.036788	65.0362	61.3493	-35.4404
 345	1	2	0.039962	68.0175	59.4381	-34.4414
 346	1	2	-0.445847	66.8988	60.2947	-34.3831
 347	1	1	0.122566	68.6359	59.28	-33.5632
 348	1	1	0.163876	66.6528	60.8051	-33.4553
 349	1	2	-0.180142	70.296	56.2604	-37.1614
 350	1	1	0.144642	71.1099	56.932	-37.4173
 351	1	1	0.203463	64.5372	63.5421	-36.7938
 352	1	2	-0.404697	63.9375	62.687	-37.0935
 353	1	2	-0.023572	63.0194	62.8073	-38.151
 354	1	1	0.153856	62.9031	63.758	-38.6704
 355	1	2	-0.109138	62.2544	61.6945	-38.5435
 356	1	3	0.998761	61.1336	61.8252	-39.9479
 357	1	2	-0.03943	62.3885	60.4731	-37.8585
 358	1	1	0.156851	61.7822	59.6164	-38.1515
 359	1	2	-0.395833	63.3057	60.3634	-36.7984
 360	1	1	0.202602	63.4093	59.4227	-36.2639
 361	1	2	0.320255	64.0881	61.4674	-36.4191
 362	1	4	-0.566353	60.1229	60.7712	-39.8049
 363	1	4	-0.565639	60.7983	63.2436	-40.1135
 364	1	1	0.171248	61.6865	59.2572	-41.2439
 365	1	2	-0.142243	62.303	60.011	-41.7312
 366	1	2	-0.199349	63.1696	59.6433	-42.7764
 367	1	1	0.156233	63.2253	58.6105	-43.105
 368	1	2	0.310144	63.9528	60.6156	-43.4145
 369	1	5	-0.374171	64.7998	60.2473	-44.4261
 370	1	1	0.18393	62.9259	63.3777	-41.6727
 371	1	2	-0.1794	63.0007	62.3336	-41.9757
 372	1	2	-0.069637	62.2196	61.3579	-41.3215
 373	1	1	0.24118	66.726	60.5984	-46.1144
 374	1	1	0.2544	66.4717	61.3326	-48.5182
 375	1	2	-0.557237	65.7478	60.8198	-46.5296
 376	1	2	-0.032586	65.599	61.2244	-47.8738
 377	1	2	0.370208	64.6131	60.6638	-45.7202
 378	1	2	0.127886	64.3149	61.4815	-48.4017
 379	1	7	-0.036788	64.1463	61.8636	-49.7056
 380	1	2	0.039962	63.3285	60.9101	-46.2513
 381	1	2	-0.445847	63.1782	61.3186	-47.5914
 382	1	1	0.122566	62.4497	60.7744	-45.6282
 383	1	1	0.163876	62.187	61.506	-47.9973
 384	1	2	-0.180142	63.866	61.9602	-43.0201
 385	1	1	0.144642	64.471	62.7077	-43.5248
 386	1	1	0.203463	65.2509	63.9791	-48.4751
 387	1	2	-0.404697	65.392	63.9405	-49.5516
 388	1	2	-0.023572	66.1204	64.9582	-50.1866
 389	1	1	0.153856	66.5477	65.7682	-49.5994
 390	1	2	-0.109138	66.3054	64.926	-51.5785
 391	1	3	0.998761	67.296	66.2037	-52.3666
 392	1	2	-0.03943	65.7388	63.8857	-52.3372
 393	1	1	0.156851	65.8767	63.8581	-53.4182
 394	1	2	-0.395833	65.0135	62.8683	-51.6924
 395	1	1	0.202602	64.5807	62.0598	-52.2747
 396	1	2	0.320255	64.8481	62.8801	-50.2989
 397	1	4	-0.566353	67.3304	65.9247	-53.806
 398	1	4	-0.565639	68.5204	66.3393	-51.5666
 399	1	1	0.171248	67.415	68.2929	-50.3066
 400	1	2	-0.142243	66.6011	68.538	-50.9865
 401	1	2	-0.199349	65.8448	69.7042	-50.7795
 402	1	1	0.156233	66.0673	70.3584	-49.9442
 403	1	2	0.310144	64.7963	70.038	-51.6499
 404	1	5	-0.374171	64.0681	71.174	-51.3758
 405	1	1	0.18393	65.0533	67.4001	-53.8206
 406	1	2	-0.1794	65.2738	68.0357	-52.9638
 407	1	2	-0.069637	66.3207	67.6998	-52.0842
 408	1	1	0.24118	64.1835	72.1263	-53.8175
 409	1	1	0.2544	62.1958	72.6664	-55.2538
 410	1	2	-0.557237	63.1767	72.0294	-53.4236
 411	1	2	-0.032586	62.0575	72.3242	-54.2282
 412	1	2	0.370208	62.9824	71.5575	-52.1182
 413	1	2	0.127886	60.7481	72.1481	-53.7308
 414	1	7	-0.036788	59.6583	72.378	-54.5316
 415	1	2	0.039962	61.6803	71.4237	-51.6
 416	1	2	-0.445847	60.5584	71.7188	-52.4036
 417	1	1	0.122566	61.5492	71.0638	-50.5844
 418	1	1	0.163876	59.5543	71.5898	-52.0086
 419	1	2	-0.180142	64.5101	69.1941	-52.7429
 420	1	1	0.144642	63.7023	69.4278	-53.4308
 421	1	1	0.203463	60.4098	70.0434	-55.5525
 422	1	2	-0.404697	60.0917	70.7804	-56.2855
 423	1	2	-0.023572	60.1575	70.4673	-57.6524
 424	1	1	0.153856	60.5207	69.4907	-57.968
 425	1	2	-0.109138	59.7867	71.4282	-58.609
 426	1	3	0.998761	59.917	71.0427	-60.3626
 427	1	2	-0.03943	59.3481	72.6987	-58.1929
 428	1	1	0.156851	59.0834	73.4502	-58.9354
 429	1	2	-0.395833	59.2778	73.0004	-56.82
 430	1	1	0.202602	58.9563	73.9855	-56.495
 431	1	2	0.320255	59.6588	72.0479	-55.8619
 432	1	4	-0.566353	60.4263	72.2429	-61.036
 433	1	4	-0.565639	60.5952	69.7475	-60.487
 434	1	1	0.171248	57.9292	72.904	-61.4551
 435	1	2	-0.142243	57.4686	71.9187	-61.3984
 436	1	2	-0.199349	56.1563	71.7344	-61.8675
 437	1	1	0.156233	55.5993	72.5734	-62.2771
 438	1	2	0.310144	55.5732	70.4585	-61.8382
 439	1	5	-0.374171	54.3357	70.2625	-62.3901
 440	1	1	0.18393	58.1737	68.6916	-60.4924
 441	1	2	-0.1794	57.6031	69.5453	-60.8557
 442	1	2	-0.069637	58.2004	70.8231	-60.8952
 443	1	1	0.24118	55.8307	68.9166	-64.1027
 444	1	1	0.2544	55.6141	69.0187	-66.5938
 445	1	2	-0.557237	55.0685	69.5411	-64.5591
 446	1	2	-0.032586	54.9472	69.6036	-65.9608
 447	1	2	0.370208	54.1941	70.2874	-63.7523
 448	1	2	0.127886	53.9816	70.4411	-66.5579
 449	1	7	-0.036788	53.9292	70.5906	-67.9186
 450	1	2	0.039962	53.1916	71.078	-64.3446
 451	1	2	-0.445847	53.082	71.1601	-65.7489
 452	1	1	0.122566	52.5238	71.6479	-63.7064
 453	1	1	0.163876	52.3241	71.7945	-66.1987
 454	1	2	-0.180142	56.2887	69.3669	-61.3239
 455	1	1	0.144642	55.8321	68.3817	-61.3259
 456	1	1	0.203463	56.3953	71.3738	-67.1058
 457	1	2	-0.404697	56.1022	71.6794	-68.1028
 458	1	2	-0.023572	56.9992	72.463	-68.8421
 459	1	1	0.153856	57.9527	72.7513	-68.4047
 460	1	2	-0.109138	56.6549	72.9	-70.1303
 461	1	3	0.998761	57.7829	73.9794	-71.0275
 462	1	2	-0.03943	55.4061	72.5502	-70.6744
 463	1	1	0.156851	55.1278	72.9068	-71.6649
 464	1	2	-0.395833	54.5105	71.7683	-69.9208
 465	1	1	0.202602	53.5337	71.5266	-70.3209
 466	1	2	0.320255	54.8449	71.3296	-68.6293
 467	1	4	-0.566353	58.6231	74.6268	-70.0152
 468	1	4	-0.565639	56.9932	74.7609	-71.9865
 469	1	1	0.171248	59.7804	71.9716	-70.2259
 470	1	2	-0.142243	59.7494	71.9983	-71.3142
 471	1	2	-0.199349	60.6236	71.1852	-72.06
 472	1	1	0.156233	61.3205	70.5251	-71.5525
 473	1	2	0.310144	60.6069	71.2217	-73.4626
 474	1	5	-0.374171	61.4758	70.411	-74.1585
 475	1	1	0.18393	58.1945	73.6111	-73.901
 476	1	2	-0.1794	58.8541	72.9156	-73.3837
 477	1	2	-0.069637	58.8549	72.8657	-71.9742
 478	1	1	0.24118	59.0856	69.61	-75.0094
 479	1	1	0.2544	58.6273	68.5073	-77.2075
 480	1	2	-0.557237	59.8952	69.4264	-75.7041
 481	1	2	-0.032586	59.6421	68.8065	-76.9453
 482	1	2	0.370208	61.2041	69.8178	-75.3702
 483	1	2	0.127886	60.6945	68.5655	-77.8567
 484	1	7	-0.036788	60.4593	67.973	-79.0727
 485	1	2	0.039962	62.2577	69.5552	-76.2675
 486	1	2	-0.445847	62.0081	68.9314	-77.5094
 487	1	1	0.122566	63.2679	69.8449	-75.9939
 488	1	1	0.163876	62.8282	68.7406	-78.1982
 489	1	2	-0.180142	59.7329	72.1044	-74.1225
 490	1	1	0.144642	59.7467	72.1693	-75.2062
 491	1	1	0.203463	59.6672	70.2656	-80.1106
 492	1	2	-0.404697	58.9546	69.4527	-80.2229
 493	1	2	-0.023572	57.7114	69.6841	-80.8378
 494	1	1	0.153856	57.4582	70.6782	-81.2039
 495	1	2	-0.109138	56.7805	68.6365	-80.9577
 496	1	3	0.998761	55.1394	68.9861	-81.6222
 497	1	2	-0.03943	57.1137	67.348	-80.496
 498	1	1	0.156851	56.3994	66.5285	-80.5935
 499	1	2	-0.395833	58.3677	67.1228	-79.8964
 500	1	1	0.202602	58.6246	66.1294	-79.5385
 501	1	2	0.320255	59.2863	68.1735	-79.7491
 502	1	4	-0.566353	55.2827	69.8697	-82.7853
 503	1	4	-0.565639	54.3997	67.7234	-81.6895
 504	1	1	0.171248	54.1258	68.3001	-78.9652
 505	1	2	-0.142243	54.0469	69.3812	-79.0768
 506	1	2	-0.199349	53.5974	70.169	-78.0015
 507	1	1	0.156233	53.3445	69.6903	-77.0668
 508	1	2	0.310144	53.5087	71.5674	-78.1303
 509	1	5	-0.374171	53.1642	72.3993	-77.0886
 510	1	1	0.18393	54.6485	71.8695	-81.3465
 511	1	2	-0.1794	54.3407	71.3902	-80.4174
 512	1	2	-0.069637	54.4343	69.9894	-80.2871
 513	1	1	0.24118	51.0969	70.76	-76.7879
 514	1	1	0.2544	49.9586	70.2601	-74.5972
 515	1	2	-0.557237	51.467	71.1879	-75.8616
 516	1	2	-0.032586	50.8269	70.9174	-74.6325
 517	1	2	0.370208	52.5747	72.0504	-75.8993
 518	1	2	0.127886	51.3097	71.4919	-73.4386
 519	1	7	-0.036788	50.7223	71.1899	-72.2385
 520	1	2	0.039962	53.0402	72.6403	-74.7094
 521	1	2	-0.445847	52.4187	72.3561	-73.4765
 522	1	1	0.122566	53.8857	73.3212	-74.7521
 523	1	1	0.163876	52.7845	72.8203	-72.5643
 524	1	2	-0.180142	53.8747	72.1699	-79.3437
 525	1	1	0.144642	53.8225	73.2505	-79.4365
 526	1	1	0.203463	52.9863	69.7741	-72.5367
 527	1	2	-0.404697	52.4184	69.5506	-71.6427
 528	1	2	-0.023572	52.8921	68.5628	-70.7666
 529	1	1	0.153856	53.8031	68.014	-71.0034
 530	1	2	-0.109138	52.1828	68.2712	-69.5913
 531	1	3	0.998761	52.7335	66.9056	-68.5487
 532	1	2	-0.03943	51.0289	69.0123	-69.2723
 533	1	1	0.156851	50.4858	68.8064	-68.35
 534	1	2	-0.395833	50.5579	69.995	-70.1646
 535	1	1	0.202602	49.6542	70.5503	-69.9289
 536	1	2	0.320255	51.235	70.2588	-71.3661
 537	1	4	-0.566353	53.515	66.0129	-69.4162
 538	1	4	-0.565639	53.3583	67.4455	-67.3409
 539	1	1	0.171248	51.8129	65.7752	-66.0025
 540	1	2	-0.142243	51.0382	65.5879	-66.7456
 541	1	2	-0.199349	49.8792	64.8699	-66.392
 542	1	1	0.156233	49.7451	64.5059	-65.3778
 543	1	2	0.310144	48.8981	64.5974	-67.3582
 544	1	5	-0.374171	47.7811	63.8806	-67.0218
 545	1	1	0.18393	50.3066	66.1687	-70.0405
 546	1	2	-0.1794	50.1955	65.8109	-69.0198
 547	1	2	-0.069637	51.2094	66.0485	-68.0674
 548	1	1	0.24118	45.6621	63.1816	-68.3547
 549	1	1	0.2544	45.1881	60.8633	-69.248
 550	1	2	-0.557237	46.3735	62.373	-68.2224
 551	1	2	-0.032586	46.1169	61.0758	-68.7211
 552	1	2	0.370208	47.5701	62.6265	-67.5352
 553	1	2	0.127886	47.0476	60.0339	-68.5136
 554	1	7	-0.036788	46.7868	58.7415	-68.8864
 555	1	2	0.039962	48.5001	61.589	-67.3296
 556	1	2	-0.445847	48.2349	60.2896	-67.8057
 557	1	1	0.122566	49.4191	61.7948	-66.7902
 558	1	1	0.163876	48.949	59.4902	-67.6271
 559	1	2	-0.180142	49.0477	65.0815	-68.6654
 560	1	1	0.144642	48.2806	64.8654	-69.4033
 561	1	1	0.203463	45.4478	56.5372	-69.1356
 562	1	2	-0.404697	45.5527	57.0874	-70.0659
 563	1	2	-0.023572	45.047	56.5448	-71.2588
 564	1	1	0.153856	44.5493	55.5759	-71.2533
 565	1	2	-0.109138	45.2182	57.2374	-72.4686
 566	1	3	0.998761	44.7249	56.4507	-74.0146
 567	1	2	-0.03943	45.8627	58.4898	-72.4724
 568	1	1	0.156851	45.9964	59.0284	-73.4097
 569	1	2	-0.395833	46.366	59.0257	-71.2714
 570	1	1	0.202602	46.9042	59.9711	-71.2867
 571	1	2	0.320255	46.2234	58.3198	-70.0629
 572	1	4	-0.566353	44.5944	57.5116	-75.0218
 573	1	4	-0.565639	43.6674	55.4756	-73.7249
 574	1	1	0.171248	47.2098	57.2924	-75.2116
 575	1	2	-0.142243	47.3158	56.2356	-74.9738
 576	1	2	-0.199349	48.5408	55.5907	-75.1874
 577	1	1	0.156233	49.3775	56.1578	-75.5771
 578	1	2	0.310144	48.705	54.2372	-74.8459
 579	1	5	-0.374171	49.9532	53.6629	-74.9229
 580	1	1	0.18393	45.5586	53.6223	-73.6377
 581	1	2	-0.1794	46.3892	54.1678	-74.0853
 582	1	2	-0.069637	46.2372	55.5347	-74.4081
 583	1	1	0.24118	50.2298	54.2036	-72.3954
 584	1	1	0.2544	51.7448	55.9921	-71.477
 585	1	2	-0.557237	50.9608	54.694	-73.0331
 586	1	2	-0.032586	51.8052	55.7	-72.525
 587	1	2	0.370208	50.9926	54.3873	-74.4014
 588	1	2	0.127886	52.6597	56.4129	-73.3907
 589	1	7	-0.036788	53.2913	57.5392	-72.9403
 590	1	2	0.039962	51.8977	55.0473	-75.2546
 591	1	2	-0.445847	52.7203	56.0779	-74.7555
 592	1	1	0.122566	51.8839	54.8232	-76.3151
 593	1	1	0.163876	53.3553	56.6449	-75.429
 594	1	2	-0.180142	47.623	53.5211	-74.3095
 595	1	1	0.144642	47.7595	52.4818	-74.0267
 596	1	1	0.203463	54.0694	59.3268	-71.166
 597	1	2	-0.404697	53.0706	59.4953	-71.5638
 598	1	2	-0.023572	52.299	60.5679	-71.0806
 599	1	1	0.153856	52.6994	61.2232	-70.3068
 600	1	2	-0.109138	51.0012	60.7796	-71.5823
 601	1	3	0.998761	49.9963	62.1329	-70.9543
 602	1	2	-0.03943	50.4946	59.9444	-72.5911
 603	1	1	0.156851	49.4957	60.1149	-72.9915
 604	1	2	-0.395833	51.2717	58.8764	-73.0653
 605	1	1	0.202602	50.8611	58.2298	-73.8362
 606	1	2	0.320255	52.5519	58.6229	-72.532
 607	1	4	-0.566353	50.4313	62.4027	-69.5806
 608	1	4	-0.565639	48.6008	61.872	-71.3263
 609	1	1	0.171248	49.2835	63.0352	-73.6629
 610	1	2	-0.142243	50.0755	63.6829	-73.2884
 611	1	2	-0.199349	50.6108	64.69	-74.1131
 612	1	1	0.156233	50.2425	64.8179	-75.1268
 613	1	2	0.310144	51.6495	65.5103	-73.6477
 614	1	5	-0.374171	52.1865	66.4432	-74.5028
 615	1	1	0.18393	51.979	64.2109	-70.4967
 616	1	2	-0.1794	51.5946	64.3429	-71.5089
 617	1	2	-0.069637	50.5846	63.4921	-71.9885
 618	1	1	0.24118	54.4497	65.2303	-73.7403
 619	1	1	0.2544	56.6037	66.4245	-73.2411
 620	1	2	-0.557237	54.5327	66.3005	-73.89
 621	1	2	-0.032586	55.7465	66.9711	-73.6357
 622	1	2	0.370208	53.4242	67.0261	-74.3619
 623	1	2	0.127886	55.8585	68.3585	-73.8736
 624	1	7	-0.036788	56.999	69.0328	-73.5367
 625	1	2	0.039962	53.5628	68.3905	-74.6641
 626	1	2	-0.445847	54.7754	69.0668	-74.4208
 627	1	1	0.122566	52.7003	68.9268	-75.0391
 628	1	1	0.163876	54.86	70.1322	-74.6192
 629	1	2	-0.180142	52.1027	65.3638	-72.3252
 630	1	1	0.144642	52.8697	66.0209	-71.934
 631	1	1	0.203463	55.7248	69.5505	-71.2775
 632	1	2	-0.404697	56.7317	69.1648	-71.1521
 633	1	2	-0.023572	57.2308	68.9244	-69.8621
 634	1	1	0.153856	56.6044	69.0996	-68.9913
 635	1	2	-0.109138	58.535	68.4307	-69.6985
 636	1	3	0.998761	59.1254	67.9816	-68.0582
 637	1	2	-0.03943	59.338	68.1839	-70.8274
 638	1	1	0.156851	60.3477	67.797	-70.7022
 639	1	2	-0.395833	58.8236	68.4053	-72.1166
 640	1	1	0.202602	59.4374	68.1915	-72.9872
 641	1	2	0.320255	57.522	68.8988	-72.2816
 642	1	4	-0.566353	60.5834	68.1387	-68.0876
 643	1	4	-0.565639	58.2572	68.6243	-67.0598
 644	1	1	0.171248	57.0029	66.3434	-66.8425
 645	1	2	-0.142243	57.6179	65.6934	-67.4626
 646	1	2	-0.199349	57.2385	64.3536	-67.6648
 647	1	1	0.156233	56.3356	63.9632	-67.2053
 648	1	2	0.310144	57.9777	63.5357	-68.5346
 649	1	5	-0.374171	57.5001	62.3034	-68.8991
 650	1	1	0.18393	60.4417	65.7382	-69.4001
 651	1	2	-0.1794	59.5486	65.3545	-68.9116
 652	1	2	-0.069637	58.7628	66.207	-68.1066
 653	1	1	0.24118	55.443	63.846	-69.5315
 654	1	1	0.2544	54.1658	63.7305	-71.657
 655	1	2	-0.557237	55.6932	63.0907	-70.2721
 656	1	2	-0.032586	54.9682	63.0249	-71.4732
 657	1	2	0.370208	56.7469	62.189	-70.0423
 658	1	2	0.127886	55.2805	62.0684	-72.4539
 659	1	7	-0.036788	54.5319	62.0701	-73.599
 660	1	2	0.039962	57.0465	61.2062	-71.0081
 661	1	2	-0.445847	56.3162	61.1418	-72.2167
 662	1	1	0.122566	57.8624	60.5116	-70.8243
 663	1	1	0.163876	56.5739	60.3877	-72.9571
 664	1	2	-0.180142	59.1463	64.0259	-69.1353
 665	1	1	0.144642	59.7129	63.3839	-69.8032
 666	1	1	0.203463	53.9428	59.6877	-74.5095
 667	1	2	-0.404697	54.5034	60.2993	-75.2029