pySIMM System Object

422 atoms
457 bonds
744 angles
1102 dihedrals
144 impropers

7 atom types
7 bond types
11 angle types
4 dihedral types
1 improper types

-114.001470 114.001470 xlo xhi
-114.001470 114.001470 ylo yhi
-114.001470 114.001470 zlo zhi

Masses

   1	1.008	# ha
   2	12.01	# ca
   3	32.06	# sy
   4	16.0	# o
   5	16.0	# os
   6	1.008	# ho
   7	16.0	# oh

Pair Coeffs

   1	0.015	2.59964245953351	# ha
   2	0.086	3.3996695084235347	# ca
   3	0.25	3.563594872561357	# sy
   4	0.21	2.959921901149463	# o
   5	0.17	3.0000123434657784	# os
   6	0.0	0.0	# ho
   7	0.2104	3.0664733878390478	# oh

Bond Coeffs

   1	493.0	1.466	# o,sy
   2	345.8	1.086	# ca,ha
   3	384.0	1.3637	# ca,oh
   4	376.6	1.3696	# ca,os
   5	371.4	0.973	# ho,oh
   6	243.4	1.7909	# ca,sy
   7	461.1	1.3984	# ca,ca

Angle Coeffs

   1	48.18	119.88	# ca,ca,ha
   2	61.48	119.42	# ca,ca,sy
   3	72.54	121.41	# o,sy,o
   4	69.58	119.2	# ca,ca,os
   5	60.3	104.44	# ca,sy,ca
   6	49.0	108.58	# ca,oh,ho
   7	65.77	108.35	# ca,sy,o
   8	63.48	119.89	# ca,os,ca
   9	69.52	119.9	# ca,ca,oh
  10	66.62	120.02	# ca,ca,ca
  11	63.5	119.89	# ca,oh,ca

Dihedral Coeffs

   1	1	0.9	2	180	# X,ca,os,X
   2	1	0.9	2	180	# X,ca,oh,X
   3	1	3.625	2	180	# X,ca,ca,X
   4	1	1.3	2	180	# X,ca,sy,X

Improper Coeffs

   1	1.1	-1	2	# ca,X,X,ha

Atoms

   1	1	1	0.203463	-29.796	-15.0354	29.5614
   2	1	2	-0.404697	-28.9515	-15.6673	29.3022
   3	1	2	-0.023572	-28.1108	-15.3154	28.2303
   4	1	1	0.153856	-28.3085	-14.4117	27.6546
   5	1	2	-0.109138	-27.0273	-16.1469	27.8891
   6	1	3	0.998761	-25.9673	-15.7285	26.4949
   7	1	2	-0.03943	-26.7932	-17.3292	28.614
   8	1	1	0.156851	-25.9672	-17.9813	28.3337
   9	1	2	-0.395833	-27.6369	-17.6682	29.6882
  10	1	1	0.202602	-27.464	-18.5813	30.2498
  11	1	2	0.320255	-28.7165	-16.8415	30.0313
  12	1	4	-0.566353	-25.8248	-16.9302	25.6668
  13	1	4	-0.565639	-26.4561	-14.458	25.9486
  14	1	1	0.171248	-24.9875	-13.5849	28.2196
  15	1	2	-0.142243	-24.1505	-14.2541	28.0271
  16	1	2	-0.199349	-22.8681	-13.9359	28.5093
  17	1	1	0.156233	-22.7023	-13.0258	29.0768
  18	1	2	0.310144	-21.7793	-14.7652	28.2063
  19	1	5	-0.374171	-20.5125	-14.3557	28.5278
  20	1	1	0.18393	-23.3909	-17.1447	26.3524
  21	1	2	-0.1794	-23.2512	-16.2617	26.976
  22	1	2	-0.069637	-24.3451	-15.4093	27.2423
  23	1	1	0.24118	-18.0971	-13.6018	29.0328
  24	1	1	0.2544	-16.5496	-12.3906	27.44
  25	1	2	-0.557237	-18.4254	-13.3233	28.0356
  26	1	2	-0.032586	-17.5665	-12.6436	27.1435
  27	1	2	0.370208	-19.7232	-13.6712	27.6302
  28	1	2	0.127886	-18.0056	-12.3163	25.8439
  29	1	7	-0.036788	-17.1579	-11.7507	24.9328
  30	1	2	0.039962	-20.1658	-13.3233	26.3321
  31	1	2	-0.445847	-19.3068	-12.6556	25.438
  32	1	1	0.122566	-21.1681	-13.5818	26.0043
  33	1	1	0.163876	-19.6462	-12.4162	24.4331
  34	1	2	-0.180142	-21.97	-15.9363	27.4568
  35	1	1	0.144642	-21.1163	-16.5608	27.2116
  36	1	1	0.203463	-18.1181	-9.43802	25.8433
  37	1	2	-0.404697	-17.0548	-9.43384	25.619
  38	1	2	-0.023572	-16.3216	-8.23506	25.709
  39	1	1	0.153856	-16.8177	-7.31054	26.0
  40	1	2	-0.109138	-14.9583	-8.21785	25.3605
  41	1	3	0.998761	-14.0547	-6.65705	25.2949
  42	1	2	-0.03943	-14.3338	-9.40281	24.9291
  43	1	1	0.156851	-13.289	-9.38776	24.6204
  44	1	2	-0.395833	-15.0774	-10.5905	24.8257
  45	1	1	0.202602	-14.6077	-11.4907	24.4402
  46	1	2	0.320255	-16.4391	-10.6096	25.1575
  47	1	4	-0.566353	-12.6869	-6.96003	24.856
  48	1	4	-0.565639	-14.9168	-5.72022	24.5674
  49	1	1	0.171248	-15.7432	-4.80675	26.8276
  50	1	2	-0.142243	-14.9129	-5.10411	27.4663
  51	1	2	-0.199349	-14.745	-4.49558	28.7241
  52	1	1	0.156233	-15.448	-3.74409	29.0699
  53	1	2	0.310144	-13.6309	-4.80709	29.5159
  54	1	5	-0.374171	-13.4437	-4.12603	30.6961
  55	1	1	0.18393	-12.1252	-7.08953	27.4516
  56	1	2	-0.1794	-12.8739	-6.38779	27.8171
  57	1	2	-0.069637	-13.9667	-6.03987	26.9978
  58	1	1	0.24118	-11.5621	-2.7386	29.4999
  59	1	1	0.2544	-9.16962	-2.5656	30.2975
  60	1	2	-0.557237	-11.2498	-3.19484	30.436
  61	1	2	-0.032586	-9.91509	-3.10135	30.8836
  62	1	2	0.370208	-12.1865	-3.91479	31.1965
  63	1	2	0.127886	-9.51971	-3.74323	32.0734
  64	1	7	-0.036788	-8.2043	-3.72824	32.4476
  65	1	2	0.039962	-11.8043	-4.51447	32.4097
  66	1	2	-0.445847	-10.4673	-4.43831	32.8486
  67	1	1	0.122566	-12.5401	-5.07429	32.9788
  68	1	1	0.163876	-10.1658	-4.93579	33.7673
  69	1	2	-0.180142	-12.7107	-5.77723	29.0728
  70	1	1	0.144642	-11.8469	-6.02788	29.6807
  71	1	1	0.203463	-6.13333	-4.09475	33.9999
  72	1	2	-0.404697	-6.33993	-4.93134	33.3396
  73	1	2	-0.023572	-5.53148	-6.08088	33.3904
  74	1	1	0.153856	-4.70014	-6.13568	34.0919
  75	1	2	-0.109138	-5.805	-7.16899	32.5431
  76	1	3	0.998761	-4.76935	-8.64258	32.6081
  77	1	2	-0.03943	-6.88464	-7.10124	31.6449
  78	1	1	0.156851	-7.10106	-7.94572	30.9915
  79	1	2	-0.395833	-7.69157	-5.9503	31.605
  80	1	1	0.202602	-8.52977	-5.91171	30.916
  81	1	2	0.320255	-7.4321	-4.86296	32.4617
  82	1	4	-0.566353	-4.18676	-8.70507	33.9534
  83	1	4	-0.565639	-5.53321	-9.74749	32.0165
  84	1	1	0.171248	-4.43175	-9.06915	29.7322
  85	1	2	-0.142243	-3.54845	-8.54272	30.0911
  86	1	2	-0.199349	-2.52369	-8.19146	29.193
  87	1	1	0.156233	-2.61897	-8.43628	28.1398
  88	1	2	0.310144	-1.38048	-7.51541	29.6564
  89	1	5	-0.374171	-0.381028	-7.12524	28.7985
  90	1	1	0.18393	-2.18773	-7.3006	32.976
  91	1	2	-0.1794	-2.2861	-7.54297	31.9187
  92	1	2	-0.069637	-3.43517	-8.2183	31.4583
  93	1	1	0.24118	0.32994	-9.65998	28.8691
  94	1	1	0.2544	1.07115	-11.0061	26.8711
  95	1	2	-0.557237	0.366207	-9.21382	27.8787
  96	1	2	-0.032586	0.784171	-9.96159	26.7578
  97	1	2	0.370208	0.00993806	-7.86677	27.7145
  98	1	2	0.127886	0.830807	-9.37833	25.4748
  99	1	7	-0.036788	1.22042	-10.1763	24.4282
 100	1	2	0.039962	0.0735166	-7.27163	26.4411
 101	1	2	-0.445847	0.468762	-8.02388	25.3149
 102	1	1	0.122566	-0.1989	-6.22626	26.334
 103	1	1	0.163876	0.489071	-7.54886	24.3384
 104	1	2	-0.180142	-1.26766	-7.18787	31.0156
 105	1	1	0.144642	-0.38363	-6.66228	31.3634
 106	1	1	0.203463	-0.259015	-11.4983	22.7346
 107	1	2	-0.404697	0.320833	-10.7008	22.2808
 108	1	2	-0.023572	0.310567	-10.5358	20.8844
 109	1	1	0.153856	-0.269539	-11.2124	20.2581
 110	1	2	-0.109138	1.10641	-9.54153	20.2891
 111	1	3	0.998761	1.26284	-9.48404	18.4903
 112	1	2	-0.03943	1.89922	-8.70608	21.1004
 113	1	1	0.156851	2.55204	-7.96402	20.6419
 114	1	2	-0.395833	1.9093	-8.88403	22.4969
 115	1	1	0.202602	2.56431	-8.27822	23.1165
 116	1	2	0.320255	1.12119	-9.88321	23.093
 117	1	4	-0.566353	2.4347	-8.64927	18.2036
 118	1	4	-0.565639	1.14961	-10.8616	17.9975
 119	1	1	0.171248	0.477678	-6.66505	18.6385
 120	1	2	-0.142243	-0.273236	-7.18238	18.044
 121	1	2	-0.199349	-1.30074	-6.45268	17.4164
 122	1	1	0.156233	-1.36291	-5.37589	17.5424
 123	1	2	0.310144	-2.22636	-7.10934	16.5872
 124	1	5	-0.374171	-3.17416	-6.40216	15.8908
 125	1	1	0.18393	-1.05541	-10.3067	16.8811
 126	1	2	-0.1794	-1.13688	-9.23439	17.0565
 127	1	2	-0.069637	-0.177169	-8.57674	17.8569
 128	1	1	0.24118	-4.86053	-4.56798	15.2332
 129	1	1	0.2544	-4.39649	-2.57527	13.7664
 130	1	2	-0.557237	-3.87991	-4.41845	14.7901
 131	1	2	-0.032586	-3.6121	-3.30586	13.964
 132	1	2	0.370208	-2.86737	-5.34943	15.0611
 133	1	2	0.127886	-2.32585	-3.12628	13.4049
 134	1	7	-0.036788	-2.00642	-2.0355	12.6399
 135	1	2	0.039962	-1.59103	-5.18573	14.478
 136	1	2	-0.445847	-1.31746	-4.07118	13.6609
 137	1	1	0.122566	-0.810175	-5.91712	14.6632
 138	1	1	0.163876	-0.32792	-3.94213	13.2293
 139	1	2	-0.180142	-2.1585	-8.49994	16.4271
 140	1	1	0.144642	-2.87498	-8.99651	15.7792
 141	1	1	0.203463	-2.4941	0.462057	13.2898
 142	1	2	-0.404697	-3.10238	0.0841992	12.473
 143	1	2	-0.023572	-4.0396	0.922332	11.8481
 144	1	1	0.153856	-4.16499	1.95141	12.182
 145	1	2	-0.109138	-4.80222	0.436139	10.7725
 146	1	3	0.998761	-5.90312	1.55364	9.89901
 147	1	2	-0.03943	-4.656	-0.895762	10.3461
 148	1	1	0.156851	-5.25238	-1.27078	9.51432
 149	1	2	-0.395833	-3.72501	-1.73153	10.9865
 150	1	1	0.202602	-3.59406	-2.75708	10.6513
 151	1	2	0.320255	-2.93526	-1.23771	12.0368
 152	1	4	-0.566353	-6.75816	0.75879	9.01008
 153	1	4	-0.565639	-6.43745	2.48565	10.8984
 154	1	1	0.171248	-5.0273	1.28491	7.11089
 155	1	2	-0.142243	-4.50876	2.14103	7.54054
 156	1	2	-0.199349	-3.67348	2.93569	6.73463
 157	1	1	0.156233	-3.54577	2.7063	5.6815
 158	1	2	0.310144	-3.04691	4.06828	7.27557
 159	1	5	-0.374171	-2.39811	4.94498	6.44608
 160	1	1	0.18393	-4.21479	3.87244	10.4804
 161	1	2	-0.1794	-4.04494	3.59506	9.44151
 162	1	2	-0.069637	-4.72777	2.49106	8.88872
 163	1	1	0.24118	-4.57186	6.22893	7.33668
 164	1	1	0.2544	-5.83126	7.96596	6.06573
 165	1	2	-0.557237	-4.23568	6.52237	6.34736
 166	1	2	-0.032586	-4.94643	7.50544	5.62901
 167	1	2	0.370208	-3.09879	5.92233	5.77498
 168	1	2	0.127886	-4.54522	7.89897	4.33724
 169	1	7	-0.036788	-5.32465	8.84395	3.70429
 170	1	2	0.039962	-2.69677	6.30346	4.48115
 171	1	2	-0.445847	-3.42825	7.2647	3.7478
 172	1	1	0.122566	-1.82764	5.82408	4.04124
 173	1	1	0.163876	-3.13077	7.48618	2.72807
 174	1	2	-0.180142	-3.19583	4.37432	8.63679
 175	1	1	0.144642	-2.70706	5.25509	9.04212
 176	1	1	0.203463	-2.89045	9.66986	2.80833
 177	1	2	-0.404697	-3.7427	9.99309	2.22074
 178	1	2	-0.023572	-3.52819	10.7727	1.069
 179	1	1	0.153856	-2.5151	11.0162	0.752955
 180	1	2	-0.109138	-4.62149	11.2377	0.31808
 181	1	3	0.998761	-4.33336	12.1369	-1.22044
 182	1	2	-0.03943	-5.92958	10.963	0.75434
 183	1	1	0.156851	-6.78194	11.3604	0.203618
 184	1	2	-0.395833	-6.13289	10.1623	1.8932
 185	1	1	0.202602	-7.14519	9.94421	2.22062
 186	1	2	0.320255	-5.04634	9.63277	2.6108
 187	1	4	-0.566353	-5.62894	12.659	-1.66935
 188	1	4	-0.565639	-3.15448	12.9898	-1.03077
 189	1	1	0.171248	-1.76825	11.3737	-2.44234
 190	1	2	-0.142243	-2.51179	10.6389	-2.7483
 191	1	2	-0.199349	-2.13088	9.54449	-3.54849
 192	1	1	0.156233	-1.09932	9.45287	-3.87107
 193	1	2	0.310144	-3.0796	8.57081	-3.91745
 194	1	5	-0.374171	-2.76376	7.45013	-4.65699
 195	1	1	0.18393	-5.85918	9.98693	-2.49717
 196	1	2	-0.1794	-4.81477	9.85772	-2.77743
 197	1	2	-0.069637	-3.85311	10.7906	-2.34012
 198	1	1	0.24118	-0.769048	7.29415	-2.86242
 199	1	1	0.2544	1.51311	6.35309	-3.35014
 200	1	2	-0.557237	-0.537405	6.88908	-3.84299
 201	1	2	-0.032586	0.738677	6.34689	-4.1158
 202	1	2	0.370208	-1.51792	6.89889	-4.85204
 203	1	2	0.127886	1.03583	5.78504	-5.37507
 204	1	7	-0.036788	2.30875	5.30373	-5.58456
 205	1	2	0.039962	-1.25017	6.26634	-6.07966
 206	1	2	-0.445847	0.0115311	5.69503	-6.34116
 207	1	1	0.122566	-2.03333	6.22381	-6.83025
 208	1	1	0.163876	0.174981	5.18927	-7.28813
 209	1	2	-0.180142	-4.42403	8.75353	-3.55749
 210	1	1	0.144642	-5.16116	8.02504	-3.88132
 211	1	1	0.203463	1.98282	6.456	-8.01383
 212	1	2	-0.404697	2.63361	5.5866	-7.99669
 213	1	2	-0.023572	3.19903	5.11623	-9.19837
 214	1	1	0.153856	2.96292	5.61332	-10.1373
 215	1	2	-0.109138	4.05705	3.99974	-9.17414
 216	1	3	0.998761	4.7817	3.29035	-10.6633
 217	1	2	-0.03943	4.36459	3.38448	-7.95073
 218	1	1	0.156851	5.0469	2.53487	-7.93556
 219	1	2	-0.395833	3.77671	3.84588	-6.76229
 220	1	1	0.202602	4.00591	3.35175	-5.82339
 221	1	2	0.320255	2.87658	4.9213	-6.77792
 222	1	4	-0.566353	6.23288	3.31965	-10.4526
 223	1	4	-0.565639	4.10155	2.01105	-10.8865
 224	1	1	0.171248	2.71778	3.19683	-12.7508
 225	1	2	-0.142243	3.34235	4.07098	-12.936
 226	1	2	-0.199349	3.15089	4.83994	-14.0983
 227	1	1	0.156233	2.38635	4.56853	-14.821
 228	1	2	0.310144	4.01464	5.91105	-14.3769
 229	1	5	-0.374171	3.9869	6.50931	-15.6053
 230	1	1	0.18393	6.06475	5.7094	-11.6524
 231	1	2	-0.1794	5.22999	5.48818	-12.3169
 232	1	2	-0.069637	4.39603	4.3838	-12.0513
 233	1	1	0.24118	5.21959	4.11853	-15.7179
 234	1	1	0.2544	6.45035	3.24534	-17.7098
 235	1	2	-0.557237	5.33708	4.74672	-16.5946
 236	1	2	-0.032586	6.04021	4.25443	-17.7125
 237	1	2	0.370208	4.74914	6.0283	-16.646
 238	1	2	0.127886	6.19144	5.04699	-18.8639
 239	1	7	-0.036788	6.78118	4.51169	-19.9727
 240	1	2	0.039962	4.90792	6.81887	-17.7999
 241	1	2	-0.445847	5.63496	6.33691	-18.908
 242	1	1	0.122566	4.44403	7.7996	-17.8349
 243	1	1	0.163876	5.72713	6.9404	-19.8071
 244	1	2	-0.180142	5.03778	6.24902	-13.4814
 245	1	1	0.144642	5.7165	7.05939	-13.7294
 246	1	1	0.203463	8.62507	6.14154	-18.852
 247	1	2	-0.404697	8.90139	5.71726	-19.8137
 248	1	2	-0.023572	10.1839	5.96392	-20.3473
 249	1	1	0.153856	10.8955	6.57003	-19.7908
 250	1	2	-0.109138	10.5429	5.4044	-21.589
 251	1	3	0.998761	12.1781	5.60482	-22.3272
 252	1	2	-0.03943	9.60929	4.63032	-22.2972
 253	1	1	0.156851	9.88217	4.21462	-23.2666
 254	1	2	-0.395833	8.34588	4.36861	-21.7457
 255	1	1	0.202602	7.64011	3.7438	-22.2849
 256	1	2	0.320255	7.98912	4.89063	-20.4966
 257	1	4	-0.566353	12.789	4.27257	-22.2999
 258	1	4	-0.565639	11.9419	6.27808	-23.6081
 259	1	1	0.171248	14.104	5.1039	-20.1521
 260	1	2	-0.142243	14.0442	6.18222	-20.3038
 261	1	2	-0.199349	14.8856	7.04721	-19.5752
 262	1	1	0.156233	15.5863	6.6512	-18.8449
 263	1	2	0.310144	14.8622	8.42882	-19.8303
 264	1	5	-0.374171	15.7174	9.27622	-19.1749
 265	1	1	0.18393	12.4831	8.49834	-22.285
 266	1	2	-0.1794	13.1319	8.09528	-21.5078
 267	1	2	-0.069637	13.1636	6.7057	-21.2757
 268	1	1	0.24118	17.1531	7.9873	-21.0339
 269	1	1	0.2544	19.4022	8.71954	-21.8607
 270	1	2	-0.557237	17.5899	8.91377	-20.6729
 271	1	2	-0.032586	18.8567	9.3252	-21.1386
 272	1	2	0.370208	16.915	9.68989	-19.7121
 273	1	2	0.127886	19.4497	10.5081	-20.6588
 274	1	7	-0.036788	20.7207	10.8221	-21.0635
 275	1	2	0.039962	17.4978	10.8875	-19.252
 276	1	2	-0.445847	18.7643	11.3017	-19.7177
 277	1	1	0.122566	16.9665	11.4822	-18.5166
 278	1	1	0.163876	19.2158	12.2121	-19.3313
 279	1	2	-0.180142	13.9802	8.9519	-20.7857
 280	1	1	0.144642	13.9819	10.0189	-20.985
 281	1	1	0.203463	19.1687	12.9037	-21.7874
 282	1	2	-0.404697	20.1475	12.8639	-22.2531
 283	1	2	-0.023572	20.5203	13.8802	-23.1451
 284	1	1	0.153856	19.835	14.6997	-23.3524
 285	1	2	-0.109138	21.795	13.8697	-23.7349
 286	1	3	0.998761	22.3263	15.3225	-24.6549
 287	1	2	-0.03943	22.689	12.8222	-23.4509
 288	1	1	0.156851	23.6834	12.8192	-23.8973
 289	1	2	-0.395833	22.3036	11.8014	-22.5615
 290	1	1	0.202602	22.9972	10.9973	-22.3327
 291	1	2	0.320255	21.0389	11.8207	-21.9481
 292	1	4	-0.566353	21.1745	15.8056	-25.4248
 293	1	4	-0.565639	23.6442	15.0505	-25.2391
 294	1	1	0.171248	20.4606	17.0943	-23.2814
 295	1	2	-0.142243	21.3862	17.0729	-22.7079
 296	1	2	-0.199349	21.4238	17.6277	-21.4195
 297	1	1	0.156233	20.5355	18.0839	-20.9926
 298	1	2	0.310144	22.5895	17.5209	-20.6458
 299	1	5	-0.374171	22.5484	17.848	-19.3189
 300	1	1	0.18393	24.5715	15.8203	-22.8489
 301	1	2	-0.1794	23.7062	16.3582	-22.463
 302	1	2	-0.069637	22.5144	16.3973	-23.2154
 303	1	1	0.24118	21.1748	19.0756	-17.5116
 304	1	1	0.2544	19.4327	18.0221	-16.0176
 305	1	2	-0.557237	20.9532	18.0132	-17.5674
 306	1	2	-0.032586	19.9816	17.4173	-16.7378
 307	1	2	0.370208	21.6417	17.2258	-18.4961
 308	1	2	0.127886	19.6971	16.0383	-16.8259
 309	1	7	-0.036788	18.7166	15.5487	-16.0029
 310	1	2	0.039962	21.3601	15.8428	-18.5936
 311	1	2	-0.445847	20.3887	15.2431	-17.7607
 312	1	1	0.122566	21.8934	15.2388	-19.3221
 313	1	1	0.163876	20.1787	14.1807	-17.8492
 314	1	2	-0.180142	23.743	16.9276	-21.1778
 315	1	1	0.144642	24.6337	16.8429	-20.5624
 316	1	1	0.203463	16.8139	14.2126	-17.2334
 317	1	2	-0.404697	17.2501	13.6881	-16.389
 318	1	2	-0.023572	16.5946	12.5627	-15.846
 319	1	1	0.153856	15.6499	12.2292	-16.2706
 320	1	2	-0.109138	17.0677	11.9726	-14.6585
 321	1	3	0.998761	15.9711	10.9263	-13.6532
 322	1	2	-0.03943	18.2449	12.4781	-14.0675
 323	1	1	0.156851	18.587	12.0781	-13.1134
 324	1	2	-0.395833	18.8843	13.6106	-14.6076
 325	1	1	0.202602	19.7094	14.0686	-14.0691
 326	1	2	0.320255	18.3684	14.2464	-15.7467
 327	1	4	-0.566353	14.7207	11.6902	-13.5801
 328	1	4	-0.565639	16.7168	10.5781	-12.4383
 329	1	1	0.171248	17.1259	8.24308	-13.558
 330	1	2	-0.142243	16.219	8.18261	-14.1587
 331	1	2	-0.199349	15.7118	6.92241	-14.5316
 332	1	1	0.156233	16.2452	6.01856	-14.2542
 333	1	2	0.310144	14.4808	6.80605	-15.1972
 334	1	5	-0.374171	14.0336	5.53014	-15.4877
 335	1	1	0.18393	13.6963	10.1384	-15.3699
 336	1	2	-0.1794	14.2891	9.24514	-15.1783
 337	1	2	-0.069637	15.5093	9.36006	-14.4714
 338	1	1	0.24118	12.7965	4.12922	-13.6612
 339	1	1	0.2544	10.4899	3.11597	-13.8787
 340	1	2	-0.557237	12.1996	4.29453	-14.5537
 341	1	2	-0.032586	10.9149	3.7092	-14.688
 342	1	2	0.370208	12.729	5.09345	-15.5828
 343	1	2	0.127886	10.1596	3.89821	-15.8646
 344	1	7	-0.036788	8.84977	3.47591	-15.951
 345	1	2	0.039962	11.9811	5.27397	-16.7617
 346	1	2	-0.445847	10.7005	4.69034	-16.895
 347	1	1	0.122566	12.4073	5.85534	-17.5734
 348	1	1	0.163876	10.1334	4.83858	-17.8003
 349	1	2	-0.180142	13.7789	7.97773	-15.5406
 350	1	1	0.144642	12.8231	7.91036	-16.0478
 351	1	1	0.203463	9.80273	1.50392	-17.5342
 352	1	2	-0.404697	8.90874	1.25123	-16.9689
 353	1	2	-0.023572	8.3101	-0.0206312	-17.1323
 354	1	1	0.153856	8.77436	-0.753663	-17.7924
 355	1	2	-0.109138	7.1427	-0.37171	-16.4168
 356	1	3	0.998761	6.52062	-2.09237	-16.463
 357	1	2	-0.03943	6.60958	0.565217	-15.5105
 358	1	1	0.156851	5.76004	0.290576	-14.8878
 359	1	2	-0.395833	7.20601	1.83552	-15.362
 360	1	1	0.202602	6.78277	2.54502	-14.6559
 361	1	2	0.320255	8.36919	2.18753	-16.0697
 362	1	4	-0.566353	7.40605	-2.8688	-17.3389
 363	1	4	-0.565639	6.37177	-2.44347	-15.0481
 364	1	1	0.171248	5.35543	-3.7574	-18.5765
 365	1	2	-0.142243	4.53439	-3.18974	-18.1401
 366	1	2	-0.199349	3.21159	-3.43623	-18.5753
 367	1	1	0.156233	3.02059	-4.15451	-19.367
 368	1	2	0.310144	2.13411	-2.74452	-17.9967
 369	1	5	-0.374171	0.840913	-2.864	-18.4745
 370	1	1	0.18393	3.88701	-0.875057	-15.7155
 371	1	2	-0.1794	3.71823	-1.56297	-16.5393
 372	1	2	-0.069637	4.81056	-2.24102	-17.1251
 373	1	1	0.24118	1.16681	-5.23981	-17.2492
 374	1	1	0.2544	-0.347472	-7.22859	-17.5574
 375	1	2	-0.557237	0.330089	-5.19427	-17.9402
 376	1	2	-0.032586	-0.532211	-6.30727	-18.1073
 377	1	2	0.370208	0.0829404	-4.00784	-18.6541
 378	1	2	0.127886	-1.64836	-6.25256	-18.9728
 379	1	7	-0.036788	-2.43327	-7.37959	-19.1235
 380	1	2	0.039962	-1.03474	-3.95063	-19.5146
 381	1	2	-0.445847	-1.89425	-5.06085	-19.6842
 382	1	1	0.122566	-1.23369	-3.02777	-20.0509
 383	1	1	0.163876	-2.73924	-4.98783	-20.3656
 384	1	2	-0.180142	2.40015	-1.79915	-16.9906
 385	1	1	0.144642	1.56845	-1.25688	-16.5515
 386	1	1	0.203463	-3.0803	-8.69791	-21.3148
 387	1	2	-0.404697	-3.91523	-8.1877	-20.8449
 388	1	2	-0.023572	-5.193	-8.24398	-21.4381
 389	1	1	0.153856	-5.33294	-8.76855	-22.3818
 390	1	2	-0.109138	-6.27793	-7.56687	-20.85
 391	1	3	0.998761	-7.84812	-7.40731	-21.7468
 392	1	2	-0.03943	-6.06644	-6.83687	-19.663
 393	1	1	0.156851	-6.88838	-6.27461	-19.2211
 394	1	2	-0.395833	-4.78275	-6.77695	-19.0827
 395	1	1	0.202602	-4.62379	-6.19437	-18.1804
 396	1	2	0.320255	-3.69191	-7.42905	-19.6826
 397	1	4	-0.566353	-7.45797	-7.31822	-23.1584
 398	1	4	-0.565639	-8.62685	-6.34603	-21.0971
 399	1	1	0.171248	-10.3054	-8.11806	-20.2926
 400	1	2	-0.142243	-10.0302	-8.97126	-20.9109
 401	1	2	-0.199349	-10.9273	-10.0498	-21.0462
 402	1	1	0.156233	-11.8727	-10.0499	-20.5113
 403	1	2	0.310144	-10.6329	-11.1063	-21.9232
 404	1	5	-0.374171	-11.5423	-12.1157	-22.1413
 405	1	1	0.18393	-7.59391	-10.0294	-23.0652
 406	1	2	-0.1794	-8.50187	-10.049	-22.4665
 407	1	2	-0.069637	-8.81945	-8.9489	-21.6399
 408	1	1	0.24118	-13.1548	-14.0627	-22.6105
 409	1	1	0.2544	-15.3852	-13.917	-23.796
 410	1	2	-0.557237	-13.5365	-13.1108	-22.9664
 411	1	2	-0.032586	-14.7821	-13.0261	-23.6288
 412	1	2	0.370208	-12.76	-11.9574	-22.7728
 413	1	2	0.127886	-15.2593	-11.7863	-24.0933
 414	1	7	-0.036788	-16.4502	-11.7108	-24.7573
 415	1	2	0.039962	-13.2468	-10.7127	-23.2367
 416	1	2	-0.445847	-14.4954	-10.6251	-23.8896
 417	1	1	0.122566	-12.6591	-9.81106	-23.1017
 418	1	1	0.163876	-14.8618	-9.66435	-24.2441
 419	1	2	-0.180142	-9.40274	-11.1244	-22.5989
 420	1	1	0.144642	-9.17803	-11.9508	-23.2666
 421	1	1	0	-29.3715	-17.1121	30.8541
 422	1	6	0	-17.1711	-11.6379	-24.1062

Velocities

   1	0.000301965	0.000211011	0.00118341
   2	0.00042215	-0.000346028	0.00119073
   3	0.000425122	0.00101193	-0.000208919
   4	-0.000151739	0.00162908	-2.9722e-06
   5	0.000589789	2.28095e-05	-0.000244552
   6	-0.000830048	-0.00047541	-0.000388987
   7	0.00104648	-0.000918416	-0.000317566
   8	0.00101848	-0.00179659	-0.00032094
   9	-0.000378468	-0.000155696	0.000674641
  10	-0.000127482	-0.000709099	0.000388738
  11	0.000495331	-6.80632e-05	0.000322349
  12	-0.000154383	-0.000202409	0.000437531
  13	-0.000373746	-0.00110494	-0.00079007
  14	-0.000722042	0.000664439	-0.00107092
  15	-0.000205236	0.000902094	-0.000773841
  16	-0.00019039	0.000938741	-0.000757353
  17	-0.000855279	0.000759845	-0.00116065
  18	-0.000391037	0.000797923	5.59258e-05
  19	-0.000907876	0.000758075	9.58465e-05
  20	-6.29964e-05	-0.000113093	0.000246443
  21	0.000262463	0.000400694	-6.22035e-05
  22	-0.000385706	0.000321922	-0.000461757
  23	-0.000549505	0.000907307	0.000541726
  24	-0.000222292	0.00044701	0.000539631
  25	-0.000180037	0.000544977	0.000354541
  26	-4.35518e-05	0.000299754	0.000292783
  27	-0.000227097	0.000363299	0.00020369
  28	0.000223673	-0.000193648	8.97228e-05
  29	0.000485639	-0.000285061	0.000280805
  30	0.000181799	-0.000122027	-9.89758e-05
  31	0.00036676	-0.000472523	-0.000177904
  32	0.000207057	-0.000251527	-0.000227488
  33	0.00055314	-0.000899888	-0.000334051
  34	9.0855e-05	0.000896104	0.000222068
  35	-0.000493299	0.000760039	0.000585591
  36	0.000399381	-0.00037707	0.000472947
  37	0.000371448	-0.000277186	0.000373211
  38	0.000222199	-0.000187673	0.000265989
  39	0.000135772	-0.000253824	0.000335628
  40	0.000123654	8.82627e-05	-5.83074e-05
  41	-0.000513478	0.000452673	-0.000717221
  42	0.000300939	0.000134645	-1.3582e-06
  43	0.000247271	0.000304648	-0.000176212
  44	0.000476688	-2.48021e-05	0.000245955
  45	0.000603799	-3.09962e-06	0.000327017
  46	0.000418043	-0.000255496	0.000272293
  47	-0.000572868	0.000813784	-0.00117448
  48	-0.00114965	1.84264e-05	-0.000508631
  49	0.000173888	0.0012306	-0.000386838
  50	0.000147715	0.00080749	-0.000532208
  51	0.000128303	7.17772e-05	-0.000145276
  52	0.000178941	-6.06216e-05	0.000266223
  53	-2.66223e-05	-0.000627116	-0.000194598
  54	-0.000108113	-0.00174618	0.000460341
  55	-0.000315151	0.000200001	-0.00136251
  56	-0.000128735	0.00023938	-0.00104569
  57	-0.000115153	0.000666493	-0.000828098
  58	-0.000792013	-0.00117358	0.000119674
  59	-0.00070317	-0.000107767	-0.000195409
  60	-0.000465926	-0.00100032	9.75695e-05
  61	-0.000440532	-0.000413093	-6.01289e-05
  62	-4.70252e-05	-0.00142099	0.000221717
  63	-3.60732e-05	2.94265e-05	4.85974e-05
  64	1.59815e-05	0.000348659	-5.99081e-05
  65	0.000418623	-0.00127353	0.000162965
  66	0.00038378	-0.000407428	0.000124021
  67	0.000802041	-0.00165701	0.000301053
  68	0.000754864	-0.000143144	0.00013134
  69	-1.10392e-06	-0.00030868	-0.000806278
  70	-5.40813e-05	-0.00071925	-0.000897985
  71	4.85735e-05	0.000321941	0.000319024
  72	-0.000106226	0.000212814	0.000484275
  73	-9.38528e-05	0.000175997	0.000476323
  74	-3.03576e-05	0.000217626	0.00040587
  75	-9.59511e-05	0.000146743	0.000458581
  76	0.00013566	0.000170507	-0.000216624
  77	-0.000430456	2.73145e-05	0.000853315
  78	-0.000665911	-1.42157e-05	0.00100772
  79	-0.000310857	7.49848e-05	0.000783125
  80	-0.000353708	1.33186e-05	0.000857539
  81	-0.000100317	0.000250141	0.000457309
  82	0.000412224	-0.000134155	-0.000360967
  83	-2.11697e-05	0.000283513	-0.000277747
  84	0.000782624	-0.000604488	-0.000222069
  85	0.000556997	-0.000218241	-0.000211014
  86	0.000601177	-0.000145577	-0.000171596
  87	0.000825962	-0.000359982	-0.000131256
  88	0.000364323	0.000261844	-0.000185598
  89	0.000314305	0.000493344	-0.000179563
  90	4.29367e-05	0.000391298	-0.000272243
  91	0.000124641	0.000308845	-0.000244234
  92	0.000208766	0.000171635	-0.000258934
  93	0.000337539	0.000638347	-0.000171414
  94	-0.000687045	0.000330574	-0.000330911
  95	3.02753e-05	0.000524809	-0.000206075
  96	-0.00056611	0.000378391	-0.000280526
  97	0.00014733	0.000534103	-0.000266116
  98	-0.00120157	0.000132378	-0.000368868
  99	-0.00192525	-0.000298927	-0.000267083
 100	-0.000357675	0.000391485	-0.000380507
 101	-0.00109823	0.000144931	-0.000518669
 102	-0.000216607	0.000450792	-0.0003947
 103	-0.00163918	-0.000109923	-0.000691708
 104	0.000173556	0.000325822	-0.000204497
 105	4.90925e-05	0.000508276	-0.00020411
 106	-0.000996091	-0.000107948	-0.000992244
 107	-0.000700747	-0.000134231	-0.000671552
 108	0.0001152	-0.000197248	-0.000669309
 109	0.000424443	-0.000193572	-0.000913644
 110	0.000463459	-0.000271695	-0.000280682
 111	0.000912713	5.60131e-05	-0.00025006
 112	0.000292061	-0.000489511	0.000134873
 113	0.000740908	-0.000676617	0.000463184
 114	-0.000396315	-0.000510121	0.000151228
 115	-0.000437802	-0.000823979	0.000535507
 116	-0.00107039	-0.000207553	-0.000279011
 117	0.00105157	1.73494e-05	0.00020319
 118	0.00102351	0.000164875	-0.000497303
 119	0.000931595	0.000272878	-0.000761239
 120	0.000642149	6.58217e-05	-0.000264937
 121	0.000221155	-6.61181e-05	0.000246597
 122	0.000218465	-6.77213e-05	9.54701e-05
 123	-0.000165463	-0.000217466	0.000804062
 124	-0.00024121	-0.000189806	0.0008136
 125	0.000571045	-0.000107149	0.000209949
 126	0.000443299	-0.000106718	0.000342535
 127	0.000761956	6.16241e-05	-0.000185875
 128	-1.81492e-07	0.000388072	0.000731544
 129	0.000467289	9.34888e-05	0.000551874
 130	6.21812e-05	9.03938e-05	0.000788432
 131	0.000285167	-3.67466e-05	0.000674284
 132	-0.000145494	-0.00016817	0.000838852
 133	0.000301117	-0.000405507	0.000618263
 134	0.000513249	-0.000739103	0.000218726
 135	-9.32904e-05	-0.000385156	0.000907239
 136	0.000120457	-0.000490822	0.000864592
 137	-0.000217515	-0.000495575	0.00092144
 138	0.00015589	-0.000623608	0.000978846
 139	-4.4789e-05	-0.000243602	0.000913175
 140	-0.000320652	-0.00038957	0.00130073
 141	0.000437972	-0.000957698	0.000614729
 142	0.000648836	-0.000666346	0.000320405
 143	0.000983588	-0.000394164	0.000155278
 144	0.00112092	-0.000411569	0.000279577
 145	0.00116919	-0.000204594	-9.09585e-05
 146	0.000594191	-0.000376046	0.000275946
 147	0.000966576	-0.000252548	-4.30798e-05
 148	0.000914228	-0.000209464	-5.01799e-05
 149	0.000583193	-0.000513905	0.000187612
 150	0.000369304	-0.000547537	0.000248385
 151	0.000543044	-0.000647761	0.000277733
 152	0.00122467	-0.000486362	-0.00022708
 153	-4.6736e-05	-0.00125018	0.000741925
 154	-0.00227316	0.0017448	0.000130046
 155	-0.00190687	0.00155831	-6.31486e-05
 156	-0.00240087	0.00153071	-0.00035778
 157	-0.00315211	0.00171918	-0.000472796
 158	-0.00162552	0.00104886	-0.000483059
 159	-0.00122937	0.000175223	-0.00093507
 160	-0.000295984	0.00127403	1.97638e-05
 161	-0.000837831	0.00131413	-7.43308e-05
 162	-0.000680286	0.00103128	0.000197587
 163	-4.63937e-06	0.0014633	-0.00038448
 164	0.00165704	0.00312844	0.000367838
 165	-0.000147307	0.000997333	-0.000638636
 166	0.000656451	0.00177033	-0.000142274
 167	-0.00103221	-8.78009e-05	-0.0012665
 168	0.000482198	0.00102413	-0.00028308
 169	0.00116867	0.00177411	0.000634499
 170	-0.00138512	-0.000959408	-0.00168582
 171	-0.000668509	-0.000136926	-0.00122467
 172	-0.00234133	-0.00226673	-0.00232663
 173	-0.000867757	-7.57224e-05	-0.00129108
 174	-0.00116236	0.00129977	-0.000466263
 175	-0.000923647	0.00135723	-0.000866852
 176	0.0011413	0.00198622	0.00142088
 177	0.00124204	0.000818651	0.000508337
 178	0.00102781	0.000405944	0.000242257
 179	0.000891592	0.00148648	0.000695515
 180	0.000771635	-0.00125115	-0.000475422
 181	0.000361123	-0.000717262	0.000183021
 182	0.000761213	-0.00327046	-0.00188133
 183	0.000650457	-0.00533963	-0.00304315
 184	0.00102663	-0.00242084	-0.00139217
 185	0.0011211	-0.00349576	-0.0017533
 186	0.00124721	4.66381e-05	-0.00015296
 187	-4.23922e-05	-0.00168298	0.000248981
 188	0.000130113	-0.000347681	-8.37805e-05
 189	0.000413161	-0.000278538	0.000267374
 190	0.000446328	-0.000554074	0.000728857
 191	0.000230624	-0.000162733	0.000304257
 192	-1.05817e-06	0.000381955	-0.000558901
 193	0.000147471	-0.000240719	0.000719597
 194	-0.000296006	0.000310822	9.08127e-05
 195	0.000714524	-0.00160915	0.00268901
 196	0.000531327	-0.00115518	0.00185751
 197	0.000527414	-0.000798223	0.000895545
 198	0.000365841	0.00199415	-0.000768118
 199	0.00029179	0.00244045	-0.00134856
 200	2.40684e-05	0.00162873	-0.000719466
 201	-1.69649e-05	0.00193433	-0.00102291
 202	-0.000372871	0.000801315	-0.000319824
 203	-0.000605276	0.0013478	-0.00085597
 204	-0.000913422	0.000452241	-0.000209717
 205	-0.000882638	0.00081935	-0.000375131
 206	-0.000781043	0.00114949	-0.00077255
 207	-0.00141449	0.000458436	0.000170242
 208	-0.000937059	0.00111984	-0.000803828
 209	0.000440341	-0.000990725	0.00179827
 210	0.000538189	-0.00126238	0.00229541
 211	0.000704198	-0.000227668	-0.00025672
 212	0.000282351	-0.000526918	0.000243089
 213	0.00112032	-0.0005509	0.000794014
 214	0.00216273	-0.000304065	0.000721378
 215	0.000569693	-0.000904459	0.00118127
 216	0.000290628	-0.000389873	0.000774978
 217	-0.000873743	-0.0015701	0.00138252
 218	-0.00137491	-0.00195438	0.00187463
 219	-0.0018301	-0.00155013	0.00102078
 220	-0.00345349	-0.0019183	0.00126455
 221	-0.000928709	-0.000730184	0.00029586
 222	0.000341191	-0.00168471	0.000825471
 223	-0.000813748	0.000312526	-8.87727e-06
 224	-0.000168073	0.0019064	0.00164564
 225	0.000443181	0.0014158	0.00141118
 226	0.000876787	0.00118172	0.00118945
 227	0.000298435	0.0017875	0.00160082
 228	0.00178887	0.000195127	0.000312654
 229	0.0013295	0.000178173	0.000115655
 230	0.000679735	0.000892972	0.00148002
 231	0.000936762	0.000688148	0.0011792
 232	0.000820038	0.000700528	0.00119014
 233	-0.0020029	-0.00142786	-0.00336983
 234	-0.00229991	-0.000150316	-0.00415022
 235	-0.00175652	-0.000729675	-0.00283568
 236	-0.00197243	6.36039e-06	-0.00335355
 237	-0.000590432	-0.000124728	-0.00125854
 238	-0.00117476	0.00110771	-0.0026107
 239	-0.000897146	0.00188472	-0.00294959
 240	-0.000659777	0.000596395	-0.000900228
 241	-0.000991039	0.00131317	-0.0014961
 242	6.12117e-05	0.00100308	9.2513e-05
 243	-0.00056628	0.00228184	-0.000848634
 244	0.00141679	0.000427389	0.000761139
 245	0.00138127	0.000502568	0.000960348
 246	-0.00111054	0.00283745	-0.00311996
 247	-0.000592769	0.00178264	-0.00245617