pySIMM System Object

1402 atoms
1521 bonds
2480 angles
3678 dihedrals
480 impropers

7 atom types
7 bond types
11 angle types
4 dihedral types
1 improper types

-173.833881 173.833881 xlo xhi
-173.833881 173.833881 ylo yhi
-173.833881 173.833881 zlo zhi

Masses

   1	1.008	# ha
   2	12.01	# ca
   3	32.06	# sy
   4	16.0	# o
   5	16.0	# os
   6	1.008	# ho
   7	16.0	# oh

Pair Coeffs

   1	0.015	2.59964245953351	# ha
   2	0.086	3.3996695084235347	# ca
   3	0.25	3.563594872561357	# sy
   4	0.21	2.959921901149463	# o
   5	0.17	3.0000123434657784	# os
   6	0.0	0.0	# ho
   7	0.2104	3.0664733878390478	# oh

Bond Coeffs

   1	493.0	1.466	# o,sy
   2	345.8	1.086	# ca,ha
   3	384.0	1.3637	# ca,oh
   4	376.6	1.3696	# ca,os
   5	371.4	0.973	# ho,oh
   6	243.4	1.7909	# ca,sy
   7	461.1	1.3984	# ca,ca

Angle Coeffs

   1	48.18	119.88	# ca,ca,ha
   2	61.48	119.42	# ca,ca,sy
   3	72.54	121.41	# o,sy,o
   4	69.58	119.2	# ca,ca,os
   5	60.3	104.44	# ca,sy,ca
   6	49.0	108.58	# ca,oh,ho
   7	65.77	108.35	# ca,sy,o
   8	63.48	119.89	# ca,os,ca
   9	69.52	119.9	# ca,ca,oh
  10	66.62	120.02	# ca,ca,ca
  11	63.5	119.89	# ca,oh,ca

Dihedral Coeffs

   1	1	0.9	2	180	# X,ca,os,X
   2	1	0.9	2	180	# X,ca,oh,X
   3	1	3.625	2	180	# X,ca,ca,X
   4	1	1.3	2	180	# X,ca,sy,X

Improper Coeffs

   1	1.1	-1	2	# ca,X,X,ha

Atoms

   1	1	1	0.203463	-19.4408	13.7108	15.3192
   2	1	2	-0.404697	-19.678	13.3836	16.3271
   3	1	2	-0.023572	-19.668	12.0137	16.6476
   4	1	1	0.153856	-19.4258	11.2774	15.8817
   5	1	2	-0.109138	-19.9808	11.5997	17.9554
   6	1	3	0.998761	-19.9845	9.84644	18.3677
   7	1	2	-0.03943	-20.2975	12.5562	18.9365
   8	1	1	0.156851	-20.5362	12.242	19.9501
   9	1	2	-0.395833	-20.3062	13.9231	18.6041
  10	1	1	0.202602	-20.56	14.6654	19.354
  11	1	2	0.320255	-19.9971	14.3383	17.3017
  12	1	4	-0.566353	-21.3322	9.44982	18.7837
  13	1	4	-0.565639	-19.3016	9.13795	17.2785
  14	1	1	0.171248	-20.393	8.61132	20.9921
  15	1	2	-0.142243	-19.39	9.03508	20.9786
  16	1	2	-0.199349	-18.5452	8.86855	22.0896
  17	1	1	0.156233	-18.8844	8.31558	22.9582
  18	1	2	0.310144	-17.246	9.3934	22.0708
  19	1	5	-0.374171	-16.3918	9.13965	23.115
  20	1	1	0.18393	-17.2587	10.7813	18.9415
  21	1	2	-0.1794	-17.6281	10.2593	19.8243
  22	1	2	-0.069637	-18.9301	9.71824	19.8339
  23	1	1	0.24118	-16.1281	7.05348	21.5317
  24	1	1	0.2544	-13.9729	5.86326	21.0419
  25	1	2	-0.557237	-15.206	7.36039	22.0177
  26	1	2	-0.032586	-13.9951	6.6902	21.75
  27	1	2	0.370208	-15.2234	8.4465	22.9087
  28	1	2	0.127886	-12.798	7.09361	22.3796
  29	1	7	-0.036788	-11.6092	6.46084	22.1104
  30	1	2	0.039962	-14.038	8.82977	23.5642
  31	1	2	-0.445847	-12.825	8.15533	23.3026
  32	1	1	0.122566	-14.0631	9.66358	24.2595
  33	1	1	0.163876	-11.9109	8.46654	23.8023
  34	1	2	-0.180142	-16.7964	10.1077	20.9482
  35	1	1	0.144642	-15.7919	10.5185	20.9434
  36	1	1	0.203463	-11.8284	7.79992	19.8381
  37	1	2	-0.404697	-11.4862	6.77612	19.7245
  38	1	2	-0.023572	-11.2305	6.26828	18.4408
  39	1	1	0.153856	-11.3791	6.90077	17.5657
  40	1	2	-0.109138	-10.7961	4.93954	18.2922
  41	1	3	0.998761	-10.5589	4.24331	16.6484
  42	1	2	-0.03943	-10.6061	4.13263	19.4297
  43	1	1	0.156851	-10.2737	3.10124	19.3141
  44	1	2	-0.395833	-10.8552	4.65722	20.7113
  45	1	1	0.202602	-10.7162	4.03513	21.5918
  46	1	2	0.320255	-11.304	5.97784	20.8645
  47	1	4	-0.566353	-10.4734	5.36899	15.7124
  48	1	4	-0.565639	-9.49418	3.23516	16.7402
  49	1	1	0.171248	-13.2533	5.26301	16.1869
  50	1	2	-0.142243	-13.324	4.17804	16.2373
  51	1	2	-0.199349	-14.5805	3.54942	16.1448
  52	1	1	0.156233	-15.4754	4.14988	16.0181
  53	1	2	0.310144	-14.6795	2.14813	16.2257
  54	1	5	-0.374171	-15.8898	1.49903	16.1525
  55	1	1	0.18393	-11.3571	1.4012	16.5957
  56	1	2	-0.1794	-12.2546	2.00484	16.47
  57	1	2	-0.069637	-12.1543	3.4104	16.4118
  58	1	1	0.24118	-16.7091	1.44019	18.6292
  59	1	1	0.2544	-18.8279	2.52097	19.4909
  60	1	2	-0.557237	-17.3766	1.97527	17.9616
  61	1	2	-0.032586	-18.5607	2.58049	18.4367
  62	1	2	0.370208	-17.0567	2.06089	16.5996
  63	1	2	0.127886	-19.4107	3.28887	17.5639
  64	1	7	-0.036788	-20.5347	3.8816	18.0907
  65	1	2	0.039962	-17.9319	2.70966	15.7092
  66	1	2	-0.445847	-19.1077	3.3246	16.1851
  67	1	1	0.122566	-17.6875	2.73909	14.6518
  68	1	1	0.163876	-19.7772	3.81123	15.4796
  69	1	2	-0.180142	-13.5132	1.38099	16.369
  70	1	1	0.144642	-13.5951	0.299097	16.4132
  71	1	1	0.203463	-23.1428	4.01149	18.1599
  72	1	2	-0.404697	-22.678	4.82348	17.6096
  73	1	2	-0.023572	-23.4809	5.78694	16.9726
  74	1	1	0.153856	-24.5664	5.71472	17.0246
  75	1	2	-0.109138	-22.8823	6.82148	16.2311
  76	1	3	0.998761	-23.9053	7.99305	15.3172
  77	1	2	-0.03943	-21.4812	6.90516	16.158
  78	1	1	0.156851	-21.0143	7.70566	15.5849
  79	1	2	-0.395833	-20.6873	5.93556	16.795
  80	1	1	0.202602	-19.6089	5.99004	16.7051
  81	1	2	0.320255	-21.28	4.86999	17.496
  82	1	4	-0.566353	-23.1273	8.44718	14.1579
  83	1	4	-0.565639	-25.2345	7.38358	15.1868
  84	1	1	0.171248	-25.6901	8.49871	17.5687
  85	1	2	-0.142243	-25.0326	9.36112	17.4751
  86	1	2	-0.199349	-25.1425	10.4342	18.3766
  87	1	1	0.156233	-25.8706	10.4059	19.1808
  88	1	2	0.310144	-24.2875	11.5397	18.2565
  89	1	5	-0.374171	-24.3236	12.5327	19.1997
  90	1	1	0.18393	-22.5034	10.5666	15.5064
  91	1	2	-0.1794	-23.2365	10.5282	16.3104
  92	1	2	-0.069637	-24.0665	9.39586	16.4493
  93	1	1	0.24118	-23.7681	14.5765	20.6685
  94	1	1	0.2544	-22.3227	14.5671	22.745
  95	1	2	-0.557237	-23.322	13.6578	21.0391
  96	1	2	-0.032586	-22.513	13.6459	22.1965
  97	1	2	0.370208	-23.56	12.4657	20.3398
  98	1	2	0.127886	-21.9343	12.4461	22.6577
  99	1	7	-0.036788	-21.1141	12.4881	23.7594
 100	1	2	0.039962	-22.9993	11.2583	20.8111
 101	1	2	-0.445847	-22.1785	11.2477	21.9552
 102	1	1	0.122566	-23.1837	10.3277	20.2839
 103	1	1	0.163876	-21.7396	10.3087	22.2791
 104	1	2	-0.180142	-23.3491	11.5985	17.2159
 105	1	1	0.144642	-22.6993	12.4637	17.1294
 106	1	1	0.203463	-22.675	10.6375	24.8503
 107	1	2	-0.404697	-21.6104	10.4608	24.9752
 108	1	2	-0.023572	-21.1637	9.30869	25.6443
 109	1	1	0.153856	-21.8837	8.59444	26.0425
 110	1	2	-0.109138	-19.7846	9.07784	25.7952
 111	1	3	0.998761	-19.2026	7.56288	26.5768
 112	1	2	-0.03943	-18.8589	10.015	25.303
 113	1	1	0.156851	-17.7906	9.84114	25.431
 114	1	2	-0.395833	-19.3153	11.1611	24.628
 115	1	1	0.202602	-18.6007	11.8752	24.23
 116	1	2	0.320255	-20.6893	11.3801	24.445
 117	1	4	-0.566353	-17.9139	7.84218	27.2208
 118	1	4	-0.565639	-20.3445	6.9853	27.2936
 119	1	1	0.171248	-16.7248	6.60529	25.3291
 120	1	2	-0.142243	-17.5603	6.21541	24.7487
 121	1	2	-0.199349	-17.3167	5.41427	23.6199
 122	1	1	0.156233	-16.2974	5.17908	23.3326
 123	1	2	0.310144	-18.3885	4.91888	22.8621
 124	1	5	-0.374171	-18.1473	4.17558	21.7369
 125	1	1	0.18393	-20.982	6.19862	24.6886
 126	1	2	-0.1794	-19.958	5.98918	24.383
 127	1	2	-0.069637	-18.8835	6.50843	25.1364
 128	1	1	0.24118	-19.2855	6.06639	20.3164
 129	1	1	0.2544	-18.2674	7.16254	18.2906
 130	1	2	-0.557237	-18.2997	5.77259	19.9659
 131	1	2	-0.032586	-17.7328	6.37985	18.8268
 132	1	2	0.370208	-17.5891	4.76955	20.6399
 133	1	2	0.127886	-16.4567	5.99363	18.3757
 134	1	7	-0.036788	-15.8914	6.63732	17.3094
 135	1	2	0.039962	-16.3204	4.3683	20.1815
 136	1	2	-0.445847	-15.7397	4.99262	19.0589
 137	1	1	0.122566	-15.7914	3.57959	20.7072
 138	1	1	0.163876	-14.7543	4.69099	18.7142
 139	1	2	-0.180142	-19.7083	5.19836	23.2458
 140	1	1	0.144642	-20.5317	4.79976	22.6609
 141	1	1	0.203463	-15.4871	8.05502	19.5436
 142	1	2	-0.404697	-14.8664	8.33588	18.7036
 143	1	2	-0.023572	-13.9374	9.37333	18.8644
 144	1	1	0.153856	-13.8288	9.86676	19.8291
 145	1	2	-0.109138	-13.1467	9.77362	17.7773
 146	1	3	0.998761	-11.9343	11.0849	17.9987
 147	1	2	-0.03943	-13.294	9.13603	16.5319
 148	1	1	0.156851	-12.6952	9.46165	15.682
 149	1	2	-0.395833	-14.2171	8.08384	16.3871
 150	1	1	0.202602	-14.3333	7.59667	15.4232
 151	1	2	0.320255	-15.0064	7.67266	17.4721
 152	1	4	-0.566353	-11.8015	11.7553	16.7014
 153	1	4	-0.565639	-12.2672	11.7908	19.2422
 154	1	1	0.171248	-10.4576	10.3295	20.4265
 155	1	2	-0.142243	-9.94452	9.89123	19.5714
 156	1	2	-0.199349	-8.78991	9.1119	19.7684
 157	1	1	0.156233	-8.40552	8.95821	20.7729
 158	1	2	0.310144	-8.11814	8.55691	18.6637
 159	1	5	-0.374171	-6.98188	7.80684	18.8096
 160	1	1	0.18393	-10.0974	9.76249	16.1522
 161	1	2	-0.1794	-9.74336	9.57117	17.1639
 162	1	2	-0.069637	-10.4278	10.1205	18.2665
 163	1	1	0.24118	-5.15961	8.44594	20.5354
 164	1	1	0.2544	-4.55195	7.12635	22.5817
 165	1	2	-0.557237	-5.68627	7.52797	20.7825
 166	1	2	-0.032586	-5.36233	6.78738	21.9358
 167	1	2	0.370208	-6.71079	7.09052	19.9387
 168	1	2	0.127886	-6.07371	5.60282	22.2413
 169	1	7	-0.036788	-5.75886	4.8202	23.3197
 170	1	2	0.039962	-7.42036	5.91344	20.234
 171	1	2	-0.445847	-7.10125	5.16408	21.3842
 172	1	1	0.122566	-8.20361	5.58663	19.5587
 173	1	1	0.163876	-7.6436	4.24854	21.6047
 174	1	2	-0.180142	-8.59307	8.79197	17.367
 175	1	1	0.144642	-8.06026	8.36956	16.5217
 176	1	1	0.203463	-3.55946	3.64385	24.1152
 177	1	2	-0.404697	-3.8361	4.5162	24.7011
 178	1	2	-0.023572	-3.04902	4.89711	25.8045
 179	1	1	0.153856	-2.16916	4.32121	26.0738
 180	1	2	-0.109138	-3.42589	6.01213	26.5771
 181	1	3	0.998761	-2.45869	6.45523	28.0336
 182	1	2	-0.03943	-4.57746	6.73939	26.2456
 183	1	1	0.156851	-4.88547	7.58587	26.8604
 184	1	2	-0.395833	-5.36053	6.35144	25.1398
 185	1	1	0.202602	-6.2681	6.89497	24.9
 186	1	2	0.320255	-4.98966	5.23367	24.3729
 187	1	4	-0.566353	-3.41841	6.99132	29.0086
 188	1	4	-0.565639	-1.56447	5.33501	28.3364
 189	1	1	0.171248	-3.0054	9.33053	27.7987
 190	1	2	-0.142243	-1.98302	9.15585	27.4587
 191	1	2	-0.199349	-1.18587	10.2442	27.0628
 192	1	1	0.156233	-1.57995	11.255	27.0785
 193	1	2	0.310144	0.151443	10.0346	26.6855
 194	1	5	-0.374171	0.930434	11.1153	26.3596
 195	1	1	0.18393	0.300209	6.63938	27.0602
 196	1	2	-0.1794	-0.119721	7.64141	27.0478
 197	1	2	-0.069637	-1.45632	7.85111	27.4617
 198	1	1	0.24118	1.81881	10.224	28.7345
 199	1	1	0.2544	4.06952	10.6754	29.67
 200	1	2	-0.557237	2.52576	10.8233	28.1637
 201	1	2	-0.032586	3.80281	11.0882	28.6981
 202	1	2	0.370208	2.169	11.3496	26.9094
 203	1	2	0.127886	4.72978	11.8907	27.9901
 204	1	7	-0.036788	5.98112	12.1797	28.4784
 205	1	2	0.039962	3.0871	12.1541	26.2079
 206	1	2	-0.445847	4.36408	12.4233	26.7405
 207	1	1	0.122566	2.79743	12.5653	25.2465
 208	1	1	0.163876	5.06486	13.044	26.1874
 209	1	2	-0.180142	0.673895	8.73248	26.6601
 210	1	1	0.144642	1.71151	8.57657	26.3723
 211	1	1	0.203463	7.77604	10.2755	28.309
 212	1	2	-0.404697	7.47975	10.5165	29.325
 213	1	2	-0.023572	7.98603	9.7743	30.4036
 214	1	1	0.153856	8.67606	8.95079	30.2227
 215	1	2	-0.109138	7.55923	10.0584	31.7127
 216	1	3	0.998761	8.11339	9.0349	33.0834
 217	1	2	-0.03943	6.63886	11.0999	31.941
 218	1	1	0.156851	6.287	11.3008	32.9517
 219	1	2	-0.395833	6.14137	11.8416	30.857
 220	1	1	0.202602	5.40871	12.6268	31.0258
 221	1	2	0.320255	6.53831	11.5336	29.5455
 222	1	4	-0.566353	7.11247	9.11318	34.1517
 223	1	4	-0.565639	8.55183	7.75829	32.5041
 224	1	1	0.171248	8.84608	10.247	35.6527
 225	1	2	-0.142243	9.69952	10.3408	34.985
 226	1	2	-0.199349	10.8919	10.932	35.4487
 227	1	1	0.156233	10.9423	11.2946	36.4701
 228	1	2	0.310144	12.0054	11.0367	34.5953
 229	1	5	-0.374171	13.2004	11.5772	35.0119
 230	1	1	0.18393	10.6998	9.53825	31.8127
 231	1	2	-0.1794	10.743	9.94207	32.8216
 232	1	2	-0.069637	9.62291	9.84771	33.668
 233	1	1	0.24118	12.1981	13.9554	35.4285
 234	1	1	0.2544	12.3852	15.249	37.5953
 235	1	2	-0.557237	12.7292	13.5458	36.2834
 236	1	2	-0.032586	12.837	14.2641	37.493
 237	1	2	0.370208	13.3324	12.2841	36.1751
 238	1	2	0.127886	13.5235	13.7086	38.5916
 239	1	7	-0.036788	13.6102	14.4228	39.7558
 240	1	2	0.039962	14.0422	11.7376	37.2606
 241	1	2	-0.445847	14.1315	12.4455	38.4769
 242	1	1	0.122566	14.5098	10.7647	37.1528
 243	1	1	0.163876	14.6778	12.0165	39.3157
 244	1	2	-0.180142	11.9307	10.5405	33.2869
 245	1	1	0.144642	12.7985	10.6104	32.6402
 246	1	1	0.203463	14.3715	15.4053	42.0443
 247	1	2	-0.404697	13.6567	14.593	42.1346
 248	1	2	-0.023572	13.2208	14.1813	43.4062
 249	1	1	0.153856	13.599	14.674	44.301
 250	1	2	-0.109138	12.288	13.136	43.5213
 251	1	3	0.998761	11.755	12.5746	45.1481
 252	1	2	-0.03943	11.7898	12.5126	42.3638
 253	1	1	0.156851	11.0534	11.7162	42.4515
 254	1	2	-0.395833	12.237	12.9247	41.0967
 255	1	1	0.202602	11.8477	12.4362	40.2078
 256	1	2	0.320255	13.1801	13.9629	40.9746
 257	1	4	-0.566353	12.0472	13.6429	46.1103
 258	1	4	-0.565639	10.4228	11.9806	44.9875
 259	1	1	0.171248	11.6722	9.73066	44.4784
 260	1	2	-0.142243	12.6174	9.91949	44.9843
 261	1	2	-0.199349	13.541	8.87529	45.1682
 262	1	1	0.156233	13.3275	7.8778	44.7983
 263	1	2	0.310144	14.7543	9.12201	45.8274
 264	1	5	-0.374171	15.6846	8.12359	45.9308
 265	1	1	0.18393	14.3535	12.4498	46.5071
 266	1	2	-0.1794	14.1269	11.4523	46.1323
 267	1	2	-0.069637	12.9124	11.2158	45.4548
 268	1	1	0.24118	16.2457	9.72653	43.8312
 269	1	1	0.2544	17.9594	9.24248	42.0963
 270	1	2	-0.557237	16.8475	8.82471	43.9158
 271	1	2	-0.032586	17.8207	8.55506	42.9319
 272	1	2	0.370208	16.65	7.91691	44.9748
 273	1	2	0.127886	18.5994	7.38494	43.0023
 274	1	7	-0.036788	19.5298	7.13607	42.0303
 275	1	2	0.039962	17.4375	6.753	45.0492
 276	1	2	-0.445847	18.4137	6.4824	44.0691
 277	1	1	0.122566	17.2801	6.05996	45.8705
 278	1	1	0.163876	19.0249	5.58783	44.1476
 279	1	2	-0.180142	15.0449	10.4033	46.3191
 280	1	1	0.144642	15.9897	10.5801	46.8244
 281	1	1	0.203463	17.711	5.98468	40.5189
 282	1	2	-0.404697	18.5895	5.37403	40.7014
 283	1	2	-0.023572	18.6713	4.07922	40.1636
 284	1	1	0.153856	17.8548	3.68288	39.5621
 285	1	2	-0.109138	19.8119	3.29465	40.4072
 286	1	3	0.998761	19.8945	1.60371	39.7954
 287	1	2	-0.03943	20.8775	3.82015	41.1602
 288	1	1	0.156851	21.768	3.21779	41.3332
 289	1	2	-0.395833	20.7859	5.11775	41.6932
 290	1	1	0.202602	21.6001	5.52487	42.2853
 291	1	2	0.320255	19.6396	5.89462	41.4717
 292	1	4	-0.566353	21.2495	1.40414	39.2707
 293	1	4	-0.565639	18.6827	1.35441	39.0058
 294	1	1	0.171248	21.9312	0.594717	41.6385
 295	1	2	-0.142243	20.9568	0.328921	42.0464
 296	1	2	-0.199349	20.8705	-0.346333	43.2762
 297	1	1	0.156233	21.7712	-0.59219	43.8302
 298	1	2	0.310144	19.6145	-0.693989	43.798
 299	1	5	-0.374171	19.517	-1.34078	45.0011
 300	1	1	0.18393	17.6164	0.561647	41.3236
 301	1	2	-0.1794	18.5258	0.308512	41.8669
 302	1	2	-0.069637	19.784	0.665665	41.3396
 303	1	1	0.24118	20.2709	-2.00183	47.3787
 304	1	1	0.2544	21.416	-4.15409	48.0218
 305	1	2	-0.557237	20.5207	-2.74707	46.6292
 306	1	2	-0.032586	21.168	-3.9511	46.9809
 307	1	2	0.370208	20.1855	-2.50276	45.2895
 308	1	2	0.127886	21.4842	-4.90826	45.9905
 309	1	7	-0.036788	22.0708	-6.10836	46.3004
 310	1	2	0.039962	20.4896	-3.46152	44.3002
 311	1	2	-0.445847	21.1396	-4.6616	44.6498
 312	1	1	0.122566	20.2078	-3.28156	43.2668
 313	1	1	0.163876	21.3626	-5.40192	43.8851
 314	1	2	-0.180142	18.4454	-0.369976	43.0957
 315	1	1	0.144642	17.4796	-0.64292	43.5091
 316	1	1	0.203463	24.156	-4.61904	47.0381
 317	1	2	-0.404697	23.9481	-5.46719	47.6852
 318	1	2	-0.023572	24.7909	-5.73641	48.7796
 319	1	1	0.153856	25.646	-5.09349	48.9874
 320	1	2	-0.109138	24.551	-6.86133	49.5891
 321	1	3	0.998761	25.659	-7.23648	50.9617
 322	1	2	-0.03943	23.4723	-7.71634	49.2979
 323	1	1	0.156851	23.3024	-8.60571	49.9045
 324	1	2	-0.395833	22.6388	-7.44236	48.2
 325	1	1	0.202602	21.8219	-8.11674	47.9581
 326	1	2	0.320255	22.8736	-6.32366	47.388
 327	1	4	-0.566353	26.9956	-6.73675	50.6207
 328	1	4	-0.565639	25.406	-8.63253	51.333
 329	1	1	0.171248	23.1444	-7.28719	52.4412
 330	1	2	-0.142243	23.7395	-6.46717	52.8387
 331	1	2	-0.199349	23.2364	-5.67388	53.8848
 332	1	1	0.156233	22.2488	-5.8688	54.2911
 333	1	2	0.310144	24.0136	-4.62908	54.4142
 334	1	5	-0.374171	23.5249	-3.82943	55.4158
 335	1	1	0.18393	26.8043	-4.98475	52.4692
 336	1	2	-0.1794	25.8024	-5.17025	52.8554
 337	1	2	-0.069637	25.0203	-6.21065	52.3104
 338	1	1	0.24118	22.3854	-2.81477	53.2581
 339	1	1	0.2544	20.0628	-1.86205	53.1663
 340	1	2	-0.557237	21.7611	-2.79397	54.1469
 341	1	2	-0.032586	20.4572	-2.25967	54.1007
 342	1	2	0.370208	22.266	-3.28907	55.3623
 343	1	2	0.127886	19.6511	-2.23785	55.2608
 344	1	7	-0.036788	18.3737	-1.74011	55.2385
 345	1	2	0.039962	21.4807	-3.22862	56.5279
 346	1	2	-0.445847	20.1715	-2.7078	56.4798
 347	1	1	0.122566	21.8898	-3.60154	57.4621
 348	1	1	0.163876	19.5646	-2.6741	57.3812
 349	1	2	-0.180142	25.2993	-4.38726	53.9102
 350	1	1	0.144642	25.8982	-3.58874	54.3381
 351	1	1	0.203463	16.7049	0.130723	54.5008
 352	1	2	-0.404697	16.6871	-0.750868	53.8664
 353	1	2	-0.023572	15.8098	-0.807623	52.77
 354	1	1	0.153856	15.1462	0.0285543	52.5538
 355	1	2	-0.109138	15.7851	-1.95003	51.9521
 356	1	3	0.998761	14.6889	-1.99767	50.5254
 357	1	2	-0.03943	16.6237	-3.04067	52.2436
 358	1	1	0.156851	16.5882	-3.93541	51.6224
 359	1	2	-0.395833	17.491	-2.97887	53.3485
 360	1	1	0.202602	18.1145	-3.83563	53.5896
 361	1	2	0.320255	17.5325	-1.82986	54.1603
 362	1	4	-0.566353	14.6953	-3.369	50.0031
 363	1	4	-0.565639	13.4617	-1.28354	50.8937
 364	1	1	0.171248	16.7542	-2.58317	48.5478
 365	1	2	-0.142243	16.5564	-1.51276	48.5084
 366	1	2	-0.199349	17.2561	-0.700385	47.6006
 367	1	1	0.156233	17.9912	-1.13339	46.9343
 368	1	2	0.310144	16.986	0.672627	47.5303
 369	1	5	-0.374171	17.6239	1.44166	46.5949
 370	1	1	0.18393	14.5458	0.875117	49.9183
 371	1	2	-0.1794	15.3123	0.436774	49.2798
 372	1	2	-0.069637	15.5796	-0.947119	49.3516
 373	1	1	0.24118	18.5995	3.21447	45.0049
 374	1	1	0.2544	17.5698	4.00045	42.8386
 375	1	2	-0.557237	17.6522	2.81289	44.6582
 376	1	2	-0.032586	17.0736	3.24359	43.4451
 377	1	2	0.370208	17.0144	1.82906	45.4264
 378	1	2	0.127886	15.8494	2.69508	43.0044
 379	1	7	-0.036788	15.2705	3.08687	41.826
 380	1	2	0.039962	15.7969	1.26912	44.9771
 381	1	2	-0.445847	15.2177	1.69753	43.7664
 382	1	1	0.122566	15.3022	0.497134	45.5588
 383	1	1	0.163876	14.2822	1.2598	43.4258
 384	1	2	-0.180142	16.0168	1.24419	48.3686
 385	1	1	0.144642	15.8068	2.30722	48.2975
 386	1	1	0.203463	15.0323	5.26192	43.3781
 387	1	2	-0.404697	15.0742	5.45676	42.3099
 388	1	2	-0.023572	14.9951	6.78003	41.8439
 389	1	1	0.153856	14.8983	7.60268	42.5497
 390	1	2	-0.109138	15.0388	7.04294	40.4639
 391	1	3	0.998761	14.9106	8.73633	39.8656
 392	1	2	-0.03943	15.1314	5.97732	39.5509
 393	1	1	0.156851	15.1539	6.17744	38.4798
 394	1	2	-0.395833	15.1997	4.65559	40.0254
 395	1	1	0.202602	15.2687	3.82941	39.3219
 396	1	2	0.320255	15.1887	4.38756	41.4028
 397	1	4	-0.566353	15.5475	8.78957	38.5455
 398	1	4	-0.565639	15.3068	9.62254	40.9667
 399	1	1	0.171248	12.7322	9.42415	41.6859
 400	1	2	-0.142243	12.2901	9.19275	40.7179
 401	1	2	-0.199349	10.8929	9.20465	40.5564
 402	1	1	0.156233	10.2413	9.44191	41.392
 403	1	2	0.310144	10.3222	8.89107	39.3143
 404	1	5	-0.374171	8.95616	8.90888	39.1956
 405	1	1	0.18393	13.1855	8.33885	37.5231
 406	1	2	-0.1794	12.5468	8.58147	38.3719
 407	1	2	-0.069637	13.1223	8.86983	39.6275
 408	1	1	0.24118	7.13355	9.58702	37.49
 409	1	1	0.2544	5.83029	8.02931	36.027
 410	1	2	-0.557237	7.29439	8.51525	37.5486
 411	1	2	-0.032586	6.5563	7.62908	36.736
 412	1	2	0.370208	8.25534	8.01169	38.4304
 413	1	2	0.127886	6.76168	6.23215	36.8191
 414	1	7	-0.036788	6.04681	5.34869	36.0443
 415	1	2	0.039962	8.46305	6.61988	38.5255
 416	1	2	-0.445847	7.71389	5.72894	37.7268
 417	1	1	0.122566	9.19958	6.23673	39.2247
 418	1	1	0.163876	7.87617	4.65711	37.805
 419	1	2	-0.180142	11.1492	8.59624	38.2159
 420	1	1	0.144642	10.708	8.37828	37.2468
 421	1	1	0.203463	7.30126	5.62554	33.7474
 422	1	2	-0.404697	6.24406	5.87648	33.7163
 423	1	2	-0.023572	5.69904	6.43685	32.5499
 424	1	1	0.153856	6.33529	6.60594	31.6826
 425	1	2	-0.109138	4.35971	6.8603	32.5346
 426	1	3	0.998761	3.74	7.76813	31.1074
 427	1	2	-0.03943	3.5532	6.67054	33.6726
 428	1	1	0.156851	2.51807	7.01032	33.6678
 429	1	2	-0.395833	4.10711	6.10386	34.8364
 430	1	1	0.202602	3.50149	5.9989	35.7317
 431	1	2	0.320255	5.46147	5.73321	34.8689
 432	1	4	-0.566353	2.46471	8.39257	31.4767
 433	1	4	-0.565639	4.85722	8.565	30.5906
 434	1	1	0.171248	1.36351	6.16199	30.5103
 435	1	2	-0.142243	2.13552	5.89494	29.7891
 436	1	2	-0.199349	1.85264	4.97047	28.7692
 437	1	1	0.156233	0.869487	4.51286	28.7032
 438	1	2	0.310144	2.83099	4.65668	27.8141
 439	1	5	-0.374171	2.52666	3.823	26.7735
 440	1	1	0.18393	5.36757	6.65128	28.9408
 441	1	2	-0.1794	4.39148	6.16863	28.9045
 442	1	2	-0.069637	3.40537	6.50358	29.8572
 443	1	1	0.24118	2.87304	6.0846	25.4448
 444	1	1	0.2544	1.4241	6.87012	23.5384
 445	1	2	-0.557237	2.02006	5.4956	25.12
 446	1	2	-0.032586	1.20806	5.93396	24.0528
 447	1	2	0.370208	1.74363	4.26577	25.7416
 448	1	2	0.127886	0.112674	5.15542	23.6261
 449	1	7	-0.036788	-0.675546	5.5658	22.5884
 450	1	2	0.039962	0.665704	3.47904	25.2989
 451	1	2	-0.445847	-0.157932	3.92304	24.2456
 452	1	1	0.122566	0.480961	2.52472	25.7796
 453	1	1	0.163876	-0.978627	3.30321	23.8955
 454	1	2	-0.180142	4.10329	5.24214	27.8875
 455	1	1	0.144642	4.84864	4.99422	27.1378
 456	1	1	0.203463	-1.47535	7.07006	24.6388
 457	1	2	-0.404697	-1.64289	7.50497	23.6591
 458	1	2	-0.023572	-2.25447	8.76387	23.5581
 459	1	1	0.153856	-2.54735	9.30188	24.4595
 460	1	2	-0.109138	-2.49934	9.32186	22.291
 461	1	3	0.998761	-3.30212	10.9272	22.1608
 462	1	2	-0.03943	-2.12825	8.61919	21.1308
 463	1	1	0.156851	-2.32159	9.04518	20.1468
 464	1	2	-0.395833	-1.4993	7.36838	21.2462
 465	1	1	0.202602	-1.18945	6.83296	20.3522
 466	1	2	0.320255	-1.25079	6.80469	22.5068
 467	1	4	-0.566353	-3.19443	11.5503	23.4831
 468	1	4	-0.565639	-4.60733	10.7113	21.5289
 469	1	1	0.171248	-0.438923	11.5248	22.088
 470	1	2	-0.142243	-0.891066	11.9739	21.2049
 471	1	2	-0.199349	-0.0950457	12.6928	20.2953
 472	1	1	0.156233	0.972022	12.8	20.4647
 473	1	2	0.310144	-0.671452	13.2932	19.1657
 474	1	5	-0.374171	0.139908	14.0244	18.3323
 475	1	1	0.18393	-3.93189	12.3762	19.6842
 476	1	2	-0.1794	-2.85673	12.452	19.848
 477	1	2	-0.069637	-2.27675	11.8468	20.9833
 478	1	1	0.24118	-0.703517	12.126	16.6645
 479	1	1	0.2544	-0.926617	12.3969	14.1796
 480	1	2	-0.557237	-0.474182	13.0761	16.1909
 481	1	2	-0.032586	-0.590068	13.2326	14.7916
 482	1	2	0.370208	-0.0255545	14.1544	16.9754
 483	1	2	0.127886	-0.250482	14.4598	14.1745
 484	1	7	-0.036788	-0.322934	14.6434	12.8162
 485	1	2	0.039962	0.321401	15.3711	16.3603
 486	1	2	-0.445847	0.207746	15.5289	14.9643
 487	1	1	0.122566	0.684154	16.1885	16.976
 488	1	1	0.163876	0.482978	16.4724	14.4994
 489	1	2	-0.180142	-2.05716	13.1815	18.949
 490	1	1	0.144642	-2.51281	13.6735	18.0947
 491	1	1	0.203463	-2.9033	14.8035	12.3173
 492	1	2	-0.404697	-2.39906	13.986	11.8094
 493	1	2	-0.023572	-3.12243	13.1244	10.9665
 494	1	1	0.153856	-4.19155	13.2711	10.8186
 495	1	2	-0.109138	-2.46403	12.0679	10.3125
 496	1	3	0.998761	-3.41247	10.929	9.28718
 497	1	2	-0.03943	-1.07804	11.8922	10.4827
 498	1	1	0.156851	-0.562609	11.0858	9.96125
 499	1	2	-0.395833	-0.360682	12.7663	11.3191
 500	1	1	0.202602	0.711829	12.6412	11.4434
 501	1	2	0.320255	-1.01816	13.8125	11.9837
 502	1	4	-0.566353	-4.34574	11.7382	8.49617
 503	1	4	-0.565639	-2.46829	9.98031	8.68501
 504	1	1	0.171248	-2.89109	8.53032	10.8888
 505	1	2	-0.142243	-3.87341	8.90452	11.1746
 506	1	2	-0.199349	-4.62947	8.23719	12.159
 507	1	1	0.156233	-4.23249	7.34202	12.6249
 508	1	2	0.310144	-5.90626	8.71578	12.5131
 509	1	5	-0.374171	-6.70785	8.08078	13.4348
 510	1	1	0.18393	-6.10122	11.3732	10.3666
 511	1	2	-0.1794	-5.67956	10.5086	10.8776
 512	1	2	-0.069637	-4.39315	10.048	10.5332
 513	1	1	0.24118	-7.96109	6.03067	14.3895
 514	1	1	0.2544	-7.23524	4.64024	16.3574
 515	1	2	-0.557237	-7.0418	6.26754	14.9238
 516	1	2	-0.032586	-6.64295	5.4998	16.0375
 517	1	2	0.370208	-6.2783	7.37738	14.5309
 518	1	2	0.127886	-5.48051	5.83945	16.7567
 519	1	7	-0.036788	-5.12811	5.07705	17.8399
 520	1	2	0.039962	-5.14169	7.75029	15.2777
 521	1	2	-0.445847	-4.73741	6.98111	16.3862
 522	1	1	0.122566	-4.58421	8.64098	15.0036
 523	1	1	0.163876	-3.87411	7.28874	16.9717
 524	1	2	-0.180142	-6.42913	9.84057	11.861
 525	1	1	0.144642	-7.42675	10.1859	12.1156
 526	1	1	0.203463	-3.00392	4.86114	16.2352
 527	1	2	-0.404697	-2.79276	4.71286	17.286
 528	1	2	-0.023572	-1.48358	4.42031	17.699
 529	1	1	0.153856	-0.67905	4.35744	16.9673
 530	1	2	-0.109138	-1.21293	4.19679	19.0589
 531	1	3	0.998761	0.475562	3.81077	19.5654
 532	1	2	-0.03943	-2.25684	4.28774	19.999
 533	1	1	0.156851	-2.06422	4.11132	21.0538
 534	1	2	-0.395833	-3.56122	4.58504	19.5742
 535	1	1	0.202602	-4.37002	4.64703	20.2946
 536	1	2	0.320255	-3.83765	4.81271	18.2204
 537	1	4	-0.566353	1.17246	3.25935	18.3989
 538	1	4	-0.565639	1.02673	5.00697	20.211
 539	1	1	0.171248	2.3291	3.01071	21.6441
 540	1	2	-0.142243	1.45383	2.36915	21.7357
 541	1	2	-0.199349	1.39984	1.39136	22.746
 542	1	1	0.156233	2.23142	1.2639	23.4318
 543	1	2	0.310144	0.255795	0.596102	22.8996
 544	1	5	-0.374171	0.233113	-0.325612	23.9169
 545	1	1	0.18393	-1.57447	1.74546	20.258
 546	1	2	-0.1794	-0.750427	1.68472	20.9655
 547	1	2	-0.069637	0.376977	2.52519	20.8409
 548	1	1	0.24118	-0.935415	0.674786	25.9998
 549	1	1	0.2544	-2.88362	-0.35536	27.223
 550	1	2	-0.557237	-1.42366	-0.215148	25.6177
 551	1	2	-0.032586	-2.50932	-0.797525	26.3012
 552	1	2	0.370208	-0.910779	-0.83647	24.4716
 553	1	2	0.127886	-3.09846	-1.98894	25.8316
 554	1	7	-0.036788	-4.05606	-2.58312	26.6117
 555	1	2	0.039962	-1.50249	-2.02241	23.9859
 556	1	2	-0.445847	-2.60256	-2.59849	24.6608
 557	1	1	0.122566	-1.07935	-2.50236	23.1081
 558	1	1	0.163876	-3.02623	-3.53603	24.3073
 559	1	2	-0.180142	-0.823945	0.755074	22.0172
 560	1	1	0.144642	-1.70822	0.139405	22.1302
 561	1	1	0.203463	-5.39351	-4.34617	27.9688
 562	1	2	-0.404697	-5.87324	-4.05909	27.0377
 563	1	2	-0.023572	-7.12344	-4.60535	26.7003
 564	1	1	0.153856	-7.60778	-5.31943	27.366
 565	1	2	-0.109138	-7.75555	-4.21597	25.5073
 566	1	3	0.998761	-9.34465	-4.93481	25.0523
 567	1	2	-0.03943	-7.1316	-3.28428	24.657
 568	1	1	0.156851	-7.6282	-2.97535	23.7387
 569	1	2	-0.395833	-5.87734	-2.74578	25.0004
 570	1	1	0.202602	-5.40575	-2.01489	24.35
 571	1	2	0.320255	-5.23948	-3.13453	26.1922
 572	1	4	-0.566353	-10.0568	-3.93582	24.2462
 573	1	4	-0.565639	-9.9195	-5.55654	26.2504
 574	1	1	0.171248	-8.92002	-4.99609	22.1722
 575	1	2	-0.142243	-8.655	-5.9778	22.5607
 576	1	2	-0.199349	-8.13978	-6.96027	21.6996
 577	1	1	0.156233	-8.00106	-6.73771	20.6468
 578	1	2	0.310144	-7.77947	-8.22354	22.2015
 579	1	5	-0.374171	-7.1919	-9.15486	21.3801
 580	1	1	0.18393	-8.6183	-7.7529	25.4873
 581	1	2	-0.1794	-8.48656	-7.53365	24.4282
 582	1	2	-0.069637	-8.81191	-6.25311	23.9328
 583	1	1	0.24118	-4.99653	-7.90457	22.0763
 584	1	1	0.2544	-3.28368	-6.98708	20.4796
 585	1	2	-0.557237	-5.09309	-8.06663	21.0058
 586	1	2	-0.032586	-4.13527	-7.55583	20.1062
 587	1	2	0.370208	-6.2014	-8.77221	20.5124
 588	1	2	0.127886	-4.29506	-7.73111	18.7136
 589	1	7	-0.036788	-3.43122	-7.12845	17.8316
 590	1	2	0.039962	-6.33696	-8.99559	19.1289
 591	1	2	-0.445847	-5.38698	-8.47259	18.2243
 592	1	1	0.122566	-7.20457	-9.5363	18.7634
 593	1	1	0.163876	-5.51768	-8.61357	17.1545
 594	1	2	-0.180142	-7.97426	-8.51676	23.5599
 595	1	1	0.144642	-7.69901	-9.4966	23.9385
 596	1	1	0.203463	-0.966079	-6.24174	17.4866
 597	1	2	-0.404697	-1.66695	-5.49008	17.8403
 598	1	2	-0.023572	-1.20641	-4.20032	18.1719
 599	1	1	0.153856	-0.148222	-3.95365	18.0803
 600	1	2	-0.109138	-2.10563	-3.24618	18.684
 601	1	3	0.998761	-1.51148	-1.66095	19.3042
 602	1	2	-0.03943	-3.46376	-3.57623	18.8337
 603	1	1	0.156851	-4.15803	-2.85366	19.2607
 604	1	2	-0.395833	-3.91397	-4.86076	18.4955
 605	1	1	0.202602	-4.95933	-5.11855	18.645
 606	1	2	0.320255	-3.01602	-5.83432	18.0231
 607	1	4	-0.566353	-0.0941936	-1.79124	19.6541
 608	1	4	-0.565639	-2.51202	-1.24462	20.2932
 609	1	1	0.171248	-3.76518	-0.915719	17.5845
 610	1	2	-0.142243	-2.91094	-0.311745	17.2887
 611	1	2	-0.199349	-3.05394	0.65225	16.2744
 612	1	1	0.156233	-4.01056	0.790386	15.7813
 613	1	2	0.310144	-1.97349	1.46685	15.9058
 614	1	5	-0.374171	-2.19708	2.4143	14.9296
 615	1	1	0.18393	0.359436	0.272156	18.1178
 616	1	2	-0.1794	-0.591926	0.357337	17.5889
 617	1	2	-0.069637	-1.67251	-0.477213	17.9409
 618	1	1	0.24118	0.0829894	1.35497	14.0012
 619	1	1	0.2544	1.83022	2.62013	12.7388
 620	1	2	-0.557237	-0.068461	2.40558	13.7686
 621	1	2	-0.032586	0.908971	3.11588	13.043
 622	1	2	0.370208	-1.24175	3.05921	14.1803
 623	1	2	0.127886	0.71246	4.47513	12.7173
 624	1	7	-0.036788	1.68636	5.19079	12.0721
 625	1	2	0.039962	-1.46756	4.39361	13.7886
 626	1	2	-0.445847	-0.492736	5.10936	13.065
 627	1	1	0.122566	-2.39921	4.87503	14.063
 628	1	1	0.163876	-0.660901	6.14732	12.7919
 629	1	2	-0.180142	-0.746272	1.32978	16.5841
 630	1	1	0.144642	0.087562	1.98664	16.3543
 631	1	1	0.203463	2.56697	5.02408	14.5941
 632	1	2	-0.404697	3.3436	5.06152	13.8342
 633	1	2	-0.023572	4.69143	5.00202	14.2266
 634	1	1	0.153856	4.95253	4.90736	15.2808
 635	1	2	-0.109138	5.70484	5.05059	13.2545
 636	1	3	0.998761	7.42585	4.84835	13.7452
 637	1	2	-0.03943	5.36741	5.18049	11.8951
 638	1	1	0.156851	6.15491	5.21986	11.1429
 639	1	2	-0.395833	4.01543	5.24393	11.5118
 640	1	1	0.202602	3.75381	5.34084	10.4621
 641	1	2	0.320255	2.99743	5.1726	12.4747
 642	1	4	-0.566353	8.26334	5.39345	12.6708
 643	1	4	-0.565639	7.53801	5.26984	15.1455
 644	1	1	0.171248	6.77639	2.7784	15.7058
 645	1	2	-0.142243	7.10631	2.28003	14.7953
 646	1	2	-0.199349	7.05546	0.87818	14.7028
 647	1	1	0.156233	6.67972	0.283361	15.53
 648	1	2	0.310144	7.44679	0.240361	13.5166
 649	1	5	-0.374171	7.2482	-1.10491	13.372
 650	1	1	0.18393	8.31686	2.98288	11.6682
 651	1	2	-0.1794	7.97382	2.39444	12.5185
 652	1	2	-0.069637	7.54582	3.04428	13.6949
 653	1	1	0.24118	5.05992	0.286822	12.6453
 654	1	1	0.2544	2.90137	-0.735369	11.9126
 655	1	2	-0.557237	4.96523	-0.793018	12.5909
 656	1	2	-0.032586	3.74718	-1.36816	12.1721
 657	1	2	0.370208	6.04575	-1.62592	12.9515
 658	1	2	0.127886	3.60897	-2.76709	12.087
 659	1	7	-0.036788	2.42753	-3.33657	11.6967
 660	1	2	0.039962	5.89378	-3.02347	12.8926
 661	1	2	-0.445847	4.67692	-3.59648	12.4672
 662	1	1	0.122566	6.7249	-3.65648	13.1897
 663	1	1	0.163876	4.55946	-4.6754	12.4526
 664	1	2	-0.180142	7.92305	0.991954	12.4324
 665	1	1	0.144642	8.21207	0.483353	11.5177
 666	1	1	0.203463	1.10051	-5.39504	10.8133
 667	1	2	-0.404697	1.3251	-4.66143	10.0451
 668	1	2	-0.023572	0.889841	-4.86837	8.72416
 669	1	1	0.153856	0.333492	-5.76588	8.46121