pySIMM System Object

387 atoms
419 bonds
682 angles
1010 dihedrals
132 impropers

7 atom types
7 bond types
11 angle types
4 dihedral types
1 improper types

-110.436565 110.436565 xlo xhi
-110.436565 110.436565 ylo yhi
-110.436565 110.436565 zlo zhi

Masses

   1	1.008	# ha
   2	12.01	# ca
   3	32.06	# sy
   4	16.0	# o
   5	16.0	# os
   6	1.008	# ho
   7	16.0	# oh

Pair Coeffs

   1	0.015	2.59964245953351	# ha
   2	0.086	3.3996695084235347	# ca
   3	0.25	3.563594872561357	# sy
   4	0.21	2.959921901149463	# o
   5	0.17	3.0000123434657784	# os
   6	0.0	0.0	# ho
   7	0.2104	3.0664733878390478	# oh

Bond Coeffs

   1	493.0	1.466	# o,sy
   2	345.8	1.086	# ca,ha
   3	384.0	1.3637	# ca,oh
   4	376.6	1.3696	# ca,os
   5	371.4	0.973	# ho,oh
   6	243.4	1.7909	# ca,sy
   7	461.1	1.3984	# ca,ca

Angle Coeffs

   1	48.18	119.88	# ca,ca,ha
   2	61.48	119.42	# ca,ca,sy
   3	72.54	121.41	# o,sy,o
   4	69.58	119.2	# ca,ca,os
   5	60.3	104.44	# ca,sy,ca
   6	49.0	108.58	# ca,oh,ho
   7	65.77	108.35	# ca,sy,o
   8	63.48	119.89	# ca,os,ca
   9	69.52	119.9	# ca,ca,oh
  10	66.62	120.02	# ca,ca,ca
  11	63.5	119.89	# ca,oh,ca

Dihedral Coeffs

   1	1	0.9	2	180	# X,ca,os,X
   2	1	0.9	2	180	# X,ca,oh,X
   3	1	3.625	2	180	# X,ca,ca,X
   4	1	1.3	2	180	# X,ca,sy,X

Improper Coeffs

   1	1.1	-1	2	# ca,X,X,ha

Atoms

   1	1	1	0.203463	-7.13293	8.31736	-39.6457
   2	1	2	-0.404697	-6.35886	8.27887	-38.8854
   3	1	2	-0.023572	-6.62207	8.73384	-37.5801
   4	1	1	0.153856	-7.60422	9.13081	-37.3251
   5	1	2	-0.109138	-5.61182	8.6817	-36.6018
   6	1	3	0.998761	-5.95846	9.25177	-34.9246
   7	1	2	-0.03943	-4.33729	8.18605	-36.9377
   8	1	1	0.156851	-3.54665	8.15976	-36.1876
   9	1	2	-0.395833	-4.0827	7.73836	-38.2471
  10	1	1	0.202602	-3.09952	7.36375	-38.5153
  11	1	2	0.320255	-5.09046	7.78329	-39.2214
  12	1	4	-0.566353	-4.69768	9.20179	-34.1758
  13	1	4	-0.565639	-6.76862	10.4701	-35.034
  14	1	1	0.171248	-8.8607	9.1139	-34.5128
  15	1	2	-0.142243	-8.43663	8.15848	-34.2065
  16	1	2	-0.199349	-9.27839	7.13734	-33.7321
  17	1	1	0.156233	-10.3487	7.30035	-33.675
  18	1	2	0.310144	-8.73485	5.90685	-33.3294
  19	1	5	-0.374171	-9.55484	4.88984	-32.9175
  20	1	1	0.18393	-5.42312	6.56849	-33.8816
  21	1	2	-0.1794	-6.50057	6.72329	-33.8481
  22	1	2	-0.069637	-7.04355	7.95173	-34.2784
  23	1	1	0.24118	-8.78317	2.77281	-34.2236
  24	1	1	0.2544	-10.1175	1.61163	-36.0349
  25	1	2	-0.557237	-9.77523	3.11801	-34.4997
  26	1	2	-0.032586	-10.522	2.47629	-35.511
  27	1	2	0.370208	-10.3163	4.23454	-33.8451
  28	1	2	0.127886	-11.8021	2.95211	-35.8598
  29	1	7	-0.036788	-12.5124	2.33708	-36.8535
  30	1	2	0.039962	-11.6045	4.69661	-34.1765
  31	1	2	-0.445847	-12.3494	4.06109	-35.1894
  32	1	1	0.122566	-12.0131	5.55634	-33.6556
  33	1	1	0.163876	-13.3379	4.42803	-35.4551
  34	1	2	-0.180142	-7.34776	5.70378	-33.3758
  35	1	1	0.144642	-6.93759	4.75217	-33.0533
  36	1	1	0.203463	-13.978	1.26989	-38.7283
  37	1	2	-0.404697	-14.2702	0.977166	-37.7243
  38	1	2	-0.023572	-15.3192	0.0581743	-37.5416
  39	1	1	0.153856	-15.8328	-0.366689	-38.4036
  40	1	2	-0.109138	-15.6806	-0.338053	-36.2419
  41	1	3	0.998761	-16.8628	-1.67066	-35.9823
  42	1	2	-0.03943	-15.0154	0.209809	-35.1323
  43	1	1	0.156851	-15.2946	-0.100917	-34.1267
  44	1	2	-0.395833	-13.9641	1.12119	-35.3237
  45	1	1	0.202602	-13.4429	1.51703	-34.4568
  46	1	2	0.320255	-13.5777	1.50386	-36.6223
  47	1	4	-0.566353	-17.6273	-1.36263	-34.7685
  48	1	4	-0.565639	-17.4887	-1.97646	-37.2738
  49	1	1	0.171248	-15.2367	-3.43055	-37.6427
  50	1	2	-0.142243	-14.9879	-3.64479	-36.6039
  51	1	2	-0.199349	-13.9365	-4.52849	-36.2941
  52	1	1	0.156233	-13.3692	-5.00228	-37.0891
  53	1	2	0.310144	-13.5881	-4.77656	-34.9565
  54	1	5	-0.374171	-12.4934	-5.56544	-34.6822
  55	1	1	0.18393	-15.8897	-2.75087	-33.4265
  56	1	2	-0.1794	-15.3568	-3.26198	-34.2278
  57	1	2	-0.069637	-15.6893	-2.99047	-35.5718
  58	1	1	0.24118	-10.449	-5.97775	-33.1225
  59	1	1	0.2544	-10.2825	-7.76557	-31.3392
  60	1	2	-0.557237	-11.2856	-6.63911	-32.9132
  61	1	2	-0.032586	-11.2008	-7.63889	-31.9116
  62	1	2	0.370208	-12.4556	-6.50696	-33.6807
  63	1	2	0.127886	-12.2934	-8.50537	-31.6752
  64	1	7	-0.036788	-12.2601	-9.55607	-30.7854
  65	1	2	0.039962	-13.5348	-7.38301	-33.4598
  66	1	2	-0.445847	-13.4531	-8.37652	-32.4635
  67	1	1	0.122566	-14.4229	-7.30541	-34.0801
  68	1	1	0.163876	-14.2823	-9.06449	-32.3219
  69	1	2	-0.180142	-14.3094	-4.15241	-33.9234
  70	1	1	0.144642	-14.0271	-4.32423	-32.8894
  71	1	1	0.203463	-11.239	-11.8343	-30.1055
  72	1	2	-0.404697	-11.0348	-11.0411	-29.3912
  73	1	2	-0.023572	-10.3041	-11.328	-28.2245
  74	1	1	0.153856	-9.9184	-12.3354	-28.0683
  75	1	2	-0.109138	-10.024	-10.3115	-27.2902
  76	1	3	0.998761	-8.83637	-10.6557	-25.9561
  77	1	2	-0.03943	-10.479	-9.00281	-27.5527
  78	1	1	0.156851	-10.229	-8.20147	-26.859
  79	1	2	-0.395833	-11.2193	-8.72417	-28.7261
  80	1	1	0.202602	-11.5897	-7.71919	-28.9051
  81	1	2	0.320255	-11.4874	-9.7418	-29.6621
  82	1	4	-0.566353	-8.50652	-12.0815	-26.0541
  83	1	4	-0.565639	-7.76782	-9.65988	-26.0805
  84	1	1	0.171248	-7.54979	-9.89148	-23.5164
  85	1	2	-0.142243	-8.58108	-10.1166	-23.2462
  86	1	2	-0.199349	-8.93846	-10.1989	-21.8856
  87	1	1	0.156233	-8.18676	-10.0423	-21.1181
  88	1	2	0.310144	-10.2353	-10.5962	-21.5255
  89	1	5	-0.374171	-10.5577	-10.9159	-20.2228
  90	1	1	0.18393	-11.5383	-11.0904	-24.6644
  91	1	2	-0.1794	-10.8203	-10.7935	-23.9024
  92	1	2	-0.069637	-9.50406	-10.4362	-24.2682
  93	1	1	0.24118	-10.376	-12.0163	-17.9052
  94	1	1	0.2544	-10.1664	-10.8242	-15.6916
  95	1	2	-0.557237	-10.263	-10.9368	-17.8642
  96	1	2	-0.032586	-10.1529	-10.2637	-16.6251
  97	1	2	0.370208	-10.272	-10.2151	-19.0706
  98	1	2	0.127886	-10.0612	-8.85676	-16.5888
  99	1	7	-0.036788	-10.0279	-8.14117	-15.4155
 100	1	2	0.039962	-10.1314	-8.81298	-19.0381
 101	1	2	-0.445847	-10.0202	-8.1377	-17.8019
 102	1	1	0.122566	-10.1526	-8.24894	-19.9654
 103	1	1	0.163876	-9.93902	-7.05337	-17.7855
 104	1	2	-0.180142	-11.1754	-10.868	-22.5365
 105	1	1	0.144642	-12.1649	-11.2099	-22.2479
 106	1	1	0.203463	-8.00998	-8.48215	-13.7951
 107	1	2	-0.404697	-8.97805	-8.66217	-13.3366
 108	1	2	-0.023572	-9.06649	-8.8031	-11.941
 109	1	1	0.153856	-8.15963	-8.72932	-11.3417
 110	1	2	-0.109138	-10.3198	-8.8875	-11.3033
 111	1	3	0.998761	-10.351	-8.57584	-9.5098
 112	1	2	-0.03943	-11.4864	-8.90438	-12.0964
 113	1	1	0.156851	-12.4653	-8.91394	-11.6187
 114	1	2	-0.395833	-11.3866	-8.77664	-13.503
 115	1	1	0.202602	-12.2895	-8.69169	-14.1017
 116	1	2	0.320255	-10.134	-8.60531	-14.1246
 117	1	4	-0.566353	-8.99845	-8.87316	-9.02788
 118	1	4	-0.565639	-10.8898	-7.22381	-9.33152
 119	1	1	0.171248	-10.9163	-11.5055	-9.59173
 120	1	2	-0.142243	-11.4642	-11.07	-8.75958
 121	1	2	-0.199349	-12.1313	-11.9066	-7.83978
 122	1	1	0.156233	-12.1299	-12.9829	-7.97449
 123	1	2	0.310144	-12.7744	-11.3582	-6.71734
 124	1	5	-0.374171	-13.4156	-12.1634	-5.8134
 125	1	1	0.18393	-12.0906	-8.05894	-7.25949
 126	1	2	-0.1794	-12.129	-9.13229	-7.44568
 127	1	2	-0.069637	-11.4511	-9.67341	-8.56225
 128	1	1	0.24118	-12.873	-14.6916	-6.10043
 129	1	1	0.2544	-11.81	-16.1631	-4.34594
 130	1	2	-0.557237	-12.5297	-14.2777	-5.15826
 131	1	2	-0.032586	-11.9407	-15.0964	-4.17234
 132	1	2	0.370208	-12.7323	-12.9158	-4.8946
 133	1	2	0.127886	-11.56	-14.5587	-2.92764
 134	1	7	-0.036788	-11.1362	-15.4162	-1.95325
 135	1	2	0.039962	-12.3489	-12.3722	-3.65183
 136	1	2	-0.445847	-11.7644	-13.1907	-2.66244
 137	1	1	0.122566	-12.5486	-11.3259	-3.44369
 138	1	1	0.163876	-11.5242	-12.7708	-1.69157
 139	1	2	-0.180142	-12.7927	-9.97013	-6.5322
 140	1	1	0.144642	-13.2944	-9.5507	-5.66488
 141	1	1	0.203463	-10.1626	-13.6567	-0.201409
 142	1	2	-0.404697	-9.49435	-14.4717	-0.451945
 143	1	2	-0.023572	-8.29013	-14.6246	0.25804
 144	1	1	0.153856	-8.02906	-13.9222	1.04712
 145	1	2	-0.109138	-7.47629	-15.7421	0.00502148
 146	1	3	0.998761	-6.11793	-16.1779	1.09202
 147	1	2	-0.03943	-7.83942	-16.6716	-0.983288
 148	1	1	0.156851	-7.22413	-17.5571	-1.14304
 149	1	2	-0.395833	-9.04236	-16.5112	-1.68609
 150	1	1	0.202602	-9.35508	-17.2734	-2.39209
 151	1	2	0.320255	-9.88259	-15.4228	-1.41163
 152	1	4	-0.566353	-6.75921	-16.8049	2.25256
 153	1	4	-0.565639	-5.15638	-16.9285	0.277255
 154	1	1	0.171248	-6.41105	-14.6733	3.56851
 155	1	2	-0.142243	-5.59722	-14.223	3.00117
 156	1	2	-0.199349	-4.7104	-13.3425	3.64201
 157	1	1	0.156233	-4.83647	-13.1133	4.69532
 158	1	2	0.310144	-3.57123	-12.8778	2.97124
 159	1	5	-0.374171	-2.55721	-12.3399	3.71909
 160	1	1	0.18393	-3.9986	-14.4877	-0.0146096
 161	1	2	-0.1794	-4.23538	-14.1148	0.981758
 162	1	2	-0.069637	-5.32329	-14.6651	1.6911
 163	1	1	0.24118	-3.9254	-10.1811	2.92105
 164	1	1	0.2544	-3.03625	-7.82553	3.04023
 165	1	2	-0.557237	-2.91828	-9.98452	3.27659
 166	1	2	-0.032586	-2.41848	-8.66469	3.35385
 167	1	2	0.370208	-2.10409	-11.0492	3.69564
 168	1	2	0.127886	-1.12501	-8.40354	3.85548
 169	1	7	-0.036788	-0.688814	-7.1019	3.90744
 170	1	2	0.039962	-0.812213	-10.7945	4.19185
 171	1	2	-0.445847	-0.314177	-9.47839	4.2715
 172	1	1	0.122566	-0.204135	-11.6311	4.52424
 173	1	1	0.163876	0.686756	-9.30708	4.66025
 174	1	2	-0.180142	-3.35851	-13.2201	1.62531
 175	1	1	0.144642	-2.45087	-12.8952	1.12635
 176	1	1	0.203463	1.91464	-6.96071	3.44787
 177	1	2	-0.404697	1.60919	-6.57335	4.41563
 178	1	2	-0.023572	2.56998	-6.04282	5.2995
 179	1	1	0.153856	3.62244	-6.04205	5.01805
 180	1	2	-0.109138	2.18077	-5.54768	6.56089
 181	1	3	0.998761	3.44272	-5.0061	7.75081
 182	1	2	-0.03943	0.82588	-5.62838	6.93775
 183	1	1	0.156851	0.521361	-5.31809	7.93425
 184	1	2	-0.395833	-0.130342	-6.14934	6.04435
 185	1	1	0.202602	-1.17421	-6.20472	6.33727
 186	1	2	0.320255	0.255947	-6.63145	4.78384
 187	1	4	-0.566353	3.06353	-5.67701	8.99831
 188	1	4	-0.565639	4.76468	-5.20926	7.14545
 189	1	1	0.171248	1.30698	-3.44461	9.05857
 190	1	2	-0.142243	2.11343	-2.75635	8.82014
 191	1	2	-0.199349	2.02991	-1.41119	9.23686
 192	1	1	0.156233	1.13688	-1.05105	9.73722
 193	1	2	0.310144	3.09276	-0.51979	9.01318
 194	1	5	-0.374171	2.91646	0.819185	9.30274
 195	1	1	0.18393	5.18059	-2.65463	7.3214
 196	1	2	-0.1794	4.29395	-2.3105	7.85385
 197	1	2	-0.069637	3.24752	-3.22391	8.12337
 198	1	1	0.24118	4.49619	0.0486864	11.3977
 199	1	1	0.2544	5.40819	1.64255	13.136
 200	1	2	-0.557237	4.28005	1.1125	11.3421
 201	1	2	-0.032586	4.78384	2.01179	12.3229
 202	1	2	0.370208	3.48611	1.60888	10.2885
 203	1	2	0.127886	4.49069	3.39716	12.2731
 204	1	7	-0.036788	5.05816	4.2687	13.1801
 205	1	2	0.039962	3.20979	2.99079	10.2402
 206	1	2	-0.445847	3.70559	3.88395	11.215
 207	1	1	0.122566	2.60081	3.36792	9.42527
 208	1	1	0.163876	3.49184	4.94661	11.1361
 209	1	2	-0.180142	4.2128	-0.968358	8.29116
 210	1	1	0.144642	5.00903	-0.268396	8.05765
 211	1	1	0.203463	2.85442	4.10981	14.6772
 212	1	2	-0.404697	3.31259	5.093	14.6471
 213	1	2	-0.023572	2.8256	6.1152	15.4846
 214	1	1	0.153856	1.98662	5.91382	16.1504
 215	1	2	-0.109138	3.45543	7.37466	15.5475
 216	1	3	0.998761	2.85386	8.47167	16.8753
 217	1	2	-0.03943	4.54043	7.62952	14.6859
 218	1	1	0.156851	5.03642	8.59781	14.7081
 219	1	2	-0.395833	5.00899	6.59776	13.8315
 220	1	1	0.202602	5.85648	6.76197	13.1784
 221	1	2	0.320255	4.42956	5.31455	13.8308
 222	1	4	-0.566353	1.42937	8.70796	16.6179
 223	1	4	-0.565639	3.20699	7.69755	18.0684
 224	1	1	0.171248	1.7774	11.1301	17.293
 225	1	2	-0.142243	2.85422	11.2034	17.4453
 226	1	2	-0.199349	3.37287	12.34	18.0996
 227	1	1	0.156233	2.70286	13.1278	18.4319
 228	1	2	0.310144	4.72572	12.3974	18.4647
 229	1	5	-0.374171	5.11479	13.3385	19.3952
 230	1	1	0.18393	5.68213	9.2957	17.3602
 231	1	2	-0.1794	5.0502	10.1732	17.4792
 232	1	2	-0.069637	3.67735	10.0902	17.1502
 233	1	1	0.24118	7.47462	13.6533	18.2148
 234	1	1	0.2544	8.71737	15.838	18.0612
 235	1	2	-0.557237	7.02286	14.5728	18.5715
 236	1	2	-0.032586	7.72338	15.7986	18.5032
 237	1	2	0.370208	5.75274	14.5356	19.169
 238	1	2	0.127886	7.17581	16.9838	19.0381
 239	1	7	-0.036788	7.91316	18.1365	18.9305
 240	1	2	0.039962	5.20306	15.7196	19.7047
 241	1	2	-0.445847	5.90027	16.9463	19.6348
 242	1	1	0.122566	4.2371	15.6736	20.1983
 243	1	1	0.163876	5.45557	17.8402	20.0628
 244	1	2	-0.180142	5.56513	11.3169	18.1354
 245	1	1	0.144642	6.58646	11.3157	18.5023
 246	1	1	0.203463	9.96923	18.6402	20.4669
 247	1	2	-0.404697	9.16863	19.3687	20.5445
 248	1	2	-0.023572	9.36182	20.5324	21.3082
 249	1	1	0.153856	10.308	20.7021	21.821
 250	1	2	-0.109138	8.35942	21.5151	21.3534
 251	1	3	0.998761	8.74094	23.1178	22.0869
 252	1	2	-0.03943	7.13816	21.3	20.6871
 253	1	1	0.156851	6.35974	22.0622	20.7226
 254	1	2	-0.395833	6.9563	20.1332	19.9185
 255	1	1	0.202602	6.0429	20.0009	19.347
 256	1	2	0.320255	7.97364	19.166	19.8355
 257	1	4	-0.566353	7.47719	23.8281	22.3127
 258	1	4	-0.565639	9.74648	22.8982	23.1323
 259	1	1	0.171248	7.75641	24.7431	19.8745
 260	1	2	-0.142243	8.82345	24.593	19.7162
 261	1	2	-0.199349	9.42594	25.0305	18.5239
 262	1	1	0.156233	8.82579	25.4938	17.7458
 263	1	2	0.310144	10.7836	24.7619	18.2828
 264	1	5	-0.374171	11.2616	24.8383	17.0013
 265	1	1	0.18393	11.5446	23.1174	21.181
 266	1	2	-0.1794	10.9572	23.6726	20.4509
 267	1	2	-0.069637	9.57975	23.8892	20.6748
 268	1	1	0.24118	11.6702	25.0134	14.4314
 269	1	1	0.2544	10.7808	23.4063	12.6909
 270	1	2	-0.557237	11.102	24.1329	14.7188
 271	1	2	-0.032586	10.6039	23.2318	13.7508
 272	1	2	0.370208	10.8396	23.9057	16.0781
 273	1	2	0.127886	9.84511	22.1084	14.1387
 274	1	7	-0.036788	9.30727	21.2964	13.1811
 275	1	2	0.039962	10.1038	22.7587	16.461
 276	1	2	-0.445847	9.58517	21.8797	15.4999
 277	1	1	0.122566	9.89518	22.5538	17.5057
 278	1	1	0.163876	8.96236	21.0576	15.8275
 279	1	2	-0.180142	11.5546	24.1058	19.2528
 280	1	1	0.144642	12.5908	23.8648	19.0332
 281	1	1	0.203463	9.01369	19.211	14.8603
 282	1	2	-0.404697	9.47913	18.9834	13.9117
 283	1	2	-0.023572	9.79595	17.6474	13.6136
 284	1	1	0.153856	9.58548	16.8671	14.3405
 285	1	2	-0.109138	10.3383	17.328	12.3578
 286	1	3	0.998761	10.6013	15.6283	11.8316
 287	1	2	-0.03943	10.6005	18.3477	11.4268
 288	1	1	0.156851	11.0122	18.0905	10.451
 289	1	2	-0.395833	10.283	19.6804	11.7339
 290	1	1	0.202602	10.4479	20.4582	10.9944
 291	1	2	0.320255	9.71078	20.0055	12.9712
 292	1	4	-0.566353	12.0086	15.5289	11.4324
 293	1	4	-0.565639	9.54175	15.3933	10.8465
 294	1	1	0.171248	8.12444	14.6711	13.0974
 295	1	2	-0.142243	8.95853	14.1693	13.5892
 296	1	2	-0.199349	8.71733	13.1475	14.5331
 297	1	1	0.156233	7.69795	12.8867	14.8013
 298	1	2	0.310144	9.79545	12.4366	15.0952
 299	1	5	-0.374171	9.60161	11.4182	16.0024
 300	1	1	0.18393	12.3795	14.0853	13.5678
 301	1	2	-0.1794	11.3555	13.8421	13.852
 302	1	2	-0.069637	10.2811	14.5042	13.2249
 303	1	1	0.24118	10.9289	9.39221	16.9863
 304	1	1	0.2544	10.4186	6.95454	16.6088
 305	1	2	-0.557237	10.1297	9.09294	16.3143
 306	1	2	-0.032586	9.82888	7.7199	16.1078
 307	1	2	0.370208	9.38743	10.0962	15.6644
 308	1	2	0.127886	8.7532	7.33656	15.2721
 309	1	7	-0.036788	8.33206	6.02728	15.0772
 310	1	2	0.039962	8.37092	9.71583	14.7708
 311	1	2	-0.445847	8.06154	8.35334	14.5787
 312	1	1	0.122566	7.79832	10.4776	14.2522
 313	1	1	0.163876	7.27627	8.09754	13.8858
 314	1	2	-0.180142	11.1086	12.8165	14.7831
 315	1	1	0.144642	11.9356	12.2858	15.2439
 316	1	1	0.203463	8.97629	5.33676	17.6326
 317	1	2	-0.404697	9.16215	4.57521	16.8813
 318	1	2	-0.023572	9.72445	3.33847	17.2741
 319	1	1	0.153856	10.0284	3.19447	18.3105
 320	1	2	-0.109138	9.98062	2.32004	16.3289
 321	1	3	0.998761	11.1341	0.971419	16.7695
 322	1	2	-0.03943	9.62307	2.55369	14.9865
 323	1	1	0.156851	9.86535	1.81115	14.2279
 324	1	2	-0.395833	9.04907	3.78691	14.6048
 325	1	1	0.202602	8.80062	3.96323	13.5626
 326	1	2	0.320255	8.86307	4.8311	15.5296
 327	1	4	-0.566353	11.6092	1.26483	18.1266
 328	1	4	-0.565639	12.0654	0.943474	15.6374
 329	1	1	0.171248	10.6457	-0.884206	18.9645
 330	1	2	-0.142243	10.4587	-1.42953	18.0412
 331	1	2	-0.199349	10.3714	-2.83516	18.0878
 332	1	1	0.156233	10.4454	-3.35323	19.0398
 333	1	2	0.310144	10.3079	-3.58	16.8995
 334	1	5	-0.374171	10.4296	-4.95633	16.9082
 335	1	1	0.18393	10.3158	-0.996024	14.6552
 336	1	2	-0.1794	10.2708	-1.49011	15.6234
 337	1	2	-0.069637	10.4522	-0.735879	16.8082
 338	1	1	0.24118	10.5826	-7.53851	16.9007
 339	1	1	0.2544	12.3844	-8.94215	17.9792
 340	1	2	-0.557237	11.4194	-7.07197	17.4121
 341	1	2	-0.032586	12.4307	-7.8553	18.0146
 342	1	2	0.370208	11.4728	-5.66836	17.4825
 343	1	2	0.127886	13.4959	-7.24249	18.7035
 344	1	7	-0.036788	14.3869	-8.00613	19.4109
 345	1	2	0.039962	12.5842	-5.06028	18.1154
 346	1	2	-0.445847	13.5856	-5.83987	18.7323
 347	1	1	0.122566	12.6726	-3.98104	18.1504
 348	1	1	0.163876	14.4097	-5.35408	19.2479
 349	1	2	-0.180142	10.1834	-2.90089	15.6759
 350	1	1	0.144642	10.1092	-3.4822	14.7607
 351	1	1	0.203463	14.5093	-6.35157	21.4715
 352	1	2	-0.404697	14.1372	-7.34362	21.7094
 353	1	2	-0.023572	13.6722	-7.62304	23.0057
 354	1	1	0.153856	13.6924	-6.8481	23.7723
 355	1	2	-0.109138	13.1468	-8.89219	23.3124
 356	1	3	0.998761	12.4861	-9.15285	24.9765
 357	1	2	-0.03943	13.1516	-9.90043	22.3304
 358	1	1	0.156851	12.7813	-10.8951	22.5679
 359	1	2	-0.395833	13.6102	-9.60909	21.0299
 360	1	1	0.202602	13.5842	-10.3747	20.2618
 361	1	2	0.320255	14.0794	-8.32376	20.7074
 362	1	4	-0.566353	11.7261	-7.93481	25.273
 363	1	4	-0.565639	13.6095	-9.49988	25.8519
 364	1	1	0.171248	11.946	-11.1406	26.993
 365	1	2	-0.142243	11.2288	-11.3205	26.1917
 366	1	2	-0.199349	10.196	-12.2623	26.3716
 367	1	1	0.156233	10.1034	-12.7865	27.3172
 368	1	2	0.310144	9.23004	-12.4705	25.374
 369	1	5	-0.374171	8.10529	-13.2148	25.6827
 370	1	1	0.18393	10.3136	-10.0858	23.1423
 371	1	2	-0.1794	10.3147	-10.7269	24.023
 372	1	2	-0.069637	11.2962	-10.5373	25.0213
 373	1	1	0.24118	6.41809	-14.4983	27.1054
 374	1	1	0.2544	5.55475	-16.8391	26.6986
 375	1	2	-0.557237	6.81751	-15.1021	26.2976
 376	1	2	-0.032586	6.3089	-16.3948	26.0474
 377	1	2	0.370208	7.81997	-14.5569	25.4767
 378	1	2	0.127886	6.74237	-17.1105	24.9183
 379	1	7	-0.036788	6.0451	-18.217	24.5109
 380	1	2	0.039962	8.41411	-15.3802	24.491
 381	1	2	-0.445847	7.87266	-16.6602	24.2085
 382	1	1	0.122566	9.26527	-15.0182	23.925
 383	1	1	0.163876	8.3102	-17.295	23.4424
 384	1	2	-0.180142	9.28699	-11.6832	24.205
 385	1	1	0.144642	8.49067	-11.7633	23.4719
 386	1	1	0	-4.88816	7.43916	-40.2326
 387	1	6	0	5.20781	-18.2511	25.0129

Velocities

   1	0.00035672	0.000344468	0.000768545
   2	0.000482137	0.000173091	0.000518391
   3	0.000156779	0.000199092	0.000664032
   4	0.000271599	0.000212024	0.000553914
   5	-0.000187975	-3.56788e-05	0.000751625
   6	0.000201918	0.00029522	0.000165862
   7	-0.000464875	-6.40417e-05	0.000499436
   8	-0.00042536	-0.000226649	0.000254947
   9	-0.000745399	-4.20455e-06	0.000216217
  10	-0.000775585	-4.76092e-05	0.000453902
  11	-4.07052e-05	-7.96215e-05	-0.000204816
  12	0.000718435	-4.6803e-05	-0.000628273
  13	0.000164109	0.000232904	-0.001014
  14	0.000311378	5.50451e-06	-0.000412406
  15	9.6122e-05	-0.000144923	-0.000497
  16	0.000125618	-2.05058e-05	-0.00029808
  17	0.000213254	0.000212196	-0.000141077
  18	0.000161527	8.09994e-05	-0.000101731
  19	5.98609e-05	0.000196294	-0.000230951
  20	0.00026938	-1.23256e-05	-1.6361e-05
  21	0.000198065	-0.000145909	-0.000165132
  22	0.000162559	-2.91828e-05	-4.03517e-05
  23	-2.79814e-06	0.000399041	-0.00067349
  24	-0.000154007	0.000446175	-0.00051548
  25	-3.17358e-05	0.000423978	-0.000524447
  26	-0.000131212	0.000426205	-0.000455012
  27	-2.78966e-05	0.000267721	-0.000248594
  28	-0.000278854	0.000269725	-0.000144138
  29	-0.000424945	0.00033535	-7.18989e-05
  30	-0.000219516	3.52684e-05	0.000122818
  31	-0.00033096	6.53685e-05	0.000152352
  32	-0.000200253	-4.65816e-05	0.000265399
  33	-0.000393669	2.48611e-05	0.000287941
  34	0.000158332	-3.35417e-05	3.02677e-05
  35	0.000157001	9.7384e-05	0.00032847
  36	-8.36718e-05	-0.000297083	9.15943e-05
  37	2.52715e-05	-0.000267243	0.000125846
  38	0.000293895	-0.000512103	0.00021081
  39	0.000362383	-0.000680195	0.000260551
  40	0.000335754	-0.000402758	0.000239829
  41	0.000635053	-0.000617944	0.000198991
  42	6.0545e-05	-1.89932e-05	0.000222912
  43	0.000112749	5.32283e-05	0.000265503
  44	-0.000160694	0.000229013	0.000124606
  45	-0.000203091	0.000433913	5.7573e-05
  46	-0.000220844	0.000129434	7.05935e-05
  47	0.000540513	-0.000825832	0.000180225
  48	0.000728124	-0.000671739	0.000172285
  49	0.00128722	-0.000255216	0.000351314
  50	0.00108437	-0.000257776	0.000400201
  51	0.000832634	-0.00047129	0.000612791
  52	0.000827653	-0.000635069	0.000705823
  53	0.000448534	-0.000552768	0.000720158
  54	0.000276442	-0.000603341	0.000999587
  55	0.0002761	-0.000199844	4.76991e-05
  56	0.00050263	-0.000325322	0.000293651
  57	0.000873994	-0.000296336	0.000249002
  58	-0.000267275	-0.000728126	0.000955083
  59	-0.000531631	-0.000670109	0.000926397
  60	-0.000311653	-0.000664445	0.000998249
  61	-0.000566092	-0.000620582	0.000989937
  62	-0.000196913	-0.000514689	0.000997306
  63	-0.000883897	-0.000316161	0.00100387
  64	-0.00139146	-0.000175257	0.00114561
  65	-0.000532844	-5.09156e-05	0.00100768
  66	-0.000890554	4.13629e-06	0.00106206
  67	-0.000388809	0.000225544	0.000841999
  68	-0.00105993	0.000193462	0.000958258
  69	0.000312519	-0.000440071	0.00058871
  70	-1.52295e-05	-0.000365322	0.000704119
  71	-0.00105537	-2.38612e-05	0.00111999
  72	-0.000926462	9.35487e-05	0.000958379
  73	-0.000220624	0.000464722	0.000575033
  74	-8.872e-05	0.000528096	0.00051687
  75	0.000579542	0.000796075	2.47912e-06
  76	0.00109551	0.00120876	-0.000292964
  77	0.000476318	0.000741919	-0.000146918
  78	0.000794003	0.000945403	-0.000493464
  79	-0.000297502	0.000368386	0.000241447
  80	-0.000398696	0.000313283	2.72485e-05
  81	-0.00107711	-1.30332e-05	0.00089464
  82	0.00181497	0.00142654	-0.000877241
  83	0.000538578	0.0018935	1.65483e-05
  84	0.000315505	0.000441003	0.000817099
  85	0.000231785	8.30808e-05	0.000277639
  86	-0.000377671	-7.6795e-05	0.000158927
  87	-0.000836376	7.69205e-05	0.000562661
  88	-0.000465267	-0.000384357	-0.00038644
  89	-0.00157423	0.000222581	-0.000447947
  90	0.00116986	-0.000626195	-0.00108843
  91	0.000791523	-0.000749368	-0.00069903
  92	0.000742871	-1.89362e-05	-0.000184559
  93	-0.00155806	-0.00030817	-0.000460277
  94	-0.000951244	-0.000675806	-0.000166518
  95	-0.00150173	-0.000321402	-0.000267594
  96	-0.00116477	-0.000541191	-0.000111798
  97	-0.00140794	-0.000126917	-0.000216866
  98	-0.000793464	-0.000559451	3.79097e-05
  99	-0.000203211	-0.000421047	-7.7525e-05
 100	-0.00121503	-0.00014776	8.7625e-05
 101	-0.000995566	-0.00040178	0.00017881
 102	-0.00108773	0.000147551	0.000274624
 103	-0.000817766	-0.000413131	0.00048279
 104	0.000242473	-0.000976426	-0.000859925
 105	0.000119374	-0.00107668	-0.00139115
 106	0.000276984	-1.34592e-05	-0.000617871
 107	0.000427992	-8.81795e-05	-0.00028625
 108	0.000779379	-0.000226178	-0.000241136
 109	0.000909058	-0.000318437	-0.000380368
 110	0.000844206	0.000117461	-5.59161e-05
 111	0.000825134	0.000392243	-0.000225777
 112	0.00059854	0.00114772	0.000340527
 113	0.000761208	0.00157161	0.000667475
 114	0.000222064	0.00123322	0.000410143
 115	4.8533e-05	0.00169234	0.00072211
 116	0.000151726	0.000133611	6.67093e-05
 117	0.00089241	0.00131374	0.000136627
 118	-0.000156584	9.89896e-05	-0.000905665
 119	0.00244342	-0.000386534	0.0003312
 120	0.00164141	-0.000236027	-0.00025963
 121	0.000582095	-0.000200514	-0.000935421
 122	0.000423838	-0.000256524	-0.000755978
 123	-0.000445083	-6.72075e-05	-0.00162871
 124	-0.000555475	-0.000110404	-0.0017469
 125	0.000300213	-0.000149929	-0.000727449
 126	0.00020664	-0.000107337	-0.00101611
 127	0.00117329	-0.000137708	-0.000406719
 128	-0.000120073	-1.21407e-05	-0.00111809
 129	-0.000662863	0.000184783	-0.000448918
 130	-0.000710621	5.64397e-05	-0.000901297
 131	-0.000920406	0.000185264	-0.000555709
 132	-0.000685122	0.000174841	-0.00128347
 133	-0.000906077	0.000466631	-0.000619755
 134	-0.00072965	0.000983162	-0.000102984
 135	-0.000534891	0.000424138	-0.00133726
 136	-0.000710403	0.000516868	-0.00111576
 137	0.000125289	0.00061139	-0.00155556
 138	-0.000334354	0.000579917	-0.0012416
 139	-0.000430395	-0.000112559	-0.00155555
 140	-0.000518794	-0.000195584	-0.00157701
 141	4.60196e-05	0.00022646	0.000657841
 142	-0.000490609	-0.00027322	0.000761121
 143	-0.000677273	-0.00104271	0.00105348
 144	-0.00030162	-0.00138701	0.00116975
 145	-0.00049356	-0.000761899	0.000538105
 146	0.000597615	-0.000539227	-0.000348813
 147	-0.000574204	-0.00011026	-0.000143527
 148	-0.000556479	-7.22346e-06	-0.0008869
 149	-0.000590767	0.000431984	-0.000185659
 150	-0.000562033	0.0008374	-0.000615567
 151	-0.000588646	0.000467059	9.39662e-06
 152	0.0014453	-0.00141322	-0.000405843
 153	0.000105895	6.97253e-05	-0.00147935
 154	0.00139872	-0.00122713	0.000873732
 155	0.0012754	-0.00102996	0.000870571
 156	0.000503518	3.98634e-05	0.000669057
 157	3.23643e-06	0.000630705	0.000507793
 158	0.000358911	0.000535037	0.000738676
 159	9.07276e-05	0.000870487	0.000872505
 160	0.00141709	-0.000417147	0.00103301
 161	0.00128635	-0.000681055	0.00107796
 162	0.00124061	-0.0010135	0.000784553
 163	0.000436603	-5.53771e-05	-0.000741366
 164	-0.000151931	0.000242294	-0.00104415
 165	0.000328195	0.000451722	-0.000625967
 166	0.000139878	0.000568594	-0.000747238
 167	0.000222501	0.000762501	0.000224246
 168	-4.03963e-05	0.000873597	-0.000154967
 169	4.78936e-05	0.000880863	0.000207339
 170	6.16635e-05	0.0009648	0.00041441
 171	-6.0249e-05	0.000989058	0.000188609
 172	0.000141816	0.0011298	0.000649432
 173	-9.36256e-05	0.00114059	0.00018917
 174	0.00088901	-0.000167898	0.00099641
 175	0.000834779	8.50866e-05	0.00102562
 176	6.86767e-05	0.00176424	-8.23855e-05
 177	0.000111829	0.00154095	1.53793e-05
 178	0.000174448	0.00152664	1.71524e-05
 179	0.000193578	0.00165134	-9.80392e-05
 180	0.000147702	0.000901907	0.000308062
 181	-0.000113057	0.00065902	0.00074602
 182	0.00020348	0.000460013	0.000410991
 183	0.00017469	0.000547602	0.000383612
 184	0.000269821	0.000141545	0.000513081
 185	0.00030462	-0.000224059	0.000611558
 186	0.000195933	0.000691784	0.000282995
 187	-0.000167269	0.000399813	0.000597406
 188	4.27968e-05	0.00120076	0.000957057
 189	0.000262113	0.000320376	0.00178968
 190	0.000177201	0.000361401	0.00161375
 191	0.000288446	0.000364239	0.00164189
 192	0.000574205	0.000333986	0.00216052
 193	-0.000182481	0.000573626	0.000218159
 194	-0.000486977	0.00075309	-0.00108853
 195	0.000265591	-0.000214909	0.00181466
 196	0.000100421	0.000171046	0.00130735
 197	-0.000123598	0.000456049	0.00109562
 198	-0.000863178	0.000443591	-0.00109895
 199	-0.000576069	0.000150445	-0.00136766
 200	-0.000981428	0.000449895	-0.00101863
 201	-0.000833587	0.00026757	-0.00109654
 202	-0.00115453	0.000681627	-0.000786211
 203	-0.000991615	0.000172485	-0.000800538
 204	-0.000467589	-4.81674e-05	-0.00106078
 205	-0.00148951	0.000640784	-0.000514658
 206	-0.00147306	0.000451613	-0.00030694
 207	-0.00134581	0.000775971	-0.000570807
 208	-0.0012953	0.000525812	5.65955e-05
 209	7.05928e-05	0.000274738	0.00077655
 210	0.000284278	-2.42323e-06	0.000690215
 211	-0.000372172	-0.000631397	-0.000748955
 212	1.96946e-05	-0.000806508	9.18283e-06
 213	0.000488891	-0.00125521	0.000874848
 214	0.000380757	-0.00125702	0.000745315
 215	0.00065538	-0.00138981	0.00128591
 216	-0.00029534	-0.000843343	0.000413341
 217	0.000229318	-0.000993063	0.000853729
 218	5.15343e-05	-0.000919486	0.000803993
 219	-4.53762e-05	-0.000570138	0.000269559
 220	-0.000295405	-0.000182729	2.41994e-05
 221	-0.000192366	-0.000475487	-0.000234589
 222	0.000400544	0.000789542	-0.00194998
 223	-0.00329245	-0.000377181	0.00161518
 224	0.000933261	-0.000760492	-0.00151112
 225	0.000879215	-0.00095512	-0.00135184
 226	0.000731263	-0.000777163	-0.00191855
 227	0.000675151	-0.000795279	-0.00209482
 228	0.00046585	-0.000809148	-0.0014636
 229	-0.000592262	-0.000973176	-0.00101344
 230	0.000839593	-0.001581	0.0010326
 231	0.000729045	-0.00153228	0.000391091
 232	0.000705496	-0.0014297	0.000151859
 233	-0.000959279	-0.00113283	-0.00149189
 234	-0.000537221	-0.00124471	-0.000985951
 235	-0.000734241	-0.00110188	-0.00123038
 236	-0.000526242	-0.00115059	-0.000977282
 237	-0.000423705	-0.00107604	-0.000536889
 238	-8.71993e-05	-0.00121581	-0.00028176
 239	-0.000427927	-0.000924936	-0.000574604
 240	0.000106774	-0.00118257	0.000292266
 241	0.000302998	-0.00132944	0.000338234
 242	0.000193256	-0.000903574	0.00050995
 243	0.000682615	-0.00124405	0.000478114
 244	0.000715328	-0.000838035	-0.00071849
 245	0.000765597	-0.000145099	-0.00081876
 246	-0.0002957	-0.000943089	-0.000477363
 247	3.94566e-05	-0.000562753	-0.000774948
 248	0.000376133	-0.000482337	-0.000762792
 249	0.000218239	-0.000975391	-0.000283442
 250	0.000716227	-9.1103e-05	-0.000877985
 251	-0.00013487	-0.000226547	0.000219658
 252	0.00102153	0.000300022	-0.00143952
 253	0.00126889	0.000535043	-0.00121352
 254	0.000552761	0.000178595	-0.00119417
 255	0.000207712	0.00049362	-0.000685375
 256	-2.09205e-06	-0.000497856	-0.000856833
 257	-0.000449634	-0.000776057	0.000243006
 258	-4.0682e-06	0.000156918	0.000199444
 259	-4.82818e-05	0.00180046	0.000611945
 260	-0.000104219	0.00112983	0.000776079
 261	0.00016839	0.00061729	0.000734975
 262	0.000679736	0.000929861	0.000556046
 263	-0.000100528	-0.000476486	0.000714816
 264	3.51764e-05	-0.000820186	0.000796984
 265	-0.000618291	0.000924432	0.00146031
 266	-0.000375391	0.000579325	0.00105654
 267	-0.000354757	0.000687764	0.00071697
 268	-0.000754355	0.000711654	0.00102934
 269	0.000728603	0.000480889	0.000485287
 270	-0.000437411	0.000326771	0.000612398
 271	0.000198356	0.000236672	0.000362867
 272	-0.000587606	-0.000165505	0.000500248
 273	0.000297032	-2.69063e-05	-6.88007e-05
 274	0.00066141	7.07259e-05	-0.00044884
 275	-0.00081271	-0.000150088	0.000131958
 276	-0.000525435	-1.09823e-05	-0.000206761
 277	-0.000990639	-0.000443366	5.87643e-05
 278	-0.000595308	-0.0001677	-0.000692735
 279	-0.000222078	-0.000111311	0.000982757
 280	-0.000205489	-0.000289618	0.00131341
 281	-0.00120337	-0.000338617	-0.000725901
 282	-0.00101003	-0.000472745	-0.000618282
 283	-0.000899285	-0.000595089	-0.000523935
 284	-0.00090426	-0.00053627	-0.000451559
 285	-0.000431687	-0.000825948	-0.000354692