pySIMM System Object

667 atoms
723 bonds
1178 angles
1746 dihedrals
228 impropers

7 atom types
7 bond types
11 angle types
4 dihedral types
1 improper types

-134.339500 134.339500 xlo xhi
-134.339500 134.339500 ylo yhi
-134.339500 134.339500 zlo zhi

Masses

   1	1.008	# ha
   2	12.01	# ca
   3	32.06	# sy
   4	16.0	# o
   5	16.0	# os
   6	1.008	# ho
   7	16.0	# oh

Pair Coeffs

   1	0.015	2.59964245953351	# ha
   2	0.086	3.3996695084235347	# ca
   3	0.25	3.563594872561357	# sy
   4	0.21	2.959921901149463	# o
   5	0.17	3.0000123434657784	# os
   6	0.0	0.0	# ho
   7	0.2104	3.0664733878390478	# oh

Bond Coeffs

   1	493.0	1.466	# o,sy
   2	345.8	1.086	# ca,ha
   3	384.0	1.3637	# ca,oh
   4	376.6	1.3696	# ca,os
   5	371.4	0.973	# ho,oh
   6	243.4	1.7909	# ca,sy
   7	461.1	1.3984	# ca,ca

Angle Coeffs

   1	48.18	119.88	# ca,ca,ha
   2	61.48	119.42	# ca,ca,sy
   3	72.54	121.41	# o,sy,o
   4	69.58	119.2	# ca,ca,os
   5	60.3	104.44	# ca,sy,ca
   6	49.0	108.58	# ca,oh,ho
   7	65.77	108.35	# ca,sy,o
   8	63.48	119.89	# ca,os,ca
   9	69.52	119.9	# ca,ca,oh
  10	66.62	120.02	# ca,ca,ca
  11	63.5	119.89	# ca,oh,ca

Dihedral Coeffs

   1	1	0.9	2	180	# X,ca,os,X
   2	1	0.9	2	180	# X,ca,oh,X
   3	1	3.625	2	180	# X,ca,ca,X
   4	1	1.3	2	180	# X,ca,sy,X

Improper Coeffs

   1	1.1	-1	2	# ca,X,X,ha

Atoms

   1	1	1	0.203463	-8.57	1.52487	-1.12621
   2	1	2	-0.404697	-8.6805	0.5991	-0.571902
   3	1	2	-0.023572	-8.48313	0.618242	0.837511
   4	1	1	0.153856	-8.23589	1.54963	1.35657
   5	1	2	-0.109138	-8.59628	-0.576625	1.56904
   6	1	3	0.998761	-8.2381	-0.609561	3.33668
   7	1	2	-0.03943	-8.93302	-1.77057	0.905136
   8	1	1	0.156851	-9.03255	-2.6964	1.48105
   9	1	2	-0.395833	-9.11491	-1.76764	-0.505187
  10	1	1	0.202602	-9.35259	-2.70275	-1.00223
  11	1	2	0.320255	-9.00817	-0.586345	-1.31559
  12	1	4	-0.566353	-8.34329	0.7406	3.90126
  13	1	4	-0.565639	-8.98914	-1.72854	3.9135
  14	1	1	0.171248	-6.32906	-0.455509	5.5168
  15	1	2	-0.142243	-5.80117	-0.914383	4.68147
  16	1	2	-0.199349	-4.46783	-1.35548	4.83338
  17	1	1	0.156233	-3.96779	-1.23528	5.78872
  18	1	2	0.310144	-3.80958	-1.99275	3.76464
  19	1	5	-0.374171	-2.52009	-2.48182	3.83893
  20	1	1	0.18393	-6.3302	-1.90283	1.45047
  21	1	2	-0.1794	-5.81922	-1.7261	2.39286
  22	1	2	-0.069637	-6.48804	-1.09679	3.46318
  23	1	1	0.24118	-2.59349	-3.69413	6.20646
  24	1	1	0.2544	-0.748349	-3.60767	7.93369
  25	1	2	-0.557237	-1.72057	-3.06561	6.05429
  26	1	2	-0.032586	-0.67307	-3.0309	7.01187
  27	1	2	0.370208	-1.6084	-2.32946	4.86076
  28	1	2	0.127886	0.494881	-2.27042	6.7718
  29	1	7	-0.036788	1.57652	-2.2416	7.62611
  30	1	2	0.039962	-0.454966	-1.55628	4.63588
  31	1	2	-0.445847	0.580883	-1.50937	5.59279
  32	1	1	0.122566	-0.358768	-1.01602	3.69961
  33	1	1	0.163876	1.47466	-0.920368	5.40984
  34	1	2	-0.180142	-4.49445	-2.16988	2.55101
  35	1	1	0.144642	-4.00138	-2.69081	1.73844
  36	1	1	0.203463	1.48157	-1.13305	9.98771
  37	1	2	-0.404697	1.63829	-2.20699	10.0181
  38	1	2	-0.023572	1.7566	-2.86757	11.2552
  39	1	1	0.153856	1.64665	-2.30531	12.1799
  40	1	2	-0.109138	1.95517	-4.26018	11.2961
  41	1	3	0.998761	1.8107	-5.15539	12.8658
  42	1	2	-0.03943	2.03747	-4.97851	10.0847
  43	1	1	0.156851	2.15001	-6.06362	10.1037
  44	1	2	-0.395833	1.91916	-4.30655	8.8503
  45	1	1	0.202602	1.99942	-4.86411	7.92089
  46	1	2	0.320255	1.69976	-2.91955	8.81252
  47	1	4	-0.566353	0.613768	-4.56821	13.4842
  48	1	4	-0.565639	1.88316	-6.59133	12.5744
  49	1	1	0.171248	2.40443	-2.79158	14.5315
  50	1	2	-0.142243	3.14305	-3.55536	14.7635
  51	1	2	-0.199349	3.96392	-3.40298	15.8997
  52	1	1	0.156233	3.86873	-2.52328	16.5288
  53	1	2	0.310144	4.82422	-4.43713	16.2986
  54	1	5	-0.374171	5.42794	-4.38099	17.533
  55	1	1	0.18393	4.09294	-6.711	13.852
  56	1	2	-0.1794	4.09303	-5.76042	14.385
  57	1	2	-0.069637	3.17348	-4.75189	14.0144
  58	1	1	0.24118	6.20148	-3.73905	19.9044
  59	1	1	0.2544	8.433	-2.76556	20.5332
  60	1	2	-0.557237	6.9542	-3.54087	19.1459
  61	1	2	-0.032586	8.21098	-2.9972	19.4919
  62	1	2	0.370208	6.65971	-3.83649	17.8052
  63	1	2	0.127886	9.18542	-2.7628	18.4942
  64	1	7	-0.036788	10.4306	-2.26012	18.7788
  65	1	2	0.039962	7.62742	-3.59621	16.8088
  66	1	2	-0.445847	8.8871	-3.06271	17.1524
  67	1	1	0.122566	7.40483	-3.83276	15.774
  68	1	1	0.163876	9.62935	-2.88149	16.3795
  69	1	2	-0.180142	4.90771	-5.60528	15.5254
  70	1	1	0.144642	5.53792	-6.42334	15.8628
  71	1	1	0.203463	10.4925	0.321382	19.2117
  72	1	2	-0.404697	10.7569	-0.279258	20.0775
  73	1	2	-0.023572	11.1076	0.340369	21.2886
  74	1	1	0.153856	11.1241	1.42682	21.3628
  75	1	2	-0.109138	11.4479	-0.442786	22.4059
  76	1	3	0.998761	11.8788	0.380202	23.952
  77	1	2	-0.03943	11.4518	-1.84745	22.3029
  78	1	1	0.156851	11.7341	-2.45553	23.1628
  79	1	2	-0.395833	11.11	-2.45908	21.081
  80	1	1	0.202602	11.1324	-3.54138	20.9855
  81	1	2	0.320255	10.7643	-1.6758	19.968
  82	1	4	-0.566353	12.3243	-0.640037	24.9084
  83	1	4	-0.565639	12.7029	1.53598	23.5826
  84	1	1	0.171248	10.4465	2.90128	23.4332
  85	1	2	-0.142243	9.81687	2.29101	24.0795
  86	1	2	-0.199349	8.57755	2.78737	24.5329
  87	1	1	0.156233	8.25037	3.78324	24.2504
  88	1	2	0.310144	7.78135	2.01627	25.3974
  89	1	5	-0.374171	6.63098	2.52765	25.9461
  90	1	1	0.18393	9.84588	-0.691101	25.7547
  91	1	2	-0.1794	9.4794	0.266709	25.3883
  92	1	2	-0.069637	10.2732	1.02433	24.5038
  93	1	1	0.24118	6.01167	3.35883	23.4978
  94	1	1	0.2544	3.69255	3.40784	22.5403
  95	1	2	-0.557237	5.17623	2.96507	24.0654
  96	1	2	-0.032586	3.86676	2.998	23.5353
  97	1	2	0.370208	5.38927	2.46713	25.3619
  98	1	2	0.127886	2.76987	2.52535	24.293
  99	1	7	-0.036788	1.48354	2.57736	23.8168
 100	1	2	0.039962	4.29457	2.00809	26.1207
 101	1	2	-0.445847	2.98782	2.0281	25.5896
 102	1	1	0.122566	4.4667	1.64865	27.1307
 103	1	1	0.163876	2.14952	1.67687	26.1869
 104	1	2	-0.180142	8.24195	0.765149	25.8345
 105	1	1	0.144642	7.654	0.201702	26.5518
 106	1	1	0.203463	2.42374	0.773569	22.1127
 107	1	2	-0.404697	1.74489	1.50111	21.6733
 108	1	2	-0.023572	1.44723	1.45056	20.3
 109	1	1	0.153856	1.91282	0.693203	19.6701
 110	1	2	-0.109138	0.564207	2.3928	19.7373
 111	1	3	0.998761	0.211759	2.36377	17.968
 112	1	2	-0.03943	-0.0151436	3.38305	20.551
 113	1	1	0.156851	-0.685023	4.12349	20.1125
 114	1	2	-0.395833	0.289348	3.42587	21.9233
 115	1	1	0.202602	-0.148406	4.19574	22.5528
 116	1	2	0.320255	1.16947	2.49086	22.4879
 117	1	4	-0.566353	-0.279727	3.68504	17.5604
 118	1	4	-0.565639	1.37549	1.73026	17.3373
 119	1	1	0.171248	-2.62055	2.6605	17.2058
 120	1	2	-0.142243	-2.43738	1.60634	17.4076
 121	1	2	-0.199349	-3.46728	0.663913	17.2197
 122	1	1	0.156233	-4.44652	0.978855	16.8749
 123	1	2	0.310144	-3.22102	-0.700749	17.43
 124	1	5	-0.374171	-4.20609	-1.6194	17.1552
 125	1	1	0.18393	0.0718588	-0.523037	18.3397
 126	1	2	-0.1794	-0.920048	-0.185161	18.0485
 127	1	2	-0.069637	-1.15391	1.1832	17.8135
 128	1	1	0.24118	-2.55496	-1.86871	15.1063
 129	1	1	0.2544	-1.90634	-4.04438	14.02
 130	1	2	-0.557237	-3.01428	-2.79982	15.4263
 131	1	2	-0.032586	-2.66325	-4.01928	14.8066
 132	1	2	0.370208	-3.92865	-2.79377	16.4963
 133	1	2	0.127886	-3.25459	-5.22678	15.2326
 134	1	7	-0.036788	-2.88671	-6.42787	14.6875
 135	1	2	0.039962	-4.51659	-3.9991	16.9243
 136	1	2	-0.445847	-4.1764	-5.2175	16.2992
 137	1	1	0.122566	-5.20963	-3.98278	17.7614
 138	1	1	0.163876	-4.60957	-6.14935	16.6559
 139	1	2	-0.180142	-1.95188	-1.12015	17.8653
 140	1	1	0.144642	-1.75789	-2.17695	18.0192
 141	1	1	0.203463	-0.605936	-7.36697	13.8053
 142	1	2	-0.404697	-1.35406	-7.20626	13.0344
 143	1	2	-0.023572	-1.08492	-7.62272	11.7241
 144	1	1	0.153856	-0.138077	-8.11992	11.5136
 145	1	2	-0.109138	-2.05878	-7.49704	10.7158
 146	1	3	0.998761	-1.7356	-8.42827	9.19169
 147	1	2	-0.03943	-3.28994	-6.87811	11.0245
 148	1	1	0.156851	-4.06737	-6.7943	10.2667
 149	1	2	-0.395833	-3.54091	-6.44118	12.3476
 150	1	1	0.202602	-4.50498	-6.0192	12.6163
 151	1	2	0.320255	-2.58961	-6.64364	13.3654
 152	1	4	-0.566353	-0.275209	-8.46034	9.04924
 153	1	4	-0.565639	-2.48902	-9.67525	9.3487
 154	1	1	0.171248	-4.10425	-8.95358	7.52231
 155	1	2	-0.142243	-3.48738	-8.21901	7.00326
 156	1	2	-0.199349	-3.73914	-7.93289	5.64314
 157	1	1	0.156233	-4.56467	-8.43842	5.15655
 158	1	2	0.310144	-2.88875	-7.06115	4.92575
 159	1	5	-0.374171	-3.00526	-6.77979	3.56992
 160	1	1	0.18393	-0.623334	-6.41164	7.41822
 161	1	2	-0.1794	-1.5369	-6.77644	6.95053
 162	1	2	-0.069637	-2.368	-7.6639	7.66232
 163	1	1	0.24118	-2.04574	-7.65868	1.31681
 164	1	1	0.2544	-3.3381	-8.94779	-0.457596
 165	1	2	-0.557237	-3.10097	-7.88118	1.43968
 166	1	2	-0.032586	-3.82749	-8.58207	0.444192
 167	1	2	0.370208	-3.74255	-7.45406	2.6186
 168	1	2	0.127886	-5.19933	-8.85365	0.624815
 169	1	7	-0.036788	-5.8959	-9.69068	-0.211901
 170	1	2	0.039962	-5.13204	-7.63774	2.74341
 171	1	2	-0.445847	-5.85139	-8.36226	1.77162
 172	1	1	0.122566	-5.64588	-7.22722	3.60501
 173	1	1	0.163876	-6.91238	-8.54892	1.91711
 174	1	2	-0.180142	-1.81043	-6.46619	5.60409
 175	1	1	0.144642	-1.14323	-5.80555	5.05741
 176	1	1	0.203463	-6.67234	-11.7336	-1.56333
 177	1	2	-0.404697	-6.43158	-10.8781	-2.18752
 178	1	2	-0.023572	-6.72063	-10.9206	-3.56139
 179	1	1	0.153856	-7.19713	-11.8051	-3.98317
 180	1	2	-0.109138	-6.50832	-9.78261	-4.3607
 181	1	3	0.998761	-7.22479	-9.72653	-6.02355
 182	1	2	-0.03943	-5.9746	-8.61695	-3.77519
 183	1	1	0.156851	-5.88228	-7.71149	-4.37529
 184	1	2	-0.395833	-5.68245	-8.5853	-2.39383
 185	1	1	0.202602	-5.35732	-7.65557	-1.93998
 186	1	2	0.320255	-5.94474	-9.70934	-1.58634
 187	1	4	-0.566353	-8.25348	-10.7705	-6.04069
 188	1	4	-0.565639	-7.54331	-8.32017	-6.30532
 189	1	1	0.171248	-5.57463	-8.21671	-7.86867
 190	1	2	-0.142243	-5.3847	-9.26496	-8.07285
 191	1	2	-0.199349	-4.62889	-9.63473	-9.20017
 192	1	1	0.156233	-4.21599	-8.86682	-9.84734
 193	1	2	0.310144	-4.47309	-10.9918	-9.52998
 194	1	5	-0.374171	-3.88223	-11.3761	-10.7118
 195	1	1	0.18393	-6.2655	-12.371	-6.9581
 196	1	2	-0.1794	-5.77811	-11.6037	-7.55657
 197	1	2	-0.069637	-5.98302	-10.2405	-7.25212
 198	1	1	0.24118	-1.51858	-10.96	-9.72287
 199	1	1	0.2544	0.31676	-9.63728	-10.8385
 200	1	2	-0.557237	-1.67873	-10.4798	-10.684
 201	1	2	-0.032586	-0.658065	-9.74064	-11.3132
 202	1	2	0.370208	-2.90972	-10.6361	-11.3301
 203	1	2	0.127886	-0.860562	-9.14992	-12.5768
 204	1	7	-0.036788	0.242197	-8.59474	-13.1717
 205	1	2	0.039962	-3.1223	-10.0603	-12.5998
 206	1	2	-0.445847	-2.10107	-9.30979	-13.2308
 207	1	1	0.122566	-4.07707	-10.2189	-13.093
 208	1	1	0.163876	-2.25965	-8.90401	-14.2267
 209	1	2	-0.180142	-5.02898	-11.9723	-8.69311
 210	1	1	0.144642	-4.91735	-13.0179	-8.96328
 211	1	1	0.203463	2.18601	-8.44216	-14.8063
 212	1	2	-0.404697	1.53411	-7.5748	-14.8434
 213	1	2	-0.023572	1.89696	-6.46966	-15.6241
 214	1	1	0.153856	2.83055	-6.48182	-16.1873
 215	1	2	-0.109138	1.10413	-5.31191	-15.6245
 216	1	3	0.998761	1.80907	-3.88893	-16.4972
 217	1	2	-0.03943	-0.0827435	-5.28448	-14.8573
 218	1	1	0.156851	-0.697748	-4.38865	-14.8261
 219	1	2	-0.395833	-0.444388	-6.40864	-14.0761
 220	1	1	0.202602	-1.32543	-6.37417	-13.4418
 221	1	2	0.320255	0.378303	-7.55292	-14.0542
 222	1	4	-0.566353	2.80022	-3.37416	-15.5494
 223	1	4	-0.565639	2.25149	-4.35578	-17.8163
 224	1	1	0.171248	0.765603	-2.58511	-18.879
 225	1	2	-0.142243	0.294667	-2.10857	-18.0195
 226	1	2	-0.199349	-0.559528	-1.0083	-18.212
 227	1	1	0.156233	-0.775683	-0.650169	-19.2143
 228	1	2	0.310144	-1.12042	-0.355439	-17.1039
 229	1	5	-0.374171	-2.00971	0.67429	-17.282
 230	1	1	0.18393	0.370448	-2.15285	-14.5997
 231	1	2	-0.1794	0.0662217	-1.87105	-15.6071
 232	1	2	-0.069637	0.590047	-2.56493	-16.7172
 233	1	1	0.24118	-3.72828	2.57741	-17.5884
 234	1	1	0.2544	-6.13476	2.30585	-18.3188
 235	1	2	-0.557237	-4.1399	1.59649	-17.8122
 236	1	2	-0.032586	-5.4846	1.43797	-18.2174
 237	1	2	0.370208	-3.30611	0.474235	-17.6978
 238	1	2	0.127886	-6.00186	0.153909	-18.4882
 239	1	7	-0.036788	-7.31114	0.00221399	-18.8615
 240	1	2	0.039962	-3.82127	-0.807629	-17.9927
 241	1	2	-0.445847	-5.16141	-0.970288	-18.3853
 242	1	1	0.122566	-3.18746	-1.68425	-17.9232
 243	1	1	0.163876	-5.53471	-1.96524	-18.6178
 244	1	2	-0.180142	-0.794394	-0.775825	-15.8057
 245	1	1	0.144642	-1.1821	-0.226026	-14.9576
 246	1	1	0.203463	-7.93886	-0.460058	-16.3487
 247	1	2	-0.404697	-8.32768	-1.19851	-17.0441
 248	1	2	-0.023572	-9.10903	-2.27228	-16.5792
 249	1	1	0.153856	-9.34297	-2.36441	-15.5196
 250	1	2	-0.109138	-9.60789	-3.22123	-17.49
 251	1	3	0.998761	-10.6731	-4.55727	-16.907
 252	1	2	-0.03943	-9.31067	-3.10014	-18.8601
 253	1	1	0.156851	-9.69737	-3.83792	-19.5631
 254	1	2	-0.395833	-8.5458	-2.01179	-19.3195
 255	1	1	0.202602	-8.33906	-1.90341	-20.3807
 256	1	2	0.320255	-8.05789	-1.05543	-18.415
 257	1	4	-0.566353	-11.7706	-3.95355	-16.1429
 258	1	4	-0.565639	-10.9244	-5.43768	-18.0518
 259	1	1	0.171248	-8.10053	-5.91848	-17.2108
 260	1	2	-0.142243	-8.39931	-6.0095	-16.1678
 261	1	2	-0.199349	-7.5564	-6.66226	-15.2503
 262	1	1	0.156233	-6.59384	-7.06047	-15.5584
 263	1	2	0.310144	-7.9401	-6.77062	-13.908
 264	1	5	-0.374171	-7.032	-7.21661	-12.99
 265	1	1	0.18393	-10.9796	-5.21257	-14.056
 266	1	2	-0.1794	-10.0224	-5.61239	-14.3902
 267	1	2	-0.069637	-9.62309	-5.45566	-15.7347
 268	1	1	0.24118	-6.64659	-4.61115	-13.3373
 269	1	1	0.2544	-5.87656	-3.02437	-11.5644
 270	1	2	-0.557237	-6.41159	-4.97625	-12.3425
 271	1	2	-0.032586	-5.97455	-4.08558	-11.3427
 272	1	2	0.370208	-6.55509	-6.34502	-12.044
 273	1	2	0.127886	-5.63482	-4.56468	-10.0584
 274	1	7	-0.036788	-5.14435	-3.73863	-9.08001
 275	1	2	0.039962	-6.22774	-6.8191	-10.7634
 276	1	2	-0.445847	-5.76631	-5.93041	-9.77194
 277	1	1	0.122566	-6.34222	-7.87565	-10.5491
 278	1	1	0.163876	-5.5013	-6.28599	-8.78439
 279	1	2	-0.180142	-9.18293	-6.27746	-13.4805
 280	1	1	0.144642	-9.47292	-6.38221	-12.4381
 281	1	1	0.203463	-3.27975	-3.6336	-10.9907
 282	1	2	-0.404697	-3.40793	-2.71676	-10.419
 283	1	2	-0.023572	-2.65492	-1.58371	-10.7469
 284	1	1	0.153856	-1.98576	-1.60092	-11.6053
 285	1	2	-0.109138	-2.78613	-0.41512	-9.98209
 286	1	3	0.998761	-2.04701	1.09046	-10.6123
 287	1	2	-0.03943	-3.64244	-0.388648	-8.86619
 288	1	1	0.156851	-3.74602	0.520476	-8.27444
 289	1	2	-0.395833	-4.40847	-1.52535	-8.55608
 290	1	1	0.202602	-5.09459	-1.50903	-7.71413
 291	1	2	0.320255	-4.3137	-2.68327	-9.34282
 292	1	4	-0.566353	-0.842558	0.699593	-11.3523
 293	1	4	-0.565639	-2.06493	2.10173	-9.55031
 294	1	1	0.171248	-2.61188	0.0660964	-13.2914
 295	1	2	-0.142243	-3.43143	0.720245	-13.0117
 296	1	2	-0.199349	-4.59387	0.766113	-13.803
 297	1	1	0.156233	-4.66955	0.165236	-14.7053
 298	1	2	0.310144	-5.69502	1.52602	-13.3832
 299	1	5	-0.374171	-6.886	1.40226	-14.0658
 300	1	1	0.18393	-4.38703	2.82811	-10.4903
 301	1	2	-0.1794	-4.43001	2.27467	-11.4289
 302	1	2	-0.069637	-3.35741	1.44809	-11.806
 303	1	1	0.24118	-7.93552	3.75033	-14.2833
 304	1	1	0.2544	-9.81228	4.6319	-12.8882
 305	1	2	-0.557237	-8.46617	3.10247	-13.5915
 306	1	2	-0.032586	-9.51171	3.59016	-12.7844
 307	1	2	0.370208	-8.05308	1.77369	-13.4545
 308	1	2	0.127886	-10.138	2.75381	-11.8242
 309	1	7	-0.036788	-11.1149	3.22137	-10.9739
 310	1	2	0.039962	-8.69445	0.921568	-12.5337
 311	1	2	-0.445847	-9.73518	1.41002	-11.7159
 312	1	1	0.122566	-8.34737	-0.100541	-12.4265
 313	1	1	0.163876	-10.2135	0.757272	-10.9896
 314	1	2	-0.180142	-5.59032	2.3137	-12.2155
 315	1	1	0.144642	-6.4236	2.91815	-11.8726
 316	1	1	0.203463	-10.0484	5.36793	-9.86431
 317	1	2	-0.404697	-10.8603	5.56705	-10.5583
 318	1	2	-0.023572	-11.1363	6.88538	-10.9599
 319	1	1	0.153856	-10.5508	7.71569	-10.5668
 320	1	2	-0.109138	-12.1187	7.12038	-11.9374
 321	1	3	0.998761	-12.2886	8.75394	-12.6671
 322	1	2	-0.03943	-12.893	6.05599	-12.4325
 323	1	1	0.156851	-13.6656	6.24059	-13.1795
 324	1	2	-0.395833	-12.6197	4.74492	-12.0156
 325	1	1	0.202602	-13.1727	3.91505	-12.4484
 326	1	2	0.320255	-11.5841	4.49492	-11.106
 327	1	4	-0.566353	-13.0216	9.59389	-11.7157
 328	1	4	-0.565639	-12.7848	8.52037	-14.0275
 329	1	1	0.171248	-9.82609	7.71256	-13.9223
 330	1	2	-0.142243	-9.57057	8.65043	-13.4308
 331	1	2	-0.199349	-8.25227	9.1563	-13.4953
 332	1	1	0.156233	-7.49991	8.63639	-14.0803
 333	1	2	0.310144	-7.92648	10.374	-12.8656
 334	1	5	-0.374171	-6.68396	10.9552	-12.999
 335	1	1	0.18393	-11.0304	11.1727	-11.6465
 336	1	2	-0.1794	-10.2499	10.5991	-12.1466
 337	1	2	-0.069637	-10.5798	9.37477	-12.7588
 338	1	1	0.24118	-5.15777	12.6124	-11.7265
 339	1	1	0.2544	-2.90835	12.0919	-10.7063
 340	1	2	-0.557237	-4.77036	11.597	-11.7251
 341	1	2	-0.032586	-3.50758	11.2981	-11.1546
 342	1	2	0.370208	-5.53243	10.5869	-12.3358
 343	1	2	0.127886	-2.99931	9.9781	-11.1985
 344	1	7	-0.036788	-1.75373	9.62822	-10.7284
 345	1	2	0.039962	-5.02558	9.27267	-12.3698
 346	1	2	-0.445847	-3.76848	8.96964	-11.806
 347	1	1	0.122566	-5.58407	8.49442	-12.8711
 348	1	1	0.163876	-3.37447	7.95893	-11.8652
 349	1	2	-0.180142	-8.935	11.0971	-12.2095
 350	1	1	0.144642	-8.70187	12.0688	-11.7834
 351	1	1	0.203463	-2.25284	9.90242	-8.14462
 352	1	2	-0.404697	-1.36748	10.4296	-8.48784
 353	1	2	-0.023572	-0.624212	11.2232	-7.59178
 354	1	1	0.153856	-0.964837	11.3518	-6.56557
 355	1	2	-0.109138	0.501756	11.9336	-8.0503
 356	1	3	0.998761	1.18432	13.2953	-7.07497
 357	1	2	-0.03943	0.887006	11.8221	-9.40132
 358	1	1	0.156851	1.71698	12.4156	-9.78412
 359	1	2	-0.395833	0.139336	11.0283	-10.2876
 360	1	1	0.202602	0.420017	10.9804	-11.3361
 361	1	2	0.320255	-1.00557	10.3544	-9.84195
 362	1	4	-0.566353	2.20188	13.9865	-7.87442
 363	1	4	-0.565639	-0.00683621	14.043	-6.66204
 364	1	1	0.171248	1.09435	10.8369	-5.23979
 365	1	2	-0.142243	1.67866	11.6341	-4.78388
 366	1	2	-0.199349	2.12535	11.4889	-3.45355
 367	1	1	0.156233	1.87326	10.6056	-2.88372
 368	1	2	0.310144	2.81396	12.5273	-2.80793
 369	1	5	-0.374171	3.02438	12.4872	-1.45408
 370	1	1	0.18393	2.87614	14.7861	-5.35762
 371	1	2	-0.1794	2.68997	13.8494	-4.83401
 372	1	2	-0.069637	1.93875	12.8386	-5.47697
 373	1	1	0.24118	3.52789	13.5802	0.858746
 374	1	1	0.2544	1.8221	14.6111	2.41266
 375	1	2	-0.557237	2.47927	13.5857	0.602899
 376	1	2	-0.032586	1.52728	14.164	1.46632
 377	1	2	0.370208	2.0741	13.0146	-0.612539
 378	1	2	0.127886	0.166243	14.1676	1.11977
 379	1	7	-0.036788	-0.738298	14.7455	1.96685
 380	1	2	0.039962	0.703773	13.0138	-0.950493
 381	1	2	-0.445847	-0.248904	13.5781	-0.0894169
 382	1	1	0.122566	0.364313	12.5769	-1.88151
 383	1	1	0.163876	-1.29789	13.5541	-0.376383
 384	1	2	-0.180142	3.1117	13.7029	-3.50181
 385	1	1	0.144642	3.61349	14.513	-2.98018
 386	1	1	0.203463	-2.88019	15.9678	1.04157
 387	1	2	-0.404697	-3.06665	14.9911	1.47873
 388	1	2	-0.023572	-4.35194	14.4343	1.42616
 389	1	1	0.153856	-5.16603	14.9682	0.938442
 390	1	2	-0.109138	-4.57302	13.1501	1.94747
 391	1	3	0.998761	-6.18708	12.4052	1.75156
 392	1	2	-0.03943	-3.50414	12.3962	2.46313
 393	1	1	0.156851	-3.65918	11.365	2.77669
 394	1	2	-0.395833	-2.22678	12.9645	2.53244
 395	1	1	0.202602	-1.38941	12.3802	2.90355
 396	1	2	0.320255	-2.00784	14.259	2.03498
 397	1	4	-0.566353	-5.9599	11.2523	0.870926
 398	1	4	-0.565639	-7.19031	13.4041	1.37298
 399	1	1	0.171248	-8.5362	11.0576	2.32621
 400	1	2	-0.142243	-7.86879	10.8567	3.16067
 401	1	2	-0.199349	-8.04539	9.70794	3.93423
 402	1	1	0.156233	-8.84418	9.01768	3.68053
 403	1	2	0.310144	-7.06856	9.35378	4.87892
 404	1	5	-0.374171	-6.951	8.04055	5.24831
 405	1	1	0.18393	-4.95723	12.0051	4.54984
 406	1	2	-0.1794	-5.83428	11.3856	4.39037
 407	1	2	-0.069637	-6.69736	11.6124	3.29321
 408	1	1	0.24118	-5.56934	8.26159	2.97547
 409	1	1	0.2544	-5.76989	6.72407	1.02905
 410	1	2	-0.557237	-6.16772	7.35856	3.06335
 411	1	2	-0.032586	-6.28506	6.49008	1.96076
 412	1	2	0.370208	-6.89745	7.10042	4.24266
 413	1	2	0.127886	-7.0887	5.33429	2.04755
 414	1	7	-0.036788	-7.22855	4.49599	0.972691
 415	1	2	0.039962	-7.67747	5.93467	4.33788
 416	1	2	-0.445847	-7.77384	5.048	3.24421
 417	1	1	0.122566	-8.23639	5.74763	5.24986
 418	1	1	0.163876	-8.3875	4.15324	3.32435
 419	1	2	-0.180142	-6.0238	10.2386	5.18448
 420	1	1	0.144642	-5.28778	9.95165	5.93095
 421	1	1	0.203463	-6.72732	5.37121	-1.46999
 422	1	2	-0.404697	-6.00731	4.65189	-1.09101
 423	1	2	-0.023572	-4.92258	4.25794	-1.89187
 424	1	1	0.153856	-4.80175	4.65989	-2.8969
 425	1	2	-0.109138	-3.97668	3.34115	-1.40722
 426	1	3	0.998761	-2.58123	2.98864	-2.499
 427	1	2	-0.03943	-4.14558	2.77929	-0.12364
 428	1	1	0.156851	-3.44782	2.04393	0.267368
 429	1	2	-0.395833	-5.23639	3.18069	0.671775
 430	1	1	0.202602	-5.37738	2.76329	1.66639
 431	1	2	0.320255	-6.16368	4.12249	0.197843
 432	1	4	-0.566353	-3.09468	2.31011	-3.69184
 433	1	4	-0.565639	-1.90456	4.27924	-2.64021
 434	1	1	0.171248	-1.31049	0.480065	-3.30599
 435	1	2	-0.142243	-0.92143	0.759199	-2.32417
 436	1	2	-0.199349	0.0322359	-0.0468877	-1.68895
 437	1	1	0.156233	0.333253	-0.980504	-2.1558
 438	1	2	0.310144	0.476136	0.261736	-0.384688
 439	1	5	-0.374171	1.014	-0.731234	0.394146
 440	1	1	0.18393	-1.23637	3.17571	0.0635096
 441	1	2	-0.1794	-0.882527	2.26525	-0.406669
 442	1	2	-0.069637	-1.39205	1.91341	-1.67217
 443	1	1	0.24118	2.06511	-2.95147	-0.414005
 444	1	1	0.2544	0.694383	-4.76885	-1.50543
 445	1	2	-0.557237	0.986542	-2.97849	-0.318337
 446	1	2	-0.032586	0.212623	-3.97513	-0.946634
 447	1	2	0.370208	0.33349	-1.91706	0.317048
 448	1	2	0.127886	-1.19611	-3.88618	-0.958387
 449	1	7	-0.036788	-1.93636	-4.69605	-1.77231
 450	1	2	0.039962	-1.07732	-1.89945	0.419189
 451	1	2	-0.445847	-1.84698	-2.86991	-0.244331
 452	1	1	0.122566	-1.56813	-1.03007	0.847508
 453	1	1	0.163876	-2.92911	-2.77582	-0.292644
 454	1	2	-0.180142	0.0333509	1.42613	0.25069
 455	1	1	0.144642	0.337852	1.61498	1.27566
 456	1	1	0.203463	-2.15422	-6.8019	-3.29615
 457	1	2	-0.404697	-1.87272	-5.90075	-3.83113
 458	1	2	-0.023572	-1.62182	-5.95705	-5.21263
 459	1	1	0.153856	-1.71188	-6.89872	-5.75374
 460	1	2	-0.109138	-1.23024	-4.79908	-5.9024
 461	1	3	0.998761	-0.769545	-4.93142	-7.64299
 462	1	2	-0.03943	-1.14147	-3.57071	-5.21626
 463	1	1	0.156851	-0.867858	-2.66257	-5.75445
 464	1	2	-0.395833	-1.38627	-3.52389	-3.83106
 465	1	1	0.202602	-1.31139	-2.57573	-3.30324
 466	1	2	0.320255	-1.7421	-4.69463	-3.13032
 467	1	4	-0.566353	-1.94756	-4.58917	-8.44118
 468	1	4	-0.565639	-0.126893	-6.24327	-7.7884
 469	1	1	0.171248	-0.700984	-2.51726	-9.27407
 470	1	2	-0.142243	0.177231	-2.49722	-8.63642
 471	1	2	-0.199349	0.994753	-1.35293	-8.59081
 472	1	1	0.156233	0.766319	-0.485261	-9.20804
 473	1	2	0.310144	2.07469	-1.31152	-7.69613
 474	1	5	-0.374171	2.78453	-0.154997	-7.52892
 475	1	1	0.18393	1.78486	-4.41968	-6.30563
 476	1	2	-0.1794	1.57494	-3.5779	-6.96097
 477	1	2	-0.069637	0.450638	-3.60396	-7.80937
 478	1	1	0.24118	0.934285	1.00008	-6.08685
 479	1	1	0.2544	1.25833	1.87546	-3.74479
 480	1	2	-0.557237	1.89142	0.897742	-5.57996
 481	1	2	-0.032586	2.07453	1.37658	-4.26732
 482	1	2	0.370208	2.97552	0.328254	-6.26418
 483	1	2	0.127886	3.35041	1.33794	-3.66208
 484	1	7	-0.036788	3.60169	2.08176	-2.53512
 485	1	2	0.039962	4.22342	0.192536	-5.62659
 486	1	2	-0.445847	4.4123	0.698523	-4.3216
 487	1	1	0.122566	5.03504	-0.30059	-6.15629
 488	1	1	0.163876	5.38079	0.649088	-3.84213
 489	1	2	-0.180142	2.37546	-2.4287	-6.89868
 490	1	1	0.144642	3.21055	-2.39098	-6.20786
 491	1	1	0.203463	3.15423	3.67785	-4.66724
 492	1	2	-0.404697	2.99866	4.13281	-3.69111
 493	1	2	-0.023572	2.50898	5.44445	-3.65405
 494	1	1	0.153856	2.26385	5.9497	-4.58926
 495	1	2	-0.109138	2.36002	6.10169	-2.4217
 496	1	3	0.998761	1.81916	7.8263	-2.40624
 497	1	2	-0.03943	2.71569	5.43497	-1.23217
 498	1	1	0.156851	2.65652	5.95927	-0.280047
 499	1	2	-0.395833	3.14735	4.09257	-1.27693
 500	1	1	0.202602	3.40252	3.57167	-0.360426
 501	1	2	0.320255	3.27148	3.42043	-2.50459
 502	1	4	-0.566353	2.91929	8.56405	-1.78152
 503	1	4	-0.565639	1.32434	8.15913	-3.74867
 504	1	1	0.171248	-1.09848	7.64636	-2.71896
 505	1	2	-0.142243	-0.886475	7.78604	-1.65912
 506	1	2	-0.199349	-1.94044	7.75387	-0.72478
 507	1	1	0.156233	-2.95544	7.56649	-1.0589
 508	1	2	0.310144	-1.66794	7.86535	0.647862
 509	1	5	-0.374171	-2.63006	7.4993	1.56925
 510	1	1	0.18393	1.72765	8.33393	0.489137
 511	1	2	-0.1794	0.70611	8.16163	0.145166
 512	1	2	-0.069637	0.446641	7.9382	-1.22399
 513	1	1	0.24118	-1.55565	5.29068	0.724944
 514	1	1	0.2544	-0.30857	3.69117	2.18713
 515	1	2	-0.557237	-1.64058	5.34726	1.80656
 516	1	2	-0.032586	-0.948886	4.44791	2.63153
 517	1	2	0.370208	-2.33187	6.42746	2.3815
 518	1	2	0.127886	-0.996519	4.57756	4.03339
 519	1	7	-0.036788	-0.195849	3.78238	4.81183
 520	1	2	0.039962	-2.47921	6.50039	3.78246
 521	1	2	-0.445847	-1.82392	5.56167	4.61685
 522	1	1	0.122566	-3.04509	7.32308	4.21239
 523	1	1	0.163876	-1.89875	5.65148	5.70102
 524	1	2	-0.180142	-0.345888	8.09966	1.07554
 525	1	1	0.144642	-0.128017	8.1578	2.13736
 526	1	1	0.203463	0.112935	1.22234	4.36322
 527	1	2	-0.404697	0.980853	1.81687	4.09271
 528	1	2	-0.023572	2.16824	1.19524	3.65431
 529	1	1	0.153856	2.22191	0.107877	3.58558
 530	1	2	-0.109138	3.32899	1.96634	3.43479
 531	1	3	0.998761	4.94762	1.14543	3.34782
 532	1	2	-0.03943	3.26544	3.3661	3.56805
 533	1	1	0.156851	4.17098	3.95854	3.44459
 534	1	2	-0.395833	2.0671	3.97877	3.98541
 535	1	1	0.202602	2.03271	5.05056	4.16508
 536	1	2	0.320255	0.942987	3.20097	4.30905
 537	1	4	-0.566353	5.78676	1.84952	4.32559
 538	1	4	-0.565639	4.7149	-0.297814	3.45352
 539	1	1	0.171248	6.24457	3.54018	2.25366
 540	1	2	-0.142243	6.35257	2.74399	1.53117
 541	1	2	-0.199349	7.43059	2.87704	0.660273
 542	1	1	0.156233	7.72536	3.88475	0.282238
 543	1	2	0.310144	8.71279	1.42686	0.0498491
 544	1	5	-0.374171	8.32087	2.1255	-1.54348
 545	1	1	0.18393	5.44268	-0.502297	0.945134
 546	1	2	-0.1794	5.94409	0.447426	0.833928
 547	1	2	-0.069637	5.73203	1.49969	1.74197
 548	1	1	0.24118	9.52903	-0.188085	-1.46332
 549	1	1	0.2544	9.35818	-1.95831	-3.26073
 550	1	2	-0.557237	9.04347	0.0231588	-2.41368
 551	1	2	-0.032586	8.94586	-0.96103	-3.42152
 552	1	2	0.370208	8.43991	1.27656	-2.60584
 553	1	2	0.127886	8.27006	-0.669182	-4.62839
 554	1	7	-0.036788	8.04749	-1.61918	-5.58723
 555	1	2	0.039962	7.84022	1.59012	-3.83838
 556	1	2	-0.445847	7.75838	0.616461	-4.85112
 557	1	1	0.122566	7.36659	2.55721	-3.97634
 558	1	1	0.163876	7.24942	0.841292	-5.78242
 559	1	2	-0.180142	8.11872	-0.38788	0.74965
 560	1	1	0.144642	6.93739	-0.160946	-1.00286
 561	1	1	0.203463	6.30557	-2.15256	-3.596
 562	1	2	-0.404697	6.55174	-2.99205	-4.24098
 563	1	2	-0.023572	6.06704	-4.27302	-3.92019
 564	1	1	0.153856	5.5192	-4.43653	-2.99371
 565	1	2	-0.109138	6.38575	-5.37104	-4.73488
 566	1	3	0.998761	5.9984	-7.03989	-4.17882
 567	1	2	-0.03943	7.2337	-5.19231	-5.84387
 568	1	1	0.156851	7.56879	-6.05765	-6.4163
 569	1	2	-0.395833	7.74363	-3.91674	-6.1411
 570	1	1	0.202602	8.44234	-3.80126	-6.96625
 571	1	2	0.320255	7.43001	-2.81621	-5.33091
 572	1	4	-0.566353	6.51914	-7.08245	-2.80951
 573	1	4	-0.565639	6.49349	-8.00231	-5.16588
 574	1	1	0.171248	3.45825	-5.29348	-3.93963
 575	1	2	-0.142243	3.22445	-6.34451	-3.78946
 576	1	2	-0.199349	1.93692	-6.70764	-3.34205
 577	1	1	0.156233	1.17623	-5.95959	-3.16554
 578	1	2	0.310144	1.66664	-8.03547	-2.98242
 579	1	5	-0.374171	0.702779	-8.28035	-2.0382
 580	1	1	0.18393	4.59284	-9.47921	-3.94107
 581	1	2	-0.1794	3.84164	-8.70198	-3.79961
 582	1	2	-0.069637	4.21067	-7.34802	-3.95802
 583	1	1	0.24118	-0.955718	-9.10563	-0.25451
 584	1	1	0.2544	-0.421839	-9.72139	2.14595
 585	1	2	-0.557237	0.052231	-9.02737	0.131623
 586	1	2	-0.032586	0.359294	-9.38153	1.46807
 587	1	2	0.370208	1.06735	-8.60662	-0.740069
 588	1	2	0.127886	1.68529	-9.32511	1.94061
 589	1	7	-0.036788	1.96617	-9.65488	3.25206
 590	1	2	0.039962	2.40014	-8.5289	-0.257219
 591	1	2	-0.445847	2.70465	-8.89427	1.0656
 592	1	1	0.122566	3.21278	-8.19187	-0.898097
 593	1	1	0.163876	3.7357	-8.83767	1.41243
 594	1	2	-0.180142	2.57803	-9.04876	-3.29818
 595	1	1	0.144642	2.35781	-10.0762	-3.01706
 596	1	1	0.203463	2.14781	-7.07186	3.48624
 597	1	2	-0.404697	3.00465	-7.60619	3.88665
 598	1	2	-0.023572	4.20433	-6.9174	4.12554
 599	1	1	0.153856	4.26332	-5.85911	3.88077
 600	1	2	-0.109138	5.37419	-7.63203	4.44851
 601	1	3	0.998761	6.98329	-6.89676	4.06293
 602	1	2	-0.03943	5.30245	-9.02165	4.65415
 603	1	1	0.156851	6.22011	-9.5772	4.84288
 604	1	2	-0.395833	4.10544	-9.71141	4.37873
 605	1	1	0.202602	4.11488	-10.7975	4.36621
 606	1	2	0.320255	2.97747	-9.00826	3.9168
 607	1	4	-0.566353	6.70889	-5.56901	3.50156
 608	1	4	-0.565639	7.67934	-7.92271	3.28047
 609	1	1	0.171248	9.34737	-8.29693	5.03084
 610	1	2	-0.142243	9.1896	-7.43536	5.6759
 611	1	2	-0.199349	10.2004	-7.06267	6.57787
 612	1	1	0.156233	11.1122	-7.65042	6.64729
 613	1	2	0.310144	10.0573	-5.89487	7.34241
 614	1	5	-0.374171	11.1095	-5.47653	8.12703
 615	1	1	0.18393	6.96176	-4.89891	6.23108
 616	1	2	-0.1794	7.84681	-5.52288	6.35834
 617	1	2	-0.069637	8.02681	-6.64763	5.529
 618	1	1	0.24118	12.6958	-4.59639	6.21456
 619	1	1	0.2544	13.4372	-2.24642	5.91745
 620	1	2	-0.557237	12.4018	-3.83934	6.93384
 621	1	2	-0.032586	12.7985	-2.49653	6.76051
 622	1	2	0.370208	11.5983	-4.19519	8.02689
 623	1	2	0.127886	12.3398	-1.48652	7.64014
 624	1	7	-0.036788	12.5846	-0.141653	7.43949
 625	1	2	0.039962	11.2561	-3.22143	8.98315
 626	1	2	-0.445847	11.6125	-1.86692	8.78849
 627	1	1	0.122566	10.679	-3.5246	9.85069
 628	1	1	0.163876	11.298	-1.1114	9.50615
 629	1	2	-0.180142	8.85304	-5.16184	7.27738
 630	1	1	0.144642	8.70948	-4.28965	7.90842
 631	1	1	0.203463	11.9408	-0.693039	4.83339
 632	1	2	-0.404697	12.6731	0.0943467	4.98445
 633	1	2	-0.023572	13.2721	0.698904	3.85764
 634	1	1	0.153856	13.0506	0.339731	2.85041
 635	1	2	-0.109138	14.1887	1.75201	4.03229
 636	1	3	0.998761	15.1251	2.38746	2.61777
 637	1	2	-0.03943	14.4514	2.23203	5.33032
 638	1	1	0.156851	15.1404	3.06473	5.47696
 639	1	2	-0.395833	13.8822	1.59165	6.44781
 640	1	1	0.202602	14.1174	1.93604	7.45279
 641	1	2	0.320255	13.0324	0.48685	6.29353
 642	1	4	-0.566353	15.5564	1.25504	1.7942
 643	1	4	-0.565639	16.1194	3.34606	3.11002
 644	1	1	0.171248	15.2806	3.21797	-0.166958
 645	1	2	-0.142243	14.3581	3.62969	0.241128
 646	1	2	-0.199349	13.5814	4.51317	-0.530124
 647	1	1	0.156233	13.9105	4.80206	-1.52155
 648	1	2	0.310144	12.4062	5.05798	0.00572687
 649	1	5	-0.374171	11.7579	6.05688	-0.655144
 650	1	1	0.18393	12.4797	3.61928	3.1072
 651	1	2	-0.1794	12.7794	3.84338	2.08503
 652	1	2	-0.069637	13.9842	3.32482	1.56822
 653	1	1	0.24118	9.29689	6.6567	-0.338761