pySIMM System Object

982 atoms
1065 bonds
1736 angles
2574 dihedrals
336 impropers

7 atom types
7 bond types
11 angle types
4 dihedral types
1 improper types

-153.780339 153.780339 xlo xhi
-153.780339 153.780339 ylo yhi
-153.780339 153.780339 zlo zhi

Masses

   1	1.008	# ha
   2	12.01	# ca
   3	32.06	# sy
   4	16.0	# o
   5	16.0	# os
   6	1.008	# ho
   7	16.0	# oh

Pair Coeffs

   1	0.015	2.59964245953351	# ha
   2	0.086	3.3996695084235347	# ca
   3	0.25	3.563594872561357	# sy
   4	0.21	2.959921901149463	# o
   5	0.17	3.0000123434657784	# os
   6	0.0	0.0	# ho
   7	0.2104	3.0664733878390478	# oh

Bond Coeffs

   1	493.0	1.466	# o,sy
   2	345.8	1.086	# ca,ha
   3	384.0	1.3637	# ca,oh
   4	376.6	1.3696	# ca,os
   5	371.4	0.973	# ho,oh
   6	243.4	1.7909	# ca,sy
   7	461.1	1.3984	# ca,ca

Angle Coeffs

   1	48.18	119.88	# ca,ca,ha
   2	61.48	119.42	# ca,ca,sy
   3	72.54	121.41	# o,sy,o
   4	69.58	119.2	# ca,ca,os
   5	60.3	104.44	# ca,sy,ca
   6	49.0	108.58	# ca,oh,ho
   7	65.77	108.35	# ca,sy,o
   8	63.48	119.89	# ca,os,ca
   9	69.52	119.9	# ca,ca,oh
  10	66.62	120.02	# ca,ca,ca
  11	63.5	119.89	# ca,oh,ca

Dihedral Coeffs

   1	1	0.9	2	180	# X,ca,os,X
   2	1	0.9	2	180	# X,ca,oh,X
   3	1	3.625	2	180	# X,ca,ca,X
   4	1	1.3	2	180	# X,ca,sy,X

Improper Coeffs

   1	1.1	-1	2	# ca,X,X,ha

Atoms

   1	1	1	0.203463	-2.35837	-24.5302	-18.5153
   2	1	2	-0.404697	-1.61887	-24.7182	-17.7407
   3	1	2	-0.023572	-0.845597	-23.6582	-17.2368
   4	1	1	0.153856	-0.989804	-22.6514	-17.628
   5	1	2	-0.109138	0.11309	-23.9048	-16.2347
   6	1	3	0.998761	1.11608	-22.5581	-15.5761
   7	1	2	-0.03943	0.295079	-25.2133	-15.7478
   8	1	1	0.156851	1.03636	-25.4056	-14.9724
   9	1	2	-0.395833	-0.48337	-26.2667	-16.2611
  10	1	1	0.202602	-0.357319	-27.2775	-15.8849
  11	1	2	0.320255	-1.44277	-26.0212	-17.255
  12	1	4	-0.566353	2.36601	-23.1121	-15.0476
  13	1	4	-0.565639	1.113	-21.4698	-16.5598
  14	1	1	0.171248	1.58348	-22.5756	-12.6738
  15	1	2	-0.142243	0.649813	-22.0454	-12.8616
  16	1	2	-0.199349	-0.0538053	-21.4634	-11.7918
  17	1	1	0.156233	0.321718	-21.5422	-10.7762
  18	1	2	0.310144	-1.24044	-20.7542	-12.0334
  19	1	5	-0.374171	-1.89834	-20.14	-11.001
  20	1	1	0.18393	-1.42655	-21.1199	-15.4279
  21	1	2	-0.1794	-1.04452	-21.2239	-14.4126
  22	1	2	-0.069637	0.159678	-21.9213	-14.1786
  23	1	1	0.24118	0.295049	-18.7143	-11.6467
  24	1	1	0.2544	0.845898	-16.4669	-10.7244
  25	1	2	-0.557237	-0.372364	-18.251	-10.9277
  26	1	2	-0.032586	-0.0592525	-16.9792	-10.4065
  27	1	2	0.370208	-1.54385	-18.9073	-10.5047
  28	1	2	0.127886	-0.91163	-16.3512	-9.47456
  29	1	7	-0.036788	-0.617393	-15.1085	-8.97563
  30	1	2	0.039962	-2.38693	-18.2852	-9.5635
  31	1	2	-0.445847	-2.07621	-17.0101	-9.04578
  32	1	1	0.122566	-3.28841	-18.7993	-9.24376
  33	1	1	0.163876	-2.73633	-16.5383	-8.32175
  34	1	2	-0.180142	-1.74155	-20.6431	-13.3386
  35	1	1	0.144642	-2.66387	-20.0963	-13.5109
  36	1	1	0.203463	-1.41414	-14.4405	-11.4106
  37	1	2	-0.404697	-0.574378	-13.8632	-11.0408
  38	1	2	-0.023572	-0.0115499	-12.8581	-11.8448
  39	1	1	0.153856	-0.418875	-12.6656	-12.8353
  40	1	2	-0.109138	1.07071	-12.1053	-11.3569
  41	1	3	0.998761	1.81545	-10.7881	-12.3336
  42	1	2	-0.03943	1.56224	-12.3447	-10.0608
  43	1	1	0.156851	2.3866	-11.7423	-9.67844
  44	1	2	-0.395833	0.986053	-13.3484	-9.26239
  45	1	1	0.202602	1.36492	-13.5278	-8.2598
  46	1	2	0.320255	-0.0779541	-14.1177	-9.75217
  47	1	4	-0.566353	1.03733	-9.58467	-12.0248
  48	1	4	-0.565639	3.25455	-10.8407	-12.057
  49	1	1	0.171248	-0.242842	-9.94019	-14.2067
  50	1	2	-0.142243	0.433899	-10.5954	-14.7503
  51	1	2	-0.199349	0.275288	-10.7681	-16.1348
  52	1	1	0.156233	-0.530078	-10.2631	-16.6608
  53	1	2	0.310144	1.20447	-11.5193	-16.8668
  54	1	5	-0.374171	1.11069	-11.4736	-18.2344
  55	1	1	0.18393	3.32301	-12.372	-14.3124
  56	1	2	-0.1794	2.44762	-11.9614	-14.8147
  57	1	2	-0.069637	1.52512	-11.1835	-14.0818
  58	1	1	0.24118	1.31107	-14.1283	-17.7078
  59	1	1	0.2544	1.24893	-15.9164	-19.4616
  60	1	2	-0.557237	1.22435	-13.8603	-18.7526
  61	1	2	-0.032586	1.18636	-14.866	-19.7452
  62	1	2	0.370208	1.14914	-12.5079	-19.136
  63	1	2	0.127886	1.05932	-14.5252	-21.1122
  64	1	7	-0.036788	1.00607	-15.4726	-22.1024
  65	1	2	0.039962	1.05601	-12.1734	-20.4994
  66	1	2	-0.445847	1.01606	-13.1734	-21.4888
  67	1	1	0.122566	1.00138	-11.1261	-20.7812
  68	1	1	0.163876	0.936548	-12.8991	-22.538
  69	1	2	-0.180142	2.29275	-12.1184	-16.2075
  70	1	1	0.144642	3.04813	-12.6425	-16.7855
  71	1	1	0.203463	2.08581	-17.6065	-23.1398
  72	1	2	-0.404697	1.20091	-17.8081	-22.543
  73	1	2	-0.023572	0.74439	-19.1274	-22.3876
  74	1	1	0.153856	1.27758	-19.945	-22.8684
  75	1	2	-0.109138	-0.395731	-19.387	-21.6061
  76	1	3	0.998761	-0.964938	-21.0809	-21.3731
  77	1	2	-0.03943	-1.0974	-18.32	-21.0163
  78	1	1	0.156851	-1.9996	-18.5198	-20.4383
  79	1	2	-0.395833	-0.640719	-17.0007	-21.1885
  80	1	1	0.202602	-1.20125	-16.1758	-20.7556
  81	1	2	0.320255	0.521032	-16.7423	-21.9385
  82	1	4	-0.566353	-1.76684	-21.1063	-20.1423
  83	1	4	-0.565639	-1.51425	-21.5193	-22.6592
  84	1	1	0.171248	0.746404	-22.6664	-23.1636
  85	1	2	-0.142243	1.18844	-22.6927	-22.1682
  86	1	2	-0.199349	2.3726	-23.4172	-21.9428
  87	1	1	0.156233	2.85728	-23.9467	-22.7573
  88	1	2	0.310144	2.92863	-23.4835	-20.6572
  89	1	5	-0.374171	4.07613	-24.2173	-20.4796
  90	1	1	0.18393	0.675675	-21.5084	-19.0026
  91	1	2	-0.1794	1.14522	-22.0489	-19.8213
  92	1	2	-0.069637	0.564511	-22.0116	-21.1031
  93	1	1	0.24118	2.3734	-25.6028	-18.9836
  94	1	1	0.2544	2.9737	-26.7584	-16.8273
  95	1	2	-0.557237	3.39308	-25.5806	-18.6079
  96	1	2	-0.032586	3.73259	-26.2348	-17.4053
  97	1	2	0.370208	4.38518	-24.8829	-19.3207
  98	1	2	0.127886	5.05537	-26.1958	-16.9225
  99	1	7	-0.036788	5.35851	-26.7656	-15.717
 100	1	2	0.039962	5.71249	-24.8712	-18.8535
 101	1	2	-0.445847	6.05286	-25.5229	-17.6514
 102	1	1	0.122566	6.46804	-24.3356	-19.42
 103	1	1	0.163876	7.07377	-25.4871	-17.2789
 104	1	2	-0.180142	2.32266	-22.7833	-19.5976
 105	1	1	0.144642	2.76037	-22.8104	-18.6035
 106	1	1	0.203463	6.40501	-27.6722	-13.4934
 107	1	2	-0.404697	6.10556	-26.6298	-13.4468
 108	1	2	-0.023572	6.29749	-25.8978	-12.2603
 109	1	1	0.153856	6.74604	-26.3701	-11.387
 110	1	2	-0.109138	5.91162	-24.5477	-12.1936
 111	1	3	0.998761	6.18263	-23.6446	-10.655
 112	1	2	-0.03943	5.33025	-23.9352	-13.3198
 113	1	1	0.156851	5.01203	-22.8958	-13.2954
 114	1	2	-0.395833	5.15251	-24.671	-14.5013
 115	1	1	0.202602	4.70124	-24.1795	-15.3593
 116	1	2	0.320255	5.54099	-26.0211	-14.578
 117	1	4	-0.566353	5.302	-24.2592	-9.65628
 118	1	4	-0.565639	7.63549	-23.6372	-10.4579
 119	1	1	0.171248	3.70078	-22.2271	-10.0132
 120	1	2	-0.142243	4.34094	-21.5347	-10.5592
 121	1	2	-0.199349	3.89365	-20.232	-10.8483
 122	1	1	0.156233	2.90803	-19.9063	-10.5305
 123	1	2	0.310144	4.72438	-19.3446	-11.5539
 124	1	5	-0.374171	4.29794	-18.0791	-11.8685
 125	1	1	0.18393	7.46491	-21.3563	-11.9518
 126	1	2	-0.1794	6.46534	-21.0435	-11.6496
 127	1	2	-0.069637	5.62557	-21.9483	-10.9684
 128	1	1	0.24118	2.93898	-19.8123	-13.4188
 129	1	1	0.2544	0.939119	-19.2168	-14.7983
 130	1	2	-0.557237	2.55244	-18.7967	-13.4007
 131	1	2	-0.032586	1.42655	-18.4611	-14.1817
 132	1	2	0.370208	3.19305	-17.8024	-12.6371
 133	1	2	0.127886	0.914855	-17.1489	-14.1778
 134	1	7	-0.036788	-0.187858	-16.8761	-14.9429
 135	1	2	0.039962	2.71372	-16.4791	-12.676
 136	1	2	-0.445847	1.56775	-16.1479	-13.4289
 137	1	1	0.122566	3.23407	-15.7143	-12.1063
 138	1	1	0.163876	1.2085	-15.1215	-13.4411
 139	1	2	-0.180142	6.01178	-19.7443	-11.9398
 140	1	1	0.144642	6.65021	-19.0442	-12.4703
 141	1	1	0.203463	-2.06502	-16.9208	-13.0768
 142	1	2	-0.404697	-2.04392	-16.0139	-13.6751
 143	1	2	-0.023572	-3.01041	-15.0113	-13.4714
 144	1	1	0.153856	-3.78594	-15.1417	-12.7171
 145	1	2	-0.109138	-2.98422	-13.8408	-14.2516
 146	1	3	0.998761	-4.2347	-12.5662	-13.9996
 147	1	2	-0.03943	-2.00311	-13.6856	-15.2478
 148	1	1	0.156851	-1.99685	-12.7948	-15.8756
 149	1	2	-0.395833	-1.05669	-14.7024	-15.4585
 150	1	1	0.202602	-0.323475	-14.6006	-16.2484
 151	1	2	0.320255	-1.07014	-15.8657	-14.6753
 152	1	4	-0.566353	-4.12239	-11.6201	-15.1163
 153	1	4	-0.565639	-5.47995	-13.2628	-13.6623
 154	1	1	0.171248	-4.89052	-12.8891	-11.1471
 155	1	2	-0.142243	-4.13797	-12.1058	-11.23
 156	1	2	-0.199349	-3.68723	-11.4389	-10.0747
 157	1	1	0.156233	-4.10401	-11.7023	-9.10594
 158	1	2	0.310144	-2.73209	-10.4089	-10.1806
 159	1	5	-0.374171	-2.30376	-9.68835	-9.091
 160	1	1	0.18393	-2.38646	-10.3528	-13.5828
 161	1	2	-0.1794	-2.72396	-10.6778	-12.602
 162	1	2	-0.069637	-3.65294	-11.7313	-12.5001
 163	1	1	0.24118	-3.08836	-8.28239	-7.07572
 164	1	1	0.2544	-3.14695	-9.05526	-4.668
 165	1	2	-0.557237	-2.75538	-9.27684	-6.79835
 166	1	2	-0.032586	-2.77909	-9.70959	-5.45663
 167	1	2	0.370208	-2.29894	-10.1452	-7.79892
 168	1	2	0.127886	-2.3262	-10.9999	-5.11904
 169	1	7	-0.036788	-2.35062	-11.4154	-3.81715
 170	1	2	0.039962	-1.81998	-11.4271	-7.45977
 171	1	2	-0.445847	-1.83063	-11.8592	-6.11738
 172	1	1	0.122566	-1.44178	-12.0772	-8.24133
 173	1	1	0.163876	-1.46798	-12.8498	-5.85589
 174	1	2	-0.180142	-2.26329	-10.0262	-11.4448
 175	1	1	0.144642	-1.55026	-9.20885	-11.5186
 176	1	1	0.203463	-2.50652	-11.6213	-1.22509
 177	1	2	-0.404697	-3.4521	-11.7832	-1.73396
 178	1	2	-0.023572	-4.5977	-12.1156	-0.990605
 179	1	1	0.153856	-4.53398	-12.2138	0.0924848
 180	1	2	-0.109138	-5.81412	-12.3662	-1.65094
 181	1	3	0.998761	-7.2642	-12.8817	-0.711872
 182	1	2	-0.03943	-5.87744	-12.2817	-3.05298
 183	1	1	0.156851	-6.8105	-12.5043	-3.57007
 184	1	2	-0.395833	-4.72979	-11.9338	-3.78804
 185	1	1	0.202602	-4.78952	-11.8825	-4.87416
 186	1	2	0.320255	-3.50647	-11.6938	-3.13333
 187	1	4	-0.566353	-7.81717	-14.0657	-1.37723
 188	1	4	-0.565639	-6.87536	-12.8926	0.703862
 189	1	1	0.171248	-9.81145	-12.7064	-2.16309
 190	1	2	-0.142243	-9.64025	-11.7484	-1.67312
 191	1	2	-0.199349	-10.628	-10.7487	-1.73068
 192	1	1	0.156233	-11.5555	-10.921	-2.26815
 193	1	2	0.310144	-10.4418	-9.53773	-1.04828
 194	1	5	-0.374171	-11.4449	-8.60425	-1.02199
 195	1	1	0.18393	-7.35636	-10.1331	0.300692
 196	1	2	-0.1794	-8.25874	-10.2986	-0.284294
 197	1	2	-0.069637	-8.45845	-11.5357	-0.932241
 198	1	1	0.24118	-11.6692	-10.2238	1.12586
 199	1	1	0.2544	-13.6258	-10.2936	2.65486
 200	1	2	-0.557237	-12.5144	-9.56699	0.938295
 201	1	2	-0.032586	-13.622	-9.60128	1.81287
 202	1	2	0.370208	-12.5113	-8.6784	-0.153154
 203	1	2	0.127886	-14.7275	-8.74592	1.61292
 204	1	7	-0.036788	-15.8228	-8.77348	2.44342
 205	1	2	0.039962	-13.6193	-7.83376	-0.358817
 206	1	2	-0.445847	-14.7285	-7.86743	0.513593
 207	1	1	0.122566	-13.6105	-7.15266	-1.20396
 208	1	1	0.163876	-15.5779	-7.21194	0.341305
 209	1	2	-0.180142	-9.25157	-9.3033	-0.343441
 210	1	1	0.144642	-9.1291	-8.36753	0.191399
 211	1	1	0.203463	-14.0811	-7.87156	4.24586
 212	1	2	-0.404697	-14.8052	-8.58806	4.6275
 213	1	2	-0.023572	-14.7396	-8.98491	5.97434
 214	1	1	0.153856	-13.9673	-8.57489	6.62394
 215	1	2	-0.109138	-15.6505	-9.93081	6.47553
 216	1	3	0.998761	-15.5062	-10.4781	8.19046
 217	1	2	-0.03943	-16.6376	-10.4617	5.62311
 218	1	1	0.156851	-17.346	-11.1972	5.99748
 219	1	2	-0.395833	-16.7011	-10.0502	4.27826
 220	1	1	0.202602	-17.4576	-10.463	3.61776
 221	1	2	0.320255	-15.7738	-9.12809	3.76786
 222	1	4	-0.566353	-14.9568	-11.8383	8.15215
 223	1	4	-0.565639	-14.8246	-9.41579	8.93871
 224	1	1	0.171248	-17.367	-12.7406	8.30714
 225	1	2	-0.142243	-17.8816	-11.8703	8.71341
 226	1	2	-0.199349	-19.2059	-11.9886	9.17258
 227	1	1	0.156233	-19.726	-12.94	9.11441
 228	1	2	0.310144	-19.8688	-10.8743	9.70666
 229	1	5	-0.374171	-21.1701	-11.0028	10.1176
 230	1	1	0.18393	-17.3734	-8.55079	9.37746
 231	1	2	-0.1794	-17.8874	-9.50991	9.31636
 232	1	2	-0.069637	-17.2151	-10.6288	8.78218
 233	1	1	0.24118	-22.8993	-12.7774	10.8333
 234	1	1	0.2544	-23.6339	-13.2614	13.2051
 235	1	2	-0.557237	-22.4823	-12.2279	11.6722
 236	1	2	-0.032586	-22.8933	-12.491	12.9966
 237	1	2	0.370208	-21.5183	-11.2397	11.4239
 238	1	2	0.127886	-22.3427	-11.7649	14.0702
 239	1	7	-0.036788	-22.7394	-12.0446	15.3505
 240	1	2	0.039962	-20.9738	-10.5044	12.4985
 241	1	2	-0.445847	-21.3861	-10.7623	13.8217
 242	1	1	0.122566	-20.242	-9.7275	12.3081
 243	1	1	0.163876	-20.9658	-10.1901	14.6456
 244	1	2	-0.180142	-19.2161	-9.632	9.76587
 245	1	1	0.144642	-19.7435	-8.76638	10.1545
 246	1	1	0.203463	-23.301	-12.0929	17.903
 247	1	2	-0.404697	-22.3161	-12.4826	17.6635
 248	1	2	-0.023572	-21.4884	-12.9741	18.6897
 249	1	1	0.153856	-21.8331	-12.971	19.7228
 250	1	2	-0.109138	-20.2146	-13.4813	18.3794
 251	1	3	0.998761	-19.1592	-14.132	19.6869
 252	1	2	-0.03943	-19.7807	-13.5093	17.0421
 253	1	1	0.156851	-18.8047	-13.9237	16.7924
 254	1	2	-0.395833	-20.617	-13.0243	16.0231
 255	1	1	0.202602	-20.2739	-13.0647	14.9932
 256	1	2	0.320255	-21.887	-12.4984	16.3266
 257	1	4	-0.566353	-19.9497	-15.1008	20.4534
 258	1	4	-0.565639	-17.8762	-14.4869	19.0685
 259	1	1	0.171248	-17.611	-11.684	19.3452
 260	1	2	-0.142243	-18.0445	-11.6545	20.3428
 261	1	2	-0.199349	-17.7678	-10.5755	21.2025
 262	1	1	0.156233	-17.1347	-9.76037	20.8624
 263	1	2	0.310144	-18.3123	-10.5483	22.5001
 264	1	5	-0.374171	-18.0309	-9.53145	23.3797
 265	1	1	0.18393	-20.0638	-13.487	22.4133
 266	1	2	-0.1794	-19.434	-12.6679	22.067
 267	1	2	-0.069637	-18.8713	-12.7107	20.774
 268	1	1	0.24118	-17.6807	-7.1657	22.3512
 269	1	1	0.2544	-15.4628	-5.9913	22.1254
 270	1	2	-0.557237	-16.7744	-7.60341	22.7596
 271	1	2	-0.032586	-15.5307	-6.94964	22.6386
 272	1	2	0.370208	-16.8332	-8.87037	23.3505
 273	1	2	0.127886	-14.3567	-7.54279	23.1437
 274	1	7	-0.036788	-13.1632	-6.89083	22.97
 275	1	2	0.039962	-15.6636	-9.47513	23.8495
 276	1	2	-0.445847	-14.4212	-8.81411	23.7533
 277	1	1	0.122566	-15.7281	-10.4625	24.2962
 278	1	1	0.163876	-13.5233	-9.29597	24.1278
 279	1	2	-0.180142	-19.1551	-11.5867	22.9225
 280	1	1	0.144642	-19.5729	-11.5572	23.9242
 281	1	1	0.203463	-10.6375	-6.65059	22.3718
 282	1	2	-0.404697	-10.8296	-6.70571	23.4396
 283	1	2	-0.023572	-9.76163	-6.61086	24.3508
 284	1	1	0.153856	-8.74302	-6.48047	23.9862
 285	1	2	-0.109138	-10.0144	-6.63334	25.735
 286	1	3	0.998761	-8.66722	-6.3665	26.9089
 287	1	2	-0.03943	-11.3365	-6.75753	26.1978
 288	1	1	0.156851	-11.539	-6.7288	27.2676
 289	1	2	-0.395833	-12.3963	-6.87006	25.2787
 290	1	1	0.202602	-13.4184	-6.93736	25.6424
 291	1	2	0.320255	-12.1509	-6.83753	23.8937
 292	1	4	-0.566353	-9.1619	-5.39805	27.8934
 293	1	4	-0.565639	-7.44903	-6.13852	26.1235
 294	1	1	0.171248	-9.62417	-7.30677	29.5199
 295	1	2	-0.142243	-9.05011	-8.11527	29.0695
 296	1	2	-0.199349	-8.85461	-9.31436	29.7795
 297	1	1	0.156233	-9.30017	-9.44021	30.7615
 298	1	2	0.310144	-8.08092	-10.3471	29.2206
 299	1	5	-0.374171	-7.87709	-11.5314	29.8877
 300	1	1	0.18393	-7.25496	-8.85513	26.2513
 301	1	2	-0.1794	-7.7111	-8.98454	27.2318
 302	1	2	-0.069637	-8.48058	-7.94309	27.7899
 303	1	1	0.24118	-9.41904	-12.9911	31.3716
 304	1	1	0.2544	-9.28545	-13.1959	33.878
 305	1	2	-0.557237	-8.67508	-12.4394	31.9379
 306	1	2	-0.032586	-8.59387	-12.5463	33.3429
 307	1	2	0.370208	-7.77774	-11.6096	31.2523
 308	1	2	0.127886	-7.61238	-11.8248	34.062
 309	1	7	-0.036788	-7.49572	-11.9223	35.4262
 310	1	2	0.039962	-6.79259	-10.8941	31.962
 311	1	2	-0.445847	-6.70793	-11.0014	33.366
 312	1	1	0.122566	-6.09374	-10.2652	31.4181
 313	1	1	0.163876	-5.94176	-10.4527	33.9088
 314	1	2	-0.180142	-7.51501	-10.18	27.9483
 315	1	1	0.144642	-6.92545	-10.9853	27.5214
 316	1	1	0.203463	-9.69346	-10.5939	36.0391
 317	1	2	-0.404697	-9.64022	-11.5942	36.4605
 318	1	2	-0.023572	-10.6875	-12.0764	37.2652
 319	1	1	0.153856	-11.5522	-11.4484	37.4738
 320	1	2	-0.109138	-10.612	-13.3683	37.8157
 321	1	3	0.998761	-11.9493	-13.9705	38.8656
 322	1	2	-0.03943	-9.47905	-14.1675	37.573
 323	1	1	0.156851	-9.40759	-15.1604	38.017
 324	1	2	-0.395833	-8.43014	-13.6718	36.7772
 325	1	1	0.202602	-7.54753	-14.2806	36.6008
 326	1	2	0.320255	-8.50494	-12.3846	36.2246
 327	1	4	-0.566353	-12.2678	-12.8774	39.7893
 328	1	4	-0.565639	-11.5862	-15.3165	39.3237
 329	1	1	0.171248	-12.9282	-16.1613	37.1963
 330	1	2	-0.142243	-13.5847	-15.3076	37.0331
 331	1	2	-0.199349	-14.6719	-15.414	36.148
 332	1	1	0.156233	-14.8513	-16.3468	35.6224
 333	1	2	0.310144	-15.5313	-14.3181	35.9459
 334	1	5	-0.374171	-16.5853	-14.394	35.0679
 335	1	1	0.18393	-14.0771	-12.0921	38.0982
 336	1	2	-0.1794	-14.2301	-13.014	37.5385
 337	1	2	-0.069637	-13.3521	-14.103	37.7256
 338	1	1	0.24118	-14.6369	-14.1779	33.3207
 339	1	1	0.2544	-14.4117	-15.5397	31.2262
 340	1	2	-0.557237	-15.3892	-14.9154	33.0563
 341	1	2	-0.032586	-15.268	-15.6869	31.8831
 342	1	2	0.370208	-16.4987	-15.1002	33.8971
 343	1	2	0.127886	-16.2455	-16.6557	31.5577
 344	1	7	-0.036788	-16.1447	-17.4385	30.4347
 345	1	2	0.039962	-17.4967	-16.0306	33.555
 346	1	2	-0.445847	-17.3702	-16.813	32.3884
 347	1	1	0.122566	-18.3529	-16.1551	34.2113
 348	1	1	0.163876	-18.1366	-17.5421	32.1369
 349	1	2	-0.180142	-15.3161	-13.1252	36.6509
 350	1	1	0.144642	-15.9962	-12.291	36.5054
 351	1	1	0.203463	-15.8152	-16.9778	27.8784
 352	1	2	-0.404697	-14.9202	-17.3296	28.3838
 353	1	2	-0.023572	-13.7223	-17.4875	27.6661
 354	1	1	0.153856	-13.6885	-17.2632	26.6008
 355	1	2	-0.109138	-12.5649	-17.9393	28.3248
 356	1	3	0.998761	-11.0242	-18.1028	27.4061
 357	1	2	-0.03943	-12.6151	-18.2554	29.6945
 358	1	1	0.156851	-11.724	-18.6284	30.1996
 359	1	2	-0.395833	-13.8204	-18.1018	30.4027
 360	1	1	0.202602	-13.8649	-18.3622	31.457
 361	1	2	0.320255	-14.9749	-17.6329	29.7509
 362	1	4	-0.566353	-10.046	-18.7713	28.2715
 363	1	4	-0.565639	-11.3826	-18.594	26.0713
 364	1	1	0.171248	-9.26009	-16.3436	28.966
 365	1	2	-0.142243	-9.65538	-15.763	28.1337
 366	1	2	-0.199349	-9.28363	-14.4144	27.9746
 367	1	1	0.156233	-8.60641	-13.94	28.6795
 368	1	2	0.310144	-9.771	-13.6722	26.8893
 369	1	5	-0.374171	-9.37824	-12.3645	26.751
 370	1	1	0.18393	-11.6768	-16.0896	25.3898
 371	1	2	-0.1794	-11.0179	-15.6205	26.1194
 372	1	2	-0.069637	-10.5247	-16.3723	27.2049
 373	1	1	0.24118	-10.8679	-10.3352	26.1127
 374	1	1	0.2544	-10.9831	-9.27983	23.8314
 375	1	2	-0.557237	-10.24	-10.6875	25.299
 376	1	2	-0.032586	-10.2989	-10.1017	24.0186
 377	1	2	0.370208	-9.3564	-11.7483	25.5302
 378	1	2	0.127886	-9.4839	-10.5815	22.9693
 379	1	7	-0.036788	-9.52323	-10.0342	21.7121
 380	1	2	0.039962	-8.51751	-12.2122	24.4983
 381	1	2	-0.445847	-8.57723	-11.6276	23.2175
 382	1	1	0.122566	-7.83759	-13.0362	24.6938
 383	1	1	0.163876	-7.93313	-11.9933	22.4214
 384	1	2	-0.180142	-10.6477	-14.2743	25.9668
 385	1	1	0.144642	-11.0403	-13.7036	25.1304
 386	1	1	0.203463	-12.0462	-10.9327	21.9753
 387	1	2	-0.404697	-11.9233	-10.0758	21.3189
 388	1	2	-0.023572	-13.0475	-9.53905	20.6666
 389	1	1	0.153856	-14.0365	-9.96118	20.842
 390	1	2	-0.109138	-12.8948	-8.45777	19.7812
 391	1	3	0.998761	-14.3228	-7.80996	18.8949
 392	1	2	-0.03943	-11.6181	-7.91448	19.5536
 393	1	1	0.156851	-11.4964	-7.08193	18.861
 394	1	2	-0.395833	-10.5005	-8.45476	20.2133
 395	1	1	0.202602	-9.51112	-8.04533	20.0278
 396	1	2	0.320255	-10.644	-9.53022	21.1028
 397	1	4	-0.566353	-13.9777	-6.46643	18.4176
 398	1	4	-0.565639	-15.5016	-8.07149	19.7267
 399	1	1	0.171248	-15.5447	-10.4351	18.5465
 400	1	2	-0.142243	-15.0739	-10.1674	17.6032
 401	1	2	-0.199349	-15.1294	-11.0549	16.5143
 402	1	1	0.156233	-15.6384	-12.0099	16.6068
 403	1	2	0.310144	-14.5243	-10.7169	15.2955
 404	1	5	-0.374171	-14.612	-11.6082	14.2548
 405	1	1	0.18393	-13.3317	-7.61477	16.1302
 406	1	2	-0.1794	-13.8226	-8.58092	16.2426
 407	1	2	-0.069637	-14.4151	-8.92819	17.4744
 408	1	1	0.24118	-15.0961	-12.0592	11.7569
 409	1	1	0.2544	-13.3727	-12.4222	9.95672
 410	1	2	-0.557237	-14.0363	-12.0397	11.9928
 411	1	2	-0.032586	-13.0671	-12.2411	10.9878
 412	1	2	0.370208	-13.6326	-11.7962	13.3114
 413	1	2	0.127886	-11.6925	-12.2097	11.3062
 414	1	7	-0.036788	-10.7435	-12.4109	10.3389
 415	1	2	0.039962	-12.2589	-11.7844	13.6365
 416	1	2	-0.445847	-11.2865	-11.9896	12.6356
 417	1	1	0.122566	-11.9515	-11.6188	14.6643
 418	1	1	0.163876	-10.2294	-11.9756	12.888
 419	1	2	-0.180142	-13.8823	-9.47231	15.155
 420	1	1	0.144642	-13.4445	-9.19286	14.2009
 421	1	1	0.203463	-11.3032	-9.85611	9.87457
 422	1	2	-0.404697	-11.1164	-10.4499	8.98361
 423	1	2	-0.023572	-11.1981	-9.84921	7.71629
 424	1	1	0.153856	-11.4475	-8.79262	7.63269
 425	1	2	-0.109138	-10.9779	-10.6195	6.55983
 426	1	3	0.998761	-11.1144	-9.86572	4.92884
 427	1	2	-0.03943	-10.679	-11.9889	6.67857
 428	1	1	0.156851	-10.5296	-12.5913	5.78348
 429	1	2	-0.395833	-10.5882	-12.5791	7.9522
 430	1	1	0.202602	-10.3623	-13.6371	8.04633
 431	1	2	0.320255	-10.8144	-11.816	9.10757
 432	1	4	-0.566353	-11.6949	-10.8713	4.03161
 433	1	4	-0.565639	-11.7068	-8.53531	5.11007
 434	1	1	0.171248	-9.28893	-11.4389	3.23447
 435	1	2	-0.142243	-8.75462	-10.5534	3.57777
 436	1	2	-0.199349	-7.42393	-10.3406	3.17532
 437	1	1	0.156233	-6.92296	-11.0648	2.5398
 438	1	2	0.310144	-6.73845	-9.19041	3.59412
 439	1	5	-0.374171	-5.45376	-8.96334	3.1788
 440	1	1	0.18393	-9.19441	-7.73602	5.47472
 441	1	2	-0.1794	-8.69824	-8.4672	4.83815
 442	1	2	-0.069637	-9.39647	-9.61753	4.41586
 443	1	1	0.24118	-7.13979	-7.57905	1.60477
 444	1	1	0.2544	-6.49748	-6.52974	-0.583351
 445	1	2	-0.557237	-6.11522	-7.64184	1.24933
 446	1	2	-0.032586	-5.75153	-7.04065	0.0260477
 447	1	2	0.370208	-5.14121	-8.32475	2.00432
 448	1	2	0.127886	-4.42633	-7.13556	-0.449032
 449	1	7	-0.036788	-4.10172	-6.68225	-1.69786
 450	1	2	0.039962	-3.8107	-8.37457	1.54771
 451	1	2	-0.445847	-3.44739	-7.7844	0.3209
 452	1	1	0.122566	-3.06943	-8.89825	2.14338
 453	1	1	0.163876	-2.42488	-7.8572	-0.0406011
 454	1	2	-0.180142	-7.37052	-8.25707	4.42738
 455	1	1	0.144642	-6.82797	-7.37162	4.7441
 456	1	1	0.203463	-5.53283	-8.96594	-1.89287
 457	1	2	-0.404697	-5.42584	-8.39223	-2.80964
 458	1	2	-0.023572	-6.05041	-8.86683	-3.97229
 459	1	1	0.153856	-6.65339	-9.77277	-3.94283
 460	1	2	-0.109138	-5.9004	-8.17812	-5.18361
 461	1	3	0.998761	-6.7248	-8.85379	-6.63853
 462	1	2	-0.03943	-5.12634	-7.00003	-5.22428
 463	1	1	0.156851	-4.98827	-6.45134	-6.15323
 464	1	2	-0.395833	-4.52515	-6.51684	-4.04812
 465	1	1	0.202602	-3.94211	-5.59935	-4.07543
 466	1	2	0.320255	-4.68096	-7.1971	-2.83099
 467	1	4	-0.566353	-8.15554	-8.74206	-6.34234
 468	1	4	-0.565639	-6.12591	-10.1701	-6.89069
 469	1	1	0.171248	-7.73669	-6.21176	-7.31614
 470	1	2	-0.142243	-6.96021	-6.45844	-8.04
 471	1	2	-0.199349	-6.59074	-5.52755	-9.02448
 472	1	1	0.156233	-7.08133	-4.55928	-9.06701
 473	1	2	0.310144	-5.5914	-5.84485	-9.9621
 474	1	5	-0.374171	-5.27882	-4.95394	-10.9596
 475	1	1	0.18393	-4.84395	-9.00611	-8.88822
 476	1	2	-0.1794	-5.32492	-8.03093	-8.9253
 477	1	2	-0.069637	-6.31882	-7.71038	-7.97968
 478	1	1	0.24118	-5.58743	-2.37046	-11.2109
 479	1	1	0.2544	-7.60454	-1.24468	-12.2437
 480	1	2	-0.557237	-6.38104	-2.95136	-11.6736
 481	1	2	-0.032586	-7.51445	-2.33019	-12.2497
 482	1	2	0.370208	-6.29437	-4.35215	-11.6544
 483	1	2	0.127886	-8.55424	-3.1178	-12.7995
 484	1	7	-0.036788	-9.71965	-2.59472	-13.2954
 485	1	2	0.039962	-7.31161	-5.13264	-12.2351
 486	1	2	-0.445847	-8.43963	-4.51751	-12.8049
 487	1	1	0.122566	-7.23829	-6.2159	-12.2055
 488	1	1	0.163876	-9.23618	-5.12818	-13.2218
 489	1	2	-0.180142	-4.95947	-7.09716	-9.91314
 490	1	1	0.144642	-4.19839	-7.34494	-10.6482
 491	1	1	0.203463	-8.88965	-1.07636	-15.2801
 492	1	2	-0.404697	-9.53096	-0.571201	-14.563
 493	1	2	-0.023572	-9.9321	0.755624	-14.7889
 494	1	1	0.153856	-9.58096	1.28511	-15.6729
 495	1	2	-0.109138	-10.7894	1.39881	-13.876
 496	1	3	0.998761	-11.2153	3.13024	-14.1401
 497	1	2	-0.03943	-11.2451	0.70989	-12.738
 498	1	1	0.156851	-11.9116	1.20654	-12.0327
 499	1	2	-0.395833	-10.8563	-0.626579	-12.5319
 500	1	1	0.202602	-11.2397	-1.17744	-11.6775
 501	1	2	0.320255	-10.0048	-1.26894	-13.4439
 502	1	4	-0.566353	-11.9583	3.22757	-15.4005
 503	1	4	-0.565639	-11.7362	3.65122	-12.8718
 504	1	1	0.171248	-8.95909	3.50948	-12.3701
 505	1	2	-0.142243	-8.62374	3.75162	-13.3779
 506	1	2	-0.199349	-7.26089	3.97304	-13.6356
 507	1	1	0.156233	-6.54846	3.92273	-12.8186
 508	1	2	0.310144	-6.82263	4.22077	-14.9504
 509	1	5	-0.374171	-5.49074	4.34506	-15.2595
 510	1	1	0.18393	-9.83831	4.07768	-16.5642
 511	1	2	-0.1794	-9.12137	4.07223	-15.7427
 512	1	2	-0.069637	-9.55234	3.76846	-14.4352
 513	1	1	0.24118	-4.30773	5.68658	-13.3781
 514	1	1	0.2544	-2.46571	4.80227	-11.8853
 515	1	2	-0.557237	-3.94628	4.66654	-13.4743
 516	1	2	-0.032586	-2.91921	4.16869	-12.646
 517	1	2	0.370208	-4.49968	3.84065	-14.462
 518	1	2	0.127886	-2.45093	2.84905	-12.8072
 519	1	7	-0.036788	-1.41919	2.38913	-12.0344
 520	1	2	0.039962	-4.04378	2.51691	-14.6199
 521	1	2	-0.445847	-3.01539	2.01684	-13.7928
 522	1	1	0.122566	-4.48464	1.88993	-15.3895
 523	1	1	0.163876	-2.65247	0.999981	-13.925
 524	1	2	-0.180142	-7.75736	4.30241	-15.9936
 525	1	1	0.144642	-7.41187	4.50058	-17.0038
 526	1	1	0.203463	-3.64421	1.9325	-10.6106
 527	1	2	-0.404697	-2.72495	1.97248	-10.0333
 528	1	2	-0.023572	-2.7605	1.68729	-8.65716
 529	1	1	0.153856	-3.70525	1.42866	-8.17957
 530	1	2	-0.109138	-1.57063	1.65586	-7.90658
 531	1	3	0.998761	-1.64839	1.01729	-6.21713
 532	1	2	-0.03943	-0.346394	1.94681	-8.5365
 533	1	1	0.156851	0.583098	1.90196	-7.97468
 534	1	2	-0.395833	-0.319586	2.23391	-9.9149
 535	1	1	0.202602	0.628904	2.41755	-10.4113
 536	1	2	0.320255	-1.50009	2.22297	-10.6752
 537	1	4	-0.566353	-2.99984	1.28426	-5.71142
 538	1	4	-0.565639	-1.15694	-0.357943	-6.34078
 539	1	1	0.171248	1.26344	0.731193	-5.90907
 540	1	2	-0.142243	0.928233	1.48187	-5.19487
 541	1	2	-0.199349	1.83631	2.01407	-4.25912
 542	1	1	0.156233	2.87858	1.70973	-4.26691
 543	1	2	0.310144	1.38666	2.90316	-3.27099
 544	1	5	-0.374171	2.25333	3.35968	-2.31235
 545	1	1	0.18393	-1.92305	3.04182	-4.11839
 546	1	2	-0.1794	-0.867925	2.77625	-4.18117
 547	1	2	-0.069637	-0.431201	1.86255	-5.16412
 548	1	1	0.24118	3.11637	4.64578	-0.250656
 549	1	1	0.2544	3.34525	3.72085	2.09367
 550	1	2	-0.557237	2.83074	3.62323	-0.0211202
 551	1	2	-0.032586	2.95845	3.10209	1.28507
 552	1	2	0.370208	2.32104	2.81655	-1.05012
 553	1	2	0.127886	2.61195	1.76237	1.55244
 554	1	7	-0.036788	2.81114	1.22832	2.79584
 555	1	2	0.039962	1.93891	1.48487	-0.771586
 556	1	2	-0.445847	2.09036	0.954748	0.526254
 557	1	1	0.122566	1.54701	0.854641	-1.56359
 558	1	1	0.163876	1.81664	-0.0774721	0.730521
 559	1	2	-0.180142	0.0395837	3.29129	-3.23713
 560	1	1	0.144642	-0.302198	3.97007	-2.46076
 561	1	1	0.203463	5.32865	1.9646	2.33045
 562	1	2	-0.404697	5.21369	0.979785	2.76885
 563	1	2	-0.023572	6.35654	0.214447	3.05547
 564	1	1	0.153856	7.34686	0.621265	2.85996
 565	1	2	-0.109138	6.22391	-1.06826	3.61562
 566	1	3	0.998761	7.69904	-2.03531	4.00086
 567	1	2	-0.03943	4.94403	-1.56023	3.93242
 568	1	1	0.156851	4.84001	-2.53821	4.4017
 569	1	2	-0.395833	3.80462	-0.778215	3.66315
 570	1	1	0.202602	2.81729	-1.15383	3.91487
 571	1	2	0.320255	3.93085	0.485965	3.06552
 572	1	4	-0.566353	7.32129	-3.14676	4.88238
 573	1	4	-0.565639	8.72126	-1.05357	4.37634
 574	1	1	0.171248	8.05956	-4.78822	3.06056
 575	1	2	-0.142243	8.36063	-4.12556	2.25001
 576	1	2	-0.199349	8.88361	-4.66537	1.05952
 577	1	1	0.156233	8.97909	-5.73978	0.936973
 578	1	2	0.310144	9.32202	-3.8146	0.0341344
 579	1	5	-0.374171	9.89053	-4.34044	-1.09822
 580	1	1	0.18393	8.65282	-0.800349	1.50037
 581	1	2	-0.1794	8.69195	-1.87905	1.37268
 582	1	2	-0.069637	8.26359	-2.7275	2.41663
 583	1	1	0.24118	11.6267	-5.21976	0.692709
 584	1	1	0.2544	14.1287	-5.15825	0.429976
 585	1	2	-0.557237	12.0757	-4.83827	-0.219233
 586	1	2	-0.032586	13.4775	-4.80761	-0.369883
 587	1	2	0.370208	11.2536	-4.35822	-1.25395
 588	1	2	0.127886	14.0563	-4.26905	-1.53589
 589	1	7	-0.036788	15.4135	-4.11596	-1.61795
 590	1	2	0.039962	11.8321	-3.87978	-2.44575
 591	1	2	-0.445847	13.2348	-3.8224	-2.58755
 592	1	1	0.122566	11.1856	-3.52314	-3.24179
 593	1	1	0.163876	13.6773	-3.41476	-3.49301
 594	1	2	-0.180142	9.21381	-2.42322	0.184083
 595	1	1	0.144642	9.55832	-1.77158	-0.612652
 596	1	1	0.203463	17.6987	-3.19164	-2.50061
 597	1	2	-0.404697	17.2648	-2.60019	-1.69942
 598	1	2	-0.023572	17.9055	-1.42208	-1.27502
 599	1	1	0.153856	18.8256	-1.09001	-1.75596
 600	1	2	-0.109138	17.3179	-0.629659	-0.273441
 601	1	3	0.998761	17.9711	1.01316	0.0646851
 602	1	2	-0.03943	16.1228	-1.0415	0.337877
 603	1	1	0.156851	15.6657	-0.422875	1.11081
 604	1	2	-0.395833	15.4917	-2.22053	-0.0907988
 605	1	1	0.202602	14.55	-2.49994	0.369763
 606	1	2	0.320255	16.0453	-2.99845	-1.12825
 607	1	4	-0.566353	19.4042	1.023	-0.242703
 608	1	4	-0.565639	17.4777	1.47471	1.36653
 609	1	1	0.171248	16.241	0.41273	-2.29692
 610	1	2	-0.142243	16.3697	1.48702	-2.21069
 611	1	2	-0.199349	15.6869	2.30951	-3.11719
 612	1	1	0.156233	15.0414	1.87391	-3.87391
 613	1	2	0.310144	15.7925	3.70188	-3.02079
 614	1	5	-0.374171	14.9673	4.4767	-3.79005
 615	1	1	0.18393	17.8901	3.90238	-0.322832
 616	1	2	-0.1794	17.2878	3.45958	-1.11581
 617	1	2	-0.069637	17.164	2.05554	-1.18849
 618	1	1	0.24118	13.1688	4.31159	-5.67435
 619	1	1	0.2544	10.6675	4.1542	-5.30359
 620	1	2	-0.557237	12.7478	4.29837	-4.6731
 621	1	2	-0.032586	11.3526	4.20384	-4.45962
 622	1	2	0.370208	13.6144	4.39554	-3.57348
 623	1	2	0.127886	10.8262	4.2129	-3.15117
 624	1	7	-0.036788	9.46558	4.25987	-2.95027
 625	1	2	0.039962	13.0938	4.36544	-2.26415
 626	1	2	-0.445847	11.7088	4.26611	-2.05111
 627	1	1	0.122566	13.764	4.43537	-1.41206
 628	1	1	0.163876	11.3318	4.27258	-1.0305
 629	1	2	-0.180142	16.604	4.28163	-2.03318
 630	1	1	0.144642	16.6618	5.36283	-1.95228
 631	1	1	0.203463	9.66241	6.87638	-2.90153
 632	1	2	-0.404697	9.25247	6.44381	-1.99384
 633	1	2	-0.023572	9.16247	7.22637	-0.830589
 634	1	1	0.153856	9.50036	8.26131	-0.845513
 635	1	2	-0.109138	8.78188	6.62689	0.382153
 636	1	3	0.998761	9.13054	7.46299	1.94179
 637	1	2	-0.03943	8.4075	5.26896	0.406699
 638	1	1	0.156851	8.16018	4.7929	1.35514
 639	1	2	-0.395833	8.51173	4.48955	-0.759168
 640	1	1	0.202602	8.35135	3.41662	-0.708129
 641	1	2	0.320255	8.99449	5.06319	-1.94541
 642	1	4	-0.566353	8.53918	6.65381	3.01144
 643	1	4	-0.565639	10.5711	7.74078	1.94756
 644	1	1	0.171248	6.56016	8.56509	0.866226
 645	1	2	-0.142243	7.08387	9.3534	1.4036
 646	1	2	-0.199349	6.4915	10.6273	1.54236
 647	1	1	0.156233	5.51633	10.8132	1.10379
 648	1	2	0.310144	7.15441	11.6476	2.25768