pySIMM System Object

912 atoms
989 bonds
1612 angles
2390 dihedrals
312 impropers

7 atom types
7 bond types
11 angle types
4 dihedral types
1 improper types

-149.885479 149.885479 xlo xhi
-149.885479 149.885479 ylo yhi
-149.885479 149.885479 zlo zhi

Masses

   1	1.008	# ha
   2	12.01	# ca
   3	32.06	# sy
   4	16.0	# o
   5	16.0	# os
   6	1.008	# ho
   7	16.0	# oh

Pair Coeffs

   1	0.015	2.59964245953351	# ha
   2	0.086	3.3996695084235347	# ca
   3	0.25	3.563594872561357	# sy
   4	0.21	2.959921901149463	# o
   5	0.17	3.0000123434657784	# os
   6	0.0	0.0	# ho
   7	0.2104	3.0664733878390478	# oh

Bond Coeffs

   1	493.0	1.466	# o,sy
   2	345.8	1.086	# ca,ha
   3	384.0	1.3637	# ca,oh
   4	376.6	1.3696	# ca,os
   5	371.4	0.973	# ho,oh
   6	243.4	1.7909	# ca,sy
   7	461.1	1.3984	# ca,ca

Angle Coeffs

   1	48.18	119.88	# ca,ca,ha
   2	61.48	119.42	# ca,ca,sy
   3	72.54	121.41	# o,sy,o
   4	69.58	119.2	# ca,ca,os
   5	60.3	104.44	# ca,sy,ca
   6	49.0	108.58	# ca,oh,ho
   7	65.77	108.35	# ca,sy,o
   8	63.48	119.89	# ca,os,ca
   9	69.52	119.9	# ca,ca,oh
  10	66.62	120.02	# ca,ca,ca
  11	63.5	119.89	# ca,oh,ca

Dihedral Coeffs

   1	1	0.9	2	180	# X,ca,os,X
   2	1	0.9	2	180	# X,ca,oh,X
   3	1	3.625	2	180	# X,ca,ca,X
   4	1	1.3	2	180	# X,ca,sy,X

Improper Coeffs

   1	1.1	-1	2	# ca,X,X,ha

Atoms

   1	1	1	0.203463	-16.8474	22.4932	-3.75551
   2	1	2	-0.404697	-16.3241	22.6835	-2.8231
   3	1	2	-0.023572	-16.6339	21.9355	-1.67302
   4	1	1	0.153856	-17.4038	21.165	-1.71218
   5	1	2	-0.109138	-15.9492	22.1881	-0.470129
   6	1	3	0.998761	-16.3138	21.2233	1.00584
   7	1	2	-0.03943	-14.9614	23.189	-0.421074
   8	1	1	0.156851	-14.4292	23.3814	0.509653
   9	1	2	-0.395833	-14.6606	23.9322	-1.57614
  10	1	1	0.202602	-13.8958	24.7025	-1.55
  11	1	2	0.320255	-15.339	23.6806	-2.77797
  12	1	4	-0.566353	-16.1563	22.1238	2.15378
  13	1	4	-0.565639	-17.5454	20.462	0.768187
  14	1	1	0.171248	-13.6843	21.3108	2.2871
  15	1	2	-0.142243	-13.7637	20.3612	1.7635
  16	1	2	-0.199349	-12.6881	19.4582	1.79272
  17	1	1	0.156233	-11.7776	19.7078	2.33161
  18	1	2	0.310144	-12.7706	18.2388	1.10655
  19	1	5	-0.374171	-11.6693	17.4214	1.11264
  20	1	1	0.18393	-15.9015	18.5948	-0.240424
  21	1	2	-0.1794	-15.0086	18.829	0.338325
  22	1	2	-0.069637	-14.9355	20.047	1.04751
  23	1	1	0.24118	-13.6816	15.8622	2.0335
  24	1	1	0.2544	-13.4673	13.4111	2.49972
  25	1	2	-0.557237	-12.7456	15.3501	1.83429
  26	1	2	-0.032586	-12.6151	13.9709	2.11837
  27	1	2	0.370208	-11.6359	16.0674	1.34457
  28	1	2	0.127886	-11.3798	13.3099	1.92792
  29	1	7	-0.036788	-11.1963	11.9811	2.21659
  30	1	2	0.039962	-10.4109	15.404	1.15073
  31	1	2	-0.445847	-10.2794	14.0315	1.43679
  32	1	1	0.122566	-9.55619	15.971	0.792842
  33	1	1	0.163876	-9.32065	13.5381	1.29579
  34	1	2	-0.180142	-13.9218	17.9332	0.358285
  35	1	1	0.144642	-13.9591	17.0134	-0.21777
  36	1	1	0.203463	-13.2755	10.6774	1.24732
  37	1	2	-0.404697	-13.1389	10.5757	2.31994
  38	1	2	-0.023572	-14.0166	9.76831	3.06299
  39	1	1	0.153856	-14.8327	9.24885	2.56328
  40	1	2	-0.109138	-13.8423	9.63663	4.4531
  41	1	3	0.998761	-14.9994	8.63654	5.40954
  42	1	2	-0.03943	-12.7704	10.2908	5.08903
  43	1	1	0.156851	-12.6166	10.1695	6.16141
  44	1	2	-0.395833	-11.8883	11.0849	4.33392
  45	1	1	0.202602	-11.0456	11.573	4.81755
  46	1	2	0.320255	-12.0694	11.2282	2.94987
  47	1	4	-0.566353	-15.0932	7.34206	4.72688
  48	1	4	-0.565639	-14.627	8.75995	6.82382
  49	1	1	0.171248	-17.1367	8.25675	3.44381
  50	1	2	-0.142243	-17.4084	9.10812	4.06675
  51	1	2	-0.199349	-18.5991	9.81057	3.81426
  52	1	1	0.156233	-19.2508	9.50687	3.00094
  53	1	2	0.310144	-18.9687	10.903	4.61239
  54	1	5	-0.374171	-20.1466	11.5398	4.2908
  55	1	1	0.18393	-16.3333	10.8526	6.80486
  56	1	2	-0.1794	-16.9623	10.5667	5.96281
  57	1	2	-0.069637	-16.5723	9.49527	5.13246
  58	1	1	0.24118	-18.8053	13.8095	4.69606
  59	1	1	0.2544	-19.8083	15.9189	5.65725
  60	1	2	-0.557237	-19.8488	13.8443	4.98489
  61	1	2	-0.032586	-20.4145	15.0251	5.51659
  62	1	2	0.370208	-20.6473	12.695	4.83946
  63	1	2	0.127886	-21.7763	15.0631	5.88007
  64	1	7	-0.036788	-22.3208	16.1942	6.4267
  65	1	2	0.039962	-22.0112	12.7433	5.18339
  66	1	2	-0.445847	-22.5775	13.9206	5.71187
  67	1	1	0.122566	-22.6238	11.8579	5.04033
  68	1	1	0.163876	-23.6296	13.9446	5.98621
  69	1	2	-0.180142	-18.1594	11.2639	5.70757
  70	1	1	0.144642	-18.4533	12.077	6.36298
  71	1	1	0.203463	-22.9617	18.4619	7.5373
  72	1	2	-0.404697	-22.9153	18.5054	6.45312
  73	1	2	-0.023572	-23.242	19.7009	5.78752
  74	1	1	0.153856	-23.5443	20.5812	6.35369
  75	1	2	-0.109138	-23.2136	19.7508	4.38359
  76	1	3	0.998761	-23.7309	21.2545	3.529
  77	1	2	-0.03943	-22.8565	18.6025	3.65217
  78	1	1	0.156851	-22.8648	18.6286	2.56264
  79	1	2	-0.395833	-22.5381	17.4085	4.32528
  80	1	1	0.202602	-22.3119	16.5178	3.74612
  81	1	2	0.320255	-22.5735	17.3507	5.73124
  82	1	4	-0.566353	-23.624	20.9806	2.0922
  83	1	4	-0.565639	-24.9863	21.7037	4.14099
  84	1	1	0.171248	-23.8854	23.876	4.83044
  85	1	2	-0.142243	-22.8414	23.6929	4.5798
  86	1	2	-0.199349	-21.8731	24.6734	4.85889
  87	1	1	0.156233	-22.1587	25.608	5.33172
  88	1	2	0.310144	-20.5301	24.4624	4.51762
  89	1	5	-0.374171	-19.6293	25.4567	4.82141
  90	1	1	0.18393	-20.8284	21.3621	3.08611
  91	1	2	-0.1794	-21.1203	22.2768	3.60024
  92	1	2	-0.069637	-22.4701	22.4882	3.94772
  93	1	1	0.24118	-18.4669	25.7226	2.4932
  94	1	1	0.2544	-16.0057	25.3569	2.0591
  95	1	2	-0.557237	-17.7843	25.4784	3.30234
  96	1	2	-0.032586	-16.4091	25.2752	3.06599
  97	1	2	0.370208	-18.2859	25.3316	4.60319
  98	1	2	0.127886	-15.5445	24.933	4.12472
  99	1	7	-0.036788	-14.2146	24.7431	3.86194
 100	1	2	0.039962	-17.4236	25.0168	5.66891
 101	1	2	-0.445847	-16.0479	24.8212	5.4363
 102	1	1	0.122566	-17.8333	24.9123	6.66865
 103	1	1	0.163876	-15.3857	24.5752	6.26265
 104	1	2	-0.180142	-20.1528	23.256	3.89198
 105	1	1	0.144642	-19.1182	23.0787	3.61111
 106	1	1	0.203463	-11.6366	24.8352	4.23527
 107	1	2	-0.404697	-12.0805	23.8735	4.47448
 108	1	2	-0.023572	-11.2649	22.8166	4.91306
 109	1	1	0.153856	-10.1887	22.9562	5.01424
 110	1	2	-0.109138	-11.8316	21.5674	5.21584
 111	1	3	0.998761	-10.7234	20.2438	5.73757
 112	1	2	-0.03943	-13.2227	21.3844	5.09191
 113	1	1	0.156851	-13.6819	20.4234	5.30992
 114	1	2	-0.395833	-14.0306	22.4507	4.65882
 115	1	1	0.202602	-15.1021	22.3027	4.54059
 116	1	2	0.320255	-13.4662	23.702	4.34899
 117	1	4	-0.566353	-9.785	20.042	4.62829
 118	1	4	-0.565639	-10.2389	20.6504	7.05911
 119	1	1	0.171248	-11.0369	17.8386	4.09918
 120	1	2	-0.142243	-11.6957	17.7409	4.96189
 121	1	2	-0.199349	-12.4823	16.5877	5.11783
 122	1	1	0.156233	-12.428	15.7922	4.38519
 123	1	2	0.310144	-13.3241	16.4511	6.2328
 124	1	5	-0.374171	-14.1117	15.3387	6.38039
 125	1	1	0.18393	-12.566	19.375	7.8426
 126	1	2	-0.1794	-12.5583	18.6031	7.07285
 127	1	2	-0.069637	-11.7384	18.7584	5.93558
 128	1	1	0.24118	-15.7386	16.7537	4.86309
 129	1	1	0.2544	-17.1797	15.8124	3.01369
 130	1	2	-0.557237	-15.7026	15.6963	4.61278
 131	1	2	-0.032586	-16.5073	15.1681	3.58098
 132	1	2	0.370208	-14.8652	14.8412	5.35114
 133	1	2	0.127886	-16.4566	13.7941	3.27786
 134	1	7	-0.036788	-17.2666	13.2808	2.30482
 135	1	2	0.039962	-14.8229	13.4673	5.0547
 136	1	2	-0.445847	-15.6083	12.9438	4.00842
 137	1	1	0.122566	-14.1786	12.8175	5.63973
 138	1	1	0.163876	-15.5849	11.881	3.78838
 139	1	2	-0.180142	-13.3535	17.4512	7.21544
 140	1	1	0.144642	-13.989	17.3246	8.08673
 141	1	1	0.203463	-15.2871	14.2021	0.783096
 142	1	2	-0.404697	-15.7095	13.2557	0.462831
 143	1	2	-0.023572	-15.2216	12.638	-0.700915
 144	1	1	0.153856	-14.4131	13.0986	-1.26843
 145	1	2	-0.109138	-15.789	11.4289	-1.1401
 146	1	3	0.998761	-15.1252	10.5958	-2.58952
 147	1	2	-0.03943	-16.8424	10.8418	-0.417533
 148	1	1	0.156851	-17.2848	9.90835	-0.764845
 149	1	2	-0.395833	-17.3252	11.4681	0.744059
 150	1	1	0.202602	-18.1495	11.0281	1.29602
 151	1	2	0.320255	-16.7603	12.6712	1.191
 152	1	4	-0.566353	-16.2106	9.81658	-3.19505
 153	1	4	-0.565639	-14.3182	11.5727	-3.32861
 154	1	1	0.171248	-12.3607	10.8501	-1.68684
 155	1	2	-0.142243	-12.7046	9.85213	-1.41726
 156	1	2	-0.199349	-11.8602	8.98419	-0.703617
 157	1	1	0.156233	-10.8669	9.31404	-0.413817
 158	1	2	0.310144	-12.3002	7.69057	-0.364715
 159	1	5	-0.374171	-11.5082	6.81692	0.338758
 160	1	1	0.18393	-15.4473	7.82098	-1.70208
 161	1	2	-0.1794	-14.4449	8.14578	-1.42463
 162	1	2	-0.069637	-14.0021	9.43694	-1.77639
 163	1	1	0.24118	-10.0626	7.05391	-1.86806
 164	1	1	0.2544	-7.55138	7.08291	-1.94518
 165	1	2	-0.557237	-9.481	6.95247	-0.955622
 166	1	2	-0.032586	-8.07139	6.95969	-0.995368
 167	1	2	0.370208	-10.139	6.80927	0.278131
 168	1	2	0.127886	-7.32073	6.8084	0.191591
 169	1	7	-0.036788	-5.95047	6.82277	0.169133
 170	1	2	0.039962	-9.39341	6.64888	1.46036
 171	1	2	-0.445847	-7.98393	6.65574	1.42289
 172	1	1	0.122566	-9.91821	6.53024	2.40375
 173	1	1	0.163876	-7.41321	6.5404	2.34127
 174	1	2	-0.180142	-13.5926	7.27861	-0.719482
 175	1	1	0.144642	-13.9261	6.2824	-0.444433
 176	1	1	0.203463	-6.30359	4.41391	-0.897265
 177	1	2	-0.404697	-5.51075	5.00167	-1.3526
 178	1	2	-0.023572	-4.7489	4.45374	-2.39862
 179	1	1	0.153856	-4.95271	3.44368	-2.75101
 180	1	2	-0.109138	-3.6969	5.1957	-2.96475
 181	1	3	0.998761	-2.67553	4.46019	-4.2568
 182	1	2	-0.03943	-3.40665	6.48273	-2.47513
 183	1	1	0.156851	-2.57371	7.04739	-2.89309
 184	1	2	-0.395833	-4.17182	7.02226	-1.42466
 185	1	1	0.202602	-3.93664	8.00811	-1.03255
 186	1	2	0.320255	-5.22092	6.28448	-0.856982
 187	1	4	-0.566353	-1.36612	5.12083	-4.21793
 188	1	4	-0.565639	-2.84113	3.00546	-4.14242
 189	1	1	0.171248	-4.99384	3.3822	-5.67032
 190	1	2	-0.142243	-4.60424	4.20591	-6.2657
 191	1	2	-0.199349	-5.17033	4.49764	-7.51981
 192	1	1	0.156233	-6.00455	3.91599	-7.89916
 193	1	2	0.310144	-4.63197	5.52182	-8.31163
 194	1	5	-0.374171	-5.1269	5.72446	-9.57288
 195	1	1	0.18393	-2.11026	6.55304	-6.24418
 196	1	2	-0.1794	-2.98482	5.99897	-6.58406
 197	1	2	-0.069637	-3.49661	4.94412	-5.79921
 198	1	1	0.24118	-2.62387	4.71103	-9.75419
 199	1	1	0.2544	-1.53107	4.00601	-11.8777
 200	1	2	-0.557237	-3.17155	4.78717	-10.6881
 201	1	2	-0.032586	-2.55327	4.38215	-11.8905
 202	1	2	0.370208	-4.47953	5.31275	-10.7173
 203	1	2	0.127886	-3.24179	4.47061	-13.1204
 204	1	7	-0.036788	-2.65883	4.08287	-14.3009
 205	1	2	0.039962	-5.15637	5.41733	-11.9477
 206	1	2	-0.445847	-4.54522	4.99778	-13.1474
 207	1	1	0.122566	-6.16278	5.82459	-11.9621
 208	1	1	0.163876	-5.07844	5.08391	-14.0908
 209	1	2	-0.180142	-3.55954	6.29159	-7.83413
 210	1	1	0.144642	-3.14715	7.07844	-8.45924
 211	1	1	0.203463	-2.85969	1.57892	-13.4249
 212	1	2	-0.404697	-1.89714	1.83277	-13.8622
 213	1	2	-0.023572	-0.875205	0.866792	-13.9134
 214	1	1	0.153856	-1.04253	-0.126911	-13.4985
 215	1	2	-0.109138	0.371551	1.19141	-14.4809
 216	1	3	0.998761	1.71611	-0.0132474	-14.4536
 217	1	2	-0.03943	0.585972	2.48304	-14.9972
 218	1	1	0.156851	1.55686	2.75737	-15.4095
 219	1	2	-0.395833	-0.44354	3.43855	-14.9463
 220	1	1	0.202602	-0.260812	4.44335	-15.3209
 221	1	2	0.320255	-1.68505	3.12277	-14.3784
 222	1	4	-0.566353	2.95611	0.696523	-14.7951
 223	1	4	-0.565639	1.56396	-0.748263	-13.1929
 224	1	1	0.171248	2.52637	-0.126591	-17.2665
 225	1	2	-0.142243	1.89811	-0.99463	-17.0731
 226	1	2	-0.199349	1.67782	-1.94296	-18.0894
 227	1	1	0.156233	2.12089	-1.80733	-19.0708
 228	1	2	0.310144	0.895541	-3.08038	-17.8358
 229	1	5	-0.374171	0.708828	-4.02371	-18.8129
 230	1	1	0.18393	0.117244	-2.48471	-14.5574
 231	1	2	-0.1794	0.537692	-2.31985	-15.5487
 232	1	2	-0.069637	1.33711	-1.18159	-15.7926
 233	1	1	0.24118	1.92718	-3.60532	-21.0864
 234	1	1	0.2544	3.89815	-4.93879	-21.9533
 235	1	2	-0.557237	2.34212	-4.42997	-20.5143
 236	1	2	-0.032586	3.43867	-5.17981	-20.9951
 237	1	2	0.370208	1.76658	-4.75989	-19.2773
 238	1	2	0.127886	3.95222	-6.25617	-20.2399
 239	1	7	-0.036788	5.00772	-6.99891	-20.6987
 240	1	2	0.039962	2.26682	-5.84479	-18.5315
 241	1	2	-0.445847	3.35689	-6.59861	-19.0125
 242	1	1	0.122566	1.80111	-6.09843	-17.5842
 243	1	1	0.163876	3.73878	-7.43706	-18.4355
 244	1	2	-0.180142	0.313832	-3.26146	-16.5718
 245	1	1	0.144642	-0.290664	-4.14389	-16.3839
 246	1	1	0.203463	6.82873	-8.25621	-22.0759
 247	1	2	-0.404697	7.14419	-7.27823	-21.7248
 248	1	2	-0.023572	8.44217	-6.8195	-22.0104
 249	1	1	0.153856	9.13015	-7.43683	-22.5871
 250	1	2	-0.109138	8.85978	-5.5638	-21.5388
 251	1	3	0.998761	10.5445	-5.01013	-21.8578
 252	1	2	-0.03943	7.97288	-4.76556	-20.7943
 253	1	1	0.156851	8.29655	-3.79202	-20.427
 254	1	2	-0.395833	6.67509	-5.23105	-20.5152
 255	1	1	0.202602	6.01026	-4.61749	-19.914
 256	1	2	0.320255	6.25283	-6.49234	-20.9779
 257	1	4	-0.566353	10.8886	-5.42366	-23.2234
 258	1	4	-0.565639	10.6356	-3.61668	-21.4068
 259	1	1	0.171248	11.0015	-4.86375	-18.9759
 260	1	2	-0.142243	11.5341	-5.73718	-19.348
 261	1	2	-0.199349	12.2677	-6.54018	-18.457
 262	1	1	0.156233	12.283	-6.28738	-17.4021
 263	1	2	0.310144	13.0029	-7.64069	-18.9315
 264	1	5	-0.374171	13.7691	-8.42417	-18.0989
 265	1	1	0.18393	12.2085	-7.40981	-22.255
 266	1	2	-0.1794	12.2177	-7.16863	-21.1931
 267	1	2	-0.069637	11.5055	-6.04545	-20.7219
 268	1	1	0.24118	12.5443	-8.39846	-15.7885
 269	1	1	0.2544	13.5102	-7.4915	-13.6407
 270	1	2	-0.557237	13.5576	-8.00949	-15.7508
 271	1	2	-0.032586	14.1061	-7.50833	-14.5514
 272	1	2	0.370208	14.3137	-7.95812	-16.9302
 273	1	2	0.127886	15.4251	-7.01263	-14.5168
 274	1	7	-0.036788	15.9155	-6.50847	-13.3401
 275	1	2	0.039962	15.6274	-7.45124	-16.9046
 276	1	2	-0.445847	16.1938	-6.98513	-15.6979
 277	1	1	0.122566	16.1966	-7.41966	-17.8282
 278	1	1	0.163876	17.2023	-6.58276	-15.6898
 279	1	2	-0.180142	12.9621	-7.95967	-20.2977
 280	1	1	0.144642	13.5247	-8.8147	-20.6587
 281	1	1	0.203463	17.108	-5.13113	-11.487
 282	1	2	-0.404697	17.6284	-6.04743	-11.7456
 283	1	2	-0.023572	18.8057	-6.39875	-11.0602
 284	1	1	0.153856	19.1984	-5.74829	-10.2787
 285	1	2	-0.109138	19.455	-7.61044	-11.3561
 286	1	3	0.998761	20.9152	-8.10991	-10.4133
 287	1	2	-0.03943	18.9158	-8.46377	-12.3368
 288	1	1	0.156851	19.3903	-9.42334	-12.5376
 289	1	2	-0.395833	17.7466	-8.09427	-13.0301
 290	1	1	0.202602	17.3263	-8.77008	-13.7705
 291	1	2	0.320255	17.0925	-6.88274	-12.7384
 292	1	4	-0.566353	20.7149	-9.52123	-10.0679
 293	1	4	-0.565639	21.1647	-7.07692	-9.40164
 294	1	1	0.171248	22.0345	-10.142	-12.1961
 295	1	2	-0.142243	22.5875	-9.21884	-12.3646
 296	1	2	-0.199349	23.6189	-9.18347	-13.3193
 297	1	1	0.156233	23.8512	-10.0656	-13.9078
 298	1	2	0.310144	24.3559	-8.00927	-13.528
 299	1	5	-0.374171	25.2837	-8.00813	-14.5416
 300	1	1	0.18393	22.7838	-5.99	-11.2495
 301	1	2	-0.1794	23.0188	-6.88513	-11.8252
 302	1	2	-0.069637	22.2682	-8.06342	-11.6234
 303	1	1	0.24118	26.3064	-7.12055	-16.7118
 304	1	1	0.2544	28.5656	-6.01807	-16.9554
 305	1	2	-0.557237	26.9282	-6.92052	-15.8443
 306	1	2	-0.032586	28.1904	-6.3059	-15.9748
 307	1	2	0.370208	26.4661	-7.31117	-14.5795
 308	1	2	0.127886	28.9914	-6.07609	-14.8379
 309	1	7	-0.036788	30.232	-5.51055	-14.9718
 310	1	2	0.039962	27.2635	-7.07947	-13.4379
 311	1	2	-0.445847	28.5207	-6.44783	-13.5641
 312	1	1	0.122566	26.9192	-7.41342	-12.4636
 313	1	1	0.163876	29.1396	-6.28289	-12.6853
 314	1	2	-0.180142	24.0602	-6.85974	-12.7745
 315	1	1	0.144642	24.615	-5.94294	-12.9443
 316	1	1	0.203463	31.0281	-8.03936	-14.9746
 317	1	2	-0.404697	31.5118	-7.41309	-15.7194
 318	1	2	-0.023572	32.4875	-7.9637	-16.5696
 319	1	1	0.153856	32.7577	-9.01556	-16.4849
 320	1	2	-0.109138	33.1247	-7.15318	-17.5258
 321	1	3	0.998761	34.3498	-7.87636	-18.6369
 322	1	2	-0.03943	32.7921	-5.78861	-17.6169
 323	1	1	0.156851	33.2956	-5.1557	-18.3477
 324	1	2	-0.395833	31.8221	-5.24304	-16.7541
 325	1	1	0.202602	31.5774	-4.18617	-16.8149
 326	1	2	0.320255	31.1787	-6.05088	-15.803
 327	1	4	-0.566353	34.9674	-8.99929	-17.9229
 328	1	4	-0.565639	35.123	-6.77873	-19.2291
 329	1	1	0.171248	33.3997	-6.82345	-21.1943
 330	1	2	-0.142243	32.9708	-7.81694	-21.0689
 331	1	2	-0.199349	32.0875	-8.33025	-22.0346
 332	1	1	0.156233	31.8269	-7.73444	-22.903
 333	1	2	0.310144	31.5288	-9.60881	-21.8708
 334	1	5	-0.374171	30.5888	-10.0685	-22.7557
 335	1	1	0.18393	33.0222	-10.4805	-18.9188
 336	1	2	-0.1794	32.7573	-9.87825	-19.7869
 337	1	2	-0.069637	33.2949	-8.58136	-19.9302
 338	1	1	0.24118	28.6677	-10.3798	-21.0209
 339	1	1	0.2544	26.5464	-9.00472	-20.9454
 340	1	2	-0.557237	28.4531	-9.63717	-21.7838
 341	1	2	-0.032586	27.2715	-8.86812	-21.7459
 342	1	2	0.370208	29.3862	-9.4201	-22.8094
 343	1	2	0.127886	27.0462	-7.86666	-22.712
 344	1	7	-0.036788	25.9824	-7.01738	-22.5846
 345	1	2	0.039962	29.1336	-8.46217	-23.8095
 346	1	2	-0.445847	27.9662	-7.67426	-23.758
 347	1	1	0.122566	29.8705	-8.30172	-24.5904
 348	1	1	0.163876	27.7964	-6.89837	-24.5006
 349	1	2	-0.180142	31.8759	-10.3888	-20.7579
 350	1	1	0.144642	31.4421	-11.3774	-20.6434
 351	1	1	0.203463	24.2192	-5.09011	-22.6436
 352	1	2	-0.404697	25.0185	-4.92979	-21.9256
 353	1	2	-0.023572	25.0418	-3.7517	-21.1567
 354	1	1	0.153856	24.261	-3.00154	-21.2797
 355	1	2	-0.109138	26.0862	-3.53421	-20.2405
 356	1	3	0.998761	26.1336	-2.03571	-19.2421
 357	1	2	-0.03943	27.1051	-4.49084	-20.1026
 358	1	1	0.156851	27.9252	-4.31015	-19.4098
 359	1	2	-0.395833	27.0772	-5.66265	-20.8767
 360	1	1	0.202602	27.8894	-6.37582	-20.7758
 361	1	2	0.320255	26.0352	-5.88976	-21.7999
 362	1	4	-0.566353	27.5434	-1.75066	-18.9496
 363	1	4	-0.565639	25.2299	-1.06351	-19.8666
 364	1	1	0.171248	27.254	-3.00381	-16.707
 365	1	2	-0.142243	26.1694	-3.02473	-16.6195
 366	1	2	-0.199349	25.5705	-3.46519	-15.4256
 367	1	1	0.156233	26.1848	-3.79837	-14.5942
 368	1	2	0.310144	24.1744	-3.46717	-15.2927
 369	1	5	-0.374171	23.6351	-3.89433	-14.1035
 370	1	1	0.18393	23.3425	-2.26247	-18.3909
 371	1	2	-0.1794	23.9654	-2.60383	-17.565
 372	1	2	-0.069637	25.3686	-2.59125	-17.6961
 373	1	1	0.24118	21.663	-5.58978	-14.2249
 374	1	1	0.2544	19.2697	-5.08663	-13.6083
 375	1	2	-0.557237	21.3723	-4.6066	-13.8627
 376	1	2	-0.032586	20.0358	-4.31821	-13.5149
 377	1	2	0.370208	22.3498	-3.61087	-13.7327
 378	1	2	0.127886	19.6796	-3.03109	-13.0521
 379	1	7	-0.036788	18.3898	-2.71888	-12.7065
 380	1	2	0.039962	22.0051	-2.33453	-13.2505
 381	1	2	-0.445847	20.6699	-2.0431	-12.907
 382	1	1	0.122566	22.7763	-1.57637	-13.1511
 383	1	1	0.163876	20.4062	-1.05574	-12.5359
 384	1	2	-0.180142	23.3706	-3.0417	-16.3681
 385	1	1	0.144642	22.2884	-3.05069	-16.2817
 386	1	1	0.203463	18.3243	-3.29963	-15.3458
 387	1	2	-0.404697	17.3619	-3.27575	-14.8441
 388	1	2	-0.023572	16.1991	-3.53066	-15.5895
 389	1	1	0.153856	16.2754	-3.78215	-16.6469
 390	1	2	-0.109138	14.9383	-3.46815	-14.9706
 391	1	3	0.998761	13.4511	-3.80107	-15.9299
 392	1	2	-0.03943	14.8443	-3.15121	-13.605
 393	1	1	0.156851	13.8664	-3.10124	-13.1268
 394	1	2	-0.395833	16.0144	-2.9009	-12.8653
 395	1	1	0.202602	15.9428	-2.64361	-11.8121
 396	1	2	0.320255	17.279	-2.97107	-13.4728
 397	1	4	-0.566353	12.5228	-4.57003	-15.091
 398	1	4	-0.565639	13.9105	-4.28636	-17.2336
 399	1	1	0.171248	14.4503	-1.39585	-17.2592
 400	1	2	-0.142243	13.4543	-1.17055	-16.883
 401	1	2	-0.199349	12.8948	0.103134	-17.0959
 402	1	1	0.156233	13.4534	0.870172	-17.6237
 403	1	2	0.310144	11.6051	0.393926	-16.6298
 404	1	5	-0.374171	11.0915	1.6526	-16.8215
 405	1	1	0.18393	10.8348	-2.63685	-15.2358
 406	1	2	-0.1794	11.4189	-1.86919	-15.7424
 407	1	2	-0.069637	12.7239	-2.16057	-16.194
 408	1	1	0.24118	9.07111	3.23804	-17.1726
 409	1	1	0.2544	7.8917	4.54681	-15.3679
 410	1	2	-0.557237	9.39594	3.18086	-16.1371
 411	1	2	-0.032586	8.73824	3.90674	-15.1202
 412	1	2	0.370208	10.4858	2.3611	-15.8136
 413	1	2	0.127886	9.16538	3.80387	-13.7759
 414	1	7	-0.036788	8.54101	4.48297	-12.7588
 415	1	2	0.039962	10.941	2.29188	-14.4801
 416	1	2	-0.445847	10.2827	3.0099	-13.462
 417	1	1	0.122566	11.8025	1.67745	-14.2378
 418	1	1	0.163876	10.6342	2.94425	-12.4357
 419	1	2	-0.180142	10.8614	-0.596296	-15.9645
 420	1	1	0.144642	9.85107	-0.376978	-15.6305
 421	1	1	0.203463	6.52383	2.90594	-13.5486
 422	1	2	-0.404697	6.23013	3.89342	-13.2002
 423	1	2	-0.023572	4.87136	4.25728	-13.2202
 424	1	1	0.153856	4.12675	3.56062	-13.6071
 425	1	2	-0.109138	4.48058	5.53201	-12.7695
 426	1	3	0.998761	2.75972	6.05877	-12.9089
 427	1	2	-0.03943	5.45079	6.42628	-12.2801
 428	1	1	0.156851	5.15444	7.41924	-11.9442
 429	1	2	-0.395833	6.80634	6.05236	-12.2625
 430	1	1	0.202602	7.55657	6.7491	-11.8996
 431	1	2	0.320255	7.20626	4.79603	-12.7407
 432	1	4	-0.566353	2.77144	7.52357	-12.9937
 433	1	4	-0.565639	2.1264	5.22123	-13.9342
 434	1	1	0.171248	2.48772	7.53669	-10.3972
 435	1	2	-0.142243	2.00111	6.57195	-10.2628
 436	1	2	-0.199349	1.34836	6.28064	-9.05127
 437	1	1	0.156233	1.34045	7.0033	-8.24104
 438	1	2	0.310144	0.696921	5.05283	-8.87834
 439	1	5	-0.374171	0.0670099	4.80386	-7.68301
 440	1	1	0.18393	1.32845	3.67279	-11.9563
 441	1	2	-0.1794	1.3447	4.39684	-11.141
 442	1	2	-0.069637	2.00074	5.63359	-11.316
 443	1	1	0.24118	-2.00863	3.23775	-7.59345
 444	1	1	0.2544	-1.93587	0.798264	-6.9914
 445	1	2	-0.557237	-1.09053	2.77576	-7.24584
 446	1	2	-0.032586	-1.03958	1.41023	-6.90705
 447	1	2	0.370208	0.076813	3.54212	-7.1576
 448	1	2	0.127886	0.185971	0.800649	-6.54373
 449	1	7	-0.036788	0.285125	-0.568201	-6.47454
 450	1	2	0.039962	1.27933	2.96462	-6.70422
 451	1	2	-0.445847	1.34173	1.58855	-6.4042
 452	1	1	0.122566	2.17379	3.57702	-6.6517
 453	1	1	0.163876	2.28597	1.13188	-6.11957
 454	1	2	-0.180142	0.69644	4.10853	-9.92484
 455	1	1	0.144642	0.187473	3.15712	-9.7976
 456	1	1	0.203463	-1.47999	-2.44282	-5.91099
 457	1	2	-0.404697	-1.41303	-2.18687	-6.96573
 458	1	2	-0.023572	-2.36872	-2.67186	-7.87664
 459	1	1	0.153856	-3.17536	-3.31742	-7.53347
 460	1	2	-0.109138	-2.3362	-2.24697	-9.21707
 461	1	3	0.998761	-3.7254	-2.61725	-10.3011
 462	1	2	-0.03943	-1.28149	-1.43592	-9.67264
 463	1	1	0.156851	-1.23809	-1.11863	-10.7143
 464	1	2	-0.395833	-0.322335	-0.97214	-8.7602
 465	1	1	0.202602	0.452029	-0.285114	-9.09484
 466	1	2	0.320255	-0.413523	-1.30231	-7.39596
 467	1	4	-0.566353	-3.99811	-4.057	-10.2456
 468	1	4	-0.565639	-3.47552	-1.91708	-11.5668
 469	1	1	0.171248	-4.15374	0.167976	-9.48739
 470	1	2	-0.142243	-5.03414	-0.398373	-9.1877
 471	1	2	-0.199349	-6.10262	0.25065	-8.5398
 472	1	1	0.156233	-6.0537	1.31562	-8.3371
 473	1	2	0.310144	-7.25373	-0.462373	-8.16874
 474	1	5	-0.374171	-8.28705	0.236912	-7.58344
 475	1	1	0.18393	-6.34234	-3.55401	-9.3385
 476	1	2	-0.1794	-6.26852	-2.49296	-9.10068
 477	1	2	-0.069637	-5.10737	-1.7788	-9.46623
 478	1	1	0.24118	-10.7352	1.02803	-7.57688
 479	1	1	0.2544	-12.5572	0.225287	-6.03305
 480	1	2	-0.557237	-10.5342	0.272612	-6.82197
 481	1	2	-0.032586	-11.5479	-0.174115	-5.94709
 482	1	2	0.370208	-9.24471	-0.266823	-6.73254
 483	1	2	0.127886	-11.2822	-1.146	-4.95979
 484	1	7	-0.036788	-12.3489	-1.59837	-4.21431
 485	1	2	0.039962	-8.96808	-1.24161	-5.7506
 486	1	2	-0.445847	-9.98254	-1.69282	-4.87547
 487	1	1	0.122566	-7.96553	-1.65034	-5.67221
 488	1	1	0.163876	-9.74598	-2.47042	-4.16227
 489	1	2	-0.180142	-7.34129	-1.83558	-8.46585
 490	1	1	0.144642	-8.24634	-2.38719	-8.23111
 491	1	1	0.203463	-14.2247	-0.48178	-2.79899
 492	1	2	-0.404697	-13.5754	-1.13154	-2.22038
 493	1	2	-0.023572	-13.9178	-1.44189	-0.88897
 494	1	1	0.153856	-14.8332	-1.04007	-0.455049
 495	1	2	-0.109138	-13.1477	-2.36479	-0.157795
 496	1	3	0.998761	-13.8005	-3.06242	1.38444
 497	1	2	-0.03943	-12.0224	-2.95001	-0.7678
 498	1	1	0.156851	-11.4674	-3.72459	-0.239996
 499	1	2	-0.395833	-11.6948	-2.6421	-2.10304
 500	1	1	0.202602	-10.8989	-3.19521	-2.58154
 501	1	2	0.320255	-12.4717	-1.73635	-2.84829
 502	1	4	-0.566353	-15.2478	-2.82572	1.42827
 503	1	4	-0.565639	-13.2831	-4.43249	1.45409
 504	1	1	0.171248	-11.2305	-1.61305	1.96068
 505	1	2	-0.142243	-11.828	-1.64549	2.86916
 506	1	2	-0.199349	-11.3138	-1.11111	4.07095
 507	1	1	0.156233	-10.3272	-0.658646	4.08491
 508	1	2	0.310144	-12.0447	-1.17873	5.27253
 509	1	5	-0.374171	-11.4579	-0.660732	6.41609
 510	1	1	0.18393	-14.8072	-2.80761	4.06276
 511	1	2	-0.1794	-13.8344	-2.31561	4.06065
 512	1	2	-0.069637	-13.1053	-2.24184	2.85454
 513	1	1	0.24118	-13.8773	0.208831	7.16434
 514	1	1	0.2544	-14.7677	0.127645	9.5235
 515	1	2	-0.557237	-13.2567	-0.155281	7.97853
 516	1	2	-0.032586	-13.7437	-0.174673	9.3074
 517	1	2	0.370208	-11.9644	-0.637366	7.70041
 518	1	2	0.127886	-12.9297	-0.624508	10.3684
 519	1	7	-0.036788	-13.4817	-0.856325	11.6028
 520	1	2	0.039962	-11.1392	-1.04654	8.7681
 521	1	2	-0.445847	-11.6154	-1.04714	10.0983
 522	1	1	0.122566	-10.1339	-1.3938	8.54992
 523	1	1	0.163876	-10.9879	-1.42305	10.9022
 524	1	2	-0.180142	-13.3056	-1.80482	5.26147
 525	1	1	0.144642	-13.8743	-1.91916	6.17704
 526	1	1	0.203463	-12.363	1.61533	11.9097
 527	1	2	-0.404697	-12.865	1.21427	12.7851
 528	1	2	-0.023572	-12.9319	1.97922	13.9728
 529	1	1	0.153856	-12.4856	2.97099	14.0032
 530	1	2	-0.109138	-13.5863	1.46143	15.1114
 531	1	3	0.998761	-13.7689	2.37679	16.6623
 532	1	2	-0.03943	-14.1575	0.181599	15.0547
 533	1	1	0.156851	-14.6644	-0.217615	15.9335
 534	1	2	-0.395833	-14.0903	-0.569124	13.8707
 535	1	1	0.202602	-14.5474	-1.55345	13.8366
 536	1	2	0.320255	-13.4539	-0.064655	12.727
 537	1	4	-0.566353	-15.1693	2.8073	16.7125
 538	1	4	-0.565639	-13.227	1.49712	17.7024
 539	1	1	0.171248	-10.9284	2.80301	17.1695
 540	1	2	-0.142243	-11.3477	3.75213	16.8376
 541	1	2	-0.199349	-10.5184	4.87516	16.677
 542	1	1	0.156233	-9.45026	4.80495	16.8559
 543	1	2	0.310144	-11.0652	6.09063	16.245
 544	1	5	-0.374171	-10.2252	7.11921	15.9218
 545	1	1	0.18393	-14.3482	5.16787	15.9778
 546	1	2	-0.1794	-13.2778	5.08673	16.1683
 547	1	2	-0.069637	-12.7232	3.84645	16.5465
 548	1	1	0.24118	-11.293	6.02402	13.6894
 549	1	1	0.2544	-10.7224	6.70826	11.3639
 550	1	2	-0.557237	-10.5432	6.79031	13.5272
 551	1	2	-0.032586	-10.2188	7.17316	12.21
 552	1	2	0.370208	-9.91079	7.4237	14.6173
 553	1	2	0.127886	-9.24591	8.15913	11.9622
 554	1	7	-0.036788	-9.01199	8.51276	10.6537
 555	1	2	0.039962	-8.92199	8.39165	14.3731
 556	1	2	-0.445847	-8.57419	8.75082	13.0558
 557	1	1	0.122566	-8.42829	8.86435	15.2172
 558	1	1	0.163876	-7.8005	9.49598	12.9129
 559	1	2	-0.180142	-12.447	6.21116	16.0265
 560	1	1	0.144642	-12.8573	7.16282	15.7009
 561	1	1	0.203463	-7.95089	10.9047	11.1402
 562	1	2	-0.404697	-7.33535	10.2475	10.5328
 563	1	2	-0.023572	-6.03873	10.6436	10.1667
 564	1	1	0.153856	-5.63563	11.5965	10.5092
 565	1	2	-0.109138	-5.2384	9.77588	9.40537
 566	1	3	0.998761	-3.49156	10.142	9.1913
 567	1	2	-0.03943	-5.75871	8.55235	8.94685
 568	1	1	0.156851	-5.14104	7.89265	8.33721
 569	1	2	-0.395833	-7.04197	8.14903	9.35128
 570	1	1	0.202602	-7.42656	7.1807	9.04596
 571	1	2	0.320255	-7.81251	8.97273	10.1862
 572	1	4	-0.566353	-3.28929	11.5946	9.1595
 573	1	4	-0.565639	-2.98456	9.26747	8.12982
 574	1	1	0.171248	-4.12132	7.82137	10.9269
 575	1	2	-0.142243	-3.31651	8.3854	11.3905
 576	1	2	-0.199349	-2.82646	7.97514	12.6445
 577	1	1	0.156233	-3.26956	7.11558	13.137
 578	1	2	0.310144	-1.79051	8.6974	13.2654
 579	1	5	-0.374171	-1.30991	8.38509	14.5151
 580	1	1	0.18393	-1.35141	11.1443	10.9091
 581	1	2	-0.1794	-1.75641	10.252	11.3856
 582	1	2	-0.069637	-2.79516	9.53689	10.758
 583	1	1	0.24118	-2.36321	8.28181	16.8654
 584	1	1	0.2544	-2.75108	6.19094	18.2175
 585	1	2	-0.557237	-2.09377	7.3036	16.4766
 586	1	2	-0.032586	-2.28773	6.13151	17.2362
 587	1	2	0.370208	-1.53634	7.21732	15.1935
 588	1	2	0.127886	-1.89647	4.87905	16.7186
 589	1	7	-0.036788	-2.13313	3.71857	17.3954
 590	1	2	0.039962	-1.17378	5.96377	14.6618
 591	1	2	-0.445847	-1.36675	4.79101	15.4192
 592	1	1	0.122566	-0.739128	5.90782	13.6686
 593	1	1	0.163876	-1.09814	3.82243	15.0051
 594	1	2	-0.180142	-1.25691	9.82736	12.6296
 595	1	1	0.144642	-0.465007	10.385	13.1202
 596	1	1	0.203463	-0.973236	1.40283	17.4639
 597	1	2	-0.404697	-0.951497	1.93257	18.4117
 598	1	2	-0.023572	-0.57398	1.24835	19.5781
 599	1	1	0.153856	-0.340104	0.184465	19.535
 600	1	2	-0.109138	-0.726105	1.87987	20.8236
 601	1	3	0.998761	-1.06112	0.832976	22.2473
 602	1	2	-0.03943	-1.06779	3.24205	20.8888
 603	1	1	0.156851	-1.20472	3.71812	21.8603
 604	1	2	-0.395833	-1.42852	3.92264	19.7118
 605	1	1	0.202602	-1.80939	4.9318	19.7943
 606	1	2	0.320255	-1.43481	3.248	18.4762
 607	1	4	-0.566353	-1.28912	1.68414	23.419
 608	1	4	-0.565639	-0.112293	-0.284622	22.2838
 609	1	1	0.171248	-2.49921	-1.59569	23.0411
 610	1	2	-0.142243	-3.08085	-1.12027	22.2524
 611	1	2	-0.199349	-4.21154	-1.76691	21.7148
 612	1	1	0.156233	-4.5252	-2.73191	22.0984
 613	1	2	0.310144	-4.91262	-1.18743	20.6461
 614	1	5	-0.374171	-5.94139	-1.85911	20.0471
 615	1	1	0.18393	-3.20177	1.72843	20.3523
 616	1	2	-0.1794	-3.45929	0.75052	20.7452
 617	1	2	-0.069637	-2.66685	0.125942	21.7404
 618	1	1	0.24118	-5.64841	-1.05822	17.5477
 619	1	1	0.2544	-5.61359	-2.58859	15.5421
 620	1	2	-0.557237	-5.63434	-2.13568	17.6726
 621	1	2	-0.032586	-5.61011	-2.9979	16.5506
 622	1	2	0.370208	-5.73285	-2.67904	18.966
 623	1	2	0.127886	-5.68541	-4.39683	16.7206
 624	1	7	-0.036788	-5.97471	-5.21325	15.6575
 625	1	2	0.039962	-5.75472	-4.07485	19.1374
 626	1	2	-0.445847	-5.73269	-4.93576	18.0199
 627	1	1	0.122566	-5.85281	-4.47988	20.1398
 628	1	1	0.163876	-5.83107	-6.00838	18.1647
 629	1	2	-0.180142	-4.56276	0.0871466	20.189
 630	1	1	0.144642	-5.13276	0.545785	19.3877
 631	1	1	0.203463	-3.668	-6.52112	15.8283
 632	1	2	-0.404697	-3.99173	-6.3028	14.8146
 633	1	2	-0.023572	-3.30158	-6.85181	13.7166
 634	1	1	0.153856	-2.42792	-7.48184	13.8767
 635	1	2	-0.109138	-3.7534	-6.62778	12.4027
 636	1	3	0.998761	-2.85813	-7.4403	11.0477
 637	1	2	-0.03943	-4.86272	-5.78366	12.1934
 638	1	1	0.156851	-5.19929	-5.55235	11.1845
 639	1	2	-0.395833	-5.57867	-5.28208	13.2981
 640	1	1	0.202602	-6.49113	-4.71484	13.1386
 641	1	2	0.320255	-5.15356	-5.54263	14.6117
 642	1	4	-0.566353	-1.84671	-6.49029	10.569
 643	1	4	-0.565639	-2.36902	-8.72573	11.554
 644	1	1	0.171248	-5.86056	-7.69946	10.6552
 645	1	2	-0.142243	-5.35414	-7.75531	9.69547
 646	1	2	-0.199349	-6.11579	-7.70126	8.51162
 647	1	1	0.156233	-7.19093	-7.55339	8.54983
 648	1	2	0.310144	-5.47759	-7.73593	7.26477
 649	1	5	-0.374171	-6.16241	-7.30814	6.15245
 650	1	1	0.18393	-2.24232	-8.00681	8.30094
 651	1	2	-0.1794	-3.32735	-7.96115	8.3678
 652	1	2	-0.069637	-3.94247	-7.76826	9.62121
 653	1	1	0.24118	-6.8523	-6.97599	3.66711
 654	1	1	0.2544	-5.65121	-5.50395	2.0074
 655	1	2	-0.557237	-6.02203	-6.34541	3.97176