pySIMM System Object

1647 atoms
1787 bonds
2914 angles
4322 dihedrals
564 impropers

7 atom types
7 bond types
11 angle types
4 dihedral types
1 improper types

-183.667438 183.667438 xlo xhi
-183.667438 183.667438 ylo yhi
-183.667438 183.667438 zlo zhi

Masses

   1	1.008	# ha
   2	12.01	# ca
   3	32.06	# sy
   4	16.0	# o
   5	16.0	# os
   6	1.008	# ho
   7	16.0	# oh

Pair Coeffs

   1	0.015	2.59964245953351	# ha
   2	0.086	3.3996695084235347	# ca
   3	0.25	3.563594872561357	# sy
   4	0.21	2.959921901149463	# o
   5	0.17	3.0000123434657784	# os
   6	0.0	0.0	# ho
   7	0.2104	3.0664733878390478	# oh

Bond Coeffs

   1	493.0	1.466	# o,sy
   2	345.8	1.086	# ca,ha
   3	384.0	1.3637	# ca,oh
   4	376.6	1.3696	# ca,os
   5	371.4	0.973	# ho,oh
   6	243.4	1.7909	# ca,sy
   7	461.1	1.3984	# ca,ca

Angle Coeffs

   1	48.18	119.88	# ca,ca,ha
   2	61.48	119.42	# ca,ca,sy
   3	72.54	121.41	# o,sy,o
   4	69.58	119.2	# ca,ca,os
   5	60.3	104.44	# ca,sy,ca
   6	49.0	108.58	# ca,oh,ho
   7	65.77	108.35	# ca,sy,o
   8	63.48	119.89	# ca,os,ca
   9	69.52	119.9	# ca,ca,oh
  10	66.62	120.02	# ca,ca,ca
  11	63.5	119.89	# ca,oh,ca

Dihedral Coeffs

   1	1	0.9	2	180	# X,ca,os,X
   2	1	0.9	2	180	# X,ca,oh,X
   3	1	3.625	2	180	# X,ca,ca,X
   4	1	1.3	2	180	# X,ca,sy,X

Improper Coeffs

   1	1.1	-1	2	# ca,X,X,ha

Atoms

   1	1	1	0.203463	6.37656	-14.3025	-18.1937
   2	1	2	-0.404697	6.79523	-14.6029	-19.1504
   3	1	2	-0.023572	6.55246	-13.8311	-20.2998
   4	1	1	0.153856	5.94323	-12.9305	-20.2345
   5	1	2	-0.109138	7.10005	-14.2263	-21.5338
   6	1	3	0.998761	6.82603	-13.2294	-23.0078
   7	1	2	-0.03943	7.89616	-15.3839	-21.6103
   8	1	1	0.156851	8.32862	-15.6838	-22.5624
   9	1	2	-0.395833	8.12836	-16.1507	-20.455
  10	1	1	0.202602	8.73703	-17.0487	-20.5085
  11	1	2	0.320255	7.57948	-15.7631	-19.2233
  12	1	4	-0.566353	6.31934	-14.0706	-24.0953
  13	1	4	-0.565639	6.10808	-12.0089	-22.619
  14	1	1	0.171248	8.13706	-13.0075	-25.6141
  15	1	2	-0.142243	8.85183	-12.6888	-24.857
  16	1	2	-0.199349	10.1216	-12.2228	-25.2395
  17	1	1	0.156233	10.3929	-12.163	-26.2881
  18	1	2	0.310144	11.0343	-11.7982	-24.2634
  19	1	5	-0.374171	12.211	-11.204	-24.6393
  20	1	1	0.18393	9.14825	-12.3129	-21.4598
  21	1	2	-0.1794	9.41848	-12.3062	-22.5161
  22	1	2	-0.069637	8.48988	-12.7165	-23.4944
  23	1	1	0.24118	10.4561	-9.30425	-25.037
  24	1	1	0.2544	10.705	-6.91757	-24.2962
  25	1	2	-0.557237	11.3712	-8.96614	-24.5559
  26	1	2	-0.032586	11.5144	-7.6302	-24.1359
  27	1	2	0.370208	12.4072	-9.88548	-24.3236
  28	1	2	0.127886	12.6882	-7.21382	-23.4721
  29	1	7	-0.036788	12.8101	-5.93077	-23.0101
  30	1	2	0.039962	13.5964	-9.46416	-23.6992
  31	1	2	-0.445847	13.7388	-8.12739	-23.2683
  32	1	1	0.122566	14.3886	-10.1863	-23.5238
  33	1	1	0.163876	14.6506	-7.8096	-22.7679
  34	1	2	-0.180142	10.6914	-11.8586	-22.9032
  35	1	1	0.144642	11.4008	-11.5267	-22.1516
  36	1	1	0.203463	11.2575	-6.72801	-21.0135
  37	1	2	-0.404697	10.9677	-5.78356	-21.4656
  38	1	2	-0.023572	9.83817	-5.10063	-20.9844
  39	1	1	0.153856	9.25719	-5.51759	-20.1615
  40	1	2	-0.109138	9.46442	-3.87571	-21.5663
  41	1	3	0.998761	8.02065	-2.98716	-20.9583
  42	1	2	-0.03943	10.2273	-3.33635	-22.6185
  43	1	1	0.156851	9.94173	-2.38476	-23.0649
  44	1	2	-0.395833	11.3583	-4.02549	-23.0898
  45	1	1	0.202602	11.9495	-3.61228	-23.9023
  46	1	2	0.320255	11.7312	-5.24925	-22.5168
  47	1	4	-0.566353	7.74701	-3.48937	-19.607
  48	1	4	-0.565639	8.25926	-1.56032	-21.219
  49	1	1	0.171248	6.33095	-5.38473	-20.9656
  50	1	2	-0.142243	6.05215	-4.78206	-21.829
  51	1	2	-0.199349	5.02096	-5.21396	-22.685
  52	1	1	0.156233	4.50323	-6.14727	-22.4869
  53	1	2	0.310144	4.63526	-4.4234	-23.7815
  54	1	5	-0.374171	3.60063	-4.79873	-24.601
  55	1	1	0.18393	6.79354	-1.80477	-23.3504
  56	1	2	-0.1794	6.31387	-2.76592	-23.171
  57	1	2	-0.069637	6.70429	-3.55451	-22.0681
  58	1	1	0.24118	5.28113	-5.96608	-26.2289
  59	1	1	0.2544	5.0644	-8.32634	-27.0986
  60	1	2	-0.557237	4.44328	-6.59146	-25.9392
  61	1	2	-0.032586	4.3165	-7.90969	-26.4261
  62	1	2	0.370208	3.47019	-6.07776	-25.0706
  63	1	2	0.127886	3.23264	-8.71618	-26.0302
  64	1	7	-0.036788	3.14313	-9.99697	-26.5081
  65	1	2	0.039962	2.36362	-6.86551	-24.7031
  66	1	2	-0.445847	2.24544	-8.18959	-25.1733
  67	1	1	0.122566	1.60695	-6.44607	-24.0471
  68	1	1	0.163876	1.39065	-8.79584	-24.8807
  69	1	2	-0.180142	5.27871	-3.20028	-24.019
  70	1	1	0.144642	4.95839	-2.58773	-24.8566
  71	1	1	0.203463	1.65271	-12.0156	-27.2666
  72	1	2	-0.404697	2.02969	-12.1003	-26.2521
  73	1	2	-0.023572	1.68804	-13.2167	-25.4676
  74	1	1	0.153856	1.04201	-13.9936	-25.8738
  75	1	2	-0.109138	2.16451	-13.3204	-24.1481
  76	1	3	0.998761	1.70017	-14.7299	-23.124
  77	1	2	-0.03943	2.98108	-12.3059	-23.6192
  78	1	1	0.156851	3.34855	-12.3811	-22.5963
  79	1	2	-0.395833	3.30941	-11.1888	-24.4064
  80	1	1	0.202602	3.92992	-10.4061	-23.9836
  81	1	2	0.320255	2.82736	-11.0748	-25.7222
  82	1	4	-0.566353	1.7774	-14.3107	-21.7188
  83	1	4	-0.565639	0.482029	-15.2949	-23.7156
  84	1	1	0.171248	2.23692	-16.5737	-25.3272
  85	1	2	-0.142243	3.03888	-16.692	-24.6009
  86	1	2	-0.199349	4.07727	-17.6108	-24.8388
  87	1	1	0.156233	4.0986	-18.1959	-25.7526
  88	1	2	0.310144	5.10216	-17.7668	-23.8952
  89	1	5	-0.374171	6.15147	-18.6061	-24.1619
  90	1	1	0.18393	4.04277	-15.5243	-21.5411
  91	1	2	-0.1794	4.05447	-16.1	-22.4655
  92	1	2	-0.069637	3.03121	-15.9217	-23.4194
  93	1	1	0.24118	8.33103	-19.8176	-23.4694
  94	1	1	0.2544	10.6811	-18.9469	-23.8247
  95	1	2	-0.557237	8.50986	-18.8596	-23.9502
  96	1	2	-0.032586	9.81834	-18.3686	-24.1517
  97	1	2	0.370208	7.40918	-18.1053	-24.3811
  98	1	2	0.127886	10.029	-17.1271	-24.7849
  99	1	7	-0.036788	11.314	-16.6726	-24.9491
 100	1	2	0.039962	7.61518	-16.8635	-25.0174
 101	1	2	-0.445847	8.91931	-16.3675	-25.2082
 102	1	1	0.122566	6.76268	-16.2819	-25.3564
 103	1	1	0.163876	9.05542	-15.4013	-25.6852
 104	1	2	-0.180142	5.08379	-17.0264	-22.7042
 105	1	1	0.144642	5.87016	-17.1716	-21.9718
 106	1	1	0.203463	10.6518	-16.776	-27.5286
 107	1	2	-0.404697	11.2776	-15.9314	-27.2536
 108	1	2	-0.023572	11.6529	-14.9924	-28.2295
 109	1	1	0.153856	11.3209	-15.1118	-29.2601
 110	1	2	-0.109138	12.4591	-13.8972	-27.8728
 111	1	3	0.998761	12.8853	-12.6514	-29.1023
 112	1	2	-0.03943	12.9114	-13.7631	-26.5482
 113	1	1	0.156851	13.5474	-12.922	-26.2744
 114	1	2	-0.395833	12.5259	-14.7044	-25.5772
 115	1	1	0.202602	12.8596	-14.5902	-24.5503
 116	1	2	0.320255	11.6933	-15.7805	-25.9188
 117	1	4	-0.566353	14.153	-12.0356	-28.6943
 118	1	4	-0.565639	12.675	-13.2527	-30.4239
 119	1	1	0.171248	12.7993	-10.1306	-27.6094
 120	1	2	-0.142243	11.8177	-10.2825	-28.0574
 121	1	2	-0.199349	10.7975	-9.33797	-27.8503
 122	1	1	0.156233	10.9907	-8.45308	-27.254
 123	1	2	0.310144	9.52968	-9.53199	-28.4187
 124	1	5	-0.374171	8.52439	-8.63301	-28.1742
 125	1	1	0.18393	10.124	-12.465	-30.0777
 126	1	2	-0.1794	10.3071	-11.599	-29.4426
 127	1	2	-0.069637	11.5764	-11.4215	-28.852
 128	1	1	0.24118	7.43509	-10.5644	-26.7645
 129	1	1	0.2544	6.53381	-10.3176	-24.4186
 130	1	2	-0.557237	7.4641	-9.60292	-26.2588
 131	1	2	-0.032586	6.95649	-9.46296	-24.9495
 132	1	2	0.370208	8.02	-8.49069	-26.9106
 133	1	2	0.127886	7.0067	-8.21394	-24.2996
 134	1	7	-0.036788	6.58924	-8.10946	-23.0012
 135	1	2	0.039962	8.0581	-7.2388	-26.2676
 136	1	2	-0.445847	7.56643	-7.09819	-24.953
 137	1	1	0.122566	8.48324	-6.38771	-26.7913
 138	1	1	0.163876	7.60518	-6.13502	-24.4483
 139	1	2	-0.180142	9.28641	-10.6546	-29.2237
 140	1	1	0.144642	8.30813	-10.787	-29.676
 141	1	1	0.203463	9.19294	-8.68612	-23.1329
 142	1	2	-0.404697	8.75848	-8.76267	-22.1473
 143	1	2	-0.023572	9.56892	-9.17306	-21.0833
 144	1	1	0.153856	10.6201	-9.39747	-21.2532
 145	1	2	-0.109138	9.01709	-9.31605	-19.8037
 146	1	3	0.998761	10.0836	-9.88019	-18.4737
 147	1	2	-0.03943	7.65484	-9.03453	-19.5896
 148	1	1	0.156851	7.22241	-9.15719	-18.5966
 149	1	2	-0.395833	6.84994	-8.61856	-20.6677
 150	1	1	0.202602	5.79241	-8.42584	-20.5101
 151	1	2	0.320255	7.39227	-8.49258	-21.9564
 152	1	4	-0.566353	9.26464	-9.9716	-17.2608
 153	1	4	-0.565639	10.8446	-11.0126	-19.0154
 154	1	1	0.171248	12.7992	-9.39972	-19.5115
 155	1	2	-0.142243	12.4976	-8.52053	-18.9436
 156	1	2	-0.199349	13.3885	-7.43966	-18.7999
 157	1	1	0.156233	14.3774	-7.48502	-19.2474
 158	1	2	0.310144	13.0201	-6.32364	-18.0277
 159	1	5	-0.374171	13.886	-5.28355	-17.8016
 160	1	1	0.18393	9.90404	-7.34296	-17.0431
 161	1	2	-0.1794	10.8694	-7.36463	-17.5478
 162	1	2	-0.069637	11.2343	-8.48895	-18.3139
 163	1	1	0.24118	16.2887	-4.50943	-17.249
 164	1	1	0.2544	17.8972	-3.44371	-18.8307
 165	1	2	-0.557237	16.0173	-4.3679	-18.2933
 166	1	2	-0.032586	16.9225	-3.77135	-19.1948
 167	1	2	0.370208	14.7548	-4.77734	-18.7326
 168	1	2	0.127886	16.5607	-3.58408	-20.5488
 169	1	7	-0.036788	17.3853	-2.97875	-21.4647
 170	1	2	0.039962	14.3788	-4.56881	-20.0727
 171	1	2	-0.445847	15.2809	-3.98207	-20.9834
 172	1	1	0.122566	13.3785	-4.83708	-20.3884
 173	1	1	0.163876	14.9813	-3.81844	-22.015
 174	1	2	-0.180142	11.7666	-6.29274	-17.4022
 175	1	1	0.144642	11.5086	-5.44096	-16.7839
 176	1	1	0.203463	18.2041	-0.553436	-21.9257
 177	1	2	-0.404697	18.9807	-1.21189	-21.5546
 178	1	2	-0.023572	20.2918	-0.732335	-21.3973
 179	1	1	0.153856	20.5425	0.293797	-21.6525
 180	1	2	-0.109138	21.2995	-1.58527	-20.9258
 181	1	3	0.998761	22.985	-0.958957	-20.7996
 182	1	2	-0.03943	20.9922	-2.92234	-20.6111
 183	1	1	0.156851	21.779	-3.59274	-20.266
 184	1	2	-0.395833	19.6772	-3.39822	-20.7785
 185	1	1	0.202602	19.4542	-4.4412	-20.574
 186	1	2	0.320255	18.6639	-2.53973	-21.241
 187	1	4	-0.566353	23.8473	-2.09937	-20.4718
 188	1	4	-0.565639	23.2165	-0.109815	-21.9764
 189	1	1	0.171248	23.2214	-1.44251	-17.9229
 190	1	2	-0.142243	23.0794	-0.372494	-18.0673
 191	1	2	-0.199349	23.0733	0.48994	-16.9566
 192	1	1	0.156233	23.199	0.0937084	-15.9532
 193	1	2	0.310144	22.9134	1.87112	-17.1372
 194	1	5	-0.374171	22.9285	2.69099	-16.0382
 195	1	1	0.18393	22.6216	1.94892	-20.5441
 196	1	2	-0.1794	22.7427	1.53606	-19.5444
 197	1	2	-0.069637	22.9222	0.147675	-19.3678
 198	1	1	0.24118	25.1086	3.27947	-17.4905
 199	1	1	0.2544	26.4013	5.37699	-17.327
 200	1	2	-0.557237	24.7986	4.03919	-16.7777
 201	1	2	-0.032586	25.5452	5.22754	-16.6707
 202	1	2	0.370208	23.6694	3.8464	-15.9614
 203	1	2	0.127886	25.2045	6.21311	-15.7166
 204	1	7	-0.036788	25.9382	7.36748	-15.5715
 205	1	2	0.039962	23.3134	4.83468	-15.024
 206	1	2	-0.445847	24.0782	6.01501	-14.8955
 207	1	1	0.122566	22.4425	4.6729	-14.395
 208	1	1	0.163876	23.7968	6.76691	-14.1638
 209	1	2	-0.180142	22.7332	2.3929	-18.4301
 210	1	1	0.144642	22.6008	3.46306	-18.563
 211	1	1	0.203463	26.6122	9.312	-17.2
 212	1	2	-0.404697	27.4144	8.61071	-16.9927
 213	1	2	-0.023572	28.6447	8.73309	-17.6616
 214	1	1	0.153856	28.7983	9.54229	-18.3734
 215	1	2	-0.109138	29.6558	7.77911	-17.4466
 216	1	3	0.998761	31.2116	7.87519	-18.3451
 217	1	2	-0.03943	29.4459	6.72813	-16.537
 218	1	1	0.156851	30.2261	5.98639	-16.3737
 219	1	2	-0.395833	28.2172	6.62058	-15.8644
 220	1	1	0.202602	28.0449	5.79508	-15.1788
 221	1	2	0.320255	27.1833	7.53964	-16.1178
 222	1	4	-0.566353	31.482	6.54643	-18.9045
 223	1	4	-0.565639	31.1727	9.07478	-19.1901
 224	1	1	0.171248	33.1511	6.08811	-17.073
 225	1	2	-0.142243	33.2306	7.06159	-16.5913
 226	1	2	-0.199349	34.1465	7.24804	-15.5429
 227	1	1	0.156233	34.7754	6.4272	-15.211
 228	1	2	0.310144	34.2503	8.4976	-14.9129
 229	1	5	-0.374171	35.1624	8.67727	-13.9077
 230	1	1	0.18393	31.9083	10.2181	-16.719
 231	1	2	-0.1794	32.5327	9.38871	-16.3897
 232	1	2	-0.069637	32.418	8.13156	-17.0196
 233	1	1	0.24118	36.715	7.11937	-12.5114
 234	1	1	0.2544	39.1488	6.64761	-13.0274
 235	1	2	-0.557237	37.2156	7.59432	-13.3501
 236	1	2	-0.032586	38.5726	7.3355	-13.6432
 237	1	2	0.370208	36.4921	8.47897	-14.1619
 238	1	2	0.127886	39.1999	7.95349	-14.7443
 239	1	7	-0.036788	40.5153	7.6666	-15.0115
 240	1	2	0.039962	37.1191	9.11611	-15.2483
 241	1	2	-0.445847	38.4732	8.86553	-15.5364
 242	1	1	0.122566	36.5459	9.79992	-15.8642
 243	1	1	0.163876	38.9456	9.38127	-16.3679
 244	1	2	-0.180142	33.4471	9.56774	-15.3342
 245	1	1	0.144642	33.546	10.5325	-14.8445
 246	1	1	0.203463	42.8761	8.66834	-15.5484
 247	1	2	-0.404697	42.3438	8.30205	-16.421
 248	1	2	-0.023572	42.9181	8.42281	-17.6983
 249	1	1	0.153856	43.8988	8.8802	-17.8167
 250	1	2	-0.109138	42.2147	7.97294	-18.8294
 251	1	3	0.998761	42.8963	8.25781	-20.4714
 252	1	2	-0.03943	40.9595	7.35886	-18.6751
 253	1	1	0.156851	40.4225	6.98507	-19.5461
 254	1	2	-0.395833	40.3943	7.24033	-17.3945
 255	1	1	0.202602	39.4154	6.78327	-17.2783
 256	1	2	0.320255	41.0702	7.7349	-16.2641
 257	1	4	-0.566353	44.3221	7.92019	-20.4112
 258	1	4	-0.565639	41.971	7.67343	-21.449
 259	1	1	0.171248	40.7773	10.0565	-21.3926
 260	1	2	-0.142243	41.6017	10.6737	-21.0404
 261	1	2	-0.199349	41.4861	12.0755	-21.0473
 262	1	1	0.156233	40.5746	12.5513	-21.3949
 263	1	2	0.310144	42.5537	12.8685	-20.6005
 264	1	5	-0.374171	42.4226	14.2309	-20.5609
 265	1	1	0.18393	44.7863	10.4024	-19.8087
 266	1	2	-0.1794	43.8626	10.8687	-20.1498
 267	1	2	-0.069637	42.7858	10.0635	-20.5777
 268	1	1	0.24118	41.7961	13.1786	-18.1566
 269	1	1	0.2544	40.7302	14.439	-16.2905
 270	1	2	-0.557237	41.5861	14.2378	-18.2798
 271	1	2	-0.032586	40.9877	14.9508	-17.2193
 272	1	2	0.370208	41.8782	14.8966	-19.4895
 273	1	2	0.127886	40.6876	16.3194	-17.3587
 274	1	7	-0.036788	40.1071	16.9921	-16.3169
 275	1	2	0.039962	41.5889	16.2674	-19.6223
 276	1	2	-0.445847	40.997	16.9839	-18.5628
 277	1	1	0.122566	41.8238	16.7681	-20.5569
 278	1	1	0.163876	40.7945	18.0451	-18.6752
 279	1	2	-0.180142	43.7441	12.2697	-20.163
 280	1	1	0.144642	44.564	12.8955	-19.8237
 281	1	1	0.203463	37.7232	16.4003	-17.2618
 282	1	2	-0.404697	37.8709	17.4561	-17.0562
 283	1	2	-0.023572	36.836	18.3732	-17.3021
 284	1	1	0.153856	35.8825	18.03	-17.7004
 285	1	2	-0.109138	37.0348	19.7382	-17.0339
 286	1	3	0.998761	35.7394	20.9238	-17.433
 287	1	2	-0.03943	38.2567	20.1764	-16.4909
 288	1	1	0.156851	38.4039	21.2326	-16.2668
 289	1	2	-0.395833	39.2826	19.2478	-16.238
 290	1	1	0.202602	40.2279	19.5802	-15.8188
 291	1	2	0.320255	39.0963	17.8878	-16.5276
 292	1	4	-0.566353	35.9679	22.1203	-16.6155
 293	1	4	-0.565639	34.4679	20.1919	-17.4568
 294	1	1	0.171248	37.4893	22.9587	-18.5884
 295	1	2	-0.142243	37.0802	22.3748	-19.4115
 296	1	2	-0.199349	37.4581	22.6632	-20.7352
 297	1	1	0.156233	38.1651	23.4635	-20.927
 298	1	2	0.310144	36.9301	21.9104	-21.8011
 299	1	5	-0.374171	37.2843	22.1422	-23.1088
 300	1	1	0.18393	34.9155	19.7938	-20.0172
 301	1	2	-0.1794	35.6302	20.5914	-20.2142
 302	1	2	-0.069637	36.1696	21.3334	-19.1438
 303	1	1	0.24118	39.8269	22.7464	-23.0711
 304	1	1	0.2544	40.8233	24.8966	-23.9375
 305	1	2	-0.557237	39.1967	23.5322	-23.4802
 306	1	2	-0.032586	39.7456	24.7402	-23.9619
 307	1	2	0.370208	37.8102	23.3276	-23.5435
 308	1	2	0.127886	38.9045	25.7486	-24.4874
 309	1	7	-0.036788	39.3985	26.9251	-24.9924
 310	1	2	0.039962	36.9715	24.3206	-24.0802
 311	1	2	-0.445847	37.5161	25.5322	-24.5511
 312	1	1	0.122566	35.9017	24.1416	-24.1316
 313	1	1	0.163876	36.8636	26.2952	-24.9692
 314	1	2	-0.180142	36.0129	20.883	-21.5357
 315	1	1	0.144642	35.6079	20.3079	-22.3628
 316	1	1	0.203463	40.3659	27.1748	-22.5078
 317	1	2	-0.404697	41.0053	27.5684	-23.2933
 318	1	2	-0.023572	42.2226	28.1879	-22.955
 319	1	1	0.153856	42.5311	28.2585	-21.9122
 320	1	2	-0.109138	43.0277	28.7491	-23.9627
 321	1	3	0.998761	44.5729	29.5763	-23.537
 322	1	2	-0.03943	42.6058	28.699	-25.3033
 323	1	1	0.156851	43.2092	29.1664	-26.0803
 324	1	2	-0.395833	41.3927	28.0706	-25.6332
 325	1	1	0.202602	41.0588	28.0447	-26.6667
 326	1	2	0.320255	40.5888	27.5015	-24.6351
 327	1	4	-0.566353	44.5803	29.813	-22.0888
 328	1	4	-0.565639	44.7468	30.6505	-24.5207
 329	1	1	0.171248	45.7287	28.6516	-26.0555
 330	1	2	-0.142243	46.19	28.0765	-25.2548
 331	1	2	-0.199349	47.1584	27.103	-25.5569
 332	1	1	0.156233	47.4382	26.9112	-26.588
 333	1	2	0.310144	47.7804	26.3841	-24.5229
 334	1	5	-0.374171	48.7177	25.4249	-24.8098
 335	1	1	0.18393	46.212	27.818	-21.8405
 336	1	2	-0.1794	46.4653	27.6086	-22.8795
 337	1	2	-0.069637	45.8285	28.3251	-23.9151
 338	1	1	0.24118	46.4769	24.0398	-24.909
 339	1	1	0.2544	46.0017	22.1714	-26.504
 340	1	2	-0.557237	47.2175	23.7446	-25.6465
 341	1	2	-0.032586	46.9572	22.6923	-26.548
 342	1	2	0.370208	48.4576	24.4029	-25.6858
 343	1	2	0.127886	47.9268	22.3058	-27.5034
 344	1	7	-0.036788	47.7007	21.2881	-28.3986
 345	1	2	0.039962	49.4364	24.0024	-26.6139
 346	1	2	-0.445847	49.172	22.9602	-27.5274
 347	1	1	0.122566	50.395	24.5124	-26.6247
 348	1	1	0.163876	49.9307	22.6618	-28.2465
 349	1	2	-0.180142	47.4437	26.6446	-23.1864
 350	1	1	0.144642	47.9437	26.0951	-22.3945
 351	1	1	0.203463	46.9384	18.82	-27.9029
 352	1	2	-0.404697	46.1554	19.4589	-28.3023
 353	1	2	-0.023572	44.8515	18.9578	-28.4612
 354	1	1	0.153856	44.6223	17.9279	-28.1895
 355	1	2	-0.109138	43.8357	19.7944	-28.9574
 356	1	3	0.998761	42.1434	19.1863	-29.0591
 357	1	2	-0.03943	44.1341	21.1181	-29.3275
 358	1	1	0.156851	43.3507	21.7604	-29.7292
 359	1	2	-0.395833	45.4414	21.6097	-29.168
 360	1	1	0.202602	45.6741	22.6342	-29.4466
 361	1	2	0.320255	46.4529	20.7853	-28.647
 362	1	4	-0.566353	41.4003	20.086	-29.9486
 363	1	4	-0.565639	42.21	17.7342	-29.2546
 364	1	1	0.171248	40.8024	21.4616	-27.8005
 365	1	2	-0.142243	40.9551	20.7052	-27.0317
 366	1	2	-0.199349	40.5344	20.9467	-25.7115
 367	1	1	0.156233	40.0528	21.8842	-25.4541
 368	1	2	0.310144	40.7148	19.9663	-24.7251
 369	1	5	-0.374171	40.2944	20.2083	-23.4427
 370	1	1	0.18393	42.1969	17.5398	-26.6317
 371	1	2	-0.1794	41.739	18.494	-26.3726
 372	1	2	-0.069637	41.5629	19.4783	-27.3676
 373	1	1	0.24118	40.2252	19.7659	-20.8918
 374	1	1	0.2544	38.5157	18.3444	-19.6848
 375	1	2	-0.557237	39.4333	19.2605	-21.4362
 376	1	2	-0.032586	38.4753	18.467	-20.767
 377	1	2	0.370208	39.35	19.4254	-22.827
 378	1	2	0.127886	37.4457	17.8309	-21.4939
 379	1	7	-0.036788	36.4927	17.0765	-20.8644
 380	1	2	0.039962	38.3086	18.8048	-23.5498
 381	1	2	-0.445847	37.3585	18.0048	-22.8856
 382	1	1	0.122566	38.233	18.9517	-24.6231
 383	1	1	0.163876	36.5562	17.5317	-23.4465
 384	1	2	-0.180142	41.3154	18.74	-25.054
 385	1	1	0.144642	41.4503	17.9845	-24.2856
 386	1	1	0.203463	38.7749	15.6435	-20.8023
 387	1	2	-0.404697	38.0	15.3213	-20.1129
 388	1	2	-0.023572	38.24	14.2174	-19.2782
 389	1	1	0.153856	39.1944	13.6969	-19.3184
 390	1	2	-0.109138	37.246	13.7798	-18.3883
 391	1	3	0.998761	37.5696	12.3632	-17.327
 392	1	2	-0.03943	36.0001	14.4314	-18.354
 393	1	1	0.156851	35.2214	14.0872	-17.6735
 394	1	2	-0.395833	35.7662	15.5325	-19.1964
 395	1	1	0.202602	34.8027	16.035	-19.1729
 396	1	2	0.320255	36.7645	15.9935	-20.0692
 397	1	4	-0.566353	36.5045	12.3288	-16.3188
 398	1	4	-0.565639	38.9929	12.3897	-16.9664
 399	1	1	0.171248	39.4138	10.5735	-18.7645
 400	1	2	-0.142243	38.3952	10.3012	-19.0388
 401	1	2	-0.199349	38.17	9.25901	-19.9558
 402	1	1	0.156233	39.0037	8.7276	-20.4024
 403	1	2	0.310144	36.8652	8.89432	-20.3177
 404	1	5	-0.374171	36.725	7.88854	-21.2451
 405	1	1	0.18393	35.1386	11.1345	-18.3873
 406	1	2	-0.1794	35.9888	10.6132	-18.825
 407	1	2	-0.069637	37.3017	10.9854	-18.47
 408	1	1	0.24118	34.7736	6.67052	-19.9541
 409	1	1	0.2544	32.5997	5.94365	-20.9788
 410	1	2	-0.557237	34.5719	6.85274	-21.0054
 411	1	2	-0.032586	33.3516	6.44707	-21.587
 412	1	2	0.370208	35.534	7.49674	-21.7972
 413	1	2	0.127886	33.094	6.68377	-22.9571
 414	1	7	-0.036788	31.9177	6.29472	-23.5482
 415	1	2	0.039962	35.2955	7.70492	-23.1681
 416	1	2	-0.445847	34.0768	7.30214	-23.7516
 417	1	1	0.122566	36.0612	8.183	-23.7712
 418	1	1	0.163876	33.8976	7.46992	-24.8102
 419	1	2	-0.180142	35.771	9.57757	-19.7513
 420	1	1	0.144642	34.7532	9.3151	-20.0257
 421	1	1	0.203463	30.7928	8.1345	-21.9943
 422	1	2	-0.404697	30.2499	7.19429	-22.0563
 423	1	2	-0.023572	29.0843	7.01498	-21.2935
 424	1	1	0.153856	28.7302	7.81761	-20.6485
 425	1	2	-0.109138	28.4059	5.78358	-21.3289
 426	1	3	0.998761	26.9771	5.5156	-20.266
 427	1	2	-0.03943	28.8877	4.74224	-22.1425
 428	1	1	0.156851	28.3754	3.78171	-22.1559
 429	1	2	-0.395833	30.0494	4.93486	-22.9117
 430	1	1	0.202602	30.4346	4.12742	-23.5276
 431	1	2	0.320255	30.7449	6.15217	-22.8567
 432	1	4	-0.566353	27.251	4.30421	-19.4855
 433	1	4	-0.565639	26.6576	6.78371	-19.6006
 434	1	1	0.171248	25.9598	2.95826	-21.2989
 435	1	2	-0.142243	25.331	3.75443	-21.6958
 436	1	2	-0.199349	24.198	3.43024	-22.4629
 437	1	1	0.156233	23.9541	2.3911	-22.6709
 438	1	2	0.310144	23.3463	4.44783	-22.9183
 439	1	5	-0.374171	22.1606	4.12681	-23.5225
 440	1	1	0.18393	24.9729	7.1599	-21.6203
 441	1	2	-0.1794	24.7732	6.12087	-21.8786
 442	1	2	-0.069637	25.6148	5.1017	-21.3862
 443	1	1	0.24118	21.5375	4.94286	-21.0541
 444	1	1	0.2544	19.6058	4.09373	-19.7024
 445	1	2	-0.557237	20.8773	4.18811	-21.4707
 446	1	2	-0.032586	19.7946	3.70419	-20.7063
 447	1	2	0.370208	21.0892	3.70054	-22.7746
 448	1	2	0.127886	18.9502	2.70007	-21.2228
 449	1	7	-0.036788	17.955	2.14581	-20.4594
 450	1	2	0.039962	20.1918	2.76473	-23.3205
 451	1	2	-0.445847	19.1182	2.26714	-22.5522
 452	1	1	0.122566	20.3535	2.40893	-24.3335
 453	1	1	0.163876	18.4473	1.52821	-22.9786
 454	1	2	-0.180142	23.6433	5.79161	-22.6482
 455	1	1	0.144642	22.9645	6.56635	-22.9914
 456	1	1	0.203463	20.1172	2.036	-18.8127
 457	1	2	-0.404697	19.3275	1.32614	-18.6125
 458	1	2	-0.023572	19.4996	0.439658	-17.5396
 459	1	1	0.153856	20.4119	0.47388	-16.9492
 460	1	2	-0.109138	18.5059	-0.502297	-17.2379
 461	1	3	0.998761	18.7876	-1.70161	-15.9228
 462	1	2	-0.03943	17.3282	-0.537269	-18.0039
 463	1	1	0.156851	16.5582	-1.27171	-17.7737
 464	1	2	-0.395833	17.1632	0.361361	-19.0754
 465	1	1	0.202602	16.267	0.325443	-19.6809
 466	1	2	0.320255	18.1635	1.29288	-19.4003
 467	1	4	-0.566353	20.2358	-1.73952	-15.6952
 468	1	4	-0.565639	18.0269	-2.91157	-16.2566
 469	1	1	0.171248	19.4054	0.717135	-14.3782
 470	1	2	-0.142243	18.5557	0.226828	-13.9048
 471	1	2	-0.199349	17.9954	0.772508	-12.7354
 472	1	1	0.156233	18.4017	1.68628	-12.3125
 473	1	2	0.310144	16.9096	0.145596	-12.1059
 474	1	5	-0.374171	16.395	0.715476	-10.9623
 475	1	1	0.18393	16.5738	-2.54762	-14.1953
 476	1	2	-0.1794	16.9574	-1.6068	-13.8031
 477	1	2	-0.069637	18.0324	-0.962524	-14.4506
 478	1	1	0.24118	14.235	0.530889	-12.5093
 479	1	1	0.2544	11.8816	0.359134	-11.6863
 480	1	2	-0.557237	14.0283	0.53168	-11.4456
 481	1	2	-0.032586	12.7023	0.435549	-10.9738
 482	1	2	0.370208	15.0934	0.610433	-10.5304
 483	1	2	0.127886	12.43	0.438018	-9.58544
 484	1	7	-0.036788	11.1502	0.342657	-9.09436
 485	1	2	0.039962	14.8217	0.634501	-9.14933
 486	1	2	-0.445847	13.4959	0.547786	-8.67406
 487	1	1	0.122566	15.6494	0.715461	-8.45089
 488	1	1	0.163876	13.3001	0.559783	-7.60444
 489	1	2	-0.180142	16.4078	-1.0608	-12.6293
 490	1	1	0.144642	15.6029	-1.58061	-12.119
 491	1	1	0.203463	10.5003	-2.16967	-9.55118
 492	1	2	-0.404697	9.88182	-1.44412	-10.0732
 493	1	2	-0.023572	8.87047	-1.87851	-10.948
 494	1	1	0.153856	8.70085	-2.94322	-11.1067
 495	1	2	-0.109138	8.09109	-0.9349	-11.6407
 496	1	3	0.998761	6.89334	-1.50132	-12.8623
 497	1	2	-0.03943	8.30524	0.440667	-11.4332
 498	1	1	0.156851	7.7002	1.17413	-11.9661
 499	1	2	-0.395833	9.31147	0.865133	-10.547
 500	1	1	0.202602	9.48327	1.92679	-10.3885
 501	1	2	0.320255	10.1031	-0.074115	-9.86824
 502	1	4	-0.566353	6.28909	-2.74307	-12.3702
 503	1	4	-0.565639	6.09132	-0.341679	-13.2636
 504	1	1	0.171248	8.37494	0.124352	-14.797
 505	1	2	-0.142243	8.62177	-0.919141	-14.9874
 506	1	2	-0.199349	9.56926	-1.24956	-15.974
 507	1	1	0.156233	10.0469	-0.459517	-16.5404
 508	1	2	0.310144	9.91418	-2.59544	-16.1992
 509	1	5	-0.374171	10.8984	-2.97925	-17.0776
 510	1	1	0.18393	7.86774	-4.07012	-13.8834
 511	1	2	-0.1794	8.33847	-3.28029	-14.4689
 512	1	2	-0.069637	8.00869	-1.93279	-14.2232
 513	1	1	0.24118	9.64111	-1.62725	-18.9621
 514	1	1	0.2544	10.7657	-0.333865	-20.8054
 515	1	2	-0.557237	10.7232	-1.53813	-18.9958
 516	1	2	-0.032586	11.3605	-0.819732	-20.0314
 517	1	2	0.370208	11.4959	-2.19254	-18.0253
 518	1	2	0.127886	12.7679	-0.731369	-20.0762
 519	1	7	-0.036788	13.3854	0.00439889	-21.0562
 520	1	2	0.039962	12.8991	-2.11731	-18.0768
 521	1	2	-0.445847	13.5387	-1.38222	-19.0949
 522	1	1	0.122566	13.4849	-2.64204	-17.3274
 523	1	1	0.163876	14.6228	-1.34976	-19.1379
 524	1	2	-0.180142	9.28854	-3.60416	-15.4518
 525	1	1	0.144642	9.56012	-4.64061	-15.6237
 526	1	1	0.203463	13.4425	1.33994	-18.7376
 527	1	2	-0.404697	13.9188	1.84624	-19.5633
 528	1	2	-0.023572	14.4806	3.11308	-19.3478
 529	1	1	0.153856	14.4102	3.58352	-18.3671
 530	1	2	-0.109138	15.1365	3.77129	-20.398
 531	1	3	0.998761	15.809	5.42115	-20.1237
 532	1	2	-0.03943	15.2436	3.1441	-21.6546
 533	1	1	0.156851	15.7744	3.64092	-22.467
 534	1	2	-0.395833	14.6579	1.87975	-21.8618
 535	1	1	0.202602	14.7295	1.40462	-22.8361
 536	1	2	0.320255	13.9769	1.22504	-20.8224
 537	1	4	-0.566353	15.0968	5.98176	-18.9689
 538	1	4	-0.565639	17.2703	5.3291	-20.0806
 539	1	1	0.171248	17.2973	7.22628	-21.8879
 540	1	2	-0.142243	16.2837	7.14456	-22.2788
 541	1	2	-0.199349	15.9169	7.85389	-23.4375
 542	1	1	0.156233	16.6376	8.48305	-23.9503
 543	1	2	0.310144	14.6079	7.7622	-23.9335
 544	1	5	-0.374171	14.2549	8.44796	-25.0649
 545	1	1	0.18393	13.2958	5.58983	-21.6495
 546	1	2	-0.1794	14.0327	6.22071	-22.1421
 547	1	2	-0.069637	15.3393	6.3324	-21.6183
 548	1	1	0.24118	12.4289	9.06707	-26.783
 549	1	1	0.2544	11.054	11.1892	-26.7813
 550	1	2	-0.557237	12.5685	9.82542	-26.0191
 551	1	2	-0.032586	11.8039	11.0122	-26.0121
 552	1	2	0.370208	13.5226	9.60786	-25.0138
 553	1	2	0.127886	12.0077	11.9864	-25.0111
 554	1	7	-0.036788	11.2998	13.1585	-25.0039
 555	1	2	0.039962	13.7402	10.5907	-24.0259
 556	1	2	-0.445847	12.9894	11.7834	-24.0267
 557	1	1	0.122566	14.4902	10.4269	-23.2585
 558	1	1	0.163876	13.1602	12.5325	-23.2586
 559	1	2	-0.180142	13.6705	6.93584	-23.2975
 560	1	1	0.144642	12.6619	6.87147	-23.6955
 561	1	1	0.203463	10.0427	15.2452	-25.9255
 562	1	2	-0.404697	9.38302	14.437	-25.6228
 563	1	2	-0.023572	7.98939	14.5984	-25.7156
 564	1	1	0.153856	7.56814	15.5325	-26.0863
 565	1	2	-0.109138	7.13651	13.5594	-25.3059
 566	1	3	0.998761	5.35087	13.8209	-25.2919
 567	1	2	-0.03943	7.68435	12.3564	-24.8205
 568	1	1	0.156851	7.02661	11.5495	-24.501
 569	1	2	-0.395833	9.07969	12.2063	-24.7226
 570	1	1	0.202602	9.49594	11.289	-24.3079
 571	1	2	0.320255	9.93705	13.2478	-25.1242
 572	1	4	-0.566353	4.72294	12.4942	-25.2751
 573	1	4	-0.565639	5.00583	14.8595	-26.2689
 574	1	1	0.171248	5.62269	12.6333	-22.673
 575	1	2	-0.142243	5.38185	13.6843	-22.5248
 576	1	2	-0.199349	5.36181	14.2172	-21.2296
 577	1	1	0.156233	5.59287	13.5655	-20.3944
 578	1	2	0.310144	5.08213	15.5815	-21.0206
 579	1	5	-0.374171	5.19524	16.1305	-19.7628
 580	1	1	0.18393	4.61916	16.5169	-24.2832
 581	1	2	-0.1794	4.81337	15.8718	-23.4266
 582	1	2	-0.069637	5.13554	14.5127	-23.633
 583	1	1	0.24118	7.65766	16.905	-20.1592
 584	1	1	0.2544	9.68606	15.7254	-19.2157
 585	1	2	-0.557237	7.54952	16.1265	-19.4095
 586	1	2	-0.032586	8.67845	15.4527	-18.8989
 587	1	2	0.370208	6.26518	15.7256	-19.011
 588	1	2	0.127886	8.51013	14.3528	-18.0369
 589	1	7	-0.036788	9.58439	13.5681	-17.7281
 590	1	2	0.039962	6.1029	14.6939	-18.0688
 591	1	2	-0.445847	7.22403	13.9827	-17.6016
 592	1	1	0.122566	5.10203	14.3875	-17.7882
 593	1	1	0.163876	7.0963	13.1401	-16.9329
 594	1	2	-0.180142	4.78036	16.4005	-22.1197
 595	1	1	0.144642	4.57038	17.4534	-21.9572
 596	1	1	0.203463	11.876	12.3269	-17.5512
 597	1	2	-0.404697	11.2438	11.9645	-18.3584
 598	1	2	-0.023572	11.698	10.9271	-19.1914
 599	1	1	0.153856	12.6854	10.4936	-19.0326
 600	1	2	-0.109138	10.8863	10.4674	-20.2437
 601	1	3	0.998761	11.4992	9.19411	-21.3586
 602	1	2	-0.03943	9.62255	11.0443	-20.455
 603	1	1	0.156851	9.00187	10.7093	-21.285
 604	1	2	-0.395833	9.17425	12.0743	-19.6112
 605	1	1	0.202602	8.19908	12.5158	-19.7942
 606	1	2	0.320255	9.98826	12.5528	-18.5624
 607	1	4	-0.566353	12.9582	9.33286	-21.3883
 608	1	4	-0.565639	10.6674	9.22238	-22.5687
 609	1	1	0.171248	9.15525	7.41825	-21.3384
 610	1	2	-0.142243	9.90411	6.98761	-20.6746
 611	1	2	-0.199349	9.6475	5.76661	-20.0226
 612	1	1	0.156233	8.69932	5.26337	-20.1787
 613	1	2	0.310144	10.6137	5.18184	-19.1868
 614	1	5	-0.374171	10.3101	3.98341	-18.5715
 615	1	1	0.18393	13.0875	7.53015	-19.5541
 616	1	2	-0.1794	12.1142	7.04954	-19.6707
 617	1	2	-0.069637	11.1361	7.64493	-20.489
 618	1	1	0.24118	11.265	5.22953	-16.4096
 619	1	1	0.2544	12.8641	4.20257	-14.769
 620	1	2	-0.557237	11.529	4.18005	-16.484
 621	1	2	-0.032586	12.3985	3.59259	-15.5432
 622	1	2	0.370208	11.0052	3.40559	-17.5322
 623	1	2	0.127886	12.7077	2.2194	-15.6209
 624	1	7	-0.036788	13.6858	1.68933	-14.8247
 625	1	2	0.039962	11.2256	2.01546	-17.5399
 626	1	2	-0.445847	12.0784	1.41568	-16.5867
 627	1	1	0.122566	10.7846	1.41913	-18.3319
 628	1	1	0.163876	12.3077	0.355565	-16.6452
 629	1	2	-0.180142	11.8636	5.81381	-19.0484
 630	1	1	0.144642	12.65	5.35344	-18.4605
 631	1	1	0.203463	15.1994	1.59234	-16.9883
 632	1	2	-0.404697	15.6361	2.13379	-16.1558
 633	1	2	-0.023572	16.8643	2.79431	-16.3245
 634	1	1	0.153856	17.3641	2.78348	-17.2896
 635	1	2	-0.109138	17.4308	3.50366	-15.2537
 636	1	3	0.998761	18.9219	4.48849	-15.5085
 637	1	2	-0.03943	16.7704	3.53252	-14.0107
 638	1	1	0.156851	17.2091	4.08016	-13.1783
 639	1	2	-0.395833	15.5303	2.88582	-13.8545
 640	1	1	0.202602	15.0106	2.9353	-12.9013
 641	1	2	0.320255	14.9534	2.19563	-14.9309
 642	1	4	-0.566353	19.7213	4.37101	-14.283
 643	1	4	-0.565639	19.458	4.19367	-16.8455
 644	1	1	0.171248	17.9413	6.218	-17.6659
 645	1	2	-0.142243	17.7323	6.71329	-16.7185
 646	1	2	-0.199349	16.9755	7.89856	-16.7013
 647	1	1	0.156233	16.6011	8.32206	-17.629
 648	1	2	0.310144	16.6242	8.49087	-15.4772
 649	1	5	-0.374171	15.7651	9.55906	-15.434
 650	1	1	0.18393	18.2365	6.35657	-13.3495
 651	1	2	-0.1794	17.8864	6.7851	-14.2873
 652	1	2	-0.069637	18.1696	6.13658	-15.5087
 653	1	1	0.24118	14.4525	7.47055	-16.5534
 654	1	1	0.2544	11.9943	7.40677	-16.9524
 655	1	2	-0.557237	13.835	8.30732	-16.2391
 656	1	2	-0.032586	12.4467	8.26437	-16.4681
 657	1	2	0.370208	14.4072	9.44852	-15.6397
 658	1	2	0.127886	11.6193	9.3337	-16.0929
 659	1	7	-0.036788	10.3011	9.28904	-16.4461
 660	1	2	0.039962	13.5722	10.5157	-15.2497
 661	1	2	-0.445847	12.1785	10.4623	-15.4665