pySIMM System Object

877 atoms
951 bonds
1550 angles
2298 dihedrals
300 impropers

7 atom types
7 bond types
11 angle types
4 dihedral types
1 improper types

-147.859751 147.859751 xlo xhi
-147.859751 147.859751 ylo yhi
-147.859751 147.859751 zlo zhi

Masses

   1	1.008	# ha
   2	12.01	# ca
   3	32.06	# sy
   4	16.0	# o
   5	16.0	# os
   6	1.008	# ho
   7	16.0	# oh

Pair Coeffs

   1	0.015	2.59964245953351	# ha
   2	0.086	3.3996695084235347	# ca
   3	0.25	3.563594872561357	# sy
   4	0.21	2.959921901149463	# o
   5	0.17	3.0000123434657784	# os
   6	0.0	0.0	# ho
   7	0.2104	3.0664733878390478	# oh

Bond Coeffs

   1	493.0	1.466	# o,sy
   2	345.8	1.086	# ca,ha
   3	384.0	1.3637	# ca,oh
   4	376.6	1.3696	# ca,os
   5	371.4	0.973	# ho,oh
   6	243.4	1.7909	# ca,sy
   7	461.1	1.3984	# ca,ca

Angle Coeffs

   1	48.18	119.88	# ca,ca,ha
   2	61.48	119.42	# ca,ca,sy
   3	72.54	121.41	# o,sy,o
   4	69.58	119.2	# ca,ca,os
   5	60.3	104.44	# ca,sy,ca
   6	49.0	108.58	# ca,oh,ho
   7	65.77	108.35	# ca,sy,o
   8	63.48	119.89	# ca,os,ca
   9	69.52	119.9	# ca,ca,oh
  10	66.62	120.02	# ca,ca,ca
  11	63.5	119.89	# ca,oh,ca

Dihedral Coeffs

   1	1	0.9	2	180	# X,ca,os,X
   2	1	0.9	2	180	# X,ca,oh,X
   3	1	3.625	2	180	# X,ca,ca,X
   4	1	1.3	2	180	# X,ca,sy,X

Improper Coeffs

   1	1.1	-1	2	# ca,X,X,ha

Atoms

   1	1	1	0.203463	11.7251	22.8531	-15.9716
   2	1	2	-0.404697	11.1608	23.6496	-15.4954
   3	1	2	-0.023572	9.8833	23.9997	-15.9714
   4	1	1	0.153856	9.45944	23.4741	-16.8254
   5	1	2	-0.109138	9.15495	25.0332	-15.3496
   6	1	3	0.998761	7.49444	25.4557	-15.9357
   7	1	2	-0.03943	9.72164	25.7198	-14.2584
   8	1	1	0.156851	9.16731	26.5244	-13.7758
   9	1	2	-0.395833	11.0043	25.368	-13.7953
  10	1	1	0.202602	11.4479	25.8978	-12.9573
  11	1	2	0.320255	11.7249	24.3331	-14.4088
  12	1	4	-0.566353	7.14642	26.8086	-15.4874
  13	1	4	-0.565639	7.43882	25.0911	-17.3561
  14	1	1	0.171248	5.43254	25.6974	-13.8145
  15	1	2	-0.142243	5.53991	24.6436	-14.0717
  16	1	2	-0.199349	4.75743	23.6767	-13.4099
  17	1	1	0.156233	4.0456	23.9756	-12.6436
  18	1	2	0.310144	4.88218	22.3172	-13.7354
  19	1	5	-0.374171	4.12121	21.3978	-13.0534
  20	1	1	0.18393	7.26317	22.5698	-16.1759
  21	1	2	-0.1794	6.56928	22.8824	-15.3995
  22	1	2	-0.069637	6.45185	24.2485	-15.0732
  23	1	1	0.24118	3.38254	20.928	-15.5725
  24	1	1	0.2544	2.46822	18.7276	-16.4101
  25	1	2	-0.557237	3.30023	20.0716	-14.9094
  26	1	2	-0.032586	2.78999	18.841	-15.3765
  27	1	2	0.370208	3.67472	20.2004	-13.5573
  28	1	2	0.127886	2.62579	17.7555	-14.4921
  29	1	7	-0.036788	2.01122	16.6074	-14.9107
  30	1	2	0.039962	3.53223	19.1057	-12.6839
  31	1	2	-0.445847	3.01268	17.8802	-13.1474
  32	1	1	0.122566	3.80788	19.2234	-11.6399
  33	1	1	0.163876	2.87488	17.05	-12.4589
  34	1	2	-0.180142	5.8045	21.9208	-14.7195
  35	1	1	0.144642	5.9279	20.8686	-14.9549
  36	1	1	0.203463	0.716423	14.369	-15.2962
  37	1	2	-0.404697	0.0769332	15.2452	-15.2632
  38	1	2	-0.023572	-1.31182	15.099	-15.4283
  39	1	1	0.153856	-1.74384	14.1123	-15.5922
  40	1	2	-0.109138	-2.14271	16.2318	-15.3772
  41	1	3	0.998761	-3.91669	16.0854	-15.6418
  42	1	2	-0.03943	-1.58456	17.4993	-15.1452
  43	1	1	0.156851	-2.23034	18.3741	-15.083
  44	1	2	-0.395833	-0.197628	17.6358	-14.9826
  45	1	1	0.202602	0.204522	18.6228	-14.7819
  46	1	2	0.320255	0.647543	16.5095	-15.05
  47	1	4	-0.566353	-4.27563	14.6656	-15.5617
  48	1	4	-0.565639	-4.55125	17.1275	-14.8271
  49	1	1	0.171248	-4.00369	14.6109	-18.1784
  50	1	2	-0.142243	-4.02798	15.6749	-18.4116
  51	1	2	-0.199349	-4.0461	16.1056	-19.7514
  52	1	1	0.156233	-4.03246	15.3826	-20.5615
  53	1	2	0.310144	-4.06665	17.4756	-20.0535
  54	1	5	-0.374171	-4.02751	17.8677	-21.3702
  55	1	1	0.18393	-4.13525	18.7275	-16.8659
  56	1	2	-0.1794	-4.09867	17.9941	-17.6707
  57	1	2	-0.069637	-4.04003	16.6199	-17.366
  58	1	1	0.24118	-1.47881	18.406	-21.5117
  59	1	1	0.2544	-0.500554	20.7008	-21.9142
  60	1	2	-0.557237	-2.11874	19.2604	-21.7148
  61	1	2	-0.032586	-1.57804	20.5441	-21.9438
  62	1	2	0.370208	-3.51079	19.0849	-21.7221
  63	1	2	0.127886	-2.42881	21.6448	-22.1882
  64	1	7	-0.036788	-1.9347	22.9129	-22.3619
  65	1	2	0.039962	-4.36324	20.1789	-21.959
  66	1	2	-0.445847	-3.82429	21.462	-22.183
  67	1	1	0.122566	-5.43888	20.0303	-21.9291
  68	1	1	0.163876	-4.48688	22.3095	-22.3411
  69	1	2	-0.180142	-4.11002	18.4194	-19.0088
  70	1	1	0.144642	-4.14744	19.482	-19.2277
  71	1	1	0.203463	-0.787993	25.2461	-22.3343
  72	1	2	-0.404697	-0.388424	24.5772	-23.0913
  73	1	2	-0.023572	0.609797	25.0351	-23.9723
  74	1	1	0.153856	0.982151	26.0555	-23.8943
  75	1	2	-0.109138	1.11081	24.1785	-24.9688
  76	1	3	0.998761	2.35973	24.754	-26.1427
  77	1	2	-0.03943	0.595964	22.8746	-25.0851
  78	1	1	0.156851	0.960603	22.2193	-25.8761
  79	1	2	-0.395833	-0.417185	22.4327	-24.2152
  80	1	1	0.202602	-0.843286	21.4454	-24.3655
  81	1	2	0.320255	-0.914917	23.2801	-23.2071
  82	1	4	-0.566353	2.96749	23.5472	-26.7124
  83	1	4	-0.565639	1.74057	25.7714	-26.9983
  84	1	1	0.171248	3.52382	27.4492	-26.2505
  85	1	2	-0.142243	3.98429	26.923	-25.4146
  86	1	2	-0.199349	4.95262	27.5702	-24.6248
  87	1	1	0.156233	5.23686	28.5981	-24.8311
  88	1	2	0.310144	5.54127	26.8957	-23.5458
  89	1	5	-0.374171	6.38566	27.5692	-22.7028
  90	1	1	0.18393	3.96032	23.876	-23.8534
  91	1	2	-0.1794	4.22807	24.9103	-24.0619
  92	1	2	-0.069637	3.6104	25.5919	-25.1307
  93	1	1	0.24118	7.9715	27.7531	-20.6485
  94	1	1	0.2544	7.2504	28.2657	-18.2736
  95	1	2	-0.557237	6.93226	27.9629	-20.4126
  96	1	2	-0.032586	6.52778	28.2543	-19.09
  97	1	2	0.370208	5.97521	27.9092	-21.4364
  98	1	2	0.127886	5.17167	28.5014	-18.7989
  99	1	7	-0.036788	4.78462	28.7594	-17.5124
 100	1	2	0.039962	4.61952	28.178	-21.1454
 101	1	2	-0.445847	4.21458	28.4738	-19.8303
 102	1	1	0.122566	3.87936	28.151	-21.9386
 103	1	1	0.163876	3.16807	28.6713	-19.6134
 104	1	2	-0.180142	5.18384	25.5673	-23.2656
 105	1	1	0.144642	5.6474	25.0575	-22.426
 106	1	1	0.203463	2.8056	29.6497	-16.0291
 107	1	2	-0.404697	2.85786	28.5669	-16.0961
 108	1	2	-0.023572	1.91173	27.7728	-15.4223
 109	1	1	0.153856	1.1221	28.2395	-14.8336
 110	1	2	-0.109138	1.99139	26.3705	-15.5002
 111	1	3	0.998761	0.777972	25.3446	-14.6495
 112	1	2	-0.03943	3.01621	25.7686	-16.2532
 113	1	1	0.156851	3.09331	24.6845	-16.306
 114	1	2	-0.395833	3.94226	26.5694	-16.9413
 115	1	1	0.202602	4.73314	26.1061	-17.5257
 116	1	2	0.320255	3.871	27.9712	-16.8643
 117	1	4	-0.566353	1.46381	24.6932	-13.5277
 118	1	4	-0.565639	-0.413443	26.1759	-14.4472
 119	1	1	0.171248	1.32274	22.4622	-14.7451
 120	1	2	-0.142243	0.828112	22.7373	-15.6775
 121	1	2	-0.199349	0.607583	21.7678	-16.6719
 122	1	1	0.156233	0.927322	20.7483	-16.4962
 123	1	2	0.310144	-0.019688	22.1211	-17.8826
 124	1	5	-0.374171	-0.227612	21.2104	-18.8929
 125	1	1	0.18393	-0.58108	25.4375	-17.2366
 126	1	2	-0.1794	-0.246578	24.4122	-17.0813
 127	1	2	-0.069637	0.409952	24.0674	-15.8823
 128	1	1	0.24118	2.2483	20.6689	-19.5319
 129	1	1	0.2544	3.27326	18.36	-19.5392
 130	1	2	-0.557237	1.66675	19.7965	-19.2432
 131	1	2	-0.032586	2.23364	18.5049	-19.2445
 132	1	2	0.370208	0.319655	19.9569	-18.8901
 133	1	2	0.127886	1.47629	17.3807	-18.856
 134	1	7	-0.036788	2.12567	16.17	-18.854
 135	1	2	0.039962	-0.447219	18.843	-18.5079
 136	1	2	-0.445847	0.131264	17.5579	-18.4652
 137	1	1	0.122566	-1.48446	18.9891	-18.2264
 138	1	1	0.163876	-0.477002	16.7255	-18.1231
 139	1	2	-0.180142	-0.455303	23.4402	-18.0771
 140	1	1	0.144642	-0.950347	23.7052	-19.0065
 141	1	1	0.203463	3.54866	14.6241	-17.338
 142	1	2	-0.404697	2.57843	14.2098	-17.5932
 143	1	2	-0.023572	2.24314	12.9137	-17.1674
 144	1	1	0.153856	2.95208	12.3274	-16.5848
 145	1	2	-0.109138	0.998491	12.3632	-17.5156
 146	1	3	0.998761	0.588703	10.6893	-16.9878
 147	1	2	-0.03943	0.108127	13.0993	-18.3191
 148	1	1	0.156851	-0.839947	12.6561	-18.6235
 149	1	2	-0.395833	0.465343	14.3853	-18.766
 150	1	1	0.202602	-0.200618	14.9245	-19.4328
 151	1	2	0.320255	1.69043	14.9588	-18.3812
 152	1	4	-0.566353	-0.704155	10.3389	-17.5857
 153	1	4	-0.565639	1.80335	9.89241	-17.1934
 154	1	1	0.171248	2.47225	10.501	-14.7523
 155	1	2	-0.142243	1.49088	10.7218	-14.3363
 156	1	2	-0.199349	1.33041	10.8304	-12.9429
 157	1	1	0.156233	2.18702	10.6963	-12.2889
 158	1	2	0.310144	0.056552	11.071	-12.396
 159	1	5	-0.374171	-0.146984	11.1644	-11.041
 160	1	1	0.18393	-1.76691	11.1633	-15.2931
 161	1	2	-0.1794	-0.896499	11.0907	-14.6413
 162	1	2	-0.069637	0.37957	10.8574	-15.1942
 163	1	1	0.24118	1.16209	9.44854	-9.58168
 164	1	1	0.2544	2.97585	10.0062	-7.93706
 165	1	2	-0.557237	1.47245	10.4792	-9.42607
 166	1	2	-0.032586	2.48642	10.8031	-8.50028
 167	1	2	0.370208	0.845021	11.4946	-10.1579
 168	1	2	0.127886	2.85871	12.1535	-8.29664
 169	1	7	-0.036788	3.8409	12.5219	-7.41131
 170	1	2	0.039962	1.2296	12.8357	-9.97861
 171	1	2	-0.445847	2.23871	13.1676	-9.05186
 172	1	1	0.122566	0.735482	13.6112	-10.5559
 173	1	1	0.163876	2.52691	14.2062	-8.91097
 174	1	2	-0.180142	-1.05232	11.194	-13.2467
 175	1	1	0.144642	-2.03554	11.3581	-12.8152
 176	1	1	0.203463	2.25087	11.1815	-5.71212
 177	1	2	-0.404697	3.31358	11.1322	-5.49027
 178	1	2	-0.023572	3.75297	10.4188	-4.36107
 179	1	1	0.153856	3.03146	9.91308	-3.72048
 180	1	2	-0.109138	5.12217	10.3858	-4.04048
 181	1	3	0.998761	5.68582	9.52647	-2.56002
 182	1	2	-0.03943	6.0453	11.0762	-4.84583
 183	1	1	0.156851	7.10172	11.0797	-4.58044
 184	1	2	-0.395833	5.59778	11.7805	-5.9771
 185	1	1	0.202602	6.3072	12.3252	-6.59309
 186	1	2	0.320255	4.23581	11.8052	-6.31185
 187	1	4	-0.566353	6.90167	10.2022	-2.09153
 188	1	4	-0.565639	4.51222	9.33034	-1.70162
 189	1	1	0.171248	4.15787	7.1229	-3.25641
 190	1	2	-0.142243	5.21325	6.89023	-3.39132
 191	1	2	-0.199349	5.60954	5.58822	-3.7525
 192	1	1	0.156233	4.8678	4.80974	-3.90092
 193	1	2	0.310144	6.97148	5.27445	-3.87451
 194	1	5	-0.374171	7.33822	3.97923	-4.15333
 195	1	1	0.18393	8.30569	8.33453	-3.119
 196	1	2	-0.1794	7.54882	7.57594	-3.31574
 197	1	2	-0.069637	6.18298	7.88685	-3.15531
 198	1	1	0.24118	8.1081	4.1041	-1.62565
 199	1	1	0.2544	10.273	3.16801	-0.726814
 200	1	2	-0.557237	8.79288	3.56899	-2.27845
 201	1	2	-0.032586	10.0038	3.04556	-1.77686
 202	1	2	0.370208	8.48799	3.42886	-3.64479
 203	1	2	0.127886	10.888	2.35882	-2.63377
 204	1	7	-0.036788	12.0567	1.83707	-2.15331
 205	1	2	0.039962	9.36977	2.73974	-4.49673
 206	1	2	-0.445847	10.57	2.20058	-3.99376
 207	1	1	0.122566	9.12103	2.63745	-5.54796
 208	1	1	0.163876	11.2472	1.66395	-4.65356
 209	1	2	-0.180142	7.93937	6.27689	-3.68055
 210	1	1	0.144642	8.99496	6.04106	-3.77886
 211	1	1	0.203463	10.0646	0.191125	-1.40565
 212	1	2	-0.404697	10.9926	0.082676	-0.852906
 213	1	2	-0.023572	11.0894	-0.906176	0.138149
 214	1	1	0.153856	10.2395	-1.55011	0.351672
 215	1	2	-0.109138	12.2982	-1.09087	0.828601
 216	1	3	0.998761	12.4417	-2.42985	2.01509
 217	1	2	-0.03943	13.4117	-0.290033	0.523656
 218	1	1	0.156851	14.3569	-0.438872	1.04425
 219	1	2	-0.395833	13.3068	0.690849	-0.475168
 220	1	1	0.202602	14.1683	1.31071	-0.713607
 221	1	2	0.320255	12.104	0.887786	-1.16644
 222	1	4	-0.566353	13.5929	-2.12909	2.87689
 223	1	4	-0.565639	11.0942	-2.67388	2.54306
 224	1	1	0.171248	15.0163	-3.51266	1.14489
 225	1	2	-0.142243	14.2351	-4.0732	0.633577
 226	1	2	-0.199349	14.5784	-5.06776	-0.300211
 227	1	1	0.156233	15.6213	-5.281	-0.515962
 228	1	2	0.310144	13.5695	-5.78008	-0.969948
 229	1	5	-0.374171	13.8871	-6.75751	-1.87643
 230	1	1	0.18393	10.8196	-4.293	0.415386
 231	1	2	-0.1794	11.8714	-4.50716	0.221442
 232	1	2	-0.069637	12.8795	-3.78824	0.899219
 233	1	1	0.24118	15.0807	-8.19033	-3.65012
 234	1	1	0.2544	16.5348	-10.2069	-3.19493
 235	1	2	-0.557237	15.263	-8.53346	-2.63551
 236	1	2	-0.032586	16.0732	-9.65869	-2.3757
 237	1	2	0.370208	14.6707	-7.84231	-1.56981
 238	1	2	0.127886	16.3007	-10.0892	-1.05388
 239	1	7	-0.036788	17.0828	-11.1964	-0.848331
 240	1	2	0.039962	14.8647	-8.29387	-0.245227
 241	1	2	-0.445847	15.677	-9.41584	0.015403
 242	1	1	0.122566	14.3793	-7.78149	0.579845
 243	1	1	0.163876	15.8104	-9.76199	1.03795
 244	1	2	-0.180142	12.2207	-5.49727	-0.714377
 245	1	1	0.144642	11.4494	-6.05009	-1.24335
 246	1	1	0.203463	18.0561	-13.488	-0.10801
 247	1	2	-0.404697	18.4825	-12.6429	0.423596
 248	1	2	-0.023572	19.4802	-12.858	1.38959
 249	1	1	0.153856	19.8261	-13.8674	1.6076
 250	1	2	-0.109138	20.0358	-11.7668	2.07761
 251	1	3	0.998761	21.2822	-12.0631	3.34297
 252	1	2	-0.03943	19.6009	-10.4612	1.78747
 253	1	1	0.156851	20.0388	-9.6129	2.31281
 254	1	2	-0.395833	18.6102	-10.2544	0.810364
 255	1	1	0.202602	18.2948	-9.24151	0.579347
 256	1	2	0.320255	18.0319	-11.3459	0.1334
 257	1	4	-0.566353	22.1337	-13.1602	2.86811
 258	1	4	-0.565639	21.8218	-10.7599	3.74792
 259	1	1	0.171248	19.6061	-10.7565	5.35054
 260	1	2	-0.142243	19.536	-11.8314	5.51009
 261	1	2	-0.199349	18.7188	-12.3335	6.5373
 262	1	1	0.156233	18.1482	-11.6453	7.15403
 263	1	2	0.310144	18.6452	-13.7179	6.7717
 264	1	5	-0.374171	17.8758	-14.2342	7.78545
 265	1	1	0.18393	20.7436	-14.7933	4.29232
 266	1	2	-0.1794	20.1762	-14.105	4.91692
 267	1	2	-0.069637	20.2694	-12.7149	4.69443
 268	1	1	0.24118	15.5559	-13.2847	8.45687
 269	1	1	0.2544	15.1017	-11.8445	10.4846
 270	1	2	-0.557237	16.3386	-13.0632	9.17627
 271	1	2	-0.032586	16.0904	-12.2654	10.3124
 272	1	2	0.370208	17.637	-13.5296	8.93462
 273	1	2	0.127886	17.1271	-11.974	11.2214
 274	1	7	-0.036788	16.8816	-11.1249	12.2641
 275	1	2	0.039962	18.6784	-13.2355	9.83704
 276	1	2	-0.445847	18.4249	-12.4678	10.9924
 277	1	1	0.122566	19.6821	-13.5888	9.62214
 278	1	1	0.163876	19.235	-12.2202	11.6714
 279	1	2	-0.180142	19.3652	-14.6009	5.95401
 280	1	1	0.144642	19.2967	-15.6687	6.13681
 281	1	1	0.203463	15.8663	-9.61003	14.0891
 282	1	2	-0.404697	16.2089	-10.5675	14.47
 283	1	2	-0.023572	15.9948	-10.9017	15.8173
 284	1	1	0.153856	15.4778	-10.2046	16.4764
 285	1	2	-0.109138	16.385	-12.165	16.2945
 286	1	3	0.998761	15.9255	-12.6691	17.9638
 287	1	2	-0.03943	17.006	-13.0789	15.4229
 288	1	1	0.156851	17.2741	-14.0724	15.7803
 289	1	2	-0.395833	17.2152	-12.7337	14.0745
 290	1	1	0.202602	17.6577	-13.4611	13.399
 291	1	2	0.320255	16.7919	-11.4843	13.5831
 292	1	4	-0.566353	15.5891	-14.0936	17.8717
 293	1	4	-0.565639	14.9858	-11.67	18.4853
 294	1	1	0.171248	18.1258	-14.5518	18.3787
 295	1	2	-0.142243	18.3222	-13.6777	18.9974
 296	1	2	-0.199349	19.399	-13.6887	19.9018
 297	1	1	0.156233	20.0479	-14.5564	19.9735
 298	1	2	0.310144	19.5983	-12.6052	20.7706
 299	1	5	-0.374171	20.5307	-12.6954	21.7722
 300	1	1	0.18393	16.9847	-10.6281	19.7948
 301	1	2	-0.1794	17.679	-11.4679	19.797
 302	1	2	-0.069637	17.4429	-12.5758	18.9547
 303	1	1	0.24118	22.4637	-13.4618	23.3077
 304	1	1	0.2544	22.2706	-15.0356	25.2747
 305	1	2	-0.557237	21.5085	-13.899	23.5832
 306	1	2	-0.032586	21.3935	-14.7837	24.6802
 307	1	2	0.370208	20.3726	-13.5638	22.8303
 308	1	2	0.127886	20.1387	-15.3343	25.026
 309	1	7	-0.036788	19.9686	-16.155	26.1113
 310	1	2	0.039962	19.1165	-14.1068	23.1855
 311	1	2	-0.445847	19.0004	-14.9879	24.2785
 312	1	1	0.122566	18.227	-13.8409	22.6223
 313	1	1	0.163876	18.028	-15.3938	24.548
 314	1	2	-0.180142	18.757	-11.4848	20.702
 315	1	1	0.144642	18.9059	-10.6617	21.3947
 316	1	1	0.203463	21.3418	-18.0902	24.9084
 317	1	2	-0.404697	21.6068	-17.9223	25.9488
 318	1	2	-0.023572	22.5518	-18.7558	26.5762
 319	1	1	0.153856	23.0284	-19.5633	26.0209
 320	1	2	-0.109138	22.8539	-18.5727	27.9379
 321	1	3	0.998761	24.0214	-19.6745	28.7581
 322	1	2	-0.03943	22.2117	-17.5558	28.6674
 323	1	1	0.156851	22.4246	-17.4285	29.7286
 324	1	2	-0.395833	21.2623	-16.7349	28.035
 325	1	1	0.202602	20.7373	-15.9742	28.6059
 326	1	2	0.320255	20.9509	-16.9181	26.6802
 327	1	4	-0.566353	23.94	-20.9812	28.0961
 328	1	4	-0.565639	23.8321	-19.4994	30.2024
 329	1	1	0.171248	25.4611	-17.3568	29.7945
 330	1	2	-0.142243	26.0775	-17.8013	29.0148
 331	1	2	-0.199349	27.3326	-17.2473	28.7062
 332	1	1	0.156233	27.6891	-16.3675	29.2328
 333	1	2	0.310144	28.1431	-17.8461	27.7289
 334	1	5	-0.374171	29.3696	-17.316	27.4302
 335	1	1	0.18393	26.1053	-20.4415	26.8323
 336	1	2	-0.1794	26.441	-19.5413	27.3463
 337	1	2	-0.069637	25.6255	-18.95	28.3343
 338	1	1	0.24118	27.7758	-16.2042	25.6394
 339	1	1	0.2544	28.0537	-13.9017	24.696
 340	1	2	-0.557237	28.5853	-15.5649	25.9789
 341	1	2	-0.032586	28.7471	-14.2672	25.4519
 342	1	2	0.370208	29.5015	-16.0482	26.9287
 343	1	2	0.127886	29.8121	-13.4445	25.8846
 344	1	7	-0.036788	30.0159	-12.1879	25.3721
 345	1	2	0.039962	30.5746	-15.2407	27.3465
 346	1	2	-0.445847	30.7284	-13.9367	26.8327
 347	1	1	0.122566	31.2818	-15.6339	28.0711
 348	1	1	0.163876	31.561	-13.3189	27.1603
 349	1	2	-0.180142	27.7011	-18.9909	27.0509
 350	1	1	0.144642	28.3418	-19.4491	26.3035
 351	1	1	0.203463	30.4103	-11.2731	22.9497
 352	1	2	-0.404697	29.4234	-11.056	23.3491
 353	1	2	-0.023572	28.5104	-10.2991	22.5932
 354	1	1	0.153856	28.7999	-9.91638	21.6153
 355	1	2	-0.109138	27.2461	-9.98423	23.1256
 356	1	3	0.998761	26.1463	-8.86126	22.2337
 357	1	2	-0.03943	26.9066	-10.4257	24.4184
 358	1	1	0.156851	25.95	-10.138	24.8541
 359	1	2	-0.395833	27.8268	-11.1828	25.1679
 360	1	1	0.202602	27.5801	-11.4863	26.1819
 361	1	2	0.320255	29.0919	-11.4921	24.6392
 362	1	4	-0.566353	25.2864	-8.1962	23.2192
 363	1	4	-0.565639	27.0058	-8.1075	21.315
 364	1	1	0.171248	23.252	-9.33168	22.2232
 365	1	2	-0.142243	23.6749	-9.86792	21.3746
 366	1	2	-0.199349	22.8178	-10.4859	20.4455
 367	1	1	0.156233	21.7415	-10.4477	20.5825
 368	1	2	0.310144	23.3469	-11.1176	19.3104
 369	1	5	-0.374171	22.5076	-11.6127	18.343
 370	1	1	0.18393	26.672	-10.5253	19.8607
 371	1	2	-0.1794	25.5997	-10.5442	20.0463
 372	1	2	-0.069637	25.072	-9.87472	21.1716
 373	1	1	0.24118	20.435	-12.4256	17.0249
 374	1	1	0.2544	18.9729	-11.0079	15.5226
 375	1	2	-0.557237	20.645	-11.3711	16.8733
 376	1	2	-0.032586	19.8302	-10.5756	16.0358
 377	1	2	0.370208	21.7386	-10.797	17.5407
 378	1	2	0.127886	20.1124	-9.20506	15.8591
 379	1	7	-0.036788	19.3123	-8.41293	15.0771
 380	1	2	0.039962	22.0232	-9.42452	17.3555
 381	1	2	-0.445847	21.2087	-8.62836	16.5236
 382	1	1	0.122566	22.875	-8.97343	17.8554
 383	1	1	0.163876	21.4293	-7.57146	16.396
 384	1	2	-0.180142	24.7371	-11.1692	19.1238
 385	1	1	0.144642	25.1366	-11.6505	18.236
 386	1	1	0.203463	20.9049	-9.78926	13.3957
 387	1	2	-0.404697	20.0411	-9.31614	12.9371
 388	1	2	-0.023572	19.8382	-9.44625	11.5515
 389	1	1	0.153856	20.5285	-10.0385	10.9514
 390	1	2	-0.109138	18.7278	-8.83409	10.9433
 391	1	3	0.998761	18.4236	-9.04312	9.18073
 392	1	2	-0.03943	17.837	-8.07307	11.7186
 393	1	1	0.156851	16.9771	-7.60007	11.2453
 394	1	2	-0.395833	18.0539	-7.93887	13.1016
 395	1	1	0.202602	17.3687	-7.34753	13.7012
 396	1	2	0.320255	19.145	-8.56842	13.7234
 397	1	4	-0.566353	16.9757	-9.18865	8.98487
 398	1	4	-0.565639	19.3867	-10.0349	8.69285
 399	1	1	0.171248	21.0082	-7.72839	8.96337
 400	1	2	-0.142243	20.2667	-7.05433	8.53836
 401	1	2	-0.199349	20.665	-5.81134	8.01698
 402	1	1	0.156233	21.7091	-5.51386	8.04066
 403	1	2	0.310144	19.7187	-4.9463	7.45175
 404	1	5	-0.374171	20.1534	-3.74825	6.94186
 405	1	1	0.18393	16.9164	-6.87505	7.85362
 406	1	2	-0.1794	17.9615	-6.57278	7.91551
 407	1	2	-0.069637	18.9119	-7.43802	8.49863
 408	1	1	0.24118	20.0693	-2.04945	5.00483
 409	1	1	0.2544	18.7792	0.11751	4.9914
 410	1	2	-0.557237	19.4658	-1.75188	5.85792
 411	1	2	-0.032586	18.7393	-0.542567	5.85719
 412	1	2	0.370208	19.4213	-2.58968	6.97965
 413	1	2	0.127886	17.9686	-0.172849	6.98226
 414	1	7	-0.036788	17.2849	1.01373	7.02732
 415	1	2	0.039962	18.6691	-2.21394	8.11226
 416	1	2	-0.445847	17.9405	-1.00734	8.11431
 417	1	1	0.122566	18.6595	-2.85544	8.98819
 418	1	1	0.163876	17.365	-0.718789	8.9903
 419	1	2	-0.180142	18.3669	-5.3326	7.38723
 420	1	1	0.144642	17.638	-4.68062	6.91432
 421	1	1	0.203463	15.7388	-0.14763	5.18735
 422	1	2	-0.404697	15.9317	0.911018	5.0266
 423	1	2	-0.023572	15.3447	1.56615	3.93006
 424	1	1	0.153856	14.7163	1.00761	3.23809
 425	1	2	-0.109138	15.5576	2.94445	3.73883
 426	1	3	0.998761	14.7554	3.80374	2.37198
 427	1	2	-0.03943	16.3787	3.6558	4.63194
 428	1	1	0.156851	16.5548	4.72027	4.47926
 429	1	2	-0.395833	16.9619	2.9923	5.72561
 430	1	1	0.202602	17.5862	3.54228	6.42412
 431	1	2	0.320255	16.735	1.62397	5.93287
 432	1	4	-0.566353	15.3655	5.13027	2.22703
 433	1	4	-0.565639	14.6985	2.84465	1.26521
 434	1	1	0.171248	13.247	6.1451	3.31269
 435	1	2	-0.142243	12.5905	5.27838	3.38108
 436	1	2	-0.199349	11.2815	5.42586	3.87763
 437	1	1	0.156233	10.9221	6.40019	4.19573
 438	1	2	0.310144	10.4256	4.3178	3.96862
 439	1	5	-0.374171	9.1604	4.51204	4.47653
 440	1	1	0.18393	12.53	1.92354	2.71088
 441	1	2	-0.1794	12.1877	2.90268	3.04188
 442	1	2	-0.069637	13.0552	4.01184	2.97057
 443	1	1	0.24118	7.33591	4.44246	2.63267
 444	1	1	0.2544	5.62353	2.60218	2.34424
 445	1	2	-0.557237	7.2758	3.61477	3.33384
 446	1	2	-0.032586	6.32156	2.58847	3.17955
 447	1	2	0.370208	8.17959	3.56039	4.40372
 448	1	2	0.127886	6.28133	1.5115	4.08755
 449	1	7	-0.036788	5.43781	0.461964	3.85207
 450	1	2	0.039962	8.11684	2.50613	5.33691
 451	1	2	-0.445847	7.16908	1.47365	5.1788
 452	1	1	0.122566	8.83031	2.47689	6.15516
 453	1	1	0.163876	7.14545	0.639527	5.87634
 454	1	2	-0.180142	10.8815	3.0545	3.5396
 455	1	1	0.144642	10.2343	2.18508	3.59171
 456	1	1	0.203463	3.65327	-0.547625	2.19744
 457	1	2	-0.404697	4.67238	-0.873417	2.00846
 458	1	2	-0.023572	4.94082	-1.76649	0.953388
 459	1	1	0.153856	4.12903	-2.13499	0.326484
 460	1	2	-0.109138	6.257	-2.21075	0.727101
 461	1	3	0.998761	6.60845	-3.40113	-0.581424
 462	1	2	-0.03943	7.29493	-1.77654	1.56911
 463	1	1	0.156851	8.30413	-2.16422	1.43725
 464	1	2	-0.395833	7.0209	-0.872124	2.60728
 465	1	1	0.202602	7.82733	-0.553508	3.2632
 466	1	2	0.320255	5.70972	-0.420001	2.83871
 467	1	4	-0.566353	5.35855	-4.06443	-0.965256
 468	1	4	-0.565639	7.77865	-4.1942	-0.187262
 469	1	1	0.171248	6.92261	-0.474727	-1.216
 470	1	2	-0.142243	7.22763	-1.06313	-2.0788
 471	1	2	-0.199349	7.72986	-0.411902	-3.22496
 472	1	1	0.156233	7.8259	0.668775	-3.24171
 473	1	2	0.310144	8.15374	-1.16261	-4.33583
 474	1	5	-0.374171	8.76088	-0.56505	-5.40917
 475	1	1	0.18393	7.53974	-4.30201	-3.13525
 476	1	2	-0.1794	7.57684	-3.21353	-3.16782
 477	1	2	-0.069637	7.15641	-2.47417	-2.04416
 478	1	1	0.24118	9.9975	0.307316	-7.46092
 479	1	1	0.2544	9.00715	1.67948	-9.33728
 480	1	2	-0.557237	8.93671	0.541342	-7.48306
 481	1	2	-0.032586	8.37999	1.30289	-8.53029
 482	1	2	0.370208	8.12426	0.088282	-6.43384
 483	1	2	0.127886	7.01126	1.62473	-8.52294
 484	1	7	-0.036788	6.53273	2.4759	-9.48715
 485	1	2	0.039962	6.73779	0.35131	-6.45555
 486	1	2	-0.445847	6.17771	1.10759	-7.50689
 487	1	1	0.122566	6.1028	-0.0050772	-5.65042
 488	1	1	0.163876	5.11208	1.32717	-7.50576
 489	1	2	-0.180142	8.07703	-2.55976	-4.30569
 490	1	1	0.144642	8.43811	-3.13236	-5.15476
 491	1	1	0.203463	5.14986	3.75583	-11.3045
 492	1	2	-0.404697	4.99974	4.12529	-10.2939
 493	1	2	-0.023572	4.0548	5.13756	-10.0547
 494	1	1	0.153856	3.46013	5.53674	-10.8768
 495	1	2	-0.109138	3.78641	5.5388	-8.73331
 496	1	3	0.998761	2.28045	6.44206	-8.36186
 497	1	2	-0.03943	4.55182	5.03269	-7.67327
 498	1	1	0.156851	4.34404	5.34747	-6.65127
 499	1	2	-0.395833	5.52511	4.05656	-7.92879
 500	1	1	0.202602	6.09242	3.65405	-7.09517
 501	1	2	0.320255	5.7048	3.54201	-9.22873
 502	1	4	-0.566353	2.45225	7.23452	-7.13696
 503	1	4	-0.565639	1.82549	7.0501	-9.61415
 504	1	1	0.171248	1.8931	3.82225	-9.64419
 505	1	2	-0.142243	1.23181	3.87806	-8.78529
 506	1	2	-0.199349	0.454105	2.75638	-8.46275
 507	1	1	0.156233	0.53281	1.85292	-9.06066
 508	1	2	0.310144	-0.438011	2.80535	-7.38013
 509	1	5	-0.374171	-1.25483	1.73587	-7.09978
 510	1	1	0.18393	0.241571	5.97686	-6.27148
 511	1	2	-0.1794	0.294741	5.08194	-6.89063
 512	1	2	-0.069637	1.17101	5.0477	-7.9958
 513	1	1	0.24118	-2.02725	-0.730439	-6.86029
 514	1	1	0.2544	-3.2829	-2.06472	-8.60252
 515	1	2	-0.557237	-2.2979	-0.289761	-7.81603
 516	1	2	-0.032586	-2.99972	-1.03083	-8.79457
 517	1	2	0.370208	-1.94252	1.04321	-8.07056
 518	1	2	0.127886	-3.34709	-0.445325	-10.0306
 519	1	7	-0.036788	-4.03618	-1.19028	-10.9604
 520	1	2	0.039962	-2.30873	1.63802	-9.29683
 521	1	2	-0.445847	-2.99265	0.898544	-10.278
 522	1	1	0.122566	-2.06047	2.67637	-9.49325
 523	1	1	0.163876	-3.24497	1.38351	-11.2175
 524	1	2	-0.180142	-0.512788	3.96525	-6.59312
 525	1	1	0.144642	-1.20248	3.99296	-5.75481
 526	1	1	0.203463	-6.42398	-0.123426	-11.2857
 527	1	2	-0.404697	-5.78641	-0.0634027	-12.1619
 528	1	2	-0.023572	-6.21811	0.638036	-13.3025
 529	1	1	0.153856	-7.19581	1.11835	-13.3114
 530	1	2	-0.109138	-5.35702	0.776871	-14.4075
 531	1	3	0.998761	-5.81287	1.86236	-15.7773
 532	1	2	-0.03943	-4.09327	0.15935	-14.3901
 533	1	1	0.156851	-3.42676	0.265554	-15.2459
 534	1	2	-0.395833	-3.67495	-0.550014	-13.2501
 535	1	1	0.202602	-2.68132	-0.986614	-13.2177
 536	1	2	0.320255	-4.50777	-0.64152	-12.1239
 537	1	4	-0.566353	-4.56754	2.20496	-16.4708
 538	1	4	-0.565639	-6.95505	1.27307	-16.484
 539	1	1	0.171248	-4.5826	3.54893	-13.7563
 540	1	2	-0.142243	-5.58957	3.92738	-13.9206
 541	1	2	-0.199349	-6.10034	4.94755	-13.0993
 542	1	1	0.156233	-5.50844	5.34559	-12.2811
 543	1	2	0.310144	-7.41557	5.39499	-13.2817
 544	1	5	-0.374171	-8.00637	6.15414	-12.3074
 545	1	1	0.18393	-8.34693	3.36946	-15.8792
 546	1	2	-0.1794	-7.70889	3.8248	-15.1217
 547	1	2	-0.069637	-6.40612	3.33312	-14.9046
 548	1	1	0.24118	-7.58662	4.38038	-10.4462
 549	1	1	0.2544	-9.34953	2.8159	-9.5394
 550	1	2	-0.557237	-8.63294	4.50181	-10.712
 551	1	2	-0.032586	-9.61844	3.62129	-10.2213
 552	1	2	0.370208	-8.99581	5.51072	-11.618
 553	1	2	0.127886	-10.9552	3.73694	-10.6498
 554	1	7	-0.036788	-11.8593	2.80021	-10.2261
 555	1	2	0.039962	-10.3357	5.65404	-12.02
 556	1	2	-0.445847	-11.3176	4.7633	-11.5482
 557	1	1	0.122566	-10.5886	6.40436	-12.763
 558	1	1	0.163876	-12.3363	4.8508	-11.9187
 559	1	2	-0.180142	-8.20304	4.86597	-14.3203
 560	1	1	0.144642	-9.22219	5.21159	-14.4564
 561	1	1	0.203463	-13.3976	1.45758	-11.8865
 562	1	2	-0.404697	-13.9296	2.17574	-11.2708
 563	1	2	-0.023572	-15.3259	2.30976	-11.3842
 564	1	1	0.153856	-15.8855	1.68658	-12.079
 565	1	2	-0.109138	-15.9884	3.24166	-10.5685
 566	1	3	0.998761	-17.7624	3.45532	-10.5536
 567	1	2	-0.03943	-15.2689	4.0334	-9.6585
 568	1	1	0.156851	-15.8027	4.74373	-9.02637
 569	1	2	-0.395833	-13.8797	3.89331	-9.55289
 570	1	1	0.202602	-13.3238	4.50132	-8.84581
 571	1	2	0.320255	-13.2089	2.9589	-10.3532
 572	1	4	-0.566353	-17.9399	4.90154	-10.728
 573	1	4	-0.565639	-18.2495	2.83523	-9.31792
 574	1	1	0.171248	-17.4931	3.76329	-13.4881
 575	1	2	-0.142243	-18.4343	3.28267	-13.2276
 576	1	2	-0.199349	-19.5773	3.58546	-13.9884
 577	1	1	0.156233	-19.4953	4.25286	-14.8413
 578	1	2	0.310144	-20.8426	3.33131	-13.4359
 579	1	5	-0.374171	-21.8392	4.25176	-13.6247
 580	1	1	0.18393	-19.9622	1.61076	-10.6607
 581	1	2	-0.1794	-19.8291	2.07671	-11.6363
 582	1	2	-0.069637	-18.5982	2.68127	-11.9615
 583	1	1	0.24118	-23.8478	4.99294	-12.1209
 584	1	1	0.2544	-23.9181	7.04827	-10.658
 585	1	2	-0.557237	-22.9947	5.66122	-12.0568
 586	1	2	-0.032586	-23.0266	6.81431	-11.2374
 587	1	2	0.370208	-21.8438	5.37062	-12.8052
 588	1	2	0.127886	-21.9215	7.68956	-11.1536
 589	1	7	-0.036788	-22.073	8.82752	-10.391
 590	1	2	0.039962	-20.7118	6.20856	-12.6641
 591	1	2	-0.445847	-20.7391	7.35083	-11.8386
 592	1	1	0.122566	-19.7979	5.98564	-13.1987
 593	1	1	0.163876	-19.8336	7.93766	-11.7356
 594	1	2	-0.180142	-20.9726	2.45932	-12.3491
 595	1	1	0.144642	-21.9547	2.27573	-11.9244
 596	1	1	0.203463	-22.0664	9.98423	-8.10684
 597	1	2	-0.404697	-21.313	10.3788	-8.78042
 598	1	2	-0.023572	-20.4825	11.424	-8.35177
 599	1	1	0.153856	-20.5781	11.8239	-7.34236
 600	1	2	-0.109138	-19.4608	11.891	-9.19244
 601	1	3	0.998761	-18.2187	12.9914	-8.49268
 602	1	2	-0.03943	-19.3545	11.3994	-10.5061
 603	1	1	0.156851	-18.5835	11.7932	-11.1697
 604	1	2	-0.395833	-20.2368	10.3899	-10.947
 605	1	1	0.202602	-20.1748	10.0433	-11.9733
 606	1	2	0.320255	-21.1807	9.82469	-10.0627
 607	1	4	-0.566353	-18.8817	13.8345	-7.49236
 608	1	4	-0.565639	-17.4016	13.5927	-9.55172
 609	1	1	0.171248	-18.4569	10.1346	-7.59144
 610	1	2	-0.142243	-17.5255	10.5542	-7.2302
 611	1	2	-0.199349	-16.7031	9.73844	-6.44054
 612	1	1	0.156233	-17.0024	8.72314	-6.19882
 613	1	2	0.310144	-15.4866	10.2287	-5.96061
 614	1	5	-0.374171	-14.7193	9.40413	-5.18686
 615	1	1	0.18393	-15.5972	13.3802	-7.29669
 616	1	2	-0.1794	-15.9032	12.3611	-7.06173
 617	1	2	-0.069637	-17.1406	11.8807	-7.53689
 618	1	1	0.24118	-13.1307	10.3589	-3.38176
 619	1	1	0.2544	-10.6034	10.3245	-3.51123
 620	1	2	-0.557237	-12.6132	9.97222	-4.25578
 621	1	2	-0.032586	-11.2071	9.96962	-4.34499
 622	1	2	0.370208	-13.3636	9.42321	-5.30126
 623	1	2	0.127886	-10.5662	9.42289	-5.47847
 624	1	7	-0.036788	-9.24072	9.09027	-5.39924
 625	1	2	0.039962	-12.7342	8.91205	-6.45118
 626	1	2	-0.445847	-11.3298	8.92047	-6.54935
 627	1	1	0.122566	-13.3394	8.47304	-7.23898
 628	1	1	0.163876	-10.8394	8.45408	-7.39985
 629	1	2	-0.180142	-15.0769	11.5364	-6.27754
 630	1	1	0.144642	-14.131	11.9171	-5.90323
 631	1	1	0.203463	-10.7051	6.8807	-5.14038
 632	1	2	-0.404697	-9.83214	6.93511	-4.49948
 633	1	2	-0.023572	-9.676	5.95751	-3.51685
 634	1	1	0.153856	-10.4174	5.16728	-3.40661
 635	1	2	-0.109138	-8.63392	6.0743	-2.59316
 636	1	3	0.998761	-8.68255	4.99779	-1.15852
 637	1	2	-0.03943	-7.6575	7.07936	-2.7461
 638	1	1	0.156851	-6.82428	7.13984	-2.04499
 639	1	2	-0.395833	-7.80645	8.04545	-3.76262
 640	1	1	0.202602	-7.08684	8.85508	-3.8536
 641	1	2	0.320255	-8.93151	8.01385	-4.60363
 642	1	4	-0.566353	-7.6631	5.45127	-0.207249
 643	1	4	-0.565639	-8.6761	3.60966	-1.62922
 644	1	1	0.171248	-10.0687	3.48583	0.840271
 645	1	2	-0.142243	-10.7343	4.30773	0.580393
 646	1	2	-0.199349	-11.9408	4.48501	1.28061
 647	1	1	0.156233	-12.189	3.82801	2.10744
 648	1	2	0.310144	-12.7884	5.56306	0.991435
 649	1	5	-0.374171	-13.7395	5.88256	1.93405
 650	1	1	0.18393	-10.9119	7.05137	-1.4558
 651	1	2	-0.1794	-11.2019	6.30617	-0.718331
 652	1	2	-0.069637	-10.333	5.23029	-0.403243
 653	1	1	0.24118	-15.1062	5.99131	4.05114
 654	1	1	0.2544	-17.61	6.10286	4.24185
 655	1	2	-0.557237	-15.735	5.90885	3.16878
 656	1	2	-0.032586	-17.1414	5.97426	3.26944
 657	1	2	0.370208	-15.1141	5.78318	1.91746
 658	1	2	0.127886	-17.9475	5.93112	2.11318
 659	1	7	-0.036788	-19.3104	6.1392	2.20495
 660	1	2	0.039962	-15.9127	5.67305	0.758718