pySIMM System Object

1682 atoms
1825 bonds
2976 angles
4414 dihedrals
576 impropers

7 atom types
7 bond types
11 angle types
4 dihedral types
1 improper types

-184.988832 184.988832 xlo xhi
-184.988832 184.988832 ylo yhi
-184.988832 184.988832 zlo zhi

Masses

   1	1.008	# ha
   2	12.01	# ca
   3	32.06	# sy
   4	16.0	# o
   5	16.0	# os
   6	1.008	# ho
   7	16.0	# oh

Pair Coeffs

   1	0.015	2.59964245953351	# ha
   2	0.086	3.3996695084235347	# ca
   3	0.25	3.563594872561357	# sy
   4	0.21	2.959921901149463	# o
   5	0.17	3.0000123434657784	# os
   6	0.0	0.0	# ho
   7	0.2104	3.0664733878390478	# oh

Bond Coeffs

   1	493.0	1.466	# o,sy
   2	345.8	1.086	# ca,ha
   3	384.0	1.3637	# ca,oh
   4	376.6	1.3696	# ca,os
   5	371.4	0.973	# ho,oh
   6	243.4	1.7909	# ca,sy
   7	461.1	1.3984	# ca,ca

Angle Coeffs

   1	48.18	119.88	# ca,ca,ha
   2	61.48	119.42	# ca,ca,sy
   3	72.54	121.41	# o,sy,o
   4	69.58	119.2	# ca,ca,os
   5	60.3	104.44	# ca,sy,ca
   6	49.0	108.58	# ca,oh,ho
   7	65.77	108.35	# ca,sy,o
   8	63.48	119.89	# ca,os,ca
   9	69.52	119.9	# ca,ca,oh
  10	66.62	120.02	# ca,ca,ca
  11	63.5	119.89	# ca,oh,ca

Dihedral Coeffs

   1	1	0.9	2	180	# X,ca,os,X
   2	1	0.9	2	180	# X,ca,oh,X
   3	1	3.625	2	180	# X,ca,ca,X
   4	1	1.3	2	180	# X,ca,sy,X

Improper Coeffs

   1	1.1	-1	2	# ca,X,X,ha

Atoms

   1	1	1	0.203463	-1.02121	-23.0662	4.92168
   2	1	2	-0.404697	-0.818732	-24.0819	5.25183
   3	1	2	-0.023572	0.298078	-24.7794	4.76032
   4	1	1	0.153856	0.961206	-24.3031	4.0397
   5	1	2	-0.109138	0.563303	-26.0852	5.2141
   6	1	3	0.998761	2.03861	-26.9575	4.65404
   7	1	2	-0.03943	-0.289417	-26.6859	6.15927
   8	1	1	0.156851	-0.0812098	-27.692	6.51942
   9	1	2	-0.395833	-1.40311	-25.9788	6.64643
  10	1	1	0.202602	-2.06386	-26.4312	7.38006
  11	1	2	0.320255	-1.66336	-24.6744	6.20032
  12	1	4	-0.566353	1.6914	-28.2825	4.13396
  13	1	4	-0.565639	2.84935	-26.0406	3.84421
  14	1	1	0.171248	3.8017	-29.1386	5.48512
  15	1	2	-0.142243	3.80351	-28.3914	6.27729
  16	1	2	-0.199349	4.65221	-28.5417	7.38816
  17	1	1	0.156233	5.31656	-29.3944	7.46085
  18	1	2	0.310144	4.68567	-27.5547	8.38318
  19	1	5	-0.374171	5.63871	-27.6037	9.3659
  20	1	1	0.18393	2.34915	-25.4071	7.11965
  21	1	2	-0.1794	2.983	-26.2891	7.19651
  22	1	2	-0.069637	2.98824	-27.2472	6.1636
  23	1	1	0.24118	6.92291	-26.6374	7.27282
  24	1	1	0.2544	8.62076	-24.7865	7.34355
  25	1	2	-0.557237	7.20328	-26.1797	8.21935
  26	1	2	-0.032586	8.15688	-25.1426	8.2638
  27	1	2	0.370208	6.6102	-26.6352	9.41096
  28	1	2	0.127886	8.5005	-24.5401	9.49428
  29	1	7	-0.036788	9.38451	-23.4922	9.54959
  30	1	2	0.039962	6.9897	-26.0716	10.6426
  31	1	2	-0.445847	7.92846	-25.0192	10.6867
  32	1	1	0.122566	6.53197	-26.4392	11.5564
  33	1	1	0.163876	8.19972	-24.5742	11.6414
  34	1	2	-0.180142	3.83103	-26.445	8.30427
  35	1	1	0.144642	3.85968	-25.6881	9.08116
  36	1	1	0.203463	7.32015	-22.2998	8.35165
  37	1	2	-0.404697	8.29924	-21.9952	7.99188
  38	1	2	-0.023572	8.39083	-21.0572	6.95033
  39	1	1	0.153856	7.48599	-20.6341	6.51481
  40	1	2	-0.109138	9.65303	-20.6716	6.46537
  41	1	3	0.998761	9.77042	-19.5227	5.08231
  42	1	2	-0.03943	10.8196	-21.196	7.0517
  43	1	1	0.156851	11.7985	-20.8894	6.68448
  44	1	2	-0.395833	10.7185	-22.1221	8.10503
  45	1	1	0.202602	11.6176	-22.5344	8.55463
  46	1	2	0.320255	9.46159	-22.5375	8.56923
  47	1	4	-0.566353	8.54429	-18.7165	5.10655
  48	1	4	-0.565639	11.1031	-18.9045	5.13411
  49	1	1	0.171248	7.51809	-20.8724	3.79259
  50	1	2	-0.142243	8.42245	-21.1647	3.26132
  51	1	2	-0.199349	8.33685	-22.0464	2.16799
  52	1	1	0.156233	7.37088	-22.4283	1.85521
  53	1	2	0.310144	9.49576	-22.4138	1.46223
  54	1	5	-0.374171	9.43861	-23.2549	0.377244
  55	1	1	0.18393	11.7964	-20.5866	3.22243
  56	1	2	-0.1794	10.8302	-21.0021	2.9392
  57	1	2	-0.069637	9.67079	-20.6401	3.65666
  58	1	1	0.24118	9.62098	-25.4569	1.77781
  59	1	1	0.2544	8.01486	-27.3997	1.65748
  60	1	2	-0.557237	8.76687	-25.4309	1.10855
  61	1	2	-0.032586	7.86837	-26.5172	1.03545
  62	1	2	0.370208	8.56027	-24.3038	0.300269
  63	1	2	0.127886	6.75419	-26.4666	0.175729
  64	1	7	-0.036788	5.89052	-27.5313	0.139737
  65	1	2	0.039962	7.46772	-24.2618	-0.586172
  66	1	2	-0.445847	6.55756	-25.3377	-0.646038
  67	1	1	0.122566	7.32896	-23.389	-1.21733
  68	1	1	0.163876	5.71368	-25.2976	-1.33201
  69	1	2	-0.180142	10.737	-21.8811	1.84289
  70	1	1	0.144642	11.6238	-22.1516	1.27675
  71	1	1	0.203463	4.24685	-29.2029	-1.03635
  72	1	2	-0.404697	3.75307	-28.3798	-0.529264
  73	1	2	-0.023572	2.35046	-28.2747	-0.566838
  74	1	1	0.153856	1.76042	-29.0113	-1.11017
  75	1	2	-0.109138	1.70922	-27.1996	0.0744882
  76	1	3	0.998761	-0.0811075	-27.0141	-0.0305961
  77	1	2	-0.03943	2.4747	-26.2375	0.754262
  78	1	1	0.156851	1.98194	-25.4034	1.25179
  79	1	2	-0.395833	3.87535	-26.3465	0.782882
  80	1	1	0.202602	4.45318	-25.596	1.31119
  81	1	2	0.320255	4.52409	-27.4079	0.127893
  82	1	4	-0.566353	-0.407936	-25.6032	0.212441
  83	1	4	-0.565639	-0.492081	-27.7187	-1.25022
  84	1	1	0.171248	-0.320337	-29.8896	0.412237
  85	1	2	-0.142243	-0.717803	-29.3914	1.29391
  86	1	2	-0.199349	-1.24289	-30.1497	2.35568
  87	1	1	0.156233	-1.23958	-31.2339	2.31413
  88	1	2	0.310144	-1.77516	-29.503	3.47981
  89	1	5	-0.374171	-2.24344	-30.2418	4.53355
  90	1	1	0.18393	-1.29214	-26.2521	2.53889
  91	1	2	-0.1794	-1.26617	-27.3399	2.48998
  92	1	2	-0.069637	-0.718754	-27.983	1.36007
  93	1	1	0.24118	-3.27388	-30.3317	6.90491
  94	1	1	0.2544	-1.97582	-30.5053	9.07013
  95	1	2	-0.557237	-2.18866	-30.386	6.90825
  96	1	2	-0.032586	-1.45846	-30.4835	8.11229
  97	1	2	0.370208	-1.50762	-30.3573	5.68344
  98	1	2	0.127886	-0.050454	-30.5495	8.09577
  99	1	7	-0.036788	0.618277	-30.6066	9.29325
 100	1	2	0.039962	-0.100198	-30.4347	5.66026
 101	1	2	-0.445847	0.630435	-30.5144	6.86108
 102	1	1	0.122566	0.425262	-30.423	4.71017
 103	1	1	0.163876	1.71549	-30.5449	6.81624
 104	1	2	-0.180142	-1.79732	-28.1026	3.54442
 105	1	1	0.144642	-2.22922	-27.6134	4.41107
 106	1	1	0.203463	1.80066	-32.7885	8.32103
 107	1	2	-0.404697	2.45792	-32.1244	8.8758
 108	1	2	-0.023572	3.8167	-32.4497	9.03035
 109	1	1	0.153856	4.21112	-33.37	8.60094
 110	1	2	-0.109138	4.66372	-31.5918	9.75462
 111	1	3	0.998761	6.4093	-31.9942	9.94991
 112	1	2	-0.03943	4.14348	-30.4227	10.3374
 113	1	1	0.156851	4.79521	-29.7678	10.9144
 114	1	2	-0.395833	2.78434	-30.1032	10.1737
 115	1	1	0.202602	2.38202	-29.199	10.6198
 116	1	2	0.320255	1.9396	-30.9419	9.43219
 117	1	4	-0.566353	6.87734	-31.3664	11.1912
 118	1	4	-0.565639	6.55066	-33.4284	9.67653
 119	1	1	0.171248	7.95841	-29.5164	9.80977
 120	1	2	-0.142243	7.8712	-29.9059	8.79635
 121	1	2	-0.199349	8.44997	-29.2067	7.72315
 122	1	1	0.156233	8.9877	-28.2819	7.90359
 123	1	2	0.310144	8.33593	-29.7025	6.41636
 124	1	5	-0.374171	8.87717	-29.0015	5.37078
 125	1	1	0.18393	6.57751	-32.5651	7.07364
 126	1	2	-0.1794	7.08745	-31.6191	7.25237
 127	1	2	-0.069637	7.17836	-31.1113	8.56604
 128	1	1	0.24118	6.38203	-28.7515	4.57142
 129	1	1	0.2544	5.3117	-26.5981	3.80555
 130	1	2	-0.557237	6.9565	-27.83	4.54186
 131	1	2	-0.032586	6.36077	-26.6264	4.11006
 132	1	2	0.370208	8.3027	-27.8366	4.94117
 133	1	2	0.127886	7.11576	-25.4366	4.07392
 134	1	7	-0.036788	6.52065	-24.2662	3.6931
 135	1	2	0.039962	9.05902	-26.6497	4.89719
 136	1	2	-0.445847	8.46607	-25.4416	4.47382
 137	1	1	0.122566	10.1004	-26.6745	5.20464
 138	1	1	0.163876	9.04704	-24.5222	4.44072
 139	1	2	-0.180142	7.66609	-30.9128	6.18049
 140	1	1	0.144642	7.6018	-31.2995	5.16785
 141	1	1	0.203463	6.20587	-24.5285	6.31893
 142	1	2	-0.404697	5.45487	-23.9248	5.82656
 143	1	2	-0.023572	4.40705	-23.3929	6.58434
 144	1	1	0.153856	4.35952	-23.5919	7.65183
 145	1	2	-0.109138	3.41545	-22.6192	5.96363
 146	1	3	0.998761	2.09585	-21.9443	6.98053
 147	1	2	-0.03943	3.48366	-22.3677	4.58058
 148	1	1	0.156851	2.7148	-21.7644	4.09768
 149	1	2	-0.395833	4.53881	-22.9134	3.82412
 150	1	1	0.202602	4.5791	-22.7437	2.75176
 151	1	2	0.320255	5.51729	-23.7096	4.43983
 152	1	4	-0.566353	1.38972	-20.9383	6.18086
 153	1	4	-0.565639	1.41807	-23.09	7.59561
 154	1	1	0.171248	2.83872	-22.7934	9.69244
 155	1	2	-0.142243	3.2979	-21.8227	9.50992
 156	1	2	-0.199349	4.11023	-21.2357	10.4972
 157	1	1	0.156233	4.26805	-21.7386	11.4469
 158	1	2	0.310144	4.68029	-19.9724	10.2703
 159	1	5	-0.374171	5.4222	-19.3357	11.2276
 160	1	1	0.18393	3.4345	-19.3513	7.14225
 161	1	2	-0.1794	3.62831	-19.8797	8.07511
 162	1	2	-0.069637	3.05925	-21.1494	8.29171
 163	1	1	0.24118	5.69352	-18.7427	13.7091
 164	1	1	0.2544	7.4685	-19.5656	15.2409
 165	1	2	-0.557237	6.41042	-19.4846	13.3628
 166	1	2	-0.032586	7.41935	-19.9563	14.224
 167	1	2	0.370208	6.34333	-19.9365	12.0441
 168	1	2	0.127886	8.37142	-20.8941	13.7645
 169	1	7	-0.036788	9.40163	-21.3465	14.5543
 170	1	2	0.039962	7.29316	-20.8641	11.5711
 171	1	2	-0.445847	8.30175	-21.3495	12.4315
 172	1	1	0.122566	7.26959	-21.1691	10.5312
 173	1	1	0.163876	9.04654	-22.0462	12.0574
 174	1	2	-0.180142	4.42835	-19.2934	9.0712
 175	1	1	0.144642	4.85185	-18.3048	8.93175
 176	1	1	0.203463	11.616	-20.1466	15.2792
 177	1	2	-0.404697	10.9051	-20.2882	16.0861
 178	1	2	-0.023572	11.2239	-19.8501	17.3841
 179	1	1	0.153856	12.1823	-19.3821	17.59
 180	1	2	-0.109138	10.3139	-20.0356	18.4359
 181	1	3	0.998761	10.7991	-19.586	20.1176
 182	1	2	-0.03943	9.08061	-20.6654	18.1826
 183	1	1	0.156851	8.38386	-20.8409	19.0018
 184	1	2	-0.395833	8.76853	-21.1051	16.8814
 185	1	1	0.202602	7.83049	-21.6218	16.7
 186	1	2	0.320255	9.67532	-20.9086	15.8251
 187	1	4	-0.566353	9.77434	-20.1334	21.0134
 188	1	4	-0.565639	12.2188	-19.937	20.2581
 189	1	1	0.171248	8.54533	-17.7388	20.4492
 190	1	2	-0.142243	9.45493	-17.1433	20.3899
 191	1	2	-0.199349	9.38598	-15.7451	20.5346
 192	1	1	0.156233	8.42908	-15.2557	20.6903
 193	1	2	0.310144	10.5571	-14.9743	20.497
 194	1	5	-0.374171	10.4799	-13.6181	20.6806
 195	1	1	0.18393	12.8422	-17.4675	20.0017
 196	1	2	-0.1794	11.8731	-16.9928	20.1426
 197	1	2	-0.069637	10.7001	-17.7764	20.1964
 198	1	1	0.24118	11.2579	-14.6979	22.9955
 199	1	1	0.2544	12.4955	-13.5179	24.7791
 200	1	2	-0.557237	11.512	-13.6489	22.8637
 201	1	2	-0.032586	12.2069	-12.9704	23.884
 202	1	2	0.370208	11.1641	-12.9716	21.6825
 203	1	2	0.127886	12.5311	-11.6008	23.7536
 204	1	7	-0.036788	13.2009	-10.9031	24.7341
 205	1	2	0.039962	11.4983	-11.6116	21.5386
 206	1	2	-0.445847	12.1767	-10.924	22.5699
 207	1	1	0.122566	11.229	-11.0988	20.6194
 208	1	1	0.163876	12.4318	-9.8754	22.4458
 209	1	2	-0.180142	11.799	-15.596	20.2904
 210	1	1	0.144642	12.7006	-14.9906	20.2582
 211	1	1	0.203463	15.6702	-11.049	25.5939
 212	1	2	-0.404697	14.9399	-11.4555	26.2863
 213	1	2	-0.023572	15.3663	-12.0781	27.4725
 214	1	1	0.153856	16.4286	-12.1402	27.7021
 215	1	2	-0.109138	14.4213	-12.6679	28.3313
 216	1	3	0.998761	14.9529	-13.5645	29.799
 217	1	2	-0.03943	13.0521	-12.5988	28.0186
 218	1	1	0.156851	12.3211	-13.0623	28.6793
 219	1	2	-0.395833	12.6342	-11.9637	26.836
 220	1	1	0.202602	11.5777	-11.9245	26.5856
 221	1	2	0.320255	13.5803	-11.4288	25.9429
 222	1	4	-0.566353	14.1019	-14.7534	29.9226
 223	1	4	-0.565639	16.418	-13.6578	29.7662
 224	1	1	0.171248	12.8766	-13.7176	31.8558
 225	1	2	-0.142243	13.4371	-12.7986	32.0182
 226	1	2	-0.199349	13.1001	-11.9572	33.0909
 227	1	1	0.156233	12.2806	-12.2214	33.7518
 228	1	2	0.310144	13.8228	-10.7732	33.3147
 229	1	5	-0.374171	13.5129	-9.96679	34.3795
 230	1	1	0.18393	16.0645	-11.0111	30.7429
 231	1	2	-0.1794	15.2301	-11.2727	31.3914
 232	1	2	-0.069637	14.5056	-12.4615	31.1629
 233	1	1	0.24118	11.2733	-10.366	35.6608
 234	1	1	0.2544	11.0682	-11.5929	37.8688
 235	1	2	-0.557237	12.1511	-10.7242	36.191
 236	1	2	-0.032586	12.0432	-11.4089	37.421
 237	1	2	0.370208	13.4186	-10.52	35.6255
 238	1	2	0.127886	13.1956	-11.8963	38.0697
 239	1	7	-0.036788	13.0635	-12.6188	39.2267
 240	1	2	0.039962	14.5745	-10.9651	36.291
 241	1	2	-0.445847	14.4685	-11.6517	37.5158
 242	1	1	0.122566	15.5448	-10.7898	35.8385
 243	1	1	0.163876	15.3661	-12.0044	38.0155
 244	1	2	-0.180142	14.8844	-10.4299	32.4647
 245	1	1	0.144642	15.4488	-9.5205	32.6546
 246	1	1	0.203463	14.134	-13.1991	41.5514
 247	1	2	-0.404697	14.3484	-13.9238	40.7716
 248	1	2	-0.023572	15.1717	-15.0298	41.0461
 249	1	1	0.153856	15.5957	-15.1636	42.0405
 250	1	2	-0.109138	15.465	-15.9558	40.0289
 251	1	3	0.998761	16.6333	-17.2894	40.3409
 252	1	2	-0.03943	14.9032	-15.7953	38.7504
 253	1	1	0.156851	15.1161	-16.5209	37.9649
 254	1	2	-0.395833	14.0872	-14.6829	38.4831
 255	1	1	0.202602	13.6725	-14.5481	37.4878
 256	1	2	0.320255	13.8212	-13.7319	39.4857
 257	1	4	-0.566353	16.5882	-17.5794	41.7781
 258	1	4	-0.565639	16.4515	-18.311	39.3041
 259	1	1	0.171248	18.3423	-17.1175	37.9621
 260	1	2	-0.142243	18.7982	-16.5103	38.7434
 261	1	2	-0.199349	19.9844	-15.8006	38.4835
 262	1	1	0.156233	20.4508	-15.8452	37.5041
 263	1	2	0.310144	20.5663	-15.0171	39.4903
 264	1	5	-0.374171	21.6833	-14.2784	39.2098
 265	1	1	0.18393	18.3414	-15.6119	42.0174
 266	1	2	-0.1794	18.7971	-15.6604	41.0293
 267	1	2	-0.069637	18.1974	-16.4382	40.0174
 268	1	1	0.24118	19.5164	-12.7146	38.9659
 269	1	1	0.2544	19.5813	-10.2132	38.7366
 270	1	2	-0.557237	20.4657	-12.1898	39.012
 271	1	2	-0.032586	20.4997	-10.7832	38.8914
 272	1	2	0.370208	21.6698	-12.9067	39.1617
 273	1	2	0.127886	21.7285	-10.0976	38.9254
 274	1	7	-0.036788	21.75	-8.74042	38.7594
 275	1	2	0.039962	22.8948	-12.2173	39.2067
 276	1	2	-0.445847	22.93	-10.814	39.0987
 277	1	1	0.122566	23.8165	-12.7809	39.3179
 278	1	1	0.163876	23.8823	-10.2927	39.141
 279	1	2	-0.180142	19.9796	-14.9495	40.7633
 280	1	1	0.144642	20.4388	-14.3388	41.5347
 281	1	1	0.203463	21.6983	-9.01188	36.143
 282	1	2	-0.404697	22.5301	-8.42187	36.5139
 283	1	2	-0.023572	23.4803	-7.9056	35.6179
 284	1	1	0.153856	23.3841	-8.09457	34.5495
 285	1	2	-0.109138	24.5602	-7.15043	36.1072
 286	1	3	0.998761	25.8313	-6.55601	34.9789
 287	1	2	-0.03943	24.6664	-6.88729	37.4854
 288	1	1	0.156851	25.4942	-6.28714	37.8608
 289	1	2	-0.395833	23.7071	-7.40466	38.3735
 290	1	1	0.202602	23.7899	-7.21485	39.4397
 291	1	2	0.320255	22.6405	-8.17689	37.8907
 292	1	4	-0.566353	26.2884	-5.26186	35.4961
 293	1	4	-0.565639	25.3438	-6.75022	33.6085
 294	1	1	0.171248	28.0038	-6.62619	36.9331
 295	1	2	-0.142243	28.0694	-7.53584	36.3379
 296	1	2	-0.199349	29.0605	-8.49175	36.6218
 297	1	1	0.156233	29.7473	-8.32332	37.4452
 298	1	2	0.310144	29.1509	-9.6666	35.8518
 299	1	5	-0.374171	30.0916	-10.6329	36.1167
 300	1	1	0.18393	26.5678	-9.08766	33.6821
 301	1	2	-0.1794	27.2617	-8.92001	34.5045
 302	1	2	-0.069637	27.1577	-7.75057	35.285
 303	1	1	0.24118	30.5975	-10.9427	38.6558
 304	1	1	0.2544	32.7825	-10.3552	39.7861
 305	1	2	-0.557237	31.4329	-10.5356	38.0909
 306	1	2	-0.032586	32.6527	-10.1973	38.716
 307	1	2	0.370208	31.2857	-10.3326	36.7109
 308	1	2	0.127886	33.714	-9.64552	37.9618
 309	1	7	-0.036788	34.9109	-9.30762	38.5396
 310	1	2	0.039962	32.3455	-9.8016	35.953
 311	1	2	-0.445847	33.5625	-9.46011	36.5759
 312	1	1	0.122566	32.2132	-9.65222	34.8855
 313	1	1	0.163876	34.3786	-9.04749	35.9876
 314	1	2	-0.180142	28.2566	-9.87218	34.7911
 315	1	1	0.144642	28.3312	-10.7807	34.2016
 316	1	1	0.203463	33.3349	-7.5012	39.7247
 317	1	2	-0.404697	34.139	-7.8882	40.3451
 318	1	2	-0.023572	34.2935	-7.41376	41.6602
 319	1	1	0.153856	33.6025	-6.67313	42.0624
 320	1	2	-0.109138	35.3546	-7.88478	42.4537
 321	1	3	0.998761	35.5402	-7.30858	44.1504
 322	1	2	-0.03943	36.2674	-8.81428	41.9243
 323	1	1	0.156851	37.1036	-9.16053	42.5309
 324	1	2	-0.395833	36.105	-9.28363	40.6095
 325	1	1	0.202602	36.8144	-9.99467	40.1958
 326	1	2	0.320255	35.0408	-8.82987	39.8169
 327	1	4	-0.566353	34.7964	-6.05094	44.2848
 328	1	4	-0.565639	36.9605	-7.44357	44.4912
 329	1	1	0.171248	36.31	-9.97928	45.0412
 330	1	2	-0.142243	35.279	-9.81709	45.3513
 331	1	2	-0.199349	34.5865	-10.8238	46.0466
 332	1	1	0.156233	35.0728	-11.7681	46.2703
 333	1	2	0.310144	33.266	-10.6036	46.4708
 334	1	5	-0.374171	32.5845	-11.5773	47.1521
 335	1	1	0.18393	32.8343	-7.41926	45.296
 336	1	2	-0.1794	33.3209	-8.37305	45.4976
 337	1	2	-0.069637	34.6476	-8.58886	45.0689
 338	1	1	0.24118	31.8763	-12.1555	44.6812
 339	1	1	0.2544	31.5785	-14.4689	43.7677
 340	1	2	-0.557237	32.0608	-13.0237	45.3071
 341	1	2	-0.032586	31.8941	-14.3298	44.8008
 342	1	2	0.370208	32.4419	-12.8423	46.6468
 343	1	2	0.127886	32.1231	-15.4558	45.6272
 344	1	7	-0.036788	31.9597	-16.7431	45.1778
 345	1	2	0.039962	32.6542	-13.958	47.4764
 346	1	2	-0.445847	32.5042	-15.2643	46.9677
 347	1	1	0.122566	32.9396	-13.8008	48.5122
 348	1	1	0.163876	32.6723	-16.122	47.6142
 349	1	2	-0.180142	32.6364	-9.37904	46.2041
 350	1	1	0.144642	31.6193	-9.21699	46.5481
 351	1	1	0.203463	29.6244	-17.621	44.3518
 352	1	2	-0.404697	30.3589	-17.4909	43.5616
 353	1	2	-0.023572	30.013	-17.7672	42.2278
 354	1	1	0.153856	29.0097	-18.1131	41.9817
 355	1	2	-0.109138	30.9647	-17.5921	41.2074
 356	1	3	0.998761	30.4959	-17.8712	39.4913
 357	1	2	-0.03943	32.2647	-17.1586	41.5253
 358	1	1	0.156851	33.0043	-17.0352	40.7346
 359	1	2	-0.395833	32.6028	-16.8877	42.8632
 360	1	1	0.202602	33.6076	-16.559	43.1148
 361	1	2	0.320255	31.6514	-17.0532	43.883
 362	1	4	-0.566353	31.7249	-18.0545	38.7112
 363	1	4	-0.565639	29.3926	-18.8379	39.4938
 364	1	1	0.171248	31.6418	-15.4919	38.217
 365	1	2	-0.142243	30.6051	-15.2673	38.4648
 366	1	2	-0.199349	30.071	-13.9976	38.179
 367	1	1	0.156233	30.6847	-13.2369	37.7059
 368	1	2	0.310144	28.733	-13.7138	38.4898
 369	1	5	-0.374171	28.2133	-12.4793	38.2076
 370	1	1	0.18393	27.8195	-16.7322	39.8161
 371	1	2	-0.1794	28.4498	-15.9665	39.3649
 372	1	2	-0.069637	29.7971	-16.2559	39.064
 373	1	1	0.24118	26.3092	-10.7321	38.3291
 374	1	1	0.2544	24.5609	-10.3256	36.5555
 375	1	2	-0.557237	26.2872	-11.3261	37.4209
 376	1	2	-0.032586	25.3163	-11.0989	36.4211
 377	1	2	0.370208	27.27	-12.307	37.2265
 378	1	2	0.127886	25.3291	-11.8568	35.2289
 379	1	7	-0.036788	24.4377	-11.6192	34.215
 380	1	2	0.039962	27.2828	-13.0659	36.0369
 381	1	2	-0.445847	26.3148	-12.8408	35.0378
 382	1	1	0.122566	28.0549	-13.8135	35.8814
 383	1	1	0.163876	26.3379	-13.4181	34.1166
 384	1	2	-0.180142	27.921	-14.6958	39.0778
 385	1	1	0.144642	26.8853	-14.4667	39.3096
 386	1	1	0.203463	22.8935	-12.6761	36.1328
 387	1	2	-0.404697	22.3837	-12.0119	35.4403
 388	1	2	-0.023572	21.0076	-11.778	35.5919
 389	1	1	0.153856	20.4614	-12.2533	36.4017
 390	1	2	-0.109138	20.3329	-10.9281	34.6998
 391	1	3	0.998761	18.5841	-10.5869	34.9629
 392	1	2	-0.03943	21.0338	-10.3369	33.6332
 393	1	1	0.156851	20.5137	-9.68263	32.9331
 394	1	2	-0.395833	22.4109	-10.5832	33.4835
 395	1	1	0.202602	22.9546	-10.1294	32.6588
 396	1	2	0.320255	23.0962	-11.4054	34.3916
 397	1	4	-0.566353	18.1019	-9.78643	33.8325
 398	1	4	-0.565639	18.456	-10.133	36.3547
 399	1	1	0.171248	17.7238	-12.485	37.0332
 400	1	2	-0.142243	17.5376	-12.94	36.0628
 401	1	2	-0.199349	16.9906	-14.2326	35.9912
 402	1	1	0.156233	16.7631	-14.7805	36.899
 403	1	2	0.310144	16.7433	-14.8315	34.7471
 404	1	5	-0.374171	16.2526	-16.1177	34.7346
 405	1	1	0.18393	17.7804	-12.277	32.7121
 406	1	2	-0.1794	17.5666	-12.821	33.6317
 407	1	2	-0.069637	17.8359	-12.2312	34.8813
 408	1	1	0.24118	14.3927	-15.8998	32.9099
 409	1	1	0.2544	14.4075	-17.0636	30.683
 410	1	2	-0.557237	15.1683	-16.6199	32.6688
 411	1	2	-0.032586	15.1865	-17.2699	31.4176
 412	1	2	0.370208	16.2001	-16.86	33.5852
 413	1	2	0.127886	16.2331	-18.1582	31.0861
 414	1	7	-0.036788	16.2936	-18.7486	29.85
 415	1	2	0.039962	17.2218	-17.7787	33.279
 416	1	2	-0.445847	17.2388	-18.4353	32.0308
 417	1	1	0.122566	18.0144	-17.9509	34.0003
 418	1	1	0.163876	18.0418	-19.1255	31.7864
 419	1	2	-0.180142	17.0283	-14.1166	33.5651
 420	1	1	0.144642	16.84	-14.5546	32.5887
 421	1	1	0.203463	17.0938	-16.3069	29.1439
 422	1	2	-0.404697	16.4192	-16.7897	28.4409
 423	1	2	-0.023572	15.9965	-16.0904	27.2976
 424	1	1	0.153856	16.3462	-15.0737	27.1234
 425	1	2	-0.109138	15.0878	-16.6896	26.4072
 426	1	3	0.998761	14.454	-15.7648	24.9976
 427	1	2	-0.03943	14.6178	-17.9912	26.6583
 428	1	1	0.156851	13.8964	-18.4465	25.9817
 429	1	2	-0.395833	15.0537	-18.6869	27.8003
 430	1	1	0.202602	14.6776	-19.6844	28.0067
 431	1	2	0.320255	15.941	-18.0844	28.7043
 432	1	4	-0.566353	13.006	-16.0006	24.9648
 433	1	4	-0.565639	15.003	-14.4058	25.0537
 434	1	1	0.171248	13.491	-17.9804	23.3361
 435	1	2	-0.142243	14.4418	-17.6441	22.9246
 436	1	2	-0.199349	14.939	-18.2317	21.7487
 437	1	1	0.156233	14.388	-19.0314	21.2627
 438	1	2	0.310144	16.1327	-17.7651	21.178
 439	1	5	-0.374171	16.5594	-18.2696	19.9774
 440	1	1	0.18393	16.8991	-15.316	23.4403
 441	1	2	-0.1794	16.3617	-16.1437	22.9792
 442	1	2	-0.069637	15.1475	-16.5913	23.5424
 443	1	1	0.24118	15.8049	-15.8862	19.1383
 444	1	1	0.2544	14.417	-15.4427	17.0928
 445	1	2	-0.557237	15.4756	-16.709	18.5102
 446	1	2	-0.032586	14.6935	-16.4635	17.3625
 447	1	2	0.370208	15.8319	-18.0265	18.8408
 448	1	2	0.127886	14.2299	-17.5347	16.5691
 449	1	7	-0.036788	13.3726	-17.3196	15.5189
 450	1	2	0.039962	15.4308	-19.0905	18.0112
 451	1	2	-0.445847	14.6314	-18.8496	16.8729
 452	1	1	0.122566	15.7186	-20.1031	18.2765
 453	1	1	0.163876	14.3001	-19.681	16.2572
 454	1	2	-0.180142	16.8534	-16.7346	21.8
 455	1	1	0.144642	17.7712	-16.3763	21.3442
 456	1	1	0.203463	12.2115	-16.0953	17.6356
 457	1	2	-0.404697	11.5481	-16.3859	16.8325
 458	1	2	-0.023572	10.1845	-16.1026	16.9794
 459	1	1	0.153856	9.82731	-15.6219	17.8862
 460	1	2	-0.109138	9.27886	-16.4585	15.9721
 461	1	3	0.998761	7.51864	-16.1857	16.2453
 462	1	2	-0.03943	9.75298	-17.0735	14.7992
 463	1	1	0.156851	9.04969	-17.3606	14.0195
 464	1	2	-0.395833	11.1303	-17.3366	14.6535
 465	1	1	0.202602	11.4958	-17.8263	13.7597
 466	1	2	0.320255	12.0395	-17.017	15.6771
 467	1	4	-0.566353	7.32738	-16.1051	17.6971
 468	1	4	-0.565639	6.77892	-17.1533	15.4284
 469	1	1	0.171248	8.30264	-13.4936	17.1169
 470	1	2	-0.142243	7.6891	-13.3902	16.2226
 471	1	2	-0.199349	7.37546	-12.1099	15.731
 472	1	1	0.156233	7.75567	-11.2258	16.2333
 473	1	2	0.310144	6.57264	-11.9603	14.5902
 474	1	5	-0.374171	6.29765	-10.6836	14.15
 475	1	1	0.18393	5.93695	-15.2663	13.9604
 476	1	2	-0.1794	6.36255	-14.3868	14.4414
 477	1	2	-0.069637	7.18887	-14.5368	15.574
 478	1	1	0.24118	7.19486	-11.6579	11.8574
 479	1	1	0.2544	6.27286	-11.118	9.59798
 480	1	2	-0.557237	6.37728	-10.9538	11.754
 481	1	2	-0.032586	5.85128	-10.6429	10.4828
 482	1	2	0.370208	5.82004	-10.366	12.902
 483	1	2	0.127886	4.78223	-9.72456	10.3504
 484	1	7	-0.036788	4.23039	-9.41424	9.13047
 485	1	2	0.039962	4.77795	-9.42901	12.7715
 486	1	2	-0.445847	4.25698	-9.10738	11.5005
 487	1	1	0.122566	4.36891	-8.96591	13.6645
 488	1	1	0.163876	3.4435	-8.39128	11.4114
 489	1	2	-0.180142	6.04761	-13.1048	13.9595
 490	1	1	0.144642	5.38135	-13.0046	13.1089
 491	1	1	0.203463	2.74996	-11.4052	8.24441
 492	1	2	-0.404697	3.64169	-11.2117	7.65459
 493	1	2	-0.023572	3.95347	-12.0327	6.55708
 494	1	1	0.153856	3.30348	-12.8658	6.29165
 495	1	2	-0.109138	5.12606	-11.7975	5.81757
 496	1	3	0.998761	5.59582	-12.9534	4.5199
 497	1	2	-0.03943	5.96789	-10.7219	6.1562
 498	1	1	0.156851	6.87637	-10.537	5.58256
 499	1	2	-0.395833	5.64241	-9.89917	7.24912
 500	1	1	0.202602	6.29344	-9.07073	7.51765
 501	1	2	0.320255	4.48436	-10.146	8.00412
 502	1	4	-0.566353	4.3726	-13.4033	3.84643
 503	1	4	-0.565639	6.72809	-12.3706	3.793
 504	1	1	0.171248	8.11084	-13.4158	5.97115
 505	1	2	-0.142243	7.45459	-14.2637	6.16561
 506	1	2	-0.199349	7.85442	-15.274	7.0624
 507	1	1	0.156233	8.81087	-15.1922	7.56394
 508	1	2	0.310144	6.99978	-16.3602	7.33081
 509	1	5	-0.374171	7.2698	-17.3257	8.27282
 510	1	1	0.18393	4.35936	-15.4681	5.3402
 511	1	2	-0.1794	5.34116	-15.4167	5.8105
 512	1	2	-0.069637	6.18949	-14.3244	5.54513
 513	1	1	0.24118	9.64673	-17.4966	7.08111
 514	1	1	0.2544	11.7618	-18.2626	8.21811
 515	1	2	-0.557237	9.65748	-17.7109	8.14556
 516	1	2	-0.032586	10.8388	-18.1475	8.78552
 517	1	2	0.370208	8.46696	-17.6027	8.88245
 518	1	2	0.127886	10.835	-18.4467	10.1635
 519	1	7	-0.036788	11.9871	-18.8407	10.7901
 520	1	2	0.039962	8.46941	-17.8936	10.2587
 521	1	2	-0.445847	9.64957	-18.3099	10.9061
 522	1	1	0.122566	7.54326	-17.8012	10.8162
 523	1	1	0.163876	9.63163	-18.5511	11.9656
 524	1	2	-0.180142	5.75218	-16.4283	6.69304
 525	1	1	0.144642	5.09054	-17.2595	6.90692
 526	1	1	0.203463	11.6754	-16.1837	11.0075
 527	1	2	-0.404697	12.5818	-16.5778	11.4488
 528	1	2	-0.023572	13.4795	-15.6917	12.0631
 529	1	1	0.153856	13.2712	-14.622	12.0743
 530	1	2	-0.109138	14.6465	-16.1871	12.6642
 531	1	3	0.998761	15.8283	-15.0379	13.3885
 532	1	2	-0.03943	14.8933	-17.5725	12.676
 533	1	1	0.156851	15.7872	-17.9633	13.1626
 534	1	2	-0.395833	13.991	-18.4499	12.0461
 535	1	1	0.202602	14.1895	-19.5179	12.0455
 536	1	2	0.320255	12.8381	-17.9599	11.4125
 537	1	4	-0.566353	15.5959	-13.7373	12.7477
 538	1	4	-0.565639	15.7397	-15.1365	14.847
 539	1	1	0.171248	18.3403	-15.5236	14.8296
 540	1	2	-0.142243	18.4976	-15.8037	13.7884
 541	1	2	-0.199349	19.7568	-16.2729	13.3669
 542	1	1	0.156233	20.576	-16.3637	14.0737
 543	1	2	0.310144	19.9698	-16.6069	12.0206
 544	1	5	-0.374171	21.2008	-17.0482	11.6112
 545	1	1	0.18393	16.8432	-15.9943	10.7956
 546	1	2	-0.1794	17.6518	-16.0643	11.5192
 547	1	2	-0.069637	17.4418	-15.68	12.8615
 548	1	1	0.24118	22.2998	-18.1122	9.51539
 549	1	1	0.2544	23.7482	-16.8958	7.83302
 550	1	2	-0.557237	22.4952	-17.0487	9.60792
 551	1	2	-0.032586	23.3024	-16.3637	8.67159
 552	1	2	0.370208	21.9436	-16.3495	10.6922
 553	1	2	0.127886	23.5693	-14.9872	8.83221
 554	1	7	-0.036788	24.4373	-14.328	8.00316
 555	1	2	0.039962	22.2112	-14.9752	10.8528
 556	1	2	-0.445847	23.0305	-14.2938	9.92981
 557	1	1	0.122566	21.7882	-14.4435	11.6997
 558	1	1	0.163876	23.2395	-13.2368	10.0673
 559	1	2	-0.180142	18.9142	-16.5209	11.1014
 560	1	1	0.144642	19.0887	-16.7913	10.0639
 561	1	1	0.203463	26.4343	-13.7432	6.45556
 562	1	2	-0.404697	25.4998	-13.8867	5.92109
 563	1	2	-0.023572	25.4534	-13.6886	4.53075
 564	1	1	0.153856	26.3501	-13.3915	3.98802
 565	1	2	-0.109138	24.2378	-13.8389	3.84371
 566	1	3	0.998761	24.1564	-13.4165	2.0912
 567	1	2	-0.03943	23.0786	-14.2168	4.54967
 568	1	1	0.156851	22.1331	-14.3302	4.0209
 569	1	2	-0.395833	23.1347	-14.4133	5.94307
 570	1	1	0.202602	22.2259	-14.6597	6.48975
 571	1	2	0.320255	24.3457	-14.2392	6.63787
 572	1	4	-0.566353	22.9181	-14.0016	1.56186
 573	1	4	-0.565639	25.4738	-13.6334	1.48268
 574	1	1	0.171248	21.8642	-11.8926	2.94527
 575	1	2	-0.142243	22.6425	-11.1763	2.69009
 576	1	2	-0.199349	22.4201	-9.80717	2.88544
 577	1	1	0.156233	21.4675	-9.48097	3.28879
 578	1	2	0.310144	23.4309	-8.87146	2.5983
 579	1	5	-0.374171	23.2513	-7.54391	2.91676
 580	1	1	0.18393	25.8418	-11.0397	1.48847
 581	1	2	-0.1794	24.8821	-10.6925	1.87139
 582	1	2	-0.069637	23.8779	-11.6303	2.198
 583	1	1	0.24118	24.2162	-8.04997	5.28223
 584	1	1	0.2544	22.8484	-8.1105	7.39547
 585	1	2	-0.557237	23.1944	-7.68075	5.29283
 586	1	2	-0.032586	22.4248	-7.71707	6.47175
 587	1	2	0.370208	22.604	-7.26115	4.09126
 588	1	2	0.127886	21.0639	-7.35331	6.44227
 589	1	7	-0.036788	20.2717	-7.65143	7.51696
 590	1	2	0.039962	21.2633	-6.83369	4.07268
 591	1	2	-0.445847	20.4832	-6.8918	5.24587
 592	1	1	0.122566	20.8123	-6.56029	3.12547
 593	1	1	0.163876	19.4273	-6.64104	5.20997
 594	1	2	-0.180142	24.6542	-9.31456	2.07022
 595	1	1	0.144642	25.4354	-8.59143	1.8555
 596	1	1	0.203463	19.7371	-8.57604	9.93158
 597	1	2	-0.404697	19.7728	-9.3394	9.15761
 598	1	2	-0.023572	19.5584	-10.6892	9.4957
 599	1	1	0.153856	19.3706	-10.9671	10.5332
 600	1	2	-0.109138	19.6013	-11.679	8.49487
 601	1	3	0.998761	19.3732	-13.4157	8.90815
 602	1	2	-0.03943	19.8414	-11.3147	7.16124
 603	1	1	0.156851	19.8846	-12.079	6.38582
 604	1	2	-0.395833	20.0396	-9.96582	6.83252
 605	1	1	0.202602	20.2235	-9.7025	5.79496
 606	1	2	0.320255	20.0258	-8.96803	7.82901
 607	1	4	-0.566353	19.6173	-13.5518	10.3471
 608	1	4	-0.565639	20.0753	-14.209	7.89175
 609	1	1	0.171248	17.7946	-14.1269	6.51905
 610	1	2	-0.142243	17.1059	-14.0052	7.35418
 611	1	2	-0.199349	15.7227	-14.1841	7.15731
 612	1	1	0.156233	15.342	-14.4283	6.1703
 613	1	2	0.310144	14.8248	-14.0406	8.22744
 614	1	5	-0.374171	13.4776	-14.2064	7.98326
 615	1	1	0.18393	17.085	-13.3195	10.7029
 616	1	2	-0.1794	16.7059	-13.5518	9.70628
 617	1	2	-0.069637	17.6017	-13.6668	8.62957
 618	1	1	0.24118	13.3553	-11.9249	9.38694
 619	1	1	0.2544	11.5999	-11.3969	11.0915
 620	1	2	-0.557237	12.5281	-12.6072	9.54573
 621	1	2	-0.032586	11.5205	-12.2952	10.479
 622	1	2	0.370208	12.4463	-13.7935	8.79832
 623	1	2	0.127886	10.4164	-13.1554	10.6525
 624	1	7	-0.036788	9.5247	-12.9278	11.666
 625	1	2	0.039962	11.2969	-14.5976	8.90347
 626	1	2	-0.445847	10.2812	-14.2921	9.836
 627	1	1	0.122566	11.2294	-15.4874	8.28912
 628	1	1	0.163876	9.42827	-14.9547	9.95721
 629	1	2	-0.180142	15.3323	-13.7663	9.51035
 630	1	1	0.144642	14.6659	-13.7077	10.3622
 631	1	1	0.203463	10.9192	-14.7536	12.9553
 632	1	2	-0.404697	10.7895	-13.822	13.4958
 633	1	2	-0.023572	11.4299	-13.64	14.7312
 634	1	1	0.153856	12.0812	-14.4129	15.1265
 635	1	2	-0.109138	11.2609	-12.4415	15.4409
 636	1	3	0.998761	12.199	-12.1551	16.9553
 637	1	2	-0.03943	10.4579	-11.4202	14.8994
 638	1	1	0.156851	10.3366	-10.4835	15.4412
 639	1	2	-0.395833	9.84374	-11.5962	13.6445
 640	1	1	0.202602	9.24556	-10.7951	13.2183
 641	1	2	0.320255	10.0067	-12.7988	12.9404
 642	1	4	-0.566353	11.3794	-11.2972	17.8194
 643	1	4	-0.565639	12.7733	-13.4331	17.4013
 644	1	1	0.171248	14.8503	-12.8132	15.8793
 645	1	2	-0.142243	14.6882	-11.7443	15.7475
 646	1	2	-0.199349	15.6266	-10.9798	15.0319
 647	1	1	0.156233	16.5157	-11.45	14.6219
 648	1	2	0.310144	15.3815	-9.62011	14.7779
 649	1	5	-0.374171	16.2284	-8.88506	13.987
 650	1	1	0.18393	12.4295	-9.27271	16.4699
 651	1	2	-0.1794	13.321	-9.7521	16.0681
 652	1	2	-0.069637	13.519	-11.137	16.2503
 653	1	1	0.24118	15.5124	-11.015	12.4849
 654	1	1	0.2544	15.7034	-11.1185	10.0045
 655	1	2	-0.557237	15.871	-10.1492	11.9368
 656	1	2	-0.032586	15.9755	-10.2132	10.5338
 657	1	2	0.370208	16.2655	-8.97567	12.6122
 658	1	2	0.127886	16.4498	-9.11795	9.79394
 659	1	7	-0.036788	16.6365	-9.25972	8.4479
 660	1	2	0.039962	16.7428	-7.87645	11.8678
 661	1	2	-0.445847	16.8374	-7.94315	10.4604
 662	1	1	0.122566	17.0469	-6.97363	12.3914
 663	1	1	0.163876	17.2218	-7.09524	9.90088
 664	1	2	-0.180142	14.2503	-8.99928	15.3277
 665	1	1	0.144642	14.0861	-7.94023	15.1525
 666	1	1	0.203463	17.8567	-8.13487	6.4455