pySIMM System Object

1717 atoms
1863 bonds
3038 angles
4506 dihedrals
588 impropers

7 atom types
7 bond types
11 angle types
4 dihedral types
1 improper types

-186.291613 186.291613 xlo xhi
-186.291613 186.291613 ylo yhi
-186.291613 186.291613 zlo zhi

Masses

   1	1.008	# ha
   2	12.01	# ca
   3	32.06	# sy
   4	16.0	# o
   5	16.0	# os
   6	1.008	# ho
   7	16.0	# oh

Pair Coeffs

   1	0.015	2.59964245953351	# ha
   2	0.086	3.3996695084235347	# ca
   3	0.25	3.563594872561357	# sy
   4	0.21	2.959921901149463	# o
   5	0.17	3.0000123434657784	# os
   6	0.0	0.0	# ho
   7	0.2104	3.0664733878390478	# oh

Bond Coeffs

   1	493.0	1.466	# o,sy
   2	345.8	1.086	# ca,ha
   3	384.0	1.3637	# ca,oh
   4	376.6	1.3696	# ca,os
   5	371.4	0.973	# ho,oh
   6	243.4	1.7909	# ca,sy
   7	461.1	1.3984	# ca,ca

Angle Coeffs

   1	48.18	119.88	# ca,ca,ha
   2	61.48	119.42	# ca,ca,sy
   3	72.54	121.41	# o,sy,o
   4	69.58	119.2	# ca,ca,os
   5	60.3	104.44	# ca,sy,ca
   6	49.0	108.58	# ca,oh,ho
   7	65.77	108.35	# ca,sy,o
   8	63.48	119.89	# ca,os,ca
   9	69.52	119.9	# ca,ca,oh
  10	66.62	120.02	# ca,ca,ca
  11	63.5	119.89	# ca,oh,ca

Dihedral Coeffs

   1	1	0.9	2	180	# X,ca,os,X
   2	1	0.9	2	180	# X,ca,oh,X
   3	1	3.625	2	180	# X,ca,ca,X
   4	1	1.3	2	180	# X,ca,sy,X

Improper Coeffs

   1	1.1	-1	2	# ca,X,X,ha

Atoms

   1	1	1	0.203463	-3.73138	22.9629	-12.7823
   2	1	2	-0.404697	-4.05492	23.7586	-13.4484
   3	1	2	-0.023572	-3.99692	23.5849	-14.8422
   4	1	1	0.153856	-3.61993	22.6517	-15.2593
   5	1	2	-0.109138	-4.44213	24.6132	-15.6937
   6	1	3	0.998761	-4.45869	24.3664	-17.4796
   7	1	2	-0.03943	-4.94832	25.8071	-15.1454
   8	1	1	0.156851	-5.31511	26.5969	-15.7989
   9	1	2	-0.395833	-5.00396	25.969	-13.7499
  10	1	1	0.202602	-5.4049	26.8813	-13.3187
  11	1	2	0.320255	-4.5634	24.9443	-12.8989
  12	1	4	-0.566353	-3.58407	25.3392	-18.1384
  13	1	4	-0.565639	-4.29978	22.9313	-17.7465
  14	1	1	0.171248	-5.56692	25.7354	-19.8334
  15	1	2	-0.142243	-6.39914	25.4403	-19.1954
  16	1	2	-0.199349	-7.72384	25.671	-19.6109
  17	1	1	0.156233	-7.92865	26.1288	-20.5728
  18	1	2	0.310144	-8.79313	25.2595	-18.8017
  19	1	5	-0.374171	-10.0771	25.2973	-19.2818
  20	1	1	0.18393	-7.03964	23.9293	-16.1876
  21	1	2	-0.1794	-7.22476	24.4231	-17.141
  22	1	2	-0.069637	-6.14681	24.7925	-17.9681
  23	1	1	0.24118	-9.13914	23.1666	-20.4703
  24	1	1	0.2544	-10.2343	20.9155	-20.5064
  25	1	2	-0.557237	-10.1169	23.0231	-20.0193
  26	1	2	-0.032586	-10.7336	21.759	-20.0286
  27	1	2	0.370208	-10.7512	24.1081	-19.3927
  28	1	2	0.127886	-11.9698	21.5649	-19.375
  29	1	7	-0.036788	-12.5239	20.3141	-19.2906
  30	1	2	0.039962	-12.01	23.9319	-18.7875
  31	1	2	-0.445847	-12.6192	22.6578	-18.77
  32	1	1	0.122566	-12.4849	24.7756	-18.2951
  33	1	1	0.163876	-13.5751	22.5192	-18.2703
  34	1	2	-0.180142	-8.54274	24.6605	-17.557
  35	1	1	0.144642	-9.37298	24.3423	-16.9352
  36	1	1	0.203463	-10.8008	19.9166	-17.318
  37	1	2	-0.404697	-10.8297	19.1234	-18.0592
  38	1	2	-0.023572	-9.96643	18.0205	-17.9345
  39	1	1	0.153856	-9.2828	17.953	-17.088
  40	1	2	-0.109138	-9.99415	16.9991	-18.9009
  41	1	3	0.998761	-8.94022	15.546	-18.7136
  42	1	2	-0.03943	-10.8948	17.0825	-19.9802
  43	1	1	0.156851	-10.9278	16.2865	-20.723
  44	1	2	-0.395833	-11.7611	18.1851	-20.0913
  45	1	1	0.202602	-12.4534	18.2549	-20.9261
  46	1	2	0.320255	-11.7336	19.2071	-19.1315
  47	1	4	-0.566353	-8.6465	15.4002	-17.2832
  48	1	4	-0.565639	-9.59406	14.4729	-19.4746
  49	1	1	0.171248	-6.39583	16.6279	-17.747
  50	1	2	-0.142243	-6.31262	16.496	-18.825
  51	1	2	-0.199349	-5.10777	16.8122	-19.4773
  52	1	1	0.156233	-4.26297	17.1929	-18.9121
  53	1	2	0.310144	-4.98624	16.6204	-20.8631
  54	1	5	-0.374171	-3.81766	16.9256	-21.5078
  55	1	1	0.18393	-8.09415	15.3548	-21.5179
  56	1	2	-0.1794	-7.27002	15.7829	-20.9501
  57	1	2	-0.069637	-7.4029	15.9873	-19.5606
  58	1	1	0.24118	-4.99315	19.1484	-22.245
  59	1	1	0.2544	-4.00101	21.4578	-22.0197
  60	1	2	-0.557237	-4.00579	19.2906	-21.8159
  61	1	2	-0.032586	-3.44709	20.5797	-21.6906
  62	1	2	0.370208	-3.26714	18.1728	-21.3983
  63	1	2	0.127886	-2.16723	20.7493	-21.1282
  64	1	7	-0.036788	-1.65151	22.0116	-21.009
  65	1	2	0.039962	-1.97535	18.3345	-20.866
  66	1	2	-0.445847	-1.42402	19.6229	-20.7219
  67	1	1	0.122566	-1.41309	17.4584	-20.5572
  68	1	1	0.163876	-0.426588	19.7438	-20.3044
  69	1	2	-0.180142	-6.06103	16.0986	-21.5967
  70	1	1	0.144642	-5.94376	15.9357	-22.664
  71	1	1	0.203463	0.368597	23.6753	-21.0337
  72	1	2	-0.404697	0.0646025	23.3642	-20.0394
  73	1	2	-0.023572	0.729981	23.8727	-18.9104
  74	1	1	0.153856	1.55007	24.579	-19.0291
  75	1	2	-0.109138	0.324061	23.4812	-17.6227
  76	1	3	0.998761	1.10512	24.2126	-16.1769
  77	1	2	-0.03943	-0.731715	22.5672	-17.4675
  78	1	1	0.156851	-1.05025	22.2673	-16.4707
  79	1	2	-0.395833	-1.38449	22.057	-18.6014
  80	1	1	0.202602	-2.21737	21.372	-18.4762
  81	1	2	0.320255	-0.994528	22.4564	-19.8917
  82	1	4	-0.566353	0.771465	23.3817	-15.0134
  83	1	4	-0.565639	2.48399	24.5457	-16.5523
  84	1	1	0.171248	1.54639	26.8613	-17.3339
  85	1	2	-0.142243	0.631827	26.9088	-16.7452
  86	1	2	-0.199349	-0.108052	28.1033	-16.6894
  87	1	1	0.156233	0.221654	28.9823	-17.2337
  88	1	2	0.310144	-1.2865	28.1633	-15.9338
  89	1	5	-0.374171	-2.01253	29.3256	-15.9126
  90	1	1	0.18393	-1.32139	24.9693	-14.7067
  91	1	2	-0.1794	-0.98377	25.8418	-15.2647
  92	1	2	-0.069637	0.190862	25.7691	-16.0415
  93	1	1	0.24118	-3.7232	30.9786	-14.9249
  94	1	1	0.2544	-6.15841	31.1636	-15.5818
  95	1	2	-0.557237	-4.15236	30.328	-15.6819
  96	1	2	-0.032586	-5.50962	30.4276	-16.054
  97	1	2	0.370208	-3.32795	29.3772	-16.2985
  98	1	2	0.127886	-6.04314	29.5841	-17.048
  99	1	7	-0.036788	-7.37279	29.6948	-17.3652
 100	1	2	0.039962	-3.85553	28.5338	-17.299
 101	1	2	-0.445847	-5.21379	28.6271	-17.6669
 102	1	1	0.122566	-3.20949	27.8115	-17.7891
 103	1	1	0.163876	-5.60876	27.965	-18.4317
 104	1	2	-0.180142	-1.71501	27.0411	-15.2076
 105	1	1	0.144642	-2.60958	27.1067	-14.599
 106	1	1	0.203463	-6.29968	30.4205	-19.7031
 107	1	2	-0.404697	-7.24742	29.8945	-19.7785
 108	1	2	-0.023572	-7.81451	29.6544	-21.0422
 109	1	1	0.153856	-7.30686	29.9955	-21.944
 110	1	2	-0.109138	-9.04292	28.9769	-21.14
 111	1	3	0.998761	-9.74667	28.6049	-22.7548
 112	1	2	-0.03943	-9.70964	28.5624	-19.974
 113	1	1	0.156851	-10.6658	28.0457	-20.0498
 114	1	2	-0.395833	-9.13556	28.8084	-18.7148
 115	1	1	0.202602	-9.64843	28.485	-17.8143
 116	1	2	0.320255	-7.89737	29.4597	-18.6096
 117	1	4	-0.566353	-11.2034	28.5214	-22.6004
 118	1	4	-0.565639	-9.09315	29.4849	-23.7299
 119	1	1	0.171248	-10.956	25.9571	-22.3861
 120	1	2	-0.142243	-9.94229	25.8093	-22.7568
 121	1	2	-0.199349	-9.45423	24.5077	-22.9703
 122	1	1	0.156233	-10.0881	23.6497	-22.7716
 123	1	2	0.310144	-8.14978	24.3142	-23.4506
 124	1	5	-0.374171	-7.66963	23.0453	-23.6489
 125	1	1	0.18393	-7.19369	27.585	-23.7607
 126	1	2	-0.1794	-7.8191	26.7245	-23.5253
 127	1	2	-0.069637	-9.12713	26.9251	-23.0365
 128	1	1	0.24118	-6.29009	23.7234	-21.5045
 129	1	1	0.2544	-5.81465	22.2071	-19.5534
 130	1	2	-0.557237	-6.65054	22.699	-21.5031
 131	1	2	-0.032586	-6.38643	21.8485	-20.4104
 132	1	2	0.370208	-7.38877	22.2173	-22.5961
 133	1	2	0.127886	-6.85485	20.5185	-20.4132
 134	1	7	-0.036788	-6.60154	19.6969	-19.3499
 135	1	2	0.039962	-7.83838	20.883	-22.61
 136	1	2	-0.445847	-7.5797	20.0301	-21.5161
 137	1	1	0.122566	-8.39527	20.5228	-23.4702
 138	1	1	0.163876	-7.92726	18.9993	-21.5268
 139	1	2	-0.180142	-7.33347	25.42	-23.7307
 140	1	1	0.144642	-6.33102	25.2606	-24.1163
 141	1	1	0.203463	-8.6713	21.0763	-18.4512
 142	1	2	-0.404697	-7.92053	20.852	-17.7034
 143	1	2	-0.023572	-8.10133	21.2962	-16.3869
 144	1	1	0.153856	-8.99328	21.8591	-16.117
 145	1	2	-0.109138	-7.12557	21.0186	-15.4169
 146	1	3	0.998761	-7.41241	21.5594	-13.7265
 147	1	2	-0.03943	-5.97068	20.2953	-15.7668
 148	1	1	0.156851	-5.20815	20.0886	-15.016
 149	1	2	-0.395833	-5.80465	19.8445	-17.0892
 150	1	1	0.202602	-4.90603	19.3023	-17.3682
 151	1	2	0.320255	-6.77546	20.123	-18.0618
 152	1	4	-0.566353	-6.35352	20.9735	-12.8992
 153	1	4	-0.565639	-7.67552	23.0027	-13.7789
 154	1	1	0.171248	-10.1287	22.5751	-13.2549
 155	1	2	-0.142243	-10.1727	21.4869	-13.244
 156	1	2	-0.199349	-11.4108	20.8382	-13.0919
 157	1	1	0.156233	-12.3222	21.4179	-12.9748
 158	1	2	0.310144	-11.4743	19.4353	-13.0895
 159	1	5	-0.374171	-12.6809	18.7918	-12.9987
 160	1	1	0.18393	-8.1431	18.7359	-13.4476
 161	1	2	-0.1794	-9.05509	19.3236	-13.3468
 162	1	2	-0.069637	-8.98918	20.7324	-13.3839
 163	1	1	0.24118	-15.1365	18.5327	-12.2324
 164	1	1	0.2544	-17.1708	18.9868	-13.6047
 165	1	2	-0.557237	-15.0383	18.9017	-13.2516
 166	1	2	-0.032586	-16.1834	19.1645	-14.0314
 167	1	2	0.370208	-13.7623	19.1145	-13.7816
 168	1	2	0.127886	-16.0541	19.6399	-15.3558
 169	1	7	-0.036788	-17.1347	19.8651	-16.1746
 170	1	2	0.039962	-13.6259	19.5734	-15.1088
 171	1	2	-0.445847	-14.7672	19.8395	-15.8928
 172	1	1	0.122566	-12.6364	19.701	-15.5345
 173	1	1	0.163876	-14.6539	20.1821	-16.9175
 174	1	2	-0.180142	-10.2981	18.6798	-13.1992
 175	1	1	0.144642	-10.3622	17.596	-13.1846
 176	1	1	0.203463	-18.9685	18.4928	-17.4323
 177	1	2	-0.404697	-19.3421	19.0488	-16.579
 178	1	2	-0.023572	-20.7104	19.0046	-16.2601
 179	1	1	0.153856	-21.4022	18.428	-16.8669
 180	1	2	-0.109138	-21.2027	19.7292	-15.1646
 181	1	3	0.998761	-22.9745	19.7231	-14.825
 182	1	2	-0.03943	-20.3216	20.5082	-14.3923
 183	1	1	0.156851	-20.7069	21.0981	-13.5611
 184	1	2	-0.395833	-18.9532	20.555	-14.7208
 185	1	1	0.202602	-18.2865	21.1905	-14.1447
 186	1	2	0.320255	-18.4551	19.8134	-15.8073
 187	1	4	-0.566353	-23.2347	20.8666	-13.9441
 188	1	4	-0.565639	-23.6712	19.553	-16.1072
 189	1	1	0.171248	-22.4062	19.0419	-12.0353
 190	1	2	-0.142243	-22.885	18.1789	-12.4943
 191	1	2	-0.199349	-23.1664	17.0405	-11.7173
 192	1	1	0.156233	-22.8936	17.0121	-10.6661
 193	1	2	0.310144	-23.8145	15.938	-12.2926
 194	1	5	-0.374171	-24.1132	14.8515	-11.5107
 195	1	1	0.18393	-24.1621	17.1082	-15.4866
 196	1	2	-0.1794	-23.8752	17.0934	-14.4372
 197	1	2	-0.069637	-23.2478	18.216	-13.8562
 198	1	1	0.24118	-26.4406	16.0748	-11.9218
 199	1	1	0.2544	-28.6492	14.9548	-12.0432
 200	1	2	-0.557237	-26.5058	14.9988	-11.7747
 201	1	2	-0.032586	-27.7606	14.3601	-11.8328
 202	1	2	0.370208	-25.3435	14.2415	-11.5473
 203	1	2	0.127886	-27.8675	12.9644	-11.6313
 204	1	7	-0.036788	-29.0704	12.3001	-11.6809
 205	1	2	0.039962	-25.4438	12.8515	-11.3534
 206	1	2	-0.445847	-26.7015	12.2115	-11.3926
 207	1	1	0.122566	-24.5385	12.2758	-11.1832
 208	1	1	0.163876	-26.7655	11.1364	-11.2502
 209	1	2	-0.180142	-24.1539	15.9581	-13.6565
 210	1	1	0.144642	-24.6497	15.0985	-14.0992
 211	1	1	0.203463	-30.6025	11.925	-13.7689
 212	1	2	-0.404697	-31.0109	12.6219	-13.0437
 213	1	2	-0.023572	-32.2266	13.2779	-13.3029
 214	1	1	0.153856	-32.7657	13.0767	-14.227
 215	1	2	-0.109138	-32.7242	14.2205	-12.3845
 216	1	3	0.998761	-34.2482	15.1166	-12.7348
 217	1	2	-0.03943	-32.0152	14.4825	-11.1979
 218	1	1	0.156851	-32.3997	15.2115	-10.4863
 219	1	2	-0.395833	-30.8024	13.8165	-10.9438
 220	1	1	0.202602	-30.2472	14.0225	-10.0327
 221	1	2	0.320255	-30.2817	12.907	-11.8808
 222	1	4	-0.566353	-33.9851	16.5495	-12.5576
 223	1	4	-0.565639	-34.7949	14.592	-13.9926
 224	1	1	0.171248	-35.4631	16.6071	-10.5232
 225	1	2	-0.142243	-35.7899	15.5719	-10.4434
 226	1	2	-0.199349	-36.6519	15.1911	-9.40058
 227	1	1	0.156233	-36.9858	15.9259	-8.67463
 228	1	2	0.310144	-37.0781	13.8569	-9.28782
 229	1	5	-0.374171	-37.9237	13.4802	-8.27511
 230	1	1	0.18393	-35.4713	12.5407	-12.0045
 231	1	2	-0.1794	-35.789	13.2826	-11.2737
 232	1	2	-0.069637	-35.3545	14.6198	-11.3879
 233	1	1	0.24118	-38.3211	14.8344	-6.08257
 234	1	1	0.2544	-40.3042	16.3503	-5.65053
 235	1	2	-0.557237	-39.1237	14.9334	-6.8076
 236	1	2	-0.032586	-40.2323	15.7758	-6.57243
 237	1	2	0.370208	-39.0439	14.2182	-8.01099
 238	1	2	0.127886	-41.248	15.9085	-7.5409
 239	1	7	-0.036788	-42.2807	16.7831	-7.31398
 240	1	2	0.039962	-40.0759	14.3128	-8.96112
 241	1	2	-0.445847	-41.1839	15.1496	-8.72815
 242	1	1	0.122566	-39.9993	13.7446	-9.88052
 243	1	1	0.163876	-41.9712	15.2162	-9.47409
 244	1	2	-0.180142	-36.6417	12.9046	-10.2194
 245	1	1	0.144642	-36.9867	11.8777	-10.1331
 246	1	1	0.203463	-44.8524	17.2794	-7.44153
 247	1	2	-0.404697	-44.2828	17.6797	-8.27496
 248	1	2	-0.023572	-44.9438	18.3451	-9.32231
 249	1	1	0.153856	-46.0269	18.4591	-9.30211
 250	1	2	-0.109138	-44.2072	18.8358	-10.4151
 251	1	3	0.998761	-45.0628	19.5124	-11.8452
 252	1	2	-0.03943	-42.8089	18.6993	-10.4386
 253	1	1	0.156851	-42.2378	19.088	-11.2813
 254	1	2	-0.395833	-42.157	18.0342	-9.38724
 255	1	1	0.202602	-41.0779	17.9093	-9.41778
 256	1	2	0.320255	-42.8924	17.4954	-8.31456
 257	1	4	-0.566353	-46.3905	19.9488	-11.3995
 258	1	4	-0.565639	-44.1266	20.3769	-12.572
 259	1	1	0.171248	-43.5183	18.3212	-14.0327
 260	1	2	-0.142243	-44.3336	17.6394	-13.7931
 261	1	2	-0.199349	-44.4448	16.4088	-14.4644
 262	1	1	0.156233	-43.7219	16.1279	-15.224
 263	1	2	0.310144	-45.4865	15.5267	-14.144
 264	1	5	-0.374171	-45.5532	14.3099	-14.7681
 265	1	1	0.18393	-47.0642	17.3819	-11.742
 266	1	2	-0.1794	-46.3332	17.1094	-12.5021
 267	1	2	-0.069637	-45.2739	17.9909	-12.8028
 268	1	1	0.24118	-44.2925	13.9982	-12.4123
 269	1	1	0.2544	-43.7505	11.7802	-11.3702
 270	1	2	-0.557237	-44.6025	13.0799	-12.9013
 271	1	2	-0.032586	-44.304	11.8318	-12.3096
 272	1	2	0.370208	-45.2886	13.1222	-14.1309
 273	1	2	0.127886	-44.6886	10.6312	-12.9372
 274	1	7	-0.036788	-44.3702	9.43238	-12.3523
 275	1	2	0.039962	-45.6802	11.9229	-14.7524
 276	1	2	-0.445847	-45.3976	10.6789	-14.1551
 277	1	1	0.122566	-46.205	11.9665	-15.7022
 278	1	1	0.163876	-45.7307	9.76488	-14.6366
 279	1	2	-0.180142	-46.4365	15.8774	-13.172
 280	1	1	0.144642	-47.2413	15.1884	-12.9344
 281	1	1	0.203463	-42.203	9.13602	-13.8138
 282	1	2	-0.404697	-42.8971	8.30384	-13.8761
 283	1	2	-0.023572	-42.6226	7.21574	-14.7221
 284	1	1	0.153856	-41.7125	7.20242	-15.3206
 285	1	2	-0.109138	-43.5404	6.15433	-14.8124
 286	1	3	0.998761	-43.2737	4.83267	-16.0065
 287	1	2	-0.03943	-44.7042	6.16309	-14.0219
 288	1	1	0.156851	-45.4075	5.33308	-14.082
 289	1	2	-0.395833	-44.9653	7.25327	-13.1727
 290	1	1	0.202602	-45.8719	7.27479	-12.575
 291	1	2	0.320255	-44.0711	8.33252	-13.1084
 292	1	4	-0.566353	-43.9576	3.6369	-15.5023
 293	1	4	-0.565639	-41.8566	4.85404	-16.3871
 294	1	1	0.171248	-46.084	4.52992	-16.759
 295	1	2	-0.142243	-45.6134	5.1723	-17.5021
 296	1	2	-0.199349	-46.3789	5.71663	-18.5491
 297	1	1	0.156233	-47.4428	5.50883	-18.6118
 298	1	2	0.310144	-45.7727	6.5497	-19.5045
 299	1	5	-0.374171	-46.5102	7.11679	-20.5118
 300	1	1	0.18393	-42.5681	6.51399	-18.3086
 301	1	2	-0.1794	-43.6316	6.28954	-18.3742
 302	1	2	-0.069637	-44.2366	5.46079	-17.4067
 303	1	1	0.24118	-49.0511	7.65621	-20.5867
 304	1	1	0.2544	-50.7663	6.42584	-21.9742
 305	1	2	-0.557237	-48.7703	6.80578	-21.2026
 306	1	2	-0.032586	-49.7242	6.10865	-21.9754
 307	1	2	0.370208	-47.4287	6.39928	-21.2286
 308	1	2	0.127886	-49.3353	5.00287	-22.7662
 309	1	7	-0.036788	-50.2325	4.33047	-23.5571
 310	1	2	0.039962	-47.0365	5.29725	-22.0126
 311	1	2	-0.445847	-47.9878	4.5996	-22.7843
 312	1	1	0.122566	-45.9922	4.9994	-22.0296
 313	1	1	0.163876	-47.6787	3.75682	-23.3981
 314	1	2	-0.180142	-44.4022	6.83343	-19.4176
 315	1	1	0.144642	-43.9462	7.48914	-20.1532
 316	1	1	0.203463	-51.225	3.59956	-21.1976
 317	1	2	-0.404697	-51.9699	3.80509	-21.9617
 318	1	2	-0.023572	-53.3357	3.64984	-21.6653
 319	1	1	0.153856	-53.6501	3.33415	-20.6709
 320	1	2	-0.109138	-54.3003	3.88207	-22.6613
 321	1	3	0.998761	-56.0509	3.68483	-22.2754
 322	1	2	-0.03943	-53.8937	4.25197	-23.9568
 323	1	1	0.156851	-54.6382	4.40519	-24.7378
 324	1	2	-0.395833	-52.5253	4.40132	-24.2454
 325	1	1	0.202602	-52.2085	4.67336	-25.2485
 326	1	2	0.320255	-51.5594	4.18233	-23.2519
 327	1	4	-0.566353	-56.1637	2.71125	-21.1836
 328	1	4	-0.565639	-56.7521	3.53435	-23.5552
 329	1	1	0.171248	-56.5326	6.25853	-23.5564
 330	1	2	-0.142243	-56.6533	6.4038	-22.4843
 331	1	2	-0.199349	-56.985	7.6731	-21.9785
 332	1	1	0.156233	-57.1137	8.50981	-22.6578
 333	1	2	0.310144	-57.1685	7.85751	-20.5966
 334	1	5	-0.374171	-57.4957	9.08967	-20.0864
 335	1	1	0.18393	-56.593	4.65137	-19.5442
 336	1	2	-0.1794	-56.6888	5.49767	-20.2239
 337	1	2	-0.069637	-56.4932	5.31142	-21.6091
 338	1	1	0.24118	-54.9253	9.58372	-20.0946
 339	1	1	0.2544	-53.8481	11.6571	-21.0085
 340	1	2	-0.557237	-55.5272	10.3744	-20.5331
 341	1	2	-0.032586	-54.9302	11.5414	-21.0519
 342	1	2	0.370208	-56.9229	10.2373	-20.5659
 343	1	2	0.127886	-55.7237	12.5598	-21.6314
 344	1	7	-0.036788	-55.1658	13.696	-22.1669
 345	1	2	0.039962	-57.7212	11.2633	-21.1042
 346	1	2	-0.445847	-57.1244	12.4218	-21.6449
 347	1	1	0.122566	-58.8005	11.1439	-21.1145
 348	1	1	0.163876	-57.7459	13.2053	-22.0716
 349	1	2	-0.180142	-57.0321	6.76787	-19.7235
 350	1	1	0.144642	-57.1943	6.91476	-18.6598
 351	1	1	0.203463	-53.4714	15.4865	-21.2553
 352	1	2	-0.404697	-53.0318	14.7618	-21.9351
 353	1	2	-0.023572	-51.6546	14.807	-22.2168
 354	1	1	0.153856	-51.0269	15.5716	-21.7601
 355	1	2	-0.109138	-51.0855	13.8581	-23.0855
 356	1	3	0.998761	-49.3112	13.8695	-23.4029
 357	1	2	-0.03943	-51.9013	12.8883	-23.695
 358	1	1	0.156851	-51.4635	12.1678	-24.3853
 359	1	2	-0.395833	-53.2774	12.8519	-23.4091
 360	1	1	0.202602	-53.9093	12.103	-23.8794
 361	1	2	0.320255	-53.8453	13.7808	-22.5198
 362	1	4	-0.566353	-49.0937	13.2541	-24.7168
 363	1	4	-0.565639	-48.8122	15.2028	-23.0493
 364	1	1	0.171248	-48.7006	10.9995	-23.4887
 365	1	2	-0.142243	-48.5019	11.3501	-22.4768
 366	1	2	-0.199349	-48.0317	10.4523	-21.5015
 367	1	1	0.156233	-47.8594	9.40965	-21.75
 368	1	2	0.310144	-47.7555	10.9078	-20.2045
 369	1	5	-0.374171	-47.2787	10.0369	-19.2635
 370	1	1	0.18393	-48.5275	14.2165	-20.603
 371	1	2	-0.1794	-48.4019	13.1627	-20.85
 372	1	2	-0.069637	-48.6943	12.7098	-22.1535
 373	1	1	0.24118	-46.4393	9.18914	-16.9784
 374	1	1	0.2544	-44.0321	9.12238	-16.2159
 375	1	2	-0.557237	-45.6386	9.54379	-17.6202
 376	1	2	-0.032586	-44.2912	9.50083	-17.2032
 377	1	2	0.370208	-45.9559	10.02	-18.8995
 378	1	2	0.127886	-43.2632	9.94403	-18.0622
 379	1	7	-0.036788	-41.9516	9.91493	-17.6679
 380	1	2	0.039962	-44.9265	10.454	-19.7639
 381	1	2	-0.445847	-43.5809	10.4162	-19.347
 382	1	1	0.122566	-45.1685	10.8138	-20.7591
 383	1	1	0.163876	-42.7924	10.7548	-20.0147
 384	1	2	-0.180142	-47.934	12.2604	-19.8779
 385	1	1	0.144642	-47.7026	12.6041	-18.8741
 386	1	1	0.203463	-43.0523	11.9808	-16.3682
 387	1	2	-0.404697	-42.1802	11.5441	-15.8895
 388	1	2	-0.023572	-41.7288	12.0725	-14.6707
 389	1	1	0.153856	-42.2572	12.9029	-14.2085
 390	1	2	-0.109138	-40.5968	11.5266	-14.0451
 391	1	3	0.998761	-40.0647	12.1877	-12.4587
 392	1	2	-0.03943	-39.9024	10.4653	-14.6545
 393	1	1	0.156851	-39.02	10.0422	-14.1739
 394	1	2	-0.395833	-40.3643	9.93916	-15.875
 395	1	1	0.202602	-39.8336	9.11508	-16.3442
 396	1	2	0.320255	-41.5109	10.4641	-16.492
 397	1	4	-0.566353	-38.8089	11.5226	-12.0988
 398	1	4	-0.565639	-41.2387	12.1527	-11.5768
 399	1	1	0.171248	-41.6908	14.6198	-12.1584
 400	1	2	-0.142243	-40.7341	14.9076	-12.5896
 401	1	2	-0.199349	-40.4879	16.2559	-12.905
 402	1	1	0.156233	-41.2484	17.0093	-12.7267
 403	1	2	0.310144	-39.2588	16.6438	-13.4592
 404	1	5	-0.374171	-39.0898	17.972	-13.7805
 405	1	1	0.18393	-37.7279	13.5799	-13.5544
 406	1	2	-0.1794	-38.5054	14.322	-13.3742
 407	1	2	-0.069637	-39.7431	13.9319	-12.8264
 408	1	1	0.24118	-36.8133	18.112	-12.4795
 409	1	1	0.2544	-34.6255	18.846	-13.4689
 410	1	2	-0.557237	-36.7655	18.4747	-13.5013
 411	1	2	-0.032586	-35.5404	18.89	-14.0622
 412	1	2	0.370208	-37.9232	18.476	-14.2923
 413	1	2	0.127886	-35.4785	19.322	-15.4059
 414	1	7	-0.036788	-34.2851	19.6796	-15.978
 415	1	2	0.039962	-37.8732	18.9392	-15.6204
 416	1	2	-0.445847	-36.6524	19.3687	-16.1804
 417	1	1	0.122566	-38.7795	18.9344	-16.2178
 418	1	1	0.163876	-36.6125	19.7026	-17.2137
 419	1	2	-0.180142	-38.2675	15.6694	-13.6955
 420	1	1	0.144642	-37.3101	15.9434	-14.1303
 421	1	1	0.203463	-34.0321	17.0297	-15.8945
 422	1	2	-0.404697	-33.1158	17.5842	-15.7058
 423	1	2	-0.023572	-31.9414	16.8866	-15.3817
 424	1	1	0.153856	-31.9558	15.7994	-15.3219
 425	1	2	-0.109138	-30.7627	17.5964	-15.0933
 426	1	3	0.998761	-29.2822	16.7067	-14.5862
 427	1	2	-0.03943	-30.7599	19.0021	-15.1464
 428	1	1	0.156851	-29.8503	19.552	-14.9067
 429	1	2	-0.395833	-31.9411	19.6925	-15.4746
 430	1	1	0.202602	-31.9477	20.7783	-15.4962
 431	1	2	0.320255	-33.1266	18.9892	-15.7372
 432	1	4	-0.566353	-28.6095	17.5107	-13.5596
 433	1	4	-0.565639	-29.6686	15.314	-14.3327
 434	1	1	0.171248	-27.0636	18.4427	-15.4234
 435	1	2	-0.142243	-27.1922	17.671	-16.1818
 436	1	2	-0.199349	-26.2864	17.5913	-17.2533
 437	1	1	0.156233	-25.4727	18.3053	-17.3344
 438	1	2	0.310144	-26.3942	16.5555	-18.1929
 439	1	5	-0.374171	-25.4109	16.3821	-19.1314
 440	1	1	0.18393	-29.1466	14.9631	-16.9357
 441	1	2	-0.1794	-28.3613	15.7107	-17.0367
 442	1	2	-0.069637	-28.2211	16.715	-16.055
 443	1	1	0.24118	-24.7647	14.3686	-17.5534
 444	1	1	0.2544	-22.4459	13.8576	-16.7266
 445	1	2	-0.557237	-23.9253	14.99	-17.853
 446	1	2	-0.032586	-22.6238	14.7127	-17.3816
 447	1	2	0.370208	-24.1384	16.0783	-18.7161
 448	1	2	0.127886	-21.5421	15.5472	-17.7376
 449	1	7	-0.036788	-20.2813	15.3441	-17.2339
 450	1	2	0.039962	-23.0486	16.8653	-19.1316
 451	1	2	-0.445847	-21.7487	16.5987	-18.6508
 452	1	1	0.122566	-23.2259	17.6982	-19.805
 453	1	1	0.163876	-20.9174	17.225	-18.9609
 454	1	2	-0.180142	-27.448	15.634	-18.105
 455	1	1	0.144642	-27.5189	14.8345	-18.8358
 456	1	1	0.203463	-21.8516	15.3284	-15.0176
 457	1	2	-0.404697	-20.806	15.56	-14.8603
 458	1	2	-0.023572	-20.3768	15.8046	-13.5477
 459	1	1	0.153856	-21.0904	15.7671	-12.7293
 460	1	2	-0.109138	-19.0339	16.1128	-13.2879
 461	1	3	0.998761	-18.5358	16.5373	-11.6067
 462	1	2	-0.03943	-18.1137	16.1441	-14.3507
 463	1	1	0.156851	-17.0695	16.3804	-14.1544
 464	1	2	-0.395833	-18.5515	15.8821	-15.664
 465	1	1	0.202602	-17.8465	15.9146	-16.4857
 466	1	2	0.320255	-19.9024	15.604	-15.9364
 467	1	4	-0.566353	-19.7539	16.9516	-10.9035
 468	1	4	-0.565639	-17.363	17.414	-11.6896
 469	1	1	0.171248	-19.9702	14.0793	-10.9316
 470	1	2	-0.142243	-18.9307	13.9481	-10.6345
 471	1	2	-0.199349	-18.5289	12.7609	-9.998
 472	1	1	0.156233	-19.2503	11.9716	-9.81242
 473	1	2	0.310144	-17.1972	12.5853	-9.59635
 474	1	5	-0.374171	-16.8518	11.4083	-8.97483
 475	1	1	0.18393	-15.9443	15.6204	-10.5678
 476	1	2	-0.1794	-16.6616	14.8112	-10.4351
 477	1	2	-0.069637	-17.9967	14.9773	-10.8625
 478	1	1	0.24118	-15.2461	11.5433	-11.1113
 479	1	1	0.2544	-13.1516	10.216	-11.4188
 480	1	2	-0.557237	-14.9234	10.8559	-10.3401
 481	1	2	-0.032586	-13.7412	10.1062	-10.5088
 482	1	2	0.370208	-15.6778	10.717	-9.16066
 483	1	2	0.127886	-13.3111	9.20849	-9.5064
 484	1	7	-0.036788	-12.1617	8.47517	-9.65531
 485	1	2	0.039962	-15.2593	9.8062	-8.17172
 486	1	2	-0.445847	-14.0789	9.05211	-8.33897
 487	1	1	0.122566	-15.8591	9.69105	-7.27385
 488	1	1	0.163876	-13.7629	8.35434	-7.56716
 489	1	2	-0.180142	-16.2669	13.6216	-9.79594
 490	1	1	0.144642	-15.2466	13.5066	-9.4421
 491	1	1	0.203463	-10.7979	10.6514	-9.03367
 492	1	2	-0.404697	-10.4618	10.1513	-9.93871
 493	1	2	-0.023572	-9.40562	10.6941	-10.6901
 494	1	1	0.153856	-8.92226	11.6171	-10.3713
 495	1	2	-0.109138	-8.98244	10.0536	-11.8678
 496	1	3	0.998761	-7.70395	10.8266	-12.8749
 497	1	2	-0.03943	-9.60585	8.86081	-12.2816
 498	1	1	0.156851	-9.28015	8.3597	-13.1931
 499	1	2	-0.395833	-10.6573	8.32103	-11.5185
 500	1	1	0.202602	-11.1418	7.40169	-11.8385
 501	1	2	0.320255	-11.0878	8.96263	-10.3477
 502	1	4	-0.566353	-6.69133	11.403	-11.9844
 503	1	4	-0.565639	-7.3564	9.88954	-13.9473
 504	1	1	0.171248	-9.96198	10.9388	-14.7405
 505	1	2	-0.142243	-9.73112	11.9609	-14.4409
 506	1	2	-0.199349	-10.5552	13.0216	-14.8634
 507	1	1	0.156233	-11.4227	12.8069	-15.4726
 508	1	2	0.310144	-10.2803	14.3419	-14.4585
 509	1	5	-0.374171	-11.1076	15.4073	-14.738
 510	1	1	0.18393	-7.51706	13.7348	-12.5268
 511	1	2	-0.1794	-8.35416	13.5335	-13.1955
 512	1	2	-0.069637	-8.63895	12.209	-13.5848
 513	1	1	0.24118	-11.0554	14.4802	-17.2304
 514	1	1	0.2544	-12.8923	14.797	-18.921
 515	1	2	-0.557237	-11.9832	14.9692	-16.953
 516	1	2	-0.032586	-13.0147	15.1547	-17.8992
 517	1	2	0.370208	-12.1368	15.4571	-15.6455
 518	1	2	0.127886	-14.213	15.8002	-17.5304
 519	1	7	-0.036788	-15.2435	15.9141	-18.428
 520	1	2	0.039962	-13.3349	16.0967	-15.2791
 521	1	2	-0.445847	-14.3789	16.2619	-16.2124
 522	1	1	0.122566	-13.4448	16.462	-14.263
 523	1	1	0.163876	-15.2959	16.7641	-15.9162
 524	1	2	-0.180142	-9.16998	14.5897	-13.6371
 525	1	1	0.144642	-8.96667	15.6048	-13.3127
 526	1	1	0.203463	-15.5391	13.7456	-16.8974
 527	1	2	-0.404697	-16.2907	13.8641	-17.6642
 528	1	2	-0.023572	-17.2996	12.8987	-17.7776
 529	1	1	0.153856	-17.3005	12.0295	-17.1207
 530	1	2	-0.109138	-18.317	13.0614	-18.7269
 531	1	3	0.998761	-19.592	11.7958	-18.855
 532	1	2	-0.03943	-18.318	14.196	-19.5609
 533	1	1	0.156851	-19.1162	14.3355	-20.29
 534	1	2	-0.395833	-17.2792	15.1432	-19.4579
 535	1	1	0.202602	-17.2737	16.0112	-20.1112
 536	1	2	0.320255	-16.2516	14.9822	-18.5135
 537	1	4	-0.566353	-19.0081	10.5595	-18.3174
 538	1	4	-0.565639	-20.8326	12.3129	-18.2705
 539	1	1	0.171248	-22.0006	11.4803	-20.5057
 540	1	2	-0.142243	-21.1344	11.4118	-21.1634
 541	1	2	-0.199349	-21.3086	11.1416	-22.5346
 542	1	1	0.156233	-22.3033	11.0053	-22.9474
 543	1	2	0.310144	-20.1909	11.0125	-23.3744
 544	1	5	-0.374171	-20.3523	10.6993	-24.6983
 545	1	1	0.18393	-17.7136	11.5976	-21.1014
 546	1	2	-0.1794	-18.7213	11.4827	-21.4945
 547	1	2	-0.069637	-19.8365	11.5645	-20.634
 548	1	1	0.24118	-18.8171	10.1136	-26.7135
 549	1	1	0.2544	-18.3806	7.7911	-27.6056
 550	1	2	-0.557237	-19.2776	9.24335	-26.2572
 551	1	2	-0.032586	-19.0356	7.94045	-26.7491
 552	1	2	0.370208	-20.123	9.42307	-25.1515
 553	1	2	0.127886	-19.6539	6.82174	-26.1468
 554	1	7	-0.036788	-19.5088	5.54935	-26.6385
 555	1	2	0.039962	-20.7517	8.30873	-24.5599
 556	1	2	-0.445847	-20.5277	7.01086	-25.0618
 557	1	1	0.122566	-21.4094	8.45432	-23.7098
 558	1	1	0.163876	-21.0182	6.1588	-24.5999
 559	1	2	-0.180142	-18.9016	11.2074	-22.8605
 560	1	1	0.144642	-18.0463	11.0962	-23.5204
 561	1	1	0.203463	-19.515	3.64045	-28.3964
 562	1	2	-0.404697	-18.518	3.94342	-28.0898
 563	1	2	-0.023572	-17.3946	3.27518	-28.6069
 564	1	1	0.153856	-17.5207	2.45599	-29.3141
 565	1	2	-0.109138	-16.1058	3.64844	-28.1904
 566	1	3	0.998761	-14.6777	2.69732	-28.7515
 567	1	2	-0.03943	-15.9482	4.70601	-27.2737
 568	1	1	0.156851	-14.9507	4.99695	-26.9466
 569	1	2	-0.395833	-17.0794	5.36874	-26.7604
 570	1	1	0.202602	-16.9503	6.15731	-26.0228
 571	1	2	0.320255	-18.3724	4.98939	-27.1652
 572	1	4	-0.566353	-13.4906	3.5362	-28.5465
 573	1	4	-0.565639	-15.0091	2.06726	-30.0343
 574	1	1	0.171248	-13.7834	2.72561	-26.0024
 575	1	2	-0.142243	-14.1611	1.72496	-26.2052
 576	1	2	-0.199349	-14.2446	0.785484	-25.1686
 577	1	1	0.156233	-13.9519	1.07315	-24.1647
 578	1	2	0.310144	-14.7776	-0.493962	-25.4067
 579	1	5	-0.374171	-15.0378	-1.32713	-24.3444
 580	1	1	0.18393	-15.4891	-0.154437	-28.7389
 581	1	2	-0.1794	-15.125	0.100444	-27.7435
 582	1	2	-0.069637	-14.6252	1.3975	-27.4917
 583	1	1	0.24118	-17.4705	-0.407508	-24.4906
 584	1	1	0.2544	-18.4934	1.17771	-22.8199
 585	1	2	-0.557237	-16.9764	-0.206066	-23.5441
 586	1	2	-0.032586	-17.5403	0.689168	-22.6153
 587	1	2	0.370208	-15.7097	-0.758464	-23.2956
 588	1	2	0.127886	-16.8256	1.04407	-21.4561
 589	1	7	-0.036788	-17.2722	2.08253	-20.6913
 590	1	2	0.039962	-15.027	-0.46147	-22.1018
 591	1	2	-0.445847	-15.5743	0.459307	-21.1863
 592	1	1	0.122566	-14.0385	-0.876597	-21.9391
 593	1	1	0.163876	-15.0212	0.74163	-20.2968
 594	1	2	-0.180142	-15.1962	-0.844518	-26.6995
 595	1	1	0.144642	-15.6297	-1.82506	-26.8715
 596	1	1	0.203463	-18.8868	4.04674	-20.0371
 597	1	2	-0.404697	-18.1195	4.32404	-20.7567
 598	1	2	-0.023572	-18.0713	5.63561	-21.2598
 599	1	1	0.153856	-18.8061	6.37181	-20.9342
 600	1	2	-0.109138	-17.0801	5.99133	-22.1924
 601	1	3	0.998761	-17.0107	7.66737	-22.8362
 602	1	2	-0.03943	-16.1361	5.03986	-22.6117
 603	1	1	0.156851	-15.3701	5.31065	-23.3376
 604	1	2	-0.395833	-16.188	3.73566	-22.0969
 605	1	1	0.202602	-15.4516	3.0096	-22.4296
 606	1	2	0.320255	-17.1894	3.36391	-21.1764
 607	1	4	-0.566353	-18.3666	8.2112	-22.7583
 608	1	4	-0.565639	-16.2162	7.64729	-24.0706
 609	1	1	0.171248	-14.1255	8.11493	-22.4956
 610	1	2	-0.142243	-14.6378	8.56809	-21.647
 611	1	2	-0.199349	-13.8975	9.20157	-20.6318
 612	1	1	0.156233	-12.8146	9.2316	-20.695
 613	1	2	0.310144	-14.5486	9.78759	-19.5335
 614	1	5	-0.374171	-13.7842	10.3658	-18.5434
 615	1	1	0.18393	-17.7867	9.09868	-20.4188
 616	1	2	-0.1794	-16.6973	9.12342	-20.4793
 617	1	2	-0.069637	-16.0425	8.51227	-21.5646
 618	1	1	0.24118	-15.3056	8.78388	-17.0129
 619	1	1	0.2544	-16.3196	9.47375	-14.8231
 620	1	2	-0.557237	-15.0654	9.74618	-16.5779
 621	1	2	-0.032586	-15.6058	10.1228	-15.3314
 622	1	2	0.370208	-14.1995	10.6204	-17.2559
 623	1	2	0.127886	-15.248	11.3536	-14.7416
 624	1	7	-0.036788	-15.8695	11.7823	-13.5998
 625	1	2	0.039962	-13.7716	11.8001	-16.6225
 626	1	2	-0.445847	-14.2851	12.1701	-15.3607
 627	1	1	0.122566	-13.0794	12.4489	-17.1468
 628	1	1	0.163876	-13.9913	13.1125	-14.9049
 629	1	2	-0.180142	-15.9543	9.78245	-19.4874
 630	1	1	0.144642	-16.4761	10.2749	-18.6751
 631	1	1	0.203463	-17.4685	13.25	-15.1
 632	1	2	-0.404697	-17.9808	12.573	-14.4258
 633	1	2	-0.023572	-19.3822	12.4823	-14.4606
 634	1	1	0.153856	-19.9508	13.0469	-15.1941
 635	1	2	-0.109138	-20.0529	11.6432	-13.5579
 636	1	3	0.998761	-21.8441	11.453	-13.6578
 637	1	2	-0.03943	-19.3113	10.8741	-12.6418
 638	1	1	0.156851	-19.8275	10.2162	-11.9452
 639	1	2	-0.395833	-17.9055	10.9327	-12.6463
 640	1	1	0.202602	-17.3367	10.3185	-11.9531
 641	1	2	0.320255	-17.2366	11.7868	-13.5346
 642	1	4	-0.566353	-22.3228	11.2511	-12.2853
 643	1	4	-0.565639	-22.3791	12.4935	-14.5485
 644	1	1	0.171248	-22.1277	10.7128	-16.4837
 645	1	2	-0.142243	-21.9762	9.79901	-15.9099
 646	1	2	-0.199349	-21.795	8.57489	-16.5777
 647	1	1	0.156233	-21.8104	8.5341	-17.6626
 648	1	2	0.310144	-21.4836	7.41527	-15.8496
 649	1	5	-0.374171	-21.1113	6.2666	-16.5001
 650	1	1	0.18393	-21.6285	8.69888	-12.6849
 651	1	2	-0.1794	-21.6789	8.66567	-13.772