

################################################################################
##################################    Init    ##################################
################################################################################
units           real
atom_style      full
pair_style      lj/cut/coul/long 12.0  12.0
kspace_style    pppm 1e-4
bond_style      harmonic
angle_style     harmonic
dihedral_style  fourier
improper_style  cvff
special_bonds   amber
pair_modify     mix arithmetic
read_data       temp.lmps
  orthogonal box = (-87.6536 -87.6536 -87.6536) to (87.6536 87.6536 87.6536)
  1 by 1 by 1 MPI processor grid
  reading atoms ...
  70 atoms
  reading velocities ...
  70 velocities
  scanning bonds ...
  3 = max bonds/atom
  scanning angles ...
  6 = max angles/atom
  scanning dihedrals ...
  10 = max dihedrals/atom
  scanning impropers ...
  1 = max impropers/atom
  reading bonds ...
  75 bonds
  reading angles ...
  121 angles
  reading dihedrals ...
  176 dihedrals
  reading impropers ...
  24 impropers
  4 = max # of 1-2 neighbors
  7 = max # of 1-3 neighbors
  13 = max # of 1-4 neighbors
  16 = max # of special neighbors
  special bonds CPU = 0.000197172 secs
  read_data CPU = 0.00396419 secs
################################################################################

timestep        1
fix             pysimm_md all nve/limit 0.1
run             2000
PPPM initialization ...
  using 12-bit tables for long-range coulomb (../kspace.cpp:332)
  G vector (1/distance) = 0.0953035
  grid = 15 15 15
  stencil order = 5
  estimated absolute RMS force accuracy = 0.026512
  estimated relative force accuracy = 7.98402e-05
  using double precision KISS FFT
  3d grid and FFT values/proc = 8000 3375
Neighbor list info ...
  update every 1 steps, delay 10 steps, check yes
  max neighbors/atom: 2000, page size: 100000
  master list distance cutoff = 14
  ghost atom cutoff = 14
  binsize = 7, bins = 26 26 26
  1 neighbor lists, perpetual/occasional/extra = 1 0 0
  (1) pair lj/cut/coul/long, perpetual
      attributes: half, newton on
      pair build: half/bin/newton
      stencil: half/bin/3d/newton
      bin: standard
Per MPI rank memory allocation (min/avg/max) = 13.35 | 13.35 | 13.35 Mbytes
Step Temp E_pair E_mol TotEng Press 
       0    17.969914    85.294825    167.11276    256.10356   -2.0102696 
    2000    288.89908    82.788618    108.31041    250.51861   -1.3139872 
Loop time of 1.60329 on 1 procs for 2000 steps with 70 atoms

Performance: 107.779 ns/day, 0.223 hours/ns, 1247.437 timesteps/s
100.0% CPU use with 1 MPI tasks x no OpenMP threads

MPI task timing breakdown:
Section |  min time  |  avg time  |  max time  |%varavg| %total
---------------------------------------------------------------
Pair    | 0.089537   | 0.089537   | 0.089537   |   0.0 |  5.58
Bond    | 0.060681   | 0.060681   | 0.060681   |   0.0 |  3.78
Kspace  | 1.4427     | 1.4427     | 1.4427     |   0.0 | 89.99
Neigh   | 0.0018244  | 0.0018244  | 0.0018244  |   0.0 |  0.11
Comm    | 0.00084591 | 0.00084591 | 0.00084591 |   0.0 |  0.05
Output  | 3.6001e-05 | 3.6001e-05 | 3.6001e-05 |   0.0 |  0.00
Modify  | 0.0032511  | 0.0032511  | 0.0032511  |   0.0 |  0.20
Other   |            | 0.004364   |            |       |  0.27

Nlocal:    70 ave 70 max 70 min
Histogram: 1 0 0 0 0 0 0 0 0 0
Nghost:    0 ave 0 max 0 min
Histogram: 1 0 0 0 0 0 0 0 0 0
Neighs:    1754 ave 1754 max 1754 min
Histogram: 1 0 0 0 0 0 0 0 0 0

Total # of neighbors = 1754
Ave neighs/atom = 25.0571
Ave special neighs/atom = 10.1143
Neighbor list builds = 19
Dangerous builds = 0
unfix pysimm_md
min_style cg
minimize 0.001 0.001 10000 100000
WARNING: Using 'neigh_modify every 1 delay 0 check yes' setting during minimization (../min.cpp:190)
PPPM initialization ...
  using 12-bit tables for long-range coulomb (../kspace.cpp:332)
  G vector (1/distance) = 0.0953035
  grid = 15 15 15
  stencil order = 5
  estimated absolute RMS force accuracy = 0.026512
  estimated relative force accuracy = 7.98402e-05
  using double precision KISS FFT
  3d grid and FFT values/proc = 8000 3375
Per MPI rank memory allocation (min/avg/max) = 14.48 | 14.48 | 14.48 Mbytes
Step Temp E_pair E_mol TotEng Press 
    2000    288.89908    82.788618    108.31041    250.51861   -1.3139872 
    2018    288.89908    80.323929    49.026123    188.76963   0.20904127 
Loop time of 0.0753889 on 1 procs for 18 steps with 70 atoms

100.8% CPU use with 1 MPI tasks x no OpenMP threads

Minimization stats:
  Stopping criterion = linesearch alpha is zero
  Energy initial, next-to-last, final = 
          191.09902882      129.350051352      129.350051352
  Force two-norm initial, final = 271.517 15.0999
  Force max component initial, final = 76.6121 3.21754
  Final line search alpha, max atom move = 5.2198e-11 1.67949e-10
  Iterations, force evaluations = 18 90

MPI task timing breakdown:
Section |  min time  |  avg time  |  max time  |%varavg| %total
---------------------------------------------------------------
Pair    | 0.006171   | 0.006171   | 0.006171   |   0.0 |  8.19
Bond    | 0.002888   | 0.002888   | 0.002888   |   0.0 |  3.83
Kspace  | 0.066024   | 0.066024   | 0.066024   |   0.0 | 87.58
Neigh   | 0          | 0          | 0          |   0.0 |  0.00
Comm    | 4.3631e-05 | 4.3631e-05 | 4.3631e-05 |   0.0 |  0.06
Output  | 0          | 0          | 0          |   0.0 |  0.00
Modify  | 0          | 0          | 0          |   0.0 |  0.00
Other   |            | 0.0002627  |            |       |  0.35

Nlocal:    70 ave 70 max 70 min
Histogram: 1 0 0 0 0 0 0 0 0 0
Nghost:    0 ave 0 max 0 min
Histogram: 1 0 0 0 0 0 0 0 0 0
Neighs:    1735 ave 1735 max 1735 min
Histogram: 1 0 0 0 0 0 0 0 0 0

Total # of neighbors = 1735
Ave neighs/atom = 24.7857
Ave special neighs/atom = 10.1143
Neighbor list builds = 0
Dangerous builds = 0
write_dump all custom pysimm.dump.tmp id q x y z vx vy vz
quit


################################################################################
##################################    Init    ##################################
################################################################################
units           real
atom_style      full
pair_style      lj/cut/coul/long 12.0  12.0
kspace_style    pppm 1e-4
bond_style      harmonic
angle_style     harmonic
dihedral_style  fourier
improper_style  cvff
special_bonds   amber
pair_modify     mix arithmetic
read_data       temp.lmps
  orthogonal box = (-87.6536 -87.6536 -87.6536) to (87.6536 87.6536 87.6536)
  1 by 1 by 1 MPI processor grid
  reading atoms ...
  105 atoms
  reading velocities ...
  105 velocities
  scanning bonds ...
  3 = max bonds/atom
  scanning angles ...
  6 = max angles/atom
  scanning dihedrals ...
  10 = max dihedrals/atom
  scanning impropers ...
  1 = max impropers/atom
  reading bonds ...
  113 bonds
  reading angles ...
  183 angles
  reading dihedrals ...
  268 dihedrals
  reading impropers ...
  36 impropers
  4 = max # of 1-2 neighbors
  7 = max # of 1-3 neighbors
  13 = max # of 1-4 neighbors
  16 = max # of special neighbors
  special bonds CPU = 0.000247002 secs
  read_data CPU = 0.0040791 secs
################################################################################

timestep        1
fix             pysimm_md all nve/limit 0.1
run             2000
PPPM initialization ...
  using 12-bit tables for long-range coulomb (../kspace.cpp:332)
  G vector (1/distance) = 0.0953035
  grid = 15 15 15
  stencil order = 5
  estimated absolute RMS force accuracy = 0.0324705
  estimated relative force accuracy = 9.7784e-05
  using double precision KISS FFT
  3d grid and FFT values/proc = 8000 3375
Neighbor list info ...
  update every 1 steps, delay 10 steps, check yes
  max neighbors/atom: 2000, page size: 100000
  master list distance cutoff = 14
  ghost atom cutoff = 14
  binsize = 7, bins = 26 26 26
  1 neighbor lists, perpetual/occasional/extra = 1 0 0
  (1) pair lj/cut/coul/long, perpetual
      attributes: half, newton on
      pair build: half/bin/newton
      stencil: half/bin/3d/newton
      bin: standard
Per MPI rank memory allocation (min/avg/max) = 13.36 | 13.36 | 13.36 Mbytes
Step Temp E_pair E_mol TotEng Press 
       0    197.63468     118.8365    189.93408    370.03817    -2.408521 
    2000    304.29118    125.87362    152.87126    373.07644    1.1924986 
Loop time of 1.79571 on 1 procs for 2000 steps with 105 atoms

Performance: 96.230 ns/day, 0.249 hours/ns, 1113.767 timesteps/s
99.9% CPU use with 1 MPI tasks x no OpenMP threads

MPI task timing breakdown:
Section |  min time  |  avg time  |  max time  |%varavg| %total
---------------------------------------------------------------
Pair    | 0.14407    | 0.14407    | 0.14407    |   0.0 |  8.02
Bond    | 0.08809    | 0.08809    | 0.08809    |   0.0 |  4.91
Kspace  | 1.5509     | 1.5509     | 1.5509     |   0.0 | 86.37
Neigh   | 0.0030811  | 0.0030811  | 0.0030811  |   0.0 |  0.17
Comm    | 0.00081563 | 0.00081563 | 0.00081563 |   0.0 |  0.05
Output  | 2.2173e-05 | 2.2173e-05 | 2.2173e-05 |   0.0 |  0.00
Modify  | 0.0042737  | 0.0042737  | 0.0042737  |   0.0 |  0.24
Other   |            | 0.00448    |            |       |  0.25

Nlocal:    105 ave 105 max 105 min
Histogram: 1 0 0 0 0 0 0 0 0 0
Nghost:    0 ave 0 max 0 min
Histogram: 1 0 0 0 0 0 0 0 0 0
Neighs:    2961 ave 2961 max 2961 min
Histogram: 1 0 0 0 0 0 0 0 0 0

Total # of neighbors = 2961
Ave neighs/atom = 28.2
Ave special neighs/atom = 10.2286
Neighbor list builds = 24
Dangerous builds = 0
unfix pysimm_md
min_style cg
minimize 0.001 0.001 10000 100000
WARNING: Using 'neigh_modify every 1 delay 0 check yes' setting during minimization (../min.cpp:190)
PPPM initialization ...
  using 12-bit tables for long-range coulomb (../kspace.cpp:332)
  G vector (1/distance) = 0.0953035
  grid = 15 15 15
  stencil order = 5
  estimated absolute RMS force accuracy = 0.0324705
  estimated relative force accuracy = 9.7784e-05
  using double precision KISS FFT
  3d grid and FFT values/proc = 8000 3375
Per MPI rank memory allocation (min/avg/max) = 14.48 | 14.48 | 14.48 Mbytes
Step Temp E_pair E_mol TotEng Press 
    2000    304.29118    125.87362    152.87126    373.07644    1.1924986 
    2018    304.29118    122.90872    74.305842    291.54612   0.92923435 
Loop time of 0.0357111 on 1 procs for 18 steps with 105 atoms

100.8% CPU use with 1 MPI tasks x no OpenMP threads

Minimization stats:
  Stopping criterion = energy tolerance
  Energy initial, next-to-last, final = 
         278.744881471      197.408769895      197.214562732
  Force two-norm initial, final = 336.225 18.6285
  Force max component initial, final = 85.6851 4.14979
  Final line search alpha, max atom move = 0.0147455 0.061191
  Iterations, force evaluations = 18 36

MPI task timing breakdown:
Section |  min time  |  avg time  |  max time  |%varavg| %total
---------------------------------------------------------------
Pair    | 0.0041385  | 0.0041385  | 0.0041385  |   0.0 | 11.59
Bond    | 0.0017638  | 0.0017638  | 0.0017638  |   0.0 |  4.94
Kspace  | 0.029636   | 0.029636   | 0.029636   |   0.0 | 82.99
Neigh   | 0          | 0          | 0          |   0.0 |  0.00
Comm    | 1.5497e-05 | 1.5497e-05 | 1.5497e-05 |   0.0 |  0.04
Output  | 0          | 0          | 0          |   0.0 |  0.00
Modify  | 0          | 0          | 0          |   0.0 |  0.00
Other   |            | 0.0001569  |            |       |  0.44

Nlocal:    105 ave 105 max 105 min
Histogram: 1 0 0 0 0 0 0 0 0 0
Nghost:    0 ave 0 max 0 min
Histogram: 1 0 0 0 0 0 0 0 0 0
Neighs:    2959 ave 2959 max 2959 min
Histogram: 1 0 0 0 0 0 0 0 0 0

Total # of neighbors = 2959
Ave neighs/atom = 28.181
Ave special neighs/atom = 10.2286
Neighbor list builds = 0
Dangerous builds = 0
write_dump all custom pysimm.dump.tmp id q x y z vx vy vz
quit


################################################################################
##################################    Init    ##################################
################################################################################
units           real
atom_style      full
pair_style      lj/cut/coul/long 12.0  12.0
kspace_style    pppm 1e-4
bond_style      harmonic
angle_style     harmonic
dihedral_style  fourier
improper_style  cvff
special_bonds   amber
pair_modify     mix arithmetic
read_data       temp.lmps
  orthogonal box = (-87.6536 -87.6536 -87.6536) to (87.6536 87.6536 87.6536)
  1 by 1 by 1 MPI processor grid
  reading atoms ...
  140 atoms
  reading velocities ...
  140 velocities
  scanning bonds ...
  3 = max bonds/atom
  scanning angles ...
  6 = max angles/atom
  scanning dihedrals ...
  10 = max dihedrals/atom
  scanning impropers ...
  1 = max impropers/atom
  reading bonds ...
  151 bonds
  reading angles ...
  245 angles
  reading dihedrals ...
  360 dihedrals
  reading impropers ...
  48 impropers
  4 = max # of 1-2 neighbors
  7 = max # of 1-3 neighbors
  13 = max # of 1-4 neighbors
  16 = max # of special neighbors
  special bonds CPU = 0.000259876 secs
  read_data CPU = 0.00444198 secs
################################################################################

timestep        1
fix             pysimm_md all nve/limit 0.1
run             2000
PPPM initialization ...
  using 12-bit tables for long-range coulomb (../kspace.cpp:332)
  G vector (1/distance) = 0.0998578
  grid = 16 16 16
  stencil order = 5
  estimated absolute RMS force accuracy = 0.0329892
  estimated relative force accuracy = 9.9346e-05
  using double precision KISS FFT
  3d grid and FFT values/proc = 9261 4096
Neighbor list info ...
  update every 1 steps, delay 10 steps, check yes
  max neighbors/atom: 2000, page size: 100000
  master list distance cutoff = 14
  ghost atom cutoff = 14
  binsize = 7, bins = 26 26 26
  1 neighbor lists, perpetual/occasional/extra = 1 0 0
  (1) pair lj/cut/coul/long, perpetual
      attributes: half, newton on
      pair build: half/bin/newton
      stencil: half/bin/3d/newton
      bin: standard
Per MPI rank memory allocation (min/avg/max) = 13.47 | 13.47 | 13.47 Mbytes
Step Temp E_pair E_mol TotEng Press 
       0    232.13117    162.42175    202.42026    461.02152   -1.6878612 
    2000    253.30647     176.0668    178.93429    459.95422    2.9899349 
Loop time of 2.17966 on 1 procs for 2000 steps with 140 atoms

Performance: 79.278 ns/day, 0.303 hours/ns, 917.575 timesteps/s
99.6% CPU use with 1 MPI tasks x no OpenMP threads

MPI task timing breakdown:
Section |  min time  |  avg time  |  max time  |%varavg| %total
---------------------------------------------------------------
Pair    | 0.20123    | 0.20123    | 0.20123    |   0.0 |  9.23
Bond    | 0.11821    | 0.11821    | 0.11821    |   0.0 |  5.42
Kspace  | 1.844      | 1.844      | 1.844      |   0.0 | 84.60
Neigh   | 0.0045698  | 0.0045698  | 0.0045698  |   0.0 |  0.21
Comm    | 0.0012116  | 0.0012116  | 0.0012116  |   0.0 |  0.06
Output  | 2.5988e-05 | 2.5988e-05 | 2.5988e-05 |   0.0 |  0.00
Modify  | 0.0054183  | 0.0054183  | 0.0054183  |   0.0 |  0.25
Other   |            | 0.004952   |            |       |  0.23

Nlocal:    140 ave 140 max 140 min
Histogram: 1 0 0 0 0 0 0 0 0 0
Nghost:    8 ave 8 max 8 min
Histogram: 1 0 0 0 0 0 0 0 0 0
Neighs:    4266 ave 4266 max 4266 min
Histogram: 1 0 0 0 0 0 0 0 0 0

Total # of neighbors = 4266
Ave neighs/atom = 30.4714
Ave special neighs/atom = 10.2857
Neighbor list builds = 25
Dangerous builds = 0
unfix pysimm_md
min_style cg
minimize 0.001 0.001 10000 100000
WARNING: Using 'neigh_modify every 1 delay 0 check yes' setting during minimization (../min.cpp:190)
PPPM initialization ...
  using 12-bit tables for long-range coulomb (../kspace.cpp:332)
  G vector (1/distance) = 0.0998578
  grid = 16 16 16
  stencil order = 5
  estimated absolute RMS force accuracy = 0.0329892
  estimated relative force accuracy = 9.9346e-05
  using double precision KISS FFT
  3d grid and FFT values/proc = 9261 4096
Per MPI rank memory allocation (min/avg/max) = 14.59 | 14.59 | 14.59 Mbytes
Step Temp E_pair E_mol TotEng Press 
    2000    253.30647     176.0668    178.93429    459.95422    2.9899349 
    2014    253.30647    166.95193    92.907506    364.81256    1.1519988 
Loop time of 0.0347798 on 1 procs for 14 steps with 140 atoms

97.7% CPU use with 1 MPI tasks x no OpenMP threads

Minimization stats:
  Stopping criterion = energy tolerance
  Energy initial, next-to-last, final = 
         355.001089948      260.044605695      259.859436216
  Force two-norm initial, final = 351.433 30.5119
  Force max component initial, final = 84.3492 5.96314
  Final line search alpha, max atom move = 0.00875141 0.0521859
  Iterations, force evaluations = 14 28

MPI task timing breakdown:
Section |  min time  |  avg time  |  max time  |%varavg| %total
---------------------------------------------------------------
Pair    | 0.0050514  | 0.0050514  | 0.0050514  |   0.0 | 14.52
Bond    | 0.0019259  | 0.0019259  | 0.0019259  |   0.0 |  5.54
Kspace  | 0.027581   | 0.027581   | 0.027581   |   0.0 | 79.30
Neigh   | 0          | 0          | 0          |   0.0 |  0.00
Comm    | 1.1206e-05 | 1.1206e-05 | 1.1206e-05 |   0.0 |  0.03
Output  | 0          | 0          | 0          |   0.0 |  0.00
Modify  | 0          | 0          | 0          |   0.0 |  0.00
Other   |            | 0.0002103  |            |       |  0.60

Nlocal:    140 ave 140 max 140 min
Histogram: 1 0 0 0 0 0 0 0 0 0
Nghost:    9 ave 9 max 9 min
Histogram: 1 0 0 0 0 0 0 0 0 0
Neighs:    4272 ave 4272 max 4272 min
Histogram: 1 0 0 0 0 0 0 0 0 0

Total # of neighbors = 4272
Ave neighs/atom = 30.5143
Ave special neighs/atom = 10.2857
Neighbor list builds = 0
Dangerous builds = 0
write_dump all custom pysimm.dump.tmp id q x y z vx vy vz
quit


################################################################################
##################################    Init    ##################################
################################################################################
units           real
atom_style      full
pair_style      lj/cut/coul/long 12.0  12.0
kspace_style    pppm 1e-4
bond_style      harmonic
angle_style     harmonic
dihedral_style  fourier
improper_style  cvff
special_bonds   amber
pair_modify     mix arithmetic
read_data       temp.lmps
  orthogonal box = (-87.6536 -87.6536 -87.6536) to (87.6536 87.6536 87.6536)
  1 by 1 by 1 MPI processor grid
  reading atoms ...
  175 atoms
  reading velocities ...
  175 velocities
  scanning bonds ...
  3 = max bonds/atom
  scanning angles ...
  6 = max angles/atom
  scanning dihedrals ...
  10 = max dihedrals/atom
  scanning impropers ...
  1 = max impropers/atom
  reading bonds ...
  189 bonds
  reading angles ...
  307 angles
  reading dihedrals ...
  452 dihedrals
  reading impropers ...
  60 impropers
  4 = max # of 1-2 neighbors
  7 = max # of 1-3 neighbors
  13 = max # of 1-4 neighbors
  16 = max # of special neighbors
  special bonds CPU = 0.000285864 secs
  read_data CPU = 0.00475121 secs
################################################################################

timestep        1
fix             pysimm_md all nve/limit 0.1
run             2000
PPPM initialization ...
  using 12-bit tables for long-range coulomb (../kspace.cpp:332)
  G vector (1/distance) = 0.0998583
  grid = 16 16 16
  stencil order = 5
  estimated absolute RMS force accuracy = 0.0368836
  estimated relative force accuracy = 0.000111074
  using double precision KISS FFT
  3d grid and FFT values/proc = 9261 4096
Neighbor list info ...
  update every 1 steps, delay 10 steps, check yes
  max neighbors/atom: 2000, page size: 100000
  master list distance cutoff = 14
  ghost atom cutoff = 14
  binsize = 7, bins = 26 26 26
  1 neighbor lists, perpetual/occasional/extra = 1 0 0
  (1) pair lj/cut/coul/long, perpetual
      attributes: half, newton on
      pair build: half/bin/newton
      stencil: half/bin/3d/newton
      bin: standard
Per MPI rank memory allocation (min/avg/max) = 13.47 | 13.47 | 13.47 Mbytes
Step Temp E_pair E_mol TotEng Press 
       0    205.91712    544.83233    297.69315    949.32665    16.321807 
    2000     352.0413    210.67306    283.57178    676.83492   -3.9576688 
Loop time of 2.31284 on 1 procs for 2000 steps with 175 atoms

Performance: 74.713 ns/day, 0.321 hours/ns, 864.739 timesteps/s
100.0% CPU use with 1 MPI tasks x no OpenMP threads

MPI task timing breakdown:
Section |  min time  |  avg time  |  max time  |%varavg| %total
---------------------------------------------------------------
Pair    | 0.26176    | 0.26176    | 0.26176    |   0.0 | 11.32
Bond    | 0.14754    | 0.14754    | 0.14754    |   0.0 |  6.38
Kspace  | 1.8783     | 1.8783     | 1.8783     |   0.0 | 81.21
Neigh   | 0.011564   | 0.011564   | 0.011564   |   0.0 |  0.50
Comm    | 0.0017686  | 0.0017686  | 0.0017686  |   0.0 |  0.08
Output  | 2.2888e-05 | 2.2888e-05 | 2.2888e-05 |   0.0 |  0.00
Modify  | 0.0065515  | 0.0065515  | 0.0065515  |   0.0 |  0.28
Other   |            | 0.00532    |            |       |  0.23

Nlocal:    175 ave 175 max 175 min
Histogram: 1 0 0 0 0 0 0 0 0 0
Nghost:    31 ave 31 max 31 min
Histogram: 1 0 0 0 0 0 0 0 0 0
Neighs:    5534 ave 5534 max 5534 min
Histogram: 1 0 0 0 0 0 0 0 0 0

Total # of neighbors = 5534
Ave neighs/atom = 31.6229
Ave special neighs/atom = 10.32
Neighbor list builds = 51
Dangerous builds = 0
unfix pysimm_md
min_style cg
minimize 0.001 0.001 10000 100000
WARNING: Using 'neigh_modify every 1 delay 0 check yes' setting during minimization (../min.cpp:190)
PPPM initialization ...
  using 12-bit tables for long-range coulomb (../kspace.cpp:332)
  G vector (1/distance) = 0.0998583
  grid = 16 16 16
  stencil order = 5
  estimated absolute RMS force accuracy = 0.0368836
  estimated relative force accuracy = 0.000111074
  using double precision KISS FFT
  3d grid and FFT values/proc = 9261 4096
Per MPI rank memory allocation (min/avg/max) = 14.6 | 14.6 | 14.6 Mbytes
Step Temp E_pair E_mol TotEng Press 
    2000     352.0413    210.67306    283.57178    676.83492   -3.9576688 
    2020     352.0413    205.68023    120.09468    508.36499    1.4468344 
Loop time of 0.0542619 on 1 procs for 20 steps with 175 atoms

99.5% CPU use with 1 MPI tasks x no OpenMP threads

Minimization stats:
  Stopping criterion = energy tolerance
  Energy initial, next-to-last, final = 
         494.244843914      326.093075354      325.774913431
  Force two-norm initial, final = 473.533 23.6728
  Force max component initial, final = 104.482 3.61584
  Final line search alpha, max atom move = 0.00951937 0.0344205
  Iterations, force evaluations = 20 40

MPI task timing breakdown:
Section |  min time  |  avg time  |  max time  |%varavg| %total
---------------------------------------------------------------
Pair    | 0.0088143  | 0.0088143  | 0.0088143  |   0.0 | 16.24
Bond    | 0.0034676  | 0.0034676  | 0.0034676  |   0.0 |  6.39
Kspace  | 0.041689   | 0.041689   | 0.041689   |   0.0 | 76.83
Neigh   | 0          | 0          | 0          |   0.0 |  0.00
Comm    | 3.6716e-05 | 3.6716e-05 | 3.6716e-05 |   0.0 |  0.07
Output  | 0          | 0          | 0          |   0.0 |  0.00
Modify  | 0          | 0          | 0          |   0.0 |  0.00
Other   |            | 0.0002546  |            |       |  0.47

Nlocal:    175 ave 175 max 175 min
Histogram: 1 0 0 0 0 0 0 0 0 0
Nghost:    31 ave 31 max 31 min
Histogram: 1 0 0 0 0 0 0 0 0 0
Neighs:    5545 ave 5545 max 5545 min
Histogram: 1 0 0 0 0 0 0 0 0 0

Total # of neighbors = 5545
Ave neighs/atom = 31.6857
Ave special neighs/atom = 10.32
Neighbor list builds = 0
Dangerous builds = 0
write_dump all custom pysimm.dump.tmp id q x y z vx vy vz
quit


################################################################################
##################################    Init    ##################################
################################################################################
units           real
atom_style      full
pair_style      lj/cut/coul/long 12.0  12.0
kspace_style    pppm 1e-4
bond_style      harmonic
angle_style     harmonic
dihedral_style  fourier
improper_style  cvff
special_bonds   amber
pair_modify     mix arithmetic
read_data       temp.lmps
  orthogonal box = (-87.6536 -87.6536 -87.6536) to (87.6536 87.6536 87.6536)
  1 by 1 by 1 MPI processor grid
  reading atoms ...
  210 atoms
  reading velocities ...
  210 velocities
  scanning bonds ...
  3 = max bonds/atom
  scanning angles ...
  6 = max angles/atom
  scanning dihedrals ...
  10 = max dihedrals/atom
  scanning impropers ...
  1 = max impropers/atom
  reading bonds ...
  227 bonds
  reading angles ...
  369 angles
  reading dihedrals ...
  544 dihedrals
  reading impropers ...
  72 impropers
  4 = max # of 1-2 neighbors
  7 = max # of 1-3 neighbors
  13 = max # of 1-4 neighbors
  16 = max # of special neighbors
  special bonds CPU = 0.00033617 secs
  read_data CPU = 0.00502801 secs
################################################################################

timestep        1
fix             pysimm_md all nve/limit 0.1
run             2000
PPPM initialization ...
  using 12-bit tables for long-range coulomb (../kspace.cpp:332)
  G vector (1/distance) = 0.10844
  grid = 18 18 18
  stencil order = 5
  estimated absolute RMS force accuracy = 0.0312385
  estimated relative force accuracy = 9.40739e-05
  using double precision KISS FFT
  3d grid and FFT values/proc = 12167 5832
Neighbor list info ...
  update every 1 steps, delay 10 steps, check yes
  max neighbors/atom: 2000, page size: 100000
  master list distance cutoff = 14
  ghost atom cutoff = 14
  binsize = 7, bins = 26 26 26
  1 neighbor lists, perpetual/occasional/extra = 1 0 0
  (1) pair lj/cut/coul/long, perpetual
      attributes: half, newton on
      pair build: half/bin/newton
      stencil: half/bin/3d/newton
      bin: standard
Per MPI rank memory allocation (min/avg/max) = 13.74 | 13.74 | 13.74 Mbytes
Step Temp E_pair E_mol TotEng Press 
       0    296.05328    263.35352    259.61704    707.40859 -0.0064528151 
    2000    297.50111    253.69565    268.43089    707.46655   -1.6132393 
Loop time of 3.26232 on 1 procs for 2000 steps with 210 atoms

Performance: 52.969 ns/day, 0.453 hours/ns, 613.061 timesteps/s
100.0% CPU use with 1 MPI tasks x no OpenMP threads

MPI task timing breakdown:
Section |  min time  |  avg time  |  max time  |%varavg| %total
---------------------------------------------------------------
Pair    | 0.31868    | 0.31868    | 0.31868    |   0.0 |  9.77
Bond    | 0.17471    | 0.17471    | 0.17471    |   0.0 |  5.36
Kspace  | 2.745      | 2.745      | 2.745      |   0.0 | 84.14
Neigh   | 0.0090139  | 0.0090139  | 0.0090139  |   0.0 |  0.28
Comm    | 0.0019023  | 0.0019023  | 0.0019023  |   0.0 |  0.06
Output  | 2.5988e-05 | 2.5988e-05 | 2.5988e-05 |   0.0 |  0.00
Modify  | 0.0074537  | 0.0074537  | 0.0074537  |   0.0 |  0.23
Other   |            | 0.005497   |            |       |  0.17

Nlocal:    210 ave 210 max 210 min
Histogram: 1 0 0 0 0 0 0 0 0 0
Nghost:    55 ave 55 max 55 min
Histogram: 1 0 0 0 0 0 0 0 0 0
Neighs:    6702 ave 6702 max 6702 min
Histogram: 1 0 0 0 0 0 0 0 0 0

Total # of neighbors = 6702
Ave neighs/atom = 31.9143
Ave special neighs/atom = 10.3429
Neighbor list builds = 33
Dangerous builds = 0
unfix pysimm_md
min_style cg
minimize 0.001 0.001 10000 100000
WARNING: Using 'neigh_modify every 1 delay 0 check yes' setting during minimization (../min.cpp:190)
PPPM initialization ...
  using 12-bit tables for long-range coulomb (../kspace.cpp:332)
  G vector (1/distance) = 0.10844
  grid = 18 18 18
  stencil order = 5
  estimated absolute RMS force accuracy = 0.0312385
  estimated relative force accuracy = 9.40739e-05
  using double precision KISS FFT
  3d grid and FFT values/proc = 12167 5832
Per MPI rank memory allocation (min/avg/max) = 14.86 | 14.86 | 14.86 Mbytes
Step Temp E_pair E_mol TotEng Press 
    2000    297.50111    253.69565    268.43089    707.46655   -1.6132393 
    2017    297.50111    247.67549    145.57694    578.59244    1.3743137 
Loop time of 0.0621109 on 1 procs for 17 steps with 210 atoms

99.8% CPU use with 1 MPI tasks x no OpenMP threads

Minimization stats:
  Stopping criterion = energy tolerance
  Energy initial, next-to-last, final = 
         522.126544921      393.303035243      393.252430655
  Force two-norm initial, final = 447.264 21.4031
  Force max component initial, final = 91.0876 4.36713
  Final line search alpha, max atom move = 0.0124371 0.0543145
  Iterations, force evaluations = 17 34

MPI task timing breakdown:
Section |  min time  |  avg time  |  max time  |%varavg| %total
---------------------------------------------------------------
Pair    | 0.0091362  | 0.0091362  | 0.0091362  |   0.0 | 14.71
Bond    | 0.003401   | 0.003401   | 0.003401   |   0.0 |  5.48
Kspace  | 0.049298   | 0.049298   | 0.049298   |   0.0 | 79.37
Neigh   | 0          | 0          | 0          |   0.0 |  0.00
Comm    | 3.1233e-05 | 3.1233e-05 | 3.1233e-05 |   0.0 |  0.05
Output  | 0          | 0          | 0          |   0.0 |  0.00
Modify  | 0          | 0          | 0          |   0.0 |  0.00
Other   |            | 0.0002441  |            |       |  0.39

Nlocal:    210 ave 210 max 210 min
Histogram: 1 0 0 0 0 0 0 0 0 0
Nghost:    55 ave 55 max 55 min
Histogram: 1 0 0 0 0 0 0 0 0 0
Neighs:    6687 ave 6687 max 6687 min
Histogram: 1 0 0 0 0 0 0 0 0 0

Total # of neighbors = 6687
Ave neighs/atom = 31.8429
Ave special neighs/atom = 10.3429
Neighbor list builds = 0
Dangerous builds = 0
write_dump all custom pysimm.dump.tmp id q x y z vx vy vz
quit


################################################################################
##################################    Init    ##################################
################################################################################
units           real
atom_style      full
pair_style      lj/cut/coul/long 12.0  12.0
kspace_style    pppm 1e-4
bond_style      harmonic
angle_style     harmonic
dihedral_style  fourier
improper_style  cvff
special_bonds   amber
pair_modify     mix arithmetic
read_data       temp.lmps
  orthogonal box = (-87.6536 -87.6536 -87.6536) to (87.6536 87.6536 87.6536)
  1 by 1 by 1 MPI processor grid
  reading atoms ...
  245 atoms
  reading velocities ...
  245 velocities
  scanning bonds ...
  3 = max bonds/atom
  scanning angles ...
  6 = max angles/atom
  scanning dihedrals ...
  10 = max dihedrals/atom
  scanning impropers ...
  1 = max impropers/atom
  reading bonds ...
  265 bonds
  reading angles ...
  431 angles
  reading dihedrals ...
  636 dihedrals
  reading impropers ...
  84 impropers
  4 = max # of 1-2 neighbors
  7 = max # of 1-3 neighbors
  13 = max # of 1-4 neighbors
  16 = max # of special neighbors
  special bonds CPU = 0.000389099 secs
  read_data CPU = 0.00534797 secs
################################################################################

timestep        1
fix             pysimm_md all nve/limit 0.1
run             2000
PPPM initialization ...
  using 12-bit tables for long-range coulomb (../kspace.cpp:332)
  G vector (1/distance) = 0.108438
  grid = 18 18 18
  stencil order = 5
  estimated absolute RMS force accuracy = 0.0337397
  estimated relative force accuracy = 0.000101606
  using double precision KISS FFT
  3d grid and FFT values/proc = 12167 5832
Neighbor list info ...
  update every 1 steps, delay 10 steps, check yes
  max neighbors/atom: 2000, page size: 100000
  master list distance cutoff = 14
  ghost atom cutoff = 14
  binsize = 7, bins = 26 26 26
  1 neighbor lists, perpetual/occasional/extra = 1 0 0
  (1) pair lj/cut/coul/long, perpetual
      attributes: half, newton on
      pair build: half/bin/newton
      stencil: half/bin/3d/newton
      bin: standard
Per MPI rank memory allocation (min/avg/max) = 13.74 | 13.74 | 13.74 Mbytes
Step Temp E_pair E_mol TotEng Press 
       0    257.36753    287.56331    288.29289    763.04415   -1.5251594 
    2000    238.91922    289.99852    296.01098    759.77967  -0.88444088 
Loop time of 3.49312 on 1 procs for 2000 steps with 245 atoms

Performance: 49.469 ns/day, 0.485 hours/ns, 572.554 timesteps/s
100.0% CPU use with 1 MPI tasks x no OpenMP threads

MPI task timing breakdown:
Section |  min time  |  avg time  |  max time  |%varavg| %total
---------------------------------------------------------------
Pair    | 0.3861     | 0.3861     | 0.3861     |   0.0 | 11.05
Bond    | 0.20781    | 0.20781    | 0.20781    |   0.0 |  5.95
Kspace  | 2.8721     | 2.8721     | 2.8721     |   0.0 | 82.22
Neigh   | 0.0103     | 0.0103     | 0.0103     |   0.0 |  0.29
Comm    | 0.0021667  | 0.0021667  | 0.0021667  |   0.0 |  0.06
Output  | 2.3842e-05 | 2.3842e-05 | 2.3842e-05 |   0.0 |  0.00
Modify  | 0.0087688  | 0.0087688  | 0.0087688  |   0.0 |  0.25
Other   |            | 0.005869   |            |       |  0.17

Nlocal:    245 ave 245 max 245 min
Histogram: 1 0 0 0 0 0 0 0 0 0
Nghost:    79 ave 79 max 79 min
Histogram: 1 0 0 0 0 0 0 0 0 0
Neighs:    8209 ave 8209 max 8209 min
Histogram: 1 0 0 0 0 0 0 0 0 0

Total # of neighbors = 8209
Ave neighs/atom = 33.5061
Ave special neighs/atom = 10.3592
Neighbor list builds = 31
Dangerous builds = 0
unfix pysimm_md
min_style cg
minimize 0.001 0.001 10000 100000
WARNING: Using 'neigh_modify every 1 delay 0 check yes' setting during minimization (../min.cpp:190)
PPPM initialization ...
  using 12-bit tables for long-range coulomb (../kspace.cpp:332)
  G vector (1/distance) = 0.108438
  grid = 18 18 18
  stencil order = 5
  estimated absolute RMS force accuracy = 0.0337397
  estimated relative force accuracy = 0.000101606
  using double precision KISS FFT
  3d grid and FFT values/proc = 12167 5832
Per MPI rank memory allocation (min/avg/max) = 14.87 | 14.87 | 14.87 Mbytes
Step Temp E_pair E_mol TotEng Press 
    2000    238.91922    289.99852    296.01098    759.77967  -0.88444088 
    2016    238.91922    284.21163     171.6351     629.6169    1.5961249 
Loop time of 0.0622611 on 1 procs for 16 steps with 245 atoms

101.2% CPU use with 1 MPI tasks x no OpenMP threads

Minimization stats:
  Stopping criterion = energy tolerance
  Energy initial, next-to-last, final = 
         586.009500498      456.187658766      455.846730023
  Force two-norm initial, final = 447.25 24.4968
  Force max component initial, final = 81.8787 4.30261
  Final line search alpha, max atom move = 0.00871429 0.0374942
  Iterations, force evaluations = 16 32

MPI task timing breakdown:
Section |  min time  |  avg time  |  max time  |%varavg| %total
---------------------------------------------------------------
Pair    | 0.010212   | 0.010212   | 0.010212   |   0.0 | 16.40
Bond    | 0.0037682  | 0.0037682  | 0.0037682  |   0.0 |  6.05
Kspace  | 0.047975   | 0.047975   | 0.047975   |   0.0 | 77.05
Neigh   | 0          | 0          | 0          |   0.0 |  0.00
Comm    | 3.1948e-05 | 3.1948e-05 | 3.1948e-05 |   0.0 |  0.05
Output  | 0          | 0          | 0          |   0.0 |  0.00
Modify  | 0          | 0          | 0          |   0.0 |  0.00
Other   |            | 0.0002739  |            |       |  0.44

Nlocal:    245 ave 245 max 245 min
Histogram: 1 0 0 0 0 0 0 0 0 0
Nghost:    81 ave 81 max 81 min
Histogram: 1 0 0 0 0 0 0 0 0 0
Neighs:    8214 ave 8214 max 8214 min
Histogram: 1 0 0 0 0 0 0 0 0 0

Total # of neighbors = 8214
Ave neighs/atom = 33.5265
Ave special neighs/atom = 10.3592
Neighbor list builds = 0
Dangerous builds = 0
write_dump all custom pysimm.dump.tmp id q x y z vx vy vz
quit


################################################################################
##################################    Init    ##################################
################################################################################
units           real
atom_style      full
pair_style      lj/cut/coul/long 12.0  12.0
kspace_style    pppm 1e-4
bond_style      harmonic
angle_style     harmonic
dihedral_style  fourier
improper_style  cvff
special_bonds   amber
pair_modify     mix arithmetic
read_data       temp.lmps
  orthogonal box = (-87.6536 -87.6536 -87.6536) to (87.6536 87.6536 87.6536)
  1 by 1 by 1 MPI processor grid
  reading atoms ...
  280 atoms
  reading velocities ...
  280 velocities
  scanning bonds ...
  3 = max bonds/atom
  scanning angles ...
  6 = max angles/atom
  scanning dihedrals ...
  10 = max dihedrals/atom
  scanning impropers ...
  1 = max impropers/atom
  reading bonds ...
  303 bonds
  reading angles ...
  493 angles
  reading dihedrals ...
  728 dihedrals
  reading impropers ...
  96 impropers
  4 = max # of 1-2 neighbors
  7 = max # of 1-3 neighbors
  13 = max # of 1-4 neighbors
  16 = max # of special neighbors
  special bonds CPU = 0.000375986 secs
  read_data CPU = 0.00540686 secs
################################################################################

timestep        1
fix             pysimm_md all nve/limit 0.1
run             2000
PPPM initialization ...
  using 12-bit tables for long-range coulomb (../kspace.cpp:332)
  G vector (1/distance) = 0.108437
  grid = 18 18 18
  stencil order = 5
  estimated absolute RMS force accuracy = 0.0360688
  estimated relative force accuracy = 0.00010862
  using double precision KISS FFT
  3d grid and FFT values/proc = 12167 5832
Neighbor list info ...
  update every 1 steps, delay 10 steps, check yes
  max neighbors/atom: 2000, page size: 100000
  master list distance cutoff = 14
  ghost atom cutoff = 14
  binsize = 7, bins = 26 26 26
  1 neighbor lists, perpetual/occasional/extra = 1 0 0
  (1) pair lj/cut/coul/long, perpetual
      attributes: half, newton on
      pair build: half/bin/newton
      stencil: half/bin/3d/newton
      bin: standard
Per MPI rank memory allocation (min/avg/max) = 13.75 | 13.75 | 13.75 Mbytes
Step Temp E_pair E_mol TotEng Press 
       0    211.16935    412.05982    352.07246    939.75042    3.7952967 
    2000    227.12662    337.99372    342.25482    869.13749    4.3032658 
Loop time of 3.61124 on 1 procs for 2000 steps with 280 atoms

Performance: 47.851 ns/day, 0.502 hours/ns, 553.827 timesteps/s
99.9% CPU use with 1 MPI tasks x no OpenMP threads

MPI task timing breakdown:
Section |  min time  |  avg time  |  max time  |%varavg| %total
---------------------------------------------------------------
Pair    | 0.46663    | 0.46663    | 0.46663    |   0.0 | 12.92
Bond    | 0.2356     | 0.2356     | 0.2356     |   0.0 |  6.52
Kspace  | 2.8726     | 2.8726     | 2.8726     |   0.0 | 79.55
Neigh   | 0.018351   | 0.018351   | 0.018351   |   0.0 |  0.51
Comm    | 0.002459   | 0.002459   | 0.002459   |   0.0 |  0.07
Output  | 2.408e-05  | 2.408e-05  | 2.408e-05  |   0.0 |  0.00
Modify  | 0.0097075  | 0.0097075  | 0.0097075  |   0.0 |  0.27
Other   |            | 0.005902   |            |       |  0.16

Nlocal:    280 ave 280 max 280 min
Histogram: 1 0 0 0 0 0 0 0 0 0
Nghost:    88 ave 88 max 88 min
Histogram: 1 0 0 0 0 0 0 0 0 0
Neighs:    9997 ave 9997 max 9997 min
Histogram: 1 0 0 0 0 0 0 0 0 0

Total # of neighbors = 9997
Ave neighs/atom = 35.7036
Ave special neighs/atom = 10.3714
Neighbor list builds = 48
Dangerous builds = 0
unfix pysimm_md
min_style cg
minimize 0.001 0.001 10000 100000
WARNING: Using 'neigh_modify every 1 delay 0 check yes' setting during minimization (../min.cpp:190)
PPPM initialization ...
  using 12-bit tables for long-range coulomb (../kspace.cpp:332)
  G vector (1/distance) = 0.108437
  grid = 18 18 18
  stencil order = 5
  estimated absolute RMS force accuracy = 0.0360688
  estimated relative force accuracy = 0.00010862
  using double precision KISS FFT
  3d grid and FFT values/proc = 12167 5832
Per MPI rank memory allocation (min/avg/max) = 14.87 | 14.87 | 14.87 Mbytes
Step Temp E_pair E_mol TotEng Press 
    2000    227.12662    337.99372    342.25482    869.13749    4.3032658 
    2020    227.12662     332.2295    201.10631    722.22476    2.4026353 
Loop time of 0.0751181 on 1 procs for 20 steps with 280 atoms

99.8% CPU use with 1 MPI tasks x no OpenMP threads

Minimization stats:
  Stopping criterion = energy tolerance
  Energy initial, next-to-last, final = 
         680.248545399      533.576950508      533.335815231
  Force two-norm initial, final = 440.231 35.601
  Force max component initial, final = 73.5871 5.36369
  Final line search alpha, max atom move = 0.00568901 0.0305141
  Iterations, force evaluations = 20 40

MPI task timing breakdown:
Section |  min time  |  avg time  |  max time  |%varavg| %total
---------------------------------------------------------------
Pair    | 0.014741   | 0.014741   | 0.014741   |   0.0 | 19.62
Bond    | 0.0050862  | 0.0050862  | 0.0050862  |   0.0 |  6.77
Kspace  | 0.054907   | 0.054907   | 0.054907   |   0.0 | 73.09
Neigh   | 0          | 0          | 0          |   0.0 |  0.00
Comm    | 5.722e-05  | 5.722e-05  | 5.722e-05  |   0.0 |  0.08
Output  | 0          | 0          | 0          |   0.0 |  0.00
Modify  | 0          | 0          | 0          |   0.0 |  0.00
Other   |            | 0.0003266  |            |       |  0.43

Nlocal:    280 ave 280 max 280 min
Histogram: 1 0 0 0 0 0 0 0 0 0
Nghost:    88 ave 88 max 88 min
Histogram: 1 0 0 0 0 0 0 0 0 0
Neighs:    10005 ave 10005 max 10005 min
Histogram: 1 0 0 0 0 0 0 0 0 0

Total # of neighbors = 10005
Ave neighs/atom = 35.7321
Ave special neighs/atom = 10.3714
Neighbor list builds = 0
Dangerous builds = 0
write_dump all custom pysimm.dump.tmp id q x y z vx vy vz
quit


################################################################################
##################################    Init    ##################################
################################################################################
units           real
atom_style      full
pair_style      lj/cut/coul/long 12.0  12.0
kspace_style    pppm 1e-4
bond_style      harmonic
angle_style     harmonic
dihedral_style  fourier
improper_style  cvff
special_bonds   amber
pair_modify     mix arithmetic
read_data       temp.lmps
  orthogonal box = (-87.6536 -87.6536 -87.6536) to (87.6536 87.6536 87.6536)
  1 by 1 by 1 MPI processor grid
  reading atoms ...
  315 atoms
  reading velocities ...
  315 velocities
  scanning bonds ...
  3 = max bonds/atom
  scanning angles ...
  6 = max angles/atom
  scanning dihedrals ...
  10 = max dihedrals/atom
  scanning impropers ...
  1 = max impropers/atom
  reading bonds ...
  341 bonds
  reading angles ...
  555 angles
  reading dihedrals ...
  820 dihedrals
  reading impropers ...
  108 impropers
  4 = max # of 1-2 neighbors
  7 = max # of 1-3 neighbors
  13 = max # of 1-4 neighbors
  16 = max # of special neighbors
  special bonds CPU = 0.000384092 secs
  read_data CPU = 0.00579 secs
################################################################################

timestep        1
fix             pysimm_md all nve/limit 0.1
run             2000
PPPM initialization ...
  using 12-bit tables for long-range coulomb (../kspace.cpp:332)
  G vector (1/distance) = 0.108437
  grid = 18 18 18
  stencil order = 5
  estimated absolute RMS force accuracy = 0.0382567
  estimated relative force accuracy = 0.000115209
  using double precision KISS FFT
  3d grid and FFT values/proc = 12167 5832
Neighbor list info ...
  update every 1 steps, delay 10 steps, check yes
  max neighbors/atom: 2000, page size: 100000
  master list distance cutoff = 14
  ghost atom cutoff = 14
  binsize = 7, bins = 26 26 26
  1 neighbor lists, perpetual/occasional/extra = 1 0 0
  (1) pair lj/cut/coul/long, perpetual
      attributes: half, newton on
      pair build: half/bin/newton
      stencil: half/bin/3d/newton
      bin: standard
Per MPI rank memory allocation (min/avg/max) = 13.75 | 13.75 | 13.75 Mbytes
Step Temp E_pair E_mol TotEng Press 
       0    203.78432     385.4882    367.08436    943.30945    0.5450413 
    2000    201.44612    377.11673    365.11445    930.77958    2.0363223 
Loop time of 3.78699 on 1 procs for 2000 steps with 315 atoms

Performance: 45.630 ns/day, 0.526 hours/ns, 528.124 timesteps/s
99.5% CPU use with 1 MPI tasks x no OpenMP threads

MPI task timing breakdown:
Section |  min time  |  avg time  |  max time  |%varavg| %total
---------------------------------------------------------------
Pair    | 0.52365    | 0.52365    | 0.52365    |   0.0 | 13.83
Bond    | 0.26509    | 0.26509    | 0.26509    |   0.0 |  7.00
Kspace  | 2.9589     | 2.9589     | 2.9589     |   0.0 | 78.13
Neigh   | 0.020058   | 0.020058   | 0.020058   |   0.0 |  0.53
Comm    | 0.002449   | 0.002449   | 0.002449   |   0.0 |  0.06
Output  | 2.2888e-05 | 2.2888e-05 | 2.2888e-05 |   0.0 |  0.00
Modify  | 0.010804   | 0.010804   | 0.010804   |   0.0 |  0.29
Other   |            | 0.006046   |            |       |  0.16

Nlocal:    315 ave 315 max 315 min
Histogram: 1 0 0 0 0 0 0 0 0 0
Nghost:    105 ave 105 max 105 min
Histogram: 1 0 0 0 0 0 0 0 0 0
Neighs:    11493 ave 11493 max 11493 min
Histogram: 1 0 0 0 0 0 0 0 0 0

Total # of neighbors = 11493
Ave neighs/atom = 36.4857
Ave special neighs/atom = 10.381
Neighbor list builds = 45
Dangerous builds = 0
unfix pysimm_md
min_style cg
minimize 0.001 0.001 10000 100000
WARNING: Using 'neigh_modify every 1 delay 0 check yes' setting during minimization (../min.cpp:190)
PPPM initialization ...
  using 12-bit tables for long-range coulomb (../kspace.cpp:332)
  G vector (1/distance) = 0.108437
  grid = 18 18 18
  stencil order = 5
  estimated absolute RMS force accuracy = 0.0382567
  estimated relative force accuracy = 0.000115209
  using double precision KISS FFT
  3d grid and FFT values/proc = 12167 5832
Per MPI rank memory allocation (min/avg/max) = 14.87 | 14.87 | 14.87 Mbytes
Step Temp E_pair E_mol TotEng Press 
    2000    201.44612    377.11673    365.11445    930.77958    2.0363223 
    2019    201.44612    364.84963    222.19586    775.59389    2.1454584 
Loop time of 0.077539 on 1 procs for 19 steps with 315 atoms

100.6% CPU use with 1 MPI tasks x no OpenMP threads

Minimization stats:
  Stopping criterion = energy tolerance
  Energy initial, next-to-last, final = 
         742.231184854      587.512110112      587.045488497
  Force two-norm initial, final = 484.571 29.2573
  Force max component initial, final = 99.7559 4.42794
  Final line search alpha, max atom move = 0.00660274 0.0292366
  Iterations, force evaluations = 19 38

MPI task timing breakdown:
Section |  min time  |  avg time  |  max time  |%varavg| %total
---------------------------------------------------------------
Pair    | 0.016368   | 0.016368   | 0.016368   |   0.0 | 21.11
Bond    | 0.005609   | 0.005609   | 0.005609   |   0.0 |  7.23
Kspace  | 0.055182   | 0.055182   | 0.055182   |   0.0 | 71.17
Neigh   | 0          | 0          | 0          |   0.0 |  0.00
Comm    | 4.8876e-05 | 4.8876e-05 | 4.8876e-05 |   0.0 |  0.06
Output  | 0          | 0          | 0          |   0.0 |  0.00
Modify  | 0          | 0          | 0          |   0.0 |  0.00
Other   |            | 0.0003312  |            |       |  0.43

Nlocal:    315 ave 315 max 315 min
Histogram: 1 0 0 0 0 0 0 0 0 0
Nghost:    105 ave 105 max 105 min
Histogram: 1 0 0 0 0 0 0 0 0 0
Neighs:    11483 ave 11483 max 11483 min
Histogram: 1 0 0 0 0 0 0 0 0 0

Total # of neighbors = 11483
Ave neighs/atom = 36.454
Ave special neighs/atom = 10.381
Neighbor list builds = 0
Dangerous builds = 0
write_dump all custom pysimm.dump.tmp id q x y z vx vy vz
quit


################################################################################
##################################    Init    ##################################
################################################################################
units           real
atom_style      full
pair_style      lj/cut/coul/long 12.0  12.0
kspace_style    pppm 1e-4
bond_style      harmonic
angle_style     harmonic
dihedral_style  fourier
improper_style  cvff
special_bonds   amber
pair_modify     mix arithmetic
read_data       temp.lmps
  orthogonal box = (-87.6536 -87.6536 -87.6536) to (87.6536 87.6536 87.6536)
  1 by 1 by 1 MPI processor grid
  reading atoms ...
  350 atoms
  reading velocities ...
  350 velocities
  scanning bonds ...
  3 = max bonds/atom
  scanning angles ...
  6 = max angles/atom
  scanning dihedrals ...
  10 = max dihedrals/atom
  scanning impropers ...
  1 = max impropers/atom
  reading bonds ...
  379 bonds
  reading angles ...
  617 angles
  reading dihedrals ...
  912 dihedrals
  reading impropers ...
  120 impropers
  4 = max # of 1-2 neighbors
  7 = max # of 1-3 neighbors
  13 = max # of 1-4 neighbors
  16 = max # of special neighbors
  special bonds CPU = 0.000442982 secs
  read_data CPU = 0.00611901 secs
################################################################################

timestep        1
fix             pysimm_md all nve/limit 0.1
run             2000
PPPM initialization ...
WARNING: System is not charge neutral, net charge = 1e-05 (../kspace.cpp:313)
  using 12-bit tables for long-range coulomb (../kspace.cpp:332)
  G vector (1/distance) = 0.116368
  grid = 20 20 20
  stencil order = 5
  estimated absolute RMS force accuracy = 0.0311953
  estimated relative force accuracy = 9.39436e-05
  using double precision KISS FFT
  3d grid and FFT values/proc = 15625 8000
Neighbor list info ...
  update every 1 steps, delay 10 steps, check yes
  max neighbors/atom: 2000, page size: 100000
  master list distance cutoff = 14
  ghost atom cutoff = 14
  binsize = 7, bins = 26 26 26
  1 neighbor lists, perpetual/occasional/extra = 1 0 0
  (1) pair lj/cut/coul/long, perpetual
      attributes: half, newton on
      pair build: half/bin/newton
      stencil: half/bin/3d/newton
      bin: standard
Per MPI rank memory allocation (min/avg/max) = 14.07 | 14.07 | 14.07 Mbytes
Step Temp E_pair E_mol TotEng Press 
       0    183.02021    517.09158    422.41349    1129.9015    5.5538692 
    2000    206.80726     404.4037    412.44432    1031.9902   -3.5168748 
Loop time of 4.37129 on 1 procs for 2000 steps with 350 atoms

Performance: 39.531 ns/day, 0.607 hours/ns, 457.530 timesteps/s
100.0% CPU use with 1 MPI tasks x no OpenMP threads

MPI task timing breakdown:
Section |  min time  |  avg time  |  max time  |%varavg| %total
---------------------------------------------------------------
Pair    | 0.58899    | 0.58899    | 0.58899    |   0.0 | 13.47
Bond    | 0.29162    | 0.29162    | 0.29162    |   0.0 |  6.67
Kspace  | 3.4494     | 3.4494     | 3.4494     |   0.0 | 78.91
Neigh   | 0.020231   | 0.020231   | 0.020231   |   0.0 |  0.46
Comm    | 0.002521   | 0.002521   | 0.002521   |   0.0 |  0.06
Output  | 2.0027e-05 | 2.0027e-05 | 2.0027e-05 |   0.0 |  0.00
Modify  | 0.011939   | 0.011939   | 0.011939   |   0.0 |  0.27
Other   |            | 0.00659    |            |       |  0.15

Nlocal:    350 ave 350 max 350 min
Histogram: 1 0 0 0 0 0 0 0 0 0
Nghost:    114 ave 114 max 114 min
Histogram: 1 0 0 0 0 0 0 0 0 0
Neighs:    12917 ave 12917 max 12917 min
Histogram: 1 0 0 0 0 0 0 0 0 0

Total # of neighbors = 12917
Ave neighs/atom = 36.9057
Ave special neighs/atom = 10.3886
Neighbor list builds = 42
Dangerous builds = 0
unfix pysimm_md
min_style cg
minimize 0.001 0.001 10000 100000
WARNING: Using 'neigh_modify every 1 delay 0 check yes' setting during minimization (../min.cpp:190)
PPPM initialization ...
  using 12-bit tables for long-range coulomb (../kspace.cpp:332)
  G vector (1/distance) = 0.116368
  grid = 20 20 20
  stencil order = 5
  estimated absolute RMS force accuracy = 0.0311953
  estimated relative force accuracy = 9.39436e-05
  using double precision KISS FFT
  3d grid and FFT values/proc = 15625 8000
Per MPI rank memory allocation (min/avg/max) = 15.2 | 15.2 | 15.2 Mbytes
Step Temp E_pair E_mol TotEng Press 
    2000    206.80726     404.4037    412.44432    1031.9902   -3.5168748 
    2014    206.80726    401.87648    257.03297     874.0516    1.6430548 
Loop time of 0.0668461 on 1 procs for 14 steps with 350 atoms

100.2% CPU use with 1 MPI tasks x no OpenMP threads

Minimization stats:
  Stopping criterion = energy tolerance
  Energy initial, next-to-last, final = 
         816.848020187      659.553363164      658.909448555
  Force two-norm initial, final = 482.251 38.8551
  Force max component initial, final = 94.2259 7.74635
  Final line search alpha, max atom move = 0.00985237 0.07632
  Iterations, force evaluations = 14 28

MPI task timing breakdown:
Section |  min time  |  avg time  |  max time  |%varavg| %total
---------------------------------------------------------------
Pair    | 0.01356    | 0.01356    | 0.01356    |   0.0 | 20.29
Bond    | 0.0045462  | 0.0045462  | 0.0045462  |   0.0 |  6.80
Kspace  | 0.048436   | 0.048436   | 0.048436   |   0.0 | 72.46
Neigh   | 0          | 0          | 0          |   0.0 |  0.00
Comm    | 2.8133e-05 | 2.8133e-05 | 2.8133e-05 |   0.0 |  0.04
Output  | 0          | 0          | 0          |   0.0 |  0.00
Modify  | 0          | 0          | 0          |   0.0 |  0.00
Other   |            | 0.0002759  |            |       |  0.41

Nlocal:    350 ave 350 max 350 min
Histogram: 1 0 0 0 0 0 0 0 0 0
Nghost:    114 ave 114 max 114 min
Histogram: 1 0 0 0 0 0 0 0 0 0
Neighs:    12911 ave 12911 max 12911 min
Histogram: 1 0 0 0 0 0 0 0 0 0

Total # of neighbors = 12911
Ave neighs/atom = 36.8886
Ave special neighs/atom = 10.3886
Neighbor list builds = 0
Dangerous builds = 0
write_dump all custom pysimm.dump.tmp id q x y z vx vy vz
quit


################################################################################
##################################    Init    ##################################
################################################################################
units           real
atom_style      full
pair_style      lj/cut/coul/long 12.0  12.0
kspace_style    pppm 1e-4
bond_style      harmonic
angle_style     harmonic
dihedral_style  fourier
improper_style  cvff
special_bonds   amber
pair_modify     mix arithmetic
read_data       temp.lmps
  orthogonal box = (-110.437 -110.437 -110.437) to (110.437 110.437 110.437)
  1 by 1 by 1 MPI processor grid
  reading atoms ...
  385 atoms
  reading velocities ...
  385 velocities
  scanning bonds ...
  3 = max bonds/atom
  scanning angles ...
  6 = max angles/atom
  scanning dihedrals ...
  10 = max dihedrals/atom
  scanning impropers ...
  1 = max impropers/atom
  reading bonds ...
  417 bonds
  reading angles ...
  679 angles
  reading dihedrals ...
  1004 dihedrals
  reading impropers ...
  132 impropers
  4 = max # of 1-2 neighbors
  7 = max # of 1-3 neighbors
  13 = max # of 1-4 neighbors
  16 = max # of special neighbors
  special bonds CPU = 0.000479937 secs
  read_data CPU = 0.00674295 secs
################################################################################

timestep        1
fix             pysimm_md all nve/limit 0.1
run             2000
PPPM initialization ...
WARNING: System is not charge neutral, net charge = 1.1e-05 (../kspace.cpp:313)
  using 12-bit tables for long-range coulomb (../kspace.cpp:332)
  G vector (1/distance) = 0.112673
  grid = 24 24 24
  stencil order = 5
  estimated absolute RMS force accuracy = 0.0261335
  estimated relative force accuracy = 7.87003e-05
  using double precision KISS FFT
  3d grid and FFT values/proc = 24389 13824
Neighbor list info ...
  update every 1 steps, delay 10 steps, check yes
  max neighbors/atom: 2000, page size: 100000
  master list distance cutoff = 14
  ghost atom cutoff = 14
  binsize = 7, bins = 32 32 32
  1 neighbor lists, perpetual/occasional/extra = 1 0 0
  (1) pair lj/cut/coul/long, perpetual
      attributes: half, newton on
      pair build: half/bin/newton
      stencil: half/bin/3d/newton
      bin: standard
Per MPI rank memory allocation (min/avg/max) = 14.98 | 14.98 | 14.98 Mbytes
Step Temp E_pair E_mol TotEng Press 
       0    189.57215    444.69205     222656.7    223318.38   -995.67705 
    2000    1689.5861    456.28907    1311.7298    3701.9715   -6.4959593 
Loop time of 7.48169 on 1 procs for 2000 steps with 385 atoms

Performance: 23.096 ns/day, 1.039 hours/ns, 267.319 timesteps/s
100.0% CPU use with 1 MPI tasks x no OpenMP threads

MPI task timing breakdown:
Section |  min time  |  avg time  |  max time  |%varavg| %total
---------------------------------------------------------------
Pair    | 0.68502    | 0.68502    | 0.68502    |   0.0 |  9.16
Bond    | 0.32686    | 0.32686    | 0.32686    |   0.0 |  4.37
Kspace  | 6.3594     | 6.3594     | 6.3594     |   0.0 | 85.00
Neigh   | 0.089681   | 0.089681   | 0.089681   |   0.0 |  1.20
Comm    | 0.0021443  | 0.0021443  | 0.0021443  |   0.0 |  0.03
Output  | 2.5034e-05 | 2.5034e-05 | 2.5034e-05 |   0.0 |  0.00
Modify  | 0.014328   | 0.014328   | 0.014328   |   0.0 |  0.19
Other   |            | 0.004187   |            |       |  0.06

Nlocal:    385 ave 385 max 385 min
Histogram: 1 0 0 0 0 0 0 0 0 0
Nghost:    0 ave 0 max 0 min
Histogram: 1 0 0 0 0 0 0 0 0 0
Neighs:    15174 ave 15174 max 15174 min
Histogram: 1 0 0 0 0 0 0 0 0 0

Total # of neighbors = 15174
Ave neighs/atom = 39.413
Ave special neighs/atom = 10.3948
Neighbor list builds = 161
Dangerous builds = 0
unfix pysimm_md
min_style cg
minimize 0.001 0.001 10000 100000
WARNING: Using 'neigh_modify every 1 delay 0 check yes' setting during minimization (../min.cpp:190)
PPPM initialization ...
  using 12-bit tables for long-range coulomb (../kspace.cpp:332)
  G vector (1/distance) = 0.112673
  grid = 24 24 24
  stencil order = 5
  estimated absolute RMS force accuracy = 0.0261335
  estimated relative force accuracy = 7.87003e-05
  using double precision KISS FFT
  3d grid and FFT values/proc = 24389 13824
Per MPI rank memory allocation (min/avg/max) = 16.11 | 16.11 | 16.11 Mbytes
Step Temp E_pair E_mol TotEng Press 
    2000    1689.5861    456.28907    1311.7298    3701.9715   -6.4959593 
    2043    1689.5861    446.18347    373.85522    2753.9914    6.2794948 
Loop time of 0.345717 on 1 procs for 43 steps with 385 atoms

99.2% CPU use with 1 MPI tasks x no OpenMP threads

Minimization stats:
  Stopping criterion = energy tolerance
  Energy initial, next-to-last, final = 
         1768.01882167      820.856161135      820.038695043
  Force two-norm initial, final = 960.664 52.0729
  Force max component initial, final = 163.28 7.10544
  Final line search alpha, max atom move = 0.00335772 0.0238581
  Iterations, force evaluations = 43 86

MPI task timing breakdown:
Section |  min time  |  avg time  |  max time  |%varavg| %total
---------------------------------------------------------------
Pair    | 0.048596   | 0.048596   | 0.048596   |   0.0 | 14.06
Bond    | 0.015537   | 0.015537   | 0.015537   |   0.0 |  4.49
Kspace  | 0.27944    | 0.27944    | 0.27944    |   0.0 | 80.83
Neigh   | 0.0011101  | 0.0011101  | 0.0011101  |   0.0 |  0.32
Comm    | 8.2254e-05 | 8.2254e-05 | 8.2254e-05 |   0.0 |  0.02
Output  | 0          | 0          | 0          |   0.0 |  0.00
Modify  | 0          | 0          | 0          |   0.0 |  0.00
Other   |            | 0.0009484  |            |       |  0.27

Nlocal:    385 ave 385 max 385 min
Histogram: 1 0 0 0 0 0 0 0 0 0
Nghost:    0 ave 0 max 0 min
Histogram: 1 0 0 0 0 0 0 0 0 0
Neighs:    15404 ave 15404 max 15404 min
Histogram: 1 0 0 0 0 0 0 0 0 0

Total # of neighbors = 15404
Ave neighs/atom = 40.0104
Ave special neighs/atom = 10.3948
Neighbor list builds = 2
Dangerous builds = 0
write_dump all custom pysimm.dump.tmp id q x y z vx vy vz
quit


################################################################################
##################################    Init    ##################################
################################################################################
units           real
atom_style      full
pair_style      lj/cut/coul/long 12.0  12.0
kspace_style    pppm 1e-4
bond_style      harmonic
angle_style     harmonic
dihedral_style  fourier
improper_style  cvff
special_bonds   amber
pair_modify     mix arithmetic
read_data       temp.lmps
  orthogonal box = (-114.001 -114.001 -114.001) to (114.001 114.001 114.001)
  1 by 1 by 1 MPI processor grid
  reading atoms ...
  420 atoms
  reading velocities ...
  420 velocities
  scanning bonds ...
  3 = max bonds/atom
  scanning angles ...
  6 = max angles/atom
  scanning dihedrals ...
  10 = max dihedrals/atom
  scanning impropers ...
  1 = max impropers/atom
  reading bonds ...
  455 bonds
  reading angles ...
  741 angles
  reading dihedrals ...
  1096 dihedrals
  reading impropers ...
  144 impropers
  4 = max # of 1-2 neighbors
  7 = max # of 1-3 neighbors
  13 = max # of 1-4 neighbors
  16 = max # of special neighbors
  special bonds CPU = 0.000406981 secs
  read_data CPU = 0.0065918 secs
################################################################################

timestep        1
fix             pysimm_md all nve/limit 0.1
run             2000
PPPM initialization ...
WARNING: System is not charge neutral, net charge = 1.2e-05 (../kspace.cpp:313)
  using 12-bit tables for long-range coulomb (../kspace.cpp:332)
  G vector (1/distance) = 0.110288
  grid = 24 24 24
  stencil order = 5
  estimated absolute RMS force accuracy = 0.0280958
  estimated relative force accuracy = 8.46097e-05
  using double precision KISS FFT
  3d grid and FFT values/proc = 24389 13824
Neighbor list info ...
  update every 1 steps, delay 10 steps, check yes
  max neighbors/atom: 2000, page size: 100000
  master list distance cutoff = 14
  ghost atom cutoff = 14
  binsize = 7, bins = 33 33 33
  1 neighbor lists, perpetual/occasional/extra = 1 0 0
  (1) pair lj/cut/coul/long, perpetual
      attributes: half, newton on
      pair build: half/bin/newton
      stencil: half/bin/3d/newton
      bin: standard
Per MPI rank memory allocation (min/avg/max) = 15 | 15 | 15 Mbytes
Step Temp E_pair E_mol TotEng Press 
       0    1549.9307    489.95149    232257.35     234683.1   -937.83037 
    2000    1754.8514    557.52938     1718.978    4468.2455   -4.9853999 
Loop time of 7.5375 on 1 procs for 2000 steps with 420 atoms

Performance: 22.925 ns/day, 1.047 hours/ns, 265.340 timesteps/s
99.9% CPU use with 1 MPI tasks x no OpenMP threads

MPI task timing breakdown:
Section |  min time  |  avg time  |  max time  |%varavg| %total
---------------------------------------------------------------
Pair    | 0.80339    | 0.80339    | 0.80339    |   0.0 | 10.66
Bond    | 0.35264    | 0.35264    | 0.35264    |   0.0 |  4.68
Kspace  | 6.2517     | 6.2517     | 6.2517     |   0.0 | 82.94
Neigh   | 0.10856    | 0.10856    | 0.10856    |   0.0 |  1.44
Comm    | 0.0025561  | 0.0025561  | 0.0025561  |   0.0 |  0.03
Output  | 2.3127e-05 | 2.3127e-05 | 2.3127e-05 |   0.0 |  0.00
Modify  | 0.01461    | 0.01461    | 0.01461    |   0.0 |  0.19
Other   |            | 0.004034   |            |       |  0.05

Nlocal:    420 ave 420 max 420 min
Histogram: 1 0 0 0 0 0 0 0 0 0
Nghost:    11 ave 11 max 11 min
Histogram: 1 0 0 0 0 0 0 0 0 0
Neighs:    17285 ave 17285 max 17285 min
Histogram: 1 0 0 0 0 0 0 0 0 0

Total # of neighbors = 17285
Ave neighs/atom = 41.1548
Ave special neighs/atom = 10.4
Neighbor list builds = 168
Dangerous builds = 0
unfix pysimm_md
min_style cg
minimize 0.001 0.001 10000 100000
WARNING: Using 'neigh_modify every 1 delay 0 check yes' setting during minimization (../min.cpp:190)
PPPM initialization ...
  using 12-bit tables for long-range coulomb (../kspace.cpp:332)
  G vector (1/distance) = 0.110288
  grid = 24 24 24
  stencil order = 5
  estimated absolute RMS force accuracy = 0.0280958
  estimated relative force accuracy = 8.46097e-05
  using double precision KISS FFT
  3d grid and FFT values/proc = 24389 13824
Per MPI rank memory allocation (min/avg/max) = 16.13 | 16.13 | 16.13 Mbytes
Step Temp E_pair E_mol TotEng Press 
    2000    1754.8514    557.52938     1718.978    4468.2455   -4.9853999 
    2075    1754.8514    481.11006    332.88382    3005.7321    7.4586766 
Loop time of 0.631075 on 1 procs for 75 steps with 420 atoms

99.8% CPU use with 1 MPI tasks x no OpenMP threads

Minimization stats:
  Stopping criterion = energy tolerance
  Energy initial, next-to-last, final = 
         2276.50734172      814.662363745       813.99387791
  Force two-norm initial, final = 1160.16 45.1881
  Force max component initial, final = 173.026 5.19165
  Final line search alpha, max atom move = 0.00470404 0.0244217
  Iterations, force evaluations = 75 150

MPI task timing breakdown:
Section |  min time  |  avg time  |  max time  |%varavg| %total
---------------------------------------------------------------
Pair    | 0.098002   | 0.098002   | 0.098002   |   0.0 | 15.53
Bond    | 0.02915    | 0.02915    | 0.02915    |   0.0 |  4.62
Kspace  | 0.49934    | 0.49934    | 0.49934    |   0.0 | 79.13
Neigh   | 0.002697   | 0.002697   | 0.002697   |   0.0 |  0.43
Comm    | 0.00017571 | 0.00017571 | 0.00017571 |   0.0 |  0.03
Output  | 0          | 0          | 0          |   0.0 |  0.00
Modify  | 0          | 0          | 0          |   0.0 |  0.00
Other   |            | 0.001706   |            |       |  0.27

Nlocal:    420 ave 420 max 420 min
Histogram: 1 0 0 0 0 0 0 0 0 0
Nghost:    9 ave 9 max 9 min
Histogram: 1 0 0 0 0 0 0 0 0 0
Neighs:    17925 ave 17925 max 17925 min
Histogram: 1 0 0 0 0 0 0 0 0 0

Total # of neighbors = 17925
Ave neighs/atom = 42.6786
Ave special neighs/atom = 10.4
Neighbor list builds = 4
Dangerous builds = 0
write_dump all custom pysimm.dump.tmp id q x y z vx vy vz
quit


################################################################################
##################################    Init    ##################################
################################################################################
units           real
atom_style      full
pair_style      lj/cut/coul/long 12.0  12.0
kspace_style    pppm 1e-4
bond_style      harmonic
angle_style     harmonic
dihedral_style  fourier
improper_style  cvff
special_bonds   amber
pair_modify     mix arithmetic
read_data       temp.lmps
  orthogonal box = (-117.356 -117.356 -117.356) to (117.356 117.356 117.356)
  1 by 1 by 1 MPI processor grid
  reading atoms ...
  455 atoms
  reading velocities ...
  455 velocities
  scanning bonds ...
  3 = max bonds/atom
  scanning angles ...
  6 = max angles/atom
  scanning dihedrals ...
  10 = max dihedrals/atom
  scanning impropers ...
  1 = max impropers/atom
  reading bonds ...
  493 bonds
  reading angles ...
  803 angles
  reading dihedrals ...
  1188 dihedrals
  reading impropers ...
  156 impropers
  4 = max # of 1-2 neighbors
  7 = max # of 1-3 neighbors
  13 = max # of 1-4 neighbors
  16 = max # of special neighbors
  special bonds CPU = 0.000411034 secs
  read_data CPU = 0.00695992 secs
################################################################################

timestep        1
fix             pysimm_md all nve/limit 0.1
run             2000
PPPM initialization ...
WARNING: System is not charge neutral, net charge = 1.3e-05 (../kspace.cpp:313)
  using 12-bit tables for long-range coulomb (../kspace.cpp:332)
  G vector (1/distance) = 0.10813
  grid = 24 24 24
  stencil order = 5
  estimated absolute RMS force accuracy = 0.0299647
  estimated relative force accuracy = 9.02379e-05
  using double precision KISS FFT
  3d grid and FFT values/proc = 24389 13824
Neighbor list info ...
  update every 1 steps, delay 10 steps, check yes
  max neighbors/atom: 2000, page size: 100000
  master list distance cutoff = 14
  ghost atom cutoff = 14
  binsize = 7, bins = 34 34 34
  1 neighbor lists, perpetual/occasional/extra = 1 0 0
  (1) pair lj/cut/coul/long, perpetual
      attributes: half, newton on
      pair build: half/bin/newton
      stencil: half/bin/3d/newton
      bin: standard
Per MPI rank memory allocation (min/avg/max) = 15.02 | 15.02 | 15.02 Mbytes
Step Temp E_pair E_mol TotEng Press 
       0    1620.9313    524.82716    287852.63    290571.04   -1059.8706 
    2000    2003.7361    603.50808    1684.4904    4999.6301    3.3672196 
Loop time of 8.20331 on 1 procs for 2000 steps with 455 atoms

Performance: 21.065 ns/day, 1.139 hours/ns, 243.804 timesteps/s
99.7% CPU use with 1 MPI tasks x no OpenMP threads

MPI task timing breakdown:
Section |  min time  |  avg time  |  max time  |%varavg| %total
---------------------------------------------------------------
Pair    | 1.0552     | 1.0552     | 1.0552     |   0.0 | 12.86
Bond    | 0.39884    | 0.39884    | 0.39884    |   0.0 |  4.86
Kspace  | 6.5928     | 6.5928     | 6.5928     |   0.0 | 80.37
Neigh   | 0.1328     | 0.1328     | 0.1328     |   0.0 |  1.62
Comm    | 0.0026627  | 0.0026627  | 0.0026627  |   0.0 |  0.03
Output  | 2.5988e-05 | 2.5988e-05 | 2.5988e-05 |   0.0 |  0.00
Modify  | 0.016517   | 0.016517   | 0.016517   |   0.0 |  0.20
Other   |            | 0.004533   |            |       |  0.06

Nlocal:    455 ave 455 max 455 min
Histogram: 1 0 0 0 0 0 0 0 0 0
Nghost:    18 ave 18 max 18 min
Histogram: 1 0 0 0 0 0 0 0 0 0
Neighs:    25002 ave 25002 max 25002 min
Histogram: 1 0 0 0 0 0 0 0 0 0

Total # of neighbors = 25002
Ave neighs/atom = 54.9495
Ave special neighs/atom = 10.4044
Neighbor list builds = 169
Dangerous builds = 0
unfix pysimm_md
min_style cg
minimize 0.001 0.001 10000 100000
WARNING: Using 'neigh_modify every 1 delay 0 check yes' setting during minimization (../min.cpp:190)
PPPM initialization ...
  using 12-bit tables for long-range coulomb (../kspace.cpp:332)
  G vector (1/distance) = 0.10813
  grid = 24 24 24
  stencil order = 5
  estimated absolute RMS force accuracy = 0.0299647
  estimated relative force accuracy = 9.02379e-05
  using double precision KISS FFT
  3d grid and FFT values/proc = 24389 13824
Per MPI rank memory allocation (min/avg/max) = 16.15 | 16.15 | 16.15 Mbytes
Step Temp E_pair E_mol TotEng Press 
    2000    2003.7361    603.50808    1684.4904    4999.6301    3.3672196 
    2061    2003.7361    511.66881    404.70613    3628.0065    8.2339259 
Loop time of 0.543193 on 1 procs for 61 steps with 455 atoms

100.1% CPU use with 1 MPI tasks x no OpenMP threads

Minimization stats:
  Stopping criterion = energy tolerance
  Energy initial, next-to-last, final = 
         2287.99846981      917.061069147      916.374940482
  Force two-norm initial, final = 1254.54 58.4199
  Force max component initial, final = 189.423 6.0078
  Final line search alpha, max atom move = 0.0027756 0.0166753
  Iterations, force evaluations = 61 121

MPI task timing breakdown:
Section |  min time  |  avg time  |  max time  |%varavg| %total
---------------------------------------------------------------
Pair    | 0.1132     | 0.1132     | 0.1132     |   0.0 | 20.84
Bond    | 0.025619   | 0.025619   | 0.025619   |   0.0 |  4.72
Kspace  | 0.40017    | 0.40017    | 0.40017    |   0.0 | 73.67
Neigh   | 0.0025218  | 0.0025218  | 0.0025218  |   0.0 |  0.46
Comm    | 0.00012255 | 0.00012255 | 0.00012255 |   0.0 |  0.02
Output  | 0          | 0          | 0          |   0.0 |  0.00
Modify  | 0          | 0          | 0          |   0.0 |  0.00
Other   |            | 0.00156    |            |       |  0.29

Nlocal:    455 ave 455 max 455 min
Histogram: 1 0 0 0 0 0 0 0 0 0
Nghost:    18 ave 18 max 18 min
Histogram: 1 0 0 0 0 0 0 0 0 0
Neighs:    25031 ave 25031 max 25031 min
Histogram: 1 0 0 0 0 0 0 0 0 0

Total # of neighbors = 25031
Ave neighs/atom = 55.0132
Ave special neighs/atom = 10.4044
Neighbor list builds = 3
Dangerous builds = 0
write_dump all custom pysimm.dump.tmp id q x y z vx vy vz
quit


################################################################################
##################################    Init    ##################################
################################################################################
units           real
atom_style      full
pair_style      lj/cut/coul/long 12.0  12.0
kspace_style    pppm 1e-4
bond_style      harmonic
angle_style     harmonic
dihedral_style  fourier
improper_style  cvff
special_bonds   amber
pair_modify     mix arithmetic
read_data       temp.lmps
  orthogonal box = (-120.53 -120.53 -120.53) to (120.53 120.53 120.53)
  1 by 1 by 1 MPI processor grid
  reading atoms ...
  490 atoms
  reading velocities ...
  490 velocities
  scanning bonds ...
  3 = max bonds/atom
  scanning angles ...
  6 = max angles/atom
  scanning dihedrals ...
  10 = max dihedrals/atom
  scanning impropers ...
  1 = max impropers/atom
  reading bonds ...
  531 bonds
  reading angles ...
  865 angles
  reading dihedrals ...
  1280 dihedrals
  reading impropers ...
  168 impropers
  4 = max # of 1-2 neighbors
  7 = max # of 1-3 neighbors
  13 = max # of 1-4 neighbors
  16 = max # of special neighbors
  special bonds CPU = 0.000473022 secs
  read_data CPU = 0.00693607 secs
################################################################################

timestep        1
fix             pysimm_md all nve/limit 0.1
run             2000
PPPM initialization ...
WARNING: System is not charge neutral, net charge = 1.4e-05 (../kspace.cpp:313)
  using 12-bit tables for long-range coulomb (../kspace.cpp:332)
  G vector (1/distance) = 0.106164
  grid = 24 24 24
  stencil order = 5
  estimated absolute RMS force accuracy = 0.0317508
  estimated relative force accuracy = 9.56166e-05
  using double precision KISS FFT
  3d grid and FFT values/proc = 24389 13824
Neighbor list info ...
  update every 1 steps, delay 10 steps, check yes
  max neighbors/atom: 2000, page size: 100000
  master list distance cutoff = 14
  ghost atom cutoff = 14
  binsize = 7, bins = 35 35 35
  1 neighbor lists, perpetual/occasional/extra = 1 0 0
  (1) pair lj/cut/coul/long, perpetual
      attributes: half, newton on
      pair build: half/bin/newton
      stencil: half/bin/3d/newton
      bin: standard
Per MPI rank memory allocation (min/avg/max) = 15.05 | 15.05 | 15.05 Mbytes
Step Temp E_pair E_mol TotEng Press 
       0    1861.5869    555.12412    239430.85    242699.45   -814.71516 
    2000    1727.6553    611.70089    1695.3729    4825.3319    1.5754088 
Loop time of 8.36084 on 1 procs for 2000 steps with 490 atoms

Performance: 20.668 ns/day, 1.161 hours/ns, 239.211 timesteps/s
99.7% CPU use with 1 MPI tasks x no OpenMP threads

MPI task timing breakdown:
Section |  min time  |  avg time  |  max time  |%varavg| %total
---------------------------------------------------------------
Pair    | 1.0647     | 1.0647     | 1.0647     |   0.0 | 12.73
Bond    | 0.4114     | 0.4114     | 0.4114     |   0.0 |  4.92
Kspace  | 6.7276     | 6.7276     | 6.7276     |   0.0 | 80.47
Neigh   | 0.13394    | 0.13394    | 0.13394    |   0.0 |  1.60
Comm    | 0.0022614  | 0.0022614  | 0.0022614  |   0.0 |  0.03
Output  | 2.5034e-05 | 2.5034e-05 | 2.5034e-05 |   0.0 |  0.00
Modify  | 0.016554   | 0.016554   | 0.016554   |   0.0 |  0.20
Other   |            | 0.004375   |            |       |  0.05

Nlocal:    490 ave 490 max 490 min
Histogram: 1 0 0 0 0 0 0 0 0 0
Nghost:    0 ave 0 max 0 min
Histogram: 1 0 0 0 0 0 0 0 0 0
Neighs:    27170 ave 27170 max 27170 min
Histogram: 1 0 0 0 0 0 0 0 0 0

Total # of neighbors = 27170
Ave neighs/atom = 55.449
Ave special neighs/atom = 10.4082
Neighbor list builds = 166
Dangerous builds = 0
unfix pysimm_md
min_style cg
minimize 0.001 0.001 10000 100000
WARNING: Using 'neigh_modify every 1 delay 0 check yes' setting during minimization (../min.cpp:190)
PPPM initialization ...
  using 12-bit tables for long-range coulomb (../kspace.cpp:332)
  G vector (1/distance) = 0.106164
  grid = 24 24 24
  stencil order = 5
  estimated absolute RMS force accuracy = 0.0317508
  estimated relative force accuracy = 9.56166e-05
  using double precision KISS FFT
  3d grid and FFT values/proc = 24389 13824
Per MPI rank memory allocation (min/avg/max) = 16.17 | 16.17 | 16.17 Mbytes
Step Temp E_pair E_mol TotEng Press 
    2000    1727.6553    611.70089    1695.3729    4825.3319    1.5754088 
    2038    1727.6553    549.67661    448.99546    3516.9302    8.1969232 
Loop time of 0.342202 on 1 procs for 38 steps with 490 atoms

99.9% CPU use with 1 MPI tasks x no OpenMP threads

Minimization stats:
  Stopping criterion = energy tolerance
  Energy initial, next-to-last, final = 
         2307.07379657      998.876692273       998.67206745
  Force two-norm initial, final = 1292.24 64.3322
  Force max component initial, final = 159.78 7.99188
  Final line search alpha, max atom move = 0.00279102 0.0223055
  Iterations, force evaluations = 38 76

MPI task timing breakdown:
Section |  min time  |  avg time  |  max time  |%varavg| %total
---------------------------------------------------------------
Pair    | 0.075305   | 0.075305   | 0.075305   |   0.0 | 22.01
Bond    | 0.017397   | 0.017397   | 0.017397   |   0.0 |  5.08
Kspace  | 0.24755    | 0.24755    | 0.24755    |   0.0 | 72.34
Neigh   | 0.00089502 | 0.00089502 | 0.00089502 |   0.0 |  0.26
Comm    | 4.0293e-05 | 4.0293e-05 | 4.0293e-05 |   0.0 |  0.01
Output  | 0          | 0          | 0          |   0.0 |  0.00
Modify  | 0          | 0          | 0          |   0.0 |  0.00
Other   |            | 0.001011   |            |       |  0.30

Nlocal:    490 ave 490 max 490 min
Histogram: 1 0 0 0 0 0 0 0 0 0
Nghost:    0 ave 0 max 0 min
Histogram: 1 0 0 0 0 0 0 0 0 0
Neighs:    27264 ave 27264 max 27264 min
Histogram: 1 0 0 0 0 0 0 0 0 0

Total # of neighbors = 27264
Ave neighs/atom = 55.6408
Ave special neighs/atom = 10.4082
Neighbor list builds = 1
Dangerous builds = 0
write_dump all custom pysimm.dump.tmp id q x y z vx vy vz
quit


################################################################################
##################################    Init    ##################################
################################################################################
units           real
atom_style      full
pair_style      lj/cut/coul/long 12.0  12.0
kspace_style    pppm 1e-4
bond_style      harmonic
angle_style     harmonic
dihedral_style  fourier
improper_style  cvff
special_bonds   amber
pair_modify     mix arithmetic
read_data       temp.lmps
  orthogonal box = (-123.544 -123.544 -123.544) to (123.544 123.544 123.544)
  1 by 1 by 1 MPI processor grid
  reading atoms ...
  525 atoms
  reading velocities ...
  525 velocities
  scanning bonds ...
  3 = max bonds/atom
  scanning angles ...
  6 = max angles/atom
  scanning dihedrals ...
  10 = max dihedrals/atom
  scanning impropers ...
  1 = max impropers/atom
  reading bonds ...
  569 bonds
  reading angles ...
  927 angles
  reading dihedrals ...
  1372 dihedrals
  reading impropers ...
  180 impropers
  4 = max # of 1-2 neighbors
  7 = max # of 1-3 neighbors
  13 = max # of 1-4 neighbors
  16 = max # of special neighbors
  special bonds CPU = 0.000529051 secs
  read_data CPU = 0.00803018 secs
################################################################################

timestep        1
fix             pysimm_md all nve/limit 0.1
run             2000
PPPM initialization ...
WARNING: System is not charge neutral, net charge = 1.5e-05 (../kspace.cpp:313)
  using 12-bit tables for long-range coulomb (../kspace.cpp:332)
  G vector (1/distance) = 0.104354
  grid = 24 24 24
  stencil order = 5
  estimated absolute RMS force accuracy = 0.0334534
  estimated relative force accuracy = 0.000100744
  using double precision KISS FFT
  3d grid and FFT values/proc = 24389 13824
Neighbor list info ...
  update every 1 steps, delay 10 steps, check yes
  max neighbors/atom: 2000, page size: 100000
  master list distance cutoff = 14
  ghost atom cutoff = 14
  binsize = 7, bins = 36 36 36
  1 neighbor lists, perpetual/occasional/extra = 1 0 0
  (1) pair lj/cut/coul/long, perpetual
      attributes: half, newton on
      pair build: half/bin/newton
      stencil: half/bin/3d/newton
      bin: standard
Per MPI rank memory allocation (min/avg/max) = 15.07 | 15.07 | 15.07 Mbytes
Step Temp E_pair E_mol TotEng Press 
       0    1613.4416    592.24566    107259.57    110371.92   -342.24255 
    2000    1230.2899    619.50834    1590.5593    4131.7121   -2.0899329 
Loop time of 8.75807 on 1 procs for 2000 steps with 525 atoms

[...]
  using double precision KISS FFT
  3d grid and FFT values/proc = 68921 46656
Per MPI rank memory allocation (min/avg/max) = 21.66 | 21.66 | 21.66 Mbytes
Step Temp E_pair E_mol TotEng Press 
    2000    374.14773    1588.2084    2347.5096    5769.2109   0.16931136 
    2033    374.14773    1502.9619    1223.2262     4559.681    1.6768011 
Loop time of 1.1766 on 1 procs for 33 steps with 1645 atoms

100.0% CPU use with 1 MPI tasks x no OpenMP threads

Minimization stats:
  Stopping criterion = energy tolerance
  Energy initial, next-to-last, final = 
         3935.71799688      2728.18138232      2726.18813965
  Force two-norm initial, final = 1176.66 67.0839
  Force max component initial, final = 155.894 6.97072
  Final line search alpha, max atom move = 0.00256605 0.0178872
  Iterations, force evaluations = 33 65

MPI task timing breakdown:
Section |  min time  |  avg time  |  max time  |%varavg| %total
---------------------------------------------------------------
Pair    | 0.40138    | 0.40138    | 0.40138    |   0.0 | 34.11
Bond    | 0.050411   | 0.050411   | 0.050411   |   0.0 |  4.28
Kspace  | 0.71711    | 0.71711    | 0.71711    |   0.0 | 60.95
Neigh   | 0.0048571  | 0.0048571  | 0.0048571  |   0.0 |  0.41
Comm    | 6.5327e-05 | 6.5327e-05 | 6.5327e-05 |   0.0 |  0.01
Output  | 0          | 0          | 0          |   0.0 |  0.00
Modify  | 0          | 0          | 0          |   0.0 |  0.00
Other   |            | 0.002771   |            |       |  0.24

Nlocal:    1645 ave 1645 max 1645 min
Histogram: 1 0 0 0 0 0 0 0 0 0
Nghost:    0 ave 0 max 0 min
Histogram: 1 0 0 0 0 0 0 0 0 0
Neighs:    165568 ave 165568 max 165568 min
Histogram: 1 0 0 0 0 0 0 0 0 0

Total # of neighbors = 165568
Ave neighs/atom = 100.649
Ave special neighs/atom = 10.4426
Neighbor list builds = 1
Dangerous builds = 0
write_dump all custom pysimm.dump.tmp id q x y z vx vy vz
quit


################################################################################
##################################    Init    ##################################
################################################################################
units           real
atom_style      full
pair_style      lj/cut/coul/long 12.0  12.0
kspace_style    pppm 1e-4
bond_style      harmonic
angle_style     harmonic
dihedral_style  fourier
improper_style  cvff
special_bonds   amber
pair_modify     mix arithmetic
read_data       temp.lmps
  orthogonal box = (-184.989 -184.989 -184.989) to (184.989 184.989 184.989)
  1 by 1 by 1 MPI processor grid
  reading atoms ...
  1680 atoms
  reading velocities ...
  1680 velocities
  scanning bonds ...
  3 = max bonds/atom
  scanning angles ...
  6 = max angles/atom
  scanning dihedrals ...
  10 = max dihedrals/atom
  scanning impropers ...
  1 = max impropers/atom
  reading bonds ...
  1823 bonds
  reading angles ...
  2973 angles
  reading dihedrals ...
  4408 dihedrals
  reading impropers ...
  576 impropers
  4 = max # of 1-2 neighbors
  7 = max # of 1-3 neighbors
  13 = max # of 1-4 neighbors
  16 = max # of special neighbors
  special bonds CPU = 0.00121903 secs
  read_data CPU = 0.017386 secs
################################################################################

timestep        1
fix             pysimm_md all nve/limit 0.1
run             2000
PPPM initialization ...
WARNING: System is not charge neutral, net charge = 4.8e-05 (../kspace.cpp:313)
  using 12-bit tables for long-range coulomb (../kspace.cpp:332)
  G vector (1/distance) = 0.104484
  grid = 36 36 36
  stencil order = 5
  estimated absolute RMS force accuracy = 0.0325359
  estimated relative force accuracy = 9.7981e-05
  using double precision KISS FFT
  3d grid and FFT values/proc = 68921 46656
Neighbor list info ...
  update every 1 steps, delay 10 steps, check yes
  max neighbors/atom: 2000, page size: 100000
  master list distance cutoff = 14
  ghost atom cutoff = 14
  binsize = 7, bins = 53 53 53
  1 neighbor lists, perpetual/occasional/extra = 1 0 0
  (1) pair lj/cut/coul/long, perpetual
      attributes: half, newton on
      pair build: half/bin/newton
      stencil: half/bin/3d/newton
      bin: standard
Per MPI rank memory allocation (min/avg/max) = 20.54 | 20.54 | 20.54 Mbytes
Step Temp E_pair E_mol TotEng Press 
       0    366.71759    1787.5515    153806.15    157429.04   -143.99226 
    2000    497.20279    2201.1847     3889.673    8579.2483   0.43184867 
Loop time of 31.4879 on 1 procs for 2000 steps with 1680 atoms

Performance: 5.488 ns/day, 4.373 hours/ns, 63.517 timesteps/s
100.0% CPU use with 1 MPI tasks x no OpenMP threads

MPI task timing breakdown:
Section |  min time  |  avg time  |  max time  |%varavg| %total
---------------------------------------------------------------
Pair    | 7.6528     | 7.6528     | 7.6528     |   0.0 | 24.30
Bond    | 1.4143     | 1.4143     | 1.4143     |   0.0 |  4.49
Kspace  | 21.543     | 21.543     | 21.543     |   0.0 | 68.42
Neigh   | 0.80573    | 0.80573    | 0.80573    |   0.0 |  2.56
Comm    | 0.005949   | 0.005949   | 0.005949   |   0.0 |  0.02
Output  | 3.0041e-05 | 3.0041e-05 | 3.0041e-05 |   0.0 |  0.00
Modify  | 0.055742   | 0.055742   | 0.055742   |   0.0 |  0.18
Other   |            | 0.01064    |            |       |  0.03

Nlocal:    1680 ave 1680 max 1680 min
Histogram: 1 0 0 0 0 0 0 0 0 0
Nghost:    0 ave 0 max 0 min
Histogram: 1 0 0 0 0 0 0 0 0 0
Neighs:    179769 ave 179769 max 179769 min
Histogram: 1 0 0 0 0 0 0 0 0 0

Total # of neighbors = 179769
Ave neighs/atom = 107.005
Ave special neighs/atom = 10.4429
Neighbor list builds = 160
Dangerous builds = 0
unfix pysimm_md
min_style cg
minimize 0.001 0.001 10000 100000
WARNING: Using 'neigh_modify every 1 delay 0 check yes' setting during minimization (../min.cpp:190)
PPPM initialization ...
  using 12-bit tables for long-range coulomb (../kspace.cpp:332)
  G vector (1/distance) = 0.104484
  grid = 36 36 36
  stencil order = 5
  estimated absolute RMS force accuracy = 0.0325359
  estimated relative force accuracy = 9.7981e-05
  using double precision KISS FFT
  3d grid and FFT values/proc = 68921 46656
Per MPI rank memory allocation (min/avg/max) = 21.67 | 21.67 | 21.67 Mbytes
Step Temp E_pair E_mol TotEng Press 
    2000    497.20279    2201.1847     3889.673    8579.2483   0.43184867 
    2029    497.20279    2089.5849    2482.2921    7060.2676    1.8846799 
Loop time of 1.03305 on 1 procs for 29 steps with 1680 atoms

100.1% CPU use with 1 MPI tasks x no OpenMP threads

Minimization stats:
  Stopping criterion = energy tolerance
  Energy initial, next-to-last, final = 
         6090.85769365      4574.32214867      4571.87696441
  Force two-norm initial, final = 1493.5 99.8279
  Force max component initial, final = 194.253 45.1476
  Final line search alpha, max atom move = 0.0027344 0.123452
  Iterations, force evaluations = 29 58

MPI task timing breakdown:
Section |  min time  |  avg time  |  max time  |%varavg| %total
---------------------------------------------------------------
Pair    | 0.35083    | 0.35083    | 0.35083    |   0.0 | 33.96
Bond    | 0.044964   | 0.044964   | 0.044964   |   0.0 |  4.35
Kspace  | 0.63495    | 0.63495    | 0.63495    |   0.0 | 61.46
Neigh   | 0          | 0          | 0          |   0.0 |  0.00
Comm    | 3.7193e-05 | 3.7193e-05 | 3.7193e-05 |   0.0 |  0.00
Output  | 0          | 0          | 0          |   0.0 |  0.00
Modify  | 0          | 0          | 0          |   0.0 |  0.00
Other   |            | 0.002273   |            |       |  0.22

Nlocal:    1680 ave 1680 max 1680 min
Histogram: 1 0 0 0 0 0 0 0 0 0
Nghost:    0 ave 0 max 0 min
Histogram: 1 0 0 0 0 0 0 0 0 0
Neighs:    179783 ave 179783 max 179783 min
Histogram: 1 0 0 0 0 0 0 0 0 0

Total # of neighbors = 179783
Ave neighs/atom = 107.014
Ave special neighs/atom = 10.4429
Neighbor list builds = 0
Dangerous builds = 0
write_dump all custom pysimm.dump.tmp id q x y z vx vy vz
quit


################################################################################
##################################    Init    ##################################
################################################################################
units           real
atom_style      full
pair_style      lj/cut/coul/long 12.0  12.0
kspace_style    pppm 1e-4
bond_style      harmonic
angle_style     harmonic
dihedral_style  fourier
improper_style  cvff
special_bonds   amber
pair_modify     mix arithmetic
read_data       temp.lmps
  orthogonal box = (-186.292 -186.292 -186.292) to (186.292 186.292 186.292)
  1 by 1 by 1 MPI processor grid
  reading atoms ...
  1715 atoms
  reading velocities ...
  1715 velocities
  scanning bonds ...
  3 = max bonds/atom
  scanning angles ...
  6 = max angles/atom
  scanning dihedrals ...
  10 = max dihedrals/atom
  scanning impropers ...
  1 = max impropers/atom
  reading bonds ...
  1861 bonds
  reading angles ...
  3035 angles
  reading dihedrals ...
  4500 dihedrals
  reading impropers ...
  588 impropers
  4 = max # of 1-2 neighbors
  7 = max # of 1-3 neighbors
  13 = max # of 1-4 neighbors
  16 = max # of special neighbors
  special bonds CPU = 0.00131488 secs
  read_data CPU = 0.0173881 secs
################################################################################

timestep        1
fix             pysimm_md all nve/limit 0.1
run             2000
PPPM initialization ...
WARNING: System is not charge neutral, net charge = 4.9e-05 (../kspace.cpp:313)
  using 12-bit tables for long-range coulomb (../kspace.cpp:332)
  G vector (1/distance) = 0.103972
  grid = 36 36 36
  stencil order = 5
  estimated absolute RMS force accuracy = 0.0330318
  estimated relative force accuracy = 9.94741e-05
  using double precision KISS FFT
  3d grid and FFT values/proc = 68921 46656
Neighbor list info ...
  update every 1 steps, delay 10 steps, check yes
  max neighbors/atom: 2000, page size: 100000
  master list distance cutoff = 14
  ghost atom cutoff = 14
  binsize = 7, bins = 54 54 54
  1 neighbor lists, perpetual/occasional/extra = 1 0 0
  (1) pair lj/cut/coul/long, perpetual
      attributes: half, newton on
      pair build: half/bin/newton
      stencil: half/bin/3d/newton
      bin: standard
Per MPI rank memory allocation (min/avg/max) = 20.58 | 20.58 | 20.58 Mbytes
Step Temp E_pair E_mol TotEng Press 
       0    487.41155    2130.8259    154921.72    159542.78   -142.02983 
    2000    506.77599     2197.738     4111.481    8898.3925  0.047402453 
Loop time of 32.2837 on 1 procs for 2000 steps with 1715 atoms

Performance: 5.353 ns/day, 4.484 hours/ns, 61.951 timesteps/s
100.0% CPU use with 1 MPI tasks x no OpenMP threads

MPI task timing breakdown:
Section |  min time  |  avg time  |  max time  |%varavg| %total
---------------------------------------------------------------
Pair    | 8.2555     | 8.2555     | 8.2555     |   0.0 | 25.57
Bond    | 1.4603     | 1.4603     | 1.4603     |   0.0 |  4.52
Kspace  | 21.679     | 21.679     | 21.679     |   0.0 | 67.15
Neigh   | 0.81551    | 0.81551    | 0.81551    |   0.0 |  2.53
Comm    | 0.0059125  | 0.0059125  | 0.0059125  |   0.0 |  0.02
Output  | 3.0041e-05 | 3.0041e-05 | 3.0041e-05 |   0.0 |  0.00
Modify  | 0.056874   | 0.056874   | 0.056874   |   0.0 |  0.18
Other   |            | 0.01054    |            |       |  0.03

Nlocal:    1715 ave 1715 max 1715 min
Histogram: 1 0 0 0 0 0 0 0 0 0
Nghost:    0 ave 0 max 0 min
Histogram: 1 0 0 0 0 0 0 0 0 0
Neighs:    172763 ave 172763 max 172763 min
Histogram: 1 0 0 0 0 0 0 0 0 0

Total # of neighbors = 172763
Ave neighs/atom = 100.736
Ave special neighs/atom = 10.4431
Neighbor list builds = 158
Dangerous builds = 0
unfix pysimm_md
min_style cg
minimize 0.001 0.001 10000 100000
WARNING: Using 'neigh_modify every 1 delay 0 check yes' setting during minimization (../min.cpp:190)
PPPM initialization ...
  using 12-bit tables for long-range coulomb (../kspace.cpp:332)
  G vector (1/distance) = 0.103972
  grid = 36 36 36
  stencil order = 5
  estimated absolute RMS force accuracy = 0.0330318
  estimated relative force accuracy = 9.94741e-05
  using double precision KISS FFT
  3d grid and FFT values/proc = 68921 46656
Per MPI rank memory allocation (min/avg/max) = 21.71 | 21.71 | 21.71 Mbytes
Step Temp E_pair E_mol TotEng Press 
    2000    506.77599     2197.738     4111.481    8898.3925  0.047402453 
    2022    506.77599    2146.0164    2642.3758    7377.5657    2.0777756 
Loop time of 0.799357 on 1 procs for 22 steps with 1715 atoms

100.1% CPU use with 1 MPI tasks x no OpenMP threads

Minimization stats:
  Stopping criterion = energy tolerance
  Energy initial, next-to-last, final = 
         6309.21903934      4792.19100488      4788.39217144
  Force two-norm initial, final = 1464.26 143.973
  Force max component initial, final = 156.253 28.8552
  Final line search alpha, max atom move = 0.0027863 0.0803992
  Iterations, force evaluations = 22 43

MPI task timing breakdown:
Section |  min time  |  avg time  |  max time  |%varavg| %total
---------------------------------------------------------------
Pair    | 0.27858    | 0.27858    | 0.27858    |   0.0 | 34.85
Bond    | 0.035437   | 0.035437   | 0.035437   |   0.0 |  4.43
Kspace  | 0.48344    | 0.48344    | 0.48344    |   0.0 | 60.48
Neigh   | 0          | 0          | 0          |   0.0 |  0.00
Comm    | 2.5749e-05 | 2.5749e-05 | 2.5749e-05 |   0.0 |  0.00
Output  | 0          | 0          | 0          |   0.0 |  0.00
Modify  | 0          | 0          | 0          |   0.0 |  0.00
Other   |            | 0.001879   |            |       |  0.24

Nlocal:    1715 ave 1715 max 1715 min
Histogram: 1 0 0 0 0 0 0 0 0 0
Nghost:    0 ave 0 max 0 min
Histogram: 1 0 0 0 0 0 0 0 0 0
Neighs:    172634 ave 172634 max 172634 min
Histogram: 1 0 0 0 0 0 0 0 0 0

Total # of neighbors = 172634
Ave neighs/atom = 100.661
Ave special neighs/atom = 10.4431
Neighbor list builds = 0
Dangerous builds = 0
write_dump all custom pysimm.dump.tmp id q x y z vx vy vz
quit


################################################################################
##################################    Init    ##################################
################################################################################
units           real
atom_style      full
pair_style      lj/cut/coul/long 12.0  12.0
kspace_style    pppm 1e-4
bond_style      harmonic
angle_style     harmonic
dihedral_style  fourier
improper_style  cvff
special_bonds   amber
pair_modify     mix arithmetic
read_data       temp.lmps
  orthogonal box = (-187.576 -187.576 -187.576) to (187.576 187.576 187.576)
  1 by 1 by 1 MPI processor grid
  reading atoms ...
  1750 atoms
  reading velocities ...
  1750 velocities
  scanning bonds ...
  3 = max bonds/atom
  scanning angles ...
  6 = max angles/atom
  scanning dihedrals ...
  10 = max dihedrals/atom
  scanning impropers ...
  1 = max impropers/atom
  reading bonds ...
  1899 bonds
  reading angles ...
  3097 angles
  reading dihedrals ...
  4592 dihedrals
  reading impropers ...
  600 impropers
  4 = max # of 1-2 neighbors
  7 = max # of 1-3 neighbors
  13 = max # of 1-4 neighbors
  16 = max # of special neighbors
  special bonds CPU = 0.00126004 secs
  read_data CPU = 0.017509 secs
################################################################################

timestep        1
fix             pysimm_md all nve/limit 0.1
run             2000
PPPM initialization ...
WARNING: System is not charge neutral, net charge = 5e-05 (../kspace.cpp:313)
  using 12-bit tables for long-range coulomb (../kspace.cpp:332)
  G vector (1/distance) = 0.103472
  grid = 36 36 36
  stencil order = 5
  estimated absolute RMS force accuracy = 0.0335213
  estimated relative force accuracy = 0.000100948
  using double precision KISS FFT
  3d grid and FFT values/proc = 68921 46656
Neighbor list info ...
  update every 1 steps, delay 10 steps, check yes
  max neighbors/atom: 2000, page size: 100000
  master list distance cutoff = 14
  ghost atom cutoff = 14
  binsize = 7, bins = 54 54 54
  1 neighbor lists, perpetual/occasional/extra = 1 0 0
  (1) pair lj/cut/coul/long, perpetual
      attributes: half, newton on
      pair build: half/bin/newton
      stencil: half/bin/3d/newton
      bin: standard
Per MPI rank memory allocation (min/avg/max) = 20.59 | 20.59 | 20.59 Mbytes
Step Temp E_pair E_mol TotEng Press 
       0    496.98924    2189.1878    280505.61    285285.82   -250.63889 
    2000    580.06619    2270.2801    4515.4325     9809.851 -0.096175817 
Loop time of 31.9735 on 1 procs for 2000 steps with 1750 atoms

Performance: 5.404 ns/day, 4.441 hours/ns, 62.552 timesteps/s
100.0% CPU use with 1 MPI tasks x no OpenMP threads

MPI task timing breakdown:
Section |  min time  |  avg time  |  max time  |%varavg| %total
---------------------------------------------------------------
Pair    | 7.8846     | 7.8846     | 7.8846     |   0.0 | 24.66
Bond    | 1.4849     | 1.4849     | 1.4849     |   0.0 |  4.64
Kspace  | 21.659     | 21.659     | 21.659     |   0.0 | 67.74
Neigh   | 0.86962    | 0.86962    | 0.86962    |   0.0 |  2.72
Comm    | 0.0064526  | 0.0064526  | 0.0064526  |   0.0 |  0.02
Output  | 3.0041e-05 | 3.0041e-05 | 3.0041e-05 |   0.0 |  0.00
Modify  | 0.057705   | 0.057705   | 0.057705   |   0.0 |  0.18
Other   |            | 0.01074    |            |       |  0.03

Nlocal:    1750 ave 1750 max 1750 min
Histogram: 1 0 0 0 0 0 0 0 0 0
Nghost:    0 ave 0 max 0 min
Histogram: 1 0 0 0 0 0 0 0 0 0
Neighs:    184974 ave 184974 max 184974 min
Histogram: 1 0 0 0 0 0 0 0 0 0

Total # of neighbors = 184974
Ave neighs/atom = 105.699
Ave special neighs/atom = 10.4434
Neighbor list builds = 168
Dangerous builds = 0
unfix pysimm_md
min_style cg
minimize 0.001 0.001 10000 100000
WARNING: Using 'neigh_modify every 1 delay 0 check yes' setting during minimization (../min.cpp:190)
PPPM initialization ...
  using 12-bit tables for long-range coulomb (../kspace.cpp:332)
  G vector (1/distance) = 0.103472
  grid = 36 36 36
  stencil order = 5
  estimated absolute RMS force accuracy = 0.0335213
  estimated relative force accuracy = 0.000100948
  using double precision KISS FFT
  3d grid and FFT values/proc = 68921 46656
Per MPI rank memory allocation (min/avg/max) = 21.71 | 21.71 | 21.71 Mbytes
Step Temp E_pair E_mol TotEng Press 
    2000    580.06619    2270.2801    4515.4325     9809.851 -0.096175817 
    2024    580.06619    2202.9782    2657.2103    7884.3269     2.617501 
Loop time of 0.830761 on 1 procs for 24 steps with 1750 atoms

100.0% CPU use with 1 MPI tasks x no OpenMP threads

Minimization stats:
  Stopping criterion = energy tolerance
  Energy initial, next-to-last, final = 
         6785.71255438      4864.87262486      4860.18847209
  Force two-norm initial, final = 1596.41 152.766
  Force max component initial, final = 191.519 37.3965
  Final line search alpha, max atom move = 0.00240563 0.0899622
  Iterations, force evaluations = 24 46

MPI task timing breakdown:
Section |  min time  |  avg time  |  max time  |%varavg| %total
---------------------------------------------------------------
Pair    | 0.28369    | 0.28369    | 0.28369    |   0.0 | 34.15
Bond    | 0.037361   | 0.037361   | 0.037361   |   0.0 |  4.50
Kspace  | 0.50772    | 0.50772    | 0.50772    |   0.0 | 61.12
Neigh   | 0          | 0          | 0          |   0.0 |  0.00
Comm    | 2.5272e-05 | 2.5272e-05 | 2.5272e-05 |   0.0 |  0.00
Output  | 0          | 0          | 0          |   0.0 |  0.00
Modify  | 0          | 0          | 0          |   0.0 |  0.00
Other   |            | 0.001962   |            |       |  0.24

Nlocal:    1750 ave 1750 max 1750 min
Histogram: 1 0 0 0 0 0 0 0 0 0
Nghost:    0 ave 0 max 0 min
Histogram: 1 0 0 0 0 0 0 0 0 0
Neighs:    184999 ave 184999 max 184999 min
Histogram: 1 0 0 0 0 0 0 0 0 0

Total # of neighbors = 184999
Ave neighs/atom = 105.714
Ave special neighs/atom = 10.4434
Neighbor list builds = 0
Dangerous builds = 0
write_dump all custom pysimm.dump.tmp id q x y z vx vy vz
quit
