pySIMM System Object

2840 atoms
3140 bonds
5547 angles
8897 dihedrals
903 impropers

8 atom types
10 bond types
17 angle types
9 dihedral types
4 improper types

-212.809629 212.809629 xlo xhi
-212.809629 212.809629 ylo yhi
-212.809629 212.809629 zlo zhi

Masses

   1	14.01	# n
   2	12.01	# c
   3	12.01	# ca
   4	1.008	# hn
   5	16.0	# o
   6	1.008	# ha
   7	12.01	# c3
   8	1.008	# hc

Pair Coeffs

   1	0.17	3.249998523775958	# n
   2	0.086	3.3996695084235347	# c
   3	0.086	3.3996695084235347	# ca
   4	0.0157	1.069078461768407	# hn
   5	0.21	2.959921901149463	# o
   6	0.015	2.59964245953351	# ha
   7	0.1094	3.3996695084235347	# c3
   8	0.0157	2.649532787749369	# hc

Bond Coeffs

   1	427.6	1.3789	# c,n
   2	461.1	1.3984	# ca,ca
   3	345.9	1.4906	# c,ca
   4	300.9	1.5375	# c3,c3
   5	345.8	1.086	# ca,ha
   6	384.2	1.4121	# ca,n
   7	637.7	1.2183	# c,o
   8	321.0	1.5156	# c3,ca
   9	330.6	1.0969	# c3,hc
  10	403.2	1.0129	# hn,n

Angle Coeffs

   1	63.82	123.71	# c,n,ca
   2	67.87	120.19	# ca,ca,n
   3	67.68	115.25	# ca,c,n
   4	63.15	112.07	# c3,c3,ca
   5	63.0	118.11	# ca,c,ca
   6	63.56	112.24	# ca,c3,ca
   7	46.34	109.8	# c3,c3,hc
   8	48.33	117.55	# c,n,hn
   9	74.22	123.05	# n,c,o
  10	64.28	120.33	# c,ca,ca
  11	39.4	107.58	# hc,c3,hc
  12	66.62	120.02	# ca,ca,ca
  13	63.53	120.77	# c3,ca,ca
  14	62.86	111.51	# c3,c3,c3
  15	63.74	127.08	# c,n,c
  16	48.18	119.88	# ca,ca,ha
  17	68.72	122.6	# ca,c,o

Dihedral Coeffs

   1	2	2.5	2	180	2.0	1	0	# hn,n,c,o
   2	1	3.625	2	180	# X,ca,ca,X
   3	1	0.16	3	0	# hc,c3,c3,c3
   4	1	1.0	2	180	# X,c,ca,X
   5	1	0.15555555555555556	3	0	# X,c3,c3,X
   6	1	0.0	2	0	# X,c3,ca,X
   7	3	0.18	3	0	0.25	2	180	0.2	1	180	# c3,c3,c3,c3
   8	1	2.5	2	180	# X,c,n,X
   9	1	0.45	2	180	# X,ca,n,X

Improper Coeffs

   1	1.1	-1	2	# ca,ca,ca,c3
   2	1.1	-1	2	# n,X,X,hn
   3	1.1	-1	2	# ca,X,X,ha
   4	10.5	-1	2	# c,X,X,o

Atoms

   1	1	1	0.464138	63.8806	37.8154	135.078
   2	1	2	0.077422	63.9542	36.4399	135.291
   3	1	3	0.04486	65.3725	36.087	135.047
   4	1	2	0.055008	65.1068	38.3742	134.717
   5	1	3	-0.004417	66.0592	37.2332	134.698
   6	1	5	-0.392499	63.0656	35.6665	135.61
   7	1	5	-0.37854	65.3671	39.5396	134.467
   8	1	3	-0.044101	66.0081	34.8463	135.15
   9	1	3	-0.056346	67.4298	37.2019	134.42
  10	1	3	-0.157726	68.0914	35.9582	134.506
  11	1	3	-0.13238	67.3918	34.7723	134.858
  12	1	6	0.167375	65.4341	33.9806	135.473
  13	1	6	0.161059	67.9621	38.1134	134.156
  14	1	6	0.140064	69.1613	35.9116	134.307
  15	1	2	0.57844	68.1441	33.4695	134.987
  16	1	3	-0.037172	67.4039	32.1607	134.865
  17	1	3	-0.116011	67.7986	31.0724	135.677
  18	1	3	-0.048223	67.1006	29.8638	135.559
  19	1	3	-0.138147	66.3466	31.9881	133.931
  20	1	3	-0.114262	65.6616	30.7594	133.825
  21	1	3	-0.063397	66.0619	29.7116	134.664
  22	1	2	0.489233	65.543	28.3231	134.79
  23	1	1	-0.081676	66.3124	27.7182	135.778
  24	1	2	0.489742	67.2767	28.581	136.288
  25	1	3	0.047265	66.137	26.3752	136.22
  26	1	3	-0.183349	65.9656	25.3302	135.295
  27	1	3	-0.091111	65.8135	24.0046	135.736
  28	1	3	-0.18836	66.1481	26.0677	137.592
  29	1	3	-0.138837	66.0026	24.7421	138.033
  30	1	3	0.044906	65.8315	23.6867	137.11
  31	1	6	0.157291	65.9493	25.5414	134.229
  32	1	6	0.112962	65.6902	23.2164	134.999
  33	1	6	0.163228	64.8492	30.6194	133.114
  34	1	6	0.134491	66.0623	32.8051	133.271
  35	1	6	0.172124	68.6198	31.1675	136.387
  36	1	5	-0.48162	68.1007	28.3658	137.159
  37	1	5	-0.478641	64.6281	27.8418	134.143
  38	1	5	-0.498568	69.3367	33.4743	135.243
  39	1	6	0.153588	66.2874	26.8573	138.327
  40	1	6	0.146442	66.0407	24.5527	139.101
  41	1	7	0.027303	65.6841	22.2167	137.553
  42	1	7	-0.256739	64.3687	21.6039	137.003
  43	1	8	0.074408	63.5044	22.2227	137.278
  44	1	8	0.075653	64.2039	20.5975	137.411
  45	1	8	0.063017	64.3874	21.5206	135.91
  46	1	7	-0.003396	66.9236	21.3791	137.099
  47	1	7	0.23166	67.9082	21.2814	138.305
  48	1	8	0.003166	67.4093	21.7919	136.206
  49	1	8	0.018046	66.5901	20.3676	136.83
  50	1	3	0.065056	66.9861	21.55	139.481
  51	1	7	-0.138879	69.0077	22.3675	138.22
  52	1	7	-0.25744	68.562	19.8795	138.382
  53	1	3	0.018858	65.7562	22.047	139.063
  54	1	8	0.063111	67.8	19.0996	138.507
  55	1	8	0.056661	69.2515	19.8135	139.233
  56	1	8	0.052049	69.1288	19.6612	137.468
  57	1	3	-0.499719	67.2593	21.3558	140.848
  58	1	3	-0.078325	64.7544	22.3537	139.998
  59	1	3	-0.430686	65.0233	22.1597	141.368
  60	1	3	0.29919	66.2691	21.6636	141.794
  61	1	6	0.134637	63.7959	22.7478	139.668
  62	1	8	0.0139	68.5717	23.3724	138.161
  63	1	8	0.03702	69.6373	22.2195	137.333
  64	1	8	0.035416	69.6553	22.3355	139.105
  65	1	6	0.223374	68.2209	20.9745	141.174
  66	1	6	0.198405	64.2656	22.3955	142.108
  67	1	1	0.464138	57.4627	56.0335	127.575
  68	1	2	0.077422	57.6244	55.8302	128.947
  69	1	3	0.04486	57.3128	54.398	129.166
  70	1	2	0.055008	57.0823	54.8703	126.901
  71	1	3	-0.004417	56.9946	53.8246	127.95
  72	1	5	-0.392499	57.9715	56.6262	129.805
  73	1	5	-0.37854	56.8527	54.714	125.712
  74	1	3	-0.044101	57.3156	53.656	130.35
  75	1	3	-0.056346	56.6538	52.472	127.846
  76	1	3	-0.157726	56.663	51.6986	129.026
  77	1	3	-0.13238	57.009	52.2792	130.277
  78	1	6	0.167375	57.5641	54.1334	131.297
  79	1	6	0.161059	56.39	52.0417	126.882
  80	1	6	0.140064	56.3885	50.6468	128.969
  81	1	2	0.57844	57.0283	51.4676	131.543
  82	1	3	-0.037172	57.5837	50.066	131.518
  83	1	3	-0.116011	57.2078	49.1596	132.537
  84	1	3	-0.048223	57.7541	47.8703	132.516
  85	1	3	-0.138147	58.5232	49.6579	130.532
  86	1	3	-0.114262	59.0591	48.3545	130.531
  87	1	3	-0.063397	58.646	47.4777	131.54
  88	1	2	0.489233	59.0438	46.0727	131.813
  89	1	1	-0.081676	58.3608	45.7018	132.967
  90	1	2	0.489742	57.5589	46.7312	133.45
  91	1	3	0.047265	58.487	44.4298	133.597
  92	1	3	-0.183349	57.3612	43.7755	134.128
  93	1	3	-0.091111	57.496	42.5413	134.783
  94	1	3	-0.18836	59.7452	43.8127	133.717
  95	1	3	-0.138837	59.8775	42.5699	134.357
  96	1	3	0.044906	58.7539	41.9179	134.91
  97	1	6	0.157291	56.3765	44.2296	134.053
  98	1	6	0.112962	56.6115	42.0684	135.2
  99	1	6	0.163228	59.7848	48.0372	129.784
 100	1	6	0.134491	58.8634	50.3589	129.773
 101	1	6	0.172124	56.5157	49.4523	133.326
 102	1	5	-0.48162	56.8418	46.7344	134.435
 103	1	5	-0.478641	59.8143	45.4101	131.139
 104	1	5	-0.498568	56.6414	51.9639	132.588
 105	1	6	0.153588	60.6325	44.2937	133.313
 106	1	6	0.146442	60.8676	42.1298	134.416
 107	1	7	0.027303	58.8594	40.5739	135.657
 108	1	7	-0.256739	58.4071	40.7437	137.131
 109	1	8	0.074408	57.3427	41.0005	137.197
 110	1	8	0.075653	58.9746	41.5429	137.625
 111	1	8	0.063017	58.564	39.8183	137.701
 112	1	7	-0.003396	58.0145	39.4698	134.941
 113	1	7	0.23166	58.9745	38.6448	134.033
 114	1	8	0.003166	57.1667	39.8765	134.375
 115	1	8	0.018046	57.5861	38.8024	135.701
 116	1	3	0.065056	60.316	38.8983	134.697
 117	1	7	-0.138879	58.9819	39.1918	132.585
 118	1	7	-0.25744	58.5878	37.1454	134.025
 119	1	3	0.018858	60.2513	39.9603	135.59
 120	1	8	0.063111	59.2636	36.5671	133.383
 121	1	8	0.056661	57.5656	37.0079	133.651
 122	1	8	0.052049	58.641	36.7223	135.036
 123	1	3	-0.499719	61.5134	38.1883	134.503
 124	1	3	-0.078325	61.3877	40.3507	136.316
 125	1	3	-0.430686	62.594	39.651	136.119
 126	1	3	0.29919	62.6705	38.5586	135.223
 127	1	6	0.134637	61.3365	41.1862	137.011
 128	1	8	0.0139	59.2507	40.2551	132.562
 129	1	8	0.03702	57.9942	39.0829	132.119
 130	1	8	0.035416	59.7095	38.6499	131.967
 131	1	6	0.223374	61.5379	37.3418	133.822
 132	1	6	0.198405	63.4805	39.9576	136.67
 133	1	1	0.464138	47.563	67.5477	112.99
 134	1	2	0.077422	48.7762	66.975	112.597
 135	1	3	0.04486	49.3205	66.3337	113.82
 136	1	2	0.055008	47.2767	67.3156	114.338
 137	1	3	-0.004417	48.4315	66.5413	114.855
 138	1	5	-0.392499	49.3258	67.0157	111.508
 139	1	5	-0.37854	46.3055	67.6671	114.989
 140	1	3	-0.044101	50.5286	65.6546	114.016
 141	1	3	-0.056346	48.7046	66.0984	116.152
 142	1	3	-0.157726	49.92	65.4199	116.376
 143	1	3	-0.13238	50.8323	65.1718	115.312
 144	1	6	0.167375	51.2192	65.5229	113.184
 145	1	6	0.161059	48.0061	66.3	116.962
 146	1	6	0.140064	50.1574	65.1184	117.393
 147	1	2	0.57844	52.1588	64.4824	115.535
 148	1	3	-0.037172	52.3936	63.6838	116.791
 149	1	3	-0.116011	53.6446	63.7865	117.441
 150	1	3	-0.048223	53.8319	63.0842	118.638
 151	1	3	-0.138147	51.3941	62.827	117.326
 152	1	3	-0.114262	51.6061	62.1274	118.532
 153	1	3	-0.063397	52.839	62.2917	119.176
 154	1	2	0.489233	53.3351	61.7389	120.464
 155	1	1	-0.081676	54.6205	62.2473	120.627
 156	1	2	0.489742	54.9985	63.0527	119.557
 157	1	3	0.047265	55.4483	61.9915	121.76
 158	1	3	-0.183349	56.2245	63.0187	122.328
 159	1	3	-0.091111	57.0686	62.7596	123.419
 160	1	3	-0.18836	55.5129	60.7073	122.331
 161	1	3	-0.138837	56.3462	60.4513	123.433
 162	1	3	0.044906	57.1524	61.4719	123.985
 163	1	6	0.157291	56.1935	64.0231	121.914
 164	1	6	0.112962	57.6683	63.5697	123.823
 165	1	6	0.163228	50.8385	61.4853	118.961
 166	1	6	0.134491	50.4452	62.709	116.807
 167	1	6	0.172124	54.4375	64.418	117.042
 168	1	5	-0.48162	56.0496	63.6471	119.389
 169	1	5	-0.478641	52.6996	61.0257	121.222
 170	1	5	-0.498568	53.0672	64.6368	114.735
 171	1	6	0.153588	54.9156	59.896	121.921
 172	1	6	0.146442	56.3548	59.4459	123.842
 173	1	7	0.027303	58.1185	61.2252	125.161
 174	1	7	-0.256739	59.5733	61.5805	124.753
 175	1	8	0.074408	59.8647	61.0469	123.84
 176	1	8	0.075653	60.2821	61.3047	125.545
 177	1	8	0.063017	59.6873	62.655	124.564
 178	1	7	-0.003396	57.6805	62.0402	126.421
 179	1	7	0.23166	56.8918	61.0838	127.367
 180	1	8	0.003166	57.0969	62.9341	126.166
 181	1	8	0.018046	58.5777	62.3978	126.944
 182	1	3	0.065056	57.3557	59.7198	126.889
 183	1	7	-0.138879	55.3644	61.2321	127.167
 184	1	7	-0.25744	57.2571	61.3384	128.85
 185	1	3	0.018858	58.0492	59.8015	125.69
 186	1	8	0.063111	56.7069	60.6599	129.514
 187	1	8	0.056661	57.015	62.3679	129.142
 188	1	8	0.052049	58.3292	61.1773	129.022
 189	1	3	-0.499719	57.1457	58.482	127.518
 190	1	3	-0.078325	58.5761	58.647	125.091
 191	1	3	-0.430686	58.3752	57.4037	125.721
 192	1	3	0.29919	57.659	57.3003	126.939
 193	1	6	0.134637	59.1122	58.7124	124.147
 194	1	8	0.0139	54.8181	60.5099	127.787
 195	1	8	0.03702	55.0829	61.0572	126.121
 196	1	8	0.035416	55.0289	62.239	127.445
 197	1	6	0.223374	56.6045	58.4425	128.461
 198	1	6	0.198405	58.7674	56.505	125.25
 199	1	1	0.464138	29.3713	64.9072	102.937
 200	1	2	0.077422	29.9268	64.3364	104.083
 201	1	3	0.04486	31.0691	65.2118	104.44
 202	1	2	0.055008	30.0374	66.0701	102.541
 203	1	3	-0.004417	31.1372	66.243	103.525
 204	1	5	-0.392499	29.5785	63.3332	104.685
 205	1	5	-0.37854	29.8134	66.7901	101.581
 206	1	3	-0.044101	32.0035	65.0815	105.471
 207	1	3	-0.056346	32.1509	67.2051	103.587
 208	1	3	-0.157726	33.1083	67.0936	104.619
 209	1	3	-0.13238	33.0387	66.0406	105.574
 210	1	6	0.167375	31.9361	64.2411	106.161
 211	1	6	0.161059	32.2056	67.9952	102.841
 212	1	6	0.140064	33.9258	67.8104	104.646
 213	1	2	0.57844	34.0875	65.8456	106.643
 214	1	3	-0.037172	34.9845	66.9822	107.061
 215	1	3	-0.116011	36.3369	66.7016	107.363
 216	1	3	-0.048223	37.1645	67.7566	107.765
 217	1	3	-0.138147	34.4942	68.3077	107.208
 218	1	3	-0.114262	35.3446	69.3542	107.624
 219	1	3	-0.063397	36.6844	69.0435	107.893
 220	1	2	0.489233	37.8106	69.9135	108.326
 221	1	1	-0.081676	38.9238	69.0821	108.414
 222	1	2	0.489742	38.6118	67.7633	108.102
 223	1	3	0.047265	40.239	69.5313	108.733
 224	1	3	-0.183349	41.0687	68.7871	109.593
 225	1	3	-0.091111	42.3784	69.2131	109.874
 226	1	3	-0.18836	40.7418	70.7199	108.175
 227	1	3	-0.138837	42.0455	71.1519	108.467
 228	1	3	0.044906	42.8921	70.3998	109.307
 229	1	6	0.157291	40.7067	67.8635	110.037
 230	1	6	0.112962	42.9833	68.6067	110.542
 231	1	6	0.163228	34.9782	70.3729	107.74
 232	1	6	0.134491	33.4454	68.5243	107.016
 233	1	6	0.172124	36.735	65.6907	107.28
 234	1	5	-0.48162	39.3565	66.7992	108.06
 235	1	5	-0.478641	37.7442	71.1137	108.529
 236	1	5	-0.498568	34.2479	64.741	107.136
 237	1	6	0.153588	40.1216	71.3188	107.513
 238	1	6	0.146442	42.3964	72.0827	108.032
 239	1	7	0.027303	44.3211	70.9031	109.594
 240	1	7	-0.256739	45.063	71.2776	108.281
 241	1	8	0.074408	46.1189	71.5038	108.48
 242	1	8	0.075653	44.6246	72.1605	107.801
 243	1	8	0.063017	45.0287	70.4493	107.562
 244	1	7	-0.003396	44.2816	72.1217	110.572
 245	1	7	0.23166	44.6531	71.6144	111.999
 246	1	8	0.003166	43.3101	72.6331	110.56
 247	1	8	0.018046	45.0245	72.8644	110.251
 248	1	3	0.065056	45.3597	70.3048	111.695
 249	1	7	-0.138879	43.385	71.3541	112.848
 250	1	7	-0.25744	45.5726	72.6242	112.73
 251	1	3	0.018858	45.16	69.9077	110.381
 252	1	8	0.063111	45.0755	73.5965	112.838
 253	1	8	0.056661	46.5063	72.7772	112.174
 254	1	8	0.052049	45.8335	72.2654	113.733
 255	1	3	-0.499719	46.1401	69.5317	112.572
 256	1	3	-0.078325	45.7247	68.7156	109.904
 257	1	3	-0.430686	46.5018	67.9333	110.78
 258	1	3	0.29919	46.7325	68.3295	112.12
 259	1	6	0.134637	45.5697	68.4075	108.873
 260	1	8	0.0139	43.6499	70.9345	113.827
 261	1	8	0.03702	42.7131	70.6443	112.351
 262	1	8	0.035416	42.8285	72.2844	113.018
 263	1	6	0.223374	46.2802	69.862	113.599
 264	1	6	0.198405	46.9555	67.019	110.403
 265	1	1	0.464138	23.9854	66.067	84.4185
 266	1	2	0.077422	24.2821	66.115	85.7846
 267	1	3	0.04486	25.0999	64.908	86.0506
 268	1	2	0.055008	24.579	64.9704	83.7856
 269	1	3	-0.004417	25.2832	64.2295	84.8629
 270	1	5	-0.392499	23.9258	66.9275	86.6234
 271	1	5	-0.37854	24.4899	64.6194	82.6205
 272	1	3	-0.044101	25.5899	64.4156	87.2644
 273	1	3	-0.056346	25.9925	63.0246	84.8142
 274	1	3	-0.157726	26.4955	62.5068	86.0265
 275	1	3	-0.13238	26.2743	63.1765	87.2589
 276	1	6	0.167375	25.4231	64.9792	88.1803
 277	1	6	0.161059	26.1289	62.5008	83.8703
 278	1	6	0.140064	27.042	61.5646	86.0175
 279	1	2	0.57844	26.7833	62.5692	88.5419
 280	1	3	-0.037172	25.9804	62.7231	89.8129
 281	1	3	-0.116011	26.6414	62.6288	91.0607
 282	1	3	-0.048223	25.8808	62.745	92.2321
 283	1	3	-0.138147	24.5687	62.8982	89.7857
 284	1	3	-0.114262	23.8238	63.014	90.9773
 285	1	3	-0.063397	24.5147	62.9352	92.1916
 286	1	2	0.489233	24.0103	62.981	93.5894
 287	1	1	-0.081676	25.1257	62.8052	94.3994
 288	1	2	0.489742	26.2936	62.6661	93.6583
 289	1	3	0.047265	25.0746	62.7404	95.8202
 290	1	3	-0.183349	25.9881	63.4657	96.6044
 291	1	3	-0.091111	25.9537	63.3804	98.0062
 292	1	3	-0.18836	24.1216	61.9311	96.4627
 293	1	3	-0.138837	24.0862	61.8468	97.8642
 294	1	3	0.044906	25.0013	62.5663	98.6596
 295	1	6	0.157291	26.7419	64.0878	96.1282
 296	1	6	0.112962	26.6908	63.9436	98.5694
 297	1	6	0.163228	22.7424	63.1409	90.963
 298	1	6	0.134491	24.0348	62.9168	88.8389
 299	1	6	0.172124	27.7165	62.4607	91.1183
 300	1	5	-0.48162	27.4305	62.4998	94.0643
 301	1	5	-0.478641	22.8472	63.1244	93.9251
 302	1	5	-0.498568	27.8256	61.9356	88.545
 303	1	6	0.153588	23.4046	61.3624	95.8756
 304	1	6	0.146442	23.3459	61.2065	98.3349
 305	1	7	0.027303	24.9493	62.4196	100.194
 306	1	7	-0.256739	23.548	62.8072	100.737
 307	1	8	0.074408	23.2617	63.8111	100.399
 308	1	8	0.075653	23.5384	62.8059	101.835
 309	1	8	0.063017	22.776	62.1061	100.398
 310	1	7	-0.003396	25.3262	60.9622	100.615
 311	1	7	0.23166	26.8422	60.9455	100.977
 312	1	8	0.003166	25.0795	60.2184	99.8467
 313	1	8	0.018046	24.7464	60.6895	101.507
 314	1	3	0.065056	27.0894	62.4054	101.316
 315	1	7	-0.138879	27.705	60.516	99.7659
 316	1	7	-0.25744	27.1217	60.0053	102.176
 317	1	3	0.018858	26.0387	63.2129	100.901
 318	1	8	0.063111	28.1889	59.9972	102.43
 319	1	8	0.056661	26.822	58.9758	101.943
 320	1	8	0.052049	26.5683	60.3298	103.066
 321	1	3	-0.499719	28.2033	62.9526	101.975
 322	1	3	-0.078325	26.0655	64.5954	101.14
 323	1	3	-0.430686	27.1761	65.1487	101.807
 324	1	3	0.29919	28.2567	64.3406	102.238
 325	1	6	0.134637	25.2454	65.2271	100.807
 326	1	8	0.0139	27.5281	61.1633	98.8987
 327	1	8	0.03702	27.4772	59.4845	99.4689
 328	1	8	0.035416	28.7734	60.5701	100.01
 329	1	6	0.223374	29.0077	62.3	102.306
 330	1	6	0.198405	27.204	66.2215	101.985
 331	1	1	0.464138	10.3904	58.5267	79.4167
 332	1	2	0.077422	10.9523	58.7138	78.1525
 333	1	3	0.04486	11.1573	60.1815	78.0315
 334	1	2	0.055008	10.2127	59.7255	80.1087
 335	1	3	-0.004417	10.7265	60.7794	79.2002
 336	1	5	-0.392499	11.2465	57.873	77.3183
 337	1	5	-0.37854	9.76449	59.9006	81.23
 338	1	3	-0.044101	11.6915	60.9352	76.9786
 339	1	3	-0.056346	10.8128	62.1616	79.3927
 340	1	3	-0.157726	11.362	62.9393	78.353
 341	1	3	-0.13238	11.8117	62.3356	77.1473
 342	1	6	0.167375	12.0122	60.4445	76.0608
 343	1	6	0.161059	10.4614	62.6123	80.3188
 344	1	6	0.140064	11.4158	64.0188	78.4794
 345	1	2	0.57844	12.3729	63.1681	76.0233
 346	1	3	-0.037172	13.1903	64.3936	76.3496
 347	1	3	-0.116011	14.0179	64.424	77.498
 348	1	3	-0.048223	14.7927	65.5674	77.731
 349	1	3	-0.138147	13.1814	65.506	75.4678
 350	1	3	-0.114262	13.9627	66.6521	75.7282
 351	1	3	-0.063397	14.7648	66.6511	76.877
 352	1	2	0.489233	15.7185	67.6709	77.3942
 353	1	1	-0.081676	16.281	67.1173	78.5395
 354	1	2	0.489742	15.767	65.8558	78.8146
 355	1	3	0.047265	17.2722	67.7567	79.3383
 356	1	3	-0.183349	18.4099	67.0486	79.7657
 357	1	3	-0.091111	19.3702	67.6603	80.5889
 358	1	3	-0.18836	17.1235	69.098	79.7313
 359	1	3	-0.138837	18.0856	69.7108	80.552
 360	1	3	0.044906	19.2168	69.0006	81.0062
 361	1	6	0.157291	18.5452	66.0092	79.4776
 362	1	6	0.112962	20.2194	67.067	80.9128
 363	1	6	0.163228	13.9613	67.5054	75.0519
 364	1	6	0.134491	12.5643	65.4738	74.5715
 365	1	6	0.172124	14.0881	63.5757	78.1765
 366	1	5	-0.48162	16.0401	65.1122	79.7411
 367	1	5	-0.478641	15.9454	68.7589	76.8936
 368	1	5	-0.498568	12.1857	62.8353	74.865
 369	1	6	0.153588	16.2567	69.6685	79.4066
 370	1	6	0.146442	17.9393	70.7443	80.8523
 371	1	7	0.027303	20.2118	69.6893	81.9632
 372	1	7	-0.256739	20.8304	70.9472	81.2985
 373	1	8	0.074408	21.6071	71.3877	81.9375
 374	1	8	0.075653	20.0724	71.7183	81.1146
 375	1	8	0.063017	21.2908	70.6932	80.3354
 376	1	7	-0.003396	19.4986	70.0576	83.3053
 377	1	7	0.23166	19.7568	68.8995	84.3154
 378	1	8	0.003166	18.4275	70.2625	83.1831
 379	1	8	0.018046	19.9465	70.9787	83.702
 380	1	3	0.065056	21.0398	68.3048	83.7638
 381	1	7	-0.138879	18.6177	67.8511	84.2824
 382	1	7	-0.25744	19.9248	69.4411	85.7565
 383	1	3	0.018858	21.3007	68.7541	82.4758
 384	1	8	0.063111	20.7701	70.1384	85.8176
 385	1	8	0.056661	20.1122	68.625	86.4651
 386	1	8	0.052049	19.0202	69.9699	86.0821
 387	1	3	-0.499719	21.9123	67.4152	84.4119
 388	1	3	-0.078325	22.4649	68.3456	81.8066
 389	1	3	-0.430686	23.3531	67.4659	82.4586
 390	1	3	0.29919	23.0938	66.9836	83.7661
 391	1	6	0.134637	22.6705	68.696	80.7977
 392	1	8	0.0139	17.6654	68.2956	84.598
 393	1	8	0.03702	18.841	67.0144	84.9564
 394	1	8	0.035416	18.4807	67.4385	83.276
 395	1	6	0.223374	21.679	67.0781	85.4184
 396	1	6	0.198405	24.2478	67.1382	81.933
 397	1	1	0.464138	1.89687	39.584	74.1104
 398	1	2	0.077422	1.16749	40.6994	74.5207
 399	1	3	0.04486	2.16713	41.6173	75.1208
 400	1	2	0.055008	3.2614	39.7033	74.3798
 401	1	3	-0.004417	3.41448	41.0319	75.0285
 402	1	5	-0.392499	-0.0327298	40.9007	74.4296
 403	1	5	-0.37854	4.15505	38.9046	74.1515
 404	1	3	-0.044101	1.98403	42.8619	75.7317
 405	1	3	-0.056346	4.55647	41.6674	75.5293
 406	1	3	-0.157726	4.39837	42.9305	76.1408
 407	1	3	-0.13238	3.11645	43.5384	76.2437
 408	1	6	0.167375	0.983534	43.2835	75.8187
 409	1	6	0.161059	5.52886	41.1834	75.4624
 410	1	6	0.140064	5.27244	43.4164	76.5696
 411	1	2	0.57844	2.90341	44.8449	76.9681
 412	1	3	-0.037172	4.00107	45.8771	77.0399
 413	1	3	-0.116011	4.07645	46.7125	78.1793
 414	1	3	-0.048223	5.07072	47.6979	78.2227
 415	1	3	-0.138147	4.91217	46.0749	75.9671
 416	1	3	-0.114262	5.8992	47.0822	76.0275
 417	1	3	-0.063397	5.95224	47.8821	77.1763
 418	1	2	0.489233	6.86377	49.0034	77.5325
 419	1	1	-0.081676	6.47864	49.4116	78.8026
 420	1	2	0.489742	5.40045	48.6833	79.2865
 421	1	3	0.047265	7.15199	50.4143	79.5503
 422	1	3	-0.183349	7.6736	50.1113	80.8182
 423	1	3	-0.091111	8.37346	51.0837	81.5488
 424	1	3	-0.18836	7.32919	51.7075	79.0292
 425	1	3	-0.138837	8.02164	52.6854	79.7663
 426	1	3	0.044906	8.56035	52.3848	81.0377
 427	1	6	0.157291	7.54372	49.1172	81.2378
 428	1	6	0.112962	8.78597	50.8146	82.5163
 429	1	6	0.163228	6.5964	47.2458	75.2073
 430	1	6	0.134491	4.83848	45.4645	75.0699
 431	1	6	0.172124	3.37857	46.5984	79.0083
 432	1	5	-0.48162	4.85651	48.7786	80.373
 433	1	5	-0.478641	7.77305	49.4369	76.8465
 434	1	5	-0.498568	1.83416	45.0597	77.515
 435	1	6	0.153588	6.94273	51.953	78.043
 436	1	6	0.146442	8.1527	53.6686	79.3241
 437	1	7	0.027303	9.37635	53.4046	81.8568
 438	1	7	-0.256739	8.80377	53.55	83.2934
 439	1	8	0.074408	8.92946	52.6298	83.8763
 440	1	8	0.075653	7.73251	53.7864	83.2658
 441	1	8	0.063017	9.31163	54.357	83.8379
 442	1	7	-0.003396	10.8796	52.979	81.8987
 443	1	7	0.23166	11.6388	53.7851	80.8011
 444	1	8	0.003166	11.0172	51.8962	81.7813
 445	1	8	0.018046	11.2955	53.2389	82.8814
 446	1	3	0.065056	10.7269	54.9868	80.6191
 447	1	7	-0.138879	11.744	52.9807	79.4826
 448	1	7	-0.25744	13.0563	54.1821	81.2826
 449	1	3	0.018858	9.48028	54.7711	81.1944
 450	1	8	0.063111	13.5903	54.7484	80.5097
 451	1	8	0.056661	13.6508	53.2905	81.5189
 452	1	8	0.052049	13.0042	54.8069	82.1833
 453	1	3	-0.499719	11.035	56.2109	79.9982
 454	1	3	-0.078325	8.49927	55.7734	81.1636
 455	1	3	-0.430686	8.80476	57.0046	80.5523
 456	1	3	0.29919	10.0733	57.2463	79.9715
 457	1	6	0.134637	7.52822	55.6072	81.6244
 458	1	8	0.0139	12.3435	52.0724	79.6235
 459	1	8	0.03702	12.2185	53.5821	78.697
 460	1	8	0.035416	10.7553	52.6784	79.1183
 461	1	6	0.223374	12.0149	56.362	79.5524
 462	1	6	0.198405	8.05977	57.7973	80.5604
 463	1	1	0.464138	0.287931	27.1026	58.2461
 464	1	2	0.077422	1.27444	28.0743	58.0651
 465	1	3	0.04486	1.68704	28.4713	59.4367
 466	1	2	0.055008	0.027583	26.8498	59.595
 467	1	3	-0.004417	0.947688	27.7398	60.3443
 468	1	5	-0.392499	1.73356	28.5106	57.022
 469	1	5	-0.37854	-0.748977	26.0472	60.0867
 470	1	3	-0.044101	2.6627	29.3837	59.8554
 471	1	3	-0.056346	1.15187	27.8616	61.7219
 472	1	3	-0.157726	2.13486	28.7695	62.1672
 473	1	3	-0.13238	2.88182	29.5542	61.2447
 474	1	6	0.167375	3.2425	29.9364	59.1174
 475	1	6	0.161059	0.579618	27.2528	62.4192
 476	1	6	0.140064	2.33033	28.8341	63.235
 477	1	2	0.57844	3.96384	30.5091	61.6936
 478	1	3	-0.037172	3.94814	31.0914	63.0877
 479	1	3	-0.116011	2.73394	31.3929	63.7539
 480	1	3	-0.048223	2.79869	31.9369	65.0445
 481	1	3	-0.138147	5.18169	31.3913	63.7237
 482	1	3	-0.114262	5.22325	31.947	65.0187
 483	1	3	-0.063397	4.00543	32.2037	65.6587
 484	1	2	0.489233	3.72717	32.7847	66.9987
 485	1	1	-0.081676	2.34236	32.8319	67.1105
 486	1	2	0.489742	1.71	32.3366	65.9757
 487	1	3	0.047265	1.65527	33.339	68.25
 488	1	3	-0.183349	0.585856	32.6275	68.8214
 489	1	3	-0.091111	-0.0884084	33.1344	69.9452
 490	1	3	-0.18836	2.039	34.5623	68.8263
 491	1	3	-0.138837	1.36638	35.0682	69.9511
 492	1	3	0.044906	0.285797	34.3635	70.5271
 493	1	6	0.157291	0.269451	31.6802	68.3928
 494	1	6	0.112962	-0.90826	32.5618	70.3686
 495	1	6	0.163228	6.16805	32.1758	65.509
 496	1	6	0.134491	6.11631	31.1879	63.2036
 497	1	6	0.172124	1.76559	31.2274	63.2854
 498	1	5	-0.48162	0.514643	32.2245	65.7645
 499	1	5	-0.478641	4.56308	33.135	67.8136
 500	1	5	-0.498568	4.86774	30.7956	60.9256
 501	1	6	0.153588	2.87109	35.1244	68.4087
 502	1	6	0.146442	1.70832	36.01	70.3691
 503	1	7	0.027303	-0.475507	34.8845	71.7641
 504	1	7	-0.256739	-1.99395	35.0072	71.4652
 505	1	8	0.074408	-2.52259	35.4791	72.3039
 506	1	8	0.075653	-2.45228	34.0258	71.2935
 507	1	8	0.063017	-2.16843	35.6196	70.5714
 508	1	7	-0.003396	-0.223008	33.9571	72.9959
 509	1	7	0.23166	0.923329	34.5873	73.8453
 510	1	8	0.003166	-0.000392583	32.9214	72.7083
 511	1	8	0.018046	-1.13641	33.9191	73.6048
 512	1	3	0.065056	0.866227	36.0425	73.4113
 513	1	7	-0.138879	2.29338	33.9636	73.4861
 514	1	7	-0.25744	0.651917	34.4168	75.3607
 515	1	3	0.018858	0.0750527	36.2057	72.2807
 516	1	8	0.063111	1.45966	34.8585	75.9571
 517	1	8	0.056661	0.576585	33.355	75.6269
 518	1	8	0.052049	-0.286265	34.9084	75.6487
 519	1	3	-0.499719	1.49215	37.1453	74.0211
 520	1	3	-0.078325	-0.132272	37.4808	71.7336
 521	1	3	-0.430686	0.482358	38.59	72.3452
 522	1	3	0.29919	1.30025	38.4414	73.4912
 523	1	6	0.134637	-0.756083	37.6065	70.8516
 524	1	8	0.0139	3.10365	34.4579	74.0369
 525	1	8	0.03702	2.50767	34.0624	72.4152
 526	1	8	0.035416	2.31495	32.8958	73.7378
 527	1	6	0.223374	2.12326	36.9974	74.8936
 528	1	6	0.198405	0.307321	39.5828	71.9366
 529	1	1	0.464138	-11.8079	28.9757	40.5119
 530	1	2	0.077422	-12.2197	28.789	41.8345
 531	1	3	0.04486	-10.9743	28.8635	42.6467
 532	1	2	0.055008	-10.4262	29.1532	40.4045
 533	1	3	-0.004417	-9.91203	29.083	41.7918
 534	1	5	-0.392499	-13.3492	28.6151	42.2629
 535	1	5	-0.37854	-9.75431	29.3657	39.4082
 536	1	3	-0.044101	-10.7842	28.7556	44.0314
 537	1	3	-0.056346	-8.60525	29.2337	42.2636
 538	1	3	-0.157726	-8.39038	29.1267	43.6517
 539	1	3	-0.13238	-9.46611	28.856	44.5405
 540	1	6	0.167375	-11.6341	28.5839	44.6904
 541	1	6	0.161059	-7.78851	29.4322	41.5725
 542	1	6	0.140064	-7.38098	29.2574	44.037
 543	1	2	0.57844	-9.23448	28.701	46.0236
 544	1	3	-0.037172	-8.00357	27.9751	46.5219
 545	1	3	-0.116011	-7.59493	28.1354	47.8701
 546	1	3	-0.048223	-6.48225	27.4113	48.3263
 547	1	3	-0.138147	-7.29577	27.0653	45.6883
 548	1	3	-0.114262	-6.17233	26.3614	46.1614
 549	1	3	-0.063397	-5.7872	26.5623	47.4901
 550	1	2	0.489233	-4.72914	25.8883	48.281
 551	1	1	-0.081676	-4.88553	26.3369	49.5883
 552	1	2	0.489742	-5.89351	27.292	49.6908
 553	1	3	0.047265	-4.1834	25.7802	50.699
 554	1	3	-0.183349	-3.987	24.3896	50.7703
 555	1	3	-0.091111	-3.30912	23.8155	51.8534
 556	1	3	-0.18836	-3.69747	26.5829	51.7489
 557	1	3	-0.138837	-3.02718	26.0041	52.845
 558	1	3	0.044906	-2.8239	24.6076	52.9115
 559	1	6	0.157291	-4.35385	23.7399	49.9803
 560	1	6	0.112962	-3.15912	22.7403	51.8642
 561	1	6	0.163228	-5.64144	25.6491	45.532
 562	1	6	0.134491	-7.63356	26.8665	44.6751
 563	1	6	0.172124	-8.14716	28.7811	48.5525
 564	1	5	-0.48162	-6.28841	27.8659	50.6908
 565	1	5	-0.478641	-3.94519	25.0596	47.8501
 566	1	5	-0.498568	-10.0711	29.1105	46.8111
 567	1	6	0.153588	-3.84732	27.6598	51.7244
 568	1	6	0.146442	-2.66661	26.6545	53.6367
 569	1	7	0.027303	-2.09107	23.9156	54.0768
 570	1	7	-0.256739	-2.98378	22.8074	54.7006
 571	1	8	0.074408	-2.51638	22.3877	55.6011
 572	1	8	0.075653	-3.15394	21.9796	54.0019
 573	1	8	0.063017	-3.96332	23.2103	54.988
 574	1	7	-0.003396	-0.733241	23.3176	53.5846
 575	1	7	0.23166	0.402512	24.3064	53.9858
 576	1	8	0.003166	-0.728107	23.105	52.5076
 577	1	8	0.018046	-0.562697	22.3571	54.0893
 578	1	3	0.065056	-0.239961	25.0576	55.1396
 579	1	7	-0.138879	0.730637	25.2798	52.8278
 580	1	7	-0.25744	1.6824	23.5423	54.4065
 581	1	3	0.018858	-1.61613	24.8666	55.1659
 582	1	8	0.063111	2.04998	22.9167	53.5833
 583	1	8	0.056661	1.48542	22.8918	55.2682
 584	1	8	0.052049	2.48359	24.2379	54.6846
 585	1	3	-0.499719	0.403288	25.823	56.1294
 586	1	3	-0.078325	-2.39548	25.4497	56.1757
 587	1	3	-0.430686	-1.75721	26.2138	57.1713
 588	1	3	0.29919	-0.353184	26.3991	57.1756
 589	1	6	0.134637	-3.47024	25.2853	56.2051
 590	1	8	0.0139	1.48947	26.0103	53.1357
 591	1	8	0.03702	-0.159739	25.8365	52.5116
 592	1	8	0.035416	1.11669	24.7367	51.956
 593	1	6	0.223374	1.48224	25.9534	56.0969
 594	1	6	0.198405	-2.35535	26.6313	57.9785
 595	1	1	0.464138	-29.1992	23.6739	29.9203
 596	1	2	0.077422	-28.5486	22.8027	30.7948
 597	1	3	0.04486	-27.1325	23.2536	30.8115
 598	1	2	0.055008	-28.3434	24.6412	29.3902
 599	1	3	-0.004417	-27.0147	24.3523	29.984
 600	1	5	-0.392499	-29.0147	21.8644	31.4206
 601	1	5	-0.37854	-28.601	25.5451	28.6119
 602	1	3	-0.044101	-26.0321	22.7413	31.509
 603	1	3	-0.056346	-25.7962	25.0173	29.8217
 604	1	3	-0.157726	-24.6768	24.5292	30.5267
 605	1	3	-0.13238	-24.7757	23.3808	31.3631
 606	1	6	0.167375	-26.1583	21.8769	32.1596
 607	1	6	0.161059	-25.728	25.8939	29.1807
 608	1	6	0.140064	-23.7396	25.0695	30.4271
 609	1	2	0.57844	-23.6012	22.8599	32.1616
 610	1	3	-0.037172	-22.2698	23.552	32.06
 611	1	3	-0.116011	-21.7017	24.1008	33.2308
 612	1	3	-0.048223	-20.4995	24.8087	33.1164
 613	1	3	-0.138147	-21.5895	23.6751	30.8195
 614	1	3	-0.114262	-20.3753	24.3885	30.7282
 615	1	3	-0.063397	-19.8616	24.9592	31.9007
 616	1	2	0.489233	-18.6687	25.8226	32.112
 617	1	1	-0.081676	-18.6774	26.1514	33.4619
 618	1	2	0.489742	-19.7327	25.5624	34.1426
 619	1	3	0.047265	-17.7745	27.0681	34.0617
 620	1	3	-0.183349	-17.6452	28.3634	33.5373
 621	1	3	-0.091111	-16.785	29.2899	34.144
 622	1	3	-0.18836	-17.0365	26.7148	35.2052
 623	1	3	-0.138837	-16.1671	27.6422	35.809
 624	1	3	0.044906	-16.0245	28.9438	35.2805
 625	1	6	0.157291	-18.2148	28.6567	32.6592
 626	1	6	0.112962	-16.7164	30.2892	33.7258
 627	1	6	0.163228	-19.8574	24.5116	29.7783
 628	1	6	0.134491	-22.0139	23.2283	29.9227
 629	1	6	0.172124	-22.2013	24.0113	34.1947
 630	1	5	-0.48162	-20.036	25.6901	35.3159
 631	1	5	-0.478641	-17.9052	26.2162	31.2473
 632	1	5	-0.498568	-23.7637	21.9851	32.9956
 633	1	6	0.153588	-17.1459	25.722	35.635
 634	1	6	0.146442	-15.6173	27.3398	36.6956
 635	1	7	0.027303	-15.0906	29.9988	35.9023
 636	1	7	-0.256739	-14.1395	30.5882	34.8234
 637	1	8	0.074408	-14.6833	31.1713	34.071
 638	1	8	0.075653	-13.5967	29.7895	34.3019
 639	1	8	0.063017	-13.396	31.2551	35.2797
 640	1	7	-0.003396	-15.9236	31.1377	36.5766
 641	1	7	0.23166	-15.8472	30.9546	38.1233
 642	1	8	0.003166	-16.9631	31.1584	36.2235
 643	1	8	0.018046	-15.4904	32.1103	36.308
 644	1	3	0.065056	-14.6236	30.0688	38.2789
 645	1	7	-0.138879	-17.1025	30.2239	38.6581
 646	1	7	-0.25744	-15.6886	32.3196	38.8383
 647	1	3	0.018858	-14.2536	29.4944	37.0697
 648	1	8	0.063111	-16.535	32.9793	38.6099
 649	1	8	0.056661	-14.767	32.8232	38.5197
 650	1	8	0.052049	-15.645	32.1927	39.927
 651	1	3	-0.499719	-13.8593	29.8623	39.4425
 652	1	3	-0.078325	-13.1366	28.6492	36.9985
 653	1	3	-0.430686	-12.371	28.4342	38.1603
 654	1	3	0.29919	-12.694	29.0638	39.3878
 655	1	6	0.134637	-12.8399	28.2099	36.0489
 656	1	8	0.0139	-17.0148	30.0363	39.7359
 657	1	8	0.03702	-17.2397	29.2564	38.1589
 658	1	8	0.035416	-18.0066	30.8228	38.4912
 659	1	6	0.223374	-14.146	30.3498	40.3713
 660	1	6	0.198405	-11.4718	27.8261	38.0895
 661	1	1	0.464138	-43.2301	9.73627	22.6375
 662	1	2	0.077422	-42.3642	10.7694	22.2653
 663	1	3	0.04486	-41.5934	11.1001	23.4945
 664	1	2	0.055008	-43.1053	9.3948	23.9844
 665	1	3	-0.004417	-42.0436	10.2849	24.5166
 666	1	5	-0.392499	-42.2351	11.301	21.1741