pySIMM System Object

926 atoms
1023 bonds
1806 angles
2894 dihedrals
294 impropers

8 atom types
10 bond types
17 angle types
9 dihedral types
4 improper types

-143.953632 143.953632 xlo xhi
-143.953632 143.953632 ylo yhi
-143.953632 143.953632 zlo zhi

Masses

   1	14.01	# n
   2	12.01	# c
   3	12.01	# ca
   4	1.008	# hn
   5	16.0	# o
   6	1.008	# ha
   7	12.01	# c3
   8	1.008	# hc

Pair Coeffs

   1	0.17	3.249998523775958	# n
   2	0.086	3.3996695084235347	# c
   3	0.086	3.3996695084235347	# ca
   4	0.0157	1.069078461768407	# hn
   5	0.21	2.959921901149463	# o
   6	0.015	2.59964245953351	# ha
   7	0.1094	3.3996695084235347	# c3
   8	0.0157	2.649532787749369	# hc

Bond Coeffs

   1	427.6	1.3789	# c,n
   2	461.1	1.3984	# ca,ca
   3	345.9	1.4906	# c,ca
   4	300.9	1.5375	# c3,c3
   5	345.8	1.086	# ca,ha
   6	384.2	1.4121	# ca,n
   7	637.7	1.2183	# c,o
   8	321.0	1.5156	# c3,ca
   9	330.6	1.0969	# c3,hc
  10	403.2	1.0129	# hn,n

Angle Coeffs

   1	63.82	123.71	# c,n,ca
   2	67.87	120.19	# ca,ca,n
   3	67.68	115.25	# ca,c,n
   4	63.15	112.07	# c3,c3,ca
   5	63.0	118.11	# ca,c,ca
   6	63.56	112.24	# ca,c3,ca
   7	46.34	109.8	# c3,c3,hc
   8	48.33	117.55	# c,n,hn
   9	74.22	123.05	# n,c,o
  10	64.28	120.33	# c,ca,ca
  11	39.4	107.58	# hc,c3,hc
  12	66.62	120.02	# ca,ca,ca
  13	63.53	120.77	# c3,ca,ca
  14	62.86	111.51	# c3,c3,c3
  15	63.74	127.08	# c,n,c
  16	48.18	119.88	# ca,ca,ha
  17	68.72	122.6	# ca,c,o

Dihedral Coeffs

   1	2	2.5	2	180	2.0	1	0	# hn,n,c,o
   2	1	3.625	2	180	# X,ca,ca,X
   3	1	0.16	3	0	# hc,c3,c3,c3
   4	1	1.0	2	180	# X,c,ca,X
   5	1	0.15555555555555556	3	0	# X,c3,c3,X
   6	1	0.0	2	0	# X,c3,ca,X
   7	3	0.18	3	0	0.25	2	180	0.2	1	180	# c3,c3,c3,c3
   8	1	2.5	2	180	# X,c,n,X
   9	1	0.45	2	180	# X,ca,n,X

Improper Coeffs

   1	1.1	-1	2	# ca,ca,ca,c3
   2	1.1	-1	2	# n,X,X,hn
   3	1.1	-1	2	# ca,X,X,ha
   4	10.5	-1	2	# c,X,X,o

Atoms

   1	1	1	0.464138	-49.1814	15.3978	31.2304
   2	1	2	0.077422	-48.4445	16.5378	30.9085
   3	1	3	0.04486	-49.2431	17.6752	31.4502
   4	1	2	0.055008	-50.3595	15.6844	31.9122
   5	1	3	-0.004417	-50.3778	17.1548	32.0477
   6	1	5	-0.392499	-47.3685	16.6088	30.3381
   7	1	5	-0.37854	-51.194	14.9108	32.3528
   8	1	3	-0.044101	-49.0126	19.0597	31.4101
   9	1	3	-0.056346	-51.3349	17.9643	32.6594
  10	1	3	-0.157726	-51.1345	19.3539	32.6144
  11	1	3	-0.13238	-49.9935	19.91	31.9762
  12	1	6	0.167375	-48.1301	19.4608	30.9143
  13	1	6	0.161059	-52.2114	17.526	33.1326
  14	1	6	0.140064	-51.8826	20.0046	33.0642
  15	1	2	0.57844	-49.9067	21.4041	31.8255
  16	1	3	-0.037172	-51.1948	22.072	31.429
  17	1	3	-0.116011	-51.9877	21.4472	30.4418
  18	1	3	-0.048223	-53.2593	21.9586	30.1872
  19	1	3	-0.138147	-51.6843	23.2228	32.0993
  20	1	3	-0.114262	-52.9815	23.7201	31.8275
  21	1	3	-0.063397	-53.7569	23.0522	30.8651
  22	1	2	0.489233	-55.1746	23.2403	30.4346
  23	1	1	-0.081676	-55.4333	22.207	29.5399
  24	1	2	0.489742	-54.3203	21.4148	29.3112
  25	1	3	0.047265	-56.706	21.8957	28.9949
  26	1	3	-0.183349	-57.4017	22.8083	28.1859
  27	1	3	-0.091111	-58.6224	22.4406	27.5888
  28	1	3	-0.18836	-57.262	20.6284	29.2296
  29	1	3	-0.138837	-58.4876	20.2711	28.6508
  30	1	3	0.044906	-59.1766	21.1554	27.7952
  31	1	6	0.157291	-56.9924	23.7995	28.0097
  32	1	6	0.112962	-59.1276	23.1709	26.9665
  33	1	6	0.163228	-53.388	24.5693	32.3745
  34	1	6	0.134491	-51.077	23.693	32.8707
  35	1	6	0.172124	-51.6512	20.5534	29.9188
  36	1	5	-0.48162	-54.231	20.4127	28.6228
  37	1	5	-0.478641	-55.9533	24.0769	30.857
  38	1	5	-0.498568	-48.8601	22.0138	31.9563
  39	1	6	0.153588	-56.736	19.9084	29.8516
  40	1	6	0.146442	-58.8971	19.2904	28.8664
  41	1	7	0.027303	-60.5264	20.7165	27.184
  42	1	7	-0.256739	-61.0814	21.6943	26.1117
  43	1	8	0.074408	-61.2919	22.6829	26.5379
  44	1	8	0.075653	-62.0231	21.3187	25.6904
  45	1	8	0.063017	-60.3693	21.8164	25.2851
  46	1	7	-0.003396	-60.4665	19.272	26.5702
  47	1	7	0.23166	-61.5034	18.3622	27.3105
  48	1	8	0.003166	-59.4567	18.85	26.6471
  49	1	8	0.018046	-60.6789	19.295	25.493
  50	1	3	0.065056	-62.0503	19.2748	28.3952
  51	1	7	-0.138879	-60.8282	17.1034	27.9102
  52	1	7	-0.25744	-62.6398	17.9266	26.3532
  53	1	3	0.018858	-61.5357	20.5621	28.3029
  54	1	8	0.063111	-63.145	18.8007	25.9234
  55	1	8	0.056661	-63.3936	17.3336	26.8864
  56	1	8	0.052049	-62.2491	17.3161	25.5293
  57	1	3	-0.499719	-62.9784	18.9439	29.4005
  58	1	3	-0.078325	-61.9307	21.5608	29.2066
  59	1	3	-0.430686	-62.8638	21.2352	30.2096
  60	1	3	0.29919	-63.3848	19.9332	30.3097
  61	1	6	0.134637	-61.5179	22.5643	29.133
  62	1	8	0.0139	-60.092	17.3717	28.6767
  63	1	8	0.03702	-60.3131	16.5274	27.1308
  64	1	8	0.035416	-61.5704	16.4456	28.3795
  65	1	6	0.223374	-63.384	17.9409	29.4773
  66	1	6	0.198405	-63.1848	21.9911	30.9196
  67	1	1	0.464138	-39.2257	-3.34195	25.8723
  68	1	2	0.077422	-38.8153	-2.11161	26.3741
  69	1	3	0.04486	-40.0408	-1.27889	26.3947
  70	1	2	0.055008	-40.5882	-3.38363	25.5757
  71	1	3	-0.004417	-41.0977	-2.02714	25.9142
  72	1	5	-0.392499	-37.6921	-1.75789	26.6943
  73	1	5	-0.37854	-41.2377	-4.30961	25.1193
  74	1	3	-0.044101	-40.2068	0.0418337	26.8139
  75	1	3	-0.056346	-42.3848	-1.48346	25.8085
  76	1	3	-0.157726	-42.5759	-0.142748	26.2145
  77	1	3	-0.13238	-41.4921	0.623002	26.725
  78	1	6	0.167375	-39.3571	0.596243	27.21
  79	1	6	0.161059	-43.2083	-2.08806	25.4336
  80	1	6	0.140064	-43.5747	0.286	26.1613
  81	1	2	0.57844	-41.6695	2.01806	27.2594
  82	1	3	-0.037172	-42.8953	2.81545	26.9296
  83	1	3	-0.116011	-43.7561	3.17453	27.9851
  84	1	3	-0.048223	-44.7688	4.10095	27.7264
  85	1	3	-0.138147	-43.0826	3.3782	25.6401
  86	1	3	-0.114262	-44.1003	4.33232	25.4092
  87	1	3	-0.063397	-44.9266	4.68678	26.4866
  88	1	2	0.489233	-45.9332	5.78038	26.6241
  89	1	1	-0.081676	-46.2947	5.78795	27.9675
  90	1	2	0.489742	-45.6732	4.7728	28.6834
  91	1	3	0.047265	-47.0322	6.81488	28.6191
  92	1	3	-0.183349	-46.675	8.16618	28.4562
  93	1	3	-0.091111	-47.1869	9.14829	29.324
  94	1	3	-0.18836	-47.9727	6.4743	29.6043
  95	1	3	-0.138837	-48.4723	7.45019	30.4769
  96	1	3	0.044906	-48.0613	8.79591	30.3733
  97	1	6	0.157291	-45.9384	8.44891	27.7082
  98	1	6	0.112962	-46.8314	10.1706	29.2295
  99	1	6	0.163228	-44.1987	4.83485	24.4482
 100	1	6	0.134491	-42.381	3.14356	24.8424
 101	1	6	0.172124	-43.5884	2.81244	28.9985
 102	1	5	-0.48162	-45.7374	4.53406	29.8775
 103	1	5	-0.478641	-46.2505	6.577	25.7581
 104	1	5	-0.498568	-40.8474	2.48584	28.0291
 105	1	6	0.153588	-48.2385	5.43275	29.7681
 106	1	6	0.146442	-49.1157	7.12493	31.2866
 107	1	7	0.027303	-48.3899	9.79624	31.496
 108	1	7	-0.256739	-49.7469	9.49256	32.1946
 109	1	8	0.074408	-49.7015	8.58198	32.8039
 110	1	8	0.075653	-50.5484	9.37485	31.4541
 111	1	8	0.063017	-50.0417	10.3105	32.8639
 112	1	7	-0.003396	-47.2263	9.78907	32.5379
 113	1	7	0.23166	-46.988	11.2503	33.0239
 114	1	8	0.003166	-46.3122	9.42335	32.0504
 115	1	8	0.018046	-47.4221	9.10107	33.3705
 116	1	3	0.065056	-47.7344	12.0631	31.9806
 117	1	7	-0.138879	-45.4806	11.6021	33.0319
 118	1	7	-0.25744	-47.5795	11.471	34.4387
 119	1	3	0.018858	-48.4291	11.2583	31.0834
 120	1	8	0.063111	-47.4278	12.5052	34.7708
 121	1	8	0.056661	-47.1002	10.8079	35.1698
 122	1	8	0.052049	-48.6571	11.2704	34.4552
 123	1	3	-0.499719	-47.8871	13.4589	31.9652
 124	1	3	-0.078325	-49.2431	11.8292	30.0937
 125	1	3	-0.430686	-49.4014	13.2299	30.072
 126	1	3	0.29919	-48.7626	14.051	31.0323
 127	1	6	0.134637	-49.8138	11.1932	29.4205
 128	1	8	0.0139	-45.048	11.4995	32.0282
 129	1	8	0.03702	-44.9277	10.9408	33.7108
 130	1	8	0.035416	-45.3209	12.6368	33.3606
 131	1	6	0.223374	-47.4176	14.0628	32.7365
 132	1	6	0.198405	-50.1065	13.6704	29.3717
 133	1	1	0.464138	-20.4823	-4.2501	16.8489
 134	1	2	0.077422	-20.6439	-3.8562	18.1738
 135	1	3	0.04486	-21.9364	-4.44035	18.595
 136	1	2	0.055008	-21.5499	-5.0079	16.3698
 137	1	3	-0.004417	-22.4877	-5.11503	17.522
 138	1	5	-0.392499	-19.8925	-3.18955	18.8668
 139	1	5	-0.37854	-21.6914	-5.50675	15.2658
 140	1	3	-0.044101	-22.5549	-4.40772	19.8474
 141	1	3	-0.056346	-23.7126	-5.78294	17.6399
 142	1	3	-0.157726	-24.3674	-5.74861	18.8914
 143	1	3	-0.13238	-23.7966	-5.06191	19.9989
 144	1	6	0.167375	-22.0772	-3.89475	20.6809
 145	1	6	0.161059	-24.1297	-6.32449	16.7932
 146	1	6	0.140064	-25.3055	-6.28789	19.0082
 147	1	2	0.57844	-24.4427	-5.06641	21.36
 148	1	3	-0.037172	-25.9436	-5.01128	21.4748
 149	1	3	-0.116011	-26.574	-5.5814	22.607
 150	1	3	-0.048223	-27.9718	-5.52409	22.6903
 151	1	3	-0.138147	-26.7297	-4.365	20.4833
 152	1	3	-0.114262	-28.1326	-4.3077	20.5933
 153	1	3	-0.063397	-28.7242	-4.90346	21.712
 154	1	2	0.489233	-30.1569	-5.0407	22.0708
 155	1	1	-0.081676	-30.1781	-5.77181	23.2478
 156	1	2	0.489742	-28.9067	-6.0919	23.7019
 157	1	3	0.047265	-31.3852	-6.21752	23.838
 158	1	3	-0.183349	-32.291	-5.29362	24.381
 159	1	3	-0.091111	-33.5556	-5.7173	24.8211
 160	1	3	-0.18836	-31.735	-7.57526	23.7824
 161	1	3	-0.138837	-33.004	-7.99635	24.2127
 162	1	3	0.044906	-33.9513	-7.06818	24.6962
 163	1	6	0.157291	-32.03	-4.23979	24.4305
 164	1	6	0.112962	-34.2335	-4.97518	25.2325
 165	1	6	0.163228	-28.7452	-3.8236	19.8346
 166	1	6	0.134491	-26.2529	-3.8923	19.6278
 167	1	6	0.172124	-25.9935	-6.07021	23.389
 168	1	5	-0.48162	-28.6039	-6.76032	24.6745
 169	1	5	-0.478641	-31.1043	-4.63924	21.4176
 170	1	5	-0.498568	-23.7484	-5.10233	22.3623
 171	1	6	0.153588	-31.0357	-8.30082	23.3745
 172	1	6	0.146442	-33.2523	-9.0502	24.1451
 173	1	7	0.027303	-35.3666	-7.53236	25.0993
 174	1	7	-0.256739	-35.9337	-8.59825	24.1207
 175	1	8	0.074408	-35.8702	-8.2425	23.0841
 176	1	8	0.075653	-36.9902	-8.80562	24.3301
 177	1	8	0.063017	-35.3956	-9.5506	24.1889
 178	1	7	-0.003396	-35.3606	-8.05476	26.5697
 179	1	7	0.23166	-36.609	-7.47541	27.3065
 180	1	8	0.003166	-34.4497	-7.69768	27.0694
 181	1	8	0.018046	-35.3256	-9.15107	26.616
 182	1	3	0.065056	-37.0416	-6.34599	26.3846
 183	1	7	-0.138879	-36.2374	-6.97359	28.7232
 184	1	7	-0.25744	-37.73	-8.53833	27.4114
 185	1	3	0.018858	-36.3759	-6.39781	25.1663
 186	1	8	0.063111	-38.6353	-8.10625	27.8554
 187	1	8	0.056661	-37.4138	-9.38319	28.0359
 188	1	8	0.052049	-37.9992	-8.92943	26.4232
 189	1	3	-0.499719	-38.0094	-5.35459	26.6357
 190	1	3	-0.078325	-36.6861	-5.4917	24.1412
 191	1	3	-0.430686	-37.6496	-4.49587	24.3845
 192	1	3	0.29919	-38.3124	-4.40846	25.6303
 193	1	6	0.134637	-36.1751	-5.55161	23.1826
 194	1	8	0.0139	-37.1169	-6.57779	29.2463
 195	1	8	0.03702	-35.4859	-6.1754	28.6731
 196	1	8	0.035416	-35.8251	-7.79127	29.3284
 197	1	6	0.223374	-38.5112	-5.31529	27.5982
 198	1	6	0.198405	-37.8758	-3.77492	23.6029
 199	1	1	0.464138	-3.50117	-9.63857	4.8906
 200	1	2	0.077422	-3.60776	-8.5553	5.7692
 201	1	3	0.04486	-5.01104	-8.09217	5.65603
 202	1	2	0.055008	-4.70283	-9.88963	4.21683
 203	1	3	-0.004417	-5.66306	-8.87565	4.72716
 204	1	5	-0.392499	-2.75724	-8.06246	6.49304
 205	1	5	-0.37854	-4.96093	-10.7717	3.41415
 206	1	3	-0.044101	-5.66571	-7.06281	6.33752
 207	1	3	-0.056346	-7.00683	-8.6516	4.40174
 208	1	3	-0.157726	-7.68922	-7.61304	5.07427
 209	1	3	-0.13238	-7.03549	-6.83661	6.06916
 210	1	6	0.167375	-5.12329	-6.46098	7.06555
 211	1	6	0.161059	-7.4988	-9.2613	3.64675
 212	1	6	0.140064	-8.72413	-7.40389	4.81111
 213	1	2	0.57844	-7.71583	-5.71602	6.81332
 214	1	3	-0.037172	-9.07137	-5.89691	7.46995
 215	1	3	-0.116011	-9.58233	-4.81699	8.23062
 216	1	3	-0.048223	-10.7779	-4.98873	8.93587
 217	1	3	-0.138147	-9.79897	-7.12148	7.44872
 218	1	3	-0.114262	-11.018	-7.26415	8.14885
 219	1	3	-0.063397	-11.4832	-6.17359	8.89442
 220	1	2	0.489233	-12.6341	-6.05837	9.83508
 221	1	1	-0.081676	-12.5089	-4.80557	10.4181
 222	1	2	0.489742	-11.4403	-4.08516	9.9092
 223	1	3	0.047265	-13.274	-4.34904	11.5192
 224	1	3	-0.183349	-12.6742	-4.28242	12.7858
 225	1	3	-0.091111	-13.3672	-3.73031	13.873
 226	1	3	-0.18836	-14.591	-3.89198	11.355
 227	1	3	-0.138837	-15.2885	-3.34532	12.4479
 228	1	3	0.044906	-14.6793	-3.23118	13.7166
 229	1	6	0.157291	-11.6524	-4.6264	12.9222
 230	1	6	0.112962	-12.8528	-3.67401	14.8259
 231	1	6	0.163228	-11.5595	-8.20874	8.15684
 232	1	6	0.134491	-9.40969	-7.99095	6.93017
 233	1	6	0.172124	-9.03411	-3.87938	8.32058
 234	1	5	-0.48162	-11.0404	-2.9895	10.2617
 235	1	5	-0.478641	-13.445	-6.92935	10.0964
 236	1	5	-0.498568	-7.08184	-4.69224	7.01238
 237	1	6	0.153588	-15.0638	-3.93474	10.3773
 238	1	6	0.146442	-16.2994	-2.97581	12.2997
 239	1	7	0.027303	-15.4306	-2.52935	14.8662
 240	1	7	-0.256739	-14.6402	-2.49458	16.2059
 241	1	8	0.074408	-15.2277	-2.00597	16.9946
 242	1	8	0.075653	-13.7004	-1.93715	16.1023
 243	1	8	0.063017	-14.4067	-3.50792	16.5571
 244	1	7	-0.003396	-15.8238	-1.06395	14.4811
 245	1	7	0.23166	-17.3475	-0.863498	14.7641
 246	1	8	0.003166	-15.606	-0.869315	13.4233
 247	1	8	0.018046	-15.2211	-0.334515	15.0388
 248	1	3	0.065056	-17.8038	-2.24587	15.1979
 249	1	7	-0.138879	-18.0947	-0.436718	13.4771
 250	1	7	-0.25744	-17.5749	0.18888	15.8771
 251	1	3	0.018858	-16.7727	-3.17414	15.1517
 252	1	8	0.063111	-17.0931	-0.121359	16.813
 253	1	8	0.056661	-18.6445	0.32512	16.0787
 254	1	8	0.052049	-17.1605	1.16225	15.5851
 255	1	3	-0.499719	-19.0731	-2.60493	15.6846
 256	1	3	-0.078325	-16.9967	-4.51324	15.5033
 257	1	3	-0.430686	-18.2693	-4.885	15.9789
 258	1	3	0.29919	-19.3025	-3.92908	16.118
 259	1	6	0.134637	-16.1811	-5.23236	15.4699
 260	1	8	0.0139	-18.0167	-1.21261	12.7046
 261	1	8	0.03702	-17.6774	0.492426	13.0693
 262	1	8	0.035416	-19.1607	-0.272076	13.6782
 263	1	6	0.223374	-19.8417	-1.84695	15.8031
 264	1	6	0.198405	-18.4336	-5.90702	16.3113
 265	1	1	0.464138	10.8221	-17.9638	14.5237
 266	1	2	0.077422	10.2014	-17.9361	13.2777
 267	1	3	0.04486	8.91719	-18.654	13.4808
 268	1	2	0.055008	10.045	-18.5661	15.5105
 269	1	3	-0.004417	8.82701	-19.033	14.8072
 270	1	5	-0.392499	10.645	-17.5316	12.2154
 271	1	5	-0.37854	10.3326	-18.7793	16.6767
 272	1	3	-0.044101	7.93351	-19.008	12.5527
 273	1	3	-0.056346	7.76276	-19.8079	15.2808
 274	1	3	-0.157726	6.75998	-20.1797	14.3621
 275	1	3	-0.13238	6.83035	-19.7689	13.0073
 276	1	6	0.167375	8.03257	-18.7057	11.5116
 277	1	6	0.161059	7.72642	-20.1183	16.323
 278	1	6	0.140064	5.91552	-20.778	14.7005
 279	1	2	0.57844	5.71197	-20.0963	12.0602
 280	1	3	-0.037172	5.06492	-18.9439	11.3386
 281	1	3	-0.116011	4.34947	-19.1652	10.1361
 282	1	3	-0.048223	3.77101	-18.0584	9.49583
 283	1	3	-0.138147	5.15837	-17.6294	11.8727
 284	1	3	-0.114262	4.56162	-16.5372	11.2218
 285	1	3	-0.063397	3.87162	-16.7897	10.035
 286	1	2	0.489233	3.20182	-15.838	9.12429
 287	1	1	-0.081676	2.76525	-16.5955	8.05123
 288	1	2	0.489742	3.04515	-17.9469	8.19584
 289	1	3	0.047265	2.24734	-15.9662	6.89724
 290	1	3	-0.183349	0.973572	-15.3803	6.93533
 291	1	3	-0.091111	0.609329	-14.4257	5.97269
 292	1	3	-0.18836	3.11191	-15.6766	5.83156
 293	1	3	-0.138837	2.75341	-14.7075	4.88163
 294	1	3	0.044906	1.53439	-14.0061	4.99
 295	1	6	0.157291	0.302584	-15.5889	7.76424
 296	1	6	0.112962	-0.366271	-13.9607	6.06036
 297	1	6	0.163228	4.63834	-15.5248	11.6154
 298	1	6	0.134491	5.68529	-17.4448	12.8056
 299	1	6	0.172124	4.26452	-20.1625	9.70544
 300	1	5	-0.48162	2.83998	-18.8446	7.39878
 301	1	5	-0.478641	3.13201	-14.6302	9.27385
 302	1	5	-0.498568	5.31421	-21.2407	11.926
 303	1	6	0.153588	4.10201	-16.1235	5.79639
 304	1	6	0.146442	3.46798	-14.4405	4.10925
 305	1	7	0.027303	1.30561	-12.7569	4.11343
 306	1	7	-0.256739	2.52296	-11.7964	4.22923
 307	1	8	0.074408	2.75004	-11.5906	5.28377
 308	1	8	0.075653	2.32285	-10.8329	3.74597
 309	1	8	0.063017	3.42488	-12.2151	3.76772
 310	1	7	-0.003396	1.03458	-13.1539	2.63051
 311	1	7	0.23166	-0.0993664	-12.2352	2.07496
 312	1	8	0.003166	0.69897	-14.1994	2.60273
 313	1	8	0.018046	1.9447	-13.1044	2.01831
 314	1	3	0.065056	-0.72213	-11.6758	3.34646
 315	1	7	-0.138879	-1.1078	-13.0502	1.23088
 316	1	7	-0.25744	0.487808	-11.0913	1.21008
 317	1	3	0.018858	0.0601371	-11.9547	4.45946
 318	1	8	0.063111	0.998422	-11.4908	0.324849
 319	1	8	0.056661	1.21156	-10.4935	1.77585
 320	1	8	0.052049	-0.30495	-10.4146	0.867832
 321	1	3	-0.499719	-1.89857	-10.9089	3.46464
 322	1	3	-0.078325	-0.284755	-11.4364	5.71544
 323	1	3	-0.430686	-1.47653	-10.703	5.84616
 324	1	3	0.29919	-2.30367	-10.419	4.73089
 325	1	6	0.134637	0.354457	-11.6149	6.57789
 326	1	8	0.0139	-1.58489	-13.8324	1.83476
 327	1	8	0.03702	-0.602525	-13.5338	0.384936
 328	1	8	0.035416	-1.89765	-12.4042	0.828219
 329	1	6	0.223374	-2.49495	-10.7014	2.57979
 330	1	6	0.198405	-1.74348	-10.3259	6.83072
 331	1	1	0.464138	12.9669	-2.70173	21.12
 332	1	2	0.077422	13.3673	-3.48073	20.0316
 333	1	3	0.04486	14.3117	-4.47301	20.5844
 334	1	2	0.055008	13.5497	-3.13624	22.3201
 335	1	3	-0.004417	14.4256	-4.28244	21.9446
 336	1	5	-0.392499	13.0757	-3.37235	18.8511
 337	1	5	-0.37854	13.4135	-2.6833	23.4451
 338	1	3	-0.044101	15.0746	-5.42091	19.9051
 339	1	3	-0.056346	15.3033	-5.0639	22.7118
 340	1	3	-0.157726	16.0776	-6.04746	22.0481
 341	1	3	-0.13238	15.9788	-6.21734	20.6404
 342	1	6	0.167375	14.9859	-5.51009	18.8233
 343	1	6	0.161059	15.4027	-4.88798	23.7811
 344	1	6	0.140064	16.7913	-6.63666	22.6201
 345	1	2	0.57844	16.8668	-7.14515	19.8573
 346	1	3	-0.037172	17.1359	-8.5379	20.3422
 347	1	3	-0.116011	16.3052	-9.56791	19.8538
 348	1	3	-0.048223	16.7153	-10.8932	20.0279
 349	1	3	-0.138147	18.344	-8.86363	21.0108
 350	1	3	-0.114262	18.7411	-10.2115	21.1701
 351	1	3	-0.063397	17.9074	-11.2122	20.6469
 352	1	2	0.489233	18.1538	-12.6704	20.4394
 353	1	1	-0.081676	17.0879	-13.1235	19.6685
 354	1	2	0.489742	16.1561	-12.1242	19.4226
 355	1	3	0.047265	17.0494	-14.3547	18.9578
 356	1	3	-0.183349	15.8702	-15.119	18.922
 357	1	3	-0.091111	15.6986	-16.1154	17.9458
 358	1	3	-0.18836	18.103	-14.6896	18.0914
 359	1	3	-0.138837	17.9281	-15.6812	17.1124
 360	1	3	0.044906	16.6887	-16.3405	16.9642
 361	1	6	0.157291	15.0402	-14.8689	19.5777
 362	1	6	0.112962	14.7455	-16.6346	17.8964
 363	1	6	0.163228	19.7059	-10.4683	21.6044
 364	1	6	0.134491	19.0192	-8.06885	21.32
 365	1	6	0.172124	15.427	-9.34421	19.25
 366	1	5	-0.48162	15.1603	-12.1768	18.7207
 367	1	5	-0.478641	19.1675	-13.2757	20.7415
 368	1	5	-0.498568	17.1564	-6.8651	18.7067
 369	1	6	0.153588	19.0274	-14.1172	18.1096
 370	1	6	0.146442	18.7352	-15.8616	16.4099
 371	1	7	0.027303	16.3817	-17.1634	15.692
 372	1	7	-0.256739	17.1289	-16.587	14.4552
 373	1	8	0.074408	17.0444	-15.4928	14.4288
 374	1	8	0.075653	16.7026	-16.9546	13.5148
 375	1	8	0.063017	18.1935	-16.8507	14.4643
 376	1	7	-0.003396	16.6761	-18.6881	15.878
 377	1	7	0.23166	15.5994	-19.483	15.0711
 378	1	8	0.003166	16.5728	-18.9341	16.9437
 379	1	8	0.018046	17.6995	-18.9592	15.589
 380	1	3	0.065056	14.4748	-18.4645	15.0015
 381	1	7	-0.138879	15.1584	-20.7732	15.8063
 382	1	7	-0.25744	16.0951	-19.8547	13.6462
 383	1	3	0.018858	14.9009	-17.1872	15.34
 384	1	8	0.063111	16.8136	-19.1276	13.2555
 385	1	8	0.056661	15.2552	-19.9023	12.941
 386	1	8	0.052049	16.5926	-20.8322	13.6397
 387	1	3	-0.499719	13.1305	-18.714	14.69
 388	1	3	-0.078325	14.0015	-16.1064	15.326
 389	1	3	-0.430686	12.6439	-16.3529	15.0334
 390	1	3	0.29919	12.1961	-17.6598	14.7284
 391	1	6	0.134637	14.3447	-15.1045	15.5782
 392	1	8	0.0139	14.4058	-21.3192	15.2224
 393	1	8	0.03702	14.7217	-20.5408	16.7856
 394	1	8	0.035416	16.0116	-21.445	15.962
 395	1	6	0.223374	12.8068	-19.7247	14.4587
 396	1	6	0.198405	11.9348	-15.5295	15.0647
 397	1	1	0.464138	13.5305	12.6681	9.33559
 398	1	2	0.077422	13.0647	12.2039	10.5641
 399	1	3	0.04486	12.653	10.8101	10.2896
 400	1	2	0.055008	13.6719	11.6604	8.38209
 401	1	3	-0.004417	13.009	10.4836	8.996
 402	1	5	-0.392499	12.7163	12.8596	11.5332
 403	1	5	-0.37854	13.9476	11.782	7.20009
 404	1	3	-0.044101	11.7603	10.0319	11.0277
 405	1	3	-0.056346	12.5022	9.33932	8.37247
 406	1	3	-0.157726	11.5841	8.54838	9.09318
 407	1	3	-0.13238	11.1853	8.89571	10.4119
 408	1	6	0.167375	11.4603	10.3874	12.0064
 409	1	6	0.161059	12.7389	9.12587	7.3321
 410	1	6	0.140064	11.136	7.68406	8.60487
 411	1	2	0.57844	10.1118	8.08659	11.0979
 412	1	3	-0.037172	10.1048	8.02061	12.5978
 413	1	3	-0.116011	10.418	6.78192	13.1911
 414	1	3	-0.048223	10.4448	6.70326	14.5845
 415	1	3	-0.138147	9.76502	9.13059	13.4181
 416	1	3	-0.114262	9.79972	9.02748	14.8262
 417	1	3	-0.063397	10.1581	7.79173	15.3835
 418	1	2	0.489233	10.1962	7.33781	16.8015
 419	1	1	-0.081676	10.4699	5.97534	16.7487
 420	1	2	0.489742	10.6663	5.52488	15.4522
 421	1	3	0.047265	10.3195	5.07426	17.8335
 422	1	3	-0.183349	11.275	4.07164	18.0783
 423	1	3	-0.091111	10.9915	3.01973	18.9672
 424	1	3	-0.18836	9.10441	5.04888	18.5334
 425	1	3	-0.138837	8.81513	3.9907	19.4053
 426	1	3	0.044906	9.73619	2.94174	19.608
 427	1	6	0.157291	12.2063	4.05993	17.5177
 428	1	6	0.112962	11.7238	2.22618	19.0836
 429	1	6	0.163228	9.53098	9.86755	15.4652
 430	1	6	0.134491	9.45413	10.0696	12.9651
 431	1	6	0.172124	10.6222	5.90087	12.5837
 432	1	5	-0.48162	10.8575	4.38375	15.0683
 433	1	5	-0.478641	9.92964	8.01355	17.7801
 434	1	5	-0.498568	9.41524	7.31555	10.4597
 435	1	6	0.153588	8.35034	5.80992	18.3468
 436	1	6	0.146442	7.83602	3.95717	19.8722
 437	1	7	0.027303	9.29112	1.70668	20.4125
 438	1	7	-0.256739	8.66224	2.12839	21.768
 439	1	8	0.074408	9.31159	2.84139	22.2921
 440	1	8	0.075653	8.51951	1.25836	22.4219
 441	1	8	0.063017	7.68143	2.59972	21.6324
 442	1	7	-0.003396	8.27428	0.873279	19.5611
 443	1	7	0.23166	9.04438	-0.31765	18.915
 444	1	8	0.003166	7.75428	1.47894	18.8071
 445	1	8	0.018046	7.49825	0.470497	20.2254
 446	1	3	0.065056	10.1999	-0.472734	19.886
 447	1	7	-0.138879	9.58231	0.0411672	17.5057
 448	1	7	-0.25744	8.15956	-1.58449	18.8097
 449	1	3	0.018858	10.3833	0.6706	20.6532
 450	1	8	0.063111	7.2855	-1.39479	18.174
 451	1	8	0.056661	7.8058	-1.90396	19.7974
 452	1	8	0.052049	8.7195	-2.41736	18.3654
 453	1	3	-0.499719	11.0221	-1.59744	20.0552
 454	1	3	-0.078325	11.4326	0.734898	21.5823
 455	1	3	-0.430686	12.2845	-0.380258	21.73
 456	1	3	0.29919	12.0879	-1.571	20.9847
 457	1	6	0.134637	11.5772	1.62984	22.1833
 458	1	8	0.0139	10.1236	-0.807165	17.0673
 459	1	8	0.03702	10.278	0.885605	17.5401
 460	1	8	0.035416	8.76421	0.308363	16.8255
 461	1	6	0.223374	10.8435	-2.47869	19.4448
 462	1	6	0.198405	13.0985	-0.325095	22.4495
 463	1	1	0.464138	16.4733	12.23	-4.98798
 464	1	2	0.077422	16.9281	12.891	-3.83741
 465	1	3	0.04486	16.8495	14.3401	-4.15448
 466	1	2	0.055008	16.1791	13.1385	-6.01887
 467	1	3	-0.004417	16.3681	14.4851	-5.43737
 468	1	5	-0.392499	17.2384	12.4308	-2.75048
 469	1	5	-0.37854	15.8525	12.9302	-7.1763
 470	1	3	-0.044101	17.1159	15.4519	-3.34968
 471	1	3	-0.056346	16.0728	15.7411	-5.98029
 472	1	3	-0.157726	16.3015	16.8765	-5.17673
 473	1	3	-0.13238	16.8355	16.7351	-3.87164
 474	1	6	0.167375	17.5068	15.3197	-2.34227
 475	1	6	0.161059	15.6579	15.8246	-6.98257
 476	1	6	0.140064	16.0682	17.8651	-5.56677
 477	1	2	0.57844	17.0761	17.9254	-2.99815
 478	1	3	-0.037172	15.9402	18.2826	-2.08464
 479	1	3	-0.116011	16.1981	18.3718	-0.700493
 480	1	3	-0.048223	15.1143	18.5542	0.161149
 481	1	3	-0.138147	14.6108	18.4167	-2.56767
 482	1	3	-0.114262	13.5357	18.6341	-1.67971
 483	1	3	-0.063397	13.8218	18.6851	-0.309978
 484	1	2	0.489233	12.9102	18.7524	0.862948
 485	1	1	-0.081676	13.7319	18.6048	1.96861
 486	1	2	0.489742	15.0728	18.513	1.64156
 487	1	3	0.047265	13.26	18.43	3.28483
 488	1	3	-0.183349	12.9134	19.5369	4.0709
 489	1	3	-0.091111	12.5086	19.3514	5.40159
 490	1	3	-0.18836	13.1759	17.1366	3.8192
 491	1	3	-0.138837	12.7632	16.9511	5.14544
 492	1	3	0.044906	12.454	18.0591	5.96594
 493	1	6	0.157291	12.9684	20.539	3.65547
 494	1	6	0.112962	12.2416	20.2234	5.98815
 495	1	6	0.163228	12.509	18.7108	-2.03383
 496	1	6	0.134491	14.4055	18.3328	-3.63167
 497	1	6	0.172124	17.2019	18.2303	-0.30118
 498	1	5	-0.48162	16.0184	18.325	2.38696
 499	1	5	-0.478641	11.6944	18.8299	0.836035
 500	1	5	-0.498568	18.2164	18.2717	-2.74549
 501	1	6	0.153588	13.4421	16.2749	3.21159
 502	1	6	0.146442	12.6983	15.9362	5.52964
 503	1	7	0.027303	12.0104	17.8477	7.42308
 504	1	7	-0.256739	12.4115	19.0164	8.36219
 505	1	8	0.074408	12.2263	18.7539	9.41189
 506	1	8	0.075653	11.8385	19.9264	8.14719
 507	1	8	0.063017	13.4791	19.2497	8.25886
 508	1	7	-0.003396	10.4663	17.6005	7.46648
 509	1	7	0.23166	10.1967	16.2269	8.15479
 510	1	8	0.003166	10.0581	17.5944	6.44649
 511	1	8	0.018046	9.94734	18.4138	7.99016
 512	1	3	0.065056	11.5926	15.6771	8.37016
 513	1	7	-0.138879	9.36809	15.2892	7.24063
 514	1	7	-0.25744	9.47243	16.4158	9.50918
 515	1	3	0.018858	12.586	16.5638	7.99181
 516	1	8	0.063111	9.38566	15.4614	10.0433
 517	1	8	0.056661	8.46168	16.8162	9.36096
 518	1	8	0.052049	10.0253	17.1118	10.153
 519	1	3	-0.499719	11.9195	14.4034	8.84551
 520	1	3	-0.078325	13.9433	16.2057	8.08425
 521	1	3	-0.430686	14.2811	14.9181	8.55345
 522	1	3	0.29919	13.2703	14.0082	8.93767
 523	1	6	0.134637	14.7146	16.9004	7.75792
 524	1	8	0.0139	9.87074	15.1357	6.27675
 525	1	8	0.03702	8.37435	15.71	7.04316
 526	1	8	0.035416	9.22955	14.3052	7.70586
 527	1	6	0.223374	11.1266	13.7152	9.12425
 528	1	6	0.198405	15.3247	14.6153	8.58733
 529	1	1	0.464138	13.4641	-5.33663	-11.0426
 530	1	2	0.077422	13.0541	-4.27871	-10.2387
 531	1	3	0.04486	13.8314	-4.43643	-8.98327
 532	1	2	0.055008	14.4895	-6.09203	-10.4766
 533	1	3	-0.004417	14.703	-5.49984	-9.13273
 534	1	5	-0.392499	12.191	-3.44555	-10.4614
 535	1	5	-0.37854	15.0191	-7.10027	-10.9146
 536	1	3	-0.044101	13.6298	-3.82955	-7.73998
 537	1	3	-0.056346	15.4765	-5.97139	-8.06616
 538	1	3	-0.157726	15.2866	-5.37603	-6.80097
 539	1	3	-0.13238	14.3422	-4.33193	-6.62737
 540	1	6	0.167375	12.8492	-3.08056	-7.62526
 541	1	6	0.161059	16.127	-6.8338	-8.19776
 542	1	6	0.140064	15.7988	-5.79327	-5.93678
 543	1	2	0.57844	13.8712	-3.9524	-5.25489
 544	1	3	-0.037172	14.3731	-2.68019	-4.64483
 545	1	3	-0.116011	13.4623	-1.62499	-4.40584
 546	1	3	-0.048223	13.9562	-0.432719	-3.86033
 547	1	3	-0.138147	15.7393	-2.53347	-4.29928
 548	1	3	-0.114262	16.2094	-1.33122	-3.73385
 549	1	3	-0.063397	15.2885	-0.292737	-3.54207
 550	1	2	0.489233	15.5294	1.12307	-3.17759
 551	1	1	-0.081676	14.3151	1.79166	-3.37123
 552	1	2	0.489742	13.2958	0.889608	-3.68811
 553	1	3	0.047265	14.2509	3.20996	-3.59827
 554	1	3	-0.183349	15.2083	4.07376	-3.03067
 555	1	3	-0.091111	15.5417	5.28076	-3.66705
 556	1	3	-0.18836	13.4369	3.73091	-4.62412
 557	1	3	-0.138837	13.7404	4.95888	-5.22931
 558	1	3	0.044906	14.9058	5.66649	-4.86524
 559	1	6	0.157291	15.8309	3.74049	-2.20504
 560	1	6	0.112962	16.4161	5.81746	-3.31629
 561	1	6	0.163228	17.2616	-1.1879	-3.49418
 562	1	6	0.134491	16.4356	-3.35055	-4.4732
 563	1	6	0.172124	12.4134	-1.7124	-4.68589
 564	1	5	-0.48162	12.1251	1.11758	-3.94029
 565	1	5	-0.478641	16.6375	1.58562	-2.96464
 566	1	5	-0.498568	12.8991	-4.51628	-4.78638
 567	1	6	0.153588	12.6432	3.14023	-5.06931
 568	1	6	0.146442	13.1357	5.25074	-6.07776
 569	1	7	0.027303	15.6801	6.55823	-5.86954
 570	1	7	-0.256739	17.0405	5.85938	-6.1603
 571	1	8	0.074408	17.6506	5.7468	-5.25664
 572	1	8	0.075653	17.6407	6.42483	-6.88398
 573	1	8	0.063017	16.8714	4.85424	-6.56965
 574	1	7	-0.003396	14.9692	6.79774	-7.25047
 575	1	7	0.23166	14.322	8.21016	-7.2297
 576	1	8	0.003166	14.2783	6.01446	-7.57245
 577	1	8	0.018046	15.7371	6.80245	-8.03491
 578	1	3	0.065056	15.1643	8.89875	-6.17269
 579	1	7	-0.138879	12.8406	8.17018	-6.78891
 580	1	7	-0.25744	14.4366	8.87795	-8.62477
 581	1	3	0.018858	15.8897	7.99575	-5.40631
 582	1	8	0.063111	15.4849	8.94395	-8.94441
 583	1	8	0.056661	14.0271	9.89515	-8.61568
 584	1	8	0.052049	13.8876	8.30032	-9.37921
 585	1	3	-0.499719	15.3098	10.2822	-5.99882
 586	1	3	-0.078325	16.8067	8.47214	-4.45615
 587	1	3	-0.430686	16.9909	9.86406	-4.31342
 588	1	3	0.29919	16.2612	10.8033	-5.09019
 589	1	6	0.134637	17.4066	7.77989	-3.8722
 590	1	8	0.0139	12.4248	9.18522	-6.74478
 591	1	8	0.03702	12.7343	7.72326	-5.79296
 592	1	8	0.035416	12.2361	7.58782	-7.4954
 593	1	6	0.223374	14.7118	10.9401	-6.62008
 594	1	6	0.198405	17.7294	10.2088	-3.59398
 595	1	1	0.464138	1.87915	-6.44707	-26.5173
 596	1	2	0.077422	1.6018	-5.59745	-25.4388
 597	1	3	0.04486	0.776508	-6.40488	-24.5071
 598	1	2	0.055008	1.16911	-7.65002	-26.4359
 599	1	3	-0.004417	0.516703	-7.62646	-25.1002
 600	1	5	-0.392499	2.09682	-4.51427	-25.1687
 601	1	5	-0.37854	1.25548	-8.63077	-27.1566
 602	1	3	-0.044101	0.639522	-6.21803	-23.1257
 603	1	3	-0.056346	0.0280863	-8.70963	-24.359
 604	1	3	-0.157726	-0.0635724	-8.56198	-22.9599
 605	1	3	-0.13238	0.322484	-7.34977	-22.3374
 606	1	6	0.167375	1.02381	-5.30726	-22.6695
 607	1	6	0.161059	-0.110098	-9.68091	-24.8296
 608	1	6	0.140064	-0.27655	-9.4359	-22.3461
 609	1	2	0.57844	0.814325	-7.40613	-20.9153
 610	1	3	-0.037172	2.3238	-7.3831	-20.7335
 611	1	3	-0.116011	2.91262	-7.47808	-19.4429
 612	1	3	-0.048223	4.31841	-7.44137	-19.3405
 613	1	3	-0.138147	3.18305	-7.33381	-21.8695
 614	1	3	-0.114262	4.57398	-7.26768	-21.7418
 615	1	3	-0.063397	5.10855	-7.27958	-20.4587
 616	1	2	0.489233	6.52502	-7.22683	-20.0498
 617	1	1	-0.081676	6.53316	-7.46511	-18.6824
 618	1	2	0.489742	5.24075	-7.59277	-18.172
 619	1	3	0.047265	7.74722	-7.53924	-17.9354
 620	1	3	-0.183349	7.88272	-6.92411	-16.6764
 621	1	3	-0.091111	9.14604	-6.8279	-16.0585
 622	1	3	-0.18836	8.88254	-8.12943	-18.5206
 623	1	3	-0.138837	10.1395	-8.01864	-17.9156
 624	1	3	0.044906	10.2979	-7.34676	-16.6885
 625	1	6	0.157291	7.0198	-6.46887	-16.1967
 626	1	6	0.112962	9.22976	-6.28858	-15.1197
 627	1	6	0.163228	5.22119	-7.2507	-22.6154
 628	1	6	0.134491	2.80188	-7.37392	-22.8814
 629	1	6	0.172124	2.29615	-7.59231	-18.5515
 630	1	5	-0.48162	4.90994	-7.83321	-17.0246
 631	1	5	-0.478641	7.45718	-6.94281	-20.783
 632	1	5	-0.498568	0.0558629	-7.63539	-19.9897
 633	1	6	0.153588	8.81648	-8.60891	-19.4944
 634	1	6	0.146442	11.0025	-8.39982	-18.4512
 635	1	7	0.027303	11.7227	-7.04838	-16.1903
 636	1	7	-0.256739	12.6492	-8.29522	-16.2802
 637	1	8	0.074408	12.849	-8.59923	-17.3131
 638	1	8	0.075653	12.2015	-9.14727	-15.7523
 639	1	8	0.063017	13.6216	-8.09737	-15.8101
 640	1	7	-0.003396	12.2996	-5.85624	-17.0199
 641	1	7	0.23166	13.1222	-4.93729	-16.0673
 642	1	8	0.003166	11.4669	-5.27726	-17.4428
 643	1	8	0.018046	12.8934	-6.20498	-17.8747
 644	1	3	0.065056	12.7272	-5.45302	-14.6969
 645	1	7	-0.138879	12.7183	-3.4497	-16.2163
 646	1	7	-0.25744	14.6407	-5.09467	-16.3245
 647	1	3	0.018858	11.8604	-6.53823	-14.7676
 648	1	8	0.063111	14.9507	-6.14284	-16.2367
 649	1	8	0.056661	15.2251	-4.50881	-15.6048
 650	1	8	0.052049	14.9012	-4.74734	-17.3325