pySIMM System Object

1850 atoms
2045 bonds
3612 angles
5792 dihedrals
588 impropers

8 atom types
10 bond types
17 angle types
9 dihedral types
4 improper types

-183.666281 183.666281 xlo xhi
-183.666281 183.666281 ylo yhi
-183.666281 183.666281 zlo zhi

Masses

   1	14.01	# n
   2	12.01	# c
   3	12.01	# ca
   4	1.008	# hn
   5	16.0	# o
   6	1.008	# ha
   7	12.01	# c3
   8	1.008	# hc

Pair Coeffs

   1	0.17	3.249998523775958	# n
   2	0.086	3.3996695084235347	# c
   3	0.086	3.3996695084235347	# ca
   4	0.0157	1.069078461768407	# hn
   5	0.21	2.959921901149463	# o
   6	0.015	2.59964245953351	# ha
   7	0.1094	3.3996695084235347	# c3
   8	0.0157	2.649532787749369	# hc

Bond Coeffs

   1	427.6	1.3789	# c,n
   2	461.1	1.3984	# ca,ca
   3	345.9	1.4906	# c,ca
   4	300.9	1.5375	# c3,c3
   5	345.8	1.086	# ca,ha
   6	384.2	1.4121	# ca,n
   7	637.7	1.2183	# c,o
   8	321.0	1.5156	# c3,ca
   9	330.6	1.0969	# c3,hc
  10	403.2	1.0129	# hn,n

Angle Coeffs

   1	63.82	123.71	# c,n,ca
   2	67.87	120.19	# ca,ca,n
   3	67.68	115.25	# ca,c,n
   4	63.15	112.07	# c3,c3,ca
   5	63.0	118.11	# ca,c,ca
   6	63.56	112.24	# ca,c3,ca
   7	46.34	109.8	# c3,c3,hc
   8	48.33	117.55	# c,n,hn
   9	74.22	123.05	# n,c,o
  10	64.28	120.33	# c,ca,ca
  11	39.4	107.58	# hc,c3,hc
  12	66.62	120.02	# ca,ca,ca
  13	63.53	120.77	# c3,ca,ca
  14	62.86	111.51	# c3,c3,c3
  15	63.74	127.08	# c,n,c
  16	48.18	119.88	# ca,ca,ha
  17	68.72	122.6	# ca,c,o

Dihedral Coeffs

   1	2	2.5	2	180	2.0	1	0	# hn,n,c,o
   2	1	3.625	2	180	# X,ca,ca,X
   3	1	0.16	3	0	# hc,c3,c3,c3
   4	1	1.0	2	180	# X,c,ca,X
   5	1	0.15555555555555556	3	0	# X,c3,c3,X
   6	1	0.0	2	0	# X,c3,ca,X
   7	3	0.18	3	0	0.25	2	180	0.2	1	180	# c3,c3,c3,c3
   8	1	2.5	2	180	# X,c,n,X
   9	1	0.45	2	180	# X,ca,n,X

Improper Coeffs

   1	1.1	-1	2	# ca,ca,ca,c3
   2	1.1	-1	2	# n,X,X,hn
   3	1.1	-1	2	# ca,X,X,ha
   4	10.5	-1	2	# c,X,X,o

Atoms

   1	1	1	0.464138	86.7087	71.0058	-80.5227
   2	1	2	0.077422	87.2497	72.2242	-80.104
   3	1	3	0.04486	88.7026	72.1288	-80.399
   4	1	2	0.055008	87.6763	70.13	-81.0146
   5	1	3	-0.004417	88.9539	70.8796	-80.9353
   6	1	5	-0.392499	86.6752	73.1977	-79.6433
   7	1	5	-0.37854	87.529	69.0066	-81.4666
   8	1	3	-0.044101	89.7113	73.0953	-80.2783
   9	1	3	-0.056346	90.2287	70.5155	-81.3771
  10	1	3	-0.157726	91.2587	71.4692	-81.2627
  11	1	3	-0.13238	91.0157	72.7522	-80.7078
  12	1	6	0.167375	89.4716	74.09	-79.908
  13	1	6	0.161059	90.4029	69.5391	-81.8245
  14	1	6	0.140064	92.2532	71.2249	-81.6332
  15	1	2	0.57844	92.135	73.7574	-80.7168
  16	1	3	-0.037172	92.6388	74.3766	-79.4309
  17	1	3	-0.116011	93.8469	75.1139	-79.4788
  18	1	3	-0.048223	94.3753	75.626	-78.2891
  19	1	3	-0.138147	91.9968	74.189	-78.1745
  20	1	3	-0.114262	92.5377	74.7357	-76.9893
  21	1	3	-0.063397	93.7396	75.4507	-77.0798
  22	1	2	0.489233	94.589	76.0654	-76.0219
  23	1	1	-0.081676	95.7211	76.5524	-76.6727
  24	1	2	0.489742	95.6554	76.3375	-78.0464
  25	1	3	0.047265	96.8505	77.1341	-76.0177
  26	1	3	-0.183349	97.3268	76.615	-74.7991
  27	1	3	-0.091111	98.4775	77.1477	-74.1925
  28	1	3	-0.18836	97.5482	78.206	-76.6048
  29	1	3	-0.138837	98.7115	78.7227	-76.0107
  30	1	3	0.044906	99.2031	78.1946	-74.7971
  31	1	6	0.157291	96.8137	75.7873	-74.3169
  32	1	6	0.112962	98.8186	76.7261	-73.2516
  33	1	6	0.163228	92.0579	74.583	-76.024
  34	1	6	0.134491	91.0884	73.6	-78.098
  35	1	6	0.172124	94.3884	75.2526	-80.4144
  36	1	5	-0.48162	96.4881	76.5986	-78.8976
  37	1	5	-0.478641	94.3347	76.0819	-74.8297
  38	1	5	-0.498568	92.7303	73.9525	-81.7636
  39	1	6	0.153588	97.2097	78.6284	-77.5478
  40	1	6	0.146442	99.2304	79.5259	-76.5233
  41	1	7	0.027303	100.491	78.719	-74.1266
  42	1	7	-0.256739	100.157	79.3729	-72.7608
  43	1	8	0.074408	99.3997	80.1574	-72.8782
  44	1	8	0.075653	101.05	79.8309	-72.315
  45	1	8	0.063017	99.7671	78.6344	-72.0499
  46	1	7	-0.003396	101.541	77.5713	-73.9545
  47	1	7	0.23166	102.518	77.6251	-75.1684
  48	1	8	0.003166	101.086	76.5796	-73.8424
  49	1	8	0.018046	102.113	77.752	-73.0343
  50	1	3	0.065056	102.373	79.0708	-75.6087
  51	1	7	-0.138879	102.065	76.6657	-76.2955
  52	1	7	-0.25744	103.966	77.2823	-74.7381
  53	1	3	0.018858	101.272	79.6799	-75.0144
  54	1	8	0.063111	104.329	77.9937	-73.985
  55	1	8	0.056661	104.651	77.3221	-75.5941
  56	1	8	0.052049	104.018	76.2738	-74.3091
  57	1	3	-0.499719	103.205	79.7844	-76.4913
  58	1	3	-0.078325	100.983	81.0325	-75.264
  59	1	3	-0.430686	101.813	81.7496	-76.1479
  60	1	3	0.29919	102.917	81.1306	-76.7623
  61	1	6	0.134637	100.125	81.5087	-74.7971
  62	1	8	0.0139	101.04	76.8844	-76.6182
  63	1	8	0.03702	102.099	75.6221	-75.9588
  64	1	8	0.035416	102.719	76.7599	-77.172
  65	1	6	0.223374	104.059	79.3079	-76.9602
  66	1	6	0.198405	101.605	82.7927	-76.3652
  67	1	1	0.464138	69.1274	58.2204	-82.9507
  68	1	2	0.077422	70.0913	58.4101	-83.9397
  69	1	3	0.04486	71.0596	59.371	-83.3565
  70	1	2	0.055008	69.3747	58.9731	-81.8023
  71	1	3	-0.004417	70.6305	59.7135	-82.0894
  72	1	5	-0.392499	70.1647	57.8904	-85.0416
  73	1	5	-0.37854	68.7292	59.0185	-80.7679
  74	1	3	-0.044101	72.2341	59.8987	-83.902
  75	1	3	-0.056346	71.3414	60.625	-81.3019
  76	1	3	-0.157726	72.5267	61.1771	-81.834
  77	1	3	-0.13238	72.9953	60.8048	-83.1254
  78	1	6	0.167375	72.5432	59.6115	-84.9062
  79	1	6	0.161059	70.9755	60.9018	-80.3152
  80	1	6	0.140064	73.0642	61.9146	-81.2427
  81	1	2	0.57844	74.2412	61.4012	-83.7373
  82	1	3	-0.037172	75.2867	62.0573	-82.8711
  83	1	3	-0.116011	75.9165	63.2298	-83.346
  84	1	3	-0.048223	76.8718	63.8509	-82.5334
  85	1	3	-0.138147	75.6721	61.5172	-81.614
  86	1	3	-0.114262	76.6445	62.1572	-80.8142
  87	1	3	-0.063397	77.2253	63.3359	-81.3021
  88	1	2	0.489233	78.2006	64.2723	-80.6741
  89	1	1	-0.081676	78.3376	65.3237	-81.5709
  90	1	2	0.489742	77.5994	65.1296	-82.73
  91	1	3	0.047265	79.017	66.538	-81.287
  92	1	3	-0.183349	78.292	67.7393	-81.294
  93	1	3	-0.091111	78.935	68.9602	-81.0513
  94	1	3	-0.18836	80.3945	66.5716	-81.0069
  95	1	3	-0.138837	81.0426	67.801	-80.7716
  96	1	3	0.044906	80.3234	69.0172	-80.8136
  97	1	6	0.157291	77.2256	67.7311	-81.5027
  98	1	6	0.112962	78.3396	69.8668	-81.0564
  99	1	6	0.163228	76.9299	61.762	-79.8407
 100	1	6	0.134491	75.2172	60.5959	-81.2565
 101	1	6	0.172124	75.6481	63.6622	-84.3095
 102	1	5	-0.48162	77.4669	65.8911	-83.6724
 103	1	5	-0.478641	78.6882	64.167	-79.5622
 104	1	5	-0.498568	74.3745	61.4055	-84.95
 105	1	6	0.153588	80.9651	65.6465	-80.9773
 106	1	6	0.146442	82.1079	67.7976	-80.5584
 107	1	7	0.027303	80.9917	70.3859	-80.5738
 108	1	7	-0.256739	80.494	71.4513	-81.5926
 109	1	8	0.074408	79.4442	71.7218	-81.4305
 110	1	8	0.075653	80.5942	71.085	-82.6225
 111	1	8	0.063017	81.0811	72.3755	-81.5081
 112	1	7	-0.003396	80.7298	70.8719	-79.1113
 113	1	7	0.23166	82.0956	70.9818	-78.362
 114	1	8	0.003166	80.048	70.1901	-78.5854
 115	1	8	0.018046	80.2261	71.8476	-79.1223
 116	1	3	0.065056	83.113	70.7516	-79.4654
 117	1	7	-0.138879	82.2235	69.8773	-77.2856
 118	1	7	-0.25744	82.259	72.3759	-77.7078
 119	1	3	0.018858	82.5087	70.361	-80.6522
 120	1	8	0.063111	83.2204	72.4579	-77.1863
 121	1	8	0.056661	81.4612	72.5608	-76.9773
 122	1	8	0.052049	82.2189	73.1689	-78.4656
 123	1	3	-0.499719	84.5061	70.9369	-79.3901
 124	1	3	-0.078325	83.2806	70.111	-81.796
 125	1	3	-0.430686	84.6751	70.2899	-81.7269
 126	1	3	0.29919	85.3052	70.7265	-80.5365
 127	1	6	0.134637	82.8019	69.816	-82.7273
 128	1	8	0.0139	82.1067	68.8807	-77.731
 129	1	8	0.03702	81.4565	69.9945	-76.5096
 130	1	8	0.035416	83.2066	69.9161	-76.7998
 131	1	6	0.223374	84.9555	71.2918	-78.4666
 132	1	6	0.198405	85.2743	70.1122	-82.6175
 133	1	1	0.464138	48.9932	53.3427	-77.7916
 134	1	2	0.077422	50.0596	52.8553	-77.0314
 135	1	3	0.04486	51.2461	53.6152	-77.4892
 136	1	2	0.055008	49.3877	54.3535	-78.6745
 137	1	3	-0.004417	50.8526	54.4992	-78.4717
 138	1	5	-0.392499	50.0694	51.9487	-76.2139
 139	1	5	-0.37854	48.71	54.9815	-79.472
 140	1	3	-0.044101	52.5838	53.4868	-77.1067
 141	1	3	-0.056346	51.7839	55.2989	-79.1421
 142	1	3	-0.157726	53.1452	55.1734	-78.7877
 143	1	3	-0.13238	53.5595	54.2773	-77.7608
 144	1	6	0.167375	52.857	52.7594	-76.3434
 145	1	6	0.161059	51.4615	55.9705	-79.9351
 146	1	6	0.140064	53.8707	55.7598	-79.3433
 147	1	2	0.57844	55.0098	54.0572	-77.39
 148	1	3	-0.037172	56.1093	54.751	-78.1463
 149	1	3	-0.116011	57.1282	53.9562	-78.7165
 150	1	3	-0.048223	58.1586	54.5944	-79.4144
 151	1	3	-0.138147	56.1779	56.1656	-78.2518
 152	1	3	-0.114262	57.232	56.7887	-78.955
 153	1	3	-0.063397	58.2097	55.9682	-79.5347
 154	1	2	0.489233	59.4196	56.3139	-80.3298
 155	1	1	-0.081676	60.0211	55.1015	-80.6496
 156	1	2	0.489742	59.3262	54.0182	-80.1275
 157	1	3	0.047265	61.2033	54.9729	-81.4303
 158	1	3	-0.183349	61.2642	54.0375	-82.4778
 159	1	3	-0.091111	62.4371	53.89	-83.2338
 160	1	3	-0.18836	62.3326	55.7649	-81.16
 161	1	3	-0.138837	63.5068	55.6185	-81.9185
 162	1	3	0.044906	63.5782	54.6725	-82.9655
 163	1	6	0.157291	60.4053	53.4104	-82.7023
 164	1	6	0.112962	62.4563	53.1585	-84.0361
 165	1	6	0.163228	57.2954	57.872	-79.0438
 166	1	6	0.134491	55.4185	56.782	-77.7753
 167	1	6	0.172124	57.1148	52.8708	-78.623
 168	1	5	-0.48162	59.5803	52.8312	-80.2398
 169	1	5	-0.478641	59.7752	57.4378	-80.64
 170	1	5	-0.498568	55.3063	53.1931	-76.5812
 171	1	6	0.153588	62.3033	56.501	-80.3601
 172	1	6	0.146442	64.3529	56.2562	-81.6814
 173	1	7	0.027303	64.8431	54.477	-83.8233
 174	1	7	-0.256739	65.3239	53.0018	-83.7659
 175	1	8	0.074408	65.4571	52.6737	-82.7272
 176	1	8	0.075653	66.2855	52.8822	-84.2822
 177	1	8	0.063017	64.6055	52.3238	-84.2424
 178	1	7	-0.003396	64.5785	54.9157	-85.2999
 179	1	7	0.23166	65.1037	56.3732	-85.4673
 180	1	8	0.003166	63.5237	54.8232	-85.5892
 181	1	8	0.018046	65.1431	54.2569	-85.9734
 182	1	3	0.065056	66.1285	56.4572	-84.3486
 183	1	7	-0.138879	63.9705	57.4037	-85.2398
 184	1	7	-0.25744	65.7287	56.5865	-86.8678
 185	1	3	0.018858	65.9761	55.4168	-83.44
 186	1	8	0.063111	66.09	57.6156	-86.9849
 187	1	8	0.056661	64.9907	56.396	-87.6571
 188	1	8	0.052049	66.5798	55.9115	-87.0246
 189	1	3	-0.499719	67.1509	57.4095	-84.1902
 190	1	3	-0.078325	66.8285	55.3064	-82.3309
 191	1	3	-0.430686	67.8499	56.2606	-82.1624
 192	1	3	0.29919	68.0353	57.3109	-83.0928
 193	1	6	0.134637	66.7015	54.495	-81.6179
 194	1	8	0.0139	64.3577	58.4289	-85.2962
 195	1	8	0.03702	63.5066	57.2764	-84.2544
 196	1	8	0.035416	63.185	57.296	-85.9983
 197	1	6	0.223374	67.2811	58.1943	-84.9307
 198	1	6	0.198405	68.5147	56.18	-81.3053
 199	1	1	0.464138	30.6875	55.4385	-67.9672
 200	1	2	0.077422	31.4502	56.4662	-68.5206
 201	1	3	0.04486	32.8213	55.9073	-68.6375
 202	1	2	0.055008	31.4401	54.3045	-67.6657
 203	1	3	-0.004417	32.8145	54.6239	-68.1219
 204	1	5	-0.392499	31.078	57.5562	-68.9233
 205	1	5	-0.37854	31.0607	53.2361	-67.2148
 206	1	3	-0.044101	33.956	56.4409	-69.2614
 207	1	3	-0.056346	33.9489	53.8084	-68.1653
 208	1	3	-0.157726	35.0988	54.319	-68.7994
 209	1	3	-0.13238	35.0984	55.6171	-69.3772
 210	1	6	0.167375	33.9243	57.4335	-69.7081
 211	1	6	0.161059	33.9188	52.7978	-67.7626
 212	1	6	0.140064	35.9822	53.6879	-68.8804
 213	1	2	0.57844	36.2665	56.0825	-70.2031
 214	1	3	-0.037172	36.7868	55.1468	-71.2679
 215	1	3	-0.116011	38.1032	55.2966	-71.7708
 216	1	3	-0.048223	38.5517	54.3885	-72.7438
 217	1	3	-0.138147	35.9508	54.1222	-71.7921
 218	1	3	-0.114262	36.4202	53.224	-72.7663
 219	1	3	-0.063397	37.7333	53.3806	-73.215
 220	1	2	0.489233	38.4964	52.5719	-74.1932
 221	1	1	-0.081676	39.7609	53.1395	-74.2453
 222	1	2	0.489742	39.8741	54.2534	-73.4207
 223	1	3	0.047265	40.8114	52.5959	-75.0319
 224	1	3	-0.183349	41.5445	53.3965	-75.9236
 225	1	3	-0.091111	42.5197	52.8178	-76.755
 226	1	3	-0.18836	41.0887	51.2202	-74.9633
 227	1	3	-0.138837	42.0549	50.6417	-75.7988
 228	1	3	0.044906	42.776	51.4294	-76.7209
 229	1	6	0.157291	41.3509	54.4646	-75.9837
 230	1	6	0.112962	43.069	53.453	-77.4447
 231	1	6	0.163228	35.7895	52.429	-73.1607
 232	1	6	0.134491	34.9234	54.0183	-71.4524
 233	1	6	0.172124	38.7608	56.0836	-71.4026
 234	1	5	-0.48162	40.8483	54.965	-73.2494
 235	1	5	-0.478641	38.0814	51.5899	-74.7845
 236	1	5	-0.498568	36.7142	57.2087	-70.0722
 237	1	6	0.153588	40.5296	50.5852	-74.2805
 238	1	6	0.146442	42.2177	49.5721	-75.7249
 239	1	7	0.027303	43.8235	50.8221	-77.6747
 240	1	7	-0.256739	44.0977	49.3109	-77.4344
 241	1	8	0.074408	44.8859	48.9415	-78.1023
 242	1	8	0.075653	43.1998	48.7073	-77.619
 243	1	8	0.063017	44.4344	49.129	-76.4056
 244	1	7	-0.003396	43.4414	51.0498	-79.1743
 245	1	7	0.23166	44.6967	51.6007	-79.9262
 246	1	8	0.003166	42.6202	51.7747	-79.2454
 247	1	8	0.018046	43.0639	50.1294	-79.6393
 248	1	3	0.065056	45.6423	51.9541	-78.7894
 249	1	7	-0.138879	44.3345	52.8496	-80.7664
 250	1	7	-0.25744	45.318	50.5187	-80.8435
 251	1	3	0.018858	45.14	51.559	-77.5586
 252	1	8	0.063111	44.6075	50.2083	-81.62
 253	1	8	0.056661	45.6041	49.6298	-80.2685
 254	1	8	0.052049	46.2185	50.8993	-81.3415
 255	1	3	-0.499719	46.9045	52.567	-78.8857
 256	1	3	-0.078325	45.8532	51.8055	-76.3794
 257	1	3	-0.430686	47.1066	52.4368	-76.4672
 258	1	3	0.29919	47.6659	52.804	-77.7162
 259	1	6	0.134637	45.4521	51.4909	-75.4183
 260	1	8	0.0139	45.2173	53.2479	-81.2822
 261	1	8	0.03702	43.9306	53.6465	-80.1288
 262	1	8	0.035416	43.5804	52.6053	-81.5253
 263	1	6	0.223374	47.2938	52.8433	-79.8626
 264	1	6	0.198405	47.6728	52.5989	-75.5526
 265	1	1	0.464138	19.4125	41.9901	-60.1225
 266	1	2	0.077422	20.3351	43.0334	-60.2715
 267	1	3	0.04486	19.5322	44.2844	-60.2055
 268	1	2	0.055008	18.1055	42.4618	-59.9657
 269	1	3	-0.004417	18.2089	43.9378	-60.0181
 270	1	5	-0.392499	21.5419	42.9726	-60.445
 271	1	5	-0.37854	17.0666	41.8298	-59.8625
 272	1	3	-0.044101	19.9285	45.6247	-60.3281
 273	1	3	-0.056346	17.2042	44.902	-59.9139
 274	1	3	-0.157726	17.5836	46.2528	-60.0184
 275	1	3	-0.13238	18.9278	46.6276	-60.264
 276	1	6	0.167375	20.979	45.8675	-60.4731
 277	1	6	0.161059	16.1656	44.6106	-59.7673
 278	1	6	0.140064	16.8261	47.0238	-59.9269
 279	1	2	0.57844	19.2378	48.0958	-60.422
 280	1	3	-0.037172	20.1755	48.5779	-61.5069
 281	1	3	-0.116011	20.5762	49.9384	-61.5081
 282	1	3	-0.048223	21.3911	50.4012	-62.5508
 283	1	3	-0.138147	20.5933	47.7338	-62.5731
 284	1	3	-0.114262	21.432	48.2138	-63.5982
 285	1	3	-0.063397	21.8112	49.5588	-63.5596
 286	1	2	0.489233	22.6158	50.3509	-64.5229
 287	1	1	-0.081676	22.6194	51.6487	-64.0328
 288	1	2	0.489742	21.9133	51.7665	-62.843
 289	1	3	0.047265	23.2317	52.7282	-64.7219
 290	1	3	-0.183349	24.591	52.6619	-65.0661
 291	1	3	-0.091111	25.1753	53.6618	-65.8596
 292	1	3	-0.18836	22.471	53.8297	-65.1473
 293	1	3	-0.138837	23.0532	54.8244	-65.9525
 294	1	3	0.044906	24.4065	54.7444	-66.3438
 295	1	6	0.157291	25.1908	51.8117	-64.7515
 296	1	6	0.112962	26.2245	53.5574	-66.114
 297	1	6	0.163228	21.7531	47.5733	-64.4182
 298	1	6	0.134491	20.2442	46.708	-62.6402
 299	1	6	0.172124	20.2421	50.6263	-60.7315
 300	1	5	-0.48162	21.7191	52.7717	-62.1824
 301	1	5	-0.478641	23.1171	49.9315	-65.5517
 302	1	5	-0.498568	18.6232	48.907	-59.7477
 303	1	6	0.153588	21.4186	53.8984	-64.8828
 304	1	6	0.146442	22.4381	55.6499	-66.2992
 305	1	7	0.027303	24.9779	55.7905	-67.324
 306	1	7	-0.256739	24.1786	55.7666	-68.6546
 307	1	8	0.074408	24.148	54.7528	-69.0739
 308	1	8	0.075653	24.6388	56.4252	-69.4028
 309	1	8	0.063017	23.1437	56.0991	-68.5084
 310	1	7	-0.003396	24.972	57.2231	-66.6996
 311	1	7	0.23166	26.4049	57.5223	-66.1621
 312	1	8	0.003166	24.2084	57.342	-65.9202
 313	1	8	0.018046	24.7281	57.9523	-67.484
 314	1	3	0.065056	27.2494	56.5369	-66.95
 315	1	7	-0.138879	26.5025	57.2204	-64.6478
 316	1	7	-0.25744	26.8121	58.9912	-66.436
 317	1	3	0.018858	26.4611	55.5948	-67.5986
 318	1	8	0.063111	27.8198	59.1984	-66.0557
 319	1	8	0.056661	26.1167	59.6872	-65.9505
 320	1	8	0.052049	26.8111	59.2027	-67.5132
 321	1	3	-0.499719	28.6517	56.5048	-67.0564
 322	1	3	-0.078325	27.0484	54.595	-68.3885
 323	1	3	-0.430686	28.4507	54.5497	-68.4911
 324	1	3	0.29919	29.2681	55.4979	-67.8309
 325	1	6	0.134637	26.4295	53.8539	-68.8892
 326	1	8	0.0139	26.2106	56.1851	-64.431
 327	1	8	0.03702	25.8457	57.8853	-64.0729
 328	1	8	0.035416	27.529	57.3625	-64.2873
 329	1	6	0.223374	29.254	57.2576	-66.555
 330	1	6	0.198405	28.912	53.7608	-69.0809
 331	1	1	0.464138	15.7302	42.8215	-69.3256
 332	1	2	0.077422	15.4422	41.6875	-68.5677
 333	1	3	0.04486	14.9444	40.6874	-69.5415
 334	1	2	0.055008	15.4622	42.6449	-70.6843
 335	1	3	-0.004417	14.9629	41.2489	-70.8023
 336	1	5	-0.392499	15.5579	41.5221	-67.364
 337	1	5	-0.37854	15.5952	43.4443	-71.5961
 338	1	3	-0.044101	14.5002	39.3812	-69.321
 339	1	3	-0.056346	14.541	40.5256	-71.9236
 340	1	3	-0.157726	14.1072	39.1958	-71.7283
 341	1	3	-0.13238	14.097	38.6047	-70.4361
 342	1	6	0.167375	14.4653	39.003	-68.3019
 343	1	6	0.161059	14.5505	40.9818	-72.9114
 344	1	6	0.140064	13.7734	38.6149	-72.5871
 345	1	2	0.57844	13.613	37.1826	-70.2583
 346	1	3	-0.037172	14.0415	36.4139	-69.0333
 347	1	3	-0.116011	15.358	36.5384	-68.5295
 348	1	3	-0.048223	15.6707	35.9019	-67.3238
 349	1	3	-0.138147	13.1083	35.5902	-68.3512
 350	1	3	-0.114262	13.447	34.9558	-67.1362
 351	1	3	-0.063397	14.7415	35.1472	-66.635
 352	1	2	0.489233	15.3472	34.745	-65.3341
 353	1	1	-0.081676	16.6072	35.3256	-65.3217
 354	1	2	0.489742	16.8986	35.9988	-66.4973
 355	1	3	0.047265	17.4205	35.4469	-64.1707
 356	1	3	-0.183349	17.1686	36.4967	-63.2775
 357	1	3	-0.091111	18.06	36.7661	-62.2305
 358	1	3	-0.18836	18.5402	34.6246	-63.9723
 359	1	3	-0.138837	19.427	34.8867	-62.9113
 360	1	3	0.044906	19.23	35.992	-62.0533
 361	1	6	0.157291	16.3062	37.1418	-63.4235
 362	1	6	0.112962	17.8424	37.6188	-61.598
 363	1	6	0.163228	12.7172	34.3704	-66.5796
 364	1	6	0.134491	12.0993	35.4838	-68.7462
 365	1	6	0.172124	16.1084	37.1494	-69.0289
 366	1	5	-0.48162	17.8877	36.6602	-66.7616
 367	1	5	-0.478641	14.787	34.154	-64.4279
 368	1	5	-0.498568	12.8427	36.6855	-71.0627
 369	1	6	0.153588	18.7467	33.8108	-64.6623
 370	1	6	0.146442	20.3017	34.2548	-62.7897
 371	1	7	0.027303	20.3117	36.379	-61.018
 372	1	7	-0.256739	20.3559	35.3522	-59.8592
 373	1	8	0.074408	21.0701	35.66	-59.0845
 374	1	8	0.075653	20.6549	34.3612	-60.2231
 375	1	8	0.063017	19.3693	35.2517	-59.3894
 376	1	7	-0.003396	21.707	36.533	-61.7067
 377	1	7	0.23166	21.8173	38.0022	-62.2187
 378	1	8	0.003166	21.8925	35.8047	-62.5047
 379	1	8	0.018046	22.4861	36.3633	-60.9511
 380	1	3	0.065056	20.871	38.7154	-61.2678
 381	1	7	-0.138879	21.3383	38.1356	-63.6857
 382	1	7	-0.25744	23.2707	38.5216	-62.0972
 383	1	3	0.018858	20.1202	37.8093	-60.528
 384	1	8	0.063111	23.6115	38.4922	-61.0544
 385	1	8	0.056661	23.3471	39.5594	-62.4446
 386	1	8	0.052049	23.9555	37.9102	-62.6984
 387	1	3	-0.499719	20.6791	40.1016	-61.1271
 388	1	3	-0.078325	19.2373	38.2628	-59.538
 389	1	3	-0.430686	19.0598	39.6496	-59.375
 390	1	3	0.29919	19.7356	40.5912	-60.1931
 391	1	6	0.134637	18.6495	37.5562	-58.9566
 392	1	8	0.0139	21.9611	37.5311	-64.3573
 393	1	8	0.03702	21.3952	39.179	-64.0198
 394	1	8	0.035416	20.299	37.8078	-63.8037
 395	1	6	0.223374	21.2408	40.7862	-61.7575
 396	1	6	0.198405	18.3296	39.9959	-58.6468
 397	1	1	0.464138	11.858	50.406	-50.392
 398	1	2	0.077422	11.5072	51.2265	-51.4618
 399	1	3	0.04486	12.1501	50.6107	-52.6473
 400	1	2	0.055008	12.6577	49.3291	-50.7712
 401	1	3	-0.004417	12.8441	49.4885	-52.2383
 402	1	5	-0.392499	10.813	52.2304	-51.4553
 403	1	5	-0.37854	13.1074	48.435	-50.0737
 404	1	3	-0.044101	12.1282	51.0171	-53.9849
 405	1	3	-0.056346	13.5849	48.7238	-53.1455
 406	1	3	-0.157726	13.5892	49.1224	-54.5001
 407	1	3	-0.13238	12.8418	50.2524	-54.9379
 408	1	6	0.167375	11.573	51.9091	-54.2722
 409	1	6	0.161059	14.151	47.8598	-52.8035
 410	1	6	0.140064	14.1983	48.5581	-55.2022
 411	1	2	0.57844	12.8366	50.7192	-56.3761
 412	1	3	-0.037172	13.1802	49.7722	-57.5006
 413	1	3	-0.116011	13.8267	50.2854	-58.6501
 414	1	3	-0.048223	14.1493	49.4018	-59.6881
 415	1	3	-0.138147	12.8302	48.3953	-57.4548
 416	1	3	-0.114262	13.1685	47.5225	-58.5097
 417	1	3	-0.063397	13.8396	48.0599	-59.615
 418	1	2	0.489233	14.3455	47.4012	-60.8471
 419	1	1	-0.081676	14.9532	48.4047	-61.5965
 420	1	2	0.489742	14.8542	49.6459	-60.9745
 421	1	3	0.047265	15.6247	48.1824	-62.8363
 422	1	3	-0.183349	16.8333	48.8406	-63.1309
 423	1	3	-0.091111	17.4831	48.6305	-64.3588
 424	1	3	-0.18836	15.0921	47.2985	-63.7918
 425	1	3	-0.138837	15.7499	47.076	-65.0131
 426	1	3	0.044906	16.9571	47.7422	-65.3199
 427	1	6	0.157291	17.2669	49.5359	-62.4157
 428	1	6	0.112962	18.4059	49.1659	-64.5627
 429	1	6	0.163228	12.9149	46.4642	-58.4748
 430	1	6	0.134491	12.2847	47.9991	-56.6016
 431	1	6	0.172124	14.0848	51.3413	-58.7272
 432	1	5	-0.48162	15.2537	50.7253	-61.3754
 433	1	5	-0.478641	14.3155	46.203	-61.0706
 434	1	5	-0.498568	12.5706	51.883	-56.6289
 435	1	6	0.153588	14.1621	46.7719	-63.5912
 436	1	6	0.146442	15.3038	46.3745	-65.7108
 437	1	7	0.027303	17.7091	47.5217	-66.6503
 438	1	7	-0.256739	17.7797	48.8426	-67.4595
 439	1	8	0.074408	18.3774	49.5999	-66.9372
 440	1	8	0.075653	16.7764	49.2587	-67.6167
 441	1	8	0.063017	18.2346	48.6779	-68.445
 442	1	7	-0.003396	19.1382	46.9523	-66.3821
 443	1	7	0.23166	19.0538	45.3986	-66.4577
 444	1	8	0.003166	19.5604	47.2911	-65.4307
 445	1	8	0.018046	19.8161	47.3114	-67.1684
 446	1	3	0.065056	17.8305	45.2078	-67.3383
 447	1	7	-0.138879	18.8269	44.7781	-65.0569
 448	1	7	-0.25744	20.3357	44.8038	-67.0907
 449	1	3	0.018858	17.1155	46.3912	-67.4812
 450	1	8	0.063111	20.2736	43.7103	-67.1522
 451	1	8	0.056661	21.2211	45.0603	-66.4955
 452	1	8	0.052049	20.4856	45.189	-68.1076
 453	1	3	-0.499719	17.3961	44.0213	-67.9547
 454	1	3	-0.078325	15.9713	46.4373	-68.2935
 455	1	3	-0.430686	15.5362	45.2541	-68.9229
 456	1	3	0.29919	16.228	44.0313	-68.7501
 457	1	6	0.134637	15.418	47.366	-68.4131
 458	1	8	0.0139	19.6787	44.9796	-64.3953
 459	1	8	0.03702	18.7055	43.6899	-65.1303
 460	1	8	0.035416	17.925	45.1815	-64.5813
 461	1	6	0.223374	17.9424	43.0955	-67.7936
 462	1	6	0.198405	14.6456	45.2817	-69.5476
 463	1	1	0.464138	7.25661	46.2442	-30.6344
 464	1	2	0.077422	8.3069	45.4511	-31.1043
 465	1	3	0.04486	8.86163	46.1858	-32.2722
 466	1	2	0.055008	7.06812	47.3904	-31.4123
 467	1	3	-0.004417	8.12629	47.3392	-32.4523
 468	1	5	-0.392499	8.74189	44.409	-30.6414
 469	1	5	-0.37854	6.27564	48.3035	-31.2471
 470	1	3	-0.044101	9.97901	45.9009	-33.0665
 471	1	3	-0.056346	8.47205	48.2806	-33.4274
 472	1	3	-0.157726	9.60024	48.0192	-34.2339
 473	1	3	-0.13238	10.3554	46.8233	-34.0756
 474	1	6	0.167375	10.5588	44.9982	-32.8787
 475	1	6	0.161059	7.90346	49.2033	-33.5258
 476	1	6	0.140064	9.90532	48.7778	-34.9502
 477	1	2	0.57844	11.6146	46.5448	-34.8683
 478	1	3	-0.037172	11.9146	47.2725	-36.1596
 479	1	3	-0.116011	10.8973	47.614	-37.0863
 480	1	3	-0.048223	11.2679	48.2613	-38.2754
 481	1	3	-0.138147	13.268	47.5611	-36.4796
 482	1	3	-0.114262	13.6186	48.2051	-37.6833
 483	1	3	-0.063397	12.5877	48.546	-38.5656
 484	1	2	0.489233	12.6418	49.2124	-39.8942
 485	1	1	-0.081676	11.325	49.2978	-40.3255
 486	1	2	0.489742	10.4361	48.747	-39.4102
 487	1	3	0.047265	10.9315	49.9093	-41.5476
 488	1	3	-0.183349	9.97737	50.9394	-41.5461
 489	1	3	-0.091111	9.59742	51.5575	-42.7478
 490	1	3	-0.18836	11.5004	49.5092	-42.77
 491	1	3	-0.138837	11.1123	50.1223	-43.9757
 492	1	3	0.044906	10.1491	51.1552	-43.9822
 493	1	6	0.157291	9.52728	51.2649	-40.612
 494	1	6	0.112962	8.86869	52.3614	-42.7135
 495	1	6	0.163228	14.6561	48.4272	-37.9277
 496	1	6	0.134491	14.0554	47.2775	-35.7831
 497	1	6	0.172124	9.85225	47.3693	-36.9057
 498	1	5	-0.48162	9.22013	48.6966	-39.4779
 499	1	5	-0.478641	13.6457	49.6096	-40.4595
 500	1	5	-0.498568	12.4267	45.7456	-34.4306
 501	1	6	0.153588	12.2538	48.7253	-42.7869
 502	1	6	0.146442	11.5789	49.7921	-44.8995
 503	1	7	0.027303	9.70475	51.8682	-45.2748
 504	1	7	-0.256739	8.15571	51.8805	-45.398
 505	1	8	0.074408	7.84433	52.2763	-46.3739
 506	1	8	0.075653	7.68952	52.506	-44.6277
 507	1	8	0.063017	7.74675	50.8667	-45.3023
 508	1	7	-0.003396	10.2667	53.327	-45.3147
 509	1	7	0.23166	11.5008	53.3469	-46.2665
 510	1	8	0.003166	10.5151	53.7087	-44.3158
 511	1	8	0.018046	9.49674	53.9981	-45.7187
 512	1	3	0.065056	11.2524	52.1155	-47.1198
 513	1	7	-0.138879	12.8198	53.1876	-45.4717
 514	1	7	-0.25744	11.5482	54.6519	-47.0993
 515	1	3	0.018858	10.3016	51.28	-46.5462
 516	1	8	0.063111	12.4261	54.6684	-47.7568
 517	1	8	0.056661	11.6018	55.5307	-46.4445
 518	1	8	0.052049	10.6543	54.748	-47.729
 519	1	3	-0.499719	11.8147	51.8161	-48.3734
 520	1	3	-0.078325	9.91806	50.0913	-47.1871
 521	1	3	-0.430686	10.482	49.781	-48.4402
 522	1	3	0.29919	11.4103	50.6503	-49.0598
 523	1	6	0.134637	9.17042	49.4419	-46.7375
 524	1	8	0.0139	13.6802	53.1303	-46.1505
 525	1	8	0.03702	12.8112	52.2736	-44.8655
 526	1	8	0.035416	12.9765	54.0386	-44.797
 527	1	6	0.223374	12.511	52.5099	-48.8362
 528	1	6	0.198405	10.1669	48.8769	-48.9557
 529	1	1	0.464138	-5.04258	32.2449	-19.7612
 530	1	2	0.077422	-5.5158	33.5393	-19.9892
 531	1	3	0.04486	-4.33486	34.3073	-20.4676
 532	1	2	0.055008	-3.66972	32.1292	-19.9914
 533	1	3	-0.004417	-3.24073	33.4651	-20.4691
 534	1	5	-0.392499	-6.66009	33.9556	-19.9066
 535	1	5	-0.37854	-2.96526	31.1342	-19.9361
 536	1	3	-0.044101	-4.24715	35.6176	-20.9563
 537	1	3	-0.056346	-2.00197	33.873	-20.9712
 538	1	3	-0.157726	-1.8918	35.1854	-21.4728
 539	1	3	-0.13238	-3.00123	36.0755	-21.4535
 540	1	6	0.167375	-5.13268	36.2514	-20.9762
 541	1	6	0.161059	-1.1665	33.1767	-21.0074
 542	1	6	0.140064	-0.94638	35.4905	-21.9153
 543	1	2	0.57844	-2.91525	37.4659	-22.0412
 544	1	3	-0.037172	-1.58894	38.1864	-22.1226
 545	1	3	-0.116011	-1.37329	39.1265	-23.1607
 546	1	3	-0.048223	-0.147934	39.8087	-23.2063
 547	1	3	-0.138147	-0.580466	37.9928	-21.1398
 548	1	3	-0.114262	0.643691	38.6879	-21.204
 549	1	3	-0.063397	0.830893	39.5899	-22.2577
 550	1	2	0.489233	1.96462	40.5076	-22.5389
 551	1	1	-0.081676	1.58315	41.2542	-23.6467
 552	1	2	0.489742	0.335383	40.8762	-24.1282
 553	1	3	0.047265	2.33528	42.3564	-24.1424
 554	1	3	-0.183349	2.75471	43.3577	-23.2521
 555	1	3	-0.091111	3.49035	44.4579	-23.7128
 556	1	3	-0.18836	2.66064	42.4796	-25.5063
 557	1	3	-0.138837	3.41051	43.5811	-25.9675
 558	1	3	0.044906	3.8414	44.5851	-25.0723
 559	1	6	0.157291	2.51321	43.2851	-22.1948
 560	1	6	0.112962	3.79214	45.219	-22.9993
 561	1	6	0.163228	1.41338	38.5546	-20.4455
 562	1	6	0.134491	-0.754384	37.3209	-20.3027
 563	1	6	0.172124	-2.14508	39.3317	-23.9021
 564	1	5	-0.48162	-0.27932	41.3462	-25.0696
 565	1	5	-0.478641	2.98025	40.6122	-21.8728
 566	1	5	-0.498568	-3.92433	38.0012	-22.4697
 567	1	6	0.153588	2.32722	41.7231	-26.2126
 568	1	6	0.146442	3.64698	43.647	-27.0253
 569	1	7	0.027303	4.6443	45.8246	-25.5153
 570	1	7	-0.256739	3.79193	47.1023	-25.2901
 571	1	8	0.074408	4.30791	47.9935	-25.671
 572	1	8	0.075653	3.58558	47.2655	-24.2252
 573	1	8	0.063017	2.82784	47.0252	-25.8087
 574	1	7	-0.003396	5.99449	45.9218	-24.7278
 575	1	7	0.23166	7.12129	45.3443	-25.6322
 576	1	8	0.003166	5.96896	45.4251	-23.7503
 577	1	8	0.018046	6.21224	46.9797	-24.528
 578	1	3	0.065056	6.53168	45.5646	-27.0133
 579	1	7	-0.138879	7.32907	43.8327	-25.3712
 580	1	7	-0.25744	8.45442	46.103	-25.4147
 581	1	3	0.018858	5.15947	45.7814	-26.9517
 582	1	8	0.063111	8.779	46.027	-24.3694
 583	1	8	0.056661	8.34556	47.1667	-25.6622
 584	1	8	0.052049	9.2513	45.6893	-26.0449
 585	1	3	-0.499719	7.22898	45.66	-28.2309
 586	1	3	-0.078325	4.4403	46.0739	-28.1214
 587	1	3	-0.430686	5.13405	46.1716	-29.345
 588	1	3	0.29919	6.53767	45.9924	-29.4181
 589	1	6	0.134637	3.37235	46.274	-28.0733
 590	1	8	0.0139	8.08029	43.4189	-26.0559
 591	1	8	0.03702	6.39802	43.2715	-25.5181
 592	1	8	0.035416	7.67219	43.6554	-24.3441
 593	1	6	0.223374	8.30671	45.5176	-28.2475
 594	1	6	0.198405	4.58423	46.4559	-30.2397
 595	1	1	0.464138	-21.076	20.4021	-11.299
 596	1	2	0.077422	-20.6749	21.5931	-10.6854
 597	1	3	0.04486	-19.434	22.0018	-11.3932
 598	1	2	0.055008	-20.1925	19.998	-12.3033
 599	1	3	-0.004417	-19.1469	21.0489	-12.3502
 600	1	5	-0.392499	-21.2176	22.2083	-9.78156
 601	1	5	-0.37854	-20.269	19.0365	-13.051
 602	1	3	-0.044101	-18.6497	23.1539	-11.2474
 603	1	3	-0.056346	-18.0592	21.1861	-13.2165
 604	1	3	-0.157726	-17.2511	22.3332	-13.0844
 605	1	3	-0.13238	-17.5308	23.3211	-12.0992
 606	1	6	0.167375	-18.9154	23.9057	-10.5054
 607	1	6	0.161059	-17.8676	20.4385	-13.9835
 608	1	6	0.140064	-16.4271	22.4658	-13.782
 609	1	2	0.57844	-16.7061	24.5827	-11.9997
 610	1	3	-0.037172	-15.3097	24.584	-12.5629
 611	1	3	-0.116011	-14.8824	25.654	-13.3849
 612	1	3	-0.048223	-13.6055	25.5791	-13.9615
 613	1	3	-0.138147	-14.429	23.5027	-12.2974
 614	1	3	-0.114262	-13.1458	23.454	-12.8761
 615	1	3	-0.063397	-12.769	24.5071	-13.7174
 616	1	2	0.489233	-11.5439	24.6766	-14.5381
 617	1	1	-0.081676	-11.7343	25.845	-15.264
 618	1	2	0.489742	-12.9349	26.47	-14.9506
 619	1	3	0.047265	-10.8551	26.2649	-16.2994
 620	1	3	-0.183349	-10.5199	25.3633	-17.3219
 621	1	3	-0.091111	-9.63556	25.7399	-18.3415
 622	1	3	-0.18836	-10.3078	27.5604	-16.3259
 623	1	3	-0.138837	-9.4083	27.9347	-17.3444
 624	1	3	0.044906	-9.04708	27.0209	-18.3598
 625	1	6	0.157291	-10.9364	24.3593	-17.323
 626	1	6	0.112962	-9.40638	25.0196	-19.1198
 627	1	6	0.163228	-12.4737	22.6155	-12.7011
 628	1	6	0.134491	-14.7491	22.6889	-11.65
 629	1	6	0.172124	-15.541	26.4932	-13.6059
 630	1	5	-0.48162	-13.4043	27.481	-15.4428
 631	1	5	-0.478641	-10.6225	23.8824	-14.6167
 632	1	5	-0.498568	-17.1867	25.6011	-11.5322
 633	1	6	0.153588	-10.5768	28.278	-15.5544
 634	1	6	0.146442	-8.99944	28.9413	-17.3376
 635	1	7	0.027303	-8.06539	27.3768	-19.4932
 636	1	7	-0.256739	-7.01765	26.2461	-19.7024
 637	1	8	0.074408	-7.46792	25.3392	-20.1226
 638	1	8	0.075653	-6.53644	25.9769	-18.7534
 639	1	8	0.063017	-6.23014	26.5673	-20.3971
 640	1	7	-0.003396	-8.84426	27.6444	-20.822
 641	1	7	0.23166	-8.86845	29.1824	-21.0752
 642	1	8	0.003166	-9.85647	27.2191	-20.8028
 643	1	8	0.018046	-8.32103	27.1533	-21.6534
 644	1	3	0.065056	-7.71893	29.6625	-20.2067
 645	1	7	-0.138879	-10.2007	29.8052	-20.5931
 646	1	7	-0.25744	-8.65203	29.5046	-22.5752
 647	1	3	0.018858	-7.32354	28.6916	-19.2958
 648	1	8	0.063111	-9.43056	29.037	-23.1908
 649	1	8	0.056661	-7.67703	29.1352	-22.9181
 650	1	8	0.052049	-8.68536	30.5862	-22.7556
 651	1	3	-0.499719	-7.01708	30.8755	-20.3187
 652	1	3	-0.078325	-6.24312	28.9269	-18.4315
 653	1	3	-0.430686	-5.53169	30.1381	-18.5435