pySIMM System Object

1454 atoms
1607 bonds
2838 angles
4550 dihedrals
462 impropers

8 atom types
10 bond types
17 angle types
9 dihedral types
4 improper types

-168.907114 168.907114 xlo xhi
-168.907114 168.907114 ylo yhi
-168.907114 168.907114 zlo zhi

Masses

   1	14.01	# n
   2	12.01	# c
   3	12.01	# ca
   4	1.008	# hn
   5	16.0	# o
   6	1.008	# ha
   7	12.01	# c3
   8	1.008	# hc

Pair Coeffs

   1	0.17	3.249998523775958	# n
   2	0.086	3.3996695084235347	# c
   3	0.086	3.3996695084235347	# ca
   4	0.0157	1.069078461768407	# hn
   5	0.21	2.959921901149463	# o
   6	0.015	2.59964245953351	# ha
   7	0.1094	3.3996695084235347	# c3
   8	0.0157	2.649532787749369	# hc

Bond Coeffs

   1	427.6	1.3789	# c,n
   2	461.1	1.3984	# ca,ca
   3	345.9	1.4906	# c,ca
   4	300.9	1.5375	# c3,c3
   5	345.8	1.086	# ca,ha
   6	384.2	1.4121	# ca,n
   7	637.7	1.2183	# c,o
   8	321.0	1.5156	# c3,ca
   9	330.6	1.0969	# c3,hc
  10	403.2	1.0129	# hn,n

Angle Coeffs

   1	63.82	123.71	# c,n,ca
   2	67.87	120.19	# ca,ca,n
   3	67.68	115.25	# ca,c,n
   4	63.15	112.07	# c3,c3,ca
   5	63.0	118.11	# ca,c,ca
   6	63.56	112.24	# ca,c3,ca
   7	46.34	109.8	# c3,c3,hc
   8	48.33	117.55	# c,n,hn
   9	74.22	123.05	# n,c,o
  10	64.28	120.33	# c,ca,ca
  11	39.4	107.58	# hc,c3,hc
  12	66.62	120.02	# ca,ca,ca
  13	63.53	120.77	# c3,ca,ca
  14	62.86	111.51	# c3,c3,c3
  15	63.74	127.08	# c,n,c
  16	48.18	119.88	# ca,ca,ha
  17	68.72	122.6	# ca,c,o

Dihedral Coeffs

   1	2	2.5	2	180	2.0	1	0	# hn,n,c,o
   2	1	3.625	2	180	# X,ca,ca,X
   3	1	0.16	3	0	# hc,c3,c3,c3
   4	1	1.0	2	180	# X,c,ca,X
   5	1	0.15555555555555556	3	0	# X,c3,c3,X
   6	1	0.0	2	0	# X,c3,ca,X
   7	3	0.18	3	0	0.25	2	180	0.2	1	180	# c3,c3,c3,c3
   8	1	2.5	2	180	# X,c,n,X
   9	1	0.45	2	180	# X,ca,n,X

Improper Coeffs

   1	1.1	-1	2	# ca,ca,ca,c3
   2	1.1	-1	2	# n,X,X,hn
   3	1.1	-1	2	# ca,X,X,ha
   4	10.5	-1	2	# c,X,X,o

Atoms

   1	1	1	0.464138	-46.0715	45.263	-27.1074
   2	1	2	0.077422	-46.4527	46.5371	-26.6937
   3	1	3	0.04486	-46.3587	47.3792	-27.9089
   4	1	2	0.055008	-45.749	45.2062	-28.4637
   5	1	3	-0.004417	-45.9368	46.5936	-28.9637
   6	1	5	-0.392499	-46.7736	46.9149	-25.5784
   7	1	5	-0.37854	-45.3599	44.2489	-29.112
   8	1	3	-0.044101	-46.6065	48.7451	-28.0602
   9	1	3	-0.056346	-45.7456	47.1334	-30.2414
  10	1	3	-0.157726	-45.9835	48.5143	-30.4172
  11	1	3	-0.13238	-46.391	49.3313	-29.3299
  12	1	6	0.167375	-46.9499	49.3254	-27.2059
  13	1	6	0.161059	-45.4158	46.503	-31.0647
  14	1	6	0.140064	-45.836	48.9616	-31.3995
  15	1	2	0.57844	-46.6021	50.8109	-29.5242
  16	1	3	-0.037172	-46.2533	51.7416	-28.389
  17	1	3	-0.116011	-46.9685	52.9519	-28.225
  18	1	3	-0.048223	-46.6235	53.7887	-27.1533
  19	1	3	-0.138147	-45.19	51.4305	-27.4976
  20	1	3	-0.114262	-44.8581	52.2874	-26.4312
  21	1	3	-0.063397	-45.6017	53.4623	-26.2836
  22	1	2	0.489233	-45.4616	54.5596	-25.2941
  23	1	1	-0.081676	-46.4198	55.5032	-25.6398
  24	1	2	0.489742	-47.1744	55.1078	-26.7381
  25	1	3	0.047265	-46.562	56.7524	-24.9766
  26	1	3	-0.183349	-45.4311	57.5523	-24.7409
  27	1	3	-0.091111	-45.5565	58.7875	-24.0891
  28	1	3	-0.18836	-47.821	57.2104	-24.5514
  29	1	3	-0.138837	-47.9469	58.4495	-23.8977
  30	1	3	0.044906	-46.8127	59.258	-23.6572
  31	1	6	0.157291	-44.4481	57.216	-25.0602
  32	1	6	0.112962	-44.6661	59.3879	-23.9274
  33	1	6	0.163228	-44.042	52.0583	-25.7479
  34	1	6	0.134491	-44.6008	50.5278	-27.6407
  35	1	6	0.172124	-47.7683	53.2315	-28.9103
  36	1	5	-0.48162	-48.088	55.706	-27.2793
  37	1	5	-0.478641	-44.6385	54.6112	-24.3962
  38	1	5	-0.498568	-47.0453	51.2435	-30.5747
  39	1	6	0.153588	-48.7089	56.6105	-24.7374
  40	1	6	0.146442	-48.9381	58.7756	-23.5976
  41	1	7	0.027303	-46.9001	60.6359	-22.9727
  42	1	7	-0.256739	-45.9946	60.6801	-21.7123
  43	1	8	0.074408	-46.2363	59.8572	-21.0278
  44	1	8	0.075653	-46.1286	61.6228	-21.1657
  45	1	8	0.063017	-44.933	60.5965	-21.9745
  46	1	7	-0.003396	-46.5084	61.7649	-23.98
  47	1	7	0.23166	-47.8227	62.3439	-24.5849
  48	1	8	0.003166	-45.8162	61.421	-24.7593
  49	1	8	0.018046	-45.9873	62.5624	-23.4337
  50	1	3	0.065056	-48.8344	61.9875	-23.5088
  51	1	7	-0.138879	-48.1815	61.6439	-25.9187
  52	1	7	-0.25744	-47.7057	63.8707	-24.8133
  53	1	3	0.018858	-48.3235	61.045	-22.6216
  54	1	8	0.063111	-47.5062	64.3939	-23.8695
  55	1	8	0.056661	-48.6329	64.2773	-25.2351
  56	1	8	0.052049	-46.8887	64.0981	-25.5099
  57	1	3	-0.499719	-50.1356	62.4988	-23.3472
  58	1	3	-0.078325	-49.0954	60.5876	-21.5405
  59	1	3	-0.430686	-50.3983	61.0971	-21.3759
  60	1	3	0.29919	-50.9178	62.0493	-22.2718
  61	1	6	0.134637	-48.6935	59.8518	-20.8487
  62	1	8	0.0139	-48.2597	60.5574	-25.7933
  63	1	8	0.03702	-47.4179	61.8406	-26.6819
  64	1	8	0.035416	-49.1442	62.0056	-26.301
  65	1	6	0.223374	-50.5352	63.2341	-24.0374
  66	1	6	0.198405	-51.0138	60.7593	-20.5477
  67	1	1	0.464138	-41.9917	26.141	-32.1736
  68	1	2	0.077422	-41.8158	27.4555	-32.6017
  69	1	3	0.04486	-42.2829	28.294	-31.4716
  70	1	2	0.055008	-42.5195	26.0572	-30.8842
  71	1	3	-0.004417	-42.6939	27.4661	-30.4457
  72	1	5	-0.392499	-41.3842	27.8592	-33.6695
  73	1	5	-0.37854	-42.7913	25.06	-30.2358
  74	1	3	-0.044101	-42.3619	29.685	-31.3681
  75	1	3	-0.056346	-43.2007	27.9849	-29.2488
  76	1	3	-0.157726	-43.2836	29.3884	-29.1176
  77	1	3	-0.13238	-42.8584	30.2469	-30.1688
  78	1	6	0.167375	-42.0566	30.3108	-32.2057
  79	1	6	0.161059	-43.5359	27.3173	-28.4578
  80	1	6	0.140064	-43.7142	29.8033	-28.2088
  81	1	2	0.57844	-43.0015	31.7459	-30.0968
  82	1	3	-0.037172	-42.9796	32.4734	-28.7754
  83	1	3	-0.116011	-43.6714	33.7016	-28.682
  84	1	3	-0.048223	-43.5952	34.4241	-27.4879
  85	1	3	-0.138147	-42.2184	32.0168	-27.6642
  86	1	3	-0.114262	-42.155	32.7659	-26.4673
  87	1	3	-0.063397	-42.8585	33.9774	-26.4105
  88	1	2	0.489233	-42.949	35.0076	-25.3357
  89	1	1	-0.081676	-43.7394	36.0257	-25.8572
  90	1	2	0.489742	-44.1828	35.7395	-27.1414
  91	1	3	0.047265	-44.079	37.2295	-25.1806
  92	1	3	-0.183349	-44.6145	37.2087	-23.8817
  93	1	3	-0.091111	-45.0874	38.3939	-23.2902
  94	1	3	-0.18836	-43.9547	38.4616	-25.8444
  95	1	3	-0.138837	-44.4252	39.6437	-25.254
  96	1	3	0.044906	-45.0472	39.6218	-23.9865
  97	1	6	0.157291	-44.6973	36.2692	-23.3412
  98	1	6	0.112962	-45.5186	38.343	-22.2958
  99	1	6	0.163228	-41.557	32.4334	-25.6205
 100	1	6	0.134491	-41.6406	31.0985	-27.7393
 101	1	6	0.172124	-44.2367	34.0967	-29.5259
 102	1	5	-0.48162	-44.9094	36.4062	-27.858
 103	1	5	-0.478641	-42.425	34.9504	-24.2367
 104	1	5	-0.498568	-43.1431	32.3802	-31.1298
 105	1	6	0.153588	-43.5372	38.5008	-26.8479
 106	1	6	0.146442	-44.3355	40.5671	-25.819
 107	1	7	0.027303	-45.6976	40.8875	-23.3879
 108	1	7	-0.256739	-47.0707	40.5723	-22.7319
 109	1	8	0.074408	-46.9608	39.9716	-21.8213
 110	1	8	0.075653	-47.7194	40.0229	-23.4263
 111	1	8	0.063017	-47.59	41.4982	-22.4513
 112	1	7	-0.003396	-44.7478	41.5842	-22.3613
 113	1	7	0.23166	-44.2356	42.924	-22.9814
 114	1	8	0.003166	-43.9146	40.9268	-22.0793
 115	1	8	0.018046	-45.295	41.7941	-21.4326
 116	1	3	0.065056	-45.1086	43.0858	-24.2135
 117	1	7	-0.138879	-42.7474	42.8069	-23.3894
 118	1	7	-0.25744	-44.4191	44.1047	-21.996
 119	1	3	0.018858	-45.9028	41.9701	-24.4349
 120	1	8	0.063111	-44.067	45.045	-22.4377
 121	1	8	0.056661	-43.8565	43.9338	-21.0696
 122	1	8	0.052049	-45.4774	44.2334	-21.7345
 123	1	3	-0.499719	-45.1493	44.1847	-25.0906
 124	1	3	-0.078325	-46.751	41.9062	-25.5516
 125	1	3	-0.430686	-46.7872	42.996	-26.442
 126	1	3	0.29919	-45.9988	44.1488	-26.2192
 127	1	6	0.134637	-47.353	41.0184	-25.733
 128	1	8	0.0139	-42.5951	41.9713	-24.0845
 129	1	8	0.03702	-42.1124	42.6378	-22.5104
 130	1	8	0.035416	-42.4035	43.7241	-23.8839
 131	1	6	0.223374	-44.5383	45.0607	-24.8913
 132	1	6	0.198405	-47.4292	42.9442	-27.3186
 133	1	1	0.464138	-29.4748	9.04818	-32.3516
 134	1	2	0.077422	-29.0409	10.3753	-32.2503
 135	1	3	0.04486	-30.2258	11.2008	-32.5838
 136	1	2	0.055008	-30.7967	8.9623	-32.8122
 137	1	3	-0.004417	-31.2593	10.3626	-32.9431
 138	1	5	-0.392499	-27.9538	10.8105	-31.9052
 139	1	5	-0.37854	-31.5093	7.98032	-32.9452
 140	1	3	-0.044101	-30.4103	12.5816	-32.4708
 141	1	3	-0.056346	-32.5245	10.8566	-33.2718
 142	1	3	-0.157726	-32.7296	12.2481	-33.1867
 143	1	3	-0.13238	-31.6921	13.1147	-32.742
 144	1	6	0.167375	-29.5882	13.2154	-32.1408
 145	1	6	0.161059	-33.324	10.1775	-33.5616
 146	1	6	0.140064	-33.7058	12.6431	-33.4574
 147	1	2	0.57844	-31.9021	14.5979	-32.5691
 148	1	3	-0.037172	-33.2945	15.1528	-32.4182
 149	1	3	-0.116011	-33.5897	16.3894	-33.0311
 150	1	3	-0.048223	-34.8958	16.8795	-32.9432
 151	1	3	-0.138147	-34.3046	14.4769	-31.6792
 152	1	3	-0.114262	-35.6165	14.9919	-31.6026
 153	1	3	-0.063397	-35.8842	16.1986	-32.2615
 154	1	2	0.489233	-37.1598	16.9439	-32.4377
 155	1	1	-0.081676	-36.8502	18.0258	-33.2536
 156	1	2	0.489742	-35.5006	18.0781	-33.5721
 157	1	3	0.047265	-37.8134	18.9199	-33.791
 158	1	3	-0.183349	-37.8345	19.1808	-35.172
 159	1	3	-0.091111	-38.7964	20.0404	-35.7233
 160	1	3	-0.18836	-38.7662	19.5365	-32.9642
 161	1	3	-0.138837	-39.7266	20.4004	-33.5154
 162	1	3	0.044906	-39.7594	20.6632	-34.9024
 163	1	6	0.157291	-37.1031	18.7143	-35.8271
 164	1	6	0.112962	-38.7831	20.2051	-36.7952
 165	1	6	0.163228	-36.4053	14.4661	-31.0664
 166	1	6	0.134491	-34.0754	13.5431	-31.1702
 167	1	6	0.172124	-32.8321	16.9351	-33.5926
 168	1	5	-0.48162	-34.9226	18.8779	-34.2877
 169	1	5	-0.478641	-38.2514	16.6077	-32.0118
 170	1	5	-0.498568	-30.9454	15.3545	-32.593
 171	1	6	0.153588	-38.7731	19.3369	-31.8952
 172	1	6	0.146442	-40.4597	20.8576	-32.8566
 173	1	7	0.027303	-40.8639	21.5703	-35.4756
 174	1	7	-0.256739	-40.627	22.0159	-36.9451
 175	1	8	0.074408	-39.6544	22.5126	-37.056
 176	1	8	0.075653	-41.3995	22.7278	-37.2645
 177	1	8	0.063017	-40.6608	21.1628	-37.6344
 178	1	7	-0.003396	-42.2546	20.8676	-35.3459
 179	1	7	0.23166	-43.2026	21.7787	-34.5019
 180	1	8	0.003166	-42.1414	19.8873	-34.8638
 181	1	8	0.018046	-42.6851	20.6596	-36.3345
 182	1	3	0.065056	-42.2989	22.924	-34.0779
 183	1	7	-0.138879	-43.7565	21.0188	-33.272
 184	1	7	-0.25744	-44.3733	22.3001	-35.3695
 185	1	3	0.018858	-41.0266	22.8093	-34.6186
 186	1	8	0.063111	-45.0202	22.9721	-34.7922
 187	1	8	0.056661	-44.9884	21.4693	-35.7378
 188	1	8	0.052049	-43.9972	22.8569	-36.2374
 189	1	3	-0.499719	-42.6341	24.0124	-33.2526
 190	1	3	-0.078325	-40.045	23.7749	-34.3562
 191	1	3	-0.430686	-40.3759	24.8717	-33.5393
 192	1	3	0.29919	-41.6684	25.0072	-32.9794
 193	1	6	0.134637	-39.0504	23.6784	-34.7864
 194	1	8	0.0139	-44.4013	21.6671	-32.6655
 195	1	8	0.03702	-42.9406	20.6623	-32.6307
 196	1	8	0.035416	-44.3482	20.1488	-33.5836
 197	1	6	0.223374	-43.6322	24.0851	-32.8281
 198	1	6	0.198405	-39.6269	25.6387	-33.3546
 199	1	1	0.464138	-38.7806	-1.29143	-20.4454
 200	1	2	0.077422	-38.6442	-0.0102611	-20.9826
 201	1	3	0.04486	-37.438	0.553991	-20.3295
 202	1	2	0.055008	-37.8309	-1.56501	-19.4584
 203	1	3	-0.004417	-36.9529	-0.369101	-19.4225
 204	1	5	-0.392499	-39.2715	0.508548	-21.8922
 205	1	5	-0.37854	-37.6352	-2.61137	-18.8626
 206	1	3	-0.044101	-36.7229	1.712	-20.6496
 207	1	3	-0.056346	-35.7364	-0.175145	-18.7574
 208	1	3	-0.157726	-34.9943	0.983643	-19.0672
 209	1	3	-0.13238	-35.471	1.9124	-20.0264
 210	1	6	0.167375	-37.0871	2.38204	-21.4261
 211	1	6	0.161059	-35.3505	-0.933769	-18.0791
 212	1	6	0.140064	-34.0139	1.12827	-18.6159
 213	1	2	0.57844	-34.5568	2.97837	-20.5515
 214	1	3	-0.037172	-33.8753	2.70108	-21.8724
 215	1	3	-0.116011	-33.0079	3.66641	-22.4429
 216	1	3	-0.048223	-32.3612	3.35342	-23.6496
 217	1	3	-0.138147	-34.0641	1.45631	-22.5383
 218	1	3	-0.114262	-33.4122	1.16786	-23.7497
 219	1	3	-0.063397	-32.5613	2.13977	-24.2773
 220	1	2	0.489233	-31.7151	2.08918	-25.4916
 221	1	1	-0.081676	-31.027	3.29241	-25.5178
 222	1	2	0.489742	-31.3725	4.12343	-24.4576
 223	1	3	0.047265	-30.0774	3.60844	-26.5244
 224	1	3	-0.183349	-30.1875	4.79434	-27.2653
 225	1	3	-0.091111	-29.3082	5.04796	-28.33
 226	1	3	-0.18836	-29.0582	2.69469	-26.8435
 227	1	3	-0.138837	-28.1783	2.9489	-27.9072
 228	1	3	0.044906	-28.2925	4.12358	-28.6766
 229	1	6	0.157291	-30.9712	5.51174	-27.0345
 230	1	6	0.112962	-29.4592	5.96092	-28.8959
 231	1	6	0.163228	-33.5448	0.213229	-24.2562
 232	1	6	0.134491	-34.7026	0.685689	-22.1166
 233	1	6	0.172124	-32.827	4.62214	-21.9513
 234	1	5	-0.48162	-30.9578	5.24334	-24.2147
 235	1	5	-0.478641	-31.6425	1.15679	-26.2741
 236	1	5	-0.498568	-34.3334	3.98845	-19.9072
 237	1	6	0.153588	-28.9691	1.76398	-26.289
 238	1	6	0.146442	-27.4232	2.20881	-28.1539
 239	1	7	0.027303	-27.3573	4.32946	-29.8885
 240	1	7	-0.256739	-25.8649	4.21105	-29.481
 241	1	8	0.074408	-25.2079	4.47981	-30.3184
 242	1	8	0.075653	-25.6106	3.18918	-29.1747
 243	1	8	0.063017	-25.6341	4.88122	-28.6434
 244	1	7	-0.003396	-27.7135	3.32137	-31.0278
 245	1	7	0.23166	-28.6888	4.03779	-32.0122
 246	1	8	0.003166	-28.1325	2.38222	-30.6436
 247	1	8	0.018046	-26.7951	3.05431	-31.5676
 248	1	3	0.065056	-28.4045	5.50091	-31.7183
 249	1	7	-0.138879	-30.1649	3.69809	-31.6868
 250	1	7	-0.25744	-28.3831	3.66493	-33.4832
 251	1	3	0.018858	-27.6286	5.65293	-30.5779
 252	1	8	0.063111	-28.5004	2.58566	-33.6435
 253	1	8	0.056661	-27.3564	3.94196	-33.7539
 254	1	8	0.052049	-29.0639	4.18447	-34.1689
 255	1	3	-0.499719	-28.9427	6.61862	-32.377
 256	1	3	-0.078325	-27.3248	6.9276	-30.0855
 257	1	3	-0.430686	-27.8981	8.0458	-30.7153
 258	1	3	0.29919	-28.7372	7.91767	-31.8529
 259	1	6	0.134637	-26.7397	7.04166	-29.1756
 260	1	8	0.0139	-30.8476	4.24817	-32.3471
 261	1	8	0.03702	-30.4181	3.96268	-30.6537
 262	1	8	0.035416	-30.3594	2.62621	-31.8172
 263	1	6	0.223374	-29.5988	6.46098	-33.229
 264	1	6	0.198405	-27.7244	9.02224	-30.2703
 265	1	1	0.464138	-32.9999	-11.7194	-35.2435
 266	1	2	0.077422	-32.7119	-10.7785	-34.2561
 267	1	3	0.04486	-33.1575	-11.3996	-32.9859
 268	1	2	0.055008	-33.5956	-12.8733	-34.7331
 269	1	3	-0.004417	-33.6947	-12.6419	-33.2683
 270	1	5	-0.392499	-32.2136	-9.67138	-34.3796
 271	1	5	-0.37854	-33.9743	-13.8644	-35.3347
 272	1	3	-0.044101	-33.1067	-10.8973	-31.6813
 273	1	3	-0.056346	-34.2238	-13.4554	-32.2591
 274	1	3	-0.157726	-34.2012	-12.963	-30.9371
 275	1	3	-0.13238	-33.6459	-11.6912	-30.646
 276	1	6	0.167375	-32.6803	-9.91524	-31.4855
 277	1	6	0.161059	-34.6462	-14.4295	-32.4971
 278	1	6	0.140064	-34.6189	-13.5657	-30.132
 279	1	2	0.57844	-33.7007	-11.1507	-29.2492
 280	1	3	-0.037172	-34.9427	-10.4002	-28.8427
 281	1	3	-0.116011	-35.1692	-10.1148	-27.4747
 282	1	3	-0.048223	-36.3538	-9.45544	-27.1191
 283	1	3	-0.138147	-35.9046	-10.0006	-29.8119
 284	1	3	-0.114262	-37.0789	-9.32346	-29.4332
 285	1	3	-0.063397	-37.2724	-9.06654	-28.0732
 286	1	2	0.489233	-38.4203	-8.43544	-27.3831
 287	1	1	-0.081676	-38.1493	-8.53552	-26.0244
 288	1	2	0.489742	-36.9105	-9.11767	-25.78
 289	1	3	0.047265	-39.0258	-8.02807	-25.0245
 290	1	3	-0.183349	-38.5302	-7.25173	-23.9636
 291	1	3	-0.091111	-39.414	-6.59008	-23.0962
 292	1	3	-0.18836	-40.4164	-8.2058	-25.1414
 293	1	3	-0.138837	-41.2998	-7.52837	-24.2873
 294	1	3	0.044906	-40.8122	-6.65856	-23.291
 295	1	6	0.157291	-37.4591	-7.11155	-23.8398
 296	1	6	0.112962	-38.9976	-5.96614	-22.3098
 297	1	6	0.163228	-37.8299	-9.03136	-30.1644
 298	1	6	0.134491	-35.7562	-10.22	-30.8657
 299	1	6	0.172124	-34.4636	-10.4343	-26.7094
 300	1	5	-0.48162	-36.3906	-9.34993	-24.7013
 301	1	5	-0.478641	-39.3837	-7.92093	-27.9249
 302	1	5	-0.498568	-32.7727	-11.3275	-28.478
 303	1	6	0.153588	-40.8274	-8.81001	-25.9451
 304	1	6	0.146442	-42.3666	-7.64469	-24.4496
 305	1	7	0.027303	-41.762	-5.76397	-22.4661
 306	1	7	-0.256739	-43.0751	-5.41135	-23.2177
 307	1	8	0.074408	-42.8567	-5.01362	-24.2175
 308	1	8	0.075653	-43.6456	-4.64526	-22.6783
 309	1	8	0.063017	-43.7279	-6.28557	-23.3297
 310	1	7	-0.003396	-42.0665	-6.40561	-21.0771
 311	1	7	0.23166	-41.8819	-5.30876	-19.9816
 312	1	8	0.003166	-41.3567	-7.22474	-20.8972
 313	1	8	0.018046	-43.0679	-6.85416	-21.0422
 314	1	3	0.065056	-41.0996	-4.23274	-20.714
 315	1	7	-0.138879	-41.0937	-5.85901	-18.7755
 316	1	7	-0.25744	-43.2448	-4.75368	-19.5027
 317	1	3	0.018858	-41.0786	-4.4631	-22.0815
 318	1	8	0.063111	-43.1006	-3.93602	-18.7851
 319	1	8	0.056661	-43.8369	-5.53585	-19.0113
 320	1	8	0.052049	-43.8306	-4.36012	-20.3419
 321	1	3	-0.499719	-40.3907	-3.154	-20.153
 322	1	3	-0.078325	-40.3953	-3.59399	-22.9432
 323	1	3	-0.430686	-39.6752	-2.52082	-22.3886
 324	1	3	0.29919	-39.6437	-2.29476	-20.9906
 325	1	6	0.134637	-40.3785	-3.78381	-24.0146
 326	1	8	0.0139	-40.0866	-6.16037	-19.085
 327	1	8	0.03702	-41.5986	-6.72653	-18.3323
 328	1	8	0.035416	-40.9937	-5.08804	-18.0052
 329	1	6	0.223374	-40.3622	-3.02371	-19.0739
 330	1	6	0.198405	-39.1098	-1.87117	-23.0534
 331	1	1	0.464138	-41.3674	-13.6701	-37.258
 332	1	2	0.077422	-40.3912	-14.2359	-38.0846
 333	1	3	0.04486	-41.1173	-14.6914	-39.2999
 334	1	2	0.055008	-42.6451	-13.7471	-37.822
 335	1	3	-0.004417	-42.4569	-14.4005	-39.1414
 336	1	5	-0.392499	-39.1876	-14.3187	-37.9005
 337	1	5	-0.37854	-43.7017	-13.3193	-37.3862
 338	1	3	-0.044101	-40.6299	-15.2826	-40.4732
 339	1	3	-0.056346	-43.3915	-14.6905	-40.1409
 340	1	3	-0.157726	-42.9238	-15.2844	-41.3316
 341	1	3	-0.13238	-41.5457	-15.5665	-41.5198
 342	1	6	0.167375	-39.5682	-15.5064	-40.5569
 343	1	6	0.161059	-44.4433	-14.4515	-39.9995
 344	1	6	0.140064	-43.6327	-15.515	-42.1254
 345	1	2	0.57844	-41.0842	-16.1813	-42.822
 346	1	3	-0.037172	-39.7115	-15.8374	-43.343
 347	1	3	-0.116011	-39.1568	-14.5595	-43.1019
 348	1	3	-0.048223	-37.8442	-14.317	-43.5155
 349	1	3	-0.138147	-38.9547	-16.8018	-44.0593
 350	1	3	-0.114262	-37.6271	-16.5362	-44.4612
 351	1	3	-0.063397	-37.0886	-15.2794	-44.1537
 352	1	2	0.489233	-35.695	-14.7651	-44.272
 353	1	1	-0.081676	-35.7079	-13.5228	-43.6494
 354	1	2	0.489742	-36.9762	-13.153	-43.2265
 355	1	3	0.047265	-34.5548	-12.8328	-43.1991
 356	1	3	-0.183349	-33.6512	-13.4893	-42.3515
 357	1	3	-0.091111	-32.6941	-12.7564	-41.6365
 358	1	3	-0.18836	-34.4174	-11.4518	-43.4063
 359	1	3	-0.138837	-33.448	-10.7213	-42.6988
 360	1	3	0.044906	-32.6246	-11.3505	-41.7346
 361	1	6	0.157291	-33.7369	-14.5599	-42.1833
 362	1	6	0.112962	-32.0469	-13.2932	-40.9548
 363	1	6	0.163228	-37.0209	-17.2955	-44.9524
 364	1	6	0.134491	-39.3867	-17.7808	-44.2593
 365	1	6	0.172124	-39.7047	-13.7839	-42.5697
 366	1	5	-0.48162	-37.3037	-12.1679	-42.587
 367	1	5	-0.478641	-34.7282	-15.395	-44.6642
 368	1	5	-0.498568	-41.8103	-16.942	-43.4399
 369	1	6	0.153588	-35.1183	-10.9273	-44.0509
 370	1	6	0.146442	-33.4161	-9.6521	-42.8616
 371	1	7	0.027303	-31.712	-10.5706	-40.7565
 372	1	7	-0.256739	-30.2268	-10.7386	-41.1647
 373	1	8	0.074408	-29.5584	-10.2649	-40.4339
 374	1	8	0.075653	-30.0411	-10.2808	-42.1445
 375	1	8	0.063017	-29.9505	-11.798	-41.2326
 376	1	7	-0.003396	-32.0675	-9.05149	-40.5994
 377	1	7	0.23166	-33.1435	-8.92213	-39.4788
 378	1	8	0.003166	-32.3437	-8.53581	-41.5231
 379	1	8	0.018046	-31.1639	-8.53301	-40.2511
 380	1	3	0.065056	-32.8011	-10.1328	-38.6316
 381	1	7	-0.138879	-34.5907	-9.03394	-40.0199
 382	1	7	-0.25744	-32.984	-7.58624	-38.7111
 383	1	3	0.018858	-31.9794	-11.0235	-39.3184
 384	1	8	0.063111	-31.9915	-7.51465	-38.2483
 385	1	8	0.056661	-33.7319	-7.49749	-37.9135
 386	1	8	0.052049	-33.1096	-6.7316	-39.3877
 387	1	3	-0.499719	-33.1721	-10.3632	-37.2959
 388	1	3	-0.078325	-31.4777	-12.1603	-38.6608
 389	1	3	-0.430686	-31.8508	-12.4015	-37.3237
 390	1	3	0.29919	-32.6972	-11.51	-36.6241
 391	1	6	0.134637	-30.804	-12.8432	-39.1713
 392	1	8	0.0139	-34.7896	-8.26549	-40.7774
 393	1	8	0.03702	-35.318	-8.90559	-39.2084
 394	1	8	0.035416	-34.7804	-10.0164	-40.467
 395	1	6	0.223374	-33.7888	-9.63806	-36.7721
 396	1	6	0.198405	-31.4704	-13.2855	-36.8164
 397	1	1	0.464138	-39.2862	-8.03529	-16.1927
 398	1	2	0.077422	-39.9142	-9.24085	-16.5059
 399	1	3	0.04486	-39.5306	-9.52557	-17.909
 400	1	2	0.055008	-38.4851	-7.56256	-17.2356
 401	1	3	-0.004417	-38.6815	-8.53049	-18.3479
 402	1	5	-0.392499	-40.7179	-9.87687	-15.8434
 403	1	5	-0.37854	-37.849	-6.52341	-17.2933
 404	1	3	-0.044101	-40.0004	-10.5222	-18.7679
 405	1	3	-0.056346	-38.2546	-8.47606	-19.6806
 406	1	3	-0.157726	-38.7173	-9.4719	-20.5695
 407	1	3	-0.13238	-39.5894	-10.5037	-20.1215
 408	1	6	0.167375	-40.7078	-11.2635	-18.3987
 409	1	6	0.161059	-37.6233	-7.65876	-20.0228
 410	1	6	0.140064	-38.4323	-9.40355	-21.6178
 411	1	2	0.57844	-40.2005	-11.5181	-21.058
 412	1	3	-0.037172	-39.6812	-11.6862	-22.4586
 413	1	3	-0.116011	-40.6136	-11.7134	-23.5182
 414	1	3	-0.048223	-40.1362	-11.8913	-24.8202
 415	1	3	-0.138147	-38.2993	-11.8606	-22.7318
 416	1	3	-0.114262	-37.8426	-12.0569	-24.0531
 417	1	3	-0.063397	-38.7937	-12.0681	-25.0831
 418	1	2	0.489233	-38.6253	-12.1526	-26.5592
 419	1	1	-0.081676	-39.889	-11.9363	-27.0967
 420	1	2	0.489742	-40.8637	-11.8327	-26.1111
 421	1	3	0.047265	-40.1268	-11.6417	-28.4699
 422	1	3	-0.183349	-40.8772	-10.5034	-28.8045
 423	1	3	-0.091111	-41.0364	-10.1115	-30.1377
 424	1	3	-0.18836	-39.5616	-12.4054	-29.5082
 425	1	3	-0.138837	-39.7341	-12.02	-30.8531
 426	1	3	0.044906	-40.4637	-10.8581	-31.1875
 427	1	6	0.157291	-41.3153	-9.88189	-28.0289
 428	1	6	0.112962	-41.5861	-9.19651	-30.3277
 429	1	6	0.163228	-36.7815	-12.1631	-24.2734
 430	1	6	0.134491	-37.5786	-11.8496	-21.9169
 431	1	6	0.172124	-41.678	-11.5742	-23.3334
 432	1	5	-0.48162	-42.0486	-11.5808	-26.2449
 433	1	5	-0.478641	-37.5678	-12.2654	-27.1542
 434	1	5	-0.498568	-41.1959	-12.1356	-20.7158
 435	1	6	0.153588	-38.9618	-13.2813	-29.2726
 436	1	6	0.146442	-39.2644	-12.6071	-31.6378
 437	1	7	0.027303	-40.5206	-10.3532	-32.6432
 438	1	7	-0.256739	-41.6417	-9.3001	-32.8812
 439	1	8	0.074408	-41.4323	-8.35547	-32.364
 440	1	8	0.075653	-42.6124	-9.67793	-32.5338
 441	1	8	0.063017	-41.7515	-9.06726	-33.9473
 442	1	7	-0.003396	-39.1344	-9.76416	-33.0533
 443	1	7	0.23166	-38.8222	-10.2097	-34.5155
 444	1	8	0.003166	-38.3592	-10.1602	-32.3839
 445	1	8	0.018046	-39.1039	-8.67274	-32.9375
 446	1	3	0.065056	-39.8438	-11.3132	-34.7508
 447	1	7	-0.138879	-37.3726	-10.7442	-34.6326
 448	1	7	-0.25744	-39.0249	-9.03424	-35.5033
 449	1	3	0.018858	-40.7226	-11.4428	-33.6819
 450	1	8	0.063111	-38.842	-9.35407	-36.5365
 451	1	8	0.056661	-38.3368	-8.20992	-35.2766
 452	1	8	0.052049	-40.0478	-8.64325	-35.4514
 453	1	3	-0.499719	-40.0137	-12.0773	-35.9205
 454	1	3	-0.078325	-41.7704	-12.3725	-33.7307
 455	1	3	-0.430686	-41.9375	-13.1481	-34.8958
 456	1	3	0.29919	-41.0885	-12.993	-36.0208
 457	1	6	0.134637	-42.4777	-12.4444	-32.9068
 458	1	8	0.0139	-36.6455	-9.97416	-34.3445
 459	1	8	0.03702	-37.1507	-11.0534	-35.6618
 460	1	8	0.035416	-37.2225	-11.6153	-33.9817
 461	1	6	0.223374	-39.3431	-11.9264	-36.7635
 462	1	6	0.198405	-42.7867	-13.8262	-34.9551
 463	1	1	0.464138	-33.108	-2.98876	-0.649204
 464	1	2	0.077422	-32.8976	-2.57747	-1.96795
 465	1	3	0.04486	-33.7062	-1.33807	-2.12227
 466	1	2	0.055008	-33.9827	-2.14129	0.0390233
 467	1	3	-0.004417	-34.343	-1.07744	-0.924989
 468	1	5	-0.392499	-32.1939	-3.08653	-2.82553
 469	1	5	-0.37854	-34.4016	-2.23148	1.18187
 470	1	3	-0.044101	-33.866	-0.495639	-3.2287
 471	1	3	-0.056346	-35.1584	0.0454398	-0.749535
 472	1	3	-0.157726	-35.319	0.917932	-1.84405
 473	1	3	-0.13238	-34.6914	0.646268	-3.08559
 474	1	6	0.167375	-33.3519	-0.718865	-4.16162
 475	1	6	0.161059	-35.6436	0.233143	0.206102
 476	1	6	0.140064	-35.9442	1.80326	-1.73735
 477	1	2	0.57844	-34.9102	1.56876	-4.25033
 478	1	3	-0.037172	-35.3396	0.955827	-5.55629
 479	1	3	-0.116011	-36.0613	-0.262547	-5.56721
 480	1	3	-0.048223	-36.4831	-0.773453	-6.79922
 481	1	3	-0.138147	-35.0792	1.62791	-6.77839
 482	1	3	-0.114262	-35.507	1.08966	-8.00999
 483	1	3	-0.063397	-36.2084	-0.122403	-7.98532
 484	1	2	0.489233	-36.8474	-0.887516	-9.0879
 485	1	1	-0.081676	-37.5005	-1.94917	-8.47659
 486	1	2	0.489742	-37.318	-1.96495	-7.10228
 487	1	3	0.047265	-38.3669	-2.82813	-9.1731
 488	1	3	-0.183349	-39.7345	-2.84973	-8.85958
 489	1	3	-0.091111	-40.6277	-3.59405	-9.64456
 490	1	3	-0.18836	-37.8935	-3.60405	-10.2433
 491	1	3	-0.138837	-38.7858	-4.3663	-11.0167
 492	1	3	0.044906	-40.1729	-4.34632	-10.748
 493	1	6	0.157291	-40.1148	-2.25246	-8.03499
 494	1	6	0.112962	-41.6873	-3.5408	-9.41689
 495	1	6	0.163228	-35.3251	1.60702	-8.95064
 496	1	6	0.134491	-34.5503	2.57959	-6.76532
 497	1	6	0.172124	-36.3307	-0.781767	-4.64897
 498	1	5	-0.48162	-37.7995	-2.73095	-6.28553
 499	1	5	-0.478641	-36.85	-0.582835	-10.2678
 500	1	5	-0.498568	-34.8008	2.77609	-4.11958
 501	1	6	0.153588	-36.8393	-3.57909	-10.5082
 502	1	6	0.146442	-38.3911	-4.9167	-11.8661
 503	1	7	0.027303	-41.1986	-5.00533	-11.6905
 504	1	7	-0.256739	-42.2736	-5.80937	-10.9084
 505	1	8	0.074408	-42.9188	-6.37032	-11.5976
 506	1	8	0.075653	-42.9232	-5.15502	-10.3152
 507	1	8	0.063017	-41.8052	-6.53006	-10.2263
 508	1	7	-0.003396	-41.8643	-3.90118	-12.5757
 509	1	7	0.23166	-41.1374	-3.87954	-13.9561
 510	1	8	0.003166	-41.8562	-2.91449	-12.094
 511	1	8	0.018046	-42.9202	-4.15912	-12.7332
 512	1	3	0.065056	-40.5202	-5.26694	-13.9948
 513	1	7	-0.138879	-40.0405	-2.7881	-14.0154
 514	1	7	-0.25744	-42.1452	-3.65241	-15.1113
 515	1	3	0.018858	-40.5604	-5.88777	-12.753
 516	1	8	0.063111	-41.634	-3.63265	-16.0812
 517	1	8	0.056661	-42.6691	-2.6962	-14.9881
 518	1	8	0.052049	-42.8959	-4.45245	-15.1414
 519	1	3	-0.499719	-40.0228	-5.94152	-15.1208
 520	1	3	-0.078325	-40.1002	-7.205	-12.6015
 521	1	3	-0.430686	-39.635	-7.89846	-13.7371
 522	1	3	0.29919	-39.6036	-7.28583	-15.014
 523	1	6	0.134637	-40.1487	-7.696	-11.6322
 524	1	8	0.0139	-39.4895	-2.84189	-14.9632
 525	1	8	0.03702	-39.3141	-2.8998	-13.2038
 526	1	8	0.035416	-40.48	-1.78598	-13.9362
 527	1	6	0.223374	-39.9958	-5.43556	-16.0788
 528	1	6	0.198405	-39.3472	-8.94284	-13.6371
 529	1	1	0.464138	-16.6638	-15.0951	-1.44757
 530	1	2	0.077422	-17.6455	-16.0426	-1.13508
 531	1	3	0.04486	-18.9311	-15.297	-1.15411
 532	1	2	0.055008	-17.2063	-13.8298	-1.68948
 533	1	3	-0.004417	-18.6619	-13.9785	-1.46515
 534	1	5	-0.392499	-17.508	-17.2174	-0.833051
 535	1	5	-0.37854	-16.6421	-12.7966	-2.01118
 536	1	3	-0.044101	-20.2344	-15.7317	-0.876703
 537	1	3	-0.056346	-19.6656	-13.0075	-1.4929
 538	1	3	-0.157726	-20.9773	-13.4124	-1.18301
 539	1	3	-0.13238	-21.2705	-14.7685	-0.880014
 540	1	6	0.167375	-20.4293	-16.7755	-0.634661
 541	1	6	0.161059	-19.428	-11.9725	-1.72979
 542	1	6	0.140064	-21.7703	-12.6675	-1.19167
 543	1	2	0.57844	-22.6774	-15.1706	-0.542319
 544	1	3	-0.037172	-23.4795	-14.1794	0.246638
 545	1	3	-0.116011	-24.6049	-13.5403	-0.323123
 546	1	3	-0.048223	-25.2664	-12.5687	0.443539
 547	1	3	-0.138147	-23.0595	-13.8479	1.55932
 548	1	3	-0.114262	-23.7576	-12.8928	2.32249
 549	1	3	-0.063397	-24.8586	-12.265	1.72897
 550	1	2	0.489233	-25.7867	-11.2484	2.28389
 551	1	1	-0.081676	-26.7135	-10.9967	1.28104
 552	1	2	0.489742	-26.4582	-11.7311	0.130249
 553	1	3	0.047265	-27.849	-10.1631	1.46542
 554	1	3	-0.183349	-28.6847	-10.3852	2.57021
 555	1	3	-0.091111	-29.8007	-9.56913	2.7905
 556	1	3	-0.18836	-28.151	-9.11285	0.578691
 557	1	3	-0.138837	-29.271	-8.28717	0.804605
 558	1	3	0.044906	-30.1152	-8.5104	1.91459
 559	1	6	0.157291	-28.461	-11.1826	3.27436
 560	1	6	0.112962	-30.4137	-9.75108	3.66802
 561	1	6	0.163228	-23.4571	-12.6466	3.33964
 562	1	6	0.134491	-22.1953	-14.3478	1.99209
 563	1	6	0.172124	-24.9442	-13.781	-1.32952
 564	1	5	-0.48162	-27.0728	-11.718	-0.921829
 565	1	5	-0.478641	-25.7485	-10.7847	3.41069
 566	1	5	-0.498568	-23.1146	-16.2732	-0.820923
 567	1	6	0.153588	-27.5134	-8.93121	-0.283252
 568	1	6	0.146442	-29.4666	-7.47033	0.116619
 569	1	7	0.027303	-31.3289	-7.62523	2.25239
 570	1	7	-0.256739	-32.6189	-8.48674	2.34417
 571	1	8	0.074408	-33.4948	-7.85809	2.55224
 572	1	8	0.075653	-32.5574	-9.23837	3.13992
 573	1	8	0.063017	-32.8026	-9.0148	1.39981
 574	1	7	-0.003396	-31.0676	-6.89092	3.61112
 575	1	7	0.23166	-31.2445	-5.35569	3.40753
 576	1	8	0.003166	-30.0533	-7.10053	3.9765
 577	1	8	0.018046	-31.7454	-7.26357	4.39054
 578	1	3	0.065056	-31.6176	-5.24518	1.94306
 579	1	7	-0.138879	-29.9236	-4.59693	3.68177
 580	1	7	-0.25744	-32.3686	-4.80591	4.32049
 581	1	3	0.018858	-31.609	-6.47243	1.29567
 582	1	8	0.063111	-32.1193	-4.95072	5.37919
 583	1	8	0.056661	-33.3188	-5.31724	4.11951
 584	1	8	0.052049	-32.524	-3.73266	4.1545
 585	1	3	-0.499719	-32.0417	-4.08059	1.28488
 586	1	3	-0.078325	-32.0182	-6.56102	-0.0459869
 587	1	3	-0.430686	-32.459	-5.39529	-0.708944
 588	1	3	0.29919	-32.5105	-4.1447	-0.0447674
 589	1	6	0.134637	-32.043	-7.52656	-0.546784
 590	1	8	0.0139	-30.0394	-3.52348	3.48504
 591	1	8	0.03702	-29.1176	-4.97157	3.03739
 592	1	8	0.035416	-29.6098	-4.71869	4.72606
 593	1	6	0.223374	-32.0888	-3.14578	1.8378
 594	1	6	0.198405	-32.8061	-5.47161	-1.73739
 595	1	1	0.464138	-3.36178	-21.6543	10.7771
 596	1	2	0.077422	-3.48033	-20.3337	11.226
 597	1	3	0.04486	-3.95877	-19.5594	10.052
 598	1	2	0.055008	-3.70773	-21.7845	9.42754
 599	1	3	-0.004417	-4.07677	-20.4204	8.98166
 600	1	5	-0.392499	-3.24346	-19.8735	12.3315
 601	1	5	-0.37854	-3.76229	-22.7908	8.73919
 602	1	3	-0.044101	-4.27313	-18.2002	9.935
 603	1	3	-0.056346	-4.47118	-19.9688	7.72022
 604	1	3	-0.157726	-4.76298	-18.5981	7.57039
 605	1	3	-0.13238	-4.70711	-17.7057	8.67925
 606	1	6	0.167375	-4.17575	-17.5462	10.8006
 607	1	6	0.161059	-4.53094	-20.66	6.88181
 608	1	6	0.140064	-5.01275	-18.2419	6.57546
 609	1	2	0.57844	-5.02374	-16.2293	8.5588
 610	1	3	-0.037172	-5.7139	-15.679	7.33226
 611	1	3	-0.116011	-6.74783	-16.3856	6.66656
 612	1	3	-0.048223	-7.2625	-15.8491	5.47727
 613	1	3	-0.138147	-5.30452	-14.4146	6.83413
 614	1	3	-0.114262	-5.84946	-13.8838	5.64848
 615	1	3	-0.063397	-6.81709	-14.6414	4.98001
 616	1	2	0.489233	-7.47484	-14.4058	3.6704
 617	1	1	-0.081676	-8.26386	-15.5263	3.43556
 618	1	2	0.489742	-8.22553	-16.4233	4.49721
 619	1	3	0.047265	-8.94177	-15.7625	2.20538
 620	1	3	-0.183349	-8.27173	-15.5557	0.98702
 621	1	3	-0.091111	-8.92894	-15.7506	-0.236927
 622	1	3	-0.18836	-10.2758	-16.206	2.17688
 623	1	3	-0.138837	-10.9344	-16.4045	0.949145
 624	1	3	0.044906	-10.2793	-16.1564	-0.277788
 625	1	6	0.157291	-7.23694	-15.223	0.982309
 626	1	6	0.112962	-8.37321	-15.5673	-1.1498
 627	1	6	0.163228	-5.50711	-12.9337	5.24186
 628	1	6	0.134491	-4.52945	-13.8571	7.35741
 629	1	6	0.172124	-7.11822	-17.3409	7.03405
 630	1	5	-0.48162	-8.77593	-17.507	4.5901
 631	1	5	-0.478641	-7.27089	-13.4569	2.93338
 632	1	5	-0.498568	-4.64788	-15.4631	9.43111