pySIMM System Object

860 atoms
950 bonds
1677 angles
2687 dihedrals
273 impropers

8 atom types
10 bond types
17 angle types
9 dihedral types
4 improper types

-140.163605 140.163605 xlo xhi
-140.163605 140.163605 ylo yhi
-140.163605 140.163605 zlo zhi

Masses

   1	14.01	# n
   2	12.01	# c
   3	12.01	# ca
   4	1.008	# hn
   5	16.0	# o
   6	1.008	# ha
   7	12.01	# c3
   8	1.008	# hc

Pair Coeffs

   1	0.17	3.249998523775958	# n
   2	0.086	3.3996695084235347	# c
   3	0.086	3.3996695084235347	# ca
   4	0.0157	1.069078461768407	# hn
   5	0.21	2.959921901149463	# o
   6	0.015	2.59964245953351	# ha
   7	0.1094	3.3996695084235347	# c3
   8	0.0157	2.649532787749369	# hc

Bond Coeffs

   1	427.6	1.3789	# c,n
   2	461.1	1.3984	# ca,ca
   3	345.9	1.4906	# c,ca
   4	300.9	1.5375	# c3,c3
   5	345.8	1.086	# ca,ha
   6	384.2	1.4121	# ca,n
   7	637.7	1.2183	# c,o
   8	321.0	1.5156	# c3,ca
   9	330.6	1.0969	# c3,hc
  10	403.2	1.0129	# hn,n

Angle Coeffs

   1	63.82	123.71	# c,n,ca
   2	67.87	120.19	# ca,ca,n
   3	67.68	115.25	# ca,c,n
   4	63.15	112.07	# c3,c3,ca
   5	63.0	118.11	# ca,c,ca
   6	63.56	112.24	# ca,c3,ca
   7	46.34	109.8	# c3,c3,hc
   8	48.33	117.55	# c,n,hn
   9	74.22	123.05	# n,c,o
  10	64.28	120.33	# c,ca,ca
  11	39.4	107.58	# hc,c3,hc
  12	66.62	120.02	# ca,ca,ca
  13	63.53	120.77	# c3,ca,ca
  14	62.86	111.51	# c3,c3,c3
  15	63.74	127.08	# c,n,c
  16	48.18	119.88	# ca,ca,ha
  17	68.72	122.6	# ca,c,o

Dihedral Coeffs

   1	2	2.5	2	180	2.0	1	0	# hn,n,c,o
   2	1	3.625	2	180	# X,ca,ca,X
   3	1	0.16	3	0	# hc,c3,c3,c3
   4	1	1.0	2	180	# X,c,ca,X
   5	1	0.15555555555555556	3	0	# X,c3,c3,X
   6	1	0.0	2	0	# X,c3,ca,X
   7	3	0.18	3	0	0.25	2	180	0.2	1	180	# c3,c3,c3,c3
   8	1	2.5	2	180	# X,c,n,X
   9	1	0.45	2	180	# X,ca,n,X

Improper Coeffs

   1	1.1	-1	2	# ca,ca,ca,c3
   2	1.1	-1	2	# n,X,X,hn
   3	1.1	-1	2	# ca,X,X,ha
   4	10.5	-1	2	# c,X,X,o

Atoms

   1	1	1	0.464138	-32.9285	-38.9469	-40.7506
   2	1	2	0.077422	-33.2485	-39.975	-41.6401
   3	1	3	0.04486	-33.9503	-39.3094	-42.7702
   4	1	2	0.055008	-33.4043	-37.7055	-41.1749
   5	1	3	-0.004417	-34.0395	-37.9612	-42.4919
   6	1	5	-0.392499	-32.9473	-41.156	-41.5764
   7	1	5	-0.37854	-33.279	-36.6173	-40.6376
   8	1	3	-0.044101	-34.3905	-39.8335	-43.9924
   9	1	3	-0.056346	-34.563	-37.0591	-43.4211
  10	1	3	-0.157726	-34.9843	-37.5599	-44.6707
  11	1	3	-0.13238	-34.917	-38.9507	-44.9718
  12	1	6	0.167375	-34.2747	-40.8983	-44.1913
  13	1	6	0.161059	-34.5946	-35.9955	-43.1941
  14	1	6	0.140064	-35.3249	-36.8398	-45.4054
  15	1	2	0.57844	-35.2926	-39.5319	-46.3233
  16	1	3	-0.037172	-35.6413	-38.6533	-47.5023
  17	1	3	-0.116011	-35.0452	-38.9467	-48.7523
  18	1	3	-0.048223	-35.3969	-38.1731	-49.866
  19	1	3	-0.138147	-36.6191	-37.625	-47.4267
  20	1	3	-0.114262	-36.9528	-36.8515	-48.5593
  21	1	3	-0.063397	-36.3132	-37.1465	-49.7702
  22	1	2	0.489233	-36.5554	-36.6137	-51.1378
  23	1	1	-0.081676	-35.8015	-37.4107	-51.9933
  24	1	2	0.489742	-35.033	-38.338	-51.2983
  25	1	3	0.047265	-35.9854	-37.4671	-53.4048
  26	1	3	-0.183349	-34.8977	-37.6292	-54.2833
  27	1	3	-0.091111	-35.1144	-37.9162	-55.6442
  28	1	3	-0.18836	-37.2888	-37.5152	-53.9275
  29	1	3	-0.138837	-37.5036	-37.807	-55.2812
  30	1	3	0.044906	-36.4249	-38.0731	-56.1469
  31	1	6	0.157291	-33.8802	-37.5977	-53.9016
  32	1	6	0.112962	-34.2507	-38.0619	-56.2843
  33	1	6	0.163228	-37.72	-36.0803	-48.5148
  34	1	6	0.134491	-37.1542	-37.4499	-46.4967
  35	1	6	0.172124	-34.3521	-39.7804	-48.8617
  36	1	5	-0.48162	-34.3066	-39.2056	-51.7523
  37	1	5	-0.478641	-37.3538	-35.7394	-51.4277
  38	1	5	-0.498568	-35.1742	-40.7322	-46.5093
  39	1	6	0.153588	-38.1482	-37.3834	-53.2753
  40	1	6	0.146442	-38.5235	-37.8793	-55.6464
  41	1	7	0.027303	-36.7391	-38.5733	-57.5704
  42	1	7	-0.256739	-37.632	-39.8433	-57.4894
  43	1	8	0.074408	-37.1829	-40.5824	-56.813
  44	1	8	0.075653	-37.7406	-40.3237	-58.4689
  45	1	8	0.063017	-38.6381	-39.6172	-57.1173
  46	1	7	-0.003396	-37.4273	-37.4422	-58.397
  47	1	7	0.23166	-36.9027	-37.5127	-59.8632
  48	1	8	0.003166	-37.1459	-36.4717	-57.9654
  49	1	8	0.018046	-38.5226	-37.4985	-58.3442
  50	1	3	0.065056	-35.6394	-38.3454	-59.7111
  51	1	7	-0.138879	-36.604	-36.1007	-60.4227
  52	1	7	-0.25744	-37.9297	-38.2236	-60.7809
  53	1	3	0.018858	-35.5433	-38.9194	-58.4458
  54	1	8	0.063111	-38.137	-39.2422	-60.4339
  55	1	8	0.056661	-37.5538	-38.2938	-61.8089
  56	1	8	0.052049	-38.8802	-37.6754	-60.8038
  57	1	3	-0.499719	-34.6734	-38.6122	-60.699
  58	1	3	-0.078325	-34.509	-39.8253	-58.1524
  59	1	3	-0.430686	-33.5313	-40.0811	-59.1335
  60	1	3	0.29919	-33.6077	-39.4744	-60.3995
  61	1	6	0.134637	-34.4693	-40.322	-57.1853
  62	1	8	0.0139	-35.8504	-35.5872	-59.8123
  63	1	8	0.03702	-37.5124	-35.4852	-60.4337
  64	1	8	0.035416	-36.2225	-36.1586	-61.4497
  65	1	6	0.223374	-34.7534	-38.1752	-61.6884
  66	1	6	0.198405	-32.7163	-40.7676	-58.9244
  67	1	1	0.464138	-20.4718	-26.4011	-29.8632
  68	1	2	0.077422	-20.9291	-27.4836	-29.1026
  69	1	3	0.04486	-21.4943	-28.4445	-30.0767
  70	1	2	0.055008	-20.702	-26.587	-31.2317
  71	1	3	-0.004417	-21.3549	-27.9214	-31.3454
  72	1	5	-0.392499	-20.8441	-27.6727	-27.8993
  73	1	5	-0.37854	-20.4272	-25.8443	-32.1601
  74	1	3	-0.044101	-22.0597	-29.7038	-29.8532
  75	1	3	-0.056346	-21.7571	-28.6482	-32.4736
  76	1	3	-0.157726	-22.3397	-29.9212	-32.2735
  77	1	3	-0.13238	-22.5196	-30.4469	-30.9639
  78	1	6	0.167375	-22.1379	-30.094	-28.8394
  79	1	6	0.161059	-21.6055	-28.2422	-33.4717
  80	1	6	0.140064	-22.6281	-30.5105	-33.1417
  81	1	2	0.57844	-23.1111	-31.8125	-30.707
  82	1	3	-0.037172	-24.2883	-32.3253	-31.5089
  83	1	3	-0.116011	-24.5936	-33.7082	-31.46
  84	1	3	-0.048223	-25.6797	-34.188	-32.2052
  85	1	3	-0.138147	-25.1238	-31.4622	-32.2705
  86	1	3	-0.114262	-26.2054	-31.9698	-33.0226
  87	1	3	-0.063397	-26.4505	-33.3485	-32.9792
  88	1	2	0.489233	-27.4419	-34.1792	-33.7168
  89	1	1	-0.081676	-27.1898	-35.5001	-33.3502
  90	1	2	0.489742	-26.1711	-35.5778	-32.4005
  91	1	3	0.047265	-27.7956	-36.6371	-33.9785
  92	1	3	-0.183349	-29.1453	-36.6333	-34.387
  93	1	3	-0.091111	-29.6894	-37.7216	-35.0989
  94	1	3	-0.18836	-27.0221	-37.7757	-34.2698
  95	1	3	-0.138837	-27.5696	-38.8682	-34.9588
  96	1	3	0.044906	-28.9052	-38.8511	-35.4162
  97	1	6	0.157291	-29.7746	-35.7705	-34.1843
  98	1	6	0.112962	-30.7254	-37.675	-35.4239
  99	1	6	0.163228	-26.8304	-31.3172	-33.63
 100	1	6	0.134491	-24.9429	-30.3908	-32.2817
 101	1	6	0.172124	-23.9877	-34.3981	-30.8729
 102	1	5	-0.48162	-25.7083	-36.5687	-31.8618
 103	1	5	-0.478641	-28.236	-33.7611	-34.5417
 104	1	5	-0.498568	-22.652	-32.4926	-29.8038
 105	1	6	0.153588	-25.9764	-37.8213	-33.9779
 106	1	6	0.146442	-26.9225	-39.7169	-35.1494
 107	1	7	0.027303	-29.4899	-40.0135	-36.2542
 108	1	7	-0.256739	-28.3815	-40.9217	-36.8616
 109	1	8	0.074408	-27.8631	-41.5002	-36.0866
 110	1	8	0.075653	-27.6395	-40.3212	-37.4035
 111	1	8	0.063017	-28.7921	-41.6373	-37.5817
 112	1	7	-0.003396	-30.5046	-40.8749	-35.4373
 113	1	7	0.23166	-31.6735	-41.2913	-36.3906
 114	1	8	0.003166	-30.9093	-40.2627	-34.6202
 115	1	8	0.018046	-30.0258	-41.7423	-34.9648
 116	1	3	0.065056	-31.5273	-40.2934	-37.5296
 117	1	7	-0.138879	-33.0441	-41.1462	-35.6854
 118	1	7	-0.25744	-31.5178	-42.7501	-36.8915
 119	1	3	0.018858	-30.3604	-39.5458	-37.4096
 120	1	8	0.063111	-32.3346	-43.0166	-37.5738
 121	1	8	0.056661	-31.5351	-43.4562	-36.0518
 122	1	8	0.052049	-30.5791	-42.8968	-37.435
 123	1	3	-0.499719	-32.3988	-40.1053	-38.62
 124	1	3	-0.078325	-30.0502	-38.5544	-38.3502
 125	1	3	-0.430686	-30.9305	-38.3444	-39.4293
 126	1	3	0.29919	-32.1006	-39.1257	-39.5952
 127	1	6	0.134637	-29.1363	-37.9724	-38.2527
 128	1	8	0.0139	-33.2262	-40.1053	-35.3891
 129	1	8	0.03702	-33.0877	-41.7711	-34.7845
 130	1	8	0.035416	-33.8617	-41.4539	-36.3496
 131	1	6	0.223374	-33.2767	-40.7368	-38.7283
 132	1	6	0.198405	-30.6924	-37.574	-40.1594
 133	1	1	0.464138	-6.06918	-10.159	-27.4479
 134	1	2	0.077422	-6.09683	-11.5317	-27.6782
 135	1	3	0.04486	-7.46568	-11.8107	-28.1795
 136	1	2	0.055008	-7.26261	-9.52523	-27.7927
 137	1	3	-0.004417	-8.16249	-10.6192	-28.2466
 138	1	5	-0.392499	-5.23202	-12.3578	-27.4362
 139	1	5	-0.37854	-7.55389	-8.34577	-27.6838
 140	1	3	-0.044101	-8.07058	-13.0329	-28.4895
 141	1	3	-0.056346	-9.5072	-10.5828	-28.6361
 142	1	3	-0.157726	-10.1431	-11.8066	-28.9418
 143	1	3	-0.13238	-9.43752	-13.0367	-28.8528
 144	1	6	0.167375	-7.49872	-13.9575	-28.4226
 145	1	6	0.161059	-10.0404	-9.63565	-28.686
 146	1	6	0.140064	-11.1849	-11.798	-29.2564
 147	1	2	0.57844	-10.0842	-14.3573	-29.1822
 148	1	3	-0.037172	-11.4637	-14.705	-28.6641
 149	1	3	-0.116011	-12.1009	-15.8612	-29.1755
 150	1	3	-0.048223	-13.3163	-16.2695	-28.6129
 151	1	3	-0.138147	-12.0826	-13.9918	-27.5994
 152	1	3	-0.114262	-13.3055	-14.427	-27.0413
 153	1	3	-0.063397	-13.8977	-15.5838	-27.5665
 154	1	2	0.489233	-15.0673	-16.3766	-27.0896
 155	1	1	-0.081676	-15.0942	-17.5195	-27.8816
 156	1	2	0.489742	-14.1027	-17.5064	-28.8536
 157	1	3	0.047265	-15.8437	-18.6922	-27.5857
 158	1	3	-0.183349	-15.6946	-19.296	-26.3278
 159	1	3	-0.091111	-16.1923	-20.5864	-26.098
 160	1	3	-0.18836	-16.5717	-19.3677	-28.5834
 161	1	3	-0.138837	-17.087	-20.6579	-28.3459
 162	1	3	0.044906	-16.8677	-21.3024	-27.1093
 163	1	6	0.157291	-15.1232	-18.7995	-25.5476
 164	1	6	0.112962	-15.9789	-21.0609	-25.1448
 165	1	6	0.163228	-13.7526	-13.9157	-26.1902
 166	1	6	0.134491	-11.5892	-13.1328	-27.1527
 167	1	6	0.172124	-11.632	-16.4655	-29.9517
 168	1	5	-0.48162	-13.8277	-18.3808	-29.6568
 169	1	5	-0.478641	-15.7428	-16.133	-26.1048
 170	1	5	-0.498568	-9.43346	-15.1946	-29.7859
 171	1	6	0.153588	-16.6704	-18.9261	-29.5719
 172	1	6	0.146442	-17.588	-21.177	-29.1567
 173	1	7	0.027303	-17.1491	-22.8022	-26.8877
 174	1	7	-0.256739	-15.7843	-23.5437	-26.8754
 175	1	8	0.074408	-15.2112	-23.3219	-27.7851
 176	1	8	0.075653	-15.924	-24.6314	-26.8233
 177	1	8	0.063017	-15.1719	-23.2417	-26.0167
 178	1	7	-0.003396	-17.9104	-23.07	-25.5442
 179	1	7	0.23166	-19.3717	-23.4881	-25.8757
 180	1	8	0.003166	-17.8938	-22.2141	-24.859
 181	1	8	0.018046	-17.4168	-23.8932	-25.0103
 182	1	3	0.065056	-19.2559	-23.9162	-27.3274
 183	1	7	-0.138879	-20.3313	-22.2823	-25.7417
 184	1	7	-0.25744	-19.8393	-24.6405	-24.95
 185	1	3	0.018858	-18.0693	-23.4781	-27.9031
 186	1	8	0.063111	-20.8703	-24.9386	-25.1764
 187	1	8	0.056661	-19.801	-24.3372	-23.8964
 188	1	8	0.052049	-19.2006	-25.525	-25.0739
 189	1	3	-0.499719	-20.1142	-24.7945	-28.0121
 190	1	3	-0.078325	-17.7354	-23.8805	-29.2075
 191	1	3	-0.430686	-18.5805	-24.7818	-29.888
 192	1	3	0.29919	-19.7558	-25.2947	-29.285
 193	1	6	0.134637	-16.7938	-23.5671	-29.6529
 194	1	8	0.0139	-21.3502	-22.5579	-26.0416
 195	1	8	0.03702	-20.0048	-21.4477	-26.3752
 196	1	8	0.035416	-20.3677	-21.9265	-24.7041
 197	1	6	0.223374	-20.9921	-25.1819	-27.5023
 198	1	6	0.198405	-18.2803	-25.1409	-30.8702
 199	1	1	0.464138	3.33625	-12.616	-9.15451
 200	1	2	0.077422	3.11557	-13.6845	-10.0283
 201	1	3	0.04486	2.80654	-13.0623	-11.3443
 202	1	2	0.055008	3.19091	-11.3774	-9.78128
 203	1	3	-0.004417	2.84696	-11.6899	-11.1931
 204	1	5	-0.392499	3.17483	-14.8813	-9.79622
 205	1	5	-0.37854	3.31531	-10.2626	-9.30145
 206	1	3	-0.044101	2.50232	-13.6553	-12.5787
 207	1	3	-0.056346	2.57599	-10.8299	-12.2623
 208	1	3	-0.157726	2.2713	-11.4033	-13.5147
 209	1	3	-0.13238	2.2407	-12.8142	-13.6891
 210	1	6	0.167375	2.46532	-14.7401	-12.6691
 211	1	6	0.161059	2.58824	-9.75151	-12.1185
 212	1	6	0.140064	2.02858	-10.7415	-14.3433
 213	1	2	0.57844	1.85613	-13.4294	-15.0152
 214	1	3	-0.037172	2.01807	-12.6235	-16.2793
 215	1	3	-0.116011	0.956467	-12.5596	-17.2142
 216	1	3	-0.048223	1.12343	-11.7696	-18.3628
 217	1	3	-0.138147	3.22918	-11.9315	-16.5443
 218	1	3	-0.114262	3.38469	-11.1644	-17.7174
 219	1	3	-0.063397	2.30383	-11.0978	-18.6062
 220	1	2	0.489233	2.14926	-10.3306	-19.8695
 221	1	1	-0.081676	0.84351	-10.5525	-20.301
 222	1	2	0.489742	0.169469	-11.4347	-19.459
 223	1	3	0.047265	0.252664	-9.88991	-21.4237
 224	1	3	-0.183349	0.527534	-8.53178	-21.6679
 225	1	3	-0.091111	-0.0348412	-7.86629	-22.7681
 226	1	3	-0.18836	-0.610596	-10.5631	-22.3105
 227	1	3	-0.138837	-1.1842	-9.8918	-23.4095
 228	1	3	0.044906	-0.917711	-8.5247	-23.6482
 229	1	6	0.157291	1.19325	-7.97964	-21.0104
 230	1	6	0.112962	0.231217	-6.82751	-22.9297
 231	1	6	0.163228	4.30774	-10.6257	-17.9262
 232	1	6	0.134491	4.05581	-11.9959	-15.8395
 233	1	6	0.172124	0.0188682	-13.0848	-17.0363
 234	1	5	-0.48162	-0.9871	-11.8121	-19.5334
 235	1	5	-0.478641	3.00318	-9.6191	-20.3707
 236	1	5	-0.498568	1.36231	-14.5436	-15.0562
 237	1	6	0.153588	-0.843933	-11.6131	-22.1496
 238	1	6	0.146442	-1.8358	-10.4483	-24.0781
 239	1	7	0.027303	-1.51737	-7.77073	-24.8581
 240	1	7	-0.256739	-1.84401	-6.28924	-24.5162
 241	1	8	0.074408	-2.45525	-5.82377	-25.2989
 242	1	8	0.075653	-0.936262	-5.68297	-24.411
 243	1	8	0.063017	-2.41021	-6.22367	-23.5782
 244	1	7	-0.003396	-0.552182	-7.8599	-26.0828
 245	1	7	0.23166	-1.4016	-8.10628	-27.3696
 246	1	8	0.003166	0.127143	-8.71043	-25.9348
 247	1	8	0.018046	0.0856483	-6.97088	-26.1729
 248	1	3	0.065056	-2.72671	-8.58224	-26.7954
 249	1	7	-0.138879	-0.745367	-9.17548	-28.2766
 250	1	7	-0.25744	-1.59028	-6.79545	-28.1739
 251	1	3	0.018858	-2.78419	-8.3994	-25.4176
 252	1	8	0.063111	-2.07267	-6.02054	-27.5672
 253	1	8	0.056661	-2.21955	-6.96565	-29.0564
 254	1	8	0.052049	-0.624383	-6.40386	-28.5176
 255	1	3	-0.499719	-3.81265	-9.13998	-27.4979
 256	1	3	-0.078325	-3.94465	-8.72798	-24.7025
 257	1	3	-0.430686	-5.03229	-9.29159	-25.3962
 258	1	3	0.29919	-4.97855	-9.51368	-26.7924
 259	1	6	0.134637	-3.9927	-8.55942	-23.6288
 260	1	8	0.0139	0.262783	-8.86519	-28.5799
 261	1	8	0.03702	-1.33656	-9.33654	-29.1867
 262	1	8	0.035416	-0.663985	-10.1368	-27.7536
 263	1	6	0.223374	-3.74611	-9.29349	-28.5711
 264	1	6	0.198405	-5.92627	-9.5681	-24.843
 265	1	1	0.464138	4.0435	-0.349535	6.2563
 266	1	2	0.077422	4.11297	-1.71908	5.9882
 267	1	3	0.04486	4.91125	-1.82663	4.73043
 268	1	2	0.055008	4.75014	0.418542	5.33823
 269	1	3	-0.004417	5.2878	-0.547371	4.35978
 270	1	5	-0.392499	3.59151	-2.63852	6.59786
 271	1	5	-0.37854	4.85979	1.63217	5.28502
 272	1	3	-0.044101	5.19314	-2.93544	3.91125
 273	1	3	-0.056346	5.9769	-0.288212	3.1767
 274	1	3	-0.157726	6.25487	-1.37794	2.33705
 275	1	3	-0.13238	5.85917	-2.69741	2.68048
 276	1	6	0.167375	4.83077	-3.92318	4.18854
 277	1	6	0.161059	6.2349	0.730952	2.89573
 278	1	6	0.140064	6.7401	-1.18996	1.38023
 279	1	2	0.57844	6.02199	-3.75711	1.62361
 280	1	3	-0.037172	6.1458	-5.21772	1.94142
 281	1	3	-0.116011	5.15021	-6.07773	1.43214
 282	1	3	-0.048223	5.45035	-7.43574	1.28916
 283	1	3	-0.138147	7.39431	-5.75203	2.35338
 284	1	3	-0.114262	7.68227	-7.12589	2.18417
 285	1	3	-0.063397	6.69361	-7.94135	1.61158
 286	1	2	0.489233	6.79851	-9.30408	1.01134
 287	1	1	-0.081676	5.60683	-9.50422	0.318025
 288	1	2	0.489742	4.71099	-8.46201	0.516956
 289	1	3	0.047265	5.39756	-10.5376	-0.643766
 290	1	3	-0.183349	4.87923	-10.2214	-1.91478
 291	1	3	-0.091111	4.69431	-11.2146	-2.89029
 292	1	3	-0.18836	5.72794	-11.8751	-0.367828
 293	1	3	-0.138837	5.54925	-12.869	-1.34802
 294	1	3	0.044906	5.0497	-12.5538	-2.63178
 295	1	6	0.157291	4.6088	-9.19634	-2.15538
 296	1	6	0.112962	4.26777	-10.9267	-3.84596
 297	1	6	0.163228	8.67938	-7.51974	2.37584
 298	1	6	0.134491	8.19073	-5.08046	2.66743
 299	1	6	0.172124	4.23172	-5.67979	1.00347
 300	1	5	-0.48162	3.5931	-8.32415	0.0507712
 301	1	5	-0.478641	7.79939	-9.99972	0.99582
 302	1	5	-0.498568	6.02808	-3.43133	0.448086
 303	1	6	0.153588	6.13414	-12.1453	0.60403
 304	1	6	0.146442	5.80175	-13.8951	-1.10025
 305	1	7	0.027303	4.8503	-13.6692	-3.68058
 306	1	7	-0.256739	6.11591	-14.5629	-3.79897
 307	1	8	0.074408	7.00216	-13.9538	-4.01885
 308	1	8	0.075653	6.00398	-15.2945	-4.61002
 309	1	8	0.063017	6.31289	-15.1249	-2.87873
 310	1	7	-0.003396	3.60684	-14.5336	-3.29691
 311	1	7	0.23166	2.69357	-14.6981	-4.55282
 312	1	8	0.003166	3.04569	-14.0361	-2.49424
 313	1	8	0.018046	3.90857	-15.5079	-2.89015
 314	1	3	0.065056	3.34993	-13.7957	-5.58188
 315	1	7	-0.138879	1.25116	-14.2248	-4.24895
 316	1	7	-0.25744	2.67804	-16.1676	-5.03894
 317	1	3	0.018858	4.49933	-13.1926	-5.08765
 318	1	8	0.063111	2.28539	-16.8344	-4.26118
 319	1	8	0.056661	3.69035	-16.5028	-5.29819
 320	1	8	0.052049	2.04858	-16.2798	-5.93058
 321	1	3	-0.499719	2.94145	-13.603	-6.91591
 322	1	3	-0.078325	5.26529	-12.3564	-5.91642
 323	1	3	-0.430686	4.85046	-12.1422	-7.24773
 324	1	3	0.29919	3.69887	-12.776	-7.77561
 325	1	6	0.134637	6.17556	-11.8968	-5.53737
 326	1	8	0.0139	1.24606	-13.1781	-3.91697
 327	1	8	0.03702	0.796937	-14.8343	-3.45759
 328	1	8	0.035416	0.616491	-14.2967	-5.14077
 329	1	6	0.223374	2.06827	-14.1287	-7.29382
 330	1	6	0.198405	5.4413	-11.4894	-7.88654
 331	1	1	0.464138	3.77824	13.1756	9.17528
 332	1	2	0.077422	3.87023	12.2944	10.2599
 333	1	3	0.04486	4.99955	12.795	11.077
 334	1	2	0.055008	4.69665	14.2279	9.29083
 335	1	3	-0.004417	5.50976	13.9306	10.4936
 336	1	5	-0.392499	3.29834	11.2321	10.4472
 337	1	5	-0.37854	4.89872	15.1546	8.53062
 338	1	3	-0.044101	5.63029	12.1807	12.1565
 339	1	3	-0.056346	6.68765	14.5264	10.962
 340	1	3	-0.157726	7.37652	13.8872	12.0177
 341	1	3	-0.13238	6.88127	12.686	12.5918
 342	1	6	0.167375	5.18368	11.281	12.572
 343	1	6	0.161059	7.08947	15.4125	10.473
 344	1	6	0.140064	8.32731	14.2955	12.3579
 345	1	2	0.57844	7.70799	11.915	13.5981
 346	1	3	-0.037172	7.47599	10.4258	13.7024
 347	1	3	-0.116011	7.14362	9.67502	12.5483
 348	1	3	-0.048223	6.63794	8.38457	12.7187
 349	1	3	-0.138147	7.46129	9.79281	14.972
 350	1	3	-0.114262	6.99549	8.46695	15.1139
 351	1	3	-0.063397	6.54637	7.8023	13.9633
 352	1	2	0.489233	5.78779	6.5306	13.8156
 353	1	1	-0.081676	5.40344	6.46546	12.4748
 354	1	2	0.489742	5.93502	7.52131	11.738
 355	1	3	0.047265	4.46044	5.52941	11.9431
 356	1	3	-0.183349	3.34786	5.11773	12.7029
 357	1	3	-0.091111	2.38052	4.25314	12.1626
 358	1	3	-0.18836	4.57091	5.06031	10.6202
 359	1	3	-0.138837	3.59424	4.211	10.0733
 360	1	3	0.044906	2.48773	3.78226	10.8376
 361	1	6	0.157291	3.21428	5.47511	13.7199
 362	1	6	0.112962	1.5396	3.96984	12.7858
 363	1	6	0.163228	6.90763	7.99998	16.093
 364	1	6	0.134491	7.74015	10.3616	15.8575
 365	1	6	0.172124	7.1525	10.1162	11.5524
 366	1	5	-0.48162	5.75474	7.80481	10.566
 367	1	5	-0.478641	5.46907	5.79653	14.7351
 368	1	5	-0.498568	8.50079	12.4799	14.3321
 369	1	6	0.153588	5.40191	5.37371	9.99316
 370	1	6	0.146442	3.69803	3.89607	9.03757
 371	1	7	0.027303	1.42068	2.86721	10.198
 372	1	7	-0.256739	0.519621	2.13183	11.2261
 373	1	8	0.074408	1.12603	1.56864	11.9468
 374	1	8	0.075653	-0.145466	1.41887	10.7222
 375	1	8	0.063017	-0.114376	2.83457	11.781
 376	1	7	-0.003396	0.541862	3.68528	9.19516
 377	1	7	0.23166	0.526373	2.94212	7.82186
 378	1	8	0.003166	0.967859	4.68938	9.06572
 379	1	8	0.018046	-0.474937	3.84078	9.57946
 380	1	3	0.065056	1.62363	1.90409	7.99006
 381	1	7	-0.138879	0.826178	3.9176	6.65672
 382	1	7	-0.25744	-0.837905	2.24955	7.58375
 383	1	3	0.018858	2.07702	1.83376	9.2995
 384	1	8	0.063111	-1.64698	2.98786	7.51578
 385	1	8	0.056661	-1.07574	1.55867	8.40208
 386	1	8	0.052049	-0.825388	1.67257	6.65056
 387	1	3	-0.499719	2.22013	1.12558	6.98352
 388	1	3	-0.078325	3.10257	0.944531	9.65686
 389	1	3	-0.430686	3.70645	0.161268	8.6528
 390	1	3	0.29919	3.29361	0.263812	7.30419
 391	1	6	0.134637	3.45865	0.906959	10.6842
 392	1	8	0.0139	1.8094	4.38897	6.78287
 393	1	8	0.03702	0.0713528	4.71261	6.60807
 394	1	8	0.035416	0.825473	3.39435	5.69248
 395	1	6	0.223374	1.90663	1.24729	5.95042
 396	1	6	0.198405	4.53678	-0.48995	8.91388
 397	1	1	0.464138	5.2853	17.746	5.31897
 398	1	2	0.077422	6.41212	17.0848	5.80662
 399	1	3	0.04486	7.06053	16.4926	4.61362
 400	1	2	0.055008	5.21352	17.7379	3.9269
 401	1	3	-0.004417	6.37238	16.911	3.49102
 402	1	5	-0.392499	6.78022	16.9527	6.96209
 403	1	5	-0.37854	4.31932	18.1614	3.21339
 404	1	3	-0.044101	8.08081	15.5365	4.53942
 405	1	3	-0.056346	6.73641	16.4714	2.21369
 406	1	3	-0.157726	7.79086	15.5377	2.10968
 407	1	3	-0.13238	8.4188	15.0106	3.27089
 408	1	6	0.167375	8.54485	15.1627	5.45092
 409	1	6	0.161059	6.18892	16.8133	1.33779
 410	1	6	0.140064	8.0786	15.1763	1.12461
 411	1	2	0.57844	9.38329	13.8488	3.21003
 412	1	3	-0.037172	8.82521	12.485	2.84281
 413	1	3	-0.116011	7.66138	12.3579	2.04992
 414	1	3	-0.048223	7.06513	11.1041	1.91117
 415	1	3	-0.138147	9.37358	11.3096	3.42827
 416	1	3	-0.114262	8.73061	10.0549	3.30616
 417	1	3	-0.063397	7.55144	9.98678	2.55003
 418	1	2	0.489233	6.47156	8.95623	2.54169
 419	1	1	-0.081676	5.35262	9.60438	2.01465
 420	1	2	0.489742	5.69228	10.8283	1.44641
 421	1	3	0.047265	4.03481	9.44946	2.53989
 422	1	3	-0.183349	2.9181	9.85474	1.78291
 423	1	3	-0.091111	1.78717	10.3936	2.4229
 424	1	3	-0.18836	3.89974	9.36189	3.93663
 425	1	3	-0.138837	2.76571	9.8782	4.57167
 426	1	3	0.044906	1.75061	10.516	3.82874
 427	1	6	0.157291	3.00067	9.95027	0.703035
 428	1	6	0.112962	1.01299	10.8414	1.80833
 429	1	6	0.163228	9.07965	9.18768	3.86449
 430	1	6	0.134491	10.2497	11.3903	4.06934
 431	1	6	0.172124	7.13912	13.2077	1.63017
 432	1	5	-0.48162	4.95914	11.6789	0.968806
 433	1	5	-0.478641	6.49893	7.91108	3.16794
 434	1	5	-0.498568	10.4644	13.9456	3.76495
 435	1	6	0.153588	4.7354	9.05381	4.5599
 436	1	6	0.146442	2.77241	9.92364	5.656
 437	1	7	0.027303	0.777307	11.4777	4.54745
 438	1	7	-0.256739	0.176066	12.5579	3.60588
 439	1	8	0.074408	0.958026	13.0395	3.00388
 440	1	8	0.075653	-0.325542	13.3454	4.18366
 441	1	8	0.063017	-0.565107	12.1245	2.92229
 442	1	7	-0.003396	-0.356989	10.7163	5.30143
 443	1	7	0.23166	-0.0950095	10.8229	6.83936
 444	1	8	0.003166	-0.410308	9.67042	4.97121
 445	1	8	0.018046	-1.33187	11.1602	5.05968
 446	1	3	0.065056	1.07424	11.791	6.92966
 447	1	7	-0.138879	0.283932	9.43797	7.42272
 448	1	7	-0.25744	-1.33097	11.3804	7.58478
 449	1	3	0.018858	1.52916	12.1678	5.67618
 450	1	8	0.063111	-2.19603	10.7178	7.45705
 451	1	8	0.056661	-1.60085	12.3742	7.20523
 452	1	8	0.052049	-1.12955	11.4731	8.65935
 453	1	3	-0.499719	1.75527	12.1886	8.09546
 454	1	3	-0.078325	2.69721	12.9331	5.54893
 455	1	3	-0.430686	3.41425	13.2818	6.71001
 456	1	3	0.29919	2.96509	12.9221	8.00833
 457	1	6	0.134637	3.08621	13.1746	4.56155
 458	1	8	0.0139	-0.555655	8.73623	7.34157
 459	1	8	0.03702	0.558535	9.51695	8.4819
 460	1	8	0.035416	1.13527	8.99928	6.88999
 461	1	6	0.223374	1.38726	11.8439	9.05793
 462	1	6	0.198405	4.36202	13.7995	6.58819
 463	1	1	0.464138	-0.493684	24.2339	22.3184
 464	1	2	0.077422	0.84495	23.8186	22.3723
 465	1	3	0.04486	0.882656	22.5129	21.6747
 466	1	2	0.055008	-1.30356	23.3024	21.6578
 467	1	3	-0.004417	-0.388962	22.2111	21.2394
 468	1	5	-0.392499	1.82341	24.4025	22.812
 469	1	5	-0.37854	-2.50327	23.3416	21.4389
 470	1	3	-0.044101	1.96166	21.6541	21.4452
 471	1	3	-0.056346	-0.65901	21.0248	20.5517
 472	1	3	-0.157726	0.407686	20.1258	20.3362
 473	1	3	-0.13238	1.731	20.4421	20.753
 474	1	6	0.167375	2.9528	21.9134	21.8151
 475	1	6	0.161059	-1.67252	20.797	20.2284
 476	1	6	0.140064	0.177399	19.1629	19.8941
 477	1	2	0.57844	2.91124	19.5129	20.5871
 478	1	3	-0.037172	3.35422	19.0699	19.2058
 479	1	3	-0.116011	2.44504	18.8009	18.1538
 480	1	3	-0.048223	2.95057	18.4506	16.8982
 481	1	3	-0.138147	4.74755	18.9678	18.9392
 482	1	3	-0.114262	5.23612	18.6377	17.6561
 483	1	3	-0.063397	4.30177	18.3788	16.6457
 484	1	2	0.489233	4.48345	18.1034	15.1928
 485	1	1	-0.081676	3.20001	18.0706	14.6469
 486	1	2	0.489742	2.22361	18.2247	15.6278
 487	1	3	0.047265	2.89979	18.1191	13.2502
 488	1	3	-0.183349	3.69085	18.8924	12.3819
 489	1	3	-0.091111	3.25391	19.1759	11.0799
 490	1	3	-0.18836	1.71419	17.5521	12.7432
 491	1	3	-0.138837	1.25752	17.8727	11.4525
 492	1	3	0.044906	1.99026	18.7495	10.6233
 493	1	6	0.157291	4.62119	19.3368	12.7248
 494	1	6	0.112962	3.87769	19.7987	10.45
 495	1	6	0.163228	6.30416	18.6131	17.4479
 496	1	6	0.134491	5.4599	19.1828	19.7343
 497	1	6	0.172124	1.37325	18.8691	18.2657
 498	1	5	-0.48162	1.01141	18.2783	15.5021
 499	1	5	-0.478641	5.55414	18.0095	14.6175
 500	1	5	-0.498568	3.66263	19.3808	21.5385
 501	1	6	0.153588	1.08845	16.9323	13.3802
 502	1	6	0.146442	0.299736	17.475	11.1354
 503	1	7	0.027303	1.44749	19.2805	9.27587
 504	1	7	-0.256739	-0.033905	18.8996	9.00223
 505	1	8	0.074408	-0.690817	19.2778	9.79651
 506	1	8	0.075653	-0.163686	17.8124	8.93344
 507	1	8	0.063017	-0.377284	19.3271	8.05126
 508	1	7	-0.003396	1.60948	20.8382	9.16977
 509	1	7	0.23166	2.54809	21.1713	7.96148
 510	1	8	0.003166	2.01223	21.2605	10.0992
 511	1	8	0.018046	0.632023	21.3226	9.04365
 512	1	3	0.065056	2.97698	19.7994	7.46525
 513	1	7	-0.138879	3.76402	22.0273	8.3963
 514	1	7	-0.25744	1.75989	21.9241	6.8622
 515	1	3	0.018858	2.32166	18.782	8.14868
 516	1	8	0.063111	1.37725	22.8807	7.24088
 517	1	8	0.056661	0.904922	21.3283	6.51741
 518	1	8	0.052049	2.39708	22.1325	5.99394
 519	1	3	-0.499719	3.94059	19.5013	6.47823
 520	1	3	-0.078325	2.52863	17.4414	7.81213
 521	1	3	-0.430686	3.45631	17.141	6.80489
 522	1	3	0.29919	4.21829	18.148	6.1759
 523	1	6	0.134637	2.01431	16.6485	8.34913
 524	1	8	0.0139	4.38039	21.5036	9.13531
 525	1	8	0.03702	3.43701	22.9766	8.83878
 526	1	8	0.035416	4.40544	22.2595	7.53717
 527	1	6	0.223374	4.48326	20.3004	5.98195
 528	1	6	0.198405	3.65186	16.1001	6.56984
 529	1	1	0.464138	11.099	23.4037	20.5778
 530	1	2	0.077422	10.0517	23.4115	19.6562
 531	1	3	0.04486	10.1887	24.6957	18.9428
 532	1	2	0.055008	11.9877	24.4646	20.4053
 533	1	3	-0.004417	11.3412	25.3251	19.3747
 534	1	5	-0.392499	9.07897	22.6747	19.6024
 535	1	5	-0.37854	12.9511	24.7616	21.0922
 536	1	3	-0.044101	9.22439	25.3562	18.1792
 537	1	3	-0.056346	11.6199	26.648	19.0084
 538	1	3	-0.157726	10.6633	27.3359	18.2282
 539	1	3	-0.13238	9.44317	26.7109	17.8571
 540	1	6	0.167375	8.28371	24.8616	17.9409
 541	1	6	0.161059	12.5078	27.1482	19.3889
 542	1	6	0.140064	10.8317	28.3816	17.9792
 543	1	2	0.57844	8.30272	27.4727	17.2395
 544	1	3	-0.037172	7.55417	28.4648	18.11
 545	1	3	-0.116011	6.22303	28.8113	17.768
 546	1	3	-0.048223	5.4858	29.6182	18.6485
 547	1	3	-0.138147	8.09898	28.9672	19.3259
 548	1	3	-0.114262	7.34333	29.7848	20.1901
 549	1	3	-0.063397	6.02717	30.0869	19.8276
 550	1	2	0.489233	4.93781	30.6998	20.6354
 551	1	1	-0.081676	3.77269	30.4779	19.9133
 552	1	2	0.489742	4.03099	29.9226	18.6619
 553	1	3	0.047265	2.48967	30.4251	20.5296
 554	1	3	-0.183349	1.80015	29.2077	20.4834
 555	1	3	-0.091111	0.608927	29.0316	21.1865
 556	1	3	-0.18836	1.94468	31.479	21.2898
 557	1	3	-0.138837	0.735013	31.2998	22.0011
 558	1	3	0.044906	0.0549395	30.059	21.985
 559	1	6	0.157291	2.20148	28.3674	19.9235
 560	1	6	0.112962	0.151862	28.0535	21.1133
 561	1	6	0.163228	7.74144	30.1144	21.1483
 562	1	6	0.134491	9.0959	28.6916	19.6484
 563	1	6	0.172124	5.74291	28.3931	16.8834
 564	1	5	-0.48162	3.22537	29.5431	17.8291
 565	1	5	-0.478641	5.04414	31.109	21.7786
 566	1	5	-0.498568	7.81391	27.066	16.1989
 567	1	6	0.153588	2.47736	32.4241	21.3622
 568	1	6	0.146442	0.348107	32.1235	22.5931
 569	1	7	0.027303	-1.22378	29.788	22.8281
 570	1	7	-0.256739	-1.28352	30.6114	24.1415
 571	1	8	0.074408	-0.335595	30.5445	24.6906
 572	1	8	0.075653	-2.0772	30.2328	24.7994
 573	1	8	0.063017	-1.49211	31.6694	23.9424
 574	1	7	-0.003396	-2.5143	29.986	21.9719
 575	1	7	0.23166	-2.95564	28.5902	21.4193
 576	1	8	0.003166	-2.35393	30.7176	21.169
 577	1	8	0.018046	-3.31228	30.3938	22.6067
 578	1	3	0.065056	-2.08977	27.6317	22.2224
 579	1	7	-0.138879	-2.70908	28.4868	19.8929
 580	1	7	-0.25744	-4.44968	28.3117	21.7151
 581	1	3	0.018858	-1.28576	28.3036	23.1327
 582	1	8	0.063111	-4.65643	28.3899	22.7904
 583	1	8	0.056661	-4.72528	27.2974	21.3985
 584	1	8	0.052049	-5.09849	29.0222	21.1883
 585	1	3	-0.499719	-1.89473	26.2598	21.9878
 586	1	3	-0.078325	-0.419399	27.602	23.9796
 587	1	3	-0.430686	-0.28061	26.2151	23.8001
 588	1	3	0.29919	-0.929492	25.5404	22.7352
 589	1	6	0.134637	0.218665	28.1341	24.6814
 590	1	8	0.0139	-3.00526	27.5024	19.5095
 591	1	8	0.03702	-1.65438	28.6445	19.6423
 592	1	8	0.035416	-3.29615	29.2431	19.3562
 593	1	6	0.223374	-2.42975	25.7866	21.1684
 594	1	6	0.198405	0.45116	25.6906	24.4102
 595	1	1	0.464138	7.33799	4.30127	22.0962
 596	1	2	0.077422	7.01201	5.05567	23.2283
 597	1	3	0.04486	6.52607	6.3533	22.7038
 598	1	2	0.055008	7.05206	4.98272	20.9068
 599	1	3	-0.004417	6.56328	6.31814	21.3261
 600	1	5	-0.392499	7.18734	4.79417	24.4076
 601	1	5	-0.37854	7.21311	4.62007	19.7528
 602	1	3	-0.044101	6.16616	7.51037	23.3972
 603	1	3	-0.056346	6.25982	7.44647	20.5566
 604	1	3	-0.157726	5.91165	8.635	21.2334
 605	1	3	-0.13238	5.85726	8.67288	22.6534
 606	1	6	0.167375	6.1682	7.51256	24.4866
 607	1	6	0.161059	6.32445	7.40488	19.4715
 608	1	6	0.140064	5.69769	9.52644	20.6479
 609	1	2	0.57844	5.53087	9.93151	23.4086
 610	1	3	-0.037172	5.58202	11.2484	22.6972
 611	1	3	-0.116011	6.73459	12.0414	22.8548
 612	1	3	-0.048223	6.69739	13.3545	22.3827
 613	1	3	-0.138147	4.43918	11.777	22.0447
 614	1	3	-0.114262	4.42454	13.1116	21.5801
 615	1	3	-0.063397	5.57378	13.8895	21.7816
 616	1	2	0.489233	5.77475	15.3641	21.6618
 617	1	1	-0.081676	6.99646	15.6067	22.2741
 618	1	2	0.489742	7.65011	14.448	22.6558
 619	1	3	0.047265	7.45956	16.8495	22.7567
 620	1	3	-0.183349	7.29383	17.1213	24.1239
 621	1	3	-0.091111	8.09073	18.0839	24.759
 622	1	3	-0.18836	8.33954	17.629	21.9968
 623	1	3	-0.138837	9.11845	18.611	22.6296
 624	1	3	0.044906	9.05949	18.8044	24.0322
 625	1	6	0.157291	6.62849	16.5048	24.7216
 626	1	6	0.112962	7.9976	18.2007	25.8328
 627	1	6	0.163228	3.52296	13.5574	21.1638
 628	1	6	0.134491	3.53389	11.1779	21.9789
 629	1	6	0.172124	7.59413	11.687	23.4227
 630	1	5	-0.48162	8.69259	14.3425	23.2795
 631	1	5	-0.478641	4.95986	16.1735	21.2558
 632	1	5	-0.498568	5.40082	9.9127	24.6207
 633	1	6	0.153588	8.48923	17.4155	20.9417
 634	1	6	0.146442	9.82618	19.1652	22.022
 635	1	7	0.027303	10.1013	19.6946	24.7467
 636	1	7	-0.256739	9.66563	20.1822	26.1554
 637	1	8	0.074408	8.67988	20.6633	26.1212
 638	1	8	0.075653	10.3811	20.9155	26.5498
 639	1	8	0.063017	9.61898	19.3516	26.8704
 640	1	7	-0.003396	11.4801	18.9646	24.8154
 641	1	7	0.23166	12.4333	19.5844	23.739
 642	1	8	0.003166	11.3567	17.8824	24.6714
 643	1	8	0.018046	11.9171	19.0858	25.8154
 644	1	3	0.065056	11.629	20.7706	23.214
 645	1	7	-0.138879	12.7662	18.5477	22.6357
 646	1	7	-0.25744	13.7512	20.064	24.3938