pySIMM System Object

2246 atoms
2483 bonds
4386 angles
7034 dihedrals
714 impropers

8 atom types
10 bond types
17 angle types
9 dihedral types
4 improper types

-196.371967 196.371967 xlo xhi
-196.371967 196.371967 ylo yhi
-196.371967 196.371967 zlo zhi

Masses

   1	14.01	# n
   2	12.01	# c
   3	12.01	# ca
   4	1.008	# hn
   5	16.0	# o
   6	1.008	# ha
   7	12.01	# c3
   8	1.008	# hc

Pair Coeffs

   1	0.17	3.249998523775958	# n
   2	0.086	3.3996695084235347	# c
   3	0.086	3.3996695084235347	# ca
   4	0.0157	1.069078461768407	# hn
   5	0.21	2.959921901149463	# o
   6	0.015	2.59964245953351	# ha
   7	0.1094	3.3996695084235347	# c3
   8	0.0157	2.649532787749369	# hc

Bond Coeffs

   1	427.6	1.3789	# c,n
   2	461.1	1.3984	# ca,ca
   3	345.9	1.4906	# c,ca
   4	300.9	1.5375	# c3,c3
   5	345.8	1.086	# ca,ha
   6	384.2	1.4121	# ca,n
   7	637.7	1.2183	# c,o
   8	321.0	1.5156	# c3,ca
   9	330.6	1.0969	# c3,hc
  10	403.2	1.0129	# hn,n

Angle Coeffs

   1	63.82	123.71	# c,n,ca
   2	67.87	120.19	# ca,ca,n
   3	67.68	115.25	# ca,c,n
   4	63.15	112.07	# c3,c3,ca
   5	63.0	118.11	# ca,c,ca
   6	63.56	112.24	# ca,c3,ca
   7	46.34	109.8	# c3,c3,hc
   8	48.33	117.55	# c,n,hn
   9	74.22	123.05	# n,c,o
  10	64.28	120.33	# c,ca,ca
  11	39.4	107.58	# hc,c3,hc
  12	66.62	120.02	# ca,ca,ca
  13	63.53	120.77	# c3,ca,ca
  14	62.86	111.51	# c3,c3,c3
  15	63.74	127.08	# c,n,c
  16	48.18	119.88	# ca,ca,ha
  17	68.72	122.6	# ca,c,o

Dihedral Coeffs

   1	2	2.5	2	180	2.0	1	0	# hn,n,c,o
   2	1	3.625	2	180	# X,ca,ca,X
   3	1	0.16	3	0	# hc,c3,c3,c3
   4	1	1.0	2	180	# X,c,ca,X
   5	1	0.15555555555555556	3	0	# X,c3,c3,X
   6	1	0.0	2	0	# X,c3,ca,X
   7	3	0.18	3	0	0.25	2	180	0.2	1	180	# c3,c3,c3,c3
   8	1	2.5	2	180	# X,c,n,X
   9	1	0.45	2	180	# X,ca,n,X

Improper Coeffs

   1	1.1	-1	2	# ca,ca,ca,c3
   2	1.1	-1	2	# n,X,X,hn
   3	1.1	-1	2	# ca,X,X,ha
   4	10.5	-1	2	# c,X,X,o

Atoms

   1	1	1	0.464138	80.6078	-93.8106	-108.169
   2	1	2	0.077422	79.5326	-94.5661	-108.639
   3	1	3	0.04486	79.3554	-94.1506	-110.053
   4	1	2	0.055008	81.1323	-92.958	-109.141
   5	1	3	-0.004417	80.3015	-93.1894	-110.349
   6	1	5	-0.392499	78.8527	-95.3835	-108.039
   7	1	5	-0.37854	82.0566	-92.1674	-109.044
   8	1	3	-0.044101	78.4354	-94.5977	-111.008
   9	1	3	-0.056346	80.3769	-92.6068	-111.618
  10	1	3	-0.157726	79.4529	-93.0337	-112.593
  11	1	3	-0.13238	78.4734	-94.0219	-112.303
  12	1	6	0.167375	77.7386	-95.388	-110.74
  13	1	6	0.161059	81.1323	-91.8554	-111.838
  14	1	6	0.140064	79.5041	-92.6028	-113.592
  15	1	2	0.57844	77.5499	-94.4905	-113.404
  16	1	3	-0.037172	76.3313	-95.3097	-113.069
  17	1	3	-0.116011	76.048	-96.4538	-113.848
  18	1	3	-0.048223	74.9269	-97.224	-113.518
  19	1	3	-0.138147	75.4548	-94.9456	-112.011
  20	1	3	-0.114262	74.3224	-95.7303	-111.704
  21	1	3	-0.063397	74.0894	-96.8758	-112.477
  22	1	2	0.489233	73.0219	-97.9083	-112.38
  23	1	1	-0.081676	73.3061	-98.839	-113.372
  24	1	2	0.489742	74.4289	-98.4906	-114.112
  25	1	3	0.047265	72.5633	-100.033	-113.585
  26	1	3	-0.183349	71.1638	-100.0	-113.705
  27	1	3	-0.091111	70.4419	-101.184	-113.937
  28	1	3	-0.18836	73.2263	-101.268	-113.69
  29	1	3	-0.138837	72.5049	-102.45	-113.918
  30	1	3	0.044906	71.0981	-102.429	-114.042
  31	1	6	0.157291	70.632	-99.0558	-113.621
  32	1	6	0.112962	69.363	-101.127	-114.043
  33	1	6	0.163228	73.6488	-95.4646	-110.891
  34	1	6	0.134491	75.6475	-94.046	-111.431
  35	1	6	0.172124	76.694	-96.7464	-114.676
  36	1	5	-0.48162	74.9445	-99.0981	-115.035
  37	1	5	-0.478641	72.1092	-97.9232	-111.572
  38	1	5	-0.498568	77.8364	-94.2873	-114.573
  39	1	6	0.153588	74.3098	-101.314	-113.612
  40	1	6	0.146442	73.0627	-103.377	-114.012
  41	1	7	0.027303	70.2823	-103.708	-114.319
  42	1	7	-0.256739	69.0829	-103.838	-113.342
  43	1	8	0.074408	69.4162	-103.743	-112.3
  44	1	8	0.075653	68.5962	-104.817	-113.45
  45	1	8	0.063017	68.3228	-103.069	-113.525
  46	1	7	-0.003396	69.7994	-103.737	-115.805
  47	1	7	0.23166	70.7757	-104.645	-116.617
  48	1	8	0.003166	69.7199	-102.731	-116.238
  49	1	8	0.018046	68.7913	-104.172	-115.846
  50	1	3	0.065056	71.4217	-105.473	-115.52
  51	1	7	-0.138879	71.8416	-103.8	-117.358
  52	1	7	-0.25744	70.0084	-105.525	-117.636
  53	1	3	0.018858	71.1355	-104.965	-114.257
  54	1	8	0.063111	69.2892	-106.178	-117.124
  55	1	8	0.056661	70.6976	-106.165	-118.201
  56	1	8	0.052049	69.4573	-104.904	-118.353
  57	1	3	-0.499719	72.2333	-106.612	-115.671
  58	1	3	-0.078325	71.6449	-105.583	-113.103
  59	1	3	-0.430686	72.4549	-106.725	-113.251
  60	1	3	0.29919	72.7487	-107.24	-114.526
  61	1	6	0.134637	71.4276	-105.176	-112.119
  62	1	8	0.0139	72.3983	-103.161	-116.663
  63	1	8	0.03702	71.3745	-103.153	-118.111
  64	1	8	0.035416	72.5652	-104.448	-117.87
  65	1	6	0.223374	72.4637	-107.004	-116.655
  66	1	6	0.198405	72.8636	-107.218	-112.374
  67	1	1	0.464138	89.7317	-78.4928	-97.6394
  68	1	2	0.077422	90.4158	-79.5951	-98.157
  69	1	3	0.04486	89.381	-80.6417	-98.3492
  70	1	2	0.055008	88.3629	-78.7331	-97.4948
  71	1	3	-0.004417	88.161	-80.1305	-97.955
  72	1	5	-0.392499	91.6044	-79.7079	-98.4107
  73	1	5	-0.37854	87.4974	-77.9892	-97.0626
  74	1	3	-0.044101	89.5107	-81.9554	-98.8124
  75	1	3	-0.056346	86.9989	-80.9082	-97.9892
  76	1	3	-0.157726	87.1051	-82.2379	-98.4506
  77	1	3	-0.13238	88.353	-82.767	-98.883
  78	1	6	0.167375	90.4896	-82.3366	-99.1004
  79	1	6	0.161059	86.0515	-80.496	-97.6479
  80	1	6	0.140064	86.2154	-82.8638	-98.4418
  81	1	2	0.57844	88.5071	-84.1984	-99.34
  82	1	3	-0.037172	87.3544	-84.9418	-99.973
  83	1	3	-0.116011	87.3154	-86.3532	-99.8703
  84	1	3	-0.048223	86.2633	-87.0428	-100.487
  85	1	3	-0.138147	86.3517	-84.2718	-100.726
  86	1	3	-0.114262	85.2998	-84.9861	-101.337
  87	1	3	-0.063397	85.282	-86.3789	-101.194
  88	1	2	0.489233	84.3382	-87.391	-101.738
  89	1	1	-0.081676	84.8243	-88.6266	-101.323
  90	1	2	0.489742	85.9795	-88.5011	-100.559
  91	1	3	0.047265	84.2264	-89.8749	-101.664
  92	1	3	-0.183349	84.0605	-90.8834	-100.698
  93	1	3	-0.091111	83.4855	-92.1181	-101.044
  94	1	3	-0.18836	83.7975	-90.1243	-102.979
  95	1	3	-0.138837	83.2196	-91.3567	-103.325
  96	1	3	0.044906	83.0628	-92.3809	-102.364
  97	1	6	0.157291	84.3865	-90.7178	-99.674
  98	1	6	0.112962	83.3681	-92.8759	-100.275
  99	1	6	0.163228	84.5324	-84.4802	-101.921
 100	1	6	0.134491	86.3987	-83.1943	-100.864
 101	1	6	0.172124	88.0889	-86.9002	-99.3317
 102	1	5	-0.48162	86.6455	-89.3847	-100.048
 103	1	5	-0.478641	83.3495	-87.1533	-102.41
 104	1	5	-0.498568	89.5798	-84.7605	-99.1913
 105	1	6	0.153588	83.9055	-89.3583	-103.743
 106	1	6	0.146442	82.8921	-91.4938	-104.351
 107	1	7	0.027303	82.4358	-93.7488	-102.709
 108	1	7	-0.256739	83.3637	-94.9156	-102.276
 109	1	8	0.074408	83.4537	-94.9767	-101.184
 110	1	8	0.075653	84.3719	-94.7885	-102.69
 111	1	8	0.063017	82.9735	-95.8788	-102.63
 112	1	7	-0.003396	81.0251	-93.8864	-102.052
 113	1	7	0.23166	79.9539	-93.5263	-103.128
 114	1	8	0.003166	80.922	-93.2724	-101.148
 115	1	8	0.018046	80.8777	-94.9281	-101.737
 116	1	3	0.065056	80.7274	-93.721	-104.42
 117	1	7	-0.138879	79.4963	-92.0539	-102.99
 118	1	7	-0.25744	78.7271	-94.4663	-103.032
 119	1	3	0.018858	82.088	-93.8709	-104.185
 120	1	8	0.063111	77.9792	-94.2165	-103.795
 121	1	8	0.056661	78.248	-94.3853	-102.048
 122	1	8	0.052049	79.0228	-95.5124	-103.183
 123	1	3	-0.499719	80.2173	-93.7169	-105.731
 124	1	3	-0.078325	82.9813	-94.0477	-105.252
 125	1	3	-0.430686	82.4774	-94.0428	-106.567
 126	1	3	0.29919	81.0966	-93.8697	-106.827
 127	1	6	0.134637	84.0481	-94.1481	-105.065
 128	1	8	0.0139	80.3476	-91.3651	-103.05
 129	1	8	0.03702	78.9946	-91.8877	-102.028
 130	1	8	0.035416	78.7934	-91.7878	-103.789
 131	1	6	0.223374	79.1507	-93.5899	-105.896
 132	1	6	0.198405	83.1728	-94.1395	-107.398
 133	1	1	0.464138	89.7977	-64.4445	-81.7041
 134	1	2	0.077422	88.9506	-64.25	-82.7956
 135	1	3	0.04486	89.2665	-65.3553	-83.7341
 136	1	2	0.055008	90.6075	-65.5733	-81.8465
 137	1	3	-0.004417	90.2487	-66.1443	-83.1697
 138	1	5	-0.392499	88.1437	-63.3543	-82.9856
 139	1	5	-0.37854	91.4502	-66.0099	-81.0794
 140	1	3	-0.044101	88.7613	-65.615	-85.0122
 141	1	3	-0.056346	90.7814	-67.2435	-83.8508
 142	1	3	-0.157726	90.2899	-67.5238	-85.1437
 143	1	3	-0.13238	89.2733	-66.7207	-85.7334
 144	1	6	0.167375	88.0091	-64.9546	-85.4419
 145	1	6	0.161059	91.5723	-67.8396	-83.4001
 146	1	6	0.140064	90.7371	-68.3462	-85.6964
 147	1	2	0.57844	88.7869	-66.9418	-87.1469
 148	1	3	-0.037172	89.0844	-68.2315	-87.8665
 149	1	3	-0.116011	89.4964	-68.1747	-89.2176
 150	1	3	-0.048223	89.7719	-69.3759	-89.882
 151	1	3	-0.138147	88.92	-69.4937	-87.2356
 152	1	3	-0.114262	89.1928	-70.6926	-87.9285
 153	1	3	-0.063397	89.6257	-70.5981	-89.2578
 154	1	2	0.489233	90.0053	-71.6597	-90.2288
 155	1	1	-0.081676	90.3787	-70.9937	-91.3907
 156	1	2	0.489742	90.2561	-69.6153	-91.2663
 157	1	3	0.047265	90.8674	-71.6419	-92.5595
 158	1	3	-0.183349	92.0414	-71.188	-93.1848
 159	1	3	-0.091111	92.5337	-71.832	-94.3309
 160	1	3	-0.18836	90.1945	-72.7503	-93.1023
 161	1	3	-0.138837	90.6865	-73.3944	-94.251
 162	1	3	0.044906	91.8668	-72.9439	-94.8843
 163	1	6	0.157291	92.5772	-70.3309	-92.785
 164	1	6	0.112962	93.4488	-71.4655	-94.786
 165	1	6	0.163228	89.0719	-71.665	-87.4537
 166	1	6	0.134491	88.5665	-69.5449	-86.2079
 167	1	6	0.172124	89.6101	-67.221	-89.7322
 168	1	5	-0.48162	90.5261	-68.7565	-92.0882
 169	1	5	-0.478641	90.0101	-72.8592	-90.0117
 170	1	5	-0.498568	88.2225	-66.0384	-87.7416
 171	1	6	0.153588	89.291	-73.1249	-92.627
 172	1	6	0.146442	90.1436	-74.2561	-94.6275
 173	1	7	0.027303	92.4608	-73.6401	-96.1255
 174	1	7	-0.256739	92.661	-72.6292	-97.2868
 175	1	8	0.074408	91.7275	-72.096	-97.5067
 176	1	8	0.075653	92.9789	-73.1427	-98.2037
 177	1	8	0.063017	93.4259	-71.8815	-97.0449
 178	1	7	-0.003396	93.8089	-74.341	-95.7595
 179	1	7	0.23166	93.506	-75.8428	-95.4704
 180	1	8	0.003166	94.3247	-73.8571	-94.9199
 181	1	8	0.018046	94.4889	-74.2753	-96.6196
 182	1	3	0.065056	92.2017	-76.0421	-96.2233
 183	1	7	-0.138879	93.3006	-76.0934	-93.9564
 184	1	7	-0.25744	94.6402	-76.7541	-96.0006
 185	1	3	0.018858	91.6343	-74.8293	-96.5926
 186	1	8	0.063111	94.4231	-77.8103	-95.7992
 187	1	8	0.056661	95.5956	-76.5079	-95.5205
 188	1	8	0.052049	94.7621	-76.6379	-97.0851
 189	1	3	-0.499719	91.581	-77.2597	-96.5519
 190	1	3	-0.078325	90.4308	-74.7966	-97.3125
 191	1	3	-0.430686	89.8083	-76.0139	-97.6515
 192	1	3	0.29919	90.3701	-77.2607	-97.2815
 193	1	6	0.134637	89.9845	-73.8459	-97.5951
 194	1	8	0.0139	93.0281	-77.1395	-93.7676
 195	1	8	0.03702	92.5006	-75.4624	-93.5517
 196	1	8	0.035416	94.2181	-75.876	-93.3952
 197	1	6	0.223374	92.0489	-78.1977	-96.263
 198	1	6	0.198405	88.8693	-75.9899	-98.2004
 199	1	1	0.464138	83.7398	-60.8215	-61.5245
 200	1	2	0.077422	83.2617	-61.8662	-62.3148
 201	1	3	0.04486	83.7529	-61.568	-63.6852
 202	1	2	0.055008	84.4514	-59.8703	-62.2519
 203	1	3	-0.004417	84.4542	-60.3769	-63.6451
 204	1	5	-0.392499	82.638	-62.8563	-61.9688
 205	1	5	-0.37854	85.0147	-58.8665	-61.8474
 206	1	3	-0.044101	83.652	-62.3201	-64.863
 207	1	3	-0.056346	85.072	-59.8498	-64.7816
 208	1	3	-0.157726	84.9896	-60.5915	-65.976
 209	1	3	-0.13238	84.3091	-61.8395	-66.0199
 210	1	6	0.167375	83.1165	-63.2684	-64.8669
 211	1	6	0.161059	85.6135	-58.9074	-64.7294
 212	1	6	0.140064	85.4682	-60.1962	-66.8701
 213	1	2	0.57844	84.2943	-62.6617	-67.2826
 214	1	3	-0.037172	85.5117	-62.6172	-68.1699
 215	1	3	-0.116011	85.3653	-62.6565	-69.5764
 216	1	3	-0.048223	86.5174	-62.5244	-70.3662
 217	1	3	-0.138147	86.8095	-62.5111	-67.6007
 218	1	3	-0.114262	87.9528	-62.3849	-68.4124
 219	1	3	-0.063397	87.7692	-62.379	-69.7989
 220	1	2	0.489233	88.7554	-62.1671	-70.8887
 221	1	1	-0.081676	88.0193	-62.1807	-72.064
 222	1	2	0.489742	86.6697	-62.4207	-71.8433
 223	1	3	0.047265	88.5687	-61.8732	-73.3349
 224	1	3	-0.183349	88.4872	-62.7882	-74.3964
 225	1	3	-0.091111	89.0206	-62.4638	-75.6561
 226	1	3	-0.18836	89.1996	-60.6362	-73.5426
 227	1	3	-0.138837	89.7182	-60.3072	-74.8048
 228	1	3	0.044906	89.6175	-61.2037	-75.8887
 229	1	6	0.157291	88.0082	-63.7525	-74.2477
 230	1	6	0.112962	88.9608	-63.2078	-76.4427
 231	1	6	0.163228	88.9467	-62.2717	-67.9828
 232	1	6	0.134491	86.932	-62.5113	-66.5196
 233	1	6	0.172124	84.3818	-62.7408	-70.038
 234	1	5	-0.48162	85.7713	-62.4629	-72.6655
 235	1	5	-0.478641	89.9439	-61.9376	-70.7468
 236	1	5	-0.498568	83.3262	-63.3435	-67.5731
 237	1	6	0.153588	89.2894	-59.9268	-72.7237
 238	1	6	0.146442	90.2078	-59.3472	-74.9363
 239	1	7	0.027303	90.2001	-60.7948	-77.2575
 240	1	7	-0.256739	89.6447	-59.4157	-77.7086
 241	1	8	0.074408	89.9746	-59.1685	-78.7252
 242	1	8	0.075653	89.9732	-58.6033	-77.05
 243	1	8	0.063017	88.5471	-59.4239	-77.7109
 244	1	7	-0.003396	91.7608	-60.775	-77.1802
 245	1	7	0.23166	92.3352	-61.4505	-78.4637
 246	1	8	0.003166	92.0819	-61.3486	-76.3
 247	1	8	0.018046	92.1517	-59.7584	-77.041
 248	1	3	0.065056	91.1193	-62.1615	-79.0324
 249	1	7	-0.138879	93.4764	-62.4376	-78.1179
 250	1	7	-0.25744	92.8541	-60.3864	-79.4627
 251	1	3	0.018858	89.9499	-61.7893	-78.3816
 252	1	8	0.063111	93.684	-59.8132	-79.0305
 253	1	8	0.056661	92.0605	-59.6809	-79.7371
 254	1	8	0.052049	93.213	-60.8593	-80.3854
 255	1	3	-0.499719	91.0884	-63.0461	-80.1253
 256	1	3	-0.078325	88.7062	-62.2521	-78.8386
 257	1	3	-0.430686	88.6687	-63.1466	-79.9249
 258	1	3	0.29919	89.8532	-63.5602	-80.5804
 259	1	6	0.134637	87.7879	-61.9217	-78.3576
 260	1	8	0.0139	93.8737	-62.9144	-79.0228
 261	1	8	0.03702	93.1191	-63.2308	-77.4489
 262	1	8	0.035416	94.3041	-61.9175	-77.6193
 263	1	6	0.223374	92.015	-63.3284	-80.619
 264	1	6	0.198405	87.7046	-63.5003	-80.2841
 265	1	1	0.464138	83.9907	-46.7497	-46.6375
 266	1	2	0.077422	84.5811	-47.6666	-47.5107
 267	1	3	0.04486	83.549	-47.9428	-48.5429
 268	1	2	0.055008	82.6808	-46.4322	-47.0003
 269	1	3	-0.004417	82.4184	-47.2109	-48.2352
 270	1	5	-0.392499	85.7031	-48.1458	-47.4732
 271	1	5	-0.37854	81.8965	-45.6792	-46.4469
 272	1	3	-0.044101	83.6073	-48.7628	-49.6773
 273	1	3	-0.056346	81.2792	-47.2486	-49.0443
 274	1	3	-0.157726	81.3103	-48.0782	-50.1832
 275	1	3	-0.13238	82.4552	-48.857	-50.496
 276	1	6	0.167375	84.5237	-49.302	-49.9093
 277	1	6	0.161059	80.4041	-46.6509	-48.7977
 278	1	6	0.140064	80.4371	-48.1225	-50.833
 279	1	2	0.57844	82.4272	-49.7246	-51.7292
 280	1	3	-0.037172	82.9056	-51.1613	-51.6794
 281	1	3	-0.116011	82.8957	-51.9196	-52.8772
 282	1	3	-0.048223	83.259	-53.2718	-52.8248
 283	1	3	-0.138147	83.2722	-51.8042	-50.463
 284	1	3	-0.114262	83.6597	-53.1594	-50.4385
 285	1	3	-0.063397	83.642	-53.8697	-51.6435
 286	1	2	0.489233	83.8816	-55.3117	-51.9089
 287	1	1	-0.081676	83.5731	-55.5086	-53.2517
 288	1	2	0.489742	83.2217	-54.3181	-53.8816
 289	1	3	0.047265	83.506	-56.7897	-53.8771
 290	1	3	-0.183349	83.9368	-56.9772	-55.2037
 291	1	3	-0.091111	83.7921	-58.2243	-55.8372
 292	1	3	-0.18836	82.9474	-57.8837	-53.1914
 293	1	3	-0.138837	82.8161	-59.1318	-53.8185
 294	1	3	0.044906	83.2191	-59.3205	-55.1549
 295	1	6	0.157291	84.3596	-56.1465	-55.7634
 296	1	6	0.112962	84.11	-58.3139	-56.8711
 297	1	6	0.163228	83.9213	-53.6584	-49.5068
 298	1	6	0.134491	83.222	-51.278	-49.5156
 299	1	6	0.172124	82.5706	-51.4814	-53.8207
 300	1	5	-0.48162	82.8641	-54.1488	-55.0344
 301	1	5	-0.478641	84.2154	-56.1384	-51.0772
 302	1	5	-0.498568	81.917	-49.2862	-52.7472
 303	1	6	0.153588	82.599	-57.7709	-52.168
 304	1	6	0.146442	82.3741	-59.9548	-53.2643
 305	1	7	0.027303	82.9915	-60.693	-55.8185
 306	1	7	-0.256739	83.7718	-61.7987	-55.0588
 307	1	8	0.074408	84.8365	-61.5438	-54.983
 308	1	8	0.075653	83.6926	-62.7632	-55.5772
 309	1	8	0.063017	83.3873	-61.9347	-54.0407
 310	1	7	-0.003396	81.4645	-61.0274	-55.8753
 311	1	7	0.23166	80.9354	-60.6088	-57.2797
 312	1	8	0.003166	80.8896	-60.5593	-55.0663
 313	1	8	0.018046	81.3351	-62.1118	-55.7586
 314	1	3	0.065056	82.2062	-60.6712	-58.1084
 315	1	7	-0.138879	80.3762	-59.1648	-57.2622
 316	1	7	-0.25744	79.8431	-61.5846	-57.7816
 317	1	3	0.018858	83.3375	-60.7114	-57.3006
 318	1	8	0.063111	79.4719	-61.286	-58.7696
 319	1	8	0.056661	78.99	-61.602	-57.0916
 320	1	8	0.052049	80.2369	-62.6056	-57.8646
 321	1	3	-0.499719	82.3149	-60.7024	-59.5103
 322	1	3	-0.078325	84.6176	-60.7828	-57.8697
 323	1	3	-0.430686	84.7351	-60.806	-59.272
 324	1	3	0.29919	83.5926	-60.7724	-60.1066
 325	1	6	0.134637	85.5012	-60.8115	-57.2363
 326	1	8	0.0139	81.1289	-58.4476	-56.9134
 327	1	8	0.03702	79.5056	-59.0889	-56.5989
 328	1	8	0.035416	80.0645	-58.856	-58.2679
 329	1	6	0.223374	81.4207	-60.6905	-60.1275
 330	1	6	0.198405	85.7252	-60.847	-59.7201
 331	1	1	0.464138	78.8716	-46.7446	-29.8396
 332	1	2	0.077422	78.1518	-45.6741	-30.3743
 333	1	3	0.04486	79.1758	-44.7703	-30.9579
 334	1	2	0.055008	80.2499	-46.6007	-30.0004
 335	1	3	-0.004417	80.4217	-45.3281	-30.7421
 336	1	5	-0.392499	76.9429	-45.5112	-30.413
 337	1	5	-0.37854	81.1419	-47.3637	-29.6671
 338	1	3	-0.044101	79.0213	-43.5707	-31.6643
 339	1	3	-0.056346	81.5878	-44.7267	-31.223
 340	1	3	-0.157726	81.4565	-43.5283	-31.9524
 341	1	3	-0.13238	80.1794	-42.9499	-32.1876
 342	1	6	0.167375	78.0296	-43.15	-31.8247
 343	1	6	0.161059	82.5591	-45.1837	-31.0447
 344	1	6	0.140064	82.3557	-43.0439	-32.328
 345	1	2	0.57844	80.0474	-41.6768	-32.9805
 346	1	3	-0.037172	81.004	-41.4506	-34.121
 347	1	3	-0.116011	81.3875	-42.5328	-34.9484
 348	1	3	-0.048223	82.2915	-42.2868	-35.9877
 349	1	3	-0.138147	81.5157	-40.1533	-34.3805
 350	1	3	-0.114262	82.4392	-39.9315	-35.4248
 351	1	3	-0.063397	82.8146	-41.0289	-36.2119
 352	1	2	0.489233	83.754	-41.1212	-37.3629
 353	1	1	-0.081676	83.7209	-42.4498	-37.7688
 354	1	2	0.489742	82.8604	-43.2166	-36.9969
 355	1	3	0.047265	84.4869	-42.9695	-38.8454
 356	1	3	-0.183349	83.8606	-43.6426	-39.9077
 357	1	3	-0.091111	84.6177	-44.1401	-40.9821
 358	1	3	-0.18836	85.8832	-42.8234	-38.8576
 359	1	3	-0.138837	86.6407	-43.3304	-39.9261
 360	1	3	0.044906	86.021	-43.9778	-41.0159
 361	1	6	0.157291	82.7824	-43.7813	-39.9042
 362	1	6	0.112962	84.0956	-44.6534	-41.7839
 363	1	6	0.163228	82.8488	-38.9416	-35.6195
 364	1	6	0.134491	81.2039	-39.3192	-33.7542
 365	1	6	0.172124	80.9914	-43.536	-34.7998
 366	1	5	-0.48162	82.6122	-44.4057	-37.0965
 367	1	5	-0.478641	84.4237	-40.2119	-37.8209
 368	1	5	-0.498568	79.1787	-40.8637	-32.714
 369	1	6	0.153588	86.3837	-42.3087	-38.0412
 370	1	6	0.146442	87.719	-43.2096	-39.9049
 371	1	7	0.027303	86.8805	-44.493	-42.1888
 372	1	7	-0.256739	87.8882	-43.4112	-42.6679
 373	1	8	0.074408	88.3893	-43.7269	-43.5925
 374	1	8	0.075653	88.6694	-43.2206	-41.9228
 375	1	8	0.063017	87.3761	-42.4622	-42.8722
 376	1	7	-0.003396	87.6305	-45.8046	-41.7915
 377	1	7	0.23166	86.8827	-47.0122	-42.4379
 378	1	8	0.003166	87.721	-45.9146	-40.7027
 379	1	8	0.018046	88.656	-45.7669	-42.1826
 380	1	3	0.065056	86.0635	-46.3393	-43.5267
 381	1	7	-0.138879	85.9497	-47.6987	-41.4112
 382	1	7	-0.25744	87.8828	-48.0468	-43.0105
 383	1	3	0.018858	86.0505	-44.9591	-43.3741
 384	1	8	0.063111	88.5106	-47.5939	-43.7885
 385	1	8	0.056661	87.3564	-48.8986	-43.458
 386	1	8	0.052049	88.5408	-48.4322	-42.2212
 387	1	3	-0.499719	85.3789	-46.9551	-44.5915
 388	1	3	-0.078325	85.3398	-44.1489	-44.2708
 389	1	3	-0.430686	84.6524	-44.7579	-45.3368
 390	1	3	0.29919	84.6677	-46.1614	-45.5213
 391	1	6	0.134637	85.3232	-43.069	-44.1416
 392	1	8	0.0139	86.5273	-48.1346	-40.586
 393	1	8	0.03702	85.3739	-48.5039	-41.8843
 394	1	8	0.035416	85.2369	-46.9832	-40.9831
 395	1	6	0.223374	85.4217	-48.0345	-44.7103
 396	1	6	0.198405	84.0962	-44.1312	-46.0309
 397	1	1	0.464138	61.8357	-51.5352	-18.542
 398	1	2	0.077422	63.011	-51.2352	-17.8481
 399	1	3	0.04486	64.0184	-50.9382	-18.8948
 400	1	2	0.055008	61.9915	-51.4187	-19.9271
 401	1	3	-0.004417	63.4148	-51.0486	-20.1304
 402	1	5	-0.392499	63.2244	-51.2752	-16.6469
 403	1	5	-0.37854	61.1727	-51.6155	-20.8106
 404	1	3	-0.044101	65.3849	-50.6713	-18.7655
 405	1	3	-0.056346	64.1454	-50.9006	-21.3134
 406	1	3	-0.157726	65.5282	-50.6389	-21.2095
 407	1	3	-0.13238	66.1597	-50.5138	-19.9395
 408	1	6	0.167375	65.8366	-50.6265	-17.7754
 409	1	6	0.161059	63.6597	-51.0251	-22.2792
 410	1	6	0.140064	66.1085	-50.5797	-22.1268
 411	1	2	0.57844	67.6517	-50.3254	-19.7924
 412	1	3	-0.037172	68.4896	-49.9589	-20.987
 413	1	3	-0.116011	69.6886	-50.6699	-21.2202
 414	1	3	-0.048223	70.4519	-50.3344	-22.3447
 415	1	3	-0.138147	68.114	-48.9036	-21.8599
 416	1	3	-0.114262	68.906	-48.5732	-22.9793
 417	1	3	-0.063397	70.0728	-49.3167	-23.1973
 418	1	2	0.489233	71.08	-49.2291	-24.2866
 419	1	1	-0.081676	72.0053	-50.2322	-24.0257
 420	1	2	0.489742	71.7052	-50.938	-22.8684
 421	1	3	0.047265	73.1036	-50.5312	-24.8758
 422	1	3	-0.183349	73.3189	-51.8448	-25.3259
 423	1	3	-0.091111	74.3705	-52.1289	-26.2118
 424	1	3	-0.18836	73.9675	-49.5116	-25.3077
 425	1	3	-0.138837	75.0208	-49.7961	-26.1917
 426	1	3	0.044906	75.2313	-51.11	-26.6685
 427	1	6	0.157291	72.6636	-52.6482	-24.9997
 428	1	6	0.112962	74.5009	-53.148	-26.5636
 429	1	6	0.163228	68.6254	-47.7705	-23.6594
 430	1	6	0.134491	67.2079	-48.3339	-21.6643
 431	1	6	0.172124	70.007	-51.4721	-20.5552
 432	1	5	-0.48162	72.297	-51.8916	-22.393
 433	1	5	-0.478641	71.0545	-48.4507	-25.2243
 434	1	5	-0.498568	68.1949	-50.5677	-18.7273
 435	1	6	0.153588	73.8083	-48.4873	-24.9793
 436	1	6	0.146442	75.6452	-48.9716	-26.5214
 437	1	7	0.027303	76.3219	-51.4478	-27.7043
 438	1	7	-0.256739	77.2745	-52.5511	-27.1722
 439	1	8	0.074408	76.7522	-53.5073	-27.0469
 440	1	8	0.075653	77.695	-52.2684	-26.1989
 441	1	8	0.063017	78.1099	-52.7162	-27.8652
 442	1	7	-0.003396	75.6641	-51.8759	-29.056
 443	1	7	0.23166	75.5663	-50.6094	-29.96
 444	1	8	0.003166	74.6891	-52.362	-28.9227
 445	1	8	0.018046	76.3135	-52.6129	-29.5474
 446	1	3	0.065056	76.6642	-49.7382	-29.3749
 447	1	7	-0.138879	74.1875	-49.9184	-29.8215
 448	1	7	-0.25744	75.824	-50.9616	-31.4459
 449	1	3	0.018858	77.1024	-50.2201	-28.1477
 450	1	8	0.063111	75.7585	-50.0679	-32.0787
 451	1	8	0.056661	75.0846	-51.6868	-31.8082
 452	1	8	0.052049	76.8231	-51.3959	-31.5791
 453	1	3	-0.499719	77.227	-48.5814	-29.9386
 454	1	3	-0.078325	78.1331	-49.5696	-27.4524
 455	1	3	-0.430686	78.7075	-48.414	-28.0167
 456	1	3	0.29919	78.2639	-47.9024	-29.2605
 457	1	6	0.134637	78.4767	-49.9506	-26.4934
 458	1	8	0.0139	73.3826	-50.5741	-30.177
 459	1	8	0.03702	74.1557	-48.9929	-30.4101
 460	1	8	0.035416	73.9719	-49.6557	-28.7795
 461	1	6	0.223374	76.8575	-48.2094	-30.8908
 462	1	6	0.198405	79.5209	-47.9173	-27.4921
 463	1	1	0.464138	42.9271	-49.5531	-11.1767
 464	1	2	0.077422	43.5539	-48.3775	-11.5867
 465	1	3	0.04486	44.5026	-48.7946	-12.6482
 466	1	2	0.055008	43.4005	-50.6811	-11.8482
 467	1	3	-0.004417	44.4219	-50.1655	-12.7967
 468	1	5	-0.392499	43.3505	-47.2348	-11.2099
 469	1	5	-0.37854	43.0378	-51.841	-11.738
 470	1	3	-0.044101	45.3283	-48.0147	-13.4643
 471	1	3	-0.056346	45.18	-50.8398	-13.7602
 472	1	3	-0.157726	46.0305	-50.0754	-14.5879
 473	1	3	-0.13238	46.1129	-48.6621	-14.4472
 474	1	6	0.167375	45.341	-46.9315	-13.3505
 475	1	6	0.161059	45.0874	-51.9176	-13.8783
 476	1	6	0.140064	46.5912	-50.584	-15.3694
 477	1	2	0.57844	46.9429	-47.8148	-15.3793
 478	1	3	-0.037172	48.1845	-48.3845	-16.017
 479	1	3	-0.116011	49.0121	-49.2965	-15.3183
 480	1	3	-0.048223	50.1782	-49.7516	-15.9483
 481	1	3	-0.138147	48.567	-47.9448	-17.3114
 482	1	3	-0.114262	49.7415	-48.422	-17.9285
 483	1	3	-0.063397	50.5298	-49.3328	-17.2153
 484	1	2	0.489233	51.8254	-49.969	-17.5718
 485	1	1	-0.081676	52.1897	-50.7327	-16.4674
 486	1	2	0.489742	51.243	-50.6607	-15.4508
 487	1	3	0.047265	53.4059	-51.4697	-16.3715
 488	1	3	-0.183349	53.423	-52.7623	-15.8178
 489	1	3	-0.091111	54.6295	-53.4715	-15.6977
 490	1	3	-0.18836	54.6179	-50.9086	-16.8126
 491	1	3	-0.138837	55.8227	-51.6219	-16.702
 492	1	3	0.044906	55.8489	-52.9142	-16.1338
 493	1	6	0.157291	52.5024	-53.2189	-15.4637
 494	1	6	0.112962	54.614	-54.4646	-15.2583
 495	1	6	0.163228	50.0415	-48.0828	-18.9186
 496	1	6	0.134491	47.9461	-47.2209	-17.8367
 497	1	6	0.172124	48.7814	-49.6194	-14.3045
 498	1	5	-0.48162	51.2602	-51.2019	-14.3585
 499	1	5	-0.478641	52.4267	-49.8209	-18.6217
 500	1	5	-0.498568	46.6018	-46.6683	-15.6195
 501	1	6	0.153588	54.6328	-49.9128	-17.2492
 502	1	6	0.146442	56.7303	-51.1515	-17.0667
 503	1	7	0.027303	57.1522	-53.7216	-15.9731
 504	1	7	-0.256739	57.3957	-54.0692	-14.48
 505	1	8	0.074408	58.3728	-54.551	-14.3429
 506	1	8	0.075653	56.6301	-54.7536	-14.095
 507	1	8	0.063017	57.3786	-53.1639	-13.86
 508	1	7	-0.003396	57.1134	-55.0183	-16.8457
 509	1	7	0.23166	57.8775	-54.7273	-18.1728
 510	1	8	0.003166	56.0929	-55.3773	-17.0308
 511	1	8	0.018046	57.6318	-55.824	-16.3086
 512	1	3	0.065056	58.7741	-53.5725	-17.762
 513	1	7	-0.138879	56.9044	-54.2813	-19.2909
 514	1	7	-0.25744	58.6814	-55.9656	-18.6411
 515	1	3	0.018858	58.3687	-53.0166	-16.5559
 516	1	8	0.063111	59.2133	-55.7577	-19.5778
 517	1	8	0.056661	58.0156	-56.8204	-18.814
 518	1	8	0.052049	59.4253	-56.2579	-17.889
 519	1	3	-0.499719	59.9023	-53.0811	-18.4417
 520	1	3	-0.078325	59.0716	-51.9381	-15.9993
 521	1	3	-0.430686	60.1944	-51.4329	-16.6822
 522	1	3	0.29919	60.6393	-52.0014	-17.9017
 523	1	6	0.134637	58.7558	-51.5053	-15.0527
 524	1	8	0.0139	57.4539	-54.0153	-20.2029
 525	1	8	0.03702	56.3212	-53.4043	-18.9847
 526	1	8	0.035416	56.2005	-55.0848	-19.5416
 527	1	6	0.223374	60.2051	-53.5392	-19.38
 528	1	6	0.198405	60.7512	-50.6112	-16.2367
 529	1	1	0.464138	33.6856	-32.5477	-6.20534
 530	1	2	0.077422	33.9875	-33.3773	-5.12138
 531	1	3	0.04486	34.1461	-34.7364	-5.6988
 532	1	2	0.055008	33.6012	-33.2572	-7.4079
 533	1	3	-0.004417	33.9133	-34.6656	-7.05688
 534	1	5	-0.392499	34.1301	-33.0802	-3.94609
 535	1	5	-0.37854	33.3906	-32.8352	-8.53346
 536	1	3	-0.044101	34.5365	-35.9316	-5.08456
 537	1	3	-0.056346	34.0551	-35.7868	-7.88128
 538	1	3	-0.157726	34.4486	-37.0038	-7.2847
 539	1	3	-0.13238	34.6857	-37.091	-5.88461
 540	1	6	0.167375	34.7493	-35.948	-4.01644
 541	1	6	0.161059	33.8993	-35.7028	-8.95492
 542	1	6	0.140064	34.6123	-37.8653	-7.92763
 543	1	2	0.57844	35.2007	-38.3526	-5.23167
 544	1	3	-0.037172	35.0452	-39.6952	-5.90232
 545	1	3	-0.116011	36.0871	-40.6426	-5.77062
 546	1	3	-0.048223	35.9242	-41.9036	-6.35691
 547	1	3	-0.138147	33.8576	-40.0556	-6.59499
 548	1	3	-0.114262	33.7104	-41.3375	-7.16883
 549	1	3	-0.063397	34.7696	-42.2447	-7.03239
 550	1	2	0.489233	34.9025	-43.6567	-7.48776
 551	1	1	-0.081676	36.1542	-44.0743	-7.05535
 552	1	2	0.489742	36.8353	-43.0776	-6.37069
 553	1	3	0.047265	36.6775	-45.3792	-7.25806
 554	1	3	-0.183349	35.994	-46.5056	-6.77201
 555	1	3	-0.091111	36.5518	-47.7883	-6.90948
 556	1	3	-0.18836	37.909	-45.5565	-7.90951
 557	1	3	-0.138837	38.4604	-46.8404	-8.05808
 558	1	3	0.044906	37.7983	-47.9783	-7.54295
 559	1	6	0.157291	35.0365	-46.3869	-6.27178
 560	1	6	0.112962	36.0129	-48.6417	-6.50846
 561	1	6	0.163228	32.7987	-41.6272	-7.68843
 562	1	6	0.134491	33.0327	-39.3498	-6.66319
 563	1	6	0.172124	36.9973	-40.4067	-5.21983
 564	1	5	-0.48162	37.9469	-43.131	-5.874
 565	1	5	-0.478641	34.0642	-44.3012	-8.0938
 566	1	5	-0.498568	35.8006	-38.2782	-4.1718
 567	1	6	0.153588	38.4541	-44.6939	-8.28498
 568	1	6	0.146442	39.416	-46.9276	-8.56495
 569	1	7	0.027303	38.4008	-49.3978	-7.62431
 570	1	7	-0.256739	38.616	-49.9738	-6.19951
 571	1	8	0.074408	39.1352	-50.9404	-6.24002
 572	1	8	0.075653	37.6621	-50.1283	-5.68045
 573	1	8	0.063017	39.2223	-49.2918	-5.58996
 574	1	7	-0.003396	37.4913	-50.3445	-8.47352
 575	1	7	0.23166	38.0778	-50.4106	-9.91634
 576	1	8	0.003166	36.4383	-50.0351	-8.47458
 577	1	8	0.018046	37.5159	-51.3507	-8.03391
 578	1	3	0.065056	39.5176	-49.9871	-9.68767
 579	1	7	-0.138879	37.3664	-49.4055	-10.8539
 580	1	7	-0.25744	37.9717	-51.8412	-10.4998
 581	1	3	0.018858	39.6977	-49.4478	-8.42022
 582	1	8	0.063111	36.9247	-52.1657	-10.551
 583	1	8	0.056661	38.5221	-52.5592	-9.87824
 584	1	8	0.052049	38.39	-51.8858	-11.5129
 585	1	3	-0.499719	40.5832	-50.0578	-10.602
 586	1	3	-0.078325	40.9614	-48.9908	-8.01391
 587	1	3	-0.430686	42.0309	-49.0478	-8.92852
 588	1	3	0.29919	41.8567	-49.5727	-10.2314
 589	1	6	0.134637	41.0978	-48.5599	-7.02441
 590	1	8	0.0139	37.8237	-49.411	-11.8515
 591	1	8	0.03702	37.4317	-48.3833	-10.4608
 592	1	8	0.035416	36.3046	-49.6581	-10.9665
 593	1	6	0.223374	40.4211	-50.4711	-11.5941
 594	1	6	0.198405	42.9997	-48.6489	-8.63637
 595	1	1	0.464138	24.7984	-17.7629	5.87015
 596	1	2	0.077422	24.2586	-19.0056	5.52426
 597	1	3	0.04486	25.0235	-19.4474	4.32732
 598	1	2	0.055008	25.8017	-17.3558	4.98632
 599	1	3	-0.004417	25.9383	-18.4636	4.01028
 600	1	5	-0.392499	23.3833	-19.6409	6.09009
 601	1	5	-0.37854	26.4986	-16.3546	5.02596
 602	1	3	-0.044101	24.9732	-20.6542	3.61635
 603	1	3	-0.056346	26.8588	-18.6263	2.97163
 604	1	3	-0.157726	26.8293	-19.8334	2.24447
 605	1	3	-0.13238	25.8836	-20.8526	2.54785
 606	1	6	0.167375	24.2647	-21.4282	3.90835
 607	1	6	0.161059	27.5957	-17.8533	2.76328
 608	1	6	0.140064	27.5786	-19.9836	1.47127
 609	1	2	0.57844	25.8892	-22.1822	1.82672
 610	1	3	-0.037172	26.6158	-22.3233	0.512801
 611	1	3	-0.116011	27.4211	-23.4646	0.285739
 612	1	3	-0.048223	28.12	-23.5582	-0.926405
 613	1	3	-0.138147	26.4936	-21.3384	-0.50341
 614	1	3	-0.114262	27.1995	-21.4563	-1.71835
 615	1	3	-0.063397	28.017	-22.5796	-1.89451
 616	1	2	0.489233	28.9031	-22.9537	-3.02769
 617	1	1	-0.081676	29.5095	-24.1497	-2.659
 618	1	2	0.489742	29.0768	-24.59	-1.41284
 619	1	3	0.047265	30.4934	-24.8153	-3.44678
 620	1	3	-0.183349	31.547	-24.0869	-4.02588
 621	1	3	-0.091111	32.5134	-24.7321	-4.81284
 622	1	3	-0.18836	30.4368	-26.2052	-3.65801
 623	1	3	-0.138837	31.4082	-26.8529	-4.44395
 624	1	3	0.044906	32.4595	-26.1222	-5.04052
 625	1	6	0.157291	31.6161	-23.0124	-3.87722
 626	1	6	0.112962	33.3125	-24.1411	-5.25051
 627	1	6	0.163228	27.1225	-20.6993	-2.49709
 628	1	6	0.134491	25.848	-20.4764	-0.348655
 629	1	6	0.172124	27.5197	-24.2429	1.04185
 630	1	5	-0.48162	29.4276	-25.5842	-0.801653
 631	1	5	-0.478641	29.0752	-22.3004	-4.04257
 632	1	5	-0.498568	25.3744	-23.1591	2.34481
 633	1	6	0.153588	29.6394	-26.7914	-3.20729
 634	1	6	0.146442	31.3326	-27.9278	-4.57698
 635	1	7	0.027303	33.5382	-26.7797	-5.92462
 636	1	7	-0.256739	33.5402	-26.1378	-7.33839
 637	1	8	0.074408	33.8482	-25.0857	-7.30421
 638	1	8	0.075653	32.54	-26.1791	-7.78792
 639	1	8	0.063017	34.2321	-26.6648	-8.00857
 640	1	7	-0.003396	34.948	-26.652	-5.25983