pySIMM System Object

1652 atoms
1826 bonds
3225 angles
5171 dihedrals
525 impropers

8 atom types
10 bond types
17 angle types
9 dihedral types
4 improper types

-176.595077 176.595077 xlo xhi
-176.595077 176.595077 ylo yhi
-176.595077 176.595077 zlo zhi

Masses

   1	14.01	# n
   2	12.01	# c
   3	12.01	# ca
   4	1.008	# hn
   5	16.0	# o
   6	1.008	# ha
   7	12.01	# c3
   8	1.008	# hc

Pair Coeffs

   1	0.17	3.249998523775958	# n
   2	0.086	3.3996695084235347	# c
   3	0.086	3.3996695084235347	# ca
   4	0.0157	1.069078461768407	# hn
   5	0.21	2.959921901149463	# o
   6	0.015	2.59964245953351	# ha
   7	0.1094	3.3996695084235347	# c3
   8	0.0157	2.649532787749369	# hc

Bond Coeffs

   1	427.6	1.3789	# c,n
   2	461.1	1.3984	# ca,ca
   3	345.9	1.4906	# c,ca
   4	300.9	1.5375	# c3,c3
   5	345.8	1.086	# ca,ha
   6	384.2	1.4121	# ca,n
   7	637.7	1.2183	# c,o
   8	321.0	1.5156	# c3,ca
   9	330.6	1.0969	# c3,hc
  10	403.2	1.0129	# hn,n

Angle Coeffs

   1	63.82	123.71	# c,n,ca
   2	67.87	120.19	# ca,ca,n
   3	67.68	115.25	# ca,c,n
   4	63.15	112.07	# c3,c3,ca
   5	63.0	118.11	# ca,c,ca
   6	63.56	112.24	# ca,c3,ca
   7	46.34	109.8	# c3,c3,hc
   8	48.33	117.55	# c,n,hn
   9	74.22	123.05	# n,c,o
  10	64.28	120.33	# c,ca,ca
  11	39.4	107.58	# hc,c3,hc
  12	66.62	120.02	# ca,ca,ca
  13	63.53	120.77	# c3,ca,ca
  14	62.86	111.51	# c3,c3,c3
  15	63.74	127.08	# c,n,c
  16	48.18	119.88	# ca,ca,ha
  17	68.72	122.6	# ca,c,o

Dihedral Coeffs

   1	2	2.5	2	180	2.0	1	0	# hn,n,c,o
   2	1	3.625	2	180	# X,ca,ca,X
   3	1	0.16	3	0	# hc,c3,c3,c3
   4	1	1.0	2	180	# X,c,ca,X
   5	1	0.15555555555555556	3	0	# X,c3,c3,X
   6	1	0.0	2	0	# X,c3,ca,X
   7	3	0.18	3	0	0.25	2	180	0.2	1	180	# c3,c3,c3,c3
   8	1	2.5	2	180	# X,c,n,X
   9	1	0.45	2	180	# X,ca,n,X

Improper Coeffs

   1	1.1	-1	2	# ca,ca,ca,c3
   2	1.1	-1	2	# n,X,X,hn
   3	1.1	-1	2	# ca,X,X,ha
   4	10.5	-1	2	# c,X,X,o

Atoms

   1	1	1	0.464138	79.5837	-61.3601	-39.1553
   2	1	2	0.077422	79.159	-62.6399	-38.7884
   3	1	3	0.04486	79.8724	-63.5654	-39.6987
   4	1	2	0.055008	80.4949	-61.3862	-40.216
   5	1	3	-0.004417	80.67	-62.8248	-40.5472
   6	1	5	-0.392499	78.387	-62.9714	-37.9026
   7	1	5	-0.37854	81.0416	-60.4507	-40.7771
   8	1	3	-0.044101	79.831	-64.9614	-39.7543
   9	1	3	-0.056346	81.4859	-63.4434	-41.5015
  10	1	3	-0.157726	81.4622	-64.8532	-41.5764
  11	1	3	-0.13238	80.6271	-65.6203	-40.7213
  12	1	6	0.167375	79.2088	-65.5072	-39.0478
  13	1	6	0.161059	82.1222	-62.8495	-42.1543
  14	1	6	0.140064	82.096	-65.3593	-42.3034
  15	1	2	0.57844	80.6304	-67.1262	-40.8084
  16	1	3	-0.037172	79.3673	-67.8801	-40.4744
  17	1	3	-0.116011	79.4524	-69.158	-39.8716
  18	1	3	-0.048223	78.2608	-69.836	-39.5748
  19	1	3	-0.138147	78.0922	-67.3387	-40.7921
  20	1	3	-0.114262	76.9081	-68.0415	-40.4937
  21	1	3	-0.063397	77.0281	-69.2925	-39.8785
  22	1	2	0.489233	75.9788	-70.2617	-39.471
  23	1	1	-0.081676	76.6567	-71.3487	-38.9361
  24	1	2	0.489742	78.0344	-71.1693	-38.9511
  25	1	3	0.047265	76.0072	-72.5185	-38.4565
  26	1	3	-0.183349	75.0927	-73.201	-39.2754
  27	1	3	-0.091111	74.4338	-74.3473	-38.8038
  28	1	3	-0.18836	76.2594	-73.0051	-37.1625
  29	1	3	-0.138837	75.5933	-74.1492	-36.6874
  30	1	3	0.044906	74.6617	-74.8342	-37.4999
  31	1	6	0.157291	74.8841	-72.8389	-40.2787
  32	1	6	0.112962	73.7388	-74.8591	-39.4622
  33	1	6	0.163228	75.9278	-67.637	-40.7407
  34	1	6	0.134491	78.0163	-66.3768	-41.2942
  35	1	6	0.172124	80.417	-69.6083	-39.6394
  36	1	5	-0.48162	78.8961	-71.9297	-38.5459
  37	1	5	-0.478641	74.7766	-70.1157	-39.6096
  38	1	5	-0.498568	81.6449	-67.7247	-41.1243
  39	1	6	0.153588	76.9759	-72.4971	-36.5216
  40	1	6	0.146442	75.8192	-74.4976	-35.6838
  41	1	7	0.027303	73.9089	-76.0926	-37.0213
  42	1	7	-0.256739	72.3771	-75.9322	-37.221
  43	1	8	0.074408	72.0153	-75.0079	-36.7522
  44	1	8	0.075653	71.8334	-76.7729	-36.7704
  45	1	8	0.063017	72.1073	-75.8977	-38.2835
  46	1	7	-0.003396	74.4335	-77.3589	-37.7713
  47	1	7	0.23166	75.4446	-78.0916	-36.837
  48	1	8	0.003166	74.8778	-77.1156	-38.7453
  49	1	8	0.018046	73.5877	-78.0288	-37.9764
  50	1	3	0.065056	75.0496	-77.5598	-35.4697
  51	1	7	-0.138879	76.9021	-77.6921	-37.1721
  52	1	7	-0.25744	75.2882	-79.6289	-36.9413
  53	1	3	0.018858	74.2079	-76.4572	-35.5744
  54	1	8	0.063111	74.276	-79.9395	-36.6521
  55	1	8	0.056661	75.9985	-80.1423	-36.2818
  56	1	8	0.052049	75.4707	-79.9708	-37.9677
  57	1	3	-0.499719	75.4359	-78.0551	-34.2102
  58	1	3	-0.078325	73.7224	-75.8158	-34.4226
  59	1	3	-0.430686	74.1067	-76.3092	-33.1605
  60	1	3	0.29919	74.9569	-77.4242	-33.0515
  61	1	6	0.134637	73.0656	-74.953	-34.5076
  62	1	8	0.0139	77.0417	-76.6058	-37.1117
  63	1	8	0.03702	77.1722	-78.011	-38.1866
  64	1	8	0.035416	77.605	-78.1594	-36.4711
  65	1	6	0.223374	76.0919	-78.9149	-34.1259
  66	1	6	0.198405	73.7438	-75.831	-32.2556
  67	1	1	0.464138	74.3795	-41.9033	-45.2555
  68	1	2	0.077422	75.4009	-42.8106	-45.5472
  69	1	3	0.04486	75.3197	-43.845	-44.4844
  70	1	2	0.055008	73.6403	-42.2761	-44.1294
  71	1	3	-0.004417	74.2731	-43.5269	-43.6425
  72	1	5	-0.392499	76.2191	-42.7756	-46.4523
  73	1	5	-0.37854	72.7105	-41.6925	-43.5964
  74	1	3	-0.044101	76.1395	-44.954	-44.2462
  75	1	3	-0.056346	73.9896	-44.2922	-42.5068
  76	1	3	-0.157726	74.803	-45.4149	-42.2457
  77	1	3	-0.13238	75.8699	-45.7666	-43.1185
  78	1	6	0.167375	76.9743	-45.1673	-44.9124
  79	1	6	0.161059	73.1816	-44.0047	-41.837
  80	1	6	0.140064	74.6194	-45.9905	-41.3411
  81	1	2	0.57844	76.7865	-46.9328	-42.8343
  82	1	3	-0.037172	76.2891	-48.1421	-42.0769
  83	1	3	-0.116011	77.2204	-48.9318	-41.3594
  84	1	3	-0.048223	76.7563	-50.0671	-40.6814
  85	1	3	-0.138147	74.9261	-48.5447	-42.1219
  86	1	3	-0.114262	74.4792	-49.6875	-41.4267
  87	1	3	-0.063397	75.4233	-50.4273	-40.7054
  88	1	2	0.489233	75.2645	-51.673	-39.9087
  89	1	1	-0.081676	76.5371	-51.9938	-39.4618
  90	1	2	0.489742	77.4938	-51.0794	-39.8771
  91	1	3	0.047265	76.8286	-53.1461	-38.6907
  92	1	3	-0.183349	76.4281	-53.2234	-37.3479
  93	1	3	-0.091111	76.7065	-54.3751	-36.5932
  94	1	3	-0.18836	77.5048	-54.2306	-39.2712
  95	1	3	-0.138837	77.7754	-55.3859	-38.5183
  96	1	3	0.044906	77.3804	-55.4756	-37.1644
  97	1	6	0.157291	75.8967	-52.394	-36.8894
  98	1	6	0.112962	76.3851	-54.4152	-35.5567
  99	1	6	0.163228	73.4379	-50.0035	-41.4606
 100	1	6	0.134491	74.2093	-47.9847	-42.7176
 101	1	6	0.172124	78.2786	-48.6727	-41.3355
 102	1	5	-0.48162	78.6909	-51.0926	-39.6507
 103	1	5	-0.478641	74.2231	-52.272	-39.7047
 104	1	5	-0.498568	77.9433	-46.8917	-43.22
 105	1	6	0.153588	77.8181	-54.1815	-40.3109
 106	1	6	0.146442	78.2892	-56.2074	-39.0072
 107	1	7	0.027303	77.651	-56.7269	-36.3043
 108	1	7	-0.256739	78.5124	-56.3605	-35.0663
 109	1	8	0.074408	77.9726	-55.6928	-34.384
 110	1	8	0.075653	79.4371	-55.8535	-35.3697
 111	1	8	0.063017	78.7915	-57.2597	-34.5015
 112	1	7	-0.003396	76.3068	-57.3957	-35.867
 113	1	7	0.23166	76.0026	-58.5584	-36.8596
 114	1	8	0.003166	75.4745	-56.6831	-35.8044
 115	1	8	0.018046	76.4305	-57.8144	-34.8592
 116	1	3	0.065056	77.3867	-58.8651	-37.4034
 117	1	7	-0.138879	75.0647	-58.0938	-37.9996
 118	1	7	-0.25744	75.3749	-59.7697	-36.1259
 119	1	3	0.018858	78.2952	-57.864	-37.0858
 120	1	8	0.063111	75.1691	-60.5904	-36.8239
 121	1	8	0.056661	74.4291	-59.4891	-35.6459
 122	1	8	0.052049	76.0515	-60.1518	-35.3506
 123	1	3	-0.499719	77.7888	-60.0078	-38.1158
 124	1	3	-0.078325	79.6414	-57.9824	-37.4637
 125	1	3	-0.430686	80.0536	-59.1336	-38.1634
 126	1	3	0.29919	79.1418	-60.1658	-38.4951
 127	1	6	0.134637	80.3532	-57.1984	-37.2154
 128	1	8	0.0139	75.4858	-57.2357	-38.5376
 129	1	8	0.03702	74.0851	-57.7973	-37.6041
 130	1	8	0.035416	74.9069	-58.9003	-38.7267
 131	1	6	0.223374	77.0622	-60.7861	-38.3335
 132	1	6	0.198405	81.0989	-59.2268	-38.451
 133	1	1	0.464138	68.2712	-24.9001	-35.9073
 134	1	2	0.077422	67.5306	-25.8286	-36.6437
 135	1	3	0.04486	68.4935	-26.4349	-37.5944
 136	1	2	0.055008	69.6196	-24.8826	-36.2781
 137	1	3	-0.004417	69.7371	-25.8772	-37.378
 138	1	5	-0.392499	66.3334	-26.0623	-36.5991
 139	1	5	-0.37854	70.5196	-24.1774	-35.8516
 140	1	3	-0.044101	68.27	-27.3604	-38.619
 141	1	3	-0.056346	70.8338	-26.2161	-38.1794
 142	1	3	-0.157726	70.6344	-27.1539	-39.2171
 143	1	3	-0.13238	69.3587	-27.7435	-39.4372
 144	1	6	0.167375	67.2688	-27.7555	-38.7859
 145	1	6	0.161059	71.7999	-25.7422	-38.0181
 146	1	6	0.140064	71.4683	-27.3914	-39.8744
 147	1	2	0.57844	69.0919	-28.697	-40.578
 148	1	3	-0.037172	70.1489	-29.6659	-41.0576
 149	1	3	-0.116011	70.0207	-30.2258	-42.3528
 150	1	3	-0.048223	70.9628	-31.1738	-42.7738
 151	1	3	-0.138147	71.2116	-30.0988	-40.2178
 152	1	3	-0.114262	72.1507	-31.0528	-40.6629
 153	1	3	-0.063397	71.9976	-31.5742	-41.9533
 154	1	2	0.489233	72.7748	-32.6226	-42.6665
 155	1	1	-0.081676	72.14	-32.7974	-43.89
 156	1	2	0.489742	71.0487	-31.9513	-44.0402
 157	1	3	0.047265	72.5261	-33.7718	-44.8516
 158	1	3	-0.183349	72.7324	-33.4193	-46.1963
 159	1	3	-0.091111	73.1041	-34.3939	-47.1394
 160	1	3	-0.18836	72.6956	-35.1121	-44.4673
 161	1	3	-0.138837	73.0608	-36.0866	-45.41
 162	1	3	0.044906	73.2665	-35.7452	-46.7665
 163	1	6	0.157291	72.5993	-32.3887	-46.515
 164	1	6	0.112962	73.2684	-34.0914	-48.1691
 165	1	6	0.163228	72.956	-31.4009	-40.0182
 166	1	6	0.134491	71.2935	-29.7269	-39.1997
 167	1	6	0.172124	69.1947	-29.9481	-43.0073
 168	1	5	-0.48162	70.2914	-31.8641	-44.9911
 169	1	5	-0.478641	73.7468	-33.2147	-42.2301
 170	1	5	-0.498568	67.9885	-28.7034	-41.0991
 171	1	6	0.153588	72.5487	-35.4038	-43.4301
 172	1	6	0.146442	73.1902	-37.1065	-45.0608
 173	1	7	0.027303	73.6874	-36.7912	-47.8224
 174	1	7	-0.256739	72.7692	-36.7361	-49.0731
 175	1	8	0.074408	71.7122	-36.8056	-48.7865
 176	1	8	0.075653	72.9881	-37.5676	-49.756
 177	1	8	0.063017	72.906	-35.8038	-49.6343
 178	1	7	-0.003396	75.1842	-36.5888	-48.221
 179	1	7	0.23166	76.0455	-37.5843	-47.3834
 180	1	8	0.003166	75.5144	-35.5496	-48.0925
 181	1	8	0.018046	75.3048	-36.8223	-49.2874
 182	1	3	0.065056	75.0149	-38.6212	-46.9697
 183	1	7	-0.138879	76.6502	-36.8922	-46.1376
 184	1	7	-0.25744	77.1793	-38.2005	-48.2395
 185	1	3	0.018858	73.7221	-38.2005	-47.2514
 186	1	8	0.063111	77.7753	-38.9094	-47.6514
 187	1	8	0.056661	77.8537	-37.4208	-48.6152
 188	1	8	0.052049	76.7694	-38.7426	-49.1014
 189	1	3	-0.499719	75.2498	-39.8504	-46.3292
 190	1	3	-0.078325	72.6236	-39.0144	-46.9373
 191	1	3	-0.430686	72.8537	-40.2514	-46.3042
 192	1	3	0.29919	74.1627	-40.6832	-45.9765
 193	1	6	0.134637	71.6111	-38.6747	-47.1436
 194	1	8	0.0139	77.195	-37.6136	-45.5156
 195	1	8	0.03702	75.8697	-36.4372	-45.5164
 196	1	8	0.035416	77.3516	-36.1011	-46.4312
 197	1	6	0.223374	76.2695	-40.1505	-46.0997
 198	1	6	0.198405	72.0001	-40.8658	-46.0256
 199	1	1	0.464138	65.4028	-14.5304	-17.6462
 200	1	2	0.077422	66.1699	-15.0747	-18.684
 201	1	3	0.04486	65.5539	-16.3924	-18.987
 202	1	2	0.055008	64.3682	-15.3867	-17.2545
 203	1	3	-0.004417	64.4872	-16.5796	-18.1308
 204	1	5	-0.392499	67.1417	-14.6024	-19.2518
 205	1	5	-0.37854	63.5043	-15.2089	-16.4112
 206	1	3	-0.044101	65.8934	-17.3438	-19.9594
 207	1	3	-0.056346	63.709	-17.7411	-18.1767
 208	1	3	-0.157726	64.032	-18.7129	-19.1463
 209	1	3	-0.13238	65.0998	-18.5131	-20.0595
 210	1	6	0.167375	66.7412	-17.1685	-20.6188
 211	1	6	0.161059	62.8788	-17.879	-17.4871
 212	1	6	0.140064	63.4399	-19.6251	-19.2048
 213	1	2	0.57844	65.3769	-19.566	-21.1044
 214	1	3	-0.037172	65.454	-19.1826	-22.5682
 215	1	3	-0.116011	65.7471	-20.1832	-23.5324
 216	1	3	-0.048223	65.7265	-19.8395	-24.8937
 217	1	3	-0.138147	65.1451	-17.8667	-23.0126
 218	1	3	-0.114262	65.1467	-17.5391	-24.382
 219	1	3	-0.063397	65.4398	-18.5527	-25.2992
 220	1	2	0.489233	65.4087	-18.525	-26.7814
 221	1	1	-0.081676	65.6436	-19.8318	-27.1935
 222	1	2	0.489742	65.8828	-20.6809	-26.1179
 223	1	3	0.047265	65.55	-20.2392	-28.5566
 224	1	3	-0.183349	66.5474	-21.0157	-29.1765
 225	1	3	-0.091111	66.4737	-21.3081	-30.5546
 226	1	3	-0.18836	64.4586	-19.8046	-29.3265
 227	1	3	-0.138837	64.391	-20.0853	-30.6971
 228	1	3	0.044906	65.3993	-20.8326	-31.3392
 229	1	6	0.157291	67.3962	-21.3707	-28.5973
 230	1	6	0.112962	67.2778	-21.8755	-31.0145
 231	1	6	0.163228	64.8862	-16.5399	-24.7273
 232	1	6	0.134491	64.8575	-17.092	-22.3087
 233	1	6	0.172124	65.9434	-21.2124	-23.2328
 234	1	5	-0.48162	66.1106	-21.8776	-26.1443
 235	1	5	-0.478641	65.1568	-17.5478	-27.4657
 236	1	5	-0.498568	65.4091	-20.7399	-20.7742
 237	1	6	0.153588	63.6764	-19.2004	-28.8734
 238	1	6	0.146442	63.5611	-19.675	-31.2613
 239	1	7	0.027303	65.3649	-20.9944	-32.8725
 240	1	7	-0.256739	63.919	-21.1907	-33.4155
 241	1	8	0.074408	63.9378	-21.4601	-34.4803
 242	1	8	0.075653	63.3163	-20.2789	-33.3302
 243	1	8	0.063017	63.402	-21.9958	-32.878
 244	1	7	-0.003396	66.0186	-19.7415	-33.5429
 245	1	7	0.23166	67.3324	-20.181	-34.2605
 246	1	8	0.003166	66.2161	-18.9501	-32.8071
 247	1	8	0.018046	65.3255	-19.3035	-34.2733
 248	1	3	0.065056	67.2276	-21.696	-34.2501
 249	1	7	-0.138879	68.5781	-19.7309	-33.4594
 250	1	7	-0.25744	67.3971	-19.6044	-35.6968
 251	1	3	0.018858	66.211	-22.137	-33.4132
 252	1	8	0.063111	67.3689	-18.5076	-35.6773
 253	1	8	0.056661	66.5491	-19.9573	-36.2976
 254	1	8	0.052049	68.3209	-19.908	-36.2042
 255	1	3	-0.499719	67.9652	-22.604	-35.0322
 256	1	3	-0.078325	65.9406	-23.5072	-33.2875
 257	1	3	-0.430686	66.6775	-24.4212	-34.066
 258	1	3	0.29919	67.6703	-23.9858	-34.9783
 259	1	6	0.134637	65.126	-23.8487	-32.6528
 260	1	8	0.0139	69.4996	-20.0921	-33.9337
 261	1	8	0.03702	68.5511	-20.124	-32.4354
 262	1	8	0.035416	68.6334	-18.6365	-33.4008
 263	1	6	0.223374	68.7252	-22.2328	-35.7153
 264	1	6	0.198405	66.4161	-25.4763	-34.0205
 265	1	1	0.464138	56.8757	-2.27472	-25.4228
 266	1	2	0.077422	57.5206	-3.00532	-24.4242
 267	1	3	0.04486	57.6461	-2.06861	-23.2821
 268	1	2	0.055008	56.554	-0.976788	-25.017
 269	1	3	-0.004417	57.0752	-0.861524	-23.631
 270	1	5	-0.392499	57.9663	-4.14086	-24.4706
 271	1	5	-0.37854	56.0408	-0.0810064	-25.6675
 272	1	3	-0.044101	58.2765	-2.25461	-22.0498
 273	1	3	-0.056346	57.0918	0.231654	-22.7569
 274	1	3	-0.157726	57.7334	0.0703563	-21.5097
 275	1	3	-0.13238	58.3534	-1.1575	-21.1577
 276	1	6	0.167375	58.7084	-3.22477	-21.8146
 277	1	6	0.161059	56.6418	1.17875	-23.0471
 278	1	6	0.140064	57.7746	0.910588	-20.818
 279	1	2	0.57844	59.0806	-1.28899	-19.8416
 280	1	3	-0.037172	60.2552	-2.23226	-19.7471
 281	1	3	-0.116011	60.5441	-2.86044	-18.513
 282	1	3	-0.048223	61.6301	-3.74392	-18.4533
 283	1	3	-0.138147	61.0901	-2.48269	-20.8707
 284	1	3	-0.114262	62.1665	-3.38612	-20.793
 285	1	3	-0.063397	62.4115	-4.00354	-19.5622
 286	1	2	0.489233	63.4589	-4.98111	-19.1741
 287	1	1	-0.081676	63.2297	-5.26093	-17.8356
 288	1	2	0.489742	62.1537	-4.55288	-17.3205
 289	1	3	0.047265	63.977	-6.21888	-17.1065
 290	1	3	-0.183349	63.3554	-7.38702	-16.6375
 291	1	3	-0.091111	64.1123	-8.38605	-16.0042
 292	1	3	-0.18836	65.3568	-6.04821	-16.9125
 293	1	3	-0.138837	66.1098	-7.03932	-16.2593
 294	1	3	0.044906	65.5012	-8.23257	-15.8066
 295	1	6	0.157291	62.2896	-7.53672	-16.7879
 296	1	6	0.112962	63.6159	-9.29685	-15.6803
 297	1	6	0.163228	62.8001	-3.58531	-21.6558
 298	1	6	0.134491	60.9224	-1.95573	-21.8076
 299	1	6	0.172124	59.933	-2.67424	-17.6311
 300	1	5	-0.48162	61.71	-4.57586	-16.1857
 301	1	5	-0.478641	64.3249	-5.43209	-19.9019
 302	1	5	-0.498568	58.6948	-0.682083	-18.855
 303	1	6	0.153588	65.8553	-5.16148	-17.2977
 304	1	6	0.146442	67.1756	-6.87525	-16.1405
 305	1	7	0.027303	66.3035	-9.38694	-15.1681
 306	1	7	-0.256739	67.8323	-9.12233	-15.088
 307	1	8	0.074408	68.2567	-8.94878	-16.0854
 308	1	8	0.075653	68.3596	-9.98284	-14.6578
 309	1	8	0.063017	68.0526	-8.25024	-14.459
 310	1	7	-0.003396	65.7643	-9.75657	-13.7458
 311	1	7	0.23166	65.5645	-11.3065	-13.6784
 312	1	8	0.003166	64.8073	-9.25166	-13.5625
 313	1	8	0.018046	66.4384	-9.40339	-12.9542
 314	1	3	0.065056	65.6981	-11.7309	-15.1328
 315	1	7	-0.138879	64.1675	-11.6603	-13.1117
 316	1	7	-0.25744	66.6601	-11.972	-12.81
 317	1	3	0.018858	66.0821	-10.673	-15.9436
 318	1	8	0.063111	66.551	-13.0637	-12.8126
 319	1	8	0.056661	66.5984	-11.6276	-11.7699
 320	1	8	0.052049	67.6621	-11.735	-13.1876
 321	1	3	-0.499719	65.4807	-13.0123	-15.6746
 322	1	3	-0.078325	66.236	-10.8547	-17.3246
 323	1	3	-0.430686	66.0008	-12.1297	-17.8749
 324	1	3	0.29919	65.631	-13.2333	-17.0658
 325	1	6	0.134637	66.5336	-10.0209	-17.957
 326	1	8	0.0139	63.3712	-11.2374	-13.7377
 327	1	8	0.03702	64.0466	-11.266	-12.0948
 328	1	8	0.035416	64.0218	-12.7471	-13.0724
 329	1	6	0.223374	65.1809	-13.8261	-15.0193
 330	1	6	0.198405	66.1262	-12.2638	-18.9468
 331	1	1	0.464138	64.7451	2.5324	-29.2439
 332	1	2	0.077422	63.4482	2.86252	-29.6453
 333	1	3	0.04486	63.6178	3.78751	-30.7909
 334	1	2	0.055008	65.7193	3.20804	-29.9872
 335	1	3	-0.004417	64.9655	3.99956	-30.9953
 336	1	5	-0.392499	62.3817	2.45591	-29.2115
 337	1	5	-0.37854	66.934	3.12164	-29.9107
 338	1	3	-0.044101	62.6503	4.33155	-31.6393
 339	1	3	-0.056346	65.4236	4.7957	-32.0524
 340	1	3	-0.157726	64.4642	5.35189	-32.9276
 341	1	3	-0.13238	63.0786	5.09906	-32.7505
 342	1	6	0.167375	61.5989	4.12831	-31.4461
 343	1	6	0.161059	66.4896	4.95049	-32.2053
 344	1	6	0.140064	64.7966	5.95543	-33.7711
 345	1	2	0.57844	62.0708	5.62098	-33.7471
 346	1	3	-0.037172	60.835	4.79197	-33.992
 347	1	3	-0.116011	60.9166	3.37944	-33.9706
 348	1	3	-0.048223	59.7309	2.64252	-34.0373
 349	1	3	-0.138147	59.5731	5.41596	-34.1692
 350	1	3	-0.114262	58.3874	4.65104	-34.2335
 351	1	3	-0.063397	58.499	3.25635	-34.1407
 352	1	2	0.489233	57.4514	2.21035	-33.9726
 353	1	1	-0.081676	58.1438	1.02953	-33.7333
 354	1	2	0.489742	59.5177	1.19096	-33.8193
 355	1	3	0.047265	57.5656	-0.127689	-33.1552
 356	1	3	-0.183349	57.0276	-0.0348608	-31.8644
 357	1	3	-0.091111	56.6359	-1.18802	-31.1725
 358	1	3	-0.18836	57.6572	-1.38596	-33.7724
 359	1	3	-0.138837	57.2436	-2.54247	-33.0843
 360	1	3	0.044906	56.7689	-2.46899	-31.7556
 361	1	6	0.157291	56.9574	0.931145	-31.371
 362	1	6	0.112962	56.271	-1.05894	-30.1607
 363	1	6	0.163228	57.4099	5.12668	-34.294
 364	1	6	0.134491	59.5113	6.50269	-34.1928
 365	1	6	0.172124	61.8652	2.86152	-33.8386
 366	1	5	-0.48162	60.3884	0.372774	-33.5777
 367	1	5	-0.478641	56.2526	2.40543	-33.8758
 368	1	5	-0.498568	62.2426	6.68467	-34.3178
 369	1	6	0.153588	58.0912	-1.47343	-34.765
 370	1	6	0.146442	57.342	-3.50788	-33.572
 371	1	7	0.027303	56.4712	-3.76092	-30.9593
 372	1	7	-0.256739	55.2093	-4.46665	-31.515
 373	1	8	0.074408	54.9457	-5.34142	-30.9064
 374	1	8	0.075653	55.3696	-4.80588	-32.546
 375	1	8	0.063017	54.3498	-3.78453	-31.5169
 376	1	7	-0.003396	57.7089	-4.71871	-30.9634
 377	1	7	0.23166	58.5936	-4.35535	-29.7319
 378	1	8	0.003166	58.2809	-4.69855	-31.8985
 379	1	8	0.018046	57.3505	-5.75048	-30.8465
 380	1	3	0.065056	57.5652	-3.7297	-28.8062
 381	1	7	-0.138879	59.6965	-3.33274	-30.1025
 382	1	7	-0.25744	59.2427	-5.62028	-29.1179
 383	1	3	0.018858	56.3656	-3.48386	-29.4642
 384	1	8	0.063111	58.4768	-6.33401	-28.7885
 385	1	8	0.056661	59.8568	-5.3631	-28.246
 386	1	8	0.052049	59.8873	-6.12315	-29.8499
 387	1	3	-0.499719	57.7392	-3.36678	-27.4603
 388	1	3	-0.078325	55.2711	-2.94496	-28.7693
 389	1	3	-0.430686	55.4386	-2.57976	-27.4191
 390	1	3	0.29919	56.677	-2.75699	-26.7552
 391	1	6	0.134637	54.3346	-2.74644	-29.2858
 392	1	8	0.0139	60.3832	-3.75072	-30.8496
 393	1	8	0.03702	60.2858	-3.05801	-29.2186
 394	1	8	0.035416	59.2682	-2.41172	-30.5154
 395	1	6	0.223374	58.6975	-3.53699	-26.9756
 396	1	6	0.198405	54.6142	-2.09976	-26.896
 397	1	1	0.464138	61.8071	-3.22609	-8.52345
 398	1	2	0.077422	63.0724	-2.87015	-8.99516
 399	1	3	0.04486	62.9266	-2.78078	-10.4712
 400	1	2	0.055008	60.8683	-3.35143	-9.54997
 401	1	3	-0.004417	61.6181	-3.07295	-10.8008
 402	1	5	-0.392499	64.1017	-2.69725	-8.36186
 403	1	5	-0.37854	59.6927	-3.66967	-9.4739
 404	1	3	-0.044101	63.8863	-2.51282	-11.4542
 405	1	3	-0.056346	61.1982	-3.13536	-12.1335
 406	1	3	-0.157726	62.15	-2.8745	-13.141
 407	1	3	-0.13238	63.493	-2.54031	-12.8149
 408	1	6	0.167375	64.9163	-2.30883	-11.1655
 409	1	6	0.161059	60.1741	-3.40959	-12.3779
 410	1	6	0.140064	61.8424	-2.97441	-14.1788
 411	1	2	0.57844	64.5466	-2.30936	-13.8733
 412	1	3	-0.037172	64.1824	-1.86209	-15.2712
 413	1	3	-0.116011	65.0454	-2.21645	-16.3341
 414	1	3	-0.048223	64.7413	-1.76922	-17.6253
 415	1	3	-0.138147	63.0533	-1.04058	-15.5415
 416	1	3	-0.114262	62.7639	-0.604331	-16.853
 417	1	3	-0.063397	63.6356	-0.987233	-17.8806
 418	1	2	0.489233	63.6032	-0.696199	-19.3403
 419	1	1	-0.081676	64.6979	-1.3619	-19.8875
 420	1	2	0.489742	65.449	-2.00642	-18.9077
 421	1	3	0.047265	64.9807	-1.4377	-21.2868
 422	1	3	-0.183349	65.4338	-2.64307	-21.8543
 423	1	3	-0.091111	65.7189	-2.72901	-23.2245
 424	1	3	-0.18836	64.7963	-0.32813	-22.1354
 425	1	3	-0.138837	65.073	-0.417653	-23.5133
 426	1	3	0.044906	65.5542	-1.61912	-24.0767
 427	1	6	0.157291	65.5824	-3.52586	-21.2364
 428	1	6	0.112962	66.079	-3.67283	-23.6239
 429	1	6	0.163228	61.898	0.0214688	-17.065
 430	1	6	0.134491	62.4071	-0.71601	-14.7295
 431	1	6	0.172124	65.936	-2.81797	-16.1557
 432	1	5	-0.48162	66.4549	-2.68036	-19.0397
 433	1	5	-0.478641	62.7479	-0.0451637	-19.9161
 434	1	5	-0.498568	65.7207	-2.49387	-13.5939
 435	1	6	0.153588	64.4387	0.615299	-21.7297
 436	1	6	0.146442	64.9158	0.460625	-24.1319
 437	1	7	0.027303	65.9247	-1.76337	-25.5664
 438	1	7	-0.256739	67.4155	-2.17692	-25.7042
 439	1	8	0.074408	67.6014	-3.17322	-25.285
 440	1	8	0.075653	68.0685	-1.46734	-25.1803
 441	1	8	0.063017	67.7218	-2.19859	-26.7585
 442	1	7	-0.003396	64.9992	-2.81597	-26.2643
 443	1	7	0.23166	63.9962	-2.06269	-27.1909
 444	1	8	0.003166	64.4714	-3.45239	-25.5421
 445	1	8	0.018046	65.614	-3.49394	-26.8712
 446	1	3	0.065056	64.6393	-0.693416	-27.3177
 447	1	7	-0.138879	62.6036	-1.93831	-26.5266
 448	1	7	-0.25744	63.8614	-2.77832	-28.5584
 449	1	3	0.018858	65.6716	-0.517648	-26.4065
 450	1	8	0.063111	63.1598	-2.2495	-29.2151
 451	1	8	0.056661	63.4934	-3.80392	-28.4283
 452	1	8	0.052049	64.8308	-2.82665	-29.0713
 453	1	3	-0.499719	64.3108	0.313295	-28.2416
 454	1	3	-0.078325	66.4093	0.677415	-26.3971
 455	1	3	-0.430686	66.0813	1.693	-27.3185
 456	1	3	0.29919	65.0362	1.5274	-28.2607
 457	1	6	0.134637	67.2363	0.805891	-25.7022
 458	1	8	0.0139	62.1509	-2.92617	-26.3725
 459	1	8	0.03702	61.9244	-1.3494	-27.1564
 460	1	8	0.035416	62.6762	-1.43986	-25.5517
 461	1	6	0.223374	63.5022	0.145393	-28.949
 462	1	6	0.198405	66.6738	2.60583	-27.3286
 463	1	1	0.464138	46.5326	-6.57221	3.43206
 464	1	2	0.077422	46.3136	-6.93394	2.10441
 465	1	3	0.04486	47.64	-7.38682	1.60483
 466	1	2	0.055008	47.8558	-6.74898	3.83163
 467	1	3	-0.004417	48.5545	-7.27811	2.63493
 468	1	5	-0.392499	45.2725	-6.89584	1.4698
 469	1	5	-0.37854	48.3546	-6.53572	4.92437
 470	1	3	-0.044101	48.0138	-7.87431	0.346236
 471	1	3	-0.056346	49.8897	-7.65974	2.47373
 472	1	3	-0.157726	50.2882	-8.15575	1.21551
 473	1	3	-0.13238	49.3636	-8.25246	0.138785
 474	1	6	0.167375	47.2714	-7.96351	-0.445709
 475	1	6	0.161059	50.5875	-7.58817	3.30574
 476	1	6	0.140064	51.3153	-8.49251	1.09463
 477	1	2	0.57844	49.7631	-8.82372	-1.20096
 478	1	3	-0.037172	51.2098	-8.81045	-1.63129
 479	1	3	-0.116011	52.0502	-7.70271	-1.35698
 480	1	3	-0.048223	53.3769	-7.74446	-1.81049
 481	1	3	-0.138147	51.7213	-9.90604	-2.37444
 482	1	3	-0.114262	53.0596	-9.92831	-2.81746
 483	1	3	-0.063397	53.8669	-8.82544	-2.51487
 484	1	2	0.489233	55.2834	-8.54616	-2.86998
 485	1	1	-0.081676	55.5625	-7.28353	-2.35762
 486	1	2	0.489742	54.4667	-6.73759	-1.6971
 487	1	3	0.047265	56.8149	-6.62039	-2.51577
 488	1	3	-0.183349	57.4258	-5.95967	-1.43464
 489	1	3	-0.091111	58.6611	-5.30738	-1.59753
 490	1	3	-0.18836	57.4687	-6.6216	-3.7606
 491	1	3	-0.138837	58.706	-5.97722	-3.92146
 492	1	3	0.044906	59.3162	-5.29293	-2.84799
 493	1	6	0.157291	56.9434	-5.94678	-0.46077
 494	1	6	0.112962	59.1039	-4.81937	-0.736096
 495	1	6	0.163228	53.455	-10.7661	-3.38946
 496	1	6	0.134491	51.0688	-10.7455	-2.60904
 497	1	6	0.172124	51.683	-6.82334	-0.830583
 498	1	5	-0.48162	54.3835	-5.65945	-1.13435
 499	1	5	-0.478641	56.0225	-9.29086	-3.49054
 500	1	5	-0.498568	48.9156	-9.32167	-1.9236
 501	1	6	0.153588	57.0255	-7.13498	-4.61064
 502	1	6	0.146442	59.1904	-6.02046	-4.89355
 503	1	7	0.027303	60.6904	-4.61496	-3.03897
 504	1	7	-0.256739	60.9246	-3.41479	-2.08086
 505	1	8	0.074408	61.8499	-2.88329	-2.33812
 506	1	8	0.075653	61.0165	-3.73806	-1.03687
 507	1	8	0.063017	60.099	-2.69466	-2.14735
 508	1	7	-0.003396	61.8317	-5.6715	-2.88475
 509	1	7	0.23166	62.8081	-5.5363	-4.09617
 510	1	8	0.003166	61.3943	-6.6791	-2.8794
 511	1	8	0.018046	62.3576	-5.56705	-1.92656
 512	1	3	0.065056	62.0332	-4.64733	-5.05341
 513	1	7	-0.138879	63.114	-6.91954	-4.72148
 514	1	7	-0.25744	64.1294	-4.85092	-3.67114
 515	1	3	0.018858	60.8887	-4.12753	-4.46541
 516	1	8	0.063111	64.7877	-4.70346	-4.53666
 517	1	8	0.056661	64.6686	-5.45952	-2.93436
 518	1	8	0.052049	63.9373	-3.86693	-3.22587
 519	1	3	-0.499719	62.3605	-4.34415	-6.38718
 520	1	3	-0.078325	60.0437	-3.27086	-5.18637
 521	1	3	-0.430686	60.3627	-2.9682	-6.52483
 522	1	3	0.29919	61.5172	-3.50192	-7.14774
 523	1	6	0.134637	59.1452	-2.87011	-4.72228
 524	1	8	0.0139	63.7977	-6.82579	-5.57453
 525	1	8	0.03702	62.1935	-7.39883	-5.07918
 526	1	8	0.035416	63.5814	-7.58608	-3.98569
 527	1	6	0.223374	63.2655	-4.75564	-6.82736
 528	1	6	0.198405	59.6909	-2.33151	-7.0968
 529	1	1	0.464138	28.7686	4.61391	2.97611
 530	1	2	0.077422	29.8616	5.23481	3.57924
 531	1	3	0.04486	30.8629	4.15038	3.77044
 532	1	2	0.055008	28.9649	3.25162	2.76579
 533	1	3	-0.004417	30.3273	2.97493	3.27828
 534	1	5	-0.392499	29.996	6.40974	3.87911
 535	1	5	-0.37854	28.2081	2.44429	2.25203
 536	1	3	-0.044101	32.1513	4.19109	4.32063
 537	1	3	-0.056346	31.0505	1.78005	3.28071
 538	1	3	-0.157726	32.3482	1.79768	3.82748
 539	1	3	-0.13238	32.9002	2.98944	4.37392
 540	1	6	0.167375	32.5559	5.12949	4.69775
 541	1	6	0.161059	30.6201	0.873414	2.86022
 542	1	6	0.140064	32.9296	0.878643	3.80597
 543	1	2	0.57844	34.2919	3.00928	4.95938
 544	1	3	-0.037172	34.8881	1.72985	5.49146
 545	1	3	-0.116011	36.2643	1.46516	5.29474
 546	1	3	-0.048223	36.7846	0.252746	5.771
 547	1	3	-0.138147	34.0903	0.796139	6.2064
 548	1	3	-0.114262	34.6363	-0.410777	6.68657
 549	1	3	-0.063397	35.9919	-0.657409	6.44141
 550	1	2	0.489233	36.8364	-1.81873	6.82107
 551	1	1	-0.081676	38.1121	-1.53167	6.34974
 552	1	2	0.489742	38.1638	-0.303988	5.69849
 553	1	3	0.047265	39.2415	-2.37139	6.56866
 554	1	3	-0.183349	39.4799	-2.89993	7.84803
 555	1	3	-0.091111	40.6025	-3.70408	8.08859
 556	1	3	-0.18836	40.1417	-2.67704	5.53016
 557	1	3	-0.138837	41.2708	-3.48372	5.77254
 558	1	3	0.044906	41.5236	-3.99808	7.06303
 559	1	6	0.157291	38.7971	-2.68503	8.66596
 560	1	6	0.112962	40.7621	-4.09232	9.09002
 561	1	6	0.163228	34.0312	-1.13151	7.23422
 562	1	6	0.134491	33.0411	1.01084	6.39814
 563	1	6	0.172124	36.9056	2.17609	4.7747
 564	1	5	-0.48162	39.1265	0.233493	5.17914
 565	1	5	-0.478641	36.4614	-2.80038	7.43927
 566	1	5	-0.498568	34.9369	4.0442	4.97587
 567	1	6	0.153588	39.9778	-2.27345	4.53367
 568	1	6	0.146442	41.9505	-3.68929	4.95085
 569	1	7	0.027303	42.7775	-4.82232	7.41182
 570	1	7	-0.256739	43.5861	-4.09605	8.52194
 571	1	8	0.074408	44.5381	-4.6081	8.71428
 572	1	8	0.075653	43.0336	-4.05659	9.46828
 573	1	8	0.063017	43.8144	-3.06414	8.22576
 574	1	7	-0.003396	42.3877	-6.2653	7.8736
 575	1	7	0.23166	42.7134	-7.25784	6.71649
 576	1	8	0.003166	41.3373	-6.33977	8.18368
 577	1	8	0.018046	42.9854	-6.53413	8.75486
 578	1	3	0.065056	43.7018	-6.46098	5.88314
 579	1	7	-0.138879	41.4477	-7.57618	5.8851
 580	1	7	-0.25744	43.3249	-8.5701	7.26819
 581	1	3	0.018858	43.699	-5.11611	6.23519
 582	1	8	0.063111	42.6363	-9.05553	7.97123
 583	1	8	0.056661	44.2663	-8.37045	7.79614
 584	1	8	0.052049	43.536	-9.27954	6.45879
 585	1	3	-0.499719	44.5987	-6.9557	4.91749
 586	1	3	-0.078325	44.5833	-4.21824	5.61718
 587	1	3	-0.430686	45.4897	-4.70646	4.6564
 588	1	3	0.29919	45.5222	-6.07717	4.30911
 589	1	6	0.134637	44.5961	-3.17098	5.91056
 590	1	8	0.0139	41.6943	-8.21704	5.02891
 591	1	8	0.03702	40.9893	-6.65767	5.49723
 592	1	8	0.035416	40.699	-8.09826	6.4943
 593	1	6	0.223374	44.609	-8.01489	4.67657
 594	1	6	0.198405	46.2085	-4.02333	4.21084
 595	1	1	0.464138	19.3057	23.0886	6.04651
 596	1	2	0.077422	19.9623	22.1704	6.87322
 597	1	3	0.04486	20.3365	21.0427	5.98898
 598	1	2	0.055008	19.2163	22.638	4.72393
 599	1	3	-0.004417	19.8797	21.31	4.71477
 600	1	5	-0.392499	20.1672	22.2219	8.07562
 601	1	5	-0.37854	18.7295	23.1937	3.75261
 602	1	3	-0.044101	21.0397	19.8724	6.28855
 603	1	3	-0.056346	20.0807	20.4093	3.66303
 604	1	3	-0.157726	20.7689	19.2098	3.94423
 605	1	3	-0.13238	21.2492	18.9345	5.25345
 606	1	6	0.167375	21.4108	19.6986	7.29761
 607	1	6	0.161059	19.7226	20.6409	2.66197
 608	1	6	0.140064	20.9555	18.5072	3.13415
 609	1	2	0.57844	22.0331	17.6873	5.55726
 610	1	3	-0.037172	21.655	16.3924	4.88866
 611	1	3	-0.116011	22.6548	15.4206	4.65726
 612	1	3	-0.048223	22.2799	14.2087	4.06531
 613	1	3	-0.138147	20.3066	16.1089	4.54058
 614	1	3	-0.114262	19.9504	14.875	3.95762
 615	1	3	-0.063397	20.9686	13.9403	3.73069
 616	1	2	0.489233	20.9128	12.5747	3.14433
 617	1	1	-0.081676	22.2229	12.1044	3.14841
 618	1	2	0.489742	23.1056	13.0331	3.68994
 619	1	3	0.047265	22.6276	10.8414	2.62473
 620	1	3	-0.183349	22.0951	10.3642	1.41393
 621	1	3	-0.091111	22.5344	9.14606	0.872376
 622	1	3	-0.18836	23.5959	10.0645	3.28794
 623	1	3	-0.138837	24.0441	8.85051	2.74018
 624	1	3	0.044906	23.5266	8.37784	1.51523
 625	1	6	0.157291	21.3438	10.9398	0.879572
 626	1	6	0.112962	22.1129	8.80884	-0.0700199
 627	1	6	0.163228	18.918	14.6458	3.69861
 628	1	6	0.134491	19.525	16.8364	4.74748
 629	1	6	0.172124	23.694	15.6032	4.92981
 630	1	5	-0.48162	24.3161	12.9501	3.80702
 631	1	5	-0.478641	19.9085	12.0162	2.73702
 632	1	5	-0.498568	22.9551	17.7268	6.35485
 633	1	6	0.153588	24.0294	10.4127	4.22244
 634	1	6	0.146442	24.8153	8.30011	3.27048
 635	1	7	0.027303	24.0286	7.08305	0.848013
 636	1	7	-0.256739	22.8613	6.07488	0.677578
 637	1	8	0.074408	22.1024	6.45292	-0.0183708
 638	1	8	0.075653	22.3672	5.88294	1.63846
 639	1	8	0.063017	23.2238	5.11491	0.28721
 640	1	7	-0.003396	24.6924	7.40724	-0.530194
 641	1	7	0.23166	26.2279	7.53885	-0.30098
 642	1	8	0.003166	24.2734	8.29857	-1.01387
 643	1	8	0.018046	24.509	6.5686	-1.21544
 644	1	3	0.065056	26.4154	6.69189	0.944843