pySIMM System Object

1718 atoms
1899 bonds
3354 angles
5378 dihedrals
546 impropers

8 atom types
10 bond types
17 angle types
9 dihedral types
4 improper types

-179.014488 179.014488 xlo xhi
-179.014488 179.014488 ylo yhi
-179.014488 179.014488 zlo zhi

Masses

   1	14.01	# n
   2	12.01	# c
   3	12.01	# ca
   4	1.008	# hn
   5	16.0	# o
   6	1.008	# ha
   7	12.01	# c3
   8	1.008	# hc

Pair Coeffs

   1	0.17	3.249998523775958	# n
   2	0.086	3.3996695084235347	# c
   3	0.086	3.3996695084235347	# ca
   4	0.0157	1.069078461768407	# hn
   5	0.21	2.959921901149463	# o
   6	0.015	2.59964245953351	# ha
   7	0.1094	3.3996695084235347	# c3
   8	0.0157	2.649532787749369	# hc

Bond Coeffs

   1	427.6	1.3789	# c,n
   2	461.1	1.3984	# ca,ca
   3	345.9	1.4906	# c,ca
   4	300.9	1.5375	# c3,c3
   5	345.8	1.086	# ca,ha
   6	384.2	1.4121	# ca,n
   7	637.7	1.2183	# c,o
   8	321.0	1.5156	# c3,ca
   9	330.6	1.0969	# c3,hc
  10	403.2	1.0129	# hn,n

Angle Coeffs

   1	63.82	123.71	# c,n,ca
   2	67.87	120.19	# ca,ca,n
   3	67.68	115.25	# ca,c,n
   4	63.15	112.07	# c3,c3,ca
   5	63.0	118.11	# ca,c,ca
   6	63.56	112.24	# ca,c3,ca
   7	46.34	109.8	# c3,c3,hc
   8	48.33	117.55	# c,n,hn
   9	74.22	123.05	# n,c,o
  10	64.28	120.33	# c,ca,ca
  11	39.4	107.58	# hc,c3,hc
  12	66.62	120.02	# ca,ca,ca
  13	63.53	120.77	# c3,ca,ca
  14	62.86	111.51	# c3,c3,c3
  15	63.74	127.08	# c,n,c
  16	48.18	119.88	# ca,ca,ha
  17	68.72	122.6	# ca,c,o

Dihedral Coeffs

   1	2	2.5	2	180	2.0	1	0	# hn,n,c,o
   2	1	3.625	2	180	# X,ca,ca,X
   3	1	0.16	3	0	# hc,c3,c3,c3
   4	1	1.0	2	180	# X,c,ca,X
   5	1	0.15555555555555556	3	0	# X,c3,c3,X
   6	1	0.0	2	0	# X,c3,ca,X
   7	3	0.18	3	0	0.25	2	180	0.2	1	180	# c3,c3,c3,c3
   8	1	2.5	2	180	# X,c,n,X
   9	1	0.45	2	180	# X,ca,n,X

Improper Coeffs

   1	1.1	-1	2	# ca,ca,ca,c3
   2	1.1	-1	2	# n,X,X,hn
   3	1.1	-1	2	# ca,X,X,ha
   4	10.5	-1	2	# c,X,X,o

Atoms

   1	1	1	0.464138	-81.6622	-15.7002	-78.4441
   2	1	2	0.077422	-82.1217	-16.7799	-77.6833
   3	1	3	0.04486	-83.5857	-16.829	-77.916
   4	1	2	0.055008	-82.6928	-15.0538	-79.1293
   5	1	3	-0.004417	-83.9251	-15.8024	-78.7759
   6	1	5	-0.392499	-81.4875	-17.5512	-76.9809
   7	1	5	-0.37854	-82.6303	-14.0819	-79.8642
   8	1	3	-0.044101	-84.5414	-17.7269	-77.4236
   9	1	3	-0.056346	-85.2427	-15.6144	-79.2038
  10	1	3	-0.157726	-86.223	-16.5029	-78.718
  11	1	3	-0.13238	-85.889	-17.5449	-77.8142
  12	1	6	0.167375	-84.2361	-18.5452	-76.7743
  13	1	6	0.161059	-85.4921	-14.8143	-79.8975
  14	1	6	0.140064	-87.255	-16.3895	-79.0472
  15	1	2	0.57844	-86.9749	-18.4823	-77.3582
  16	1	3	-0.037172	-87.2262	-18.7223	-75.8839
  17	1	3	-0.116011	-88.3327	-19.5275	-75.5196
  18	1	3	-0.048223	-88.6347	-19.6887	-74.1628
  19	1	3	-0.138147	-86.4563	-18.1077	-74.8555
  20	1	3	-0.114262	-86.7655	-18.3056	-73.492
  21	1	3	-0.063397	-87.8714	-19.1047	-73.1761
  22	1	2	0.489233	-88.4927	-19.4269	-71.8623
  23	1	1	-0.081676	-89.6342	-20.1726	-72.1501
  24	1	2	0.489742	-89.7774	-20.384	-73.5188
  25	1	3	0.047265	-90.5835	-20.6154	-71.1777
  26	1	3	-0.183349	-90.9352	-19.801	-70.0848
  27	1	3	-0.091111	-91.9066	-20.2205	-69.1602
  28	1	3	-0.18836	-91.2242	-21.8608	-71.3146
  29	1	3	-0.138837	-92.2161	-22.2672	-70.4068
  30	1	3	0.044906	-92.582	-21.4482	-69.3169
  31	1	6	0.157291	-90.4603	-18.8336	-69.9452
  32	1	6	0.112962	-92.1449	-19.5737	-68.321
  33	1	6	0.163228	-86.1882	-17.8248	-72.7038
  34	1	6	0.134491	-85.6318	-17.445	-75.0972
  35	1	6	0.172124	-88.9717	-19.9859	-76.274
  36	1	5	-0.48162	-90.6768	-20.9554	-74.1108
  37	1	5	-0.478641	-88.0788	-19.0611	-70.7754
  38	1	5	-0.498568	-87.7336	-18.9477	-78.1925
  39	1	6	0.153588	-90.9763	-22.5155	-72.1464
  40	1	6	0.146442	-92.7002	-23.2231	-70.5767
  41	1	7	0.027303	-93.6677	-21.861	-68.3001
  42	1	7	-0.256739	-93.0187	-22.1337	-66.9183
  43	1	8	0.074408	-92.2189	-22.8797	-67.0036
  44	1	8	0.075653	-93.7591	-22.5131	-66.2021
  45	1	8	0.063017	-92.5796	-21.2202	-66.4988
  46	1	7	-0.003396	-94.7839	-20.7692	-68.1866
  47	1	7	0.23166	-95.9515	-21.1739	-69.1358
  48	1	8	0.003166	-94.4261	-19.7532	-68.3939
  49	1	8	0.018046	-95.1587	-20.7563	-67.1541
  50	1	3	0.065056	-95.7469	-22.6741	-69.242
  51	1	7	-0.138879	-95.8036	-20.5076	-70.5249
  52	1	7	-0.25744	-97.3242	-20.806	-68.5203
  53	1	3	0.018858	-94.4967	-23.054	-68.7623
  54	1	8	0.063111	-97.4735	-21.3199	-67.562
  55	1	8	0.056661	-98.1453	-21.0961	-69.1875
  56	1	8	0.052049	-97.3968	-19.7254	-68.3437
  57	1	3	-0.499719	-96.6542	-23.6297	-69.7352
  58	1	3	-0.078325	-94.1278	-24.4099	-68.7354
  59	1	3	-0.430686	-95.0327	-25.3697	-69.2305
  60	1	3	0.29919	-96.2894	-24.9846	-69.7315
  61	1	6	0.134637	-93.1539	-24.7076	-68.3547
  62	1	8	0.0139	-94.839	-20.7546	-70.9853
  63	1	8	0.03702	-95.8714	-19.4153	-70.4456
  64	1	8	0.035416	-96.595	-20.8478	-71.2049
  65	1	6	0.223374	-97.6257	-23.3311	-70.1143
  66	1	6	0.198405	-94.7642	-26.4217	-69.2295
  67	1	1	0.464138	-65.2028	-1.57645	-80.0238
  68	1	2	0.077422	-66.2381	-1.59453	-80.9597
  69	1	3	0.04486	-67.151	-2.67568	-80.5085
  70	1	2	0.055008	-65.3647	-2.53677	-79.024
  71	1	3	-0.004417	-66.6284	-3.23841	-79.3609
  72	1	5	-0.392499	-66.3917	-0.884587	-81.9405
  73	1	5	-0.37854	-64.6387	-2.77967	-78.0737
  74	1	3	-0.044101	-68.3445	-3.13924	-81.0744
  75	1	3	-0.056346	-67.2579	-4.30994	-78.7209
  76	1	3	-0.157726	-68.4593	-4.79816	-79.2757
  77	1	3	-0.13238	-69.024	-4.20829	-80.4416
  78	1	6	0.167375	-68.7274	-2.6838	-81.9867
  79	1	6	0.161059	-66.8156	-4.7569	-77.8328
  80	1	6	0.140064	-68.9324	-5.65736	-78.8059
  81	1	2	0.57844	-70.2897	-4.73857	-81.0741
  82	1	3	-0.037172	-71.2472	-5.57523	-80.2644
  83	1	3	-0.116011	-71.8575	-6.6968	-80.8717
  84	1	3	-0.048223	-72.7059	-7.4959	-80.0947
  85	1	3	-0.138147	-71.5505	-5.25797	-78.9129
  86	1	3	-0.114262	-72.4108	-6.07479	-78.1498
  87	1	3	-0.063397	-72.9679	-7.19947	-78.771
  88	1	2	0.489233	-73.8116	-8.28923	-78.2105
  89	1	1	-0.081676	-73.9769	-9.19754	-79.2451
  90	1	2	0.489742	-73.3746	-8.78259	-80.4229
  91	1	3	0.047265	-74.5174	-10.4943	-79.0713
  92	1	3	-0.183349	-73.6548	-11.5483	-78.7385
  93	1	3	-0.091111	-74.1539	-12.8499	-78.593
  94	1	3	-0.18836	-75.8871	-10.7506	-79.2486
  95	1	3	-0.138837	-76.3882	-12.0582	-79.0991
  96	1	3	0.044906	-75.5243	-13.1284	-78.7726
  97	1	6	0.157291	-72.5933	-11.3614	-78.6022
  98	1	6	0.112962	-73.4647	-13.6508	-78.3424
  99	1	6	0.163228	-72.6237	-5.85783	-77.1043
 100	1	6	0.134491	-71.1089	-4.37871	-78.4489
 101	1	6	0.172124	-71.6457	-6.96114	-81.9074
 102	1	5	-0.48162	-73.2885	-9.39245	-81.4741
 103	1	5	-0.478641	-74.1628	-8.40363	-77.0494
 104	1	5	-0.498568	-70.5056	-4.54244	-82.2585
 105	1	6	0.153588	-76.5623	-9.93984	-79.5096
 106	1	6	0.146442	-77.4508	-12.227	-79.2447
 107	1	7	0.027303	-76.0085	-14.5834	-78.6249
 108	1	7	-0.256739	-75.3009	-15.4858	-79.6716
 109	1	8	0.074408	-74.2217	-15.5483	-79.4868
 110	1	8	0.075653	-75.4438	-15.0933	-80.6865
 111	1	8	0.063017	-75.7024	-16.5073	-79.6464
 112	1	7	-0.003396	-75.744	-15.1088	-77.1752
 113	1	7	0.23166	-77.0712	-14.9873	-76.3698
 114	1	8	0.003166	-74.9161	-14.5921	-76.6735
 115	1	8	0.018046	-75.4586	-16.1681	-77.2281
 116	1	3	0.065056	-78.1021	-14.9963	-77.4835
 117	1	7	-0.138879	-77.1358	-13.6505	-75.5924
 118	1	7	-0.25744	-77.2401	-16.1742	-75.389
 119	1	3	0.018858	-77.5196	-14.751	-78.7208
 120	1	8	0.063111	-78.173	-16.0858	-74.8189
 121	1	8	0.056661	-76.4091	-16.2106	-74.6735
 122	1	8	0.052049	-77.2673	-17.1287	-75.9305
 123	1	3	-0.499719	-79.4755	-15.2724	-77.3703
 124	1	3	-0.078325	-78.3011	-14.7637	-79.8863
 125	1	3	-0.430686	-79.677	-15.0477	-79.7805
 126	1	3	0.29919	-80.2819	-15.3236	-78.5294
 127	1	6	0.134637	-77.8448	-14.5799	-80.8564
 128	1	8	0.0139	-77.0176	-12.7922	-76.2654
 129	1	8	0.03702	-76.3432	-13.5983	-74.8354
 130	1	8	0.035416	-78.1009	-13.5441	-75.0812
 131	1	6	0.223374	-79.9002	-15.4992	-76.3962
 132	1	6	0.198405	-80.2809	-15.0711	-80.6854
 133	1	1	0.464138	-44.79	-0.244623	-73.6805
 134	1	2	0.077422	-45.9068	0.0549634	-72.8974
 135	1	3	0.04486	-47.062	-0.0125595	-73.8209
 136	1	2	0.055008	-45.1291	-0.520189	-75.0092
 137	1	3	-0.004417	-46.6066	-0.35687	-75.077
 138	1	5	-0.392499	-45.9572	0.37048	-71.7192
 139	1	5	-0.37854	-44.3941	-0.799846	-75.9425
 140	1	3	-0.044101	-48.4066	0.277942	-73.5773
 141	1	3	-0.056346	-47.4814	-0.438296	-76.1671
 142	1	3	-0.157726	-48.8476	-0.152181	-75.9459
 143	1	3	-0.13238	-49.3221	0.203925	-74.6522
 144	1	6	0.167375	-48.7227	0.583598	-72.5807
 145	1	6	0.161059	-47.1042	-0.682683	-77.1581
 146	1	6	0.140064	-49.5253	-0.163966	-76.7967
 147	1	2	0.57844	-50.7516	0.616781	-74.3951
 148	1	3	-0.037172	-51.8601	0.192055	-75.3229
 149	1	3	-0.116011	-52.9173	1.09723	-75.5735
 150	1	3	-0.048223	-53.9633	0.68826	-76.4093
 151	1	3	-0.138147	-51.9014	-1.10867	-75.8925
 152	1	3	-0.114262	-52.9738	-1.50439	-76.721
 153	1	3	-0.063397	-53.9943	-0.575266	-76.9639
 154	1	2	0.489233	-55.2302	-0.68715	-77.7862
 155	1	1	-0.081676	-55.8616	0.546823	-77.6885
 156	1	2	0.489742	-55.168	1.42759	-76.8682
 157	1	3	0.047265	-57.0592	0.888489	-78.3756
 158	1	3	-0.183349	-57.1227	2.06483	-79.1411
 159	1	3	-0.091111	-58.3069	2.41904	-79.8063
 160	1	3	-0.18836	-58.1947	0.0632128	-78.3021
 161	1	3	-0.138837	-59.3817	0.418546	-78.9681
 162	1	3	0.044906	-59.4607	1.61313	-79.7194
 163	1	6	0.157291	-56.256	2.7169	-79.2121
 164	1	6	0.112962	-58.3253	3.33402	-80.3903
 165	1	6	0.163228	-53.0186	-2.5012	-77.1565
 166	1	6	0.134491	-51.1123	-1.82416	-75.6718
 167	1	6	0.172124	-52.9226	2.09311	-75.131
 168	1	5	-0.48162	-55.4438	2.58448	-76.6011
 169	1	5	-0.478641	-55.5805	-1.66394	-78.4255
 170	1	5	-0.498568	-51.0078	1.34218	-73.4479
 171	1	6	0.153588	-58.16	-0.858685	-77.7263
 172	1	6	0.146442	-60.2349	-0.248312	-78.8879
 173	1	7	0.027303	-60.7494	2.0602	-80.44
 174	1	7	-0.256739	-61.1344	3.50979	-80.0351
 175	1	8	0.074408	-61.1972	3.60807	-78.9439
 176	1	8	0.075653	-62.1111	3.78633	-80.4537
 177	1	8	0.063017	-60.4026	4.24189	-80.3971
 178	1	7	-0.003396	-60.5815	1.95081	-81.9908
 179	1	7	0.23166	-61.3671	0.696969	-82.4865
 180	1	8	0.003166	-59.5259	1.91044	-82.2903
 181	1	8	0.018046	-60.9981	2.8492	-82.4656
 182	1	3	0.065056	-62.2777	0.395593	-81.3093
 183	1	7	-0.138879	-60.4109	-0.493262	-82.7393
 184	1	7	-0.25744	-62.1657	1.01345	-83.7754
 185	1	3	0.018858	-61.931	1.13679	-80.1878
 186	1	8	0.063111	-62.7262	0.135078	-84.1183
 187	1	8	0.056661	-61.4941	1.3239	-84.5856
 188	1	8	0.052049	-62.8862	1.82281	-83.6
 189	1	3	-0.499719	-63.3532	-0.510043	-81.2726
 190	1	3	-0.078325	-62.6519	0.998881	-78.9921
 191	1	3	-0.430686	-63.7274	0.0913953	-78.9472
 192	1	3	0.29919	-64.0978	-0.669599	-80.0821
 193	1	6	0.134637	-62.374	1.57685	-78.1136
 194	1	8	0.0139	-60.9721	-1.39107	-83.0283
 195	1	8	0.03702	-59.8335	-0.732727	-81.8373
 196	1	8	0.035416	-59.7024	-0.263252	-83.5451
 197	1	6	0.223374	-63.6201	-1.07007	-82.1654
 198	1	6	0.198405	-64.2778	-0.0304803	-78.0168
 199	1	1	0.464138	-29.6456	-11.8314	-69.1497
 200	1	2	0.077422	-30.5372	-10.9636	-69.7883
 201	1	3	0.04486	-31.8581	-11.239	-69.1735
 202	1	2	0.055008	-30.2864	-12.6562	-68.2173
 203	1	3	-0.004417	-31.7138	-12.255	-68.2509
 204	1	5	-0.392499	-30.3172	-10.1257	-70.6485
 205	1	5	-0.37854	-29.8013	-13.4788	-67.4573
 206	1	3	-0.044101	-33.0849	-10.5995	-69.3736
 207	1	3	-0.056346	-32.7971	-12.7206	-67.4971
 208	1	3	-0.157726	-34.0499	-12.1036	-67.6945
 209	1	3	-0.13238	-34.1943	-11.0278	-68.6073
 210	1	6	0.167375	-33.1616	-9.78766	-70.0946
 211	1	6	0.161059	-32.6644	-13.5226	-66.7739
 212	1	6	0.140064	-34.9101	-12.4382	-67.1164
 213	1	2	0.57844	-35.5184	-10.3318	-68.7504
 214	1	3	-0.037172	-35.527	-8.82543	-68.7879
 215	1	3	-0.116011	-36.5623	-8.14801	-69.4727
 216	1	3	-0.048223	-36.5427	-6.74655	-69.488
 217	1	3	-0.138147	-34.5246	-8.07609	-68.1131
 218	1	3	-0.114262	-34.5318	-6.66726	-68.1332
 219	1	3	-0.063397	-35.5574	-6.02991	-68.8397
 220	1	2	0.489233	-35.8257	-4.58295	-69.04
 221	1	1	-0.081676	-36.9782	-4.51484	-69.8149
 222	1	2	0.489742	-37.4716	-5.77757	-70.127
 223	1	3	0.047265	-37.5811	-3.29502	-70.2364
 224	1	3	-0.183349	-38.0494	-3.14316	-71.5533
 225	1	3	-0.091111	-38.6551	-1.9441	-71.961
 226	1	3	-0.18836	-37.725	-2.2213	-69.3395
 227	1	3	-0.138837	-38.315	-1.01516	-69.7523
 228	1	3	0.044906	-38.7878	-0.856298	-71.0733
 229	1	6	0.157291	-37.9607	-3.96059	-72.2644
 230	1	6	0.112962	-39.0301	-1.86392	-72.9774
 231	1	6	0.163228	-33.7718	-6.08585	-67.6136
 232	1	6	0.134491	-33.7453	-8.58474	-67.5498
 233	1	6	0.172124	-37.3539	-8.69642	-69.9824
 234	1	5	-0.48162	-38.4515	-6.06381	-70.7929
 235	1	5	-0.478641	-35.1499	-3.66693	-68.6037
 236	1	5	-0.498568	-36.5547	-10.9709	-68.8136
 237	1	6	0.153588	-37.3739	-2.31584	-68.3147
 238	1	6	0.146442	-38.404	-0.214556	-69.0258
 239	1	7	0.027303	-39.4862	0.430285	-71.5565
 240	1	7	-0.256739	-39.5935	1.54003	-70.4737
 241	1	8	0.074408	-40.1155	2.42205	-70.8667
 242	1	8	0.075653	-38.6007	1.86407	-70.1363
 243	1	8	0.063017	-40.1611	1.19117	-69.6014
 244	1	7	-0.003396	-38.8107	1.02406	-72.8378
 245	1	7	0.23166	-39.9159	1.25656	-73.9207
 246	1	8	0.003166	-38.0475	0.335029	-73.2213
 247	1	8	0.018046	-38.2739	1.95489	-72.6111
 248	1	3	0.065056	-41.1367	0.579605	-73.3185
 249	1	7	-0.138879	-39.5184	0.600183	-75.2654
 250	1	7	-0.25744	-40.1768	2.76767	-74.1339
 251	1	3	0.018858	-40.8827	0.102847	-72.0412
 252	1	8	0.063111	-39.2764	3.27233	-74.5063
 253	1	8	0.056661	-40.4758	3.25075	-73.1954
 254	1	8	0.052049	-40.98	2.92638	-74.8642
 255	1	3	-0.499719	-42.4142	0.446195	-73.8947
 256	1	3	-0.078325	-41.8736	-0.572959	-71.3184
 257	1	3	-0.430686	-43.1476	-0.723438	-71.8944
 258	1	3	0.29919	-43.4497	-0.194606	-73.1732
 259	1	6	0.134637	-41.6647	-0.949394	-70.3194
 260	1	8	0.0139	-40.2962	0.752712	-76.0242
 261	1	8	0.03702	-39.3744	-0.4812	-75.1457
 262	1	8	0.035416	-38.583	1.02767	-75.6483
 263	1	6	0.223374	-42.6043	0.853138	-74.885
 264	1	6	0.198405	-43.9271	-1.2139	-71.3154
 265	1	1	0.464138	-17.5141	0.652099	-60.229
 266	1	2	0.077422	-18.5152	-0.32375	-60.2923
 267	1	3	0.04486	-17.8511	-1.53389	-60.853
 268	1	2	0.055008	-16.2909	0.191219	-60.7167
 269	1	3	-0.004417	-16.5302	-1.21735	-61.1059
 270	1	5	-0.392499	-19.6876	-0.23759	-59.9641
 271	1	5	-0.37854	-15.2329	0.790473	-60.8191
 272	1	3	-0.044101	-18.3553	-2.822	-61.0972
 273	1	3	-0.056346	-15.633	-2.15792	-61.614
 274	1	3	-0.157726	-16.118	-3.45351	-61.8688
 275	1	3	-0.13238	-17.4756	-3.7956	-61.6375
 276	1	6	0.167375	-19.3892	-3.05328	-60.8508
 277	1	6	0.161059	-14.5939	-1.89144	-61.7938
 278	1	6	0.140064	-15.4322	-4.20451	-62.252
 279	1	2	0.57844	-17.8944	-5.2203	-61.9065
 280	1	3	-0.037172	-19.0979	-5.55108	-62.7676
 281	1	3	-0.116011	-19.2951	-6.90485	-63.1402
 282	1	3	-0.048223	-20.3366	-7.22631	-64.018
 283	1	3	-0.138147	-19.9774	-4.56381	-63.2934
 284	1	3	-0.114262	-21.0496	-4.91655	-64.1405
 285	1	3	-0.063397	-21.199	-6.2633	-64.4955
 286	1	2	0.489233	-22.1211	-6.91301	-65.4682
 287	1	1	-0.081676	-21.7129	-8.23715	-65.5442
 288	1	2	0.489742	-20.6611	-8.51591	-64.685
 289	1	3	0.047265	-22.228	-9.16356	-66.4863
 290	1	3	-0.183349	-23.4145	-9.86818	-66.231
 291	1	3	-0.091111	-23.9287	-10.7574	-67.1916
 292	1	3	-0.18836	-21.5562	-9.37098	-67.7015
 293	1	3	-0.138837	-22.0723	-10.2553	-68.6631
 294	1	3	0.044906	-23.2783	-10.951	-68.4317
 295	1	6	0.157291	-23.9446	-9.72145	-65.2942
 296	1	6	0.112962	-24.8503	-11.2899	-66.9722
 297	1	6	0.163228	-21.7106	-4.15809	-64.5573
 298	1	6	0.134491	-19.824	-3.50995	-63.086
 299	1	6	0.172124	-18.6193	-7.68781	-62.8026
 300	1	5	-0.48162	-20.0359	-9.55545	-64.569
 301	1	5	-0.478641	-22.9977	-6.35662	-66.1063
 302	1	5	-0.498568	-17.1475	-6.1218	-61.5548
 303	1	6	0.153588	-20.6357	-8.83478	-67.9117
 304	1	6	0.146442	-21.5256	-10.3811	-69.5915
 305	1	7	0.027303	-23.8943	-11.8982	-69.4851
 306	1	7	-0.256739	-23.3493	-11.6753	-70.9231
 307	1	8	0.074408	-23.4477	-10.6234	-71.2206
 308	1	8	0.075653	-23.905	-12.2752	-71.6544
 309	1	8	0.063017	-22.2926	-11.9601	-71.0018
 310	1	7	-0.003396	-23.7198	-13.3928	-69.0627
 311	1	7	0.23166	-25.0915	-14.1208	-69.2364
 312	1	8	0.003166	-23.416	-13.4367	-68.0083
 313	1	8	0.018046	-22.9203	-13.8888	-69.6287
 314	1	3	0.065056	-26.0645	-12.9612	-69.3692
 315	1	7	-0.138879	-25.4133	-15.0018	-68.0042
 316	1	7	-0.25744	-25.1072	-14.9925	-70.516
 317	1	3	0.018858	-25.4041	-11.7508	-69.5207
 318	1	8	0.063111	-26.0934	-15.4503	-70.6626
 319	1	8	0.056661	-24.3653	-15.7983	-70.4508
 320	1	8	0.052049	-24.8816	-14.3947	-71.407
 321	1	3	-0.499719	-27.4682	-13.0119	-69.2997
 322	1	3	-0.078325	-26.1237	-10.5533	-69.6231
 323	1	3	-0.430686	-27.5269	-10.595	-69.5248
 324	1	3	0.29919	-28.2238	-11.8169	-69.3493
 325	1	6	0.134637	-25.5993	-9.60644	-69.7353
 326	1	8	0.0139	-25.4729	-14.3939	-67.0922
 327	1	8	0.03702	-24.6383	-15.7643	-67.8558
 328	1	8	0.035416	-26.3741	-15.5171	-68.1274
 329	1	6	0.223374	-27.9615	-13.9686	-69.1492
 330	1	6	0.198405	-28.0762	-9.6575	-69.5695
 331	1	1	0.464138	-18.5932	4.53145	-69.1125
 332	1	2	0.077422	-17.6825	5.02298	-68.1748
 333	1	3	0.04486	-17.1393	6.2704	-68.7761
 334	1	2	0.055008	-18.6945	5.34817	-70.24
 335	1	3	-0.004417	-17.7445	6.4631	-70.0024
 336	1	5	-0.392499	-17.3574	4.5397	-67.1019
 337	1	5	-0.37854	-19.3907	5.19714	-71.2306
 338	1	3	-0.044101	-16.1607	7.15059	-68.2965
 339	1	3	-0.056346	-17.4102	7.54601	-70.8216
 340	1	3	-0.157726	-16.4302	8.44732	-70.3572
 341	1	3	-0.13238	-15.8067	8.27002	-69.0944
 342	1	6	0.167375	-15.6797	6.94264	-67.3428
 343	1	6	0.161059	-17.8872	7.67355	-71.791
 344	1	6	0.140064	-16.1443	9.2906	-70.9842
 345	1	2	0.57844	-14.736	9.24081	-68.6516
 346	1	3	-0.037172	-14.5053	9.4446	-67.1777
 347	1	3	-0.116011	-15.5982	9.45825	-66.2815
 348	1	3	-0.048223	-15.3299	9.5247	-64.9111
 349	1	3	-0.138147	-13.1848	9.57525	-66.6748
 350	1	3	-0.114262	-12.9374	9.62983	-65.2862
 351	1	3	-0.063397	-14.0398	9.58087	-64.4224
 352	1	2	0.489233	-14.0998	9.40421	-62.9447
 353	1	1	-0.081676	-15.4438	9.20535	-62.6546
 354	1	2	0.489742	-16.2563	9.33985	-63.7699
 355	1	3	0.047265	-15.9224	8.58413	-61.4753
 356	1	3	-0.183349	-15.4927	7.28182	-61.1816
 357	1	3	-0.091111	-16.1545	6.51775	-60.2114
 358	1	3	-0.18836	-16.966	9.14978	-60.7257
 359	1	3	-0.138837	-17.6162	8.38883	-59.7378
 360	1	3	0.044906	-17.266	7.03878	-59.5125
 361	1	6	0.157291	-14.6897	6.82838	-61.7574
 362	1	6	0.112962	-15.8233	5.49635	-60.0656
 363	1	6	0.163228	-11.9228	9.65136	-64.8919
 364	1	6	0.134491	-12.3449	9.57252	-67.3674
 365	1	6	0.172124	-16.626	9.36302	-66.628
 366	1	5	-0.48162	-17.4556	9.13927	-63.8572
 367	1	5	-0.478641	-13.1454	9.25011	-62.2032
 368	1	5	-0.498568	-14.041	9.81468	-69.4733
 369	1	6	0.153588	-17.321	10.151	-60.9566
 370	1	6	0.146442	-18.4445	8.83452	-59.1951
 371	1	7	0.027303	-18.1314	6.1517	-58.5901
 372	1	7	-0.256739	-17.9029	6.53544	-57.1073
 373	1	8	0.074408	-18.4573	5.86754	-56.4355
 374	1	8	0.075653	-18.2314	7.56413	-56.913
 375	1	8	0.063017	-16.8387	6.46989	-56.8477
 376	1	7	-0.003396	-19.645	6.24432	-58.9796
 377	1	7	0.23166	-19.925	5.14897	-60.053
 378	1	8	0.003166	-19.9623	7.23729	-59.3175
 379	1	8	0.018046	-20.2454	6.0208	-58.0874
 380	1	3	0.065056	-18.8585	4.12547	-59.7047
 381	1	7	-0.138879	-19.7204	5.69043	-61.4903
 382	1	7	-0.25744	-21.3592	4.58402	-59.9108
 383	1	3	0.018858	-17.9031	4.66447	-58.8482
 384	1	8	0.063111	-21.5066	4.13302	-58.9213
 385	1	8	0.056661	-21.5538	3.81078	-60.6642
 386	1	8	0.052049	-22.1053	5.37827	-60.04
 387	1	3	-0.499719	-18.7672	2.79455	-60.1538
 388	1	3	-0.078325	-16.8581	3.8641	-58.3637
 389	1	3	-0.430686	-16.7612	2.5317	-58.8086
 390	1	3	0.29919	-17.6942	1.98158	-59.7226
 391	1	6	0.134637	-16.1085	4.28185	-57.6955
 392	1	8	0.0139	-20.4228	6.50563	-61.706
 393	1	8	0.03702	-19.8839	4.89817	-62.2314
 394	1	8	0.035416	-18.7043	6.07456	-61.6376
 395	1	6	0.223374	-19.5146	2.40061	-60.8378
 396	1	6	0.198405	-15.9203	1.92846	-58.4729
 397	1	1	0.464138	-14.6047	-13.6286	-59.92
 398	1	2	0.077422	-14.6902	-13.7681	-61.3059
 399	1	3	0.04486	-15.1767	-12.4535	-61.7992
 400	1	2	0.055008	-14.991	-12.3632	-59.4798
 401	1	3	-0.004417	-15.3648	-11.6238	-60.7109
 402	1	5	-0.392499	-14.4236	-14.743	-61.9902
 403	1	5	-0.37854	-15.0248	-11.9299	-58.3397
 404	1	3	-0.044101	-15.4346	-12.0193	-63.1056
 405	1	3	-0.056346	-15.8519	-10.323	-60.8603
 406	1	3	-0.157726	-16.1306	-9.86846	-62.1646
 407	1	3	-0.13238	-15.9003	-10.6958	-63.3007
 408	1	6	0.167375	-15.2754	-12.6944	-63.9454
 409	1	6	0.161059	-16.0177	-9.6912	-59.9901
 410	1	6	0.140064	-16.5384	-8.86737	-62.2762
 411	1	2	0.57844	-16.1841	-10.2218	-64.7092
 412	1	3	-0.037172	-16.3391	-8.74817	-64.9856
 413	1	3	-0.116011	-17.3528	-8.30958	-65.8685
 414	1	3	-0.048223	-17.528	-6.92933	-66.0468
 415	1	3	-0.138147	-15.4804	-7.79587	-64.3764
 416	1	3	-0.114262	-15.6776	-6.41499	-64.5658
 417	1	3	-0.063397	-16.7319	-6.01283	-65.3928
 418	1	2	0.489233	-17.2352	-4.65219	-65.7049
 419	1	1	-0.081676	-18.3139	-4.82844	-66.5676
 420	1	2	0.489742	-18.547	-6.17694	-66.8256
 421	1	3	0.047265	-19.1043	-3.75119	-67.0775
 422	1	3	-0.183349	-20.5	-3.86814	-67.2189
 423	1	3	-0.091111	-21.2759	-2.77979	-67.6473
 424	1	3	-0.18836	-18.5031	-2.5265	-67.4231
 425	1	3	-0.138837	-19.2771	-1.4379	-67.8575
 426	1	3	0.044906	-20.6813	-1.54293	-67.9651
 427	1	6	0.157291	-21.0039	-4.80129	-66.9924
 428	1	6	0.112962	-22.353	-2.90151	-67.7181
 429	1	6	0.163228	-15.0438	-5.68185	-64.073
 430	1	6	0.134491	-14.6686	-8.129	-63.7334
 431	1	6	0.172124	-18.0123	-9.02533	-66.3597
 432	1	5	-0.48162	-19.4417	-6.67739	-67.4829
 433	1	5	-0.478641	-16.836	-3.62193	-65.1891
 434	1	5	-0.498568	-16.2945	-11.0265	-65.6193
 435	1	6	0.153588	-17.4265	-2.40076	-67.3387
 436	1	6	0.146442	-18.7657	-0.507218	-68.0841
 437	1	7	0.027303	-21.5704	-0.352537	-68.3784
 438	1	7	-0.256739	-22.4975	-0.731918	-69.5647
 439	1	8	0.074408	-23.2446	-1.47953	-69.2718
 440	1	8	0.075653	-21.9166	-1.14724	-70.398
 441	1	8	0.063017	-23.0387	0.147613	-69.9375
 442	1	7	-0.003396	-22.4032	0.151606	-67.1566
 443	1	7	0.23166	-21.6425	1.35599	-66.5196
 444	1	8	0.003166	-22.6031	-0.642873	-66.4257
 445	1	8	0.018046	-23.3828	0.497679	-67.513
 446	1	3	0.065056	-20.7767	1.82413	-67.6791
 447	1	7	-0.138879	-20.7655	0.897842	-65.3283
 448	1	7	-0.25744	-22.6303	2.45048	-66.0455
 449	1	3	0.018858	-20.7614	0.891757	-68.7095
 450	1	8	0.063111	-22.0951	3.29839	-65.6007
 451	1	8	0.056661	-23.3209	2.05286	-65.291
 452	1	8	0.052049	-23.2257	2.83181	-66.8852
 453	1	3	-0.499719	-20.0547	3.02822	-67.7839
 454	1	3	-0.078325	-20.035	1.13708	-69.8835
 455	1	3	-0.430686	-19.3194	2.34338	-69.9985
 456	1	3	0.29919	-19.3186	3.30594	-68.9598
 457	1	6	0.134637	-20.0252	0.405288	-70.6881
 458	1	8	0.0139	-21.3857	0.495077	-64.5172
 459	1	8	0.03702	-20.186	1.73838	-64.9261
 460	1	8	0.035416	-20.057	0.117708	-65.6301
 461	1	6	0.223374	-20.0626	3.73896	-66.9613
 462	1	6	0.198405	-18.7725	2.54492	-70.9174
 463	1	1	0.464138	-12.0403	-22.0852	-41.0648
 464	1	2	0.077422	-12.1735	-20.7025	-41.1621
 465	1	3	0.04486	-12.8785	-20.4708	-42.4495
 466	1	2	0.055008	-12.5833	-22.7591	-42.159
 467	1	3	-0.004417	-13.1186	-21.6924	-43.047
 468	1	5	-0.392499	-11.8026	-19.8477	-40.3745
 469	1	5	-0.37854	-12.6311	-23.9609	-42.3617
 470	1	3	-0.044101	-13.3062	-19.2741	-43.0335
 471	1	3	-0.056346	-13.7922	-21.7838	-44.2715
 472	1	3	-0.157726	-14.2304	-20.5871	-44.8828
 473	1	3	-0.13238	-13.9912	-19.3246	-44.2727
 474	1	6	0.167375	-13.1278	-18.3297	-42.521
 475	1	6	0.161059	-13.9882	-22.7563	-44.7188
 476	1	6	0.140064	-14.7945	-20.6525	-45.8106
 477	1	2	0.57844	-14.5356	-18.0324	-44.8368
 478	1	3	-0.037172	-14.9019	-17.893	-46.296
 479	1	3	-0.116011	-14.1136	-18.4619	-47.3286
 480	1	3	-0.048223	-14.4609	-18.1826	-48.6619
 481	1	3	-0.138147	-16.0038	-17.0658	-46.6386
 482	1	3	-0.114262	-16.3413	-16.8099	-47.9818
 483	1	3	-0.063397	-15.5423	-17.3844	-48.9757
 484	1	2	0.489233	-15.5965	-17.2236	-50.452
 485	1	1	-0.081676	-14.5035	-17.9227	-50.9539
 486	1	2	0.489742	-13.7831	-18.5478	-49.9377
 487	1	3	0.047265	-14.1359	-17.942	-52.3353
 488	1	3	-0.183349	-13.6576	-19.1171	-52.9431
 489	1	3	-0.091111	-13.2628	-19.1164	-54.2922
 490	1	3	-0.18836	-14.2211	-16.7733	-53.1165
 491	1	3	-0.138837	-13.8447	-16.7776	-54.471
 492	1	3	0.044906	-13.3538	-17.9509	-55.082
 493	1	6	0.157291	-13.5709	-20.0348	-52.3675
 494	1	6	0.112962	-12.8744	-20.0339	-54.7247
 495	1	6	0.163228	-17.1719	-16.1569	-48.2447
 496	1	6	0.134491	-16.5885	-16.5979	-45.8482
 497	1	6	0.172124	-13.2256	-19.052	-47.1094
 498	1	5	-0.48162	-12.7783	-19.2314	-50.0334
 499	1	5	-0.478641	-16.4289	-16.5764	-51.0636
 500	1	5	-0.498568	-14.7098	-17.0861	-44.086
 501	1	6	0.153588	-14.583	-15.8468	-52.6772
 502	1	6	0.146442	-13.9357	-15.8526	-55.0312
 503	1	7	0.027303	-12.884	-17.9859	-56.5522
 504	1	7	-0.256739	-11.3543	-18.2379	-56.6075
 505	1	8	0.074408	-10.9822	-18.185	-57.6391
 506	1	8	0.075653	-11.0979	-19.2268	-56.2077
 507	1	8	0.063017	-10.8133	-17.4881	-56.0165
 508	1	7	-0.003396	-13.6542	-19.0774	-57.3672
 509	1	7	0.23166	-14.8324	-18.3792	-58.1084
 510	1	8	0.003166	-14.0008	-19.9172	-56.7527
 511	1	8	0.018046	-12.9735	-19.5046	-58.1161
 512	1	3	0.065056	-14.3191	-16.9546	-58.2102
 513	1	7	-0.138879	-16.1283	-18.4216	-57.2626
 514	1	7	-0.25744	-15.0867	-19.025	-59.4929
 515	1	3	0.018858	-13.2523	-16.7358	-57.3458
 516	1	8	0.063111	-15.9219	-18.535	-60.0084
 517	1	8	0.056661	-15.3324	-20.0892	-59.3882
 518	1	8	0.052049	-14.2003	-18.9397	-60.1345
 519	1	3	-0.499719	-14.785	-15.9373	-59.0622
 520	1	3	-0.078325	-12.6151	-15.4849	-57.3114
 521	1	3	-0.430686	-13.0829	-14.4578	-58.1551
 522	1	3	0.29919	-14.163	-14.6697	-59.0455
 523	1	6	0.134637	-11.777	-15.313	-56.64
 524	1	8	0.0139	-16.9369	-17.8714	-57.7603
 525	1	8	0.03702	-15.9743	-17.9678	-56.2758
 526	1	8	0.035416	-16.4641	-19.4551	-57.1111
 527	1	6	0.223374	-15.6035	-16.136	-59.7493
 528	1	6	0.198405	-12.6019	-13.4827	-58.1207
 529	1	1	0.464138	1.35593	-14.1633	-27.6548
 530	1	2	0.077422	1.63379	-14.8475	-28.8407
 531	1	3	0.04486	0.466746	-15.7418	-29.0603
 532	1	2	0.055008	0.14476	-14.5617	-27.0825
 533	1	3	-0.004417	-0.420434	-15.5668	-28.0185
 534	1	5	-0.392499	2.5928	-14.7244	-29.5855
 535	1	5	-0.37854	-0.395436	-14.1442	-26.0711
 536	1	3	-0.044101	0.173761	-16.589	-30.1353
 537	1	3	-0.056346	-1.65994	-16.2146	-28.0011
 538	1	3	-0.157726	-1.98547	-17.0592	-29.0847
 539	1	3	-0.13238	-1.06953	-17.2718	-30.1535
 540	1	6	0.167375	0.885297	-16.6828	-30.9548
 541	1	6	0.161059	-2.36265	-16.0317	-27.1907
 542	1	6	0.140064	-2.97452	-17.5085	-29.1031
 543	1	2	0.57844	-1.40409	-18.1082	-31.3726
 544	1	3	-0.037172	-2.56391	-19.08	-31.3961
 545	1	3	-0.116011	-3.23162	-19.297	-32.6265
 546	1	3	-0.048223	-4.26866	-20.2375	-32.6777
 547	1	3	-0.138147	-2.94297	-19.8468	-30.2601
 548	1	3	-0.114262	-3.99405	-20.7875	-30.3324
 549	1	3	-0.063397	-4.64134	-20.9605	-31.5634
 550	1	2	0.489233	-5.71952	-21.905	-31.9675
 551	1	1	-0.081676	-5.92352	-21.6912	-33.3262
 552	1	2	0.489742	-5.09851	-20.6921	-33.8267
 553	1	3	0.047265	-6.83189	-22.4427	-34.1254
 554	1	3	-0.183349	-6.80588	-23.8474	-34.0983
 555	1	3	-0.091111	-7.68995	-24.5953	-34.8941
 556	1	3	-0.18836	-7.76246	-21.799	-34.9603
 557	1	3	-0.138837	-8.64976	-22.5478	-35.7549
 558	1	3	0.044906	-8.61754	-23.96	-35.748
 559	1	6	0.157291	-6.10283	-24.3659	-33.4514
 560	1	6	0.112962	-7.64977	-25.677	-34.8296
 561	1	6	0.163228	-4.27975	-21.3866	-29.4693
 562	1	6	0.134491	-2.39923	-19.7421	-29.3243
 563	1	6	0.172124	-2.93734	-18.7609	-33.5285
 564	1	5	-0.48162	-5.02846	-20.2779	-34.9707
 565	1	5	-0.478641	-6.26788	-22.7185	-31.2439
 566	1	5	-0.498568	-0.744323	-17.9586	-32.3885
 567	1	6	0.153588	-7.798	-20.7129	-34.9991
 568	1	6	0.146442	-9.36578	-22.0165	-36.3762
 569	1	7	0.027303	-9.61731	-24.7839	-36.5894
 570	1	7	-0.256739	-9.02373	-26.1326	-37.085
 571	1	8	0.074408	-9.7094	-26.6237	-37.7884
 572	1	8	0.075653	-8.8516	-26.8343	-36.2601
 573	1	8	0.063017	-8.07035	-25.974	-37.6051
 574	1	7	-0.003396	-10.924	-25.0351	-35.769
 575	1	7	0.23166	-12.1427	-24.4602	-36.561
 576	1	8	0.003166	-10.8493	-24.5555	-34.7836
 577	1	8	0.018046	-11.0598	-26.1059	-35.5668
 578	1	3	0.065056	-11.5022	-23.8564	-37.7993
 579	1	7	-0.138879	-12.8783	-23.3788	-35.7327
 580	1	7	-0.25744	-13.1314	-25.5872	-36.948
 581	1	3	0.018858	-10.1245	-24.0268	-37.8065
 582	1	8	0.063111	-13.5336	-26.0809	-36.0543
 583	1	8	0.056661	-12.6337	-26.3473	-37.5637
 584	1	8	0.052049	-13.9758	-25.1883	-37.5237
 585	1	3	-0.499719	-12.1566	-23.2119	-38.8667
 586	1	3	-0.078325	-9.35394	-23.5588	-38.8816
 587	1	3	-0.430686	-10.0005	-22.9127	-39.9537
 588	1	3	0.29919	-11.404	-22.7358	-39.9643
 589	1	6	0.134637	-8.27532	-23.7006	-38.8839
 590	1	8	0.0139	-13.7143	-22.9487	-36.2984
 591	1	8	0.03702	-12.1967	-22.5614	-35.4642
 592	1	8	0.035416	-13.2812	-23.8041	-34.8046
 593	1	6	0.223374	-13.2363	-23.0943	-38.8488
 594	1	6	0.198405	-9.40711	-22.5494	-40.7889
 595	1	1	0.464138	21.7406	-9.9812	-24.1589
 596	1	2	0.077422	21.0327	-11.1675	-23.9341
 597	1	3	0.04486	19.6129	-10.843	-24.2198
 598	1	2	0.055008	20.9021	-8.93871	-24.5704
 599	1	3	-0.004417	19.5328	-9.51503	-24.5862
 600	1	5	-0.392499	21.4444	-12.2426	-23.528
 601	1	5	-0.37854	21.1919	-7.78863	-24.8578
 602	1	3	-0.044101	18.4754	-11.6566	-24.1511
 603	1	3	-0.056346	18.3058	-8.91563	-24.8918
 604	1	3	-0.157726	17.1421	-9.7106	-24.8127
 605	1	3	-0.13238	17.2158	-11.0809	-24.4406
 606	1	6	0.167375	18.5697	-12.7064	-23.8766
 607	1	6	0.161059	18.2621	-7.86886	-25.1857
 608	1	6	0.140064	16.1839	-9.26383	-25.071
 609	1	2	0.57844	15.9876	-11.9557	-24.411
 610	1	3	-0.037172	14.6492	-11.3509	-24.0734
 611	1	3	-0.116011	13.4901	-11.8047	-24.7464
 612	1	3	-0.048223	12.2566	-11.2261	-24.4152
 613	1	3	-0.138147	14.5311	-10.3584	-23.0644
 614	1	3	-0.114262	13.2765	-9.80597	-22.7323
 615	1	3	-0.063397	12.1531	-10.2605	-23.435
 616	1	2	0.489233	10.7294	-9.84091	-23.3476
 617	1	1	-0.081676	10.0549	-10.565	-24.3269
 618	1	2	0.489742	10.9036	-11.4418	-24.9965
 619	1	3	0.047265	8.67725	-10.3768	-24.6537
 620	1	3	-0.183349	8.13139	-9.08155	-24.7123
 621	1	3	-0.091111	6.78072	-8.88627	-25.0413
 622	1	3	-0.18836	7.84156	-11.4701	-24.9507
 623	1	3	-0.138837	6.49122	-11.2732	-25.2948
 624	1	3	0.044906	5.93608	-9.9753	-25.3373
 625	1	6	0.157291	8.75044	-8.21511	-24.4953
 626	1	6	0.112962	6.389	-7.87366	-25.0681
 627	1	6	0.163228	13.1774	-9.04502	-21.9598
 628	1	6	0.134491	15.4143	-10.026	-22.523