pySIMM System Object

2312 atoms
2556 bonds
4515 angles
7241 dihedrals
735 impropers

8 atom types
10 bond types
17 angle types
9 dihedral types
4 improper types

-198.335817 198.335817 xlo xhi
-198.335817 198.335817 ylo yhi
-198.335817 198.335817 zlo zhi

Masses

   1	14.01	# n
   2	12.01	# c
   3	12.01	# ca
   4	1.008	# hn
   5	16.0	# o
   6	1.008	# ha
   7	12.01	# c3
   8	1.008	# hc

Pair Coeffs

   1	0.17	3.249998523775958	# n
   2	0.086	3.3996695084235347	# c
   3	0.086	3.3996695084235347	# ca
   4	0.0157	1.069078461768407	# hn
   5	0.21	2.959921901149463	# o
   6	0.015	2.59964245953351	# ha
   7	0.1094	3.3996695084235347	# c3
   8	0.0157	2.649532787749369	# hc

Bond Coeffs

   1	427.6	1.3789	# c,n
   2	461.1	1.3984	# ca,ca
   3	345.9	1.4906	# c,ca
   4	300.9	1.5375	# c3,c3
   5	345.8	1.086	# ca,ha
   6	384.2	1.4121	# ca,n
   7	637.7	1.2183	# c,o
   8	321.0	1.5156	# c3,ca
   9	330.6	1.0969	# c3,hc
  10	403.2	1.0129	# hn,n

Angle Coeffs

   1	63.82	123.71	# c,n,ca
   2	67.87	120.19	# ca,ca,n
   3	67.68	115.25	# ca,c,n
   4	63.15	112.07	# c3,c3,ca
   5	63.0	118.11	# ca,c,ca
   6	63.56	112.24	# ca,c3,ca
   7	46.34	109.8	# c3,c3,hc
   8	48.33	117.55	# c,n,hn
   9	74.22	123.05	# n,c,o
  10	64.28	120.33	# c,ca,ca
  11	39.4	107.58	# hc,c3,hc
  12	66.62	120.02	# ca,ca,ca
  13	63.53	120.77	# c3,ca,ca
  14	62.86	111.51	# c3,c3,c3
  15	63.74	127.08	# c,n,c
  16	48.18	119.88	# ca,ca,ha
  17	68.72	122.6	# ca,c,o

Dihedral Coeffs

   1	2	2.5	2	180	2.0	1	0	# hn,n,c,o
   2	1	3.625	2	180	# X,ca,ca,X
   3	1	0.16	3	0	# hc,c3,c3,c3
   4	1	1.0	2	180	# X,c,ca,X
   5	1	0.15555555555555556	3	0	# X,c3,c3,X
   6	1	0.0	2	0	# X,c3,ca,X
   7	3	0.18	3	0	0.25	2	180	0.2	1	180	# c3,c3,c3,c3
   8	1	2.5	2	180	# X,c,n,X
   9	1	0.45	2	180	# X,ca,n,X

Improper Coeffs

   1	1.1	-1	2	# ca,ca,ca,c3
   2	1.1	-1	2	# n,X,X,hn
   3	1.1	-1	2	# ca,X,X,ha
   4	10.5	-1	2	# c,X,X,o

Atoms

   1	1	1	0.464138	95.83	136.387	8.81274
   2	1	2	0.077422	95.5349	136.634	10.1539
   3	1	3	0.04486	96.7393	136.2	10.9021
   4	1	2	0.055008	97.0967	135.828	8.63428
   5	1	3	-0.004417	97.6664	135.714	10.0017
   6	1	5	-0.392499	94.5224	137.112	10.6403
   7	1	5	-0.37854	97.6452	135.501	7.59476
   8	1	3	-0.044101	97.0045	136.262	12.2737
   9	1	3	-0.056346	98.9161	135.25	10.4243
  10	1	3	-0.157726	99.2024	135.292	11.8055
  11	1	3	-0.13238	98.2542	135.786	12.7416
  12	1	6	0.167375	96.2612	136.697	12.9374
  13	1	6	0.161059	99.6423	134.881	9.70255
  14	1	6	0.140064	100.175	134.949	12.1554
  15	1	2	0.57844	98.6211	135.868	14.2048
  16	1	3	-0.037172	97.5325	135.981	15.2415
  17	1	3	-0.116011	97.717	136.851	16.3407
  18	1	3	-0.048223	96.6897	136.955	17.2874
  19	1	3	-0.138147	96.3418	135.21	15.1495
  20	1	3	-0.114262	95.3243	135.325	16.1198
  21	1	3	-0.063397	95.5281	136.217	17.18
  22	1	2	0.489233	94.6564	136.556	18.3369
  23	1	1	-0.081676	95.3589	137.501	19.076
  24	1	2	0.489742	96.5941	137.794	18.5106
  25	1	3	0.047265	94.876	138.097	20.2743
  26	1	3	-0.183349	94.3443	137.304	21.3059
  27	1	3	-0.091111	93.8998	137.894	22.5008
  28	1	3	-0.18836	94.9434	139.489	20.4551
  29	1	3	-0.138837	94.4965	140.08	21.649
  30	1	3	0.044906	93.9698	139.29	22.695
  31	1	6	0.157291	94.2792	136.226	21.1861
  32	1	6	0.112962	93.5098	137.256	23.2878
  33	1	6	0.163228	94.408	134.741	16.0562
  34	1	6	0.134491	96.2093	134.509	14.3287
  35	1	6	0.172124	98.6292	137.437	16.4486
  36	1	5	-0.48162	97.438	138.58	18.9055
  37	1	5	-0.478641	93.5565	136.084	18.5669
  38	1	5	-0.498568	99.7921	135.912	14.5436
  39	1	6	0.153588	95.3624	140.12	19.6745
  40	1	6	0.146442	94.5893	141.157	21.7523
  41	1	7	0.027303	93.5107	139.896	24.0372
  42	1	7	-0.256739	92.0522	139.478	24.3655
  43	1	8	0.074408	91.3789	139.721	23.5341
  44	1	8	0.075653	91.6868	140.0	25.2596
  45	1	8	0.063017	91.9743	138.401	24.5562
  46	1	7	-0.003396	94.4827	139.47	25.1844
  47	1	7	0.23166	95.5168	140.619	25.3896
  48	1	8	0.003166	94.972	138.507	24.9892
  49	1	8	0.018046	93.9056	139.343	26.1101
  50	1	3	0.065056	94.7698	141.811	24.8148
  51	1	7	-0.138879	96.8158	140.354	24.5899
  52	1	7	-0.25744	95.8584	140.803	26.8886
  53	1	3	0.018858	93.6562	141.41	24.0825
  54	1	8	0.063111	94.9594	141.051	27.4672
  55	1	8	0.056661	96.5832	141.614	27.0299
  56	1	8	0.052049	96.2912	139.885	27.3058
  57	1	3	-0.499719	95.092	143.174	24.9496
  58	1	3	-0.078325	92.8227	142.361	23.4695
  59	1	3	-0.430686	93.1422	143.726	23.6042
  60	1	3	0.29919	94.2698	144.134	24.3395
  61	1	6	0.134637	91.9563	142.045	22.8934
  62	1	8	0.0139	96.6082	140.216	23.5222
  63	1	8	0.03702	97.3223	139.451	24.9533
  64	1	8	0.035416	97.512	141.196	24.6876
  65	1	6	0.223374	95.9626	143.489	25.5152
  66	1	6	0.198405	92.5168	144.48	23.136
  67	1	1	0.464138	93.7673	128.063	-9.98407
  68	1	2	0.077422	94.1436	129.391	-9.77553
  69	1	3	0.04486	93.4302	129.809	-8.54296
  70	1	2	0.055008	92.8822	127.597	-9.00912
  71	1	3	-0.004417	92.6789	128.743	-8.08748
  72	1	5	-0.392499	94.909	130.081	-10.4303
  73	1	5	-0.37854	92.3673	126.495	-8.90824
  74	1	3	-0.044101	93.4487	131.034	-7.8689
  75	1	3	-0.056346	91.8869	128.845	-6.93877
  76	1	3	-0.157726	91.8938	130.07	-6.23838
  77	1	3	-0.13238	92.6899	131.162	-6.68224
  78	1	6	0.167375	94.0472	131.86	-8.25095
  79	1	6	0.161059	91.2855	128.001	-6.60773
  80	1	6	0.140064	91.2685	130.174	-5.35358
  81	1	2	0.57844	92.716	132.479	-5.9495
  82	1	3	-0.037172	92.7094	132.515	-4.43844
  83	1	3	-0.116011	92.371	133.725	-3.78514
  84	1	3	-0.048223	92.4179	133.768	-2.38544
  85	1	3	-0.138147	93.1105	131.395	-3.65868
  86	1	3	-0.114262	93.1432	131.459	-2.25047
  87	1	3	-0.063397	92.7866	132.667	-1.64085
  88	1	2	0.489233	92.7714	133.051	-0.205013
  89	1	1	-0.081676	92.4009	134.391	-0.17444
  90	1	2	0.489742	92.16	134.894	-1.44869
  91	1	3	0.047265	92.312	135.167	1.01707
  92	1	3	-0.183349	91.2323	136.043	1.22528
  93	1	3	-0.091111	91.1614	136.824	2.39063
  94	1	3	-0.18836	93.3127	135.082	2.00165
  95	1	3	-0.138837	93.2377	135.857	3.17116
  96	1	3	0.044906	92.1612	136.746	3.38182
  97	1	6	0.157291	90.4485	136.133	0.477551
  98	1	6	0.112962	90.3185	137.496	2.52225
  99	1	6	0.163228	93.4607	130.608	-1.64915
 100	1	6	0.134491	93.4322	130.475	-4.14015
 101	1	6	0.172124	92.0973	134.614	-4.35198
 102	1	5	-0.48162	91.8242	136.022	-1.76415
 103	1	5	-0.478641	93.0456	132.319	0.730425
 104	1	5	-0.498568	92.8021	133.515	-6.58681
 105	1	6	0.153588	94.1558	134.409	1.86707
 106	1	6	0.146442	94.0278	135.749	3.90749
 107	1	7	0.027303	92.0451	137.624	4.64454
 108	1	7	-0.256739	92.0002	139.126	4.25952
 109	1	8	0.074408	91.0917	139.37	3.69549
 110	1	8	0.075653	92.8629	139.397	3.63747
 111	1	8	0.063017	92.0178	139.763	5.1542
 112	1	7	-0.003396	90.7837	137.226	5.47782
 113	1	7	0.23166	91.2419	136.255	6.60741
 114	1	8	0.003166	89.9851	136.791	4.86318
 115	1	8	0.018046	90.3624	138.13	5.93772
 116	1	3	0.065056	92.7132	136.608	6.73629
 117	1	7	-0.138879	91.0803	134.777	6.17497
 118	1	7	-0.25744	90.453	136.507	7.91587
 119	1	3	0.018858	93.1524	137.364	5.65692
 120	1	8	0.063111	90.7758	135.821	8.70904
 121	1	8	0.056661	89.3773	136.358	7.75762
 122	1	8	0.052049	90.6073	137.532	8.27506
 123	1	3	-0.499719	93.5875	136.264	7.78222
 124	1	3	-0.078325	94.4836	137.804	5.59071
 125	1	3	-0.430686	95.3655	137.46	6.6336
 126	1	3	0.29919	94.9327	136.694	7.74269
 127	1	6	0.134637	94.8275	138.391	4.74234
 128	1	8	0.0139	91.6283	134.571	5.24757
 129	1	8	0.03702	90.0245	134.532	6.00493
 130	1	8	0.035416	91.4658	134.101	6.94818
 131	1	6	0.223374	93.2196	135.691	8.62918
 132	1	6	0.198405	96.4016	137.788	6.57816
 133	1	1	0.464138	84.9857	113.685	-22.6538
 134	1	2	0.077422	85.7974	113.297	-21.5844
 135	1	3	0.04486	86.4493	114.545	-21.1131
 136	1	2	0.055008	85.0332	115.063	-22.8843
 137	1	3	-0.004417	85.9953	115.595	-21.8865
 138	1	5	-0.392499	86.0039	112.175	-21.1493
 139	1	5	-0.37854	84.4554	115.717	-23.7373
 140	1	3	-0.044101	87.4172	114.733	-20.1191
 141	1	3	-0.056346	86.4885	116.892	-21.7182
 142	1	3	-0.157726	87.4665	117.105	-20.7242
 143	1	3	-0.13238	87.9273	116.037	-19.9053
 144	1	6	0.167375	87.778	113.881	-19.544
 145	1	6	0.161059	86.1443	117.7	-22.3614
 146	1	6	0.140064	87.8902	118.102	-20.6222
 147	1	2	0.57844	89.0156	116.228	-18.8738
 148	1	3	-0.037172	89.283	117.589	-18.2797
 149	1	3	-0.116011	90.6092	117.933	-17.9245
 150	1	3	-0.048223	90.8481	119.2	-17.3742
 151	1	3	-0.138147	88.2319	118.512	-18.0257
 152	1	3	-0.114262	88.4951	119.781	-17.4687
 153	1	3	-0.063397	89.8233	120.098	-17.1595
 154	1	2	0.489233	90.4068	121.337	-16.5794
 155	1	1	-0.081676	91.7743	121.103	-16.4824
 156	1	2	0.489742	92.1196	119.835	-16.9362
 157	1	3	0.047265	92.7114	122.056	-15.9887
 158	1	3	-0.183349	93.9205	122.292	-16.667
 159	1	3	-0.091111	94.8404	123.235	-16.1813
 160	1	3	-0.18836	92.4403	122.788	-14.8187
 161	1	3	-0.138837	93.3587	123.734	-14.3346
 162	1	3	0.044906	94.5791	123.97	-15.0064
 163	1	6	0.157291	94.1556	121.739	-17.5728
 164	1	6	0.112962	95.7634	123.399	-16.7294
 165	1	6	0.163228	87.6962	120.495	-17.2757
 166	1	6	0.134491	87.2025	118.24	-18.2482
 167	1	6	0.172124	91.4324	117.236	-18.0801
 168	1	5	-0.48162	93.2278	119.331	-16.9956
 169	1	5	-0.478641	89.7882	122.344	-16.282
 170	1	5	-0.498568	89.7089	115.278	-18.5469
 171	1	6	0.153588	91.5074	122.632	-14.282
 172	1	6	0.146442	93.098	124.285	-13.4358
 173	1	7	0.027303	95.6106	125.005	-14.5116
 174	1	7	-0.256739	97.0076	124.353	-14.3294
 175	1	8	0.074408	96.945	123.468	-13.6826
 176	1	8	0.075653	97.7126	125.057	-13.8687
 177	1	8	0.063017	97.4348	124.037	-15.289
 178	1	7	-0.003396	95.688	126.216	-15.4973
 179	1	7	0.23166	94.8035	127.364	-14.9224
 180	1	8	0.003166	95.3951	125.946	-16.5202
 181	1	8	0.018046	96.7283	126.563	-15.5555
 182	1	3	0.065056	94.7216	126.989	-13.453
 183	1	7	-0.138879	93.3929	127.357	-15.5597
 184	1	7	-0.25744	95.469	128.746	-15.1395
 185	1	3	0.018858	95.1803	125.698	-13.2276
 186	1	8	0.063111	94.8474	129.551	-14.7291
 187	1	8	0.056661	95.6179	128.945	-16.2082
 188	1	8	0.052049	96.447	128.792	-14.6433
 189	1	3	-0.499719	94.2466	127.782	-12.394
 190	1	3	-0.078325	95.1907	125.162	-11.9311
 191	1	3	-0.430686	94.7193	125.953	-10.8655
 192	1	3	0.29919	94.2415	127.269	-11.0771
 193	1	6	0.134637	95.5411	124.147	-11.7585
 194	1	8	0.0139	92.7548	128.125	-15.1044
 195	1	8	0.03702	92.8993	126.387	-15.422
 196	1	8	0.035416	93.4486	127.558	-16.6369
 197	1	6	0.223374	93.9008	128.794	-12.5901
 198	1	6	0.198405	94.7102	125.533	-9.86172
 199	1	1	0.464138	65.742	106.964	-29.6636
 200	1	2	0.077422	66.0851	107.852	-28.6421
 201	1	3	0.04486	67.546	108.069	-28.7882
 202	1	2	0.055008	66.8338	106.621	-30.4646
 203	1	3	-0.004417	67.9923	107.335	-29.8688
 204	1	5	-0.392499	65.371	108.337	-27.779
 205	1	5	-0.37854	66.8725	105.86	-31.4176
 206	1	3	-0.044101	68.4247	108.808	-27.9886
 207	1	3	-0.056346	69.3488	107.288	-30.2053
 208	1	3	-0.157726	70.2563	108.017	-29.4065
 209	1	3	-0.13238	69.8058	108.795	-28.3025
 210	1	6	0.167375	68.0429	109.353	-27.1268
 211	1	6	0.161059	69.6873	106.676	-31.0387
 212	1	6	0.140064	71.3165	107.935	-29.6318
 213	1	2	0.57844	70.7562	109.531	-27.3836
 214	1	3	-0.037172	72.1777	109.815	-27.8023
 215	1	3	-0.116011	73.2044	109.723	-26.8325
 216	1	3	-0.048223	74.5248	109.972	-27.2289
 217	1	3	-0.138147	72.5028	110.21	-29.1281
 218	1	3	-0.114262	73.8396	110.455	-29.5064
 219	1	3	-0.063397	74.8338	110.316	-28.5297
 220	1	2	0.489233	76.3103	110.462	-28.6301
 221	1	1	-0.081676	76.8048	110.182	-27.3624
 222	1	2	0.489742	75.7937	109.896	-26.4547
 223	1	3	0.047265	78.1905	110.118	-27.0516
 224	1	3	-0.183349	78.729	110.847	-25.9762
 225	1	3	-0.091111	80.1037	110.778	-25.6824
 226	1	3	-0.18836	79.0416	109.306	-27.8182
 227	1	3	-0.138837	80.4102	109.23	-27.519
 228	1	3	0.044906	80.9669	109.97	-26.4554
 229	1	6	0.157291	78.0814	111.469	-25.3633
 230	1	6	0.112962	80.4855	111.361	-24.8507
 231	1	6	0.163228	74.0997	110.742	-30.524
 232	1	6	0.134491	71.7152	110.332	-29.8685
 233	1	6	0.172124	72.9823	109.446	-25.8024
 234	1	5	-0.48162	75.9026	109.595	-25.2789
 235	1	5	-0.478641	76.9375	110.719	-29.6432
 236	1	5	-0.498568	70.3897	109.839	-26.2613
 237	1	6	0.153588	78.6436	108.736	-28.6537
 238	1	6	0.146442	81.046	108.594	-28.1288
 239	1	7	0.027303	82.4813	109.866	-26.186
 240	1	7	-0.256739	82.8579	108.409	-25.8087
 241	1	8	0.074408	83.9181	108.335	-25.5329
 242	1	8	0.075653	82.6806	107.719	-26.6428
 243	1	8	0.063017	82.2637	108.06	-24.9545
 244	1	7	-0.003396	83.2929	110.34	-27.4371
 245	1	7	0.23166	83.692	111.828	-27.2121
 246	1	8	0.003166	82.7545	110.203	-28.3831
 247	1	8	0.018046	84.2083	109.738	-27.5139
 248	1	3	0.065056	83.6833	111.91	-25.6964
 249	1	7	-0.138879	82.6363	112.791	-27.8084
 250	1	7	-0.25744	85.0824	112.132	-27.8231
 251	1	3	0.018858	82.9962	110.842	-25.1324
 252	1	8	0.063111	85.0832	111.939	-28.9031
 253	1	8	0.056661	85.8585	111.508	-27.3629
 254	1	8	0.052049	85.3594	113.183	-27.6692
 255	1	3	-0.499719	84.3171	112.872	-24.8911
 256	1	3	-0.078325	82.9146	110.713	-23.7371
 257	1	3	-0.430686	83.5463	111.676	-22.924
 258	1	3	0.29919	84.2682	112.76	-23.4829
 259	1	6	0.134637	82.3947	109.867	-23.293
 260	1	8	0.0139	82.8952	113.835	-27.5914
 261	1	8	0.03702	81.6406	112.601	-27.3897
 262	1	8	0.035416	82.572	112.677	-28.8978
 263	1	6	0.223374	84.8593	113.69	-25.3577
 264	1	6	0.198405	83.5134	111.554	-21.8434
 265	1	1	0.464138	59.4195	89.8058	-36.8173
 266	1	2	0.077422	59.8488	91.111	-36.5622
 267	1	3	0.04486	60.1447	91.1465	-35.1087
 268	1	2	0.055008	59.4356	89.0056	-35.6715
 269	1	3	-0.004417	59.9013	89.895	-34.5792
 270	1	5	-0.392499	59.9349	92.0557	-37.3304
 271	1	5	-0.37854	59.084	87.8443	-35.5444
 272	1	3	-0.044101	60.5587	92.2158	-34.3073
 273	1	3	-0.056346	60.0732	89.6312	-33.2165
 274	1	3	-0.157726	60.4858	90.695	-32.3881
 275	1	3	-0.13238	60.7043	91.9943	-32.9163
 276	1	6	0.167375	60.7489	93.1868	-34.7602
 277	1	6	0.161059	59.8809	88.6384	-32.8152
 278	1	6	0.140064	60.6214	90.5181	-31.3218
 279	1	2	0.57844	61.1114	93.1119	-31.9903
 280	1	3	-0.037172	60.5737	94.5069	-32.2113
 281	1	3	-0.116011	61.2559	95.6034	-31.632
 282	1	3	-0.048223	60.7293	96.8895	-31.8089
 283	1	3	-0.138147	59.3644	94.7403	-32.9242
 284	1	3	-0.114262	58.8568	96.0445	-33.0952
 285	1	3	-0.063397	59.5693	97.1045	-32.5237
 286	1	2	0.489233	59.2634	98.5586	-32.4863
 287	1	1	-0.081676	60.271	99.1376	-31.7231
 288	1	2	0.489742	61.2007	98.1994	-31.2885
 289	1	3	0.047265	60.3173	100.518	-31.3771
 290	1	3	-0.183349	61.523	101.238	-31.449
 291	1	3	-0.091111	61.577	102.587	-31.0583
 292	1	3	-0.18836	59.162	101.176	-30.9205
 293	1	3	-0.138837	59.215	102.525	-30.5336
 294	1	3	0.044906	60.4226	103.25	-30.5865
 295	1	6	0.157291	62.4324	100.747	-31.786
 296	1	6	0.112962	62.5349	103.095	-31.1059
 297	1	6	0.163228	57.9272	96.2282	-33.6314
 298	1	6	0.134491	58.7902	93.9088	-33.3244
 299	1	6	0.172124	62.1632	95.4584	-31.0459
 300	1	5	-0.48162	62.1885	98.3777	-30.5973
 301	1	5	-0.478641	58.2991	99.0981	-33.0014
 302	1	5	-0.498568	61.8446	92.8779	-31.0437
 303	1	6	0.153588	58.218	100.641	-30.8558
 304	1	6	0.146442	58.3102	103.004	-30.171
 305	1	7	0.027303	60.4478	104.711	-30.0939
 306	1	7	-0.256739	59.4327	105.577	-30.8863
 307	1	8	0.074408	59.6072	105.494	-31.9665
 308	1	8	0.075653	59.5217	106.637	-30.6115
 309	1	8	0.063017	58.399	105.269	-30.6886
 310	1	7	-0.003396	60.1512	104.768	-28.5599
 311	1	7	0.23166	61.5168	104.813	-27.8103
 312	1	8	0.003166	59.5209	103.939	-28.2142
 313	1	8	0.018046	59.5969	105.691	-28.3399
 314	1	3	0.065056	62.4309	105.379	-28.8831
 315	1	7	-0.138879	61.9802	103.394	-27.3973
 316	1	7	-0.25744	61.439	105.719	-26.5573
 317	1	3	0.018858	61.8371	105.333	-30.1382
 318	1	8	0.063111	62.4025	105.751	-26.0338
 319	1	8	0.056661	60.6841	105.348	-25.8531
 320	1	8	0.052049	61.173	106.748	-26.8331
 321	1	3	-0.499719	63.7211	105.909	-28.713
 322	1	3	-0.078325	62.5149	105.827	-31.2637
 323	1	3	-0.430686	63.8074	106.364	-31.0986
 324	1	3	0.29919	64.4281	106.417	-29.8264
 325	1	6	0.134637	62.0517	105.784	-32.2467
 326	1	8	0.0139	62.0463	102.725	-28.2635
 327	1	8	0.03702	61.2816	102.947	-26.679
 328	1	8	0.035416	62.9715	103.43	-26.9284
 329	1	6	0.223374	64.1622	105.945	-27.7201
 330	1	6	0.198405	64.3418	106.732	-31.9716
 331	1	1	0.464138	44.1319	81.0815	-39.1311
 332	1	2	0.077422	44.9936	80.2251	-38.4381
 333	1	3	0.04486	46.2457	80.1916	-39.2424
 334	1	2	0.055008	44.707	81.5742	-40.3063
 335	1	3	-0.004417	46.0706	80.9958	-40.351
 336	1	5	-0.392499	44.8093	79.6541	-37.3751
 337	1	5	-0.37854	44.2501	82.373	-41.1079
 338	1	3	-0.044101	47.4629	79.5403	-38.9996
 339	1	3	-0.056346	47.0906	81.1921	-41.2865
 340	1	3	-0.157726	48.3243	80.5498	-41.0614
 341	1	3	-0.13238	48.5288	79.7396	-39.9113
 342	1	6	0.167375	47.5827	78.9141	-38.1166
 343	1	6	0.161059	46.9278	81.8276	-42.1548
 344	1	6	0.140064	49.1202	80.6788	-41.7922
 345	1	2	0.57844	49.8519	79.0589	-39.6609
 346	1	3	-0.037172	51.131	79.7331	-40.0993
 347	1	3	-0.116011	51.2397	81.1454	-40.119
 348	1	3	-0.048223	52.4547	81.7165	-40.5188
 349	1	3	-0.138147	52.2598	78.9459	-40.4492
 350	1	3	-0.114262	53.4748	79.5433	-40.8486
 351	1	3	-0.063397	53.5392	80.9426	-40.8776
 352	1	2	0.489233	54.6626	81.8558	-41.227
 353	1	1	-0.081676	54.1735	83.1449	-41.0446
 354	1	2	0.489742	52.8493	83.1447	-40.6234
 355	1	3	0.047265	54.9357	84.3309	-41.2483
 356	1	3	-0.183349	54.9174	85.3579	-40.2889
 357	1	3	-0.091111	55.6485	86.5383	-40.4929
 358	1	3	-0.18836	55.7055	84.5057	-42.4124
 359	1	3	-0.138837	56.44	85.6883	-42.6162
 360	1	3	0.044906	56.4239	86.7245	-41.6568
 361	1	6	0.157291	54.3265	85.2502	-39.3829
 362	1	6	0.112962	55.6062	87.3169	-39.7361
 363	1	6	0.163228	54.3414	78.9414	-41.1171
 364	1	6	0.134491	52.1883	77.8602	-40.4096
 365	1	6	0.172124	50.4166	81.7893	-39.8143
 366	1	5	-0.48162	52.1308	84.0999	-40.3837
 367	1	5	-0.478641	55.7754	81.5176	-41.5918
 368	1	5	-0.498568	49.883	77.9825	-39.0881
 369	1	6	0.153588	55.7385	83.721	-43.1644
 370	1	6	0.146442	57.0194	85.7847	-43.5283
 371	1	7	0.027303	57.2061	88.043	-41.8364
 372	1	7	-0.256739	58.2524	88.0098	-42.9834
 373	1	8	0.074408	58.834	88.9402	-43.0095
 374	1	8	0.075653	57.77	87.8963	-43.9624
 375	1	8	0.063017	58.9603	87.1822	-42.847
 376	1	7	-0.003396	56.2247	89.2447	-42.0392
 377	1	7	0.23166	56.594	90.3705	-41.0201
 378	1	8	0.003166	55.1928	88.9127	-41.8636
 379	1	8	0.018046	56.2454	89.6155	-43.0725
 380	1	3	0.065056	57.5589	89.6695	-40.0794
 381	1	7	-0.138879	55.3369	90.8812	-40.2737
 382	1	7	-0.25744	57.297	91.5537	-41.7288
 383	1	3	0.018858	57.9122	88.4112	-40.5446
 384	1	8	0.063111	58.1948	91.2159	-42.261
 385	1	8	0.056661	57.6065	92.3154	-41.002
 386	1	8	0.052049	56.6278	92.0306	-42.4561
 387	1	3	-0.499719	58.064	90.1547	-38.8598
 388	1	3	-0.078325	58.795	87.6023	-39.8161
 389	1	3	-0.430686	59.3052	88.0824	-38.5949
 390	1	3	0.29919	58.9427	89.3556	-38.0917
 391	1	6	0.134637	59.0576	86.6112	-40.1799
 392	1	8	0.0139	54.6046	91.2953	-40.9785
 393	1	8	0.03702	55.597	91.6693	-39.5563
 394	1	8	0.035416	54.8532	90.067	-39.7189
 395	1	6	0.223374	57.7757	91.144	-38.5135
 396	1	6	0.198405	59.9656	87.4417	-38.0142
 397	1	1	0.464138	24.8763	79.0369	-29.391
 398	1	2	0.077422	24.7577	79.2236	-30.7719
 399	1	3	0.04486	26.1445	79.4366	-31.2619
 400	1	2	0.055008	26.2038	79.1082	-28.9588
 401	1	3	-0.004417	27.002	79.3681	-30.1824
 402	1	5	-0.392499	23.7487	79.2312	-31.4586
 403	1	5	-0.37854	26.6514	78.9766	-27.8311
 404	1	3	-0.044101	26.6159	79.6856	-32.5576
 405	1	3	-0.056346	28.3796	79.553	-30.3302
 406	1	3	-0.157726	28.878	79.8045	-31.6251
 407	1	3	-0.13238	28.0089	79.856	-32.7506
 408	1	6	0.167375	25.916	79.7498	-33.3897
 409	1	6	0.161059	29.0365	79.5163	-29.4635
 410	1	6	0.140064	29.9441	79.9858	-31.7409
 411	1	2	0.57844	28.5252	80.1605	-34.138
 412	1	3	-0.037172	29.982	79.9391	-34.4595
 413	1	3	-0.116011	30.675	80.904	-35.2269
 414	1	3	-0.048223	32.0442	80.7126	-35.4597
 415	1	3	-0.138147	30.6698	78.783	-34.0024
 416	1	3	-0.114262	32.0464	78.6073	-34.2561
 417	1	3	-0.063397	32.7125	79.604	-34.981
 418	1	2	0.489233	34.1555	79.7508	-35.3161
 419	1	1	-0.081676	34.2728	80.9785	-35.9583
 420	1	2	0.489742	33.0378	81.6001	-36.1193
 421	1	3	0.047265	35.5178	81.5887	-36.2942
 422	1	3	-0.183349	35.7437	82.9355	-35.9627
 423	1	3	-0.091111	36.9664	83.5503	-36.264
 424	1	3	-0.18836	36.5513	80.8661	-36.922
 425	1	3	-0.138837	37.7837	81.4828	-37.219
 426	1	3	0.044906	38.0067	82.8384	-36.8935
 427	1	6	0.157291	34.9687	83.5183	-35.4719
 428	1	6	0.112962	37.1052	84.5942	-35.9987
 429	1	6	0.163228	32.5868	77.7384	-33.884
 430	1	6	0.134491	30.1353	78.022	-33.4377
 431	1	6	0.172124	30.1707	81.7972	-35.5948
 432	1	5	-0.48162	32.7995	82.6887	-36.6135
 433	1	5	-0.478641	35.0431	78.9787	-34.9974
 434	1	5	-0.498568	27.781	80.6455	-34.9739
 435	1	6	0.153588	36.4055	79.8178	-37.1718
 436	1	6	0.146442	38.5617	80.8948	-37.6971
 437	1	7	0.027303	39.3235	83.5771	-37.2002
 438	1	7	-0.256739	39.0458	84.7791	-38.1445
 439	1	8	0.074408	38.4236	85.5407	-37.6594
 440	1	8	0.075653	38.5245	84.4507	-39.0526
 441	1	8	0.063017	39.9823	85.2629	-38.452
 442	1	7	-0.003396	40.0009	84.0683	-35.8777
 443	1	7	0.23166	41.1405	83.0699	-35.5209
 444	1	8	0.003166	39.2923	84.1877	-35.0483
 445	1	8	0.018046	40.4423	85.0592	-36.0503
 446	1	3	0.065056	41.4677	82.4916	-36.8864
 447	1	7	-0.138879	40.628	81.954	-34.5782
 448	1	7	-0.25744	42.3386	83.7998	-34.8645
 449	1	3	0.018858	40.4322	82.7103	-37.788
 450	1	8	0.063111	43.1335	83.0919	-34.5989
 451	1	8	0.056661	42.0254	84.313	-33.9466
 452	1	8	0.052049	42.7645	84.5473	-35.5457
 453	1	3	-0.499719	42.6755	81.8981	-37.2981
 454	1	3	-0.078325	40.5546	82.286	-39.1193
 455	1	3	-0.430686	41.7578	81.6828	-39.535
 456	1	3	0.29919	42.8506	81.515	-38.6482
 457	1	6	0.134637	39.7556	82.4762	-39.8323
 458	1	8	0.0139	40.3085	82.3696	-33.6141
 459	1	8	0.03702	41.4164	81.2156	-34.3855
 460	1	8	0.035416	39.774	81.4232	-35.0168
 461	1	6	0.223374	43.4894	81.7818	-36.5868
 462	1	6	0.198405	41.8721	81.4139	-40.5829
 463	1	1	0.464138	13.4868	66.0148	-18.4113
 464	1	2	0.077422	14.4681	65.4719	-19.2378
 465	1	3	0.04486	15.4873	66.5444	-19.3839
 466	1	2	0.055008	13.7681	67.3242	-18.0238
 467	1	3	-0.004417	15.066	67.6492	-18.6694
 468	1	5	-0.392499	14.5074	64.3603	-19.7391
 469	1	5	-0.37854	13.1156	68.0594	-17.3013
 470	1	3	-0.044101	16.7104	66.5374	-20.065
 471	1	3	-0.056346	15.8352	68.8162	-18.6077
 472	1	3	-0.157726	17.0689	68.8352	-19.2932
 473	1	3	-0.13238	17.5168	67.7018	-20.0264
 474	1	6	0.167375	17.0322	65.6409	-20.5934
 475	1	6	0.161059	15.4932	69.6702	-18.0264
 476	1	6	0.140064	17.6925	69.7229	-19.2143
 477	1	2	0.57844	18.8751	67.6636	-20.6859
 478	1	3	-0.037172	19.5914	68.942	-21.0457
 479	1	3	-0.116011	18.9069	70.0296	-21.6428
 480	1	3	-0.048223	19.6519	71.159	-22.0176
 481	1	3	-0.138147	20.9957	69.0207	-20.8562
 482	1	3	-0.114262	21.7217	70.1703	-21.2285
 483	1	3	-0.063397	21.0155	71.2283	-21.8124
 484	1	2	0.489233	21.5055	72.5222	-22.3576
 485	1	1	-0.081676	20.3886	73.1591	-22.8869
 486	1	2	0.489742	19.2307	72.4075	-22.7103
 487	1	3	0.047265	20.4327	74.4122	-23.5671
 488	1	3	-0.183349	19.47	75.4045	-23.3114
 489	1	3	-0.091111	19.4998	76.6253	-24.0067
 490	1	3	-0.18836	21.4339	74.6753	-24.5202
 491	1	3	-0.138837	21.4651	75.8976	-25.2141
 492	1	3	0.044906	20.4875	76.8891	-24.9787
 493	1	6	0.157291	18.6845	75.2278	-22.5812
 494	1	6	0.112962	18.741	77.3705	-23.7882
 495	1	6	0.163228	22.8004	70.23	-21.0931
 496	1	6	0.134491	21.5259	68.1734	-20.4245
 497	1	6	0.172124	17.8389	69.9866	-21.85
 498	1	5	-0.48162	18.0942	72.6776	-23.0588
 499	1	5	-0.478641	22.6612	72.9094	-22.3453
 500	1	5	-0.498568	19.4153	66.589	-20.8909
 501	1	6	0.153588	22.1978	73.93	-24.7286
 502	1	6	0.146442	22.261	76.0586	-25.9351
 503	1	7	0.027303	20.4695	78.2319	-25.7397
 504	1	7	-0.256739	19.0825	78.4746	-26.3951
 505	1	8	0.074408	19.1018	79.3672	-27.0343
 506	1	8	0.075653	18.2984	78.624	-25.6433
 507	1	8	0.063017	18.7908	77.6212	-27.0204
 508	1	7	-0.003396	20.8431	79.4117	-24.785
 509	1	7	0.23166	22.3419	79.7724	-25.0223
 510	1	8	0.003166	20.6395	79.1797	-23.7314
 511	1	8	0.018046	20.2236	80.2837	-25.034
 512	1	3	0.065056	22.5888	79.1955	-26.4056
 513	1	7	-0.138879	23.2536	79.0787	-23.9817
 514	1	7	-0.25744	22.5634	81.3047	-24.9741
 515	1	3	0.018858	21.5635	78.3432	-26.793
 516	1	8	0.063111	23.6185	81.5551	-25.1394
 517	1	8	0.056661	22.269	81.7109	-23.9982
 518	1	8	0.052049	21.9718	81.811	-25.7476
 519	1	3	-0.499719	23.688	79.436	-27.2497
 520	1	3	-0.078325	21.6065	77.704	-28.0408
 521	1	3	-0.430686	22.709	77.9342	-28.8868
 522	1	3	0.29919	23.7634	78.8045	-28.5136
 523	1	6	0.134637	20.8011	77.0396	-28.3456
 524	1	8	0.0139	24.3113	79.2819	-24.1924
 525	1	8	0.03702	23.1129	77.9909	-23.9935
 526	1	8	0.035416	23.0352	79.4372	-22.9679
 527	1	6	0.223374	24.4848	80.0971	-26.9178
 528	1	6	0.198405	22.7352	77.4433	-29.8574
 529	1	1	0.464138	6.15263	46.855	-22.2074
 530	1	2	0.077422	5.41418	47.9552	-22.6554
 531	1	3	0.04486	5.94727	49.1211	-21.9004
 532	1	2	0.055008	7.07182	47.2041	-21.2133
 533	1	3	-0.004417	6.93043	48.67	-21.0432
 534	1	5	-0.392499	4.54641	47.9942	-23.5129
 535	1	5	-0.37854	7.89238	46.5012	-20.6458
 536	1	3	-0.044101	5.64278	50.4849	-22.0082
 537	1	3	-0.056346	7.67221	49.5499	-20.2499
 538	1	3	-0.157726	7.38374	50.9264	-20.3419
 539	1	3	-0.13238	6.36022	51.4066	-21.2051
 540	1	6	0.167375	4.88456	50.8196	-22.7148
 541	1	6	0.161059	8.46849	49.1759	-19.6096
 542	1	6	0.140064	7.99007	51.6207	-19.7647
 543	1	2	0.57844	6.08088	52.8843	-21.3581
 544	1	3	-0.037172	6.42358	53.8465	-20.2448
 545	1	3	-0.116011	6.82041	55.1671	-20.5678
 546	1	3	-0.048223	7.12183	56.0518	-19.522
 547	1	3	-0.138147	6.30104	53.471	-18.8795
 548	1	3	-0.114262	6.60662	54.3773	-17.8436
 549	1	3	-0.063397	7.02266	55.6655	-18.2009
 550	1	2	0.489233	7.37152	56.8325	-17.3487
 551	1	1	-0.081676	7.65223	57.8751	-18.225
 552	1	2	0.489742	7.53837	57.4812	-19.5543
 553	1	3	0.047265	7.95765	59.2035	-17.8063
 554	1	3	-0.183349	7.18921	59.8207	-16.8041
 555	1	3	-0.091111	7.46671	61.135	-16.3982
 556	1	3	-0.18836	9.01336	59.9286	-18.3898
 557	1	3	-0.138837	9.29101	61.2477	-17.9834
 558	1	3	0.044906	8.51562	61.8738	-16.9825
 559	1	6	0.157291	6.37055	59.2827	-16.3331
 560	1	6	0.112962	6.85531	61.5829	-15.6205
 561	1	6	0.163228	6.50763	54.0976	-16.7961
 562	1	6	0.134491	5.94626	52.477	-18.6171
 563	1	6	0.172124	6.88857	55.4971	-21.6041
 564	1	5	-0.48162	7.71179	58.1531	-20.5563
 565	1	5	-0.478641	7.37327	56.8489	-16.1296
 566	1	5	-0.498568	5.60305	53.3038	-22.3992
 567	1	6	0.153588	9.61669	59.475	-19.1727
 568	1	6	0.146442	10.1122	61.7737	-18.461
 569	1	7	0.027303	8.75896	63.3244	-16.5179
 570	1	7	-0.256739	7.48432	64.1811	-16.7472
 571	1	8	0.074408	7.67322	65.2373	-16.514
 572	1	8	0.075653	6.65271	63.8454	-16.1159
 573	1	8	0.063017	7.1561	64.1215	-17.7927
 574	1	7	-0.003396	9.18073	63.3601	-15.0124
 575	1	7	0.23166	10.7315	63.4966	-14.9493
 576	1	8	0.003166	8.82461	62.4885	-14.4482
 577	1	8	0.018046	8.72866	64.2406	-14.5363
 578	1	3	0.065056	11.0407	64.1102	-16.3042
 579	1	7	-0.138879	11.4065	62.1093	-14.8219
 580	1	7	-0.25744	11.1659	64.4011	-13.7694
 581	1	3	0.018858	9.96186	63.9921	-17.1732
 582	1	8	0.063111	10.8172	63.9889	-12.8139
 583	1	8	0.056661	10.7514	65.4116	-13.877
 584	1	8	0.052049	12.2582	64.4884	-13.7204
 585	1	3	-0.499719	12.223	64.7624	-16.7009
 586	1	3	-0.078325	10.0359	64.5162	-18.4734
 587	1	3	-0.430686	11.218	65.166	-18.8803
 588	1	3	0.29919	12.317	65.3078	-18.0006
 589	1	6	0.134637	9.18835	64.4286	-19.1495
 590	1	8	0.0139	12.4996	62.2035	-14.8438
 591	1	8	0.03702	11.111	61.4468	-15.6448
 592	1	8	0.035416	11.1269	61.6223	-13.8791
 593	1	6	0.223374	13.048	64.8649	-16.0018
 594	1	6	0.198405	11.2783	65.578	-19.8845
 595	1	1	0.464138	-4.48983	27.9788	-24.4829
 596	1	2	0.077422	-4.88467	29.2693	-24.1149
 597	1	3	0.04486	-3.69076	30.1279	-24.3357
 598	1	2	0.055008	-3.14682	27.9292	-24.8709
 599	1	3	-0.004417	-2.65732	29.3291	-24.7816
 600	1	5	-0.392499	-5.97988	29.6536	-23.737
 601	1	5	-0.37854	-2.50533	26.9774	-25.2856
 602	1	3	-0.044101	-3.54576	31.5173	-24.2222
 603	1	3	-0.056346	-1.41974	29.8721	-25.144
 604	1	3	-0.157726	-1.2489	31.2687	-25.0329
 605	1	3	-0.13238	-2.29969	32.102	-24.5585
 606	1	6	0.167375	-4.388	32.128	-23.9001
 607	1	6	0.161059	-0.629462	29.2307	-25.529
 608	1	6	0.140064	-0.30533	31.7044	-25.3547
 609	1	2	0.57844	-2.15823	33.6069	-24.49
 610	1	3	-0.037172	-0.813012	34.2481	-24.2308
 611	1	3	-0.116011	-0.566479	35.5635	-24.7007
 612	1	3	-0.048223	0.680139	36.1515	-24.4352
 613	1	3	-0.138147	0.188612	33.5832	-23.4727
 614	1	3	-0.114262	1.43619	34.1892	-23.2219
 615	1	3	-0.063397	1.65358	35.4767	-23.7255
 616	1	2	0.489233	2.85106	36.3506	-23.631
 617	1	1	-0.081676	2.52022	37.5193	-24.3018
 618	1	2	0.489742	1.22729	37.489	-24.8079
 619	1	3	0.047265	3.43609	38.591	-24.4777
 620	1	3	-0.183349	4.6333	38.3694	-25.1756
 621	1	3	-0.091111	5.59463	39.386	-25.2767
 622	1	3	-0.18836	3.19787	39.8565	-23.9127
 623	1	3	-0.138837	4.16821	40.874	-24.0058
 624	1	3	0.044906	5.39471	40.6426	-24.668
 625	1	6	0.157291	4.8348	37.3967	-25.6161
 626	1	6	0.112962	6.51538	39.1809	-25.8138
 627	1	6	0.163228	2.20893	33.6824	-22.6463
 628	1	6	0.134491	-0.00348961	32.5968	-23.0577
 629	1	6	0.172124	-1.32362	36.1125	-25.26
 630	1	5	-0.48162	0.654755	38.3515	-25.4502
 631	1	5	-0.478641	3.91005	36.0614	-23.1014
 632	1	5	-0.498568	-3.14425	34.3082	-24.6458
 633	1	6	0.153588	2.26941	40.0451	-23.3795
 634	1	6	0.146442	3.96265	41.8347	-23.5425
 635	1	7	0.027303	6.52537	41.6898	-24.7274
 636	1	7	-0.256739	7.86358	41.0713	-24.2323
 637	1	8	0.074408	8.23696	40.2992	-24.9153
 638	1	8	0.075653	7.74066	40.6131	-23.2426
 639	1	8	0.063017	8.64363	41.8399	-24.1504
 640	1	7	-0.003396	6.69295	42.2496	-26.1778
 641	1	7	0.23166	6.1401	43.7075	-26.2119
 642	1	8	0.003166	6.20199	41.6134	-26.926
 643	1	8	0.018046	7.75901	42.2628	-26.4417
 644	1	3	0.065056	6.10812	44.0758	-24.7391
 645	1	7	-0.138879	4.70874	43.7405	-26.7984
 646	1	7	-0.25744	7.06762	44.638	-27.0332
 647	1	3	0.018858	6.25608	42.9583	-23.929
 648	1	8	0.063111	7.1641	44.2801	-28.0659
 649	1	8	0.056661	8.07117	44.6795	-26.5907
 650	1	8	0.052049	6.67162	45.6605	-27.0672
 651	1	3	-0.499719	6.01813	45.3655	-24.1838
 652	1	3	-0.078325	6.27245	43.0937	-22.5328
 653	1	3	-0.430686	6.17447	44.3817	-21.9707
 654	1	3	0.29919	6.08014	45.5403	-22.7817
 655	1	6	0.134637	6.40754	42.2204	-21.8986
 656	1	8	0.0139	4.29266	44.7552	-26.7561
 657	1	8	0.03702	4.03789	43.0778	-26.2371