pySIMM System Object

3104 atoms
3432 bonds
6063 angles
9725 dihedrals
987 impropers

8 atom types
10 bond types
17 angle types
9 dihedral types
4 improper types

-219.361692 219.361692 xlo xhi
-219.361692 219.361692 ylo yhi
-219.361692 219.361692 zlo zhi

Masses

   1	14.01	# n
   2	12.01	# c
   3	12.01	# ca
   4	1.008	# hn
   5	16.0	# o
   6	1.008	# ha
   7	12.01	# c3
   8	1.008	# hc

Pair Coeffs

   1	0.17	3.249998523775958	# n
   2	0.086	3.3996695084235347	# c
   3	0.086	3.3996695084235347	# ca
   4	0.0157	1.069078461768407	# hn
   5	0.21	2.959921901149463	# o
   6	0.015	2.59964245953351	# ha
   7	0.1094	3.3996695084235347	# c3
   8	0.0157	2.649532787749369	# hc

Bond Coeffs

   1	427.6	1.3789	# c,n
   2	461.1	1.3984	# ca,ca
   3	345.9	1.4906	# c,ca
   4	300.9	1.5375	# c3,c3
   5	345.8	1.086	# ca,ha
   6	384.2	1.4121	# ca,n
   7	637.7	1.2183	# c,o
   8	321.0	1.5156	# c3,ca
   9	330.6	1.0969	# c3,hc
  10	403.2	1.0129	# hn,n

Angle Coeffs

   1	63.82	123.71	# c,n,ca
   2	67.87	120.19	# ca,ca,n
   3	67.68	115.25	# ca,c,n
   4	63.15	112.07	# c3,c3,ca
   5	63.0	118.11	# ca,c,ca
   6	63.56	112.24	# ca,c3,ca
   7	46.34	109.8	# c3,c3,hc
   8	48.33	117.55	# c,n,hn
   9	74.22	123.05	# n,c,o
  10	64.28	120.33	# c,ca,ca
  11	39.4	107.58	# hc,c3,hc
  12	66.62	120.02	# ca,ca,ca
  13	63.53	120.77	# c3,ca,ca
  14	62.86	111.51	# c3,c3,c3
  15	63.74	127.08	# c,n,c
  16	48.18	119.88	# ca,ca,ha
  17	68.72	122.6	# ca,c,o

Dihedral Coeffs

   1	2	2.5	2	180	2.0	1	0	# hn,n,c,o
   2	1	3.625	2	180	# X,ca,ca,X
   3	1	0.16	3	0	# hc,c3,c3,c3
   4	1	1.0	2	180	# X,c,ca,X
   5	1	0.15555555555555556	3	0	# X,c3,c3,X
   6	1	0.0	2	0	# X,c3,ca,X
   7	3	0.18	3	0	0.25	2	180	0.2	1	180	# c3,c3,c3,c3
   8	1	2.5	2	180	# X,c,n,X
   9	1	0.45	2	180	# X,ca,n,X

Improper Coeffs

   1	1.1	-1	2	# ca,ca,ca,c3
   2	1.1	-1	2	# n,X,X,hn
   3	1.1	-1	2	# ca,X,X,ha
   4	10.5	-1	2	# c,X,X,o

Atoms

   1	1	1	0.464138	153.983	66.3047	49.8926
   2	1	2	0.077422	154.291	65.294	48.9798
   3	1	3	0.04486	154.917	65.9879	47.8279
   4	1	2	0.055008	154.352	67.5714	49.4346
   5	1	3	-0.004417	154.951	67.3419	48.0953
   6	1	5	-0.392499	154.097	64.0922	49.0716
   7	1	5	-0.37854	154.209	68.6523	49.9825
   8	1	3	-0.044101	155.425	65.4589	46.6369
   9	1	3	-0.056346	155.498	68.2507	47.1837
  10	1	3	-0.157726	156.01	67.7412	45.9719
  11	1	3	-0.13238	155.966	66.3519	45.6792
  12	1	6	0.167375	155.408	64.3822	46.4826
  13	1	6	0.161059	155.527	69.314	47.4128
  14	1	6	0.140064	156.449	68.4288	45.25
  15	1	2	0.57844	156.549	65.8423	44.3827
  16	1	3	-0.037172	156.038	64.5515	43.792
  17	1	3	-0.116011	156.936	63.7071	43.0972
  18	1	3	-0.048223	156.448	62.5039	42.5697
  19	1	3	-0.138147	154.669	64.1836	43.8944
  20	1	3	-0.114262	154.2	62.9697	43.353
  21	1	3	-0.063397	155.122	62.1442	42.6995
  22	1	2	0.489233	154.935	60.819	42.0533
  23	1	1	-0.081676	156.186	60.4519	41.5703
  24	1	2	0.489742	157.151	61.418	41.8361
  25	1	3	0.047265	156.45	59.2152	40.9134
  26	1	3	-0.183349	155.585	58.733	39.916
  27	1	3	-0.091111	155.826	57.4948	39.2977
  28	1	3	-0.18836	157.571	58.4426	41.2668
  29	1	3	-0.138837	157.815	57.206	40.6462
  30	1	3	0.044906	156.938	56.7046	39.6591
  31	1	6	0.157291	154.71	59.3101	39.6261
  32	1	6	0.112962	155.138	57.1463	38.5336
  33	1	6	0.163228	153.154	62.6761	43.4345
  34	1	6	0.134491	153.961	64.8461	44.3865
  35	1	6	0.172124	157.987	63.9733	42.9832
  36	1	5	-0.48162	158.339	61.3955	41.5641
  37	1	5	-0.478641	153.889	60.1966	41.994
  38	1	5	-0.498568	157.452	66.4522	43.8346
  39	1	6	0.153588	158.261	58.7991	42.0275
  40	1	6	0.146442	158.697	56.6486	40.9464
  41	1	7	0.027303	157.157	55.3405	38.9729
  42	1	7	-0.256739	155.899	54.4427	39.1195
  43	1	8	0.074408	155.6	54.3564	40.1723
  44	1	8	0.075653	156.093	53.4306	38.7404
  45	1	8	0.063017	155.046	54.8479	38.5608
  46	1	7	-0.003396	157.525	55.5357	37.4674
  47	1	7	0.23166	159.076	55.4414	37.3343
  48	1	8	0.003166	157.134	56.4754	37.0564
  49	1	8	0.018046	157.068	54.7275	36.8809
  50	1	3	0.065056	159.452	54.676	38.5917
  51	1	7	-0.138879	159.721	56.8483	37.3408
  52	1	7	-0.25744	159.481	54.6861	36.0443
  53	1	3	0.018858	158.39	54.6105	39.4867
  54	1	8	0.063111	159.084	53.6628	36.0501
  55	1	8	0.056661	160.572	54.6232	35.9513
  56	1	8	0.052049	159.093	55.1982	35.1545
  57	1	3	-0.499719	160.69	54.0805	38.8977
  58	1	3	-0.078325	158.527	53.9383	40.7127
  59	1	3	-0.430686	159.765	53.3413	41.0221
  60	1	3	0.29919	160.843	53.4096	40.1211
  61	1	6	0.134637	157.696	53.8923	41.4123
  62	1	8	0.0139	159.444	57.4102	38.2409
  63	1	8	0.03702	159.4	57.4297	36.4672
  64	1	8	0.035416	160.816	56.7749	37.3155
  65	1	6	0.223374	161.522	54.1342	38.2031
  66	1	6	0.198405	159.896	52.8208	41.966
  67	1	1	0.464138	139.939	76.6793	61.9429
  68	1	2	0.077422	141.26	76.509	62.3549
  69	1	3	0.04486	141.817	75.4763	61.4473
  70	1	2	0.055008	139.598	75.861	60.8655
  71	1	3	-0.004417	140.828	75.0839	60.5668
  72	1	5	-0.392499	141.856	77.0755	63.2566
  73	1	5	-0.37854	138.531	75.777	60.2806
  74	1	3	-0.044101	143.097	74.9146	61.4121
  75	1	3	-0.056346	141.057	74.0858	59.6139
  76	1	3	-0.157726	142.338	73.4958	59.5664
  77	1	3	-0.13238	143.375	73.9191	60.445
  78	1	6	0.167375	143.852	75.24	62.1268
  79	1	6	0.161059	140.257	73.7682	58.9481
  80	1	6	0.140064	142.51	72.6879	58.8589
  81	1	2	0.57844	144.748	73.2883	60.4478
  82	1	3	-0.037172	145.287	72.5767	59.2298
  83	1	3	-0.116011	146.19	71.5057	59.4216
  84	1	3	-0.048223	146.705	70.8524	58.2956
  85	1	3	-0.138147	144.965	72.9866	57.9067
  86	1	3	-0.114262	145.494	72.3109	56.7857
  87	1	3	-0.063397	146.361	71.2351	57.016
  88	1	2	0.489233	147.072	70.3413	56.0612
  89	1	1	-0.081676	147.813	69.4606	56.8439
  90	1	2	0.489742	147.649	69.7102	58.2022
  91	1	3	0.047265	148.642	68.4233	56.3261
  92	1	3	-0.183349	148.639	67.1466	56.9158
  93	1	3	-0.091111	149.486	66.1353	56.4369
  94	1	3	-0.18836	149.495	68.6584	55.2323
  95	1	3	-0.138837	150.336	67.6423	54.7461
  96	1	3	0.044906	150.354	66.3652	55.35
  97	1	6	0.157291	147.992	66.9362	57.7634
  98	1	6	0.112962	149.471	65.164	56.9223
  99	1	6	0.163228	145.251	72.6171	55.7695
 100	1	6	0.134491	144.318	73.8447	57.7429
 101	1	6	0.172124	146.485	71.1886	60.4217
 102	1	5	-0.48162	148.155	69.1264	59.1456
 103	1	5	-0.478641	146.988	70.3864	54.846
 104	1	5	-0.498568	145.422	73.331	61.4644
 105	1	6	0.153588	149.511	69.6341	54.7524
 106	1	6	0.146442	150.973	67.8681	53.8967
 107	1	7	0.027303	151.283	65.2299	54.8746
 108	1	7	-0.256739	152.219	64.7791	56.0277
 109	1	8	0.074408	151.654	64.3216	56.8493
 110	1	8	0.075653	152.773	65.6329	56.4379
 111	1	8	0.063017	152.951	64.0407	55.6749
 112	1	7	-0.003396	150.45	64.023	54.3332
 113	1	7	0.23166	150.388	64.139	52.7801
 114	1	8	0.003166	149.448	63.9616	54.7783
 115	1	8	0.018046	150.963	63.089	54.5991
 116	1	3	0.065056	151.6	65.0054	52.4869
 117	1	7	-0.138879	149.094	64.8544	52.3238
 118	1	7	-0.25744	150.481	62.745	52.112
 119	1	3	0.018858	152.096	65.5978	53.6415
 120	1	8	0.063111	150.438	62.8278	51.0192
 121	1	8	0.056661	149.653	62.1013	52.4352
 122	1	8	0.052049	151.423	62.247	52.3742
 123	1	3	-0.499719	152.208	65.232	51.2393
 124	1	3	-0.078325	153.227	66.4256	53.5864
 125	1	3	-0.430686	153.841	66.6556	52.34
 126	1	3	0.29919	153.345	66.0661	51.1519
 127	1	6	0.134637	153.613	66.8914	54.4906
 128	1	8	0.0139	149.001	65.8441	52.7878
 129	1	8	0.03702	148.206	64.2694	52.5954
 130	1	8	0.035416	149.089	64.9931	51.2354
 131	1	6	0.223374	151.81	64.7494	50.35
 132	1	6	0.198405	154.708	67.3115	52.2922
 133	1	1	0.464138	119.182	80.4401	65.4246
 134	1	2	0.077422	119.811	80.7591	64.2192
 135	1	3	0.04486	121.25	80.4728	64.442
 136	1	2	0.055008	120.077	79.9575	66.3831
 137	1	3	-0.004417	121.409	79.995	65.7272
 138	1	5	-0.392499	119.325	81.224	63.2011
 139	1	5	-0.37854	119.854	79.6006	67.5285
 140	1	3	-0.044101	122.344	80.6692	63.5916
 141	1	3	-0.056346	122.673	79.6859	66.2394
 142	1	3	-0.157726	123.792	79.8746	65.4003
 143	1	3	-0.13238	123.638	80.3557	64.0697
 144	1	6	0.167375	122.19	81.076	62.593
 145	1	6	0.161059	122.782	79.3377	67.2645
 146	1	6	0.140064	124.781	79.68	65.8075
 147	1	2	0.57844	124.824	80.6335	63.1765
 148	1	3	-0.037172	126.158	79.9974	63.4674
 149	1	3	-0.116011	127.33	80.7728	63.317
 150	1	3	-0.048223	128.565	80.1748	63.5981
 151	1	3	-0.138147	126.263	78.634	63.8533
 152	1	3	-0.114262	127.519	78.0486	64.1188
 153	1	3	-0.063397	128.658	78.8532	63.9868
 154	1	2	0.489233	130.094	78.5398	64.2173
 155	1	1	-0.081676	130.781	79.7212	63.9681
 156	1	2	0.489742	129.934	80.7505	63.5781
 157	1	3	0.047265	132.185	79.8762	64.13
 158	1	3	-0.183349	132.694	80.9357	64.899
 159	1	3	-0.091111	134.079	81.101	65.054
 160	1	3	-0.18836	133.082	78.9777	63.5285
 161	1	3	-0.138837	134.47	79.147	63.6783
 162	1	3	0.044906	134.99	80.2206	64.4359
 163	1	6	0.157291	132.016	81.6414	65.3726
 164	1	6	0.112962	134.442	81.925	65.6601
 165	1	6	0.163228	127.609	77.0057	64.4182
 166	1	6	0.134491	125.367	78.0229	63.9364
 167	1	6	0.172124	127.28	81.8156	63.0049
 168	1	5	-0.48162	130.223	81.9058	63.3175
 169	1	5	-0.478641	130.545	77.468	64.5822
 170	1	5	-0.498568	124.718	81.4258	62.2549
 171	1	6	0.153588	132.705	78.1422	62.9432
 172	1	6	0.146442	135.129	78.4279	63.2016
 173	1	7	0.027303	136.505	80.4437	64.6211
 174	1	7	-0.256739	136.899	81.9133	64.3072
 175	1	8	0.074408	136.527	82.2166	63.3204
 176	1	8	0.075653	137.991	82.033	64.3055
 177	1	8	0.063017	136.495	82.6115	65.0498
 178	1	7	-0.003396	136.944	80.0533	66.0692
 179	1	7	0.23166	137.593	78.636	66.0151
 180	1	8	0.003166	136.11	80.0955	66.7831
 181	1	8	0.018046	137.691	80.7746	66.4251
 182	1	3	0.065056	137.961	78.5141	64.5463
 183	1	7	-0.138879	136.57	77.5405	66.4036
 184	1	7	-0.25744	138.829	78.5492	66.9438
 185	1	3	0.018858	137.35	79.4996	63.7817
 186	1	8	0.063111	139.282	77.5508	66.9048
 187	1	8	0.056661	138.55	78.753	67.9853
 188	1	8	0.052049	139.594	79.2769	66.6461
 189	1	3	-0.499719	138.808	77.5621	63.9519
 190	1	3	-0.078325	137.55	79.5541	62.394
 191	1	3	-0.430686	138.393	78.6006	61.7914
 192	1	3	0.29919	139.042	77.6048	62.5592
 193	1	6	0.134637	137.06	80.3207	61.7979
 194	1	8	0.0139	137.009	76.5405	66.2966
 195	1	8	0.03702	135.679	77.5845	65.7659
 196	1	8	0.035416	136.246	77.6583	67.4453
 197	1	6	0.223374	139.303	76.8161	64.5685
 198	1	6	0.198405	138.549	78.6353	60.7155
 199	1	1	0.464138	101.011	69.9892	69.6922
 200	1	2	0.077422	102.309	69.5906	69.3638
 201	1	3	0.04486	103.066	70.8499	69.1618
 202	1	2	0.055008	100.871	71.3785	69.7268
 203	1	3	-0.004417	102.212	71.9142	69.3755
 204	1	5	-0.392499	102.761	68.4609	69.2674
 205	1	5	-0.37854	99.8749	72.0384	69.9746
 206	1	3	-0.044101	104.404	71.0397	68.8012
 207	1	3	-0.056346	102.648	73.2356	69.2276
 208	1	3	-0.157726	103.995	73.453	68.865
 209	1	3	-0.13238	104.887	72.3624	68.6672
 210	1	6	0.167375	105.048	70.1794	68.6261
 211	1	6	0.161059	101.956	74.0626	69.3745
 212	1	6	0.140064	104.334	74.4753	68.7127
 213	1	2	0.57844	106.323	72.564	68.2432
 214	1	3	-0.037172	107.062	73.8263	68.6134
 215	1	3	-0.116011	108.074	74.3061	67.7485
 216	1	3	-0.048223	108.754	75.4795	68.1001
 217	1	3	-0.138147	106.798	74.5154	69.8281
 218	1	3	-0.114262	107.496	75.6947	70.1628
 219	1	3	-0.063397	108.468	76.158	69.2674
 220	1	2	0.489233	109.329	77.369	69.322
 221	1	1	-0.081676	110.085	77.3482	68.1559
 222	1	2	0.489742	109.812	76.2327	67.3742
 223	1	3	0.047265	110.98	78.3844	67.7693
 224	1	3	-0.183349	112.281	78.0885	67.3254
 225	1	3	-0.091111	113.148	79.1164	66.9126
 226	1	3	-0.18836	110.561	79.7249	67.7981
 227	1	3	-0.138837	111.424	80.7503	67.3826
 228	1	3	0.044906	112.729	80.4653	66.9295
 229	1	6	0.157291	112.621	77.0566	67.2858
 230	1	6	0.112962	114.144	78.8456	66.5763
 231	1	6	0.163228	107.291	76.2335	71.0865
 232	1	6	0.134491	106.056	74.1303	70.5241
 233	1	6	0.172124	108.315	73.7876	66.8209
 234	1	5	-0.48162	110.29	75.9358	66.293
 235	1	5	-0.478641	109.317	78.2166	70.198
 236	1	5	-0.498568	106.883	71.7024	67.5856
 237	1	6	0.153588	109.56	79.9762	68.141
 238	1	6	0.146442	111.074	81.7777	67.4127
 239	1	7	0.027303	113.632	81.6256	66.4658
 240	1	7	-0.256739	112.968	82.3853	65.2856
 241	1	8	0.074408	113.644	83.1495	64.8801
 242	1	8	0.075653	112.045	82.8892	65.5973
 243	1	8	0.063017	112.714	81.6957	64.4705
 244	1	7	-0.003396	113.931	82.5997	67.652
 245	1	7	0.23166	115.33	82.2351	68.233
 246	1	8	0.003166	113.152	82.5849	68.4249
 247	1	8	0.018046	113.964	83.628	67.2677
 248	1	3	0.065056	115.979	81.5374	67.0506
 249	1	7	-0.138879	115.203	81.261	69.4291
 250	1	7	-0.25744	116.102	83.5051	68.6701
 251	1	3	0.018858	115.041	81.1909	66.0859
 252	1	8	0.063111	115.544	84.0543	69.4391
 253	1	8	0.056661	116.263	84.1783	67.8183
 254	1	8	0.052049	117.083	83.2464	69.0855
 255	1	3	-0.499719	117.346	81.2738	66.859
 256	1	3	-0.078325	115.445	80.5623	64.8983
 257	1	3	-0.430686	116.814	80.2937	64.7014
 258	1	3	0.29919	117.785	80.653	65.6674
 259	1	6	0.134637	114.713	80.3029	64.1368
 260	1	8	0.0139	116.193	80.9524	69.7877
 261	1	8	0.03702	114.652	80.3553	69.1475
 262	1	8	0.035416	114.672	81.7338	70.2648
 263	1	6	0.223374	118.062	81.5573	67.6264
 264	1	6	0.198405	117.129	79.8334	63.7674
 265	1	1	0.464138	80.662	67.3298	67.3125
 266	1	2	0.077422	81.855	67.5934	67.992
 267	1	3	0.04486	82.8933	67.7025	66.9337
 268	1	2	0.055008	80.8378	67.2664	65.9298
 269	1	3	-0.004417	82.2862	67.5009	65.7094
 270	1	5	-0.392499	82.0444	67.6959	69.1934
 271	1	5	-0.37854	80.0074	67.0412	65.065
 272	1	3	-0.044101	84.2684	67.9548	67.0407
 273	1	3	-0.056346	83.0149	67.5366	64.5178
 274	1	3	-0.157726	84.4018	67.7706	64.6031
 275	1	3	-0.13238	85.0461	67.9597	65.8552
 276	1	6	0.167375	84.705	68.1475	68.0183
 277	1	6	0.161059	82.5199	67.3861	63.5606
 278	1	6	0.140064	84.9888	67.8058	63.6862
 279	1	2	0.57844	86.5341	68.2277	65.8657
 280	1	3	-0.037172	87.4397	67.6742	66.9483
 281	1	3	-0.116011	88.7841	68.123	66.9948
 282	1	3	-0.048223	89.6517	67.5709	67.9464
 283	1	3	-0.138147	87.025	66.6587	67.8556
 284	1	3	-0.114262	87.9092	66.1353	68.8226
 285	1	3	-0.063397	89.2233	66.6175	68.8437
 286	1	2	0.489233	90.3884	66.2013	69.6683
 287	1	1	-0.081676	91.4819	66.9116	69.1768
 288	1	2	0.489742	91.1104	67.7791	68.1526
 289	1	3	0.047265	92.8316	66.7082	69.6037
 290	1	3	-0.183349	93.7389	67.7813	69.7048
 291	1	3	-0.091111	95.0808	67.562	70.0685
 292	1	3	-0.18836	93.2969	65.4126	69.8955
 293	1	3	-0.138837	94.629	65.197	70.2804
 294	1	3	0.044906	95.5492	66.2616	70.3551
 295	1	6	0.157291	93.4142	68.794	69.4796
 296	1	6	0.112962	95.7495	68.4157	70.1125
 297	1	6	0.163228	87.5985	65.3495	69.5095
 298	1	6	0.134491	86.0279	66.2338	67.7972
 299	1	6	0.172124	89.1584	68.8597	66.2841
 300	1	5	-0.48162	91.8199	68.5165	67.4905
 301	1	5	-0.478641	90.3609	65.3688	70.5586
 302	1	5	-0.498568	87.0218	68.8552	64.9393
 303	1	6	0.153588	92.628	64.5589	69.8241
 304	1	6	0.146442	94.9509	64.1852	70.5097
 305	1	7	0.027303	97.0113	65.9649	70.7464
 306	1	7	-0.256739	97.0713	65.4382	72.2044
 307	1	8	0.074408	96.5962	66.1457	72.8955
 308	1	8	0.075653	98.1101	65.2949	72.5297
 309	1	8	0.063017	96.5533	64.4761	72.3028
 310	1	7	-0.003396	97.6506	64.93	69.7604
 311	1	7	0.23166	98.44	65.7236	68.6789
 312	1	8	0.003166	96.922	64.2461	69.3085
 313	1	8	0.018046	98.3569	64.3005	70.3184
 314	1	3	0.065056	98.7509	67.0079	69.4246
 315	1	7	-0.138879	97.5577	66.0214	67.4421
 316	1	7	-0.25744	99.7141	64.9587	68.2421
 317	1	3	0.018858	97.9565	67.1475	70.5567
 318	1	8	0.063111	100.268	65.518	67.4781
 319	1	8	0.056661	99.4558	63.9788	67.8215
 320	1	8	0.052049	100.387	64.7985	69.0942
 321	1	3	-0.499719	99.7403	67.9547	69.1102
 322	1	3	-0.078325	98.1312	68.2491	71.4099
 323	1	3	-0.430686	99.1255	69.2006	71.1023
 324	1	3	0.29919	99.9521	69.0627	69.9602
 325	1	6	0.134637	97.5173	68.3561	72.3011
 326	1	8	0.0139	96.6454	66.5619	67.7225
 327	1	8	0.03702	97.2598	65.0925	66.9399
 328	1	8	0.035416	98.1016	66.6398	66.717
 329	1	6	0.223374	100.373	67.8043	68.2394
 330	1	6	0.198405	99.2656	70.0521	71.7648
 331	1	1	0.464138	67.5284	53.2753	65.7535
 332	1	2	0.077422	67.4305	54.1138	64.6409
 333	1	3	0.04486	67.7601	55.4737	65.1441
 334	1	2	0.055008	67.9038	53.9661	66.909
 335	1	3	-0.004417	68.0457	55.3839	66.4914
 336	1	5	-0.392499	67.1314	53.825	63.4935
 337	1	5	-0.37854	68.0898	53.5305	68.0336
 338	1	3	-0.044101	67.7732	56.7038	64.4753
 339	1	3	-0.056346	68.3668	56.5163	67.2473
 340	1	3	-0.157726	68.3821	57.768	66.5956
 341	1	3	-0.13238	68.0931	57.8755	65.2065
 342	1	6	0.167375	67.5165	56.7474	63.4176
 343	1	6	0.161059	68.5717	56.4263	68.3123
 344	1	6	0.140064	68.5824	58.6555	67.1907
 345	1	2	0.57844	68.0176	59.2103	64.4995
 346	1	3	-0.037172	68.595	60.4542	65.13
 347	1	3	-0.116011	69.8823	60.4604	65.7235
 348	1	3	-0.048223	70.3634	61.6672	66.2566
 349	1	3	-0.138147	67.8496	61.6602	65.0674
 350	1	3	-0.114262	68.3461	62.8578	65.6198
 351	1	3	-0.063397	69.6126	62.8264	66.2144
 352	1	2	0.489233	70.394	63.9131	66.8618
 353	1	1	-0.081676	71.5924	63.333	67.2533
 354	1	2	0.489742	71.6587	61.9859	66.921
 355	1	3	0.047265	72.6139	64.0438	67.9398
 356	1	3	-0.183349	73.8947	64.1923	67.3806
 357	1	3	-0.091111	74.8811	64.946	68.0447
 358	1	3	-0.18836	72.341	64.6354	69.1834
 359	1	3	-0.138837	73.3299	65.375	69.8524
 360	1	3	0.044906	74.6092	65.5629	69.2871
 361	1	6	0.157291	74.1257	63.7319	66.4235
 362	1	6	0.112962	75.8572	65.0436	67.579
 363	1	6	0.163228	67.7731	63.7829	65.5785
 364	1	6	0.134491	66.8732	61.6616	64.5855
 365	1	6	0.172124	70.5011	59.5651	65.7524
 366	1	5	-0.48162	72.5686	61.2038	67.1332
 367	1	5	-0.478641	70.0278	65.064	67.0253
 368	1	5	-0.498568	67.4177	59.2967	63.4406
 369	1	6	0.153588	71.3544	64.5331	69.6282
 370	1	6	0.146442	73.0894	65.8125	70.8159
 371	1	7	0.027303	75.6605	66.4076	70.0405
 372	1	7	-0.256739	75.0499	67.7415	70.5555
 373	1	8	0.074408	75.8316	68.3987	70.959
 374	1	8	0.075653	74.3202	67.5765	71.3569
 375	1	8	0.063017	74.5456	68.281	69.7437
 376	1	7	-0.003396	76.2704	65.5933	71.2269
 377	1	7	0.23166	77.6919	65.104	70.8087
 378	1	8	0.003166	75.6242	64.7587	71.5299
 379	1	8	0.018046	76.3604	66.2459	72.1056
 380	1	3	0.065056	78.0208	66.025	69.6466
 381	1	7	-0.138879	77.6541	63.633	70.329
 382	1	7	-0.25744	78.6999	65.2479	71.9756
 383	1	3	0.018858	76.8988	66.7186	69.2115
 384	1	8	0.063111	78.7892	66.2962	72.2882
 385	1	8	0.056661	79.6975	64.8999	71.6806
 386	1	8	0.052049	78.3792	64.6581	72.8436
 387	1	3	-0.499719	79.273	66.2131	69.0319
 388	1	3	-0.078325	76.9928	67.6215	68.1421
 389	1	3	-0.430686	78.2426	67.8139	67.5214
 390	1	3	0.29919	79.3993	67.1223	67.9568
 391	1	6	0.134637	76.1126	68.1623	67.8014
 392	1	8	0.0139	77.3597	62.9611	71.1452
 393	1	8	0.03702	78.6402	63.3154	69.9674
 394	1	8	0.035416	76.9379	63.5022	69.5087
 395	1	6	0.223374	80.142	65.6728	69.398
 396	1	6	0.198405	78.3143	68.5038	66.6832
 397	1	1	0.464138	55.302	36.1758	59.7613
 398	1	2	0.077422	55.0744	36.8486	60.9654
 399	1	3	0.04486	56.1203	37.9007	61.0321
 400	1	2	0.055008	56.3765	36.7158	59.0474
 401	1	3	-0.004417	56.8946	37.8216	59.8929
 402	1	5	-0.392499	54.2414	36.6156	61.8266
 403	1	5	-0.37854	56.8347	36.3654	57.972
 404	1	3	-0.044101	56.4025	38.8217	62.0477
 405	1	3	-0.056346	58.0009	38.6566	59.7044
 406	1	3	-0.157726	58.3079	39.5911	60.7168
 407	1	3	-0.13238	57.5084	39.693	61.8897
 408	1	6	0.167375	55.7901	38.8391	62.9484
 409	1	6	0.161059	58.6183	38.5587	58.8138
 410	1	6	0.140064	59.1965	40.2061	60.5978
 411	1	2	0.57844	57.8549	40.6292	63.026
 412	1	3	-0.037172	58.7945	41.7918	62.8168
 413	1	3	-0.116011	59.7152	42.1131	63.8414
 414	1	3	-0.048223	60.5828	43.1958	63.6481
 415	1	3	-0.138147	58.7458	42.5963	61.6463
 416	1	3	-0.114262	59.6253	43.6879	61.4759
 417	1	3	-0.063397	60.5425	43.9606	62.5
 418	1	2	0.489233	61.6039	45.0015	62.6016
 419	1	1	-0.081676	62.2412	44.7755	63.8161
 420	1	2	0.489742	61.6718	43.7172	64.5149
 421	1	3	0.047265	63.3954	45.4812	64.2625
 422	1	3	-0.183349	64.5282	44.7646	64.6817
 423	1	3	-0.091111	65.6726	45.4387	65.1318
 424	1	3	-0.18836	63.4348	46.8881	64.2906
 425	1	3	-0.138837	64.5829	47.5654	64.7492
 426	1	3	0.044906	65.7187	46.847	65.1843
 427	1	6	0.157291	64.5233	43.6777	64.6678
 428	1	6	0.112962	66.533	44.8538	65.4417
 429	1	6	0.163228	59.5991	44.3042	60.5787
 430	1	6	0.134491	58.0139	42.3822	60.8704
 431	1	6	0.172124	59.7629	41.5268	64.7587
 432	1	5	-0.48162	62.0157	43.2512	65.5875
 433	1	5	-0.478641	61.8715	45.8375	61.7562
 434	1	5	-0.498568	57.4212	40.4036	64.1439
 435	1	6	0.153588	62.5741	47.4605	63.953
 436	1	6	0.146442	64.5816	48.6517	64.7548
 437	1	7	0.027303	67.0046	47.5305	65.6929
 438	1	7	-0.256739	67.3947	46.9827	67.0942
 439	1	8	0.074408	67.6873	45.9269	67.054
 440	1	8	0.075653	66.556	47.0719	67.7964
 441	1	8	0.063017	68.2423	47.5422	67.5116
 442	1	7	-0.003396	68.1711	47.3108	64.6752
 443	1	7	0.23166	68.3432	48.6182	63.8446
 444	1	8	0.003166	68.0107	46.437	64.0302
 445	1	8	0.018046	69.0989	47.1174	65.2303
 446	1	3	0.065056	67.7178	49.6527	64.7639
 447	1	7	-0.138879	67.5549	48.5433	62.5148
 448	1	7	-0.25744	69.8381	48.8997	63.5528
 449	1	3	0.018858	66.9411	49.0527	65.7481
 450	1	8	0.063111	69.9591	49.816	62.9623
 451	1	8	0.056661	70.2858	48.0728	62.987
 452	1	8	0.052049	70.4039	49.021	64.4853
 453	1	3	-0.499719	67.8962	51.0486	64.7296
 454	1	3	-0.078325	66.3014	49.8375	66.7195
 455	1	3	-0.430686	66.4791	51.2351	66.6932
 456	1	3	0.29919	67.2912	51.8612	65.7157
 457	1	6	0.134637	65.7101	49.368	67.5024
 458	1	8	0.0139	67.9522	47.7527	61.8657
 459	1	8	0.03702	67.6194	49.4941	61.9708
 460	1	8	0.035416	66.4935	48.3326	62.6934
 461	1	6	0.223374	68.5156	51.4972	63.9571
 462	1	6	0.198405	66.0175	51.8389	67.4716
 463	1	1	0.464138	41.6714	25.2549	49.6007
 464	1	2	0.077422	41.5021	26.6141	49.3292
 465	1	3	0.04486	42.8684	27.1948	49.3794
 466	1	2	0.055008	43.0078	24.9138	49.8183
 467	1	3	-0.004417	43.7614	26.1844	49.6786
 468	1	5	-0.392499	40.4701	27.2242	49.1002
 469	1	5	-0.37854	43.4851	23.8219	50.0812
 470	1	3	-0.044101	43.2946	28.5124	49.1729
 471	1	3	-0.056346	45.1327	26.4306	49.7967
 472	1	3	-0.157726	45.5846	27.7527	49.6055
 473	1	3	-0.13238	44.6736	28.8022	49.3038
 474	1	6	0.167375	42.5725	29.2881	48.9217
 475	1	6	0.161059	45.8211	25.6184	50.0215
 476	1	6	0.140064	46.6523	27.9532	49.6689
 477	1	2	0.57844	45.1529	30.212	49.0652
 478	1	3	-0.037172	46.361	30.7191	49.8131
 479	1	3	-0.116011	46.6207	30.2949	51.1385
 480	1	3	-0.048223	47.7491	30.8054	51.792
 481	1	3	-0.138147	47.2254	31.6653	49.2028
 482	1	3	-0.114262	48.3614	32.1603	49.8786
 483	1	3	-0.063397	48.6002	31.7027	51.181
 484	1	2	0.489233	49.6879	32.0349	52.142
 485	1	1	-0.081676	49.4125	31.3071	53.2963
 486	1	2	0.489742	48.255	30.5464	53.1633
 487	1	3	0.047265	50.2105	31.3335	54.4792
 488	1	3	-0.183349	50.4704	30.1474	55.189
 489	1	3	-0.091111	51.2094	30.1742	56.3816
 490	1	3	-0.18836	50.733	32.5424	54.9765
 491	1	3	-0.138837	51.4856	32.5671	56.165
 492	1	3	0.044906	51.7244	31.3818	56.8942
 493	1	6	0.157291	50.0822	29.1975	54.8316
 494	1	6	0.112962	51.3756	29.2434	56.916
 495	1	6	0.163228	49.0309	32.8801	49.4107
 496	1	6	0.134491	47.0124	32.0116	48.1928
 497	1	6	0.172124	45.9604	29.6033	51.6591
 498	1	5	-0.48162	47.7336	29.8063	53.9799
 499	1	5	-0.478641	50.6241	32.785	51.9269
 500	1	5	-0.498568	44.5604	30.9335	48.2802
 501	1	6	0.153588	50.5557	33.4736	54.4437
 502	1	6	0.146442	51.8725	33.5208	56.5105
 503	1	7	0.027303	52.5015	31.3608	58.2259
 504	1	7	-0.256739	51.5932	30.8266	59.3661
 505	1	8	0.074408	52.1001	30.8947	60.3377
 506	1	8	0.075653	51.3202	29.7765	59.2058
 507	1	8	0.063017	50.6644	31.4075	59.4309
 508	1	7	-0.003396	53.7947	30.4906	58.099
 509	1	7	0.23166	55.0002	31.4496	57.8666
 510	1	8	0.003166	53.7233	29.729	57.3121
 511	1	8	0.018046	53.9511	29.9462	59.04
 512	1	3	0.065056	54.4715	32.7524	58.4405
 513	1	7	-0.138879	55.298	31.6154	56.3569
 514	1	7	-0.25744	56.2661	30.9405	58.5996
 515	1	3	0.018858	53.0943	32.7092	58.6155
 516	1	8	0.063111	57.1146	31.6161	58.4362
 517	1	8	0.056661	56.5523	29.9453	58.2362
 518	1	8	0.052049	56.0925	30.8721	59.6812
 519	1	3	-0.499719	55.2119	33.894	58.7962
 520	1	3	-0.078325	52.4137	33.8147	59.1474
 521	1	3	-0.430686	53.1488	34.9647	59.4968
 522	1	3	0.29919	54.5564	35.0227	59.3415
 523	1	6	0.134637	51.3369	33.7772	59.2961
 524	1	8	0.0139	56.1117	32.3344	56.197
 525	1	8	0.03702	54.4165	31.9826	55.8167
 526	1	8	0.035416	55.5967	30.6598	55.908
 527	1	6	0.223374	56.2893	33.9021	58.6512
 528	1	6	0.198405	52.6208	35.8121	59.9291
 529	1	1	0.464138	23.3328	24.274	39.6348
 530	1	2	0.077422	23.5904	23.169	40.4497
 531	1	3	0.04486	24.7344	23.5734	41.3068
 532	1	2	0.055008	24.1931	25.3438	39.9004
 533	1	3	-0.004417	25.093	24.8657	40.9794
 534	1	5	-0.392499	23.0303	22.0847	40.4665
 535	1	5	-0.37854	24.2523	26.4331	39.3532
 536	1	3	-0.044101	25.4201	22.8514	42.2902
 537	1	3	-0.056346	26.1516	25.517	41.6216
 538	1	3	-0.157726	26.8605	24.8073	42.6137
 539	1	3	-0.13238	26.5164	23.467	42.9401
 540	1	6	0.167375	25.1144	21.835	42.5345
 541	1	6	0.161059	26.4093	26.5411	41.3588
 542	1	6	0.140064	27.6699	25.3093	43.1402
 543	1	2	0.57844	27.2496	22.6918	44.0062
 544	1	3	-0.037172	28.7362	22.8736	44.2129
 545	1	3	-0.116011	29.3015	22.489	45.4523
 546	1	3	-0.048223	30.6877	22.5974	45.6218
 547	1	3	-0.138147	29.5923	23.3353	43.1747
 548	1	3	-0.114262	30.9861	23.4397	43.3692
 549	1	3	-0.063397	31.5063	23.0601	44.6125
 550	1	2	0.489233	32.9133	22.9996	45.093
 551	1	1	-0.081676	32.8515	22.4824	46.3823
 552	1	2	0.489742	31.5434	22.2287	46.7796
 553	1	3	0.047265	33.9917	22.2099	47.192
 554	1	3	-0.183349	34.094	20.993	47.8889
 555	1	3	-0.091111	35.2069	20.7261	48.702
 556	1	3	-0.18836	35.0345	23.1459	47.3099
 557	1	3	-0.138837	36.1509	22.877	48.1208
 558	1	3	0.044906	36.2488	21.6651	48.8412
 559	1	6	0.157291	33.303	20.2512	47.8132
 560	1	6	0.112962	35.255	19.7788	49.2304
 561	1	6	0.163228	31.6478	23.7765	42.5728
 562	1	6	0.134491	29.1861	23.5815	42.197
 563	1	6	0.172124	28.6808	22.0953	46.2569
 564	1	5	-0.48162	31.1512	21.7754	47.8411
 565	1	5	-0.478641	33.9009	23.3156	44.452
 566	1	5	-0.498568	26.6373	21.8792	44.6796
 567	1	6	0.153588	34.9859	24.0881	46.7691
 568	1	6	0.146442	36.935	23.626	48.176
 569	1	7	0.027303	37.4434	21.3382	49.7606
 570	1	7	-0.256739	36.9571	20.9959	51.195
 571	1	8	0.074408	37.8075	20.8732	51.8786
 572	1	8	0.075653	36.3792	20.064	51.2153
 573	1	8	0.063017	36.319	21.7951	51.593
 574	1	7	-0.003396	38.292	20.1662	49.1698
 575	1	7	0.23166	39.5236	20.7814	48.4369
 576	1	8	0.003166	37.7063	19.5135	48.5094
 577	1	8	0.018046	38.6478	19.532	49.9928
 578	1	3	0.065056	39.6142	22.1565	49.076
 579	1	7	-0.138879	39.2604	20.9087	46.917
 580	1	7	-0.25744	40.7985	19.9363	48.6799
 581	1	3	0.018858	38.4742	22.4551	49.8106
 582	1	8	0.063111	40.6634	18.9108	48.314
 583	1	8	0.056661	41.0385	19.8889	49.7499
 584	1	8	0.052049	41.6633	20.3691	48.1618
 585	1	3	-0.499719	40.6771	23.073	48.9883
 586	1	3	-0.078325	38.363	23.678	50.4888
 587	1	3	-0.430686	39.4245	24.5991	50.4064
 588	1	3	0.29919	40.5943	24.3136	49.6611
 589	1	6	0.134637	37.4653	23.912	51.0568
 590	1	8	0.0139	40.1057	21.395	46.4135
 591	1	8	0.03702	38.3625	21.5069	46.7187
 592	1	8	0.035416	39.117	19.9213	46.4603
 593	1	6	0.223374	41.5678	22.8151	48.4208
 594	1	6	0.198405	39.3349	25.5542	50.9199
 595	1	1	0.464138	2.79466	20.2023	36.7385
 596	1	2	0.077422	3.74897	19.3843	37.3553
 597	1	3	0.04486	5.06657	19.9403	36.9551
 598	1	2	0.055008	3.386	21.1941	35.9474
 599	1	3	-0.004417	4.84981	21.0079	36.1084
 600	1	5	-0.392499	3.57864	18.4231	38.0883
 601	1	5	-0.37854	2.85329	22.0892	35.3115
 602	1	3	-0.044101	6.35659	19.5791	37.3639
 603	1	3	-0.056346	5.91017	21.7683	35.6052
 604	1	3	-0.157726	7.21988	21.4172	35.994
 605	1	3	-0.13238	7.45614	20.3239	36.8726
 606	1	6	0.167375	6.49641	18.7591	38.0671
 607	1	6	0.161059	5.71694	22.6236	34.9609
 608	1	6	0.140064	8.04664	22.0317	35.6445
 609	1	2	0.57844	8.84268	19.9993	37.3756
 610	1	3	-0.037172	10.0483	20.4112	36.5703
 611	1	3	-0.116011	11.1919	20.9137	37.2358
 612	1	3	-0.048223	12.2982	21.2976	36.4641
 613	1	3	-0.138147	10.0634	20.2722	35.1572
 614	1	3	-0.114262	11.1932	20.6487	34.4025
 615	1	3	-0.063397	12.2981	21.1659	35.0905
 616	1	2	0.489233	13.5988	21.6685	34.5768
 617	1	1	-0.081676	14.3087	22.1063	35.6912
 618	1	2	0.489742	13.5967	21.903	36.8697
 619	1	3	0.047265	15.5908	22.731	35.6236
 620	1	3	-0.183349	15.8655	23.6796	34.6223
 621	1	3	-0.091111	17.1261	24.2904	34.541
 622	1	3	-0.18836	16.604	22.4208	36.551
 623	1	3	-0.138837	17.865	23.0424	36.4766
 624	1	3	0.044906	18.1457	23.9872	35.4655
 625	1	6	0.157291	15.1053	23.9421	33.8914
 626	1	6	0.112962	17.3095	25.0091	33.7477
 627	1	6	0.163228	11.213	20.5458	33.3188
 628	1	6	0.134491	9.19909	19.8571	34.6431
 629	1	6	0.172124	11.2116	21.0181	38.3201
 630	1	5	-0.48162	13.9194	22.1997	38.0069
 631	1	5	-0.478641	13.9309	21.705	33.4042
 632	1	5	-0.498568	8.98642	19.4504	38.4553
 633	1	6	0.153588	16.4156	21.6979	37.3413
 634	1	6	0.146442	18.6159	22.7802	37.2159
 635	1	7	0.027303	19.5142	24.6839	35.3259
 636	1	7	-0.256739	20.1601	24.3148	33.9636
 637	1	8	0.074408	19.5737	24.7036	33.1222
 638	1	8	0.075653	20.2299	23.2258	33.8467
 639	1	8	0.063017	21.1742	24.7277	33.8831
 640	1	7	-0.003396	19.3639	26.235	35.4632
 641	1	7	0.23166	19.7052	26.6208	36.933
 642	1	8	0.003166	18.3741	26.6025	35.1648
 643	1	8	0.018046	20.0876	26.7213	34.7951
 644	1	3	0.065056	20.6008	25.4656	37.3442
 645	1	7	-0.138879	18.4314	26.6551	37.8121
 646	1	7	-0.25744	20.4252	27.9905	36.9995
 647	1	3	0.018858	20.4803	24.393	36.4686
 648	1	8	0.063111	19.7981	28.7823	36.5711
 649	1	8	0.056661	21.3708	27.9639	36.4428
 650	1	8	0.052049	20.6541	28.2658	38.0365
 651	1	3	-0.499719	21.5118	25.4296	38.4151
 652	1	3	-0.078325	21.2666	23.2444	36.6454
 653	1	3	-0.430686	22.1863	23.2054	37.712
 654	1	3	0.29919	22.3354	24.2963	38.604
 655	1	6	0.134637	21.1807	22.4077	35.9561
 656	1	8	0.0139	18.6864	26.8573	38.8601
 657	1	8	0.03702	17.8969	25.698	37.7774
 658	1	8	0.035416	17.7427	27.4393	37.4733
 659	1	6	0.223374	21.6154	26.296	39.0635
 660	1	6	0.198405	22.8036	22.3187	37.8407
 661	1	1	0.464138	-12.1686	5.4121	35.0154
 662	1	2	0.077422	-11.1095	5.7726	34.1766
 663	1	3	0.04486	-10.5185	6.9891	34.7894
 664	1	2	0.055008	-12.3153	6.29306	36.0918
 665	1	3	-0.004417	-11.2412	7.30304	35.9228
 666	1	5	-0.392499	-10.7319	5.23816	33.1462
 667	1	5	-0.37854	-13.1179	6.25586	37.0104
 668	1	3	-0.044101	-9.41067	7.74757	34.3931
 669	1	3	-0.056346	-10.906	8.3991	36.7243
 670	1	3	-0.157726	-9.80188	9.1872	36.3378
 671	1	3	-0.13238	-9.05237	8.87392	35.1709