pySIMM System Object

3300 atoms
3649 bonds
6446 angles
10338 dihedrals
1050 impropers

8 atom types
10 bond types
17 angle types
9 dihedral types
4 improper types

-224.030357 224.030357 xlo xhi
-224.030357 224.030357 ylo yhi
-224.030357 224.030357 zlo zhi

Masses

   1	14.01	# n
   2	12.01	# c
   3	12.01	# ca
   4	1.008	# hn
   5	16.0	# o
   6	1.008	# ha
   7	12.01	# c3
   8	1.008	# hc

Pair Coeffs

   1	0.17	3.249998523775958	# n
   2	0.086	3.3996695084235347	# c
   3	0.086	3.3996695084235347	# ca
   4	0.0157	1.069078461768407	# hn
   5	0.21	2.959921901149463	# o
   6	0.015	2.59964245953351	# ha
   7	0.1094	3.3996695084235347	# c3
   8	0.0157	2.649532787749369	# hc

Bond Coeffs

   1	427.6	1.3789	# c,n
   2	461.1	1.3984	# ca,ca
   3	345.9	1.4906	# c,ca
   4	300.9	1.5375	# c3,c3
   5	345.8	1.086	# ca,ha
   6	384.2	1.4121	# ca,n
   7	637.7	1.2183	# c,o
   8	321.0	1.5156	# c3,ca
   9	330.6	1.0969	# c3,hc
  10	403.2	1.0129	# hn,n

Angle Coeffs

   1	63.82	123.71	# c,n,ca
   2	67.87	120.19	# ca,ca,n
   3	67.68	115.25	# ca,c,n
   4	63.15	112.07	# c3,c3,ca
   5	63.0	118.11	# ca,c,ca
   6	63.56	112.24	# ca,c3,ca
   7	46.34	109.8	# c3,c3,hc
   8	48.33	117.55	# c,n,hn
   9	74.22	123.05	# n,c,o
  10	64.28	120.33	# c,ca,ca
  11	39.4	107.58	# hc,c3,hc
  12	66.62	120.02	# ca,ca,ca
  13	63.53	120.77	# c3,ca,ca
  14	62.86	111.51	# c3,c3,c3
  15	63.74	127.08	# c,n,c
  16	48.18	119.88	# ca,ca,ha
  17	68.72	122.6	# ca,c,o

Dihedral Coeffs

   1	2	2.5	2	180	2.0	1	0	# hn,n,c,o
   2	1	3.625	2	180	# X,ca,ca,X
   3	1	0.16	3	0	# hc,c3,c3,c3
   4	1	1.0	2	180	# X,c,ca,X
   5	1	0.15555555555555556	3	0	# X,c3,c3,X
   6	1	0.0	2	0	# X,c3,ca,X
   7	3	0.18	3	0	0.25	2	180	0.2	1	180	# c3,c3,c3,c3
   8	1	2.5	2	180	# X,c,n,X
   9	1	0.45	2	180	# X,ca,n,X

Improper Coeffs

   1	1.1	-1	2	# ca,ca,ca,c3
   2	1.1	-1	2	# n,X,X,hn
   3	1.1	-1	2	# ca,X,X,ha
   4	10.5	-1	2	# c,X,X,o

Atoms

   1	1	1	0.464138	2.31777	-48.4213	154.409
   2	1	2	0.077422	0.985045	-48.0859	154.158
   3	1	3	0.04486	0.210596	-49.3205	154.442
   4	1	2	0.055008	2.46783	-49.7525	154.805
   5	1	3	-0.004417	1.09254	-50.3116	154.825
   6	1	5	-0.392499	0.518117	-47.0141	153.806
   7	1	5	-0.37854	3.49066	-50.3537	155.09
   8	1	3	-0.044101	-1.17181	-49.5398	154.402
   9	1	3	-0.056346	0.644496	-51.5842	155.192
  10	1	3	-0.157726	-0.744021	-51.8295	155.156
  11	1	3	-0.13238	-1.66089	-50.8233	154.751
  12	1	6	0.167375	-1.83608	-48.7206	154.135
  13	1	6	0.161059	1.35026	-52.3493	155.509
  14	1	6	0.140064	-1.11766	-52.8082	155.455
  15	1	2	0.57844	-3.14214	-51.1172	154.773
  16	1	3	-0.037172	-4.07253	-50.3893	153.834
  17	1	3	-0.116011	-5.4053	-50.1413	154.241
  18	1	3	-0.048223	-6.26197	-49.4731	153.356
  19	1	3	-0.138147	-3.65361	-49.9917	152.535
  20	1	3	-0.114262	-4.53433	-49.324	151.659
  21	1	3	-0.063397	-5.83827	-49.0743	152.104
  22	1	2	0.489233	-6.97354	-48.3951	151.426
  23	1	1	-0.081676	-8.02777	-48.4179	152.332
  24	1	2	0.489742	-7.68124	-49.0573	153.518
  25	1	3	0.047265	-9.29878	-47.8235	152.084
  26	1	3	-0.183349	-9.95946	-48.0278	150.86
  27	1	3	-0.091111	-11.1938	-47.4082	150.603
  28	1	3	-0.18836	-9.90618	-47.0026	153.051
  29	1	3	-0.138837	-11.1422	-46.3844	152.794
  30	1	3	0.044906	-11.8009	-46.5674	151.558
  31	1	6	0.157291	-9.51001	-48.6561	150.095
  32	1	6	0.112962	-11.6791	-47.5806	149.646
  33	1	6	0.163228	-4.22017	-49.0135	150.664
  34	1	6	0.134491	-2.64645	-50.2175	152.192
  35	1	6	0.172124	-5.76263	-50.4543	155.221
  36	1	5	-0.48162	-8.3667	-49.2313	154.51
  37	1	5	-0.478641	-6.94911	-47.9116	150.307
  38	1	5	-0.498568	-3.58983	-51.9269	155.568
  39	1	6	0.153588	-9.41999	-46.8393	154.01
  40	1	6	0.146442	-11.5765	-45.7641	153.573
  41	1	7	0.027303	-13.1448	-45.8859	151.227
  42	1	7	-0.256739	-13.0298	-45.0569	149.919
  43	1	8	0.074408	-12.1885	-44.3546	149.975
  44	1	8	0.075653	-13.9434	-44.4742	149.743
  45	1	8	0.063017	-12.8725	-45.7	149.045
  46	1	7	-0.003396	-14.2865	-46.9468	151.114
  47	1	7	0.23166	-15.0502	-46.9798	152.473
  48	1	8	0.003166	-13.915	-47.9392	150.827
  49	1	8	0.018046	-14.9827	-46.6367	150.323
  50	1	3	0.065056	-14.7117	-45.6171	153.052
  51	1	7	-0.138879	-14.5113	-48.1043	153.39
  52	1	7	-0.25744	-16.572	-47.1666	152.254
  53	1	3	0.018858	-13.6671	-45.0133	152.36
  54	1	8	0.063111	-16.9849	-46.3436	151.657
  55	1	8	0.056661	-17.1075	-47.1884	153.211
  56	1	8	0.052049	-16.7784	-48.1076	151.729
  57	1	3	-0.499719	-15.3205	-44.9733	154.145
  58	1	3	-0.078325	-13.2051	-43.7396	152.732
  59	1	3	-0.430686	-13.8131	-43.0922	153.826
  60	1	3	0.29919	-14.8661	-43.7027	154.53
  61	1	6	0.134637	-12.3876	-43.2696	152.191
  62	1	8	0.0139	-13.4327	-47.9988	153.558
  63	1	8	0.03702	-14.6893	-49.0915	152.945
  64	1	8	0.035416	-15.0063	-48.0787	154.369
  65	1	6	0.223374	-16.1319	-45.445	154.689
  66	1	6	0.198405	-13.4723	-42.1089	154.135
  67	1	1	0.464138	22.7183	-49.0093	148.79
  68	1	2	0.077422	22.334	-48.9908	150.133
  69	1	3	0.04486	20.9476	-48.459	150.134
  70	1	2	0.055008	21.7171	-48.5352	147.94
  71	1	3	-0.004417	20.5819	-48.1869	148.831
  72	1	5	-0.392499	22.9641	-49.3555	151.112
  73	1	5	-0.37854	21.7357	-48.4237	146.725
  74	1	3	-0.044101	20.072	-48.2369	151.204
  75	1	3	-0.056346	19.3231	-47.6633	148.52
  76	1	3	-0.157726	18.4227	-47.4324	149.581
  77	1	3	-0.13238	18.7789	-47.7341	150.924
  78	1	6	0.167375	20.388	-48.4545	152.223
  79	1	6	0.161059	19.0597	-47.4369	147.489
  80	1	6	0.140064	17.4513	-46.9978	149.354
  81	1	2	0.57844	17.835	-47.4751	152.073
  82	1	3	-0.037172	16.3425	-47.538	151.857
  83	1	3	-0.116011	15.497	-46.7165	152.64
  84	1	3	-0.048223	14.1127	-46.7917	152.432
  85	1	3	-0.138147	15.7667	-48.4392	150.92
  86	1	3	-0.114262	14.3704	-48.5015	150.732
  87	1	3	-0.063397	13.5662	-47.6546	151.504
  88	1	2	0.489233	12.088	-47.4905	151.531
  89	1	1	-0.081676	11.8325	-46.5149	152.488
  90	1	2	0.489742	13.0004	-46.0469	153.081
  91	1	3	0.047265	10.5299	-46.0422	152.818
  92	1	3	-0.183349	10.2777	-44.6636	152.926
  93	1	3	-0.091111	8.99882	-44.1969	153.271
  94	1	3	-0.18836	9.47395	-46.9431	153.045
  95	1	3	-0.138837	8.19315	-46.4758	153.389
  96	1	3	0.044906	7.93804	-45.0925	153.519
  97	1	6	0.157291	11.0773	-43.9469	152.757
  98	1	6	0.112962	8.8355	-43.1263	153.351
  99	1	6	0.163228	13.9224	-49.189	150.016
 100	1	6	0.134491	16.4024	-49.1095	150.346
 101	1	6	0.172124	15.9067	-46.035	153.385
 102	1	5	-0.48162	13.1191	-45.1894	153.939
 103	1	5	-0.478641	11.29	-48.0903	150.832
 104	1	5	-0.498568	18.2832	-47.2082	153.176
 105	1	6	0.153588	9.64236	-48.0135	152.954
 106	1	6	0.146442	7.40654	-47.2065	153.551
 107	1	7	0.027303	6.55724	-44.5366	153.923
 108	1	7	-0.256739	6.68194	-43.6306	155.178
 109	1	8	0.074408	7.25206	-42.7185	154.965
 110	1	8	0.075653	7.19075	-44.1607	155.994
 111	1	8	0.063017	5.69234	-43.3245	155.542
 112	1	7	-0.003396	5.90585	-43.7527	152.739
 113	1	7	0.23166	4.87767	-44.6955	152.041
 114	1	8	0.003166	6.64928	-43.3624	152.031
 115	1	8	0.018046	5.37269	-42.8796	153.139
 116	1	3	0.065056	4.58715	-45.7064	153.138
 117	1	7	-0.138879	5.51072	-45.3982	150.816
 118	1	7	-0.25744	3.61308	-43.917	151.602
 119	1	3	0.018858	5.517	-45.621	154.166
 120	1	8	0.063111	2.89377	-44.5808	151.107
 121	1	8	0.056661	3.87279	-43.1155	150.899
 122	1	8	0.052049	3.11144	-43.4638	152.466
 123	1	3	-0.499719	3.53023	-46.6341	153.192
 124	1	3	-0.078325	5.42017	-46.4632	155.284
 125	1	3	-0.430686	4.36526	-47.3934	155.344
 126	1	3	0.29919	3.40342	-47.4916	154.309
 127	1	6	0.134637	6.15049	-46.3976	156.087
 128	1	8	0.0139	6.41538	-45.9506	151.099
 129	1	8	0.03702	5.78774	-44.6677	150.046
 130	1	8	0.035416	4.80729	-46.1122	150.37
 131	1	6	0.223374	2.79948	-46.6687	152.388
 132	1	6	0.198405	4.29351	-48.0513	156.208
 133	1	1	0.464138	38.0081	-47.3326	133.659
 134	1	2	0.077422	36.8208	-48.0532	133.507
 135	1	3	0.04486	36.0941	-47.8851	134.789
 136	1	2	0.055008	38.0925	-46.7013	134.903
 137	1	3	-0.004417	36.8479	-47.0822	135.62
 138	1	5	-0.392499	36.4551	-48.7376	132.565
 139	1	5	-0.37854	38.9931	-46.0098	135.35
 140	1	3	-0.044101	34.8883	-48.4532	135.212
 141	1	3	-0.056346	36.438	-46.8016	136.928
 142	1	3	-0.157726	35.2256	-47.3669	137.38
 143	1	3	-0.13238	34.4352	-48.1883	136.527
 144	1	6	0.167375	34.3356	-49.1099	134.541
 145	1	6	0.161059	37.06	-46.1919	137.58
 146	1	6	0.140064	34.9312	-47.1933	138.412
 147	1	2	0.57844	33.1771	-48.8801	137.0
 148	1	3	-0.037172	32.5043	-48.4731	138.285
 149	1	3	-0.116011	32.0106	-49.4886	139.135
 150	1	3	-0.048223	31.3793	-49.1141	140.327
 151	1	3	-0.138147	32.3093	-47.1102	138.637
 152	1	3	-0.114262	31.6592	-46.7556	139.839
 153	1	3	-0.063397	31.2078	-47.7888	140.672
 154	1	2	0.489233	30.5124	-47.7437	141.989
 155	1	1	-0.081676	30.3264	-49.0695	142.362
 156	1	2	0.489742	30.8104	-49.9559	141.409
 157	1	3	0.047265	29.7381	-49.4898	143.586
 158	1	3	-0.183349	30.4004	-50.4277	144.395
 159	1	3	-0.091111	29.804	-50.8979	145.575
 160	1	3	-0.18836	28.4806	-49.0087	143.991
 161	1	3	-0.138837	27.8794	-49.4855	145.17
 162	1	3	0.044906	28.5264	-50.4533	145.972
 163	1	6	0.157291	31.3724	-50.814	144.1
 164	1	6	0.112962	30.3389	-51.6266	146.176
 165	1	6	0.163228	31.5065	-45.714	140.117
 166	1	6	0.134491	32.6494	-46.3233	137.967
 167	1	6	0.172124	32.1238	-50.5418	138.879
 168	1	5	-0.48162	30.8179	-51.1741	141.447
 169	1	5	-0.478641	30.2052	-46.7385	142.606
 170	1	5	-0.498568	32.7471	-49.8387	136.379
 171	1	6	0.153588	27.9604	-48.271	143.384
 172	1	6	0.146442	26.9039	-49.0959	145.447
 173	1	7	0.027303	27.8925	-51.0345	147.251
 174	1	7	-0.256739	27.9009	-52.5881	147.214
 175	1	8	0.074408	27.4426	-52.9601	146.289
 176	1	8	0.075653	27.3363	-53.0037	148.059
 177	1	8	0.063017	28.9189	-52.9915	147.271
 178	1	7	-0.003396	28.6373	-50.5095	148.52
 179	1	7	0.23166	27.7921	-49.3518	149.134
 180	1	8	0.003166	29.6664	-50.1947	148.303
 181	1	8	0.018046	28.7119	-51.3235	149.254
 182	1	3	0.065056	26.4161	-49.627	148.553
 183	1	7	-0.138879	28.3088	-47.9723	148.659
 184	1	7	-0.25744	27.8033	-49.4104	150.682
 185	1	3	0.018858	26.4773	-50.5379	147.506
 186	1	8	0.063111	27.2118	-48.5928	151.111
 187	1	8	0.056661	28.8267	-49.3264	151.068
 188	1	8	0.052049	27.3786	-50.3566	151.041
 189	1	3	-0.499719	25.1853	-49.0941	148.976
 190	1	3	-0.078325	25.3088	-50.9372	146.841
 191	1	3	-0.430686	24.0728	-50.4095	147.261
 192	1	3	0.29919	23.9883	-49.4934	148.338
 193	1	6	0.134637	25.3596	-51.6493	146.02
 194	1	8	0.0139	27.6701	-47.1643	149.038
 195	1	8	0.03702	28.3167	-47.9073	147.564
 196	1	8	0.035416	29.3307	-47.7922	149.016
 197	1	6	0.223374	25.1551	-48.4064	149.817
 198	1	6	0.198405	23.1652	-50.7194	146.748
 199	1	1	0.464138	46.0475	-33.8013	119.59
 200	1	2	0.077422	45.2652	-33.753	120.746
 201	1	3	0.04486	45.3342	-35.1171	121.321
 202	1	2	0.055008	46.6422	-35.0517	119.399
 203	1	3	-0.004417	46.1534	-35.8919	120.525
 204	1	5	-0.392499	44.6244	-32.818	121.199
 205	1	5	-0.37854	47.3606	-35.4227	118.486
 206	1	3	-0.044101	44.6652	-35.6491	122.427
 207	1	3	-0.056346	46.3506	-37.2516	120.794
 208	1	3	-0.157726	45.6854	-37.8126	121.907
 209	1	3	-0.13238	44.8466	-37.0174	122.737
 210	1	6	0.167375	43.9977	-35.0173	123.011
 211	1	6	0.161059	46.9724	-37.8568	120.137
 212	1	6	0.140064	45.7915	-38.8791	122.093
 213	1	2	0.57844	44.0467	-37.5944	123.881
 214	1	3	-0.037172	44.4867	-38.8469	124.599
 215	1	3	-0.116011	43.4954	-39.67	125.184
 216	1	3	-0.048223	43.8988	-40.8075	125.892
 217	1	3	-0.138147	45.8578	-39.1806	124.771
 218	1	3	-0.114262	46.2419	-40.3321	125.492
 219	1	3	-0.063397	45.231	-41.1307	126.044
 220	1	2	0.489233	45.3118	-42.3797	126.85
 221	1	1	-0.081676	43.9964	-42.7401	127.128
 222	1	2	0.489742	43.0862	-41.8385	126.588
 223	1	3	0.047265	43.6129	-43.9173	127.835
 224	1	3	-0.183349	42.5855	-43.8772	128.796
 225	1	3	-0.091111	42.1563	-45.0507	129.439
 226	1	3	-0.18836	44.2259	-45.1511	127.555
 227	1	3	-0.138837	43.8026	-46.3225	128.204
 228	1	3	0.044906	42.747	-46.2975	129.139
 229	1	6	0.157291	42.0942	-42.9363	129.031
 230	1	6	0.112962	41.3513	-44.9741	130.163
 231	1	6	0.163228	47.2903	-40.5911	125.632
 232	1	6	0.134491	46.6322	-38.5319	124.368
 233	1	6	0.172124	42.4368	-39.4277	125.094
 234	1	5	-0.48162	41.8685	-41.8769	126.629
 235	1	5	-0.478641	46.337	-42.9558	127.171
 236	1	5	-0.498568	43.01	-37.0457	124.218
 237	1	6	0.153588	45.0283	-45.2091	126.824
 238	1	6	0.146442	44.2945	-47.2605	127.966
 239	1	7	0.027303	42.2723	-47.6156	129.783
 240	1	7	-0.256739	41.9506	-48.6745	128.693
 241	1	8	0.074408	41.4877	-49.5657	129.137
 242	1	8	0.075653	42.8532	-49.0015	128.163
 243	1	8	0.063017	41.2521	-48.2698	127.949
 244	1	7	-0.003396	43.3406	-48.1629	130.784
 245	1	7	0.23166	42.884	-47.798	132.23
 246	1	8	0.003166	44.3497	-47.7894	130.565
 247	1	8	0.018046	43.3899	-49.2563	130.692
 248	1	3	0.065056	41.3944	-47.5667	132.039
 249	1	7	-0.138879	43.5715	-46.4999	132.717
 250	1	7	-0.25744	43.1823	-48.9519	133.22
 251	1	3	0.018858	41.0665	-47.444	130.695
 252	1	8	0.063111	44.2565	-49.1739	133.246
 253	1	8	0.056661	42.6511	-49.8666	132.927
 254	1	8	0.052049	42.8666	-48.6897	134.237
 255	1	3	-0.499719	40.4018	-47.5029	133.034
 256	1	3	-0.078325	39.7367	-47.2297	130.305
 257	1	3	-0.430686	38.7394	-47.1602	131.296
 258	1	3	0.29919	39.0478	-47.3133	132.671
 259	1	6	0.134637	39.4807	-47.1375	129.252
 260	1	8	0.0139	43.2007	-46.2106	133.709
 261	1	8	0.03702	43.3784	-45.6666	132.031
 262	1	8	0.035416	44.6582	-46.6351	132.788
 263	1	6	0.223374	40.6795	-47.6114	134.08
 264	1	6	0.198405	37.7043	-47.0275	130.989
 265	1	1	0.464138	49.8071	-31.3209	100.452
 266	1	2	0.077422	49.7042	-31.1842	101.834
 267	1	3	0.04486	48.6365	-32.1319	102.233
 268	1	2	0.055008	48.937	-32.2792	99.9329
 269	1	3	-0.004417	48.1713	-32.7766	101.104
 270	1	5	-0.392499	50.2871	-30.4039	102.57
 271	1	5	-0.37854	48.7682	-32.6003	98.768
 272	1	3	-0.044101	48.0774	-32.357	103.494
 273	1	3	-0.056346	47.1149	-33.6907	101.172
 274	1	3	-0.157726	46.5183	-33.9146	102.431
 275	1	3	-0.13238	46.9687	-33.2328	103.593
 276	1	6	0.167375	48.4926	-31.8427	104.358
 277	1	6	0.161059	46.7555	-34.1894	100.274
 278	1	6	0.140064	45.6835	-34.6104	102.505
 279	1	2	0.57844	46.2703	-33.4696	104.912
 280	1	3	-0.037172	46.2771	-32.3997	105.981
 281	1	3	-0.116011	46.1512	-32.7873	107.336
 282	1	3	-0.048223	46.1926	-31.7943	108.324
 283	1	3	-0.138147	46.3713	-31.0157	105.664
 284	1	3	-0.114262	46.4348	-30.0361	106.676
 285	1	3	-0.063397	46.3577	-30.4638	108.006
 286	1	2	0.489233	46.4141	-29.6872	109.272
 287	1	1	-0.081676	46.2558	-30.6145	110.301
 288	1	2	0.489742	46.1009	-31.9072	109.802
 289	1	3	0.047265	46.2605	-30.2864	111.695
 290	1	3	-0.183349	46.808	-31.1716	112.643
 291	1	3	-0.091111	46.788	-30.8678	114.014
 292	1	3	-0.18836	45.7285	-29.0676	112.157
 293	1	3	-0.138837	45.7455	-28.7462	113.525
 294	1	3	0.044906	46.2447	-29.6532	114.483
 295	1	6	0.157291	47.246	-32.1149	112.329
 296	1	6	0.112962	47.2063	-31.5941	114.702
 297	1	6	0.163228	46.5346	-28.9782	106.438
 298	1	6	0.134491	46.3947	-30.6888	104.627
 299	1	6	0.172124	46.0381	-33.8348	107.615
 300	1	5	-0.48162	45.9154	-32.9439	110.416
 301	1	5	-0.478641	46.5988	-28.4847	109.35
 302	1	5	-0.498568	45.7128	-34.5348	105.12
 303	1	6	0.153588	45.3069	-28.3497	111.458
 304	1	6	0.146442	45.3631	-27.7785	113.835
 305	1	7	0.027303	46.2275	-29.2891	115.983
 306	1	7	-0.256739	47.3356	-28.2462	116.276
 307	1	8	0.074408	48.3164	-28.6174	115.953
 308	1	8	0.075653	47.396	-28.0222	117.349
 309	1	8	0.063017	47.1423	-27.3066	115.743
 310	1	7	-0.003396	44.8262	-28.7535	116.436
 311	1	7	0.23166	44.0028	-29.9638	116.962
 312	1	8	0.003166	44.2814	-28.1999	115.664
 313	1	8	0.018046	44.9756	-28.0483	117.265
 314	1	3	0.065056	45.1146	-30.8908	117.416
 315	1	7	-0.138879	43.1733	-30.6202	115.832
 316	1	7	-0.25744	43.0661	-29.5407	118.121
 317	1	3	0.018858	46.3456	-30.5093	116.895
 318	1	8	0.063111	42.4856	-30.3949	118.491
 319	1	8	0.056661	42.359	-28.7697	117.79
 320	1	8	0.052049	43.6422	-29.1375	118.964
 321	1	3	-0.499719	45.0033	-31.9831	118.292
 322	1	3	-0.078325	47.5106	-31.2047	117.261
 323	1	3	-0.430686	47.4058	-32.3019	118.142
 324	1	3	0.29919	46.1561	-32.705	118.674
 325	1	6	0.134637	48.477	-30.9044	116.863
 326	1	8	0.0139	43.8122	-30.943	115.001
 327	1	8	0.03702	42.4293	-29.9185	115.434
 328	1	8	0.035416	42.6408	-31.5043	116.204
 329	1	6	0.223374	44.0308	-32.2471	118.699
 330	1	6	0.198405	48.305	-32.8511	118.413
 331	1	1	0.464138	46.9362	-19.6154	86.0321
 332	1	2	0.077422	46.2029	-20.7822	85.7844
 333	1	3	0.04486	47.0614	-21.8968	86.2601
 334	1	2	0.055008	48.1742	-19.8874	86.6245
 335	1	3	-0.004417	48.2367	-21.3622	86.7461
 336	1	5	-0.392499	45.1063	-20.905	85.2624
 337	1	5	-0.37854	49.038	-19.1114	86.9998
 338	1	3	-0.044101	46.8284	-23.278	86.2634
 339	1	3	-0.056346	49.2672	-22.1727	87.2273
 340	1	3	-0.157726	49.0627	-23.5661	87.2266
 341	1	3	-0.13238	47.8327	-24.1293	86.7846
 342	1	6	0.167375	45.8891	-23.6751	85.8802
 343	1	6	0.161059	50.1975	-21.7315	87.5796
 344	1	6	0.140064	49.8729	-24.2059	87.5688
 345	1	2	0.57844	47.5859	-25.6191	86.8226
 346	1	3	-0.037172	48.2885	-26.4621	87.8599
 347	1	3	-0.116011	48.6249	-25.9244	89.1257
 348	1	3	-0.048223	49.3279	-26.7298	90.0266
 349	1	3	-0.138147	48.605	-27.8167	87.5751
 350	1	3	-0.114262	49.2978	-28.6181	88.5083
 351	1	3	-0.063397	49.6606	-28.0355	89.7294
 352	1	2	0.489233	50.4085	-28.5937	90.8891
 353	1	1	-0.081676	50.4873	-27.5608	91.8151
 354	1	2	0.489742	49.8554	-26.4072	91.3751
 355	1	3	0.047265	51.1195	-27.668	93.0808
 356	1	3	-0.183349	50.7633	-28.7004	93.9612
 357	1	3	-0.091111	51.3357	-28.7729	95.2401
 358	1	3	-0.18836	52.076	-26.7215	93.4858
 359	1	3	-0.138837	52.6569	-26.7998	94.7623
 360	1	3	0.044906	52.2845	-27.8148	95.6676
 361	1	6	0.157291	50.0279	-29.4431	93.6626
 362	1	6	0.112962	51.0076	-29.5753	95.892
 363	1	6	0.163228	49.5551	-29.6529	88.2879
 364	1	6	0.134491	48.3219	-28.2423	86.6136
 365	1	6	0.172124	48.3616	-24.9071	89.409
 366	1	5	-0.48162	49.7624	-25.331	91.94
 367	1	5	-0.478641	50.8576	-29.7227	90.9823
 368	1	5	-0.498568	46.8193	-26.1308	86.0236
 369	1	6	0.153588	52.354	-25.9086	92.8197
 370	1	6	0.146442	53.3834	-26.0482	95.0585
 371	1	7	0.027303	52.8827	-27.8209	97.0899
 372	1	7	-0.256739	54.4204	-28.0154	97.0428
 373	1	8	0.074408	54.8363	-28.1072	98.0548
 374	1	8	0.075653	54.9147	-27.1675	96.5531
 375	1	8	0.063017	54.6833	-28.9239	96.4866
 376	1	7	-0.003396	52.5077	-26.5072	97.851
 377	1	7	0.23166	51.1965	-26.7791	98.648
 378	1	8	0.003166	52.4132	-25.6362	97.1908
 379	1	8	0.018046	53.3101	-26.2699	98.5625
 380	1	3	0.065056	51.2548	-28.2889	98.8093
 381	1	7	-0.138879	49.9472	-26.3615	97.833
 382	1	7	-0.25744	51.2017	-26.0385	100.008
 383	1	3	0.018858	52.2171	-28.8566	97.9827
 384	1	8	0.063111	52.0427	-26.3679	100.631
 385	1	8	0.056661	50.276	-26.2311	100.564
 386	1	8	0.052049	51.2885	-24.9546	99.861
 387	1	3	-0.499719	50.4593	-29.0909	99.6441
 388	1	3	-0.078325	52.4346	-30.2435	97.9837
 389	1	3	-0.430686	51.6344	-31.0544	98.811
 390	1	3	0.29919	50.639	-30.4919	99.6439
 391	1	6	0.134637	53.1773	-30.6847	97.3227
 392	1	8	0.0139	49.9476	-25.2806	97.6426
 393	1	8	0.03702	49.0267	-26.6093	98.3759
 394	1	8	0.035416	49.9101	-26.8735	96.8643
 395	1	6	0.223374	49.7084	-28.632	100.282
 396	1	6	0.198405	51.7674	-32.1336	98.7869
 397	1	1	0.464138	41.1678	-9.82851	68.3945
 398	1	2	0.077422	42.3842	-9.41289	68.9502
 399	1	3	0.04486	42.5515	-10.2208	70.182
 400	1	2	0.055008	40.5787	-10.8619	69.1328
 401	1	3	-0.004417	41.4715	-11.0701	70.2987
 402	1	5	-0.392499	43.1242	-8.50863	68.597
 403	1	5	-0.37854	39.534	-11.459	68.9272
 404	1	3	-0.044101	43.5382	-10.1458	71.1708
 405	1	3	-0.056346	41.294	-11.871	71.4298
 406	1	3	-0.157726	42.2649	-11.7984	72.4499
 407	1	3	-0.13238	43.4082	-10.9591	72.3219
 408	1	6	0.167375	44.3662	-9.44685	71.0588
 409	1	6	0.161059	40.4078	-12.4945	71.5294
 410	1	6	0.140064	42.0948	-12.3724	73.3568
 411	1	2	0.57844	44.4423	-10.8267	73.4168
 412	1	3	-0.037172	44.4962	-11.835	74.5352
 413	1	3	-0.116011	44.7193	-11.378	75.8546
 414	1	3	-0.048223	44.7068	-12.3159	76.8943
 415	1	3	-0.138147	44.3396	-13.2261	74.2918
 416	1	3	-0.114262	44.3265	-14.152	75.355
 417	1	3	-0.063397	44.4977	-13.6579	76.6536
 418	1	2	0.489233	44.4883	-14.3663	77.9593
 419	1	1	-0.081676	44.7004	-13.3876	78.9261
 420	1	2	0.489742	44.8562	-12.1259	78.3604
 421	1	3	0.047265	44.7473	-13.6453	80.3283
 422	1	3	-0.183349	44.1521	-12.7596	81.2458
 423	1	3	-0.091111	44.2213	-13.0056	82.6269
 424	1	3	-0.18836	45.3914	-14.7928	80.8236
 425	1	3	-0.138837	45.4433	-15.0492	82.203
 426	1	3	0.044906	44.8709	-14.1504	83.1307
 427	1	6	0.157291	43.6448	-11.8648	80.8949
 428	1	6	0.112962	43.7668	-12.2949	83.3109
 429	1	6	0.163228	44.1806	-15.2171	75.1822
 430	1	6	0.134491	44.2158	-13.5894	73.2737
 431	1	6	0.172124	44.8694	-10.3199	76.0676
 432	1	5	-0.48162	45.0587	-11.0628	78.9218
 433	1	5	-0.478641	44.2925	-15.5594	78.1153
 434	1	5	-0.498568	45.1782	-9.85385	73.4442
 435	1	6	0.153588	45.8543	-15.4996	80.1392
 436	1	6	0.146442	45.9394	-15.9567	82.5302
 437	1	7	0.027303	44.9513	-14.3675	84.6558
 438	1	7	-0.256739	45.691	-13.1826	85.3322
 439	1	8	0.074408	45.1221	-12.2492	85.2414
 440	1	8	0.075653	46.6742	-13.0214	84.8722
 441	1	8	0.063017	45.8479	-13.3756	86.4015
 442	1	7	-0.003396	43.5284	-14.5598	85.2746
 443	1	7	0.23166	43.284	-16.0881	85.464
 444	1	8	0.003166	42.7386	-14.0918	84.6734
 445	1	8	0.018046	43.4977	-14.0701	86.2571
 446	1	3	0.065056	44.7004	-16.6359	85.4593
 447	1	7	-0.138879	42.4775	-16.6722	84.2793
 448	1	7	-0.25744	42.5484	-16.3774	86.7958
 449	1	3	0.018858	45.6133	-15.6847	85.026
 450	1	8	0.063111	42.374	-17.4528	86.9242
 451	1	8	0.056661	41.5751	-15.8716	86.8222
 452	1	8	0.052049	43.1383	-16.0277	87.6527
 453	1	3	-0.499719	45.1177	-17.9324	85.8095
 454	1	3	-0.078325	46.9755	-15.9995	84.9304
 455	1	3	-0.430686	47.3939	-17.3035	85.251
 456	1	3	0.29919	46.4828	-18.2911	85.7039
 457	1	6	0.134637	47.6895	-15.2564	84.5832
 458	1	8	0.0139	41.4703	-16.2385	84.2385
 459	1	8	0.03702	42.3745	-17.7604	84.377
 460	1	8	0.035416	42.9742	-16.4672	83.3226
 461	1	6	0.223374	44.379	-18.6608	86.1339
 462	1	6	0.198405	48.4498	-17.5454	85.1536
 463	1	1	0.464138	36.8594	-3.04721	49.8464
 464	1	2	0.077422	37.4774	-4.28213	49.6343
 465	1	3	0.04486	37.1966	-5.07488	50.8579
 466	1	2	0.055008	36.2288	-2.97166	51.0905
 467	1	3	-0.004417	36.4565	-4.29385	51.7231
 468	1	5	-0.392499	38.0901	-4.67232	48.6534
 469	1	5	-0.37854	35.6019	-2.045	51.5774
 470	1	3	-0.044101	37.5415	-6.39469	51.173
 471	1	3	-0.056346	36.0103	-4.7861	52.9524
 472	1	3	-0.157726	36.3471	-6.1121	53.2931
 473	1	3	-0.13238	37.13	-6.92031	52.4209
 474	1	6	0.167375	38.1102	-6.99486	50.4643
 475	1	6	0.161059	35.4084	-4.16192	53.61
 476	1	6	0.140064	35.9722	-6.51414	54.2317
 477	1	2	0.57844	37.4828	-8.34861	52.7636
 478	1	3	-0.037172	37.5552	-8.7669	54.2109
 479	1	3	-0.116011	38.0381	-7.87514	55.198
 480	1	3	-0.048223	38.0244	-8.29228	56.5333
 481	1	3	-0.138147	37.1377	-10.0691	54.592
 482	1	3	-0.114262	37.1387	-10.4699	55.9452
 483	1	3	-0.063397	37.5789	-9.54532	56.9008
 484	1	2	0.489233	37.6297	-9.63479	58.3858
 485	1	1	-0.081676	38.0906	-8.39756	58.8217
 486	1	2	0.489742	38.3795	-7.54403	57.7639
 487	1	3	0.047265	38.1846	-8.01322	60.1884
 488	1	3	-0.183349	37.6705	-6.77322	60.6034
 489	1	3	-0.091111	37.7731	-6.37085	61.9425
 490	1	3	-0.18836	38.7796	-8.85636	61.1439
 491	1	3	-0.138837	38.8823	-8.453	62.4879
 492	1	3	0.044906	38.3954	-7.19341	62.9028
 493	1	6	0.157291	37.1988	-6.10738	59.8857
 494	1	6	0.112962	37.3678	-5.40564	62.2299
 495	1	6	0.163228	36.7899	-11.4566	56.246
 496	1	6	0.134491	36.785	-10.7618	53.8302
 497	1	6	0.172124	38.3975	-6.87867	54.9458
 498	1	5	-0.48162	38.7722	-6.39069	57.8038
 499	1	5	-0.478641	37.2722	-10.5854	59.0593
 500	1	5	-0.498568	37.686	-9.15835	51.874
 501	1	6	0.153588	39.163	-9.82978	60.8467
 502	1	6	0.146442	39.3457	-9.13177	63.1979
 503	1	7	0.027303	38.5158	-6.69196	64.354
 504	1	7	-0.256739	39.1485	-5.27319	64.3999
 505	1	8	0.074408	39.3565	-4.97227	65.4355
 506	1	8	0.075653	38.4867	-4.51428	63.9663
 507	1	8	0.063017	40.0971	-5.24937	63.8487
 508	1	7	-0.003396	37.1197	-6.68656	65.0589
 509	1	7	0.23166	37.0729	-7.8765	66.0657
 510	1	8	0.003166	36.2919	-6.73221	64.3388
 511	1	8	0.018046	36.9939	-5.7451	65.6102
 512	1	3	0.065056	38.5449	-8.20628	66.2386
 513	1	7	-0.138879	36.3302	-9.08952	65.4543
 514	1	7	-0.25744	36.3946	-7.46247	67.3954
 515	1	3	0.018858	39.3225	-7.6107	65.257
 516	1	8	0.063111	36.3569	-8.3048	68.0972
 517	1	8	0.056661	35.3654	-7.12505	67.2196
 518	1	8	0.052049	36.9452	-6.64505	67.878
 519	1	3	-0.499719	39.1346	-8.97196	67.2586
 520	1	3	-0.078325	40.7085	-7.81876	65.2257
 521	1	3	-0.430686	41.3007	-8.61033	66.228
 522	1	3	0.29919	40.5365	-9.16718	67.2845
 523	1	6	0.134637	41.3175	-7.34853	64.4567
 524	1	8	0.0139	36.3606	-9.94991	66.1352
 525	1	8	0.03702	36.7885	-9.3966	64.5057
 526	1	8	0.035416	35.2777	-8.84863	65.26
 527	1	6	0.223374	38.5041	-9.38791	68.0399
 528	1	6	0.198405	42.381	-8.7367	66.2165
 529	1	1	0.464138	36.4869	-5.54864	29.3981
 530	1	2	0.077422	36.3795	-4.20532	29.7582
 531	1	3	0.04486	36.598	-4.17867	31.2281
 532	1	2	0.055008	36.7401	-6.38103	30.4901
 533	1	3	-0.004417	36.8063	-5.47336	31.6625
 534	1	5	-0.392499	36.1659	-3.2409	29.0414
 535	1	5	-0.37854	36.8818	-7.59318	30.5102
 536	1	3	-0.044101	36.631	-3.09592	32.1151
 537	1	3	-0.056346	37.0592	-5.76256	33.0071
 538	1	3	-0.157726	37.0932	-4.68763	33.9196
 539	1	3	-0.13238	36.8645	-3.35186	33.4884
 540	1	6	0.167375	36.4837	-2.08253	31.7444
 541	1	6	0.161059	37.2396	-6.78713	33.3258
 542	1	6	0.140064	37.326	-4.89632	34.9613
 543	1	2	0.57844	36.9371	-2.18267	34.4414
 544	1	3	-0.037172	36.575	-2.34756	35.899
 545	1	3	-0.116011	37.1408	-1.46144	36.8471
 546	1	3	-0.048223	36.7563	-1.57922	38.1894
 547	1	3	-0.138147	35.6189	-3.30789	36.3298
 548	1	3	-0.114262	35.2475	-3.40901	37.6868
 549	1	3	-0.063397	35.8396	-2.52588	38.5975
 550	1	2	0.489233	35.6086	-2.34949	40.056
 551	1	1	-0.081676	36.4056	-1.27692	40.4393
 552	1	2	0.489742	37.1428	-0.76892	39.3749
 553	1	3	0.047265	36.4266	-0.728532	41.7541
 554	1	3	-0.183349	36.3318	0.660969	41.9463
 555	1	3	-0.091111	36.3453	1.20728	43.2398
 556	1	3	-0.18836	36.521	-1.56146	42.8832
 557	1	3	-0.138837	36.5336	-1.01462	44.1782
 558	1	3	0.044906	36.4597	0.383234	44.3782
 559	1	6	0.157291	36.2526	1.32613	41.0905
 560	1	6	0.112962	36.2634	2.28367	43.352
 561	1	6	0.163228	34.5031	-4.12987	38.0212
 562	1	6	0.134491	35.131	-3.95742	35.6072
 563	1	6	0.172124	37.8462	-0.687819	36.544
 564	1	5	-0.48162	37.926	0.165292	39.3779
 565	1	5	-0.478641	34.8405	-3.00321	40.7407
 566	1	5	-0.498568	37.2825	-1.08955	34.0238
 567	1	6	0.153588	36.5776	-2.64118	42.7626
 568	1	6	0.146442	36.5961	-1.6985	45.0197
 569	1	7	0.027303	36.4771	1.02017	45.7846
 570	1	7	-0.256739	37.5148	2.17274	45.8727
 571	1	8	0.074408	37.6106	2.53297	46.9057
 572	1	8	0.075653	37.2238	3.02904	45.252
 573	1	8	0.063017	38.5053	1.83646	45.5409
 574	1	7	-0.003396	35.0517	1.53081	46.173
 575	1	7	0.23166	34.3982	0.4835	47.127
 576	1	8	0.003166	34.4266	1.72534	45.2917
 577	1	8	0.018046	35.1427	2.48942	46.7013
 578	1	3	0.065056	35.5991	-0.320829	47.5933
 579	1	7	-0.138879	33.4052	-0.426175	46.3654
 580	1	7	-0.25744	33.6734	1.17951	48.3058
 581	1	3	0.018858	36.7441	-0.00218057	46.8767
 582	1	8	0.063111	32.8702	1.83258	47.942
 583	1	8	0.056661	34.3733	1.79221	48.8884
 584	1	8	0.052049	33.2283	0.442846	48.9859
 585	1	3	-0.499719	35.6237	-1.31575	48.5854
 586	1	3	-0.078325	37.9595	-0.646391	47.1504
 587	1	3	-0.430686	37.9925	-1.63761	48.1497
 588	1	3	0.29919	36.8286	-1.9969	48.8729
 589	1	6	0.134637	38.8508	-0.405324	46.5758
 590	1	8	0.0139	32.9923	-1.19459	47.0319
 591	1	8	0.03702	33.8987	-0.936197	45.5288
 592	1	8	0.035416	32.5681	0.157513	45.9621
 593	1	6	0.223374	34.7116	-1.55921	49.125
 594	1	6	0.198405	38.9275	-2.15989	48.3423
 595	1	1	0.464138	40.6413	0.913475	11.6143
 596	1	2	0.077422	39.5953	1.61996	12.2134
 597	1	3	0.04486	38.8154	0.606006	12.9642
 598	1	2	0.055008	40.6062	-0.450038	11.9228
 599	1	3	-0.004417	39.4159	-0.624927	12.7965
 600	1	5	-0.392499	39.332	2.80961	12.139
 601	1	5	-0.37854	41.3667	-1.33447	11.5648
 602	1	3	-0.044101	37.6395	0.755527	13.7066
 603	1	3	-0.056346	38.8765	-1.78083	13.3731
 604	1	3	-0.157726	37.6903	-1.65509	14.1298
 605	1	3	-0.13238	37.0634	-0.390056	14.3059
 606	1	6	0.167375	37.1745	1.737	13.7931
 607	1	6	0.161059	39.352	-2.74697	13.216
 608	1	6	0.140064	37.2416	-2.55578	14.5424
 609	1	2	0.57844	35.7458	-0.232545	15.0275
 610	1	3	-0.037172	35.2603	-1.28784	15.989
 611	1	3	-0.116011	36.1331	-1.89594	16.9245
 612	1	3	-0.048223	35.5933	-2.82109	17.8314
 613	1	3	-0.138147	33.8797	-1.61511	16.0057
 614	1	3	-0.114262	33.3617	-2.55877	16.9147
 615	1	3	-0.063397	34.251	-3.14742	17.8207
 616	1	2	0.489233	33.9985	-4.12439	18.9128
 617	1	1	-0.081676	35.2239	-4.31641	19.5372
 618	1	2	0.489742	36.2376	-3.57363	18.9425
 619	1	3	0.047265	35.4105	-5.16638	20.6629
 620	1	3	-0.183349	34.9571	-6.49584	20.6355
 621	1	3	-0.091111	35.1483	-7.33818	21.7436
 622	1	3	-0.18836	36.047	-4.6893	21.8216
 623	1	3	-0.138837	36.2358	-5.53157	22.9315
 624	1	3	0.044906	35.7823	-6.86809	22.9146
 625	1	6	0.157291	34.4544	-6.88216	19.7524
 626	1	6	0.112962	34.8034	-8.36373	21.6726
 627	1	6	0.163228	32.3025	-2.8087	16.9313
 628	1	6	0.134491	33.2057	-1.12224	15.3076
 629	1	6	0.172124	37.1887	-1.63418	16.9746
 630	1	5	-0.48162	37.4165	-3.52631	19.2479
 631	1	5	-0.478641	32.9266	-4.63697	19.1852
 632	1	5	-0.498568	35.0458	0.740011	14.7965
 633	1	6	0.153588	36.408	-3.66443	21.8596
 634	1	6	0.146442	36.7513	-5.14	23.8043
 635	1	7	0.027303	36.0528	-7.80076	24.1145
 636	1	7	-0.256739	35.0235	-8.96022	24.2299
 637	1	8	0.074408	35.1259	-9.68168	23.4101
 638	1	8	0.075653	33.9968	-8.57215	24.2216
 639	1	8	0.063017	35.1579	-9.51602	25.1667
 640	1	7	-0.003396	37.5057	-8.36963	24.0309
 641	1	7	0.23166	38.1688	-8.25823	25.4402
 642	1	8	0.003166	38.084	-7.77633	23.3095
 643	1	8	0.018046	37.5204	-9.4009	23.6544
 644	1	3	0.065056	37.2109	-7.34783	26.1889
 645	1	7	-0.138879	39.5813	-7.63095	25.3421
 646	1	7	-0.25744	38.2616	-9.64276	26.1263
 647	1	3	0.018858	36.0688	-7.07113	25.449
 648	1	8	0.063111	38.9111	-10.3192	25.557
 649	1	8	0.056661	37.2727	-10.109	26.2102
 650	1	8	0.052049	38.6747	-9.5491	27.1383
 651	1	3	-0.499719	37.37	-6.83952	27.4898
 652	1	3	-0.078325	35.0577	-6.25481	25.9792
 653	1	3	-0.430686	35.2182	-5.72947	27.2775