pySIMM System Object

1520 atoms
1680 bonds
2967 angles
4757 dihedrals
483 impropers

8 atom types
10 bond types
17 angle types
9 dihedral types
4 improper types

-171.546714 171.546714 xlo xhi
-171.546714 171.546714 ylo yhi
-171.546714 171.546714 zlo zhi

Masses

   1	14.01	# n
   2	12.01	# c
   3	12.01	# ca
   4	1.008	# hn
   5	16.0	# o
   6	1.008	# ha
   7	12.01	# c3
   8	1.008	# hc

Pair Coeffs

   1	0.17	3.249998523775958	# n
   2	0.086	3.3996695084235347	# c
   3	0.086	3.3996695084235347	# ca
   4	0.0157	1.069078461768407	# hn
   5	0.21	2.959921901149463	# o
   6	0.015	2.59964245953351	# ha
   7	0.1094	3.3996695084235347	# c3
   8	0.0157	2.649532787749369	# hc

Bond Coeffs

   1	427.6	1.3789	# c,n
   2	461.1	1.3984	# ca,ca
   3	345.9	1.4906	# c,ca
   4	300.9	1.5375	# c3,c3
   5	345.8	1.086	# ca,ha
   6	384.2	1.4121	# ca,n
   7	637.7	1.2183	# c,o
   8	321.0	1.5156	# c3,ca
   9	330.6	1.0969	# c3,hc
  10	403.2	1.0129	# hn,n

Angle Coeffs

   1	63.82	123.71	# c,n,ca
   2	67.87	120.19	# ca,ca,n
   3	67.68	115.25	# ca,c,n
   4	63.15	112.07	# c3,c3,ca
   5	63.0	118.11	# ca,c,ca
   6	63.56	112.24	# ca,c3,ca
   7	46.34	109.8	# c3,c3,hc
   8	48.33	117.55	# c,n,hn
   9	74.22	123.05	# n,c,o
  10	64.28	120.33	# c,ca,ca
  11	39.4	107.58	# hc,c3,hc
  12	66.62	120.02	# ca,ca,ca
  13	63.53	120.77	# c3,ca,ca
  14	62.86	111.51	# c3,c3,c3
  15	63.74	127.08	# c,n,c
  16	48.18	119.88	# ca,ca,ha
  17	68.72	122.6	# ca,c,o

Dihedral Coeffs

   1	2	2.5	2	180	2.0	1	0	# hn,n,c,o
   2	1	3.625	2	180	# X,ca,ca,X
   3	1	0.16	3	0	# hc,c3,c3,c3
   4	1	1.0	2	180	# X,c,ca,X
   5	1	0.15555555555555556	3	0	# X,c3,c3,X
   6	1	0.0	2	0	# X,c3,ca,X
   7	3	0.18	3	0	0.25	2	180	0.2	1	180	# c3,c3,c3,c3
   8	1	2.5	2	180	# X,c,n,X
   9	1	0.45	2	180	# X,ca,n,X

Improper Coeffs

   1	1.1	-1	2	# ca,ca,ca,c3
   2	1.1	-1	2	# n,X,X,hn
   3	1.1	-1	2	# ca,X,X,ha
   4	10.5	-1	2	# c,X,X,o

Atoms

   1	1	1	0.464138	-25.3808	-3.06629	-82.0372
   2	1	2	0.077422	-24.7585	-2.88903	-83.2787
   3	1	3	0.04486	-25.2379	-4.00912	-84.1262
   4	1	2	0.055008	-26.2123	-4.18936	-82.019
   5	1	3	-0.004417	-26.1065	-4.77938	-83.3783
   6	1	5	-0.392499	-23.9864	-2.0129	-83.6349
   7	1	5	-0.37854	-26.8759	-4.63403	-81.0969
   8	1	3	-0.044101	-24.9342	-4.32036	-85.4585
   9	1	3	-0.056346	-26.7381	-5.90219	-83.9228
  10	1	3	-0.157726	-26.4523	-6.23233	-85.2638
  11	1	3	-0.13238	-25.539	-5.46425	-86.0328
  12	1	6	0.167375	-24.2616	-3.68049	-86.0263
  13	1	6	0.161059	-27.4316	-6.49142	-83.3263
  14	1	6	0.140064	-26.9409	-7.09453	-85.7155
  15	1	2	0.57844	-25.2828	-5.84857	-87.4683
  16	1	3	-0.037172	-23.8686	-5.94293	-88.0004
  17	1	3	-0.116011	-23.6747	-6.14116	-89.3905
  18	1	3	-0.048223	-22.3724	-6.33705	-89.8706
  19	1	3	-0.138147	-22.7363	-5.94363	-87.1386
  20	1	3	-0.114262	-21.4335	-6.13823	-87.6443
  21	1	3	-0.063397	-21.285	-6.34188	-89.0215
  22	1	2	0.489233	-20.0752	-6.67636	-89.8198
  23	1	1	-0.081676	-20.522	-6.86972	-91.1213
  24	1	2	0.489742	-21.8896	-6.6575	-91.2421
  25	1	3	0.047265	-19.6912	-7.32113	-92.1849
  26	1	3	-0.183349	-18.9053	-8.47408	-92.022
  27	1	3	-0.091111	-18.0942	-8.93914	-93.0692
  28	1	3	-0.18836	-19.6606	-6.64765	-93.4188
  29	1	3	-0.138837	-18.8424	-7.11028	-94.4665
  30	1	3	0.044906	-18.0356	-8.25949	-94.3037
  31	1	6	0.157291	-18.9208	-9.01434	-91.0788
  32	1	6	0.112962	-17.5093	-9.84028	-92.9149
  33	1	6	0.163228	-20.5677	-6.17167	-86.9848
  34	1	6	0.134491	-22.8587	-5.84423	-86.0637
  35	1	6	0.172124	-24.5201	-6.18608	-90.0768
  36	1	5	-0.48162	-22.581	-6.76278	-92.24
  37	1	5	-0.478641	-18.9466	-6.81943	-89.3819
  38	1	5	-0.498568	-26.2241	-6.17355	-88.173
  39	1	6	0.153588	-20.2801	-5.76708	-93.5712
  40	1	6	0.146442	-18.8532	-6.56784	-95.4077
  41	1	7	0.027303	-17.1246	-8.8007	-95.4263
  42	1	7	-0.256739	-15.6891	-9.07999	-94.9001
  43	1	8	0.074408	-15.2801	-8.19817	-94.3912
  44	1	8	0.075653	-15.0129	-9.33365	-95.7272
  45	1	8	0.063017	-15.6688	-9.9174	-94.1927
  46	1	7	-0.003396	-17.7399	-10.0929	-96.0558
  47	1	7	0.23166	-18.3705	-9.71922	-97.4341
  48	1	8	0.003166	-18.4722	-10.5679	-95.3892
  49	1	8	0.018046	-16.9444	-10.8337	-96.2122
  50	1	3	0.065056	-17.7215	-8.38015	-97.7358
  51	1	7	-0.138879	-19.905	-9.55602	-97.32
  52	1	7	-0.25744	-18.0341	-10.7826	-98.5089
  53	1	3	0.018858	-17.0447	-7.87592	-96.631
  54	1	8	0.063111	-16.9482	-10.8762	-98.6385
  55	1	8	0.056661	-18.465	-10.5105	-99.4802
  56	1	8	0.052049	-18.4306	-11.7657	-98.2255
  57	1	3	-0.499719	-17.7553	-7.66628	-98.9481
  58	1	3	-0.078325	-16.3718	-6.64516	-96.7053
  59	1	3	-0.430686	-16.4008	-5.92889	-97.9179
  60	1	3	0.29919	-17.0876	-6.43478	-99.0364
  61	1	6	0.134637	-15.8425	-6.25485	-95.8394
  62	1	8	0.0139	-20.1681	-8.80859	-96.5612
  63	1	8	0.03702	-20.3816	-10.5044	-97.0419
  64	1	8	0.035416	-20.3333	-9.22926	-98.276
  65	1	6	0.223374	-18.2864	-8.05702	-99.8095
  66	1	6	0.198405	-15.8873	-4.97605	-97.9989
  67	1	1	0.464138	-30.9999	0.593598	-61.5144
  68	1	2	0.077422	-31.1359	-0.348234	-62.5285
  69	1	3	0.04486	-30.2562	0.13146	-63.6169
  70	1	2	0.055008	-30.104	1.61519	-61.8359
  71	1	3	-0.004417	-29.6305	1.29304	-63.2111
  72	1	5	-0.392499	-31.848	-1.33886	-62.5585
  73	1	5	-0.37854	-29.7917	2.58795	-61.1693
  74	1	3	-0.044101	-30.0816	-0.390443	-64.8977
  75	1	3	-0.056346	-28.7701	1.98877	-64.0715
  76	1	3	-0.157726	-28.5725	1.47581	-65.3757
  77	1	3	-0.13238	-29.226	0.284013	-65.7977
  78	1	6	0.167375	-30.6322	-1.28189	-65.1955
  79	1	6	0.161059	-28.3022	2.91632	-63.7474
  80	1	6	0.140064	-27.9544	2.03913	-66.0714
  81	1	2	0.57844	-29.1724	-0.242743	-67.2109
  82	1	3	-0.037172	-27.9746	-0.0575555	-68.112
  83	1	3	-0.116011	-28.1827	-0.202136	-69.5029
  84	1	3	-0.048223	-27.0857	-0.117006	-70.362
  85	1	3	-0.138147	-26.6545	0.157806	-67.6279
  86	1	3	-0.114262	-25.5593	0.252333	-68.5186
  87	1	3	-0.063397	-25.8093	0.10896	-69.8919
  88	1	2	0.489233	-24.8956	0.160049	-71.0703
  89	1	1	-0.081676	-25.7059	-0.0382425	-72.1841
  90	1	2	0.489742	-27.0354	-0.226464	-71.8393
  91	1	3	0.047265	-25.2763	0.0616756	-73.5351
  92	1	3	-0.183349	-24.6	1.21135	-73.9707
  93	1	3	-0.091111	-24.3133	1.38952	-75.3325
  94	1	3	-0.18836	-25.6168	-0.927915	-74.4759
  95	1	3	-0.138837	-25.3192	-0.753435	-75.8402
  96	1	3	0.044906	-24.6928	0.427587	-76.2927
  97	1	6	0.157291	-24.3229	1.98465	-73.2589
  98	1	6	0.112962	-23.8067	2.29744	-75.6458
  99	1	6	0.163228	-24.5456	0.414482	-68.1557
 100	1	6	0.134491	-26.4666	0.221237	-66.559
 101	1	6	0.172124	-29.1759	-0.390356	-69.9101
 102	1	5	-0.48162	-27.9913	-0.388797	-72.5779
 103	1	5	-0.478641	-23.6989	0.390545	-71.0446
 104	1	5	-0.498568	-30.141	-0.851373	-67.6375
 105	1	6	0.153588	-26.1498	-1.82007	-74.1557
 106	1	6	0.146442	-25.6051	-1.53443	-76.537
 107	1	7	0.027303	-24.4102	0.718903	-77.78
 108	1	7	-0.256739	-25.1434	2.01781	-78.2127
 109	1	8	0.074408	-24.7938	2.89244	-77.6514
 110	1	8	0.075653	-26.2247	1.92655	-78.0465
 111	1	8	0.063017	-24.9846	2.2225	-79.2795
 112	1	7	-0.003396	-22.8681	0.856135	-78.0028
 113	1	7	0.23166	-22.4418	-0.0476503	-79.2
 114	1	8	0.003166	-22.329	0.543681	-77.0984
 115	1	8	0.018046	-22.5848	1.90342	-78.1725
 116	1	3	0.065056	-23.722	-0.779987	-79.5538
 117	1	7	-0.138879	-21.3324	-1.04194	-78.7802
 118	1	7	-0.25744	-21.9565	0.813504	-80.3919
 119	1	3	0.018858	-24.7926	-0.380429	-78.7654
 120	1	8	0.063111	-21.6935	0.183644	-81.2509
 121	1	8	0.056661	-21.0709	1.40055	-80.118
 122	1	8	0.052049	-22.7415	1.50935	-80.7148
 123	1	3	-0.499719	-23.8957	-1.68936	-80.6121
 124	1	3	-0.078325	-26.0824	-0.86472	-79.0396
 125	1	3	-0.430686	-26.2643	-1.77377	-80.1024
 126	1	3	0.29919	-25.1803	-2.195	-80.9124
 127	1	6	0.134637	-26.9323	-0.520006	-78.4542
 128	1	8	0.0139	-21.6705	-1.67739	-77.9513
 129	1	8	0.03702	-20.4313	-0.507489	-78.4537
 130	1	8	0.035416	-21.0549	-1.69728	-79.615
 131	1	6	0.223374	-23.0431	-1.95393	-81.2318
 132	1	6	0.198405	-27.2663	-2.14258	-80.3126
 133	1	1	0.464138	-32.3032	2.84156	-40.2569
 134	1	2	0.077422	-31.7065	1.67873	-40.7466
 135	1	3	0.04486	-32.107	1.60839	-42.1736
 136	1	2	0.055008	-33.0609	3.50581	-41.2229
 137	1	3	-0.004417	-32.9109	2.69528	-42.4573
 138	1	5	-0.392499	-30.9925	0.881093	-40.1605
 139	1	5	-0.37854	-33.688	4.5473	-41.118
 140	1	3	-0.044101	-31.7614	0.673555	-43.1555
 141	1	3	-0.056346	-33.4302	2.90498	-43.7385
 142	1	3	-0.157726	-33.0901	1.97954	-44.747
 143	1	3	-0.13238	-32.235	0.875867	-44.4724
 144	1	6	0.167375	-31.1241	-0.173474	-42.9055
 145	1	6	0.161059	-34.071	3.76084	-43.9413
 146	1	6	0.140064	-33.5002	2.12202	-45.7448
 147	1	2	0.57844	-31.8395	-0.109014	-45.5445
 148	1	3	-0.037172	-31.6938	0.359091	-46.9712
 149	1	3	-0.116011	-31.947	-0.548794	-48.0267
 150	1	3	-0.048223	-31.8693	-0.0773406	-49.3443
 151	1	3	-0.138147	-31.3045	1.69231	-47.2741
 152	1	3	-0.114262	-31.2391	2.14607	-48.6062
 153	1	3	-0.063397	-31.545	1.23421	-49.622
 154	1	2	0.489233	-31.6844	1.44883	-51.0838
 155	1	1	-0.081676	-32.1228	0.23548	-51.6063
 156	1	2	0.489742	-32.205	-0.750813	-50.6267
 157	1	3	0.047265	-32.602	0.0863745	-52.9419
 158	1	3	-0.183349	-33.7981	-0.611854	-53.1909
 159	1	3	-0.091111	-34.3627	-0.637247	-54.4752
 160	1	3	-0.18836	-31.9644	0.732121	-54.0172
 161	1	3	-0.138837	-32.5366	0.718808	-55.3001
 162	1	3	0.044906	-33.75	0.0422888	-55.5476
 163	1	6	0.157291	-34.3217	-1.1133	-52.3815
 164	1	6	0.112962	-35.3028	-1.1602	-54.6116
 165	1	6	0.163228	-30.9858	3.17773	-48.8449
 166	1	6	0.134491	-31.0652	2.38852	-46.4737
 167	1	6	0.172124	-32.2399	-1.57893	-47.8256
 168	1	5	-0.48162	-32.5711	-1.90757	-50.7451
 169	1	5	-0.478641	-31.558	2.52007	-51.6521
 170	1	5	-0.498568	-31.6404	-1.27694	-45.2546
 171	1	6	0.153588	-31.0483	1.29465	-53.8535
 172	1	6	0.146442	-32.0477	1.27519	-56.0957
 173	1	7	0.027303	-34.4227	0.143045	-56.9298
 174	1	7	-0.256739	-35.4137	-1.01713	-57.2253
 175	1	8	0.074408	-34.933	-1.99155	-57.0696
 176	1	8	0.075653	-35.76	-0.984319	-58.266
 177	1	8	0.063017	-36.3033	-0.964724	-56.5858
 178	1	7	-0.003396	-35.1377	1.52509	-57.0745
 179	1	7	0.23166	-34.7605	2.13791	-58.46
 180	1	8	0.003166	-34.7939	2.19638	-56.2759
 181	1	8	0.018046	-36.2249	1.43877	-56.9476
 182	1	3	0.065056	-33.5831	1.27965	-58.8926
 183	1	7	-0.138879	-34.3658	3.62856	-58.3238
 184	1	7	-0.25744	-35.933	1.99947	-59.4622
 185	1	3	0.018858	-33.4045	0.188188	-58.0525
 186	1	8	0.063111	-35.6481	2.37875	-60.4514
 187	1	8	0.056661	-36.8093	2.56522	-59.1215
 188	1	8	0.052049	-36.2309	0.95056	-59.5798
 189	1	3	-0.499719	-32.763	1.46086	-60.0211
 190	1	3	-0.078325	-32.398	-0.754426	-58.3022
 191	1	3	-0.430686	-31.578	-0.583805	-59.4325
 192	1	3	0.29919	-31.7537	0.51451	-60.3068
 193	1	6	0.134637	-32.2772	-1.61468	-57.6473
 194	1	8	0.0139	-34.0973	4.05649	-59.2978
 195	1	8	0.03702	-33.5032	3.74574	-57.6553
 196	1	8	0.035416	-35.1969	4.21639	-57.9136
 197	1	6	0.223374	-32.9298	2.30461	-60.6853
 198	1	6	0.198405	-30.8281	-1.3375	-59.6605
 199	1	1	0.464138	-31.4887	20.4661	-30.8787
 200	1	2	0.077422	-31.5853	19.4298	-31.8166
 201	1	3	0.04486	-30.2885	18.7092	-31.7451
 202	1	2	0.055008	-30.229	20.502	-30.2672
 203	1	3	-0.004417	-29.4795	19.3551	-30.8333
 204	1	5	-0.392499	-32.534	19.1046	-32.5125
 205	1	5	-0.37854	-29.8318	21.2218	-29.3654
 206	1	3	-0.044101	-29.8862	17.5218	-32.3698
 207	1	3	-0.056346	-28.2051	18.8753	-30.5145
 208	1	3	-0.157726	-27.7783	17.6821	-31.1312
 209	1	3	-0.13238	-28.6223	16.9793	-32.0299
 210	1	6	0.167375	-30.5546	17.026	-33.0711
 211	1	6	0.161059	-27.5806	19.3965	-29.792
 212	1	6	0.140064	-26.7972	17.2774	-30.8861
 213	1	2	0.57844	-28.1531	15.6653	-32.6026
 214	1	3	-0.037172	-29.1035	14.4901	-32.681
 215	1	3	-0.116011	-28.7405	13.3587	-33.4549
 216	1	3	-0.048223	-29.6037	12.253	-33.4788
 217	1	3	-0.138147	-30.3128	14.4562	-31.9316
 218	1	3	-0.114262	-31.1712	13.3409	-31.9794
 219	1	3	-0.063397	-30.7863	12.2523	-32.7678
 220	1	2	0.489233	-31.4345	10.9294	-32.9416
 221	1	1	-0.081676	-30.5722	10.1867	-33.7379
 222	1	2	0.489742	-29.4579	10.919	-34.1293
 223	1	3	0.047265	-30.7837	8.81067	-34.0293
 224	1	3	-0.183349	-30.7536	8.32024	-35.3473
 225	1	3	-0.091111	-31.0511	6.96888	-35.6125
 226	1	3	-0.18836	-31.0764	7.92417	-32.9803
 227	1	3	-0.138837	-31.3757	6.581	-33.2444
 228	1	3	0.044906	-31.3838	6.0829	-34.5622
 229	1	6	0.157291	-30.5201	8.99038	-36.171
 230	1	6	0.112962	-31.0493	6.62996	-36.6442
 231	1	6	0.163228	-32.0906	13.3045	-31.3969
 232	1	6	0.134491	-30.5829	15.2774	-31.2739
 233	1	6	0.172124	-27.7982	13.3295	-34.0016
 234	1	5	-0.48162	-28.5194	10.55	-34.8129
 235	1	5	-0.478641	-32.4817	10.5761	-32.4269
 236	1	5	-0.498568	-26.9838	15.5321	-32.9234
 237	1	6	0.153588	-31.1092	8.28437	-31.9551
 238	1	6	0.146442	-31.6386	5.93168	-32.415
 239	1	7	0.027303	-31.8172	4.62258	-34.7974
 240	1	7	-0.256739	-30.9634	3.64429	-33.9446
 241	1	8	0.074408	-31.1941	2.60104	-34.198
 242	1	8	0.075653	-31.1488	3.77025	-32.8714
 243	1	8	0.063017	-29.8922	3.80351	-34.122
 244	1	7	-0.003396	-33.3377	4.46429	-34.4674
 245	1	7	0.23166	-34.1323	4.51144	-35.8077
 246	1	8	0.003166	-33.6983	5.2175	-33.7548
 247	1	8	0.018046	-33.4994	3.4879	-33.9915
 248	1	3	0.065056	-33.0628	4.11672	-36.8102
 249	1	7	-0.138879	-34.6494	5.93874	-36.1112
 250	1	7	-0.25744	-35.3221	3.52022	-35.7826
 251	1	3	0.018858	-31.79	4.1965	-36.2578
 252	1	8	0.063111	-36.018	3.76925	-34.9715
 253	1	8	0.056661	-34.9725	2.49136	-35.6289
 254	1	8	0.052049	-35.8802	3.54949	-36.7265
 255	1	3	-0.499719	-33.2516	3.68774	-38.1357
 256	1	3	-0.078325	-30.6634	3.84121	-37.0138
 257	1	3	-0.430686	-30.8461	3.40155	-38.3389
 258	1	3	0.29919	-32.1358	3.31225	-38.9166
 259	1	6	0.134637	-29.6692	3.8873	-36.5753
 260	1	8	0.0139	-35.1491	5.972	-37.0879
 261	1	8	0.03702	-33.828	6.66469	-36.1327
 262	1	8	0.035416	-35.3696	6.26584	-35.3509
 263	1	6	0.223374	-34.254	3.64459	-38.5543
 264	1	6	0.198405	-29.9765	3.09893	-38.9184
 265	1	1	0.464138	-41.6474	11.4672	-18.5235
 266	1	2	0.077422	-40.6798	11.7625	-19.4908
 267	1	3	0.04486	-40.0758	13.0522	-19.0657
 268	1	2	0.055008	-41.7236	12.4555	-17.5363
 269	1	3	-0.004417	-40.6975	13.4608	-17.9025
 270	1	5	-0.392499	-40.3734	11.1305	-20.4892
 271	1	5	-0.37854	-42.4854	12.5352	-16.5864
 272	1	3	-0.044101	-39.0528	13.8077	-19.6549
 273	1	3	-0.056346	-40.3303	14.6414	-17.2494
 274	1	3	-0.157726	-39.3078	15.4201	-17.8266
 275	1	3	-0.13238	-38.681	15.0259	-19.0357
 276	1	6	0.167375	-38.5661	13.4532	-20.5611
 277	1	6	0.161059	-40.82	14.9396	-16.3249
 278	1	6	0.140064	-38.9972	16.3432	-17.3388
 279	1	2	0.57844	-37.5958	15.901	-19.6041
 280	1	3	-0.037172	-37.7604	16.5194	-20.9751
 281	1	3	-0.116011	-36.8472	17.5249	-21.3814
 282	1	3	-0.048223	-37.0578	18.1733	-22.6058
 283	1	3	-0.138147	-38.846	16.1866	-21.8318
 284	1	3	-0.114262	-39.0128	16.8213	-23.077
 285	1	3	-0.063397	-38.1081	17.8274	-23.4284
 286	1	2	0.489233	-38.1025	18.7373	-24.5997
 287	1	1	-0.081676	-37.0471	19.6191	-24.3917
 288	1	2	0.489742	-36.3483	19.3258	-23.2243
 289	1	3	0.047265	-36.7139	20.6816	-25.2821
 290	1	3	-0.183349	-35.3697	20.9578	-25.5846
 291	1	3	-0.091111	-35.0398	21.942	-26.5265
 292	1	3	-0.18836	-37.7174	21.4461	-25.9092
 293	1	3	-0.138837	-37.387	22.4251	-26.8626
 294	1	3	0.044906	-36.041	22.6641	-27.2105
 295	1	6	0.157291	-34.5709	20.3839	-25.1225
 296	1	6	0.112962	-33.9926	22.0992	-26.7706
 297	1	6	0.163228	-39.851	16.5766	-23.7263
 298	1	6	0.134491	-39.5939	15.4607	-21.5333
 299	1	6	0.172124	-36.0307	17.8352	-20.7314
 300	1	5	-0.48162	-35.3845	19.9085	-22.7556
 301	1	5	-0.478641	-38.9032	18.7116	-25.5178
 302	1	5	-0.498568	-36.6474	16.2034	-18.898
 303	1	6	0.153588	-38.7676	21.2579	-25.6935
 304	1	6	0.146442	-38.1927	22.9588	-27.357
 305	1	7	0.027303	-35.6271	23.5706	-28.3883
 306	1	7	-0.256739	-36.811	24.1138	-29.2322
 307	1	8	0.074408	-37.4266	23.2945	-29.6254
 308	1	8	0.075653	-36.446	24.6922	-30.0907
 309	1	8	0.063017	-37.4527	24.7746	-28.6351
 310	1	7	-0.003396	-34.7137	24.7478	-27.9145
 311	1	7	0.23166	-33.3709	24.6858	-28.714
 312	1	8	0.003166	-34.5164	24.6555	-26.8381
 313	1	8	0.018046	-35.2091	25.7195	-28.0427
 314	1	3	0.065056	-33.4425	23.3306	-29.4003
 315	1	7	-0.138879	-32.1566	24.7876	-27.758
 316	1	7	-0.25744	-33.3016	25.8132	-29.7721
 317	1	3	0.018858	-34.6999	22.7619	-29.276
 318	1	8	0.063111	-32.3948	25.7187	-30.3826
 319	1	8	0.056661	-33.2892	26.801	-29.2945
 320	1	8	0.052049	-34.166	25.772	-30.4468
 321	1	3	-0.499719	-32.3891	22.6188	-30.0048
 322	1	3	-0.078325	-34.9539	21.4767	-29.7726
 323	1	3	-0.430686	-33.8969	20.7492	-30.3486
 324	1	3	0.29919	-32.5913	21.2907	-30.4565
 325	1	6	0.134637	-35.9339	21.0224	-29.6403
 326	1	8	0.0139	-32.1536	23.96	-27.0371
 327	1	8	0.03702	-32.1817	25.7289	-27.1947
 328	1	8	0.035416	-31.2114	24.7534	-28.3141
 329	1	6	0.223374	-31.3993	23.066	-30.0435
 330	1	6	0.198405	-34.093	19.73	-30.6729
 331	1	1	0.464138	-49.6382	16.1124	-20.5842
 332	1	2	0.077422	-50.1441	15.3819	-19.504
 333	1	3	0.04486	-51.5986	15.2663	-19.7611
 334	1	2	0.055008	-50.6561	16.5618	-21.4378
 335	1	3	-0.004417	-51.911	15.975	-20.9013
 336	1	5	-0.392499	-49.5458	14.8383	-18.5888
 337	1	5	-0.37854	-50.5595	17.1672	-22.4929
 338	1	3	-0.044101	-52.5363	14.4497	-19.128
 339	1	3	-0.056346	-53.2014	15.9468	-21.4473
 340	1	3	-0.157726	-54.1682	15.1254	-20.8247
 341	1	3	-0.13238	-53.8302	14.3399	-19.6927
 342	1	6	0.167375	-52.2315	13.8607	-18.2651
 343	1	6	0.161059	-53.4253	16.4947	-22.3603
 344	1	6	0.140064	-55.163	15.0426	-21.2601
 345	1	2	0.57844	-54.7834	13.3053	-19.1496
 346	1	3	-0.037172	-54.1535	12.0176	-18.6859
 347	1	3	-0.116011	-53.0859	11.4703	-19.4349
 348	1	3	-0.048223	-52.357	10.416	-18.8819
 349	1	3	-0.138147	-54.5152	11.4293	-17.4472
 350	1	3	-0.114262	-53.7641	10.3594	-16.9085
 351	1	3	-0.063397	-52.6662	9.88781	-17.6445
 352	1	2	0.489233	-51.5849	8.92777	-17.2773
 353	1	1	-0.081676	-50.6751	8.98012	-18.3248
 354	1	2	0.489742	-51.0869	9.81334	-19.3507
 355	1	3	0.047265	-49.374	8.42551	-18.2918
 356	1	3	-0.183349	-48.2979	9.24053	-17.9107
 357	1	3	-0.091111	-46.9806	8.7704	-18.0099
 358	1	3	-0.18836	-49.127	7.1193	-18.7404
 359	1	3	-0.138837	-47.8054	6.64724	-18.8374
 360	1	3	0.044906	-46.7101	7.47344	-18.5027
 361	1	6	0.157291	-48.4778	10.2584	-17.5746
 362	1	6	0.112962	-46.1802	9.45033	-17.7381
 363	1	6	0.163228	-53.9863	9.952	-15.9237
 364	1	6	0.134491	-55.3352	11.8547	-16.8712
 365	1	6	0.172124	-52.773	11.9017	-20.3849
 366	1	5	-0.48162	-50.4773	10.124	-20.3596
 367	1	5	-0.478641	-51.4679	8.342	-16.2158
 368	1	5	-0.498568	-55.9853	13.4982	-19.0933
 369	1	6	0.153588	-49.9536	6.48477	-19.0484
 370	1	6	0.146442	-47.6298	5.64437	-19.2157
 371	1	7	0.027303	-45.2697	6.9746	-18.7462
 372	1	7	-0.256739	-44.9623	5.73063	-17.8739
 373	1	8	0.074408	-43.9135	5.42414	-17.9798
 374	1	8	0.075653	-45.5921	4.87897	-18.159
 375	1	8	0.063017	-45.1468	5.94214	-16.813
 376	1	7	-0.003396	-45.049	6.67409	-20.2635
 377	1	7	0.23166	-44.5121	7.97781	-20.93
 378	1	8	0.003166	-45.9475	6.29437	-20.7656
 379	1	8	0.018046	-44.2869	5.88883	-20.3582
 380	1	3	0.065056	-43.8748	8.68035	-19.7413
 381	1	7	-0.138879	-45.6656	8.8208	-21.5264
 382	1	7	-0.25744	-43.482	7.65162	-22.0389
 383	1	3	0.018858	-44.2393	8.07697	-18.5436
 384	1	8	0.063111	-42.6226	7.107	-21.6275
 385	1	8	0.056661	-43.1035	8.56904	-22.5067
 386	1	8	0.052049	-43.9359	7.03322	-22.8236
 387	1	3	-0.499719	-43.02	9.79779	-19.7582
 388	1	3	-0.078325	-43.7083	8.53249	-17.3291
 389	1	3	-0.430686	-42.8316	9.63363	-17.3429
 390	1	3	0.29919	-42.4899	10.302	-18.546
 391	1	6	0.134637	-43.9938	8.06135	-16.3913
 392	1	8	0.0139	-46.2138	8.25144	-22.2877
 393	1	8	0.03702	-45.276	9.7262	-22.004
 394	1	8	0.035416	-46.3812	9.13053	-20.756
 395	1	6	0.223374	-42.7681	10.263	-20.7075
 396	1	6	0.198405	-42.4396	9.99621	-16.395
 397	1	1	0.464138	-30.7891	26.9298	-22.1576
 398	1	2	0.077422	-32.1148	27.3381	-22.3304
 399	1	3	0.04486	-32.8762	26.096	-22.603
 400	1	2	0.055008	-30.6366	25.5472	-22.318
 401	1	3	-0.004417	-32.0034	25.0272	-22.5863
 402	1	5	-0.392499	-32.5958	28.4553	-22.2259
 403	1	5	-0.37854	-29.6188	24.877	-22.2538
 404	1	3	-0.044101	-34.2464	25.923	-22.8167
 405	1	3	-0.056346	-32.4549	23.7147	-22.7773
 406	1	3	-0.157726	-33.8385	23.5119	-22.9763
 407	1	3	-0.13238	-34.7401	24.6104	-22.9852
 408	1	6	0.167375	-34.9118	26.7848	-22.8298
 409	1	6	0.161059	-31.7547	22.8819	-22.7624
 410	1	6	0.140064	-34.2098	22.4994	-23.1331
 411	1	2	0.57844	-36.2165	24.4296	-23.2114
 412	1	3	-0.037172	-36.9643	23.3106	-22.5274
 413	1	3	-0.116011	-38.2263	22.9342	-23.0385
 414	1	3	-0.048223	-38.9198	21.8924	-22.4134
 415	1	3	-0.138147	-36.4625	22.6564	-21.3688
 416	1	3	-0.114262	-37.1832	21.6117	-20.7503
 417	1	3	-0.063397	-38.4149	21.2435	-21.3067
 418	1	2	0.489233	-39.3487	20.1392	-20.954
 419	1	1	-0.081676	-40.354	20.1736	-21.9161
 420	1	2	0.489742	-40.1891	21.2334	-22.8026
 421	1	3	0.047265	-41.3552	19.1683	-22.0605
 422	1	3	-0.183349	-41.6674	18.6684	-23.3367
 423	1	3	-0.091111	-42.5942	17.6305	-23.4964
 424	1	3	-0.18836	-42.0149	18.6202	-20.9445
 425	1	3	-0.138837	-42.9558	17.5859	-21.1058
 426	1	3	0.044906	-43.2491	17.0626	-22.3828
 427	1	6	0.157291	-41.1795	19.0677	-24.2226
 428	1	6	0.112962	-42.7822	17.2781	-24.5046
 429	1	6	0.163228	-36.7834	21.0856	-19.8854
 430	1	6	0.134491	-35.5066	22.9505	-20.9431
 431	1	6	0.172124	-38.6404	23.4192	-23.9219
 432	1	5	-0.48162	-40.8614	21.5202	-23.7774
 433	1	5	-0.478641	-39.182	19.3189	-20.0673
 434	1	5	-0.498568	-36.8177	25.2417	-23.8965
 435	1	6	0.153588	-41.7915	18.9866	-19.9452
 436	1	6	0.146442	-43.4518	17.1788	-20.2283
 437	1	7	0.027303	-44.2495	15.8983	-22.5329
 438	1	7	-0.256739	-44.5396	15.5222	-24.0146
 439	1	8	0.074408	-43.6404	15.1437	-24.5171
 440	1	8	0.075653	-44.9143	16.3886	-24.575
 441	1	8	0.063017	-45.3086	14.7451	-24.089
 442	1	7	-0.003396	-43.7845	14.6212	-21.759
 443	1	7	0.23166	-45.0351	13.9912	-21.0644
 444	1	8	0.003166	-43.0455	14.8974	-20.9959
 445	1	8	0.018046	-43.2788	13.9049	-22.4199
 446	1	3	0.065056	-46.0583	15.1132	-21.1509
 447	1	7	-0.138879	-44.7234	13.6182	-19.5947
 448	1	7	-0.25744	-45.5214	12.727	-21.8139
 449	1	3	0.018858	-45.586	16.1939	-21.8814
 450	1	8	0.063111	-46.386	12.2792	-21.3075
 451	1	8	0.056661	-44.7254	11.9745	-21.8551
 452	1	8	0.052049	-45.8243	12.9574	-22.8411
 453	1	3	-0.499719	-47.3792	15.0945	-20.6742
 454	1	3	-0.078325	-46.3858	17.3277	-22.0778
 455	1	3	-0.430686	-47.6998	17.3279	-21.5696
 456	1	3	0.29919	-48.2378	16.198	-20.903
 457	1	6	0.134637	-46.0155	18.1656	-22.6647
 458	1	8	0.0139	-43.9266	12.8674	-19.5463
 459	1	8	0.03702	-45.6093	13.2022	-19.0981
 460	1	8	0.035416	-44.4011	14.4977	-19.0227
 461	1	6	0.223374	-47.7451	14.2003	-20.1763
 462	1	6	0.198405	-48.3363	18.1861	-21.7739
 463	1	1	0.464138	-12.9871	27.787	-19.5621
 464	1	2	0.077422	-14.1059	27.1748	-20.1317
 465	1	3	0.04486	-14.2273	27.7704	-21.4899
 466	1	2	0.055008	-12.3961	28.722	-20.4135
 467	1	3	-0.004417	-13.2093	28.6915	-21.651
 468	1	5	-0.392499	-14.8332	26.3198	-19.6531
 469	1	5	-0.37854	-11.419	29.4265	-20.218
 470	1	3	-0.044101	-15.1403	27.501	-22.5197
 471	1	3	-0.056346	-13.0364	29.3984	-22.8438
 472	1	3	-0.157726	-13.9439	29.147	-23.89
 473	1	3	-0.13238	-15.0034	28.2177	-23.7338
 474	1	6	0.167375	-15.9074	26.7415	-22.3823
 475	1	6	0.161059	-12.2159	30.1038	-22.9569
 476	1	6	0.140064	-13.8197	29.6657	-24.8395
 477	1	2	0.57844	-15.898	27.9603	-24.9135
 478	1	3	-0.037172	-17.3433	28.404	-24.8735
 479	1	3	-0.116011	-18.0357	28.642	-23.6575
 480	1	3	-0.048223	-19.3779	29.0468	-23.7224
 481	1	3	-0.138147	-18.0213	28.6069	-26.1061
 482	1	3	-0.114262	-19.3605	29.0391	-26.1476
 483	1	3	-0.063397	-20.0148	29.2461	-24.9301
 484	1	2	0.489233	-21.4174	29.6463	-24.6594
 485	1	1	-0.081676	-21.5576	29.6274	-23.2769
 486	1	2	0.489742	-20.3663	29.3004	-22.637
 487	1	3	0.047265	-22.7951	29.8676	-22.614
 488	1	3	-0.183349	-22.872	30.7124	-21.4929
 489	1	3	-0.091111	-24.1114	30.9766	-20.8817
 490	1	3	-0.18836	-23.9751	29.2738	-23.0942
 491	1	3	-0.138837	-25.2101	29.533	-22.4817
 492	1	3	0.044906	-25.3029	30.3922	-21.3655
 493	1	6	0.157291	-21.9718	31.1757	-21.097
 494	1	6	0.112962	-24.1347	31.6522	-20.0334
 495	1	6	0.163228	-19.8796	29.195	-27.092
 496	1	6	0.134491	-17.4976	28.4352	-27.045
 497	1	6	0.172124	-17.5707	28.5064	-22.6855
 498	1	5	-0.48162	-20.1546	29.1975	-21.441
 499	1	5	-0.478641	-22.2559	29.9139	-25.5025
 500	1	5	-0.498568	-15.3949	27.5815	-25.9582
 501	1	6	0.153588	-23.9451	28.6206	-23.9632
 502	1	6	0.146442	-26.0968	29.0673	-22.902
 503	1	7	0.027303	-26.6738	30.7244	-20.7364
 504	1	7	-0.256739	-26.5895	30.9673	-19.2039
 505	1	8	0.074408	-27.594	31.036	-18.7656
 506	1	8	0.075653	-26.0689	31.9037	-18.9694
 507	1	8	0.063017	-26.0616	30.1457	-18.7031
 508	1	7	-0.003396	-27.3135	31.9592	-21.4514
 509	1	7	0.23166	-28.4509	31.4572	-22.3983
 510	1	8	0.003166	-26.5603	32.5436	-21.9968
 511	1	8	0.018046	-27.7391	32.6384	-20.7007
 512	1	3	0.065056	-28.6482	30.02	-21.946
 513	1	7	-0.138879	-28.0147	31.5174	-23.8827
 514	1	7	-0.25744	-29.7437	32.2887	-22.2073
 515	1	3	0.018858	-27.6932	29.6329	-21.0165
 516	1	8	0.063111	-30.5459	31.9248	-22.8615
 517	1	8	0.056661	-29.5691	33.3462	-22.4421
 518	1	8	0.052049	-30.1018	32.2225	-21.1718
 519	1	3	-0.499719	-29.655	29.1292	-22.3587
 520	1	3	-0.078325	-27.7187	28.3447	-20.4648
 521	1	3	-0.430686	-28.7413	27.4581	-20.8541
 522	1	3	0.29919	-29.7259	27.8293	-21.8037
 523	1	6	0.134637	-26.9615	28.0408	-19.7455
 524	1	8	0.0139	-28.7914	31.101	-24.5367
 525	1	8	0.03702	-27.0932	30.9488	-24.052
 526	1	8	0.035416	-27.8319	32.5538	-24.1937
 527	1	6	0.223374	-30.3992	29.4605	-23.0789
 528	1	6	0.198405	-28.7645	26.463	-20.415
 529	1	1	0.464138	-15.2404	17.3714	-1.1538
 530	1	2	0.077422	-15.4884	18.5987	-1.78019
 531	1	3	0.04486	-15.3824	18.3302	-3.2371
 532	1	2	0.055008	-14.9573	16.3583	-2.07622
 533	1	3	-0.004417	-15.0623	16.9982	-3.41198
 534	1	5	-0.392499	-15.747	19.68	-1.27627
 535	1	5	-0.37854	-14.7224	15.1785	-1.87212
 536	1	3	-0.044101	-15.5987	19.1838	-4.32741
 537	1	3	-0.056346	-14.9346	16.437	-4.68759
 538	1	3	-0.157726	-15.1474	17.2762	-5.80107
 539	1	3	-0.13238	-15.4752	18.6451	-5.62894
 540	1	6	0.167375	-15.8839	20.2212	-4.16338
 541	1	6	0.161059	-14.7012	15.3808	-4.80605
 542	1	6	0.140064	-15.08	16.86	-6.80483
 543	1	2	0.57844	-15.7556	19.5004	-6.83137
 544	1	3	-0.037172	-14.6669	20.3993	-7.36772
 545	1	3	-0.116011	-14.8995	21.1349	-8.55643
 546	1	3	-0.048223	-13.8646	21.9294	-9.06949
 547	1	3	-0.138147	-13.4029	20.4997	-6.72441
 548	1	3	-0.114262	-12.3773	21.3081	-7.25799
 549	1	3	-0.063397	-12.6391	22.0071	-8.44309
 550	1	2	0.489233	-11.7649	22.9025	-9.24613
 551	1	1	-0.081676	-12.5362	23.3317	-10.3243
 552	1	2	0.489742	-13.8164	22.7843	-10.2873
 553	1	3	0.047265	-12.0753	24.2415	-11.3278
 554	1	3	-0.183349	-11.2524	25.3277	-10.9791
 555	1	3	-0.091111	-10.7885	26.2225	-11.9555
 556	1	3	-0.18836	-12.4213	24.0766	-12.6841
 557	1	3	-0.138837	-11.9684	24.9836	-13.6618
 558	1	3	0.044906	-11.1563	26.0827	-13.3099
 559	1	6	0.157291	-10.9543	25.4819	-9.94549
 560	1	6	0.112962	-10.132	27.0272	-11.643
 561	1	6	0.163228	-11.4049	21.3838	-6.77412
 562	1	6	0.134491	-13.2019	19.942	-5.81302
 563	1	6	0.172124	-15.8549	21.0787	-9.07772
 564	1	5	-0.48162	-14.7366	22.9591	-11.0672
 565	1	5	-0.478641	-10.6056	23.1754	-8.985
 566	1	5	-0.498568	-16.8292	19.4028	-7.40062
 567	1	6	0.153588	-13.05	23.2435	-12.989
 568	1	6	0.146442	-12.2511	24.8198	-14.6982
 569	1	7	0.027303	-10.6225	27.0741	-14.3659
 570	1	7	-0.256739	-10.577	28.53	-13.8201
 571	1	8	0.074408	-10.3711	29.2501	-14.6216
 572	1	8	0.075653	-9.79781	28.6628	-13.0604
 573	1	8	0.063017	-11.5413	28.806	-13.3743
 574	1	7	-0.003396	-9.21129	26.6243	-14.8619
 575	1	7	0.23166	-9.12623	26.8651	-16.4017
 576	1	8	0.003166	-9.09153	25.5511	-14.6599
 577	1	8	0.018046	-8.40201	27.1305	-14.3197
 578	1	3	0.065056	-10.5855	27.0479	-16.781
 579	1	7	-0.138879	-8.49789	25.65	-17.1273
 580	1	7	-0.25744	-8.3091	28.1398	-16.7295
 581	1	3	0.018858	-11.4123	27.1165	-15.6664
 582	1	8	0.063111	-7.27177	28.0402	-16.3865
 583	1	8	0.056661	-8.7419	29.0253	-16.2503
 584	1	8	0.052049	-8.29103	28.3241	-17.8112
 585	1	3	-0.499719	-11.1006	27.2312	-18.075
 586	1	3	-0.078325	-12.7878	27.3538	-15.8171
 587	1	3	-0.430686	-13.3126	27.5287	-17.1146
 588	1	3	0.29919	-12.4766	27.4931	-18.2572
 589	1	6	0.134637	-13.4281	27.4337	-14.9411
 590	1	8	0.0139	-8.46206	25.814	-18.2118
 591	1	8	0.03702	-9.08192	24.7388	-16.9453
 592	1	8	0.035416	-7.47253	25.4737	-16.7784
 593	1	6	0.223374	-10.4248	27.2357	-18.9267
 594	1	6	0.198405	-14.3758	27.7258	-17.2339
 595	1	1	0.464138	-9.91929	20.0956	19.3333
 596	1	2	0.077422	-9.08373	20.6357	18.3502
 597	1	3	0.04486	-9.3846	19.8726	17.1139
 598	1	2	0.055008	-10.724	19.0653	18.8343
 599	1	3	-0.004417	-10.3559	18.9362	17.4012
 600	1	5	-0.392499	-8.24861	21.52	18.4524
 601	1	5	-0.37854	-11.5639	18.3979	19.416
 602	1	3	-0.044101	-8.84332	19.9992	15.8302
 603	1	3	-0.056346	-10.8382	18.0621	16.4211
 604	1	3	-0.157726	-10.3093	18.1705	15.1168
 605	1	3	-0.13238	-9.31351	19.1391	14.8087
 606	1	6	0.167375	-8.08601	20.7568	15.6329
 607	1	6	0.161059	-11.6042	17.3292	16.6664
 608	1	6	0.140064	-10.6892	17.5028	14.3466
 609	1	2	0.57844	-8.76843	19.3074	13.4117
 610	1	3	-0.037172	-9.32162	18.458	12.3054
 611	1	3	-0.116011	-10.2869	19.0056	11.4319
 612	1	3	-0.048223	-10.7756	18.1983	10.397
 613	1	3	-0.138147	-8.8666	17.1277	12.1184
 614	1	3	-0.114262	-9.36493	16.336	11.0616
 615	1	3	-0.063397	-10.3238	16.9054	10.2124
 616	1	2	0.489233	-11.0437	16.3286	9.04451
 617	1	1	-0.081676	-11.9101	17.322	8.6129
 618	1	2	0.489742	-11.8069	18.4824	9.36423
 619	1	3	0.047265	-12.872	17.1353	7.58983
 620	1	3	-0.183349	-14.1925	16.8152	7.93516
 621	1	3	-0.091111	-15.1539	16.6118	6.93439
 622	1	3	-0.18836	-12.5279	17.2732	6.23481
 623	1	3	-0.138837	-13.4975	17.0825	5.23155
 624	1	3	0.044906	-14.8231	16.7269	5.56744
 625	1	6	0.157291	-14.4758	16.7232	8.97988
 626	1	6	0.112962	-16.1709	16.3696	7.22786
 627	1	6	0.163228	-9.01951	15.3156	10.9029
 628	1	6	0.134491	-8.1128	16.7158	12.7863
 629	1	6	0.172124	-10.6456	20.0266	11.5542
 630	1	5	-0.48162	-12.4701	19.5001	9.26957
 631	1	5	-0.478641	-10.9252	15.1962	8.61121
 632	1	5	-0.498568	-7.97033	20.1925	13.1554
 633	1	6	0.153588	-11.5094	17.5334	5.95835
 634	1	6	0.146442	-13.2036	17.2211	4.19731
 635	1	7	0.027303	-15.9348	16.4917	4.52357
 636	1	7	-0.256739	-16.4985	15.0514	4.66278
 637	1	8	0.074408	-16.9414	14.8778	5.65071
 638	1	8	0.075653	-15.7019	14.3099	4.51969