pySIMM System Object

2378 atoms
2629 bonds
4644 angles
7448 dihedrals
756 impropers

8 atom types
10 bond types
17 angle types
9 dihedral types
4 improper types

-200.261528 200.261528 xlo xhi
-200.261528 200.261528 ylo yhi
-200.261528 200.261528 zlo zhi

Masses

   1	14.01	# n
   2	12.01	# c
   3	12.01	# ca
   4	1.008	# hn
   5	16.0	# o
   6	1.008	# ha
   7	12.01	# c3
   8	1.008	# hc

Pair Coeffs

   1	0.17	3.249998523775958	# n
   2	0.086	3.3996695084235347	# c
   3	0.086	3.3996695084235347	# ca
   4	0.0157	1.069078461768407	# hn
   5	0.21	2.959921901149463	# o
   6	0.015	2.59964245953351	# ha
   7	0.1094	3.3996695084235347	# c3
   8	0.0157	2.649532787749369	# hc

Bond Coeffs

   1	427.6	1.3789	# c,n
   2	461.1	1.3984	# ca,ca
   3	345.9	1.4906	# c,ca
   4	300.9	1.5375	# c3,c3
   5	345.8	1.086	# ca,ha
   6	384.2	1.4121	# ca,n
   7	637.7	1.2183	# c,o
   8	321.0	1.5156	# c3,ca
   9	330.6	1.0969	# c3,hc
  10	403.2	1.0129	# hn,n

Angle Coeffs

   1	63.82	123.71	# c,n,ca
   2	67.87	120.19	# ca,ca,n
   3	67.68	115.25	# ca,c,n
   4	63.15	112.07	# c3,c3,ca
   5	63.0	118.11	# ca,c,ca
   6	63.56	112.24	# ca,c3,ca
   7	46.34	109.8	# c3,c3,hc
   8	48.33	117.55	# c,n,hn
   9	74.22	123.05	# n,c,o
  10	64.28	120.33	# c,ca,ca
  11	39.4	107.58	# hc,c3,hc
  12	66.62	120.02	# ca,ca,ca
  13	63.53	120.77	# c3,ca,ca
  14	62.86	111.51	# c3,c3,c3
  15	63.74	127.08	# c,n,c
  16	48.18	119.88	# ca,ca,ha
  17	68.72	122.6	# ca,c,o

Dihedral Coeffs

   1	2	2.5	2	180	2.0	1	0	# hn,n,c,o
   2	1	3.625	2	180	# X,ca,ca,X
   3	1	0.16	3	0	# hc,c3,c3,c3
   4	1	1.0	2	180	# X,c,ca,X
   5	1	0.15555555555555556	3	0	# X,c3,c3,X
   6	1	0.0	2	0	# X,c3,ca,X
   7	3	0.18	3	0	0.25	2	180	0.2	1	180	# c3,c3,c3,c3
   8	1	2.5	2	180	# X,c,n,X
   9	1	0.45	2	180	# X,ca,n,X

Improper Coeffs

   1	1.1	-1	2	# ca,ca,ca,c3
   2	1.1	-1	2	# n,X,X,hn
   3	1.1	-1	2	# ca,X,X,ha
   4	10.5	-1	2	# c,X,X,o

Atoms

   1	1	1	0.464138	-75.3209	-138.448	-53.7481
   2	1	2	0.077422	-74.9242	-138.517	-55.0834
   3	1	3	0.04486	-73.9494	-139.637	-55.1393
   4	1	2	0.055008	-74.6897	-139.397	-52.9459
   5	1	3	-0.004417	-73.8034	-140.152	-53.8656
   6	1	5	-0.392499	-75.2828	-137.825	-56.0223
   7	1	5	-0.37854	-74.824	-139.591	-51.7489
   8	1	3	-0.044101	-73.2696	-140.182	-56.2358
   9	1	3	-0.056346	-72.9558	-141.233	-53.6076
  10	1	3	-0.157726	-72.2505	-141.789	-54.694
  11	1	3	-0.13238	-72.3908	-141.272	-56.0105
  12	1	6	0.167375	-73.4553	-139.781	-57.2293
  13	1	6	0.161059	-72.8606	-141.635	-52.6008
  14	1	6	0.140064	-71.5978	-142.643	-54.5171
  15	1	2	0.57844	-71.6659	-141.957	-57.1463
  16	1	3	-0.037172	-71.4063	-141.235	-58.4456
  17	1	3	-0.116011	-71.4114	-141.981	-59.6474
  18	1	3	-0.048223	-71.1447	-141.316	-60.8501
  19	1	3	-0.138147	-71.0953	-139.848	-58.487
  20	1	3	-0.114262	-70.8248	-139.199	-59.711
  21	1	3	-0.063397	-70.8615	-139.966	-60.883
  22	1	2	0.489233	-70.6052	-139.584	-62.2981
  23	1	1	-0.081676	-70.7578	-140.75	-63.0399
  24	1	2	0.489742	-71.0843	-141.838	-62.2402
  25	1	3	0.047265	-70.5813	-140.83	-64.4504
  26	1	3	-0.183349	-69.4502	-140.264	-65.0631
  27	1	3	-0.091111	-69.26	-140.376	-66.4505
  28	1	3	-0.18836	-71.5217	-141.501	-65.2519
  29	1	3	-0.138837	-71.3315	-141.613	-66.6398
  30	1	3	0.044906	-70.1926	-141.055	-67.2618
  31	1	6	0.157291	-68.7107	-139.739	-64.4636
  32	1	6	0.112962	-68.3691	-139.942	-66.8947
  33	1	6	0.163228	-70.5803	-138.139	-59.751
  34	1	6	0.134491	-71.0363	-139.274	-57.5656
  35	1	6	0.172124	-71.6145	-143.052	-59.6454
  36	1	5	-0.48162	-71.2832	-142.992	-62.5784
  37	1	5	-0.478641	-70.3076	-138.47	-62.6956
  38	1	5	-0.498568	-71.3255	-143.123	-57.0294
  39	1	6	0.153588	-72.3973	-141.958	-64.7971
  40	1	6	0.146442	-72.0716	-142.161	-67.2157
  41	1	7	0.027303	-69.924	-141.194	-68.7744
  42	1	7	-0.256739	-69.7378	-139.801	-69.4331
  43	1	8	0.074408	-70.59	-139.146	-69.2108
  44	1	8	0.075653	-69.6578	-139.89	-70.5244
  45	1	8	0.063017	-68.8297	-139.302	-69.0732
  46	1	7	-0.003396	-68.6756	-142.101	-69.0225
  47	1	7	0.23166	-69.1829	-143.55	-69.2977
  48	1	8	0.003166	-67.9542	-142.068	-68.1957
  49	1	8	0.018046	-68.1443	-141.737	-69.9122
  50	1	3	0.065056	-70.6004	-143.29	-69.7779
  51	1	7	-0.138879	-69.1957	-144.398	-68.0022
  52	1	7	-0.25744	-68.3152	-144.253	-70.3703
  53	1	3	0.018858	-71.0021	-141.988	-69.4996
  54	1	8	0.063111	-68.3424	-143.702	-71.3187
  55	1	8	0.056661	-68.6773	-145.271	-70.5632
  56	1	8	0.052049	-67.2699	-144.322	-70.0439
  57	1	3	-0.499719	-71.4651	-144.188	-70.4308
  58	1	3	-0.078325	-72.2781	-141.537	-69.8763
  59	1	3	-0.430686	-73.1456	-142.432	-70.5328
  60	1	3	0.29919	-72.7444	-143.752	-70.8098
  61	1	6	0.134637	-72.5902	-140.519	-69.6561
  62	1	8	0.0139	-69.8041	-143.927	-67.221
  63	1	8	0.03702	-68.1803	-144.526	-67.6068
  64	1	8	0.035416	-69.6133	-145.394	-68.1937
  65	1	6	0.223374	-71.1546	-145.205	-70.6442
  66	1	6	0.198405	-74.1372	-142.107	-70.832
  67	1	1	0.464138	-78.8557	-131.917	-34.2787
  68	1	2	0.077422	-79.6441	-132.901	-34.8813
  69	1	3	0.04486	-79.4674	-132.703	-36.3434
  70	1	2	0.055008	-78.2017	-131.111	-35.2134
  71	1	3	-0.004417	-78.6094	-131.639	-36.5386
  72	1	5	-0.392499	-80.3234	-133.766	-34.3515
  73	1	5	-0.37854	-77.4556	-130.165	-35.0196
  74	1	3	-0.044101	-80.0191	-133.406	-37.4219
  75	1	3	-0.056346	-78.2596	-131.206	-37.8211
  76	1	3	-0.157726	-78.7992	-131.901	-38.9229
  77	1	3	-0.13238	-79.6645	-133.014	-38.7355
  78	1	6	0.167375	-80.7004	-134.237	-37.2424
  79	1	6	0.161059	-77.5979	-130.352	-37.9527
  80	1	6	0.140064	-78.5566	-131.557	-39.926
  81	1	2	0.57844	-80.2637	-133.753	-39.9071
  82	1	3	-0.037172	-79.5099	-133.835	-41.2125
  83	1	3	-0.116011	-80.233	-133.908	-42.4272
  84	1	3	-0.048223	-79.5153	-133.989	-43.6292
  85	1	3	-0.138147	-78.0897	-133.889	-41.242
  86	1	3	-0.114262	-77.3887	-133.977	-42.4622
  87	1	3	-0.063397	-78.1355	-134.018	-43.6454
  88	1	2	0.489233	-77.6888	-134.115	-45.0601
  89	1	1	-0.081676	-78.8498	-134.136	-45.8241
  90	1	2	0.489742	-79.9937	-134.063	-45.0363
  91	1	3	0.047265	-78.8653	-134.231	-47.2455
  92	1	3	-0.183349	-79.6862	-133.387	-48.0131
  93	1	3	-0.091111	-79.7113	-133.495	-49.4138
  94	1	3	-0.18836	-78.0599	-135.175	-47.9075
  95	1	3	-0.138837	-78.0835	-135.282	-49.3085
  96	1	3	0.044906	-78.9222	-134.452	-50.0857
  97	1	6	0.157291	-80.3181	-132.649	-47.525
  98	1	6	0.112962	-80.3553	-132.829	-49.979
  99	1	6	0.163228	-76.3012	-134.02	-42.4921
 100	1	6	0.134491	-77.5239	-133.881	-40.3131
 101	1	6	0.172124	-81.3226	-133.898	-42.4351
 102	1	5	-0.48162	-81.1576	-134.048	-45.3979
 103	1	5	-0.478641	-76.5317	-134.155	-45.4414
 104	1	5	-0.498568	-81.3596	-134.278	-39.7971
 105	1	6	0.153588	-77.4065	-135.83	-47.3363
 106	1	6	0.146442	-77.4374	-136.02	-49.7747
 107	1	7	0.027303	-78.9951	-134.557	-51.6241
 108	1	7	-0.256739	-80.4643	-134.723	-52.0995
 109	1	8	0.074408	-81.0577	-133.821	-51.9055
 110	1	8	0.075653	-80.9496	-135.562	-51.5852
 111	1	8	0.063017	-80.5071	-134.92	-53.1787
 112	1	7	-0.003396	-78.3346	-133.31	-52.295
 113	1	7	0.23166	-76.8984	-133.708	-52.7561
 114	1	8	0.003166	-78.3234	-132.436	-51.6312
 115	1	8	0.018046	-78.9249	-133.021	-53.1749
 116	1	3	0.065056	-76.9855	-135.224	-52.7983
 117	1	7	-0.138879	-75.8377	-133.263	-51.721
 118	1	7	-0.25744	-76.5669	-133.1	-54.1411
 119	1	3	0.018858	-78.1409	-135.686	-52.1806
 120	1	8	0.063111	-75.5588	-133.386	-54.4658
 121	1	8	0.056661	-76.6149	-132.004	-54.1085
 122	1	8	0.052049	-77.2758	-133.451	-54.9022
 123	1	3	-0.499719	-76.0455	-136.121	-53.3388
 124	1	3	-0.078325	-78.4016	-137.062	-52.0932
 125	1	3	-0.430686	-77.4617	-137.966	-52.6237
 126	1	3	0.29919	-76.2762	-137.512	-53.2485
 127	1	6	0.134637	-79.301	-137.421	-51.5975
 128	1	8	0.0139	-76.0534	-133.677	-50.7285
 129	1	8	0.03702	-75.8113	-132.169	-51.6325
 130	1	8	0.035416	-74.8373	-133.603	-52.0163
 131	1	6	0.223374	-75.1463	-135.743	-53.8169
 132	1	6	0.198405	-77.6429	-139.034	-52.5295
 133	1	1	0.464138	-76.8446	-116.024	-20.2295
 134	1	2	0.077422	-75.7645	-116.715	-20.7857
 135	1	3	0.04486	-76.3682	-117.717	-21.6965
 136	1	2	0.055008	-78.0724	-116.459	-20.7398
 137	1	3	-0.004417	-77.7392	-117.571	-21.6672
 138	1	5	-0.392499	-74.5755	-116.614	-20.5291
 139	1	5	-0.37854	-79.1975	-116.077	-20.4615
 140	1	3	-0.044101	-75.755	-118.744	-22.4204
 141	1	3	-0.056346	-78.5794	-118.451	-22.3559
 142	1	3	-0.157726	-77.9844	-119.505	-23.0837
 143	1	3	-0.13238	-76.5696	-119.656	-23.1345
 144	1	6	0.167375	-74.6716	-118.852	-22.3892
 145	1	6	0.161059	-79.6603	-118.346	-22.2882
 146	1	6	0.140064	-78.6385	-120.226	-23.5658
 147	1	2	0.57844	-75.8933	-120.82	-23.8254
 148	1	3	-0.037172	-76.6579	-121.738	-24.7445
 149	1	3	-0.116011	-76.3923	-123.125	-24.6761
 150	1	3	-0.048223	-77.0769	-123.982	-25.5454
 151	1	3	-0.138147	-77.5747	-121.249	-25.7139
 152	1	3	-0.114262	-78.2502	-122.132	-26.5851
 153	1	3	-0.063397	-77.9803	-123.502	-26.4717
 154	1	2	0.489233	-78.5037	-124.662	-27.2451
 155	1	1	-0.081676	-77.8712	-125.784	-26.7204
 156	1	2	0.489742	-76.997	-125.457	-25.6914
 157	1	3	0.047265	-78.0706	-127.114	-27.1869
 158	1	3	-0.183349	-78.2934	-128.161	-26.2769
 159	1	3	-0.091111	-78.4362	-129.482	-26.7312
 160	1	3	-0.18836	-78.0116	-127.409	-28.56
 161	1	3	-0.138837	-78.1556	-128.731	-29.015
 162	1	3	0.044906	-78.3599	-129.793	-28.1044
 163	1	6	0.157291	-78.3357	-127.958	-25.21
 164	1	6	0.112962	-78.5991	-130.273	-26.0045
 165	1	6	0.163228	-78.9493	-121.766	-27.3356
 166	1	6	0.134491	-77.7469	-120.179	-25.808
 167	1	6	0.172124	-75.6683	-123.526	-23.9671
 168	1	5	-0.48162	-76.3024	-126.205	-25.0251
 169	1	5	-0.478641	-79.3187	-124.609	-28.1497
 170	1	5	-0.498568	-74.7284	-121.077	-23.5679
 171	1	6	0.153588	-77.8471	-126.612	-29.2814
 172	1	6	0.146442	-78.1032	-128.914	-30.084
 173	1	7	0.027303	-78.4985	-131.261	-28.5559
 174	1	7	-0.256739	-77.4231	-132.146	-27.8701
 175	1	8	0.074408	-76.4174	-131.741	-28.0386
 176	1	8	0.075653	-77.444	-133.17	-28.2673
 177	1	8	0.063017	-77.582	-132.207	-26.7866
 178	1	7	-0.003396	-79.9349	-131.797	-28.2543
 179	1	7	0.23166	-80.7787	-131.666	-29.5588
 180	1	8	0.003166	-80.4092	-131.288	-27.4053
 181	1	8	0.018046	-79.8676	-132.858	-27.9805
 182	1	3	0.065056	-79.6957	-131.638	-30.6242
 183	1	7	-0.138879	-81.585	-130.345	-29.5719
 184	1	7	-0.25744	-81.7402	-132.868	-29.7243
 185	1	3	0.018858	-78.4405	-131.428	-30.0674
 186	1	8	0.063111	-82.3338	-132.775	-30.642
 187	1	8	0.056661	-82.4346	-132.933	-28.8772
 188	1	8	0.052049	-81.1821	-133.812	-29.7812
 189	1	3	-0.499719	-79.8538	-131.797	-32.0128
 190	1	3	-0.078325	-77.299	-131.388	-30.8814
 191	1	3	-0.430686	-77.4502	-131.553	-32.2714
 192	1	3	0.29919	-78.7226	-131.757	-32.8604
 193	1	6	0.134637	-76.3172	-131.22	-30.4447
 194	1	8	0.0139	-82.1322	-130.231	-30.5162
 195	1	8	0.03702	-80.9263	-129.475	-29.4602
 196	1	8	0.035416	-82.3147	-130.323	-28.7527
 197	1	6	0.223374	-80.8443	-131.969	-32.427
 198	1	6	0.198405	-76.5666	-131.507	-32.9045
 199	1	1	0.464138	-79.0246	-95.8278	-12.7873
 200	1	2	0.077422	-78.986	-96.2407	-14.1235
 201	1	3	0.04486	-78.6643	-97.6905	-14.0797
 202	1	2	0.055008	-78.7497	-96.8746	-11.902
 203	1	3	-0.004417	-78.53	-98.0664	-12.7582
 204	1	5	-0.392499	-79.2029	-95.5896	-15.1331
 205	1	5	-0.37854	-78.689	-96.8536	-10.6833
 206	1	3	-0.044101	-78.5093	-98.612	-15.1236
 207	1	3	-0.056346	-78.2313	-99.384	-12.3988
 208	1	3	-0.157726	-78.0802	-100.332	-13.4317
 209	1	3	-0.13238	-78.2314	-99.961	-14.7965
 210	1	6	0.167375	-78.61	-98.289	-16.1588
 211	1	6	0.161059	-78.1159	-99.6568	-11.3518
 212	1	6	0.140064	-77.8241	-101.356	-13.1654
 213	1	2	0.57844	-78.0502	-100.966	-15.9081
 214	1	3	-0.037172	-78.3754	-102.417	-15.6544
 215	1	3	-0.116011	-77.5959	-103.428	-16.2674
 216	1	3	-0.048223	-77.8957	-104.768	-15.9796
 217	1	3	-0.138147	-79.4632	-102.783	-14.8168
 218	1	3	-0.114262	-79.7502	-104.135	-14.5451
 219	1	3	-0.063397	-78.9352	-105.108	-15.1356
 220	1	2	0.489233	-78.9451	-106.585	-14.9794
 221	1	1	-0.081676	-77.8801	-107.049	-15.738
 222	1	2	0.489742	-77.2125	-106.025	-16.396
 223	1	3	0.047265	-77.4628	-108.406	-15.7446
 224	1	3	-0.183349	-77.3819	-109.14	-16.9406
 225	1	3	-0.091111	-76.9825	-110.489	-16.9228
 226	1	3	-0.18836	-77.1252	-109.032	-14.5341
 227	1	3	-0.138837	-76.7155	-110.373	-14.5183
 228	1	3	0.044906	-76.6449	-111.127	-15.7077
 229	1	6	0.157291	-77.6298	-108.665	-17.8864
 230	1	6	0.112962	-76.9412	-111.028	-17.864
 231	1	6	0.163228	-80.5691	-104.423	-13.8878
 232	1	6	0.134491	-80.09	-102.014	-14.3712
 233	1	6	0.172124	-76.7624	-103.176	-16.9225
 234	1	5	-0.48162	-76.2283	-106.109	-17.1096
 235	1	5	-0.478641	-79.6933	-107.225	-14.2613
 236	1	5	-0.498568	-77.6246	-100.609	-16.9936
 237	1	6	0.153588	-77.1864	-108.48	-13.5999
 238	1	6	0.146442	-76.4588	-110.833	-13.5684
 239	1	7	0.027303	-76.196	-112.6	-15.6298
 240	1	7	-0.256739	-74.7464	-112.687	-15.0814
 241	1	8	0.074408	-74.3816	-113.722	-15.0973
 242	1	8	0.075653	-74.6845	-112.328	-14.047
 243	1	8	0.063017	-74.0613	-112.081	-15.6879
 244	1	7	-0.003396	-77.1728	-113.429	-14.7313
 245	1	7	0.23166	-78.1586	-114.191	-15.6652
 246	1	8	0.003166	-77.7068	-112.817	-13.9938
 247	1	8	0.018046	-76.5916	-114.163	-14.1569
 248	1	3	0.065056	-77.3662	-114.251	-16.9583
 249	1	7	-0.138879	-79.4644	-113.387	-15.8754
 250	1	7	-0.25744	-78.4905	-115.595	-15.1005
 251	1	3	0.018858	-76.3059	-113.353	-16.9495
 252	1	8	0.063111	-78.9535	-115.516	-14.1088
 253	1	8	0.056661	-77.5826	-116.205	-15.0063
 254	1	8	0.052049	-79.1888	-116.13	-15.7565
 255	1	3	-0.499719	-77.5777	-115.112	-18.0485
 256	1	3	-0.078325	-75.4352	-113.278	-18.0472
 257	1	3	-0.430686	-75.6486	-114.131	-19.1476
 258	1	3	0.29919	-76.7064	-115.075	-19.1614
 259	1	6	0.134637	-74.5946	-112.588	-18.0349
 260	1	8	0.0139	-80.1252	-113.897	-16.5883
 261	1	8	0.03702	-79.2547	-112.386	-16.2709
 262	1	8	0.035416	-80.0103	-113.271	-14.9307
 263	1	6	0.223374	-78.4024	-115.82	-18.0197
 264	1	6	0.198405	-74.9496	-114.095	-19.9806
 265	1	1	0.464138	-71.9485	-84.3139	1.87032
 266	1	2	0.077422	-72.757	-85.137	1.07989
 267	1	3	0.04486	-72.1566	-85.0887	-0.279448
 268	1	2	0.055008	-70.9097	-83.731	1.14144
 269	1	3	-0.004417	-71.0582	-84.2521	-0.238699
 270	1	5	-0.392499	-73.7384	-85.7864	1.40439
 271	1	5	-0.37854	-70.0483	-82.9557	1.523
 272	1	3	-0.044101	-72.5261	-85.7588	-1.45415
 273	1	3	-0.056346	-70.2587	-84.0362	-1.36445
 274	1	3	-0.157726	-70.61	-84.7006	-2.55595
 275	1	3	-0.13238	-71.7461	-85.5496	-2.6189
 276	1	6	0.167375	-73.3738	-86.4409	-1.44386
 277	1	6	0.161059	-69.3854	-83.3896	-1.30848
 278	1	6	0.140064	-69.9904	-84.5654	-3.44157
 279	1	2	0.57844	-72.0392	-86.2746	-3.90873
 280	1	3	-0.037172	-73.4603	-86.4691	-4.38599
 281	1	3	-0.116011	-73.708	-87.4268	-5.39894
 282	1	3	-0.048223	-75.0101	-87.5604	-5.89593
 283	1	3	-0.138147	-74.535	-85.6629	-3.918
 284	1	3	-0.114262	-75.841	-85.8188	-4.43054
 285	1	3	-0.063397	-76.0472	-86.7828	-5.42585
 286	1	2	0.489233	-77.2725	-87.1356	-6.19409
 287	1	1	-0.081676	-76.8837	-88.1139	-7.1046
 288	1	2	0.489742	-75.5356	-88.4318	-6.97894
 289	1	3	0.047265	-77.7424	-88.6875	-8.08871
 290	1	3	-0.183349	-77.7059	-90.0679	-8.35882
 291	1	3	-0.091111	-78.5055	-90.6249	-9.37156
 292	1	3	-0.18836	-78.612	-87.8775	-8.84085
 293	1	3	-0.138837	-79.4166	-88.4353	-9.84858
 294	1	3	0.044906	-79.3693	-89.8142	-10.1402
 295	1	6	0.157291	-77.0348	-90.7154	-7.80002
 296	1	6	0.112962	-78.4234	-91.6905	-9.56061
 297	1	6	0.163228	-76.6633	-85.1921	-4.08891
 298	1	6	0.134491	-74.3586	-84.882	-3.1831
 299	1	6	0.172124	-72.9029	-88.0362	-5.80931
 300	1	5	-0.48162	-74.8819	-89.228	-7.63038
 301	1	5	-0.478641	-78.3719	-86.6281	-6.0529
 302	1	5	-0.498568	-71.1096	-86.6701	-4.59317
 303	1	6	0.153588	-78.661	-86.8077	-8.6533
 304	1	6	0.146442	-80.0705	-87.7837	-10.421
 305	1	7	0.027303	-80.2288	-90.3752	-11.2921
 306	1	7	-0.256739	-81.7342	-90.1016	-11.0321
 307	1	8	0.074408	-82.0387	-90.4922	-10.0529
 308	1	8	0.075653	-82.3592	-90.5827	-11.7959
 309	1	8	0.063017	-81.9564	-89.0277	-11.048
 310	1	7	-0.003396	-79.7781	-89.7617	-12.6578
 311	1	7	0.23166	-78.7801	-90.7569	-13.324
 312	1	8	0.003166	-79.3488	-88.7568	-12.5561
 313	1	8	0.018046	-80.6585	-89.6573	-13.3061
 314	1	3	0.065056	-79.1751	-92.0677	-12.6656
 315	1	7	-0.138879	-77.3139	-90.3965	-12.9819
 316	1	7	-0.25744	-78.9649	-90.7876	-14.8614
 317	1	3	0.018858	-79.9863	-91.8554	-11.5577
 318	1	8	0.063111	-78.2643	-91.4908	-15.3286
 319	1	8	0.056661	-78.7883	-89.7957	-15.2959
 320	1	8	0.052049	-79.9822	-91.1017	-15.128
 321	1	3	-0.499719	-78.8322	-93.3692	-13.0747
 322	1	3	-0.078325	-80.4985	-92.9437	-10.8366
 323	1	3	-0.430686	-80.1726	-94.2495	-11.2522
 324	1	3	0.29919	-79.3354	-94.4885	-12.3712
 325	1	6	0.134637	-81.1354	-92.7791	-9.97064
 326	1	8	0.0139	-77.1512	-90.3669	-11.898
 327	1	8	0.03702	-77.047	-89.4136	-13.3901
 328	1	8	0.035416	-76.6227	-91.1374	-13.4028
 329	1	6	0.223374	-78.2041	-93.5083	-13.9512
 330	1	6	0.198405	-80.5705	-95.0906	-10.6886
 331	1	1	0.464138	-71.2161	-69.3103	8.20137
 332	1	2	0.077422	-69.8728	-69.6753	8.30939
 333	1	3	0.04486	-69.8314	-70.6848	9.3967
 334	1	2	0.055008	-72.0247	-69.9506	9.14232
 335	1	3	-0.004417	-71.1124	-70.8541	9.88666
 336	1	5	-0.392499	-68.9278	-69.322	7.62231
 337	1	5	-0.37854	-73.2341	-69.8759	9.28607
 338	1	3	-0.044101	-68.7608	-71.4594	9.8576
 339	1	3	-0.056346	-71.4011	-71.8071	10.8692
 340	1	3	-0.157726	-70.3426	-72.6147	11.3343
 341	1	3	-0.13238	-69.0271	-72.4579	10.8215
 342	1	6	0.167375	-67.7638	-71.3234	9.44152
 343	1	6	0.161059	-72.4189	-71.9338	11.2332
 344	1	6	0.140064	-70.5469	-73.374	12.0871
 345	1	2	0.57844	-67.9128	-73.3687	11.2573
 346	1	3	-0.037172	-68.1329	-74.8617	11.187
 347	1	3	-0.116011	-69.1667	-75.4041	10.3841
 348	1	3	-0.048223	-69.2971	-76.7954	10.3122
 349	1	3	-0.138147	-67.2566	-75.7427	11.8751
 350	1	3	-0.114262	-67.4082	-77.1439	11.7883
 351	1	3	-0.063397	-68.4475	-77.643	10.9921
 352	1	2	0.489233	-68.8438	-79.0431	10.6743
 353	1	1	-0.081676	-69.9219	-78.9423	9.80098
 354	1	2	0.489742	-70.2587	-77.6203	9.53885
 355	1	3	0.047265	-70.6073	-80.0553	9.23662
 356	1	3	-0.183349	-70.9034	-80.0878	7.86271
 357	1	3	-0.091111	-71.6158	-81.1642	7.30985
 358	1	3	-0.18836	-71.0301	-81.1241	10.0456
 359	1	3	-0.138837	-71.7399	-82.2041	9.49139
 360	1	3	0.044906	-72.0384	-82.2461	8.11191
 361	1	6	0.157291	-70.5995	-79.2665	7.21863
 362	1	6	0.112962	-71.8501	-81.1425	6.24919
 363	1	6	0.163228	-66.7326	-77.8206	12.3091
 364	1	6	0.134491	-66.4452	-75.3317	12.4738
 365	1	6	0.172124	-69.8377	-74.7769	9.80077
 366	1	5	-0.48162	-71.1521	-77.1914	8.8288
 367	1	5	-0.478641	-68.3135	-80.0538	11.102
 368	1	5	-0.498568	-66.8239	-72.9042	11.549
 369	1	6	0.153588	-70.8142	-81.1177	11.1113
 370	1	6	0.146442	-72.0639	-83.0011	10.1518
 371	1	7	0.027303	-72.8651	-83.3937	7.49318
 372	1	7	-0.256739	-72.7372	-84.7325	8.27133
 373	1	8	0.074408	-73.2164	-85.5534	7.72288
 374	1	8	0.075653	-73.2154	-84.6782	9.25682
 375	1	8	0.063017	-71.6826	-85.0018	8.41382
 376	1	7	-0.003396	-74.3639	-82.9687	7.37238
 377	1	7	0.23166	-74.8699	-83.3188	5.93662
 378	1	8	0.003166	-74.446	-81.8852	7.53284
 379	1	8	0.018046	-74.9847	-83.4356	8.1483
 380	1	3	0.065056	-73.5798	-83.6082	5.18792
 381	1	7	-0.138879	-75.6394	-82.1287	5.31281
 382	1	7	-0.25744	-75.7766	-84.5733	5.95868
 383	1	3	0.018858	-72.4883	-83.6565	6.04465
 384	1	8	0.063111	-75.2484	-85.4333	6.38808
 385	1	8	0.056661	-76.0895	-84.8465	4.94306
 386	1	8	0.052049	-76.6797	-84.3948	6.55598
 387	1	3	-0.499719	-73.4253	-83.8284	3.80597
 388	1	3	-0.078325	-71.2072	-83.9369	5.55072
 389	1	3	-0.430686	-71.0451	-84.1541	4.16934
 390	1	3	0.29919	-72.1428	-84.1005	3.27521
 391	1	6	0.134637	-70.3553	-83.9754	6.22636
 392	1	8	0.0139	-76.516	-81.8684	5.91987
 393	1	8	0.03702	-75.9888	-82.3714	4.30164
 394	1	8	0.035416	-74.9976	-81.241	5.24337
 395	1	6	0.223374	-74.2954	-83.8047	3.15497
 396	1	6	0.198405	-70.0472	-84.3531	3.78399
 397	1	1	0.464138	-67.5469	-51.5375	-3.03865
 398	1	2	0.077422	-68.2836	-51.4346	-1.85601
 399	1	3	0.04486	-68.4061	-52.8245	-1.34938
 400	1	2	0.055008	-67.1651	-52.8528	-3.31649
 401	1	3	-0.004417	-67.7406	-53.6668	-2.21695
 402	1	5	-0.392499	-68.7833	-50.4426	-1.34982
 403	1	5	-0.37854	-66.5261	-53.2807	-4.26407
 404	1	3	-0.044101	-69.1025	-53.316	-0.239498
 405	1	3	-0.056346	-67.7337	-55.052	-2.02779
 406	1	3	-0.157726	-68.4308	-55.5717	-0.917007
 407	1	3	-0.13238	-69.1105	-54.7128	-0.00802498
 408	1	6	0.167375	-69.6445	-52.6294	0.409637
 409	1	6	0.161059	-67.2288	-55.702	-2.73948
 410	1	6	0.140064	-68.4697	-56.6513	-0.794132
 411	1	2	0.57844	-69.9252	-55.2496	1.14567
 412	1	3	-0.037172	-69.7297	-56.668	1.61398
 413	1	3	-0.116011	-70.8682	-57.4538	1.90383
 414	1	3	-0.048223	-70.6757	-58.7808	2.3075
 415	1	3	-0.138147	-68.4324	-57.2209	1.78646
 416	1	3	-0.114262	-68.2622	-58.5574	2.2059
 417	1	3	-0.063397	-69.4123	-59.3185	2.45161
 418	1	2	0.489233	-69.56	-60.7447	2.84967
 419	1	1	-0.081676	-70.9282	-60.9825	2.89603
 420	1	2	0.489742	-71.6696	-59.8452	2.60153
 421	1	3	0.047265	-71.5076	-62.2561	3.14916
 422	1	3	-0.183349	-72.4805	-62.7722	2.27681
 423	1	3	-0.091111	-73.0546	-64.0301	2.51453
 424	1	3	-0.18836	-71.1132	-63.0226	4.25949
 425	1	3	-0.138837	-71.6912	-64.282	4.49981
 426	1	3	0.044906	-72.6763	-64.8033	3.63074
 427	1	6	0.157291	-72.7989	-62.1969	1.41137
 428	1	6	0.112962	-73.7972	-64.4071	1.81791
 429	1	6	0.163228	-67.2724	-58.9942	2.32856
 430	1	6	0.134491	-67.5527	-56.6097	1.59615
 431	1	6	0.172124	-71.8744	-57.0504	1.79383
 432	1	5	-0.48162	-72.8812	-59.733	2.52972
 433	1	5	-0.478641	-68.6507	-61.5339	3.03926
 434	1	5	-0.498568	-70.802	-54.5627	1.64332
 435	1	6	0.153588	-70.349	-62.647	4.93579
 436	1	6	0.146442	-71.351	-64.8481	5.36182
 437	1	7	0.027303	-73.3236	-66.186	3.84148
 438	1	7	-0.256739	-74.8723	-66.0758	3.86845
 439	1	8	0.074408	-75.275	-65.7827	2.89148
 440	1	8	0.075653	-75.1987	-65.3298	4.60406
 441	1	8	0.063017	-75.3289	-67.037	4.13887
 442	1	7	-0.003396	-72.8575	-67.1769	2.72628
 443	1	7	0.23166	-71.688	-68.0321	3.30103
 444	1	8	0.003166	-72.5733	-66.6661	1.79706
 445	1	8	0.018046	-73.6923	-67.8431	2.47002
 446	1	3	0.065056	-71.9254	-67.9103	4.79614
 447	1	7	-0.138879	-70.3123	-67.4323	2.92172
 448	1	7	-0.25744	-71.7732	-69.4975	2.80687
 449	1	3	0.018858	-72.8259	-66.8954	5.09186
 450	1	8	0.063111	-70.9496	-70.0982	3.21198
 451	1	8	0.056661	-71.7174	-69.5434	1.71196
 452	1	8	0.052049	-72.716	-69.9632	3.1211
 453	1	3	-0.499719	-71.3664	-68.6986	5.81588
 454	1	3	-0.078325	-73.1975	-66.6374	6.42035
 455	1	3	-0.430686	-72.6445	-67.4278	7.44705
 456	1	3	0.29919	-71.7283	-68.4694	7.16267
 457	1	6	0.134637	-73.9105	-65.8485	6.64862
 458	1	8	0.0139	-70.1595	-67.456	1.8353
 459	1	8	0.03702	-69.4984	-67.9992	3.39121
 460	1	8	0.035416	-70.2262	-66.3904	3.2523
 461	1	6	0.223374	-70.6601	-69.4852	5.56317
 462	1	6	0.198405	-72.9545	-67.2521	8.47498
 463	1	1	0.464138	-56.3045	-36.8118	-11.8777
 464	1	2	0.077422	-55.5047	-37.6202	-11.0694
 465	1	3	0.04486	-56.2495	-38.8973	-10.9392
 466	1	2	0.055008	-57.4951	-37.4366	-12.2528
 467	1	3	-0.004417	-57.4297	-38.7916	-11.6474
 468	1	5	-0.392499	-54.4091	-37.3748	-10.5911
 469	1	5	-0.37854	-58.3871	-37.0098	-12.9676
 470	1	3	-0.044101	-55.8866	-40.082	-10.29
 471	1	3	-0.056346	-58.3066	-39.8748	-11.7656
 472	1	3	-0.157726	-57.9552	-41.0851	-11.1297
 473	1	3	-0.13238	-56.7577	-41.1957	-10.3675
 474	1	6	0.167375	-54.9386	-40.1385	-9.7566
 475	1	6	0.161059	-59.2144	-39.785	-12.359
 476	1	6	0.140064	-58.6064	-41.945	-11.2662
 477	1	2	0.57844	-56.3246	-42.4874	-9.70969
 478	1	3	-0.037172	-57.329	-43.5557	-9.34212
 479	1	3	-0.116011	-58.659	-43.2363	-8.97257
 480	1	3	-0.048223	-59.5311	-44.2848	-8.64906
 481	1	3	-0.138147	-56.9113	-44.9133	-9.31651
 482	1	3	-0.114262	-57.8026	-45.951	-8.97428
 483	1	3	-0.063397	-59.1188	-45.6015	-8.65206
 484	1	2	0.489233	-60.2786	-46.4534	-8.27457
 485	1	1	-0.081676	-61.341	-45.5786	-8.0769
 486	1	2	0.489742	-60.9676	-44.2531	-8.27186
 487	1	3	0.047265	-62.6624	-45.9884	-7.73771
 488	1	3	-0.183349	-63.7697	-45.438	-8.40626
 489	1	3	-0.091111	-65.0749	-45.8173	-8.05664
 490	1	3	-0.18836	-62.887	-46.9427	-6.72882
 491	1	3	-0.138837	-64.1947	-47.3278	-6.38325
 492	1	3	0.044906	-65.3114	-46.7605	-7.03605
 493	1	6	0.157291	-63.6243	-44.7004	-9.1911
 494	1	6	0.112962	-65.911	-45.3667	-8.58302
 495	1	6	0.163228	-57.4847	-46.9922	-8.96223
 496	1	6	0.134491	-55.8822	-45.1624	-9.57034
 497	1	6	0.172124	-59.0125	-42.2082	-8.92591
 498	1	5	-0.48162	-61.6586	-43.2516	-8.19479
 499	1	5	-0.478641	-60.2752	-47.6692	-8.18743
 500	1	5	-0.498568	-55.139	-42.6735	-9.48761
 501	1	6	0.153588	-62.0452	-47.3925	-6.20745
 502	1	6	0.146442	-64.3232	-48.0701	-5.60149
 503	1	7	0.027303	-66.7644	-47.1197	-6.66754
 504	1	7	-0.256739	-67.5341	-45.8489	-6.21732
 505	1	8	0.074408	-68.538	-46.1052	-5.85404
 506	1	8	0.075653	-67.6508	-45.1344	-7.04114
 507	1	8	0.063017	-67.0033	-45.3383	-5.40384
 508	1	7	-0.003396	-67.4887	-47.807	-7.87103
 509	1	7	0.23166	-67.4573	-49.3473	-7.63727
 510	1	8	0.003166	-67.0568	-47.5329	-8.84208
 511	1	8	0.018046	-68.5349	-47.4735	-7.89413
 512	1	3	0.065056	-67.2663	-49.4256	-6.13285
 513	1	7	-0.138879	-66.2576	-49.9986	-8.36653
 514	1	7	-0.25744	-68.7777	-50.0099	-8.10301
 515	1	3	0.018858	-66.8735	-48.2032	-5.60354
 516	1	8	0.063111	-68.751	-51.095	-7.94463
 517	1	8	0.056661	-68.9491	-49.829	-9.17159
 518	1	8	0.052049	-69.6349	-49.6092	-7.5468
 519	1	3	-0.499719	-67.4711	-50.5412	-5.30232
 520	1	3	-0.078325	-66.667	-48.0611	-4.22302
 521	1	3	-0.430686	-66.866	-49.1764	-3.38624
 522	1	3	0.29919	-67.2809	-50.4274	-3.90593
 523	1	6	0.134637	-66.3709	-47.1006	-3.80743
 524	1	8	0.0139	-66.2031	-51.0723	-8.1455
 525	1	8	0.03702	-65.309	-49.5442	-8.05484
 526	1	8	0.035416	-66.3486	-49.8808	-9.45364
 527	1	6	0.223374	-67.781	-51.4875	-5.73865
 528	1	6	0.198405	-66.732	-49.0586	-2.31299
 529	1	1	0.464138	-48.2206	-21.1619	-1.34293
 530	1	2	0.077422	-49.3508	-20.8468	-2.10414
 531	1	3	0.04486	-49.6243	-22.0575	-2.92019
 532	1	2	0.055008	-47.7239	-22.4363	-1.63325
 533	1	3	-0.004417	-48.6494	-22.9965	-2.64707
 534	1	5	-0.392499	-50.0169	-19.8239	-2.09909
 535	1	5	-0.37854	-46.7906	-23.0321	-1.12
 536	1	3	-0.044101	-50.6872	-22.3375	-3.78806
 537	1	3	-0.056346	-48.6688	-24.2664	-3.23167
 538	1	3	-0.157726	-49.7171	-24.5642	-4.12537
 539	1	3	-0.13238	-50.7266	-23.6061	-4.41306
 540	1	6	0.167375	-51.465	-21.5952	-3.96191
 541	1	6	0.161059	-47.9076	-25.0018	-2.97915
 542	1	6	0.140064	-49.7633	-25.5581	-4.56652
 543	1	2	0.57844	-51.8773	-23.9455	-5.32325
 544	1	3	-0.037172	-51.6326	-24.8446	-6.50737
 545	1	3	-0.116011	-52.6606	-25.7064	-6.95718
 546	1	3	-0.048223	-52.41	-26.5134	-8.07595
 547	1	3	-0.138147	-50.3974	-24.7995	-7.20806
 548	1	3	-0.114262	-50.1736	-25.6074	-8.34069
 549	1	3	-0.063397	-51.2057	-26.4596	-8.74963
 550	1	2	0.489233	-51.2772	-27.3916	-9.90466
 551	1	1	-0.081676	-52.5419	-27.9627	-9.85027
 552	1	2	0.489742	-53.2837	-27.4966	-8.77195
 553	1	3	0.047265	-53.0317	-28.8877	-10.8122
 554	1	3	-0.183349	-52.9445	-28.5933	-12.1829
 555	1	3	-0.091111	-53.4343	-29.4983	-13.1374
 556	1	3	-0.18836	-53.61	-30.1046	-10.4121
 557	1	3	-0.138837	-54.0985	-31.0124	-11.3684
 558	1	3	0.044906	-54.0243	-30.7187	-12.7487
 559	1	6	0.157291	-52.4909	-27.6623	-12.5133
 560	1	6	0.112962	-53.3471	-29.2479	-14.1903
 561	1	6	0.163228	-49.2366	-25.5657	-8.89349
 562	1	6	0.134491	-49.6153	-24.1133	-6.89053
 563	1	6	0.172124	-53.6258	-25.7443	-6.45302
 564	1	5	-0.48162	-54.4161	-27.8079	-8.44621
 565	1	5	-0.478641	-50.4011	-27.5761	-10.7319
 566	1	5	-0.498568	-52.9888	-23.4951	-5.10228
 567	1	6	0.153588	-53.6879	-30.3479	-9.35508
 568	1	6	0.146442	-54.5315	-31.9444	-11.018
 569	1	7	0.027303	-54.5468	-31.682	-13.8335
 570	1	7	-0.256739	-55.5817	-30.9715	-14.7471
 571	1	8	0.074408	-56.0377	-31.6818	-15.4493
 572	1	8	0.075653	-55.1184	-30.1724	-15.3383
 573	1	8	0.063017	-56.3872	-30.5243	-14.151
 574	1	7	-0.003396	-53.3579	-32.2472	-14.6765
 575	1	7	0.23166	-53.0032	-33.6614	-14.1245
 576	1	8	0.003166	-52.4861	-31.58	-14.6799
 577	1	8	0.018046	-53.6766	-32.3426	-15.7232
 578	1	3	0.065056	-54.2889	-34.0496	-13.4161
 579	1	7	-0.138879	-51.831	-33.5939	-13.1162
 580	1	7	-0.25744	-52.6498	-34.6356	-15.2758
 581	1	3	0.018858	-55.14	-32.9627	-13.2639
 582	1	8	0.063111	-51.7836	-34.2717	-15.8426
 583	1	8	0.056661	-53.4924	-34.7425	-15.971
 584	1	8	0.052049	-52.4053	-35.6322	-14.8882
 585	1	3	-0.499719	-54.6543	-35.3239	-12.9498
 586	1	3	-0.078325	-56.3943	-33.121	-12.6538
 587	1	3	-0.430686	-56.7708	-34.3983	-12.1928
 588	1	3	0.29919	-55.9104	-35.514	-12.3315
 589	1	6	0.134637	-57.0626	-32.27	-12.5429
 590	1	8	0.0139	-51.6318	-34.5827	-12.6835
 591	1	8	0.03702	-52.0555	-32.9066	-12.2915
 592	1	8	0.035416	-50.9122	-33.2472	-13.6057
 593	1	6	0.223374	-53.966	-36.1581	-13.0611
 594	1	6	0.198405	-57.7501	-34.5301	-11.7376
 595	1	1	0.464138	-40.2757	-2.13441	5.22116
 596	1	2	0.077422	-40.1247	-2.76342	3.98232
 597	1	3	0.04486	-40.8765	-4.04135	4.09682
 598	1	2	0.055008	-41.0522	-2.88342	6.10826
 599	1	3	-0.004417	-41.4273	-4.10883	5.36163
 600	1	5	-0.392499	-39.5077	-2.37856	3.00202
 601	1	5	-0.37854	-41.3859	-2.61294	7.25047
 602	1	3	-0.044101	-41.0641	-5.06796	3.16135
 603	1	3	-0.056346	-42.2089	-5.19563	5.764
 604	1	3	-0.157726	-42.4059	-6.24344	4.8421
 605	1	3	-0.13238	-41.8219	-6.20074	3.54611
 606	1	6	0.167375	-40.6254	-4.99066	2.16756
 607	1	6	0.161059	-42.6515	-5.21886	6.7578
 608	1	6	0.140064	-43.0309	-7.08444	5.13565
 609	1	2	0.57844	-42.0337	-7.32029	2.55561
 610	1	3	-0.037172	-42.2213	-8.73033	3.05989
 611	1	3	-0.116011	-43.0613	-9.62465	2.35202
 612	1	3	-0.048223	-43.232	-10.9227	2.85746
 613	1	3	-0.138147	-41.5431	-9.18099	4.22441
 614	1	3	-0.114262	-41.7221	-10.4908	4.70985
 615	1	3	-0.063397	-42.583	-11.3373	4.0029
 616	1	2	0.489233	-42.9878	-12.7361	4.28732
 617	1	1	-0.081676	-43.8951	-13.0821	3.29189
 618	1	2	0.489742	-44.0809	-12.0504	2.37707
 619	1	3	0.047265	-44.575	-14.335	3.25527
 620	1	3	-0.183349	-45.0982	-14.8799	4.44046
 621	1	3	-0.091111	-45.6983	-16.1461	4.44081
 622	1	3	-0.18836	-44.7059	-15.0678	2.06029
 623	1	3	-0.138837	-45.3256	-16.3332	2.05768
 624	1	3	0.044906	-45.8209	-16.8962	3.25435
 625	1	6	0.157291	-45.0114	-14.3387	5.37891
 626	1	6	0.112962	-46.0517	-16.5552	5.38267
 627	1	6	0.163228	-41.2135	-10.8397	5.60715
 628	1	6	0.134491	-40.8656	-8.51504	4.75418
 629	1	6	0.172124	-43.5808	-9.31179	1.44679