pySIMM System Object

1916 atoms
2118 bonds
3741 angles
5999 dihedrals
609 impropers

8 atom types
10 bond types
17 angle types
9 dihedral types
4 improper types

-185.906334 185.906334 xlo xhi
-185.906334 185.906334 ylo yhi
-185.906334 185.906334 zlo zhi

Masses

   1	14.01	# n
   2	12.01	# c
   3	12.01	# ca
   4	1.008	# hn
   5	16.0	# o
   6	1.008	# ha
   7	12.01	# c3
   8	1.008	# hc

Pair Coeffs

   1	0.17	3.249998523775958	# n
   2	0.086	3.3996695084235347	# c
   3	0.086	3.3996695084235347	# ca
   4	0.0157	1.069078461768407	# hn
   5	0.21	2.959921901149463	# o
   6	0.015	2.59964245953351	# ha
   7	0.1094	3.3996695084235347	# c3
   8	0.0157	2.649532787749369	# hc

Bond Coeffs

   1	427.6	1.3789	# c,n
   2	461.1	1.3984	# ca,ca
   3	345.9	1.4906	# c,ca
   4	300.9	1.5375	# c3,c3
   5	345.8	1.086	# ca,ha
   6	384.2	1.4121	# ca,n
   7	637.7	1.2183	# c,o
   8	321.0	1.5156	# c3,ca
   9	330.6	1.0969	# c3,hc
  10	403.2	1.0129	# hn,n

Angle Coeffs

   1	63.82	123.71	# c,n,ca
   2	67.87	120.19	# ca,ca,n
   3	67.68	115.25	# ca,c,n
   4	63.15	112.07	# c3,c3,ca
   5	63.0	118.11	# ca,c,ca
   6	63.56	112.24	# ca,c3,ca
   7	46.34	109.8	# c3,c3,hc
   8	48.33	117.55	# c,n,hn
   9	74.22	123.05	# n,c,o
  10	64.28	120.33	# c,ca,ca
  11	39.4	107.58	# hc,c3,hc
  12	66.62	120.02	# ca,ca,ca
  13	63.53	120.77	# c3,ca,ca
  14	62.86	111.51	# c3,c3,c3
  15	63.74	127.08	# c,n,c
  16	48.18	119.88	# ca,ca,ha
  17	68.72	122.6	# ca,c,o

Dihedral Coeffs

   1	2	2.5	2	180	2.0	1	0	# hn,n,c,o
   2	1	3.625	2	180	# X,ca,ca,X
   3	1	0.16	3	0	# hc,c3,c3,c3
   4	1	1.0	2	180	# X,c,ca,X
   5	1	0.15555555555555556	3	0	# X,c3,c3,X
   6	1	0.0	2	0	# X,c3,ca,X
   7	3	0.18	3	0	0.25	2	180	0.2	1	180	# c3,c3,c3,c3
   8	1	2.5	2	180	# X,c,n,X
   9	1	0.45	2	180	# X,ca,n,X

Improper Coeffs

   1	1.1	-1	2	# ca,ca,ca,c3
   2	1.1	-1	2	# n,X,X,hn
   3	1.1	-1	2	# ca,X,X,ha
   4	10.5	-1	2	# c,X,X,o

Atoms

   1	1	1	0.464138	103.101	-15.0532	-98.0381
   2	1	2	0.077422	102.974	-15.8111	-99.2045
   3	1	3	0.04486	103.032	-14.8303	-100.317
   4	1	2	0.055008	103.195	-13.6838	-98.2988
   5	1	3	-0.004417	103.161	-13.5649	-99.7796
   6	1	5	-0.392499	102.891	-17.023	-99.3252
   7	1	5	-0.37854	103.323	-12.7641	-97.5073
   8	1	3	-0.044101	103.042	-15.0487	-101.7
   9	1	3	-0.056346	103.302	-12.4382	-100.597
  10	1	3	-0.157726	103.312	-12.6334	-101.994
  11	1	3	-0.13238	103.174	-13.9295	-102.559
  12	1	6	0.167375	102.991	-16.0669	-102.079
  13	1	6	0.161059	103.427	-11.4496	-100.16
  14	1	6	0.140064	103.446	-11.7736	-102.649
  15	1	2	0.57844	103.259	-14.1054	-104.056
  16	1	3	-0.037172	102.59	-15.2901	-104.706
  17	1	3	-0.116011	103.21	-15.9211	-105.81
  18	1	3	-0.048223	102.58	-17.0349	-106.383
  19	1	3	-0.138147	101.336	-15.7676	-104.239
  20	1	3	-0.114262	100.715	-16.8835	-104.837
  21	1	3	-0.063397	101.372	-17.5022	-105.908
  22	1	2	0.489233	100.998	-18.7065	-106.693
  23	1	1	-0.081676	102.034	-18.9083	-107.598
  24	1	2	0.489742	103.018	-17.9309	-107.488
  25	1	3	0.047265	102.111	-20.0372	-108.466
  26	1	3	-0.183349	100.986	-20.4663	-109.193
  27	1	3	-0.091111	101.041	-21.6357	-109.971
  28	1	3	-0.18836	103.3	-20.781	-108.562
  29	1	3	-0.138837	103.357	-21.9473	-109.343
  30	1	3	0.044906	102.218	-22.41	-110.041
  31	1	6	0.157291	100.054	-19.9113	-109.132
  32	1	6	0.112962	100.151	-21.9515	-110.507
  33	1	6	0.163228	99.7602	-17.2638	-104.478
  34	1	6	0.134491	100.833	-15.2664	-103.415
  35	1	6	0.172124	104.167	-15.5686	-106.196
  36	1	5	-0.48162	104.06	-17.8356	-108.113
  37	1	5	-0.478641	100.0	-19.386	-106.522
  38	1	5	-0.498568	103.908	-13.3225	-104.731
  39	1	6	0.153588	104.187	-20.4661	-108.018
  40	1	6	0.146442	104.296	-22.4897	-109.383
  41	1	7	0.027303	102.222	-23.7276	-110.845
  42	1	7	-0.256739	101.058	-24.6524	-110.397
  43	1	8	0.074408	101.072	-24.7981	-109.309
  44	1	8	0.075653	101.138	-25.6406	-110.869
  45	1	8	0.063017	100.081	-24.2347	-110.667
  46	1	7	-0.003396	102.148	-23.4467	-112.38
  47	1	7	0.23166	103.59	-23.564	-112.966
  48	1	8	0.003166	101.691	-22.4738	-112.605
  49	1	8	0.018046	101.508	-24.2046	-112.852
  50	1	3	0.065056	104.302	-24.3757	-111.898
  51	1	7	-0.138879	104.245	-22.1696	-113.113
  52	1	7	-0.25744	103.581	-24.2858	-114.336
  53	1	3	0.018858	103.542	-24.4754	-110.738
  54	1	8	0.063111	103.174	-25.3007	-114.24
  55	1	8	0.056661	104.596	-24.3691	-114.744
  56	1	8	0.052049	102.967	-23.7387	-115.063
  57	1	3	-0.499719	105.573	-24.9756	-111.98
  58	1	3	-0.078325	104.022	-25.1874	-109.626
  59	1	3	-0.430686	105.293	-25.7895	-109.705
  60	1	3	0.29919	106.067	-25.686	-110.875
  61	1	6	0.134637	103.427	-25.2575	-108.718
  62	1	8	0.0139	104.255	-21.6339	-112.155
  63	1	8	0.03702	103.698	-21.5547	-113.839
  64	1	8	0.035416	105.282	-22.2612	-113.458
  65	1	6	0.223374	106.17	-24.8937	-112.881
  66	1	6	0.198405	105.688	-26.3401	-108.856
  67	1	1	0.464138	101.108	-8.21858	-78.4111
  68	1	2	0.077422	102.26	-8.52867	-79.1449
  69	1	3	0.04486	101.894	-9.69647	-79.986
  70	1	2	0.055008	100.053	-9.09232	-78.7018
  71	1	3	-0.004417	100.579	-10.026	-79.7319
  72	1	5	-0.392499	103.335	-7.95167	-79.1676
  73	1	5	-0.37854	98.925	-9.11494	-78.2354
  74	1	3	-0.044101	102.662	-10.4067	-80.9167
  75	1	3	-0.056346	99.9503	-11.083	-80.4017
  76	1	3	-0.157726	100.701	-11.8063	-81.3555
  77	1	3	-0.13238	102.054	-11.4681	-81.6289
  78	1	6	0.167375	103.703	-10.1361	-81.0852
  79	1	6	0.161059	98.9148	-11.3345	-80.1819
  80	1	6	0.140064	100.234	-12.6472	-81.865
  81	1	2	0.57844	102.898	-12.2524	-82.6037
  82	1	3	-0.037172	102.336	-12.7363	-83.9234
  83	1	3	-0.116011	103.062	-13.707	-84.6574
  84	1	3	-0.048223	102.587	-14.0982	-85.9169
  85	1	3	-0.138147	101.158	-12.1798	-84.4949
  86	1	3	-0.114262	100.695	-12.5926	-85.7633
  87	1	3	-0.063397	101.437	-13.5594	-86.4537
  88	1	2	0.489233	101.248	-14.132	-87.8152
  89	1	1	-0.081676	102.329	-14.9819	-88.0246
  90	1	2	0.489742	103.172	-15.0298	-86.9186
  91	1	3	0.047265	102.588	-15.671	-89.247
  92	1	3	-0.183349	103.004	-17.0139	-89.2398
  93	1	3	-0.091111	103.332	-17.6671	-90.4397
  94	1	3	-0.18836	102.478	-15.0071	-90.4832
  95	1	3	-0.138837	102.803	-15.6618	-91.6849
  96	1	3	0.044906	103.256	-16.9992	-91.6798
  97	1	6	0.157291	103.104	-17.5499	-88.2993
  98	1	6	0.112962	103.665	-18.6998	-90.3994
  99	1	6	0.163228	99.8071	-12.1528	-86.2145
 100	1	6	0.134491	100.615	-11.3925	-83.9784
 101	1	6	0.172124	103.991	-14.1257	-84.2712
 102	1	5	-0.48162	104.204	-15.6652	-86.7841
 103	1	5	-0.478641	100.338	-13.8651	-88.5809
 104	1	5	-0.498568	104.075	-12.4422	-82.3409
 105	1	6	0.153588	102.15	-13.9709	-90.5172
 106	1	6	0.146442	102.71	-15.1093	-92.6149
 107	1	7	0.027303	103.689	-17.7356	-92.9649
 108	1	7	-0.256739	105.137	-18.2793	-92.8164
 109	1	8	0.074408	105.198	-19.0705	-92.0597
 110	1	8	0.075653	105.827	-17.4788	-92.5213
 111	1	8	0.063017	105.497	-18.7005	-93.7643
 112	1	7	-0.003396	102.7	-18.8982	-93.3024
 113	1	7	0.23166	101.755	-18.4184	-94.4464
 114	1	8	0.003166	102.137	-19.239	-92.4234
 115	1	8	0.018046	103.274	-19.7659	-93.6552
 116	1	3	0.065056	102.546	-17.2718	-95.0519
 117	1	7	-0.138879	100.414	-17.9002	-93.8746
 118	1	7	-0.25744	101.488	-19.5555	-95.4636
 119	1	3	0.018858	103.593	-16.8847	-94.2246
 120	1	8	0.063111	100.819	-19.2192	-96.2654
 121	1	8	0.056661	101.019	-20.4175	-94.9722
 122	1	8	0.052049	102.424	-19.8937	-95.9269
 123	1	3	-0.499719	102.343	-16.6547	-96.3009
 124	1	3	-0.078325	104.463	-15.8566	-94.6163
 125	1	3	-0.430686	104.268	-15.2379	-95.8661
 126	1	3	0.29919	103.22	-15.6323	-96.7324
 127	1	6	0.134637	105.286	-15.5567	-93.9705
 128	1	8	0.0139	100.578	-17.1008	-93.1413
 129	1	8	0.03702	99.8624	-18.708	-93.3767
 130	1	8	0.035416	99.7784	-17.4983	-94.6739
 131	1	6	0.223374	101.544	-17.0005	-96.9509
 132	1	6	0.198405	104.951	-14.4482	-96.1737
 133	1	1	0.464138	94.9498	-1.10372	-58.7534
 134	1	2	0.077422	94.1703	-0.876591	-59.8897
 135	1	3	0.04486	94.9708	-1.40824	-61.0269
 136	1	2	0.055008	96.1381	-1.77608	-59.0477
 137	1	3	-0.004417	96.1383	-1.94577	-60.5229
 138	1	5	-0.392499	93.1067	-0.284232	-59.9737
 139	1	5	-0.37854	97.0419	-2.0912	-58.2908
 140	1	3	-0.044101	94.7364	-1.3384	-62.4071
 141	1	3	-0.056346	97.1371	-2.44336	-61.3663
 142	1	3	-0.157726	96.9224	-2.38327	-62.7597
 143	1	3	-0.13238	95.7203	-1.84324	-63.2958
 144	1	6	0.167375	93.8262	-0.869052	-62.778
 145	1	6	0.161059	98.0672	-2.8249	-60.95
 146	1	6	0.140064	97.721	-2.71521	-63.4186
 147	1	2	0.57844	95.5031	-1.6834	-64.7862
 148	1	3	-0.037172	96.2911	-2.49539	-65.7906
 149	1	3	-0.116011	96.6305	-1.90297	-67.0315
 150	1	3	-0.048223	97.3351	-2.66628	-67.9737
 151	1	3	-0.138147	96.6403	-3.85277	-65.5538
 152	1	3	-0.114262	97.3477	-4.60386	-66.5184
 153	1	3	-0.063397	97.6867	-3.97672	-67.7252
 154	1	2	0.489233	98.4155	-4.49491	-68.9177
 155	1	1	-0.081676	98.4663	-3.4403	-69.8237
 156	1	2	0.489742	97.829	-2.30531	-69.33
 157	1	3	0.047265	99.1136	-3.49735	-71.096
 158	1	3	-0.183349	99.9425	-2.44159	-71.514
 159	1	3	-0.091111	100.552	-2.46658	-72.7781
 160	1	3	-0.18836	98.9293	-4.59052	-71.9652
 161	1	3	-0.138837	99.5457	-4.61809	-73.2326
 162	1	3	0.044906	100.362	-3.54892	-73.6619
 163	1	6	0.157291	100.103	-1.58301	-70.8671
 164	1	6	0.112962	101.172	-1.62605	-73.0759
 165	1	6	0.163228	97.6163	-5.64413	-66.3424
 166	1	6	0.134491	96.3433	-4.33645	-64.626
 167	1	6	0.172124	96.3523	-0.873689	-67.2568
 168	1	5	-0.48162	97.7067	-1.21657	-69.8645
 169	1	5	-0.478641	98.8808	-5.61495	-69.0384
 170	1	5	-0.498568	94.7103	-0.84702	-65.1871
 171	1	6	0.153588	98.3009	-5.42448	-71.6618
 172	1	6	0.146442	99.3755	-5.47604	-73.8764
 173	1	7	0.027303	101.027	-3.503	-75.0541
 174	1	7	-0.256739	100.501	-2.27561	-75.8469
 175	1	8	0.074408	99.4055	-2.28757	-75.9035
 176	1	8	0.075653	100.892	-2.27134	-76.8732
 177	1	8	0.063017	100.8	-1.33225	-75.3735
 178	1	7	-0.003396	102.584	-3.44477	-74.9206
 179	1	7	0.23166	103.138	-4.88773	-75.1152
 180	1	8	0.003166	102.921	-3.00335	-73.974
 181	1	8	0.018046	102.984	-2.80339	-75.7178
 182	1	3	0.065056	102.028	-5.53098	-75.9285
 183	1	7	-0.138879	103.3	-5.61241	-73.7577
 184	1	7	-0.25744	104.494	-4.86427	-75.8638
 185	1	3	0.018858	100.862	-4.77568	-75.8803
 186	1	8	0.063111	104.89	-5.87873	-75.9966
 187	1	8	0.056661	105.238	-4.28244	-75.3055
 188	1	8	0.052049	104.385	-4.41393	-76.8589
 189	1	3	-0.499719	102.11	-6.69361	-76.7176
 190	1	3	-0.078325	99.7453	-5.16057	-76.6366
 191	1	3	-0.430686	99.831	-6.30964	-77.4488
 192	1	3	0.29919	101.011	-7.0945	-77.5146
 193	1	6	0.134637	98.8384	-4.56067	-76.6204
 194	1	8	0.0139	103.638	-6.64593	-73.9059
 195	1	8	0.03702	102.351	-5.64569	-73.2091
 196	1	8	0.035416	104.039	-5.10144	-73.1267
 197	1	6	0.223374	103.045	-7.24679	-76.7541
 198	1	6	0.198405	98.9681	-6.58409	-78.0515
 199	1	1	0.464138	88.076	-3.90356	-37.9716
 200	1	2	0.077422	87.9156	-4.55339	-39.2015
 201	1	3	0.04486	88.4981	-3.64028	-40.214
 202	1	2	0.055008	88.7112	-2.66308	-38.1153
 203	1	3	-0.004417	88.9806	-2.5197	-39.5721
 204	1	5	-0.392499	87.4479	-5.65652	-39.4363
 205	1	5	-0.37854	88.9937	-1.84323	-37.2567
 206	1	3	-0.044101	88.5845	-3.78818	-41.6022
 207	1	3	-0.056346	89.5873	-1.47982	-40.2881
 208	1	3	-0.157726	89.6901	-1.60774	-41.6925
 209	1	3	-0.13238	89.2012	-2.76486	-42.3609
 210	1	6	0.167375	88.1706	-4.67557	-42.0791
 211	1	6	0.161059	89.9497	-0.594864	-39.7688
 212	1	6	0.140064	90.1205	-0.786702	-42.2617
 213	1	2	0.57844	89.2183	-2.9144	-43.8661
 214	1	3	-0.037172	90.3168	-2.32186	-44.7232
 215	1	3	-0.116011	90.0666	-2.13262	-46.1057
 216	1	3	-0.048223	91.0902	-1.62466	-46.9172
 217	1	3	-0.138147	91.6081	-2.02138	-44.2088
 218	1	3	-0.114262	92.6219	-1.49889	-45.0416
 219	1	3	-0.063397	92.3283	-1.30564	-46.3983
 220	1	2	0.489233	93.166	-0.765106	-47.5048
 221	1	1	-0.081676	92.3621	-0.793581	-48.6381
 222	1	2	0.489742	91.1023	-1.31285	-48.3738
 223	1	3	0.047265	92.7482	-0.257984	-49.8983
 224	1	3	-0.183349	92.7652	-1.05057	-51.0612
 225	1	3	-0.091111	93.1405	-0.496804	-52.3025
 226	1	3	-0.18836	93.1046	1.09569	-49.9945
 227	1	3	-0.138837	93.4603	1.65023	-51.2336
 228	1	3	0.044906	93.4819	0.869371	-52.4092
 229	1	6	0.157291	92.4863	-2.09949	-51.0043
 230	1	6	0.112962	93.1632	-1.14261	-53.1731
 231	1	6	0.163228	93.6101	-1.26126	-44.6509
 232	1	6	0.134491	91.8406	-2.21278	-43.1644
 233	1	6	0.172124	89.0978	-2.37718	-46.5407
 234	1	5	-0.48162	90.1723	-1.45218	-49.1486
 235	1	5	-0.478641	94.3027	-0.337724	-47.4017
 236	1	5	-0.498568	88.3231	-3.54952	-44.3996
 237	1	6	0.153588	93.1066	1.72203	-49.106
 238	1	6	0.146442	93.7327	2.70074	-51.2768
 239	1	7	0.027303	93.9033	1.55157	-53.7297
 240	1	7	-0.256739	92.8906	2.67372	-54.0853
 241	1	8	0.074408	93.1355	3.1425	-55.0465
 242	1	8	0.075653	92.8723	3.46373	-53.3249
 243	1	8	0.063017	91.8751	2.265	-54.1657
 244	1	7	-0.003396	95.3442	2.13762	-53.5567
 245	1	7	0.23166	96.1555	1.88839	-54.8613
 246	1	8	0.003166	95.8451	1.61853	-52.7281
 247	1	8	0.018046	95.325	3.20088	-53.2833
 248	1	3	0.065056	95.2987	0.869843	-55.5878
 249	1	7	-0.138879	97.5669	1.33204	-54.5531
 250	1	7	-0.25744	96.2793	3.18969	-55.6929
 251	1	3	0.018858	94.0722	0.664769	-54.964
 252	1	8	0.063111	96.842	3.95446	-55.1432
 253	1	8	0.056661	95.2916	3.6013	-55.9332
 254	1	8	0.052049	96.8011	3.00119	-56.6395
 255	1	3	-0.499719	95.6043	0.262754	-56.8171
 256	1	3	-0.078325	93.0955	-0.124773	-55.5972
 257	1	3	-0.430686	93.3966	-0.738973	-56.8337
 258	1	3	0.29919	94.6537	-0.55694	-57.4612
 259	1	6	0.134637	92.106	-0.225806	-55.1566
 260	1	8	0.0139	98.1352	1.16428	-55.4767
 261	1	8	0.03702	97.5023	0.374567	-54.0204
 262	1	8	0.035416	98.1356	2.03265	-53.9287
 263	1	6	0.223374	96.5669	0.453149	-57.2851
 264	1	6	0.198405	92.6285	-1.32232	-57.3368
 265	1	1	0.464138	76.2775	1.74066	-24.9019
 266	1	2	0.077422	76.9642	0.883091	-25.7694
 267	1	3	0.04486	77.2542	-0.331575	-24.9743
 268	1	2	0.055008	76.0467	1.14568	-23.6531
 269	1	3	-0.004417	76.6867	-0.19288	-23.7256
 270	1	5	-0.392499	77.3192	1.06601	-26.9231
 271	1	5	-0.37854	75.5487	1.63265	-22.6513
 272	1	3	-0.044101	78.0388	-1.43766	-25.3088
 273	1	3	-0.056346	76.8235	-1.18732	-22.7488
 274	1	3	-0.157726	77.5977	-2.32323	-23.0686
 275	1	3	-0.13238	78.2413	-2.43814	-24.3293
 276	1	6	0.167375	78.4878	-1.49566	-26.2983
 277	1	6	0.161059	76.3688	-1.06893	-21.7669
 278	1	6	0.140064	77.7327	-3.10256	-22.3192
 279	1	2	0.57844	79.1288	-3.61796	-24.6273
 280	1	3	-0.037172	80.2916	-3.42487	-25.5688
 281	1	3	-0.116011	80.6227	-4.44764	-26.4865
 282	1	3	-0.048223	81.7082	-4.24224	-27.35
 283	1	3	-0.138147	81.0771	-2.24041	-25.5279
 284	1	3	-0.114262	82.1774	-2.0651	-26.3938
 285	1	3	-0.063397	82.4679	-3.09173	-27.3014
 286	1	2	0.489233	83.5542	-3.20965	-28.313
 287	1	1	-0.081676	83.3734	-4.44581	-28.9269
 288	1	2	0.489742	82.2695	-5.11992	-28.4088
 289	1	3	0.047265	84.2201	-4.97631	-29.9493
 290	1	3	-0.183349	84.7196	-4.16612	-30.989
 291	1	3	-0.091111	85.5146	-4.71522	-32.0144
 292	1	3	-0.18836	84.5561	-6.34181	-29.9462
 293	1	3	-0.138837	85.3347	-6.89133	-30.975
 294	1	3	0.044906	85.8178	-6.0937	-32.0316
 295	1	6	0.157291	84.4853	-3.10488	-31.0144
 296	1	6	0.112962	85.8669	-4.06221	-32.8074
 297	1	6	0.163228	82.7917	-1.16654	-26.3595
 298	1	6	0.134491	80.8476	-1.45999	-24.8051
 299	1	6	0.172124	80.0485	-5.37248	-26.5302
 300	1	5	-0.48162	81.8148	-6.20081	-28.7421
 301	1	5	-0.478641	84.4222	-2.3803	-28.524
 302	1	5	-0.498568	78.9159	-4.70423	-24.1153
 303	1	6	0.153588	84.1906	-6.99556	-29.1583
 304	1	6	0.146442	85.5406	-7.95759	-30.9611
 305	1	7	0.027303	86.6026	-6.7691	-33.1739
 306	1	7	-0.256739	87.8379	-7.52589	-32.6132
 307	1	8	0.074408	88.4676	-6.85567	-32.0145
 308	1	8	0.075653	88.4542	-7.92979	-33.4271
 309	1	8	0.063017	87.5431	-8.36725	-31.9747
 310	1	7	-0.003396	85.6604	-7.74654	-33.9502
 311	1	7	0.23166	85.1248	-6.99873	-35.2075
 312	1	8	0.003166	84.844	-8.14061	-33.3316
 313	1	8	0.018046	86.2457	-8.61594	-34.2789
 314	1	3	0.065056	86.2182	-5.96721	-35.4265
 315	1	7	-0.138879	83.77	-6.305	-34.9235
 316	1	7	-0.25744	84.9707	-7.96991	-36.4044
 317	1	3	0.018858	87.0226	-5.8306	-34.3017
 318	1	8	0.063111	84.5831	-7.44902	-37.2885
 319	1	8	0.056661	84.2756	-8.78292	-36.1602
 320	1	8	0.052049	85.9367	-8.41549	-36.6744
 321	1	3	-0.499719	86.5144	-5.28367	-36.6192
 322	1	3	-0.078325	88.153	-5.0001	-34.3438
 323	1	3	-0.430686	88.4745	-4.3411	-35.549
 324	1	3	0.29919	87.6765	-4.48136	-36.7134
 325	1	6	0.134637	88.798	-4.90683	-33.4732
 326	1	8	0.0139	83.8437	-5.6075	-34.0814
 327	1	8	0.03702	82.9949	-7.04344	-34.6831
 328	1	8	0.035416	83.435	-5.73487	-35.7991
 329	1	6	0.223374	85.8844	-5.44155	-37.4905
 330	1	6	0.198405	89.3756	-3.73292	-35.5846
 331	1	1	0.464138	81.536	3.07063	-16.9045
 332	1	2	0.077422	80.7667	4.19599	-17.2069
 333	1	3	0.04486	81.4479	5.32675	-16.53
 334	1	2	0.055008	82.6063	3.36767	-16.0568
 335	1	3	-0.004417	82.5445	4.83909	-15.8495
 336	1	5	-0.392499	79.7896	4.28301	-17.9333
 337	1	5	-0.37854	83.4724	2.61852	-15.6365
 338	1	3	-0.044101	81.1603	6.69402	-16.5811
 339	1	3	-0.056346	83.4165	5.69765	-15.1697
 340	1	3	-0.157726	83.1587	7.08519	-15.2266
 341	1	3	-0.13238	82.0518	7.60109	-15.953
 342	1	6	0.167375	80.2749	7.02388	-17.1193
 343	1	6	0.161059	84.2811	5.30184	-14.6411
 344	1	6	0.140064	83.837	7.77204	-14.7221
 345	1	2	0.57844	81.8361	9.09791	-16.0386
 346	1	3	-0.037172	81.0253	9.65631	-17.1831
 347	1	3	-0.116011	81.1137	9.08417	-18.4741
 348	1	3	-0.048223	80.2184	9.5192	-19.4561
 349	1	3	-0.138147	80.1173	10.7235	-16.9557
 350	1	3	-0.114262	79.2319	11.156	-17.9675
 351	1	3	-0.063397	79.2894	10.5096	-19.2096
 352	1	2	0.489233	78.3751	10.5852	-20.3839
 353	1	1	-0.081676	78.7901	9.57311	-21.24
 354	1	2	0.489742	79.9378	8.93558	-20.7892
 355	1	3	0.047265	78.012	9.07915	-22.3197
 356	1	3	-0.183349	77.635	7.72748	-22.3189
 357	1	3	-0.091111	76.8793	7.19543	-23.3698
 358	1	3	-0.18836	77.5927	9.90487	-23.3762
 359	1	3	-0.138837	76.8345	9.36897	-24.4354
 360	1	3	0.044906	76.4769	8.00279	-24.4582
 361	1	6	0.157291	77.9439	7.07283	-21.5076
 362	1	6	0.112962	76.6447	6.13744	-23.3257
 363	1	6	0.163228	78.4829	11.9223	-17.7754
 364	1	6	0.134491	80.0592	11.1754	-15.967
 365	1	6	0.172124	81.8047	8.27275	-18.6969
 366	1	5	-0.48162	80.5118	7.97637	-21.2761
 367	1	5	-0.478641	77.384	11.2876	-20.4807
 368	1	5	-0.498568	82.2754	9.83773	-15.1741
 369	1	6	0.153588	77.8588	10.959	-23.3802
 370	1	6	0.146442	76.5387	10.0178	-25.2548
 371	1	7	0.027303	75.7298	7.41318	-25.6758
 372	1	7	-0.256739	74.358	8.10445	-25.8823
 373	1	8	0.074408	73.7894	7.61993	-26.6865
 374	1	8	0.075653	74.4806	9.16196	-26.1465
 375	1	8	0.063017	73.7562	8.05584	-24.9658
 376	1	7	-0.003396	76.6264	7.51589	-26.9504
 377	1	7	0.23166	77.4853	6.21533	-27.0236
 378	1	8	0.003166	77.2451	8.422	-26.9697
 379	1	8	0.018046	75.9759	7.56347	-27.8342
 380	1	3	0.065056	76.6384	5.2516	-26.2099
 381	1	7	-0.138879	78.8804	6.41071	-26.3797
 382	1	7	-0.25744	77.6531	5.73644	-28.4867
 383	1	3	0.018858	75.5983	5.90117	-25.5612
 384	1	8	0.063111	76.6776	5.5367	-28.948
 385	1	8	0.056661	78.2391	4.80986	-28.5317
 386	1	8	0.052049	78.1689	6.49418	-29.0897
 387	1	3	-0.499719	76.8585	3.87868	-26.0217
 388	1	3	-0.078325	74.679	5.174	-24.7903
 389	1	3	-0.430686	74.8732	3.78673	-24.6323
 390	1	3	0.29919	75.9867	3.11871	-25.2043
 391	1	6	0.134637	73.8702	5.68318	-24.2711
 392	1	8	0.0139	79.4599	7.16684	-26.9242
 393	1	8	0.03702	79.4503	5.47332	-26.3945
 394	1	8	0.035416	78.8025	6.73392	-25.3357
 395	1	6	0.223374	77.7251	3.42231	-26.4909
 396	1	6	0.198405	74.1817	3.23781	-23.9968
 397	1	1	0.464138	67.7465	-10.8448	-12.0852
 398	1	2	0.077422	69.0307	-10.4443	-11.7281
 399	1	3	0.04486	69.6708	-10.0288	-13.0017
 400	1	2	0.055008	67.4886	-10.6958	-13.4473
 401	1	3	-0.004417	68.7536	-10.1711	-14.025
 402	1	5	-0.392499	69.5555	-10.4726	-10.627
 403	1	5	-0.37854	66.4767	-10.9851	-14.0636
 404	1	3	-0.044101	70.9859	-9.62461	-13.2496
 405	1	3	-0.056346	69.0987	-9.90837	-15.3563
 406	1	3	-0.157726	70.4194	-9.48812	-15.6294
 407	1	3	-0.13238	71.3672	-9.33481	-14.5811
 408	1	6	0.167375	71.6997	-9.56173	-12.4293
 409	1	6	0.161059	68.372	-10.0587	-16.1522
 410	1	6	0.140064	70.717	-9.32497	-16.6634
 411	1	2	0.57844	72.81	-8.98249	-14.8415
 412	1	3	-0.037172	73.2032	-7.93175	-15.8568
 413	1	3	-0.116011	74.5712	-7.81889	-16.2046
 414	1	3	-0.048223	74.9703	-6.7773	-17.0502
 415	1	3	-0.138147	72.2782	-6.98618	-16.3808
 416	1	3	-0.114262	72.7028	-5.94553	-17.2365
 417	1	3	-0.063397	74.0663	-5.86152	-17.5481
 418	1	2	0.489233	74.8282	-4.82363	-18.2986
 419	1	1	-0.081676	76.1652	-5.18062	-18.1785
 420	1	2	0.489742	76.3334	-6.36327	-17.4716
 421	1	3	0.047265	77.2539	-4.37042	-18.6
 422	1	3	-0.183349	78.2638	-4.8961	-19.4221
 423	1	3	-0.091111	79.395	-4.12487	-19.7379
 424	1	3	-0.18836	77.3745	-3.05149	-18.1305
 425	1	3	-0.138837	78.5085	-2.28194	-18.4421
 426	1	3	0.044906	79.5551	-2.81996	-19.2232
 427	1	6	0.157291	78.1897	-5.91564	-19.7925
 428	1	6	0.112962	80.1597	-4.56122	-20.3728
 429	1	6	0.163228	72.0044	-5.19736	-17.6075
 430	1	6	0.134491	71.2331	-7.01625	-16.0862
 431	1	6	0.172124	75.3172	-8.4946	-15.7865
 432	1	5	-0.48162	77.3761	-6.92077	-17.1767
 433	1	5	-0.478641	74.363	-3.82743	-18.825
 434	1	5	-0.498568	73.6709	-9.51143	-14.1572
 435	1	6	0.153588	76.597	-2.6262	-17.5003
 436	1	6	0.146442	78.5678	-1.27023	-18.0513
 437	1	7	0.027303	80.8322	-2.01507	-19.5443
 438	1	7	-0.256739	82.1139	-2.87163	-19.3471
 439	1	8	0.074408	82.1804	-3.68875	-20.075
 440	1	8	0.075653	82.1381	-3.31227	-18.342
 441	1	8	0.063017	83.016	-2.25668	-19.4639
 442	1	7	-0.003396	80.762	-1.46379	-21.0052
 443	1	7	0.23166	80.8216	0.0963894	-20.9654
 444	1	8	0.003166	79.842	-1.79968	-21.4982
 445	1	8	0.018046	81.5856	-1.86701	-21.6093
 446	1	3	0.065056	80.9802	0.401311	-19.4867
 447	1	7	-0.138879	79.517	0.719618	-21.5166
 448	1	7	-0.25744	82.0334	0.617318	-21.7764
 449	1	3	0.018858	80.9803	-0.748994	-18.7119
 450	1	8	0.063111	82.0967	1.71156	-21.7292
 451	1	8	0.056661	81.9542	0.326924	-22.8314
 452	1	8	0.052049	82.9718	0.209129	-21.379
 453	1	3	-0.499719	81.1441	1.66792	-18.8987
 454	1	3	-0.078325	81.1612	-0.667008	-17.3212
 455	1	3	-0.430686	81.3284	0.599988	-16.7253
 456	1	3	0.29919	81.3229	1.78469	-17.501
 457	1	6	0.134637	81.1838	-1.57214	-16.7178
 458	1	8	0.0139	79.3699	0.451401	-22.5702
 459	1	8	0.03702	79.5444	1.81438	-21.447
 460	1	8	0.035416	78.6463	0.370191	-20.947
 461	1	6	0.223374	81.1353	2.5571	-19.5245
 462	1	6	0.198405	81.4949	0.661996	-15.6516
 463	1	1	0.464138	48.5039	-18.0794	-8.98482
 464	1	2	0.077422	48.5896	-16.8146	-9.57344
 465	1	3	0.04486	50.0358	-16.5973	-9.83058
 466	1	2	0.055008	49.7618	-18.6642	-8.8023
 467	1	3	-0.004417	50.734	-17.6945	-9.37031
 468	1	5	-0.392499	47.6892	-16.0466	-9.87239
 469	1	5	-0.37854	50.0348	-19.767	-8.35669
 470	1	3	-0.044101	50.6768	-15.5498	-10.501
 471	1	3	-0.056346	52.118	-17.8039	-9.54715
 472	1	3	-0.157726	52.7874	-16.7602	-10.2229
 473	1	3	-0.13238	52.0764	-15.6265	-10.7068
 474	1	6	0.167375	50.0904	-14.7182	-10.8893
 475	1	6	0.161059	52.6471	-18.6912	-9.20529
 476	1	6	0.140064	53.8536	-16.8661	-10.4082
 477	1	2	0.57844	52.739	-14.5502	-11.5354
 478	1	3	-0.037172	54.238	-14.5026	-11.671
 479	1	3	-0.116011	55.083	-14.4561	-10.5347
 480	1	3	-0.048223	56.4674	-14.3453	-10.7434
 481	1	3	-0.138147	54.8018	-14.4241	-12.97
 482	1	3	-0.114262	56.1949	-14.3325	-13.156
 483	1	3	-0.063397	57.0033	-14.2954	-12.0146
 484	1	2	0.489233	58.4763	-14.1534	-11.8964
 485	1	1	-0.081676	58.7479	-14.0961	-10.5331
 486	1	2	0.489742	57.5885	-14.217	-9.77074
 487	1	3	0.047265	60.0596	-13.9203	-9.99647
 488	1	3	-0.183349	60.4892	-14.6451	-8.8698
 489	1	3	-0.091111	61.7958	-14.4897	-8.3745
 490	1	3	-0.18836	60.9628	-13.0278	-10.603
 491	1	3	-0.138837	62.2729	-12.8848	-10.1186
 492	1	3	0.044906	62.7152	-13.62	-8.99787
 493	1	6	0.157291	59.8137	-15.3367	-8.37323
 494	1	6	0.112962	62.1002	-15.0657	-7.50542
 495	1	6	0.163228	56.6335	-14.2675	-14.1505
 496	1	6	0.134491	54.1468	-14.4279	-13.8395
 497	1	6	0.172124	54.6788	-14.4664	-9.52384
 498	1	5	-0.48162	57.4765	-14.2116	-8.55683
 499	1	5	-0.478641	59.2591	-14.1041	-12.8296
 500	1	5	-0.498568	52.0539	-13.7771	-12.1847
 501	1	6	0.153588	60.6618	-12.4519	-11.4748
 502	1	6	0.146442	62.9378	-12.2059	-10.6427
 503	1	7	0.027303	64.1567	-13.5131	-8.4567
 504	1	7	-0.256739	64.1503	-12.9858	-6.9979
 505	1	8	0.074408	65.1731	-12.8232	-6.63339
 506	1	8	0.075653	63.6616	-13.6952	-6.31859
 507	1	8	0.063017	63.6124	-12.0319	-6.92913
 508	1	7	-0.003396	64.8792	-14.8974	-8.54554
 509	1	7	0.23166	65.7021	-14.9253	-9.86879
 510	1	8	0.003166	64.1904	-15.7486	-8.47585
 511	1	8	0.018046	65.5706	-14.9908	-7.69717
 512	1	3	0.065056	65.8935	-13.444	-10.1395
 513	1	7	-0.138879	64.9022	-15.5843	-11.0183
 514	1	7	-0.25744	67.048	-15.6669	-9.67361
 515	1	3	0.018858	65.0629	-12.6651	-9.3425
 516	1	8	0.063111	67.6279	-15.6826	-10.6045
 517	1	8	0.056661	66.8799	-16.7055	-9.36241
 518	1	8	0.052049	67.6589	-15.1748	-8.90585
 519	1	3	-0.499719	66.7774	-12.8543	-11.0592
 520	1	3	-0.078325	65.1136	-11.2634	-9.42134
 521	1	3	-0.430686	66.002	-10.6633	-10.3374
 522	1	3	0.29919	66.8369	-11.4485	-11.1677
 523	1	6	0.134637	64.4673	-10.6549	-8.79291
 524	1	8	0.0139	65.466	-15.5425	-11.959
 525	1	8	0.03702	63.9447	-15.0746	-11.1805
 526	1	8	0.035416	64.6919	-16.6379	-10.796
 527	1	6	0.223374	67.4114	-13.4804	-11.6803
 528	1	6	0.198405	66.0464	-9.57914	-10.4021
 529	1	1	0.464138	32.2921	-12.1243	2.04658
 530	1	2	0.077422	33.2707	-12.9665	2.57734
 531	1	3	0.04486	33.8774	-13.6456	1.40523
 532	1	2	0.055008	32.184	-12.2365	0.658419
 533	1	3	-0.004417	33.2338	-13.2107	0.264133
 534	1	5	-0.392499	33.6225	-13.0898	3.73946
 535	1	5	-0.37854	31.4599	-11.6158	-0.102815
 536	1	3	-0.044101	34.9723	-14.5143	1.3441
 537	1	3	-0.056346	33.6557	-13.6125	-1.00747
 538	1	3	-0.157726	34.7623	-14.4844	-1.09462
 539	1	3	-0.13238	35.4213	-14.9557	0.075777
 540	1	6	0.167375	35.4807	-14.8104	2.26071
 541	1	6	0.161059	33.1636	-13.2257	-1.89767
 542	1	6	0.140064	35.1296	-14.7529	-2.08218
 543	1	2	0.57844	36.6566	-15.8264	0.0171538
 544	1	3	-0.037172	36.9741	-16.6475	-1.20912
 545	1	3	-0.116011	38.3304	-16.8574	-1.55583
 546	1	3	-0.048223	38.6216	-17.622	-2.69325
 547	1	3	-0.138147	35.9538	-17.2568	-1.98834
 548	1	3	-0.114262	36.2697	-18.0208	-3.13133
 549	1	3	-0.063397	37.6216	-18.1759	-3.46417
 550	1	2	0.489233	38.2588	-18.902	-4.59415
 551	1	1	-0.081676	39.6332	-18.7437	-4.42925
 552	1	2	0.489742	39.9305	-17.9882	-3.29797
 553	1	3	0.047265	40.6145	-19.2817	-5.31884
 554	1	3	-0.183349	40.4461	-20.5585	-5.88514
 555	1	3	-0.091111	41.3893	-21.0742	-6.78841
 556	1	3	-0.18836	41.7621	-18.5433	-5.66738
 557	1	3	-0.138837	42.7194	-19.07	-6.5532
 558	1	3	0.044906	42.5473	-20.3461	-7.1315
 559	1	6	0.157291	39.5702	-21.155	-5.64422
 560	1	6	0.112962	41.203	-22.0475	-7.23004
 561	1	6	0.163228	35.4933	-18.4851	-3.73714
 562	1	6	0.134491	34.9104	-17.1497	-1.70064
 563	1	6	0.172124	39.1365	-16.4304	-0.959732
 564	1	5	-0.48162	41.0246	-17.671	-2.86439
 565	1	5	-0.478641	37.6634	-19.4884	-5.48193
 566	1	5	-0.498568	37.4333	-15.8276	0.958279
 567	1	6	0.153588	41.9211	-17.5512	-5.25197
 568	1	6	0.146442	43.587	-18.4633	-6.79707
 569	1	7	0.027303	43.5483	-20.926	-8.15306
 570	1	7	-0.256739	43.8317	-22.4315	-7.88866
 571	1	8	0.074408	44.6583	-22.7893	-8.51668
 572	1	8	0.075653	42.9602	-23.0576	-8.11407
 573	1	8	0.063017	44.1102	-22.6001	-6.84068
 574	1	7	-0.003396	43.0139	-20.7183	-9.60734
 575	1	7	0.23166	43.7759	-19.5146	-10.2437
 576	1	8	0.003166	41.9257	-20.5723	-9.63142
 577	1	8	0.018046	43.2159	-21.6215	-10.1986
 578	1	3	0.065056	45.008	-19.418	-9.35964
 579	1	7	-0.138879	42.9432	-18.2125	-10.1537
 580	1	7	-0.25744	44.1327	-19.7981	-11.7242
 581	1	3	0.018858	44.869	-20.1701	-8.20092
 582	1	8	0.063111	43.226	-19.9781	-12.3156
 583	1	8	0.056661	44.7783	-20.6812	-11.8103
 584	1	8	0.052049	44.6626	-18.948	-12.1716
 585	1	3	-0.499719	46.1912	-18.704	-9.61949
 586	1	3	-0.078325	45.9043	-20.2136	-7.25524
 587	1	3	-0.430686	47.0921	-19.4987	-7.51005
 588	1	3	0.29919	47.2637	-18.7445	-8.69736
 589	1	6	0.134637	45.7965	-20.8094	-6.3516
 590	1	8	0.0139	43.5135	-17.3572	-10.5383
 591	1	8	0.03702	42.6634	-17.9878	-9.11822
 592	1	8	0.035416	42.0203	-18.2958	-10.7414
 593	1	6	0.223374	46.2772	-18.1278	-10.5375
 594	1	6	0.198405	47.9068	-19.561	-6.79154
 595	1	1	0.464138	21.631	-9.32408	20.4475
 596	1	2	0.077422	21.7053	-10.4268	19.5893
 597	1	3	0.04486	22.5609	-9.98932	18.4549
 598	1	2	0.055008	22.3598	-8.23146	19.9661
 599	1	3	-0.004417	22.9435	-8.68216	18.6786
 600	1	5	-0.392499	21.1761	-11.521	19.7018
 601	1	5	-0.37854	22.5248	-7.13407	20.474
 602	1	3	-0.044101	22.9774	-10.689	17.3141
 603	1	3	-0.056346	23.7643	-7.99529	17.7788
 604	1	3	-0.157726	24.1892	-8.67605	16.6192
 605	1	3	-0.13238	23.7913	-10.0182	16.3686
 606	1	6	0.167375	22.6739	-11.7246	17.1672
 607	1	6	0.161059	24.068	-6.97039	17.9822
 608	1	6	0.140064	24.851	-8.16089	15.9261
 609	1	2	0.57844	24.2678	-10.7644	15.1445
 610	1	3	-0.037172	24.5519	-10.0105	13.8671
 611	1	3	-0.116011	25.5635	-10.4724	12.9885
 612	1	3	-0.048223	25.8045	-9.75395	11.8066
 613	1	3	-0.138147	23.7881	-8.86648	13.5116
 614	1	3	-0.114262	24.0413	-8.16466	12.3165
 615	1	3	-0.063397	25.0645	-8.63451	11.4852
 616	1	2	0.489233	25.5635	-8.10109	10.1927
 617	1	1	-0.081676	26.6123	-8.93242	9.81222
 618	1	2	0.489742	26.8102	-9.96459	10.7254
 619	1	3	0.047265	27.4058	-8.71436	8.64501
 620	1	3	-0.183349	27.8236	-7.41343	8.31339
 621	1	3	-0.091111	28.5592	-7.17288	7.14398
 622	1	3	-0.18836	27.7691	-9.77418	7.79155
 623	1	3	-0.138837	28.522	-9.53433	6.62456
 624	1	3	0.044906	28.9229	-8.22474	6.27955
 625	1	6	0.157291	27.5598	-6.57338	8.95034
 626	1	6	0.112962	28.8407	-6.15154	6.90501
 627	1	6	0.163228	23.4618	-7.2854	12.0399
 628	1	6	0.134491	22.9817	-8.52619	14.1573
 629	1	6	0.172124	26.1518	-11.3585	13.2252
 630	1	5	-0.48162	27.6497	-10.8474	10.6928
 631	1	5	-0.478641	25.1317	-7.11462	9.62071
 632	1	5	-0.498568	24.4223	-11.9734	15.1913
 633	1	6	0.153588	27.4657	-10.7912	8.02905
 634	1	6	0.146442	28.781	-10.3772	5.99104
 635	1	7	0.027303	29.703	-7.89382	4.99048
 636	1	7	-0.256739	28.8264	-7.01412	4.05971
 637	1	8	0.074408	28.6125	-6.03907	4.51459
 638	1	8	0.075653	27.8662	-7.50221	3.85024
 639	1	8	0.063017	29.3285	-6.83312	3.10015
 640	1	7	-0.003396	31.0485	-7.16563	5.32355
 641	1	7	0.23166	32.1897	-8.22351	5.29347
 642	1	8	0.003166	31.0268	-6.62295	6.27654
 643	1	8	0.018046	31.2453	-6.41339	4.54777