pySIMM System Object

2642 atoms
2921 bonds
5160 angles
8276 dihedrals
840 impropers

8 atom types
10 bond types
17 angle types
9 dihedral types
4 improper types

-207.617065 207.617065 xlo xhi
-207.617065 207.617065 ylo yhi
-207.617065 207.617065 zlo zhi

Masses

   1	14.01	# n
   2	12.01	# c
   3	12.01	# ca
   4	1.008	# hn
   5	16.0	# o
   6	1.008	# ha
   7	12.01	# c3
   8	1.008	# hc

Pair Coeffs

   1	0.17	3.249998523775958	# n
   2	0.086	3.3996695084235347	# c
   3	0.086	3.3996695084235347	# ca
   4	0.0157	1.069078461768407	# hn
   5	0.21	2.959921901149463	# o
   6	0.015	2.59964245953351	# ha
   7	0.1094	3.3996695084235347	# c3
   8	0.0157	2.649532787749369	# hc

Bond Coeffs

   1	427.6	1.3789	# c,n
   2	461.1	1.3984	# ca,ca
   3	345.9	1.4906	# c,ca
   4	300.9	1.5375	# c3,c3
   5	345.8	1.086	# ca,ha
   6	384.2	1.4121	# ca,n
   7	637.7	1.2183	# c,o
   8	321.0	1.5156	# c3,ca
   9	330.6	1.0969	# c3,hc
  10	403.2	1.0129	# hn,n

Angle Coeffs

   1	63.82	123.71	# c,n,ca
   2	67.87	120.19	# ca,ca,n
   3	67.68	115.25	# ca,c,n
   4	63.15	112.07	# c3,c3,ca
   5	63.0	118.11	# ca,c,ca
   6	63.56	112.24	# ca,c3,ca
   7	46.34	109.8	# c3,c3,hc
   8	48.33	117.55	# c,n,hn
   9	74.22	123.05	# n,c,o
  10	64.28	120.33	# c,ca,ca
  11	39.4	107.58	# hc,c3,hc
  12	66.62	120.02	# ca,ca,ca
  13	63.53	120.77	# c3,ca,ca
  14	62.86	111.51	# c3,c3,c3
  15	63.74	127.08	# c,n,c
  16	48.18	119.88	# ca,ca,ha
  17	68.72	122.6	# ca,c,o

Dihedral Coeffs

   1	2	2.5	2	180	2.0	1	0	# hn,n,c,o
   2	1	3.625	2	180	# X,ca,ca,X
   3	1	0.16	3	0	# hc,c3,c3,c3
   4	1	1.0	2	180	# X,c,ca,X
   5	1	0.15555555555555556	3	0	# X,c3,c3,X
   6	1	0.0	2	0	# X,c3,ca,X
   7	3	0.18	3	0	0.25	2	180	0.2	1	180	# c3,c3,c3,c3
   8	1	2.5	2	180	# X,c,n,X
   9	1	0.45	2	180	# X,ca,n,X

Improper Coeffs

   1	1.1	-1	2	# ca,ca,ca,c3
   2	1.1	-1	2	# n,X,X,hn
   3	1.1	-1	2	# ca,X,X,ha
   4	10.5	-1	2	# c,X,X,o

Atoms

   1	1	1	0.464138	58.0176	-114.563	74.9797
   2	1	2	0.077422	58.8381	-114.993	73.9361
   3	1	3	0.04486	60.2221	-114.905	74.4717
   4	1	2	0.055008	58.7362	-114.19	76.1141
   5	1	3	-0.004417	60.1591	-114.42	75.7641
   6	1	5	-0.392499	58.5183	-115.38	72.8239
   7	1	5	-0.37854	58.3119	-113.781	77.1823
   8	1	3	-0.044101	61.4401	-115.268	73.8819
   9	1	3	-0.056346	61.3088	-114.257	76.5414
  10	1	3	-0.157726	62.5463	-114.608	75.9653
  11	1	3	-0.13238	62.6289	-115.105	74.6373
  12	1	6	0.167375	61.4442	-115.694	72.8809
  13	1	6	0.161059	61.2388	-113.889	77.5628
  14	1	6	0.140064	63.4536	-114.508	76.5599
  15	1	2	0.57844	63.9742	-115.53	74.0975
  16	1	3	-0.037172	64.2532	-115.5	72.6146
  17	1	3	-0.116011	65.1977	-116.409	72.0801
  18	1	3	-0.048223	65.4803	-116.353	70.7093
  19	1	3	-0.138147	63.6466	-114.541	71.7583
  20	1	3	-0.114262	63.9478	-114.502	70.3809
  21	1	3	-0.063397	64.8717	-115.43	69.8846
  22	1	2	0.489233	65.4028	-115.618	68.5089
  23	1	1	-0.081676	66.3177	-116.663	68.5933
  24	1	2	0.489742	66.4189	-117.163	69.8869
  25	1	3	0.047265	67.0689	-117.153	67.486
  26	1	3	-0.183349	67.6846	-116.26	66.5912
  27	1	3	-0.091111	68.4098	-116.74	65.4888
  28	1	3	-0.18836	67.2071	-118.534	67.2637
  29	1	3	-0.138837	67.9412	-119.015	66.1654
  30	1	3	0.044906	68.5494	-118.123	65.2543
  31	1	6	0.157291	67.5928	-115.187	66.7397
  32	1	6	0.112962	68.8664	-116.027	64.8091
  33	1	6	0.163228	63.4937	-113.766	69.7194
  34	1	6	0.134491	62.9601	-113.801	72.1629
  35	1	6	0.172124	65.7039	-117.135	72.7159
  36	1	5	-0.48162	67.1242	-118.07	70.2934
  37	1	5	-0.478641	65.0866	-114.966	67.5286
  38	1	5	-0.498568	64.8383	-115.916	74.8674
  39	1	6	0.153588	66.7485	-119.245	67.9478
  40	1	6	0.146442	68.0296	-120.09	66.0395
  41	1	7	0.027303	69.3412	-118.604	64.0211
  42	1	7	-0.256739	68.6822	-118.076	62.719
  43	1	8	0.074408	67.6205	-118.351	62.6795
  44	1	8	0.075653	69.172	-118.497	61.8309
  45	1	8	0.063017	68.7464	-116.983	62.6501
  46	1	7	-0.003396	70.8369	-118.157	64.11
  47	1	7	0.23166	71.6613	-119.349	64.6847
  48	1	8	0.003166	70.976	-117.241	64.6984
  49	1	8	0.018046	71.1997	-117.931	63.0981
  50	1	3	0.065056	70.7711	-120.53	64.343
  51	1	7	-0.138879	71.8293	-119.226	66.2182
  52	1	7	-0.25744	73.0519	-119.445	64.0098
  53	1	3	0.018858	69.4978	-120.117	63.9651
  54	1	8	0.063111	72.9512	-119.6	62.928
  55	1	8	0.056661	73.6286	-120.285	64.4159
  56	1	8	0.052049	73.6304	-118.527	64.1719
  57	1	3	-0.499719	71.1085	-121.896	64.3711
  58	1	3	-0.078325	68.5252	-121.057	63.586
  59	1	3	-0.430686	68.8591	-122.425	63.6124
  60	1	3	0.29919	70.1434	-122.847	64.0034
  61	1	6	0.134637	67.5311	-120.732	63.2896
  62	1	8	0.0139	70.8571	-119.155	66.7212
  63	1	8	0.03702	72.4106	-118.332	66.4791
  64	1	8	0.035416	72.3523	-120.101	66.6235
  65	1	6	0.223374	72.1002	-122.218	64.6701
  66	1	6	0.198405	68.1219	-123.17	63.3283
  67	1	1	0.464138	42.6044	-105.963	86.8247
  68	1	2	0.077422	43.2726	-107.172	87.0235
  69	1	3	0.04486	43.9677	-107.447	85.7433
  70	1	2	0.055008	42.8073	-105.442	85.5443
  71	1	3	-0.004417	43.6908	-106.423	84.8605
  72	1	5	-0.392499	43.3134	-107.867	88.0258
  73	1	5	-0.37854	42.3662	-104.412	85.0614
  74	1	3	-0.044101	44.7735	-108.531	85.3831
  75	1	3	-0.056346	44.1962	-106.433	83.5554
  76	1	3	-0.157726	45.0099	-107.52	83.1661
  77	1	3	-0.13238	45.3205	-108.567	84.0785
  78	1	6	0.167375	44.9601	-109.329	86.1003
  79	1	6	0.161059	43.9475	-105.63	82.8639
  80	1	6	0.140064	45.3719	-107.558	82.1412
  81	1	2	0.57844	46.1425	-109.774	83.6887
  82	1	3	-0.037172	47.1454	-109.715	82.5612
  83	1	3	-0.116011	47.411	-110.9	81.8364
  84	1	3	-0.048223	48.3639	-110.862	80.8117
  85	1	3	-0.138147	47.8751	-108.534	82.2539
  86	1	3	-0.114262	48.8347	-108.519	81.2179
  87	1	3	-0.063397	49.0561	-109.707	80.5088
  88	1	2	0.489233	49.9805	-110.007	79.38
  89	1	1	-0.081676	49.7646	-111.342	79.0621
  90	1	2	0.489742	48.8153	-111.932	79.8848
  91	1	3	0.047265	50.3993	-112.024	77.9894
  92	1	3	-0.183349	49.6229	-112.641	76.9953
  93	1	3	-0.091111	50.2362	-113.344	75.9464
  94	1	3	-0.18836	51.7998	-112.107	77.9103
  95	1	3	-0.138837	52.4143	-112.819	76.8637
  96	1	3	0.044906	51.6395	-113.463	75.8719
  97	1	6	0.157291	48.5383	-112.588	77.0411
  98	1	6	0.112962	49.608	-113.804	75.1908
  99	1	6	0.163228	49.3977	-107.619	80.9766
 100	1	6	0.134491	47.7175	-107.628	82.8346
 101	1	6	0.172124	46.8889	-111.829	82.0649
 102	1	5	-0.48162	48.391	-113.074	79.8444
 103	1	5	-0.478641	50.7388	-109.219	78.8417
 104	1	5	-0.498568	45.9781	-110.824	84.2887
 105	1	6	0.153588	52.4159	-111.622	78.6642
 106	1	6	0.146442	53.4995	-112.86	76.8375
 107	1	7	0.027303	52.2728	-114.272	74.7196
 108	1	7	-0.256739	51.5956	-115.663	74.5696
 109	1	8	0.074408	50.5608	-115.578	74.2174
 110	1	8	0.075653	51.5834	-116.198	75.5277
 111	1	8	0.063017	52.137	-116.285	73.8449
 112	1	7	-0.003396	52.1932	-113.475	73.3784
 113	1	7	0.23166	53.5997	-112.865	73.0859
 114	1	8	0.003166	51.4111	-112.704	73.4018
 115	1	8	0.018046	51.9229	-114.161	72.5651
 116	1	3	0.065056	54.5058	-113.696	73.9781
 117	1	7	-0.138879	53.6572	-111.377	73.5075
 118	1	7	-0.25744	53.9659	-113.0	71.5873
 119	1	3	0.018858	53.7732	-114.459	74.8792
 120	1	8	0.063111	54.9562	-112.575	71.3834
 121	1	8	0.056661	53.2357	-112.475	70.9583
 122	1	8	0.052049	53.9836	-114.054	71.2824
 123	1	3	-0.499719	55.9134	-113.725	73.9821
 124	1	3	-0.078325	54.4218	-115.28	75.8127
 125	1	3	-0.430686	55.8286	-115.308	75.8288
 126	1	3	0.29919	56.5909	-114.537	74.9195
 127	1	6	0.134637	53.8442	-115.867	76.5231
 128	1	8	0.0139	53.3966	-111.255	74.5662
 129	1	8	0.03702	52.9575	-110.774	72.9153
 130	1	8	0.035416	54.665	-110.968	73.3609
 131	1	6	0.223374	56.4716	-113.124	73.2702
 132	1	6	0.198405	56.337	-115.922	76.5688
 133	1	1	0.464138	25.2819	-93.6337	89.6851
 134	1	2	0.077422	26.5911	-93.1674	89.5431
 135	1	3	0.04486	27.4344	-94.3841	89.472
 136	1	2	0.055008	25.2134	-95.031	89.6929
 137	1	3	-0.004417	26.62	-95.4931	89.565
 138	1	5	-0.392499	27.0	-92.0175	89.5334
 139	1	5	-0.37854	24.2325	-95.7491	89.7999
 140	1	3	-0.044101	28.8245	-94.4977	89.3875
 141	1	3	-0.056346	27.154	-96.7861	89.5887
 142	1	3	-0.157726	28.5575	-96.9268	89.5166
 143	1	3	-0.13238	29.4051	-95.7885	89.4015
 144	1	6	0.167375	29.4369	-93.598	89.3424
 145	1	6	0.161059	26.4998	-97.6493	89.6933
 146	1	6	0.140064	28.9776	-97.9264	89.5914
 147	1	2	0.57844	30.9142	-95.8828	89.3963
 148	1	3	-0.037172	31.6204	-97.197	89.1809
 149	1	3	-0.116011	32.7909	-97.4545	89.9304
 150	1	3	-0.048223	33.4732	-98.6561	89.7141
 151	1	3	-0.138147	31.1924	-98.1395	88.207
 152	1	3	-0.114262	31.8999	-99.3442	88.0019
 153	1	3	-0.063397	33.0424	-99.5755	88.7799
 154	1	2	0.489233	33.9977	-100.717	88.7855
 155	1	1	-0.081676	34.9542	-100.404	89.7446
 156	1	2	0.489742	34.7092	-99.1786	90.3495
 157	1	3	0.047265	36.0654	-101.229	90.0705
 158	1	3	-0.183349	36.3644	-101.52	91.4124
 159	1	3	-0.091111	37.4823	-102.304	91.7387
 160	1	3	-0.18836	36.8966	-101.744	89.0609
 161	1	3	-0.138837	38.0181	-102.525	89.3878
 162	1	3	0.044906	38.3328	-102.811	90.7353
 163	1	6	0.157291	35.7387	-101.126	92.2093
 164	1	6	0.112962	37.6885	-102.514	92.7839
 165	1	6	0.163228	31.5846	-100.069	87.2536
 166	1	6	0.134491	30.3231	-97.9268	87.5888
 167	1	6	0.172124	33.1632	-96.7349	90.6592
 168	1	5	-0.48162	35.3509	-98.6285	91.2279
 169	1	5	-0.478641	33.9308	-101.711	88.083
 170	1	5	-0.498568	31.5772	-94.8886	89.6442
 171	1	6	0.153588	36.6763	-101.537	88.0162
 172	1	6	0.146442	38.6316	-102.907	88.5771
 173	1	7	0.027303	39.5522	-103.663	91.1383
 174	1	7	-0.256739	40.446	-102.905	92.1573
 175	1	8	0.074408	40.7184	-101.912	91.7765
 176	1	8	0.075653	41.3749	-103.457	92.3511
 177	1	8	0.063017	39.9373	-102.767	93.1192
 178	1	7	-0.003396	39.0893	-105.036	91.7228
 179	1	7	0.23166	39.1673	-106.094	90.5808
 180	1	8	0.003166	38.089	-104.989	92.1726
 181	1	8	0.018046	39.777	-105.331	92.5268
 182	1	3	0.065056	40.1745	-105.455	89.6396
 183	1	7	-0.138879	37.7976	-106.26	89.8779
 184	1	7	-0.25744	39.6456	-107.465	91.1189
 185	1	3	0.018858	40.3829	-104.116	89.9471
 186	1	8	0.063111	39.694	-108.209	90.3139
 187	1	8	0.056661	38.9602	-107.844	91.8875
 188	1	8	0.052049	40.6465	-107.385	91.562
 189	1	3	-0.499719	40.8779	-106.072	88.5905
 190	1	3	-0.078325	41.2921	-103.348	89.2045
 191	1	3	-0.430686	42.0028	-103.961	88.1545
 192	1	3	0.29919	41.8196	-105.33	87.841
 193	1	6	0.134637	41.4482	-102.298	89.4434
 194	1	8	0.0139	37.8737	-106.956	89.0332
 195	1	8	0.03702	37.4296	-105.303	89.4894
 196	1	8	0.035416	37.0455	-106.652	90.5738
 197	1	6	0.223374	40.727	-107.129	88.3885
 198	1	6	0.198405	42.7129	-103.37	87.5803
 199	1	1	0.464138	7.94555	-88.2668	78.8515
 200	1	2	0.077422	9.05214	-89.0838	78.6034
 201	1	3	0.04486	9.83468	-89.0768	79.8664
 202	1	2	0.055008	7.93356	-87.7698	80.1582
 203	1	3	-0.004417	9.16795	-88.2967	80.7892
 204	1	5	-0.392499	9.36045	-89.6624	77.5737
 205	1	5	-0.37854	7.1378	-87.0063	80.6809
 206	1	3	-0.044101	11.0717	-89.662	80.1613
 207	1	3	-0.056346	9.70027	-88.0477	82.0576
 208	1	3	-0.157726	10.9467	-88.6248	82.3767
 209	1	3	-0.13238	11.6356	-89.4483	81.4429
 210	1	6	0.167375	11.5902	-90.2479	79.4037
 211	1	6	0.161059	9.17553	-87.4005	82.7575
 212	1	6	0.140064	11.3895	-88.393	83.3424
 213	1	2	0.57844	12.9994	-90.0276	81.7391
 214	1	3	-0.037172	13.4595	-90.2196	83.1636
 215	1	3	-0.116011	14.8316	-90.0542	83.4673
 216	1	3	-0.048223	15.2503	-90.2358	84.7918
 217	1	3	-0.138147	12.5592	-90.6079	84.1927
 218	1	3	-0.114262	13.0025	-90.7845	85.5201
 219	1	3	-0.063397	14.3615	-90.5815	85.7897
 220	1	2	0.489233	15.1169	-90.6849	87.0667
 221	1	1	-0.081676	16.437	-90.3895	86.7492
 222	1	2	0.489742	16.6026	-90.113	85.3979
 223	1	3	0.047265	17.4953	-90.3553	87.6984
 224	1	3	-0.183349	18.699	-91.0373	87.451
 225	1	3	-0.091111	19.7514	-90.9913	88.3805
 226	1	3	-0.18836	17.358	-89.63	88.894
 227	1	3	-0.138837	18.4118	-89.5808	89.8216
 228	1	3	0.044906	19.6266	-90.2552	89.5799
 229	1	6	0.157291	18.8271	-91.5996	86.5294
 230	1	6	0.112962	20.6611	-91.5355	88.1489
 231	1	6	0.163228	12.3184	-91.0776	86.3147
 232	1	6	0.134491	11.5116	-90.7872	83.9613
 233	1	6	0.172124	15.5513	-89.7844	82.6948
 234	1	5	-0.48162	17.6274	-89.8132	84.8102
 235	1	5	-0.478641	14.6463	-90.9558	88.158
 236	1	5	-0.498568	13.7507	-90.3027	80.8179
 237	1	6	0.153588	16.4316	-89.1026	89.1081
 238	1	6	0.146442	18.2802	-89.0135	90.7383
 239	1	7	0.027303	20.7623	-90.1636	90.6191
 240	1	7	-0.256739	21.1686	-88.6834	90.8516
 241	1	8	0.074408	22.0434	-88.615	91.5117
 242	1	8	0.075653	20.3566	-88.1097	91.3148
 243	1	8	0.063017	21.4255	-88.1948	89.9032
 244	1	7	-0.003396	20.339	-90.8395	91.9636
 245	1	7	0.23166	20.931	-92.2815	91.9853
 246	1	8	0.003166	19.2519	-90.841	92.1153
 247	1	8	0.018046	20.7661	-90.2684	92.7989
 248	1	3	0.065056	22.0801	-92.1583	90.9993
 249	1	7	-0.138879	19.8964	-93.3161	91.4805
 250	1	7	-0.25744	21.4082	-92.6679	93.4073
 251	1	3	0.018858	21.9826	-90.9942	90.2482
 252	1	8	0.063111	20.5753	-92.6323	94.1208
 253	1	8	0.056661	22.189	-91.9814	93.7588
 254	1	8	0.052049	21.8217	-93.6839	93.4215
 255	1	3	-0.499719	23.152	-93.0505	90.8156
 256	1	3	-0.078325	22.9536	-90.688	89.2838
 257	1	3	-0.430686	24.0243	-91.5812	89.0897
 258	1	3	0.29919	24.1507	-92.7673	89.8547
 259	1	6	0.134637	22.8788	-89.7745	88.6983
 260	1	8	0.0139	20.3376	-94.32	91.4374
 261	1	8	0.03702	19.5403	-93.0636	90.4742
 262	1	8	0.035416	19.0256	-93.3569	92.1469
 263	1	6	0.223374	23.2069	-93.956	91.4149
 264	1	6	0.198405	24.7857	-91.3317	88.3537
 265	1	1	0.464138	1.37281	-70.9145	79.412
 266	1	2	0.077422	1.6223	-72.2912	79.4083
 267	1	3	0.04486	2.89481	-72.4566	78.6648
 268	1	2	0.055008	2.39658	-70.1897	78.7918
 269	1	3	-0.004417	3.36039	-71.2079	78.3069
 270	1	5	-0.392499	0.936662	-73.2004	79.8483
 271	1	5	-0.37854	2.4665	-68.9903	78.5778
 272	1	3	-0.044101	3.55026	-73.6275	78.2692
 273	1	3	-0.056346	4.52858	-71.0517	77.554
 274	1	3	-0.157726	5.20854	-72.2176	77.1459
 275	1	3	-0.13238	4.71261	-73.5079	77.4696
 276	1	6	0.167375	3.14935	-74.5947	78.5655
 277	1	6	0.161059	4.88144	-70.0602	77.2779
 278	1	6	0.140064	6.115	-72.1236	76.5494
 279	1	2	0.57844	5.44379	-74.7289	76.9728
 280	1	3	-0.037172	4.66962	-75.9677	76.5867
 281	1	3	-0.116011	5.32831	-77.2185	76.6181
 282	1	3	-0.048223	4.61334	-78.3616	76.2407
 283	1	3	-0.138147	3.31999	-75.9051	76.1397
 284	1	3	-0.114262	2.61858	-77.0715	75.7661
 285	1	3	-0.063397	3.29712	-78.2948	75.8326
 286	1	2	0.489233	2.84437	-79.6747	75.5028
 287	1	1	-0.081676	3.93806	-80.4982	75.7445
 288	1	2	0.489742	5.04498	-79.7805	76.1835
 289	1	3	0.047265	3.9421	-81.9112	75.5689
 290	1	3	-0.183349	4.50789	-82.7387	76.5527
 291	1	3	-0.091111	4.60149	-84.1242	76.3574
 292	1	3	-0.18836	3.43055	-82.5019	74.3997
 293	1	3	-0.138837	3.51871	-83.8927	74.2061
 294	1	3	0.044906	4.12502	-84.7254	75.1705
 295	1	6	0.157291	4.91428	-82.3055	77.4632
 296	1	6	0.112962	5.08531	-84.7082	77.133
 297	1	6	0.163228	1.58563	-77.0291	75.424
 298	1	6	0.134491	2.81281	-74.9469	76.0564
 299	1	6	0.172124	6.37017	-77.2994	76.9271
 300	1	5	-0.48162	6.15256	-80.1987	76.4735
 301	1	5	-0.478641	1.73543	-79.9895	75.1068
 302	1	5	-0.498568	6.65882	-74.7063	76.8659
 303	1	6	0.153588	2.97989	-81.8814	73.6289
 304	1	6	0.146442	3.13865	-84.3223	73.2836
 305	1	7	0.027303	4.30519	-86.2324	74.8829
 306	1	7	-0.256739	2.9363	-86.925	74.6569
 307	1	8	0.074408	2.26277	-86.7447	75.5042
 308	1	8	0.075653	3.05839	-88.0105	74.5475
 309	1	8	0.063017	2.44373	-86.5503	73.7513
 310	1	7	-0.003396	5.25286	-86.4378	73.6573
 311	1	7	0.23166	6.7064	-86.5907	74.2019
 312	1	8	0.003166	5.174	-85.6344	72.914
 313	1	8	0.018046	4.96751	-87.3652	73.1426
 314	1	3	0.065056	6.44888	-87.0607	75.6238
 315	1	7	-0.138879	7.45817	-85.2369	74.1982
 316	1	7	-0.25744	7.50524	-87.6305	73.3784
 317	1	3	0.018858	5.11067	-86.927	75.9717
 318	1	8	0.063111	8.52183	-87.7479	73.7738
 319	1	8	0.056661	7.58338	-87.3209	72.3286
 320	1	8	0.052049	7.01868	-88.6138	73.4098
 321	1	3	-0.499719	7.39327	-87.5301	76.553
 322	1	3	-0.078325	4.66273	-87.3228	77.2408
 323	1	3	-0.430686	5.6029	-87.8057	78.1718
 324	1	3	0.29919	6.98204	-87.8927	77.8566
 325	1	6	0.134637	3.61746	-87.2051	77.5169
 326	1	8	0.0139	6.92306	-84.4777	74.7803
 327	1	8	0.03702	7.57467	-84.8568	73.1755
 328	1	8	0.035416	8.45892	-85.3459	74.6346
 329	1	6	0.223374	8.44094	-87.5923	76.2686
 330	1	6	0.198405	5.26351	-88.0644	79.1725
 331	1	1	0.464138	-5.78927	-68.9128	65.9177
 332	1	2	0.077422	-5.33678	-67.6	66.0524
 333	1	3	0.04486	-5.84457	-67.148	67.3726
 334	1	2	0.055008	-6.51656	-69.3491	67.0254
 335	1	3	-0.004417	-6.53672	-68.1922	67.9554
 336	1	5	-0.392499	-4.68562	-66.934	65.2636
 337	1	5	-0.37854	-7.05081	-70.4306	67.2087
 338	1	3	-0.044101	-5.73168	-65.9017	68.0002
 339	1	3	-0.056346	-7.14795	-68.0566	69.2057
 340	1	3	-0.157726	-7.03516	-66.8146	69.8643
 341	1	3	-0.13238	-6.32244	-65.7339	69.2748
 342	1	6	0.167375	-5.20205	-65.0869	67.5085
 343	1	6	0.161059	-7.70329	-68.8854	69.6404
 344	1	6	0.140064	-7.53046	-66.687	70.825
 345	1	2	0.57844	-6.23068	-64.3896	69.9526
 346	1	3	-0.037172	-6.17688	-64.3235	71.4583
 347	1	3	-0.116011	-5.55026	-65.352	72.2007
 348	1	3	-0.048223	-5.51797	-65.2401	73.5948
 349	1	3	-0.138147	-6.71726	-63.2018	72.1408
 350	1	3	-0.114262	-6.67713	-63.1131	73.5493
 351	1	3	-0.063397	-6.07041	-64.1607	74.2543
 352	1	2	0.489233	-5.86686	-64.3606	75.7167
 353	1	1	-0.081676	-5.18396	-65.5641	75.837
 354	1	2	0.489742	-4.9366	-66.1557	74.6058
 355	1	3	0.047265	-4.79188	-66.1531	77.068
 356	1	3	-0.183349	-3.46929	-66.5892	77.2424
 357	1	3	-0.091111	-3.09553	-67.2883	78.3989
 358	1	3	-0.18836	-5.72718	-66.3807	78.0916
 359	1	3	-0.138837	-5.35301	-67.0835	79.2508
 360	1	3	0.044906	-4.04024	-67.576	79.4108
 361	1	6	0.157291	-2.73404	-66.4281	76.4581
 362	1	6	0.112962	-2.07213	-67.6424	78.4623
 363	1	6	0.163228	-7.09642	-62.2582	74.0768
 364	1	6	0.134491	-7.17629	-62.3974	71.5685
 365	1	6	0.172124	-5.08523	-66.209	71.7166
 366	1	5	-0.48162	-4.37676	-67.2131	74.3714
 367	1	5	-0.478641	-6.24754	-63.6204	76.6067
 368	1	5	-0.498568	-6.18377	-63.3705	69.284
 369	1	6	0.153588	-6.75386	-66.0421	77.9752
 370	1	6	0.146442	-6.10214	-67.2835	80.0115
 371	1	7	0.027303	-3.70124	-68.4783	80.6172
 372	1	7	-0.256739	-3.92499	-67.7333	81.9581
 373	1	8	0.074408	-3.59716	-68.3464	82.8077
 374	1	8	0.075653	-4.9842	-67.4912	82.1084
 375	1	8	0.063017	-3.35929	-66.7934	81.9816
 376	1	7	-0.003396	-4.54198	-69.7943	80.5477
 377	1	7	0.23166	-3.70712	-70.8468	79.7554
 378	1	8	0.003166	-5.53853	-69.6476	80.1124
 379	1	8	0.018046	-4.70126	-70.164	81.5696
 380	1	3	0.065056	-2.29586	-70.3254	79.9642
 381	1	7	-0.138879	-4.07571	-70.8569	78.2509
 382	1	7	-0.25744	-3.89603	-72.2669	80.3428
 383	1	3	0.018858	-2.29509	-69.0513	80.5165
 384	1	8	0.063111	-3.58678	-72.3004	81.3953
 385	1	8	0.056661	-3.29439	-73.0024	79.7946
 386	1	8	0.052049	-4.94685	-72.5774	80.2844
 387	1	3	-0.499719	-1.09342	-70.9628	79.619
 388	1	3	-0.078325	-1.08553	-68.4062	80.8138
 389	1	3	-0.430686	0.124561	-69.0522	80.4922
 390	1	3	0.29919	0.144372	-70.3232	79.8639
 391	1	6	0.134637	-1.08533	-67.4033	81.2347
 392	1	8	0.0139	-5.12165	-71.1551	78.1055
 393	1	8	0.03702	-3.4431	-71.5644	77.7004
 394	1	8	0.035416	-3.94117	-69.8697	77.795
 395	1	6	0.223374	-1.12859	-71.9405	79.1458
 396	1	6	0.198405	1.06049	-68.5306	80.6812
 397	1	1	0.464138	-8.61108	-64.222	45.8346
 398	1	2	0.077422	-9.51963	-64.1928	46.8951
 399	1	3	0.04486	-8.78452	-64.7568	48.0543
 400	1	2	0.055008	-7.36006	-64.7146	46.217
 401	1	3	-0.004417	-7.50035	-65.0645	47.6528
 402	1	5	-0.392499	-10.6897	-63.8452	46.8912
 403	1	5	-0.37854	-6.35986	-64.8753	45.5364
 404	1	3	-0.044101	-9.23742	-65.0434	49.3463
 405	1	3	-0.056346	-6.59037	-65.6743	48.5223
 406	1	3	-0.157726	-7.02387	-65.9732	49.8314
 407	1	3	-0.13238	-8.34408	-65.6561	50.2575
 408	1	6	0.167375	-10.2677	-64.8223	49.6222
 409	1	6	0.161059	-5.59218	-65.9374	48.178
 410	1	6	0.140064	-6.33835	-66.4936	50.4962
 411	1	2	0.57844	-8.86276	-66.0459	51.6209
 412	1	3	-0.037172	-7.90446	-66.3589	52.7402
 413	1	3	-0.116011	-8.19795	-67.4356	53.6087
 414	1	3	-0.048223	-7.3092	-67.709	54.6556
 415	1	3	-0.138147	-6.74736	-65.567	52.9693
 416	1	3	-0.114262	-5.87384	-65.8508	54.0402
 417	1	3	-0.063397	-6.18391	-66.937	54.8684
 418	1	2	0.489233	-5.47589	-67.4731	56.0615
 419	1	1	-0.081676	-6.22708	-68.5607	56.485
 420	1	2	0.489742	-7.34666	-68.7725	55.6941
 421	1	3	0.047265	-5.89035	-69.3641	57.6041
 422	1	3	-0.183349	-5.64412	-70.7378	57.4494
 423	1	3	-0.091111	-5.29457	-71.5266	58.5588
 424	1	3	-0.18836	-5.79262	-68.7902	58.8805
 425	1	3	-0.138837	-5.46007	-69.5817	59.9913
 426	1	3	0.044906	-5.20618	-70.9659	59.8515
 427	1	6	0.157291	-5.71983	-71.1961	56.467
 428	1	6	0.112962	-5.08909	-72.5799	58.4009
 429	1	6	0.163228	-4.98922	-65.245	54.2299
 430	1	6	0.134491	-6.53631	-64.7147	52.327
 431	1	6	0.172124	-9.0912	-68.0439	53.4701
 432	1	5	-0.48162	-8.18177	-69.6544	55.7943
 433	1	5	-0.478641	-4.44836	-67.0333	56.5472
 434	1	5	-0.498568	-10.0632	-66.1677	51.801
 435	1	6	0.153588	-5.96785	-67.7253	59.0134
 436	1	6	0.146442	-5.38787	-69.0953	60.9599
 437	1	7	0.027303	-4.79627	-71.834	61.0621
 438	1	7	-0.256739	-5.39743	-73.2657	61.0
 439	1	8	0.074408	-4.93934	-73.8649	60.2039
 440	1	8	0.075653	-6.47983	-73.2308	60.8222
 441	1	8	0.063017	-5.23055	-73.7991	61.9451
 442	1	7	-0.003396	-3.24008	-71.8936	61.1852
 443	1	7	0.23166	-2.79422	-70.8957	62.3015
 444	1	8	0.003166	-2.7473	-71.6832	60.2265
 445	1	8	0.018046	-2.93765	-72.9107	61.4684
 446	1	3	0.065056	-4.09743	-70.6237	63.0355
 447	1	7	-0.138879	-2.21807	-69.5936	61.6935
 448	1	7	-0.25744	-1.73945	-71.5393	63.2352
 449	1	3	0.018858	-5.187	-71.1734	62.3724
 450	1	8	0.063111	-1.43755	-70.8421	64.0265
 451	1	8	0.056661	-0.841049	-71.8232	62.6726
 452	1	8	0.052049	-2.14039	-72.4406	63.7164
 453	1	3	-0.499719	-4.27424	-69.8802	64.2165
 454	1	3	-0.078325	-6.4853	-71.0221	62.8797
 455	1	3	-0.430686	-6.66719	-70.292	64.069
 456	1	3	0.29919	-5.57286	-69.7034	64.7465
 457	1	6	0.134637	-7.3357	-71.4449	62.3494
 458	1	8	0.0139	-1.3008	-69.7986	61.127
 459	1	8	0.03702	-1.97437	-68.869	62.4807
 460	1	8	0.035416	-2.93298	-69.1188	61.0124
 461	1	6	0.223374	-3.4171	-69.4189	64.7005
 462	1	6	0.198405	-7.67227	-70.173	64.468
 463	1	1	0.464138	-8.09435	-52.9961	28.9097
 464	1	2	0.077422	-7.40195	-52.3592	29.9431
 465	1	3	0.04486	-6.95006	-53.4502	30.8428
 466	1	2	0.055008	-8.13556	-54.3836	29.0725
 467	1	3	-0.004417	-7.38967	-54.6527	30.3268
 468	1	5	-0.392499	-7.19509	-51.1674	30.1056
 469	1	5	-0.37854	-8.63331	-55.2261	28.3433
 470	1	3	-0.044101	-6.18461	-53.3901	32.0131
 471	1	3	-0.056346	-7.08903	-55.8684	30.9487
 472	1	3	-0.157726	-6.3216	-55.8334	32.1315
 473	1	3	-0.13238	-5.87445	-54.5991	32.6802
 474	1	6	0.167375	-5.83376	-52.4293	32.3874
 475	1	6	0.161059	-7.42583	-56.8075	30.5142
 476	1	6	0.140064	-6.05066	-56.7765	32.6011
 477	1	2	0.57844	-5.01213	-54.5466	33.9179
 478	1	3	-0.037172	-5.0999	-55.6536	34.9381
 479	1	3	-0.116011	-6.33842	-56.2717	35.2356
 480	1	3	-0.048223	-6.35722	-57.2968	36.1897
 481	1	3	-0.138147	-3.93238	-56.0578	35.6368
 482	1	3	-0.114262	-3.97479	-57.0951	36.5918
 483	1	3	-0.063397	-5.2113	-57.7029	36.8423
 484	1	2	0.489233	-5.57348	-58.8097	37.7676
 485	1	1	-0.081676	-6.94165	-59.0042	37.6093
 486	1	2	0.489742	-7.48841	-58.1237	36.6825
 487	1	3	0.047265	-7.69375	-59.9991	38.2981
 488	1	3	-0.183349	-8.63035	-60.7888	37.6081
 489	1	3	-0.091111	-9.38009	-61.763	38.2857
 490	1	3	-0.18836	-7.5153	-60.2121	39.6768
 491	1	3	-0.138837	-8.26171	-61.192	40.3543
 492	1	3	0.044906	-9.21221	-61.9802	39.6683
 493	1	6	0.157291	-8.78849	-60.6455	36.5425
 494	1	6	0.112962	-10.097	-62.3564	37.7261
 495	1	6	0.163228	-3.07951	-57.4174	37.121
 496	1	6	0.134491	-2.98432	-55.5661	35.4254
 497	1	6	0.172124	-7.2636	-55.9641	34.7512
 498	1	5	-0.48162	-8.64601	-58.0368	36.3102
 499	1	5	-0.478641	-4.80153	-59.4205	38.486
 500	1	5	-0.498568	-4.23624	-53.6194	34.0807
 501	1	6	0.153588	-6.78832	-59.6223	40.2303
 502	1	6	0.146442	-8.08204	-61.3311	41.4159
 503	1	7	0.027303	-10.0542	-63.065	40.3689
 504	1	7	-0.256739	-11.57	-62.7855	40.1832
 505	1	8	0.074408	-12.1742	-63.4931	40.7662
 506	1	8	0.075653	-11.8722	-62.8779	39.133
 507	1	8	0.063017	-11.8247	-61.7719	40.5176
 508	1	7	-0.003396	-9.68118	-64.4832	39.8272
 509	1	7	0.23166	-8.66777	-65.126	40.8216
 510	1	8	0.003166	-9.28933	-64.4587	38.8022
 511	1	8	0.018046	-10.5882	-65.1019	39.7963
 512	1	3	0.065056	-8.96291	-64.3573	42.0977
 513	1	7	-0.138879	-7.20727	-64.88	40.3716
 514	1	7	-0.25744	-8.92007	-66.6467	40.972
 515	1	3	0.018858	-9.72245	-63.2222	41.846
 516	1	8	0.063111	-8.2061	-67.0966	41.6728
 517	1	8	0.056661	-8.81211	-67.1569	40.0066
 518	1	8	0.052049	-9.93178	-66.8413	41.3503
 519	1	3	-0.499719	-8.57198	-64.6902	43.4061
 520	1	3	-0.078325	-10.1127	-62.3807	42.8986
 521	1	3	-0.430686	-9.72008	-62.7066	44.2114
 522	1	3	0.29919	-8.95412	-63.8657	44.4892
 523	1	6	0.134637	-10.7137	-61.4959	42.7013
 524	1	8	0.0139	-6.49969	-65.2805	41.1088
 525	1	8	0.03702	-7.00032	-63.809	40.2582
 526	1	8	0.035416	-7.00597	-65.3671	39.4093
 527	1	6	0.223374	-7.97573	-65.5827	43.5789
 528	1	6	0.198405	-10.0428	-62.067	45.0303
 529	1	1	0.464138	-20.7786	-36.6641	28.7063
 530	1	2	0.077422	-21.2027	-37.9766	28.4841
 531	1	3	0.04486	-19.9618	-38.7496	28.2246
 532	1	2	0.055008	-19.3946	-36.5218	28.5776
 533	1	3	-0.004417	-18.8872	-37.8852	28.2821
 534	1	5	-0.392499	-22.335	-38.4311	28.5205
 535	1	5	-0.37854	-18.7116	-35.5217	28.7281
 536	1	3	-0.044101	-19.7881	-40.1216	28.0099
 537	1	3	-0.056346	-17.5734	-38.344	28.1439
 538	1	3	-0.157726	-17.3731	-39.7246	27.9326
 539	1	3	-0.13238	-18.474	-40.6213	27.8417
 540	1	6	0.167375	-20.6534	-40.783	27.9927
 541	1	6	0.161059	-16.7375	-37.6526	28.2288
 542	1	6	0.140064	-16.3529	-40.0972	27.8728
 543	1	2	0.57844	-18.2886	-42.1102	27.66
 544	1	3	-0.037172	-17.0896	-42.6635	26.9237
 545	1	3	-0.116011	-16.6707	-43.9895	27.1955
 546	1	3	-0.048223	-15.5786	-44.5088	26.4864
 547	1	3	-0.138147	-16.4176	-41.9168	25.9173
 548	1	3	-0.114262	-15.314	-42.4546	25.2244
 549	1	3	-0.063397	-14.9149	-43.7586	25.5384
 550	1	2	0.489233	-13.8295	-44.593	24.9627
 551	1	1	-0.081676	-13.9175	-45.8277	25.598
 552	1	2	0.489742	-14.9431	-45.8543	26.5383
 553	1	3	0.047265	-13.059	-46.9297	25.3079
 554	1	3	-0.183349	-12.7087	-47.2287	23.9789
 555	1	3	-0.091111	-11.8178	-48.2741	23.6904
 556	1	3	-0.18836	-12.5215	-47.7212	26.3394
 557	1	3	-0.138837	-11.6419	-48.7793	26.0494
 558	1	3	0.044906	-11.2664	-49.0657	24.7178
 559	1	6	0.157291	-13.1046	-46.6332	23.1604
 560	1	6	0.112962	-11.539	-48.4514	22.6564
 561	1	6	0.163228	-14.796	-41.8887	24.452
 562	1	6	0.134491	-16.7635	-40.922	25.6485
 563	1	6	0.172124	-17.1879	-44.6038	27.9322
 564	1	5	-0.48162	-15.2846	-46.7769	27.2579
 565	1	5	-0.478641	-13.0398	-44.2358	24.1051
 566	1	5	-0.498568	-19.1251	-42.8743	28.113
 567	1	6	0.153588	-12.7765	-47.5142	27.3761
 568	1	6	0.146442	-11.2369	-49.3522	26.8785
 569	1	7	0.027303	-10.2386	-50.1599	24.3641
 570	1	7	-0.256739	-10.7682	-51.0955	23.2429
 571	1	8	0.074408	-10.0883	-51.9436	23.0879
 572	1	8	0.075653	-10.8611	-50.5705	22.2847
 573	1	8	0.063017	-11.7546	-51.4997	23.5035
 574	1	7	-0.003396	-8.88316	-49.5038	23.9461
 575	1	7	0.23166	-7.93986	-49.5114	25.1884
 576	1	8	0.003166	-9.01376	-48.4938	23.5357
 577	1	8	0.018046	-8.42618	-50.1052	23.1488
 578	1	3	0.065056	-8.54485	-50.625	26.0266
 579	1	7	-0.138879	-7.99908	-48.1643	25.9496
 580	1	7	-0.25744	-6.4768	-49.8102	24.7779
 581	1	3	0.018858	-9.80703	-50.9811	25.5693
 582	1	8	0.063111	-6.10562	-49.0501	24.079
 583	1	8	0.056661	-6.39812	-50.7905	24.291
 584	1	8	0.052049	-5.81577	-49.8147	25.6534
 585	1	3	-0.499719	-7.96872	-51.273	27.1334
 586	1	3	-0.078325	-10.5334	-51.9987	26.2043
 587	1	3	-0.430686	-9.96057	-52.6521	27.3126
 588	1	3	0.29919	-8.67318	-52.3068	27.7933
 589	1	6	0.134637	-11.5203	-52.278	25.8423
 590	1	8	0.0139	-7.38472	-48.2022	26.8582
 591	1	8	0.03702	-9.02358	-47.9189	26.2513
 592	1	8	0.035416	-7.62726	-47.3436	25.3235
 593	1	6	0.223374	-6.98491	-50.9688	27.4825
 594	1	6	0.198405	-10.5167	-53.4536	27.7943
 595	1	1	0.464138	-32.9414	-26.6139	17.8117
 596	1	2	0.077422	-32.2575	-27.8082	18.0431
 597	1	3	0.04486	-32.7576	-28.2932	19.3537
 598	1	2	0.055008	-33.8487	-26.3073	18.8273
 599	1	3	-0.004417	-33.7073	-27.4033	19.8186
 600	1	5	-0.392499	-31.3929	-28.3371	17.363
 601	1	5	-0.37854	-34.5841	-25.3388	18.9268
 602	1	3	-0.044101	-32.3581	-29.4003	20.1103
 603	1	3	-0.056346	-34.3342	-27.5804	21.0572
 604	1	3	-0.157726	-33.9394	-28.6826	21.8439
 605	1	3	-0.13238	-32.9374	-29.578	21.3864
 606	1	6	0.167375	-31.5892	-30.0746	19.7366
 607	1	6	0.161059	-35.0827	-26.8706	21.4036
 608	1	6	0.140064	-34.396	-28.8325	22.8206
 609	1	2	0.57844	-32.4355	-30.692	22.2591
 610	1	3	-0.037172	-31.6401	-30.3357	23.4955
 611	1	3	-0.116011	-31.0373	-31.3715	24.2511
 612	1	3	-0.048223	-30.2072	-31.0234	25.3259
 613	1	3	-0.138147	-31.401	-28.9816	23.8645
 614	1	3	-0.114262	-30.569	-28.6559	24.9539
 615	1	3	-0.063397	-29.9747	-29.7059	25.6608
 616	1	2	0.489233	-28.9711	-29.6728	26.7553
 617	1	1	-0.081676	-28.6364	-30.9995	27.0035
 618	1	2	0.489742	-29.366	-31.8773	26.2068
 619	1	3	0.047265	-27.5982	-31.3985	27.8953
 620	1	3	-0.183349	-27.4447	-30.7791	29.1485
 621	1	3	-0.091111	-26.3828	-31.1356	29.996
 622	1	3	-0.18836	-26.6764	-32.3917	27.5171
 623	1	3	-0.138837	-25.6191	-32.7536	28.3673
 624	1	3	0.044906	-25.4453	-32.1181	29.6158
 625	1	6	0.157291	-28.1376	-30.0034	29.4646
 626	1	6	0.112962	-26.2897	-30.6372	30.956
 627	1	6	0.163228	-30.3552	-27.6209	25.2158
 628	1	6	0.134491	-31.8218	-28.1641	23.2869
 629	1	6	0.172124	-31.1676	-32.4186	23.9785
 630	1	5	-0.48162	-29.3077	-33.0942	26.1721
 631	1	5	-0.478641	-28.5001	-28.6657	27.2557
 632	1	5	-0.498568	-32.5031	-31.8437	21.8645
 633	1	6	0.153588	-26.7726	-32.8905	26.5557
 634	1	6	0.146442	-24.9409	-33.5346	28.037
 635	1	7	0.027303	-24.2871	-32.4777	30.5673
 636	1	7	-0.256739	-23.5181	-31.2064	31.0197
 637	1	8	0.074408	-24.1349	-30.5635	31.659
 638	1	8	0.075653	-23.198	-30.6134	30.1536
 639	1	8	0.063017	-22.6205	-31.4758	31.592
 640	1	7	-0.003396	-24.8264	-33.268	31.8024
 641	1	7	0.23166	-24.548	-34.7846	31.5681
 642	1	8	0.003166	-25.8904	-33.0726	31.9909
 643	1	8	0.018046	-24.2889	-32.9396	32.702
 644	1	3	0.065056	-23.4522	-34.7466	30.5177
 645	1	7	-0.138879	-25.7998	-35.5044	31.0107
 646	1	7	-0.25744	-24.0831	-35.4748	32.8742
 647	1	3	0.018858	-23.3133	-33.4806	29.9661