

################################################################################
##################################    Init    ##################################
################################################################################
units           real
atom_style      full
pair_style      lj/cut/coul/long 12.0  12.0
kspace_style    pppm 1e-4
bond_style      harmonic
angle_style     harmonic
dihedral_style  fourier
improper_style  cvff
special_bonds   amber
pair_modify     mix arithmetic
read_data       temp.lmps
  orthogonal box = (-104.688 -104.688 -104.688) to (104.688 104.688 104.688)
  1 by 1 by 1 MPI processor grid
  reading atoms ...
  132 atoms
  reading velocities ...
  132 velocities
  scanning bonds ...
  3 = max bonds/atom
  scanning angles ...
  6 = max angles/atom
  scanning dihedrals ...
  24 = max dihedrals/atom
  scanning impropers ...
  2 = max impropers/atom
  reading bonds ...
  145 bonds
  reading angles ...
  254 angles
  reading dihedrals ...
  402 dihedrals
  reading impropers ...
  42 impropers
  4 = max # of 1-2 neighbors
  11 = max # of 1-3 neighbors
  23 = max # of 1-4 neighbors
  23 = max # of special neighbors
  special bonds CPU = 0.00028491 secs
  read_data CPU = 0.00442696 secs
################################################################################

timestep        1
fix             pysimm_md all nve/limit 0.1
run             2000
PPPM initialization ...
  using 12-bit tables for long-range coulomb (../kspace.cpp:332)
  G vector (1/distance) = 0.0382577
  grid = 6 6 6
  stencil order = 5
  estimated absolute RMS force accuracy = 0.0424372
  estimated relative force accuracy = 0.000127798
  using double precision KISS FFT
  3d grid and FFT values/proc = 1331 216
Neighbor list info ...
  update every 1 steps, delay 10 steps, check yes
  max neighbors/atom: 2000, page size: 100000
  master list distance cutoff = 14
  ghost atom cutoff = 14
  binsize = 7, bins = 30 30 30
  1 neighbor lists, perpetual/occasional/extra = 1 0 0
  (1) pair lj/cut/coul/long, perpetual
      attributes: half, newton on
      pair build: half/bin/newton
      stencil: half/bin/3d/newton
      bin: standard
Per MPI rank memory allocation (min/avg/max) = 18 | 18 | 18 Mbytes
Step Temp E_pair E_mol TotEng Press 
       0    1.4228828    86.060402    224.22667    310.84269  -0.65929922 
    2000    123.13914    86.608436    176.78747    311.48003   -0.2051455 
Loop time of 0.573385 on 1 procs for 2000 steps with 132 atoms

Performance: 301.368 ns/day, 0.080 hours/ns, 3488.058 timesteps/s
100.1% CPU use with 1 MPI tasks x no OpenMP threads

MPI task timing breakdown:
Section |  min time  |  avg time  |  max time  |%varavg| %total
---------------------------------------------------------------
Pair    | 0.19959    | 0.19959    | 0.19959    |   0.0 | 34.81
Bond    | 0.11437    | 0.11437    | 0.11437    |   0.0 | 19.95
Kspace  | 0.24884    | 0.24884    | 0.24884    |   0.0 | 43.40
Neigh   | 0.0023961  | 0.0023961  | 0.0023961  |   0.0 |  0.42
Comm    | 0.00054336 | 0.00054336 | 0.00054336 |   0.0 |  0.09
Output  | 1.6928e-05 | 1.6928e-05 | 1.6928e-05 |   0.0 |  0.00
Modify  | 0.0044785  | 0.0044785  | 0.0044785  |   0.0 |  0.78
Other   |            | 0.003158   |            |       |  0.55

Nlocal:    132 ave 132 max 132 min
Histogram: 1 0 0 0 0 0 0 0 0 0
Nghost:    0 ave 0 max 0 min
Histogram: 1 0 0 0 0 0 0 0 0 0
Neighs:    4450 ave 4450 max 4450 min
Histogram: 1 0 0 0 0 0 0 0 0 0

Total # of neighbors = 4450
Ave neighs/atom = 33.7121
Ave special neighs/atom = 11.3182
Neighbor list builds = 14
Dangerous builds = 0
unfix pysimm_md
min_style cg
minimize 0.001 0.001 10000 100000
WARNING: Using 'neigh_modify every 1 delay 0 check yes' setting during minimization (../min.cpp:190)
PPPM initialization ...
  using 12-bit tables for long-range coulomb (../kspace.cpp:332)
  G vector (1/distance) = 0.0382577
  grid = 6 6 6
  stencil order = 5
  estimated absolute RMS force accuracy = 0.0424372
  estimated relative force accuracy = 0.000127798
  using double precision KISS FFT
  3d grid and FFT values/proc = 1331 216
Per MPI rank memory allocation (min/avg/max) = 19.13 | 19.13 | 19.13 Mbytes
Step Temp E_pair E_mol TotEng Press 
    2000    123.13914    86.608436    176.78747    311.48003   -0.2051455 
    2013    123.13914    83.861389    143.95392    275.89944   0.33326152 
Loop time of 0.00972319 on 1 procs for 13 steps with 132 atoms

102.8% CPU use with 1 MPI tasks x no OpenMP threads

Minimization stats:
  Stopping criterion = energy tolerance
  Energy initial, next-to-last, final = 
         263.395901707      227.825606832      227.815312989
  Force two-norm initial, final = 244.656 25.9272
  Force max component initial, final = 59.3487 4.89478
  Final line search alpha, max atom move = 0.00623694 0.0305284
  Iterations, force evaluations = 13 26

MPI task timing breakdown:
Section |  min time  |  avg time  |  max time  |%varavg| %total
---------------------------------------------------------------
Pair    | 0.0043638  | 0.0043638  | 0.0043638  |   0.0 | 44.88
Bond    | 0.0017478  | 0.0017478  | 0.0017478  |   0.0 | 17.98
Kspace  | 0.0034781  | 0.0034781  | 0.0034781  |   0.0 | 35.77
Neigh   | 0          | 0          | 0          |   0.0 |  0.00
Comm    | 9.0599e-06 | 9.0599e-06 | 9.0599e-06 |   0.0 |  0.09
Output  | 0          | 0          | 0          |   0.0 |  0.00
Modify  | 0          | 0          | 0          |   0.0 |  0.00
Other   |            | 0.0001245  |            |       |  1.28

Nlocal:    132 ave 132 max 132 min
Histogram: 1 0 0 0 0 0 0 0 0 0
Nghost:    0 ave 0 max 0 min
Histogram: 1 0 0 0 0 0 0 0 0 0
Neighs:    4468 ave 4468 max 4468 min
Histogram: 1 0 0 0 0 0 0 0 0 0

Total # of neighbors = 4468
Ave neighs/atom = 33.8485
Ave special neighs/atom = 11.3182
Neighbor list builds = 0
Dangerous builds = 0
write_dump all custom pysimm.dump.tmp id q x y z vx vy vz
quit


################################################################################
##################################    Init    ##################################
################################################################################
units           real
atom_style      full
pair_style      lj/cut/coul/long 12.0  12.0
kspace_style    pppm 1e-4
bond_style      harmonic
angle_style     harmonic
dihedral_style  fourier
improper_style  cvff
special_bonds   amber
pair_modify     mix arithmetic
read_data       temp.lmps
  orthogonal box = (-104.688 -104.688 -104.688) to (104.688 104.688 104.688)
  1 by 1 by 1 MPI processor grid
  reading atoms ...
  198 atoms
  reading velocities ...
  198 velocities
  scanning bonds ...
  3 = max bonds/atom
  scanning angles ...
  6 = max angles/atom
  scanning dihedrals ...
  24 = max dihedrals/atom
  scanning impropers ...
  2 = max impropers/atom
  reading bonds ...
  218 bonds
  reading angles ...
  383 angles
  reading dihedrals ...
  609 dihedrals
  reading impropers ...
  63 impropers
  4 = max # of 1-2 neighbors
  11 = max # of 1-3 neighbors
  23 = max # of 1-4 neighbors
  23 = max # of special neighbors
  special bonds CPU = 0.000349045 secs
  read_data CPU = 0.00525999 secs
################################################################################

timestep        1
fix             pysimm_md all nve/limit 0.1
run             2000
PPPM initialization ...
  using 12-bit tables for long-range coulomb (../kspace.cpp:332)
  G vector (1/distance) = 0.0599545
  grid = 10 10 10
  stencil order = 5
  estimated absolute RMS force accuracy = 0.038241
  estimated relative force accuracy = 0.000115162
  using double precision KISS FFT
  3d grid and FFT values/proc = 3375 1000
Neighbor list info ...
  update every 1 steps, delay 10 steps, check yes
  max neighbors/atom: 2000, page size: 100000
  master list distance cutoff = 14
  ghost atom cutoff = 14
  binsize = 7, bins = 30 30 30
  1 neighbor lists, perpetual/occasional/extra = 1 0 0
  (1) pair lj/cut/coul/long, perpetual
      attributes: half, newton on
      pair build: half/bin/newton
      stencil: half/bin/3d/newton
      bin: standard
Per MPI rank memory allocation (min/avg/max) = 18.16 | 18.16 | 18.16 Mbytes
Step Temp E_pair E_mol TotEng Press 
       0    82.357519    148.93483    300.47117    497.76795  -0.49284437 
    2000    141.32652    139.84601    266.65486    489.49056   0.61402617 
Loop time of 1.22948 on 1 procs for 2000 steps with 198 atoms

Performance: 140.547 ns/day, 0.171 hours/ns, 1626.700 timesteps/s
100.0% CPU use with 1 MPI tasks x no OpenMP threads

MPI task timing breakdown:
Section |  min time  |  avg time  |  max time  |%varavg| %total
---------------------------------------------------------------
Pair    | 0.33447    | 0.33447    | 0.33447    |   0.0 | 27.20
Bond    | 0.17989    | 0.17989    | 0.17989    |   0.0 | 14.63
Kspace  | 0.69641    | 0.69641    | 0.69641    |   0.0 | 56.64
Neigh   | 0.0054252  | 0.0054252  | 0.0054252  |   0.0 |  0.44
Comm    | 0.0017719  | 0.0017719  | 0.0017719  |   0.0 |  0.14
Output  | 2.1935e-05 | 2.1935e-05 | 2.1935e-05 |   0.0 |  0.00
Modify  | 0.0066178  | 0.0066178  | 0.0066178  |   0.0 |  0.54
Other   |            | 0.004879   |            |       |  0.40

Nlocal:    198 ave 198 max 198 min
Histogram: 1 0 0 0 0 0 0 0 0 0
Nghost:    65 ave 65 max 65 min
Histogram: 1 0 0 0 0 0 0 0 0 0
Neighs:    7085 ave 7085 max 7085 min
Histogram: 1 0 0 0 0 0 0 0 0 0

Total # of neighbors = 7085
Ave neighs/atom = 35.7828
Ave special neighs/atom = 11.404
Neighbor list builds = 20
Dangerous builds = 0
unfix pysimm_md
min_style cg
minimize 0.001 0.001 10000 100000
WARNING: Using 'neigh_modify every 1 delay 0 check yes' setting during minimization (../min.cpp:190)
PPPM initialization ...
  using 12-bit tables for long-range coulomb (../kspace.cpp:332)
  G vector (1/distance) = 0.0599545
  grid = 10 10 10
  stencil order = 5
  estimated absolute RMS force accuracy = 0.038241
  estimated relative force accuracy = 0.000115162
  using double precision KISS FFT
  3d grid and FFT values/proc = 3375 1000
Per MPI rank memory allocation (min/avg/max) = 19.29 | 19.29 | 19.29 Mbytes
Step Temp E_pair E_mol TotEng Press 
    2000    141.32652    139.84601    266.65486    489.49056   0.61402617 
    2012    141.32652    135.05243    215.88241    433.92454   0.79174296 
Loop time of 0.0571091 on 1 procs for 12 steps with 198 atoms

99.8% CPU use with 1 MPI tasks x no OpenMP threads

Minimization stats:
  Stopping criterion = linesearch alpha is zero
  Energy initial, next-to-last, final = 
         406.500864728      350.934838033      350.934838033
  Force two-norm initial, final = 327.421 42.0763
  Force max component initial, final = 80.7125 8.76234
  Final line search alpha, max atom move = 4.00741e-12 3.51142e-11
  Iterations, force evaluations = 12 83

MPI task timing breakdown:
Section |  min time  |  avg time  |  max time  |%varavg| %total
---------------------------------------------------------------
Pair    | 0.021479   | 0.021479   | 0.021479   |   0.0 | 37.61
Bond    | 0.0079749  | 0.0079749  | 0.0079749  |   0.0 | 13.96
Kspace  | 0.027249   | 0.027249   | 0.027249   |   0.0 | 47.71
Neigh   | 0          | 0          | 0          |   0.0 |  0.00
Comm    | 6.9141e-05 | 6.9141e-05 | 6.9141e-05 |   0.0 |  0.12
Output  | 0          | 0          | 0          |   0.0 |  0.00
Modify  | 0          | 0          | 0          |   0.0 |  0.00
Other   |            | 0.0003371  |            |       |  0.59

Nlocal:    198 ave 198 max 198 min
Histogram: 1 0 0 0 0 0 0 0 0 0
Nghost:    64 ave 64 max 64 min
Histogram: 1 0 0 0 0 0 0 0 0 0
Neighs:    7082 ave 7082 max 7082 min
Histogram: 1 0 0 0 0 0 0 0 0 0

Total # of neighbors = 7082
Ave neighs/atom = 35.7677
Ave special neighs/atom = 11.404
Neighbor list builds = 0
Dangerous builds = 0
write_dump all custom pysimm.dump.tmp id q x y z vx vy vz
quit


################################################################################
##################################    Init    ##################################
################################################################################
units           real
atom_style      full
pair_style      lj/cut/coul/long 12.0  12.0
kspace_style    pppm 1e-4
bond_style      harmonic
angle_style     harmonic
dihedral_style  fourier
improper_style  cvff
special_bonds   amber
pair_modify     mix arithmetic
read_data       temp.lmps
  orthogonal box = (-104.688 -104.688 -104.688) to (104.688 104.688 104.688)
  1 by 1 by 1 MPI processor grid
  reading atoms ...
  264 atoms
  reading velocities ...
  264 velocities
  scanning bonds ...
  3 = max bonds/atom
  scanning angles ...
  6 = max angles/atom
  scanning dihedrals ...
  24 = max dihedrals/atom
  scanning impropers ...
  2 = max impropers/atom
  reading bonds ...
  291 bonds
  reading angles ...
  512 angles
  reading dihedrals ...
  816 dihedrals
  reading impropers ...
  84 impropers
  4 = max # of 1-2 neighbors
  11 = max # of 1-3 neighbors
  23 = max # of 1-4 neighbors
  23 = max # of special neighbors
  special bonds CPU = 0.000366926 secs
  read_data CPU = 0.0054059 secs
################################################################################

timestep        1
fix             pysimm_md all nve/limit 0.1
run             2000
PPPM initialization ...
  using 12-bit tables for long-range coulomb (../kspace.cpp:332)
  G vector (1/distance) = 0.0698007
  grid = 12 12 12
  stencil order = 5
  estimated absolute RMS force accuracy = 0.0367369
  estimated relative force accuracy = 0.000110632
  using double precision KISS FFT
  3d grid and FFT values/proc = 4913 1728
Neighbor list info ...
  update every 1 steps, delay 10 steps, check yes
  max neighbors/atom: 2000, page size: 100000
  master list distance cutoff = 14
  ghost atom cutoff = 14
  binsize = 7, bins = 30 30 30
  1 neighbor lists, perpetual/occasional/extra = 1 0 0
  (1) pair lj/cut/coul/long, perpetual
      attributes: half, newton on
      pair build: half/bin/newton
      stencil: half/bin/3d/newton
      bin: standard
Per MPI rank memory allocation (min/avg/max) = 18.29 | 18.29 | 18.29 Mbytes
Step Temp E_pair E_mol TotEng Press 
       0    106.21494    200.47096    362.20554    645.94403   0.29513183 
    2000    135.05355    196.68375    349.55111     652.1105    0.3190975 
Loop time of 1.64135 on 1 procs for 2000 steps with 264 atoms

Performance: 105.279 ns/day, 0.228 hours/ns, 1218.508 timesteps/s
100.0% CPU use with 1 MPI tasks x no OpenMP threads

MPI task timing breakdown:
Section |  min time  |  avg time  |  max time  |%varavg| %total
---------------------------------------------------------------
Pair    | 0.42088    | 0.42088    | 0.42088    |   0.0 | 25.64
Bond    | 0.22747    | 0.22747    | 0.22747    |   0.0 | 13.86
Kspace  | 0.97072    | 0.97072    | 0.97072    |   0.0 | 59.14
Neigh   | 0.0070899  | 0.0070899  | 0.0070899  |   0.0 |  0.43
Comm    | 0.002104   | 0.002104   | 0.002104   |   0.0 |  0.13
Output  | 1.7881e-05 | 1.7881e-05 | 1.7881e-05 |   0.0 |  0.00
Modify  | 0.0081198  | 0.0081198  | 0.0081198  |   0.0 |  0.49
Other   |            | 0.004949   |            |       |  0.30

Nlocal:    264 ave 264 max 264 min
Histogram: 1 0 0 0 0 0 0 0 0 0
Nghost:    108 ave 108 max 108 min
Histogram: 1 0 0 0 0 0 0 0 0 0
Neighs:    9798 ave 9798 max 9798 min
Histogram: 1 0 0 0 0 0 0 0 0 0

Total # of neighbors = 9798
Ave neighs/atom = 37.1136
Ave special neighs/atom = 11.447
Neighbor list builds = 20
Dangerous builds = 0
unfix pysimm_md
min_style cg
minimize 0.001 0.001 10000 100000
WARNING: Using 'neigh_modify every 1 delay 0 check yes' setting during minimization (../min.cpp:190)
PPPM initialization ...
  using 12-bit tables for long-range coulomb (../kspace.cpp:332)
  G vector (1/distance) = 0.0698007
  grid = 12 12 12
  stencil order = 5
  estimated absolute RMS force accuracy = 0.0367369
  estimated relative force accuracy = 0.000110632
  using double precision KISS FFT
  3d grid and FFT values/proc = 4913 1728
Per MPI rank memory allocation (min/avg/max) = 19.42 | 19.42 | 19.42 Mbytes
Step Temp E_pair E_mol TotEng Press 
    2000    135.05355    196.68375    349.55111     652.1105    0.3190975 
    2014    135.05355    194.04322     287.3633    587.28216   0.57319695 
Loop time of 0.0272369 on 1 procs for 14 steps with 264 atoms

99.1% CPU use with 1 MPI tasks x no OpenMP threads

Minimization stats:
  Stopping criterion = energy tolerance
  Energy initial, next-to-last, final = 
         546.234860945      481.501774047      481.406522681
  Force two-norm initial, final = 351.393 28.6633
  Force max component initial, final = 77.2632 5.41904
  Final line search alpha, max atom move = 0.0075408 0.0408639
  Iterations, force evaluations = 14 28

MPI task timing breakdown:
Section |  min time  |  avg time  |  max time  |%varavg| %total
---------------------------------------------------------------
Pair    | 0.009892   | 0.009892   | 0.009892   |   0.0 | 36.32
Bond    | 0.0035741  | 0.0035741  | 0.0035741  |   0.0 | 13.12
Kspace  | 0.013505   | 0.013505   | 0.013505   |   0.0 | 49.58
Neigh   | 0          | 0          | 0          |   0.0 |  0.00
Comm    | 2.4557e-05 | 2.4557e-05 | 2.4557e-05 |   0.0 |  0.09
Output  | 0          | 0          | 0          |   0.0 |  0.00
Modify  | 0          | 0          | 0          |   0.0 |  0.00
Other   |            | 0.0002413  |            |       |  0.89

Nlocal:    264 ave 264 max 264 min
Histogram: 1 0 0 0 0 0 0 0 0 0
Nghost:    108 ave 108 max 108 min
Histogram: 1 0 0 0 0 0 0 0 0 0
Neighs:    9798 ave 9798 max 9798 min
Histogram: 1 0 0 0 0 0 0 0 0 0

Total # of neighbors = 9798
Ave neighs/atom = 37.1136
Ave special neighs/atom = 11.447
Neighbor list builds = 0
Dangerous builds = 0
write_dump all custom pysimm.dump.tmp id q x y z vx vy vz
quit


################################################################################
##################################    Init    ##################################
################################################################################
units           real
atom_style      full
pair_style      lj/cut/coul/long 12.0  12.0
kspace_style    pppm 1e-4
bond_style      harmonic
angle_style     harmonic
dihedral_style  fourier
improper_style  cvff
special_bonds   amber
pair_modify     mix arithmetic
read_data       temp.lmps
  orthogonal box = (-104.688 -104.688 -104.688) to (104.688 104.688 104.688)
  1 by 1 by 1 MPI processor grid
  reading atoms ...
  330 atoms
  reading velocities ...
  330 velocities
  scanning bonds ...
  3 = max bonds/atom
  scanning angles ...
  6 = max angles/atom
  scanning dihedrals ...
  24 = max dihedrals/atom
  scanning impropers ...
  2 = max impropers/atom
  reading bonds ...
  364 bonds
  reading angles ...
  641 angles
  reading dihedrals ...
  1023 dihedrals
  reading impropers ...
  105 impropers
  4 = max # of 1-2 neighbors
  11 = max # of 1-3 neighbors
  23 = max # of 1-4 neighbors
  23 = max # of special neighbors
  special bonds CPU = 0.00041008 secs
  read_data CPU = 0.00601602 secs
################################################################################

timestep        1
fix             pysimm_md all nve/limit 0.1
run             2000
PPPM initialization ...
  using 12-bit tables for long-range coulomb (../kspace.cpp:332)
  G vector (1/distance) = 0.0833789
  grid = 15 15 15
  stencil order = 5
  estimated absolute RMS force accuracy = 0.0304436
  estimated relative force accuracy = 9.168e-05
  using double precision KISS FFT
  3d grid and FFT values/proc = 8000 3375
Neighbor list info ...
  update every 1 steps, delay 10 steps, check yes
  max neighbors/atom: 2000, page size: 100000
  master list distance cutoff = 14
  ghost atom cutoff = 14
  binsize = 7, bins = 30 30 30
  1 neighbor lists, perpetual/occasional/extra = 1 0 0
  (1) pair lj/cut/coul/long, perpetual
      attributes: half, newton on
      pair build: half/bin/newton
      stencil: half/bin/3d/newton
      bin: standard
Per MPI rank memory allocation (min/avg/max) = 18.56 | 18.56 | 18.56 Mbytes
Step Temp E_pair E_mol TotEng Press 
       0    108.24402    3167.5431    450.85349      3724.55    86.983483 
    2000     234.3908    260.07665    554.52498    1044.4655   0.42514899 
Loop time of 2.54092 on 1 procs for 2000 steps with 330 atoms

Performance: 68.007 ns/day, 0.353 hours/ns, 787.117 timesteps/s
100.0% CPU use with 1 MPI tasks x no OpenMP threads

MPI task timing breakdown:
Section |  min time  |  avg time  |  max time  |%varavg| %total
---------------------------------------------------------------
Pair    | 0.54628    | 0.54628    | 0.54628    |   0.0 | 21.50
Bond    | 0.28332    | 0.28332    | 0.28332    |   0.0 | 11.15
Kspace  | 1.666      | 1.666      | 1.666      |   0.0 | 65.57
Neigh   | 0.027512   | 0.027512   | 0.027512   |   0.0 |  1.08
Comm    | 0.0026472  | 0.0026472  | 0.0026472  |   0.0 |  0.10
Output  | 2.2888e-05 | 2.2888e-05 | 2.2888e-05 |   0.0 |  0.00
Modify  | 0.010111   | 0.010111   | 0.010111   |   0.0 |  0.40
Other   |            | 0.00502    |            |       |  0.20

Nlocal:    330 ave 330 max 330 min
Histogram: 1 0 0 0 0 0 0 0 0 0
Nghost:    116 ave 116 max 116 min
Histogram: 1 0 0 0 0 0 0 0 0 0
Neighs:    12947 ave 12947 max 12947 min
Histogram: 1 0 0 0 0 0 0 0 0 0

Total # of neighbors = 12947
Ave neighs/atom = 39.2333
Ave special neighs/atom = 11.4727
Neighbor list builds = 63
Dangerous builds = 0
unfix pysimm_md
min_style cg
minimize 0.001 0.001 10000 100000
WARNING: Using 'neigh_modify every 1 delay 0 check yes' setting during minimization (../min.cpp:190)
PPPM initialization ...
  using 12-bit tables for long-range coulomb (../kspace.cpp:332)
  G vector (1/distance) = 0.0833789
  grid = 15 15 15
  stencil order = 5
  estimated absolute RMS force accuracy = 0.0304436
  estimated relative force accuracy = 9.168e-05
  using double precision KISS FFT
  3d grid and FFT values/proc = 8000 3375
Per MPI rank memory allocation (min/avg/max) = 19.69 | 19.69 | 19.69 Mbytes
Step Temp E_pair E_mol TotEng Press 
    2000     234.3908    260.07665    554.52498    1044.4655   0.42514899 
    2023     234.3908    249.35206    369.55027    848.76623    1.2673613 
Loop time of 0.0666199 on 1 procs for 23 steps with 330 atoms

100.6% CPU use with 1 MPI tasks x no OpenMP threads

Minimization stats:
  Stopping criterion = energy tolerance
  Energy initial, next-to-last, final = 
         814.601630082      619.123044478      618.902326999
  Force two-norm initial, final = 474.95 47.8498
  Force max component initial, final = 97.2221 8.77233
  Final line search alpha, max atom move = 0.00400419 0.0351261
  Iterations, force evaluations = 23 46

MPI task timing breakdown:
Section |  min time  |  avg time  |  max time  |%varavg| %total
---------------------------------------------------------------
Pair    | 0.020136   | 0.020136   | 0.020136   |   0.0 | 30.23
Bond    | 0.0071278  | 0.0071278  | 0.0071278  |   0.0 | 10.70
Kspace  | 0.038929   | 0.038929   | 0.038929   |   0.0 | 58.43
Neigh   | 0          | 0          | 0          |   0.0 |  0.00
Comm    | 5.6505e-05 | 5.6505e-05 | 5.6505e-05 |   0.0 |  0.08
Output  | 0          | 0          | 0          |   0.0 |  0.00
Modify  | 0          | 0          | 0          |   0.0 |  0.00
Other   |            | 0.0003705  |            |       |  0.56

Nlocal:    330 ave 330 max 330 min
Histogram: 1 0 0 0 0 0 0 0 0 0
Nghost:    117 ave 117 max 117 min
Histogram: 1 0 0 0 0 0 0 0 0 0
Neighs:    12947 ave 12947 max 12947 min
Histogram: 1 0 0 0 0 0 0 0 0 0

Total # of neighbors = 12947
Ave neighs/atom = 39.2333
Ave special neighs/atom = 11.4727
Neighbor list builds = 0
Dangerous builds = 0
write_dump all custom pysimm.dump.tmp id q x y z vx vy vz
quit


################################################################################
##################################    Init    ##################################
################################################################################
units           real
atom_style      full
pair_style      lj/cut/coul/long 12.0  12.0
kspace_style    pppm 1e-4
bond_style      harmonic
angle_style     harmonic
dihedral_style  fourier
improper_style  cvff
special_bonds   amber
pair_modify     mix arithmetic
read_data       temp.lmps
  orthogonal box = (-104.688 -104.688 -104.688) to (104.688 104.688 104.688)
  1 by 1 by 1 MPI processor grid
  reading atoms ...
  396 atoms
  reading velocities ...
  396 velocities
  scanning bonds ...
  3 = max bonds/atom
  scanning angles ...
  6 = max angles/atom
  scanning dihedrals ...
  24 = max dihedrals/atom
  scanning impropers ...
  2 = max impropers/atom
  reading bonds ...
  437 bonds
  reading angles ...
  770 angles
  reading dihedrals ...
  1230 dihedrals
  reading impropers ...
  126 impropers
  4 = max # of 1-2 neighbors
  11 = max # of 1-3 neighbors
  23 = max # of 1-4 neighbors
  23 = max # of special neighbors
  special bonds CPU = 0.000443935 secs
  read_data CPU = 0.00646901 secs
################################################################################

timestep        1
fix             pysimm_md all nve/limit 0.1
run             2000
PPPM initialization ...
  using 12-bit tables for long-range coulomb (../kspace.cpp:332)
  G vector (1/distance) = 0.0833782
  grid = 15 15 15
  stencil order = 5
  estimated absolute RMS force accuracy = 0.0333483
  estimated relative force accuracy = 0.000100427
  using double precision KISS FFT
  3d grid and FFT values/proc = 8000 3375
Neighbor list info ...
  update every 1 steps, delay 10 steps, check yes
  max neighbors/atom: 2000, page size: 100000
  master list distance cutoff = 14
  ghost atom cutoff = 14
  binsize = 7, bins = 30 30 30
  1 neighbor lists, perpetual/occasional/extra = 1 0 0
  (1) pair lj/cut/coul/long, perpetual
      attributes: half, newton on
      pair build: half/bin/newton
      stencil: half/bin/3d/newton
      bin: standard
Per MPI rank memory allocation (min/avg/max) = 18.57 | 18.57 | 18.57 Mbytes
Step Temp E_pair E_mol TotEng Press 
       0    195.46272 5.150823e+11    592.11705 5.1508231e+11 1.5391337e+10 
    2000    317.40574    311.80919    768.90045    1454.4295   -4.7875697 
Loop time of 2.86649 on 1 procs for 2000 steps with 396 atoms

Performance: 60.283 ns/day, 0.398 hours/ns, 697.717 timesteps/s
100.0% CPU use with 1 MPI tasks x no OpenMP threads

MPI task timing breakdown:
Section |  min time  |  avg time  |  max time  |%varavg| %total
---------------------------------------------------------------
Pair    | 0.67994    | 0.67994    | 0.67994    |   0.0 | 23.72
Bond    | 0.33847    | 0.33847    | 0.33847    |   0.0 | 11.81
Kspace  | 1.7853     | 1.7853     | 1.7853     |   0.0 | 62.28
Neigh   | 0.042817   | 0.042817   | 0.042817   |   0.0 |  1.49
Comm    | 0.0032251  | 0.0032251  | 0.0032251  |   0.0 |  0.11
Output  | 2.5988e-05 | 2.5988e-05 | 2.5988e-05 |   0.0 |  0.00
Modify  | 0.011834   | 0.011834   | 0.011834   |   0.0 |  0.41
Other   |            | 0.004909   |            |       |  0.17

Nlocal:    396 ave 396 max 396 min
Histogram: 1 0 0 0 0 0 0 0 0 0
Nghost:    148 ave 148 max 148 min
Histogram: 1 0 0 0 0 0 0 0 0 0
Neighs:    15563 ave 15563 max 15563 min
Histogram: 1 0 0 0 0 0 0 0 0 0

Total # of neighbors = 15563
Ave neighs/atom = 39.3005
Ave special neighs/atom = 11.4899
Neighbor list builds = 80
Dangerous builds = 0
unfix pysimm_md
min_style cg
minimize 0.001 0.001 10000 100000
WARNING: Using 'neigh_modify every 1 delay 0 check yes' setting during minimization (../min.cpp:190)
PPPM initialization ...
  using 12-bit tables for long-range coulomb (../kspace.cpp:332)
  G vector (1/distance) = 0.0833782
  grid = 15 15 15
  stencil order = 5
  estimated absolute RMS force accuracy = 0.0333483
  estimated relative force accuracy = 0.000100427
  using double precision KISS FFT
  3d grid and FFT values/proc = 8000 3375
Per MPI rank memory allocation (min/avg/max) = 19.69 | 19.69 | 19.69 Mbytes
Step Temp E_pair E_mol TotEng Press 
    2000    317.40574    311.80919    768.90045    1454.4295   -4.7875697 
    2026    317.40574    301.70688    445.15774    1120.5845    1.9560095 
Loop time of 0.083956 on 1 procs for 26 steps with 396 atoms

100.0% CPU use with 1 MPI tasks x no OpenMP threads

Minimization stats:
  Stopping criterion = energy tolerance
  Energy initial, next-to-last, final = 
         1080.70964319      747.517215325      746.864616756
  Force two-norm initial, final = 728.409 38.5579
  Force max component initial, final = 139.294 5.43842
  Final line search alpha, max atom move = 0.0048867 0.0265759
  Iterations, force evaluations = 26 52

MPI task timing breakdown:
Section |  min time  |  avg time  |  max time  |%varavg| %total
---------------------------------------------------------------
Pair    | 0.027951   | 0.027951   | 0.027951   |   0.0 | 33.29
Bond    | 0.0096338  | 0.0096338  | 0.0096338  |   0.0 | 11.47
Kspace  | 0.045812   | 0.045812   | 0.045812   |   0.0 | 54.57
Neigh   | 0          | 0          | 0          |   0.0 |  0.00
Comm    | 6.1512e-05 | 6.1512e-05 | 6.1512e-05 |   0.0 |  0.07
Output  | 0          | 0          | 0          |   0.0 |  0.00
Modify  | 0          | 0          | 0          |   0.0 |  0.00
Other   |            | 0.0004981  |            |       |  0.59

Nlocal:    396 ave 396 max 396 min
Histogram: 1 0 0 0 0 0 0 0 0 0
Nghost:    148 ave 148 max 148 min
Histogram: 1 0 0 0 0 0 0 0 0 0
Neighs:    15562 ave 15562 max 15562 min
Histogram: 1 0 0 0 0 0 0 0 0 0

Total # of neighbors = 15562
Ave neighs/atom = 39.298
Ave special neighs/atom = 11.4899
Neighbor list builds = 0
Dangerous builds = 0
write_dump all custom pysimm.dump.tmp id q x y z vx vy vz
quit


################################################################################
##################################    Init    ##################################
################################################################################
units           real
atom_style      full
pair_style      lj/cut/coul/long 12.0  12.0
kspace_style    pppm 1e-4
bond_style      harmonic
angle_style     harmonic
dihedral_style  fourier
improper_style  cvff
special_bonds   amber
pair_modify     mix arithmetic
read_data       temp.lmps
  orthogonal box = (-104.688 -104.688 -104.688) to (104.688 104.688 104.688)
  1 by 1 by 1 MPI processor grid
  reading atoms ...
  462 atoms
  reading velocities ...
  462 velocities
  scanning bonds ...
  3 = max bonds/atom
  scanning angles ...
  6 = max angles/atom
  scanning dihedrals ...
  24 = max dihedrals/atom
  scanning impropers ...
  2 = max impropers/atom
  reading bonds ...
  510 bonds
  reading angles ...
  899 angles
  reading dihedrals ...
  1437 dihedrals
  reading impropers ...
  147 impropers
  4 = max # of 1-2 neighbors
  11 = max # of 1-3 neighbors
  23 = max # of 1-4 neighbors
  23 = max # of special neighbors
  special bonds CPU = 0.000485897 secs
  read_data CPU = 0.00700903 secs
################################################################################

timestep        1
fix             pysimm_md all nve/limit 0.1
run             2000
PPPM initialization ...
  using 12-bit tables for long-range coulomb (../kspace.cpp:332)
  G vector (1/distance) = 0.0833784
  grid = 15 15 15
  stencil order = 5
  estimated absolute RMS force accuracy = 0.0360205
  estimated relative force accuracy = 0.000108475
  using double precision KISS FFT
  3d grid and FFT values/proc = 8000 3375
Neighbor list info ...
  update every 1 steps, delay 10 steps, check yes
  max neighbors/atom: 2000, page size: 100000
  master list distance cutoff = 14
  ghost atom cutoff = 14
  binsize = 7, bins = 30 30 30
  1 neighbor lists, perpetual/occasional/extra = 1 0 0
  (1) pair lj/cut/coul/long, perpetual
      attributes: half, newton on
      pair build: half/bin/newton
      stencil: half/bin/3d/newton
      bin: standard
Per MPI rank memory allocation (min/avg/max) = 18.58 | 18.58 | 18.58 Mbytes
Step Temp E_pair E_mol TotEng Press 
       0    272.16584    371.73403     639.5641    1385.2958    0.9846041 
    2000    195.88633    372.94998    747.06405    1389.1919  -0.85646704 
Loop time of 3.0373 on 1 procs for 2000 steps with 462 atoms

Performance: 56.893 ns/day, 0.422 hours/ns, 658.480 timesteps/s
100.0% CPU use with 1 MPI tasks x no OpenMP threads

MPI task timing breakdown:
Section |  min time  |  avg time  |  max time  |%varavg| %total
---------------------------------------------------------------
Pair    | 0.76732    | 0.76732    | 0.76732    |   0.0 | 25.26
Bond    | 0.39583    | 0.39583    | 0.39583    |   0.0 | 13.03
Kspace  | 1.815      | 1.815      | 1.815      |   0.0 | 59.76
Neigh   | 0.03559    | 0.03559    | 0.03559    |   0.0 |  1.17
Comm    | 0.0036175  | 0.0036175  | 0.0036175  |   0.0 |  0.12
Output  | 2.0981e-05 | 2.0981e-05 | 2.0981e-05 |   0.0 |  0.00
Modify  | 0.013982   | 0.013982   | 0.013982   |   0.0 |  0.46
Other   |            | 0.005977   |            |       |  0.20

Nlocal:    462 ave 462 max 462 min
Histogram: 1 0 0 0 0 0 0 0 0 0
Nghost:    194 ave 194 max 194 min
Histogram: 1 0 0 0 0 0 0 0 0 0
Neighs:    18324 ave 18324 max 18324 min
Histogram: 1 0 0 0 0 0 0 0 0 0

Total # of neighbors = 18324
Ave neighs/atom = 39.6623
Ave special neighs/atom = 11.5022
Neighbor list builds = 56
Dangerous builds = 0
unfix pysimm_md
min_style cg
minimize 0.001 0.001 10000 100000
WARNING: Using 'neigh_modify every 1 delay 0 check yes' setting during minimization (../min.cpp:190)
PPPM initialization ...
  using 12-bit tables for long-range coulomb (../kspace.cpp:332)
  G vector (1/distance) = 0.0833784
  grid = 15 15 15
  stencil order = 5
  estimated absolute RMS force accuracy = 0.0360205
  estimated relative force accuracy = 0.000108475
  using double precision KISS FFT
  3d grid and FFT values/proc = 8000 3375
Per MPI rank memory allocation (min/avg/max) = 19.7 | 19.7 | 19.7 Mbytes
Step Temp E_pair E_mol TotEng Press 
    2000    195.88633    372.94998    747.06405    1389.1919  -0.85646704 
    2025    195.88633    365.04448    511.59367     1145.816    1.1887251 
Loop time of 0.197676 on 1 procs for 25 steps with 462 atoms

100.1% CPU use with 1 MPI tasks x no OpenMP threads

Minimization stats:
  Stopping criterion = linesearch alpha is zero
  Energy initial, next-to-last, final = 
         1120.01403565      876.638150951      876.638150951
  Force two-norm initial, final = 578.347 40.9157
  Force max component initial, final = 82.189 6.20607
  Final line search alpha, max atom move = 4.24619e-12 2.63521e-11
  Iterations, force evaluations = 25 109

MPI task timing breakdown:
Section |  min time  |  avg time  |  max time  |%varavg| %total
---------------------------------------------------------------
Pair    | 0.069089   | 0.069089   | 0.069089   |   0.0 | 34.95
Bond    | 0.024066   | 0.024066   | 0.024066   |   0.0 | 12.17
Kspace  | 0.10341    | 0.10341    | 0.10341    |   0.0 | 52.31
Neigh   | 0          | 0          | 0          |   0.0 |  0.00
Comm    | 0.00017786 | 0.00017786 | 0.00017786 |   0.0 |  0.09
Output  | 0          | 0          | 0          |   0.0 |  0.00
Modify  | 0          | 0          | 0          |   0.0 |  0.00
Other   |            | 0.0009375  |            |       |  0.47

Nlocal:    462 ave 462 max 462 min
Histogram: 1 0 0 0 0 0 0 0 0 0
Nghost:    194 ave 194 max 194 min
Histogram: 1 0 0 0 0 0 0 0 0 0
Neighs:    18324 ave 18324 max 18324 min
Histogram: 1 0 0 0 0 0 0 0 0 0

Total # of neighbors = 18324
Ave neighs/atom = 39.6623
Ave special neighs/atom = 11.5022
Neighbor list builds = 0
Dangerous builds = 0
write_dump all custom pysimm.dump.tmp id q x y z vx vy vz
quit


################################################################################
##################################    Init    ##################################
################################################################################
units           real
atom_style      full
pair_style      lj/cut/coul/long 12.0  12.0
kspace_style    pppm 1e-4
bond_style      harmonic
angle_style     harmonic
dihedral_style  fourier
improper_style  cvff
special_bonds   amber
pair_modify     mix arithmetic
read_data       temp.lmps
  orthogonal box = (-104.688 -104.688 -104.688) to (104.688 104.688 104.688)
  1 by 1 by 1 MPI processor grid
  reading atoms ...
  528 atoms
  reading velocities ...
  528 velocities
  scanning bonds ...
  3 = max bonds/atom
  scanning angles ...
  6 = max angles/atom
  scanning dihedrals ...
  24 = max dihedrals/atom
  scanning impropers ...
  2 = max impropers/atom
  reading bonds ...
  583 bonds
  reading angles ...
  1028 angles
  reading dihedrals ...
  1644 dihedrals
  reading impropers ...
  168 impropers
  4 = max # of 1-2 neighbors
  11 = max # of 1-3 neighbors
  23 = max # of 1-4 neighbors
  23 = max # of special neighbors
  special bonds CPU = 0.000536919 secs
  read_data CPU = 0.00786114 secs
################################################################################

timestep        1
fix             pysimm_md all nve/limit 0.1
run             2000
PPPM initialization ...
  using 12-bit tables for long-range coulomb (../kspace.cpp:332)
  G vector (1/distance) = 0.0876037
  grid = 16 16 16
  stencil order = 5
  estimated absolute RMS force accuracy = 0.0347027
  estimated relative force accuracy = 0.000104506
  using double precision KISS FFT
  3d grid and FFT values/proc = 9261 4096
Neighbor list info ...
  update every 1 steps, delay 10 steps, check yes
  max neighbors/atom: 2000, page size: 100000
  master list distance cutoff = 14
  ghost atom cutoff = 14
  binsize = 7, bins = 30 30 30
  1 neighbor lists, perpetual/occasional/extra = 1 0 0
  (1) pair lj/cut/coul/long, perpetual
      attributes: half, newton on
      pair build: half/bin/newton
      stencil: half/bin/3d/newton
      bin: standard
Per MPI rank memory allocation (min/avg/max) = 18.7 | 18.7 | 18.7 Mbytes
Step Temp E_pair E_mol TotEng Press 
       0    171.53092    416.83452    661.50211    1347.7923 -0.033187501 
    2000    128.64377    418.74339    723.11219    1343.9404    -1.189604 
Loop time of 3.48675 on 1 procs for 2000 steps with 528 atoms

Performance: 49.559 ns/day, 0.484 hours/ns, 573.600 timesteps/s
100.0% CPU use with 1 MPI tasks x no OpenMP threads

MPI task timing breakdown:
Section |  min time  |  avg time  |  max time  |%varavg| %total
---------------------------------------------------------------
Pair    | 0.8844     | 0.8844     | 0.8844     |   0.0 | 25.36
Bond    | 0.45539    | 0.45539    | 0.45539    |   0.0 | 13.06
Kspace  | 2.0987     | 2.0987     | 2.0987     |   0.0 | 60.19
Neigh   | 0.021472   | 0.021472   | 0.021472   |   0.0 |  0.62
Comm    | 0.0036383  | 0.0036383  | 0.0036383  |   0.0 |  0.10
Output  | 2.0981e-05 | 2.0981e-05 | 2.0981e-05 |   0.0 |  0.00
Modify  | 0.015985   | 0.015985   | 0.015985   |   0.0 |  0.46
Other   |            | 0.007138   |            |       |  0.20

Nlocal:    528 ave 528 max 528 min
Histogram: 1 0 0 0 0 0 0 0 0 0
Nghost:    230 ave 230 max 230 min
Histogram: 1 0 0 0 0 0 0 0 0 0
Neighs:    21085 ave 21085 max 21085 min
Histogram: 1 0 0 0 0 0 0 0 0 0

Total # of neighbors = 21085
Ave neighs/atom = 39.9337
Ave special neighs/atom = 11.5114
Neighbor list builds = 29
Dangerous builds = 0
unfix pysimm_md
min_style cg
minimize 0.001 0.001 10000 100000
WARNING: Using 'neigh_modify every 1 delay 0 check yes' setting during minimization (../min.cpp:190)
PPPM initialization ...
  using 12-bit tables for long-range coulomb (../kspace.cpp:332)
  G vector (1/distance) = 0.0876037
  grid = 16 16 16
  stencil order = 5
  estimated absolute RMS force accuracy = 0.0347027
  estimated relative force accuracy = 0.000104506
  using double precision KISS FFT
  3d grid and FFT values/proc = 9261 4096
Per MPI rank memory allocation (min/avg/max) = 19.82 | 19.82 | 19.82 Mbytes
Step Temp E_pair E_mol TotEng Press 
    2000    128.64377    418.74339    723.11219    1343.9404    -1.189604 
    2016    128.64377    412.63524    575.14978    1189.8698   0.95489201 
Loop time of 0.0674441 on 1 procs for 16 steps with 528 atoms

100.8% CPU use with 1 MPI tasks x no OpenMP threads

Minimization stats:
  Stopping criterion = energy tolerance
  Energy initial, next-to-last, final = 
         1141.85558373      988.539293335      987.785026401
  Force two-norm initial, final = 477.974 44.0532
  Force max component initial, final = 78.8675 6.88893
  Final line search alpha, max atom move = 0.00525141 0.0361766
  Iterations, force evaluations = 16 32

MPI task timing breakdown:
Section |  min time  |  avg time  |  max time  |%varavg| %total
---------------------------------------------------------------
Pair    | 0.023796   | 0.023796   | 0.023796   |   0.0 | 35.28
Bond    | 0.0081301  | 0.0081301  | 0.0081301  |   0.0 | 12.05
Kspace  | 0.035043   | 0.035043   | 0.035043   |   0.0 | 51.96
Neigh   | 0          | 0          | 0          |   0.0 |  0.00
Comm    | 5.3883e-05 | 5.3883e-05 | 5.3883e-05 |   0.0 |  0.08
Output  | 0          | 0          | 0          |   0.0 |  0.00
Modify  | 0          | 0          | 0          |   0.0 |  0.00
Other   |            | 0.0004213  |            |       |  0.62

Nlocal:    528 ave 528 max 528 min
Histogram: 1 0 0 0 0 0 0 0 0 0
Nghost:    230 ave 230 max 230 min
Histogram: 1 0 0 0 0 0 0 0 0 0
Neighs:    21056 ave 21056 max 21056 min
Histogram: 1 0 0 0 0 0 0 0 0 0

Total # of neighbors = 21056
Ave neighs/atom = 39.8788
Ave special neighs/atom = 11.5114
Neighbor list builds = 0
Dangerous builds = 0
write_dump all custom pysimm.dump.tmp id q x y z vx vy vz
quit


################################################################################
##################################    Init    ##################################
################################################################################
units           real
atom_style      full
pair_style      lj/cut/coul/long 12.0  12.0
kspace_style    pppm 1e-4
bond_style      harmonic
angle_style     harmonic
dihedral_style  fourier
improper_style  cvff
special_bonds   amber
pair_modify     mix arithmetic
read_data       temp.lmps
  orthogonal box = (-104.688 -104.688 -104.688) to (104.688 104.688 104.688)
  1 by 1 by 1 MPI processor grid
  reading atoms ...
  594 atoms
  reading velocities ...
  594 velocities
  scanning bonds ...
  3 = max bonds/atom
  scanning angles ...
  6 = max angles/atom
  scanning dihedrals ...
  24 = max dihedrals/atom
  scanning impropers ...
  2 = max impropers/atom
  reading bonds ...
  656 bonds
  reading angles ...
  1157 angles
  reading dihedrals ...
  1851 dihedrals
  reading impropers ...
  189 impropers
  4 = max # of 1-2 neighbors
  11 = max # of 1-3 neighbors
  23 = max # of 1-4 neighbors
  23 = max # of special neighbors
  special bonds CPU = 0.000629187 secs
  read_data CPU = 0.00813794 secs
################################################################################

timestep        1
fix             pysimm_md all nve/limit 0.1
run             2000
PPPM initialization ...
  using 12-bit tables for long-range coulomb (../kspace.cpp:332)
  G vector (1/distance) = 0.0956339
  grid = 18 18 18
  stencil order = 5
  estimated absolute RMS force accuracy = 0.0297805
  estimated relative force accuracy = 8.96832e-05
  using double precision KISS FFT
  3d grid and FFT values/proc = 12167 5832
Neighbor list info ...
  update every 1 steps, delay 10 steps, check yes
  max neighbors/atom: 2000, page size: 100000
  master list distance cutoff = 14
  ghost atom cutoff = 14
  binsize = 7, bins = 30 30 30
  1 neighbor lists, perpetual/occasional/extra = 1 0 0
  (1) pair lj/cut/coul/long, perpetual
      attributes: half, newton on
      pair build: half/bin/newton
      stencil: half/bin/3d/newton
      bin: standard
Per MPI rank memory allocation (min/avg/max) = 18.96 | 18.96 | 18.96 Mbytes
Step Temp E_pair E_mol TotEng Press 
       0    114.48312     465.6213    730.13868    1398.1227  -0.26066702 
    2000    90.649721    477.67404    760.61996    1398.5283   -0.6163865 
Loop time of 4.58444 on 1 procs for 2000 steps with 594 atoms

Performance: 37.693 ns/day, 0.637 hours/ns, 436.258 timesteps/s
100.0% CPU use with 1 MPI tasks x no OpenMP threads

MPI task timing breakdown:
Section |  min time  |  avg time  |  max time  |%varavg| %total
---------------------------------------------------------------
Pair    | 1.0307     | 1.0307     | 1.0307     |   0.0 | 22.48
Bond    | 0.51223    | 0.51223    | 0.51223    |   0.0 | 11.17
Kspace  | 2.9972     | 2.9972     | 2.9972     |   0.0 | 65.38
Neigh   | 0.014871   | 0.014871   | 0.014871   |   0.0 |  0.32
Comm    | 0.00366    | 0.00366    | 0.00366    |   0.0 |  0.08
Output  | 2.5988e-05 | 2.5988e-05 | 2.5988e-05 |   0.0 |  0.00
Modify  | 0.017983   | 0.017983   | 0.017983   |   0.0 |  0.39
Other   |            | 0.007817   |            |       |  0.17

Nlocal:    594 ave 594 max 594 min
Histogram: 1 0 0 0 0 0 0 0 0 0
Nghost:    235 ave 235 max 235 min
Histogram: 1 0 0 0 0 0 0 0 0 0
Neighs:    23779 ave 23779 max 23779 min
Histogram: 1 0 0 0 0 0 0 0 0 0

Total # of neighbors = 23779
Ave neighs/atom = 40.032
Ave special neighs/atom = 11.5185
Neighbor list builds = 18
Dangerous builds = 0
unfix pysimm_md
min_style cg
minimize 0.001 0.001 10000 100000
WARNING: Using 'neigh_modify every 1 delay 0 check yes' setting during minimization (../min.cpp:190)
PPPM initialization ...
  using 12-bit tables for long-range coulomb (../kspace.cpp:332)
  G vector (1/distance) = 0.0956339
  grid = 18 18 18
  stencil order = 5
  estimated absolute RMS force accuracy = 0.0297805
  estimated relative force accuracy = 8.96832e-05
  using double precision KISS FFT
  3d grid and FFT values/proc = 12167 5832
Per MPI rank memory allocation (min/avg/max) = 20.09 | 20.09 | 20.09 Mbytes
Step Temp E_pair E_mol TotEng Press 
    2000    90.649721    477.67404    760.61996    1398.5283   -0.6163865 
    2014    90.649721    468.77062    635.17151    1264.1764   0.48955913 
Loop time of 0.0741892 on 1 procs for 14 steps with 594 atoms

101.1% CPU use with 1 MPI tasks x no OpenMP threads

Minimization stats:
  Stopping criterion = energy tolerance
  Energy initial, next-to-last, final = 
         1238.29400302      1104.30184517      1103.94213978
  Force two-norm initial, final = 451.936 47.8419
  Force max component initial, final = 78.295 6.32687
  Final line search alpha, max atom move = 0.00658952 0.041691
  Iterations, force evaluations = 14 28

MPI task timing breakdown:
Section |  min time  |  avg time  |  max time  |%varavg| %total
---------------------------------------------------------------
Pair    | 0.023605   | 0.023605   | 0.023605   |   0.0 | 31.82
Bond    | 0.0079288  | 0.0079288  | 0.0079288  |   0.0 | 10.69
Kspace  | 0.042214   | 0.042214   | 0.042214   |   0.0 | 56.90
Neigh   | 0          | 0          | 0          |   0.0 |  0.00
Comm    | 4.6253e-05 | 4.6253e-05 | 4.6253e-05 |   0.0 |  0.06
Output  | 0          | 0          | 0          |   0.0 |  0.00
Modify  | 0          | 0          | 0          |   0.0 |  0.00
Other   |            | 0.0003951  |            |       |  0.53

Nlocal:    594 ave 594 max 594 min
Histogram: 1 0 0 0 0 0 0 0 0 0
Nghost:    235 ave 235 max 235 min
Histogram: 1 0 0 0 0 0 0 0 0 0
Neighs:    23783 ave 23783 max 23783 min
Histogram: 1 0 0 0 0 0 0 0 0 0

Total # of neighbors = 23783
Ave neighs/atom = 40.0387
Ave special neighs/atom = 11.5185
Neighbor list builds = 0
Dangerous builds = 0
write_dump all custom pysimm.dump.tmp id q x y z vx vy vz
quit


################################################################################
##################################    Init    ##################################
################################################################################
units           real
atom_style      full
pair_style      lj/cut/coul/long 12.0  12.0
kspace_style    pppm 1e-4
bond_style      harmonic
angle_style     harmonic
dihedral_style  fourier
improper_style  cvff
special_bonds   amber
pair_modify     mix arithmetic
read_data       temp.lmps
  orthogonal box = (-104.688 -104.688 -104.688) to (104.688 104.688 104.688)
  1 by 1 by 1 MPI processor grid
  reading atoms ...
  660 atoms
  reading velocities ...
  660 velocities
  scanning bonds ...
  3 = max bonds/atom
  scanning angles ...
  6 = max angles/atom
  scanning dihedrals ...
  24 = max dihedrals/atom
  scanning impropers ...
  2 = max impropers/atom
  reading bonds ...
  729 bonds
  reading angles ...
  1286 angles
  reading dihedrals ...
  2058 dihedrals
  reading impropers ...
  210 impropers
  4 = max # of 1-2 neighbors
  11 = max # of 1-3 neighbors
  23 = max # of 1-4 neighbors
  23 = max # of special neighbors
  special bonds CPU = 0.000609875 secs
  read_data CPU = 0.00864601 secs
################################################################################

timestep        1
fix             pysimm_md all nve/limit 0.1
run             2000
PPPM initialization ...
WARNING: System is not charge neutral, net charge = 1e-05 (../kspace.cpp:313)
  using 12-bit tables for long-range coulomb (../kspace.cpp:332)
  G vector (1/distance) = 0.0956333
  grid = 18 18 18
  stencil order = 5
  estimated absolute RMS force accuracy = 0.0313909
  estimated relative force accuracy = 9.45328e-05
  using double precision KISS FFT
  3d grid and FFT values/proc = 12167 5832
Neighbor list info ...
  update every 1 steps, delay 10 steps, check yes
  max neighbors/atom: 2000, page size: 100000
  master list distance cutoff = 14
  ghost atom cutoff = 14
  binsize = 7, bins = 30 30 30
  1 neighbor lists, perpetual/occasional/extra = 1 0 0
  (1) pair lj/cut/coul/long, perpetual
      attributes: half, newton on
      pair build: half/bin/newton
      stencil: half/bin/3d/newton
      bin: standard
Per MPI rank memory allocation (min/avg/max) = 18.97 | 18.97 | 18.97 Mbytes
Step Temp E_pair E_mol TotEng Press 
       0    81.712416    521.49225    786.60802    1468.6124   -1.0770454 
    2000    70.337457    526.47336      806.305     1470.946   -0.3463524 
Loop time of 4.76333 on 1 procs for 2000 steps with 660 atoms

Performance: 36.277 ns/day, 0.662 hours/ns, 419.875 timesteps/s
100.0% CPU use with 1 MPI tasks x no OpenMP threads

MPI task timing breakdown:
Section |  min time  |  avg time  |  max time  |%varavg| %total
---------------------------------------------------------------
Pair    | 1.1187     | 1.1187     | 1.1187     |   0.0 | 23.49
Bond    | 0.56427    | 0.56427    | 0.56427    |   0.0 | 11.85
Kspace  | 3.0336     | 3.0336     | 3.0336     |   0.0 | 63.69
Neigh   | 0.015246   | 0.015246   | 0.015246   |   0.0 |  0.32
Comm    | 0.0038452  | 0.0038452  | 0.0038452  |   0.0 |  0.08
Output  | 2.408e-05  | 2.408e-05  | 2.408e-05  |   0.0 |  0.00
Modify  | 0.019594   | 0.019594   | 0.019594   |   0.0 |  0.41
Other   |            | 0.00801    |            |       |  0.17

Nlocal:    660 ave 660 max 660 min
Histogram: 1 0 0 0 0 0 0 0 0 0
Nghost:    253 ave 253 max 253 min
Histogram: 1 0 0 0 0 0 0 0 0 0
Neighs:    26798 ave 26798 max 26798 min
Histogram: 1 0 0 0 0 0 0 0 0 0

Total # of neighbors = 26798
Ave neighs/atom = 40.603
Ave special neighs/atom = 11.5242
Neighbor list builds = 17
Dangerous builds = 0
unfix pysimm_md
min_style cg
minimize 0.001 0.001 10000 100000
WARNING: Using 'neigh_modify every 1 delay 0 check yes' setting during minimization (../min.cpp:190)
PPPM initialization ...
  using 12-bit tables for long-range coulomb (../kspace.cpp:332)
  G vector (1/distance) = 0.0956333
  grid = 18 18 18
  stencil order = 5
  estimated absolute RMS force accuracy = 0.0313909
  estimated relative force accuracy = 9.45328e-05
  using double precision KISS FFT
  3d grid and FFT values/proc = 12167 5832
Per MPI rank memory allocation (min/avg/max) = 20.1 | 20.1 | 20.1 Mbytes
Step Temp E_pair E_mol TotEng Press 
    2000    70.337457    526.47336      806.305     1470.946   -0.3463524 
    2014    70.337457    523.34695    703.70145     1365.216   0.80764657 
Loop time of 0.077939 on 1 procs for 14 steps with 660 atoms

100.1% CPU use with 1 MPI tasks x no OpenMP threads

Minimization stats:
  Stopping criterion = energy tolerance
  Energy initial, next-to-last, final = 
         1332.77836262      1228.07589075      1227.04839273
  Force two-norm initial, final = 405.86 42.3805
  Force max component initial, final = 98.4858 6.14352
  Final line search alpha, max atom move = 0.00898951 0.0552272
  Iterations, force evaluations = 14 28

MPI task timing breakdown:
Section |  min time  |  avg time  |  max time  |%varavg| %total
---------------------------------------------------------------
Pair    | 0.025156   | 0.025156   | 0.025156   |   0.0 | 32.28
Bond    | 0.0088441  | 0.0088441  | 0.0088441  |   0.0 | 11.35
Kspace  | 0.043464   | 0.043464   | 0.043464   |   0.0 | 55.77
Neigh   | 0          | 0          | 0          |   0.0 |  0.00
Comm    | 4.5776e-05 | 4.5776e-05 | 4.5776e-05 |   0.0 |  0.06
Output  | 0          | 0          | 0          |   0.0 |  0.00
Modify  | 0          | 0          | 0          |   0.0 |  0.00
Other   |            | 0.0004292  |            |       |  0.55

Nlocal:    660 ave 660 max 660 min
Histogram: 1 0 0 0 0 0 0 0 0 0
Nghost:    254 ave 254 max 254 min
Histogram: 1 0 0 0 0 0 0 0 0 0
Neighs:    26824 ave 26824 max 26824 min
Histogram: 1 0 0 0 0 0 0 0 0 0

Total # of neighbors = 26824
Ave neighs/atom = 40.6424
Ave special neighs/atom = 11.5242
Neighbor list builds = 0
Dangerous builds = 0
write_dump all custom pysimm.dump.tmp id q x y z vx vy vz
quit


################################################################################
##################################    Init    ##################################
################################################################################
units           real
atom_style      full
pair_style      lj/cut/coul/long 12.0  12.0
kspace_style    pppm 1e-4
bond_style      harmonic
angle_style     harmonic
dihedral_style  fourier
improper_style  cvff
special_bonds   amber
pair_modify     mix arithmetic
read_data       temp.lmps
  orthogonal box = (-131.899 -131.899 -131.899) to (131.899 131.899 131.899)
  1 by 1 by 1 MPI processor grid
  reading atoms ...
  726 atoms
  reading velocities ...
  726 velocities
  scanning bonds ...
  3 = max bonds/atom
  scanning angles ...
  6 = max angles/atom
  scanning dihedrals ...
  24 = max dihedrals/atom
  scanning impropers ...
  2 = max impropers/atom
  reading bonds ...
  802 bonds
  reading angles ...
  1415 angles
  reading dihedrals ...
  2265 dihedrals
  reading impropers ...
  231 impropers
  4 = max # of 1-2 neighbors
  11 = max # of 1-3 neighbors
  23 = max # of 1-4 neighbors
  23 = max # of special neighbors
  special bonds CPU = 0.000632048 secs
  read_data CPU = 0.00939608 secs
################################################################################

timestep        1
fix             pysimm_md all nve/limit 0.1
run             2000
PPPM initialization ...
WARNING: System is not charge neutral, net charge = 1.1e-05 (../kspace.cpp:313)
  using 12-bit tables for long-range coulomb (../kspace.cpp:332)
  G vector (1/distance) = 0.0802743
  grid = 18 18 18
  stencil order = 5
  estimated absolute RMS force accuracy = 0.0343516
  estimated relative force accuracy = 0.000103449
  using double precision KISS FFT
  3d grid and FFT values/proc = 12167 5832
Neighbor list info ...
  update every 1 steps, delay 10 steps, check yes
  max neighbors/atom: 2000, page size: 100000
  master list distance cutoff = 14
  ghost atom cutoff = 14
  binsize = 7, bins = 38 38 38
  1 neighbor lists, perpetual/occasional/extra = 1 0 0
  (1) pair lj/cut/coul/long, perpetual
      attributes: half, newton on
      pair build: half/bin/newton
      stencil: half/bin/3d/newton
      bin: standard
Per MPI rank memory allocation (min/avg/max) = 19.12 | 19.12 | 19.12 Mbytes
Step Temp E_pair E_mol TotEng Press 
       0    64.062879    551.34313    518476.34    519166.13   -1338.1444 
    2000    2034.4426    700.97254    2568.0172    7665.5977    3.2374503 
Loop time of 5.30188 on 1 procs for 2000 steps with 726 atoms

Performance: 32.592 ns/day, 0.736 hours/ns, 377.225 timesteps/s
100.0% CPU use with 1 MPI tasks x no OpenMP threads

MPI task timing breakdown:
Section |  min time  |  avg time  |  max time  |%varavg| %total
---------------------------------------------------------------
Pair    | 1.3512     | 1.3512     | 1.3512     |   0.0 | 25.49
Bond    | 0.63129    | 0.63129    | 0.63129    |   0.0 | 11.91
Kspace  | 3.1079     | 3.1079     | 3.1079     |   0.0 | 58.62
Neigh   | 0.18172    | 0.18172    | 0.18172    |   0.0 |  3.43
Comm    | 0.0026708  | 0.0026708  | 0.0026708  |   0.0 |  0.05
Output  | 2.5034e-05 | 2.5034e-05 | 2.5034e-05 |   0.0 |  0.00
Modify  | 0.022308   | 0.022308   | 0.022308   |   0.0 |  0.42
Other   |            | 0.004756   |            |       |  0.09

Nlocal:    726 ave 726 max 726 min
Histogram: 1 0 0 0 0 0 0 0 0 0
Nghost:    0 ave 0 max 0 min
Histogram: 1 0 0 0 0 0 0 0 0 0
Neighs:    31986 ave 31986 max 31986 min
Histogram: 1 0 0 0 0 0 0 0 0 0

Total # of neighbors = 31986
Ave neighs/atom = 44.0579
Ave special neighs/atom = 11.5289
Neighbor list builds = 176
Dangerous builds = 0
unfix pysimm_md
min_style cg
minimize 0.001 0.001 10000 100000
WARNING: Using 'neigh_modify every 1 delay 0 check yes' setting during minimization (../min.cpp:190)
PPPM initialization ...
  using 12-bit tables for long-range coulomb (../kspace.cpp:332)
  G vector (1/distance) = 0.0802743
  grid = 18 18 18
  stencil order = 5
  estimated absolute RMS force accuracy = 0.0343516
  estimated relative force accuracy = 0.000103449
  using double precision KISS FFT
  3d grid and FFT values/proc = 12167 5832
Per MPI rank memory allocation (min/avg/max) = 20.24 | 20.24 | 20.24 Mbytes
Step Temp E_pair E_mol TotEng Press 
    2000    2034.4426    700.97254    2568.0172    7665.5977    3.2374503 
    2056    2034.4426    593.42095    975.91014    5965.9391    9.8892037 
Loop time of 0.362237 on 1 procs for 56 steps with 726 atoms

99.9% CPU use with 1 MPI tasks x no OpenMP threads

Minimization stats:
  Stopping criterion = energy tolerance
  Energy initial, next-to-last, final = 
         3268.98969344      1570.71788288      1569.33109453
  Force two-norm initial, final = 1160.22 78.5379
  Force max component initial, final = 170.147 9.51522
  Final line search alpha, max atom move = 0.0025233 0.0240097
  Iterations, force evaluations = 56 112

MPI task timing breakdown:
Section |  min time  |  avg time  |  max time  |%varavg| %total
---------------------------------------------------------------
Pair    | 0.13001    | 0.13001    | 0.13001    |   0.0 | 35.89
Bond    | 0.04146    | 0.04146    | 0.04146    |   0.0 | 11.45
Kspace  | 0.18637    | 0.18637    | 0.18637    |   0.0 | 51.45
Neigh   | 0.0023589  | 0.0023589  | 0.0023589  |   0.0 |  0.65
Comm    | 6.4373e-05 | 6.4373e-05 | 6.4373e-05 |   0.0 |  0.02
Output  | 0          | 0          | 0          |   0.0 |  0.00
Modify  | 0          | 0          | 0          |   0.0 |  0.00
Other   |            | 0.001977   |            |       |  0.55

Nlocal:    726 ave 726 max 726 min
Histogram: 1 0 0 0 0 0 0 0 0 0
Nghost:    0 ave 0 max 0 min
Histogram: 1 0 0 0 0 0 0 0 0 0
Neighs:    32038 ave 32038 max 32038 min
Histogram: 1 0 0 0 0 0 0 0 0 0

Total # of neighbors = 32038
Ave neighs/atom = 44.1295
Ave special neighs/atom = 11.5289
Neighbor list builds = 2
Dangerous builds = 0
write_dump all custom pysimm.dump.tmp id q x y z vx vy vz
quit


################################################################################
##################################    Init    ##################################
################################################################################
units           real
atom_style      full
pair_style      lj/cut/coul/long 12.0  12.0
kspace_style    pppm 1e-4
bond_style      harmonic
angle_style     harmonic
dihedral_style  fourier
improper_style  cvff
special_bonds   amber
pair_modify     mix arithmetic
read_data       temp.lmps
  orthogonal box = (-136.157 -136.157 -136.157) to (136.157 136.157 136.157)
  1 by 1 by 1 MPI processor grid
  reading atoms ...
  792 atoms
  reading velocities ...
  792 velocities
  scanning bonds ...
  3 = max bonds/atom
  scanning angles ...
  6 = max angles/atom
  scanning dihedrals ...
  24 = max dihedrals/atom
  scanning impropers ...
  2 = max impropers/atom
  reading bonds ...
  875 bonds
  reading angles ...
  1544 angles
  reading dihedrals ...
  2472 dihedrals
  reading impropers ...
  252 impropers
  4 = max # of 1-2 neighbors
  11 = max # of 1-3 neighbors
  23 = max # of 1-4 neighbors
  23 = max # of special neighbors
  special bonds CPU = 0.000686169 secs
  read_data CPU = 0.0100119 secs
################################################################################

timestep        1
fix             pysimm_md all nve/limit 0.1
run             2000
PPPM initialization ...
WARNING: System is not charge neutral, net charge = 1.2e-05 (../kspace.cpp:313)
  using 12-bit tables for long-range coulomb (../kspace.cpp:332)
  G vector (1/distance) = 0.0782915
  grid = 18 18 18
  stencil order = 5
  estimated absolute RMS force accuracy = 0.0357937
  estimated relative force accuracy = 0.000107792
  using double precision KISS FFT
  3d grid and FFT values/proc = 12167 5832
Neighbor list info ...
  update every 1 steps, delay 10 steps, check yes
  max neighbors/atom: 2000, page size: 100000
  master list distance cutoff = 14
  ghost atom cutoff = 14
  binsize = 7, bins = 39 39 39
  1 neighbor lists, perpetual/occasional/extra = 1 0 0
  (1) pair lj/cut/coul/long, perpetual
      attributes: half, newton on
      pair build: half/bin/newton
      stencil: half/bin/3d/newton
      bin: standard
Per MPI rank memory allocation (min/avg/max) = 19.15 | 19.15 | 19.15 Mbytes
Step Temp E_pair E_mol TotEng Press 
       0    1864.8093    620.29318    181885.05    186902.23   -426.75871 
    2000    1706.1428    765.84158    2706.8146    7495.4352    3.1884494 
Loop time of 5.76907 on 1 procs for 2000 steps with 792 atoms

Performance: 29.953 ns/day, 0.801 hours/ns, 346.676 timesteps/s
100.0% CPU use with 1 MPI tasks x no OpenMP threads

MPI task timing breakdown:
Section |  min time  |  avg time  |  max time  |%varavg| %total
---------------------------------------------------------------
Pair    | 1.6508     | 1.6508     | 1.6508     |   0.0 | 28.61
Bond    | 0.68254    | 0.68254    | 0.68254    |   0.0 | 11.83
Kspace  | 3.1886     | 3.1886     | 3.1886     |   0.0 | 55.27
Neigh   | 0.21499    | 0.21499    | 0.21499    |   0.0 |  3.73
Comm    | 0.0028362  | 0.0028362  | 0.0028362  |   0.0 |  0.05
Output  | 2.5988e-05 | 2.5988e-05 | 2.5988e-05 |   0.0 |  0.00
Modify  | 0.024092   | 0.024092   | 0.024092   |   0.0 |  0.42
Other   |            | 0.005136   |            |       |  0.09

Nlocal:    792 ave 792 max 792 min
Histogram: 1 0 0 0 0 0 0 0 0 0
Nghost:    0 ave 0 max 0 min
Histogram: 1 0 0 0 0 0 0 0 0 0
Neighs:    38806 ave 38806 max 38806 min
Histogram: 1 0 0 0 0 0 0 0 0 0

Total # of neighbors = 38806
Ave neighs/atom = 48.9975
Ave special neighs/atom = 11.5328
Neighbor list builds = 167
Dangerous builds = 0
unfix pysimm_md
min_style cg
minimize 0.001 0.001 10000 100000
WARNING: Using 'neigh_modify every 1 delay 0 check yes' setting during minimization (../min.cpp:190)
PPPM initialization ...
  using 12-bit tables for long-range coulomb (../kspace.cpp:332)
  G vector (1/distance) = 0.0782915
  grid = 18 18 18
  stencil order = 5
  estimated absolute RMS force accuracy = 0.0357937
  estimated relative force accuracy = 0.000107792
  using double precision KISS FFT
  3d grid and FFT values/proc = 12167 5832
Per MPI rank memory allocation (min/avg/max) = 20.27 | 20.27 | 20.27 Mbytes
Step Temp E_pair E_mol TotEng Press 
    2000    1706.1428    765.84158    2706.8146    7495.4352    3.1884494 
    2037    1706.1428    652.69897    1076.9838    5752.4617    9.1709018 
Loop time of 0.249761 on 1 procs for 37 steps with 792 atoms

100.1% CPU use with 1 MPI tasks x no OpenMP threads

Minimization stats:
  Stopping criterion = energy tolerance
  Energy initial, next-to-last, final = 
         3472.65616923      1729.70566787      1729.68273546
  Force two-norm initial, final = 1405.62 86.3022
  Force max component initial, final = 149.727 8.48032
  Final line search alpha, max atom move = 0.00228365 0.0193661
  Iterations, force evaluations = 37 74

MPI task timing breakdown:
Section |  min time  |  avg time  |  max time  |%varavg| %total
---------------------------------------------------------------
Pair    | 0.098815   | 0.098815   | 0.098815   |   0.0 | 39.56
Bond    | 0.027841   | 0.027841   | 0.027841   |   0.0 | 11.15
Kspace  | 0.11914    | 0.11914    | 0.11914    |   0.0 | 47.70
Neigh   | 0.0025861  | 0.0025861  | 0.0025861  |   0.0 |  1.04
Comm    | 4.7207e-05 | 4.7207e-05 | 4.7207e-05 |   0.0 |  0.02
Output  | 0          | 0          | 0          |   0.0 |  0.00
Modify  | 0          | 0          | 0          |   0.0 |  0.00
Other   |            | 0.001334   |            |       |  0.53

Nlocal:    792 ave 792 max 792 min
Histogram: 1 0 0 0 0 0 0 0 0 0
Nghost:    0 ave 0 max 0 min
Histogram: 1 0 0 0 0 0 0 0 0 0
Neighs:    38866 ave 38866 max 38866 min
Histogram: 1 0 0 0 0 0 0 0 0 0

Total # of neighbors = 38866
Ave neighs/atom = 49.0732
Ave special neighs/atom = 11.5328
Neighbor list builds = 2
Dangerous builds = 0
write_dump all custom pysimm.dump.tmp id q x y z vx vy vz
quit


################################################################################
##################################    Init    ##################################
################################################################################
units           real
atom_style      full
pair_style      lj/cut/coul/long 12.0  12.0
kspace_style    pppm 1e-4
bond_style      harmonic
angle_style     harmonic
dihedral_style  fourier
improper_style  cvff
special_bonds   amber
pair_modify     mix arithmetic
read_data       temp.lmps
  orthogonal box = (-140.164 -140.164 -140.164) to (140.164 140.164 140.164)
  1 by 1 by 1 MPI processor grid
  reading atoms ...
  858 atoms
  reading velocities ...
  858 velocities
  scanning bonds ...
  3 = max bonds/atom
  scanning angles ...
  6 = max angles/atom
  scanning dihedrals ...
  24 = max dihedrals/atom
  scanning impropers ...
  2 = max impropers/atom
  reading bonds ...
  948 bonds
  reading angles ...
  1673 angles
  reading dihedrals ...
  2679 dihedrals
  reading impropers ...
  273 impropers
  4 = max # of 1-2 neighbors
  11 = max # of 1-3 neighbors
  23 = max # of 1-4 neighbors
  23 = max # of special neighbors
  special bonds CPU = 0.000843048 secs
  read_data CPU = 0.0105479 secs
################################################################################

timestep        1
fix             pysimm_md all nve/limit 0.1
run             2000
PPPM initialization ...
WARNING: System is not charge neutral, net charge = 1.3e-05 (../kspace.cpp:313)
  using 12-bit tables for long-range coulomb (../kspace.cpp:332)
  G vector (1/distance) = 0.0831116
  grid = 20 20 20
  stencil order = 5
  estimated absolute RMS force accuracy = 0.0318891
  estimated relative force accuracy = 9.6033e-05
  using double precision KISS FFT
  3d grid and FFT values/proc = 15625 8000
Neighbor list info ...
  update every 1 steps, delay 10 steps, check yes
  max neighbors/atom: 2000, page size: 100000
  master list distance cutoff = 14
  ghost atom cutoff = 14
  binsize = 7, bins = 41 41 41
  1 neighbor lists, perpetual/occasional/extra = 1 0 0
  (1) pair lj/cut/coul/long, perpetual
      attributes: half, newton on
      pair build: half/bin/newton
      stencil: half/bin/3d/newton
      bin: standard
Per MPI rank memory allocation (min/avg/max) = 19.52 | 19.52 | 19.52 Mbytes
Step Temp E_pair E_mol TotEng Press 
       0    1574.8568    680.06427    440889.18    445592.31   -941.94561 
    2000    1798.5737    779.57043    3103.7879    8477.9122   -2.2434299 
Loop time of 6.71821 on 1 procs for 2000 steps with 858 atoms

Performance: 25.721 ns/day, 0.933 hours/ns, 297.698 timesteps/s
100.0% CPU use with 1 MPI tasks x no OpenMP threads

MPI task timing breakdown:
Section |  min time  |  avg time  |  max time  |%varavg| %total
---------------------------------------------------------------
Pair    | 2.0755     | 2.0755     | 2.0755     |   0.0 | 30.89
Bond    | 0.73871    | 0.73871    | 0.73871    |   0.0 | 11.00
Kspace  | 3.5982     | 3.5982     | 3.5982     |   0.0 | 53.56
Neigh   | 0.27149    | 0.27149    | 0.27149    |   0.0 |  4.04
Comm    | 0.0031321  | 0.0031321  | 0.0031321  |   0.0 |  0.05
Output  | 2.2888e-05 | 2.2888e-05 | 2.2888e-05 |   0.0 |  0.00
Modify  | 0.025875   | 0.025875   | 0.025875   |   0.0 |  0.39
Other   |            | 0.005289   |            |       |  0.08

Nlocal:    858 ave 858 max 858 min
Histogram: 1 0 0 0 0 0 0 0 0 0
Nghost:    0 ave 0 max 0 min
Histogram: 1 0 0 0 0 0 0 0 0 0
Neighs:    51738 ave 51738 max 51738 min
Histogram: 1 0 0 0 0 0 0 0 0 0

Total # of neighbors = 51738
Ave neighs/atom = 60.3007
Ave special neighs/atom = 11.5361
Neighbor list builds = 173
Dangerous builds = 0
unfix pysimm_md
min_style cg
minimize 0.001 0.001 10000 100000
WARNING: Using 'neigh_modify every 1 delay 0 check yes' setting during minimization (../min.cpp:190)
PPPM initialization ...
  using 12-bit tables for long-range coulomb (../kspace.cpp:332)
  G vector (1/distance) = 0.0831116
  grid = 20 20 20
  stencil order = 5
  estimated absolute RMS force accuracy = 0.0318891
  estimated relative force accuracy = 9.6033e-05
  using double precision KISS FFT
  3d grid and FFT values/proc = 15625 8000
Per MPI rank memory allocation (min/avg/max) = 20.64 | 20.64 | 20.64 Mbytes
Step Temp E_pair E_mol TotEng Press 
    2000    1798.5737    779.57043    3103.7879    8477.9122   -2.2434299 
    2052    1798.5737     707.7156    1102.2785     6404.548    8.7816194 
Loop time of 0.409709 on 1 procs for 52 steps with 858 atoms

100.1% CPU use with 1 MPI tasks x no OpenMP threads

Minimization stats:
  Stopping criterion = energy tolerance
  Energy initial, next-to-last, final = 
         3883.35831448      1810.85268977      1809.99411475
  Force two-norm initial, final = 1459.01 70.8937
  Force max component initial, final = 148.5 8.63718
  Final line search alpha, max atom move = 0.00293553 0.0253547
  Iterations, force evaluations = 52 103

MPI task timing breakdown:
Section |  min time  |  avg time  |  max time  |%varavg| %total
---------------------------------------------------------------
Pair    | 0.1696     | 0.1696     | 0.1696     |   0.0 | 41.39
Bond    | 0.041185   | 0.041185   | 0.041185   |   0.0 | 10.05
Kspace  | 0.19373    | 0.19373    | 0.19373    |   0.0 | 47.28
Neigh   | 0.0032029  | 0.0032029  | 0.0032029  |   0.0 |  0.78
Comm    | 5.5313e-05 | 5.5313e-05 | 5.5313e-05 |   0.0 |  0.01
Output  | 0          | 0          | 0          |   0.0 |  0.00
Modify  | 0          | 0          | 0          |   0.0 |  0.00
Other   |            | 0.001944   |            |       |  0.47

Nlocal:    858 ave 858 max 858 min
Histogram: 1 0 0 0 0 0 0 0 0 0
Nghost:    0 ave 0 max 0 min
Histogram: 1 0 0 0 0 0 0 0 0 0
Neighs:    52099 ave 52099 max 52099 min
Histogram: 1 0 0 0 0 0 0 0 0 0

Total # of neighbors = 52099
Ave neighs/atom = 60.7214
Ave special neighs/atom = 11.5361
Neighbor list builds = 2
Dangerous builds = 0
write_dump all custom pysimm.dump.tmp id q x y z vx vy vz
quit


################################################################################
##################################    Init    ##################################
################################################################################
units           real
atom_style      full
pair_style      lj/cut/coul/long 12.0  12.0
kspace_style    pppm 1e-4
bond_style      harmonic
angle_style     harmonic
dihedral_style  fourier
improper_style  cvff
special_bonds   amber
pair_modify     mix arithmetic
read_data       temp.lmps
  orthogonal box = (-143.954 -143.954 -143.954) to (143.954 143.954 143.954)
  1 by 1 by 1 MPI processor grid
  reading atoms ...
  924 atoms
  reading velocities ...
  924 velocities
  scanning bonds ...
  3 = max bonds/atom
  scanning angles ...
  6 = max angles/atom
  scanning dihedrals ...
  24 = max dihedrals/atom
  scanning impropers ...
  2 = max impropers/atom
  reading bonds ...
  1021 bonds
  reading angles ...
  1802 angles
  reading dihedrals ...
  2886 dihedrals
  reading impropers ...
  294 impropers
  4 = max # of 1-2 neighbors
  11 = max # of 1-3 neighbors
  23 = max # of 1-4 neighbors
  23 = max # of special neighbors
  special bonds CPU = 0.00079608 secs
  read_data CPU = 0.0109298 secs
################################################################################

timestep        1
fix             pysimm_md all nve/limit 0.1
run             2000
PPPM initialization ...
WARNING: System is not charge neutral, net charge = 1.4e-05 (../kspace.cpp:313)
  using 12-bit tables for long-range coulomb (../kspace.cpp:332)
  G vector (1/distance) = 0.0814061
  grid = 20 20 20
  stencil order = 5
  estimated absolute RMS force accuracy = 0.0331054
  estimated relative force accuracy = 9.9696e-05
  using double precision KISS FFT
  3d grid and FFT values/proc = 15625 8000
Neighbor list info ...
  update every 1 steps, delay 10 steps, check yes
  max neighbors/atom: 2000, page size: 100000
  master list distance cutoff = 14
  ghost atom cutoff = 14
  binsize = 7, bins = 42 42 42
  1 neighbor lists, perpetual/occasional/extra = 1 0 0
  (1) pair lj/cut/coul/long, perpetual
      attributes: half, newton on
      pair build: half/bin/newton
      stencil: half/bin/3d/newton
      bin: standard
Per MPI rank memory allocation (min/avg/max) = 19.55 | 19.55 | 19.55 Mbytes
Step Temp E_pair E_mol TotEng Press 
       0     1670.066    735.13429    523714.86    529044.83   -1030.9746 
    2000    1717.9706    854.78827    3352.3533    8933.7727   -1.6142927 
Loop time of 7.07275 on 1 procs for 2000 steps with 924 atoms

Performance: 24.432 ns/day, 0.982 hours/ns, 282.775 timesteps/s
100.0% CPU use with 1 MPI tasks x no OpenMP threads

MPI task timing breakdown:
Section |  min time  |  avg time  |  max time  |%varavg| %total
---------------------------------------------------------------
Pair    | 2.0965     | 2.0965     | 2.0965     |   0.0 | 29.64
Bond    | 0.79864    | 0.79864    | 0.79864    |   0.0 | 11.29
Kspace  | 3.8462     | 3.8462     | 3.8462     |   0.0 | 54.38
Neigh   | 0.2941     | 0.2941     | 0.2941     |   0.0 |  4.16
Comm    | 0.0034368  | 0.0034368  | 0.0034368  |   0.0 |  0.05
Output  | 2.408e-05  | 2.408e-05  | 2.408e-05  |   0.0 |  0.00
Modify  | 0.028437   | 0.028437   | 0.028437   |   0.0 |  0.40
Other   |            | 0.005471   |            |       |  0.08

Nlocal:    924 ave 924 max 924 min
Histogram: 1 0 0 0 0 0 0 0 0 0
Nghost:    0 ave 0 max 0 min
Histogram: 1 0 0 0 0 0 0 0 0 0
Neighs:    46812 ave 46812 max 46812 min
Histogram: 1 0 0 0 0 0 0 0 0 0

Total # of neighbors = 46812
Ave neighs/atom = 50.6623
Ave special neighs/atom = 11.539
Neighbor list builds = 175
Dangerous builds = 0
unfix pysimm_md
min_style cg
minimize 0.001 0.001 10000 100000
WARNING: Using 'neigh_modify every 1 delay 0 check yes' setting during minimization (../min.cpp:190)
PPPM initialization ...
  using 12-bit tables for long-range coulomb (../kspace.cpp:332)
  G vector (1/distance) = 0.0814061
  grid = 20 20 20
  stencil order = 5
  estimated absolute RMS force accuracy = 0.0331054
  estimated relative force accuracy = 9.9696e-05
  using double precision KISS FFT
  3d grid and FFT values/proc = 15625 8000
Per MPI rank memory allocation (min/avg/max) = 20.68 | 20.68 | 20.68 Mbytes
Step Temp E_pair E_mol TotEng Press 
    2000    1717.9706    854.78827    3352.3533    8933.7727   -1.6142927 
    2054    1717.9706    738.43052    1173.5903    6638.6521    9.2046847 
Loop time of 0.425924 on 1 procs for 54 steps with 924 atoms

100.0% CPU use with 1 MPI tasks x no OpenMP threads

Minimization stats:
  Stopping criterion = energy tolerance
  Energy initial, next-to-last, final = 
         4207.14151895      1912.41441834      1912.02084353
  Force two-norm initial, final = 1600.35 68.4955
  Force max component initial, final = 166.671 9.779
  Final line search alpha, max atom move = 0.0029344 0.0286955
  Iterations, force evaluations = 54 107

MPI task timing breakdown:
Section |  min time  |  avg time  |  max time  |%varavg| %total
---------------------------------------------------------------
Pair    | 0.16108    | 0.16108    | 0.16108    |   0.0 | 37.82
Bond    | 0.046579   | 0.046579   | 0.046579   |   0.0 | 10.94
Kspace  | 0.21291    | 0.21291    | 0.21291    |   0.0 | 49.99
Neigh   | 0.0030971  | 0.0030971  | 0.0030971  |   0.0 |  0.73
Comm    | 6.1512e-05 | 6.1512e-05 | 6.1512e-05 |   0.0 |  0.01
Output  | 0          | 0          | 0          |   0.0 |  0.00
Modify  | 0          | 0          | 0          |   0.0 |  0.00
Other   |            | 0.002203   |            |       |  0.52

Nlocal:    924 ave 924 max 924 min
Histogram: 1 0 0 0 0 0 0 0 0 0
Nghost:    0 ave 0 max 0 min
Histogram: 1 0 0 0 0 0 0 0 0 0
Neighs:    46862 ave 46862 max 46862 min
Histogram: 1 0 0 0 0 0 0 0 0 0

Total # of neighbors = 46862
Ave neighs/atom = 50.7165
Ave special neighs/atom = 11.539
Neighbor list builds = 2
Dangerous builds = 0
write_dump all custom pysimm.dump.tmp id q x y z vx vy vz
quit


################################################################################
##################################    Init    ##################################
################################################################################
units           real
atom_style      full
pair_style      lj/cut/coul/long 12.0  12.0
kspace_style    pppm 1e-4
bond_style      harmonic
angle_style     harmonic
dihedral_style  fourier
improper_style  cvff
special_bonds   amber
pair_modify     mix arithmetic
read_data       temp.lmps
  orthogonal box = (-147.554 -147.554 -147.554) to (147.554 147.554 147.554)
  1 by 1 by 1 MPI processor grid
  reading atoms ...
  990 atoms
  reading velocities ...
  990 velocities
  scanning bonds ...
  3 = max bonds/atom
  scanning angles ...
  6 = max angles/atom
  scanning dihedrals ...
  24 = max dihedrals/atom
  scanning impropers ...
  2 = max impropers/atom
  reading bonds ...
  1094 bonds
  reading angles ...
  1931 angles
  reading dihedrals ...
  3093 dihedrals
  reading impropers ...
  315 impropers
  4 = max # of 1-2 neighbors
  11 = max # of 1-3 neighbors
  23 = max # of 1-4 neighbors
  23 = max # of special neighbors
  special bonds CPU = 0.000839949 secs
  read_data CPU = 0.011574 secs
################################################################################

timestep        1
fix             pysimm_md all nve/limit 0.1
run             2000
PPPM initialization ...
WARNING: System is not charge neutral, net charge = 1.5e-05 (../kspace.cpp:313)
  using 12-bit tables for long-range coulomb (../kspace.cpp:332)
  G vector (1/distance) = 0.0798473
  grid = 20 20 20
  stencil order = 5
  estimated absolute RMS force accuracy = 0.0342379
  estimated relative force accuracy = 0.000103107
  using double precision KISS FFT
  3d grid and FFT values/proc = 15625 8000
Neighbor list info ...
  update every 1 steps, delay 10 steps, check yes
  max neighbors/atom: 2000, page size: 100000
  master list distance cutoff = 14
  ghost atom cutoff = 14
  binsize = 7, bins = 43 43 43
  1 neighbor lists, perpetual/occasional/extra = 1 0 0
  (1) pair lj/cut/coul/long, perpetual
      attributes: half, newton on
      pair build: half/bin/newton
      stencil: half/bin/3d/newton
      bin: standard
Per MPI rank memory allocation (min/avg/max) = 19.59 | 19.59 | 19.59 Mbytes
Step Temp E_pair E_mol TotEng Press 
       0    1603.4177    764.59395    462770.44    468261.94   -845.64746 
[...]
  using double precision KISS FFT
  3d grid and FFT values/proc = 42875 27000
Per MPI rank memory allocation (min/avg/max) = 24.79 | 24.79 | 24.79 Mbytes
Step Temp E_pair E_mol TotEng Press 
    2000    365.44145    2589.6884    5695.5118    11663.155   0.10222513 
    2029    365.44145    2513.4027     3621.856    9513.2137    2.0405565 
Loop time of 0.920205 on 1 procs for 29 steps with 3102 atoms

100.0% CPU use with 1 MPI tasks x no OpenMP threads

Minimization stats:
  Stopping criterion = energy tolerance
  Energy initial, next-to-last, final = 
         8285.20017598      6140.85620402      6135.25860939
  Force two-norm initial, final = 1638.72 100.708
  Force max component initial, final = 183.906 11.3479
  Final line search alpha, max atom move = 0.00215372 0.0244403
  Iterations, force evaluations = 29 58

MPI task timing breakdown:
Section |  min time  |  avg time  |  max time  |%varavg| %total
---------------------------------------------------------------
Pair    | 0.35532    | 0.35532    | 0.35532    |   0.0 | 38.61
Bond    | 0.095214   | 0.095214   | 0.095214   |   0.0 | 10.35
Kspace  | 0.45865    | 0.45865    | 0.45865    |   0.0 | 49.84
Neigh   | 0.0062859  | 0.0062859  | 0.0062859  |   0.0 |  0.68
Comm    | 0.0001123  | 0.0001123  | 0.0001123  |   0.0 |  0.01
Output  | 0          | 0          | 0          |   0.0 |  0.00
Modify  | 0          | 0          | 0          |   0.0 |  0.00
Other   |            | 0.004622   |            |       |  0.50

Nlocal:    3102 ave 3102 max 3102 min
Histogram: 1 0 0 0 0 0 0 0 0 0
Nghost:    0 ave 0 max 0 min
Histogram: 1 0 0 0 0 0 0 0 0 0
Neighs:    169342 ave 169342 max 169342 min
Histogram: 1 0 0 0 0 0 0 0 0 0

Total # of neighbors = 169342
Ave neighs/atom = 54.5912
Ave special neighs/atom = 11.5648
Neighbor list builds = 1
Dangerous builds = 0
write_dump all custom pysimm.dump.tmp id q x y z vx vy vz
quit


################################################################################
##################################    Init    ##################################
################################################################################
units           real
atom_style      full
pair_style      lj/cut/coul/long 12.0  12.0
kspace_style    pppm 1e-4
bond_style      harmonic
angle_style     harmonic
dihedral_style  fourier
improper_style  cvff
special_bonds   amber
pair_modify     mix arithmetic
read_data       temp.lmps
  orthogonal box = (-220.94 -220.94 -220.94) to (220.94 220.94 220.94)
  1 by 1 by 1 MPI processor grid
  reading atoms ...
  3168 atoms
  reading velocities ...
  3168 velocities
  scanning bonds ...
  3 = max bonds/atom
  scanning angles ...
  6 = max angles/atom
  scanning dihedrals ...
  24 = max dihedrals/atom
  scanning impropers ...
  2 = max impropers/atom
  reading bonds ...
  3503 bonds
  reading angles ...
  6188 angles
  reading dihedrals ...
  9924 dihedrals
  reading impropers ...
  1008 impropers
  4 = max # of 1-2 neighbors
  11 = max # of 1-3 neighbors
  23 = max # of 1-4 neighbors
  23 = max # of special neighbors
  special bonds CPU = 0.0025351 secs
  read_data CPU = 0.0318499 secs
################################################################################

timestep        1
fix             pysimm_md all nve/limit 0.1
run             2000
PPPM initialization ...
WARNING: System is not charge neutral, net charge = 4.8e-05 (../kspace.cpp:313)
  using 12-bit tables for long-range coulomb (../kspace.cpp:332)
  G vector (1/distance) = 0.0799583
  grid = 30 30 30
  stencil order = 5
  estimated absolute RMS force accuracy = 0.0333419
  estimated relative force accuracy = 0.000100408
  using double precision KISS FFT
  3d grid and FFT values/proc = 42875 27000
Neighbor list info ...
  update every 1 steps, delay 10 steps, check yes
  max neighbors/atom: 2000, page size: 100000
  master list distance cutoff = 14
  ghost atom cutoff = 14
  binsize = 7, bins = 64 64 64
  1 neighbor lists, perpetual/occasional/extra = 1 0 0
  (1) pair lj/cut/coul/long, perpetual
      attributes: half, newton on
      pair build: half/bin/newton
      stencil: half/bin/3d/newton
      bin: standard
Per MPI rank memory allocation (min/avg/max) = 23.72 | 23.72 | 23.72 Mbytes
Step Temp E_pair E_mol TotEng Press 
       0    357.85513    2540.1938    565015.81    570934.24   -306.33989 
    2000    446.07243    2692.9781    5528.5015    12432.504   0.60661504 
Loop time of 27.2983 on 1 procs for 2000 steps with 3168 atoms

Performance: 6.330 ns/day, 3.791 hours/ns, 73.265 timesteps/s
100.0% CPU use with 1 MPI tasks x no OpenMP threads

MPI task timing breakdown:
Section |  min time  |  avg time  |  max time  |%varavg| %total
---------------------------------------------------------------
Pair    | 7.8006     | 7.8006     | 7.8006     |   0.0 | 28.58
Bond    | 3.0176     | 3.0176     | 3.0176     |   0.0 | 11.05
Kspace  | 15.24      | 15.24      | 15.24      |   0.0 | 55.83
Neigh   | 1.1072     | 1.1072     | 1.1072     |   0.0 |  4.06
Comm    | 0.011159   | 0.011159   | 0.011159   |   0.0 |  0.04
Output  | 3.8147e-05 | 3.8147e-05 | 3.8147e-05 |   0.0 |  0.00
Modify  | 0.10386    | 0.10386    | 0.10386    |   0.0 |  0.38
Other   |            | 0.01794    |            |       |  0.07

Nlocal:    3168 ave 3168 max 3168 min
Histogram: 1 0 0 0 0 0 0 0 0 0
Nghost:    0 ave 0 max 0 min
Histogram: 1 0 0 0 0 0 0 0 0 0
Neighs:    169576 ave 169576 max 169576 min
Histogram: 1 0 0 0 0 0 0 0 0 0

Total # of neighbors = 169576
Ave neighs/atom = 53.5278
Ave special neighs/atom = 11.565
Neighbor list builds = 175
Dangerous builds = 0
unfix pysimm_md
min_style cg
minimize 0.001 0.001 10000 100000
WARNING: Using 'neigh_modify every 1 delay 0 check yes' setting during minimization (../min.cpp:190)
PPPM initialization ...
  using 12-bit tables for long-range coulomb (../kspace.cpp:332)
  G vector (1/distance) = 0.0799583
  grid = 30 30 30
  stencil order = 5
  estimated absolute RMS force accuracy = 0.0333419
  estimated relative force accuracy = 0.000100408
  using double precision KISS FFT
  3d grid and FFT values/proc = 42875 27000
Per MPI rank memory allocation (min/avg/max) = 24.85 | 24.85 | 24.85 Mbytes
Step Temp E_pair E_mol TotEng Press 
    2000    446.07243    2692.9781    5528.5015    12432.504   0.60661504 
    2026    446.07243    2584.2187    3669.5395    10464.782    2.1407759 
Loop time of 0.805077 on 1 procs for 26 steps with 3168 atoms

100.1% CPU use with 1 MPI tasks x no OpenMP threads

Minimization stats:
  Stopping criterion = energy tolerance
  Energy initial, next-to-last, final = 
         8221.47956117      6259.89551228      6253.75817537
  Force two-norm initial, final = 1533.45 126.598
  Force max component initial, final = 148.074 14.8528
  Final line search alpha, max atom move = 0.00196471 0.0291815
  Iterations, force evaluations = 26 52

MPI task timing breakdown:
Section |  min time  |  avg time  |  max time  |%varavg| %total
---------------------------------------------------------------
Pair    | 0.31419    | 0.31419    | 0.31419    |   0.0 | 39.03
Bond    | 0.086729   | 0.086729   | 0.086729   |   0.0 | 10.77
Kspace  | 0.39385    | 0.39385    | 0.39385    |   0.0 | 48.92
Neigh   | 0.0061579  | 0.0061579  | 0.0061579  |   0.0 |  0.76
Comm    | 9.5129e-05 | 9.5129e-05 | 9.5129e-05 |   0.0 |  0.01
Output  | 0          | 0          | 0          |   0.0 |  0.00
Modify  | 0          | 0          | 0          |   0.0 |  0.00
Other   |            | 0.004048   |            |       |  0.50

Nlocal:    3168 ave 3168 max 3168 min
Histogram: 1 0 0 0 0 0 0 0 0 0
Nghost:    0 ave 0 max 0 min
Histogram: 1 0 0 0 0 0 0 0 0 0
Neighs:    169602 ave 169602 max 169602 min
Histogram: 1 0 0 0 0 0 0 0 0 0

Total # of neighbors = 169602
Ave neighs/atom = 53.536
Ave special neighs/atom = 11.565
Neighbor list builds = 1
Dangerous builds = 0
write_dump all custom pysimm.dump.tmp id q x y z vx vy vz
quit


################################################################################
##################################    Init    ##################################
################################################################################
units           real
atom_style      full
pair_style      lj/cut/coul/long 12.0  12.0
kspace_style    pppm 1e-4
bond_style      harmonic
angle_style     harmonic
dihedral_style  fourier
improper_style  cvff
special_bonds   amber
pair_modify     mix arithmetic
read_data       temp.lmps
  orthogonal box = (-222.496 -222.496 -222.496) to (222.496 222.496 222.496)
  1 by 1 by 1 MPI processor grid
  reading atoms ...
  3234 atoms
  reading velocities ...
  3234 velocities
  scanning bonds ...
  3 = max bonds/atom
  scanning angles ...
  6 = max angles/atom
  scanning dihedrals ...
  24 = max dihedrals/atom
  scanning impropers ...
  2 = max impropers/atom
  reading bonds ...
  3576 bonds
  reading angles ...
  6317 angles
  reading dihedrals ...
  10131 dihedrals
  reading impropers ...
  1029 impropers
  4 = max # of 1-2 neighbors
  11 = max # of 1-3 neighbors
  23 = max # of 1-4 neighbors
  23 = max # of special neighbors
  special bonds CPU = 0.00253391 secs
  read_data CPU = 0.0321848 secs
################################################################################

timestep        1
fix             pysimm_md all nve/limit 0.1
run             2000
PPPM initialization ...
WARNING: System is not charge neutral, net charge = 4.9e-05 (../kspace.cpp:313)
  using 12-bit tables for long-range coulomb (../kspace.cpp:332)
  G vector (1/distance) = 0.0795186
  grid = 30 30 30
  stencil order = 5
  estimated absolute RMS force accuracy = 0.0336729
  estimated relative force accuracy = 0.000101405
  using double precision KISS FFT
  3d grid and FFT values/proc = 42875 27000
Neighbor list info ...
  update every 1 steps, delay 10 steps, check yes
  max neighbors/atom: 2000, page size: 100000
  master list distance cutoff = 14
  ghost atom cutoff = 14
  binsize = 7, bins = 64 64 64
  1 neighbor lists, perpetual/occasional/extra = 1 0 0
  (1) pair lj/cut/coul/long, perpetual
      attributes: half, newton on
      pair build: half/bin/newton
      stencil: half/bin/3d/newton
      bin: standard
Per MPI rank memory allocation (min/avg/max) = 23.73 | 23.73 | 23.73 Mbytes
Step Temp E_pair E_mol TotEng Press 
       0    436.99496    2614.0679    348853.52    355678.89   -185.27734 
    2000    476.25304    2672.3972    6008.6371    13270.665    1.0648496 
Loop time of 28.5591 on 1 procs for 2000 steps with 3234 atoms

Performance: 6.051 ns/day, 3.967 hours/ns, 70.030 timesteps/s
100.1% CPU use with 1 MPI tasks x no OpenMP threads

MPI task timing breakdown:
Section |  min time  |  avg time  |  max time  |%varavg| %total
---------------------------------------------------------------
Pair    | 8.814      | 8.814      | 8.814      |   0.0 | 30.86
Bond    | 3.0677     | 3.0677     | 3.0677     |   0.0 | 10.74
Kspace  | 15.322     | 15.322     | 15.322     |   0.0 | 53.65
Neigh   | 1.2179     | 1.2179     | 1.2179     |   0.0 |  4.26
Comm    | 0.011265   | 0.011265   | 0.011265   |   0.0 |  0.04
Output  | 3.5048e-05 | 3.5048e-05 | 3.5048e-05 |   0.0 |  0.00
Modify  | 0.10789    | 0.10789    | 0.10789    |   0.0 |  0.38
Other   |            | 0.01841    |            |       |  0.06

Nlocal:    3234 ave 3234 max 3234 min
Histogram: 1 0 0 0 0 0 0 0 0 0
Nghost:    0 ave 0 max 0 min
Histogram: 1 0 0 0 0 0 0 0 0 0
Neighs:    200645 ave 200645 max 200645 min
Histogram: 1 0 0 0 0 0 0 0 0 0

Total # of neighbors = 200645
Ave neighs/atom = 62.0424
Ave special neighs/atom = 11.5652
Neighbor list builds = 170
Dangerous builds = 0
unfix pysimm_md
min_style cg
minimize 0.001 0.001 10000 100000
WARNING: Using 'neigh_modify every 1 delay 0 check yes' setting during minimization (../min.cpp:190)
PPPM initialization ...
  using 12-bit tables for long-range coulomb (../kspace.cpp:332)
  G vector (1/distance) = 0.0795186
  grid = 30 30 30
  stencil order = 5
  estimated absolute RMS force accuracy = 0.0336729
  estimated relative force accuracy = 0.000101405
  using double precision KISS FFT
  3d grid and FFT values/proc = 42875 27000
Per MPI rank memory allocation (min/avg/max) = 25.24 | 25.24 | 25.24 Mbytes
Step Temp E_pair E_mol TotEng Press 
    2000    476.25304    2672.3972    6008.6371    13270.665    1.0648496 
    2028    476.25304    2589.0583    3808.5406     10987.23    2.5004928 
Loop time of 0.937951 on 1 procs for 28 steps with 3234 atoms

100.1% CPU use with 1 MPI tasks x no OpenMP threads

Minimization stats:
  Stopping criterion = energy tolerance
  Energy initial, next-to-last, final = 
         8681.03425179       6403.0633772      6397.59887117
  Force two-norm initial, final = 1634.81 117.302
  Force max component initial, final = 159.934 11.6298
  Final line search alpha, max atom move = 0.00223818 0.0260296
  Iterations, force evaluations = 28 56

MPI task timing breakdown:
Section |  min time  |  avg time  |  max time  |%varavg| %total
---------------------------------------------------------------
Pair    | 0.39648    | 0.39648    | 0.39648    |   0.0 | 42.27
Bond    | 0.095024   | 0.095024   | 0.095024   |   0.0 | 10.13
Kspace  | 0.4347     | 0.4347     | 0.4347     |   0.0 | 46.35
Neigh   | 0.0071402  | 0.0071402  | 0.0071402  |   0.0 |  0.76
Comm    | 0.0001061  | 0.0001061  | 0.0001061  |   0.0 |  0.01
Output  | 0          | 0          | 0          |   0.0 |  0.00
Modify  | 0          | 0          | 0          |   0.0 |  0.00
Other   |            | 0.004499   |            |       |  0.48

Nlocal:    3234 ave 3234 max 3234 min
Histogram: 1 0 0 0 0 0 0 0 0 0
Nghost:    0 ave 0 max 0 min
Histogram: 1 0 0 0 0 0 0 0 0 0
Neighs:    200542 ave 200542 max 200542 min
Histogram: 1 0 0 0 0 0 0 0 0 0

Total # of neighbors = 200542
Ave neighs/atom = 62.0105
Ave special neighs/atom = 11.5652
Neighbor list builds = 1
Dangerous builds = 0
write_dump all custom pysimm.dump.tmp id q x y z vx vy vz
quit


################################################################################
##################################    Init    ##################################
################################################################################
units           real
atom_style      full
pair_style      lj/cut/coul/long 12.0  12.0
kspace_style    pppm 1e-4
bond_style      harmonic
angle_style     harmonic
dihedral_style  fourier
improper_style  cvff
special_bonds   amber
pair_modify     mix arithmetic
read_data       temp.lmps
  orthogonal box = (-224.03 -224.03 -224.03) to (224.03 224.03 224.03)
  1 by 1 by 1 MPI processor grid
  reading atoms ...
  3300 atoms
  reading velocities ...
  3300 velocities
  scanning bonds ...
  3 = max bonds/atom
  scanning angles ...
  6 = max angles/atom
  scanning dihedrals ...
  24 = max dihedrals/atom
  scanning impropers ...
  2 = max impropers/atom
  reading bonds ...
  3649 bonds
  reading angles ...
  6446 angles
  reading dihedrals ...
  10338 dihedrals
  reading impropers ...
  1050 impropers
  4 = max # of 1-2 neighbors
  11 = max # of 1-3 neighbors
  23 = max # of 1-4 neighbors
  23 = max # of special neighbors
  special bonds CPU = 0.00259709 secs
  read_data CPU = 0.0331199 secs
################################################################################

timestep        1
fix             pysimm_md all nve/limit 0.1
run             2000
PPPM initialization ...
WARNING: System is not charge neutral, net charge = 5e-05 (../kspace.cpp:313)
  using 12-bit tables for long-range coulomb (../kspace.cpp:332)
  G vector (1/distance) = 0.0790896
  grid = 30 30 30
  stencil order = 5
  estimated absolute RMS force accuracy = 0.0339974
  estimated relative force accuracy = 0.000102382
  using double precision KISS FFT
  3d grid and FFT values/proc = 42875 27000
Neighbor list info ...
  update every 1 steps, delay 10 steps, check yes
  max neighbors/atom: 2000, page size: 100000
  master list distance cutoff = 14
  ghost atom cutoff = 14
  binsize = 7, bins = 65 65 65
  1 neighbor lists, perpetual/occasional/extra = 1 0 0
  (1) pair lj/cut/coul/long, perpetual
      attributes: half, newton on
      pair build: half/bin/newton
      stencil: half/bin/3d/newton
      bin: standard
Per MPI rank memory allocation (min/avg/max) = 24.18 | 24.18 | 24.18 Mbytes
Step Temp E_pair E_mol TotEng Press 
       0    466.75336     2615.543    354672.21    361877.67   -184.04892 
    2000    440.67755    2795.7268    6485.8446    13615.059   0.48129517 
Loop time of 30.1035 on 1 procs for 2000 steps with 3300 atoms

Performance: 5.740 ns/day, 4.181 hours/ns, 66.438 timesteps/s
100.0% CPU use with 1 MPI tasks x no OpenMP threads

MPI task timing breakdown:
Section |  min time  |  avg time  |  max time  |%varavg| %total
---------------------------------------------------------------
Pair    | 9.9024     | 9.9024     | 9.9024     |   0.0 | 32.89
Bond    | 3.1575     | 3.1575     | 3.1575     |   0.0 | 10.49
Kspace  | 15.594     | 15.594     | 15.594     |   0.0 | 51.80
Neigh   | 1.3083     | 1.3083     | 1.3083     |   0.0 |  4.35
Comm    | 0.011922   | 0.011922   | 0.011922   |   0.0 |  0.04
Output  | 3.6955e-05 | 3.6955e-05 | 3.6955e-05 |   0.0 |  0.00
Modify  | 0.10989    | 0.10989    | 0.10989    |   0.0 |  0.37
Other   |            | 0.01956    |            |       |  0.06

Nlocal:    3300 ave 3300 max 3300 min
Histogram: 1 0 0 0 0 0 0 0 0 0
Nghost:    0 ave 0 max 0 min
Histogram: 1 0 0 0 0 0 0 0 0 0
Neighs:    216991 ave 216991 max 216991 min
Histogram: 1 0 0 0 0 0 0 0 0 0

Total # of neighbors = 216991
Ave neighs/atom = 65.7548
Ave special neighs/atom = 11.5655
Neighbor list builds = 168
Dangerous builds = 0
unfix pysimm_md
min_style cg
minimize 0.001 0.001 10000 100000
WARNING: Using 'neigh_modify every 1 delay 0 check yes' setting during minimization (../min.cpp:190)
PPPM initialization ...
  using 12-bit tables for long-range coulomb (../kspace.cpp:332)
  G vector (1/distance) = 0.0790896
  grid = 30 30 30
  stencil order = 5
  estimated absolute RMS force accuracy = 0.0339974
  estimated relative force accuracy = 0.000102382
  using double precision KISS FFT
  3d grid and FFT values/proc = 42875 27000
Per MPI rank memory allocation (min/avg/max) = 25.3 | 25.3 | 25.3 Mbytes
Step Temp E_pair E_mol TotEng Press 
    2000    440.67755    2795.7268    6485.8446    13615.059   0.48129517 
    2029    440.67755    2650.2667    3952.4569    10936.211    2.4428997 
Loop time of 1.03024 on 1 procs for 29 steps with 3300 atoms

100.1% CPU use with 1 MPI tasks x no OpenMP threads

Minimization stats:
  Stopping criterion = energy tolerance
  Energy initial, next-to-last, final = 
          9281.5714123      6608.72984282      6602.72360273
  Force two-norm initial, final = 1799.58 122.374
  Force max component initial, final = 200.37 13.2042
  Final line search alpha, max atom move = 0.001668 0.0220247
  Iterations, force evaluations = 29 57

MPI task timing breakdown:
Section |  min time  |  avg time  |  max time  |%varavg| %total
---------------------------------------------------------------
Pair    | 0.4579     | 0.4579     | 0.4579     |   0.0 | 44.45
Bond    | 0.099443   | 0.099443   | 0.099443   |   0.0 |  9.65
Kspace  | 0.4604     | 0.4604     | 0.4604     |   0.0 | 44.69
Neigh   | 0.0075362  | 0.0075362  | 0.0075362  |   0.0 |  0.73
Comm    | 0.00010276 | 0.00010276 | 0.00010276 |   0.0 |  0.01
Output  | 0          | 0          | 0          |   0.0 |  0.00
Modify  | 0          | 0          | 0          |   0.0 |  0.00
Other   |            | 0.00486    |            |       |  0.47

Nlocal:    3300 ave 3300 max 3300 min
Histogram: 1 0 0 0 0 0 0 0 0 0
Nghost:    0 ave 0 max 0 min
Histogram: 1 0 0 0 0 0 0 0 0 0
Neighs:    216598 ave 216598 max 216598 min
Histogram: 1 0 0 0 0 0 0 0 0 0

Total # of neighbors = 216598
Ave neighs/atom = 65.6358
Ave special neighs/atom = 11.5655
Neighbor list builds = 1
Dangerous builds = 0
write_dump all custom pysimm.dump.tmp id q x y z vx vy vz
quit
