pySIMM System Object

1831 atoms
1985 bonds
3534 angles
5142 dihedrals
496 impropers

9 atom types
11 bond types
18 angle types
7 dihedral types
4 improper types

-192.487171 192.487171 xlo xhi
-192.487171 192.487171 ylo yhi
-192.487171 192.487171 zlo zhi

Masses

   1	12.01	# ca
   2	16.0	# o
   3	12.01	# c
   4	14.01	# n
   5	12.01	# c3
   6	19.0	# f
   7	1.008	# ha
   8	1.008	# hn
   9	1.008	# hc

Pair Coeffs

   1	0.086	3.3996695084235347	# ca
   2	0.21	2.959921901149463	# o
   3	0.086	3.3996695084235347	# c
   4	0.17	3.249998523775958	# n
   5	0.1094	3.3996695084235347	# c3
   6	0.061	3.1181455134911875	# f
   7	0.015	2.59964245953351	# ha
   8	0.0157	1.069078461768407	# hn
   9	0.0157	2.649532787749369	# hc

Bond Coeffs

   1	321.0	1.5156	# c3,ca
   2	300.9	1.5375	# c3,c3
   3	345.8	1.086	# ca,ha
   4	384.2	1.4121	# ca,n
   5	637.7	1.2183	# c,o
   6	330.6	1.0969	# c3,hc
   7	356.9	1.3497	# c3,f
   8	403.2	1.0129	# hn,n
   9	461.1	1.3984	# ca,ca
  10	427.6	1.3789	# c,n
  11	345.9	1.4906	# c,ca

Angle Coeffs

   1	70.89	107.36	# f,c3,f
   2	63.82	123.71	# c,n,ca
   3	68.72	122.6	# ca,c,o
   4	48.18	119.88	# ca,ca,ha
   5	67.87	120.19	# ca,ca,n
   6	67.68	115.25	# ca,c,n
   7	46.8	110.47	# ca,c3,hc
   8	48.33	117.55	# c,n,hn
   9	39.4	107.58	# hc,c3,hc
  10	74.22	123.05	# n,c,o
  11	62.86	111.51	# c3,c3,c3
  12	64.28	120.33	# c,ca,ca
  13	63.56	112.24	# ca,c3,ca
  14	63.15	112.07	# c3,c3,ca
  15	66.11	109.24	# c3,c3,f
  16	66.62	120.02	# ca,ca,ca
  17	63.74	127.08	# c,n,c
  18	63.53	120.77	# c3,ca,ca

Dihedral Coeffs

   1	2	2.5	2	180	2.0	1	0	# hn,n,c,o
   2	1	3.625	2	180	# X,ca,ca,X
   3	1	1.0	2	180	# X,c,ca,X
   4	1	0.0	2	0	# X,c3,ca,X
   5	1	0.15555555555555556	3	0	# X,c3,c3,X
   6	1	2.5	2	180	# X,c,n,X
   7	1	0.45	2	180	# X,ca,n,X

Improper Coeffs

   1	10.5	-1	2	# c,X,X,o
   2	1.1	-1	2	# n,X,X,hn
   3	1.1	-1	2	# ca,ca,ca,c3
   4	1.1	-1	2	# ca,X,X,ha

Atoms

   1	1	1	-0.024347	66.6055	-69.6382	-36.9506
   2	1	1	-0.071478	66.5075	-70.8161	-37.7414
   3	1	1	-0.180016	66.0778	-70.6855	-39.0925
   4	1	2	-0.370097	66.5268	-66.7622	-35.7694
   5	1	1	0.010306	66.2488	-68.4098	-37.5186
   6	1	1	-0.071748	65.7301	-69.4371	-39.6466
   7	1	2	-0.403598	65.1075	-66.4382	-40.1797
   8	1	1	0.055994	65.8227	-68.3109	-38.8273
   9	1	3	0.021521	66.2279	-67.0518	-36.9157
  10	1	4	0.466017	65.7779	-66.2111	-37.9334
  11	1	3	0.096621	65.514	-66.8897	-39.1212
  12	1	1	-0.099438	63.3173	-73.6613	-37.8449
  13	1	5	-0.089685	66.8755	-72.2337	-37.2075
  14	1	1	-0.037281	65.7464	-73.222	-37.6255
  15	1	1	-0.08188	64.3884	-72.8055	-37.5195
  16	1	1	-0.106561	63.6224	-74.9576	-38.2679
  17	1	1	-0.037628	66.0086	-74.5536	-38.0463
  18	1	1	-0.12234	64.9289	-75.3891	-38.3622
  19	1	5	0.388954	66.9639	-72.3148	-35.6355
  20	1	5	0.307788	68.2836	-72.5862	-37.8257
  21	1	6	-0.129718	65.8589	-71.8023	-35.0474
  22	1	6	-0.129089	68.0304	-71.656	-35.1289
  23	1	6	-0.119089	67.0581	-73.593	-35.2029
  24	1	6	-0.103894	69.1594	-71.5664	-37.6735
  25	1	6	-0.097852	68.205	-72.822	-39.155
  26	1	6	-0.104555	68.863	-73.6715	-37.2655
  27	1	3	0.521254	64.9138	-76.8139	-38.7884
  28	1	3	0.53569	62.7272	-76.0886	-38.6312
  29	1	4	0.027822	63.57	-77.1603	-38.917
  30	1	2	-0.468874	65.8926	-77.519	-38.964
  31	1	2	-0.477974	61.5079	-76.0646	-38.638
  32	1	1	-0.359831	63.1088	-78.4744	-39.263
  33	1	1	0.131035	62.6756	-79.3509	-38.2384
  34	1	1	-0.120983	62.2128	-80.6415	-38.5804
  35	1	1	0.127261	63.0975	-78.881	-40.6191
  36	1	1	-0.127195	62.6618	-80.1847	-40.9465
  37	1	1	0.144798	62.2201	-81.0408	-39.9259
  38	1	5	-0.020676	63.5702	-77.9171	-41.7119
  39	1	5	-0.019785	62.6993	-78.8884	-36.7775
  40	1	7	0.164889	66.9415	-69.6443	-35.9191
  41	1	7	0.175264	66.0068	-71.5674	-39.726
  42	1	7	0.1582	65.3962	-69.3429	-40.6778
  43	1	7	0.150763	62.2827	-73.3345	-37.754
  44	1	7	0.144868	64.1543	-71.8038	-37.1685
  45	1	7	0.134072	67.0136	-74.9576	-38.1162
  46	1	5	-0.300668	61.702	-81.6303	-37.5314
  47	1	5	-0.243237	62.6547	-80.7054	-42.3838
  48	1	9	0.021835	64.6645	-77.927	-41.7889
  49	1	9	0.012312	63.2566	-76.8859	-41.5093
  50	1	9	0.041777	63.1653	-78.1642	-42.6992
  51	1	9	0.110598	61.9034	-80.184	-42.9902
  52	1	9	0.08293	63.6343	-80.5724	-42.8599
  53	1	9	0.082252	62.4201	-81.7765	-42.4275
  54	1	9	0.027698	61.8377	-78.2444	-36.5623
  55	1	9	0.017051	63.6093	-78.321	-36.5477
  56	1	9	0.037874	62.677	-79.7193	-36.0646
  57	1	9	0.095908	62.5105	-81.95	-36.862
  58	1	9	0.127068	60.9048	-81.1868	-36.9214
  59	1	9	0.099095	61.2871	-82.5356	-37.9923
  60	1	1	-0.024347	63.5202	-52.3839	-37.8118
  61	1	1	-0.071478	64.3014	-53.57	-37.8821
  62	1	1	-0.180016	64.9829	-53.8542	-39.0996
  63	1	2	-0.370097	61.9661	-49.7422	-38.3227
  64	1	1	0.010306	63.4256	-51.5668	-38.9442
  65	1	1	-0.071748	64.877	-53.0145	-40.2273
  66	1	2	-0.403598	64.1716	-50.7817	-42.2759
  67	1	1	0.055994	64.0808	-51.8728	-40.1193
  68	1	3	0.021521	62.6663	-50.3064	-39.1466
  69	1	4	0.466017	62.9221	-49.9359	-40.4667
  70	1	3	0.096621	63.7699	-50.8253	-41.1243
  71	1	1	-0.099438	63.0201	-57.5762	-38.6411
  72	1	5	-0.089685	64.4693	-54.5507	-36.6811
  73	1	1	-0.037281	64.287	-56.0065	-37.2038
  74	1	1	-0.08188	63.2559	-56.2779	-38.1479
  75	1	1	-0.106561	63.8226	-58.6136	-38.1595
  76	1	1	-0.037628	65.0654	-57.0959	-36.7276
  77	1	1	-0.12234	64.81	-58.3803	-37.2256
  78	1	5	0.388954	63.3865	-54.3585	-35.5516
  79	1	5	0.307788	65.902	-54.2725	-36.0824
  80	1	6	-0.129718	62.1332	-54.3524	-36.0602
  81	1	6	-0.129089	63.5435	-53.2101	-34.8554
  82	1	6	-0.119089	63.4183	-55.3649	-34.6484
  83	1	6	-0.103894	66.107	-54.8548	-34.8797
  84	1	6	-0.097852	66.1155	-52.9485	-35.905
  85	1	6	-0.104555	66.8827	-54.7078	-36.9057
  86	1	3	0.521254	65.4502	-59.6827	-36.8952
  87	1	3	0.53569	63.8014	-60.0683	-38.4652
  88	1	4	0.027822	64.7949	-60.6378	-37.6712
  89	1	2	-0.468874	66.3691	-59.8506	-36.1119
  90	1	2	-0.477974	63.0456	-60.6264	-39.243
  91	1	1	-0.359831	65.0925	-62.0433	-37.6614
  92	1	1	0.131035	64.1857	-62.9403	-37.0494
  93	1	1	-0.120983	64.4001	-64.3347	-37.1559
  94	1	1	0.127261	66.2607	-62.5202	-38.3008
  95	1	1	-0.127195	66.5298	-63.909	-38.3173
  96	1	1	0.144798	65.5759	-64.8096	-37.7857
  97	1	5	-0.020676	67.229	-61.542	-38.9791
  98	1	5	-0.019785	62.9604	-62.406	-36.2966
  99	1	7	0.164889	62.9852	-52.0801	-36.9183
 100	1	7	0.175264	65.6031	-54.7449	-39.1778
 101	1	7	0.1582	65.3936	-53.2401	-41.1578
 102	1	7	0.150763	62.2308	-57.773	-39.3642
 103	1	7	0.144868	62.62	-55.4713	-38.5041
 104	1	7	0.134072	65.8439	-56.9758	-35.9814
 105	1	5	-0.300668	63.3689	-65.3278	-36.59
 106	1	5	-0.243237	67.8283	-64.4468	-38.9417
 107	1	9	0.021835	66.7467	-60.611	-39.2965
 108	1	9	0.012312	67.6663	-61.9661	-39.8907
 109	1	9	0.041777	68.0493	-61.2778	-38.3003
 110	1	9	0.110598	67.7026	-64.623	-40.0186
 111	1	9	0.08293	68.6679	-63.7534	-38.81
 112	1	9	0.082252	68.1627	-65.3859	-38.4845
 113	1	9	0.027698	62.0753	-62.404	-36.9447
 114	1	9	0.017051	63.1019	-61.3864	-35.9204
 115	1	9	0.037874	62.7329	-63.0125	-35.4121
 116	1	9	0.095908	63.3425	-66.2801	-37.132
 117	1	9	0.127068	63.5809	-65.5506	-35.535
 118	1	9	0.099095	62.3443	-64.941	-36.651
 119	1	1	-0.024347	57.4364	-38.6798	-46.7519
 120	1	1	-0.071478	57.8874	-39.4027	-45.6145
 121	1	1	-0.180016	58.9396	-38.8417	-44.836
 122	1	2	-0.370097	57.0043	-36.72	-49.1155
 123	1	1	0.010306	58.0513	-37.4649	-47.0689
 124	1	1	-0.071748	59.5371	-37.6077	-45.1675
 125	1	2	-0.403598	60.4081	-34.9338	-46.5103
 126	1	1	0.055994	59.0669	-36.9374	-46.2984
 127	1	3	0.021521	57.8113	-36.5559	-48.2161
 128	1	4	0.466017	58.7263	-35.5181	-48.0522
 129	1	3	0.096621	59.5133	-35.6602	-46.9111
 130	1	1	-0.099438	60.5733	-42.7416	-45.6132
 131	1	5	-0.089685	57.2605	-40.7583	-45.1674
 132	1	1	-0.037281	58.4108	-41.7706	-44.8927
 133	1	1	-0.08188	59.5285	-41.8092	-45.7745
 134	1	1	-0.106561	60.479	-43.6537	-44.5583
 135	1	1	-0.037628	58.3516	-42.7245	-43.842
 136	1	1	-0.12234	59.3978	-43.645	-43.7023
 137	1	5	0.388954	56.3502	-41.4277	-46.2673
 138	1	5	0.307788	56.3847	-40.4378	-43.894
 139	1	6	-0.129718	56.9944	-41.5311	-47.4522
 140	1	6	-0.129089	55.2019	-40.7488	-46.4893
 141	1	6	-0.119089	55.995	-42.6882	-45.9283
 142	1	6	-0.103894	55.5995	-39.3546	-44.0949
 143	1	6	-0.097852	57.1492	-40.1575	-42.8143
 144	1	6	-0.104555	55.5563	-41.4448	-43.5377
 145	1	3	0.521254	59.5697	-44.7562	-42.7292
 146	1	3	0.53569	61.3824	-44.767	-44.1595
 147	1	4	0.027822	60.7693	-45.3792	-43.0681
 148	1	2	-0.468874	58.7926	-45.0545	-41.8387
 149	1	2	-0.477974	62.4359	-45.0637	-44.6969
 150	1	1	-0.359831	61.2993	-46.5282	-42.3888
 151	1	1	0.131035	60.7631	-47.8084	-42.6608
 152	1	1	-0.120983	61.2618	-48.9373	-41.9686
 153	1	1	0.127261	62.3554	-46.368	-41.4622
 154	1	1	-0.127195	62.9239	-47.5077	-40.8458
 155	1	1	0.144798	62.3628	-48.7845	-41.0914
 156	1	5	-0.020676	62.8943	-44.9673	-41.1438
 157	1	5	-0.019785	59.6427	-47.9734	-43.6962
 158	1	7	0.164889	56.6369	-39.0265	-47.3977
 159	1	7	0.175264	59.3034	-39.3699	-43.9573
 160	1	7	0.1582	60.344	-37.1854	-44.5723
 161	1	7	0.150763	61.4186	-42.7691	-46.2983
 162	1	7	0.144868	59.5838	-41.1175	-46.6113
 163	1	7	0.134072	57.5149	-42.7841	-43.1538
 164	1	5	-0.300668	60.6343	-50.3265	-42.1813
 165	1	5	-0.243237	64.1301	-47.3621	-39.9025
 166	1	9	0.021835	63.7601	-44.7314	-41.7749
 167	1	9	0.012312	63.2029	-44.8762	-40.0957
 168	1	9	0.041777	62.1474	-44.1801	-41.2938
 169	1	9	0.110598	63.799	-47.1566	-38.8753
 170	1	9	0.08293	64.766	-48.2544	-39.874
 171	1	9	0.082252	64.7978	-46.5477	-40.2093
 172	1	9	0.027698	59.7446	-48.9085	-44.2594
 173	1	9	0.017051	59.6371	-47.1805	-44.4525
 174	1	9	0.037874	58.6605	-47.9753	-43.2078
 175	1	9	0.095908	60.707	-50.9687	-41.2953
 176	1	9	0.127068	59.5605	-50.2681	-42.3986
 177	1	9	0.099095	61.1176	-50.8502	-43.0172
 178	1	1	-0.024347	58.72	-25.83	-55.5364
 179	1	1	-0.071478	59.2448	-26.3609	-56.7431
 180	1	1	-0.180016	59.7594	-25.4521	-57.7121
 181	1	2	-0.370097	57.8191	-24.1048	-53.1279
 182	1	1	0.010306	58.7644	-24.4513	-55.323
 183	1	1	-0.071748	59.7854	-24.0599	-57.4783
 184	1	2	-0.403598	59.5525	-21.1805	-56.2941
 185	1	1	0.055994	59.2831	-23.5864	-56.2635
 186	1	3	0.021521	58.317	-23.664	-54.1505
 187	1	4	0.466017	58.6051	-22.3402	-54.475
 188	1	3	0.096621	59.1861	-22.2011	-55.7345
 189	1	1	-0.099438	61.118	-28.7285	-53.7009
 190	1	5	-0.089685	59.1877	-27.8992	-56.9674
 191	1	1	-0.037281	59.5502	-28.5835	-55.6148
 192	1	1	-0.08188	60.7251	-28.1611	-54.9291
 193	1	1	-0.106561	60.3091	-29.7286	-53.1562
 194	1	1	-0.037628	58.7665	-29.6145	-55.0302
 195	1	1	-0.12234	59.1664	-30.1536	-53.8013
 196	1	5	0.388954	60.2272	-28.4314	-58.0298
 197	1	5	0.307788	57.7275	-28.2159	-57.4697
 198	1	6	-0.129718	61.468	-27.9381	-57.8159
 199	1	6	-0.129089	59.9031	-28.1248	-59.306
 200	1	6	-0.119089	60.3411	-29.7782	-57.977
 201	1	6	-0.103894	57.3856	-27.4495	-58.5305
 202	1	6	-0.097852	56.8021	-27.9588	-56.5173
 203	1	6	-0.104555	57.5676	-29.5025	-57.8538
 204	1	3	0.521254	58.5505	-31.2347	-52.9872
 205	1	3	0.53569	60.4705	-30.5288	-51.9129
 206	1	4	0.027822	59.3924	-31.41	-51.8917
 207	1	2	-0.468874	57.5385	-31.8549	-53.2655
 208	1	2	-0.477974	61.4001	-30.4574	-51.1266
 209	1	1	-0.359831	59.2211	-32.4389	-50.9087
 210	1	1	0.131035	59.9464	-33.6443	-51.0449
 211	1	1	-0.120983	59.8182	-34.6515	-50.0616
 212	1	1	0.127261	58.3332	-32.2423	-49.8265
 213	1	1	-0.127195	58.1377	-33.2822	-48.8873
 214	1	1	0.144798	58.8969	-34.4726	-49.0009
 215	1	5	-0.020676	57.5716	-30.9183	-49.6814
 216	1	5	-0.019785	60.8776	-33.857	-52.2469
 217	1	7	0.164889	58.2873	-26.4672	-54.7687
 218	1	7	0.175264	60.1411	-25.8059	-58.6642
 219	1	7	0.1582	60.1818	-23.366	-58.2166
 220	1	7	0.150763	62.0228	-28.4046	-53.1901
 221	1	7	0.144868	61.3468	-27.3762	-55.3525
 222	1	7	0.134072	57.8681	-30.0068	-55.4952
 223	1	5	-0.300668	60.6517	-35.9423	-50.1615
 224	1	5	-0.243237	57.1222	-33.1126	-47.7446
 225	1	9	0.021835	56.5611	-31.0038	-50.1
 226	1	9	0.012312	58.0677	-30.0794	-50.1822
 227	1	9	0.041777	57.4787	-30.6181	-48.631
 228	1	9	0.110598	56.2349	-32.553	-48.067
 229	1	9	0.08293	56.7336	-34.0633	-47.362
 230	1	9	0.082252	57.5706	-32.5728	-46.9003
 231	1	9	0.027698	61.9116	-33.6002	-51.9858
 232	1	9	0.017051	60.5984	-33.2596	-53.1217
 233	1	9	0.037874	60.862	-34.8967	-52.5936
 234	1	9	0.095908	60.1481	-36.684	-50.7957
 235	1	9	0.127068	61.6461	-35.7573	-50.5868
 236	1	9	0.099095	60.8495	-36.4114	-49.1914
 237	1	1	-0.024347	55.6264	-11.9403	-45.5855
 238	1	1	-0.071478	55.8574	-12.5382	-46.8546
 239	1	1	-0.180016	54.7821	-12.5724	-47.7873
 240	1	2	-0.370097	54.4923	-10.5299	-43.0597
 241	1	1	0.010306	54.3536	-11.4334	-45.2975
 242	1	1	-0.071748	53.5102	-12.0488	-47.4791
 243	1	2	-0.403598	51.0409	-10.6932	-46.1647
 244	1	1	0.055994	53.3254	-11.4834	-46.2163
 245	1	3	0.021521	53.8543	-10.7537	-44.0747
 246	1	4	0.466017	52.5293	-10.4203	-44.3585
 247	1	3	0.096621	52.1276	-10.8345	-45.6272
 248	1	1	-0.099438	55.8238	-16.6797	-47.8979
 249	1	5	-0.089685	57.2401	-13.116	-47.2849
 250	1	1	-0.037281	57.0017	-14.5016	-47.9534
 251	1	1	-0.08188	56.0701	-15.4009	-47.3608
 252	1	1	-0.106561	56.5381	-17.0575	-49.0377
 253	1	1	-0.037628	57.7193	-14.9359	-49.1004
 254	1	1	-0.12234	57.4614	-16.2122	-49.6169
 255	1	5	0.388954	58.222	-13.3781	-46.0797
 256	1	5	0.307788	57.882	-12.0494	-48.2544
 257	1	6	-0.129718	57.6294	-14.1001	-45.1016
 258	1	6	-0.129089	58.6848	-12.2408	-45.5135
 259	1	6	-0.119089	59.3075	-14.0886	-46.463
 260	1	6	-0.103894	57.8205	-10.8039	-47.7302
 261	1	6	-0.097852	57.2342	-11.9924	-49.4401
 262	1	6	-0.104555	59.1855	-12.2834	-48.5264
 263	1	3	0.521254	58.0706	-16.9184	-50.7763
 264	1	3	0.53569	56.5196	-18.3294	-49.8073
 265	1	4	0.027822	57.4616	-18.1707	-50.8206
 266	1	2	-0.468874	58.9378	-16.4776	-51.511
 267	1	2	-0.477974	55.8195	-19.2999	-49.5727
 268	1	1	-0.359831	57.779	-19.1908	-51.7777
 269	1	1	0.131035	58.9355	-19.9835	-51.5939
 270	1	1	-0.120983	59.2491	-20.9889	-52.5378
 271	1	1	0.127261	56.9138	-19.4112	-52.8738
 272	1	1	-0.127195	57.1687	-20.4847	-53.7586
 273	1	1	0.144798	58.3449	-21.2549	-53.5938
 274	1	5	-0.020676	55.6922	-18.5082	-53.0859
 275	1	5	-0.019785	59.8448	-19.7593	-50.3783
 276	1	7	0.164889	56.3961	-11.849	-44.8264
 277	1	7	0.175264	54.9338	-13.0062	-48.7735
 278	1	7	0.1582	52.6945	-12.0693	-48.1988
 279	1	7	0.150763	55.1113	-17.3607	-47.4362
 280	1	7	0.144868	55.5297	-15.1089	-46.4636
 281	1	7	0.134072	58.4699	-14.3226	-49.588
 282	1	5	-0.300668	60.5398	-21.8163	-52.4021
 283	1	5	-0.243237	56.1836	-20.8145	-54.8932
 284	1	9	0.021835	55.8212	-17.5092	-52.6545
 285	1	9	0.012312	54.7954	-18.9531	-52.6373
 286	1	9	0.041777	55.4928	-18.3404	-54.1508
 287	1	9	0.110598	55.1466	-20.5764	-54.6259
 288	1	9	0.08293	56.4334	-20.2528	-55.8031
 289	1	9	0.082252	56.1696	-21.88	-55.1518
 290	1	9	0.027698	59.322	-19.3088	-49.5276
 291	1	9	0.017051	60.6858	-19.1043	-50.6374
 292	1	9	0.037874	60.2535	-20.7028	-49.9981
 293	1	9	0.095908	60.9303	-22.1616	-53.367
 294	1	9	0.127068	61.359	-21.2368	-51.9582
 295	1	9	0.099095	60.3733	-22.7004	-51.7719
 296	1	1	-0.024347	44.0812	-2.7555	-36.2866
 297	1	1	-0.071478	44.6102	-4.03369	-36.6145
 298	1	1	-0.180016	43.7033	-5.04558	-37.0408
 299	1	2	-0.370097	42.3664	-0.19743	-35.9184
 300	1	1	0.010306	42.7064	-2.53708	-36.4205
 301	1	1	-0.071748	42.3177	-4.80791	-37.1525
 302	1	2	-0.403598	39.4705	-3.55663	-37.2936
 303	1	1	0.055994	41.8463	-3.53277	-36.8358
 304	1	3	0.021521	41.926	-1.28781	-36.2415
 305	1	4	0.466017	40.6178	-1.62749	-36.581
 306	1	3	0.096621	40.4758	-2.969	-36.9287
 307	1	1	-0.099438	46.4399	-4.93814	-40.3666
 308	1	5	-0.089685	46.1306	-4.37372	-36.5355
 309	1	1	-0.037281	46.5663	-4.99739	-37.8935
 310	1	1	-0.08188	46.0302	-4.46973	-39.103
 311	1	1	-0.106561	47.414	-5.93856	-40.4077
 312	1	1	-0.037628	47.5591	-6.00989	-37.984
 313	1	1	-0.12234	47.9579	-6.45677	-39.251
 314	1	5	0.388954	46.3071	-5.34945	-35.3066
 315	1	5	0.307788	47.0509	-3.11022	-36.3297
 316	1	6	-0.129718	47.5926	-5.52038	-34.926
 317	1	6	-0.129089	45.813	-6.58112	-35.5661
 318	1	6	-0.119089	45.6469	-4.89328	-34.2175
 319	1	6	-0.103894	46.8943	-2.53736	-35.1149
 320	1	6	-0.097852	46.8119	-2.15982	-37.2623
 321	1	6	-0.104555	48.3633	-3.41537	-36.4481
 322	1	3	0.521254	49.0039	-7.44342	-39.6357
 323	1	3	0.53569	48.0884	-6.57465	-41.5697
 324	1	4	0.027822	49.0328	-7.44478	-41.0295
 325	1	2	-0.468874	49.6946	-8.09145	-38.8684
 326	1	2	-0.477974	47.8734	-6.32979	-42.7449
 327	1	1	-0.359831	49.9484	-8.21522	-41.8234
 328	1	1	0.131035	49.7268	-9.59911	-42.0116
 329	1	1	-0.120983	50.6299	-10.351	-42.8002
 330	1	1	0.127261	51.047	-7.56876	-42.4369
 331	1	1	-0.127195	51.8872	-8.29617	-43.3117
 332	1	1	0.144798	51.6839	-9.68814	-43.4752
 333	1	5	-0.020676	51.3138	-6.0807	-42.1739
 334	1	5	-0.019785	48.5153	-10.2851	-41.3671
 335	1	7	0.164889	44.6956	-1.92495	-35.9562
 336	1	7	0.175264	44.0777	-6.0319	-37.306
 337	1	7	0.1582	41.6313	-5.57967	-37.4944
 338	1	7	0.150763	46.0356	-4.51724	-41.2852
 339	1	7	0.144868	45.3006	-3.66492	-39.0702
 340	1	7	0.134072	48.046	-6.42815	-37.109
 341	1	5	-0.300668	50.4503	-11.8709	-42.9561
 342	1	5	-0.243237	53.0178	-7.58632	-44.0774
 343	1	9	0.021835	50.8679	-5.45977	-42.9607
 344	1	9	0.012312	52.3875	-5.86111	-42.1349
 345	1	9	0.041777	50.9155	-5.73949	-41.2121
 346	1	9	0.110598	53.9525	-7.60562	-43.5003
 347	1	9	0.08293	53.2204	-8.03837	-45.0554
 348	1	9	0.082252	52.7811	-6.5383	-44.2964
 349	1	9	0.027698	48.0794	-11.0415	-42.0305
 350	1	9	0.017051	47.6975	-9.59287	-41.1388
 351	1	9	0.037874	48.8036	-10.7794	-40.4312
 352	1	9	0.095908	50.0295	-12.3329	-42.0546
 353	1	9	0.127068	49.7788	-12.1007	-43.795
 354	1	9	0.099095	51.3967	-12.3971	-43.1294
 355	1	1	-0.024347	31.4144	6.5153	-35.524
 356	1	1	-0.071478	31.6628	7.32986	-36.6605
 357	1	1	-0.180016	30.5943	8.12328	-37.1689
 358	1	2	-0.370097	30.243	4.96893	-33.0931
 359	1	1	0.010306	30.1326	6.49483	-34.9666
 360	1	1	-0.071748	29.3101	8.09231	-36.5863
 361	1	2	-0.403598	26.8005	7.56328	-34.8231
 362	1	1	0.055994	29.1082	7.26102	-35.4828
 363	1	3	0.021521	29.6152	5.74426	-33.7946
 364	1	4	0.466017	28.2807	6.13067	-33.6818
 365	1	3	0.096621	27.8914	7.03984	-34.6628
 366	1	1	-0.099438	33.1672	3.53143	-37.9327
 367	1	5	-0.089685	33.0974	7.35612	-37.2646
 368	1	1	-0.037281	33.6172	5.88957	-37.3197
 369	1	1	-0.08188	32.758	4.87593	-37.8326
 370	1	1	-0.106561	34.4604	3.21034	-37.5123
 371	1	1	-0.037628	34.9276	5.51917	-36.9163
 372	1	1	-0.12234	35.311	4.17659	-37.0168
 373	1	5	0.388954	33.9514	8.29921	-36.3324
 374	1	5	0.307788	33.1594	7.89781	-38.745
 375	1	6	-0.129718	34.1385	7.75559	-35.1082
 376	1	6	-0.129089	33.3343	9.48472	-36.1242
 377	1	6	-0.119089	35.1734	8.58512	-36.8358
 378	1	6	-0.103894	32.9566	9.23143	-38.8392
 379	1	6	-0.097852	32.2423	7.30047	-39.5396
 380	1	6	-0.104555	34.3628	7.65372	-39.3124
 381	1	3	0.521254	36.6053	3.52647	-36.6822
 382	1	3	0.53569	35.1831	1.91022	-37.5207
 383	1	4	0.027822	36.4524	2.18353	-37.0174
 384	1	2	-0.468874	37.597	4.08416	-36.2445
 385	1	2	-0.477974	34.7427	0.844166	-37.9166
 386	1	1	-0.359831	37.4977	1.20937	-36.9044
 387	1	1	0.131035	38.3616	0.989933	-38.0015
 388	1	1	-0.120983	39.3764	0.0105809	-37.9046
 389	1	1	0.127261	37.6579	0.491885	-35.697
 390	1	1	-0.127195	38.7246	-0.428626	-35.5681
 391	1	1	0.144798	39.5638	-0.677849	-36.681
 392	1	5	-0.020676	36.6936	0.729946	-34.5273
 393	1	5	-0.019785	38.1971	1.79442	-39.2984
 394	1	7	0.164889	32.1962	5.90821	-35.0735
 395	1	7	0.175264	30.7396	8.78614	-38.0155
 396	1	7	0.1582	28.4951	8.70138	-36.9716
 397	1	7	0.150763	32.5051	2.76523	-38.3315
 398	1	7	0.144868	31.7552	5.13302	-38.1649
 399	1	7	0.134072	35.6507	6.23448	-36.5383
 400	1	5	-0.300668	40.2909	-0.281224	-39.1092
 401	1	5	-0.243237	38.9618	-1.16005	-34.2364
 402	1	9	0.021835	35.6993	1.05357	-34.8545
 403	1	9	0.012312	37.0868	1.49706	-33.8488
 404	1	9	0.041777	36.5223	-0.182556	-33.9448
 405	1	9	0.110598	38.7618	-0.509979	-33.3749
 406	1	9	0.08293	38.31	-2.03961	-34.1521
 407	1	9	0.082252	39.9956	-1.49877	-34.1029
 408	1	9	0.027698	37.6541	2.73569	-39.1655
 409	1	9	0.017051	37.6585	1.20762	-40.0527
 410	1	9	0.037874	39.1692	2.07784	-39.7192
 411	1	9	0.095908	40.6682	-1.30983	-39.1306
 412	1	9	0.127068	39.7681	-0.157963	-40.0657
 413	1	9	0.099095	41.1577	0.39322	-39.1122
 414	1	1	-0.024347	18.6371	2.93199	-24.173
 415	1	1	-0.071478	19.2423	2.5814	-25.4092
 416	1	1	-0.180016	19.8251	1.28671	-25.5269
 417	1	2	-0.370097	17.7779	3.21093	-21.2216
 418	1	1	0.010306	18.689	2.02273	-23.1142
 419	1	1	-0.071748	19.8539	0.379076	-24.4474
 420	1	2	-0.403598	19.7828	-0.957394	-21.6336
 421	1	1	0.055994	19.2854	0.784935	-23.2389
 422	1	3	0.021521	18.2859	2.21146	-21.7019
 423	1	4	0.466017	18.7078	1.05526	-21.0503
 424	1	3	0.096621	19.2906	0.125029	-21.9079
 425	1	1	-0.099438	23.2252	3.70549	-26.4014
 426	1	5	-0.089685	19.3422	3.56678	-26.6144
 427	1	1	-0.037281	20.8338	3.65204	-27.0515
 428	1	1	-0.08188	21.8622	3.58264	-26.067
 429	1	1	-0.106561	23.551	3.92997	-27.741
 430	1	1	-0.037628	21.2109	3.90029	-28.3973
 431	1	1	-0.12234	22.5705	4.03591	-28.7051
 432	1	5	0.388954	18.9131	5.04268	-26.2615
 433	1	5	0.307788	18.3884	3.0006	-27.7377
 434	1	6	-0.129718	17.5951	5.15204	-25.9806
 435	1	6	-0.129089	19.1674	5.90356	-27.2734
 436	1	6	-0.119089	19.6004	5.51976	-25.1981
 437	1	6	-0.103894	17.1897	2.63801	-27.2264
 438	1	6	-0.097852	18.9041	1.89914	-28.3282
 439	1	6	-0.104555	18.1246	3.88149	-28.7282
 440	1	3	0.521254	23.2282	4.36948	-29.9952
 441	1	3	0.53569	24.8706	4.1736	-28.3833
 442	1	4	0.027822	24.5925	4.45227	-29.7203
 443	1	2	-0.468874	22.6632	4.55328	-31.0601
 444	1	2	-0.477974	25.9518	4.17751	-27.8191
 445	1	1	-0.359831	25.5765	4.84694	-30.6893
 446	1	1	0.131035	25.9044	3.97295	-31.7519
 447	1	1	-0.120983	26.7794	4.41084	-32.7737
 448	1	1	0.127261	26.176	6.12536	-30.5935
 449	1	1	-0.127195	27.1377	6.51928	-31.5519
 450	1	1	0.144798	27.4036	5.67645	-32.6576
 451	1	5	-0.020676	25.7847	7.08864	-29.4641
 452	1	5	-0.019785	25.2948	2.56663	-31.8087
 453	1	7	0.164889	18.1749	3.89537	-23.9872
 454	1	7	0.175264	20.3039	0.991109	-26.4575
 455	1	7	0.1582	20.3399	-0.590901	-24.5295
 456	1	7	0.150763	24.0017	3.65967	-25.6402
 457	1	7	0.144868	21.6084	3.45002	-25.019
 458	1	7	0.134072	20.482	4.02425	-29.1916
 459	1	5	-0.300668	27.0527	3.51893	-33.9974
 460	1	5	-0.243237	27.8625	7.86982	-31.4175
 461	1	9	0.021835	26.489	7.01132	-28.6264
 462	1	9	0.012312	24.7779	6.90593	-29.0723
 463	1	9	0.041777	25.7762	8.13087	-29.8034
 464	1	9	0.110598	27.2768	8.67731	-31.8777
 465	1	9	0.08293	28.0385	8.13853	-30.3684
 466	1	9	0.082252	28.857	7.87135	-31.8795
 467	1	9	0.027698	25.0407	2.17778	-30.816
 468	1	9	0.017051	25.9903	1.83572	-32.2377
 469	1	9	0.037874	24.3809	2.56278	-32.4156
 470	1	9	0.095908	27.8589	2.80365	-33.7865
 471	1	9	0.127068	26.1644	2.94558	-34.2918
 472	1	9	0.099095	27.3355	4.0831	-34.8936
 473	1	1	-0.024347	15.2854	3.88892	-9.74779
 474	1	1	-0.071478	15.9254	2.62154	-9.76334
 475	1	1	-0.180016	15.1122	1.46628	-9.94956
 476	1	2	-0.370097	13.3764	6.30229	-9.92103
 477	1	1	0.010306	13.9005	3.95011	-9.9144
 478	1	1	-0.071748	13.7088	1.55073	-10.0804
 479	1	2	-0.403598	10.7347	2.49819	-10.3017
 480	1	1	0.055994	13.1248	2.81908	-10.0561
 481	1	3	0.021521	13.0204	5.13701	-9.97914
 482	1	4	0.466017	11.7323	4.6273	-10.1332
 483	1	3	0.096621	11.7016	3.23376	-10.1824
 484	1	1	-0.099438	19.5938	0.151595	-11.9499
 485	1	5	-0.089685	17.4683	2.449	-9.60269
 486	1	1	-0.037281	17.9948	1.6866	-10.8488
 487	1	1	-0.08188	19.0704	0.754611	-10.7866
 488	1	1	-0.106561	19.03	0.498836	-13.1817
 489	1	1	-0.037628	17.4574	2.01025	-12.1206
 490	1	1	-0.12234	17.9903	1.40075	-13.2591
 491	1	5	0.388954	17.7048	1.686	-8.23883
 492	1	5	0.307788	18.2594	3.81433	-9.56827
 493	1	6	-0.129718	17.3571	0.381751	-8.31577
 494	1	6	-0.129089	16.9642	2.22205	-7.24208
 495	1	6	-0.119089	18.9873	1.71052	-7.81222
 496	1	6	-0.103894	18.0033	4.57765	-10.6554
 497	1	6	-0.097852	19.5988	3.6256	-9.57467
 498	1	6	-0.104555	17.9739	4.55501	-8.47346
 499	1	3	0.521254	17.6631	1.61619	-14.6902
 500	1	3	0.53569	19.4064	0.104313	-14.5669
 501	1	4	0.027822	18.5575	0.825179	-15.4045
 502	1	2	-0.468874	16.807	2.36655	-15.1265
 503	1	2	-0.477974	20.3185	-0.641796	-14.8806
 504	1	1	-0.359831	18.631	0.820716	-16.8353
 505	1	1	0.131035	19.6496	1.56018	-17.4787
 506	1	1	-0.120983	19.7145	1.56935	-18.8899
 507	1	1	0.127261	17.6533	0.12401	-17.5811
 508	1	1	-0.127195	17.6556	0.216342	-18.9919
 509	1	1	0.144798	18.6956	0.928077	-19.6357
 510	1	5	-0.020676	16.5752	-0.694393	-16.8597
 511	1	5	-0.019785	20.6717	2.35899	-16.6577
 512	1	7	0.164889	15.8172	4.82531	-9.62171
 513	1	7	0.175264	15.5708	0.481824	-9.99545
 514	1	7	0.1582	13.0927	0.663335	-10.2087
 515	1	7	0.150763	20.4324	-0.540544	-11.8992
 516	1	7	0.144868	19.5391	0.506302	-9.84096
 517	1	7	0.134072	16.6685	2.75002	-12.2361
 518	1	5	-0.300668	20.8557	2.30814	-19.6137
 519	1	5	-0.243237	16.5398	-0.448411	-19.8144
 520	1	9	0.021835	15.6767	-0.0884209	-16.6887
 521	1	9	0.012312	16.9128	-1.07315	-15.888
 522	1	9	0.041777	16.2822	-1.58158	-17.4327
 523	1	9	0.110598	15.5639	-0.360732	-19.3198
 524	1	9	0.08293	16.4007	-0.000667226	-20.8051
 525	1	9	0.082252	16.7479	-1.51652	-19.9609
 526	1	9	0.027698	20.305	2.63818	-15.6641
 527	1	9	0.017051	20.9309	3.30708	-17.144
 528	1	9	0.037874	21.5953	1.78283	-16.5225
 529	1	9	0.095908	21.1242	1.84722	-20.5716
 530	1	9	0.127068	20.5834	3.355	-19.807
 531	1	9	0.099095	21.7861	2.30646	-19.033
 532	1	1	-0.024347	6.54832	14.2207	-7.98297
 533	1	1	-0.071478	5.5206	14.6709	-8.8538
 534	1	1	-0.180016	4.5524	15.5709	-8.33278
 535	1	2	-0.370097	8.60576	13.7897	-5.69447
 536	1	1	0.010306	6.57083	14.6733	-6.65963
 537	1	1	-0.071748	4.5705	15.9911	-6.98635
 538	1	2	-0.403598	5.27701	16.5488	-3.99791
 539	1	1	0.055994	5.59911	15.5204	-6.1666
 540	1	3	0.021521	7.58555	14.4518	-5.59803
 541	1	4	0.466017	7.14764	15.2151	-4.51702
 542	1	3	0.096621	5.92952	15.8497	-4.7563
 543	1	1	-0.099438	4.83591	10.5023	-9.35275
 544	1	5	-0.089685	5.5209	14.1908	-10.3352
 545	1	1	-0.037281	5.65726	12.643	-10.2928
 546	1	1	-0.08188	4.74562	11.9012	-9.48841
 547	1	1	-0.106561	5.87246	9.84912	-10.0228
 548	1	1	-0.037628	6.67929	11.935	-10.9765
 549	1	1	-0.12234	6.76787	10.5496	-10.8036
 550	1	5	0.388954	6.71977	14.9309	-11.0521
 551	1	5	0.307788	4.19191	14.5007	-11.1361
 552	1	6	-0.129718	7.92379	14.5884	-10.5411
 553	1	6	-0.129089	6.63562	16.2714	-10.9052
 554	1	6	-0.119089	6.77357	14.6868	-12.3807
 555	1	6	-0.103894	4.16871	13.8555	-12.3243
 556	1	6	-0.097852	4.02104	15.8118	-11.4116
 557	1	6	-0.104555	3.07903	14.1011	-10.4814
 558	1	3	0.521254	7.84841	9.62052	-11.2152
 559	1	3	0.53569	6.3378	8.44038	-9.92212
 560	1	4	0.027822	7.56073	8.40929	-10.5897
 561	1	2	-0.468874	8.85486	9.93061	-11.829
 562	1	2	-0.477974	5.83128	7.56964	-9.23476
 563	1	1	-0.359831	8.52474	7.35676	-10.4547
 564	1	1	0.131035	9.2047	7.20999	-9.22246
 565	1	1	-0.120983	10.189	6.20728	-9.08638
 566	1	1	0.127261	8.84563	6.54273	-11.5635
 567	1	1	-0.127195	9.92489	5.63288	-11.4686
 568	1	1	0.144798	10.5877	5.4684	-10.2264
 569	1	5	-0.020676	8.06132	6.68533	-12.873
 570	1	5	-0.019785	8.90556	8.1515	-8.04539
 571	1	7	0.164889	7.33594	13.5536	-8.3242
 572	1	7	0.175264	3.77292	15.9675	-8.96497
 573	1	7	0.1582	3.82535	16.6843	-6.59914
 574	1	7	0.150763	4.15934	9.95176	-8.70196
 575	1	7	0.144868	3.97206	12.4186	-8.92701
 576	1	7	0.134072	7.43206	12.4258	-11.5847
 577	1	5	-0.300668	10.8601	5.95931	-7.7239
 578	1	5	-0.243237	10.3828	4.84041	-12.7049
 579	1	9	0.021835	8.58442	7.35083	-13.5708
 580	1	9	0.012312	7.05262	7.08672	-12.7209
 581	1	9	0.041777	7.92137	5.71626	-13.3664
 582	1	9	0.110598	9.84407	3.88582	-12.7791
 583	1	9	0.08293	10.2172	5.39172	-13.6383
 584	1	9	0.082252	11.4559	4.6162	-12.6964
 585	1	9	0.027698	9.79355	8.33783	-7.43065
 586	1	9	0.017051	8.12671	7.73218	-7.39672
 587	1	9	0.037874	8.57572	9.14522	-8.36774
 588	1	9	0.095908	11.7165	6.63217	-7.57989
 589	1	9	0.127068	10.1654	6.11763	-6.88915
 590	1	9	0.099095	11.218	4.92949	-7.60545
 591	1	1	-0.024347	13.7623	20.7116	5.91486
 592	1	1	-0.071478	12.6284	20.2168	5.21329
 593	1	1	-0.180016	12.0438	21.0435	4.21213
 594	1	2	-0.370097	16.2902	22.2533	6.87044
 595	1	1	0.010306	14.2665	21.9745	5.57662
 596	1	1	-0.071748	12.5463	22.3241	3.91248
 597	1	2	-0.403598	14.2273	24.9119	3.66435
 598	1	1	0.055994	13.6686	22.7624	4.61378
 599	1	3	0.021521	15.4883	22.6736	6.05336
 600	1	4	0.466017	15.5405	23.8587	5.31755
 601	1	3	0.096621	14.4606	24.0042	4.44773
 602	1	1	-0.099438	13.109	17.5046	1.97218
 603	1	5	-0.089685	12.0097	18.8076	5.45682
 604	1	1	-0.037281	11.9295	18.1113	4.06548
 605	1	1	-0.08188	13.0999	18.0846	3.25474
 606	1	1	-0.106561	11.9154	16.9599	1.49479
 607	1	1	-0.037628	10.7395	17.535	3.54329
 608	1	1	-0.12234	10.763	16.9883	2.25208
 609	1	5	0.388954	10.6061	19.0352	6.14968
 610	1	5	0.307788	12.8783	17.8704	6.38727
 611	1	6	-0.129718	10.0145	17.8847	6.54153
 612	1	6	-0.129089	9.72214	19.668	5.34554
 613	1	6	-0.119089	10.7178	19.813	7.25037
 614	1	6	-0.103894	14.16	17.7658	5.97038
 615	1	6	-0.097852	12.3978	16.6065	6.40703
 616	1	6	-0.104555	12.9242	18.2935	7.67042
 617	1	3	0.521254	9.64873	16.4745	1.40934
 618	1	3	0.53569	11.589	16.4042	0.155686
 619	1	4	0.027822	10.2092	16.2033	0.161009
 620	1	2	-0.468874	8.47171	16.4433	1.72558
 621	1	2	-0.477974	12.3574	16.3296	-0.788745
 622	1	1	-0.359831	9.43971	15.9307	-1.0221
 623	1	1	0.131035	9.36213	16.9189	-2.03278
 624	1	1	-0.120983	8.6639	16.6436	-3.22861
 625	1	1	0.127261	8.77011	14.6931	-1.17369
 626	1	1	-0.127195	7.96179	14.4692	-2.31557
 627	1	1	0.144798	7.92531	15.4404	-3.34527
 628	1	5	-0.020676	8.91209	13.6027	-0.105185
 629	1	5	-0.019785	10.0387	18.2883	-1.85964
 630	1	7	0.164889	14.2756	20.1433	6.68398
 631	1	7	0.175264	11.1885	20.6866	3.6432
 632	1	7	0.1582	12.0999	22.9477	3.14103
 633	1	7	0.150763	14.0043	17.5124	1.35347
 634	1	7	0.144868	14.0187	18.5408	3.61258
 635	1	7	0.134072	9.80111	17.5323	4.08865
 636	1	5	-0.300668	8.74911	17.6494	-4.39082
 637	1	5	-0.243237	7.15511	13.169	-2.46633
 638	1	9	0.021835	9.81964	13.7108	0.499195
 639	1	9	0.012312	8.97739	12.6043	-0.554325
 640	1	9	0.041777	8.05339	13.6138	0.577317
 641	1	9	0.110598	7.73791	12.4088	-3.00439
 642	1	9	0.08293	6.86179	12.7428	-1.49956
 643	1	9	0.082252	6.2147	13.3179	-3.01076