pySIMM System Object

2775 atoms
3009 bonds
5358 angles
7798 dihedrals
752 impropers

9 atom types
11 bond types
18 angle types
7 dihedral types
4 improper types

-221.963032 221.963032 xlo xhi
-221.963032 221.963032 ylo yhi
-221.963032 221.963032 zlo zhi

Masses

   1	12.01	# ca
   2	16.0	# o
   3	12.01	# c
   4	14.01	# n
   5	12.01	# c3
   6	19.0	# f
   7	1.008	# ha
   8	1.008	# hn
   9	1.008	# hc

Pair Coeffs

   1	0.086	3.3996695084235347	# ca
   2	0.21	2.959921901149463	# o
   3	0.086	3.3996695084235347	# c
   4	0.17	3.249998523775958	# n
   5	0.1094	3.3996695084235347	# c3
   6	0.061	3.1181455134911875	# f
   7	0.015	2.59964245953351	# ha
   8	0.0157	1.069078461768407	# hn
   9	0.0157	2.649532787749369	# hc

Bond Coeffs

   1	321.0	1.5156	# c3,ca
   2	300.9	1.5375	# c3,c3
   3	345.8	1.086	# ca,ha
   4	384.2	1.4121	# ca,n
   5	637.7	1.2183	# c,o
   6	330.6	1.0969	# c3,hc
   7	356.9	1.3497	# c3,f
   8	403.2	1.0129	# hn,n
   9	461.1	1.3984	# ca,ca
  10	427.6	1.3789	# c,n
  11	345.9	1.4906	# c,ca

Angle Coeffs

   1	70.89	107.36	# f,c3,f
   2	63.82	123.71	# c,n,ca
   3	68.72	122.6	# ca,c,o
   4	48.18	119.88	# ca,ca,ha
   5	67.87	120.19	# ca,ca,n
   6	67.68	115.25	# ca,c,n
   7	46.8	110.47	# ca,c3,hc
   8	48.33	117.55	# c,n,hn
   9	39.4	107.58	# hc,c3,hc
  10	74.22	123.05	# n,c,o
  11	62.86	111.51	# c3,c3,c3
  12	64.28	120.33	# c,ca,ca
  13	63.56	112.24	# ca,c3,ca
  14	63.15	112.07	# c3,c3,ca
  15	66.11	109.24	# c3,c3,f
  16	66.62	120.02	# ca,ca,ca
  17	63.74	127.08	# c,n,c
  18	63.53	120.77	# c3,ca,ca

Dihedral Coeffs

   1	2	2.5	2	180	2.0	1	0	# hn,n,c,o
   2	1	3.625	2	180	# X,ca,ca,X
   3	1	1.0	2	180	# X,c,ca,X
   4	1	0.0	2	0	# X,c3,ca,X
   5	1	0.15555555555555556	3	0	# X,c3,c3,X
   6	1	2.5	2	180	# X,c,n,X
   7	1	0.45	2	180	# X,ca,n,X

Improper Coeffs

   1	10.5	-1	2	# c,X,X,o
   2	1.1	-1	2	# n,X,X,hn
   3	1.1	-1	2	# ca,ca,ca,c3
   4	1.1	-1	2	# ca,X,X,ha

Atoms

   1	1	1	-0.024347	81.4525	1.45069	-87.6039
   2	1	1	-0.071478	81.823	1.54092	-88.9736
   3	1	1	-0.180016	82.5407	2.69375	-89.4014
   4	1	2	-0.370097	80.9064	1.88541	-84.5756
   5	1	1	0.010306	81.7807	2.50454	-86.7431
   6	1	1	-0.071748	82.8642	3.74214	-88.5161
   7	1	2	-0.403598	83.2194	5.62714	-86.0663
   8	1	1	0.055994	82.4648	3.61881	-87.1843
   9	1	3	0.021521	81.5037	2.66983	-85.2934
  10	1	4	0.466017	82.0562	3.90552	-84.957
  11	1	3	0.096621	82.6573	4.54411	-86.0396
  12	1	1	-0.099438	79.5289	2.76028	-92.3833
  13	1	5	-0.089685	81.5243	0.415801	-90.01
  14	1	1	-0.037281	81.0127	1.08176	-91.3235
  15	1	1	-0.08188	80.0497	2.12713	-91.2365
  16	1	1	-0.106561	79.9796	2.32559	-93.6333
  17	1	1	-0.037628	81.4287	0.660793	-92.6154
  18	1	1	-0.12234	80.9001	1.30462	-93.7425
  19	1	5	0.388954	80.39	-0.580673	-89.5537
  20	1	5	0.307788	82.873	-0.382735	-90.1884
  21	1	6	-0.129718	79.2837	0.0780119	-89.14
  22	1	6	-0.129089	80.7685	-1.39609	-88.5436
  23	1	6	-0.119089	79.9923	-1.38308	-90.5673
  24	1	6	-0.103894	83.4109	-0.722732	-88.9945
  25	1	6	-0.097852	83.8117	0.35251	-90.8266
  26	1	6	-0.104555	82.7277	-1.5336	-90.8828
  27	1	3	0.521254	81.1589	1.07012	-95.1892
  28	1	3	0.53569	79.6186	2.7796	-95.0052
  29	1	4	0.027822	80.3622	1.985	-95.8756
  30	1	2	-0.468874	81.9272	0.244875	-95.6532
  31	1	2	-0.477974	78.8279	3.66595	-95.2829
  32	1	1	-0.359831	80.3151	2.09419	-97.3079
  33	1	1	0.131035	79.235	1.51659	-98.0193
  34	1	1	-0.120983	79.1881	1.63462	-99.4277
  35	1	1	0.127261	81.3527	2.77166	-97.9938
  36	1	1	-0.127195	81.315	2.85246	-99.4047
  37	1	1	0.144798	80.2316	2.29158	-100.099
  38	1	5	-0.020676	82.513	3.39541	-97.2118
  39	1	5	-0.019785	78.122	0.784843	-97.2628
  40	1	7	0.164889	80.9265	0.597407	-87.1887
  41	1	7	0.175264	82.8581	2.7803	-90.4386
  42	1	7	0.1582	83.4108	4.62223	-88.8483
  43	1	7	0.150763	78.7938	3.55878	-92.3038
  44	1	7	0.144868	79.6951	2.45564	-90.2627
  45	1	7	0.134072	82.1379	-0.145991	-92.7673
  46	1	5	-0.300668	78.0346	1.06675	-100.257
  47	1	5	-0.243237	82.4215	3.53217	-100.212
  48	1	9	0.021835	83.2822	2.64375	-96.9958
  49	1	9	0.012312	82.1825	3.82175	-96.2568
  50	1	9	0.041777	82.9934	4.21693	-97.7535
  51	1	9	0.110598	82.4197	4.61804	-100.053
  52	1	9	0.08293	83.4115	3.14651	-99.9368
  53	1	9	0.082252	82.3012	3.36251	-101.29
  54	1	9	0.027698	77.3887	1.49918	-96.8687
  55	1	9	0.017051	78.5145	0.205691	-96.4182
  56	1	9	0.037874	77.5826	0.0676418	-97.8902
  57	1	9	0.095908	78.0272	-0.0303553	-100.228
  58	1	9	0.127068	77.0642	1.42647	-99.8906
  59	1	9	0.099095	78.1075	1.3613	-101.311
  60	1	1	-0.024347	82.2516	9.51756	-72.1221
  61	1	1	-0.071478	82.6092	8.67638	-73.2099
  62	1	1	-0.180016	83.9153	8.80791	-73.7619
  63	1	2	-0.370097	82.0882	11.6201	-69.845
  64	1	1	0.010306	83.1807	10.4549	-71.659
  65	1	1	-0.071748	84.8372	9.7584	-73.2771
  66	1	2	-0.403598	86.3118	12.0256	-71.7348
  67	1	1	0.055994	84.436	10.5761	-72.2192
  68	1	3	0.021521	83.061	11.4437	-70.5589
  69	1	4	0.466017	84.2862	12.1079	-70.5345
  70	1	3	0.096621	85.1748	11.6471	-71.5036
  71	1	1	-0.099438	81.7389	9.03371	-77.3898
  72	1	5	-0.089685	81.6548	7.58784	-73.7849
  73	1	1	-0.037281	81.7302	7.64357	-75.339
  74	1	1	-0.08188	81.7013	8.91184	-75.9862
  75	1	1	-0.106561	81.7955	7.85977	-78.146
  76	1	1	-0.037628	81.7722	6.47723	-76.1484
  77	1	1	-0.12234	81.809	6.62092	-77.5405
  78	1	5	0.388954	80.1381	7.81404	-73.4163
  79	1	5	0.307788	82.1384	6.21588	-73.1755
  80	1	6	-0.129718	79.7428	9.07968	-73.6832
  81	1	6	-0.129089	79.8638	7.57776	-72.1136
  82	1	6	-0.119089	79.3236	7.00658	-74.1334
  83	1	6	-0.103894	81.2751	5.1982	-73.3924
  84	1	6	-0.097852	82.3021	6.29844	-71.8351
  85	1	6	-0.104555	83.336	5.838	-73.6777
  86	1	3	0.521254	81.8524	5.58517	-78.6059
  87	1	3	0.53569	81.8312	7.66	-79.6199
  88	1	4	0.027822	81.8641	6.28047	-79.8135
  89	1	2	-0.468874	81.893	4.37956	-78.4297
  90	1	2	-0.477974	81.8223	8.53987	-80.4643
  91	1	1	-0.359831	81.9067	5.65402	-81.1044
  92	1	1	0.131035	80.7398	5.6234	-81.9028
  93	1	1	-0.120983	80.7983	5.07675	-83.2062
  94	1	1	0.127261	83.1167	5.08725	-81.5677
  95	1	1	-0.127195	83.1494	4.44588	-82.8279
  96	1	1	0.144798	81.9987	4.4726	-83.6525
  97	1	5	-0.020676	84.3852	5.16213	-80.7074
  98	1	5	-0.019785	79.4212	6.19529	-81.3659
  99	1	7	0.164889	81.2881	9.46562	-71.6264
 100	1	7	0.175264	84.2262	8.16023	-74.5792
 101	1	7	0.1582	85.8341	9.85595	-73.702
 102	1	7	0.150763	81.7163	10.0078	-77.8748
 103	1	7	0.144868	81.6449	9.82128	-75.3928
 104	1	7	0.134072	81.7686	5.47492	-75.733
 105	1	5	-0.300668	79.5659	5.12357	-84.1272
 106	1	5	-0.243237	84.4303	3.74773	-83.3153
 107	1	9	0.021835	84.3851	6.0149	-80.0194
 108	1	9	0.012312	85.2872	5.28483	-81.3186
 109	1	9	0.041777	84.5014	4.25005	-80.109
 110	1	9	0.110598	85.0839	4.45444	-83.8446
 111	1	9	0.08293	85.0052	3.3136	-82.4883
 112	1	9	0.082252	84.2281	2.90768	-83.9904
 113	1	9	0.027698	79.2876	7.23477	-81.6902
 114	1	9	0.017051	79.3619	6.17623	-80.2718
 115	1	9	0.037874	78.5566	5.61736	-81.7125
 116	1	9	0.095908	79.8234	5.14999	-85.1924
 117	1	9	0.127068	78.9212	4.24933	-83.9612
 118	1	9	0.099095	78.9605	6.02322	-83.9613
 119	1	1	-0.024347	87.0392	22.0322	-61.1061
 120	1	1	-0.071478	86.3163	20.9492	-61.6753
 121	1	1	-0.180016	86.3144	19.7042	-60.9839
 122	1	2	-0.370097	88.8556	23.913	-59.4353
 123	1	1	0.010306	87.7401	21.8236	-59.9133
 124	1	1	-0.071748	87.0182	19.5201	-59.7762
 125	1	2	-0.403598	88.8133	19.8154	-57.2496
 126	1	1	0.055994	87.7314	20.6055	-59.2647
 127	1	3	0.021521	88.6032	22.7556	-59.146
 128	1	4	0.466017	89.0676	22.0112	-58.0626
 129	1	3	0.096621	88.5828	20.7052	-58.0523
 130	1	1	-0.099438	87.6827	18.3761	-64.7912
 131	1	5	-0.089685	85.5202	21.0649	-63.0101
 132	1	1	-0.037281	85.8974	19.8432	-63.8975
 133	1	1	-0.08188	87.265	19.456	-63.9887
 134	1	1	-0.106561	86.7076	17.6872	-65.5165
 135	1	1	-0.037628	84.9426	19.1244	-64.665
 136	1	1	-0.12234	85.3791	18.053	-65.4548
 137	1	5	0.388954	85.8776	22.3458	-63.8583
 138	1	5	0.307788	83.9933	21.1182	-62.6144
 139	1	6	-0.129718	87.2119	22.4704	-64.0418
 140	1	6	-0.129089	85.4436	23.4947	-63.2929
 141	1	6	-0.119089	85.336	22.2936	-65.0968
 142	1	6	-0.103894	83.767	22.0288	-61.6402
 143	1	6	-0.097852	83.5537	19.9338	-62.1322
 144	1	6	-0.104555	83.1814	21.4498	-63.6432
 145	1	3	0.521254	84.6085	17.1426	-66.3428
 146	1	3	0.53569	86.8337	16.5324	-66.445
 147	1	4	0.027822	85.5418	16.2659	-66.8931
 148	1	2	-0.468874	83.4055	17.1804	-66.5361
 149	1	2	-0.477974	87.8652	15.9443	-66.723
 150	1	1	-0.359831	85.2136	15.2133	-67.8121
 151	1	1	0.131035	84.9048	15.5307	-69.1554
 152	1	1	-0.120983	84.5397	14.4983	-70.0511
 153	1	1	0.127261	85.2096	13.8715	-67.3651
 154	1	1	-0.127195	84.9505	12.8299	-68.2858
 155	1	1	0.144798	84.5952	13.1519	-69.6177
 156	1	5	-0.020676	85.4948	13.5435	-65.8935
 157	1	5	-0.019785	84.9547	16.9866	-69.6369
 158	1	7	0.164889	87.0848	23.017	-61.5592
 159	1	7	0.175264	85.7638	18.859	-61.3914
 160	1	7	0.1582	87.0201	18.5646	-59.2559
 161	1	7	0.150763	88.7306	18.089	-64.8544
 162	1	7	0.144868	88.022	20.0036	-63.433
 163	1	7	0.134072	83.887	19.3757	-64.67
 164	1	5	-0.300668	84.1051	14.8279	-71.4903
 165	1	5	-0.243237	85.0306	11.3593	-67.8418
 166	1	9	0.021835	86.5514	13.2858	-65.7501
 167	1	9	0.012312	84.8889	12.7008	-65.54
 168	1	9	0.041777	85.2584	14.3724	-65.2175
 169	1	9	0.110598	84.0662	11.0195	-67.4405
 170	1	9	0.08293	85.3115	10.6803	-68.6554
 171	1	9	0.082252	85.7908	11.2017	-67.067
 172	1	9	0.027698	85.3055	17.0615	-70.6729
 173	1	9	0.017051	85.6447	17.6061	-69.053
 174	1	9	0.037874	83.9611	17.4481	-69.5797
 175	1	9	0.095908	83.3949	14.1003	-71.9013
 176	1	9	0.127068	83.5883	15.7933	-71.5562
 177	1	9	0.099095	84.9736	14.8655	-72.1618
 178	1	1	-0.024347	95.3292	26.8262	-48.4624
 179	1	1	-0.071478	96.4136	27.382	-49.1911
 180	1	1	-0.180016	97.619	27.6718	-48.4881
 181	1	2	-0.370097	93.3766	25.6544	-46.3455
 182	1	1	0.010306	95.4854	26.5681	-47.0969
 183	1	1	-0.071748	97.754	27.4045	-47.1095
 184	1	2	-0.403598	97.343	26.61	-44.1264
 185	1	1	0.055994	96.6637	26.8496	-46.4369
 186	1	3	0.021521	94.5188	26.0148	-46.1156
 187	1	4	0.466017	95.2013	26.0093	-44.8999
 188	1	3	0.096621	96.5037	26.4925	-45.0046
 189	1	1	-0.099438	95.3676	24.0562	-51.7036
 190	1	5	-0.089685	96.213	27.7141	-50.7
 191	1	1	-0.037281	95.4951	26.5094	-51.3771
 192	1	1	-0.08188	95.9413	25.188	-51.0891
 193	1	1	-0.106561	94.3382	24.264	-52.6262
 194	1	1	-0.037628	94.4534	26.6729	-52.3289
 195	1	1	-0.12234	93.8981	25.5357	-52.9275
 196	1	5	0.388954	97.5605	27.9165	-51.4947
 197	1	5	0.307788	95.3803	29.0532	-50.7432
 198	1	6	-0.129718	98.4287	26.9029	-51.2747
 199	1	6	-0.129089	98.2016	29.0653	-51.1813
 200	1	6	-0.119089	97.3516	27.9478	-52.8309
 201	1	6	-0.103894	95.9131	29.9966	-49.9331
 202	1	6	-0.097852	94.1104	28.8666	-50.3171
 203	1	6	-0.104555	95.3118	29.6041	-51.976
 204	1	3	0.521254	92.8317	25.4251	-53.9571
 205	1	3	0.53569	93.5677	23.2949	-53.4528
 206	1	4	0.027822	92.6949	24.0638	-54.2206
 207	1	2	-0.468874	92.2216	26.3542	-54.458
 208	1	2	-0.477974	93.7142	22.0841	-53.4647
 209	1	1	-0.359831	91.7778	23.5256	-55.1852
 210	1	1	0.131035	92.2627	23.0822	-56.4375
 211	1	1	-0.120983	91.3643	22.5256	-57.3779
 212	1	1	0.127261	90.3987	23.4613	-54.8784
 213	1	1	-0.127195	89.486	23.0021	-55.8568
 214	1	1	0.144798	89.9775	22.517	-57.0923
 215	1	5	-0.020676	89.8923	23.8983	-53.4978
 216	1	5	-0.019785	93.7556	23.195	-56.7736
 217	1	7	0.164889	94.3755	26.6071	-48.9367
 218	1	7	0.175264	98.4686	28.124	-48.9891
 219	1	7	0.1582	98.672	27.6337	-46.5724
 220	1	7	0.150763	95.7209	23.0509	-51.4817
 221	1	7	0.144868	96.7561	25.0332	-50.386
 222	1	7	0.134072	94.0778	27.6462	-52.6263
 223	1	5	-0.300668	91.8841	21.9575	-58.7108
 224	1	5	-0.243237	87.9729	23.0103	-55.5805
 225	1	9	0.021835	89.5342	24.935	-53.5248
 226	1	9	0.012312	90.6596	23.8309	-52.7184
 227	1	9	0.041777	89.0691	23.263	-53.1504
 228	1	9	0.110598	87.6759	23.8335	-54.9191
 229	1	9	0.08293	87.3739	23.1488	-56.4884
 230	1	9	0.082252	87.6564	22.07	-55.1099
 231	1	9	0.027698	94.2763	22.2562	-56.5477
 232	1	9	0.017051	94.2593	23.9967	-56.2222
 233	1	9	0.037874	93.9177	23.4271	-57.8327
 234	1	9	0.095908	91.9639	22.7492	-59.4678
 235	1	9	0.127068	92.8733	21.495	-58.6031
 236	1	9	0.099095	91.2475	21.1655	-59.1222
 237	1	1	-0.024347	90.4262	22.8386	-32.1387
 238	1	1	-0.071478	91.1232	23.3588	-33.2634
 239	1	1	-0.180016	91.0215	24.7535	-33.5322
 240	1	2	-0.370097	88.725	22.3596	-29.5778
 241	1	1	0.010306	89.6529	23.7075	-31.3595
 242	1	1	-0.071748	90.2316	25.6094	-32.7383
 243	1	2	-0.403598	88.3813	26.8796	-30.5871
 244	1	1	0.055994	89.5536	25.0524	-31.6527
 245	1	3	0.021521	88.8592	23.4373	-30.1324
 246	1	4	0.466017	88.3254	24.6728	-29.7664
 247	1	3	0.096621	88.6894	25.6996	-30.6347
 248	1	1	-0.099438	90.3753	23.5109	-37.5003
 249	1	5	-0.089685	92.0601	22.4848	-34.15
 250	1	1	-0.037281	91.9019	22.9335	-35.6348
 251	1	1	-0.08188	90.5923	23.1081	-36.1666
 252	1	1	-0.106561	91.4951	23.7323	-38.3072
 253	1	1	-0.037628	93.0093	23.1487	-36.4988
 254	1	1	-0.12234	92.7717	23.5515	-37.8185
 255	1	5	0.388954	91.707	20.9477	-34.1183
 256	1	5	0.307788	93.5143	22.6964	-33.5784
 257	1	6	-0.129718	90.3852	20.7357	-34.3093
 258	1	6	-0.129089	92.0396	20.3409	-32.957
 259	1	6	-0.119089	92.3467	20.271	-35.0995
 260	1	6	-0.103894	93.5573	22.5129	-32.2389
 261	1	6	-0.097852	93.9577	23.9558	-33.7951
 262	1	6	-0.104555	94.4241	21.8493	-34.1101
 263	1	3	0.521254	93.7336	23.8725	-38.9057
 264	1	3	0.53569	91.5956	24.1787	-39.724
 265	1	4	0.027822	92.9594	24.2483	-40.0011
 266	1	2	-0.468874	94.9491	23.8345	-38.8217
 267	1	2	-0.477974	90.6619	24.4547	-40.4581
 268	1	1	-0.359831	93.5087	24.6918	-41.2505
 269	1	1	0.131035	93.9858	23.7411	-42.1821
 270	1	1	-0.120983	94.5948	24.1818	-43.3808
 271	1	1	0.127261	93.5852	26.077	-41.5247
 272	1	1	-0.127195	94.1032	26.516	-42.7654
 273	1	1	0.144798	94.6273	25.5661	-43.6753
 274	1	5	-0.020676	93.1022	27.1004	-40.4879
 275	1	5	-0.019785	93.858	22.2409	-41.889
 276	1	7	0.164889	90.4823	21.7966	-31.8421
 277	1	7	0.175264	91.5755	25.1896	-34.3609
 278	1	7	0.1582	90.1611	26.6754	-32.944
 279	1	7	0.150763	89.3701	23.6495	-37.894
 280	1	7	0.144868	89.7253	22.936	-35.5336
 281	1	7	0.134072	94.038	23.0201	-36.1792
 282	1	5	-0.300668	95.2053	23.1707	-44.3674
 283	1	5	-0.243237	94.1249	28.0142	-43.1145
 284	1	9	0.021835	93.1239	26.7178	-39.4617
 285	1	9	0.012312	92.0739	27.4164	-40.7034
 286	1	9	0.041777	93.7366	27.9944	-40.476
 287	1	9	0.110598	93.2707	28.5521	-42.6847
 288	1	9	0.08293	95.0423	28.4887	-42.741
 289	1	9	0.082252	94.0654	28.205	-44.1925
 290	1	9	0.027698	93.0426	22.0079	-41.1955
 291	1	9	0.017051	94.7866	21.8482	-41.4567
 292	1	9	0.037874	93.6374	21.6692	-42.7981
 293	1	9	0.095908	96.0566	23.5781	-44.9259
 294	1	9	0.127068	95.6017	22.2823	-43.8604
 295	1	9	0.099095	94.456	22.8352	-45.0971
 296	1	1	-0.024347	79.5748	28.0706	-19.4844
 297	1	1	-0.071478	80.0235	27.319	-20.604
 298	1	1	-0.180016	79.3972	27.5473	-21.8623
 299	1	2	-0.370097	78.2732	30.0951	-17.5247
 300	1	1	0.010306	78.5681	29.0245	-19.671
 301	1	1	-0.071748	78.3757	28.5049	-22.0248
 302	1	2	-0.403598	76.3093	30.8044	-21.6738
 303	1	1	0.055994	77.9853	29.2384	-20.9036
 304	1	3	0.021521	77.9778	29.9817	-18.7024
 305	1	4	0.466017	77.0639	30.7299	-19.4435
 306	1	3	0.096621	76.995	30.3371	-20.7785
 307	1	1	-0.099438	83.4522	28.2029	-22.9789
 308	1	5	-0.089685	81.1645	26.2611	-20.5183
 309	1	1	-0.037281	82.1524	26.5341	-21.6905
 310	1	1	-0.08188	82.5469	27.8773	-21.9508
 311	1	1	-0.106561	83.9679	27.1577	-23.7483
 312	1	1	-0.037628	82.7121	25.5012	-22.4905
 313	1	1	-0.12234	83.6069	25.8473	-23.5125
 314	1	5	0.388954	80.4694	24.846	-20.5851
 315	1	5	0.307788	82.0202	26.3526	-19.1962
 316	1	6	-0.129718	81.3077	23.8225	-20.3072
 317	1	6	-0.129089	79.9388	24.5999	-21.8044
 318	1	6	-0.119089	79.4463	24.7556	-19.7048
 319	1	6	-0.103894	81.3401	25.9619	-18.0949
 320	1	6	-0.097852	82.4628	27.6097	-18.9656
 321	1	6	-0.104555	83.1268	25.5777	-19.2638
 322	1	3	0.521254	84.3154	24.9897	-24.5023
 323	1	3	0.53569	84.922	27.1847	-24.8873
 324	1	4	0.027822	85.0718	25.8593	-25.2864
 325	1	2	-0.468874	84.213	23.7796	-24.6054
 326	1	2	-0.477974	85.4361	28.18	-25.3692
 327	1	1	-0.359831	85.8816	25.4613	-26.4021
 328	1	1	0.131035	85.2898	25.3158	-27.6781
 329	1	1	-0.120983	86.0992	24.9841	-28.7895
 330	1	1	0.127261	87.2729	25.2861	-26.224
 331	1	1	-0.127195	88.0959	25.037	-27.3474
 332	1	1	0.144798	87.5019	24.8824	-28.6241
 333	1	5	-0.020676	87.8875	25.4067	-24.8236
 334	1	5	-0.019785	83.7808	25.5216	-27.8684
 335	1	7	0.164889	79.9899	27.9543	-18.4887
 336	1	7	0.175264	79.7145	26.9824	-22.7362
 337	1	7	0.1582	77.9108	28.6858	-22.9917
 338	1	7	0.150763	83.7451	29.2334	-23.1709
 339	1	7	0.144868	82.148	28.687	-21.345
 340	1	7	0.134072	82.476	24.4525	-22.3413
 341	1	5	-0.300668	85.4685	24.7843	-30.1787
 342	1	5	-0.243237	89.6225	24.9411	-27.181
 343	1	9	0.021835	88.225	26.4331	-24.6338
 344	1	9	0.012312	88.7456	24.7373	-24.6917
 345	1	9	0.041777	87.1838	25.1333	-24.0296
 346	1	9	0.110598	89.917	23.9308	-26.8662
 347	1	9	0.08293	90.1796	25.1767	-28.0947
 348	1	9	0.082252	89.9957	25.6485	-26.43
 349	1	9	0.027698	83.566	26.0801	-28.7874
 350	1	9	0.017051	83.3083	26.0925	-27.0623
 351	1	9	0.037874	83.2654	24.5552	-27.9311
 352	1	9	0.095908	84.4681	24.3386	-30.118
 353	1	9	0.127068	85.3759	25.7437	-30.7063
 354	1	9	0.099095	86.0432	24.1037	-30.8182
 355	1	1	-0.024347	70.4514	38.8534	-12.9911
 356	1	1	-0.071478	70.8661	40.0753	-13.5832
 357	1	1	-0.180016	69.9969	41.2004	-13.4866
 358	1	2	-0.370097	69.0116	36.5343	-11.5118
 359	1	1	0.010306	69.2088	38.7907	-12.3548
 360	1	1	-0.071748	68.7443	41.1128	-12.8429
 361	1	2	-0.403598	66.2	40.2256	-11.2822
 362	1	1	0.055994	68.375	39.8869	-12.2849
 363	1	3	0.021521	68.5578	37.6577	-11.6522
 364	1	4	0.466017	67.344	38.1673	-11.1931
 365	1	3	0.096621	67.1506	39.504	-11.5376
 366	1	1	-0.099438	71.3421	37.4304	-16.9013
 367	1	5	-0.089685	72.2623	40.1325	-14.2702
 368	1	1	-0.037281	72.3882	38.8799	-15.1859
 369	1	1	-0.08188	71.294	38.5366	-16.0302
 370	1	1	-0.106561	72.5115	36.6664	-16.9214
 371	1	1	-0.037628	73.5619	38.082	-15.2486
 372	1	1	-0.12234	73.5861	36.9832	-16.117
 373	1	5	0.388954	73.3274	40.1833	-13.1065
 374	1	5	0.307788	72.4666	41.3838	-15.2086
 375	1	6	-0.129718	73.3775	39.0203	-12.4182
 376	1	6	-0.129089	73.027	41.1416	-12.2003
 377	1	6	-0.119089	74.5822	40.442	-13.5384
 378	1	6	-0.103894	72.5836	42.5477	-14.5302
 379	1	6	-0.097852	71.4451	41.5342	-16.0822
 380	1	6	-0.104555	73.5842	41.2626	-15.9612
 381	1	3	0.521254	74.6632	35.9907	-16.3744
 382	1	3	0.53569	72.8652	35.4666	-17.7259
 383	1	4	0.027822	74.1595	35.1221	-17.3413
 384	1	2	-0.468874	75.7635	35.9747	-15.8492
 385	1	2	-0.477974	72.1458	34.9096	-18.5384
 386	1	1	-0.359831	74.8892	34.0075	-17.8776
 387	1	1	0.131035	75.9862	34.2414	-18.7395
 388	1	1	-0.120983	76.7484	33.148	-19.2123
 389	1	1	0.127261	74.5075	32.6893	-17.5332
 390	1	1	-0.127195	75.1957	31.5918	-18.1011
 391	1	1	0.144798	76.3302	31.8285	-18.9136
 392	1	5	-0.020676	73.3475	32.4486	-16.558
 393	1	5	-0.019785	76.3539	35.6723	-19.1541
 394	1	7	0.164889	71.0782	37.965	-13.0146
 395	1	7	0.175264	70.2764	42.1647	-13.8985
 396	1	7	0.1582	68.0817	41.9723	-12.7672
 397	1	7	0.150763	70.5008	37.1777	-17.5438
 398	1	7	0.144868	70.3893	39.1393	-16.0167
 399	1	7	0.134072	74.445	38.2897	-14.653
 400	1	5	-0.300668	78.0108	33.3851	-20.0609
 401	1	5	-0.243237	74.7335	30.1518	-17.8223
 402	1	9	0.021835	73.1967	33.2814	-15.8618
 403	1	9	0.012312	73.5213	31.5707	-15.9246
 404	1	9	0.041777	72.4081	32.2937	-17.1031
 405	1	9	0.110598	73.6455	30.0829	-17.6992
 406	1	9	0.08293	74.9715	29.4598	-18.6385
 407	1	9	0.082252	75.2002	29.7629	-16.9074
 408	1	9	0.027698	75.4966	36.3544	-19.1325
 409	1	9	0.017051	76.7304	35.7155	-20.1829
 410	1	9	0.037874	77.1261	36.0826	-18.4918
 411	1	9	0.095908	78.7679	32.6024	-19.9313
 412	1	9	0.127068	77.7599	33.4377	-21.1295
 413	1	9	0.099095	78.5218	34.3175	-19.7909
 414	1	1	-0.024347	58.0904	30.9095	-3.64827
 415	1	1	-0.071478	58.5856	31.4214	-4.87723
 416	1	1	-0.180016	58.9949	30.4926	-5.87637
 417	1	2	-0.370097	57.3069	29.2039	-1.18547
 418	1	1	0.010306	58.062	29.525	-3.45686
 419	1	1	-0.071748	58.9474	29.0992	-5.66519
 420	1	2	-0.403598	58.7005	26.2322	-4.47133
 421	1	1	0.055994	58.4794	28.6424	-4.43208
 422	1	3	0.021521	57.6863	28.7485	-2.25137
 423	1	4	0.466017	57.9244	27.4179	-2.59009
 424	1	3	0.096621	58.3864	27.2609	-3.89474
 425	1	1	-0.099438	62.5717	32.7884	-5.53302
 426	1	5	-0.089685	58.7088	32.9462	-5.17356
 427	1	1	-0.037281	60.1387	33.2123	-5.72591
 428	1	1	-0.08188	61.2467	32.5585	-5.11454
 429	1	1	-0.106561	62.7781	33.6988	-6.57198
 430	1	1	-0.037628	60.3972	34.1406	-6.76903
 431	1	1	-0.12234	61.7224	34.3572	-7.16712
 432	1	5	0.388954	58.5641	33.8577	-3.89441
 433	1	5	0.307788	57.5567	33.2974	-6.19292
 434	1	6	-0.129718	57.3103	33.8653	-3.38861
 435	1	6	-0.129089	58.8851	35.1453	-4.15633
 436	1	6	-0.119089	59.3954	33.4652	-2.90193
 437	1	6	-0.103894	56.3684	32.7966	-5.78472
 438	1	6	-0.097852	57.7887	32.7727	-7.41736
 439	1	6	-0.104555	57.3713	34.6254	-6.36374
 440	1	3	0.521254	62.2756	35.2905	-8.18401
 441	1	3	0.53569	64.0409	34.1808	-7.19045
 442	1	4	0.027822	63.6598	35.1367	-8.1301
 443	1	2	-0.468874	61.6286	36.0322	-8.90365
 444	1	2	-0.477974	65.1673	33.8232	-6.88934
 445	1	1	-0.359831	64.5856	35.9056	-8.91284
 446	1	1	0.131035	64.7157	35.6553	-10.2986
 447	1	1	-0.120983	65.5912	36.4527	-11.0729
 448	1	1	0.127261	65.3579	36.9091	-8.28271
 449	1	1	-0.127195	66.3204	37.6235	-9.03208
 450	1	1	0.144798	66.4121	37.41	-10.4288
 451	1	5	-0.020676	65.1599	37.2171	-6.79228
 452	1	5	-0.019785	63.905	34.5332	-10.9595
 453	1	7	0.164889	57.7532	31.5426	-2.83436
 454	1	7	0.175264	59.3758	30.8547	-6.82871
 455	1	7	0.1582	59.2826	28.3947	-6.42348
 456	1	7	0.150763	63.4125	32.2919	-5.05223
 457	1	7	0.144868	61.084	31.8697	-4.28958
 458	1	7	0.134072	59.6099	34.7064	-7.25628
 459	1	5	-0.300668	65.6719	36.2702	-12.5985
 460	1	5	-0.243237	67.2477	38.6361	-8.33813
 461	1	9	0.021835	65.8655	36.644	-6.17829
 462	1	9	0.012312	64.147	36.9874	-6.44209
 463	1	9	0.041777	65.3058	38.281	-6.5726
 464	1	9	0.110598	66.7701	39.6232	-8.27002
 465	1	9	0.08293	67.5112	38.3196	-7.3212
 466	1	9	0.082252	68.2079	38.7642	-8.85166
 467	1	9	0.027698	63.6493	33.728	-10.2617
 468	1	9	0.017051	64.4623	34.0479	-11.7694
 469	1	9	0.037874	62.9693	34.9246	-11.3773
 470	1	9	0.095908	66.4168	35.5071	-12.8614
 471	1	9	0.127068	64.7111	35.9644	-13.0311
 472	1	9	0.099095	65.9384	37.1936	-13.1265
 473	1	1	-0.024347	54.5065	21.734	7.8048
 474	1	1	-0.071478	55.0733	20.8981	6.80555
 475	1	1	-0.180016	54.1997	20.299	5.85371
 476	1	2	-0.370097	52.6984	23.4923	9.60977
 477	1	1	0.010306	53.1251	21.9527	7.79738
 478	1	1	-0.071748	52.8079	20.5205	5.87541
 479	1	2	-0.403598	49.9092	21.4704	6.49183
 480	1	1	0.055994	52.2972	21.3612	6.8653
 481	1	3	0.021521	52.2975	22.8076	8.6833
 482	1	4	0.466017	50.9934	22.6631	8.21084
 483	1	3	0.096621	50.9022	21.799	7.12127
 484	1	1	-0.099438	58.3406	20.3244	3.20125
 485	1	5	-0.089685	56.6008	20.6119	6.70088
 486	1	1	-0.037281	57.0219	20.8641	5.22501
 487	1	1	-0.08188	57.9319	20.0259	4.51832
 488	1	1	-0.106561	57.8294	21.4778	2.59788
 489	1	1	-0.037628	56.5322	22.0246	4.57227
 490	1	1	-0.12234	56.9477	22.2997	3.26661
 491	1	5	0.388954	56.8164	19.1255	7.18546
 492	1	5	0.307788	57.4922	21.5728	7.57978
 493	1	6	-0.129718	56.3104	18.2276	6.31011
 494	1	6	-0.129089	56.1943	18.8957	8.3643
 495	1	6	-0.119089	58.1162	18.8011	7.3686
 496	1	6	-0.103894	57.2065	22.8757	7.35621
 497	1	6	-0.097852	58.8076	21.4319	7.29753
 498	1	6	-0.104555	57.3549	21.3556	8.90722
 499	1	3	0.521254	56.6584	23.4745	2.40593
 500	1	3	0.53569	58.1407	22.1023	1.28303
 501	1	4	0.027822	57.4289	23.3004	1.2597
 502	1	2	-0.468874	55.9456	24.4195	2.6983
 503	1	2	-0.477974	58.9358	21.6833	0.458894
 504	1	1	-0.359831	57.5678	24.3039	0.245408
 505	1	1	0.131035	58.7034	25.1461	0.267881
 506	1	1	-0.120983	58.8508	26.144	-0.721233
 507	1	1	0.127261	56.5584	24.4688	-0.730448
 508	1	1	-0.127195	56.6578	25.528	-1.66308
 509	1	1	0.144798	57.8104	26.3497	-1.65921
 510	1	5	-0.020676	55.3524	23.5225	-0.764121
 511	1	5	-0.019785	59.7732	24.9793	1.35694
 512	1	7	0.164889	55.0965	22.226	8.5707
 513	1	7	0.175264	54.6042	19.6556	5.07561
 514	1	7	0.1582	52.145	20.0651	5.14281
 515	1	7	0.150763	59.0571	19.6953	2.67617
 516	1	7	0.144868	58.3581	19.1444	4.98374
 517	1	7	0.134072	55.8649	22.7208	5.07565
 518	1	5	-0.300668	60.1162	27.0204	-0.754532
 519	1	5	-0.243237	55.5354	25.7841	-2.68304
 520	1	9	0.021835	54.4855	23.9794	-0.270771
 521	1	9	0.012312	55.5452	22.5617	-0.273744
 522	1	9	0.041777	55.0665	23.2752	-1.79351
 523	1	9	0.110598	54.5479	25.5005	-2.29915
 524	1	9	0.08293	55.4402	26.8423	-2.95508
 525	1	9	0.082252	55.7116	25.2168	-3.60666
 526	1	9	0.027698	59.3763	24.5599	2.2878
 527	1	9	0.017051	60.2207	25.9376	1.64483
 528	1	9	0.037874	60.5781	24.3196	1.01005
 529	1	9	0.095908	60.3395	27.43	-1.74631
 530	1	9	0.127068	60.0239	27.8645	-0.0571226
 531	1	9	0.099095	61.0122	26.4517	-0.475757
 532	1	1	-0.024347	42.8421	27.9915	15.4312
 533	1	1	-0.071478	42.0569	28.7959	14.5649
 534	1	1	-0.180016	40.708	29.0672	14.9374
 535	1	2	-0.370097	44.0063	26.1887	17.6681
 536	1	1	0.010306	42.2738	27.4946	16.606
 537	1	1	-0.071748	40.1466	28.5318	16.117
 538	1	2	-0.403598	39.5658	27.0035	18.7718
 539	1	1	0.055994	40.9583	27.7431	16.9353
 540	1	3	0.021521	42.8718	26.6384	17.6586
 541	1	4	0.466017	41.8429	26.4257	18.5759
 542	1	3	0.096621	40.6502	27.0494	18.2124
 543	1	1	-0.099438	43.1493	25.7585	11.7897
 544	1	5	-0.089685	42.7121	29.3265	13.2551
 545	1	1	-0.037281	43.3754	28.1056	12.5523
 546	1	1	-0.08188	42.6195	26.9067	12.4106
 547	1	1	-0.106561	44.461	25.8214	11.314
 548	1	1	-0.037628	44.7004	28.1284	12.0401
 549	1	1	-0.12234	45.2139	26.9694	11.4435
 550	1	5	0.388954	43.7341	30.4527	13.6813
 551	1	5	0.307788	41.687	29.9385	12.2229
 552	1	6	-0.129718	44.7832	29.9571	14.3746
 553	1	6	-0.129089	43.1539	31.361	14.494
 554	1	6	-0.119089	44.2464	31.1386	12.6352
 555	1	6	-0.103894	42.2724	30.1882	11.0296
 556	1	6	-0.097852	41.143	31.1036	12.6426
 557	1	6	-0.104555	40.6613	29.0976	11.958
 558	1	3	0.521254	46.5644	26.7002	10.8822
 559	1	3	0.53569	45.2951	24.785	10.6492
 560	1	4	0.027822	46.5396	25.3773	10.4413
 561	1	2	-0.468874	47.4952	27.4871	10.8555
 562	1	2	-0.477974	44.9486	23.6457	10.3851
 563	1	1	-0.359831	47.6686	24.6926	9.87424
 564	1	1	0.131035	48.3004	23.6619	10.6098
 565	1	1	-0.120983	49.3657	22.9379	10.0266
 566	1	1	0.127261	48.1359	25.0526	8.58841
 567	1	1	-0.127195	49.284	24.418	8.05991
 568	1	1	0.144798	49.8738	23.343	8.76894
 569	1	5	-0.020676	47.41	26.1292	7.77125
 570	1	5	-0.019785	47.833	23.3232	12.0316
 571	1	7	0.164889	43.8745	27.7417	15.2009
 572	1	7	0.175264	40.0651	29.6824	14.3166
 573	1	7	0.1582	39.1118	28.7194	16.3948
 574	1	7	0.150763	42.564	24.8463	11.6898
 575	1	7	0.144868	41.602	26.8591	12.7901
 576	1	7	0.134072	45.3386	29.0041	12.1005
 577	1	5	-0.300668	49.9813	21.7333	10.7601
 578	1	5	-0.243237	49.8785	24.8764	6.71689
 579	1	9	0.021835	47.891	27.1068	7.89981
 580	1	9	0.012312	46.3549	26.2364	8.04709
 581	1	9	0.041777	47.4073	25.8907	6.70115
 582	1	9	0.110598	49.4176	24.3368	5.87817
 583	1	9	0.08293	49.7352	25.9501	6.54423
 584	1	9	0.082252	50.9628	24.7236	6.65651
 585	1	9	0.027698	48.6682	23.02	12.6737
 586	1	9	0.017051	47.1015	22.5057	12.0185
 587	1	9	0.037874	47.3736	24.1774	12.5413
 588	1	9	0.095908	50.7769	22.0574	11.4445
 589	1	9	0.127068	49.2357	21.1832	11.3479
 590	1	9	0.099095	50.4101	20.988	10.0799
 591	1	1	-0.024347	43.1386	17.0529	28.8458
 592	1	1	-0.071478	42.7517	18.356	28.4348
 593	1	1	-0.180016	43.3808	19.4721	29.0585
 594	1	2	-0.370097	44.5004	14.5383	30.0346
 595	1	1	0.010306	44.1637	16.9179	29.7853
 596	1	1	-0.071748	44.4196	19.3119	29.9992
 597	1	2	-0.403598	46.7137	18.2175	31.8041
 598	1	1	0.055994	44.8056	18.0114	30.3292
 599	1	3	0.021521	44.8028	15.6875	30.3088
 600	1	4	0.466017	45.8337	16.1392	31.1285
 601	1	3	0.096621	45.9054	17.5287	31.2027
 602	1	1	-0.099438	44.2377	20.5425	25.1021
 603	1	5	-0.089685	41.6929	18.6102	27.3185
 604	1	1	-0.037281	42.2723	19.6581	26.3236
 605	1	1	-0.08188	43.6651	19.6443	26.0222
 606	1	1	-0.106561	43.3874	21.4396	24.453
 607	1	1	-0.037628	41.4429	20.5712	25.6202
 608	1	1	-0.12234	42.029	21.4388	24.6906
 609	1	5	0.388954	40.3828	19.0961	28.0486
 610	1	5	0.307788	41.369	17.3329	26.4529
 611	1	6	-0.129718	39.2849	19.0887	27.2602
 612	1	6	-0.129089	40.5186	20.3546	28.5247
 613	1	6	-0.119089	40.0906	18.311	29.111
 614	1	6	-0.103894	42.4968	16.76	25.9734
 615	1	6	-0.097852	40.6174	17.6311	25.3685
 616	1	6	-0.104555	40.6908	16.3862	27.1401
 617	1	3	0.521254	41.3961	22.4041	23.7532
 618	1	3	0.53569	43.6773	22.4242	23.3799
 619	1	4	0.027822	42.4379	22.9315	22.9931
 620	1	2	-0.468874	40.2021	22.6246	23.6464
 621	1	2	-0.477974	44.7816	22.6672	22.9221
 622	1	1	-0.359831	42.2478	23.8208	21.8858
 623	1	1	0.131035	42.2681	25.2195	22.0946
 624	1	1	-0.120983	42.176	26.0901	20.9834
 625	1	1	0.127261	42.0553	23.2829	20.591
 626	1	1	-0.127195	41.867	24.1539	19.4937
 627	1	1	0.144798	41.963	25.552	19.693
 628	1	5	-0.020676	42.0251	21.7645	20.3659
 629	1	5	-0.019785	42.3917	25.7956	23.5098
 630	1	7	0.164889	42.7015	16.1476	28.4396
 631	1	7	0.175264	43.0891	20.4833	28.781
 632	1	7	0.1582	44.926	20.166	30.4438
 633	1	7	0.150763	45.3001	20.5139	24.8689
 634	1	7	0.144868	44.3193	18.9155	26.4932
 635	1	7	0.134072	40.3655	20.596	25.7463
 636	1	5	-0.300668	42.3087	27.6122	21.1451
 637	1	5	-0.243237	41.5949	23.5899	18.0875
 638	1	9	0.021835	42.4697	21.1853	21.1812
 639	1	9	0.012312	42.5859	21.4841	19.4659
 640	1	9	0.041777	40.9926	21.4147	20.2434
 641	1	9	0.110598	42.5371	23.3908	17.559
 642	1	9	0.08293	41.0238	22.6544	18.1167
 643	1	9	0.082252	40.9984	24.2649	17.4628
 644	1	9	0.027698	42.1706	25.0713	24.3
 645	1	9	0.017051	41.6864	26.6216	23.6619
 646	1	9	0.037874	43.4022	26.178	23.6867
 647	1	9	0.095908	42.9694	28.0329	20.3777
 648	1	9	0.127068	41.3326	28.109	21.0553
 649	1	9	0.099095	42.7501	27.9173	22.0986
 650	1	1	-0.024347	54.9613	12.7997	33.6577
 651	1	1	-0.071478	55.4394	12.445	34.9475
 652	1	1	-0.180016	56.1648	13.4221	35.6872
 653	1	2	-0.370097	53.7612	14.2405	31.2104
 654	1	1	0.010306	55.0854	14.1188	33.2251
 655	1	1	-0.071748	56.3152	14.7435	35.2094
 656	1	2	-0.403598	55.9625	17.4695	33.7262