pySIMM System Object

1890 atoms
2049 bonds
3648 angles
5308 dihedrals
512 impropers

9 atom types
11 bond types
18 angle types
7 dihedral types
4 improper types

-194.602584 194.602584 xlo xhi
-194.602584 194.602584 ylo yhi
-194.602584 194.602584 zlo zhi

Masses

   1	12.01	# ca
   2	16.0	# o
   3	12.01	# c
   4	14.01	# n
   5	12.01	# c3
   6	19.0	# f
   7	1.008	# ha
   8	1.008	# hn
   9	1.008	# hc

Pair Coeffs

   1	0.086	3.3996695084235347	# ca
   2	0.21	2.959921901149463	# o
   3	0.086	3.3996695084235347	# c
   4	0.17	3.249998523775958	# n
   5	0.1094	3.3996695084235347	# c3
   6	0.061	3.1181455134911875	# f
   7	0.015	2.59964245953351	# ha
   8	0.0157	1.069078461768407	# hn
   9	0.0157	2.649532787749369	# hc

Bond Coeffs

   1	321.0	1.5156	# c3,ca
   2	300.9	1.5375	# c3,c3
   3	345.8	1.086	# ca,ha
   4	384.2	1.4121	# ca,n
   5	637.7	1.2183	# c,o
   6	330.6	1.0969	# c3,hc
   7	356.9	1.3497	# c3,f
   8	403.2	1.0129	# hn,n
   9	461.1	1.3984	# ca,ca
  10	427.6	1.3789	# c,n
  11	345.9	1.4906	# c,ca

Angle Coeffs

   1	70.89	107.36	# f,c3,f
   2	63.82	123.71	# c,n,ca
   3	68.72	122.6	# ca,c,o
   4	48.18	119.88	# ca,ca,ha
   5	67.87	120.19	# ca,ca,n
   6	67.68	115.25	# ca,c,n
   7	46.8	110.47	# ca,c3,hc
   8	48.33	117.55	# c,n,hn
   9	39.4	107.58	# hc,c3,hc
  10	74.22	123.05	# n,c,o
  11	62.86	111.51	# c3,c3,c3
  12	64.28	120.33	# c,ca,ca
  13	63.56	112.24	# ca,c3,ca
  14	63.15	112.07	# c3,c3,ca
  15	66.11	109.24	# c3,c3,f
  16	66.62	120.02	# ca,ca,ca
  17	63.74	127.08	# c,n,c
  18	63.53	120.77	# c3,ca,ca

Dihedral Coeffs

   1	2	2.5	2	180	2.0	1	0	# hn,n,c,o
   2	1	3.625	2	180	# X,ca,ca,X
   3	1	1.0	2	180	# X,c,ca,X
   4	1	0.0	2	0	# X,c3,ca,X
   5	1	0.15555555555555556	3	0	# X,c3,c3,X
   6	1	2.5	2	180	# X,c,n,X
   7	1	0.45	2	180	# X,ca,n,X

Improper Coeffs

   1	10.5	-1	2	# c,X,X,o
   2	1.1	-1	2	# n,X,X,hn
   3	1.1	-1	2	# ca,ca,ca,c3
   4	1.1	-1	2	# ca,X,X,ha

Atoms

   1	1	1	-0.024347	-49.224	-80.0416	-40.4734
   2	1	1	-0.071478	-50.5857	-80.334	-40.7616
   3	1	1	-0.180016	-51.3008	-79.4445	-41.6124
   4	1	2	-0.370097	-46.3677	-78.8273	-40.2159
   5	1	1	0.010306	-48.654	-78.8798	-41.0079
   6	1	1	-0.071748	-50.707	-78.2816	-42.1415
   7	1	2	-0.403598	-48.8072	-75.9583	-42.9348
   8	1	1	0.055994	-49.3752	-78.0234	-41.8149
   9	1	3	0.021521	-47.2774	-78.3374	-40.8639
  10	1	4	0.466017	-47.2714	-77.1632	-41.6168
  11	1	3	0.096621	-48.4981	-76.8993	-42.2215
  12	1	1	-0.099438	-54.1559	-79.6015	-38.4977
  13	1	5	-0.089685	-51.312	-81.6059	-40.231
  14	1	1	-0.037281	-52.7429	-81.1926	-39.7687
  15	1	1	-0.08188	-52.8966	-80.0234	-38.9703
  16	1	1	-0.106561	-55.273	-80.3727	-38.832
  17	1	1	-0.037628	-53.9046	-81.9525	-40.0728
  18	1	1	-0.12234	-55.1476	-81.5127	-39.5979
  19	1	5	0.388954	-50.6126	-82.2547	-38.9746
  20	1	5	0.307788	-51.3048	-82.6425	-41.4196
  21	1	6	-0.129718	-50.346	-81.3347	-38.0197
  22	1	6	-0.129089	-49.4447	-82.8694	-39.2681
  23	1	6	-0.119089	-51.401	-83.186	-38.3912
  24	1	6	-0.103894	-50.0672	-82.7872	-41.9467
  25	1	6	-0.097852	-52.1001	-82.2444	-42.4384
  26	1	6	-0.104555	-51.7118	-83.8787	-41.0532
  27	1	3	0.521254	-56.4992	-82.1154	-39.7522
  28	1	3	0.53569	-56.7073	-80.2097	-38.4657
  29	1	4	0.027822	-57.3706	-81.2903	-39.0436
  30	1	2	-0.468874	-56.7621	-83.1346	-40.3673
  31	1	2	-0.477974	-57.1764	-79.3172	-37.7794
  32	1	1	-0.359831	-58.7762	-81.547	-38.8964
  33	1	1	0.131035	-59.2377	-82.238	-37.7497
  34	1	1	-0.120983	-60.6194	-82.5012	-37.6054
  35	1	1	0.127261	-59.6814	-81.1233	-39.8994
  36	1	1	-0.127195	-61.0572	-81.4156	-39.7596
  37	1	1	0.144798	-61.5061	-82.0935	-38.615
  38	1	5	-0.020676	-59.1694	-80.3743	-41.1332
  39	1	5	-0.019785	-58.234	-82.6771	-36.6787
  40	1	7	0.164889	-48.6001	-80.6819	-39.8586
  41	1	7	0.175264	-52.3356	-79.6568	-41.8734
  42	1	7	0.1582	-51.2577	-77.6027	-42.7892
  43	1	7	0.150763	-54.2592	-78.7096	-37.883
  44	1	7	0.144868	-52.0241	-79.4308	-38.7067
  45	1	7	0.134072	-53.8694	-82.8685	-40.653
  46	1	5	-0.300668	-61.1922	-83.2222	-36.3838
  47	1	5	-0.243237	-62.0858	-81.0205	-40.82
  48	1	9	0.021835	-58.8489	-81.0808	-41.9085
  49	1	9	0.012312	-58.3188	-79.7239	-40.8984
  50	1	9	0.041777	-59.9318	-79.7205	-41.5708
  51	1	9	0.110598	-62.2279	-79.9328	-40.8482
  52	1	9	0.08293	-61.7781	-81.3526	-41.8195
  53	1	9	0.082252	-63.0671	-81.4705	-40.6219
  54	1	9	0.027698	-57.8757	-81.8111	-36.1088
  55	1	9	0.017051	-57.3623	-83.1688	-37.127
  56	1	9	0.037874	-58.6489	-83.3916	-35.9608
  57	1	9	0.095908	-60.8231	-84.2538	-36.3229
  58	1	9	0.127068	-60.923	-82.7051	-35.454
  59	1	9	0.099095	-62.288	-83.2737	-36.4164
  60	1	1	-0.024347	-37.0354	-68.1529	-44.5802
  61	1	1	-0.071478	-37.752	-69.38	-44.54
  62	1	1	-0.180016	-38.3773	-69.8347	-45.7357
  63	1	2	-0.370097	-35.7156	-65.4334	-45.3152
  64	1	1	0.010306	-36.9991	-67.4305	-45.7789
  65	1	1	-0.071748	-38.3243	-69.0934	-46.933
  66	1	2	-0.403598	-37.8273	-66.9763	-49.1535
  67	1	1	0.055994	-37.6262	-67.8851	-46.9214
  68	1	3	0.021521	-36.3533	-66.1287	-46.088
  69	1	4	0.466017	-36.6489	-65.8868	-47.4294
  70	1	3	0.096621	-37.4097	-66.8996	-48.0092
  71	1	1	-0.099438	-41.7322	-70.1426	-43.1775
  72	1	5	-0.089685	-37.8532	-70.264	-43.2612
  73	1	1	-0.037281	-39.3291	-70.74	-43.1231
  74	1	1	-0.08188	-40.3743	-69.7895	-43.3019
  75	1	1	-0.106561	-42.0345	-71.4699	-42.8635
  76	1	1	-0.037628	-39.6833	-72.0752	-42.7911
  77	1	1	-0.12234	-41.0392	-72.4064	-42.6773
  78	1	5	0.388954	-37.516	-69.4956	-41.9255
  79	1	5	0.307788	-36.8216	-71.4412	-43.4554
  80	1	6	-0.129718	-38.1976	-68.3314	-41.8299
  81	1	6	-0.129089	-36.2037	-69.1971	-41.7977
  82	1	6	-0.119089	-37.8559	-70.2198	-40.8346
  83	1	6	-0.103894	-36.6381	-72.1815	-42.339
  84	1	6	-0.097852	-35.6021	-70.978	-43.8135
  85	1	6	-0.104555	-37.2032	-72.2891	-44.4376
  86	1	3	0.521254	-41.6835	-73.7098	-42.3623
  87	1	3	0.53569	-43.3481	-72.1379	-42.6693
  88	1	4	0.027822	-43.0556	-73.4685	-42.3798
  89	1	2	-0.468874	-41.1071	-74.7664	-42.1692
  90	1	2	-0.477974	-44.443	-71.6082	-42.7576
  91	1	1	-0.359831	-44.0595	-74.4672	-42.1523
  92	1	1	0.131035	-44.7221	-74.5163	-40.904
  93	1	1	-0.120983	-45.8053	-75.4084	-40.7235
  94	1	1	0.127261	-44.4064	-75.3571	-43.1949
  95	1	1	-0.127195	-45.4212	-76.3176	-42.9811
  96	1	1	0.144798	-46.145	-76.3059	-41.7647
  97	1	5	-0.020676	-43.6967	-75.2785	-44.5535
  98	1	5	-0.019785	-44.2921	-73.5845	-39.7639
  99	1	7	0.164889	-36.5134	-67.7461	-43.7204
 100	1	7	0.175264	-38.9158	-70.7802	-45.7409
 101	1	7	0.1582	-38.8075	-69.4425	-47.8432
 102	1	7	0.150763	-42.5238	-69.4091	-43.3184
 103	1	7	0.144868	-40.1325	-68.7571	-43.5424
 104	1	7	0.134072	-38.9459	-72.8526	-42.6197
 105	1	5	-0.300668	-46.6117	-75.4121	-39.4123
 106	1	5	-0.243237	-45.771	-77.3414	-44.0742
 107	1	9	0.021835	-43.2688	-74.2919	-44.7617
 108	1	9	0.012312	-44.3858	-75.4749	-45.3836
 109	1	9	0.041777	-42.8827	-76.0118	-44.6072
 110	1	9	0.110598	-46.5311	-76.94	-44.7582
 111	1	9	0.08293	-44.8965	-77.6239	-44.6728
 112	1	9	0.082252	-46.1509	-78.2852	-43.6648
 113	1	9	0.027698	-44.9466	-72.7056	-39.712
 114	1	9	0.017051	-43.2616	-73.2259	-39.8654
 115	1	9	0.037874	-44.3286	-74.0948	-38.7941
 116	1	9	0.095908	-47.6731	-75.6395	-39.5669
 117	1	9	0.127068	-46.2091	-76.1551	-38.7097
 118	1	9	0.099095	-46.6036	-74.4386	-38.908
 119	1	1	-0.024347	-32.4906	-54.796	-54.8695
 120	1	1	-0.071478	-32.4713	-55.7088	-53.7797
 121	1	1	-0.180016	-31.3304	-56.5458	-53.6217
 122	1	2	-0.370097	-31.9268	-53.0955	-57.413
 123	1	1	0.010306	-31.4023	-54.7717	-55.7495
 124	1	1	-0.071748	-30.2401	-56.4961	-54.5129
 125	1	2	-0.403598	-28.2397	-55.852	-56.8022
 126	1	1	0.055994	-30.3071	-55.5931	-55.5744
 127	1	3	0.021521	-31.1699	-53.9345	-56.9546
 128	1	4	0.466017	-29.9131	-54.3163	-57.4224
 129	1	3	0.096621	-29.3238	-55.3128	-56.6488
 130	1	1	-0.099438	-34.3551	-59.5334	-53.5552
 131	1	5	-0.089685	-33.6201	-55.8106	-52.732
 132	1	1	-0.037281	-33.9491	-57.3178	-52.5247
 133	1	1	-0.08188	-34.0372	-58.1654	-53.6657
 134	1	1	-0.106561	-34.5959	-60.0465	-52.278
 135	1	1	-0.037628	-34.2183	-57.8788	-51.2477
 136	1	1	-0.12234	-34.5317	-59.2413	-51.1601
 137	1	5	0.388954	-34.9657	-55.1293	-53.1921
 138	1	5	0.307788	-33.0947	-55.0898	-51.43
 139	1	6	-0.129718	-35.3436	-55.5469	-54.4217
 140	1	6	-0.129089	-34.891	-53.7799	-53.2343
 141	1	6	-0.119089	-35.9901	-55.4353	-52.3634
 142	1	6	-0.103894	-32.5736	-53.8742	-51.7139
 143	1	6	-0.097852	-32.1076	-55.7907	-50.8273
 144	1	6	-0.104555	-34.0564	-54.8854	-50.5022
 145	1	3	0.521254	-34.8619	-60.0736	-49.9723
 146	1	3	0.53569	-34.9661	-61.4204	-51.8455
 147	1	4	0.027822	-35.1083	-61.3551	-50.4612
 148	1	2	-0.468874	-34.9113	-59.6865	-48.8175
 149	1	2	-0.477974	-35.1027	-62.3895	-52.5729
 150	1	1	-0.359831	-35.4817	-62.4754	-49.6453
 151	1	1	0.131035	-36.8127	-62.5874	-49.1812
 152	1	1	-0.120983	-37.1814	-63.6908	-48.3764
 153	1	1	0.127261	-34.5216	-63.4675	-49.3396
 154	1	1	-0.127195	-34.9149	-64.6236	-48.6257
 155	1	1	0.144798	-36.2408	-64.7221	-48.1387
 156	1	5	-0.020676	-33.0679	-63.3012	-49.8005
 157	1	5	-0.019785	-37.8505	-61.5177	-49.5463
 158	1	7	0.164889	-33.3112	-54.11	-55.052
 159	1	7	0.175264	-31.2821	-57.2457	-52.7901
 160	1	7	0.1582	-29.3673	-57.1329	-54.3848
 161	1	7	0.150763	-34.4229	-60.1722	-54.4338
 162	1	7	0.144868	-33.8619	-57.758	-54.6586
 163	1	7	0.134072	-34.1995	-57.292	-50.3351
 164	1	5	-0.300668	-38.6001	-63.7892	-47.7881
 165	1	5	-0.243237	-33.9106	-65.7601	-48.369
 166	1	9	0.021835	-32.9008	-63.8147	-50.7554
 167	1	9	0.012312	-32.3592	-63.7059	-49.0682
 168	1	9	0.041777	-32.7812	-62.2518	-49.9301
 169	1	9	0.110598	-33.3511	-65.5828	-47.4404
 170	1	9	0.08293	-34.3859	-66.7445	-48.2881
 171	1	9	0.082252	-33.1839	-65.8628	-49.184
 172	1	9	0.027698	-38.8505	-61.9465	-49.6801
 173	1	9	0.017051	-37.6264	-61.01	-50.4912
 174	1	9	0.037874	-37.9104	-60.7529	-48.7623
 175	1	9	0.095908	-38.6384	-64.3571	-46.8507
 176	1	9	0.127068	-39.0111	-62.8032	-47.5374
 177	1	9	0.099095	-39.2864	-64.2683	-48.4996
 178	1	1	-0.024347	-23.0479	-47.9368	-65.3166
 179	1	1	-0.071478	-23.6453	-48.2569	-66.5642
 180	1	1	-0.180016	-22.8658	-48.0939	-67.7461
 181	1	2	-0.370097	-21.2102	-47.0758	-62.9629
 182	1	1	0.010306	-21.7242	-47.4875	-65.2892
 183	1	1	-0.071748	-21.5301	-47.6423	-67.6943
 184	1	2	-0.403598	-18.7191	-46.5937	-66.853
 185	1	1	0.055994	-20.984	-47.3436	-66.4443
 186	1	3	0.021521	-20.8826	-47.0774	-64.1377
 187	1	4	0.466017	-19.6628	-46.7016	-64.6981
 188	1	3	0.096621	-19.6361	-46.8346	-66.0846
 189	1	1	-0.099438	-24.5041	-51.8308	-64.3595
 190	1	5	-0.089685	-25.1353	-48.7104	-66.585
 191	1	1	-0.037281	-25.3318	-49.7736	-65.465
 192	1	1	-0.08188	-24.3733	-50.8183	-65.3313
 193	1	1	-0.106561	-25.6205	-51.7896	-63.5197
 194	1	1	-0.037628	-26.4556	-49.7779	-64.5966
 195	1	1	-0.12234	-26.5645	-50.7909	-63.6366
 196	1	5	0.388954	-25.5762	-49.4085	-67.929
 197	1	5	0.307788	-25.9932	-47.4023	-66.378
 198	1	6	-0.129718	-24.7175	-50.3885	-68.2923
 199	1	6	-0.129089	-25.6669	-48.5533	-68.9726
 200	1	6	-0.119089	-26.7876	-49.9987	-67.8093
 201	1	6	-0.103894	-25.6102	-46.4183	-67.2235
 202	1	6	-0.097852	-25.8511	-46.8994	-65.1306
 203	1	6	-0.104555	-27.3163	-47.59	-66.5832
 204	1	3	0.521254	-27.609	-51.0174	-62.6036
 205	1	3	0.53569	-26.0313	-52.6936	-62.4113
 206	1	4	0.027822	-27.216	-52.1592	-61.91
 207	1	2	-0.468874	-28.587	-50.3164	-62.4077
 208	1	2	-0.477974	-25.4281	-53.6813	-62.0268
 209	1	1	-0.359831	-27.922	-52.6924	-60.7816
 210	1	1	0.131035	-28.8418	-53.7504	-60.9648
 211	1	1	-0.120983	-29.4936	-54.3117	-59.8411
 212	1	1	0.127261	-27.6835	-52.1509	-59.4977
 213	1	1	-0.127195	-28.3998	-52.6503	-58.3861
 214	1	1	0.144798	-29.2772	-53.7472	-58.5604
 215	1	5	-0.020676	-26.6566	-51.0266	-59.3053
 216	1	5	-0.019785	-29.1104	-54.3058	-62.3694
 217	1	7	0.164889	-23.5973	-48.0222	-64.3818
 218	1	7	0.175264	-23.2807	-48.3001	-68.7273
 219	1	7	0.1582	-20.9372	-47.514	-68.5974
 220	1	7	0.150763	-23.7641	-52.623	-64.2629
 221	1	7	0.144868	-23.5124	-50.8513	-65.9946
 222	1	7	0.134072	-27.2391	-49.0289	-64.6461
 223	1	5	-0.300668	-30.4417	-55.5131	-60.0071
 224	1	5	-0.243237	-28.2075	-52.0305	-56.9912
 225	1	9	0.021835	-27.1542	-50.0501	-59.2585
 226	1	9	0.012312	-25.9081	-50.978	-60.1035
 227	1	9	0.041777	-26.0842	-51.1611	-58.3798
 228	1	9	0.110598	-27.9827	-50.9579	-57.0406
 229	1	9	0.08293	-29.1057	-52.0983	-56.3664
 230	1	9	0.082252	-27.3856	-52.5216	-56.454
 231	1	9	0.027698	-28.4976	-55.196	-62.5574
 232	1	9	0.017051	-28.8992	-53.5836	-63.1657
 233	1	9	0.037874	-30.1628	-54.5836	-62.5002
 234	1	9	0.095908	-31.4617	-55.1756	-60.235
 235	1	9	0.127068	-30.1231	-56.1837	-60.8149
 236	1	9	0.099095	-30.4937	-56.1517	-59.1179
 237	1	1	-0.024347	-8.6126	-41.1605	-58.2751
 238	1	1	-0.071478	-9.51983	-41.5796	-59.285
 239	1	1	-0.180016	-10.3044	-40.5883	-59.9408
 240	1	2	-0.370097	-6.90337	-39.6231	-56.186
 241	1	1	0.010306	-8.55176	-39.802	-57.945
 242	1	1	-0.071748	-10.2236	-39.2246	-59.5951
 243	1	2	-0.403598	-9.54998	-36.4648	-58.33
 244	1	1	0.055994	-9.33545	-38.8612	-58.5822
 245	1	3	0.021521	-7.71522	-39.1065	-56.935
 246	1	4	0.466017	-8.06644	-37.7611	-57.0397
 247	1	3	0.096621	-9.03784	-37.5254	-58.0094
 248	1	1	-0.099438	-13.4597	-43.1854	-58.9266
 249	1	5	-0.089685	-9.66247	-43.064	-59.7325
 250	1	1	-0.037281	-11.1816	-43.3706	-59.8835
 251	1	1	-0.08188	-12.0719	-42.9526	-58.8533
 252	1	1	-0.106561	-13.9506	-43.8533	-60.0515
 253	1	1	-0.037628	-11.7222	-44.0665	-60.9972
 254	1	1	-0.12234	-13.1047	-44.2815	-61.053
 255	1	5	0.388954	-9.10594	-44.1041	-58.6851
 256	1	5	0.307788	-8.84782	-43.1974	-61.0766
 257	1	6	-0.129718	-9.57849	-43.866	-57.4405
 258	1	6	-0.129089	-7.75664	-44.1093	-58.6006
 259	1	6	-0.119089	-9.47843	-45.3675	-58.9931
 260	1	6	-0.103894	-7.59865	-42.6935	-60.952
 261	1	6	-0.097852	-9.4268	-42.5114	-62.0882
 262	1	6	-0.104555	-8.70683	-44.4767	-61.4907
 263	1	3	0.521254	-13.9273	-44.9335	-62.1052
 264	1	3	0.53569	-15.3434	-44.2176	-60.4269
 265	1	4	0.027822	-15.2471	-44.8461	-61.6671
 266	1	2	-0.468874	-13.5096	-45.418	-63.143
 267	1	2	-0.477974	-16.3481	-43.9676	-59.7827
 268	1	1	-0.359831	-16.3727	-45.3161	-62.424
 269	1	1	0.131035	-16.6321	-46.7038	-62.5047
 270	1	1	-0.120983	-17.7001	-47.1692	-63.3074
 271	1	1	0.127261	-17.1989	-44.3841	-63.094
 272	1	1	-0.127195	-18.3278	-44.8411	-63.8128
 273	1	1	0.144798	-18.5573	-46.2332	-63.9344
 274	1	5	-0.020676	-16.8797	-42.8839	-63.035
 275	1	5	-0.019785	-15.7555	-47.7001	-61.7352
 276	1	7	0.164889	-7.9606	-41.8471	-57.7452
 277	1	7	0.175264	-10.9898	-40.8763	-60.7353
 278	1	7	0.1582	-10.8263	-38.4706	-60.0969
 279	1	7	0.150763	-14.1325	-42.8525	-58.1385
 280	1	7	0.144868	-11.6845	-42.429	-57.9826
 281	1	7	0.134072	-11.1094	-44.4319	-61.8147
 282	1	5	-0.300668	-17.946	-48.6775	-63.4887
 283	1	5	-0.243237	-19.2827	-43.8335	-64.4756
 284	1	9	0.021835	-15.8144	-42.6803	-62.8786
 285	1	9	0.012312	-17.4353	-42.3995	-62.2223
 286	1	9	0.041777	-17.136	-42.3742	-63.9709
 287	1	9	0.110598	-19.4162	-42.9344	-63.8604
 288	1	9	0.08293	-18.8981	-43.5169	-65.4543
 289	1	9	0.082252	-20.2945	-44.2264	-64.6285
 290	1	9	0.027698	-15.275	-47.2563	-60.8563
 291	1	9	0.017051	-14.9653	-48.1031	-62.3807
 292	1	9	0.037874	-16.3424	-48.542	-61.3498
 293	1	9	0.095908	-18.3741	-48.9255	-64.4675
 294	1	9	0.127068	-17.0186	-49.2607	-63.4334
 295	1	9	0.099095	-18.6293	-49.0582	-62.7176
 296	1	1	-0.024347	-2.68894	-27.4036	-49.356
 297	1	1	-0.071478	-3.57216	-28.4964	-49.5681
 298	1	1	-0.180016	-4.97145	-28.2339	-49.6053
 299	1	2	-0.370097	-1.31817	-24.6341	-49.1151
 300	1	1	0.010306	-3.22253	-26.1158	-49.2476
 301	1	1	-0.071748	-5.48811	-26.9279	-49.4869
 302	1	2	-0.403598	-5.88841	-23.8481	-49.3694
 303	1	1	0.055994	-4.58042	-25.881	-49.3197
 304	1	3	0.021521	-2.52422	-24.8097	-49.1556
 305	1	4	0.466017	-3.53814	-23.8553	-49.2091
 306	1	3	0.096621	-4.81162	-24.416	-49.2814
 307	1	1	-0.099438	-4.62452	-30.1465	-53.3481
 308	1	5	-0.089685	-3.07828	-29.9582	-49.7872
 309	1	1	-0.037281	-3.80556	-30.5278	-51.0406
 310	1	1	-0.08188	-3.9912	-29.6879	-52.1764
 311	1	1	-0.106561	-5.05529	-31.4749	-53.3788
 312	1	1	-0.037628	-4.23992	-31.8772	-51.1256
 313	1	1	-0.12234	-4.85989	-32.315	-52.3026
 314	1	5	0.388954	-3.40066	-30.7422	-48.4565
 315	1	5	0.307788	-1.53617	-30.0666	-50.0954
 316	1	6	-0.129718	-2.81341	-31.9578	-48.3884
 317	1	6	-0.129089	-4.72937	-30.9384	-48.2988
 318	1	6	-0.119089	-2.98504	-30.0568	-47.367
 319	1	6	-0.103894	-0.760883	-29.7648	-49.0294
 320	1	6	-0.097852	-1.16929	-29.2476	-51.1076
 321	1	6	-0.104555	-1.18844	-31.314	-50.4856
 322	1	3	0.521254	-5.37668	-33.6604	-52.6677
 323	1	3	0.53569	-5.71156	-32.2491	-54.4651
 324	1	4	0.027822	-5.85735	-33.5435	-53.9705
 325	1	2	-0.468874	-5.36512	-34.6493	-51.955
 326	1	2	-0.477974	-6.01898	-31.8221	-55.5653
 327	1	1	-0.359831	-6.4088	-34.6313	-54.7271
 328	1	1	0.131035	-7.70592	-35.1086	-54.4284
 329	1	1	-0.120983	-8.23335	-36.1996	-55.1581
 330	1	1	0.127261	-5.64749	-35.2048	-55.772
 331	1	1	-0.127195	-6.21512	-36.2228	-56.5721
 332	1	1	0.144798	-7.49682	-36.7277	-56.2461
 333	1	5	-0.020676	-4.22087	-34.7104	-56.0465
 334	1	5	-0.019785	-8.53435	-34.4499	-53.3178
 335	1	7	0.164889	-1.61062	-27.5125	-49.3115
 336	1	7	0.175264	-5.67245	-29.0514	-49.7619
 337	1	7	0.1582	-6.55533	-26.7276	-49.5553
 338	1	7	0.150763	-4.7622	-29.4964	-54.21
 339	1	7	0.144868	-3.63511	-28.6611	-52.1573
 340	1	7	0.134072	-4.09738	-32.5891	-50.3191
 341	1	5	-0.300668	-9.60746	-36.7898	-54.7947
 342	1	5	-0.243237	-5.44232	-36.7833	-57.7786
 343	1	9	0.021835	-4.22572	-33.8965	-56.7821
 344	1	9	0.012312	-3.57233	-35.5076	-56.4279
 345	1	9	0.041777	-3.72282	-34.3432	-55.1422
 346	1	9	0.110598	-4.75131	-37.5776	-57.4651
 347	1	9	0.08293	-6.09181	-37.1983	-58.5579
 348	1	9	0.082252	-4.85487	-36.0063	-58.2835
 349	1	9	0.027698	-9.60523	-34.4472	-53.5521
 350	1	9	0.017051	-8.27084	-33.3982	-53.1582
 351	1	9	0.037874	-8.39616	-34.9779	-52.3662
 352	1	9	0.095908	-9.79717	-36.7524	-53.7148
 353	1	9	0.127068	-10.415	-36.2394	-55.2971
 354	1	9	0.099095	-9.70704	-37.8486	-55.0621
 355	1	1	-0.024347	-0.708751	-11.8043	-48.4699
 356	1	1	-0.071478	-0.896421	-11.4524	-49.8325
 357	1	1	-0.180016	-1.19948	-10.0942	-50.1409
 358	1	2	-0.370097	-0.418617	-11.9283	-45.381
 359	1	1	0.010306	-0.848419	-10.8216	-47.4859
 360	1	1	-0.071748	-1.33313	-9.11817	-49.1309
 361	1	2	-0.403598	-1.43307	-7.5247	-46.4565
 362	1	1	0.055994	-1.15292	-9.51466	-47.8044
 363	1	3	0.021521	-0.692134	-10.9226	-46.0144
 364	1	4	0.466017	-0.908272	-9.63016	-45.5389
 365	1	3	0.096621	-1.20209	-8.71921	-46.5515
 366	1	1	-0.099438	-3.60238	-14.722	-49.4606
 367	1	5	-0.089685	-0.726937	-12.5575	-50.9182
 368	1	1	-0.037281	-1.52355	-13.8114	-50.4531
 369	1	1	-0.08188	-2.81815	-13.6326	-49.8871
 370	1	1	-0.106561	-3.07861	-16.0065	-49.6249
 371	1	1	-0.037628	-1.03842	-15.1367	-50.617
 372	1	1	-0.12234	-1.83614	-16.2061	-50.1899
 373	1	5	0.388954	0.82522	-12.8074	-51.056
 374	1	5	0.307788	-1.31603	-12.1662	-52.327
 375	1	6	-0.129718	1.33488	-13.4137	-49.96
 376	1	6	-0.129089	1.50321	-11.6452	-51.1951
 377	1	6	-0.119089	1.15666	-13.5717	-52.1208
 378	1	6	-0.103894	-0.60181	-11.2053	-52.9559
 379	1	6	-0.097852	-2.59036	-11.7227	-52.2326
 380	1	6	-0.104555	-1.35323	-13.2276	-53.1647
 381	1	3	0.521254	-1.58517	-17.6713	-50.2461
 382	1	3	0.53569	-3.66465	-17.3333	-49.2986
 383	1	4	0.027822	-2.71703	-18.2725	-49.6984
 384	1	2	-0.468874	-0.596858	-18.213	-50.7114
 385	1	2	-0.477974	-4.75194	-17.5318	-48.7829
 386	1	1	-0.359831	-2.89671	-19.6906	-49.5728
 387	1	1	0.131035	-3.18958	-20.4595	-50.7232
 388	1	1	-0.120983	-3.34352	-21.8598	-50.6059
 389	1	1	0.127261	-2.78888	-20.3006	-48.3003
 390	1	1	-0.127195	-3.03374	-21.6875	-48.1674
 391	1	1	0.144798	-3.29898	-22.4584	-49.3235
 392	1	5	-0.020676	-2.42579	-19.4661	-47.0651
 393	1	5	-0.019785	-3.3366	-19.7859	-52.0942
 394	1	7	0.164889	-0.457359	-12.8195	-48.1714
 395	1	7	0.175264	-1.32834	-9.7643	-51.166
 396	1	7	0.1582	-1.55956	-8.0808	-49.368
 397	1	7	0.150763	-4.58931	-14.5746	-49.0263
 398	1	7	0.144868	-3.22951	-12.6322	-49.7779
 399	1	7	0.134072	-0.0761103	-15.3565	-51.0678
 400	1	5	-0.300668	-3.58131	-22.7261	-51.8571
 401	1	5	-0.243237	-2.98788	-22.3646	-46.7872
 402	1	9	0.021835	-1.92533	-18.5228	-47.3095
 403	1	9	0.012312	-1.73156	-20.0032	-46.4076
 404	1	9	0.041777	-3.32477	-19.2235	-46.4849
 405	1	9	0.110598	-3.29215	-21.6893	-45.9782
 406	1	9	0.08293	-3.66415	-23.2242	-46.7109
 407	1	9	0.082252	-1.97251	-22.7179	-46.5627
 408	1	9	0.027698	-3.61527	-18.7287	-52.0274
 409	1	9	0.017051	-4.12498	-20.2551	-52.6947
 410	1	9	0.037874	-2.39768	-19.8485	-52.6582
 411	1	9	0.095908	-3.19765	-23.7481	-51.7541
 412	1	9	0.127068	-4.65299	-22.7912	-52.0906
 413	1	9	0.099095	-3.06991	-22.3239	-52.7403
 414	1	1	-0.024347	0.292166	-6.7284	-31.9086
 415	1	1	-0.071478	-0.448935	-6.99409	-33.0913
 416	1	1	-0.180016	-1.25644	-8.16672	-33.128
 417	1	2	-0.370097	1.71088	-6.77038	-29.155
 418	1	1	0.010306	0.220223	-7.63555	-30.8473
 419	1	1	-0.071748	-1.3228	-9.06249	-32.0402
 420	1	2	-0.403598	-0.940147	-10.5787	-29.3408
 421	1	1	0.055994	-0.56382	-8.76936	-30.9053
 422	1	3	0.021521	0.920173	-7.61499	-29.5405
 423	1	4	0.466017	0.497815	-8.76952	-28.8848
 424	1	3	0.096621	-0.405142	-9.52176	-29.6336
 425	1	1	-0.099438	1.05278	-8.77973	-36.6689
 426	1	5	-0.089685	-0.429537	-6.05253	-34.3339
 427	1	1	-0.037281	-0.190806	-6.92221	-35.602
 428	1	1	-0.08188	0.757538	-7.98323	-35.5451
 429	1	1	-0.106561	0.393435	-8.48933	-37.8658
 430	1	1	-0.037628	-0.825566	-6.65344	-36.8439
 431	1	1	-0.12234	-0.514295	-7.45436	-37.9498
 432	1	5	0.388954	0.739778	-4.99471	-34.3096
 433	1	5	0.307788	-1.81427	-5.29551	-34.3381
 434	1	6	-0.129718	0.578468	-4.04863	-33.3572
 435	1	6	-0.129089	0.852169	-4.34159	-35.4888
 436	1	6	-0.119089	1.93977	-5.58168	-34.0965
 437	1	6	-0.103894	-2.10598	-4.79377	-33.1163
 438	1	6	-0.097852	-2.83693	-6.11783	-34.6647
 439	1	6	-0.104555	-1.85945	-4.25245	-35.1968
 440	1	3	0.521254	-1.00238	-7.38121	-39.3529
 441	1	3	0.53569	0.514052	-9.1174	-39.2079
 442	1	4	0.027822	-0.342812	-8.39907	-40.0389
 443	1	2	-0.468874	-1.82399	-6.59174	-39.7867
 444	1	2	-0.477974	1.23587	-10.0566	-39.4979
 445	1	1	-0.359831	-0.509376	-8.67035	-41.4383
 446	1	1	0.131035	-1.68879	-9.30331	-41.8944
 447	1	1	-0.120983	-1.85407	-9.56035	-43.2757
 448	1	1	0.127261	0.519754	-8.31641	-42.3414
 449	1	1	-0.127195	0.400888	-8.66483	-43.7064
 450	1	1	0.144798	-0.79097	-9.27547	-44.1664
 451	1	5	-0.020676	1.7682	-7.5763	-41.8431
 452	1	5	-0.019785	-2.78204	-9.70549	-40.8957
 453	1	7	0.164889	0.923721	-5.85492	-31.7871
 454	1	7	0.175264	-1.84033	-8.39391	-34.0174
 455	1	7	0.1582	-1.93691	-9.95988	-32.0762
 456	1	7	0.150763	1.78249	-9.58559	-36.6167
 457	1	7	0.144868	1.28691	-8.19011	-34.6186
 458	1	7	0.134072	-1.53011	-5.83889	-36.9759
 459	1	5	-0.300668	-3.16461	-10.168	-43.8049
 460	1	5	-0.243237	1.54965	-8.36934	-44.6871
 461	1	9	0.021835	2.58544	-8.28139	-41.6465
 462	1	9	0.012312	1.59085	-7.00628	-40.9241
 463	1	9	0.041777	2.12249	-6.84182	-42.5758
 464	1	9	0.110598	1.45742	-7.35625	-45.1023
 465	1	9	0.08293	2.53315	-8.44599	-44.2076
 466	1	9	0.082252	1.59117	-9.07138	-45.5281
 467	1	9	0.027698	-2.38172	-9.93369	-39.9015
 468	1	9	0.017051	-3.31392	-10.612	-41.2068
 469	1	9	0.037874	-3.51921	-8.90083	-40.7836
 470	1	9	0.095908	-3.14702	-11.2636	-43.728
 471	1	9	0.127068	-4.03766	-9.80574	-43.2472
 472	1	9	0.099095	-3.36966	-9.9099	-44.8505
 473	1	1	-0.024347	6.6075	-7.66291	-17.9292
 474	1	1	-0.071478	5.53888	-8.57924	-18.1334
 475	1	1	-0.180016	4.21519	-8.13949	-17.8503
 476	1	2	-0.370097	8.45221	-5.25787	-17.2587
 477	1	1	0.010306	6.32142	-6.38141	-17.4437
 478	1	1	-0.071748	3.95129	-6.8484	-17.3461
 479	1	2	-0.403598	4.12403	-3.98471	-16.1437
 480	1	1	0.055994	5.03461	-5.9912	-17.1382
 481	1	3	0.021521	7.24239	-5.26651	-17.1025
 482	1	4	0.466017	6.42798	-4.26705	-16.5647
 483	1	3	0.096621	5.07836	-4.62495	-16.5558
 484	1	1	-0.099438	3.25664	-12.0878	-20.7719
 485	1	5	-0.089685	5.7647	-10.0671	-18.5418
 486	1	1	-0.037281	4.74612	-10.4523	-19.656
 487	1	1	-0.08188	4.09169	-11.7185	-19.6978
 488	1	1	-0.106561	3.08638	-11.1755	-21.8162
 489	1	1	-0.037628	4.53257	-9.55271	-20.7329
 490	1	1	-0.12234	3.70025	-9.94063	-21.7913
 491	1	5	0.388954	5.59921	-10.9089	-17.216
 492	1	5	0.307788	7.1931	-10.3445	-19.1503
 493	1	6	-0.129718	4.31225	-10.947	-16.8013
 494	1	6	-0.129089	6.30783	-10.3744	-16.1952
 495	1	6	-0.119089	6.01391	-12.1907	-17.3336
 496	1	6	-0.103894	7.49199	-9.47586	-20.1425
 497	1	6	-0.097852	7.272	-11.5789	-19.6985
 498	1	6	-0.104555	8.1868	-10.2678	-18.2364
 499	1	3	0.521254	3.35049	-9.22814	-23.0492
 500	1	3	0.53569	2.3326	-11.3013	-23.0933
 501	1	4	0.027822	2.54362	-10.1045	-23.773
 502	1	2	-0.468874	3.72173	-8.11134	-23.3669
 503	1	2	-0.477974	1.68529	-12.2691	-23.4554
 504	1	1	-0.359831	2.00393	-9.80979	-25.0692
 505	1	1	0.131035	2.7397	-10.1484	-26.2292
 506	1	1	-0.120983	2.21058	-9.84645	-27.5057
 507	1	1	0.127261	0.748074	-9.16808	-25.17
 508	1	1	-0.127195	0.24758	-8.80532	-26.4418
 509	1	1	0.144798	0.980234	-9.15233	-27.6027
 510	1	5	-0.020676	-0.0621719	-8.83728	-23.9095
 511	1	5	-0.019785	4.10295	-10.8449	-26.1209
 512	1	7	0.164889	7.64719	-7.92005	-18.0999
 513	1	7	0.175264	3.3779	-8.82092	-17.9859
 514	1	7	0.1582	2.94154	-6.52881	-17.0977
 515	1	7	0.150763	2.77766	-13.0648	-20.8054
 516	1	7	0.144868	4.23794	-12.4534	-18.9151
 517	1	7	0.134072	5.02832	-8.58487	-20.7678
 518	1	5	-0.300668	2.9868	-10.233	-28.7783
 519	1	5	-0.243237	-1.08644	-8.0477	-26.5572
 520	1	9	0.021835	0.0591796	-7.78176	-23.6369
 521	1	9	0.012312	0.220316	-9.43667	-23.0376
 522	1	9	0.041777	-1.1314	-9.02751	-24.0612
 523	1	9	0.110598	-1.20644	-7.30807	-25.7556
 524	1	9	0.08293	-1.19037	-7.47851	-27.4877
 525	1	9	0.082252	-1.93383	-8.74378	-26.5005
 526	1	9	0.027698	4.55028	-10.7925	-25.1232
 527	1	9	0.017051	4.83549	-10.3906	-26.7993
 528	1	9	0.037874	4.01443	-11.9066	-26.382
 529	1	9	0.095908	2.34553	-10.366	-29.6573
 530	1	9	0.127068	3.736	-9.46776	-29.0238
 531	1	9	0.099095	3.51244	-11.189	-28.6658
 532	1	1	-0.024347	12.4043	5.63955	-12.1768
 533	1	1	-0.071478	11.4609	6.66574	-12.4348
 534	1	1	-0.180016	11.5796	7.88866	-11.7116
 535	1	2	-0.370097	14.787	3.8811	-11.2962
 536	1	1	0.010306	13.4047	5.85775	-11.228
 537	1	1	-0.071748	12.5964	8.08446	-10.7508
 538	1	2	-0.403598	15.0923	7.8415	-8.88464
 539	1	1	0.055994	13.4997	7.04178	-10.5265
 540	1	3	0.021521	14.5448	4.99132	-10.8517
 541	1	4	0.466017	15.276	5.73673	-9.92848
 542	1	3	0.096621	14.7	6.97632	-9.65112
 543	1	1	-0.099438	8.66492	3.36487	-11.9688
 544	1	5	-0.089685	10.4176	6.44052	-13.5651
 545	1	1	-0.037281	9.84629	4.99633	-13.4124
 546	1	1	-0.08188	9.29048	4.61352	-12.1588
 547	1	1	-0.106561	8.6338	2.47763	-13.0481
 548	1	1	-0.037628	9.81803	4.04817	-14.4725
 549	1	1	-0.12234	9.22545	2.79742	-14.2503
 550	1	5	0.388954	11.1821	6.68241	-14.9249
 551	1	5	0.307788	9.18066	7.42257	-13.4975
 552	1	6	-0.129718	12.1501	5.76174	-15.1354
 553	1	6	-0.129089	11.811	7.88046	-14.9424
 554	1	6	-0.119089	10.3631	6.65576	-16.0006
 555	1	6	-0.103894	8.18096	7.01136	-14.3104
 556	1	6	-0.097852	9.47397	8.6906	-13.8649
 557	1	6	-0.104555	8.64941	7.49777	-12.2564
 558	1	3	0.521254	9.05394	1.63951	-15.1694
 559	1	3	0.53569	8.01305	1.1316	-13.1746
 560	1	4	0.027822	8.30302	0.692051	-14.468
 561	1	2	-0.468874	9.48402	1.56732	-16.3081
 562	1	2	-0.477974	7.36934	0.562481	-12.3088
 563	1	1	-0.359831	7.85245	-0.56565	-15.0157
 564	1	1	0.131035	8.26437	-1.78568	-14.4246
 565	1	1	-0.120983	7.72716	-3.01073	-14.8889
 566	1	1	0.127261	6.97691	-0.578679	-16.1303
 567	1	1	-0.127195	6.58031	-1.812	-16.7015
 568	1	1	0.144798	6.9191	-3.02527	-16.0533
 569	1	5	-0.020676	6.44397	0.733168	-16.7218
 570	1	5	-0.019785	9.28415	-1.79293	-13.2783
 571	1	7	0.164889	12.3954	4.70165	-12.7269
 572	1	7	0.175264	10.9083	8.71987	-11.9003
 573	1	7	0.1582	12.7065	9.03015	-10.2221
 574	1	7	0.150763	8.21071	3.09853	-11.0164
 575	1	7	0.144868	9.32063	5.30377	-11.32
 576	1	7	0.134072	10.2217	4.2544	-15.4583
 577	1	5	-0.300668	8.02848	-4.31865	-14.1357
 578	1	5	-0.243237	5.76364	-1.83217	-18.0052
 579	1	9	0.021835	7.06266	1.06322	-17.5654
 580	1	9	0.012312	6.4098	1.54651	-15.9881
 581	1	9	0.041777	5.41402	0.626725	-17.0816
 582	1	9	0.110598	4.6883	-1.74582	-17.7976
 583	1	9	0.08293	6.04322	-1.01018	-18.676
 584	1	9	0.082252	5.91881	-2.74479	-18.5932
 585	1	9	0.027698	9.95498	-2.65813	-13.3403
 586	1	9	0.017051	8.7811	-1.82629	-12.304
 587	1	9	0.037874	9.94044	-0.91561	-13.2905
 588	1	9	0.095908	8.95636	-4.77813	-14.5021
 589	1	9	0.127068	8.13869	-4.15752	-13.056
 590	1	9	0.099095	7.22784	-5.06175	-14.2301
 591	1	1	-0.024347	27.6668	0.346866	-6.57159
 592	1	1	-0.071478	26.6964	1.37703	-6.44061
 593	1	1	-0.180016	26.9855	2.65168	-7.00606
 594	1	2	-0.370097	30.0711	-1.47024	-7.3318
 595	1	1	0.010306	28.8368	0.610276	-7.29128
 596	1	1	-0.071748	28.1784	2.89997	-7.71377
 597	1	2	-0.403598	30.8765	2.68798	-9.23989
 598	1	1	0.055994	29.083	1.84696	-7.85288
 599	1	3	0.021521	29.9583	-0.296728	-7.64354
 600	1	4	0.466017	30.8143	0.478666	-8.4225
 601	1	3	0.096621	30.3659	1.78647	-8.59368
 602	1	1	-0.099438	23.3065	1.7174	-9.00091
 603	1	5	-0.089685	25.3231	1.16879	-5.73553
 604	1	1	-0.037281	24.2198	1.6931	-6.69964
 605	1	1	-0.08188	24.2981	1.33981	-8.07691
 606	1	1	-0.106561	22.2246	2.46099	-8.52592
 607	1	1	-0.037628	23.1022	2.45376	-6.26134
 608	1	1	-0.12234	22.1297	2.82718	-7.19961
 609	1	5	0.388954	25.3934	1.93885	-4.35987
 610	1	5	0.307788	24.9715	-0.34467	-5.45941
 611	1	6	-0.129718	24.3532	1.6695	-3.53953
 612	1	6	-0.129089	25.4188	3.27991	-4.53061
 613	1	6	-0.119089	26.5167	1.62341	-3.67553
 614	1	6	-0.103894	25.0915	-1.1045	-6.57219
 615	1	6	-0.097852	23.6911	-0.494383	-5.05017
 616	1	6	-0.104555	25.753	-0.904942	-4.50895
 617	1	3	0.521254	20.8623	3.58936	-7.02266
 618	1	3	0.53569	21.0199	2.95607	-9.23791
 619	1	4	0.027822	20.2558	3.61762	-8.2786
 620	1	2	-0.468874	20.4549	4.06682	-5.97778
 621	1	2	-0.477974	20.7841	2.80845	-10.4257
 622	1	1	-0.359831	18.9936	4.23639	-8.57465
 623	1	1	0.131035	18.9635	5.37247	-9.41665
 624	1	1	-0.120983	17.7221	5.86235	-9.8821
 625	1	1	0.127261	17.792	3.65931	-8.09815
 626	1	1	-0.127195	16.5497	4.22738	-8.46679
 627	1	1	0.144798	16.521	5.29048	-9.4003
 628	1	5	-0.020676	17.8283	2.41387	-7.20264