pySIMM System Object

1064 atoms
1153 bonds
2052 angles
2984 dihedrals
288 impropers

9 atom types
11 bond types
18 angle types
7 dihedral types
4 improper types

-159.286026 159.286026 xlo xhi
-159.286026 159.286026 ylo yhi
-159.286026 159.286026 zlo zhi

Masses

   1	12.01	# ca
   2	16.0	# o
   3	12.01	# c
   4	14.01	# n
   5	12.01	# c3
   6	19.0	# f
   7	1.008	# ha
   8	1.008	# hn
   9	1.008	# hc

Pair Coeffs

   1	0.086	3.3996695084235347	# ca
   2	0.21	2.959921901149463	# o
   3	0.086	3.3996695084235347	# c
   4	0.17	3.249998523775958	# n
   5	0.1094	3.3996695084235347	# c3
   6	0.061	3.1181455134911875	# f
   7	0.015	2.59964245953351	# ha
   8	0.0157	1.069078461768407	# hn
   9	0.0157	2.649532787749369	# hc

Bond Coeffs

   1	321.0	1.5156	# c3,ca
   2	300.9	1.5375	# c3,c3
   3	345.8	1.086	# ca,ha
   4	384.2	1.4121	# ca,n
   5	637.7	1.2183	# c,o
   6	330.6	1.0969	# c3,hc
   7	356.9	1.3497	# c3,f
   8	403.2	1.0129	# hn,n
   9	461.1	1.3984	# ca,ca
  10	427.6	1.3789	# c,n
  11	345.9	1.4906	# c,ca

Angle Coeffs

   1	70.89	107.36	# f,c3,f
   2	63.82	123.71	# c,n,ca
   3	68.72	122.6	# ca,c,o
   4	48.18	119.88	# ca,ca,ha
   5	67.87	120.19	# ca,ca,n
   6	67.68	115.25	# ca,c,n
   7	46.8	110.47	# ca,c3,hc
   8	48.33	117.55	# c,n,hn
   9	39.4	107.58	# hc,c3,hc
  10	74.22	123.05	# n,c,o
  11	62.86	111.51	# c3,c3,c3
  12	64.28	120.33	# c,ca,ca
  13	63.56	112.24	# ca,c3,ca
  14	63.15	112.07	# c3,c3,ca
  15	66.11	109.24	# c3,c3,f
  16	66.62	120.02	# ca,ca,ca
  17	63.74	127.08	# c,n,c
  18	63.53	120.77	# c3,ca,ca

Dihedral Coeffs

   1	2	2.5	2	180	2.0	1	0	# hn,n,c,o
   2	1	3.625	2	180	# X,ca,ca,X
   3	1	1.0	2	180	# X,c,ca,X
   4	1	0.0	2	0	# X,c3,ca,X
   5	1	0.15555555555555556	3	0	# X,c3,c3,X
   6	1	2.5	2	180	# X,c,n,X
   7	1	0.45	2	180	# X,ca,n,X

Improper Coeffs

   1	10.5	-1	2	# c,X,X,o
   2	1.1	-1	2	# n,X,X,hn
   3	1.1	-1	2	# ca,ca,ca,c3
   4	1.1	-1	2	# ca,X,X,ha

Atoms

   1	1	1	-0.024347	-13.5828	-53.9288	37.6033
   2	1	1	-0.071478	-14.4492	-55.0401	37.389
   3	1	1	-0.180016	-13.9764	-56.3292	37.7654
   4	1	2	-0.370097	-11.3132	-51.9504	38.3863
   5	1	1	0.010306	-12.3042	-54.1423	38.1348
   6	1	1	-0.071748	-12.6757	-56.5258	38.2809
   7	1	2	-0.403598	-9.78227	-56.2165	39.3986
   8	1	1	0.055994	-11.8552	-55.4063	38.4512
   9	1	3	0.021521	-11.2471	-53.1622	38.507
  10	1	4	0.466017	-10.2003	-53.9261	39.0297
  11	1	3	0.096621	-10.4836	-55.2936	39.016
  12	1	1	-0.099438	-15.8156	-57.6958	34.2057
  13	1	5	-0.089685	-15.9239	-54.8648	36.892
  14	1	1	-0.037281	-16.3696	-56.0656	35.9902
  15	1	1	-0.08188	-15.4492	-56.639	35.068
  16	1	1	-0.106561	-17.1366	-58.1566	34.2465
  17	1	1	-0.037628	-17.7081	-56.5543	35.9785
  18	1	1	-0.12234	-18.058	-57.5915	35.101
  19	1	5	0.388954	-16.108	-53.5753	36.0033
  20	1	5	0.307788	-16.7966	-54.7382	38.1993
  21	1	6	-0.129718	-15.1371	-53.4881	35.0656
  22	1	6	-0.129089	-16.0896	-52.4242	36.7126
  23	1	6	-0.119089	-17.2838	-53.5837	35.3347
  24	1	6	-0.103894	-16.2347	-53.9037	39.1042
  25	1	6	-0.097852	-16.9269	-55.9341	38.8177
  26	1	6	-0.104555	-18.0404	-54.2587	37.9731
  27	1	3	0.521254	-19.3621	-58.2869	34.8989
  28	1	3	0.53569	-17.8143	-59.2423	33.4806
  29	1	4	0.027822	-19.1313	-59.2718	33.9378
  30	1	2	-0.468874	-20.3952	-58.0582	35.5045
  31	1	2	-0.477974	-17.2892	-59.9713	32.6559
  32	1	1	-0.359831	-20.1015	-60.2552	33.5277
  33	1	1	0.131035	-20.8943	-60.0536	32.3687
  34	1	1	-0.120983	-21.8043	-61.0575	31.9634
  35	1	1	0.127261	-20.2244	-61.4512	34.279
  36	1	1	-0.127195	-21.1233	-62.4572	33.8529
  37	1	1	0.144798	-21.9038	-62.2427	32.7073
  38	1	5	-0.020676	-19.3597	-61.6575	35.5265
  39	1	5	-0.019785	-20.7882	-58.776	31.5332
  40	1	7	0.164889	-13.8798	-52.9053	37.4045
  41	1	7	0.175264	-14.6317	-57.1931	37.6752
  42	1	7	0.1582	-12.3215	-57.5132	38.5695
  43	1	7	0.150763	-15.097	-58.1377	33.5184
  44	1	7	0.144868	-14.4316	-56.2604	35.0156
  45	1	7	0.134072	-18.4832	-56.1454	36.617
  46	1	5	-0.300668	-22.6765	-60.9051	30.7149
  47	1	5	-0.243237	-21.2659	-63.7927	34.5844
  48	1	9	0.021835	-19.3413	-60.7604	36.156
  49	1	9	0.012312	-18.3261	-61.8942	35.2455
  50	1	9	0.041777	-19.7207	-62.4645	36.1721
  51	1	9	0.110598	-20.2927	-64.2846	34.7091
  52	1	9	0.08293	-21.7121	-63.6561	35.5776
  53	1	9	0.082252	-21.9076	-64.493	34.0344
  54	1	9	0.027698	-20.4933	-59.0109	30.503
  55	1	9	0.017051	-20.059	-58.0556	31.9178
  56	1	9	0.037874	-21.7551	-58.2593	31.4943
  57	1	9	0.095908	-23.3088	-60.0104	30.7719
  58	1	9	0.127068	-22.0637	-60.8342	29.8073
  59	1	9	0.099095	-23.3484	-61.7629	30.5817
  60	1	1	-0.024347	2.13221	-48.2017	42.6287
  61	1	1	-0.071478	1.00923	-48.9281	43.1189
  62	1	1	-0.180016	1.26091	-49.9698	44.0577
  63	1	2	-0.370097	4.84403	-46.8029	42.1676
  64	1	1	0.010306	3.41436	-48.5178	43.0868
  65	1	1	-0.071748	2.56747	-50.277	44.5047
  66	1	2	-0.403598	5.6074	-50.2015	45.2346
  67	1	1	0.055994	3.63383	-49.5226	44.0036
  68	1	3	0.021521	4.68984	-47.7918	42.865
  69	1	4	0.466017	5.61147	-48.4021	43.7142
  70	1	3	0.096621	5.06852	-49.4872	44.4048
  71	1	1	-0.099438	-1.57352	-51.9866	41.3904
  72	1	5	-0.089685	-0.46944	-48.5095	42.8019
  73	1	1	-0.037281	-1.35475	-49.7365	42.4071
  74	1	1	-0.08188	-0.777659	-50.9174	41.8591
  75	1	1	-0.106561	-2.96622	-51.8513	41.4436
  76	1	1	-0.037628	-2.77546	-49.6564	42.457
  77	1	1	-0.12234	-3.54773	-50.715	41.9609
  78	1	5	0.388954	-0.558558	-47.4943	41.5948
  79	1	5	0.307788	-1.00692	-47.8118	44.1134
  80	1	6	-0.129718	0.0844214	-47.9775	40.5072
  81	1	6	-0.129089	-0.0355847	-46.2812	41.8861
  82	1	6	-0.119089	-1.82767	-47.2582	41.1934
  83	1	6	-0.103894	-2.09612	-47.0362	43.9176
  84	1	6	-0.097852	-0.0735947	-47.0055	44.6705
  85	1	6	-0.104555	-1.34248	-48.7228	45.0549
  86	1	3	0.521254	-5.02194	-50.8156	41.7638
  87	1	3	0.53569	-4.04984	-52.7234	40.9054
  88	1	4	0.027822	-5.24164	-52.0239	41.1021
  89	1	2	-0.468874	-5.84139	-49.9646	42.0644
  90	1	2	-0.477974	-3.89027	-53.7845	40.3259
  91	1	1	-0.359831	-6.52041	-52.4533	40.5924
  92	1	1	0.131035	-6.79633	-52.3295	39.2093
  93	1	1	-0.120983	-8.01103	-52.8321	38.6806
  94	1	1	0.127261	-7.48943	-53.0028	41.4644
  95	1	1	-0.127195	-8.74046	-53.4274	40.9512
  96	1	1	0.144798	-8.98337	-53.3825	39.5541
  97	1	5	-0.020676	-7.19375	-53.145	42.9629
  98	1	5	-0.019785	-5.77828	-51.6712	38.2676
  99	1	7	0.164889	2.04939	-47.3576	41.9547
 100	1	7	0.175264	0.425665	-50.5202	44.4861
 101	1	7	0.1582	2.74454	-51.0367	45.2633
 102	1	7	0.150763	-1.12208	-52.8733	40.9496
 103	1	7	0.144868	0.300164	-51.0025	41.7546
 104	1	7	0.134072	-3.29071	-48.7662	42.8023
 105	1	5	-0.300668	-8.26697	-52.7614	37.1645
 106	1	5	-0.243237	-9.82268	-53.9612	41.9058
 107	1	9	0.021835	-7.67868	-52.3418	43.5316
 108	1	9	0.012312	-6.12503	-53.1188	43.2014
 109	1	9	0.041777	-7.55939	-54.1029	43.3519
 110	1	9	0.110598	-9.68053	-55.0335	42.0984
 111	1	9	0.08293	-9.81304	-53.4424	42.8721
 112	1	9	0.082252	-10.8401	-53.824	41.521
 113	1	9	0.027698	-5.2351	-52.4306	37.6917
 114	1	9	0.017051	-5.03404	-51.0564	38.7849
 115	1	9	0.037874	-6.27226	-50.9966	37.5581
 116	1	9	0.095908	-8.60693	-51.7568	36.8776
 117	1	9	0.127068	-7.36197	-52.9853	36.5859
 118	1	9	0.099095	-9.01979	-53.4727	36.8083
 119	1	1	-0.024347	13.1525	-40.0211	45.1996
 120	1	1	-0.071478	14.405	-40.5698	44.8102
 121	1	1	-0.180016	15.0983	-39.9572	43.7245
 122	1	2	-0.370097	10.5822	-38.2864	45.6117
 123	1	1	0.010306	12.6602	-38.8963	44.5241
 124	1	1	-0.071748	14.5766	-38.8391	43.0471
 125	1	2	-0.403598	12.9351	-36.4065	42.0743
 126	1	1	0.055994	13.3556	-38.3249	43.4781
 127	1	3	0.021521	11.4344	-38.0862	44.7624
 128	1	4	0.466017	11.4882	-37.0657	43.8114
 129	1	3	0.096621	12.6121	-37.1405	42.9946
 130	1	1	-0.099438	13.1381	-44.7551	47.2123
 131	1	5	-0.089685	15.034	-41.7136	45.6652
 132	1	1	-0.037281	14.0027	-42.8634	45.8692
 133	1	1	-0.08188	14.0044	-43.6585	47.0518
 134	1	1	-0.106561	12.2671	-45.0601	46.1662
 135	1	1	-0.037628	13.105	-43.2171	44.8247
 136	1	1	-0.12234	12.2448	-44.3126	45.0071
 137	1	5	0.388954	15.4786	-41.0287	47.0192
 138	1	5	0.307788	16.2876	-42.3895	44.9897
 139	1	6	-0.129718	14.418	-40.7636	47.8156
 140	1	6	-0.129089	16.0955	-39.8446	46.7999
 141	1	6	-0.119089	16.3433	-41.7671	47.7505
 142	1	6	-0.103894	17.3672	-41.576	44.9394
 143	1	6	-0.097852	16.013	-42.7913	43.7275
 144	1	6	-0.104555	16.6837	-43.5006	45.6519
 145	1	3	0.521254	11.1634	-44.8593	44.137
 146	1	3	0.53569	11.2166	-46.1055	46.0808
 147	1	4	0.027822	10.5732	-45.8948	44.8649
 148	1	2	-0.468874	10.8229	-44.4149	43.0543
 149	1	2	-0.477974	10.9203	-46.8941	46.9627
 150	1	1	-0.359831	9.33176	-46.5334	44.5243
 151	1	1	0.131035	9.29449	-47.643	43.645
 152	1	1	-0.120983	8.05655	-48.2876	43.3849
 153	1	1	0.127261	8.15181	-46.0648	45.1477
 154	1	1	-0.127195	6.92602	-46.7278	44.9186
 155	1	1	0.144798	6.87831	-47.8169	44.0143
 156	1	5	-0.020676	8.19921	-44.8498	46.0878
 157	1	5	-0.019785	10.5797	-48.1519	42.9811
 158	1	7	0.164889	12.5876	-40.4276	46.0348
 159	1	7	0.175264	16.0699	-40.309	43.3974
 160	1	7	0.1582	15.1169	-38.3617	42.2321
 161	1	7	0.150763	13.1409	-45.3494	48.1242
 162	1	7	0.144868	14.6899	-43.454	47.8651
 163	1	7	0.134072	13.0751	-42.6619	43.8897
 164	1	5	-0.300668	7.95321	-49.497	42.4393
 165	1	5	-0.243237	5.65318	-46.2586	45.6466
 166	1	9	0.021835	7.29492	-44.2354	46.0114
 167	1	9	0.012312	9.02569	-44.1649	45.8693
 168	1	9	0.041777	8.30221	-45.1737	47.131
 169	1	9	0.110598	5.1909	-45.4125	45.1206
 170	1	9	0.08293	4.89278	-47.0401	45.7501
 171	1	9	0.082252	5.86589	-45.9408	46.6748
 172	1	9	0.027698	11.459	-47.5297	43.1758
 173	1	9	0.017051	10.4678	-48.1897	41.8904
 174	1	9	0.037874	10.8227	-49.1621	43.3331
 175	1	9	0.095908	7.38945	-49.24	41.5328
 176	1	9	0.127068	8.91996	-49.8912	42.1088
 177	1	9	0.099095	7.4446	-50.3388	42.9277
 178	1	1	-0.024347	2.88682	-28.5193	39.0823
 179	1	1	-0.071478	2.12073	-29.4869	39.7952
 180	1	1	-0.180016	0.874314	-29.8874	39.2243
 181	1	2	-0.370097	4.09116	-26.4948	37.0261
 182	1	1	0.010306	2.40198	-28.0092	37.8681
 183	1	1	-0.071748	0.397396	-29.3494	38.0135
 184	1	2	-0.403598	-0.060343	-27.7851	35.3876
 185	1	1	0.055994	1.18315	-28.4029	37.3597
 186	1	3	0.021521	3.00149	-27.0311	36.9173
 187	1	4	0.466017	2.06351	-26.8916	35.889
 188	1	3	0.096621	0.931797	-27.6807	36.0906
 189	1	1	-0.099438	5.87856	-31.5894	39.6322
 190	1	5	-0.089685	2.63865	-30.0327	41.1752
 191	1	1	-0.037281	4.07922	-30.6222	41.0372
 192	1	1	-0.08188	4.6159	-30.978	39.7651
 193	1	1	-0.106561	6.58459	-31.8994	40.7967
 194	1	1	-0.037628	4.84486	-30.95	42.1911
 195	1	1	-0.12234	6.071	-31.6083	42.041
 196	1	5	0.388954	1.72728	-31.1902	41.7554
 197	1	5	0.307788	2.61071	-28.8087	42.1725
 198	1	6	-0.129718	1.64616	-32.2256	40.8884
 199	1	6	-0.129089	0.469647	-30.7796	42.0374
 200	1	6	-0.119089	2.19299	-31.7251	42.9055
 201	1	6	-0.103894	1.4402	-28.1355	42.0942
 202	1	6	-0.097852	3.59048	-27.9195	41.8982
 203	1	6	-0.104555	2.76306	-29.1466	43.4712
 204	1	3	0.521254	6.92455	-32.2748	43.064
 205	1	3	0.53569	7.80388	-32.7274	40.9767
 206	1	4	0.027822	7.89066	-32.9777	42.3457
 207	1	2	-0.468874	6.70161	-32.3157	44.2615
 208	1	2	-0.477974	8.46795	-33.2185	40.0792
 209	1	1	-0.359831	8.72736	-34.0122	42.8891
 210	1	1	0.131035	8.399	-35.3585	42.5994
 211	1	1	-0.120983	9.32033	-36.385	42.9043
 212	1	1	0.127261	9.89008	-33.6959	43.629
 213	1	1	-0.127195	10.7483	-34.7396	44.0517
 214	1	1	0.144798	10.4947	-36.0653	43.6238
 215	1	5	-0.020676	10.2346	-32.2371	43.9508
 216	1	5	-0.019785	7.06994	-35.7	41.9127
 217	1	7	0.164889	3.85148	-28.1766	39.4478
 218	1	7	0.175264	0.231337	-30.617	39.7019
 219	1	7	0.1582	-0.558138	-29.6557	37.5926
 220	1	7	0.150763	6.26278	-31.8843	38.6573
 221	1	7	0.144868	4.04302	-30.8286	38.856
 222	1	7	0.134072	4.4729	-30.7888	43.1977
 223	1	5	-0.300668	9.06611	-37.8313	42.441
 224	1	5	-0.243237	11.9848	-34.4418	44.9148
 225	1	9	0.021835	11.315	-32.0556	43.9021
 226	1	9	0.012312	9.89199	-31.9696	44.9581
 227	1	9	0.041777	9.78576	-31.527	43.2482
 228	1	9	0.110598	11.8208	-33.5964	45.5947
 229	1	9	0.08293	12.2542	-35.2839	45.5648
 230	1	9	0.082252	12.856	-34.2069	44.289
 231	1	9	0.027698	7.19181	-35.7457	40.8236
 232	1	9	0.017051	6.28206	-34.971	42.1347
 233	1	9	0.037874	6.67301	-36.6638	42.252
 234	1	9	0.095908	8.53927	-38.4025	43.2171
 235	1	9	0.127068	8.46693	-37.8801	41.5237
 236	1	9	0.099095	9.98736	-38.3737	42.1979
 237	1	1	-0.024347	-0.212042	-20.8146	23.8526
 238	1	1	-0.071478	0.0837328	-20.3276	25.1575
 239	1	1	-0.180016	0.961207	-19.2089	25.26
 240	1	2	-0.370097	-0.56007	-21.3424	20.8208
 241	1	1	0.010306	0.323747	-20.1651	22.7385
 242	1	1	-0.071748	1.47262	-18.5513	24.1191
 243	1	2	-0.403598	2.06673	-17.5357	21.2254
 244	1	1	0.055994	1.12233	-19.0491	22.8612
 245	1	3	0.021521	0.097594	-20.4323	21.2963
 246	1	4	0.466017	0.759406	-19.4031	20.6309
 247	1	3	0.096621	1.42175	-18.5349	21.4989
 248	1	1	-0.099438	2.76161	-22.4315	27.8209
 249	1	5	-0.089685	-0.57155	-20.9147	26.4547
 250	1	1	-0.037281	0.519253	-21.4457	27.4319
 251	1	1	-0.08188	1.82074	-21.8032	26.9736
 252	1	1	-0.106561	2.37578	-22.7264	29.1344
 253	1	1	-0.037628	0.186581	-21.7379	28.7798
 254	1	1	-0.12234	1.12048	-22.3893	29.59
 255	1	5	0.388954	-1.5231	-22.1393	26.1487
 256	1	5	0.307788	-1.42507	-19.748	27.1015
 257	1	6	-0.129718	-0.845567	-23.1437	25.5465
 258	1	6	-0.129089	-2.56523	-21.7985	25.3567
 259	1	6	-0.119089	-2.06291	-22.6959	27.2561
 260	1	6	-0.103894	-2.10217	-19.0507	26.1605
 261	1	6	-0.097852	-0.648062	-18.8611	27.763
 262	1	6	-0.104555	-2.35306	-20.1601	27.9926
 263	1	3	0.521254	0.946014	-22.961	30.9474
 264	1	3	0.53569	3.06187	-23.5087	30.2055
 265	1	4	0.027822	2.12656	-23.6434	31.235
 266	1	2	-0.468874	-0.0686454	-22.8956	31.6208
 267	1	2	-0.477974	4.17369	-24.0045	30.1291
 268	1	1	-0.359831	2.28038	-24.4615	32.411
 269	1	1	0.131035	2.30219	-25.8724	32.293
 270	1	1	-0.120983	2.35361	-26.6734	33.4588
 271	1	1	0.127261	2.28157	-23.8515	33.6876
 272	1	1	-0.127195	2.18025	-24.6534	34.8507
 273	1	1	0.144798	2.2268	-26.0653	34.7331
 274	1	5	-0.020676	2.34312	-22.3236	33.8062
 275	1	5	-0.019785	2.23301	-26.5477	30.916
 276	1	7	0.164889	-0.870067	-21.6533	23.6588
 277	1	7	0.175264	1.23075	-18.8169	26.2374
 278	1	7	0.1582	2.10026	-17.6664	24.2044
 279	1	7	0.150763	3.73852	-22.7357	27.45
 280	1	7	0.144868	2.10276	-21.6425	25.937
 281	1	7	0.134072	-0.802809	-21.5502	29.1844
 282	1	5	-0.300668	2.48352	-28.2023	33.3377
 283	1	5	-0.243237	1.99972	-23.9983	36.2306
 284	1	9	0.021835	2.8145	-21.852	32.9359
 285	1	9	0.012312	2.94167	-22.0087	34.6694
 286	1	9	0.041777	1.33763	-21.8988	33.9152
 287	1	9	0.110598	1.38169	-24.5977	36.9096
 288	1	9	0.08293	2.97103	-23.836	36.7164
 289	1	9	0.082252	1.4915	-23.0285	36.1703
 290	1	9	0.027698	3.23568	-26.8237	30.5669
 291	1	9	0.017051	1.7721	-25.9192	30.1467
 292	1	9	0.037874	1.62254	-27.4581	30.9438
 293	1	9	0.095908	3.10713	-28.4936	32.4833
 294	1	9	0.127068	2.96143	-28.6642	34.2099
 295	1	9	0.099095	1.49799	-28.67	33.2063
 296	1	1	-0.024347	2.48434	-15.7433	7.32584
 297	1	1	-0.071478	2.45645	-16.5343	8.50776
 298	1	1	-0.180016	3.66745	-16.6912	9.24104
 299	1	2	-0.370097	3.20882	-13.8911	4.92737
 300	1	1	0.010306	3.68114	-15.1131	6.9631
 301	1	1	-0.071748	4.86022	-16.0487	8.85819
 302	1	2	-0.403598	7.08298	-14.4173	7.44177
 303	1	1	0.055994	4.83242	-15.2553	7.71163
 304	1	3	0.021521	3.9912	-14.2535	5.79092
 305	1	4	0.466017	5.35108	-13.9612	5.90899
 306	1	3	0.096621	5.92715	-14.501	7.05684
 307	1	1	-0.099438	1.47138	-15.5525	12.5011
 308	1	5	-0.089685	1.17307	-17.2533	9.02529
 309	1	1	-0.037281	1.11172	-17.0618	10.5714
 310	1	1	-0.08188	1.42176	-15.7816	11.1132
 311	1	1	-0.106561	1.17499	-16.6221	13.3485
 312	1	1	-0.037628	0.765272	-18.1066	11.4719
 313	1	1	-0.12234	0.807569	-17.854	12.8503
 314	1	5	0.388954	1.29954	-18.7612	8.58192
 315	1	5	0.307788	-0.163136	-16.6491	8.44969
 316	1	6	-0.129718	0.167344	-19.4736	8.77745
 317	1	6	-0.129089	2.29041	-19.397	9.24808
 318	1	6	-0.119089	1.59882	-18.8703	7.26727
 319	1	6	-0.103894	-0.354248	-16.9232	7.13928
 320	1	6	-0.097852	-0.201745	-15.3041	8.58501
 321	1	6	-0.104555	-1.24619	-17.125	9.1056
 322	1	3	0.521254	0.53962	-18.7563	14.0056
 323	1	3	0.53569	1.18843	-16.7002	14.8309
 324	1	4	0.027822	0.797144	-17.9998	15.1499
 325	1	2	-0.468874	0.203675	-19.926	13.9364
 326	1	2	-0.477974	1.49638	-15.7966	15.5896
 327	1	1	-0.359831	0.702488	-18.4801	16.5026
 328	1	1	0.131035	1.68576	-19.3683	17.0042
 329	1	1	-0.120983	1.65381	-19.755	18.3662
 330	1	1	0.127261	-0.334751	-18.0055	17.3422
 331	1	1	-0.127195	-0.343266	-18.3591	18.7115
 332	1	1	0.144798	0.68205	-19.1889	19.2249
 333	1	5	-0.020676	-1.44181	-17.0891	16.8016
 334	1	5	-0.019785	2.79741	-19.8913	16.0836
 335	1	7	0.164889	1.61994	-15.6075	6.68442
 336	1	7	0.175264	3.68737	-17.3151	10.1321
 337	1	7	0.1582	5.78049	-16.1658	9.42668
 338	1	7	0.150763	1.74375	-14.5797	12.9065
 339	1	7	0.144868	1.66246	-14.9555	10.4485
 340	1	7	0.134072	0.488541	-19.1008	11.1367
 341	1	5	-0.300668	2.67925	-20.7597	18.9189
 342	1	5	-0.243237	-1.43351	-17.8107	19.6509
 343	1	9	0.021835	-1.32298	-16.8007	15.7534
 344	1	9	0.012312	-1.49476	-16.1577	17.3792
 345	1	9	0.041777	-2.4174	-17.5852	16.8693
 346	1	9	0.110598	-2.40085	-17.6899	19.1502
 347	1	9	0.08293	-1.64415	-18.4732	20.4981
 348	1	9	0.082252	-1.1441	-16.8318	20.055
 349	1	9	0.027698	2.49629	-20.8359	15.6135
 350	1	9	0.017051	3.73611	-20.0672	16.621
 351	1	9	0.037874	3.05312	-19.1874	15.2845
 352	1	9	0.095908	3.61862	-20.2603	19.1897
 353	1	9	0.127068	2.32002	-21.3046	19.8001
 354	1	9	0.099095	2.91295	-21.5423	18.1856
 355	1	1	-0.024347	9.15536	-11.279	-4.32488
 356	1	1	-0.071478	8.44843	-10.0565	-4.48102
 357	1	1	-0.180016	7.21083	-10.0769	-5.18599
 358	1	2	-0.370097	9.93857	-14.2184	-3.81447
 359	1	1	0.010306	8.55721	-12.4703	-4.74404
 360	1	1	-0.071748	6.61886	-11.2905	-5.58844
 361	1	2	-0.403598	5.65895	-14.2081	-5.62914
 362	1	1	0.055994	7.30175	-12.4765	-5.31506
 363	1	3	0.021521	8.9162	-13.8639	-4.3781
 364	1	4	0.466017	7.76312	-14.6063	-4.6393
 365	1	3	0.096621	6.78081	-13.8623	-5.29352
 366	1	1	-0.099438	10.4479	-9.126	-0.0963782
 367	1	5	-0.089685	8.96785	-8.80064	-3.71629
 368	1	1	-0.037281	9.22321	-9.2429	-2.24603
 369	1	1	-0.08188	10.3043	-8.75918	-1.45372
 370	1	1	-0.106561	9.49768	-9.99141	0.458459
 371	1	1	-0.037628	8.28746	-10.1176	-1.63798
 372	1	1	-0.12234	8.46342	-10.485	-0.305756
 373	1	5	0.388954	7.91872	-7.62458	-3.62214
 374	1	5	0.307788	10.2558	-8.29806	-4.46821
 375	1	6	-0.129718	6.72877	-8.04567	-3.13386
 376	1	6	-0.129089	7.67923	-7.03327	-4.8141
 377	1	6	-0.119089	8.32841	-6.65013	-2.77816
 378	1	6	-0.103894	10.0366	-8.19655	-5.79866
 379	1	6	-0.097852	11.2936	-9.15037	-4.31374
 380	1	6	-0.104555	10.682	-7.0833	-4.05556
 381	1	3	0.521254	7.61693	-11.3509	0.543298
 382	1	3	0.53569	9.3223	-10.4995	1.85001
 383	1	4	0.027822	8.16554	-11.2779	1.81717
 384	1	2	-0.468874	6.67234	-12.0219	0.163559
 385	1	2	-0.477974	10.0378	-10.2507	2.80568
 386	1	1	-0.359831	7.55629	-11.9197	2.94136
 387	1	1	0.131035	6.64362	-11.1957	3.74099
 388	1	1	-0.120983	5.94916	-11.8595	4.77971
 389	1	1	0.127261	7.77385	-13.2976	3.1438
 390	1	1	-0.127195	7.00289	-13.9868	4.1044
 391	1	1	0.144798	6.10237	-13.2611	4.92546
 392	1	5	-0.020676	8.80992	-14.0401	2.29063
 393	1	5	-0.019785	6.42455	-9.7013	3.46293
 394	1	7	0.164889	10.0793	-11.3317	-3.75413
 395	1	7	0.175264	6.63656	-9.17075	-5.34889
 396	1	7	0.1582	5.6137	-11.3204	-6.00408
 397	1	7	0.150763	11.2602	-8.73266	0.511755
 398	1	7	0.144868	11.0321	-8.06989	-1.86717
 399	1	7	0.134072	7.41953	-10.4939	-2.17489
 400	1	5	-0.300668	5.01066	-11.0716	5.70962
 401	1	5	-0.243237	7.14661	-15.5125	4.24308
 402	1	9	0.021835	9.27548	-14.8704	2.83402
 403	1	9	0.012312	9.6401	-13.3913	1.98729
 404	1	9	0.041777	8.34877	-14.4439	1.38192
 405	1	9	0.110598	8.01892	-15.7656	4.86122
 406	1	9	0.08293	6.27199	-15.9989	4.6898
 407	1	9	0.082252	7.27319	-15.9976	3.26743
 408	1	9	0.027698	6.33222	-9.49883	2.38939
 409	1	9	0.017051	7.26622	-9.10926	3.84349
 410	1	9	0.037874	5.50812	-9.30244	3.90914
 411	1	9	0.095908	4.75719	-11.5984	6.63608
 412	1	9	0.127068	5.46605	-10.125	6.02834
 413	1	9	0.099095	4.06674	-10.8368	5.19841
 414	1	1	-0.024347	0.898908	-18.8344	1.96926
 415	1	1	-0.071478	0.0962214	-19.735	1.20979
 416	1	1	-0.180016	-1.07865	-19.2195	0.588737
 417	1	2	-0.370097	2.31962	-16.3673	3.24525
 418	1	1	0.010306	0.56184	-17.4735	2.00869
 419	1	1	-0.071748	-1.3865	-17.8459	0.62109
 420	1	2	-0.403598	-1.26711	-14.7793	0.743234
 421	1	1	0.055994	-0.527798	-16.9947	1.31551
 422	1	3	0.021521	1.32253	-16.3068	2.54424
 423	1	4	0.466017	0.675759	-15.1783	2.01891
 424	1	3	0.096621	-0.484429	-15.5166	1.32135
 425	1	1	-0.099438	4.30569	-21.8909	-0.184397
 426	1	5	-0.089685	0.619023	-21.1878	0.947933
 427	1	1	-0.037281	2.01953	-21.0572	0.282231
 428	1	1	-0.08188	3.04903	-22.0278	0.447575
 429	1	1	-0.106561	4.52079	-20.7678	-0.991437
 430	1	1	-0.037628	2.27133	-19.9581	-0.579213
 431	1	1	-0.12234	3.5259	-19.8334	-1.17544
 432	1	5	0.388954	-0.256934	-22.015	-0.0727037
 433	1	5	0.307788	0.643013	-21.937	2.33782
 434	1	6	-0.129718	-1.50697	-22.2516	0.38539
 435	1	6	-0.129089	0.28781	-23.2194	-0.36026
 436	1	6	-0.119089	-0.367128	-21.3882	-1.26704
 437	1	6	-0.103894	-0.510336	-21.7419	3.0158
 438	1	6	-0.097852	1.64183	-21.4971	3.1343
 439	1	6	-0.104555	0.802492	-23.2757	2.24123
 440	1	3	0.521254	4.06101	-18.7321	-2.00627
 441	1	3	0.53569	5.73544	-20.2988	-1.71971
 442	1	4	0.027822	5.38857	-19.0624	-2.26162
 443	1	2	-0.468874	3.47134	-17.7029	-2.29048
 444	1	2	-0.477974	6.8224	-20.8504	-1.73883
 445	1	1	-0.359831	6.28765	-18.1205	-2.85918
 446	1	1	0.131035	6.43282	-18.0675	-4.2619
 447	1	1	-0.120983	7.10525	-16.9684	-4.8502
 448	1	1	0.127261	6.83232	-17.1171	-2.03237
 449	1	1	-0.127195	7.32952	-15.9358	-2.62062
 450	1	1	0.144798	7.45892	-15.8626	-4.03477
 451	1	5	-0.020676	6.77676	-17.2676	-0.50618
 452	1	5	-0.019785	5.78858	-19.1714	-5.10904
 453	1	7	0.164889	1.82775	-19.1534	2.43308
 454	1	7	0.175264	-1.74077	-19.8507	0.00601145
 455	1	7	0.1582	-2.22974	-17.4393	0.0664092
 456	1	7	0.150763	5.09363	-22.6273	-0.0394677
 457	1	7	0.144868	2.88808	-22.9044	1.06539
 458	1	7	0.134072	1.52179	-19.1964	-0.780973
 459	1	5	-0.300668	7.35115	-16.922	-6.36668
 460	1	5	-0.243237	7.64052	-14.728	-1.71493
 461	1	9	0.021835	5.85514	-16.8357	-0.0976174
 462	1	9	0.012312	7.63002	-16.781	-0.0180186
 463	1	9	0.041777	6.8289	-18.3161	-0.192301
 464	1	9	0.110598	7.00568	-14.7011	-0.820809
 465	1	9	0.08293	8.6863	-14.7464	-1.3807
 466	1	9	0.082252	7.45696	-13.7619	-2.19651
 467	1	9	0.027698	6.24328	-20.1451	-4.88959
 468	1	9	0.017051	5.86603	-19.011	-6.18853
 469	1	9	0.037874	4.71554	-19.2474	-4.89399
 470	1	9	0.095908	8.11499	-16.191	-6.65792
 471	1	9	0.127068	7.71508	-17.8872	-6.74256
 472	1	9	0.099095	6.42836	-16.6732	-6.90839
 473	1	1	-0.024347	1.47503	-2.4464	-0.633721
 474	1	1	-0.071478	2.16467	-3.01546	-1.74453
 475	1	1	-0.180016	2.09552	-2.33338	-2.9957
 476	1	2	-0.370097	-0.262819	-0.675194	1.31942
 477	1	1	0.010306	0.818529	-1.214	-0.791
 478	1	1	-0.071748	1.4184	-1.11216	-3.13764
 479	1	2	-0.403598	-0.199821	1.45595	-2.8098
 480	1	1	0.055994	0.817342	-0.566767	-2.00927
 481	1	3	0.021521	0.00698251	-0.39548	0.16346
 482	1	4	0.466017	-0.438915	0.692171	-0.59326
 483	1	3	0.096621	0.0414529	0.678441	-1.89889
 484	1	1	-0.099438	0.179185	-6.84753	-1.13346
 485	1	5	-0.089685	3.06476	-4.27853	-1.53788
 486	1	1	-0.037281	2.23044	-5.47074	-0.987965
 487	1	1	-0.08188	0.891681	-5.66536	-1.4303
 488	1	1	-0.106561	0.827163	-7.83744	-0.384449
 489	1	1	-0.037628	2.83122	-6.48768	-0.196746
 490	1	1	-0.12234	2.10593	-7.6498	0.0918525
 491	1	5	0.388954	4.22029	-3.82703	-0.557408
 492	1	5	0.307788	3.71133	-4.81429	-2.87656
 493	1	6	-0.129718	3.79258	-3.76387	0.723616
 494	1	6	-0.129089	4.68226	-2.59462	-0.872108
 495	1	6	-0.119089	5.30035	-4.63952	-0.561284
 496	1	6	-0.103894	2.77173	-5.10062	-3.80805
 497	1	6	-0.097852	4.3911	-5.96927	-2.69752
 498	1	6	-0.104555	4.5867	-3.93985	-3.42381
 499	1	3	0.521254	2.52308	-8.88428	0.815146
 500	1	3	0.53569	0.395152	-9.21336	-0.0136299
 501	1	4	0.027822	1.45567	-9.77662	0.701537
 502	1	2	-0.468874	3.59657	-9.05443	1.36903
 503	1	2	-0.477974	-0.667467	-9.72803	-0.317157
 504	1	1	-0.359831	1.44236	-11.122	1.22366
 505	1	1	0.131035	0.552357	-11.4608	2.27089
 506	1	1	-0.120983	0.382426	-12.8175	2.64201
 507	1	1	0.127261	2.25963	-12.1184	0.636426
 508	1	1	-0.127195	2.15605	-13.4643	1.06858
 509	1	1	0.144798	1.14577	-13.8249	1.99801
 510	1	5	-0.020676	3.19414	-11.7579	-0.526939
 511	1	5	-0.019785	-0.315788	-10.3793	2.92838
 512	1	7	0.164889	1.47096	-2.92777	0.340698
 513	1	7	0.175264	2.58418	-2.70682	-3.88731
 514	1	7	0.1582	1.37082	-0.590667	-4.09166
 515	1	7	0.150763	-0.828506	-7.0101	-1.51254
 516	1	7	0.144868	0.414111	-4.92348	-2.06537
 517	1	7	0.134072	3.86138	-6.42982	0.137563
 518	1	5	-0.300668	-0.702571	-13.1932	3.66604
 519	1	5	-0.243237	3.07753	-14.5375	0.462115
 520	1	9	0.021835	3.30484	-12.5787	-1.24486
 521	1	9	0.012312	4.18899	-11.4953	-0.154145
 522	1	9	0.041777	2.82878	-10.9138	-1.12044
 523	1	9	0.110598	3.30314	-15.3483	1.16086
 524	1	9	0.08293	2.64797	-14.9769	-0.447229
 525	1	9	0.082252	4.06455	-14.1304	0.207954
 526	1	9	0.027698	-0.382077	-10.5118	4.01317
 527	1	9	0.017051	-1.33451	-10.4002	2.52104
 528	1	9	0.037874	0.0765151	-9.36676	2.78613
 529	1	9	0.095908	-0.696972	-14.2507	3.951
 530	1	9	0.127068	-0.579348	-12.6369	4.60292
 531	1	9	0.099095	-1.70195	-12.969	3.26807
 532	1	1	-0.024347	-8.83844	10.0247	-5.87871
 533	1	1	-0.071478	-8.26929	8.85857	-5.30562
 534	1	1	-0.180016	-7.73983	7.86914	-6.18329
 535	1	2	-0.370097	-9.58816	12.4388	-7.63445
 536	1	1	0.010306	-8.6666	10.2514	-7.24522
 537	1	1	-0.071748	-7.54195	8.13645	-7.55417
 538	1	2	-0.403598	-6.92134	9.62103	-10.2042
 539	1	1	0.055994	-7.9596	9.37713	-8.04109
 540	1	3	0.021521	-8.93353	11.4832	-8.01849
 541	1	4	0.466017	-8.22213	11.3282	-9.21157
 542	1	3	0.096621	-7.63921	10.0611	-9.32019
 543	1	1	-0.099438	-4.40215	7.60981	-3.8867
 544	1	5	-0.089685	-8.13463	8.69564	-3.76127
 545	1	1	-0.037281	-6.82268	7.9122	-3.44433
 546	1	1	-0.08188	-5.6225	8.26983	-4.1256
 547	1	1	-0.106561	-4.3851	6.60761	-2.91454
 548	1	1	-0.037628	-6.75111	6.899	-2.45086
 549	1	1	-0.12234	-5.52152	6.27431	-2.2083
 550	1	5	0.388954	-9.44135	7.98141	-3.25705
 551	1	5	0.307788	-7.96293	10.0823	-3.02405
 552	1	6	-0.129718	-9.48343	6.69198	-3.66161
 553	1	6	-0.129089	-10.5555	8.56998	-3.74883
 554	1	6	-0.119089	-9.56321	7.99545	-1.91017
 555	1	6	-0.103894	-7.4807	9.92643	-1.76961
 556	1	6	-0.097852	-9.11437	10.7791	-2.9015
 557	1	6	-0.104555	-7.08378	10.8845	-3.66876
 558	1	3	0.521254	-5.17571	5.17612	-1.26617
 559	1	3	0.53569	-3.27869	5.72403	-2.46573
 560	1	4	0.027822	-3.83317	4.88358	-1.50164
 561	1	2	-0.468874	-5.95342	4.59485	-0.528914
 562	1	2	-0.477974	-2.14407	5.7177	-2.9128
 563	1	1	-0.359831	-3.13221	3.76324	-0.942071
 564	1	1	0.131035	-3.46958	2.45973	-1.3775
 565	1	1	-0.120983	-2.7084	1.36246	-0.932726
 566	1	1	0.127261	-2.04125	3.97044	-0.0602317
 567	1	1	-0.127195	-1.17395	2.88668	0.229126
 568	1	1	0.144798	-1.48317	1.60521	-0.27889
 569	1	5	-0.020676	-1.71569	5.37605	0.458796
 570	1	5	-0.019785	-4.53914	2.21203	-2.44954
 571	1	7	0.164889	-9.3061	10.8028	-5.28495
 572	1	7	0.175264	-7.37078	6.92632	-5.78483
 573	1	7	0.1582	-7.01195	7.43927	-8.19964
 574	1	7	0.150763	-3.49951	7.86812	-4.43765
 575	1	7	0.144868	-5.63737	9.06145	-4.87074
 576	1	7	0.134072	-7.61098	6.5877	-1.86729
 577	1	5	-0.300668	-3.09523	-0.0734184	-1.32001
 578	1	5	-0.243237	0.144939	3.07484	0.992587
 579	1	9	0.021835	-1.57195	5.3707	1.54591
 580	1	9	0.012312	-2.50887	6.10769	0.269393
 581	1	9	0.041777	-0.798635	5.75923	-0.00588553
 582	1	9	0.110598	0.206518	4.01677	1.54815
 583	1	9	0.08293	0.280747	2.27829	1.73676
 584	1	9	0.082252	1.00438	3.04706	0.310869
 585	1	9	0.027698	-5.44111	1.76472	-2.01679
 586	1	9	0.017051	-4.15869	1.52796	-3.21918
 587	1	9	0.037874	-4.83881	3.11203	-2.99464
 588	1	9	0.095908	-2.69405	-0.809908	-0.61084
 589	1	9	0.127068	-4.18383	-0.214061	-1.30222
 590	1	9	0.099095	-2.73626	-0.332914	-2.32418
 591	1	1	-0.024347	-9.5031	21.7113	-17.1837
 592	1	1	-0.071478	-9.09729	22.1242	-15.8788
 593	1	1	-0.180016	-8.48429	23.4046	-15.7509
 594	1	2	-0.370097	-10.4159	21.5957	-20.2009
 595	1	1	0.010306	-9.38904	22.6219	-18.2591
 596	1	1	-0.071748	-8.39423	24.3009	-16.8286
 597	1	2	-0.403598	-8.96167	25.9233	-19.3584
 598	1	1	0.055994	-8.8987	23.8967	-18.0607
 599	1	3	0.021521	-9.91193	22.5674	-19.6624
 600	1	4	0.466017	-9.76893	23.8681	-20.1786
 601	1	3	0.096621	-9.15626	24.7219	-19.2639
 602	1	1	-0.099438	-11.0068	17.7847	-14.3653
 603	1	5	-0.089685	-9.61423	21.3928	-14.5954
 604	1	1	-0.037281	-9.62951	19.8158	-14.7016
 605	1	1	-0.08188	-10.8607	19.1021	-14.8268
 606	1	1	-0.106561	-9.8933	17.1654	-13.8089
 607	1	1	-0.037628	-8.47427	19.0488	-14.3472
 608	1	1	-0.12234	-8.64438	17.74	-13.8573
 609	1	5	0.388954	-11.0734	21.9826	-14.3738
 610	1	5	0.307788	-8.77407	21.743	-13.2822
 611	1	6	-0.129718	-11.6957	21.4318	-13.306
 612	1	6	-0.129089	-11.8747	21.8133	-15.4512
 613	1	6	-0.119089	-11.0908	23.3215	-14.1875
 614	1	6	-0.103894	-7.44045	21.6851	-13.4984
 615	1	6	-0.097852	-9.04991	20.8938	-12.2642
 616	1	6	-0.104555	-8.99235	22.9699	-12.7594
 617	1	3	0.521254	-7.70101	16.822	-13.1387
 618	1	3	0.53569	-9.82156	15.9232	-13.0137
 619	1	4	0.027822	-8.48569	15.7693	-12.6492
 620	1	2	-0.468874	-6.5045	17.0034	-12.9891
 621	1	2	-0.477974	-10.7774	15.2326	-12.6985
 622	1	1	-0.359831	-8.06849	14.6297	-11.8677
 623	1	1	0.131035	-7.60408	14.7771	-10.5384
 624	1	1	-0.120983	-7.4951	13.6326	-9.70798
 625	1	1	0.127261	-8.37324	13.3451	-12.3746
 626	1	1	-0.127195	-8.46586	12.2466	-11.4931
 627	1	1	0.144798	-8.04472	12.3962	-10.1483
 628	1	5	-0.020676	-8.69596	13.158	-13.8627
 629	1	5	-0.019785	-7.27348	16.1729	-9.99188
 630	1	7	0.164889	-10.0168	20.7658	-17.3388
 631	1	7	0.175264	-8.16751	23.7887	-14.7895
 632	1	7	0.1582	-8.02811	25.3161	-16.6912
 633	1	7	0.150763	-11.9811	17.3004	-14.3381
 634	1	7	0.144868	-11.7752	19.5756	-15.1519
 635	1	7	0.134072	-7.48763	19.4932	-14.2761
 636	1	5	-0.300668	-6.85707	13.7555	-8.31055
 637	1	5	-0.243237	-9.06704	10.9243	-11.9992
 638	1	9	0.021835	-8.25988	12.2296	-14.2502
 639	1	9	0.012312	-8.28687	13.9632	-14.4849
 640	1	9	0.041777	-9.77904	13.119	-14.0308