pySIMM System Object

828 atoms
897 bonds
1596 angles
2320 dihedrals
224 impropers

9 atom types
11 bond types
18 angle types
7 dihedral types
4 improper types

-145.660732 145.660732 xlo xhi
-145.660732 145.660732 ylo yhi
-145.660732 145.660732 zlo zhi

Masses

   1	12.01	# ca
   2	16.0	# o
   3	12.01	# c
   4	14.01	# n
   5	12.01	# c3
   6	19.0	# f
   7	1.008	# ha
   8	1.008	# hn
   9	1.008	# hc

Pair Coeffs

   1	0.086	3.3996695084235347	# ca
   2	0.21	2.959921901149463	# o
   3	0.086	3.3996695084235347	# c
   4	0.17	3.249998523775958	# n
   5	0.1094	3.3996695084235347	# c3
   6	0.061	3.1181455134911875	# f
   7	0.015	2.59964245953351	# ha
   8	0.0157	1.069078461768407	# hn
   9	0.0157	2.649532787749369	# hc

Bond Coeffs

   1	321.0	1.5156	# c3,ca
   2	300.9	1.5375	# c3,c3
   3	345.8	1.086	# ca,ha
   4	384.2	1.4121	# ca,n
   5	637.7	1.2183	# c,o
   6	330.6	1.0969	# c3,hc
   7	356.9	1.3497	# c3,f
   8	403.2	1.0129	# hn,n
   9	461.1	1.3984	# ca,ca
  10	427.6	1.3789	# c,n
  11	345.9	1.4906	# c,ca

Angle Coeffs

   1	70.89	107.36	# f,c3,f
   2	63.82	123.71	# c,n,ca
   3	68.72	122.6	# ca,c,o
   4	48.18	119.88	# ca,ca,ha
   5	67.87	120.19	# ca,ca,n
   6	67.68	115.25	# ca,c,n
   7	46.8	110.47	# ca,c3,hc
   8	48.33	117.55	# c,n,hn
   9	39.4	107.58	# hc,c3,hc
  10	74.22	123.05	# n,c,o
  11	62.86	111.51	# c3,c3,c3
  12	64.28	120.33	# c,ca,ca
  13	63.56	112.24	# ca,c3,ca
  14	63.15	112.07	# c3,c3,ca
  15	66.11	109.24	# c3,c3,f
  16	66.62	120.02	# ca,ca,ca
  17	63.74	127.08	# c,n,c
  18	63.53	120.77	# c3,ca,ca

Dihedral Coeffs

   1	2	2.5	2	180	2.0	1	0	# hn,n,c,o
   2	1	3.625	2	180	# X,ca,ca,X
   3	1	1.0	2	180	# X,c,ca,X
   4	1	0.0	2	0	# X,c3,ca,X
   5	1	0.15555555555555556	3	0	# X,c3,c3,X
   6	1	2.5	2	180	# X,c,n,X
   7	1	0.45	2	180	# X,ca,n,X

Improper Coeffs

   1	10.5	-1	2	# c,X,X,o
   2	1.1	-1	2	# n,X,X,hn
   3	1.1	-1	2	# ca,ca,ca,c3
   4	1.1	-1	2	# ca,X,X,ha

Atoms

   1	1	1	-0.024347	35.9648	-30.2752	-21.2174
   2	1	1	-0.071478	36.4892	-31.5728	-21.4752
   3	1	1	-0.180016	36.4963	-32.0198	-22.8301
   4	1	2	-0.370097	34.1614	-27.7751	-21.2173
   5	1	1	0.010306	35.4245	-29.5374	-22.2764
   6	1	1	-0.071748	36.0272	-31.2235	-23.8921
   7	1	2	-0.403598	34.4494	-29.211	-25.6264
   8	1	1	0.055994	35.4733	-29.9851	-23.5797
   9	1	3	0.021521	34.5186	-28.3633	-22.2245
  10	1	4	0.466017	34.0571	-28.2048	-23.5318
  11	1	3	0.096621	34.6488	-29.0919	-24.4278
  12	1	1	-0.099438	33.2411	-34.0441	-20.496
  13	1	5	-0.089685	36.8342	-32.5905	-20.3364
  14	1	1	-0.037281	35.6871	-33.6431	-20.3837
  15	1	1	-0.08188	34.3407	-33.1736	-20.398
  16	1	1	-0.106561	33.5034	-35.4095	-20.6016
  17	1	1	-0.037628	35.9058	-35.0447	-20.4665
  18	1	1	-0.12234	34.7954	-35.8946	-20.5923
  19	1	5	0.388954	36.8401	-31.956	-18.8823
  20	1	5	0.307788	38.2871	-33.179	-20.6002
  21	1	6	-0.129718	35.6508	-31.4298	-18.5151
  22	1	6	-0.129089	37.7546	-30.9678	-18.7604
  23	1	6	-0.119089	37.1037	-32.8685	-17.9209
  24	1	6	-0.103894	39.1922	-32.1875	-20.7579
  25	1	6	-0.097852	38.3808	-33.9414	-21.7105
  26	1	6	-0.104555	38.7444	-33.9676	-19.6026
  27	1	3	0.521254	34.7297	-37.3629	-20.8291
  28	1	3	0.53569	32.5703	-36.5418	-20.8298
  29	1	4	0.027822	33.3779	-37.6628	-20.9976
  30	1	2	-0.468874	35.6849	-38.1112	-20.9447
  31	1	2	-0.477974	31.3584	-36.4619	-20.9416
  32	1	1	-0.359831	32.8759	-38.9409	-21.4147
  33	1	1	0.131035	32.7519	-39.9945	-20.4773
  34	1	1	-0.120983	32.2483	-41.2447	-20.9038
  35	1	1	0.127261	32.4856	-39.1217	-22.7651
  36	1	1	-0.127195	31.9468	-40.3628	-23.1709
  37	1	1	0.144798	31.848	-41.4081	-22.2398
  38	1	5	-0.020676	32.6264	-37.9768	-23.7753
  39	1	5	-0.019785	33.1715	-39.7814	-19.0197
  40	1	7	0.164889	35.857	-29.8642	-20.221
  41	1	7	0.175264	36.7944	-33.031	-23.0809
  42	1	7	0.1582	35.9895	-31.6004	-24.912
  43	1	7	0.150763	32.2204	-33.6672	-20.5239
  44	1	7	0.144868	34.1307	-32.1097	-20.3488
  45	1	7	0.134072	36.8993	-35.4815	-20.4718
  46	1	5	-0.300668	32.1101	-42.435	-19.9541
  47	1	5	-0.243237	31.4594	-40.6139	-24.5982
  48	1	9	0.021835	33.4911	-37.3374	-23.5633
  49	1	9	0.012312	31.7309	-37.3429	-23.7698
  50	1	9	0.041777	32.7726	-38.3406	-24.7981
  51	1	9	0.110598	30.8712	-39.7699	-24.9809
  52	1	9	0.08293	32.3038	-40.7806	-25.279
  53	1	9	0.082252	30.8126	-41.4986	-24.6526
  54	1	9	0.027698	32.6445	-40.4479	-18.3283
  55	1	9	0.017051	32.9572	-38.7633	-18.6742
  56	1	9	0.037874	34.2472	-39.9584	-18.8994
  57	1	9	0.095908	33.0526	-42.6408	-19.431
  58	1	9	0.127068	31.3319	-42.2521	-19.2021
  59	1	9	0.099095	31.8331	-43.3517	-20.49
  60	1	1	-0.024347	22.7818	-20.1996	-25.4706
  61	1	1	-0.071478	23.8776	-20.865	-24.8656
  62	1	1	-0.180016	24.9077	-20.0715	-24.2828
  63	1	2	-0.370097	20.7216	-18.217	-26.6093
  64	1	1	0.010306	22.7754	-18.8032	-25.4987
  65	1	1	-0.071748	24.8751	-18.6602	-24.3182
  66	1	2	-0.403598	24.1173	-15.6498	-24.7522
  67	1	1	0.055994	23.787	-18.0465	-24.9438
  68	1	3	0.021521	21.7551	-17.8892	-26.0516
  69	1	4	0.466017	22.2241	-16.6067	-25.7771
  70	1	3	0.096621	23.4529	-16.6052	-25.1193
  71	1	1	-0.099438	27.3859	-22.6597	-26.589
  72	1	5	-0.089685	23.9617	-22.4155	-24.7725
  73	1	1	-0.037281	25.4316	-22.8269	-25.074
  74	1	1	-0.08188	26.0682	-22.3045	-26.2362
  75	1	1	-0.106561	28.0701	-23.5418	-25.7486
  76	1	1	-0.037628	26.1637	-23.7232	-24.2529
  77	1	1	-0.12234	27.4769	-24.0439	-24.6096
  78	1	5	0.388954	23.0649	-23.1705	-25.8322
  79	1	5	0.307788	23.4741	-22.8015	-23.3229
  80	1	6	-0.129718	23.2302	-22.6755	-27.0798
  81	1	6	-0.129089	21.7415	-23.1073	-25.5623
  82	1	6	-0.119089	23.3799	-24.4843	-25.9028
  83	1	6	-0.103894	23.3351	-24.1356	-23.148
  84	1	6	-0.097852	22.2743	-22.2473	-23.0349
  85	1	6	-0.104555	24.3242	-22.3563	-22.3699
  86	1	3	0.521254	28.4467	-24.943	-23.9375
  87	1	3	0.53569	29.4348	-24.1242	-25.8589
  88	1	4	0.027822	29.5802	-24.9524	-24.7476
  89	1	2	-0.468874	28.2502	-25.5612	-22.9049
  90	1	2	-0.477974	30.237	-23.9149	-26.7534
  91	1	1	-0.359831	30.7332	-25.7636	-24.4845
  92	1	1	0.131035	30.6178	-27.1697	-24.5778
  93	1	1	-0.120983	31.709	-27.9839	-24.2017
  94	1	1	0.127261	31.956	-25.1594	-24.1085
  95	1	1	-0.127195	33.0885	-25.9702	-23.8637
  96	1	1	0.144798	32.9497	-27.3781	-23.8751
  97	1	5	-0.020676	32.0619	-23.6356	-23.9711
  98	1	5	-0.019785	29.3159	-27.8162	-25.0739
  99	1	7	0.164889	21.9386	-20.7243	-25.9077
 100	1	7	0.175264	25.7454	-20.5541	-23.7834
 101	1	7	0.1582	25.6614	-18.06	-23.8657
 102	1	7	0.150763	27.8576	-22.268	-27.4883
 103	1	7	0.144868	25.5313	-21.6159	-26.8836
 104	1	7	0.134072	25.7489	-24.178	-23.3597
 105	1	5	-0.300668	31.5447	-29.5153	-24.1596
 106	1	5	-0.243237	34.4539	-25.3353	-23.5549
 107	1	9	0.021835	32.7126	-23.3483	-23.1366
 108	1	9	0.012312	31.0985	-23.1548	-23.7679
 109	1	9	0.041777	32.4698	-23.1925	-24.888
 110	1	9	0.110598	34.5939	-24.3782	-24.0718
 111	1	9	0.08293	34.5658	-25.1553	-22.4772
 112	1	9	0.082252	35.295	-25.9607	-23.8777
 113	1	9	0.027698	28.7188	-27.1486	-25.705
 114	1	9	0.017051	28.6876	-28.1315	-24.2315
 115	1	9	0.037874	29.5152	-28.6969	-25.696
 116	1	9	0.095908	30.5219	-29.8177	-23.9029
 117	1	9	0.127068	31.7885	-29.9619	-25.1339
 118	1	9	0.099095	32.1765	-29.9946	-23.4027
 119	1	1	-0.024347	10.5541	-12.4128	-31.0205
 120	1	1	-0.071478	11.4985	-12.8268	-30.0413
 121	1	1	-0.180016	11.2935	-12.4252	-28.6915
 122	1	2	-0.370097	8.18931	-11.1732	-32.6275
 123	1	1	0.010306	9.47651	-11.6127	-30.6242
 124	1	1	-0.071748	10.2062	-11.6128	-28.3154
 125	1	2	-0.403598	7.66706	-9.83768	-28.2102
 126	1	1	0.055994	9.31116	-11.2205	-29.3116
 127	1	3	0.021521	8.36265	-11.0426	-31.4276
 128	1	4	0.466017	7.59372	-10.3212	-30.5148
 129	1	3	0.096621	8.09561	-10.3788	-29.2166
 130	1	1	-0.099438	15.4324	-11.3654	-28.972
 131	1	5	-0.089685	12.6943	-13.7681	-30.3658
 132	1	1	-0.037281	13.9562	-13.2603	-29.6042
 133	1	1	-0.08188	14.2556	-11.8669	-29.5734
 134	1	1	-0.106561	16.3221	-12.2834	-28.4021
 135	1	1	-0.037628	14.8835	-14.1514	-29.0092
 136	1	1	-0.12234	16.0395	-13.6323	-28.4211
 137	1	5	0.388954	13.0916	-13.7865	-31.8911
 138	1	5	0.307788	12.2303	-15.2132	-29.932
 139	1	6	-0.129718	13.2428	-12.5338	-32.3777
 140	1	6	-0.129089	12.1854	-14.414	-32.6742
 141	1	6	-0.119089	14.2724	-14.4155	-32.0928
 142	1	6	-0.103894	10.9996	-15.5058	-30.412
 143	1	6	-0.097852	12.1474	-15.3284	-28.5868
 144	1	6	-0.104555	13.048	-16.1976	-30.368
 145	1	3	0.521254	17.1787	-14.3547	-27.8165
 146	1	3	0.53569	17.6712	-12.0991	-27.783
 147	1	4	0.027822	18.1197	-13.3858	-27.4839
 148	1	2	-0.468874	17.268	-15.5641	-27.6928
 149	1	2	-0.477974	18.2614	-11.042	-27.6388
 150	1	1	-0.359831	19.4031	-13.7648	-26.9667
 151	1	1	0.131035	20.4143	-14.1425	-27.8794
 152	1	1	-0.120983	21.461	-14.9872	-27.4455
 153	1	1	0.127261	19.5131	-14.0741	-25.593
 154	1	1	-0.127195	20.533	-14.9545	-25.1618
 155	1	1	0.144798	21.4547	-15.4579	-26.111
 156	1	5	-0.020676	18.4585	-13.555	-24.6115
 157	1	5	-0.019785	20.3037	-13.7615	-29.3609
 158	1	7	0.164889	10.622	-12.6982	-32.0648
 159	1	7	0.175264	11.9818	-12.755	-27.9159
 160	1	7	0.1582	10.0534	-11.3044	-27.2833
 161	1	7	0.150763	15.6602	-10.3012	-28.9773
 162	1	7	0.144868	13.5776	-11.1605	-30.0457
 163	1	7	0.134072	14.7547	-15.2283	-29.0211
 164	1	5	-0.300668	22.5003	-15.5111	-28.4515
 165	1	5	-0.243237	20.6009	-15.4596	-23.7088
 166	1	9	0.021835	17.726	-14.3356	-24.3722
 167	1	9	0.012312	17.9109	-12.6886	-24.9998
 168	1	9	0.041777	18.9197	-13.2151	-23.6764
 169	1	9	0.110598	19.7209	-15.2099	-23.1077
 170	1	9	0.08293	20.6786	-16.5528	-23.6572
 171	1	9	0.082252	21.4745	-15.038	-23.1938
 172	1	9	0.027698	21.2583	-13.3982	-29.7573
 173	1	9	0.017051	19.5894	-12.9521	-29.5444
 174	1	9	0.037874	19.9909	-14.6237	-29.9622
 175	1	9	0.095908	22.8853	-14.7098	-29.093
 176	1	9	0.127068	23.389	-15.9442	-27.9771
 177	1	9	0.099095	22.0611	-16.2801	-29.1013
 178	1	1	-0.024347	-2.91858	-3.93133	-30.0787
 179	1	1	-0.071478	-2.43319	-2.69274	-30.5727
 180	1	1	-0.180016	-2.78836	-1.50466	-29.8693
 181	1	2	-0.370097	-3.75283	-6.30686	-28.3285
 182	1	1	0.010306	-3.59796	-3.9621	-28.8604
 183	1	1	-0.071748	-3.45696	-1.56096	-28.6267
 184	1	2	-0.403598	-4.30711	-2.46103	-25.7836
 185	1	1	0.055994	-3.8076	-2.81646	-28.1221
 186	1	3	0.021521	-3.87143	-5.13702	-28.0028
 187	1	4	0.466017	-4.10863	-4.60767	-26.7355
 188	1	3	0.096621	-4.16709	-3.21343	-26.7345
 189	1	1	-0.099438	1.09504	-4.44238	-29.2067
 190	1	5	-0.089685	-1.34503	-2.73708	-31.6914
 191	1	1	-0.037281	-0.237462	-3.69532	-31.1571
 192	1	1	-0.08188	0.136117	-3.59466	-29.7846
 193	1	1	-0.106561	1.70327	-5.38691	-30.0313
 194	1	1	-0.037628	0.430706	-4.65414	-31.9675
 195	1	1	-0.12234	1.39476	-5.48502	-31.3732
 196	1	5	0.388954	-0.638551	-1.35236	-31.9652
 197	1	5	0.307788	-2.0385	-3.23201	-33.0201
 198	1	6	-0.129718	-0.113024	-0.811612	-30.8418
 199	1	6	-0.129089	-1.47772	-0.434196	-32.4952
 200	1	6	-0.119089	0.403428	-1.4771	-32.8181
 201	1	6	-0.103894	-3.15421	-2.51547	-33.2838
 202	1	6	-0.097852	-2.42482	-4.52485	-32.9471
 203	1	6	-0.104555	-1.24855	-3.13268	-34.1125
 204	1	3	0.521254	2.28625	-6.52363	-31.9687
 205	1	3	0.53569	2.78307	-6.35121	-29.7188
 206	1	4	0.027822	3.10035	-6.96591	-30.9253
 207	1	2	-0.468874	2.3269	-6.84808	-33.1429
 208	1	2	-0.477974	3.32631	-6.4889	-28.6356
 209	1	1	-0.359831	4.22145	-7.85138	-31.0501
 210	1	1	0.131035	5.51869	-7.29989	-31.1741
 211	1	1	-0.120983	6.64635	-8.14611	-31.0813
 212	1	1	0.127261	4.0336	-9.2447	-30.8993
 213	1	1	-0.127195	5.16255	-10.0963	-30.8252
 214	1	1	0.144798	6.46017	-9.52954	-30.8525
 215	1	5	-0.020676	2.61166	-9.81029	-30.7728
 216	1	5	-0.019785	5.72675	-5.78694	-31.335
 217	1	7	0.164889	-2.63337	-4.87696	-30.5317
 218	1	7	0.175264	-2.4618	-0.527678	-30.2119
 219	1	7	0.1582	-3.60512	-0.667248	-28.0238
 220	1	7	0.150763	1.3723	-4.35633	-28.1576
 221	1	7	0.144868	-0.32376	-2.84671	-29.1442
 222	1	7	0.134072	0.229253	-4.75974	-33.0291
 223	1	5	-0.300668	8.0717	-7.56763	-31.1474
 224	1	5	-0.243237	4.98532	-11.614	-30.6593
 225	1	9	0.021835	2.17724	-9.98635	-31.7647
 226	1	9	0.012312	1.93895	-9.13569	-30.231
 227	1	9	0.041777	2.57629	-10.7543	-30.2188
 228	1	9	0.110598	4.17268	-11.9943	-31.2919
 229	1	9	0.08293	5.869	-12.1902	-30.9567
 230	1	9	0.082252	4.75347	-11.8726	-29.6177
 231	1	9	0.027698	4.8081	-5.19407	-31.2966
 232	1	9	0.017051	6.19561	-5.56162	-32.3004
 233	1	9	0.037874	6.37872	-5.39941	-30.5423
 234	1	9	0.095908	8.78616	-8.26372	-31.6037
 235	1	9	0.127068	8.13626	-6.66112	-31.7601
 236	1	9	0.099095	8.43788	-7.31506	-30.1433
 237	1	1	-0.024347	-0.991567	-11.0965	-14.7415
 238	1	1	-0.071478	-1.30868	-10.2796	-15.856
 239	1	1	-0.180016	-1.91808	-9.01481	-15.6157
 240	1	2	-0.370097	-0.307541	-12.2683	-11.9804
 241	1	1	0.010306	-1.23641	-10.6068	-13.4572
 242	1	1	-0.071748	-2.12986	-8.52967	-14.3085
 243	1	2	-0.403598	-1.88636	-7.95616	-11.2629
 244	1	1	0.055994	-1.74779	-9.34358	-13.2408
 245	1	3	0.021521	-0.808817	-11.1704	-12.1593
 246	1	4	0.466017	-1.00393	-10.1424	-11.2388
 247	1	3	0.096621	-1.61506	-9.02015	-11.7965
 248	1	1	-0.099438	-3.94315	-10.4754	-19.6091
 249	1	5	-0.089685	-0.805507	-10.6245	-17.2817
 250	1	1	-0.037281	-1.84565	-10.0973	-18.3322
 251	1	1	-0.08188	-3.06629	-10.8028	-18.5535
 252	1	1	-0.106561	-3.63315	-9.36601	-20.3985
 253	1	1	-0.037628	-1.62212	-8.93022	-19.1151
 254	1	1	-0.12234	-2.5443	-8.57978	-20.1061
 255	1	5	0.388954	-0.606129	-12.1837	-17.5279
 256	1	5	0.307788	0.611848	-9.92888	-17.4138
 257	1	6	-0.129718	-1.63069	-12.9224	-17.0471
 258	1	6	-0.129089	0.49633	-12.7156	-16.9552
 259	1	6	-0.119089	-0.503618	-12.4614	-18.8475
 260	1	6	-0.103894	1.51877	-10.3977	-16.5268
 261	1	6	-0.097852	0.571053	-8.60228	-17.1536
 262	1	6	-0.104555	1.14027	-10.0885	-18.6481
 263	1	3	0.521254	-2.5078	-7.45991	-21.0772
 264	1	3	0.53569	-4.27058	-8.83727	-21.6366
 265	1	4	0.027822	-3.52736	-7.7101	-21.9991
 266	1	2	-0.468874	-1.70131	-6.54495	-21.0657
 267	1	2	-0.477974	-5.20001	-9.35552	-22.2328
 268	1	1	-0.359831	-3.71076	-6.94885	-23.212
 269	1	1	0.131035	-2.62651	-6.82222	-24.1171
 270	1	1	-0.120983	-2.73532	-5.95305	-25.2243
 271	1	1	0.127261	-4.94782	-6.31392	-23.4947
 272	1	1	-0.127195	-5.11328	-5.60494	-24.7104
 273	1	1	0.144798	-3.99497	-5.39073	-25.549
 274	1	5	-0.020676	-6.11724	-6.3913	-22.506
 275	1	5	-0.019785	-1.33117	-7.6263	-23.9304
 276	1	7	0.164889	-0.475084	-12.0461	-14.8354
 277	1	7	0.175264	-2.14224	-8.34869	-16.4443
 278	1	7	0.1582	-2.50294	-7.52382	-14.1281
 279	1	7	0.150763	-4.82542	-11.0775	-19.818
 280	1	7	0.144868	-3.33597	-11.6521	-17.9379
 281	1	7	0.134072	-0.743759	-8.30515	-19.0163
 282	1	5	-0.300668	-1.48622	-5.63439	-26.0702
 283	1	5	-0.243237	-6.4869	-5.04175	-25.1066
 284	1	9	0.021835	-6.68462	-5.45364	-22.4762
 285	1	9	0.012312	-5.79278	-6.56956	-21.4748
 286	1	9	0.041777	-6.81015	-7.19461	-22.7862
 287	1	9	0.110598	-7.30675	-5.69408	-24.78
 288	1	9	0.08293	-6.64789	-4.05064	-24.6622
 289	1	9	0.082252	-6.61171	-4.94519	-26.1919
 290	1	9	0.027698	-1.47979	-8.54358	-23.3499
 291	1	9	0.017051	-0.558706	-7.02763	-23.4321
 292	1	9	0.037874	-0.925127	-7.95829	-24.8934
 293	1	9	0.095908	-1.51914	-4.63653	-26.5229
 294	1	9	0.127068	-0.569673	-5.6374	-25.4663
 295	1	9	0.099095	-1.35652	-6.36866	-26.8766
 296	1	1	-0.024347	-0.129308	-11.5414	1.45955
 297	1	1	-0.071478	-0.0977496	-12.0565	0.137137
 298	1	1	-0.180016	-1.09564	-11.6228	-0.784015
 299	1	2	-0.370097	-0.433804	-9.72708	3.94334
 300	1	1	0.010306	-1.07763	-10.5584	1.7707
 301	1	1	-0.071748	-2.03805	-10.6366	-0.451106
 302	1	2	-0.403598	-3.3415	-8.11943	0.692163
 303	1	1	0.055994	-1.97772	-10.0968	0.830136
 304	1	3	0.021521	-1.12028	-9.64256	2.93826
 305	1	4	0.466017	-1.96075	-8.59938	2.54118
 306	1	3	0.096621	-2.58839	-8.84457	1.32273
 307	1	1	-0.099438	2.11285	-9.98705	-2.67831
 308	1	5	-0.089685	1.05537	-12.9444	-0.410468
 309	1	1	-0.037281	1.5359	-12.1889	-1.68763
 310	1	1	-0.08188	1.91605	-10.8191	-1.56158
 311	1	1	-0.106561	1.88921	-10.5364	-3.93945
 312	1	1	-0.037628	1.39967	-12.7248	-2.99462
 313	1	1	-0.12234	1.54569	-11.8648	-4.08955
 314	1	5	0.388954	0.447275	-14.3814	-0.67129
 315	1	5	0.307788	2.29998	-13.1004	0.555259
 316	1	6	-0.129718	1.36223	-15.2593	-1.13856
 317	1	6	-0.129089	-0.572631	-14.377	-1.55883
 318	1	6	-0.119089	-0.0769709	-14.9112	0.45658
 319	1	6	-0.103894	2.02411	-13.8144	1.6689
 320	1	6	-0.097852	2.79543	-11.9199	0.987398
 321	1	6	-0.104555	3.32821	-13.7205	-0.0657576
 322	1	3	0.521254	1.141	-12.0769	-5.50137
 323	1	3	0.53569	1.73688	-9.85479	-5.24962
 324	1	4	0.027822	1.21725	-10.8229	-6.10095
 325	1	2	-0.468874	0.649975	-13.0962	-5.95541
 326	1	2	-0.477974	1.87345	-8.66139	-5.46028
 327	1	1	-0.359831	0.66704	-10.5385	-7.38813
 328	1	1	0.131035	-0.728575	-10.3443	-7.50927
 329	1	1	-0.120983	-1.3059	-10.2399	-8.79552
 330	1	1	0.127261	1.51415	-10.4829	-8.51293
 331	1	1	-0.127195	0.954481	-10.2286	-9.7819
 332	1	1	0.144798	-0.456135	-10.1891	-9.92688
 333	1	5	-0.020676	3.02604	-10.6992	-8.36957
 334	1	5	-0.019785	-1.60603	-10.282	-6.25137
 335	1	7	0.164889	0.615702	-11.7958	2.20641
 336	1	7	0.175264	-1.09148	-11.9835	-1.80995
 337	1	7	0.1582	-2.72498	-10.231	-1.19114
 338	1	7	0.150763	2.32438	-8.92541	-2.5638
 339	1	7	0.144868	1.96789	-10.3517	-0.583918
 340	1	7	0.134072	1.07334	-13.7425	-3.18133
 341	1	5	-0.300668	-2.83317	-10.1789	-8.96928
 342	1	5	-0.243237	1.87673	-10.0363	-10.9983
 343	1	9	0.021835	3.41418	-11.3283	-9.18012
 344	1	9	0.012312	3.31035	-11.2061	-7.44101
 345	1	9	0.041777	3.55922	-9.74132	-8.39826
 346	1	9	0.110598	2.81736	-9.54047	-10.7293
 347	1	9	0.08293	2.12844	-11.0015	-11.4577
 348	1	9	0.082252	1.4311	-9.40029	-11.7725
 349	1	9	0.027698	-2.47228	-9.62386	-6.38644
 350	1	9	0.017051	-1.07059	-9.87174	-5.38734
 351	1	9	0.037874	-1.97198	-11.2788	-5.97758
 352	1	9	0.095908	-3.37046	-10.6903	-8.16181
 353	1	9	0.127068	-3.18226	-9.13685	-8.99621
 354	1	9	0.099095	-3.17387	-10.6677	-9.8894
 355	1	1	-0.024347	-2.76319	3.62072	4.25662
 356	1	1	-0.071478	-1.39398	3.8715	4.5379
 357	1	1	-0.180016	-0.886652	5.18374	4.31265
 358	1	2	-0.370097	-5.69325	3.65502	3.22646
 359	1	1	0.010306	-3.53853	4.64224	3.70511
 360	1	1	-0.071748	-1.69634	6.20865	3.78517
 361	1	2	-0.403598	-3.96616	7.91729	2.54816
 362	1	1	0.055994	-3.02184	5.90139	3.48207
 363	1	3	0.021521	-4.94152	4.61559	3.22571
 364	1	4	0.466017	-5.17259	5.90149	2.74142
 365	1	3	0.096621	-4.07424	6.74651	2.87669
 366	1	1	-0.099438	-1.51585	0.174113	2.36995
 367	1	5	-0.089685	-0.512015	2.7263	5.1137
 368	1	1	-0.037281	-0.959112	1.38515	4.45593
 369	1	1	-0.08188	-1.12881	1.34731	3.04255
 370	1	1	-0.106561	-1.72803	-0.974179	3.13448
 371	1	1	-0.037628	-1.16493	0.18442	5.19092
 372	1	1	-0.12234	-1.55561	-0.973457	4.50306
 373	1	5	0.388954	-0.712695	2.76279	6.67464
 374	1	5	0.307788	1.02037	2.89134	4.77414
 375	1	6	-0.129718	-1.96646	2.39136	7.01955
 376	1	6	-0.129089	-0.54144	4.00856	7.17397
 377	1	6	-0.119089	0.149303	1.95981	7.3378
 378	1	6	-0.103894	1.63656	3.85424	5.49605
 379	1	6	-0.097852	1.21587	3.19173	3.46975
 380	1	6	-0.104555	1.70511	1.74882	5.00748
 381	1	3	0.521254	-1.7483	-2.36946	4.9925
 382	1	3	0.53569	-2.03331	-2.35817	2.6991
 383	1	4	0.027822	-1.982	-3.13742	3.852
 384	1	2	-0.468874	-1.59315	-2.75614	6.13814
 385	1	2	-0.477974	-2.15167	-2.73069	1.54361
 386	1	1	-0.359831	-1.94773	-4.57061	3.78979
 387	1	1	0.131035	-0.734236	-5.18554	3.41454
 388	1	1	-0.120983	-0.743261	-6.52921	2.9847
 389	1	1	0.127261	-3.13795	-5.32139	3.90997
 390	1	1	-0.127195	-3.12362	-6.70784	3.6151
 391	1	1	0.144798	-1.93595	-7.29089	3.10402
 392	1	5	-0.020676	-4.43017	-4.58878	4.28856
 393	1	5	-0.019785	0.5694	-4.37658	3.39364
 394	1	7	0.164889	-3.2203	2.6495	4.43095
 395	1	7	0.175264	0.142052	5.43654	4.54408
 396	1	7	0.1582	-1.30763	7.20807	3.60125
 397	1	7	0.150763	-1.6233	0.149307	1.28691
 398	1	7	0.144868	-0.954344	2.24191	2.45023
 399	1	7	0.134072	-1.01189	0.12071	6.26332
 400	1	5	-0.300668	0.510798	-7.1297	2.31517
 401	1	5	-0.243237	-4.40791	-7.54422	3.74509
 402	1	9	0.021835	-4.74918	-3.92779	3.47311
 403	1	9	0.012312	-4.28206	-3.97002	5.18191
 404	1	9	0.041777	-5.27242	-5.25077	4.50847
 405	1	9	0.110598	-5.14599	-7.24482	2.98802
 406	1	9	0.08293	-4.25098	-8.62286	3.63205
 407	1	9	0.082252	-4.86515	-7.41935	4.73445
 408	1	9	0.027698	0.785902	-4.00216	2.38576
 409	1	9	0.017051	1.41971	-4.98557	3.7244
 410	1	9	0.037874	0.551499	-3.51943	4.07469
 411	1	9	0.095908	1.20948	-6.37425	1.94005
 412	1	9	0.127068	1.06863	-7.76541	3.01635
 413	1	9	0.099095	0.261534	-7.73125	1.43263
 414	1	1	-0.024347	-15.6943	7.88175	0.570727
 415	1	1	-0.071478	-16.0697	8.71261	-0.526525
 416	1	1	-0.180016	-16.6947	8.06474	-1.63566
 417	1	2	-0.370097	-15.1337	5.61107	2.5932
 418	1	1	0.010306	-15.8094	6.49364	0.463382
 419	1	1	-0.071748	-16.6905	6.65743	-1.7673
 420	1	2	-0.403598	-15.8789	3.6593	-1.56288
 421	1	1	0.055994	-16.1745	5.89657	-0.716643
 422	1	3	0.021521	-15.3894	5.43633	1.41302
 423	1	4	0.466017	-15.3998	4.24139	0.682006
 424	1	3	0.096621	-15.8392	4.44937	-0.63313
 425	1	1	-0.099438	-12.5689	8.01305	-2.14264
 426	1	5	-0.089685	-15.4174	10.1361	-0.682141
 427	1	1	-0.037281	-13.9422	9.72149	-0.980989
 428	1	1	-0.08188	-13.716	8.81065	-2.05882
 429	1	1	-0.106561	-11.6117	8.17275	-1.15089
 430	1	1	-0.037628	-12.8723	9.94671	-0.0718455
 431	1	1	-0.12234	-11.7179	9.15736	-0.192319
 432	1	5	0.388954	-15.6031	11.0249	0.629141
 433	1	5	0.307788	-16.0051	11.0	-1.88529
 434	1	6	-0.129718	-16.901	11.3275	0.848433
 435	1	6	-0.129089	-14.9278	12.1952	0.57198
 436	1	6	-0.119089	-15.1749	10.4567	1.7737
 437	1	6	-0.103894	-17.3471	11.1365	-1.79611
 438	1	6	-0.097852	-15.7676	10.5007	-3.11649
 439	1	6	-0.104555	-15.484	12.2448	-1.94484
 440	1	3	0.521254	-10.5342	9.03993	0.699196
 441	1	3	0.53569	-10.4369	7.33008	-0.851471
 442	1	4	0.027822	-9.83943	7.90681	0.26445
 443	1	2	-0.468874	-10.2809	9.76747	1.64421
 444	1	2	-0.477974	-10.1482	6.28912	-1.41849
 445	1	1	-0.359831	-8.67122	7.36193	0.895143
 446	1	1	0.131035	-7.48652	7.196	0.135943
 447	1	1	-0.120983	-6.36772	6.57352	0.72619
 448	1	1	0.127261	-8.72469	6.95435	2.25138
 449	1	1	-0.127195	-7.54225	6.51867	2.88948
 450	1	1	0.144798	-6.37615	6.31625	2.11603
 451	1	5	-0.020676	-10.0432	6.98235	3.03687
 452	1	5	-0.019785	-7.39183	7.68629	-1.3163
 453	1	7	0.164889	-15.1719	8.24464	1.44485
 454	1	7	0.175264	-17.044	8.63016	-2.49137
 455	1	7	0.1582	-17.0187	6.17244	-2.68381
 456	1	7	0.150763	-12.4689	7.23861	-2.90085
 457	1	7	0.144868	-14.4894	8.59299	-2.7829
 458	1	7	0.134072	-12.9523	10.6186	0.776925
 459	1	5	-0.300668	-5.1442	6.20054	-0.129365
 460	1	5	-0.243237	-7.52318	6.24743	4.40309
 461	1	9	0.021835	-10.1394	7.91144	3.61222
 462	1	9	0.012312	-10.1136	6.14418	3.74046
 463	1	9	0.041777	-10.9229	6.89076	2.39027
 464	1	9	0.110598	-8.24476	6.8691	4.94742
 465	1	9	0.08293	-7.75924	5.19606	4.61524
 466	1	9	0.082252	-6.5522	6.47151	4.86083
 467	1	9	0.027698	-7.62799	6.87945	-2.02131
 468	1	9	0.017051	-6.38781	8.05425	-1.55735
 469	1	9	0.037874	-8.06443	8.52622	-1.5225
 470	1	9	0.095908	-4.59786	5.336	0.267291
 471	1	9	0.127068	-5.43347	5.90812	-1.14746
 472	1	9	0.099095	-4.44215	7.04114	-0.207881
 473	1	1	-0.024347	-15.7407	-4.4854	9.69108
 474	1	1	-0.071478	-15.1739	-5.21234	8.59673
 475	1	1	-0.180016	-13.8629	-5.74124	8.79924
 476	1	2	-0.370097	-16.3436	-2.86411	12.297
 477	1	1	0.010306	-14.9961	-4.27855	10.8597
 478	1	1	-0.071748	-13.1329	-5.53453	9.98486
 479	1	2	-0.403598	-12.0171	-4.51556	12.6725
 480	1	1	0.055994	-13.7215	-4.7775	10.9924
 481	1	3	0.021521	-15.3026	-3.45635	12.0669
 482	1	4	0.466017	-14.1337	-3.48792	12.8311
 483	1	3	0.096621	-13.1448	-4.28976	12.263
 484	1	1	-0.099438	-13.0994	-3.69594	4.90474
 485	1	5	-0.089685	-15.8652	-5.32174	7.18384
 486	1	1	-0.037281	-15.1167	-4.29772	6.24704
 487	1	1	-0.08188	-13.7937	-4.5633	5.77218
 488	1	1	-0.106561	-13.7155	-2.50105	4.54248
 489	1	1	-0.037628	-15.6774	-3.04328	5.8678
 490	1	1	-0.12234	-14.949	-2.17152	5.05021
 491	1	5	0.388954	-17.4386	-5.0307	7.26626
 492	1	5	0.307788	-15.771	-6.80496	6.58198
 493	1	6	-0.129718	-17.7822	-3.8144	7.73717
 494	1	6	-0.129089	-18.0807	-5.89665	8.08201
 495	1	6	-0.119089	-18.0491	-5.0979	6.0618
 496	1	6	-0.103894	-16.3641	-7.72326	7.37543
 497	1	6	-0.097852	-14.5345	-7.30202	6.38841
 498	1	6	-0.104555	-16.3384	-6.90209	5.35896
 499	1	3	0.521254	-15.3274	-0.845619	4.50502
 500	1	3	0.53569	-13.2903	-1.43545	3.59376
 501	1	4	0.027822	-14.3197	-0.496155	3.60298
 502	1	2	-0.468874	-16.3625	-0.24805	4.75043
 503	1	2	-0.477974	-12.2845	-1.45002	2.9048
 504	1	1	-0.359831	-14.4404	0.621589	2.70574
 505	1	1	0.131035	-13.5378	1.70799	2.74856
 506	1	1	-0.120983	-13.7793	2.84728	1.94067
 507	1	1	0.127261	-15.5387	0.64633	1.81936
 508	1	1	-0.127195	-15.8954	1.85391	1.17996
 509	1	1	0.144798	-15.0188	2.9735	1.24753
 510	1	5	-0.020676	-16.3673	-0.624471	1.57099
 511	1	5	-0.019785	-12.3031	1.66072	3.65959
 512	1	7	0.164889	-16.7182	-4.02834	9.67426
 513	1	7	0.175264	-13.3465	-6.2915	8.0285
 514	1	7	0.1582	-12.1182	-5.90913	10.1027
 515	1	7	0.150763	-12.1114	-3.94617	4.52368
 516	1	7	0.144868	-13.2611	-5.45785	6.05206
 517	1	7	0.134072	-16.663	-2.71049	6.15768
 518	1	5	-0.300668	-12.7049	3.94902	1.8719
 519	1	5	-0.243237	-17.2496	1.90758	0.452084
 520	1	9	0.021835	-15.8431	-1.54348	1.85845
 521	1	9	0.012312	-16.5932	-0.743954	0.504304
 522	1	9	0.041777	-17.3161	-0.597031	2.11979
 523	1	9	0.110598	-17.6726	2.91394	0.377502
 524	1	9	0.08293	-17.1603	1.50127	-0.564802
 525	1	9	0.082252	-18.0167	1.32252	0.973036
 526	1	9	0.027698	-12.051	2.64733	4.06493
 527	1	9	0.017051	-11.4287	1.29159	3.10862
 528	1	9	0.037874	-12.4426	1.01566	4.53349
 529	1	9	0.095908	-12.7276	4.57837	2.77198
 530	1	9	0.127068	-11.6958	3.52281	1.79512
 531	1	9	0.099095	-12.8106	4.60628	1.00134
 532	1	1	-0.024347	-8.28127	2.99729	21.7405
 533	1	1	-0.071478	-8.83701	1.75826	22.1792
 534	1	1	-0.180016	-10.1293	1.81435	22.7891
 535	1	2	-0.370097	-7.52181	5.98174	21.2569
 536	1	1	0.010306	-9.00884	4.18195	21.8967
 537	1	1	-0.071748	-10.8694	3.00824	22.8831
 538	1	2	-0.403598	-11.8896	5.92855	22.8368
 539	1	1	0.055994	-10.285	4.17952	22.4111
 540	1	3	0.021521	-8.6153	5.59257	21.6315
 541	1	4	0.466017	-9.72539	6.35189	22.0061
 542	1	3	0.096621	-10.793	5.56844	22.44
 543	1	1	-0.099438	-8.03683	-1.10735	18.2918
 544	1	5	-0.089685	-8.10615	0.387485	21.9095
 545	1	1	-0.037281	-8.52831	-0.0683956	20.483
 546	1	1	-0.08188	-7.62973	-0.705654	19.5792
 547	1	1	-0.106561	-9.36812	-0.894612	17.9284
 548	1	1	-0.037628	-9.87953	0.0949914	20.0724
 549	1	1	-0.12234	-10.2699	-0.333057	18.8037
 550	1	5	0.388954	-8.555	-0.745281	22.9255
 551	1	5	0.307788	-6.53281	0.585508	22.0528
 552	1	6	-0.129718	-9.82863	-1.15676	22.7332
 553	1	6	-0.129089	-8.45206	-0.329478	24.2078
 554	1	6	-0.119089	-7.84624	-1.89029	22.8186
 555	1	6	-0.103894	-5.81243	-0.556904	22.1073
 556	1	6	-0.097852	-6.22699	1.2685	23.1777
 557	1	6	-0.104555	-5.99125	1.26209	21.0148
 558	1	3	0.521254	-11.6264	-0.403849	18.1973
 559	1	3	0.53569	-10.1049	-1.31068	16.7123
 560	1	4	0.027822	-11.4463	-1.04314	16.9746
 561	1	2	-0.468874	-12.6701	-0.0523921	18.721
 562	1	2	-0.477974	-9.62147	-1.85443	15.7339
 563	1	1	-0.359831	-12.4864	-1.5313	16.1221
 564	1	1	0.131035	-12.9178	-0.736846	15.0395
 565	1	1	-0.120983	-13.5589	-1.36398	13.9424
 566	1	1	0.127261	-12.8984	-2.87679	16.2508
 567	1	1	-0.127195	-13.6666	-3.46275	15.2235
 568	1	1	0.144798	-13.8706	-2.74607	14.0219
 569	1	5	-0.020676	-12.448	-3.74182	17.4372
 570	1	5	-0.019785	-12.5731	0.756895	15.0294
 571	1	7	0.164889	-7.30703	3.08565	21.2806
 572	1	7	0.175264	-10.6219	0.929131	23.1684
 573	1	7	0.1582	-11.8652	3.02921	23.3212
 574	1	7	0.150763	-7.35	-1.60635	17.6109
 575	1	7	0.144868	-6.604	-0.915709	19.8584
 576	1	7	0.134072	-10.6415	0.501458	20.7266
 577	1	5	-0.300668	-13.8387	-0.60331	12.6355
 578	1	5	-0.243237	-14.1669	-4.90824	15.3568
 579	1	9	0.021835	-13.2914	-3.95892	18.1031
 580	1	9	0.012312	-11.6663	-3.28805	18.0548
 581	1	9	0.041777	-12.0383	-4.69796	17.0883
 582	1	9	0.110598	-14.5029	-5.12504	16.379
 583	1	9	0.08293	-15.0349	-5.10866	14.716
 584	1	9	0.082252	-13.3798	-5.62926	15.1007
 585	1	9	0.027698	-13.3695	1.35958	14.579
 586	1	9	0.017051	-11.6389	0.946092	14.4871
 587	1	9	0.037874	-12.4594	1.15933	16.0428
 588	1	9	0.095908	-13.5156	0.441696	12.6435
 589	1	9	0.127068	-13.3234	-1.06432	11.7837
 590	1	9	0.099095	-14.9143	-0.590975	12.4138
 591	1	1	-0.024347	-14.4757	17.3961	25.0446
 592	1	1	-0.071478	-14.0235	17.1507	26.3588
 593	1	1	-0.180016	-13.8174	18.2727	27.2169
 594	1	2	-0.370097	-15.0798	18.4485	22.2904
 595	1	1	0.010306	-14.6667	18.7081	24.6263
 596	1	1	-0.071748	-13.9828	19.6007	26.7532
 597	1	2	-0.403598	-14.1201	22.1537	24.9262
 598	1	1	0.055994	-14.3975	19.7937	25.4307
 599	1	3	0.021521	-14.8962	19.1724	23.2548
 600	1	4	0.466017	-14.6245	20.5371	23.2835
 601	1	3	0.096621	-14.4107	21.0204	24.577
 602	1	1	-0.099438	-10.7871	15.1657	24.2893
 603	1	5	-0.089685	-13.7662	15.6686	26.7547
 604	1	1	-0.037281	-12.8607	15.0302	25.6507
 605	1	1	-0.08188	-11.6967	15.7268	25.2134
 606	1	1	-0.106561	-11.0646	13.8924	23.7801
 607	1	1	-0.037628	-13.1053	13.7437	25.1009
 608	1	1	-0.12234	-12.2025	13.216	24.1666
 609	1	5	0.388954	-15.1895	14.9917	26.8801
 610	1	5	0.307788	-13.0007	15.5057	28.1231
 611	1	6	-0.129718	-16.0281	15.7413	27.6317
 612	1	6	-0.129089	-15.1547	13.7653	27.4474
 613	1	6	-0.119089	-15.7968	14.8458	25.6806
 614	1	6	-0.103894	-12.641	14.2209	28.3448
 615	1	6	-0.097852	-13.7372	15.8952	29.1885
 616	1	6	-0.104555	-11.8521	16.2191	28.1517
 617	1	3	0.521254	-12.1471	11.8527	23.5822
 618	1	3	0.53569	-10.2286	12.9716	22.951
 619	1	4	0.027822	-10.9076	11.7536	22.9487
 620	1	2	-0.468874	-12.9501	10.9608	23.7961
 621	1	2	-0.477974	-9.11475	13.2063	22.5138
 622	1	1	-0.359831	-10.3236	10.4764	22.6328
 623	1	1	0.131035	-10.272	9.99108	21.3039
 624	1	1	-0.120983	-9.95427	8.62988	21.0676
 625	1	1	0.127261	-9.92647	9.65134	23.7132
 626	1	1	-0.127195	-9.65128	8.28477	23.4859
 627	1	1	0.144798	-9.73449	7.76759	22.17
 628	1	5	-0.020676	-9.87396	10.2076	25.145
 629	1	5	-0.019785	-10.5914	10.9074	20.1179
 630	1	7	0.164889	-14.6145	16.5928	24.3251
 631	1	7	0.175264	-13.4839	18.1414	28.2413
 632	1	7	0.1582	-13.7448	20.4546	27.3835
 633	1	7	0.150763	-9.86984	15.6837	24.0156
 634	1	7	0.144868	-11.4669	16.7046	25.6291
 635	1	7	0.134072	-13.9427	13.1269	25.4109
 636	1	5	-0.300668	-9.92156	8.08692	19.6293