pySIMM System Object

1949 atoms
2113 bonds
3762 angles
5474 dihedrals
528 impropers

9 atom types
11 bond types
18 angle types
7 dihedral types
4 improper types

-196.672979 196.672979 xlo xhi
-196.672979 196.672979 ylo yhi
-196.672979 196.672979 zlo zhi

Masses

   1	12.01	# ca
   2	16.0	# o
   3	12.01	# c
   4	14.01	# n
   5	12.01	# c3
   6	19.0	# f
   7	1.008	# ha
   8	1.008	# hn
   9	1.008	# hc

Pair Coeffs

   1	0.086	3.3996695084235347	# ca
   2	0.21	2.959921901149463	# o
   3	0.086	3.3996695084235347	# c
   4	0.17	3.249998523775958	# n
   5	0.1094	3.3996695084235347	# c3
   6	0.061	3.1181455134911875	# f
   7	0.015	2.59964245953351	# ha
   8	0.0157	1.069078461768407	# hn
   9	0.0157	2.649532787749369	# hc

Bond Coeffs

   1	321.0	1.5156	# c3,ca
   2	300.9	1.5375	# c3,c3
   3	345.8	1.086	# ca,ha
   4	384.2	1.4121	# ca,n
   5	637.7	1.2183	# c,o
   6	330.6	1.0969	# c3,hc
   7	356.9	1.3497	# c3,f
   8	403.2	1.0129	# hn,n
   9	461.1	1.3984	# ca,ca
  10	427.6	1.3789	# c,n
  11	345.9	1.4906	# c,ca

Angle Coeffs

   1	70.89	107.36	# f,c3,f
   2	63.82	123.71	# c,n,ca
   3	68.72	122.6	# ca,c,o
   4	48.18	119.88	# ca,ca,ha
   5	67.87	120.19	# ca,ca,n
   6	67.68	115.25	# ca,c,n
   7	46.8	110.47	# ca,c3,hc
   8	48.33	117.55	# c,n,hn
   9	39.4	107.58	# hc,c3,hc
  10	74.22	123.05	# n,c,o
  11	62.86	111.51	# c3,c3,c3
  12	64.28	120.33	# c,ca,ca
  13	63.56	112.24	# ca,c3,ca
  14	63.15	112.07	# c3,c3,ca
  15	66.11	109.24	# c3,c3,f
  16	66.62	120.02	# ca,ca,ca
  17	63.74	127.08	# c,n,c
  18	63.53	120.77	# c3,ca,ca

Dihedral Coeffs

   1	2	2.5	2	180	2.0	1	0	# hn,n,c,o
   2	1	3.625	2	180	# X,ca,ca,X
   3	1	1.0	2	180	# X,c,ca,X
   4	1	0.0	2	0	# X,c3,ca,X
   5	1	0.15555555555555556	3	0	# X,c3,c3,X
   6	1	2.5	2	180	# X,c,n,X
   7	1	0.45	2	180	# X,ca,n,X

Improper Coeffs

   1	10.5	-1	2	# c,X,X,o
   2	1.1	-1	2	# n,X,X,hn
   3	1.1	-1	2	# ca,ca,ca,c3
   4	1.1	-1	2	# ca,X,X,ha

Atoms

   1	1	1	-0.024347	-12.6309	43.1298	98.4667
   2	1	1	-0.071478	-12.4489	44.4357	98.9972
   3	1	1	-0.180016	-13.3363	45.465	98.5727
   4	1	2	-0.370097	-13.5159	40.577	96.9333
   5	1	1	0.010306	-13.6567	42.913	97.5397
   6	1	1	-0.071748	-14.3649	45.2236	97.6392
   7	1	2	-0.403598	-16.3684	43.9915	95.601
   8	1	1	0.055994	-14.5009	43.9278	97.1374
   9	1	3	0.021521	-14.0527	41.6675	96.8344
  10	1	4	0.466017	-15.1389	42.0306	96.0385
  11	1	3	0.096621	-15.4769	43.3767	96.1638
  12	1	1	-0.099438	-9.66999	47.5256	97.91
  13	1	5	-0.089685	-11.3639	44.7716	100.063
  14	1	1	-0.037281	-10.6967	46.1232	99.6758
  15	1	1	-0.08188	-10.3202	46.3444	98.3203
  16	1	1	-0.106561	-9.39265	48.4893	98.8833
  17	1	1	-0.037628	-10.3866	47.1266	100.631
  18	1	1	-0.12234	-9.74324	48.2927	100.203
  19	1	5	0.388954	-10.1922	43.7184	100.135
  20	1	5	0.307788	-12.1125	44.8099	101.451
  21	1	6	-0.129718	-9.68312	43.4536	98.9102
  22	1	6	-0.129089	-10.5669	42.5367	100.674
  23	1	6	-0.119089	-9.15865	44.171	100.881
  24	1	6	-0.103894	-12.8832	43.7127	101.63
  25	1	6	-0.097852	-12.9448	45.8721	101.544
  26	1	6	-0.104555	-11.2756	44.8642	102.512
  27	1	3	0.521254	-9.29682	49.4758	100.983
  28	1	3	0.53569	-8.70668	49.8049	98.7738
  29	1	4	0.027822	-8.68846	50.3279	100.065
  30	1	2	-0.468874	-9.44939	49.6438	102.181
  31	1	2	-0.477974	-8.25285	50.2968	97.7541
  32	1	1	-0.359831	-8.10874	51.5931	100.408
  33	1	1	0.131035	-6.70742	51.6957	100.579
  34	1	1	-0.120983	-6.13946	52.9505	100.895
  35	1	1	0.127261	-8.94668	52.7221	100.569
  36	1	1	-0.127195	-8.37229	53.9649	100.919
  37	1	1	0.144798	-6.97911	54.0631	101.068
  38	1	5	-0.020676	-10.4613	52.5847	100.379
  39	1	5	-0.019785	-5.81628	50.4614	100.403
  40	1	7	0.164889	-12.0137	42.2851	98.754
  41	1	7	0.175264	-13.2349	46.4699	98.9779
  42	1	7	0.1582	-15.0412	46.0128	97.3179
  43	1	7	0.150763	-9.37948	47.6821	96.8728
  44	1	7	0.144868	-10.525	45.584	97.571
  45	1	7	0.134072	-10.6148	47.0236	101.687
  46	1	5	-0.300668	-4.63058	53.141	101.052
  47	1	5	-0.243237	-9.21941	55.2177	101.138
  48	1	9	0.021835	-10.9304	52.189	101.288
  49	1	9	0.012312	-10.709	51.9082	99.5523
  50	1	9	0.041777	-10.9474	53.5363	100.141
  51	1	9	0.110598	-9.65911	55.5683	100.196
  52	1	9	0.08293	-10.0349	55.0281	101.848
  53	1	9	0.082252	-8.62493	56.0446	101.547
  54	1	9	0.027698	-5.55261	50.3236	99.3475
  55	1	9	0.017051	-6.30783	49.5442	100.749
  56	1	9	0.037874	-4.88446	50.5314	100.974
  57	1	9	0.095908	-4.25897	52.6331	101.951
  58	1	9	0.127068	-4.08593	52.7455	100.185
  59	1	9	0.099095	-4.3613	54.2009	101.143
  60	1	1	-0.024347	-22.2329	33.7877	87.2155
  61	1	1	-0.071478	-21.8133	34.2469	88.4938
  62	1	1	-0.180016	-22.789	34.8253	89.3545
  63	1	2	-0.370097	-23.7431	33.085	84.5937
  64	1	1	0.010306	-23.5724	33.9499	86.8449
  65	1	1	-0.071748	-24.136	34.9697	88.9642
  66	1	2	-0.403598	-26.8562	35.0067	87.456
  67	1	1	0.055994	-24.4982	34.5234	87.6922
  68	1	3	0.021521	-24.2552	33.5984	85.5743
  69	1	4	0.466017	-25.5794	33.9979	85.7521
  70	1	3	0.096621	-25.8135	34.5603	87.0054
  71	1	1	-0.099438	-19.8971	37.9573	89.4182
  72	1	5	-0.089685	-20.3454	34.1228	89.0027
  73	1	1	-0.037281	-19.9309	35.4891	89.6249
  74	1	1	-0.08188	-20.2732	36.6879	88.937
  75	1	1	-0.106561	-19.1606	38.0143	90.6041
  76	1	1	-0.037628	-19.1708	35.5945	90.8212
  77	1	1	-0.12234	-18.8094	36.8671	91.2844
  78	1	5	0.388954	-19.3001	33.8301	87.8583
  79	1	5	0.307788	-20.333	32.9269	90.0317
  80	1	6	-0.129718	-19.4292	34.6969	86.8279
  81	1	6	-0.129089	-19.4074	32.5832	87.3463
  82	1	6	-0.119089	-18.0272	33.9601	88.2969
  83	1	6	-0.103894	-19.0885	32.5353	90.386
  84	1	6	-0.097852	-20.9488	31.8333	89.5266
  85	1	6	-0.104555	-20.9903	33.2361	91.1724
  86	1	3	0.521254	-18.0099	37.2648	92.4755
  87	1	3	0.53569	-18.5967	39.1825	91.3313
  88	1	4	0.027822	-17.9198	38.6554	92.4288
  89	1	2	-0.468874	-17.5402	36.5076	93.3073
  90	1	2	-0.477974	-18.6964	40.3512	90.9975
  91	1	1	-0.359831	-17.1939	39.4584	93.3732
  92	1	1	0.131035	-15.9223	39.9644	93.0167
  93	1	1	-0.120983	-15.2478	40.8471	93.8925
  94	1	1	0.127261	-17.7693	39.7676	94.6275
  95	1	1	-0.127195	-17.0547	40.5753	95.544
  96	1	1	0.144798	-15.8137	41.1377	95.1577
  97	1	5	-0.020676	-19.1585	39.2312	94.9964
  98	1	5	-0.019785	-15.2899	39.5781	91.6733
  99	1	7	0.164889	-21.5603	33.32	86.5042
 100	1	7	0.175264	-22.5003	35.1733	90.3441
 101	1	7	0.1582	-24.877	35.4169	89.6233
 102	1	7	0.150763	-20.1568	38.8669	88.88
 103	1	7	0.144868	-20.8316	36.6379	88.0056
 104	1	7	0.134072	-18.8452	34.7263	91.385
 105	1	5	-0.300668	-13.9074	41.48	93.4768
 106	1	5	-0.243237	-17.6343	40.872	96.9373
 107	1	9	0.021835	-19.7727	38.9863	94.123
 108	1	9	0.012312	-19.7403	39.9673	95.5641
 109	1	9	0.041777	-19.0721	38.3235	95.6064
 110	1	9	0.110598	-18.2988	41.7461	96.9063
 111	1	9	0.08293	-18.2107	40.0268	97.3326
 112	1	9	0.082252	-16.8617	41.0656	97.6908
 113	1	9	0.027698	-15.5266	40.3236	90.9039
 114	1	9	0.017051	-15.6295	38.6018	91.3091
 115	1	9	0.037874	-14.1991	39.4965	91.7436
 116	1	9	0.095908	-13.7055	42.4392	93.9669
 117	1	9	0.127068	-13.0704	40.8067	93.708
 118	1	9	0.099095	-13.8743	41.7001	92.4026
 119	1	1	-0.024347	-35.4728	32.4361	76.0162
 120	1	1	-0.071478	-34.1928	32.2264	76.5981
 121	1	1	-0.180016	-33.8683	30.9182	77.0573
 122	1	2	-0.370097	-38.4032	32.2576	74.9973
 123	1	1	0.010306	-36.3669	31.3616	75.9444
 124	1	1	-0.071748	-34.7792	29.8469	76.962
 125	1	2	-0.403598	-37.256	28.0207	76.5132
 126	1	1	0.055994	-36.0306	30.1029	76.3996
 127	1	3	0.021521	-37.7668	31.321	75.4497
 128	1	4	0.466017	-38.1837	30.0055	75.6501
 129	1	3	0.096621	-37.193	29.2005	76.2076
 130	1	1	-0.099438	-33.0958	33.1301	80.6231
 131	1	5	-0.089685	-33.128	33.3545	76.7469
 132	1	1	-0.037281	-32.5874	33.3114	78.2054
 133	1	1	-0.08188	-33.511	33.1482	79.2771
 134	1	1	-0.106561	-31.733	33.2871	80.8871
 135	1	1	-0.037628	-31.2135	33.4831	78.5217
 136	1	1	-0.12234	-30.8219	33.4589	79.866
 137	1	5	0.388954	-33.7032	34.8083	76.5395
 138	1	5	0.307788	-32.0265	33.0744	75.6518
 139	1	6	-0.129718	-34.797	35.0297	77.3037
 140	1	6	-0.129089	-34.053	35.0619	75.2583
 141	1	6	-0.119089	-32.8062	35.7571	76.8933
 142	1	6	-0.103894	-32.5819	32.8541	74.4384
 143	1	6	-0.097852	-31.2964	31.9725	75.9374
 144	1	6	-0.104555	-31.1531	34.0941	75.4927
 145	1	3	0.521254	-29.4735	33.6167	80.4718
 146	1	3	0.53569	-31.001	33.3305	82.1805
 147	1	4	0.027822	-29.6624	33.5293	81.8497
 148	1	2	-0.468874	-28.4321	33.7968	79.8641
 149	1	2	-0.477974	-31.4935	33.2019	83.2887
 150	1	1	-0.359831	-28.6082	33.6415	82.817
 151	1	1	0.131035	-28.05	34.9106	83.096
 152	1	1	-0.120983	-26.9919	35.0185	84.0284
 153	1	1	0.127261	-28.1525	32.4849	83.491
 154	1	1	-0.127195	-27.1724	32.6077	84.5031
 155	1	1	0.144798	-26.5844	33.8716	84.7523
 156	1	5	-0.020676	-28.7303	31.1075	83.14
 157	1	5	-0.019785	-28.5853	36.163	82.3891
 158	1	7	0.164889	-35.7983	33.3978	75.6335
 159	1	7	0.175264	-32.8947	30.7263	77.5036
 160	1	7	0.1582	-34.5298	28.851	77.3223
 161	1	7	0.150763	-33.8102	33.0089	81.4353
 162	1	7	0.144868	-34.5722	33.0411	79.0671
 163	1	7	0.134072	-30.4535	33.6416	77.7637
 164	1	5	-0.300668	-26.3052	36.3735	84.2758
 165	1	5	-0.243237	-26.7357	31.3775	85.3165
 166	1	9	0.021835	-29.5534	30.8469	83.8169
 167	1	9	0.012312	-27.9725	30.3179	83.2071
 168	1	9	0.041777	-29.1116	31.055	82.1143
 169	1	9	0.110598	-25.9161	30.8474	84.8124
 170	1	9	0.08293	-26.3972	31.6294	86.3283
 171	1	9	0.082252	-27.557	30.6651	85.4617
 172	1	9	0.027698	-28.5614	37.0427	83.0428
 173	1	9	0.017051	-29.6316	36.0633	82.0788
 174	1	9	0.037874	-27.9912	36.3875	81.4946
 175	1	9	0.095908	-25.2598	36.2747	84.5918
 176	1	9	0.127068	-26.2688	36.9894	83.3685
 177	1	9	0.099095	-26.8369	36.9453	85.0485
 178	1	1	-0.024347	-48.5518	24.4703	71.9086
 179	1	1	-0.071478	-49.5211	25.1879	72.6559
 180	1	1	-0.180016	-50.7551	24.5406	72.9557
 181	1	2	-0.370097	-46.8849	22.427	70.2822
 182	1	1	0.010306	-48.8266	23.1583	71.5184
 183	1	1	-0.071748	-51.0101	23.2122	72.5524
 184	1	2	-0.403598	-50.8926	20.3347	71.3511
 185	1	1	0.055994	-50.0186	22.5405	71.8339
 186	1	3	0.021521	-47.9972	22.2134	70.7349
 187	1	4	0.466017	-48.7713	21.0603	70.6265
 188	1	3	0.096621	-50.0037	21.1668	71.2684
 189	1	1	-0.099438	-46.1114	25.5445	75.1718
 190	1	5	-0.089685	-49.1916	26.6485	73.0844
 191	1	1	-0.037281	-47.7549	26.6486	73.6838
 192	1	1	-0.08188	-47.3911	25.6102	74.5881
 193	1	1	-0.106561	-45.1946	26.547	74.8471
 194	1	1	-0.037628	-46.797	27.6585	73.3981
 195	1	1	-0.12234	-45.5298	27.5747	73.9902
 196	1	5	0.388954	-50.1387	27.2158	74.2101
 197	1	5	0.307788	-49.3397	27.5346	71.7873
 198	1	6	-0.129718	-50.2334	26.3701	75.2616
 199	1	6	-0.129089	-51.3973	27.4553	73.7773
 200	1	6	-0.119089	-49.6736	28.3826	74.7117
 201	1	6	-0.103894	-50.5143	27.2995	71.1589
 202	1	6	-0.097852	-48.3705	27.2711	70.8817
 203	1	6	-0.104555	-49.2976	28.8627	72.0365
 204	1	3	0.521254	-44.3552	28.4817	73.8769
 205	1	3	0.53569	-43.7976	26.7573	75.3088
 206	1	4	0.027822	-43.3686	27.9307	74.693
 207	1	2	-0.468874	-44.296	29.4979	73.2059
 208	1	2	-0.477974	-43.1873	26.0513	76.0942
 209	1	1	-0.359831	-42.071	28.5076	74.9036
 210	1	1	0.131035	-41.8023	29.1791	76.1185
 211	1	1	-0.120983	-40.4969	29.6555	76.3815
 212	1	1	0.127261	-41.0688	28.3691	73.9154
 213	1	1	-0.127195	-39.7884	28.9293	74.1364
 214	1	1	0.144798	-39.5006	29.5379	75.3818
 215	1	5	-0.020676	-41.3632	27.614	72.6125
 216	1	5	-0.019785	-42.9151	29.3665	77.1582
 217	1	7	0.164889	-47.5977	24.9138	71.6337
 218	1	7	0.175264	-51.5412	25.0521	73.501
 219	1	7	0.1582	-51.9518	22.718	72.7822
 220	1	7	0.150763	-45.8418	24.7444	75.8586
 221	1	7	0.144868	-48.1115	24.8378	74.846
 222	1	7	0.134072	-47.0081	28.4966	72.7419
 223	1	5	-0.300668	-40.1688	30.3016	77.74
 224	1	5	-0.243237	-38.7028	28.849	73.0501
 225	1	9	0.021835	-41.622	28.3144	71.8087
 226	1	9	0.012312	-42.1862	26.8968	72.7053
 227	1	9	0.041777	-40.4995	27.0243	72.2836
 228	1	9	0.110598	-39.1261	28.8952	72.0389
 229	1	9	0.08293	-37.9907	29.6816	73.0954
 230	1	9	0.082252	-38.1328	27.9143	73.1339
 231	1	9	0.027698	-42.8985	28.5547	77.8959
 232	1	9	0.017051	-43.9151	29.3912	76.7103
 233	1	9	0.037874	-42.8161	30.3164	77.696
 234	1	9	0.095908	-40.45	31.3631	77.7447
 235	1	9	0.127068	-40.7017	29.8098	78.5639
 236	1	9	0.099095	-39.11	30.2387	78.0146
 237	1	1	-0.024347	-45.5124	10.5382	62.2532
 238	1	1	-0.071478	-46.1828	11.3416	63.2142
 239	1	1	-0.180016	-47.2222	12.2063	62.7655
 240	1	2	-0.370097	-44.4443	9.1294	59.6945
 241	1	1	0.010306	-45.8749	10.6567	60.9061
 242	1	1	-0.071748	-47.5725	12.3071	61.4051
 243	1	2	-0.403598	-47.7878	12.0448	58.3179
 244	1	1	0.055994	-46.8707	11.5192	60.493
 245	1	3	0.021521	-45.3355	9.96148	59.7097
 246	1	4	0.466017	-46.0646	10.4721	58.636
 247	1	3	0.096621	-47.0104	11.4185	59.0202
 248	1	1	-0.099438	-45.0509	15.0948	64.8545
 249	1	5	-0.089685	-45.8525	11.3009	64.7347
 250	1	1	-0.037281	-45.8299	12.7745	65.2377
 251	1	1	-0.08188	-45.0801	13.7331	64.4977
 252	1	1	-0.106561	-45.7904	15.4908	65.9709
 253	1	1	-0.037628	-46.5433	13.2177	66.3836
 254	1	1	-0.12234	-46.5123	14.5788	66.7126
 255	1	5	0.388954	-44.4356	10.6909	65.0698
 256	1	5	0.307788	-46.9672	10.41	65.4068
 257	1	6	-0.129718	-43.4558	11.2389	64.3161
 258	1	6	-0.129089	-44.3684	9.35392	64.8816
 259	1	6	-0.119089	-44.0912	10.9183	66.3578
 260	1	6	-0.103894	-47.0851	9.21142	64.7912
 261	1	6	-0.097852	-48.1897	10.9838	65.3315
 262	1	6	-0.104555	-46.7252	10.1545	66.7122
 263	1	3	0.521254	-47.2176	15.3186	67.7931
 264	1	3	0.53569	-46.0036	16.8422	66.551
 265	1	4	0.027822	-46.8786	16.6586	67.6186
 266	1	2	-0.468874	-47.9676	14.8341	68.623
 267	1	2	-0.477974	-45.5419	17.8872	66.1245
 268	1	1	-0.359831	-47.4011	17.7347	68.4092
 269	1	1	0.131035	-46.8954	17.9608	69.7096
 270	1	1	-0.120983	-47.4121	19.0271	70.4814
 271	1	1	0.127261	-48.398	18.5736	67.8598
 272	1	1	-0.127195	-48.8374	19.7026	68.5872
 273	1	1	0.144798	-48.3496	19.9141	69.8995
 274	1	5	-0.020676	-48.9808	18.2779	66.4713
 275	1	5	-0.019785	-45.7913	17.0605	70.2788
 276	1	7	0.164889	-44.7273	9.83669	62.5162
 277	1	7	0.175264	-47.7703	12.8158	63.4811
 278	1	7	0.1582	-48.3631	12.973	61.0657
 279	1	7	0.150763	-44.4895	15.8221	64.271
 280	1	7	0.144868	-44.5273	13.4242	63.6141
 281	1	7	0.134072	-47.1339	12.55	67.0026
 282	1	5	-0.300668	-46.9358	19.2488	71.9274
 283	1	5	-0.243237	-49.8384	20.6874	67.9575
 284	1	9	0.021835	-48.9311	17.2156	66.2069
 285	1	9	0.012312	-48.4473	18.8417	65.696
 286	1	9	0.041777	-50.0433	18.5413	66.4116
 287	1	9	0.110598	-49.6738	20.8056	66.879
 288	1	9	0.08293	-50.8703	20.3408	68.1034
 289	1	9	0.082252	-49.7688	21.7018	68.3669
 290	1	9	0.027698	-45.1766	16.5933	69.5015
 291	1	9	0.017051	-46.2211	16.2582	70.8912
 292	1	9	0.037874	-45.0884	17.6247	70.9026
 293	1	9	0.095908	-47.6967	19.7219	72.5596
 294	1	9	0.127068	-46.6951	18.3049	72.4325
 295	1	9	0.099095	-46.0384	19.8818	71.9514
 296	1	1	-0.024347	-44.2654	7.1285	45.1319
 297	1	1	-0.071478	-44.0086	7.70805	46.4026
 298	1	1	-0.180016	-43.8878	9.12471	46.4841
 299	1	2	-0.370097	-44.7911	6.49771	42.1451
 300	1	1	0.010306	-44.4103	7.96769	44.0235
 301	1	1	-0.071748	-44.0387	9.95249	45.352
 302	1	2	-0.403598	-44.4363	11.1164	42.4858
 303	1	1	0.055994	-44.3029	9.33962	44.1255
 304	1	3	0.021521	-44.6505	7.61935	42.6029
 305	1	4	0.466017	-44.6636	8.83871	41.9289
 306	1	3	0.096621	-44.4719	9.93075	42.7729
 307	1	1	-0.099438	-46.5929	8.59854	49.7199
 308	1	5	-0.089685	-43.7823	6.85249	47.6839
 309	1	1	-0.037281	-44.5235	7.53349	48.8711
 310	1	1	-0.08188	-45.8487	8.01632	48.6739
 311	1	1	-0.106561	-45.9919	8.68559	50.9787
 312	1	1	-0.037628	-43.9569	7.63609	50.1692
 313	1	1	-0.12234	-44.7115	8.2203	51.1923
 314	1	5	0.388954	-42.2198	6.76531	47.8813
 315	1	5	0.307788	-44.3766	5.39506	47.5832
 316	1	6	-0.129718	-41.8464	5.86345	48.8169
 317	1	6	-0.129089	-41.6952	7.95866	48.2424
 318	1	6	-0.119089	-41.5923	6.40963	46.737
 319	1	6	-0.103894	-43.6785	4.58726	46.7536
 320	1	6	-0.097852	-45.6566	5.40621	47.1464
 321	1	6	-0.104555	-44.3959	4.78013	48.788
 322	1	3	0.521254	-44.3725	8.43149	52.6236
 323	1	3	0.53569	-46.5203	9.20476	52.2686
 324	1	4	0.027822	-45.4998	9.01313	53.1974
 325	1	2	-0.468874	-43.3156	8.14683	53.1599
 326	1	2	-0.477974	-47.6286	9.67854	52.4529
 327	1	1	-0.359831	-45.6048	9.36322	54.5834
 328	1	1	0.131035	-45.0404	10.5752	55.0426
 329	1	1	-0.120983	-45.137	10.914	56.412
 330	1	1	0.127261	-46.2869	8.49657	55.4679
 331	1	1	-0.127195	-46.4665	8.87835	56.8173
 332	1	1	0.144798	-45.8762	10.0777	57.2831
 333	1	5	-0.020676	-46.8506	7.16268	54.9606
 334	1	5	-0.019785	-44.3231	11.5158	54.0651
 335	1	7	0.164889	-44.3391	6.05799	44.9738
 336	1	7	0.175264	-43.66	9.59534	47.438
 337	1	7	0.1582	-43.9372	11.0337	45.4177
 338	1	7	0.150763	-47.6084	8.95712	49.5623
 339	1	7	0.144868	-46.3162	7.92984	47.696
 340	1	7	0.134072	-42.9657	7.26587	50.4089
 341	1	5	-0.300668	-44.4781	12.1983	56.9456
 342	1	5	-0.243237	-47.2892	7.99768	57.7738
 343	1	9	0.021835	-47.9029	7.27074	54.6701
 344	1	9	0.012312	-46.7872	6.37639	55.7221
 345	1	9	0.041777	-46.304	6.77041	54.0961
 346	1	9	0.110598	-46.6545	7.23528	58.2457
 347	1	9	0.08293	-47.7758	8.56677	58.5745
 348	1	9	0.082252	-48.1076	7.48054	57.2583
 349	1	9	0.027698	-44.5056	12.5693	54.3075
 350	1	9	0.017051	-44.6559	11.3954	53.0283
 351	1	9	0.037874	-43.2399	11.3445	54.0885
 352	1	9	0.095908	-43.5389	12.4249	56.4259
 353	1	9	0.127068	-45.147	13.0609	56.8204
 354	1	9	0.099095	-44.2062	12.1357	58.006
 355	1	1	-0.024347	-44.8522	7.38888	29.5824
 356	1	1	-0.071478	-46.2044	7.77761	29.3828
 357	1	1	-0.180016	-46.6048	8.17686	28.0749
 358	1	2	-0.370097	-41.8337	6.64379	29.3429
 359	1	1	0.010306	-43.9645	7.42576	28.501
 360	1	1	-0.071748	-45.6954	8.20141	26.9984
 361	1	2	-0.403598	-43.2437	7.9372	25.1113
 362	1	1	0.055994	-44.3767	7.81713	27.2437
 363	1	3	0.021521	-42.5293	7.04483	28.4251
 364	1	4	0.466017	-42.1805	7.22372	27.0867
 365	1	3	0.096621	-43.2332	7.69643	26.3079
 366	1	1	-0.099438	-45.1996	10.1306	32.8313
 367	1	5	-0.089685	-47.2027	7.67991	30.5753
 368	1	1	-0.037281	-46.5261	8.28823	31.838
 369	1	1	-0.08188	-45.7907	9.5018	31.7163
 370	1	1	-0.106561	-45.3681	9.5336	34.0839
 371	1	1	-0.037628	-46.679	7.72303	33.1315
 372	1	1	-0.12234	-46.0883	8.366	34.2248
 373	1	5	0.388954	-47.5569	6.14927	30.724
 374	1	5	0.307788	-48.5323	8.50121	30.3636
 375	1	6	-0.129718	-46.5069	5.43842	31.1941
 376	1	6	-0.129089	-47.8841	5.59705	29.5333
 377	1	6	-0.119089	-48.6002	5.91392	31.5513
 378	1	6	-0.103894	-49.3567	7.9581	29.4392
 379	1	6	-0.097852	-48.2785	9.77305	29.9794
 380	1	6	-0.104555	-49.2504	8.59303	31.5064
 381	1	3	0.521254	-46.1155	8.00809	35.666
 382	1	3	0.53569	-44.9068	9.96304	35.4328
 383	1	4	0.027822	-45.3954	9.00523	36.319
 384	1	2	-0.468874	-46.6866	7.04863	36.156
 385	1	2	-0.477974	-44.2386	10.9518	35.6842
 386	1	1	-0.359831	-45.1897	9.02983	37.7382
 387	1	1	0.131035	-46.2614	9.38401	38.5902
 388	1	1	-0.120983	-46.0989	9.29114	39.9921
 389	1	1	0.127261	-43.933	8.65708	38.2677
 390	1	1	-0.127195	-43.7373	8.66573	39.6678
 391	1	1	0.144798	-44.8326	8.94394	40.5208
 392	1	5	-0.020676	-42.7897	8.24516	37.3304
 393	1	5	-0.019785	-47.6005	9.84021	37.9967
 394	1	7	0.164889	-44.4941	7.04758	30.551
 395	1	7	0.175264	-47.6305	8.4558	27.8589
 396	1	7	0.1582	-46.0062	8.49093	25.9968
 397	1	7	0.150763	-44.6439	11.0607	32.7286
 398	1	7	0.144868	-45.6857	9.97629	30.7439
 399	1	7	0.134072	-47.2516	6.81973	33.3136
 400	1	5	-0.300668	-47.2812	9.56843	40.9376
 401	1	5	-0.243237	-42.3569	8.33827	40.262
 402	1	9	0.021835	-43.1454	7.82106	36.3847
 403	1	9	0.012312	-42.1543	7.46887	37.7725
 404	1	9	0.041777	-42.1555	9.10798	37.0921
 405	1	9	0.110598	-41.5397	8.70858	39.6304
 406	1	9	0.08293	-42.1888	8.79866	41.2426
 407	1	9	0.082252	-42.2287	7.25353	40.376
 408	1	9	0.027698	-47.4945	10.2843	37.0006
 409	1	9	0.017051	-48.0753	10.6152	38.61
 410	1	9	0.037874	-48.2967	8.99633	37.9147
 411	1	9	0.095908	-47.2298	8.99355	41.8698
 412	1	9	0.127068	-47.3281	10.6336	41.2032
 413	1	9	0.099095	-48.2439	9.29238	40.4903
 414	1	1	-0.024347	-31.0273	4.49433	19.2741
 415	1	1	-0.071478	-31.8649	5.40182	19.9754
 416	1	1	-0.180016	-31.2763	6.23097	20.9726
 417	1	2	-0.370097	-28.752	2.64621	18.2673
 418	1	1	0.010306	-29.6754	4.42018	19.6228
 419	1	1	-0.071748	-29.9088	6.14466	21.3021
 420	1	2	-0.403598	-26.924	5.32207	21.5954
 421	1	1	0.055994	-29.1309	5.21486	20.6112
 422	1	3	0.021521	-28.6205	3.50674	19.1216
 423	1	4	0.466017	-27.4899	3.81358	19.8766
 424	1	3	0.096621	-27.705	4.84432	20.7884
 425	1	1	-0.099438	-34.2784	4.38995	23.3353
 426	1	5	-0.089685	-33.397	5.51334	19.7217
 427	1	1	-0.037281	-34.1056	5.45908	21.1057
 428	1	1	-0.08188	-33.6506	4.52547	22.0814
 429	1	1	-0.106561	-35.3863	5.19862	23.6
 430	1	1	-0.037628	-35.2398	6.25347	21.4142
 431	1	1	-0.12234	-35.8498	6.10037	22.6646
 432	1	5	0.388954	-33.9963	4.32098	18.8809
 433	1	5	0.307788	-33.6245	6.86409	18.9384
 434	1	6	-0.129718	-33.5934	4.32793	17.5903
 435	1	6	-0.129089	-35.3486	4.34665	18.8658
 436	1	6	-0.119089	-33.6556	3.11962	19.401
 437	1	6	-0.103894	-32.7783	6.97242	17.8887
 438	1	6	-0.097852	-33.4004	7.94485	19.7194
 439	1	6	-0.104555	-34.8726	6.99532	18.4359
 440	1	3	0.521254	-37.08	6.73259	23.2034
 441	1	3	0.53569	-36.3045	5.22285	24.7709
 442	1	4	0.027822	-37.3026	6.13792	24.4428
 443	1	2	-0.468874	-37.7669	7.56314	22.6335
 444	1	2	-0.477974	-36.2208	4.51916	25.7633
 445	1	1	-0.359831	-38.488	6.36555	25.2167
 446	1	1	0.131035	-38.6269	7.56449	25.9515
 447	1	1	-0.120983	-39.861	7.86211	26.5766
 448	1	1	0.127261	-39.5368	5.41839	25.1666
 449	1	1	-0.127195	-40.7361	5.66929	25.871
 450	1	1	0.144798	-40.9078	6.90884	26.5337
 451	1	5	-0.020676	-39.3884	4.13456	24.3367
 452	1	5	-0.019785	-37.4592	8.55566	26.0263
 453	1	7	0.164889	-31.391	3.83096	18.4964
 454	1	7	0.175264	-31.8934	6.93805	21.5232
 455	1	7	0.1582	-29.4691	6.76026	22.0839
 456	1	7	0.150763	-33.935	3.65896	24.065
 457	1	7	0.144868	-32.8065	3.87699	21.8606
 458	1	7	0.134072	-35.6731	6.95343	20.7073
 459	1	5	-0.300668	-40.0629	9.21301	27.2844
 460	1	5	-0.243237	-41.8669	4.6263	25.8717
 461	1	9	0.021835	-39.0465	3.30363	24.9661
 462	1	9	0.012312	-38.6808	4.23522	23.5064
 463	1	9	0.041777	-40.3349	3.8385	23.8701
 464	1	9	0.110598	-42.4996	4.73265	24.98
 465	1	9	0.08293	-41.4761	3.60105	25.8855
 466	1	9	0.082252	-42.5148	4.69372	26.7536
 467	1	9	0.027698	-36.4844	8.06522	25.9229
 468	1	9	0.017051	-37.4235	9.07584	26.9907
 469	1	9	0.037874	-37.54	9.31094	25.2348
 470	1	9	0.095908	-39.6641	9.17825	28.307
 471	1	9	0.127068	-39.5554	10.0297	26.7549
 472	1	9	0.099095	-41.1117	9.52361	27.35
 473	1	1	-0.024347	-18.2	-3.04371	15.1648
 474	1	1	-0.071478	-17.967	-2.29833	16.3493
 475	1	1	-0.180016	-17.4425	-0.980272	16.2209
 476	1	2	-0.370097	-18.3581	-4.18869	12.3118
 477	1	1	0.010306	-17.8764	-2.47245	13.9332
 478	1	1	-0.071748	-17.0961	-0.434271	14.966
 479	1	2	-0.403598	-16.3367	-0.0169361	11.9671
 480	1	1	0.055994	-17.3097	-1.21936	13.8308
 481	1	3	0.021521	-17.9174	-3.08487	12.5882
 482	1	4	0.466017	-17.2827	-2.1664	11.7535
 483	1	3	0.096621	-16.9177	-0.993089	12.4142
 484	1	1	-0.099438	-19.5969	-0.74635	20.7185
 485	1	5	-0.089685	-18.1803	-2.89488	17.772
 486	1	1	-0.037281	-19.019	-1.88321	18.5986
 487	1	1	-0.08188	-18.7657	-1.60742	19.9733
 488	1	1	-0.106561	-20.6948	-0.171444	20.0722
 489	1	1	-0.037628	-20.1434	-1.27571	17.9843
 490	1	1	-0.12234	-20.9576	-0.430672	18.7437
 491	1	5	0.388954	-16.7397	-3.16411	18.3609
 492	1	5	0.307788	-18.9961	-4.24588	17.78
 493	1	6	-0.129718	-16.0917	-2.01643	18.6643
 494	1	6	-0.129089	-15.956	-3.81613	17.4715
 495	1	6	-0.119089	-16.746	-3.91534	19.4852
 496	1	6	-0.103894	-20.1611	-4.13783	17.1016
 497	1	6	-0.097852	-19.3357	-4.61821	19.0353
 498	1	6	-0.104555	-18.3119	-5.2811	17.2423
 499	1	3	0.521254	-22.2139	0.267719	18.3718
 500	1	3	0.53569	-21.7739	0.706766	20.5975
 501	1	4	0.027822	-22.6455	0.909372	19.5297
 502	1	2	-0.468874	-22.7496	0.245925	17.2768
 503	1	2	-0.477974	-21.8801	1.10861	21.744
 504	1	1	-0.359831	-23.8681	1.65147	19.6207
 505	1	1	0.131035	-24.9879	1.06514	20.2543
 506	1	1	-0.120983	-26.1813	1.80999	20.3877
 507	1	1	0.127261	-23.9417	2.94963	19.0663
 508	1	1	-0.127195	-25.1672	3.65341	19.1032
 509	1	1	0.144798	-26.2702	3.08945	19.7874
 510	1	5	-0.020676	-22.7068	3.58671	18.4167
 511	1	5	-0.019785	-24.9066	-0.366533	20.8016
 512	1	7	0.164889	-18.5756	-4.06091	15.1656
 513	1	7	0.175264	-17.2548	-0.383304	17.1102
 514	1	7	0.1582	-16.6389	0.548975	14.8777
 515	1	7	0.150763	-19.4103	-0.553688	21.7734
 516	1	7	0.144868	-17.9375	-2.07283	20.4956
 517	1	7	0.134072	-20.4041	-1.47879	16.9477
 518	1	5	-0.300668	-27.3814	1.22498	21.1544
 519	1	5	-0.243237	-25.3026	5.02648	18.4241
 520	1	9	0.021835	-22.7299	3.45678	17.3276
 521	1	9	0.012312	-21.7631	3.16606	18.7818
 522	1	9	0.041777	-22.6491	4.66058	18.6302
 523	1	9	0.110598	-24.6596	5.1205	17.5405
 524	1	9	0.08293	-26.3179	5.2204	18.0574
 525	1	9	0.082252	-25.038	5.83399	19.1197
 526	1	9	0.027698	-24.1786	-0.986229	20.2663
 527	1	9	0.017051	-25.861	-0.89733	20.7049
 528	1	9	0.037874	-24.6266	-0.361251	21.8622
 529	1	9	0.095908	-28.0256	1.99053	21.6025
 530	1	9	0.127068	-28.0046	0.609964	20.4903
 531	1	9	0.099095	-27.065	0.5949	21.9949
 532	1	1	-0.024347	-15.5225	-8.34937	1.28108
 533	1	1	-0.071478	-15.7666	-7.31971	0.336283
 534	1	1	-0.180016	-15.2838	-7.49373	-0.992513
 535	1	2	-0.370097	-14.8395	-10.9723	2.78687
 536	1	1	0.010306	-14.8209	-9.48891	0.879716
 537	1	1	-0.071748	-14.5722	-8.65039	-1.37433
 538	1	2	-0.403598	-13.1954	-11.4379	-1.53415
 539	1	1	0.055994	-14.3509	-9.63443	-0.409059
 540	1	3	0.021521	-14.5311	-10.7346	1.63084
 541	1	4	0.466017	-13.8973	-11.5689	0.711365
 542	1	3	0.096621	-13.7174	-10.9706	-0.534565
 543	1	1	-0.099438	-14.2101	-4.7645	3.47809
 544	1	5	-0.089685	-16.6359	-6.10646	0.769933
 545	1	1	-0.037281	-16.1221	-5.60511	2.14833
 546	1	1	-0.08188	-14.7298	-5.3553	2.30921
 547	1	1	-0.106561	-15.1078	-4.44362	4.49965
 548	1	1	-0.037628	-16.9916	-5.29429	3.22664
 549	1	1	-0.12234	-16.4514	-4.72794	4.38517
 550	1	5	0.388954	-18.128	-6.62212	0.791543
 551	1	5	0.307788	-16.5321	-4.85926	-0.191507
 552	1	6	-0.129718	-18.3327	-7.54083	1.76245
 553	1	6	-0.129089	-18.4651	-7.22933	-0.369492
 554	1	6	-0.119089	-19.0288	-5.63458	0.986721
 555	1	6	-0.103894	-17.0915	-3.75694	0.357763
 556	1	6	-0.097852	-17.1493	-5.04423	-1.37424
 557	1	6	-0.104555	-15.2505	-4.53132	-0.472652
 558	1	3	0.521254	-17.1247	-4.30719	5.63969
 559	1	3	0.53569	-14.8803	-3.79286	5.81662
 560	1	4	0.027822	-16.1254	-3.76455	6.44521
 561	1	2	-0.468874	-18.3093	-4.44443	5.89512
 562	1	2	-0.477974	-13.8067	-3.40319	6.24438
 563	1	1	-0.359831	-16.3537	-3.29299	7.78245
 564	1	1	0.131035	-15.7681	-3.98046	8.87101
 565	1	1	-0.120983	-15.9832	-3.51318	10.1854
 566	1	1	0.127261	-17.1931	-2.17396	8.00354
 567	1	1	-0.127195	-17.5407	-1.81067	9.32623
 568	1	1	0.144798	-16.9261	-2.48029	10.4114
 569	1	5	-0.020676	-17.7471	-1.37199	6.81929
 570	1	5	-0.019785	-14.9201	-5.23976	8.64329
 571	1	7	0.164889	-15.9013	-8.29315	2.2988
 572	1	7	0.175264	-15.4735	-6.75342	-1.7603
 573	1	7	0.1582	-14.237	-8.80246	-2.39833
 574	1	7	0.150763	-13.1484	-4.54804	3.5811
 575	1	7	0.144868	-14.0408	-5.5904	1.50177
 576	1	7	0.134072	-18.0641	-5.45197	3.18581
 577	1	5	-0.300668	-15.2221	-4.14846	11.3635
 578	1	5	-0.243237	-18.5685	-0.695374	9.58265
 579	1	9	0.021835	-18.755	-1.71254	6.55162
 580	1	9	0.012312	-17.1174	-1.44856	5.92527
 581	1	9	0.041777	-17.8019	-0.301149	7.04806
 582	1	9	0.110598	-18.0786	0.287623	9.61233
 583	1	9	0.08293	-19.3425	-0.660879	8.80597
 584	1	9	0.082252	-19.1142	-0.822128	10.5251
 585	1	9	0.027698	-15.0397	-5.96411	9.45752
 586	1	9	0.017051	-13.8551	-4.98747	8.57021
 587	1	9	0.037874	-15.2028	-5.78312	7.73497
 588	1	9	0.095908	-15.7589	-5.02306	11.7552
 589	1	9	0.127068	-14.2155	-4.4762	11.0746
 590	1	9	0.099095	-15.0642	-3.45021	12.1943
 591	1	1	-0.024347	-11.9601	-25.1803	2.34976
 592	1	1	-0.071478	-12.0702	-24.0411	1.50666
 593	1	1	-0.180016	-13.2423	-23.9106	0.707588
 594	1	2	-0.370097	-12.3969	-27.723	4.06037
 595	1	1	0.010306	-13.0025	-26.1116	2.36884
 596	1	1	-0.071748	-14.2634	-24.8833	0.714216
 597	1	2	-0.403598	-16.0856	-27.3408	1.25942
 598	1	1	0.055994	-14.1123	-25.9821	1.56159
 599	1	3	0.021521	-13.1686	-27.326	3.20323
 600	1	4	0.466017	-14.3928	-27.8722	2.81585
 601	1	3	0.096621	-15.0195	-27.1297	1.81379
 602	1	1	-0.099438	-13.323	-20.3405	3.15422
 603	1	5	-0.089685	-10.9854	-22.9211	1.43738
 604	1	1	-0.037281	-11.6742	-21.5695	1.77487
 605	1	1	-0.08188	-12.6738	-21.5353	2.78894
 606	1	1	-0.106561	-12.939	-19.1656	2.50443
 607	1	1	-0.037628	-11.2986	-20.3474	1.15715
 608	1	1	-0.12234	-11.9492	-19.1685	1.54355
 609	1	5	0.388954	-10.3689	-22.9742	-0.0184012
 610	1	5	0.307788	-9.82635	-23.0927	2.4918
 611	1	6	-0.129718	-9.22052	-22.2743	-0.152543
 612	1	6	-0.129089	-11.2193	-22.4902	-0.951956
 613	1	6	-0.119089	-10.0839	-24.2452	-0.383543
 614	1	6	-0.103894	-10.302	-23.1893	3.75445
 615	1	6	-0.097852	-8.99003	-22.0297	2.50487
 616	1	6	-0.104555	-9.0673	-24.1869	2.2565
 617	1	3	0.521254	-11.7813	-17.7748	1.05102
 618	1	3	0.53569	-13.4489	-17.7772	2.65054
 619	1	4	0.027822	-12.7211	-17.0127	1.74198
 620	1	2	-0.468874	-11.0116	-17.411	0.178884
 621	1	2	-0.477974	-14.3756	-17.4275	3.36202
 622	1	1	-0.359831	-12.9905	-15.6303	1.47539
 623	1	1	0.131035	-14.0687	-15.2967	0.625742
 624	1	1	-0.120983	-14.405	-13.9403	0.421357
 625	1	1	0.127261	-12.2006	-14.6224	2.0736
 626	1	1	-0.127195	-12.4668	-13.2628	1.78295
 627	1	1	0.144798	-13.5819	-12.9304	0.975099
 628	1	5	-0.020676	-11.0529	-15.0016	3.01749
 629	1	5	-0.019785	-14.8815	-16.3976	-0.0651994
 630	1	7	0.164889	-11.1104	-25.3617	2.99869
 631	1	7	0.175264	-13.372	-23.0382	0.0720167
 632	1	7	0.1582	-15.153	-24.7822	0.0963618
 633	1	7	0.150763	-14.0948	-20.3262	3.92149
 634	1	7	0.144868	-12.953	-22.4466	3.31133
 635	1	7	0.134072	-10.5237	-20.2916	0.398941
 636	1	5	-0.300668	-15.6511	-13.5729	-0.405994
 637	1	5	-0.243237	-11.5719	-12.1542	2.36096
 638	1	9	0.021835	-11.1996	-15.9749	3.49901
 639	1	9	0.012312	-10.9456	-14.2829	3.83865
 640	1	9	0.041777	-10.1014	-15.0392	2.4731
 641	1	9	0.110598	-11.8948	-11.882	3.37529
 642	1	9	0.08293	-10.5207	-12.4632	2.41499
 643	1	9	0.082252	-11.5731	-11.2399	1.75608
 644	1	9	0.027698	-14.3336	-17.3391	-0.176153
 645	1	9	0.017051	-15.1573	-16.1061	-1.08509
 646	1	9	0.037874	-15.8006	-16.61	0.494186
 647	1	9	0.095908	-16.0666	-12.5866	-0.170521