pySIMM System Object

1595 atoms
1729 bonds
3078 angles
4478 dihedrals
432 impropers

9 atom types
11 bond types
18 angle types
7 dihedral types
4 improper types

-183.521022 183.521022 xlo xhi
-183.521022 183.521022 ylo yhi
-183.521022 183.521022 zlo zhi

Masses

   1	12.01	# ca
   2	16.0	# o
   3	12.01	# c
   4	14.01	# n
   5	12.01	# c3
   6	19.0	# f
   7	1.008	# ha
   8	1.008	# hn
   9	1.008	# hc

Pair Coeffs

   1	0.086	3.3996695084235347	# ca
   2	0.21	2.959921901149463	# o
   3	0.086	3.3996695084235347	# c
   4	0.17	3.249998523775958	# n
   5	0.1094	3.3996695084235347	# c3
   6	0.061	3.1181455134911875	# f
   7	0.015	2.59964245953351	# ha
   8	0.0157	1.069078461768407	# hn
   9	0.0157	2.649532787749369	# hc

Bond Coeffs

   1	321.0	1.5156	# c3,ca
   2	300.9	1.5375	# c3,c3
   3	345.8	1.086	# ca,ha
   4	384.2	1.4121	# ca,n
   5	637.7	1.2183	# c,o
   6	330.6	1.0969	# c3,hc
   7	356.9	1.3497	# c3,f
   8	403.2	1.0129	# hn,n
   9	461.1	1.3984	# ca,ca
  10	427.6	1.3789	# c,n
  11	345.9	1.4906	# c,ca

Angle Coeffs

   1	70.89	107.36	# f,c3,f
   2	63.82	123.71	# c,n,ca
   3	68.72	122.6	# ca,c,o
   4	48.18	119.88	# ca,ca,ha
   5	67.87	120.19	# ca,ca,n
   6	67.68	115.25	# ca,c,n
   7	46.8	110.47	# ca,c3,hc
   8	48.33	117.55	# c,n,hn
   9	39.4	107.58	# hc,c3,hc
  10	74.22	123.05	# n,c,o
  11	62.86	111.51	# c3,c3,c3
  12	64.28	120.33	# c,ca,ca
  13	63.56	112.24	# ca,c3,ca
  14	63.15	112.07	# c3,c3,ca
  15	66.11	109.24	# c3,c3,f
  16	66.62	120.02	# ca,ca,ca
  17	63.74	127.08	# c,n,c
  18	63.53	120.77	# c3,ca,ca

Dihedral Coeffs

   1	2	2.5	2	180	2.0	1	0	# hn,n,c,o
   2	1	3.625	2	180	# X,ca,ca,X
   3	1	1.0	2	180	# X,c,ca,X
   4	1	0.0	2	0	# X,c3,ca,X
   5	1	0.15555555555555556	3	0	# X,c3,c3,X
   6	1	2.5	2	180	# X,c,n,X
   7	1	0.45	2	180	# X,ca,n,X

Improper Coeffs

   1	10.5	-1	2	# c,X,X,o
   2	1.1	-1	2	# n,X,X,hn
   3	1.1	-1	2	# ca,ca,ca,c3
   4	1.1	-1	2	# ca,X,X,ha

Atoms

   1	1	1	-0.024347	-75.1593	-40.1207	61.7762
   2	1	1	-0.071478	-76.0955	-41.1376	62.1059
   3	1	1	-0.180016	-75.5998	-42.3699	62.6208
   4	1	2	-0.370097	-72.6387	-38.4372	61.0909
   5	1	1	0.010306	-73.7929	-40.3902	61.9248
   6	1	1	-0.071748	-74.2216	-42.6165	62.7693
   7	1	2	-0.403598	-71.1227	-42.5328	62.6756
   8	1	1	0.055994	-73.3371	-41.6044	62.398
   9	1	3	0.021521	-72.6145	-39.5597	61.5672
  10	1	4	0.466017	-71.5069	-40.3652	61.8373
  11	1	3	0.096621	-71.8549	-41.6092	62.3579
  12	1	1	-0.099438	-77.658	-43.9214	59.3553
  13	1	5	-0.089685	-77.6315	-40.9905	61.8938
  14	1	1	-0.037281	-78.0979	-42.2836	61.1621
  15	1	1	-0.08188	-77.3598	-42.7197	60.0242
  16	1	1	-0.106561	-78.7161	-44.6903	59.8426
  17	1	1	-0.037628	-79.1904	-43.079	61.6002
  18	1	1	-0.12234	-79.4627	-44.2778	60.9272
  19	1	5	0.388954	-78.0464	-39.7743	60.9761
  20	1	5	0.307788	-78.2708	-40.7915	63.3233
  21	1	6	-0.129718	-77.3706	-39.7631	59.805
  22	1	6	-0.129089	-77.8355	-38.5724	61.5575
  23	1	6	-0.119089	-79.357	-39.825	60.6465
  24	1	6	-0.103894	-77.6753	-39.7803	63.9953
  25	1	6	-0.097852	-78.1308	-41.8858	64.1056
  26	1	6	-0.104555	-79.5916	-40.5058	63.28
  27	1	3	0.521254	-80.4669	-45.3353	61.2221
  28	1	3	0.53569	-79.2121	-46.0216	59.4074
  29	1	4	0.027822	-80.2373	-46.3468	60.2907
  30	1	2	-0.468874	-81.2712	-45.3223	62.1381
  31	1	2	-0.477974	-78.7581	-46.6946	58.4972
  32	1	1	-0.359831	-80.934	-47.5993	60.2668
  33	1	1	0.131035	-81.9837	-47.7989	59.3397
  34	1	1	-0.120983	-82.6287	-49.0549	59.2861
  35	1	1	0.127261	-80.5328	-48.6322	61.1475
  36	1	1	-0.127195	-81.2041	-49.8757	61.1065
  37	1	1	0.144798	-82.2367	-50.0687	60.175
  38	1	5	-0.020676	-79.3707	-48.3881	62.1169
  39	1	5	-0.019785	-82.3911	-46.6726	58.3846
  40	1	7	0.164889	-75.4535	-39.1534	61.3818
  41	1	7	0.175264	-76.2918	-43.1668	62.885
  42	1	7	0.1582	-73.8476	-43.5709	63.1339
  43	1	7	0.150763	-77.0679	-44.2578	58.5046
  44	1	7	0.144868	-76.516	-42.1349	59.6678
  45	1	7	0.134072	-79.8023	-42.8139	62.4566
  46	1	5	-0.300668	-83.7394	-49.3567	58.2793
  47	1	5	-0.243237	-80.8395	-51.0341	62.0352
  48	1	9	0.021835	-79.058	-49.2838	62.6627
  49	1	9	0.012312	-79.6389	-47.6331	62.8661
  50	1	9	0.041777	-78.4837	-48.0294	61.5804
  51	1	9	0.110598	-79.8221	-51.3951	61.8385
  52	1	9	0.08293	-80.9004	-50.7329	63.0885
  53	1	9	0.082252	-81.5167	-51.8882	61.9059
  54	1	9	0.027698	-81.7439	-46.665	57.4987
  55	1	9	0.017051	-82.323	-45.6863	58.8591
  56	1	9	0.037874	-83.4266	-46.7671	58.0404
  57	1	9	0.095908	-84.6431	-48.7751	58.5004
  58	1	9	0.127068	-83.4229	-49.1248	57.2544
  59	1	9	0.099095	-84.0237	-50.4167	58.2946
  60	1	1	-0.024347	-58.024	-37.9764	59.0214
  61	1	1	-0.071478	-59.1934	-37.9514	59.8283
  62	1	1	-0.180016	-59.2474	-38.814	60.9605
  63	1	2	-0.370097	-55.3261	-38.6042	57.6214
  64	1	1	0.010306	-57.0056	-38.8822	59.3371
  65	1	1	-0.071748	-58.2091	-39.719	61.26
  66	1	2	-0.403598	-55.6583	-41.5035	61.2337
  67	1	1	0.055994	-57.099	-39.7395	60.4147
  68	1	3	0.021521	-55.7329	-39.1611	58.6271
  69	1	4	0.466017	-55.1465	-40.2094	59.3344
  70	1	3	0.096621	-55.8989	-40.6131	60.4345
  71	1	1	-0.099438	-62.8029	-40.0876	59.2088
  72	1	5	-0.089685	-60.4196	-37.0381	59.5215
  73	1	1	-0.037281	-61.7047	-37.9099	59.6386
  74	1	1	-0.08188	-61.6857	-39.2361	59.1192
  75	1	1	-0.106561	-63.9605	-39.5822	59.8039
  76	1	1	-0.037628	-62.9159	-37.4261	60.2026
  77	1	1	-0.12234	-64.0213	-38.2853	60.2686
  78	1	5	0.388954	-60.4232	-36.451	58.0584
  79	1	5	0.307788	-60.3626	-35.8529	60.5599
  80	1	6	-0.129718	-60.2449	-37.4199	57.1315
  81	1	6	-0.129089	-59.4628	-35.5207	57.8576
  82	1	6	-0.119089	-61.6025	-35.8608	57.7578
  83	1	6	-0.103894	-61.2164	-34.8443	60.2748
  84	1	6	-0.097852	-59.1275	-35.3036	60.6147
  85	1	6	-0.104555	-60.6486	-36.2704	61.8139
  86	1	3	0.521254	-65.3984	-38.0444	60.7802
  87	1	3	0.53569	-65.2821	-40.2231	60.0239
  88	1	4	0.027822	-66.0902	-39.2417	60.5953
  89	1	2	-0.468874	-65.8114	-37.0021	61.2589
  90	1	2	-0.477974	-65.5786	-41.3689	59.7286
  91	1	1	-0.359831	-67.4756	-39.4477	60.9187
  92	1	1	0.131035	-68.4058	-39.6466	59.8714
  93	1	1	-0.120983	-69.7404	-39.9975	60.178
  94	1	1	0.127261	-67.8889	-39.5014	62.271
  95	1	1	-0.127195	-69.253	-39.7217	62.5761
  96	1	1	0.144798	-70.163	-40.0081	61.5297
  97	1	5	-0.020676	-66.867	-39.3291	63.4024
  98	1	5	-0.019785	-67.9671	-39.5052	58.4078
  99	1	7	0.164889	-57.8916	-37.3423	58.1511
 100	1	7	0.175264	-60.1227	-38.8062	61.6064
 101	1	7	0.1582	-58.2692	-40.3973	62.1085
 102	1	7	0.150763	-62.7742	-41.1038	58.8201
 103	1	7	0.144868	-60.7876	-39.6211	58.643
 104	1	7	0.134072	-63.0208	-36.4141	60.58
 105	1	5	-0.300668	-70.7233	-40.3698	59.0527
 106	1	5	-0.243237	-69.7388	-39.6957	64.0349
 107	1	9	0.021835	-65.8545	-39.6293	63.1104
 108	1	9	0.012312	-67.1113	-39.9478	64.274
 109	1	9	0.041777	-66.825	-38.2831	63.7305
 110	1	9	0.110598	-69.6126	-40.6795	64.5075
 111	1	9	0.08293	-69.1905	-38.9608	64.6371
 112	1	9	0.082252	-70.7938	-39.4123	64.1293
 113	1	9	0.027698	-67.6886	-40.4792	57.9869
 114	1	9	0.017051	-67.1133	-38.8288	58.2852
 115	1	9	0.037874	-68.7635	-39.0816	57.7848
 116	1	9	0.095908	-71.4807	-41.0974	59.367
 117	1	9	0.127068	-71.2478	-39.4789	58.6802
 118	1	9	0.099095	-70.2182	-40.842	58.201
 119	1	1	-0.024347	-42.7725	-44.9137	54.8212
 120	1	1	-0.071478	-43.9003	-44.1021	55.1163
 121	1	1	-0.180016	-43.7081	-42.958	55.9421
 122	1	2	-0.370097	-39.9882	-46.2579	54.5842
 123	1	1	0.010306	-41.5298	-44.5668	55.3602
 124	1	1	-0.071748	-42.4436	-42.6247	56.4718
 125	1	2	-0.403598	-39.4262	-42.502	57.2561
 126	1	1	0.055994	-41.364	-43.453	56.1579
 127	1	3	0.021521	-40.2151	-45.236	55.2099
 128	1	4	0.466017	-39.3244	-44.4546	55.943
 129	1	3	0.096621	-39.9326	-43.3555	56.5459
 130	1	1	-0.099438	-47.1699	-44.5554	57.9065
 131	1	5	-0.089685	-45.3058	-44.3655	54.5002
 132	1	1	-0.037281	-46.3852	-44.1182	55.5963
 133	1	1	-0.08188	-46.211	-44.7039	56.8825
 134	1	1	-0.106561	-48.3157	-43.8041	57.6268
 135	1	1	-0.037628	-47.5692	-43.3711	55.3555
 136	1	1	-0.12234	-48.5022	-43.227	56.3887
 137	1	5	0.388954	-45.5146	-45.851	54.009
 138	1	5	0.307788	-45.4232	-43.3924	53.2643
 139	1	6	-0.129718	-45.1439	-46.7476	54.9512
 140	1	6	-0.129089	-44.8225	-46.1501	52.8868
 141	1	6	-0.119089	-46.8147	-46.1058	53.7355
 142	1	6	-0.103894	-44.344	-43.4824	52.4536
 143	1	6	-0.097852	-45.4909	-42.0974	53.6492
 144	1	6	-0.104555	-46.5046	-43.6403	52.4914
 145	1	3	0.521254	-49.7927	-42.491	56.4094
 146	1	3	0.53569	-49.4874	-43.4641	58.4812
 147	1	4	0.027822	-50.3145	-42.6695	57.6885
 148	1	2	-0.468874	-50.2675	-41.852	55.486
 149	1	2	-0.477974	-49.6486	-43.794	59.6439
 150	1	1	-0.359831	-51.5416	-42.0714	58.1348
 151	1	1	0.131035	-52.7801	-42.5886	57.6864
 152	1	1	-0.120983	-53.9823	-41.9421	58.0606
 153	1	1	0.127261	-51.4927	-40.9489	58.9946
 154	1	1	-0.127195	-52.6962	-40.3512	59.4354
 155	1	1	0.144798	-53.9313	-40.8366	58.9434
 156	1	5	-0.020676	-50.1377	-40.3924	59.4536
 157	1	5	-0.019785	-52.8257	-43.8356	56.7939
 158	1	7	0.164889	-42.8247	-45.7869	54.1797
 159	1	7	0.175264	-44.5472	-42.302	56.1634
 160	1	7	0.1582	-42.2998	-41.7449	57.0955
 161	1	7	0.150763	-47.0297	-45.0118	58.8846
 162	1	7	0.144868	-45.32	-45.2908	57.0921
 163	1	7	0.134072	-47.7871	-42.9063	54.3998
 164	1	5	-0.300668	-55.3483	-42.4273	57.5393
 165	1	5	-0.243237	-52.6556	-39.1731	60.4234
 166	1	9	0.021835	-49.7981	-40.9031	60.3633
 167	1	9	0.012312	-50.1717	-39.3179	59.6647
 168	1	9	0.041777	-49.3588	-40.5101	58.692
 169	1	9	0.110598	-52.3781	-38.2422	59.9112
 170	1	9	0.08293	-53.6042	-38.9914	60.9399
 171	1	9	0.082252	-51.9226	-39.3494	61.2212
 172	1	9	0.027698	-53.6137	-44.5262	57.1177
 173	1	9	0.017051	-51.9003	-44.4211	56.811
 174	1	9	0.037874	-53.0217	-43.5585	55.7506
 175	1	9	0.095908	-55.9958	-41.5922	57.2435
 176	1	9	0.127068	-55.2762	-43.0535	56.643
 177	1	9	0.099095	-55.8763	-43.01	58.3061
 178	1	1	-0.024347	-26.9978	-47.4025	55.8649
 179	1	1	-0.071478	-27.3035	-48.7137	56.3173
 180	1	1	-0.180016	-26.2758	-49.458	56.9667
 181	1	2	-0.370097	-25.6896	-44.6979	55.0517
 182	1	1	0.010306	-25.7129	-46.8897	56.0748
 183	1	1	-0.071748	-24.9861	-48.9233	57.1634
 184	1	2	-0.403598	-22.3888	-47.2162	57.132
 185	1	1	0.055994	-24.7319	-47.6318	56.6996
 186	1	3	0.021521	-25.1203	-45.5958	55.649
 187	1	4	0.466017	-23.782	-45.6674	56.0345
 188	1	3	0.096621	-23.4678	-46.8549	56.6907
 189	1	1	-0.099438	-30.6258	-46.5572	57.986
 190	1	5	-0.089685	-28.713	-49.3062	56.0123
 191	1	1	-0.037281	-29.7922	-48.2445	56.3745
 192	1	1	-0.08188	-29.641	-47.4727	57.5618
 193	1	1	-0.106561	-31.782	-46.4328	57.21
 194	1	1	-0.037628	-30.9855	-48.0882	55.6205
 195	1	1	-0.12234	-31.9535	-47.1793	56.0634
 196	1	5	0.388954	-29.0652	-50.584	56.8667
 197	1	5	0.307788	-28.7014	-49.6923	54.482
 198	1	6	-0.129718	-28.8544	-50.3731	58.1861
 199	1	6	-0.129089	-28.3515	-51.6771	56.513
 200	1	6	-0.119089	-30.3689	-50.9253	56.7477
 201	1	6	-0.103894	-27.5854	-50.3826	54.1533
 202	1	6	-0.097852	-28.7164	-48.5959	53.6907
 203	1	6	-0.104555	-29.7458	-50.4657	54.109
 204	1	3	0.521254	-33.3087	-46.8949	55.5231
 205	1	3	0.53569	-33.0206	-45.6394	57.4404
 206	1	4	0.027822	-33.8905	-45.9908	56.4093
 207	1	2	-0.468874	-33.8062	-47.4069	54.5347
 208	1	2	-0.477974	-33.2379	-44.9095	58.3931
 209	1	1	-0.359831	-35.2555	-45.5548	56.3189
 210	1	1	0.131035	-36.2154	-46.0917	57.2096
 211	1	1	-0.120983	-37.5598	-45.6597	57.131
 212	1	1	0.127261	-35.6331	-44.6253	55.3219
 213	1	1	-0.127195	-36.9961	-44.2752	55.1731
 214	1	1	0.144798	-37.9477	-44.7837	56.0899
 215	1	5	-0.020676	-34.5761	-44.0208	54.3892
 216	1	5	-0.019785	-35.8105	-47.1463	58.2486
 217	1	7	0.164889	-27.7304	-46.7967	55.337
 218	1	7	0.175264	-26.4434	-50.4738	57.3085
 219	1	7	0.1582	-24.1958	-49.5025	57.6364
 220	1	7	0.150763	-30.5107	-45.9884	58.9067
 221	1	7	0.144868	-28.7593	-47.6018	58.1845
 222	1	7	0.134072	-31.1975	-48.6748	54.733
 223	1	5	-0.300668	-38.6122	-46.1583	58.1378
 224	1	5	-0.243237	-37.4423	-43.3451	54.0321
 225	1	9	0.021835	-34.53	-44.5744	53.4431
 226	1	9	0.012312	-33.5707	-44.0216	54.8254
 227	1	9	0.041777	-34.7938	-42.9714	54.1582
 228	1	9	0.110598	-36.832	-43.477	53.1299
 229	1	9	0.08293	-38.4721	-43.5281	53.7039
 230	1	9	0.082252	-37.3706	-42.2923	54.3351
 231	1	9	0.027698	-35.6329	-46.6809	59.226
 232	1	9	0.017051	-34.9061	-47.7003	57.9743
 233	1	9	0.037874	-36.5874	-47.9101	58.3705
 234	1	9	0.095908	-39.1563	-47.0259	57.7412
 235	1	9	0.127068	-38.1743	-46.449	59.1002
 236	1	9	0.099095	-39.347	-45.3846	58.3921
 237	1	1	-0.024347	-12.6795	-37.7794	52.6954
 238	1	1	-0.071478	-13.6792	-38.7605	52.9399
 239	1	1	-0.180016	-13.9897	-39.6748	51.8927
 240	1	2	-0.370097	-10.3959	-35.9883	51.5884
 241	1	1	0.010306	-12.065	-37.7311	51.4391
 242	1	1	-0.071748	-13.3716	-39.5957	50.6267
 243	1	2	-0.403598	-11.5856	-38.8988	48.1714
 244	1	1	0.055994	-12.4087	-38.6036	50.4275
 245	1	3	0.021521	-10.9625	-36.8619	50.9537
 246	1	4	0.466017	-10.7174	-37.2797	49.6458
 247	1	3	0.096621	-11.557	-38.3177	49.2441
 248	1	1	-0.099438	-17.9996	-39.1732	53.027
 249	1	5	-0.089685	-14.3437	-38.9327	54.3404
 250	1	1	-0.037281	-15.8119	-39.4332	54.1647
 251	1	1	-0.08188	-16.6566	-38.7861	53.2181
 252	1	1	-0.106561	-18.4994	-40.2159	53.8133
 253	1	1	-0.037628	-16.3693	-40.4783	54.9508
 254	1	1	-0.12234	-17.7055	-40.8433	54.7492
 255	1	5	0.388954	-14.4455	-37.5811	55.1482
 256	1	5	0.307788	-13.4292	-39.9466	55.128
 257	1	6	-0.129718	-14.9286	-36.5797	54.3784
 258	1	6	-0.129089	-13.2649	-37.1565	55.6509
 259	1	6	-0.119089	-15.2853	-37.6934	56.2029
 260	1	6	-0.103894	-12.1249	-39.591	55.0837
 261	1	6	-0.097852	-13.4947	-41.1874	54.5933
 262	1	6	-0.104555	-13.7501	-40.046	56.4379
 263	1	3	0.521254	-18.5141	-41.9016	55.4096
 264	1	3	0.53569	-19.844	-40.8561	53.8378
 265	1	4	0.027822	-19.7677	-41.8584	54.8041
 266	1	2	-0.468874	-18.124	-42.665	56.2763
 267	1	2	-0.477974	-20.7849	-40.5753	53.115
 268	1	1	-0.359831	-20.821	-42.7897	55.0968
 269	1	1	0.131035	-21.6059	-42.6255	56.2623
 270	1	1	-0.120983	-22.5771	-43.6008	56.5958
 271	1	1	0.127261	-21.0309	-43.8889	54.2322
 272	1	1	-0.127195	-22.0604	-44.8155	54.5158
 273	1	1	0.144798	-22.8084	-44.681	55.7106
 274	1	5	-0.020676	-20.1478	-44.0809	52.9911
 275	1	5	-0.019785	-21.3931	-41.41	57.173
 276	1	7	0.164889	-12.3429	-37.0827	53.4553
 277	1	7	0.175264	-14.7068	-40.4751	52.0626
 278	1	7	0.1582	-13.6076	-40.3001	49.8318
 279	1	7	0.150763	-18.6329	-38.6779	52.2934
 280	1	7	0.144868	-16.2647	-37.971	52.6148
 281	1	7	0.134072	-15.8047	-41.0118	55.7075
 282	1	5	-0.300668	-23.3853	-43.4943	57.9013
 283	1	5	-0.243237	-22.3379	-45.982	53.5511
 284	1	9	0.021835	-19.1627	-43.6111	53.0847
 285	1	9	0.012312	-20.633	-43.6615	52.101
 286	1	9	0.041777	-19.943	-45.1403	52.7981
 287	1	9	0.110598	-22.1991	-45.6875	52.5031
 288	1	9	0.08293	-21.6655	-46.8259	53.755
 289	1	9	0.082252	-23.3667	-46.3562	53.6031
 290	1	9	0.027698	-20.9115	-40.5683	56.6635
 291	1	9	0.017051	-20.7714	-41.6752	58.0371
 292	1	9	0.037874	-22.3467	-41.0188	57.5472
 293	1	9	0.095908	-23.6336	-44.4734	58.3287
 294	1	9	0.127068	-22.8344	-42.9746	58.6949
 295	1	9	0.099095	-24.3261	-42.9521	57.7365
 296	1	1	-0.024347	-1.02016	-31.8551	41.0233
 297	1	1	-0.071478	-2.10503	-31.9645	41.9362
 298	1	1	-0.180016	-3.38373	-31.4974	41.5195
 299	1	2	-0.370097	0.891231	-31.2829	38.6377
 300	1	1	0.010306	-1.25483	-31.3174	39.7518
 301	1	1	-0.071748	-3.59881	-30.9633	40.2327
 302	1	2	-0.403598	-3.33372	-29.851	37.3431
 303	1	1	0.055994	-2.50774	-30.8878	39.365
 304	1	3	0.021521	-0.304982	-31.0455	38.6414
 305	1	4	0.466017	-1.07374	-30.4467	37.6425
 306	1	3	0.096621	-2.41783	-30.3295	37.9927
 307	1	1	-0.099438	-4.69475	-35.2024	43.1143
 308	1	5	-0.089685	-1.93092	-32.4864	43.3943
 309	1	1	-0.037281	-3.16644	-33.3634	43.7628
 310	1	1	-0.08188	-3.61001	-34.3472	42.8342
 311	1	1	-0.106561	-5.33724	-35.062	44.3476
 312	1	1	-0.037628	-3.84436	-33.2636	45.0088
 313	1	1	-0.12234	-4.92589	-34.1173	45.2639
 314	1	5	0.388954	-1.77573	-31.2053	44.3007
 315	1	5	0.307788	-0.667991	-33.4124	43.5832
 316	1	6	-0.129718	-1.40124	-31.4913	45.568
 317	1	6	-0.129089	-2.92826	-30.5007	44.3698
 318	1	6	-0.119089	-0.846562	-30.354	43.8087
 319	1	6	-0.103894	0.503471	-32.7382	43.5562
 320	1	6	-0.097852	-0.597871	-34.3649	42.6258
 321	1	6	-0.104555	-0.704092	-34.0669	44.7666
 322	1	3	0.521254	-5.79556	-34.2313	46.4669
 323	1	3	0.53569	-6.47573	-35.8188	44.9347
 324	1	4	0.027822	-6.68609	-35.2692	46.1974
 325	1	2	-0.468874	-5.7211	-33.5452	47.4715
 326	1	2	-0.477974	-7.07845	-36.7358	44.4032
 327	1	1	-0.359831	-7.69252	-35.7367	47.11
 328	1	1	0.131035	-8.9601	-35.1127	47.1436
 329	1	1	-0.120983	-9.95516	-35.5953	48.0278
 330	1	1	0.127261	-7.40812	-36.844	47.9399
 331	1	1	-0.127195	-8.41854	-37.3696	48.7804
 332	1	1	0.144798	-9.68922	-36.7406	48.8195
 333	1	5	-0.020676	-6.00984	-37.4761	47.8866
 334	1	5	-0.019785	-9.25043	-33.9145	46.2299
 335	1	7	0.164889	-0.00668806	-32.1481	41.276
 336	1	7	0.175264	-4.22475	-31.5293	42.209
 337	1	7	0.1582	-4.57487	-30.5957	39.9231
 338	1	7	0.150763	-5.02037	-35.9568	42.4007
 339	1	7	0.144868	-3.10131	-34.4572	41.8797
 340	1	7	0.134072	-3.55393	-32.5579	45.7801
 341	1	5	-0.300668	-11.3242	-34.8963	48.103
 342	1	5	-0.243237	-8.12479	-38.6136	49.637
 343	1	9	0.021835	-5.90599	-38.1123	46.9989
 344	1	9	0.012312	-5.77063	-38.0874	48.7625
 345	1	9	0.041777	-5.22519	-36.7115	47.8449
 346	1	9	0.110598	-7.42312	-38.3713	50.4463
 347	1	9	0.08293	-9.00476	-39.0645	50.1065
 348	1	9	0.082252	-7.67462	-39.4092	49.0291
 349	1	9	0.027698	-10.2916	-33.9002	45.8878
 350	1	9	0.017051	-8.64628	-33.9161	45.316
 351	1	9	0.037874	-9.05364	-32.9723	46.7562
 352	1	9	0.095908	-11.2257	-33.8063	48.0238
 353	1	9	0.127068	-11.9823	-35.2334	47.2908
 354	1	9	0.099095	-11.8517	-35.0612	49.0491
 355	1	1	-0.024347	2.72626	-24.5263	27.0079
 356	1	1	-0.071478	3.59349	-25.6183	26.7264
 357	1	1	-0.180016	3.92896	-25.8745	25.3644
 358	1	2	-0.370097	0.873625	-22.0043	26.9362
 359	1	1	0.010306	2.23087	-23.753	25.9489
 360	1	1	-0.071748	3.4169	-25.0878	24.3146
 361	1	2	-0.403598	2.03756	-22.9589	22.5437
 362	1	1	0.055994	2.56864	-24.0302	24.6403
 363	1	3	0.021521	1.35541	-22.5474	25.9567
 364	1	4	0.466017	1.23862	-22.1768	24.6157
 365	1	3	0.096621	1.93304	-23.0254	23.7579
 366	1	1	-0.099438	0.713006	-27.7382	29.0984
 367	1	5	-0.089685	4.18294	-26.4486	27.9109
 368	1	1	-0.037281	3.02488	-26.8845	28.8538
 369	1	1	-0.08188	1.76377	-27.2448	28.2989
 370	1	1	-0.106561	0.94856	-27.8911	30.4677
 371	1	1	-0.037628	3.21873	-27.0593	30.2502
 372	1	1	-0.12234	2.16688	-27.5638	31.0235
 373	1	5	0.388954	5.24378	-25.518	28.6195
 374	1	5	0.307788	4.88503	-27.7869	27.4593
 375	1	6	-0.129718	4.64657	-24.5386	29.3353
 376	1	6	-0.129089	6.04228	-24.9026	27.7176
 377	1	6	-0.119089	6.06959	-26.1734	29.4656
 378	1	6	-0.103894	6.03288	-27.5784	26.775
 379	1	6	-0.097852	4.07175	-28.5361	26.6798
 380	1	6	-0.104555	5.20752	-28.5731	28.5119
 381	1	3	0.521254	2.12605	-27.9111	32.469
 382	1	3	0.53569	0.0829357	-28.4526	31.5391
 383	1	4	0.027822	0.859206	-28.4458	32.6968
 384	1	2	-0.468874	3.0395	-27.7715	33.2641
 385	1	2	-0.477974	-1.05238	-28.8742	31.3957
 386	1	1	-0.359831	0.410976	-28.9533	33.9638
 387	1	1	0.131035	0.316596	-30.351	34.1611
 388	1	1	-0.120983	-0.21748	-30.8543	35.3713
 389	1	1	0.127261	0.0527106	-28.0534	34.9938
 390	1	1	-0.127195	-0.374368	-28.5576	36.2445
 391	1	1	0.144798	-0.544192	-29.9537	36.4143
 392	1	5	-0.020676	0.123568	-26.5383	34.7627
 393	1	5	-0.019785	0.774297	-31.3174	33.0608
 394	1	7	0.164889	2.44802	-24.2698	28.0271
 395	1	7	0.175264	4.60412	-26.6759	25.0858
 396	1	7	0.1582	3.68379	-25.2784	23.2771
 397	1	7	0.150763	-0.242379	-28.0256	28.6637
 398	1	7	0.144868	1.59878	-27.1728	27.2269
 399	1	7	0.134072	4.16681	-26.8577	30.7377
 400	1	5	-0.300668	-0.431994	-32.3665	35.5554
 401	1	5	-0.243237	-0.684136	-27.5982	37.4066
 402	1	9	0.021835	0.0846424	-26.2587	33.7043
 403	1	9	0.012312	1.04874	-26.1236	35.1819
 404	1	9	0.041777	-0.722794	-26.022	35.231
 405	1	9	0.110598	-0.0682315	-26.6912	37.3748
 406	1	9	0.08293	-1.73797	-27.2894	37.3887
 407	1	9	0.082252	-0.48158	-28.0425	38.3886
 408	1	9	0.027698	1.55332	-30.8901	32.4194
 409	1	9	0.017051	-0.0674194	-31.6064	32.4194
 410	1	9	0.037874	1.2131	-32.2315	33.4777
 411	1	9	0.095908	-1.22851	-32.6081	36.2685
 412	1	9	0.127068	-0.730463	-32.8559	34.6196
 413	1	9	0.099095	0.488482	-32.8505	35.9092
 414	1	1	-0.024347	-2.48463	-13.8351	14.4125
 415	1	1	-0.071478	-2.88697	-14.7696	15.4043
 416	1	1	-0.180016	-4.2331	-14.7124	15.8663
 417	1	2	-0.370097	-2.20872	-11.6177	12.2852
 418	1	1	0.010306	-3.4127	-12.9141	13.927
 419	1	1	-0.071748	-5.15484	-13.7644	15.3654
 420	1	2	-0.403598	-6.59742	-11.465	13.795
 421	1	1	0.055994	-4.714	-12.8756	14.3797
 422	1	3	0.021521	-3.23748	-11.8743	12.8881
 423	1	4	0.466017	-4.47961	-11.2558	12.7831
 424	1	3	0.096621	-5.43378	-11.7999	13.6435
 425	1	1	-0.099438	-2.14368	-15.1249	19.6982
 426	1	5	-0.089685	-1.95568	-15.9303	15.8751
 427	1	1	-0.037281	-2.01967	-16.1106	17.4229
 428	1	1	-0.08188	-2.22458	-14.9986	18.2905
 429	1	1	-0.106561	-1.82609	-16.3807	20.2341
 430	1	1	-0.037628	-1.7131	-17.3625	18.0145
 431	1	1	-0.12234	-1.6172	-17.4592	19.4036
 432	1	5	0.388954	-0.434432	-15.6764	15.539
 433	1	5	0.307788	-2.45941	-17.2088	15.0958
 434	1	6	-0.129718	-0.163295	-15.7397	14.2156
 435	1	6	-0.129089	0.383104	-16.5788	16.1279
 436	1	6	-0.119089	-0.0332796	-14.4645	15.9865
 437	1	6	-0.103894	-2.72018	-16.9319	13.7971
 438	1	6	-0.097852	-3.60867	-17.687	15.6248
 439	1	6	-0.104555	-1.57442	-18.2302	15.0823
 440	1	3	0.521254	-1.1796	-18.6096	20.2256
 441	1	3	0.53569	-1.54091	-16.8188	21.6365
 442	1	4	0.027822	-1.13011	-18.1509	21.5384
 443	1	2	-0.468874	-0.885654	-19.7148	19.8025
 444	1	2	-0.477974	-1.59225	-16.1187	22.6335
 445	1	1	-0.359831	-0.634164	-18.9841	22.6006
 446	1	1	0.131035	-1.41928	-20.0799	23.0309
 447	1	1	-0.120983	-0.822596	-21.1238	23.7768
 448	1	1	0.127261	0.708614	-18.8504	23.0302
 449	1	1	-0.127195	1.29071	-19.8656	23.8259
 450	1	1	0.144798	0.546066	-21.031	24.1274
 451	1	5	-0.020676	1.57688	-17.6692	22.5751
 452	1	5	-0.019785	-2.8861	-20.199	22.5976
 453	1	7	0.164889	-1.49204	-13.8137	13.9785
 454	1	7	0.175264	-4.58038	-15.4327	16.6042
 455	1	7	0.1582	-6.18608	-13.7337	15.7108
 456	1	7	0.150763	-2.27267	-14.2628	20.3499
 457	1	7	0.144868	-2.40845	-14.0121	17.8726
 458	1	7	0.134072	-1.47525	-18.2421	17.4273
 459	1	5	-0.300668	-1.6399	-22.3863	24.1003
 460	1	5	-0.243237	2.76232	-19.7667	24.2631
 461	1	9	0.021835	1.79015	-17.0012	23.4189
 462	1	9	0.012312	1.12784	-17.0548	21.7894
 463	1	9	0.041777	2.53518	-18.0186	22.1721
 464	1	9	0.110598	3.43007	-20.1653	23.4871
 465	1	9	0.08293	3.06655	-18.7329	24.4662
 466	1	9	0.082252	2.96443	-20.3106	25.1941
 467	1	9	0.027698	-3.30465	-19.2547	22.2321
 468	1	9	0.017051	-3.529	-20.4986	23.4331
 469	1	9	0.037874	-2.99697	-20.943	21.7992
 470	1	9	0.095908	-2.5609	-22.1339	24.6405
 471	1	9	0.127068	-1.92595	-22.9104	23.1781
 472	1	9	0.099095	-1.11877	-23.1119	24.734
 473	1	1	-0.024347	-2.24831	-2.20983	3.83426
 474	1	1	-0.071478	-3.3804	-2.4219	4.6627
 475	1	1	-0.180016	-4.52679	-3.04391	4.09098
 476	1	2	-0.370097	-0.2507	-1.79878	1.52098
 477	1	1	0.010306	-2.30997	-2.59554	2.49327
 478	1	1	-0.071748	-4.5667	-3.42466	2.73219
 479	1	2	-0.403598	-4.05396	-3.71448	-0.332916
 480	1	1	0.055994	-3.43835	-3.17287	1.94758
 481	1	3	0.021521	-1.34136	-2.33282	1.40514
 482	1	4	0.466017	-1.98856	-2.73667	0.239754
 483	1	3	0.096621	-3.24399	-3.29378	0.477582
 484	1	1	-0.099438	-6.02575	-3.28293	8.69198
 485	1	5	-0.089685	-3.46093	-1.84036	6.10209
 486	1	1	-0.037281	-4.28072	-2.81915	6.99741
 487	1	1	-0.08188	-5.36842	-2.39644	7.81704
 488	1	1	-0.106561	-5.57565	-4.60328	8.75031
 489	1	1	-0.037628	-3.87785	-4.17904	7.06995
 490	1	1	-0.12234	-4.53167	-5.03925	7.96218
 491	1	5	0.388954	-4.11964	-0.414257	5.95001
 492	1	5	0.307788	-2.04981	-1.67849	6.79701
 493	1	6	-0.129718	-5.40219	-0.49712	5.52744
 494	1	6	-0.129089	-3.48207	0.34429	5.02881
 495	1	6	-0.119089	-4.11504	0.295278	7.10153
 496	1	6	-0.103894	-1.2835	-2.78268	6.65259
 497	1	6	-0.097852	-2.17723	-1.47279	8.12801
 498	1	6	-0.104555	-1.32258	-0.640914	6.32548
 499	1	3	0.521254	-4.20794	-6.43697	8.35976
 500	1	3	0.53569	-5.96286	-5.70266	9.67175
 501	1	4	0.027822	-5.06858	-6.73907	9.4149
 502	1	2	-0.468874	-3.30061	-7.11641	7.91117
 503	1	2	-0.477974	-6.79874	-5.63199	10.5572
 504	1	1	-0.359831	-4.9423	-7.89571	10.2557
 505	1	1	0.131035	-4.37052	-7.74227	11.5411
 506	1	1	-0.120983	-4.3008	-8.85218	12.412
 507	1	1	0.127261	-5.3878	-9.16076	9.80757
 508	1	1	-0.127195	-5.21942	-10.2945	10.6388
 509	1	1	0.144798	-4.69579	-10.1274	11.9444
 510	1	5	-0.020676	-6.02558	-9.3109	8.42117
 511	1	5	-0.019785	-3.82094	-6.38148	11.9929
 512	1	7	0.164889	-1.35789	-1.69308	4.17532
 513	1	7	0.175264	-5.42584	-3.1803	4.68761
 514	1	7	0.1582	-5.46453	-3.84594	2.28511
 515	1	7	0.150763	-6.82786	-2.94129	9.34368
 516	1	7	0.144868	-5.70813	-1.36772	7.82324
 517	1	7	0.134072	-3.04006	-4.55241	6.48562
 518	1	5	-0.300668	-3.76523	-8.6903	13.8462
 519	1	5	-0.243237	-5.61021	-11.6942	10.1352
 520	1	9	0.021835	-5.29028	-9.67594	7.69325
 521	1	9	0.012312	-6.43819	-8.37301	8.03286
 522	1	9	0.041777	-6.86377	-10.0176	8.43953
 523	1	9	0.110598	-5.42706	-11.8109	9.05966
 524	1	9	0.08293	-5.03764	-12.4996	10.61
 525	1	9	0.082252	-6.67489	-11.8912	10.3172
 526	1	9	0.027698	-3.50732	-5.7465	11.1571
 527	1	9	0.017051	-2.9265	-6.49005	12.6175
 528	1	9	0.037874	-4.57399	-5.83021	12.5694
 529	1	9	0.095908	-2.67915	-8.85056	13.8788
 530	1	9	0.127068	-3.97	-7.69443	14.2578
 531	1	9	0.099095	-4.23074	-9.38479	14.5556
 532	1	1	-0.024347	4.52998	2.51328	-7.7981
 533	1	1	-0.071478	4.80536	1.7573	-8.96552
 534	1	1	-0.180016	5.27683	2.44443	-10.1206
 535	1	2	-0.370097	4.40132	4.59297	-5.52854
 536	1	1	0.010306	4.75667	3.88861	-7.80823
 537	1	1	-0.071748	5.48981	3.84111	-10.1105
 538	1	2	-0.403598	6.01443	6.80277	-9.28211
 539	1	1	0.055994	5.23204	4.53953	-8.92702
 540	1	3	0.021521	4.72608	4.8425	-6.67758
 541	1	4	0.466017	5.2412	6.02748	-7.19533
 542	1	3	0.096621	5.53015	5.94845	-8.5576
 543	1	1	-0.099438	0.920703	0.150771	-7.98026
 544	1	5	-0.089685	4.70229	0.210641	-8.87373
 545	1	1	-0.037281	3.38386	-0.108881	-8.10315
 546	1	1	-0.08188	2.15133	0.375656	-8.62789
 547	1	1	-0.106561	0.939805	-0.532409	-6.76275
 548	1	1	-0.037628	3.35239	-0.802284	-6.86221
 549	1	1	-0.12234	2.1242	-0.969849	-6.21092
 550	1	5	0.388954	6.01186	-0.273555	-8.13212
 551	1	5	0.307788	4.62163	-0.520363	-10.2742
 552	1	6	-0.129718	6.11569	0.228053	-6.88019
 553	1	6	-0.129089	7.13429	0.138884	-8.76435
 554	1	6	-0.119089	6.08633	-1.6198	-8.03181
 555	1	6	-0.103894	4.24849	-1.8119	-10.1294
 556	1	6	-0.097852	5.79147	-0.534361	-10.9516
 557	1	6	-0.104555	3.71896	0.0444637	-11.1064
 558	1	3	0.521254	1.82472	-1.54208	-4.87242
 559	1	3	0.53569	-0.164818	-0.853156	-5.82038
 560	1	4	0.027822	0.445324	-1.42133	-4.70243
 561	1	2	-0.468874	2.64635	-1.97995	-4.08507
 562	1	2	-0.477974	-1.3461	-0.601558	-5.99163
 563	1	1	-0.359831	-0.245359	-1.77709	-3.4926
 564	1	1	0.131035	-0.837804	-0.761348	-2.70362
 565	1	1	-0.120983	-1.5192	-1.10946	-1.51618
 566	1	1	0.127261	-0.295264	-3.13139	-3.0809
 567	1	1	-0.127195	-0.858049	-3.46096	-1.82468
 568	1	1	0.144798	-1.47065	-2.44612	-1.05312
 569	1	5	-0.020676	0.284247	-4.23671	-3.97239
 570	1	5	-0.019785	-0.726448	0.715713	-3.1076
 571	1	7	0.164889	4.21917	2.04261	-6.86859
 572	1	7	0.175264	5.53442	1.90386	-11.026
 573	1	7	0.1582	5.89978	4.35964	-10.9746
 574	1	7	0.150763	-0.0138786	0.525108	-8.39346
 575	1	7	0.144868	2.14036	0.955353	-9.54576
 576	1	7	0.134072	4.24284	-1.18539	-6.37503
 577	1	5	-0.300668	-2.27363	-0.0386853	-0.706775
 578	1	5	-0.243237	-0.813774	-4.90408	-1.29529
 579	1	9	0.021835	1.29671	-4.50806	-3.64809
 580	1	9	0.012312	0.337038	-3.9513	-5.02914
 581	1	9	0.041777	-0.334656	-5.14106	-3.94398
 582	1	9	0.110598	-1.7181	-5.45569	-1.58645
 583	1	9	0.08293	0.0537731	-5.46089	-1.66929
 584	1	9	0.082252	-0.731463	-4.95168	-0.202838
 585	1	9	0.027698	-0.641649	1.37226	-2.23373
 586	1	9	0.017051	-1.60557	1.03208	-3.68264
 587	1	9	0.037874	0.164362	0.926504	-3.70904
 588	1	9	0.095908	-1.61091	0.441772	0.0256415
 589	1	9	0.127068	-2.69243	0.74698	-1.34799
 590	1	9	0.099095	-3.13616	-0.444791	-0.164737
 591	1	1	-0.024347	9.86629	15.2632	1.85091
 592	1	1	-0.071478	9.56803	14.8209	0.534694
 593	1	1	-0.180016	10.5789	14.1281	-0.192007
 594	1	2	-0.370097	11.0829	15.7926	4.65994
 595	1	1	0.010306	11.1197	14.956	2.39256
 596	1	1	-0.071748	11.8411	13.8506	0.364953
 597	1	2	-0.403598	14.3053	13.5054	2.2155
 598	1	1	0.055994	12.0777	14.2702	1.6729
 599	1	3	0.021521	11.6577	15.2187	3.75025
 600	1	4	0.466017	12.9347	14.658	3.74645
 601	1	3	0.096621	13.2707	14.0723	2.52908
 602	1	1	-0.099438	7.66691	11.1502	-0.152459
 603	1	5	-0.089685	8.17147	14.9903	-0.129709
 604	1	1	-0.037281	7.77905	13.5755	-0.642511
 605	1	1	-0.08188	7.91886	12.4737	0.249955
 606	1	1	-0.106561	7.27092	10.9402	-1.47339
 607	1	1	-0.037628	7.342	13.3185	-1.96896
 608	1	1	-0.12234	7.11033	11.9912	-2.3531
 609	1	5	0.388954	8.32779	16.0754	-1.2667
 610	1	5	0.307788	7.03038	15.4525	0.859221
 611	1	6	-0.129718	7.15131	16.4222	-1.83518
 612	1	6	-0.129089	9.13632	15.6627	-2.2688
 613	1	6	-0.119089	8.88328	17.2129	-0.790915
 614	1	6	-0.103894	6.96413	14.6835	1.96936
 615	1	6	-0.097852	5.81007	15.3681	0.282575
 616	1	6	-0.104555	7.17891	16.729	1.27919
 617	1	3	0.521254	6.70806	11.4298	-3.67044
 618	1	3	0.53569	6.9744	9.67547	-2.18994
 619	1	4	0.027822	6.6556	10.0489	-3.49203
 620	1	2	-0.468874	6.48443	12.0682	-4.68439
 621	1	2	-0.477974	7.03775	8.55176	-1.72
 622	1	1	-0.359831	6.30848	9.10598	-4.51289
 623	1	1	0.131035	7.32012	8.30244	-5.08735
 624	1	1	-0.120983	6.96061	7.26491	-5.97707
 625	1	1	0.127261	4.95227	8.94433	-4.8776
 626	1	1	-0.127195	4.60343	7.97742	-5.84791
 627	1	1	0.144798	5.60448	7.11928	-6.36071
 628	1	5	-0.020676	3.8657	9.80064	-4.21271
 629	1	5	-0.019785	8.79269	8.52391	-4.71779
 630	1	7	0.164889	9.15473	15.8004	2.46979
 631	1	7	0.175264	10.3779	13.77	-1.19941
 632	1	7	0.1582	12.6031	13.3056	-0.18797
 633	1	7	0.150763	7.79258	10.3143	0.533131
 634	1	7	0.144868	8.25548	12.6386	1.26997
 635	1	7	0.134072	7.20518	14.1049	-2.7046
 636	1	5	-0.300668	8.0232	6.28819	-6.51738
 637	1	5	-0.243237	3.14418	7.81687	-6.302
 638	1	9	0.021835	4.13801	10.1279	-3.20298