pySIMM System Object

1182 atoms
1281 bonds
2280 angles
3316 dihedrals
320 impropers

9 atom types
11 bond types
18 angle types
7 dihedral types
4 improper types

-165.302430 165.302430 xlo xhi
-165.302430 165.302430 ylo yhi
-165.302430 165.302430 zlo zhi

Masses

   1	12.01	# ca
   2	16.0	# o
   3	12.01	# c
   4	14.01	# n
   5	12.01	# c3
   6	19.0	# f
   7	1.008	# ha
   8	1.008	# hn
   9	1.008	# hc

Pair Coeffs

   1	0.086	3.3996695084235347	# ca
   2	0.21	2.959921901149463	# o
   3	0.086	3.3996695084235347	# c
   4	0.17	3.249998523775958	# n
   5	0.1094	3.3996695084235347	# c3
   6	0.061	3.1181455134911875	# f
   7	0.015	2.59964245953351	# ha
   8	0.0157	1.069078461768407	# hn
   9	0.0157	2.649532787749369	# hc

Bond Coeffs

   1	321.0	1.5156	# c3,ca
   2	300.9	1.5375	# c3,c3
   3	345.8	1.086	# ca,ha
   4	384.2	1.4121	# ca,n
   5	637.7	1.2183	# c,o
   6	330.6	1.0969	# c3,hc
   7	356.9	1.3497	# c3,f
   8	403.2	1.0129	# hn,n
   9	461.1	1.3984	# ca,ca
  10	427.6	1.3789	# c,n
  11	345.9	1.4906	# c,ca

Angle Coeffs

   1	70.89	107.36	# f,c3,f
   2	63.82	123.71	# c,n,ca
   3	68.72	122.6	# ca,c,o
   4	48.18	119.88	# ca,ca,ha
   5	67.87	120.19	# ca,ca,n
   6	67.68	115.25	# ca,c,n
   7	46.8	110.47	# ca,c3,hc
   8	48.33	117.55	# c,n,hn
   9	39.4	107.58	# hc,c3,hc
  10	74.22	123.05	# n,c,o
  11	62.86	111.51	# c3,c3,c3
  12	64.28	120.33	# c,ca,ca
  13	63.56	112.24	# ca,c3,ca
  14	63.15	112.07	# c3,c3,ca
  15	66.11	109.24	# c3,c3,f
  16	66.62	120.02	# ca,ca,ca
  17	63.74	127.08	# c,n,c
  18	63.53	120.77	# c3,ca,ca

Dihedral Coeffs

   1	2	2.5	2	180	2.0	1	0	# hn,n,c,o
   2	1	3.625	2	180	# X,ca,ca,X
   3	1	1.0	2	180	# X,c,ca,X
   4	1	0.0	2	0	# X,c3,ca,X
   5	1	0.15555555555555556	3	0	# X,c3,c3,X
   6	1	2.5	2	180	# X,c,n,X
   7	1	0.45	2	180	# X,ca,n,X

Improper Coeffs

   1	10.5	-1	2	# c,X,X,o
   2	1.1	-1	2	# n,X,X,hn
   3	1.1	-1	2	# ca,ca,ca,c3
   4	1.1	-1	2	# ca,X,X,ha

Atoms

   1	1	1	-0.024347	52.9005	-66.974	-9.89212
   2	1	1	-0.071478	54.2115	-66.4597	-10.0974
   3	1	1	-0.180016	54.5387	-65.1949	-9.53203
   4	1	2	-0.370097	49.9205	-67.4856	-9.09516
   5	1	1	0.010306	51.9757	-66.2011	-9.17955
   6	1	1	-0.071748	53.593	-64.4316	-8.82337
   7	1	2	-0.403598	51.0869	-63.3187	-7.40582
   8	1	1	0.055994	52.3135	-64.9634	-8.67066
   9	1	3	0.021521	50.5584	-66.4835	-8.8198
  10	1	4	0.466017	50.1417	-65.3592	-8.10756
  11	1	3	0.096621	51.1388	-64.3968	-7.97547
  12	1	1	-0.099438	55.9197	-64.3179	-13.37
  13	1	5	-0.089685	55.318	-67.2329	-10.8742
  14	1	1	-0.037281	56.0707	-66.2175	-11.7875
  15	1	1	-0.08188	55.3109	-65.2634	-12.5225
  16	1	1	-0.106561	57.3111	-64.3486	-13.4895
  17	1	1	-0.037628	57.4828	-66.2227	-11.9538
  18	1	1	-0.12234	58.0696	-65.2756	-12.8054
  19	1	5	0.388954	54.7504	-68.3498	-11.8307
  20	1	5	0.307788	56.2359	-67.8978	-9.77855
  21	1	6	-0.129718	53.756	-67.8754	-12.6151
  22	1	6	-0.129089	54.2586	-69.4213	-11.169
  23	1	6	-0.119089	55.7019	-68.8184	-12.6697
  24	1	6	-0.103894	55.5046	-68.5609	-8.85336
  25	1	6	-0.097852	56.9538	-66.9747	-9.09905
  26	1	6	-0.104555	57.1127	-68.7926	-10.286
  27	1	3	0.521254	59.4958	-65.0751	-13.1879
  28	1	3	0.53569	58.2198	-63.5259	-14.3295
  29	1	4	0.027822	59.4991	-64.0283	-14.1089
  30	1	2	-0.468874	60.443	-65.7335	-12.7941
  31	1	2	-0.477974	57.8836	-62.6211	-15.075
  32	1	1	-0.359831	60.6562	-63.5488	-14.8106
  33	1	1	0.131035	60.9716	-64.0928	-16.0788
  34	1	1	-0.120983	62.0109	-63.5155	-16.8421
  35	1	1	0.127261	61.4062	-62.475	-14.2755
  36	1	1	-0.127195	62.4581	-61.9159	-15.038
  37	1	1	0.144798	62.7393	-62.4395	-16.3105
  38	1	5	-0.020676	61.0471	-61.928	-12.8912
  39	1	5	-0.019785	60.1674	-65.2747	-16.629
  40	1	7	0.164889	52.5818	-67.943	-10.2613
  41	1	7	0.175264	55.5424	-64.7903	-9.64555
  42	1	7	0.1582	53.8415	-63.4609	-8.39919
  43	1	7	0.150763	55.3282	-63.5939	-13.9271
  44	1	7	0.144868	54.2272	-65.251	-12.4366
  45	1	7	0.134072	58.1264	-66.9396	-11.4548
  46	1	5	-0.300668	62.3492	-64.0008	-18.2525
  47	1	5	-0.243237	63.2869	-60.7294	-14.5451
  48	1	9	0.021835	61.7555	-61.1825	-12.5164
  49	1	9	0.012312	61.025	-62.7349	-12.1481
  50	1	9	0.041777	60.0571	-61.4567	-12.9057
  51	1	9	0.110598	62.6472	-59.8715	-14.3011
  52	1	9	0.08293	63.8645	-60.9935	-13.6502
  53	1	9	0.082252	64.0031	-60.3882	-15.3037
  54	1	9	0.027698	60.7296	-65.8585	-17.366
  55	1	9	0.017051	59.2432	-64.9285	-17.1072
  56	1	9	0.037874	59.8942	-65.9834	-15.8388
  57	1	9	0.095908	62.8349	-64.9845	-18.2276
  58	1	9	0.127068	61.4479	-64.079	-18.8744
  59	1	9	0.099095	63.0309	-63.3117	-18.7676
  60	1	1	-0.024347	40.7791	-57.5953	-1.90732
  61	1	1	-0.071478	41.4987	-58.8213	-1.93529
  62	1	1	-0.180016	42.5721	-58.994	-1.01547
  63	1	2	-0.370097	39.6521	-54.7491	-1.34098
  64	1	1	0.010306	41.1727	-56.6011	-1.00386
  65	1	1	-0.071748	42.9461	-57.9834	-0.108351
  66	1	2	-0.403598	43.1915	-55.4027	1.59486
  67	1	1	0.055994	42.225	-56.7894	-0.13093
  68	1	3	0.021521	40.5993	-55.2515	-0.760294
  69	1	4	0.466017	41.3571	-54.7215	0.283693
  70	1	3	0.096621	42.3687	-55.5781	0.710879
  71	1	1	-0.099438	44.663	-59.7815	-4.58947
  72	1	5	-0.089685	41.1726	-59.9815	-2.92426
  73	1	1	-0.037281	42.5091	-60.4433	-3.57061
  74	1	1	-0.08188	43.4513	-59.4496	-3.96073
  75	1	1	-0.106561	44.9115	-61.1299	-4.8436
  76	1	1	-0.037628	42.8014	-61.8051	-3.85766
  77	1	1	-0.12234	44.0104	-62.1149	-4.49584
  78	1	5	0.388954	40.243	-59.553	-4.1232
  79	1	5	0.307788	40.454	-61.1044	-2.08198
  80	1	6	-0.129718	40.7127	-58.451	-4.75156
  81	1	6	-0.129089	38.9746	-59.2852	-3.74013
  82	1	6	-0.119089	40.1682	-60.5163	-5.0699
  83	1	6	-0.103894	39.8996	-62.0765	-2.84024
  84	1	6	-0.097852	39.4545	-60.5909	-1.32889
  85	1	6	-0.104555	41.3036	-61.7121	-1.22337
  86	1	3	0.521254	44.5556	-63.4229	-4.96247
  87	1	3	0.53569	46.0573	-61.7624	-5.53334
  88	1	4	0.027822	45.7694	-63.123	-5.57922
  89	1	2	-0.468874	44.0281	-64.5136	-4.82849
  90	1	2	-0.477974	47.0212	-61.1765	-5.99689
  91	1	1	-0.359831	46.6503	-64.0478	-6.22854
  92	1	1	0.131035	46.6942	-64.0468	-7.64108
  93	1	1	-0.120983	47.8223	-64.5799	-8.30344
  94	1	1	0.127261	47.6178	-64.7471	-5.47239
  95	1	1	-0.127195	48.7119	-65.3434	-6.13737
  96	1	1	0.144798	48.8567	-65.1636	-7.53325
  97	1	5	-0.020676	47.5551	-64.7854	-3.94043
  98	1	5	-0.019785	45.5853	-63.3522	-8.4413
  99	1	7	0.164889	39.9353	-57.3901	-2.55767
 100	1	7	0.175264	43.135	-59.9252	-1.00661
 101	1	7	0.1582	43.766	-58.1197	0.593968
 102	1	7	0.150763	45.3757	-59.0163	-4.89139
 103	1	7	0.144868	43.2405	-58.3976	-3.78716
 104	1	7	0.134072	42.1148	-62.6121	-3.62353
 105	1	5	-0.300668	47.9539	-64.4165	-9.82743
 106	1	5	-0.243237	49.8096	-66.0665	-5.34071
 107	1	9	0.021835	46.7868	-64.1377	-3.50749
 108	1	9	0.012312	48.5084	-64.4695	-3.49912
 109	1	9	0.041777	47.3428	-65.8034	-3.59141
 110	1	9	0.110598	50.5638	-65.3569	-4.97439
 111	1	9	0.08293	49.4057	-66.6033	-4.47392
 112	1	9	0.082252	50.3242	-66.8301	-5.93734
 113	1	9	0.027698	45.8637	-62.3186	-8.6806
 114	1	9	0.017051	44.6336	-63.3268	-7.89726
 115	1	9	0.037874	45.3703	-63.8718	-9.38158
 116	1	9	0.095908	48.8824	-64.816	-10.2483
 117	1	9	0.127068	47.1414	-64.9399	-10.3483
 118	1	9	0.099095	47.9071	-63.3571	-10.1128
 119	1	1	-0.024347	38.8858	-44.5399	6.73047
 120	1	1	-0.071478	39.2787	-43.8382	5.55997
 121	1	1	-0.180016	38.4144	-42.8246	5.05554
 122	1	2	-0.370097	37.5867	-45.5091	9.3915
 123	1	1	0.010306	37.6892	-44.1878	7.36526
 124	1	1	-0.071748	37.2063	-42.496	5.70239
 125	1	2	-0.403598	34.8725	-42.1351	7.71288
 126	1	1	0.055994	36.8781	-43.1874	6.86919
 127	1	3	0.021521	37.1212	-44.6526	8.6585
 128	1	4	0.466017	35.991	-43.8605	8.85922
 129	1	3	0.096621	35.7617	-42.9645	7.81847
 130	1	1	-0.099438	42.4757	-47.5335	5.4768
 131	1	5	-0.089685	40.7026	-44.0724	4.98506
 132	1	1	-0.037281	41.0016	-45.605	4.98326
 133	1	1	-0.08188	42.1435	-46.1731	5.62243
 134	1	1	-0.106561	41.6633	-48.324	4.66259
 135	1	1	-0.037628	40.1674	-46.4671	4.22109
 136	1	1	-0.12234	40.5392	-47.8083	4.05386
 137	1	5	0.388954	41.676	-43.2333	5.90431
 138	1	5	0.307788	40.8833	-43.5782	3.49067
 139	1	6	-0.129718	41.6884	-43.6841	7.17983
 140	1	6	-0.129089	41.3015	-41.9363	5.99177
 141	1	6	-0.119089	42.9536	-43.2408	5.46024
 142	1	6	-0.103894	40.9616	-42.2347	3.36101
 143	1	6	-0.097852	39.8709	-43.9737	2.68687
 144	1	6	-0.104555	42.0169	-44.0746	2.9441
 145	1	3	0.521254	39.989	-48.8534	3.14461
 146	1	3	0.53569	41.8684	-49.712	4.1773
 147	1	4	0.027822	40.8648	-49.9349	3.23862
 148	1	2	-0.468874	39.0365	-48.7216	2.39518
 149	1	2	-0.477974	42.8055	-50.4381	4.46309
 150	1	1	-0.359831	40.8419	-51.0929	2.38967
 151	1	1	0.131035	41.6847	-51.1223	1.25341
 152	1	1	-0.120983	41.8307	-52.3214	0.515862
 153	1	1	0.127261	40.0742	-52.2228	2.7484
 154	1	1	-0.127195	40.1942	-53.4153	1.99873
 155	1	1	0.144798	41.1031	-53.471	0.912271
 156	1	5	-0.020676	39.1566	-52.197	3.97731
 157	1	5	-0.019785	42.4931	-49.8735	0.872092
 158	1	7	0.164889	39.5258	-45.2902	7.18808
 159	1	7	0.175264	38.6854	-42.2363	4.18513
 160	1	7	0.1582	36.5681	-41.6916	5.3424
 161	1	7	0.150763	43.3765	-47.9458	5.92787
 162	1	7	0.144868	42.8283	-45.571	6.20712
 163	1	7	0.134072	39.2881	-46.094	3.70279
 164	1	5	-0.300668	42.8094	-52.3711	-0.671815
 165	1	5	-0.243237	39.374	-54.649	2.41651
 166	1	9	0.021835	38.1309	-52.4753	3.70765
 167	1	9	0.012312	39.0885	-51.2181	4.46251
 168	1	9	0.041777	39.5098	-52.9051	4.73694
 169	1	9	0.110598	38.3029	-54.4119	2.45219
 170	1	9	0.08293	39.4607	-55.5056	1.74048
 171	1	9	0.082252	39.6735	-55.0001	3.41225
 172	1	9	0.027698	43.4603	-49.8656	1.38966
 173	1	9	0.017051	41.9705	-48.9442	1.12649
 174	1	9	0.037874	42.6881	-49.8073	-0.203281
 175	1	9	0.095908	42.9303	-53.3602	-1.12546
 176	1	9	0.127068	42.4779	-51.704	-1.47874
 177	1	9	0.099095	43.8135	-52.0502	-0.363441
 178	1	1	-0.024347	28.2821	-41.3158	18.527
 179	1	1	-0.071478	28.067	-42.6864	18.8427
 180	1	1	-0.180016	26.8958	-43.0272	19.5806
 181	1	2	-0.370097	28.1188	-38.2163	18.126
 182	1	1	0.010306	27.3349	-40.3627	18.9298
 183	1	1	-0.071748	25.9636	-42.0526	19.9866
 184	1	2	-0.403598	24.3782	-39.4585	20.5801
 185	1	1	0.055994	26.2128	-40.7235	19.647
 186	1	3	0.021521	27.3007	-38.8866	18.7326
 187	1	4	0.466017	26.1356	-38.4593	19.3746
 188	1	3	0.096621	25.4249	-39.5062	19.9544
 189	1	1	-0.099438	29.1016	-42.9085	14.662
 190	1	5	-0.089685	29.1494	-43.7469	18.4616
 191	1	1	-0.037281	29.6421	-43.5015	17.0048
 192	1	1	-0.08188	28.717	-43.0806	16.0075
 193	1	1	-0.106561	30.4249	-43.1982	14.3166
 194	1	1	-0.037628	30.9724	-43.7994	16.602
 195	1	1	-0.12234	31.3282	-43.6424	15.258
 196	1	5	0.388954	28.6133	-45.2305	18.4789
 197	1	5	0.307788	30.2962	-43.5897	19.5326
 198	1	6	-0.129718	27.4673	-45.3474	17.7695
 199	1	6	-0.129089	28.3724	-45.6996	19.7243
 200	1	6	-0.119089	29.4899	-46.0941	17.9168
 201	1	6	-0.103894	29.7973	-43.5023	20.7871
 202	1	6	-0.097852	31.011	-42.4605	19.3258
 203	1	6	-0.104555	31.1711	-44.6201	19.5501
 204	1	3	0.521254	32.6158	-43.9295	14.5699
 205	1	3	0.53569	31.108	-43.1661	12.9963
 206	1	4	0.027822	32.4052	-43.6228	13.2268
 207	1	2	-0.468874	33.6317	-44.3499	15.0967
 208	1	2	-0.477974	30.6039	-42.8317	11.9373
 209	1	1	-0.359831	33.3913	-43.7608	12.1911
 210	1	1	0.131035	33.2428	-44.7839	11.2247
 211	1	1	-0.120983	34.1075	-44.8222	10.1054
 212	1	1	0.127261	34.466	-42.8439	12.1131
 213	1	1	-0.127195	35.3919	-42.9445	11.0488
 214	1	1	0.144798	35.174	-43.896	10.0233
 215	1	5	-0.020676	34.6244	-41.7332	13.1608
 216	1	5	-0.019785	32.1268	-45.8258	11.3708
 217	1	7	0.164889	29.1687	-40.9898	17.988
 218	1	7	0.175264	26.6894	-44.0498	19.8757
 219	1	7	0.1582	25.0773	-42.3165	20.5598
 220	1	7	0.150763	28.3881	-42.5864	13.9058
 221	1	7	0.144868	27.6778	-42.9	16.2702
 222	1	7	0.134072	31.7207	-44.1787	17.2893
 223	1	5	-0.300668	33.8921	-45.8535	8.98336
 224	1	5	-0.243237	36.5983	-41.9928	10.9743
 225	1	9	0.021835	34.9745	-40.797	12.7104
 226	1	9	0.012312	35.3471	-42.0281	13.9319
 227	1	9	0.041777	33.6871	-41.4776	13.6656
 228	1	9	0.110598	36.9887	-41.7469	11.9701
 229	1	9	0.08293	37.4506	-42.4219	10.4341
 230	1	9	0.082252	36.3252	-41.0516	10.4789
 231	1	9	0.027698	31.2382	-45.5275	10.8008
 232	1	9	0.017051	31.8223	-45.9767	12.4129
 233	1	9	0.037874	32.4439	-46.813	11.0151
 234	1	9	0.095908	34.4323	-46.7845	9.20144
 235	1	9	0.127068	32.8328	-46.1042	8.84707
 236	1	9	0.099095	34.225	-45.5005	8.00034
 237	1	1	-0.024347	18.7989	-26.6871	21.8174
 238	1	1	-0.071478	19.6611	-27.8135	21.9075
 239	1	1	-0.180016	20.6407	-27.8218	22.9409
 240	1	2	-0.370097	17.2132	-24.055	22.1662
 241	1	1	0.010306	18.9315	-25.6482	22.7433
 242	1	1	-0.071748	20.7672	-26.7518	23.8569
 243	1	2	-0.403598	20.4107	-24.1272	25.5321
 244	1	1	0.055994	19.8826	-25.6741	23.7409
 245	1	3	0.021521	18.1299	-24.4095	22.8881
 246	1	4	0.466017	18.6664	-23.7494	23.9926
 247	1	3	0.096621	19.7293	-24.4455	24.571
 248	1	1	-0.099438	23.0993	-29.7092	19.8556
 249	1	5	-0.089685	19.4367	-29.0821	21.028
 250	1	1	-0.037281	20.79	-29.8174	20.7571
 251	1	1	-0.08188	21.8967	-29.0794	20.2487
 252	1	1	-0.106561	23.1895	-31.1007	19.9843
 253	1	1	-0.037628	20.9361	-31.2266	20.8835
 254	1	1	-0.12234	22.1394	-31.8296	20.4981
 255	1	5	0.388954	18.8409	-28.7465	19.6035
 256	1	5	0.307788	18.4017	-29.9639	21.8272
 257	1	6	-0.129718	19.495	-27.7152	19.0226
 258	1	6	-0.129089	17.5299	-28.4171	19.6215
 259	1	6	-0.119089	18.9498	-29.7965	18.7571
 260	1	6	-0.103894	17.3208	-29.2524	22.2222
 261	1	6	-0.097852	18.9495	-30.4603	22.96
 262	1	6	-0.104555	17.9243	-31.005	21.1081
 263	1	3	0.521254	22.5182	-33.267	20.4814
 264	1	3	0.53569	24.2752	-32.0541	19.6065
 265	1	4	0.027822	23.7957	-33.3254	19.9271
 266	1	2	-0.468874	21.8189	-34.1936	20.8537
 267	1	2	-0.477974	25.3489	-31.7591	19.1098
 268	1	1	-0.359831	24.4996	-34.5619	19.7058
 269	1	1	0.131035	24.1351	-35.3907	18.6149
 270	1	1	-0.120983	24.7262	-36.6715	18.4768
 271	1	1	0.127261	25.4864	-34.9858	20.6292
 272	1	1	-0.127195	26.0839	-36.2611	20.4869
 273	1	1	0.144798	25.6772	-37.1094	19.4287
 274	1	5	-0.020676	25.8902	-34.1058	21.8203
 275	1	5	-0.019785	23.0765	-34.9359	17.6011
 276	1	7	0.164889	17.9988	-26.6158	21.089
 277	1	7	0.175264	21.2891	-28.6861	23.0664
 278	1	7	0.1582	21.5055	-26.7713	24.6556
 279	1	7	0.150763	23.9256	-29.1371	19.4378
 280	1	7	0.144868	21.8122	-28.0027	20.124
 281	1	7	0.134072	20.1403	-31.8725	21.237
 282	1	5	-0.300668	24.3119	-37.6356	17.3488
 283	1	5	-0.243237	27.1229	-36.732	21.5191
 284	1	9	0.021835	25.3123	-33.1817	21.9149
 285	1	9	0.012312	26.9438	-33.8099	21.7441
 286	1	9	0.041777	25.7602	-34.6461	22.7657
 287	1	9	0.110598	26.6481	-36.9366	22.4878
 288	1	9	0.08293	27.6645	-37.6385	21.2282
 289	1	9	0.082252	27.8953	-35.9693	21.6805
 290	1	9	0.027698	22.6816	-33.931	17.778
 291	1	9	0.017051	22.2174	-35.6186	17.6048
 292	1	9	0.037874	23.4942	-34.9199	16.5872
 293	1	9	0.095908	23.681	-38.4448	17.7412
 294	1	9	0.127068	23.7478	-37.1622	16.5388
 295	1	9	0.099095	25.1868	-38.092	16.8674
 296	1	1	-0.024347	13.9031	-10.9725	22.09
 297	1	1	-0.071478	14.591	-12.1986	22.2971
 298	1	1	-0.180016	16.0148	-12.1676	22.3269
 299	1	2	-0.370097	13.0033	-8.05909	21.5499
 300	1	1	0.010306	14.6382	-9.79255	21.9452
 301	1	1	-0.071748	16.7371	-10.9599	22.1984
 302	1	2	-0.403598	17.6393	-7.99108	21.7914
 303	1	1	0.055994	16.0156	-9.7777	22.0076
 304	1	3	0.021521	14.1634	-8.41426	21.6734
 305	1	4	0.466017	15.3181	-7.63767	21.6006
 306	1	3	0.096621	16.4826	-8.38002	21.7966
 307	1	1	-0.099438	15.7056	-15.0846	25.4097
 308	1	5	-0.089685	13.8313	-13.5601	22.3452
 309	1	1	-0.037281	14.598	-14.5815	23.2453
 310	1	1	-0.08188	15.0544	-14.1846	24.5352
 311	1	1	-0.106561	15.8832	-16.4067	24.9834
 312	1	1	-0.037628	14.7947	-15.9348	22.8618
 313	1	1	-0.12234	15.4347	-16.8093	23.7446
 314	1	5	0.388954	13.7039	-14.0282	20.8438
 315	1	5	0.307788	12.3919	-13.4355	22.9793
 316	1	6	-0.129718	12.8724	-15.0825	20.683
 317	1	6	-0.129089	14.9091	-14.3711	20.3336
 318	1	6	-0.119089	13.2267	-13.0485	20.0422
 319	1	6	-0.103894	11.4829	-12.8567	22.1635
 320	1	6	-0.097852	12.4165	-12.7108	24.1208
 321	1	6	-0.104555	11.8835	-14.6466	23.3039
 322	1	3	0.521254	15.7938	-18.2354	23.5574
 323	1	3	0.53569	16.5536	-17.5731	25.6346
 324	1	4	0.027822	16.4848	-18.6126	24.7048
 325	1	2	-0.468874	15.5892	-18.8962	22.5534
 326	1	2	-0.477974	17.1228	-17.5639	26.7127
 327	1	1	-0.359831	17.1378	-19.8894	24.8006
 328	1	1	0.131035	18.4275	-20.0238	24.2373
 329	1	1	-0.120983	18.953	-21.3129	23.9849
 330	1	1	0.127261	16.426	-21.0259	25.2517
 331	1	1	-0.127195	16.9888	-22.3146	25.0804
 332	1	1	0.144798	18.2201	-22.4542	24.3927
 333	1	5	-0.020676	15.029	-20.8833	25.8694
 334	1	5	-0.019785	19.21	-18.7719	23.8213
 335	1	7	0.164889	12.8245	-10.9122	21.998
 336	1	7	0.175264	16.5773	-13.0932	22.4254
 337	1	7	0.1582	17.8247	-10.9419	22.2166
 338	1	7	0.150763	16.0605	-14.7648	26.3877
 339	1	7	0.144868	14.9019	-13.1602	24.8662
 340	1	7	0.134072	14.4687	-16.3324	21.9073
 341	1	5	-0.300668	20.2845	-21.4762	23.2282
 342	1	5	-0.243237	16.2303	-23.5693	25.5441
 343	1	9	0.021835	14.6336	-19.8626	25.848
 344	1	9	0.012312	15.0361	-21.1918	26.9222
 345	1	9	0.041777	14.3027	-21.5114	25.3387
 346	1	9	0.110598	15.602	-23.384	26.4234
 347	1	9	0.08293	15.5796	-23.95	24.7454
 348	1	9	0.082252	16.9077	-24.3799	25.8399
 349	1	9	0.027698	18.9956	-18.5056	22.779
 350	1	9	0.017051	20.2924	-18.9095	23.9252
 351	1	9	0.037874	18.9738	-17.9041	24.4464
 352	1	9	0.095908	21.1283	-21.5041	23.9307
 353	1	9	0.127068	20.3309	-22.384	22.6161
 354	1	9	0.099095	20.4655	-20.6597	22.5194
 355	1	1	-0.024347	12.7997	2.45593	16.7625
 356	1	1	-0.071478	12.04	3.11006	17.7675
 357	1	1	-0.180016	10.7272	3.55339	17.4369
 358	1	2	-0.370097	14.0721	1.47851	14.13
 359	1	1	0.010306	12.2559	2.30773	15.4822
 360	1	1	-0.071748	10.204	3.40709	16.1347
 361	1	2	-0.403598	9.90712	3.23707	13.0586
 362	1	1	0.055994	11.0059	2.79911	15.1662
 363	1	3	0.021521	12.938	1.91929	14.2239
 364	1	4	0.466017	12.0767	2.33113	13.2042
 365	1	3	0.096621	10.852	2.78909	13.6881
 366	1	1	-0.099438	15.8866	1.42722	20.2107
 367	1	5	-0.089685	12.7301	3.48937	19.1103
 368	1	1	-0.037281	13.6782	2.3227	19.5288
 369	1	1	-0.08188	15.0628	2.5032	19.8233
 370	1	1	-0.106561	15.3056	0.162699	20.3276
 371	1	1	-0.037628	13.1367	1.01616	19.6499
 372	1	1	-0.12234	13.9666	-0.0328752	20.065
 373	1	5	0.388954	11.7191	3.70108	20.3065
 374	1	5	0.307788	13.4859	4.84851	18.8365
 375	1	6	-0.129718	10.7974	2.71466	20.3721
 376	1	6	-0.129089	11.0306	4.86313	20.2449
 377	1	6	-0.119089	12.3614	3.70737	21.4969
 378	1	6	-0.103894	12.6655	5.79656	18.3286
 379	1	6	-0.097852	14.4718	4.70188	17.9215
 380	1	6	-0.104555	14.0397	5.37529	19.9525
 381	1	3	0.521254	13.6575	-1.46945	20.2934
 382	1	3	0.53569	15.9056	-1.14319	20.7123
 383	1	4	0.027822	14.8629	-2.0649	20.6651
 384	1	2	-0.468874	12.57	-1.99885	20.142
 385	1	2	-0.477974	17.0753	-1.34255	20.9937
 386	1	1	-0.359831	15.0235	-3.46942	20.9138
 387	1	1	0.131035	14.9919	-3.964	22.2404
 388	1	1	-0.120983	15.11	-5.35706	22.4691
 389	1	1	0.127261	15.2195	-4.34356	19.8185
 390	1	1	-0.127195	15.3738	-5.73048	20.0487
 391	1	1	0.144798	15.2866	-6.23162	21.3699
 392	1	5	-0.020676	15.2836	-3.80127	18.3823
 393	1	5	-0.019785	14.8086	-3.01113	23.429
 394	1	7	0.164889	13.833	2.16141	16.9291
 395	1	7	0.175264	10.1211	4.09251	18.158
 396	1	7	0.1582	9.24085	3.83228	15.8601
 397	1	7	0.150763	16.9441	1.57328	20.4233
 398	1	7	0.144868	15.5346	3.47649	19.7608
 399	1	7	0.134072	12.0906	0.813665	19.4324
 400	1	5	-0.300668	15.0671	-5.94796	23.8915
 401	1	5	-0.243237	15.604	-6.68822	18.8672
 402	1	9	0.021835	14.8517	-2.80317	18.2615
 403	1	9	0.012312	14.7318	-4.44323	17.6854
 404	1	9	0.041777	16.3241	-3.7458	18.0396
 405	1	9	0.110598	16.2391	-6.23985	18.093
 406	1	9	0.08293	16.1173	-7.61355	19.1508
 407	1	9	0.082252	14.6508	-6.96563	18.3984
 408	1	9	0.027698	14.8593	-1.9499	23.1678
 409	1	9	0.017051	15.5883	-3.17348	24.1835
 410	1	9	0.037874	13.8345	-3.174	23.9065
 411	1	9	0.095908	16.0664	-6.28236	24.2018
 412	1	9	0.127068	14.714	-5.24818	24.6559
 413	1	9	0.099095	14.3879	-6.80718	23.9577
 414	1	1	-0.024347	15.4534	4.84874	0.805129
 415	1	1	-0.071478	16.468	5.4424	1.60516
 416	1	1	-0.180016	17.8234	5.21678	1.2077
 417	1	2	-0.370097	13.7311	3.55446	-1.40354
 418	1	1	0.010306	15.8097	4.09519	-0.315079
 419	1	1	-0.071748	18.1594	4.39239	0.112297
 420	1	2	-0.403598	18.1532	2.46375	-2.33874
 421	1	1	0.055994	17.1222	3.83015	-0.630294
 422	1	3	0.021521	14.946	3.46659	-1.33903
 423	1	4	0.466017	15.8216	2.81	-2.20672
 424	1	3	0.096621	17.1573	2.94835	-1.82557
 425	1	1	-0.099438	16.1714	2.99214	5.05736
 426	1	5	-0.089685	16.0738	6.2304	2.90702
 427	1	1	-0.037281	15.7107	5.18653	4.00122
 428	1	1	-0.08188	16.3946	3.93635	4.03762
 429	1	1	-0.106561	15.2475	3.31318	6.05269
 430	1	1	-0.037628	14.7895	5.47612	5.0429
 431	1	1	-0.12234	14.5741	4.51695	6.04226
 432	1	5	0.388954	14.8674	7.20751	2.56023
 433	1	5	0.307788	17.2635	7.09016	3.4921
 434	1	6	-0.129718	15.055	7.81121	1.36475
 435	1	6	-0.129089	14.6664	8.20479	3.44916
 436	1	6	-0.119089	13.6807	6.56285	2.49647
 437	1	6	-0.103894	17.7354	7.97583	2.58597
 438	1	6	-0.097852	18.2995	6.32602	3.90668
 439	1	6	-0.104555	16.9225	7.78796	4.59865
 440	1	3	0.521254	13.7318	4.58014	7.26638
 441	1	3	0.53569	14.8701	2.56972	7.28295
 442	1	4	0.027822	13.9807	3.39727	7.96279
 443	1	2	-0.468874	13.0388	5.52273	7.60964
 444	1	2	-0.477974	15.3126	1.48809	7.63166
 445	1	1	-0.359831	13.4753	3.11635	9.27629
 446	1	1	0.131035	14.0059	3.82708	10.3755
 447	1	1	-0.120983	13.4753	3.61236	11.6663
 448	1	1	0.127261	12.4601	2.14902	9.46305
 449	1	1	-0.127195	12.0132	1.8441	10.772
 450	1	1	0.144798	12.5243	2.57861	11.8716
 451	1	5	-0.020676	11.8459	1.42221	8.25954
 452	1	5	-0.019785	15.1466	4.83509	10.1737
 453	1	7	0.164889	14.3971	4.94659	1.02287
 454	1	7	0.175264	18.6558	5.65279	1.7448
 455	1	7	0.1582	19.195	4.2054	-0.163817
 456	1	7	0.150763	16.7223	2.0542	5.09148
 457	1	7	0.144868	17.1441	3.69359	3.29177
 458	1	7	0.134072	14.2703	6.42768	5.10972
 459	1	5	-0.300668	13.9303	4.50718	12.8361
 460	1	5	-0.243237	10.9501	0.753229	10.9763
 461	1	9	0.021835	10.7548	1.35674	8.34808
 462	1	9	0.012312	12.2404	0.402067	8.17616
 463	1	9	0.041777	12.0335	1.92601	7.30547
 464	1	9	0.110598	10.8709	0.398055	12.0096
 465	1	9	0.08293	9.9579	1.12235	10.6833
 466	1	9	0.082252	11.1664	-0.136112	10.3705
 467	1	9	0.027698	14.7513	5.85013	10.0443
 468	1	9	0.017051	15.7725	4.60532	9.30408
 469	1	9	0.037874	15.8357	4.84479	11.0264
 470	1	9	0.095908	14.8115	4.08352	13.3367
 471	1	9	0.127068	14.1876	5.52176	12.5083
 472	1	9	0.099095	13.1506	4.65336	13.5928
 473	1	1	-0.024347	5.80491	-1.02669	-10.505
 474	1	1	-0.071478	7.13085	-0.607418	-10.2274
 475	1	1	-0.180016	7.84885	0.0659955	-11.258
 476	1	2	-0.370097	2.90119	-1.23741	-11.4617
 477	1	1	0.010306	5.23802	-0.723186	-11.741
 478	1	1	-0.071748	7.2677	0.321956	-12.5215
 479	1	2	-0.403598	5.26944	0.863044	-14.8612
 480	1	1	0.055994	5.94369	-0.0761155	-12.7323
 481	1	3	0.021521	3.81546	-0.793944	-12.1367
 482	1	4	0.466017	3.74824	-0.133672	-13.36
 483	1	3	0.096621	5.00093	0.260219	-13.8343
 484	1	1	-0.099438	11.5235	-1.31017	-9.22005
 485	1	5	-0.089685	7.68948	-0.731628	-8.78038
 486	1	1	-0.037281	9.23432	-0.467689	-8.74502
 487	1	1	-0.08188	10.1259	-1.34468	-9.43156
 488	1	1	-0.106561	12.0323	-0.350606	-8.33731
 489	1	1	-0.037628	9.81238	0.544829	-7.93437
 490	1	1	-0.12234	11.1945	0.574719	-7.75708
 491	1	5	0.388954	7.47027	-2.18783	-8.19842
 492	1	5	0.307788	6.88427	0.299711	-7.88622
 493	1	6	-0.129718	7.78972	-3.14323	-9.09993
 494	1	6	-0.129089	6.20118	-2.45415	-7.82061
 495	1	6	-0.119089	8.23791	-2.40567	-7.10576
 496	1	6	-0.103894	7.07168	1.56945	-8.31444
 497	1	6	-0.097852	7.23049	0.23431	-6.57984
 498	1	6	-0.104555	5.54507	0.121414	-7.91119
 499	1	3	0.521254	11.9686	1.36966	-6.78114
 500	1	3	0.53569	13.3819	-0.20435	-7.71224
 501	1	4	0.027822	13.2335	0.79535	-6.74887
 502	1	2	-0.468874	11.5121	2.22534	-6.04208
 503	1	2	-0.477974	14.3398	-0.936575	-7.89298
 504	1	1	-0.359831	14.1368	1.08481	-5.67361
 505	1	1	0.131035	13.8757	0.502507	-4.41145
 506	1	1	-0.120983	14.5191	1.00868	-3.25916
 507	1	1	0.127261	15.095	2.11005	-5.81668
 508	1	1	-0.127195	15.688	2.67022	-4.65992
 509	1	1	0.144798	15.3737	2.13472	-3.38212
 510	1	5	-0.020676	15.4233	2.66411	-7.20706
 511	1	5	-0.019785	12.8077	-0.595915	-4.28312
 512	1	7	0.164889	5.1666	-1.48107	-9.75444
 513	1	7	0.175264	8.84612	0.45612	-11.0731
 514	1	7	0.1582	7.79653	0.888089	-13.2852
 515	1	7	0.150763	12.1801	-2.05115	-9.67219
 516	1	7	0.144868	9.7303	-2.11352	-10.0886
 517	1	7	0.134072	9.23355	1.25684	-7.35869
 518	1	5	-0.300668	14.1935	0.398284	-1.88284
 519	1	5	-0.243237	16.614	3.89603	-4.77384
 520	1	9	0.021835	14.961	3.64714	-7.35845
 521	1	9	0.012312	15.09	2.0128	-8.02225
 522	1	9	0.041777	16.5074	2.77136	-7.33733
 523	1	9	0.110598	17.6669	3.60254	-4.66459
 524	1	9	0.08293	16.5293	4.42711	-5.72731
 525	1	9	0.082252	16.3936	4.65114	-4.00939
 526	1	9	0.027698	11.8261	-0.154589	-4.06907
 527	1	9	0.017051	13.027	-1.31863	-3.49151
 528	1	9	0.037874	12.7116	-1.1954	-5.19491
 529	1	9	0.095908	13.1433	0.584491	-1.61798
 530	1	9	0.127068	14.3555	-0.686448	-1.87641
 531	1	9	0.099095	14.8023	0.784086	-1.05894
 532	1	1	-0.024347	-8.0988	4.32999	-14.9432
 533	1	1	-0.071478	-7.42669	5.07284	-13.9372
 534	1	1	-0.180016	-7.63733	6.48339	-13.8913
 535	1	2	-0.370097	-9.86892	3.28804	-17.2652
 536	1	1	0.010306	-8.90301	5.00306	-15.8641
 537	1	1	-0.071748	-8.44989	7.14242	-14.8363
 538	1	2	-0.403598	-10.3784	7.90368	-17.1533
 539	1	1	0.055994	-9.06183	6.37215	-15.8252
 540	1	3	0.021521	-9.73565	4.46212	-16.9636
 541	1	4	0.466017	-10.373	5.57421	-17.507
 542	1	3	0.096621	-9.9917	6.77269	-16.9082
 543	1	1	-0.099438	-3.97315	3.66114	-15.9327
 544	1	5	-0.089685	-6.43576	4.31869	-12.9972
 545	1	1	-0.037281	-5.38551	3.60386	-13.8969
 546	1	1	-0.08188	-5.01931	4.17945	-15.1493
 547	1	1	-0.106561	-3.26749	2.56566	-15.4358
 548	1	1	-0.037628	-4.65079	2.4796	-13.4382
 549	1	1	-0.12234	-3.59807	1.99217	-14.2246
 550	1	5	0.388954	-7.28862	3.32193	-12.1146
 551	1	5	0.307788	-5.61745	5.27823	-12.0499
 552	1	6	-0.129718	-7.73333	2.2655	-12.8301
 553	1	6	-0.129089	-8.38121	3.93412	-11.604
 554	1	6	-0.119089	-6.62011	2.80535	-11.06
 555	1	6	-0.103894	-4.68131	4.62089	-11.3289
 556	1	6	-0.097852	-6.40298	5.92726	-11.1605
 557	1	6	-0.104555	-4.93304	6.20849	-12.7549
 558	1	3	0.521254	-2.50641	1.05631	-13.8497
 559	1	3	0.53569	-1.95764	2.02291	-15.8784
 560	1	4	0.027822	-1.52746	1.21543	-14.8303
 561	1	2	-0.468874	-2.40824	0.473634	-12.7835
 562	1	2	-0.477974	-1.30952	2.42146	-16.8315
 563	1	1	-0.359831	-0.147955	0.899176	-14.6051
 564	1	1	0.131035	0.359172	-0.377343	-14.9297
 565	1	1	-0.120983	1.68978	-0.710397	-14.5792
 566	1	1	0.127261	0.674207	1.87822	-13.9984
 567	1	1	-0.127195	2.01014	1.5596	-13.6677
 568	1	1	0.144798	2.4985	0.251764	-13.9227
 569	1	5	-0.020676	0.126736	3.2804	-13.6747
 570	1	5	-0.019785	-0.557341	-1.40946	-15.5965
 571	1	7	0.164889	-7.98033	3.25412	-15.0402
 572	1	7	0.175264	-7.16952	7.1048	-13.1356
 573	1	7	0.1582	-8.60596	8.21875	-14.8019
 574	1	7	0.150763	-3.65752	4.15496	-16.8496
 575	1	7	0.144868	-5.49889	5.08648	-15.5047
 576	1	7	0.134072	-4.8069	2.05127	-12.4529
 577	1	5	-0.300668	2.22309	-2.1228	-14.8739
 578	1	5	-0.243237	2.88519	2.61286	-12.9599
 579	1	9	0.021835	0.475466	3.64101	-12.7002
 580	1	9	0.012312	-0.964039	3.33719	-13.6187
 581	1	9	0.041777	0.449144	4.00035	-14.4373
 582	1	9	0.110598	2.69185	3.62609	-13.3333
 583	1	9	0.08293	2.6973	2.61417	-11.8782
 584	1	9	0.082252	3.95905	2.47488	-13.1093
 585	1	9	0.027698	-1.08035	-2.00691	-14.8396
 586	1	9	0.017051	-0.0109282	-2.09828	-16.2498
 587	1	9	0.037874	-1.31495	-0.939927	-16.2342
 588	1	9	0.095908	3.2282	-2.32092	-14.487
 589	1	9	0.127068	1.56831	-2.88769	-14.4352
 590	1	9	0.099095	2.27119	-2.30178	-15.9559
 591	1	1	-0.024347	-22.0788	7.58619	-20.9103
 592	1	1	-0.071478	-20.993	6.67022	-20.9553
 593	1	1	-0.180016	-20.2904	6.41799	-19.7402
 594	1	2	-0.370097	-24.5676	9.21265	-20.1006
 595	1	1	0.010306	-22.4214	8.18755	-19.6947
 596	1	1	-0.071748	-20.6242	7.07097	-18.5336
 597	1	2	-0.403598	-22.1434	8.47031	-16.2139
 598	1	1	0.055994	-21.7081	7.9523	-18.5377
 599	1	3	0.021521	-23.6631	8.9169	-19.3377
 600	1	4	0.466017	-23.6348	9.02732	-17.9481
 601	1	3	0.096621	-22.4489	8.54807	-17.393
 602	1	1	-0.099438	-17.614	3.41493	-22.3707
 603	1	5	-0.089685	-20.7071	5.82971	-22.2428
 604	1	1	-0.037281	-19.2441	5.27721	-22.2229
 605	1	1	-0.08188	-18.9259	3.91078	-22.4864
 606	1	1	-0.106561	-16.6066	4.30719	-22.0054
 607	1	1	-0.037628	-18.174	6.15984	-21.9181
 608	1	1	-0.12234	-16.8763	5.64414	-21.8001
 609	1	5	0.388954	-20.8301	6.69122	-23.5579
 610	1	5	0.307788	-21.7907	4.6812	-22.2579
 611	1	6	-0.129718	-20.2662	6.06422	-24.6157
 612	1	6	-0.129089	-20.1985	7.87918	-23.4276
 613	1	6	-0.119089	-22.1035	6.96294	-23.9195
 614	1	6	-0.103894	-21.597	3.81513	-21.2364
 615	1	6	-0.097852	-21.7972	3.97414	-23.4108
 616	1	6	-0.104555	-23.0515	5.14513	-22.1063
 617	1	3	0.521254	-15.6491	6.28076	-21.2547
 618	1	3	0.53569	-15.2069	4.03344	-21.5913
 619	1	4	0.027822	-14.7378	5.23935	-21.0797
 620	1	2	-0.468874	-15.5714	7.42056	-20.8294
 621	1	2	-0.477974	-14.6924	2.93119	-21.5043
 622	1	1	-0.359831	-13.6091	5.32032	-20.202
 623	1	1	0.131035	-13.8494	5.28111	-18.8079
 624	1	1	-0.120983	-12.7661	5.38126	-17.9103
 625	1	1	0.127261	-12.2936	5.39474	-20.7162
 626	1	1	-0.127195	-11.201	5.45481	-19.8171
 627	1	1	0.144798	-11.4508	5.47546	-18.4241
 628	1	5	-0.020676	-12.048	5.39228	-22.2296
 629	1	5	-0.019785	-15.2803	5.14537	-18.2606
 630	1	7	0.164889	-22.7286	7.75752	-21.7618
 631	1	7	0.175264	-19.5075	5.66516	-19.702
 632	1	7	0.1582	-20.1169	6.83313	-17.601
 633	1	7	0.150763	-17.3969	2.35646	-22.5032
 634	1	7	0.144868	-19.6879	3.18691	-22.7447
 635	1	7	0.134072	-18.3563	7.20826	-21.6909
 636	1	5	-0.300668	-13.027	5.35111	-16.3911
 637	1	5	-0.243237	-9.74777	5.50939	-20.3194
 638	1	9	0.021835	-11.3501	6.18745	-22.5187
 639	1	9	0.012312	-12.9532	5.55452	-22.8243
 640	1	9	0.041777	-11.62	4.43303	-22.5472
 641	1	9	0.110598	-9.09095	4.84588	-19.742
 642	1	9	0.08293	-9.63298	5.18615	-21.3598
 643	1	9	0.082252	-9.34692	6.52906	-20.2477
 644	1	9	0.027698	-15.7057	6.13425	-18.0485
 645	1	9	0.017051	-15.3189	4.55671	-17.3374
 646	1	9	0.037874	-15.9605	4.63096	-18.9466
 647	1	9	0.095908	-13.905	5.95176	-16.1222