pySIMM System Object

1418 atoms
1537 bonds
2736 angles
3980 dihedrals
384 impropers

9 atom types
11 bond types
18 angle types
7 dihedral types
4 improper types

-176.172175 176.172175 xlo xhi
-176.172175 176.172175 ylo yhi
-176.172175 176.172175 zlo zhi

Masses

   1	12.01	# ca
   2	16.0	# o
   3	12.01	# c
   4	14.01	# n
   5	12.01	# c3
   6	19.0	# f
   7	1.008	# ha
   8	1.008	# hn
   9	1.008	# hc

Pair Coeffs

   1	0.086	3.3996695084235347	# ca
   2	0.21	2.959921901149463	# o
   3	0.086	3.3996695084235347	# c
   4	0.17	3.249998523775958	# n
   5	0.1094	3.3996695084235347	# c3
   6	0.061	3.1181455134911875	# f
   7	0.015	2.59964245953351	# ha
   8	0.0157	1.069078461768407	# hn
   9	0.0157	2.649532787749369	# hc

Bond Coeffs

   1	321.0	1.5156	# c3,ca
   2	300.9	1.5375	# c3,c3
   3	345.8	1.086	# ca,ha
   4	384.2	1.4121	# ca,n
   5	637.7	1.2183	# c,o
   6	330.6	1.0969	# c3,hc
   7	356.9	1.3497	# c3,f
   8	403.2	1.0129	# hn,n
   9	461.1	1.3984	# ca,ca
  10	427.6	1.3789	# c,n
  11	345.9	1.4906	# c,ca

Angle Coeffs

   1	70.89	107.36	# f,c3,f
   2	63.82	123.71	# c,n,ca
   3	68.72	122.6	# ca,c,o
   4	48.18	119.88	# ca,ca,ha
   5	67.87	120.19	# ca,ca,n
   6	67.68	115.25	# ca,c,n
   7	46.8	110.47	# ca,c3,hc
   8	48.33	117.55	# c,n,hn
   9	39.4	107.58	# hc,c3,hc
  10	74.22	123.05	# n,c,o
  11	62.86	111.51	# c3,c3,c3
  12	64.28	120.33	# c,ca,ca
  13	63.56	112.24	# ca,c3,ca
  14	63.15	112.07	# c3,c3,ca
  15	66.11	109.24	# c3,c3,f
  16	66.62	120.02	# ca,ca,ca
  17	63.74	127.08	# c,n,c
  18	63.53	120.77	# c3,ca,ca

Dihedral Coeffs

   1	2	2.5	2	180	2.0	1	0	# hn,n,c,o
   2	1	3.625	2	180	# X,ca,ca,X
   3	1	1.0	2	180	# X,c,ca,X
   4	1	0.0	2	0	# X,c3,ca,X
   5	1	0.15555555555555556	3	0	# X,c3,c3,X
   6	1	2.5	2	180	# X,c,n,X
   7	1	0.45	2	180	# X,ca,n,X

Improper Coeffs

   1	10.5	-1	2	# c,X,X,o
   2	1.1	-1	2	# n,X,X,hn
   3	1.1	-1	2	# ca,ca,ca,c3
   4	1.1	-1	2	# ca,X,X,ha

Atoms

   1	1	1	-0.024347	-29.6042	80.6404	29.0602
   2	1	1	-0.071478	-29.636	81.9734	29.547
   3	1	1	-0.180016	-30.8362	82.4297	30.1673
   4	1	2	-0.370097	-30.1082	77.6707	28.3692
   5	1	1	0.010306	-30.7566	79.8545	29.1585
   6	1	1	-0.071748	-31.9972	81.6304	30.2248
   7	1	2	-0.403598	-34.1012	79.3388	30.0675
   8	1	1	0.055994	-31.9302	80.3402	29.6956
   9	1	3	0.021521	-30.9551	78.4267	28.8163
  10	1	4	0.466017	-32.2758	78.1433	29.1695
  11	1	3	0.096621	-32.9472	79.2566	29.6775
  12	1	1	-0.099438	-30.3274	86.0777	28.4338
  13	1	5	-0.089685	-28.3749	82.889	29.4976
  14	1	1	-0.037281	-28.8358	84.3783	29.449
  15	1	1	-0.08188	-29.8216	84.7639	28.4951
  16	1	1	-0.106561	-29.8173	87.0154	29.3352
  17	1	1	-0.037628	-28.3201	85.3761	30.3189
  18	1	1	-0.12234	-28.8344	86.6743	30.2396
  19	1	5	0.388954	-27.4996	82.6607	28.2035
  20	1	5	0.307788	-27.5215	82.5388	30.7754
  21	1	6	-0.129718	-28.2639	82.5988	27.0898
  22	1	6	-0.129089	-26.7654	81.5265	28.231
  23	1	6	-0.119089	-26.6226	83.6732	28.0138
  24	1	6	-0.103894	-27.2863	81.2114	30.8844
  25	1	6	-0.097852	-28.1656	82.8915	31.9114
  26	1	6	-0.104555	-26.3105	83.1411	30.7811
  27	1	3	0.521254	-28.5141	87.8744	31.0544
  28	1	3	0.53569	-30.1703	88.4443	29.547
  29	1	4	0.027822	-29.3616	88.8789	30.594
  30	1	2	-0.468874	-27.7031	87.9283	31.963
  31	1	2	-0.477974	-31.0159	89.0736	28.9336
  32	1	1	-0.359831	-29.4035	90.2038	31.135
  33	1	1	0.131035	-28.7182	91.2487	30.4689
  34	1	1	-0.120983	-28.8152	92.5664	30.9662
  35	1	1	0.127261	-30.1562	90.46	32.3077
  36	1	1	-0.127195	-30.2441	91.7819	32.7959
  37	1	1	0.144798	-29.5736	92.8147	32.1215
  38	1	5	-0.020676	-30.9089	89.3375	33.0333
  39	1	5	-0.019785	-27.8954	90.9766	29.2039
  40	1	7	0.164889	-28.7086	80.1916	28.6435
  41	1	7	0.175264	-30.8791	83.417	30.6217
  42	1	7	0.1582	-32.9122	81.9858	30.6939
  43	1	7	0.150763	-31.1004	86.3547	27.7195
  44	1	7	0.144868	-30.2297	84.0246	27.8105
  45	1	7	0.134072	-27.5553	85.1758	31.0615
  46	1	5	-0.300668	-28.1296	93.7408	30.2676
  47	1	5	-0.243237	-31.0675	92.1278	34.0364
  48	1	9	0.021835	-30.8378	89.444	34.1222
  49	1	9	0.012312	-30.5261	88.3367	32.8082
  50	1	9	0.041777	-31.972	89.3507	32.7642
  51	1	9	0.110598	-32.0887	91.7326	33.9626
  52	1	9	0.08293	-30.6062	91.7155	34.9429
  53	1	9	0.082252	-31.1529	93.2126	34.1787
  54	1	9	0.027698	-28.4606	91.2595	28.3073
  55	1	9	0.017051	-27.6041	89.926	29.0935
  56	1	9	0.037874	-26.9591	91.5464	29.2042
  57	1	9	0.095908	-27.0374	93.6597	30.3366
  58	1	9	0.127068	-28.4033	93.7875	29.2056
  59	1	9	0.099095	-28.4129	94.7019	30.715
  60	1	1	-0.024347	-33.4332	64.2669	28.9249
  61	1	1	-0.071478	-33.6207	65.5431	29.5187
  62	1	1	-0.180016	-34.8001	65.7573	30.2886
  63	1	2	-0.370097	-33.5944	61.3532	27.9096
  64	1	1	0.010306	-34.4168	63.2911	29.0914
  65	1	1	-0.071748	-35.7911	64.7615	30.4274
  66	1	2	-0.403598	-37.5126	62.1592	30.2722
  67	1	1	0.055994	-35.5704	63.5289	29.8083
  68	1	3	0.021521	-34.452	61.9012	28.5822
  69	1	4	0.466017	-35.67	61.3884	29.0214
  70	1	3	0.096621	-36.4093	62.3027	29.7706
  71	1	1	-0.099438	-35.0185	69.3665	28.075
  72	1	5	-0.089685	-32.5443	66.6671	29.4316
  73	1	1	-0.037281	-33.232	68.0411	29.1741
  74	1	1	-0.08188	-34.4053	68.1284	28.3693
  75	1	1	-0.106561	-34.4167	70.531	28.5653
  76	1	1	-0.037628	-32.6477	69.2497	29.6301
  77	1	1	-0.12234	-33.2552	70.4639	29.3029
  78	1	5	0.388954	-31.53	66.4692	28.2408
  79	1	5	0.307788	-31.767	66.6172	30.8041
  80	1	6	-0.129718	-32.1827	66.256	27.0753
  81	1	6	-0.129089	-30.6799	65.4351	28.4308
  82	1	6	-0.119089	-30.7552	67.5602	28.0429
  83	1	6	-0.103894	-30.5897	67.2811	30.7901
  84	1	6	-0.097852	-31.4724	65.3467	31.1642
  85	1	6	-0.104555	-32.5069	67.1384	31.8092
  86	1	3	0.521254	-32.7959	71.8441	29.5787
  87	1	3	0.53569	-34.7619	71.9705	28.3744
  88	1	4	0.027822	-33.7345	72.6887	28.9899
  89	1	2	-0.468874	-31.7778	72.1472	30.1782
  90	1	2	-0.477974	-35.7221	72.4022	27.7587
  91	1	1	-0.359831	-33.5838	74.1187	28.9963
  92	1	1	0.131035	-33.274	74.8078	27.7996
  93	1	1	-0.120983	-32.9723	76.1896	27.848
  94	1	1	0.127261	-33.5945	74.8	30.2351
  95	1	1	-0.127195	-33.1314	76.1333	30.3035
  96	1	1	0.144798	-32.8246	76.8269	29.1054
  97	1	5	-0.020676	-34.0529	74.0783	31.5087
  98	1	5	-0.019785	-33.227	74.0608	26.4594
  99	1	7	0.164889	-32.553	64.0	28.3514
 100	1	7	0.175264	-34.9532	66.7111	30.7893
 101	1	7	0.1582	-36.6965	64.9327	31.006
 102	1	7	0.150763	-35.9124	69.4218	27.4567
 103	1	7	0.144868	-34.8447	67.2267	27.95
 104	1	7	0.134072	-31.7194	69.2742	30.1905
 105	1	5	-0.300668	-32.7358	76.9774	26.5483
 106	1	5	-0.243237	-32.9317	76.8027	31.6752
 107	1	9	0.021835	-34.7427	73.2526	31.297
 108	1	9	0.012312	-34.5992	74.7526	32.1796
 109	1	9	0.041777	-33.1969	73.6708	32.0605
 110	1	9	0.110598	-33.8481	77.3159	31.9976
 111	1	9	0.08293	-32.6638	76.0799	32.4552
 112	1	9	0.082252	-32.1162	77.5352	31.6812
 113	1	9	0.027698	-34.2019	74.101	25.9578
 114	1	9	0.017051	-32.9491	73.0068	26.5695
 115	1	9	0.037874	-32.4796	74.4825	25.7778
 116	1	9	0.095908	-32.9486	78.0479	26.6545
 117	1	9	0.127068	-31.6953	76.8749	26.2092
 118	1	9	0.099095	-33.3892	76.6324	25.7371
 119	1	1	-0.024347	-39.3344	48.9828	23.9251
 120	1	1	-0.071478	-38.7276	49.6947	24.9949
 121	1	1	-0.180016	-39.2069	49.4622	26.3154
 122	1	2	-0.370097	-41.0988	47.2292	22.0723
 123	1	1	0.010306	-40.3877	48.1078	24.208
 124	1	1	-0.071748	-40.2585	48.561	26.5795
 125	1	2	-0.403598	-42.5776	46.4907	26.4128
 126	1	1	0.055994	-40.8336	47.8946	25.4962
 127	1	3	0.021521	-41.2066	47.2834	23.2857
 128	1	4	0.466017	-42.1048	46.6048	24.1076
 129	1	3	0.096621	-41.945	46.9113	25.4577
 130	1	1	-0.099438	-39.6424	53.7271	26.0709
 131	1	5	-0.089685	-37.5618	50.7082	24.7894
 132	1	1	-0.037281	-37.9256	52.0236	25.5354
 133	1	1	-0.08188	-39.2682	52.4978	25.4941
 134	1	1	-0.106561	-38.6457	54.4905	26.6836
 135	1	1	-0.037628	-36.9459	52.8331	26.1678
 136	1	1	-0.12234	-37.3382	54.0537	26.7302
 137	1	5	0.388954	-37.3326	51.1166	23.2834
 138	1	5	0.307788	-36.2586	50.0085	25.3407
 139	1	6	-0.129718	-38.4783	51.5387	22.7012
 140	1	6	-0.129089	-36.845	50.1045	22.5309
 141	1	6	-0.119089	-36.46	52.1435	23.1648
 142	1	6	-0.103894	-36.1515	48.7391	24.8856
 143	1	6	-0.097852	-36.2604	49.9311	26.6906
 144	1	6	-0.104555	-35.114	50.6347	24.9872
 145	1	3	0.521254	-36.5111	55.1334	27.3294
 146	1	3	0.53569	-38.7015	55.8641	27.2498
 147	1	4	0.027822	-37.3858	56.1902	27.5721
 148	1	2	-0.468874	-35.3032	55.1025	27.4901
 149	1	2	-0.477974	-39.6889	56.5781	27.3005
 150	1	1	-0.359831	-36.9632	57.5047	27.9602
 151	1	1	0.131035	-36.9211	58.5243	26.9809
 152	1	1	-0.120983	-36.5668	59.8388	27.357
 153	1	1	0.127261	-36.581	57.7653	29.2959
 154	1	1	-0.127195	-36.1009	59.0497	29.6443
 155	1	1	0.144798	-36.1264	60.0857	28.6792
 156	1	5	-0.020676	-36.6661	56.658	30.353
 157	1	5	-0.019785	-37.2551	58.2102	25.5159
 158	1	7	0.164889	-39.0257	49.0889	22.8905
 159	1	7	0.175264	-38.7611	49.9921	27.1545
 160	1	7	0.1582	-40.6215	48.3869	27.5902
 161	1	7	0.150763	-40.6641	54.0961	26.0041
 162	1	7	0.144868	-40.0327	51.9238	24.9771
 163	1	7	0.134072	-35.8944	52.566	26.1897
 164	1	5	-0.300668	-36.6297	60.9845	26.3307
 165	1	5	-0.243237	-35.5646	59.3257	31.0589
 166	1	9	0.021835	-36.9513	57.0548	31.3346
 167	1	9	0.012312	-35.7018	56.1459	30.4606
 168	1	9	0.041777	-37.4215	55.9017	30.1132
 169	1	9	0.110598	-35.0848	58.4424	31.4987
 170	1	9	0.08293	-34.7951	60.1068	31.0793
 171	1	9	0.082252	-36.3755	59.6374	31.7305
 172	1	9	0.027698	-38.3146	58.4022	25.3067
 173	1	9	0.017051	-37.0421	57.17	25.2444
 174	1	9	0.037874	-36.6569	58.8134	24.8231
 175	1	9	0.095908	-35.6939	61.0484	25.7589
 176	1	9	0.127068	-37.4515	60.8516	25.6159
 177	1	9	0.099095	-36.8095	61.9644	26.7882
 178	1	1	-0.024347	-48.7124	36.9632	20.15
 179	1	1	-0.071478	-49.7938	37.6404	19.5282
 180	1	1	-0.180016	-51.0364	36.9522	19.4057
 181	1	2	-0.370097	-46.7704	34.9644	21.5174
 182	1	1	0.010306	-48.9036	35.6614	20.6222
 183	1	1	-0.071748	-51.2084	35.6405	19.8956
 184	1	2	-0.403598	-50.859	32.7956	21.1121
 185	1	1	0.055994	-50.1169	35.0164	20.5016
 186	1	3	0.021521	-47.9407	34.7332	21.2632
 187	1	4	0.466017	-48.6603	33.559	21.4804
 188	1	3	0.096621	-49.9866	33.6477	21.062
 189	1	1	-0.099438	-48.7534	40.5677	22.4644
 190	1	5	-0.089685	-49.5543	39.0762	18.9706
 191	1	1	-0.037281	-48.8518	39.9146	20.0776
 192	1	1	-0.08188	-49.3204	39.8133	21.4184
 193	1	1	-0.106561	-47.709	41.44	22.148
 194	1	1	-0.037628	-47.7976	40.8259	19.8
 195	1	1	-0.12234	-47.247	41.565	20.8545
 196	1	5	0.388954	-50.88	39.8518	18.6137
 197	1	5	0.307788	-48.6876	38.9043	17.6625
 198	1	6	-0.129718	-51.7632	39.8351	19.6382
 199	1	6	-0.129089	-51.5143	39.3503	17.5298
 200	1	6	-0.119089	-50.6415	41.1572	18.3519
 201	1	6	-0.103894	-49.2062	37.9589	16.8459
 202	1	6	-0.097852	-47.4246	38.5092	17.9412
 203	1	6	-0.104555	-48.5936	40.0341	16.9259
 204	1	3	0.521254	-46.1421	42.5616	20.8522
 205	1	3	0.53569	-46.9185	42.3506	23.0173
 206	1	4	0.027822	-45.9995	42.9725	22.176
 207	1	2	-0.468874	-45.4962	42.9145	19.8805
 208	1	2	-0.477974	-47.055	42.4934	24.2206
 209	1	1	-0.359831	-45.0079	43.9023	22.6352
 210	1	1	0.131035	-45.3554	45.2575	22.8367
 211	1	1	-0.120983	-44.3947	46.1535	23.363
 212	1	1	0.127261	-43.7015	43.4375	22.9088
 213	1	1	-0.127195	-42.7211	44.3415	23.3807
 214	1	1	0.144798	-43.0797	45.6919	23.6182
 215	1	5	-0.020676	-43.36	41.9601	22.6654
 216	1	5	-0.019785	-46.7669	45.7529	22.4963
 217	1	7	0.164889	-47.7345	37.4265	20.2575
 218	1	7	0.175264	-51.8903	37.4105	18.9186
 219	1	7	0.1582	-52.1552	35.1142	19.794
 220	1	7	0.150763	-49.116	40.4817	23.4869
 221	1	7	0.144868	-50.1435	39.1442	21.6566
 222	1	7	0.134072	-47.4023	40.9782	18.801
 223	1	5	-0.300668	-44.7603	47.6243	23.6374
 224	1	5	-0.243237	-41.2881	43.8454	23.6414
 225	1	9	0.021835	-42.4959	41.613	23.2409
 226	1	9	0.012312	-43.1446	41.7842	21.604
 227	1	9	0.041777	-44.1829	41.2963	22.9539
 228	1	9	0.110598	-40.9037	43.2883	22.7767
 229	1	9	0.08293	-40.5567	44.638	23.8289
 230	1	9	0.082252	-41.2606	43.1764	24.5116
 231	1	9	0.027698	-47.3798	45.8293	23.4029
 232	1	9	0.017051	-47.2982	45.1032	21.7924
 233	1	9	0.037874	-46.7405	46.7393	22.0183
 234	1	9	0.095908	-44.5137	48.2568	22.7743
 235	1	9	0.127068	-45.8257	47.7617	23.8571
 236	1	9	0.099095	-44.2458	48.0352	24.5137
 237	1	1	-0.024347	-42.9673	21.658	25.5641
 238	1	1	-0.071478	-44.0259	22.5455	25.2353
 239	1	1	-0.180016	-44.5461	22.5135	23.9096
 240	1	2	-0.370097	-40.6197	19.6334	25.5824
 241	1	1	0.010306	-42.464	20.8154	24.5669
 242	1	1	-0.071748	-44.0378	21.6412	22.9278
 243	1	2	-0.403598	-42.4177	19.5493	21.2984
 244	1	1	0.055994	-42.9862	20.7999	23.2892
 245	1	3	0.021521	-41.3329	19.8581	24.619
 246	1	4	0.466017	-41.2588	19.3143	23.3367
 247	1	3	0.096621	-42.2287	19.8193	22.4738
 248	1	1	-0.099438	-43.418	26.5792	24.1153
 249	1	5	-0.089685	-44.6252	23.5703	26.2417
 250	1	1	-0.037281	-44.6519	24.9406	25.5048
 251	1	1	-0.08188	-43.4692	25.3734	24.8392
 252	1	1	-0.106561	-44.5792	27.3519	24.057
 253	1	1	-0.037628	-45.8043	25.768	25.4353
 254	1	1	-0.12234	-45.737	26.9552	24.6939
 255	1	5	0.388954	-43.7651	23.7731	27.5513
 256	1	5	0.307788	-46.0497	23.0262	26.6517
 257	1	6	-0.129718	-42.4668	24.0348	27.2791
 258	1	6	-0.129089	-43.7801	22.6973	28.37
 259	1	6	-0.119089	-44.2088	24.8235	28.2785
 260	1	6	-0.103894	-45.9843	21.748	27.089
 261	1	6	-0.097852	-46.9162	23.015	25.6137
 262	1	6	-0.104555	-46.63	23.7458	27.6382
 263	1	3	0.521254	-46.788	27.9685	24.4093
 264	1	3	0.53569	-44.8429	28.6357	23.3568
 265	1	4	0.027822	-46.1805	28.9322	23.6066
 266	1	2	-0.468874	-47.9455	27.9268	24.7891
 267	1	2	-0.477974	-44.0434	29.2618	22.6814
 268	1	1	-0.359831	-46.8509	30.086	23.0799
 269	1	1	0.131035	-47.1443	31.175	23.9327
 270	1	1	-0.120983	-47.8187	32.305	23.4144
 271	1	1	0.127261	-47.1878	30.128	21.7074
 272	1	1	-0.127195	-47.7506	31.3051	21.1638
 273	1	1	0.144798	-48.0811	32.3793	22.0252
 274	1	5	-0.020676	-46.9316	28.9122	20.8074
 275	1	5	-0.019785	-46.7349	31.13	25.4106
 276	1	7	0.164889	-42.5147	21.6158	26.5496
 277	1	7	0.175264	-45.3526	23.1855	23.6257
 278	1	7	0.1582	-44.4331	21.6281	21.9143
 279	1	7	0.150763	-42.5105	26.8957	23.6044
 280	1	7	0.144868	-42.5736	24.7582	24.8682
 281	1	7	0.134072	-46.7416	25.51	25.918
 282	1	5	-0.300668	-48.2385	33.4573	24.343
 283	1	5	-0.243237	-48.0123	31.4146	19.6516
 284	1	9	0.021835	-46.9062	27.9677	21.3624
 285	1	9	0.012312	-45.9782	29.0134	20.2743
 286	1	9	0.041777	-47.7262	28.7889	20.0619
 287	1	9	0.110598	-47.2755	30.8553	19.0617
 288	1	9	0.08293	-49.0084	31.027	19.3989
 289	1	9	0.082252	-47.9499	32.4435	19.278
 290	1	9	0.027698	-45.848	30.5106	25.5853
 291	1	9	0.017051	-47.5492	30.7315	26.0283
 292	1	9	0.037874	-46.4727	32.1227	25.794
 293	1	9	0.095908	-49.1132	34.0075	23.9765
 294	1	9	0.127068	-48.5265	33.0974	25.339
 295	1	9	0.099095	-47.4188	34.1776	24.4684
 296	1	1	-0.024347	-30.9419	10.8034	19.5066
 297	1	1	-0.071478	-31.5109	12.0549	19.8634
 298	1	1	-0.180016	-31.645	13.0481	18.8515
 299	1	2	-0.370097	-29.9566	8.2507	18.0622
 300	1	1	0.010306	-30.5961	10.5772	18.1711
 301	1	1	-0.071748	-31.2781	12.8024	17.5132
 302	1	2	-0.403598	-30.5481	11.496	14.7918
 303	1	1	0.055994	-30.7679	11.5421	17.1994
 304	1	3	0.021521	-30.159	9.32133	17.5141
 305	1	4	0.466017	-30.1441	9.61621	16.1518
 306	1	3	0.096621	-30.4555	10.9458	15.8775
 307	1	1	-0.099438	-35.7014	12.7804	20.081
 308	1	5	-0.089685	-32.0343	12.3719	21.2953
 309	1	1	-0.037281	-33.4716	12.9515	21.1499
 310	1	1	-0.08188	-34.3785	12.3256	20.2465
 311	1	1	-0.106561	-36.1141	13.8741	20.8453
 312	1	1	-0.037628	-33.9387	14.0513	21.9163
 313	1	1	-0.12234	-35.2571	14.4873	21.7359
 314	1	5	0.388954	-30.9993	13.373	21.9405
 315	1	5	0.307788	-32.1724	11.1029	22.222
 316	1	6	-0.129718	-31.1981	13.5754	23.2621
 317	1	6	-0.129089	-31.0349	14.5882	21.3483
 318	1	6	-0.119089	-29.7302	12.9243	21.8072
 319	1	6	-0.103894	-30.98	10.5725	22.575
 320	1	6	-0.097852	-32.8879	10.1193	21.6299
 321	1	6	-0.104555	-32.8254	11.3912	23.3708
 322	1	3	0.521254	-35.993	15.598	22.3936
 323	1	3	0.53569	-37.4273	14.5701	20.9019
 324	1	4	0.027822	-37.2728	15.5832	21.8444
 325	1	2	-0.468874	-35.5397	16.3677	23.2235
 326	1	2	-0.477974	-38.4178	14.2929	20.2468
 327	1	1	-0.359831	-38.301	16.516	22.1994
 328	1	1	0.131035	-38.2556	17.8273	21.6747
 329	1	1	-0.120983	-39.2148	18.7781	22.0914
 330	1	1	0.127261	-39.3331	16.1186	23.0795
 331	1	1	-0.127195	-40.3575	17.0352	23.4087
 332	1	1	0.144798	-40.2725	18.3689	22.9407
 333	1	5	-0.020676	-39.3461	14.7008	23.6658
 334	1	5	-0.019785	-37.1593	18.2186	20.6747
 335	1	7	0.164889	-30.8089	9.99015	20.2121
 336	1	7	0.175264	-32.0785	14.016	19.0949
 337	1	7	0.1582	-31.4274	13.547	16.734
 338	1	7	0.150763	-36.3852	12.2952	19.3868
 339	1	7	0.144868	-34.0571	11.467	19.6626
 340	1	7	0.134072	-33.3173	14.565	22.6427
 341	1	5	-0.300668	-39.1165	20.2387	21.6149
 342	1	5	-0.243237	-41.5408	16.5989	24.2895
 343	1	9	0.021835	-39.9644	14.0329	23.0533
 344	1	9	0.012312	-39.7398	14.6846	24.689
 345	1	9	0.041777	-38.3459	14.2596	23.7355
 346	1	9	0.110598	-41.3067	16.7358	25.3542
 347	1	9	0.08293	-42.4607	17.1558	24.076
 348	1	9	0.082252	-41.8049	15.5455	24.1364
 349	1	9	0.027698	-37.5177	18.9468	19.9377
 350	1	9	0.017051	-36.7989	17.3673	20.0859
 351	1	9	0.037874	-36.2976	18.6555	21.1941
 352	1	9	0.095908	-38.0754	20.5627	21.4939
 353	1	9	0.127068	-39.6228	20.3684	20.6481
 354	1	9	0.099095	-39.5552	20.9545	22.3197
 355	1	1	-0.024347	-26.5283	2.4754	7.62936
 356	1	1	-0.071478	-27.201	1.34658	8.16326
 357	1	1	-0.180016	-26.4156	0.314933	8.75557
 358	1	2	-0.370097	-24.5374	4.41257	6.29408
 359	1	1	0.010306	-25.1335	2.51836	7.66319
 360	1	1	-0.071748	-25.0067	0.393306	8.80358
 361	1	2	-0.403598	-22.0137	1.04281	8.25387
 362	1	1	0.055994	-24.3878	1.51073	8.23801
 363	1	3	0.021521	-24.2145	3.45118	6.97198
 364	1	4	0.466017	-22.9477	2.8972	7.14092
 365	1	3	0.096621	-22.9509	1.76572	7.95572
 366	1	1	-0.099438	-30.8057	4.56165	8.6215
 367	1	5	-0.089685	-28.7513	1.28033	8.02473
 368	1	1	-0.037281	-29.3104	2.59189	8.6395
 369	1	1	-0.08188	-30.3196	3.38283	8.01844
 370	1	1	-0.106561	-30.2831	4.92771	9.86582
 371	1	1	-0.037628	-28.8153	3.00111	9.90401
 372	1	1	-0.12234	-29.324	4.16133	10.4917
 373	1	5	0.388954	-29.4215	0.0913687	8.81767
 374	1	5	0.307788	-29.0691	1.10101	6.48531
 375	1	6	-0.129718	-29.0545	0.0682026	10.119
 376	1	6	-0.129089	-29.1213	-1.12155	8.30066
 377	1	6	-0.119089	-30.7702	0.192572	8.82328
 378	1	6	-0.103894	-28.342	0.0958872	5.94668
 379	1	6	-0.097852	-28.7725	2.2024	5.75935
 380	1	6	-0.104555	-30.3665	0.817074	6.2322
 381	1	3	0.521254	-29.0134	4.77791	11.8068
 382	1	3	0.53569	-30.6073	6.0764	10.7518
 383	1	4	0.027822	-29.817	5.91222	11.8891
 384	1	2	-0.468874	-28.2247	4.34914	12.632
 385	1	2	-0.477974	-31.4281	6.94921	10.5232
 386	1	1	-0.359831	-29.8545	6.79688	13.0177
 387	1	1	0.131035	-31.0035	6.81169	13.8411
 388	1	1	-0.120983	-31.1157	7.78154	14.862
 389	1	1	0.127261	-28.7672	7.66588	13.2723
 390	1	1	-0.127195	-28.8259	8.55049	14.3739
 391	1	1	0.144798	-30.0165	8.63303	15.133
 392	1	5	-0.020676	-27.5313	7.65942	12.3633
 393	1	5	-0.019785	-32.1301	5.79423	13.6174
 394	1	7	0.164889	-27.0647	3.28523	7.14209
 395	1	7	0.175264	-26.8738	-0.581563	9.16026
 396	1	7	0.1582	-24.4068	-0.416582	9.21325
 397	1	7	0.150763	-31.5756	5.16523	8.14408
 398	1	7	0.144868	-30.7487	3.09786	7.06407
 399	1	7	0.134072	-28.0586	2.42535	10.4325
 400	1	5	-0.300668	-32.4201	7.91269	15.6704
 401	1	5	-0.243237	-27.6274	9.44775	14.722
 402	1	9	0.021835	-27.7357	7.27173	11.3594
 403	1	9	0.012312	-26.7314	7.04823	12.7996
 404	1	9	0.041777	-27.1386	8.67144	12.2103
 405	1	9	0.110598	-26.6696	8.95488	14.513
 406	1	9	0.08293	-27.658	10.3826	14.1467
 407	1	9	0.082252	-27.5877	9.71073	15.7861
 408	1	9	0.027698	-31.7742	4.86351	13.1611
 409	1	9	0.017051	-32.9119	6.20987	12.9698
 410	1	9	0.037874	-32.5963	5.49146	14.5625
 411	1	9	0.095908	-32.6283	8.94245	15.9839
 412	1	9	0.127068	-33.3025	7.61435	15.0911
 413	1	9	0.099095	-32.3846	7.28787	16.5732
 414	1	1	-0.024347	-13.9321	5.38642	-2.1712
 415	1	1	-0.071478	-15.1525	4.76636	-2.55153
 416	1	1	-0.180016	-15.6702	5.07876	-3.84685
 417	1	2	-0.370097	-11.121	6.65646	-2.07859
 418	1	1	0.010306	-13.256	6.19395	-3.09206
 419	1	1	-0.071748	-14.9998	5.94652	-4.73521
 420	1	2	-0.403598	-12.9386	7.75625	-6.21422
 421	1	1	0.055994	-13.7768	6.48281	-4.33398
 422	1	3	0.021521	-11.8957	6.7747	-3.01369
 423	1	4	0.466017	-11.687	7.40104	-4.24587
 424	1	3	0.096621	-12.7953	7.30688	-5.08823
 425	1	1	-0.099438	-17.7548	6.26685	0.587531
 426	1	5	-0.089685	-15.8119	3.7165	-1.58964
 427	1	1	-0.037281	-16.371	4.42868	-0.325374
 428	1	1	-0.08188	-16.971	5.71371	-0.447736
 429	1	1	-0.106561	-17.9151	5.52345	1.76229
 430	1	1	-0.037628	-16.5134	3.7367	0.906397
 431	1	1	-0.12234	-17.2799	4.31076	1.92718
 432	1	5	0.388954	-14.7077	2.62639	-1.25178
 433	1	5	0.307788	-17.0544	2.98277	-2.23496
 434	1	6	-0.129718	-13.9863	2.30142	-2.34884
 435	1	6	-0.129089	-15.1941	1.45994	-0.773038
 436	1	6	-0.119089	-13.8297	3.059	-0.319436
 437	1	6	-0.103894	-16.7192	2.28767	-3.34554
 438	1	6	-0.097852	-18.041	3.84684	-2.56832
 439	1	6	-0.104555	-17.6479	2.10977	-1.38919
 440	1	3	0.521254	-17.7861	3.68473	3.1761
 441	1	3	0.53569	-18.8833	5.69665	2.88252
 442	1	4	0.027822	-18.8021	4.52335	3.63301
 443	1	2	-0.468874	-17.5003	2.56784	3.57374
 444	1	2	-0.477974	-19.7042	6.59317	2.98166
 445	1	1	-0.359831	-19.8121	4.10118	4.56622
 446	1	1	0.131035	-20.7204	3.09227	4.16204
 447	1	1	-0.120983	-21.7063	2.63429	5.06297
 448	1	1	0.127261	-19.9205	4.70026	5.84408
 449	1	1	-0.127195	-20.974	4.31418	6.71071
 450	1	1	0.144798	-21.8491	3.27285	6.31898
 451	1	5	-0.020676	-18.9257	5.78216	6.27785
 452	1	5	-0.019785	-20.6574	2.5005	2.74453
 453	1	7	0.164889	-13.4671	5.20849	-1.20721
 454	1	7	0.175264	-16.5839	4.632	-4.21975
 455	1	7	0.1582	-15.3879	6.15194	-5.73056
 456	1	7	0.150763	-18.2956	7.20071	0.445737
 457	1	7	0.144868	-16.9193	6.25089	-1.39087
 458	1	7	0.134072	-16.1461	2.72553	1.04862
 459	1	5	-0.300668	-22.6454	1.48142	4.65403
 460	1	5	-0.243237	-21.1786	5.00377	8.07015
 461	1	9	0.021835	-19.3698	6.78031	6.17553
 462	1	9	0.012312	-17.9967	5.77269	5.69714
 463	1	9	0.041777	-18.625	5.64999	7.32408
 464	1	9	0.110598	-20.6813	4.44423	8.87366
 465	1	9	0.08293	-20.7896	6.02855	8.08816
 466	1	9	0.082252	-22.2387	5.10016	8.33521
 467	1	9	0.027698	-20.0393	1.5941	2.72856
 468	1	9	0.017051	-20.2503	3.1993	2.00583
 469	1	9	0.037874	-21.6502	2.23833	2.36215
 470	1	9	0.095908	-23.5123	1.859	4.09616
 471	1	9	0.127068	-22.135	0.741975	4.02405
 472	1	9	0.099095	-23.0221	0.895482	5.49838
 473	1	1	-0.024347	-0.194152	6.2123	-2.91783
 474	1	1	-0.071478	-0.161069	7.62608	-3.09606
 475	1	1	-0.180016	0.730155	8.13896	-4.08314
 476	1	2	-0.370097	0.19693	3.12661	-3.04893
 477	1	1	0.010306	0.716944	5.41277	-3.61936
 478	1	1	-0.071748	1.70457	7.33074	-4.69965
 479	1	2	-0.403598	3.72381	5.09348	-5.35995
 480	1	1	0.055994	1.69659	5.96825	-4.40928
 481	1	3	0.021521	0.936401	3.94313	-3.57261
 482	1	4	0.466017	2.14921	3.72889	-4.23862
 483	1	3	0.096621	2.66354	4.91129	-4.78153
 484	1	1	-0.099438	-3.43979	11.1387	-4.00975
 485	1	5	-0.089685	-0.998321	8.62649	-2.22938
 486	1	1	-0.037281	-2.10445	9.23688	-3.14032
 487	1	1	-0.08188	-2.31934	10.6374	-3.30886
 488	1	1	-0.106561	-4.37786	10.2226	-4.49927
 489	1	1	-0.037628	-3.03599	8.35091	-3.73456
 490	1	1	-0.12234	-4.18041	8.87001	-4.3424
 491	1	5	0.388954	0.00457625	9.69916	-1.60943
 492	1	5	0.307788	-1.72156	7.93573	-0.989501
 493	1	6	-0.129718	0.548946	10.5423	-2.5135
 494	1	6	-0.129089	1.05309	9.09929	-1.0011
 495	1	6	-0.119089	-0.563419	10.5104	-0.689584
 496	1	6	-0.103894	-2.58694	6.95249	-1.31757
 497	1	6	-0.097852	-2.47882	8.80882	-0.287988
 498	1	6	-0.104555	-0.843781	7.38065	-0.123982
 499	1	3	0.521254	-5.44918	8.1731	-4.65434
 500	1	3	0.53569	-5.76746	10.4331	-4.99966
 501	1	4	0.027822	-6.37561	9.17465	-4.94935
 502	1	2	-0.468874	-5.65684	6.98576	-4.46745
 503	1	2	-0.477974	-6.28569	11.5151	-5.2203
 504	1	1	-0.359831	-7.7964	8.92101	-4.9482
 505	1	1	0.131035	-8.61567	9.48381	-3.93482
 506	1	1	-0.120983	-9.97298	9.09964	-3.83661
 507	1	1	0.127261	-8.33287	7.96408	-5.84289
 508	1	1	-0.127195	-9.6246	7.43441	-5.60987
 509	1	1	0.144798	-10.4397	8.00238	-4.59753
 510	1	5	-0.020676	-7.49438	7.44706	-7.01819
 511	1	5	-0.019785	-8.03801	10.4544	-2.89441
 512	1	7	0.164889	-0.854133	5.712	-2.22051
 513	1	7	0.175264	0.725521	9.19078	-4.34519
 514	1	7	0.1582	2.45711	7.74914	-5.36476
 515	1	7	0.150763	-3.62601	12.209	-4.07779
 516	1	7	0.144868	-1.66102	11.3675	-2.85309
 517	1	7	0.134072	-2.94679	7.27379	-3.62784
 518	1	5	-0.300668	-10.9187	9.81244	-2.85442
 519	1	5	-0.243237	-10.1175	6.22799	-6.42831
 520	1	9	0.021835	-7.02897	6.48273	-6.77985
 521	1	9	0.012312	-6.69798	8.14379	-7.30544
 522	1	9	0.041777	-8.11056	7.31108	-7.91527
 523	1	9	0.110598	-10.6611	6.55722	-7.32423
 524	1	9	0.08293	-9.2957	5.58066	-6.75706
 525	1	9	0.082252	-10.7812	5.56826	-5.8578
 526	1	9	0.027698	-6.99817	10.2229	-2.63952
 527	1	9	0.017051	-8.57279	10.4136	-1.93912
 528	1	9	0.037874	-8.08242	11.489	-3.25597
 529	1	9	0.095908	-10.8537	9.37256	-1.8501
 530	1	9	0.127068	-10.6854	10.8816	-2.76824
 531	1	9	0.099095	-11.9674	9.77146	-3.17362
 532	1	1	-0.024347	11.0684	-5.38718	-4.48305
 533	1	1	-0.071478	11.5448	-4.66511	-5.60924
 534	1	1	-0.180016	12.933	-4.74064	-5.92237
 535	1	2	-0.370097	10.6785	-7.17955	-1.96422
 536	1	1	0.010306	11.974	-6.13217	-3.71885
 537	1	1	-0.071748	13.8298	-5.48609	-5.13073
 538	1	2	-0.403598	15.204	-7.28447	-3.00648
 539	1	1	0.055994	13.3175	-6.17413	-4.03015
 540	1	3	0.021521	11.7448	-6.98436	-2.52298
 541	1	4	0.466017	13.0034	-7.4862	-2.19018
 542	1	3	0.096621	14.0086	-7.04077	-3.04558
 543	1	1	-0.099438	9.3575	-1.39167	-3.77269
 544	1	5	-0.089685	10.5272	-3.88313	-6.48989
 545	1	1	-0.037281	9.56638	-3.09162	-5.55598
 546	1	1	-0.08188	10.1317	-2.30342	-4.51491
 547	1	1	-0.106561	7.99703	-1.29523	-4.07461
 548	1	1	-0.037628	8.16598	-3.00242	-5.78612
 549	1	1	-0.12234	7.40949	-2.10553	-5.02123
 550	1	5	0.388954	9.79789	-4.95349	-7.38844
 551	1	5	0.307788	11.1971	-2.79843	-7.42425
 552	1	6	-0.129718	8.98722	-5.75066	-6.65667
 553	1	6	-0.129089	10.6816	-5.77471	-8.00003
 554	1	6	-0.119089	9.04387	-4.40397	-8.36736
 555	1	6	-0.103894	10.2775	-1.95552	-7.94836
 556	1	6	-0.097852	11.8663	-3.33015	-8.47206
 557	1	6	-0.104555	12.0738	-2.01808	-6.75126
 558	1	3	0.521254	5.98668	-1.69113	-5.16767
 559	1	3	0.53569	6.99548	-0.293128	-3.63417
 560	1	4	0.027822	5.83553	-0.556191	-4.36674
 561	1	2	-0.468874	5.17465	-2.19785	-5.92315
 562	1	2	-0.477974	7.21785	0.638179	-2.87782
 563	1	1	-0.359831	4.70774	0.343712	-4.38153
 564	1	1	0.131035	4.06791	0.669936	-3.16407
 565	1	1	-0.120983	3.24415	1.81742	-3.09207
 566	1	1	0.127261	4.34027	1.01522	-5.5742
 567	1	1	-0.127195	3.32328	1.99766	-5.53984
 568	1	1	0.144798	2.86773	2.48773	-4.28816
 569	1	5	-0.020676	5.06961	0.738184	-6.89691
 570	1	5	-0.019785	4.31534	-0.174817	-1.90812
 571	1	7	0.164889	10.016	-5.38639	-4.20864
 572	1	7	0.175264	13.3435	-4.23549	-6.79038
 573	1	7	0.1582	14.8894	-5.5444	-5.37098
 574	1	7	0.150763	9.81164	-0.732977	-3.03481
 575	1	7	0.144868	11.2016	-2.34054	-4.32604
 576	1	7	0.134072	7.66676	-3.54342	-6.58291
 577	1	5	-0.300668	2.8114	2.33273	-1.70786
 578	1	5	-0.243237	2.77698	2.57249	-6.85837
 579	1	9	0.021835	4.58288	-0.0714845	-7.454
 580	1	9	0.012312	6.12099	0.468055	-6.74718
 581	1	9	0.041777	5.09749	1.61888	-7.54788
 582	1	9	0.110598	3.44941	3.33555	-7.27337
 583	1	9	0.08293	2.66129	1.78692	-7.61636
 584	1	9	0.082252	1.7836	3.02368	-6.7478
 585	1	9	0.027698	3.39749	-0.284175	-1.31726
 586	1	9	0.017051	5.07842	0.278431	-1.26408
 587	1	9	0.037874	4.63634	-1.19498	-2.14842
 588	1	9	0.095908	1.86332	1.87266	-1.39775
 589	1	9	0.127068	3.55265	2.1149	-0.929851
 590	1	9	0.099095	2.68552	3.42018	-1.67223
 591	1	1	-0.024347	17.4105	-16.9483	6.58824
 592	1	1	-0.071478	17.2552	-15.8936	5.65357
 593	1	1	-0.180016	16.8193	-16.2158	4.33483
 594	1	2	-0.370097	17.6126	-19.6513	8.0827
 595	1	1	0.010306	17.1131	-18.2527	6.18032
 596	1	1	-0.071748	16.5295	-17.5379	3.94593
 597	1	2	-0.403598	16.2292	-20.6308	3.75718
 598	1	1	0.055994	16.6903	-18.5439	4.89804
 599	1	3	0.021521	17.2502	-19.5248	6.92514
 600	1	4	0.466017	16.9218	-20.5183	6.00555
 601	1	3	0.096621	16.5517	-20.0157	4.76136
 602	1	1	-0.099438	14.0846	-13.2319	4.8959
 603	1	5	-0.089685	17.6043	-14.4166	5.99054
 604	1	1	-0.037281	16.5051	-13.5429	5.31893
 605	1	1	-0.08188	15.1418	-13.8675	5.57245
 606	1	1	-0.106561	14.4117	-12.2614	3.94776
 607	1	1	-0.037628	16.7894	-12.5063	4.39009
 608	1	1	-0.12234	15.7225	-11.9006	3.71366
 609	1	5	0.388954	19.0597	-14.1753	5.43157
 610	1	5	0.307788	17.5839	-14.0786	7.53377
 611	1	6	-0.129718	19.5455	-12.9539	5.74758
 612	1	6	-0.129089	19.1154	-14.296	4.08543
 613	1	6	-0.119089	19.9387	-15.0854	5.91149
 614	1	6	-0.103894	16.4797	-14.5574	8.14909
 615	1	6	-0.097852	17.5858	-12.7423	7.74235
 616	1	6	-0.104555	18.643	-14.5748	8.2117
 617	1	3	0.521254	15.7335	-10.9059	2.60884
 618	1	3	0.53569	13.5418	-11.5226	2.99645
 619	1	4	0.027822	14.4042	-10.7565	2.21729
 620	1	2	-0.468874	16.7234	-10.393	2.11638
 621	1	2	-0.477974	12.3303	-11.6231	2.90794
 622	1	1	-0.359831	13.9844	-9.94703	1.11011
 623	1	1	0.131035	13.9493	-10.5036	-0.190987
 624	1	1	-0.120983	13.54	-9.70068	-1.28233
 625	1	1	0.127261	13.6373	-8.59512	1.33007
 626	1	1	-0.127195	13.3214	-7.76744	0.227795
 627	1	1	0.144798	13.2659	-8.32781	-1.07148
 628	1	5	-0.020676	13.651	-8.01372	2.7496
 629	1	5	-0.019785	14.3633	-11.9625	-0.430616
 630	1	7	0.164889	17.7766	-16.7894	7.59781
 631	1	7	0.175264	16.7215	-15.4336	3.58479
 632	1	7	0.1582	16.2182	-17.7794	2.93196
 633	1	7	0.150763	13.0488	-13.5187	5.06657
 634	1	7	0.144868	14.8938	-14.6675	6.26421
 635	1	7	0.134072	17.801	-12.2021	4.13964
 636	1	5	-0.300668	13.4364	-10.2912	-2.69978
 637	1	5	-0.243237	13.0423	-6.26935	0.437737
 638	1	9	0.021835	12.8347	-7.29752	2.90081
 639	1	9	0.012312	14.5984	-7.49715	2.94694
 640	1	9	0.041777	13.5182	-8.77134	3.52872
 641	1	9	0.110598	13.63	-5.84923	1.26286
 642	1	9	0.08293	13.2983	-5.65505	-0.432974
 643	1	9	0.082252	11.9804	-6.10146	0.661997
 644	1	9	0.027698	13.4815	-12.6034	-0.551496
 645	1	9	0.017051	14.9681	-12.388	0.3768
 646	1	9	0.037874	14.9772	-12.0563	-1.33475
 647	1	9	0.095908	14.3808	-10.1624	-3.24617
 648	1	9	0.127068	13.199	-11.362	-2.69528