pySIMM System Object

1536 atoms
1665 bonds
2964 angles
4312 dihedrals
416 impropers

9 atom types
11 bond types
18 angle types
7 dihedral types
4 improper types

-181.137363 181.137363 xlo xhi
-181.137363 181.137363 ylo yhi
-181.137363 181.137363 zlo zhi

Masses

   1	12.01	# ca
   2	16.0	# o
   3	12.01	# c
   4	14.01	# n
   5	12.01	# c3
   6	19.0	# f
   7	1.008	# ha
   8	1.008	# hn
   9	1.008	# hc

Pair Coeffs

   1	0.086	3.3996695084235347	# ca
   2	0.21	2.959921901149463	# o
   3	0.086	3.3996695084235347	# c
   4	0.17	3.249998523775958	# n
   5	0.1094	3.3996695084235347	# c3
   6	0.061	3.1181455134911875	# f
   7	0.015	2.59964245953351	# ha
   8	0.0157	1.069078461768407	# hn
   9	0.0157	2.649532787749369	# hc

Bond Coeffs

   1	321.0	1.5156	# c3,ca
   2	300.9	1.5375	# c3,c3
   3	345.8	1.086	# ca,ha
   4	384.2	1.4121	# ca,n
   5	637.7	1.2183	# c,o
   6	330.6	1.0969	# c3,hc
   7	356.9	1.3497	# c3,f
   8	403.2	1.0129	# hn,n
   9	461.1	1.3984	# ca,ca
  10	427.6	1.3789	# c,n
  11	345.9	1.4906	# c,ca

Angle Coeffs

   1	70.89	107.36	# f,c3,f
   2	63.82	123.71	# c,n,ca
   3	68.72	122.6	# ca,c,o
   4	48.18	119.88	# ca,ca,ha
   5	67.87	120.19	# ca,ca,n
   6	67.68	115.25	# ca,c,n
   7	46.8	110.47	# ca,c3,hc
   8	48.33	117.55	# c,n,hn
   9	39.4	107.58	# hc,c3,hc
  10	74.22	123.05	# n,c,o
  11	62.86	111.51	# c3,c3,c3
  12	64.28	120.33	# c,ca,ca
  13	63.56	112.24	# ca,c3,ca
  14	63.15	112.07	# c3,c3,ca
  15	66.11	109.24	# c3,c3,f
  16	66.62	120.02	# ca,ca,ca
  17	63.74	127.08	# c,n,c
  18	63.53	120.77	# c3,ca,ca

Dihedral Coeffs

   1	2	2.5	2	180	2.0	1	0	# hn,n,c,o
   2	1	3.625	2	180	# X,ca,ca,X
   3	1	1.0	2	180	# X,c,ca,X
   4	1	0.0	2	0	# X,c3,ca,X
   5	1	0.15555555555555556	3	0	# X,c3,c3,X
   6	1	2.5	2	180	# X,c,n,X
   7	1	0.45	2	180	# X,ca,n,X

Improper Coeffs

   1	10.5	-1	2	# c,X,X,o
   2	1.1	-1	2	# n,X,X,hn
   3	1.1	-1	2	# ca,ca,ca,c3
   4	1.1	-1	2	# ca,X,X,ha

Atoms

   1	1	1	-0.024347	-65.1453	14.6311	-74.1526
   2	1	1	-0.071478	-65.9155	14.8348	-75.3283
   3	1	1	-0.180016	-66.8437	13.8226	-75.7075
   4	1	2	-0.370097	-63.8308	13.6212	-71.5333
   5	1	1	0.010306	-65.2962	13.4348	-73.4443
   6	1	1	-0.071748	-66.969	12.6176	-74.9855
   7	1	2	-0.403598	-66.7315	10.2768	-72.9442
   8	1	1	0.055994	-66.1689	12.4478	-73.8542
   9	1	3	0.021521	-64.6456	12.9918	-72.1876
  10	1	4	0.466017	-65.1795	11.7299	-71.9267
  11	1	3	0.096621	-66.0992	11.3196	-72.8906
  12	1	1	-0.099438	-65.3687	14.321	-79.5557
  13	1	5	-0.089685	-65.8342	16.1503	-76.1588
  14	1	1	-0.037281	-66.0032	15.7951	-77.6675
  15	1	1	-0.08188	-65.2512	14.7126	-78.2071
  16	1	1	-0.106561	-66.2457	15.0411	-80.3709
  17	1	1	-0.037628	-66.8619	16.5153	-78.5412
  18	1	1	-0.12234	-66.9626	16.1108	-79.8778
  19	1	5	0.388954	-64.4428	16.8844	-76.0352
  20	1	5	0.307788	-66.9712	17.087	-75.5998
  21	1	6	-0.129718	-63.4104	16.0261	-76.1978
  22	1	6	-0.129089	-64.2576	17.5003	-74.8461
  23	1	6	-0.119089	-64.2991	17.8383	-76.9834
  24	1	6	-0.103894	-66.9158	17.1957	-74.2527
  25	1	6	-0.097852	-68.2005	16.599	-75.8829
  26	1	6	-0.104555	-66.9095	18.3463	-76.0883
  27	1	3	0.521254	-67.796	16.6579	-80.9818
  28	1	3	0.53569	-66.601	14.8605	-81.8041
  29	1	4	0.027822	-67.5329	15.8549	-82.089
  30	1	2	-0.468874	-68.5673	17.5985	-80.8999
  31	1	2	-0.477974	-66.1724	13.994	-82.5475
  32	1	1	-0.359831	-68.1673	16.0128	-83.3651
  33	1	1	0.131035	-67.5938	16.8779	-84.3265
  34	1	1	-0.120983	-68.2212	17.0267	-85.5846
  35	1	1	0.127261	-69.3527	15.2931	-83.6468
  36	1	1	-0.127195	-69.9608	15.4325	-84.9146
  37	1	1	0.144798	-69.3905	16.2993	-85.8609
  38	1	5	-0.020676	-69.9442	14.3583	-82.5861
  39	1	5	-0.019785	-66.3115	17.6421	-83.9816
  40	1	7	0.164889	-64.4527	15.3715	-73.7667
  41	1	7	0.175264	-67.4859	13.9695	-76.5734
  42	1	7	0.1582	-67.6755	11.8451	-75.2814
  43	1	7	0.150763	-64.8005	13.4825	-79.9539
  44	1	7	0.144868	-64.5743	14.1527	-77.5666
  45	1	7	0.134072	-67.4537	17.3642	-78.2159
  46	1	5	-0.300668	-67.6699	17.9539	-86.6684
  47	1	5	-0.243237	-71.2256	14.6656	-85.3001
  48	1	9	0.021835	-70.9869	14.0881	-82.7817
  49	1	9	0.012312	-69.9357	14.8201	-81.5918
  50	1	9	0.041777	-69.367	13.4276	-82.5289
  51	1	9	0.110598	-71.0901	13.584	-85.1703
  52	1	9	0.08293	-72.0806	14.9809	-84.6883
  53	1	9	0.082252	-71.4992	14.8323	-86.3498
  54	1	9	0.027698	-65.5516	16.972	-83.5625
  55	1	9	0.017051	-66.5152	18.4238	-83.2397
  56	1	9	0.037874	-65.8468	18.1261	-84.8462
  57	1	9	0.095908	-67.5477	18.9776	-86.2918
  58	1	9	0.127068	-66.6961	17.6016	-87.0327
  59	1	9	0.099095	-68.3399	18.0091	-87.536
  60	1	1	-0.024347	-61.2726	6.82398	-59.51
  61	1	1	-0.071478	-62.1127	7.45419	-60.4641
  62	1	1	-0.180016	-63.4434	6.96952	-60.6176
  63	1	2	-0.370097	-59.9051	4.93823	-57.4822
  64	1	1	0.010306	-61.7622	5.71915	-58.8103
  65	1	1	-0.071748	-63.9141	5.84834	-59.9041
  66	1	2	-0.403598	-64.1794	3.26141	-58.1919
  67	1	1	0.055994	-63.037	5.23051	-59.0113
  68	1	3	0.021521	-61.0581	4.82498	-57.8637
  69	1	4	0.466017	-61.9695	3.80879	-57.5855
  70	1	3	0.096621	-63.1993	3.98831	-58.215
  71	1	1	-0.099438	-62.3844	6.75328	-64.6656
  72	1	5	-0.089685	-61.6346	8.64164	-61.3484
  73	1	1	-0.037281	-62.1052	8.37045	-62.8065
  74	1	1	-0.08188	-61.986	7.0573	-63.3477
  75	1	1	-0.106561	-62.8902	7.79346	-65.4502
  76	1	1	-0.037628	-62.601	9.39897	-63.6469
  77	1	1	-0.12234	-62.9834	9.07622	-64.9524
  78	1	5	0.388954	-60.0665	8.79074	-61.4226
  79	1	5	0.307788	-62.2542	9.94323	-60.7097
  80	1	6	-0.129718	-59.4678	7.61794	-61.7326
  81	1	6	-0.129089	-59.5177	9.22771	-60.2669
  82	1	6	-0.119089	-59.6916	9.66701	-62.3824
  83	1	6	-0.103894	-61.7426	11.0877	-61.2159
  84	1	6	-0.097852	-62.041	9.98874	-59.3746
  85	1	6	-0.104555	-63.5947	9.99522	-60.8808
  86	1	3	0.521254	-63.4906	9.95716	-66.031
  87	1	3	0.53569	-63.3488	7.80763	-66.8672
  88	1	4	0.027822	-63.6734	9.13558	-67.1399
  89	1	2	-0.468874	-63.6876	11.1571	-65.9406
  90	1	2	-0.477974	-63.3798	6.85117	-67.6232
  91	1	1	-0.359831	-64.0936	9.64352	-68.4126
  92	1	1	0.131035	-63.1495	9.79317	-69.4548
  93	1	1	-0.120983	-63.5421	10.4069	-70.6663
  94	1	1	0.127261	-65.4223	10.0997	-68.5656
  95	1	1	-0.127195	-65.7813	10.8225	-69.7256
  96	1	1	0.144798	-64.8388	10.967	-70.7736
  97	1	5	-0.020676	-66.4533	9.84734	-67.4582
  98	1	5	-0.019785	-61.7012	9.31624	-69.2762
  99	1	7	0.164889	-60.2511	7.1359	-59.3205
 100	1	7	0.175264	-64.116	7.44775	-61.3268
 101	1	7	0.1582	-64.9158	5.45235	-60.0575
 102	1	7	0.150763	-62.2883	5.747	-65.0691
 103	1	7	0.144868	-61.5751	6.25582	-62.7388
 104	1	7	0.134072	-62.6836	10.4314	-63.324
 105	1	5	-0.300668	-62.5472	10.5197	-71.8344
 106	1	5	-0.243237	-67.1756	11.4632	-69.8393
 107	1	9	0.021835	-66.222	8.95437	-66.8657
 108	1	9	0.012312	-67.4558	9.67309	-67.8671
 109	1	9	0.041777	-66.5083	10.7018	-66.7725
 110	1	9	0.110598	-67.8875	10.7699	-70.3077
 111	1	9	0.08293	-67.583	11.7517	-68.8629
 112	1	9	0.082252	-67.1734	12.3887	-70.4269
 113	1	9	0.027698	-61.5614	8.32723	-69.7301
 114	1	9	0.017051	-61.3909	9.24617	-68.2283
 115	1	9	0.037874	-60.9882	10.0061	-69.7426
 116	1	9	0.095908	-63.0378	10.5882	-72.8123
 117	1	9	0.127068	-61.9082	11.4065	-71.7188
 118	1	9	0.099095	-61.8931	9.64147	-71.9027
 119	1	1	-0.024347	-57.1162	-7.5084	-51.0524
 120	1	1	-0.071478	-57.7086	-6.21816	-51.0721
 121	1	1	-0.180016	-58.9687	-6.04364	-50.4316
 122	1	2	-0.370097	-56.3858	-10.4958	-50.6687
 123	1	1	0.010306	-57.8112	-8.55823	-50.4457
 124	1	1	-0.071748	-59.6508	-7.11699	-49.8243
 125	1	2	-0.403598	-60.5494	-9.87763	-48.7037
 126	1	1	0.055994	-59.0453	-8.37378	-49.8562
 127	1	3	0.021521	-57.4212	-9.97904	-50.2835
 128	1	4	0.466017	-58.475	-10.5639	-49.5846
 129	1	3	0.096621	-59.5037	-9.66965	-49.2976
 130	1	1	-0.099438	-60.0165	-4.40855	-54.1605
 131	1	5	-0.089685	-57.0325	-4.98949	-51.7471
 132	1	1	-0.037281	-58.12	-4.24781	-52.5756
 133	1	1	-0.08188	-59.0312	-5.01404	-53.3578
 134	1	1	-0.106561	-60.0719	-3.01345	-54.1808
 135	1	1	-0.037628	-58.2034	-2.83217	-52.6384
 136	1	1	-0.12234	-59.1895	-2.25071	-53.4437
 137	1	5	0.388954	-55.8931	-5.37234	-52.7682
 138	1	5	0.307788	-56.4189	-4.12218	-50.582
 139	1	6	-0.129718	-56.3076	-6.30924	-53.6515
 140	1	6	-0.129089	-54.78	-5.85218	-52.1693
 141	1	6	-0.119089	-55.5054	-4.3079	-53.5074
 142	1	6	-0.103894	-55.6909	-4.88111	-49.7313
 143	1	6	-0.097852	-57.3801	-3.53323	-49.835
 144	1	6	-0.104555	-55.5965	-3.14139	-51.017
 145	1	3	0.521254	-59.4388	-0.820344	-53.7597
 146	1	3	0.53569	-60.9172	-2.10026	-54.9925
 147	1	4	0.027822	-60.4549	-0.817364	-54.7117
 148	1	2	-0.468874	-58.8137	0.130873	-53.3233
 149	1	2	-0.477974	-61.7609	-2.43674	-55.8063
 150	1	1	-0.359831	-60.8659	0.350028	-55.4313
 151	1	1	0.131035	-60.3651	0.552928	-56.7376
 152	1	1	-0.120983	-60.7971	1.67244	-57.4807
 153	1	1	0.127261	-61.744	1.28179	-54.8329
 154	1	1	-0.127195	-62.0821	2.46454	-55.5306
 155	1	1	0.144798	-61.622	2.63981	-56.8575
 156	1	5	-0.020676	-62.3069	1.02062	-53.4308
 157	1	5	-0.019785	-59.3611	-0.434072	-57.3506
 158	1	7	0.164889	-56.1463	-7.72223	-51.4889
 159	1	7	0.175264	-59.4344	-5.06054	-50.4093
 160	1	7	0.1582	-60.6155	-6.98101	-49.34
 161	1	7	0.150763	-60.6946	-5.00224	-54.7708
 162	1	7	0.144868	-58.9676	-6.09934	-53.3579
 163	1	7	0.134072	-57.515	-2.1808	-52.1098
 164	1	5	-0.300668	-60.3542	1.854	-58.9446
 165	1	5	-0.243237	-62.9528	3.54343	-54.8662
 166	1	9	0.021835	-63.3334	1.39217	-53.3286
 167	1	9	0.012312	-61.6908	1.50922	-52.6659
 168	1	9	0.041777	-62.3577	-0.0464669	-53.1879
 169	1	9	0.110598	-62.7772	3.60753	-53.785
 170	1	9	0.08293	-62.7526	4.55141	-55.2487
 171	1	9	0.082252	-64.0195	3.33365	-55.0216
 172	1	9	0.027698	-59.8763	-1.18333	-57.9641
 173	1	9	0.017051	-58.7685	-0.967768	-56.5993
 174	1	9	0.037874	-58.6255	0.0766404	-57.983
 175	1	9	0.095908	-59.4137	2.41897	-59.001
 176	1	9	0.127068	-60.1998	0.895104	-59.4547
 177	1	9	0.099095	-61.0985	2.37916	-59.5549
 178	1	1	-0.024347	-56.241	-21.1484	-43.8393
 179	1	1	-0.071478	-56.5279	-22.0853	-44.868
 180	1	1	-0.180016	-56.824	-23.4278	-44.4933
 181	1	2	-0.370097	-55.5792	-19.6619	-41.1836
 182	1	1	0.010306	-56.2525	-21.5731	-42.5059
 183	1	1	-0.071748	-56.8406	-23.8316	-43.1426
 184	1	2	-0.403598	-56.5764	-24.0563	-40.0565
 185	1	1	0.055994	-56.5452	-22.8781	-42.1673
 186	1	3	0.021521	-55.9097	-20.8332	-41.2634
 187	1	4	0.466017	-56.0093	-21.7777	-40.2414
 188	1	3	0.096621	-56.4088	-23.0317	-40.6983
 189	1	1	-0.099438	-59.2593	-18.9908	-46.0584
 190	1	5	-0.089685	-56.4237	-21.6262	-46.3531
 191	1	1	-0.037281	-57.1938	-20.2836	-46.5029
 192	1	1	-0.08188	-58.4838	-20.1589	-45.9132
 193	1	1	-0.106561	-58.7243	-17.9414	-46.8105
 194	1	1	-0.037628	-56.6922	-19.1933	-47.2616
 195	1	1	-0.12234	-57.4756	-18.0412	-47.3875
 196	1	5	0.388954	-57.0872	-22.6206	-47.3829
 197	1	5	0.307788	-54.8812	-21.5128	-46.6699
 198	1	6	-0.129718	-58.3487	-22.951	-47.0232
 199	1	6	-0.129089	-56.3997	-23.7757	-47.5301
 200	1	6	-0.119089	-57.1841	-22.0718	-48.6156
 201	1	6	-0.103894	-54.2134	-22.6242	-46.2846
 202	1	6	-0.097852	-54.3045	-20.4825	-46.0105
 203	1	6	-0.104555	-54.6127	-21.3426	-47.984
 204	1	3	0.521254	-57.1836	-16.764	-48.0877
 205	1	3	0.53569	-59.2804	-16.5992	-47.1308
 206	1	4	0.027822	-58.296	-15.9539	-47.8764
 207	1	2	-0.468874	-56.1614	-16.496	-48.6958
 208	1	2	-0.477974	-60.3534	-16.1574	-46.7557
 209	1	1	-0.359831	-58.3762	-14.5901	-48.3085
 210	1	1	0.131035	-58.7587	-14.2933	-49.6392
 211	1	1	-0.120983	-58.8262	-12.9437	-50.0593
 212	1	1	0.127261	-58.0404	-13.5592	-47.3976
 213	1	1	-0.127195	-58.0722	-12.2134	-47.8288
 214	1	1	0.144798	-58.4674	-11.9186	-49.1538
 215	1	5	-0.020676	-57.6216	-13.88	-45.9557
 216	1	5	-0.019785	-59.0971	-15.4132	-50.6321
 217	1	7	0.164889	-55.981	-20.1168	-44.0642
 218	1	7	0.175264	-57.022	-24.1914	-45.2381
 219	1	7	0.1582	-57.0453	-24.8617	-42.859
 220	1	7	0.150763	-60.2447	-18.9041	-45.6046
 221	1	7	0.144868	-58.9002	-20.9846	-45.3412
 222	1	7	0.134072	-55.7263	-19.2152	-47.7553
 223	1	5	-0.300668	-59.2507	-12.5663	-51.4903
 224	1	5	-0.243237	-57.691	-11.0539	-46.8895
 225	1	9	0.021835	-56.5841	-13.5718	-45.7772
 226	1	9	0.012312	-57.6779	-14.9388	-45.687
 227	1	9	0.041777	-58.2626	-13.3483	-45.2416
 228	1	9	0.110598	-57.2189	-11.3676	-45.9533
 229	1	9	0.08293	-56.972	-10.3735	-47.3635
 230	1	9	0.082252	-58.5787	-10.4687	-46.6142
 231	1	9	0.027698	-60.1646	-15.3976	-50.884
 232	1	9	0.017051	-58.8733	-16.4209	-50.2688
 233	1	9	0.037874	-58.5273	-15.2925	-51.5618
 234	1	9	0.095908	-58.3727	-12.3278	-52.1061
 235	1	9	0.127068	-59.8047	-13.3571	-52.0079
 236	1	9	0.099095	-59.9176	-11.695	-51.5031
 237	1	1	-0.024347	-52.6468	-21.2528	-26.6817
 238	1	1	-0.071478	-53.0013	-21.7005	-27.9821
 239	1	1	-0.180016	-52.0704	-22.5122	-28.6912
 240	1	2	-0.370097	-51.3124	-20.6329	-23.9532
 241	1	1	0.010306	-51.3962	-21.6043	-26.1634
 242	1	1	-0.071748	-50.8142	-22.8546	-28.1485
 243	1	2	-0.403598	-48.2985	-23.2343	-26.3442
 244	1	1	0.055994	-50.5019	-22.3796	-26.8731
 245	1	3	0.021521	-50.8004	-21.293	-24.8417
 246	1	4	0.466017	-49.558	-21.9243	-24.8457
 247	1	3	0.096621	-49.2923	-22.5958	-26.0373
 248	1	1	-0.099438	-52.9099	-19.7655	-31.8226
 249	1	5	-0.089685	-54.388	-21.4006	-28.6239
 250	1	1	-0.037281	-54.1675	-21.066	-30.1293
 251	1	1	-0.08188	-53.1485	-20.1367	-30.4839
 252	1	1	-0.106561	-53.7107	-20.3408	-32.8131
 253	1	1	-0.037628	-54.9635	-21.6177	-31.1688
 254	1	1	-0.12234	-54.7033	-21.2425	-32.4924
 255	1	5	0.388954	-55.118	-20.1482	-27.9994
 256	1	5	0.307788	-55.2693	-22.6858	-28.3817
 257	1	6	-0.129718	-54.2966	-19.0769	-27.9185
 258	1	6	-0.129089	-55.5989	-20.3694	-26.7554
 259	1	6	-0.119089	-56.1717	-19.7603	-28.7539
 260	1	6	-0.103894	-55.2492	-23.0676	-27.0842
 261	1	6	-0.097852	-54.8154	-23.7462	-29.0879
 262	1	6	-0.104555	-56.5692	-22.5096	-28.7096
 263	1	3	0.521254	-55.3605	-21.6747	-33.7538
 264	1	3	0.53569	-53.7044	-20.157	-34.2899
 265	1	4	0.027822	-54.7096	-20.99	-34.7785
 266	1	2	-0.468874	-56.273	-22.4778	-33.8465
 267	1	2	-0.477974	-52.9452	-19.4397	-34.9192
 268	1	1	-0.359831	-55.0228	-21.1498	-36.171
 269	1	1	0.131035	-56.2175	-20.5974	-36.6895
 270	1	1	-0.120983	-56.5707	-20.8337	-38.0394
 271	1	1	0.127261	-54.1408	-21.8754	-37.0047
 272	1	1	-0.127195	-54.4338	-22.009	-38.3814
 273	1	1	0.144798	-55.6672	-21.5254	-38.8822
 274	1	5	-0.020676	-52.8772	-22.5204	-36.4196
 275	1	5	-0.019785	-57.1382	-19.7666	-35.7867
 276	1	7	0.164889	-53.3096	-20.6602	-26.0601
 277	1	7	0.175264	-52.3271	-22.8987	-29.6752
 278	1	7	0.1582	-50.1099	-23.482	-28.6908
 279	1	7	0.150763	-52.1301	-19.0521	-32.0826
 280	1	7	0.144868	-52.5301	-19.691	-29.7088
 281	1	7	0.134072	-55.7697	-22.3195	-30.9824
 282	1	5	-0.300668	-57.9181	-20.3344	-38.5887
 283	1	5	-0.243237	-53.4353	-22.6996	-39.3262
 284	1	9	0.021835	-52.9827	-22.7752	-35.3591
 285	1	9	0.012312	-52.0141	-21.8506	-36.5196
 286	1	9	0.041777	-52.633	-23.4654	-36.9185
 287	1	9	0.110598	-52.3947	-22.536	-39.0193
 288	1	9	0.08293	-53.6107	-23.7832	-39.3584
 289	1	9	0.082252	-53.4886	-22.3199	-40.3537
 290	1	9	0.027698	-56.6013	-19.285	-34.9617
 291	1	9	0.017051	-57.9273	-20.3929	-35.3525
 292	1	9	0.037874	-57.6181	-18.949	-36.3371
 293	1	9	0.095908	-58.2872	-20.9227	-39.4368
 294	1	9	0.127068	-58.7136	-20.3904	-37.8347
 295	1	9	0.099095	-57.8409	-19.2896	-38.9189
 296	1	1	-0.024347	-40.8715	-19.754	-14.0748
 297	1	1	-0.071478	-41.6766	-19.6492	-15.2428
 298	1	1	-0.180016	-41.0385	-19.3084	-16.4692
 299	1	2	-0.370097	-38.6027	-19.8054	-11.9438
 300	1	1	0.010306	-39.4905	-19.543	-14.1788
 301	1	1	-0.071748	-39.6451	-19.1072	-16.5531
 302	1	2	-0.403598	-36.6007	-18.7802	-16.0068
 303	1	1	0.055994	-38.8929	-19.2333	-15.3831
 304	1	3	0.021521	-38.4376	-19.5682	-13.1286
 305	1	4	0.466017	-37.2484	-19.2659	-13.7946
 306	1	3	0.096621	-37.4356	-19.054	-15.1597
 307	1	1	-0.099438	-43.3773	-22.4438	-18.0582
 308	1	5	-0.089685	-43.229	-19.7948	-15.2118
 309	1	1	-0.037281	-43.697	-20.5437	-16.4981
 310	1	1	-0.08188	-42.9964	-21.7117	-16.9141
 311	1	1	-0.106561	-44.4862	-21.9969	-18.7834
 312	1	1	-0.037628	-44.8289	-20.1383	-17.2561
 313	1	1	-0.12234	-45.189	-20.8781	-18.389
 314	1	5	0.388954	-43.7968	-18.3276	-15.0993
 315	1	5	0.307788	-43.7552	-20.6518	-13.9974
 316	1	6	-0.129718	-45.1221	-18.2854	-14.8349
 317	1	6	-0.129089	-43.5889	-17.626	-16.2371
 318	1	6	-0.119089	-43.189	-17.6293	-14.1129
 319	1	6	-0.103894	-43.6668	-20.0139	-12.8088
 320	1	6	-0.097852	-43.0746	-21.814	-13.8766
 321	1	6	-0.104555	-45.0562	-20.9883	-14.1524
 322	1	3	0.521254	-46.2889	-20.6541	-19.364
 323	1	3	0.53569	-45.1136	-22.529	-20.0253
 324	1	4	0.027822	-46.1691	-21.6663	-20.3133
 325	1	2	-0.468874	-47.0889	-19.7347	-19.342
 326	1	2	-0.477974	-44.7401	-23.5003	-20.6607
 327	1	1	-0.359831	-47.0013	-21.7664	-21.4783
 328	1	1	0.131035	-46.733	-20.9414	-22.5948
 329	1	1	-0.120983	-47.5972	-20.975	-23.7138
 330	1	1	0.127261	-48.0871	-22.671	-21.4889
 331	1	1	-0.127195	-48.899	-22.7729	-22.6431
 332	1	1	0.144798	-48.6711	-21.8978	-23.7333
 333	1	5	-0.020676	-48.3738	-23.5328	-20.2523
 334	1	5	-0.019785	-45.5289	-19.9901	-22.5821
 335	1	7	0.164889	-41.2831	-19.9716	-13.0951
 336	1	7	0.175264	-41.6313	-19.181	-17.3729
 337	1	7	0.1582	-39.1626	-18.8434	-17.4918
 338	1	7	0.150763	-42.8282	-23.3293	-18.3729
 339	1	7	0.144868	-42.1378	-22.0573	-16.3437
 340	1	7	0.134072	-45.4307	-19.2737	-16.997
 341	1	5	-0.300668	-47.3613	-20.0244	-24.9011
 342	1	5	-0.243237	-50.0377	-23.8054	-22.7056
 343	1	9	0.021835	-47.8024	-24.4685	-20.2896
 344	1	9	0.012312	-49.4352	-23.7879	-20.155
 345	1	9	0.041777	-48.1164	-23.0193	-19.3192
 346	1	9	0.110598	-50.9484	-23.414	-22.232
 347	1	9	0.08293	-50.2968	-24.1043	-23.7279
 348	1	9	0.082252	-49.7682	-24.7399	-22.1981
 349	1	9	0.027698	-45.0622	-19.9117	-23.5709
 350	1	9	0.017051	-44.7288	-20.318	-21.9093
 351	1	9	0.037874	-45.8348	-18.9839	-22.27
 352	1	9	0.095908	-47.017	-19.0368	-24.5695
 353	1	9	0.127068	-46.6016	-20.4331	-25.5816
 354	1	9	0.099095	-48.2622	-19.8271	-25.4931
 355	1	1	-0.024347	-25.307	-17.8318	-8.23933
 356	1	1	-0.071478	-25.8514	-19.0562	-7.7555
 357	1	1	-0.180016	-24.9326	-20.1068	-7.4493
 358	1	2	-0.370097	-23.5041	-15.3925	-9.00338
 359	1	1	0.010306	-23.9135	-17.6788	-8.31851
 360	1	1	-0.071748	-23.5383	-19.9382	-7.55234
 361	1	2	-0.403598	-20.6499	-18.8436	-7.78001
 362	1	1	0.055994	-23.0554	-18.6994	-7.96671
 363	1	3	0.021521	-23.0887	-16.4845	-8.65447
 364	1	4	0.466017	-21.7652	-16.8779	-8.43652
 365	1	3	0.096621	-21.6582	-18.2085	-8.04338
 366	1	1	-0.099438	-28.4333	-19.328	-11.2278
 367	1	5	-0.089685	-27.3937	-19.1664	-7.47038
 368	1	1	-0.037281	-28.2237	-19.0096	-8.77968
 369	1	1	-0.08188	-27.6508	-19.2953	-10.0518
 370	1	1	-0.106561	-29.8085	-19.09	-11.1154
 371	1	1	-0.037628	-29.6183	-18.7403	-8.72226
 372	1	1	-0.12234	-30.3786	-18.7992	-9.89554
 373	1	5	0.388954	-27.7379	-18.0371	-6.41408
 374	1	5	0.307788	-27.8043	-20.5701	-6.86882
 375	1	6	-0.129718	-27.8255	-16.8192	-6.99376
 376	1	6	-0.129089	-26.7859	-17.9494	-5.4568
 377	1	6	-0.119089	-28.9044	-18.2169	-5.75669
 378	1	6	-0.103894	-27.2079	-20.8198	-5.68061
 379	1	6	-0.097852	-27.4972	-21.5784	-7.71748
 380	1	6	-0.104555	-29.1329	-20.6962	-6.65188
 381	1	3	0.521254	-31.8509	-18.6973	-10.0805
 382	1	3	0.53569	-30.9009	-19.1805	-12.127
 383	1	4	0.027822	-32.0885	-18.9587	-11.4287
 384	1	2	-0.468874	-32.6666	-18.4832	-9.20047
 385	1	2	-0.477974	-30.7637	-19.4582	-13.3063
 386	1	1	-0.359831	-33.402	-19.0366	-12.0124
 387	1	1	0.131035	-34.0043	-20.3007	-12.2212
 388	1	1	-0.120983	-35.274	-20.3809	-12.8436
 389	1	1	0.127261	-34.0869	-17.8489	-12.3599
 390	1	1	-0.127195	-35.3972	-17.9239	-12.8912
 391	1	1	0.144798	-35.9708	-19.19	-13.1628
 392	1	5	-0.020676	-33.4182	-16.4833	-12.1584
 393	1	5	-0.019785	-33.2841	-21.585	-11.7906
 394	1	7	0.164889	-25.9399	-16.9881	-8.49954
 395	1	7	0.175264	-25.2629	-21.0698	-7.07893
 396	1	7	0.1582	-22.8473	-20.7308	-7.27267
 397	1	7	0.150763	-27.9936	-19.5819	-12.1904
 398	1	7	0.144868	-26.5971	-19.5459	-10.1362
 399	1	7	0.134072	-30.135	-18.5651	-7.78411
 400	1	5	-0.300668	-35.9101	-21.7476	-13.1555
 401	1	5	-0.243237	-36.1928	-16.6433	-13.1956
 402	1	9	0.021835	-32.3251	-16.5385	-12.1154
 403	1	9	0.012312	-33.7635	-16.0141	-11.2288
 404	1	9	0.041777	-33.6427	-15.8017	-12.9874
 405	1	9	0.110598	-35.9271	-15.8158	-12.5265
 406	1	9	0.08293	-36.0195	-16.3101	-14.2276
 407	1	9	0.082252	-37.2734	-16.777	-13.0631
 408	1	9	0.027698	-32.5171	-21.4187	-11.0268
 409	1	9	0.017051	-32.7985	-22.0651	-12.6492
 410	1	9	0.037874	-33.9833	-22.3054	-11.3492
 411	1	9	0.095908	-36.536	-21.7316	-14.0556
 412	1	9	0.127068	-35.1627	-22.5272	-13.3461
 413	1	9	0.099095	-36.5381	-22.0839	-12.3191
 414	1	1	-0.024347	-9.91814	-9.48775	-8.49
 415	1	1	-0.071478	-10.7315	-10.3019	-9.32777
 416	1	1	-0.180016	-11.104	-9.77039	-10.5982
 417	1	2	-0.370097	-8.23394	-7.28011	-7.12478
 418	1	1	0.010306	-9.52641	-8.22249	-8.93442
 419	1	1	-0.071748	-10.6869	-8.49281	-11.0321
 420	1	2	-0.403598	-9.43994	-5.63773	-11.2971
 421	1	1	0.055994	-9.89001	-7.73551	-10.1713
 422	1	3	0.021521	-8.71287	-7.19426	-8.24303
 423	1	4	0.466017	-8.63608	-6.1304	-9.13856
 424	1	3	0.096621	-9.31563	-6.37309	-10.3312
 425	1	1	-0.099438	-14.9789	-10.6848	-8.89087
 426	1	5	-0.089685	-11.2122	-11.7391	-8.9201
 427	1	1	-0.037281	-12.7709	-11.8123	-8.92719
 428	1	1	-0.08188	-13.5695	-10.6317	-8.89241
 429	1	1	-0.106561	-15.5904	-11.9414	-8.87368
 430	1	1	-0.037628	-13.4399	-13.066	-8.88993
 431	1	1	-0.12234	-14.8395	-13.0961	-8.84661
 432	1	5	0.388954	-10.7415	-12.1453	-7.46786
 433	1	5	0.307788	-10.5825	-12.7426	-9.96883
 434	1	6	-0.129718	-9.39413	-12.1867	-7.35571
 435	1	6	-0.129089	-11.1867	-13.3599	-7.0765
 436	1	6	-0.119089	-11.2146	-11.2805	-6.54151
 437	1	6	-0.103894	-9.28944	-12.4403	-10.2272
 438	1	6	-0.097852	-11.2353	-12.7102	-11.1522
 439	1	6	-0.104555	-10.5921	-14.0359	-9.57941
 440	1	3	0.521254	-15.7723	-14.2512	-8.74954
 441	1	3	0.53569	-17.0303	-12.3179	-8.83693
 442	1	4	0.027822	-17.0585	-13.7098	-8.75762
 443	1	2	-0.468874	-15.452	-15.4263	-8.69204
 444	1	2	-0.477974	-17.9732	-11.5446	-8.8615
 445	1	1	-0.359831	-18.2669	-14.4888	-8.69031
 446	1	1	0.131035	-18.6553	-15.2827	-9.79729
 447	1	1	-0.120983	-19.8297	-16.069	-9.72337
 448	1	1	0.127261	-19.0559	-14.4611	-7.51381
 449	1	1	-0.127195	-20.258	-15.2086	-7.45711
 450	1	1	0.144798	-20.6288	-16.0238	-8.55495
 451	1	5	-0.020676	-18.6062	-13.651	-6.28912
 452	1	5	-0.019785	-17.7998	-15.3384	-11.0716
 453	1	7	0.164889	-9.57624	-9.79023	-7.50702
 454	1	7	0.175264	-11.7408	-10.3476	-11.2629
 455	1	7	0.1582	-10.9761	-8.09711	-12.0035
 456	1	7	0.150763	-15.5785	-9.77663	-8.87966
 457	1	7	0.144868	-13.1085	-9.6497	-8.85858
 458	1	7	0.134072	-12.8998	-14.0075	-8.86358
 459	1	5	-0.300668	-20.2001	-16.9891	-10.9012
 460	1	5	-0.243237	-21.1479	-15.1852	-6.20055
 461	1	9	0.021835	-19.2044	-12.7367	-6.18744
 462	1	9	0.012312	-17.5531	-13.3522	-6.31672
 463	1	9	0.041777	-18.7173	-14.2339	-5.36697
 464	1	9	0.110598	-20.9748	-16.0727	-5.57737
 465	1	9	0.08293	-20.9866	-14.3038	-5.5702
 466	1	9	0.082252	-22.2149	-15.1516	-6.45181
 467	1	9	0.027698	-17.0236	-14.5689	-11.1221
 468	1	9	0.017051	-18.4092	-15.1935	-11.9705
 469	1	9	0.037874	-17.2987	-16.3109	-11.1553
 470	1	9	0.095908	-20.2787	-16.4245	-11.8383
 471	1	9	0.127068	-19.4336	-17.7638	-11.0401
 472	1	9	0.099095	-21.1558	-17.5115	-10.7902
 473	1	1	-0.024347	-0.708686	1.19395	-2.99044
 474	1	1	-0.071478	-1.24849	1.68455	-4.21016
 475	1	1	-0.180016	-0.478146	1.53347	-5.39731
 476	1	2	-0.370097	1.05879	0.10866	-0.690374
 477	1	1	0.010306	0.574111	0.634701	-2.99542
 478	1	1	-0.071748	0.827626	1.00415	-5.37236
 479	1	2	-0.403598	3.67517	0.129584	-4.53344
 480	1	1	0.055994	1.33763	0.584356	-4.14289
 481	1	3	0.021521	1.41671	0.200862	-1.853
 482	1	4	0.466017	2.69405	0.0220943	-2.39064
 483	1	3	0.096621	2.71867	0.185664	-3.7765
 484	1	1	-0.099438	-4.90128	2.10136	-7.4257
 485	1	5	-0.089685	-2.58125	2.48474	-4.28835
 486	1	1	-0.037281	-3.42824	1.88708	-5.4469
 487	1	1	-0.08188	-4.07412	2.68015	-6.44009
 488	1	1	-0.106561	-5.09194	0.716532	-7.39474
 489	1	1	-0.037628	-3.62842	0.484189	-5.47351
 490	1	1	-0.12234	-4.4709	-0.0651002	-6.44405
 491	1	5	0.388954	-2.17706	3.99837	-4.5002
 492	1	5	0.307788	-3.46951	2.38244	-2.98559
 493	1	6	-0.129718	-1.6191	4.21952	-5.71232
 494	1	6	-0.129089	-1.25743	4.39881	-3.59222
 495	1	6	-0.119089	-3.22167	4.85045	-4.39439
 496	1	6	-0.103894	-3.66675	1.10298	-2.59592
 497	1	6	-0.097852	-4.70244	2.90231	-3.18408
 498	1	6	-0.104555	-2.93994	3.03546	-1.9266
 499	1	3	0.521254	-4.92785	-1.46602	-6.62053
 500	1	3	0.53569	-5.96577	-0.161515	-8.22096
 501	1	4	0.027822	-5.82926	-1.43929	-7.68164
 502	1	2	-0.468874	-4.59795	-2.41885	-5.9351
 503	1	2	-0.477974	-6.69	0.197478	-9.13407
 504	1	1	-0.359831	-6.56219	-2.59126	-8.12002
 505	1	1	0.131035	-7.91575	-2.74188	-7.7365
 506	1	1	-0.120983	-8.6326	-3.88986	-8.14706
 507	1	1	0.127261	-5.90442	-3.58741	-8.87793
 508	1	1	-0.127195	-6.58939	-4.78366	-9.19571
 509	1	1	0.144798	-7.95244	-4.91853	-8.84094
 510	1	5	-0.020676	-4.45124	-3.38411	-9.32523
 511	1	5	-0.019785	-8.6009	-1.67362	-6.87273
 512	1	7	0.164889	-1.21761	1.2916	-2.03747
 513	1	7	0.175264	-0.866446	1.89573	-6.34663
 514	1	7	0.1582	1.44716	0.971953	-6.26605
 515	1	7	0.150763	-5.40774	2.71445	-8.16895
 516	1	7	0.144868	-3.96964	3.75911	-6.45449
 517	1	7	0.134072	-3.17484	-0.16785	-4.73049
 518	1	5	-0.300668	-10.1245	-4.0516	-7.80616
 519	1	5	-0.243237	-5.88354	-5.94928	-9.90943
 520	1	9	0.021835	-3.76171	-3.93061	-8.66989
 521	1	9	0.012312	-4.14141	-2.33311	-9.32931
 522	1	9	0.041777	-4.29837	-3.73429	-10.3528
 523	1	9	0.110598	-4.79084	-5.87315	-9.90349
 524	1	9	0.08293	-6.10141	-6.90936	-9.42411
 525	1	9	0.082252	-6.20379	-6.02026	-10.9572
 526	1	9	0.027698	-7.89786	-1.10838	-6.25109
 527	1	9	0.017051	-9.31517	-2.11422	-6.16731
 528	1	9	0.037874	-9.14212	-0.955599	-7.50117
 529	1	9	0.095908	-10.2529	-4.56458	-6.84366
 530	1	9	0.127068	-10.6452	-3.0881	-7.74426
 531	1	9	0.099095	-10.6751	-4.61772	-8.56698
 532	1	1	-0.024347	11.2917	1.15984	5.14018
 533	1	1	-0.071478	12.6126	0.823245	4.75661
 534	1	1	-0.180016	13.689	1.56296	5.32609
 535	1	2	-0.370097	8.70939	2.19707	6.4111
 536	1	1	0.010306	11.0865	2.19666	6.04143
 537	1	1	-0.071748	13.4535	2.62211	6.23585
 538	1	2	-0.403598	12.1828	4.70207	8.22084
 539	1	1	0.055994	12.1285	2.92157	6.57564
 540	1	3	0.021521	9.8184	2.65184	6.63934
 541	1	4	0.466017	10.185	3.64546	7.54071
 542	1	3	0.096621	11.5593	3.90091	7.54327
 543	1	1	-0.099438	10.8796	1.58165	0.971607
 544	1	5	-0.089685	12.7836	-0.344277	3.74731
 545	1	1	-0.037281	11.7425	-0.0567014	2.61961
 546	1	1	-0.08188	11.8363	1.18137	1.92064
 547	1	1	-0.106561	9.78312	0.74585	0.763861
 548	1	1	-0.037628	10.614	-0.885056	2.35893
 549	1	1	-0.12234	9.63904	-0.437398	1.45518
 550	1	5	0.388954	12.5224	-1.68622	4.54366
 551	1	5	0.307788	14.2174	-0.433602	3.08197
 552	1	6	-0.129718	11.2918	-1.73939	5.10154
 553	1	6	-0.129089	13.3758	-1.83344	5.58213
 554	1	6	-0.119089	12.6484	-2.78292	3.76357
 555	1	6	-0.103894	14.2157	-1.29157	2.03728
 556	1	6	-0.097852	15.183	-0.854945	3.92876
 557	1	6	-0.104555	14.6543	0.748218	2.59433
 558	1	3	0.521254	8.29733	-0.998232	1.12522
 559	1	3	0.53569	8.57526	0.957834	-0.0686151
 560	1	4	0.027822	7.7148	-0.098208	0.22965
 561	1	2	-0.468874	7.80698	-2.00405	1.60894
 562	1	2	-0.477974	8.38048	1.91027	-0.8061
 563	1	1	-0.359831	6.37891	-0.182251	-0.30068
 564	1	1	0.131035	5.46835	0.86352	-0.0189439
 565	1	1	-0.120983	4.26931	0.963185	-0.757882
 566	1	1	0.127261	6.01261	-1.23183	-1.17638
 567	1	1	-0.127195	4.72423	-1.23468	-1.76385
 568	1	1	0.144798	3.88518	-0.102274	-1.61177
 569	1	5	-0.020676	7.00778	-2.35009	-1.51111
 570	1	5	-0.019785	5.78678	1.91057	1.05718
 571	1	7	0.164889	10.4249	0.619676	4.76831
 572	1	7	0.175264	14.7199	1.3226	5.08327
 573	1	7	0.1582	14.2733	3.1799	6.68346
 574	1	7	0.150763	10.9553	2.53882	0.459215
 575	1	7	0.144868	12.6365	1.87897	2.14461
 576	1	7	0.134072	10.4409	-1.82463	2.87296
 577	1	5	-0.300668	3.41694	2.24231	-0.653337
 578	1	5	-0.243237	4.26689	-2.42804	-2.61704
 579	1	9	0.021835	6.86825	-3.20874	-0.84274
 580	1	9	0.012312	8.05201	-2.02805	-1.43074
 581	1	9	0.041777	6.89362	-2.70313	-2.54235
 582	1	9	0.110598	4.62822	-2.3351	-3.6503
 583	1	9	0.08293	4.63771	-3.37987	-2.21607
 584	1	9	0.082252	3.17568	-2.53149	-2.65081
 585	1	9	0.027698	4.8825	2.2135	1.59928
 586	1	9	0.017051	6.23336	2.81113	0.618572
 587	1	9	0.037874	6.47196	1.52902	1.82296
 588	1	9	0.095908	2.65408	2.14521	0.130905
 589	1	9	0.127068	4.01931	3.12886	-0.420903
 590	1	9	0.099095	2.90646	2.49312	-1.59052
 591	1	1	-0.024347	0.464972	6.61629	16.877
 592	1	1	-0.071478	1.79252	6.66663	16.3732
 593	1	1	-0.180016	2.76412	5.7968	16.9459
 594	1	2	-0.370097	-2.20563	5.92801	18.2943
 595	1	1	0.010306	0.169619	5.72078	17.9095
 596	1	1	-0.071748	2.45158	4.92683	18.0091
 597	1	2	-0.403598	1.08481	3.31227	20.2803
 598	1	1	0.055994	1.13736	4.91804	18.4767
 599	1	3	0.021521	-1.12618	5.43289	18.5722
 600	1	4	0.466017	-0.832692	4.4696	19.538
 601	1	3	0.096621	0.516201	4.11444	19.5562
 602	1	1	-0.099438	2.92105	4.66683	12.8095
 603	1	5	-0.089685	2.23399	7.62261	15.2257
 604	1	1	-0.037281	2.92951	6.75345	14.1429
 605	1	1	-0.08188	2.33992	5.50992	13.7759
 606	1	1	-0.106561	4.10499	5.0931	12.2041
 607	1	1	-0.037628	4.11692	7.15963	13.4808
 608	1	1	-0.12234	4.67885	6.30589	12.5258
 609	1	5	0.388954	3.17948	8.70689	15.8815
 610	1	5	0.307788	1.03912	8.35521	14.5037
 611	1	6	-0.129718	3.46312	9.7438	15.0621
 612	1	6	-0.129089	4.36688	8.187	16.2677
 613	1	6	-0.119089	2.6225	9.23774	16.9938
 614	1	6	-0.103894	0.101306	7.48526	14.0646
 615	1	6	-0.097852	1.45308	9.02878	13.4064
 616	1	6	-0.104555	0.41392	9.25057	15.301
 617	1	3	0.521254	5.92411	6.45644	11.7303
 618	1	3	0.53569	4.96628	4.42106	11.1977
 619	1	4	0.027822	6.0333	5.28852	10.9824
 620	1	2	-0.468874	6.70194	7.39352	11.7817
 621	1	2	-0.477974	4.78296	3.31596	10.7158
 622	1	1	-0.359831	7.14279	4.98104	10.1344
 623	1	1	0.131035	8.21744	4.22816	10.6594
 624	1	1	-0.120983	9.25096	3.79674	9.79823
 625	1	1	0.127261	7.12404	5.38239	8.77953
 626	1	1	-0.127195	8.20087	5.02822	7.93659
 627	1	1	0.144798	9.23847	4.20596	8.44133
 628	1	5	-0.020676	5.93165	6.15456	8.19773
 629	1	5	-0.019785	8.23487	3.82145	12.1394
 630	1	7	0.164889	-0.338938	7.23702	16.496
 631	1	7	0.175264	3.78339	5.79383	16.5656