pySIMM System Object

1477 atoms
1601 bonds
2850 angles
4146 dihedrals
400 impropers

9 atom types
11 bond types
18 angle types
7 dihedral types
4 improper types

-178.689260 178.689260 xlo xhi
-178.689260 178.689260 ylo yhi
-178.689260 178.689260 zlo zhi

Masses

   1	12.01	# ca
   2	16.0	# o
   3	12.01	# c
   4	14.01	# n
   5	12.01	# c3
   6	19.0	# f
   7	1.008	# ha
   8	1.008	# hn
   9	1.008	# hc

Pair Coeffs

   1	0.086	3.3996695084235347	# ca
   2	0.21	2.959921901149463	# o
   3	0.086	3.3996695084235347	# c
   4	0.17	3.249998523775958	# n
   5	0.1094	3.3996695084235347	# c3
   6	0.061	3.1181455134911875	# f
   7	0.015	2.59964245953351	# ha
   8	0.0157	1.069078461768407	# hn
   9	0.0157	2.649532787749369	# hc

Bond Coeffs

   1	321.0	1.5156	# c3,ca
   2	300.9	1.5375	# c3,c3
   3	345.8	1.086	# ca,ha
   4	384.2	1.4121	# ca,n
   5	637.7	1.2183	# c,o
   6	330.6	1.0969	# c3,hc
   7	356.9	1.3497	# c3,f
   8	403.2	1.0129	# hn,n
   9	461.1	1.3984	# ca,ca
  10	427.6	1.3789	# c,n
  11	345.9	1.4906	# c,ca

Angle Coeffs

   1	70.89	107.36	# f,c3,f
   2	63.82	123.71	# c,n,ca
   3	68.72	122.6	# ca,c,o
   4	48.18	119.88	# ca,ca,ha
   5	67.87	120.19	# ca,ca,n
   6	67.68	115.25	# ca,c,n
   7	46.8	110.47	# ca,c3,hc
   8	48.33	117.55	# c,n,hn
   9	39.4	107.58	# hc,c3,hc
  10	74.22	123.05	# n,c,o
  11	62.86	111.51	# c3,c3,c3
  12	64.28	120.33	# c,ca,ca
  13	63.56	112.24	# ca,c3,ca
  14	63.15	112.07	# c3,c3,ca
  15	66.11	109.24	# c3,c3,f
  16	66.62	120.02	# ca,ca,ca
  17	63.74	127.08	# c,n,c
  18	63.53	120.77	# c3,ca,ca

Dihedral Coeffs

   1	2	2.5	2	180	2.0	1	0	# hn,n,c,o
   2	1	3.625	2	180	# X,ca,ca,X
   3	1	1.0	2	180	# X,c,ca,X
   4	1	0.0	2	0	# X,c3,ca,X
   5	1	0.15555555555555556	3	0	# X,c3,c3,X
   6	1	2.5	2	180	# X,c,n,X
   7	1	0.45	2	180	# X,ca,n,X

Improper Coeffs

   1	10.5	-1	2	# c,X,X,o
   2	1.1	-1	2	# n,X,X,hn
   3	1.1	-1	2	# ca,ca,ca,c3
   4	1.1	-1	2	# ca,X,X,ha

Atoms

   1	1	1	-0.024347	-43.7189	-82.5852	-3.22398
   2	1	1	-0.071478	-44.4132	-83.8204	-3.15211
   3	1	1	-0.180016	-44.6646	-84.5243	-4.36525
   4	1	2	-0.370097	-42.1278	-80.0565	-4.02596
   5	1	1	0.010306	-43.332	-82.1009	-4.47537
   6	1	1	-0.071748	-44.2715	-84.0115	-5.61912
   7	1	2	-0.403598	-43.0353	-82.3598	-7.95691
   8	1	1	0.055994	-43.6007	-82.7874	-5.64178
   9	1	3	0.021521	-42.5521	-80.8879	-4.81136
  10	1	4	0.466017	-42.3922	-80.9352	-6.19391
  11	1	3	0.096621	-43.0065	-82.0401	-6.77943
  12	1	1	-0.099438	-48.4953	-85.1545	-2.78089
  13	1	5	-0.089685	-44.8039	-84.4656	-1.79152
  14	1	1	-0.037281	-46.1561	-85.2173	-1.9687
  15	1	1	-0.08188	-47.2394	-84.542	-2.59937
  16	1	1	-0.106561	-48.6567	-86.4618	-2.31502
  17	1	1	-0.037628	-46.3715	-86.5406	-1.49891
  18	1	1	-0.12234	-47.6245	-87.1319	-1.69323
  19	1	5	0.388954	-45.0375	-83.4105	-0.640512
  20	1	5	0.307788	-43.6023	-85.4074	-1.40096
  21	1	6	-0.129718	-45.815	-82.3839	-1.05391
  22	1	6	-0.129089	-43.8968	-82.8677	-0.159849
  23	1	6	-0.119089	-45.6688	-83.9653	0.419401
  24	1	6	-0.103894	-42.4153	-84.7616	-1.46259
  25	1	6	-0.097852	-43.4968	-86.456	-2.2488
  26	1	6	-0.104555	-43.7042	-85.9029	-0.147067
  27	1	3	0.521254	-48.1107	-88.4845	-1.31249
  28	1	3	0.53569	-49.84	-87.3606	-2.35264
  29	1	4	0.027822	-49.4353	-88.5425	-1.73777
  30	1	2	-0.468874	-47.4596	-89.3505	-0.753477
  31	1	2	-0.477974	-50.9266	-87.0972	-2.83989
  32	1	1	-0.359831	-50.2877	-89.6833	-1.57672
  33	1	1	0.131035	-51.0074	-89.8465	-0.369723
  34	1	1	-0.120983	-51.9074	-90.9295	-0.241983
  35	1	1	0.127261	-50.4315	-90.6035	-2.64156
  36	1	1	-0.127195	-51.3401	-91.6767	-2.50795
  37	1	1	0.144798	-52.0634	-91.8242	-1.31348
  38	1	5	-0.020676	-49.6295	-90.4175	-3.93405
  39	1	5	-0.019785	-50.8014	-88.8399	0.767346
  40	1	7	0.164889	-43.4429	-82.0119	-2.34555
  41	1	7	0.175264	-45.1523	-85.4964	-4.34063
  42	1	7	0.1582	-44.4533	-84.5574	-6.54249
  43	1	7	0.150763	-49.3173	-84.6297	-3.26391
  44	1	7	0.144868	-47.1065	-83.5249	-2.95956
  45	1	7	0.134072	-45.6058	-87.1175	-0.991696
  46	1	5	-0.300668	-52.7376	-91.1587	1.02153
  47	1	5	-0.243237	-51.5811	-92.6787	-3.63669
  48	1	9	0.021835	-49.4627	-91.3611	-4.46467
  49	1	9	0.012312	-48.6318	-90.0046	-3.74443
  50	1	9	0.041777	-50.1506	-89.7364	-4.61729
  51	1	9	0.110598	-51.8696	-92.169	-4.56518
  52	1	9	0.08293	-50.6815	-93.2746	-3.83714
  53	1	9	0.082252	-52.3872	-93.3818	-3.39045
  54	1	9	0.027698	-51.0861	-87.8294	0.450388
  55	1	9	0.017051	-49.749	-88.8105	1.07455
  56	1	9	0.037874	-51.3809	-89.0675	1.66706
  57	1	9	0.095908	-52.0936	-91.3759	1.88348
  58	1	9	0.127068	-53.3505	-90.2801	1.26114
  59	1	9	0.099095	-53.4254	-92.0066	0.907911
  60	1	1	-0.024347	-33.9599	-70.8654	-11.0126
  61	1	1	-0.071478	-34.3175	-72.1959	-10.6659
  62	1	1	-0.180016	-33.9886	-73.2406	-11.576
  63	1	2	-0.370097	-32.8446	-68.2641	-12.2807
  64	1	1	0.010306	-33.3102	-70.6356	-12.2286
  65	1	1	-0.071748	-33.3329	-72.986	-12.7977
  66	1	2	-0.403598	-31.7946	-71.7276	-15.1916
  67	1	1	0.055994	-33.0005	-71.6636	-13.0955
  68	1	3	0.021521	-32.7717	-69.3712	-12.787
  69	1	4	0.466017	-32.1384	-69.7434	-13.9709
  70	1	3	0.096621	-32.2458	-71.1046	-14.2442
  71	1	1	-0.099438	-38.0329	-74.3288	-10.9189
  72	1	5	-0.089685	-34.9621	-72.5643	-9.29639
  73	1	1	-0.037281	-36.1193	-73.5767	-9.53435
  74	1	1	-0.08188	-36.952	-73.4526	-10.6839
  75	1	1	-0.106561	-38.291	-75.3199	-9.96636
  76	1	1	-0.037628	-36.4357	-74.5804	-8.58388
  77	1	1	-0.12234	-37.521	-75.4256	-8.828
  78	1	5	0.388954	-35.61	-71.3364	-8.55145
  79	1	5	0.307788	-33.7907	-73.1546	-8.41754
  80	1	6	-0.129718	-36.4488	-70.6553	-9.36485
  81	1	6	-0.129089	-34.6962	-70.459	-8.07927
  82	1	6	-0.119089	-36.3512	-71.7244	-7.48828
  83	1	6	-0.103894	-34.089	-73.2479	-7.10236
  84	1	6	-0.097852	-32.6777	-72.3894	-8.49566
  85	1	6	-0.104555	-33.4321	-74.3917	-8.83079
  86	1	3	0.521254	-38.0862	-76.5013	-7.97879
  87	1	3	0.53569	-39.3663	-76.3487	-9.89606
  88	1	4	0.027822	-39.1837	-76.9994	-8.67552
  89	1	2	-0.468874	-37.6638	-76.8466	-6.88814
  90	1	2	-0.477974	-40.2393	-76.5332	-10.7276
  91	1	1	-0.359831	-40.0384	-78.025	-8.14965
  92	1	1	0.131035	-41.3466	-77.6946	-7.7225
  93	1	1	-0.120983	-42.169	-78.6977	-7.15991
  94	1	1	0.127261	-39.5272	-79.3331	-7.97879
  95	1	1	-0.127195	-40.2995	-80.2977	-7.29374
  96	1	1	0.144798	-41.6231	-79.9781	-6.90884
  97	1	5	-0.020676	-38.1274	-79.6929	-8.49306
  98	1	5	-0.019785	-41.8619	-76.2537	-7.8394
  99	1	7	0.164889	-34.138	-70.015	-10.3635
 100	1	7	0.175264	-34.2242	-74.2723	-11.3247
 101	1	7	0.1582	-33.0625	-73.7892	-13.4799
 102	1	7	0.150763	-38.6643	-74.2264	-11.7996
 103	1	7	0.144868	-36.7679	-72.6599	-11.4049
 104	1	7	0.134072	-35.8849	-74.7037	-7.65776
 105	1	5	-0.300668	-43.6265	-78.3995	-6.76792
 106	1	5	-0.243237	-39.7078	-81.6772	-6.95332
 107	1	9	0.021835	-37.8121	-79.066	-9.33492
 108	1	9	0.012312	-38.0831	-80.7239	-8.86399
 109	1	9	0.041777	-37.3808	-79.5869	-7.69604
 110	1	9	0.110598	-39.9219	-82.4041	-7.74846
 111	1	9	0.08293	-38.6205	-81.6421	-6.81474
 112	1	9	0.082252	-40.0951	-82.0859	-6.01219
 113	1	9	0.027698	-42.3997	-76.1071	-8.7842
 114	1	9	0.017051	-41.0584	-75.51	-7.79141
 115	1	9	0.037874	-42.5397	-75.9929	-7.01863
 116	1	9	0.095908	-44.2793	-79.2731	-6.88569
 117	1	9	0.127068	-43.6928	-78.0668	-5.7226
 118	1	9	0.099095	-44.0776	-77.623	-7.39757
 119	1	1	-0.024347	-26.2833	-59.3835	-20.9986
 120	1	1	-0.071478	-25.9392	-60.36	-20.0237
 121	1	1	-0.180016	-24.7229	-61.0797	-20.2067
 122	1	2	-0.370097	-26.557	-57.5461	-23.4684
 123	1	1	0.010306	-25.4373	-59.1822	-22.0915
 124	1	1	-0.071748	-23.8748	-60.8489	-21.3124
 125	1	2	-0.403598	-22.5828	-59.8905	-23.9922
 126	1	1	0.055994	-24.2624	-59.8857	-22.2474
 127	1	3	0.021521	-25.6106	-58.2863	-23.2593
 128	1	4	0.466017	-24.4955	-58.5161	-24.0633
 129	1	3	0.096621	-23.6228	-59.4596	-23.5211
 130	1	1	-0.099438	-27.7002	-64.2868	-19.9209
 131	1	5	-0.089685	-26.8273	-60.6605	-18.7715
 132	1	1	-0.037281	-27.1817	-62.1767	-18.7246
 133	1	1	-0.08188	-27.2468	-62.9501	-19.9204
 134	1	1	-0.106561	-28.121	-64.8384	-18.7068
 135	1	1	-0.037628	-27.601	-62.7871	-17.514
 136	1	1	-0.12234	-28.0714	-64.1034	-17.5417
 137	1	5	0.388954	-28.2091	-59.8973	-18.7989
 138	1	5	0.307788	-25.9999	-60.1924	-17.5086
 139	1	6	-0.129718	-28.9046	-60.1828	-19.9238
 140	1	6	-0.129089	-28.0641	-58.5548	-18.7267
 141	1	6	-0.119089	-29.0242	-60.2458	-17.7776
 142	1	6	-0.103894	-25.4092	-58.9946	-17.7231
 143	1	6	-0.097852	-25.0129	-61.0647	-17.2043
 144	1	6	-0.104555	-26.7364	-60.0461	-16.385
 145	1	3	0.521254	-28.6995	-64.9016	-16.4603
 146	1	3	0.53569	-28.7752	-66.1438	-18.4066
 147	1	4	0.027822	-29.1191	-66.0872	-17.0567
 148	1	2	-0.468874	-28.8574	-64.5429	-15.3059
 149	1	2	-0.477974	-29.021	-67.0272	-19.2105
 150	1	1	-0.359831	-29.8787	-67.0799	-16.3535
 151	1	1	0.131035	-31.2821	-67.1462	-16.5264
 152	1	1	-0.120983	-32.0385	-68.0615	-15.7586
 153	1	1	0.127261	-29.2242	-67.9073	-15.4135
 154	1	1	-0.127195	-29.988	-68.7568	-14.5815
 155	1	1	0.144798	-31.3874	-68.8455	-14.7765
 156	1	5	-0.020676	-27.6963	-67.8652	-15.2876
 157	1	5	-0.019785	-31.9998	-66.2383	-17.5348
 158	1	7	0.164889	-27.1848	-58.7833	-20.9528
 159	1	7	0.175264	-24.4315	-61.8414	-19.4876
 160	1	7	0.1582	-22.9516	-61.408	-21.45
 161	1	7	0.150763	-27.7758	-64.8571	-20.8448
 162	1	7	0.144868	-26.9877	-62.5062	-20.877
 163	1	7	0.134072	-27.6427	-62.2445	-16.5754
 164	1	5	-0.300668	-33.561	-68.1589	-15.9616
 165	1	5	-0.243237	-29.314	-69.5731	-13.4644
 166	1	9	0.021835	-27.2799	-68.8484	-15.0389
 167	1	9	0.012312	-27.3861	-67.156	-14.5103
 168	1	9	0.041777	-27.2068	-67.5741	-16.2238
 169	1	9	0.110598	-28.4087	-69.0877	-13.08
 170	1	9	0.08293	-29.9557	-69.6961	-12.5835
 171	1	9	0.082252	-29.0351	-70.5734	-13.8206
 172	1	9	0.027698	-32.2875	-66.8073	-18.4278
 173	1	9	0.017051	-31.3998	-65.3868	-17.8712
 174	1	9	0.037874	-32.9105	-65.8061	-17.1035
 175	1	9	0.095908	-34.0696	-67.3069	-15.4904
 176	1	9	0.127068	-33.8259	-68.1581	-17.0268
 177	1	9	0.099095	-34.0088	-69.0706	-15.5512
 178	1	1	-0.024347	-23.4348	-51.7202	-34.653
 179	1	1	-0.071478	-24.5072	-52.4183	-35.2661
 180	1	1	-0.180016	-24.5568	-52.4549	-36.691
 181	1	2	-0.370097	-20.8454	-50.1765	-33.9336
 182	1	1	0.010306	-22.4531	-51.1369	-35.4579
 183	1	1	-0.071748	-23.5561	-51.8545	-37.4838
 184	1	2	-0.403598	-21.0147	-50.4127	-38.5699
 185	1	1	0.055994	-22.505	-51.2051	-36.8345
 186	1	3	0.021521	-21.2218	-50.4104	-35.0699
 187	1	4	0.466017	-20.5978	-50.0893	-36.2736
 188	1	3	0.096621	-21.3066	-50.5263	-37.3904
 189	1	1	-0.099438	-22.9724	-55.393	-32.6065
 190	1	5	-0.089685	-25.5801	-53.0878	-34.353
 191	1	1	-0.037281	-24.8519	-53.907	-33.2443
 192	1	1	-0.08188	-23.6495	-54.604	-33.5587
 193	1	1	-0.106561	-23.5337	-55.5068	-31.3317
 194	1	1	-0.037628	-25.394	-54.0657	-31.9408
 195	1	1	-0.12234	-24.7162	-54.8711	-31.0162
 196	1	5	0.388954	-26.5037	-54.1147	-35.1114
 197	1	5	0.307788	-26.4632	-51.9113	-33.7819
 198	1	6	-0.129718	-25.7735	-55.025	-35.7958
 199	1	6	-0.129089	-27.3453	-53.5235	-35.9896
 200	1	6	-0.119089	-27.2766	-54.8254	-34.2588
 201	1	6	-0.103894	-26.8223	-51.0447	-34.7568
 202	1	6	-0.097852	-25.7938	-51.1888	-32.8556
 203	1	6	-0.104555	-27.613	-52.3241	-33.2035
 204	1	3	0.521254	-25.09	-55.2562	-29.6293
 205	1	3	0.53569	-23.1006	-56.3057	-30.1518
 206	1	4	0.027822	-24.0915	-56.1228	-29.1887
 207	1	2	-0.468874	-26.0905	-54.8976	-29.0321
 208	1	2	-0.477974	-22.1094	-57.0134	-30.0873
 209	1	1	-0.359831	-24.1103	-56.7625	-27.9024
 210	1	1	0.131035	-24.5842	-58.0905	-27.7803
 211	1	1	-0.120983	-24.7057	-58.6743	-26.4964
 212	1	1	0.127261	-23.712	-56.0293	-26.761
 213	1	1	-0.127195	-23.845	-56.6036	-25.474
 214	1	1	0.144798	-24.3361	-57.9271	-25.3507
 215	1	5	-0.020676	-23.1577	-54.6074	-26.9233
 216	1	5	-0.019785	-24.9868	-58.9022	-29.019
 217	1	7	0.164889	-23.3447	-51.6474	-33.5718
 218	1	7	0.175264	-25.3654	-52.9516	-37.2159
 219	1	7	0.1582	-23.5883	-51.897	-38.5705
 220	1	7	0.150763	-22.0557	-55.9225	-32.8588
 221	1	7	0.144868	-23.2345	-54.5494	-34.5616
 222	1	7	0.134072	-26.3324	-53.6105	-31.6414
 223	1	5	-0.300668	-25.2316	-60.1142	-26.3337
 224	1	5	-0.243237	-23.4629	-55.7887	-24.226
 225	1	9	0.021835	-23.9623	-53.8657	-26.8461
 226	1	9	0.012312	-22.6567	-54.4576	-27.8867
 227	1	9	0.041777	-22.4024	-54.3685	-26.1662
 228	1	9	0.110598	-23.7787	-54.7413	-24.3173
 229	1	9	0.08293	-23.9297	-56.1447	-23.3014
 230	1	9	0.082252	-22.3763	-55.7995	-24.0703
 231	1	9	0.027698	-24.5019	-59.8864	-29.0135
 232	1	9	0.017051	-24.7141	-58.4386	-29.9712
 233	1	9	0.037874	-26.0721	-59.0586	-29.0429
 234	1	9	0.095908	-25.8303	-60.2493	-25.4251
 235	1	9	0.127068	-25.8909	-60.4284	-27.1505
 236	1	9	0.099095	-24.3964	-60.827	-26.2938
 237	1	1	-0.024347	-8.16997	-44.2048	-35.4781
 238	1	1	-0.071478	-9.27428	-44.3471	-36.3612
 239	1	1	-0.180016	-10.0524	-43.1894	-36.6518
 240	1	2	-0.370097	-6.1745	-43.3354	-33.2818
 241	1	1	0.010306	-7.92346	-42.9554	-34.9016
 242	1	1	-0.071748	-9.75848	-41.9297	-36.0924
 243	1	2	-0.403598	-8.69134	-39.581	-34.3591
 244	1	1	0.055994	-8.68553	-41.8463	-35.2049
 245	1	3	0.021521	-6.96505	-42.5871	-33.832
 246	1	4	0.466017	-7.22884	-41.2462	-33.5554
 247	1	3	0.096621	-8.22966	-40.7111	-34.3653
 248	1	1	-0.099438	-12.7911	-45.807	-34.534
 249	1	5	-0.089685	-9.741	-45.7233	-36.9285
 250	1	1	-0.037281	-11.1942	-45.9414	-36.4234
 251	1	1	-0.08188	-11.5109	-45.5956	-35.0777
 252	1	1	-0.106561	-13.7606	-46.3782	-35.3597
 253	1	1	-0.037628	-12.2054	-46.5358	-37.2222
 254	1	1	-0.12234	-13.4747	-46.7338	-36.6624
 255	1	5	0.388954	-8.90316	-46.9534	-36.4015
 256	1	5	0.307788	-9.60693	-45.6553	-38.5031
 257	1	6	-0.129718	-8.89353	-47.0245	-35.0506
 258	1	6	-0.129089	-7.61528	-46.9171	-36.8118
 259	1	6	-0.119089	-9.41789	-48.1346	-36.812
 260	1	6	-0.103894	-8.39881	-45.17	-38.8687
 261	1	6	-0.097852	-10.5296	-44.8452	-39.0681
 262	1	6	-0.104555	-9.73743	-46.8532	-39.1154
 263	1	3	0.521254	-14.6814	-47.3875	-37.235
 264	1	3	0.53569	-15.1555	-46.7872	-35.054
 265	1	4	0.027822	-15.6245	-47.4041	-36.2099
 266	1	2	-0.468874	-14.7771	-47.866	-38.352
 267	1	2	-0.477974	-15.7205	-46.6666	-33.98
 268	1	1	-0.359831	-16.8844	-48.0809	-36.2875
 269	1	1	0.131035	-16.9242	-49.4729	-36.0446
 270	1	1	-0.120983	-18.1574	-50.1576	-36.1183
 271	1	1	0.127261	-18.0633	-47.3551	-36.5753
 272	1	1	-0.127195	-19.3101	-48.0238	-36.5607
 273	1	1	0.144798	-19.3456	-49.4206	-36.3358
 274	1	5	-0.020676	-17.9988	-45.8523	-36.8743
 275	1	5	-0.019785	-15.6376	-50.238	-35.7015
 276	1	7	0.164889	-7.53545	-45.0322	-35.1795
 277	1	7	0.175264	-10.9293	-43.2673	-37.2889
 278	1	7	0.1582	-10.3747	-41.0567	-36.2969
 279	1	7	0.150763	-13.0142	-45.5603	-33.4975
 280	1	7	0.144868	-10.7481	-45.1762	-34.4272
 281	1	7	0.134072	-12.0251	-46.8647	-38.2409
 282	1	5	-0.300668	-18.2103	-51.6841	-35.933
 283	1	5	-0.243237	-20.627	-47.2636	-36.7962
 284	1	9	0.021835	-16.9936	-45.4977	-37.1258
 285	1	9	0.012312	-18.3461	-45.269	-36.0123
 286	1	9	0.041777	-18.6276	-45.5945	-37.7351
 287	1	9	0.110598	-20.5475	-46.1871	-36.6082
 288	1	9	0.08293	-20.9703	-47.3929	-37.8315
 289	1	9	0.082252	-21.4284	-47.6094	-36.1314
 290	1	9	0.027698	-14.8886	-49.6146	-35.2011
 291	1	9	0.017051	-15.1769	-50.65	-36.6077
 292	1	9	0.037874	-15.8247	-51.0666	-35.0091
 293	1	9	0.095908	-19.0776	-52.151	-36.414
 294	1	9	0.127068	-17.3383	-52.1781	-36.3808
 295	1	9	0.099095	-18.2364	-51.9478	-34.8671
 296	1	1	-0.024347	-2.29486	-33.2733	-23.3198
 297	1	1	-0.071478	-3.13093	-34.3376	-23.7513
 298	1	1	-0.180016	-4.53799	-34.1152	-23.7782
 299	1	2	-0.370097	-1.02588	-30.5634	-22.5492
 300	1	1	0.010306	-2.87776	-32.0476	-22.9864
 301	1	1	-0.071748	-5.10613	-32.8752	-23.4168
 302	1	2	-0.403598	-5.61795	-29.8857	-22.6865
 303	1	1	0.055994	-4.24188	-31.8476	-23.0323
 304	1	3	0.021521	-2.22552	-30.7632	-22.6381
 305	1	4	0.466017	-3.26886	-29.8486	-22.5099
 306	1	3	0.096621	-4.52329	-30.4246	-22.7065
 307	1	1	-0.099438	-3.80038	-35.0794	-27.8711
 308	1	5	-0.089685	-2.57452	-35.7099	-24.2434
 309	1	1	-0.037281	-3.16736	-35.9848	-25.6549
 310	1	1	-0.08188	-3.30237	-34.8994	-26.5676
 311	1	1	-0.106561	-4.14295	-36.3742	-28.2627
 312	1	1	-0.037628	-3.51415	-37.2883	-26.1016
 313	1	1	-0.12234	-3.99952	-37.4472	-27.4072
 314	1	5	0.388954	-2.98556	-36.7816	-23.1592
 315	1	5	0.307788	-1.00834	-35.7325	-24.4255
 316	1	6	-0.129718	-2.35431	-37.9684	-23.2994
 317	1	6	-0.129089	-4.31143	-37.0452	-23.1852
 318	1	6	-0.119089	-2.7056	-36.3466	-21.9092
 319	1	6	-0.103894	-0.342192	-35.6297	-23.2533
 320	1	6	-0.097852	-0.580396	-34.7297	-25.2265
 321	1	6	-0.104555	-0.584168	-36.873	-25.0162
 322	1	3	0.521254	-4.44347	-38.6717	-28.1288
 323	1	3	0.53569	-4.68416	-36.8684	-29.5533
 324	1	4	0.027822	-4.84522	-38.2409	-29.3926
 325	1	2	-0.468874	-4.48427	-39.8003	-27.6702
 326	1	2	-0.477974	-4.94925	-36.1869	-30.5293
 327	1	1	-0.359831	-5.42198	-39.0786	-30.4024
 328	1	1	0.131035	-6.78489	-39.4429	-30.3079
 329	1	1	-0.120983	-7.37265	-40.215	-31.3357
 330	1	1	0.127261	-4.64407	-39.4605	-31.5197
 331	1	1	-0.127195	-5.25506	-40.1456	-32.5946
 332	1	1	0.144798	-6.61378	-40.5289	-32.4912
 333	1	5	-0.020676	-3.1507	-39.1172	-31.581
 334	1	5	-0.019785	-7.63438	-39.0073	-29.1054
 335	1	7	0.164889	-1.21395	-33.3483	-23.2721
 336	1	7	0.175264	-5.20508	-34.9057	-24.1155
 337	1	7	0.1582	-6.17943	-32.7035	-23.4663
 338	1	7	0.150763	-3.90853	-34.2425	-28.5583
 339	1	7	0.144868	-3.01108	-33.8957	-26.2703
 340	1	7	0.134072	-3.40683	-38.1672	-25.4736
 341	1	5	-0.300668	-8.83818	-40.6727	-31.2143
 342	1	5	-0.243237	-4.44995	-40.4767	-33.8631
 343	1	9	0.021835	-2.97944	-38.2269	-32.1984
 344	1	9	0.012312	-2.56816	-39.9432	-32.0074
 345	1	9	0.041777	-2.71247	-38.9294	-30.5949
 346	1	9	0.110598	-3.93272	-41.4401	-33.7565
 347	1	9	0.08293	-5.07205	-40.5317	-34.7642
 348	1	9	0.082252	-3.69393	-39.7139	-34.0853
 349	1	9	0.027698	-8.62445	-38.6592	-29.4237
 350	1	9	0.017051	-7.20298	-38.1794	-28.5334
 351	1	9	0.037874	-7.77687	-39.8447	-28.4111
 352	1	9	0.095908	-9.12537	-40.877	-30.1758
 353	1	9	0.127068	-9.51963	-39.9026	-31.6029
 354	1	9	0.099095	-9.04525	-41.6041	-31.7538
 355	1	1	-0.024347	-1.32365	-17.4682	-19.6945
 356	1	1	-0.071478	-0.605194	-17.3997	-20.92
 357	1	1	-0.180016	-0.545676	-16.1422	-21.5906
 358	1	2	-0.370097	-2.95917	-16.9348	-17.0868
 359	1	1	0.010306	-1.91796	-16.3075	-19.1813
 360	1	1	-0.071748	-1.15293	-14.9875	-21.0582
 361	1	2	-0.403598	-2.59203	-12.8717	-19.3048
 362	1	1	0.055994	-1.82251	-15.0992	-19.8398
 363	1	3	0.021521	-2.67475	-16.0894	-17.9182
 364	1	4	0.466017	-2.9689	-14.7249	-17.9023
 365	1	3	0.096621	-2.49326	-14.0561	-19.0274
 366	1	1	-0.099438	-3.11122	-20.7385	-21.9113
 367	1	5	-0.089685	0.150275	-18.6699	-21.4301
 368	1	1	-0.037281	-0.830262	-19.8778	-21.4772
 369	1	1	-0.08188	-2.20632	-19.6661	-21.7773
 370	1	1	-0.106561	-2.61469	-22.037	-21.7685
 371	1	1	-0.037628	-0.370024	-21.2162	-21.3477
 372	1	1	-0.12234	-1.28239	-22.2677	-21.499
 373	1	5	0.388954	1.34909	-18.8931	-20.4251
 374	1	5	0.307788	0.720727	-18.5223	-22.8931
 375	1	6	-0.129718	0.922372	-19.399	-19.2462
 376	1	6	-0.129089	1.97778	-17.7294	-20.1401
 377	1	6	-0.119089	2.30508	-19.7318	-20.8822
 378	1	6	-0.103894	1.71454	-17.609	-22.9822
 379	1	6	-0.097852	-0.248209	-18.1674	-23.7679
 380	1	6	-0.104555	1.23031	-19.6828	-23.3658
 381	1	3	0.521254	-1.05888	-23.7394	-21.493
 382	1	3	0.53569	-3.29089	-23.3502	-21.939
 383	1	4	0.027822	-2.29684	-24.3125	-21.7784
 384	1	2	-0.468874	0.0111074	-24.3017	-21.3351
 385	1	2	-0.477974	-4.46617	-23.5219	-22.215
 386	1	1	-0.359831	-2.52317	-25.7203	-21.9479
 387	1	1	0.131035	-2.47637	-26.2725	-23.2481
 388	1	1	-0.120983	-2.8	-27.6361	-23.4413
 389	1	1	0.127261	-2.82665	-26.5279	-20.8282
 390	1	1	-0.127195	-3.05251	-27.9135	-21.0056
 391	1	1	0.144798	-3.05398	-28.4558	-22.3139
 392	1	5	-0.020676	-2.88365	-25.9144	-19.4234
 393	1	5	-0.019785	-2.082	-25.3837	-24.4353
 394	1	7	0.164889	-1.40299	-18.3959	-19.133
 395	1	7	0.175264	-0.0078477	-16.0197	-22.5241
 396	1	7	0.1582	-1.08633	-14.0256	-21.5623
 397	1	7	0.150763	-4.15854	-20.5688	-22.1537
 398	1	7	0.144868	-2.58346	-18.66	-21.9397
 399	1	7	0.134072	0.674484	-21.4578	-21.1796
 400	1	5	-0.300668	-2.86468	-28.2288	-24.8611
 401	1	5	-0.243237	-3.3164	-28.8107	-19.7848
 402	1	9	0.021835	-3.09211	-24.8391	-19.4303
 403	1	9	0.012312	-1.93274	-26.0638	-18.8971
 404	1	9	0.041777	-3.67937	-26.3628	-18.8174
 405	1	9	0.110598	-2.64365	-28.5635	-18.9533
 406	1	9	0.08293	-4.34804	-28.6889	-19.4289
 407	1	9	0.082252	-3.16211	-29.8785	-19.9759
 408	1	9	0.027698	-1.3145	-24.6506	-24.1617
 409	1	9	0.017051	-2.95041	-24.835	-24.8196
 410	1	9	0.037874	-1.64572	-25.9537	-25.2629
 411	1	9	0.095908	-3.54661	-29.0827	-24.9454
 412	1	9	0.127068	-3.24415	-27.5008	-25.5895
 413	1	9	0.099095	-1.87209	-28.5577	-25.1966
 414	1	1	-0.024347	-8.26904	-5.99964	-9.38248
 415	1	1	-0.071478	-9.15544	-6.32245	-10.4535
 416	1	1	-0.180016	-10.5472	-6.4024	-10.1327
 417	1	2	-0.370097	-6.90373	-5.08582	-6.73102
 418	1	1	0.010306	-8.78643	-5.72181	-8.10818
 419	1	1	-0.071748	-11.0426	-6.15237	-8.83779
 420	1	2	-0.403598	-11.4477	-5.47491	-5.8428
 421	1	1	0.055994	-10.1344	-5.80635	-7.84139
 422	1	3	0.021521	-8.09966	-5.28683	-6.8613
 423	1	4	0.466017	-9.11282	-5.15439	-5.90519
 424	1	3	0.096621	-10.3709	-5.46762	-6.41709
 425	1	1	-0.099438	-7.51409	-10.2433	-11.18
 426	1	5	-0.089685	-8.60655	-6.55444	-11.9166
 427	1	1	-0.037281	-7.93664	-7.95724	-12.0457
 428	1	1	-0.08188	-8.06081	-8.94854	-11.0288
 429	1	1	-0.106561	-6.85452	-10.5495	-12.3762
 430	1	1	-0.037628	-7.24471	-8.31196	-13.2349
 431	1	1	-0.12234	-6.73129	-9.60652	-13.3728
 432	1	5	0.388954	-7.55812	-5.40747	-12.2401
 433	1	5	0.307788	-9.77139	-6.49505	-12.9905
 434	1	6	-0.129718	-7.98988	-4.20489	-11.7973
 435	1	6	-0.129089	-7.27621	-5.23884	-13.5498
 436	1	6	-0.119089	-6.35936	-5.64446	-11.6625
 437	1	6	-0.103894	-10.4933	-5.35567	-12.889
 438	1	6	-0.097852	-10.6146	-7.54619	-12.8693
 439	1	6	-0.104555	-9.35909	-6.56253	-14.2754
 440	1	3	0.521254	-6.0331	-10.2351	-14.5239
 441	1	3	0.53569	-6.22353	-11.8159	-12.8532
 442	1	4	0.027822	-5.76321	-11.5475	-14.1426
 443	1	2	-0.468874	-5.78148	-9.69597	-15.588
 444	1	2	-0.477974	-6.14586	-12.8603	-12.2286
 445	1	1	-0.359831	-5.07779	-12.4816	-14.9948
 446	1	1	0.131035	-5.79308	-13.1503	-16.0164
 447	1	1	-0.120983	-5.09145	-13.9167	-16.9793
 448	1	1	0.127261	-3.67874	-12.647	-14.868
 449	1	1	-0.127195	-2.98242	-13.4616	-15.7927
 450	1	1	0.144798	-3.6868	-14.0561	-16.8684
 451	1	5	-0.020676	-2.90771	-11.9386	-13.745
 452	1	5	-0.019785	-7.3174	-13.0105	-16.1067
 453	1	7	0.164889	-7.19475	-5.93888	-9.51241
 454	1	7	0.175264	-11.2964	-6.64043	-10.8761
 455	1	7	0.1582	-12.1066	-6.2033	-8.61584
 456	1	7	0.150763	-7.62085	-10.995	-10.4004
 457	1	7	0.144868	-8.6022	-8.73741	-10.1121
 458	1	7	0.134072	-7.12632	-7.61978	-14.0629
 459	1	5	-0.300668	-5.83073	-14.5909	-18.1507
 460	1	5	-0.243237	-1.46196	-13.6488	-15.6566
 461	1	9	0.021835	-2.69958	-12.6354	-12.9236
 462	1	9	0.012312	-3.43915	-11.0816	-13.3178
 463	1	9	0.041777	-1.95002	-11.5412	-14.1005
 464	1	9	0.110598	-0.923717	-12.7666	-16.0285
 465	1	9	0.08293	-1.17013	-13.8017	-14.6097
 466	1	9	0.082252	-1.07497	-14.5221	-16.1935
 467	1	9	0.027698	-7.5954	-12.2807	-16.8772
 468	1	9	0.017051	-7.77951	-12.6922	-15.1659
 469	1	9	0.037874	-7.79151	-13.9675	-16.3552
 470	1	9	0.095908	-6.0293	-15.6479	-17.9276
 471	1	9	0.127068	-6.78999	-14.1157	-18.3854
 472	1	9	0.099095	-5.26532	-14.5483	-19.0893
 473	1	1	-0.024347	-4.29534	0.406332	4.26578
 474	1	1	-0.071478	-5.45014	-0.398352	4.45373
 475	1	1	-0.180016	-6.71175	0.251224	4.56868
 476	1	2	-0.370097	-2.21038	2.66544	3.92973
 477	1	1	0.010306	-4.44202	1.79569	4.21902
 478	1	1	-0.071748	-6.83197	1.65612	4.54632
 479	1	2	-0.403598	-6.32572	4.72771	4.57645
 480	1	1	0.055994	-5.66764	2.40782	4.38013
 481	1	3	0.021521	-3.40552	2.84673	4.09478
 482	1	4	0.466017	-4.09034	4.05289	4.2467
 483	1	3	0.096621	-5.46484	3.87905	4.40602
 484	1	1	-0.099438	-8.21863	-4.22002	3.14621
 485	1	5	-0.089685	-5.38683	-1.94486	4.61242
 486	1	1	-0.037281	-6.45468	-2.56338	3.66524
 487	1	1	-0.08188	-7.34382	-3.60307	4.06426
 488	1	1	-0.106561	-8.18449	-3.79426	1.81487
 489	1	1	-0.037628	-6.47919	-2.14224	2.31066
 490	1	1	-0.12234	-7.33935	-2.78259	1.4119
 491	1	5	0.388954	-5.62896	-2.24874	6.14402
 492	1	5	0.307788	-4.00079	-2.57563	4.18903
 493	1	6	-0.129718	-6.89209	-1.95892	6.53061
 494	1	6	-0.129089	-4.81991	-1.50467	6.93242
 495	1	6	-0.119089	-5.40656	-3.54086	6.47536
 496	1	6	-0.103894	-3.60279	-2.16848	2.96256
 497	1	6	-0.097852	-4.06877	-3.92506	4.12399
 498	1	6	-0.104555	-2.99656	-2.27993	5.04494
 499	1	3	0.521254	-7.43074	-2.66211	-0.066899
 500	1	3	0.53569	-8.85311	-4.35242	0.608188
 501	1	4	0.027822	-8.31246	-3.66126	-0.475904
 502	1	2	-0.468874	-6.77854	-1.90267	-0.76277
 503	1	2	-0.477974	-9.61117	-5.30764	0.588672
 504	1	1	-0.359831	-8.52263	-4.02827	-1.84978
 505	1	1	0.131035	-7.93172	-5.21484	-2.34436
 506	1	1	-0.120983	-8.18458	-5.62379	-3.67492
 507	1	1	0.127261	-9.29614	-3.20376	-2.69747
 508	1	1	-0.127195	-9.42736	-3.5364	-4.06715
 509	1	1	0.144798	-8.89848	-4.76362	-4.54642
 510	1	5	-0.020676	-9.99306	-1.95443	-2.14352
 511	1	5	-0.019785	-7.02953	-6.06438	-1.43818
 512	1	7	0.164889	-3.29379	-0.00277109	4.18632
 513	1	7	0.175264	-7.61368	-0.338235	4.71497
 514	1	7	0.1582	-7.79229	2.14952	4.67939
 515	1	7	0.150763	-8.86418	-5.04248	3.44869
 516	1	7	0.144868	-7.34805	-3.98088	5.08029
 517	1	7	0.134072	-5.79987	-1.37605	1.94385
 518	1	5	-0.300668	-7.67994	-6.9905	-4.17059
 519	1	5	-0.243237	-10.1666	-2.57896	-5.01763
 520	1	9	0.021835	-9.43994	-1.04566	-2.41041
 521	1	9	0.012312	-10.1043	-1.96622	-1.05352
 522	1	9	0.041777	-11.0107	-1.86157	-2.54243
 523	1	9	0.110598	-9.82276	-2.65349	-6.05589
 524	1	9	0.08293	-11.2472	-2.77537	-5.00797
 525	1	9	0.082252	-10.0173	-1.52757	-4.74305
 526	1	9	0.027698	-6.51966	-5.4704	-0.671204
 527	1	9	0.017051	-6.22593	-6.55276	-2.00166
 528	1	9	0.037874	-7.61046	-6.84339	-0.929382
 529	1	9	0.095908	-6.66002	-6.90919	-4.57052
 530	1	9	0.127068	-7.6667	-7.74146	-3.37073
 531	1	9	0.099095	-8.31279	-7.42319	-4.95414
 532	1	1	-0.024347	4.46453	12.5757	5.21656
 533	1	1	-0.071478	4.12251	13.5056	4.20158
 534	1	1	-0.180016	4.70584	14.8046	4.25359
 535	1	2	-0.370097	5.76048	10.9559	7.50634
 536	1	1	0.010306	5.36611	12.9549	6.21361
 537	1	1	-0.071748	5.61057	15.1681	5.27525
 538	1	2	-0.403598	7.67295	15.1863	7.61584
 539	1	1	0.055994	5.93069	14.213	6.24418
 540	1	3	0.021521	5.99142	12.1308	7.27416
 541	1	4	0.466017	6.94379	12.96	7.86334
 542	1	3	0.096621	6.94587	14.2488	7.33065
 543	1	1	-0.099438	0.187776	12.168	5.30014
 544	1	5	-0.089685	3.22339	13.0204	3.02767
 545	1	1	-0.037281	2.02489	12.2372	3.63716
 546	1	1	-0.08188	1.29807	12.8143	4.71746
 547	1	1	-0.106561	-0.187829	10.9232	4.78579
 548	1	1	-0.037628	1.59894	10.9788	3.13889
 549	1	1	-0.12234	0.503268	10.3512	3.73873
 550	1	5	0.388954	4.15246	12.1407	2.10047
 551	1	5	0.307788	2.59756	14.1843	2.16691
 552	1	6	-0.129718	4.52979	10.9907	2.70483
 553	1	6	-0.129089	5.29983	12.786	1.78926
 554	1	6	-0.119089	3.57146	11.802	0.927075
 555	1	6	-0.103894	1.63563	13.7213	1.33568
 556	1	6	-0.097852	3.50095	14.8228	1.38924
 557	1	6	-0.104555	2.0062	15.1237	2.93875
 558	1	3	0.521254	-0.118667	9.0408	3.43013
 559	1	3	0.53569	-1.2852	9.99589	5.18076
 560	1	4	0.027822	-1.16902	8.89647	4.33165
 561	1	2	-0.468874	0.247439	8.26103	2.56716
 562	1	2	-0.477974	-2.08666	10.171	6.08326
 563	1	1	-0.359831	-1.99624	7.72635	4.37787
 564	1	1	0.131035	-1.78995	6.76588	5.39253
 565	1	1	-0.120983	-2.57454	5.59043	5.40633
 566	1	1	0.127261	-2.94785	7.51058	3.35608
 567	1	1	-0.127195	-3.61473	6.2659	3.27677
 568	1	1	0.144798	-3.43288	5.31555	4.31184
 569	1	5	-0.020676	-3.22289	8.61335	2.32659
 570	1	5	-0.019785	-0.709279	6.99905	6.45692
 571	1	7	0.164889	4.08746	11.5556	5.20789
 572	1	7	0.175264	4.50246	15.5415	3.4835
 573	1	7	0.1582	6.08894	16.1452	5.28839
 574	1	7	0.150763	-0.362144	12.6189	6.12406
 575	1	7	0.144868	1.59514	13.7832	5.11116
 576	1	7	0.134072	2.08705	10.4764	2.31043
 577	1	5	-0.300668	-2.46602	4.60125	6.57998
 578	1	5	-0.243237	-4.52214	5.94146	2.07803
 579	1	9	0.021835	-2.56749	8.5098	1.45331
 580	1	9	0.012312	-3.07246	9.61636	2.74394
 581	1	9	0.041777	-4.26223	8.59796	1.9785
 582	1	9	0.110598	-5.56353	6.22314	2.28595
 583	1	9	0.08293	-4.21017	6.46317	1.16518
 584	1	9	0.082252	-4.50895	4.87686	1.81466
 585	1	9	0.027698	-0.32984	6.0647	6.88525
 586	1	9	0.017051	-1.09428	7.6164	7.27766
 587	1	9	0.037874	0.173067	7.50079	6.04305
 588	1	9	0.095908	-1.63719	3.89705	6.42497
 589	1	9	0.127068	-2.29667	5.11576	7.53411
 590	1	9	0.099095	-3.37913	4.01413	6.73304
 591	1	1	-0.024347	18.4344	9.08536	11.1675
 592	1	1	-0.071478	17.0491	9.31348	11.4004
 593	1	1	-0.180016	16.275	9.87525	10.3412
 594	1	2	-0.370097	21.3587	9.00894	10.0414
 595	1	1	0.010306	18.97	9.39482	9.90615
 596	1	1	-0.071748	16.8269	10.1588	9.08117
 597	1	2	-0.403598	18.6519	10.6914	6.66241
 598	1	1	0.055994	18.1812	9.90458	8.89382
 599	1	3	0.021521	20.3754	9.36118	9.41178
 600	1	4	0.466017	20.3153	9.87713	8.11375
 601	1	3	0.096621	19.0252	10.207	7.71874
 602	1	1	-0.099438	13.0609	7.68018	11.3607
 603	1	5	-0.089685	16.3927	9.07775	12.7953
 604	1	1	-0.037281	14.8497	8.90784	12.5657
 605	1	1	-0.08188	14.3838	7.77861	11.8295
 606	1	1	-0.106561	12.1995	8.74913	11.6069
 607	1	1	-0.037628	13.9084	9.93943	12.851
 608	1	1	-0.12234	12.6114	9.84726	12.3299
 609	1	5	0.388954	16.7481	10.3361	13.6814
 610	1	5	0.307788	16.9297	7.77186	13.5162
 611	1	6	-0.129718	16.1493	10.2832	14.8926
 612	1	6	-0.129089	16.3873	11.4951	13.0848
 613	1	6	-0.119089	18.0749	10.4787	13.8981
 614	1	6	-0.103894	17.0623	6.72959	12.6669
 615	1	6	-0.097852	16.0886	7.37791	14.4991
 616	1	6	-0.104555	18.1441	7.90321	14.0923
 617	1	3	0.521254	11.5894	10.919	12.1654
 618	1	3	0.53569	10.8972	9.06413	10.9706
 619	1	4	0.027822	10.6558	10.4042	11.2672
 620	1	2	-0.468874	11.7074	12.0731	12.539
 621	1	2	-0.477974	10.3292	8.36698	10.1469
 622	1	1	-0.359831	9.75277	11.2025	10.4864
 623	1	1	0.131035	10.146	11.5481	9.1723
 624	1	1	-0.120983	9.20808	12.1281	8.28986
 625	1	1	0.127261	8.47606	11.5568	10.9769
 626	1	1	-0.127195	7.57111	12.2401	10.1286
 627	1	1	0.144798	7.92026	12.468	8.77478
 628	1	5	-0.020676	8.06602	11.1902	12.4075
 629	1	5	-0.019785	11.5764	11.2407	8.70099