
Host: node50

Timers On : Mon Dec 12 15:11:50 2022
Timers Off: Mon Dec 12 15:30:04 2022

Wall Time:     1093.55 seconds

                                                       Time (seconds)
Module                                       User      System        Wall        Calls

--------------------------------------------------------------------------------------

**************************************************************************************
