

################################################################################
##################################    Init    ##################################
################################################################################
units           real
atom_style      full
pair_style      lj/cut/coul/long 12.0  12.0
kspace_style    pppm 1e-4
bond_style      harmonic
angle_style     harmonic
dihedral_style  fourier
improper_style  cvff
special_bonds   amber
pair_modify     mix arithmetic
read_data       temp.lmps
  orthogonal box = (-97.6598 -97.6598 -97.6598) to (97.6598 97.6598 97.6598)
  1 by 1 by 1 MPI processor grid
  reading atoms ...
  634 atoms
  reading velocities ...
  634 velocities
  scanning bonds ...
  3 = max bonds/atom
  scanning angles ...
  6 = max angles/atom
  scanning dihedrals ...
  24 = max dihedrals/atom
  scanning impropers ...
  1 = max impropers/atom
  reading bonds ...
  752 bonds
  reading angles ...
  1560 angles
  reading dihedrals ...
  2968 dihedrals
  reading impropers ...
  60 impropers
  4 = max # of 1-2 neighbors
  10 = max # of 1-3 neighbors
  23 = max # of 1-4 neighbors
  21 = max # of special neighbors
  special bonds CPU = 0.000752926 secs
  read_data CPU = 0.0114648 secs
################################################################################

min_style cg
minimize 1e-06 1e-06 1000000 10000000
WARNING: Using 'neigh_modify every 1 delay 0 check yes' setting during minimization (../min.cpp:190)
PPPM initialization ...
WARNING: System is not charge neutral, net charge = -2e-05 (../kspace.cpp:313)
  using 12-bit tables for long-range coulomb (../kspace.cpp:332)
  G vector (1/distance) = 0.144878
  grid = 32 32 32
  stencil order = 5
  estimated absolute RMS force accuracy = 0.00206583
  estimated relative force accuracy = 6.22118e-06
  using double precision KISS FFT
  3d grid and FFT values/proc = 50653 32768
Neighbor list info ...
  update every 1 steps, delay 0 steps, check yes
  max neighbors/atom: 2000, page size: 100000
  master list distance cutoff = 14
  ghost atom cutoff = 14
  binsize = 7, bins = 28 28 28
  1 neighbor lists, perpetual/occasional/extra = 1 0 0
  (1) pair lj/cut/coul/long, perpetual
      attributes: half, newton on
      pair build: half/bin/newton
      stencil: half/bin/3d/newton
      bin: standard
Per MPI rank memory allocation (min/avg/max) = 23.41 | 23.41 | 23.41 Mbytes
Step Temp E_pair E_mol TotEng Press 
       0    200.75084    252.89282     4811.809    5443.4891   -2.6921534 
     356    200.75084    240.51208    4454.2294    5073.5287    2.1396613 
Loop time of 7.37962 on 1 procs for 356 steps with 634 atoms

99.7% CPU use with 1 MPI tasks x no OpenMP threads

Minimization stats:
  Stopping criterion = linesearch alpha is zero
  Energy initial, next-to-last, final = 
         5064.70182365      4694.74145299      4694.74145299
  Force two-norm initial, final = 859.181 5.6616
  Force max component initial, final = 310.762 0.689864
  Final line search alpha, max atom move = 3.20935e-10 2.21402e-10
  Iterations, force evaluations = 356 761

MPI task timing breakdown:
Section |  min time  |  avg time  |  max time  |%varavg| %total
---------------------------------------------------------------
Pair    | 0.9553     | 0.9553     | 0.9553     |   0.0 | 12.95
Bond    | 0.2956     | 0.2956     | 0.2956     |   0.0 |  4.01
Kspace  | 6.1051     | 6.1051     | 6.1051     |   0.0 | 82.73
Neigh   | 0.0051286  | 0.0051286  | 0.0051286  |   0.0 |  0.07
Comm    | 0.00063586 | 0.00063586 | 0.00063586 |   0.0 |  0.01
Output  | 0          | 0          | 0          |   0.0 |  0.00
Modify  | 0          | 0          | 0          |   0.0 |  0.00
Other   |            | 0.01782    |            |       |  0.24

Nlocal:    634 ave 634 max 634 min
Histogram: 1 0 0 0 0 0 0 0 0 0
Nghost:    0 ave 0 max 0 min
Histogram: 1 0 0 0 0 0 0 0 0 0
Neighs:    33474 ave 33474 max 33474 min
Histogram: 1 0 0 0 0 0 0 0 0 0

Total # of neighbors = 33474
Ave neighs/atom = 52.7981
Ave special neighs/atom = 13.9811
Neighbor list builds = 4
Dangerous builds = 0
write_dump all custom pysimm.dump.tmp id q x y z vx vy vz
quit


################################################################################
##################################    Init    ##################################
################################################################################
units           real
atom_style      full
pair_style      lj/cut/coul/long 12.0  12.0
kspace_style    pppm 1e-4
bond_style      harmonic
angle_style     harmonic
dihedral_style  fourier
improper_style  cvff
special_bonds   amber
pair_modify     mix arithmetic
read_data       temp.lmps
  orthogonal box = (-123.044 -123.044 -123.044) to (123.044 123.044 123.044)
  1 by 1 by 1 MPI processor grid
  reading atoms ...
  699 atoms
  reading velocities ...
  699 velocities
  scanning bonds ...
  3 = max bonds/atom
  scanning angles ...
  6 = max angles/atom
  scanning dihedrals ...
  24 = max dihedrals/atom
  scanning impropers ...
  1 = max impropers/atom
  reading bonds ...
  828 bonds
  reading angles ...
  1716 angles
  reading dihedrals ...
  3260 dihedrals
  reading impropers ...
  66 impropers
  4 = max # of 1-2 neighbors
  10 = max # of 1-3 neighbors
  23 = max # of 1-4 neighbors
  22 = max # of special neighbors
  special bonds CPU = 0.000818968 secs
  read_data CPU = 0.0112119 secs
################################################################################

min_style cg
minimize 1e-06 1e-06 1000000 10000000
WARNING: Using 'neigh_modify every 1 delay 0 check yes' setting during minimization (../min.cpp:190)
PPPM initialization ...
WARNING: System is not charge neutral, net charge = -2.2e-05 (../kspace.cpp:313)
  using 12-bit tables for long-range coulomb (../kspace.cpp:332)
  G vector (1/distance) = 0.144249
  grid = 40 40 40
  stencil order = 5
  estimated absolute RMS force accuracy = 0.0015714
  estimated relative force accuracy = 4.73223e-06
  using double precision KISS FFT
  3d grid and FFT values/proc = 91125 64000
Neighbor list info ...
  update every 1 steps, delay 0 steps, check yes
  max neighbors/atom: 2000, page size: 100000
  master list distance cutoff = 14
  ghost atom cutoff = 14
  binsize = 7, bins = 36 36 36
  1 neighbor lists, perpetual/occasional/extra = 1 0 0
  (1) pair lj/cut/coul/long, perpetual
      attributes: half, newton on
      pair build: half/bin/newton
      stencil: half/bin/3d/newton
      bin: standard
Per MPI rank memory allocation (min/avg/max) = 27.79 | 27.79 | 27.79 Mbytes
Step Temp E_pair E_mol TotEng Press 
       0     1123.417    283.86372    5560.6821    8181.9333   0.72395271 
     627     1123.417     271.5324    4891.1639    7500.0838    7.2753773 
Loop time of 21.3718 on 1 procs for 627 steps with 699 atoms

99.7% CPU use with 1 MPI tasks x no OpenMP threads

Minimization stats:
  Stopping criterion = linesearch alpha is zero
  Energy initial, next-to-last, final = 
          5844.5457793      5162.69627204      5162.69627204
  Force two-norm initial, final = 1047.14 7.12525
  Force max component initial, final = 279.556 0.818749
  Final line search alpha, max atom move = 1.93737e-10 1.58622e-10
  Iterations, force evaluations = 627 1303

MPI task timing breakdown:
Section |  min time  |  avg time  |  max time  |%varavg| %total
---------------------------------------------------------------
Pair    | 1.9729     | 1.9729     | 1.9729     |   0.0 |  9.23
Bond    | 0.55331    | 0.55331    | 0.55331    |   0.0 |  2.59
Kspace  | 18.782     | 18.782     | 18.782     |   0.0 | 87.88
Neigh   | 0.028328   | 0.028328   | 0.028328   |   0.0 |  0.13
Comm    | 0.0014913  | 0.0014913  | 0.0014913  |   0.0 |  0.01
Output  | 0          | 0          | 0          |   0.0 |  0.00
Modify  | 0          | 0          | 0          |   0.0 |  0.00
Other   |            | 0.03419    |            |       |  0.16

Nlocal:    699 ave 699 max 699 min
Histogram: 1 0 0 0 0 0 0 0 0 0
Nghost:    0 ave 0 max 0 min
Histogram: 1 0 0 0 0 0 0 0 0 0
Neighs:    40547 ave 40547 max 40547 min
Histogram: 1 0 0 0 0 0 0 0 0 0

Total # of neighbors = 40547
Ave neighs/atom = 58.0072
Ave special neighs/atom = 13.9685
Neighbor list builds = 18
Dangerous builds = 0
write_dump all custom pysimm.dump.tmp id q x y z vx vy vz
quit


################################################################################
##################################    Init    ##################################
################################################################################
units           real
atom_style      full
pair_style      lj/cut/coul/long 12.0  12.0
kspace_style    pppm 1e-4
bond_style      harmonic
angle_style     harmonic
dihedral_style  fourier
improper_style  cvff
special_bonds   amber
pair_modify     mix arithmetic
read_data       temp.lmps
  orthogonal box = (-127.016 -127.016 -127.016) to (127.016 127.016 127.016)
  1 by 1 by 1 MPI processor grid
  reading atoms ...
  764 atoms
  reading velocities ...
  764 velocities
  scanning bonds ...
  3 = max bonds/atom
  scanning angles ...
  6 = max angles/atom
  scanning dihedrals ...
  24 = max dihedrals/atom
  scanning impropers ...
  1 = max impropers/atom
  reading bonds ...
  904 bonds
  reading angles ...
  1872 angles
  reading dihedrals ...
  3552 dihedrals
  reading impropers ...
  72 impropers
  4 = max # of 1-2 neighbors
  10 = max # of 1-3 neighbors
  23 = max # of 1-4 neighbors
  22 = max # of special neighbors
  special bonds CPU = 0.000879049 secs
  read_data CPU = 0.012825 secs
################################################################################

min_style cg
minimize 1e-06 1e-06 1000000 10000000
WARNING: Using 'neigh_modify every 1 delay 0 check yes' setting during minimization (../min.cpp:190)
PPPM initialization ...
WARNING: System is not charge neutral, net charge = -2.4e-05 (../kspace.cpp:313)
  using 12-bit tables for long-range coulomb (../kspace.cpp:332)
  G vector (1/distance) = 0.141747
  grid = 40 40 40
  stencil order = 5
  estimated absolute RMS force accuracy = 0.00173729
  estimated relative force accuracy = 5.23179e-06
  using double precision KISS FFT
  3d grid and FFT values/proc = 91125 64000
Neighbor list info ...
  update every 1 steps, delay 0 steps, check yes
  max neighbors/atom: 2000, page size: 100000
  master list distance cutoff = 14
  ghost atom cutoff = 14
  binsize = 7, bins = 37 37 37
  1 neighbor lists, perpetual/occasional/extra = 1 0 0
  (1) pair lj/cut/coul/long, perpetual
      attributes: half, newton on
      pair build: half/bin/newton
      stencil: half/bin/3d/newton
      bin: standard
Per MPI rank memory allocation (min/avg/max) = 27.82 | 27.82 | 27.82 Mbytes
Step Temp E_pair E_mol TotEng Press 
       0     1259.758    456.02954    6102.7132    9423.8836    4.6664345 
     585     1259.758    299.12812    5231.2387    8395.5077     8.064699 
Loop time of 19.9611 on 1 procs for 585 steps with 764 atoms

99.7% CPU use with 1 MPI tasks x no OpenMP threads

Minimization stats:
  Stopping criterion = linesearch alpha is zero
  Energy initial, next-to-last, final = 
         6558.74274921      5530.36682971      5530.36682971
  Force two-norm initial, final = 2007.93 8.56266
  Force max component initial, final = 1035.63 0.888518
  Final line search alpha, max atom move = 1.49629e-10 1.32948e-10
  Iterations, force evaluations = 585 1218

MPI task timing breakdown:
Section |  min time  |  avg time  |  max time  |%varavg| %total
---------------------------------------------------------------
Pair    | 1.9279     | 1.9279     | 1.9279     |   0.0 |  9.66
Bond    | 0.55255    | 0.55255    | 0.55255    |   0.0 |  2.77
Kspace  | 17.422     | 17.422     | 17.422     |   0.0 | 87.28
Neigh   | 0.022745   | 0.022745   | 0.022745   |   0.0 |  0.11
Comm    | 0.0013871  | 0.0013871  | 0.0013871  |   0.0 |  0.01
Output  | 0          | 0          | 0          |   0.0 |  0.00
Modify  | 0          | 0          | 0          |   0.0 |  0.00
Other   |            | 0.03416    |            |       |  0.17

Nlocal:    764 ave 764 max 764 min
Histogram: 1 0 0 0 0 0 0 0 0 0
Nghost:    0 ave 0 max 0 min
Histogram: 1 0 0 0 0 0 0 0 0 0
Neighs:    44101 ave 44101 max 44101 min
Histogram: 1 0 0 0 0 0 0 0 0 0

Total # of neighbors = 44101
Ave neighs/atom = 57.7238
Ave special neighs/atom = 13.9581
Neighbor list builds = 14
Dangerous builds = 0
write_dump all custom pysimm.dump.tmp id q x y z vx vy vz
quit


################################################################################
##################################    Init    ##################################
################################################################################
units           real
atom_style      full
pair_style      lj/cut/coul/long 12.0  12.0
kspace_style    pppm 1e-4
bond_style      harmonic
angle_style     harmonic
dihedral_style  fourier
improper_style  cvff
special_bonds   amber
pair_modify     mix arithmetic
read_data       temp.lmps
  orthogonal box = (-130.753 -130.753 -130.753) to (130.753 130.753 130.753)
  1 by 1 by 1 MPI processor grid
  reading atoms ...
  829 atoms
  reading velocities ...
  829 velocities
  scanning bonds ...
  3 = max bonds/atom
  scanning angles ...
  6 = max angles/atom
  scanning dihedrals ...
  24 = max dihedrals/atom
  scanning impropers ...
  1 = max impropers/atom
  reading bonds ...
  980 bonds
  reading angles ...
  2028 angles
  reading dihedrals ...
  3844 dihedrals
  reading impropers ...
  78 impropers
  4 = max # of 1-2 neighbors
  10 = max # of 1-3 neighbors
  23 = max # of 1-4 neighbors
  22 = max # of special neighbors
  special bonds CPU = 0.000911951 secs
  read_data CPU = 0.0135369 secs
################################################################################

min_style cg
minimize 1e-06 1e-06 1000000 10000000
WARNING: Using 'neigh_modify every 1 delay 0 check yes' setting during minimization (../min.cpp:190)
PPPM initialization ...
WARNING: System is not charge neutral, net charge = -2.6e-05 (../kspace.cpp:313)
  using 12-bit tables for long-range coulomb (../kspace.cpp:332)
  G vector (1/distance) = 0.148813
  grid = 45 45 45
  stencil order = 5
  estimated absolute RMS force accuracy = 0.00128259
  estimated relative force accuracy = 3.86249e-06
  using double precision KISS FFT
  3d grid and FFT values/proc = 125000 91125
Neighbor list info ...
  update every 1 steps, delay 0 steps, check yes
  max neighbors/atom: 2000, page size: 100000
  master list distance cutoff = 14
  ghost atom cutoff = 14
  binsize = 7, bins = 38 38 38
  1 neighbor lists, perpetual/occasional/extra = 1 0 0
  (1) pair lj/cut/coul/long, perpetual
      attributes: half, newton on
      pair build: half/bin/newton
      stencil: half/bin/3d/newton
      bin: standard
Per MPI rank memory allocation (min/avg/max) = 31.43 | 31.43 | 31.43 Mbytes
Step Temp E_pair E_mol TotEng Press 
       0    1097.9698    5624.4975     6668.484    15002.893     82.93858 
     621    1097.9698    312.64713    5602.1447     8624.703    6.8524002 
Loop time of 29.3883 on 1 procs for 621 steps with 829 atoms

99.7% CPU use with 1 MPI tasks x no OpenMP threads

Minimization stats:
  Stopping criterion = linesearch alpha is zero
  Energy initial, next-to-last, final = 
         12292.9815342      5914.79183178      5914.79183178
  Force two-norm initial, final = 87748.7 6.30781
  Force max component initial, final = 58404.9 0.655644
  Final line search alpha, max atom move = 1.67922e-10 1.10097e-10
  Iterations, force evaluations = 621 1291

MPI task timing breakdown:
Section |  min time  |  avg time  |  max time  |%varavg| %total
---------------------------------------------------------------
Pair    | 2.4769     | 2.4769     | 2.4769     |   0.0 |  8.43
Bond    | 0.63625    | 0.63625    | 0.63625    |   0.0 |  2.16
Kspace  | 26.201     | 26.201     | 26.201     |   0.0 | 89.15
Neigh   | 0.034702   | 0.034702   | 0.034702   |   0.0 |  0.12
Comm    | 0.0015194  | 0.0015194  | 0.0015194  |   0.0 |  0.01
Output  | 0          | 0          | 0          |   0.0 |  0.00
Modify  | 0          | 0          | 0          |   0.0 |  0.00
Other   |            | 0.03821    |            |       |  0.13

Nlocal:    829 ave 829 max 829 min
Histogram: 1 0 0 0 0 0 0 0 0 0
Nghost:    0 ave 0 max 0 min
Histogram: 1 0 0 0 0 0 0 0 0 0
Neighs:    54014 ave 54014 max 54014 min
Histogram: 1 0 0 0 0 0 0 0 0 0

Total # of neighbors = 54014
Ave neighs/atom = 65.1556
Ave special neighs/atom = 13.9493
Neighbor list builds = 17
Dangerous builds = 0
write_dump all custom pysimm.dump.tmp id q x y z vx vy vz
quit


################################################################################
##################################    Init    ##################################
################################################################################
units           real
atom_style      full
pair_style      lj/cut/coul/long 12.0  12.0
kspace_style    pppm 1e-4
bond_style      harmonic
angle_style     harmonic
dihedral_style  fourier
improper_style  cvff
special_bonds   amber
pair_modify     mix arithmetic
read_data       temp.lmps
  orthogonal box = (-134.289 -134.289 -134.289) to (134.289 134.289 134.289)
  1 by 1 by 1 MPI processor grid
  reading atoms ...
  894 atoms
  reading velocities ...
  894 velocities
  scanning bonds ...
  3 = max bonds/atom
  scanning angles ...
  6 = max angles/atom
  scanning dihedrals ...
  24 = max dihedrals/atom
  scanning impropers ...
  1 = max impropers/atom
  reading bonds ...
  1056 bonds
  reading angles ...
  2184 angles
  reading dihedrals ...
  4136 dihedrals
  reading impropers ...
  84 impropers
  4 = max # of 1-2 neighbors
  10 = max # of 1-3 neighbors
  23 = max # of 1-4 neighbors
  22 = max # of special neighbors
  special bonds CPU = 0.00132012 secs
  read_data CPU = 0.014221 secs
################################################################################

min_style cg
minimize 1e-06 1e-06 1000000 10000000
WARNING: Using 'neigh_modify every 1 delay 0 check yes' setting during minimization (../min.cpp:190)
PPPM initialization ...
WARNING: System is not charge neutral, net charge = -2.8e-05 (../kspace.cpp:313)
  using 12-bit tables for long-range coulomb (../kspace.cpp:332)
  G vector (1/distance) = 0.14667
  grid = 45 45 45
  stencil order = 5
  estimated absolute RMS force accuracy = 0.00140023
  estimated relative force accuracy = 4.21676e-06
  using double precision KISS FFT
  3d grid and FFT values/proc = 125000 91125
Neighbor list info ...
  update every 1 steps, delay 0 steps, check yes
  max neighbors/atom: 2000, page size: 100000
  master list distance cutoff = 14
  ghost atom cutoff = 14
  binsize = 7, bins = 39 39 39
  1 neighbor lists, perpetual/occasional/extra = 1 0 0
  (1) pair lj/cut/coul/long, perpetual
      attributes: half, newton on
      pair build: half/bin/newton
      stencil: half/bin/3d/newton
      bin: standard
Per MPI rank memory allocation (min/avg/max) = 31.46 | 31.46 | 31.46 Mbytes
Step Temp E_pair E_mol TotEng Press 
       0    918.94685    431.95838    7185.2944    10063.364   0.29253499 
     607    918.94685    343.47831    5998.5028    8788.0921    5.6798559 
Loop time of 28.9176 on 1 procs for 607 steps with 894 atoms

99.7% CPU use with 1 MPI tasks x no OpenMP threads

Minimization stats:
  Stopping criterion = linesearch alpha is zero
  Energy initial, next-to-last, final = 
         7617.25274242      6341.98112865      6341.98112865
  Force two-norm initial, final = 1627.01 11.1687
  Force max component initial, final = 528.498 1.11413
  Final line search alpha, max atom move = 5.35382e-11 5.96485e-11
  Iterations, force evaluations = 607 1264

MPI task timing breakdown:
Section |  min time  |  avg time  |  max time  |%varavg| %total
---------------------------------------------------------------
Pair    | 2.5756     | 2.5756     | 2.5756     |   0.0 |  8.91
Bond    | 0.66834    | 0.66834    | 0.66834    |   0.0 |  2.31
Kspace  | 25.591     | 25.591     | 25.591     |   0.0 | 88.50
Neigh   | 0.040256   | 0.040256   | 0.040256   |   0.0 |  0.14
Comm    | 0.0020185  | 0.0020185  | 0.0020185  |   0.0 |  0.01
Output  | 0          | 0          | 0          |   0.0 |  0.00
Modify  | 0          | 0          | 0          |   0.0 |  0.00
Other   |            | 0.04021    |            |       |  0.14

Nlocal:    894 ave 894 max 894 min
Histogram: 1 0 0 0 0 0 0 0 0 0
Nghost:    0 ave 0 max 0 min
Histogram: 1 0 0 0 0 0 0 0 0 0
Neighs:    57614 ave 57614 max 57614 min
Histogram: 1 0 0 0 0 0 0 0 0 0

Total # of neighbors = 57614
Ave neighs/atom = 64.4452
Ave special neighs/atom = 13.9418
Neighbor list builds = 20
Dangerous builds = 0
write_dump all custom pysimm.dump.tmp id q x y z vx vy vz
quit


################################################################################
##################################    Init    ##################################
################################################################################
units           real
atom_style      full
pair_style      lj/cut/coul/long 12.0  12.0
kspace_style    pppm 1e-4
bond_style      harmonic
angle_style     harmonic
dihedral_style  fourier
improper_style  cvff
special_bonds   amber
pair_modify     mix arithmetic
read_data       temp.lmps
  orthogonal box = (-137.648 -137.648 -137.648) to (137.648 137.648 137.648)
  1 by 1 by 1 MPI processor grid
  reading atoms ...
  959 atoms
  reading velocities ...
  959 velocities
  scanning bonds ...
  3 = max bonds/atom
  scanning angles ...
  6 = max angles/atom
  scanning dihedrals ...
  24 = max dihedrals/atom
  scanning impropers ...
  1 = max impropers/atom
  reading bonds ...
  1132 bonds
  reading angles ...
  2340 angles
  reading dihedrals ...
  4428 dihedrals
  reading impropers ...
  90 impropers
  4 = max # of 1-2 neighbors
  10 = max # of 1-3 neighbors
  23 = max # of 1-4 neighbors
  22 = max # of special neighbors
  special bonds CPU = 0.001019 secs
  read_data CPU = 0.0138888 secs
################################################################################

min_style cg
minimize 1e-06 1e-06 1000000 10000000
WARNING: Using 'neigh_modify every 1 delay 0 check yes' setting during minimization (../min.cpp:190)
PPPM initialization ...
WARNING: System is not charge neutral, net charge = -3e-05 (../kspace.cpp:313)
  using 12-bit tables for long-range coulomb (../kspace.cpp:332)
  G vector (1/distance) = 0.144696
  grid = 45 45 45
  stencil order = 5
  estimated absolute RMS force accuracy = 0.00151728
  estimated relative force accuracy = 4.56924e-06
  using double precision KISS FFT
  3d grid and FFT values/proc = 125000 91125
Neighbor list info ...
  update every 1 steps, delay 0 steps, check yes
  max neighbors/atom: 2000, page size: 100000
  master list distance cutoff = 14
  ghost atom cutoff = 14
  binsize = 7, bins = 40 40 40
  1 neighbor lists, perpetual/occasional/extra = 1 0 0
  (1) pair lj/cut/coul/long, perpetual
      attributes: half, newton on
      pair build: half/bin/newton
      stencil: half/bin/3d/newton
      bin: standard
Per MPI rank memory allocation (min/avg/max) = 31.5 | 31.5 | 31.5 Mbytes
Step Temp E_pair E_mol TotEng Press 
       0    823.19204    1203.9054    7772.1812    11326.807    9.3092567 
     590    823.19204    373.80824    6390.2696    9114.7982    4.9536865 
Loop time of 28.4069 on 1 procs for 590 steps with 959 atoms

99.7% CPU use with 1 MPI tasks x no OpenMP threads

Minimization stats:
  Stopping criterion = energy tolerance
  Energy initial, next-to-last, final = 
         8976.08658249       6764.0807097      6764.07784459
  Force two-norm initial, final = 11301.9 10.2886
  Force max component initial, final = 6134.3 1.26003
  Final line search alpha, max atom move = 2.19353e-10 2.76391e-10
  Iterations, force evaluations = 590 1227

MPI task timing breakdown:
Section |  min time  |  avg time  |  max time  |%varavg| %total
---------------------------------------------------------------
Pair    | 2.476      | 2.476      | 2.476      |   0.0 |  8.72
Bond    | 0.6944     | 0.6944     | 0.6944     |   0.0 |  2.44
Kspace  | 25.147     | 25.147     | 25.147     |   0.0 | 88.52
Neigh   | 0.0469     | 0.0469     | 0.0469     |   0.0 |  0.17
Comm    | 0.001585   | 0.001585   | 0.001585   |   0.0 |  0.01
Output  | 0          | 0          | 0          |   0.0 |  0.00
Modify  | 0          | 0          | 0          |   0.0 |  0.00
Other   |            | 0.04104    |            |       |  0.14

Nlocal:    959 ave 959 max 959 min
Histogram: 1 0 0 0 0 0 0 0 0 0
Nghost:    0 ave 0 max 0 min
Histogram: 1 0 0 0 0 0 0 0 0 0
Neighs:    56461 ave 56461 max 56461 min
Histogram: 1 0 0 0 0 0 0 0 0 0

Total # of neighbors = 56461
Ave neighs/atom = 58.8749
Ave special neighs/atom = 13.9353
Neighbor list builds = 23
Dangerous builds = 0
write_dump all custom pysimm.dump.tmp id q x y z vx vy vz
quit


################################################################################
##################################    Init    ##################################
################################################################################
units           real
atom_style      full
pair_style      lj/cut/coul/long 12.0  12.0
kspace_style    pppm 1e-4
bond_style      harmonic
angle_style     harmonic
dihedral_style  fourier
improper_style  cvff
special_bonds   amber
pair_modify     mix arithmetic
read_data       temp.lmps
  orthogonal box = (-140.85 -140.85 -140.85) to (140.85 140.85 140.85)
  1 by 1 by 1 MPI processor grid
  reading atoms ...
  1024 atoms
  reading velocities ...
  1024 velocities
  scanning bonds ...
  3 = max bonds/atom
  scanning angles ...
  6 = max angles/atom
  scanning dihedrals ...
  24 = max dihedrals/atom
  scanning impropers ...
  1 = max impropers/atom
  reading bonds ...
  1208 bonds
  reading angles ...
  2496 angles
  reading dihedrals ...
  4720 dihedrals
  reading impropers ...
  96 impropers
  4 = max # of 1-2 neighbors
  10 = max # of 1-3 neighbors
  23 = max # of 1-4 neighbors
  22 = max # of special neighbors
  special bonds CPU = 0.00103617 secs
  read_data CPU = 0.0141311 secs
################################################################################

min_style cg
minimize 1e-06 1e-06 1000000 10000000
WARNING: Using 'neigh_modify every 1 delay 0 check yes' setting during minimization (../min.cpp:190)
PPPM initialization ...
WARNING: System is not charge neutral, net charge = -3.2e-05 (../kspace.cpp:313)
  using 12-bit tables for long-range coulomb (../kspace.cpp:332)
  G vector (1/distance) = 0.142875
  grid = 45 45 45
  stencil order = 5
  estimated absolute RMS force accuracy = 0.00163375
  estimated relative force accuracy = 4.91999e-06
  using double precision KISS FFT
  3d grid and FFT values/proc = 125000 91125
Neighbor list info ...
  update every 1 steps, delay 0 steps, check yes
  max neighbors/atom: 2000, page size: 100000
  master list distance cutoff = 14
  ghost atom cutoff = 14
  binsize = 7, bins = 41 41 41
  1 neighbor lists, perpetual/occasional/extra = 1 0 0
  (1) pair lj/cut/coul/long, perpetual
      attributes: half, newton on
      pair build: half/bin/newton
      stencil: half/bin/3d/newton
      bin: standard
Per MPI rank memory allocation (min/avg/max) = 31.53 | 31.53 | 31.53 Mbytes
Step Temp E_pair E_mol TotEng Press 
       0     731.0895    536.86148    8102.6411    10868.864   -1.6098186 
     476     731.0895    394.43187    6773.4472    9397.2405    4.5039212 
Loop time of 24.0168 on 1 procs for 476 steps with 1024 atoms

99.7% CPU use with 1 MPI tasks x no OpenMP threads

Minimization stats:
  Stopping criterion = linesearch alpha is zero
  Energy initial, next-to-last, final = 
         8639.50255177      7167.87904512      7167.87904512
  Force two-norm initial, final = 1949.03 12.6339
  Force max component initial, final = 598.93 1.90127
  Final line search alpha, max atom move = 3.91961e-11 7.45224e-11
  Iterations, force evaluations = 476 1001

MPI task timing breakdown:
Section |  min time  |  avg time  |  max time  |%varavg| %total
---------------------------------------------------------------
Pair    | 2.2762     | 2.2762     | 2.2762     |   0.0 |  9.48
Bond    | 0.60208    | 0.60208    | 0.60208    |   0.0 |  2.51
Kspace  | 21.078     | 21.078     | 21.078     |   0.0 | 87.76
Neigh   | 0.024341   | 0.024341   | 0.024341   |   0.0 |  0.10
Comm    | 0.0012014  | 0.0012014  | 0.0012014  |   0.0 |  0.01
Output  | 0          | 0          | 0          |   0.0 |  0.00
Modify  | 0          | 0          | 0          |   0.0 |  0.00
Other   |            | 0.03537    |            |       |  0.15

Nlocal:    1024 ave 1024 max 1024 min
Histogram: 1 0 0 0 0 0 0 0 0 0
Nghost:    0 ave 0 max 0 min
Histogram: 1 0 0 0 0 0 0 0 0 0
Neighs:    65910 ave 65910 max 65910 min
Histogram: 1 0 0 0 0 0 0 0 0 0

Total # of neighbors = 65910
Ave neighs/atom = 64.3652
Ave special neighs/atom = 13.9297
Neighbor list builds = 10
Dangerous builds = 0
write_dump all custom pysimm.dump.tmp id q x y z vx vy vz
quit


################################################################################
##################################    Init    ##################################
################################################################################
units           real
atom_style      full
pair_style      lj/cut/coul/long 12.0  12.0
kspace_style    pppm 1e-4
bond_style      harmonic
angle_style     harmonic
dihedral_style  fourier
improper_style  cvff
special_bonds   amber
pair_modify     mix arithmetic
read_data       temp.lmps
  orthogonal box = (-143.913 -143.913 -143.913) to (143.913 143.913 143.913)
  1 by 1 by 1 MPI processor grid
  reading atoms ...
  1089 atoms
  reading velocities ...
  1089 velocities
  scanning bonds ...
  3 = max bonds/atom
  scanning angles ...
  6 = max angles/atom
  scanning dihedrals ...
  24 = max dihedrals/atom
  scanning impropers ...
  1 = max impropers/atom
  reading bonds ...
  1284 bonds
  reading angles ...
  2652 angles
  reading dihedrals ...
  5012 dihedrals
  reading impropers ...
  102 impropers
  4 = max # of 1-2 neighbors
  10 = max # of 1-3 neighbors
  23 = max # of 1-4 neighbors
  22 = max # of special neighbors
  special bonds CPU = 0.0015049 secs
  read_data CPU = 0.015842 secs
################################################################################

min_style cg
minimize 1e-06 1e-06 1000000 10000000
WARNING: Using 'neigh_modify every 1 delay 0 check yes' setting during minimization (../min.cpp:190)
PPPM initialization ...
WARNING: System is not charge neutral, net charge = -3.4e-05 (../kspace.cpp:313)
  using 12-bit tables for long-range coulomb (../kspace.cpp:332)
  G vector (1/distance) = 0.141107
  grid = 45 45 45
  stencil order = 5
  estimated absolute RMS force accuracy = 0.00174815
  estimated relative force accuracy = 5.26451e-06
  using double precision KISS FFT
  3d grid and FFT values/proc = 125000 91125
Neighbor list info ...
  update every 1 steps, delay 0 steps, check yes
  max neighbors/atom: 2000, page size: 100000
  master list distance cutoff = 14
  ghost atom cutoff = 14
  binsize = 7, bins = 42 42 42
  1 neighbor lists, perpetual/occasional/extra = 1 0 0
  (1) pair lj/cut/coul/long, perpetual
      attributes: half, newton on
      pair build: half/bin/newton
      stencil: half/bin/3d/newton
      bin: standard
Per MPI rank memory allocation (min/avg/max) = 31.56 | 31.56 | 31.56 Mbytes
Step Temp E_pair E_mol TotEng Press 
       0    831.23216    1120.0854    8819.4323    12635.304     5.533655 
     709    831.23216     416.4368    7149.6486    10261.872    5.0208262 
Loop time of 34.6404 on 1 procs for 709 steps with 1089 atoms

99.7% CPU use with 1 MPI tasks x no OpenMP threads

Minimization stats:
  Stopping criterion = linesearch alpha is zero
  Energy initial, next-to-last, final = 
         9939.51772807      7566.08536298      7566.08536298
  Force two-norm initial, final = 8783.69 12.264
  Force max component initial, final = 5153.6 1.17161
  Final line search alpha, max atom move = 4.51128e-11 5.28546e-11
  Iterations, force evaluations = 709 1466

MPI task timing breakdown:
Section |  min time  |  avg time  |  max time  |%varavg| %total
---------------------------------------------------------------
Pair    | 3.4426     | 3.4426     | 3.4426     |   0.0 |  9.94
Bond    | 0.93698    | 0.93698    | 0.93698    |   0.0 |  2.70
Kspace  | 30.148     | 30.148     | 30.148     |   0.0 | 87.03
Neigh   | 0.056149   | 0.056149   | 0.056149   |   0.0 |  0.16
Comm    | 0.0019765  | 0.0019765  | 0.0019765  |   0.0 |  0.01
Output  | 0          | 0          | 0          |   0.0 |  0.00
Modify  | 0          | 0          | 0          |   0.0 |  0.00
Other   |            | 0.05508    |            |       |  0.16

Nlocal:    1089 ave 1089 max 1089 min
Histogram: 1 0 0 0 0 0 0 0 0 0
Nghost:    0 ave 0 max 0 min
Histogram: 1 0 0 0 0 0 0 0 0 0
Neighs:    66956 ave 66956 max 66956 min
Histogram: 1 0 0 0 0 0 0 0 0 0

Total # of neighbors = 66956
Ave neighs/atom = 61.4839
Ave special neighs/atom = 13.9247
Neighbor list builds = 23
Dangerous builds = 0
write_dump all custom pysimm.dump.tmp id q x y z vx vy vz
quit


################################################################################
##################################    Init    ##################################
################################################################################
units           real
atom_style      full
pair_style      lj/cut/coul/long 12.0  12.0
kspace_style    pppm 1e-4
bond_style      harmonic
angle_style     harmonic
dihedral_style  fourier
improper_style  cvff
special_bonds   amber
pair_modify     mix arithmetic
read_data       temp.lmps
  orthogonal box = (-146.851 -146.851 -146.851) to (146.851 146.851 146.851)
  1 by 1 by 1 MPI processor grid
  reading atoms ...
  1154 atoms
  reading velocities ...
  1154 velocities
  scanning bonds ...
  3 = max bonds/atom
  scanning angles ...
  6 = max angles/atom
  scanning dihedrals ...
  24 = max dihedrals/atom
  scanning impropers ...
  1 = max impropers/atom
  reading bonds ...
  1360 bonds
  reading angles ...
  2808 angles
  reading dihedrals ...
  5304 dihedrals
  reading impropers ...
  108 impropers
  4 = max # of 1-2 neighbors
  10 = max # of 1-3 neighbors
  23 = max # of 1-4 neighbors
  22 = max # of special neighbors
  special bonds CPU = 0.00109816 secs
  read_data CPU = 0.0162129 secs
################################################################################

min_style cg
minimize 1e-06 1e-06 1000000 10000000
WARNING: Using 'neigh_modify every 1 delay 0 check yes' setting during minimization (../min.cpp:190)
PPPM initialization ...
WARNING: System is not charge neutral, net charge = -3.6e-05 (../kspace.cpp:313)
  using 12-bit tables for long-range coulomb (../kspace.cpp:332)
  G vector (1/distance) = 0.144682
  grid = 48 48 48
  stencil order = 5
  estimated absolute RMS force accuracy = 0.00150715
  estimated relative force accuracy = 4.53873e-06
  using double precision KISS FFT
  3d grid and FFT values/proc = 148877 110592
Neighbor list info ...
  update every 1 steps, delay 0 steps, check yes
  max neighbors/atom: 2000, page size: 100000
  master list distance cutoff = 14
  ghost atom cutoff = 14
  binsize = 7, bins = 42 42 42
  1 neighbor lists, perpetual/occasional/extra = 1 0 0
  (1) pair lj/cut/coul/long, perpetual
      attributes: half, newton on
      pair build: half/bin/newton
      stencil: half/bin/3d/newton
      bin: standard
Per MPI rank memory allocation (min/avg/max) = 34.13 | 34.13 | 34.13 Mbytes
Step Temp E_pair E_mol TotEng Press 
       0    738.35057    20787.173    9396.0675    32720.858    216.93212 
     510    738.35057    454.39585    7577.9194    10569.933     4.641615 
Loop time of 30.7229 on 1 procs for 510 steps with 1154 atoms

99.7% CPU use with 1 MPI tasks x no OpenMP threads

Minimization stats:
  Stopping criterion = energy tolerance
  Energy initial, next-to-last, final = 
         30183.2406114      8032.32124583      8032.31523472
  Force two-norm initial, final = 376175 13.374
  Force max component initial, final = 190138 1.51716
  Final line search alpha, max atom move = 0.00631026 0.00957368
  Iterations, force evaluations = 510 1016

MPI task timing breakdown:
Section |  min time  |  avg time  |  max time  |%varavg| %total
---------------------------------------------------------------
Pair    | 2.7359     | 2.7359     | 2.7359     |   0.0 |  8.90
Bond    | 0.70528    | 0.70528    | 0.70528    |   0.0 |  2.30
Kspace  | 27.198     | 27.198     | 27.198     |   0.0 | 88.53
Neigh   | 0.041117   | 0.041117   | 0.041117   |   0.0 |  0.13
Comm    | 0.0014663  | 0.0014663  | 0.0014663  |   0.0 |  0.00
Output  | 0          | 0          | 0          |   0.0 |  0.00
Modify  | 0          | 0          | 0          |   0.0 |  0.00
Other   |            | 0.04116    |            |       |  0.13

Nlocal:    1154 ave 1154 max 1154 min
Histogram: 1 0 0 0 0 0 0 0 0 0
Nghost:    0 ave 0 max 0 min
Histogram: 1 0 0 0 0 0 0 0 0 0
Neighs:    71389 ave 71389 max 71389 min
Histogram: 1 0 0 0 0 0 0 0 0 0

Total # of neighbors = 71389
Ave neighs/atom = 61.8622
Ave special neighs/atom = 13.9203
Neighbor list builds = 15
Dangerous builds = 0
write_dump all custom pysimm.dump.tmp id q x y z vx vy vz
quit


################################################################################
##################################    Init    ##################################
################################################################################
units           real
atom_style      full
pair_style      lj/cut/coul/long 12.0  12.0
kspace_style    pppm 1e-4
bond_style      harmonic
angle_style     harmonic
dihedral_style  fourier
improper_style  cvff
special_bonds   amber
pair_modify     mix arithmetic
read_data       temp.lmps
  orthogonal box = (-149.675 -149.675 -149.675) to (149.675 149.675 149.675)
  1 by 1 by 1 MPI processor grid
  reading atoms ...
  1219 atoms
  reading velocities ...
  1219 velocities
  scanning bonds ...
  3 = max bonds/atom
  scanning angles ...
  6 = max angles/atom
  scanning dihedrals ...
  24 = max dihedrals/atom
  scanning impropers ...
  1 = max impropers/atom
  reading bonds ...
  1436 bonds
  reading angles ...
  2964 angles
  reading dihedrals ...
  5596 dihedrals
  reading impropers ...
  114 impropers
  4 = max # of 1-2 neighbors
  10 = max # of 1-3 neighbors
  23 = max # of 1-4 neighbors
  22 = max # of special neighbors
  special bonds CPU = 0.00122499 secs
  read_data CPU = 0.0168021 secs
################################################################################

min_style cg
minimize 1e-06 1e-06 1000000 10000000
WARNING: Using 'neigh_modify every 1 delay 0 check yes' setting during minimization (../min.cpp:190)
PPPM initialization ...
WARNING: System is not charge neutral, net charge = -3.8e-05 (../kspace.cpp:313)
  using 12-bit tables for long-range coulomb (../kspace.cpp:332)
  G vector (1/distance) = 0.143171
  grid = 48 48 48
  stencil order = 5
  estimated absolute RMS force accuracy = 0.00160306
  estimated relative force accuracy = 4.82756e-06
  using double precision KISS FFT
  3d grid and FFT values/proc = 148877 110592
Neighbor list info ...
  update every 1 steps, delay 0 steps, check yes
  max neighbors/atom: 2000, page size: 100000
  master list distance cutoff = 14
  ghost atom cutoff = 14
  binsize = 7, bins = 43 43 43
  1 neighbor lists, perpetual/occasional/extra = 1 0 0
  (1) pair lj/cut/coul/long, perpetual
      attributes: half, newton on
      pair build: half/bin/newton
      stencil: half/bin/3d/newton
      bin: standard
Per MPI rank memory allocation (min/avg/max) = 34.16 | 34.16 | 34.16 Mbytes
Step Temp E_pair E_mol TotEng Press 
       0    684.27113     1173.726    9814.3719    13472.431    2.6178699 
     647    684.27113    467.19468    7937.7183    10889.246    4.1753871 
Loop time of 40.3395 on 1 procs for 647 steps with 1219 atoms

99.7% CPU use with 1 MPI tasks x no OpenMP threads

Minimization stats:
  Stopping criterion = linesearch alpha is zero
  Energy initial, next-to-last, final = 
         10988.0978537      8404.91300553      8404.91300553
  Force two-norm initial, final = 5870.05 11.4534
  Force max component initial, final = 3132.77 1.05716
  Final line search alpha, max atom move = 7.03587e-11 7.43805e-11
  Iterations, force evaluations = 647 1343

MPI task timing breakdown:
Section |  min time  |  avg time  |  max time  |%varavg| %total
---------------------------------------------------------------
Pair    | 3.8721     | 3.8721     | 3.8721     |   0.0 |  9.60
Bond    | 0.9848     | 0.9848     | 0.9848     |   0.0 |  2.44
Kspace  | 35.369     | 35.369     | 35.369     |   0.0 | 87.68
Neigh   | 0.056476   | 0.056476   | 0.056476   |   0.0 |  0.14
Comm    | 0.0019698  | 0.0019698  | 0.0019698  |   0.0 |  0.00
Output  | 0          | 0          | 0          |   0.0 |  0.00
Modify  | 0          | 0          | 0          |   0.0 |  0.00
Other   |            | 0.05559    |            |       |  0.14

Nlocal:    1219 ave 1219 max 1219 min
Histogram: 1 0 0 0 0 0 0 0 0 0
Nghost:    0 ave 0 max 0 min
Histogram: 1 0 0 0 0 0 0 0 0 0
Neighs:    78520 ave 78520 max 78520 min
Histogram: 1 0 0 0 0 0 0 0 0 0

Total # of neighbors = 78520
Ave neighs/atom = 64.4135
Ave special neighs/atom = 13.9163
Neighbor list builds = 19
Dangerous builds = 0
write_dump all custom pysimm.dump.tmp id q x y z vx vy vz
quit


################################################################################
##################################    Init    ##################################
################################################################################
units           real
atom_style      full
pair_style      lj/cut/coul/long 12.0  12.0
kspace_style    pppm 1e-4
bond_style      harmonic
angle_style     harmonic
dihedral_style  fourier
improper_style  cvff
special_bonds   amber
pair_modify     mix arithmetic
read_data       temp.lmps
  orthogonal box = (-152.397 -152.397 -152.397) to (152.397 152.397 152.397)
  1 by 1 by 1 MPI processor grid
  reading atoms ...
  1284 atoms
  reading velocities ...
  1284 velocities
  scanning bonds ...
  3 = max bonds/atom
  scanning angles ...
  6 = max angles/atom
  scanning dihedrals ...
  24 = max dihedrals/atom
  scanning impropers ...
  1 = max impropers/atom
  reading bonds ...
  1512 bonds
  reading angles ...
  3120 angles
  reading dihedrals ...
  5888 dihedrals
  reading impropers ...
  120 impropers
  4 = max # of 1-2 neighbors
  10 = max # of 1-3 neighbors
  23 = max # of 1-4 neighbors
  22 = max # of special neighbors
  special bonds CPU = 0.00117588 secs
  read_data CPU = 0.017473 secs
################################################################################

min_style cg
minimize 1e-06 1e-06 1000000 10000000
WARNING: Using 'neigh_modify every 1 delay 0 check yes' setting during minimization (../min.cpp:190)
PPPM initialization ...
WARNING: System is not charge neutral, net charge = -4e-05 (../kspace.cpp:313)
  using 12-bit tables for long-range coulomb (../kspace.cpp:332)
  G vector (1/distance) = 0.141758
  grid = 48 48 48
  stencil order = 5
  estimated absolute RMS force accuracy = 0.00169865
  estimated relative force accuracy = 5.11543e-06
  using double precision KISS FFT
  3d grid and FFT values/proc = 148877 110592
Neighbor list info ...
  update every 1 steps, delay 0 steps, check yes
  max neighbors/atom: 2000, page size: 100000
  master list distance cutoff = 14
  ghost atom cutoff = 14
  binsize = 7, bins = 44 44 44
  1 neighbor lists, perpetual/occasional/extra = 1 0 0
  (1) pair lj/cut/coul/long, perpetual
      attributes: half, newton on
      pair build: half/bin/newton
      stencil: half/bin/3d/newton
      bin: standard
Per MPI rank memory allocation (min/avg/max) = 34.2 | 34.2 | 34.2 Mbytes
Step Temp E_pair E_mol TotEng Press 
       0    616.63557    787.51748    10315.485     13461.25    -2.495835 
     535    616.63557    491.23781    8288.6873    11138.173    3.8537365 
Loop time of 33.7635 on 1 procs for 535 steps with 1284 atoms

99.7% CPU use with 1 MPI tasks x no OpenMP threads

Minimization stats:
  Stopping criterion = linesearch alpha is zero
  Energy initial, next-to-last, final = 
         11103.0020269      8779.92510039      8779.92510039
  Force two-norm initial, final = 2733.84 13.4426
  Force max component initial, final = 890.387 1.33575
  Final line search alpha, max atom move = 5.06562e-11 6.76641e-11
  Iterations, force evaluations = 535 1119

MPI task timing breakdown:
Section |  min time  |  avg time  |  max time  |%varavg| %total
---------------------------------------------------------------
Pair    | 3.4375     | 3.4375     | 3.4375     |   0.0 | 10.18
Bond    | 0.85441    | 0.85441    | 0.85441    |   0.0 |  2.53
Kspace  | 29.367     | 29.367     | 29.367     |   0.0 | 86.98
Neigh   | 0.05469    | 0.05469    | 0.05469    |   0.0 |  0.16
Comm    | 0.0015652  | 0.0015652  | 0.0015652  |   0.0 |  0.00
Output  | 0          | 0          | 0          |   0.0 |  0.00
Modify  | 0          | 0          | 0          |   0.0 |  0.00
Other   |            | 0.04799    |            |       |  0.14

Nlocal:    1284 ave 1284 max 1284 min
Histogram: 1 0 0 0 0 0 0 0 0 0
Nghost:    0 ave 0 max 0 min
Histogram: 1 0 0 0 0 0 0 0 0 0
Neighs:    86846 ave 86846 max 86846 min
Histogram: 1 0 0 0 0 0 0 0 0 0

Total # of neighbors = 86846
Ave neighs/atom = 67.6371
Ave special neighs/atom = 13.9128
Neighbor list builds = 17
Dangerous builds = 0
write_dump all custom pysimm.dump.tmp id q x y z vx vy vz
quit


################################################################################
##################################    Init    ##################################
################################################################################
units           real
atom_style      full
pair_style      lj/cut/coul/long 12.0  12.0
kspace_style    pppm 1e-4
bond_style      harmonic
angle_style     harmonic
dihedral_style  fourier
improper_style  cvff
special_bonds   amber
pair_modify     mix arithmetic
read_data       temp.lmps
  orthogonal box = (-155.025 -155.025 -155.025) to (155.025 155.025 155.025)
  1 by 1 by 1 MPI processor grid
  reading atoms ...
  1349 atoms
  reading velocities ...
  1349 velocities
  scanning bonds ...
  3 = max bonds/atom
  scanning angles ...
  6 = max angles/atom
  scanning dihedrals ...
  24 = max dihedrals/atom
  scanning impropers ...
  1 = max impropers/atom
  reading bonds ...
  1588 bonds
  reading angles ...
  3276 angles
  reading dihedrals ...
  6180 dihedrals
  reading impropers ...
  126 impropers
  4 = max # of 1-2 neighbors
  10 = max # of 1-3 neighbors
  23 = max # of 1-4 neighbors
  22 = max # of special neighbors
  special bonds CPU = 0.00127792 secs
  read_data CPU = 0.0172222 secs
################################################################################

min_style cg
minimize 1e-06 1e-06 1000000 10000000
WARNING: Using 'neigh_modify every 1 delay 0 check yes' setting during minimization (../min.cpp:190)
PPPM initialization ...
WARNING: System is not charge neutral, net charge = -4.2e-05 (../kspace.cpp:313)
  using 12-bit tables for long-range coulomb (../kspace.cpp:332)
  G vector (1/distance) = 0.143622
  grid = 50 50 50
  stencil order = 5
  estimated absolute RMS force accuracy = 0.00156781
  estimated relative force accuracy = 4.72141e-06
  using double precision KISS FFT
  3d grid and FFT values/proc = 166375 125000
Neighbor list info ...
  update every 1 steps, delay 0 steps, check yes
  max neighbors/atom: 2000, page size: 100000
  master list distance cutoff = 14
  ghost atom cutoff = 14
  binsize = 7, bins = 45 45 45
  1 neighbor lists, perpetual/occasional/extra = 1 0 0
  (1) pair lj/cut/coul/long, perpetual
      attributes: half, newton on
      pair build: half/bin/newton
      stencil: half/bin/3d/newton
      bin: standard
Per MPI rank memory allocation (min/avg/max) = 36.12 | 36.12 | 36.12 Mbytes
Step Temp E_pair E_mol TotEng Press 
       0    601.14922    675.34058    10864.297    13955.135   -4.3224173 
     517    601.14922    514.65557     8689.775    11619.928     3.682756 
Loop time of 38.1355 on 1 procs for 517 steps with 1349 atoms

99.7% CPU use with 1 MPI tasks x no OpenMP threads

Minimization stats:
  Stopping criterion = linesearch alpha is zero
  Energy initial, next-to-last, final = 
         11539.6379354      9204.43061614      9204.43061614
  Force two-norm initial, final = 2380.87 12.1444
  Force max component initial, final = 611.23 1.43959
  Final line search alpha, max atom move = 6.83085e-11 9.8336e-11
  Iterations, force evaluations = 517 1084

MPI task timing breakdown:
Section |  min time  |  avg time  |  max time  |%varavg| %total
---------------------------------------------------------------
Pair    | 3.4268     | 3.4268     | 3.4268     |   0.0 |  8.99
Bond    | 0.87102    | 0.87102    | 0.87102    |   0.0 |  2.28
Kspace  | 33.731     | 33.731     | 33.731     |   0.0 | 88.45
Neigh   | 0.056619   | 0.056619   | 0.056619   |   0.0 |  0.15
Comm    | 0.0015948  | 0.0015948  | 0.0015948  |   0.0 |  0.00
Output  | 0          | 0          | 0          |   0.0 |  0.00
Modify  | 0          | 0          | 0          |   0.0 |  0.00
Other   |            | 0.04829    |            |       |  0.13

Nlocal:    1349 ave 1349 max 1349 min
Histogram: 1 0 0 0 0 0 0 0 0 0
Nghost:    0 ave 0 max 0 min
Histogram: 1 0 0 0 0 0 0 0 0 0
Neighs:    92267 ave 92267 max 92267 min
Histogram: 1 0 0 0 0 0 0 0 0 0

Total # of neighbors = 92267
Ave neighs/atom = 68.3966
Ave special neighs/atom = 13.9096
Neighbor list builds = 17
Dangerous builds = 0
write_dump all custom pysimm.dump.tmp id q x y z vx vy vz
quit


################################################################################
##################################    Init    ##################################
################################################################################
units           real
atom_style      full
pair_style      lj/cut/coul/long 12.0  12.0
kspace_style    pppm 1e-4
bond_style      harmonic
angle_style     harmonic
dihedral_style  fourier
improper_style  cvff
special_bonds   amber
pair_modify     mix arithmetic
read_data       temp.lmps
  orthogonal box = (-157.567 -157.567 -157.567) to (157.567 157.567 157.567)
  1 by 1 by 1 MPI processor grid
  reading atoms ...
  1414 atoms
  reading velocities ...
  1414 velocities
  scanning bonds ...
  3 = max bonds/atom
  scanning angles ...
  6 = max angles/atom
  scanning dihedrals ...
  24 = max dihedrals/atom
  scanning impropers ...
  1 = max impropers/atom
  reading bonds ...
  1664 bonds
  reading angles ...
  3432 angles
  reading dihedrals ...
  6472 dihedrals
  reading impropers ...
  132 impropers
  4 = max # of 1-2 neighbors
  10 = max # of 1-3 neighbors
  23 = max # of 1-4 neighbors
  22 = max # of special neighbors
  special bonds CPU = 0.00134993 secs
  read_data CPU = 0.0177531 secs
################################################################################

min_style cg
minimize 1e-06 1e-06 1000000 10000000
WARNING: Using 'neigh_modify every 1 delay 0 check yes' setting during minimization (../min.cpp:190)
PPPM initialization ...
WARNING: System is not charge neutral, net charge = -4.4e-05 (../kspace.cpp:313)
  using 12-bit tables for long-range coulomb (../kspace.cpp:332)
  G vector (1/distance) = 0.142341
  grid = 50 50 50
  stencil order = 5
  estimated absolute RMS force accuracy = 0.00165244
  estimated relative force accuracy = 4.97626e-06
  using double precision KISS FFT
  3d grid and FFT values/proc = 166375 125000
Neighbor list info ...
  update every 1 steps, delay 0 steps, check yes
  max neighbors/atom: 2000, page size: 100000
  master list distance cutoff = 14
  ghost atom cutoff = 14
  binsize = 7, bins = 46 46 46
  1 neighbor lists, perpetual/occasional/extra = 1 0 0
  (1) pair lj/cut/coul/long, perpetual
      attributes: half, newton on
      pair build: half/bin/newton
      stencil: half/bin/3d/newton
      bin: standard
Per MPI rank memory allocation (min/avg/max) = 36.16 | 36.16 | 36.16 Mbytes
Step Temp E_pair E_mol TotEng Press 
       0    536.19036    757.15501    11474.025    14489.552   -5.0772114 
     598    536.19036    532.63545    9050.5031     11841.51    3.1960991 
Loop time of 44.2055 on 1 procs for 598 steps with 1414 atoms

99.7% CPU use with 1 MPI tasks x no OpenMP threads

Minimization stats:
  Stopping criterion = linesearch alpha is zero
  Energy initial, next-to-last, final = 
         12231.1799366      9583.13850788      9583.13850788
  Force two-norm initial, final = 2865.66 11.9183
  Force max component initial, final = 1128.04 0.927139
  Final line search alpha, max atom move = 5.78106e-11 5.35985e-11
  Iterations, force evaluations = 598 1245

MPI task timing breakdown:
Section |  min time  |  avg time  |  max time  |%varavg| %total
---------------------------------------------------------------
Pair    | 4.2272     | 4.2272     | 4.2272     |   0.0 |  9.56
Bond    | 1.0421     | 1.0421     | 1.0421     |   0.0 |  2.36
Kspace  | 38.802     | 38.802     | 38.802     |   0.0 | 87.78
Neigh   | 0.073871   | 0.073871   | 0.073871   |   0.0 |  0.17
Comm    | 0.0018756  | 0.0018756  | 0.0018756  |   0.0 |  0.00
Output  | 0          | 0          | 0          |   0.0 |  0.00
Modify  | 0          | 0          | 0          |   0.0 |  0.00
Other   |            | 0.05873    |            |       |  0.13

Nlocal:    1414 ave 1414 max 1414 min
Histogram: 1 0 0 0 0 0 0 0 0 0
Nghost:    0 ave 0 max 0 min
Histogram: 1 0 0 0 0 0 0 0 0 0
Neighs:    95647 ave 95647 max 95647 min
Histogram: 1 0 0 0 0 0 0 0 0 0

Total # of neighbors = 95647
Ave neighs/atom = 67.6429
Ave special neighs/atom = 13.9066
Neighbor list builds = 22
Dangerous builds = 0
write_dump all custom pysimm.dump.tmp id q x y z vx vy vz
quit


################################################################################
##################################    Init    ##################################
################################################################################
units           real
atom_style      full
pair_style      lj/cut/coul/long 12.0  12.0
kspace_style    pppm 1e-4
bond_style      harmonic
angle_style     harmonic
dihedral_style  fourier
improper_style  cvff
special_bonds   amber
pair_modify     mix arithmetic
read_data       temp.lmps
  orthogonal box = (-160.03 -160.03 -160.03) to (160.03 160.03 160.03)
  1 by 1 by 1 MPI processor grid
  reading atoms ...
  1479 atoms
  reading velocities ...
  1479 velocities
  scanning bonds ...
  3 = max bonds/atom
  scanning angles ...
  6 = max angles/atom
  scanning dihedrals ...
  24 = max dihedrals/atom
  scanning impropers ...
  1 = max impropers/atom
  reading bonds ...
  1740 bonds
  reading angles ...
  3588 angles
  reading dihedrals ...
  6764 dihedrals
  reading impropers ...
  138 impropers
  4 = max # of 1-2 neighbors
  10 = max # of 1-3 neighbors
  23 = max # of 1-4 neighbors
  22 = max # of special neighbors
  special bonds CPU = 0.00141597 secs
  read_data CPU = 0.01896 secs
################################################################################

min_style cg
minimize 1e-06 1e-06 1000000 10000000
WARNING: Using 'neigh_modify every 1 delay 0 check yes' setting during minimization (../min.cpp:190)
PPPM initialization ...
WARNING: System is not charge neutral, net charge = -4.6e-05 (../kspace.cpp:313)
  using 12-bit tables for long-range coulomb (../kspace.cpp:332)
  G vector (1/distance) = 0.141044
  grid = 50 50 50
  stencil order = 5
  estimated absolute RMS force accuracy = 0.00173522
  estimated relative force accuracy = 5.22556e-06
  using double precision KISS FFT
  3d grid and FFT values/proc = 166375 125000
Neighbor list info ...
  update every 1 steps, delay 0 steps, check yes
  max neighbors/atom: 2000, page size: 100000
  master list distance cutoff = 14
  ghost atom cutoff = 14
  binsize = 7, bins = 46 46 46
  1 neighbor lists, perpetual/occasional/extra = 1 0 0
  (1) pair lj/cut/coul/long, perpetual
      attributes: half, newton on
      pair build: half/bin/newton
      stencil: half/bin/3d/newton
      bin: standard
Per MPI rank memory allocation (min/avg/max) = 36.17 | 36.17 | 36.17 Mbytes
Step Temp E_pair E_mol TotEng Press 
       0      515.514    1189.0265    12109.547    15569.742   -1.6007908 
     736      515.514      563.241    9414.5288    12248.937    3.0155137 
Loop time of 52.7742 on 1 procs for 736 steps with 1479 atoms

99.7% CPU use with 1 MPI tasks x no OpenMP threads

Minimization stats:
  Stopping criterion = linesearch alpha is zero
  Energy initial, next-to-last, final = 
         13298.5738855      9977.76979619      9977.76979619
  Force two-norm initial, final = 7556.44 13.1869
  Force max component initial, final = 3974.39 1.21988
  Final line search alpha, max atom move = 4.4087e-11 5.37809e-11
  Iterations, force evaluations = 736 1521

MPI task timing breakdown:
Section |  min time  |  avg time  |  max time  |%varavg| %total
---------------------------------------------------------------
Pair    | 5.1767     | 5.1767     | 5.1767     |   0.0 |  9.81
Bond    | 1.3176     | 1.3176     | 1.3176     |   0.0 |  2.50
Kspace  | 46.105     | 46.105     | 46.105     |   0.0 | 87.36
Neigh   | 0.09946    | 0.09946    | 0.09946    |   0.0 |  0.19
Comm    | 0.0022783  | 0.0022783  | 0.0022783  |   0.0 |  0.00
Output  | 0          | 0          | 0          |   0.0 |  0.00
Modify  | 0          | 0          | 0          |   0.0 |  0.00
Other   |            | 0.07317    |            |       |  0.14

Nlocal:    1479 ave 1479 max 1479 min
Histogram: 1 0 0 0 0 0 0 0 0 0
Nghost:    0 ave 0 max 0 min
Histogram: 1 0 0 0 0 0 0 0 0 0
Neighs:    98817 ave 98817 max 98817 min
Histogram: 1 0 0 0 0 0 0 0 0 0

Total # of neighbors = 98817
Ave neighs/atom = 66.8134
Ave special neighs/atom = 13.904
Neighbor list builds = 29
Dangerous builds = 0
write_dump all custom pysimm.dump.tmp id q x y z vx vy vz
quit


################################################################################
##################################    Init    ##################################
################################################################################
units           real
atom_style      full
pair_style      lj/cut/coul/long 12.0  12.0
kspace_style    pppm 1e-4
bond_style      harmonic
angle_style     harmonic
dihedral_style  fourier
improper_style  cvff
special_bonds   amber
pair_modify     mix arithmetic
read_data       temp.lmps
  orthogonal box = (-162.418 -162.418 -162.418) to (162.418 162.418 162.418)
  1 by 1 by 1 MPI processor grid
  reading atoms ...
  1544 atoms
  reading velocities ...
  1544 velocities
  scanning bonds ...
  3 = max bonds/atom
  scanning angles ...
  6 = max angles/atom
  scanning dihedrals ...
  24 = max dihedrals/atom
  scanning impropers ...
  1 = max impropers/atom
  reading bonds ...
  1816 bonds
  reading angles ...
  3744 angles
  reading dihedrals ...
  7056 dihedrals
  reading impropers ...
  144 impropers
  4 = max # of 1-2 neighbors
  10 = max # of 1-3 neighbors
  23 = max # of 1-4 neighbors
  22 = max # of special neighbors
  special bonds CPU = 0.00186801 secs
  read_data CPU = 0.0200009 secs
################################################################################

min_style cg
minimize 1e-06 1e-06 1000000 10000000
WARNING: Using 'neigh_modify every 1 delay 0 check yes' setting during minimization (../min.cpp:190)
PPPM initialization ...
WARNING: System is not charge neutral, net charge = -4.8e-05 (../kspace.cpp:313)
  using 12-bit tables for long-range coulomb (../kspace.cpp:332)
  G vector (1/distance) = 0.146041
  grid = 54 54 54
  stencil order = 5
  estimated absolute RMS force accuracy = 0.00141033
  estimated relative force accuracy = 4.24715e-06
  using double precision KISS FFT
  3d grid and FFT values/proc = 205379 157464
Neighbor list info ...
  update every 1 steps, delay 0 steps, check yes
  max neighbors/atom: 2000, page size: 100000
  master list distance cutoff = 14
  ghost atom cutoff = 14
  binsize = 7, bins = 47 47 47
  1 neighbor lists, perpetual/occasional/extra = 1 0 0
  (1) pair lj/cut/coul/long, perpetual
      attributes: half, newton on
      pair build: half/bin/newton
      stencil: half/bin/3d/newton
      bin: standard
Per MPI rank memory allocation (min/avg/max) = 40.82 | 40.82 | 40.82 Mbytes
Step Temp E_pair E_mol TotEng Press 
       0    623.59623    953.95101    12545.532    16367.645    -3.680219 
     816    623.59623    588.73053    9843.8888    13300.782    3.7968971 
Loop time of 80.6154 on 1 procs for 816 steps with 1544 atoms

99.7% CPU use with 1 MPI tasks x no OpenMP threads

Minimization stats:
  Stopping criterion = energy tolerance
  Energy initial, next-to-last, final = 
         13499.4831334      10432.6221605      10432.6193161
  Force two-norm initial, final = 3005.06 12.0228
  Force max component initial, final = 938.036 1.26409
  Final line search alpha, max atom move = 0.00817558 0.0103347
  Iterations, force evaluations = 816 1628

MPI task timing breakdown:
Section |  min time  |  avg time  |  max time  |%varavg| %total
---------------------------------------------------------------
Pair    | 6.0194     | 6.0194     | 6.0194     |   0.0 |  7.47
Bond    | 1.4559     | 1.4559     | 1.4559     |   0.0 |  1.81
Kspace  | 72.944     | 72.944     | 72.944     |   0.0 | 90.48
Neigh   | 0.11276    | 0.11276    | 0.11276    |   0.0 |  0.14
Comm    | 0.0028703  | 0.0028703  | 0.0028703  |   0.0 |  0.00
Output  | 0          | 0          | 0          |   0.0 |  0.00
Modify  | 0          | 0          | 0          |   0.0 |  0.00
Other   |            | 0.08099    |            |       |  0.10

Nlocal:    1544 ave 1544 max 1544 min
Histogram: 1 0 0 0 0 0 0 0 0 0
Nghost:    0 ave 0 max 0 min
Histogram: 1 0 0 0 0 0 0 0 0 0
Neighs:    102256 ave 102256 max 102256 min
Histogram: 1 0 0 0 0 0 0 0 0 0

Total # of neighbors = 102256
Ave neighs/atom = 66.228
Ave special neighs/atom = 13.9016
Neighbor list builds = 32
Dangerous builds = 0
write_dump all custom pysimm.dump.tmp id q x y z vx vy vz
quit


################################################################################
##################################    Init    ##################################
################################################################################
units           real
atom_style      full
pair_style      lj/cut/coul/long 12.0  12.0
kspace_style    pppm 1e-4
bond_style      harmonic
angle_style     harmonic
dihedral_style  fourier
improper_style  cvff
special_bonds   amber
pair_modify     mix arithmetic
read_data       temp.lmps
  orthogonal box = (-164.739 -164.739 -164.739) to (164.739 164.739 164.739)
  1 by 1 by 1 MPI processor grid
  reading atoms ...
  1609 atoms
  reading velocities ...
  1609 velocities
  scanning bonds ...
  3 = max bonds/atom
  scanning angles ...
  6 = max angles/atom
  scanning dihedrals ...
  24 = max dihedrals/atom
  scanning impropers ...
  1 = max impropers/atom
  reading bonds ...
  1892 bonds
  reading angles ...
  3900 angles
  reading dihedrals ...
  7348 dihedrals
  reading impropers ...
  150 impropers
  4 = max # of 1-2 neighbors
  10 = max # of 1-3 neighbors
  23 = max # of 1-4 neighbors
  22 = max # of special neighbors
  special bonds CPU = 0.00145793 secs
  read_data CPU = 0.0197661 secs
################################################################################

min_style cg
minimize 1e-06 1e-06 1000000 10000000
WARNING: Using 'neigh_modify every 1 delay 0 check yes' setting during minimization (../min.cpp:190)
PPPM initialization ...
WARNING: System is not charge neutral, net charge = -5e-05 (../kspace.cpp:313)
  using 12-bit tables for long-range coulomb (../kspace.cpp:332)
  G vector (1/distance) = 0.144908
  grid = 54 54 54
  stencil order = 5
  estimated absolute RMS force accuracy = 0.00147785
  estimated relative force accuracy = 4.45051e-06
  using double precision KISS FFT
  3d grid and FFT values/proc = 205379 157464
Neighbor list info ...
  update every 1 steps, delay 0 steps, check yes
  max neighbors/atom: 2000, page size: 100000
  master list distance cutoff = 14
  ghost atom cutoff = 14
  binsize = 7, bins = 48 48 48
  1 neighbor lists, perpetual/occasional/extra = 1 0 0
  (1) pair lj/cut/coul/long, perpetual
      attributes: half, newton on
      pair build: half/bin/newton
      stencil: half/bin/3d/newton
      bin: standard
Per MPI rank memory allocation (min/avg/max) = 40.86 | 40.86 | 40.86 Mbytes
Step Temp E_pair E_mol TotEng Press 
       0    585.23327     2192.842    12949.514    17947.463    5.8494711 
     742    585.23327    605.25087    10178.658    13589.015    3.4940927 
Loop time of 76.8163 on 1 procs for 742 steps with 1609 atoms

99.7% CPU use with 1 MPI tasks x no OpenMP threads

Minimization stats:
  Stopping criterion = linesearch alpha is zero
  Energy initial, next-to-last, final = 
         15142.3562856      10783.9089631      10783.9089631
  Force two-norm initial, final = 14172.4 11.784
  Force max component initial, final = 7822.11 1.28176
  Final line search alpha, max atom move = 5.08211e-11 6.51406e-11
  Iterations, force evaluations = 742 1533

MPI task timing breakdown:
Section |  min time  |  avg time  |  max time  |%varavg| %total
---------------------------------------------------------------
Pair    | 5.7113     | 5.7113     | 5.7113     |   0.0 |  7.43
Bond    | 1.429      | 1.429      | 1.429      |   0.0 |  1.86
Kspace  | 69.512     | 69.512     | 69.512     |   0.0 | 90.49
Neigh   | 0.0832     | 0.0832     | 0.0832     |   0.0 |  0.11
Comm    | 0.0023444  | 0.0023444  | 0.0023444  |   0.0 |  0.00
Output  | 0          | 0          | 0          |   0.0 |  0.00
Modify  | 0          | 0          | 0          |   0.0 |  0.00
Other   |            | 0.07834    |            |       |  0.10

Nlocal:    1609 ave 1609 max 1609 min
Histogram: 1 0 0 0 0 0 0 0 0 0
Nghost:    0 ave 0 max 0 min
Histogram: 1 0 0 0 0 0 0 0 0 0
Neighs:    103119 ave 103119 max 103119 min
Histogram: 1 0 0 0 0 0 0 0 0 0

Total # of neighbors = 103119
Ave neighs/atom = 64.0889
Ave special neighs/atom = 13.8993
Neighbor list builds = 23
Dangerous builds = 0
write_dump all custom pysimm.dump.tmp id q x y z vx vy vz
quit


################################################################################
##################################    Init    ##################################
################################################################################
units           real
atom_style      full
pair_style      lj/cut/coul/long 12.0  12.0
kspace_style    pppm 1e-4
bond_style      harmonic
angle_style     harmonic
dihedral_style  fourier
improper_style  cvff
special_bonds   amber
pair_modify     mix arithmetic
read_data       temp.lmps
  orthogonal box = (-166.996 -166.996 -166.996) to (166.996 166.996 166.996)
  1 by 1 by 1 MPI processor grid
  reading atoms ...
  1674 atoms
  reading velocities ...
  1674 velocities
  scanning bonds ...
  3 = max bonds/atom
  scanning angles ...
  6 = max angles/atom
  scanning dihedrals ...
  24 = max dihedrals/atom
  scanning impropers ...
  1 = max impropers/atom
  reading bonds ...
  1968 bonds
  reading angles ...
  4056 angles
  reading dihedrals ...
  7640 dihedrals
  reading impropers ...
  156 impropers
  4 = max # of 1-2 neighbors
  10 = max # of 1-3 neighbors
  23 = max # of 1-4 neighbors
  22 = max # of special neighbors
  special bonds CPU = 0.00155282 secs
  read_data CPU = 0.0206239 secs
################################################################################

min_style cg
minimize 1e-06 1e-06 1000000 10000000
WARNING: Using 'neigh_modify every 1 delay 0 check yes' setting during minimization (../min.cpp:190)
PPPM initialization ...
WARNING: System is not charge neutral, net charge = -5.2e-05 (../kspace.cpp:313)
  using 12-bit tables for long-range coulomb (../kspace.cpp:332)
  G vector (1/distance) = 0.143826
  grid = 54 54 54
  stencil order = 5
  estimated absolute RMS force accuracy = 0.0015452
  estimated relative force accuracy = 4.65333e-06
  using double precision KISS FFT
  3d grid and FFT values/proc = 205379 157464
Neighbor list info ...
  update every 1 steps, delay 0 steps, check yes
  max neighbors/atom: 2000, page size: 100000
  master list distance cutoff = 14
  ghost atom cutoff = 14
  binsize = 7, bins = 48 48 48
  1 neighbor lists, perpetual/occasional/extra = 1 0 0
  (1) pair lj/cut/coul/long, perpetual
      attributes: half, newton on
      pair build: half/bin/newton
      stencil: half/bin/3d/newton
      bin: standard
Per MPI rank memory allocation (min/avg/max) = 40.49 | 40.49 | 40.49 Mbytes
Step Temp E_pair E_mol TotEng Press 
       0    596.13079    18036.769    13454.601    34464.212    121.48806 
     566    596.13079    654.33077    10573.645    14200.818    3.6993011 
Loop time of 56.4109 on 1 procs for 566 steps with 1674 atoms

99.7% CPU use with 1 MPI tasks x no OpenMP threads

Minimization stats:
  Stopping criterion = energy tolerance
  Energy initial, next-to-last, final = 
         31491.3701625      11227.9776622      11227.9758462
  Force two-norm initial, final = 307418 12.2373
  Force max component initial, final = 202368 1.08361
  Final line search alpha, max atom move = 0.00808826 0.00876448
  Iterations, force evaluations = 566 1127

MPI task timing breakdown:
Section |  min time  |  avg time  |  max time  |%varavg| %total
---------------------------------------------------------------
Pair    | 4.0485     | 4.0485     | 4.0485     |   0.0 |  7.18
Bond    | 1.0941     | 1.0941     | 1.0941     |   0.0 |  1.94
Kspace  | 51.145     | 51.145     | 51.145     |   0.0 | 90.66
Neigh   | 0.061567   | 0.061567   | 0.061567   |   0.0 |  0.11
Comm    | 0.0017035  | 0.0017035  | 0.0017035  |   0.0 |  0.00
Output  | 0          | 0          | 0          |   0.0 |  0.00
Modify  | 0          | 0          | 0          |   0.0 |  0.00
Other   |            | 0.06009    |            |       |  0.11

Nlocal:    1674 ave 1674 max 1674 min
Histogram: 1 0 0 0 0 0 0 0 0 0
Nghost:    0 ave 0 max 0 min
Histogram: 1 0 0 0 0 0 0 0 0 0
Neighs:    97376 ave 97376 max 97376 min
Histogram: 1 0 0 0 0 0 0 0 0 0

Total # of neighbors = 97376
Ave neighs/atom = 58.1697
Ave special neighs/atom = 13.8973
Neighbor list builds = 17
Dangerous builds = 0
write_dump all custom pysimm.dump.tmp id q x y z vx vy vz
quit


################################################################################
##################################    Init    ##################################
################################################################################
units           real
atom_style      full
pair_style      lj/cut/coul/long 12.0  12.0
kspace_style    pppm 1e-4
bond_style      harmonic
angle_style     harmonic
dihedral_style  fourier
improper_style  cvff
special_bonds   amber
pair_modify     mix arithmetic
read_data       temp.lmps
  orthogonal box = (-169.193 -169.193 -169.193) to (169.193 169.193 169.193)
  1 by 1 by 1 MPI processor grid
  reading atoms ...
  1739 atoms
  reading velocities ...
  1739 velocities
  scanning bonds ...
  3 = max bonds/atom
  scanning angles ...
  6 = max angles/atom
  scanning dihedrals ...
  24 = max dihedrals/atom
  scanning impropers ...
  1 = max impropers/atom
  reading bonds ...
  2044 bonds
  reading angles ...
  4212 angles
  reading dihedrals ...
  7932 dihedrals
  reading impropers ...
  162 impropers
  4 = max # of 1-2 neighbors
  10 = max # of 1-3 neighbors
  23 = max # of 1-4 neighbors
  22 = max # of special neighbors
  special bonds CPU = 0.00164604 secs
  read_data CPU = 0.0207639 secs
################################################################################

min_style cg
minimize 1e-06 1e-06 1000000 10000000
WARNING: Using 'neigh_modify every 1 delay 0 check yes' setting during minimization (../min.cpp:190)
PPPM initialization ...
WARNING: System is not charge neutral, net charge = -5.4e-05 (../kspace.cpp:313)
  using 12-bit tables for long-range coulomb (../kspace.cpp:332)
  G vector (1/distance) = 0.142794
  grid = 54 54 54
  stencil order = 5
  estimated absolute RMS force accuracy = 0.00161238
  estimated relative force accuracy = 4.85564e-06
  using double precision KISS FFT
  3d grid and FFT values/proc = 205379 157464
Neighbor list info ...
  update every 1 steps, delay 0 steps, check yes
  max neighbors/atom: 2000, page size: 100000
  master list distance cutoff = 14
  ghost atom cutoff = 14
  binsize = 7, bins = 49 49 49
  1 neighbor lists, perpetual/occasional/extra = 1 0 0
  (1) pair lj/cut/coul/long, perpetual
      attributes: half, newton on
      pair build: half/bin/newton
      stencil: half/bin/3d/newton
      bin: standard
Per MPI rank memory allocation (min/avg/max) = 40.91 | 40.91 | 40.91 Mbytes
Step Temp E_pair E_mol TotEng Press 
       0    530.61029    2211.5334    13923.185    18883.624    4.2533379 
     467    530.61029    670.45199    10922.328    14341.685    3.1575982 
Loop time of 49.7028 on 1 procs for 467 steps with 1739 atoms

99.7% CPU use with 1 MPI tasks x no OpenMP threads

Minimization stats:
  Stopping criterion = linesearch alpha is zero
  Energy initial, next-to-last, final = 
         16134.7184954      11592.7796798      11592.7796798
  Force two-norm initial, final = 15873 12.0165
  Force max component initial, final = 7458.91 0.983938
  Final line search alpha, max atom move = 5.46016e-11 5.37246e-11
  Iterations, force evaluations = 467 984

MPI task timing breakdown:
Section |  min time  |  avg time  |  max time  |%varavg| %total
---------------------------------------------------------------
Pair    | 3.7899     | 3.7899     | 3.7899     |   0.0 |  7.63
Bond    | 0.99019    | 0.99019    | 0.99019    |   0.0 |  1.99
Kspace  | 44.804     | 44.804     | 44.804     |   0.0 | 90.14
Neigh   | 0.064253   | 0.064253   | 0.064253   |   0.0 |  0.13
Comm    | 0.001667   | 0.001667   | 0.001667   |   0.0 |  0.00
Output  | 0          | 0          | 0          |   0.0 |  0.00
Modify  | 0          | 0          | 0          |   0.0 |  0.00
Other   |            | 0.05311    |            |       |  0.11

Nlocal:    1739 ave 1739 max 1739 min
Histogram: 1 0 0 0 0 0 0 0 0 0
Nghost:    0 ave 0 max 0 min
Histogram: 1 0 0 0 0 0 0 0 0 0
Neighs:    107454 ave 107454 max 107454 min
Histogram: 1 0 0 0 0 0 0 0 0 0

Total # of neighbors = 107454
Ave neighs/atom = 61.7907
Ave special neighs/atom = 13.8953
Neighbor list builds = 16
Dangerous builds = 0
write_dump all custom pysimm.dump.tmp id q x y z vx vy vz
quit


################################################################################
##################################    Init    ##################################
################################################################################
units           real
atom_style      full
pair_style      lj/cut/coul/long 12.0  12.0
kspace_style    pppm 1e-4
bond_style      harmonic
angle_style     harmonic
dihedral_style  fourier
improper_style  cvff
special_bonds   amber
pair_modify     mix arithmetic
read_data       temp.lmps
  orthogonal box = (-171.335 -171.335 -171.335) to (171.335 171.335 171.335)
  1 by 1 by 1 MPI processor grid
  reading atoms ...
  1804 atoms
  reading velocities ...
  1804 velocities
  scanning bonds ...
  3 = max bonds/atom
  scanning angles ...
  6 = max angles/atom
  scanning dihedrals ...
  24 = max dihedrals/atom
  scanning impropers ...
  1 = max impropers/atom
  reading bonds ...
  2120 bonds
  reading angles ...
  4368 angles
  reading dihedrals ...
  8224 dihedrals
  reading impropers ...
  168 impropers
  4 = max # of 1-2 neighbors
  10 = max # of 1-3 neighbors
  23 = max # of 1-4 neighbors
  22 = max # of special neighbors
  special bonds CPU = 0.00168681 secs
  read_data CPU = 0.0211329 secs
################################################################################

min_style cg
minimize 1e-06 1e-06 1000000 10000000
WARNING: Using 'neigh_modify every 1 delay 0 check yes' setting during minimization (../min.cpp:190)
PPPM initialization ...
WARNING: System is not charge neutral, net charge = -5.6e-05 (../kspace.cpp:313)
  using 12-bit tables for long-range coulomb (../kspace.cpp:332)
  G vector (1/distance) = 0.141808
  grid = 54 54 54
  stencil order = 5
  estimated absolute RMS force accuracy = 0.00167942
  estimated relative force accuracy = 5.05753e-06
  using double precision KISS FFT
  3d grid and FFT values/proc = 205379 157464
Neighbor list info ...
  update every 1 steps, delay 0 steps, check yes
  max neighbors/atom: 2000, page size: 100000
  master list distance cutoff = 14
  ghost atom cutoff = 14
  binsize = 7, bins = 49 49 49
  1 neighbor lists, perpetual/occasional/extra = 1 0 0
  (1) pair lj/cut/coul/long, perpetual
      attributes: half, newton on
      pair build: half/bin/newton
      stencil: half/bin/3d/newton
      bin: standard
Per MPI rank memory allocation (min/avg/max) = 40.92 | 40.92 | 40.92 Mbytes
Step Temp E_pair E_mol TotEng Press 
       0    605.98355    995.26414    14569.566    18821.629   -4.7232276 
     498    605.98355    695.78797    11301.693    15254.279    3.6874361 
Loop time of 50.1678 on 1 procs for 498 steps with 1804 atoms

99.7% CPU use with 1 MPI tasks x no OpenMP threads

Minimization stats:
  Stopping criterion = energy tolerance
  Energy initial, next-to-last, final = 
         15564.8305194      11997.4922975      11997.4805189
  Force two-norm initial, final = 3115.44 13.4155
  Force max component initial, final = 888.166 1.20413
  Final line search alpha, max atom move = 0.00678821 0.00817387
  Iterations, force evaluations = 498 993

MPI task timing breakdown:
Section |  min time  |  avg time  |  max time  |%varavg| %total
---------------------------------------------------------------
Pair    | 4.0041     | 4.0041     | 4.0041     |   0.0 |  7.98
Bond    | 1.0381     | 1.0381     | 1.0381     |   0.0 |  2.07
Kspace  | 44.997     | 44.997     | 44.997     |   0.0 | 89.69
Neigh   | 0.070414   | 0.070414   | 0.070414   |   0.0 |  0.14
Comm    | 0.0015523  | 0.0015523  | 0.0015523  |   0.0 |  0.00
Output  | 0          | 0          | 0          |   0.0 |  0.00
Modify  | 0          | 0          | 0          |   0.0 |  0.00
Other   |            | 0.05656    |            |       |  0.11

Nlocal:    1804 ave 1804 max 1804 min
Histogram: 1 0 0 0 0 0 0 0 0 0
Nghost:    0 ave 0 max 0 min
Histogram: 1 0 0 0 0 0 0 0 0 0
Neighs:    112619 ave 112619 max 112619 min
Histogram: 1 0 0 0 0 0 0 0 0 0

Total # of neighbors = 112619
Ave neighs/atom = 62.4274
Ave special neighs/atom = 13.8936
Neighbor list builds = 17
Dangerous builds = 0
write_dump all custom pysimm.dump.tmp id q x y z vx vy vz
quit


################################################################################
##################################    Init    ##################################
################################################################################
units           real
atom_style      full
pair_style      lj/cut/coul/long 12.0  12.0
kspace_style    pppm 1e-4
bond_style      harmonic
angle_style     harmonic
dihedral_style  fourier
improper_style  cvff
special_bonds   amber
pair_modify     mix arithmetic
read_data       temp.lmps
  orthogonal box = (-173.425 -173.425 -173.425) to (173.425 173.425 173.425)
  1 by 1 by 1 MPI processor grid
  reading atoms ...
  1869 atoms
  reading velocities ...
  1869 velocities
  scanning bonds ...
  3 = max bonds/atom
  scanning angles ...
  6 = max angles/atom
  scanning dihedrals ...
  24 = max dihedrals/atom
  scanning impropers ...
  1 = max impropers/atom
  reading bonds ...
  2196 bonds
  reading angles ...
  4524 angles
  reading dihedrals ...
  8516 dihedrals
  reading impropers ...
  174 impropers
  4 = max # of 1-2 neighbors
  10 = max # of 1-3 neighbors
  23 = max # of 1-4 neighbors
[...]
  6 = max angles/atom
  scanning dihedrals ...
  24 = max dihedrals/atom
  scanning impropers ...
  1 = max impropers/atom
  reading bonds ...
  3488 bonds
  reading angles ...
  7176 angles
  reading dihedrals ...
  13480 dihedrals
  reading impropers ...
  276 impropers
  4 = max # of 1-2 neighbors
  10 = max # of 1-3 neighbors
  23 = max # of 1-4 neighbors
  22 = max # of special neighbors
  special bonds CPU = 0.00261307 secs
  read_data CPU = 0.0321722 secs
################################################################################

min_style cg
minimize 1e-06 1e-06 1000000 10000000
WARNING: Using 'neigh_modify every 1 delay 0 check yes' setting during minimization (../min.cpp:190)
PPPM initialization ...
WARNING: System is not charge neutral, net charge = -9.2e-05 (../kspace.cpp:313)
  using 12-bit tables for long-range coulomb (../kspace.cpp:332)
  G vector (1/distance) = 0.141779
  grid = 64 64 64
  stencil order = 5
  estimated absolute RMS force accuracy = 0.00166656
  estimated relative force accuracy = 5.0188e-06
  using double precision KISS FFT
  3d grid and FFT values/proc = 328509 262144
Neighbor list info ...
  update every 1 steps, delay 0 steps, check yes
  max neighbors/atom: 2000, page size: 100000
  master list distance cutoff = 14
  ghost atom cutoff = 14
  binsize = 7, bins = 59 59 59
  1 neighbor lists, perpetual/occasional/extra = 1 0 0
  (1) pair lj/cut/coul/long, perpetual
      attributes: half, newton on
      pair build: half/bin/newton
      stencil: half/bin/3d/newton
      bin: standard
Per MPI rank memory allocation (min/avg/max) = 55.4 | 55.4 | 55.4 Mbytes
Step Temp E_pair E_mol TotEng Press 
       0    282.62477    5581.7509    24024.627    32110.984    7.9784953 
     865    282.62477    1056.1302    18154.939    21715.675    1.7052216 
Loop time of 166.702 on 1 procs for 865 steps with 2974 atoms

99.7% CPU use with 1 MPI tasks x no OpenMP threads

Minimization stats:
  Stopping criterion = linesearch alpha is zero
  Energy initial, next-to-last, final = 
         29606.3774677      19211.0690961      19211.0690961
  Force two-norm initial, final = 30326 16.1418
  Force max component initial, final = 11544.7 1.74165
  Final line search alpha, max atom move = 2.40948e-11 4.19646e-11
  Iterations, force evaluations = 865 1777

MPI task timing breakdown:
Section |  min time  |  avg time  |  max time  |%varavg| %total
---------------------------------------------------------------
Pair    | 14.883     | 14.883     | 14.883     |   0.0 |  8.93
Bond    | 3.0519     | 3.0519     | 3.0519     |   0.0 |  1.83
Kspace  | 148.3      | 148.3      | 148.3      |   0.0 | 88.96
Neigh   | 0.30179    | 0.30179    | 0.30179    |   0.0 |  0.18
Comm    | 0.0037715  | 0.0037715  | 0.0037715  |   0.0 |  0.00
Output  | 0          | 0          | 0          |   0.0 |  0.00
Modify  | 0          | 0          | 0          |   0.0 |  0.00
Other   |            | 0.1669     |            |       |  0.10

Nlocal:    2974 ave 2974 max 2974 min
Histogram: 1 0 0 0 0 0 0 0 0 0
Nghost:    0 ave 0 max 0 min
Histogram: 1 0 0 0 0 0 0 0 0 0
Neighs:    257901 ave 257901 max 257901 min
Histogram: 1 0 0 0 0 0 0 0 0 0

Total # of neighbors = 257901
Ave neighs/atom = 86.7186
Ave special neighs/atom = 13.8749
Neighbor list builds = 35
Dangerous builds = 0
write_dump all custom pysimm.dump.tmp id q x y z vx vy vz
quit


################################################################################
##################################    Init    ##################################
################################################################################
units           real
atom_style      full
pair_style      lj/cut/coul/long 12.0  12.0
kspace_style    pppm 1e-4
bond_style      harmonic
angle_style     harmonic
dihedral_style  fourier
improper_style  cvff
special_bonds   amber
pair_modify     mix arithmetic
read_data       temp.lmps
  orthogonal box = (-204.634 -204.634 -204.634) to (204.634 204.634 204.634)
  1 by 1 by 1 MPI processor grid
  reading atoms ...
  3039 atoms
  reading velocities ...
  3039 velocities
  scanning bonds ...
  3 = max bonds/atom
  scanning angles ...
  6 = max angles/atom
  scanning dihedrals ...
  24 = max dihedrals/atom
  scanning impropers ...
  1 = max impropers/atom
  reading bonds ...
  3564 bonds
  reading angles ...
  7332 angles
  reading dihedrals ...
  13772 dihedrals
  reading impropers ...
  282 impropers
  4 = max # of 1-2 neighbors
  10 = max # of 1-3 neighbors
  23 = max # of 1-4 neighbors
  22 = max # of special neighbors
  special bonds CPU = 0.00265598 secs
  read_data CPU = 0.032923 secs
################################################################################

min_style cg
minimize 1e-06 1e-06 1000000 10000000
WARNING: Using 'neigh_modify every 1 delay 0 check yes' setting during minimization (../min.cpp:190)
PPPM initialization ...
WARNING: System is not charge neutral, net charge = -9.4e-05 (../kspace.cpp:313)
  using 12-bit tables for long-range coulomb (../kspace.cpp:332)
  G vector (1/distance) = 0.141124
  grid = 64 64 64
  stencil order = 5
  estimated absolute RMS force accuracy = 0.00170518
  estimated relative force accuracy = 5.1351e-06
  using double precision KISS FFT
  3d grid and FFT values/proc = 328509 262144
Neighbor list info ...
  update every 1 steps, delay 0 steps, check yes
  max neighbors/atom: 2000, page size: 100000
  master list distance cutoff = 14
  ghost atom cutoff = 14
  binsize = 7, bins = 59 59 59
  1 neighbor lists, perpetual/occasional/extra = 1 0 0
  (1) pair lj/cut/coul/long, perpetual
      attributes: half, newton on
      pair build: half/bin/newton
      stencil: half/bin/3d/newton
      bin: standard
Per MPI rank memory allocation (min/avg/max) = 55.41 | 55.41 | 55.41 Mbytes
Step Temp E_pair E_mol TotEng Press 
       0    251.42287    2738.3564    24373.934    29389.101   -3.8202904 
     549    251.42287    1125.1658    18521.799    21923.776    1.4511036 
Loop time of 100.605 on 1 procs for 549 steps with 3039 atoms

99.6% CPU use with 1 MPI tasks x no OpenMP threads

Minimization stats:
  Stopping criterion = energy tolerance
  Energy initial, next-to-last, final = 
         27112.2903911      19646.9804484      19646.9652264
  Force two-norm initial, final = 10839 15.351
  Force max component initial, final = 5935.17 1.06994
  Final line search alpha, max atom move = 0.00456022 0.00487915
  Iterations, force evaluations = 549 1093

MPI task timing breakdown:
Section |  min time  |  avg time  |  max time  |%varavg| %total
---------------------------------------------------------------
Pair    | 8.5525     | 8.5525     | 8.5525     |   0.0 |  8.50
Bond    | 1.9182     | 1.9182     | 1.9182     |   0.0 |  1.91
Kspace  | 89.845     | 89.845     | 89.845     |   0.0 | 89.30
Neigh   | 0.18258    | 0.18258    | 0.18258    |   0.0 |  0.18
Comm    | 0.0025392  | 0.0025392  | 0.0025392  |   0.0 |  0.00
Output  | 0          | 0          | 0          |   0.0 |  0.00
Modify  | 0          | 0          | 0          |   0.0 |  0.00
Other   |            | 0.1042     |            |       |  0.10

Nlocal:    3039 ave 3039 max 3039 min
Histogram: 1 0 0 0 0 0 0 0 0 0
Nghost:    0 ave 0 max 0 min
Histogram: 1 0 0 0 0 0 0 0 0 0
Neighs:    233119 ave 233119 max 233119 min
Histogram: 1 0 0 0 0 0 0 0 0 0

Total # of neighbors = 233119
Ave neighs/atom = 76.7091
Ave special neighs/atom = 13.8743
Neighbor list builds = 22
Dangerous builds = 0
write_dump all custom pysimm.dump.tmp id q x y z vx vy vz
quit


################################################################################
##################################    Init    ##################################
################################################################################
units           real
atom_style      full
pair_style      lj/cut/coul/long 12.0  12.0
kspace_style    pppm 1e-4
bond_style      harmonic
angle_style     harmonic
dihedral_style  fourier
improper_style  cvff
special_bonds   amber
pair_modify     mix arithmetic
read_data       temp.lmps
  orthogonal box = (-206.107 -206.107 -206.107) to (206.107 206.107 206.107)
  1 by 1 by 1 MPI processor grid
  reading atoms ...
  3104 atoms
  reading velocities ...
  3104 velocities
  scanning bonds ...
  3 = max bonds/atom
  scanning angles ...
  6 = max angles/atom
  scanning dihedrals ...
  24 = max dihedrals/atom
  scanning impropers ...
  1 = max impropers/atom
  reading bonds ...
  3640 bonds
  reading angles ...
  7488 angles
  reading dihedrals ...
  14064 dihedrals
  reading impropers ...
  288 impropers
  4 = max # of 1-2 neighbors
  10 = max # of 1-3 neighbors
  23 = max # of 1-4 neighbors
  22 = max # of special neighbors
  special bonds CPU = 0.00259304 secs
  read_data CPU = 0.0333359 secs
################################################################################

min_style cg
minimize 1e-06 1e-06 1000000 10000000
WARNING: Using 'neigh_modify every 1 delay 0 check yes' setting during minimization (../min.cpp:190)
PPPM initialization ...
WARNING: System is not charge neutral, net charge = -9.6e-05 (../kspace.cpp:313)
  using 12-bit tables for long-range coulomb (../kspace.cpp:332)
  G vector (1/distance) = 0.14055
  grid = 64 64 64
  stencil order = 5
  estimated absolute RMS force accuracy = 0.00174487
  estimated relative force accuracy = 5.25461e-06
  using double precision KISS FFT
  3d grid and FFT values/proc = 328509 262144
Neighbor list info ...
  update every 1 steps, delay 0 steps, check yes
  max neighbors/atom: 2000, page size: 100000
  master list distance cutoff = 14
  ghost atom cutoff = 14
  binsize = 7, bins = 59 59 59
  1 neighbor lists, perpetual/occasional/extra = 1 0 0
  (1) pair lj/cut/coul/long, perpetual
      attributes: half, newton on
      pair build: half/bin/newton
      stencil: half/bin/3d/newton
      bin: standard
Per MPI rank memory allocation (min/avg/max) = 55.42 | 55.42 | 55.42 Mbytes
Step Temp E_pair E_mol TotEng Press 
       0    290.86902    2751.9303    24830.347    30272.657   -3.4156682 
     390    290.86902    1148.7959    18934.475     22773.65    1.7808648 
Loop time of 74.8568 on 1 procs for 390 steps with 3104 atoms

99.7% CPU use with 1 MPI tasks x no OpenMP threads

Minimization stats:
  Stopping criterion = linesearch alpha is zero
  Energy initial, next-to-last, final = 
         27582.2774599      20083.2705445      20083.2705445
  Force two-norm initial, final = 8812.16 16.873
  Force max component initial, final = 3249.77 1.26398
  Final line search alpha, max atom move = 2.59185e-11 3.27606e-11
  Iterations, force evaluations = 390 831

MPI task timing breakdown:
Section |  min time  |  avg time  |  max time  |%varavg| %total
---------------------------------------------------------------
Pair    | 6.6145     | 6.6145     | 6.6145     |   0.0 |  8.84
Bond    | 1.4951     | 1.4951     | 1.4951     |   0.0 |  2.00
Kspace  | 66.56      | 66.56      | 66.56      |   0.0 | 88.92
Neigh   | 0.10743    | 0.10743    | 0.10743    |   0.0 |  0.14
Comm    | 0.0016956  | 0.0016956  | 0.0016956  |   0.0 |  0.00
Output  | 0          | 0          | 0          |   0.0 |  0.00
Modify  | 0          | 0          | 0          |   0.0 |  0.00
Other   |            | 0.07774    |            |       |  0.10

Nlocal:    3104 ave 3104 max 3104 min
Histogram: 1 0 0 0 0 0 0 0 0 0
Nghost:    0 ave 0 max 0 min
Histogram: 1 0 0 0 0 0 0 0 0 0
Neighs:    229310 ave 229310 max 229310 min
Histogram: 1 0 0 0 0 0 0 0 0 0

Total # of neighbors = 229310
Ave neighs/atom = 73.8756
Ave special neighs/atom = 13.8737
Neighbor list builds = 13
Dangerous builds = 0
write_dump all custom pysimm.dump.tmp id q x y z vx vy vz
quit


################################################################################
##################################    Init    ##################################
################################################################################
units           real
atom_style      full
pair_style      lj/cut/coul/long 12.0  12.0
kspace_style    pppm 1e-4
bond_style      harmonic
angle_style     harmonic
dihedral_style  fourier
improper_style  cvff
special_bonds   amber
pair_modify     mix arithmetic
read_data       temp.lmps
  orthogonal box = (-207.558 -207.558 -207.558) to (207.558 207.558 207.558)
  1 by 1 by 1 MPI processor grid
  reading atoms ...
  3169 atoms
  reading velocities ...
  3169 velocities
  scanning bonds ...
  3 = max bonds/atom
  scanning angles ...
  6 = max angles/atom
  scanning dihedrals ...
  24 = max dihedrals/atom
  scanning impropers ...
  1 = max impropers/atom
  reading bonds ...
  3716 bonds
  reading angles ...
  7644 angles
  reading dihedrals ...
  14356 dihedrals
  reading impropers ...
  294 impropers
  4 = max # of 1-2 neighbors
  10 = max # of 1-3 neighbors
  23 = max # of 1-4 neighbors
  22 = max # of special neighbors
  special bonds CPU = 0.00276518 secs
  read_data CPU = 0.0338778 secs
################################################################################

min_style cg
minimize 1e-06 1e-06 1000000 10000000
WARNING: Using 'neigh_modify every 1 delay 0 check yes' setting during minimization (../min.cpp:190)
PPPM initialization ...
WARNING: System is not charge neutral, net charge = -9.8e-05 (../kspace.cpp:313)
  using 12-bit tables for long-range coulomb (../kspace.cpp:332)
  G vector (1/distance) = 0.149449
  grid = 72 72 72
  stencil order = 5
  estimated absolute RMS force accuracy = 0.00120296
  estimated relative force accuracy = 3.62266e-06
  using double precision KISS FFT
  3d grid and FFT values/proc = 456533 373248
Neighbor list info ...
  update every 1 steps, delay 0 steps, check yes
  max neighbors/atom: 2000, page size: 100000
  master list distance cutoff = 14
  ghost atom cutoff = 14
  binsize = 7, bins = 60 60 60
  1 neighbor lists, perpetual/occasional/extra = 1 0 0
  (1) pair lj/cut/coul/long, perpetual
      attributes: half, newton on
      pair build: half/bin/newton
      stencil: half/bin/3d/newton
      bin: standard
Per MPI rank memory allocation (min/avg/max) = 69.71 | 69.71 | 69.71 Mbytes
Step Temp E_pair E_mol TotEng Press 
       0    292.83481    7986.1959    25280.077    36031.572    16.094101 
     739    292.83481    1145.7881    19250.136    23161.224    1.7127142 
Loop time of 205.596 on 1 procs for 739 steps with 3169 atoms

99.7% CPU use with 1 MPI tasks x no OpenMP threads

Minimization stats:
  Stopping criterion = linesearch alpha is zero
  Energy initial, next-to-last, final = 
         33266.2724572      20395.9241308      20395.9241308
  Force two-norm initial, final = 77161.3 11.9844
  Force max component initial, final = 44985.1 0.859815
  Final line search alpha, max atom move = 7.44581e-11 6.40202e-11
  Iterations, force evaluations = 739 1524

MPI task timing breakdown:
Section |  min time  |  avg time  |  max time  |%varavg| %total
---------------------------------------------------------------
Pair    | 11.932     | 11.932     | 11.932     |   0.0 |  5.80
Bond    | 2.7664     | 2.7664     | 2.7664     |   0.0 |  1.35
Kspace  | 190.61     | 190.61     | 190.61     |   0.0 | 92.71
Neigh   | 0.14262    | 0.14262    | 0.14262    |   0.0 |  0.07
Comm    | 0.0028033  | 0.0028033  | 0.0028033  |   0.0 |  0.00
Output  | 0          | 0          | 0          |   0.0 |  0.00
Modify  | 0          | 0          | 0          |   0.0 |  0.00
Other   |            | 0.1421     |            |       |  0.07

Nlocal:    3169 ave 3169 max 3169 min
Histogram: 1 0 0 0 0 0 0 0 0 0
Nghost:    0 ave 0 max 0 min
Histogram: 1 0 0 0 0 0 0 0 0 0
Neighs:    237211 ave 237211 max 237211 min
Histogram: 1 0 0 0 0 0 0 0 0 0

Total # of neighbors = 237211
Ave neighs/atom = 74.8536
Ave special neighs/atom = 13.8731
Neighbor list builds = 17
Dangerous builds = 0
write_dump all custom pysimm.dump.tmp id q x y z vx vy vz
quit


################################################################################
##################################    Init    ##################################
################################################################################
units           real
atom_style      full
pair_style      lj/cut/coul/long 12.0  12.0
kspace_style    pppm 1e-4
bond_style      harmonic
angle_style     harmonic
dihedral_style  fourier
improper_style  cvff
special_bonds   amber
pair_modify     mix arithmetic
read_data       temp.lmps
  orthogonal box = (-208.99 -208.99 -208.99) to (208.99 208.99 208.99)
  1 by 1 by 1 MPI processor grid
  reading atoms ...
  3234 atoms
  reading velocities ...
  3234 velocities
  scanning bonds ...
  3 = max bonds/atom
  scanning angles ...
  6 = max angles/atom
  scanning dihedrals ...
  24 = max dihedrals/atom
  scanning impropers ...
  1 = max impropers/atom
  reading bonds ...
  3792 bonds
  reading angles ...
  7800 angles
  reading dihedrals ...
  14648 dihedrals
  reading impropers ...
  300 impropers
  4 = max # of 1-2 neighbors
  10 = max # of 1-3 neighbors
  23 = max # of 1-4 neighbors
  22 = max # of special neighbors
  special bonds CPU = 0.00281692 secs
  read_data CPU = 0.0343659 secs
################################################################################

min_style cg
minimize 1e-06 1e-06 1000000 10000000
WARNING: Using 'neigh_modify every 1 delay 0 check yes' setting during minimization (../min.cpp:190)
PPPM initialization ...
WARNING: System is not charge neutral, net charge = -0.0001 (../kspace.cpp:313)
  using 12-bit tables for long-range coulomb (../kspace.cpp:332)
  G vector (1/distance) = 0.148896
  grid = 72 72 72
  stencil order = 5
  estimated absolute RMS force accuracy = 0.00123159
  estimated relative force accuracy = 3.7089e-06
  using double precision KISS FFT
  3d grid and FFT values/proc = 456533 373248
Neighbor list info ...
  update every 1 steps, delay 0 steps, check yes
  max neighbors/atom: 2000, page size: 100000
  master list distance cutoff = 14
  ghost atom cutoff = 14
  binsize = 7, bins = 60 60 60
  1 neighbor lists, perpetual/occasional/extra = 1 0 0
  (1) pair lj/cut/coul/long, perpetual
      attributes: half, newton on
      pair build: half/bin/newton
      stencil: half/bin/3d/newton
      bin: standard
Per MPI rank memory allocation (min/avg/max) = 69.72 | 69.72 | 69.72 Mbytes
Step Temp E_pair E_mol TotEng Press 
       0    305.90166    1696.6223    25888.684    30533.268   -8.5327494 
     519    305.90166    1149.3041    19639.056    23736.322    1.7118849 
Loop time of 140.397 on 1 procs for 519 steps with 3234 atoms

99.7% CPU use with 1 MPI tasks x no OpenMP threads

Minimization stats:
  Stopping criterion = energy tolerance
  Energy initial, next-to-last, final = 
         27585.3062572      20788.3756095      20788.3601624
  Force two-norm initial, final = 4611.36 16.1711
  Force max component initial, final = 1422.7 1.33126
  Final line search alpha, max atom move = 0.00577289 0.00768522
  Iterations, force evaluations = 519 1034

MPI task timing breakdown:
Section |  min time  |  avg time  |  max time  |%varavg| %total
---------------------------------------------------------------
Pair    | 9.2214     | 9.2214     | 9.2214     |   0.0 |  6.57
Bond    | 1.9232     | 1.9232     | 1.9232     |   0.0 |  1.37
Kspace  | 128.99     | 128.99     | 128.99     |   0.0 | 91.88
Neigh   | 0.15702    | 0.15702    | 0.15702    |   0.0 |  0.11
Comm    | 0.0021009  | 0.0021009  | 0.0021009  |   0.0 |  0.00
Output  | 0          | 0          | 0          |   0.0 |  0.00
Modify  | 0          | 0          | 0          |   0.0 |  0.00
Other   |            | 0.1        |            |       |  0.07

Nlocal:    3234 ave 3234 max 3234 min
Histogram: 1 0 0 0 0 0 0 0 0 0
Nghost:    0 ave 0 max 0 min
Histogram: 1 0 0 0 0 0 0 0 0 0
Neighs:    267449 ave 267449 max 267449 min
Histogram: 1 0 0 0 0 0 0 0 0 0

Total # of neighbors = 267449
Ave neighs/atom = 82.6991
Ave special neighs/atom = 13.8726
Neighbor list builds = 17
Dangerous builds = 0
write_dump all custom pysimm.dump.tmp id q x y z vx vy vz
quit
