pySIMM System Object

2194 atoms
2576 bonds
5304 angles
9976 dihedrals
204 impropers

6 atom types
11 bond types
24 angle types
21 dihedral types
1 improper types

-183.188069 183.188069 xlo xhi
-183.188069 183.188069 ylo yhi
-183.188069 183.188069 zlo zhi

Masses

   1	12.01	# ca
   2	12.01	# cy
   3	12.01	# c3
   4	12.01	# cp
   5	1.008	# ha
   6	1.008	# hc

Pair Coeffs

   1	0.086	3.3996695084235347	# ca
   2	0.086	3.3996695084235347	# cy
   3	0.1094	3.3996695084235347	# c3
   4	0.086	3.3996695084235347	# cp
   5	0.015	2.59964245953351	# ha
   6	0.0157	2.649532787749369	# hc

Bond Coeffs

   1	321.0	1.5156	# c3,ca
   2	285.0	1.5562	# cy,cy
   3	330.6	1.0969	# c3,hc
   4	333.3	1.0949	# cy,hc
   5	321.2	1.5154	# ca,cy
   6	461.1	1.3984	# ca,ca
   7	300.9	1.5375	# c3,c3
   8	305.9	1.5319	# c3,cy
   9	351.4	1.4854	# cp,cp
  10	345.8	1.086	# ca,ha
  11	450.2	1.4058	# ca,cp

Angle Coeffs

   1	62.73	112.39	# c3,c3,cy
   2	46.29	110.75	# cy,c3,hc
   3	44.83	114.79	# cy,cy,hc
   4	60.66	118.7	# c3,cy,cy
   5	66.72	118.38	# ca,cp,ca
   6	62.86	111.51	# c3,c3,c3
   7	46.43	110.14	# c3,cy,hc
   8	63.43	120.63	# c3,ca,cp
   9	63.56	112.24	# ca,c3,ca
  10	64.05	121.11	# ca,cp,cp
  11	66.62	120.02	# ca,ca,ca
  12	39.4	107.58	# hc,c3,hc
  13	47.98	119.86	# cp,ca,ha
  14	63.53	120.77	# c3,ca,ca
  15	63.51	120.86	# ca,ca,cy
  16	62.8	113.57	# c3,cy,ca
  17	67.9	96.03	# cy,c3,cy
  18	45.97	114.53	# ca,cy,hc
  19	61.4	116.81	# ca,cy,cy
  20	63.15	112.07	# c3,c3,ca
  21	66.26	120.69	# ca,ca,cp
  22	46.34	109.8	# c3,c3,hc
  23	48.18	119.88	# ca,ca,ha
  24	46.8	110.47	# ca,c3,hc

Dihedral Coeffs

   1	1	0.16	3	0.0	# cy,c3,cy,ca
   2	1	0.16	3	0.0	# c3,c3,cy,ca
   3	1	0.16	3	0.0	# hc,c3,cy,ca
   4	3	0.18	3	0.0	0.25	2	180.0	0.2	1	180.0	# cy,c3,cy,cy
   5	1	0.15	3	0	# hc,c3,c3,hc
   6	3	0.18	3	0.0	0.25	2	180.0	0.2	1	180.0	# c3,c3,cy,cy
   7	1	0.16	3	0.0	# hc,c3,cy,cy
   8	1	0.16	3	0.0	# cy,c3,cy,hc
   9	1	0.16	3	0.0	# c3,c3,cy,hc
  10	1	0.15	3	0.0	# hc,c3,cy,hc
  11	1	3.625	2	180	# X,ca,ca,X
  12	1	0.15555555555555556	3	0	# X,cy,cy,X
  13	1	3.625	2	180	# X,ca,cp,X
  14	3	0.18	3	0	0.25	2	180	0.2	1	180	# c3,c3,c3,c3
  15	1	0.15555555555555556	3	0	# X,c3,c3,X
  16	1	0.16	3	0	# hc,c3,c3,c3
  17	1	1.0	2	180	# X,cp,cp,X
  18	1	0.0	2	0.0	# ca,ca,cy,cy
  19	1	0.0	2	0.0	# ca,ca,cy,c3
  20	1	0.0	2	0	# X,c3,ca,X
  21	3	0.38	3	180.0	0.0	2	0.0	1.15	1	0.0	# ca,ca,cy,hc

Improper Coeffs

   1	1.1	-1	2	# ca,X,X,ha

Atoms

   1	1	1	-0.425718	-51.1337	-29.4421	-40.3365
   2	1	1	0.123859	-50.4993	-30.5501	-39.7441
   3	1	1	0.123846	-50.4273	-30.7445	-38.3773
   4	1	1	-0.442194	-50.9793	-29.8543	-37.4373
   5	1	1	0.030377	-51.8191	-28.8934	-38.035
   6	1	1	0.003389	-51.8928	-28.6985	-39.4109
   7	1	2	0.006267	-52.3564	-27.2581	-39.2814
   8	1	2	0.040808	-52.271	-27.4798	-37.7111
   9	1	3	0.010049	-51.3081	-26.1472	-39.5587
  10	1	2	-0.044998	-52.1238	-24.9644	-38.9696
  11	1	2	-0.017344	-52.036	-25.1857	-37.3978
  12	1	3	0.004207	-51.181	-26.4736	-37.2515
  13	1	3	-0.10977	-50.2226	-26.4027	-38.4745
  14	1	1	-0.002799	-51.3707	-23.6706	-38.7231
  15	1	1	-0.006419	-51.2947	-23.8618	-37.3604
  16	1	1	-0.256521	-50.4676	-22.8696	-39.4338
  17	1	1	0.004841	-49.5538	-22.1425	-38.6379
  18	1	4	0.00733	-49.4748	-22.3364	-37.236
  19	1	1	-0.221146	-50.3051	-23.2696	-36.5659
  20	1	3	0.21053	-48.448	-21.1989	-39.1297
  21	1	4	0.0182	-48.336	-21.5593	-36.7227
  22	1	1	0.000377	-47.7283	-20.8823	-37.8125
  23	1	3	-0.237942	-47.4996	-21.9073	-40.1228
  24	1	3	-0.215479	-49.0482	-19.9254	-39.7657
  25	1	1	-0.2391	-46.6669	-19.9669	-37.6224
  26	1	1	-0.027923	-46.2084	-19.872	-36.3032
  27	1	1	-0.180376	-47.9128	-21.3564	-35.3838
  28	1	1	-0.054224	-46.7937	-20.5272	-35.2477
  29	1	2	0.006282	-45.4397	-18.9074	-35.4173
  30	1	2	0.015188	-46.1158	-19.6649	-34.1967
  31	1	3	0.034756	-45.9307	-17.4501	-35.2327
  32	1	3	0.003059	-47.4518	-17.2955	-35.506
  33	1	3	0.042972	-46.8977	-18.535	-33.4816
  34	1	3	0.004163	-48.111	-18.0345	-34.3113
  35	1	3	-0.197219	-45.9275	-17.3546	-33.6933
  36	1	5	0.227416	-50.9595	-29.1306	-41.3614
  37	1	5	0.230059	-50.6944	-29.8376	-36.3903
  38	1	6	0.034807	-53.3491	-27.0573	-39.7013
  39	1	6	0.022109	-53.2099	-27.4166	-37.1485
  40	1	6	0.043894	-50.9599	-26.0422	-40.5937
  41	1	6	0.04727	-53.124	-24.8406	-39.4015
  42	1	6	0.039454	-52.9811	-25.2011	-36.842
  43	1	6	0.037752	-50.7218	-26.6547	-36.2717
  44	1	6	0.046701	-49.4912	-25.5878	-38.3995
  45	1	6	0.047659	-49.6742	-27.3363	-38.6369
  46	1	5	0.173906	-50.4356	-22.8554	-40.5186
  47	1	5	0.156928	-50.1429	-23.5534	-35.5312
  48	1	6	0.056509	-46.6621	-21.2542	-40.3973
  49	1	6	0.064596	-48.0289	-22.188	-41.0413
  50	1	6	0.065502	-47.0858	-22.82	-39.6755
  51	1	6	0.062922	-49.6392	-20.1746	-40.6555
  52	1	6	0.049805	-48.2591	-19.2247	-40.0647
  53	1	6	0.059229	-49.7069	-19.4127	-39.0532
  54	1	5	0.166497	-46.2711	-19.3516	-38.4244
  55	1	5	0.141714	-48.4471	-21.7651	-34.5322
  56	1	6	0.041341	-44.347	-18.9771	-35.4546
  57	1	6	0.038019	-45.4152	-20.1748	-33.5263
  58	1	6	0.012124	-45.3146	-16.6947	-35.7366
  59	1	6	0.001144	-47.7579	-17.706	-36.4753
  60	1	6	0.009013	-47.1386	-18.7424	-32.4314
  61	1	6	0.001345	-48.7752	-18.8453	-34.6324
  62	1	6	0.041603	-44.9353	-17.5326	-33.2559
  63	1	6	0.069352	-46.3244	-16.3996	-33.3208
  64	1	1	-0.425718	-47.1126	-44.7183	-38.2545
  65	1	1	0.123859	-45.8987	-45.0723	-37.6371
  66	1	1	0.123846	-45.4509	-44.5058	-36.4584
  67	1	1	-0.442194	-46.1608	-43.5156	-35.7541
  68	1	1	0.030377	-47.474	-43.3501	-36.2377
  69	1	1	0.003389	-47.9251	-43.9214	-37.4238
  70	1	2	0.006267	-49.009	-42.8785	-37.6292
  71	1	2	0.040808	-48.495	-42.226	-36.2755
  72	1	3	0.010049	-48.744	-41.7821	-38.6958
  73	1	2	-0.044998	-49.8992	-40.8319	-38.2807
  74	1	2	-0.017344	-49.3868	-40.1772	-36.9251
  75	1	3	0.004207	-47.9909	-40.8219	-36.7064
  76	1	3	-0.10977	-47.4782	-41.0569	-38.156
  77	1	1	-0.002799	-49.866	-39.4258	-38.8488
  78	1	1	-0.006419	-49.4246	-38.8578	-37.6741
  79	1	1	-0.256521	-49.6708	-38.8358	-40.1042
  80	1	1	0.004841	-49.1209	-37.5341	-40.0756
  81	1	4	0.00733	-48.6713	-36.9455	-38.8669
  82	1	1	-0.221146	-48.7449	-37.6345	-37.6302
  83	1	3	0.21053	-48.7918	-36.6434	-41.2811
  84	1	4	0.0182	-48.0308	-35.6603	-39.1859
  85	1	1	0.000377	-48.1006	-35.4612	-40.5895
  86	1	3	-0.237942	-47.8285	-37.3507	-42.2604
  87	1	3	-0.215479	-50.079	-36.199	-42.0105
  88	1	1	-0.2391	-47.6703	-34.2566	-41.1929
  89	1	1	-0.027923	-47.0813	-33.3408	-40.3131
  90	1	1	-0.180376	-47.5254	-34.6643	-38.3117
  91	1	1	-0.054224	-47.0106	-33.5328	-38.9543
  92	1	2	0.006282	-46.7954	-31.8514	-40.2277
  93	1	2	0.015188	-46.714	-32.074	-38.6529
  94	1	3	0.034756	-47.9445	-30.8209	-40.3743
  95	1	3	0.003059	-49.3234	-31.4656	-40.0377
  96	1	3	0.042972	-47.8272	-31.1408	-38.112
  97	1	3	0.004163	-49.2414	-31.6879	-38.4727
  98	1	3	-0.197219	-47.6648	-29.9733	-39.1122
  99	1	5	0.227416	-47.3413	-44.9354	-39.2929
 100	1	5	0.230059	-45.7085	-42.8734	-35.0053
 101	1	6	0.034807	-50.031	-43.2754	-37.6328
 102	1	6	0.022109	-49.1953	-42.2149	-35.4319
 103	1	6	0.043894	-48.7209	-42.106	-39.7437
 104	1	6	0.04727	-50.8909	-41.2995	-38.266
 105	1	6	0.039454	-50.0559	-40.235	-36.0583
 106	1	6	0.037752	-47.31	-40.3074	-36.0171
 107	1	6	0.046701	-47.2589	-40.1232	-38.6896
 108	1	6	0.047659	-46.5826	-41.686	-38.1914
 109	1	5	0.173906	-49.8777	-39.3617	-41.0308
 110	1	5	0.156928	-48.2586	-37.2702	-36.7312
 111	1	6	0.056509	-47.5265	-36.6741	-43.0693
 112	1	6	0.064596	-48.3012	-38.2319	-42.7106
 113	1	6	0.065502	-46.9217	-37.6805	-41.7375
 114	1	6	0.062922	-50.7559	-35.6833	-41.3175
 115	1	6	0.049805	-50.6118	-37.0635	-42.4253
 116	1	6	0.059229	-49.8479	-35.5128	-42.8343
 117	1	5	0.166497	-47.8291	-34.0371	-42.2441
 118	1	5	0.141714	-47.5887	-34.747	-37.2315
 119	1	6	0.041341	-45.8653	-31.5072	-40.6931
 120	1	6	0.038019	-45.7367	-31.8581	-38.2071
 121	1	6	0.012124	-47.9367	-30.2533	-41.3133
 122	1	6	0.001144	-49.5957	-32.36	-40.6111
 123	1	6	0.009013	-47.7165	-30.8549	-37.0585
 124	1	6	0.001345	-49.4667	-32.71	-38.1452
 125	1	6	0.041603	-46.6525	-29.5452	-39.1041
 126	1	6	0.069352	-48.3818	-29.1593	-38.9597
 127	1	1	-0.425718	-36.0393	-54.4422	-32.421
 128	1	1	0.123859	-34.719	-54.0126	-32.1917
 129	1	1	0.123846	-34.4025	-52.8207	-31.5693
 130	1	1	-0.442194	-35.3624	-51.9058	-31.1014
 131	1	1	0.030377	-36.6627	-52.4468	-31.1155
 132	1	1	0.003389	-36.9836	-53.6493	-31.7381
 133	1	2	0.006267	-38.4449	-53.2784	-31.9192
 134	1	2	0.040808	-38.076	-51.9034	-31.2139
 135	1	3	0.010049	-38.8998	-52.8571	-33.3419
 136	1	2	-0.044998	-40.2742	-52.2612	-32.9309
 137	1	2	-0.017344	-39.8969	-50.8825	-32.2327
 138	1	3	0.004207	-38.3477	-50.8377	-32.3099
 139	1	3	-0.10977	-38.0364	-51.5959	-33.6323
 140	1	1	-0.002799	-40.9922	-51.4169	-33.9662
 141	1	1	-0.006419	-40.6612	-50.2234	-33.3652
 142	1	1	-0.256521	-41.3445	-51.5248	-35.3171
 143	1	1	0.004841	-41.4751	-50.2938	-35.9992
 144	1	4	0.00733	-41.1223	-49.0649	-35.3861
 145	1	1	-0.221146	-40.6327	-49.0068	-34.0569
 146	1	3	0.21053	-41.863	-50.088	-37.4692
 147	1	4	0.0182	-41.2343	-47.9962	-36.3901
 148	1	1	0.000377	-41.6778	-48.5715	-37.609
 149	1	3	-0.237942	-40.9144	-50.8531	-38.4189
 150	1	3	-0.215479	-43.3307	-50.5027	-37.7161
 151	1	1	-0.2391	-42.0098	-47.7748	-38.729
 152	1	1	-0.027923	-41.7574	-46.4068	-38.5706
 153	1	1	-0.180376	-41.0901	-46.5945	-36.2316
 154	1	1	-0.054224	-41.3172	-45.8483	-37.3937
 155	1	2	0.006282	-42.24	-45.0855	-39.1433
 156	1	2	0.015188	-41.7266	-44.438	-37.7827
 157	1	3	0.034756	-43.7509	-44.7364	-39.1451
 158	1	3	0.003059	-44.5169	-45.5449	-38.0535
 159	1	3	0.042972	-43.011	-43.8011	-37.1929
 160	1	3	0.004163	-44.0047	-44.897	-36.703
 161	1	3	-0.197219	-43.6693	-43.3295	-38.5098
 162	1	5	0.227416	-36.3023	-55.2234	-33.1268
 163	1	5	0.230059	-35.1398	-50.8707	-30.863
 164	1	6	0.034807	-39.1511	-53.9323	-31.3941
 165	1	6	0.022109	-38.5545	-51.6944	-30.2497
 166	1	6	0.043894	-38.9085	-53.6397	-34.1106
 167	1	6	0.04727	-40.9186	-52.9465	-32.3675
 168	1	6	0.039454	-40.3083	-50.6997	-31.2328
 169	1	6	0.037752	-37.8732	-49.8576	-32.1764
 170	1	6	0.046701	-38.3645	-51.0499	-34.5262
 171	1	6	0.047659	-36.9713	-51.828	-33.7479
 172	1	5	0.173906	-41.4633	-52.4833	-35.8123
 173	1	5	0.156928	-40.2176	-48.101	-33.6273
 174	1	6	0.056509	-41.0038	-51.9368	-38.2762
 175	1	6	0.064596	-39.871	-50.5695	-38.2315
 176	1	6	0.065502	-41.1448	-50.6261	-39.467
 177	1	6	0.062922	-44.0045	-49.9487	-37.0501
 178	1	6	0.049805	-43.4716	-51.574	-37.5266
 179	1	6	0.059229	-43.6299	-50.2966	-38.7509
 180	1	5	0.166497	-42.4799	-48.1817	-39.6188
 181	1	5	0.141714	-40.8899	-46.1332	-35.2699
 182	1	6	0.041341	-41.7288	-44.7298	-40.0446
 183	1	6	0.038019	-40.9157	-43.7101	-37.8966
 184	1	6	0.012124	-44.2279	-44.7615	-40.1329
 185	1	6	0.001144	-44.423	-46.6365	-38.0994
 186	1	6	0.009013	-42.8346	-43.0021	-36.4619
 187	1	6	0.001345	-43.6172	-45.615	-35.9705
 188	1	6	0.041603	-43.0299	-42.6422	-39.0814
 189	1	6	0.069352	-44.6451	-42.8519	-38.3687
 190	1	1	-0.425718	-22.7587	-55.9407	-24.6409
 191	1	1	0.123859	-21.6226	-55.1108	-24.6831
 192	1	1	0.123846	-21.6883	-53.745	-24.8801
 193	1	1	-0.442194	-22.8907	-53.0307	-25.0237
 194	1	1	0.030377	-24.0166	-53.8208	-24.7223
 195	1	1	0.003389	-23.9555	-55.201	-24.5571
 196	1	2	0.006267	-25.4115	-55.4102	-24.9365
 197	1	2	0.040808	-25.4815	-53.8326	-25.1133
 198	1	3	0.010049	-25.7083	-55.9544	-26.3619
 199	1	2	-0.044998	-27.2308	-55.6492	-26.367
 200	1	2	-0.017344	-27.2991	-54.0638	-26.5309
 201	1	3	0.004207	-25.8109	-53.6353	-26.6158
 202	1	3	-0.10977	-25.1245	-54.8551	-27.2951
 203	1	1	-0.002799	-27.9485	-55.7029	-27.7035
 204	1	1	-0.006419	-28.0077	-54.3402	-27.8402
 205	1	1	-0.256521	-28.2393	-56.5995	-28.7378
 206	1	1	0.004841	-28.7089	-55.9861	-29.9245
 207	1	4	0.00733	-28.7605	-54.574	-30.0683
 208	1	1	-0.221146	-28.3578	-53.6957	-29.0295
 209	1	3	0.21053	-29.1904	-56.686	-31.2022
 210	1	4	0.0182	-29.2764	-54.2599	-31.4084
 211	1	1	0.000377	-29.5664	-55.4784	-32.073
 212	1	3	-0.237942	-28.0564	-57.507	-31.8545
 213	1	3	-0.215479	-30.4157	-57.5835	-30.9158
 214	1	1	-0.2391	-30.2847	-55.5016	-33.2905
 215	1	1	-0.027923	-30.578	-54.2434	-33.833
 216	1	1	-0.180376	-29.6682	-53.0061	-31.9394
 217	1	1	-0.054224	-30.2737	-53.0577	-33.2006
 218	1	2	0.006282	-31.6698	-53.6271	-34.6929
 219	1	2	0.015188	-31.3125	-52.2579	-33.9692
 220	1	3	0.034756	-33.1665	-53.8288	-34.3315
 221	1	3	0.003059	-33.3441	-54.1673	-32.8189
 222	1	3	0.042972	-32.6507	-51.8557	-33.2968
 223	1	3	0.004163	-32.984	-52.8012	-32.1037
 224	1	3	-0.197219	-33.6262	-52.3535	-34.3881
 225	1	5	0.227416	-22.7206	-57.0176	-24.7697
 226	1	5	0.230059	-22.9478	-52.0249	-25.4271
 227	1	6	0.034807	-26.0322	-55.8492	-24.1465
 228	1	6	0.022109	-26.1397	-53.2837	-24.4293
 229	1	6	0.043894	-25.4101	-56.9898	-26.5688
 230	1	6	0.04727	-27.7848	-56.0906	-25.53
 231	1	6	0.039454	-27.8934	-53.5075	-25.7961
 232	1	6	0.037752	-25.6031	-52.6464	-27.043
 233	1	6	0.046701	-25.4221	-54.9831	-28.3439
 234	1	6	0.047659	-24.0303	-54.8024	-27.2551
 235	1	5	0.173906	-28.1154	-57.673	-28.6362
 236	1	5	0.156928	-28.3218	-52.6177	-29.1477
 237	1	6	0.056509	-27.743	-58.3318	-31.2029
 238	1	6	0.064596	-27.1817	-56.8721	-32.0445
 239	1	6	0.065502	-28.3823	-57.9306	-32.8124
 240	1	6	0.062922	-30.7926	-58.0425	-31.8376
 241	1	6	0.049805	-31.2288	-56.9961	-30.4705
 242	1	6	0.059229	-30.1564	-58.3882	-30.2172
 243	1	5	0.166497	-30.6671	-56.4209	-33.7228
 244	1	5	0.141714	-29.6098	-52.0897	-31.361
 245	1	6	0.041341	-31.4985	-53.6338	-35.775
 246	1	6	0.038019	-30.9288	-51.4738	-34.6314
 247	1	6	0.012124	-33.7151	-54.5004	-35.0036
 248	1	6	0.001144	-32.7916	-55.037	-32.445
 249	1	6	0.009013	-32.7431	-50.7889	-33.0575
 250	1	6	0.001345	-32.2279	-52.8816	-31.3149
 251	1	6	0.041603	-33.4403	-51.8887	-35.3666
 252	1	6	0.069352	-34.6836	-52.2092	-34.1355
 253	1	1	-0.425718	-14.0844	-47.6285	-15.9399
 254	1	1	0.123859	-13.5324	-46.3377	-16.0477
 255	1	1	0.123846	-13.8618	-45.4518	-17.0564
 256	1	1	-0.442194	-14.799	-45.7319	-18.0665
 257	1	1	0.030377	-15.5264	-46.9085	-17.804
 258	1	1	0.003389	-15.1818	-47.8122	-16.8047
 259	1	2	0.006267	-15.8764	-48.9811	-17.4835
 260	1	2	0.040808	-16.2719	-47.9445	-18.6215
 261	1	3	0.010049	-14.987	-50.0198	-18.2232
 262	1	2	-0.044998	-16.1322	-50.7286	-18.9986
 263	1	2	-0.017344	-16.5241	-49.6802	-20.1296
 264	1	3	0.004207	-15.5616	-48.4895	-19.8883
 265	1	3	-0.10977	-14.2843	-49.1717	-19.321
 266	1	1	-0.002799	-15.7379	-51.6479	-20.1423
 267	1	1	-0.006419	-16.071	-50.7355	-21.1162
 268	1	1	-0.256521	-15.6674	-53.0268	-20.3804
 269	1	1	0.004841	-15.8382	-53.4113	-21.7323
 270	1	4	0.00733	-16.1625	-52.4641	-22.7374
 271	1	1	-0.221146	-16.3551	-51.0926	-22.4369
 272	1	3	0.21053	-15.9253	-54.8433	-22.2821
 273	1	4	0.0182	-16.4893	-53.1878	-23.9738
 274	1	1	0.000377	-16.3799	-54.5788	-23.7251
 275	1	3	-0.237942	-14.5475	-55.5389	-22.2505
 276	1	3	-0.215479	-16.9726	-55.679	-21.5093
 277	1	1	-0.2391	-16.8499	-55.534	-24.6568
 278	1	1	-0.027923	-17.3224	-55.0072	-25.8672
 279	1	1	-0.180376	-17.0639	-52.685	-25.1665
 280	1	1	-0.054224	-17.4159	-53.6543	-26.1117
 281	1	2	0.006282	-18.3635	-55.3752	-26.9157
 282	1	2	0.015188	-18.4749	-53.8133	-27.1866
 283	1	3	0.034756	-19.8111	-55.7583	-26.5033
 284	1	3	0.003059	-20.1623	-55.1995	-25.0927
 285	1	3	0.042972	-19.9604	-53.5055	-26.866
 286	1	3	0.004163	-20.2472	-53.6375	-25.3372
 287	1	3	-0.197219	-20.5923	-54.7986	-27.4307
 288	1	5	0.227416	-13.6468	-48.4207	-15.341
 289	1	5	0.230059	-14.8734	-45.1679	-18.9906
 290	1	6	0.034807	-16.6983	-49.4211	-16.9065
 291	1	6	0.022109	-17.3401	-47.7354	-18.7546
 292	1	6	0.043894	-14.3442	-50.6539	-17.5999
 293	1	6	0.04727	-16.9267	-51.1213	-18.353
 294	1	6	0.039454	-17.5764	-49.3885	-20.2309
 295	1	6	0.037752	-15.4231	-47.7874	-20.7199
 296	1	6	0.046701	-13.762	-49.7863	-20.0656
 297	1	6	0.047659	-13.5678	-48.4525	-18.9073
 298	1	5	0.173906	-15.5782	-53.7498	-19.5758
 299	1	5	0.156928	-16.7805	-50.3939	-23.1496
 300	1	6	0.056509	-14.1938	-55.6605	-21.2192
 301	1	6	0.064596	-13.8037	-54.9456	-22.7973
 302	1	6	0.065502	-14.5995	-56.5308	-22.716
 303	1	6	0.062922	-17.9533	-55.1868	-21.5358
 304	1	6	0.049805	-16.6819	-55.8022	-20.459
 305	1	6	0.059229	-17.0818	-56.678	-21.9481
 306	1	5	0.166497	-16.9368	-56.5883	-24.4136
 307	1	5	0.141714	-17.3198	-51.6376	-25.2885
 308	1	6	0.041341	-18.0061	-55.9644	-27.7673
 309	1	6	0.038019	-18.1933	-53.4993	-28.1978
 310	1	6	0.012124	-20.0615	-56.8185	-26.6346
 311	1	6	0.001144	-19.4995	-55.497	-24.2719
 312	1	6	0.009013	-20.345	-52.5798	-27.3121
 313	1	6	0.001345	-19.6279	-53.0334	-24.6652
 314	1	6	0.041603	-20.3606	-54.9548	-28.4937
 315	1	6	0.069352	-21.6807	-54.85	-27.3063
 316	1	1	-0.425718	-8.76969	-33.3463	-11.5273
 317	1	1	0.123859	-7.70299	-32.7908	-12.2577
 318	1	1	0.123846	-7.67493	-32.733	-13.638
 319	1	1	-0.442194	-8.71969	-33.2002	-14.4565
 320	1	1	0.030377	-9.88152	-33.5104	-13.7208
 321	1	1	0.003389	-9.90073	-33.591	-12.3312
 322	1	2	0.006267	-11.0735	-34.5562	-12.3032
 323	1	2	0.040808	-11.0586	-34.4548	-13.8878
 324	1	3	0.010049	-10.755	-36.0515	-12.0244
 325	1	2	-0.044998	-12.1359	-36.6266	-12.4429
 326	1	2	-0.017344	-12.1296	-36.5125	-14.0268
 327	1	3	0.004207	-10.7409	-35.8996	-14.3527
 328	1	3	-0.10977	-9.83394	-36.4476	-13.2138
 329	1	1	-0.002799	-12.2182	-38.1284	-12.6576
 330	1	1	-0.006419	-12.2167	-38.0257	-14.0339
 331	1	1	-0.256521	-11.7572	-39.2661	-11.9797
 332	1	1	0.004841	-11.4216	-40.367	-12.8004
 333	1	4	0.00733	-11.4128	-40.2572	-14.2123
 334	1	1	-0.221146	-11.745	-39.0468	-14.8672
 335	1	3	0.21053	-10.867	-41.7267	-12.3503
 336	1	4	0.0182	-10.8452	-41.4912	-14.7729
 337	1	1	0.000377	-10.5231	-42.3654	-13.7032
 338	1	3	-0.237942	-9.60279	-41.5635	-11.4771
 339	1	3	-0.215479	-11.9441	-42.5413	-11.6002
 340	1	1	-0.2391	-10.0527	-43.6799	-13.934
 341	1	1	-0.027923	-9.83188	-43.9956	-15.2812
 342	1	1	-0.180376	-10.7116	-41.8823	-16.1284
 343	1	1	-0.054224	-10.1418	-43.1457	-16.3162
 344	1	2	0.006282	-9.74218	-45.2242	-16.1739
 345	1	2	0.015188	-10.1137	-44.2387	-17.3678
 346	1	3	0.034756	-10.8938	-46.2628	-16.2105
 347	1	3	0.003059	-12.229	-45.631	-15.7186
 348	1	3	0.042972	-11.44	-44.8302	-17.9083
 349	1	3	0.004163	-12.6007	-44.6273	-16.8855
 350	1	3	-0.197219	-11.1131	-46.3319	-17.7398
 351	1	5	0.227416	-8.68657	-33.6595	-10.4916
 352	1	5	0.230059	-8.60255	-33.4098	-15.5148
 353	1	6	0.034807	-11.9664	-34.1807	-11.7897
 354	1	6	0.022109	-11.939	-34.0093	-14.3661
 355	1	6	0.043894	-10.3987	-36.3023	-11.0176
 356	1	6	0.04727	-12.9901	-36.1875	-11.9139
 357	1	6	0.039454	-12.9775	-35.9985	-14.4951
 358	1	6	0.037752	-10.3746	-36.0195	-15.3798
 359	1	6	0.046701	-9.66397	-37.5295	-13.2834
 360	1	6	0.047659	-8.8572	-35.9542	-13.1758
 361	1	5	0.173906	-11.6025	-39.2746	-10.9055
 362	1	5	0.156928	-11.5674	-38.8946	-15.9267
 363	1	6	0.056509	-9.16413	-42.54	-11.2378
 364	1	6	0.064596	-9.8378	-41.0549	-10.5344
 365	1	6	0.065502	-8.84468	-40.9707	-12.0045
 366	1	6	0.062922	-11.5693	-43.5366	-11.3324
 367	1	6	0.049805	-12.8359	-42.6711	-12.2267
 368	1	6	0.059229	-12.2486	-42.0307	-10.6784
 369	1	5	0.166497	-9.92339	-44.4047	-13.1362
 370	1	5	0.141714	-11.0799	-41.2774	-16.9507
 371	1	6	0.041341	-8.75592	-45.6941	-16.2555
 372	1	6	0.038019	-9.34838	-44.1473	-18.1466
 373	1	6	0.012124	-10.6597	-47.2267	-15.7416
 374	1	6	0.001144	-12.2151	-45.1814	-14.7185
 375	1	6	0.009013	-11.6929	-44.532	-18.9334
 376	1	6	0.001345	-12.7927	-43.598	-16.5598
 377	1	6	0.041603	-10.2069	-46.6322	-18.2844
 378	1	6	0.069352	-11.9304	-46.9985	-18.0405
 379	1	1	-0.425718	1.68816	-22.1545	-15.3153
 380	1	1	0.123859	2.92534	-22.3825	-15.9414
 381	1	1	0.123846	3.0887	-23.1706	-17.0642
 382	1	1	-0.442194	2.0275	-23.8581	-17.6857
 383	1	1	0.030377	0.768068	-23.4479	-17.1995
 384	1	1	0.003389	0.61041	-22.6311	-16.0844
 385	1	2	0.006267	-0.801295	-23.1055	-15.8092
 386	1	2	0.040808	-0.628494	-24.0413	-17.0818
 387	1	3	0.010049	-0.987438	-24.0986	-14.6325
 388	1	2	-0.044998	-2.44315	-24.5087	-14.9718
 389	1	2	-0.017344	-2.29116	-25.4482	-16.2468
 390	1	3	0.004207	-0.756596	-25.4772	-16.5015
 391	1	3	-0.10977	-0.155986	-25.3376	-15.0733
 392	1	1	-0.002799	-2.98967	-25.7311	-14.2628
 393	1	1	-0.006419	-2.87117	-26.543	-15.3679
 394	1	1	-0.256521	-3.03719	-26.2229	-12.9525
 395	1	1	0.004841	-3.1232	-27.6295	-12.846
 396	1	4	0.00733	-3.03716	-28.4674	-13.9865
 397	1	1	-0.221146	-2.82599	-27.9398	-15.2859
 398	1	3	0.21053	-3.18469	-28.4565	-11.555
 399	1	4	0.0182	-3.0574	-29.867	-13.5358
 400	1	1	0.000377	-3.13665	-29.8823	-12.1195
 401	1	3	-0.237942	-1.96812	-28.1776	-10.6446
 402	1	3	-0.215479	-4.50422	-28.1962	-10.7942
 403	1	1	-0.2391	-3.30165	-31.0863	-11.3966
 404	1	1	-0.027923	-3.29104	-32.2502	-12.1761
 405	1	1	-0.180376	-3.17496	-31.0533	-14.3021
 406	1	1	-0.054224	-3.24536	-32.2323	-13.5515
 407	1	2	0.006282	-3.85114	-33.6619	-12.1064
 408	1	2	0.015188	-3.81602	-33.6318	-13.6966
 409	1	3	0.034756	-5.3502	-33.9027	-11.7926
 410	1	3	0.003059	-6.19915	-32.6396	-12.1216
 411	1	3	0.042972	-5.30622	-33.8349	-14.0786
 412	1	3	0.004163	-6.16425	-32.5856	-13.7033
 413	1	3	-0.197219	-5.69532	-34.8413	-12.9714
 414	1	5	0.227416	1.58668	-21.757	-14.3106
 415	1	5	0.230059	2.16952	-24.68	-18.3799
 416	1	6	0.034807	-1.56541	-22.3213	-15.8678
 417	1	6	0.022109	-1.28497	-23.8416	-17.937
 418	1	6	0.043894	-0.804216	-23.7109	-13.6227
 419	1	6	0.04727	-3.14695	-23.6713	-15.049
 420	1	6	0.039454	-2.89337	-25.1951	-17.1275
 421	1	6	0.037752	-0.37303	-26.2968	-17.1217
 422	1	6	0.046701	-0.337209	-26.2198	-14.4459
 423	1	6	0.047659	0.922999	-25.143	-15.0835
 424	1	5	0.173906	-2.9637	-25.5745	-12.0853
 425	1	5	0.156928	-2.59198	-28.5677	-16.1394
 426	1	6	0.056509	-1.0312	-28.3448	-11.1911
 427	1	6	0.064596	-1.97424	-28.8405	-9.77072
 428	1	6	0.065502	-1.97363	-27.1408	-10.2875
 429	1	6	0.062922	-5.36778	-28.4137	-11.4357
 430	1	6	0.049805	-4.57291	-27.1486	-10.4764
 431	1	6	0.059229	-4.57615	-28.8292	-9.90149
 432	1	5	0.166497	-3.50337	-31.1036	-10.3302
 433	1	5	0.141714	-3.28996	-31.0397	-15.3812
 434	1	6	0.041341	-3.20466	-34.4176	-11.6466
 435	1	6	0.038019	-3.16146	-34.38	-14.1574
 436	1	6	0.012124	-5.55077	-34.3269	-10.8008
 437	1	6	0.001144	-5.90122	-31.7084	-11.6259
 438	1	6	0.009013	-5.4734	-34.198	-15.1004
 439	1	6	0.001345	-5.83605	-31.6256	-14.1191
 440	1	6	0.041603	-5.07592	-35.7492	-12.9862
 441	1	6	0.069352	-6.74769	-35.1443	-13.0007
 442	1	1	-0.425718	13.2509	-15.4449	-23.6501
 443	1	1	0.123859	14.3292	-15.7319	-24.5018
 444	1	1	0.123846	14.6427	-17.0124	-24.939
 445	1	1	-0.442194	13.8559	-18.1317	-24.591
 446	1	1	0.030377	12.9255	-17.8783	-23.5604
 447	1	1	0.003389	12.6505	-16.5911	-23.107
 448	1	2	0.006267	11.2285	-16.9203	-22.7174
 449	1	2	0.040808	11.5244	-18.3885	-23.2346
 450	1	3	0.010049	10.9588	-17.0948	-21.2018
 451	1	2	-0.044998	9.53898	-17.6892	-21.3536
 452	1	2	-0.017344	9.78983	-19.1746	-21.8763
 453	1	3	0.004207	11.3441	-19.2659	-21.9625
 454	1	3	-0.10977	11.8247	-18.3286	-20.8181
 455	1	1	-0.002799	8.93437	-18.3321	-20.126
 456	1	1	-0.006419	9.12301	-19.6123	-20.5807
 457	1	1	-0.256521	8.65365	-18.0177	-18.7933
 458	1	1	0.004841	8.40803	-19.1391	-17.9687
 459	1	4	0.00733	8.5213	-20.4688	-18.4547
 460	1	1	-0.221146	8.96006	-20.7472	-19.7774
 461	1	3	0.21053	8.05219	-19.1202	-16.4783
 462	1	4	0.0182	8.18832	-21.3907	-17.355
 463	1	1	0.000377	7.9258	-20.621	-16.1922
 464	1	3	-0.237942	9.18067	-18.4851	-15.6364
 465	1	3	-0.215479	6.71385	-18.3848	-16.238
 466	1	1	-0.2391	7.42492	-21.2068	-15.009
 467	1	1	-0.027923	7.27084	-22.5973	-15.052
 468	1	1	-0.180376	7.89945	-22.7788	-17.4047
 469	1	1	-0.054224	7.47435	-23.3415	-16.1934
 470	1	2	0.006282	6.35286	-23.6257	-14.4186
 471	1	2	0.015188	6.58416	-24.4889	-15.7331
 472	1	3	0.034756	4.82056	-23.3967	-14.41
 473	1	3	0.003059	4.39015	-22.436	-15.5619
 474	1	3	0.042972	5.14204	-24.6609	-16.2879
 475	1	3	0.004163	4.58915	-23.3213	-16.8595
 476	1	3	-0.197219	4.37608	-24.7757	-14.9493
 477	1	5	0.227416	12.8024	-14.4587	-23.5847
 478	1	5	0.230059	13.8343	-19.0371	-25.189
 479	1	6	0.034807	10.4699	-16.3249	-23.2395
 480	1	6	0.022109	10.962	-18.7571	-24.1006
 481	1	6	0.043894	11.0577	-16.2008	-20.5733
 482	1	6	0.04727	8.84238	-17.067	-21.9283
 483	1	6	0.039454	9.26719	-19.4775	-22.7913
 484	1	6	0.037752	11.7796	-20.2725	-21.9917
 485	1	6	0.046701	11.59	-18.721	-19.82
 486	1	6	0.047659	12.902	-18.1222	-20.8608
 487	1	5	0.173906	8.64346	-16.998	-18.4214
 488	1	5	0.156928	9.17196	-21.752	-20.1282
 489	1	6	0.056509	8.9558	-18.5545	-14.565
 490	1	6	0.064596	9.31244	-17.4265	-15.8911
 491	1	6	0.065502	10.1328	-18.9998	-15.8178
 492	1	6	0.062922	5.9092	-18.8493	-16.8224
 493	1	6	0.049805	6.7858	-17.3318	-16.5363
 494	1	6	0.059229	6.42886	-18.4195	-15.1796
 495	1	5	0.166497	7.07708	-20.6131	-14.1694
 496	1	5	0.141714	7.90143	-23.3362	-18.3359
 497	1	6	0.041341	6.70937	-24.0909	-13.4928
 498	1	6	0.038019	7.08109	-25.4513	-15.568
 499	1	6	0.012124	4.39997	-23.1341	-13.4312
 500	1	6	0.001144	4.87648	-21.4549	-15.5951
 501	1	6	0.009013	5.00764	-25.5175	-16.9603
 502	1	6	0.001345	5.18797	-22.8457	-17.6452
 503	1	6	0.041603	4.73249	-25.6093	-14.3278
 504	1	6	0.069352	3.29007	-24.8762	-15.0668
 505	1	1	-0.425718	28.816	-12.3389	-34.3585
 506	1	1	0.123859	29.9578	-13.1246	-34.5759
 507	1	1	0.123846	29.9964	-14.4962	-34.3624
 508	1	1	-0.442194	28.86	-15.2187	-33.9358
 509	1	1	0.030377	27.797	-14.4027	-33.4903
 510	1	1	0.003389	27.7884	-13.0259	-33.6951
 511	1	2	0.006267	26.2836	-12.9418	-33.768
 512	1	2	0.040808	26.2727	-14.5081	-33.5284
 513	1	3	0.010049	25.577	-12.3563	-32.5228
 514	1	2	-0.044998	24.1467	-12.7534	-32.9519
 515	1	2	-0.017344	24.0806	-14.3299	-32.7077
 516	1	3	0.004207	25.5103	-14.6624	-32.1774
 517	1	3	-0.10977	25.9128	-13.3778	-31.3989
 518	1	1	-0.002799	23.0755	-12.6485	-31.8959
 519	1	1	-0.006419	22.9914	-13.9989	-31.6922
 520	1	1	-0.256521	22.3944	-11.6941	-31.1419
 521	1	1	0.004841	21.5011	-12.2431	-30.1951
 522	1	4	0.00733	21.3378	-13.6471	-30.0278
 523	1	1	-0.221146	22.1206	-14.5843	-30.7624
 524	1	3	0.21053	20.5782	-11.4544	-29.2653
 525	1	4	0.0182	20.261	-13.8657	-29.0386
 526	1	1	0.000377	19.812	-12.5954	-28.5915
 527	1	3	-0.237942	21.3852	-10.6393	-28.231
 528	1	3	-0.215479	19.6348	-10.5296	-30.0696
 529	1	1	-0.2391	18.6609	-12.4534	-27.7906
 530	1	1	-0.027923	18.0614	-13.6493	-27.3907
 531	1	1	-0.180376	19.5431	-15.0519	-28.7222
 532	1	1	-0.054224	18.4702	-14.8918	-27.8293
 533	1	2	0.006282	16.6422	-14.088	-27.1237
 534	1	2	0.015188	17.0938	-15.5235	-27.6243
 535	1	3	0.034756	16.2282	-14.3305	-25.658
 536	1	3	0.003059	14.8698	-15.0663	-25.7463
 537	1	3	0.042972	16.8201	-16.4095	-26.3772
 538	1	3	0.004163	15.2651	-16.5142	-26.2403
 539	1	3	-0.197219	17.185	-15.461	-25.2124
 540	1	5	0.227416	28.6691	-11.3739	-34.8332
 541	1	5	0.230059	28.7457	-16.2832	-34.1137
 542	1	6	0.034807	25.9027	-12.5552	-34.721
 543	1	6	0.022109	25.8799	-15.1515	-34.3245
 544	1	6	0.043894	25.7535	-11.2957	-32.3036
 545	1	6	0.04727	23.845	-12.3801	-33.938
 546	1	6	0.039454	23.7569	-14.9588	-33.5455
 547	1	6	0.037752	25.6314	-15.6164	-31.6493
 548	1	6	0.046701	25.3142	-13.2255	-30.4912
 549	1	6	0.047659	26.9736	-13.3664	-31.1165
 550	1	5	0.173906	22.5286	-10.6265	-31.2838
 551	1	5	0.156928	22.0403	-15.6576	-30.6242
 552	1	6	0.056509	20.7166	-10.1408	-27.5183
 553	1	6	0.064596	21.9946	-9.87239	-28.7244
 554	1	6	0.065502	22.0578	-11.2951	-27.6637
 555	1	6	0.062922	20.2045	-9.7725	-30.6217
 556	1	6	0.049805	18.9332	-10.0078	-29.4076
 557	1	6	0.059229	19.0513	-11.1112	-30.7946
 558	1	5	0.166497	18.211	-11.4868	-27.5866
 559	1	5	0.141714	19.7437	-15.9944	-29.2212
 560	1	6	0.041341	15.8718	-13.5623	-27.699
 561	1	6	0.038019	16.6185	-15.9205	-28.5282
 562	1	6	0.012124	16.2244	-13.442	-25.0142
 563	1	6	0.001144	14.1044	-14.5785	-26.3645
 564	1	6	0.009013	17.3419	-17.3745	-26.3646
 565	1	6	0.001345	14.733	-16.8301	-27.1473
 566	1	6	0.041603	18.2412	-15.1621	-25.2086
 567	1	6	0.069352	16.9521	-15.8721	-24.2214
 568	1	1	-0.425718	46.7724	-16.0353	-36.567
 569	1	1	0.123859	47.3966	-16.7431	-35.5136
 570	1	1	0.123846	46.8548	-17.9628	-34.9925
 571	1	1	-0.442194	45.6308	-18.4739	-35.5052
 572	1	1	0.030377	45.0882	-17.7821	-36.5907
 573	1	1	0.003389	45.6428	-16.6478	-37.105
 574	1	2	0.006267	44.4796	-16.3568	-38.0268
 575	1	2	0.040808	43.8184	-17.6772	-37.4223
 576	1	3	0.010049	43.5141	-15.2237	-37.6011
 577	1	2	-0.044998	42.3944	-15.5671	-38.6152
 578	1	2	-0.017344	41.7059	-16.8739	-38.012
 579	1	3	0.004207	42.5307	-17.1524	-36.7222
 580	1	3	-0.10977	42.9388	-15.7285	-36.2461
 581	1	1	-0.002799	41.0592	-14.8935	-38.402
 582	1	1	-0.006419	40.4568	-16.0124	-37.8886
 583	1	1	-0.256521	40.5118	-13.6114	-38.3305
 584	1	1	0.004841	39.2041	-13.5686	-37.7972
 585	1	4	0.00733	38.5512	-14.7293	-37.299
 586	1	1	-0.221146	39.1954	-15.9975	-37.2787
 587	1	3	0.21053	38.3274	-12.3238	-37.6444
 588	1	4	0.0182	37.2078	-14.3355	-36.8299
 589	1	1	0.000377	37.0617	-12.9388	-37.0384
 590	1	3	-0.237942	38.9661	-11.3002	-36.6798
 591	1	3	-0.215479	38.045	-11.6722	-39.0178
 592	1	1	-0.2391	35.8204	-12.2898	-36.8714
 593	1	1	-0.027923	34.7908	-13.0978	-36.3826
 594	1	1	-0.180376	36.1039	-15.1474	-36.451
 595	1	1	-0.054224	34.9157	-14.4541	-36.1726
 596	1	2	0.006282	33.2888	-13.1491	-36.5348
 597	1	2	0.015188	33.4154	-14.712	-36.2875
 598	1	3	0.034756	32.4257	-12.6692	-35.3505
 599	1	3	0.003059	30.9941	-13.1623	-35.6746
 600	1	3	0.042972	32.564	-14.9169	-35.0029
 601	1	3	0.004163	31.0709	-14.7208	-35.424
 602	1	3	-0.197219	32.8489	-13.622	-34.2079
 603	1	5	0.227416	47.1492	-15.085	-36.9322
 604	1	5	0.230059	45.1471	-19.3523	-35.0892
 605	1	6	0.034807	44.7321	-16.3644	-39.0938
 606	1	6	0.022109	43.648	-18.5129	-38.1112
 607	1	6	0.043894	43.9089	-14.2004	-37.6246
 608	1	6	0.04727	42.721	-15.6081	-39.6613
 609	1	6	0.039454	41.6052	-17.739	-38.6782
 610	1	6	0.037752	42.0712	-17.8106	-35.9744
 611	1	6	0.046701	42.0831	-15.1345	-35.8992
 612	1	6	0.047659	43.6897	-15.747	-35.4455
 613	1	5	0.173906	41.0491	-12.7248	-38.6524
 614	1	5	0.156928	38.7521	-16.8764	-36.822
 615	1	6	0.056509	39.9084	-10.9122	-37.0856
 616	1	6	0.064596	39.1799	-11.7665	-35.7096
 617	1	6	0.065502	38.2919	-10.4523	-36.5075
 618	1	6	0.062922	37.5779	-12.3953	-39.6984
 619	1	6	0.049805	38.9738	-11.3195	-39.4828