pySIMM System Object

2974 atoms
3488 bonds
7176 angles
13480 dihedrals
276 impropers

6 atom types
11 bond types
24 angle types
21 dihedral types
1 improper types

-203.140590 203.140590 xlo xhi
-203.140590 203.140590 ylo yhi
-203.140590 203.140590 zlo zhi

Masses

   1	12.01	# ca
   2	12.01	# cy
   3	12.01	# c3
   4	12.01	# cp
   5	1.008	# ha
   6	1.008	# hc

Pair Coeffs

   1	0.086	3.3996695084235347	# ca
   2	0.086	3.3996695084235347	# cy
   3	0.1094	3.3996695084235347	# c3
   4	0.086	3.3996695084235347	# cp
   5	0.015	2.59964245953351	# ha
   6	0.0157	2.649532787749369	# hc

Bond Coeffs

   1	321.0	1.5156	# c3,ca
   2	285.0	1.5562	# cy,cy
   3	330.6	1.0969	# c3,hc
   4	333.3	1.0949	# cy,hc
   5	321.2	1.5154	# ca,cy
   6	461.1	1.3984	# ca,ca
   7	300.9	1.5375	# c3,c3
   8	305.9	1.5319	# c3,cy
   9	351.4	1.4854	# cp,cp
  10	345.8	1.086	# ca,ha
  11	450.2	1.4058	# ca,cp

Angle Coeffs

   1	62.73	112.39	# c3,c3,cy
   2	46.29	110.75	# cy,c3,hc
   3	44.83	114.79	# cy,cy,hc
   4	60.66	118.7	# c3,cy,cy
   5	66.72	118.38	# ca,cp,ca
   6	62.86	111.51	# c3,c3,c3
   7	46.43	110.14	# c3,cy,hc
   8	63.43	120.63	# c3,ca,cp
   9	63.56	112.24	# ca,c3,ca
  10	64.05	121.11	# ca,cp,cp
  11	66.62	120.02	# ca,ca,ca
  12	39.4	107.58	# hc,c3,hc
  13	47.98	119.86	# cp,ca,ha
  14	63.53	120.77	# c3,ca,ca
  15	63.51	120.86	# ca,ca,cy
  16	62.8	113.57	# c3,cy,ca
  17	67.9	96.03	# cy,c3,cy
  18	45.97	114.53	# ca,cy,hc
  19	61.4	116.81	# ca,cy,cy
  20	63.15	112.07	# c3,c3,ca
  21	66.26	120.69	# ca,ca,cp
  22	46.34	109.8	# c3,c3,hc
  23	48.18	119.88	# ca,ca,ha
  24	46.8	110.47	# ca,c3,hc

Dihedral Coeffs

   1	1	0.16	3	0.0	# cy,c3,cy,ca
   2	1	0.16	3	0.0	# c3,c3,cy,ca
   3	1	0.16	3	0.0	# hc,c3,cy,ca
   4	3	0.18	3	0.0	0.25	2	180.0	0.2	1	180.0	# cy,c3,cy,cy
   5	1	0.15	3	0	# hc,c3,c3,hc
   6	3	0.18	3	0.0	0.25	2	180.0	0.2	1	180.0	# c3,c3,cy,cy
   7	1	0.16	3	0.0	# hc,c3,cy,cy
   8	1	0.16	3	0.0	# cy,c3,cy,hc
   9	1	0.16	3	0.0	# c3,c3,cy,hc
  10	1	0.15	3	0.0	# hc,c3,cy,hc
  11	1	3.625	2	180	# X,ca,ca,X
  12	1	0.15555555555555556	3	0	# X,cy,cy,X
  13	1	3.625	2	180	# X,ca,cp,X
  14	3	0.18	3	0	0.25	2	180	0.2	1	180	# c3,c3,c3,c3
  15	1	0.15555555555555556	3	0	# X,c3,c3,X
  16	1	0.16	3	0	# hc,c3,c3,c3
  17	1	1.0	2	180	# X,cp,cp,X
  18	1	0.0	2	0.0	# ca,ca,cy,cy
  19	1	0.0	2	0.0	# ca,ca,cy,c3
  20	1	0.0	2	0	# X,c3,ca,X
  21	3	0.38	3	180.0	0.0	2	0.0	1.15	1	0.0	# ca,ca,cy,hc

Improper Coeffs

   1	1.1	-1	2	# ca,X,X,ha

Atoms

   1	1	1	-0.425718	56.4567	40.9901	49.1619
   2	1	1	0.123859	56.2622	40.3143	50.3814
   3	1	1	0.123846	56.3084	38.9377	50.5039
   4	1	1	-0.442194	56.552	38.0706	49.4223
   5	1	1	0.030377	56.9895	38.7562	48.2717
   6	1	1	0.003389	56.9453	40.1413	48.1487
   7	1	2	0.006267	56.8991	40.1039	46.6309
   8	1	2	0.040808	56.9472	38.5225	46.7714
   9	1	3	0.010049	55.5292	40.3765	45.9531
  10	1	2	-0.044998	55.9194	39.8864	44.532
  11	1	2	-0.017344	55.9647	38.3031	44.6741
  12	1	3	0.004207	55.5981	38.0531	46.1621
  13	1	3	-0.10977	54.6307	39.2261	46.49
  14	1	1	-0.002799	54.7857	39.6593	43.5495
  15	1	1	-0.006419	54.8244	38.288	43.6726
  16	1	1	-0.256521	53.6503	40.3574	43.1186
  17	1	1	0.004841	52.5816	39.5466	42.6728
  18	1	4	0.00733	52.619	38.135	42.7995
  19	1	1	-0.221146	53.7278	37.4682	43.3791
  20	1	3	0.21053	51.2175	40.0198	42.1525
  21	1	4	0.0182	51.3116	37.597	42.3922
  22	1	1	0.000377	50.4816	38.6818	42.0051
  23	1	3	-0.237942	50.5069	40.9336	43.1759
  24	1	3	-0.215479	51.3619	40.7373	40.792
  25	1	1	-0.2391	49.1894	38.4766	41.4671
  26	1	1	-0.027923	48.771	37.1409	41.4512
  27	1	1	-0.180376	50.8921	36.2479	42.262
  28	1	1	-0.054224	49.5718	36.0905	41.8261
  29	1	2	0.006282	47.7565	36.2564	40.7476
  30	1	2	0.015188	48.6829	35.0416	41.1806
  31	1	3	0.034756	47.7467	36.1481	39.2026
  32	1	3	0.003059	49.1224	36.4995	38.5734
  33	1	3	0.042972	49.074	34.4068	39.823
  34	1	3	0.004163	50.0274	35.3121	38.9965
  35	1	3	-0.197219	47.7636	34.6147	39.0365
  36	1	5	0.227416	56.1521	42.0178	48.9924
  37	1	5	0.230059	56.3149	37.0117	49.4393
  38	1	6	0.034807	57.7511	40.5844	46.1358
  39	1	6	0.022109	57.8285	38.014	46.3627
  40	1	6	0.043894	55.1309	41.3955	46.034
  41	1	6	0.04727	56.8049	40.3753	44.1088
  42	1	6	0.039454	56.8784	37.7976	44.3394
  43	1	6	0.037752	55.2603	37.0433	46.4261
  44	1	6	0.046701	53.671	39.1503	45.9626
  45	1	6	0.047659	54.4229	39.3164	47.5614
  46	1	5	0.173906	53.5786	41.4389	43.1747
  47	1	5	0.156928	53.7045	36.4136	43.6335
  48	1	6	0.056509	49.4968	41.1915	42.8346
  49	1	6	0.064596	51.0648	41.8657	43.3262
  50	1	6	0.065502	50.4187	40.4289	44.1464
  51	1	6	0.062922	51.9694	41.6451	40.8917
  52	1	6	0.049805	50.3817	41.024	40.3917
  53	1	6	0.059229	51.8498	40.0811	40.0601
  54	1	5	0.166497	48.5879	39.2828	41.0588
  55	1	5	0.141714	51.5567	35.4078	42.436
  56	1	6	0.041341	46.7469	36.2402	41.1725
  57	1	6	0.038019	48.2106	34.3204	41.8566
  58	1	6	0.012124	46.9	36.6488	38.7163
  59	1	6	0.001144	49.5132	37.4671	38.9091
  60	1	6	0.009013	49.4049	33.3626	39.8872
  61	1	6	0.001345	50.9091	35.6355	39.5618
  62	1	6	0.041603	46.9001	34.124	39.5067
  63	1	6	0.069352	47.8369	34.2965	37.9869
  64	1	1	-0.425718	56.922	37.854	64.9391
  65	1	1	0.123859	55.8676	37.1055	65.4971
  66	1	1	0.123846	55.3884	35.9369	64.935
  67	1	1	-0.442194	55.9119	35.3657	63.7611
  68	1	1	0.030377	57.1183	35.9722	63.3608
  69	1	1	0.003389	57.5944	37.1567	63.9146
  70	1	2	0.006267	58.4013	37.5245	62.6795
  71	1	2	0.040808	57.8566	36.1717	62.0504
  72	1	3	0.010049	57.8234	38.6251	61.7478
  73	1	2	-0.044998	58.7608	38.3653	60.5354
  74	1	2	-0.017344	58.2085	37.0103	59.9134
  75	1	3	0.004207	57.0155	36.6365	60.8319
  76	1	3	-0.10977	56.468	38.021	61.2823
  77	1	1	-0.002799	58.3712	39.0035	59.2137
  78	1	1	-0.006419	57.8881	37.8295	58.6781
  79	1	1	-0.256521	57.965	40.2697	58.7722
  80	1	1	0.004841	57.1218	40.2685	57.6373
  81	1	4	0.00733	56.6096	39.0619	57.0975
  82	1	1	-0.221146	56.9295	37.8002	57.6579
  83	1	3	0.21053	56.5136	41.4905	56.9349
  84	1	4	0.0182	55.6318	39.3982	56.0513
  85	1	1	0.000377	55.5675	40.8119	55.9357
  86	1	3	-0.237942	55.7292	42.3818	57.924
  87	1	3	-0.215479	57.6031	42.3116	56.2104
  88	1	1	-0.2391	54.7704	41.4443	54.9525
  89	1	1	-0.027923	53.985	40.5695	54.193
  90	1	1	-0.180376	54.8922	38.5395	55.1974
  91	1	1	-0.054224	54.0367	39.2031	54.3116
  92	1	2	0.006282	53.2106	40.5375	52.887
  93	1	2	0.015188	53.268	38.9509	53.0264
  94	1	3	0.034756	53.9329	40.793	51.5393
  95	1	3	0.003059	55.4598	40.5017	51.6578
  96	1	3	0.042972	54.0118	38.5149	51.7391
  97	1	3	0.004163	55.5136	38.9258	51.7973
  98	1	3	-0.197219	53.4253	39.558	50.7602
  99	1	5	0.227416	57.1156	38.8922	65.1887
 100	1	5	0.230059	55.3834	34.6261	63.1684
 101	1	6	0.034807	59.483	37.5952	62.8432
 102	1	6	0.022109	58.5971	35.3965	61.8203
 103	1	6	0.043894	57.7994	39.6473	62.1454
 104	1	6	0.04727	59.8309	38.4066	60.7706
 105	1	6	0.039454	58.9321	36.2018	59.7544
 106	1	6	0.037752	56.2868	35.921	60.4312
 107	1	6	0.046701	56.0057	38.5867	60.4631
 108	1	6	0.047659	55.738	37.9433	62.0946
 109	1	5	0.173906	58.2331	41.1804	59.2982
 110	1	5	0.156928	56.4201	36.8881	57.3647
 111	1	6	0.056509	55.2253	43.2013	57.3971
 112	1	6	0.064596	56.3976	42.8194	58.6752
 113	1	6	0.065502	54.9649	41.7944	58.4486
 114	1	6	0.062922	58.1511	41.6809	55.4988
 115	1	6	0.049805	58.3255	42.7215	56.9269
 116	1	6	0.059229	57.1613	43.1471	55.6539
 117	1	5	0.166497	54.7873	42.516	54.78
 118	1	5	0.141714	55.0083	37.4606	55.2051
 119	1	6	0.041341	52.2028	40.9667	52.9079
 120	1	6	0.038019	52.2933	38.4612	53.1303
 121	1	6	0.012124	53.6994	41.7554	51.0671
 122	1	6	0.001144	55.9992	41.0463	52.4426
 123	1	6	0.009013	53.8472	37.4712	51.4433
 124	1	6	0.001345	56.0842	38.564	52.6614
 125	1	6	0.041603	52.3286	39.5148	50.7012
 126	1	6	0.069352	53.8261	39.4825	49.7434
 127	1	1	-0.425718	47.708	30.5325	75.8014
 128	1	1	0.123859	46.3452	30.3349	75.5074
 129	1	1	0.123846	45.8951	29.8579	74.2907
 130	1	1	-0.442194	46.746	29.4937	73.2321
 131	1	1	0.030377	48.0979	29.4454	73.6239
 132	1	1	0.003389	48.5559	29.9497	74.8375
 133	1	2	0.006267	49.9628	30.1963	74.3165
 134	1	2	0.040808	49.4385	29.6146	72.9348
 135	1	3	0.010049	50.3535	31.6614	73.9759
 136	1	2	-0.044998	51.6525	31.3381	73.1859
 137	1	2	-0.017344	51.1198	30.7498	71.8082
 138	1	3	0.004207	49.576	30.8043	71.9493
 139	1	3	-0.10977	49.3458	32.0475	72.8556
 140	1	1	-0.002799	52.2505	32.4573	72.3508
 141	1	1	-0.006419	51.7846	31.9469	71.1589
 142	1	1	-0.256521	52.5706	33.8099	72.5306
 143	1	1	0.004841	52.5139	34.6012	71.3599
 144	1	4	0.00733	52.0129	34.0809	70.1406
 145	1	1	-0.221146	51.5653	32.7416	70.028
 146	1	3	0.21053	52.8089	36.1033	71.2386
 147	1	4	0.0182	51.9172	35.1799	69.1693
 148	1	1	0.000377	52.3899	36.3676	69.7857
 149	1	3	-0.237942	51.9519	36.9306	72.2227
 150	1	3	-0.215479	54.3116	36.3906	71.4526
 151	1	1	-0.2391	52.5241	37.5774	69.0637
 152	1	1	-0.027923	52.0476	37.5267	67.7476
 153	1	1	-0.180376	51.5356	35.1418	67.8045
 154	1	1	-0.054224	51.5725	36.3809	67.1573
 155	1	2	0.006282	52.203	38.2713	66.4311
 156	1	2	0.015188	51.6552	36.9399	65.7494
 157	1	3	0.034756	53.6	38.4434	65.7785
 158	1	3	0.003059	54.5965	37.361	66.2912
 159	1	3	0.042972	52.8164	36.5226	64.8134
 160	1	3	0.004163	54.0464	36.0294	65.6356
 161	1	3	-0.197219	53.2675	37.9296	64.3589
 162	1	5	0.227416	48.0598	31.1616	76.6127
 163	1	5	0.230059	46.4108	29.3806	72.2061
 164	1	6	0.034807	50.7479	29.6275	74.8283
 165	1	6	0.022109	49.8927	28.6805	72.5834
 166	1	6	0.043894	50.4467	32.3573	74.8189
 167	1	6	0.04727	52.3815	30.7332	73.738
 168	1	6	0.039454	51.5154	29.7768	71.4933
 169	1	6	0.037752	48.9913	30.7502	71.0226
 170	1	6	0.046701	49.5989	32.993	72.3591
 171	1	6	0.047659	48.3155	32.1209	73.2194
 172	1	5	0.173906	52.793	34.2286	73.5069
 173	1	5	0.156928	51.0338	32.3773	69.155
 174	1	6	0.056509	52.2129	36.7001	73.2627
 175	1	6	0.064596	50.8857	36.7122	72.0823
 176	1	6	0.065502	52.1021	38.0054	72.0631
 177	1	6	0.062922	54.9187	35.8137	70.7434
 178	1	6	0.049805	54.6218	36.1146	72.468
 179	1	6	0.059229	54.5342	37.4542	71.3042
 180	1	5	0.166497	52.9962	38.4615	69.4807
 181	1	5	0.141714	51.287	34.2188	67.2907
 182	1	6	0.041341	51.5682	39.1536	66.2938
 183	1	6	0.038019	50.7065	37.0526	65.213
 184	1	6	0.012124	53.9996	39.4648	65.8091
 185	1	6	0.001144	54.7375	37.3075	67.3777
 186	1	6	0.009013	52.5293	35.8505	63.9951
 187	1	6	0.001345	53.8653	35.2121	66.344
 188	1	6	0.041603	52.4595	38.5002	63.8796
 189	1	6	0.069352	54.1278	37.919	63.6808
 190	1	1	-0.425718	33.2378	24.167	77.3735
 191	1	1	0.123859	32.101	24.5598	76.6433
 192	1	1	0.123846	32.1376	24.9287	75.3131
 193	1	1	-0.442194	33.3045	24.923	74.5286
 194	1	1	0.030377	34.379	24.2968	75.1899
 195	1	1	0.003389	34.3519	23.9538	76.5375
 196	1	2	0.006267	35.864	23.9673	76.6751
 197	1	2	0.040808	35.8933	24.3474	75.1316
 198	1	3	0.010049	36.5075	25.1993	77.3708
 199	1	2	-0.044998	37.9736	24.9094	76.9477
 200	1	2	-0.017344	37.9986	25.2756	75.3969
 201	1	3	0.004207	36.5513	25.7508	75.1024
 202	1	3	-0.10977	36.0997	26.3851	76.4496
 203	1	1	-0.002799	38.9835	26.0311	77.1132
 204	1	1	-0.006419	39.0044	26.3419	75.776
 205	1	1	-0.256521	39.4723	26.8832	78.1115
 206	1	1	0.004841	40.1115	28.0497	77.6273
 207	1	4	0.00733	40.1207	28.3747	76.246
 208	1	1	-0.221146	39.5043	27.5467	75.2743
 209	1	3	0.21053	40.7932	29.149	78.4545
 210	1	4	0.0182	40.7836	29.6746	76.0768
 211	1	1	0.000377	41.2041	30.1348	77.3509
 212	1	3	-0.237942	39.8054	29.8047	79.4447
 213	1	3	-0.215479	42.0253	28.5938	79.2038
 214	1	1	-0.2391	42.0216	31.2811	77.4909
 215	1	1	-0.027923	42.2757	31.9739	76.2994
 216	1	1	-0.180376	41.1452	30.3423	74.8809
 217	1	1	-0.054224	41.8533	31.5342	75.066
 218	1	2	0.006282	43.3378	32.8995	75.7247
 219	1	2	0.015188	42.8516	32.382	74.3008
 220	1	3	0.034756	44.8373	32.4989	75.7439
 221	1	3	0.003059	45.0061	30.9557	75.8708
 222	1	3	0.042972	44.1284	31.7346	73.7079
 223	1	3	0.004163	44.4993	30.4235	74.4688
 224	1	3	-0.197219	45.1711	32.7371	74.2533
 225	1	5	0.227416	33.2745	24.1274	78.4574
 226	1	5	0.230059	33.3902	25.4259	73.5708
 227	1	6	0.034807	36.3067	23.0051	76.9582
 228	1	6	0.022109	36.347	23.6197	74.4482
 229	1	6	0.043894	36.3161	25.3176	78.4446
 230	1	6	0.04727	38.34	23.9158	77.232
 231	1	6	0.039454	38.3781	24.5116	74.7079
 232	1	6	0.037752	36.4007	26.3497	74.1956
 233	1	6	0.046701	36.6369	27.3128	76.6854
 234	1	6	0.047659	35.0236	26.5964	76.4805
 235	1	5	0.173906	39.3519	26.674	79.1697
 236	1	5	0.156928	39.4049	27.8352	74.233
 237	1	6	0.056509	39.4643	29.0827	80.1966
 238	1	6	0.064596	38.9238	30.1854	78.9135
 239	1	6	0.065502	40.2768	30.6464	79.9666
 240	1	6	0.062922	42.5465	29.3897	79.7494
 241	1	6	0.049805	42.7354	28.1434	78.4984
 242	1	6	0.059229	41.7292	27.8229	79.9257
 243	1	5	0.166497	42.4763	31.5628	78.4354
 244	1	5	0.141714	40.9628	29.9181	73.8989
 245	1	6	0.041341	43.1924	33.9715	75.8981
 246	1	6	0.038019	42.4338	33.1555	73.6469
 247	1	6	0.012124	45.4577	33.0719	76.4444
 248	1	6	0.001144	44.5259	30.484	76.7365
 249	1	6	0.009013	44.1265	31.6298	72.6157
 250	1	6	0.001345	43.7224	29.6524	74.5254
 251	1	6	0.041603	44.9739	33.7703	73.9343
 252	1	6	0.069352	46.2042	32.4878	73.9867
 253	1	1	-0.425718	20.8285	19.5613	69.6043
 254	1	1	0.123859	19.9412	20.2289	68.7412
 255	1	1	0.123846	20.2905	21.3288	67.9827
 256	1	1	-0.442194	21.5813	21.8887	67.9647
 257	1	1	0.030377	22.5177	21.0737	68.6322
 258	1	1	0.003389	22.1585	19.9838	69.4174
 259	1	2	0.006267	23.4363	20.0199	70.234
 260	1	2	0.040808	23.8557	21.2554	69.3251
 261	1	3	0.010049	23.3502	20.6236	71.6638
 262	1	2	-0.044998	24.8782	20.7419	71.9054
 263	1	2	-0.017344	25.3149	21.9671	70.9788
 264	1	3	0.004207	23.9842	22.4313	70.3275
 265	1	3	-0.10977	22.9163	22.0957	71.4083
 266	1	1	-0.002799	25.3396	21.605	73.0656
 267	1	1	-0.006419	25.7218	22.649	72.2678
 268	1	1	-0.256521	25.3742	21.638	74.4638
 269	1	1	0.004841	25.9038	22.8383	74.9995
 270	1	4	0.00733	26.3091	23.9177	74.1684
 271	1	1	-0.221146	26.2059	23.8649	72.7538
 272	1	3	0.21053	26.1603	23.1599	76.4784
 273	1	4	0.0182	26.8643	24.9786	75.0202
 274	1	1	0.000377	26.8028	24.551	76.3703
 275	1	3	-0.237942	24.8415	23.2155	77.2797
 276	1	3	-0.215479	27.1348	22.1368	77.1061
 277	1	1	-0.2391	27.4587	25.2636	77.4007
 278	1	1	-0.027923	28.0847	26.4539	77.0035
 279	1	1	-0.180376	27.5903	26.1316	74.6351
 280	1	1	-0.054224	28.1465	26.8654	75.6889
 281	1	2	0.006282	29.3105	27.255	77.4207
 282	1	2	0.015188	29.3867	27.7148	75.9021
 283	1	3	0.034756	30.6801	26.5573	77.6418
 284	1	3	0.003059	30.7454	25.1974	76.8863
 285	1	3	0.042972	30.7761	27.1941	75.4479
 286	1	3	0.004163	30.7969	25.6352	75.3647
 287	1	3	-0.197219	31.5642	27.4613	76.7511
 288	1	5	0.227416	20.5117	18.8754	70.3833
 289	1	5	0.230059	21.8066	22.873	67.5672
 290	1	6	0.034807	24.0523	19.116	70.1593
 291	1	6	0.022109	24.7271	21.1199	68.6735
 292	1	6	0.043894	22.7739	20.0584	72.4068
 293	1	6	0.04727	25.4274	19.7998	71.7901
 294	1	6	0.039454	26.1348	21.8009	70.2697
 295	1	6	0.037752	23.9646	23.4444	69.9072
 296	1	6	0.046701	23.0023	22.7268	72.3024
 297	1	6	0.047659	21.8894	22.1759	71.0304
 298	1	5	0.173906	25.0454	20.8076	75.0807
 299	1	5	0.156928	26.4948	24.6864	72.1065
 300	1	6	0.056509	24.3512	22.2344	77.2971
 301	1	6	0.064596	24.1468	23.9354	76.8287
 302	1	6	0.065502	25.0268	23.5254	78.3154
 303	1	6	0.062922	28.0776	22.1091	76.5449
 304	1	6	0.049805	26.7044	21.1279	77.0969
 305	1	6	0.059229	27.3656	22.3976	78.1459
 306	1	5	0.166497	27.5699	24.8612	78.4028
 307	1	5	0.141714	27.808	26.3552	73.5958
 308	1	6	0.041341	29.1382	28.0652	78.1377
 309	1	6	0.038019	29.2724	28.7924	75.7403
 310	1	6	0.012124	31.0026	26.4983	78.6889
 311	1	6	0.001144	29.9644	24.4671	77.1259
 312	1	6	0.009013	31.1855	27.6918	74.5599
 313	1	6	0.001345	30.04	25.166	74.7267
 314	1	6	0.041603	31.5327	28.5167	77.0564
 315	1	6	0.069352	32.6152	27.1486	76.7053
 316	1	1	-0.425718	12.3004	19.4023	56.6981
 317	1	1	0.123859	11.2687	20.2644	56.2905
 318	1	1	0.123846	11.3045	21.6358	56.4514
 319	1	1	-0.442194	12.3913	22.3235	57.0264
 320	1	1	0.030377	13.5157	21.4893	57.2019
 321	1	1	0.003389	13.4643	20.107	57.0553
 322	1	2	0.006267	14.6587	19.8632	57.953
 323	1	2	0.040808	14.7398	21.4433	58.1045
 324	1	3	0.010049	14.3597	19.3657	59.3939
 325	1	2	-0.044998	15.7865	19.5794	59.9565
 326	1	2	-0.017344	15.9161	21.1612	60.0939
 327	1	3	0.004207	14.5274	21.683	59.6226
 328	1	3	-0.10977	13.5542	20.5378	60.025
 329	1	1	-0.002799	15.9482	19.5418	61.4636
 330	1	1	-0.006419	16.0891	20.9035	61.5785
 331	1	1	-0.256521	15.6027	18.7135	62.5385
 332	1	1	0.004841	15.5784	19.3592	63.797
 333	1	4	0.00733	15.7831	20.7573	63.922
 334	1	1	-0.221146	15.9698	21.5911	62.7902
 335	1	3	0.21053	15.2658	18.7254	65.1591
 336	1	4	0.0182	15.6758	21.1183	65.3428
 337	1	1	0.000377	15.3732	19.9475	66.0825
 338	1	3	-0.237942	13.8412	18.1294	65.1895
 339	1	3	-0.215479	16.3139	17.6487	65.5209
 340	1	1	-0.2391	15.3852	19.9406	67.4962
 341	1	1	-0.027923	15.6462	21.1787	68.0999
 342	1	1	-0.180376	16.0506	22.3255	65.9814
 343	1	1	-0.054224	15.9774	22.3064	67.3792
 344	1	2	0.006282	16.318	21.6696	69.3742
 345	1	2	0.015188	16.7179	22.9577	68.5347
 346	1	3	0.034756	17.6908	21.0985	69.8163
 347	1	3	0.003059	18.4532	20.4823	68.6073
 348	1	3	0.042972	18.2701	22.9358	68.5847
 349	1	3	0.004163	18.851	21.7523	67.7478
 350	1	3	-0.197219	18.4517	22.4273	70.0337
 351	1	5	0.227416	12.1767	18.3313	56.8221
 352	1	5	0.230059	12.3342	23.3464	57.3842
 353	1	6	0.034807	15.5044	19.3654	57.464
 354	1	6	0.022109	15.6286	21.9359	57.6928
 355	1	6	0.043894	13.9338	18.3596	59.4936
 356	1	6	0.04727	16.5761	19.0603	59.4002
 357	1	6	0.039454	16.7735	21.6377	59.6039
 358	1	6	0.037752	14.2496	22.6994	59.9279
 359	1	6	0.046701	13.4375	20.4404	61.1122
 360	1	6	0.047659	12.5566	20.6529	59.5841
 361	1	5	0.173906	15.3475	17.6664	62.41
 362	1	5	0.156928	15.9861	22.6742	62.8549
 363	1	6	0.056509	13.5958	17.754	66.1906
 364	1	6	0.064596	13.7474	17.2991	64.4791
 365	1	6	0.065502	13.0991	18.8922	64.9214
 366	1	6	0.062922	16.1244	17.2327	66.5177
 367	1	6	0.049805	17.3244	18.0771	65.5174
 368	1	6	0.059229	16.2928	16.8237	64.7984
 369	1	5	0.166497	15.3164	19.0223	68.0709
 370	1	5	0.141714	16.4816	23.1576	65.434
 371	1	6	0.041341	15.6568	21.8632	70.226
 372	1	6	0.038019	16.3024	23.8994	68.9102
 373	1	6	0.012124	17.6558	20.4461	70.6978
 374	1	6	0.001144	17.9352	19.6942	68.05
 375	1	6	0.009013	18.7499	23.9011	68.3799
 376	1	6	0.001345	18.5506	21.703	66.6949
 377	1	6	0.041603	17.9653	23.0772	70.7748
 378	1	6	0.069352	19.5006	22.2956	70.329
 379	1	1	-0.425718	3.18217	24.9061	45.4508
 380	1	1	0.123859	1.89296	25.4455	45.5918
 381	1	1	0.123846	1.55317	26.3872	46.5435
 382	1	1	-0.442194	2.47017	26.9134	47.475
 383	1	1	0.030377	3.80254	26.5585	47.1734
 384	1	1	0.003389	4.13372	25.6038	46.2168
 385	1	2	0.006267	5.46623	25.2763	46.8553
 386	1	2	0.040808	5.10641	26.3806	47.9394
 387	1	3	0.010049	5.53852	23.9589	47.6735
 388	1	2	-0.044998	6.90742	24.2372	48.3408
 389	1	2	-0.017344	6.5929	25.3621	49.4209
 390	1	3	0.004207	5.05916	25.5887	49.2738
 391	1	3	-0.10977	4.52847	24.1943	48.8335
 392	1	1	-0.002799	7.28619	23.3584	49.5162
 393	1	1	-0.006419	7.04477	24.341	50.4496
 394	1	1	-0.256521	7.25882	21.9925	49.8259
 395	1	1	0.004841	7.15341	21.694	51.2035
 396	1	4	0.00733	6.97593	22.712	52.1737
 397	1	1	-0.221146	6.82763	24.0729	51.8059
 398	1	3	0.21053	7.09103	20.3026	51.8466
 399	1	4	0.0182	6.84363	22.0786	53.4939
 400	1	1	0.000377	6.89586	20.6721	53.3232
 401	1	3	-0.237942	5.89186	19.4866	51.3152
 402	1	3	-0.215479	8.41314	19.5332	51.6264
 403	1	1	-0.2391	6.94632	19.792	54.4277
 404	1	1	-0.027923	6.87549	20.4067	55.685
 405	1	1	-0.180376	6.90027	22.6745	54.7784
 406	1	1	-0.054224	6.87608	21.7748	55.851
 407	1	2	0.006282	7.40521	20.1337	57.0831
 408	1	2	0.015188	7.42136	21.7119	57.2691
 409	1	3	0.034756	8.88853	19.7392	57.2952
 410	1	3	0.003059	9.76772	20.2206	56.103
 411	1	3	0.042972	8.91941	22.0107	57.5574
 412	1	3	0.004163	9.80011	21.7932	56.2875
 413	1	3	-0.197219	9.25403	20.7577	58.3998
 414	1	5	0.227416	3.39544	23.9931	44.9044
 415	1	5	0.230059	2.17408	27.4393	48.3768
 416	1	6	0.034807	6.33837	25.4678	46.219
 417	1	6	0.022109	5.74431	27.2718	47.9697
 418	1	6	0.043894	5.44238	23.0205	47.1134
 419	1	6	0.04727	7.72445	24.4351	47.6368
 420	1	6	0.039454	7.19569	26.2771	49.3792
 421	1	6	0.037752	4.54597	26.0702	50.1154
 422	1	6	0.046701	4.60288	23.4396	49.627
 423	1	6	0.047659	3.48785	24.2245	48.4902
 424	1	5	0.173906	7.26748	21.2231	49.0605
 425	1	5	0.156928	6.5162	24.8371	52.5106
 426	1	6	0.056509	4.95495	20.0396	51.4592
 427	1	6	0.064596	5.80576	18.5295	51.8441
 428	1	6	0.065502	6.00224	19.2773	50.2443
 429	1	6	0.062922	9.26224	20.1067	52.0199
 430	1	6	0.049805	8.58956	19.3553	50.5585
 431	1	6	0.059229	8.3941	18.5618	52.1351
 432	1	5	0.166497	7.14041	18.73	54.3144
 433	1	5	0.141714	7.06532	23.7385	54.9149
 434	1	6	0.041341	6.73201	19.5969	57.7606
 435	1	6	0.038019	6.76309	22.0881	58.0601
 436	1	6	0.012124	9.05105	18.6901	57.5723
 437	1	6	0.001144	9.47371	19.88	55.1043
 438	1	6	0.009013	9.10746	22.9629	58.0689
 439	1	6	0.001345	9.51513	22.3614	55.3942
 440	1	6	0.041603	8.61685	20.6636	59.2905
 441	1	6	0.069352	10.3019	20.7066	58.721
 442	1	1	-0.425718	-8.41406	33.5971	39.0586
 443	1	1	0.123859	-9.68373	34.1133	39.3634
 444	1	1	0.123846	-10.2037	34.1736	40.6487
 445	1	1	-0.442194	-9.46425	33.7643	41.7787
 446	1	1	0.030377	-8.2969	33.0436	41.4505
 447	1	1	0.003389	-7.8111	32.9528	40.1504
 448	1	2	0.006267	-6.38124	32.7366	40.5883
 449	1	2	0.040808	-6.91923	32.8527	42.0762
 450	1	3	0.010049	-5.85387	31.2823	40.4875
 451	1	2	-0.044998	-4.55467	31.5159	41.2941
 452	1	2	-0.017344	-5.04922	31.6512	42.8011
 453	1	3	0.004207	-6.593	31.4635	42.6925
 454	1	3	-0.10977	-6.75546	30.4978	41.4839
 455	1	1	-0.002799	-3.80886	30.282	41.7542
 456	1	1	-0.006419	-4.20852	30.4119	43.0636
 457	1	1	-0.256521	-3.37756	29.0697	41.2034
 458	1	1	0.004841	-3.19743	28.0246	42.1371
 459	1	4	0.00733	-3.53104	28.1815	43.5066
 460	1	1	-0.221146	-4.13556	29.369	43.9946
 461	1	3	0.21053	-2.74224	26.5911	41.8388
 462	1	4	0.0182	-3.26041	26.9109	44.1973
 463	1	1	0.000377	-2.81555	25.9661	43.2378
 464	1	3	-0.237942	-3.70735	25.8835	40.8622
 465	1	3	-0.215479	-1.29878	26.573	41.2866
 466	1	1	-0.2391	-2.33286	24.6935	43.6159
 467	1	1	-0.027923	-2.38229	24.4199	44.9887
 468	1	1	-0.180376	-3.1766	26.6507	45.5883
 469	1	1	-0.054224	-2.75847	25.3573	45.9264
 470	1	2	0.006282	-1.57505	23.6005	45.9803
 471	1	2	0.015188	-1.99708	24.687	47.0606
 472	1	3	0.034756	-0.0280193	23.682	45.9827
 473	1	3	0.003059	0.461228	25.0195	45.3498
 474	1	3	0.042972	-0.627314	25.2441	47.5414
 475	1	3	0.004163	0.061962	26.1012	46.435
 476	1	3	-0.197219	0.194557	23.9351	47.4916
 477	1	5	0.227416	-7.8866	33.827	38.1383
 478	1	5	0.230059	-9.68063	34.1144	42.783
 479	1	6	0.034807	-5.67642	33.4941	40.2252
 480	1	6	0.022109	-6.57563	33.6941	42.6895
 481	1	6	0.043894	-5.74301	30.8628	39.4797
 482	1	6	0.04727	-3.91351	32.3157	40.9045
 483	1	6	0.039454	-4.73789	32.5483	43.3492
 484	1	6	0.037752	-7.12516	31.1955	43.6137
 485	1	6	0.046701	-6.38237	29.4869	41.6938
 486	1	6	0.047659	-7.79517	30.4135	41.142
 487	1	5	0.173906	-3.2346	28.933	40.1361
 488	1	5	0.156928	-4.55009	29.4459	44.9946
 489	1	6	0.056509	-3.42346	24.833	40.7242
 490	1	6	0.064596	-3.70082	26.372	39.8803
 491	1	6	0.065502	-4.7341	25.9101	41.2487
 492	1	6	0.062922	-0.611448	27.061	41.9895
 493	1	6	0.049805	-1.23894	27.1048	40.329
 494	1	6	0.059229	-0.949746	25.5456	41.1277
 495	1	5	0.166497	-1.85006	24.0238	42.911
 496	1	5	0.141714	-3.31425	27.4302	46.3308
 497	1	6	0.041341	-1.93781	22.5863	46.1806
 498	1	6	0.038019	-2.60115	24.3002	47.8888
 499	1	6	0.012124	0.48063	22.7922	45.591
 500	1	6	0.001144	0.119028	25.239	44.3328
 501	1	6	0.009013	-0.648346	25.7271	48.5263
 502	1	6	0.001345	-0.51781	26.9449	46.0424
 503	1	6	0.041603	-0.232451	23.1424	48.1219
 504	1	6	0.069352	1.24812	24.0627	47.7683
 505	1	1	-0.425718	-25.4861	42.3227	37.0196
 506	1	1	0.123859	-26.5967	42.457	37.8687
 507	1	1	0.123846	-26.6749	41.8681	39.1245
 508	1	1	-0.442194	-25.591	41.1579	39.6814
 509	1	1	0.030377	-24.5733	40.8494	38.756
 510	1	1	0.003389	-24.5456	41.3806	37.4688
 511	1	2	0.006267	-23.0391	41.3186	37.3686
 512	1	2	0.040808	-23.0537	40.7481	38.8459
 513	1	3	0.010049	-22.4534	40.1562	36.5234
 514	1	2	-0.044998	-20.9854	40.3611	36.9607
 515	1	2	-0.017344	-20.9413	39.8317	38.4607
 516	1	3	0.004207	-22.4029	39.3443	38.7075
 517	1	3	-0.10977	-22.8789	38.8794	37.3023
 518	1	1	-0.002799	-20.0134	39.2448	36.6494
 519	1	1	-0.006419	-19.9352	38.8106	37.9516
 520	1	1	-0.256521	-19.059	38.9594	35.6707
 521	1	1	0.004841	-18.0059	38.1219	36.0992
 522	1	4	0.00733	-17.8681	37.7328	37.4584
 523	1	1	-0.221146	-18.8206	38.1152	38.4421
 524	1	3	0.21053	-16.7899	37.6993	35.2696
 525	1	4	0.0182	-16.5426	37.1035	37.6233
 526	1	1	0.000377	-15.9053	37.0786	36.3548
 527	1	3	-0.237942	-17.1793	36.6534	34.2025
 528	1	3	-0.215479	-16.104	38.9184	34.6084
 529	1	1	-0.2391	-14.5505	36.7123	36.2104
 530	1	1	-0.027923	-13.9241	36.2856	37.3835
 531	1	1	-0.180376	-15.8307	36.7909	38.8136
 532	1	1	-0.054224	-14.5219	36.3223	38.6243
 533	1	2	0.006282	-12.5193	36.3229	37.9377
 534	1	2	0.015188	-13.1934	36.3689	39.3742
 535	1	3	0.034756	-11.7199	35.0031	37.9606
 536	1	3	0.003059	-10.4987	35.287	38.8691
 537	1	3	0.042972	-12.6407	35.082	40.0442
 538	1	3	0.004163	-11.1244	35.3435	40.321
 539	1	3	-0.197219	-12.5886	34.0907	38.8585
 540	1	5	0.227416	-25.2755	43.0245	36.2188
 541	1	5	0.230059	-25.4604	41.0435	40.7528
 542	1	6	0.034807	-22.5599	42.2883	37.188
 543	1	6	0.022109	-22.6069	41.3565	39.6411
 544	1	6	0.043894	-22.6559	40.1734	35.4451
 545	1	6	0.04727	-20.5953	41.3641	36.7499
 546	1	6	0.039454	-20.5599	40.5021	39.24
 547	1	6	0.037752	-22.5586	38.645	39.5385
 548	1	6	0.046701	-22.3615	37.9753	36.956
 549	1	6	0.047659	-23.9602	38.6951	37.258
 550	1	5	0.173906	-19.0849	39.4119	34.6846
 551	1	5	0.156928	-18.658	37.9521	39.5024
 552	1	6	0.056509	-16.2938	36.297	33.6619
 553	1	6	0.064596	-17.8794	37.0797	33.4736
 554	1	6	0.065502	-17.6627	35.7866	34.6709
 555	1	6	0.062922	-16.7709	39.4012	33.8842
 556	1	6	0.049805	-15.1927	38.6186	34.0769
 557	1	6	0.059229	-15.8274	39.6627	35.3659
 558	1	5	0.166497	-14.0071	36.8442	35.2801
 559	1	5	0.141714	-16.2367	36.9933	39.7993
 560	1	6	0.041341	-11.912	37.1807	37.6274
 561	1	6	0.038019	-13.0282	37.2621	39.9869
 562	1	6	0.012124	-11.4687	34.5856	36.9775
 563	1	6	0.001144	-9.9037	36.1715	38.6055
 564	1	6	0.009013	-13.2059	34.7275	40.9152
 565	1	6	0.001345	-10.8957	36.2692	40.8653
 566	1	6	0.041603	-13.5752	33.8696	38.4311
 567	1	6	0.069352	-12.1137	33.1325	39.1066
 568	1	1	-0.425718	-42.8374	44.7619	40.2675
 569	1	1	0.123859	-43.3826	43.4902	39.9868
 570	1	1	0.123846	-42.9188	42.309	40.6478
 571	1	1	-0.442194	-41.8901	42.4063	41.623
 572	1	1	0.030377	-41.4827	43.6974	41.9783
 573	1	1	0.003389	-41.9339	44.8143	41.3277
 574	1	2	0.006267	-40.7726	45.679	41.7644
 575	1	2	0.040808	-40.2504	44.3929	42.542
 576	1	3	0.010049	-39.673	45.9441	40.7018
 577	1	2	-0.044998	-38.6268	46.5389	41.6745
 578	1	2	-0.017344	-38.0911	45.2839	42.4924
 579	1	3	0.004207	-38.8799	44.0894	41.8765
 580	1	3	-0.10977	-39.1056	44.5264	40.4001
 581	1	1	-0.002799	-37.2116	46.6748	41.152
 582	1	1	-0.006419	-36.7366	45.6114	41.8856
 583	1	1	-0.256521	-36.5935	47.1234	39.9787
 584	1	1	0.004841	-35.3361	46.54	39.7051
 585	1	4	0.00733	-34.8011	45.5045	40.5129
 586	1	1	-0.221146	-35.5422	44.9443	41.585
 587	1	3	0.21053	-34.4403	46.8145	38.4919
 588	1	4	0.0182	-33.5116	45.0854	39.9378
 589	1	1	0.000377	-33.2925	45.8304	38.751
 590	1	3	-0.237942	-35.165	46.4838	37.1683
 591	1	3	-0.215479	-33.9458	48.2788	38.489
 592	1	1	-0.2391	-32.0716	45.7589	38.0452
 593	1	1	-0.027923	-31.1417	44.845	38.5532
 594	1	1	-0.180376	-32.4871	44.2879	40.5116
 595	1	1	-0.054224	-31.3228	44.1687	39.7409
 596	1	2	0.006282	-29.6326	44.7574	38.6112
 597	1	2	0.015188	-29.8291	44.0098	39.9974
 598	1	3	0.034756	-28.9306	43.6909	37.7364
 599	1	3	0.003059	-27.4726	43.6322	38.2561
 600	1	3	0.042972	-29.1466	42.6424	39.7476
 601	1	3	0.004163	-27.6139	42.9354	39.6667
 602	1	3	-0.197219	-29.5119	42.3615	38.2718
 603	1	5	0.227416	-43.0874	45.6381	39.6776
 604	1	5	0.230059	-41.4226	41.5268	42.0551
 605	1	6	0.034807	-41.0489	46.5516	42.3682
 606	1	6	0.022109	-40.2154	44.4541	43.636
 607	1	6	0.043894	-39.9544	46.5609	39.8392
 608	1	6	0.04727	-38.9829	47.3987	42.2546
 609	1	6	0.039454	-38.1375	45.3448	43.5862
 610	1	6	0.037752	-38.4652	43.0865	42.0367
 611	1	6	0.046701	-38.1761	44.552	39.817
 612	1	6	0.047659	-39.8216	43.8854	39.8697
 613	1	5	0.173906	-37.0703	47.8269	39.3035
 614	1	5	0.156928	-35.2348	44.0367	42.0944
 615	1	6	0.056509	-36.0242	47.1475	37.0129
 616	1	6	0.064596	-35.5312	45.4493	37.1779
 617	1	6	0.065502	-34.4869	46.5954	36.3134
 618	1	6	0.062922	-33.4158	48.508	39.4223
 619	1	6	0.049805	-34.7876	48.976	38.3968
 620	1	6	0.059229	-33.2593	48.4618	37.6536
 621	1	5	0.166497	-31.8336	46.4305	37.2262
 622	1	5	0.141714	-32.5621	43.8883	41.5178
 623	1	6	0.041341	-29.103	45.7167	38.6155
 624	1	6	0.038019	-29.453	44.5037	40.9003
 625	1	6	0.012124	-29.0208	43.8342	36.6524
 626	1	6	0.001144	-26.9441	44.5941	38.2894
 627	1	6	0.009013	-29.4214	41.8461	40.4506
 628	1	6	0.001345	-27.2009	43.5256	40.4954
 629	1	6	0.041603	-30.5913	42.2584	38.1005
 630	1	6	0.069352	-29.024	41.4678	37.8613
 631	1	1	-0.425718	-52.6372	32.2134	45.1117
 632	1	1	0.123859	-51.5903	31.2962	45.3515
 633	1	1	0.123846	-50.4529	31.6444	46.1398
 634	1	1	-0.442194	-50.3716	32.9394	46.7217
 635	1	1	0.030377	-51.4998	33.758	46.5992
 636	1	1	0.003389	-52.5757	33.4138	45.8207
 637	1	2	0.006267	-53.016	34.8469	45.5987
 638	1	2	0.040808	-51.7843	35.2494	46.518
 639	1	3	0.010049	-52.67	35.4753	44.2205
 640	1	2	-0.044998	-52.9835	36.9447	44.6019
 641	1	2	-0.017344	-51.7763	37.3663	45.5447
 642	1	3	0.004207	-50.88	36.0951	45.5825
 643	1	3	-0.10977	-51.1142	35.4454	44.1877
 644	1	1	-0.002799	-52.4839	38.0194	43.6544
 645	1	1	-0.006419	-51.4513	38.4024	44.4843
 646	1	1	-0.256521	-52.4403	38.1935	42.2645
 647	1	1	0.004841	-51.349	38.9517	41.7831
 648	1	4	0.00733	-50.3155	39.3948	42.6457
 649	1	1	-0.221146	-50.299	39.0478	44.0193
 650	1	3	0.21053	-51.0083	39.2473	40.316
 651	1	4	0.0182	-49.2727	40.0387	41.8317
 652	1	1	0.000377	-49.6524	39.9491	40.4669
 653	1	3	-0.237942	-50.8759	37.9428	39.4971