pySIMM System Object

2324 atoms
2728 bonds
5616 angles
10560 dihedrals
216 impropers

6 atom types
11 bond types
24 angle types
21 dihedral types
1 improper types

-186.816495 186.816495 xlo xhi
-186.816495 186.816495 ylo yhi
-186.816495 186.816495 zlo zhi

Masses

   1	12.01	# ca
   2	12.01	# cy
   3	12.01	# c3
   4	12.01	# cp
   5	1.008	# ha
   6	1.008	# hc

Pair Coeffs

   1	0.086	3.3996695084235347	# ca
   2	0.086	3.3996695084235347	# cy
   3	0.1094	3.3996695084235347	# c3
   4	0.086	3.3996695084235347	# cp
   5	0.015	2.59964245953351	# ha
   6	0.0157	2.649532787749369	# hc

Bond Coeffs

   1	321.0	1.5156	# c3,ca
   2	285.0	1.5562	# cy,cy
   3	330.6	1.0969	# c3,hc
   4	333.3	1.0949	# cy,hc
   5	321.2	1.5154	# ca,cy
   6	461.1	1.3984	# ca,ca
   7	300.9	1.5375	# c3,c3
   8	305.9	1.5319	# c3,cy
   9	351.4	1.4854	# cp,cp
  10	345.8	1.086	# ca,ha
  11	450.2	1.4058	# ca,cp

Angle Coeffs

   1	62.73	112.39	# c3,c3,cy
   2	46.29	110.75	# cy,c3,hc
   3	44.83	114.79	# cy,cy,hc
   4	60.66	118.7	# c3,cy,cy
   5	66.72	118.38	# ca,cp,ca
   6	62.86	111.51	# c3,c3,c3
   7	46.43	110.14	# c3,cy,hc
   8	63.43	120.63	# c3,ca,cp
   9	63.56	112.24	# ca,c3,ca
  10	64.05	121.11	# ca,cp,cp
  11	66.62	120.02	# ca,ca,ca
  12	39.4	107.58	# hc,c3,hc
  13	47.98	119.86	# cp,ca,ha
  14	63.53	120.77	# c3,ca,ca
  15	63.51	120.86	# ca,ca,cy
  16	62.8	113.57	# c3,cy,ca
  17	67.9	96.03	# cy,c3,cy
  18	45.97	114.53	# ca,cy,hc
  19	61.4	116.81	# ca,cy,cy
  20	63.15	112.07	# c3,c3,ca
  21	66.26	120.69	# ca,ca,cp
  22	46.34	109.8	# c3,c3,hc
  23	48.18	119.88	# ca,ca,ha
  24	46.8	110.47	# ca,c3,hc

Dihedral Coeffs

   1	1	0.16	3	0.0	# cy,c3,cy,ca
   2	1	0.16	3	0.0	# c3,c3,cy,ca
   3	1	0.16	3	0.0	# hc,c3,cy,ca
   4	3	0.18	3	0.0	0.25	2	180.0	0.2	1	180.0	# cy,c3,cy,cy
   5	1	0.15	3	0	# hc,c3,c3,hc
   6	3	0.18	3	0.0	0.25	2	180.0	0.2	1	180.0	# c3,c3,cy,cy
   7	1	0.16	3	0.0	# hc,c3,cy,cy
   8	1	0.16	3	0.0	# cy,c3,cy,hc
   9	1	0.16	3	0.0	# c3,c3,cy,hc
  10	1	0.15	3	0.0	# hc,c3,cy,hc
  11	1	3.625	2	180	# X,ca,ca,X
  12	1	0.15555555555555556	3	0	# X,cy,cy,X
  13	1	3.625	2	180	# X,ca,cp,X
  14	3	0.18	3	0	0.25	2	180	0.2	1	180	# c3,c3,c3,c3
  15	1	0.15555555555555556	3	0	# X,c3,c3,X
  16	1	0.16	3	0	# hc,c3,c3,c3
  17	1	1.0	2	180	# X,cp,cp,X
  18	1	0.0	2	0.0	# ca,ca,cy,cy
  19	1	0.0	2	0.0	# ca,ca,cy,c3
  20	1	0.0	2	0	# X,c3,ca,X
  21	3	0.38	3	180.0	0.0	2	0.0	1.15	1	0.0	# ca,ca,cy,hc

Improper Coeffs

   1	1.1	-1	2	# ca,X,X,ha

Atoms

   1	1	1	-0.425718	59.4375	-41.5433	4.06071
   2	1	1	0.123859	59.5089	-41.0969	5.39259
   3	1	1	0.123846	58.4926	-41.2672	6.31353
   4	1	1	-0.442194	57.2686	-41.8939	6.01101
   5	1	1	0.030377	57.2972	-42.5434	4.76018
   6	1	1	0.003389	58.3277	-42.3816	3.84004
   7	1	2	0.006267	57.4671	-42.7767	2.65529
   8	1	2	0.040808	56.2872	-42.9607	3.70388
   9	1	3	0.010049	56.9709	-41.6345	1.72934
  10	1	2	-0.044998	55.9193	-42.4712	0.953531
  11	1	2	-0.017344	54.7327	-42.6575	1.9982
  12	1	3	0.004207	55.2334	-41.9076	3.26381
  13	1	3	-0.10977	56.1014	-40.7583	2.67612
  14	1	1	-0.002799	54.917	-41.7052	0.112647
  15	1	1	-0.006419	53.8897	-41.869	1.01229
  16	1	1	-0.256521	54.9328	-40.6996	-0.861367
  17	1	1	0.004841	53.7397	-39.9473	-0.957553
  18	1	4	0.00733	52.6735	-40.1225	-0.0382962
  19	1	1	-0.221146	52.7537	-41.0516	1.03055
  20	1	3	0.21053	53.4498	-38.7949	-1.92838
  21	1	4	0.0182	51.6349	-39.1244	-0.336591
  22	1	1	0.000377	52.0676	-38.343	-1.4397
  23	1	3	-0.237942	54.4879	-37.6596	-1.78574
  24	1	3	-0.215479	53.3948	-39.3007	-3.38729
  25	1	1	-0.2391	51.2293	-37.3755	-2.04089
  26	1	1	-0.027923	49.9988	-37.1875	-1.40003
  27	1	1	-0.180376	50.3361	-38.9848	0.216033
  28	1	1	-0.054224	49.5755	-37.9483	-0.336943
  29	1	2	0.006282	48.6066	-36.6729	-1.72333
  30	1	2	0.015188	48.1172	-37.5551	-0.498189
  31	1	3	0.034756	47.8075	-37.2605	-2.91318
  32	1	3	0.003059	48.2722	-38.6925	-3.29386
  33	1	3	0.042972	47.1081	-38.5282	-1.15774
  34	1	3	0.004163	47.7969	-39.5567	-2.09607
  35	1	3	-0.197219	46.476	-37.5936	-2.20953
  36	1	5	0.227416	60.0981	-41.1938	3.27384
  37	1	5	0.230059	56.3767	-41.7956	6.62129
  38	1	6	0.034807	57.8056	-43.6748	2.12526
  39	1	6	0.022109	55.8874	-43.974	3.82852
  40	1	6	0.043894	57.7308	-41.1159	1.13163
  41	1	6	0.04727	56.3163	-43.3777	0.481398
  42	1	6	0.039454	54.3871	-43.6816	2.18345
  43	1	6	0.037752	54.4752	-41.6266	4.00524
  44	1	6	0.046701	55.5083	-40.0071	2.1386
  45	1	6	0.047659	56.6945	-40.2415	3.43974
  46	1	5	0.173906	55.809	-40.4889	-1.46629
  47	1	5	0.156928	52.0167	-41.0927	1.82589
  48	1	6	0.056509	54.2224	-36.8051	-2.4203
  49	1	6	0.064596	55.4886	-38.0024	-2.07522
  50	1	6	0.065502	54.5351	-37.3093	-0.746795
  51	1	6	0.062922	54.365	-39.7084	-3.69645
  52	1	6	0.049805	53.13	-38.4893	-4.07626
  53	1	6	0.059229	52.6442	-40.0945	-3.4917
  54	1	5	0.166497	51.4924	-36.8622	-2.96053
  55	1	5	0.141714	49.9406	-39.6694	0.959361
  56	1	6	0.041341	48.4471	-35.5953	-1.60697
  57	1	6	0.038019	47.671	-36.9894	0.327155
  58	1	6	0.012124	47.7108	-36.5865	-3.7737
  59	1	6	0.001144	49.3529	-38.7637	-3.46203
  60	1	6	0.009013	46.3903	-38.9803	-0.461768
  61	1	6	0.001345	48.6202	-40.0952	-1.61295
  62	1	6	0.041603	45.9952	-36.7116	-1.7641
  63	1	6	0.069352	45.7593	-38.1072	-2.86596
  64	1	1	-0.425718	66.3548	-40.5333	18.2679
  65	1	1	0.123859	66.0409	-39.5709	19.2457
  66	1	1	0.123846	64.7459	-39.2013	19.5587
  67	1	1	-0.442194	63.6076	-39.7563	18.9444
  68	1	1	0.030377	63.9179	-40.887	18.1634
  69	1	1	0.003389	65.2207	-41.2505	17.8383
  70	1	2	0.006267	64.8042	-42.0012	16.5862
  71	1	2	0.040808	63.3153	-41.5925	16.9606
  72	1	3	0.010049	65.049	-41.3006	15.2219
  73	1	2	-0.044998	64.1794	-42.2568	14.3626
  74	1	2	-0.017344	62.6846	-41.8567	14.7378
  75	1	3	0.004207	62.8584	-40.7082	15.7691
  76	1	3	-0.10977	64.1755	-40.017	15.3144
  77	1	1	-0.002799	63.834	-41.7998	12.9581
  78	1	1	-0.006419	62.5411	-41.4605	13.2801
  79	1	1	-0.256521	64.499	-41.3061	11.8295
  80	1	1	0.004841	63.6928	-40.5445	10.9522
  81	1	4	0.00733	62.3537	-40.2047	11.2757
  82	1	1	-0.221146	61.7588	-40.6	12.5012
  83	1	3	0.21053	64.1253	-39.893	9.63241
  84	1	4	0.0182	61.8253	-39.334	10.2134
  85	1	1	0.000377	62.843	-39.1466	9.24236
  86	1	3	-0.237942	65.2977	-38.9094	9.84391
  87	1	3	-0.215479	64.4968	-40.964	8.58236
  88	1	1	-0.2391	62.5956	-38.4661	8.02826
  89	1	1	-0.027923	61.3142	-37.9135	7.91446
  90	1	1	-0.180376	60.5043	-38.8567	10.0138
  91	1	1	-0.054224	60.3237	-38.0984	8.85048
  92	1	2	0.006282	60.3491	-37.5055	6.81593
  93	1	2	0.015188	59.2014	-37.713	7.89881
  94	1	3	0.034756	59.9638	-38.5122	5.70198
  95	1	3	0.003059	60.1739	-39.9826	6.17826
  96	1	3	0.042972	58.3035	-38.799	7.24893
  97	1	3	0.004163	59.0167	-40.1836	7.24038
  98	1	3	-0.197219	58.4263	-38.3632	5.77026
  99	1	5	0.227416	67.3364	-40.6288	17.8151
 100	1	5	0.230059	62.6255	-39.2958	18.9759
 101	1	6	0.034807	65.0426	-43.0713	16.5947
 102	1	6	0.022109	62.6242	-42.4069	17.2084
 103	1	6	0.043894	66.0934	-41.1687	14.9131
 104	1	6	0.04727	64.4489	-43.3163	14.4471
 105	1	6	0.039454	62.0181	-42.6643	15.0634
 106	1	6	0.037752	61.9906	-40.059	15.9388
 107	1	6	0.046701	64.0755	-39.497	14.3529
 108	1	6	0.047659	64.5533	-39.2999	16.0514
 109	1	5	0.173906	65.5592	-41.4668	11.6611
 110	1	5	0.156928	60.7923	-40.2307	12.8284
 111	1	6	0.056509	65.5405	-38.3842	8.91196
 112	1	6	0.064596	66.1973	-39.4368	10.1836
 113	1	6	0.065502	65.0379	-38.1574	10.5998
 114	1	6	0.062922	63.6573	-41.6521	8.42069
 115	1	6	0.049805	65.3604	-41.5538	8.91337
 116	1	6	0.059229	64.748	-40.5019	7.61998
 117	1	5	0.166497	63.3175	-38.4332	7.21829
 118	1	5	0.141714	59.683	-39.1229	10.6713
 119	1	6	0.041341	60.4464	-36.4819	6.43767
 120	1	6	0.038019	58.6396	-36.8071	8.15222
 121	1	6	0.012124	60.3979	-38.2975	4.71746
 122	1	6	0.001144	61.176	-40.2419	6.53973
 123	1	6	0.009013	57.2744	-38.8321	7.62779
 124	1	6	0.001345	59.352	-40.5641	8.2126
 125	1	6	0.041603	58.0929	-37.329	5.60458
 126	1	6	0.069352	57.887	-39.0133	5.07074
 127	1	1	-0.425718	66.9174	-32.1761	31.9508
 128	1	1	0.123859	66.4949	-30.8333	31.9049
 129	1	1	0.123846	65.3579	-30.4253	31.2342
 130	1	1	-0.442194	64.4702	-31.3025	30.5879
 131	1	1	0.030377	64.7489	-32.6523	30.8757
 132	1	1	0.003389	65.9238	-33.0676	31.4959
 133	1	2	0.006267	65.8878	-34.4489	30.8591
 134	1	2	0.040808	64.5372	-33.9764	30.17
 135	1	3	0.010049	66.8386	-34.7114	29.6558
 136	1	2	-0.044998	66.1826	-36.0346	29.1692
 137	1	2	-0.017344	64.8214	-35.557	28.5014
 138	1	3	0.004207	64.8501	-34.0142	28.6533
 139	1	3	-0.10977	66.3675	-33.6759	28.5949
 140	1	1	-0.002799	66.5587	-36.5301	27.7815
 141	1	1	-0.006419	65.3764	-36.1144	27.2082
 142	1	1	-0.256521	67.7378	-36.718	27.0465
 143	1	1	0.004841	67.6013	-36.5832	25.645
 144	1	4	0.00733	66.3916	-36.1312	25.0613
 145	1	1	-0.221146	65.2566	-35.8159	25.8466
 146	1	3	0.21053	68.7027	-36.7283	24.5844
 147	1	4	0.0182	66.6158	-35.9186	23.6247
 148	1	1	0.000377	67.9559	-36.2742	23.3221
 149	1	3	-0.237942	69.9028	-35.8018	24.882
 150	1	3	-0.215479	69.1665	-38.197	24.4668
 151	1	1	-0.2391	68.4427	-36.273	21.9932
 152	1	1	-0.027923	67.5371	-35.7861	21.0422
 153	1	1	-0.180376	65.6964	-35.5221	22.6206
 154	1	1	-0.054224	66.2465	-35.4222	21.3388
 155	1	2	0.006282	67.2945	-35.8322	19.5427
 156	1	2	0.015188	65.7984	-35.4079	19.8886
 157	1	3	0.034756	67.1078	-37.1896	18.8164
 158	1	3	0.003059	66.6481	-38.2982	19.8105
 159	1	3	0.042972	64.9604	-36.5793	19.3177
 160	1	3	0.004163	65.1642	-37.8733	20.1623
 161	1	3	-0.197219	65.7998	-36.8763	18.0538
 162	1	5	0.227416	67.9307	-32.4765	32.1975
 163	1	5	0.230059	63.7337	-30.9803	29.859
 164	1	6	0.034807	65.8176	-35.2816	31.5687
 165	1	6	0.022109	63.62	-34.5043	30.457
 166	1	6	0.043894	67.9137	-34.7426	29.8725
 167	1	6	0.04727	66.1143	-36.8151	29.9362
 168	1	6	0.039454	63.8978	-36.0348	28.8495
 169	1	6	0.037752	64.1866	-33.4383	27.9963
 170	1	6	0.046701	66.8071	-33.8476	27.604
 171	1	6	0.047659	66.5827	-32.642	28.8863
 172	1	5	0.173906	68.6958	-36.8983	27.5237
 173	1	5	0.156928	64.3854	-35.3169	25.4352
 174	1	6	0.056509	70.4033	-36.0916	25.8138
 175	1	6	0.064596	69.5699	-34.761	24.9832
 176	1	6	0.065502	70.64	-35.8449	24.0709
 177	1	6	0.062922	68.3155	-38.8527	24.242
 178	1	6	0.049805	69.6206	-38.54	25.4047
 179	1	6	0.059229	69.9064	-38.3134	23.6657
 180	1	5	0.166497	69.4239	-36.6528	21.7258
 181	1	5	0.141714	64.643	-35.3563	22.8217
 182	1	6	0.041341	67.8508	-35.1084	18.9369
 183	1	6	0.038019	65.4887	-34.4379	19.4842
 184	1	6	0.012124	67.9467	-37.4878	18.1753
 185	1	6	0.001144	67.2918	-38.4664	20.6827
 186	1	6	0.009013	63.9086	-36.3388	19.1187
 187	1	6	0.001345	64.9543	-37.7939	21.2358
 188	1	6	0.041603	65.8933	-36.0037	17.392
 189	1	6	0.069352	65.4222	-37.717	17.4607
 190	1	1	-0.425718	59.2079	-19.9623	37.9682
 191	1	1	0.123859	58.5701	-18.8812	37.3293
 192	1	1	0.123846	58.1796	-18.9039	36.0044
 193	1	1	-0.442194	58.3275	-20.0183	35.1611
 194	1	1	0.030377	58.7217	-21.1675	35.8724
 195	1	1	0.003389	59.1593	-21.1381	37.1919
 196	1	2	0.006267	59.9553	-22.428	37.0626
 197	1	2	0.040808	59.4418	-22.4615	35.5582
 198	1	3	0.010049	61.501	-22.3171	36.9203
 199	1	2	-0.044998	61.7586	-23.7823	36.4658
 200	1	2	-0.017344	61.2221	-23.8034	34.9622
 201	1	3	0.004207	60.7365	-22.3537	34.7142
 202	1	3	-0.10977	61.6802	-21.4997	35.6091
 203	1	1	-0.002799	63.1156	-24.1061	35.8601
 204	1	1	-0.006419	62.6489	-24.1151	34.5735
 205	1	1	-0.256521	64.4107	-24.5011	36.2177
 206	1	1	0.004841	65.2307	-24.8661	35.1192
 207	1	4	0.00733	64.7478	-24.8415	33.7829
 208	1	1	-0.221146	63.4129	-24.4826	33.466
 209	1	3	0.21053	66.6617	-25.4254	35.1695
 210	1	4	0.0182	65.7979	-25.3557	32.8956
 211	1	1	0.000377	66.9191	-25.72	33.6829
 212	1	3	-0.237942	67.6564	-24.3759	35.7109
 213	1	3	-0.215479	66.7239	-26.7184	36.0146
 214	1	1	-0.2391	68.0151	-26.4222	33.1257
 215	1	1	-0.027923	67.9523	-26.62	31.7383
 216	1	1	-0.180376	65.7179	-25.664	31.5166
 217	1	1	-0.054224	66.8649	-26.2534	30.9776
 218	1	2	0.006282	68.469	-27.6184	30.7084
 219	1	2	0.015188	67.1964	-27.2068	29.8484
 220	1	3	0.034756	68.2749	-29.1476	30.8996
 221	1	3	0.003059	67.1161	-29.4454	31.8931
 222	1	3	0.042972	66.4166	-28.539	29.7141
 223	1	3	0.004163	65.8293	-28.9922	31.0903
 224	1	3	-0.197219	67.6231	-29.4892	29.5396
 225	1	5	0.227416	59.7554	-19.8729	38.901
 226	1	5	0.230059	58.246	-19.9717	34.08
 227	1	6	0.034807	59.6208	-23.2403	37.7184
 228	1	6	0.022109	58.7819	-23.2904	35.2754
 229	1	6	0.043894	62.0548	-21.9674	37.8005
 230	1	6	0.04727	61.3747	-24.5387	37.1605
 231	1	6	0.039454	60.4965	-24.577	34.6833
 232	1	6	0.037752	60.6226	-22.0405	33.669
 233	1	6	0.046701	62.7175	-21.4926	35.25
 234	1	6	0.047659	61.3453	-20.4598	35.7082
 235	1	5	0.173906	64.7406	-24.5675	37.2496
 236	1	5	0.156928	63.0074	-24.5348	32.461
 237	1	6	0.056509	67.4274	-24.1192	36.7525
 238	1	6	0.064596	67.6077	-23.4558	35.1149
 239	1	6	0.065502	68.6851	-24.7541	35.6682
 240	1	6	0.062922	67.7309	-27.1524	35.9972
 241	1	6	0.049805	66.024	-27.4684	35.6243
 242	1	6	0.059229	66.4586	-26.5178	37.0596
 243	1	5	0.166497	68.804	-26.85	33.7365
 244	1	5	0.141714	64.803	-25.5428	30.9459
 245	1	6	0.041341	69.4323	-27.3792	30.2445
 246	1	6	0.038019	67.4218	-26.7536	28.8766
 247	1	6	0.012124	69.1954	-29.7052	31.1129
 248	1	6	0.001144	67.2082	-29.0013	32.8914
 249	1	6	0.009013	65.6927	-28.567	28.89
 250	1	6	0.001345	65.191	-28.2728	31.6154
 251	1	6	0.041603	68.2584	-29.2166	28.685
 252	1	6	0.069352	67.3433	-30.5437	29.4354
 253	1	1	-0.425718	45.8067	-13.1675	34.8
 254	1	1	0.123859	45.304	-12.3662	33.7583
 255	1	1	0.123846	45.9026	-12.2631	32.5166
 256	1	1	-0.442194	47.0675	-12.9646	32.152
 257	1	1	0.030377	47.4147	-13.9467	33.1014
 258	1	1	0.003389	46.8244	-14.034	34.357
 259	1	2	0.006267	48.0008	-14.7695	34.9719
 260	1	2	0.040808	48.671	-14.6831	33.5328
 261	1	3	0.010049	48.9616	-13.9503	35.8786
 262	1	2	-0.044998	50.095	-15.008	35.9476
 263	1	2	-0.017344	50.7636	-14.9436	34.5008
 264	1	3	0.004207	49.9523	-13.8401	33.7678
 265	1	3	-0.10977	49.5379	-12.8745	34.9146
 266	1	1	-0.002799	51.4459	-14.5508	36.4679
 267	1	1	-0.006419	52.0208	-14.5057	35.2245
 268	1	1	-0.256521	52.1706	-14.4814	37.6632
 269	1	1	0.004841	53.5644	-14.2949	37.4918
 270	1	4	0.00733	54.1617	-14.2661	36.2031
 271	1	1	-0.221146	53.3989	-14.4105	35.0146
 272	1	3	0.21053	54.6341	-14.2508	38.5931
 273	1	4	0.0182	55.6223	-14.2311	36.3691
 274	1	1	0.000377	55.9209	-14.2252	37.7553
 275	1	3	-0.237942	54.5016	-12.9741	39.4512
 276	1	3	-0.215479	54.5714	-15.513	39.4841
 277	1	1	-0.2391	57.2457	-14.3778	38.2289
 278	1	1	-0.027923	58.2329	-14.4398	37.2351
 279	1	1	-0.180376	56.6307	-14.4129	35.3916
 280	1	1	-0.054224	57.9371	-14.4624	35.8899
 281	1	2	0.006282	59.6064	-15.0748	37.0522
 282	1	2	0.015188	59.2458	-15.1248	35.505
 283	1	3	0.034756	59.8546	-16.5677	37.401
 284	1	3	0.003059	58.52	-17.3656	37.4179
 285	1	3	0.042972	59.2802	-16.6426	35.1891
 286	1	3	0.004163	58.103	-17.3945	35.8902
 287	1	3	-0.197219	60.4892	-17.034	36.0697
 288	1	5	0.227416	45.5156	-13.0557	35.8394
 289	1	5	0.230059	47.6804	-12.7083	31.2939
 290	1	6	0.034807	47.7652	-15.7713	35.3501
 291	1	6	0.022109	48.8448	-15.6303	33.0085
 292	1	6	0.043894	48.5579	-13.5946	36.8347
 293	1	6	0.04727	49.7697	-15.9847	36.3253
 294	1	6	0.039454	50.8662	-15.8757	33.9323
 295	1	6	0.037752	50.4168	-13.3887	32.8823
 296	1	6	0.046701	50.3899	-12.3307	35.3427
 297	1	6	0.047659	48.7859	-12.1404	34.6005
 298	1	5	0.173906	51.7098	-14.6192	38.6362
 299	1	5	0.156928	53.8503	-14.4999	34.032
 300	1	6	0.056509	53.5478	-12.9636	39.993
 301	1	6	0.064596	54.5433	-12.0786	38.8183
 302	1	6	0.065502	55.3147	-12.9099	40.1846
 303	1	6	0.062922	54.6717	-16.42	38.8741
 304	1	6	0.049805	53.617	-15.5686	40.0216
 305	1	6	0.059229	55.3783	-15.5121	40.2266
 306	1	5	0.166497	57.4725	-14.5363	39.2785
 307	1	5	0.141714	56.3991	-14.6075	34.3495
 308	1	6	0.041341	60.4668	-14.4444	37.3022
 309	1	6	0.038019	59.9136	-14.5472	34.8562
 310	1	6	0.012124	60.4822	-16.7357	38.2852
 311	1	6	0.001144	57.7417	-16.998	38.0966
 312	1	6	0.009013	59.3942	-16.8883	34.1259
 313	1	6	0.001345	57.0914	-17.0266	35.6845
 314	1	6	0.041603	61.3989	-16.4721	35.8152
 315	1	6	0.069352	60.7288	-18.1047	36.0422
 316	1	1	-0.425718	34.6804	-6.97428	25.133
 317	1	1	0.123859	34.8011	-5.68545	24.5828
 318	1	1	0.123846	35.9516	-5.21694	23.9769
 319	1	1	-0.442194	37.1256	-5.98341	23.845
 320	1	1	0.030377	36.9191	-7.33993	24.17
 321	1	1	0.003389	35.7602	-7.80707	24.7816
 322	1	2	0.006267	36.4425	-9.02617	25.3728
 323	1	2	0.040808	37.7662	-8.49939	24.6694
 324	1	3	0.010049	36.7817	-8.98156	26.8873
 325	1	2	-0.044998	37.7171	-10.2193	26.9052
 326	1	2	-0.017344	39.045	-9.70735	26.1952
 327	1	3	0.004207	38.7318	-8.2234	25.8537
 328	1	3	-0.10977	37.773	-7.78791	26.9985
 329	1	1	-0.002799	38.5771	-10.4127	28.1398
 330	1	1	-0.006419	39.7295	-9.98037	27.5224
 331	1	1	-0.256521	38.3966	-10.3794	29.5286
 332	1	1	0.004841	39.5433	-10.021	30.2738
 333	1	4	0.00733	40.7394	-9.60014	29.6393
 334	1	1	-0.221146	40.8356	-9.49299	28.2289
 335	1	3	0.21053	39.6476	-9.88059	31.7986
 336	1	4	0.0182	41.6913	-9.17445	30.6771
 337	1	1	0.000377	41.0712	-9.32696	31.9447
 338	1	3	-0.237942	38.6048	-8.88046	32.3461
 339	1	3	-0.215479	39.5012	-11.2529	32.493
 340	1	1	-0.2391	41.7714	-9.08741	33.1504
 341	1	1	-0.027923	43.0754	-8.60446	32.9843
 342	1	1	-0.180376	43.0528	-8.79756	30.5505
 343	1	1	-0.054224	43.6831	-8.47814	31.7584
 344	1	2	0.006282	44.3803	-8.5281	33.7601
 345	1	2	0.015188	45.0846	-8.39492	32.3382
 346	1	3	0.034756	45.0227	-9.80934	34.3497
 347	1	3	0.003059	44.5199	-11.0774	33.5993
 348	1	3	0.042972	46.0249	-9.62831	32.3013
 349	1	3	0.004163	45.2107	-10.9533	32.1796
 350	1	3	-0.197219	46.4538	-9.6451	33.7871
 351	1	5	0.227416	33.904	-7.25563	25.8371
 352	1	5	0.230059	38.099	-5.55628	23.6268
 353	1	6	0.034807	36.0435	-9.98659	25.0257
 354	1	6	0.022109	38.1918	-9.12839	23.8787
 355	1	6	0.043894	35.9352	-8.99025	27.5852
 356	1	6	0.04727	37.2637	-11.1376	26.5133
 357	1	6	0.039454	39.4202	-10.2994	25.352
 358	1	6	0.037752	39.5893	-7.57013	25.6503
 359	1	6	0.046701	38.2705	-7.73406	27.9754
 360	1	6	0.047659	37.2949	-6.82063	26.8067
 361	1	5	0.173906	37.4325	-10.5615	29.9925
 362	1	5	0.156928	41.6752	-9.01213	27.7377
 363	1	6	0.056509	38.7444	-8.71933	33.4221
 364	1	6	0.064596	37.5842	-9.24793	32.1852
 365	1	6	0.065502	38.7009	-7.91029	31.8422
 366	1	6	0.062922	39.6351	-11.1613	33.5776
 367	1	6	0.049805	40.2524	-11.9586	32.1159
 368	1	6	0.059229	38.509	-11.6817	32.3061
 369	1	5	0.166497	41.3522	-9.31138	34.1264
 370	1	5	0.141714	43.5786	-8.81473	29.6013
 371	1	6	0.041341	44.5038	-7.66081	34.418
 372	1	6	0.038019	45.6235	-7.45472	32.177
 373	1	6	0.012124	44.9703	-9.8898	35.4427
 374	1	6	0.001144	43.4341	-11.2274	33.5673
 375	1	6	0.009013	46.8567	-9.55122	31.59
 376	1	6	0.001345	44.521	-11.0251	31.3299
 377	1	6	0.041603	46.9269	-8.70438	34.1021
 378	1	6	0.069352	47.1287	-10.4711	34.0441
 379	1	1	-0.425718	30.1102	4.87466	15.5295
 380	1	1	0.123859	30.4866	6.22732	15.5993
 381	1	1	0.123846	31.772	6.65824	15.8632
 382	1	1	-0.442194	32.8526	5.78647	16.1
 383	1	1	0.030377	32.5233	4.4472	15.805
 384	1	1	0.003389	31.2285	4.02009	15.5339
 385	1	2	0.006267	31.519	2.57712	15.8928
 386	1	2	0.040808	33.0038	3.0589	16.1975
 387	1	3	0.010049	30.9995	2.07372	17.2661
 388	1	2	-0.044998	31.8052	0.749284	17.2874
 389	1	2	-0.017344	33.3009	1.21255	17.5835
 390	1	3	0.004207	33.1869	2.75864	17.7102
 391	1	3	-0.10977	31.7578	2.96815	18.2886
 392	1	1	-0.002799	31.8861	0.0106507	18.6084
 393	1	1	-0.006419	33.18	0.396796	18.8579
 394	1	1	-0.256521	31.0259	-0.484638	19.5949
 395	1	1	0.004841	31.6365	-0.705563	20.8515
 396	1	4	0.00733	32.9856	-0.341235	21.1015
 397	1	1	-0.221146	33.7838	0.295621	20.1159
 398	1	3	0.21053	30.9683	-1.25491	22.1186
 399	1	4	0.0182	33.2939	-0.6407	22.5087
 400	1	1	0.000377	32.1274	-1.16925	23.1202
 401	1	3	-0.237942	29.7824	-0.369937	22.5622
 402	1	3	-0.215479	30.509	-2.71599	21.9129
 403	1	1	-0.2391	32.1421	-1.66894	24.4428
 404	1	1	-0.027923	33.3604	-1.51743	25.1164
 405	1	1	-0.180376	34.5432	-0.617475	23.1796
 406	1	1	-0.054224	34.4989	-1.03323	24.5156
 407	1	2	0.006282	34.1143	-2.17539	26.2592
 408	1	2	0.015188	35.4328	-1.62299	25.5598
 409	1	3	0.034756	34.3393	-3.7085	26.2708
 410	1	3	0.003059	34.2442	-4.29697	24.831
 411	1	3	0.042972	36.2348	-2.91864	25.2633
 412	1	3	0.004163	35.5595	-3.75657	24.1349
 413	1	3	-0.197219	35.8635	-3.72422	26.5298
 414	1	5	0.227416	29.0813	4.53121	15.5621
 415	1	5	0.230059	33.7937	6.09786	16.5416
 416	1	6	0.034807	31.3855	1.86701	15.0681
 417	1	6	0.022109	33.7976	2.65354	15.559
 418	1	6	0.043894	29.9119	1.99417	17.3859
 419	1	6	0.04727	31.6453	0.105604	16.4141
 420	1	6	0.039454	34.0771	0.869138	16.8893
 421	1	6	0.037752	34.0086	3.27595	18.2208
 422	1	6	0.046701	31.6601	2.6114	19.3221
 423	1	6	0.047659	31.4355	4.01657	18.2565
 424	1	5	0.173906	29.9694	-0.657506	19.4158
 425	1	5	0.156928	34.7672	0.701722	20.3293
 426	1	6	0.056509	30.106	0.670238	22.6951
 427	1	6	0.064596	29.3679	-0.720995	23.5151
 428	1	6	0.065502	28.9804	-0.38389	21.8143
 429	1	6	0.062922	31.3553	-3.34686	21.6123
 430	1	6	0.049805	29.7434	-2.77956	21.1299
 431	1	6	0.059229	30.0875	-3.13052	22.8366
 432	1	5	0.166497	31.2987	-2.19591	24.878
 433	1	5	0.141714	35.4716	-0.371453	22.6743
 434	1	6	0.041341	33.9229	-1.77566	27.2612
 435	1	6	0.038019	36.0062	-0.907118	26.1592
 436	1	6	0.012124	33.7463	-4.25523	27.0146
 437	1	6	0.001144	33.3184	-4.09504	24.2796
 438	1	6	0.009013	37.3124	-2.76975	25.1207
 439	1	6	0.001345	35.3901	-3.24136	23.1817
 440	1	6	0.041603	36.1413	-3.20579	27.4583
 441	1	6	0.069352	36.2974	-4.73078	26.5567
 442	1	1	-0.425718	33.225	17.5022	6.76804
 443	1	1	0.123859	34.0102	18.6673	6.74853
 444	1	1	0.123846	34.8152	19.0642	7.80901
 445	1	1	-0.442194	34.9551	18.2805	8.97289
 446	1	1	0.030377	34.0073	17.2425	9.07889
 447	1	1	0.003389	33.1623	16.8886	8.03038
 448	1	2	0.006267	33.0587	15.4439	8.46833
 449	1	2	0.040808	34.0394	15.8306	9.65093
 450	1	3	0.010049	31.7459	15.0309	9.18654
 451	1	2	-0.044998	32.2442	13.6481	9.67157
 452	1	2	-0.017344	33.2591	13.9935	10.8543
 453	1	3	0.004207	33.2061	15.5487	10.9307
 454	1	3	-0.10977	31.7549	15.887	10.485
 455	1	1	-0.002799	31.4206	12.9447	10.7303
 456	1	1	-0.006419	32.3038	13.2149	11.741
 457	1	1	-0.256521	30.1516	12.3935	10.9312
 458	1	1	0.004841	29.8915	12.0145	12.2699
 459	1	4	0.00733	30.836	12.2284	13.3103
 460	1	1	-0.221146	32.072	12.8908	13.0813
 461	1	3	0.21053	28.6206	11.3447	12.8067
 462	1	4	0.0182	30.2849	11.6719	14.5568
 463	1	1	0.000377	28.9901	11.1603	14.2843
 464	1	3	-0.237942	27.3897	12.2642	12.6506
 465	1	3	-0.215479	28.375	9.98486	12.1134
 466	1	1	-0.2391	28.2697	10.4127	15.2428
 467	1	1	-0.027923	28.8957	10.2789	16.4886
 468	1	1	-0.180376	30.942	11.4108	15.786
 469	1	1	-0.054224	30.1704	10.7362	16.7411
 470	1	2	0.006282	28.9294	9.25221	17.6076
 471	1	2	0.015188	30.4028	9.77355	17.8967
 472	1	3	0.034756	29.1432	7.75108	17.2853
 473	1	3	0.003059	29.8602	7.57031	15.9129
 474	1	3	0.042972	31.2642	8.49394	17.7079
 475	1	3	0.004163	31.3334	8.07252	16.2087
 476	1	3	-0.197219	30.2808	7.45101	18.2889
 477	1	5	0.227416	32.8786	17.0159	5.86157
 478	1	5	0.230059	35.8269	18.3442	9.61621
 479	1	6	0.034807	33.403	14.72	7.72007
 480	1	6	0.022109	35.0356	15.373	9.67027
 481	1	6	0.043894	30.8265	15.0439	8.58778
 482	1	6	0.04727	32.609	12.992	8.87214
 483	1	6	0.039454	34.2714	13.577	10.7892
 484	1	6	0.037752	33.5587	16.0116	11.8608
 485	1	6	0.046701	31.0001	15.5644	11.214
 486	1	6	0.047659	31.608	16.9571	10.2893
 487	1	5	0.173906	29.4328	12.2639	10.1282
 488	1	5	0.156928	32.7743	13.1242	13.8749
 489	1	6	0.056509	26.5023	11.8112	13.1096
 490	1	6	0.064596	27.1711	12.4508	11.5921
 491	1	6	0.065502	27.5674	13.2316	13.1371
 492	1	6	0.062922	29.2449	9.32711	12.2371
 493	1	6	0.049805	28.1998	10.1179	11.0388
 494	1	6	0.059229	27.5015	9.47673	12.5394
 495	1	5	0.166497	27.3522	9.88664	14.9985
 496	1	5	0.141714	31.9969	11.6191	15.9329
 497	1	6	0.041341	28.2182	9.40395	18.427
 498	1	6	0.038019	30.5441	10.2263	18.8844
 499	1	6	0.012124	28.2521	7.12275	17.4073
 500	1	6	0.001144	29.3826	8.03381	15.0426
 501	1	6	0.009013	32.2416	8.52059	18.2058
 502	1	6	0.001345	31.7053	8.82855	15.5072
 503	1	6	0.041603	29.9973	7.66973	19.328
 504	1	6	0.069352	30.6509	6.4185	18.2444
 505	1	1	-0.425718	41.4051	33.6932	0.475663
 506	1	1	0.123859	41.6661	34.8886	1.16472
 507	1	1	0.123846	41.6568	34.9929	2.54943
 508	1	1	-0.442194	41.4561	33.8703	3.38082
 509	1	1	0.030377	40.9807	32.7327	2.69563
 510	1	1	0.003389	40.933	32.6637	1.30608
 511	1	2	0.006267	41.0898	31.1616	1.27427
 512	1	2	0.040808	41.1703	31.2265	2.85561
 513	1	3	0.010049	39.8008	30.3467	0.993957
 514	1	2	-0.044998	40.4004	28.9664	1.34509
 515	1	2	-0.017344	40.522	28.9798	2.93703
 516	1	3	0.004207	39.9516	30.3805	3.32173
 517	1	3	-0.10977	38.8929	30.6601	2.21742
 518	1	1	-0.002799	39.4279	27.825	1.5355
 519	1	1	-0.006419	39.5544	27.8061	2.8979
 520	1	1	-0.256521	38.5089	27.0522	0.823703
 521	1	1	0.004841	37.7871	26.1361	1.62369
 522	1	4	0.00733	37.9864	26.0367	3.02857
 523	1	1	-0.221146	38.8626	26.9143	3.72639
 524	1	3	0.21053	36.7493	25.1215	1.13559
 525	1	4	0.0182	37.1725	24.9123	3.52928
 526	1	1	0.000377	36.4441	24.3733	2.43832
 527	1	3	-0.237942	35.4881	25.827	0.590924
 528	1	3	-0.215479	37.3504	24.1817	0.0646591
 529	1	1	-0.2391	35.726	23.1645	2.55231
 530	1	1	-0.027923	35.709	22.5893	3.82697
 531	1	1	-0.180376	37.2571	24.2227	4.76763
 532	1	1	-0.054224	36.4526	23.0786	4.88355
 533	1	2	0.006282	35.7299	21.1648	4.33389
 534	1	2	0.015188	36.5994	21.71	5.54113
 535	1	3	0.034756	34.4613	20.6185	5.02767
 536	1	3	0.003059	34.9079	19.2981	5.70373
 537	1	3	0.042972	35.7316	21.3454	6.77299
 538	1	3	0.004163	35.8043	19.7903	6.90788
 539	1	3	-0.197219	34.2969	21.5635	6.24054
 540	1	5	0.227416	41.7252	33.5242	-0.547634
 541	1	5	0.230059	41.8146	33.8309	4.40452
 542	1	6	0.034807	41.9691	30.8126	0.719599
 543	1	6	0.022109	42.1104	30.9363	3.33949
 544	1	6	0.043894	39.3513	30.453	-0.00131788
 545	1	6	0.04727	41.2978	28.7026	0.772704
 546	1	6	0.039454	41.503	28.7574	3.37347
 547	1	6	0.037752	39.6276	30.5144	4.36132
 548	1	6	0.046701	38.0224	29.9945	2.285
 549	1	6	0.047659	38.5332	31.6972	2.22511
 550	1	5	0.173906	38.3737	27.1389	-0.249746
 551	1	5	0.156928	38.9922	26.8876	4.80348
 552	1	6	0.056509	34.7176	25.0952	0.318316
 553	1	6	0.064596	35.7253	26.4238	-0.29821
 554	1	6	0.065502	35.0651	26.499	1.34848
 555	1	6	0.062922	37.6483	24.7444	-0.828267
 556	1	6	0.049805	36.6258	23.4183	-0.243512
 557	1	6	0.059229	38.2391	23.6703	0.455968
 558	1	5	0.166497	35.314	22.6542	1.68739
 559	1	5	0.141714	37.9868	24.4934	5.52402
 560	1	6	0.041341	36.1899	20.4329	3.66042
 561	1	6	0.038019	37.6276	21.3429	5.63498
 562	1	6	0.012124	33.5753	20.5246	4.38737
 563	1	6	0.001144	35.4085	18.5753	5.04574
 564	1	6	0.009013	35.9701	21.8931	7.69333
 565	1	6	0.001345	36.816	19.3636	6.90873
 566	1	6	0.041603	34.0903	22.6037	5.95702
 567	1	6	0.069352	33.5148	21.2483	6.9436
 568	1	1	-0.425718	42.0103	51.7999	2.47968
 569	1	1	0.123859	40.7741	52.2622	2.98542
 570	1	1	0.123846	40.1848	51.7066	4.16634
 571	1	1	-0.442194	40.8501	50.6612	4.86359
 572	1	1	0.030377	42.1265	50.3229	4.40268
 573	1	1	0.003389	42.6718	50.8651	3.27369
 574	1	2	0.006267	43.7497	49.8113	3.14682
 575	1	2	0.040808	43.1295	49.179	4.4715
 576	1	3	0.010049	43.5292	48.7144	2.07193
 577	1	2	-0.044998	44.6515	47.7659	2.55853
 578	1	2	-0.017344	44.0706	47.1201	3.89497
 579	1	3	0.004207	42.659	47.7674	4.0213
 580	1	3	-0.10977	42.2317	47.9958	2.54268
 581	1	1	-0.002799	44.6478	46.3584	2.00145
 582	1	1	-0.006419	44.1745	45.7931	3.15931
 583	1	1	-0.256521	44.6033	45.7175	0.759633
 584	1	1	0.004841	44.1961	44.3648	0.810997
 585	1	4	0.00733	43.7821	43.7486	2.02184
 586	1	1	-0.221146	43.685	44.4828	3.23435
 587	1	3	0.21053	44.0674	43.4029	-0.374292
 588	1	4	0.0182	43.4217	42.3487	1.72911
 589	1	1	0.000377	43.576	42.1353	0.334742
 590	1	3	-0.237942	43.0265	43.9054	-1.39904
 591	1	3	-0.215479	45.4363	43.1791	-1.05654
 592	1	1	-0.2391	43.4602	40.8498	-0.23703
 593	1	1	-0.027923	43.0968	39.8334	0.651978
 594	1	1	-0.180376	43.1995	41.2669	2.6227
 595	1	1	-0.054224	42.9924	40.0206	2.01359
 596	1	2	0.006282	43.3653	38.3499	0.767948
 597	1	2	0.015188	43.2715	38.5566	2.33891
 598	1	3	0.034756	42.2012	37.3767	0.47068
 599	1	3	0.003059	42.6818	35.998	0.98736
 600	1	3	0.042972	42.1033	37.617	2.73438
 601	1	3	0.004163	42.6377	36.1582	2.55906
 602	1	3	-0.197219	41.1441	37.7651	1.53077
 603	1	5	0.227416	42.4103	52.1407	1.5298
 604	1	5	0.230059	40.3921	50.1412	5.69936
 605	1	6	0.034807	44.7751	50.1948	3.20726
 606	1	6	0.022109	43.7641	49.1772	5.36553
 607	1	6	0.043894	43.5694	49.0322	1.02259
 608	1	6	0.04727	45.6441	48.2283	2.61732
 609	1	6	0.039454	44.6884	47.1987	4.79738
 610	1	6	0.037752	41.9369	47.2575	4.67097
 611	1	6	0.046701	42.0442	47.0575	2.00455
 612	1	6	0.047659	41.3386	48.6273	2.45
 613	1	5	0.173906	44.8377	46.2268	-0.169852
 614	1	5	0.156928	43.2411	44.0721	4.13536
 615	1	6	0.056509	43.3496	44.8475	-1.85856
 616	1	6	0.064596	42.0586	44.0787	-0.911686
 617	1	6	0.065502	42.877	43.1682	-2.19739
 618	1	6	0.062922	46.1714	42.807	-0.331617
 619	1	6	0.049805	45.8209	44.1151	-1.47977
 620	1	6	0.059229	45.3576	42.4462	-1.86857
 621	1	5	0.166497	43.7259	40.6464	-1.2697
 622	1	5	0.141714	43.2866	41.3802	3.6985
 623	1	6	0.041341	44.3193	38.0085	0.350835
 624	1	6	0.038019	44.1739	38.3706	2.9319
 625	1	6	0.012124	41.8408	37.3732	-0.565661
 626	1	6	0.001144	43.6536	35.6607	0.603091
 627	1	6	0.009013	41.6495	37.8199	3.71248
 628	1	6	0.001345	43.5948	35.9429	3.05228
 629	1	6	0.041603	40.7552	38.7838	1.40495
 630	1	6	0.069352	40.2839	37.084	1.56821
 631	1	1	-0.425718	33.64	59.6077	13.9542
 632	1	1	0.123859	33.206	58.3431	14.4098
 633	1	1	0.123846	34.1309	57.3074	14.7316
 634	1	1	-0.442194	35.5253	57.5654	14.637
 635	1	1	0.030377	35.9218	58.8718	14.3311
 636	1	1	0.003389	35.0162	59.8487	13.987
 637	1	2	0.006267	35.9927	60.5869	13.0877
 638	1	2	0.040808	37.0408	59.4697	13.4951
 639	1	3	0.010049	35.8179	60.3877	11.556
 640	1	2	-0.044998	37.1819	60.9889	11.123
 641	1	2	-0.017344	38.2405	59.8825	11.5398
 642	1	3	0.004207	37.3687	58.7537	12.1567
 643	1	3	-0.10977	36.033	58.8581	11.3642
 644	1	1	-0.002799	37.6205	60.7223	9.69385
 645	1	1	-0.006419	38.5512	59.7693	10.0578
 646	1	1	-0.256521	36.9792	60.7129	8.44727
 647	1	1	0.004841	37.4621	59.7634	7.51877