pySIMM System Object

1154 atoms
1360 bonds
2808 angles
5304 dihedrals
108 impropers

6 atom types
11 bond types
24 angle types
21 dihedral types
1 improper types

-146.850528 146.850528 xlo xhi
-146.850528 146.850528 ylo yhi
-146.850528 146.850528 zlo zhi

Masses

   1	12.01	# ca
   2	12.01	# cy
   3	12.01	# c3
   4	12.01	# cp
   5	1.008	# ha
   6	1.008	# hc

Pair Coeffs

   1	0.086	3.3996695084235347	# ca
   2	0.086	3.3996695084235347	# cy
   3	0.1094	3.3996695084235347	# c3
   4	0.086	3.3996695084235347	# cp
   5	0.015	2.59964245953351	# ha
   6	0.0157	2.649532787749369	# hc

Bond Coeffs

   1	321.0	1.5156	# c3,ca
   2	285.0	1.5562	# cy,cy
   3	330.6	1.0969	# c3,hc
   4	333.3	1.0949	# cy,hc
   5	321.2	1.5154	# ca,cy
   6	461.1	1.3984	# ca,ca
   7	300.9	1.5375	# c3,c3
   8	305.9	1.5319	# c3,cy
   9	351.4	1.4854	# cp,cp
  10	345.8	1.086	# ca,ha
  11	450.2	1.4058	# ca,cp

Angle Coeffs

   1	62.73	112.39	# c3,c3,cy
   2	46.29	110.75	# cy,c3,hc
   3	44.83	114.79	# cy,cy,hc
   4	60.66	118.7	# c3,cy,cy
   5	66.72	118.38	# ca,cp,ca
   6	62.86	111.51	# c3,c3,c3
   7	46.43	110.14	# c3,cy,hc
   8	63.43	120.63	# c3,ca,cp
   9	63.56	112.24	# ca,c3,ca
  10	64.05	121.11	# ca,cp,cp
  11	66.62	120.02	# ca,ca,ca
  12	39.4	107.58	# hc,c3,hc
  13	47.98	119.86	# cp,ca,ha
  14	63.53	120.77	# c3,ca,ca
  15	63.51	120.86	# ca,ca,cy
  16	62.8	113.57	# c3,cy,ca
  17	67.9	96.03	# cy,c3,cy
  18	45.97	114.53	# ca,cy,hc
  19	61.4	116.81	# ca,cy,cy
  20	63.15	112.07	# c3,c3,ca
  21	66.26	120.69	# ca,ca,cp
  22	46.34	109.8	# c3,c3,hc
  23	48.18	119.88	# ca,ca,ha
  24	46.8	110.47	# ca,c3,hc

Dihedral Coeffs

   1	1	0.16	3	0.0	# cy,c3,cy,ca
   2	1	0.16	3	0.0	# c3,c3,cy,ca
   3	1	0.16	3	0.0	# hc,c3,cy,ca
   4	3	0.18	3	0.0	0.25	2	180.0	0.2	1	180.0	# cy,c3,cy,cy
   5	1	0.15	3	0	# hc,c3,c3,hc
   6	3	0.18	3	0.0	0.25	2	180.0	0.2	1	180.0	# c3,c3,cy,cy
   7	1	0.16	3	0.0	# hc,c3,cy,cy
   8	1	0.16	3	0.0	# cy,c3,cy,hc
   9	1	0.16	3	0.0	# c3,c3,cy,hc
  10	1	0.15	3	0.0	# hc,c3,cy,hc
  11	1	3.625	2	180	# X,ca,ca,X
  12	1	0.15555555555555556	3	0	# X,cy,cy,X
  13	1	3.625	2	180	# X,ca,cp,X
  14	3	0.18	3	0	0.25	2	180	0.2	1	180	# c3,c3,c3,c3
  15	1	0.15555555555555556	3	0	# X,c3,c3,X
  16	1	0.16	3	0	# hc,c3,c3,c3
  17	1	1.0	2	180	# X,cp,cp,X
  18	1	0.0	2	0.0	# ca,ca,cy,cy
  19	1	0.0	2	0.0	# ca,ca,cy,c3
  20	1	0.0	2	0	# X,c3,ca,X
  21	3	0.38	3	180.0	0.0	2	0.0	1.15	1	0.0	# ca,ca,cy,hc

Improper Coeffs

   1	1.1	-1	2	# ca,X,X,ha

Atoms

   1	1	1	-0.425718	51.2225	16.5389	43.0952
   2	1	1	0.123859	50.2415	17.1695	42.3078
   3	1	1	0.123846	48.8851	16.9589	42.4687
   4	1	1	-0.442194	48.3413	16.1089	43.4498
   5	1	1	0.030377	49.3048	15.6893	44.3892
   6	1	1	0.003389	50.6714	15.8848	44.2145
   7	1	2	0.006267	51.0548	14.7108	45.0982
   8	1	2	0.040808	49.495	14.4947	45.3071
   9	1	3	0.010049	51.5185	13.4079	44.3888
  10	1	2	-0.044998	51.4421	12.4765	45.6291
  11	1	2	-0.017344	49.8806	12.2702	45.8521
  12	1	3	0.004207	49.2283	13.09	44.7061
  13	1	3	-0.10977	50.2723	12.9903	43.5571
  14	1	1	-0.002799	51.4931	10.9794	45.3766
  15	1	1	-0.006419	50.1422	10.8032	45.576
  16	1	1	-0.256521	52.2807	10.0835	44.6407
  17	1	1	0.004841	51.6209	8.89941	44.2358
  18	1	4	0.00733	50.2289	8.72146	44.4386
  19	1	1	-0.221146	49.4314	9.71543	45.0577
  20	1	3	0.21053	52.2126	7.73653	43.4255
  21	1	4	0.0182	49.8174	7.47122	43.7842
  22	1	1	0.000377	50.964	6.87234	43.1991
  23	1	3	-0.237942	52.7968	8.22392	42.0806
  24	1	3	-0.215479	53.2854	6.98057	44.2404
  25	1	1	-0.2391	50.9046	5.60283	42.5762
  26	1	1	-0.027923	49.6182	5.05555	42.4963
  27	1	1	-0.180376	48.5471	6.83994	43.7684
  28	1	1	-0.054224	48.5076	5.64016	43.0511
  29	1	2	0.006282	48.9332	3.71824	42.2712
  30	1	2	0.015188	47.6479	4.39675	42.9123
  31	1	3	0.034756	49.2008	2.52666	43.2241
  32	1	3	0.003059	49.6933	2.98535	44.6236
  33	1	3	0.042972	47.36	3.5006	44.1417
  34	1	3	0.004163	48.438	3.64938	45.2494
  35	1	3	-0.197219	47.7531	2.12262	43.5716
  36	1	5	0.227416	52.2666	16.4682	42.808
  37	1	5	0.230059	47.325	15.7297	43.4175
  38	1	6	0.034807	51.6423	14.9768	45.9848
  39	1	6	0.022109	49.1055	14.6327	46.3227
  40	1	6	0.043894	52.4778	13.4479	43.8579
  41	1	6	0.04727	52.028	12.8186	46.4904
  42	1	6	0.039454	49.4855	12.4875	46.8517
  43	1	6	0.037752	48.1882	12.8489	44.4539
  44	1	6	0.046701	50.3551	11.9782	43.1405
  45	1	6	0.047659	50.0623	13.6806	42.7328
  46	1	5	0.173906	53.3055	10.3061	44.361
  47	1	5	0.156928	48.3477	9.66474	45.0772
  48	1	6	0.056509	53.1366	7.37687	41.472
  49	1	6	0.064596	53.6503	8.89363	42.2408
  50	1	6	0.065502	52.0376	8.77067	41.5069
  51	1	6	0.062922	54.1355	7.63525	44.4684
  52	1	6	0.049805	53.662	6.11229	43.6859
  53	1	6	0.059229	52.8676	6.62329	45.1901
  54	1	5	0.166497	51.7866	5.08024	42.219
  55	1	5	0.141714	47.6889	7.23316	44.3036
  56	1	6	0.041341	48.8158	3.4002	41.2295
  57	1	6	0.038019	46.7846	4.47402	42.2422
  58	1	6	0.012124	49.8048	1.72128	42.7875
  59	1	6	0.001144	50.5498	3.66797	44.5735
  60	1	6	0.009013	46.331	3.56076	44.5181
  61	1	6	0.001345	48.6137	4.69199	45.5391
  62	1	6	0.041603	47.1633	1.84187	42.6878
  63	1	6	0.069352	47.698	1.31733	44.3177
  64	1	1	-0.425718	43.1221	29.3058	38.1884
  65	1	1	0.123859	42.0277	29.4083	37.3108
  66	1	1	0.123846	41.0666	28.4277	37.1611
  67	1	1	-0.442194	41.0657	27.2172	37.8791
  68	1	1	0.030377	42.0207	27.2222	38.9157
  69	1	1	0.003389	42.9935	28.2048	39.0563
  70	1	2	0.006267	43.9083	27.3256	39.8871
  71	1	2	0.040808	42.7916	26.2028	39.7352
  72	1	3	0.010049	45.1487	26.7154	39.1781
  73	1	2	-0.044998	45.5095	25.6959	40.291
  74	1	2	-0.017344	44.3851	24.5703	40.1542
  75	1	3	0.004207	43.5119	25.0626	38.9677
  76	1	3	-0.10977	44.5252	25.8243	38.0656
  77	1	1	-0.002799	46.4926	24.5952	39.9404
  78	1	1	-0.006419	45.5283	23.63	39.8305
  79	1	1	-0.256521	47.8409	24.3908	39.6287
  80	1	1	0.004841	48.1508	23.0616	39.2497
  81	1	4	0.00733	47.1504	22.0571	39.1448
  82	1	1	-0.221146	45.7804	22.3235	39.4055
  83	1	3	0.21053	49.5369	22.4945	38.9132
  84	1	4	0.0182	47.7962	20.7975	38.7479
  85	1	1	0.000377	49.1892	21.03	38.6104
  86	1	3	-0.237942	50.1491	23.1908	37.6779
  87	1	3	-0.215479	50.488	22.6063	40.1264
  88	1	1	-0.2391	50.0985	19.9714	38.38
  89	1	1	-0.027923	49.5076	18.7137	38.2011
  90	1	1	-0.180376	47.245	19.4935	38.6782
  91	1	1	-0.054224	48.1586	18.4871	38.3467
  92	1	2	0.006282	49.8799	17.2499	38.3728
  93	1	2	0.015188	48.3199	16.9907	38.5495
  94	1	3	0.034756	50.4712	16.7379	39.7114
  95	1	3	0.003059	50.0949	17.6863	40.8885
  96	1	3	0.042972	48.2277	16.3754	39.9708
  97	1	3	0.004163	48.5418	17.4384	41.0686
  98	1	3	-0.197219	49.5265	15.5371	39.9483
  99	1	5	0.227416	43.9981	29.9446	38.1401
 100	1	5	0.230059	40.4644	26.3549	37.6097
 101	1	6	0.034807	44.1029	27.6992	40.8994
 102	1	6	0.022109	42.2843	25.8796	40.6519
 103	1	6	0.043894	45.9374	27.4134	38.871
 104	1	6	0.04727	45.659	26.142	41.2814
 105	1	6	0.039454	43.8191	24.3082	41.056
 106	1	6	0.037752	42.8746	24.3161	38.4778
 107	1	6	0.046701	45.2584	25.1581	37.5927
 108	1	6	0.047659	44.0355	26.41	37.2773
 109	1	5	0.173906	48.5842	25.1797	39.6858
 110	1	5	0.156928	44.9998	21.5784	39.2929
 111	1	6	0.056509	51.1051	22.7287	37.4024
 112	1	6	0.064596	50.3272	24.2548	37.8755
 113	1	6	0.065502	49.4732	23.1127	36.817
 114	1	6	0.062922	50.0538	22.1082	41.0027
 115	1	6	0.049805	50.6689	23.6561	40.3879
 116	1	6	0.059229	51.4559	22.1367	39.9136
 117	1	5	0.166497	51.1749	20.1079	38.4147
 118	1	5	0.141714	46.2137	19.2822	38.9418
 119	1	6	0.041341	50.3321	16.7588	37.5041
 120	1	6	0.038019	47.871	16.3453	37.7865
 121	1	6	0.012124	51.5363	16.4772	39.6745
 122	1	6	0.001144	50.379	18.7393	40.7772
 123	1	6	0.009013	47.3165	15.7949	40.1622
 124	1	6	0.001345	47.9302	18.3484	41.0558
 125	1	6	0.041603	49.5485	14.811	39.1234
 126	1	6	0.069352	49.721	14.9991	40.8831
 127	1	1	-0.425718	28.9865	35.8419	35.7399
 128	1	1	0.123859	27.8283	35.6406	34.9689
 129	1	1	0.123846	27.6108	34.5218	34.182
 130	1	1	-0.442194	28.5166	33.4439	34.1222
 131	1	1	0.030377	29.7586	33.7433	34.7174
 132	1	1	0.003389	29.9871	34.8929	35.4655
 133	1	2	0.006267	31.1369	34.2843	36.2401
 134	1	2	0.040808	30.8653	32.9594	35.4077
 135	1	3	0.010049	32.5645	34.7147	35.8035
 136	1	2	-0.044998	33.3308	33.6423	36.616
 137	1	2	-0.017344	33.0544	32.2856	35.8243
 138	1	3	0.004207	32.183	32.7413	34.6175
 139	1	3	-0.10977	32.6719	34.1926	34.3421
 140	1	1	-0.002799	34.7907	33.418	36.2714
 141	1	1	-0.006419	34.5562	32.2366	35.6163
 142	1	1	-0.256521	35.9952	34.125	36.1809
 143	1	1	0.004841	37.0192	33.4463	35.4774
 144	1	4	0.00733	36.7944	32.191	34.8528
 145	1	1	-0.221146	35.5173	31.5714	34.8493
 146	1	3	0.21053	38.4563	33.9289	35.2401
 147	1	4	0.0182	38.0527	31.7483	34.2329
 148	1	1	0.000377	39.0354	32.7478	34.4486
 149	1	3	-0.237942	38.4826	35.2251	34.4008
 150	1	3	-0.215479	39.2021	34.1326	36.5787
 151	1	1	-0.2391	40.3953	32.5321	34.128
 152	1	1	-0.027923	40.6791	31.3014	33.5207
 153	1	1	-0.180376	38.3926	30.4688	33.7275
 154	1	1	-0.054224	39.7308	30.3172	33.3444
 155	1	2	0.006282	41.8482	30.3294	33.473
 156	1	2	0.015188	40.7528	29.1935	33.286
 157	1	3	0.034756	42.5758	29.9051	34.7755
 158	1	3	0.003059	41.6599	30.1093	36.0183
 159	1	3	0.042972	40.9901	28.2778	34.5178
 160	1	3	0.004163	40.5597	28.983	35.8414
 161	1	3	-0.197219	42.5322	28.3702	34.5901
 162	1	5	0.227416	29.0404	36.5496	36.5609
 163	1	5	0.230059	28.2345	32.4485	33.7946
 164	1	6	0.034807	30.9914	34.2586	37.3266
 165	1	6	0.022109	30.5232	32.0671	35.9451
 166	1	6	0.043894	32.8429	35.7613	35.9793
 167	1	6	0.04727	33.1122	33.6468	37.6906
 168	1	6	0.039454	32.6392	31.4465	36.3951
 169	1	6	0.037752	32.1355	32.0635	33.7561
 170	1	6	0.046701	33.6967	34.2294	33.9502
 171	1	6	0.047659	32.0203	34.7378	33.6469
 172	1	5	0.173906	36.1278	35.1145	36.607
 173	1	5	0.156928	35.3014	30.6674	34.2892
 174	1	6	0.056509	38.0082	36.0531	34.9414
 175	1	6	0.064596	37.9434	35.0825	33.4556
 176	1	6	0.065502	39.5131	35.5158	34.1629
 177	1	6	0.062922	39.2012	33.2047	37.1649
 178	1	6	0.049805	38.7223	34.9147	37.1797
 179	1	6	0.059229	40.2448	34.4266	36.4088
 180	1	5	0.166497	41.1788	33.2195	34.4316
 181	1	5	0.141714	37.6966	29.6364	33.7482
 182	1	6	0.041341	42.5396	30.4442	32.631
 183	1	6	0.038019	40.8172	28.6433	32.3407
 184	1	6	0.012124	43.5848	30.3193	34.895
 185	1	6	0.001144	41.2631	31.1183	36.176
 186	1	6	0.009013	40.6018	27.257	34.4132
 187	1	6	0.001345	39.5258	29.3441	35.8895
 188	1	6	0.041603	43.0198	28.0419	33.6615
 189	1	6	0.069352	42.9716	27.809	35.4251
 190	1	1	-0.425718	16.3351	27.9275	40.9573
 191	1	1	0.123859	15.0889	27.5169	40.4495
 192	1	1	0.123846	14.7928	27.4671	39.0954
 193	1	1	-0.442194	15.7528	27.7359	38.101
 194	1	1	0.030377	16.9181	28.3374	38.6104
 195	1	1	0.003389	17.1775	28.4706	39.97
 196	1	2	0.006267	18.6776	28.5554	39.7755
 197	1	2	0.040808	18.3897	28.3525	38.2285
 198	1	3	0.010049	19.3009	29.9788	39.8492
 199	1	2	-0.044998	20.6985	29.5954	39.3028
 200	1	2	-0.017344	20.4484	29.3242	37.7563
 201	1	3	0.004207	18.9355	29.6436	37.5704
 202	1	3	-0.10977	18.6515	30.7277	38.6496
 203	1	1	-0.002799	21.604	30.7278	38.8499
 204	1	1	-0.006419	21.4189	30.4616	37.5111
 205	1	1	-0.256521	21.9743	31.995	39.3236
 206	1	1	0.004841	22.3321	32.9305	38.3243
 207	1	4	0.00733	22.2082	32.6253	36.9465
 208	1	1	-0.221146	21.6568	31.3995	36.5018
 209	1	3	0.21053	22.7443	34.3967	38.5248
 210	1	4	0.0182	22.566	33.8179	36.1686
 211	1	1	0.000377	22.8676	34.8711	37.0687
 212	1	3	-0.237942	21.6524	35.1902	39.2764
 213	1	3	-0.215479	24.096	34.4953	39.2662
 214	1	1	-0.2391	23.3539	36.1201	36.6136
 215	1	1	-0.027923	23.4385	36.2508	35.2198
 216	1	1	-0.180376	22.7928	33.9363	34.7758
 217	1	1	-0.054224	23.1982	35.2068	34.3566
 218	1	2	0.006282	24.2332	37.0506	34.1958
 219	1	2	0.015188	23.9877	35.8205	33.2173
 220	1	3	0.034756	25.7785	37.1337	34.2725
 221	1	3	0.003059	26.3524	35.9549	35.1049
 222	1	3	0.042972	25.4287	35.3275	32.9147
 223	1	3	0.004163	26.0999	34.6983	34.1796
 224	1	3	-0.197219	26.1268	36.7047	32.8273
 225	1	5	0.227416	16.6728	27.6886	41.9607
 226	1	5	0.230059	15.6739	27.3573	37.0869
 227	1	6	0.034807	19.253	27.7875	40.306
 228	1	6	0.022109	18.7437	27.4325	37.7484
 229	1	6	0.043894	19.2725	30.4833	40.823
 230	1	6	0.04727	21.2043	28.8062	39.8716
 231	1	6	0.039454	20.764	28.3509	37.3618
 232	1	6	0.037752	18.5946	29.8589	36.5501
 233	1	6	0.046701	19.138	31.6863	38.428
 234	1	6	0.047659	17.5799	30.9161	38.7951
 235	1	5	0.173906	21.93	32.2557	40.3762
 236	1	5	0.156928	21.3778	31.2276	35.4673
 237	1	6	0.056509	21.5234	34.8122	40.2979
 238	1	6	0.064596	20.6889	35.1048	38.7579
 239	1	6	0.065502	21.9128	36.2541	39.3354
 240	1	6	0.062922	24.4162	35.5396	39.3636
 241	1	6	0.049805	24.8762	33.9497	38.72
 242	1	6	0.059229	24.0219	34.0651	40.2724
 243	1	5	0.166497	23.7108	36.8892	37.2914
 244	1	5	0.141714	22.7391	33.0869	34.1024
 245	1	6	0.041341	23.7848	37.9945	33.8671
 246	1	6	0.038019	23.4269	36.059	32.3068
 247	1	6	0.012124	26.1733	38.1154	34.5627
 248	1	6	0.001144	25.9787	35.8517	36.1303
 249	1	6	0.009013	25.5229	34.7132	32.0105
 250	1	6	0.001345	25.5569	33.8778	34.6643
 251	1	6	0.041603	25.6743	37.3617	32.0711
 252	1	6	0.069352	27.2047	36.6442	32.6269
 253	1	1	-0.425718	14.6617	13.8124	35.1085
 254	1	1	0.123859	13.7068	13.1978	34.2751
 255	1	1	0.123846	12.8354	13.8965	33.4574
 256	1	1	-0.442194	12.8234	15.2987	33.3467
 257	1	1	0.030377	13.6344	15.9061	34.3216
 258	1	1	0.003389	14.4899	15.2086	35.1629
 259	1	2	0.006267	15.3218	16.434	35.4991
 260	1	2	0.040808	14.3486	17.2273	34.5218
 261	1	3	0.010049	15.0652	17.0897	36.8854
 262	1	2	-0.044998	15.8197	18.4199	36.6141
 263	1	2	-0.017344	14.8571	19.2028	35.6183
 264	1	3	0.004207	13.6436	18.2523	35.4446
 265	1	3	-0.10977	13.5687	17.5104	36.811
 266	1	1	-0.002799	15.5733	19.5686	37.5787
 267	1	1	-0.006419	14.7454	20.2439	36.711
 268	1	1	-0.256521	15.5656	19.7795	38.965
 269	1	1	0.004841	14.7399	20.8426	39.4021
 270	1	4	0.00733	13.8772	21.5228	38.5075
 271	1	1	-0.221146	13.8076	21.1908	37.1328
 272	1	3	0.21053	14.5477	21.3503	40.8394
 273	1	4	0.0182	13.0762	22.4865	39.2714
 274	1	1	0.000377	13.4641	22.4203	40.6326
 275	1	3	-0.237942	14.0487	20.2276	41.7753
 276	1	3	-0.215479	15.8547	21.9705	41.3826
 277	1	1	-0.2391	13.0069	23.3702	41.577
 278	1	1	-0.027923	12.0736	24.298	41.0898
 279	1	1	-0.180376	12.2088	23.4936	38.788
 280	1	1	-0.054224	11.6943	24.3508	39.7654
 281	1	2	0.006282	11.678	25.7447	41.3693
 282	1	2	0.015188	11.2758	25.8046	39.8335
 283	1	3	0.034756	12.7471	26.8657	41.4891
 284	1	3	0.003059	14.0777	26.442	40.8083
 285	1	3	0.042972	12.2173	26.8979	39.2664
 286	1	3	0.004163	13.7079	26.4237	39.2741
 287	1	3	-0.197219	12.1771	27.8746	40.4642
 288	1	5	0.227416	15.5003	13.2869	35.554
 289	1	5	0.230059	12.348	15.8357	32.5322
 290	1	6	0.034807	16.3825	16.3587	35.2323
 291	1	6	0.022109	14.7673	17.6644	33.6075
 292	1	6	0.043894	15.3747	16.5169	37.7685
 293	1	6	0.04727	16.8632	18.2939	36.3019
 294	1	6	0.039454	15.2942	19.5644	34.6798
 295	1	6	0.037752	12.7138	18.6978	35.0696
 296	1	6	0.046701	13.2683	18.1672	37.6376
 297	1	6	0.047659	12.8848	16.6519	36.7942
 298	1	5	0.173906	16.1224	19.1508	39.6525
 299	1	5	0.156928	13.0551	21.6035	36.4689
 300	1	6	0.056509	14.8023	19.4375	41.8789
 301	1	6	0.064596	13.1318	19.7742	41.378
 302	1	6	0.065502	13.8268	20.6225	42.7743
 303	1	6	0.062922	16.1944	22.7849	40.7299
 304	1	6	0.049805	16.653	21.2197	41.432
 305	1	6	0.059229	15.7087	22.3799	42.3894
 306	1	5	0.166497	13.422	23.4392	42.5776
 307	1	5	0.141714	12.0529	23.6623	37.7273
 308	1	6	0.041341	10.8465	25.8915	42.0673
 309	1	6	0.038019	10.2189	26.0193	39.64
 310	1	6	0.012124	12.8772	27.2718	42.5001
 311	1	6	0.001144	14.5398	25.5187	41.177
 312	1	6	0.009013	11.8935	27.3332	38.3128
 313	1	6	0.001345	13.9297	25.4817	38.7605
 314	1	6	0.041603	11.1566	28.1983	40.7132
 315	1	6	0.069352	12.797	28.7704	40.3268
 316	1	1	-0.425718	16.453	9.06494	20.7679
 317	1	1	0.123859	15.4427	8.39611	20.0542
 318	1	1	0.123846	14.1272	8.81529	20.009
 319	1	1	-0.442194	13.6598	9.96192	20.6778
 320	1	1	0.030377	14.7112	10.7562	21.1809
 321	1	1	0.003389	16.0357	10.3298	21.2248
 322	1	2	0.006267	16.3998	11.2456	22.3797
 323	1	2	0.040808	14.8897	11.7344	22.3281
 324	1	3	0.010049	16.5351	10.5946	23.7836
 325	1	2	-0.044998	16.5437	11.9116	24.6071
 326	1	2	-0.017344	15.0331	12.402	24.5479
 327	1	3	0.004207	14.3161	11.3132	23.7063
 328	1	3	-0.10977	15.1133	10.021	24.0465
 329	1	1	-0.002799	16.332	11.7871	26.1058
 330	1	1	-0.006419	15.0212	12.2105	26.051
 331	1	1	-0.256521	16.8345	10.9868	27.1415
 332	1	1	0.004841	15.9378	10.7523	28.2091
 333	1	4	0.00733	14.5856	11.1686	28.1409
 334	1	1	-0.221146	14.071	11.8562	27.0151
 335	1	3	0.21053	16.1974	9.93056	29.48
 336	1	4	0.0182	13.8752	10.6397	29.3126
 337	1	1	0.000377	14.7989	9.92133	30.1129
 338	1	3	-0.237942	16.6669	8.49696	29.1474
 339	1	3	-0.215479	17.2219	10.64	30.3935
 340	1	1	-0.2391	14.4425	9.42126	31.3868
 341	1	1	-0.027923	13.096	9.59346	31.735
 342	1	1	-0.180376	12.5478	10.8875	29.7395
 343	1	1	-0.054224	12.1983	10.2847	30.9526
 344	1	2	0.006282	12.2686	9.74256	33.0029
 345	1	2	0.015188	11.2399	10.5502	32.0982
 346	1	3	0.034756	12.6638	10.7779	34.0895
 347	1	3	0.003059	13.558	11.9048	33.4928
 348	1	3	0.042972	11.2038	11.9454	32.7715
 349	1	3	0.004163	12.552	12.7035	32.5678
 350	1	3	-0.197219	11.3032	11.4973	34.2485
 351	1	5	0.227416	17.401	8.6087	21.0341
 352	1	5	0.230059	12.6107	10.1501	20.8821
 353	1	6	0.034807	17.1717	11.9896	22.1502
 354	1	6	0.022109	14.7158	12.785	22.0667
 355	1	6	0.043894	17.3803	9.91122	23.9332
 356	1	6	0.04727	17.3148	12.6311	24.307
 357	1	6	0.039454	14.8539	13.4305	24.2125
 358	1	6	0.037752	13.2238	11.2596	23.7922
 359	1	6	0.046701	14.9702	9.68864	25.0826
 360	1	6	0.047659	14.8656	9.18349	23.3855
 361	1	5	0.173906	17.8208	10.536	27.0992
 362	1	5	0.156928	13.0095	12.0347	26.8783
 363	1	6	0.056509	16.7568	7.89413	30.0595
 364	1	6	0.064596	17.6432	8.50833	28.6479
 365	1	6	0.065502	15.9488	8.00115	28.482
 366	1	6	0.062922	17.3725	10.0814	31.3252
 367	1	6	0.049805	16.8736	11.6478	30.6541
 368	1	6	0.059229	18.1924	10.736	29.8915
 369	1	5	0.166497	15.1721	9.00754	32.0758
 370	1	5	0.141714	11.8852	11.5672	29.2133
 371	1	6	0.041341	11.8718	8.81746	33.4353
 372	1	6	0.038019	10.2444	10.1001	32.016
 373	1	6	0.012124	13.0579	10.3436	35.0167
 374	1	6	0.001144	14.4813	11.5855	32.9952
 375	1	6	0.009013	10.3163	12.5465	32.5372
 376	1	6	0.001345	12.8895	12.8413	31.5341
 377	1	6	0.041603	10.4939	10.8121	34.5377
 378	1	6	0.069352	11.3198	12.329	34.9652
 379	1	1	-0.425718	11.6207	1.82632	8.21414
 380	1	1	0.123859	10.8647	0.645231	8.24722
 381	1	1	0.123846	9.57003	0.555108	8.72445
 382	1	1	-0.442194	8.95239	1.63818	9.38891
 383	1	1	0.030377	9.62971	2.86465	9.19617
 384	1	1	0.003389	10.8699	2.95988	8.56967
 385	1	2	0.006267	11.2142	4.27598	9.22647
 386	1	2	0.040808	9.8238	4.16269	9.9813
 387	1	3	0.010049	12.2776	4.21205	10.3459
 388	1	2	-0.044998	12.0504	5.64327	10.8857
 389	1	2	-0.017344	10.683	5.54725	11.6849
 390	1	3	0.004207	10.2458	4.06356	11.4808
 391	1	3	-0.10977	11.6058	3.3114	11.4209
 392	1	1	-0.002799	12.7063	5.94493	12.2122
 393	1	1	-0.006419	11.5204	5.87729	12.9181
 394	1	1	-0.256521	13.944	5.61162	12.776
 395	1	1	0.004841	13.9379	5.38034	14.1664
 396	1	4	0.00733	12.7364	5.39405	14.9152
 397	1	1	-0.221146	11.4757	5.55222	14.2827
 398	1	3	0.21053	15.124	4.91667	15.0198
 399	1	4	0.0182	13.0549	5.00579	16.2999
 400	1	1	0.000377	14.4363	4.69079	16.3697
 401	1	3	-0.237942	15.7344	3.60306	14.4816
 402	1	3	-0.215479	16.202	6.01973	15.1138
 403	1	1	-0.2391	15.0706	4.37592	17.5916
 404	1	1	-0.027923	14.2273	4.34894	18.7085
 405	1	1	-0.180376	12.2602	5.10669	17.47
 406	1	1	-0.054224	12.9047	4.72964	18.6558
 407	1	2	0.006282	14.3523	4.60462	20.1997
 408	1	2	0.015188	12.8317	5.06536	20.1379
 409	1	3	0.034756	15.0883	5.86585	20.716
 410	1	3	0.003059	15.1114	6.98105	19.6283
 411	1	3	0.042972	12.9047	6.53987	20.6243
 412	1	3	0.004163	13.6022	7.45612	19.5707
 413	1	3	-0.197219	14.0097	6.38413	21.6945
 414	1	5	0.227416	12.6974	1.83925	8.07933
 415	1	5	0.230059	8.12959	1.5136	10.0855
 416	1	6	0.034807	11.3386	5.11254	8.52861
 417	1	6	0.022109	9.08507	4.94595	9.77519
 418	1	6	0.043894	13.2997	3.95052	10.045
 419	1	6	0.04727	12.1412	6.43849	10.1361
 420	1	6	0.039454	9.90934	6.28276	11.4354
 421	1	6	0.037752	9.49675	3.66982	12.179
 422	1	6	0.046701	12.1397	3.31145	12.3796
 423	1	6	0.047659	11.5047	2.27309	11.0937
 424	1	5	0.173906	14.8281	5.44973	12.1675
 425	1	5	0.156928	10.5438	5.343	14.7978
 426	1	6	0.056509	14.9648	2.82501	14.4
 427	1	6	0.064596	16.52	3.23409	15.1524
 428	1	6	0.065502	16.1755	3.75122	13.4886
 429	1	6	0.062922	15.7698	6.94759	15.51
 430	1	6	0.049805	16.6263	6.23766	14.126
 431	1	6	0.059229	17.0205	5.71593	15.7775
 432	1	5	0.166497	16.1474	4.26824	17.6769
 433	1	5	0.141714	11.264	5.53731	17.4583
 434	1	6	0.041341	14.5425	3.72713	20.8275
 435	1	6	0.038019	12.1438	4.46199	20.7404
 436	1	6	0.012124	16.0654	5.6731	21.1763
 437	1	6	0.001144	15.5473	6.71584	18.6591
 438	1	6	0.009013	11.9592	6.94445	21.0067
 439	1	6	0.001345	13.1652	7.45813	18.565
 440	1	6	0.041603	13.7502	5.64798	22.4684
 441	1	6	0.069352	14.2787	7.32308	22.1914
 442	1	1	-0.425718	9.77773	-13.2784	2.77644
 443	1	1	0.123859	9.10865	-14.4777	3.07401
 444	1	1	0.123846	7.78243	-14.4772	3.49695
 445	1	1	-0.442194	7.08675	-13.2998	3.84531
 446	1	1	0.030377	7.88454	-12.1368	3.87656
 447	1	1	0.003389	9.13257	-12.1301	3.25983
 448	1	2	0.006267	8.95042	-10.7359	2.69422
 449	1	2	0.040808	7.59455	-10.6877	3.50679
 450	1	3	0.010049	9.81233	-9.61759	3.30096
 451	1	2	-0.044998	8.98335	-8.43457	2.71912
 452	1	2	-0.017344	7.7214	-8.34774	3.67459
 453	1	3	0.004207	7.87591	-9.59201	4.59216
 454	1	3	-0.10977	9.41494	-9.66345	4.80405
 455	1	1	-0.002799	9.36268	-7.0761	3.24131
 456	1	1	-0.006419	8.30892	-7.00913	4.13267
 457	1	1	-0.256521	10.5941	-6.45806	3.45144
 458	1	1	0.004841	10.6777	-5.64782	4.59634
 459	1	4	0.00733	9.61643	-5.56506	5.53456
 460	1	1	-0.221146	8.41983	-6.31414	5.35253
 461	1	3	0.21053	11.9501	-4.97427	5.10509
 462	1	4	0.0182	10.1288	-4.85788	6.73014
 463	1	1	0.000377	11.5	-4.55684	6.5011
 464	1	3	-0.237942	13.1384	-5.96177	5.17097
 465	1	3	-0.215479	12.3085	-3.74599	4.23933
 466	1	1	-0.2391	12.3046	-3.91578	7.4632
 467	1	1	-0.027923	11.6574	-3.6625	8.67015
 468	1	1	-0.180376	9.47368	-4.46217	7.93281
 469	1	1	-0.054224	10.3196	-3.87365	8.88744
 470	1	2	0.006282	11.8395	-2.80475	9.89208
 471	1	2	0.015188	10.2946	-3.06476	10.1878
 472	1	3	0.034756	11.9219	-1.27585	9.70627
 473	1	3	0.003059	11.1468	-0.828519	8.41808
 474	1	3	0.042972	9.73118	-1.6142	10.2646
 475	1	3	0.004163	9.63532	-0.967205	8.85758
 476	1	3	-0.197219	10.9607	-0.884454	10.8511
 477	1	5	0.227416	10.5735	-13.2299	2.03987
 478	1	5	0.230059	6.00245	-13.2538	3.85551
 479	1	6	0.034807	8.90272	-10.7034	1.5992
 480	1	6	0.022109	6.66269	-10.5303	2.95095
 481	1	6	0.043894	10.8842	-9.64098	3.06792
 482	1	6	0.04727	8.79507	-8.4793	1.63959
 483	1	6	0.039454	6.73909	-8.27522	3.19301
 484	1	6	0.037752	7.25293	-9.6158	5.49498
 485	1	6	0.046701	9.8121	-8.81506	5.37551
 486	1	6	0.047659	9.73246	-10.5869	5.30526
 487	1	5	0.173906	11.4595	-6.68128	2.83587
 488	1	5	0.156928	7.69509	-6.43545	6.15113
 489	1	6	0.056509	14.0087	-5.49684	5.64955
 490	1	6	0.064596	13.4388	-6.28653	4.1677
 491	1	6	0.065502	12.8665	-6.85261	5.75136
 492	1	6	0.062922	11.4678	-3.0413	4.20309
 493	1	6	0.049805	12.5424	-4.04713	3.21068
 494	1	6	0.059229	13.1777	-3.21664	4.64798
 495	1	5	0.166497	13.3313	-3.61861	7.27379
 496	1	5	0.141714	8.40775	-4.59137	8.09101
 497	1	6	0.041341	12.5316	-3.17731	10.6555
 498	1	6	0.038019	10.0927	-3.63188	11.1032
 499	1	6	0.012124	12.9319	-0.855619	9.79153
 500	1	6	0.001144	11.4036	-1.33364	7.47947
 501	1	6	0.009013	8.81764	-1.50662	10.8626
 502	1	6	0.001345	9.00993	-1.50414	8.13283
 503	1	6	0.041603	11.269	-1.28978	11.8253
 504	1	6	0.069352	10.8187	0.194302	10.9625
 505	1	1	-0.425718	5.88147	-24.2601	-7.92145
 506	1	1	0.123859	5.08534	-23.6172	-8.88477
 507	1	1	0.123846	3.95077	-22.8873	-8.54561
 508	1	1	-0.442194	3.53945	-22.723	-7.21101
 509	1	1	0.030377	4.23202	-23.5058	-6.26783
 510	1	1	0.003389	5.35931	-24.259	-6.61446
 511	1	2	0.006267	6.0892	-23.9227	-5.33016
 512	1	2	0.040808	4.82614	-23.0627	-4.94238
 513	1	3	0.010049	6.16713	-24.9962	-4.20918
 514	1	2	-0.044998	6.70425	-24.0289	-3.12272
 515	1	2	-0.017344	5.45832	-23.1564	-2.73019
 516	1	3	0.004207	4.31785	-23.7159	-3.6265
 517	1	3	-0.10977	4.68674	-25.2133	-3.79818
 518	1	1	-0.002799	6.73921	-24.4795	-1.67532
 519	1	1	-0.006419	5.64119	-23.691	-1.31979
 520	1	1	-0.256521	7.90557	-24.5147	-0.897931
 521	1	1	0.004841	7.95253	-23.6819	0.237505
 522	1	4	0.00733	6.84112	-22.8983	0.617544
 523	1	1	-0.221146	5.66129	-22.8929	-0.163872
 524	1	3	0.21053	9.23619	-23.1834	0.916942
 525	1	4	0.0182	7.31556	-21.8119	1.49821
 526	1	1	0.000377	8.72588	-21.8919	1.57003
 527	1	3	-0.237942	9.72174	-24.1834	1.98751
 528	1	3	-0.215479	10.3653	-22.9085	-0.108916
 529	1	1	-0.2391	9.49553	-20.7508	1.88626
 530	1	1	-0.027923	8.78556	-19.6112	2.28622
 531	1	1	-0.180376	6.62541	-20.6307	1.8694
 532	1	1	-0.054224	7.40104	-19.5711	2.36309
 533	1	2	0.006282	8.89331	-18.1534	1.86143
 534	1	2	0.015188	7.32942	-18.0861	2.06254
 535	1	3	0.034756	9.41582	-17.0927	2.84549
 536	1	3	0.003059	8.94754	-15.7295	2.24478
 537	1	3	0.042972	7.17692	-17.0794	3.24159
 538	1	3	0.004163	7.41839	-15.6769	2.6245
 539	1	3	-0.197219	8.47416	-17.285	4.05506
 540	1	5	0.227416	6.93261	-24.4577	-8.10714
 541	1	5	0.230059	2.96606	-21.853	-6.90705
 542	1	6	0.034807	7.03721	-23.3982	-5.50051
 543	1	6	0.022109	4.94687	-21.9751	-4.86803
 544	1	6	0.043894	6.76579	-25.8918	-4.41797
 545	1	6	0.04727	7.62038	-23.5065	-3.42466
 546	1	6	0.039454	5.55878	-22.0657	-2.78969
 547	1	6	0.037752	3.28861	-23.4859	-3.32392
 548	1	6	0.046701	4.58538	-25.7833	-2.86539
 549	1	6	0.047659	4.09789	-25.7079	-4.58187
 550	1	5	0.173906	8.81636	-24.9338	-1.31199
 551	1	5	0.156928	4.94126	-22.0897	-0.0494806
 552	1	6	0.056509	10.5895	-23.7849	2.52777
 553	1	6	0.064596	10.0078	-25.1384	1.53013
 554	1	6	0.065502	8.92831	-24.3813	2.71945
 555	1	6	0.062922	10.6901	-23.834	-0.598668
 556	1	6	0.049805	11.2463	-22.4732	0.37705
 557	1	6	0.059229	10.022	-22.2126	-0.884993
 558	1	5	0.166497	10.5606	-20.7055	1.68397
 559	1	5	0.141714	5.5815	-20.4854	1.61205
 560	1	6	0.041341	9.28248	-17.9983	0.848683
 561	1	6	0.038019	6.719	-17.8098	1.19524
 562	1	6	0.012124	10.4873	-17.1512	3.07461
 563	1	6	0.001144	9.14617	-15.5902	1.17362
 564	1	6	0.009013	6.24859	-17.1643	3.82001
 565	1	6	0.001345	6.76979	-15.4259	1.7747
 566	1	6	0.041603	8.54517	-18.2807	4.51159
 567	1	6	0.069352	8.62242	-16.5406	4.84819
 568	1	1	-0.425718	-4.04273	-26.4895	-19.6917
 569	1	1	0.123859	-5.15749	-26.9541	-18.9495
 570	1	1	0.123846	-5.90115	-26.0904	-18.0816
 571	1	1	-0.442194	-5.48784	-24.7446	-17.8903
 572	1	1	0.030377	-4.41335	-24.3223	-18.671
 573	1	1	0.003389	-3.75794	-25.1312	-19.549
 574	1	2	0.006267	-2.71395	-24.0888	-19.9036
 575	1	2	0.040808	-3.46457	-23.1528	-18.851
 576	1	3	0.010049	-1.29789	-24.2626	-19.3044
 577	1	2	-0.044998	-0.795029	-22.8254	-19.6172
 578	1	2	-0.017344	-1.51582	-21.9209	-18.5245
 579	1	3	0.004207	-2.39974	-22.9254	-17.7385
 580	1	3	-0.10977	-1.55702	-24.2331	-17.77
 581	1	1	-0.002799	0.500563	-22.4086	-18.9582
 582	1	1	-0.006419	-0.116784	-21.6435	-17.9951
 583	1	1	-0.256521	1.78925	-22.9322	-18.8208
 584	1	1	0.004841	2.48298	-22.5083	-17.6671
 585	1	4	0.00733	1.85231	-21.7299	-16.6625
 586	1	1	-0.221146	0.492652	-21.3345	-16.7711
 587	1	3	0.21053	3.89656	-22.9255	-17.2485
 588	1	4	0.0182	2.7883	-21.5942	-15.5328
 589	1	1	0.000377	3.98283	-22.2915	-15.8568
 590	1	3	-0.237942	4.0359	-24.4634	-17.1804
 591	1	3	-0.215479	4.95501	-22.3243	-18.1991
 592	1	1	-0.2391	5.03652	-22.4404	-14.9267
 593	1	1	-0.027923	4.85631	-21.7418	-13.7296
 594	1	1	-0.180376	2.59115	-21.0052	-14.2564
 595	1	1	-0.054224	3.70728	-21.0585	-13.4133
 596	1	2	0.006282	5.36803	-21.7664	-12.3036
 597	1	2	0.015188	4.04382	-20.9642	-11.9355
 598	1	3	0.034756	5.2211	-23.0726	-11.483
 599	1	3	0.003059	5.47405	-22.6671	-10.0058
 600	1	3	0.042972	3.33566	-21.9127	-10.9384
 601	1	3	0.004163	4.17928	-21.8517	-9.63293
 602	1	3	-0.197219	3.69338	-23.3121	-11.4909
 603	1	5	0.227416	-3.46138	-27.141	-20.3365
 604	1	5	0.230059	-5.98918	-24.0721	-17.2009
 605	1	6	0.034807	-2.72433	-23.7718	-20.9532
 606	1	6	0.022109	-3.92839	-22.2346	-19.2305
 607	1	6	0.043894	-0.696262	-25.0947	-19.6906
 608	1	6	0.04727	-0.896465	-22.5199	-20.6654
 609	1	6	0.039454	-2.05284	-21.0358	-18.8861
 610	1	6	0.037752	-2.76889	-22.5976	-16.7587
 611	1	6	0.046701	-0.63223	-24.1591	-17.1833
 612	1	6	0.047659	-2.11696	-25.1081	-17.415
 613	1	5	0.173906	2.20239	-23.6505	-19.5217
 614	1	5	0.156928	-0.0484577	-20.8761	-15.9497
 615	1	6	0.056509	3.89466	-24.9153	-18.1697
 616	1	6	0.064596	3.28549	-24.8881	-16.5015
 617	1	6	0.065502	5.02848	-24.7522	-16.8144
 618	1	6	0.062922	4.85075	-21.2329	-18.25
 619	1	6	0.049805	4.84226	-22.7235	-19.2146
 620	1	6	0.059229	5.96972	-22.5521	-17.8506
 621	1	5	0.166497	5.89983	-23.0722	-15.1106
 622	1	5	0.141714	1.64265	-20.5783	-13.947
 623	1	6	0.041341	6.31802	-21.2489	-12.1289
 624	1	6	0.038019	4.18194	-19.9505	-11.543
 625	1	6	0.012124	5.82543	-23.9193	-11.8319
 626	1	6	0.001144	6.40754	-22.1177	-9.82414
 627	1	6	0.009013	2.26326	-21.7302	-10.7959
 628	1	6	0.001345	4.38887	-20.8419	-9.25546
 629	1	6	0.041603	3.28738	-23.5029	-12.4927
 630	1	6	0.069352	3.37362	-24.1363	-10.8401
 631	1	1	-0.425718	-18.7007	-22.5535	-19.6661
 632	1	1	0.123859	-18.1509	-21.4586	-18.9582
 633	1	1	0.123846	-17.1354	-20.642	-19.5375
 634	1	1	-0.442194	-16.6681	-20.9319	-20.8413
 635	1	1	0.030377	-17.3172	-21.9383	-21.5581
 636	1	1	0.003389	-18.3027	-22.7203	-20.9986
 637	1	2	0.006267	-17.9708	-23.9302	-21.8616
 638	1	2	0.040808	-16.8218	-23.0327	-22.4803
 639	1	3	0.010049	-17.2076	-25.0966	-21.176
 640	1	2	-0.044998	-16.7689	-25.8419	-22.471
 641	1	2	-0.017344	-15.6052	-24.9259	-23.0444
 642	1	3	0.004207	-15.5141	-23.7491	-22.0434
 643	1	3	-0.10977	-15.8953	-24.4151	-20.6889
 644	1	1	-0.002799	-15.7025	-26.9148	-22.3182
 645	1	1	-0.006419	-14.6885	-26.1039	-22.7847
 646	1	1	-0.256521	-15.4824	-28.0141	-21.4743
 647	1	1	0.004841	-14.125	-28.3088	-21.2069
 648	1	4	0.00733	-13.0964	-27.4259	-21.6132
 649	1	1	-0.221146	-13.3616	-26.2589	-22.3694