pySIMM System Object

894 atoms
1056 bonds
2184 angles
4136 dihedrals
84 impropers

6 atom types
11 bond types
24 angle types
21 dihedral types
1 improper types

-134.288964 134.288964 xlo xhi
-134.288964 134.288964 ylo yhi
-134.288964 134.288964 zlo zhi

Masses

   1	12.01	# ca
   2	12.01	# cy
   3	12.01	# c3
   4	12.01	# cp
   5	1.008	# ha
   6	1.008	# hc

Pair Coeffs

   1	0.086	3.3996695084235347	# ca
   2	0.086	3.3996695084235347	# cy
   3	0.1094	3.3996695084235347	# c3
   4	0.086	3.3996695084235347	# cp
   5	0.015	2.59964245953351	# ha
   6	0.0157	2.649532787749369	# hc

Bond Coeffs

   1	321.0	1.5156	# c3,ca
   2	285.0	1.5562	# cy,cy
   3	330.6	1.0969	# c3,hc
   4	333.3	1.0949	# cy,hc
   5	321.2	1.5154	# ca,cy
   6	461.1	1.3984	# ca,ca
   7	300.9	1.5375	# c3,c3
   8	305.9	1.5319	# c3,cy
   9	351.4	1.4854	# cp,cp
  10	345.8	1.086	# ca,ha
  11	450.2	1.4058	# ca,cp

Angle Coeffs

   1	62.73	112.39	# c3,c3,cy
   2	46.29	110.75	# cy,c3,hc
   3	44.83	114.79	# cy,cy,hc
   4	60.66	118.7	# c3,cy,cy
   5	66.72	118.38	# ca,cp,ca
   6	62.86	111.51	# c3,c3,c3
   7	46.43	110.14	# c3,cy,hc
   8	63.43	120.63	# c3,ca,cp
   9	63.56	112.24	# ca,c3,ca
  10	64.05	121.11	# ca,cp,cp
  11	66.62	120.02	# ca,ca,ca
  12	39.4	107.58	# hc,c3,hc
  13	47.98	119.86	# cp,ca,ha
  14	63.53	120.77	# c3,ca,ca
  15	63.51	120.86	# ca,ca,cy
  16	62.8	113.57	# c3,cy,ca
  17	67.9	96.03	# cy,c3,cy
  18	45.97	114.53	# ca,cy,hc
  19	61.4	116.81	# ca,cy,cy
  20	63.15	112.07	# c3,c3,ca
  21	66.26	120.69	# ca,ca,cp
  22	46.34	109.8	# c3,c3,hc
  23	48.18	119.88	# ca,ca,ha
  24	46.8	110.47	# ca,c3,hc

Dihedral Coeffs

   1	1	0.16	3	0.0	# cy,c3,cy,ca
   2	1	0.16	3	0.0	# c3,c3,cy,ca
   3	1	0.16	3	0.0	# hc,c3,cy,ca
   4	3	0.18	3	0.0	0.25	2	180.0	0.2	1	180.0	# cy,c3,cy,cy
   5	1	0.15	3	0	# hc,c3,c3,hc
   6	3	0.18	3	0.0	0.25	2	180.0	0.2	1	180.0	# c3,c3,cy,cy
   7	1	0.16	3	0.0	# hc,c3,cy,cy
   8	1	0.16	3	0.0	# cy,c3,cy,hc
   9	1	0.16	3	0.0	# c3,c3,cy,hc
  10	1	0.15	3	0.0	# hc,c3,cy,hc
  11	1	3.625	2	180	# X,ca,ca,X
  12	1	0.15555555555555556	3	0	# X,cy,cy,X
  13	1	3.625	2	180	# X,ca,cp,X
  14	3	0.18	3	0	0.25	2	180	0.2	1	180	# c3,c3,c3,c3
  15	1	0.15555555555555556	3	0	# X,c3,c3,X
  16	1	0.16	3	0	# hc,c3,c3,c3
  17	1	1.0	2	180	# X,cp,cp,X
  18	1	0.0	2	0.0	# ca,ca,cy,cy
  19	1	0.0	2	0.0	# ca,ca,cy,c3
  20	1	0.0	2	0	# X,c3,ca,X
  21	3	0.38	3	180.0	0.0	2	0.0	1.15	1	0.0	# ca,ca,cy,hc

Improper Coeffs

   1	1.1	-1	2	# ca,X,X,ha

Atoms

   1	1	1	-0.425718	27.9829	-40.3525	27.9439
   2	1	1	0.123859	27.5698	-39.1789	27.287
   3	1	1	0.123846	26.2789	-38.6902	27.3321
   4	1	1	-0.442194	25.2318	-39.3106	28.0378
   5	1	1	0.030377	25.7	-40.3414	28.8764
   6	1	1	0.003389	27.0003	-40.8327	28.8325
   7	1	2	0.006267	26.6242	-42.1643	29.4556
   8	1	2	0.040808	25.1375	-41.6035	29.5052
   9	1	3	0.010049	26.5284	-43.3892	28.5077
  10	1	2	-0.044998	25.8057	-44.3373	29.5024
  11	1	2	-0.017344	24.318	-43.7783	29.5518
  12	1	3	0.004207	24.3454	-42.5667	28.5803
  13	1	3	-0.10977	25.3998	-42.9858	27.5154
  14	1	1	-0.002799	25.1992	-45.6012	28.9247
  15	1	1	-0.006419	23.9097	-45.1187	28.9694
  16	1	1	-0.256521	25.6048	-46.6196	28.0534
  17	1	1	0.004841	24.5628	-47.2318	27.3214
  18	1	4	0.00733	23.2336	-46.7419	27.3715
  19	1	1	-0.221146	22.8857	-45.6103	28.151
  20	1	3	0.21053	24.6983	-48.3609	26.2919
  21	1	4	0.0182	22.4231	-47.498	26.4047
  22	1	1	0.000377	23.2601	-48.4497	25.7666
  23	1	3	-0.237942	25.683	-47.9807	25.1636
  24	1	3	-0.215479	25.1297	-49.6805	26.9696
  25	1	1	-0.2391	22.7403	-49.4216	24.8815
  26	1	1	-0.027923	21.3716	-49.3	24.6132
  27	1	1	-0.180376	21.021	-47.4744	26.1939
  28	1	1	-0.054224	20.558	-48.3813	25.2336
  29	1	2	0.006282	20.2177	-50.1852	24.1766
  30	1	2	0.015188	19.2785	-49.1263	24.8928
  31	1	3	0.034756	19.9029	-51.4973	24.9378
  32	1	3	0.003059	20.4244	-51.4804	26.401
  33	1	3	0.042972	18.554	-49.9794	25.9643
  34	1	3	0.004163	19.5046	-50.4454	27.1007
  35	1	3	-0.197219	18.3942	-51.3066	25.1945
  36	1	5	0.227416	28.9072	-40.8752	27.72
  37	1	5	0.230059	24.182	-39.0849	27.8807
  38	1	6	0.034807	27.1092	-42.3724	30.4166
  39	1	6	0.022109	24.6925	-41.4611	30.4971
  40	1	6	0.043894	27.467	-43.7518	28.0706
  41	1	6	0.04727	26.321	-44.4712	30.4611
  42	1	6	0.039454	23.8993	-43.5594	30.5414
  43	1	6	0.037752	23.3778	-42.2099	28.2063
  44	1	6	0.046701	25.064	-43.8213	26.8876
  45	1	6	0.047659	25.6894	-42.1591	26.8552
  46	1	5	0.173906	26.649	-46.8794	27.9112
  47	1	5	0.156928	21.919	-45.1237	28.0713
  48	1	6	0.056509	25.7035	-48.7533	24.3853
  49	1	6	0.064596	26.7011	-47.8614	25.5536
  50	1	6	0.065502	25.3849	-47.034	24.6952
  51	1	6	0.062922	26.1186	-49.5777	27.4324
  52	1	6	0.049805	25.1761	-50.5002	26.2422
  53	1	6	0.059229	24.415	-49.9619	27.7536
  54	1	5	0.166497	23.3386	-50.2413	24.4961
  55	1	5	0.141714	20.3525	-46.859	26.7875
  56	1	6	0.041341	20.0612	-50.2831	23.0967
  57	1	6	0.038019	18.5768	-48.6101	24.2283
  58	1	6	0.012124	20.1591	-52.4134	24.3909
  59	1	6	0.001144	21.4862	-51.2198	26.4775
  60	1	6	0.009013	17.6124	-49.5492	26.3282
  61	1	6	0.001345	20.067	-49.6225	27.5565
  62	1	6	0.041603	17.8133	-51.1968	24.2683
  63	1	6	0.069352	17.9574	-52.1088	25.8061
  64	1	1	-0.425718	28.0506	-24.8083	27.9304
  65	1	1	0.123859	27.2591	-23.8511	27.2708
  66	1	1	0.123846	25.9493	-24.0664	26.8849
  67	1	1	-0.442194	25.2749	-25.2861	27.0887
  68	1	1	0.030377	25.9865	-26.1505	27.9457
  69	1	1	0.003389	27.2951	-25.918	28.3533
  70	1	2	0.006267	27.5607	-27.3745	28.6806
  71	1	2	0.040808	26.0667	-27.6452	28.209
  72	1	3	0.010049	28.4259	-28.1831	27.6773
  73	1	2	-0.044998	28.1084	-29.5868	28.257
  74	1	2	-0.017344	26.609	-29.8646	27.7818
  75	1	3	0.004207	26.2328	-28.5861	26.9835
  76	1	3	-0.10977	27.5891	-28.138	26.3671
  77	1	1	-0.002799	28.48	-30.7871	27.4093
  78	1	1	-0.006419	27.1957	-31.0272	27.0032
  79	1	1	-0.256521	29.5803	-31.5607	27.0284
  80	1	1	0.004841	29.2536	-32.6507	26.1851
  81	1	4	0.00733	27.9192	-32.9043	25.7633
  82	1	1	-0.221146	26.8308	-32.0826	26.1631
  83	1	3	0.21053	30.2132	-33.7235	25.6535
  84	1	4	0.0182	27.9142	-34.1361	24.9582
  85	1	1	0.000377	29.2402	-34.6367	24.8952
  86	1	3	-0.237942	31.2637	-33.1133	24.7001
  87	1	3	-0.215479	30.9054	-34.4772	26.8124
  88	1	1	-0.2391	29.5271	-35.9077	24.346
  89	1	1	-0.027923	28.4303	-36.5715	23.7814
  90	1	1	-0.180376	26.8112	-34.8823	24.4714
  91	1	1	-0.054224	27.1438	-36.0843	23.8347
  92	1	2	0.006282	27.9914	-38.005	23.5303
  93	1	2	0.015188	26.5054	-37.4417	23.5876
  94	1	3	0.034756	28.012	-39.0479	24.6797
  95	1	3	0.003059	27.9502	-38.3505	26.0729
  96	1	3	0.042972	25.8739	-38.24	24.7581
  97	1	3	0.004163	26.4692	-37.7902	26.126
  98	1	3	-0.197219	26.575	-39.5994	24.53
  99	1	5	0.227416	29.1311	-24.7452	28.0089
 100	1	5	0.230059	24.3667	-25.5657	26.5648
 101	1	6	0.034807	27.7915	-27.5678	29.7349
 102	1	6	0.022109	25.3657	-28.0123	28.968
 103	1	6	0.043894	29.4847	-27.9062	27.6005
 104	1	6	0.04727	28.334	-29.6955	29.3246
 105	1	6	0.039454	25.8761	-30.1502	28.5457
 106	1	6	0.037752	25.3788	-28.663	26.2991
 107	1	6	0.046701	27.9595	-28.8317	25.6012
 108	1	6	0.047659	27.5444	-27.1343	25.9273
 109	1	5	0.173906	30.5893	-31.3597	27.3743
 110	1	5	0.156928	25.8046	-32.2728	25.8665
 111	1	6	0.056509	31.8922	-33.8959	24.2575
 112	1	6	0.064596	31.9152	-32.4102	25.2332
 113	1	6	0.065502	30.7726	-32.5694	23.8832
 114	1	6	0.062922	30.159	-34.9272	27.4795
 115	1	6	0.049805	31.5272	-33.7974	27.4076
 116	1	6	0.059229	31.5489	-35.2797	26.432
 117	1	5	0.166497	30.5041	-36.3729	24.4325
 118	1	5	0.141714	25.7837	-34.591	24.6636
 119	1	6	0.041341	28.2816	-38.4407	22.5678
 120	1	6	0.038019	25.9368	-37.5487	22.6572
 121	1	6	0.012124	28.8	-39.807	24.5978
 122	1	6	0.001144	28.7274	-37.606	26.2812
 123	1	6	0.009013	24.7778	-38.2867	24.7444
 124	1	6	0.001345	26.3921	-36.7236	26.3663
 125	1	6	0.041603	26.3822	-40.0125	23.5298
 126	1	6	0.069352	26.3134	-40.3635	25.2732
 127	1	1	-0.425718	22.6489	-10.1277	25.9373
 128	1	1	0.123859	22.3002	-9.58843	24.687
 129	1	1	0.123846	21.4125	-10.1853	23.8118
 130	1	1	-0.442194	20.8114	-11.435	24.062
 131	1	1	0.030377	20.9867	-11.8601	25.3957
 132	1	1	0.003389	21.8389	-11.2231	26.2928
 133	1	2	0.006267	22.0012	-12.4516	27.1643
 134	1	2	0.040808	21.0415	-13.1895	26.1363
 135	1	3	0.010049	23.3438	-13.2158	27.0467
 136	1	2	-0.044998	22.8962	-14.4865	27.8134
 137	1	2	-0.017344	21.9483	-15.2447	26.7861
 138	1	3	0.004207	21.9389	-14.3126	25.5404
 139	1	3	-0.10977	23.3604	-13.6816	25.5627
 140	1	1	-0.002799	23.807	-15.691	27.7085
 141	1	1	-0.006419	22.9873	-16.3559	26.8234
 142	1	1	-0.256521	25.1822	-15.9322	27.8061
 143	1	1	0.004841	25.6532	-17.0293	27.052
 144	1	4	0.00733	24.8055	-17.7451	26.1689
 145	1	1	-0.221146	23.4528	-17.3651	25.9691
 146	1	3	0.21053	27.1041	-17.5134	26.9467
 147	1	4	0.0182	25.6221	-18.7378	25.4488
 148	1	1	0.000377	26.969	-18.6008	25.8752
 149	1	3	-0.237942	28.0504	-16.3848	26.4797
 150	1	3	-0.215479	27.5847	-18.1058	28.2904
 151	1	1	-0.2391	27.9865	-19.4735	25.4281
 152	1	1	-0.027923	27.5752	-20.4195	24.4826
 153	1	1	-0.180376	25.217	-19.7932	24.5904
 154	1	1	-0.054224	26.2639	-20.5872	24.1042
 155	1	2	0.006282	28.0057	-21.7884	23.99
 156	1	2	0.015188	26.4876	-21.9894	23.556
 157	1	3	0.034756	28.2417	-22.938	25.0001
 158	1	3	0.003059	27.4547	-22.6862	26.3222
 159	1	3	0.042972	26.0639	-23.2424	24.3704
 160	1	3	0.004163	25.949	-22.9165	25.8896
 161	1	3	-0.197219	27.3922	-24.0326	24.3134
 162	1	5	0.227416	23.5184	-9.81144	26.5044
 163	1	5	0.230059	20.3673	-12.051	23.2867
 164	1	6	0.034807	21.6346	-12.3334	28.191
 165	1	6	0.022109	20.0777	-13.5413	26.5229
 166	1	6	0.043894	24.2399	-12.7024	27.4168
 167	1	6	0.04727	22.4977	-14.2987	28.8175
 168	1	6	0.039454	20.9524	-15.5302	27.1452
 169	1	6	0.037752	21.6103	-14.7569	24.5927
 170	1	6	0.046701	24.1549	-14.4085	25.3504
 171	1	6	0.047659	23.4657	-12.8489	24.8589
 172	1	5	0.173906	25.8454	-15.2868	28.3732
 173	1	5	0.156928	22.845	-17.7787	25.1709
 174	1	6	0.056509	28.1049	-15.5823	27.2253
 175	1	6	0.064596	27.6961	-15.9506	25.5363
 176	1	6	0.065502	29.065	-16.7685	26.317
 177	1	6	0.062922	26.9169	-18.914	28.6153
 178	1	6	0.049805	27.5953	-17.339	29.0749
 179	1	6	0.059229	28.5973	-18.5172	28.2006
 180	1	5	0.166497	28.9916	-19.4595	25.838
 181	1	5	0.141714	24.1737	-20.009	24.384
 182	1	6	0.041341	28.7267	-21.8039	23.1652
 183	1	6	0.038019	26.3306	-22.1212	22.4797
 184	1	6	0.012124	29.2941	-23.2079	25.153
 185	1	6	0.001144	27.6449	-21.7363	26.8353
 186	1	6	0.009013	25.1983	-23.7822	23.9666
 187	1	6	0.001345	25.2695	-22.099	26.16
 188	1	6	0.041603	27.7179	-24.2387	23.2841
 189	1	6	0.069352	27.367	-24.9826	24.8615
 190	1	1	-0.425718	15.6251	1.89115	17.8483
 191	1	1	0.123859	14.8483	2.05103	16.6875
 192	1	1	0.123846	14.5179	0.993244	15.8493
 193	1	1	-0.442194	14.9329	-0.328121	16.1078
 194	1	1	0.030377	15.9	-0.43912	17.1259
 195	1	1	0.003389	16.229	0.627417	17.9597
 196	1	2	0.006267	16.5192	-0.264262	19.1506
 197	1	2	0.040808	16.1527	-1.48004	18.2054
 198	1	3	0.010049	18.0101	-0.497142	19.5084
 199	1	2	-0.044998	17.7704	-1.66765	20.4985
 200	1	2	-0.017344	17.4081	-2.89983	19.5502
 201	1	3	0.004207	17.4736	-2.29385	18.1206
 202	1	3	-0.10977	18.575	-1.20264	18.2429
 203	1	1	-0.002799	18.9765	-2.48486	20.9122
 204	1	1	-0.006419	18.6677	-3.54357	20.1008
 205	1	1	-0.256521	20.1689	-2.37322	21.6322
 206	1	1	0.004841	21.0193	-3.49867	21.5179
 207	1	4	0.00733	20.702	-4.60312	20.6797
 208	1	1	-0.221146	19.5118	-4.64148	19.9042
 209	1	3	0.21053	22.3626	-3.70764	22.226
 210	1	4	0.0182	21.7968	-5.5846	20.7734
 211	1	1	0.000377	22.7747	-5.07396	21.6671
 212	1	3	-0.237942	23.3849	-2.61427	21.8447
 213	1	3	-0.215479	22.1764	-3.76658	23.7593
 214	1	1	-0.2391	23.8916	-5.84104	22.0657
 215	1	1	-0.027923	24.0029	-7.08446	21.4357
 216	1	1	-0.180376	21.8836	-6.89952	20.2437
 217	1	1	-0.054224	23.056	-7.59112	20.5772
 218	1	2	0.006282	24.6345	-8.4336	21.7084
 219	1	2	0.015188	23.5575	-9.0255	20.6967
 220	1	3	0.034756	24.3189	-9.17585	23.0308
 221	1	3	0.003059	22.9408	-8.72662	23.6163
 222	1	3	0.042972	22.8099	-10.0733	21.565
 223	1	3	0.004163	21.9004	-9.37929	22.6178
 224	1	3	-0.197219	23.9896	-10.5639	22.4362
 225	1	5	0.227416	15.5706	2.58548	18.6806
 226	1	5	0.230059	14.3938	-1.18796	15.7229
 227	1	6	0.034807	15.8817	-0.0710696	20.0217
 228	1	6	0.022109	15.2771	-2.08966	18.4585
 229	1	6	0.043894	18.5694	0.367379	19.8875
 230	1	6	0.04727	17.0751	-1.43706	21.3145
 231	1	6	0.039454	16.4825	-3.44609	19.7679
 232	1	6	0.037752	17.5664	-3.00117	17.2872
 233	1	6	0.046701	19.5763	-1.62394	18.4018
 234	1	6	0.047659	18.6155	-0.539695	17.3688
 235	1	5	0.173906	20.4161	-1.50153	22.2298
 236	1	5	0.156928	19.2773	-5.45	19.2197
 237	1	6	0.056509	23.0576	-1.62921	22.199
 238	1	6	0.064596	23.5054	-2.56227	20.7553
 239	1	6	0.065502	24.3667	-2.82735	22.285
 240	1	6	0.062922	23.1286	-3.96864	24.2645
 241	1	6	0.049805	21.4721	-4.56315	24.0318
 242	1	6	0.059229	21.781	-2.81838	24.1433
 243	1	5	0.166497	24.5717	-5.52268	22.8495
 244	1	5	0.141714	21.0751	-7.3562	19.6819
 245	1	6	0.041341	25.6777	-8.55659	21.3971
 246	1	6	0.038019	23.9779	-9.46784	19.7867
 247	1	6	0.012124	25.1354	-9.17659	23.7637
 248	1	6	0.001144	22.8037	-7.65144	23.7815
 249	1	6	0.009013	22.3062	-10.8661	20.9979
 250	1	6	0.001345	21.151	-8.68199	22.2239
 251	1	6	0.041603	24.8146	-10.9767	21.8386
 252	1	6	0.069352	23.7047	-11.3095	23.187
 253	1	1	-0.425718	1.59779	-0.761084	20.324
 254	1	1	0.123859	0.558387	-0.189985	19.5682
 255	1	1	0.123846	0.531285	-0.231901	18.1863
 256	1	1	-0.442194	1.48149	-0.920938	17.407
 257	1	1	0.030377	2.33945	-1.73347	18.1785
 258	1	1	0.003389	2.41655	-1.6196	19.5647
 259	1	2	0.006267	3.87414	-2.0354	19.6175
 260	1	2	0.040808	3.77608	-2.22233	18.0455
 261	1	3	0.010049	4.91735	-0.892909	19.7828
 262	1	2	-0.044998	6.17928	-1.73649	19.475
 263	1	2	-0.017344	6.09761	-2.0004	17.9135
 264	1	3	0.004207	4.81895	-1.22788	17.4763
 265	1	3	-0.10977	4.74975	-0.0490994	18.4855
 266	1	1	-0.002799	7.45416	-0.965676	19.1768
 267	1	1	-0.006419	7.40281	-1.23348	17.8208
 268	1	1	-0.256521	8.02302	0.213064	19.6854
 269	1	1	0.004841	8.698	1.02493	18.7463
 270	1	4	0.00733	8.69661	0.711837	17.3675
 271	1	1	-0.221146	7.97007	-0.389561	16.8586
 272	1	3	0.21053	9.35776	2.3889	18.9971
 273	1	4	0.0182	9.37289	1.79282	16.6398
 274	1	1	0.000377	9.75202	2.79256	17.5684
 275	1	3	-0.237942	8.36108	3.39966	19.6072
 276	1	3	-0.215479	10.6022	2.23763	19.9003
 277	1	1	-0.2391	10.5647	3.8851	17.1881
 278	1	1	-0.027923	10.9183	3.93036	15.831
 279	1	1	-0.180376	9.83671	1.8034	15.303
 280	1	1	-0.054224	10.5894	2.9268	14.9427
 281	1	2	0.006282	12.1296	4.38309	15.026
 282	1	2	0.015188	11.7664	3.20593	14.0245
 283	1	3	0.034756	13.5667	4.02149	15.4846
 284	1	3	0.003059	13.5496	2.78515	16.4272
 285	1	3	0.042972	13.032	2.30437	14.0766
 286	1	3	0.004163	13.1764	1.59786	15.4627
 287	1	3	-0.197219	14.1056	3.41236	14.1692
 288	1	5	0.227416	1.82636	-0.46005	21.3412
 289	1	5	0.230059	1.6264	-0.73621	16.3475
 290	1	6	0.034807	4.07939	-2.93219	20.2138
 291	1	6	0.022109	3.8788	-3.24336	17.6595
 292	1	6	0.043894	4.90856	-0.346258	20.7339
 293	1	6	0.04727	6.30968	-2.60999	20.1247
 294	1	6	0.039454	6.14095	-3.04343	17.5782
 295	1	6	0.037752	4.73031	-0.974387	16.4126
 296	1	6	0.046701	5.54759	0.68962	18.3398
 297	1	6	0.047659	3.7959	0.479327	18.4421
 298	1	5	0.173906	7.87407	0.525134	20.7142
 299	1	5	0.156928	7.78321	-0.51404	15.7969
 300	1	6	0.056509	8.04219	3.0835	20.6079
 301	1	6	0.064596	7.46705	3.48818	18.9769
 302	1	6	0.065502	8.81637	4.39401	19.692
 303	1	6	0.062922	11.3164	1.53294	19.4552
 304	1	6	0.049805	10.3229	1.85787	20.8908
 305	1	6	0.059229	11.1121	3.1992	20.0342
 306	1	5	0.166497	10.9963	4.5636	17.9173
 307	1	5	0.141714	9.73249	0.941613	14.6515
 308	1	6	0.041341	12.0744	5.38816	14.5935
 309	1	6	0.038019	11.5238	3.52597	13.0051
 310	1	6	0.012124	14.1535	4.86502	15.8691
 311	1	6	0.001144	12.9265	2.86176	17.3242
 312	1	6	0.009013	13.1495	1.62862	13.2202
 313	1	6	0.001345	12.3218	0.996762	15.7935
 314	1	6	0.041603	14.0604	4.11694	13.3268
 315	1	6	0.069352	15.1321	3.02961	14.2434
 316	1	1	-0.425718	-13.4016	3.45687	14.58
 317	1	1	0.123859	-13.7349	4.37214	13.5593
 318	1	1	0.123846	-12.8204	4.82894	12.6238
 319	1	1	-0.442194	-11.4964	4.36794	12.5509
 320	1	1	0.030377	-11.1266	3.62206	13.6802
 321	1	1	0.003389	-12.0133	3.22185	14.6731
 322	1	2	0.006267	-11.1233	2.07503	15.133
 323	1	2	0.040808	-10.1427	2.50919	13.9623
 324	1	3	0.010049	-10.2688	2.30742	16.4167
 325	1	2	-0.044998	-9.32985	1.07875	16.2561
 326	1	2	-0.017344	-8.38402	1.48311	15.0427
 327	1	3	0.004207	-8.83803	2.92095	14.6795
 328	1	3	-0.10977	-9.34801	3.50067	16.0307
 329	1	1	-0.002799	-8.05307	1.04326	17.0862
 330	1	1	-0.006419	-7.24207	1.37461	16.0246
 331	1	1	-0.256521	-7.67133	1.23314	18.4229
 332	1	1	0.004841	-6.33253	1.65627	18.6091
 333	1	4	0.00733	-5.50712	1.9996	17.5092
 334	1	1	-0.221146	-5.97169	1.93504	16.1748
 335	1	3	0.21053	-5.61657	1.94596	19.9382
 336	1	4	0.0182	-4.24502	2.54508	18.0191
 337	1	1	0.000377	-4.28508	2.52633	19.4367
 338	1	3	-0.237942	-6.38991	2.97851	20.788
 339	1	3	-0.215479	-5.39164	0.643705	20.7383
 340	1	1	-0.2391	-3.16498	2.90659	20.2145
 341	1	1	-0.027923	-2.07833	3.39309	19.4748
 342	1	1	-0.180376	-3.08796	2.9356	17.3014
 343	1	1	-0.054224	-2.04252	3.40189	18.1014
 344	1	2	0.006282	-0.577925	3.59274	19.6194
 345	1	2	0.015188	-0.540047	3.58252	18.0269
 346	1	3	0.034756	0.346596	2.40776	19.9929
 347	1	3	0.003059	-0.32135	1.04505	19.649
 348	1	3	0.042972	0.373485	2.37196	17.7048
 349	1	3	0.004163	-0.323353	1.02051	18.0675
 350	1	3	-0.197219	1.38581	2.54761	18.8596
 351	1	5	0.227416	-14.142	2.88128	15.1263
 352	1	5	0.230059	-10.8898	4.43861	11.6538
 353	1	6	0.034807	-11.5875	1.08306	15.0847
 354	1	6	0.022109	-9.98998	1.81833	13.1245
 355	1	6	0.043894	-10.8131	2.39151	17.3656
 356	1	6	0.04727	-9.85461	0.11938	16.1779
 357	1	6	0.039454	-8.32877	0.788611	14.1957
 358	1	6	0.037752	-8.13291	3.5369	14.1075
 359	1	6	0.046701	-8.5398	3.6691	16.7541
 360	1	6	0.047659	-9.89953	4.44232	15.9114
 361	1	5	0.173906	-8.36513	1.10978	19.2483
 362	1	5	0.156928	-5.41104	2.34413	15.3406
 363	1	6	0.056509	-5.82871	3.23815	21.6941
 364	1	6	0.064596	-7.36688	2.58433	21.0927
 365	1	6	0.065502	-6.55718	3.89997	20.2161
 366	1	6	0.062922	-4.82379	0.838898	21.656
 367	1	6	0.049805	-4.82952	-0.0845539	20.1396
 368	1	6	0.059229	-6.34851	0.186319	21.018
 369	1	5	0.166497	-3.13079	2.78704	21.2929
 370	1	5	0.141714	-3.00073	2.82859	16.225
 371	1	6	0.041341	-0.255354	4.53242	20.0811
 372	1	6	0.038019	-0.181871	4.51041	17.5673
 373	1	6	0.012124	0.768924	2.45314	21.0046
 374	1	6	0.001144	-1.29982	0.855949	20.1072
 375	1	6	0.009013	0.820843	2.38702	16.703
 376	1	6	0.001345	-1.30653	0.84165	17.6157
 377	1	6	0.041603	1.87664	3.53107	18.851
 378	1	6	0.069352	2.16177	1.77969	18.8871
 379	1	1	-0.425718	-12.5059	-2.70694	1.63592
 380	1	1	0.123859	-11.7281	-2.32588	0.523194
 381	1	1	0.123846	-10.777	-1.32222	0.571088
 382	1	1	-0.442194	-10.5206	-0.548026	1.71563
 383	1	1	0.030377	-11.1297	-1.08126	2.86484
 384	1	1	0.003389	-12.0523	-2.12073	2.83684
 385	1	2	0.006267	-12.6389	-1.76081	4.19475
 386	1	2	0.040808	-11.612	-0.548153	4.19772
 387	1	3	0.010049	-14.0293	-1.07416	4.23463
 388	1	2	-0.044998	-13.9576	-0.593214	5.71481
 389	1	2	-0.017344	-12.9639	0.645258	5.65072
 390	1	3	0.004207	-12.528	0.709324	4.16762
 391	1	3	-0.10977	-13.7988	0.226063	3.41393
 392	1	1	-0.002799	-15.007	0.404475	6.17084
 393	1	1	-0.006419	-14.1578	1.48463	6.06612
 394	1	1	-0.256521	-16.0922	0.386366	7.05936
 395	1	1	0.004841	-16.3699	1.61443	7.7059
 396	1	4	0.00733	-15.5492	2.7537	7.51333
 397	1	1	-0.221146	-14.3578	2.68768	6.74935
 398	1	3	0.21053	-17.3804	1.85572	8.84027
 399	1	4	0.0182	-15.9854	3.80621	8.44031
 400	1	1	0.000377	-17.0178	3.28811	9.26195
 401	1	3	-0.237942	-18.8335	1.77956	8.32422
 402	1	3	-0.215479	-17.1653	0.857889	10.0019
 403	1	1	-0.2391	-17.4744	3.99171	10.4037
 404	1	1	-0.027923	-16.9398	5.27905	10.5584
 405	1	1	-0.180376	-15.4119	5.07975	8.66902
 406	1	1	-0.054224	-15.9916	5.80728	9.71266
 407	1	2	0.006282	-16.6626	6.28178	11.6748
 408	1	2	0.015188	-15.5646	6.87964	10.6914
 409	1	3	0.034756	-15.822	5.89545	12.9279
 410	1	3	0.003059	-14.9333	4.64608	12.6551
 411	1	3	0.042972	-14.2482	6.70422	11.4806
 412	1	3	0.004163	-13.8795	5.19447	11.6137
 413	1	3	-0.197219	-14.7792	7.03853	12.8933
 414	1	5	0.227416	-13.4161	-3.2927	1.55772
 415	1	5	0.230059	-10.0133	0.410956	1.6898
 416	1	6	0.034807	-12.4986	-2.52852	4.96469
 417	1	6	0.022109	-10.8521	-0.540612	4.98834
 418	1	6	0.043894	-14.8919	-1.69094	3.95353
 419	1	6	0.04727	-13.7482	-1.39455	6.43335
 420	1	6	0.039454	-12.1254	0.678102	6.35672
 421	1	6	0.037752	-12.0739	1.64799	3.8263
 422	1	6	0.046701	-14.6358	0.932093	3.49011
 423	1	6	0.047659	-13.6118	0.029952	2.35213
 424	1	5	0.173906	-16.6136	-0.531371	7.31215
 425	1	5	0.156928	-13.6048	3.4681	6.78272
 426	1	6	0.056509	-18.9877	2.48642	7.49909
 427	1	6	0.064596	-19.5446	2.02819	9.12159
 428	1	6	0.065502	-19.0663	0.772544	7.95705
 429	1	6	0.062922	-16.1245	0.889819	10.3488
 430	1	6	0.049805	-17.3872	-0.168609	9.68571
 431	1	6	0.059229	-17.8146	1.09715	10.8526
 432	1	5	0.166497	-18.1362	3.54581	11.1395
 433	1	5	0.141714	-14.5329	5.4267	8.1357
 434	1	6	0.041341	-17.4789	6.96979	11.9208
 435	1	6	0.038019	-15.7333	7.91752	10.3834
 436	1	6	0.012124	-16.3931	5.83574	13.8629
 437	1	6	0.001144	-15.4613	3.74101	12.3301
 438	1	6	0.009013	-13.4191	7.33744	11.1409
 439	1	6	0.001345	-13.8034	4.61532	10.6869
 440	1	6	0.041603	-15.241	8.03455	12.9465
 441	1	6	0.069352	-14.0171	6.97202	13.681
 442	1	1	-0.425718	-3.19678	-1.5941	-12.4028
 443	1	1	0.123859	-2.50173	-0.438847	-12.8114
 444	1	1	0.123846	-2.05136	0.52469	-11.9194
 445	1	1	-0.442194	-2.29589	0.456583	-10.5338
 446	1	1	0.030377	-3.21987	-0.546827	-10.1798
 447	1	1	0.003389	-3.62703	-1.53931	-11.0646
 448	1	2	0.006267	-3.87086	-2.5639	-9.9652
 449	1	2	0.040808	-3.43766	-1.41799	-8.95736
 450	1	3	0.010049	-5.34603	-2.86846	-9.58476
 451	1	2	-0.044998	-5.05753	-3.60826	-8.24288
 452	1	2	-0.017344	-4.65382	-2.42269	-7.26152
 453	1	3	0.004207	-4.7281	-1.14799	-8.13698
 454	1	3	-0.10977	-5.8768	-1.47806	-9.13292
 455	1	1	-0.002799	-6.22922	-3.83868	-7.2992
 456	1	1	-0.006419	-5.89806	-2.78562	-6.47837
 457	1	1	-0.256521	-7.49945	-4.43413	-7.32368
 458	1	1	0.004841	-8.41853	-3.91481	-6.37934
 459	1	4	0.00733	-8.11405	-2.74979	-5.6309
 460	1	1	-0.221146	-6.84579	-2.1218	-5.69406
 461	1	3	0.21053	-9.86997	-4.36294	-6.12967
 462	1	4	0.0182	-9.33694	-2.29632	-4.95779
 463	1	1	0.000377	-10.3663	-3.24602	-5.1974
 464	1	3	-0.237942	-10.6883	-4.40013	-7.44033
 465	1	3	-0.215479	-9.91829	-5.73843	-5.42785
 466	1	1	-0.2391	-11.6602	-3.10124	-4.63566
 467	1	1	-0.027923	-11.8436	-1.90734	-3.92698
 468	1	1	-0.180376	-9.56862	-1.09131	-4.24665
 469	1	1	-0.054224	-10.8841	-0.938443	-3.8058
 470	1	2	0.006282	-12.8683	-1.1504	-3.09635
 471	1	2	0.015188	-11.7595	-0.00752526	-2.99127
 472	1	3	0.034756	-13.1047	-1.5188	-1.60405
 473	1	3	0.003059	-11.8696	-2.25507	-0.993421
 474	1	3	0.042972	-11.5285	0.135102	-1.47281
 475	1	3	0.004163	-10.7781	-1.11066	-0.925468
 476	1	3	-0.197219	-12.9753	-0.106763	-0.985811
 477	1	5	0.227416	-3.23994	-2.49805	-13.0018
 478	1	5	0.230059	-1.70445	0.999479	-9.80336
 479	1	6	0.034807	-3.2438	-3.4606	-10.0326
 480	1	6	0.022109	-2.54322	-1.57276	-8.34202
 481	1	6	0.043894	-5.94547	-3.40745	-10.329
 482	1	6	0.04727	-4.35647	-4.44706	-8.32729
 483	1	6	0.039454	-3.71689	-2.53551	-6.70291
 484	1	6	0.037752	-4.78881	-0.188923	-7.60772
 485	1	6	0.046701	-6.86058	-1.53571	-8.64932
 486	1	6	0.047659	-5.94413	-0.757447	-9.95812
 487	1	5	0.173906	-7.768	-5.20437	-8.03984
 488	1	5	0.156928	-6.64107	-1.17031	-5.21484
 489	1	6	0.056509	-11.7408	-4.63436	-7.23838
 490	1	6	0.064596	-10.2972	-5.16035	-8.12727
 491	1	6	0.065502	-10.6479	-3.4281	-7.94778
 492	1	6	0.062922	-9.35473	-5.7121	-4.48663
 493	1	6	0.049805	-9.48175	-6.51856	-6.06373
 494	1	6	0.059229	-10.9518	-6.02452	-5.19639
 495	1	5	0.166497	-12.4492	-3.83556	-4.76607
 496	1	5	0.141714	-8.79947	-0.344231	-4.08072
 497	1	6	0.041341	-13.7946	-0.863177	-3.60579
 498	1	6	0.038019	-12.0255	0.945056	-3.46263
 499	1	6	0.012124	-14.0618	-2.01483	-1.39963
 500	1	6	0.001144	-11.5411	-3.16131	-1.51824
 501	1	6	0.009013	-11.0933	1.0924	-1.15964
 502	1	6	0.001345	-9.82256	-1.35793	-1.40481
 503	1	6	0.041603	-13.6906	0.61065	-1.41214
 504	1	6	0.069352	-13.0815	-0.0892986	0.10502
 505	1	1	-0.425718	3.88282	12.5761	-22.7951
 506	1	1	0.123859	3.92669	13.8736	-22.2542
 507	1	1	0.123846	4.27185	14.1558	-20.9474
 508	1	1	-0.442194	4.61131	13.1739	-19.9968
 509	1	1	0.030377	4.76408	11.9033	-20.5896
 510	1	1	0.003389	4.42763	11.6257	-21.9093
 511	1	2	0.006267	4.32697	10.1317	-21.6752
 512	1	2	0.040808	4.70836	10.4445	-20.1625
 513	1	3	0.010049	2.90135	9.53009	-21.5824
 514	1	2	-0.044998	3.3283	8.15061	-21.0182
 515	1	2	-0.017344	3.69657	8.44852	-19.4976
 516	1	3	0.004207	3.45943	9.9791	-19.3608
 517	1	3	-0.10977	2.28703	10.2486	-20.3465
 518	1	1	-0.002799	2.22513	7.27293	-20.4685
 519	1	1	-0.006419	2.53802	7.52223	-19.1548
 520	1	1	-0.256521	1.45815	6.18479	-20.8908
 521	1	1	0.004841	0.931705	5.39161	-19.846
 522	1	4	0.00733	1.24039	5.64426	-18.4819
 523	1	1	-0.221146	2.11465	6.69959	-18.1014
 524	1	3	0.21053	0.157821	4.07905	-20.0105
 525	1	4	0.0182	0.69358	4.53554	-17.6737
 526	1	1	0.000377	0.0856273	3.60021	-18.5563
 527	1	3	-0.237942	-1.25273	4.32664	-20.589
 528	1	3	-0.215479	0.938752	3.08069	-20.8961
 529	1	1	-0.2391	-0.395896	2.34813	-18.1065
 530	1	1	-0.027923	-0.297921	2.1573	-16.726
 531	1	1	-0.180376	0.811726	4.28105	-16.279
 532	1	1	-0.054224	0.235915	3.07496	-15.8587
 533	1	2	0.006282	-0.360883	1.04792	-15.6946
 534	1	2	0.015188	0.23213	2.11865	-14.6746
 535	1	3	0.034756	-1.72715	0.686825	-15.0726
 536	1	3	0.003059	-1.39738	-0.164648	-13.8127
 537	1	3	0.042972	-0.899031	2.23233	-13.6148
 538	1	3	0.004163	-0.860323	0.91319	-12.787
 539	1	3	-0.197219	-2.17882	2.03356	-14.4592
 540	1	5	0.227416	3.41591	12.3289	-23.7434
 541	1	5	0.230059	4.67166	13.359	-18.9292
 542	1	6	0.034807	5.0379	9.53021	-22.2544
 543	1	6	0.022109	5.65786	10.0354	-19.7971
 544	1	6	0.043894	2.30456	9.52609	-22.503
 545	1	6	0.04727	4.06064	7.62098	-21.6394
 546	1	6	0.039454	4.67327	8.11759	-19.1246
 547	1	6	0.037752	3.35208	10.3738	-18.343
 548	1	6	0.046701	1.34224	9.7978	-20.0168
 549	1	6	0.047659	2.11419	11.3188	-20.5189
 550	1	5	0.173906	1.34623	5.92431	-21.9384
 551	1	5	0.156928	2.49074	6.8084	-17.0894
 552	1	6	0.056509	-1.82145	3.39045	-20.6482
 553	1	6	0.064596	-1.193	4.75622	-21.5965
 554	1	6	0.065502	-1.8133	5.02488	-19.9545
 555	1	6	0.062922	1.94171	2.90655	-20.4861
 556	1	6	0.049805	1.05139	3.46478	-21.9172
 557	1	6	0.059229	0.421341	2.11566	-20.9531
 558	1	5	0.166497	-0.763656	1.58021	-18.7798
 559	1	5	0.141714	1.34729	4.94177	-15.6051
 560	1	6	0.041341	0.250544	0.165565	-15.914
 561	1	6	0.038019	1.2107	1.90849	-14.2287
 562	1	6	0.012124	-2.44881	0.225614	-15.7584
 563	1	6	0.001144	-0.711722	-1.00692	-13.9737
 564	1	6	0.009013	-0.884292	3.14707	-13.009
 565	1	6	0.001345	0.115496	0.659219	-12.3525
 566	1	6	0.041603	-2.33443	2.82422	-15.2047
 567	1	6	0.069352	-3.09542	1.95945	-13.8596
 568	1	1	-0.425718	-8.23857	25.5829	-16.7187
 569	1	1	0.123859	-8.69564	25.6218	-15.3821
 570	1	1	0.123846	-7.83656	25.3213	-14.2772
 571	1	1	-0.442194	-6.45877	25.0447	-14.511
 572	1	1	0.030377	-6.02029	25.1473	-15.8352
 573	1	1	0.003389	-6.86864	25.387	-16.8783
 574	1	2	0.006267	-5.89284	24.916	-17.9349
 575	1	2	0.040808	-4.88983	24.6507	-16.7258
 576	1	3	0.010049	-6.13344	23.5026	-18.5317
 577	1	2	-0.044998	-4.76154	23.3782	-19.24
 578	1	2	-0.017344	-3.73015	23.1225	-18.0556
 579	1	3	0.004207	-4.63263	23.1185	-16.7865
 580	1	3	-0.10977	-5.98635	22.5561	-17.3059
 581	1	1	-0.002799	-4.36447	22.0047	-19.7399
 582	1	1	-0.006419	-3.45493	21.7864	-18.7313
 583	1	1	-0.256521	-4.33601	21.3342	-20.9657
 584	1	1	0.004841	-3.34936	20.3285	-21.0731
 585	1	4	0.00733	-2.39102	20.1063	-20.0488
 586	1	1	-0.221146	-2.38566	20.8866	-18.8598
 587	1	3	0.21053	-3.03173	19.5035	-22.3247
 588	1	4	0.0182	-1.38978	19.1438	-20.5566
 589	1	1	0.000377	-1.75004	18.7886	-21.8855
 590	1	3	-0.237942	-4.1622	18.4978	-22.6339
 591	1	3	-0.215479	-2.7671	20.4163	-23.5445
 592	1	1	-0.2391	-0.909454	18.0009	-22.7062
 593	1	1	-0.027923	0.244435	17.5314	-22.0742
 594	1	1	-0.180376	-0.162647	18.7133	-19.9794
 595	1	1	-0.054224	0.593314	17.8503	-20.7856
 596	1	2	0.006282	1.61803	17.0027	-22.4389
 597	1	2	0.015188	2.0245	17.3551	-20.9405
 598	1	3	0.034756	1.82791	15.4723	-22.5135
 599	1	3	0.003059	3.36885	15.2594	-22.5173
 600	1	3	0.042972	2.41034	15.9671	-20.3636
 601	1	3	0.004163	3.77366	15.5908	-21.0164
 602	1	3	-0.197219	1.43337	15.0132	-21.0903
 603	1	5	0.227416	-8.91356	25.6821	-17.563
 604	1	5	0.230059	-5.77248	24.757	-13.7223
 605	1	6	0.034807	-5.60525	25.6801	-18.6669
 606	1	6	0.022109	-3.97846	25.2595	-16.6948
 607	1	6	0.043894	-7.0272	23.3728	-19.1548
 608	1	6	0.04727	-4.55439	24.1897	-19.9478
 609	1	6	0.039454	-2.85747	23.7814	-17.9744
 610	1	6	0.037752	-4.2168	22.6527	-15.8845
 611	1	6	0.046701	-5.92575	21.4974	-17.5892
 612	1	6	0.047659	-6.80179	22.6706	-16.5796
 613	1	5	0.173906	-4.96843	21.623	-21.7991
 614	1	5	0.156928	-1.56974	20.8492	-18.1455
 615	1	6	0.056509	-5.09263	19.0208	-22.8876
 616	1	6	0.064596	-4.35825	17.8581	-21.7641
 617	1	6	0.065502	-3.891	17.8509	-23.4771
 618	1	6	0.062922	-2.48719	19.8255	-24.4248
 619	1	6	0.049805	-1.94916	21.1163	-23.3307
 620	1	6	0.059229	-3.65793	21.0025	-23.7999
 621	1	5	0.166497	-1.10926	17.8287	-23.7591
 622	1	5	0.141714	0.190148	19.0747	-19.0189
 623	1	6	0.041341	2.13112	17.5389	-23.2451
 624	1	6	0.038019	2.80699	18.1071	-20.789
 625	1	6	0.012124	1.29629	14.964	-23.3278
 626	1	6	0.001144	3.92636	15.8363	-23.2669
 627	1	6	0.009013	2.39748	15.8936	-19.269
 628	1	6	0.001345	4.56466	16.3471	-20.9298
 629	1	6	0.041603	0.379664	15.2018	-20.8473
 630	1	6	0.069352	1.63214	13.9503	-20.9006
 631	1	1	-0.425718	-19.6227	15.0009	-18.3886
 632	1	1	0.123859	-20.7776	15.3172	-19.1397
 633	1	1	0.123846	-20.9773	16.6078	-19.7251
 634	1	1	-0.442194	-19.9988	17.6292	-19.5701
 635	1	1	0.030377	-18.8457	17.2511	-18.8787
 636	1	1	0.003389	-18.6806	16.0219	-18.3151
 637	1	2	0.006267	-17.3364	16.3459	-17.7099
 638	1	2	0.040808	-17.5067	17.7807	-18.3878