pySIMM System Object

699 atoms
828 bonds
1716 angles
3260 dihedrals
66 impropers

6 atom types
11 bond types
24 angle types
21 dihedral types
1 improper types

-123.043650 123.043650 xlo xhi
-123.043650 123.043650 ylo yhi
-123.043650 123.043650 zlo zhi

Masses

   1	12.01	# ca
   2	12.01	# cy
   3	12.01	# c3
   4	12.01	# cp
   5	1.008	# ha
   6	1.008	# hc

Pair Coeffs

   1	0.086	3.3996695084235347	# ca
   2	0.086	3.3996695084235347	# cy
   3	0.1094	3.3996695084235347	# c3
   4	0.086	3.3996695084235347	# cp
   5	0.015	2.59964245953351	# ha
   6	0.0157	2.649532787749369	# hc

Bond Coeffs

   1	321.0	1.5156	# c3,ca
   2	285.0	1.5562	# cy,cy
   3	330.6	1.0969	# c3,hc
   4	333.3	1.0949	# cy,hc
   5	321.2	1.5154	# ca,cy
   6	461.1	1.3984	# ca,ca
   7	300.9	1.5375	# c3,c3
   8	305.9	1.5319	# c3,cy
   9	351.4	1.4854	# cp,cp
  10	345.8	1.086	# ca,ha
  11	450.2	1.4058	# ca,cp

Angle Coeffs

   1	62.73	112.39	# c3,c3,cy
   2	46.29	110.75	# cy,c3,hc
   3	44.83	114.79	# cy,cy,hc
   4	60.66	118.7	# c3,cy,cy
   5	66.72	118.38	# ca,cp,ca
   6	62.86	111.51	# c3,c3,c3
   7	46.43	110.14	# c3,cy,hc
   8	63.43	120.63	# c3,ca,cp
   9	63.56	112.24	# ca,c3,ca
  10	64.05	121.11	# ca,cp,cp
  11	66.62	120.02	# ca,ca,ca
  12	39.4	107.58	# hc,c3,hc
  13	47.98	119.86	# cp,ca,ha
  14	63.53	120.77	# c3,ca,ca
  15	63.51	120.86	# ca,ca,cy
  16	62.8	113.57	# c3,cy,ca
  17	67.9	96.03	# cy,c3,cy
  18	45.97	114.53	# ca,cy,hc
  19	61.4	116.81	# ca,cy,cy
  20	63.15	112.07	# c3,c3,ca
  21	66.26	120.69	# ca,ca,cp
  22	46.34	109.8	# c3,c3,hc
  23	48.18	119.88	# ca,ca,ha
  24	46.8	110.47	# ca,c3,hc

Dihedral Coeffs

   1	1	0.16	3	0.0	# cy,c3,cy,ca
   2	1	0.16	3	0.0	# c3,c3,cy,ca
   3	1	0.16	3	0.0	# hc,c3,cy,ca
   4	3	0.18	3	0.0	0.25	2	180.0	0.2	1	180.0	# cy,c3,cy,cy
   5	1	0.15	3	0	# hc,c3,c3,hc
   6	3	0.18	3	0.0	0.25	2	180.0	0.2	1	180.0	# c3,c3,cy,cy
   7	1	0.16	3	0.0	# hc,c3,cy,cy
   8	1	0.16	3	0.0	# cy,c3,cy,hc
   9	1	0.16	3	0.0	# c3,c3,cy,hc
  10	1	0.15	3	0.0	# hc,c3,cy,hc
  11	1	3.625	2	180	# X,ca,ca,X
  12	1	0.15555555555555556	3	0	# X,cy,cy,X
  13	1	3.625	2	180	# X,ca,cp,X
  14	3	0.18	3	0	0.25	2	180	0.2	1	180	# c3,c3,c3,c3
  15	1	0.15555555555555556	3	0	# X,c3,c3,X
  16	1	0.16	3	0	# hc,c3,c3,c3
  17	1	1.0	2	180	# X,cp,cp,X
  18	1	0.0	2	0.0	# ca,ca,cy,cy
  19	1	0.0	2	0.0	# ca,ca,cy,c3
  20	1	0.0	2	0	# X,c3,ca,X
  21	3	0.38	3	180.0	0.0	2	0.0	1.15	1	0.0	# ca,ca,cy,hc

Improper Coeffs

   1	1.1	-1	2	# ca,X,X,ha

Atoms

   1	1	1	-0.425718	-23.6731	23.1312	-39.5641
   2	1	1	0.123859	-23.185	22.9016	-38.2645
   3	1	1	0.123846	-22.6222	21.706	-37.8605
   4	1	1	-0.442194	-22.4853	20.588	-38.7039
   5	1	1	0.030377	-22.7484	20.9004	-40.0526
   6	1	1	0.003389	-23.3077	22.1074	-40.4609
   7	1	2	0.006267	-23.8634	21.5276	-41.7494
   8	1	2	0.040808	-23.2287	20.1485	-41.2815
   9	1	3	0.010049	-25.3877	21.2398	-41.798
  10	1	2	-0.044998	-25.3757	20.376	-43.0885
  11	1	2	-0.017344	-24.7448	18.995	-42.6169
  12	1	3	0.004207	-24.4571	19.2144	-41.1068
  13	1	3	-0.10977	-25.5876	20.1891	-40.6684
  14	1	1	-0.002799	-26.6307	19.5788	-43.3894
  15	1	1	-0.006419	-26.085	18.3817	-42.9797
  16	1	1	-0.256521	-28.0097	19.823	-43.4113
  17	1	1	0.004841	-28.8225	18.7033	-43.1236
  18	1	4	0.00733	-28.2635	17.4709	-42.7013
  19	1	1	-0.221146	-26.8646	17.3024	-42.5459
  20	1	3	0.21053	-30.3553	18.6669	-43.0609
  21	1	4	0.0182	-29.3621	16.5665	-42.3277
  22	1	1	0.000377	-30.5915	17.2463	-42.5325
  23	1	3	-0.237942	-30.9084	19.7241	-42.079
  24	1	3	-0.215479	-30.9707	18.8548	-44.4653
  25	1	1	-0.2391	-31.8382	16.6032	-42.3509
  26	1	1	-0.027923	-31.7526	15.2952	-41.8599
  27	1	1	-0.180376	-29.315	15.2045	-41.9336
  28	1	1	-0.054224	-30.5646	14.635	-41.6646
  29	1	2	0.006282	-32.5902	14.0299	-41.795
  30	1	2	0.015188	-31.216	13.2661	-41.5722
  31	1	3	0.034756	-33.1381	13.3833	-43.0913
  32	1	3	0.003059	-32.3057	13.7671	-44.3447
  33	1	3	0.042972	-31.1677	12.2899	-42.7738
  34	1	3	0.004163	-30.9615	13.0228	-44.1275
  35	1	3	-0.197219	-32.6627	11.9294	-42.8931
  36	1	5	0.227416	-24.3467	23.9437	-39.8167
  37	1	5	0.230059	-22.3091	19.5808	-38.3403
  38	1	6	0.034807	-23.4586	21.9756	-42.6645
  39	1	6	0.022109	-22.4291	19.7321	-41.9055
  40	1	6	0.043894	-26.056	22.1098	-41.7898
  41	1	6	0.04727	-24.9191	20.8626	-43.9586
  42	1	6	0.039454	-23.8926	18.6133	-43.1917
  43	1	6	0.037752	-24.3124	18.3157	-40.4946
  44	1	6	0.046701	-26.5827	19.7262	-40.6856
  45	1	6	0.047659	-25.4243	20.6055	-39.6682
  46	1	5	0.173906	-28.4199	20.8137	-43.5794
  47	1	5	0.156928	-26.4344	16.4303	-42.0644
  48	1	6	0.056509	-31.996	19.6283	-41.973
  49	1	6	0.064596	-30.6879	20.74	-42.4285
  50	1	6	0.065502	-30.4581	19.6001	-41.086
  51	1	6	0.062922	-30.7167	19.8403	-44.8744
  52	1	6	0.049805	-32.0637	18.7697	-44.4313
  53	1	6	0.059229	-30.5912	18.0921	-45.1572
  54	1	5	0.166497	-32.7832	17.0684	-42.6138
  55	1	5	0.141714	-28.3908	14.637	-41.8953
  56	1	6	0.041341	-33.298	13.9569	-40.962
  57	1	6	0.038019	-31.1275	12.748	-40.6109
  58	1	6	0.012124	-34.2209	13.4925	-43.2321
  59	1	6	0.001144	-32.1743	14.8495	-44.4579
  60	1	6	0.009013	-30.5023	11.4287	-42.6342
  61	1	6	0.001345	-30.101	13.7018	-44.121
  62	1	6	0.041603	-33.0656	11.4684	-41.9805
  63	1	6	0.069352	-32.8821	11.2839	-43.7553
  64	1	1	-0.425718	-14.1571	26.3065	-27.459
  65	1	1	0.123859	-14.2167	25.7498	-26.169
  66	1	1	0.123846	-14.4455	24.4098	-25.9212
  67	1	1	-0.442194	-14.6695	23.4611	-26.9372
  68	1	1	0.030377	-14.3788	23.9734	-28.2179
  69	1	1	0.003389	-14.1256	25.3191	-28.4625
  70	1	2	0.006267	-14.5149	25.2298	-29.9251
  71	1	2	0.040808	-14.8105	23.6932	-29.648
  72	1	3	0.010049	-15.896	25.8127	-30.3243
  73	1	2	-0.044998	-15.9526	25.1891	-31.7435
  74	1	2	-0.017344	-16.2552	23.6483	-31.4724
  75	1	3	0.004207	-16.3335	23.5547	-29.9235
  76	1	3	-0.10977	-16.8991	24.9442	-29.512
  77	1	1	-0.002799	-17.2916	25.2171	-32.4519
  78	1	1	-0.006419	-17.5533	23.8886	-32.2218
  79	1	1	-0.256521	-18.2729	26.147	-32.8126
  80	1	1	0.004841	-19.5477	25.589	-33.064
  81	1	4	0.00733	-19.8193	24.2146	-32.8365
  82	1	1	-0.221146	-18.8301	23.3277	-32.3374
  83	1	3	0.21053	-20.8089	26.3352	-33.5166
  84	1	4	0.0182	-21.2403	23.9686	-33.1277
  85	1	1	0.000377	-21.8308	25.1911	-33.5402
  86	1	3	-0.237942	-21.2173	27.4235	-32.4992
  87	1	3	-0.215479	-20.6142	26.9494	-34.9212
  88	1	1	-0.2391	-23.1491	25.2445	-34.0474
  89	1	1	-0.027923	-23.8464	24.0308	-34.0089
  90	1	1	-0.180376	-21.9402	22.7379	-33.2037
  91	1	1	-0.054224	-23.2766	22.8441	-33.6076
  92	1	2	0.006282	-24.978	23.3561	-34.7654
  93	1	2	0.015188	-24.3213	21.984	-34.2998
  94	1	3	0.034756	-24.9377	23.2541	-36.3129
  95	1	3	0.003059	-23.4761	23.3604	-36.8466
  96	1	3	0.042972	-23.9984	21.2791	-35.643
  97	1	3	0.004163	-22.8275	21.9921	-36.384
  98	1	3	-0.197219	-25.2277	21.7424	-36.4584
  99	1	5	0.227416	-14.2369	27.3701	-27.6586
 100	1	5	0.230059	-15.1162	22.4877	-26.7622
 101	1	6	0.034807	-13.7051	25.4616	-30.627
 102	1	6	0.022109	-14.1876	22.964	-30.1796
 103	1	6	0.043894	-16.0128	26.9014	-30.2559
 104	1	6	0.04727	-15.092	25.4254	-32.3805
 105	1	6	0.039454	-15.5832	22.9179	-31.9385
 106	1	6	0.037752	-16.8339	22.6723	-29.5056
 107	1	6	0.046701	-17.9412	25.0906	-29.8245
 108	1	6	0.047659	-16.8384	25.124	-28.4323
 109	1	5	0.173906	-18.0751	27.2126	-32.8711
 110	1	5	0.156928	-19.0513	22.3072	-32.0422
 111	1	6	0.056509	-22.1657	27.8929	-32.7883
 112	1	6	0.064596	-20.4531	28.2074	-32.4339
 113	1	6	0.065502	-21.3447	26.9881	-31.4999
 114	1	6	0.062922	-20.3374	26.1729	-35.6458
 115	1	6	0.049805	-19.8182	27.7041	-34.9117
 116	1	6	0.059229	-21.5351	27.43	-35.2727
 117	1	5	0.166497	-23.5626	26.1376	-34.5054
 118	1	5	0.141714	-21.4519	21.7812	-33.049
 119	1	6	0.041341	-25.9903	23.5341	-34.3862
 120	1	6	0.038019	-24.9531	21.3693	-33.6491
 121	1	6	0.012124	-25.6497	23.905	-36.8355
 122	1	6	0.001144	-22.913	24.2544	-36.5539
 123	1	6	0.009013	-23.8832	20.1901	-35.575
 124	1	6	0.001345	-21.8891	22.0972	-35.827
 125	1	6	0.041603	-26.1795	21.4466	-35.9951
 126	1	6	0.069352	-25.2278	21.39	-37.4965
 127	1	1	-0.425718	-6.76235	22.5507	-13.718
 128	1	1	0.123859	-7.08141	21.7012	-12.6398
 129	1	1	0.123846	-8.05191	20.7176	-12.6962
 130	1	1	-0.442194	-8.8161	20.4272	-13.8409
 131	1	1	0.030377	-8.61851	21.3874	-14.8491
 132	1	1	0.003389	-7.66697	22.3951	-14.7876
 133	1	2	0.006267	-7.72862	22.6802	-16.2783
 134	1	2	0.040808	-8.80752	21.5111	-16.348
 135	1	3	0.010049	-8.52781	23.9398	-16.7166
 136	1	2	-0.044998	-8.60424	23.5999	-18.2294
 137	1	2	-0.017344	-9.66815	22.4144	-18.3032
 138	1	3	0.004207	-10.102	22.2187	-16.8257
 139	1	3	-0.10977	-9.97151	23.6451	-16.2169
 140	1	1	-0.002799	-9.5923	24.3854	-19.0734
 141	1	1	-0.006419	-10.5009	23.3604	-19.1451
 142	1	1	-0.256521	-9.89178	25.7077	-19.4207
 143	1	1	0.004841	-11.1791	25.8884	-19.9817
 144	1	4	0.00733	-12.1151	24.8238	-20.0706
 145	1	1	-0.221146	-11.8168	23.5219	-19.5909
 146	1	3	0.21053	-11.7803	27.1962	-20.5125
 147	1	4	0.0182	-13.3585	25.3441	-20.6622
 148	1	1	0.000377	-13.177	26.724	-20.9384
 149	1	3	-0.237942	-11.8709	28.2689	-19.4047
 150	1	3	-0.215479	-10.9722	27.7268	-21.7181
 151	1	1	-0.2391	-14.1374	27.4685	-21.6604
 152	1	1	-0.027923	-15.3077	26.7696	-21.9801
 153	1	1	-0.180376	-14.5104	24.64	-21.0987
 154	1	1	-0.054224	-15.4884	25.4318	-21.714
 155	1	2	0.006282	-16.392	26.8145	-23.0414
 156	1	2	0.015188	-16.6129	25.2707	-22.727
 157	1	3	0.034756	-16.0111	26.8125	-24.5444
 158	1	3	0.003059	-14.601	26.1814	-24.7665
 159	1	3	0.042972	-16.3575	24.5958	-24.101
 160	1	3	0.004163	-14.8472	24.6446	-24.4753
 161	1	3	-0.197219	-16.9535	25.6843	-25.0237
 162	1	5	0.227416	-5.87128	23.169	-13.7589
 163	1	5	0.230059	-9.39825	19.5202	-13.9676
 164	1	6	0.034807	-6.77989	22.5472	-16.8115
 165	1	6	0.022109	-8.55989	20.606	-16.9155
 166	1	6	0.043894	-8.10065	24.9146	-16.4497
 167	1	6	0.04727	-7.63101	23.4272	-18.7039
 168	1	6	0.039454	-9.35942	21.4945	-18.8139
 169	1	6	0.037752	-11.0473	21.6897	-16.6521
 170	1	6	0.046701	-10.7132	24.3484	-16.6172
 171	1	6	0.047659	-10.0522	23.651	-15.1221
 172	1	5	0.173906	-9.19752	26.5268	-19.262
 173	1	5	0.156928	-12.5512	22.7239	-19.5569
 174	1	6	0.056509	-10.8726	28.5573	-19.0536
 175	1	6	0.064596	-12.4376	27.8886	-18.5454
 176	1	6	0.065502	-12.3777	29.1691	-19.7735
 177	1	6	0.062922	-10.9208	26.9689	-22.5103
 178	1	6	0.049805	-9.94649	27.9784	-21.4218
 179	1	6	0.059229	-11.4359	28.6273	-22.1384
 180	1	5	0.166497	-13.9512	28.4793	-22.0098
 181	1	5	0.141714	-14.5886	23.5592	-21.0381
 182	1	6	0.041341	-17.2546	27.4561	-22.8303
 183	1	6	0.038019	-17.5994	25.0217	-22.3205
 184	1	6	0.012124	-16.1544	27.7722	-25.0566
 185	1	6	0.001144	-13.7709	26.6258	-24.2049
 186	1	6	0.009013	-16.8119	23.604	-24.2182
 187	1	6	0.001345	-14.1525	24.2006	-23.7526
 188	1	6	0.041603	-18.0103	25.8927	-24.8048
 189	1	6	0.069352	-16.8634	25.4567	-26.0928
 190	1	1	-0.425718	-0.797037	8.82629	-10.9465
 191	1	1	0.123859	-1.18913	7.91164	-9.95144
 192	1	1	0.123846	-2.50635	7.71385	-9.58145
 193	1	1	-0.442194	-3.59162	8.38121	-10.1787
 194	1	1	0.030377	-3.21671	9.08715	-11.3392
 195	1	1	0.003389	-1.88941	9.30933	-11.6939
 196	1	2	0.006267	-2.20588	10.5719	-12.4761
 197	1	2	0.040808	-3.72241	10.3098	-12.0843
 198	1	3	0.010049	-1.87704	11.9303	-11.7957
 199	1	2	-0.044998	-2.66635	12.8329	-12.7807
 200	1	2	-0.017344	-4.19092	12.5618	-12.4068
 201	1	3	0.004207	-4.11077	11.5478	-11.2342
 202	1	3	-0.10977	-2.77774	11.9253	-10.5276
 203	1	1	-0.002799	-2.93037	14.2646	-12.3494
 204	1	1	-0.006419	-4.24737	14.0298	-12.0357
 205	1	1	-0.256521	-2.21486	15.3749	-11.883
 206	1	1	0.004841	-2.99198	16.3243	-11.1775
 207	1	4	0.00733	-4.35213	16.0809	-10.8563
 208	1	1	-0.221146	-5.00716	14.8791	-11.2255
 209	1	3	0.21053	-2.51876	17.6592	-10.5854
 210	1	4	0.0182	-4.86251	17.2253	-10.0882
 211	1	1	0.000377	-3.82383	18.1841	-9.96913
 212	1	3	-0.237942	-1.45299	17.4293	-9.49067
 213	1	3	-0.215479	-1.9766	18.6056	-11.6798
 214	1	1	-0.2391	-4.07525	19.489	-9.48357
 215	1	1	-0.027923	-5.3788	19.704	-9.01719
 216	1	1	-0.180376	-6.19145	17.5047	-9.68453
 217	1	1	-0.054224	-6.37428	18.7566	-9.08723
 218	1	2	0.006282	-6.34593	20.8647	-8.83696
 219	1	2	0.015188	-7.49358	19.7658	-8.91259
 220	1	3	0.034756	-6.69374	21.8063	-10.0235
 221	1	3	0.003059	-6.42326	21.1198	-11.397
 222	1	3	0.042972	-8.33332	20.2148	-10.1329
 223	1	3	0.004163	-7.54602	20.0038	-11.4613
 224	1	3	-0.197219	-8.23729	21.746	-9.93542
 225	1	5	0.227416	0.214553	9.20701	-11.0434
 226	1	5	0.230059	-4.57632	8.44451	-9.72704
 227	1	6	0.034807	-1.95363	10.5265	-13.5421
 228	1	6	0.022109	-4.41694	10.0898	-12.9038
 229	1	6	0.043894	-0.81588	12.167	-11.6491
 230	1	6	0.04727	-2.38187	12.7142	-13.8329
 231	1	6	0.039454	-4.86165	12.2659	-13.2223
 232	1	6	0.037752	-5.0	11.453	-10.5987
 233	1	6	0.046701	-2.8196	12.9017	-10.0277
 234	1	6	0.047659	-2.46531	11.1795	-9.78997
 235	1	5	0.173906	-1.14539	15.4851	-12.0317
 236	1	5	0.156928	-6.00715	14.6274	-10.8878
 237	1	6	0.056509	-0.541593	16.9896	-9.9138
 238	1	6	0.064596	-1.83385	16.7453	-8.72129
 239	1	6	0.065502	-1.18466	18.3733	-9.00079
 240	1	6	0.062922	-1.68026	19.5712	-11.2525
 241	1	6	0.049805	-2.74118	18.7909	-12.4447
 242	1	6	0.059229	-1.09928	18.1698	-12.1732
 243	1	5	0.166497	-3.33842	20.2844	-9.53492
 244	1	5	0.141714	-7.0197	16.8414	-9.91191
 245	1	6	0.041341	-6.28694	21.4022	-7.88414
 246	1	6	0.038019	-8.09888	19.6684	-8.00453
 247	1	6	0.012124	-6.27568	22.8177	-9.94467
 248	1	6	0.001144	-5.40426	20.7499	-11.5647
 249	1	6	0.009013	-9.3576	19.8222	-10.1563
 250	1	6	0.001345	-7.178	18.9915	-11.6639
 251	1	6	0.041603	-8.61789	22.0709	-8.95677
 252	1	6	0.069352	-8.75132	22.328	-10.7119
 253	1	1	-0.425718	-1.20345	-4.92636	-3.40711
 254	1	1	0.123859	-1.34928	-4.96905	-2.01058
 255	1	1	0.123846	-2.29887	-4.2409	-1.32033
 256	1	1	-0.442194	-3.25161	-3.41626	-1.95054
 257	1	1	0.030377	-3.27547	-3.58815	-3.3518
 258	1	1	0.003389	-2.28613	-4.28724	-4.03891
 259	1	2	0.006267	-2.47168	-3.49765	-5.31853
 260	1	2	0.040808	-3.62731	-2.7233	-4.55416
 261	1	3	0.010049	-1.41808	-2.39286	-5.61175
 262	1	2	-0.044998	-2.18374	-1.70601	-6.77021
 263	1	2	-0.017344	-3.3774	-0.948951	-6.04635
 264	1	3	0.004207	-3.14561	-1.2501	-4.5376
 265	1	3	-0.10977	-1.60075	-1.39234	-4.43365
 266	1	1	-0.002799	-1.69918	-0.329328	-7.18773
 267	1	1	-0.006419	-2.75315	0.324901	-6.58252
 268	1	1	-0.256521	-0.448256	0.273875	-7.3843
 269	1	1	0.004841	-0.38607	1.65348	-7.08431
 270	1	4	0.00733	-1.48344	2.33244	-6.5019
 271	1	1	-0.221146	-2.67822	1.65612	-6.15734
 272	1	3	0.21053	0.844475	2.56762	-7.16828
 273	1	4	0.0182	-1.0767	3.71289	-6.20785
 274	1	1	0.000377	0.274434	3.87738	-6.60586
 275	1	3	-0.237942	1.99299	2.04337	-6.27718
 276	1	3	-0.215479	1.32056	2.7311	-8.62857
 277	1	1	-0.2391	0.902335	5.14462	-6.59139
 278	1	1	-0.027923	0.123787	6.18295	-6.06313
 279	1	1	-0.180376	-1.87131	4.80584	-5.78237
 280	1	1	-0.054224	-1.18836	6.02236	-5.68079
 281	1	2	0.006282	0.0131316	7.69417	-6.18965
 282	1	2	0.015188	-1.50643	7.50419	-5.75802
 283	1	3	0.034756	-0.102845	8.36526	-7.58311
 284	1	3	0.003059	-0.636172	7.36152	-8.6483
 285	1	3	0.042972	-2.28742	8.07371	-6.97027
 286	1	3	0.004163	-2.14471	7.14924	-8.21958
 287	1	3	-0.197219	-1.34485	9.24745	-7.32192
 288	1	5	0.227416	-0.301194	-5.23715	-3.92383
 289	1	5	0.230059	-3.81562	-2.64955	-1.42933
 290	1	6	0.034807	-2.76302	-4.09447	-6.1909
 291	1	6	0.022109	-4.64779	-2.85656	-4.93236
 292	1	6	0.043894	-0.394758	-2.72653	-5.8241
 293	1	6	0.04727	-2.44396	-2.37313	-7.60055
 294	1	6	0.039454	-4.39234	-1.15786	-6.4049
 295	1	6	0.037752	-3.63145	-0.580241	-3.81737
 296	1	6	0.046701	-1.07214	-0.443033	-4.58714
 297	1	6	0.047659	-1.27852	-1.805	-3.47268
 298	1	5	0.173906	0.42801	-0.295231	-7.67822
 299	1	5	0.156928	-3.44686	2.11408	-5.54343
 300	1	6	0.056509	2.36424	1.07708	-6.63955
 301	1	6	0.064596	1.64773	1.90912	-5.24398
 302	1	6	0.065502	2.83182	2.75002	-6.26455
 303	1	6	0.062922	0.50984	3.12129	-9.25677
 304	1	6	0.049805	1.64014	1.76787	-9.04503
 305	1	6	0.059229	2.16603	3.42677	-8.69157
 306	1	5	0.166497	1.88292	5.31595	-7.02437
 307	1	5	0.141714	-2.94339	4.72353	-5.63498
 308	1	6	0.041341	0.618241	8.28512	-5.49334
 309	1	6	0.038019	-1.78312	7.99285	-4.81724
 310	1	6	0.012124	0.788376	8.91969	-7.90275
 311	1	6	0.001144	-0.0635179	6.43503	-8.77454
 312	1	6	0.009013	-3.32102	8.37108	-6.75333
 313	1	6	0.001345	-2.43959	6.10138	-8.0897
 314	1	6	0.041603	-1.20219	9.94378	-6.48357
 315	1	6	0.069352	-1.66632	9.82487	-8.19506
 316	1	1	-0.425718	-2.48238	-12.4512	10.1084
 317	1	1	0.123859	-1.79783	-12.0776	11.2762
 318	1	1	0.123846	-1.84233	-10.806	11.821
 319	1	1	-0.442194	-2.57864	-9.7539	11.2326
 320	1	1	0.030377	-3.45846	-10.1947	10.2174
 321	1	1	0.003389	-3.40857	-11.4813	9.68955
 322	1	2	0.006267	-3.99561	-11.0723	8.35656
 323	1	2	0.040808	-4.08509	-9.605	8.95491
 324	1	3	0.010049	-2.99607	-10.9397	7.17503
 325	1	2	-0.044998	-3.96637	-10.2505	6.18812
 326	1	2	-0.017344	-4.12287	-8.77777	6.76198
 327	1	3	0.004207	-3.18359	-8.76773	8.00678
 328	1	3	-0.10977	-2.06625	-9.7732	7.61323
 329	1	1	-0.002799	-3.34281	-9.60457	4.96523
 330	1	1	-0.006419	-3.51784	-8.32236	5.44495
 331	1	1	-0.256521	-2.31213	-9.94103	4.07434
 332	1	1	0.004841	-1.58737	-8.84997	3.54333
 333	1	4	0.00733	-1.82996	-7.5235	3.97405
 334	1	1	-0.221146	-2.74574	-7.23685	5.01532
 335	1	3	0.21053	-0.382899	-8.9072	2.59163
 336	1	4	0.0182	-0.868068	-6.63399	3.31043
 337	1	1	0.000377	0.0027724	-7.42316	2.51815
 338	1	3	-0.237942	0.770711	-9.74991	3.18016
 339	1	3	-0.215479	-0.79925	-9.44946	1.20596
 340	1	1	-0.2391	0.964518	-6.83698	1.66369
 341	1	1	-0.027923	1.02442	-5.43696	1.70543
 342	1	1	-0.180376	-0.875921	-5.22035	3.22615
 343	1	1	-0.054224	0.128587	-4.6732	2.42087
 344	1	2	0.006282	1.38311	-4.30669	0.753663
 345	1	2	0.015188	0.323731	-3.43759	1.55987
 346	1	3	0.034756	0.827518	-4.28877	-0.691291
 347	1	3	0.003059	-0.461332	-5.15371	-0.799237
 348	1	3	0.042972	-0.717421	-3.06334	0.467326
 349	1	3	0.004163	-1.53709	-4.30892	-0.00270268
 350	1	3	-0.197219	0.257115	-2.85237	-0.713689
 351	1	5	0.227416	-2.22168	-13.3247	9.51955
 352	1	5	0.230059	-2.39068	-8.70663	11.4464
 353	1	6	0.034807	-4.94136	-11.5649	8.10165
 354	1	6	0.022109	-5.08966	-9.1885	9.09358
 355	1	6	0.043894	-2.50942	-11.8604	6.82969
 356	1	6	0.04727	-4.88721	-10.812	5.99053
 357	1	6	0.039454	-5.14202	-8.42331	6.95601
 358	1	6	0.037752	-2.85768	-7.78682	8.37439
 359	1	6	0.046701	-1.42138	-9.40489	6.80532
 360	1	6	0.047659	-1.428	-10.0409	8.45644
 361	1	5	0.173906	-2.04283	-10.9717	3.86618
 362	1	5	0.156928	-2.78801	-6.2657	5.49764
 363	1	6	0.056509	1.65083	-9.71747	2.52594
 364	1	6	0.064596	0.472133	-10.7984	3.29923
 365	1	6	0.065502	1.0658	-9.36516	4.16461
 366	1	6	0.062922	-1.16967	-10.4788	1.28438
 367	1	6	0.049805	0.0474797	-9.44342	0.508746
 368	1	6	0.059229	-1.59853	-8.83275	0.775357
 369	1	5	0.166497	1.53787	-7.41937	0.949046
 370	1	5	0.141714	-1.66413	-4.61795	3.66633
 371	1	6	0.041341	2.41388	-3.93905	0.805308
 372	1	6	0.038019	0.737525	-2.5553	2.06069
 373	1	6	0.012124	1.56913	-4.49565	-1.47297
 374	1	6	0.001144	-0.378001	-6.20137	-0.490544
 375	1	6	0.009013	-1.33678	-2.18913	0.704019
 376	1	6	0.001345	-2.06266	-4.86803	0.780572
 377	1	6	0.041603	1.01986	-2.08922	-0.50389
 378	1	6	0.069352	-0.239428	-2.59034	-1.65379
 379	1	1	-0.425718	11.365	-12.144	16.1689
 380	1	1	0.123859	11.7971	-10.9918	15.4783
 381	1	1	0.123846	11.5154	-9.70257	15.8948
 382	1	1	-0.442194	10.642	-9.42817	16.9615
 383	1	1	0.030377	10.3673	-10.5617	17.7477
 384	1	1	0.003389	10.7728	-11.8524	17.4189
 385	1	2	0.006267	9.70773	-12.5023	18.2976
 386	1	2	0.040808	9.18958	-11.0306	18.58
 387	1	3	0.010049	8.51862	-13.2013	17.6003
 388	1	2	-0.044998	7.57012	-13.2742	18.8383
 389	1	2	-0.017344	7.01905	-11.797	18.9747
 390	1	3	0.004207	7.78985	-11.0073	17.888
 391	1	3	-0.10977	7.91838	-12.0544	16.7428
 392	1	1	-0.002799	6.13927	-13.6751	18.5461
 393	1	1	-0.006419	5.66141	-12.3756	18.5903
 394	1	1	-0.256521	5.60145	-14.6604	17.713
 395	1	1	0.004841	4.48158	-14.2818	16.9472
 396	1	4	0.00733	4.02444	-12.9411	16.9251
 397	1	1	-0.221146	4.64592	-11.9416	17.7193
 398	1	3	0.21053	3.83707	-15.1151	15.8363
 399	1	4	0.0182	3.1349	-12.7809	15.7553
 400	1	1	0.000377	3.0552	-14.0314	15.0916
 401	1	3	-0.237942	4.90135	-15.7805	14.929
 402	1	3	-0.215479	2.88292	-16.1796	16.419
 403	1	1	-0.2391	2.55018	-14.1391	13.7811
 404	1	1	-0.027923	2.02997	-12.9638	13.2375
 405	1	1	-0.180376	2.68412	-11.5875	15.1288
 406	1	1	-0.054224	2.05104	-11.7422	13.8843
 407	1	2	0.006282	2.07174	-12.3567	11.8542
 408	1	2	0.015188	2.06101	-10.9493	12.5811
 409	1	3	0.034756	0.792129	-12.3407	10.9993
 410	1	3	0.003059	-0.468742	-12.4161	11.9102
 411	1	3	0.042972	0.765661	-10.2953	12.0197
 412	1	3	0.004163	-0.521386	-10.9812	12.5718
 413	1	3	-0.197219	0.826705	-10.8544	10.5813
 414	1	5	0.227416	11.3552	-13.133	15.7221
 415	1	5	0.230059	10.1191	-8.48361	17.071
 416	1	6	0.034807	10.1045	-13.0608	19.1535
 417	1	6	0.022109	9.19215	-10.6933	19.6232
 418	1	6	0.043894	8.73673	-14.1436	17.0825
 419	1	6	0.04727	8.0125	-13.7292	19.7324
 420	1	6	0.039454	7.05641	-11.3383	19.97
 421	1	6	0.037752	7.38687	-10.024	17.6157
 422	1	6	0.046701	6.95988	-12.3211	16.282
 423	1	6	0.047659	8.58989	-11.7346	15.9427
 424	1	5	0.173906	6.10485	-15.6097	17.5628
 425	1	5	0.156928	4.45818	-10.8866	17.5492
 426	1	6	0.056509	4.43369	-16.3033	14.0864
 427	1	6	0.064596	5.492	-16.5169	15.4864
 428	1	6	0.065502	5.58837	-15.0264	14.5244
 429	1	6	0.062922	2.37131	-16.7259	15.6169
 430	1	6	0.049805	2.11767	-15.7096	17.0499
 431	1	6	0.059229	3.43211	-16.9033	17.0336
 432	1	5	0.166497	2.67786	-15.0359	13.1835
 433	1	5	0.141714	2.93638	-10.6083	15.5226
 434	1	6	0.041341	2.95791	-12.5888	11.2531
 435	1	6	0.038019	2.93657	-10.3121	12.4141
 436	1	6	0.012124	0.785479	-13.0522	10.164
 437	1	6	0.001144	-0.514636	-13.2531	12.6188
 438	1	6	0.009013	0.741963	-9.19982	12.0765
 439	1	6	0.001345	-0.622106	-10.9968	13.6648
 440	1	6	0.041603	1.75239	-10.5797	10.0559
 441	1	6	0.069352	-0.0195879	-10.5545	9.96085
 442	1	1	-0.425718	23.9293	-4.9564	15.3327
 443	1	1	0.123859	24.3077	-4.42733	16.5782
 444	1	1	0.123846	23.37	-3.87516	17.4542
 445	1	1	-0.442194	22.0129	-3.72808	17.1047
 446	1	1	0.030377	21.6677	-4.10361	15.7917
 447	1	1	0.003389	22.5911	-4.74897	14.9639
 448	1	2	0.006267	21.589	-5.79837	14.5185
 449	1	2	0.040808	20.5268	-5.01899	15.3802
 450	1	3	0.010049	21.0417	-5.7347	13.0747
 451	1	2	-0.044998	19.8738	-6.73602	13.3094
 452	1	2	-0.017344	18.8032	-5.88321	14.102
 453	1	3	0.004207	19.5015	-4.51482	14.3188
 454	1	3	-0.10977	20.3483	-4.34646	13.028
 455	1	1	-0.002799	18.8314	-6.86601	12.2223
 456	1	1	-0.006419	17.9078	-6.0719	12.8862
 457	1	1	-0.256521	18.4445	-7.98616	11.4732
 458	1	1	0.004841	17.0582	-8.17213	11.2939
 459	1	4	0.00733	16.1144	-7.29771	11.8816
 460	1	1	-0.221146	16.5249	-6.27281	12.7683
 461	1	3	0.21053	16.3752	-9.42274	10.7224
 462	1	4	0.0182	14.7701	-7.86511	11.6871
 463	1	1	0.000377	14.909	-9.13211	11.0613
 464	1	3	-0.237942	16.5917	-9.53119	9.1975
 465	1	3	-0.215479	16.8601	-10.7092	11.4314
 466	1	1	-0.2391	13.8151	-10.0186	10.9288
 467	1	1	-0.027923	12.5874	-9.47886	11.3223
 468	1	1	-0.180376	13.5102	-7.37341	12.1199
 469	1	1	-0.054224	12.4293	-8.21254	11.8255
 470	1	2	0.006282	11.1844	-9.92232	11.6859
 471	1	2	0.015188	10.9767	-8.43383	12.2164
 472	1	3	0.034756	10.9362	-10.7751	12.9626
 473	1	3	0.003059	12.0628	-10.5719	14.034
 474	1	3	0.042972	10.5716	-8.63751	13.6925
 475	1	3	0.004163	11.7902	-9.09732	14.5345
 476	1	3	-0.197219	9.76804	-9.94834	13.5483
 477	1	5	0.227416	24.499	-5.7682	14.8914
 478	1	5	0.230059	21.2521	-3.68834	17.8781
 479	1	6	0.034807	21.8607	-6.81375	14.8318
 480	1	6	0.022109	20.0612	-5.54736	16.2211
 481	1	6	0.043894	21.7474	-5.96961	12.268
 482	1	6	0.04727	20.1893	-7.69685	13.7342
 483	1	6	0.039454	18.3832	-6.3053	15.023
 484	1	6	0.037752	18.8593	-3.67314	14.6067
 485	1	6	0.046701	19.7328	-4.21078	12.1291
 486	1	6	0.047659	21.0601	-3.51331	13.0945
 487	1	5	0.173906	19.1614	-8.74854	11.1853
 488	1	5	0.156928	15.8192	-5.78478	13.4325
 489	1	6	0.056509	16.2402	-8.62295	8.69181
 490	1	6	0.064596	16.0417	-10.3853	8.78369
 491	1	6	0.065502	17.6553	-9.66065	8.96247
 492	1	6	0.062922	17.927	-10.8838	11.2488
 493	1	6	0.049805	16.3088	-11.5874	11.0736
 494	1	6	0.059229	16.7077	-10.632	12.5156
 495	1	5	0.166497	13.9213	-11.0416	10.5817
 496	1	5	0.141714	13.399	-6.44219	12.6661
 497	1	6	0.041341	10.5329	-10.2138	10.8546
 498	1	6	0.038019	10.2343	-7.84809	11.6631
 499	1	6	0.012124	10.6925	-11.8274	12.77
 500	1	6	0.001144	13.0911	-10.7508	13.6949
 501	1	6	0.009013	10.0113	-7.80554	14.1371
 502	1	6	0.001345	12.668	-8.43992	14.5198
 503	1	6	0.041603	8.92169	-9.85316	12.8535
 504	1	6	0.069352	9.38638	-10.3302	14.4988
 505	1	1	-0.425718	23.3171	-14.8538	24.6194
 506	1	1	0.123859	21.94	-15.1279	24.7203
 507	1	1	0.123846	21.032	-14.1923	25.2103
 508	1	1	-0.442194	21.4271	-12.8996	25.5938
 509	1	1	0.030377	22.8153	-12.681	25.6308
 510	1	1	0.003389	23.737	-13.6335	25.1843
 511	1	2	0.006267	24.6511	-12.59	24.565
 512	1	2	0.040808	23.5896	-11.5229	25.0324
 513	1	3	0.010049	25.9479	-12.1738	25.3225
 514	1	2	-0.044998	26.2664	-10.9419	24.432
 515	1	2	-0.017344	25.1832	-9.88243	24.8539
 516	1	3	0.004207	24.3817	-10.5882	25.9809
 517	1	3	-0.10977	25.4219	-11.5356	26.6356
 518	1	1	-0.002799	27.3029	-9.92513	24.8916
 519	1	1	-0.006419	26.3368	-8.98126	25.2389
 520	1	1	-0.256521	28.4717	-9.56329	24.2027
 521	1	1	0.004841	28.6234	-8.20512	23.8444
 522	1	4	0.00733	27.6202	-7.25836	24.1511
 523	1	1	-0.221146	26.4604	-7.63628	24.8666
 524	1	3	0.21053	29.5655	-7.66032	22.7596
 525	1	4	0.0182	27.6988	-6.16282	23.1636
 526	1	1	0.000377	28.742	-6.46205	22.261
 527	1	3	-0.237942	30.8942	-7.18422	23.3854
 528	1	3	-0.215479	29.8523	-8.69684	21.6425
 529	1	1	-0.2391	28.705	-5.97944	20.9358
 530	1	1	-0.027923	27.6036	-5.19327	20.5623
 531	1	1	-0.180376	26.6316	-5.3115	22.7905
 532	1	1	-0.054224	26.6118	-4.82443	21.4754
 533	1	2	0.006282	26.5868	-5.5667	19.4948
 534	1	2	0.015188	25.4811	-5.08694	20.4983
 535	1	3	0.034756	26.3542	-4.66764	18.2653
 536	1	3	0.003059	25.0151	-5.19465	17.6725
 537	1	3	0.042972	24.7955	-3.92013	19.7381
 538	1	3	0.004163	23.9326	-4.62502	18.6557
 539	1	3	-0.197219	25.9454	-3.32292	18.9016
 540	1	5	0.227416	23.9353	-15.3759	23.8959
 541	1	5	0.230059	20.7315	-12.0681	25.5393
 542	1	6	0.034807	24.801	-12.7274	23.4874
 543	1	6	0.022109	23.0261	-10.9834	24.2612
 544	1	6	0.043894	26.7341	-12.9334	25.4168
 545	1	6	0.04727	26.3514	-11.1925	23.3674
 546	1	6	0.039454	24.5491	-9.45608	24.0665
 547	1	6	0.037752	23.7945	-9.94773	26.6507
 548	1	6	0.046701	26.2021	-10.9925	27.1847
 549	1	6	0.047659	24.962	-12.2706	27.309
 550	1	5	0.173906	29.0931	-10.3296	23.7518
 551	1	5	0.156928	25.582	-7.00076	24.8586
 552	1	6	0.056509	31.5309	-6.70262	22.6329
 553	1	6	0.064596	31.4467	-8.02754	23.8179
 554	1	6	0.065502	30.7064	-6.45705	24.1857
 555	1	6	0.062922	30.4705	-8.2615	20.8486
 556	1	6	0.049805	28.9177	-9.05642	21.1938
 557	1	6	0.059229	30.3996	-9.56118	22.037
 558	1	5	0.166497	29.342	-6.41086	20.1712
 559	1	5	0.141714	25.7195	-5.29692	23.3765
 560	1	6	0.041341	26.5897	-6.62874	19.223
 561	1	6	0.038019	24.7538	-5.83521	20.8345
 562	1	6	0.012124	27.1855	-4.61737	17.551
 563	1	6	0.001144	24.9597	-6.28489	17.5493
 564	1	6	0.009013	24.248	-3.20263	20.362
 565	1	6	0.001345	23.253	-5.39622	19.0431
 566	1	6	0.041603	26.7378	-2.87632	19.5164
 567	1	6	0.069352	25.6114	-2.57676	18.1686
 568	1	1	-0.425718	8.044	-23.6597	25.0021
 569	1	1	0.123859	7.98733	-23.8262	26.4029
 570	1	1	0.123846	8.00081	-22.7116	27.2909
 571	1	1	-0.442194	8.04521	-21.3909	26.7665
 572	1	1	0.030377	7.94281	-21.2627	25.376
 573	1	1	0.003389	7.95196	-22.348	24.5344
 574	1	2	0.006267	8.49725	-21.5703	23.3532
 575	1	2	0.040808	8.47059	-20.308	24.3168
 576	1	3	0.010049	10.0057	-21.7639	23.0325
 577	1	2	-0.044998	10.1456	-20.5721	22.0508
 578	1	2	-0.017344	10.0939	-19.2926	22.9928
 579	1	3	0.004207	9.961	-19.8901	24.4221
 580	1	3	-0.10977	10.7168	-21.2469	24.3167
 581	1	1	-0.002799	11.5556	-20.1283	21.7026
 582	1	1	-0.006419	11.5006	-19.0084	22.5038
 583	1	1	-0.256521	12.7614	-20.747	21.3429
 584	1	1	0.004841	13.9319	-20.0483	21.7194
 585	1	4	0.00733	13.8716	-18.8804	22.519
 586	1	1	-0.221146	12.6417	-18.3711	23.003
 587	1	3	0.21053	15.3878	-20.4668	21.4675
 588	1	4	0.0182	15.2436	-18.456	22.8309
 589	1	1	0.000377	16.145	-19.3681	22.2282
 590	1	3	-0.237942	15.691	-21.8608	22.0599
 591	1	3	-0.215479	15.7133	-20.4366	19.9571
 592	1	1	-0.2391	17.5396	-19.1334	22.2229
 593	1	1	-0.027923	17.9628	-18.0097	22.9461
 594	1	1	-0.180376	15.6911	-17.252	23.4274
 595	1	1	-0.054224	17.0805	-17.107	23.5033
 596	1	2	0.006282	19.0818	-16.9912	22.8146
 597	1	2	0.015188	18.0575	-15.9497	23.4337
 598	1	3	0.034756	20.2353	-16.9968	23.8528
 599	1	3	0.003059	20.9734	-15.6418	23.6613
 600	1	3	0.042972	18.7692	-15.4887	24.7248
 601	1	3	0.004163	19.9451	-14.5985	24.2354
 602	1	3	-0.197219	19.4954	-16.7713	25.1902
 603	1	5	0.227416	8.20091	-24.5003	24.3339
 604	1	5	0.230059	8.19832	-20.5181	27.3907
 605	1	6	0.034807	7.84235	-21.5416	22.4744
 606	1	6	0.022109	7.78941	-19.4912	24.0505
 607	1	6	0.043894	10.3102	-22.75	22.6602
 608	1	6	0.04727	9.44874	-20.5978	21.2047
 609	1	6	0.039454	9.3534	-18.5218	22.7484
 610	1	6	0.037752	10.2329	-19.2362	25.2599
 611	1	6	0.046701	11.7997	-21.124	24.1865
 612	1	6	0.047659	10.5528	-21.8968	25.1858
 613	1	5	0.173906	12.7929	-21.7183	20.8595
 614	1	5	0.156928	12.591	-17.5888	23.7533
 615	1	6	0.056509	15.4529	-21.8851	23.1309
 616	1	6	0.064596	16.7524	-22.1118	21.9427
 617	1	6	0.065502	15.0988	-22.6377	21.5615
 618	1	6	0.062922	15.505	-19.4436	19.5386
 619	1	6	0.049805	15.1058	-21.1689	19.4112
 620	1	6	0.059229	16.77	-20.6672	19.7763
 621	1	5	0.166497	18.2254	-19.7295	21.629
 622	1	5	0.141714	15.0072	-16.4585	23.7108
 623	1	6	0.041341	19.4374	-16.8121	21.7937
 624	1	6	0.038019	17.7414	-15.1082	22.8067
 625	1	6	0.012124	20.8889	-17.8777	23.8267
 626	1	6	0.001144	21.2861	-15.4246	22.6312
 627	1	6	0.009013	18.1238	-15.0197	25.478
 628	1	6	0.001345	19.6706	-13.812	23.5198
 629	1	6	0.041603	18.8114	-17.5893	25.4513
 630	1	6	0.069352	20.1682	-16.61	26.0425
 631	1	1	-0.425718	0.440075	-32.3786	34.0392
 632	1	1	0.123859	-0.41982	-31.9158	35.0635
 633	1	1	0.123846	-1.17429	-30.7192	34.9049