pySIMM System Object

1544 atoms
1816 bonds
3744 angles
7056 dihedrals
144 impropers

6 atom types
11 bond types
24 angle types
21 dihedral types
1 improper types

-162.418371 162.418371 xlo xhi
-162.418371 162.418371 ylo yhi
-162.418371 162.418371 zlo zhi

Masses

   1	12.01	# ca
   2	12.01	# cy
   3	12.01	# c3
   4	12.01	# cp
   5	1.008	# ha
   6	1.008	# hc

Pair Coeffs

   1	0.086	3.3996695084235347	# ca
   2	0.086	3.3996695084235347	# cy
   3	0.1094	3.3996695084235347	# c3
   4	0.086	3.3996695084235347	# cp
   5	0.015	2.59964245953351	# ha
   6	0.0157	2.649532787749369	# hc

Bond Coeffs

   1	321.0	1.5156	# c3,ca
   2	285.0	1.5562	# cy,cy
   3	330.6	1.0969	# c3,hc
   4	333.3	1.0949	# cy,hc
   5	321.2	1.5154	# ca,cy
   6	461.1	1.3984	# ca,ca
   7	300.9	1.5375	# c3,c3
   8	305.9	1.5319	# c3,cy
   9	351.4	1.4854	# cp,cp
  10	345.8	1.086	# ca,ha
  11	450.2	1.4058	# ca,cp

Angle Coeffs

   1	62.73	112.39	# c3,c3,cy
   2	46.29	110.75	# cy,c3,hc
   3	44.83	114.79	# cy,cy,hc
   4	60.66	118.7	# c3,cy,cy
   5	66.72	118.38	# ca,cp,ca
   6	62.86	111.51	# c3,c3,c3
   7	46.43	110.14	# c3,cy,hc
   8	63.43	120.63	# c3,ca,cp
   9	63.56	112.24	# ca,c3,ca
  10	64.05	121.11	# ca,cp,cp
  11	66.62	120.02	# ca,ca,ca
  12	39.4	107.58	# hc,c3,hc
  13	47.98	119.86	# cp,ca,ha
  14	63.53	120.77	# c3,ca,ca
  15	63.51	120.86	# ca,ca,cy
  16	62.8	113.57	# c3,cy,ca
  17	67.9	96.03	# cy,c3,cy
  18	45.97	114.53	# ca,cy,hc
  19	61.4	116.81	# ca,cy,cy
  20	63.15	112.07	# c3,c3,ca
  21	66.26	120.69	# ca,ca,cp
  22	46.34	109.8	# c3,c3,hc
  23	48.18	119.88	# ca,ca,ha
  24	46.8	110.47	# ca,c3,hc

Dihedral Coeffs

   1	1	0.16	3	0.0	# cy,c3,cy,ca
   2	1	0.16	3	0.0	# c3,c3,cy,ca
   3	1	0.16	3	0.0	# hc,c3,cy,ca
   4	3	0.18	3	0.0	0.25	2	180.0	0.2	1	180.0	# cy,c3,cy,cy
   5	1	0.15	3	0	# hc,c3,c3,hc
   6	3	0.18	3	0.0	0.25	2	180.0	0.2	1	180.0	# c3,c3,cy,cy
   7	1	0.16	3	0.0	# hc,c3,cy,cy
   8	1	0.16	3	0.0	# cy,c3,cy,hc
   9	1	0.16	3	0.0	# c3,c3,cy,hc
  10	1	0.15	3	0.0	# hc,c3,cy,hc
  11	1	3.625	2	180	# X,ca,ca,X
  12	1	0.15555555555555556	3	0	# X,cy,cy,X
  13	1	3.625	2	180	# X,ca,cp,X
  14	3	0.18	3	0	0.25	2	180	0.2	1	180	# c3,c3,c3,c3
  15	1	0.15555555555555556	3	0	# X,c3,c3,X
  16	1	0.16	3	0	# hc,c3,c3,c3
  17	1	1.0	2	180	# X,cp,cp,X
  18	1	0.0	2	0.0	# ca,ca,cy,cy
  19	1	0.0	2	0.0	# ca,ca,cy,c3
  20	1	0.0	2	0	# X,c3,ca,X
  21	3	0.38	3	180.0	0.0	2	0.0	1.15	1	0.0	# ca,ca,cy,hc

Improper Coeffs

   1	1.1	-1	2	# ca,X,X,ha

Atoms

   1	1	1	-0.425718	58.4687	-18.1514	23.8317
   2	1	1	0.123859	58.4491	-16.746	23.9017
   3	1	1	0.123846	59.2817	-16.011	24.7235
   4	1	1	-0.442194	60.2317	-16.5906	25.5839
   5	1	1	0.030377	60.4125	-17.9654	25.3332
   6	1	1	0.003389	59.5796	-18.7055	24.4989
   7	1	2	0.006267	59.8989	-20.0226	25.1849
   8	1	2	0.040808	60.8429	-19.1761	26.1412
   9	1	3	0.010049	58.8227	-20.6036	26.1405
  10	1	2	-0.044998	59.7261	-21.6681	26.822
  11	1	2	-0.017344	60.6609	-20.8136	27.7817
  12	1	3	0.004207	60.202	-19.3502	27.5447
  13	1	3	-0.10977	58.6858	-19.5022	27.2304
  14	1	1	-0.002799	59.1898	-22.3083	28.089
  15	1	1	-0.006419	59.9962	-21.5618	28.9221
  16	1	1	-0.256521	57.9723	-22.8656	28.5014
  17	1	1	0.004841	57.6841	-22.732	29.8783
  18	1	4	0.00733	58.5035	-21.9527	30.7323
  19	1	1	-0.221146	59.655	-21.2818	30.2511
  20	1	3	0.21053	56.4302	-23.2256	30.6128
  21	1	4	0.0182	57.8485	-21.8586	32.0458
  22	1	1	0.000377	56.6379	-22.5978	31.997
  23	1	3	-0.237942	55.1377	-22.6989	29.9498
  24	1	3	-0.215479	56.4098	-24.7682	30.6935
  25	1	1	-0.2391	55.8317	-22.7818	33.1444
  26	1	1	-0.027923	56.2687	-22.0916	34.2813
  27	1	1	-0.180376	58.3148	-21.2605	33.2443
  28	1	1	-0.054224	57.4381	-21.3726	34.3291
  29	1	2	0.006282	56.1203	-22.1534	35.7915
  30	1	2	0.015188	57.4718	-21.3225	35.8465
  31	1	3	0.034756	56.4804	-23.4473	36.563
  32	1	3	0.003059	57.4876	-24.3412	35.789
  33	1	3	0.042972	58.4175	-22.2557	36.6427
  34	1	3	0.004163	58.8085	-23.5288	35.8437
  35	1	3	-0.197219	57.4168	-22.8689	37.6436
  36	1	5	0.227416	57.66	-18.7414	23.4126
  37	1	5	0.230059	60.6842	-16.0643	26.418
  38	1	6	0.034807	60.3822	-20.7683	24.5428
  39	1	6	0.022109	61.9163	-19.396	26.1025
  40	1	6	0.043894	57.8941	-20.9628	25.6797
  41	1	6	0.04727	60.2201	-22.3588	26.1284
  42	1	6	0.039454	61.7426	-20.9709	27.6958
  43	1	6	0.037752	60.4784	-18.6143	28.3099
  44	1	6	0.046701	58.0982	-19.8288	28.0979
  45	1	6	0.047659	58.2378	-18.5793	26.8464
  46	1	5	0.173906	57.2735	-23.3115	27.8009
  47	1	5	0.156928	60.1894	-20.548	30.8455
  48	1	6	0.056509	54.2544	-22.9831	30.5348
  49	1	6	0.064596	55.0209	-23.1042	28.9375
  50	1	6	0.065502	55.1601	-21.604	29.8783
  51	1	6	0.062922	56.355	-25.2112	29.6916
  52	1	6	0.049805	55.5471	-25.1213	31.2716
  53	1	6	0.059229	57.3205	-25.1405	31.1798
  54	1	5	0.166497	54.9719	-23.4445	33.1577
  55	1	5	0.141714	59.2959	-20.8042	33.3279
  56	1	6	0.041341	55.2486	-21.6438	36.2167
  57	1	6	0.038019	57.3841	-20.3305	36.3034
  58	1	6	0.012124	55.6168	-23.9978	36.9569
  59	1	6	0.001144	57.1691	-24.5581	34.7627
  60	1	6	0.009013	59.2723	-21.7484	37.1074
  61	1	6	0.001345	59.2069	-23.3053	34.8474
  62	1	6	0.041603	56.927	-22.1146	38.275
  63	1	6	0.069352	57.8666	-23.6425	38.2818
  64	1	1	-0.425718	61.5021	-4.6245	17.0061
  65	1	1	0.123859	61.3289	-3.29645	17.4338
  66	1	1	0.123846	61.4966	-2.88716	18.7439
  67	1	1	-0.442194	61.8628	-3.76024	19.7872
  68	1	1	0.030377	62.2766	-5.02165	19.3115
  69	1	1	0.003389	62.1014	-5.42891	17.9932
  70	1	2	0.006267	62.1174	-6.90414	18.3393
  71	1	2	0.040808	62.3315	-6.44503	19.8454
  72	1	3	0.010049	60.7489	-7.63808	18.3629
  73	1	2	-0.044998	61.2503	-8.93085	19.0543
  74	1	2	-0.017344	61.4877	-8.49006	20.5696
  75	1	3	0.004207	61.0779	-6.99009	20.5821
  76	1	3	-0.10977	59.9676	-6.91302	19.4957
  77	1	1	-0.002799	60.1994	-9.87214	19.6083
  78	1	1	-0.006419	60.4142	-9.50623	20.9111
  79	1	1	-0.256521	59.1148	-10.6491	19.188
  80	1	1	0.004841	58.3103	-11.1416	20.2433
  81	1	4	0.00733	58.5536	-10.7929	21.5988
  82	1	1	-0.221146	59.5985	-9.90727	21.9732
  83	1	3	0.21053	57.0961	-12.0713	20.1226
  84	1	4	0.0182	57.5677	-11.4879	22.4407
  85	1	1	0.000377	56.7187	-12.2513	21.5991
  86	1	3	-0.237942	55.9495	-11.4001	19.3351
  87	1	3	-0.215479	57.489	-13.4166	19.4706
  88	1	1	-0.2391	55.8005	-13.1876	22.1263
  89	1	1	-0.027923	55.7319	-13.2334	23.5246
  90	1	1	-0.180376	57.5488	-11.6369	23.8499
  91	1	1	-0.054224	56.5622	-12.4993	24.3434
  92	1	2	0.006282	55.4304	-14.2767	24.588
  93	1	2	0.015188	56.3899	-13.4313	25.5317
  94	1	3	0.034756	56.1181	-15.6673	24.5452
  95	1	3	0.003059	57.4495	-15.6154	23.7347
  96	1	3	0.042972	57.4994	-14.4509	25.9024
  97	1	3	0.004163	58.405	-14.7729	24.6746
  98	1	3	-0.197219	56.6281	-15.7239	26.0036
  99	1	5	0.227416	61.1111	-5.00848	16.0694
 100	1	5	0.230059	61.731	-3.52586	20.8386
 101	1	6	0.034807	62.9303	-7.47285	17.8725
 102	1	6	0.022109	63.2831	-6.71857	20.3165
 103	1	6	0.043894	60.2334	-7.75826	17.4019
 104	1	6	0.04727	62.0817	-9.42747	18.5401
 105	1	6	0.039454	62.4726	-8.69603	21.0053
 106	1	6	0.037752	60.8469	-6.54751	21.559
 107	1	6	0.046701	59.049	-7.43925	19.7863
 108	1	6	0.047659	59.7024	-5.88271	19.2342
 109	1	5	0.173906	58.9115	-10.857	18.1423
 110	1	5	0.156928	59.7508	-9.57009	22.9933
 111	1	6	0.056509	55.0552	-12.0353	19.3289
 112	1	6	0.064596	56.2446	-11.2121	18.2957
 113	1	6	0.065502	55.68	-10.4391	19.7914
 114	1	6	0.062922	58.2895	-13.9025	20.0429
 115	1	6	0.049805	57.8479	-13.2655	18.4452
 116	1	6	0.059229	56.6335	-14.1018	19.433
 117	1	5	0.166497	55.2664	-13.894	21.4987
 118	1	5	0.141714	58.3161	-11.2082	24.4864
 119	1	6	0.041341	54.3903	-14.3383	24.9265
 120	1	6	0.038019	55.9055	-13.005	26.4172
 121	1	6	0.012124	55.459	-16.4978	24.2629
 122	1	6	0.001144	57.3815	-15.2479	22.7045
 123	1	6	0.009013	58.0586	-14.2105	26.8153
 124	1	6	0.001345	58.8892	-13.9194	24.1866
 125	1	6	0.041603	55.8185	-15.6262	26.7405
 126	1	6	0.069352	57.1969	-16.6308	26.2382
 127	1	1	-0.425718	63.2473	11.2663	16.2825
 128	1	1	0.123859	62.3375	12.1733	16.8584
 129	1	1	0.123846	61.7821	11.996	18.1129
 130	1	1	-0.442194	62.0966	10.9133	18.9564
 131	1	1	0.030377	63.1983	10.169	18.4886
 132	1	1	0.003389	63.7306	10.3264	17.2136
 133	1	2	0.006267	64.2984	8.91848	17.1665
 134	1	2	0.040808	63.7075	8.7448	18.6311
 135	1	3	0.010049	63.5247	7.86111	16.3289
 136	1	2	-0.044998	64.2672	6.60994	16.8707
 137	1	2	-0.017344	63.6994	6.43888	18.3482
 138	1	3	0.004207	62.6736	7.59747	18.4862
 139	1	3	-0.10977	62.142	7.7811	17.0362
 140	1	1	-0.002799	63.6433	5.2535	16.5925
 141	1	1	-0.006419	63.165	5.10221	17.8729
 142	1	1	-0.256521	63.137	4.54193	15.4971
 143	1	1	0.004841	62.1943	3.53868	15.8239
 144	1	4	0.00733	61.7129	3.37245	17.1481
 145	1	1	-0.221146	62.1387	4.21223	18.2079
 146	1	3	0.21053	61.4736	2.59317	14.8529
 147	1	4	0.0182	60.6673	2.33796	17.1381
 148	1	1	0.000377	60.5082	1.87603	15.8058
 149	1	3	-0.237942	60.7037	3.37233	13.7635
 150	1	3	-0.215479	62.4676	1.59966	14.2108
 151	1	1	-0.2391	59.6421	0.80417	15.4888
 152	1	1	-0.027923	58.8974	0.313567	16.5682
 153	1	1	-0.180376	59.9854	1.73539	18.2264
 154	1	1	-0.054224	59.066	0.744889	17.8624
 155	1	2	0.006282	58.1799	-0.961378	16.9734
 156	1	2	0.015188	58.3765	-0.464505	18.4732
 157	1	3	0.034756	58.9283	-2.31702	16.9537
 158	1	3	0.003059	60.4686	-2.10502	17.0632
 159	1	3	0.042972	59.2049	-1.61112	19.112
 160	1	3	0.004163	60.6626	-1.62896	18.5602
 161	1	3	-0.197219	58.5645	-2.80916	18.3734
 162	1	5	0.227416	63.4587	11.2248	15.2188
 163	1	5	0.230059	61.4869	10.6182	19.8042
 164	1	6	0.034807	65.3886	8.86831	17.062
 165	1	6	0.022109	64.4295	8.5995	19.4433
 166	1	6	0.043894	63.5174	7.99952	15.2406
 167	1	6	0.04727	65.3571	6.64511	16.7563
 168	1	6	0.039454	64.4325	6.37839	19.1614
 169	1	6	0.037752	61.9238	7.50385	19.2815
 170	1	6	0.046701	61.5341	6.9338	16.6933
 171	1	6	0.047659	61.551	8.69535	16.9149
 172	1	5	0.173906	63.4171	4.77108	14.4738
 173	1	5	0.156928	61.6717	4.20013	19.1872
 174	1	6	0.056509	61.3921	3.93094	13.1179
 175	1	6	0.064596	60.008	4.08749	14.2204
 176	1	6	0.065502	60.1221	2.68908	13.1325
 177	1	6	0.062922	63.0033	1.03637	14.9856
 178	1	6	0.049805	63.2105	2.12806	13.6007
 179	1	6	0.059229	61.9461	0.880477	13.5676
 180	1	5	0.166497	59.6014	0.355791	14.501
 181	1	5	0.141714	60.2057	1.97844	19.2609
 182	1	6	0.041341	57.1369	-1.05637	16.6521
 183	1	6	0.038019	57.4466	-0.269949	19.0189
 184	1	6	0.012124	58.6291	-2.99674	16.146
 185	1	6	0.001144	60.9283	-1.45186	16.312
 186	1	6	0.009013	59.1441	-1.6684	20.206
 187	1	6	0.001345	61.2355	-0.700347	18.6713
 188	1	6	0.041603	57.4793	-2.87558	18.5343
 189	1	6	0.069352	59.0088	-3.77694	18.6328
 190	1	1	-0.425718	53.2485	23.9594	17.7519
 191	1	1	0.123859	51.9297	23.4963	17.5777
 192	1	1	0.123846	51.4051	22.4405	18.3005
 193	1	1	-0.442194	52.1048	21.7671	19.3188
 194	1	1	0.030377	53.3031	22.4174	19.6759
 195	1	1	0.003389	53.8586	23.4403	18.9124
 196	1	2	0.006267	55.2804	23.1342	19.3576
 197	1	2	0.040808	54.6423	21.9854	20.2479
 198	1	3	0.010049	56.189	22.3605	18.3597
 199	1	2	-0.044998	57.3245	22.0007	19.3579
 200	1	2	-0.017344	56.6858	20.8726	20.2707
 201	1	3	0.004207	55.2602	20.6806	19.6844
 202	1	3	-0.10977	55.4477	21.0056	18.1755
 203	1	1	-0.002799	58.3156	20.9347	18.9162
 204	1	1	-0.006419	57.7628	19.9565	19.7226
 205	1	1	-0.256521	58.9535	20.6371	17.7023
 206	1	1	0.004841	59.1245	19.2637	17.4148
 207	1	4	0.00733	58.5642	18.2638	18.2458
 208	1	1	-0.221146	57.8006	18.5965	19.3899
 209	1	3	0.21053	59.6838	18.6541	16.12
 210	1	4	0.0182	58.681	16.9672	17.5619
 211	1	1	0.000377	59.3113	17.1767	16.3055
 212	1	3	-0.237942	58.9978	19.2494	14.8689
 213	1	3	-0.215479	61.2148	18.838	16.0378
 214	1	1	-0.2391	59.5073	16.1221	15.3796
 215	1	1	-0.027923	58.9978	14.8892	15.8019
 216	1	1	-0.180376	58.2279	15.6871	17.9766
 217	1	1	-0.054224	58.4148	14.6832	17.0233
 218	1	2	0.006282	58.9026	13.4305	15.3856
 219	1	2	0.015188	58.2402	13.1908	16.8178
 220	1	3	0.034756	60.1519	12.5169	15.423
 221	1	3	0.003059	61.2264	13.0945	16.388
 222	1	3	0.042972	59.2193	12.1934	17.4877
 223	1	3	0.004163	60.5815	12.8798	17.8176
 224	1	3	-0.197219	59.5721	11.3431	16.2456
 225	1	5	0.227416	53.7764	24.5465	17.0074
 226	1	5	0.230059	51.8181	20.7895	19.6929
 227	1	6	0.034807	55.7842	23.9508	19.8878
 228	1	6	0.022109	54.731	22.092	21.3355
 229	1	6	0.043894	56.4837	22.8909	17.4457
 230	1	6	0.04727	57.769	22.8635	19.8677
 231	1	6	0.039454	56.717	21.0283	21.3557
 232	1	6	0.037752	54.7448	19.7436	19.9294
 233	1	6	0.046701	56.0462	20.2549	17.6445
 234	1	6	0.047659	54.4966	21.1117	17.6468
 235	1	5	0.173906	59.2037	21.4106	16.9834
 236	1	5	0.156928	57.1884	17.8623	19.9032
 237	1	6	0.056509	59.2224	20.3178	14.7659
 238	1	6	0.064596	57.9084	19.1348	14.9361
 239	1	6	0.065502	59.3371	18.7424	13.9575
 240	1	6	0.062922	61.6229	18.3378	15.1511
 241	1	6	0.049805	61.703	18.4113	16.9233
 242	1	6	0.059229	61.4784	19.9015	15.9846
 243	1	5	0.166497	59.9927	16.2597	14.4185
 244	1	5	0.141714	57.7626	15.5073	18.9404
 245	1	6	0.041341	58.2548	13.2116	14.5297
 246	1	6	0.038019	57.2103	12.8172	16.8033
 247	1	6	0.012124	60.5445	12.2324	14.4387
 248	1	6	0.001144	61.5561	14.1219	16.1874
 249	1	6	0.009013	58.7949	11.6228	18.3232
 250	1	6	0.001345	60.5317	13.786	18.4345
 251	1	6	0.041603	58.6872	10.8921	15.7749
 252	1	6	0.069352	60.2961	10.5459	16.4478
 253	1	1	-0.425718	37.5827	22.4609	13.6672
 254	1	1	0.123859	37.3091	21.2997	12.9213
 255	1	1	0.123846	37.7671	20.0446	13.272
 256	1	1	-0.442194	38.5137	19.7837	14.4357
 257	1	1	0.030377	38.5525	20.8928	15.3053
 258	1	1	0.003389	38.1324	22.1654	14.9301
 259	1	2	0.006267	39.0361	22.8695	15.9278
 260	1	2	0.040808	39.4966	21.4157	16.3726
 261	1	3	0.010049	40.3388	23.5156	15.3748
 262	1	2	-0.044998	41.032	23.7612	16.7433
 263	1	2	-0.017344	41.4674	22.3075	17.2109
 264	1	3	0.004207	41.0107	21.3853	16.048
 265	1	3	-0.10977	41.1226	22.3026	14.7962
 266	1	1	-0.002799	42.5187	24.0824	16.723
 267	1	1	-0.006419	42.89	22.82	17.1391
 268	1	1	-0.256521	43.3611	24.9097	15.9644
 269	1	1	0.004841	44.6761	24.4254	15.771
 270	1	4	0.00733	45.0475	23.1247	16.1901
 271	1	1	-0.221146	44.1309	22.2557	16.8273
 272	1	3	0.21053	45.8012	25.0802	14.9528
 273	1	4	0.0182	46.3848	22.8268	15.664
 274	1	1	0.000377	46.8484	23.9564	14.9394
 275	1	3	-0.237942	45.3349	25.4203	13.519
 276	1	3	-0.215479	46.34	26.3425	15.6608
 277	1	1	-0.2391	48.1322	23.9821	14.3399
 278	1	1	-0.027923	48.8427	22.7799	14.4494
 279	1	1	-0.180376	47.167	21.6552	15.8216
 280	1	1	-0.054224	48.3848	21.6876	15.1396
 281	1	2	0.006282	50.2363	22.2036	14.2468
 282	1	2	0.015188	49.7004	20.9422	15.0628
 283	1	3	0.034756	51.4315	22.6854	15.1089
 284	1	3	0.003059	50.9392	23.3338	16.4349
 285	1	3	0.042972	50.635	20.8982	16.296
 286	1	3	0.004163	50.3628	22.1052	17.2488
 287	1	3	-0.197219	51.9493	21.3136	15.5967
 288	1	5	0.227416	37.4845	23.4661	13.2702
 289	1	5	0.230059	39.0834	18.8733	14.5914
 290	1	6	0.034807	38.5124	23.4753	16.6764
 291	1	6	0.022109	39.2474	21.1055	17.3943
 292	1	6	0.043894	40.2192	24.386	14.7177
 293	1	6	0.04727	40.4409	24.3561	17.4497
 294	1	6	0.039454	41.1434	21.9837	18.2073
 295	1	6	0.037752	41.4828	20.3971	15.9834
 296	1	6	0.046701	42.1603	22.5472	14.536
 297	1	6	0.047659	40.644	21.8715	13.9094
 298	1	5	0.173906	43.0047	25.8215	15.4957
 299	1	5	0.156928	44.3434	21.2029	16.9816
 300	1	6	0.056509	44.5512	26.1874	13.5304
 301	1	6	0.064596	44.9315	24.528	13.0235
 302	1	6	0.065502	46.17	25.7955	12.915
 303	1	6	0.062922	46.6819	26.0993	16.6749
 304	1	6	0.049805	45.5596	27.1094	15.7404
 305	1	6	0.059229	47.1864	26.7708	15.1102
 306	1	5	0.166497	48.5357	24.8597	13.8443
 307	1	5	0.141714	46.8545	20.8136	16.4312
 308	1	6	0.041341	50.5289	21.9942	13.212
 309	1	6	0.038019	49.695	19.9975	14.5077
 310	1	6	0.012124	52.1754	23.2858	14.5704
 311	1	6	0.001144	50.2412	24.1741	16.3304
 312	1	6	0.009013	50.678	19.9279	16.8064
 313	1	6	0.001345	49.3292	22.2311	17.5944
 314	1	6	0.041603	52.221	20.6436	14.7688
 315	1	6	0.069352	52.8052	21.3842	16.2742
 316	1	1	-0.425718	27.6776	11.4106	8.3916
 317	1	1	0.123859	27.8523	10.3926	7.43781
 318	1	1	0.123846	29.0456	9.72708	7.23635
 319	1	1	-0.442194	30.2065	9.94994	8.00222
 320	1	1	0.030377	29.9516	10.777	9.11606
 321	1	1	0.003389	28.7672	11.4859	9.27882
 322	1	2	0.006267	29.3906	12.5248	10.1889
 323	1	2	0.040808	30.7385	11.6939	10.0386
 324	1	3	0.010049	29.7367	13.904	9.55732
 325	1	2	-0.044998	30.5907	14.4343	10.7365
 326	1	2	-0.017344	31.9387	13.5857	10.6481
 327	1	3	0.004207	31.7273	12.6951	9.38977
 328	1	3	-0.10977	30.8047	13.557	8.48064
 329	1	1	-0.002799	31.47	15.6461	10.4827
 330	1	1	-0.006419	32.6299	14.917	10.4394
 331	1	1	-0.256521	31.38	16.9781	10.0604
 332	1	1	0.004841	32.6218	17.5664	9.71584
 333	1	4	0.00733	33.8314	16.8226	9.72762
 334	1	1	-0.221146	33.8613	15.4381	10.035
 335	1	3	0.21053	32.8717	19.01	9.25613
 336	1	4	0.0182	34.9315	17.7144	9.33557
 337	1	1	0.000377	34.3941	18.9956	9.052
 338	1	3	-0.237942	32.1363	19.3148	7.93267
 339	1	3	-0.215479	32.4598	20.0194	10.3516
 340	1	1	-0.2391	35.2282	20.1107	8.80308
 341	1	1	-0.027923	36.6028	19.8354	8.78228
 342	1	1	-0.180376	36.3279	17.4968	9.43154
 343	1	1	-0.054224	37.1219	18.5993	9.09778
 344	1	2	0.006282	37.9001	20.5729	9.08402
 345	1	2	0.015188	38.486	19.1478	9.47507
 346	1	3	0.034756	38.0653	21.3904	10.3916
 347	1	3	0.003059	37.0578	20.9132	11.4764
 348	1	3	0.042972	38.8707	19.3295	10.9684
 349	1	3	0.004163	37.6036	19.48	11.8707
 350	1	3	-0.197219	39.3943	20.7824	10.8968
 351	1	5	0.227416	26.8476	12.1097	8.385
 352	1	5	0.230059	31.1937	9.59969	7.71851
 353	1	6	0.034807	28.9488	12.5798	11.1909
 354	1	6	0.022109	31.1233	11.2056	10.9418
 355	1	6	0.043894	28.8938	14.529	9.23699
 356	1	6	0.04727	30.0698	14.445	11.7013
 357	1	6	0.039454	32.2505	13.0408	11.5473
 358	1	6	0.037752	32.6259	12.2706	8.92509
 359	1	6	0.046701	31.3117	14.4447	8.08047
 360	1	6	0.047659	30.3887	12.9911	7.63748
 361	1	5	0.173906	30.4363	17.5103	9.99578
 362	1	5	0.156928	34.7582	14.8332	9.95056
 363	1	6	0.056509	32.3895	20.3175	7.56661
 364	1	6	0.064596	31.049	19.2627	8.06659
 365	1	6	0.065502	32.4192	18.5895	7.15925
 366	1	6	0.062922	32.69	21.0475	10.0471
 367	1	6	0.049805	32.9958	19.8137	11.2871
 368	1	6	0.059229	31.384	19.9579	10.5563
 369	1	5	0.166497	34.8403	21.1223	8.73453
 370	1	5	0.141714	36.7449	16.5804	9.83658
 371	1	6	0.041341	38.3925	21.0534	8.23136
 372	1	6	0.038019	39.3319	18.8138	8.86393
 373	1	6	0.012124	38.0875	22.4788	10.2546
 374	1	6	0.001144	35.9968	20.9396	11.2033
 375	1	6	0.009013	39.601	18.6028	11.3461
 376	1	6	0.001345	36.8607	18.6763	11.8079
 377	1	6	0.041603	40.2158	20.9024	10.1765
 378	1	6	0.069352	39.7251	21.1813	11.8632
 379	1	1	-0.425718	24.2598	-2.82167	2.73982
 380	1	1	0.123859	24.3797	-3.28314	1.41863
 381	1	1	0.123846	25.4676	-3.01949	0.608694
 382	1	1	-0.442194	26.5943	-2.28874	1.03819
 383	1	1	0.030377	26.5852	-2.05724	2.43126
 384	1	1	0.003389	25.4684	-2.2932	3.22637
 385	1	2	0.006267	25.87	-1.27985	4.27642
 386	1	2	0.040808	27.1699	-1.03392	3.3964
 387	1	3	0.010049	25.134	0.0896787	4.24208
 388	1	2	-0.044998	26.0662	0.820755	5.23804
 389	1	2	-0.017344	27.411	1.04793	4.41586
 390	1	3	0.004207	27.08	0.464989	3.00931
 391	1	3	-0.10977	25.548	0.695439	2.87018
 392	1	1	-0.002799	25.9725	2.33454	5.29844
 393	1	1	-0.006419	27.1548	2.52797	4.62478
 394	1	1	-0.256521	24.9821	3.3211	5.39764
 395	1	1	0.004841	25.3636	4.59609	4.91603
 396	1	4	0.00733	26.6186	4.81079	4.29154
 397	1	1	-0.221146	27.5252	3.74793	4.05086
 398	1	3	0.21053	24.5117	5.8733	4.88727
 399	1	4	0.0182	26.6991	6.21831	3.87702
 400	1	1	0.000377	25.4749	6.85488	4.203
 401	1	3	-0.237942	23.2296	5.67697	4.04834
 402	1	3	-0.215479	24.1586	6.33535	6.31907
 403	1	1	-0.2391	25.3025	8.25117	4.05544
 404	1	1	-0.027923	26.3979	8.93382	3.50708
 405	1	1	-0.180376	27.831	6.95562	3.45084
 406	1	1	-0.054224	27.6034	8.32088	3.246
 407	1	2	0.006282	27.0065	10.3271	3.58755
 408	1	2	0.015188	28.4005	9.61108	3.32029
 409	1	3	0.034756	27.225	11.0205	4.95643
 410	1	3	0.003059	27.2743	9.97219	6.1031
 411	1	3	0.042972	29.2171	9.95685	4.59642
 412	1	3	0.004163	28.6498	9.22553	5.85606
 413	1	3	-0.197219	28.7159	11.4045	4.80763
 414	1	5	0.227416	23.3184	-2.77623	3.27772
 415	1	5	0.230059	27.3268	-1.86269	0.360259
 416	1	6	0.034807	26.0189	-1.69451	5.28047
 417	1	6	0.022109	28.1299	-1.32334	3.8399
 418	1	6	0.043894	24.063	0.0843469	4.47992
 419	1	6	0.04727	26.1559	0.331397	6.21523
 420	1	6	0.039454	28.3393	0.670573	4.86105
 421	1	6	0.037752	27.7087	0.796923	2.17382
 422	1	6	0.046701	25.2841	1.7564	2.77272
 423	1	6	0.047659	25.1127	0.156868	2.02026
 424	1	5	0.173906	23.988	3.11243	5.78014
 425	1	5	0.156928	28.412	3.86175	3.43588
 426	1	6	0.056509	23.48	5.33831	3.03493
 427	1	6	0.064596	22.6703	6.61675	3.96368
 428	1	6	0.065502	22.5724	4.92696	4.50486
 429	1	6	0.062922	25.0708	6.49151	6.90907
 430	1	6	0.049805	23.5461	5.58453	6.83319
 431	1	6	0.059229	23.5989	7.27835	6.3025
 432	1	5	0.166497	24.4282	8.77131	4.43432
 433	1	5	0.141714	28.821	6.51476	3.39261
 434	1	6	0.041341	26.6973	11.035	2.81065
 435	1	6	0.038019	28.9098	9.92319	2.40179
 436	1	6	0.012124	26.5555	11.8664	5.15662
 437	1	6	0.001144	26.4048	9.31286	6.20277
 438	1	6	0.009013	30.3047	9.86644	4.48365
 439	1	6	0.001345	28.5695	8.13397	5.79208
 440	1	6	0.041603	28.9015	12.0486	3.93659
 441	1	6	0.069352	29.1395	11.8953	5.6936
 442	1	1	-0.425718	25.4369	-14.997	-7.04546
 443	1	1	0.123859	25.1331	-15.2251	-8.39576
 444	1	1	0.123846	25.3056	-14.3027	-9.40888
 445	1	1	-0.442194	25.854	-13.016	-9.21225
 446	1	1	0.030377	26.3405	-12.8577	-7.89389
 447	1	1	0.003389	26.1255	-13.7846	-6.88423
 448	1	2	0.006267	26.46	-12.8218	-5.77296
 449	1	2	0.040808	26.7575	-11.7571	-6.92047
 450	1	3	0.010049	25.2551	-12.2151	-5.00275
 451	1	2	-0.044998	26.0699	-11.1577	-4.2273
 452	1	2	-0.017344	26.4589	-10.0714	-5.32779
 453	1	3	0.004207	25.7597	-10.607	-6.61873
 454	1	3	-0.10977	24.5151	-11.3669	-6.07694
 455	1	1	-0.002799	25.2986	-10.0442	-3.54913
 456	1	1	-0.006419	25.681	-9.09522	-4.46262
 457	1	1	-0.256521	24.2194	-9.87349	-2.67418
 458	1	1	0.004841	23.6796	-8.56558	-2.65878
 459	1	4	0.00733	24.1731	-7.54238	-3.50962
 460	1	1	-0.221146	25.1452	-7.80468	-4.51014
 461	1	3	0.21053	22.4978	-8.06079	-1.82033
 462	1	4	0.0182	23.4414	-6.30175	-3.2145
 463	1	1	0.000377	22.4379	-6.58963	-2.25479
 464	1	3	-0.237942	21.1928	-8.80172	-2.18557
 465	1	3	-0.215479	22.7932	-8.19199	-0.308835
 466	1	1	-0.2391	21.6535	-5.56946	-1.66985
 467	1	1	-0.027923	21.9172	-4.27297	-2.1324
 468	1	1	-0.180376	23.7848	-4.96779	-3.54804
 469	1	1	-0.054224	22.9573	-3.98683	-2.9891
 470	1	2	0.006282	21.8541	-2.86011	-1.57457
 471	1	2	0.015188	23.0779	-2.54019	-2.53713
 472	1	3	0.034756	22.4166	-2.54408	-0.167546
 473	1	3	0.003059	23.4651	-3.61067	0.260364
 474	1	3	0.042972	24.1916	-2.10542	-1.54073
 475	1	3	0.004163	24.7023	-3.30491	-0.678833
 476	1	3	-0.197219	23.3113	-1.33572	-0.528942
 477	1	5	0.227416	25.1303	-15.6447	-6.23029
 478	1	5	0.230059	25.857	-12.233	-9.96389
 479	1	6	0.034807	27.3031	-13.129	-5.14271
 480	1	6	0.022109	27.7967	-11.4248	-7.02808
 481	1	6	0.043894	24.6461	-12.9056	-4.40611
 482	1	6	0.04727	26.8866	-11.5705	-3.62301
 483	1	6	0.039454	27.5234	-9.83813	-5.4491
 484	1	6	0.037752	25.5844	-9.88366	-7.42469
 485	1	6	0.046701	23.7618	-10.6943	-5.64646
 486	1	6	0.047659	24.026	-11.9842	-6.84183
 487	1	5	0.173906	23.8166	-10.6846	-2.07596
 488	1	5	0.156928	25.4273	-7.07605	-5.26323
 489	1	6	0.056509	20.3382	-8.38049	-1.64196
 490	1	6	0.064596	21.2647	-9.86801	-1.93906
 491	1	6	0.065502	20.9884	-8.71423	-3.26026
 492	1	6	0.062922	23.7121	-7.65153	-0.0477431
 493	1	6	0.049805	22.925	-9.24325	-0.0248589
 494	1	6	0.059229	21.9734	-7.77818	0.290653
 495	1	5	0.166497	20.9832	-5.75933	-0.837355
 496	1	5	0.141714	24.687	-4.72381	-4.09968
 497	1	6	0.041341	20.94	-2.29603	-1.79003
 498	1	6	0.038019	22.8779	-1.77552	-3.29586
 499	1	6	0.012124	21.6571	-2.33547	0.596339
 500	1	6	0.001144	23.1348	-4.65485	0.264506
 501	1	6	0.009013	24.9964	-1.50685	-1.98545
 502	1	6	0.001345	25.0755	-4.17528	-1.23198
 503	1	6	0.041603	22.7476	-0.515532	-0.995391
 504	1	6	0.069352	23.8691	-0.926805	0.322334
 505	1	1	-0.425718	11.0606	-19.3953	-18.747
 506	1	1	0.123859	10.7025	-19.1014	-20.0699
 507	1	1	0.123846	11.4771	-18.3169	-20.915
 508	1	1	-0.442194	12.7047	-17.7562	-20.495
 509	1	1	0.030377	12.9354	-17.8393	-19.103
 510	1	1	0.003389	12.146	-18.6404	-18.2812
 511	1	2	0.006267	13.2782	-18.9736	-17.3432
 512	1	2	0.040808	14.1858	-18.0413	-18.245
 513	1	3	0.010049	13.2468	-18.2749	-15.9663
 514	1	2	-0.044998	14.6807	-18.6824	-15.559
 515	1	2	-0.017344	15.6233	-17.7308	-16.4115
 516	1	3	0.004207	14.6107	-16.9027	-17.2634
 517	1	3	-0.10977	13.382	-16.7675	-16.3213
 518	1	1	-0.002799	15.2435	-17.9985	-14.3409
 519	1	1	-0.006419	16.0804	-17.1734	-15.0624
 520	1	1	-0.256521	15.4913	-18.4011	-13.0284
 521	1	1	0.004841	16.62	-17.8156	-12.4224
 522	1	4	0.00733	17.4959	-16.9593	-13.1401
 523	1	1	-0.221146	17.2785	-16.6769	-14.5186
 524	1	3	0.21053	17.1872	-18.1904	-11.052
 525	1	4	0.0182	18.6879	-16.718	-12.2957
 526	1	1	0.000377	18.5331	-17.4668	-11.097
 527	1	3	-0.237942	16.2974	-17.646	-9.91339
 528	1	3	-0.215479	17.372	-19.7205	-10.9116
 529	1	1	-0.2391	19.5936	-17.639	-10.183
 530	1	1	-0.027923	20.7413	-16.9073	-10.4846
 531	1	1	-0.180376	19.9052	-16.042	-12.5956
 532	1	1	-0.054224	20.8835	-16.1025	-11.5894
 533	1	2	0.006282	22.223	-16.9851	-10.2062
 534	1	2	0.015188	22.4016	-16.0099	-11.4493
 535	1	3	0.034756	22.7789	-16.1757	-9.02378
 536	1	3	0.003059	24.3136	-16.1653	-9.24038
 537	1	3	0.042972	23.0391	-14.7501	-10.7855
 538	1	3	0.004163	24.5127	-15.1246	-10.4261
 539	1	3	-0.197219	22.3739	-14.7279	-9.38957
 540	1	5	0.227416	10.6838	-20.2668	-18.2209
 541	1	5	0.230059	13.483	-17.4749	-21.1973
 542	1	6	0.034807	13.5135	-20.0438	-17.2951
 543	1	6	0.022109	15.0319	-18.4969	-18.7729
 544	1	6	0.043894	12.4357	-18.5584	-15.2838
 545	1	6	0.04727	14.8647	-19.7634	-15.5859
 546	1	6	0.039454	16.4203	-18.1896	-17.0084
 547	1	6	0.037752	14.9882	-15.9771	-17.7155
 548	1	6	0.046701	13.5857	-16.1399	-15.4439
 549	1	6	0.047659	12.4961	-16.3691	-16.8327
 550	1	5	0.173906	14.9205	-19.1917	-12.5522
 551	1	5	0.156928	18.0372	-16.2035	-15.1333
 552	1	6	0.056509	16.7486	-17.8462	-8.93375
 553	1	6	0.064596	15.3042	-18.1109	-9.9366
 554	1	6	0.065502	16.1667	-16.5608	-10.0118
 555	1	6	0.062922	16.4078	-20.2407	-10.9548
 556	1	6	0.049805	17.8466	-19.975	-9.95633
 557	1	6	0.059229	18.0047	-20.1081	-11.7202
 558	1	5	0.166497	19.5492	-18.3386	-9.35433
 559	1	5	0.141714	20.0889	-15.5759	-13.5582
 560	1	6	0.041341	22.6609	-17.9872	-10.2761
 561	1	6	0.038019	22.9821	-16.3735	-12.3044
 562	1	6	0.012124	22.4593	-16.5124	-8.02954
 563	1	6	0.001144	24.7817	-17.1429	-9.41591
 564	1	6	0.009013	22.9378	-13.8182	-11.3555
 565	1	6	0.001345	25.1137	-15.5172	-11.2567
 566	1	6	0.041603	21.2879	-14.5734	-9.42842
 567	1	6	0.069352	22.7919	-13.97	-8.71388
 568	1	1	-0.425718	0.350106	-17.8055	-33.594
 569	1	1	0.123859	0.215671	-16.4565	-33.9979
 570	1	1	0.123846	1.35329	-15.6394	-34.2811
 571	1	1	-0.442194	2.65968	-16.1674	-34.0945
 572	1	1	0.030377	2.74684	-17.5365	-33.8337
 573	1	1	0.003389	1.64779	-18.3201	-33.6104
 574	1	2	0.006267	2.43705	-19.4248	-32.9352
 575	1	2	0.040808	3.71583	-18.5119	-33.1887
 576	1	3	0.010049	2.34745	-19.5174	-31.3899
 577	1	2	-0.044998	3.5434	-20.4871	-31.2008
 578	1	2	-0.017344	4.82828	-19.5708	-31.4385
 579	1	3	0.004207	4.22364	-18.1758	-31.7578
 580	1	3	-0.10977	2.91728	-18.1501	-30.9128
 581	1	1	-0.002799	4.06582	-20.661	-29.7917
 582	1	1	-0.006419	5.17134	-19.8765	-29.9894
 583	1	1	-0.256521	3.64845	-21.1184	-28.5405
 584	1	1	0.004841	4.53	-20.7957	-27.4834
 585	1	4	0.00733	5.68984	-19.996	-27.6797
 586	1	1	-0.221146	6.02286	-19.4647	-28.9562
 587	1	3	0.21053	4.38252	-21.2153	-26.0192
 588	1	4	0.0182	6.38398	-19.8625	-26.3831
 589	1	1	0.000377	5.64513	-20.5923	-25.4149
 590	1	3	-0.237942	3.10879	-20.6108	-25.3882
 591	1	3	-0.215479	4.38099	-22.7549	-25.878
 592	1	1	-0.2391	6.15696	-20.8374	-24.1236
 593	1	1	-0.027923	7.37013	-20.2058	-23.841
 594	1	1	-0.180376	7.66755	-19.3249	-26.0884
 595	1	1	-0.054224	8.08566	-19.4649	-24.7556
 596	1	2	0.006282	8.5691	-20.4894	-22.9681
 597	1	2	0.015188	9.40407	-19.6179	-23.9999
 598	1	3	0.034756	8.7016	-19.7071	-21.6488
 599	1	3	0.003059	10.159	-19.9544	-21.1889
 600	1	3	0.042972	9.9257	-18.4543	-23.1058
 601	1	3	0.004163	11.0197	-19.064	-22.1692
 602	1	3	-0.197219	8.75075	-18.2364	-22.1252
 603	1	5	0.227416	-0.499571	-18.3931	-33.2611
 604	1	5	0.230059	3.54954	-15.5474	-34.1276
 605	1	6	0.034807	2.40397	-20.3915	-33.4516
 606	1	6	0.022109	4.48532	-18.9088	-33.8615
 607	1	6	0.043894	1.38421	-19.8292	-30.9672
 608	1	6	0.04727	3.4733	-21.4158	-31.7797
 609	1	6	0.039454	5.56608	-19.9219	-32.1698
 610	1	6	0.037752	4.89343	-17.3124	-31.6604
 611	1	6	0.046701	3.10955	-18.1226	-29.8323
 612	1	6	0.047659	2.26377	-17.3051	-31.1656
 613	1	5	0.173906	2.72815	-21.6754	-28.3954
 614	1	5	0.156928	6.86359	-18.7978	-29.1168
 615	1	6	0.056509	2.20577	-21.0096	-25.8663
 616	1	6	0.064596	3.10185	-19.5196	-25.5051
 617	1	6	0.065502	3.05838	-20.8373	-24.3162
 618	1	6	0.062922	5.29471	-23.1822	-26.3103
 619	1	6	0.049805	3.52139	-23.1957	-26.3976
 620	1	6	0.059229	4.32983	-23.0548	-24.8244
 621	1	5	0.166497	5.69076	-21.5326	-23.4325
 622	1	5	0.141714	8.31475	-18.9199	-26.8596
 623	1	6	0.041341	8.83166	-21.5479	-22.8604
 624	1	6	0.038019	10.2104	-20.114	-24.5514
 625	1	6	0.012124	7.9397	-19.9269	-20.8904
 626	1	6	0.001144	10.4739	-21.0057	-21.148
 627	1	6	0.009013	10.2444	-17.5546	-23.6468
 628	1	6	0.001345	11.8168	-19.62	-22.68
 629	1	6	0.041603	7.82754	-17.906	-22.6187
 630	1	6	0.069352	8.97389	-17.5201	-21.3237
 631	1	1	-0.425718	6.71864	-4.44919	-35.4975
 632	1	1	0.123859	6.19665	-4.59868	-34.194
 633	1	1	0.123846	6.61652	-5.65945	-33.3356
 634	1	1	-0.442194	7.57566	-6.58859	-33.8165
 635	1	1	0.030377	8.18934	-6.32242	-35.0461
 636	1	1	0.003389	7.76574	-5.29863	-35.8635
 637	1	2	0.006267	8.12643	-6.03024	-37.1458
 638	1	2	0.040808	8.63374	-7.19802	-36.2041
 639	1	3	0.010049	6.94951	-6.67467	-37.9334
 640	1	2	-0.044998	7.80213	-7.56209	-38.8822
 641	1	2	-0.017344	8.3349	-8.71734	-37.9401
 642	1	3	0.004207	7.71051	-8.39244	-36.5554
 643	1	3	-0.10977	6.36359	-7.70243	-36.9216
 644	1	1	-0.002799	7.06535	-8.65783	-39.6384
 645	1	1	-0.006419	7.54137	-9.6658	-38.8158