pySIMM System Object

1934 atoms
2272 bonds
4680 angles
8808 dihedrals
180 impropers

6 atom types
11 bond types
24 angle types
21 dihedral types
1 improper types

-175.465554 175.465554 xlo xhi
-175.465554 175.465554 ylo yhi
-175.465554 175.465554 zlo zhi

Masses

   1	12.01	# ca
   2	12.01	# cy
   3	12.01	# c3
   4	12.01	# cp
   5	1.008	# ha
   6	1.008	# hc

Pair Coeffs

   1	0.086	3.3996695084235347	# ca
   2	0.086	3.3996695084235347	# cy
   3	0.1094	3.3996695084235347	# c3
   4	0.086	3.3996695084235347	# cp
   5	0.015	2.59964245953351	# ha
   6	0.0157	2.649532787749369	# hc

Bond Coeffs

   1	321.0	1.5156	# c3,ca
   2	285.0	1.5562	# cy,cy
   3	330.6	1.0969	# c3,hc
   4	333.3	1.0949	# cy,hc
   5	321.2	1.5154	# ca,cy
   6	461.1	1.3984	# ca,ca
   7	300.9	1.5375	# c3,c3
   8	305.9	1.5319	# c3,cy
   9	351.4	1.4854	# cp,cp
  10	345.8	1.086	# ca,ha
  11	450.2	1.4058	# ca,cp

Angle Coeffs

   1	62.73	112.39	# c3,c3,cy
   2	46.29	110.75	# cy,c3,hc
   3	44.83	114.79	# cy,cy,hc
   4	60.66	118.7	# c3,cy,cy
   5	66.72	118.38	# ca,cp,ca
   6	62.86	111.51	# c3,c3,c3
   7	46.43	110.14	# c3,cy,hc
   8	63.43	120.63	# c3,ca,cp
   9	63.56	112.24	# ca,c3,ca
  10	64.05	121.11	# ca,cp,cp
  11	66.62	120.02	# ca,ca,ca
  12	39.4	107.58	# hc,c3,hc
  13	47.98	119.86	# cp,ca,ha
  14	63.53	120.77	# c3,ca,ca
  15	63.51	120.86	# ca,ca,cy
  16	62.8	113.57	# c3,cy,ca
  17	67.9	96.03	# cy,c3,cy
  18	45.97	114.53	# ca,cy,hc
  19	61.4	116.81	# ca,cy,cy
  20	63.15	112.07	# c3,c3,ca
  21	66.26	120.69	# ca,ca,cp
  22	46.34	109.8	# c3,c3,hc
  23	48.18	119.88	# ca,ca,ha
  24	46.8	110.47	# ca,c3,hc

Dihedral Coeffs

   1	1	0.16	3	0.0	# cy,c3,cy,ca
   2	1	0.16	3	0.0	# c3,c3,cy,ca
   3	1	0.16	3	0.0	# hc,c3,cy,ca
   4	3	0.18	3	0.0	0.25	2	180.0	0.2	1	180.0	# cy,c3,cy,cy
   5	1	0.15	3	0	# hc,c3,c3,hc
   6	3	0.18	3	0.0	0.25	2	180.0	0.2	1	180.0	# c3,c3,cy,cy
   7	1	0.16	3	0.0	# hc,c3,cy,cy
   8	1	0.16	3	0.0	# cy,c3,cy,hc
   9	1	0.16	3	0.0	# c3,c3,cy,hc
  10	1	0.15	3	0.0	# hc,c3,cy,hc
  11	1	3.625	2	180	# X,ca,ca,X
  12	1	0.15555555555555556	3	0	# X,cy,cy,X
  13	1	3.625	2	180	# X,ca,cp,X
  14	3	0.18	3	0	0.25	2	180	0.2	1	180	# c3,c3,c3,c3
  15	1	0.15555555555555556	3	0	# X,c3,c3,X
  16	1	0.16	3	0	# hc,c3,c3,c3
  17	1	1.0	2	180	# X,cp,cp,X
  18	1	0.0	2	0.0	# ca,ca,cy,cy
  19	1	0.0	2	0.0	# ca,ca,cy,c3
  20	1	0.0	2	0	# X,c3,ca,X
  21	3	0.38	3	180.0	0.0	2	0.0	1.15	1	0.0	# ca,ca,cy,hc

Improper Coeffs

   1	1.1	-1	2	# ca,X,X,ha

Atoms

   1	1	1	-0.425718	-46.1902	15.5299	35.83
   2	1	1	0.123859	-47.1186	15.1606	34.8378
   3	1	1	0.123846	-47.1432	13.9083	34.2517
   4	1	1	-0.442194	-46.2526	12.8732	34.5924
   5	1	1	0.030377	-45.507	13.1642	35.7518
   6	1	1	0.003389	-45.4741	14.4264	36.3363
   7	1	2	0.006267	-44.1179	14.1995	36.9831
   8	1	2	0.040808	-44.1571	12.7581	36.3172
   9	1	3	0.010049	-42.8886	14.8802	36.3217
  10	1	2	-0.044998	-41.7949	14.0852	37.0861
  11	1	2	-0.017344	-41.8359	12.6422	36.4193
  12	1	3	0.004207	-42.9483	12.7626	35.3428
  13	1	3	-0.10977	-42.8533	14.2505	34.9001
  14	1	1	-0.002799	-40.3784	14.1758	36.5489
  15	1	1	-0.006419	-40.4135	12.9252	35.9719
  16	1	1	-0.256521	-39.5121	15.1904	36.1215
  17	1	1	0.004841	-38.5636	14.8002	35.1487
  18	1	4	0.00733	-38.5974	13.5134	34.5545
  19	1	1	-0.221146	-39.5847	12.5581	34.9045
  20	1	3	0.21053	-37.5014	15.6881	34.4862
  21	1	4	0.0182	-37.5938	13.4714	33.4792
  22	1	1	0.000377	-36.9417	14.7316	33.4256
  23	1	3	-0.237942	-38.1343	16.9353	33.8293
  24	1	3	-0.215479	-36.4137	16.1019	35.5021
  25	1	1	-0.2391	-35.8605	14.9754	32.5465
  26	1	1	-0.027923	-35.5654	13.9163	31.6801
  27	1	1	-0.180376	-37.195	12.3852	32.6577
  28	1	1	-0.054224	-36.1919	12.6961	31.7329
  29	1	2	0.006282	-34.4251	13.4145	30.8118
  30	1	2	0.015188	-35.1482	12.0019	30.8749
  31	1	3	0.034756	-33.0369	13.1194	31.4318
  32	1	3	0.003059	-33.1177	12.8233	32.9541
  33	1	3	0.042972	-34.073	11.0953	31.5237
  34	1	3	0.004163	-33.8249	11.4434	33.0167
  35	1	3	-0.197219	-32.7966	11.6929	30.8967
  36	1	5	0.227416	-45.9683	16.5608	36.0867
  37	1	5	0.230059	-46.0753	12.0061	33.9645
  38	1	6	0.034807	-44.121	14.2402	38.0787
  39	1	6	0.022109	-44.1861	11.8977	36.9963
  40	1	6	0.043894	-42.8376	15.9746	36.3803
  41	1	6	0.04727	-41.8774	14.1328	38.1785
  42	1	6	0.039454	-41.945	11.7837	37.0927
  43	1	6	0.037752	-42.9511	12.0077	34.5468
  44	1	6	0.046701	-41.9288	14.477	34.3537
  45	1	6	0.047659	-43.6993	14.5613	34.2788
  46	1	5	0.173906	-39.6018	16.214	36.4711
  47	1	5	0.156928	-39.7296	11.6401	34.3443
  48	1	6	0.056509	-37.3798	17.5153	33.2838
  49	1	6	0.064596	-38.5889	17.5899	34.5827
  50	1	6	0.065502	-38.916	16.6406	33.1176
  51	1	6	0.062922	-36.8424	16.7118	36.3067
  52	1	6	0.049805	-35.6217	16.6846	35.016
  53	1	6	0.059229	-35.9537	15.2152	35.9566
  54	1	5	0.166497	-35.2797	15.8923	32.5685
  55	1	5	0.141714	-37.6005	11.3849	32.7701
  56	1	6	0.041341	-34.3491	13.8489	29.8089
  57	1	6	0.038019	-35.4903	11.6157	29.9083
  58	1	6	0.012124	-32.256	13.8427	31.1652
  59	1	6	0.001144	-33.6553	13.5977	33.5137
  60	1	6	0.009013	-34.2104	10.0224	31.3391
  61	1	6	0.001345	-34.7467	11.4695	33.6095
  62	1	6	0.041603	-32.7954	11.6426	29.7989
  63	1	6	0.069352	-31.8737	11.2382	31.2836
  64	1	1	-0.425718	-59.9761	14.4085	27.3952
  65	1	1	0.123859	-59.8931	14.215	26.0025
  66	1	1	0.123846	-59.0267	13.3117	25.4158
  67	1	1	-0.442194	-58.1692	12.466	26.1421
  68	1	1	0.030377	-58.4507	12.4759	27.522
  69	1	1	0.003389	-59.2938	13.4084	28.118
  70	1	2	0.006267	-58.6266	13.2886	29.4792
  71	1	2	0.040808	-57.6731	12.2159	28.7981
  72	1	3	0.010049	-57.6553	14.4249	29.9066
  73	1	2	-0.044998	-57.0056	13.6842	31.1089
  74	1	2	-0.017344	-56.0628	12.6029	30.4221
  75	1	3	0.004207	-56.2602	12.8463	28.9026
  76	1	3	-0.10977	-56.5443	14.3735	28.8193
  77	1	1	-0.002799	-55.7269	14.2737	31.6803
  78	1	1	-0.006419	-54.9137	13.3356	31.0845
  79	1	1	-0.256521	-55.2676	15.5315	32.094
  80	1	1	0.004841	-53.8706	15.7252	31.9852
  81	1	4	0.00733	-53.0371	14.7651	31.3577
  82	1	1	-0.221146	-53.5579	13.5614	30.8217
  83	1	3	0.21053	-53.0772	16.9877	32.3524
  84	1	4	0.0182	-51.6815	15.3237	31.2491
  85	1	1	0.000377	-51.6805	16.6172	31.8347
  86	1	3	-0.237942	-53.6265	18.2334	31.6214
  87	1	3	-0.215479	-53.0701	17.2138	33.8804
  88	1	1	-0.2391	-50.4939	17.3795	31.9566
  89	1	1	-0.027923	-49.3683	16.7968	31.3623
  90	1	1	-0.180376	-50.4998	14.7271	30.7389
  91	1	1	-0.054224	-49.3727	15.5534	30.782
  92	1	2	0.006282	-47.853	16.9106	31.3671
  93	1	2	0.015188	-47.8603	15.466	30.6932
  94	1	3	0.034756	-47.0479	16.6783	32.6719
  95	1	3	0.003059	-47.8616	15.8227	33.6888
  96	1	3	0.042972	-47.066	14.6042	31.7056
  97	1	3	0.004163	-47.8819	14.39	33.0164
  98	1	3	-0.197219	-46.0187	15.6556	32.1386
  99	1	5	0.227416	-60.4164	15.2888	27.8522
 100	1	5	0.230059	-57.3167	11.9574	25.7038
 101	1	6	0.034807	-59.2823	12.9304	30.2815
 102	1	6	0.022109	-57.7376	11.1861	29.1691
 103	1	6	0.043894	-58.1014	15.4059	30.1122
 104	1	6	0.04727	-57.7197	13.3196	31.8567
 105	1	6	0.039454	-56.1855	11.5599	30.7375
 106	1	6	0.037752	-55.489	12.4472	28.2322
 107	1	6	0.046701	-55.6694	14.9861	29.0722
 108	1	6	0.047659	-56.9029	14.6844	27.8319
 109	1	5	0.173906	-55.9416	16.3155	32.4244
 110	1	5	0.156928	-52.9661	12.8957	30.202
 111	1	6	0.056509	-52.9994	19.1114	31.8191
 112	1	6	0.064596	-54.648	18.4631	31.9478
 113	1	6	0.065502	-53.6447	18.0663	30.5369
 114	1	6	0.062922	-52.6668	16.3342	34.398
 115	1	6	0.049805	-54.086	17.3918	34.2543
 116	1	6	0.059229	-52.4509	18.0789	34.1471
 117	1	5	0.166497	-50.4525	18.3251	32.4883
 118	1	5	0.141714	-50.4657	13.7042	30.378
 119	1	6	0.041341	-47.423	17.7062	30.7488
 120	1	6	0.038019	-47.4332	15.4243	29.6851
 121	1	6	0.012124	-46.6052	17.5832	33.1068
 122	1	6	0.001144	-48.8509	16.2085	33.965
 123	1	6	0.009013	-46.6399	13.6821	31.2909
 124	1	6	0.001345	-48.8818	13.9536	32.9026
 125	1	6	0.041603	-45.4328	16.0442	31.2938
 126	1	6	0.069352	-45.3208	15.2941	32.9014
 127	1	1	-0.425718	-64.5264	11.408	12.1973
 128	1	1	0.123859	-63.6897	11.6564	11.092
 129	1	1	0.123846	-62.3286	11.4145	11.1017
 130	1	1	-0.442194	-61.6416	10.8579	12.196
 131	1	1	0.030377	-62.5195	10.3707	13.1841
 132	1	1	0.003389	-63.8821	10.6482	13.1941
 133	1	2	0.006267	-64.016	10.4404	14.6941
 134	1	2	0.040808	-62.4617	10.1089	14.677
 135	1	3	0.010049	-64.1124	11.7068	15.5922
 136	1	2	-0.044998	-63.8716	10.9964	16.9534
 137	1	2	-0.017344	-62.3176	10.6469	16.9262
 138	1	3	0.004207	-61.8313	11.212	15.5654
 139	1	3	-0.10977	-62.7633	12.4352	15.3307
 140	1	1	-0.002799	-63.5383	11.869	18.1525
 141	1	1	-0.006419	-62.1994	11.5618	18.1269
 142	1	1	-0.256521	-64.0607	12.9766	18.8336
 143	1	1	0.004841	-63.1171	13.6938	19.6083
 144	1	4	0.00733	-61.7335	13.3824	19.5685
 145	1	1	-0.221146	-61.223	12.3326	18.7646
 146	1	3	0.21053	-63.377	14.9263	20.4877
 147	1	4	0.0182	-61.0089	14.3695	20.3808
 148	1	1	0.000377	-61.9503	15.2726	20.9394
 149	1	3	-0.237942	-63.9972	16.082	19.6715
 150	1	3	-0.215479	-64.2769	14.5682	21.6915
 151	1	1	-0.2391	-61.5639	16.265	21.8726
 152	1	1	-0.027923	-60.1839	16.3476	22.1013
 153	1	1	-0.180376	-59.6325	14.4166	20.7147
 154	1	1	-0.054224	-59.2734	15.4796	21.5489
 155	1	2	0.006282	-59.2125	16.8701	23.1503
 156	1	2	0.015188	-58.1652	15.8529	22.5138
 157	1	3	0.034756	-59.2996	16.3964	24.6255
 158	1	3	0.003059	-60.0506	15.0373	24.7334
 159	1	3	0.042972	-57.8213	14.9168	23.6989
 160	1	3	0.004163	-59.0393	14.0148	24.072
 161	1	3	-0.197219	-57.8286	15.9674	24.833
 162	1	5	0.227416	-65.5137	11.8436	12.3126
 163	1	5	0.230059	-60.5635	10.8994	12.3124
 164	1	6	0.034807	-64.6928	9.62852	14.9851
 165	1	6	0.022109	-62.1682	9.08773	14.9479
 166	1	6	0.043894	-65.0254	12.3086	15.5031
 167	1	6	0.04727	-64.5641	10.1726	17.163
 168	1	6	0.039454	-62.0359	9.60412	17.1154
 169	1	6	0.037752	-60.7528	11.3803	15.4553
 170	1	6	0.046701	-62.5772	13.2553	16.0363
 171	1	6	0.047659	-62.6884	12.8367	14.3133
 172	1	5	0.173906	-65.1004	13.2765	18.7493
 173	1	5	0.156928	-60.1602	12.1638	18.6251
 174	1	6	0.056509	-64.9926	15.8111	19.2991
 175	1	6	0.064596	-63.3652	16.326	18.8081
 176	1	6	0.065502	-64.096	16.9853	20.2859
 177	1	6	0.062922	-63.8294	13.7563	22.2787
 178	1	6	0.049805	-65.2675	14.2379	21.3552
 179	1	6	0.059229	-64.4116	15.4323	22.3533
 180	1	5	0.166497	-62.2817	16.8815	22.4047
 181	1	5	0.141714	-58.9264	13.6559	20.3978
 182	1	6	0.041341	-58.934	17.9266	23.0698
 183	1	6	0.038019	-57.2749	16.3194	22.0776
 184	1	6	0.012124	-59.6542	17.1565	25.3329
 185	1	6	0.001144	-61.0637	15.0092	24.3136
 186	1	6	0.009013	-56.8769	14.3684	23.593
 187	1	6	0.001345	-59.4653	13.4079	23.2642
 188	1	6	0.041603	-57.1191	16.7879	24.656
 189	1	6	0.069352	-57.6261	15.5477	25.825
 190	1	1	-0.425718	-58.9741	10.6609	-3.32047
 191	1	1	0.123859	-57.8953	11.3303	-3.92904
 192	1	1	0.123846	-56.7719	11.7758	-3.25912
 193	1	1	-0.442194	-56.5481	11.599	-1.87943
 194	1	1	0.030377	-57.6776	11.0379	-1.25226
 195	1	1	0.003389	-58.8118	10.6104	-1.92328
 196	1	2	0.006267	-59.3856	9.89478	-0.716023
 197	1	2	0.040808	-58.0753	10.3759	0.0554054
 198	1	3	0.010049	-60.5407	10.6136	0.0338466
 199	1	2	-0.044998	-60.523	9.72085	1.30264
 200	1	2	-0.017344	-59.2098	10.1807	2.07643
 201	1	3	0.004207	-58.6229	11.3019	1.17403
 202	1	3	-0.10977	-59.8854	11.9375	0.523084
 203	1	1	-0.002799	-61.2839	10.2246	2.51562
 204	1	1	-0.006419	-60.1485	10.61	3.18844
 205	1	1	-0.256521	-62.5593	10.7192	2.81779
 206	1	1	0.004841	-62.6233	11.5328	3.97368
 207	1	4	0.00733	-61.4538	11.9128	4.68079
 208	1	1	-0.221146	-60.1606	11.5154	4.25511
 209	1	3	0.21053	-63.8684	12.2125	4.56182
 210	1	4	0.0182	-61.8412	12.8348	5.7593
 211	1	1	0.000377	-63.2479	13.0199	5.71089
 212	1	3	-0.237942	-64.5413	13.1454	3.53026
 213	1	3	-0.215479	-64.8768	11.1661	5.08614
 214	1	1	-0.2391	-63.9341	13.7771	6.69082
 215	1	1	-0.027923	-63.1068	14.3969	7.63641
 216	1	1	-0.180376	-61.0486	13.3847	6.79839
 217	1	1	-0.054224	-61.7475	14.2062	7.68876
 218	1	2	0.006282	-63.1874	14.9917	9.03494
 219	1	2	0.015188	-61.6143	14.75	9.09856
 220	1	3	0.034756	-63.7162	14.1542	10.2284
 221	1	3	0.003059	-63.6071	12.6314	9.93001
 222	1	3	0.042972	-61.4608	13.7782	10.2963
 223	1	3	0.004163	-62.0455	12.3709	9.95758
 224	1	3	-0.197219	-62.5494	14.3727	11.2196
 225	1	5	0.227416	-59.7832	10.1835	-3.86385
 226	1	5	0.230059	-55.6041	11.7984	-1.38251
 227	1	6	0.034807	-59.5424	8.81832	-0.852711
 228	1	6	0.022109	-57.3748	9.61213	0.413339
 229	1	6	0.043894	-61.497	10.7005	-0.496874
 230	1	6	0.04727	-60.6346	8.64823	1.10421
 231	1	6	0.039454	-58.4939	9.39782	2.35386
 232	1	6	0.037752	-57.9067	11.9896	1.6407
 233	1	6	0.046701	-60.5089	12.4807	1.24502
 234	1	6	0.047659	-59.6422	12.6219	-0.299996
 235	1	5	0.173906	-63.4229	10.5248	2.18978
 236	1	5	0.156928	-59.252	11.9172	4.69146
 237	1	6	0.056509	-64.9301	12.5752	2.67779
 238	1	6	0.064596	-63.8209	13.8799	3.14833
 239	1	6	0.065502	-65.3757	13.6935	3.9846
 240	1	6	0.062922	-65.7371	11.6525	5.56174
 241	1	6	0.049805	-64.4029	10.5112	5.82834
 242	1	6	0.059229	-65.2491	10.5379	4.26765
 243	1	5	0.166497	-65.0172	13.8352	6.73589
 244	1	5	0.141714	-59.9984	13.1422	6.92497
 245	1	6	0.041341	-63.4939	16.0416	9.09764
 246	1	6	0.038019	-61.0121	15.6577	9.21681
 247	1	6	0.012124	-64.6982	14.4627	10.6084
 248	1	6	0.001144	-64.1113	12.2772	9.02256
 249	1	6	0.009013	-60.4571	13.7483	10.7384
 250	1	6	0.001345	-61.649	11.8797	9.06071
 251	1	6	0.041603	-62.3798	15.4348	11.4461
 252	1	6	0.069352	-62.6669	13.8348	12.1682
 253	1	1	-0.425718	-45.7667	6.37705	-11.8838
 254	1	1	0.123859	-44.6091	7.07508	-12.2771
 255	1	1	0.123846	-44.1502	8.21599	-11.6413
 256	1	1	-0.442194	-44.7809	8.78263	-10.5177
 257	1	1	0.030377	-46.0439	8.21291	-10.2686
 258	1	1	0.003389	-46.5171	7.08205	-10.9233
 259	1	2	0.006267	-47.4965	6.72971	-9.81836
 260	1	2	0.040808	-46.9453	8.01452	-9.06311
 261	1	3	0.010049	-48.9915	7.0661	-10.0772
 262	1	2	-0.044998	-49.4846	6.86783	-8.61861
 263	1	2	-0.017344	-48.9219	8.14173	-7.84937
 264	1	3	0.004207	-48.1821	8.94443	-8.95499
 265	1	3	-0.10977	-48.9893	8.613	-10.2433
 266	1	1	-0.002799	-50.8632	7.40253	-8.27215
 267	1	1	-0.006419	-50.3743	8.49792	-7.59756
 268	1	1	-0.256521	-52.158	7.34874	-8.80523
 269	1	1	0.004841	-52.9892	8.44307	-8.46937
 270	1	4	0.00733	-52.4885	9.56514	-7.7613
 271	1	1	-0.221146	-51.1292	9.65371	-7.369
 272	1	3	0.21053	-54.4427	8.67225	-8.90852
 273	1	4	0.0182	-53.548	10.5825	-7.69055
 274	1	1	0.000377	-54.6972	10.0821	-8.3574
 275	1	3	-0.237942	-54.5801	8.6439	-10.4473
 276	1	3	-0.215479	-55.3876	7.6365	-8.25987
 277	1	1	-0.2391	-55.9134	10.8055	-8.39199
 278	1	1	-0.027923	-55.8523	12.0746	-7.80308
 279	1	1	-0.180376	-53.5575	11.826	-7.00824
 280	1	1	-0.054224	-54.7456	12.5508	-7.14515
 281	1	2	0.006282	-56.778	13.1448	-7.24768
 282	1	2	0.015188	-55.4949	13.6874	-6.47435
 283	1	3	0.034756	-57.7648	12.8175	-6.09856
 284	1	3	0.003059	-57.296	11.5649	-5.30264
 285	1	3	0.042972	-55.9146	13.5777	-4.98585
 286	1	3	0.004163	-56.0093	12.0873	-4.53468
 287	1	3	-0.197219	-57.4041	13.9699	-5.13103
 288	1	5	0.227416	-45.9779	5.3546	-12.1802
 289	1	5	0.230059	-44.2884	9.47333	-9.84084
 290	1	6	0.034807	-47.3359	5.74603	-9.36164
 291	1	6	0.022109	-46.4132	7.87469	-8.11468
 292	1	6	0.043894	-49.5021	6.48519	-10.8554
 293	1	6	0.04727	-49.2524	5.8851	-8.19128
 294	1	6	0.039454	-48.3292	7.9575	-6.94538
 295	1	6	0.037752	-47.987	10.0047	-8.75128
 296	1	6	0.046701	-49.9986	9.04456	-10.2368
 297	1	6	0.047659	-48.4838	8.94232	-11.1603
 298	1	5	0.173906	-52.481	6.55159	-9.46728
 299	1	5	0.156928	-50.6939	10.5669	-6.9766
 300	1	6	0.056509	-54.3408	7.65058	-10.846
 301	1	6	0.064596	-53.8977	9.3694	-10.9081
 302	1	6	0.065502	-55.6024	8.89757	-10.7534
 303	1	6	0.062922	-55.2986	7.66588	-7.1664
 304	1	6	0.049805	-55.1429	6.62052	-8.59338
 305	1	6	0.059229	-56.4332	7.83982	-8.52132
 306	1	5	0.166497	-56.8297	10.3968	-8.80643
 307	1	5	0.141714	-52.7291	12.1658	-6.39507
 308	1	6	0.041341	-57.2056	13.8424	-7.97629
 309	1	6	0.038019	-55.1863	14.7028	-6.74706
 310	1	6	0.012124	-58.821	12.7862	-6.39388
 311	1	6	0.001144	-57.1409	10.6465	-5.88217
 312	1	6	0.009013	-55.3427	14.2141	-4.29904
 313	1	6	0.001345	-55.1112	11.474	-4.67852
 314	1	6	0.041603	-57.5378	14.9612	-5.58662
 315	1	6	0.069352	-57.9633	13.9499	-4.18619
 316	1	1	-0.425718	-31.3421	3.97133	-6.14687
 317	1	1	0.123859	-30.1723	4.71624	-6.38996
 318	1	1	0.123846	-30.1721	6.08224	-6.59773
 319	1	1	-0.442194	-31.3244	6.88656	-6.54313
 320	1	1	0.030377	-32.4368	6.18038	-6.04646
 321	1	1	0.003389	-32.4505	4.80014	-5.88039
 322	1	2	0.006267	-33.9642	4.70409	-5.9689
 323	1	2	0.040808	-33.9468	6.28473	-6.141
 324	1	3	0.010049	-34.5775	4.19697	-7.30503
 325	1	2	-0.044998	-36.044	4.61457	-7.00841
 326	1	2	-0.017344	-36.0253	6.20269	-7.16107
 327	1	3	0.004207	-34.5557	6.51922	-7.54774
 328	1	3	-0.10977	-34.1105	5.25802	-8.34226
 329	1	1	-0.002799	-37.0215	4.63028	-8.17059
 330	1	1	-0.006419	-37.0085	5.99514	-8.29464
 331	1	1	-0.256521	-37.5895	3.77143	-9.11858
 332	1	1	0.004841	-38.2531	4.43273	-10.1811
 333	1	4	0.00733	-38.2418	5.84784	-10.3069
 334	1	1	-0.221146	-37.5638	6.68047	-9.3789
 335	1	3	0.21053	-39.0107	3.78325	-11.3479
 336	1	4	0.0182	-38.968	6.21233	-11.533
 337	1	1	0.000377	-39.4304	5.02155	-12.1525
 338	1	3	-0.237942	-38.0872	2.8662	-12.18
 339	1	3	-0.215479	-40.2416	2.99895	-10.8407
 340	1	1	-0.2391	-40.2628	5.05244	-13.2969
 341	1	1	-0.027923	-40.4984	6.33252	-13.8138
 342	1	1	-0.180376	-39.3193	7.49663	-12.0216
 343	1	1	-0.054224	-40.0542	7.48438	-13.2118
 344	1	2	0.006282	-41.4952	7.05394	-14.7075
 345	1	2	0.015188	-40.9855	8.3869	-14.0003
 346	1	3	0.034756	-43.0104	7.04259	-14.3766
 347	1	3	0.003059	-43.251	6.73931	-12.8686
 348	1	3	0.042972	-42.2735	8.94615	-13.3442
 349	1	3	0.004163	-42.7308	8.05041	-12.1522
 350	1	3	-0.197219	-43.2875	8.5629	-14.4477
 351	1	5	0.227416	-31.4018	2.89277	-6.25121
 352	1	5	0.230059	-31.3721	7.89867	-6.93169
 353	1	6	0.034807	-34.4501	4.30818	-5.06936
 354	1	6	0.022109	-34.4109	6.87675	-5.34322
 355	1	6	0.043894	-34.4046	3.14426	-7.56111
 356	1	6	0.04727	-36.45	4.20646	-6.07524
 357	1	6	0.039454	-36.4129	6.79269	-6.32194
 358	1	6	0.037752	-34.364	7.49368	-8.01383
 359	1	6	0.046701	-34.6206	5.16204	-9.30953
 360	1	6	0.047659	-33.0285	5.22875	-8.52119
 361	1	5	0.173906	-37.5194	2.6907	-9.04716
 362	1	5	0.156928	-37.4721	7.75414	-9.50617
 363	1	6	0.056509	-38.6148	2.47158	-13.057
 364	1	6	0.064596	-37.7339	2.01733	-11.5821
 365	1	6	0.065502	-37.2097	3.42239	-12.5334
 366	1	6	0.062922	-40.8195	2.58923	-11.6778
 367	1	6	0.049805	-40.9031	3.65358	-10.2589
 368	1	6	0.059229	-39.9364	2.16568	-10.196
 369	1	5	0.166497	-40.7218	4.16129	-13.7135
 370	1	5	0.141714	-39.0852	8.41128	-11.4866
 371	1	6	0.041341	-41.3053	7.00363	-15.7854
 372	1	6	0.038019	-40.51	9.11185	-14.6703
 373	1	6	0.012124	-43.6248	6.43706	-15.0546
 374	1	6	0.001144	-42.8185	5.80759	-12.4836
 375	1	6	0.009013	-42.2416	10.0173	-13.1088
 376	1	6	0.001345	-41.9929	7.87585	-11.3597
 377	1	6	0.041603	-43.0311	8.99375	-15.4259
 378	1	6	0.069352	-44.3245	8.8382	-14.2139
 379	1	1	-0.425718	-18.8687	11.4144	-0.566109
 380	1	1	0.123859	-18.0935	12.461	-1.10133
 381	1	1	0.123846	-18.547	13.3174	-2.08584
 382	1	1	-0.442194	-19.8437	13.2755	-2.62773
 383	1	1	0.030377	-20.6854	12.4048	-1.90915
 384	1	1	0.003389	-20.2207	11.5096	-0.952312
 385	1	2	0.006267	-21.4117	10.5766	-1.09974
 386	1	2	0.040808	-21.9476	11.612	-2.18119
 387	1	3	0.010049	-21.2082	9.2669	-1.91483
 388	1	2	-0.044998	-22.7111	8.90024	-2.0644
 389	1	2	-0.017344	-23.2494	9.95769	-3.13327
 390	1	3	0.004207	-21.9957	10.7942	-3.49621
 391	1	3	-0.10977	-20.8254	9.78224	-3.33173
 392	1	1	-0.002799	-23.0819	7.84752	-3.0965
 393	1	1	-0.006419	-23.542	8.75911	-4.00713
 394	1	1	-0.256521	-23.1501	6.46152	-3.28034
 395	1	1	0.004841	-23.7314	6.06941	-4.5132
 396	1	4	0.00733	-24.1947	7.0217	-5.4615
 397	1	1	-0.221146	-24.1208	8.41947	-5.23028
 398	1	3	0.21053	-24.0319	4.63891	-4.98639
 399	1	4	0.0182	-24.8202	6.30296	-6.57918
 400	1	1	0.000377	-24.7601	4.91179	-6.31214
 401	1	3	-0.237942	-22.7298	3.84259	-5.22097
 402	1	3	-0.215479	-24.9464	3.89956	-3.983
 403	1	1	-0.2391	-25.4626	3.97667	-7.10938
 404	1	1	-0.027923	-26.1137	4.51752	-8.22761
 405	1	1	-0.180376	-25.5717	6.82702	-7.65879
 406	1	1	-0.054224	-26.1568	5.86817	-8.49173
 407	1	2	0.006282	-27.328	4.20274	-9.09211
 408	1	2	0.015188	-27.3805	5.76531	-9.38144
 409	1	3	0.034756	-28.716	3.92454	-8.45325
 410	1	3	0.003059	-28.8028	4.5207	-7.01831
 411	1	3	0.042972	-28.7716	6.17833	-8.83645
 412	1	3	0.004163	-28.8178	6.08285	-7.27862
 413	1	3	-0.197219	-29.5698	4.92578	-9.26641
 414	1	5	0.227416	-18.4544	10.5838	-0.00382271
 415	1	5	0.230059	-20.1311	13.7787	-3.54528
 416	1	6	0.034807	-22.0123	10.4538	-0.190788
 417	1	6	0.022109	-22.8766	12.1439	-1.94355
 418	1	6	0.043894	-20.5548	8.50478	-1.47207
 419	1	6	0.04727	-23.248	8.81643	-1.11204
 420	1	6	0.039454	-24.1309	10.5538	-2.86806
 421	1	6	0.037752	-22.0335	11.3638	-4.43309
 422	1	6	0.046701	-20.8375	8.9895	-4.09099
 423	1	6	0.047659	-19.8401	10.2644	-3.3559
 424	1	5	0.173906	-22.8237	5.75158	-2.52697
 425	1	5	0.156928	-24.5145	9.15707	-5.92176
 426	1	6	0.056509	-22.0776	4.36966	-5.92894
 427	1	6	0.064596	-22.9474	2.85012	-5.63426
 428	1	6	0.065502	-22.1767	3.7109	-4.283
 429	1	6	0.062922	-25.8757	4.46116	-3.82315
 430	1	6	0.049805	-24.4497	3.78077	-3.01234
 431	1	6	0.059229	-25.2114	2.90163	-4.35256
 432	1	5	0.166497	-25.5639	2.93283	-6.82931
 433	1	5	0.141714	-25.7646	7.88901	-7.77027
 434	1	6	0.041341	-27.1458	3.57882	-9.97402
 435	1	6	0.038019	-27.2441	6.04489	-10.432
 436	1	6	0.012124	-29.053	2.88258	-8.52093
 437	1	6	0.001144	-28.0401	4.18537	-6.30555
 438	1	6	0.009013	-29.1597	7.12375	-9.23567
 439	1	6	0.001345	-28.0571	6.64697	-6.72727
 440	1	6	0.041603	-29.52	4.74246	-10.349
 441	1	6	0.069352	-30.6265	4.95134	-8.97139
 442	1	1	-0.425718	-12.7123	26.2706	0.338959
 443	1	1	0.123859	-12.4955	27.3465	-0.54213
 444	1	1	0.123846	-12.8494	27.3064	-1.88413
 445	1	1	-0.442194	-13.464	26.1852	-2.47364
 446	1	1	0.030377	-13.4494	25.04	-1.65445
 447	1	1	0.003389	-13.087	25.0802	-0.310864
 448	1	2	0.006267	-13.9821	23.9137	0.0673253
 449	1	2	0.040808	-14.3973	23.8691	-1.46171
 450	1	3	0.010049	-13.2933	22.5425	0.309095
 451	1	2	-0.044998	-14.588	21.6852	0.307034
 452	1	2	-0.017344	-15.011	21.6441	-1.2318
 453	1	3	0.004207	-13.9079	22.4761	-1.94072
 454	1	3	-0.10977	-12.6463	22.2196	-1.06776
 455	1	1	-0.002799	-14.4321	20.1805	0.186724
 456	1	1	-0.006419	-14.7971	20.1468	-1.13238
 457	1	1	-0.256521	-13.9457	19.073	0.890176
 458	1	1	0.004841	-13.9272	17.8722	0.138637
 459	1	4	0.00733	-14.3045	17.8382	-1.23099
 460	1	1	-0.221146	-14.7246	19.0012	-1.92891
 461	1	3	0.21053	-13.5158	16.4768	0.629971
 462	1	4	0.0182	-14.1666	16.4572	-1.71648
 463	1	1	0.000377	-13.7122	15.6448	-0.645983
 464	1	3	-0.237942	-12.0427	16.4514	1.09284
 465	1	3	-0.215479	-14.4495	15.9941	1.76324
 466	1	1	-0.2391	-13.6314	14.2369	-0.765729
 467	1	1	-0.027923	-13.9326	13.7311	-2.03805
 468	1	1	-0.180376	-14.5744	15.9019	-2.95424
 469	1	1	-0.054224	-14.3823	14.521	-3.07141
 470	1	2	0.006282	-14.4589	12.4407	-2.65336
 471	1	2	0.015188	-14.997	13.3623	-3.8329
 472	1	3	0.034756	-15.7523	11.7689	-2.11935
 473	1	3	0.003059	-16.6326	12.7933	-1.3485
 474	1	3	0.042972	-16.5293	13.1298	-3.78498
 475	1	3	0.004163	-17.1538	13.7532	-2.49597
 476	1	3	-0.197219	-16.5252	11.62	-3.45082
 477	1	5	0.227416	-12.7737	26.3982	1.41514
 478	1	5	0.230059	-14.0562	26.2516	-3.38073
 479	1	6	0.034807	-14.7519	24.1565	0.809288
 480	1	6	0.022109	-15.4398	24.0839	-1.72514
 481	1	6	0.043894	-12.6472	22.4616	1.19219
 482	1	6	0.04727	-15.3468	22.0096	1.02912
 483	1	6	0.039454	-16.0359	21.9438	-1.48106
 484	1	6	0.037752	-13.7996	22.3348	-3.02329
 485	1	6	0.046701	-12.2844	21.1854	-1.13591
 486	1	6	0.047659	-11.8142	22.8917	-1.31453
 487	1	5	0.173906	-13.6192	19.13	1.92375
 488	1	5	0.156928	-14.9697	19.0014	-2.9859
 489	1	6	0.056509	-11.737	15.4347	1.36876
 490	1	6	0.064596	-11.8938	17.1021	1.96312
 491	1	6	0.065502	-11.3807	16.7996	0.289973
 492	1	6	0.062922	-15.4953	16.003	1.43025
 493	1	6	0.049805	-14.368	16.6445	2.64273
 494	1	6	0.059229	-14.2	14.9716	2.07145
 495	1	5	0.166497	-13.4293	13.5905	0.0826474
 496	1	5	0.141714	-15.0781	16.4872	-3.71662
 497	1	6	0.041341	-13.7044	11.7052	-2.95336
 498	1	6	0.038019	-14.5715	13.1451	-4.81894
 499	1	6	0.012124	-15.5929	10.8269	-1.57978
 500	1	6	0.001144	-16.1555	13.3076	-0.505867
 501	1	6	0.009013	-17.0626	13.3893	-4.70804
 502	1	6	0.001345	-16.9628	14.8187	-2.3233
 503	1	6	0.041603	-15.9771	11.023	-4.19322
 504	1	6	0.069352	-17.5282	11.189	-3.33698
 505	1	1	-0.425718	-7.91362	43.4518	-7.12383
 506	1	1	0.123859	-7.7676	43.8532	-8.46224
 507	1	1	0.123846	-8.16615	43.0769	-9.54116
 508	1	1	-0.442194	-8.7913	41.823	-9.3793
 509	1	1	0.030377	-8.71947	41.3264	-8.0613
 510	1	1	0.003389	-8.28967	42.1045	-6.99053
 511	1	2	0.006267	-9.10947	41.3405	-5.97448
 512	1	2	0.040808	-9.61192	40.4521	-7.18812
 513	1	3	0.010049	-8.33413	40.3456	-5.07269
 514	1	2	-0.044998	-9.58198	39.6405	-4.48831
 515	1	2	-0.017344	-10.117	38.7361	-5.68698
 516	1	3	0.004207	-9.10367	39.0253	-6.83435
 517	1	3	-0.10977	-7.77226	39.3025	-6.08019
 518	1	1	-0.002799	-9.34898	38.3397	-3.75204
 519	1	1	-0.006419	-9.82769	37.5561	-4.77092
 520	1	1	-0.256521	-9.1411	37.8883	-2.44679
 521	1	1	0.004841	-9.41351	36.5146	-2.25344
 522	1	4	0.00733	-9.95118	35.7028	-3.28918
 523	1	1	-0.221146	-10.2155	36.2226	-4.58664
 524	1	3	0.21053	-9.34204	35.7512	-0.926266
 525	1	4	0.0182	-10.3008	34.3914	-2.70958
 526	1	1	0.000377	-9.95858	34.4077	-1.33119
 527	1	3	-0.237942	-7.87965	35.5758	-0.462507
 528	1	3	-0.215479	-10.1788	36.4499	0.170858
 529	1	1	-0.2391	-10.3311	33.3605	-0.458143
 530	1	1	-0.027923	-10.9594	32.2745	-1.07494
 531	1	1	-0.180376	-11.0474	33.3236	-3.27536
 532	1	1	-0.054224	-11.2981	32.2515	-2.40835
 533	1	2	0.006282	-11.9524	31.1959	-0.690134
 534	1	2	0.015188	-12.3454	31.1628	-2.22963
 535	1	3	0.034756	-11.4252	29.7651	-0.430676
 536	1	3	0.003059	-12.6807	28.8493	-0.439309
 537	1	3	0.042972	-11.9983	29.7081	-2.6362
 538	1	3	0.004163	-13.0793	28.8067	-1.96857
 539	1	3	-0.197219	-10.7498	29.4061	-1.77491
 540	1	5	0.227416	-7.91603	44.1525	-6.29493
 541	1	5	0.230059	-9.41469	41.3741	-10.146
 542	1	6	0.034807	-9.84291	41.9518	-5.43515
 543	1	6	0.022109	-10.6761	40.4841	-7.45006
 544	1	6	0.043894	-7.62551	40.7756	-4.35374
 545	1	6	0.04727	-10.2876	40.3184	-3.9931
 546	1	6	0.039454	-11.1669	38.8371	-5.98687
 547	1	6	0.037752	-9.06447	38.2981	-7.65492
 548	1	6	0.046701	-7.36806	38.4085	-5.58778
 549	1	6	0.047659	-6.99225	39.7177	-6.73167
 550	1	5	0.173906	-8.85656	38.5528	-1.6372
 551	1	5	0.156928	-10.7335	35.6531	-5.35135
 552	1	6	0.056509	-7.82764	34.9628	0.445711
 553	1	6	0.064596	-7.41712	36.5472	-0.249132
 554	1	6	0.065502	-7.28559	35.0804	-1.24103
 555	1	6	0.062922	-9.77546	37.4434	0.400659
 556	1	6	0.049805	-10.1812	35.8643	1.09815
 557	1	6	0.059229	-11.2189	36.5724	-0.157302
 558	1	5	0.166497	-10.2131	33.4277	0.618843
 559	1	5	0.141714	-11.4639	33.3724	-4.27616
 560	1	6	0.041341	-12.7223	31.4982	0.0284698
 561	1	6	0.038019	-13.3693	31.4422	-2.50173
 562	1	6	0.012124	-10.7859	29.6518	0.45388
 563	1	6	0.001144	-13.4988	29.1601	0.223881
 564	1	6	0.009013	-11.8684	29.5394	-3.71252
 565	1	6	0.001345	-14.1209	29.095	-2.16238
 566	1	6	0.041603	-9.88955	30.0443	-2.01519
 567	1	6	0.069352	-10.4148	28.3624	-1.83521
 568	1	1	-0.425718	2.62669	48.3026	-21.1406
 569	1	1	0.123859	2.91557	47.5362	-22.2935
 570	1	1	0.123846	1.94148	46.6678	-22.8814
 571	1	1	-0.442194	0.656263	46.5462	-22.2908
 572	1	1	0.030377	0.454384	47.2208	-21.0839
 573	1	1	0.003389	1.38785	48.0642	-20.5457
 574	1	2	0.006267	0.383239	48.817	-19.6958
 575	1	2	0.040808	-0.702859	47.8297	-20.311
 576	1	3	0.010049	0.360756	48.4986	-18.1786
 577	1	2	-0.044998	-0.992866	49.1945	-17.8752
 578	1	2	-0.017344	-2.08206	48.194	-18.4753
 579	1	3	0.004207	-1.22874	47.0438	-19.0767
 580	1	3	-0.10977	0.00712632	46.9845	-18.134
 581	1	1	-0.002799	-1.6267	48.9026	-16.532
 582	1	1	-0.006419	-2.56055	48.0398	-17.0414
 583	1	1	-0.256521	-1.63982	49.3852	-15.2215
 584	1	1	0.004841	-2.68471	48.8636	-14.4228
 585	1	4	0.00733	-3.65535	47.9624	-14.9424
 586	1	1	-0.221146	-3.63745	47.5404	-16.3
 587	1	3	0.21053	-2.99816	49.2435	-12.9712
 588	1	4	0.0182	-4.65737	47.7084	-13.891
 589	1	1	0.000377	-4.29486	48.4602	-12.7411
 590	1	3	-0.237942	-1.87784	48.7725	-12.0175
 591	1	3	-0.215479	-3.23347	50.7638	-12.8232
 592	1	1	-0.2391	-5.04308	48.4028	-11.5434
 593	1	1	-0.027923	-6.20913	47.6372	-11.6272
 594	1	1	-0.180376	-5.78194	46.8389	-13.8925
 595	1	1	-0.054224	-6.55392	46.8887	-12.7247
 596	1	2	0.006282	-7.20976	46.9627	-10.7141
 597	1	2	0.015188	-7.61746	46.0904	-11.9824
 598	1	3	0.034756	-6.68947	45.9061	-9.71372
 599	1	3	0.003059	-7.95051	45.1603	-9.20513
 600	1	3	0.042972	-7.30159	44.6454	-11.5138
 601	1	3	0.004163	-8.38244	44.2818	-10.4478
 602	1	3	-0.197219	-6.04132	44.8496	-10.6401
 603	1	5	0.227416	3.30007	49.0751	-20.7822
 604	1	5	0.230059	-0.152225	46.0151	-22.784
 605	1	6	0.034807	0.306917	49.8862	-19.9263
 606	1	6	0.022109	-1.4968	48.2528	-20.9378
 607	1	6	0.043894	1.22857	48.8239	-17.5913
 608	1	6	0.04727	-1.03428	50.2477	-18.1776
 609	1	6	0.039454	-2.83171	48.5998	-19.1651
 610	1	6	0.037752	-1.74567	46.0969	-19.2762
 611	1	6	0.046701	-0.244406	46.636	-17.1238
 612	1	6	0.047659	0.811035	46.348	-18.5261
 613	1	5	0.173906	-0.939245	50.1333	-14.864
 614	1	5	0.156928	-4.42128	46.931	-16.7379
 615	1	6	0.056509	-0.931563	49.2785	-12.2449
 616	1	6	0.064596	-1.71746	47.6914	-12.1161
 617	1	6	0.065502	-2.13644	48.9839	-10.9728
 618	1	6	0.062922	-4.02242	51.0998	-13.508
 619	1	6	0.049805	-2.32118	51.328	-13.0519
 620	1	6	0.059229	-3.54208	51.0146	-11.8009
 621	1	5	0.166497	-4.73046	48.8954	-10.628
 622	1	5	0.141714	-6.01172	46.1768	-14.7209
 623	1	6	0.041341	-7.98672	47.612	-10.2953
 624	1	6	0.038019	-8.64411	46.2094	-12.3462
 625	1	6	0.012124	-6.03681	46.2899	-8.91955
 626	1	6	0.001144	-8.75291	45.7972	-8.8099
 627	1	6	0.009013	-7.19006	43.9062	-12.3168
 628	1	6	0.001345	-9.42421	44.4363	-10.7582
 629	1	6	0.041603	-5.17845	45.2314	-11.2011
 630	1	6	0.069352	-5.71718	43.9412	-10.1159
 631	1	1	-0.425718	-2.5324	45.2936	-35.2066
 632	1	1	0.123859	-2.97891	44.1411	-34.5242
 633	1	1	0.123846	-3.80926	44.2275	-33.3676
 634	1	1	-0.442194	-4.17582	45.511	-32.8823