pySIMM System Object

1479 atoms
1740 bonds
3588 angles
6764 dihedrals
138 impropers

6 atom types
11 bond types
24 angle types
21 dihedral types
1 improper types

-160.029519 160.029519 xlo xhi
-160.029519 160.029519 ylo yhi
-160.029519 160.029519 zlo zhi

Masses

   1	12.01	# ca
   2	12.01	# cy
   3	12.01	# c3
   4	12.01	# cp
   5	1.008	# ha
   6	1.008	# hc

Pair Coeffs

   1	0.086	3.3996695084235347	# ca
   2	0.086	3.3996695084235347	# cy
   3	0.1094	3.3996695084235347	# c3
   4	0.086	3.3996695084235347	# cp
   5	0.015	2.59964245953351	# ha
   6	0.0157	2.649532787749369	# hc

Bond Coeffs

   1	321.0	1.5156	# c3,ca
   2	285.0	1.5562	# cy,cy
   3	330.6	1.0969	# c3,hc
   4	333.3	1.0949	# cy,hc
   5	321.2	1.5154	# ca,cy
   6	461.1	1.3984	# ca,ca
   7	300.9	1.5375	# c3,c3
   8	305.9	1.5319	# c3,cy
   9	351.4	1.4854	# cp,cp
  10	345.8	1.086	# ca,ha
  11	450.2	1.4058	# ca,cp

Angle Coeffs

   1	62.73	112.39	# c3,c3,cy
   2	46.29	110.75	# cy,c3,hc
   3	44.83	114.79	# cy,cy,hc
   4	60.66	118.7	# c3,cy,cy
   5	66.72	118.38	# ca,cp,ca
   6	62.86	111.51	# c3,c3,c3
   7	46.43	110.14	# c3,cy,hc
   8	63.43	120.63	# c3,ca,cp
   9	63.56	112.24	# ca,c3,ca
  10	64.05	121.11	# ca,cp,cp
  11	66.62	120.02	# ca,ca,ca
  12	39.4	107.58	# hc,c3,hc
  13	47.98	119.86	# cp,ca,ha
  14	63.53	120.77	# c3,ca,ca
  15	63.51	120.86	# ca,ca,cy
  16	62.8	113.57	# c3,cy,ca
  17	67.9	96.03	# cy,c3,cy
  18	45.97	114.53	# ca,cy,hc
  19	61.4	116.81	# ca,cy,cy
  20	63.15	112.07	# c3,c3,ca
  21	66.26	120.69	# ca,ca,cp
  22	46.34	109.8	# c3,c3,hc
  23	48.18	119.88	# ca,ca,ha
  24	46.8	110.47	# ca,c3,hc

Dihedral Coeffs

   1	1	0.16	3	0.0	# cy,c3,cy,ca
   2	1	0.16	3	0.0	# c3,c3,cy,ca
   3	1	0.16	3	0.0	# hc,c3,cy,ca
   4	3	0.18	3	0.0	0.25	2	180.0	0.2	1	180.0	# cy,c3,cy,cy
   5	1	0.15	3	0	# hc,c3,c3,hc
   6	3	0.18	3	0.0	0.25	2	180.0	0.2	1	180.0	# c3,c3,cy,cy
   7	1	0.16	3	0.0	# hc,c3,cy,cy
   8	1	0.16	3	0.0	# cy,c3,cy,hc
   9	1	0.16	3	0.0	# c3,c3,cy,hc
  10	1	0.15	3	0.0	# hc,c3,cy,hc
  11	1	3.625	2	180	# X,ca,ca,X
  12	1	0.15555555555555556	3	0	# X,cy,cy,X
  13	1	3.625	2	180	# X,ca,cp,X
  14	3	0.18	3	0	0.25	2	180	0.2	1	180	# c3,c3,c3,c3
  15	1	0.15555555555555556	3	0	# X,c3,c3,X
  16	1	0.16	3	0	# hc,c3,c3,c3
  17	1	1.0	2	180	# X,cp,cp,X
  18	1	0.0	2	0.0	# ca,ca,cy,cy
  19	1	0.0	2	0.0	# ca,ca,cy,c3
  20	1	0.0	2	0	# X,c3,ca,X
  21	3	0.38	3	180.0	0.0	2	0.0	1.15	1	0.0	# ca,ca,cy,hc

Improper Coeffs

   1	1.1	-1	2	# ca,X,X,ha

Atoms

   1	1	1	-0.425718	-29.7842	29.649	-40.8056
   2	1	1	0.123859	-29.5776	29.9593	-39.4484
   3	1	1	0.123846	-28.6063	30.8355	-38.9993
   4	1	1	-0.442194	-27.7053	31.5106	-39.8452
   5	1	1	0.030377	-27.7789	31.0396	-41.1704
   6	1	1	0.003389	-28.7612	30.1684	-41.6214
   7	1	2	0.006267	-28.5679	30.5429	-43.0784
   8	1	2	0.040808	-27.4375	31.5378	-42.564
   9	1	3	0.010049	-27.7963	29.5262	-43.9603
  10	1	2	-0.044998	-27.5573	30.4736	-45.1662
  11	1	2	-0.017344	-26.4189	31.4641	-44.6563
  12	1	3	0.004207	-26.1356	30.983	-43.2067
  13	1	3	-0.10977	-26.3981	29.4512	-43.2816
  14	1	1	-0.002799	-26.5497	30.0222	-46.2046
  15	1	1	-0.006419	-25.5661	30.876	-45.7674
  16	1	1	-0.256521	-26.299	28.9011	-47.0036
  17	1	1	0.004841	-24.9642	28.7843	-47.4552
  18	1	4	0.00733	-23.9464	29.6704	-47.015
  19	1	1	-0.221146	-24.2131	30.7137	-46.0898
  20	1	3	0.21053	-24.3911	27.6866	-48.3603
  21	1	4	0.0182	-22.6654	29.2255	-47.5896
  22	1	1	0.000377	-22.907	28.0723	-48.3819
  23	1	3	-0.237942	-24.5906	26.2833	-47.7459
  24	1	3	-0.215479	-25.0124	27.7551	-49.7734
  25	1	1	-0.2391	-21.8895	27.4774	-49.1634
  26	1	1	-0.027923	-20.6228	28.0522	-49.0095
  27	1	1	-0.180376	-21.3913	29.8487	-47.5469
  28	1	1	-0.054224	-20.3868	29.1721	-48.2496
  29	1	2	0.006282	-19.3134	28.1605	-49.7707
  30	1	2	0.015188	-19.0401	29.4555	-48.8944
  31	1	3	0.034756	-19.29	28.7106	-51.2185
  32	1	3	0.003059	-20.5079	29.623	-51.5292
  33	1	3	0.042972	-18.8955	30.5674	-49.9636
  34	1	3	0.004163	-20.2388	30.889	-50.6734
  35	1	3	-0.197219	-18.1866	29.7797	-51.0848
  36	1	5	0.227416	-30.6805	29.1695	-41.1857
  37	1	5	0.230059	-27.1129	32.366	-39.5366
  38	1	6	0.034807	-29.4558	30.9669	-43.5621
  39	1	6	0.022109	-27.5818	32.6143	-42.7137
  40	1	6	0.043894	-28.2974	28.573	-44.1705
  41	1	6	0.04727	-28.4672	30.9277	-45.5764
  42	1	6	0.039454	-26.6159	32.539	-44.7469
  43	1	6	0.037752	-25.1873	31.3013	-42.7562
  44	1	6	0.046701	-25.6557	28.921	-43.8922
  45	1	6	0.047659	-26.4291	28.9752	-42.2929
  46	1	5	0.173906	-27.0628	28.1643	-47.2308
  47	1	5	0.156928	-23.428	31.3126	-45.6397
  48	1	6	0.056509	-24.105	25.515	-48.3601
  49	1	6	0.064596	-25.6561	26.0355	-47.6676
  50	1	6	0.065502	-24.1555	26.2383	-46.7395
  51	1	6	0.062922	-26.0926	27.5688	-49.7347
  52	1	6	0.049805	-24.5609	27.0098	-50.4395
  53	1	6	0.059229	-24.8546	28.747	-50.2157
  54	1	5	0.166497	-22.0846	26.676	-49.8692
  55	1	5	0.141714	-21.2241	30.8052	-47.0623
  56	1	6	0.041341	-18.5963	27.3454	-49.6239
  57	1	6	0.038019	-18.1636	29.3913	-48.2402
  58	1	6	0.012124	-19.0994	27.9541	-51.9902
  59	1	6	0.001144	-21.4692	29.1521	-51.2937
  60	1	6	0.009013	-18.3539	31.4588	-49.6229
  61	1	6	0.001345	-21.0536	31.1046	-49.9727
  62	1	6	0.041603	-17.2212	29.3605	-50.7689
  63	1	6	0.069352	-18.0458	30.3691	-52.0019
  64	1	1	-0.425718	-36.7694	40.6505	-31.8705
  65	1	1	0.123859	-36.3937	40.9946	-30.5569
  66	1	1	0.123846	-35.0822	41.0022	-30.1207
  67	1	1	-0.442194	-33.9793	40.7177	-30.9455
  68	1	1	0.030377	-34.3418	40.6372	-32.3036
  69	1	1	0.003389	-35.6609	40.5831	-32.7389
  70	1	2	0.006267	-35.3051	39.9021	-34.0517
  71	1	2	0.040808	-33.7967	39.9786	-33.555
  72	1	3	0.010049	-35.5728	38.3746	-34.1741
  73	1	2	-0.044998	-34.7391	38.1365	-35.465
  74	1	2	-0.017344	-33.2294	38.2306	-34.9617
  75	1	3	0.004207	-33.3601	38.4955	-33.4392
  76	1	3	-0.10977	-34.6789	37.7635	-33.0576
  77	1	1	-0.002799	-34.4041	36.7009	-35.8338
  78	1	1	-0.006419	-33.1054	36.7862	-35.3989
  79	1	1	-0.256521	-35.0482	35.4883	-36.1084
  80	1	1	0.004841	-34.2166	34.3463	-36.0101
  81	1	4	0.00733	-32.8784	34.4344	-35.5427
  82	1	1	-0.221146	-32.296	35.6708	-35.1638
  83	1	3	0.21053	-34.6081	32.8873	-36.2845
  84	1	4	0.0182	-32.3223	33.0754	-35.4591
  85	1	1	0.000377	-33.3136	32.1585	-35.8982
  86	1	3	-0.237942	-35.7869	32.4398	-35.3918
  87	1	3	-0.215479	-34.9465	32.6758	-37.7771
  88	1	1	-0.2391	-33.0411	30.7767	-36.0339
  89	1	1	-0.027923	-31.7677	30.3901	-35.5996
  90	1	1	-0.180376	-31.0087	32.658	-35.1213
  91	1	1	-0.054224	-30.8119	31.2736	-35.1631
  92	1	2	0.006282	-30.789	29.2401	-35.7579
  93	1	2	0.015188	-29.6804	30.2628	-35.2444
  94	1	3	0.034756	-30.2677	28.8418	-37.1624
  95	1	3	0.003059	-30.3824	30.0318	-38.1633
  96	1	3	0.042972	-28.67	30.3015	-36.4191
  97	1	3	0.004163	-29.2728	31.0397	-37.6507
  98	1	3	-0.197219	-28.7513	28.8198	-36.8567
  99	1	5	0.227416	-37.7794	40.3724	-32.1541
 100	1	5	0.230059	-32.9885	40.4867	-30.5679
 101	1	6	0.034807	-35.5614	40.4774	-34.9491
 102	1	6	0.022109	-33.113	40.608	-34.1371
 103	1	6	0.043894	-36.6225	38.0564	-34.1973
 104	1	6	0.04727	-35.0238	38.7731	-36.3112
 105	1	6	0.039454	-32.5675	38.9263	-35.4912
 106	1	6	0.037752	-32.478	38.2856	-32.8217
 107	1	6	0.046701	-34.596	36.6711	-33.1282
 108	1	6	0.047659	-35.0282	38.0159	-32.0489
 109	1	5	0.173906	-36.1031	35.4292	-36.3567
 110	1	5	0.156928	-31.3156	35.7432	-34.7046
 111	1	6	0.056509	-36.0044	31.3743	-35.536
 112	1	6	0.064596	-36.6949	33.0087	-35.6253
 113	1	6	0.065502	-35.549	32.5975	-34.3322
 114	1	6	0.062922	-34.1035	32.9815	-38.4099
 115	1	6	0.049805	-35.8223	33.2686	-38.0683
 116	1	6	0.059229	-35.163	31.6211	-37.9858
 117	1	5	0.166497	-33.746	30.0782	-36.474
 118	1	5	0.141714	-30.2109	33.3576	-34.8938
 119	1	6	0.041341	-30.9501	28.3708	-35.1109
 120	1	6	0.038019	-29.2049	29.9885	-34.2962
 121	1	6	0.012124	-30.6667	27.8958	-37.5495
 122	1	6	0.001144	-31.3789	30.4738	-38.2864
 123	1	6	0.009013	-27.6622	30.6401	-36.1479
 124	1	6	0.001345	-29.6288	32.0634	-37.4814
 125	1	6	0.041603	-28.4937	28.1248	-36.045
 126	1	6	0.069352	-28.1254	28.5772	-37.7257
 127	1	1	-0.425718	-35.2818	49.5163	-18.3152
 128	1	1	0.123859	-34.8193	49.0061	-17.0866
 129	1	1	0.123846	-33.8192	48.0576	-16.9895
 130	1	1	-0.442194	-33.1151	47.5406	-18.0915
 131	1	1	0.030377	-33.3971	48.2468	-19.2766
 132	1	1	0.003389	-34.4386	49.1611	-19.3876
 133	1	2	0.006267	-34.5553	48.9968	-20.8944
 134	1	2	0.040808	-33.3504	47.9677	-20.7661
 135	1	3	0.010049	-35.7239	48.1251	-21.438
 136	1	2	-0.044998	-35.1996	47.9893	-22.8946
 137	1	2	-0.017344	-33.975	46.977	-22.7637
 138	1	3	0.004207	-33.9466	46.6224	-21.2531
 139	1	3	-0.10977	-35.4403	46.722	-20.8293
 140	1	1	-0.002799	-35.8335	46.9271	-23.7779
 141	1	1	-0.006419	-34.7736	46.0624	-23.6685
 142	1	1	-0.256521	-37.0914	46.5472	-24.2632
 143	1	1	0.004841	-37.1568	45.2193	-24.752
 144	1	4	0.00733	-36.0586	44.327	-24.6366
 145	1	1	-0.221146	-34.8376	44.713	-24.027
 146	1	3	0.21053	-38.3717	44.5157	-25.3755
 147	1	4	0.0182	-36.4693	43.0124	-25.1509
 148	1	1	0.000377	-37.8159	43.0998	-25.5909
 149	1	3	-0.237942	-39.5749	44.5008	-24.407
 150	1	3	-0.215479	-38.7625	45.1751	-26.717
 151	1	1	-0.2391	-38.4601	42.0154	-26.2354
 152	1	1	-0.027923	-37.7001	40.8399	-26.3049
 153	1	1	-0.180376	-35.6932	41.8413	-25.3391
 154	1	1	-0.054224	-36.395	40.7616	-25.8839
 155	1	2	0.006282	-37.6363	39.5414	-27.0987
 156	1	2	0.015188	-36.1169	39.4694	-26.6263
 157	1	3	0.034756	-37.5177	39.5522	-28.6459
 158	1	3	0.003059	-36.9627	40.9144	-29.1499
 159	1	3	0.042972	-35.3351	39.4984	-27.9637
 160	1	3	0.004163	-35.4582	40.8931	-28.6556
 161	1	3	-0.197219	-36.2905	38.6252	-28.8097
 162	1	5	0.227416	-36.2279	50.0346	-18.4335
 163	1	5	0.230059	-32.5079	46.6421	-18.0508
 164	1	6	0.034807	-34.3677	49.9107	-21.4702
 165	1	6	0.022109	-32.4059	48.2449	-21.2493
 166	1	6	0.043894	-36.7384	48.5233	-21.3125
 167	1	6	0.04727	-35.0048	48.9451	-23.3954
 168	1	6	0.039454	-33.0113	47.3001	-23.1754
 169	1	6	0.037752	-33.4084	45.7102	-20.9672
 170	1	6	0.046701	-36.0619	45.9322	-21.2706
 171	1	6	0.047659	-35.5759	46.6965	-19.7411
 172	1	5	0.173906	-37.9497	47.2114	-24.2464
 173	1	5	0.156928	-34.0313	44.0142	-23.8298
 174	1	6	0.056509	-39.9318	45.5186	-24.2073
 175	1	6	0.064596	-39.2929	44.0446	-23.4496
 176	1	6	0.065502	-40.4072	43.9227	-24.8268
 177	1	6	0.062922	-37.9103	45.1749	-27.4086
 178	1	6	0.049805	-39.0761	46.2153	-26.5654
 179	1	6	0.059229	-39.5885	44.6352	-27.1955
 180	1	5	0.166497	-39.4462	42.0999	-26.6815
 181	1	5	0.141714	-34.6291	41.8033	-25.1292
 182	1	6	0.041341	-38.2683	38.7225	-26.738
 183	1	6	0.038019	-35.8642	38.5977	-26.0124
 184	1	6	0.012124	-38.4154	39.2145	-29.1789
 185	1	6	0.001144	-37.5261	41.8071	-28.8517
 186	1	6	0.009013	-34.3069	39.1204	-27.9037
 187	1	6	0.001345	-35.1607	41.764	-28.0592
 188	1	6	0.041603	-36.4519	37.629	-28.3741
 189	1	6	0.069352	-35.967	38.4958	-29.8502
 190	1	1	-0.425718	-26.3726	50.3855	-5.26413
 191	1	1	0.123859	-25.9012	49.3395	-4.44514
 192	1	1	0.123846	-25.8099	48.0303	-4.87629
 193	1	1	-0.442194	-26.0845	47.6078	-6.18722
 194	1	1	0.030377	-26.2798	48.6945	-7.05912
 195	1	1	0.003389	-26.4567	50.0017	-6.61919
 196	1	2	0.006267	-27.2323	50.4201	-7.86176
 197	1	2	0.040808	-27.0035	48.9299	-8.36598
 198	1	3	0.010049	-28.7829	50.5311	-7.7559
 199	1	2	-0.044998	-29.0816	50.597	-9.28233
 200	1	2	-0.017344	-28.8169	49.1016	-9.77626
 201	1	3	0.004207	-28.4298	48.341	-8.48463
 202	1	3	-0.10977	-29.2198	49.0885	-7.37206
 203	1	1	-0.002799	-30.5147	50.3635	-9.74096
 204	1	1	-0.006419	-30.278	49.0818	-10.1569
 205	1	1	-0.256521	-31.7407	51.019	-9.91129
 206	1	1	0.004841	-32.7404	50.2269	-10.5338
 207	1	4	0.00733	-32.4946	48.8848	-10.9324
 208	1	1	-0.221146	-31.2313	48.2635	-10.7628
 209	1	3	0.21053	-34.1572	50.6627	-10.941
 210	1	4	0.0182	-33.6977	48.3628	-11.5932
 211	1	1	0.000377	-34.6762	49.3884	-11.6268
 212	1	3	-0.237942	-35.0122	51.0189	-9.70551
 213	1	3	-0.215479	-34.1109	51.85	-11.9295
 214	1	1	-0.2391	-35.8796	49.2373	-12.3581
 215	1	1	-0.027923	-36.0688	47.9722	-12.9332
 216	1	1	-0.180376	-33.8749	47.1334	-12.2735
 217	1	1	-0.054224	-35.1225	46.9748	-12.8843
 218	1	2	0.006282	-36.8195	47.3481	-14.1035
 219	1	2	0.015188	-35.7114	46.2077	-14.0514
 220	1	3	0.034756	-36.6688	47.9073	-15.5444
 221	1	3	0.003059	-35.3547	48.7266	-15.6917
 222	1	3	0.042972	-35.0473	46.2975	-15.4485
 223	1	3	0.004163	-34.2273	47.6184	-15.5973
 224	1	3	-0.197219	-36.3121	46.5975	-16.2858
 225	1	5	0.227416	-26.7226	51.3386	-4.88083
 226	1	5	0.230059	-26.2311	46.5701	-6.46847
 227	1	6	0.034807	-26.7635	51.2186	-8.44867
 228	1	6	0.022109	-26.3798	48.7955	-9.25794
 229	1	6	0.043894	-29.1789	51.3474	-7.13902
 230	1	6	0.04727	-28.5596	51.408	-9.8037
 231	1	6	0.039454	-28.1273	48.9519	-10.6158
 232	1	6	0.037752	-28.5146	47.2475	-8.5079
 233	1	6	0.046701	-30.3047	48.9383	-7.44526
 234	1	6	0.047659	-28.9023	48.8041	-6.36119
 235	1	5	0.173906	-31.8982	52.0545	-9.62668
 236	1	5	0.156928	-31.0134	47.2576	-11.106
 237	1	6	0.056509	-34.6013	51.8909	-9.18211
 238	1	6	0.064596	-35.0377	50.1791	-8.99963
 239	1	6	0.065502	-36.0443	51.2484	-9.99758
 240	1	6	0.062922	-35.1179	52.117	-12.2719
 241	1	6	0.049805	-33.5089	51.5946	-12.8111
 242	1	6	0.059229	-33.6656	52.7351	-11.4593
 243	1	5	0.166497	-36.5694	50.059	-12.5233
 244	1	5	0.141714	-33.0753	46.4083	-12.3847
 245	1	6	0.041341	-37.8396	47.006	-13.897
 246	1	6	0.038019	-36.0921	45.2037	-13.8332
 247	1	6	0.012124	-37.5568	48.4208	-15.9339
 248	1	6	0.001144	-35.226	49.5656	-14.9973
 249	1	6	0.009013	-34.501	45.3973	-15.7567
 250	1	6	0.001345	-33.4591	47.8093	-14.8391
 251	1	6	0.041603	-37.0864	45.8252	-16.1761
 252	1	6	0.069352	-36.1123	46.7328	-17.3563
 253	1	1	-0.425718	-14.4243	41.9401	-2.09234
 254	1	1	0.123859	-14.2628	40.5404	-2.15004
 255	1	1	0.123846	-15.2434	39.679	-2.60064
 256	1	1	-0.442194	-16.4939	40.0891	-3.08867
 257	1	1	0.030377	-16.5524	41.4843	-3.2522
 258	1	1	0.003389	-15.5888	42.3614	-2.76931
 259	1	2	0.006267	-16.5325	43.5581	-2.77766
 260	1	2	0.040808	-17.6278	42.542	-3.3246
 261	1	3	0.010049	-17.1275	44.0399	-1.42296
 262	1	2	-0.044998	-18.256	44.9392	-2.01299
 263	1	2	-0.017344	-19.3227	43.8866	-2.54276
 264	1	3	0.004207	-18.7035	42.5102	-2.20972
 265	1	3	-0.10977	-17.8942	42.7878	-0.910579
 266	1	1	-0.002799	-19.3559	45.4098	-1.07044
 267	1	1	-0.006419	-20.2623	44.4728	-1.51475
 268	1	1	-0.256521	-19.7565	46.6277	-0.498657
 269	1	1	0.004841	-21.1473	46.7592	-0.259325
 270	1	4	0.00733	-22.0642	45.7594	-0.668955
 271	1	1	-0.221146	-21.645	44.6134	-1.38499
 272	1	3	0.21053	-21.896	48.0124	0.227463
 273	1	4	0.0182	-23.4289	46.2634	-0.478736
 274	1	1	0.000377	-23.3596	47.5894	0.0152143
 275	1	3	-0.237942	-21.6067	48.2923	1.71779
 276	1	3	-0.215479	-21.5415	49.2464	-0.634488
 277	1	1	-0.2391	-24.5117	48.4117	0.0798305
 278	1	1	-0.027923	-25.7181	47.78	-0.261606
 279	1	1	-0.180376	-24.6464	45.6855	-0.908452
 280	1	1	-0.054224	-25.7784	46.4817	-0.717536
 281	1	2	0.006282	-27.0743	48.1611	-0.851824
 282	1	2	0.015188	-27.1156	46.6696	-1.39994
 283	1	3	0.034756	-27.191	49.0059	-2.15224
 284	1	3	0.003059	-25.8729	48.9549	-2.97298
 285	1	3	0.042972	-27.1652	46.8587	-2.93639
 286	1	3	0.004163	-25.8232	47.4545	-3.47682
 287	1	3	-0.197219	-28.1128	48.0792	-2.97974
 288	1	5	0.227416	-13.7748	42.6011	-1.52754
 289	1	5	0.230059	-17.3355	39.4206	-3.23863
 290	1	6	0.034807	-16.2335	44.3712	-3.44934
 291	1	6	0.022109	-18.0175	42.7233	-4.33351
 292	1	6	0.043894	-16.432	44.5152	-0.720022
 293	1	6	0.04727	-17.8911	45.7056	-2.70701
 294	1	6	0.039454	-19.6782	43.9764	-3.57646
 295	1	6	0.037752	-19.3839	41.6496	-2.1999
 296	1	6	0.046701	-18.5355	43.0062	-0.0468607
 297	1	6	0.047659	-17.2253	41.9603	-0.64141
 298	1	5	0.173906	-19.0622	47.4472	-0.342604
 299	1	5	0.156928	-22.3447	43.9535	-1.88699
 300	1	6	0.056509	-20.5457	48.5231	1.8739
 301	1	6	0.064596	-21.858	47.417	2.33014
 302	1	6	0.065502	-22.2005	49.1411	2.07852
 303	1	6	0.062922	-21.747	49.0473	-1.6941
 304	1	6	0.049805	-20.4801	49.5043	-0.53625
 305	1	6	0.059229	-22.1308	50.1205	-0.332552
 306	1	5	0.166497	-24.4556	49.4753	0.289375
 307	1	5	0.141714	-24.684	44.7433	-1.4453
 308	1	6	0.041341	-27.8621	48.405	-0.130697
 309	1	6	0.038019	-27.946	46.061	-1.02491
 310	1	6	0.012124	-27.5825	50.0206	-2.0079
 311	1	6	0.001144	-24.9671	49.2881	-2.45255
 312	1	6	0.009013	-27.5223	45.9849	-3.49576
 313	1	6	0.001345	-24.9034	46.9151	-3.22582
 314	1	6	0.041603	-29.0747	47.8877	-2.48361
 315	1	6	0.069352	-28.3175	48.4443	-3.9942
 316	1	1	-0.425718	-8.80593	28.9603	-8.81982
 317	1	1	0.123859	-9.15643	27.6222	-8.56015
 318	1	1	0.123846	-10.4418	27.2109	-8.25908
 319	1	1	-0.442194	-11.5299	28.0973	-8.14938
 320	1	1	0.030377	-11.223	29.3838	-8.63544
 321	1	1	0.003389	-9.93497	29.7895	-8.96788
 322	1	2	0.006267	-10.2479	31.2652	-8.79628
 323	1	2	0.040808	-11.7152	30.8012	-8.40037
 324	1	3	0.010049	-9.71544	31.965	-7.51772
 325	1	2	-0.044998	-10.5681	33.257	-7.6451
 326	1	2	-0.017344	-12.0337	32.7834	-7.22915
 327	1	3	0.004207	-11.8651	31.2709	-6.9263
 328	1	3	-0.10977	-10.4154	31.1839	-6.36919
 329	1	1	-0.002799	-10.6359	34.1619	-6.43036
 330	1	1	-0.006419	-11.8908	33.7477	-6.06637
 331	1	1	-0.256521	-9.80437	34.9394	-5.61683
 332	1	1	0.004841	-10.4005	35.3509	-4.40057
 333	1	4	0.00733	-11.6891	34.9	-4.0093
 334	1	1	-0.221146	-12.466	34.0351	-4.82476
 335	1	3	0.21053	-9.79113	36.2711	-3.33366
 336	1	4	0.0182	-11.9968	35.4681	-2.68813
 337	1	1	0.000377	-10.9144	36.2922	-2.28693
 338	1	3	-0.237942	-8.49327	35.6739	-2.74706
 339	1	3	-0.215479	-9.52939	37.6825	-3.90675
 340	1	1	-0.2391	-11.0041	37.1321	-1.15142
 341	1	1	-0.027923	-12.1817	36.9979	-0.402611
 342	1	1	-0.180376	-13.2119	35.427	-1.96245
 343	1	1	-0.054224	-13.2226	36.1798	-0.78264
 344	1	2	0.006282	-13.0482	37.8621	0.506674
 345	1	2	0.015188	-14.2483	36.926	0.0474649
 346	1	3	0.034756	-13.5221	39.276	0.0652102
 347	1	3	0.003059	-13.4632	39.4308	-1.48179
 348	1	3	0.042972	-15.2189	37.916	-0.641987
 349	1	3	0.004163	-14.6115	38.4564	-1.97533
 350	1	3	-0.197219	-15.0411	39.1198	0.312121
 351	1	5	0.227416	-7.78544	29.3287	-8.79447
 352	1	5	0.230059	-12.4575	27.8482	-7.6443
 353	1	6	0.034807	-10.1458	31.8606	-9.71128
 354	1	6	0.022109	-12.5313	31.1169	-9.0612
 355	1	6	0.043894	-8.6287	32.0937	-7.43994
 356	1	6	0.04727	-10.4622	33.7804	-8.60279
 357	1	6	0.039454	-12.8512	33.0185	-7.92121
 358	1	6	0.037752	-12.6546	30.7943	-6.33204
 359	1	6	0.046701	-10.3033	31.6711	-5.39187
 360	1	6	0.047659	-10.0575	30.1521	-6.27939
 361	1	5	0.173906	-8.78931	35.2026	-5.89677
 362	1	5	0.156928	-13.4211	33.6272	-4.51058
 363	1	6	0.056509	-8.1139	36.2943	-1.92577
 364	1	6	0.064596	-7.71171	35.604	-3.51334
 365	1	6	0.065502	-8.67642	34.6656	-2.35462
 366	1	6	0.062922	-9.14331	38.357	-3.13309
 367	1	6	0.049805	-10.4565	38.1155	-4.30376
 368	1	6	0.059229	-8.7967	37.6444	-4.72206
 369	1	5	0.166497	-10.2569	37.8864	-0.925092
 370	1	5	0.141714	-14.1004	34.9372	-2.34758
 371	1	6	0.041341	-12.8175	37.8193	1.5768
 372	1	6	0.038019	-14.7289	36.3612	0.854029
 373	1	6	0.012124	-13.0585	40.1075	0.610755
 374	1	6	0.001144	-12.487	39.2547	-1.949
 375	1	6	0.009013	-16.2517	37.5578	-0.735579
 376	1	6	0.001345	-14.2971	37.7116	-2.71465
 377	1	6	0.041603	-15.2758	38.8709	1.35667
 378	1	6	0.069352	-15.6312	40.0011	0.0282273
 379	1	1	-0.425718	-8.8315	12.5511	-10.862
 380	1	1	0.123859	-9.38429	11.5252	-10.0734
 381	1	1	0.123846	-10.5161	11.6811	-9.29239
 382	1	1	-0.442194	-11.2223	12.8949	-9.17874
 383	1	1	0.030377	-10.5344	13.968	-9.77995
 384	1	1	0.003389	-9.41644	13.8	-10.5865
 385	1	2	0.006267	-9.60613	15.1227	-11.3044
 386	1	2	0.040808	-10.876	15.3262	-10.3689
 387	1	3	0.010049	-8.65127	16.2754	-10.9
 388	1	2	-0.044998	-9.44573	17.4227	-11.5823
 389	1	2	-0.017344	-10.7008	17.6344	-10.6291
 390	1	3	0.004207	-10.5049	16.5711	-9.51438
 391	1	3	-0.10977	-8.95701	16.4738	-9.38741
 392	1	1	-0.002799	-9.05541	18.8393	-11.2088
 393	1	1	-0.006419	-10.1359	19.022	-10.3747
 394	1	1	-0.256521	-7.87086	19.5782	-11.1043
 395	1	1	0.004841	-7.90392	20.6333	-10.1649
 396	1	4	0.00733	-9.01041	20.8204	-9.29739
 397	1	1	-0.221146	-10.1384	19.9606	-9.3344
 398	1	3	0.21053	-6.75986	21.5966	-9.82272
 399	1	4	0.0182	-8.66604	21.8758	-8.32953
 400	1	1	0.000377	-7.35279	22.3342	-8.6167
 401	1	3	-0.237942	-5.47107	20.8377	-9.43419
 402	1	3	-0.215479	-6.48628	22.5673	-10.9931
 403	1	1	-0.2391	-6.75635	23.3943	-7.89526
 404	1	1	-0.027923	-7.52511	23.875	-6.82996
 405	1	1	-0.180376	-9.45826	22.4638	-7.3085
 406	1	1	-0.054224	-8.79902	23.4433	-6.55633
 407	1	2	0.006282	-7.62695	25.096	-5.93499
 408	1	2	0.015188	-9.10567	24.5962	-5.61368
 409	1	3	0.034756	-7.85678	26.4979	-6.55301
 410	1	3	0.003059	-8.5122	26.3843	-7.96364
 411	1	3	0.042972	-9.98007	25.789	-6.07981
 412	1	3	0.004163	-9.98424	25.9049	-7.63263
 413	1	3	-0.197219	-9.04455	26.9509	-5.67267
 414	1	5	0.227416	-8.1326	12.3755	-11.6735
 415	1	5	0.230059	-12.2324	12.9678	-8.7886
 416	1	6	0.034807	-9.76281	15.036	-12.3861
 417	1	6	0.022109	-11.8654	15.3882	-10.8372
 418	1	6	0.043894	-7.59671	16.1659	-11.1824
 419	1	6	0.04727	-9.64881	17.2664	-12.6485
 420	1	6	0.039454	-11.6912	17.6198	-11.0995
 421	1	6	0.037752	-11.0693	16.7193	-8.58534
 422	1	6	0.046701	-8.50367	17.3853	-8.97689
 423	1	6	0.047659	-8.63224	15.6253	-8.77135
 424	1	5	0.173906	-6.97638	19.3221	-11.6631
 425	1	5	0.156928	-10.9121	19.9841	-8.57403
 426	1	6	0.056509	-5.66824	20.1384	-8.61179
 427	1	6	0.064596	-4.69039	21.5352	-9.10703
 428	1	6	0.065502	-5.08081	20.2639	-10.2833
 429	1	6	0.062922	-7.40009	23.1118	-11.2633
 430	1	6	0.049805	-6.14052	22.0233	-11.8807
 431	1	6	0.059229	-5.71985	23.3038	-10.7227
 432	1	5	0.166497	-5.79665	23.824	-8.16505
 433	1	5	0.141714	-10.4992	22.2018	-7.1489
 434	1	6	0.041341	-6.95197	25.1256	-5.07252
 435	1	6	0.038019	-9.28604	24.3329	-4.5656
 436	1	6	0.012124	-6.98583	27.1643	-6.51918
 437	1	6	0.001144	-7.98454	25.7649	-8.69911
 438	1	6	0.009013	-10.9793	25.8313	-5.62869
 439	1	6	0.001345	-10.3066	25.0135	-8.18491
 440	1	6	0.041603	-8.80435	26.945	-4.60013
 441	1	6	0.069352	-9.43348	27.9427	-5.93102
 442	1	1	-0.425718	-18.9562	2.15119	-16.5932
 443	1	1	0.123859	-19.5711	1.01179	-16.0448
 444	1	1	0.123846	-20.0015	0.895083	-14.7375
 445	1	1	-0.442194	-19.8868	1.91111	-13.7657
 446	1	1	0.030377	-19.313	3.07221	-14.3245
 447	1	1	0.003389	-18.884	3.17844	-15.6362
 448	1	2	0.006267	-18.3239	4.57166	-15.4569
 449	1	2	0.040808	-18.8241	4.46273	-13.9444
 450	1	3	0.010049	-16.7823	4.68823	-15.3331
 451	1	2	-0.044998	-16.7557	6.16029	-14.8529
 452	1	2	-0.017344	-17.2621	6.08992	-13.3451
 453	1	3	0.004207	-17.5129	4.56928	-13.1177
 454	1	3	-0.10977	-16.4601	3.88716	-14.0386
 455	1	1	-0.002799	-15.4489	6.67132	-14.2825
 456	1	1	-0.006419	-15.8917	6.63747	-12.9812
 457	1	1	-0.256521	-14.0928	6.6594	-14.6285
 458	1	1	0.004841	-13.2007	6.79626	-13.5406
 459	1	4	0.00733	-13.6596	6.83719	-12.1987
 460	1	1	-0.221146	-15.0316	6.66956	-11.8768
 461	1	3	0.21053	-11.6682	6.79503	-13.6022
 462	1	4	0.0182	-12.4878	6.91262	-11.3108
 463	1	1	0.000377	-11.3168	6.8625	-12.1111
 464	1	3	-0.237942	-11.1289	5.49757	-14.2443
 465	1	3	-0.215479	-11.1435	8.03596	-14.3587
 466	1	1	-0.2391	-10.0257	7.00707	-11.5543
 467	1	1	-0.027923	-9.9965	7.1337	-10.1605
 468	1	1	-0.180376	-12.4269	7.18335	-9.91927
 469	1	1	-0.054224	-11.1312	7.24914	-9.39238
 470	1	2	0.006282	-9.08681	7.71854	-9.09527
 471	1	2	0.015188	-10.4014	7.86965	-8.21097
 472	1	3	0.034756	-8.57314	9.17342	-9.22056
 473	1	3	0.003059	-9.51155	10.0173	-10.1337
 474	1	3	0.042972	-10.4618	9.40042	-7.95041
 475	1	3	0.004163	-10.8129	10.1891	-9.24931
 476	1	3	-0.197219	-8.94707	9.68068	-7.80779
 477	1	5	0.227416	-18.5958	2.22794	-17.6142
 478	1	5	0.230059	-20.205	1.8146	-12.7325
 479	1	6	0.034807	-18.7887	5.33607	-16.0908
 480	1	6	0.022109	-19.6123	5.15395	-13.6236
 481	1	6	0.043894	-16.1934	4.44758	-16.2269
 482	1	6	0.04727	-17.2677	6.86521	-15.5189
 483	1	6	0.039454	-18.1051	6.73534	-13.0715
 484	1	6	0.037752	-17.5565	4.22435	-12.0772
 485	1	6	0.046701	-15.43	4.0363	-13.6899
 486	1	6	0.047659	-16.6292	2.80845	-14.1532
 487	1	5	0.173906	-13.7537	6.50897	-15.6485
 488	1	5	0.156928	-15.3795	6.52455	-10.8591
 489	1	6	0.056509	-10.0333	5.46574	-14.2017
 490	1	6	0.064596	-11.4324	5.42362	-15.2956
 491	1	6	0.065502	-11.5153	4.61692	-13.7157
 492	1	6	0.062922	-11.514	8.95705	-13.8908
 493	1	6	0.049805	-11.4769	8.0279	-15.4037
 494	1	6	0.059229	-10.0473	8.06792	-14.3502
 495	1	5	0.166497	-9.13193	7.09251	-12.1645
 496	1	5	0.141714	-13.3113	7.39706	-9.32768
 497	1	6	0.041341	-8.3288	7.04454	-8.68115
 498	1	6	0.038019	-10.3997	7.28977	-7.28137
 499	1	6	0.012124	-7.5087	9.26575	-9.47017
 500	1	6	0.001144	-9.68993	9.63523	-11.1455
 501	1	6	0.009013	-11.0601	9.69447	-7.07897
 502	1	6	0.001345	-11.7448	9.9051	-9.75374
 503	1	6	0.041603	-8.48116	9.0876	-7.00817
 504	1	6	0.069352	-8.70379	10.7375	-7.63532
 505	1	1	-0.425718	-19.8059	-16.6941	-13.0281
 506	1	1	0.123859	-20.2895	-17.4057	-11.9159
 507	1	1	0.123846	-20.8755	-16.7844	-10.8207
 508	1	1	-0.442194	-21.0358	-15.3876	-10.7378
 509	1	1	0.030377	-20.3315	-14.6756	-11.7282
 510	1	1	0.003389	-19.7448	-15.3042	-12.8239
 511	1	2	0.006267	-19.9473	-14.1135	-13.7392
 512	1	2	0.040808	-20.6118	-13.3927	-12.4949
 513	1	3	0.010049	-18.6994	-13.2476	-14.0528
 514	1	2	-0.044998	-19.4707	-12.0609	-14.6864
 515	1	2	-0.017344	-20.1347	-11.325	-13.4452
 516	1	3	0.004207	-19.6783	-12.1783	-12.2284
 517	1	3	-0.10977	-18.2792	-12.7013	-12.6594
 518	1	1	-0.002799	-18.7005	-10.7755	-14.9059
 519	1	1	-0.006419	-19.2782	-10.1303	-13.8331
 520	1	1	-0.256521	-18.1933	-10.1021	-16.0221
 521	1	1	0.004841	-18.1988	-8.69255	-15.9327
 522	1	4	0.00733	-18.7881	-8.0196	-14.8316
 523	1	1	-0.221146	-19.4112	-8.73582	-13.7761
 524	1	3	0.21053	-17.8224	-7.71069	-17.0489
 525	1	4	0.0182	-18.8518	-6.58025	-15.1491
 526	1	1	0.000377	-18.3189	-6.38942	-16.4517
 527	1	3	-0.237942	-16.2952	-7.68018	-17.274
 528	1	3	-0.215479	-18.558	-8.04528	-18.368
 529	1	1	-0.2391	-18.428	-5.15207	-17.1261
 530	1	1	-0.027923	-18.9843	-4.11982	-16.3658
 531	1	1	-0.180376	-19.494	-5.52636	-14.4444
 532	1	1	-0.054224	-19.4638	-4.28208	-15.0878
 533	1	2	0.006282	-19.7308	-2.82241	-16.6002
 534	1	2	0.015188	-20.2678	-2.99049	-15.1128
 535	1	3	0.034756	-18.9411	-1.49778	-16.5443
 536	1	3	0.003059	-20.0159	-0.381427	-16.4308
 537	1	3	0.042972	-19.696	-1.73252	-14.4033
 538	1	3	0.004163	-20.5243	-0.521987	-14.9288
 539	1	3	-0.197219	-18.34	-1.52708	-15.1191
 540	1	5	0.227416	-19.6901	-17.1491	-14.0068
 541	1	5	0.230059	-21.7855	-14.9235	-10.1049
 542	1	6	0.034807	-20.5722	-14.322	-14.6158
 543	1	6	0.022109	-21.6735	-13.125	-12.555
 544	1	6	0.043894	-17.9145	-13.7119	-14.663
 545	1	6	0.04727	-20.1126	-12.3483	-15.5279
 546	1	6	0.039454	-21.2143	-11.1341	-13.469
 547	1	6	0.037752	-19.7488	-11.7082	-11.2396
 548	1	6	0.046701	-17.5278	-11.9035	-12.7237
 549	1	6	0.047659	-17.8941	-13.4848	-11.9938
 550	1	5	0.173906	-17.9139	-10.6249	-16.9313
 551	1	5	0.156928	-20.0369	-8.24529	-13.0377
 552	1	6	0.056509	-16.0247	-6.9229	-18.0201
 553	1	6	0.064596	-15.9314	-8.65397	-17.6239
 554	1	6	0.065502	-15.7729	-7.43795	-16.3397
 555	1	6	0.062922	-18.2472	-9.02261	-18.7559
 556	1	6	0.049805	-18.3462	-7.29492	-19.1392
 557	1	6	0.059229	-19.6434	-8.07192	-18.2077
 558	1	5	0.166497	-18.1702	-5.0299	-18.1734
 559	1	5	0.141714	-20.0315	-5.68923	-13.5159
 560	1	6	0.041341	-20.465	-2.84196	-17.4134
 561	1	6	0.038019	-21.3483	-3.10097	-14.9683
 562	1	6	0.012124	-18.2133	-1.34913	-17.3519
 563	1	6	0.001144	-20.8186	-0.411673	-17.1792
 564	1	6	0.009013	-19.6338	-1.79739	-13.3098
 565	1	6	0.001345	-21.6142	-0.619121	-14.8387
 566	1	6	0.041603	-17.6344	-2.35267	-14.9596
 567	1	6	0.069352	-17.8291	-0.596908	-14.8375
 568	1	1	-0.425718	-23.1034	-30.3723	-0.890269
 569	1	1	0.123859	-22.5636	-30.1416	0.394243
 570	1	1	0.123846	-22.8189	-28.9348	1.11695
 571	1	1	-0.442194	-23.5735	-27.8968	0.50321
 572	1	1	0.030377	-24.199	-28.2172	-0.706623
 573	1	1	0.003389	-23.9903	-29.4034	-1.3568
 574	1	2	0.006267	-24.4992	-28.8955	-2.68753
 575	1	2	0.040808	-24.7483	-27.513	-1.93905
 576	1	3	0.010049	-23.4304	-28.5575	-3.75895
 577	1	2	-0.044998	-24.3832	-27.8063	-4.72063
 578	1	2	-0.017344	-24.6486	-26.4104	-3.9923
 579	1	3	0.004207	-23.813	-26.5191	-2.68416
 580	1	3	-0.10977	-22.6084	-27.4109	-3.10187
 581	1	1	-0.002799	-23.7413	-26.9878	-5.81917
 582	1	1	-0.006419	-23.9784	-25.7874	-5.20552
 583	1	1	-0.256521	-22.9748	-27.1373	-6.97744
 584	1	1	0.004841	-22.5339	-25.9155	-7.53785
 585	1	4	0.00733	-22.8104	-24.6614	-6.92733
 586	1	1	-0.221146	-23.5211	-24.5614	-5.69996
 587	1	3	0.21053	-21.7448	-25.7373	-8.83952
 588	1	4	0.0182	-22.2697	-23.5984	-7.7922
 589	1	1	0.000377	-21.6629	-24.2076	-8.92109
 590	1	3	-0.237942	-20.3369	-26.363	-8.73282
 591	1	3	-0.215479	-22.5141	-26.3333	-10.0408
 592	1	1	-0.2391	-21.2376	-23.4471	-10.0333
 593	1	1	-0.027923	-21.3517	-22.0604	-9.88578
 594	1	1	-0.180376	-22.4845	-22.1974	-7.73091
 595	1	1	-0.054224	-21.9393	-21.4623	-8.79144
 596	1	2	0.006282	-21.6186	-20.8847	-10.8049
 597	1	2	0.015188	-22.2915	-20.1906	-9.54626
 598	1	3	0.034756	-20.4506	-19.9315	-11.1475
 599	1	3	0.003059	-21.1143	-18.6691	-11.7641
 600	1	3	0.042972	-21.4168	-18.9276	-9.3441
 601	1	3	0.004163	-21.7805	-17.9673	-10.5148
 602	1	3	-0.197219	-20.0104	-19.4222	-9.75524
 603	1	5	0.227416	-22.8196	-31.2326	-1.48817
 604	1	5	0.230059	-23.6547	-26.9033	0.93241
 605	1	6	0.034807	-25.3812	-29.4224	-3.07066
 606	1	6	0.022109	-25.7878	-27.1753	-1.85184
 607	1	6	0.043894	-22.8644	-29.3987	-4.17811
 608	1	6	0.04727	-25.2588	-28.3853	-5.03774
 609	1	6	0.039454	-25.6923	-26.1117	-3.83794
 610	1	6	0.037752	-23.5778	-25.5802	-2.1677
 611	1	6	0.046701	-21.9336	-26.9109	-3.80875
 612	1	6	0.047659	-22.0137	-27.7513	-2.24422
 613	1	5	0.173906	-22.7512	-28.1054	-7.41448
 614	1	5	0.156928	-23.7036	-23.6174	-5.19696
 615	1	6	0.056509	-20.3989	-27.4501	-8.60039
 616	1	6	0.064596	-19.7941	-25.9462	-7.87484
 617	1	6	0.065502	-19.7496	-26.1598	-9.63671
 618	1	6	0.062922	-23.5108	-25.8814	-10.1222
 619	1	6	0.049805	-22.6411	-27.4168	-9.92657
 620	1	6	0.059229	-21.9798	-26.1525	-10.9812
 621	1	5	0.166497	-20.9325	-23.9053	-10.9688
 622	1	5	0.141714	-23.114	-21.7425	-6.97309
 623	1	6	0.041341	-22.2537	-21.0997	-11.6716
 624	1	6	0.038019	-23.3604	-19.9559	-9.60213
 625	1	6	0.012124	-19.6492	-20.368	-11.7566