pySIMM System Object

2779 atoms
3260 bonds
6708 angles
12604 dihedrals
258 impropers

6 atom types
11 bond types
24 angle types
21 dihedral types
1 improper types

-198.522149 198.522149 xlo xhi
-198.522149 198.522149 ylo yhi
-198.522149 198.522149 zlo zhi

Masses

   1	12.01	# ca
   2	12.01	# cy
   3	12.01	# c3
   4	12.01	# cp
   5	1.008	# ha
   6	1.008	# hc

Pair Coeffs

   1	0.086	3.3996695084235347	# ca
   2	0.086	3.3996695084235347	# cy
   3	0.1094	3.3996695084235347	# c3
   4	0.086	3.3996695084235347	# cp
   5	0.015	2.59964245953351	# ha
   6	0.0157	2.649532787749369	# hc

Bond Coeffs

   1	321.0	1.5156	# c3,ca
   2	285.0	1.5562	# cy,cy
   3	330.6	1.0969	# c3,hc
   4	333.3	1.0949	# cy,hc
   5	321.2	1.5154	# ca,cy
   6	461.1	1.3984	# ca,ca
   7	300.9	1.5375	# c3,c3
   8	305.9	1.5319	# c3,cy
   9	351.4	1.4854	# cp,cp
  10	345.8	1.086	# ca,ha
  11	450.2	1.4058	# ca,cp

Angle Coeffs

   1	62.73	112.39	# c3,c3,cy
   2	46.29	110.75	# cy,c3,hc
   3	44.83	114.79	# cy,cy,hc
   4	60.66	118.7	# c3,cy,cy
   5	66.72	118.38	# ca,cp,ca
   6	62.86	111.51	# c3,c3,c3
   7	46.43	110.14	# c3,cy,hc
   8	63.43	120.63	# c3,ca,cp
   9	63.56	112.24	# ca,c3,ca
  10	64.05	121.11	# ca,cp,cp
  11	66.62	120.02	# ca,ca,ca
  12	39.4	107.58	# hc,c3,hc
  13	47.98	119.86	# cp,ca,ha
  14	63.53	120.77	# c3,ca,ca
  15	63.51	120.86	# ca,ca,cy
  16	62.8	113.57	# c3,cy,ca
  17	67.9	96.03	# cy,c3,cy
  18	45.97	114.53	# ca,cy,hc
  19	61.4	116.81	# ca,cy,cy
  20	63.15	112.07	# c3,c3,ca
  21	66.26	120.69	# ca,ca,cp
  22	46.34	109.8	# c3,c3,hc
  23	48.18	119.88	# ca,ca,ha
  24	46.8	110.47	# ca,c3,hc

Dihedral Coeffs

   1	1	0.16	3	0.0	# cy,c3,cy,ca
   2	1	0.16	3	0.0	# c3,c3,cy,ca
   3	1	0.16	3	0.0	# hc,c3,cy,ca
   4	3	0.18	3	0.0	0.25	2	180.0	0.2	1	180.0	# cy,c3,cy,cy
   5	1	0.15	3	0	# hc,c3,c3,hc
   6	3	0.18	3	0.0	0.25	2	180.0	0.2	1	180.0	# c3,c3,cy,cy
   7	1	0.16	3	0.0	# hc,c3,cy,cy
   8	1	0.16	3	0.0	# cy,c3,cy,hc
   9	1	0.16	3	0.0	# c3,c3,cy,hc
  10	1	0.15	3	0.0	# hc,c3,cy,hc
  11	1	3.625	2	180	# X,ca,ca,X
  12	1	0.15555555555555556	3	0	# X,cy,cy,X
  13	1	3.625	2	180	# X,ca,cp,X
  14	3	0.18	3	0	0.25	2	180	0.2	1	180	# c3,c3,c3,c3
  15	1	0.15555555555555556	3	0	# X,c3,c3,X
  16	1	0.16	3	0	# hc,c3,c3,c3
  17	1	1.0	2	180	# X,cp,cp,X
  18	1	0.0	2	0.0	# ca,ca,cy,cy
  19	1	0.0	2	0.0	# ca,ca,cy,c3
  20	1	0.0	2	0	# X,c3,ca,X
  21	3	0.38	3	180.0	0.0	2	0.0	1.15	1	0.0	# ca,ca,cy,hc

Improper Coeffs

   1	1.1	-1	2	# ca,X,X,ha

Atoms

   1	1	1	-0.425718	-25.2092	73.5528	-15.2973
   2	1	1	0.123859	-26.4507	73.5887	-14.6349
   3	1	1	0.123846	-26.5915	73.4027	-13.272
   4	1	1	-0.442194	-25.5086	73.161	-12.4062
   5	1	1	0.030377	-24.2634	73.3771	-13.0296
   6	1	1	0.003389	-24.1216	73.5616	-14.4013
   7	1	2	0.006267	-22.6816	73.0788	-14.4177
   8	1	2	0.040808	-22.8434	72.8685	-12.8516
   9	1	3	0.010049	-22.4158	71.6482	-14.96
  10	1	2	-0.044998	-20.9551	71.5188	-14.4483
  11	1	2	-0.017344	-21.1183	71.3089	-12.8805
  12	1	3	0.004207	-22.6549	71.3394	-12.6592
  13	1	3	-0.10977	-23.2152	70.7415	-13.9813
  14	1	1	-0.002799	-20.3426	70.1304	-14.4625
  15	1	1	-0.006419	-20.4838	69.9489	-13.1043
  16	1	1	-0.256521	-20.2384	69.0678	-15.3694
  17	1	1	0.004841	-20.1393	67.7856	-14.7824
  18	1	4	0.00733	-20.2865	67.5972	-13.3849
  19	1	1	-0.221146	-20.5395	68.6828	-12.5093
  20	1	3	0.21053	-20.0225	66.4407	-15.5127
  21	1	4	0.0182	-20.2896	66.1524	-13.1082
  22	1	1	0.000377	-20.1309	65.4603	-14.3376
  23	1	3	-0.237942	-21.1817	66.237	-16.5138
  24	1	3	-0.215479	-18.6588	66.3151	-16.2277
  25	1	1	-0.2391	-19.9968	64.0529	-14.3883
  26	1	1	-0.027923	-20.1389	63.4097	-13.1531
  27	1	1	-0.180376	-20.3228	65.4728	-11.8633
  28	1	1	-0.054224	-20.2932	64.0774	-11.9634
  29	1	2	0.006282	-19.7836	62.0904	-12.4899
  30	1	2	0.015188	-19.9611	62.8629	-11.114
  31	1	3	0.034756	-18.3114	61.6131	-12.4291
  32	1	3	0.003059	-17.301	62.7872	-12.5404
  33	1	3	0.042972	-18.5657	62.7203	-10.4573
  34	1	3	0.004163	-17.4744	63.5422	-11.1958
  35	1	3	-0.197219	-18.1881	61.2995	-10.9239
  36	1	5	0.227416	-25.1065	73.4144	-16.3687
  37	1	5	0.230059	-25.6199	72.7424	-11.4112
  38	1	6	0.034807	-21.9516	73.8285	-14.745
  39	1	6	0.022109	-22.2147	73.4865	-12.1997
  40	1	6	0.043894	-22.5813	71.4866	-16.0325
  41	1	6	0.04727	-20.2847	72.3216	-14.7775
  42	1	6	0.039454	-20.5505	71.9799	-12.225
  43	1	6	0.037752	-23.0291	70.9085	-11.7223
  44	1	6	0.046701	-22.985	69.6749	-14.1006
  45	1	6	0.047659	-24.2988	70.8676	-14.077
  46	1	5	0.173906	-20.2859	69.2158	-16.4436
  47	1	5	0.156928	-20.8181	68.5395	-11.4704
  48	1	6	0.056509	-21.1389	65.2374	-16.9635
  49	1	6	0.064596	-21.1389	66.977	-17.3221
  50	1	6	0.065502	-22.15	66.3405	-16.0078
  51	1	6	0.062922	-18.5538	67.0808	-17.006
  52	1	6	0.049805	-18.5505	65.3308	-16.6995
  53	1	6	0.059229	-17.8358	66.4423	-15.513
  54	1	5	0.166497	-19.7589	63.5177	-15.3024
  55	1	5	0.141714	-20.319	65.9931	-10.911
  56	1	6	0.041341	-20.4835	61.2623	-12.6469
  57	1	6	0.038019	-20.7638	62.4828	-10.4725
  58	1	6	0.012124	-18.0788	60.7687	-13.0901
  59	1	6	0.001144	-17.4832	63.4292	-13.4101
  60	1	6	0.009013	-18.5586	62.8582	-9.36868
  61	1	6	0.001345	-17.7509	64.5937	-11.3361
  62	1	6	0.041603	-18.9015	60.5348	-10.5865
  63	1	6	0.069352	-17.1712	61.0056	-10.6276
  64	1	1	-0.425718	-40.2517	77.8827	-11.8789
  65	1	1	0.123859	-41.1322	76.8892	-11.4095
  66	1	1	0.123846	-40.8152	76.0199	-10.3818
  67	1	1	-0.442194	-39.5873	76.0456	-9.69479
  68	1	1	0.030377	-38.8263	77.1935	-9.99191
  69	1	1	0.003389	-39.1395	78.0635	-11.032
  70	1	2	0.006267	-37.7065	78.5439	-11.1928
  71	1	2	0.040808	-37.3506	77.5519	-10.005
  72	1	3	0.010049	-36.8985	77.9868	-12.3966
  73	1	2	-0.044998	-35.4953	78.4562	-11.923
  74	1	2	-0.017344	-35.1432	77.4629	-10.7338
  75	1	3	0.004207	-36.3795	76.5276	-10.6512
  76	1	3	-0.10977	-36.867	76.4557	-12.1263
  77	1	1	-0.002799	-34.2958	77.858	-12.6362
  78	1	1	-0.006419	-33.9915	76.9954	-11.6041
  79	1	1	-0.256521	-33.932	77.6125	-13.9671
  80	1	1	0.004841	-33.1003	76.4877	-14.1687
  81	1	4	0.00733	-32.7916	75.5976	-13.1101
  82	1	1	-0.221146	-33.2985	75.7945	-11.8016
  83	1	3	0.21053	-32.5669	75.9605	-15.5081
  84	1	4	0.0182	-32.0711	74.4429	-13.6683
  85	1	1	0.000377	-31.9277	74.6375	-15.0673
  86	1	3	-0.237942	-33.7108	75.7141	-16.5174
  87	1	3	-0.215479	-31.5155	76.9233	-16.1029
  88	1	1	-0.2391	-31.2055	73.729	-15.8767
  89	1	1	-0.027923	-30.7449	72.5915	-15.2035
  90	1	1	-0.180376	-31.5001	73.3275	-13.0027
  91	1	1	-0.054224	-30.8833	72.4016	-13.8509
  92	1	2	0.006282	-29.7169	71.485	-15.365
  93	1	2	0.015188	-29.8762	71.2665	-13.7947
  94	1	3	0.034756	-28.2127	71.8263	-15.5177
  95	1	3	0.003059	-27.8975	73.2365	-14.9339
  96	1	3	0.042972	-28.442	71.5153	-13.2625
  97	1	3	0.004163	-28.0579	73.0218	-13.3737
  98	1	3	-0.197219	-27.6438	70.8881	-14.4286
  99	1	5	0.227416	-40.3562	78.3645	-12.8457
 100	1	5	0.230059	-39.2172	75.2152	-9.10217
 101	1	6	0.034807	-37.5582	79.6141	-11.0068
 102	1	6	0.022109	-36.9804	78.0014	-9.07606
 103	1	6	0.043894	-37.2166	78.3067	-13.3967
 104	1	6	0.04727	-35.4209	79.5302	-11.7151
 105	1	6	0.039454	-34.847	77.912	-9.7784
 106	1	6	0.037752	-36.245	75.5738	-10.1263
 107	1	6	0.046701	-36.1713	75.9179	-12.783
 108	1	6	0.047659	-37.8521	75.9894	-12.223
 109	1	5	0.173906	-34.3161	78.2064	-14.7903
 110	1	5	0.156928	-33.2215	75.0353	-11.0301
 111	1	6	0.056509	-33.329	75.2528	-17.4365
 112	1	6	0.064596	-34.2068	76.6539	-16.7882
 113	1	6	0.065502	-34.4648	75.0421	-16.0881
 114	1	6	0.062922	-30.6964	77.0864	-15.391
 115	1	6	0.049805	-31.9637	77.8976	-16.3338
 116	1	6	0.059229	-31.0871	76.516	-17.0267
 117	1	5	0.166497	-30.995	73.9138	-16.9255
 118	1	5	0.141714	-31.5046	73.2228	-11.9226
 119	1	6	0.041341	-30.0149	70.6303	-15.9822
 120	1	6	0.038019	-30.2647	70.2846	-13.5024
 121	1	6	0.012124	-27.8021	71.6588	-16.5213
 122	1	6	0.001144	-28.4795	74.0726	-15.3405
 123	1	6	0.009013	-28.2326	71.0743	-12.2799
 124	1	6	0.001345	-28.7329	73.7338	-12.8831
 125	1	6	0.041603	-27.9015	69.8335	-14.6003
 126	1	6	0.069352	-26.5572	70.9598	-14.3081
 127	1	1	-0.425718	-53.8448	70.1016	-8.18138
 128	1	1	0.123859	-53.8619	68.7109	-8.3991
 129	1	1	0.123846	-52.8665	67.8599	-7.9573
 130	1	1	-0.442194	-51.7362	68.2912	-7.2392
 131	1	1	0.030377	-51.8519	69.6288	-6.81183
 132	1	1	0.003389	-52.8501	70.4882	-7.26043
 133	1	2	0.006267	-52.0337	71.7397	-6.98424
 134	1	2	0.040808	-50.8948	70.7573	-6.47352
 135	1	3	0.010049	-51.3893	72.4539	-8.20331
 136	1	2	-0.044998	-50.4284	73.3751	-7.40134
 137	1	2	-0.017344	-49.2921	72.3872	-6.89422
 138	1	3	0.004207	-49.7197	71.0051	-7.45666
 139	1	3	-0.10977	-50.4379	71.3707	-8.78728
 140	1	1	-0.002799	-49.3283	74.0677	-8.18557
 141	1	1	-0.006419	-48.3434	73.207	-7.74788
 142	1	1	-0.256521	-49.2419	74.7762	-9.39165
 143	1	1	0.004841	-48.0091	74.6612	-10.0732
 144	1	4	0.00733	-47.0029	73.7665	-9.63177
 145	1	1	-0.221146	-47.179	72.9555	-8.48364
 146	1	3	0.21053	-47.6349	75.293	-11.4216
 147	1	4	0.0182	-45.9389	73.7265	-10.6457
 148	1	1	0.000377	-46.2863	74.6154	-11.6971
 149	1	3	-0.237942	-48.6659	74.941	-12.5177
 150	1	3	-0.215479	-47.4804	76.8244	-11.2929
 151	1	1	-0.2391	-45.4227	74.8473	-12.7942
 152	1	1	-0.027923	-44.268	74.0562	-12.7982
 153	1	1	-0.180376	-44.7131	73.0126	-10.6378
 154	1	1	-0.054224	-43.9364	73.1902	-11.7868
 155	1	2	0.006282	-42.8964	73.9962	-13.4487
 156	1	2	0.015188	-42.5122	72.9925	-12.2715
 157	1	3	0.034756	-41.8837	75.1546	-13.2602
 158	1	3	0.003059	-42.2089	75.9805	-11.9794
 159	1	3	0.042972	-41.3392	73.7166	-11.5653
 160	1	3	0.004163	-41.8398	74.9835	-10.8069
 161	1	3	-0.197219	-40.6576	74.3277	-12.8108
 162	1	5	0.227416	-54.451	70.8035	-8.74494
 163	1	5	0.230059	-50.8341	67.6982	-7.12919
 164	1	6	0.034807	-52.4723	72.4187	-6.2436
 165	1	6	0.022109	-50.6199	70.8225	-5.41408
 166	1	6	0.043894	-52.0729	72.9442	-8.90754
 167	1	6	0.04727	-50.9206	73.9995	-6.64628
 168	1	6	0.039454	-49.0674	72.3926	-5.82095
 169	1	6	0.037752	-48.945	70.23	-7.50781
 170	1	6	0.046701	-49.7542	71.7668	-9.54895
 171	1	6	0.047659	-50.9776	70.5234	-9.22427
 172	1	5	0.173906	-50.086	75.3187	-9.80526
 173	1	5	0.156928	-46.5009	72.145	-8.23734
 174	1	6	0.056509	-49.6457	75.3796	-12.2932
 175	1	6	0.064596	-48.7889	73.8533	-12.5953
 176	1	6	0.065502	-48.3403	75.3163	-13.4955
 177	1	6	0.062922	-46.7388	77.0735	-10.5231
 178	1	6	0.049805	-48.4323	77.2912	-11.0108
 179	1	6	0.059229	-47.1493	77.2674	-12.24
 180	1	5	0.166497	-45.6246	75.5935	-13.5564
 181	1	5	0.141714	-44.3905	72.4065	-9.79743
 182	1	6	0.041341	-42.8536	73.5654	-14.4551
 183	1	6	0.038019	-42.2435	71.9809	-12.5956
 184	1	6	0.012124	-41.7147	75.7685	-14.1537
 185	1	6	0.001144	-43.2204	76.4006	-11.9168
 186	1	6	0.009013	-40.6906	73.0659	-10.9654
 187	1	6	0.001345	-42.6396	74.8274	-10.0725
 188	1	6	0.041603	-40.3634	73.5688	-13.5494
 189	1	6	0.069352	-39.7783	74.9363	-12.5768
 190	1	1	-0.425718	-59.7671	55.3554	-6.77086
 191	1	1	0.123859	-59.2447	54.1828	-7.34748
 192	1	1	0.123846	-57.8943	53.9472	-7.51313
 193	1	1	-0.442194	-56.8842	54.835	-7.10137
 194	1	1	0.030377	-57.4	55.8845	-6.31616
 195	1	1	0.003389	-58.7593	56.1367	-6.1715
 196	1	2	0.006267	-58.5515	57.5895	-5.78306
 197	1	2	0.040808	-56.9957	57.2966	-5.9384
 198	1	3	0.010049	-58.8339	58.6675	-6.8661
 199	1	2	-0.044998	-58.1603	59.8549	-6.12595
 200	1	2	-0.017344	-56.6003	59.5558	-6.2691
 201	1	3	0.004207	-56.5492	58.2378	-7.08731
 202	1	3	-0.10977	-57.814	58.3239	-7.98962
 203	1	1	-0.002799	-57.8775	61.1107	-6.93018
 204	1	1	-0.006419	-56.5355	60.8534	-7.04804
 205	1	1	-0.256521	-58.5513	62.072	-7.69218
 206	1	1	0.004841	-57.7118	62.852	-8.52369
 207	1	4	0.00733	-56.3227	62.5833	-8.64683
 208	1	1	-0.221146	-55.6962	61.5229	-7.94294
 209	1	3	0.21053	-58.1302	64.0139	-9.43502
 210	1	4	0.0182	-55.7503	63.5257	-9.61928
 211	1	1	0.000377	-56.7852	64.3817	-10.0774
 212	1	3	-0.237942	-59.1476	63.5541	-10.5026
 213	1	3	-0.215479	-58.7024	65.1881	-8.60941
 214	1	1	-0.2391	-56.5134	65.4967	-10.9046
 215	1	1	-0.027923	-55.1795	65.6125	-11.3163
 216	1	1	-0.180376	-54.3931	63.7356	-9.97089
 217	1	1	-0.054224	-54.1782	64.7767	-10.8806
 218	1	2	0.006282	-54.2201	66.6943	-11.7858
 219	1	2	0.015188	-53.0624	65.7262	-11.2799
 220	1	3	0.034756	-53.9959	67.9745	-10.9384
 221	1	3	0.003059	-54.3716	67.7336	-9.44497
 222	1	3	0.042972	-52.3372	66.579	-10.2078
 223	1	3	0.004163	-53.2274	66.7624	-8.94107
 224	1	3	-0.197219	-52.4506	67.962	-10.8894
 225	1	5	0.227416	-60.8053	55.6602	-6.85525
 226	1	5	0.230059	-55.8501	54.7664	-7.4232
 227	1	6	0.034807	-58.9102	57.8502	-4.78036
 228	1	6	0.022109	-56.3833	57.3669	-5.03158
 229	1	6	0.043894	-59.8795	58.8023	-7.16985
 230	1	6	0.04727	-58.544	60.0354	-5.11478
 231	1	6	0.039454	-56.0054	59.5444	-5.34801
 232	1	6	0.037752	-55.6003	57.9984	-7.58312
 233	1	6	0.046701	-57.74	59.1096	-8.75277
 234	1	6	0.047659	-58.0415	57.3765	-8.4946
 235	1	5	0.173906	-59.6286	62.1992	-7.65565
 236	1	5	0.156928	-54.6591	61.2438	-8.09767
 237	1	6	0.056509	-60.0868	63.2305	-10.0377
 238	1	6	0.064596	-58.7455	62.7117	-11.0798
 239	1	6	0.065502	-59.3738	64.3676	-11.2027
 240	1	6	0.062922	-58.946	66.0412	-9.25404
 241	1	6	0.049805	-57.9741	65.5245	-7.8605
 242	1	6	0.059229	-59.6162	64.8871	-8.08268
 243	1	5	0.166497	-57.2643	66.2418	-11.1482
 244	1	5	0.141714	-53.5795	63.1838	-9.51132
 245	1	6	0.041341	-54.2096	66.9006	-12.8617
 246	1	6	0.038019	-52.3813	65.3744	-12.0627
 247	1	6	0.012124	-54.4288	68.8888	-11.363
 248	1	6	0.001144	-55.3901	67.3761	-9.25097
 249	1	6	0.009013	-51.3095	66.2642	-9.9873
 250	1	6	0.001345	-53.5862	65.8454	-8.45887
 251	1	6	0.041603	-51.9944	67.9808	-11.8892
 252	1	6	0.069352	-52.0203	68.7807	-10.3012
 253	1	1	-0.425718	-55.8434	40.7816	-4.10939
 254	1	1	0.123859	-55.0402	39.861	-4.80795
 255	1	1	0.123846	-54.0475	40.2377	-5.69205
 256	1	1	-0.442194	-53.689	41.5738	-5.94636
 257	1	1	0.030377	-54.3064	42.4674	-5.04935
 258	1	1	0.003389	-55.3444	42.0957	-4.20159
 259	1	2	0.006267	-55.9034	43.5042	-4.10215
 260	1	2	0.040808	-54.7007	43.9318	-5.04947
 261	1	3	0.010049	-57.1691	43.8351	-4.94465
 262	1	2	-0.044998	-57.1096	45.3771	-4.77446
 263	1	2	-0.017344	-55.8821	45.8127	-5.69884
 264	1	3	0.004207	-55.3959	44.4774	-6.32209
 265	1	3	-0.10977	-56.6937	43.624	-6.41076
 266	1	1	-0.002799	-57.959	46.2228	-5.70795
 267	1	1	-0.006419	-56.9023	46.601	-6.49016
 268	1	1	-0.256521	-59.2782	46.6336	-5.92817
 269	1	1	0.004841	-59.4325	47.513	-7.02946
 270	1	4	0.00733	-58.3306	47.9106	-7.83502
 271	1	1	-0.221146	-57.0098	47.4519	-7.59132
 272	1	3	0.21053	-60.7216	48.2121	-7.4842
 273	1	4	0.0182	-58.8042	48.8882	-8.82475
 274	1	1	0.000377	-60.1925	49.0945	-8.6251
 275	1	3	-0.237942	-61.7585	47.1929	-8.00421
 276	1	3	-0.215479	-61.3233	49.0655	-6.34402
 277	1	1	-0.2391	-60.8849	50.139	-9.28096
 278	1	1	-0.027923	-60.126	50.8763	-10.201
 279	1	1	-0.180376	-58.0425	49.7157	-9.68546
 280	1	1	-0.054224	-58.7766	50.6728	-10.3949
 281	1	2	0.006282	-60.0922	52.3051	-10.7258
 282	1	2	0.015188	-58.5352	52.0702	-10.9379
 283	1	3	0.034756	-60.1311	53.5123	-9.74973
 284	1	3	0.003059	-59.6569	53.0977	-8.32549
 285	1	3	0.042972	-57.8906	53.1575	-10.0381
 286	1	3	0.004163	-58.1064	52.8387	-8.52573
 287	1	3	-0.197219	-58.9079	54.297	-10.279
 288	1	5	0.227416	-56.7897	40.5234	-3.64508
 289	1	5	0.230059	-53.092	41.8852	-6.79734
 290	1	6	0.034807	-55.9109	43.9237	-3.08922
 291	1	6	0.022109	-53.9467	44.6042	-4.62308
 292	1	6	0.043894	-58.1033	43.3407	-4.65074
 293	1	6	0.04727	-57.1048	45.7132	-3.73081
 294	1	6	0.039454	-55.0884	46.4178	-5.24445
 295	1	6	0.037752	-54.7834	44.5472	-7.22957
 296	1	6	0.046701	-57.4074	44.0095	-7.15041
 297	1	6	0.047659	-56.4945	42.5711	-6.6444
 298	1	5	0.173906	-60.1031	46.3314	-5.29063
 299	1	5	0.156928	-56.1556	47.7587	-8.18576
 300	1	6	0.056509	-62.0829	46.519	-7.20175
 301	1	6	0.064596	-61.3286	46.5822	-8.80828
 302	1	6	0.065502	-62.6434	47.7043	-8.4025
 303	1	6	0.062922	-60.59	49.7984	-5.98386
 304	1	6	0.049805	-61.6189	48.4357	-5.49606
 305	1	6	0.059229	-62.2106	49.6118	-6.68582
 306	1	5	0.166497	-61.8984	50.4205	-9.0129
 307	1	5	0.141714	-56.9577	49.6905	-9.69949
 308	1	6	0.041341	-60.657	52.4971	-11.6447
 309	1	6	0.038019	-58.1966	52.1363	-11.9779
 310	1	6	0.012124	-61.0706	54.079	-9.75647
 311	1	6	0.001144	-60.2003	52.273	-7.85043
 312	1	6	0.009013	-56.8547	53.412	-10.2949
 313	1	6	0.001345	-57.7556	51.8623	-8.17373
 314	1	6	0.041603	-59.0028	54.5621	-11.3414
 315	1	6	0.069352	-58.6892	55.2131	-9.71487
 316	1	1	-0.425718	-45.3275	29.0922	-5.69976
 317	1	1	0.123859	-45.1543	28.346	-6.88002
 318	1	1	0.123846	-45.1943	28.906	-8.1425
 319	1	1	-0.442194	-45.3382	30.2847	-8.38315
 320	1	1	0.030377	-45.2289	31.0469	-7.20259
 321	1	1	0.003389	-45.2585	30.4796	-5.93245
 322	1	2	0.006267	-45.8002	31.7355	-5.27261
 323	1	2	0.040808	-45.7317	32.394	-6.71681
 324	1	3	0.010049	-47.3183	31.7632	-4.92979
 325	1	2	-0.044998	-47.4195	33.2826	-4.62893
 326	1	2	-0.017344	-47.3086	33.9623	-6.06394
 327	1	3	0.004207	-47.2023	32.7575	-7.03828
 328	1	3	-0.10977	-48.0068	31.6369	-6.31913
 329	1	1	-0.002799	-48.8096	33.8958	-4.56965
 330	1	1	-0.006419	-48.6996	34.4973	-5.80177
 331	1	1	-0.256521	-50.0423	33.6361	-3.95414
 332	1	1	0.004841	-51.1674	34.1772	-4.6219
 333	1	4	0.00733	-51.0461	34.8086	-5.88527
 334	1	1	-0.221146	-49.801	34.9212	-6.55038
 335	1	3	0.21053	-52.6404	34.0884	-4.19465
 336	1	4	0.0182	-52.3873	35.1738	-6.35793
 337	1	1	0.000377	-53.3349	34.7698	-5.38408
 338	1	3	-0.237942	-53.0998	32.6208	-4.04965
 339	1	3	-0.215479	-52.8815	34.8654	-2.88097
 340	1	1	-0.2391	-54.7	35.1284	-5.48727
 341	1	1	-0.027923	-55.0477	35.8165	-6.65907
 342	1	1	-0.180376	-52.7508	35.9662	-7.47345
 343	1	1	-0.054224	-54.1212	36.2163	-7.59591
 344	1	2	0.006282	-56.0941	36.8282	-7.10908
 345	1	2	0.015188	-55.0094	37.3025	-8.17066
 346	1	3	0.034756	-56.3634	38.1177	-6.28903
 347	1	3	0.003059	-55.1512	38.4585	-5.37666
 348	1	3	0.042972	-54.7676	38.7853	-7.78477
 349	1	3	0.004163	-54.0349	38.9008	-6.40922
 350	1	3	-0.197219	-56.22	39.1666	-7.41663
 351	1	5	0.227416	-45.595	28.6513	-4.74489
 352	1	5	0.230059	-45.6131	30.7001	-9.34729
 353	1	6	0.034807	-45.1523	32.1653	-4.49953
 354	1	6	0.022109	-45.0233	33.2196	-6.85402
 355	1	6	0.043894	-47.6614	31.0797	-4.14323
 356	1	6	0.04727	-46.728	33.637	-3.85537
 357	1	6	0.039454	-46.5368	34.73	-6.19647
 358	1	6	0.037752	-47.446	32.9469	-8.091
 359	1	6	0.046701	-49.0847	31.8412	-6.28313
 360	1	6	0.047659	-47.8629	30.6509	-6.77583
 361	1	5	0.173906	-50.1285	33.0346	-3.05488
 362	1	5	0.156928	-49.714	35.2654	-7.57578
 363	1	6	0.056509	-54.1729	32.5671	-3.82892
 364	1	6	0.064596	-52.558	32.1173	-3.23986
 365	1	6	0.065502	-52.9159	32.0664	-4.97869
 366	1	6	0.062922	-53.9425	34.8515	-2.60385
 367	1	6	0.049805	-52.5721	35.9129	-2.98991
 368	1	6	0.059229	-52.3073	34.4263	-2.05596
 369	1	5	0.166497	-55.4082	34.9606	-4.68183
 370	1	5	0.141714	-52.0138	36.4254	-8.12438
 371	1	6	0.041341	-57.0111	36.4151	-7.54337
 372	1	6	0.038019	-55.3073	37.1863	-9.21862
 373	1	6	0.012124	-57.3295	38.1397	-5.76935
 374	1	6	0.001144	-54.8381	37.6798	-4.67143
 375	1	6	0.009013	-54.3239	39.4001	-8.57784
 376	1	6	0.001345	-53.0838	38.3646	-6.31237
 377	1	6	0.041603	-56.9251	38.9985	-8.2429
 378	1	6	0.069352	-56.3324	40.2034	-7.07582
 379	1	1	-0.425718	-37.2072	20.241	-15.9949
 380	1	1	0.123859	-37.7013	19.485	-17.0724
 381	1	1	0.123846	-38.7494	19.8913	-17.8758
 382	1	1	-0.442194	-39.4043	21.1304	-17.7362
 383	1	1	0.030377	-38.736	21.9857	-16.8353
 384	1	1	0.003389	-37.7149	21.5533	-15.9966
 385	1	2	0.006267	-37.9459	22.65	-14.9758
 386	1	2	0.040808	-39.0904	23.169	-15.9496
 387	1	3	0.010049	-38.7128	22.2616	-13.679
 388	1	2	-0.044998	-38.9609	23.7055	-13.1722
 389	1	2	-0.017344	-40.0761	24.2717	-14.1603
 390	1	3	0.004207	-40.3813	23.0691	-15.0982
 391	1	3	-0.10977	-40.1134	21.8281	-14.1991
 392	1	1	-0.002799	-39.9931	23.8991	-12.0747
 393	1	1	-0.006419	-40.9405	24.4126	-12.925
 394	1	1	-0.256521	-40.2921	23.4163	-10.7937
 395	1	1	0.004841	-41.627	23.6398	-10.3768
 396	1	4	0.00733	-42.5927	24.2107	-11.2454
 397	1	1	-0.221146	-42.2887	24.5532	-12.5869
 398	1	3	0.21053	-42.2594	23.2635	-9.02833
 399	1	4	0.0182	-43.8771	24.2781	-10.5369
 400	1	1	0.000377	-43.7081	23.7296	-9.24059
 401	1	3	-0.237942	-42.1963	21.7404	-8.78045
 402	1	3	-0.215479	-41.5855	24.0313	-7.86873
 403	1	1	-0.2391	-44.7333	23.7993	-8.26745
 404	1	1	-0.027923	-45.937	24.3685	-8.7085
 405	1	1	-0.180376	-45.0611	24.9577	-10.9116
 406	1	1	-0.054224	-46.083	24.9302	-9.95747
 407	1	2	0.006282	-47.1056	25.1419	-8.10993
 408	1	2	0.015188	-47.244	25.8133	-9.54442
 409	1	3	0.034756	-46.8676	26.3583	-7.1773
 410	1	3	0.003059	-45.4436	26.9451	-7.38509
 411	1	3	0.042972	-47.0064	27.3181	-9.24811
 412	1	3	0.004163	-45.5247	27.5916	-8.82803
 413	1	3	-0.197219	-47.7521	27.4032	-7.89653
 414	1	5	0.227416	-36.5908	19.8292	-15.2023
 415	1	5	0.230059	-40.3623	21.3594	-18.1917
 416	1	6	0.034807	-37.0891	23.3151	-14.8162
 417	1	6	0.022109	-38.9367	24.1483	-16.4183
 418	1	6	0.043894	-38.2057	21.5758	-12.9889
 419	1	6	0.04727	-38.0504	24.3048	-13.0527
 420	1	6	0.039454	-39.8562	25.2128	-14.6784
 421	1	6	0.037752	-41.3343	23.0922	-15.6412
 422	1	6	0.046701	-40.8524	21.7174	-13.395
 423	1	6	0.047659	-40.0832	20.8899	-14.7668
 424	1	5	0.173906	-39.564	22.8941	-10.1811
 425	1	5	0.156928	-43.0434	24.8701	-13.2992
 426	1	6	0.056509	-42.6639	21.195	-9.61004
 427	1	6	0.064596	-42.725	21.4728	-7.85741
 428	1	6	0.065502	-41.1576	21.3996	-8.69177
 429	1	6	0.062922	-41.6447	25.1141	-8.03839
 430	1	6	0.049805	-40.5265	23.7588	-7.78141
 431	1	6	0.059229	-42.0744	23.81	-6.91232
 432	1	5	0.166497	-44.5705	23.5213	-7.23084
 433	1	5	0.141714	-45.1306	25.5424	-11.8232
 434	1	6	0.041341	-47.9698	24.5453	-7.79744
 435	1	6	0.038019	-48.1996	25.6318	-10.0489
 436	1	6	0.012124	-47.1288	26.1902	-6.12498
 437	1	6	0.001144	-44.6056	26.2538	-7.24002
 438	1	6	0.009013	-47.3835	28.0028	-10.018
 439	1	6	0.001345	-44.7474	27.2544	-9.52345
 440	1	6	0.041603	-48.8028	27.089	-7.97081
 441	1	6	0.069352	-47.7242	28.399	-7.438
 442	1	1	-0.425718	-35.596	12.6403	-30.2139
 443	1	1	0.123859	-36.3552	11.766	-31.0099
 444	1	1	0.123846	-37.7332	11.6374	-30.9182
 445	1	1	-0.442194	-38.5114	12.4322	-30.0505
 446	1	1	0.030377	-37.7349	13.1416	-29.1113
 447	1	1	0.003389	-36.3488	13.2173	-29.1776
 448	1	2	0.006267	-36.2771	14.5037	-28.3857
 449	1	2	0.040808	-37.8626	14.4414	-28.3254
 450	1	3	0.010049	-35.8391	14.3637	-26.9034
 451	1	2	-0.044998	-36.21	15.8029	-26.4726
 452	1	2	-0.017344	-37.7995	15.7982	-26.4238
 453	1	3	0.004207	-38.1693	14.3331	-26.8069
 454	1	3	-0.10977	-36.9692	13.5029	-26.2681
 455	1	1	-0.002799	-36.2643	16.0781	-24.9831
 456	1	1	-0.006419	-37.6405	16.111	-24.9454
 457	1	1	-0.256521	-35.4818	15.7778	-23.8601
 458	1	1	0.004841	-36.1888	15.7034	-22.6384
 459	1	4	0.00733	-37.6001	15.8229	-22.5885
 460	1	1	-0.221146	-38.3781	15.9395	-23.7681
 461	1	3	0.21053	-35.6154	15.3593	-21.2567
 462	1	4	0.0182	-38.0338	15.6281	-21.1971
 463	1	1	0.000377	-36.8936	15.3321	-20.4073
 464	1	3	-0.237942	-34.9215	13.9791	-21.2602
 465	1	3	-0.215479	-34.6407	16.457	-20.7743
 466	1	1	-0.2391	-36.9762	15.1972	-19.0018
 467	1	1	-0.027923	-38.2671	15.3156	-18.4686
 468	1	1	-0.180376	-39.2987	15.882	-20.6109
 469	1	1	-0.054224	-39.3578	15.6726	-19.2285
 470	1	2	0.006282	-38.9124	15.7361	-17.1564
 471	1	2	0.015188	-40.1564	16.1818	-18.0415
 472	1	3	0.034756	-38.4908	17.0499	-16.4524
 473	1	3	0.003059	-37.8322	18.0286	-17.4646
 474	1	3	0.042972	-40.2529	17.706	-17.7542
 475	1	3	0.004163	-39.047	18.4844	-18.373
 476	1	3	-0.197219	-39.8875	17.6832	-16.2518
 477	1	5	0.227416	-34.5885	12.9544	-30.4676
 478	1	5	0.230059	-39.5747	12.5981	-30.1913
 479	1	6	0.034807	-35.805	15.3399	-28.9151
 480	1	6	0.022109	-38.4341	15.228	-28.8321
 481	1	6	0.043894	-34.8063	14.0426	-26.7192
 482	1	6	0.04727	-35.7309	16.592	-27.0645
 483	1	6	0.039454	-38.3185	16.5669	-27.0086
 484	1	6	0.037752	-39.173	13.9869	-26.5305
 485	1	6	0.046701	-36.9256	13.4801	-25.1715
 486	1	6	0.047659	-36.9699	12.4665	-26.63
 487	1	5	0.173906	-34.4209	15.5605	-23.934
 488	1	5	0.156928	-39.4586	15.839	-23.7651
 489	1	6	0.056509	-34.5888	13.7059	-20.2513
 490	1	6	0.064596	-34.0457	13.9807	-21.9204
 491	1	6	0.065502	-35.6118	13.2021	-21.6124
 492	1	6	0.062922	-35.1393	17.4346	-20.7582
 493	1	6	0.049805	-33.7723	16.5297	-21.4406
 494	1	6	0.059229	-34.2772	16.244	-19.7618
 495	1	5	0.166497	-36.0961	15.1012	-18.3735
 496	1	5	0.141714	-40.1287	16.2944	-21.1757
 497	1	6	0.041341	-39.1215	14.9327	-16.4415
 498	1	6	0.038019	-41.0914	15.6552	-17.8204
 499	1	6	0.012124	-37.9161	16.9135	-15.5277
 500	1	6	0.001144	-36.962	17.6534	-18.0149
 501	1	6	0.009013	-41.2298	18.1537	-17.9755
 502	1	6	0.001345	-38.8832	18.3529	-19.4493
 503	1	6	0.041603	-40.5603	17.0453	-15.6615
 504	1	6	0.069352	-39.8619	18.6769	-15.7869
 505	1	1	-0.425718	-40.2118	-1.31655	-42.74
 506	1	1	0.123859	-41.3617	-2.11295	-42.8717
 507	1	1	0.123846	-42.4771	-1.98375	-42.0531
 508	1	1	-0.442194	-42.5647	-0.976038	-41.07
 509	1	1	0.030377	-41.3418	-0.328843	-40.7995
 510	1	1	0.003389	-40.2065	-0.518084	-41.5839
 511	1	2	0.006267	-39.6619	0.864843	-41.3051
 512	1	2	0.040808	-40.9633	1.10307	-40.435
 513	1	3	0.010049	-38.5013	0.957643	-40.2789
 514	1	2	-0.044998	-38.5253	2.49795	-40.1416
 515	1	2	-0.017344	-39.8374	2.79717	-39.2901
 516	1	3	0.004207	-40.4104	1.37405	-39.0083
 517	1	3	-0.10977	-39.1448	0.473077	-38.949
 518	1	1	-0.002799	-37.7636	3.09807	-38.98
 519	1	1	-0.006419	-38.8935	3.39378	-38.2572
 520	1	1	-0.256521	-36.5104	3.6668	-38.7416
 521	1	1	0.004841	-36.4657	4.54976	-37.6393
 522	1	4	0.00733	-37.6397	4.9201	-36.9295
 523	1	1	-0.221146	-38.9118	4.3753	-37.2564
 524	1	3	0.21053	-35.2516	5.35953	-37.1732
 525	1	4	0.0182	-37.2915	6.01999	-36.008
 526	1	1	0.000377	-35.901	6.27983	-36.1347
 527	1	3	-0.237942	-34.1872	4.44782	-36.5249
 528	1	3	-0.215479	-34.6343	6.17028	-38.337
 529	1	1	-0.2391	-35.2878	7.38311	-35.5017
 530	1	1	-0.027923	-36.1311	8.1332	-34.6783
 531	1	1	-0.180376	-38.1418	6.88646	-35.2678
 532	1	1	-0.054224	-37.4849	7.91087	-34.5708
 533	1	2	0.006282	-36.2154	9.56367	-34.1957
 534	1	2	0.015188	-37.7817	9.32377	-34.0787
 535	1	3	0.034756	-35.7927	9.86107	-32.7394
 536	1	3	0.003059	-36.3046	11.2942	-32.4477
 537	1	3	0.042972	-38.0479	9.57166	-32.5709
 538	1	3	0.004163	-37.8732	11.1074	-32.3389
 539	1	3	-0.197219	-36.7725	8.99411	-31.9136
 540	1	5	0.227416	-39.5079	-1.17157	-43.5535
 541	1	5	0.230059	-43.5165	-0.595811	-40.713
 542	1	6	0.034807	-39.5141	1.47879	-42.2017
 543	1	6	0.022109	-41.6814	1.85962	-40.7727
 544	1	6	0.043894	-37.5458	0.500806	-40.5659
 545	1	6	0.04727	-38.3871	3.03087	-41.0901
 546	1	6	0.039454	-40.5746	3.4996	-39.6969
 547	1	6	0.037752	-41.1221	1.28184	-38.1783
 548	1	6	0.046701	-38.5177	0.678113	-38.0716
 549	1	6	0.047659	-39.3837	-0.598362	-38.9583
 550	1	5	0.173906	-35.66	3.49739	-39.3942
 551	1	5	0.156928	-39.8333	4.7406	-36.8151
 552	1	6	0.056509	-33.3551	5.04026	-36.1249
 553	1	6	0.064596	-33.7831	3.73682	-37.2558
 554	1	6	0.065502	-34.6238	3.87358	-35.6978
 555	1	6	0.062922	-34.2359	5.50539	-39.1127
 556	1	6	0.049805	-33.813	6.80532	-37.9836
 557	1	6	0.059229	-35.3905	6.81769	-38.7991
 558	1	5	0.166497	-34.2635	7.67883	-35.7059
 559	1	5	0.141714	-39.2236	6.81291	-35.3103
 560	1	6	0.041341	-35.8635	10.3232	-34.9028
 561	1	6	0.038019	-38.4382	9.91978	-34.7223
 562	1	6	0.012124	-34.7304	9.70349	-32.5144
 563	1	6	0.001144	-35.9971	12.0653	-33.1665
 564	1	6	0.009013	-38.9896	9.15937	-32.1875
 565	1	6	0.001345	-38.445	11.7574	-33.0141
 566	1	6	0.041603	-36.6461	7.91625	-32.0783
 567	1	6	0.069352	-36.7162	9.17115	-30.8316
 568	1	1	-0.425718	-49.8426	-15.7124	-48.1727
 569	1	1	0.123859	-49.7139	-16.6974	-47.17
 570	1	1	0.123846	-50.0535	-16.4346	-45.8053
 571	1	1	-0.442194	-50.5319	-15.1484	-45.4354
 572	1	1	0.030377	-50.7777	-14.247	-46.478
 573	1	1	0.003389	-50.4506	-14.5218	-47.7788
 574	1	2	0.006267	-50.4437	-13.0715	-48.2048
 575	1	2	0.040808	-50.8411	-12.7405	-46.7
 576	1	3	0.010049	-49.0504	-12.4116	-48.3777
 577	1	2	-0.044998	-49.5598	-10.9545	-48.4764
 578	1	2	-0.017344	-49.9854	-10.5823	-46.9875
 579	1	3	0.004207	-49.6539	-11.8779	-46.1865
 580	1	3	-0.10977	-48.4353	-12.4733	-46.9493
 581	1	1	-0.002799	-48.522	-9.86091	-48.3447
 582	1	1	-0.006419	-48.9073	-9.51245	-47.0725
 583	1	1	-0.256521	-47.2639	-9.55268	-48.8729
 584	1	1	0.004841	-46.4851	-8.68322	-48.0765
 585	1	4	0.00733	-46.9211	-8.24148	-46.8002
 586	1	1	-0.221146	-48.1244	-8.72322	-46.2199
 587	1	3	0.21053	-45.077	-8.1677	-48.3907
 588	1	4	0.0182	-45.8835	-7.35874	-46.2365
 589	1	1	0.000377	-44.7988	-7.31224	-47.1484
 590	1	3	-0.237942	-44.0642	-9.32869	-48.502
 591	1	3	-0.215479	-45.0739	-7.31885	-49.6826
 592	1	1	-0.2391	-43.7225	-6.4162	-46.974
 593	1	1	-0.027923	-43.76	-5.64956	-45.8039
 594	1	1	-0.180376	-45.9667	-6.45591	-45.1442
 595	1	1	-0.054224	-44.8396	-5.64536	-44.9432
 596	1	2	0.006282	-43.3351	-4.24244	-45.4462
 597	1	2	0.015188	-44.5894	-4.21514	-44.4771
 598	1	3	0.034756	-42.14	-4.06237	-44.4801
 599	1	3	0.003059	-42.1719	-2.56895	-44.0692
 600	1	3	0.042972	-43.9434	-3.95401	-43.0932
 601	1	3	0.004163	-43.4362	-2.4762	-43.1274
 602	1	3	-0.197219	-42.6278	-4.75986	-43.1893
 603	1	5	0.227416	-49.4646	-15.8629	-49.1791
 604	1	5	0.230059	-50.6736	-14.8642	-44.3971
 605	1	6	0.034807	-51.1731	-12.8177	-48.9832
 606	1	6	0.022109	-51.8273	-12.291	-46.5348
 607	1	6	0.043894	-48.4274	-12.7758	-49.2041
 608	1	6	0.04727	-50.3016	-10.7843	-49.2658
 609	1	6	0.039454	-51.0041	-10.2049	-46.8393
 610	1	6	0.037752	-49.5532	-11.7756	-45.0989
 611	1	6	0.046701	-47.5294	-11.862	-46.8468
 612	1	6	0.047659	-48.1931	-13.4965	-46.6342
 613	1	5	0.173906	-46.9021	-9.97813	-49.8036
 614	1	5	0.156928	-48.3957	-8.52789	-45.1875
 615	1	6	0.056509	-44.3053	-9.98168	-49.3496
 616	1	6	0.064596	-44.075	-9.93794	-47.5892
 617	1	6	0.065502	-43.0457	-8.94637	-48.6423
 618	1	6	0.062922	-45.7832	-6.48586	-49.5978
 619	1	6	0.049805	-45.3641	-7.92463	-50.5498
 620	1	6	0.059229	-44.0791	-6.90094	-49.8783
 621	1	5	0.166497	-42.9744	-6.25409	-47.7437
 622	1	5	0.141714	-46.8837	-6.32222	-44.5794
 623	1	6	0.041341	-43.3149	-3.53052	-46.279
 624	1	6	0.038019	-45.391	-3.50262	-44.7016
 625	1	6	0.012124	-41.17	-4.40916	-44.8579
 626	1	6	0.001144	-42.1864	-1.85122	-44.9002
 627	1	6	0.009013	-44.5725	-4.19911	-42.2283