pySIMM System Object

2909 atoms
3412 bonds
7020 angles
13188 dihedrals
270 impropers

6 atom types
11 bond types
24 angle types
21 dihedral types
1 improper types

-201.624559 201.624559 xlo xhi
-201.624559 201.624559 ylo yhi
-201.624559 201.624559 zlo zhi

Masses

   1	12.01	# ca
   2	12.01	# cy
   3	12.01	# c3
   4	12.01	# cp
   5	1.008	# ha
   6	1.008	# hc

Pair Coeffs

   1	0.086	3.3996695084235347	# ca
   2	0.086	3.3996695084235347	# cy
   3	0.1094	3.3996695084235347	# c3
   4	0.086	3.3996695084235347	# cp
   5	0.015	2.59964245953351	# ha
   6	0.0157	2.649532787749369	# hc

Bond Coeffs

   1	321.0	1.5156	# c3,ca
   2	285.0	1.5562	# cy,cy
   3	330.6	1.0969	# c3,hc
   4	333.3	1.0949	# cy,hc
   5	321.2	1.5154	# ca,cy
   6	461.1	1.3984	# ca,ca
   7	300.9	1.5375	# c3,c3
   8	305.9	1.5319	# c3,cy
   9	351.4	1.4854	# cp,cp
  10	345.8	1.086	# ca,ha
  11	450.2	1.4058	# ca,cp

Angle Coeffs

   1	62.73	112.39	# c3,c3,cy
   2	46.29	110.75	# cy,c3,hc
   3	44.83	114.79	# cy,cy,hc
   4	60.66	118.7	# c3,cy,cy
   5	66.72	118.38	# ca,cp,ca
   6	62.86	111.51	# c3,c3,c3
   7	46.43	110.14	# c3,cy,hc
   8	63.43	120.63	# c3,ca,cp
   9	63.56	112.24	# ca,c3,ca
  10	64.05	121.11	# ca,cp,cp
  11	66.62	120.02	# ca,ca,ca
  12	39.4	107.58	# hc,c3,hc
  13	47.98	119.86	# cp,ca,ha
  14	63.53	120.77	# c3,ca,ca
  15	63.51	120.86	# ca,ca,cy
  16	62.8	113.57	# c3,cy,ca
  17	67.9	96.03	# cy,c3,cy
  18	45.97	114.53	# ca,cy,hc
  19	61.4	116.81	# ca,cy,cy
  20	63.15	112.07	# c3,c3,ca
  21	66.26	120.69	# ca,ca,cp
  22	46.34	109.8	# c3,c3,hc
  23	48.18	119.88	# ca,ca,ha
  24	46.8	110.47	# ca,c3,hc

Dihedral Coeffs

   1	1	0.16	3	0.0	# cy,c3,cy,ca
   2	1	0.16	3	0.0	# c3,c3,cy,ca
   3	1	0.16	3	0.0	# hc,c3,cy,ca
   4	3	0.18	3	0.0	0.25	2	180.0	0.2	1	180.0	# cy,c3,cy,cy
   5	1	0.15	3	0	# hc,c3,c3,hc
   6	3	0.18	3	0.0	0.25	2	180.0	0.2	1	180.0	# c3,c3,cy,cy
   7	1	0.16	3	0.0	# hc,c3,cy,cy
   8	1	0.16	3	0.0	# cy,c3,cy,hc
   9	1	0.16	3	0.0	# c3,c3,cy,hc
  10	1	0.15	3	0.0	# hc,c3,cy,hc
  11	1	3.625	2	180	# X,ca,ca,X
  12	1	0.15555555555555556	3	0	# X,cy,cy,X
  13	1	3.625	2	180	# X,ca,cp,X
  14	3	0.18	3	0	0.25	2	180	0.2	1	180	# c3,c3,c3,c3
  15	1	0.15555555555555556	3	0	# X,c3,c3,X
  16	1	0.16	3	0	# hc,c3,c3,c3
  17	1	1.0	2	180	# X,cp,cp,X
  18	1	0.0	2	0.0	# ca,ca,cy,cy
  19	1	0.0	2	0.0	# ca,ca,cy,c3
  20	1	0.0	2	0	# X,c3,ca,X
  21	3	0.38	3	180.0	0.0	2	0.0	1.15	1	0.0	# ca,ca,cy,hc

Improper Coeffs

   1	1.1	-1	2	# ca,X,X,ha

Atoms

   1	1	1	-0.425718	46.3023	8.42998	64.203
   2	1	1	0.123859	46.4672	9.82684	64.2631
   3	1	1	0.123846	45.412	10.7201	64.234
   4	1	1	-0.442194	44.065	10.3249	64.1321
   5	1	1	0.030377	43.896	8.93896	64.3212
   6	1	1	0.003389	44.9571	8.04007	64.3593
   7	1	2	0.006267	44.0995	6.85773	63.9413
   8	1	2	0.040808	42.8896	7.88586	63.8917
   9	1	3	0.010049	44.2302	6.36348	62.4755
  10	1	2	-0.044998	42.9668	5.45943	62.4661
  11	1	2	-0.017344	41.76	6.4942	62.4096
  12	1	3	0.004207	42.4584	7.8806	62.3995
  13	1	3	-0.10977	43.7882	7.60042	61.6428
  14	1	1	-0.002799	42.4765	4.97788	61.1132
  15	1	1	-0.006419	41.4346	5.87663	61.062
  16	1	1	-0.256521	43.0306	4.38018	59.9741
  17	1	1	0.004841	42.352	4.65426	58.7645
  18	1	4	0.00733	41.2854	5.58695	58.7078
  19	1	1	-0.221146	40.8424	6.28396	59.8603
  20	1	3	0.21053	42.7199	4.14782	57.363
  21	1	4	0.0182	40.9032	5.77041	57.2989
  22	1	1	0.000377	41.7267	4.93522	56.4986
  23	1	3	-0.237942	44.1784	4.50169	56.9956
  24	1	3	-0.215479	42.4844	2.62548	57.2456
  25	1	1	-0.2391	41.5403	4.82317	55.1006
  26	1	1	-0.027923	40.5605	5.6736	54.5753
  27	1	1	-0.180376	39.8494	6.54064	56.7424
  28	1	1	-0.054224	39.7649	6.48315	55.347
  29	1	2	0.006282	39.6902	5.81485	53.3387
  30	1	2	0.015188	38.7693	6.75123	54.2318
  31	1	3	0.034756	38.7244	4.67735	52.924
  32	1	3	0.003059	38.3325	3.7663	54.119
  33	1	3	0.042972	37.4048	6.01918	54.2035
  34	1	3	0.004163	37.4326	4.68133	54.9914
  35	1	3	-0.197219	37.4156	5.47673	52.7596
  36	1	5	0.227416	47.103	7.7435	63.9474
  37	1	5	0.230059	43.2669	10.9931	63.8254
  38	1	6	0.034807	44.0372	6.05376	64.6841
  39	1	6	0.022109	42.0688	7.7218	64.5999
  40	1	6	0.043894	45.1799	5.89106	62.1953
  41	1	6	0.04727	42.9406	4.70477	63.2611
  42	1	6	0.039454	40.9742	6.38646	63.1666
  43	1	6	0.037752	41.8611	8.73333	62.0536
  44	1	6	0.046701	43.6363	7.36923	60.5806
  45	1	6	0.047659	44.4975	8.43198	61.7114
  46	1	5	0.173906	43.9429	3.79351	60.0122
  47	1	5	0.156928	40.143	7.11184	59.8069
  48	1	6	0.056509	44.4015	4.21433	55.9607
  49	1	6	0.064596	44.8872	3.98461	57.6535
  50	1	6	0.065502	44.3486	5.58147	57.0924
  51	1	6	0.062922	43.1366	2.07499	57.9346
  52	1	6	0.049805	42.6873	2.27268	56.227
  53	1	6	0.059229	41.4442	2.37636	57.4911
  54	1	5	0.166497	42.0844	4.10937	54.4898
  55	1	5	0.141714	39.1403	7.09184	57.3515
  56	1	6	0.041341	40.1483	6.30796	52.4743
  57	1	6	0.038019	38.6928	7.78786	53.8855
  58	1	6	0.012124	39.033	4.12131	52.0297
  59	1	6	0.001144	39.2002	3.3824	54.668
  60	1	6	0.009013	36.5426	6.65374	54.4443
  61	1	6	0.001345	37.8124	4.7938	56.0136
  62	1	6	0.041603	37.4919	6.27171	52.0047
  63	1	6	0.069352	36.5485	4.84041	52.5328
  64	1	1	-0.425718	52.4782	22.7713	68.1812
  65	1	1	0.123859	52.3853	23.8145	67.2397
  66	1	1	0.123846	51.2169	24.1298	66.5714
  67	1	1	-0.442194	50.0	23.4527	66.7688
  68	1	1	0.030377	50.0391	22.5933	67.8839
  69	1	1	0.003389	51.2151	22.266	68.5517
  70	1	2	0.006267	50.6667	20.9475	69.0737
  71	1	2	0.040808	49.3265	21.3228	68.3085
  72	1	3	0.010049	51.1419	19.6459	68.3721
  73	1	2	-0.044998	50.0744	18.6954	68.9832
  74	1	2	-0.017344	48.7394	19.0773	68.2089
  75	1	3	0.004207	49.1796	20.2063	67.2402
  76	1	3	-0.10977	50.6526	19.8328	66.9077
  77	1	1	-0.002799	49.9252	17.3266	68.3435
  78	1	1	-0.006419	48.7717	17.6606	67.6678
  79	1	1	-0.256521	50.779	16.2936	67.9354
  80	1	1	0.004841	50.3073	15.5162	66.853
  81	1	4	0.00733	49.1303	15.8692	66.1458
  82	1	1	-0.221146	48.3632	17.0077	66.4982
  83	1	3	0.21053	51.021	14.3332	66.1843
  84	1	4	0.0182	49.0077	14.985	64.9763
  85	1	1	0.000377	50.0986	14.0758	64.9858
  86	1	3	-0.237942	52.4428	14.7187	65.7173
  87	1	3	-0.215479	51.0719	13.1119	67.1287
  88	1	1	-0.2391	50.2198	13.0453	64.0238
  89	1	1	-0.027923	49.2431	13.0716	63.022
  90	1	1	-0.180376	47.9837	14.9205	63.9957
  91	1	1	-0.054224	48.1946	13.9565	63.0041
  92	1	2	0.006282	48.6503	12.1759	61.9487
  93	1	2	0.015188	47.4341	13.206	61.9245
  94	1	3	0.034756	47.9651	10.8395	62.3327
  95	1	3	0.003059	47.4863	10.8613	63.8164
  96	1	3	0.042972	46.2189	12.3178	62.2917
  97	1	3	0.004163	46.2783	11.8838	63.7866
  98	1	3	-0.197219	46.639	11.0227	61.5592
  99	1	5	0.227416	53.4191	22.3299	68.4938
 100	1	5	0.230059	49.1699	23.4979	66.0713
 101	1	6	0.034807	50.6105	20.8754	70.1663
 102	1	6	0.022109	48.4318	21.4834	68.9217
 103	1	6	0.043894	52.1932	19.3647	68.5108
 104	1	6	0.04727	50.0345	18.7001	70.0789
 105	1	6	0.039454	47.8597	19.3172	68.8179
 106	1	6	0.037752	48.5174	20.417	66.3913
 107	1	6	0.046701	50.7381	18.9179	66.3075
 108	1	6	0.047659	51.1839	20.6336	66.3829
 109	1	5	0.173906	51.7563	16.1395	68.3815
 110	1	5	0.156928	47.5618	17.3849	65.8715
 111	1	6	0.056509	52.909	13.8953	65.1625
 112	1	6	0.064596	53.086	14.9613	66.5717
 113	1	6	0.065502	52.4069	15.5951	65.0578
 114	1	6	0.062922	50.0609	12.8315	67.4504
 115	1	6	0.049805	51.6637	13.3349	68.0251
 116	1	6	0.059229	51.5219	12.246	66.6281
 117	1	5	0.166497	50.9898	12.2815	64.0718
 118	1	5	0.141714	47.0957	15.5433	64.031
 119	1	6	0.041341	49.2121	12.1021	61.011
 120	1	6	0.038019	47.2934	13.7317	60.9736
 121	1	6	0.012124	48.5287	9.93836	62.0606
 122	1	6	0.001144	48.2512	11.083	64.5709
 123	1	6	0.009013	45.2454	12.7189	61.9832
 124	1	6	0.001345	46.347	12.6918	64.5254
 125	1	6	0.041603	46.7938	11.176	60.4819
 126	1	6	0.069352	45.9341	10.1941	61.6893
 127	1	1	-0.425718	54.3634	37.1552	61.3342
 128	1	1	0.123859	54.2759	37.2587	59.9325
 129	1	1	0.123846	53.2917	36.6357	59.188
 130	1	1	-0.442194	52.259	35.864	59.7503
 131	1	1	0.030377	52.2012	35.9862	61.1524
 132	1	1	0.003389	53.2068	36.5855	61.9045
 133	1	2	0.006267	52.8695	35.8013	63.1629
 134	1	2	0.040808	51.717	35.1256	62.3038
 135	1	3	0.010049	53.7967	34.6109	63.537
 136	1	2	-0.044998	52.8654	33.9647	64.6006
 137	1	2	-0.017344	51.7088	33.2999	63.7352
 138	1	3	0.004207	52.1032	33.6241	62.2703
 139	1	3	-0.10977	53.6577	33.6541	62.3187
 140	1	1	-0.002799	53.1961	32.5494	65.0439
 141	1	1	-0.006419	52.1945	31.9769	64.2912
 142	1	1	-0.256521	54.3305	31.8451	65.4701
 143	1	1	0.004841	54.3161	30.4587	65.1903
 144	1	4	0.00733	53.2967	29.8759	64.3965
 145	1	1	-0.221146	52.2336	30.6453	63.8631
 146	1	3	0.21053	55.4038	29.4299	65.5324
 147	1	4	0.0182	53.6474	28.4709	64.1446
 148	1	1	0.000377	54.8664	28.1849	64.8127
 149	1	3	-0.237942	56.778	29.8487	64.9634
 150	1	3	-0.215479	55.4935	29.2045	67.058
 151	1	1	-0.2391	55.405	26.8766	64.8491
 152	1	1	-0.027923	54.7039	25.9366	64.0832
 153	1	1	-0.180376	52.913	27.4709	63.4586
 154	1	1	-0.054224	53.536	26.2195	63.4182
 155	1	2	0.006282	54.5311	24.4302	63.9712
 156	1	2	0.015188	53.1765	24.7616	63.2012
 157	1	3	0.034756	54.0424	23.5967	65.1852
 158	1	3	0.003059	53.2746	24.4885	66.2067
 159	1	3	0.042972	52.0979	24.0859	64.0833
 160	1	3	0.004163	51.9352	24.8384	65.4391
 161	1	3	-0.197219	52.8909	22.8259	64.4997
 162	1	5	0.227416	55.2645	37.3801	61.8956
 163	1	5	0.230059	51.6555	35.1649	59.1805
 164	1	6	0.034807	52.5573	36.4149	64.016
 165	1	6	0.022109	50.6841	35.3204	62.6162
 166	1	6	0.043894	54.8162	34.8594	63.8572
 167	1	6	0.04727	52.5587	34.6414	65.4069
 168	1	6	0.039454	50.676	33.5579	63.9981
 169	1	6	0.037752	51.6423	33.0114	61.4856
 170	1	6	0.046701	54.1001	32.6657	62.4978
 171	1	6	0.047659	54.1017	34.0639	61.4052
 172	1	5	0.173906	55.1792	32.3377	65.9338
 173	1	5	0.156928	51.5392	30.2491	63.1296
 174	1	6	0.056509	57.1366	30.7705	65.4373
 175	1	6	0.064596	56.7093	30.0257	63.8825
 176	1	6	0.065502	57.5261	29.0646	65.132
 177	1	6	0.062922	54.5206	28.8927	67.459
 178	1	6	0.049805	55.7933	30.1258	67.5725
 179	1	6	0.059229	56.2262	28.4246	67.2983
 180	1	5	0.166497	56.2677	26.6123	65.4527
 181	1	5	0.141714	51.9258	27.6485	63.0443
 182	1	6	0.041341	55.2808	23.8977	63.3756
 183	1	6	0.038019	53.1405	24.418	62.1614
 184	1	6	0.012124	54.8077	22.9567	65.6419
 185	1	6	0.001144	53.8171	25.3601	66.5932
 186	1	6	0.009013	51.1492	23.8782	63.5726
 187	1	6	0.001345	51.7088	25.9097	65.3797
 188	1	6	0.041603	53.2304	22.2342	63.6379
 189	1	6	0.069352	52.3406	22.1621	65.1754
 190	1	1	-0.425718	53.3772	44.0306	46.8069
 191	1	1	0.123859	53.5732	43.3243	45.6053
 192	1	1	0.123846	53.1221	42.0352	45.3977
 193	1	1	-0.442194	52.3824	41.3015	46.3424
 194	1	1	0.030377	51.972	42.1005	47.4276
 195	1	1	0.003389	52.4584	43.3831	47.6566
 196	1	2	0.006267	52.1602	43.3395	49.1456
 197	1	2	0.040808	51.5893	41.8801	48.8783
 198	1	3	0.010049	53.3555	43.096	50.1101
 199	1	2	-0.044998	52.5152	42.7922	51.381
 200	1	2	-0.017344	51.9251	41.3383	51.1054
 201	1	3	0.004207	52.5076	40.9563	49.7186
 202	1	3	-0.10977	53.8778	41.6928	49.6878
 203	1	1	-0.002799	53.2309	42.1544	52.5597
 204	1	1	-0.006419	52.7153	40.9036	52.3215
 205	1	1	-0.256521	54.3517	42.3835	53.3684
 206	1	1	0.004841	54.8429	41.2356	54.0358
 207	1	4	0.00733	54.3133	39.944	53.7816
 208	1	1	-0.221146	53.262	39.7328	52.8546
 209	1	3	0.21053	56.0266	41.1613	55.0115
 210	1	4	0.0182	55.0972	38.9601	54.5409
 211	1	1	0.000377	56.0951	39.6501	55.2769
 212	1	3	-0.237942	57.3308	41.6698	54.3579
 213	1	3	-0.215479	55.7259	41.9479	56.3069
 214	1	1	-0.2391	56.9277	38.9816	56.206
 215	1	1	-0.027923	56.759	37.5913	56.2497
 216	1	1	-0.180376	54.8829	37.567	54.6892
 217	1	1	-0.054224	55.7969	36.9242	55.5299
 218	1	2	0.006282	57.0103	36.4281	57.1977
 219	1	2	0.015188	55.8867	35.6634	56.368
 220	1	3	0.034756	56.4318	36.4352	58.6373
 221	1	3	0.003059	55.2175	37.4033	58.748
 222	1	3	0.042972	54.8066	35.3619	57.4371
 223	1	3	0.004163	54.0969	36.6715	57.9027
 224	1	3	-0.197219	55.7409	35.0521	58.6292
 225	1	5	0.227416	53.9428	44.914	47.0853
 226	1	5	0.230059	52.2341	40.2278	46.2894
 227	1	6	0.034807	51.4463	44.0959	49.4921
 228	1	6	0.022109	50.5168	41.7267	49.0471
 229	1	6	0.043894	54.0995	43.8984	50.1889
 230	1	6	0.04727	51.7994	43.5782	51.6493
 231	1	6	0.039454	50.8393	41.2134	51.1956
 232	1	6	0.037752	52.51	39.8907	49.4579
 233	1	6	0.046701	54.6025	41.2755	50.3988
 234	1	6	0.047659	54.3379	41.6932	48.692
 235	1	5	0.173906	54.821	43.3585	53.4534
 236	1	5	0.156928	52.9322	38.7431	52.5561
 237	1	6	0.056509	57.2585	42.7363	54.1124
 238	1	6	0.064596	57.5364	41.1199	53.4307
 239	1	6	0.065502	58.1852	41.5307	55.0314
 240	1	6	0.062922	56.5449	41.8454	57.029
 241	1	6	0.049805	54.8074	41.5767	56.7793
 242	1	6	0.059229	55.5901	43.0152	56.0935
 243	1	5	0.166497	57.6059	39.5078	56.8705
 244	1	5	0.141714	54.0399	37.0534	54.2386
 245	1	6	0.041341	58.0053	35.9719	57.1527
 246	1	6	0.038019	56.2285	34.7587	55.853
 247	1	6	0.012124	57.1768	36.5652	59.4322
 248	1	6	0.001144	55.3992	38.4447	58.4559
 249	1	6	0.009013	54.1163	34.5496	57.1775
 250	1	6	0.001345	53.6413	37.287	57.1179
 251	1	6	0.041603	56.4398	34.2304	58.4184
 252	1	6	0.069352	55.2084	34.8188	59.5581
 253	1	1	-0.425718	48.5579	41.3391	32.3306
 254	1	1	0.123859	48.7459	40.2906	31.4118
 255	1	1	0.123846	49.1078	39.0078	31.7746
 256	1	1	-0.442194	49.2993	38.5958	33.1069
 257	1	1	0.030377	48.8719	39.575	34.0263
 258	1	1	0.003389	48.5373	40.8731	33.659
 259	1	2	0.006267	48.7846	41.4397	35.0444
 260	1	2	0.040808	49.1492	39.9513	35.4707
 261	1	3	0.010049	50.108	42.2242	35.2698
 262	1	2	-0.044998	50.0321	42.27	36.819
 263	1	2	-0.017344	50.372	40.7733	37.2602
 264	1	3	0.004207	50.6321	40.0418	35.9148
 265	1	3	-0.10977	51.2095	41.1596	34.9995
 266	1	1	-0.002799	51.2926	42.6551	37.5725
 267	1	1	-0.006419	51.5744	41.3729	37.9584
 268	1	1	-0.256521	52.0279	43.7732	37.9806
 269	1	1	0.004841	53.1122	43.4692	38.8413
 270	1	4	0.00733	53.3918	42.1385	39.2562
 271	1	1	-0.221146	52.6135	41.0316	38.8263
 272	1	3	0.21053	54.0639	44.4655	39.5194
 273	1	4	0.0182	54.4938	42.1761	40.2282
 274	1	1	0.000377	54.8962	43.5246	40.4032
 275	1	3	-0.237942	54.9517	45.1866	38.4821
 276	1	3	-0.215479	53.2822	45.4916	40.3718
 277	1	1	-0.2391	55.8102	43.8987	41.4163
 278	1	1	-0.027923	56.3488	42.8369	42.1568
 279	1	1	-0.180376	54.9712	41.1406	41.0684
 280	1	1	-0.054224	55.9466	41.5298	41.9929
 281	1	2	0.006282	56.8828	42.6066	43.5643
 282	1	2	0.015188	56.3981	41.1043	43.3777
 283	1	3	0.034756	56.0834	43.0781	44.8086
 284	1	3	0.003059	54.5764	43.2622	44.4676
 285	1	3	0.042972	55.3585	40.9292	44.5159
 286	1	3	0.004163	54.0745	41.7764	44.2456
 287	1	3	-0.197219	56.0711	41.756	45.6111
 288	1	5	0.227416	48.5249	42.3876	32.0526
 289	1	5	0.230059	49.7983	37.6741	33.3883
 290	1	6	0.034807	47.9041	41.8903	35.5173
 291	1	6	0.022109	48.4886	39.4679	36.2003
 292	1	6	0.043894	50.2091	43.1855	34.7508
 293	1	6	0.04727	49.1127	42.7229	37.2088
 294	1	6	0.039454	49.6674	40.259	37.9247
 295	1	6	0.037752	51.1926	39.1	35.9626
 296	1	6	0.046701	52.2084	41.4914	35.3112
 297	1	6	0.047659	51.2611	40.8611	33.9448
 298	1	5	0.173906	51.7645	44.7868	37.6952
 299	1	5	0.156928	52.7846	40.0172	39.1711
 300	1	6	0.056509	54.3448	45.803	37.8076
 301	1	6	0.064596	55.5026	44.458	37.8738
 302	1	6	0.065502	55.6828	45.8369	38.9779
 303	1	6	0.062922	52.6591	44.9788	41.1158
 304	1	6	0.049805	52.6255	46.1057	39.7436
 305	1	6	0.059229	53.9654	46.1631	40.9055
 306	1	5	0.166497	56.0048	44.9363	41.6689
 307	1	5	0.141714	54.5349	40.147	41.0681
 308	1	6	0.041341	57.9636	42.7269	43.6973
 309	1	6	0.038019	57.1951	40.3538	43.4215
 310	1	6	0.012124	56.5239	43.9289	45.3434
 311	1	6	0.001144	54.3424	43.9505	43.6473
 312	1	6	0.009013	55.1534	39.8881	44.7947
 313	1	6	0.001345	53.5636	41.6038	43.2916
 314	1	6	0.041603	57.0821	41.3855	45.8315
 315	1	6	0.069352	55.514	41.8142	46.5547
 316	1	1	-0.425718	42.9321	31.5005	21.3922
 317	1	1	0.123859	43.631	30.7176	20.4573
 318	1	1	0.123846	44.8012	30.0411	20.7443
 319	1	1	-0.442194	45.4086	30.042	22.0158
 320	1	1	0.030377	44.577	30.6133	23.0022
 321	1	1	0.003389	43.4141	31.3132	22.7006
 322	1	2	0.006267	43.4309	32.1045	23.9919
 323	1	2	0.040808	44.7456	31.2881	24.3556
 324	1	3	0.010049	43.9193	33.5775	23.9088
 325	1	2	-0.044998	44.0519	33.8096	25.4347
 326	1	2	-0.017344	45.3473	32.9756	25.8423
 327	1	3	0.004207	45.8382	32.3816	24.4896
 328	1	3	-0.10977	45.3982	33.4461	23.4441
 329	1	1	-0.002799	44.8281	35.0315	25.8885
 330	1	1	-0.006419	45.9327	34.3091	26.2665
 331	1	1	-0.256521	44.8545	36.4134	25.6644
 332	1	1	0.004841	46.0703	37.0447	26.0195
 333	1	4	0.00733	47.1942	36.303	26.4677
 334	1	1	-0.221146	47.1786	34.8859	26.5327
 335	1	3	0.21053	46.4048	38.5388	25.912
 336	1	4	0.0182	48.2985	37.2401	26.7233
 337	1	1	0.000377	47.8606	38.5497	26.3995
 338	1	3	-0.237942	46.3043	39.035	24.4527
 339	1	3	-0.215479	45.4938	39.3785	26.8357
 340	1	1	-0.2391	48.6529	39.6877	26.6777
 341	1	1	-0.027923	49.9172	39.4151	27.2173
 342	1	1	-0.180376	49.5301	37.0093	27.3854
 343	1	1	-0.054224	50.324	38.1475	27.5686
 344	1	2	0.006282	50.9249	40.1041	28.1254
 345	1	2	0.015188	51.3777	38.639	28.5463
 346	1	3	0.034756	50.4777	40.7335	29.47
 347	1	3	0.003059	49.1435	40.1013	29.9615
 348	1	3	0.042972	51.1032	38.6184	30.0746
 349	1	3	0.004163	49.5716	38.6335	30.377
 350	1	3	-0.197219	51.5139	40.0717	30.4083
 351	1	5	0.227416	42.1817	32.2362	21.1211
 352	1	5	0.230059	46.4329	29.7307	22.1934
 353	1	6	0.034807	42.5554	31.95	24.6337
 354	1	6	0.022109	44.685	30.6081	25.2135
 355	1	6	0.043894	43.2849	34.2804	23.3546
 356	1	6	0.04727	43.1346	33.6161	26.0035
 357	1	6	0.039454	45.2368	32.242	26.6497
 358	1	6	0.037752	46.8815	32.0451	24.4452
 359	1	6	0.046701	45.9588	34.3858	23.5315
 360	1	6	0.047659	45.4878	33.0895	22.4106
 361	1	5	0.173906	44.0179	36.9506	25.229
 362	1	5	0.156928	48.0662	34.2972	26.7403
 363	1	6	0.056509	46.6274	40.0801	24.3717
 364	1	6	0.064596	45.2737	38.9652	24.0839
 365	1	6	0.065502	46.9425	38.4303	23.7958
 366	1	6	0.062922	45.7694	40.4394	26.8024
 367	1	6	0.049805	45.5791	39.0375	27.8755
 368	1	6	0.059229	44.4429	39.2898	26.5346
 369	1	5	0.166497	48.2751	40.6998	26.5707
 370	1	5	0.141714	49.7904	36.0432	27.8058
 371	1	6	0.041341	51.6984	40.6986	27.6269
 372	1	6	0.038019	52.4179	38.3919	28.3065
 373	1	6	0.012124	50.4828	41.8305	29.4892
 374	1	6	0.001144	48.2933	40.1529	29.2718
 375	1	6	0.009013	51.6576	37.852	30.6306
 376	1	6	0.001345	48.975	37.8374	29.9163
 377	1	6	0.041603	52.5503	40.2959	30.1191
 378	1	6	0.069352	51.3881	40.3362	31.4663
 379	1	1	-0.425718	43.5978	19.6755	10.8931
 380	1	1	0.123859	44.4643	19.5359	9.79578
 381	1	1	0.123846	45.8178	19.809	9.84415
 382	1	1	-0.442194	46.4815	20.2439	11.009
 383	1	1	0.030377	45.6646	20.1442	12.1556
 384	1	1	0.003389	44.3001	19.8841	12.0939
 385	1	2	0.006267	44.013	20.5134	13.4404
 386	1	2	0.040808	45.5756	20.7915	13.5308
 387	1	3	0.010049	43.3821	21.9329	13.4305
 388	1	2	-0.044998	43.5855	22.2287	14.9369
 389	1	2	-0.017344	45.1515	22.4847	15.0756
 390	1	3	0.004207	45.6733	22.3384	13.6152
 391	1	3	-0.10977	44.4704	22.8119	12.7499
 392	1	1	-0.002799	43.4172	23.6659	15.3897
 393	1	1	-0.006419	44.7664	23.8775	15.5407
 394	1	1	-0.256521	42.4908	24.7068	15.2519
 395	1	1	0.004841	43.02	26.0019	15.4603
 396	1	4	0.00733	44.4039	26.2151	15.6898
 397	1	1	-0.221146	45.3391	25.149	15.6534
 398	1	3	0.21053	42.2635	27.3343	15.3767
 399	1	4	0.0182	44.6362	27.6619	15.8197
 400	1	1	0.000377	43.4025	28.3336	15.6211
 401	1	3	-0.237942	41.6322	27.5395	13.9819
 402	1	3	-0.215479	41.186	27.4284	16.4804
 403	1	1	-0.2391	43.279	29.7307	15.7999
 404	1	1	-0.027923	44.4713	30.3956	16.1149
 405	1	1	-0.180376	45.7923	28.3471	16.272
 406	1	1	-0.054224	45.6534	29.7369	16.3648
 407	1	2	0.006282	44.8991	31.6584	16.8442
 408	1	2	0.015188	46.2573	30.8893	17.1513
 409	1	3	0.034756	44.3462	31.9752	18.2558
 410	1	3	0.003059	43.8532	30.6777	18.9603
 411	1	3	0.042972	46.291	30.8587	18.7049
 412	1	3	0.004163	45.198	29.9051	19.2812
 413	1	3	-0.197219	45.6822	32.2528	18.9834
 414	1	5	0.227416	42.5169	19.7194	10.806
 415	1	5	0.230059	47.4691	20.6937	11.0063
 416	1	6	0.034807	43.5851	19.8287	14.1823
 417	1	6	0.022109	46.1275	20.2648	14.3184
 418	1	6	0.043894	42.3593	22.0191	13.0428
 419	1	6	0.04727	43.1401	21.4854	15.6089
 420	1	6	0.039454	45.6926	21.8834	15.8157
 421	1	6	0.037752	46.6503	22.784	13.3907
 422	1	6	0.046701	44.2737	23.8875	12.8468
 423	1	6	0.047659	44.5961	22.5822	11.6847
 424	1	5	0.173906	41.4568	24.5336	14.9708
 425	1	5	0.156928	46.4122	25.3099	15.6683
 426	1	6	0.056509	42.3955	27.4601	13.1975
 427	1	6	0.064596	41.1681	28.5304	13.905
 428	1	6	0.065502	40.8616	26.7845	13.7844
 429	1	6	0.062922	41.6379	27.2955	17.4718
 430	1	6	0.049805	40.4217	26.6526	16.3491
 431	1	6	0.059229	40.6873	28.405	16.4625
 432	1	5	0.166497	42.3193	30.2378	15.7832
 433	1	5	0.141714	46.6842	27.8256	16.6044
 434	1	6	0.041341	45.0091	32.5591	16.2302
 435	1	6	0.038019	47.1543	31.3521	16.725
 436	1	6	0.012124	43.6268	32.8027	18.2938
 437	1	6	0.001144	43.0988	30.0861	18.4292
 438	1	6	0.009013	47.2866	30.7049	19.1395
 439	1	6	0.001345	45.2212	28.8681	18.9251
 440	1	6	0.041603	46.2565	33.0664	18.5183
 441	1	6	0.069352	45.567	32.4811	20.0506
 442	1	1	-0.425718	50.5709	10.2238	-0.103693
 443	1	1	0.123859	51.4892	10.3045	-1.16363
 444	1	1	0.123846	52.308	11.4017	-1.39097
 445	1	1	-0.442194	52.3349	12.5116	-0.520916
 446	1	1	0.030377	51.2685	12.5239	0.401476
 447	1	1	0.003389	50.4127	11.4416	0.578438
 448	1	2	0.006267	50.0721	11.8124	2.00409
 449	1	2	0.040808	51.066	13.0352	1.82333
 450	1	3	0.010049	48.6886	12.4807	2.22312
 451	1	2	-0.044998	48.9387	12.9199	3.68544
 452	1	2	-0.017344	49.9579	14.1369	3.55899
 453	1	3	0.004207	50.1586	14.2803	2.01963
 454	1	3	-0.10977	48.7966	13.8148	1.42994
 455	1	1	-0.002799	47.9715	13.9245	4.27703
 456	1	1	-0.006419	48.8614	14.9691	4.20218
 457	1	1	-0.256521	46.5869	14.106	4.37779
 458	1	1	0.004841	46.1788	15.4431	4.5901
 459	1	4	0.00733	47.1081	16.5151	4.59992
 460	1	1	-0.221146	48.4835	16.3117	4.31617
 461	1	3	0.21053	44.7407	15.9574	4.7339
 462	1	4	0.0182	46.3674	17.7691	4.80886
 463	1	1	0.000377	44.9827	17.4665	4.86896
 464	1	3	-0.237942	43.8983	15.6397	3.47865
 465	1	3	-0.215479	44.0701	15.3783	6.00003
 466	1	1	-0.2391	44.0188	18.451	5.18452
 467	1	1	-0.027923	44.5279	19.7431	5.36728
 468	1	1	-0.180376	46.8612	19.0577	5.13557
 469	1	1	-0.054224	45.8756	20.0235	5.37357
 470	1	2	0.006282	44.1577	20.9943	6.14526
 471	1	2	0.015188	45.7164	21.3096	6.17001
 472	1	3	0.034756	43.7916	20.9023	7.64704
 473	1	3	0.003059	44.3953	19.6171	8.28627
 474	1	3	0.042972	46.034	21.3495	7.6915
 475	1	3	0.004163	45.9474	19.929	8.33174
 476	1	3	-0.197219	44.7265	22.0072	8.19146
 477	1	5	0.227416	50.1678	9.28355	0.258936
 478	1	5	0.230059	53.1815	13.1876	-0.455027
 479	1	6	0.034807	50.3186	11.0421	2.74453
 480	1	6	0.022109	51.9773	13.0592	2.4325
 481	1	6	0.043894	47.8025	11.8611	2.03668
 482	1	6	0.04727	49.2168	12.1041	4.36345
 483	1	6	0.039454	50.8885	14.0703	4.13512
 484	1	6	0.037752	50.5518	15.2387	1.65829
 485	1	6	0.046701	47.9773	14.5113	1.6507
 486	1	6	0.047659	48.8319	13.6623	0.343411
 487	1	5	0.173906	45.882	13.2888	4.26262
 488	1	5	0.156928	49.1763	17.1317	4.15717
 489	1	6	0.056509	42.8985	16.0844	3.55567
 490	1	6	0.064596	43.7822	14.5571	3.34673
 491	1	6	0.065502	44.3808	16.0424	2.57902
 492	1	6	0.062922	44.663	15.6159	6.89255
 493	1	6	0.049805	43.9811	14.2871	5.93207
 494	1	6	0.059229	43.0649	15.7942	6.13914
 495	1	5	0.166497	42.9768	18.2078	5.36773
 496	1	5	0.141714	47.9184	19.2539	5.28254
 497	1	6	0.041341	43.5471	21.7326	5.61381
 498	1	6	0.038019	46.0059	22.2355	5.66086
 499	1	6	0.012124	42.7285	21.0539	7.8722
 500	1	6	0.001144	44.1312	18.6627	7.81736
 501	1	6	0.009013	46.9461	21.899	7.95569
 502	1	6	0.001345	46.5785	19.154	7.88027
 503	1	6	0.041603	44.5405	22.986	7.72725
 504	1	6	0.069352	44.6803	22.1303	9.28095
 505	1	1	-0.425718	60.531	5.76154	-16.0267
 506	1	1	0.123859	61.1618	6.5668	-16.9885
 507	1	1	0.123846	61.2564	7.94913	-16.8873
 508	1	1	-0.442194	60.7865	8.64524	-15.7537
 509	1	1	0.030377	59.9708	7.87051	-14.9035
 510	1	1	0.003389	59.8286	6.49356	-15.0558
 511	1	2	0.006267	59.5755	6.25544	-13.5856
 512	1	2	0.040808	59.7608	7.8166	-13.3932
 513	1	3	0.010049	58.1021	5.9961	-13.1766
 514	1	2	-0.044998	58.334	6.11012	-11.6527
 515	1	2	-0.017344	58.5494	7.66991	-11.4019
 516	1	3	0.004207	58.3907	8.2834	-12.8274
 517	1	3	-0.10977	57.3821	7.32911	-13.5274
 518	1	1	-0.002799	57.1059	6.24897	-10.7819
 519	1	1	-0.006419	57.3053	7.58214	-10.5313
 520	1	1	-0.256521	56.2034	5.44299	-10.086
 521	1	1	0.004841	55.4662	6.12328	-9.09035
 522	1	4	0.00733	55.7208	7.48396	-8.76532
 523	1	1	-0.221146	56.6867	8.25482	-9.46967
 524	1	3	0.21053	54.4453	5.50149	-8.13283
 525	1	4	0.0182	54.9447	7.81934	-7.55582
 526	1	1	0.000377	54.1874	6.67728	-7.18509
 527	1	3	-0.237942	53.157	5.08898	-8.87737
 528	1	3	-0.215479	55.0472	4.29199	-7.37947
 529	1	1	-0.2391	53.4658	6.62423	-5.97335
 530	1	1	-0.027923	53.4813	7.80223	-5.22195
 531	1	1	-0.180376	55.0536	8.94457	-6.69472
 532	1	1	-0.054224	54.2458	8.90066	-5.54919
 533	1	2	0.006282	53.4063	8.15523	-3.75434
 534	1	2	0.015188	54.3023	9.41546	-4.11442
 535	1	3	0.034756	52.0978	8.78883	-3.23069
 536	1	3	0.003059	52.443	9.32965	-1.82115
 537	1	3	0.042972	53.401	10.6024	-3.68645
 538	1	3	0.004163	53.3612	10.5817	-2.12399
 539	1	3	-0.197219	51.9895	10.0915	-4.05806
 540	1	5	0.227416	60.7427	4.70208	-15.9224
 541	1	5	0.230059	61.1808	9.61341	-15.4617
 542	1	6	0.034807	60.2968	5.58105	-13.1086
 543	1	6	0.022109	60.6161	8.16884	-12.8046
 544	1	6	0.043894	57.6406	5.06917	-13.5396
 545	1	6	0.04727	59.0846	5.41299	-11.2613
 546	1	6	0.039454	59.4562	7.99301	-10.877
 547	1	6	0.037752	58.1746	9.35761	-12.8832
 548	1	6	0.046701	56.3715	7.39313	-13.1033
 549	1	6	0.047659	57.3121	7.5024	-14.6092
 550	1	5	0.173906	56.1207	4.37427	-10.2564
 551	1	5	0.156928	56.9631	9.26149	-9.17355
 552	1	6	0.056509	52.4016	4.7153	-8.17505
 553	1	6	0.064596	53.3642	4.30039	-9.61107
 554	1	6	0.065502	52.7292	5.94667	-9.41184
 555	1	6	0.062922	55.3023	3.48262	-8.07396
 556	1	6	0.049805	54.3393	3.89339	-6.6428
 557	1	6	0.059229	55.9618	4.58539	-6.84847
 558	1	5	0.166497	53.0134	5.709	-5.60454
 559	1	5	0.141714	55.7801	9.73291	-6.86283
 560	1	6	0.041341	53.8209	7.40938	-3.06689
 561	1	6	0.038019	55.3036	9.47193	-3.6732
 562	1	6	0.012124	51.2125	8.14155	-3.26504
 563	1	6	0.001144	52.8941	8.60427	-1.13109
 564	1	6	0.009013	53.6682	11.5738	-4.12096
 565	1	6	0.001345	54.3387	10.545	-1.62542
 566	1	6	0.041603	51.8581	9.91529	-5.1335
 567	1	6	0.069352	51.1806	10.7578	-3.73108
 568	1	1	-0.425718	66.7	9.54541	-32.5253
 569	1	1	0.123859	65.6192	10.1055	-33.2409
 570	1	1	0.123846	64.9239	11.2656	-32.7733
 571	1	1	-0.442194	65.3117	11.8736	-31.5485
 572	1	1	0.030377	66.4664	11.3689	-30.9403
 573	1	1	0.003389	67.1271	10.2683	-31.4131
 574	1	2	0.006267	67.865	10.0125	-30.119
 575	1	2	0.040808	67.1101	11.2984	-29.5611
 576	1	3	0.010049	67.331	8.85348	-29.2388
 577	1	2	-0.044998	68.148	9.20798	-27.9737
 578	1	2	-0.017344	67.4255	10.4986	-27.3851
 579	1	3	0.004207	66.2561	10.7425	-28.3862
 580	1	3	-0.10977	65.8896	9.30932	-28.8683
 581	1	1	-0.002799	67.7404	8.51799	-26.691
 582	1	1	-0.006419	67.1394	9.63697	-26.1638
 583	1	1	-0.256521	67.4339	7.21887	-26.2737
 584	1	1	0.004841	66.6046	7.14254	-25.1331
 585	1	4	0.00733	66.0509	8.3009	-24.5288
 586	1	1	-0.221146	66.2372	9.59096	-25.0924
 587	1	3	0.21053	66.1016	5.8657	-24.4535
 588	1	4	0.0182	65.2204	7.87482	-23.3875
 589	1	1	0.000377	65.2348	6.45742	-23.3362
 590	1	3	-0.237942	65.2525	5.00981	-25.4194
 591	1	3	-0.215479	67.2783	5.03926	-23.8865
 592	1	1	-0.2391	64.6678	5.74842	-22.2562
 593	1	1	-0.027923	64.0205	6.53505	-21.2984
 594	1	1	-0.180376	64.6871	8.64666	-22.3213
 595	1	1	-0.054224	64.0454	7.91452	-21.3115
 596	1	2	0.006282	63.8209	6.4463	-19.803
 597	1	2	0.015188	63.873	8.03162	-19.8003
 598	1	3	0.034756	62.3999	6.13854	-19.2782
 599	1	3	0.003059	62.4582	6.43526	-17.7599
 600	1	3	0.042972	62.4932	8.41364	-19.2059
 601	1	3	0.004163	62.5451	8.01119	-17.6962
 602	1	3	-0.197219	61.5679	7.33041	-19.8063
 603	1	5	0.227416	67.154	8.60188	-32.8116
 604	1	5	0.230059	64.7363	12.6748	-31.0948
 605	1	6	0.034807	68.9575	10.0665	-30.1953
 606	1	6	0.022109	67.7307	12.1626	-29.2963
 607	1	6	0.043894	67.4453	7.83644	-29.6341
 608	1	6	0.04727	69.2313	9.26947	-28.1325
 609	1	6	0.039454	68.0524	11.3782	-27.1966
 610	1	6	0.037752	65.4286	11.3724	-28.0367
 611	1	6	0.046701	65.4372	8.69713	-28.0774
 612	1	6	0.047659	65.2088	9.31035	-29.7294
 613	1	5	0.173906	67.7723	6.33918	-26.812
 614	1	5	0.156928	65.6897	10.463	-24.7496
 615	1	6	0.056509	65.8591	4.6403	-26.2551
 616	1	6	0.064596	64.4266	5.60187	-25.8339
 617	1	6	0.065502	64.8221	4.14511	-24.8995
 618	1	6	0.062922	67.871	5.64277	-23.1874
 619	1	6	0.049805	67.9429	4.7014	-24.6911
 620	1	6	0.059229	66.9166	4.1536	-23.3504
 621	1	5	0.166497	64.8115	4.68068	-22.1238
 622	1	5	0.141714	64.8624	9.71472	-22.241
 623	1	6	0.041341	64.6006	5.90594	-19.2544
 624	1	6	0.038019	64.7017	8.51322	-19.2694
 625	1	6	0.012124	62.0058	5.1467	-19.5329
 626	1	6	0.001144	63.259	5.92483	-17.2084
 627	1	6	0.009013	62.1733	9.44683	-19.3902
 628	1	6	0.001345	63.4142	8.38352	-17.1379
 629	1	6	0.041603	61.5063	7.3669	-20.9016
 630	1	6	0.069352	60.5428	7.36242	-19.4146
 631	1	1	-0.425718	60.6131	21.221	-41.6918
 632	1	1	0.123859	59.8645	21.611	-40.5604
 633	1	1	0.123846	60.4891	21.8809	-39.308
 634	1	1	-0.442194	61.903	21.7968	-39.1991
 635	1	1	0.030377	62.6245	21.5635	-40.3759
 636	1	1	0.003389	62.0036	21.2722	-41.5687
 637	1	2	0.006267	63.1519	20.4249	-42.0843
 638	1	2	0.040808	63.8775	20.7748	-40.7187
 639	1	3	0.010049	62.9594	18.8842	-42.0168
 640	1	2	-0.044998	64.4367	18.4918	-42.2837
 641	1	2	-0.017344	65.1811	18.8544	-40.9315
 642	1	3	0.004207	64.0464	19.3997	-40.0197
 643	1	3	-0.10977	62.7925	18.6081	-40.4937
 644	1	1	-0.002799	64.8191	17.052	-41.9897
 645	1	1	-0.006419	65.4827	17.3712	-40.8194
 646	1	1	-0.256521	64.183	15.8167	-42.1805
 647	1	1	0.004841	64.3938	14.8536	-41.1689
 648	1	4	0.00733	65.1032	15.1702	-39.9852
 649	1	1	-0.221146	65.5974	16.4755	-39.7484
 650	1	3	0.21053	63.7408	13.468	-41.0674
 651	1	4	0.0182	64.9883	14.037	-39.0542
 652	1	1	0.000377	64.183	13.0391	-39.6623
 653	1	3	-0.237942	62.2005	13.5628	-41.1653
 654	1	3	-0.215479	64.2945	12.5095	-42.1438
 655	1	1	-0.2391	63.7712	11.8856	-38.955