pySIMM System Object

2584 atoms
3032 bonds
6240 angles
11728 dihedrals
240 impropers

6 atom types
11 bond types
24 angle types
21 dihedral types
1 improper types

-193.678200 193.678200 xlo xhi
-193.678200 193.678200 ylo yhi
-193.678200 193.678200 zlo zhi

Masses

   1	12.01	# ca
   2	12.01	# cy
   3	12.01	# c3
   4	12.01	# cp
   5	1.008	# ha
   6	1.008	# hc

Pair Coeffs

   1	0.086	3.3996695084235347	# ca
   2	0.086	3.3996695084235347	# cy
   3	0.1094	3.3996695084235347	# c3
   4	0.086	3.3996695084235347	# cp
   5	0.015	2.59964245953351	# ha
   6	0.0157	2.649532787749369	# hc

Bond Coeffs

   1	321.0	1.5156	# c3,ca
   2	285.0	1.5562	# cy,cy
   3	330.6	1.0969	# c3,hc
   4	333.3	1.0949	# cy,hc
   5	321.2	1.5154	# ca,cy
   6	461.1	1.3984	# ca,ca
   7	300.9	1.5375	# c3,c3
   8	305.9	1.5319	# c3,cy
   9	351.4	1.4854	# cp,cp
  10	345.8	1.086	# ca,ha
  11	450.2	1.4058	# ca,cp

Angle Coeffs

   1	62.73	112.39	# c3,c3,cy
   2	46.29	110.75	# cy,c3,hc
   3	44.83	114.79	# cy,cy,hc
   4	60.66	118.7	# c3,cy,cy
   5	66.72	118.38	# ca,cp,ca
   6	62.86	111.51	# c3,c3,c3
   7	46.43	110.14	# c3,cy,hc
   8	63.43	120.63	# c3,ca,cp
   9	63.56	112.24	# ca,c3,ca
  10	64.05	121.11	# ca,cp,cp
  11	66.62	120.02	# ca,ca,ca
  12	39.4	107.58	# hc,c3,hc
  13	47.98	119.86	# cp,ca,ha
  14	63.53	120.77	# c3,ca,ca
  15	63.51	120.86	# ca,ca,cy
  16	62.8	113.57	# c3,cy,ca
  17	67.9	96.03	# cy,c3,cy
  18	45.97	114.53	# ca,cy,hc
  19	61.4	116.81	# ca,cy,cy
  20	63.15	112.07	# c3,c3,ca
  21	66.26	120.69	# ca,ca,cp
  22	46.34	109.8	# c3,c3,hc
  23	48.18	119.88	# ca,ca,ha
  24	46.8	110.47	# ca,c3,hc

Dihedral Coeffs

   1	1	0.16	3	0.0	# cy,c3,cy,ca
   2	1	0.16	3	0.0	# c3,c3,cy,ca
   3	1	0.16	3	0.0	# hc,c3,cy,ca
   4	3	0.18	3	0.0	0.25	2	180.0	0.2	1	180.0	# cy,c3,cy,cy
   5	1	0.15	3	0	# hc,c3,c3,hc
   6	3	0.18	3	0.0	0.25	2	180.0	0.2	1	180.0	# c3,c3,cy,cy
   7	1	0.16	3	0.0	# hc,c3,cy,cy
   8	1	0.16	3	0.0	# cy,c3,cy,hc
   9	1	0.16	3	0.0	# c3,c3,cy,hc
  10	1	0.15	3	0.0	# hc,c3,cy,hc
  11	1	3.625	2	180	# X,ca,ca,X
  12	1	0.15555555555555556	3	0	# X,cy,cy,X
  13	1	3.625	2	180	# X,ca,cp,X
  14	3	0.18	3	0	0.25	2	180	0.2	1	180	# c3,c3,c3,c3
  15	1	0.15555555555555556	3	0	# X,c3,c3,X
  16	1	0.16	3	0	# hc,c3,c3,c3
  17	1	1.0	2	180	# X,cp,cp,X
  18	1	0.0	2	0.0	# ca,ca,cy,cy
  19	1	0.0	2	0.0	# ca,ca,cy,c3
  20	1	0.0	2	0	# X,c3,ca,X
  21	3	0.38	3	180.0	0.0	2	0.0	1.15	1	0.0	# ca,ca,cy,hc

Improper Coeffs

   1	1.1	-1	2	# ca,X,X,ha

Atoms

   1	1	1	-0.425718	21.3689	-58.9561	38.9026
   2	1	1	0.123859	22.7437	-58.6993	38.7457
   3	1	1	0.123846	23.3765	-57.5844	39.2625
   4	1	1	-0.442194	22.7109	-56.5836	39.9944
   5	1	1	0.030377	21.4025	-56.9649	40.3525
   6	1	1	0.003389	20.7679	-58.0908	39.838
   7	1	2	0.006267	19.3745	-57.5468	40.0981
   8	1	2	0.040808	20.0991	-56.2587	40.6818
   9	1	3	0.010049	18.5808	-57.008	38.8777
  10	1	2	-0.044998	17.4673	-56.2847	39.6833
  11	1	2	-0.017344	18.1947	-54.9928	40.2622
  12	1	3	0.004207	19.6485	-55.1161	39.7312
  13	1	3	-0.10977	19.4673	-55.8372	38.3648
  14	1	1	-0.002799	16.5857	-55.3143	38.9205
  15	1	1	-0.006419	17.2154	-54.1972	39.4189
  16	1	1	-0.256521	15.8296	-55.3088	37.742
  17	1	1	0.004841	15.636	-54.0325	37.1651
  18	1	4	0.00733	16.2873	-52.88	37.675
  19	1	1	-0.221146	17.1627	-52.9484	38.7888
  20	1	3	0.21053	14.8509	-53.7052	35.8879
  21	1	4	0.0182	15.9937	-51.7478	36.7824
  22	1	1	0.000377	15.1525	-52.2088	35.7357
  23	1	3	-0.237942	15.3798	-54.505	34.6763
  24	1	3	-0.215479	13.3398	-53.9577	36.0877
  25	1	1	-0.2391	14.612	-51.3267	34.7709
  26	1	1	-0.027923	15.058	-50.004	34.8762
  27	1	1	-0.180376	16.3377	-50.3782	36.9198
  28	1	1	-0.054224	15.8709	-49.5561	35.8881
  29	1	2	0.006282	14.6396	-48.6079	34.449
  30	1	2	0.015188	15.5787	-48.0899	35.6198
  31	1	3	0.034756	13.2517	-48.0474	34.8471
  32	1	3	0.003059	12.6708	-48.7397	36.11
  33	1	3	0.042972	14.5974	-47.3048	36.5252
  34	1	3	0.004163	13.5885	-48.2334	37.2543
  35	1	3	-0.197219	13.6689	-46.6931	35.4561
  36	1	5	0.227416	20.8172	-59.6632	38.2917
  37	1	5	0.230059	23.1196	-55.5928	40.1647
  38	1	6	0.034807	18.7764	-58.1407	40.7992
  39	1	6	0.022109	19.9512	-56.0455	41.7471
  40	1	6	0.043894	18.255	-57.7459	38.1341
  41	1	6	0.04727	16.9364	-56.9222	40.4002
  42	1	6	0.039454	18.1182	-54.8188	41.3422
  43	1	6	0.037752	20.2556	-54.2023	39.7331
  44	1	6	0.046701	18.9612	-55.2141	37.6162
  45	1	6	0.047659	20.4164	-56.18	37.9371
  46	1	5	0.173906	15.4589	-56.2206	37.2846
  47	1	5	0.156928	17.7826	-52.1126	39.0964
  48	1	6	0.056509	14.8719	-54.1983	33.7537
  49	1	6	0.064596	15.2179	-55.5809	34.8137
  50	1	6	0.065502	16.456	-54.3363	34.5438
  51	1	6	0.062922	13.1439	-55.018	36.2884
  52	1	6	0.049805	12.7704	-53.6675	35.1963
  53	1	6	0.059229	12.9611	-53.3758	36.9377
  54	1	5	0.166497	13.8753	-51.6385	34.037
  55	1	5	0.141714	16.8723	-49.9918	37.7815
  56	1	6	0.041341	14.942	-48.2953	33.4435
  57	1	6	0.038019	16.4255	-47.4761	35.2935
  58	1	6	0.012124	12.5362	-47.9722	34.0185
  59	1	6	0.001144	12.6585	-49.8332	36.0327
  60	1	6	0.009013	15.0756	-46.5705	37.1856
  61	1	6	0.001345	14.0744	-49.0521	37.7976
  62	1	6	0.041603	14.2032	-46.0499	34.743
  63	1	6	0.069352	12.8245	-46.1369	35.8871
  64	1	1	-0.425718	36.8684	-62.4111	38.7877
  65	1	1	0.123859	37.7718	-61.6839	37.9898
  66	1	1	0.123846	37.7958	-60.3022	37.9382
  67	1	1	-0.442194	36.927	-59.4825	38.6825
  68	1	1	0.030377	36.211	-60.2027	39.6594
  69	1	1	0.003389	36.1809	-61.593	39.7065
  70	1	2	0.006267	34.8446	-61.6379	40.4273
  71	1	2	0.040808	34.8802	-60.051	40.3761
  72	1	3	0.010049	33.5938	-62.0088	39.585
  73	1	2	-0.044998	32.5269	-61.5793	40.6282
  74	1	2	-0.017344	32.5627	-59.9905	40.5797
  75	1	3	0.004207	33.6457	-59.6768	39.5119
  76	1	3	-0.10977	33.5267	-60.8728	38.5249
  77	1	1	-0.002799	31.0972	-61.4562	40.1347
  78	1	1	-0.006419	31.127	-60.0792	40.0952
  79	1	1	-0.256521	30.2175	-62.2235	39.3604
  80	1	1	0.004841	29.2499	-61.4854	38.6416
  81	1	4	0.00733	29.2752	-60.0685	38.6041
  82	1	1	-0.221146	30.2752	-59.3243	39.2793
  83	1	3	0.21053	28.1669	-62.0444	37.7093
  84	1	4	0.0182	28.2408	-59.6098	37.6635
  85	1	1	0.000377	27.5809	-60.7489	37.1336
  86	1	3	-0.237942	28.7768	-62.9212	36.5928
  87	1	3	-0.215479	27.107	-62.8375	38.5058
  88	1	1	-0.2391	26.4584	-60.6297	36.2818
  89	1	1	-0.027923	26.1271	-59.3158	35.9297
  90	1	1	-0.180376	27.8069	-58.2908	37.3732
  91	1	1	-0.054224	26.7615	-58.2109	36.4458
  92	1	2	0.006282	24.9185	-58.5319	35.448
  93	1	2	0.015188	25.6523	-57.2519	36.0464
  94	1	3	0.034756	23.5881	-58.5751	36.2429
  95	1	3	0.003059	23.8373	-58.9737	37.7293
  96	1	3	0.042972	24.6405	-56.7344	37.1015
  97	1	3	0.004163	24.5639	-57.6986	38.3233
  98	1	3	-0.197219	23.3264	-57.0551	36.3523
  99	1	5	0.227416	36.6406	-63.4601	38.6279
 100	1	5	0.230059	36.7412	-58.4395	38.4472
 101	1	6	0.034807	34.8752	-62.1035	41.4194
 102	1	6	0.022109	34.9351	-59.5242	41.3361
 103	1	6	0.043894	33.5356	-63.0389	39.212
 104	1	6	0.04727	32.6359	-62.0515	41.6118
 105	1	6	0.039454	32.6966	-59.4645	41.5324
 106	1	6	0.037752	33.634	-58.6705	39.0751
 107	1	6	0.046701	32.5865	-60.8694	37.9585
 108	1	6	0.047659	34.3534	-60.9135	37.8088
 109	1	5	0.173906	30.3092	-63.3017	39.2761
 110	1	5	0.156928	30.4108	-58.2589	39.1244
 111	1	6	0.056509	28.0055	-63.2405	35.8811
 112	1	6	0.064596	29.2487	-63.8187	37.0104
 113	1	6	0.065502	29.5403	-62.3615	36.0376
 114	1	6	0.062922	26.6639	-62.2089	39.2887
 115	1	6	0.049805	27.5556	-63.7146	38.9882
 116	1	6	0.059229	26.2992	-63.1839	37.85
 117	1	5	0.166497	25.8649	-61.4839	35.9712
 118	1	5	0.141714	28.2093	-57.4189	37.8788
 119	1	6	0.041341	24.7561	-58.5052	34.3648
 120	1	6	0.038019	25.9142	-56.4847	35.3094
 121	1	6	0.012124	22.7817	-59.1412	35.7601
 122	1	6	0.001144	24.3648	-59.92	37.899
 123	1	6	0.009013	24.7608	-55.6788	37.3754
 124	1	6	0.001345	25.5095	-57.9107	38.8366
 125	1	6	0.041603	23.2672	-56.5634	35.3711
 126	1	6	0.069352	22.4219	-56.8016	36.9178
 127	1	1	-0.425718	50.0382	-58.4259	30.4094
 128	1	1	0.123859	49.7995	-57.7635	29.1898
 129	1	1	0.123846	48.9372	-56.6906	29.069
 130	1	1	-0.442194	48.2385	-56.1232	30.1491
 131	1	1	0.030377	48.6831	-56.6154	31.3915
 132	1	1	0.003389	49.5235	-57.7179	31.5151
 133	1	2	0.006267	49.0265	-58.0636	32.9104
 134	1	2	0.040808	48.0755	-56.7996	32.7686
 135	1	3	0.010049	48.0371	-59.255	33.0437
 136	1	2	-0.044998	47.574	-58.9646	34.4994
 137	1	2	-0.017344	46.6324	-57.6941	34.3499
 138	1	3	0.004207	46.6451	-57.3949	32.8278
 139	1	3	-0.10977	46.8185	-58.8029	32.1892
 140	1	1	-0.002799	46.3319	-59.6919	34.987
 141	1	1	-0.006419	45.5164	-58.5873	34.853
 142	1	1	-0.256521	45.8479	-61.0066	34.9362
 143	1	1	0.004841	44.4411	-61.1321	34.8738
 144	1	4	0.00733	43.6065	-59.9983	34.7141
 145	1	1	-0.221146	44.1383	-58.6888	34.6287
 146	1	3	0.21053	43.6298	-62.4324	34.7784
 147	1	4	0.0182	42.2328	-60.4612	34.4698
 148	1	1	0.000377	42.2236	-61.8805	34.5082
 149	1	3	-0.237942	44.1126	-63.3183	33.6078
 150	1	3	-0.215479	43.6805	-63.2153	36.1089
 151	1	1	-0.2391	41.0267	-62.6228	34.3671
 152	1	1	-0.027923	39.8958	-61.847	34.0865
 153	1	1	-0.180376	41.0486	-59.7049	34.274
 154	1	1	-0.054224	39.9068	-60.476	34.0363
 155	1	2	0.006282	38.3799	-61.9445	34.0915
 156	1	2	0.015188	38.3944	-60.3514	34.0332
 157	1	3	0.034756	37.6147	-62.2349	35.4079
 158	1	3	0.003059	38.4711	-61.8461	36.6505
 159	1	3	0.042972	37.6404	-59.9481	35.3247
 160	1	3	0.004163	38.4935	-60.2646	36.5903
 161	1	3	-0.197219	36.5884	-61.0806	35.3465
 162	1	5	0.227416	50.4659	-59.4211	30.4762
 163	1	5	0.230059	47.3784	-55.4722	30.0305
 164	1	6	0.034807	49.7919	-58.0232	33.6942
 165	1	6	0.022109	48.2485	-55.9661	33.4598
 166	1	6	0.043894	48.4383	-60.256	32.8422
 167	1	6	0.04727	48.3884	-58.8986	35.2304
 168	1	6	0.039454	46.8531	-56.8295	34.9873
 169	1	6	0.037752	45.8321	-56.7697	32.4385
 170	1	6	0.046701	45.9392	-59.4459	32.3227
 171	1	6	0.047659	47.0449	-58.7575	31.1184
 172	1	5	0.173906	46.5104	-61.8644	34.8785
 173	1	5	0.156928	43.5356	-57.8376	34.3292
 174	1	6	0.056509	45.1385	-63.6683	33.7749
 175	1	6	0.064596	44.0934	-62.7555	32.6659
 176	1	6	0.065502	43.4674	-64.1975	33.4911
 177	1	6	0.062922	43.3259	-62.5895	36.9378
 178	1	6	0.049805	44.7056	-63.5322	36.3373
 179	1	6	0.059229	43.0475	-64.1098	36.0633
 180	1	5	0.166497	40.9831	-63.7008	34.4872
 181	1	5	0.141714	41.0254	-58.6215	34.332
 182	1	6	0.041341	37.9207	-62.4343	33.2258
 183	1	6	0.038019	37.943	-59.9175	33.1341
 184	1	6	0.012124	37.1694	-63.2357	35.4704
 185	1	6	0.001144	39.4617	-62.3121	36.7225
 186	1	6	0.009013	37.2181	-58.9355	35.3144
 187	1	6	0.001345	39.4964	-59.8214	36.625
 188	1	6	0.041603	35.974	-61.1068	34.4355
 189	1	6	0.069352	35.9174	-61.0416	36.2109
 190	1	1	-0.425718	53.7946	-49.2083	18.074
 191	1	1	0.123859	52.9424	-48.7925	17.0342
 192	1	1	0.123846	51.5966	-48.5348	17.2061
 193	1	1	-0.442194	50.9306	-48.6289	18.441
 194	1	1	0.030377	51.8306	-48.802	19.5105
 195	1	1	0.003389	53.18	-49.0891	19.3363
 196	1	2	0.006267	53.3281	-49.7152	20.7117
 197	1	2	0.040808	51.7875	-49.3767	20.9129
 198	1	3	0.010049	53.3789	-51.2667	20.791
 199	1	2	-0.044998	53.1735	-51.3819	22.3263
 200	1	2	-0.017344	51.6309	-51.0285	22.5281
 201	1	3	0.004207	51.1177	-50.7642	21.0881
 202	1	3	-0.10977	52.0008	-51.7006	20.2138
 203	1	1	-0.002799	52.8156	-52.7475	22.885
 204	1	1	-0.006419	51.4912	-52.4395	23.0586
 205	1	1	-0.256521	53.3287	-54.0468	22.9762
 206	1	1	0.004841	52.3788	-55.0218	23.3676
 207	1	4	0.00733	51.0052	-54.7025	23.5343
 208	1	1	-0.221146	50.5053	-53.3903	23.3335
 209	1	3	0.21053	52.63	-56.5146	23.6245
 210	1	4	0.0182	50.2825	-55.9283	23.8994
 211	1	1	0.000377	51.2148	-56.9942	23.9806
 212	1	3	-0.237942	53.1545	-57.2238	22.3567
 213	1	3	-0.215479	53.6079	-56.7168	24.8039
 214	1	1	-0.2391	50.8459	-58.2626	24.4884
 215	1	1	-0.027923	49.4841	-58.4072	24.7872
 216	1	1	-0.180376	48.9347	-56.0787	24.3075
 217	1	1	-0.054224	48.5785	-57.3752	24.693
 218	1	2	0.006282	48.6053	-59.236	25.7138
 219	1	2	0.015188	47.5675	-58.0347	25.611
 220	1	3	0.034756	48.8973	-59.3106	27.237
 221	1	3	0.003059	49.7502	-58.0956	27.7068
 222	1	3	0.042972	47.4306	-57.5626	27.0805
 223	1	3	0.004163	48.744	-56.8804	27.5773
 224	1	3	-0.197219	47.4944	-58.9432	27.7731
 225	1	5	0.227416	54.7704	-49.6549	17.9125
 226	1	5	0.230059	49.8508	-48.6601	18.5439
 227	1	6	0.034807	54.039	-49.2049	21.3722
 228	1	6	0.022109	51.5355	-48.65	21.6945
 229	1	6	0.043894	54.2676	-51.7551	20.3723
 230	1	6	0.04727	53.8989	-50.8176	22.9242
 231	1	6	0.039454	51.3864	-50.2414	23.2514
 232	1	6	0.037752	50.0331	-50.8141	20.9311
 233	1	6	0.046701	51.7859	-52.7645	20.3779
 234	1	6	0.047659	51.906	-51.494	19.1404
 235	1	5	0.173906	54.3656	-54.2846	22.7613
 236	1	5	0.156928	49.4491	-53.1465	23.3805
 237	1	6	0.056509	54.1385	-56.8351	22.0673
 238	1	6	0.064596	52.4664	-57.0683	21.516
 239	1	6	0.065502	53.2478	-58.3039	22.5235
 240	1	6	0.062922	53.7441	-57.7823	25.0249
 241	1	6	0.049805	53.2269	-56.2275	25.7094
 242	1	6	0.059229	54.5912	-56.2881	24.5748
 243	1	5	0.166497	51.573	-59.0395	24.7031
 244	1	5	0.141714	48.2579	-55.2357	24.4022
 245	1	6	0.041341	48.2442	-60.1899	25.3139
 246	1	6	0.038019	46.6017	-58.2962	25.1647
 247	1	6	0.012124	49.2761	-60.2794	27.5859
 248	1	6	0.001144	50.7084	-57.9485	27.1942
 249	1	6	0.009013	46.5213	-56.9876	27.296
 250	1	6	0.001345	49.1163	-56.0389	26.9818
 251	1	6	0.041603	46.7127	-59.6312	27.4213
 252	1	6	0.069352	47.4385	-58.8917	28.8663
 253	1	1	-0.425718	48.796	-36.9239	10.8404
 254	1	1	0.123859	47.6191	-36.5766	10.1513
 255	1	1	0.123846	46.4354	-37.281	10.2653
 256	1	1	-0.442194	46.2665	-38.3929	11.1107
 257	1	1	0.030377	47.3574	-38.567	11.9852
 258	1	1	0.003389	48.5608	-37.8843	11.8436
 259	1	2	0.006267	49.367	-38.9496	12.5654
 260	1	2	0.040808	47.9884	-39.7199	12.7435
 261	1	3	0.010049	50.2196	-39.916	11.6947
 262	1	2	-0.044998	50.5258	-40.9511	12.8103
 263	1	2	-0.017344	49.1383	-41.7129	13.0112
 264	1	3	0.004207	48.1968	-41.0483	11.9717
 265	1	3	-0.10977	49.1596	-40.6433	10.8191
 266	1	1	-0.002799	51.0725	-42.3013	12.3805
 267	1	1	-0.006419	49.881	-42.9532	12.5616
 268	1	1	-0.256521	52.2915	-42.9554	12.1701
 269	1	1	0.004841	52.1915	-44.367	12.0981
 270	1	4	0.00733	50.9563	-45.0413	12.2955
 271	1	1	-0.221146	49.752	-44.3436	12.5726
 272	1	3	0.21053	53.3464	-45.3696	11.961
 273	1	4	0.0182	51.2155	-46.4879	12.3298
 274	1	1	0.000377	52.6053	-46.7015	12.1499
 275	1	3	-0.237942	53.9958	-45.2866	10.5627
 276	1	3	-0.215479	54.407	-45.1554	13.0658
 277	1	1	-0.2391	53.1885	-47.9751	12.3457
 278	1	1	-0.027923	52.287	-49.0098	12.633
 279	1	1	-0.180376	50.3455	-47.5339	12.7233
 280	1	1	-0.054224	50.9366	-48.7992	12.812
 281	1	2	0.006282	52.2979	-50.3039	13.4351
 282	1	2	0.015188	50.7443	-50.0505	13.6502
 283	1	3	0.034756	52.8491	-50.336	14.8864
 284	1	3	0.003059	52.8284	-48.9164	15.5258
 285	1	3	0.042972	50.6172	-49.9445	15.1929
 286	1	3	0.004163	51.282	-48.6368	15.7263
 287	1	3	-0.197219	51.6537	-51.0215	15.5889
 288	1	5	0.227416	49.7834	-36.5738	10.5572
 289	1	5	0.230059	45.4441	-39.0954	11.0223
 290	1	6	0.034807	49.8649	-38.6055	13.4796
 291	1	6	0.022109	47.6184	-39.846	13.768
 292	1	6	0.043894	51.0812	-39.4825	11.172
 293	1	6	0.04727	51.0138	-40.5222	13.6936
 294	1	6	0.039454	48.7193	-41.7736	14.0227
 295	1	6	0.037752	47.294	-41.6056	11.6925
 296	1	6	0.046701	49.5702	-41.5083	10.2823
 297	1	6	0.047659	48.6876	-39.9787	10.086
 298	1	5	0.173906	53.2394	-42.4283	12.1269
 299	1	5	0.156928	48.8255	-44.8454	12.8315
 300	1	6	0.056509	54.462	-44.3062	10.4049
 301	1	6	0.064596	53.2425	-45.4352	9.77869
 302	1	6	0.065502	54.7668	-46.0576	10.4433
 303	1	6	0.062922	53.9463	-45.2228	14.0598
 304	1	6	0.049805	54.8766	-44.1684	12.9748
 305	1	6	0.059229	55.1979	-45.9126	13.0058
 306	1	5	0.166497	54.2635	-48.1209	12.3823
 307	1	5	0.141714	49.3276	-47.3464	13.0494
 308	1	6	0.041341	52.5418	-51.216	12.8794
 309	1	6	0.038019	50.089	-50.8218	13.2304
 310	1	6	0.012124	53.8054	-50.8609	15.0038
 311	1	6	0.001144	53.3691	-48.1299	14.9873
 312	1	6	0.009013	49.6074	-50.1209	15.5842
 313	1	6	0.001345	50.9272	-47.6936	15.2962
 314	1	6	0.041603	51.4225	-52.0084	15.1641
 315	1	6	0.069352	51.7815	-51.1361	16.6731
 316	1	1	-0.425718	37.3327	-27.5567	5.09552
 317	1	1	0.123859	36.7281	-27.8606	3.86207
 318	1	1	0.123846	36.2761	-29.1235	3.52902
 319	1	1	-0.442194	36.34	-30.2276	4.39972
 320	1	1	0.030377	36.6961	-29.8576	5.71281
 321	1	1	0.003389	37.1829	-28.5944	6.03623
 322	1	2	0.006267	37.9509	-29.0901	7.24825
 323	1	2	0.040808	37.3787	-30.5283	6.89309
 324	1	3	0.010049	39.4886	-29.2553	7.09211
 325	1	2	-0.044998	39.7278	-30.0656	8.39382
 326	1	2	-0.017344	39.1366	-31.503	8.06322
 327	1	3	0.004207	38.6444	-31.373	6.59495
 328	1	3	-0.10977	39.6242	-30.3336	5.97913
 329	1	1	-0.002799	41.0686	-30.7657	8.53316
 330	1	1	-0.006419	40.55	-32.0143	8.26162
 331	1	1	-0.256521	42.4117	-30.4351	8.30297
 332	1	1	0.004841	43.2435	-31.5136	7.92303
 333	1	4	0.00733	42.7114	-32.8004	7.66285
 334	1	1	-0.221146	41.3228	-33.0637	7.75161
 335	1	3	0.21053	44.7395	-31.4574	7.58004
 336	1	4	0.0182	43.7887	-33.6554	7.14559
 337	1	1	0.000377	44.9817	-32.8907	7.08585
 338	1	3	-0.237942	45.0267	-30.4301	6.46228
 339	1	3	-0.215479	45.5829	-31.1439	8.83589
 340	1	1	-0.2391	46.2201	-33.4729	6.72586
 341	1	1	-0.027923	46.1492	-34.8199	6.34531
 342	1	1	-0.180376	43.7748	-35.0451	6.86892
 343	1	1	-0.054224	44.9948	-35.5633	6.42232
 344	1	2	0.006282	47.0568	-36.0394	6.28026
 345	1	2	0.015188	45.7197	-36.8956	6.39124
 346	1	3	0.034756	47.8652	-36.4933	7.52298
 347	1	3	0.003059	47.2285	-35.9403	8.83037
 348	1	3	0.042972	45.9292	-37.6984	7.70158
 349	1	3	0.004163	45.8807	-36.7626	8.95069
 350	1	3	-0.197219	47.4431	-37.9805	7.5623
 351	1	5	0.227416	37.945	-26.6762	5.26098
 352	1	5	0.230059	36.2425	-31.2566	4.06912
 353	1	6	0.034807	37.6363	-28.6518	8.20271
 354	1	6	0.022109	36.6942	-30.9838	7.61843
 355	1	6	0.043894	40.0753	-28.3368	6.96613
 356	1	6	0.04727	39.3673	-29.5755	9.30596
 357	1	6	0.039454	38.3948	-31.9112	8.75995
 358	1	6	0.037752	38.4961	-32.3058	6.03698
 359	1	6	0.046701	40.6469	-30.7181	5.87576
 360	1	6	0.047659	39.2974	-29.9734	4.99797
 361	1	5	0.173906	42.7714	-29.4122	8.35013
 362	1	5	0.156928	40.882	-33.9832	7.38067
 363	1	6	0.056509	46.0815	-30.4626	6.16297
 364	1	6	0.064596	44.7974	-29.4108	6.79552
 365	1	6	0.065502	44.4155	-30.6446	5.57635
 366	1	6	0.062922	46.6548	-31.1626	8.605
 367	1	6	0.049805	45.3918	-31.8837	9.62376
 368	1	6	0.059229	45.3361	-30.1523	9.23474
 369	1	5	0.166497	47.1616	-32.9376	6.7998
 370	1	5	0.141714	42.9074	-35.6694	7.05784
 371	1	6	0.041341	47.6156	-36.1787	5.34827
 372	1	6	0.038019	45.5138	-37.5437	5.53213
 373	1	6	0.012124	48.948	-36.3304	7.45292
 374	1	6	0.001144	47.1064	-34.8523	8.89077
 375	1	6	0.009013	45.3066	-38.597	7.79485
 376	1	6	0.001345	44.98	-36.1482	9.06701
 377	1	6	0.041603	47.6911	-38.5157	6.63487
 378	1	6	0.069352	47.868	-38.5397	8.40469
 379	1	1	-0.425718	27.0517	-25.8281	-6.8812
 380	1	1	0.123859	27.2855	-26.2889	-8.18867
 381	1	1	0.123846	27.8025	-27.536	-8.48143
 382	1	1	-0.442194	28.1393	-28.4879	-7.5002
 383	1	1	0.030377	27.6749	-28.1205	-6.22022
 384	1	1	0.003389	27.1673	-26.8583	-5.92885
 385	1	2	0.006267	27.494	-26.9553	-4.45158
 386	1	2	0.040808	28.0609	-28.4036	-4.77765
 387	1	3	0.010049	28.7389	-26.1716	-3.9525
 388	1	2	-0.044998	28.8293	-26.839	-2.5555
 389	1	2	-0.017344	29.3785	-28.3004	-2.86393
 390	1	3	0.004207	29.5645	-28.3068	-4.40741
 391	1	3	-0.10977	29.9143	-26.8264	-4.73364
 392	1	1	-0.002799	30.1147	-26.6361	-1.775
 393	1	1	-0.006419	30.5812	-27.9055	-2.02894
 394	1	1	-0.256521	30.9521	-25.5706	-1.41964
 395	1	1	0.004841	32.2999	-25.9256	-1.17978
 396	1	4	0.00733	32.7741	-27.2407	-1.41585
 397	1	1	-0.221146	31.931	-28.2585	-1.92766
 398	1	3	0.21053	33.4479	-24.9904	-0.774705
 399	1	4	0.0182	34.2236	-27.2637	-1.17436
 400	1	1	0.000377	34.6379	-25.96	-0.79904
 401	1	3	-0.237942	33.6385	-23.8511	-1.80055
 402	1	3	-0.215479	33.219	-24.4147	0.640705
 403	1	1	-0.2391	35.9614	-25.6943	-0.376344
 404	1	1	-0.027923	36.835	-26.7872	-0.451115
 405	1	1	-0.180376	35.1045	-28.3726	-1.12347
 406	1	1	-0.054224	36.4267	-28.0549	-0.795346
 407	1	2	0.006282	38.1173	-27.2654	0.211844
 408	1	2	0.015188	37.634	-28.732	-0.172583
 409	1	3	0.034756	38.2325	-27.33	1.75636
 410	1	3	0.003059	36.8253	-27.4049	2.41795
 411	1	3	0.042972	37.5148	-29.4314	1.20722
 412	1	3	0.004163	36.3219	-28.8558	2.03392
 413	1	3	-0.197219	38.7355	-28.7847	1.90119
 414	1	5	0.227416	26.9061	-24.7827	-6.6289
 415	1	5	0.230059	28.7719	-29.3489	-7.69039
 416	1	6	0.034807	26.6247	-26.8995	-3.78577
 417	1	6	0.022109	27.5393	-29.2547	-4.32401
 418	1	6	0.043894	28.6771	-25.0765	-3.97506
 419	1	6	0.04727	27.9135	-26.7661	-1.95702
 420	1	6	0.039454	28.8005	-29.1449	-2.47006
 421	1	6	0.037752	30.2266	-29.076	-4.82391
 422	1	6	0.046701	30.8997	-26.527	-4.354
 423	1	6	0.047659	29.8831	-26.6091	-5.80794
 424	1	5	0.173906	30.6011	-24.5444	-1.3766
 425	1	5	0.156928	32.3112	-29.2176	-2.26418
 426	1	6	0.056509	33.7858	-24.2601	-2.80822
 427	1	6	0.064596	34.5157	-23.2423	-1.54975
 428	1	6	0.065502	32.7613	-23.1933	-1.82522
 429	1	6	0.062922	33.0993	-25.225	1.37114
 430	1	6	0.049805	32.3143	-23.7951	0.669763
 431	1	6	0.059229	34.0673	-23.7953	0.956206
 432	1	5	0.166497	36.2602	-24.7386	0.0427646
 433	1	5	0.141714	34.7625	-29.3949	-1.24892
 434	1	6	0.041341	39.0542	-26.9513	-0.261354
 435	1	6	0.038019	38.2977	-29.2712	-0.857569
 436	1	6	0.012124	38.8928	-26.5749	2.20097
 437	1	6	0.001144	36.1257	-26.5982	2.16901
 438	1	6	0.009013	37.5419	-30.5276	1.17072
 439	1	6	0.001345	35.3367	-28.8837	1.55342
 440	1	6	0.041603	39.6755	-28.9642	1.36062
 441	1	6	0.069352	38.8722	-29.103	2.94062
 442	1	1	-0.425718	20.9087	-30.8664	-20.635
 443	1	1	0.123859	21.2623	-31.5811	-21.7922
 444	1	1	0.123846	22.5066	-32.1717	-21.9747
 445	1	1	-0.442194	23.4958	-32.1546	-20.9702
 446	1	1	0.030377	23.2216	-31.2592	-19.9171
 447	1	1	0.003389	21.9915	-30.6235	-19.7732
 448	1	2	0.006267	22.1091	-30.5178	-18.2681
 449	1	2	0.040808	23.4989	-31.2634	-18.4192
 450	1	3	0.010049	22.4893	-29.1239	-17.7008
 451	1	2	-0.044998	22.7734	-29.598	-16.2547
 452	1	2	-0.017344	24.1593	-30.3777	-16.3671
 453	1	3	0.004207	24.5306	-30.2395	-17.8736
 454	1	3	-0.10977	23.9119	-28.8708	-18.2771
 455	1	1	-0.002799	23.5091	-28.6372	-15.3433
 456	1	1	-0.006419	24.6953	-29.3231	-15.4157
 457	1	1	-0.256521	23.4074	-27.3198	-14.8827
 458	1	1	0.004841	24.6028	-26.7961	-14.3368
 459	1	4	0.00733	25.8169	-27.5317	-14.3494
 460	1	1	-0.221146	25.9145	-28.8074	-14.9642
 461	1	3	0.21053	24.808	-25.4028	-13.7291
 462	1	4	0.0182	26.8619	-26.7123	-13.7167
 463	1	1	0.000377	26.2954	-25.4631	-13.3562
 464	1	3	-0.237942	24.5382	-24.2894	-14.765
 465	1	3	-0.215479	23.9204	-25.2089	-12.4786
 466	1	1	-0.2391	27.0102	-24.5183	-12.5854
 467	1	1	-0.027923	28.327	-24.8786	-12.2707
 468	1	1	-0.180376	28.1522	-27.0981	-13.2749
 469	1	1	-0.054224	28.8614	-26.11	-12.5812
 470	1	2	0.006282	29.3104	-24.6203	-11.1409
 471	1	2	0.015188	29.917	-26.0477	-11.4887
 472	1	3	0.034756	28.8683	-24.776	-9.66326
 473	1	3	0.003059	27.63	-25.7139	-9.54734
 474	1	3	0.042972	29.7312	-26.8342	-10.1618
 475	1	3	0.004163	28.226	-27.1412	-9.88731
 476	1	3	-0.197219	30.0134	-25.6872	-9.1638
 477	1	5	0.227416	19.8766	-30.703	-20.3412
 478	1	5	0.230059	24.283	-32.8997	-20.915
 479	1	6	0.034807	21.3049	-31.0186	-17.7159
 480	1	6	0.022109	23.6028	-32.2629	-17.9806
 481	1	6	0.043894	21.7526	-28.32	-17.8227
 482	1	6	0.04727	21.9396	-30.1273	-15.778
 483	1	6	0.039454	24.1886	-31.4045	-15.9833
 484	1	6	0.037752	25.581	-30.4064	-18.1426
 485	1	6	0.046701	24.4188	-28.0192	-17.8048
 486	1	6	0.047659	23.9082	-28.7083	-19.3627
 487	1	5	0.173906	22.4912	-26.7426	-14.9576
 488	1	5	0.156928	26.858	-29.3271	-15.0956
 489	1	6	0.056509	24.7686	-23.3019	-14.3466
 490	1	6	0.064596	23.4876	-24.2919	-15.0795
 491	1	6	0.065502	25.1609	-24.4342	-15.657
 492	1	6	0.062922	24.1239	-25.992	-11.737
 493	1	6	0.049805	22.8566	-25.2585	-12.7415
 494	1	6	0.059229	24.1094	-24.2369	-12.0073
 495	1	5	0.166497	26.5406	-23.63	-12.1745
 496	1	5	0.141714	28.5156	-28.1163	-13.3703
 497	1	6	0.041341	30.0001	-23.7807	-11.2811
 498	1	6	0.038019	30.9608	-26.035	-11.8215
 499	1	6	0.012124	28.7647	-23.8331	-9.11189
 500	1	6	0.001144	26.7454	-25.4347	-10.1304
 501	1	6	0.009013	30.3888	-27.705	-10.0481
 502	1	6	0.001345	27.6879	-27.6832	-10.6738
 503	1	6	0.041603	31.0059	-25.2367	-9.30573
 504	1	6	0.069352	29.9182	-25.9821	-8.11149
 505	1	1	-0.425718	19.6231	-38.7351	-38.0332
 506	1	1	0.123859	20.5683	-38.7429	-39.0708
 507	1	1	0.123846	21.9199	-38.485	-38.8805
 508	1	1	-0.442194	22.4603	-38.2615	-37.5956
 509	1	1	0.030377	21.4886	-38.0345	-36.598
 510	1	1	0.003389	20.13	-38.2408	-36.8212
 511	1	2	0.006267	19.8389	-38.5747	-35.3778
 512	1	2	0.040808	21.3859	-38.3619	-35.11
 513	1	3	0.010049	19.1518	-37.4616	-34.5467
 514	1	2	-0.044998	19.341	-38.1446	-33.1737
 515	1	2	-0.017344	20.8953	-37.9705	-32.855
 516	1	3	0.004207	21.4235	-37.1837	-34.095
 517	1	3	-0.10977	20.205	-36.3173	-34.5229
 518	1	1	-0.002799	19.1011	-37.2934	-31.9486
 519	1	1	-0.006419	20.4309	-37.168	-31.6481
 520	1	1	-0.256521	18.0873	-36.5671	-31.3208
 521	1	1	0.004841	18.5303	-35.7841	-30.23
 522	1	4	0.00733	19.8978	-35.7285	-29.845
 523	1	1	-0.221146	20.9142	-36.3886	-30.5902
 524	1	3	0.21053	17.6594	-34.9154	-29.3182
 525	1	4	0.0182	19.9982	-34.9054	-28.6252
 526	1	1	0.000377	18.7033	-34.4204	-28.3104
 527	1	3	-0.237942	17.0341	-33.7365	-30.0955
 528	1	3	-0.215479	16.5589	-35.7585	-28.633
 529	1	1	-0.2391	18.4348	-33.7625	-27.0917
 530	1	1	-0.027923	19.5418	-33.5469	-26.2643
 531	1	1	-0.180376	21.0657	-34.8057	-27.6949
 532	1	1	-0.054224	20.7946	-34.0621	-26.5364
 533	1	2	0.006282	19.7475	-33.5557	-24.766
 534	1	2	0.015188	21.1778	-34.1689	-25.0643
 535	1	3	0.034756	20.0751	-32.2167	-24.0656
 536	1	3	0.003059	20.5416	-32.6089	-22.6411
 537	1	3	0.042972	22.132	-33.1223	-24.4362
 538	1	3	0.004163	21.9604	-33.258	-22.8894
 539	1	3	-0.197219	21.403	-31.7922	-24.7346
 540	1	5	0.227416	18.6699	-39.2492	-38.1056
 541	1	5	0.230059	23.505	-38.4428	-37.3639
 542	1	6	0.034807	19.414	-39.574	-35.2246
 543	1	6	0.022109	21.9811	-39.2265	-34.7933
 544	1	6	0.043894	18.1265	-37.1909	-34.8287
 545	1	6	0.04727	18.9243	-39.1569	-33.1074
 546	1	6	0.039454	21.4668	-38.8757	-32.6179
 547	1	6	0.037752	22.3825	-36.6635	-33.9792
 548	1	6	0.046701	19.9656	-35.5315	-33.7946
 549	1	6	0.047659	20.342	-35.8451	-35.5044
 550	1	5	0.173906	17.0511	-36.6063	-31.6414
 551	1	5	0.156928	21.9705	-36.2976	-30.3585
 552	1	6	0.056509	16.4784	-33.074	-29.4204
 553	1	6	0.064596	16.3439	-34.0974	-30.8677
 554	1	6	0.065502	17.8146	-33.1424	-30.5877
 555	1	6	0.062922	15.8725	-36.1843	-29.3749
 556	1	6	0.049805	15.9692	-35.1492	-27.9375
 557	1	6	0.059229	17.0042	-36.587	-28.0676
 558	1	5	0.166497	17.4231	-33.5438	-26.7647
 559	1	5	0.141714	21.9844	-35.3705	-27.816
 560	1	6	0.041341	19.0367	-34.1656	-24.1972
 561	1	6	0.038019	21.3817	-35.1841	-24.7057
 562	1	6	0.012124	19.2791	-31.462	-24.0918
 563	1	6	0.001144	19.8526	-33.2528	-22.0785
 564	1	6	0.009013	23.1717	-33.1669	-24.784
 565	1	6	0.001345	22.0562	-34.2768	-22.4911
 566	1	6	0.041603	21.3019	-31.5813	-25.8072
 567	1	6	0.069352	21.8744	-30.9183	-24.2664
 568	1	1	-0.425718	25.2166	-38.1251	-55.4415
 569	1	1	0.123859	25.5994	-36.8195	-55.8211
 570	1	1	0.123846	26.5658	-36.0681	-55.078
 571	1	1	-0.442194	27.1553	-36.6305	-53.9127
 572	1	1	0.030377	26.838	-37.9655	-53.6419
 573	1	1	0.003389	25.9281	-38.6721	-54.3759
 574	1	2	0.006267	25.7835	-39.7737	-53.3519
 575	1	2	0.040808	26.8503	-38.9626	-52.4899
 576	1	3	0.010049	24.5003	-39.7445	-52.484
 577	1	2	-0.044998	24.9733	-40.7917	-51.4485
 578	1	2	-0.017344	26.0464	-40.0164	-50.5613
 579	1	3	0.004207	26.071	-38.5927	-51.1951
 580	1	3	-0.10977	24.6142	-38.4008	-51.7067
 581	1	1	-0.002799	24.1577	-40.9047	-50.1811
 582	1	1	-0.006419	25.0885	-40.2612	-49.4035
 583	1	1	-0.256521	22.8198	-41.059	-49.8091
 584	1	1	0.004841	22.5306	-40.6673	-48.4833
 585	1	4	0.00733	23.5108	-40.0812	-47.639
 586	1	1	-0.221146	24.8172	-39.7841	-48.1139
 587	1	3	0.21053	21.1676	-40.7375	-47.7908
 588	1	4	0.0182	22.8864	-39.8043	-46.3308
 589	1	1	0.000377	21.5212	-40.1823	-46.4068
 590	1	3	-0.237942	20.1299	-39.8396	-48.5002
 591	1	3	-0.215479	20.6602	-42.1956	-47.7108
 592	1	1	-0.2391	20.6972	-40.2171	-45.263
 593	1	1	-0.027923	21.2925	-39.7664	-44.0814
 594	1	1	-0.180376	23.4962	-39.4914	-45.0862
 595	1	1	-0.054224	22.6283	-39.432	-43.9844
 596	1	2	0.006282	21.1712	-40.146	-42.6245
 597	1	2	0.015188	22.7088	-39.7797	-42.4996
 598	1	3	0.034756	20.4867	-39.1426	-41.6714
 599	1	3	0.003059	20.8065	-39.6613	-40.2489
 600	1	3	0.042972	22.6984	-38.6513	-41.4338
 601	1	3	0.004163	22.3426	-39.3361	-40.0729
 602	1	3	-0.197219	21.3938	-37.8941	-41.772
 603	1	5	0.227416	24.4159	-38.6617	-55.9408
 604	1	5	0.230059	27.8114	-36.0593	-53.2631
 605	1	6	0.034807	26.0769	-40.7691	-53.706
 606	1	6	0.022109	27.8165	-39.4484	-52.3098
 607	1	6	0.043894	23.5504	-39.9456	-52.9949
 608	1	6	0.04727	25.2794	-41.7531	-51.8782
 609	1	6	0.039454	27.0336	-40.4811	-50.4531
 610	1	6	0.037752	26.4892	-37.7851	-50.5815
 611	1	6	0.046701	23.8848	-38.316	-50.8907
 612	1	6	0.047659	24.5033	-37.5227	-52.3562
 613	1	5	0.173906	22.0611	-41.4248	-50.4938
 614	1	5	0.156928	25.5349	-39.2102	-47.5367
 615	1	6	0.056509	19.9295	-40.1979	-49.5173
 616	1	6	0.064596	20.4968	-38.8076	-48.5693
 617	1	6	0.065502	19.1822	-39.8263	-47.948
 618	1	6	0.062922	21.3906	-42.8295	-47.1921
 619	1	6	0.049805	20.502	-42.6109	-48.7136
 620	1	6	0.059229	19.7102	-42.2541	-47.1662
 621	1	5	0.166497	19.7074	-40.6627	-45.2751
 622	1	5	0.141714	24.5736	-39.4183	-44.9781
 623	1	6	0.041341	20.8733	-41.1827	-42.4316
 624	1	6	0.038019	23.4053	-40.5858	-42.2433
 625	1	6	0.012124	19.4214	-38.9611	-41.8609
 626	1	6	0.001144	20.5506	-40.7121	-40.0586
 627	1	6	0.009013	23.5992	-38.0256	-41.405
 628	1	6	0.001345	22.9518	-40.2117	-39.8124
 629	1	6	0.041603	21.3999	-37.4396	-42.7712
 630	1	6	0.069352	21.1435	-37.1061	-41.0498
 631	1	1	-0.425718	36.3743	-28.4225	-61.1304
 632	1	1	0.123859	36.3377	-27.895	-59.8225
 633	1	1	0.123846	36.5147	-28.7257	-58.679
 634	1	1	-0.442194	36.7932	-30.1069	-58.8553
 635	1	1	0.030377	36.97	-30.5706	-60.165
 636	1	1	0.003389	36.7472	-29.7629	-61.2596
 637	1	2	0.006267	36.2591	-30.9026	-62.1355
 638	1	2	0.040808	36.5369	-31.836	-60.887