pySIMM System Object

959 atoms
1132 bonds
2340 angles
4428 dihedrals
90 impropers

6 atom types
11 bond types
24 angle types
21 dihedral types
1 improper types

-137.647570 137.647570 xlo xhi
-137.647570 137.647570 ylo yhi
-137.647570 137.647570 zlo zhi

Masses

   1	12.01	# ca
   2	12.01	# cy
   3	12.01	# c3
   4	12.01	# cp
   5	1.008	# ha
   6	1.008	# hc

Pair Coeffs

   1	0.086	3.3996695084235347	# ca
   2	0.086	3.3996695084235347	# cy
   3	0.1094	3.3996695084235347	# c3
   4	0.086	3.3996695084235347	# cp
   5	0.015	2.59964245953351	# ha
   6	0.0157	2.649532787749369	# hc

Bond Coeffs

   1	321.0	1.5156	# c3,ca
   2	285.0	1.5562	# cy,cy
   3	330.6	1.0969	# c3,hc
   4	333.3	1.0949	# cy,hc
   5	321.2	1.5154	# ca,cy
   6	461.1	1.3984	# ca,ca
   7	300.9	1.5375	# c3,c3
   8	305.9	1.5319	# c3,cy
   9	351.4	1.4854	# cp,cp
  10	345.8	1.086	# ca,ha
  11	450.2	1.4058	# ca,cp

Angle Coeffs

   1	62.73	112.39	# c3,c3,cy
   2	46.29	110.75	# cy,c3,hc
   3	44.83	114.79	# cy,cy,hc
   4	60.66	118.7	# c3,cy,cy
   5	66.72	118.38	# ca,cp,ca
   6	62.86	111.51	# c3,c3,c3
   7	46.43	110.14	# c3,cy,hc
   8	63.43	120.63	# c3,ca,cp
   9	63.56	112.24	# ca,c3,ca
  10	64.05	121.11	# ca,cp,cp
  11	66.62	120.02	# ca,ca,ca
  12	39.4	107.58	# hc,c3,hc
  13	47.98	119.86	# cp,ca,ha
  14	63.53	120.77	# c3,ca,ca
  15	63.51	120.86	# ca,ca,cy
  16	62.8	113.57	# c3,cy,ca
  17	67.9	96.03	# cy,c3,cy
  18	45.97	114.53	# ca,cy,hc
  19	61.4	116.81	# ca,cy,cy
  20	63.15	112.07	# c3,c3,ca
  21	66.26	120.69	# ca,ca,cp
  22	46.34	109.8	# c3,c3,hc
  23	48.18	119.88	# ca,ca,ha
  24	46.8	110.47	# ca,c3,hc

Dihedral Coeffs

   1	1	0.16	3	0.0	# cy,c3,cy,ca
   2	1	0.16	3	0.0	# c3,c3,cy,ca
   3	1	0.16	3	0.0	# hc,c3,cy,ca
   4	3	0.18	3	0.0	0.25	2	180.0	0.2	1	180.0	# cy,c3,cy,cy
   5	1	0.15	3	0	# hc,c3,c3,hc
   6	3	0.18	3	0.0	0.25	2	180.0	0.2	1	180.0	# c3,c3,cy,cy
   7	1	0.16	3	0.0	# hc,c3,cy,cy
   8	1	0.16	3	0.0	# cy,c3,cy,hc
   9	1	0.16	3	0.0	# c3,c3,cy,hc
  10	1	0.15	3	0.0	# hc,c3,cy,hc
  11	1	3.625	2	180	# X,ca,ca,X
  12	1	0.15555555555555556	3	0	# X,cy,cy,X
  13	1	3.625	2	180	# X,ca,cp,X
  14	3	0.18	3	0	0.25	2	180	0.2	1	180	# c3,c3,c3,c3
  15	1	0.15555555555555556	3	0	# X,c3,c3,X
  16	1	0.16	3	0	# hc,c3,c3,c3
  17	1	1.0	2	180	# X,cp,cp,X
  18	1	0.0	2	0.0	# ca,ca,cy,cy
  19	1	0.0	2	0.0	# ca,ca,cy,c3
  20	1	0.0	2	0	# X,c3,ca,X
  21	3	0.38	3	180.0	0.0	2	0.0	1.15	1	0.0	# ca,ca,cy,hc

Improper Coeffs

   1	1.1	-1	2	# ca,X,X,ha

Atoms

   1	1	1	-0.425718	39.1508	-15.251	-20.5198
   2	1	1	0.123859	37.8035	-14.9978	-20.2025
   3	1	1	0.123846	37.3904	-14.5784	-18.944
   4	1	1	-0.442194	38.2984	-14.3271	-17.8975
   5	1	1	0.030377	39.6007	-14.7937	-18.1526
   6	1	1	0.003389	40.0037	-15.2575	-19.4016
   7	1	2	0.006267	41.4491	-14.8493	-19.1941
   8	1	2	0.040808	40.9889	-14.2969	-17.7825
   9	1	3	0.010049	42.4489	-15.9841	-18.8409
  10	1	2	-0.044998	43.6267	-15.0648	-18.4266
  11	1	2	-0.017344	43.1776	-14.474	-17.0191
  12	1	3	0.004207	41.7968	-15.144	-16.7655
  13	1	3	-0.10977	41.9229	-16.5207	-17.4787
  14	1	1	-0.002799	44.7736	-15.7085	-17.6707
  15	1	1	-0.006419	44.3978	-15.1785	-16.4577
  16	1	1	-0.256521	45.5761	-16.8504	-17.7881
  17	1	1	0.004841	46.12	-17.3247	-16.572
  18	1	4	0.00733	45.7657	-16.751	-15.3244
  19	1	1	-0.221146	44.8195	-15.6998	-15.2296
  20	1	3	0.21053	47.0203	-18.5521	-16.3788
  21	1	4	0.0182	46.4252	-17.5159	-14.2554
  22	1	1	0.000377	47.1751	-18.5631	-14.852
  23	1	3	-0.237942	46.3196	-19.8387	-16.8698
  24	1	3	-0.215479	48.3793	-18.3682	-17.0898
  25	1	1	-0.2391	48.0277	-19.3954	-14.0894
  26	1	1	-0.027923	47.9881	-19.1647	-12.7089
  27	1	1	-0.180376	46.4965	-17.2402	-12.8658
  28	1	1	-0.054224	47.2677	-18.1477	-12.1311
  29	1	2	0.006282	48.8514	-19.3944	-11.4804
  30	1	2	0.015188	48.021	-18.2172	-10.8138
  31	1	3	0.034756	50.3054	-18.8627	-11.4296
  32	1	3	0.003059	50.5365	-17.6673	-12.3936
  33	1	3	0.042972	49.1154	-17.1742	-10.4751
  34	1	3	0.004163	49.7247	-16.5161	-11.743
  35	1	3	-0.197219	50.2746	-18.113	-10.082
  36	1	5	0.227416	39.5229	-15.2266	-21.539
  37	1	5	0.230059	38.0691	-13.6527	-17.0788
  38	1	6	0.034807	41.8307	-14.1361	-19.9343
  39	1	6	0.022109	41.0502	-13.2174	-17.6003
  40	1	6	0.043894	42.652	-16.727	-19.6223
  41	1	6	0.04727	43.9327	-14.3448	-19.195
  42	1	6	0.039454	43.183	-13.3828	-16.911
  43	1	6	0.037752	41.4325	-15.1531	-15.7307
  44	1	6	0.046701	42.6328	-17.1944	-16.9815
  45	1	6	0.047659	40.9621	-17.0437	-17.5696
  46	1	5	0.173906	45.7276	-17.3594	-18.7346
  47	1	5	0.156928	44.4151	-15.3615	-14.2812
  48	1	6	0.056509	46.9259	-20.7249	-16.6458
  49	1	6	0.064596	46.1481	-19.8053	-17.9525
  50	1	6	0.065502	45.3471	-19.9593	-16.3755
  51	1	6	0.062922	48.2427	-18.2708	-18.1738
  52	1	6	0.049805	49.0391	-19.2248	-16.9053
  53	1	6	0.059229	48.8848	-17.4639	-16.728
  54	1	5	0.166497	48.7008	-20.1173	-14.5413
  55	1	5	0.141714	46.0449	-16.3596	-12.4204
  56	1	6	0.041341	48.747	-20.3673	-10.9877
  57	1	6	0.038019	47.4365	-18.5069	-9.93361
  58	1	6	0.012124	51.0769	-19.6398	-11.5001
  59	1	6	0.001144	50.2198	-17.877	-13.4219
  60	1	6	0.009013	48.8321	-16.4526	-9.6985
  61	1	6	0.001345	48.967	-16.1016	-12.4179
  62	1	6	0.041603	50.0267	-18.7668	-9.23429
  63	1	6	0.069352	51.2093	-17.5759	-9.86698
  64	1	1	-0.425718	37.6155	-0.986391	-18.917
  65	1	1	0.123859	36.6455	-0.153441	-18.3289
  66	1	1	0.123846	35.8241	-0.552228	-17.2918
  67	1	1	-0.442194	35.8582	-1.83485	-16.7159
  68	1	1	0.030377	36.9773	-2.57456	-17.1435
  69	1	1	0.003389	37.8109	-2.17223	-18.1811
  70	1	2	0.006267	38.3128	-3.57855	-18.4548
  71	1	2	0.040808	37.3537	-4.03828	-17.2731
  72	1	3	0.010049	37.7465	-4.30991	-19.7013
  73	1	2	-0.044998	38.2602	-5.72782	-19.3305
  74	1	2	-0.017344	37.2869	-6.18453	-18.1494
  75	1	3	0.004207	36.3302	-4.97702	-17.9681
  76	1	3	-0.10977	36.2213	-4.39069	-19.405
  77	1	1	-0.002799	37.6836	-6.89707	-20.1047
  78	1	1	-0.006419	36.8451	-7.28362	-19.095
  79	1	1	-0.256521	37.7454	-7.52231	-21.354
  80	1	1	0.004841	36.8726	-8.63007	-21.4874
  81	1	4	0.00733	35.9856	-9.01803	-20.4467
  82	1	1	-0.221146	35.9346	-8.33729	-19.2013
  83	1	3	0.21053	36.7696	-9.58823	-22.682
  84	1	4	0.0182	35.2615	-10.2219	-20.8787
  85	1	1	0.000377	35.7163	-10.5831	-22.1716
  86	1	3	-0.237942	36.2843	-8.85695	-23.9523
  87	1	3	-0.215479	38.1228	-10.2899	-22.9429
  88	1	1	-0.2391	35.3753	-11.8266	-22.7524
  89	1	1	-0.027923	34.4927	-12.6199	-22.0047
  90	1	1	-0.180376	34.4422	-11.0822	-20.1093
  91	1	1	-0.054224	34.0462	-12.2626	-20.7489
  92	1	2	0.006282	34.2785	-14.1104	-21.7706
  93	1	2	0.015188	33.7814	-13.6948	-20.3212
  94	1	3	0.034756	35.4769	-15.0522	-21.468
  95	1	3	0.003059	36.6927	-14.251	-20.9191
  96	1	3	0.042972	34.7824	-14.4229	-19.385
  97	1	3	0.004163	36.2096	-13.7983	-19.4898
  98	1	3	-0.197219	34.9433	-15.7346	-20.1869
  99	1	5	0.227416	38.0819	-0.783504	-19.8757
 100	1	5	0.230059	35.063	-2.23904	-16.0977
 101	1	6	0.034807	39.3898	-3.71514	-18.3012
 102	1	6	0.022109	37.8302	-4.46685	-16.3834
 103	1	6	0.043894	38.0413	-3.91686	-20.6823
 104	1	6	0.04727	39.3402	-5.7855	-19.15
 105	1	6	0.039454	37.7479	-6.53941	-17.2198
 106	1	6	0.037752	35.3895	-5.16595	-17.436
 107	1	6	0.046701	35.6873	-5.05471	-20.097
 108	1	6	0.047659	35.732	-3.40925	-19.4265
 109	1	5	0.173906	38.4231	-7.2027	-22.1393
 110	1	5	0.156928	35.2671	-8.62409	-18.3953
 111	1	6	0.056509	36.1389	-9.56358	-24.7786
 112	1	6	0.064596	37.0125	-8.10118	-24.2712
 113	1	6	0.065502	35.3288	-8.35116	-23.7647
 114	1	6	0.062922	38.458	-10.8252	-22.0451
 115	1	6	0.049805	38.8975	-9.56195	-23.213
 116	1	6	0.059229	38.0401	-11.0162	-23.7603
 117	1	5	0.166497	35.8596	-12.196	-23.6509
 118	1	5	0.141714	34.2549	-10.9064	-19.0551
 119	1	6	0.041341	33.5199	-14.5942	-22.3956
 120	1	6	0.038019	32.7397	-13.9522	-20.0994
 121	1	6	0.012124	35.7328	-15.7462	-22.2783
 122	1	6	0.001144	37.0659	-13.4389	-21.5529
 123	1	6	0.009013	34.4313	-14.5597	-18.3545
 124	1	6	0.001345	36.2899	-12.7228	-19.2998
 125	1	6	0.041603	33.9869	-16.2513	-20.35
 126	1	6	0.069352	35.6467	-16.4467	-19.7355
 127	1	1	-0.425718	32.1771	12.0101	-10.8437
 128	1	1	0.123859	30.9605	12.2008	-10.1578
 129	1	1	0.123846	30.1884	11.1501	-9.68975
 130	1	1	-0.442194	30.5156	9.7963	-9.87783
 131	1	1	0.030377	31.5859	9.62235	-10.772
 132	1	1	0.003389	32.3835	10.6683	-11.2214
 133	1	2	0.006267	33.583	9.76881	-11.4839
 134	1	2	0.040808	32.6603	8.57783	-10.9816
 135	1	3	0.010049	33.887	9.40201	-12.9624
 136	1	2	-0.044998	34.8704	8.22916	-12.6755
 137	1	2	-0.017344	33.9146	7.05502	-12.1871
 138	1	3	0.004207	32.4973	7.67607	-12.2327
 139	1	3	-0.10977	32.587	8.67956	-13.4189
 140	1	1	-0.002799	35.2152	7.31157	-13.8363
 141	1	1	-0.006419	34.3687	6.30782	-13.4235
 142	1	1	-0.256521	35.6812	7.43409	-15.1516
 143	1	1	0.004841	35.3018	6.38223	-16.0177
 144	1	4	0.00733	34.3735	5.39009	-15.6127
 145	1	1	-0.221146	33.8327	5.36092	-14.3034
 146	1	3	0.21053	35.6811	6.21192	-17.4952
 147	1	4	0.0182	34.0362	4.56334	-16.7805
 148	1	1	0.000377	34.8095	5.00921	-17.8831
 149	1	3	-0.237942	35.3097	7.46139	-18.3243
 150	1	3	-0.215479	37.1848	5.88869	-17.6438
 151	1	1	-0.2391	34.8155	4.31081	-19.113
 152	1	1	-0.027923	33.9049	3.24913	-19.188
 153	1	1	-0.180376	33.1878	3.43061	-16.8658
 154	1	1	-0.054224	33.1159	2.84724	-18.136
 155	1	2	0.006282	33.7185	1.95554	-19.9628
 156	1	2	0.015188	32.7893	1.49811	-18.7541
 157	1	3	0.034756	34.8334	0.875429	-19.965
 158	1	3	0.003059	35.7586	1.01775	-18.7165
 159	1	3	0.042972	33.4841	0.212432	-18.2408
 160	1	3	0.004163	34.8216	0.559508	-17.5242
 161	1	3	-0.197219	33.9749	-0.355796	-19.5927
 162	1	5	0.227416	32.9366	12.7803	-10.9323
 163	1	5	0.230059	30.0966	8.99275	-9.28072
 164	1	6	0.034807	34.4771	10.0171	-10.9001
 165	1	6	0.022109	32.9519	8.03512	-10.0744
 166	1	6	0.043894	34.2548	10.2108	-13.6061
 167	1	6	0.04727	35.7127	8.49026	-12.024
 168	1	6	0.039454	34.168	6.56604	-11.2388
 169	1	6	0.037752	31.6508	6.97807	-12.2345
 170	1	6	0.046701	32.6949	8.1835	-14.3922
 171	1	6	0.047659	31.7217	9.35263	-13.4744
 172	1	5	0.173906	36.2542	8.29204	-15.4887
 173	1	5	0.156928	33.0266	4.69242	-14.0197
 174	1	6	0.056509	35.897	8.33223	-18.0085
 175	1	6	0.064596	34.2467	7.70374	-18.2001
 176	1	6	0.065502	35.4973	7.29185	-19.3915
 177	1	6	0.062922	37.4434	4.98783	-17.0727
 178	1	6	0.049805	37.8014	6.71547	-17.2701
 179	1	6	0.059229	37.4486	5.71303	-18.6937
 180	1	5	0.166497	35.5068	4.54448	-19.9167
 181	1	5	0.141714	32.6869	3.00973	-16.0
 182	1	6	0.041341	33.2109	2.03483	-20.9304
 183	1	6	0.038019	31.7401	1.32646	-19.0193
 184	1	6	0.012124	35.3781	0.778951	-20.9125
 185	1	6	0.001144	36.2335	1.99565	-18.5713
 186	1	6	0.009013	32.8363	-0.465161	-17.6707
 187	1	6	0.001345	34.7612	1.26751	-16.6897
 188	1	6	0.041603	33.1534	-0.529319	-20.302
 189	1	6	0.069352	34.5502	-1.28547	-19.4998
 190	1	1	-0.425718	32.135	12.352	4.43281
 191	1	1	0.123859	31.0464	12.1265	5.29638
 192	1	1	0.123846	30.0322	11.2261	5.03362
 193	1	1	-0.442194	29.9644	10.4458	3.86548
 194	1	1	0.030377	31.1587	10.5085	3.122
 195	1	1	0.003389	32.1894	11.4008	3.39413
 196	1	2	0.006267	32.7723	11.3083	1.99447
 197	1	2	0.040808	31.5815	10.3022	1.68037
 198	1	3	0.010049	32.5208	12.4976	1.03052
 199	1	2	-0.044998	32.9577	11.773	-0.273781
 200	1	2	-0.017344	31.741	10.7887	-0.582512
 201	1	3	0.004207	30.7548	11.0353	0.587938
 202	1	3	-0.10977	30.9695	12.5401	0.919269
 203	1	1	-0.002799	32.6028	12.4413	-1.58708
 204	1	1	-0.006419	31.5454	11.6076	-1.8446
 205	1	1	-0.256521	32.8599	13.6174	-2.29816
 206	1	1	0.004841	31.9774	13.8465	-3.38021
 207	1	4	0.00733	30.855	13.0096	-3.62303
 208	1	1	-0.221146	30.5781	11.8715	-2.82011
 209	1	3	0.21053	32.0395	14.9973	-4.39195
 210	1	4	0.0182	30.1048	13.5604	-4.76372
 211	1	1	0.000377	30.7991	14.7017	-5.24414
 212	1	3	-0.237942	31.9203	16.371	-3.69538
 213	1	3	-0.215479	33.3332	14.9255	-5.23417
 214	1	1	-0.2391	30.4183	15.3533	-6.43929
 215	1	1	-0.027923	29.2424	14.8668	-7.02095
 216	1	1	-0.180376	28.9659	13.0401	-5.43158
 217	1	1	-0.054224	28.5393	13.7903	-6.53481
 218	1	2	0.006282	28.5776	14.8264	-8.38421
 219	1	2	0.015188	27.7404	13.5979	-7.81522
 220	1	3	0.034756	29.3215	14.2055	-9.59718
 221	1	3	0.003059	30.4109	13.1846	-9.13613
 222	1	3	0.042972	28.0861	12.4538	-8.80003
 223	1	3	0.004163	29.5499	11.9754	-8.59252
 224	1	3	-0.197219	28.1974	13.2736	-10.1072
 225	1	5	0.227416	32.7948	13.2106	4.50557
 226	1	5	0.230059	29.0667	9.93573	3.53142
 227	1	6	0.034807	33.7898	10.9021	1.95212
 228	1	6	0.022109	31.8557	9.27101	1.4276
 229	1	6	0.043894	33.0271	13.4417	1.26698
 230	1	6	0.04727	33.9622	11.3348	-0.237702
 231	1	6	0.039454	31.9835	9.73339	-0.755965
 232	1	6	0.037752	29.7201	10.7014	0.441498
 233	1	6	0.046701	30.6181	13.207	0.121202
 234	1	6	0.047659	30.4841	12.8419	1.85579
 235	1	5	0.173906	33.6652	14.2969	-2.03756
 236	1	5	0.156928	29.6884	11.2633	-2.9455
 237	1	6	0.056509	32.7756	16.5525	-3.03331
 238	1	6	0.064596	31.0055	16.4182	-3.09091
 239	1	6	0.065502	31.8807	17.1811	-4.43383
 240	1	6	0.062922	33.3513	15.7135	-5.99663
 241	1	6	0.049805	33.4082	13.9566	-5.74432
 242	1	6	0.059229	34.2201	15.0445	-4.59982
 243	1	5	0.166497	31.0183	16.1314	-6.90063
 244	1	5	0.141714	28.5042	12.099	-5.15091
 245	1	6	0.041341	27.9809	15.702	-8.66263
 246	1	6	0.038019	26.6609	13.7708	-7.7434
 247	1	6	0.012124	29.679	14.9321	-10.3375
 248	1	6	0.001144	31.164	13.5594	-8.43226
 249	1	6	0.009013	27.3527	11.6384	-8.83528
 250	1	6	0.001345	29.8171	11.6393	-7.58365
 251	1	6	0.041603	27.272	13.8171	-10.3447
 252	1	6	0.069352	28.4789	12.6768	-10.9849
 253	1	1	-0.425718	27.909	4.55267	16.8543
 254	1	1	0.123859	26.6853	4.04107	17.3282
 255	1	1	0.123846	25.5639	3.89972	16.5322
 256	1	1	-0.442194	25.529	4.21313	15.1611
 257	1	1	0.030377	26.8137	4.47193	14.6463
 258	1	1	0.003389	27.9345	4.65055	15.4485
 259	1	2	0.006267	28.6857	5.44839	14.3953
 260	1	2	0.040808	27.4082	5.22871	13.4743
 261	1	3	0.010049	28.7531	6.99293	14.5696
 262	1	2	-0.044998	29.2699	7.32269	13.1422
 263	1	2	-0.017344	27.9957	7.07722	12.2135
 264	1	3	0.004207	26.8825	6.66326	13.2121
 265	1	3	-0.10977	27.2608	7.42655	14.514
 266	1	1	-0.002799	29.1831	8.76757	12.6779
 267	1	1	-0.006419	28.0935	8.54911	11.877
 268	1	1	-0.256521	29.9317	9.95032	12.6639
 269	1	1	0.004841	29.4383	10.9423	11.7795
 270	1	4	0.00733	28.3133	10.708	10.9428
 271	1	1	-0.221146	27.6155	9.47265	10.9456
 272	1	3	0.21053	30.0683	12.3101	11.4767
 273	1	4	0.0182	28.1581	11.8544	10.0358
 274	1	1	0.000377	29.1865	12.7903	10.3141
 275	1	3	-0.237942	29.9485	13.2579	12.6901
 276	1	3	-0.215479	31.5459	12.1678	11.0442
 277	1	1	-0.2391	29.4251	13.8983	9.46779
 278	1	1	-0.027923	28.5117	14.0517	8.41577
 279	1	1	-0.180376	27.3167	11.9826	8.90238
 280	1	1	-0.054224	27.507	13.1481	8.15145
 281	1	2	0.006282	28.5036	14.6317	7.00965
 282	1	2	0.015188	27.3417	13.5895	6.70688
 283	1	3	0.034756	29.6	14.2352	5.98444
 284	1	3	0.003059	30.2504	12.8676	6.35639
 285	1	3	0.042972	27.9275	12.7368	5.55134
 286	1	3	0.004163	29.0904	11.8313	6.05657
 287	1	3	-0.197219	28.6899	13.8488	4.79463
 288	1	5	0.227416	28.6983	4.92036	17.5019
 289	1	5	0.230059	24.6118	4.33927	14.5948
 290	1	6	0.034807	29.6232	4.99091	14.058
 291	1	6	0.022109	27.5451	4.62537	12.569
 292	1	6	0.043894	29.3482	7.37071	15.4103
 293	1	6	0.04727	30.2056	6.81462	12.8798
 294	1	6	0.039454	28.1007	6.40599	11.3526
 295	1	6	0.037752	25.8459	6.75602	12.8651
 296	1	6	0.046701	27.1365	8.51344	14.4228
 297	1	6	0.047659	26.6885	7.08823	15.3865
 298	1	5	0.173906	30.8436	10.0738	13.2397
 299	1	5	0.156928	26.8189	9.24299	10.2457
 300	1	6	0.056509	30.5235	12.8775	13.5433
 301	1	6	0.064596	28.9007	13.3534	13.0022
 302	1	6	0.065502	30.3211	14.2595	12.4427
 303	1	6	0.062922	31.6308	11.5018	10.1762
 304	1	6	0.049805	32.1546	11.7499	11.8552
 305	1	6	0.059229	31.9714	13.1406	10.7698
 306	1	5	0.166497	30.3024	14.5296	9.56818
 307	1	5	0.141714	26.6494	11.1887	8.58329
 308	1	6	0.041341	28.2115	15.6838	6.91965
 309	1	6	0.038019	26.3773	14.0381	6.44394
 310	1	6	0.012124	30.327	15.0257	5.76011
 311	1	6	0.001144	30.6841	12.7896	7.36015
 312	1	6	0.009013	27.1814	12.2054	4.94739
 313	1	6	0.001345	28.8582	11.1522	6.88495
 314	1	6	0.041603	28.0332	14.6715	4.47846
 315	1	6	0.069352	29.2382	13.4899	3.91405
 316	1	1	-0.425718	17.2742	-6.64685	22.6572
 317	1	1	0.123859	15.8779	-6.74805	22.4789
 318	1	1	0.123846	15.1835	-5.94465	21.5866
 319	1	1	-0.442194	15.7962	-4.97385	20.7797
 320	1	1	0.030377	17.1297	-4.72623	21.1375
 321	1	1	0.003389	17.8397	-5.50821	22.044
 322	1	2	0.006267	19.1857	-5.18943	21.4023
 323	1	2	0.040808	18.3612	-4.32508	20.3598
 324	1	3	0.010049	20.092	-4.13539	22.107
 325	1	2	-0.044998	21.0861	-3.90702	20.9308
 326	1	2	-0.017344	20.2293	-3.07279	19.877
 327	1	3	0.004207	18.861	-2.87804	20.5751
 328	1	3	-0.10977	19.223	-2.8458	22.0882
 329	1	1	-0.002799	21.9886	-2.68087	20.9827
 330	1	1	-0.006419	21.2433	-1.97247	20.0739
 331	1	1	-0.256521	22.9633	-2.09426	21.8016
 332	1	1	0.004841	23.1961	-0.719294	21.5458
 333	1	4	0.00733	22.3934	0.0137187	20.6331
 334	1	1	-0.221146	21.3437	-0.590971	19.9
 335	1	3	0.21053	24.2275	0.198165	22.2213
 336	1	4	0.0182	22.8127	1.42029	20.66
 337	1	1	0.000377	23.9123	1.54463	21.5483
 338	1	3	-0.237942	23.9906	0.276072	23.7459
 339	1	3	-0.215479	25.6695	-0.267739	21.9205
 340	1	1	-0.2391	24.6315	2.7591	21.6686
 341	1	1	-0.027923	24.0876	3.83183	20.9485
 342	1	1	-0.180376	22.3382	2.50929	19.8863
 343	1	1	-0.054224	22.9893	3.72132	20.1321
 344	1	2	0.006282	24.4853	5.19774	20.4084
 345	1	2	0.015188	23.2044	5.0691	19.4698
 346	1	3	0.034756	25.642	5.34164	19.3828
 347	1	3	0.003059	25.8924	4.00379	18.625
 348	1	3	0.042972	23.7982	5.14954	18.0423
 349	1	3	0.004163	24.6087	3.86104	17.7083
 350	1	3	-0.197219	24.9155	6.18503	18.3091
 351	1	5	0.227416	17.8726	-7.45568	23.0642
 352	1	5	0.230059	15.3508	-4.60472	19.8615
 353	1	6	0.034807	19.7351	-6.06338	21.0333
 354	1	6	0.022109	18.3511	-4.64032	19.3095
 355	1	6	0.043894	20.5268	-4.42369	23.0721
 356	1	6	0.04727	21.5697	-4.82101	20.5663
 357	1	6	0.039454	20.1731	-3.46289	18.8535
 358	1	6	0.037752	18.2209	-2.07074	20.198
 359	1	6	0.046701	19.787	-1.948	22.3729
 360	1	6	0.047659	18.3422	-2.91745	22.7395
 361	1	5	0.173906	23.4847	-2.64573	22.5776
 362	1	5	0.156928	20.6615	-0.0268168	19.2726
 363	1	6	0.056509	24.6709	0.999664	24.2116
 364	1	6	0.064596	24.1513	-0.699965	24.2196
 365	1	6	0.065502	22.9614	0.591955	23.9594
 366	1	6	0.062922	26.404	0.424074	22.3501
 367	1	6	0.049805	25.8414	-0.319032	20.8379
 368	1	6	0.059229	25.8532	-1.26416	22.3409
 369	1	5	0.166497	25.5479	2.84563	22.2439
 370	1	5	0.141714	21.5679	2.40034	19.1298
 371	1	6	0.041341	24.454	6.03027	21.1198
 372	1	6	0.038019	22.4293	5.82425	19.6415
 373	1	6	0.012124	26.5547	5.80268	19.7806
 374	1	6	0.001144	26.1027	3.12576	19.2483
 375	1	6	0.009013	23.084	5.4417	17.2623
 376	1	6	0.001345	24.0767	2.90744	17.8082
 377	1	6	0.041603	24.5281	7.13345	18.7071
 378	1	6	0.069352	25.531	6.40884	17.4286
 379	1	1	-0.425718	16.5092	-12.009	9.82546
 380	1	1	0.123859	16.0161	-11.3258	8.69289
 381	1	1	0.123846	15.6126	-10.003	8.72321
 382	1	1	-0.442194	15.6062	-9.21469	9.88515
 383	1	1	0.030377	16.3016	-9.82684	10.9406
 384	1	1	0.003389	16.7529	-11.1408	10.9127
 385	1	2	0.006267	16.8596	-11.2321	12.4313
 386	1	2	0.040808	16.2922	-9.74735	12.4501
 387	1	3	0.010049	15.7899	-12.0459	13.206
 388	1	2	-0.044998	16.1061	-11.4738	14.6229
 389	1	2	-0.017344	15.4593	-10.0249	14.5883
 390	1	3	0.004207	14.9096	-9.88783	13.1507
 391	1	3	-0.10977	14.4636	-11.3381	12.8112
 392	1	1	-0.002799	15.1154	-11.7747	15.7333
 393	1	1	-0.006419	14.5118	-10.5357	15.6586
 394	1	1	-0.256521	15.1789	-12.4962	16.9341
 395	1	1	0.004841	14.4212	-11.9722	18.0076
 396	1	4	0.00733	13.6983	-10.7594	17.8845
 397	1	1	-0.221146	13.8104	-9.95686	16.7225
 398	1	3	0.21053	14.4539	-12.443	19.4697
 399	1	4	0.0182	13.1753	-10.3886	19.209
 400	1	1	0.000377	13.6747	-11.3147	20.1597
 401	1	3	-0.237942	13.7259	-13.7947	19.634
 402	1	3	-0.215479	15.9024	-12.5382	20.0032
 403	1	1	-0.2391	13.5681	-11.0718	21.5495
 404	1	1	-0.027923	12.7917	-9.9575	21.8902
 405	1	1	-0.180376	12.4354	-9.24119	19.594
 406	1	1	-0.054224	12.1978	-9.12752	20.9694
 407	1	2	0.006282	12.6276	-8.98097	23.0431
 408	1	2	0.015188	11.8931	-8.04154	21.9891
 409	1	3	0.034756	13.8212	-8.09556	23.5082
 410	1	3	0.003059	14.8745	-7.89384	22.3695
 411	1	3	0.042972	12.7283	-6.74218	22.025
 412	1	3	0.004163	14.1047	-6.9716	21.3461
 413	1	3	-0.197219	13.1038	-6.72558	23.5253
 414	1	5	0.227416	16.5923	-13.0895	9.88513
 415	1	5	0.230059	15.0359	-8.29704	9.98667
 416	1	6	0.034807	17.8808	-11.3749	12.8036
 417	1	6	0.022109	16.9428	-8.97071	12.8698
 418	1	6	0.043894	15.8225	-13.1366	13.0917
 419	1	6	0.04727	17.1589	-11.5681	14.9147
 420	1	6	0.039454	16.0725	-9.17284	14.9057
 421	1	6	0.037752	14.179	-9.08835	12.9756
 422	1	6	0.046701	13.6079	-11.6739	13.4112
 423	1	6	0.047659	14.2121	-11.4673	11.7518
 424	1	5	0.173906	15.8598	-13.3314	17.0642
 425	1	5	0.156928	13.4886	-8.92074	16.7067
 426	1	6	0.056509	12.6936	-13.7232	19.2679
 427	1	6	0.064596	13.6913	-14.0951	20.6884
 428	1	6	0.065502	14.2331	-14.5844	19.0665
 429	1	6	0.062922	16.4216	-11.5792	19.8807
 430	1	6	0.049805	16.4714	-13.3054	19.4644
 431	1	6	0.059229	15.9133	-12.7976	21.0687
 432	1	5	0.166497	14.088	-11.6685	22.2924
 433	1	5	0.141714	12.1419	-8.47254	18.8864
 434	1	6	0.041341	12.0023	-9.31283	23.8793
 435	1	6	0.038019	10.8332	-7.85741	22.197
 436	1	6	0.012124	14.2604	-8.38741	24.4703
 437	1	6	0.001144	15.2878	-8.80907	21.9272
 438	1	6	0.009013	12.2024	-5.84485	21.6756
 439	1	6	0.001345	14.0907	-7.33743	20.3135
 440	1	6	0.041603	12.2219	-6.71744	24.1814
 441	1	6	0.069352	13.7529	-5.88773	23.8125
 442	1	1	-0.425718	8.39561	-6.89882	-4.25865
 443	1	1	0.123859	7.34818	-6.00307	-3.95419
 444	1	1	0.123846	7.45484	-4.98614	-3.02089
 445	1	1	-0.442194	8.60605	-4.72686	-2.2585
 446	1	1	0.030377	9.57124	-5.73177	-2.43545
 447	1	1	0.003389	9.47973	-6.75218	-3.36912
 448	1	2	0.006267	10.959	-7.10827	-3.27243
 449	1	2	0.040808	11.0484	-5.93692	-2.19671
 450	1	3	0.010049	11.3361	-8.379	-2.45794
 451	1	2	-0.044998	12.8603	-8.08354	-2.3048
 452	1	2	-0.017344	12.8978	-6.9194	-1.22543
 453	1	3	0.004207	11.4132	-6.66298	-0.878631
 454	1	3	-0.10977	10.7641	-8.06815	-1.04431
 455	1	1	-0.002799	13.6337	-8.90199	-1.27899
 456	1	1	-0.006419	13.6274	-7.89833	-0.332533
 457	1	1	-0.256521	13.7754	-10.2602	-0.956686
 458	1	1	0.004841	13.9989	-10.5372	0.413045
 459	1	4	0.00733	13.8693	-9.52125	1.39006
 460	1	1	-0.221146	13.6284	-8.17133	1.03977
 461	1	3	0.21053	14.1863	-11.912	1.07567
 462	1	4	0.0182	13.8351	-10.1519	2.71607
 463	1	1	0.000377	14.0519	-11.5456	2.56303
 464	1	3	-0.237942	13.0885	-12.9085	0.636347
 465	1	3	-0.215479	15.5875	-12.4836	0.769916
 466	1	1	-0.2391	13.9578	-12.4384	3.65978
 467	1	1	-0.027923	13.6898	-11.8355	4.89745
 468	1	1	-0.180376	13.3903	-9.60182	3.94309
 469	1	1	-0.054224	13.3556	-10.5061	5.00655
 470	1	2	0.006282	13.0304	-12.2121	6.21689
 471	1	2	0.015188	12.6049	-10.6828	6.31147
 472	1	3	0.034756	13.8868	-12.4008	7.50337
 473	1	3	0.003059	15.2438	-11.6321	7.41137
 474	1	3	0.042972	13.2465	-10.2096	7.63047
 475	1	3	0.004163	14.7881	-10.1167	7.46424
 476	1	3	-0.197219	13.0744	-11.501	8.46317
 477	1	5	0.227416	8.40424	-7.54973	-5.12723
 478	1	5	0.230059	8.7667	-3.81854	-1.68662
 479	1	6	0.034807	11.5224	-7.00021	-4.20651
 480	1	6	0.022109	11.6756	-5.06598	-2.4216
 481	1	6	0.043894	11.0612	-9.34579	-2.89773
 482	1	6	0.04727	13.3849	-7.90291	-3.25041
 483	1	6	0.039454	13.4694	-6.01848	-1.47946
 484	1	6	0.037752	11.2084	-6.12607	0.0559845
 485	1	6	0.046701	11.0951	-8.78651	-0.283515
 486	1	6	0.047659	9.66714	-8.0364	-1.02388
 487	1	5	0.173906	13.6571	-11.0449	-1.69704
 488	1	5	0.156928	13.382	-7.41632	1.77903
 489	1	6	0.056509	13.1875	-13.8625	1.16833
 490	1	6	0.064596	13.1513	-13.1141	-0.439025
 491	1	6	0.065502	12.0915	-12.5019	0.848226
 492	1	6	0.062922	16.3678	-11.7789	1.08466
 493	1	6	0.049805	15.7097	-12.6671	-0.304762
 494	1	6	0.059229	15.7495	-13.4292	1.30153
 495	1	5	0.166497	13.9987	-13.5163	3.53767
 496	1	5	0.141714	13.0131	-8.5877	4.0254
 497	1	6	0.041341	12.2151	-12.9417	6.15982
 498	1	6	0.038019	11.5294	-10.4759	6.28253
 499	1	6	0.012124	13.9896	-13.4407	7.83792
 500	1	6	0.001144	15.8787	-11.8804	6.55105
 501	1	6	0.009013	12.7891	-9.31536	8.07206
 502	1	6	0.001345	15.1563	-9.4952	6.63786
 503	1	6	0.041603	12.0239	-11.8128	8.54853
 504	1	6	0.069352	13.4963	-11.4356	9.47358
 505	1	1	-0.425718	-9.00084	0.405496	-1.53687
 506	1	1	0.123859	-9.5415	0.909378	-0.347651
 507	1	1	0.123846	-8.82534	1.5252	0.659487
 508	1	1	-0.442194	-7.41706	1.66532	0.628448
 509	1	1	0.030377	-6.88466	1.29535	-0.63164
 510	1	1	0.003389	-7.64462	0.738003	-1.64947
 511	1	2	0.006267	-6.45589	0.28315	-2.44825
 512	1	2	0.040808	-5.55598	0.924732	-1.30074
 513	1	3	0.010049	-6.14432	-1.23278	-2.38772
 514	1	2	-0.044998	-4.78169	-1.13501	-3.10126
 515	1	2	-0.017344	-3.81503	-0.48576	-2.02005
 516	1	3	0.004207	-4.74411	-0.297171	-0.774204
 517	1	3	-0.10977	-5.75633	-1.47002	-0.900294
 518	1	1	-0.002799	-3.89009	-2.35231	-3.03371
 519	1	1	-0.006419	-3.01593	-1.7803	-2.13528
 520	1	1	-0.256521	-3.55418	-3.39503	-3.90281
 521	1	1	0.004841	-2.24223	-3.89478	-3.75972
 522	1	4	0.00733	-1.30494	-3.26215	-2.90394
 523	1	1	-0.221146	-1.66087	-2.14316	-2.10174
 524	1	3	0.21053	-1.57553	-4.97365	-4.62417
 525	1	4	0.0182	0.0290612	-3.81423	-3.20496
 526	1	1	0.000377	-0.108518	-4.80826	-4.21129
 527	1	3	-0.237942	-2.09818	-6.37975	-4.25751
 528	1	3	-0.215479	-1.77625	-4.70115	-6.13379
 529	1	1	-0.2391	1.01403	-5.40229	-4.83643
 530	1	1	-0.027923	2.25258	-4.99863	-4.32671
 531	1	1	-0.180376	1.30427	-3.33906	-2.80396
 532	1	1	-0.054224	2.38764	-4.01402	-3.37709
 533	1	2	0.006282	3.69411	-4.89691	-4.79771
 534	1	2	0.015188	3.84427	-3.74995	-3.70655
 535	1	3	0.034756	4.71325	-5.96526	-4.32131
 536	1	3	0.003059	6.12818	-5.38755	-4.62611
 537	1	3	0.042972	4.92601	-4.3145	-2.76056
 538	1	3	0.004163	6.26029	-4.22562	-3.55176
 539	1	3	-0.197219	4.63445	-5.83438	-2.78181
 540	1	5	0.227416	-9.54485	-0.210809	-2.24545
 541	1	5	0.230059	-6.81719	1.96985	1.48025
 542	1	6	0.034807	-6.38777	0.73083	-3.44709
 543	1	6	0.022109	-4.93144	1.78007	-1.5839
 544	1	6	0.043894	-6.8863	-1.91193	-2.82582
 545	1	6	0.04727	-4.83313	-0.679663	-4.09773
 546	1	6	0.039454	-3.26127	0.41977	-2.2947
 547	1	6	0.037752	-4.24943	-0.176687	0.197654
 548	1	6	0.046701	-5.29261	-2.45055	-0.731439
 549	1	6	0.047659	-6.60969	-1.3699	-0.216734
 550	1	5	0.173906	-4.22193	-3.72856	-4.69071
 551	1	5	0.156928	-0.918575	-1.55211	-1.57555
 552	1	6	0.056509	-1.57539	-7.15449	-4.8319
 553	1	6	0.064596	-3.17227	-6.4641	-4.46348
 554	1	6	0.065502	-1.94011	-6.58357	-3.19077
 555	1	6	0.062922	-1.41896	-3.6973	-6.39581
 556	1	6	0.049805	-2.83552	-4.76923	-6.40973
 557	1	6	0.059229	-1.22462	-5.42828	-6.74175
 558	1	5	0.166497	0.926262	-6.05871	-5.69653
 559	1	5	0.141714	1.42894	-2.46651	-2.17117
 560	1	6	0.041341	3.83122	-4.6232	-5.84974
 561	1	6	0.038019	4.07483	-2.73753	-4.05661
 562	1	6	0.012124	4.54535	-6.97892	-4.70636
 563	1	6	0.001144	6.29455	-5.05721	-5.65986
 564	1	6	0.009013	4.95892	-3.86327	-1.76101
 565	1	6	0.001345	6.49872	-3.24378	-3.98152
 566	1	6	0.041603	3.65055	-6.0963	-2.37161
 567	1	6	0.069352	5.38272	-6.43545	-2.24892
 568	1	1	-0.425718	-22.6571	-1.44172	10.8571
 569	1	1	0.123859	-23.309	-0.548506	11.7355
 570	1	1	0.123846	-22.6338	0.582227	12.2786
 571	1	1	-0.442194	-21.2885	0.837748	11.8951
 572	1	1	0.030377	-20.6327	-0.121975	11.1105
 573	1	1	0.003389	-21.296	-1.22488	10.6225
 574	1	2	0.006267	-20.4285	-1.32961	9.38693
 575	1	2	0.040808	-19.6607	-0.0552225	9.93295
 576	1	3	0.010049	-19.3459	-2.43958	9.37073
 577	1	2	-0.044998	-18.6058	-1.91868	8.11569
 578	1	2	-0.017344	-17.814	-0.641246	8.61272
 579	1	3	0.004207	-18.1974	-0.561298	10.1253
 580	1	3	-0.10977	-18.3913	-2.04774	10.5317
 581	1	1	-0.002799	-17.2547	-2.52214	7.80895
 582	1	1	-0.006419	-16.549	-1.39814	8.20315
 583	1	1	-0.256521	-16.8371	-3.36358	6.77584
 584	1	1	0.004841	-15.5924	-3.0593	6.19076
 585	1	4	0.00733	-14.8486	-1.91215	6.5695
 586	1	1	-0.221146	-15.3611	-1.01365	7.54821
 587	1	3	0.21053	-15.0389	-3.69531	4.91403
 588	1	4	0.0182	-13.7977	-1.69056	5.5421
 589	1	1	0.000377	-13.9896	-2.65607	4.52036
 590	1	3	-0.237942	-14.3659	-5.04973	5.22691
 591	1	3	-0.215479	-16.1241	-3.87295	3.82391
 592	1	1	-0.2391	-13.4535	-2.46967	3.2308
 593	1	1	-0.027923	-12.5616	-1.40546	3.10854
 594	1	1	-0.180376	-12.9052	-0.594356	5.35645
 595	1	1	-0.054224	-12.1871	-0.573761	4.14363
 596	1	2	0.006282	-12.2586	-0.386143	2.0336
 597	1	2	0.015188	-11.6832	0.518468	3.19923
 598	1	3	0.034756	-11.0595	-0.617853	1.11273
 599	1	3	0.003059	-10.7928	0.772551	0.46877
 600	1	3	0.042972	-10.1601	0.584529	2.82403
 601	1	3	0.004163	-10.0274	1.56229	1.61569
 602	1	3	-0.197219	-9.90347	-0.772031	2.12867
 603	1	5	0.227416	-23.2129	-2.19773	10.3114
 604	1	5	0.230059	-20.8139	1.78821	12.1199
 605	1	6	0.034807	-20.9855	-1.23868	8.44668
 606	1	6	0.022109	-19.7225	0.873402	9.35344
 607	1	6	0.043894	-19.699	-3.47807	9.34291
 608	1	6	0.04727	-19.2509	-1.82015	7.23408
 609	1	6	0.039454	-17.9676	0.302485	8.07599
 610	1	6	0.037752	-17.5466	0.0445748	10.768
 611	1	6	0.046701	-17.4522	-2.61632	10.5207
 612	1	6	0.047659	-18.8556	-2.1613	11.52
 613	1	5	0.173906	-17.5031	-4.10739	6.35116
 614	1	5	0.156928	-14.9457	-0.0184583	7.66887
 615	1	6	0.056509	-15.0992	-5.77652	5.59718
 616	1	6	0.064596	-13.5925	-4.92723	5.99631
 617	1	6	0.065502	-13.8876	-5.46556	4.33151
 618	1	6	0.062922	-15.6906	-4.26649	2.89691
 619	1	6	0.049805	-16.6066	-2.91401	3.59693
 620	1	6	0.059229	-16.8979	-4.57867	4.14779
 621	1	5	0.166497	-13.7839	-3.04223	2.37051
 622	1	5	0.141714	-12.8643	0.232258	6.05829
 623	1	6	0.041341	-13.1348	-0.0168282	1.48879
 624	1	6	0.038019	-12.1242	1.51179	3.33816
 625	1	6	0.012124	-11.1673	-1.44345	0.398087
 626	1	6	0.001144	-11.6671	1.29667	0.0603434
 627	1	6	0.009013	-9.47951	0.807357	3.65525
 628	1	6	0.001345	-10.4295	2.56928	1.78805
 629	1	6	0.041603	-10.018	-1.6315	2.8014
 630	1	6	0.069352	-8.91428	-0.85101	1.65869
 631	1	1	-0.425718	-37.2473	6.21129	15.099
 632	1	1	0.123859	-37.8643	6.69727	13.9209
 633	1	1	0.123846	-37.9096	5.9298	12.7084
 634	1	1	-0.442194	-37.2352	4.67764	12.643
 635	1	1	0.030377	-36.6498	4.23387	13.8322
 636	1	1	0.003389	-36.7075	4.93144	14.9999
 637	1	2	0.006267	-35.8977	3.91972	15.784