pySIMM System Object

1674 atoms
1968 bonds
4056 angles
7640 dihedrals
156 impropers

6 atom types
11 bond types
24 angle types
21 dihedral types
1 improper types

-166.995925 166.995925 xlo xhi
-166.995925 166.995925 ylo yhi
-166.995925 166.995925 zlo zhi

Masses

   1	12.01	# ca
   2	12.01	# cy
   3	12.01	# c3
   4	12.01	# cp
   5	1.008	# ha
   6	1.008	# hc

Pair Coeffs

   1	0.086	3.3996695084235347	# ca
   2	0.086	3.3996695084235347	# cy
   3	0.1094	3.3996695084235347	# c3
   4	0.086	3.3996695084235347	# cp
   5	0.015	2.59964245953351	# ha
   6	0.0157	2.649532787749369	# hc

Bond Coeffs

   1	321.0	1.5156	# c3,ca
   2	285.0	1.5562	# cy,cy
   3	330.6	1.0969	# c3,hc
   4	333.3	1.0949	# cy,hc
   5	321.2	1.5154	# ca,cy
   6	461.1	1.3984	# ca,ca
   7	300.9	1.5375	# c3,c3
   8	305.9	1.5319	# c3,cy
   9	351.4	1.4854	# cp,cp
  10	345.8	1.086	# ca,ha
  11	450.2	1.4058	# ca,cp

Angle Coeffs

   1	62.73	112.39	# c3,c3,cy
   2	46.29	110.75	# cy,c3,hc
   3	44.83	114.79	# cy,cy,hc
   4	60.66	118.7	# c3,cy,cy
   5	66.72	118.38	# ca,cp,ca
   6	62.86	111.51	# c3,c3,c3
   7	46.43	110.14	# c3,cy,hc
   8	63.43	120.63	# c3,ca,cp
   9	63.56	112.24	# ca,c3,ca
  10	64.05	121.11	# ca,cp,cp
  11	66.62	120.02	# ca,ca,ca
  12	39.4	107.58	# hc,c3,hc
  13	47.98	119.86	# cp,ca,ha
  14	63.53	120.77	# c3,ca,ca
  15	63.51	120.86	# ca,ca,cy
  16	62.8	113.57	# c3,cy,ca
  17	67.9	96.03	# cy,c3,cy
  18	45.97	114.53	# ca,cy,hc
  19	61.4	116.81	# ca,cy,cy
  20	63.15	112.07	# c3,c3,ca
  21	66.26	120.69	# ca,ca,cp
  22	46.34	109.8	# c3,c3,hc
  23	48.18	119.88	# ca,ca,ha
  24	46.8	110.47	# ca,c3,hc

Dihedral Coeffs

   1	1	0.16	3	0.0	# cy,c3,cy,ca
   2	1	0.16	3	0.0	# c3,c3,cy,ca
   3	1	0.16	3	0.0	# hc,c3,cy,ca
   4	3	0.18	3	0.0	0.25	2	180.0	0.2	1	180.0	# cy,c3,cy,cy
   5	1	0.15	3	0	# hc,c3,c3,hc
   6	3	0.18	3	0.0	0.25	2	180.0	0.2	1	180.0	# c3,c3,cy,cy
   7	1	0.16	3	0.0	# hc,c3,cy,cy
   8	1	0.16	3	0.0	# cy,c3,cy,hc
   9	1	0.16	3	0.0	# c3,c3,cy,hc
  10	1	0.15	3	0.0	# hc,c3,cy,hc
  11	1	3.625	2	180	# X,ca,ca,X
  12	1	0.15555555555555556	3	0	# X,cy,cy,X
  13	1	3.625	2	180	# X,ca,cp,X
  14	3	0.18	3	0	0.25	2	180	0.2	1	180	# c3,c3,c3,c3
  15	1	0.15555555555555556	3	0	# X,c3,c3,X
  16	1	0.16	3	0	# hc,c3,c3,c3
  17	1	1.0	2	180	# X,cp,cp,X
  18	1	0.0	2	0.0	# ca,ca,cy,cy
  19	1	0.0	2	0.0	# ca,ca,cy,c3
  20	1	0.0	2	0	# X,c3,ca,X
  21	3	0.38	3	180.0	0.0	2	0.0	1.15	1	0.0	# ca,ca,cy,hc

Improper Coeffs

   1	1.1	-1	2	# ca,X,X,ha

Atoms

   1	1	1	-0.425718	-67.4322	-4.2239	-9.22357
   2	1	1	0.123859	-66.4464	-4.68923	-10.1121
   3	1	1	0.123846	-66.3954	-5.9734	-10.615
   4	1	1	-0.442194	-67.3161	-6.98603	-10.2849
   5	1	1	0.030377	-68.4009	-6.47125	-9.54676
   6	1	1	0.003389	-68.4581	-5.17348	-9.05681
   7	1	2	0.006267	-69.5671	-5.48337	-8.07152
   8	1	2	0.040808	-69.501	-6.97424	-8.62852
   9	1	3	0.010049	-69.1707	-5.62311	-6.57822
  10	1	2	-0.044998	-70.5052	-6.25267	-6.09821
  11	1	2	-0.017344	-70.4416	-7.74826	-6.65001
  12	1	3	0.004207	-69.0773	-7.81121	-7.39053
  13	1	3	-0.10977	-68.1848	-6.82689	-6.58092
  14	1	1	-0.002799	-70.5186	-6.87914	-4.71854
  15	1	1	-0.006419	-70.4657	-8.16471	-5.19131
  16	1	1	-0.256521	-70.3146	-6.53353	-3.37869
  17	1	1	0.004841	-70.1554	-7.63974	-2.51054
  18	1	4	0.00733	-70.105	-8.9735	-2.99733
  19	1	1	-0.221146	-70.2077	-9.27465	-4.38107
  20	1	3	0.21053	-69.9665	-7.59907	-0.988496
  21	1	4	0.0182	-69.8897	-9.87566	-1.85561
  22	1	1	0.000377	-69.8183	-9.09348	-0.673081
  23	1	3	-0.237942	-68.6914	-6.81894	-0.599032
  24	1	3	-0.215479	-71.2066	-6.99518	-0.29155
  25	1	1	-0.2391	-69.7586	-9.68812	0.608806
  26	1	1	-0.027923	-69.6673	-11.0853	0.603195
  27	1	1	-0.180376	-69.9063	-11.2932	-1.81577
  28	1	1	-0.054224	-69.7348	-11.8439	-0.540695
  29	1	2	0.006282	-69.9702	-12.2549	1.52384
  30	1	2	0.015188	-70.0477	-13.1309	0.202921
  31	1	3	0.034756	-71.3829	-12.4296	2.13563
  32	1	3	0.003059	-72.4869	-11.7273	1.29867
  33	1	3	0.042972	-71.4933	-13.6865	0.242062
  34	1	3	0.004163	-72.5625	-12.5848	0.00779473
  35	1	3	-0.197219	-71.6625	-13.8993	1.76036
  36	1	5	0.227416	-67.3769	-3.2797	-8.69146
  37	1	5	0.230059	-67.1769	-8.03641	-10.5196
  38	1	6	0.034807	-70.4967	-4.92822	-8.24414
  39	1	6	0.022109	-70.3906	-7.35179	-9.14643
  40	1	6	0.043894	-68.8399	-4.71096	-6.06609
  41	1	6	0.04727	-71.3989	-5.66581	-6.34174
  42	1	6	0.039454	-71.2953	-8.101	-7.24102
  43	1	6	0.037752	-68.665	-8.80904	-7.58524
  44	1	6	0.046701	-67.9562	-7.19199	-5.57117
  45	1	6	0.047659	-67.2371	-6.59913	-7.08605
  46	1	5	0.173906	-70.2737	-5.50373	-3.03825
  47	1	5	0.156928	-70.0838	-10.2769	-4.77786
  48	1	6	0.056509	-68.5198	-6.86557	0.483422
  49	1	6	0.064596	-68.7723	-5.76401	-0.88788
  50	1	6	0.065502	-67.8124	-7.24287	-1.10086
  51	1	6	0.062922	-71.3566	-5.95189	-0.594953
  52	1	6	0.049805	-71.0974	-7.02043	0.79951
  53	1	6	0.059229	-72.1101	-7.55903	-0.556379
  54	1	5	0.166497	-69.8404	-9.11306	1.52595
  55	1	5	0.141714	-70.1069	-11.8999	-2.69288
  56	1	6	0.041341	-69.1763	-12.5435	2.22143
  57	1	6	0.038019	-69.2982	-13.927	0.13442
  58	1	6	0.012124	-71.4433	-12.2155	3.21015
  59	1	6	0.001144	-72.2655	-10.674	1.09195
  60	1	6	0.009013	-71.651	-14.5878	-0.36354
  61	1	6	0.001345	-72.3827	-11.9968	-0.899442
  62	1	6	0.041603	-70.9234	-14.596	2.17962
  63	1	6	0.069352	-72.6735	-14.2295	2.03826
  64	1	1	-0.425718	-63.2612	-2.89185	-23.7332
  65	1	1	0.123859	-62.152	-3.36441	-24.4531
  66	1	1	0.123846	-61.6148	-4.62781	-24.3013
  67	1	1	-0.442194	-62.1085	-5.57371	-23.3813
  68	1	1	0.030377	-63.3484	-5.1847	-22.832
  69	1	1	0.003389	-63.896	-3.91818	-23.0103
  70	1	2	0.006267	-64.753	-4.00214	-21.7669
  71	1	2	0.040808	-64.1371	-5.45208	-21.5575
  72	1	3	0.010049	-64.2627	-3.20193	-20.5326
  73	1	2	-0.044998	-65.2321	-3.84619	-19.5127
  74	1	2	-0.017344	-64.6419	-5.30932	-19.2835
  75	1	3	0.004207	-63.3852	-5.3402	-20.2017
  76	1	3	-0.10977	-62.8965	-3.86326	-20.1903
  77	1	1	-0.002799	-64.935	-3.60997	-18.048
  78	1	1	-0.006419	-64.4453	-4.87492	-17.8407
  79	1	1	-0.256521	-64.7161	-2.54326	-17.1709
  80	1	1	0.004841	-64.0854	-2.90392	-15.9581
  81	1	4	0.00733	-63.6302	-4.22621	-15.7133
  82	1	1	-0.221146	-63.7361	-5.24839	-16.6936
  83	1	3	0.21053	-63.7566	-1.97792	-14.7822
  84	1	4	0.0182	-63.0414	-4.27007	-14.3648
  85	1	1	0.000377	-63.1139	-2.96944	-13.8038
  86	1	3	-0.237942	-62.7552	-0.877128	-15.1958
  87	1	3	-0.215479	-65.0422	-1.3516	-14.195
  88	1	1	-0.2391	-62.8188	-2.73133	-12.4434
  89	1	1	-0.027923	-62.3844	-3.84896	-11.7197
  90	1	1	-0.180376	-62.7011	-5.39941	-13.5783
  91	1	1	-0.054224	-62.3351	-5.11905	-12.2547
  92	1	2	0.006282	-62.5093	-4.34337	-10.2889
  93	1	2	0.015188	-62.4489	-5.80762	-10.9014
  94	1	3	0.034756	-63.8847	-4.31867	-9.57114
  95	1	3	0.003059	-65.0573	-4.33039	-10.5999
  96	1	3	0.042972	-63.7924	-6.43386	-10.4355
  97	1	3	0.004163	-65.0003	-5.80183	-11.1893
  98	1	3	-0.197219	-63.9027	-5.77158	-9.04195
  99	1	5	0.227416	-63.5286	-1.84271	-23.6596
 100	1	5	0.230059	-61.5499	-6.44614	-23.0581
 101	1	6	0.034807	-65.8318	-3.94051	-21.9527
 102	1	6	0.022109	-64.831	-6.29882	-21.6174
 103	1	6	0.043894	-64.2806	-2.10778	-20.6111
 104	1	6	0.04727	-66.2929	-3.77046	-19.7804
 105	1	6	0.039454	-65.3276	-6.15337	-19.4235
 106	1	6	0.037752	-62.6345	-6.11116	-19.9881
 107	1	6	0.046701	-62.5035	-3.55188	-19.2138
 108	1	6	0.047659	-62.1276	-3.6645	-20.9465
 109	1	5	0.173906	-64.9956	-1.52202	-17.4097
 110	1	5	0.156928	-63.2904	-6.23017	-16.5713
 111	1	6	0.056509	-62.4598	-0.27187	-14.33
 112	1	6	0.064596	-63.1938	-0.209731	-15.9477
 113	1	6	0.065502	-61.8484	-1.32268	-15.6242
 114	1	6	0.062922	-65.7443	-2.13532	-13.883
 115	1	6	0.049805	-65.5456	-0.721004	-14.938
 116	1	6	0.059229	-64.8152	-0.72997	-13.3206
 117	1	5	0.166497	-63.0336	-1.78218	-11.9624
 118	1	5	0.141714	-62.8429	-6.41374	-13.9372
 119	1	6	0.041341	-61.6836	-4.09163	-9.61422
 120	1	6	0.038019	-61.5841	-6.40182	-10.586
 121	1	6	0.012124	-63.9839	-3.55085	-8.79369
 122	1	6	0.001144	-65.0614	-3.53428	-11.3522
 123	1	6	0.009013	-63.8064	-7.53081	-10.4178
 124	1	6	0.001345	-64.9749	-5.8547	-12.2836
 125	1	6	0.041603	-63.0419	-5.99777	-8.39713
 126	1	6	0.069352	-64.819	-6.03394	-8.49623
 127	1	1	-0.425718	-55.9701	-4.77287	-37.1279
 128	1	1	0.123859	-54.5649	-4.75878	-37.183
 129	1	1	0.123846	-53.7676	-5.51936	-36.3502
 130	1	1	-0.442194	-54.271	-6.41428	-35.3888
 131	1	1	0.030377	-55.6591	-6.61955	-35.5209
 132	1	1	0.003389	-56.4653	-5.82703	-36.3345
 133	1	2	0.006267	-57.7099	-6.06443	-35.4995
 134	1	2	0.040808	-56.797	-6.98463	-34.5831
 135	1	3	0.010049	-58.1453	-4.91554	-34.5494
 136	1	2	-0.044998	-59.173	-5.73138	-33.7218
 137	1	2	-0.017344	-58.2757	-6.67232	-32.812
 138	1	3	0.004207	-56.822	-6.28347	-33.2
 139	1	3	-0.10977	-56.9411	-4.77816	-33.5734
 140	1	1	-0.002799	-59.6486	-5.10379	-32.4248
 141	1	1	-0.006419	-58.8797	-5.93414	-31.6321
 142	1	1	-0.256521	-60.0075	-3.80661	-32.0335
 143	1	1	0.004841	-59.6709	-3.45497	-30.708
 144	1	4	0.00733	-58.908	-4.31761	-29.8844
 145	1	1	-0.221146	-58.4227	-5.55866	-30.3623
 146	1	3	0.21053	-59.8944	-2.09795	-30.0296
 147	1	4	0.0182	-58.5958	-3.61245	-28.6321
 148	1	1	0.000377	-59.158	-2.31305	-28.7017
 149	1	3	-0.237942	-59.2556	-0.946372	-30.8377
 150	1	3	-0.215479	-61.4002	-1.83543	-29.804
 151	1	1	-0.2391	-59.1471	-1.44065	-27.5916
 152	1	1	-0.027923	-58.4708	-1.92281	-26.4641
 153	1	1	-0.180376	-58.017	-4.11311	-27.4383
 154	1	1	-0.054224	-57.9415	-3.19256	-26.385
 155	1	2	0.006282	-58.5763	-1.76138	-24.9599
 156	1	2	0.015188	-57.9543	-3.22098	-24.8622
 157	1	3	0.034756	-59.9512	-1.9195	-24.2635
 158	1	3	0.003059	-60.9147	-2.80157	-25.1188
 159	1	3	0.042972	-59.0437	-4.01089	-24.0848
 160	1	3	0.004163	-60.3012	-4.25402	-24.97
 161	1	3	-0.197219	-59.5312	-2.89077	-23.1364
 162	1	5	0.227416	-56.5928	-3.99013	-37.5488
 163	1	5	0.230059	-53.679	-6.80502	-34.5674
 164	1	6	0.034807	-58.5353	-6.55295	-36.0306
 165	1	6	0.022109	-57.0408	-8.05312	-34.5511
 166	1	6	0.043894	-58.5086	-3.99378	-35.0206
 167	1	6	0.04727	-59.9582	-6.21168	-34.3176
 168	1	6	0.039454	-58.4855	-7.74807	-32.8445
 169	1	6	0.037752	-56.0296	-6.55732	-32.4925
 170	1	6	0.046701	-57.1574	-4.13758	-32.7092
 171	1	6	0.047659	-56.0412	-4.39071	-34.0618
 172	1	5	0.173906	-60.4395	-3.09393	-32.7287
 173	1	5	0.156928	-57.6777	-6.13324	-29.8215
 174	1	6	0.056509	-59.7475	-0.826869	-31.8105
 175	1	6	0.064596	-58.1912	-1.14545	-31.016
 176	1	6	0.065502	-59.3369	0.00324844	-30.2948
 177	1	6	0.062922	-61.848	-2.64544	-29.214
 178	1	6	0.049805	-61.9345	-1.77684	-30.7603
 179	1	6	0.059229	-61.5603	-0.893792	-29.2652
 180	1	5	0.166497	-59.7064	-0.510364	-27.5775
 181	1	5	0.141714	-57.7482	-5.15789	-27.3192
 182	1	6	0.041341	-57.9678	-0.968959	-24.5101
 183	1	6	0.038019	-56.9766	-3.27138	-24.3705
 184	1	6	0.012124	-60.3996	-0.981675	-23.9126
 185	1	6	0.001144	-61.0927	-2.48125	-26.1512
 186	1	6	0.009013	-58.6817	-4.91132	-23.573
 187	1	6	0.001345	-60.1334	-4.77644	-25.919
 188	1	6	0.041603	-58.7245	-2.4878	-22.508
 189	1	6	0.069352	-60.3579	-3.19273	-22.4816
 190	1	1	-0.425718	-41.8028	-5.74465	-43.5528
 191	1	1	0.123859	-40.7599	-5.05754	-42.9023
 192	1	1	0.123846	-40.6094	-5.06191	-41.5295
 193	1	1	-0.442194	-41.3855	-5.83791	-40.6529
 194	1	1	0.030377	-42.216	-6.74874	-41.3343
 195	1	1	0.003389	-42.4534	-6.66488	-42.7045
 196	1	2	0.006267	-43.8513	-7.25723	-42.5982
 197	1	2	0.040808	-43.556	-7.3929	-41.0448
 198	1	3	0.010049	-45.0538	-6.2676	-42.6499
 199	1	2	-0.044998	-46.1503	-7.25277	-42.1562
 200	1	2	-0.017344	-45.8279	-7.43257	-40.6127
 201	1	3	0.004207	-44.6174	-6.4946	-40.3696
 202	1	3	-0.10977	-44.8258	-5.35622	-41.4095
 203	1	1	-0.002799	-47.4713	-6.6518	-41.6951
 204	1	1	-0.006419	-47.1868	-6.82413	-40.3544
 205	1	1	-0.256521	-48.3317	-5.6455	-42.1617
 206	1	1	0.004841	-48.9998	-4.90275	-41.1604
 207	1	4	0.00733	-48.6848	-5.06884	-39.7909
 208	1	1	-0.221146	-47.7123	-5.99758	-39.3564
 209	1	3	0.21053	-49.9856	-3.74074	-41.3565
 210	1	4	0.0182	-49.3932	-4.04404	-39.0164
 211	1	1	0.000377	-50.1751	-3.26797	-39.9072
 212	1	3	-0.237942	-49.3765	-2.62067	-42.2289
 213	1	3	-0.215479	-51.3148	-4.2414	-41.9642
 214	1	1	-0.2391	-51.0995	-2.30903	-39.4317
 215	1	1	-0.027923	-51.0896	-2.11264	-38.0433
 216	1	1	-0.180376	-49.4738	-3.88771	-37.6118
 217	1	1	-0.054224	-50.3113	-2.85381	-37.1815
 218	1	2	0.006282	-52.072	-1.69307	-36.9601
 219	1	2	0.015188	-51.1737	-2.55383	-35.97
 220	1	3	0.034756	-53.4608	-2.37573	-36.8454
 221	1	3	0.003059	-53.4543	-3.78008	-37.5205
 222	1	3	0.042972	-52.1616	-3.6227	-35.4352
 223	1	3	0.004163	-52.546	-4.64283	-36.5523
 224	1	3	-0.197219	-53.4282	-2.74144	-35.3439
 225	1	5	0.227416	-42.1446	-5.50181	-44.5537
 226	1	5	0.230059	-41.4329	-5.66389	-39.5828
 227	1	6	0.034807	-44.0058	-8.18752	-43.1571
 228	1	6	0.022109	-43.4949	-8.4079	-40.6344
 229	1	6	0.043894	-45.2383	-5.76227	-43.6061
 230	1	6	0.04727	-46.2404	-8.16593	-42.7562
 231	1	6	0.039454	-45.7007	-8.45644	-40.2411
 232	1	6	0.037752	-44.423	-6.19222	-39.3331
 233	1	6	0.046701	-45.6881	-4.71759	-41.1801
 234	1	6	0.047659	-43.9479	-4.71005	-41.5122
 235	1	5	0.173906	-48.4231	-5.40796	-43.2168
 236	1	5	0.156928	-47.3379	-6.00893	-38.338
 237	1	6	0.056509	-49.1942	-2.97242	-43.2516
 238	1	6	0.064596	-48.4206	-2.28253	-41.809
 239	1	6	0.065502	-50.0496	-1.75604	-42.2795
 240	1	6	0.062922	-52.0394	-3.4233	-42.0553
 241	1	6	0.049805	-51.7591	-5.02044	-41.3314
 242	1	6	0.059229	-51.1521	-4.66685	-42.962
 243	1	5	0.166497	-51.8207	-1.82305	-40.0813
 244	1	5	0.141714	-49.0029	-4.58108	-36.9224
 245	1	6	0.041341	-52.114	-0.622744	-36.73
 246	1	6	0.038019	-50.6994	-1.98348	-35.1635
 247	1	6	0.012124	-54.309	-1.74533	-37.1402
 248	1	6	0.001144	-53.1551	-3.81209	-38.5746
 249	1	6	0.009013	-51.8646	-4.09071	-34.4883
 250	1	6	0.001345	-51.7191	-5.16618	-37.0451
 251	1	6	0.041603	-53.2892	-1.8641	-34.6964
 252	1	6	0.069352	-54.3177	-3.28178	-35.0024
 253	1	1	-0.425718	-27.5611	-4.7162	-37.5211
 254	1	1	0.123859	-27.0481	-3.84016	-36.5448
 255	1	1	0.123846	-27.8429	-3.1982	-35.6149
 256	1	1	-0.442194	-29.2244	-3.41422	-35.4757
 257	1	1	0.030377	-29.6708	-4.49481	-36.26
 258	1	1	0.003389	-28.8968	-5.0803	-37.2562
 259	1	2	0.006267	-30.1014	-5.56388	-38.0495
 260	1	2	0.040808	-30.9791	-4.92222	-36.8899
 261	1	3	0.010049	-30.5151	-4.74841	-39.3114
 262	1	2	-0.044998	-31.9142	-5.3958	-39.5128
 263	1	2	-0.017344	-32.7815	-4.78332	-38.3198
 264	1	3	0.004207	-31.8039	-3.82198	-37.5983
 265	1	3	-0.10977	-30.8572	-3.3438	-38.7368
 266	1	1	-0.002799	-32.9029	-4.69046	-40.431
 267	1	1	-0.006419	-33.6414	-4.17571	-39.4007
 268	1	1	-0.256521	-33.1653	-4.42631	-41.7819
 269	1	1	0.004841	-34.2979	-3.59959	-42.0006
 270	1	4	0.00733	-35.0458	-3.05569	-40.9226
 271	1	1	-0.221146	-34.7259	-3.31614	-39.5667
 272	1	3	0.21053	-34.921	-3.19738	-43.3477
 273	1	4	0.0182	-36.1748	-2.29691	-41.4689
 274	1	1	0.000377	-36.1427	-2.38609	-42.8823
 275	1	3	-0.237942	-33.9544	-2.32184	-44.174
 276	1	3	-0.215479	-35.3484	-4.44487	-44.1543
 277	1	1	-0.2391	-37.2351	-1.94991	-43.6713
 278	1	1	-0.027923	-38.2853	-1.34166	-42.9645
 279	1	1	-0.180376	-37.2883	-1.76951	-40.7765
 280	1	1	-0.054224	-38.3035	-1.2574	-41.5879
 281	1	2	0.006282	-39.803	-1.22243	-43.0943
 282	1	2	0.015188	-39.8113	-1.17676	-41.5069
 283	1	3	0.034756	-40.697	-2.4552	-43.4066
 284	1	3	0.003059	-39.9555	-3.77943	-43.0802
 285	1	3	0.042972	-40.6184	-2.44343	-41.1224
 286	1	3	0.004163	-39.8455	-3.75365	-41.5018
 287	1	3	-0.197219	-41.6937	-2.35595	-42.229
 288	1	5	0.227416	-27.0241	-4.99342	-38.4225
 289	1	5	0.230059	-29.8827	-2.76024	-34.9131
 290	1	6	0.034807	-30.1637	-6.65127	-38.1742
 291	1	6	0.022109	-31.5728	-5.60959	-36.2754
 292	1	6	0.043894	-29.8293	-4.77851	-40.1672
 293	1	6	0.04727	-31.8927	-6.4874	-39.6129
 294	1	6	0.039454	-33.3063	-5.48388	-37.6591
 295	1	6	0.037752	-32.2484	-3.04758	-36.9608
 296	1	6	0.046701	-31.3609	-2.69585	-39.4659
 297	1	6	0.047659	-29.9742	-2.81292	-38.3605
 298	1	5	0.173906	-32.5693	-4.84032	-42.589
 299	1	5	0.156928	-35.2866	-2.90518	-38.7337
 300	1	6	0.056509	-33.0547	-2.88475	-44.451
 301	1	6	0.064596	-33.6417	-1.44285	-43.5962
 302	1	6	0.065502	-34.4366	-1.96946	-45.0941
 303	1	6	0.062922	-36.0495	-5.0574	-43.573
 304	1	6	0.049805	-34.4803	-5.06707	-44.4041
 305	1	6	0.059229	-35.8422	-4.15929	-45.0909
 306	1	5	0.166497	-37.3067	-2.1703	-44.7318
 307	1	5	0.141714	-37.4059	-1.88003	-39.7035
 308	1	6	0.041341	-40.1738	-0.313225	-43.5802
 309	1	6	0.038019	-40.2304	-0.26269	-41.0715
 310	1	6	0.012124	-41.1667	-2.44419	-44.3981
 311	1	6	0.001144	-39.0038	-3.94001	-43.5995
 312	1	6	0.009013	-41.017	-2.44105	-40.1001
 313	1	6	0.001345	-38.8282	-3.86108	-41.1107
 314	1	6	0.041603	-42.241	-1.40274	-42.2167
 315	1	6	0.069352	-42.4258	-3.1705	-42.1995
 316	1	1	-0.425718	-20.1728	-0.872446	-23.7034
 317	1	1	0.123859	-20.1017	0.30026	-22.9271
 318	1	1	0.123846	-20.9295	1.39495	-23.101
 319	1	1	-0.442194	-21.9911	1.42162	-24.0244
 320	1	1	0.030377	-21.9454	0.329271	-24.9107
 321	1	1	0.003389	-21.0622	-0.735727	-24.787
 322	1	2	0.006267	-21.8887	-1.65456	-25.6687
 323	1	2	0.040808	-22.9206	-0.449144	-25.774
 324	1	3	0.010049	-21.3981	-1.84388	-27.1351
 325	1	2	-0.044998	-22.6773	-2.53396	-27.678
 326	1	2	-0.017344	-23.7461	-1.35434	-27.7399
 327	1	3	0.004207	-22.946	-0.10357	-27.2823
 328	1	3	-0.10977	-21.491	-0.412843	-27.7387
 329	1	1	-0.002799	-22.8522	-2.61864	-29.1873
 330	1	1	-0.006419	-23.7921	-1.61787	-29.2285
 331	1	1	-0.256521	-22.1461	-3.05299	-30.3187
 332	1	1	0.004841	-22.5803	-2.48459	-31.5421
 333	1	4	0.00733	-23.5657	-1.46551	-31.5775
 334	1	1	-0.221146	-24.1572	-0.949	-30.3988
 335	1	3	0.21053	-22.0467	-2.77405	-32.9548
 336	1	4	0.0182	-23.7545	-1.04257	-32.9699
 337	1	1	0.000377	-22.8867	-1.799	-33.7964
 338	1	3	-0.237942	-20.5412	-2.44773	-33.0668
 339	1	3	-0.215479	-22.3155	-4.24138	-33.358
 340	1	1	-0.2391	-22.9692	-1.73478	-35.2087
 341	1	1	-0.027923	-23.8949	-0.807709	-35.7127
 342	1	1	-0.180376	-24.7564	-0.201482	-33.5085
 343	1	1	-0.054224	-24.7444	-0.0878545	-34.9016
 344	1	2	0.006282	-24.7683	-0.63937	-36.9532
 345	1	2	0.015188	-25.7618	0.151102	-35.9969
 346	1	3	0.034756	-25.6518	-1.80001	-37.4865
 347	1	3	0.003059	-25.8995	-2.86022	-36.3797
 348	1	3	0.042972	-27.0506	-0.709766	-36.0437
 349	1	3	0.004163	-26.8338	-2.0979	-35.3532
 350	1	3	-0.197219	-27.0185	-1.07765	-37.5449
 351	1	5	0.227416	-19.6961	-1.80719	-23.4262
 352	1	5	0.230059	-22.8144	2.12693	-23.9739
 353	1	6	0.034807	-22.2162	-2.58276	-25.1858
 354	1	6	0.022109	-23.9165	-0.575242	-25.3326
 355	1	6	0.043894	-20.4509	-2.37946	-27.2758
 356	1	6	0.04727	-22.9669	-3.43928	-27.1314
 357	1	6	0.039454	-24.6958	-1.51042	-27.2143
 358	1	6	0.037752	-23.3555	0.876288	-27.5577
 359	1	6	0.046701	-21.376	-0.401413	-28.8304
 360	1	6	0.047659	-20.753	0.278143	-27.3111
 361	1	5	0.173906	-21.3167	-3.75039	-30.257
 362	1	5	0.156928	-24.8137	-0.0850553	-30.4003
 363	1	6	0.056509	-20.1889	-2.5769	-34.0976
 364	1	6	0.064596	-19.9477	-3.10215	-32.4169
 365	1	6	0.065502	-20.3496	-1.40869	-32.7702
 366	1	6	0.062922	-21.9839	-4.43469	-34.3853
 367	1	6	0.049805	-23.3878	-4.4677	-33.2986
 368	1	6	0.059229	-21.7851	-4.93346	-32.6926
 369	1	5	0.166497	-22.4248	-2.4174	-35.8538
 370	1	5	0.141714	-25.5402	0.232046	-32.8959
 371	1	6	0.041341	-24.3413	-0.0407222	-37.7653
 372	1	6	0.038019	-25.9431	1.19448	-36.278
 373	1	6	0.012124	-25.324	-2.22668	-38.4428
 374	1	6	0.001144	-25.0065	-3.31317	-35.9335
 375	1	6	0.009013	-27.962	-0.190209	-35.7226
 376	1	6	0.001345	-26.4657	-2.08425	-34.3212
 377	1	6	0.041603	-27.0018	-0.194061	-38.1984
 378	1	6	0.069352	-27.8493	-1.72129	-37.8603
 379	1	1	-0.425718	-25.1884	4.09386	-9.33806
 380	1	1	0.123859	-24.7008	5.29926	-8.80077
 381	1	1	0.123846	-24.6478	6.48613	-9.5083
 382	1	1	-0.442194	-25.0857	6.61054	-10.8415
 383	1	1	0.030377	-25.8003	5.47696	-11.2821
 384	1	1	0.003389	-25.8438	4.28312	-10.5696
 385	1	2	0.006267	-26.1352	3.44086	-11.7982
 386	1	2	0.040808	-26.097	4.80412	-12.613
 387	1	3	0.010049	-24.958	2.61799	-12.3913
 388	1	2	-0.044998	-25.641	2.25089	-13.7362
 389	1	2	-0.017344	-25.6219	3.61323	-14.5555
 390	1	3	0.004207	-24.9142	4.61377	-13.5995
 391	1	3	-0.10977	-23.93	3.70995	-12.8036
 392	1	1	-0.002799	-24.7512	1.69916	-14.8369
 393	1	1	-0.006419	-24.7436	2.87809	-15.55
 394	1	1	-0.256521	-23.7386	0.735257	-14.9456
 395	1	1	0.004841	-22.7774	0.981026	-15.954
 396	1	4	0.00733	-22.7763	2.19059	-16.6923
 397	1	1	-0.221146	-23.7266	3.21338	-16.4508
 398	1	3	0.21053	-21.5408	0.131236	-16.2876
 399	1	4	0.0182	-21.5666	2.22632	-17.5258
 400	1	1	0.000377	-20.8248	1.03629	-17.3011
 401	1	3	-0.237942	-20.6637	-0.106741	-15.0377
 402	1	3	-0.215479	-21.9496	-1.2141	-16.9269
 403	1	1	-0.2391	-19.6179	0.765599	-17.9934
 404	1	1	-0.027923	-19.1918	1.79845	-18.8388
 405	1	1	-0.180376	-21.1536	3.2053	-18.464
 406	1	1	-0.054224	-19.92	2.93863	-19.0623
 407	1	2	0.006282	-18.2021	2.07816	-19.9631
 408	1	2	0.015188	-19.0745	3.38451	-20.2358
 409	1	3	0.034756	-18.2827	1.32085	-21.3144
 410	1	3	0.003059	-19.6947	0.708146	-21.5212
 411	1	3	0.042972	-19.5893	3.1633	-21.6792
 412	1	3	0.004163	-20.6104	1.98148	-21.7392
 413	1	3	-0.197219	-18.3135	2.52901	-22.2809
 414	1	5	0.227416	-24.9794	3.11912	-8.9092
 415	1	5	0.230059	-24.8049	7.43486	-11.4891
 416	1	6	0.034807	-27.0919	2.90598	-11.7697
 417	1	6	0.022109	-27.0319	5.12442	-13.0881
 418	1	6	0.043894	-24.5803	1.78566	-11.7846
 419	1	6	0.04727	-26.6085	1.74579	-13.6309
 420	1	6	0.039454	-26.5784	3.96683	-14.9586
 421	1	6	0.037752	-24.4974	5.52179	-14.0525
 422	1	6	0.046701	-23.1133	3.31749	-13.4231
 423	1	6	0.047659	-23.4873	4.22168	-11.9421
 424	1	5	0.173906	-23.6638	-0.104916	-14.2626
 425	1	5	0.156928	-23.6309	4.20722	-16.8756
 426	1	6	0.056509	-20.3896	0.848225	-14.5716
 427	1	6	0.064596	-19.7386	-0.632755	-15.3035
 428	1	6	0.065502	-21.1961	-0.70922	-14.2919
 429	1	6	0.062922	-22.5636	-1.045	-17.8207
 430	1	6	0.049805	-22.5338	-1.82024	-16.2235
 431	1	6	0.059229	-21.0665	-1.79182	-17.2257
 432	1	5	0.166497	-19.0758	-0.169286	-17.8907
 433	1	5	0.141714	-21.7541	4.07416	-18.7131
 434	1	6	0.041341	-17.1675	2.27115	-19.659
 435	1	6	0.038019	-18.5397	4.33392	-20.1215
 436	1	6	0.012124	-17.4623	0.615372	-21.4966
 437	1	6	0.001144	-20.0465	0.0241886	-20.7385
 438	1	6	0.009013	-19.9299	4.07269	-22.1899
 439	1	6	0.001345	-21.4749	2.04435	-21.0665
 440	1	6	0.041603	-17.4302	3.17495	-22.1771
 441	1	6	0.069352	-18.4119	2.25239	-23.339
 442	1	1	-0.425718	-21.9296	15.3368	2.40671
 443	1	1	0.123859	-20.9102	16.2926	2.55145
 444	1	1	0.123846	-20.3483	16.9856	1.4901
 445	1	1	-0.442194	-20.735	16.7794	0.148534
 446	1	1	0.030377	-21.5673	15.6512	-0.0109779
 447	1	1	0.003389	-22.1435	14.987	1.06414
 448	1	2	0.006267	-23.2951	14.4422	0.248665
 449	1	2	0.040808	-22.6322	15.1784	-0.993556
 450	1	3	0.010049	-23.2189	12.9392	-0.111082
 451	1	2	-0.044998	-24.3495	12.9537	-1.17174
 452	1	2	-0.017344	-23.6888	13.6605	-2.43128
 453	1	3	0.004207	-22.2507	14.0059	-1.94508
 454	1	3	-0.10977	-21.9215	12.8433	-0.964928
 455	1	1	-0.002799	-24.463	11.7213	-2.04201
 456	1	1	-0.006419	-23.8926	12.3283	-3.14162
 457	1	1	-0.256521	-24.4058	10.3407	-1.81822
 458	1	1	0.004841	-23.87	9.57717	-2.87733
 459	1	4	0.00733	-23.3225	10.1907	-4.0319
 460	1	1	-0.221146	-23.2435	11.6028	-4.15123
 461	1	3	0.21053	-23.6196	8.06411	-2.87632
 462	1	4	0.0182	-22.7008	9.14202	-4.85934
 463	1	1	0.000377	-22.8399	7.89914	-4.18524
 464	1	3	-0.237942	-22.7672	7.6307	-1.66201
 465	1	3	-0.215479	-24.9512	7.28213	-2.91221
 466	1	1	-0.2391	-22.3551	6.6891	-4.73426
 467	1	1	-0.027923	-21.6795	6.8358	-5.95011
 468	1	1	-0.180376	-22.1185	9.23041	-6.15151
 469	1	1	-0.054224	-21.5965	8.02353	-6.63153
 470	1	2	0.006282	-21.2027	6.00056	-7.12409
 471	1	2	0.015188	-21.1248	7.37733	-7.92393
 472	1	3	0.034756	-22.2105	5.16623	-7.94981
 473	1	3	0.003059	-23.6519	5.73417	-7.79647
 474	1	3	0.042972	-22.1116	7.14202	-9.0995
 475	1	3	0.004163	-23.589	7.09625	-8.60066
 476	1	3	-0.197219	-21.815	5.64779	-9.36465
 477	1	5	0.227416	-22.5726	15.0188	3.2213
 478	1	5	0.230059	-20.5308	17.4892	-0.646728
 479	1	6	0.034807	-24.2859	14.7706	0.584489
 480	1	6	0.022109	-23.1948	15.9804	-1.48585
 481	1	6	0.043894	-23.3233	12.2266	0.716612
 482	1	6	0.04727	-25.3064	13.355	-0.816786
 483	1	6	0.039454	-24.2323	14.5066	-2.86824
 484	1	6	0.037752	-21.5059	14.2224	-2.72097
 485	1	6	0.046701	-21.8133	11.8754	-1.471
 486	1	6	0.047659	-21.0104	13.0238	-0.379831
 487	1	5	0.173906	-24.6784	9.8994	-0.864839
 488	1	5	0.156928	-22.6489	12.0846	-4.92046
 489	1	6	0.056509	-22.5156	6.56472	-1.72046
 490	1	6	0.064596	-23.3048	7.80222	-0.721669
 491	1	6	0.065502	-21.8296	8.19989	-1.62715
 492	1	6	0.062922	-25.5486	7.57833	-3.78392
 493	1	6	0.049805	-25.5451	7.479	-2.0111
 494	1	6	0.059229	-24.7714	6.20201	-2.97463
 495	1	5	0.166497	-22.5198	5.72253	-4.26834
 496	1	5	0.141714	-22.1076	10.1485	-6.73008
 497	1	6	0.041341	-20.2437	5.48649	-6.99613
 498	1	6	0.038019	-20.1231	7.65502	-8.27026
 499	1	6	0.012124	-22.1411	4.08127	-7.80181
 500	1	6	0.001144	-24.0355	5.82451	-6.77288
 501	1	6	0.009013	-21.9566	7.79524	-9.96731
 502	1	6	0.001345	-23.9363	7.97105	-8.03662
 503	1	6	0.041603	-20.7571	5.46005	-9.59613
 504	1	6	0.069352	-22.4232	5.21198	-10.1655
 505	1	1	-0.425718	-10.3618	28.0005	10.941
 506	1	1	0.123859	-9.64695	29.1155	10.4766
 507	1	1	0.123846	-9.5022	29.4216	9.12931
 508	1	1	-0.442194	-10.1159	28.6504	8.11948
 509	1	1	0.030377	-10.6334	27.4175	8.56981
 510	1	1	0.003389	-10.7343	27.1066	9.92425
 511	1	2	0.006267	-11.9588	26.2421	9.73766
 512	1	2	0.040808	-11.8628	26.5936	8.19701
 513	1	3	0.010049	-11.736	24.7095	9.79344
 514	1	2	-0.044998	-13.1409	24.3265	9.27381
 515	1	2	-0.017344	-13.0946	24.6654	7.72395
 516	1	3	0.004207	-11.6468	25.2088	7.51994
 517	1	3	-0.10977	-10.814	24.4274	8.57417
 518	1	1	-0.002799	-13.3476	22.889	8.85438
 519	1	1	-0.006419	-13.3412	23.1779	7.50501
 520	1	1	-0.256521	-14.0239	21.799	9.40859
 521	1	1	0.004841	-14.6403	20.9333	8.48113
 522	1	4	0.00733	-14.6736	21.2327	7.09485
 523	1	1	-0.221146	-14.0704	22.4125	6.58109
 524	1	3	0.21053	-15.5473	19.7464	8.82142
 525	1	4	0.0182	-15.6296	20.3097	6.44885
 526	1	1	0.000377	-16.1718	19.4638	7.4521
 527	1	3	-0.237942	-14.7193	18.5398	9.31403
 528	1	3	-0.215479	-16.621	20.1283	9.86848
 529	1	1	-0.2391	-17.2942	18.6449	7.20379
 530	1	1	-0.027923	-17.7356	18.6341	5.87892
 531	1	1	-0.180376	-16.1732	20.3434	5.13543
 532	1	1	-0.054224	-17.1892	19.4096	4.88043
 533	1	2	0.006282	-19.0588	18.4553	5.16765
 534	1	2	0.015188	-18.426	19.3166	3.99368
 535	1	3	0.034756	-19.3497	17.0977	4.50082
 536	1	3	0.003059	-20.5614	17.3561	3.56581
 537	1	3	0.042972	-18.4373	18.3152	2.80308
 538	1	3	0.004163	-19.9263	18.1656	2.36105
 539	1	3	-0.197219	-18.1776	16.9594	3.50031
 540	1	5	0.227416	-10.7729	27.9493	11.9443
 541	1	5	0.230059	-10.3516	29.0585	7.14176
 542	1	6	0.034807	-12.8372	26.5856	10.2972
 543	1	6	0.022109	-12.6759	27.1747	7.74619
 544	1	6	0.043894	-11.4313	24.2862	10.7588
 545	1	6	0.04727	-13.9625	24.7361	9.87396
 546	1	6	0.039454	-13.8713	25.3202	7.31128
 547	1	6	0.037752	-11.2613	25.2167	6.49279
 548	1	6	0.046701	-10.73	23.3579	8.34163
 549	1	6	0.047659	-9.80219	24.8335	8.70317
 550	1	5	0.173906	-14.1586	21.692	10.4801
 551	1	5	0.156928	-14.2573	22.7578	5.5696
 552	1	6	0.056509	-15.3606	17.6648	9.47675
 553	1	6	0.064596	-14.2094	18.7736	10.2567
 554	1	6	0.065502	-13.9559	18.268	8.5738
 555	1	6	0.062922	-16.1606	20.3951	10.8271
 556	1	6	0.049805	-17.3093	19.2942	10.0504
 557	1	6	0.059229	-17.2099	20.9869	9.52179
 558	1	5	0.166497	-17.8324	18.1352	7.99669
 559	1	5	0.141714	-15.8894	21.1011	4.4124
 560	1	6	0.041341	-19.9314	18.8639	5.6895
 561	1	6	0.038019	-18.9039	20.2704	3.74396
 562	1	6	0.012124	-19.476	16.2523	5.18877
 563	1	6	0.001144	-21.4282	17.8465	4.02835
 564	1	6	0.009013	-17.745	18.5508	1.98514
 565	1	6	0.001345	-20.4491	19.1047	2.13745
 566	1	6	0.041603	-17.1939	16.9002	3.98376
 567	1	6	0.069352	-18.2687	16.094	2.831
 568	1	1	-0.425718	1.4436	42.5539	11.0067
 569	1	1	0.123859	2.57447	42.5275	10.1553
 570	1	1	0.123846	2.50025	42.0429	8.80644
 571	1	1	-0.442194	1.26412	41.5732	8.2848
 572	1	1	0.030377	0.169009	41.6646	9.14382
 573	1	1	0.003389	0.254814	42.1259	10.4214
 574	1	2	0.006267	-1.20537	41.8784	10.736
 575	1	2	0.040808	-1.31153	41.3411	9.23595
 576	1	3	0.010049	-1.53943	40.6342	11.5999
 577	1	2	-0.044998	-3.06447	40.634	11.3227
 578	1	2	-0.017344	-3.18697	40.1012	9.82245
 579	1	3	0.004207	-1.711	39.85	9.40469
 580	1	3	-0.10977	-1.02104	39.4455	10.7398
 581	1	1	-0.002799	-3.83558	39.3896	11.7087
 582	1	1	-0.006419	-3.95264	38.9361	10.4223
 583	1	1	-0.256521	-4.21568	38.6537	12.8335
 584	1	1	0.004841	-4.83384	37.4173	12.5312
 585	1	4	0.00733	-4.99084	36.9568	11.1948
 586	1	1	-0.221146	-4.50831	37.6983	10.0826
 587	1	3	0.21053	-5.42053	36.4191	13.5343
 588	1	4	0.0182	-5.70199	35.6668	11.2299
 589	1	1	0.000377	-5.96163	35.3415	12.5865
 590	1	3	-0.237942	-4.33074	35.8471	14.4672
 591	1	3	-0.215479	-6.55491	37.0693	14.3595
 592	1	1	-0.2391	-6.78588	34.2517	12.9416
 593	1	1	-0.027923	-7.22899	33.4688	11.8709
 594	1	1	-0.180376	-6.281	34.9276	10.1645
 595	1	1	-0.054224	-6.99861	33.7869	10.5499
 596	1	2	0.006282	-8.4542	32.6359	11.5673
 597	1	2	0.015188	-8.20405	33.0038	10.0435
 598	1	3	0.034756	-8.31081	31.098	11.586
 599	1	3	0.003059	-9.60038	30.5638	10.914
 600	1	3	0.042972	-7.99698	31.6127	9.38863
 601	1	3	0.004163	-9.3969	30.9197	9.38872
 602	1	3	-0.197219	-7.24628	30.8363	10.4951
 603	1	5	0.227416	1.49424	42.9092	12.0312
 604	1	5	0.230059	1.16563	41.1993	7.27019
 605	1	6	0.034807	-1.77645	42.7779	10.995
 606	1	6	0.022109	-1.94738	41.9021	8.54071
 607	1	6	0.043894	-1.22613	40.6617	12.651
 608	1	6	0.04727	-3.57008	41.5762	11.5657
 609	1	6	0.039454	-3.76047	40.7115	9.11471
 610	1	6	0.037752	-1.5447	39.193	8.54202
 611	1	6	0.046701	-1.35834	38.4704	11.1145
 612	1	6	0.047659	0.0739191	39.4227	10.6632
 613	1	5	0.173906	-4.0594	39.0064	13.8481
 614	1	5	0.156928	-4.57054	37.3398	9.06036
 615	1	6	0.056509	-3.89763	36.6355	15.0949
 616	1	6	0.064596	-3.5206	35.3946	13.8814
 617	1	6	0.065502	-4.74655	35.0744	15.1253
 618	1	6	0.062922	-7.33217	37.4699	13.6962
 619	1	6	0.049805	-6.17174	37.896	14.9703
 620	1	6	0.059229	-7.02326	36.3399	15.0311
 621	1	5	0.166497	-7.1268	34.0867	13.9589
 622	1	5	0.141714	-6.25193	35.2757	9.13706