pySIMM System Object

3104 atoms
3640 bonds
7488 angles
14064 dihedrals
288 impropers

6 atom types
11 bond types
24 angle types
21 dihedral types
1 improper types

-206.106565 206.106565 xlo xhi
-206.106565 206.106565 ylo yhi
-206.106565 206.106565 zlo zhi

Masses

   1	12.01	# ca
   2	12.01	# cy
   3	12.01	# c3
   4	12.01	# cp
   5	1.008	# ha
   6	1.008	# hc

Pair Coeffs

   1	0.086	3.3996695084235347	# ca
   2	0.086	3.3996695084235347	# cy
   3	0.1094	3.3996695084235347	# c3
   4	0.086	3.3996695084235347	# cp
   5	0.015	2.59964245953351	# ha
   6	0.0157	2.649532787749369	# hc

Bond Coeffs

   1	321.0	1.5156	# c3,ca
   2	285.0	1.5562	# cy,cy
   3	330.6	1.0969	# c3,hc
   4	333.3	1.0949	# cy,hc
   5	321.2	1.5154	# ca,cy
   6	461.1	1.3984	# ca,ca
   7	300.9	1.5375	# c3,c3
   8	305.9	1.5319	# c3,cy
   9	351.4	1.4854	# cp,cp
  10	345.8	1.086	# ca,ha
  11	450.2	1.4058	# ca,cp

Angle Coeffs

   1	62.73	112.39	# c3,c3,cy
   2	46.29	110.75	# cy,c3,hc
   3	44.83	114.79	# cy,cy,hc
   4	60.66	118.7	# c3,cy,cy
   5	66.72	118.38	# ca,cp,ca
   6	62.86	111.51	# c3,c3,c3
   7	46.43	110.14	# c3,cy,hc
   8	63.43	120.63	# c3,ca,cp
   9	63.56	112.24	# ca,c3,ca
  10	64.05	121.11	# ca,cp,cp
  11	66.62	120.02	# ca,ca,ca
  12	39.4	107.58	# hc,c3,hc
  13	47.98	119.86	# cp,ca,ha
  14	63.53	120.77	# c3,ca,ca
  15	63.51	120.86	# ca,ca,cy
  16	62.8	113.57	# c3,cy,ca
  17	67.9	96.03	# cy,c3,cy
  18	45.97	114.53	# ca,cy,hc
  19	61.4	116.81	# ca,cy,cy
  20	63.15	112.07	# c3,c3,ca
  21	66.26	120.69	# ca,ca,cp
  22	46.34	109.8	# c3,c3,hc
  23	48.18	119.88	# ca,ca,ha
  24	46.8	110.47	# ca,c3,hc

Dihedral Coeffs

   1	1	0.16	3	0.0	# cy,c3,cy,ca
   2	1	0.16	3	0.0	# c3,c3,cy,ca
   3	1	0.16	3	0.0	# hc,c3,cy,ca
   4	3	0.18	3	0.0	0.25	2	180.0	0.2	1	180.0	# cy,c3,cy,cy
   5	1	0.15	3	0	# hc,c3,c3,hc
   6	3	0.18	3	0.0	0.25	2	180.0	0.2	1	180.0	# c3,c3,cy,cy
   7	1	0.16	3	0.0	# hc,c3,cy,cy
   8	1	0.16	3	0.0	# cy,c3,cy,hc
   9	1	0.16	3	0.0	# c3,c3,cy,hc
  10	1	0.15	3	0.0	# hc,c3,cy,hc
  11	1	3.625	2	180	# X,ca,ca,X
  12	1	0.15555555555555556	3	0	# X,cy,cy,X
  13	1	3.625	2	180	# X,ca,cp,X
  14	3	0.18	3	0	0.25	2	180	0.2	1	180	# c3,c3,c3,c3
  15	1	0.15555555555555556	3	0	# X,c3,c3,X
  16	1	0.16	3	0	# hc,c3,c3,c3
  17	1	1.0	2	180	# X,cp,cp,X
  18	1	0.0	2	0.0	# ca,ca,cy,cy
  19	1	0.0	2	0.0	# ca,ca,cy,c3
  20	1	0.0	2	0	# X,c3,ca,X
  21	3	0.38	3	180.0	0.0	2	0.0	1.15	1	0.0	# ca,ca,cy,hc

Improper Coeffs

   1	1.1	-1	2	# ca,X,X,ha

Atoms

   1	1	1	-0.425718	-19.0592	-60.1373	61.4322
   2	1	1	0.123859	-18.685	-61.2615	60.6732
   3	1	1	0.123846	-17.3765	-61.6808	60.5233
   4	1	1	-0.442194	-16.279	-61.022	61.1083
   5	1	1	0.030377	-16.6771	-60.0565	62.0546
   6	1	1	0.003389	-17.9953	-59.6398	62.2103
   7	1	2	0.006267	-17.6059	-58.3007	62.8097
   8	1	2	0.040808	-16.1002	-58.7744	62.6296
   9	1	3	0.010049	-17.7173	-57.0531	61.893
  10	1	2	-0.044998	-16.9112	-56.0828	62.7984
  11	1	2	-0.017344	-15.4032	-56.5553	62.6155
  12	1	3	0.004207	-15.5055	-57.7485	61.6268
  13	1	3	-0.10977	-16.7246	-57.3694	60.738
  14	1	1	-0.002799	-16.4649	-54.774	62.1751
  15	1	1	-0.006419	-15.1596	-55.1822	62.0166
  16	1	1	-0.256521	-17.0435	-53.746	61.4202
  17	1	1	0.004841	-16.1492	-53.0471	60.5776
  18	1	4	0.00733	-14.8041	-53.4652	60.4136
  19	1	1	-0.221146	-14.2904	-54.6044	61.0835
  20	1	3	0.21053	-16.4851	-51.8814	59.6379
  21	1	4	0.0182	-14.1816	-52.6303	59.3747
  22	1	1	0.000377	-15.1456	-51.6958	58.9135
  23	1	3	-0.237942	-17.6059	-52.2599	58.6439
  24	1	3	-0.215479	-16.873	-50.6186	60.4389
  25	1	1	-0.2391	-14.8154	-50.6823	57.9836
  26	1	1	-0.027923	-13.5076	-50.7488	57.4888
  27	1	1	-0.180376	-12.8346	-52.5988	58.9306
  28	1	1	-0.054224	-12.5734	-51.6515	57.9344
  29	1	2	0.006282	-12.479	-49.8487	56.8267
  30	1	2	0.015188	-11.3989	-50.8914	57.3429
  31	1	3	0.034756	-12.0362	-48.5291	57.5062
  32	1	3	0.003059	-12.2578	-48.5481	59.0432
  33	1	3	0.042972	-10.4881	-50.0235	58.2466
  34	1	3	0.004163	-11.2023	-49.5673	59.548
  35	1	3	-0.197219	-10.5039	-48.6981	57.4578
  36	1	5	0.227416	-20.022	-59.6452	61.34
  37	1	5	0.230059	-15.253	-61.163	60.7843
  38	1	6	0.034807	-17.9569	-58.1403	63.8359
  39	1	6	0.022109	-15.5088	-58.9082	63.5431
  40	1	6	0.043894	-18.7283	-56.7384	61.6058
  41	1	6	0.04727	-17.2872	-55.999	63.8249
  42	1	6	0.039454	-14.8326	-56.7677	63.5274
  43	1	6	0.037752	-14.5849	-58.0412	61.1068
  44	1	6	0.046701	-16.5303	-56.5037	60.0918
  45	1	6	0.047659	-17.0614	-58.1976	60.1046
  46	1	5	0.173906	-18.1082	-53.5367	61.4444
  47	1	5	0.156928	-13.3205	-55.0304	60.8485
  48	1	6	0.056509	-17.7761	-51.4529	57.9207
  49	1	6	0.064596	-18.5493	-52.4529	59.1686
  50	1	6	0.065502	-17.3354	-53.165	58.0853
  51	1	6	0.062922	-17.7829	-50.7926	61.0262
  52	1	6	0.049805	-17.0548	-49.7682	59.7705
  53	1	6	0.059229	-16.0693	-50.3405	61.1326
  54	1	5	0.166497	-15.5035	-49.888	57.7114
  55	1	5	0.141714	-12.059	-53.2194	59.3677
  56	1	6	0.041341	-12.5441	-49.7543	55.7371
  57	1	6	0.038019	-10.8368	-51.4014	56.5528
  58	1	6	0.012124	-12.409	-47.6189	57.0195
  59	1	6	0.001144	-13.2798	-48.8253	59.3264
  60	1	6	0.009013	-9.48694	-50.4391	58.417
  61	1	6	0.001345	-11.6518	-50.3978	60.1046
  62	1	6	0.041603	-10.1174	-48.8046	56.4346
  63	1	6	0.069352	-9.96533	-47.8873	57.9684
  64	1	1	-0.425718	-20.0204	-75.0892	56.3052
  65	1	1	0.123859	-19.5527	-75.4531	55.0286
  66	1	1	0.123846	-18.3141	-75.0817	54.5388
  67	1	1	-0.442194	-17.3939	-74.3039	55.2665
  68	1	1	0.030377	-17.76	-74.1617	56.6199
  69	1	1	0.003389	-19.0073	-74.5339	57.112
  70	1	2	0.006267	-18.9462	-73.5639	58.2788
  71	1	2	0.040808	-17.5219	-73.1397	57.7188
  72	1	3	0.010049	-19.7916	-72.2664	58.1679
  73	1	2	-0.044998	-19.1369	-71.5106	59.3556
  74	1	2	-0.017344	-17.7101	-71.0856	58.7983
  75	1	3	0.004207	-17.6977	-71.6421	57.3482
  76	1	3	-0.10977	-19.1911	-71.554	56.9226
  77	1	1	-0.002799	-19.4221	-70.0241	59.4598
  78	1	1	-0.006419	-18.1839	-69.6551	58.9799
  79	1	1	-0.256521	-20.551	-69.199	59.3732
  80	1	1	0.004841	-20.3055	-67.8917	58.896
  81	1	4	0.00733	-19.031	-67.5078	58.4087
  82	1	1	-0.221146	-17.945	-68.4178	58.3688
  83	1	3	0.21053	-21.3385	-66.7774	58.6819
  84	1	4	0.0182	-19.1358	-66.1501	57.8519
  85	1	1	0.000377	-20.4744	-65.7052	58.0061
  86	1	3	-0.237942	-22.482	-67.2361	57.7495
  87	1	3	-0.215479	-21.9036	-66.2793	60.0308
  88	1	1	-0.2391	-20.8639	-64.388	57.6707
  89	1	1	-0.027923	-19.8575	-63.6099	57.086
  90	1	1	-0.180376	-18.1154	-65.2969	57.359
  91	1	1	-0.054224	-18.559	-64.0372	56.9396
  92	1	2	0.006282	-19.5093	-62.1425	56.9077
  93	1	2	0.015188	-18.0054	-62.6363	56.7378
  94	1	3	0.034756	-19.4306	-61.2012	58.137
  95	1	3	0.003059	-19.172	-62.0091	59.4452
  96	1	3	0.042972	-17.2684	-61.906	57.8904
  97	1	3	0.004163	-17.6742	-62.4934	59.2756
  98	1	3	-0.197219	-18.0459	-60.5698	57.8644
  99	1	5	0.227416	-21.0672	-75.1212	56.5898
 100	1	5	0.230059	-16.5643	-73.7751	54.8084
 101	1	6	0.034807	-18.9704	-74.0359	59.2681
 102	1	6	0.022109	-16.6551	-73.3475	58.3574
 103	1	6	0.043894	-20.8822	-72.3822	58.1949
 104	1	6	0.04727	-19.16	-72.0523	60.3086
 105	1	6	0.039454	-16.8362	-71.3626	59.3999
 106	1	6	0.037752	-16.9598	-71.2128	56.6592
 107	1	6	0.046701	-19.5439	-70.5211	56.8075
 108	1	6	0.047659	-19.397	-72.0881	55.9896
 109	1	5	0.173906	-21.5496	-69.5581	59.6007
 110	1	5	0.156928	-17.0211	-68.1967	57.8444
 111	1	6	0.056509	-23.1642	-66.4058	57.5296
 112	1	6	0.064596	-23.0642	-68.0442	58.2083
 113	1	6	0.065502	-22.0782	-67.6048	56.7979
 114	1	6	0.062922	-21.0919	-65.9379	60.6858
 115	1	6	0.049805	-22.4435	-67.0813	60.5489
 116	1	6	0.059229	-22.5959	-65.4417	59.8825
 117	1	5	0.166497	-21.8472	-63.9907	57.9025
 118	1	5	0.141714	-17.0663	-65.5744	57.3702
 119	1	6	0.041341	-19.933	-61.6451	56.0283
 120	1	6	0.038019	-17.5595	-62.4257	55.7594
 121	1	6	0.012124	-20.252	-60.478	58.2162
 122	1	6	0.001144	-19.8868	-62.8083	59.6751
 123	1	6	0.009013	-16.1848	-61.8033	57.7517
 124	1	6	0.001345	-17.5259	-63.5716	59.4098
 125	1	6	0.041603	-17.9935	-60.0679	56.888
 126	1	6	0.069352	-17.7258	-59.8572	58.6335
 127	1	1	-0.425718	-17.6125	-83.8942	43.0686
 128	1	1	0.123859	-17.4939	-83.2156	41.8406
 129	1	1	0.123846	-16.7007	-82.0969	41.6682
 130	1	1	-0.442194	-15.9049	-81.5397	42.6853
 131	1	1	0.030377	-15.8251	-82.3713	43.8194
 132	1	1	0.003389	-16.646	-83.4792	44.0073
 133	1	2	0.006267	-16.5338	-83.4289	45.5224
 134	1	2	0.040808	-15.589	-82.1709	45.3047
 135	1	3	0.010049	-17.7422	-82.8501	46.3101
 136	1	2	-0.044998	-17.0215	-82.6831	47.6767
 137	1	2	-0.017344	-16.0686	-81.4309	47.4523
 138	1	3	0.004207	-16.3507	-81.0049	45.987
 139	1	3	-0.10977	-17.8444	-81.3894	45.7852
 140	1	1	-0.002799	-17.7155	-81.8295	48.7242
 141	1	1	-0.006419	-16.8873	-80.7453	48.5281
 142	1	1	-0.256521	-19.0096	-81.7155	49.25
 143	1	1	0.004841	-19.3638	-80.4241	49.7039
 144	1	4	0.00733	-18.5166	-79.3078	49.4915
 145	1	1	-0.221146	-17.2731	-79.4329	48.8247
 146	1	3	0.21053	-20.7064	-79.9907	50.3094
 147	1	4	0.0182	-19.2322	-78.0931	49.9088
 148	1	1	0.000377	-20.5102	-78.4713	50.3979
 149	1	3	-0.237942	-21.888	-80.3431	49.3779
 150	1	3	-0.215479	-20.9116	-80.6153	51.7071
 151	1	1	-0.2391	-21.4046	-77.5264	50.954
 152	1	1	-0.027923	-20.9663	-76.1991	50.8785
 153	1	1	-0.180376	-18.7829	-76.7477	49.9387
 154	1	1	-0.054224	-19.7352	-75.831	50.3958
 155	1	2	0.006282	-21.2464	-74.8452	51.5073
 156	1	2	0.015188	-19.8179	-74.4177	50.9447
 157	1	3	0.034756	-21.0908	-74.6422	53.0361
 158	1	3	0.003059	-20.1339	-75.7095	53.6487
 159	1	3	0.042972	-19.0408	-74.0266	52.2269
 160	1	3	0.004163	-18.716	-75.2839	53.0884
 161	1	3	-0.197219	-20.2002	-73.3788	53.0181
 162	1	5	0.227416	-18.4273	-84.5721	43.3013
 163	1	5	0.230059	-15.499	-80.5341	42.6449
 164	1	6	0.034807	-16.0808	-84.3167	45.979
 165	1	6	0.022109	-14.5436	-82.2735	45.619
 166	1	6	0.043894	-18.6652	-83.443	46.3063
 167	1	6	0.04727	-16.5585	-83.5997	48.061
 168	1	6	0.039454	-15.0068	-81.5606	47.6939
 169	1	6	0.037752	-16.0569	-79.9873	45.7012
 170	1	6	0.046701	-18.5304	-80.7687	46.3758
 171	1	6	0.047659	-18.1571	-81.3367	44.7368
 172	1	5	0.173906	-19.7091	-82.5454	49.2524
 173	1	5	0.156928	-16.6966	-78.5712	48.5045
 174	1	6	0.056509	-21.9934	-81.4292	49.2681
 175	1	6	0.064596	-21.7331	-79.9131	48.3802
 176	1	6	0.065502	-22.8305	-79.9472	49.7754
 177	1	6	0.062922	-20.0785	-80.3538	52.372
 178	1	6	0.049805	-20.964	-81.7092	51.6428
 179	1	6	0.059229	-21.8398	-80.2548	52.1669
 180	1	5	0.166497	-22.3392	-77.8082	51.4289
 181	1	5	0.141714	-17.7723	-76.4595	49.6679
 182	1	6	0.041341	-22.0917	-74.2827	51.0959
 183	1	6	0.038019	-19.8363	-73.6089	50.2058
 184	1	6	0.012124	-22.0345	-74.5248	53.5833
 185	1	6	0.001144	-20.3976	-76.7591	53.4692
 186	1	6	0.009013	-18.18	-73.3669	52.0605
 187	1	6	0.001345	-18.1643	-76.0883	52.5867
 188	1	6	0.041603	-20.6642	-72.5399	52.4805
 189	1	6	0.069352	-19.9116	-73.0288	54.0149
 190	1	1	-0.425718	-14.3119	-81.8523	27.5746
 191	1	1	0.123859	-14.6557	-80.6969	26.8477
 192	1	1	0.123846	-14.5945	-79.4212	27.3745
 193	1	1	-0.442194	-14.1357	-79.1307	28.6718
 194	1	1	0.030377	-13.5491	-80.2524	29.29
 195	1	1	0.003389	-13.6538	-81.5428	28.7815
 196	1	2	0.006267	-13.4507	-82.2017	30.1354
 197	1	2	0.040808	-13.311	-80.7266	30.7105
 198	1	3	0.010049	-14.7098	-82.7602	30.8585
 199	1	2	-0.044998	-14.0534	-82.9712	32.2506
 200	1	2	-0.017344	-13.8884	-81.4917	32.8181
 201	1	3	0.004207	-14.4921	-80.5953	31.7048
 202	1	3	-0.10977	-15.5916	-81.4966	31.0724
 203	1	1	-0.002799	-14.9767	-83.2004	33.4359
 204	1	1	-0.006419	-14.8254	-81.9255	33.9245
 205	1	1	-0.256521	-16.0243	-84.0501	33.8151
 206	1	1	0.004841	-16.8513	-83.5438	34.8469
 207	1	4	0.00733	-16.6976	-82.2231	35.3418
 208	1	1	-0.221146	-15.7059	-81.3436	34.8406
 209	1	3	0.21053	-18.0489	-84.2411	35.5091
 210	1	4	0.0182	-17.7569	-81.9661	36.3264
 211	1	1	0.000377	-18.548	-83.1367	36.4529
 212	1	3	-0.237942	-19.1302	-84.6146	34.4711
 213	1	3	-0.215479	-17.5957	-85.4918	36.2952
 214	1	1	-0.2391	-19.5565	-83.2458	37.4397
 215	1	1	-0.027923	-19.778	-82.081	38.187
 216	1	1	-0.180376	-17.9375	-80.8428	37.1707
 217	1	1	-0.054224	-19.0164	-80.9435	38.0548
 218	1	2	0.006282	-20.3304	-81.682	39.5477
 219	1	2	0.015188	-19.4388	-80.3724	39.3948
 220	1	3	0.034756	-19.7806	-82.3237	40.8493
 221	1	3	0.003059	-18.3564	-82.9125	40.6265
 222	1	3	0.042972	-18.4826	-80.4553	40.6114
 223	1	3	0.004163	-17.4588	-81.6214	40.4434
 224	1	3	-0.197219	-19.4743	-81.0347	41.6461
 225	1	5	0.227416	-14.6124	-82.8549	27.2879
 226	1	5	0.230059	-14.3091	-78.1841	29.1733
 227	1	6	0.034807	-12.5668	-82.8468	30.2036
 228	1	6	0.022109	-12.3362	-80.4448	31.126
 229	1	6	0.043894	-15.1962	-83.632	30.4036
 230	1	6	0.04727	-13.1572	-83.6028	32.2375
 231	1	6	0.039454	-12.8884	-81.193	33.1549
 232	1	6	0.037752	-14.787	-79.5784	31.9917
 233	1	6	0.046701	-16.4375	-81.6757	31.7487
 234	1	6	0.047659	-15.9857	-81.0903	30.1332
 235	1	5	0.173906	-16.2014	-85.0084	33.3371
 236	1	5	0.156928	-15.6545	-80.2962	35.119
 237	1	6	0.056509	-18.7527	-85.3594	33.76
 238	1	6	0.064596	-19.4412	-83.7284	33.9034
 239	1	6	0.065502	-20.0176	-85.0304	34.9639
 240	1	6	0.062922	-18.4408	-85.9566	36.8172
 241	1	6	0.049805	-16.8392	-85.2238	37.0439
 242	1	6	0.059229	-17.1574	-86.2389	35.6224
 243	1	5	0.166497	-20.074	-84.1773	37.6469
 244	1	5	0.141714	-17.2469	-80.0058	37.1841
 245	1	6	0.041341	-21.4094	-81.4995	39.5986
 246	1	6	0.038019	-20.0007	-79.4321	39.3688
 247	1	6	0.012124	-20.4721	-83.0127	41.3502
 248	1	6	0.001144	-18.2572	-83.6525	39.8233
 249	1	6	0.009013	-18.0263	-79.5013	40.9039
 250	1	6	0.001345	-16.851	-81.6125	39.5311
 251	1	6	0.041603	-20.3616	-80.401	41.7848
 252	1	6	0.069352	-19.0281	-81.219	42.6299
 253	1	1	-0.425718	-12.1048	-71.301	16.1091
 254	1	1	0.123859	-12.9676	-70.2794	15.6759
 255	1	1	0.123846	-13.7496	-69.5231	16.5271
 256	1	1	-0.442194	-13.7463	-69.6731	17.9275
 257	1	1	0.030377	-12.7029	-70.5134	18.369
 258	1	1	0.003389	-11.9392	-71.2925	17.5064
 259	1	2	0.006267	-11.5667	-72.2981	18.577
 260	1	2	0.040808	-12.4171	-71.3969	19.5728
 261	1	3	0.010049	-12.3249	-73.655	18.5648
 262	1	2	-0.044998	-11.8512	-74.1407	19.9583
 263	1	2	-0.017344	-12.6673	-73.2294	20.9803
 264	1	3	0.004207	-13.5485	-72.3407	20.057
 265	1	3	-0.10977	-13.8047	-73.2471	18.8187
 266	1	1	-0.002799	-12.5928	-75.3102	20.5791
 267	1	1	-0.006419	-13.2774	-74.526	21.4738
 268	1	1	-0.256521	-12.9632	-76.624	20.2662
 269	1	1	0.004841	-14.0146	-77.1429	21.0596
 270	1	4	0.00733	-14.6956	-76.3415	22.0123
 271	1	1	-0.221146	-14.3861	-74.9701	22.1996
 272	1	3	0.21053	-14.6212	-78.5518	20.9938
 273	1	4	0.0182	-15.7417	-77.1569	22.6446
 274	1	1	0.000377	-15.7124	-78.4532	22.0704
 275	1	3	-0.237942	-15.2357	-78.8359	19.6056
 276	1	3	-0.215479	-13.5686	-79.6249	21.3524
 277	1	1	-0.2391	-16.4898	-79.5132	22.5937
 278	1	1	-0.027923	-17.3432	-79.1621	23.6494
 279	1	1	-0.180376	-16.5266	-76.8643	23.7863
 280	1	1	-0.054224	-17.3514	-77.9082	24.2189
 281	1	2	0.006282	-17.9645	-79.8345	24.8668
 282	1	2	0.015188	-17.9448	-78.3894	25.5294
 283	1	3	0.034756	-17.101	-80.6774	25.8426
 284	1	3	0.003059	-15.5979	-80.2951	25.7276
 285	1	3	0.042972	-17.033	-78.5878	26.7688
 286	1	3	0.004163	-15.549	-78.839	26.3484
 287	1	3	-0.197219	-17.502	-80.0038	27.1757
 288	1	5	0.227416	-11.6994	-72.0655	15.4542
 289	1	5	0.230059	-14.5162	-69.2704	18.5777
 290	1	6	0.034807	-10.4912	-72.379	18.7742
 291	1	6	0.022109	-11.8697	-70.8996	20.3823
 292	1	6	0.043894	-12.1327	-74.3232	17.7162
 293	1	6	0.04727	-10.7619	-74.1747	20.08
 294	1	6	0.039454	-12.0894	-72.6768	21.7307
 295	1	6	0.037752	-14.4255	-71.8665	20.5147
 296	1	6	0.046701	-14.4515	-74.1046	19.0452
 297	1	6	0.047659	-14.2447	-72.7006	17.9757
 298	1	5	0.173906	-12.4942	-77.1897	19.4674
 299	1	5	0.156928	-14.9747	-74.3148	22.8332
 300	1	6	0.056509	-14.4629	-78.8422	18.8273
 301	1	6	0.064596	-15.9736	-78.0661	19.3463
 302	1	6	0.065502	-15.742	-79.8088	19.5943
 303	1	6	0.062922	-13.1431	-79.4301	22.3452
 304	1	6	0.049805	-12.7473	-79.6262	20.6253
 305	1	6	0.059229	-14.0146	-80.6267	21.364
 306	1	5	0.166497	-16.3661	-80.541	22.2671
 307	1	5	0.141714	-16.416	-75.9401	24.3443
 308	1	6	0.041341	-18.9638	-80.2609	24.7259
 309	1	6	0.038019	-18.93	-77.9901	25.7949
 310	1	6	0.012124	-17.2875	-81.758	25.8065
 311	1	6	0.001144	-15.1473	-80.3828	24.7323
 312	1	6	0.009013	-17.1505	-77.8283	27.5519
 313	1	6	0.001345	-15.0864	-78.0827	25.7039
 314	1	6	0.041603	-18.5833	-80.0539	27.3666
 315	1	6	0.069352	-16.9802	-80.4079	28.0521
 316	1	1	-0.425718	-14.6808	-57.8765	8.49498
 317	1	1	0.123859	-15.8737	-57.4814	7.86729
 318	1	1	0.123846	-17.1227	-57.5988	8.44496
 319	1	1	-0.442194	-17.3347	-58.1127	9.73989
 320	1	1	0.030377	-16.1277	-58.2727	10.454
 321	1	1	0.003389	-14.8755	-58.17	9.85679
 322	1	2	0.006267	-14.1932	-59.032	10.897
 323	1	2	0.040808	-15.6141	-59.1308	11.6021
 324	1	3	0.010049	-13.8777	-60.497	10.4885
 325	1	2	-0.044998	-13.5137	-61.0037	11.9054
 326	1	2	-0.017344	-14.9115	-61.0859	12.6607
 327	1	3	0.004207	-15.9382	-60.648	11.574
 328	1	3	-0.10977	-15.2828	-61.1192	10.2441
 329	1	1	-0.002799	-13.4368	-62.5055	12.1005
 330	1	1	-0.006419	-14.629	-62.5719	12.7849
 331	1	1	-0.256521	-12.8845	-63.6036	11.4283
 332	1	1	0.004841	-13.5382	-64.836	11.659
 333	1	4	0.00733	-14.7268	-64.9151	12.4273
 334	1	1	-0.221146	-15.3583	-63.7555	12.9431
 335	1	3	0.21053	-13.1813	-66.201	11.0552
 336	1	4	0.0182	-15.19	-66.3103	12.4265
 337	1	1	0.000377	-14.3107	-67.0746	11.6184
 338	1	3	-0.237942	-13.2249	-66.1641	9.51147
 339	1	3	-0.215479	-11.7975	-66.6796	11.5491
 340	1	1	-0.2391	-14.4177	-68.4815	11.5295
 341	1	1	-0.027923	-15.4873	-69.0437	12.2396
 342	1	1	-0.180376	-16.1787	-66.923	13.236
 343	1	1	-0.054224	-16.3051	-68.3069	13.0675
 344	1	2	0.006282	-15.8	-70.3611	12.9314
 345	1	2	0.015188	-16.7251	-69.506	13.9013
 346	1	3	0.034756	-14.775	-71.0046	13.8989
 347	1	3	0.003059	-13.7876	-69.9354	14.4505
 348	1	3	0.042972	-16.0895	-69.7601	15.2964
 349	1	3	0.004163	-14.6931	-69.0727	15.4222
 350	1	3	-0.197219	-15.7026	-71.246	15.1125
 351	1	5	0.227416	-13.7464	-58.0364	7.96681
 352	1	5	0.230059	-18.3025	-58.4402	10.1056
 353	1	6	0.034807	-13.3936	-58.5302	11.4547
 354	1	6	0.022109	-15.7084	-58.6713	12.5931
 355	1	6	0.043894	-13.1262	-60.6425	9.70255
 356	1	6	0.04727	-12.7129	-60.4387	12.3972
 357	1	6	0.039454	-14.9971	-60.5489	13.6129
 358	1	6	0.037752	-16.9851	-60.9319	11.7376
 359	1	6	0.046701	-15.2566	-62.2121	10.146
 360	1	6	0.047659	-15.7798	-60.7098	9.35631
 361	1	5	0.173906	-12.0488	-63.5047	10.7428
 362	1	5	0.156928	-16.3532	-63.7763	13.3759
 363	1	6	0.056509	-13.0543	-67.1629	9.09141
 364	1	6	0.064596	-12.4582	-65.4891	9.1123
 365	1	6	0.065502	-14.2039	-65.8115	9.16253
 366	1	6	0.062922	-11.5654	-67.6794	11.1631
 367	1	6	0.049805	-11.7734	-66.7243	12.6455
 368	1	6	0.059229	-11.0064	-65.9948	11.2201
 369	1	5	0.166497	-13.6683	-69.0909	11.0342
 370	1	5	0.141714	-16.7214	-66.3767	14.0009
 371	1	6	0.041341	-16.3299	-71.1093	12.3316
 372	1	6	0.038019	-17.7882	-69.7697	13.8739
 373	1	6	0.012124	-14.2836	-71.9075	13.5155
 374	1	6	0.001144	-13.2259	-69.3556	13.7097
 375	1	6	0.009013	-16.756	-69.568	16.1465
 376	1	6	0.001345	-14.6628	-67.9932	15.2327
 377	1	6	0.041603	-16.5653	-71.881	14.8663
 378	1	6	0.069352	-15.1928	-71.6819	15.9809
 379	1	1	-0.425718	-22.9443	-46.4147	2.24483
 380	1	1	0.123859	-23.9591	-46.4451	1.27625
 381	1	1	0.123846	-25.0192	-47.3291	1.28754
 382	1	1	-0.442194	-25.1932	-48.318	2.27758
 383	1	1	0.030377	-24.3061	-48.1422	3.36258
 384	1	1	0.003389	-23.2488	-47.2391	3.34168
 385	1	2	0.006267	-22.4677	-47.966	4.41085
 386	1	2	0.040808	-23.6794	-48.9943	4.46042
 387	1	3	0.010049	-21.268	-48.8205	3.92406
 388	1	2	-0.044998	-21.0236	-49.5515	5.26442
 389	1	2	-0.017344	-22.231	-50.5835	5.37525
 390	1	3	0.004207	-23.0295	-50.3464	4.05694
 391	1	3	-0.10977	-21.9329	-49.9157	3.04077
 392	1	1	-0.002799	-20.1208	-50.766	5.22468
 393	1	1	-0.006419	-21.1575	-51.6589	5.35887
 394	1	1	-0.256521	-18.8765	-51.1168	4.68789
 395	1	1	0.004841	-18.6916	-52.502	4.47671
 396	1	4	0.00733	-19.7322	-53.4377	4.70698
 397	1	1	-0.221146	-21.0385	-53.0239	5.07452
 398	1	3	0.21053	-17.4474	-53.19	3.90196
 399	1	4	0.0182	-19.2283	-54.7806	4.3813
 400	1	1	0.000377	-17.9033	-54.6551	3.89215
 401	1	3	-0.237942	-17.1381	-52.6937	2.4723
 402	1	3	-0.215479	-16.2258	-52.9839	4.82613
 403	1	1	-0.2391	-17.0947	-55.7855	3.63843
 404	1	1	-0.027923	-17.713	-57.0241	3.85506
 405	1	1	-0.180376	-19.7788	-56.0433	4.71501
 406	1	1	-0.054224	-18.9762	-57.1449	4.39313
 407	1	2	0.006282	-17.2794	-58.4108	4.29963
 408	1	2	0.015188	-18.7289	-58.5441	4.93684
 409	1	3	0.034756	-16.3397	-58.5835	5.51916
 410	1	3	0.003059	-16.4199	-57.3471	6.46292
 411	1	3	0.042972	-18.4222	-58.7711	6.44466
 412	1	3	0.004163	-17.8564	-57.4805	7.11611
 413	1	3	-0.197219	-17.152	-59.6416	6.301
 414	1	5	0.227416	-22.0011	-45.8934	2.11692
 415	1	5	0.230059	-25.8673	-49.1622	2.17464
 416	1	6	0.034807	-22.2751	-47.3768	5.31531
 417	1	6	0.022109	-24.2553	-49.0359	5.39239
 418	1	6	0.043894	-20.4163	-48.2809	3.49151
 419	1	6	0.04727	-20.8535	-48.8875	6.12042
 420	1	6	0.039454	-22.8374	-50.5465	6.28801
 421	1	6	0.037752	-23.7108	-51.1454	3.73945
 422	1	6	0.046701	-21.2469	-50.733	2.78332
 423	1	6	0.047659	-22.35	-49.5143	2.10863
 424	1	5	0.173906	-18.129	-50.3776	4.41819
 425	1	5	0.156928	-21.885	-53.7028	5.09102
 426	1	6	0.056509	-18.0109	-52.8271	1.82051
 427	1	6	0.064596	-16.3009	-53.2532	2.03725
 428	1	6	0.065502	-16.8747	-51.6291	2.47438
 429	1	6	0.062922	-16.4415	-53.3527	5.83713
 430	1	6	0.049805	-15.9661	-51.9208	4.90102
 431	1	6	0.059229	-15.3489	-53.5226	4.4476
 432	1	5	0.166497	-16.0364	-55.7014	3.41199
 433	1	5	0.141714	-20.6973	-56.1397	5.28498
 434	1	6	0.041341	-17.0592	-59.1286	3.5017
 435	1	6	0.038019	-19.3446	-59.3454	4.5135
 436	1	6	0.012124	-15.3152	-58.8882	5.27158
 437	1	6	0.001144	-16.2053	-56.3702	6.01662
 438	1	6	0.009013	-19.2331	-59.2454	7.01144
 439	1	6	0.001345	-18.4762	-56.5797	7.03661
 440	1	6	0.041603	-17.3289	-60.556	5.7173
 441	1	6	0.069352	-16.7003	-59.9285	7.25893
 442	1	1	-0.425718	-34.2477	-37.8376	-3.86569
 443	1	1	0.123859	-34.981	-37.8019	-5.06197
 444	1	1	0.123846	-35.3692	-38.9117	-5.79055
 445	1	1	-0.442194	-35.1044	-40.2414	-5.39299
 446	1	1	0.030377	-34.2676	-40.278	-4.25642
 447	1	1	0.003389	-33.8659	-39.1518	-3.55807
 448	1	2	0.006267	-33.284	-39.9326	-2.40799
 449	1	2	0.040808	-33.7569	-41.2411	-3.1875
 450	1	3	0.010049	-31.7384	-40.0379	-2.39656
 451	1	2	-0.044998	-31.6506	-41.1156	-1.29394
 452	1	2	-0.017344	-32.1312	-42.4525	-2.00549
 453	1	3	0.004207	-32.4258	-41.9939	-3.46878
 454	1	3	-0.10977	-31.414	-40.8336	-3.69505
 455	1	1	-0.002799	-30.3089	-41.7942	-1.13025
 456	1	1	-0.006419	-30.7334	-42.9743	-1.70338
 457	1	1	-0.256521	-28.9714	-41.3796	-1.16385
 458	1	1	0.004841	-28.052	-42.3464	-1.62485
 459	1	4	0.00733	-28.477	-43.6125	-2.09622
 460	1	1	-0.221146	-29.8531	-43.9209	-2.24387
 461	1	3	0.21053	-26.5435	-42.1601	-1.82266
 462	1	4	0.0182	-27.2904	-44.3675	-2.52863
 463	1	1	0.000377	-26.1574	-43.5245	-2.40715
 464	1	3	-0.237942	-26.2409	-41.0222	-2.82254
 465	1	3	-0.215479	-25.8375	-41.9015	-0.472254
 466	1	1	-0.2391	-24.846	-44.0078	-2.60469
 467	1	1	-0.027923	-24.7503	-45.3626	-2.9476
 468	1	1	-0.180376	-27.1529	-45.7614	-2.74789
 469	1	1	-0.054224	-25.8434	-46.2039	-2.97913
 470	1	2	0.006282	-23.7687	-46.4848	-2.66354
 471	1	2	0.015188	-25.0248	-47.4558	-2.68726
 472	1	3	0.034756	-23.2007	-46.6725	-1.2352
 473	1	3	0.003059	-24.1576	-46.0565	-0.169293
 474	1	3	0.042972	-24.9953	-48.0885	-1.26439
 475	1	3	0.004163	-25.3883	-47.054	-0.165588
 476	1	3	-0.197219	-23.4635	-48.1875	-1.07319
 477	1	5	0.227416	-34.0658	-36.9771	-3.22962
 478	1	5	0.230059	-35.5465	-41.1174	-5.85676
 479	1	6	0.034807	-33.7329	-39.7148	-1.43158
 480	1	6	0.022109	-34.5275	-41.8674	-2.72317
 481	1	6	0.043894	-31.1784	-39.1096	-2.22802
 482	1	6	0.04727	-32.1413	-40.8447	-0.35132
 483	1	6	0.039454	-32.9501	-43.0037	-1.52827
 484	1	6	0.037752	-32.4563	-42.777	-4.23645
 485	1	6	0.046701	-30.3733	-41.1795	-3.73853
 486	1	6	0.047659	-31.618	-40.2605	-4.60878
 487	1	5	0.173906	-28.6744	-40.3642	-0.9214
 488	1	5	0.156928	-30.197	-44.7891	-2.79669
 489	1	6	0.056509	-25.1647	-40.9542	-3.02363
 490	1	6	0.064596	-26.5781	-40.0547	-2.43129
 491	1	6	0.065502	-26.754	-41.2011	-3.77605
 492	1	6	0.062922	-26.038	-42.7207	0.230143
 493	1	6	0.049805	-26.193	-40.9692	-0.0166716
 494	1	6	0.059229	-24.7514	-41.8237	-0.602831
 495	1	5	0.166497	-23.9704	-43.4138	-2.36206
 496	1	5	0.141714	-27.9818	-46.4485	-2.61018
 497	1	6	0.041341	-23.0188	-46.6811	-3.43786
 498	1	6	0.038019	-25.0026	-48.2146	-3.47726
 499	1	6	0.012124	-22.1509	-46.3771	-1.11472
 500	1	6	0.001144	-24.4176	-44.9998	-0.284141
 501	1	6	0.009013	-25.5232	-49.0464	-1.17744
 502	1	6	0.001345	-26.364	-46.5684	-0.284823
 503	1	6	0.041603	-22.9776	-48.7878	-1.85516
 504	1	6	0.069352	-23.1625	-48.5879	-0.0964257
 505	1	1	-0.425718	-42.2422	-30.199	-19.4102
 506	1	1	0.123859	-42.9202	-30.7268	-20.5201
 507	1	1	0.123846	-42.9112	-32.0766	-20.8516
 508	1	1	-0.442194	-42.2879	-33.0349	-20.0243
 509	1	1	0.030377	-41.444	-32.4878	-19.0355
 510	1	1	0.003389	-41.399	-31.1207	-18.7689
 511	1	2	0.006267	-41.0598	-31.3152	-17.3108
 512	1	2	0.040808	-41.14	-32.8708	-17.589
 513	1	3	0.010049	-39.58	-31.0793	-16.9104
 514	1	2	-0.044998	-39.7118	-31.6524	-15.4824
 515	1	2	-0.017344	-39.8248	-33.2213	-15.6906
 516	1	3	0.004207	-39.7134	-33.3811	-17.2398
 517	1	3	-0.10977	-38.8062	-32.1941	-17.6684
 518	1	1	-0.002799	-38.4293	-31.9427	-14.7369
 519	1	1	-0.006419	-38.5463	-33.3117	-14.8676
 520	1	1	-0.256521	-37.7535	-31.3184	-13.6863
 521	1	1	0.004841	-37.1152	-32.1865	-12.777
 522	1	4	0.00733	-37.28	-33.5933	-12.855
 523	1	1	-0.221146	-38.0582	-34.1882	-13.8846
 524	1	3	0.21053	-36.4179	-31.772	-11.4786
 525	1	4	0.0182	-36.7745	-34.1839	-11.5976
 526	1	1	0.000377	-36.2948	-33.1275	-10.779
 527	1	3	-0.237942	-35.0266	-31.1662	-11.7639
 528	1	3	-0.215479	-37.2804	-30.7837	-10.6571
 529	1	1	-0.2391	-35.9737	-33.3284	-9.42072
 530	1	1	-0.027923	-36.0493	-34.6521	-8.98543
 531	1	1	-0.180376	-36.9418	-35.4996	-11.083
 532	1	1	-0.054224	-36.4835	-35.6976	-9.77079
 533	1	2	0.006282	-36.3768	-35.3469	-7.68545
 534	1	2	0.015188	-36.8552	-36.5714	-8.57475
 535	1	3	0.034756	-35.2082	-35.9268	-6.86902
 536	1	3	0.003059	-35.8734	-36.8536	-5.82143
 537	1	3	0.042972	-35.892	-37.7064	-8.12146
 538	1	3	0.004163	-36.3247	-38.1156	-6.676
 539	1	3	-0.197219	-34.5761	-36.938	-7.85535
 540	1	5	0.227416	-42.5199	-29.2522	-18.9579
 541	1	5	0.230059	-42.6014	-34.0739	-20.0084
 542	1	6	0.034807	-41.7863	-30.8708	-16.6199
 543	1	6	0.022109	-41.9358	-33.4439	-17.0987
 544	1	6	0.043894	-39.1966	-30.0551	-17.0
 545	1	6	0.04727	-40.473	-31.1502	-14.873
 546	1	6	0.039454	-40.6848	-33.7434	-15.2546
 547	1	6	0.037752	-39.4393	-34.3741	-17.6173
 548	1	6	0.046701	-37.7702	-32.3052	-17.3229
 549	1	6	0.047659	-38.7932	-32.0386	-18.755
 550	1	5	0.173906	-37.8143	-30.2475	-13.5212
 551	1	5	0.156928	-38.3528	-35.2319	-13.8492
 552	1	6	0.056509	-34.4978	-30.9423	-10.8292
 553	1	6	0.064596	-35.1149	-30.2377	-12.3412
 554	1	6	0.065502	-34.4116	-31.868	-12.3418
 555	1	6	0.062922	-37.4205	-29.8393	-11.1961
 556	1	6	0.049805	-36.8073	-30.5509	-9.69565
 557	1	6	0.059229	-38.2705	-31.2118	-10.4553
 558	1	5	0.166497	-35.7809	-32.5064	-8.7386
 559	1	5	0.141714	-37.4783	-36.2683	-11.6295
 560	1	6	0.041341	-37.1226	-34.8451	-7.05874
 561	1	6	0.038019	-37.9083	-36.8671	-8.51252
 562	1	6	0.012124	-34.5132	-35.1886	-6.44941
 563	1	6	0.001144	-36.6768	-36.4051	-5.22211
 564	1	6	0.009013	-35.7979	-38.5476	-8.81956
 565	1	6	0.001345	-37.3843	-38.3755	-6.55367
 566	1	6	0.041603	-34.157	-36.4681	-8.75445
 567	1	6	0.069352	-33.7865	-37.5564	-7.40879
 568	1	1	-0.425718	-50.772	-29.1359	-35.2515
 569	1	1	0.123859	-49.7354	-29.1412	-36.2087
 570	1	1	0.123846	-48.7823	-30.2042	-36.2796
 571	1	1	-0.442194	-48.8736	-31.291	-35.3686
 572	1	1	0.030377	-49.9975	-31.323	-34.5336
 573	1	1	0.003389	-50.8988	-30.2915	-34.4818
 574	1	2	0.006267	-51.3924	-30.6419	-33.0965
 575	1	2	0.040808	-50.3672	-31.8556	-33.1536
 576	1	3	0.010049	-50.8611	-29.759	-31.9363
 577	1	2	-0.044998	-51.355	-30.6666	-30.786
 578	1	2	-0.017344	-50.3687	-31.915	-30.8131
 579	1	3	0.004207	-49.3905	-31.5707	-31.978
 580	1	3	-0.10977	-49.326	-30.0163	-31.9505
 581	1	1	-0.002799	-50.795	-30.3805	-29.4093
 582	1	1	-0.006419	-49.9699	-31.4815	-29.4103
 583	1	1	-0.256521	-50.5557	-29.2544	-28.6137
 584	1	1	0.004841	-49.5291	-29.409	-27.6557
 585	1	4	0.00733	-48.747	-30.5898	-27.5793
 586	1	1	-0.221146	-48.8885	-31.6326	-28.532
 587	1	3	0.21053	-49.0335	-28.3511	-26.6646
 588	1	4	0.0182	-47.7651	-30.426	-26.4923
 589	1	1	0.000377	-47.9101	-29.1208	-25.9591
 590	1	3	-0.237942	-48.4782	-27.1094	-27.3969
 591	1	3	-0.215479	-50.1544	-27.945	-25.6808
 592	1	1	-0.2391	-47.2253	-28.7172	-24.7937
 593	1	1	-0.027923	-46.3426	-29.6594	-24.2543
 594	1	1	-0.180376	-46.988	-31.4101	-25.827
 595	1	1	-0.054224	-46.251	-30.9559	-24.723
 596	1	2	0.006282	-45.9401	-30.0296	-22.8453
 597	1	2	0.015188	-45.8681	-31.5264	-23.3605
 598	1	3	0.034756	-44.4866	-29.7391	-22.4034
 599	1	3	0.003059	-44.3145	-30.5008	-21.0675
 600	1	3	0.042972	-44.3979	-31.9164	-23.0647
 601	1	3	0.004163	-44.2839	-32.0161	-21.5079
 602	1	3	-0.197219	-43.6455	-30.6018	-23.3724
 603	1	5	0.227416	-51.4052	-28.2679	-35.0969
 604	1	5	0.230059	-48.0916	-32.04	-35.2894
 605	1	6	0.034807	-52.459	-30.8892	-33.0364
 606	1	6	0.022109	-50.7934	-32.8656	-33.1476
 607	1	6	0.043894	-51.19	-28.7126	-31.9174
 608	1	6	0.04727	-52.4307	-30.8788	-30.8042
 609	1	6	0.039454	-50.8249	-32.9097	-30.8814
 610	1	6	0.037752	-48.4318	-32.1038	-31.9937
 611	1	6	0.046701	-48.8177	-29.6274	-31.0588
 612	1	6	0.047659	-48.8317	-29.5933	-32.8345
 613	1	5	0.173906	-51.086	-28.3182	-28.7567
 614	1	5	0.156928	-48.1844	-32.4551	-28.6057
 615	1	6	0.056509	-49.269	-26.5964	-27.9576
 616	1	6	0.064596	-47.6921	-27.3997	-28.1055
 617	1	6	0.065502	-48.0457	-26.3966	-26.6841
 618	1	6	0.062922	-50.5366	-28.825	-25.148
 619	1	6	0.049805	-50.9931	-27.4799	-26.2133
 620	1	6	0.059229	-49.7863	-27.229	-24.9363
 621	1	5	0.166497	-47.4515	-27.7855	-24.2846
 622	1	5	0.141714	-47.058	-32.4628	-26.0817
 623	1	6	0.041341	-46.6737	-29.7895	-22.0675
 624	1	6	0.038019	-46.5795	-32.2446	-22.9378
 625	1	6	0.012124	-44.207	-28.6789	-22.3614