pySIMM System Object

3150 atoms
3708 bonds
7590 angles
14230 dihedrals
300 impropers

6 atom types
11 bond types
24 angle types
21 dihedral types
1 improper types

-208.989547 208.989547 xlo xhi
-208.989547 208.989547 ylo yhi
-208.989547 208.989547 zlo zhi

Masses

   1	12.01	# ca
   2	12.01	# cy
   3	12.01	# c3
   4	12.01	# cp
   5	1.008	# ha
   6	1.008	# hc

Pair Coeffs

   1	0.086	3.3996695084235347	# ca
   2	0.086	3.3996695084235347	# cy
   3	0.1094	3.3996695084235347	# c3
   4	0.086	3.3996695084235347	# cp
   5	0.015	2.59964245953351	# ha
   6	0.0157	2.649532787749369	# hc

Bond Coeffs

   1	321.0	1.5156	# c3,ca
   2	285.0	1.5562	# cy,cy
   3	330.6	1.0969	# c3,hc
   4	333.3	1.0949	# cy,hc
   5	321.2	1.5154	# ca,cy
   6	461.1	1.3984	# ca,ca
   7	300.9	1.5375	# c3,c3
   8	305.9	1.5319	# c3,cy
   9	351.4	1.4854	# cp,cp
  10	345.8	1.086	# ca,ha
  11	450.2	1.4058	# ca,cp

Angle Coeffs

   1	62.73	112.39	# c3,c3,cy
   2	46.29	110.75	# cy,c3,hc
   3	44.83	114.79	# cy,cy,hc
   4	60.66	118.7	# c3,cy,cy
   5	66.72	118.38	# ca,cp,ca
   6	62.86	111.51	# c3,c3,c3
   7	46.43	110.14	# c3,cy,hc
   8	63.43	120.63	# c3,ca,cp
   9	63.56	112.24	# ca,c3,ca
  10	64.05	121.11	# ca,cp,cp
  11	66.62	120.02	# ca,ca,ca
  12	39.4	107.58	# hc,c3,hc
  13	47.98	119.86	# cp,ca,ha
  14	63.53	120.77	# c3,ca,ca
  15	63.51	120.86	# ca,ca,cy
  16	62.8	113.57	# c3,cy,ca
  17	67.9	96.03	# cy,c3,cy
  18	45.97	114.53	# ca,cy,hc
  19	61.4	116.81	# ca,cy,cy
  20	63.15	112.07	# c3,c3,ca
  21	66.26	120.69	# ca,ca,cp
  22	46.34	109.8	# c3,c3,hc
  23	48.18	119.88	# ca,ca,ha
  24	46.8	110.47	# ca,c3,hc

Dihedral Coeffs

   1	1	0.16	3	0.0	# cy,c3,cy,ca
   2	1	0.16	3	0.0	# c3,c3,cy,ca
   3	1	0.16	3	0.0	# hc,c3,cy,ca
   4	3	0.18	3	0.0	0.25	2	180.0	0.2	1	180.0	# cy,c3,cy,cy
   5	1	0.15	3	0	# hc,c3,c3,hc
   6	3	0.18	3	0.0	0.25	2	180.0	0.2	1	180.0	# c3,c3,cy,cy
   7	1	0.16	3	0.0	# hc,c3,cy,cy
   8	1	0.16	3	0.0	# cy,c3,cy,hc
   9	1	0.16	3	0.0	# c3,c3,cy,hc
  10	1	0.15	3	0.0	# hc,c3,cy,hc
  11	1	3.625	2	180	# X,ca,ca,X
  12	1	0.15555555555555556	3	0	# X,cy,cy,X
  13	1	3.625	2	180	# X,ca,cp,X
  14	3	0.18	3	0	0.25	2	180	0.2	1	180	# c3,c3,c3,c3
  15	1	0.15555555555555556	3	0	# X,c3,c3,X
  16	1	0.16	3	0	# hc,c3,c3,c3
  17	1	1.0	2	180	# X,cp,cp,X
  18	1	0.0	2	0.0	# ca,ca,cy,cy
  19	1	0.0	2	0.0	# ca,ca,cy,c3
  20	1	0.0	2	0	# X,c3,ca,X
  21	3	0.38	3	180.0	0.0	2	0.0	1.15	1	0.0	# ca,ca,cy,hc

Improper Coeffs

   1	1.1	-1	2	# ca,X,X,ha

Atoms

   1	1	1	-0.425718	53.3326	181.173	3.29273
   2	1	1	0.123859	54.6418	180.971	2.818
   3	1	1	0.123846	54.9326	180.496	1.55353
   4	1	1	-0.442194	53.9489	180.146	0.610795
   5	1	1	0.030377	52.6635	180.571	1.00064
   6	1	1	0.003389	52.3718	181.065	2.26796
   7	1	2	0.006267	50.8964	180.718	2.17333
   8	1	2	0.040808	51.2333	180.142	0.731184
   9	1	3	0.010049	50.4029	179.478	2.96574
  10	1	2	-0.044998	49.019	179.349	2.27055
  11	1	2	-0.017344	49.3698	178.762	0.83542
  12	1	3	0.004207	50.9156	178.627	0.854441
  13	1	3	-0.10977	51.226	178.312	2.34658
  14	1	1	-0.002799	48.2573	178.056	2.49569
  15	1	1	-0.006419	48.5687	177.544	1.25477
  16	1	1	-0.256521	47.9168	177.254	3.59244
  17	1	1	0.004841	47.7791	175.876	3.30825
  18	1	4	0.00733	48.1162	175.347	2.03741
  19	1	1	-0.221146	48.5929	176.171	0.987736
  20	1	3	0.21053	47.4196	174.759	4.29696
  21	1	4	0.0182	48.0365	173.881	2.10841
  22	1	1	0.000377	47.622	173.517	3.41678
  23	1	3	-0.237942	48.3764	174.742	5.51067
  24	1	3	-0.215479	45.9537	174.891	4.76629
  25	1	1	-0.2391	47.3775	172.169	3.77115
  26	1	1	-0.027923	47.6789	171.242	2.76596
  27	1	1	-0.180376	48.2397	172.919	1.086
  28	1	1	-0.054224	48.0899	171.593	1.50498
  29	1	2	0.006282	47.3895	169.8	2.38564
  30	1	2	0.015188	47.8677	170.208	0.926072
  31	1	3	0.034756	45.9336	169.328	2.14788
  32	1	3	0.003059	44.9847	170.495	1.76601
  33	1	3	0.042972	46.6206	169.912	0.0572301
  34	1	3	0.004163	45.4511	170.89	0.341371
  35	1	3	-0.197219	46.0833	168.655	0.768979
  36	1	5	0.227416	53.0863	181.291	4.34291
  37	1	5	0.230059	54.1443	179.526	-0.258509
  38	1	6	0.034807	50.2206	181.58	2.21843
  39	1	6	0.022109	50.7599	180.637	-0.124787
  40	1	6	0.043894	50.4024	179.558	4.06005
  41	1	6	0.04727	48.4062	180.257	2.3024
  42	1	6	0.039454	48.9706	179.296	-0.0346962
  43	1	6	0.037752	51.3645	177.964	0.104346
  44	1	6	0.046701	50.8678	177.323	2.65943
  45	1	6	0.047659	52.2949	178.376	2.58141
  46	1	5	0.173906	47.822	177.655	4.59634
  47	1	5	0.156928	49.0083	175.764	0.0718249
  48	1	6	0.056509	48.1528	173.897	6.17346
  49	1	6	0.064596	48.2892	175.665	6.09594
  50	1	6	0.065502	49.418	174.646	5.17899
  51	1	6	0.062922	45.8061	175.822	5.32726
  52	1	6	0.049805	45.6689	174.053	5.41432
  53	1	6	0.059229	45.2725	174.903	3.90605
  54	1	5	0.166497	46.9626	171.879	4.73134
  55	1	5	0.141714	48.4561	173.19	0.057455
  56	1	6	0.041341	48.0015	169.034	2.87518
  57	1	6	0.038019	48.7586	169.679	0.568828
  58	1	6	0.012124	45.5302	168.672	2.92939
  59	1	6	0.001144	45.0333	171.333	2.47114
  60	1	6	0.009013	46.8278	169.773	-1.01137
  61	1	6	0.001345	45.7491	171.943	0.274144
  62	1	6	0.041603	46.8048	167.826	0.773734
  63	1	6	0.069352	45.1264	168.305	0.355835
  64	1	1	-0.425718	68.4479	184.899	0.699834
  65	1	1	0.123859	69.3899	183.875	0.486922
  66	1	1	0.123846	69.186	182.827	-0.3903
  67	1	1	-0.442194	68.0248	182.679	-1.16973
  68	1	1	0.030377	67.2108	183.828	-1.14248
  69	1	1	0.003389	67.4083	184.88	-0.252128
  70	1	2	0.006267	65.9535	185.317	-0.293372
  71	1	2	0.040808	65.7303	184.116	-1.30786
  72	1	3	0.010049	65.0629	184.945	0.922764
  73	1	2	-0.044998	63.6922	185.256	0.259132
  74	1	2	-0.017344	63.4764	184.047	-0.7493
  75	1	3	0.004207	64.7458	183.175	-0.564061
  76	1	3	-0.10977	65.1073	183.39	0.933419
  77	1	1	-0.002799	62.4546	184.742	0.971469
  78	1	1	-0.006419	62.2723	183.688	0.101063
  79	1	1	-0.256521	61.9701	184.74	2.28569
  80	1	1	0.004841	61.1565	183.636	2.62561
  81	1	4	0.00733	60.9833	182.543	1.73956
  82	1	1	-0.221146	61.6024	182.514	0.465076
  83	1	3	0.21053	60.5029	183.355	3.98463
  84	1	4	0.0182	60.2415	181.486	2.44433
  85	1	1	0.000377	59.946	181.945	3.75399
  86	1	3	-0.237942	61.5454	183.362	5.1248
  87	1	3	-0.215479	59.3713	184.366	4.27617
  88	1	1	-0.2391	59.1343	181.198	4.63803
  89	1	1	-0.027923	58.7515	179.939	4.15994
  90	1	1	-0.180376	59.7471	180.249	1.95469
  91	1	1	-0.054224	59.0442	179.486	2.89501
  92	1	2	0.006282	57.6436	178.925	4.38488
  93	1	2	0.015188	57.9853	178.395	2.92348
  94	1	3	0.034756	56.1574	179.351	4.26199
  95	1	3	0.003059	56.0114	180.625	3.37363
  96	1	3	0.042972	56.6448	178.577	2.16552
  97	1	3	0.004163	56.3461	180.086	1.9222
  98	1	3	-0.197219	55.6667	178.233	3.31304
  99	1	5	0.227416	68.4599	185.552	1.56618
 100	1	5	0.230059	67.7331	181.744	-1.63836
 101	1	6	0.034807	65.7905	186.33	-0.678797
 102	1	6	0.022109	65.4246	184.377	-2.32809
 103	1	6	0.043894	65.2825	185.453	1.87004
 104	1	6	0.04727	63.6035	186.269	-0.150342
 105	1	6	0.039454	63.2452	184.299	-1.79097
 106	1	6	0.037752	64.6901	182.137	-0.916825
 107	1	6	0.046701	64.3751	182.946	1.61969
 108	1	6	0.047659	66.0956	182.996	1.19124
 109	1	5	0.173906	62.2508	185.502	3.00673
 110	1	5	0.156928	61.6193	181.621	-0.151159
 111	1	6	0.056509	61.0852	183.072	6.0774
 112	1	6	0.064596	61.9873	184.358	5.24742
 113	1	6	0.065502	62.3557	182.654	4.90912
 114	1	6	0.062922	58.6166	184.341	3.47975
 115	1	6	0.049805	59.7649	185.388	4.33796
 116	1	6	0.059229	58.8715	184.135	5.2247
 117	1	5	0.166497	58.785	181.592	5.58738
 118	1	5	0.141714	59.8478	179.952	0.916165
 119	1	6	0.041341	57.8056	178.199	5.18889
 120	1	6	0.038019	58.349	177.362	2.88344
 121	1	6	0.012124	55.6159	179.409	5.21445
 122	1	6	0.001144	56.5925	181.502	3.68045
 123	1	6	0.009013	56.5326	177.951	1.27129
 124	1	6	0.001345	57.1176	180.656	1.39114
 125	1	6	0.041603	55.8306	177.227	3.72356
 126	1	6	0.069352	54.6093	178.322	3.03537
 127	1	1	-0.425718	82.3702	177.744	-2.57244
 128	1	1	0.123859	82.4905	176.342	-2.48395
 129	1	1	0.123846	81.5515	175.463	-2.99193
 130	1	1	-0.442194	80.3609	175.88	-3.61155
 131	1	1	0.030377	80.3586	177.258	-3.89885
 132	1	1	0.003389	81.3216	178.145	-3.42673
 133	1	2	0.006267	80.4062	179.355	-3.55307
 134	1	2	0.040808	79.3007	178.332	-4.05421
 135	1	3	0.010049	79.8072	179.95	-2.25077
 136	1	2	-0.044998	78.7103	180.828	-2.92114
 137	1	2	-0.017344	77.6119	179.767	-3.37573
 138	1	3	0.004207	78.2067	178.402	-2.95204
 139	1	3	-0.10977	79.0036	178.756	-1.66357
 140	1	1	-0.002799	77.6296	181.391	-2.01655
 141	1	1	-0.006419	76.6924	180.458	-2.38813
 142	1	1	-0.256521	77.5203	182.188	-0.870382
 143	1	1	0.004841	76.3081	182.03	-0.158117
 144	1	4	0.00733	75.3719	181.021	-0.502844
 145	1	1	-0.221146	75.5674	180.16	-1.61221
 146	1	3	0.21053	75.8594	182.795	1.09555
 147	1	4	0.0182	74.3068	181.011	0.509402
 148	1	1	0.000377	74.5566	182.057	1.436
 149	1	3	-0.237942	76.8861	182.663	2.2422
 150	1	3	-0.215479	75.6018	184.283	0.766963
 151	1	1	-0.2391	73.6323	182.378	2.45845
 152	1	1	-0.027923	72.5409	181.506	2.55128
 153	1	1	-0.180376	73.1432	180.205	0.579154
 154	1	1	-0.054224	72.3194	180.468	1.67806
 155	1	2	0.006282	71.1287	181.478	3.11208
 156	1	2	0.015188	70.8761	180.272	2.10331
 157	1	3	0.034756	70.0807	182.528	2.65846
 158	1	3	0.003059	70.4598	183.138	1.27518
 159	1	3	0.042972	69.723	180.793	1.2102
 160	1	3	0.004163	70.2187	181.936	0.273512
 161	1	3	-0.197219	68.9273	181.569	2.28413
 162	1	5	0.227416	82.9389	178.432	-1.95507
 163	1	5	0.230059	79.4952	175.237	-3.7346
 164	1	6	0.034807	80.7433	180.11	-4.2733
 165	1	6	0.022109	78.9269	178.462	-5.07676
 166	1	6	0.043894	80.5043	180.459	-1.57355
 167	1	6	0.04727	79.0828	181.52	-3.68545
 168	1	6	0.039454	77.2752	179.81	-4.41838
 169	1	6	0.037752	77.5103	177.557	-2.88835
 170	1	6	0.046701	78.3582	179.047	-0.824649
 171	1	6	0.047659	79.6498	177.939	-1.32727
 172	1	5	0.173906	78.3123	182.854	-0.543633
 173	1	5	0.156928	74.9157	179.318	-1.82279
 174	1	6	0.056509	77.8423	183.126	1.97007
 175	1	6	0.064596	77.0713	181.606	2.47293
 176	1	6	0.065502	76.5178	183.15	3.15377
 177	1	6	0.062922	74.8555	184.378	-0.0322697
 178	1	6	0.049805	76.5233	184.773	0.428685
 179	1	6	0.059229	75.2303	184.824	1.64569
 180	1	5	0.166497	73.7378	183.251	3.09432
 181	1	5	0.141714	72.8873	179.478	-0.184635
 182	1	6	0.041341	71.0309	181.223	4.17288
 183	1	6	0.038019	70.6339	179.316	2.58111
 184	1	6	0.012124	69.8205	183.276	3.41755
 185	1	6	0.001144	71.4537	183.596	1.20254
 186	1	6	0.009013	69.1501	180.012	0.695245
 187	1	6	0.001345	71.0712	181.701	-0.374751
 188	1	6	0.041603	68.6167	180.931	3.12417
 189	1	6	0.069352	68.0396	182.077	1.89259
 190	1	1	-0.425718	89.3396	162.993	-2.92097
 191	1	1	0.123859	88.7956	161.889	-2.23873
 192	1	1	0.123846	87.4469	161.618	-2.13427
 193	1	1	-0.442194	86.4277	162.39	-2.72397
 194	1	1	0.030377	86.9767	163.42	-3.51264
 195	1	1	0.003389	88.3295	163.71	-3.58956
 196	1	2	0.006267	88.1156	165.026	-4.31315
 197	1	2	0.040808	86.5591	164.683	-4.24267
 198	1	3	0.010049	88.2417	166.327	-3.47153
 199	1	2	-0.044998	87.6132	167.29	-4.5147
 200	1	2	-0.017344	86.063	166.938	-4.47406
 201	1	3	0.004207	85.9619	165.83	-3.38925
 202	1	3	-0.10977	87.1172	166.178	-2.40642
 203	1	1	-0.002799	87.2018	168.669	-4.02979
 204	1	1	-0.006419	85.8578	168.366	-4.00907
 205	1	1	-0.256521	87.7631	169.692	-3.25314
 206	1	1	0.004841	86.8331	170.5	-2.55909
 207	1	4	0.00733	85.4489	170.195	-2.54825
 208	1	1	-0.221146	84.9319	169.06	-3.22185
 209	1	3	0.21053	87.1459	171.67	-1.61453
 210	1	4	0.0182	84.7746	171.118	-1.62423
 211	1	1	0.000377	85.7454	172.002	-1.08357
 212	1	3	-0.237942	88.0689	171.226	-0.457791
 213	1	3	-0.215479	87.7667	172.859	-2.3811
 214	1	1	-0.2391	85.3885	173.064	-0.218236
 215	1	1	-0.027923	84.0344	173.093	0.134762
 216	1	1	-0.180376	83.3944	171.243	-1.32315
 217	1	1	-0.054224	83.0968	172.232	-0.379533
 218	1	2	0.006282	83.0033	174.052	0.7056
 219	1	2	0.015188	81.9164	173.052	0.107529
 220	1	3	0.034756	82.6835	175.387	-0.0175599
 221	1	3	0.003059	83.0748	175.315	-1.52565
 222	1	3	0.042972	81.1286	173.946	-0.879794
 223	1	3	0.004163	82.0028	174.312	-2.11608
 224	1	3	-0.197219	81.1432	175.262	-0.069941
 225	1	5	0.227416	90.3915	163.259	-2.9202
 226	1	5	0.230059	85.3656	162.219	-2.58119
 227	1	6	0.034807	88.5733	165.083	-5.30767
 228	1	6	0.022109	86.0399	164.508	-5.19251
 229	1	6	0.043894	89.2432	166.581	-3.10286
 230	1	6	0.04727	88.102	167.275	-5.49594
 231	1	6	0.039454	85.5844	166.689	-5.42883
 232	1	6	0.037752	84.9723	165.655	-2.94967
 233	1	6	0.046701	86.9354	167.105	-1.8465
 234	1	6	0.047659	87.3192	165.377	-1.6834
 235	1	5	0.173906	88.8359	169.816	-3.14619
 236	1	5	0.156928	83.9114	168.718	-3.08421
 237	1	6	0.056509	89.0555	170.927	-0.831182
 238	1	6	0.064596	87.6316	170.37	0.072758
 239	1	6	0.065502	88.2077	172.037	0.267633
 240	1	6	0.062922	87.9289	173.716	-1.71567
 241	1	6	0.049805	87.1059	173.181	-3.19617
 242	1	6	0.059229	88.7331	172.579	-2.81827
 243	1	5	0.166497	86.0983	173.811	0.123153
 244	1	5	0.141714	82.6299	170.649	-1.81374
 245	1	6	0.041341	82.9846	174.155	1.7963
 246	1	6	0.038019	81.2656	172.575	0.849392
 247	1	6	0.012124	83.0474	176.287	0.494187
 248	1	6	0.001144	84.1161	175.049	-1.74459
 249	1	6	0.009013	80.1262	173.58	-1.13577
 250	1	6	0.001345	82.4268	173.472	-2.68011
 251	1	6	0.041603	80.692	175.151	0.926295
 252	1	6	0.069352	80.6488	176.096	-0.578674
 253	1	1	-0.425718	87.1873	147.788	-4.66957
 254	1	1	0.123859	86.7925	146.835	-3.71368
 255	1	1	0.123846	85.7893	147.053	-2.78819
 256	1	1	-0.442194	85.0419	148.246	-2.7199
 257	1	1	0.030377	85.2636	149.084	-3.83283
 258	1	1	0.003389	86.2897	148.869	-4.74764
 259	1	2	0.006267	86.371	150.327	-5.15473
 260	1	2	0.040808	85.1827	150.574	-4.12995
 261	1	3	0.010049	87.546	151.157	-4.56636
 262	1	2	-0.044998	87.0145	152.551	-4.98262
 263	1	2	-0.017344	85.7988	152.816	-3.98841
 264	1	3	0.004207	85.7854	151.55	-3.08478
 265	1	3	-0.10977	87.2813	151.127	-3.03412
 266	1	1	-0.002799	87.6651	153.761	-4.33875
 267	1	1	-0.006419	86.6053	154.006	-3.49891
 268	1	1	-0.256521	88.9531	154.262	-4.11164
 269	1	1	0.004841	89.0508	155.187	-3.0457
 270	1	4	0.00733	87.9428	155.481	-2.21042
 271	1	1	-0.221146	86.6935	154.828	-2.36941
 272	1	3	0.21053	90.3093	155.928	-2.57289
 273	1	4	0.0182	88.3776	156.442	-1.18384
 274	1	1	0.000377	89.7551	156.716	-1.37846
 275	1	3	-0.237942	91.4102	154.944	-2.11834
 276	1	3	-0.215479	90.838	156.872	-3.67641
 277	1	1	-0.2391	90.424	157.723	-0.643752
 278	1	1	-0.027923	89.648	158.369	0.328368
 279	1	1	-0.180376	87.5924	157.193	-0.274843
 280	1	1	-0.054224	88.3014	158.127	0.490912
 281	1	2	0.006282	89.5876	159.744	0.981105
 282	1	2	0.015188	88.0294	159.472	1.14269
 283	1	3	0.034756	89.6326	161.034	0.119809
 284	1	3	0.003059	89.2023	160.735	-1.34445
 285	1	3	0.042972	87.3914	160.625	0.320814
 286	1	3	0.004163	87.6489	160.435	-1.20734
 287	1	3	-0.197219	88.3848	161.754	0.682539
 288	1	5	0.227416	88.1333	147.749	-5.20009
 289	1	5	0.230059	84.4515	148.535	-1.85631
 290	1	6	0.034807	86.1636	150.519	-6.21402
 291	1	6	0.022109	84.2255	150.903	-4.55064
 292	1	6	0.043894	88.5569	150.893	-4.90118
 293	1	6	0.04727	86.8139	152.658	-6.05548
 294	1	6	0.039454	84.8315	153.064	-4.4421
 295	1	6	0.037752	85.2598	151.63	-2.12516
 296	1	6	0.046701	87.9062	151.837	-2.47736
 297	1	6	0.047659	87.4261	150.131	-2.60065
 298	1	5	0.173906	89.8131	153.943	-4.6911
 299	1	5	0.156928	85.8842	154.929	-1.65391
 300	1	6	0.056509	91.7566	154.325	-2.9549
 301	1	6	0.064596	91.0282	154.275	-1.33566
 302	1	6	0.065502	92.2737	155.483	-1.71026
 303	1	6	0.062922	90.0497	157.564	-3.99806
 304	1	6	0.049805	91.1685	156.303	-4.55426
 305	1	6	0.059229	91.6862	157.466	-3.31581
 306	1	5	0.166497	91.4326	158.043	-0.884413
 307	1	5	0.141714	86.5094	157.127	-0.254837
 308	1	6	0.041341	90.1343	159.856	1.92399
 309	1	6	0.038019	87.6696	159.448	2.1771
 310	1	6	0.012124	90.5633	161.61	0.199497
 311	1	6	0.001144	89.7734	159.964	-1.87391
 312	1	6	0.009013	86.3459	160.845	0.57028
 313	1	6	0.001345	87.3283	159.482	-1.64469
 314	1	6	0.041603	88.4514	161.927	1.76593
 315	1	6	0.069352	88.166	162.712	0.193242
 316	1	1	-0.425718	81.4294	133.568	-0.84371
 317	1	1	0.123859	81.3297	132.886	0.381388
 318	1	1	0.123846	81.0174	133.493	1.58183
 319	1	1	-0.442194	80.7855	134.876	1.72082
 320	1	1	0.030377	80.6773	135.517	0.468761
 321	1	1	0.003389	80.9698	134.894	-0.737851
 322	1	2	0.006267	81.1416	136.198	-1.48782
 323	1	2	0.040808	80.8077	136.92	-0.109198
 324	1	3	0.010049	82.5929	136.643	-1.8024
 325	1	2	-0.044998	82.2397	138.088	-2.23416
 326	1	2	-0.017344	81.9078	138.836	-0.865016
 327	1	3	0.004207	82.101	137.724	0.207921
 328	1	3	-0.10977	83.2258	136.834	-0.394229
 329	1	1	-0.002799	83.3894	139.063	-2.36673
 330	1	1	-0.006419	83.1012	139.72	-1.19843
 331	1	1	-0.256521	84.5967	139.202	-3.0574
 332	1	1	0.004841	85.4564	140.196	-2.53563
 333	1	4	0.00733	85.1354	140.927	-1.36017
 334	1	1	-0.221146	83.9577	140.659	-0.610214
 335	1	3	0.21053	86.832	140.597	-3.08095
 336	1	4	0.0182	86.2308	141.876	-1.09544
 337	1	1	0.000377	87.2304	141.695	-2.08708
 338	1	3	-0.237942	87.8236	139.414	-3.02742
 339	1	3	-0.215479	86.7198	141.153	-4.51902
 340	1	1	-0.2391	88.3431	142.559	-2.19222
 341	1	1	-0.027923	88.4223	143.546	-1.20203
 342	1	1	-0.180376	86.2776	142.967	-0.188188
 343	1	1	-0.054224	87.4364	143.751	-0.264029
 344	1	2	0.006282	89.0079	144.938	-1.0487
 345	1	2	0.015188	87.8625	145.182	0.0273805
 346	1	3	0.034756	88.7311	146.028	-2.11464
 347	1	3	0.003059	87.4299	145.716	-2.91233
 348	1	3	0.042972	87.0804	146.383	-0.572004
 349	1	3	0.004163	86.285	145.965	-1.84763
 350	1	3	-0.197219	88.2704	147.166	-1.17562
 351	1	5	0.227416	81.8779	133.148	-1.73786
 352	1	5	0.230059	80.7693	135.394	2.67427
 353	1	6	0.034807	80.4322	136.343	-2.31131
 354	1	6	0.022109	79.8883	137.516	-0.0732624
 355	1	6	0.043894	83.1539	136.035	-2.52215
 356	1	6	0.04727	81.4919	138.155	-3.03349
 357	1	6	0.039454	80.9481	139.363	-0.801636
 358	1	6	0.037752	82.2345	138.054	1.24562
 359	1	6	0.046701	84.1978	137.343	-0.428177
 360	1	6	0.047659	83.3529	135.887	0.145604
 361	1	5	0.173906	84.8553	138.586	-3.91272
 362	1	5	0.156928	83.7494	141.128	0.345609
 363	1	6	0.056509	88.8289	139.73	-3.33165
 364	1	6	0.064596	87.5031	138.602	-3.69187
 365	1	6	0.065502	87.8889	139.013	-2.00792
 366	1	6	0.062922	87.6965	141.484	-4.89178
 367	1	6	0.049805	86.0364	142.011	-4.54742
 368	1	6	0.059229	86.3343	140.39	-5.20577
 369	1	5	0.166497	89.0351	142.521	-3.02792
 370	1	5	0.141714	85.4392	143.227	0.449199
 371	1	6	0.041341	90.0288	144.994	-0.655689
 372	1	6	0.038019	88.2247	145.387	1.0411
 373	1	6	0.012124	89.5907	146.281	-2.74822
 374	1	6	0.001144	87.3854	144.744	-3.41631
 375	1	6	0.009013	86.4868	146.953	0.153326
 376	1	6	0.001345	85.5843	145.13	-1.73231
 377	1	6	0.041603	89.0304	147.43	-0.426951
 378	1	6	0.069352	87.9778	148.081	-1.70373
 379	1	1	-0.425718	73.9947	122.541	7.39531
 380	1	1	0.123859	74.4101	121.904	8.57737
 381	1	1	0.123846	75.044	122.558	9.61508
 382	1	1	-0.442194	75.2971	123.944	9.62939
 383	1	1	0.030377	74.6504	124.612	8.56855
 384	1	1	0.003389	74.0583	123.943	7.50287
 385	1	2	0.006267	74.2034	125.114	6.55218
 386	1	2	0.040808	74.8487	125.895	7.77627
 387	1	3	0.010049	75.3588	125.037	5.51551
 388	1	2	-0.044998	75.2883	126.514	5.05533
 389	1	2	-0.017344	75.8949	127.335	6.27817
 390	1	3	0.004207	76.2859	126.226	7.2975
 391	1	3	-0.10977	76.6412	125.009	6.39589
 392	1	1	-0.002799	76.4623	127.047	4.25725
 393	1	1	-0.006419	76.9672	127.781	5.3028
 394	1	1	-0.256521	77.2273	126.677	3.14491
 395	1	1	0.004841	78.5091	127.272	3.08522
 396	1	4	0.00733	79.0051	128.089	4.13418
 397	1	1	-0.221146	78.2657	128.301	5.32604
 398	1	3	0.21053	79.5597	127.092	1.98319
 399	1	4	0.0182	80.3603	128.537	3.7749
 400	1	1	0.000377	80.6984	127.969	2.51937
 401	1	3	-0.237942	80.0069	125.617	1.86328
 402	1	3	-0.215479	79.0311	127.61	0.627413
 403	1	1	-0.2391	81.8734	128.342	1.82796
 404	1	1	-0.027923	82.7042	129.238	2.5122
 405	1	1	-0.180376	81.1665	129.534	4.38372
 406	1	1	-0.054224	82.3661	129.811	3.71672
 407	1	2	0.006282	83.7282	130.306	2.17115
 408	1	2	0.015188	83.3404	130.971	3.56323
 409	1	3	0.034756	83.3864	131.416	1.1446
 410	1	3	0.003059	81.8443	131.619	1.03331
 411	1	3	0.042972	82.8451	132.383	3.14538
 412	1	3	0.004163	81.473	132.304	2.41324
 413	1	3	-0.197219	83.8198	132.647	1.97382
 414	1	5	0.227416	73.7501	122.013	6.47937
 415	1	5	0.230059	75.9861	124.424	10.3172
 416	1	6	0.034807	73.2581	125.501	6.15413
 417	1	6	0.022109	74.2928	126.76	8.15817
 418	1	6	0.043894	75.276	124.271	4.73426
 419	1	6	0.04727	74.3052	126.826	4.68337
 420	1	6	0.039454	75.2816	128.144	6.69294
 421	1	6	0.037752	77.0136	126.499	8.07186
 422	1	6	0.046701	77.5609	125.162	5.81668
 423	1	6	0.047659	76.7458	124.075	6.96238
 424	1	5	0.173906	76.8731	125.97	2.40264
 425	1	5	0.156928	78.6825	128.799	6.19571
 426	1	6	0.056509	80.3571	125.239	2.83204
 427	1	6	0.064596	80.8287	125.516	1.1436
 428	1	6	0.065502	79.1788	124.981	1.52878
 429	1	6	0.062922	78.7241	128.661	0.711375
 430	1	6	0.049805	78.1619	127.028	0.297622
 431	1	6	0.059229	79.8022	127.541	-0.149208
 432	1	5	0.166497	82.073	128.03	0.807714
 433	1	5	0.141714	80.8334	130.103	5.24569
 434	1	6	0.041341	84.7694	129.974	2.09383
 435	1	6	0.038019	84.1566	131.019	4.29258
 436	1	6	0.012124	83.8937	131.32	0.176766
 437	1	6	0.001144	81.2497	130.732	0.785752
 438	1	6	0.009013	82.8787	133.137	3.94173
 439	1	6	0.001345	80.6589	131.812	2.95826
 440	1	6	0.041603	84.8733	132.599	2.28307
 441	1	6	0.069352	83.6546	133.606	1.46485
 442	1	1	-0.425718	70.9952	114.971	21.4003
 443	1	1	0.123859	71.7015	114.52	22.5283
 444	1	1	0.123846	73.0291	114.843	22.7824
 445	1	1	-0.442194	73.7476	115.738	21.962
 446	1	1	0.030377	73.111	116.015	20.7356
 447	1	1	0.003389	71.8099	115.612	20.4535
 448	1	2	0.006267	71.5706	116.727	19.4618
 449	1	2	0.040808	73.0387	117.219	19.8029
 450	1	3	0.010049	71.6452	116.333	17.9621
 451	1	2	-0.044998	71.6386	117.775	17.401
 452	1	2	-0.017344	73.0885	118.332	17.7506
 453	1	3	0.004207	73.7855	117.123	18.4458
 454	1	3	-0.10977	73.1238	115.886	17.7747
 455	1	1	-0.002799	72.0331	117.952	15.9479
 456	1	1	-0.006419	73.272	118.465	16.2499
 457	1	1	-0.256521	71.7202	117.39	14.7035
 458	1	1	0.004841	72.716	117.554	13.7124
 459	1	4	0.00733	73.9699	118.147	14.0087
 460	1	1	-0.221146	74.3164	118.548	15.3236
 461	1	3	0.21053	72.6678	117.067	12.2573
 462	1	4	0.0182	74.7882	118.139	12.7883
 463	1	1	0.000377	74.0458	117.517	11.752
 464	1	3	-0.237942	72.5336	115.53	12.1794
 465	1	3	-0.215479	71.5206	117.752	11.4809
 466	1	1	-0.2391	74.5184	117.478	10.4191
 467	1	1	-0.027923	75.7953	118.023	10.2288
 468	1	1	-0.180376	76.0188	118.794	12.536
 469	1	1	-0.054224	76.4948	118.66	11.2277
 470	1	2	0.006282	76.602	118.665	9.10905
 471	1	2	0.015188	77.3872	119.423	10.2664
 472	1	3	0.034756	76.0122	119.826	8.26811
 473	1	3	0.003059	74.8554	120.529	9.03417
 474	1	3	0.042972	77.1024	120.918	9.95661
 475	1	3	0.004163	75.6033	121.277	10.2136
 476	1	3	-0.197219	77.1628	120.849	8.41306
 477	1	5	0.227416	69.9113	114.997	21.358
 478	1	5	0.230059	74.6028	116.301	22.3213
 479	1	6	0.034807	70.7278	117.383	19.7108
 480	1	6	0.022109	73.1597	118.188	20.3002
 481	1	6	0.043894	70.8688	115.654	17.5891
 482	1	6	0.04727	70.7801	118.38	17.7157
 483	1	6	0.039454	73.1396	119.274	18.3101
 484	1	6	0.037752	74.8821	117.139	18.483
 485	1	6	0.046701	73.4058	115.772	16.7199
 486	1	6	0.047659	73.3537	114.946	18.2935
 487	1	5	0.173906	70.7999	116.842	14.5244
 488	1	5	0.156928	75.3201	118.857	15.5969
 489	1	6	0.056509	72.5808	115.187	11.1383
 490	1	6	0.064596	71.5813	115.196	12.6085
 491	1	6	0.065502	73.3468	115.044	12.7337
 492	1	6	0.062922	71.6205	118.843	11.5288
 493	1	6	0.049805	70.5459	117.48	11.9055
 494	1	6	0.059229	71.5271	117.454	10.4254
 495	1	5	0.166497	73.9079	117.124	9.59401
 496	1	5	0.141714	76.5063	119.423	13.2743
 497	1	6	0.041341	77.2143	117.985	8.50626
 498	1	6	0.038019	78.4595	119.203	10.3169
 499	1	6	0.012124	75.7658	119.563	7.23172
 500	1	6	0.001144	74.0229	119.89	9.35096
 501	1	6	0.009013	77.8117	121.623	10.4074
 502	1	6	0.001345	75.212	121.052	11.2129
 503	1	6	0.041603	78.1226	120.461	8.04394
 504	1	6	0.069352	76.967	121.809	7.91822
 505	1	1	-0.425718	74.4603	105.232	37.2495
 506	1	1	0.123859	75.523	104.365	37.5349
 507	1	1	0.123846	76.7787	104.472	36.9507
 508	1	1	-0.442194	77.0908	105.493	36.0244
 509	1	1	0.030377	75.9626	106.202	35.5559
 510	1	1	0.003389	74.7139	106.069	36.1553
 511	1	2	0.006267	74.2832	107.471	35.8158
 512	1	2	0.040808	75.6935	107.643	35.1136
 513	1	3	0.010049	73.2571	107.586	34.6672
 514	1	2	-0.044998	73.3628	109.119	34.5206
 515	1	2	-0.017344	74.762	109.351	33.7921
 516	1	3	0.004207	75.3179	107.901	33.6219
 517	1	3	-0.10977	74.033	107.047	33.4306
 518	1	1	-0.002799	72.7289	109.71	33.2883
 519	1	1	-0.006419	73.9268	109.939	32.6612
 520	1	1	-0.256521	71.4967	109.701	32.6314
 521	1	1	0.004841	71.5518	110.136	31.2896
 522	1	4	0.00733	72.7781	110.478	30.6604
 523	1	1	-0.221146	74.0287	110.311	31.3152
 524	1	3	0.21053	70.3707	110.278	30.3261
 525	1	4	0.0182	72.4781	110.943	29.2958
 526	1	1	0.000377	71.0817	110.824	29.0834
 527	1	3	-0.237942	69.7084	108.914	30.0347
 528	1	3	-0.215479	69.3277	111.278	30.8735
 529	1	1	-0.2391	70.4569	111.376	27.9463
 530	1	1	-0.027923	71.3132	111.97	27.014
 531	1	1	-0.180376	73.2957	111.688	28.4087
 532	1	1	-0.054224	72.6648	112.148	27.2438
 533	1	2	0.006282	71.1957	113.192	26.1331
 534	1	2	0.015188	72.7367	113.424	26.4143
 535	1	3	0.034756	71.1433	112.982	24.6024
 536	1	3	0.003059	71.3489	114.392	23.9963
 537	1	3	0.042972	73.3501	113.388	24.9934
 538	1	3	0.004163	72.871	114.698	24.2886
 539	1	3	-0.197219	72.4978	112.302	24.298
 540	1	5	0.227416	73.6237	105.38	37.9248
 541	1	5	0.230059	78.1086	105.82	35.838
 542	1	6	0.034807	74.0538	108.094	36.6892
 543	1	6	0.022109	76.3895	108.386	35.5201
 544	1	6	0.043894	72.2581	107.172	34.8505
 545	1	6	0.04727	73.1756	109.685	35.4413
 546	1	6	0.039454	75.4633	110.05	34.2628
 547	1	6	0.037752	76.115	107.764	32.8806
 548	1	6	0.046701	73.5217	107.254	32.4814
 549	1	6	0.047659	74.2282	105.968	33.4856
 550	1	5	0.173906	70.5793	109.374	33.1098
 551	1	5	0.156928	74.9795	110.446	30.8103
 552	1	6	0.056509	68.9164	109.017	29.2825
 553	1	6	0.064596	69.2644	108.492	30.9446
 554	1	6	0.065502	70.4491	108.199	29.6532
 555	1	6	0.062922	68.8868	110.912	31.8085
 556	1	6	0.049805	68.5151	111.433	30.1535
 557	1	6	0.059229	69.7957	112.25	31.0756
 558	1	5	0.166497	69.3773	111.446	27.8594
 559	1	5	0.141714	74.3012	111.993	28.6789
 560	1	6	0.041341	70.4904	113.956	26.4797
 561	1	6	0.038019	73.0235	114.325	26.9673
 562	1	6	0.012124	70.2597	112.45	24.2282
 563	1	6	0.001144	70.664	115.168	24.3633
 564	1	6	0.009013	74.4338	113.219	24.9557
 565	1	6	0.001345	73.0357	115.625	24.8536
 566	1	6	0.041603	72.5979	111.309	24.7555
 567	1	6	0.069352	72.7095	112.197	23.226
 568	1	1	-0.425718	83.8917	90.5036	43.8635
 569	1	1	0.123859	84.7242	89.7819	42.9788
 570	1	1	0.123846	85.6742	90.4251	42.1278
 571	1	1	-0.442194	85.7444	91.8427	42.0854
 572	1	1	0.030377	84.9619	92.5149	43.0306
 573	1	1	0.003389	84.121	91.8782	43.9002
 574	1	2	0.006267	83.4427	93.1506	44.3596
 575	1	2	0.040808	84.4046	93.8982	43.3308
 576	1	3	0.010049	82.0168	93.4242	43.8209
 577	1	2	-0.044998	81.9479	94.9079	44.2655
 578	1	2	-0.017344	82.8883	95.6642	43.2188
 579	1	3	0.004207	83.4141	94.5227	42.3043
 580	1	3	-0.10977	82.2294	93.5137	42.2823
 581	1	1	-0.002799	80.8227	95.7391	43.691
 582	1	1	-0.006419	81.6224	96.3868	42.7896
 583	1	1	-0.256521	79.4469	95.9485	43.8157
 584	1	1	0.004841	78.9337	96.929	42.9337
 585	1	4	0.00733	79.761	97.6078	41.9958
 586	1	1	-0.221146	81.1539	97.345	41.8869
 587	1	3	0.21053	77.4908	97.4449	42.8756
 588	1	4	0.0182	78.9397	98.6058	41.2915
 589	1	1	0.000377	77.6195	98.5381	41.807
 590	1	3	-0.237942	76.515	96.3353	42.4256
 591	1	3	-0.215479	77.0496	98.032	44.237
 592	1	1	-0.2391	76.6515	99.5135	41.4836
 593	1	1	-0.027923	77.0565	100.459	40.5359
 594	1	1	-0.180376	79.3475	99.6471	40.4172
 595	1	1	-0.054224	78.3296	100.52	40.0114
 596	1	2	0.006282	76.7583	101.915	40.2523
 597	1	2	0.015188	78.2166	101.99	39.6299
 598	1	3	0.034756	75.8498	102.255	39.0554
 599	1	3	0.003059	76.051	103.773	38.8183
 600	1	3	0.042972	77.9375	102.374	38.1497
 601	1	3	0.004163	77.4859	103.869	38.1628
 602	1	3	-0.197219	76.61	101.636	37.8597
 603	1	5	0.227416	83.1129	90.0256	44.4495
 604	1	5	0.230059	86.3672	92.3729	41.3715
 605	1	6	0.034807	83.5773	93.3775	45.4238
 606	1	6	0.022109	85.1295	94.6071	43.7476
 607	1	6	0.043894	81.2173	92.7622	44.176
 608	1	6	0.04727	82.1369	95.0721	45.3334
 609	1	6	0.039454	83.6737	96.317	43.6176
 610	1	6	0.037752	83.8278	94.8199	41.3325
 611	1	6	0.046701	81.3485	93.9011	41.7536
 612	1	6	0.047659	82.5011	92.5496	41.8334
 613	1	5	0.173906	78.8353	95.4256	44.5445
 614	1	5	0.156928	81.8009	97.8626	41.1863
 615	1	6	0.056509	76.4773	95.5224	43.1613
 616	1	6	0.064596	76.8318	95.91	41.4649
 617	1	6	0.065502	75.5003	96.7336	42.3026
 618	1	6	0.062922	77.7321	98.8321	44.5512
 619	1	6	0.049805	77.0476	97.2605	45.0171
 620	1	6	0.059229	76.0384	98.4523	44.1754
 621	1	5	0.166497	75.6979	99.5802	41.9975
 622	1	5	0.141714	80.389	99.812	40.162
 623	1	6	0.041341	76.5436	102.531	41.1324
 624	1	6	0.038019	78.9409	102.659	40.1071
 625	1	6	0.012124	74.8023	101.944	39.1543
 626	1	6	0.001144	75.9187	104.416	39.6992
 627	1	6	0.009013	78.7496	102.152	37.446
 628	1	6	0.001345	78.1623	104.56	38.6823
 629	1	6	0.041603	76.6966	100.543	37.9182
 630	1	6	0.069352	76.1729	101.883	36.8832
 631	1	1	-0.425718	98.5948	83.1117	42.2901
 632	1	1	0.123859	99.085	83.8688	41.2051
 633	1	1	0.123846	99.1744	85.2887	41.2491
 634	1	1	-0.442194	98.7339	85.9809	42.4118
 635	1	1	0.030377	98.3854	85.1941	43.5161
 636	1	1	0.003389	98.3329	83.8231	43.4623
 637	1	2	0.006267	97.3499	83.7092	44.608
 638	1	2	0.040808	97.4039	85.2953	44.6738
 639	1	3	0.010049	95.881	83.4008	44.2242
 640	1	2	-0.044998	95.261	83.7282	45.6062
 641	1	2	-0.017344	95.292	85.3142	45.6811
 642	1	3	0.004207	95.9493	85.7302	44.3341
 643	1	3	-0.10977	95.4711	84.6231	43.351
 644	1	1	-0.002799	93.754	83.8522	45.6441
 645	1	1	-0.006419	93.7725	85.2299	45.7172
 646	1	1	-0.256521	92.6873	83.1335	45.0929
 647	1	1	0.004841	91.545	83.8981	44.7754
 648	1	4	0.00733	91.5389	85.3109	44.8904
 649	1	1	-0.221146	92.6999	86.0241	45.2859
 650	1	3	0.21053	90.2544	83.3828	44.1305
 651	1	4	0.0182	90.2502	85.8095	44.3775