pySIMM System Object

2259 atoms
2652 bonds
5460 angles
10268 dihedrals
210 impropers

6 atom types
11 bond types
24 angle types
21 dihedral types
1 improper types

-185.020071 185.020071 xlo xhi
-185.020071 185.020071 ylo yhi
-185.020071 185.020071 zlo zhi

Masses

   1	12.01	# ca
   2	12.01	# cy
   3	12.01	# c3
   4	12.01	# cp
   5	1.008	# ha
   6	1.008	# hc

Pair Coeffs

   1	0.086	3.3996695084235347	# ca
   2	0.086	3.3996695084235347	# cy
   3	0.1094	3.3996695084235347	# c3
   4	0.086	3.3996695084235347	# cp
   5	0.015	2.59964245953351	# ha
   6	0.0157	2.649532787749369	# hc

Bond Coeffs

   1	321.0	1.5156	# c3,ca
   2	285.0	1.5562	# cy,cy
   3	330.6	1.0969	# c3,hc
   4	333.3	1.0949	# cy,hc
   5	321.2	1.5154	# ca,cy
   6	461.1	1.3984	# ca,ca
   7	300.9	1.5375	# c3,c3
   8	305.9	1.5319	# c3,cy
   9	351.4	1.4854	# cp,cp
  10	345.8	1.086	# ca,ha
  11	450.2	1.4058	# ca,cp

Angle Coeffs

   1	62.73	112.39	# c3,c3,cy
   2	46.29	110.75	# cy,c3,hc
   3	44.83	114.79	# cy,cy,hc
   4	60.66	118.7	# c3,cy,cy
   5	66.72	118.38	# ca,cp,ca
   6	62.86	111.51	# c3,c3,c3
   7	46.43	110.14	# c3,cy,hc
   8	63.43	120.63	# c3,ca,cp
   9	63.56	112.24	# ca,c3,ca
  10	64.05	121.11	# ca,cp,cp
  11	66.62	120.02	# ca,ca,ca
  12	39.4	107.58	# hc,c3,hc
  13	47.98	119.86	# cp,ca,ha
  14	63.53	120.77	# c3,ca,ca
  15	63.51	120.86	# ca,ca,cy
  16	62.8	113.57	# c3,cy,ca
  17	67.9	96.03	# cy,c3,cy
  18	45.97	114.53	# ca,cy,hc
  19	61.4	116.81	# ca,cy,cy
  20	63.15	112.07	# c3,c3,ca
  21	66.26	120.69	# ca,ca,cp
  22	46.34	109.8	# c3,c3,hc
  23	48.18	119.88	# ca,ca,ha
  24	46.8	110.47	# ca,c3,hc

Dihedral Coeffs

   1	1	0.16	3	0.0	# cy,c3,cy,ca
   2	1	0.16	3	0.0	# c3,c3,cy,ca
   3	1	0.16	3	0.0	# hc,c3,cy,ca
   4	3	0.18	3	0.0	0.25	2	180.0	0.2	1	180.0	# cy,c3,cy,cy
   5	1	0.15	3	0	# hc,c3,c3,hc
   6	3	0.18	3	0.0	0.25	2	180.0	0.2	1	180.0	# c3,c3,cy,cy
   7	1	0.16	3	0.0	# hc,c3,cy,cy
   8	1	0.16	3	0.0	# cy,c3,cy,hc
   9	1	0.16	3	0.0	# c3,c3,cy,hc
  10	1	0.15	3	0.0	# hc,c3,cy,hc
  11	1	3.625	2	180	# X,ca,ca,X
  12	1	0.15555555555555556	3	0	# X,cy,cy,X
  13	1	3.625	2	180	# X,ca,cp,X
  14	3	0.18	3	0	0.25	2	180	0.2	1	180	# c3,c3,c3,c3
  15	1	0.15555555555555556	3	0	# X,c3,c3,X
  16	1	0.16	3	0	# hc,c3,c3,c3
  17	1	1.0	2	180	# X,cp,cp,X
  18	1	0.0	2	0.0	# ca,ca,cy,cy
  19	1	0.0	2	0.0	# ca,ca,cy,c3
  20	1	0.0	2	0	# X,c3,ca,X
  21	3	0.38	3	180.0	0.0	2	0.0	1.15	1	0.0	# ca,ca,cy,hc

Improper Coeffs

   1	1.1	-1	2	# ca,X,X,ha

Atoms

   1	1	1	-0.425718	47.0745	-50.6875	20.1985
   2	1	1	0.123859	46.7313	-51.3451	19.0024
   3	1	1	0.123846	46.9218	-50.7946	17.7483
   4	1	1	-0.442194	47.4671	-49.5128	17.5423
   5	1	1	0.030377	48.0305	-48.9705	18.7152
   6	1	1	0.003389	47.8488	-49.5316	19.9755
   7	1	2	0.006267	48.0892	-48.2205	20.7029
   8	1	2	0.040808	48.2926	-47.5779	19.265
   9	1	3	0.010049	46.8449	-47.4857	21.2689
  10	1	2	-0.044998	47.541	-46.1292	21.5622
  11	1	2	-0.017344	47.7409	-45.4835	20.1246
  12	1	3	0.004207	47.1416	-46.5404	19.1564
  13	1	3	-0.10977	46.0019	-47.1828	19.9975
  14	1	1	-0.002799	46.634	-44.9482	21.8526
  15	1	1	-0.006419	46.8079	-44.386	20.605
  16	1	1	-0.256521	45.4921	-44.729	22.6345
  17	1	1	0.004841	44.5879	-43.7684	22.129
  18	1	4	0.00733	44.768	-43.1841	20.8507
  19	1	1	-0.221146	45.8567	-43.5423	20.0171
  20	1	3	0.21053	43.2457	-43.3507	22.7452
  21	1	4	0.0182	43.5838	-42.3674	20.5423
  22	1	1	0.000377	42.6841	-42.4508	21.6372
  23	1	3	-0.237942	42.3287	-44.5713	22.9845
  24	1	3	-0.215479	43.458	-42.565	24.0581
  25	1	1	-0.2391	41.4853	-41.7008	21.6764
  26	1	1	-0.027923	41.2224	-40.9632	20.5161
  27	1	1	-0.180376	43.3346	-41.5232	19.4295
  28	1	1	-0.054224	42.0939	-40.8768	19.4589
  29	1	2	0.006282	40.3904	-39.7749	20.0666
  30	1	2	0.015188	41.4007	-39.6726	18.8458
  31	1	3	0.034756	40.5471	-38.3993	20.7607
  32	1	3	0.003059	41.9288	-38.2364	21.4504
  33	1	3	0.042972	41.9973	-38.2529	19.0131
  34	1	3	0.004163	42.9178	-38.1378	20.2587
  35	1	3	-0.197219	40.7572	-37.4946	19.5294
  36	1	5	0.227416	46.6831	-50.9716	21.17
  37	1	5	0.230059	47.3558	-48.9582	16.6162
  38	1	6	0.034807	48.9566	-48.2216	21.3736
  39	1	6	0.022109	49.2863	-47.1744	19.0375
  40	1	6	0.043894	46.324	-47.9668	22.1061
  41	1	6	0.04727	48.4261	-46.2005	22.2055
  42	1	6	0.039454	48.752	-45.1491	19.8635
  43	1	6	0.037752	46.8793	-46.1959	18.1484
  44	1	6	0.046701	45.1688	-46.4944	20.1887
  45	1	6	0.047659	45.5939	-48.0874	19.5359
  46	1	5	0.173906	45.2844	-45.3086	23.5283
  47	1	5	0.156928	45.9078	-43.2484	18.9737
  48	1	6	0.056509	41.3402	-44.2545	23.3391
  49	1	6	0.064596	42.7591	-45.2473	23.7331
  50	1	6	0.065502	42.1904	-45.1369	22.0542
  51	1	6	0.062922	43.9437	-43.1931	24.8149
  52	1	6	0.049805	42.5022	-42.2147	24.4665
  53	1	6	0.059229	44.0954	-41.6887	23.8841
  54	1	5	0.166497	40.8426	-41.6649	22.5505
  55	1	5	0.141714	44.0666	-41.3538	18.6465
  56	1	6	0.041341	39.3518	-39.9851	19.7885
  57	1	6	0.038019	40.948	-39.8205	17.8592
  58	1	6	0.012124	39.7009	-38.1117	21.3974
  59	1	6	0.001144	42.1692	-39.0621	22.1301
  60	1	6	0.009013	42.4387	-37.8341	18.0999
  61	1	6	0.001345	43.6941	-38.9112	20.2912
  62	1	6	0.041603	39.9133	-37.5263	18.8263
  63	1	6	0.069352	40.9718	-36.4498	19.7949
  64	1	1	-0.425718	44.1325	-62.7755	9.91207
  65	1	1	0.123859	43.0582	-62.6223	9.015
  66	1	1	0.123846	42.8861	-61.5052	8.21889
  67	1	1	-0.442194	43.7603	-60.4028	8.22945
  68	1	1	0.030377	44.9496	-60.6669	8.9367
  69	1	1	0.003389	45.1292	-61.795	9.73144
  70	1	2	0.006267	46.1898	-61.1359	10.5973
  71	1	2	0.040808	45.9772	-59.8459	9.69544
  72	1	3	0.010049	45.7651	-60.6728	12.0163
  73	1	2	-0.044998	47.0104	-59.7913	12.3108
  74	1	2	-0.017344	46.7825	-58.499	11.4138
  75	1	3	0.004207	45.4386	-58.7809	10.69
  76	1	3	-0.10977	44.6497	-59.6277	11.7292
  77	1	1	-0.002799	46.9174	-58.8529	13.4992
  78	1	1	-0.006419	46.7126	-57.7326	12.7228
  79	1	1	-0.256521	46.4999	-58.9461	14.8328
  80	1	1	0.004841	45.9753	-57.7555	15.384
  81	1	4	0.00733	45.7552	-56.604	14.5866
  82	1	1	-0.221146	46.0552	-56.5915	13.2009
  83	1	3	0.21053	45.4202	-57.5637	16.8016
  84	1	4	0.0182	45.0343	-55.6092	15.3977
  85	1	1	0.000377	44.8288	-56.1531	16.6939
  86	1	3	-0.237942	44.3235	-58.6026	17.1279
  87	1	3	-0.215479	46.5518	-57.6204	17.8515
  88	1	1	-0.2391	44.2019	-55.4144	17.7248
  89	1	1	-0.027923	43.7292	-54.1591	17.3284
  90	1	1	-0.180376	44.624	-54.292	15.0618
  91	1	1	-0.054224	43.9282	-53.6295	16.079
  92	1	2	0.006282	43.2397	-52.8532	17.9264
  93	1	2	0.015188	43.4682	-52.2362	16.474
  94	1	3	0.034756	44.1777	-52.0022	18.8184
  95	1	3	0.003059	45.6744	-52.3246	18.523
  96	1	3	0.042972	44.4993	-51.1089	16.7363
  97	1	3	0.004163	45.8974	-51.7005	17.0857
  98	1	3	-0.197219	43.9918	-50.6369	18.1181
  99	1	5	0.227416	44.1339	-63.4933	10.726
 100	1	5	0.230059	43.4947	-59.425	7.84095
 101	1	6	0.034807	47.1757	-61.6137	10.5555
 102	1	6	0.022109	46.832	-59.513	9.09491
 103	1	6	0.043894	45.5312	-61.4598	12.744
 104	1	6	0.04727	47.971	-60.3093	12.2056
 105	1	6	0.039454	47.6025	-58.2016	10.7493
 106	1	6	0.037752	44.9187	-57.9173	10.257
 107	1	6	0.046701	44.3605	-59.0542	12.6192
 108	1	6	0.047659	43.7453	-60.079	11.3083
 109	1	5	0.173906	46.5201	-59.8823	15.3814
 110	1	5	0.156928	45.7336	-55.789	12.5451
 111	1	6	0.056509	43.8708	-58.3997	18.1062
 112	1	6	0.064596	44.7362	-59.6184	17.1478
 113	1	6	0.065502	43.5279	-58.5725	16.3726
 114	1	6	0.062922	47.3242	-56.8741	17.6259
 115	1	6	0.049805	47.0275	-58.6088	17.8611
 116	1	6	0.059229	46.1656	-57.4164	18.8575
 117	1	5	0.166497	44.1121	-55.7805	18.7428
 118	1	5	0.141714	44.8523	-53.8295	14.1071
 119	1	6	0.041341	42.2022	-52.8371	18.278
 120	1	6	0.038019	42.5624	-51.8651	15.9819
 121	1	6	0.012124	43.9244	-52.0038	19.886
 122	1	6	0.001144	45.9728	-53.3764	18.614
 123	1	6	0.009013	44.5276	-50.3236	15.9706
 124	1	6	0.001345	46.3281	-52.3929	16.3517
 125	1	6	0.041603	42.9425	-50.3103	18.0959
 126	1	6	0.069352	44.5914	-49.832	18.5558
 127	1	1	-0.425718	34.5078	-66.671	-2.22195
 128	1	1	0.123859	33.3345	-65.9632	-2.54531
 129	1	1	0.123846	33.2404	-64.5855	-2.49453
 130	1	1	-0.442194	34.3056	-63.742	-2.13251
 131	1	1	0.030377	35.5297	-64.4339	-2.05857
 132	1	1	0.003389	35.6253	-65.8213	-2.09376
 133	1	2	0.006267	36.9548	-65.8467	-1.35843
 134	1	2	0.040808	36.8432	-64.2621	-1.32049
 135	1	3	0.010049	36.9377	-66.255	0.140296
 136	1	2	-0.044998	38.3781	-65.7826	0.481537
 137	1	2	-0.017344	38.2566	-64.1941	0.516683
 138	1	3	0.004207	36.7635	-63.9274	0.192799
 139	1	3	-0.10977	36.0414	-65.1661	0.796534
 140	1	1	-0.002799	38.7439	-65.6746	1.95049
 141	1	1	-0.006419	38.6341	-64.3061	1.98022
 142	1	1	-0.256521	38.7597	-66.4738	3.0997
 143	1	1	0.004841	38.7765	-65.7528	4.31709
 144	1	4	0.00733	38.6427	-64.34	4.34887
 145	1	1	-0.221146	38.5044	-63.5726	3.16405
 146	1	3	0.21053	38.8461	-66.3325	5.73628
 147	1	4	0.0182	38.5988	-63.9083	5.754
 148	1	1	0.000377	38.7375	-65.0547	6.57924
 149	1	3	-0.237942	37.663	-67.2852	6.0178
 150	1	3	-0.215479	40.1922	-67.0527	5.97392
 151	1	1	-0.2391	38.88	-64.9465	7.98234
 152	1	1	-0.027923	38.7533	-63.6458	8.48472
 153	1	1	-0.180376	38.5743	-62.5959	6.29065
 154	1	1	-0.054224	38.5968	-62.5364	7.68854
 155	1	2	0.006282	39.1657	-62.8446	9.7078
 156	1	2	0.015188	38.9773	-61.5592	8.78725
 157	1	3	0.034756	40.6574	-62.7556	10.1248
 158	1	3	0.003059	41.6004	-63.0414	8.91566
 159	1	3	0.042972	40.3823	-60.9064	8.80613
 160	1	3	0.004163	41.4066	-61.7627	8.00308
 161	1	3	-0.197219	40.7708	-61.2206	10.269
 162	1	5	0.227416	34.5246	-67.7312	-1.9908
 163	1	5	0.230059	34.1775	-62.7058	-1.83671
 164	1	6	0.034807	37.7865	-66.2719	-1.93243
 165	1	6	0.022109	37.6047	-63.6963	-1.87042
 166	1	6	0.043894	36.6925	-67.3004	0.365616
 167	1	6	0.04727	39.1602	-66.2099	-0.157169
 168	1	6	0.039454	38.9648	-63.6246	-0.096988
 169	1	6	0.037752	36.3665	-62.9407	0.461907
 170	1	6	0.046701	36.0762	-65.1885	1.89346
 171	1	6	0.047659	34.9922	-65.2375	0.487241
 172	1	5	0.173906	38.739	-67.5582	3.05832
 173	1	5	0.156928	38.2874	-62.5095	3.17439
 174	1	6	0.056509	37.7061	-68.1689	5.36959
 175	1	6	0.064596	36.7075	-66.7765	5.83739
 176	1	6	0.065502	37.6748	-67.6248	7.06072
 177	1	6	0.062922	41.0317	-66.3713	5.78592
 178	1	6	0.049805	40.2984	-67.9149	5.30408
 179	1	6	0.059229	40.2703	-67.4117	7.00723
 180	1	5	0.166497	39.1234	-65.7947	8.61452
 181	1	5	0.141714	38.6038	-61.7086	5.66657
 182	1	6	0.041341	38.4938	-62.8948	10.5718
 183	1	6	0.038019	38.1933	-60.8681	9.11626
 184	1	6	0.012124	40.9158	-63.3166	11.0316
 185	1	6	0.001144	41.4513	-63.9965	8.39756
 186	1	6	0.009013	40.3978	-59.8394	8.55094
 187	1	6	0.001345	41.149	-61.9809	6.95983
 188	1	6	0.041603	40.0565	-60.8084	10.9956
 189	1	6	0.069352	41.7741	-60.8759	10.5422
 190	1	1	-0.425718	23.5696	-61.2964	-12.2818
 191	1	1	0.123859	22.53	-60.3888	-11.9994
 192	1	1	0.123846	22.638	-59.3826	-11.0587
 193	1	1	-0.442194	23.8029	-59.1201	-10.3172
 194	1	1	0.030377	24.9058	-59.8554	-10.7908
 195	1	1	0.003389	24.7923	-60.8986	-11.7031
 196	1	2	0.006267	26.0863	-61.5612	-11.257
 197	1	2	0.040808	26.2173	-60.3594	-10.2245
 198	1	3	0.010049	25.9801	-62.817	-10.3455
 199	1	2	-0.044998	27.4705	-62.8603	-9.90545
 200	1	2	-0.017344	27.596	-61.6423	-8.88218
 201	1	3	0.004207	26.1661	-61.0455	-8.8354
 202	1	3	-0.10977	25.2521	-62.2806	-9.0797
 203	1	1	-0.002799	27.8298	-63.7398	-8.71975
 204	1	1	-0.006419	27.9345	-62.6906	-7.84465
 205	1	1	-0.256521	27.8361	-65.0829	-8.32556
 206	1	1	0.004841	28.0478	-65.2808	-6.93865
 207	1	4	0.00733	28.132	-64.1914	-6.03098
 208	1	1	-0.221146	28.0335	-62.8427	-6.45958
 209	1	3	0.21053	28.1847	-66.6203	-6.20089
 210	1	4	0.0182	28.3123	-64.7268	-4.67418
 211	1	1	0.000377	28.3696	-66.1417	-4.75326
 212	1	3	-0.237942	26.9077	-67.477	-6.34462
 213	1	3	-0.215479	29.422	-67.4018	-6.69773
 214	1	1	-0.2391	28.7207	-66.931	-3.63292
 215	1	1	-0.027923	28.8852	-66.2206	-2.43619
 216	1	1	-0.180376	28.583	-64.0318	-3.4695
 217	1	1	-0.054224	28.8087	-64.8487	-2.3561
 218	1	2	0.006282	29.6572	-66.3606	-1.13269
 219	1	2	0.015188	29.5692	-64.7749	-1.0445
 220	1	3	0.034756	31.1877	-66.6216	-1.14057
 221	1	3	0.003059	31.8297	-66.1675	-2.48585
 222	1	3	0.042972	31.0569	-64.3409	-1.02913
 223	1	3	0.004163	31.7267	-64.5891	-2.41553
 224	1	3	-0.197219	31.6307	-65.4963	-0.176867
 225	1	5	0.227416	23.4215	-62.2395	-12.7979
 226	1	5	0.230059	23.8229	-58.504	-9.42406
 227	1	6	0.034807	26.8556	-61.6325	-12.0348
 228	1	6	0.022109	27.0633	-59.6752	-10.3616
 229	1	6	0.043894	25.5725	-63.7273	-10.8026
 230	1	6	0.04727	28.1864	-62.8935	-10.7353
 231	1	6	0.039454	28.3907	-60.9096	-9.06722
 232	1	6	0.037752	25.9224	-60.4081	-7.97634
 233	1	6	0.046701	25.2669	-62.9937	-8.24518
 234	1	6	0.047659	24.2086	-62.0047	-9.27538
 235	1	5	0.173906	27.6923	-65.9007	-9.02447
 236	1	5	0.156928	28.0313	-62.0025	-5.77305
 237	1	6	0.056509	26.7428	-67.7646	-7.39015
 238	1	6	0.064596	26.028	-66.9172	-6.00246
 239	1	6	0.065502	26.9819	-68.3923	-5.74464
 240	1	6	0.062922	29.5545	-68.3317	-6.13173
 241	1	6	0.049805	30.3318	-66.7993	-6.57971
 242	1	6	0.059229	29.3216	-67.6603	-7.75892
 243	1	5	0.166497	28.9243	-67.9946	-3.70903
 244	1	5	0.141714	28.6986	-62.9534	-3.43383
 245	1	6	0.041341	29.149	-66.8947	-0.322308
 246	1	6	0.038019	29.0145	-64.3913	-0.181
 247	1	6	0.012124	31.484	-67.6301	-0.826106
 248	1	6	0.001144	31.4127	-66.6105	-3.39806
 249	1	6	0.009013	31.2401	-63.3397	-0.619505
 250	1	6	0.001345	31.2475	-64.1219	-3.2834
 251	1	6	0.041603	31.154	-65.5721	0.810601
 252	1	6	0.069352	32.7159	-65.4407	-0.030016
 253	1	1	-0.425718	15.9189	-48.1485	-15.6928
 254	1	1	0.123859	15.1737	-47.2769	-14.8752
 255	1	1	0.123846	15.3228	-47.214	-13.5026
 256	1	1	-0.442194	16.2626	-47.9709	-12.7811
 257	1	1	0.030377	17.1752	-48.63	-13.6267
 258	1	1	0.003389	16.9999	-48.733	-15.0026
 259	1	2	0.006267	17.8364	-49.9977	-15.1154
 260	1	2	0.040808	18.046	-49.8674	-13.5455
 261	1	3	0.010049	17.0846	-51.3505	-15.2746
 262	1	2	-0.044998	18.2969	-52.2785	-14.983
 263	1	2	-0.017344	18.513	-52.1274	-13.408
 264	1	3	0.004207	17.3936	-51.1496	-12.9688
 265	1	3	-0.10977	16.2418	-51.4477	-13.9709
 266	1	1	-0.002799	18.0084	-53.7405	-14.6833
 267	1	1	-0.006419	18.1931	-53.6038	-13.3344
 268	1	1	-0.256521	17.7813	-54.9678	-15.3168
 269	1	1	0.004841	17.7295	-56.0753	-14.4326
 270	1	4	0.00733	17.9032	-55.9249	-13.0298
 271	1	1	-0.221146	18.1593	-54.6652	-12.429
 272	1	3	0.21053	17.586	-57.5581	-14.8084
 273	1	4	0.0182	17.8938	-57.2577	-12.4121
 274	1	1	0.000377	17.7395	-58.2287	-13.4341
 275	1	3	-0.237942	16.1959	-57.8479	-15.4152
 276	1	3	-0.215479	18.7046	-57.9992	-15.7798
 277	1	1	-0.2391	17.897	-59.6106	-13.1693
 278	1	1	-0.027923	18.094	-59.9385	-11.8202
 279	1	1	-0.180376	18.1928	-57.6175	-11.0755
 280	1	1	-0.054224	18.2215	-58.9934	-10.8276
 281	1	2	0.006282	18.755	-61.0413	-11.0022
 282	1	2	0.015188	18.9116	-59.9402	-9.86543
 283	1	3	0.034756	20.2241	-61.47	-11.2699
 284	1	3	0.003059	21.0101	-60.3492	-12.0099
 285	1	3	0.042972	20.4456	-59.8556	-9.66546
 286	1	3	0.004163	21.1397	-59.2172	-10.91
 287	1	3	-0.197219	20.7834	-61.3551	-9.83239
 288	1	5	0.227416	15.6276	-48.4205	-16.7022
 289	1	5	0.230059	16.2186	-48.1176	-11.7068
 290	1	6	0.034807	18.7293	-49.9013	-15.7443
 291	1	6	0.022109	19.0676	-49.6808	-13.1935
 292	1	6	0.043894	16.5532	-51.513	-16.2206
 293	1	6	0.04727	19.1589	-52.107	-15.6385
 294	1	6	0.039454	19.5139	-51.8597	-13.0485
 295	1	6	0.037752	17.1352	-51.1379	-11.9026
 296	1	6	0.046701	15.7949	-52.4396	-13.8248
 297	1	6	0.047659	15.4395	-50.7018	-13.9284
 298	1	5	0.173906	17.6974	-55.0664	-16.3945
 299	1	5	0.156928	18.3565	-54.5427	-11.3692
 300	1	6	0.056509	16.0615	-57.311	-16.3622
 301	1	6	0.064596	15.4017	-57.5292	-14.7281
 302	1	6	0.065502	16.0687	-58.9204	-15.6066
 303	1	6	0.062922	19.6925	-57.8023	-15.3443
 304	1	6	0.049805	18.637	-57.455	-16.7297
 305	1	6	0.059229	18.6366	-59.0717	-15.9982
 306	1	5	0.166497	17.9429	-60.3539	-13.9591
 307	1	5	0.141714	18.474	-56.8854	-10.3256
 308	1	6	0.041341	18.1187	-61.8914	-10.7326
 309	1	6	0.038019	18.3803	-60.1606	-8.93288
 310	1	6	0.012124	20.3384	-62.4632	-11.722
 311	1	6	0.001144	20.5882	-60.0097	-12.9634
 312	1	6	0.009013	20.7615	-59.422	-8.70835
 313	1	6	0.001345	20.7811	-58.23	-11.2227
 314	1	6	0.041603	20.2455	-61.9931	-9.11707
 315	1	6	0.069352	21.8547	-61.579	-9.75294
 316	1	1	-0.425718	9.7031	-34.5173	-10.2827
 317	1	1	0.123859	8.56532	-34.4967	-9.45538
 318	1	1	0.123846	8.37735	-35.3646	-8.39643
 319	1	1	-0.442194	9.31832	-36.3384	-8.01242
 320	1	1	0.030377	10.5541	-36.178	-8.67183
 321	1	1	0.003389	10.7295	-35.3262	-9.75779
 322	1	2	0.006267	11.9038	-36.1111	-10.3144
 323	1	2	0.040808	11.7161	-37.0735	-9.06439
 324	1	3	0.010049	11.6287	-37.0328	-11.536
 325	1	2	-0.044998	12.9655	-37.8208	-11.4855
 326	1	2	-0.017344	12.7969	-38.7717	-10.2213
 327	1	3	0.004207	11.3718	-38.4465	-9.6968
 328	1	3	-0.10977	10.595	-38.0577	-10.9873
 329	1	1	-0.002799	13.0498	-39.1005	-12.3003
 330	1	1	-0.006419	12.9136	-39.92	-11.2025
 331	1	1	-0.256521	12.7555	-39.5166	-13.6063
 332	1	1	0.004841	12.4477	-40.8911	-13.7412
 333	1	4	0.00733	12.3083	-41.7318	-12.6088
 334	1	1	-0.221146	12.4693	-41.2431	-11.2891
 335	1	3	0.21053	12.094	-41.6457	-15.0318
 336	1	4	0.0182	11.8585	-43.0546	-13.0614
 337	1	1	0.000377	11.7355	-43.0313	-14.4741
 338	1	3	-0.237942	10.8836	-41.0061	-15.7477
 339	1	3	-0.215479	13.3107	-41.7171	-15.9813
 340	1	1	-0.2391	11.4466	-44.204	-15.2125
 341	1	1	-0.027923	11.1896	-45.3423	-14.4354
 342	1	1	-0.180376	11.7013	-44.2473	-12.3142
 343	1	1	-0.054224	11.3102	-45.3599	-13.0653
 344	1	2	0.006282	11.2553	-46.8582	-14.5676
 345	1	2	0.015188	11.4171	-46.8696	-12.9845
 346	1	3	0.034756	12.55	-47.5633	-15.0526
 347	1	3	0.003059	13.7911	-46.6477	-14.8511
 348	1	3	0.042972	12.8014	-47.5353	-12.7795
 349	1	3	0.004163	13.9531	-46.6045	-13.2767
 350	1	3	-0.197219	12.7189	-48.5891	-13.9077
 351	1	5	0.227416	9.73964	-34.0551	-11.264
 352	1	5	0.230059	9.08192	-37.1798	-7.36919
 353	1	6	0.034807	12.8442	-35.5504	-10.3728
 354	1	6	0.022109	12.5339	-37.1055	-8.33463
 355	1	6	0.043894	11.3812	-36.5387	-12.4837
 356	1	6	0.04727	13.8637	-37.193	-11.5209
 357	1	6	0.039454	13.5846	-38.7349	-9.45926
 358	1	6	0.037752	10.9032	-39.19	-9.04024
 359	1	6	0.046701	10.4353	-38.9081	-11.6627
 360	1	6	0.047659	9.62007	-37.6045	-10.7752
 361	1	5	0.173906	12.7214	-38.8254	-14.4424
 362	1	5	0.156928	12.2136	-41.8311	-10.4138
 363	1	6	0.056509	10.5855	-41.6016	-16.6194
 364	1	6	0.064596	11.1201	-39.9918	-16.091
 365	1	6	0.065502	10.0237	-40.9441	-15.0686
 366	1	6	0.062922	13.0781	-42.3076	-16.8758
 367	1	6	0.049805	14.1663	-42.1851	-15.4779
 368	1	6	0.059229	13.6143	-40.7136	-16.3037
 369	1	5	0.166497	11.4847	-44.2361	-16.2969
 370	1	5	0.141714	11.9416	-44.3098	-11.2577
 371	1	6	0.041341	10.3507	-47.3515	-14.9399
 372	1	6	0.038019	10.6186	-47.3878	-12.4419
 373	1	6	0.012124	12.4848	-48.0078	-16.0536
 374	1	6	0.001144	13.7512	-45.6628	-15.3316
 375	1	6	0.009013	12.9672	-47.9528	-11.7785
 376	1	6	0.001345	13.9901	-45.5962	-12.8478
 377	1	6	0.041603	11.8503	-49.2546	-13.804
 378	1	6	0.069352	13.6179	-49.2107	-13.9983
 379	1	1	-0.425718	-0.891725	-27.7435	-0.515496
 380	1	1	0.123859	-2.20198	-28.1866	-0.264693
 381	1	1	0.123846	-2.5403	-29.5107	-0.0615863
 382	1	1	-0.442194	-1.60294	-30.5625	-0.0743403
 383	1	1	0.030377	-0.273415	-30.0905	-0.0801464
 384	1	1	0.003389	0.0588425	-28.7574	-0.294987
 385	1	2	0.006267	1.4595	-29.0762	-0.77692
 386	1	2	0.040808	1.09173	-30.6007	-0.516525
 387	1	3	0.010049	1.70982	-29.0092	-2.30841
 388	1	2	-0.044998	3.09542	-29.7038	-2.29598
 389	1	2	-0.017344	2.75697	-31.2347	-2.01535
 390	1	3	0.004207	1.20404	-31.2547	-1.9198
 391	1	3	-0.10977	0.768625	-30.1092	-2.87806
 392	1	1	-0.002799	3.64403	-30.1796	-3.62755
 393	1	1	-0.006419	3.37175	-31.5029	-3.3765
 394	1	1	-0.256521	3.85966	-29.6718	-4.91468
 395	1	1	0.004841	3.94096	-30.6516	-5.93189
 396	1	4	0.00733	3.70511	-32.0248	-5.66457
 397	1	1	-0.221146	3.33279	-32.4823	-4.3746
 398	1	3	0.21053	4.17638	-30.4141	-7.42992
 399	1	4	0.0182	3.79387	-32.7668	-6.93113
 400	1	1	0.000377	4.05695	-31.8436	-7.9758
 401	1	3	-0.237942	3.09285	-29.4945	-8.03532
 402	1	3	-0.215479	5.58575	-29.8326	-7.68151
 403	1	1	-0.2391	4.31352	-32.2714	-9.29946
 404	1	1	-0.027923	4.20496	-33.653	-9.50571
 405	1	1	-0.180376	3.82043	-34.1671	-7.14889
 406	1	1	-0.054224	3.99119	-34.5493	-8.48417
 407	1	2	0.006282	4.7528	-34.7055	-10.4572
 408	1	2	0.015188	4.52739	-35.7356	-9.26554
 409	1	3	0.034756	6.27491	-34.8106	-10.7292
 410	1	3	0.003059	7.09077	-34.1628	-9.57331
 411	1	3	0.042972	5.95978	-36.2701	-8.99662
 412	1	3	0.004163	6.87045	-35.1673	-8.36951
 413	1	3	-0.197219	6.46804	-36.3202	-10.456
 414	1	5	0.227416	-0.654425	-26.7687	-0.929236
 415	1	5	0.230059	-1.8744	-31.6087	-0.170481
 416	1	6	0.034807	2.26163	-28.6463	-0.165427
 417	1	6	0.022109	1.65615	-31.1198	0.267142
 418	1	6	0.043894	1.65673	-28.0186	-2.77694
 419	1	6	0.04727	3.83559	-29.2283	-1.64143
 420	1	6	0.039454	3.27169	-31.7141	-1.1742
 421	1	6	0.037752	0.711607	-32.2259	-2.0528
 422	1	6	0.046701	0.967598	-30.3376	-3.93314
 423	1	6	0.047659	-0.293005	-29.8523	-2.77861
 424	1	5	0.173906	3.9235	-28.6077	-5.11852
 425	1	5	0.156928	3.00339	-33.4989	-4.18579
 426	1	6	0.056509	2.09153	-29.9015	-7.84551
 427	1	6	0.064596	3.22142	-29.4015	-9.12066
 428	1	6	0.065502	3.14062	-28.49	-7.59779
 429	1	6	0.062922	6.35524	-30.4944	-7.26381
 430	1	6	0.049805	5.69311	-28.8478	-7.21033
 431	1	6	0.059229	5.7803	-29.7205	-8.75497
 432	1	5	0.166497	4.64609	-31.5923	-10.0783
 433	1	5	0.141714	3.79347	-34.8838	-6.3344
 434	1	6	0.041341	4.15689	-34.9039	-11.3548
 435	1	6	0.038019	3.81533	-36.5401	-9.48032
 436	1	6	0.012124	6.58761	-34.4864	-11.7297
 437	1	6	0.001144	6.86439	-33.1153	-9.3425
 438	1	6	0.009013	5.99997	-37.2316	-8.46953
 439	1	6	0.001345	6.50477	-34.6993	-7.44766
 440	1	6	0.041603	5.84151	-36.9513	-11.1019
 441	1	6	0.069352	7.50681	-36.6578	-10.5509
 442	1	1	-0.425718	-13.6037	-27.9999	9.25314
 443	1	1	0.123859	-14.8297	-28.6603	9.43672
 444	1	1	0.123846	-15.2167	-29.7761	8.70634
 445	1	1	-0.442194	-14.3724	-30.3706	7.74499
 446	1	1	0.030377	-13.2563	-29.5784	7.4039
 447	1	1	0.003389	-12.9028	-28.4369	8.11735
 448	1	2	0.006267	-11.4322	-28.561	7.78734
 449	1	2	0.040808	-11.8202	-29.8707	6.98317
 450	1	3	0.010049	-10.8888	-27.5956	6.70179
 451	1	2	-0.044998	-9.52074	-28.2956	6.51945
 452	1	2	-0.017344	-9.86879	-29.6317	5.72316
 453	1	3	0.004207	-11.4115	-29.5381	5.52096
 454	1	3	-0.10977	-11.6725	-28.0077	5.42307
 455	1	1	-0.002799	-8.70572	-27.9064	5.30429
 456	1	1	-0.006419	-8.97896	-29.0687	4.62717
 457	1	1	-0.256521	-8.21996	-26.7504	4.68386
 458	1	1	0.004841	-7.86071	-26.919	3.32654
 459	1	4	0.00733	-8.06762	-28.1463	2.64377
 460	1	1	-0.221146	-8.71457	-29.2474	3.26458
 461	1	3	0.21053	-7.29252	-25.8505	2.38451
 462	1	4	0.0182	-7.60291	-27.9874	1.25616
 463	1	1	0.000377	-7.16398	-26.6495	1.08127
 464	1	3	-0.237942	-8.27045	-24.6665	2.21828
 465	1	3	-0.215479	-5.91514	-25.3534	2.87879
 466	1	1	-0.2391	-6.53582	-26.2217	-0.110409
 467	1	1	-0.027923	-6.44293	-27.1935	-1.11475
 468	1	1	-0.180376	-7.37027	-28.9796	0.269963
 469	1	1	-0.054224	-6.81338	-28.5056	-0.924456
 470	1	2	0.006282	-5.52507	-27.5118	-2.28271
 471	1	2	0.015188	-5.93856	-29.0302	-2.05289
 472	1	3	0.034756	-3.98824	-27.5303	-2.08919
 473	1	3	0.003059	-3.61918	-27.7676	-0.594755
 474	1	3	0.042972	-4.57587	-29.7145	-1.75195
 475	1	3	0.004163	-4.01484	-29.2832	-0.361459
 476	1	3	-0.197219	-3.68281	-28.9073	-2.72293
 477	1	5	0.227416	-13.1589	-27.3648	10.0128
 478	1	5	0.230059	-14.471	-31.408	7.44182
 479	1	6	0.034807	-10.7794	-28.6594	8.66295
 480	1	6	0.022109	-11.4303	-30.8326	7.33671
 481	1	6	0.043894	-10.8693	-26.5274	6.95177
 482	1	6	0.04727	-8.93728	-28.4017	7.44191
 483	1	6	0.039454	-9.52442	-30.5772	6.15858
 484	1	6	0.037752	-11.8465	-30.1647	4.73245
 485	1	6	0.046701	-11.2601	-27.5634	4.50783
 486	1	6	0.047659	-12.7388	-27.7528	5.47729
 487	1	5	0.173906	-8.15048	-25.7965	5.1971
 488	1	5	0.156928	-9.00768	-30.1397	2.72087
 489	1	6	0.056509	-7.89501	-23.95	1.47732
 490	1	6	0.064596	-8.40978	-24.1358	3.16792
 491	1	6	0.065502	-9.25194	-25.0222	1.88002
 492	1	6	0.062922	-5.21565	-26.1933	2.97771
 493	1	6	0.049805	-6.00223	-24.867	3.8581
 494	1	6	0.059229	-5.4815	-24.6308	2.17702
 495	1	5	0.166497	-6.07113	-25.2452	-0.205056
 496	1	5	0.141714	-7.52119	-30.0367	0.46402
 497	1	6	0.041341	-5.81582	-27.0978	-3.25448
 498	1	6	0.038019	-6.46043	-29.4968	-2.89569
 499	1	6	0.012124	-3.45581	-26.6891	-2.55053
 500	1	6	0.001144	-4.03971	-27.0653	0.13372
 501	1	6	0.009013	-4.55996	-30.7989	-1.91863
 502	1	6	0.001345	-4.67066	-29.453	0.500885
 503	1	6	0.041603	-4.02053	-28.9775	-3.76651
 504	1	6	0.069352	-2.62239	-29.1868	-2.68642
 505	1	1	-0.425718	-30.8766	-32.5085	16.5843
 506	1	1	0.123859	-31.9857	-33.1744	16.0412
 507	1	1	0.123846	-31.9519	-33.8804	14.847
 508	1	1	-0.442194	-30.7628	-34.034	14.101
 509	1	1	0.030377	-29.7183	-33.1824	14.522
 510	1	1	0.003389	-29.7881	-32.446	15.7008
 511	1	2	0.006267	-28.2923	-32.4221	15.8969
 512	1	2	0.040808	-28.1933	-33.27	14.5607
 513	1	3	0.010049	-27.5876	-31.086	15.5551
 514	1	2	-0.044998	-26.1484	-31.6422	15.627
 515	1	2	-0.017344	-25.9902	-32.5104	14.2976
 516	1	3	0.004207	-27.3798	-32.3484	13.6048
 517	1	3	-0.10977	-27.832	-30.9219	14.0277
 518	1	1	-0.002799	-25.0574	-30.767	15.0597
 519	1	1	-0.006419	-24.8897	-31.5219	13.9298
 520	1	1	-0.256521	-24.2319	-29.7072	15.4338
 521	1	1	0.004841	-23.1676	-29.4627	14.5371
 522	1	4	0.00733	-22.9307	-30.2869	13.4015
 523	1	1	-0.221146	-23.793	-31.3712	13.0697
 524	1	3	0.21053	-22.0697	-28.4102	14.7064
 525	1	4	0.0182	-21.6463	-29.8734	12.7983
 526	1	1	0.000377	-21.1387	-28.7803	13.5486
 527	1	3	-0.237942	-22.6322	-26.982	14.5368
 528	1	3	-0.215479	-21.3599	-28.5548	16.0732
 529	1	1	-0.2391	-19.8377	-28.2766	13.3418
 530	1	1	-0.027923	-19.1335	-28.8608	12.2865
 531	1	1	-0.180376	-20.8464	-30.5317	11.8245
 532	1	1	-0.054224	-19.6024	-29.936	11.5615
 533	1	2	0.006282	-17.6803	-29.1639	12.0056
 534	1	2	0.015188	-18.2039	-30.4064	11.1694
 535	1	3	0.034756	-16.953	-28.3023	10.9515
 536	1	3	0.003059	-15.633	-29.0565	10.6562
 537	1	3	0.042972	-17.6551	-30.1054	9.74835
 538	1	3	0.004163	-16.1072	-30.3123	9.82136
 539	1	3	-0.197219	-17.7738	-28.566	9.66744
 540	1	5	0.227416	-30.8049	-32.2402	17.6336
 541	1	5	0.230059	-30.6133	-34.8459	13.3963
 542	1	6	0.034807	-27.9544	-32.8801	16.8343
 543	1	6	0.022109	-27.7967	-34.2902	14.6219
 544	1	6	0.043894	-27.8191	-30.2241	16.1933
 545	1	6	0.04727	-25.8942	-32.1123	16.5847
 546	1	6	0.039454	-25.6619	-33.5519	14.3954
 547	1	6	0.037752	-27.4288	-32.5835	12.5342
 548	1	6	0.046701	-27.2173	-30.1305	13.5795
 549	1	6	0.047659	-28.8831	-30.7189	13.7844
 550	1	5	0.173906	-24.3683	-29.1544	16.3578
 551	1	5	0.156928	-23.5927	-32.052	12.2488
 552	1	6	0.056509	-21.8284	-26.2368	14.582
 553	1	6	0.064596	-23.3596	-26.7513	15.3247
 554	1	6	0.065502	-23.1367	-26.879	13.5677
 555	1	6	0.062922	-22.0558	-28.3677	16.8998
 556	1	6	0.049805	-20.5298	-27.8439	16.1647
 557	1	6	0.059229	-20.9554	-29.568	16.192
 558	1	5	0.166497	-19.3779	-27.5601	14.0153
 559	1	5	0.141714	-21.1348	-31.4839	11.3913
 560	1	6	0.041341	-17.062	-29.363	12.8881
 561	1	6	0.038019	-17.9288	-31.408	11.5181
 562	1	6	0.012124	-16.8243	-27.2444	11.2128
 563	1	6	0.001144	-15.0242	-29.3105	11.5342
 564	1	6	0.009013	-18.147	-30.648	8.9314
 565	1	6	0.001345	-15.7789	-31.2716	10.2425
 566	1	6	0.041603	-18.8085	-28.2047	9.72948
 567	1	6	0.069352	-17.3263	-28.1374	8.76117
 568	1	1	-0.425718	-48.3948	-33.6084	12.3523
 569	1	1	0.123859	-48.6571	-33.1323	11.0463
 570	1	1	0.123846	-47.9783	-33.6536	9.89708
 571	1	1	-0.442194	-46.9774	-34.651	10.0557
 572	1	1	0.030377	-46.8064	-35.1446	11.3513
 573	1	1	0.003389	-47.494	-34.6687	12.4283
 574	1	2	0.006267	-46.6691	-35.4335	13.4405
 575	1	2	0.040808	-45.8525	-35.9857	12.186
 576	1	3	0.010049	-45.6206	-34.6272	14.2462
 577	1	2	-0.044998	-44.8621	-35.8537	14.8137
 578	1	2	-0.017344	-44.0218	-36.4025	13.5735
 579	1	3	0.004207	-44.4138	-35.4381	12.4173
 580	1	3	-0.10977	-44.6593	-34.0867	13.1485
 581	1	1	-0.002799	-43.5251	-35.583	15.464
 582	1	1	-0.006419	-42.7947	-36.0569	14.4052
 583	1	1	-0.256521	-42.981	-34.8474	16.5185
 584	1	1	0.004841	-41.5731	-34.7351	16.4816
 585	1	4	0.00733	-40.8	-35.2553	15.407
 586	1	1	-0.221146	-41.4084	-35.8927	14.29
 587	1	3	0.21053	-40.6916	-34.032	17.517
 588	1	4	0.0182	-39.3783	-34.9705	15.6826
 589	1	1	0.000377	-39.3017	-34.2726	16.9201
 590	1	3	-0.237942	-41.0094	-32.522	17.5908
 591	1	3	-0.215479	-40.8343	-34.686	18.9102
 592	1	1	-0.2391	-38.0669	-33.968	17.5345
 593	1	1	-0.027923	-36.9487	-34.353	16.7938
 594	1	1	-0.180376	-38.2102	-35.4033	14.9932
 595	1	1	-0.054224	-37.0052	-35.019	15.5964
 596	1	2	0.006282	-35.4665	-34.5743	16.9789
 597	1	2	0.015188	-35.5161	-35.3529	15.5902
 598	1	3	0.034756	-34.5216	-33.3897	16.6875
 599	1	3	0.003059	-33.1041	-34.0084	16.6231
 600	1	3	0.042972	-34.5435	-34.5225	14.7082
 601	1	3	0.004163	-33.103	-34.7968	15.2519
 602	1	3	-0.197219	-34.8066	-33.0794	15.1987
 603	1	5	0.227416	-48.8639	-33.1794	13.2322
 604	1	5	0.230059	-46.3836	-35.0166	9.22356
 605	1	6	0.034807	-47.2354	-36.1632	14.0313
 606	1	6	0.022109	-45.8993	-37.0639	11.9933
 607	1	6	0.043894	-46.0051	-33.901	14.9732
 608	1	6	0.04727	-45.4921	-36.5725	15.3514
 609	1	6	0.039454	-44.1275	-37.466	13.3288
 610	1	6	0.037752	-43.7477	-35.4146	11.5459
 611	1	6	0.046701	-43.7394	-33.6544	13.5635
 612	1	6	0.047659	-45.1307	-33.3339	12.5034
 613	1	5	0.173906	-43.5906	-34.3954	17.2947
 614	1	5	0.156928	-40.8476	-36.2168	13.4193
 615	1	6	0.056509	-42.0302	-32.352	17.9543
 616	1	6	0.064596	-40.9206	-32.0611	16.5988
 617	1	6	0.065502	-40.3147	-32.0084	18.2666
 618	1	6	0.062922	-40.6006	-35.757	18.859
 619	1	6	0.049805	-41.8576	-34.5795	19.2906
 620	1	6	0.059229	-40.1531	-34.2231	19.6344
 621	1	5	0.166497	-37.9911	-33.5244	18.5224
 622	1	5	0.141714	-38.2503	-36.0325	14.1099
 623	1	6	0.041341	-35.1793	-35.1411	17.8717
 624	1	6	0.038019	-35.2693	-36.4203	15.5986
 625	1	6	0.012124	-34.6141	-32.5334	17.3674
 626	1	6	0.001144	-32.8104	-34.6179	17.4881
 627	1	6	0.009013	-34.6542	-34.6667	13.6262
 628	1	6	0.001345	-32.8291	-35.8553	15.3514
 629	1	6	0.041603	-35.8324	-32.7352	15.0133
 630	1	6	0.069352	-34.1259	-32.336	14.7638
 631	1	1	-0.425718	-55.731	-37.2253	-1.52446
 632	1	1	0.123859	-54.4209	-37.3383	-2.03414