pySIMM System Object

2454 atoms
2880 bonds
5928 angles
11144 dihedrals
228 impropers

6 atom types
11 bond types
24 angle types
21 dihedral types
1 improper types

-190.309198 190.309198 xlo xhi
-190.309198 190.309198 ylo yhi
-190.309198 190.309198 zlo zhi

Masses

   1	12.01	# ca
   2	12.01	# cy
   3	12.01	# c3
   4	12.01	# cp
   5	1.008	# ha
   6	1.008	# hc

Pair Coeffs

   1	0.086	3.3996695084235347	# ca
   2	0.086	3.3996695084235347	# cy
   3	0.1094	3.3996695084235347	# c3
   4	0.086	3.3996695084235347	# cp
   5	0.015	2.59964245953351	# ha
   6	0.0157	2.649532787749369	# hc

Bond Coeffs

   1	321.0	1.5156	# c3,ca
   2	285.0	1.5562	# cy,cy
   3	330.6	1.0969	# c3,hc
   4	333.3	1.0949	# cy,hc
   5	321.2	1.5154	# ca,cy
   6	461.1	1.3984	# ca,ca
   7	300.9	1.5375	# c3,c3
   8	305.9	1.5319	# c3,cy
   9	351.4	1.4854	# cp,cp
  10	345.8	1.086	# ca,ha
  11	450.2	1.4058	# ca,cp

Angle Coeffs

   1	62.73	112.39	# c3,c3,cy
   2	46.29	110.75	# cy,c3,hc
   3	44.83	114.79	# cy,cy,hc
   4	60.66	118.7	# c3,cy,cy
   5	66.72	118.38	# ca,cp,ca
   6	62.86	111.51	# c3,c3,c3
   7	46.43	110.14	# c3,cy,hc
   8	63.43	120.63	# c3,ca,cp
   9	63.56	112.24	# ca,c3,ca
  10	64.05	121.11	# ca,cp,cp
  11	66.62	120.02	# ca,ca,ca
  12	39.4	107.58	# hc,c3,hc
  13	47.98	119.86	# cp,ca,ha
  14	63.53	120.77	# c3,ca,ca
  15	63.51	120.86	# ca,ca,cy
  16	62.8	113.57	# c3,cy,ca
  17	67.9	96.03	# cy,c3,cy
  18	45.97	114.53	# ca,cy,hc
  19	61.4	116.81	# ca,cy,cy
  20	63.15	112.07	# c3,c3,ca
  21	66.26	120.69	# ca,ca,cp
  22	46.34	109.8	# c3,c3,hc
  23	48.18	119.88	# ca,ca,ha
  24	46.8	110.47	# ca,c3,hc

Dihedral Coeffs

   1	1	0.16	3	0.0	# cy,c3,cy,ca
   2	1	0.16	3	0.0	# c3,c3,cy,ca
   3	1	0.16	3	0.0	# hc,c3,cy,ca
   4	3	0.18	3	0.0	0.25	2	180.0	0.2	1	180.0	# cy,c3,cy,cy
   5	1	0.15	3	0	# hc,c3,c3,hc
   6	3	0.18	3	0.0	0.25	2	180.0	0.2	1	180.0	# c3,c3,cy,cy
   7	1	0.16	3	0.0	# hc,c3,cy,cy
   8	1	0.16	3	0.0	# cy,c3,cy,hc
   9	1	0.16	3	0.0	# c3,c3,cy,hc
  10	1	0.15	3	0.0	# hc,c3,cy,hc
  11	1	3.625	2	180	# X,ca,ca,X
  12	1	0.15555555555555556	3	0	# X,cy,cy,X
  13	1	3.625	2	180	# X,ca,cp,X
  14	3	0.18	3	0	0.25	2	180	0.2	1	180	# c3,c3,c3,c3
  15	1	0.15555555555555556	3	0	# X,c3,c3,X
  16	1	0.16	3	0	# hc,c3,c3,c3
  17	1	1.0	2	180	# X,cp,cp,X
  18	1	0.0	2	0.0	# ca,ca,cy,cy
  19	1	0.0	2	0.0	# ca,ca,cy,c3
  20	1	0.0	2	0	# X,c3,ca,X
  21	3	0.38	3	180.0	0.0	2	0.0	1.15	1	0.0	# ca,ca,cy,hc

Improper Coeffs

   1	1.1	-1	2	# ca,X,X,ha

Atoms

   1	1	1	-0.425718	-30.2141	-60.3178	-20.7071
   2	1	1	0.123859	-31.2444	-59.5694	-21.306
   3	1	1	0.123846	-31.0293	-58.6334	-22.3006
   4	1	1	-0.442194	-29.753	-58.3213	-22.8063
   5	1	1	0.030377	-28.7685	-59.2365	-22.3821
   6	1	1	0.003389	-28.9894	-60.1878	-21.3912
   7	1	2	0.006267	-27.518	-60.3054	-21.0368
   8	1	2	0.040808	-27.2646	-59.2157	-22.1646
   9	1	3	0.010049	-27.0448	-59.6111	-19.7319
  10	1	2	-0.044998	-25.5202	-59.7103	-20.0082
  11	1	2	-0.017344	-25.2649	-58.6164	-21.1338
  12	1	3	0.004207	-26.6719	-58.0087	-21.3869
  13	1	3	-0.10977	-27.3566	-58.11	-19.9939
  14	1	1	-0.002799	-24.6099	-58.8698	-19.133
  15	1	1	-0.006419	-24.388	-57.9219	-20.1076
  16	1	1	-0.256521	-24.4653	-58.609	-17.7644
  17	1	1	0.004841	-23.9279	-57.3403	-17.4491
  18	1	4	0.00733	-23.6961	-56.3639	-18.4507
  19	1	1	-0.221146	-23.9956	-56.61	-19.8145
  20	1	3	0.21053	-23.6664	-56.7699	-16.0484
  21	1	4	0.0182	-23.2879	-55.1125	-17.7936
  22	1	1	0.000377	-23.2629	-55.3301	-16.3908
  23	1	3	-0.237942	-24.9426	-56.7964	-15.1776
  24	1	3	-0.215479	-22.5157	-57.5266	-15.3486
  25	1	1	-0.2391	-22.82	-54.3337	-15.4894
  26	1	1	-0.027923	-22.5132	-53.1048	-16.0855
  27	1	1	-0.180376	-22.8654	-53.887	-18.3702
  28	1	1	-0.054224	-22.5321	-52.8944	-17.442
  29	1	2	0.006282	-21.7194	-51.8435	-15.7924
  30	1	2	0.015188	-21.7382	-51.6022	-17.3619
  31	1	3	0.034756	-20.2059	-51.9238	-15.4739
  32	1	3	0.003059	-19.5469	-53.2095	-16.0428
  33	1	3	0.042972	-20.2323	-51.5813	-17.7235
  34	1	3	0.004163	-19.5662	-52.9767	-17.577
  35	1	3	-0.197219	-19.6609	-50.8825	-16.4728
  36	1	5	0.227416	-30.3246	-60.8394	-19.7619
  37	1	5	0.230059	-29.5344	-57.415	-23.3618
  38	1	6	0.034807	-27.0868	-61.2999	-21.2014
  39	1	6	0.022109	-26.6721	-59.528	-23.0327
  40	1	6	0.043894	-27.4059	-60.035	-18.7866
  41	1	6	0.04727	-25.1581	-60.7259	-20.2073
  42	1	6	0.039454	-24.742	-58.9453	-22.0398
  43	1	6	0.037752	-26.707	-57.0326	-21.8865
  44	1	6	0.046701	-26.908	-57.4428	-19.2466
  45	1	6	0.047659	-28.4311	-57.9014	-20.0338
  46	1	5	0.173906	-24.7949	-59.3087	-17.003
  47	1	5	0.156928	-23.9843	-55.8248	-20.5632
  48	1	6	0.056509	-24.7676	-56.3054	-14.2124
  49	1	6	0.064596	-25.2656	-57.8262	-14.9829
  50	1	6	0.065502	-25.7637	-56.2712	-15.6818
  51	1	6	0.062922	-22.7806	-58.5789	-15.1884
  52	1	6	0.049805	-22.2855	-57.0796	-14.3738
  53	1	6	0.059229	-21.6054	-57.4953	-15.9609
  54	1	5	0.166497	-22.6874	-54.5181	-14.4279
  55	1	5	0.141714	-22.7616	-53.7477	-19.4415
  56	1	6	0.041341	-22.2288	-51.074	-15.202
  57	1	6	0.038019	-22.256	-50.6913	-17.682
  58	1	6	0.012124	-19.9502	-51.7254	-14.4254
  59	1	6	0.001144	-20.0713	-54.1264	-15.7494
  60	1	6	0.009013	-19.9985	-51.0798	-18.6711
  61	1	6	0.001345	-20.1026	-53.7665	-18.1156
  62	1	6	0.041603	-20.0793	-49.8787	-16.3152
  63	1	6	0.069352	-18.5633	-50.8237	-16.4767
  64	1	1	-0.425718	-44.7042	-57.3346	-26.9638
  65	1	1	0.123859	-45.2408	-56.0333	-26.9339
  66	1	1	0.123846	-44.529	-54.9092	-27.3111
  67	1	1	-0.442194	-43.1937	-54.9497	-27.7537
  68	1	1	0.030377	-42.7526	-56.2619	-28.0146
  69	1	1	0.003389	-43.4711	-57.3943	-27.6441
  70	1	2	0.006267	-42.2398	-58.2838	-27.6087
  71	1	2	0.040808	-41.4192	-56.9889	-28.0243
  72	1	3	0.010049	-41.6683	-58.6564	-26.2144
  73	1	2	-0.044998	-40.3059	-59.2144	-26.71
  74	1	2	-0.017344	-39.4864	-57.9126	-27.116
  75	1	3	0.004207	-40.4688	-56.7479	-26.8192
  76	1	3	-0.10977	-41.2862	-57.277	-25.6065
  77	1	1	-0.002799	-39.2318	-59.4326	-25.6611
  78	1	1	-0.006419	-38.5245	-58.3039	-26.0087
  79	1	1	-0.256521	-39.1303	-60.0454	-24.4061
  80	1	1	0.004841	-38.1365	-59.5074	-23.557
  81	1	4	0.00733	-37.4107	-58.3408	-23.9092
  82	1	1	-0.221146	-37.6431	-57.6597	-25.1313
  83	1	3	0.21053	-37.791	-59.9672	-22.1345
  84	1	4	0.0182	-36.5723	-57.9521	-22.7633
  85	1	1	0.000377	-36.777	-58.8936	-21.7201
  86	1	3	-0.237942	-39.0311	-59.9441	-21.2129
  87	1	3	-0.215479	-37.1502	-61.3728	-22.1476
  88	1	1	-0.2391	-36.0428	-58.8405	-20.5123
  89	1	1	-0.027923	-35.1902	-57.7368	-20.3998
  90	1	1	-0.180376	-35.6219	-56.9036	-22.6519
  91	1	1	-0.054224	-34.9917	-56.8229	-21.4048
  92	1	2	0.006282	-33.9826	-57.2845	-19.5994
  93	1	2	0.015188	-33.7539	-56.2186	-20.7616
  94	1	3	0.034756	-32.6736	-58.1136	-19.6251
  95	1	3	0.003059	-32.5917	-58.9911	-20.9119
  96	1	3	0.042972	-32.3377	-56.5733	-21.2833
  97	1	3	0.004163	-32.3508	-57.9249	-22.057
  98	1	3	-0.197219	-31.6793	-56.9732	-19.9427
  99	1	5	0.227416	-45.1326	-58.1703	-26.4199
 100	1	5	0.230059	-42.5436	-54.081	-27.7731
 101	1	6	0.034807	-42.2549	-59.113	-28.3258
 102	1	6	0.022109	-40.917	-57.0106	-28.9987
 103	1	6	0.043894	-42.279	-59.321	-25.5908
 104	1	6	0.04727	-40.3849	-60.0092	-27.4612
 105	1	6	0.039454	-39.0477	-57.8922	-28.1207
 106	1	6	0.037752	-40.0338	-55.7452	-26.7244
 107	1	6	0.046701	-40.6874	-57.3636	-24.6907
 108	1	6	0.047659	-42.1604	-56.6571	-25.3831
 109	1	5	0.173906	-39.7984	-60.8414	-24.0928
 110	1	5	0.156928	-37.2157	-56.6856	-25.3457
 111	1	6	0.056509	-38.7555	-60.1903	-20.18
 112	1	6	0.064596	-39.7837	-60.6684	-21.5469
 113	1	6	0.065502	-39.4925	-58.9484	-21.213
 114	1	6	0.062922	-36.2631	-61.3856	-22.7937
 115	1	6	0.049805	-37.8568	-62.1214	-22.5266
 116	1	6	0.059229	-36.841	-61.674	-21.1394
 117	1	5	0.166497	-36.107	-59.6107	-19.75
 118	1	5	0.141714	-35.3736	-56.2462	-23.4789
 119	1	6	0.041341	-34.1854	-56.8552	-18.6121
 120	1	6	0.038019	-33.8312	-55.1716	-20.448
 121	1	6	0.012124	-32.457	-58.6607	-18.6991
 122	1	6	0.001144	-33.433	-59.6714	-21.0925
 123	1	6	0.009013	-31.8265	-55.7614	-21.8156
 124	1	6	0.001345	-33.0504	-57.9956	-22.8989
 125	1	6	0.041603	-31.7086	-56.165	-19.1983
 126	1	6	0.069352	-30.6408	-57.3082	-20.0436
 127	1	1	-0.425718	-55.2637	-45.2315	-28.3374
 128	1	1	0.123859	-55.0594	-44.067	-27.5717
 129	1	1	0.123846	-53.83	-43.447	-27.45
 130	1	1	-0.442194	-52.6604	-43.9011	-28.0847
 131	1	1	0.030377	-52.925	-44.9016	-29.0393
 132	1	1	0.003389	-54.1572	-45.537	-29.1567
 133	1	2	0.006267	-53.5626	-46.7855	-29.7897
 134	1	2	0.040808	-52.1574	-46.0579	-29.6501
 135	1	3	0.010049	-53.4172	-48.0462	-28.8939
 136	1	2	-0.044998	-52.4738	-48.8462	-29.8364
 137	1	2	-0.017344	-51.0729	-48.1087	-29.6821
 138	1	3	0.004207	-51.3604	-46.9651	-28.6752
 139	1	3	-0.10977	-52.4652	-47.568	-27.7608
 140	1	1	-0.002799	-51.7752	-50.0591	-29.2478
 141	1	1	-0.006419	-50.5662	-49.416	-29.1055
 142	1	1	-0.256521	-52.1305	-51.1973	-28.5126
 143	1	1	0.004841	-51.1036	-51.7264	-27.6971
 144	1	4	0.00733	-49.8702	-51.048	-27.5262
 145	1	1	-0.221146	-49.5942	-49.8233	-28.1843
 146	1	3	0.21053	-51.185	-52.9623	-26.7903
 147	1	4	0.0182	-49.0905	-51.752	-26.497
 148	1	1	0.000377	-49.8337	-52.8833	-26.0676
 149	1	3	-0.237942	-52.3564	-52.8539	-25.7884
 150	1	3	-0.215479	-51.3032	-54.2562	-27.6258
 151	1	1	-0.2391	-49.303	-53.8179	-25.1472
 152	1	1	-0.027923	-48.0531	-53.4681	-24.6236
 153	1	1	-0.180376	-47.7872	-51.4777	-26.0078
 154	1	1	-0.054224	-47.3454	-52.3597	-25.0161
 155	1	2	0.006282	-46.8785	-54.0968	-23.8952
 156	1	2	0.015188	-46.0594	-52.8047	-24.3423
 157	1	3	0.034756	-46.0785	-55.2543	-24.5472
 158	1	3	0.003059	-46.2372	-55.2454	-26.0989
 159	1	3	0.042972	-44.8991	-53.3979	-25.1791
 160	1	3	0.004163	-45.4225	-53.9601	-26.5339
 161	1	3	-0.197219	-44.6521	-54.6875	-24.3632
 162	1	5	0.227416	-56.1266	-45.8795	-28.2228
 163	1	5	0.230059	-51.6614	-43.5986	-27.7882
 164	1	6	0.034807	-53.9136	-46.9945	-30.8071
 165	1	6	0.022109	-51.628	-45.815	-30.5791
 166	1	6	0.043894	-54.3453	-48.5424	-28.5842
 167	1	6	0.04727	-52.8564	-48.9824	-30.8549
 168	1	6	0.039454	-50.572	-47.789	-30.6037
 169	1	6	0.037752	-50.4934	-46.515	-28.1759
 170	1	6	0.046701	-52.1001	-48.3912	-27.1332
 171	1	6	0.047659	-52.9273	-46.821	-27.1062
 172	1	5	0.173906	-53.1333	-51.6121	-28.5321
 173	1	5	0.156928	-48.7241	-49.2189	-27.9499
 174	1	6	0.056509	-53.3217	-52.8502	-26.3091
 175	1	6	0.064596	-52.28	-51.9271	-25.2056
 176	1	6	0.065502	-52.3501	-53.6971	-25.087
 177	1	6	0.062922	-50.4643	-54.3389	-28.3285
 178	1	6	0.049805	-52.2341	-54.2633	-28.2062
 179	1	6	0.059229	-51.2955	-55.1433	-26.981
 180	1	5	0.166497	-49.8086	-54.743	-24.8884
 181	1	5	0.141714	-47.1704	-50.6739	-26.3965
 182	1	6	0.041341	-46.9875	-54.2232	-22.8124
 183	1	6	0.038019	-45.7001	-52.1784	-23.5182
 184	1	6	0.012124	-46.2382	-56.2388	-24.09
 185	1	6	0.001144	-47.2644	-55.2833	-26.4824
 186	1	6	0.009013	-44.0216	-52.7466	-25.2767
 187	1	6	0.001345	-45.9791	-53.2605	-27.1694
 188	1	6	0.041603	-44.4086	-54.4839	-23.3109
 189	1	6	0.069352	-43.8665	-55.3276	-24.7785
 190	1	1	-0.425718	-56.835	-29.7482	-24.7267
 191	1	1	0.123859	-56.1133	-29.0416	-23.7456
 192	1	1	0.123846	-54.8107	-29.3384	-23.3945
 193	1	1	-0.442194	-54.051	-30.3618	-23.9878
 194	1	1	0.030377	-54.689	-30.8968	-25.123
 195	1	1	0.003389	-56.0061	-30.615	-25.4674
 196	1	2	0.006267	-56.1636	-31.8774	-26.2991
 197	1	2	0.040808	-54.6563	-32.195	-25.9035
 198	1	3	0.010049	-56.9646	-33.0557	-25.6787
 199	1	2	-0.044998	-56.5247	-34.1411	-26.701
 200	1	2	-0.017344	-55.0118	-34.4477	-26.295
 201	1	3	0.004207	-54.7516	-33.5109	-25.0876
 202	1	3	-0.10977	-56.1459	-33.4111	-24.4045
 203	1	1	-0.002799	-56.7925	-35.5919	-26.3424
 204	1	1	-0.006419	-55.4948	-35.8495	-25.9881
 205	1	1	-0.256521	-57.8491	-36.485	-26.1319
 206	1	1	0.004841	-57.4557	-37.7281	-25.5779
 207	1	4	0.00733	-56.1148	-37.9815	-25.182
 208	1	1	-0.221146	-55.0843	-37.0196	-25.3448
 209	1	3	0.21053	-58.3502	-38.9439	-25.2969
 210	1	4	0.0182	-56.0443	-39.336	-24.6156
 211	1	1	0.000377	-57.3315	-39.927	-24.7014
 212	1	3	-0.237942	-59.4562	-38.6037	-24.2738
 213	1	3	-0.215479	-58.9687	-39.4923	-26.6026
 214	1	1	-0.2391	-57.5421	-41.2918	-24.3914
 215	1	1	-0.027923	-56.4198	-41.9578	-23.8819
 216	1	1	-0.180376	-54.9092	-40.0677	-24.1853
 217	1	1	-0.054224	-55.1803	-41.3746	-23.7668
 218	1	2	0.006282	-55.8842	-43.3762	-23.7588
 219	1	2	0.015188	-54.4507	-42.6973	-23.6236
 220	1	3	0.034756	-55.7208	-44.2764	-25.0134
 221	1	3	0.003059	-55.6196	-43.422	-26.313
 222	1	3	0.042972	-53.6669	-43.2879	-24.8214
 223	1	3	0.004163	-54.2055	-42.7247	-26.1717
 224	1	3	-0.197219	-54.2539	-44.718	-24.8041
 225	1	5	0.227416	-57.9137	-29.6987	-24.8349
 226	1	5	0.230059	-53.1314	-30.7537	-23.5656
 227	1	6	0.034807	-56.3709	-31.7011	-27.3611
 228	1	6	0.022109	-53.9221	-32.2174	-26.7176
 229	1	6	0.043894	-58.0437	-32.9062	-25.5486
 230	1	6	0.04727	-56.7219	-33.8833	-27.7484
 231	1	6	0.039454	-54.2563	-34.3891	-27.0877
 232	1	6	0.037752	-53.8985	-33.7579	-24.4435
 233	1	6	0.046701	-56.4636	-34.3557	-23.9441
 234	1	6	0.047659	-56.1889	-32.6258	-23.6394
 235	1	5	0.173906	-58.8788	-36.2456	-26.3776
 236	1	5	0.156928	-54.067	-37.178	-25.0023
 237	1	6	0.056509	-60.1448	-37.85	-24.6749
 238	1	6	0.064596	-59.017	-38.206	-23.3501
 239	1	6	0.065502	-60.0379	-39.4971	-24.0156
 240	1	6	0.062922	-59.5575	-40.3971	-26.41
 241	1	6	0.049805	-58.1826	-39.7452	-27.3256
 242	1	6	0.059229	-59.6287	-38.7485	-27.0654
 243	1	5	0.166497	-58.4817	-41.7991	-24.5868
 244	1	5	0.141714	-53.9012	-39.6704	-24.2451
 245	1	6	0.041341	-56.209	-43.9435	-22.8796
 246	1	6	0.038019	-53.9455	-42.8734	-22.6675
 247	1	6	0.012124	-56.4376	-45.1043	-25.0819
 248	1	6	0.001144	-56.4491	-42.7303	-26.5042
 249	1	6	0.009013	-52.5749	-43.2432	-24.7241
 250	1	6	0.001345	-54.2199	-41.6336	-26.2775
 251	1	6	0.041603	-54.0979	-45.2291	-23.8436
 252	1	6	0.069352	-53.8683	-45.3632	-25.6017
 253	1	1	-0.425718	-49.0515	-16.9484	-20.1358
 254	1	1	0.123859	-48.2928	-16.7397	-18.9689
 255	1	1	0.123846	-47.5816	-17.7389	-18.3326
 256	1	1	-0.442194	-47.5151	-19.0665	-18.7932
 257	1	1	0.030377	-48.0617	-19.2063	-20.084
 258	1	1	0.003389	-48.7983	-18.2085	-20.7128
 259	1	2	0.006267	-49.5291	-19.1807	-21.622
 260	1	2	0.040808	-48.6787	-20.3195	-20.9097
 261	1	3	0.010049	-50.9985	-19.5344	-21.2593
 262	1	2	-0.044998	-51.1393	-20.7496	-22.2157
 263	1	2	-0.017344	-50.2746	-21.8899	-21.509
 264	1	3	0.004207	-49.7458	-21.2084	-20.2189
 265	1	3	-0.10977	-50.8727	-20.1982	-19.8581
 266	1	1	-0.002799	-52.3233	-21.6755	-22.0021
 267	1	1	-0.006419	-51.5778	-22.654	-21.3994
 268	1	1	-0.256521	-53.7219	-21.6811	-22.0486
 269	1	1	0.004841	-54.3163	-22.8416	-21.4947
 270	1	4	0.00733	-53.5422	-23.8534	-20.8659
 271	1	1	-0.221146	-52.1295	-23.7674	-20.7608
 272	1	3	0.21053	-55.8105	-23.1912	-21.4575
 273	1	4	0.0182	-54.45	-24.9093	-20.3948
 274	1	1	0.000377	-55.7761	-24.5548	-20.7514
 275	1	3	-0.237942	-56.6093	-22.1586	-20.6324
 276	1	3	-0.215479	-56.3881	-23.3087	-22.8864
 277	1	1	-0.2391	-56.8494	-25.4649	-20.6059
 278	1	1	-0.027923	-56.5198	-26.6792	-19.9882
 279	1	1	-0.180376	-54.1335	-26.185	-19.8662
 280	1	1	-0.054224	-55.2337	-27.0171	-19.6304
 281	1	2	0.006282	-57.0088	-28.1208	-20.0015
 282	1	2	0.015188	-55.5207	-28.5073	-19.5962
 283	1	3	0.034756	-57.2116	-28.8806	-21.3407
 284	1	3	0.003059	-56.3742	-28.2354	-22.4844
 285	1	3	0.042972	-55.0636	-29.4155	-20.7665
 286	1	3	0.004163	-54.8845	-28.5909	-22.0786
 287	1	3	-0.197219	-56.3959	-30.1564	-21.0256
 288	1	5	0.227416	-49.8142	-16.2619	-20.4889
 289	1	5	0.230059	-47.1768	-19.8988	-18.1846
 290	1	6	0.034807	-49.3523	-19.0255	-22.6928
 291	1	6	0.022109	-47.9656	-20.8713	-21.5338
 292	1	6	0.043894	-51.7411	-18.7336	-21.3638
 293	1	6	0.04727	-50.915	-20.5277	-23.2658
 294	1	6	0.039454	-49.5035	-22.3838	-22.1123
 295	1	6	0.037752	-49.3955	-21.8697	-19.4167
 296	1	6	0.046701	-51.7991	-20.6906	-19.5348
 297	1	6	0.047659	-50.5725	-19.4882	-19.0779
 298	1	5	0.173906	-54.2989	-20.8677	-22.4769
 299	1	5	0.156928	-51.5295	-24.501	-20.2325
 300	1	6	0.056509	-56.5775	-21.169	-21.1044
 301	1	6	0.064596	-56.1916	-22.0673	-19.6217
 302	1	6	0.065502	-57.6596	-22.4611	-20.5395
 303	1	6	0.062922	-55.8295	-24.0537	-23.4673
 304	1	6	0.049805	-56.3252	-22.3494	-23.4146
 305	1	6	0.059229	-57.4408	-23.6151	-22.8625
 306	1	5	0.166497	-57.8348	-25.2744	-21.0196
 307	1	5	0.141714	-53.1101	-26.5273	-19.7512
 308	1	6	0.041341	-57.7697	-28.3814	-19.2575
 309	1	6	0.038019	-55.4212	-29.0002	-18.6227
 310	1	6	0.012124	-58.2589	-29.0674	-21.6095
 311	1	6	0.001144	-56.552	-27.171	-22.6774
 312	1	6	0.009013	-54.2158	-30.0723	-20.5349
 313	1	6	0.001345	-54.2049	-27.7325	-22.0314
 314	1	6	0.041603	-56.7657	-30.6862	-20.1365
 315	1	6	0.069352	-56.3507	-30.8716	-21.8571
 316	1	1	-0.425718	-37.3395	-10.3376	-11.819
 317	1	1	0.123859	-37.1948	-10.3816	-10.4197
 318	1	1	0.123846	-37.4748	-11.5051	-9.66416
 319	1	1	-0.442194	-37.8882	-12.7327	-10.2147
 320	1	1	0.030377	-37.7679	-12.7579	-11.6185
 321	1	1	0.003389	-37.529	-11.6169	-12.3775
 322	1	2	0.006267	-38.1769	-12.189	-13.6259
 323	1	2	0.040808	-38.4288	-13.5011	-12.7662
 324	1	3	0.010049	-39.6102	-11.6974	-13.9756
 325	1	2	-0.044998	-39.9221	-12.7735	-15.0493
 326	1	2	-0.017344	-40.1509	-14.1033	-14.2025
 327	1	3	0.004207	-39.973	-13.6387	-12.731
 328	1	3	-0.10977	-40.4597	-12.1616	-12.7581
 329	1	1	-0.002799	-41.37	-12.9311	-15.4795
 330	1	1	-0.006419	-41.5598	-14.0863	-14.7602
 331	1	1	-0.256521	-42.4244	-12.1357	-15.9463
 332	1	1	0.004841	-43.7129	-12.6885	-15.7523
 333	1	4	0.00733	-43.9056	-13.8917	-15.0256
 334	1	1	-0.221146	-42.8224	-14.5954	-14.4411
 335	1	3	0.21053	-45.0577	-12.0828	-16.1785
 336	1	4	0.0182	-45.3486	-14.1599	-14.941
 337	1	1	0.000377	-46.0392	-13.1214	-15.6164
 338	1	3	-0.237942	-45.284	-10.6988	-15.5308
 339	1	3	-0.215479	-45.1578	-11.9855	-17.7174
 340	1	1	-0.2391	-47.4344	-13.1832	-15.8415
 341	1	1	-0.027923	-48.0798	-14.2852	-15.2642
 342	1	1	-0.180376	-46.0158	-15.3172	-14.4681
 343	1	1	-0.054224	-47.4072	-15.2964	-14.6168
 344	1	2	0.006282	-49.3238	-15.1259	-15.5108
 345	1	2	0.015188	-48.5385	-16.2967	-14.7742
 346	1	3	0.034756	-49.6101	-15.7268	-16.9123
 347	1	3	0.003059	-48.3029	-15.8336	-17.7511
 348	1	3	0.042972	-48.4603	-17.4009	-15.8607
 349	1	3	0.004163	-47.4997	-16.9852	-17.0181
 350	1	3	-0.197219	-49.8521	-17.1985	-16.5034
 351	1	5	0.227416	-37.4125	-9.41468	-12.3852
 352	1	5	0.230059	-38.3533	-13.5232	-9.63477
 353	1	6	0.034807	-37.5065	-12.2816	-14.4885
 354	1	6	0.022109	-37.9031	-14.4102	-13.0817
 355	1	6	0.043894	-39.7138	-10.6489	-14.2814
 356	1	6	0.04727	-39.1931	-12.8224	-15.8669
 357	1	6	0.039454	-39.5564	-14.982	-14.4799
 358	1	6	0.037752	-40.3943	-14.286	-11.9519
 359	1	6	0.046701	-41.54	-12.0712	-12.9306
 360	1	6	0.047659	-40.2149	-11.618	-11.8387
 361	1	5	0.173906	-42.265	-11.1608	-16.3958
 362	1	5	0.156928	-42.9627	-15.4389	-13.773
 363	1	6	0.056509	-46.2812	-10.3117	-15.7738
 364	1	6	0.064596	-44.54	-9.97373	-15.8821
 365	1	6	0.065502	-45.2033	-10.7673	-14.4385
 366	1	6	0.062922	-46.14	-11.6071	-18.0252
 367	1	6	0.049805	-45.0141	-12.972	-18.1766
 368	1	6	0.059229	-44.3915	-11.3103	-18.1172
 369	1	5	0.166497	-47.9538	-12.4759	-16.4805
 370	1	5	0.141714	-45.481	-16.1888	-14.1047
 371	1	6	0.041341	-50.2388	-14.7976	-15.0055
 372	1	6	0.038019	-49.0052	-16.654	-13.8495
 373	1	6	0.012124	-50.4458	-15.2621	-17.4503
 374	1	6	0.001144	-47.7389	-14.9048	-17.8962
 375	1	6	0.009013	-48.2807	-18.4126	-15.4761
 376	1	6	0.001345	-46.4756	-16.7177	-16.7326
 377	1	6	0.041603	-50.6726	-17.3075	-15.7803
 378	1	6	0.069352	-50.0503	-17.8676	-17.3502
 379	1	1	-0.425718	-31.1583	-7.77858	2.7754
 380	1	1	0.123859	-32.0249	-7.57272	3.86489
 381	1	1	0.123846	-33.1273	-8.3666	4.11908
 382	1	1	-0.442194	-33.4795	-9.48382	3.33878
 383	1	1	0.030377	-32.4693	-9.83656	2.42099
 384	1	1	0.003389	-31.3789	-9.01821	2.14346
 385	1	2	0.006267	-31.1691	-9.59734	0.755452
 386	1	2	0.040808	-32.4017	-10.5456	1.07938
 387	1	3	0.010049	-31.6624	-8.74976	-0.450778
 388	1	2	-0.044998	-31.5518	-9.86396	-1.52624
 389	1	2	-0.017344	-32.7676	-10.8336	-1.19753
 390	1	3	0.004207	-33.4629	-10.1584	0.01702
 391	1	3	-0.10977	-33.196	-8.64322	-0.212635
 392	1	1	-0.002799	-32.2478	-9.61633	-2.85383
 393	1	1	-0.006419	-33.2937	-10.4685	-2.57152
 394	1	1	-0.256521	-32.3564	-8.55467	-3.76318
 395	1	1	0.004841	-33.5663	-8.5072	-4.49403
 396	1	4	0.00733	-34.6348	-9.39408	-4.21225
 397	1	1	-0.221146	-34.55	-10.3578	-3.17785
 398	1	3	0.21053	-33.9847	-7.45323	-5.53004
 399	1	4	0.0182	-35.7976	-8.99508	-5.01744
 400	1	1	0.000377	-35.4412	-7.8616	-5.79319
 401	1	3	-0.237942	-33.9059	-6.02478	-4.94626
 402	1	3	-0.215479	-33.1287	-7.56438	-6.81111
 403	1	1	-0.2391	-36.3309	-7.29735	-6.73872
 404	1	1	-0.027923	-37.603	-7.88387	-6.76697
 405	1	1	-0.180376	-37.0553	-9.6342	-5.15538
 406	1	1	-0.054224	-37.9403	-8.98973	-6.0251
 407	1	2	0.006282	-38.7983	-8.01121	-7.69932
 408	1	2	0.015188	-39.1749	-9.30389	-6.84835
 409	1	3	0.034756	-38.63	-8.57642	-9.13287
 410	1	3	0.003059	-37.336	-9.4332	-9.24278
 411	1	3	0.042972	-39.1382	-10.4383	-7.90451
 412	1	3	0.004163	-37.678	-10.717	-8.382
 413	1	3	-0.197219	-39.7325	-9.66001	-9.10098
 414	1	5	0.227416	-30.4794	-7.02061	2.39819
 415	1	5	0.230059	-34.4607	-9.94665	3.36354
 416	1	6	0.034807	-30.1973	-10.0811	0.601818
 417	1	6	0.022109	-32.1983	-11.6212	1.1417
 418	1	6	0.043894	-31.126	-7.81392	-0.650983
 419	1	6	0.04727	-30.5579	-10.32	-1.60594
 420	1	6	0.039454	-32.5364	-11.8965	-1.0593
 421	1	6	0.037752	-34.4991	-10.4539	0.222712
 422	1	6	0.046701	-33.7372	-8.23987	-1.07809
 423	1	6	0.047659	-33.4479	-8.03102	0.660454
 424	1	5	0.173906	-31.5927	-7.78869	-3.85208
 425	1	5	0.156928	-35.414	-10.9155	-2.83165
 426	1	6	0.056509	-34.4978	-5.95173	-4.02497
 427	1	6	0.064596	-34.2962	-5.28881	-5.65971
 428	1	6	0.065502	-32.8704	-5.75348	-4.70794
 429	1	6	0.062922	-33.1992	-8.57423	-7.23502
 430	1	6	0.049805	-32.0728	-7.35979	-6.59521
 431	1	6	0.059229	-33.4664	-6.85153	-7.57314
 432	1	5	0.166497	-36.038	-6.50469	-7.42014
 433	1	5	0.141714	-37.2913	-10.5751	-4.66876
 434	1	6	0.041341	-39.5353	-7.20167	-7.65632
 435	1	6	0.038019	-40.1367	-9.2494	-6.32646
 436	1	6	0.012124	-38.7428	-7.83717	-9.93577
 437	1	6	0.001144	-36.3986	-8.93562	-8.96599
 438	1	6	0.009013	-39.6959	-11.3419	-7.62839
 439	1	6	0.001345	-36.9447	-10.9505	-7.60059
 440	1	6	0.041603	-40.7275	-9.24568	-8.88556
 441	1	6	0.069352	-39.7995	-10.25	-10.0224
 442	1	1	-0.425718	-34.9573	-7.1697	18.6234
 443	1	1	0.123859	-36.1264	-7.1403	19.4054
 444	1	1	0.123846	-37.3954	-7.34973	18.8818
 445	1	1	-0.442194	-37.6115	-7.65224	17.5231
 446	1	1	0.030377	-36.4758	-7.45111	16.7152
 447	1	1	0.003389	-35.2111	-7.20277	17.2404
 448	1	2	0.006267	-34.4902	-7.81449	16.0551
 449	1	2	0.040808	-35.9289	-8.11642	15.4619
 450	1	3	0.010049	-33.8643	-6.8266	15.0328
 451	1	2	-0.044998	-33.5733	-7.8731	13.9262
 452	1	2	-0.017344	-35.0115	-8.2082	13.3273
 453	1	3	0.004207	-35.9699	-7.2961	14.1452
 454	1	3	-0.10977	-35.0942	-6.05384	14.4762
 455	1	1	-0.002799	-33.239	-7.34893	12.5425
 456	1	1	-0.006419	-34.4721	-7.65483	12.022
 457	1	1	-0.256521	-32.3447	-6.46092	11.9329
 458	1	1	0.004841	-32.7425	-6.01203	10.6511
 459	1	4	0.00733	-34.0021	-6.35864	10.0963
 460	1	1	-0.221146	-34.9445	-7.14425	10.8088
 461	1	3	0.21053	-31.9765	-5.05713	9.72515
 462	1	4	0.0182	-34.1336	-5.69436	8.79092
 463	1	1	0.000377	-32.9623	-4.9288	8.55552
 464	1	3	-0.237942	-31.735	-3.68928	10.401
 465	1	3	-0.215479	-30.6388	-5.68171	9.26889
 466	1	1	-0.2391	-32.7356	-4.27705	7.32046
 467	1	1	-0.027923	-33.7882	-4.37305	6.40087
 468	1	1	-0.180376	-35.1232	-5.87191	7.79161
 469	1	1	-0.054224	-34.9108	-5.13668	6.62027
 470	1	2	0.006282	-33.9959	-4.30765	4.89558
 471	1	2	0.015188	-35.2835	-5.20756	5.15034
 472	1	3	0.034756	-33.1432	-5.18029	3.93892
 473	1	3	0.003059	-32.5486	-6.4091	4.68663
 474	1	3	0.042972	-34.9806	-6.48641	4.32577
 475	1	3	0.004163	-33.8194	-7.3113	4.96503
 476	1	3	-0.197219	-34.2827	-5.8237	3.11561
 477	1	5	0.227416	-33.9728	-7.34345	19.0462
 478	1	5	0.230059	-38.5001	-8.16694	17.1716
 479	1	6	0.034807	-33.8412	-8.66157	16.307
 480	1	6	0.022109	-36.2313	-9.16286	15.3359
 481	1	6	0.043894	-33.0154	-6.22476	15.3805
 482	1	6	0.04727	-32.9593	-8.72068	14.2534
 483	1	6	0.039454	-35.3054	-9.26409	13.2935
 484	1	6	0.037752	-36.96	-7.10382	13.7135
 485	1	6	0.046701	-34.8549	-5.45317	13.5889
 486	1	6	0.047659	-35.5552	-5.3939	15.2224
 487	1	5	0.173906	-31.4333	-6.12478	12.4172
 488	1	5	0.156928	-35.958	-7.30838	10.4575
 489	1	6	0.056509	-31.2658	-2.98523	9.70286
 490	1	6	0.064596	-31.0802	-3.79274	11.2748
 491	1	6	0.065502	-32.6843	-3.25291	10.7368
 492	1	6	0.062922	-30.813	-6.64539	8.77346
 493	1	6	0.049805	-29.9752	-5.85501	10.125
 494	1	6	0.059229	-30.1183	-5.02486	8.56147
 495	1	5	0.166497	-31.7913	-3.80088	7.07558
 496	1	5	0.141714	-35.9367	-6.58251	7.89654
 497	1	6	0.041341	-34.2035	-3.31633	4.47789
 498	1	6	0.038019	-36.234	-4.743	4.86547
 499	1	6	0.012124	-32.4086	-4.62585	3.34159
 500	1	6	0.001144	-31.9395	-6.19286	5.57234
 501	1	6	0.009013	-35.8622	-7.08658	4.068
 502	1	6	0.001345	-33.9487	-7.60468	6.01366
 503	1	6	0.041603	-34.9172	-5.07827	2.61571
 504	1	6	0.069352	-33.934	-6.53798	2.36066
 505	1	1	-0.425718	-47.2371	-5.44449	33.3773
 506	1	1	0.123859	-48.5642	-4.98088	33.3455
 507	1	1	0.123846	-49.2901	-4.82839	32.1722
 508	1	1	-0.442194	-48.7716	-5.18757	30.9123
 509	1	1	0.030377	-47.385	-5.43429	30.9267
 510	1	1	0.003389	-46.6477	-5.53045	32.1034
 511	1	2	0.006267	-45.6049	-6.44268	31.4921
 512	1	2	0.040808	-46.4553	-6.36101	30.1565
 513	1	3	0.010049	-44.2485	-5.78847	31.1114
 514	1	2	-0.044998	-43.7037	-6.98349	30.2916
 515	1	2	-0.017344	-44.5592	-6.95307	28.9436
 516	1	3	0.004207	-45.4835	-5.71447	29.1334
 517	1	3	-0.10977	-44.6349	-4.75473	30.0156
 518	1	1	-0.002799	-42.5038	-6.72802	29.4023
 519	1	1	-0.006419	-43.2313	-6.72965	28.2435
 520	1	1	-0.256521	-41.1155	-6.58152	29.4571
 521	1	1	0.004841	-40.4979	-6.47155	28.1877
 522	1	4	0.00733	-41.2423	-6.54121	26.9775
 523	1	1	-0.221146	-42.6581	-6.66966	26.9694
 524	1	3	0.21053	-38.9949	-6.35883	27.9063
 525	1	4	0.0182	-40.293	-6.54198	25.8504
 526	1	1	0.000377	-38.9789	-6.4355	26.374
 527	1	3	-0.237942	-38.4326	-5.00871	28.4018
 528	1	3	-0.215479	-38.2181	-7.53556	28.5412
 529	1	1	-0.2391	-37.8395	-6.59449	25.554
 530	1	1	-0.027923	-38.102	-6.76088	24.1894
 531	1	1	-0.180376	-40.522	-6.85687	24.4858
 532	1	1	-0.054224	-39.3761	-6.90081	23.6806
 533	1	2	0.006282	-37.4484	-7.50738	23.044
 534	1	2	0.015188	-38.9137	-7.68577	22.4617
 535	1	3	0.034756	-36.7319	-6.68846	21.9433
 536	1	3	0.003059	-36.4959	-7.68216	20.774
 537	1	3	0.042972	-38.825	-6.97487	21.0891
 538	1	3	0.004163	-37.9482	-7.8965	20.1874
 539	1	3	-0.197219	-37.867	-5.79803	21.3861
 540	1	5	0.227416	-46.7837	-5.86878	34.2676
 541	1	5	0.230059	-49.4048	-5.42986	30.0647
 542	1	6	0.034807	-45.5061	-7.41477	31.9897
 543	1	6	0.022109	-46.933	-7.27626	29.7871
 544	1	6	0.043894	-43.622	-5.4278	31.9369
 545	1	6	0.04727	-43.6613	-7.9274	30.8481
 546	1	6	0.039454	-45.0871	-7.86741	28.6476
 547	1	6	0.037752	-45.9326	-5.28753	28.228
 548	1	6	0.046701	-43.7634	-4.34883	29.4856
 549	1	6	0.047659	-45.2177	-3.91312	30.412
 550	1	5	0.173906	-40.5597	-6.58866	30.3893
 551	1	5	0.156928	-43.2398	-6.74844	26.0568
 552	1	6	0.056509	-37.3755	-4.90141	28.129
 553	1	6	0.064596	-38.5167	-4.92534	29.4922
 554	1	6	0.065502	-38.9855	-4.17344	27.9534
 555	1	6	0.062922	-38.3065	-7.5203	29.6342
 556	1	6	0.049805	-37.1521	-7.48765	28.2877
 557	1	6	0.059229	-38.611	-8.49513	28.1818
 558	1	5	0.166497	-36.8377	-6.68083	25.9631
 559	1	5	0.141714	-41.5008	-7.14615	24.117
 560	1	6	0.041341	-36.8949	-8.41051	23.3244
 561	1	6	0.038019	-39.3102	-8.70395	22.3798
 562	1	6	0.012124	-35.8344	-6.14674	22.2673
 563	1	6	0.001144	-35.9846	-8.61608	21.0425
 564	1	6	0.009013	-39.7867	-6.68722	20.6462
 565	1	6	0.001345	-38.2575	-8.94917	20.1437
 566	1	6	0.041603	-38.2642	-5.08711	22.1222
 567	1	6	0.069352	-37.5821	-5.22656	20.4931
 568	1	1	-0.425718	-60.4229	5.22417	38.6745
 569	1	1	0.123859	-60.1101	6.45195	38.0483
 570	1	1	0.123846	-59.8942	6.54449	36.6353
 571	1	1	-0.442194	-60.0205	5.38458	35.8246
 572	1	1	0.030377	-60.4744	4.22617	36.4625
 573	1	1	0.003389	-60.6532	4.15132	37.8153
 574	1	2	0.006267	-60.6465	2.63814	37.8506
 575	1	2	0.040808	-60.4599	2.71727	36.2708
 576	1	3	0.010049	-59.341	1.95754	38.3439
 577	1	2	-0.044998	-59.7012	0.523681	37.8821
 578	1	2	-0.017344	-59.5475	0.573254	36.2985
 579	1	3	0.004207	-59.0876	2.03501	36.024
 580	1	3	-0.10977	-58.2777	2.40648	37.2998
 581	1	1	-0.002799	-58.5768	-0.492432	37.8546
 582	1	1	-0.006419	-58.462	-0.471976	36.4841
 583	1	1	-0.256521	-57.5447	-0.917325	38.6997
 584	1	1	0.004841	-56.4377	-1.49923	38.0405
 585	1	4	0.00733	-56.3476	-1.5396	36.6254
 586	1	1	-0.221146	-57.3343	-0.941399	35.8004
 587	1	3	0.21053	-55.1625	-2.04826	38.6918
 588	1	4	0.0182	-55.0607	-2.15268	36.2581
 589	1	1	0.000377	-54.3533	-2.45215	37.4521
 590	1	3	-0.237942	-54.4286	-0.955791	39.5008
 591	1	3	-0.215479	-55.4778	-3.26742	39.5874
 592	1	1	-0.2391	-53.134	-3.16775	37.4355
 593	1	1	-0.027923	-52.6524	-3.47656	36.1589
 594	1	1	-0.180376	-54.6061	-2.59829	34.9891
 595	1	1	-0.054224	-53.3563	-3.22848	35.0039
 596	1	2	0.006282	-51.7564	-4.51632	35.5175
 597	1	2	0.015188	-52.5836	-4.25184	34.1856
 598	1	3	0.034756	-50.3187	-4.10051	35.1201
 599	1	3	0.003059	-49.7981	-5.23067	34.1929
 600	1	3	0.042972	-51.4965	-3.76622	33.197
 601	1	3	0.004163	-50.6293	-5.01933	32.8643
 602	1	3	-0.197219	-50.5581	-2.94889	34.1154
 603	1	5	0.227416	-60.47	5.12203	39.7542
 604	1	5	0.230059	-59.7689	5.38917	34.7684
 605	1	6	0.034807	-61.5711	2.18181	38.2237
 606	1	6	0.022109	-61.2762	2.3245	35.6531
 607	1	6	0.043894	-59.0832	2.08692	39.4025
 608	1	6	0.04727	-60.6497	0.143548	38.28
 609	1	6	0.039454	-60.4081	0.246342	35.7028
 610	1	6	0.037752	-58.6061	2.23022	35.0578
 611	1	6	0.046701	-57.3353	1.84975	37.3826
 612	1	6	0.047659	-58.0468	3.47788	37.3616
 613	1	5	0.173906	-57.5746	-0.769829	39.7746
 614	1	5	0.156928	-57.203	-0.814332	34.7307
 615	1	6	0.056509	-55.0347	-0.621834	40.3518
 616	1	6	0.064596	-54.2199	-0.083446	38.8685
 617	1	6	0.065502	-53.4731	-1.33106	39.8871
 618	1	6	0.062922	-55.9859	-4.04925	39.0087
 619	1	6	0.049805	-56.1323	-2.98235	40.4203
 620	1	6	0.059229	-54.5598	-3.69628	40.007