pySIMM System Object

2844 atoms
3336 bonds
6864 angles
12896 dihedrals
264 impropers

6 atom types
11 bond types
24 angle types
21 dihedral types
1 improper types

-200.085380 200.085380 xlo xhi
-200.085380 200.085380 ylo yhi
-200.085380 200.085380 zlo zhi

Masses

   1	12.01	# ca
   2	12.01	# cy
   3	12.01	# c3
   4	12.01	# cp
   5	1.008	# ha
   6	1.008	# hc

Pair Coeffs

   1	0.086	3.3996695084235347	# ca
   2	0.086	3.3996695084235347	# cy
   3	0.1094	3.3996695084235347	# c3
   4	0.086	3.3996695084235347	# cp
   5	0.015	2.59964245953351	# ha
   6	0.0157	2.649532787749369	# hc

Bond Coeffs

   1	321.0	1.5156	# c3,ca
   2	285.0	1.5562	# cy,cy
   3	330.6	1.0969	# c3,hc
   4	333.3	1.0949	# cy,hc
   5	321.2	1.5154	# ca,cy
   6	461.1	1.3984	# ca,ca
   7	300.9	1.5375	# c3,c3
   8	305.9	1.5319	# c3,cy
   9	351.4	1.4854	# cp,cp
  10	345.8	1.086	# ca,ha
  11	450.2	1.4058	# ca,cp

Angle Coeffs

   1	62.73	112.39	# c3,c3,cy
   2	46.29	110.75	# cy,c3,hc
   3	44.83	114.79	# cy,cy,hc
   4	60.66	118.7	# c3,cy,cy
   5	66.72	118.38	# ca,cp,ca
   6	62.86	111.51	# c3,c3,c3
   7	46.43	110.14	# c3,cy,hc
   8	63.43	120.63	# c3,ca,cp
   9	63.56	112.24	# ca,c3,ca
  10	64.05	121.11	# ca,cp,cp
  11	66.62	120.02	# ca,ca,ca
  12	39.4	107.58	# hc,c3,hc
  13	47.98	119.86	# cp,ca,ha
  14	63.53	120.77	# c3,ca,ca
  15	63.51	120.86	# ca,ca,cy
  16	62.8	113.57	# c3,cy,ca
  17	67.9	96.03	# cy,c3,cy
  18	45.97	114.53	# ca,cy,hc
  19	61.4	116.81	# ca,cy,cy
  20	63.15	112.07	# c3,c3,ca
  21	66.26	120.69	# ca,ca,cp
  22	46.34	109.8	# c3,c3,hc
  23	48.18	119.88	# ca,ca,ha
  24	46.8	110.47	# ca,c3,hc

Dihedral Coeffs

   1	1	0.16	3	0.0	# cy,c3,cy,ca
   2	1	0.16	3	0.0	# c3,c3,cy,ca
   3	1	0.16	3	0.0	# hc,c3,cy,ca
   4	3	0.18	3	0.0	0.25	2	180.0	0.2	1	180.0	# cy,c3,cy,cy
   5	1	0.15	3	0	# hc,c3,c3,hc
   6	3	0.18	3	0.0	0.25	2	180.0	0.2	1	180.0	# c3,c3,cy,cy
   7	1	0.16	3	0.0	# hc,c3,cy,cy
   8	1	0.16	3	0.0	# cy,c3,cy,hc
   9	1	0.16	3	0.0	# c3,c3,cy,hc
  10	1	0.15	3	0.0	# hc,c3,cy,hc
  11	1	3.625	2	180	# X,ca,ca,X
  12	1	0.15555555555555556	3	0	# X,cy,cy,X
  13	1	3.625	2	180	# X,ca,cp,X
  14	3	0.18	3	0	0.25	2	180	0.2	1	180	# c3,c3,c3,c3
  15	1	0.15555555555555556	3	0	# X,c3,c3,X
  16	1	0.16	3	0	# hc,c3,c3,c3
  17	1	1.0	2	180	# X,cp,cp,X
  18	1	0.0	2	0.0	# ca,ca,cy,cy
  19	1	0.0	2	0.0	# ca,ca,cy,c3
  20	1	0.0	2	0	# X,c3,ca,X
  21	3	0.38	3	180.0	0.0	2	0.0	1.15	1	0.0	# ca,ca,cy,hc

Improper Coeffs

   1	1.1	-1	2	# ca,X,X,ha

Atoms

   1	1	1	-0.425718	-69.0978	0.177326	-30.2739
   2	1	1	0.123859	-69.6914	-0.551592	-29.2259
   3	1	1	0.123846	-69.5967	-0.182905	-27.8967
   4	1	1	-0.442194	-68.9072	0.961764	-27.4558
   5	1	1	0.030377	-68.5417	1.8129	-28.5177
   6	1	1	0.003389	-68.6283	1.4387	-29.8553
   7	1	2	0.006267	-67.5439	2.40671	-30.2984
   8	1	2	0.040808	-67.4471	2.83415	-28.7721
   9	1	3	0.010049	-66.1422	1.81339	-30.6075
  10	1	2	-0.044998	-65.3658	3.15857	-30.6432
  11	1	2	-0.017344	-65.2726	3.58456	-29.1154
  12	1	3	0.004207	-66.0026	2.43903	-28.3639
  13	1	3	-0.10977	-65.7106	1.19319	-29.2482
  14	1	1	-0.002799	-63.8504	3.07595	-30.6027
  15	1	1	-0.006419	-63.7704	3.44539	-29.2762
  16	1	1	-0.256521	-62.8657	2.30996	-31.2411
  17	1	1	0.004841	-61.7044	2.05868	-30.4758
  18	1	4	0.00733	-61.6233	2.43331	-29.1115
  19	1	1	-0.221146	-62.6989	3.07841	-28.4525
  20	1	3	0.21053	-60.4812	1.23206	-30.8961
  21	1	4	0.0182	-60.383	1.87734	-28.5491
  22	1	1	0.000377	-59.7005	1.17465	-29.5767
  23	1	3	-0.237942	-60.8869	-0.184251	-31.3624
  24	1	3	-0.215479	-59.6748	1.95606	-31.9969
  25	1	1	-0.2391	-58.4274	0.595026	-29.3647
  26	1	1	-0.027923	-57.9603	0.684825	-28.0482
  27	1	1	-0.180376	-59.829	2.03709	-27.2527
  28	1	1	-0.054224	-58.6194	1.36298	-27.0534
  29	1	2	0.006282	-56.658	0.595093	-27.2721
  30	1	2	0.015188	-57.4204	1.38084	-26.1215
  31	1	3	0.034756	-55.4771	1.53871	-27.6089
  32	1	3	0.003059	-55.9421	2.84438	-28.3094
  33	1	3	0.042972	-56.5695	2.66487	-25.9604
  34	1	3	0.004163	-56.687	3.61226	-27.1853
  35	1	3	-0.197219	-55.1589	2.09032	-26.204
  36	1	5	0.227416	-68.9149	-0.236192	-31.2605
  37	1	5	0.230059	-68.5876	1.10857	-26.4292
  38	1	6	0.034807	-67.8758	3.17325	-31.0085
  39	1	6	0.022109	-67.7192	3.86764	-28.527
  40	1	6	0.043894	-66.0611	1.17083	-31.493
  41	1	6	0.04727	-65.7696	3.89867	-31.3442
  42	1	6	0.039454	-65.6175	4.59244	-28.8555
  43	1	6	0.037752	-65.8004	2.3432	-27.2899
  44	1	6	0.046701	-64.6556	0.891358	-29.2299
  45	1	6	0.047659	-66.3156	0.325043	-28.9684
  46	1	5	0.173906	-63.015	1.88374	-32.228
  47	1	5	0.156928	-62.7242	3.2078	-27.3754
  48	1	6	0.056509	-60.0008	-0.796556	-31.5698
  49	1	6	0.064596	-61.4925	-0.140382	-32.2756
  50	1	6	0.065502	-61.4757	-0.690747	-30.587
  51	1	6	0.062922	-60.2755	2.07487	-32.9069
  52	1	6	0.049805	-58.769	1.39419	-32.2557
  53	1	6	0.059229	-59.3707	2.95466	-31.6582
  54	1	5	0.166497	-57.8427	0.150723	-30.1643
  55	1	5	0.141714	-60.2827	2.66652	-26.4939
  56	1	6	0.041341	-56.3222	-0.411239	-26.9986
  57	1	6	0.038019	-57.5266	0.830805	-25.1799
  58	1	6	0.012124	-54.631	1.04923	-28.1076
  59	1	6	0.001144	-56.5762	2.65921	-29.1842
  60	1	6	0.009013	-56.6925	3.1747	-24.9965
  61	1	6	0.001345	-57.7253	3.84347	-27.4503
  62	1	6	0.041603	-54.8881	1.30314	-25.4867
  63	1	6	0.069352	-54.3759	2.86169	-26.2119
  64	1	1	-0.425718	-79.6996	-8.82567	-22.3063
  65	1	1	0.123859	-79.2079	-9.74064	-21.356
  66	1	1	0.123846	-78.2806	-9.40378	-20.3877
  67	1	1	-0.442194	-77.7418	-8.11231	-20.2428
  68	1	1	0.030377	-78.4226	-7.15558	-21.0213
  69	1	1	0.003389	-79.3476	-7.49448	-22.0044
  70	1	2	0.006267	-79.1296	-6.2122	-22.7904
  71	1	2	0.040808	-78.0759	-5.82607	-21.6667
  72	1	3	0.010049	-78.2751	-6.30574	-24.0841
  73	1	2	-0.044998	-78.0562	-4.78034	-24.2825
  74	1	2	-0.017344	-77.0039	-4.39802	-23.1547
  75	1	3	0.004207	-76.7276	-5.74279	-22.4307
  76	1	3	-0.10977	-76.8938	-6.79579	-23.5635
  77	1	1	-0.002799	-76.9841	-4.36382	-25.2738
  78	1	1	-0.006419	-76.0716	-4.0339	-24.2943
  79	1	1	-0.256521	-76.6094	-4.72984	-26.5737
  80	1	1	0.004841	-75.2319	-4.60091	-26.8633
  81	1	4	0.00733	-74.2928	-4.27137	-25.8546
  82	1	1	-0.221146	-74.6887	-4.04872	-24.5126
  83	1	3	0.21053	-74.5276	-4.94101	-28.1844
  84	1	4	0.0182	-72.9408	-4.39158	-26.4202
  85	1	1	0.000377	-73.0563	-4.77606	-27.7819
  86	1	3	-0.237942	-74.8214	-6.39208	-28.6271
  87	1	3	-0.215479	-74.9233	-3.94331	-29.2953
  88	1	1	-0.2391	-71.9239	-4.89065	-28.6226
  89	1	1	-0.027923	-70.6976	-4.6997	-27.9746
  90	1	1	-0.180376	-71.686	-4.10627	-25.8237
  91	1	1	-0.054224	-70.5852	-4.33322	-26.6562
  92	1	2	0.006282	-69.2509	-4.37183	-28.3032
  93	1	2	0.015188	-69.1232	-3.94327	-26.7738
  94	1	3	0.034756	-68.8906	-3.0676	-29.0601
  95	1	3	0.003059	-70.0156	-2.00075	-28.904
  96	1	3	0.042972	-68.7167	-2.45085	-26.8634
  97	1	3	0.004163	-69.9003	-1.57873	-27.3828
  98	1	3	-0.197219	-67.7997	-2.53123	-28.1053
  99	1	5	0.227416	-80.1897	-9.12534	-23.227
 100	1	5	0.230059	-76.8324	-7.90218	-19.6894
 101	1	6	0.034807	-80.0159	-5.57313	-22.8804
 102	1	6	0.022109	-78.3031	-4.94628	-21.053
 103	1	6	0.043894	-78.711	-6.85739	-24.9263
 104	1	6	0.04727	-78.9791	-4.18991	-24.3249
 105	1	6	0.039454	-77.2645	-3.56679	-22.4887
 106	1	6	0.037752	-75.8127	-5.80245	-21.8282
 107	1	6	0.046701	-76.1038	-6.73718	-24.3231
 108	1	6	0.047659	-76.9241	-7.82278	-23.1853
 109	1	5	0.173906	-77.3176	-5.14187	-27.2855
 110	1	5	0.156928	-73.9719	-3.96939	-23.7019
 111	1	6	0.056509	-74.2433	-6.65255	-29.5222
 112	1	6	0.064596	-75.8852	-6.52629	-28.857
 113	1	6	0.065502	-74.5526	-7.09893	-27.8317
 114	1	6	0.062922	-74.7029	-2.91399	-28.9848
 115	1	6	0.049805	-75.9958	-4.009	-29.5162
 116	1	6	0.059229	-74.3702	-4.14505	-30.2207
 117	1	5	0.166497	-71.9994	-5.07574	-29.6896
 118	1	5	0.141714	-71.5908	-3.70319	-24.8207
 119	1	6	0.041341	-68.6167	-5.21435	-28.6003
 120	1	6	0.038019	-68.4121	-4.53478	-26.1864
 121	1	6	0.012124	-68.5566	-3.2131	-30.095
 122	1	6	0.001144	-71.0218	-2.30674	-29.2159
 123	1	6	0.009013	-68.2305	-2.05137	-25.9646
 124	1	6	0.001345	-70.8388	-1.64517	-26.819
 125	1	6	0.041603	-66.967	-3.23648	-27.9733
 126	1	6	0.069352	-67.3846	-1.56464	-28.4094
 127	1	1	-0.425718	-80.0679	-20.1555	-11.0336
 128	1	1	0.123859	-78.9372	-20.9315	-10.7176
 129	1	1	0.123846	-77.6682	-20.4051	-10.5695
 130	1	1	-0.442194	-77.3711	-19.0371	-10.7105
 131	1	1	0.030377	-78.5335	-18.2438	-10.7778
 132	1	1	0.003389	-79.8103	-18.7737	-10.9346
 133	1	2	0.006267	-80.3717	-17.5015	-11.5447
 134	1	2	0.040808	-78.9139	-16.8959	-11.3631
 135	1	3	0.010049	-80.5922	-17.4856	-13.0819
 136	1	2	-0.044998	-80.8053	-15.9539	-13.2258
 137	1	2	-0.017344	-79.3452	-15.3485	-13.0404
 138	1	3	0.004207	-78.4506	-16.5967	-12.8139
 139	1	3	-0.10977	-79.1601	-17.7	-13.6503
 140	1	1	-0.002799	-80.7482	-15.3773	-14.6285
 141	1	1	-0.006419	-79.4859	-14.8542	-14.467
 142	1	1	-0.256521	-81.3166	-15.6386	-15.8816
 143	1	1	0.004841	-80.5535	-15.1932	-16.9858
 144	1	4	0.00733	-79.2495	-14.6607	-16.8202
 145	1	1	-0.221146	-78.6472	-14.5414	-15.5424
 146	1	3	0.21053	-80.9144	-15.3178	-18.4725
 147	1	4	0.0182	-78.6741	-14.4171	-18.1511
 148	1	1	0.000377	-79.6352	-14.782	-19.1295
 149	1	3	-0.237942	-81.1684	-16.7885	-18.8719
 150	1	3	-0.215479	-82.1378	-14.441	-18.8205
 151	1	1	-0.2391	-79.42	-14.5448	-20.5075
 152	1	1	-0.027923	-78.1549	-14.0337	-20.8226
 153	1	1	-0.180376	-77.4444	-13.8034	-18.4996
 154	1	1	-0.054224	-77.2203	-13.6888	-19.8757
 155	1	2	0.006282	-77.4764	-13.251	-21.9349
 156	1	2	0.015188	-76.3964	-12.8499	-20.8357
 157	1	3	0.034756	-78.0356	-11.8772	-22.3888
 158	1	3	0.003059	-78.9049	-11.2273	-21.2706
 159	1	3	0.042972	-76.4907	-11.3036	-20.8018
 160	1	3	0.004163	-77.8376	-10.8385	-20.1682
 161	1	3	-0.197219	-76.7323	-11.0498	-22.3075
 162	1	5	0.227416	-80.9946	-20.5722	-11.4146
 163	1	5	0.230059	-76.3673	-18.6531	-10.8604
 164	1	6	0.034807	-81.1787	-17.035	-10.9674
 165	1	6	0.022109	-78.8089	-16.0516	-10.6715
 166	1	6	0.043894	-81.3841	-18.1351	-13.4753
 167	1	6	0.04727	-81.6001	-15.5434	-12.5917
 168	1	6	0.039454	-79.2235	-14.5582	-12.29
 169	1	6	0.037752	-77.3727	-16.4694	-12.9731
 170	1	6	0.046701	-79.0985	-17.5227	-14.7318
 171	1	6	0.047659	-78.769	-18.7037	-13.4472
 172	1	5	0.173906	-82.2512	-16.1787	-15.9957
 173	1	5	0.156928	-77.6031	-14.2767	-15.411
 174	1	6	0.056509	-82.0474	-17.1913	-18.3542
 175	1	6	0.064596	-80.304	-17.4128	-18.612
 176	1	6	0.065502	-81.3376	-16.8762	-19.9521
 177	1	6	0.062922	-81.9512	-13.3942	-18.5484
 178	1	6	0.049805	-83.0288	-14.7792	-18.2773
 179	1	6	0.059229	-82.3574	-14.4793	-19.8943
 180	1	5	0.166497	-80.1912	-14.6962	-21.2564
 181	1	5	0.141714	-76.7624	-13.3982	-17.7591
 182	1	6	0.041341	-77.0843	-13.838	-22.7728
 183	1	6	0.038019	-75.3788	-13.2012	-21.0396
 184	1	6	0.012124	-78.5117	-11.8779	-23.3773
 185	1	6	0.001144	-79.7452	-11.826	-20.8987
 186	1	6	0.009013	-75.6079	-10.7975	-20.3917
 187	1	6	0.001345	-78.0608	-11.2162	-19.1632
 188	1	6	0.041603	-75.9312	-11.4568	-22.9405
 189	1	6	0.069352	-76.8648	-9.99237	-22.5606
 190	1	1	-0.425718	-71.7282	-30.1098	-1.993
 191	1	1	0.123859	-70.5414	-30.7646	-2.36975
 192	1	1	0.123846	-69.5301	-30.1584	-3.08949
 193	1	1	-0.442194	-69.568	-28.8177	-3.51438
 194	1	1	0.030377	-70.6346	-28.1072	-2.92873
 195	1	1	0.003389	-71.6586	-28.7203	-2.21457
 196	1	2	0.006267	-72.6402	-27.5887	-2.45633
 197	1	2	0.040808	-71.4682	-26.8841	-3.26661
 198	1	3	0.010049	-73.7428	-27.8207	-3.52502
 199	1	2	-0.044998	-74.2088	-26.3442	-3.63314
 200	1	2	-0.017344	-73.034	-25.6304	-4.43799
 201	1	3	0.004207	-72.0239	-26.7781	-4.71188
 202	1	3	-0.10977	-72.9333	-28.0344	-4.83631
 203	1	1	-0.002799	-75.0899	-25.9813	-4.81329
 204	1	1	-0.006419	-74.0779	-25.3599	-5.50422
 205	1	1	-0.256521	-76.2757	-26.4203	-5.414
 206	1	1	0.004841	-76.4235	-26.0472	-6.77046
 207	1	4	0.00733	-75.3829	-25.3962	-7.48236
 208	1	1	-0.221146	-74.137	-25.0926	-6.87611
 209	1	3	0.21053	-77.6158	-26.3478	-7.68822
 210	1	4	0.0182	-75.8126	-25.2222	-8.87817
 211	1	1	0.000377	-77.1173	-25.762	-9.01631
 212	1	3	-0.237942	-77.8652	-27.8674	-7.81002
 213	1	3	-0.215479	-78.8897	-25.6254	-7.19505
 214	1	1	-0.2391	-77.8617	-25.608	-10.2087
 215	1	1	-0.027923	-77.1752	-24.9819	-11.257
 216	1	1	-0.180376	-75.1895	-24.4958	-9.92398
 217	1	1	-0.054224	-75.911	-24.4553	-11.1228
 218	1	2	0.006282	-77.5024	-24.1611	-12.4939
 219	1	2	0.015188	-76.0424	-23.5493	-12.3351
 220	1	3	0.034756	-78.4165	-22.9119	-12.3923
 221	1	3	0.003059	-78.4335	-22.3463	-10.9403
 222	1	3	0.042972	-76.3179	-22.0335	-12.1567
 223	1	3	0.004163	-76.9794	-21.7417	-10.7751
 224	1	3	-0.197219	-77.5142	-21.8932	-13.1263
 225	1	5	0.227416	-72.6245	-30.6281	-1.66766
 226	1	5	0.230059	-68.9156	-28.4099	-4.27968
 227	1	6	0.034807	-72.9889	-27.0844	-1.5474
 228	1	6	0.022109	-71.0805	-25.9418	-2.86153
 229	1	6	0.043894	-74.5118	-28.5669	-3.28949
 230	1	6	0.04727	-74.5086	-25.891	-2.68077
 231	1	6	0.039454	-72.593	-24.7329	-3.98797
 232	1	6	0.037752	-71.2923	-26.6139	-5.51265
 233	1	6	0.046701	-73.5636	-28.0174	-5.73484
 234	1	6	0.047659	-72.3646	-28.9722	-4.83611
 235	1	5	0.173906	-77.0083	-27.0235	-4.88736
 236	1	5	0.156928	-73.2875	-24.7172	-7.43723
 237	1	6	0.056509	-78.1624	-28.2962	-6.84526
 238	1	6	0.064596	-76.9552	-28.3811	-8.1451
 239	1	6	0.065502	-78.6597	-28.0758	-8.53694
 240	1	6	0.062922	-79.7287	-25.7936	-7.88088
 241	1	6	0.049805	-78.7179	-24.5436	-7.1265
 242	1	6	0.059229	-79.1837	-25.9857	-6.20163
 243	1	5	0.166497	-78.9091	-25.8833	-10.283
 244	1	5	0.141714	-74.2673	-23.9424	-9.77875
 245	1	6	0.041341	-77.6675	-24.7229	-13.4198
 246	1	6	0.038019	-75.3642	-23.7536	-13.171
 247	1	6	0.012124	-79.4139	-23.0346	-12.8327
 248	1	6	0.001144	-78.7303	-23.0438	-10.1482
 249	1	6	0.009013	-75.4669	-21.3809	-12.3886
 250	1	6	0.001345	-76.4368	-22.0928	-9.88954
 251	1	6	0.041603	-77.2683	-22.206	-14.1509
 252	1	6	0.069352	-77.9331	-20.8806	-13.1684
 253	1	1	-0.425718	-57.899	-33.5483	3.01299
 254	1	1	0.123859	-56.6296	-33.6797	2.41914
 255	1	1	0.123846	-56.3446	-33.2625	1.13363
 256	1	1	-0.442194	-57.2698	-32.622	0.290653
 257	1	1	0.030377	-58.4469	-32.2666	0.976745
 258	1	1	0.003389	-58.752	-32.7214	2.2549
 259	1	2	0.006267	-60.2478	-32.5287	2.07497
 260	1	2	0.040808	-59.8947	-31.994	0.619776
 261	1	3	0.010049	-61.1074	-33.7951	1.8016
 262	1	2	-0.044998	-62.3973	-33.0519	1.35934
 263	1	2	-0.017344	-62.038	-32.4995	-0.0915264
 264	1	3	0.004207	-60.5899	-33.0016	-0.331617
 265	1	3	-0.10977	-60.5337	-34.3385	0.461806
 266	1	1	-0.002799	-63.4686	-33.8688	0.658404
 267	1	1	-0.006419	-63.159	-33.3874	-0.58919
 268	1	1	-0.256521	-64.6758	-34.5093	0.960377
 269	1	1	0.004841	-65.5295	-34.7134	-0.15089
 270	1	4	0.00733	-65.2091	-34.2122	-1.44046
 271	1	1	-0.221146	-64.0201	-33.4785	-1.68583
 272	1	3	0.21053	-66.9462	-35.3045	-0.128775
 273	1	4	0.0182	-66.3694	-34.4145	-2.32084
 274	1	1	0.000377	-67.3985	-35.0394	-1.57178
 275	1	3	-0.237942	-66.9157	-36.8175	0.177441
 276	1	3	-0.215479	-67.8469	-34.563	0.886385
 277	1	1	-0.2391	-68.7066	-35.1833	-2.0893
 278	1	1	-0.027923	-68.8734	-34.7603	-3.41483
 279	1	1	-0.180376	-66.6002	-33.8994	-3.62078
 280	1	1	-0.054224	-67.8737	-34.1537	-4.14282
 281	1	2	0.006282	-69.9904	-34.1889	-4.27424
 282	1	2	0.015188	-68.8358	-33.4876	-5.11202
 283	1	3	0.034756	-70.8358	-32.987	-3.77472
 284	1	3	0.003059	-70.0675	-32.1698	-2.69261
 285	1	3	0.042972	-69.1707	-31.9789	-4.975
 286	1	3	0.004163	-68.9114	-31.4745	-3.52237
 287	1	3	-0.197219	-70.7136	-32.0728	-5.01598
 288	1	5	0.227416	-58.211	-34.0959	3.89643
 289	1	5	0.230059	-57.1311	-32.5049	-0.779243
 290	1	6	0.034807	-60.7037	-31.8133	2.76945
 291	1	6	0.022109	-60.1199	-30.9419	0.408178
 292	1	6	0.043894	-61.2075	-34.513	2.62522
 293	1	6	0.04727	-62.7798	-32.3453	2.10545
 294	1	6	0.039454	-62.1803	-31.4312	-0.294332
 295	1	6	0.037752	-60.2387	-33.0248	-1.37072
 296	1	6	0.046701	-61.1586	-35.1242	0.0178045
 297	1	6	0.047659	-59.5137	-34.7294	0.564353
 298	1	5	0.173906	-64.9637	-34.7623	1.97586
 299	1	5	0.156928	-63.8295	-32.9667	-2.62336
 300	1	6	0.056509	-66.5228	-37.0054	1.18422
 301	1	6	0.064596	-66.2744	-37.3432	-0.54139
 302	1	6	0.065502	-67.9219	-37.2496	0.114344
 303	1	6	0.062922	-67.8709	-33.4881	0.666064
 304	1	6	0.049805	-67.4757	-34.6922	1.9103
 305	1	6	0.059229	-68.8758	-34.9404	0.850053
 306	1	5	0.166497	-69.5426	-35.5039	-1.47567
 307	1	5	0.141714	-65.8812	-33.2649	-4.12861
 308	1	6	0.041341	-70.5903	-34.9138	-4.83546
 309	1	6	0.038019	-68.7686	-33.805	-6.15854
 310	1	6	0.012124	-71.867	-33.2352	-3.49399
 311	1	6	0.001144	-69.7267	-32.725	-1.8111
 312	1	6	0.009013	-68.7343	-31.3386	-5.75181
 313	1	6	0.001345	-67.9033	-31.6304	-3.12181
 314	1	6	0.041603	-71.0846	-32.552	-5.93296
 315	1	6	0.069352	-71.2195	-31.1053	-4.90593
 316	1	1	-0.425718	-42.8731	-29.537	1.38803
 317	1	1	0.123859	-41.9496	-30.088	0.479927
 318	1	1	0.123846	-42.2965	-30.5203	-0.785671
 319	1	1	-0.442194	-43.5888	-30.4016	-1.32735
 320	1	1	0.030377	-44.4309	-29.6085	-0.523367
 321	1	1	0.003389	-44.1015	-29.2248	0.77262
 322	1	2	0.006267	-45.5504	-29.0761	1.20547
 323	1	2	0.040808	-45.9231	-29.4894	-0.282994
 324	1	3	0.010049	-46.1629	-30.218	2.06738
 325	1	2	-0.044998	-47.6485	-29.7851	1.93233
 326	1	2	-0.017344	-48.0173	-30.1678	0.429423
 327	1	3	0.004207	-46.7172	-30.8094	-0.122293
 328	1	3	-0.10977	-46.0735	-31.4606	1.13572
 329	1	1	-0.002799	-48.7153	-30.7932	2.32844
 330	1	1	-0.006419	-49.0342	-31.1112	1.03207
 331	1	1	-0.256521	-49.102	-31.5684	3.42969
 332	1	1	0.004841	-49.9601	-32.6504	3.11353
 333	1	4	0.00733	-50.2794	-32.9797	1.77074
 334	1	1	-0.221146	-49.7701	-32.2427	0.672739
 335	1	3	0.21053	-50.6126	-33.6416	4.08864
 336	1	4	0.0182	-51.1408	-34.1689	1.77154
 337	1	1	0.000377	-51.3715	-34.5573	3.11511
 338	1	3	-0.237942	-49.55	-34.4343	4.88113
 339	1	3	-0.215479	-51.5786	-32.9155	5.05192
 340	1	1	-0.2391	-52.3294	-35.5458	3.44265
 341	1	1	-0.027923	-52.9376	-36.1743	2.34609
 342	1	1	-0.180376	-51.843	-34.7546	0.690819
 343	1	1	-0.054224	-52.6999	-35.8033	1.0407
 344	1	2	0.006282	-54.2732	-36.8335	2.02595
 345	1	2	0.015188	-54.0001	-36.3896	0.52431
 346	1	3	0.034756	-55.6146	-36.1239	2.35666
 347	1	3	0.003059	-55.4145	-34.5871	2.50043
 348	1	3	0.042972	-55.1987	-35.4581	0.2089
 349	1	3	0.004163	-55.1043	-34.1255	1.0172
 350	1	3	-0.197219	-56.2995	-36.2287	0.973786
 351	1	5	0.227416	-42.6948	-29.4636	2.456
 352	1	5	0.230059	-43.9257	-30.9465	-2.20324
 353	1	6	0.034807	-45.8328	-28.0663	1.52558
 354	1	6	0.022109	-46.4231	-28.7329	-0.899402
 355	1	6	0.043894	-45.7723	-30.3339	3.08601
 356	1	6	0.04727	-47.8497	-28.7547	2.24847
 357	1	6	0.039454	-48.4418	-29.3767	-0.200346
 358	1	6	0.037752	-46.8148	-31.4405	-1.01437
 359	1	6	0.046701	-46.6455	-32.3186	1.51206
 360	1	6	0.047659	-45.0414	-31.788	0.963367
 361	1	5	0.173906	-48.7613	-31.3619	4.4393
 362	1	5	0.156928	-49.9227	-32.541	-0.359281
 363	1	6	0.056509	-50.0217	-35.1985	5.51108
 364	1	6	0.064596	-48.9652	-33.7693	5.52818
 365	1	6	0.065502	-48.8567	-34.9392	4.19655
 366	1	6	0.062922	-52.086	-33.6283	5.71297
 367	1	6	0.049805	-52.3454	-32.3677	4.48923
 368	1	6	0.059229	-51.0383	-32.1953	5.67845
 369	1	5	0.166497	-52.64	-35.7377	4.46489
 370	1	5	0.141714	-51.8052	-34.3457	-0.313697
 371	1	6	0.041341	-54.3283	-37.9165	2.18154
 372	1	6	0.038019	-53.9125	-37.2141	-0.191954
 373	1	6	0.012124	-56.1832	-36.5754	3.1792
 374	1	6	0.001144	-54.6779	-34.2595	3.24323
 375	1	6	0.009013	-55.4022	-35.3164	-0.859908
 376	1	6	0.001345	-54.1841	-33.5423	0.901067
 377	1	6	0.041603	-56.4049	-37.2679	0.63169
 378	1	6	0.069352	-57.2867	-35.7511	0.929235
 379	1	1	-0.425718	-30.1615	-29.4951	-7.91062
 380	1	1	0.123859	-29.5072	-30.632	-8.41648
 381	1	1	0.123846	-30.171	-31.7326	-8.92511
 382	1	1	-0.442194	-31.5741	-31.8194	-9.01367
 383	1	1	0.030377	-32.2062	-30.5858	-8.75161
 384	1	1	0.003389	-31.5353	-29.491	-8.21618
 385	1	2	0.006267	-32.7879	-28.8887	-7.61044
 386	1	2	0.040808	-33.5622	-30.1246	-8.24051
 387	1	3	0.010049	-32.9867	-29.0668	-6.07909
 388	1	2	-0.044998	-34.4672	-28.6094	-6.02965
 389	1	2	-0.017344	-35.2644	-29.822	-6.68445
 390	1	3	0.004207	-34.1541	-30.8608	-7.01029
 391	1	3	-0.10977	-33.0904	-30.609	-5.90377
 392	1	1	-0.002799	-35.2477	-28.9195	-4.76494
 393	1	1	-0.006419	-35.9505	-29.9528	-5.33915
 394	1	1	-0.256521	-35.0909	-28.7776	-3.37944
 395	1	1	0.004841	-35.8465	-29.6849	-2.59952
 396	1	4	0.00733	-36.5962	-30.7301	-3.19576
 397	1	1	-0.221146	-36.606	-30.9401	-4.59729
 398	1	3	0.21053	-35.906	-29.7722	-1.06726
 399	1	4	0.0182	-37.2024	-31.537	-2.12869
 400	1	1	0.000377	-36.8165	-30.9946	-0.8769
 401	1	3	-0.237942	-34.5075	-30.022	-0.460705
 402	1	3	-0.215479	-36.5396	-28.4978	-0.465378
 403	1	1	-0.2391	-37.3733	-31.4628	0.336786
 404	1	1	-0.027923	-38.2525	-32.548	0.2097
 405	1	1	-0.180376	-38.1826	-32.5533	-2.23201
 406	1	1	-0.054224	-38.6416	-33.0556	-1.01005
 407	1	2	0.006282	-39.4571	-33.1169	0.948946
 408	1	2	0.015188	-39.9164	-33.6721	-0.468305
 409	1	3	0.034756	-40.6425	-32.2072	1.36751
 410	1	3	0.003059	-40.6723	-30.907	0.515672
 411	1	3	0.042972	-41.2771	-32.9624	-0.695535
 412	1	3	0.004163	-41.0873	-31.427	-0.921218
 413	1	3	-0.197219	-41.8087	-33.0177	0.755195
 414	1	5	0.227416	-29.6844	-28.7676	-7.26193
 415	1	5	0.230059	-32.1088	-32.7532	-9.1548
 416	1	6	0.034807	-33.0474	-27.8934	-7.99002
 417	1	6	0.022109	-34.2941	-29.9033	-9.02627
 418	1	6	0.043894	-32.2836	-28.539	-5.42282
 419	1	6	0.04727	-34.6476	-27.6112	-6.44595
 420	1	6	0.039454	-35.9316	-29.5875	-7.52247
 421	1	6	0.037752	-34.4751	-31.8987	-7.16264
 422	1	6	0.046701	-33.4355	-30.9045	-4.90453
 423	1	6	0.047659	-32.143	-31.1226	-6.10197
 424	1	5	0.173906	-34.4133	-28.0517	-2.94132
 425	1	5	0.156928	-37.0485	-31.819	-5.05456
 426	1	6	0.056509	-34.0513	-30.9184	-0.899654
 427	1	6	0.064596	-34.5734	-30.1712	0.623994
 428	1	6	0.065502	-33.8396	-29.1729	-0.649792
 429	1	6	0.062922	-37.5397	-28.33	-0.885149
 430	1	6	0.049805	-35.9269	-27.6147	-0.684808
 431	1	6	0.059229	-36.6378	-28.5826	0.623605
 432	1	5	0.166497	-37.2053	-30.9618	1.28505
 433	1	5	0.141714	-38.618	-32.8447	-3.18241
 434	1	6	0.041341	-39.2446	-33.8886	1.69702
 435	1	6	0.038019	-39.9975	-34.7629	-0.532746
 436	1	6	0.012124	-40.7299	-32.0319	2.4471
 437	1	6	0.001144	-39.7656	-30.2914	0.534456
 438	1	6	0.009013	-41.9281	-33.4434	-1.43615
 439	1	6	0.001345	-40.4086	-31.1293	-1.72875
 440	1	6	0.041603	-41.8637	-34.0427	1.14818
 441	1	6	0.069352	-42.7915	-32.5481	0.884256
 442	1	1	-0.425718	-19.8908	-37.115	-17.968
 443	1	1	0.123859	-19.4462	-38.4292	-18.1949
 444	1	1	0.123846	-20.0815	-39.5521	-17.6816
 445	1	1	-0.442194	-21.2747	-39.464	-16.9359
 446	1	1	0.030377	-21.5858	-38.1516	-16.5276
 447	1	1	0.003389	-20.9075	-37.0329	-17.0011
 448	1	2	0.006267	-22.0852	-36.1044	-16.7916
 449	1	2	0.040808	-22.8736	-37.3795	-16.2753
 450	1	3	0.010049	-22.019	-35.1756	-15.5486
 451	1	2	-0.044998	-23.4936	-34.7038	-15.5996
 452	1	2	-0.017344	-24.3221	-35.9727	-15.1135
 453	1	3	0.004207	-23.2214	-37.03	-14.8039
 454	1	3	-0.10977	-22.0068	-36.1695	-14.352
 455	1	1	-0.002799	-24.0402	-34.0058	-14.3689
 456	1	1	-0.006419	-24.7796	-35.0931	-13.9648
 457	1	1	-0.256521	-23.6457	-32.9844	-13.4951
 458	1	1	0.004841	-24.2124	-33.0553	-12.2012
 459	1	4	0.00733	-25.0256	-34.1471	-11.8039
 460	1	1	-0.221146	-25.2641	-35.2503	-12.6618
 461	1	3	0.21053	-23.9634	-32.0981	-11.0274
 462	1	4	0.0182	-25.389	-33.9671	-10.3908
 463	1	1	0.000377	-24.7663	-32.7851	-9.91425
 464	1	3	-0.237942	-22.4632	-32.0246	-10.666
 465	1	3	-0.215479	-24.5184	-30.6891	-11.3343
 466	1	1	-0.2391	-25.0168	-32.2845	-8.61572
 467	1	1	-0.027923	-25.8557	-33.0822	-7.8266
 468	1	1	-0.180376	-26.337	-34.6774	-9.61202
 469	1	1	-0.054224	-26.4978	-34.2004	-8.30639
 470	1	2	0.006282	-26.809	-32.9083	-6.65599
 471	1	2	0.015188	-27.563	-34.1896	-7.22303
 472	1	3	0.034756	-27.9029	-31.8126	-6.69022
 473	1	3	0.003059	-28.2263	-31.3976	-8.15548
 474	1	3	0.042972	-28.9878	-33.6472	-7.52043
 475	1	3	0.004163	-28.9827	-32.663	-8.73212
 476	1	3	-0.197219	-29.1269	-32.682	-6.32052
 477	1	5	0.227416	-19.6128	-36.2813	-18.6051
 478	1	5	0.230059	-21.9727	-40.2901	-16.8457
 479	1	6	0.034807	-22.4376	-35.6049	-17.7019
 480	1	6	0.022109	-23.7346	-37.7298	-16.8567
 481	1	6	0.043894	-21.2488	-34.3941	-15.5533
 482	1	6	0.04727	-23.7914	-34.2483	-16.5517
 483	1	6	0.039454	-25.1236	-36.3276	-15.7723
 484	1	6	0.037752	-23.5059	-37.8655	-14.1523
 485	1	6	0.046701	-22.1707	-35.6766	-13.3849
 486	1	6	0.047659	-21.0753	-36.7467	-14.2876
 487	1	5	0.173906	-22.9235	-32.2246	-13.7765
 488	1	5	0.156928	-25.7366	-36.1652	-12.3195
 489	1	6	0.056509	-22.3061	-31.4093	-9.77149
 490	1	6	0.064596	-21.8817	-31.5888	-11.4873
 491	1	6	0.065502	-22.0667	-33.0274	-10.4625
 492	1	6	0.062922	-25.5878	-30.7406	-11.5756
 493	1	6	0.049805	-23.9984	-30.2412	-12.1901
 494	1	6	0.059229	-24.3961	-30.0213	-10.473
 495	1	5	0.166497	-24.6542	-31.3168	-8.28313
 496	1	5	0.141714	-26.9485	-35.4743	-10.0231
 497	1	6	0.041341	-26.3778	-33.0333	-5.65663
 498	1	6	0.038019	-27.5785	-35.0515	-6.54683
 499	1	6	0.012124	-27.7271	-30.9648	-6.01636
 500	1	6	0.001144	-27.3839	-31.0498	-8.76439
 501	1	6	0.009013	-29.7694	-34.4152	-7.57653
 502	1	6	0.001345	-28.5691	-33.0502	-9.67116
 503	1	6	0.041603	-29.0099	-33.1893	-5.35251
 504	1	6	0.069352	-30.0734	-32.1294	-6.30515
 505	1	1	-0.425718	-9.71768	-52.1576	-24.5675
 506	1	1	0.123859	-9.52041	-53.4464	-24.0457
 507	1	1	0.123846	-10.1768	-53.9268	-22.9196
 508	1	1	-0.442194	-11.1688	-53.1701	-22.2599
 509	1	1	0.030377	-11.2083	-51.8148	-22.649
 510	1	1	0.003389	-10.4862	-51.3274	-23.7351
 511	1	2	0.006267	-11.4735	-50.2203	-24.024
 512	1	2	0.040808	-12.3213	-50.7827	-22.8098
 513	1	3	0.010049	-11.0599	-48.7958	-23.5684
 514	1	2	-0.044998	-12.4386	-48.1392	-23.8079
 515	1	2	-0.017344	-13.3511	-48.6926	-22.622
 516	1	3	0.004207	-12.3682	-49.5931	-21.8105
 517	1	3	-0.10977	-10.9867	-48.9106	-22.0193
 518	1	1	-0.002799	-12.6654	-46.7731	-23.1991
 519	1	1	-0.006419	-13.4817	-47.2365	-22.2015
 520	1	1	-0.256521	-12.462	-45.4226	-23.488
 521	1	1	0.004841	-13.182	-44.538	-22.652
 522	1	4	0.00733	-14.102	-45.0074	-21.6741
 523	1	1	-0.221146	-14.2949	-46.3961	-21.4305
 524	1	3	0.21053	-13.2027	-43.0093	-22.7485
 525	1	4	0.0182	-14.8257	-43.8421	-21.1288
 526	1	1	0.000377	-14.3038	-42.6714	-21.7374
 527	1	3	-0.237942	-11.8479	-42.4035	-22.3219
 528	1	3	-0.215479	-13.5808	-42.5418	-24.1737
 529	1	1	-0.2391	-14.9069	-41.4082	-21.5568
 530	1	1	-0.027923	-15.9873	-41.3813	-20.6698
 531	1	1	-0.180376	-16.0159	-43.8	-20.3544
 532	1	1	-0.054224	-16.531	-42.5183	-20.109
 533	1	2	0.006282	-17.272	-40.5887	-20.5731
 534	1	2	0.015188	-17.9134	-41.8959	-19.9438
 535	1	3	0.034756	-17.4022	-39.5478	-19.4372
 536	1	3	0.003059	-18.9042	-39.1672	-19.4025
 537	1	3	0.042972	-18.3759	-41.4059	-18.5479
 538	1	3	0.004163	-19.5916	-40.4581	-18.8017
 539	1	3	-0.197219	-17.2579	-40.4104	-18.1616
 540	1	5	0.227416	-9.48067	-51.9005	-25.5951
 541	1	5	0.230059	-11.9507	-53.6301	-21.6641
 542	1	6	0.034807	-11.9112	-50.2583	-25.0288
 543	1	6	0.022109	-13.3084	-51.2106	-23.0208
 544	1	6	0.043894	-10.1999	-48.341	-24.076
 545	1	6	0.04727	-12.8097	-48.2398	-24.835
 546	1	6	0.039454	-14.2965	-49.1843	-22.8798
 547	1	6	0.037752	-12.6512	-49.829	-20.7771
 548	1	6	0.046701	-10.9151	-47.9346	-21.5217
 549	1	6	0.047659	-10.1485	-49.5321	-21.6785
 550	1	5	0.173906	-11.8449	-45.086	-24.315
 551	1	5	0.156928	-15.0426	-46.7739	-20.7409
 552	1	6	0.056509	-11.8936	-41.3075	-22.3164
 553	1	6	0.064596	-11.0483	-42.7111	-23.0068
 554	1	6	0.065502	-11.5776	-42.7373	-21.312
 555	1	6	0.062922	-12.8275	-42.859	-24.9047
 556	1	6	0.049805	-13.6592	-41.4491	-24.2233
 557	1	6	0.059229	-14.5469	-42.9666	-24.4748
 558	1	5	0.166497	-14.6214	-40.5404	-22.143
 559	1	5	0.141714	-16.5463	-44.7016	-20.0654
 560	1	6	0.041341	-17.6753	-40.2266	-21.5254
 561	1	6	0.038019	-18.7195	-42.3869	-20.5004
 562	1	6	0.012124	-16.7179	-38.6923	-19.4994
 563	1	6	0.001144	-19.3329	-38.8413	-20.3595
 564	1	6	0.009013	-18.563	-42.1974	-17.8115
 565	1	6	0.001345	-20.3889	-40.8702	-19.4343
 566	1	6	0.041603	-16.2706	-40.8799	-18.0627
 567	1	6	0.069352	-17.4592	-39.8623	-17.2319
 568	1	1	-0.425718	-0.369026	-67.3979	-22.0024
 569	1	1	0.123859	0.476926	-67.167	-20.8957
 570	1	1	0.123846	-0.040041	-66.7886	-19.6174
 571	1	1	-0.442194	-1.44035	-66.6125	-19.4494
 572	1	1	0.030377	-2.25189	-66.9764	-20.5301
 573	1	1	0.003389	-1.73782	-67.3615	-21.7392
 574	1	2	0.006267	-3.01297	-67.0764	-22.5001
 575	1	2	0.040808	-3.62363	-66.6339	-21.099
 576	1	3	0.010049	-3.03488	-65.7774	-23.346
 577	1	2	-0.044998	-4.55768	-65.7751	-23.6195
 578	1	2	-0.017344	-5.20863	-65.3372	-22.2334
 579	1	3	0.004207	-3.97181	-65.1318	-21.3075
 580	1	3	-0.10977	-2.86419	-64.649	-22.2878
 581	1	1	-0.002799	-5.14264	-64.4987	-24.1816
 582	1	1	-0.006419	-5.73079	-64.1276	-22.9965
 583	1	1	-0.256521	-4.86714	-63.5975	-25.2143
 584	1	1	0.004841	-5.41197	-62.3068	-25.0331
 585	1	4	0.00733	-6.10125	-61.9406	-23.8473
 586	1	1	-0.221146	-6.20435	-62.8323	-22.7457
 587	1	3	0.21053	-5.27961	-61.1188	-25.99
 588	1	4	0.0182	-6.52242	-60.532	-23.9742
 589	1	1	0.000377	-6.03989	-60.0379	-25.2133
 590	1	3	-0.237942	-3.80114	-60.7201	-26.1936
 591	1	3	-0.215479	-5.95199	-61.4248	-27.3478
 592	1	1	-0.2391	-6.41271	-58.768	-25.7019
 593	1	1	-0.027923	-7.21218	-58.0069	-24.8435
 594	1	1	-0.180376	-7.45799	-59.7935	-23.201
 595	1	1	-0.054224	-7.73365	-58.4976	-23.6641
 596	1	2	0.006282	-8.31693	-56.994	-25.0359
 597	1	2	0.015188	-8.94319	-57.5665	-23.6959
 598	1	3	0.034756	-8.01672	-55.5186	-24.6846
 599	1	3	0.003059	-9.39629	-54.8165	-24.6795
 600	1	3	0.042972	-8.98546	-56.3139	-22.7826
 601	1	3	0.004163	-10.0899	-55.3779	-23.3758
 602	1	3	-0.197219	-7.68284	-55.5803	-23.1759
 603	1	5	0.227416	0.0227462	-67.561	-23.0014
 604	1	5	0.230059	-1.86279	-66.1895	-18.5432
 605	1	6	0.034807	-3.46105	-67.9502	-22.9879
 606	1	6	0.022109	-4.4506	-67.2366	-20.7055
 607	1	6	0.043894	-2.37374	-65.7435	-24.2208
 608	1	6	0.04727	-4.93894	-66.6926	-24.0836
 609	1	6	0.039454	-5.98238	-65.9929	-21.817
 610	1	6	0.037752	-4.12561	-64.531	-20.4025
 611	1	6	0.046701	-3.06199	-63.6485	-22.6939
 612	1	6	0.047659	-1.86566	-64.6403	-21.8319
 613	1	5	0.173906	-4.25186	-63.8603	-26.0691
 614	1	5	0.156928	-6.5825	-62.5235	-21.7765
 615	1	6	0.056509	-3.24224	-61.5217	-26.6917
 616	1	6	0.064596	-3.32005	-60.519	-25.228