pySIMM System Object

1219 atoms
1436 bonds
2964 angles
5596 dihedrals
114 impropers

6 atom types
11 bond types
24 angle types
21 dihedral types
1 improper types

-149.675266 149.675266 xlo xhi
-149.675266 149.675266 ylo yhi
-149.675266 149.675266 zlo zhi

Masses

   1	12.01	# ca
   2	12.01	# cy
   3	12.01	# c3
   4	12.01	# cp
   5	1.008	# ha
   6	1.008	# hc

Pair Coeffs

   1	0.086	3.3996695084235347	# ca
   2	0.086	3.3996695084235347	# cy
   3	0.1094	3.3996695084235347	# c3
   4	0.086	3.3996695084235347	# cp
   5	0.015	2.59964245953351	# ha
   6	0.0157	2.649532787749369	# hc

Bond Coeffs

   1	321.0	1.5156	# c3,ca
   2	285.0	1.5562	# cy,cy
   3	330.6	1.0969	# c3,hc
   4	333.3	1.0949	# cy,hc
   5	321.2	1.5154	# ca,cy
   6	461.1	1.3984	# ca,ca
   7	300.9	1.5375	# c3,c3
   8	305.9	1.5319	# c3,cy
   9	351.4	1.4854	# cp,cp
  10	345.8	1.086	# ca,ha
  11	450.2	1.4058	# ca,cp

Angle Coeffs

   1	62.73	112.39	# c3,c3,cy
   2	46.29	110.75	# cy,c3,hc
   3	44.83	114.79	# cy,cy,hc
   4	60.66	118.7	# c3,cy,cy
   5	66.72	118.38	# ca,cp,ca
   6	62.86	111.51	# c3,c3,c3
   7	46.43	110.14	# c3,cy,hc
   8	63.43	120.63	# c3,ca,cp
   9	63.56	112.24	# ca,c3,ca
  10	64.05	121.11	# ca,cp,cp
  11	66.62	120.02	# ca,ca,ca
  12	39.4	107.58	# hc,c3,hc
  13	47.98	119.86	# cp,ca,ha
  14	63.53	120.77	# c3,ca,ca
  15	63.51	120.86	# ca,ca,cy
  16	62.8	113.57	# c3,cy,ca
  17	67.9	96.03	# cy,c3,cy
  18	45.97	114.53	# ca,cy,hc
  19	61.4	116.81	# ca,cy,cy
  20	63.15	112.07	# c3,c3,ca
  21	66.26	120.69	# ca,ca,cp
  22	46.34	109.8	# c3,c3,hc
  23	48.18	119.88	# ca,ca,ha
  24	46.8	110.47	# ca,c3,hc

Dihedral Coeffs

   1	1	0.16	3	0.0	# cy,c3,cy,ca
   2	1	0.16	3	0.0	# c3,c3,cy,ca
   3	1	0.16	3	0.0	# hc,c3,cy,ca
   4	3	0.18	3	0.0	0.25	2	180.0	0.2	1	180.0	# cy,c3,cy,cy
   5	1	0.15	3	0	# hc,c3,c3,hc
   6	3	0.18	3	0.0	0.25	2	180.0	0.2	1	180.0	# c3,c3,cy,cy
   7	1	0.16	3	0.0	# hc,c3,cy,cy
   8	1	0.16	3	0.0	# cy,c3,cy,hc
   9	1	0.16	3	0.0	# c3,c3,cy,hc
  10	1	0.15	3	0.0	# hc,c3,cy,hc
  11	1	3.625	2	180	# X,ca,ca,X
  12	1	0.15555555555555556	3	0	# X,cy,cy,X
  13	1	3.625	2	180	# X,ca,cp,X
  14	3	0.18	3	0	0.25	2	180	0.2	1	180	# c3,c3,c3,c3
  15	1	0.15555555555555556	3	0	# X,c3,c3,X
  16	1	0.16	3	0	# hc,c3,c3,c3
  17	1	1.0	2	180	# X,cp,cp,X
  18	1	0.0	2	0.0	# ca,ca,cy,cy
  19	1	0.0	2	0.0	# ca,ca,cy,c3
  20	1	0.0	2	0	# X,c3,ca,X
  21	3	0.38	3	180.0	0.0	2	0.0	1.15	1	0.0	# ca,ca,cy,hc

Improper Coeffs

   1	1.1	-1	2	# ca,X,X,ha

Atoms

   1	1	1	-0.425718	-21.4624	-1.7804	-55.0444
   2	1	1	0.123859	-20.4411	-2.44199	-54.3389
   3	1	1	0.123846	-20.5068	-3.77036	-53.9645
   4	1	1	-0.442194	-21.5948	-4.612	-54.2631
   5	1	1	0.030377	-22.4896	-4.01824	-55.1761
   6	1	1	0.003389	-22.4305	-2.67645	-55.537
   7	1	2	0.006267	-23.8934	-2.6136	-55.9341
   8	1	2	0.040808	-23.9594	-4.15076	-55.5347
   9	1	3	0.010049	-24.871	-1.92911	-54.9391
  10	1	2	-0.044998	-26.1848	-2.41745	-55.6052
  11	1	2	-0.017344	-26.2536	-3.96281	-55.2262
  12	1	3	0.004207	-24.9795	-4.18953	-54.3663
  13	1	3	-0.10977	-24.7689	-2.81654	-53.6655
  14	1	1	-0.002799	-27.4656	-2.27635	-54.8032
  15	1	1	-0.006419	-27.5298	-3.61226	-54.4868
  16	1	1	-0.256521	-28.1563	-1.28539	-54.0946
  17	1	1	0.004841	-29.0511	-1.77392	-53.1135
  18	1	4	0.00733	-29.1285	-3.15519	-52.7978
  19	1	1	-0.221146	-28.305	-4.11607	-53.4373
  20	1	3	0.21053	-29.9565	-0.946101	-52.1911
  21	1	4	0.0182	-30.0715	-3.32635	-51.6825
  22	1	1	0.000377	-30.5738	-2.04911	-51.3205
  23	1	3	-0.237942	-29.1348	0.041125	-51.3325
  24	1	3	-0.215479	-31.036	-0.193601	-53.0007
  25	1	1	-0.2391	-31.5974	-1.8988	-50.3557
  26	1	1	-0.027923	-31.9873	-3.08777	-49.7272
  27	1	1	-0.180376	-30.5698	-4.52065	-51.1017
  28	1	1	-0.054224	-31.5031	-4.32439	-50.0779
  29	1	2	0.006282	-33.177	-3.65104	-48.969
  30	1	2	0.015188	-32.6178	-5.08	-49.3755
  31	1	3	0.034756	-34.5902	-3.64156	-49.6034
  32	1	3	0.003059	-34.546	-3.58496	-51.1548
  33	1	3	0.042972	-33.7884	-5.68987	-50.1862
  34	1	3	0.004163	-33.9996	-4.98182	-51.5522
  35	1	3	-0.197219	-34.9887	-5.11828	-49.4041
  36	1	5	0.227416	-21.5462	-0.700417	-55.1099
  37	1	5	0.230059	-21.7742	-5.56154	-53.7693
  38	1	6	0.034807	-24.0707	-2.36564	-56.9872
  39	1	6	0.022109	-24.169	-4.86468	-56.3401
  40	1	6	0.043894	-24.7589	-0.846668	-54.7998
  41	1	6	0.04727	-26.2784	-2.15941	-56.6668
  42	1	6	0.039454	-26.3805	-4.67449	-56.0507
  43	1	6	0.037752	-24.9652	-5.08053	-53.7265
  44	1	6	0.046701	-25.5472	-2.59176	-52.9248
  45	1	6	0.047659	-23.7935	-2.73739	-53.1703
  46	1	5	0.173906	-27.9905	-0.225964	-54.2626
  47	1	5	0.156928	-28.2497	-5.14988	-53.1124
  48	1	6	0.056509	-29.7791	0.568307	-50.6182
  49	1	6	0.064596	-28.6366	0.789247	-51.9609
  50	1	6	0.065502	-28.3637	-0.493575	-50.7635
  51	1	6	0.062922	-30.5773	0.53091	-53.6846
  52	1	6	0.049805	-31.7196	0.349392	-52.3366
  53	1	6	0.059229	-31.6293	-0.89692	-53.5988
  54	1	5	0.166497	-32.0806	-0.947399	-50.1561
  55	1	5	0.141714	-30.2966	-5.5062	-51.4647
  56	1	6	0.041341	-33.2035	-3.45681	-47.8911
  57	1	6	0.038019	-32.3203	-5.71457	-48.5334
  58	1	6	0.012124	-35.2848	-2.91901	-49.1567
  59	1	6	0.001144	-33.9259	-2.76603	-51.5373
  60	1	6	0.009013	-33.7718	-6.7848	-50.2566
  61	1	6	0.001345	-33.0832	-4.92085	-52.1504
  62	1	6	0.041603	-34.9942	-5.42114	-48.3478
  63	1	6	0.069352	-35.9573	-5.36788	-49.8601
  64	1	1	-0.425718	-6.84251	-7.73646	-54.2665
  65	1	1	0.123859	-6.19805	-8.41768	-53.2167
  66	1	1	0.123846	-6.85889	-9.22293	-52.3093
  67	1	1	-0.442194	-8.24044	-9.48521	-52.3515
  68	1	1	0.030377	-8.82835	-9.00745	-53.539
  69	1	1	0.003389	-8.17335	-8.16805	-54.4321
  70	1	2	0.006267	-9.46162	-7.62972	-55.0289
  71	1	2	0.040808	-10.21	-8.60348	-54.0177
  72	1	3	0.010049	-9.92363	-6.21298	-54.5851
  73	1	2	-0.044998	-11.3631	-6.29892	-55.161
  74	1	2	-0.017344	-12.1143	-7.29189	-54.1622
  75	1	3	0.004207	-11.0285	-7.64818	-53.1109
  76	1	3	-0.10977	-10.1451	-6.36873	-53.0533
  77	1	1	-0.002799	-12.3695	-5.25978	-54.7002
  78	1	1	-0.006419	-13.0178	-6.11677	-53.8512
  79	1	1	-0.256521	-12.6142	-3.88307	-54.7507
  80	1	1	0.004841	-13.6662	-3.44949	-53.9068
  81	1	4	0.00733	-14.346	-4.34175	-53.0344
  82	1	1	-0.221146	-14.0067	-5.71728	-52.9484
  83	1	3	0.21053	-14.2174	-2.02345	-53.7722
  84	1	4	0.0182	-15.3652	-3.58307	-52.2937
  85	1	1	0.000377	-15.306	-2.22811	-52.709
  86	1	3	-0.237942	-13.1322	-1.04108	-53.2802
  87	1	3	-0.215479	-14.8242	-1.53829	-55.1085
  88	1	1	-0.2391	-16.2673	-1.2809	-52.2868
  89	1	1	-0.027923	-17.2081	-1.75995	-51.3655
  90	1	1	-0.180376	-16.4012	-4.06173	-51.4528
  91	1	1	-0.054224	-17.2759	-3.07852	-50.9757
  92	1	2	0.006282	-18.6421	-1.45716	-50.9616
  93	1	2	0.015188	-18.7221	-2.98256	-50.5188
  94	1	3	0.034756	-19.7554	-1.34666	-52.0353
  95	1	3	0.003059	-19.3553	-2.10707	-53.3348
  96	1	3	0.042972	-19.8671	-3.54222	-51.4049
  97	1	3	0.004163	-19.4325	-3.62813	-52.9004
  98	1	3	-0.197219	-20.7941	-2.30441	-51.4068
  99	1	5	0.227416	-6.39529	-6.91647	-54.8192
 100	1	5	0.230059	-8.79822	-9.92109	-51.529
 101	1	6	0.034807	-9.58836	-7.8324	-56.0988
 102	1	6	0.022109	-10.7944	-9.42121	-54.456
 103	1	6	0.043894	-9.30883	-5.36576	-54.9136
 104	1	6	0.04727	-11.408	-6.53462	-56.2309
 105	1	6	0.039454	-12.6249	-8.15748	-54.6009
 106	1	6	0.037752	-11.3789	-8.05357	-52.1536
 107	1	6	0.046701	-10.6667	-5.511	-52.609
 108	1	6	0.047659	-9.20832	-6.52324	-52.5029
 109	1	5	0.173906	-12.0473	-3.20835	-55.3844
 110	1	5	0.156928	-14.4704	-6.39822	-52.2423
 111	1	6	0.056509	-13.555	-0.0425479	-53.1143
 112	1	6	0.064596	-12.3218	-0.952451	-54.0139
 113	1	6	0.065502	-12.6987	-1.38848	-52.3339
 114	1	6	0.062922	-15.6062	-2.229	-55.4493
 115	1	6	0.049805	-14.057	-1.48194	-55.8905
 116	1	6	0.059229	-15.2735	-0.543799	-54.9998
 117	1	5	0.166497	-16.3271	-0.283182	-52.7104
 118	1	5	0.141714	-16.5585	-5.1198	-51.2701
 119	1	6	0.041341	-18.7755	-0.734664	-50.1489
 120	1	6	0.038019	-18.9065	-3.14252	-49.4507
 121	1	6	0.012124	-20.1248	-0.32881	-52.2124
 122	1	6	0.001144	-18.409	-1.8126	-53.803
 123	1	6	0.009013	-20.3359	-4.45885	-51.0255
 124	1	6	0.001345	-18.5282	-4.21006	-53.1136
 125	1	6	0.041603	-21.0944	-1.99831	-50.3948
 126	1	6	0.069352	-21.7018	-2.43165	-52.0099
 127	1	1	-0.425718	2.61085	-19.2342	-48.9138
 128	1	1	0.123859	2.94929	-19.586	-47.5946
 129	1	1	0.123846	2.09772	-19.448	-46.5171
 130	1	1	-0.442194	0.781784	-18.9582	-46.6125
 131	1	1	0.030377	0.373889	-18.8222	-47.9548
 132	1	1	0.003389	1.23864	-18.9424	-49.036
 133	1	2	0.006267	0.335551	-18.168	-49.9768
 134	1	2	0.040808	-0.662017	-18.0414	-48.7434
 135	1	3	0.010049	0.727253	-16.6973	-50.2894
 136	1	2	-0.044998	-0.61417	-16.288	-50.9532
 137	1	2	-0.017344	-1.62833	-16.1751	-49.726
 138	1	3	0.004207	-0.75036	-16.5136	-48.4899
 139	1	3	-0.10977	0.661861	-16.0036	-48.8983
 140	1	1	-0.002799	-0.872096	-14.8063	-51.1555
 141	1	1	-0.006419	-1.75057	-14.714	-50.1085
 142	1	1	-0.256521	-0.363344	-13.699	-51.8433
 143	1	1	0.004841	-0.913245	-12.4591	-51.4351
 144	1	4	0.00733	-1.83656	-12.3659	-50.3594
 145	1	1	-0.221146	-2.25365	-13.5047	-49.6218
 146	1	3	0.21053	-0.616203	-11.0737	-52.0258
 147	1	4	0.0182	-2.20817	-10.9539	-50.1866
 148	1	1	0.000377	-1.51329	-10.1832	-51.1538
 149	1	3	-0.237942	0.872332	-10.6969	-51.8604
 150	1	3	-0.215479	-1.03185	-11.0069	-53.513
 151	1	1	-0.2391	-1.78941	-8.80867	-51.3443
 152	1	1	-0.027923	-2.71691	-8.25916	-50.4485
 153	1	1	-0.180376	-3.22405	-10.3923	-49.3743
 154	1	1	-0.054224	-3.39863	-9.01148	-49.5189
 155	1	2	0.006282	-3.72459	-7.11825	-50.4214
 156	1	2	0.015188	-4.51861	-7.99933	-49.3619
 157	1	3	0.034756	-4.75568	-6.93842	-51.5673
 158	1	3	0.003059	-4.96644	-8.2715	-52.3416
 159	1	3	0.042972	-5.88443	-8.23441	-50.0584
 160	1	3	0.004163	-5.73356	-9.1781	-51.2929
 161	1	3	-0.197219	-6.0497	-6.84866	-50.7247
 162	1	5	0.227416	3.33262	-19.1257	-49.7169
 163	1	5	0.230059	0.185759	-18.6506	-45.7594
 164	1	6	0.034807	-0.0165	-18.7383	-50.8446
 165	1	6	0.022109	-1.63377	-18.5407	-48.8369
 166	1	6	0.043894	1.63927	-16.5421	-50.8791
 167	1	6	0.04727	-0.914642	-16.9228	-51.7953
 168	1	6	0.039454	-2.56267	-16.7455	-49.7907
 169	1	6	0.037752	-1.12899	-16.1959	-47.5105
 170	1	6	0.046701	0.716169	-14.9093	-48.9651
 171	1	6	0.047659	1.45119	-16.345	-48.2162
 172	1	5	0.173906	0.386919	-13.7854	-52.6228
 173	1	5	0.156928	-2.90254	-13.4427	-48.7543
 174	1	6	0.056509	1.51558	-11.3757	-52.4336
 175	1	6	0.064596	1.16953	-10.7555	-50.8057
 176	1	6	0.065502	1.05701	-9.67334	-52.2089
 177	1	6	0.062922	-2.09203	-11.2665	-53.6282
 178	1	6	0.049805	-0.443189	-11.7087	-54.1164
 179	1	6	0.059229	-0.882258	-9.99957	-53.9197
 180	1	5	0.166497	-1.37984	-8.24186	-52.1746
 181	1	5	0.141714	-3.87917	-11.0012	-48.7597
 182	1	6	0.041341	-3.35929	-6.15881	-50.0389
 183	1	6	0.038019	-4.62795	-7.54255	-48.3721
 184	1	6	0.012124	-4.57601	-6.0723	-52.2164
 185	1	6	0.001144	-4.06994	-8.73165	-52.7734
 186	1	6	0.009013	-6.70264	-8.51391	-49.383
 187	1	6	0.001345	-5.27253	-10.1557	-51.1102
 188	1	6	0.041603	-6.02503	-6.02385	-49.9987
 189	1	6	0.069352	-6.96451	-6.75108	-51.3236
 190	1	1	-0.425718	-0.686013	-30.6873	-41.7101
 191	1	1	0.123859	-1.49864	-31.0354	-40.6132
 192	1	1	0.123846	-1.64198	-30.2272	-39.4952
 193	1	1	-0.442194	-1.05775	-28.9523	-39.4007
 194	1	1	0.030377	-0.0966594	-28.7051	-40.3955
 195	1	1	0.003389	0.120517	-29.5545	-41.4776
 196	1	2	0.006267	0.634101	-28.4374	-42.3691
 197	1	2	0.040808	0.326963	-27.4636	-41.1577
 198	1	3	0.010049	2.17846	-28.3196	-42.5435
 199	1	2	-0.044998	2.17939	-26.9264	-43.2236
 200	1	2	-0.017344	1.80322	-25.9247	-42.0492
 201	1	3	0.004207	1.70072	-26.8474	-40.8017
 202	1	3	-0.10977	2.69186	-28.0051	-41.1102
 203	1	1	-0.002799	3.49569	-26.1679	-43.2968
 204	1	1	-0.006419	3.14571	-25.2754	-42.3069
 205	1	1	-0.256521	4.44752	-25.884	-44.2845
 206	1	1	0.004841	5.09605	-24.6329	-44.1569
 207	1	4	0.00733	4.68133	-23.6849	-43.1878
 208	1	1	-0.221146	3.6473	-23.97	-42.2614
 209	1	3	0.21053	6.10427	-24.0123	-45.1346
 210	1	4	0.0182	5.29231	-22.3868	-43.516
 211	1	1	0.000377	6.12189	-22.5549	-44.6528
 212	1	3	-0.237942	7.49663	-24.6616	-44.9826
 213	1	3	-0.215479	5.61292	-24.1178	-46.5978
 214	1	1	-0.2391	6.66019	-21.4478	-45.3477
 215	1	1	-0.027923	6.36656	-20.1909	-44.8016
 216	1	1	-0.180376	4.92357	-21.0989	-43.0539
 217	1	1	-0.054224	5.53018	-20.0251	-43.7173
 218	1	2	0.006282	6.1061	-18.7942	-45.347
 219	1	2	0.015188	5.13249	-18.6101	-44.1066
 220	1	3	0.034756	5.16744	-18.5807	-46.5649
 221	1	3	0.003059	4.17975	-19.7736	-46.7293
 222	1	3	0.042972	3.76024	-18.3321	-44.7802
 223	1	3	0.004163	3.20525	-19.6063	-45.4904
 224	1	3	-0.197219	4.25001	-17.4833	-45.9768
 225	1	5	0.227416	-0.814636	-31.1251	-42.6948
 226	1	5	0.230059	-1.45553	-28.1732	-38.7584
 227	1	6	0.034807	0.0710904	-28.3029	-43.3003
 228	1	6	0.022109	-0.469259	-26.719	-41.2766
 229	1	6	0.043894	2.68082	-29.1323	-43.0831
 230	1	6	0.04727	1.58848	-26.8902	-44.1466
 231	1	6	0.039454	0.943167	-25.2578	-42.1846
 232	1	6	0.037752	1.7868	-26.3673	-39.8189
 233	1	6	0.046701	3.74094	-27.6823	-41.0938
 234	1	6	0.047659	2.58282	-28.8551	-40.4242
 235	1	5	0.173906	4.60364	-26.5352	-45.1385
 236	1	5	0.156928	3.20297	-23.2026	-41.6363
 237	1	6	0.056509	7.46386	-25.7254	-45.2485
 238	1	6	0.064596	7.84779	-24.5816	-43.9458
 239	1	6	0.065502	8.23193	-24.1666	-45.6287
 240	1	6	0.062922	6.29908	-23.6055	-47.2825
 241	1	6	0.049805	4.62058	-23.6614	-46.7056
 242	1	6	0.059229	5.54303	-25.1649	-46.9155
 243	1	5	0.166497	7.1458	-21.5528	-46.3127
 244	1	5	0.141714	4.12153	-20.9536	-42.3376
 245	1	6	0.041341	6.96437	-18.1135	-45.3628
 246	1	6	0.038019	5.42097	-17.8154	-43.4096
 247	1	6	0.012124	5.67686	-18.296	-47.4941
 248	1	6	0.001144	4.62437	-20.7692	-46.8326
 249	1	6	0.009013	3.0272	-17.8281	-44.1379
 250	1	6	0.001345	3.0945	-20.5037	-44.8716
 251	1	6	0.041603	4.80753	-16.5899	-45.6622
 252	1	6	0.069352	3.44633	-17.1654	-46.6542
 253	1	1	-0.425718	-13.9485	-22.863	-40.0606
 254	1	1	0.123859	-14.4536	-22.1515	-38.9515
 255	1	1	0.123846	-13.7313	-21.9781	-37.7837
 256	1	1	-0.442194	-12.4565	-22.5172	-37.5541
 257	1	1	0.030377	-12.0771	-23.4193	-38.5601
 258	1	1	0.003389	-12.7713	-23.5792	-39.7538
 259	1	2	0.006267	-11.5451	-24.0859	-40.5058
 260	1	2	0.040808	-10.768	-23.9072	-39.1314
 261	1	3	0.010049	-11.4463	-25.6133	-40.7823
 262	1	2	-0.044998	-9.93434	-25.6497	-41.1604
 263	1	2	-0.017344	-9.20059	-25.4751	-39.753
 264	1	3	0.004207	-10.3562	-25.3478	-38.7352
 265	1	3	-0.10977	-11.4765	-26.2319	-39.3551
 266	1	1	-0.002799	-9.25239	-27.008	-41.209
 267	1	1	-0.006419	-8.64961	-26.8629	-39.9891
 268	1	1	-0.256521	-9.14581	-28.1602	-41.9968
 269	1	1	0.004841	-8.35264	-29.1839	-41.4187
 270	1	4	0.00733	-7.80657	-29.0621	-40.1124
 271	1	1	-0.221146	-7.94692	-27.8799	-39.3409
 272	1	3	0.21053	-7.94578	-30.5208	-42.0572
 273	1	4	0.0182	-7.07013	-30.2932	-39.7968
 274	1	1	0.000377	-7.08768	-31.1346	-40.9389
 275	1	3	-0.237942	-9.18299	-31.3971	-42.3519
 276	1	3	-0.215479	-7.12196	-30.2943	-43.3448
 277	1	1	-0.2391	-6.28539	-32.3003	-41.0085
 278	1	1	-0.027923	-5.61261	-32.6204	-39.8207
 279	1	1	-0.180376	-6.32425	-30.6138	-38.6359
 280	1	1	-0.054224	-5.6683	-31.8476	-38.6857
 281	1	2	0.006282	-4.40597	-33.4229	-39.348
 282	1	2	0.015188	-4.48238	-32.5287	-38.0329
 283	1	3	0.034756	-2.97494	-33.1185	-39.8785
 284	1	3	0.003059	-2.87426	-31.6716	-40.4462
 285	1	3	0.042972	-3.11008	-31.8178	-38.0036
 286	1	3	0.004163	-3.01005	-30.7738	-39.1564
 287	1	3	-0.197219	-2.23253	-32.9776	-38.5288
 288	1	5	0.227416	-14.3421	-22.7567	-41.0665
 289	1	5	0.230059	-11.7882	-22.1663	-36.7743
 290	1	6	0.034807	-11.2433	-23.4662	-41.3582
 291	1	6	0.022109	-9.95148	-23.1768	-39.0811
 292	1	6	0.043894	-12.1498	-26.0284	-41.5148
 293	1	6	0.04727	-9.65473	-24.9618	-41.967
 294	1	6	0.039454	-8.4373	-24.6915	-39.6745
 295	1	6	0.037752	-10.1093	-25.5219	-37.6804
 296	1	6	0.046701	-11.2282	-27.3012	-39.3496
 297	1	6	0.047659	-12.4455	-26.1035	-38.8555
 298	1	5	0.173906	-9.61055	-28.2504	-42.9735
 299	1	5	0.156928	-7.52705	-27.7664	-38.3468
 300	1	6	0.056509	-9.83	-30.9243	-43.1009
 301	1	6	0.064596	-9.77372	-31.5481	-41.4393
 302	1	6	0.065502	-8.88358	-32.3824	-42.7293
 303	1	6	0.062922	-6.23469	-29.6845	-43.1319
 304	1	6	0.049805	-7.71783	-29.7734	-44.1043
 305	1	6	0.059229	-6.78638	-31.2476	-43.7704
 306	1	5	0.166497	-6.16355	-32.8752	-41.9211
 307	1	5	0.141714	-6.21335	-29.9264	-37.8037
 308	1	6	0.041341	-4.56905	-34.4939	-39.1854
 309	1	6	0.038019	-4.68598	-33.082	-37.1094
 310	1	6	0.012124	-2.55958	-33.8847	-40.545
 311	1	6	0.001144	-3.58123	-31.4189	-41.2465
 312	1	6	0.009013	-2.81349	-31.4289	-37.0215
 313	1	6	0.001345	-3.79889	-30.0146	-39.2049
 314	1	6	0.041603	-2.3095	-33.8816	-37.9082
 315	1	6	0.069352	-1.16995	-32.7198	-38.6294
 316	1	1	-0.425718	-13.0533	-7.90537	-35.96
 317	1	1	0.123859	-12.9291	-7.6233	-34.583
 318	1	1	0.123846	-11.995	-8.22855	-33.7592
 319	1	1	-0.442194	-11.1832	-9.2903	-34.1935
 320	1	1	0.030377	-11.1783	-9.43278	-35.592
 321	1	1	0.003389	-12.014	-8.72594	-36.4508
 322	1	2	0.006267	-11.8556	-9.73872	-37.5813
 323	1	2	0.040808	-10.9895	-10.5845	-36.5559
 324	1	3	0.010049	-13.0548	-10.6558	-37.923
 325	1	2	-0.044998	-12.2652	-11.7154	-38.7537
 326	1	2	-0.017344	-11.5184	-12.5689	-37.636
 327	1	3	0.004207	-11.8652	-11.8527	-36.3122
 328	1	3	-0.10977	-13.3226	-11.3704	-36.5702
 329	1	1	-0.002799	-12.998	-12.9997	-39.0852
 330	1	1	-0.006419	-12.411	-13.7195	-38.072
 331	1	1	-0.256521	-14.1529	-13.4012	-39.7639
 332	1	1	0.004841	-14.6618	-14.6568	-39.3624
 333	1	4	0.00733	-14.1543	-15.3293	-38.2202
 334	1	1	-0.221146	-13.0214	-14.8494	-37.5102
 335	1	3	0.21053	-15.855	-15.4069	-39.9673
 336	1	4	0.0182	-15.036	-16.4743	-37.9337
 337	1	1	0.000377	-15.9942	-16.5702	-38.979
 338	1	3	-0.237942	-17.1293	-14.5329	-39.9814
 339	1	3	-0.215479	-15.528	-15.9124	-41.39
 340	1	1	-0.2391	-16.9026	-17.6515	-39.0622
 341	1	1	-0.027923	-16.8673	-18.511	-37.9609
 342	1	1	-0.180376	-15.0242	-17.3815	-36.8405
 343	1	1	-0.054224	-16.0391	-18.3453	-36.8815
 344	1	2	0.006282	-17.375	-19.8666	-37.5105
 345	1	2	0.015188	-16.4602	-19.6502	-36.2226
 346	1	3	0.034756	-16.7837	-21.1651	-38.1299
 347	1	3	0.003059	-15.3407	-20.9367	-38.6941
 348	1	3	0.042972	-15.5263	-20.8789	-36.24
 349	1	3	0.004163	-14.485	-20.7353	-37.3783
 350	1	3	-0.197219	-16.5	-21.9335	-36.8181
 351	1	5	0.227416	-13.9288	-7.63869	-36.5432
 352	1	5	0.230059	-10.7349	-10.0103	-33.5165
 353	1	6	0.034807	-11.3353	-9.35033	-38.4647
 354	1	6	0.022109	-9.94825	-10.789	-36.8321
 355	1	6	0.043894	-13.915	-10.1804	-38.4105
 356	1	6	0.04727	-11.6521	-11.3027	-39.5636
 357	1	6	0.039454	-10.4464	-12.7487	-37.7802
 358	1	6	0.037752	-11.6842	-12.4136	-35.3869
 359	1	6	0.046701	-14.0423	-12.1943	-36.6583
 360	1	6	0.047659	-13.689	-10.6857	-35.8008
 361	1	5	0.173906	-14.6301	-12.7862	-40.5202
 362	1	5	0.156928	-12.6742	-15.3025	-36.5875
 363	1	6	0.056509	-17.9961	-15.1104	-40.3255
 364	1	6	0.064596	-17.0083	-13.6703	-40.6477
 365	1	6	0.065502	-17.35	-14.1573	-38.9741
 366	1	6	0.062922	-16.3551	-16.5075	-41.7957
 367	1	6	0.049805	-14.6293	-16.5422	-41.3787
 368	1	6	0.059229	-15.3447	-15.0721	-42.0708
 369	1	5	0.166497	-17.5695	-17.8024	-39.9054
 370	1	5	0.141714	-14.2851	-17.3386	-36.0471
 371	1	6	0.041341	-18.4497	-19.9474	-37.3134
 372	1	6	0.038019	-17.0087	-19.5605	-35.2784
 373	1	6	0.012124	-17.4533	-21.6876	-38.8245
 374	1	6	0.001144	-15.2306	-20.132	-39.4323
 375	1	6	0.009013	-15.0913	-21.1426	-35.2679
 376	1	6	0.001345	-13.8637	-19.8315	-37.3659
 377	1	6	0.041603	-17.3994	-22.0614	-36.1993
 378	1	6	0.069352	-16.0471	-22.922	-36.9717
 379	1	1	-0.425718	-16.6218	-6.21457	-19.5425
 380	1	1	0.123859	-16.0245	-7.05792	-18.5862
 381	1	1	0.123846	-14.6477	-7.14981	-18.4518
 382	1	1	-0.442194	-13.733	-6.60945	-19.3767
 383	1	1	0.030377	-14.3618	-6.08688	-20.5247
 384	1	1	0.003389	-15.7219	-5.80346	-20.5406
 385	1	2	0.006267	-15.5647	-4.59863	-21.4567
 386	1	2	0.040808	-14.0325	-5.0042	-21.5328
 387	1	3	0.010049	-16.0755	-4.73165	-22.9075
 388	1	2	-0.044998	-15.2997	-3.50849	-23.4946
 389	1	2	-0.017344	-13.8214	-4.06763	-23.6513
 390	1	3	0.004207	-13.8693	-5.47416	-23.0139
 391	1	3	-0.10977	-15.2875	-5.97192	-23.4182
 392	1	1	-0.002799	-15.2955	-3.37514	-25.0024
 393	1	1	-0.006419	-14.0544	-3.95483	-25.1518
 394	1	1	-0.256521	-16.2578	-3.30914	-26.0151
 395	1	1	0.004841	-15.8548	-3.84761	-27.2557
 396	1	4	0.00733	-14.6596	-4.59978	-27.3686
 397	1	1	-0.221146	-13.738	-4.7078	-26.293
 398	1	3	0.21053	-16.683	-3.91769	-28.5445
 399	1	4	0.0182	-14.7017	-5.32643	-28.6495
 400	1	1	0.000377	-15.8527	-4.91153	-29.366
 401	1	3	-0.237942	-18.1098	-4.45214	-28.2753
 402	1	3	-0.215479	-16.7443	-2.53942	-29.2375
 403	1	1	-0.2391	-16.2544	-5.54578	-30.5629
 404	1	1	-0.027923	-15.4186	-6.57347	-31.0166
 405	1	1	-0.180376	-13.9933	-6.49365	-29.0285
 406	1	1	-0.054224	-14.3829	-7.0653	-30.2462
 407	1	2	0.006282	-15.666	-7.89813	-31.7107
 408	1	2	0.015188	-14.5264	-8.48387	-30.7776
 409	1	3	0.034756	-15.1039	-8.14063	-33.1379
 410	1	3	0.003059	-13.8493	-7.24802	-33.4256
 411	1	3	0.042972	-13.5047	-9.05268	-31.7838
 412	1	3	0.004163	-12.7518	-7.89704	-32.491
 413	1	3	-0.197219	-14.4765	-9.53049	-32.8854
 414	1	5	0.227416	-17.6158	-5.79552	-19.4243
 415	1	5	0.230059	-12.6808	-6.46253	-19.1552
 416	1	6	0.034807	-15.8244	-3.64071	-20.9909
 417	1	6	0.022109	-13.2802	-4.27721	-21.2043
 418	1	6	0.043894	-17.1639	-4.74576	-23.0453
 419	1	6	0.04727	-15.4244	-2.57038	-22.9407
 420	1	6	0.039454	-13.0081	-3.43736	-23.2721
 421	1	6	0.037752	-13.0275	-6.14224	-23.2348
 422	1	6	0.046701	-15.4002	-6.13064	-24.498
 423	1	6	0.047659	-15.5721	-6.9025	-22.9105
 424	1	5	0.173906	-17.2587	-2.92829	-25.8393
 425	1	5	0.156928	-12.8883	-5.38192	-26.3239
 426	1	6	0.056509	-18.0685	-5.42809	-27.7752
 427	1	6	0.064596	-18.6689	-4.57227	-29.2109
 428	1	6	0.065502	-18.6737	-3.76409	-27.6342
 429	1	6	0.062922	-15.7329	-2.16373	-29.4382
 430	1	6	0.049805	-17.2593	-1.80577	-28.605
 431	1	6	0.059229	-17.2779	-2.60494	-30.1937
 432	1	5	0.166497	-17.2127	-5.34065	-31.0297
 433	1	5	0.141714	-13.2948	-6.98319	-28.3577
 434	1	6	0.041341	-16.6657	-8.32974	-31.5888
 435	1	6	0.038019	-14.8377	-9.23978	-30.048
 436	1	6	0.012124	-15.8556	-8.12118	-33.937
 437	1	6	0.001144	-13.9815	-6.16757	-33.2849
 438	1	6	0.009013	-12.8481	-9.83534	-31.3835
 439	1	6	0.001345	-12.231	-7.18622	-31.8364
 440	1	6	0.041603	-15.2054	-10.267	-32.5185
 441	1	6	0.069352	-13.9722	-9.95502	-33.7581
 442	1	1	-0.425718	-16.9047	1.76979	-7.30692
 443	1	1	0.123859	-16.3634	1.98649	-6.03262
 444	1	1	0.123846	-15.0689	1.61249	-5.68714
 445	1	1	-0.442194	-14.2283	0.903757	-6.57654
 446	1	1	0.030377	-14.88	0.429697	-7.7375
 447	1	1	0.003389	-16.1368	0.906083	-8.09565
 448	1	2	0.006267	-15.8564	0.842519	-9.57596
 449	1	2	0.040808	-14.4528	0.219281	-9.19033
 450	1	3	0.010049	-16.589	-0.269337	-10.3462
 451	1	2	-0.044998	-15.746	-0.148085	-11.6401
 452	1	2	-0.017344	-14.3738	-0.860427	-11.2837
 453	1	3	0.004207	-14.543	-1.22823	-9.77787
 454	1	3	-0.10977	-16.0577	-1.56795	-9.674
 455	1	1	-0.002799	-15.963	-1.24992	-12.6409
 456	1	1	-0.006419	-14.7784	-1.89264	-12.3385
 457	1	1	-0.256521	-17.1029	-1.92132	-13.0865
 458	1	1	0.004841	-16.924	-3.28433	-13.3832
 459	1	4	0.00733	-15.6901	-3.94551	-13.1604
 460	1	1	-0.221146	-14.6037	-3.27377	-12.5363
 461	1	3	0.21053	-18.0262	-4.25972	-13.7918
 462	1	4	0.0182	-15.8818	-5.3784	-13.466
 463	1	1	0.000377	-17.2497	-5.57532	-13.788
 464	1	3	-0.237942	-19.1777	-4.28772	-12.7617
 465	1	3	-0.215479	-18.5621	-3.9237	-15.2023
 466	1	1	-0.2391	-17.7433	-6.81587	-14.2323
 467	1	1	-0.027923	-16.7976	-7.84071	-14.2962
 468	1	1	-0.180376	-14.923	-6.40902	-13.6703
 469	1	1	-0.054224	-15.4516	-7.65111	-14.0626
 470	1	2	0.006282	-16.5787	-9.02716	-15.1985
 471	1	2	0.015188	-15.0276	-8.86408	-14.8995
 472	1	3	0.034756	-16.6728	-8.81302	-16.7273
 473	1	3	0.003059	-16.2805	-7.34523	-17.1247
 474	1	3	0.042972	-14.4258	-8.73388	-16.3322
 475	1	3	0.004163	-14.7137	-7.33794	-16.9399
 476	1	3	-0.197219	-15.4165	-9.6199	-17.1251
 477	1	5	0.227416	-17.7034	2.38204	-7.71357
 478	1	5	0.230059	-13.1476	0.903611	-6.47695
 479	1	6	0.034807	-15.8764	1.81758	-10.0775
 480	1	6	0.022109	-13.5458	0.757723	-9.48886
 481	1	6	0.043894	-17.6768	-0.166728	-10.4468
 482	1	6	0.04727	-15.6944	0.859205	-12.071
 483	1	6	0.039454	-13.4551	-0.305269	-11.5064
 484	1	6	0.037752	-13.8451	-1.97091	-9.37179
 485	1	6	0.046701	-16.3323	-2.47691	-10.2244
 486	1	6	0.047659	-16.3983	-1.6838	-8.63698
 487	1	5	0.173906	-18.0791	-1.44743	-13.1063
 488	1	5	0.156928	-13.7405	-3.8091	-12.154
 489	1	6	0.056509	-19.9168	-5.05522	-13.0222
 490	1	6	0.064596	-19.6923	-3.32026	-12.7187
 491	1	6	0.065502	-18.7923	-4.51348	-11.7593
 492	1	6	0.062922	-17.7446	-3.92484	-15.9349
 493	1	6	0.049805	-19.0296	-2.93149	-15.2175
 494	1	6	0.059229	-19.3095	-4.65782	-15.5262
 495	1	5	0.166497	-18.7482	-6.93293	-14.6256
 496	1	5	0.141714	-13.8553	-6.21752	-13.6318
 497	1	6	0.041341	-17.0185	-9.97743	-14.8757
 498	1	6	0.038019	-14.5808	-9.69582	-14.3438
 499	1	6	0.012124	-17.6063	-9.16562	-17.1834
 500	1	6	0.001144	-16.8071	-6.52914	-16.62
 501	1	6	0.009013	-13.3769	-9.04382	-16.42
 502	1	6	0.001345	-14.3321	-6.48075	-16.3716
 503	1	6	0.041603	-15.442	-10.6558	-16.7583
 504	1	6	0.069352	-15.2304	-9.64567	-18.2068
 505	1	1	-0.425718	-13.0308	15.1939	3.8237
 506	1	1	0.123859	-11.7921	15.7979	4.08822
 507	1	1	0.123846	-10.5983	15.0913	4.16777
 508	1	1	-0.442194	-10.5389	13.7123	3.87828
 509	1	1	0.030377	-11.7953	13.0761	3.80579
 510	1	1	0.003389	-12.9938	13.7898	3.81975
 511	1	2	0.006267	-13.7104	12.7947	2.93883
 512	1	2	0.040808	-12.3478	11.9944	2.88274
 513	1	3	0.010049	-14.6919	11.8183	3.64057
 514	1	2	-0.044998	-14.9053	10.9071	2.41145
 515	1	2	-0.017344	-13.5536	10.096	2.27967
 516	1	3	0.004207	-12.7092	10.6089	3.48725
 517	1	3	-0.10977	-13.7763	10.9628	4.55931
 518	1	1	-0.002799	-15.5768	9.57009	2.63868
 519	1	1	-0.006419	-14.4053	8.84938	2.47046
 520	1	1	-0.256521	-16.8311	9.09478	2.24418
 521	1	1	0.004841	-16.8619	7.79182	1.70754
 522	1	4	0.00733	-15.6692	7.06261	1.47868
 523	1	1	-0.221146	-14.4025	7.60835	1.81282
 524	1	3	0.21053	-18.0585	7.14164	1.00562
 525	1	4	0.0182	-15.9771	5.95648	0.548235
 526	1	1	0.000377	-17.3518	6.03364	0.218417
 527	1	3	-0.237942	-19.0478	6.54761	2.03115
 528	1	3	-0.215479	-18.7899	8.13744	0.0706532
 529	1	1	-0.2391	-17.8651	5.37641	-0.915856
 530	1	1	-0.027923	-16.9711	4.55752	-1.61082
 531	1	1	-0.180376	-15.0796	5.16967	-0.221812
 532	1	1	-0.054224	-15.6381	4.40386	-1.25994
 533	1	2	0.006282	-16.6942	4.4329	-3.09114
 534	1	2	0.015188	-15.187	4.1728	-2.69949
 535	1	3	0.034756	-17.1089	3.14512	-3.81298
 536	1	3	0.003059	-16.3519	3.21325	-5.16419
 537	1	3	0.042972	-14.9507	2.72352	-3.22863
 538	1	3	0.004163	-14.8681	2.83351	-4.78382
 539	1	3	-0.197219	-16.3315	2.05882	-3.03498
 540	1	5	0.227416	-13.87	15.7522	3.42106
 541	1	5	0.230059	-9.6312	13.2411	3.51466
 542	1	6	0.034807	-14.0991	13.226	2.00845
 543	1	6	0.022109	-11.8292	11.9231	1.91925
 544	1	6	0.043894	-15.5897	12.2551	4.09566
 545	1	6	0.04727	-15.2801	11.4406	1.52944
 546	1	6	0.039454	-13.0188	10.1331	1.32297
 547	1	6	0.037752	-11.8716	9.97834	3.81066
 548	1	6	0.046701	-14.2843	10.0762	4.96072
 549	1	6	0.047659	-13.3624	11.5363	5.39894
 550	1	5	0.173906	-17.6949	9.7503	2.2056
 551	1	5	0.156928	-13.4841	7.17446	1.43156
 552	1	6	0.056509	-19.861	6.0125	1.52528
 553	1	6	0.064596	-19.4883	7.33733	2.65211
 554	1	6	0.065502	-18.5368	5.83893	2.69524
 555	1	6	0.062922	-19.2376	8.95993	0.64063
 556	1	6	0.049805	-19.5991	7.64339	-0.480168
 557	1	6	0.059229	-18.0919	8.56692	-0.659109
 558	1	5	0.166497	-18.8432	5.61391	-1.32151
 559	1	5	0.141714	-14.0053	5.28428	-0.122332
 560	1	6	0.041341	-16.9208	5.32967	-3.67907
 561	1	6	0.038019	-14.4371	4.87773	-3.07548
 562	1	6	0.012124	-18.1899	2.9781	-3.89872
 563	1	6	0.001144	-16.4448	4.15739	-5.71753
 564	1	6	0.009013	-14.1125	2.18506	-2.76896
 565	1	6	0.001345	-14.1263	3.55029	-5.15994
 566	1	6	0.041603	-16.6287	1.97826	-1.98125
 567	1	6	0.069352	-16.4059	1.05916	-3.4827
 568	1	1	-0.425718	-5.85707	23.3937	15.4684
 569	1	1	0.123859	-5.70602	22.3781	16.4434
 570	1	1	0.123846	-4.85057	21.245	16.2358
 571	1	1	-0.442194	-4.20374	21.0736	14.9793
 572	1	1	0.030377	-4.33241	22.1285	14.0756
 573	1	1	0.003389	-5.07919	23.2395	14.3236
 574	1	2	0.006267	-4.88467	23.8214	12.9395
 575	1	2	0.040808	-4.02008	22.514	12.6397
 576	1	3	0.010049	-6.07496	23.7194	11.9549
 577	1	2	-0.044998	-5.27389	24.0855	10.6779
 578	1	2	-0.017344	-4.42877	22.7743	10.3608
 579	1	3	0.004207	-4.81787	21.8018	11.51
 580	1	3	-0.10977	-6.29467	22.1853	11.8161
 581	1	1	-0.002799	-5.96133	23.8386	9.35363
 582	1	1	-0.006419	-5.23474	22.7049	9.07334
 583	1	1	-0.256521	-7.19998	24.1218	8.77072
 584	1	1	0.004841	-7.58772	23.235	7.74278
 585	1	4	0.00733	-6.82734	22.0789	7.42473
 586	1	1	-0.221146	-5.65474	21.7391	8.14938
 587	1	3	0.21053	-8.89531	23.281	6.9463
 588	1	4	0.0182	-7.55296	21.3187	6.39153
 589	1	1	0.000377	-8.7643	22.0058	6.10836
 590	1	3	-0.237942	-10.1248	23.216	7.88075
 591	1	3	-0.215479	-8.96103	24.5361	6.04816
 592	1	1	-0.2391	-9.72676	21.4853	5.21546
 593	1	1	-0.027923	-9.3265	20.322	4.55521
 594	1	1	-0.180376	-7.23	20.0801	5.77213
 595	1	1	-0.054224	-8.14765	19.6637	4.79912
 596	1	2	0.006282	-9.92932	19.1855	3.76347
 597	1	2	0.015188	-8.55232	18.4244	4.01015
 598	1	3	0.034756	-10.9612	18.2752	4.47254
 599	1	3	0.003059	-11.1293	17.0484	3.54517
 600	1	3	0.042972	-9.00194	17.1437	4.75608
 601	1	3	0.004163	-9.76268	16.2752	3.70245
 602	1	3	-0.197219	-10.1516	17.6729	5.64523
 603	1	5	0.227416	-6.52479	24.238	15.6082
 604	1	5	0.230059	-3.61268	20.1949	14.7414
 605	1	6	0.034807	-4.36042	24.7843	12.9206
 606	1	6	0.022109	-2.95451	22.652	12.4217
 607	1	6	0.043894	-6.95782	24.3305	12.1803
 608	1	6	0.04727	-4.72444	25.0327	10.7373
 609	1	6	0.039454	-3.34856	22.8997	10.2207
 610	1	6	0.037752	-4.60657	20.7371	11.35
 611	1	6	0.046701	-6.98058	21.9256	10.9992
 612	1	6	0.047659	-6.67141	21.7241	12.7384
 613	1	5	0.173906	-7.8353	24.9308	9.11727
 614	1	5	0.156928	-5.15108	20.7852	8.0314
 615	1	6	0.056509	-10.1842	24.1084	8.51545
 616	1	6	0.064596	-10.0648	22.3366	8.53465
 617	1	6	0.065502	-11.0544	23.1471	7.30295
 618	1	6	0.062922	-8.08529	24.5843	5.38852
 619	1	6	0.049805	-8.98139	25.4509	6.65307
 620	1	6	0.059229	-9.85947	24.5211	5.41908