
Host: node50

Timers On : Mon Dec 12 15:30:45 2022
Timers Off: Mon Dec 12 17:54:10 2022

Wall Time:     8605.44 seconds

                                                       Time (seconds)
Module                                       User      System        Wall        Calls

--------------------------------------------------------------------------------------

**************************************************************************************
