LAMMPS (27 Feb 2020)
log relax.log append
