pySIMM System Object

800 atoms
799 bonds
1512 angles
1970 dihedrals
0 impropers

7 atom types
8 bond types
13 angle types
5 dihedral types

-125.544522 125.544522 xlo xhi
-125.544522 125.544522 ylo yhi
-125.544522 125.544522 zlo zhi

Masses

   1	12.01	# c2
   2	1.008	# h1
   3	1.008	# hc
   4	12.01	# c3
   5	1.008	# ha
   6	32.06	# s6
   7	1.008	# h4

Pair Coeffs

   1	0.086	3.3996695084235347	# c2
   2	0.0157	2.471353044121301	# h1
   3	0.0157	2.649532787749369	# hc
   4	0.1094	3.3996695084235347	# c3
   5	0.015	2.59964245953351	# ha
   6	0.25	3.563594872561357	# s6
   7	0.015	2.5105525877194763	# h4

Bond Coeffs

   1	233.5	1.8075	# c3,s6
   2	569.4	1.3343	# c2,c2
   3	326.8	1.5095	# c2,c3
   4	263.2	1.76	# c2,s6
   5	330.6	1.0969	# c3,hc
   6	343.1	1.0879	# c2,ha
   7	344.6	1.0868	# c2,h4
   8	330.6	1.0969	# c3,h1

Angle Coeffs

   1	46.99	110.36	# c2,c3,hc
   2	39.4	107.58	# hc,c3,hc
   3	59.92	103.83	# c3,s6,c3
   4	60.63	104.05	# c2,s6,c3
   5	39.24	108.46	# h1,c3,h1
   6	42.79	115.45	# h4,c2,s6
   7	64.06	123.63	# c2,c2,c3
   8	62.73	120.01	# c2,c2,s6
   9	49.4	122.67	# c2,c2,h4
  10	49.85	120.43	# c2,c2,ha
  11	43.19	107.15	# h1,c3,s6
  12	45.94	115.68	# c3,c2,ha
  13	69.3	121.81	# c2,c2,c2

Dihedral Coeffs

   1	1	0.0	2	0	# X,c2,c3,X
   2	1	6.65	2	180	# X,c2,c2,X
   3	3	0.38	3	180	0.0	2	0	1.15	1	0	# hc,c3,c2,c2
   4	1	6.6499999999999995	2	180	# X,c2,s6,X
   5	1	0.14444444444444446	3	0	# X,c3,s6,X

Atoms

   1	1	1	0.037815	-12.8875	9.39348	-19.1396
   2	1	2	0.048876	-17.026	12.0305	-20.6233
   3	1	1	-0.222978	-14.1164	9.72433	-19.587
   4	1	2	0.097895	-16.7348	10.3013	-21.0379
   5	1	3	0.054231	-11.9749	11.0006	-17.9625
   6	1	3	0.054231	-10.864	10.2321	-19.1365
   7	1	4	-0.159568	-11.8978	10.5431	-18.9563
   8	1	3	0.073528	-12.0472	11.3337	-19.6918
   9	1	6	0.703056	-14.8439	11.2803	-19.9976
  10	1	2	0.084378	-17.0688	10.7669	-19.3345
  11	1	4	-0.422828	-16.6053	11.0804	-20.2767
  12	1	2	0.048873	-14.6732	12.4333	-17.9195
  13	1	2	0.084374	-13.3441	12.9046	-19.0426
  14	1	4	-0.422813	-14.4099	12.6793	-18.9547
  15	1	2	0.097892	-14.9996	13.5369	-19.2984
  16	1	2	0.084729	-14.6552	12.664	-21.9268
  17	1	4	-0.400138	-14.1406	11.7601	-21.5829
  18	1	2	0.084733	-13.0699	11.9529	-21.4709
  19	1	2	0.073714	-14.3047	10.9385	-22.2902
  20	1	1	0.037815	-11.3997	7.65246	-18.3388
  21	1	2	0.048876	-15.4234	7.72905	-21.1506
  22	1	1	-0.222978	-12.5113	8.07197	-19.0426
  23	1	2	0.097895	-13.8237	8.03743	-21.9167
  24	1	3	0.054231	-10.4322	7.92981	-16.3463
  25	1	3	0.054231	-9.96727	9.0971	-17.5324
  26	1	4	-0.159568	-10.8183	8.49783	-17.1898
  27	1	3	0.073528	-11.5658	9.16665	-16.7502
  28	1	6	0.703056	-13.5764	6.80953	-19.8631
  29	1	2	0.084378	-14.5792	6.40878	-21.9918
  30	1	4	-0.422828	-14.4389	7.30702	-21.3805
  31	1	2	0.048873	-12.5252	5.09031	-21.1467
  32	1	2	0.084374	-12.3067	4.77252	-19.3993
  33	1	4	-0.422813	-13.0034	5.11871	-20.1623
  34	1	2	0.097892	-13.8874	4.47149	-20.1771
  35	1	2	0.084729	-15.5863	7.51248	-18.6885
  36	1	4	-0.400138	-15.0284	6.5798	-18.7973
  37	1	2	0.084733	-15.6744	5.825	-19.2584
  38	1	2	0.073714	-14.7209	6.25025	-17.8046
  39	1	1	0.037815	-10.0702	5.69202	-17.7444
  40	1	2	0.048876	-8.17828	7.60203	-21.2404
  41	1	1	-0.222978	-10.7297	6.51064	-18.6425
  42	1	2	0.097895	-8.84811	8.47452	-19.8208
  43	1	3	0.054231	-8.20215	5.09156	-18.7608
  44	1	3	0.054231	-8.72868	3.94347	-17.5671
  45	1	4	-0.159568	-9.09533	4.65408	-18.3101
  46	1	3	0.073528	-9.6051	4.0027	-19.0251
  47	1	6	0.703056	-10.1633	6.57578	-20.3879
  48	1	2	0.084378	-7.91988	6.96326	-19.5856
  49	1	4	-0.422828	-8.6156	7.49008	-20.2415
  50	1	2	0.048873	-11.1577	8.64805	-21.1278
  51	1	2	0.084374	-10.2319	7.8208	-22.4077
  52	1	4	-0.422813	-10.9417	7.67772	-21.5851
  53	1	2	0.097892	-11.8395	7.19898	-21.9792
  54	1	2	0.084729	-9.46325	5.3932	-22.3236
  55	1	4	-0.400138	-9.58221	5.11204	-21.2713
  56	1	2	0.084733	-8.61423	4.78596	-20.8812
  57	1	2	0.073714	-10.3363	4.32177	-21.1843
  58	1	1	0.037815	-9.19101	5.37823	-15.5692
  59	1	2	0.048876	-11.9058	3.78768	-13.8582
  60	1	1	-0.222978	-10.2854	5.51285	-16.394
  61	1	2	0.097895	-11.6547	5.49737	-13.3761
  62	1	3	0.054231	-7.2418	6.33512	-15.137
  63	1	3	0.054231	-7.24101	5.36772	-16.5753
  64	1	4	-0.159568	-7.86788	6.04621	-15.9868
  65	1	3	0.073528	-8.03515	6.95421	-16.5795
  66	1	6	0.703056	-11.9652	5.33436	-15.7043
  67	1	2	0.084378	-13.2864	4.90549	-13.7869
  68	1	4	-0.422828	-12.2172	4.81906	-14.0104
  69	1	2	0.048873	-13.9853	4.20794	-16.2487
  70	1	2	0.084374	-13.2012	4.9637	-17.6602
  71	1	4	-0.422813	-13.0353	4.37948	-16.7682
  72	1	2	0.097892	-12.5531	3.42923	-17.0149
  73	1	2	0.084729	-13.8671	6.64546	-15.1605
  74	1	4	-0.400138	-12.9193	6.85891	-15.6668
  75	1	2	0.084733	-12.3634	7.60949	-15.0962
  76	1	2	0.073714	-13.1376	7.20178	-16.675
  77	1	1	0.037815	-8.95043	5.60001	-13.2054
  78	1	2	0.048876	-7.14187	3.1961	-15.3724
  79	1	1	-0.222978	-9.18507	4.82505	-14.3279
  80	1	2	0.097895	-7.53407	1.51724	-14.8571
  81	1	3	0.054231	-9.30152	7.66298	-12.4615
  82	1	3	0.054231	-8.57981	7.61256	-14.0127
  83	1	4	-0.159568	-9.30398	7.08721	-13.3843
  84	1	3	0.073528	-10.2863	7.2247	-13.8481
  85	1	6	0.703056	-9.33564	3.01596	-14.3943
  86	1	2	0.084378	-8.21209	2.17652	-16.3719
  87	1	4	-0.422828	-7.91388	2.42052	-15.3474
  88	1	2	0.048873	-10.2442	1.27968	-15.7567
  89	1	2	0.084374	-11.5134	2.40453	-15.2397
  90	1	4	-0.422813	-10.4889	2.33883	-15.6124
  91	1	2	0.097892	-10.3845	2.87053	-16.5602
  92	1	2	0.084729	-8.76463	2.40153	-12.1689
  93	1	4	-0.400138	-9.47482	2.03709	-12.9033
  94	1	2	0.084733	-10.4997	2.11882	-12.5295
  95	1	2	0.073714	-9.25969	0.993254	-13.1577
  96	1	1	0.037815	-7.46042	4.43698	-11.6715
  97	1	2	0.048876	-10.6055	7.84632	-10.71
  98	1	1	-0.222978	-8.58667	5.19652	-11.9376
  99	1	2	0.097895	-11.498	6.82269	-11.8876
 100	1	3	0.054231	-6.57831	4.75342	-13.6498
 101	1	3	0.054231	-5.49769	4.01325	-12.4991
 102	1	4	-0.159568	-6.54327	4.04849	-12.8182
 103	1	3	0.073528	-6.78164	3.07165	-13.2154
 104	1	6	0.703056	-9.83314	5.57846	-10.6494
 105	1	2	0.084378	-11.8668	6.71402	-10.1448
 106	1	4	-0.422828	-11.0744	6.87117	-10.8848
 107	1	2	0.048873	-9.01248	6.05475	-8.46849
 108	1	2	0.084374	-10.6546	5.37904	-8.4444
 109	1	4	-0.422813	-9.65968	5.29238	-8.89496
 110	1	2	0.097892	-9.28258	4.27736	-8.74415
 111	1	2	0.084729	-10.3986	3.27533	-10.5007
 112	1	4	-0.400138	-10.9287	4.17159	-10.8373
 113	1	2	0.084733	-11.8229	4.33264	-10.2251
 114	1	2	0.073714	-11.1996	4.06975	-11.8816
 115	1	1	0.037815	-6.746	5.04927	-9.42075
 116	1	2	0.048876	-6.93917	1.21516	-12.2006
 117	1	1	-0.222978	-6.94532	4.13788	-10.4344
 118	1	2	0.097895	-5.20887	1.74123	-12.1181
 119	1	3	0.054231	-7.52567	5.0956	-7.35592
 120	1	3	0.054231	-7.28575	3.5404	-7.90884
 121	1	4	-0.159568	-6.85005	4.53134	-7.9849
 122	1	3	0.073528	-5.88513	4.49454	-7.49094
 123	1	6	0.703056	-6.42701	2.39542	-10.1617
 124	1	2	0.084378	-5.77989	0.341495	-11.1653
 125	1	4	-0.422828	-6.05686	1.32384	-11.5643
 126	1	2	0.048873	-8.75094	1.77956	-10.219
 127	1	2	0.084374	-7.69885	0.446932	-9.65353
 128	1	4	-0.422813	-7.89902	1.52219	-9.58711
 129	1	2	0.097892	-8.11495	1.78129	-8.54807
 130	1	2	0.084729	-5.21055	0.878096	-8.83641
 131	1	4	-0.400138	-5.24481	1.97032	-8.86478
 132	1	2	0.084733	-4.25657	2.33777	-9.147
 133	1	2	0.073714	-5.54445	2.33921	-7.8829
 134	1	1	0.037815	-5.66575	6.78889	-10.7074
 135	1	2	0.048876	-6.4082	6.64058	-6.1947
 136	1	1	-0.222978	-6.36366	6.36289	-9.61132
 137	1	2	0.097895	-7.01659	8.32447	-6.11977
 138	1	3	0.054231	-7.52056	7.6914	-11.3149
 139	1	3	0.054231	-6.52282	7.21094	-12.6586
 140	1	4	-0.159568	-6.4872	7.63586	-11.6529
 141	1	3	0.073528	-6.13468	8.67072	-11.6952
 142	1	6	0.703056	-6.59242	7.67379	-8.36728
 143	1	2	0.084378	-8.11459	7.01701	-6.638
 144	1	4	-0.422828	-7.07806	7.37127	-6.65618
 145	1	2	0.048873	-8.85722	7.96594	-9.14387
 146	1	2	0.084374	-8.30889	9.30703	-8.09364
 147	1	4	-0.422813	-8.02552	8.6321	-8.90903
 148	1	2	0.097892	-7.75943	9.22457	-9.78943
 149	1	2	0.084729	-5.70872	9.76909	-7.68167
 150	1	4	-0.400138	-5.473	9.06558	-8.48799
 151	1	2	0.084733	-4.45384	8.70103	-8.3892
 152	1	2	0.073714	-5.61762	9.54818	-9.4593
 153	1	1	0.037815	-3.43298	6.3141	-9.85379
 154	1	2	0.048876	-1.32121	6.45315	-11.9154
 155	1	1	-0.222978	-4.28411	6.92599	-10.7331
 156	1	2	0.097895	-1.44883	7.24059	-13.514
 157	1	3	0.054231	-2.71308	4.28231	-10.06
 158	1	3	0.054231	-3.98069	4.44298	-8.8419
 159	1	4	-0.159568	-3.63715	4.80516	-9.80977
 160	1	3	0.073528	-4.33559	4.46463	-10.5756
 161	1	6	0.703056	-3.47346	7.42195	-12.2935
 162	1	2	0.084378	-1.22967	8.25773	-12.0792
 163	1	4	-0.422828	-1.6827	7.33802	-12.448
 164	1	2	0.048873	-5.09916	8.52233	-13.709
 165	1	2	0.084374	-4.20812	9.67986	-12.6529
 166	1	4	-0.422813	-4.12731	8.78682	-13.2813
 167	1	2	0.097892	-3.41807	8.97	-14.0964
 168	1	2	0.084729	-3.36451	6.29623	-14.3866
 169	1	4	-0.400138	-3.90998	6.12333	-13.4523
 170	1	2	0.084733	-3.61463	5.1632	-13.0163
 171	1	2	0.073714	-4.98115	6.15822	-13.646
 172	1	1	0.037815	-1.35718	5.97417	-8.71547
 173	1	2	0.048876	-1.06991	10.0795	-7.70455
 174	1	1	-0.222978	-2.2346	6.8064	-9.36479
 175	1	2	0.097895	-2.63491	9.30847	-7.35539
 176	1	3	0.054231	0.105762	6.52228	-10.2584
 177	1	3	0.054231	0.810905	6.233	-8.66168
 178	1	4	-0.159568	0.0274649	5.91291	-9.35894
 179	1	3	0.073528	0.298148	4.93686	-9.74247
 180	1	6	0.703056	-1.72461	8.56686	-9.44888
 181	1	2	0.084378	-1.10989	8.37157	-7.14937
 182	1	4	-0.422828	-1.62638	9.13563	-7.73996
 183	1	2	0.048873	-2.63499	10.7465	-9.73568
 184	1	2	0.084374	-2.30714	9.95632	-11.303
 185	1	4	-0.422813	-2.71276	9.8082	-10.2974
 186	1	2	0.097892	-3.75068	9.4869	-10.3475
 187	1	2	0.084729	0.346173	8.62837	-10.6851
 188	1	4	-0.400138	0.0269031	8.9551	-9.69072
 189	1	2	0.084733	0.141731	10.0424	-9.61542
 190	1	2	0.073714	0.623	8.47221	-8.90925
 191	1	1	0.037815	-2.50309	5.48322	-6.57365
 192	1	2	0.048876	1.44869	4.3859	-6.75405
 193	1	1	-0.222978	-1.56334	5.25127	-7.55429
 194	1	2	0.097895	1.39519	2.63779	-7.12604
 195	1	3	0.054231	-4.24893	6.67772	-5.92711
 196	1	3	0.054231	-3.38449	7.3511	-7.23287
 197	1	4	-0.159568	-3.69673	6.40338	-6.82528
 198	1	3	0.073528	-4.42825	5.97369	-7.49206
 199	1	6	0.703056	-0.741944	3.63007	-7.43666
 200	1	2	0.084378	1.45503	3.81797	-8.45422
 201	1	4	-0.422828	1.06918	3.6326	-7.44987
 202	1	2	0.048873	-2.39415	2.12002	-6.6397
 203	1	2	0.084374	-0.735049	1.57714	-6.22626
 204	1	4	-0.422813	-1.41173	2.43763	-6.27071
 205	1	2	0.097892	-1.52984	2.8803	-5.29001
 206	1	2	0.084729	-1.99057	2.3619	-9.01598
 207	1	4	-0.400138	-0.946095	2.68555	-8.96668
 208	1	2	0.084733	-0.700812	3.25448	-9.86127
 209	1	2	0.073714	-0.301386	1.80144	-8.90231
 210	1	1	0.037815	-3.43758	4.8797	-4.47367
 211	1	2	0.048876	0.511481	3.57399	-5.02395
 212	1	1	-0.222978	-2.34117	5.22398	-5.22546
 213	1	2	0.097895	1.14108	4.3346	-3.568
 214	1	3	0.054231	-5.44881	4.33928	-5.12443
 215	1	3	0.054231	-4.21097	3.76368	-6.2333
 216	1	4	-0.159568	-4.43045	3.93924	-5.17685
 217	1	3	0.073528	-4.42604	2.93337	-4.75739
 218	1	6	0.703056	-0.731495	5.56338	-4.39955
 219	1	2	0.084378	-0.35929	3.36884	-3.48087
 220	1	4	-0.422828	0.223555	4.05683	-4.09785
 221	1	2	0.048873	0.034985	7.61977	-5.33934
 222	1	2	0.084374	1.38814	6.56746	-4.80929
 223	1	4	-0.422813	0.41911	6.5947	-5.31962
 224	1	2	0.097892	0.517664	6.21804	-6.33808
 225	1	2	0.084729	0.275876	5.70418	-2.22091
 226	1	4	-0.400138	-0.714152	5.94464	-2.62241
 227	1	2	0.084733	-0.877522	7.00722	-2.44798
 228	1	2	0.073714	-1.46634	5.34862	-2.10236
 229	1	1	0.037815	-4.69775	4.84466	-2.39078
 230	1	2	0.048876	-2.49914	7.86023	-5.20258
 231	1	1	-0.222978	-3.81487	5.44272	-3.27639
 232	1	2	0.097895	-2.90469	9.25726	-4.18658
 233	1	3	0.054231	-5.8527	6.45705	-1.4021
 234	1	3	0.054231	-5.94264	4.92026	-0.58163
 235	1	4	-0.159568	-5.27349	5.56174	-1.16835
 236	1	3	0.073528	-4.47778	5.81615	-0.461708
 237	1	6	0.703056	-3.52962	7.24753	-3.08652
 238	1	2	0.084378	-1.46613	8.30268	-3.81348
 239	1	4	-0.422828	-2.48923	8.243	-4.18638
 240	1	2	0.048873	-5.23042	8.9395	-2.98986
 241	1	2	0.084374	-5.13018	8.17095	-4.59856
 242	1	4	-0.422813	-5.12148	7.98617	-3.52017
 243	1	2	0.097892	-5.94023	7.30747	-3.27219
 244	1	2	0.084729	-2.90377	8.90274	-1.50139
 245	1	4	-0.400138	-3.36787	7.91358	-1.41795
 246	1	2	0.084733	-4.35256	8.01969	-0.953043
 247	1	2	0.073714	-2.72112	7.24827	-0.834974
 248	1	1	0.037815	-4.18574	2.51148	-2.19036
 249	1	2	0.048876	-7.70233	3.2218	-0.470655
 250	1	1	-0.222978	-5.07092	3.53696	-2.39625
 251	1	2	0.097895	-8.65946	2.23691	-1.62364
 252	1	3	0.054231	-2.84388	3.6575	-0.889193
 253	1	3	0.054231	-2.23269	3.38494	-2.52181
 254	1	4	-0.159568	-2.79121	2.92821	-1.70699
 255	1	3	0.073528	-2.17515	2.1016	-1.35528
 256	1	6	0.703056	-6.83536	3.34324	-2.68173
 257	1	2	0.084378	-7.08669	1.63671	-1.00611
 258	1	4	-0.422828	-7.64816	2.51699	-1.30806
 259	1	2	0.048873	-7.24232	5.42084	-3.79789
 260	1	2	0.084374	-8.76125	4.57561	-3.33903
 261	1	4	-0.422813	-7.75439	4.85661	-3.01014
 262	1	2	0.097892	-7.81857	5.44201	-2.08748
 263	1	2	0.084729	-6.32763	1.49687	-4.1139
 264	1	4	-0.400138	-7.14421	2.21967	-4.04793
 265	1	2	0.084733	-8.1091	1.72671	-3.88696
 266	1	2	0.073714	-7.18243	2.81094	-4.96929
 267	1	1	0.037815	-3.92247	0.242799	-2.96553
 268	1	2	0.048876	-5.14388	-1.23381	0.922665
 269	1	1	-0.222978	-4.54519	1.18878	-2.18435
 270	1	2	0.097895	-6.45621	-0.729457	-0.166029
 271	1	3	0.054231	-2.47732	0.214489	-4.63894
 272	1	3	0.054231	-2.73626	1.75324	-4.00972
 273	1	4	-0.159568	-2.66296	0.717131	-3.69381
 274	1	3	0.073528	-1.76864	0.631697	-3.06809
 275	1	6	0.703056	-4.52768	0.596097	-0.469037
 276	1	2	0.084378	-5.08311	-1.69661	-0.810602
 277	1	4	-0.422828	-5.38926	-0.927552	-0.100421
 278	1	2	0.048873	-2.37822	-0.378495	-0.965904
 279	1	2	0.084374	-2.29478	0.822006	0.366801
 280	1	4	-0.422813	-2.8706	-0.00235166	-0.0654913
 281	1	2	0.097892	-2.9575	-0.801296	0.677049
 282	1	2	0.084729	-4.79836	1.32238	1.7756
 283	1	4	-0.400138	-4.8805	1.82059	0.802959
 284	1	2	0.084733	-4.14525	2.6279	0.732769
 285	1	2	0.073714	-5.89177	2.21208	0.670061
 286	1	1	0.037815	-5.7113	-1.43501	-3.46285
 287	1	2	0.048876	-4.52571	-4.12777	-4.49157
 288	1	1	-0.222978	-4.4068	-0.983901	-3.39822
 289	1	2	0.097895	-3.42764	-3.51554	-5.78368
 290	1	3	0.054231	-7.6872	-0.539008	-3.53312
 291	1	3	0.054231	-7.3301	-1.33565	-2.00951
 292	1	4	-0.159568	-6.89533	-0.740832	-2.80786
 293	1	3	0.073528	-6.67413	0.211101	-2.37244
 294	1	6	0.703056	-3.14415	-2.27853	-3.75647
 295	1	2	0.084378	-2.78824	-4.52376	-4.46271
 296	1	4	-0.422828	-3.52731	-3.757	-4.72129
 297	1	2	0.048873	-0.859688	-2.92531	-3.91778
 298	1	2	0.084374	-1.17263	-1.4401	-4.85765
 299	1	4	-0.422813	-1.37267	-1.95651	-3.91276
 300	1	2	0.097892	-1.03068	-1.3756	-3.05101
 301	1	2	0.084729	-2.5792	-2.41659	-1.44165
 302	1	4	-0.400138	-3.08318	-3.07931	-2.1493
 303	1	2	0.084733	-4.10607	-3.26698	-1.8186
 304	1	2	0.073714	-2.52766	-4.01951	-2.23828
 305	1	1	0.037815	-7.12196	-3.21574	-4.35981
 306	1	2	0.048876	-6.72163	-0.32888	-7.67593
 307	1	1	-0.222978	-6.12748	-2.26538	-4.47333
 308	1	2	0.097895	-7.86667	-1.10505	-6.53657
 309	1	3	0.054231	-6.99675	-4.53419	-6.11546
 310	1	3	0.054231	-8.55974	-4.55783	-5.33055
 311	1	4	-0.159568	-7.72051	-3.90225	-5.59477
 312	1	3	0.073528	-8.14387	-3.19111	-6.30802
 313	1	6	0.703056	-5.58799	-1.77177	-6.15073
 314	1	2	0.084378	-6.8357	0.248716	-5.98134
 315	1	4	-0.422828	-6.8903	-0.626376	-6.63629
 316	1	2	0.048873	-3.26917	-1.15211	-6.18005
 317	1	2	0.084374	-4.2103	-0.357415	-7.45495
 318	1	4	-0.422813	-4.21195	-0.64606	-6.40071
 319	1	2	0.097892	-4.36948	0.242618	-5.78124
 320	1	2	0.084729	-6.68082	-3.06138	-7.87516
 321	1	4	-0.400138	-5.64724	-2.91147	-7.5497
 322	1	2	0.084733	-5.08348	-2.45357	-8.37021
 323	1	2	0.073714	-5.17737	-3.85835	-7.262
 324	1	1	0.037815	-8.97455	-3.20042	-2.85297
 325	1	2	0.048876	-9.3305	-6.36584	-2.48633
 326	1	1	-0.222978	-7.68615	-3.59482	-3.1755
 327	1	2	0.097895	-7.97221	-7.32593	-1.796
 328	1	3	0.054231	-10.3141	-3.01332	-4.57925
 329	1	3	0.054231	-10.2823	-1.56052	-3.53664
 330	1	4	-0.159568	-9.69226	-2.37685	-3.94204
 331	1	3	0.073528	-9.04465	-1.82652	-4.6263
 332	1	6	0.703056	-7.23168	-5.31264	-2.7756
 333	1	2	0.084378	-8.55577	-5.8729	-0.940654
 334	1	4	-0.422828	-8.40272	-6.32482	-1.90778
 335	1	2	0.048873	-6.34213	-7.28175	-3.78946
 336	1	2	0.084374	-7.55387	-6.49376	-4.83615
 337	1	4	-0.422813	-6.69769	-6.31953	-4.17608
 338	1	2	0.097892	-5.88362	-5.81274	-4.70243
 339	1	2	0.084729	-4.86879	-5.06816	-2.65925
 340	1	4	-0.400138	-5.62768	-5.42524	-1.96192
 341	1	2	0.084733	-5.59926	-4.84089	-1.04199
 342	1	2	0.073714	-5.43812	-6.48034	-1.73504
 343	1	1	0.037815	-9.11649	-3.36149	-0.357201
 344	1	2	0.048876	-11.2119	-4.86042	-3.63672
 345	1	1	-0.222978	-9.65586	-3.25784	-1.63691
 346	1	2	0.097895	-11.4096	-5.77446	-2.12021
 347	1	3	0.054231	-7.28996	-2.91698	0.763625
 348	1	3	0.054231	-7.36184	-4.54678	0.145125
 349	1	4	-0.159568	-7.62277	-3.51891	-0.0904697
 350	1	3	0.073528	-6.98682	-3.16819	-0.897278
 351	1	6	0.703056	-11.5055	-3.38095	-1.7597
 352	1	2	0.084378	-12.8314	-5.02996	-2.88225
 353	1	4	-0.422828	-11.7589	-4.91432	-2.6895
 354	1	2	0.048873	-13.3557	-4.19773	-0.4948
 355	1	2	0.084374	-11.9542	-3.89268	0.571048
 356	1	4	-0.422813	-12.5292	-3.51255	-0.272973
 357	1	2	0.097892	-12.9354	-2.52496	-0.0350099
 358	1	2	0.084729	-12.3189	-2.87334	-4.00307
 359	1	4	-0.400138	-12.5138	-2.49746	-2.9947
 360	1	2	0.084733	-13.5636	-2.69607	-2.75102
 361	1	2	0.073714	-12.337	-1.4197	-2.95189
 362	1	1	0.037815	-9.46208	-3.35467	2.07793
 363	1	2	0.048876	-8.4975	-0.232859	-0.480856
 364	1	1	-0.222978	-9.7159	-2.88446	0.787992
 365	1	2	0.097895	-9.20822	0.920553	0.684175
 366	1	3	0.054231	-8.8909	-1.34244	2.85568
 367	1	3	0.054231	-10.2473	-2.08935	3.71171
 368	1	4	-0.159568	-9.30529	-2.28733	3.19039
 369	1	3	0.073528	-8.57563	-2.55882	3.96161
 370	1	6	0.703056	-10.3684	-1.16446	0.649648
 371	1	2	0.084378	-8.14096	-0.403892	1.25664
 372	1	4	-0.422828	-8.9024	-0.120112	0.528179
 373	1	2	0.048873	-11.0374	0.631774	-0.746801
 374	1	2	0.084374	-10.3664	-0.716299	-1.69072
 375	1	4	-0.422813	-11.0238	-0.458502	-0.862292
 376	1	2	0.097892	-12.0521	-0.798343	-0.995346
 377	1	2	0.084729	-11.9369	0.358656	1.58502
 378	1	4	-0.400138	-11.3318	-0.455437	1.99978
 379	1	2	0.084733	-11.9839	-1.23425	2.41061
 380	1	2	0.073714	-10.6625	-0.048705	2.76482
 381	1	1	0.037815	-9.10862	-4.90304	3.87204
 382	1	2	0.048876	-7.44061	-6.55551	0.765999
 383	1	1	-0.222978	-9.18399	-4.64543	2.52607
 384	1	2	0.097895	-7.78886	-7.4975	2.2465
 385	1	3	0.054231	-10.4436	-3.8991	5.33261
 386	1	3	0.054231	-10.9226	-5.56576	4.89895
 387	1	4	-0.159568	-10.4708	-4.64215	4.53307
 388	1	3	0.073528	-11.2146	-4.26938	3.81675
 389	1	6	0.703056	-9.63506	-6.16907	1.67736
 390	1	2	0.084378	-8.49974	-8.00585	0.684937
 391	1	4	-0.422828	-8.18694	-7.1512	1.29492
 392	1	2	0.048873	-10.5052	-8.31114	2.2505
 393	1	2	0.084374	-9.70122	-7.50062	3.62543
 394	1	4	-0.422813	-10.3738	-7.36542	2.78897
 395	1	2	0.097892	-11.3429	-6.98063	3.12218
 396	1	2	0.084729	-10.6978	-7.1569	-0.178015
 397	1	4	-0.400138	-10.7412	-6.16927	0.294243
 398	1	2	0.084733	-11.7522	-5.9808	0.668544
 399	1	2	0.073714	-10.4282	-5.4028	-0.393214
 400	1	1	0.037815	-6.8389	-5.76129	3.98401
 401	1	2	0.048876	-6.41418	-7.2108	7.0166
 402	1	1	-0.222978	-8.08225	-5.56031	4.54108
 403	1	2	0.097895	-6.40723	-5.65246	7.8899
 404	1	3	0.054231	-6.19823	-5.10289	1.99162
 405	1	3	0.054231	-5.37584	-4.2918	3.31371
 406	1	4	-0.159568	-6.32976	-4.69856	2.99935
 407	1	3	0.073528	-6.93402	-3.7954	2.94673
 408	1	6	0.703056	-8.26295	-5.76056	6.36872
 409	1	2	0.084378	-7.56746	-6.92254	8.33313
 410	1	4	-0.422828	-7.03247	-6.46069	7.4962
 411	1	2	0.048873	-7.12304	-3.73719	6.94705
 412	1	2	0.084374	-8.75848	-3.38775	6.34359
 413	1	4	-0.422813	-8.16978	-4.05796	6.96997
 414	1	2	0.097892	-8.53794	-4.03847	8.00218
 415	1	2	0.084729	-9.72343	-6.43743	8.12693
 416	1	4	-0.400138	-9.87832	-6.15665	7.07945
 417	1	2	0.084733	-10.5379	-5.28524	7.04677
 418	1	2	0.073714	-10.3079	-7.00496	6.53494
 419	1	1	0.037815	-4.73097	-6.86121	3.61005
 420	1	2	0.048876	-5.13242	-8.84365	6.66338
 421	1	1	-0.222978	-5.99151	-6.83758	4.16891
 422	1	2	0.097895	-5.47454	-10.3599	5.79137
 423	1	3	0.054231	-4.4189	-7.08172	1.48365
 424	1	3	0.054231	-4.12011	-8.59842	2.40064
 425	1	4	-0.159568	-4.72177	-7.69102	2.33575
 426	1	3	0.073528	-5.71765	-7.99125	2.01678
 427	1	6	0.703056	-6.5535	-8.48875	4.77728
 428	1	2	0.084378	-4.29003	-9.19148	5.10879
 429	1	4	-0.422828	-5.22186	-9.30023	5.67427
 430	1	2	0.048873	-8.01151	-8.63828	6.69077
 431	1	2	0.084374	-8.91281	-8.18958	5.20857
 432	1	4	-0.422813	-8.12081	-8.8054	5.61636
 433	1	2	0.097892	-8.36967	-9.86169	5.46736
 434	1	2	0.084729	-7.25886	-9.50148	2.70697
 435	1	4	-0.400138	-6.58507	-9.78967	3.51885
 436	1	2	0.084733	-5.57538	-9.98744	3.15032
 437	1	2	0.073714	-6.96135	-10.7045	3.99038
 438	1	1	0.037815	-3.50482	-5.1438	4.90768
 439	1	2	0.048876	-0.579353	-8.40059	3.47197
 440	1	1	-0.222978	-3.6094	-6.07738	3.88971
 441	1	2	0.097895	-1.91706	-8.30884	4.66307
 442	1	3	0.054231	-5.36024	-4.19632	5.54826
 443	1	3	0.054231	-4.34609	-4.57034	6.89906
 444	1	4	-0.159568	-4.62743	-4.92119	5.91367
 445	1	3	0.073528	-5.1106	-5.85331	6.12386
 446	1	6	0.703056	-2.0171	-6.53282	3.04552
 447	1	2	0.084378	-2.21064	-8.95076	3.0258
 448	1	4	-0.422828	-1.65117	-8.21569	3.60682
 449	1	2	0.048873	-2.42973	-7.92854	1.09766
 450	1	2	0.084374	-2.51249	-6.16764	0.720711
 451	1	4	-0.422813	-1.98598	-6.94579	1.28319
 452	1	2	0.097892	-0.934606	-6.97203	0.975863
 453	1	2	0.084729	0.358045	-6.35364	3.12145
 454	1	4	-0.400138	-0.455939	-5.64557	3.31297
 455	1	2	0.084733	-0.384254	-4.83455	2.5835
 456	1	2	0.073714	-0.358334	-5.25963	4.32872
 457	1	1	0.037815	-1.96308	-3.83868	6.2527
 458	1	2	0.048876	-1.05645	-1.65603	2.26535
 459	1	1	-0.222978	-2.48064	-4.25785	5.03755
 460	1	2	0.097895	-0.88758	-1.29031	3.99703
 461	1	3	0.054231	-1.68161	-1.66813	5.96799
 462	1	3	0.054231	-0.693149	-2.2983	7.23966
 463	1	4	-0.159568	-1.11785	-2.55434	6.26406
 464	1	3	0.073528	-0.234813	-2.67404	5.62927
 465	1	6	0.703056	-2.36851	-3.15601	3.56357
 466	1	2	0.084378	-0.0274747	-2.71056	3.28464
 467	1	4	-0.422828	-0.934887	-2.09754	3.26181
 468	1	2	0.048873	-3.36094	-2.82827	1.41208
 469	1	2	0.084374	-2.12455	-4.10333	1.38301
 470	1	4	-0.422813	-2.97066	-3.69989	1.94693
 471	1	2	0.097892	-3.7609	-4.44278	2.03322
 472	1	2	0.084729	-3.28775	-1.2582	4.73627
 473	1	4	-0.400138	-3.60719	-1.88468	3.90078
 474	1	2	0.084733	-3.71797	-1.26557	3.00371
 475	1	2	0.073714	-4.55758	-2.36963	4.14252
 476	1	1	0.037815	-2.25633	-3.66563	8.6089
 477	1	2	0.048876	0.452966	-6.35145	6.76687
 478	1	1	-0.222978	-2.02123	-4.45809	7.49435
 479	1	2	0.097895	-0.361776	-7.96036	6.78926
 480	1	3	0.054231	-2.72445	-1.53776	8.31862
 481	1	3	0.054231	-3.6923	-2.54008	7.29831
 482	1	4	-0.159568	-3.23268	-2.50681	8.29066
 483	1	3	0.073528	-4.11479	-2.48726	8.92295
 484	1	6	0.703056	-1.7492	-6.25737	7.66684
 485	1	2	0.084378	-0.824066	-6.74491	5.56907
 486	1	4	-0.422828	-0.482562	-6.89074	6.58317
 487	1	2	0.048873	-2.40324	-6.67161	9.88798
 488	1	2	0.084374	-1.71119	-8.12616	9.1164
 489	1	4	-0.422813	-1.60458	-7.04431	9.24939
 490	1	2	0.097892	-0.61159	-6.85212	9.63763
 491	1	2	0.084729	-2.92962	-8.30377	7.42548
 492	1	4	-0.400138	-3.12562	-7.26708	7.13355
 493	1	2	0.084733	-4.02621	-6.91721	7.64819
 494	1	2	0.073714	-3.22826	-7.24783	6.05509
 495	1	1	0.037815	-0.601587	-4.42668	10.2456
 496	1	2	0.048876	-2.80228	-2.84394	13.6225
 497	1	1	-0.222978	-1.81866	-3.84477	9.91967
 498	1	2	0.097895	-1.24313	-3.52175	13.0508
 499	1	3	0.054231	1.32612	-3.79531	9.47802
 500	1	3	0.054231	0.881389	-5.41905	8.96806
 501	1	4	-0.159568	0.495208	-4.41377	9.16856
 502	1	3	0.073528	0.235664	-3.98635	8.20751
 503	1	6	0.703056	-2.63544	-2.83566	11.234
 504	1	2	0.084378	-1.48752	-1.77895	13.0356
 505	1	4	-0.422828	-1.97918	-2.74941	12.9053
 506	1	2	0.048873	-3.46997	-0.797236	10.1801
 507	1	2	0.084374	-2.74063	-0.50504	11.765
 508	1	4	-0.422813	-2.63252	-1.06575	10.8301
 509	1	2	0.097892	-1.67743	-0.816422	10.3558
 510	1	2	0.084729	-4.72771	-3.20941	12.3413
 511	1	4	-0.400138	-4.43658	-3.03566	11.3001
 512	1	2	0.084733	-4.93376	-2.12951	10.9391
 513	1	2	0.073714	-4.72172	-3.89339	10.6806
 514	1	1	0.037815	1.08644	-5.42197	11.6804
 515	1	2	0.048876	-1.34779	-8.22848	11.4437
 516	1	1	-0.222978	-0.227352	-5.09716	11.4022
 517	1	2	0.097895	-0.433238	-8.15043	12.9872
 518	1	3	0.054231	0.765737	-7.5116	11.0635
 519	1	3	0.054231	2.41883	-7.10868	11.233
 520	1	4	-0.159568	1.43741	-6.91753	11.6849
 521	1	3	0.073528	1.46295	-7.34352	12.6918
 522	1	6	0.703056	-1.45606	-6.01315	12.4369
 523	1	2	0.084378	-2.19868	-8.20999	13.0056
 524	1	4	-0.422828	-1.33111	-7.82586	12.4583
 525	1	2	0.048873	-1.03019	-4.89386	14.5355
 526	1	2	0.084374	-1.65049	-6.55574	14.751
 527	1	4	-0.422813	-0.967425	-5.92338	14.1724
 528	1	2	0.097892	0.0560587	-6.29631	14.2707
 529	1	2	0.084729	-3.52111	-4.93398	12.9113
 530	1	4	-0.400138	-3.22873	-5.77227	12.2755
 531	1	2	0.084733	-3.4924	-5.60788	11.2287
 532	1	2	0.073714	-3.73135	-6.67414	12.6411
 533	1	1	0.037815	3.3066	-5.08284	12.4128
 534	1	2	0.048876	4.2798	-2.53565	12.8622
 535	1	1	-0.222978	2.17703	-4.58251	11.8229
 536	1	2	0.097895	3.9544	-1.71307	11.2748
 537	1	3	0.054231	1.9955	-5.1569	14.1754
 538	1	3	0.054231	3.05982	-6.49351	14.1037
 539	1	4	-0.159568	3.01438	-5.42798	13.882
 540	1	3	0.073528	3.64211	-4.86877	14.5766
 541	1	6	0.703056	2.03782	-2.80332	12.0953
 542	1	2	0.084378	3.37498	-0.982561	12.8026
 543	1	4	-0.422828	3.5813	-1.92338	12.2805
 544	1	2	0.048873	0.564182	-3.32355	13.9088
 545	1	2	0.084374	2.17744	-2.80358	14.4727
 546	1	4	-0.422813	1.37334	-2.60768	13.7551
 547	1	2	0.097892	1.01192	-1.58041	13.8708
 548	1	2	0.084729	0.929387	-0.779961	11.5709
 549	1	4	-0.400138	0.912786	-1.7878	11.1418
 550	1	2	0.084733	1.25072	-1.75035	10.1016
 551	1	2	0.073714	-0.0812867	-2.20126	11.2209
 552	1	1	0.037815	4.90668	-4.96442	10.5415
 553	1	2	0.048876	5.55866	-5.49019	15.2492
 554	1	1	-0.222978	4.57604	-5.21959	11.86
 555	1	2	0.097895	7.22298	-5.21091	14.6651
 556	1	3	0.054231	4.19228	-4.52965	8.49353
 557	1	3	0.054231	3.03994	-5.34662	9.52286
 558	1	4	-0.159568	3.8369	-4.59958	9.5264
 559	1	3	0.073528	3.4418	-3.60495	9.74503
 560	1	6	0.703056	5.8395	-6.02647	12.906
 561	1	2	0.084378	5.92495	-4.0447	14.2433
 562	1	4	-0.422828	6.16038	-5.09924	14.4224
 563	1	2	0.048873	6.03398	-8.31793	13.5747
 564	1	2	0.084374	4.93079	-7.42454	14.6567
 565	1	4	-0.422813	5.22863	-7.57512	13.6137
 566	1	2	0.097892	4.38295	-7.92379	13.0104
 567	1	2	0.084729	8.01991	-6.91095	13.1034
 568	1	4	-0.400138	7.43222	-6.51169	12.2688
 569	1	2	0.084733	7.27273	-7.29601	11.5303
 570	1	2	0.073714	7.92855	-5.64665	11.8509
 571	1	1	0.037815	7.12375	-4.05898	10.2242
 572	1	2	0.048876	5.09793	-8.20289	7.88482
 573	1	1	-0.222978	6.14369	-4.99447	9.95443
 574	1	2	0.097895	4.46207	-7.64165	9.47066
 575	1	3	0.054231	5.7827	-2.63623	11.1366
 576	1	3	0.054231	6.85274	-3.42324	12.3007
 577	1	4	-0.159568	6.78517	-3.02101	11.2887
 578	1	3	0.073528	7.42594	-2.14272	11.2552
 579	1	6	0.703056	6.23913	-6.25964	8.66983
 580	1	2	0.084378	4.0119	-6.78104	7.9509
 581	1	4	-0.422828	4.80083	-7.32912	8.47635
 582	1	2	0.048873	7.83103	-5.72978	7.0167
 583	1	2	0.084374	6.31246	-6.34084	6.31414
 584	1	4	-0.422813	6.74791	-5.67401	7.06649
 585	1	2	0.097892	6.38946	-4.65667	6.91344
 586	1	2	0.084729	7.95243	-7.7956	8.03322
 587	1	4	-0.400138	7.6333	-7.34711	8.98046
 588	1	2	0.084733	8.43864	-6.76632	9.42979
 589	1	2	0.073714	7.30185	-8.14097	9.65868
 590	1	1	0.037815	7.99236	-2.73689	8.44349
 591	1	2	0.048876	11.5306	-2.99081	8.66915
 592	1	1	-0.222978	8.18351	-3.70926	9.4169
 593	1	2	0.097895	10.8352	-1.68307	9.67551
 594	1	3	0.054231	5.83996	-3.08918	8.18213
 595	1	3	0.054231	6.16521	-1.58361	8.96366
 596	1	4	-0.159568	6.54347	-2.26008	8.19542
 597	1	3	0.073528	6.39674	-1.78032	7.22278
 598	1	6	0.703056	9.82057	-3.74043	10.2424
 599	1	2	0.084378	12.0067	-2.83231	10.3751
 600	1	4	-0.422828	11.1827	-2.71634	9.66233
 601	1	2	0.048873	10.7252	-3.50969	12.4321
 602	1	2	0.084374	9.45654	-2.29495	12.1113
 603	1	4	-0.422813	9.73089	-3.3477	11.9995
 604	1	2	0.097892	9.00825	-3.99782	12.4963
 605	1	2	0.084729	10.403	-6.02329	9.64888
 606	1	4	-0.400138	10.436	-5.41432	10.5521
 607	1	2	0.084733	11.476	-5.32474	10.8842
 608	1	2	0.073714	9.85373	-5.89339	11.3398
 609	1	1	0.037815	8.74176	-0.96851	6.97698
 610	1	2	0.048876	12.0121	-2.31487	6.37746
 611	1	1	-0.222978	8.93423	-2.20261	7.58397
 612	1	2	0.097895	11.6892	-3.46331	5.03861
 613	1	3	0.054231	9.07382	-0.182873	4.95868
 614	1	3	0.054231	8.63254	-1.81595	4.90442
 615	1	4	-0.159568	8.45501	-0.924829	5.4746
 616	1	3	0.073528	7.39299	-0.726139	5.29946
 617	1	6	0.703056	9.91119	-3.41688	6.61749
 618	1	2	0.084378	10.88	-1.8623	5.0574
 619	1	4	-0.422828	11.258	-2.68246	5.67443
 620	1	2	0.048873	11.3087	-4.85011	7.96163
 621	1	2	0.084374	9.60203	-5.42711	7.8652
 622	1	4	-0.422813	10.4356	-4.98692	7.31961
 623	1	2	0.097892	10.7215	-5.6449	6.49156
 624	1	2	0.084729	9.24661	-3.75853	4.33233
 625	1	4	-0.400138	8.88882	-4.12993	5.29897
 626	1	2	0.084733	8.97541	-5.22114	5.30368
 627	1	2	0.073714	7.84712	-3.83277	5.45839
 628	1	1	0.037815	9.4597	0.544082	8.80524
 629	1	2	0.048876	9.64579	2.68909	4.83605
 630	1	1	-0.222978	9.02802	0.276469	7.53003
 631	1	2	0.097895	10.1273	3.46331	6.38438
 632	1	3	0.054231	7.47656	-0.0742044	9.33914
 633	1	3	0.054231	8.77307	-0.874975	10.2598
 634	1	4	-0.159568	8.44395	0.0623408	9.81429
 635	1	3	0.073528	8.19554	0.754363	10.6005
 636	1	6	0.703056	8.45697	1.79012	6.69196
 637	1	2	0.084378	10.6789	1.79363	5.98016
 638	1	4	-0.422828	9.87287	2.52147	5.89527
 639	1	2	0.048873	7.67753	1.34691	4.43455
 640	1	2	0.084374	6.34853	1.2721	5.66372
 641	1	4	-0.422813	7.25387	1.7956	5.33892
 642	1	2	0.097892	7.01654	2.84436	5.12559
 643	1	2	0.084729	8.52587	3.03415	8.73179
 644	1	4	-0.400138	7.88638	3.03305	7.85185
 645	1	2	0.084733	7.8951	4.00613	7.34709
 646	1	2	0.073714	6.86331	2.77304	8.14365
 647	1	1	0.037815	11.6964	1.4813	8.41199
 648	1	2	0.048876	11.3331	-0.35774	11.27