pySIMM System Object

382 atoms
381 bonds
720 angles
936 dihedrals
0 impropers

7 atom types
8 bond types
13 angle types
5 dihedral types

-97.152582 97.152582 xlo xhi
-97.152582 97.152582 ylo yhi
-97.152582 97.152582 zlo zhi

Masses

   1	12.01	# c2
   2	1.008	# h1
   3	1.008	# hc
   4	12.01	# c3
   5	1.008	# ha
   6	32.06	# s6
   7	1.008	# h4

Pair Coeffs

   1	0.086	3.3996695084235347	# c2
   2	0.0157	2.471353044121301	# h1
   3	0.0157	2.649532787749369	# hc
   4	0.1094	3.3996695084235347	# c3
   5	0.015	2.59964245953351	# ha
   6	0.25	3.563594872561357	# s6
   7	0.015	2.5105525877194763	# h4

Bond Coeffs

   1	344.6	1.0868	# c2,h4
   2	343.1	1.0879	# c2,ha
   3	233.5	1.8075	# c3,s6
   4	569.4	1.3343	# c2,c2
   5	326.8	1.5095	# c2,c3
   6	263.2	1.76	# c2,s6
   7	330.6	1.0969	# c3,hc
   8	330.6	1.0969	# c3,h1

Angle Coeffs

   1	62.73	120.01	# c2,c2,s6
   2	45.94	115.68	# c3,c2,ha
   3	43.19	107.15	# h1,c3,s6
   4	46.99	110.36	# c2,c3,hc
   5	39.4	107.58	# hc,c3,hc
   6	60.63	104.05	# c2,s6,c3
   7	59.92	103.83	# c3,s6,c3
   8	42.79	115.45	# h4,c2,s6
   9	39.24	108.46	# h1,c3,h1
  10	64.06	123.63	# c2,c2,c3
  11	49.4	122.67	# c2,c2,h4
  12	49.85	120.43	# c2,c2,ha
  13	69.3	121.81	# c2,c2,c2

Dihedral Coeffs

   1	1	6.65	2	180	# X,c2,c2,X
   2	1	0.14444444444444446	3	0	# X,c3,s6,X
   3	1	0.0	2	0	# X,c2,c3,X
   4	3	0.38	3	180	0.0	2	0	1.15	1	0	# hc,c3,c2,c2
   5	1	6.6499999999999995	2	180	# X,c2,s6,X

Atoms

   1	1	1	0.037815	11.5834	-4.9906	-6.68
   2	1	2	0.048876	13.2277	-1.81831	-5.98122
   3	1	1	-0.222978	12.9258	-4.93464	-6.58075
   4	1	2	0.097895	12.3737	-2.46647	-4.53376
   5	1	3	0.054231	10.4071	-3.37202	-5.77247
   6	1	3	0.054231	9.82486	-4.99733	-5.38242
   7	1	4	-0.159568	10.7229	-4.3984	-5.56391
   8	1	3	0.073528	11.2376	-4.38891	-4.60321
   9	1	6	0.703056	13.9448	-4.02808	-5.45273
  10	1	2	0.084378	14.0721	-1.90486	-4.39625
  11	1	4	-0.422828	13.3346	-2.38584	-5.04922
  12	1	2	0.048873	12.9077	-4.73942	-3.39629
  13	1	2	0.084374	14.1708	-5.88299	-3.97417
  14	1	4	-0.422813	13.9022	-4.82909	-3.84183
  15	1	2	0.097892	14.6396	-4.329	-3.20344
  16	1	2	0.084729	15.7351	-3.57108	-6.9507
  17	1	4	-0.400138	15.6608	-4.0678	-5.9767
  18	1	2	0.084733	16.2694	-3.54821	-5.22883
  19	1	2	0.073714	15.9678	-5.11699	-6.06137
  20	1	1	0.037815	9.67819	-5.89902	-7.78413
  21	1	2	0.048876	10.2037	-8.02166	-9.90701
  22	1	1	-0.222978	11.0087	-5.70113	-7.69344
  23	1	2	0.097895	10.4631	-6.49929	-10.8434
  24	1	3	0.054231	10.0404	-7.80801	-6.77885
  25	1	3	0.054231	8.36986	-7.29274	-6.72384
  26	1	4	-0.159568	9.25731	-7.31504	-7.36884
  27	1	3	0.073528	9.03142	-7.97216	-8.21063
  28	1	6	0.703056	11.9211	-6.60603	-8.96735
  29	1	2	0.084378	11.6277	-7.84877	-10.9696
  30	1	4	-0.422828	10.9418	-7.3196	-10.299
  31	1	2	0.048873	14.1183	-5.53664	-9.0961
  32	1	2	0.084374	13.6026	-6.3025	-10.614
  33	1	4	-0.422813	13.269	-5.69905	-9.76232
  34	1	2	0.097892	12.8735	-4.74624	-10.1282
  35	1	2	0.084729	13.3591	-8.49841	-8.99001
  36	1	4	-0.400138	12.8213	-7.96136	-8.20068
  37	1	2	0.084733	13.5237	-7.56631	-7.46124
  38	1	2	0.073714	12.0943	-8.62609	-7.72136
  39	1	1	0.037815	7.4776	-5.37998	-8.29527
  40	1	2	0.048876	11.2351	-2.46021	-7.49836
  41	1	1	-0.222978	8.72299	-4.93215	-7.95401
  42	1	2	0.097895	11.5609	-3.44466	-8.97392
  43	1	3	0.054231	6.84258	-5.74698	-10.3464
  44	1	3	0.054231	8.5029	-6.06154	-10.1055
  45	1	4	-0.159568	7.53487	-6.1629	-9.60952
  46	1	3	0.073528	7.36863	-7.23558	-9.4934
  47	1	6	0.703056	9.21421	-3.28384	-8.53124
  48	1	2	0.084378	10.9488	-1.77267	-9.11729
  49	1	4	-0.422828	10.9166	-2.68957	-8.51846
  50	1	2	0.048873	9.41227	-3.87588	-10.8316
  51	1	2	0.084374	7.71661	-3.48114	-10.3921
  52	1	4	-0.422813	8.76263	-3.19537	-10.2702
  53	1	2	0.097892	8.914	-2.16443	-10.6097
  54	1	2	0.084729	7.12362	-2.33351	-8.14483
  55	1	4	-0.400138	8.13574	-1.97179	-7.98927
  56	1	2	0.084733	8.32896	-1.75879	-6.93267
  57	1	2	0.073714	8.32828	-1.07907	-8.59451
  58	1	1	0.037815	5.99089	-4.24494	-6.70091
  59	1	2	0.048876	6.28437	-8.01707	-7.86563
  60	1	1	-0.222978	6.24191	-5.0302	-7.79227
  61	1	2	0.097895	5.44003	-7.4664	-6.38798
  62	1	3	0.054231	7.9256	-3.59515	-5.8952
  63	1	3	0.054231	7.39271	-5.17178	-5.31031
  64	1	4	-0.159568	7.05132	-4.16858	-5.59501
  65	1	3	0.073528	6.69647	-3.67121	-4.68603
  66	1	6	0.703056	4.83615	-6.12565	-8.26334
  67	1	2	0.084378	4.55165	-8.41184	-7.62835
  68	1	4	-0.422828	5.33345	-7.66316	-7.4597
  69	1	2	0.048873	3.25233	-6.01137	-6.46358
  70	1	2	0.084374	2.72664	-5.04929	-7.88684
  71	1	4	-0.422813	3.19214	-5.96721	-7.54993
  72	1	2	0.097892	2.60068	-6.81899	-7.90309
  73	1	2	0.084729	3.65184	-7.33337	-9.93747
  74	1	4	-0.400138	4.62922	-6.83912	-9.91632
  75	1	2	0.084733	4.64951	-6.04272	-10.6668
  76	1	2	0.073714	5.39867	-7.58867	-10.1178
  77	1	1	0.037815	4.14982	-3.64155	-5.26671
  78	1	2	0.048876	4.27143	-4.10275	-9.941
  79	1	1	-0.222978	4.78697	-3.60527	-6.49994
  80	1	2	0.097895	4.49634	-2.38453	-10.3094
  81	1	3	0.054231	5.0223	-5.68049	-4.99788
  82	1	3	0.054231	4.91215	-4.76964	-3.52394
  83	1	4	-0.159568	4.41167	-4.93802	-4.47851
  84	1	3	0.073528	3.4885	-5.49653	-4.33402
  85	1	6	0.703056	4.15729	-2.73249	-7.9829
  86	1	2	0.084378	5.8508	-3.29629	-9.58825
  87	1	4	-0.422828	4.76748	-3.18792	-9.61537
  88	1	2	0.048873	2.28439	-1.77663	-9.05559
  89	1	2	0.084374	1.8545	-3.3364	-8.30255
  90	1	4	-0.422813	2.41356	-2.40832	-8.16954
  91	1	2	0.097892	2.07464	-1.88541	-7.29294
  92	1	2	0.084729	4.14124	-0.385609	-7.56313
  93	1	4	-0.400138	4.8638	-1.07794	-7.98048
  94	1	2	0.084733	5.76652	-1.07393	-7.36717
  95	1	2	0.073714	5.09678	-0.769489	-9.00513
  96	1	1	0.037815	3.15466	-1.42617	-5.00575
  97	1	2	0.048876	2.74845	-5.38217	-2.38102
  98	1	1	-0.222978	3.21564	-2.76104	-4.73333
  99	1	2	0.097895	1.2811	-4.61339	-1.72774
 100	1	3	0.054231	4.8482	-0.143089	-5.63246
 101	1	3	0.054231	4.61547	-0.238047	-3.89552
 102	1	4	-0.159568	4.54522	-0.800858	-4.82692
 103	1	3	0.073528	5.35531	-1.53377	-4.7448
 104	1	6	0.703056	2.49592	-3.08145	-3.07831
 105	1	2	0.084378	1.30889	-5.12721	-3.44782
 106	1	4	-0.422828	1.90578	-4.72529	-2.62112
 107	1	2	0.048873	4.35343	-3.88319	-1.75311
 108	1	2	0.084374	4.5965	-2.19944	-2.34439
 109	1	4	-0.422813	3.87916	-2.91356	-1.92689
 110	1	2	0.097892	3.49238	-2.53588	-0.974396
 111	1	2	0.084729	1.85873	-0.893697	-2.43408
 112	1	4	-0.400138	1.40352	-1.87493	-2.33409
 113	1	2	0.084733	0.428681	-1.92217	-2.81715
 114	1	2	0.073714	1.30591	-2.12026	-1.2725
 115	1	1	0.037815	0.718184	-1.14164	-5.3543
 116	1	2	0.048876	3.30555	0.788199	-2.73276
 117	1	1	-0.222978	1.99921	-0.647983	-5.11274
 118	1	2	0.097895	2.78464	2.48694	-2.94625
 119	1	3	0.054231	0.00640459	-3.06368	-4.58463
 120	1	3	0.054231	1.18721	-3.26804	-5.87006
 121	1	4	-0.159568	0.382345	-2.63188	-5.50415
 122	1	3	0.073528	-0.393534	-2.77502	-6.25916
 123	1	6	0.703056	2.16732	1.18134	-4.84207
 124	1	2	0.084378	1.58615	1.23771	-2.52178
 125	1	4	-0.422828	2.50239	1.43726	-3.08539
 126	1	2	0.048873	3.44029	3.10592	-5.42258
 127	1	2	0.084374	4.49251	1.82443	-4.77566
 128	1	4	-0.422813	3.64493	2.02913	-5.43688
 129	1	2	0.097892	3.85061	1.70924	-6.46378
 130	1	2	0.084729	0.738087	2.66127	-6.08631
 131	1	4	-0.400138	0.808281	2.35467	-5.04063
 132	1	2	0.084733	-0.126876	1.93227	-4.67698
 133	1	2	0.073714	1.05383	3.24063	-4.44404
 134	1	1	0.037815	-1.64925	-0.550285	-5.42461
 135	1	2	0.048876	-1.1591	2.62297	-7.3117
 136	1	1	-0.222978	-0.328034	-0.363485	-5.77664
 137	1	2	0.097895	-0.592607	2.17889	-8.94632
 138	1	3	0.054231	-2.11973	1.56222	-5.69192
 139	1	3	0.054231	-3.45001	0.652422	-5.09807
 140	1	4	-0.159568	-2.60333	0.585853	-5.78695
 141	1	3	0.073528	-3.02648	0.490523	-6.78697
 142	1	6	0.703056	-0.0572027	0.472177	-7.39083
 143	1	2	0.084378	-2.07591	1.43492	-8.32657
 144	1	4	-0.422828	-1.08925	1.80992	-8.04177
 145	1	2	0.048873	1.62212	0.52408	-9.07895
 146	1	2	0.084374	1.84999	1.81794	-7.85878
 147	1	4	-0.422813	1.59879	0.762804	-8.00921
 148	1	2	0.097892	2.28538	0.130121	-7.46768
 149	1	2	0.084729	-0.552397	-0.445368	-9.54159
 150	1	4	-0.400138	-0.677124	-0.795046	-8.51085
 151	1	2	0.084733	-0.109234	-1.71579	-8.35305
 152	1	2	0.073714	-1.73648	-0.97052	-8.29424
 153	1	1	0.037815	-2.05511	-0.913939	-3.09805
 154	1	2	0.048876	-2.47618	-2.98534	-7.07485
 155	1	1	-0.222978	-2.17604	-1.31598	-4.41533
 156	1	2	0.097895	-2.17176	-4.17693	-5.77592
 157	1	3	0.054231	-0.180315	0.169565	-3.33651
 158	1	3	0.054231	-0.84478	0.357026	-1.78613
 159	1	4	-0.159568	-1.1363	0.265508	-2.83654
 160	1	3	0.073528	-1.60762	1.18304	-3.1792
 161	1	6	0.703056	-3.56017	-2.34816	-5.03144
 162	1	2	0.084378	-3.76186	-4.14088	-6.59729
 163	1	4	-0.422828	-2.92409	-3.53271	-6.23748
 164	1	2	0.048873	-4.34548	-4.09698	-3.57928
 165	1	2	0.084374	-5.0412	-2.47731	-3.15411
 166	1	4	-0.422813	-4.75379	-3.15791	-3.95998
 167	1	2	0.097892	-5.63329	-3.39044	-4.57106
 168	1	2	0.084729	-5.35391	-2.2922	-6.5996
 169	1	4	-0.400138	-4.58352	-1.57217	-6.30222
 170	1	2	0.084733	-5.0616	-0.678162	-5.88898
 171	1	2	0.073714	-3.97006	-1.33368	-7.17701
 172	1	1	0.037815	-3.12664	-0.614832	-0.939763
 173	1	2	0.048876	-4.89788	-3.81294	-1.35241
 174	1	1	-0.222978	-2.71669	-1.40719	-1.99981
 175	1	2	0.097895	-3.76654	-5.15529	-1.00419
 176	1	3	0.054231	-3.45589	-1.74493	0.941973
 177	1	3	0.054231	-4.5536	-0.417871	0.709825
 178	1	4	-0.159568	-4.00345	-1.1979	0.174018
 179	1	3	0.073528	-4.80273	-1.82077	-0.234198
 180	1	6	0.703056	-2.58973	-3.20034	-1.68169
 181	1	2	0.084378	-3.97461	-3.84952	0.192444
 182	1	4	-0.422828	-3.94931	-4.08278	-0.876243
 183	1	2	0.048873	-1.73476	-5.29017	-2.38822
 184	1	2	0.084374	-2.26166	-4.32575	-3.78348
 185	1	4	-0.422813	-1.75061	-4.28718	-2.83001
 186	1	2	0.097892	-0.727875	-3.92641	-2.92186
 187	1	2	0.084729	-1.21306	-4.39527	-0.149807
 188	1	4	-0.400138	-1.44716	-3.33415	-0.292178
 189	1	2	0.084733	-0.540874	-2.78092	-0.544807
 190	1	2	0.073714	-1.87861	-2.93571	0.624738
 191	1	1	0.037815	-2.64503	1.37694	0.232217
 192	1	2	0.048876	-5.07872	3.1534	-0.458133
 193	1	1	-0.222978	-3.13756	0.752918	-0.898049
 194	1	2	0.097895	-6.46945	2.59178	-1.44407
 195	1	3	0.054231	-0.944894	1.16771	1.60092
 196	1	3	0.054231	-2.24062	0.0117204	1.92161
 197	1	4	-0.159568	-1.7081	0.543872	1.12744
 198	1	3	0.073528	-1.14004	-0.203775	0.560608
 199	1	6	0.703056	-4.45744	1.4288	-1.91344
 200	1	2	0.084378	-5.90575	1.60735	-0.0425441
 201	1	4	-0.422828	-5.60305	2.28347	-0.848878
 202	1	2	0.048873	-3.69313	3.64379	-2.39474
 203	1	2	0.084374	-3.34854	2.49597	-3.74055
 204	1	4	-0.422813	-4.07208	2.81308	-2.98558
 205	1	2	0.097892	-5.00323	3.1167	-3.47725
 206	1	2	0.084729	-4.69962	-0.252539	-3.57076
 207	1	4	-0.400138	-5.3831	0.231226	-2.87524
 208	1	2	0.084733	-5.81857	-0.500105	-2.18582
 209	1	2	0.073714	-6.1723	0.759704	-3.4216
 210	1	1	0.037815	-3.0524	3.00126	1.89605
 211	1	2	0.048876	-0.83722	5.03399	1.38259
 212	1	1	-0.222978	-2.68095	2.69733	0.600102
 213	1	2	0.097895	0.257424	3.73991	0.761612
 214	1	3	0.054231	-4.7168	2.51267	3.24946
 215	1	3	0.054231	-4.58746	1.42694	1.91093
 216	1	4	-0.159568	-3.98591	2.01251	2.61044
 217	1	3	0.073528	-3.43979	1.31716	3.25556
 218	1	6	0.703056	-1.77933	3.87287	-0.431337
 219	1	2	0.084378	0.0910057	5.29397	-0.121934
 220	1	4	-0.422828	-0.425224	4.55538	0.501485
 221	1	2	0.048873	-0.329819	2.49122	-1.70264
 222	1	2	0.084374	-1.63745	3.20486	-2.73436
 223	1	4	-0.422813	-0.932648	3.37496	-1.9277
 224	1	2	0.097892	-0.267798	4.1967	-2.21511
 225	1	2	0.084729	-1.99748	6.07654	-1.28276
 226	1	4	-0.400138	-2.62544	5.43639	-0.652625
 227	1	2	0.084733	-3.59692	5.26875	-1.12546
 228	1	2	0.073714	-2.74649	5.88542	0.327767
 229	1	1	0.037815	-1.95602	4.19832	3.59954
 230	1	2	0.048876	-4.46599	5.38209	5.00535
 231	1	1	-0.222978	-2.89043	4.17562	2.58278
 232	1	2	0.097895	-5.96563	5.93958	4.19981
 233	1	3	0.054231	-0.323746	3.01499	2.74172
 234	1	3	0.054231	-0.225936	3.18012	4.47687
 235	1	4	-0.159568	-0.928873	3.05733	3.64908
 236	1	3	0.073528	-1.39181	2.07506	3.78206
 237	1	6	0.703056	-4.35574	5.22933	2.60337
 238	1	2	0.084378	-5.6104	4.18712	4.33734
 239	1	4	-0.422828	-5.17498	5.18157	4.2043
 240	1	2	0.048873	-3.6759	7.39223	3.38976
 241	1	2	0.084374	-3.36561	7.20597	1.64565
 242	1	4	-0.422813	-4.06242	6.99705	2.45836
 243	1	2	0.097892	-5.02553	7.46986	2.23668
 244	1	2	0.084729	-5.21102	5.03167	0.403332
 245	1	4	-0.400138	-5.61233	4.82106	1.39824
 246	1	2	0.084733	-5.87807	3.76526	1.51062
 247	1	2	0.073714	-6.48668	5.45255	1.58845
 248	1	1	0.037815	-2.19065	4.5215	5.93169
 249	1	2	0.048876	-0.365355	8.28891	5.88514
 250	1	1	-0.222978	-1.88759	5.05042	4.67605
 251	1	2	0.097895	0.189694	6.77131	6.65645
 252	1	3	0.054231	-3.58863	3.04894	5.08823
 253	1	3	0.054231	-2.20739	2.32098	5.91022
 254	1	4	-0.159568	-2.90616	3.16054	5.92825
 255	1	3	0.073528	-3.55754	3.03598	6.79359
 256	1	6	0.703056	-0.606886	6.35042	4.42331
 257	1	2	0.084378	1.17305	7.56741	5.41197
 258	1	4	-0.422828	0.150685	7.33958	5.73435
 259	1	2	0.048873	1.55635	6.43507	3.40376
 260	1	2	0.084374	1.35129	4.94613	4.36587
 261	1	4	-0.422813	0.864682	5.62465	3.66121
 262	1	2	0.097892	0.597126	5.08475	2.75951
 263	1	2	0.084729	-0.0347188	8.01383	2.82252
 264	1	4	-0.400138	-0.943357	7.43924	3.03325
 265	1	2	0.084733	-1.2257	6.84871	2.16103
 266	1	2	0.073714	-1.74448	8.12964	3.30839
 267	1	1	0.037815	-1.94712	4.30083	8.34058
 268	1	2	0.048876	-3.60361	7.16321	5.30021
 269	1	1	-0.222978	-2.09809	5.0842	7.192
 270	1	2	0.097895	-3.73351	8.61352	6.30772
 271	1	3	0.054231	-2.67334	5.48253	10.0814
 272	1	3	0.054231	-1.58553	4.1984	10.508
 273	1	4	-0.159568	-1.80915	4.9354	9.72656
 274	1	3	0.073528	-0.95141	5.61454	9.74575
 275	1	6	0.703056	-2.5339	6.86096	7.36737
 276	1	2	0.084378	-2.23397	8.31607	5.42487
 277	1	4	-0.422828	-3.05252	7.83414	5.9487
 278	1	2	0.048873	-4.19996	8.10685	8.53186
 279	1	2	0.084374	-4.89423	6.76441	7.59486
 280	1	4	-0.422813	-4.08315	7.04798	8.27172
 281	1	2	0.097892	-4.11622	6.45172	9.17508
 282	1	2	0.084729	-1.93386	7.65957	9.55989
 283	1	4	-0.400138	-1.56399	7.83023	8.54385
 284	1	2	0.084733	-0.509421	7.54848	8.46853
 285	1	2	0.073714	-1.68659	8.88785	8.28343
 286	1	1	0.037815	-1.92045	1.9838	9.18732
 287	1	2	0.048876	0.873858	5.22541	7.80398
 288	1	1	-0.222978	-1.46551	3.01543	8.37006
 289	1	2	0.097895	1.99033	4.2255	6.80339
 290	1	3	0.054231	-1.52194	-0.156713	9.30427
 291	1	3	0.054231	-0.193754	0.621457	8.75868
 292	1	4	-0.159568	-1.00415	0.784088	9.44813
 293	1	3	0.073528	-0.558966	0.814153	10.4472
 294	1	6	0.703056	0.239049	2.95976	7.74904
 295	1	2	0.084378	0.37781	4.65002	6.16133
 296	1	4	-0.422828	0.943699	4.4293	7.05517
 297	1	2	0.048873	2.26905	3.24753	8.98111
 298	1	2	0.084374	0.854732	3.01238	10.0548
 299	1	4	-0.422813	1.35463	2.66523	9.14322
 300	1	2	0.097892	1.612	1.60538	9.22121
 301	1	2	0.084729	1.27636	0.864487	7.16689
 302	1	4	-0.400138	0.600678	1.5615	6.66012
 303	1	2	0.084733	-0.341536	1.06519	6.40225
 304	1	2	0.073714	1.08913	1.94393	5.75795
 305	1	1	0.037815	-4.24442	2.63132	9.46878
 306	1	2	0.048876	-5.232	-0.17808	12.5256
 307	1	1	-0.222978	-3.17461	1.85018	9.75627
 308	1	2	0.097895	-5.45391	1.56876	12.199
 309	1	3	0.054231	-4.64762	4.66651	10.1965
 310	1	3	0.054231	-5.56839	3.43434	11.0188
 311	1	4	-0.159568	-4.60007	3.64337	10.5626
 312	1	3	0.073528	-3.8689	3.64684	11.3773
 313	1	6	0.703056	-3.51896	0.68682	11.1301
 314	1	2	0.084378	-5.85445	0.344199	10.9314
 315	1	4	-0.422828	-5.19251	0.603489	11.7575
 316	1	2	0.048873	-3.28055	-1.51062	12.0262
 317	1	2	0.084374	-3.1522	-1.5266	10.2482
 318	1	4	-0.422813	-2.85154	-0.99779	11.1576
 319	1	2	0.097892	-1.76285	-0.979523	11.2663
 320	1	2	0.084729	-1.48093	1.11505	12.3364
 321	1	4	-0.400138	-2.54532	1.26765	12.5314
 322	1	2	0.084733	-2.75199	2.32815	12.6985
 323	1	2	0.073714	-2.84664	0.686433	13.4111
 324	1	1	0.037815	-6.34061	2.99245	8.32575
 325	1	2	0.048876	-6.71581	-1.13336	7.60072
 326	1	1	-0.222978	-5.297	2.18026	8.70043
 327	1	2	0.097895	-5.42385	-1.40836	8.81329
 328	1	3	0.054231	-6.33802	5.12993	8.68178
 329	1	3	0.054231	-4.86948	4.53177	7.89904
 330	1	4	-0.159568	-5.95341	4.41012	7.94902
 331	1	3	0.073528	-6.28749	4.70239	6.95911
 332	1	6	0.703056	-5.15789	0.678478	7.68958
 333	1	2	0.084378	-6.75451	-0.293621	9.18897
 334	1	4	-0.422828	-6.11662	-0.671574	8.39376
 335	1	2	0.048873	-5.30568	1.63325	5.51027
 336	1	2	0.084374	-5.79996	-0.0914869	5.52604
 337	1	4	-0.422813	-5.87504	0.868728	6.04721
 338	1	2	0.097892	-6.91352	1.17321	6.11779
 339	1	2	0.084729	-3.31063	-0.619884	8.39683
 340	1	4	-0.400138	-3.57425	-0.12583	7.46575
 341	1	2	0.084733	-3.69383	-0.878166	6.67847
 342	1	2	0.073714	-2.82731	0.611523	7.16496
 343	1	1	0.037815	-8.19042	1.76348	9.07032
 344	1	2	0.048876	-8.14079	5.7118	7.50391
 345	1	1	-0.222978	-7.61355	2.52538	8.09807
 346	1	2	0.097895	-9.8884	5.54276	7.2146
 347	1	3	0.054231	-7.65479	3.40405	10.4237
 348	1	3	0.054231	-9.04032	2.53776	10.9012
 349	1	4	-0.159568	-8.05605	2.38519	10.4532
 350	1	3	0.073528	-7.42726	1.80355	11.1222
 351	1	6	0.703056	-8.81381	3.42497	7.07082
 352	1	2	0.084378	-9.20073	5.03151	8.79198
 353	1	4	-0.422828	-9.02036	5.09815	7.71343
 354	1	2	0.048873	-7.77778	2.90347	4.9724
 355	1	2	0.084374	-9.13696	4.06271	4.80513
 356	1	4	-0.422813	-8.25559	3.79312	5.39713
 357	1	2	0.097892	-7.56919	4.64057	5.40395
 358	1	2	0.084729	-11.1336	3.64207	6.59834
 359	1	4	-0.400138	-10.5159	2.83818	7.01392
 360	1	2	0.084733	-10.5714	1.96637	6.35462
 361	1	2	0.073714	-10.8469	2.59533	8.02933
 362	1	1	0.037815	-9.21541	0.20371	7.63212
 363	1	2	0.048876	-9.84811	-2.46267	11.0151
 364	1	1	-0.222978	-9.0359	0.702051	8.87973
 365	1	2	0.097895	-9.54861	-2.39046	9.25355
 366	1	3	0.054231	-10.6945	-0.62167	6.30233
 367	1	3	0.054231	-9.35709	-1.70863	6.64684
 368	1	4	-0.159568	-10.0251	-0.965893	7.09974
 369	1	3	0.073528	-10.6469	-1.48754	7.82036
 370	1	6	0.703056	-9.76706	-0.192004	10.2875
 371	1	2	0.084378	-8.23353	-2.00092	10.394
 372	1	4	-0.422828	-9.31323	-1.9376	10.2149
 373	1	2	0.048873	-8.39206	0.249257	12.2133
 374	1	2	0.084374	-9.92468	1.22333	12.2351
 375	1	4	-0.422813	-9.46836	0.254197	12.0113
 376	1	2	0.097892	-9.94984	-0.512818	12.6285
 377	1	2	0.084729	-11.9246	-0.953315	10.9355
 378	1	4	-0.400138	-11.5615	-0.30073	10.1329
 379	1	2	0.084733	-11.9668	0.708223	10.2677
 380	1	2	0.073714	-11.8753	-0.692723	9.16687
 381	1	7	0	13.5748	-5.46353	-7.25013
 382	1	5	0	-8.73071	0.681785	6.79393

Velocities

   1	-4.96467e-05	-5.693e-05	0.000102333
   2	-0.000867481	-0.000290694	-0.000255235
   3	-0.000263457	0.000338	0.000197239
   4	-0.00148522	-0.000203801	-0.000426039
   5	-0.000208418	-0.000349467	0.000406072
   6	-0.000743935	-0.000740959	-0.000873981
   7	-0.000618166	-0.00064205	-1.25674e-06
   8	-0.000928075	-0.0013709	0.000382613
   9	-0.000521686	0.000364332	0.000409352
  10	-0.00143942	0.000261594	0.000301806
  11	-0.00122315	6.15611e-05	4.66802e-05
  12	-0.000672833	-0.00181761	-0.000521913
  13	-0.000530057	-0.00106764	-0.00170283
  14	-0.000574366	-0.00125508	-0.000432669
  15	-0.000596031	-0.0018726	0.000166708
  16	-0.000268457	0.00234825	0.00127386
  17	-0.000319969	0.00169926	0.000801795
  18	-0.00107348	0.00194038	0.00129935
  19	0.000806089	0.00222175	0.00045405
  20	0.000620877	-0.0005484	-0.000218773
  21	0.00133885	-0.00054317	0.00078104
  22	-0.000193213	-0.000273738	-0.000117616
  23	0.00110408	-0.000890953	0.000117681
  24	-0.000183843	-0.000128955	0.000306693
  25	-0.000158441	9.74095e-05	-0.00011188
  26	-0.000101185	-0.00019772	-2.26811e-05
  27	-4.0615e-05	-0.000523075	0.00017272
  28	0.00108105	8.09491e-05	0.000428623
  29	0.00143125	-0.00082541	0.000688463
  30	0.00122451	-0.000596379	0.000458993
  31	0.00116112	-0.000286494	0.000855055
  32	0.00127226	0.000445515	0.000633739
  33	0.00113842	0.000216333	0.000850191
  34	0.00152472	0.000473095	0.00115998
  35	0.00221023	0.0008687	0.00176942
  36	0.0011864	0.000746324	0.00127875
  37	0.000440479	0.00135619	0.00163183
  38	0.00130651	0.00042348	0.00100952
  39	0.000446414	-0.000692858	-0.000609013
  40	-0.000750239	-0.000770246	-0.000114072
  41	-0.000384803	-0.000403492	-0.000589661
  42	-0.000268725	-0.000356429	-0.000299865
  43	8.07264e-05	-0.000614508	-0.000464013
  44	5.98172e-05	-0.000952893	-0.000350089
  45	-9.27281e-05	-0.000633747	-0.00030469
  46	-0.000361053	-0.000625856	-0.000138578
  47	-0.000235535	-0.000617297	-0.000663342
  48	-0.000322426	-0.000326319	-1.07601e-05
  49	-0.000373849	-0.000477391	-0.000299877
  50	-0.000102736	-0.00257268	-0.00017408
  51	7.35139e-05	-0.000740576	-0.00093114
  52	0.000299746	-0.00153992	-0.000944079
  53	0.00124213	-0.00190816	-0.00171744
  54	-0.00042639	-0.000429123	-0.0019028
  55	-0.000514934	-0.000372864	-0.00156389
  56	-0.000924301	-3.98052e-05	-0.00150898
  57	-0.000174817	-0.000577294	-0.00186669
  58	0.000616372	-0.000606157	-0.00094096
  59	-0.00121403	-0.000688424	0.000345549
  60	-0.000647733	3.05328e-05	5.83404e-05
  61	-0.00153955	-0.000119728	1.99995e-05
  62	0.000198822	0.000135791	-0.000959961
  63	0.000329385	0.000214556	-0.000494315
  64	0.000180246	0.000198708	-0.000643587
  65	0.000418131	0.0003834	-0.000735343
  66	-0.000201391	-0.00017923	-0.000478231
  67	-0.0014909	0.000159862	-0.000123785
  68	-0.00116791	-0.000183741	2.66087e-06
  69	-0.000856593	0.00237109	-0.000906587
  70	-0.000475883	-0.000276221	-0.00290547
  71	-0.000437483	0.000499135	-0.00100318
  72	-8.16829e-05	-0.000217681	0.000107738
  73	-0.000175082	0.000350662	-0.000964074
  74	5.67819e-05	-0.000146424	-0.000437082
  75	0.000817948	-0.000211374	-0.00049814
  76	-0.000237809	-0.000573594	-5.68895e-05
  77	0.000861469	-0.000207408	-0.000823113
  78	-0.000345482	-0.000361502	-0.000295641
  79	-0.000578598	0.000138383	0.000288385
  80	-5.46575e-05	-0.000472709	-0.000419773
  81	0.000173016	1.62404e-05	-0.000455583
  82	0.0012942	0.00015503	-0.000515498
  83	0.000511477	0.000120152	-1.17901e-05
  84	0.000728502	0.000129978	0.000523628
  85	2.39748e-05	-0.000218904	-0.000405038
  86	-0.000205981	-0.000671167	-0.000560048
  87	-0.000215438	-0.000419836	-0.000359337
  88	-0.000208901	-0.000461334	-0.000382169
  89	-0.000309702	8.55536e-05	0.000734712
  90	-2.51087e-05	7.00804e-06	-5.67043e-05
  91	0.000319106	0.000528873	-0.000254926
  92	0.000352527	7.68933e-05	-0.00108539
  93	0.000328889	-0.000350218	-0.000492864
  94	4.79739e-05	-0.000432704	-4.30839e-05
  95	0.000984193	-0.000795449	-0.000482694
  96	0.000386029	-0.00024865	-0.000143356
  97	-2.27907e-05	-0.000144232	4.56477e-05
  98	-6.11396e-05	0.000368144	6.08518e-05
  99	-4.10465e-05	0.000165339	-0.000332965
 100	-9.78876e-06	-6.13295e-05	-0.000531701
 101	4.31542e-05	0.000456543	-0.000535659
 102	6.80177e-05	0.000167168	-0.000348495
 103	0.000107796	0.000197323	-7.24961e-05
 104	0.000411525	-7.66595e-05	-0.000122941
 105	9.77593e-05	0.000108579	-0.000267641
 106	6.16169e-05	2.63093e-05	-0.00016353
 107	0.000982417	-0.000203319	-0.000924264
 108	-0.000328626	0.000745113	0.00112406
 109	0.000234928	-0.000385132	0.00018761
 110	-0.000114338	-0.00190085	0.00065586
 111	-0.000450266	7.73298e-05	-0.00103372
 112	0.000206132	-0.000157077	-0.000141772
 113	-3.84341e-05	-0.00112351	0.000359257
 114	0.000924281	0.000375267	9.24699e-05
 115	0.000523324	0.000129244	7.34416e-05
 116	-0.000134842	-0.000364248	0.000128366
 117	-0.00021812	0.00015146	-0.000115042
 118	0.00114716	1.90266e-05	-0.000249274
 119	0.000162664	-1.40035e-05	-0.000294981
 120	0.000224148	0.000316609	-0.000298635
 121	7.57656e-05	0.000179071	-0.000219255
 122	0.000165216	0.000222901	-0.000257609
 123	0.000229741	0.00012643	1.63895e-05
 124	0.00017938	0.000976227	-1.47585e-05
 125	0.000365541	0.000188805	-1.91285e-05
 126	0.00020528	0.000241917	0.000445122
 127	0.000311968	-3.59335e-05	-0.000316699
 128	0.0001638	0.000244904	-2.68049e-05
 129	-5.5778e-05	0.000626509	-0.000185827
 130	0.000640572	0.000818656	0.000416294
 131	9.46461e-05	9.32242e-05	0.000251132
 132	-4.67189e-05	-0.000328979	-0.00059379
 133	-0.000399823	-0.000289401	0.00100231
 134	0.000313196	0.000131345	-3.82382e-05
 135	0.00104987	0.00115857	0.000652571
 136	-0.000300345	0.000292634	5.89506e-05
 137	0.000466325	0.000968389	0.00049942
 138	-0.000767094	-0.00031662	-0.00069621
 139	-0.000658639	-0.000681772	-0.00116173
 140	-0.000290348	-0.000575116	-0.000690704
 141	0.000399822	-0.00112629	-0.000940636
 142	0.000291684	0.000720435	0.000298503
 143	0.000315887	0.0016589	0.000853147
 144	0.000546049	0.00116165	0.000639688
 145	-0.00044182	0.00325164	-0.000288003
 146	0.00101082	0.000451657	0.0023277
 147	0.000240541	0.000946087	0.000247595
 148	9.31396e-05	-0.000637809	-0.00143562
 149	0.00100379	0.00135742	-7.35556e-05
 150	0.000300597	0.00120563	-0.000199887
 151	-0.000130681	0.000957163	-4.17477e-05
 152	0.000119572	0.00158777	-0.00079554
 153	0.000231273	-7.04009e-05	0.000170946
 154	-0.000355354	0.000491413	0.000547938
 155	-0.000187083	1.93651e-05	0.000223887
 156	-0.000654834	0.000102216	0.000258758
 157	0.000527204	-0.000508134	0.000477563
 158	0.000460178	-0.000655352	0.000517526
 159	0.000520405	-0.000348625	0.000454917
 160	0.000952119	2.0627e-06	0.000762457
 161	-0.000394437	0.000228346	0.000556914
 162	-0.000614505	0.000568741	0.000140978
 163	-0.000528512	0.000338195	0.000375369
 164	-0.000170548	-0.000116824	0.000444738
 165	0.000668541	-5.72663e-05	0.00147093
 166	-5.89251e-05	0.000166882	0.0010272
 167	-0.000557386	0.000682674	0.00154676
 168	-0.000688455	-0.000725325	0.000875954
 169	-0.000980233	-0.000305524	0.000639727
 170	-0.00135662	-0.000486827	0.000587399
 171	-0.00133307	-0.000157587	0.000436162
 172	-7.55972e-05	3.3288e-05	0.000109751
 173	0.000720348	-0.00134907	0.00134104
 174	0.000180787	-0.000350835	-4.14372e-05
 175	0.00151565	-0.000658078	0.00137153
 176	0.000430987	-0.000613027	-0.000263505
 177	0.000193522	-0.000684564	0.000252076
 178	0.000181535	-0.000558046	-1.02985e-06
 179	0.000249121	-0.0006038	2.56329e-05
 180	0.00038995	-0.000309706	0.000129067
 181	0.00143074	-0.000356461	0.000939734
 182	0.00109404	-0.000685699	0.00100017
 183	5.89437e-05	-0.000436347	2.69808e-05
 184	-0.00036112	-0.00052876	0.000131822
 185	2.60398e-05	-0.00046191	-7.86552e-05
 186	2.87193e-05	-0.000607497	-0.000555789
 187	0.00158201	6.40546e-05	-0.000606336
 188	0.000989516	-2.73296e-05	-0.000328634
 189	0.000597962	0.000521806	-0.000531069
 190	0.00105641	-0.000429343	-0.000102877
 191	-0.000226896	0.000145303	1.71697e-05
 192	-3.85959e-05	-0.000549259	0.0014441
 193	-0.000294234	-0.000428362	-0.000119346
 194	0.000146144	0.00126687	0.000118141
 195	-0.000677915	0.000447162	0.000363445
 196	5.95251e-05	-0.000696711	-0.000825928
 197	-3.31554e-05	0.000151689	-0.00031842
 198	0.000710262	0.000978524	-0.000634171
 199	-0.000584204	-0.000137908	0.000448371
 200	-0.0015245	-0.000262334	-0.000321063
 201	-0.000447725	0.000146745	0.000396231
 202	2.83783e-05	-0.000547555	0.000203822
 203	0.000852054	-0.00136907	0.00098816
 204	0.000326881	-0.000745998	0.000139581
 205	0.000762419	-0.000724784	-0.000681619
 206	-0.00143992	0.000672661	-0.000412079
 207	-0.00100025	0.000222158	0.000349776
 208	-0.000621772	-0.000162122	0.000169394
 209	-0.00138963	0.000550301	0.00120289
 210	-0.000719025	-0.000116985	-0.000147871
 211	-0.00055058	0.000428914	0.000815253
 212	-0.000405753	-4.86002e-05	2.2367e-05
 213	-0.000422733	0.00064418	0.000659085
 214	-0.00037396	-0.000496045	0.000177845
 215	-0.000683741	-9.53908e-05	-0.00024573
 216	-0.000567462	-0.000275766	-0.000205519
 217	-0.000266678	-0.000451387	-0.000657031
 218	-0.000310373	0.000421756	0.000394944
 219	-0.000457866	0.000759534	0.00100854
 220	-0.000517517	0.000589831	0.000744204
 221	3.85107e-05	0.00105941	-0.000188752
 222	-2.38855e-05	0.00110123	6.82913e-05
 223	-0.00017131	0.00100311	0.000246886
 224	-0.000415524	0.00133175	0.000540611
 225	-0.00146932	0.000260031	9.92333e-05
 226	-0.000854769	0.000187418	0.000643594
 227	-0.0010858	-0.000266118	0.00127662
 228	-0.000309391	0.000378997	0.000644783
 229	-0.000180008	0.00033145	-0.000563513
 230	-0.000306305	-0.000338194	-5.72447e-05
 231	-0.000889811	-1.00054e-05	7.35735e-05
 232	-0.000363936	0.000158751	0.000384488
 233	0.000264235	0.000944479	-0.000529618
 234	-0.000218874	0.000316226	-0.000460483
 235	-3.82599e-06	0.000592973	-0.000708374
 236	0.000100489	0.000469704	-0.0012149
 237	-0.000810546	9.90933e-05	2.14091e-05
 238	-0.000847118	3.03181e-05	-0.00012771
 239	-0.000580894	-5.89469e-05	0.000100623
 240	0.00347574	-0.00151224	0.000521085
 241	-0.00304896	0.000872126	-0.0008277
 242	-0.000322834	0.000196043	0.00136239
 243	-0.000801208	0.00117817	0.0053918
 244	-0.00200532	0.000558919	0.000129849
 245	-0.00141542	0.000567371	0.000365895
 246	-0.00158386	0.000612392	0.000357178
 247	-0.00122533	0.00065463	0.000882628
 248	1.8787e-05	-5.14013e-05	-0.000141544
 249	0.000467082	-0.000130145	0.00014745
 250	-0.000165756	0.000245648	-0.000476419
 251	-0.00174678	-0.000710377	0.000706427
 252	0.000478828	-0.000544756	-0.00039343
 253	0.00102132	-2.71074e-05	-0.000876838
 254	0.000579919	-0.000407508	-0.000588482
 255	0.000825194	-0.000915641	-0.000418668
 256	8.03927e-05	-2.12124e-05	0.000107668
 257	0.000434297	-0.00162837	0.00190173
 258	-0.000158652	-0.000611834	0.000687147
 259	0.000504111	0.000240469	0.00120238
 260	0.000193156	0.000130774	0.00085357
 261	0.000438624	0.00012149	0.000676081
 262	0.000961211	0.000272046	0.000396648
 263	0.00172697	-0.00270045	-0.00239428
 264	0.000560565	-2.91273e-05	-0.000107972
 265	-0.00285317	4.26196e-05	0.000944995
 266	0.0028874	0.00241193	0.000680183
 267	0.000380081	-0.000391915	-0.000388346
 268	-0.00363074	0.00201306	0.0018707
 269	6.37272e-06	-0.000239006	-0.000637175
 270	0.00316163	0.00282858	0.00152995
 271	0.000849667	0.00101577	-0.00114647
 272	-0.0010308	-0.000292548	-0.000200762
 273	0.000329479	-0.000192986	-0.000496791
 274	0.0011816	-0.00125646	-0.000367033
 275	-5.29722e-06	-0.000112438	-3.74709e-05
 276	0.000317618	-0.0021153	-0.00153252
 277	-4.01758e-07	0.000587235	0.00040605
 278	0.000243555	-0.000509155	0.000639155
 279	-0.000196564	0.000934084	-0.00123438
 280	-0.000286266	-0.000276233	-0.000575791
 281	-0.000986972	-0.00134393	-0.00133636