pySIMM System Object

743 atoms
742 bonds
1404 angles
1829 dihedrals
0 impropers

7 atom types
8 bond types
13 angle types
5 dihedral types

-122.404583 122.404583 xlo xhi
-122.404583 122.404583 ylo yhi
-122.404583 122.404583 zlo zhi

Masses

   1	12.01	# c2
   2	1.008	# h1
   3	1.008	# hc
   4	12.01	# c3
   5	1.008	# ha
   6	32.06	# s6
   7	1.008	# h4

Pair Coeffs

   1	0.086	3.3996695084235347	# c2
   2	0.0157	2.471353044121301	# h1
   3	0.0157	2.649532787749369	# hc
   4	0.1094	3.3996695084235347	# c3
   5	0.015	2.59964245953351	# ha
   6	0.25	3.563594872561357	# s6
   7	0.015	2.5105525877194763	# h4

Bond Coeffs

   1	233.5	1.8075	# c3,s6
   2	569.4	1.3343	# c2,c2
   3	326.8	1.5095	# c2,c3
   4	263.2	1.76	# c2,s6
   5	330.6	1.0969	# c3,hc
   6	343.1	1.0879	# c2,ha
   7	344.6	1.0868	# c2,h4
   8	330.6	1.0969	# c3,h1

Angle Coeffs

   1	46.99	110.36	# c2,c3,hc
   2	39.4	107.58	# hc,c3,hc
   3	59.92	103.83	# c3,s6,c3
   4	60.63	104.05	# c2,s6,c3
   5	39.24	108.46	# h1,c3,h1
   6	42.79	115.45	# h4,c2,s6
   7	64.06	123.63	# c2,c2,c3
   8	62.73	120.01	# c2,c2,s6
   9	49.4	122.67	# c2,c2,h4
  10	49.85	120.43	# c2,c2,ha
  11	43.19	107.15	# h1,c3,s6
  12	45.94	115.68	# c3,c2,ha
  13	69.3	121.81	# c2,c2,c2

Dihedral Coeffs

   1	1	0.0	2	0	# X,c2,c3,X
   2	1	6.65	2	180	# X,c2,c2,X
   3	3	0.38	3	180	0.0	2	0	1.15	1	0	# hc,c3,c2,c2
   4	1	6.6499999999999995	2	180	# X,c2,s6,X
   5	1	0.14444444444444446	3	0	# X,c3,s6,X

Atoms

   1	1	1	0.037815	-4.91242	-15.5646	-15.9987
   2	1	2	0.048876	-4.46081	-20.583	-16.8953
   3	1	1	-0.222978	-4.57126	-16.7428	-16.5599
   4	1	2	0.097895	-4.06135	-19.321	-18.1186
   5	1	3	0.054231	-5.56365	-15.8426	-13.9251
   6	1	3	0.054231	-6.54119	-14.6623	-14.8378
   7	1	4	-0.159568	-5.98586	-15.6035	-14.909
   8	1	3	0.073528	-6.75941	-16.343	-15.1218
   9	1	6	0.703056	-5.10398	-18.3886	-16.2047
  10	1	2	0.084378	-3.04486	-19.4916	-16.6452
  11	1	4	-0.422828	-4.05926	-19.5756	-17.0518
  12	1	2	0.048873	-4.5168	-18.4879	-13.8978
  13	1	2	0.084374	-6.28751	-18.225	-14.1181
  14	1	4	-0.422813	-5.40699	-18.767	-14.4734
  15	1	2	0.097892	-5.57976	-19.8464	-14.3988
  16	1	2	0.084729	-7.07431	-19.5938	-16.7828
  17	1	4	-0.400138	-6.74132	-18.5606	-16.9295
  18	1	2	0.084733	-7.43565	-17.867	-16.4471
  19	1	2	0.073714	-6.66444	-18.3343	-17.9994
  20	1	1	0.037815	-4.51247	-13.1914	-15.8046
  21	1	2	0.048876	-3.69951	-16.5635	-19.2548
  22	1	1	-0.222978	-4.43688	-14.378	-16.5061
  23	1	2	0.097895	-5.24516	-15.6574	-19.3387
  24	1	3	0.054231	-3.69001	-12.563	-13.826
  25	1	3	0.054231	-5.35473	-13.0796	-13.7843
  26	1	4	-0.159568	-4.3887	-13.2629	-14.2694
  27	1	3	0.073528	-4.00449	-14.2298	-13.9284
  28	1	6	0.703056	-3.57519	-14.402	-18.1291
  29	1	2	0.084378	-3.84895	-15.1871	-20.3659
  30	1	4	-0.422828	-4.15503	-15.5771	-19.3891
  31	1	2	0.048873	-4.02483	-12.457	-19.4608
  32	1	2	0.084374	-2.80725	-12.1648	-18.1717
  33	1	4	-0.422813	-3.15336	-12.8547	-18.9336
  34	1	2	0.097892	-2.35053	-13.0603	-19.6509
  35	1	2	0.084729	-2.00776	-15.9786	-17.1664
  36	1	4	-0.400138	-1.93989	-15.1384	-17.8632
  37	1	2	0.084733	-1.56001	-15.4827	-18.8316
  38	1	2	0.073714	-1.25617	-14.3874	-17.4625
  39	1	1	0.037815	-4.42	-10.7442	-15.7937
  40	1	2	0.048876	-8.41511	-11.7489	-17.2742
  41	1	1	-0.222978	-4.73982	-11.9643	-16.3728
  42	1	2	0.097895	-7.63474	-12.8305	-16.0713
  43	1	3	0.054231	-6.18848	-9.47736	-16.1945
  44	1	3	0.054231	-4.78926	-8.56302	-15.752
  45	1	4	-0.159568	-5.10116	-9.46219	-16.2869
  46	1	3	0.073528	-4.8065	-9.24164	-17.3165
  47	1	6	0.703056	-6.06297	-11.9942	-17.6451
  48	1	2	0.084378	-7.46567	-11.0612	-15.9133
  49	1	4	-0.422828	-7.545	-11.8878	-16.622
  50	1	2	0.048873	-6.57079	-14.3514	-17.8377
  51	1	2	0.084374	-7.60287	-13.3215	-18.8624
  52	1	4	-0.422813	-6.57905	-13.4874	-18.5083
  53	1	2	0.097892	-5.93476	-13.6246	-19.3798
  54	1	2	0.084729	-6.98449	-10.9629	-19.5772
  55	1	4	-0.400138	-6.31298	-10.6157	-18.784
  56	1	2	0.084733	-6.78227	-9.77284	-18.2683
  57	1	2	0.073714	-5.34567	-10.3366	-19.2177
  58	1	1	0.037815	-3.73761	-9.69331	-13.7824
  59	1	2	0.048876	-0.229955	-9.35625	-14.221
  60	1	1	-0.222978	-3.42999	-10.4501	-14.8907
  61	1	2	0.097895	-0.558838	-10.8094	-13.2135
  62	1	3	0.054231	-5.26234	-9.54122	-12.1931
  63	1	3	0.054231	-5.78062	-8.90307	-13.7287
  64	1	4	-0.159568	-5.18864	-9.70423	-13.2728
  65	1	3	0.073528	-5.69363	-10.6549	-13.4811
  66	1	6	0.703056	-1.71761	-10.919	-15.2697
  67	1	2	0.084378	0.553439	-10.909	-14.6097
  68	1	4	-0.422828	-0.354544	-10.438	-14.2165
  69	1	2	0.048873	-0.691329	-9.62936	-17.0081
  70	1	2	0.084374	-0.822085	-11.3494	-17.4579
  71	1	4	-0.422813	-1.34175	-10.5087	-16.9847
  72	1	2	0.097892	-2.27824	-10.2844	-17.505
  73	1	2	0.084729	-0.42352	-12.8534	-15.7121
  74	1	4	-0.400138	-1.46835	-12.681	-15.431
  75	1	2	0.084733	-1.67824	-13.1684	-14.4743
  76	1	2	0.073714	-2.12221	-13.0368	-16.2157
  77	1	1	0.037815	-2.61351	-9.45294	-11.6889
  78	1	2	0.048876	-4.48606	-6.73892	-13.421
  79	1	1	-0.222978	-2.85548	-9.03517	-12.9868
  80	1	2	0.097895	-3.37182	-5.4325	-13.962
  81	1	3	0.054231	-2.64708	-11.2763	-10.4347
  82	1	3	0.054231	-3.96268	-11.1884	-11.5297
  83	1	4	-0.159568	-2.90122	-10.9426	-11.4405
  84	1	3	0.073528	-2.3656	-11.5841	-12.1476
  85	1	6	0.703056	-2.22854	-7.52201	-13.7632
  86	1	2	0.084378	-4.0111	-6.6224	-15.1318
  87	1	4	-0.422828	-3.67074	-6.47717	-14.1019
  88	1	2	0.048873	-1.82373	-6.58774	-15.9187
  89	1	2	0.084374	-0.844968	-8.03982	-15.6455
  90	1	4	-0.422813	-1.84079	-7.60982	-15.5219
  91	1	2	0.097892	-2.59774	-8.19596	-16.0468
  92	1	2	0.084729	-1.10517	-6.51482	-11.9202
  93	1	4	-0.400138	-0.936445	-6.55593	-12.9901
  94	1	2	0.084733	0.0228856	-7.03664	-13.207
  95	1	2	0.073714	-0.951536	-5.5502	-13.4245
  96	1	1	0.037815	-2.49846	-7.52514	-10.1869
  97	1	2	0.048876	-0.718541	-11.8388	-9.5763
  98	1	1	-0.222978	-2.05355	-8.75535	-10.639
  99	1	2	0.097895	-0.290159	-11.5168	-11.2991
 100	1	3	0.054231	-4.37727	-7.62117	-11.298
 101	1	3	0.054231	-4.31683	-6.32904	-10.1342
 102	1	4	-0.159568	-3.70849	-6.88791	-10.8466
 103	1	3	0.073528	-3.42603	-6.18634	-11.6197
 104	1	6	0.703056	-0.502144	-9.49028	-10.0134
 105	1	2	0.084378	0.949421	-11.3768	-10.0239
 106	1	4	-0.422828	-0.111033	-11.2357	-10.2607
 107	1	2	0.048873	-0.0347926	-9.19391	-7.71327
 108	1	2	0.084374	1.44633	-9.33023	-8.69017
 109	1	4	-0.422813	0.44842	-8.88085	-8.63397
 110	1	2	0.097892	0.532372	-7.79547	-8.72292
 111	1	2	0.084729	0.768359	-7.7805	-11.068
 112	1	4	-0.400138	0.648474	-8.85591	-11.2333
 113	1	2	0.084733	1.61123	-9.36551	-11.117
 114	1	2	0.073714	0.239321	-9.03699	-12.2219
 115	1	1	0.037815	-2.04269	-7.40371	-7.78267
 116	1	2	0.048876	-1.99588	-4.60397	-11.5869
 117	1	1	-0.222978	-2.06861	-6.87348	-9.05794
 118	1	2	0.097895	-3.39984	-4.13101	-10.5535
 119	1	3	0.054231	-0.384878	-7.65508	-6.37563
 120	1	3	0.054231	-0.23367	-6.24481	-7.27702
 121	1	4	-0.159568	-0.992562	-6.86691	-6.81044
 122	1	3	0.073528	-1.43413	-6.28916	-5.99758
 123	1	6	0.703056	-1.64401	-5.09862	-9.25208
 124	1	2	0.084378	-1.90887	-3.14293	-10.5729
 125	1	4	-0.422828	-2.30811	-4.16108	-10.64
 126	1	2	0.048873	0.242708	-5.60921	-10.6495
 127	1	2	0.084374	0.367944	-3.9959	-9.88885
 128	1	4	-0.422813	0.0967301	-5.04509	-9.72586
 129	1	2	0.097892	0.720651	-5.46407	-8.93338
 130	1	2	0.084729	-1.24066	-3.03155	-8.17619
 131	1	4	-0.400138	-1.66209	-3.98223	-7.83153
 132	1	2	0.084733	-2.69772	-3.81624	-7.52979
 133	1	2	0.073714	-1.06457	-4.34861	-6.99717
 134	1	1	0.037815	-4.20653	-8.50262	-7.78445
 135	1	2	0.048876	-1.53419	-7.73515	-4.21953
 136	1	1	-0.222978	-2.96314	-8.29094	-7.2618
 137	1	2	0.097895	-1.69938	-9.39461	-3.57242
 138	1	3	0.054231	-3.30476	-10.2632	-8.6424
 139	1	3	0.054231	-4.63458	-9.65886	-9.58382
 140	1	4	-0.159568	-4.29062	-9.80232	-8.55915
 141	1	3	0.073528	-4.91924	-10.5435	-8.05812
 142	1	6	0.703056	-2.69873	-9.23277	-5.72451
 143	1	2	0.084378	-0.476589	-9.05878	-4.82401
 144	1	4	-0.422828	-1.47773	-8.79758	-4.4642
 145	1	2	0.048873	-0.942363	-10.5964	-6.65336
 146	1	2	0.084374	-1.82624	-11.4122	-5.33936
 147	1	4	-0.422813	-1.93081	-10.7851	-6.23189
 148	1	2	0.097892	-2.56986	-11.2956	-6.95566
 149	1	2	0.084729	-3.83094	-10.6109	-4.15937
 150	1	4	-0.400138	-4.1519	-9.96948	-4.98781
 151	1	2	0.084733	-4.78764	-9.16683	-4.61836
 152	1	2	0.073714	-4.66429	-10.5669	-5.74838
 153	1	1	0.037815	-5.38808	-6.81001	-6.47973
 154	1	2	0.048876	-8.15227	-6.29855	-7.57375
 155	1	1	-0.222978	-5.36527	-7.93718	-7.26214
 156	1	2	0.097895	-9.14541	-7.47003	-8.47992
 157	1	3	0.054231	-5.17167	-4.76862	-7.18544
 158	1	3	0.054231	-3.69519	-5.41126	-6.45394
 159	1	4	-0.159568	-4.56544	-5.66503	-7.05524
 160	1	3	0.073528	-4.22977	-5.87516	-8.06481
 161	1	6	0.703056	-6.96723	-8.30757	-8.06189
 162	1	2	0.084378	-8.9115	-7.71934	-6.74363
 163	1	4	-0.422828	-8.43774	-7.35182	-7.65172
 164	1	2	0.048873	-6.78095	-10.3963	-9.26386
 165	1	2	0.084374	-7.26298	-10.6325	-7.54375
 166	1	4	-0.422813	-7.39751	-10.0202	-8.44135
 167	1	2	0.097892	-8.45006	-10.0342	-8.74584
 168	1	2	0.084729	-7.7753	-7.87354	-10.2557
 169	1	4	-0.400138	-6.79773	-7.77795	-9.77038
 170	1	2	0.084733	-6.4825	-6.72972	-9.77404
 171	1	2	0.073714	-6.08093	-8.40937	-10.2903
 172	1	1	0.037815	-6.38337	-5.19586	-5.03872
 173	1	2	0.048876	-7.44582	-8.28186	-2.29261
 174	1	1	-0.222978	-6.29188	-6.48695	-5.48101
 175	1	2	0.097895	-5.78429	-8.31399	-2.93405
 176	1	3	0.054231	-8.46731	-5.26062	-5.73166
 177	1	3	0.054231	-8.1858	-4.10226	-4.45583
 178	1	4	-0.159568	-7.73498	-4.55144	-5.34725
 179	1	3	0.073528	-7.69428	-3.80407	-6.13524
 180	1	6	0.703056	-7.37436	-7.66818	-4.60333
 181	1	2	0.084378	-6.57439	-6.73599	-2.56921
 182	1	4	-0.422828	-6.72487	-7.75801	-2.93056
 183	1	2	0.048873	-7.68097	-9.9904	-4.1864
 184	1	2	0.084374	-8.3811	-9.50869	-5.75478
 185	1	4	-0.422813	-7.51838	-9.39385	-5.09171
 186	1	2	0.097892	-6.60724	-9.71458	-5.59122
 187	1	2	0.084729	-9.63151	-6.8703	-4.84071
 188	1	4	-0.400138	-8.96109	-7.05368	-3.99533
 189	1	2	0.084733	-9.39573	-7.82239	-3.34628
 190	1	2	0.073714	-8.79569	-6.13629	-3.41927
 191	1	1	0.037815	-4.43322	-4.96673	-3.51241
 192	1	2	0.048876	-7.29513	-1.9154	-3.21178
 193	1	1	-0.222978	-5.49366	-4.49343	-4.24804
 194	1	2	0.097895	-6.65158	-0.666678	-4.31513
 195	1	3	0.054231	-3.17709	-6.71067	-2.9963
 196	1	3	0.054231	-4.44521	-7.10962	-4.06484
 197	1	4	-0.159568	-3.76313	-6.30873	-3.82748
 198	1	3	0.073528	-3.06544	-6.20819	-4.64996
 199	1	6	0.703056	-5.42106	-2.68846	-4.52855
 200	1	2	0.084378	-7.68885	-1.95779	-4.96495
 201	1	4	-0.422828	-6.92234	-1.72436	-4.22186
 202	1	2	0.048873	-3.15068	-2.03897	-4.77671
 203	1	2	0.084374	-4.14523	-0.726825	-4.0741
 204	1	4	-0.422813	-3.93078	-1.80087	-4.04568
 205	1	2	0.097892	-3.58599	-2.09555	-3.06036
 206	1	2	0.084729	-4.42006	-2.71431	-6.68759
 207	1	4	-0.400138	-5.36629	-2.32654	-6.29912
 208	1	2	0.084733	-6.19976	-2.75463	-6.85025
 209	1	2	0.073714	-5.37809	-1.23673	-6.4154
 210	1	1	0.037815	-2.69288	-4.5062	-1.95332
 211	1	2	0.048876	-5.47035	-1.45117	-2.10207
 212	1	1	-0.222978	-4.01858	-4.42965	-2.30577
 213	1	2	0.097895	-5.74396	-1.45414	-0.367819
 214	1	3	0.054231	-1.0849	-5.12389	-3.29524
 215	1	3	0.054231	-2.22008	-4.06933	-4.08343
 216	1	4	-0.159568	-1.72628	-4.25695	-3.12508
 217	1	3	0.073528	-1.11513	-3.36686	-3.00197
 218	1	6	0.703056	-5.22614	-3.66334	-1.14027
 219	1	2	0.084378	-4.06576	-1.57061	-0.984558
 220	1	4	-0.422828	-5.10802	-1.85865	-1.1624
 221	1	2	0.048873	-7.16248	-5.05804	-1.12945
 222	1	2	0.084374	-7.55666	-3.34247	-0.779905
 223	1	4	-0.422813	-6.96835	-4.0176	-1.41123
 224	1	2	0.097892	-7.22127	-3.86656	-2.45895
 225	1	2	0.084729	-5.50039	-2.88492	1.11247
 226	1	4	-0.400138	-4.85865	-3.63352	0.635171
 227	1	2	0.084733	-5.10116	-4.594	1.09105
 228	1	2	0.073714	-3.80993	-3.36135	0.789714
 229	1	1	0.037815	-1.02579	-4.37748	-0.15061
 230	1	2	0.048876	-4.64837	-6.92255	-1.49236
 231	1	1	-0.222978	-2.22113	-4.80916	-0.695211
 232	1	2	0.097895	-4.80745	-7.80466	0.039193
 233	1	3	0.054231	-0.380336	-5.82363	1.36973
 234	1	3	0.054231	0.380797	-4.27651	1.52623
 235	1	4	-0.159568	-0.570614	-4.75413	1.25959
 236	1	3	0.073528	-1.28671	-4.42069	2.01798
 237	1	6	0.703056	-3.11177	-6.153	0.177501
 238	1	2	0.084378	-5.51962	-6.18719	-0.108324
 239	1	4	-0.422828	-4.68152	-6.81453	-0.412535
 240	1	2	0.048873	-2.53384	-8.46761	0.296872
 241	1	2	0.084374	-2.04676	-7.72323	-1.26279
 242	1	4	-0.422813	-2.08284	-7.58785	-0.176616
 243	1	2	0.097892	-1.07548	-7.43109	0.211982
 244	1	2	0.084729	-3.83186	-7.02805	2.26545
 245	1	4	-0.400138	-3.08599	-6.27724	1.98051
 246	1	2	0.084733	-2.10515	-6.60757	2.33225
 247	1	2	0.073714	-3.35692	-5.30778	2.41275
 248	1	1	0.037815	0.127079	-2.28049	-0.259217
 249	1	2	0.048876	2.54674	-4.45854	0.377811
 250	1	1	-0.222978	-0.172838	-3.52362	-0.764964
 251	1	2	0.097895	3.45222	-4.83465	-1.12719
 252	1	3	0.054231	-0.314024	-1.87808	1.84662
 253	1	3	0.054231	-1.75667	-2.23062	0.893421
 254	1	4	-0.159568	-0.775924	-1.74391	0.861637
 255	1	3	0.073528	-1.02014	-0.686624	0.728639
 256	1	6	0.703056	1.14301	-4.46242	-1.54655
 257	1	2	0.084378	2.98417	-3.14808	-0.759096
 258	1	4	-0.422828	2.69027	-4.18998	-0.675139
 259	1	2	0.048873	-0.0652061	-6.48735	-2.04731
 260	1	2	0.084374	1.71588	-6.69418	-2.1529
 261	1	4	-0.422813	0.894774	-6.24622	-1.58244
 262	1	2	0.097892	0.917068	-6.61095	-0.55035
 263	1	2	0.084729	1.28772	-2.85049	-3.2881
 264	1	4	-0.400138	1.54912	-3.90507	-3.20112
 265	1	2	0.084733	2.61928	-4.06764	-3.37023
 266	1	2	0.073714	0.968007	-4.49026	-3.9209
 267	1	1	0.037815	0.291819	-0.70312	-2.03218
 268	1	2	0.048876	3.12541	1.76562	0.0262433
 269	1	1	-0.222978	0.858694	-1.35954	-0.963598
 270	1	2	0.097895	4.00423	0.513871	-0.868883
 271	1	3	0.054231	-1.63043	-0.726366	-3.09186
 272	1	3	0.054231	-1.69512	-1.69595	-1.71233
 273	1	4	-0.159568	-1.24303	-0.77442	-2.07833
 274	1	3	0.073528	-1.68629	0.0168916	-1.46688
 275	1	6	0.703056	1.99059	-0.344723	0.0466907
 276	1	2	0.084378	2.56078	1.30056	-1.60276
 277	1	4	-0.422828	3.0174	0.938762	-0.684378
 278	1	2	0.048873	0.257117	1.20879	0.631832
 279	1	2	0.084374	0.653125	0.0920122	1.99661
 280	1	4	-0.422813	1.05546	0.700454	1.18255
 281	1	2	0.097892	1.74178	1.43768	1.61289
 282	1	2	0.084729	3.34614	-0.610187	1.98337
 283	1	4	-0.400138	2.90898	-1.30479	1.25715
 284	1	2	0.084733	2.22225	-1.99887	1.75363
 285	1	2	0.073714	3.70751	-1.84943	0.742654
 286	1	1	0.037815	2.13927	-0.239346	-3.6537
 287	1	2	0.048876	1.65369	2.52271	-4.94148
 288	1	1	-0.222978	0.885587	-0.0333134	-3.09082
 289	1	2	0.097895	0.327461	1.92166	-6.01421
 290	1	3	0.054231	3.6017	-1.84872	-3.70243
 291	1	3	0.054231	4.06398	-0.515322	-2.66493
 292	1	4	-0.159568	3.21519	-1.10476	-3.00302
 293	1	3	0.073528	2.88862	-1.69199	-2.16467
 294	1	6	0.703056	-0.0319685	1.44804	-3.70194
 295	1	2	0.084378	0.104369	3.39886	-5.02914
 296	1	4	-0.422828	0.582938	2.41378	-5.07357
 297	1	2	0.048873	-2.03789	2.69921	-4.02397
 298	1	2	0.084374	-2.34812	0.958176	-4.23414
 299	1	4	-0.422813	-1.82967	1.70126	-3.62117
 300	1	2	0.097892	-2.17863	1.67287	-2.58588
 301	1	2	0.084729	-0.0682017	2.07396	-1.39754
 302	1	4	-0.400138	0.244375	2.57122	-2.32139
 303	1	2	0.084733	1.30454	2.83109	-2.27621
 304	1	2	0.073714	-0.346482	3.48039	-2.47986
 305	1	1	0.037815	3.62996	0.164625	-5.56415
 306	1	2	0.048876	2.39111	-2.44202	-7.25342
 307	1	1	-0.222978	2.38426	-0.0738197	-5.00132
 308	1	2	0.097895	2.17412	-2.78394	-5.50875
 309	1	3	0.054231	3.23798	0.757479	-7.6519
 310	1	3	0.054231	4.89758	0.381368	-7.34337
 311	1	4	-0.159568	3.87485	0.0802631	-7.08058
 312	1	3	0.073528	3.76736	-0.930918	-7.4769
 313	1	6	0.703056	1.08931	-0.749771	-6.1092
 314	1	2	0.084378	0.830871	-3.06354	-6.6603
 315	1	4	-0.422828	1.68654	-2.42533	-6.41919
 316	1	2	0.048873	-1.14446	-0.286925	-5.38545
 317	1	2	0.084374	-1.01771	-1.81918	-6.26011
 318	1	4	-0.422813	-0.541868	-1.18662	-5.50545
 319	1	2	0.097892	-0.432264	-1.75461	-4.5785
 320	1	2	0.084729	1.72588	-0.632565	-8.43521
 321	1	4	-0.400138	0.924388	-0.207071	-7.82382
 322	1	2	0.084733	-0.037662	-0.57713	-8.19597
 323	1	2	0.073714	0.940342	0.887579	-7.85952
 324	1	1	0.037815	5.88711	-0.212286	-4.84685
 325	1	2	0.048876	6.7876	2.95142	-6.22261
 326	1	1	-0.222978	4.74088	0.58178	-4.88629
 327	1	2	0.097895	6.21505	4.2862	-5.15885
 328	1	3	0.054231	6.10358	-1.65031	-6.50061
 329	1	3	0.054231	6.14393	-2.39683	-4.87515
 330	1	4	-0.159568	5.7072	-1.60786	-5.48267
 331	1	3	0.073528	4.6804	-1.97051	-5.56358
 332	1	6	0.703056	4.81646	2.38914	-5.03992
 333	1	2	0.084378	7.04846	2.87109	-4.4601
 334	1	4	-0.422828	6.38402	3.20618	-5.23611
 335	1	2	0.048873	3.73355	4.13002	-6.28239
 336	1	2	0.084374	4.41025	2.85883	-7.34163
 337	1	4	-0.422813	3.85023	3.04881	-6.41951
 338	1	2	0.097892	2.87337	2.57072	-6.47682
 339	1	2	0.084729	3.44789	4.09596	-4.06185
 340	1	4	-0.400138	3.87753	3.15445	-3.70263
 341	1	2	0.084733	3.08638	2.45874	-3.41676
 342	1	2	0.073714	4.52036	3.35877	-2.84428
 343	1	1	0.037815	7.39852	0.708239	-3.06139
 344	1	2	0.048876	7.83923	-0.671162	-7.12743
 345	1	1	-0.222978	7.10032	-0.0776464	-4.16916
 346	1	2	0.097895	8.93697	0.623575	-6.60983
 347	1	3	0.054231	6.4749	1.4969	-1.24457
 348	1	3	0.054231	6.49839	2.63237	-2.54242
 349	1	4	-0.159568	6.37859	1.57136	-2.33326
 350	1	3	0.073528	5.35442	1.26919	-2.53252
 351	1	6	0.703056	8.57741	-0.999045	-4.84578
 352	1	2	0.084378	9.59742	-0.977769	-7.0098
 353	1	4	-0.422828	8.74803	-0.447685	-6.56401
 354	1	2	0.048873	10.9577	-1.18787	-4.7939
 355	1	2	0.084374	10.4026	0.204351	-3.81568
 356	1	4	-0.422813	10.2057	-0.835409	-4.07843
 357	1	2	0.097892	10.2347	-1.46207	-3.18379
 358	1	2	0.084729	7.817	-2.87044	-6.22438
 359	1	4	-0.400138	8.5303	-2.72839	-5.40942
 360	1	2	0.084733	9.53043	-2.95945	-5.79376
 361	1	2	0.073714	8.32381	-3.4062	-4.58016
 362	1	1	0.037815	9.26571	1.11847	-1.49754
 363	1	2	0.048876	5.76964	-0.669258	-0.494874
 364	1	1	-0.222978	8.34989	0.310407	-2.16931
 365	1	2	0.097895	6.65989	-1.78774	0.577595
 366	1	3	0.054231	9.09674	0.107524	0.476045
 367	1	3	0.054231	10.6182	-0.20983	-0.395217
 368	1	4	-0.159568	9.84298	0.535561	-0.183487
 369	1	3	0.073528	10.301	1.24802	0.507374
 370	1	6	0.703056	7.87106	-1.30944	-1.43071
 371	1	2	0.084378	7.09995	-0.0459988	0.506499
 372	1	4	-0.422828	6.7488	-0.906662	-0.0674147
 373	1	2	0.048873	6.32662	-3.10777	-1.52037
 374	1	2	0.084374	5.87391	-1.79295	-2.63839
 375	1	4	-0.422813	6.70418	-2.38963	-2.25759
 376	1	2	0.097892	7.21444	-2.93032	-3.04646
 377	1	2	0.084729	8.65023	-3.34556	-0.489338
 378	1	4	-0.400138	9.09639	-2.35115	-0.603648
 379	1	2	0.084733	9.99134	-2.41854	-1.23042
 380	1	2	0.073714	9.33889	-1.9646	0.389894
 381	1	1	0.037815	10.6293	3.03508	-1.00613
 382	1	2	0.048876	7.66763	4.33928	-3.1344
 383	1	1	-0.222978	9.70816	2.40351	-1.79602
 384	1	2	0.097895	9.06	5.33405	-2.63492
 385	1	3	0.054231	12.4115	2.07195	-0.131616
 386	1	3	0.054231	12.7334	2.96986	-1.64114
 387	1	4	-0.159568	12.0051	2.35799	-1.10528
 388	1	3	0.073528	11.963	1.42987	-1.68997
 389	1	6	0.703056	9.75605	3.2231	-3.40627
 390	1	2	0.084378	8.71053	5.12091	-4.37725
 391	1	4	-0.422828	8.68146	4.65001	-3.38823
 392	1	2	0.048873	11.1793	4.79038	-4.52257
 393	1	2	0.084374	11.54	4.71305	-2.76687
 394	1	4	-0.422813	11.2973	4.12887	-3.6564
 395	1	2	0.097892	12.0894	3.39879	-3.85521
 396	1	2	0.084729	9.38818	3.14074	-5.73005
 397	1	4	-0.400138	9.5039	2.37788	-4.95175
 398	1	2	0.084733	10.3943	1.77899	-5.16726
 399	1	2	0.073714	8.61926	1.76275	-4.90724
 400	1	1	0.037815	9.14955	4.72188	-0.0857384
 401	1	2	0.048876	12.3954	6.55107	2.22689
 402	1	1	-0.222978	10.4202	4.24383	-0.357907
 403	1	2	0.097895	12.2306	7.31817	0.620541
 404	1	3	0.054231	7.45473	3.45433	-0.614405
 405	1	3	0.054231	7.52243	3.88726	1.09348
 406	1	4	-0.159568	8.12161	3.63496	0.230593
 407	1	3	0.073528	8.57067	2.6953	0.546463
 408	1	6	0.703056	11.85	4.96176	0.53446
 409	1	2	0.084378	10.7814	6.80678	1.52242
 410	1	4	-0.422828	11.8053	6.57629	1.30367
 411	1	2	0.048873	10.9233	3.96549	2.5115
 412	1	2	0.084374	12.1659	2.9188	1.77041
 413	1	4	-0.422813	11.9044	3.94734	2.02764
 414	1	2	0.097892	12.6636	4.3631	2.69947
 415	1	2	0.084729	14.18	5.41512	0.521442
 416	1	4	-0.400138	13.5428	4.72318	-0.0410263
 417	1	2	0.084733	13.8724	3.69899	0.156563
 418	1	2	0.073714	13.5901	4.96547	-1.1088
 419	1	1	0.037815	7.3735	6.26	0.386948
 420	1	2	0.048876	10.1729	8.67951	1.11239
 421	1	1	-0.222978	8.69953	6.02136	0.0861202
 422	1	2	0.097895	10.2131	9.62116	-0.405278
 423	1	3	0.054231	5.83629	5.2583	-0.780607
 424	1	3	0.054231	5.91461	7.01362	-1.10418
 425	1	4	-0.159568	6.498	6.12433	-0.858996
 426	1	3	0.073528	7.08029	5.90507	-1.75057
 427	1	6	0.703056	9.48773	7.39696	-0.835246
 428	1	2	0.084378	8.65049	9.2825	0.381429
 429	1	4	-0.422828	9.64818	8.88439	0.17702
 430	1	2	0.048873	11.785	6.70214	-1.33318
 431	1	2	0.084374	10.694	6.6449	-2.75146
 432	1	4	-0.422813	10.968	7.19566	-1.84877
 433	1	2	0.097892	11.2904	8.2	-2.14499
 434	1	2	0.084729	8.05531	7.56464	-2.75009
 435	1	4	-0.400138	8.34343	8.24626	-1.94322
 436	1	2	0.084733	7.46884	8.58679	-1.37997
 437	1	2	0.073714	8.86426	9.11028	-2.3718
 438	1	1	0.037815	7.35803	6.18081	2.861
 439	1	2	0.048876	3.82938	8.39078	0.305124
 440	1	1	-0.222978	6.73715	6.26882	1.62757
 441	1	2	0.097895	4.68967	9.1249	1.66497
 442	1	3	0.054231	9.31028	5.38004	2.37644
 443	1	3	0.054231	9.21734	5.87901	3.99163
 444	1	4	-0.159568	8.86791	6.15346	2.99646
 445	1	3	0.073528	9.29026	7.12435	2.75407
 446	1	6	0.703056	4.94331	6.73517	1.67041
 447	1	2	0.084378	5.62082	8.57329	0.246424
 448	1	4	-0.422828	4.75914	8.36166	0.884799
 449	1	2	0.048873	3.88819	6.3533	-0.484944
 450	1	2	0.084374	3.99867	4.84523	0.47325
 451	1	4	-0.422813	3.80191	5.91923	0.51658
 452	1	2	0.097892	2.78568	6.09052	0.888255
 453	1	2	0.084729	3.17236	7.5262	3.04675
 454	1	4	-0.400138	4.08164	6.94857	3.24727
 455	1	2	0.084733	3.80114	5.97505	3.65576
 456	1	2	0.073714	4.71941	7.50378	3.94293
 457	1	1	0.037815	7.12147	6.44393	5.26672
 458	1	2	0.048876	4.30473	2.79811	5.01082
 459	1	1	-0.222978	6.74358	5.89775	4.04537
 460	1	2	0.097895	5.44398	3.41423	6.22697
 461	1	3	0.054231	7.22224	4.57479	6.41644
 462	1	3	0.054231	7.26782	5.91743	7.46085
 463	1	4	-0.159568	6.83309	5.58974	6.51647
 464	1	3	0.073528	5.7621	5.57487	6.73232
 465	1	6	0.703056	5.87642	4.27373	4.00504
 466	1	2	0.084378	4.10962	4.47454	5.61307
 467	1	4	-0.422828	4.83391	3.69143	5.36266
 468	1	2	0.048873	5.06709	2.56889	2.55175
 469	1	2	0.084374	4.05038	4.02862	2.50582
 470	1	4	-0.422813	5.08262	3.66422	2.50992
 471	1	2	0.097892	5.60852	3.98556	1.61653
 472	1	2	0.084729	7.86316	3.25326	4.90146
 473	1	4	-0.400138	7.24692	3.09868	4.01197
 474	1	2	0.084733	6.83532	2.08337	4.01004
 475	1	2	0.073714	7.85585	3.26004	3.1183
 476	1	1	0.037815	8.3064	7.88809	6.73339
 477	1	2	0.048876	6.54603	10.8099	5.10403
 478	1	1	-0.222978	7.70312	7.67892	5.52847
 479	1	2	0.097895	8.09288	10.7285	6.00726
 480	1	3	0.054231	9.64155	6.37766	7.64103
 481	1	3	0.054231	9.77237	6.46541	5.93043
 482	1	4	-0.159568	9.60841	7.08536	6.81349
 483	1	3	0.073528	10.4813	7.74326	6.83571
 484	1	6	0.703056	7.98004	9.05127	4.37709
 485	1	2	0.084378	8.05885	11.4172	4.36413
 486	1	4	-0.422828	7.62873	10.6665	5.03669
 487	1	2	0.048873	10.0834	9.83711	5.23375
 488	1	2	0.084374	10.2832	8.41595	4.16536
 489	1	4	-0.422813	9.75581	9.36499	4.30073
 490	1	2	0.097892	9.9479	10.0289	3.45002
 491	1	2	0.084729	7.28845	10.1829	2.42727
 492	1	4	-0.400138	7.24689	9.14329	2.76955
 493	1	2	0.084733	7.78259	8.50621	2.07302
 494	1	2	0.073714	6.21723	8.83562	2.92367
 495	1	1	0.037815	6.66435	9.37513	7.81266
 496	1	2	0.048876	7.30966	9.74372	10.8017
 497	1	1	-0.222978	7.8948	8.7332	7.75078
 498	1	2	0.097895	8.78636	9.1762	11.635
 499	1	3	0.054231	5.63614	9.05567	5.88473
 500	1	3	0.054231	5.27506	7.82258	7.06617
 501	1	4	-0.159568	5.4837	8.88668	6.94889
 502	1	3	0.073528	4.551	9.41276	7.13996
 503	1	6	0.703056	8.90382	8.70944	9.30055
 504	1	2	0.084378	8.85143	10.6719	10.6916
 505	1	4	-0.422828	8.39999	9.67922	10.7422
 506	1	2	0.048873	8.05655	6.46105	9.53549
 507	1	2	0.084374	9.8253	6.49782	9.74833
 508	1	4	-0.422813	8.88968	7.01934	9.96833
 509	1	2	0.097892	8.77424	7.07735	11.0557
 510	1	2	0.084729	11.1344	7.80115	8.91903
 511	1	4	-0.400138	10.715	8.78521	9.14614
 512	1	2	0.084733	10.998	9.48424	8.35496
 513	1	2	0.073714	11.1161	9.12988	10.1062
 514	1	1	0.037815	5.17261	10.882	9.06557
 515	1	2	0.048876	6.51129	12.5811	6.53774
 516	1	1	-0.222978	6.40525	10.5218	8.5243
 517	1	2	0.097895	7.0734	13.9626	7.53627
 518	1	3	0.054231	5.22432	12.9505	8.23879
 519	1	3	0.054231	3.76538	12.5832	8.92631
 520	1	4	-0.159568	4.83181	12.3904	9.07483
 521	1	3	0.073528	5.12088	12.8853	10.0058
 522	1	6	0.703056	7.71294	11.8357	8.4839
 523	1	2	0.084378	8.22193	13.0934	6.48351
 524	1	4	-0.422828	7.34257	12.9838	7.1267
 525	1	2	0.048873	7.36253	12.4412	10.7734
 526	1	2	0.084374	8.74075	13.3215	10.0333
 527	1	4	-0.422813	7.71119	12.9774	9.88303
 528	1	2	0.097892	7.06766	13.8361	9.67043
 529	1	2	0.084729	9.9874	11.3034	8.98035
 530	1	4	-0.400138	9.44183	11.521	8.05908
 531	1	2	0.084733	9.54031	10.7091	7.337
 532	1	2	0.073714	9.86527	12.438	7.63486
 533	1	1	0.037815	3.25372	10.7446	10.4022
 534	1	2	0.048876	3.48415	6.9329	11.8241
 535	1	1	-0.222978	4.14319	10.0989	9.58633
 536	1	2	0.097895	4.30911	8.40587	12.4144
 537	1	3	0.054231	4.93986	10.6262	11.8084
 538	1	3	0.054231	4.10795	12.1396	11.8955
 539	1	4	-0.159568	3.93988	11.0748	11.7355
 540	1	3	0.073528	3.38523	10.6615	12.5839
 541	1	6	0.703056	4.21613	8.33666	10.0354
 542	1	2	0.084378	2.611	8.50293	11.8174
 543	1	4	-0.422828	3.58203	8.01699	11.6929
 544	1	2	0.048873	5.9642	7.15567	8.86821
 545	1	2	0.084374	6.46576	7.83119	10.4662
 546	1	4	-0.422813	5.68066	7.33032	9.90202
 547	1	2	0.097892	5.4585	6.3672	10.3742
 548	1	2	0.084729	2.87708	6.41912	9.5916
 549	1	4	-0.400138	2.9169	7.43386	9.17954
 550	1	2	0.084733	1.96641	7.94698	9.35133
 551	1	2	0.073714	3.15305	7.39637	8.1113
 552	1	1	0.037815	1.15666	10.7876	9.06354
 553	1	2	0.048876	2.57728	12.6618	13.2556
 554	1	1	-0.222978	1.9229	11.063	10.1787
 555	1	2	0.097895	0.882097	13.1293	13.4891
 556	1	3	0.054231	1.1733	10.1102	6.95961
 557	1	3	0.054231	2.45766	11.2703	7.37496
 558	1	4	-0.159568	1.85563	10.4343	7.7509
 559	1	3	0.073528	2.5033	9.57376	7.84974
 560	1	6	0.703056	1.20636	12.3393	11.277
 561	1	2	0.084378	1.31201	11.3899	13.4775
 562	1	4	-0.422828	1.54295	12.3725	13.0521
 563	1	2	0.048873	1.70376	14.6748	11.3921
 564	1	2	0.084374	3.17306	13.7275	11.0287
 565	1	4	-0.422813	2.10879	13.8328	10.8193
 566	1	2	0.097892	1.95333	14.0015	9.74789
 567	1	2	0.084729	-1.14304	12.2126	11.2892
 568	1	4	-0.400138	-0.434196	12.9746	10.9929
 569	1	2	0.084733	-0.565439	13.871	11.6087
 570	1	2	0.073714	-0.517117	13.233	9.93683
 571	1	1	0.037815	-1.00429	10.0979	9.99805
 572	1	2	0.048876	-0.626172	13.093	5.82879
 573	1	1	-0.222978	-0.224702	10.7061	9.01876
 574	1	2	0.097895	0.577557	13.2597	7.14896
 575	1	3	0.054231	0.648702	8.94522	10.8791
 576	1	3	0.054231	-0.0915003	10.0935	12.004
 577	1	4	-0.159568	-0.292435	9.41628	11.172
 578	1	3	0.073528	-0.895555	8.6087	11.5861
 579	1	6	0.703056	-0.99212	11.5128	7.56923
 580	1	2	0.084378	0.731546	11.9404	5.92628
 581	1	4	-0.422828	0.0381051	12.5498	6.51158
 582	1	2	0.048873	-2.66867	9.86247	7.08
 583	1	2	0.084374	-2.47814	11.0614	5.76723
 584	1	4	-0.422813	-1.95038	10.4328	6.4939
 585	1	2	0.097892	-1.26044	9.76554	5.96699
 586	1	2	0.084729	-2.862	12.0822	8.90059
 587	1	4	-0.400138	-2.33897	12.5732	8.09173
 588	1	2	0.084733	-1.92648	13.5262	8.43659
 589	1	2	0.073714	-3.00729	12.749	7.24123
 590	1	1	0.037815	-2.46114	8.39917	9.17028
 591	1	2	0.048876	-5.43443	9.65054	12.3924
 592	1	1	-0.222978	-2.2884	9.6098	9.84099
 593	1	2	0.097895	-5.60211	9.13848	10.708
 594	1	3	0.054231	-0.752408	8.57812	7.79071
 595	1	3	0.054231	-0.3833	7.6319	9.18702
 596	1	4	-0.159568	-1.18136	7.85925	8.48425
 597	1	3	0.073528	-1.32128	6.9976	7.84072
 598	1	6	0.703056	-3.44596	10.0826	11.1898
 599	1	2	0.084378	-4.62646	8.15953	11.8518
 600	1	4	-0.422828	-4.93027	9.15661	11.5536
 601	1	2	0.048873	-2.21607	9.35224	13.1304
 602	1	2	0.084374	-1.92344	11.0925	12.775
 603	1	4	-0.422813	-2.66695	10.2945	12.8076
 604	1	2	0.097892	-3.45557	10.5689	13.5174
 605	1	2	0.084729	-4.64786	11.9836	10.3044
 606	1	4	-0.400138	-3.93801	11.8213	11.1161
 607	1	2	0.084733	-4.4217	12.0784	12.0649
 608	1	2	0.073714	-3.07047	12.462	10.968
 609	1	1	0.037815	-3.53278	6.30041	8.63549
 610	1	2	0.048876	-7.00531	8.21525	9.60067
 611	1	1	-0.222978	-3.61236	7.66556	8.89439
 612	1	2	0.097895	-7.41156	8.36459	7.87593
 613	1	3	0.054231	-3.97536	5.95136	6.51643
 614	1	3	0.054231	-4.32983	4.56854	7.5404
 615	1	4	-0.159568	-4.34326	5.65691	7.50421
 616	1	3	0.073528	-5.4047	5.8629	7.53434
 617	1	6	0.703056	-5.05968	8.57178	8.21501
 618	1	2	0.084378	-6.77606	6.83252	8.52155
 619	1	4	-0.422828	-6.71245	7.91527	8.59053
 620	1	2	0.048873	-5.77941	10.7198	7.4988
 621	1	2	0.084374	-5.68014	10.6085	9.26541
 622	1	4	-0.422813	-5.17411	10.35	8.3341
 623	1	2	0.097892	-4.1738	10.7588	8.27107
 624	1	2	0.084729	-5.57697	9.23373	5.96992
 625	1	4	-0.400138	-5.09032	8.36048	6.41696
 626	1	2	0.084733	-4.05954	8.28363	6.05435
 627	1	2	0.073714	-5.66805	7.47095	6.14851
 628	1	1	0.037815	-2.46124	5.439	10.638
 629	1	2	0.048876	-2.7085	2.4973	9.44768
 630	1	1	-0.222978	-2.71314	5.41472	9.29491
 631	1	2	0.097895	-3.49338	2.69882	7.84425
 632	1	3	0.054231	-0.59959	4.78826	11.5547
 633	1	3	0.054231	-0.355586	5.8719	10.2259
 634	1	4	-0.159568	-1.02257	5.66404	11.0569
 635	1	3	0.073528	-0.942789	6.52736	11.7125
 636	1	6	0.703056	-1.73282	4.27303	8.26821
 637	1	2	0.084378	-1.88704	1.92262	7.95303
 638	1	4	-0.422828	-2.54586	2.6834	8.38653
 639	1	2	0.048873	-0.635814	4.28436	6.15016
 640	1	2	0.084374	-2.39382	3.95771	5.98601
 641	1	4	-0.422813	-1.63822	4.57025	6.48986
 642	1	2	0.097892	-1.80438	5.63058	6.2799
 643	1	2	0.084729	0.577575	4.51849	8.84654
 644	1	4	-0.400138	-0.142415	3.69393	8.88903
 645	1	2	0.084733	-0.265846	3.32141	9.91012
 646	1	2	0.073714	0.199104	2.88101	8.2383
 647	1	1	0.037815	-4.53063	4.33457	11.2714
 648	1	2	0.048876	-3.78128	3.12273	14.5283
 649	1	1	-0.222978	-3.29179	4.8337	11.5672
 650	1	2	0.097895	-3.60775	4.56956	15.5572
 651	1	3	0.054231	-5.73379	5.37193	9.76616