pySIMM System Object

534 atoms
533 bonds
1008 angles
1312 dihedrals
0 impropers

7 atom types
8 bond types
13 angle types
5 dihedral types

-109.225591 109.225591 xlo xhi
-109.225591 109.225591 ylo yhi
-109.225591 109.225591 zlo zhi

Masses

   1	12.01	# c2
   2	1.008	# h1
   3	1.008	# hc
   4	12.01	# c3
   5	1.008	# ha
   6	32.06	# s6
   7	1.008	# h4

Pair Coeffs

   1	0.086	3.3996695084235347	# c2
   2	0.0157	2.471353044121301	# h1
   3	0.0157	2.649532787749369	# hc
   4	0.1094	3.3996695084235347	# c3
   5	0.015	2.59964245953351	# ha
   6	0.25	3.563594872561357	# s6
   7	0.015	2.5105525877194763	# h4

Bond Coeffs

   1	233.5	1.8075	# c3,s6
   2	569.4	1.3343	# c2,c2
   3	326.8	1.5095	# c2,c3
   4	263.2	1.76	# c2,s6
   5	330.6	1.0969	# c3,hc
   6	343.1	1.0879	# c2,ha
   7	344.6	1.0868	# c2,h4
   8	330.6	1.0969	# c3,h1

Angle Coeffs

   1	46.99	110.36	# c2,c3,hc
   2	39.4	107.58	# hc,c3,hc
   3	59.92	103.83	# c3,s6,c3
   4	60.63	104.05	# c2,s6,c3
   5	39.24	108.46	# h1,c3,h1
   6	42.79	115.45	# h4,c2,s6
   7	64.06	123.63	# c2,c2,c3
   8	62.73	120.01	# c2,c2,s6
   9	49.4	122.67	# c2,c2,h4
  10	49.85	120.43	# c2,c2,ha
  11	43.19	107.15	# h1,c3,s6
  12	45.94	115.68	# c3,c2,ha
  13	69.3	121.81	# c2,c2,c2

Dihedral Coeffs

   1	1	0.0	2	0	# X,c2,c3,X
   2	1	6.65	2	180	# X,c2,c2,X
   3	3	0.38	3	180	0.0	2	0	1.15	1	0	# hc,c3,c2,c2
   4	1	6.6499999999999995	2	180	# X,c2,s6,X
   5	1	0.14444444444444446	3	0	# X,c3,s6,X

Atoms

   1	1	1	0.037815	-12.1537	4.35042	11.9483
   2	1	2	0.048876	-16.7755	2.15867	12.1387
   3	1	1	-0.222978	-13.4991	4.21256	11.9724
   4	1	2	0.097895	-16.5458	3.94454	12.0633
   5	1	3	0.054231	-11.1331	2.40527	11.9307
   6	1	3	0.054231	-10.4881	3.57818	13.1311
   7	1	4	-0.159568	-11.3851	3.21777	12.6223
   8	1	3	0.073528	-11.9471	2.78187	13.4495
   9	1	6	0.703056	-14.491	2.79878	12.3952
  10	1	2	0.084378	-16.1029	2.92117	10.6512
  11	1	4	-0.422828	-16.1546	2.97148	11.7449
  12	1	2	0.048873	-13.4874	1.06244	11.092
  13	1	2	0.084374	-12.934	1.00066	12.8069
  14	1	4	-0.422813	-13.7874	1.15829	12.1421
  15	1	2	0.097892	-14.5702	0.427449	12.3763
  16	1	2	0.084729	-15.4368	2.06201	14.445
  17	1	4	-0.400138	-14.7179	2.8445	14.1762
  18	1	2	0.084733	-13.7583	2.66197	14.6692
  19	1	2	0.073714	-15.1082	3.83156	14.4483
  20	1	1	0.037815	-10.2201	5.5385	11.0666
  21	1	2	0.048876	-14.8016	6.78951	12.1952
  22	1	1	-0.222978	-11.5494	5.48917	11.4517
  23	1	2	0.097895	-13.4603	6.79308	13.3995
  24	1	3	0.054231	-8.43548	4.44027	10.3172
  25	1	3	0.054231	-8.88524	4.0246	11.8994
  26	1	4	-0.159568	-9.31915	4.29729	10.9328
  27	1	3	0.073528	-9.83437	3.42809	10.5206
  28	1	6	0.703056	-12.6151	6.96869	11.168
  29	1	2	0.084378	-13.9663	8.31705	12.5952
  30	1	4	-0.422828	-13.8404	7.2354	12.472
  31	1	2	0.048873	-11.6488	9.10225	11.6622
  32	1	2	0.084374	-11.1414	8.53013	10.026
  33	1	4	-0.422813	-11.9612	8.59922	10.7427
  34	1	2	0.097892	-12.7832	9.17133	10.298
  35	1	2	0.084729	-14.0959	5.64358	9.76316
  36	1	4	-0.400138	-13.7343	6.67371	9.77583
  37	1	2	0.084733	-14.573	7.37371	9.86188
  38	1	2	0.073714	-13.1985	6.87237	8.84709
  39	1	1	0.037815	-8.73113	6.90835	9.71886
  40	1	2	0.048876	-7.02871	7.19553	12.2494
  41	1	1	-0.222978	-9.60371	6.70562	10.7659
  42	1	2	0.097895	-7.63227	7.53304	13.9039
  43	1	3	0.054231	-7.15079	8.27574	10.4296
  44	1	3	0.054231	-7.47213	8.41111	8.71659
  45	1	4	-0.159568	-7.94832	8.22488	9.68362
  46	1	3	0.073528	-8.62258	9.07862	9.79753
  47	1	6	0.703056	-9.39176	7.67293	12.3017
  48	1	2	0.084378	-7.96923	5.94814	13.131
  49	1	4	-0.422828	-7.84317	7.02227	12.9579
  50	1	2	0.048873	-10.5974	6.22531	13.7951
  51	1	2	0.084374	-9.972	7.69336	14.6069
  52	1	4	-0.422813	-10.4624	7.30886	13.7056
  53	1	2	0.097892	-11.4178	7.82121	13.5716
  54	1	2	0.084729	-7.92856	9.56664	11.9616
  55	1	4	-0.400138	-8.96203	9.42972	12.2918
  56	1	2	0.084733	-9.6562	9.96999	11.6399
  57	1	2	0.073714	-9.05752	9.79801	13.3195
  58	1	1	0.037815	-7.26748	5.9046	8.16975
  59	1	2	0.048876	-9.30482	5.47092	5.21254
  60	1	1	-0.222978	-8.55639	6.14951	8.58011
  61	1	2	0.097895	-9.05053	3.95429	6.11544
  62	1	3	0.054231	-5.36282	5.2455	9.01479
  63	1	3	0.054231	-5.5938	6.97223	9.08927
  64	1	4	-0.159568	-6.11531	6.01204	9.17843
  65	1	3	0.073528	-6.43823	5.8878	10.219
  66	1	6	0.703056	-9.95961	5.60908	7.54723
  67	1	2	0.084378	-10.69	4.43842	5.61321
  68	1	4	-0.422828	-9.71456	4.79716	5.96009
  69	1	2	0.048873	-11.9771	6.68293	6.86147
  70	1	2	0.084374	-11.252	7.42862	8.32863
  71	1	4	-0.422813	-11.0503	7.01716	7.34176
  72	1	2	0.097892	-10.5566	7.77058	6.72352
  73	1	2	0.084729	-11.9161	4.28181	7.52276
  74	1	4	-0.400138	-11.1852	4.53696	8.2977
  75	1	2	0.084733	-10.7006	3.62113	8.64182
  76	1	2	0.073714	-11.7047	5.06167	9.08974
  77	1	1	0.037815	-6.60312	3.96783	6.9433
  78	1	2	0.048876	-4.66851	7.35968	6.46395
  79	1	1	-0.222978	-6.90659	5.31621	7.00328
  80	1	2	0.097895	-5.45329	8.44911	5.27549
  81	1	3	0.054231	-6.84607	2.07877	8.07182
  82	1	3	0.054231	-6.73173	3.46229	9.07723
  83	1	4	-0.159568	-7.13591	3.13079	8.11675
  84	1	3	0.073528	-8.22763	3.17633	8.19146
  85	1	6	0.703056	-6.81961	6.5238	5.6619
  86	1	2	0.084378	-6.02677	8.37359	6.97003
  87	1	4	-0.422828	-5.6147	7.79331	6.13851
  88	1	2	0.048873	-7.7582	8.64867	5.09218
  89	1	2	0.084374	-9.01938	7.41489	5.22009
  90	1	4	-0.422813	-8.10652	7.79312	5.68289
  91	1	2	0.097892	-8.29364	8.1094	6.7115
  92	1	2	0.084729	-5.82178	5.2239	3.91783
  93	1	4	-0.400138	-6.6036	5.97425	3.96782
  94	1	2	0.084733	-7.55235	5.54434	3.62951
  95	1	2	0.073714	-6.34841	6.8446	3.35308
  96	1	1	0.037815	-4.6912	3.63333	5.44259
  97	1	2	0.048876	-8.03492	0.594258	7.00969
  98	1	1	-0.222978	-5.91161	3.25977	5.97968
  99	1	2	0.097895	-9.00422	2.00101	6.44558
 100	1	3	0.054231	-4.34615	5.17328	6.96498
 101	1	3	0.054231	-2.93912	4.78296	6.0491
 102	1	4	-0.159568	-4.01802	4.88907	5.96774
 103	1	3	0.073528	-4.19935	5.73808	5.32474
 104	1	6	0.703056	-6.85819	1.84312	5.32561
 105	1	2	0.084378	-8.8553	0.550246	5.42467
 106	1	4	-0.422828	-8.33683	1.19423	6.14395
 107	1	2	0.048873	-5.39049	0.0260457	5.05877
 108	1	2	0.084374	-6.9133	-0.201171	4.14791
 109	1	4	-0.422813	-6.12012	0.507793	4.41045
 110	1	2	0.097892	-5.6802	0.915528	3.49852
 111	1	2	0.084729	-6.81231	2.95951	3.22302
 112	1	4	-0.400138	-7.61131	2.60603	3.88236
 113	1	2	0.084733	-8.2237	1.85548	3.37003
 114	1	2	0.073714	-8.23373	3.44395	4.20203
 115	1	1	0.037815	-3.3706	1.66121	4.73585
 116	1	2	0.048876	-1.20252	3.95614	1.80327
 117	1	1	-0.222978	-3.93397	2.90979	4.54861
 118	1	2	0.097895	-1.01117	2.80042	3.15915
 119	1	3	0.054231	-2.08766	0.700341	3.24081
 120	1	3	0.054231	-3.59754	-0.171821	3.58366
 121	1	4	-0.159568	-3.14781	0.818086	3.48083
 122	1	3	0.073528	-3.6447	1.20872	2.59326
 123	1	6	0.703056	-3.17675	3.8178	3.14078
 124	1	2	0.084378	-1.94771	2.3395	1.68597
 125	1	4	-0.422828	-1.68324	3.15133	2.37097
 126	1	2	0.048873	-2.50735	5.91272	2.23935
 127	1	2	0.084374	-3.96292	6.09241	3.25113
 128	1	4	-0.422813	-2.98563	5.60937	3.1779
 129	1	2	0.097892	-2.33526	5.87859	4.01748
 130	1	2	0.084729	-5.29136	4.28502	2.11698
 131	1	4	-0.400138	-4.38628	3.7581	1.8049
 132	1	2	0.084733	-3.94744	4.26029	0.935094
 133	1	2	0.073714	-4.62646	2.72191	1.55373
 134	1	1	0.037815	-2.83932	1.74938	7.11701
 135	1	2	0.048876	-0.518524	-0.420198	7.60317
 136	1	1	-0.222978	-2.8622	1.12947	5.90533
 137	1	2	0.097895	-2.1036	-0.893679	8.32946
 138	1	3	0.054231	-4.83758	0.896654	7.27856
 139	1	3	0.054231	-4.59751	2.30619	8.27223
 140	1	4	-0.159568	-4.09816	1.41743	7.89681
 141	1	3	0.073528	-3.88881	0.738711	8.72913
 142	1	6	0.703056	-2.21364	-0.572019	5.99494
 143	1	2	0.084378	-1.11929	-2.10278	7.43312
 144	1	4	-0.422828	-1.40133	-1.04628	7.50411
 145	1	2	0.048873	-0.740047	-0.774739	4.09383
 146	1	2	0.084374	-0.954061	-2.31424	4.97539
 147	1	4	-0.422813	-1.46449	-1.42599	4.58589
 148	1	2	0.097892	-2.23768	-1.74509	3.88097
 149	1	2	0.084729	-3.31078	-2.64899	6.36396
 150	1	4	-0.400138	-3.65966	-1.63605	6.13317
 151	1	2	0.084733	-4.29777	-1.26933	6.94298
 152	1	2	0.073714	-4.19961	-1.64644	5.18241
 153	1	1	0.037815	-0.501659	2.48576	7.17027
 154	1	2	0.048876	-0.92835	4.35754	11.0564
 155	1	1	-0.222978	-1.68526	2.15171	7.78038
 156	1	2	0.097895	0.178631	3.01242	10.7438
 157	1	3	0.054231	-0.650335	4.45829	6.30721
 158	1	3	0.054231	0.107316	3.33595	5.19741
 159	1	4	-0.159568	-0.656643	3.41702	5.96509
 160	1	3	0.073528	-1.57677	3.27586	5.42947
 161	1	6	0.703056	-1.85932	2.89025	9.44386
 162	1	2	0.084378	0.00204041	4.35909	9.53781
 163	1	4	-0.422828	-0.497158	3.72305	10.273
 164	1	2	0.048873	-4.02766	2.3259	10.3637
 165	1	2	0.084374	-2.7591	1.10462	10.7656
 166	1	4	-0.422813	-2.98559	2.17111	10.6592
 167	1	2	0.097892	-2.80719	2.68314	11.6114
 168	1	2	0.084729	-3.71523	4.08082	8.61869
 169	1	4	-0.400138	-2.79583	4.37388	9.11065
 170	1	2	0.084733	-3.01298	4.87577	10.0603
 171	1	2	0.073714	-2.20111	5.02298	8.45847
 172	1	1	0.037815	1.81998	3.02763	7.16058
 173	1	2	0.048876	2.63602	-0.683667	9.12694
 174	1	1	-0.222978	0.768797	2.3349	7.69573
 175	1	2	0.097895	1.50081	-0.732231	7.75022
 176	1	3	0.054231	3.50385	3.91161	8.2377
 177	1	3	0.054231	2.2033	5.07408	7.87471
 178	1	4	-0.159568	2.42087	4.0401	8.13597
 179	1	3	0.073528	2.01443	3.96699	9.14194
 180	1	6	0.703056	1.21437	1.24276	9.094
 181	1	2	0.084378	2.91493	0.366545	7.697
 182	1	4	-0.422828	2.15886	-0.0896356	8.33896
 183	1	2	0.048873	-0.153984	0.940386	11.0396
 184	1	2	0.084374	-0.949458	0.298208	9.57436
 185	1	4	-0.422813	-0.00677345	0.386366	10.1066
 186	1	2	0.097892	0.389898	-0.60907	10.3364
 187	1	2	0.084729	2.34142	2.57688	10.7483
 188	1	4	-0.400138	2.6176	1.71756	10.1289
 189	1	2	0.084733	2.85963	0.869325	10.7788
 190	1	2	0.073714	3.47732	1.95049	9.49085
 191	1	1	0.037815	2.29949	1.82391	5.03875
 192	1	2	0.048876	4.90613	5.94923	5.46441
 193	1	1	-0.222978	2.42838	2.86058	5.93105
 194	1	2	0.097895	3.79727	5.9919	6.85815
 195	1	3	0.054231	1.30651	-0.0862146	4.56522
 196	1	3	0.054231	0.863672	0.511465	6.09263
 197	1	4	-0.159568	1.11219	0.847326	5.09395
 198	1	3	0.073528	0.210688	1.25803	4.63258
 199	1	6	0.703056	3.14087	4.36379	5.18703
 200	1	2	0.084378	4.98768	4.65075	6.69728
 201	1	4	-0.422828	4.32209	5.33487	6.15928
 202	1	2	0.048873	2.56563	4.41994	2.8744
 203	1	2	0.084374	4.07672	5.32116	3.21678
 204	1	4	-0.422813	3.51358	4.40397	3.42366
 205	1	2	0.097892	4.08197	3.53568	3.11764
 206	1	2	0.084729	1.33451	5.6708	6.1696
 207	1	4	-0.400138	1.83085	5.61065	5.20184
 208	1	2	0.084733	2.27926	6.5775	4.94615
 209	1	2	0.073714	1.09844	5.3363	4.43465
 210	1	1	0.037815	2.9762	0.864428	2.9764
 211	1	2	0.048876	5.64675	3.6784	4.87984
 212	1	1	-0.222978	3.30946	1.39244	4.20116
 213	1	2	0.097895	7.04725	2.6251	4.78526
 214	1	3	0.054231	2.14273	2.09831	1.39768
 215	1	3	0.054231	1.04869	0.81779	1.94832
 216	1	4	-0.159568	1.80238	1.54705	2.26441
 217	1	3	0.073528	1.28157	2.30668	2.85394
 218	1	6	0.703056	5.05274	1.33177	4.80578
 219	1	2	0.084378	6.09049	2.92703	3.31367
 220	1	4	-0.422828	6.03626	2.79213	4.39651
 221	1	2	0.048873	4.71104	2.24033	7.00195
 222	1	2	0.084374	4.88703	0.449439	7.01679
 223	1	4	-0.422813	5.25718	1.38652	6.59176
 224	1	2	0.097892	6.32639	1.48893	6.80712
 225	1	2	0.084729	5.80892	-0.257006	3.1221
 226	1	4	-0.400138	6.22944	0.197696	4.01458
 227	1	2	0.084733	7.12642	0.751385	3.71576
 228	1	2	0.073714	6.52198	-0.568539	4.73995
 229	1	1	0.037815	3.3883	-0.551891	1.04898
 230	1	2	0.048876	3.42676	-2.46525	5.80358
 231	1	1	-0.222978	3.44988	-0.292067	2.40933
 232	1	2	0.097895	4.76153	-1.31651	5.64154
 233	1	3	0.054231	3.52008	-1.99821	-0.606055
 234	1	3	0.054231	4.61182	-2.30679	0.684683
 235	1	4	-0.159568	3.59428	-1.95733	0.487011
 236	1	3	0.073528	2.8667	-2.6834	0.849941
 237	1	6	0.703056	3.6443	-1.7127	3.55634
 238	1	2	0.084378	3.06127	-0.728299	5.68914
 239	1	4	-0.422828	3.73002	-1.51575	5.348
 240	1	2	0.048873	1.83511	-3.05704	4.38156
 241	1	2	0.084374	1.27615	-1.82241	3.20589
 242	1	4	-0.422813	2.05223	-2.56192	3.42848
 243	1	2	0.097892	2.08561	-3.31739	2.6406
 244	1	2	0.084729	4.87126	-3.69537	4.00709
 245	1	4	-0.400138	4.73867	-3.07675	3.11219
 246	1	2	0.084733	4.29137	-3.68876	2.32379
 247	1	2	0.073714	5.70448	-2.66595	2.79683
 248	1	1	0.037815	4.16879	1.39361	-0.158563
 249	1	2	0.048876	2.41426	-1.10009	-2.89632
 250	1	1	-0.222978	3.31299	0.337739	0.0158951
 251	1	2	0.097895	0.94693	-0.108487	-3.14294
 252	1	3	0.054231	6.07749	2.26577	0.503434
 253	1	3	0.054231	5.75487	0.670286	1.16917
 254	1	4	-0.159568	5.2793	1.60916	0.870666
 255	1	3	0.073528	4.88249	2.08437	1.76342
 256	1	6	0.703056	1.79573	0.106773	-0.945791
 257	1	2	0.084378	2.54423	0.689194	-3.11704
 258	1	4	-0.422828	1.95311	-0.124194	-2.71017
 259	1	2	0.048873	-0.30052	-1.02269	-0.821951
 260	1	2	0.084374	1.08006	-2.14811	-0.605667
 261	1	4	-0.422813	0.673839	-1.16615	-0.341214
 262	1	2	0.097892	0.580009	-1.06671	0.74561
 263	1	2	0.084729	1.61644	2.48089	-1.20031
 264	1	4	-0.400138	0.907614	1.67264	-1.01639
 265	1	2	0.084733	0.162602	1.62014	-1.81778
 266	1	2	0.073714	0.401705	1.83378	-0.0596853
 267	1	1	0.037815	4.37918	3.45336	-1.32144
 268	1	2	0.048876	5.73309	2.35524	-4.50059
 269	1	1	-0.222978	4.34769	2.07224	-1.33252
 270	1	2	0.097895	6.93971	2.85662	-3.26147
 271	1	3	0.054231	3.53752	5.15995	-0.197708
 272	1	3	0.054231	2.89017	3.65091	0.253612
 273	1	4	-0.159568	3.82208	4.11994	-0.0585396
 274	1	3	0.073528	4.5148	4.09458	0.784546
 275	1	6	0.703056	5.5067	1.18412	-2.4381
 276	1	2	0.084378	7.14432	1.31995	-4.13314
 277	1	4	-0.422828	6.41426	2.02504	-3.71969
 278	1	2	0.048873	7.45802	-0.163902	-2.12622
 279	1	2	0.084374	7.35781	1.14772	-0.916933
 280	1	4	-0.422813	6.78739	0.381599	-1.45202
 281	1	2	0.097892	6.31434	-0.321599	-0.758242
 282	1	2	0.084729	4.25348	-0.188226	-3.93051
 283	1	4	-0.400138	4.95939	-0.382713	-3.11923
 284	1	2	0.084733	5.83484	-0.893868	-3.5359
 285	1	2	0.073714	4.5194	-0.988038	-2.32332
 286	1	1	0.037815	4.01382	4.26604	-3.60505
 287	1	2	0.048876	5.37436	7.89146	-2.76515
 288	1	1	-0.222978	4.57706	4.35505	-2.3438
 289	1	2	0.097895	7.09496	7.42868	-2.81345
 290	1	3	0.054231	2.3998	3.2977	-4.7344
 291	1	3	0.054231	3.66385	2.20945	-4.15734
 292	1	4	-0.159568	3.09675	3.09956	-3.91294
 293	1	3	0.073528	2.45519	2.87588	-3.06195
 294	1	6	0.703056	5.74832	5.70303	-1.90636
 295	1	2	0.084378	5.97651	6.77289	-4.04947
 296	1	4	-0.422828	6.07266	7.08508	-3.00829
 297	1	2	0.048873	6.7323	6.97844	-0.142263
 298	1	2	0.084374	4.98864	6.73034	0.142391
 299	1	4	-0.422813	5.91446	6.24997	-0.188598
 300	1	2	0.097892	6.16463	5.39321	0.445119
 301	1	2	0.084729	7.25571	3.96035	-1.25165
 302	1	4	-0.400138	7.35559	4.89133	-1.8205
 303	1	2	0.084733	7.71888	4.69971	-2.83257
 304	1	2	0.073714	8.06342	5.56336	-1.32139
 305	1	1	0.037815	3.79223	5.20377	-5.85962
 306	1	2	0.048876	1.12675	6.93206	-5.31609
 307	1	1	-0.222978	3.8683	5.31274	-4.48208
 308	1	2	0.097895	1.08329	5.42059	-4.34495
 309	1	3	0.054231	4.32301	7.25623	-6.38296
 310	1	3	0.054231	3.88674	6.3061	-7.75905
 311	1	4	-0.159568	3.63115	6.47267	-6.70624
 312	1	3	0.073528	2.61161	6.86036	-6.72307
 313	1	6	0.703056	2.98242	6.74576	-3.7632
 314	1	2	0.084378	0.608919	6.98667	-3.61364
 315	1	4	-0.422828	1.2825	6.49759	-4.32603
 316	1	2	0.048873	3.57123	7.1048	-1.45824
 317	1	2	0.084374	1.918	7.6226	-1.84262
 318	1	4	-0.422813	2.66556	6.83736	-2.00142
 319	1	2	0.097892	2.24914	5.87448	-1.68926
 320	1	2	0.084729	4.2869	8.62946	-4.49155
 321	1	4	-0.400138	3.21545	8.42094	-4.40676
 322	1	2	0.084733	2.72201	8.53816	-5.37493
 323	1	2	0.073714	2.75894	9.11514	-3.69231
 324	1	1	0.037815	3.30041	3.66542	-7.64013
 325	1	2	0.048876	5.7336	4.97306	-8.88614
 326	1	1	-0.222978	4.1136	4.09598	-6.59896
 327	1	2	0.097895	6.1093	6.18478	-7.61869
 328	1	3	0.054231	1.94976	5.28084	-8.31539
 329	1	3	0.054231	1.16125	3.72108	-8.19847
 330	1	4	-0.159568	1.92445	4.35242	-7.73982
 331	1	3	0.073528	1.51013	4.5945	-6.7533
 332	1	6	0.703056	5.9085	3.97121	-6.72517
 333	1	2	0.084378	7.39215	5.09957	-8.22119
 334	1	4	-0.422828	6.32341	5.18078	-7.99467
 335	1	2	0.048873	7.89825	4.19066	-5.44022
 336	1	2	0.084374	7.03784	5.7572	-5.62149
 337	1	4	-0.422813	6.92031	4.6856	-5.43196
 338	1	2	0.097892	6.41666	4.52514	-4.48433
 339	1	2	0.084729	6.17249	2.49181	-8.47027
 340	1	4	-0.400138	6.71597	2.62756	-7.54246
 341	1	2	0.084733	7.75237	2.91884	-7.74566
 342	1	2	0.073714	6.70383	1.75992	-6.88885
 343	1	1	0.037815	3.49982	1.22623	-8.02723
 344	1	2	0.048876	4.51627	4.63049	-10.4518
 345	1	1	-0.222978	3.33228	2.53551	-8.44002
 346	1	2	0.097895	5.34431	3.03552	-10.5056
 347	1	3	0.054231	3.77529	-0.126944	-6.34459
 348	1	3	0.054231	4.69518	1.37927	-6.21557
 349	1	4	-0.159568	3.76039	0.946386	-6.56284
 350	1	3	0.073528	2.9884	1.37617	-5.94025
 351	1	6	0.703056	2.97417	2.8146	-10.2161
 352	1	2	0.084378	4.42233	3.62359	-11.9245
 353	1	4	-0.422828	4.47023	3.60538	-10.8298
 354	1	2	0.048873	3.63143	0.728608	-11.1981
 355	1	2	0.084374	1.84337	0.962706	-11.23
 356	1	4	-0.422813	2.81559	1.43853	-11.3671
 357	1	2	0.097892	2.88381	1.84506	-12.3822
 358	1	2	0.084729	0.928865	4.09256	-10.3828
 359	1	4	-0.400138	1.95216	4.2108	-10.7506
 360	1	2	0.084733	2.39113	5.14559	-10.3865
 361	1	2	0.073714	1.94694	4.22206	-11.8464
 362	1	1	0.037815	3.09307	-0.986611	-9.16461
 363	1	2	0.048876	0.605112	-1.85132	-7.30299
 364	1	1	-0.222978	2.74625	0.256728	-8.64355
 365	1	2	0.097895	-0.870588	-0.845706	-7.25468
 366	1	3	0.054231	2.31183	-2.00031	-10.9669
 367	1	3	0.054231	1.53873	-2.56437	-9.50739
 368	1	4	-0.159568	1.97101	-1.67917	-9.98214
 369	1	3	0.073528	1.16317	-1.01809	-10.2839
 370	1	6	0.703056	0.981192	0.385963	-8.08519
 371	1	2	0.084378	-0.33612	-1.51531	-8.81267
 372	1	4	-0.422828	0.00605712	-1.11858	-7.85249
 373	1	2	0.048873	0.856176	0.774092	-5.7406
 374	1	2	0.084374	1.15954	2.29644	-6.61978
 375	1	4	-0.422813	0.598636	1.36932	-6.62459
 376	1	2	0.097892	-0.477068	1.57586	-6.62184
 377	1	2	0.084729	0.394985	2.22441	-9.51332
 378	1	4	-0.400138	-0.0227746	1.2401	-9.31933
 379	1	2	0.084733	-0.0713914	0.657931	-10.243
 380	1	2	0.073714	-1.03387	1.34842	-8.9107
 381	1	1	0.037815	4.33785	-2.92317	-9.79824
 382	1	2	0.048876	5.94112	-0.0307092	-6.90145
 383	1	1	-0.222978	4.2921	-1.68659	-9.23029
 384	1	2	0.097895	6.06612	-1.78517	-6.76032
 385	1	3	0.054231	3.89001	-3.24146	-11.9376
 386	1	3	0.054231	5.61865	-3.32962	-11.5363
 387	1	4	-0.159568	4.67266	-2.83832	-11.2939
 388	1	3	0.073528	4.78993	-1.79715	-11.623
 389	1	6	0.703056	5.96505	-1.09161	-9.03601
 390	1	2	0.084378	7.49658	-0.804486	-7.24079
 391	1	4	-0.422828	6.40782	-0.904602	-7.30935
 392	1	2	0.048873	7.31817	-2.05191	-10.7571
 393	1	2	0.084374	8.20422	-1.89353	-9.20709
 394	1	4	-0.422813	7.25329	-2.1778	-9.67085
 395	1	2	0.097892	7.00213	-3.20695	-9.42215
 396	1	2	0.084729	7.15555	0.885415	-9.56378
 397	1	4	-0.400138	6.19217	0.463705	-9.86932
 398	1	2	0.084733	6.1937	0.265515	-10.9465
 399	1	2	0.073714	5.35657	1.10986	-9.62626
 400	1	1	0.037815	4.17333	-4.30249	-7.75289
 401	1	2	0.048876	4.90102	-7.58159	-8.90506
 402	1	1	-0.222978	4.36053	-4.12548	-9.10834
 403	1	2	0.097895	3.18698	-7.0868	-8.58094
 404	1	3	0.054231	2.41967	-3.02575	-7.69375
 405	1	3	0.054231	3.79701	-2.38444	-6.76917
 406	1	4	-0.159568	3.2565	-3.28986	-7.05938
 407	1	3	0.073528	2.76094	-3.6489	-6.16434
 408	1	6	0.703056	4.21186	-5.62514	-10.1106
 409	1	2	0.084378	3.64871	-7.85172	-10.1323
 410	1	4	-0.422828	3.97759	-7.19604	-9.329
 411	1	2	0.048873	1.87395	-5.14586	-10.0486
 412	1	2	0.084374	2.5612	-4.75091	-11.6581
 413	1	4	-0.422813	2.56517	-5.46738	-10.8363
 414	1	2	0.097892	2.26458	-6.45065	-11.2145
 415	1	2	0.084729	5.06201	-6.89039	-11.9345
 416	1	4	-0.400138	5.13801	-5.83541	-11.6486
 417	1	2	0.084733	4.71064	-5.21767	-12.4431
 418	1	2	0.073714	6.18837	-5.57888	-11.4757
 419	1	1	0.037815	4.26532	-5.51033	-5.68437
 420	1	2	0.048876	6.7539	-6.66438	-4.99218
 421	1	1	-0.222978	4.63756	-5.36901	-6.99598
 422	1	2	0.097895	6.7704	-7.98372	-6.21803
 423	1	3	0.054231	4.07921	-3.75777	-4.36964
 424	1	3	0.054231	5.47889	-4.8016	-3.98291
 425	1	4	-0.159568	4.84369	-4.41135	-4.78247
 426	1	3	0.073528	5.45374	-3.69629	-5.33563
 427	1	6	0.703056	6.40438	-5.81282	-7.20594
 428	1	2	0.084378	8.18057	-6.90402	-6.05355
 429	1	4	-0.422828	7.08813	-6.96234	-5.99278
 430	1	2	0.048873	6.74161	-7.01832	-9.28142
 431	1	2	0.084374	6.92111	-5.23496	-9.47585
 432	1	4	-0.422813	7.11981	-6.09525	-8.83744
 433	1	2	0.097892	8.20205	-6.20209	-8.70249
 434	1	2	0.084729	8.41653	-4.52754	-7.22653
 435	1	4	-0.400138	7.39935	-4.35708	-6.85743
 436	1	2	0.084733	6.94829	-3.51305	-7.37073
 437	1	2	0.073714	7.43802	-4.18888	-5.77678
 438	1	1	0.037815	2.87296	-7.54073	-5.84767
 439	1	2	0.048876	5.05729	-6.41753	-2.75789
 440	1	1	-0.222978	3.28557	-6.38175	-5.22411
 441	1	2	0.097895	3.9029	-6.94926	-1.49713
 442	1	3	0.054231	4.79384	-7.85563	-6.81932
 443	1	3	0.054231	3.63123	-9.00788	-7.28255
 444	1	4	-0.159568	3.96363	-8.41192	-6.4334
 445	1	3	0.073528	4.37112	-9.06022	-5.659
 446	1	6	0.703056	2.7561	-6.25498	-3.46506
 447	1	2	0.084378	4.25884	-8.01572	-2.89857
 448	1	4	-0.422828	4.1401	-6.97822	-2.56641
 449	1	2	0.048873	3.68643	-4.31976	-2.35963
 450	1	2	0.084374	2.15152	-3.94555	-3.24626
 451	1	4	-0.422813	2.67733	-4.66519	-2.60848
 452	1	2	0.097892	2.11315	-4.81459	-1.68162
 453	1	2	0.084729	1.76866	-8.31106	-2.80323
 454	1	4	-0.400138	1.44881	-7.27972	-2.76433
 455	1	2	0.084733	1.34471	-6.99752	-1.71102
 456	1	2	0.073714	0.49297	-7.13604	-3.26594
 457	1	1	0.037815	1.16079	-9.34633	-5.97783
 458	1	2	0.048876	-1.82082	-7.67705	-5.04142
 459	1	1	-0.222978	1.59946	-8.05141	-5.75888
 460	1	2	0.097895	-2.04812	-6.3641	-6.23788
 461	1	3	0.054231	-0.0133366	-10.8008	-4.80692
 462	1	3	0.054231	-0.204063	-9.15634	-4.26378
 463	1	4	-0.159568	-0.0788703	-9.76755	-5.16509
 464	1	3	0.073528	-1.01469	-9.73352	-5.72087
 465	1	6	0.703056	0.257724	-6.8083	-5.87641
 466	1	2	0.084378	-1.59551	-7.99291	-6.81397
 467	1	4	-0.422828	-1.4794	-7.2695	-5.9997
 468	1	2	0.048873	1.33554	-4.74729	-5.2782
 469	1	2	0.084374	-0.390861	-4.53482	-5.64663
 470	1	4	-0.422813	0.345576	-5.16766	-5.13828
 471	1	2	0.097892	0.0878874	-5.22759	-4.07677
 472	1	2	0.084729	0.58292	-7.04331	-8.22954
 473	1	4	-0.400138	0.57759	-6.19408	-7.53843
 474	1	2	0.084733	-0.214346	-5.48785	-7.81129
 475	1	2	0.073714	1.552	-5.6934	-7.54856
 476	1	1	0.037815	1.24394	-11.0566	-7.57703
 477	1	2	0.048876	4.62492	-12.6895	-4.83105
 478	1	1	-0.222978	1.83809	-10.4209	-6.4978
 479	1	2	0.097895	4.56646	-12.0479	-6.49019
 480	1	3	0.054231	0.0545152	-9.30931	-8.20927
 481	1	3	0.054231	-0.210721	-10.6859	-9.20568
 482	1	4	-0.159568	-0.0205038	-10.402	-8.17135
 483	1	3	0.073528	-0.923823	-10.6433	-7.609
 484	1	6	0.703056	2.60426	-11.5072	-5.25086
 485	1	2	0.084378	4.93473	-10.9607	-5.12861
 486	1	4	-0.422828	4.35949	-11.8295	-5.45641
 487	1	2	0.048873	3.54425	-10.7902	-3.17231
 488	1	2	0.084374	1.98967	-9.99214	-3.57445
 489	1	4	-0.422813	2.52884	-10.9253	-3.56192
 490	1	2	0.097892	1.98254	-11.6659	-2.96725
 491	1	2	0.084729	2.35406	-13.7076	-4.3825
 492	1	4	-0.400138	1.90127	-13.1681	-5.222
 493	1	2	0.084733	0.819074	-13.085	-5.07692
 494	1	2	0.073714	2.11842	-13.6956	-6.14388
 495	1	1	0.037815	3.00254	-12.5153	-8.39857
 496	1	2	0.048876	-1.83973	-14.1021	-8.28201
 497	1	1	-0.222978	1.67995	-12.2156	-8.18354
 498	1	2	0.097895	-1.21996	-12.9717	-7.03059
 499	1	3	0.054231	4.273	-14.0141	-7.49389
 500	1	3	0.054231	2.79057	-14.6546	-7.88701
 501	1	4	-0.159568	3.51091	-13.9451	-8.26892
 502	1	3	0.073528	3.9145	-14.3292	-9.2143
 503	1	6	0.703056	0.385094	-13.3826	-8.74739
 504	1	2	0.084378	-1.77998	-12.3535	-8.63656
 505	1	4	-0.422828	-1.28543	-13.1733	-8.10583
 506	1	2	0.048873	-0.189771	-12.1087	-10.7188
 507	1	2	0.084374	1.19348	-13.2247	-10.9897
 508	1	4	-0.422813	0.209322	-13.1072	-10.522
 509	1	2	0.097892	-0.487255	-13.8558	-10.916
 510	1	2	0.084729	-0.184296	-15.6006	-9.39436
 511	1	4	-0.400138	0.702625	-15.1484	-8.93624
 512	1	2	0.084733	1.56778	-15.2975	-9.59153
 513	1	2	0.073714	0.862005	-15.5888	-7.94537
 514	1	1	0.037815	3.62764	-10.4667	-9.52067
 515	1	2	0.048876	6.33974	-13.1704	-6.96557
 516	1	1	-0.222978	3.91938	-11.6014	-8.8487
 517	1	2	0.097895	6.22851	-14.1723	-8.46791
 518	1	3	0.054231	2.59561	-9.60297	-11.191
 519	1	3	0.054231	1.66798	-10.8458	-10.3982
 520	1	4	-0.159568	2.35487	-10.0229	-10.2068
 521	1	3	0.073528	1.86027	-9.22319	-9.64624
 522	1	6	0.703056	5.71058	-11.8661	-8.88772
 523	1	2	0.084378	7.62636	-13.092	-8.20615
 524	1	4	-0.422828	6.5507	-13.2181	-8.03917
 525	1	2	0.048873	5.72765	-11.2688	-11.2122
 526	1	2	0.084374	7.20207	-12.1752	-10.7217
 527	1	4	-0.422813	6.11238	-12.1105	-10.6251
 528	1	2	0.097892	5.646	-13.0459	-10.9532
 529	1	2	0.084729	6.1562	-9.78177	-7.8214
 530	1	4	-0.400138	6.62361	-10.3298	-8.64624
 531	1	2	0.084733	7.65962	-10.5823	-8.39537
 532	1	2	0.073714	6.59507	-9.73521	-9.56655
 533	1	7	0	-14.1821	4.94946	11.6021
 534	1	5	0	4.44704	-9.85854	-9.88453

Velocities

   1	-6.91877e-05	-6.996e-05	0.000321707
   2	0.000581626	-0.000987425	0.000504794
   3	9.79931e-05	-0.000151306	0.000215855
   4	-0.00112567	-0.000932019	0.000597603
   5	0.000510104	0.000140332	0.00179268
   6	0.000736575	0.00120474	0.00066105
   7	0.000452054	0.000622353	0.00118626
   8	0.000551601	0.00102463	0.00152226
   9	-8.79106e-05	0.000264786	0.00086842
  10	-0.000198943	-0.000419044	0.000663531
  11	-0.000161348	-0.000486347	0.000606481
  12	0.00110797	0.00275821	-0.000535913
  13	0.000521495	0.000813119	-0.000369827
  14	0.000686255	0.00100669	-0.000489063
  15	0.000776315	0.000548062	-0.00174613
  16	0.000454348	0.00117967	0.00141116
  17	-7.68129e-05	0.00145106	0.000919392
  18	3.67552e-05	0.00271267	0.00109999
  19	-0.000884699	0.00147244	-5.44643e-05
  20	-0.000321167	-2.71659e-05	-4.93199e-05
  21	-0.00042968	-0.000954327	0.000232589
  22	6.38496e-05	-0.000202688	-6.85891e-05
  23	-0.000210609	-0.00119461	-1.6288e-06
  24	-0.00111344	-0.000593519	-0.0019598
  25	0.0005692	7.67297e-06	-0.0011337
  26	-0.000401985	-0.000145318	-0.000741494
  27	-0.0011051	-0.000157524	6.33017e-05
  28	-0.000740068	-0.000763459	-0.000162983
  29	-0.000406209	-0.000962937	0.000517861
  30	-0.000436984	-0.00105637	0.000212917
  31	-0.000898539	-0.000363185	-0.00072564
  32	-0.001032	-0.000750802	-0.000629101
  33	-0.00102211	-0.000694492	-0.000518833
  34	-0.00130411	-0.00113082	-0.000624534
  35	0.000201142	-0.00188345	-0.00031388
  36	-0.000581474	-0.00166078	-0.000195944
  37	-0.00113535	-0.00234204	-0.000247014
  38	-0.00074789	-0.00131612	-0.000275135
  39	-0.000285065	0.00043237	0.000266774
  40	-0.000535237	-0.00113817	5.37877e-05
  41	5.62953e-06	7.11852e-05	-0.000314425
  42	-0.000376231	-0.000503311	-4.38291e-05
  43	0.000111357	5.23067e-05	0.000335817
  44	0.000376781	0.000362801	0.000265027
  45	0.000210018	0.000203305	0.000137887
  46	0.000399726	0.000366645	0.000300748
  47	-0.000334284	6.32447e-05	-0.000125831
  48	-0.00120061	-0.000450011	0.000298711
  49	-0.000643538	-0.00052355	4.82668e-05
  50	-0.00011662	0.000101811	-4.01303e-05
  51	-0.00043902	0.000222542	-0.000223389
  52	-0.000274392	0.000107955	-0.000194233
  53	-0.000369431	-0.000110217	-0.000266875
  54	0.000566235	-0.000452049	0.000764544
  55	0.000300132	-4.46787e-05	0.000246293
  56	0.00071217	0.000186479	-1.62554e-05
  57	-2.82733e-05	-0.000147917	0.000313311
  58	-0.000273602	0.000329466	0.000368694
  59	0.000194036	-0.000232203	-2.50149e-05
  60	0.00023996	0.000272427	-0.000478566
  61	-1.25507e-05	1.25637e-05	0.000395537
  62	1.73198e-05	0.000110383	2.20082e-05
  63	-0.000208727	6.5662e-05	0.00055458
  64	-4.77598e-05	-5.60621e-05	0.000126135
  65	-0.000376786	-0.000392925	2.32061e-05
  66	-2.33283e-05	0.000377382	-0.000149989
  67	8.49687e-05	-3.82726e-05	0.000103799
  68	6.22641e-05	-5.21119e-06	7.96164e-05
  69	-0.000156345	-0.000318535	-0.000754211
  70	-0.00119438	-0.000455168	-0.000288516
  71	-0.000478644	-2.06597e-05	-0.000308563
  72	-0.000643884	0.000442129	0.000115288
  73	-0.000827528	0.00158879	0.00014341
  74	-0.000211904	0.000694446	-0.000141047
  75	-0.000634092	0.000263218	-0.000648282
  76	0.000453561	0.000703391	0.000257824
  77	9.92089e-05	0.000703805	0.000264306
  78	-0.00010708	-0.000190693	0.0012795
  79	0.000318716	-0.000356356	-0.000335715
  80	0.00111736	-0.000319911	0.000321329
  81	0.000479783	8.30368e-05	-0.000292391
  82	0.000551027	-6.15452e-05	-0.000101361
  83	0.000514091	-1.72921e-05	-0.00019232
  84	0.000479159	1.34281e-05	-0.000146097
  85	0.000183154	0.00025128	0.000168885
  86	-6.58189e-05	0.000485179	-4.57371e-05
  87	0.000282532	5.60471e-05	0.000428495
  88	0.000171626	0.000202391	0.000160834
  89	0.000206014	6.71751e-05	-0.00010756
  90	0.000111891	0.00013098	4.72013e-05
  91	-8.29499e-05	3.8696e-05	5.30571e-05
  92	0.000290049	7.20893e-05	0.000310858
  93	0.000476512	0.000245592	0.000163223
  94	0.000506385	0.00046867	-6.52511e-05
  95	0.000844863	0.000210976	0.000248069
  96	7.20243e-05	0.000449214	0.000286022
  97	0.000901281	-0.00022964	-0.00045627
  98	0.000850443	3.27414e-05	-0.000565053
  99	0.000695611	-0.000123352	5.75844e-05
 100	0.000472765	8.27944e-05	0.000102898
 101	0.000478798	0.000401049	-5.93903e-05
 102	0.000498234	0.000259082	-6.52212e-06
 103	0.000399319	0.000401504	0.000206186
 104	0.000471992	0.000246704	-0.000253233
 105	0.000635595	0.000129194	-0.000317526
 106	0.00068767	-2.28407e-05	-0.000247392
 107	0.000420259	0.000166883	-0.000432976
 108	0.000341186	0.000269997	-0.000274344
 109	0.000430761	0.000207052	-0.000390299
 110	0.000341583	0.00016353	-0.000449702
 111	3.05437e-05	0.000134701	-0.000378698
 112	0.00018374	0.000208023	-0.000145854
 113	4.2772e-05	0.000193522	4.98815e-05
 114	0.000275926	0.000237844	2.60524e-06
 115	0.00031216	0.000515988	-6.98174e-05
 116	-0.00079989	0.000798926	-0.00119266
 117	0.000647553	7.34725e-05	-0.000307633
 118	0.0002278	0.00128741	-0.000862896
 119	0.000484401	0.000562178	-0.000197731
 120	0.000507085	0.000418928	-0.000277896
 121	0.000475687	0.000382751	-0.000210658
 122	0.000405142	0.000410391	-0.000137118
 123	-0.000236793	0.000430455	-0.000356782
 124	-0.000140683	0.000418791	-0.000390742
 125	-0.000218701	0.000721688	-0.000710752
 126	-0.00120433	0.000594048	-0.000780269
 127	-0.000665816	0.00024658	2.42241e-05