pySIMM System Object

933 atoms
932 bonds
1764 angles
2299 dihedrals
0 impropers

7 atom types
8 bond types
13 angle types
5 dihedral types

-132.317380 132.317380 xlo xhi
-132.317380 132.317380 ylo yhi
-132.317380 132.317380 zlo zhi

Masses

   1	12.01	# c2
   2	1.008	# h1
   3	1.008	# hc
   4	12.01	# c3
   5	1.008	# ha
   6	32.06	# s6
   7	1.008	# h4

Pair Coeffs

   1	0.086	3.3996695084235347	# c2
   2	0.0157	2.471353044121301	# h1
   3	0.0157	2.649532787749369	# hc
   4	0.1094	3.3996695084235347	# c3
   5	0.015	2.59964245953351	# ha
   6	0.25	3.563594872561357	# s6
   7	0.015	2.5105525877194763	# h4

Bond Coeffs

   1	233.5	1.8075	# c3,s6
   2	569.4	1.3343	# c2,c2
   3	326.8	1.5095	# c2,c3
   4	263.2	1.76	# c2,s6
   5	330.6	1.0969	# c3,hc
   6	343.1	1.0879	# c2,ha
   7	344.6	1.0868	# c2,h4
   8	330.6	1.0969	# c3,h1

Angle Coeffs

   1	46.99	110.36	# c2,c3,hc
   2	39.4	107.58	# hc,c3,hc
   3	59.92	103.83	# c3,s6,c3
   4	60.63	104.05	# c2,s6,c3
   5	39.24	108.46	# h1,c3,h1
   6	42.79	115.45	# h4,c2,s6
   7	64.06	123.63	# c2,c2,c3
   8	62.73	120.01	# c2,c2,s6
   9	49.4	122.67	# c2,c2,h4
  10	49.85	120.43	# c2,c2,ha
  11	43.19	107.15	# h1,c3,s6
  12	45.94	115.68	# c3,c2,ha
  13	69.3	121.81	# c2,c2,c2

Dihedral Coeffs

   1	1	0.0	2	0	# X,c2,c3,X
   2	1	6.65	2	180	# X,c2,c2,X
   3	3	0.38	3	180	0.0	2	0	1.15	1	0	# hc,c3,c2,c2
   4	1	6.6499999999999995	2	180	# X,c2,s6,X
   5	1	0.14444444444444446	3	0	# X,c3,s6,X

Atoms

   1	1	1	0.037815	14.9599	-11.7696	-22.0465
   2	1	2	0.048876	18.3836	-15.5914	-22.1734
   3	1	1	-0.222978	16.1096	-12.4642	-22.1888
   4	1	2	0.097895	18.6589	-13.9895	-22.9529
   5	1	3	0.054231	13.4183	-12.8753	-20.9404
   6	1	3	0.054231	12.8408	-12.1096	-22.4572
   7	1	4	-0.159568	13.6845	-12.6072	-21.9695
   8	1	3	0.073528	13.7635	-13.5386	-22.5258
   9	1	6	0.703056	16.4362	-14.2081	-22.1588
  10	1	2	0.084378	18.5913	-14.1132	-21.1601
  11	1	4	-0.422828	18.2033	-14.5128	-22.1039
  12	1	2	0.048873	15.7117	-14.7239	-19.9451
  13	1	2	0.084374	14.4384	-15.1081	-21.1603
  14	1	4	-0.422813	15.5075	-15.147	-20.9357
  15	1	2	0.097892	15.8593	-16.1842	-20.9803
  16	1	2	0.084729	16.1894	-15.9695	-23.736
  17	1	4	-0.400138	15.8373	-14.9327	-23.6942
  18	1	2	0.084733	14.745	-14.9133	-23.722
  19	1	2	0.073714	16.2519	-14.3574	-24.5295
  20	1	1	0.037815	13.8811	-9.62247	-21.6805
  21	1	2	0.048876	18.1184	-11.0568	-23.6621
  22	1	1	-0.222978	14.943	-10.3901	-22.1219
  23	1	2	0.097895	16.6338	-10.9618	-24.6781
  24	1	3	0.054231	12.3679	-9.44139	-20.0417
  25	1	3	0.054231	11.9848	-10.6149	-21.2282
  26	1	4	-0.159568	12.833	-10.1738	-20.6941
  27	1	3	0.073528	13.2535	-10.9226	-20.0167
  28	1	6	0.703056	16.4536	-9.53776	-22.7558
  29	1	2	0.084378	17.8416	-9.63145	-24.6913
  30	1	4	-0.422828	17.3514	-10.3939	-24.0761
  31	1	2	0.048873	16.1639	-7.69818	-24.2589
  32	1	2	0.084374	15.8176	-7.18363	-22.5763
  33	1	4	-0.422813	16.4682	-7.78482	-23.2111
  34	1	2	0.097892	17.5009	-7.43103	-23.1161
  35	1	2	0.084729	17.9645	-10.6396	-21.194
  36	1	4	-0.400138	17.7316	-9.60945	-21.4699
  37	1	2	0.084733	18.6327	-9.12684	-21.8638
  38	1	2	0.073714	17.3918	-9.07955	-20.5799
  39	1	1	0.037815	13.189	-7.3131	-21.3106
  40	1	2	0.048876	11.3842	-8.60029	-25.0937
  41	1	1	-0.222978	13.6882	-8.33981	-22.0852
  42	1	2	0.097895	11.4911	-9.64785	-23.6382
  43	1	3	0.054231	11.8459	-6.15335	-22.6263
  44	1	3	0.054231	12.5224	-5.20775	-21.3303
  45	1	4	-0.159568	12.7437	-6.02786	-22.0165
  46	1	3	0.073528	13.5597	-5.61949	-22.6191
  47	1	6	0.703056	13.4336	-8.30108	-23.8998
  48	1	2	0.084378	11.0961	-7.91077	-23.4623
  49	1	4	-0.422828	11.6689	-8.64267	-24.0358
  50	1	2	0.048873	13.8404	-10.6189	-24.4268
  51	1	2	0.084374	13.4296	-9.63699	-25.862
  52	1	4	-0.422813	14.0089	-9.66239	-24.9321
  53	1	2	0.097892	15.0627	-9.50745	-25.1715
  54	1	2	0.084729	13.514	-7.04356	-25.9154
  55	1	4	-0.400138	13.5232	-6.76931	-24.8546
  56	1	2	0.084733	12.6559	-6.13713	-24.6445
  57	1	2	0.073714	14.4588	-6.25199	-24.6155
  58	1	1	0.037815	12.0379	-6.68644	-19.3479
  59	1	2	0.048876	14.6303	-6.05985	-17.0052
  60	1	1	-0.222978	13.1747	-7.1855	-19.9372
  61	1	2	0.097895	13.9086	-7.66955	-16.6901
  62	1	3	0.054231	9.85676	-7.00207	-19.372
  63	1	3	0.054231	10.4256	-5.91633	-20.613
  64	1	4	-0.159568	10.6848	-6.83008	-20.0656
  65	1	3	0.073528	10.67	-7.66869	-20.7729
  66	1	6	0.703056	14.6533	-7.53165	-18.9253
  67	1	2	0.084378	15.6765	-7.47884	-16.7908
  68	1	4	-0.422828	14.7138	-7.12948	-17.1802
  69	1	2	0.048873	16.9862	-7.09553	-19.081
  70	1	2	0.084374	16.2281	-7.40516	-20.6701
  71	1	4	-0.422813	16.1208	-6.89377	-19.7227
  72	1	2	0.097892	16.0052	-5.81804	-19.8831
  73	1	2	0.084729	15.998	-9.32108	-18.148
  74	1	4	-0.400138	15.144	-9.25717	-18.8312
  75	1	2	0.084733	14.3122	-9.83789	-18.4223
  76	1	2	0.073714	15.4552	-9.62386	-19.8033
  77	1	1	0.037815	11.3275	-7.01496	-17.0987
  78	1	2	0.048876	10.5854	-3.82697	-19.0785
  79	1	1	-0.222978	11.936	-6.24438	-18.0702
  80	1	2	0.097895	11.6758	-2.46844	-18.6308
  81	1	3	0.054231	10.8546	-9.13196	-16.6326
  82	1	3	0.054231	10.7068	-8.75431	-18.2966
  83	1	4	-0.159568	11.3054	-8.52104	-17.4115
  84	1	3	0.073528	12.308	-8.91758	-17.5946
  85	1	6	0.703056	12.576	-4.55908	-17.8992
  86	1	2	0.084378	12.0567	-3.5265	-20.02
  87	1	4	-0.422828	11.6236	-3.49281	-19.0161
  88	1	2	0.048873	14.1773	-3.10984	-18.9195
  89	1	2	0.084374	14.9576	-4.57562	-18.2948
  90	1	4	-0.422813	14.084	-4.1989	-18.8311
  91	1	2	0.097892	14.019	-4.6436	-19.8264
  92	1	2	0.084729	11.8569	-4.03672	-15.6896
  93	1	4	-0.400138	12.7376	-3.81013	-16.2806
  94	1	2	0.084733	13.6307	-4.2227	-15.8003
  95	1	2	0.073714	12.8509	-2.72796	-16.41
  96	1	1	0.037815	9.92176	-5.58059	-15.7025
  97	1	2	0.048876	11.6424	-9.8844	-14.7519
  98	1	1	-0.222978	10.7991	-6.63326	-15.8801
  99	1	2	0.097895	13.0749	-9.05975	-15.471
 100	1	3	0.054231	9.50183	-5.33542	-17.8304
 101	1	3	0.054231	8.4219	-4.44351	-16.8015
 102	1	4	-0.159568	9.45791	-4.77134	-16.9001
 103	1	3	0.073528	10.0468	-3.87349	-17.0361
 104	1	6	0.703056	11.5291	-7.508	-14.4471
 105	1	2	0.084378	12.9509	-9.26752	-13.704
 106	1	4	-0.422828	12.3863	-9.0893	-14.6259
 107	1	2	0.048873	10.0906	-7.91546	-12.5933
 108	1	2	0.084374	11.7976	-7.77445	-12.1145
 109	1	4	-0.422813	11.0082	-7.34975	-12.7444
 110	1	2	0.097892	10.8965	-6.28828	-12.5129
 111	1	2	0.084729	12.6638	-5.51809	-13.7997
 112	1	4	-0.400138	12.9851	-6.48622	-14.1941
 113	1	2	0.084733	13.6485	-6.98292	-13.4777
 114	1	2	0.073714	13.492	-6.34032	-15.1428
 115	1	1	0.037815	8.482	-6.1825	-13.821
 116	1	2	0.048876	10.5566	-2.34252	-15.6664
 117	1	1	-0.222978	9.24017	-5.28851	-14.5487
 118	1	2	0.097895	8.77663	-2.23153	-15.9673
 119	1	3	0.054231	8.58925	-6.76053	-11.7029
 120	1	3	0.054231	9.05064	-5.17925	-11.9421
 121	1	4	-0.159568	8.34148	-5.90924	-12.3234
 122	1	3	0.073528	7.34236	-5.56734	-12.0623
 123	1	6	0.703056	9.26031	-3.53211	-14.0162
 124	1	2	0.084378	9.54667	-1.26611	-14.6727
 125	1	4	-0.422828	9.5706	-2.21926	-15.2128
 126	1	2	0.048873	11.64	-3.60893	-13.7007
 127	1	2	0.084374	10.8705	-2.27899	-12.7896
 128	1	4	-0.422813	10.7872	-3.33252	-13.0785
 129	1	2	0.097892	10.7592	-3.95858	-12.1828
 130	1	2	0.084729	8.1606	-1.81164	-12.8552
 131	1	4	-0.400138	8.04245	-2.89778	-12.8452
 132	1	2	0.084733	7.03472	-3.13728	-13.1778
 133	1	2	0.073714	8.23002	-3.26762	-11.833
 134	1	1	0.037815	7.34525	-7.31316	-15.6465
 135	1	2	0.048876	6.57327	-7.75937	-11.1803
 136	1	1	-0.222978	7.76147	-7.24009	-14.3463
 137	1	2	0.097895	6.52846	-9.54892	-11.2436
 138	1	3	0.054231	8.9273	-8.75598	-15.857
 139	1	3	0.054231	8.57806	-7.90771	-17.335
 140	1	4	-0.159568	8.11197	-8.34069	-16.449
 141	1	3	0.073528	7.49013	-9.19389	-16.7344
 142	1	6	0.703056	7.15098	-8.6411	-13.3509
 143	1	2	0.084378	8.10331	-8.71761	-11.1514
 144	1	4	-0.422828	7.08338	-8.65428	-11.5472
 145	1	2	0.048873	9.36552	-9.59405	-13.4451
 146	1	2	0.084374	8.13789	-10.7547	-12.8509
 147	1	4	-0.422813	8.35056	-9.97076	-13.5864
 148	1	2	0.097892	8.23939	-10.3849	-14.5929
 149	1	2	0.084729	5.56714	-10.4082	-13.3783
 150	1	4	-0.400138	5.77603	-9.5597	-14.0396
 151	1	2	0.084733	4.90688	-8.90637	-14.0984
 152	1	2	0.073714	6.06092	-9.92321	-15.0312
 153	1	1	0.037815	5.23085	-6.12736	-15.3713
 154	1	2	0.048876	3.93055	-5.43365	-17.9507
 155	1	1	-0.222978	6.07199	-6.95015	-16.0731
 156	1	2	0.097895	4.34127	-6.09554	-19.5566
 157	1	3	0.054231	5.37672	-3.97748	-15.3582
 158	1	3	0.054231	5.95922	-4.72432	-13.8605
 159	1	4	-0.159568	5.90243	-4.83457	-14.9403
 160	1	3	0.073528	6.89743	-4.72689	-15.3549
 161	1	6	0.703056	5.66724	-7.07462	-17.8524
 162	1	2	0.084378	3.34295	-7.0715	-18.4692
 163	1	4	-0.422828	4.15652	-6.34799	-18.5065
 164	1	2	0.048873	7.19294	-8.6319	-18.9026
 165	1	2	0.084374	5.70672	-9.43697	-18.2754
 166	1	4	-0.422813	6.10708	-8.5561	-18.7883
 167	1	2	0.097892	5.65033	-8.46502	-19.7802
 168	1	2	0.084729	6.60013	-5.94585	-19.728
 169	1	4	-0.400138	6.84328	-5.98838	-18.6607
 170	1	2	0.084733	6.75307	-4.99287	-18.2138
 171	1	2	0.073714	7.84575	-6.38931	-18.5363
 172	1	1	0.037815	3.15913	-5.07894	-14.8132
 173	1	2	0.048876	1.09174	-8.75539	-14.6898
 174	1	1	-0.222978	3.84606	-6.14203	-15.3427
 175	1	2	0.097895	2.60662	-8.6842	-13.7583
 176	1	3	0.054231	2.1904	-4.88364	-16.7736
 177	1	3	0.054231	1.17736	-4.38761	-15.4154
 178	1	4	-0.159568	2.20563	-4.40334	-15.796
 179	1	3	0.073528	2.48858	-3.38943	-16.0552
 180	1	6	0.703056	2.8065	-7.55766	-15.8644
 181	1	2	0.084378	1.54796	-7.22796	-13.8599
 182	1	4	-0.422828	1.92493	-8.10864	-14.3909
 183	1	2	0.048873	2.9299	-9.91048	-16.1992
 184	1	2	0.084374	3.44797	-9.0149	-17.6528
 185	1	4	-0.422813	3.5154	-9.05744	-16.5617
 186	1	2	0.097892	4.55133	-9.15462	-16.2458
 187	1	2	0.084729	1.42239	-6.72021	-17.6532
 188	1	4	-0.400138	1.23564	-7.19859	-16.6871
 189	1	2	0.084733	0.716769	-8.15029	-16.8486
 190	1	2	0.073714	0.625345	-6.55364	-16.0459
 191	1	1	0.037815	3.60176	-5.26652	-12.3837
 192	1	2	0.048876	0.682657	-2.55908	-13.4934
 193	1	1	-0.222978	3.20613	-4.59476	-13.5176
 194	1	2	0.097895	1.53412	-0.987198	-13.4399
 195	1	3	0.054231	4.41332	-7.14775	-11.5419
 196	1	3	0.054231	4.01468	-7.25689	-13.1874
 197	1	4	-0.159568	4.41122	-6.56596	-12.4639
 198	1	3	0.073528	5.45468	-6.38984	-12.6975
 199	1	6	0.703056	3.08148	-2.78701	-13.3033
 200	1	2	0.084378	1.5189	-1.9276	-14.9488
 201	1	4	-0.422828	1.54788	-1.99951	-13.8592
 202	1	2	0.048873	4.81665	-2.16424	-11.8014
 203	1	2	0.084374	3.44176	-1.01594	-11.7455
 204	1	4	-0.422813	3.72417	-2.07394	-11.7785
 205	1	2	0.097892	3.35036	-2.59492	-10.9044
 206	1	2	0.084729	5.18098	-2.095	-14.1909
 207	1	4	-0.400138	4.14095	-1.91277	-14.4808
 208	1	2	0.084733	3.98362	-2.22584	-15.5114
 209	1	2	0.073714	3.93059	-0.84124	-14.3872
 210	1	1	0.037815	3.90384	-5.27974	-10.0304
 211	1	2	0.048876	1.21511	-2.32818	-11.4236
 212	1	1	-0.222978	3.09177	-5.05653	-11.1143
 213	1	2	0.097895	-0.102406	-2.82168	-10.3737
 214	1	3	0.054231	6.04896	-5.67118	-10.0344
 215	1	3	0.054231	5.59112	-4.45445	-11.2206
 216	1	4	-0.159568	5.36529	-4.83712	-10.2214
 217	1	3	0.073528	5.65079	-4.00475	-9.58432
 218	1	6	0.703056	1.30015	-4.6934	-10.87
 219	1	2	0.084378	1.5322	-2.60426	-9.68989
 220	1	4	-0.422828	0.969697	-2.93975	-10.5643
 221	1	2	0.048873	0.139669	-6.14336	-12.3727
 222	1	2	0.084374	-0.761098	-4.62299	-12.0596
 223	1	4	-0.422813	0.223863	-5.05716	-12.2644
 224	1	2	0.097892	0.642634	-4.62808	-13.1747
 225	1	2	0.084729	-0.366791	-4.50243	-9.14854
 226	1	4	-0.400138	0.526696	-5.12142	-9.28366
 227	1	2	0.084733	0.197817	-6.15975	-9.27585
 228	1	2	0.073714	1.22476	-4.92602	-8.4665
 229	1	1	0.037815	4.2613	-5.91411	-7.70547
 230	1	2	0.048876	2.21629	-7.48248	-11.5715
 231	1	1	-0.222978	3.58461	-6.01116	-8.90848
 232	1	2	0.097895	1.62174	-8.9649	-10.7948
 233	1	3	0.054231	4.22882	-7.88503	-6.69247
 234	1	3	0.054231	4.61259	-6.55404	-5.63806
 235	1	4	-0.159568	4.00748	-6.83278	-6.51035
 236	1	3	0.073528	2.97597	-6.7315	-6.15834
 237	1	6	0.703056	2.55895	-7.50986	-9.16935
 238	1	2	0.084378	0.661861	-7.48517	-10.68
 239	1	4	-0.422828	1.68073	-7.8739	-10.7096
 240	1	2	0.048873	3.24251	-9.80404	-9.08727
 241	1	2	0.084374	4.21485	-8.85464	-10.2481
 242	1	4	-0.422813	3.76473	-8.85408	-9.25127
 243	1	2	0.097892	4.55224	-8.71851	-8.50939
 244	1	2	0.084729	0.844044	-8.84075	-8.20231
 245	1	4	-0.400138	1.56851	-8.128	-7.79267
 246	1	2	0.084733	2.20275	-8.64584	-7.06749
 247	1	2	0.073714	1.0404	-7.28627	-7.33037
 248	1	1	0.037815	4.70764	-3.62789	-7.17717
 249	1	2	0.048876	6.88488	-6.07641	-4.84926
 250	1	1	-0.222978	5.11367	-4.92111	-7.34826
 251	1	2	0.097895	8.47231	-5.51958	-5.46762
 252	1	3	0.054231	2.62895	-4.097	-6.657
 253	1	3	0.054231	2.85391	-3.42696	-8.27512
 254	1	4	-0.159568	3.19957	-3.36659	-7.24323
 255	1	3	0.073528	2.91155	-2.37827	-6.88286
 256	1	6	0.703056	6.79786	-5.51806	-7.16
 257	1	2	0.084378	7.18054	-4.33431	-5.09355
 258	1	4	-0.422828	7.39283	-5.33107	-5.47169
 259	1	2	0.048873	6.6763	-7.40571	-8.62533
 260	1	2	0.084374	8.12558	-7.4501	-7.5626
 261	1	4	-0.422813	7.05068	-7.24244	-7.60841
 262	1	2	0.097892	6.51815	-7.87666	-6.89352
 263	1	2	0.084729	7.58797	-3.49144	-8.17812
 264	1	4	-0.400138	7.96107	-4.51552	-8.10043
 265	1	2	0.084733	8.93825	-4.55154	-7.60658
 266	1	2	0.073714	8.04203	-4.94429	-9.10496
 267	1	1	0.037815	5.67786	-1.44919	-7.42532
 268	1	2	0.048876	6.06924	-1.28817	-3.02272
 269	1	1	-0.222978	5.54343	-2.63635	-6.74812
 270	1	2	0.097895	7.31112	-2.28113	-3.82982
 271	1	3	0.054231	5.14909	-0.605277	-9.41354
 272	1	3	0.054231	4.6199	-2.19966	-9.19425
 273	1	4	-0.159568	4.76147	-1.27234	-8.64581
 274	1	3	0.073528	3.76561	-0.914812	-8.36516
 275	1	6	0.703056	5.23513	-2.35097	-4.98261
 276	1	2	0.084378	6.85002	-0.663868	-4.51043
 277	1	4	-0.422828	6.50392	-1.56087	-3.99148
 278	1	2	0.048873	4.25846	-0.222071	-5.52933
 279	1	2	0.084374	3.02065	-1.42623	-5.02577
 280	1	4	-0.422813	4.01862	-1.02593	-4.82791
 281	1	2	0.097892	4.05178	-0.649231	-3.79939
 282	1	2	0.084729	4.2991	-3.39426	-3.06207
 283	1	4	-0.400138	4.54591	-3.7432	-4.07129
 284	1	2	0.084733	3.64156	-4.09141	-4.57909
 285	1	2	0.073714	5.28634	-4.54553	-4.01679
 286	1	1	0.037815	7.99959	-0.683327	-6.91673
 287	1	2	0.048876	8.25265	2.38619	-8.03795
 288	1	1	-0.222978	6.69538	-0.514107	-7.34899
 289	1	2	0.097895	7.25971	2.31192	-9.53755
 290	1	3	0.054231	9.38462	-2.35416	-6.77711
 291	1	3	0.054231	8.86149	-1.75346	-5.21642
 292	1	4	-0.159568	8.53131	-1.93871	-6.23612
 293	1	3	0.073528	7.82857	-2.74342	-6.17199
 294	1	6	0.703056	6.1594	1.20934	-7.71303
 295	1	2	0.084378	6.82538	3.4359	-8.22857
 296	1	4	-0.422828	7.2472	2.44916	-8.45188
 297	1	2	0.048873	4.33296	2.70874	-8.00902
 298	1	2	0.084374	4.25636	1.3595	-9.17783
 299	1	4	-0.422813	4.45493	1.62662	-8.1344
 300	1	2	0.097892	3.78241	1.10062	-7.44853
 301	1	2	0.084729	5.76247	1.32798	-5.36704
 302	1	4	-0.400138	6.32052	1.93236	-6.08846
 303	1	2	0.084733	7.38321	1.92621	-5.85844
 304	1	2	0.073714	5.93744	2.95875	-6.11177
 305	1	1	0.037815	10.169	0.423153	-6.76257
 306	1	2	0.048876	10.1348	-1.5056	-10.722
 307	1	1	-0.222978	9.02147	0.0634346	-7.4368
 308	1	2	0.097895	11.1228	-1.19593	-9.26287
 309	1	3	0.054231	10.9689	2.06908	-7.96376
 310	1	3	0.054231	12.0962	1.47017	-6.77263
 311	1	4	-0.159568	11.3136	1.15314	-7.47456
 312	1	3	0.073528	11.8247	0.523147	-8.20677
 313	1	6	0.703056	9.07235	0.0622368	-9.26752
 314	1	2	0.084378	9.6684	-2.24439	-9.15502
 315	1	4	-0.422828	10.1104	-1.36474	-9.6357
 316	1	2	0.048873	6.87551	0.332158	-10.2045
 317	1	2	0.084374	7.98141	-0.56602	-11.2543
 318	1	4	-0.422813	7.64185	-0.443808	-10.2245
 319	1	2	0.097892	7.27771	-1.40192	-9.83763
 320	1	2	0.084729	11.0676	1.15459	-10.0922
 321	1	4	-0.400138	9.99083	1.30306	-10.2064
 322	1	2	0.084733	9.72955	1.17026	-11.2624
 323	1	2	0.073714	9.68967	2.30247	-9.87476
 324	1	1	0.037815	11.4098	-0.640873	-5.04166
 325	1	2	0.048876	12.3984	2.15396	-3.89297
 326	1	1	-0.222978	10.3935	0.232209	-5.42855
 327	1	2	0.097895	11.2388	3.26523	-3.06109
 328	1	3	0.054231	12.9264	-0.949945	-6.60472
 329	1	3	0.054231	12.2667	-2.46804	-5.93597
 330	1	4	-0.159568	12.0349	-1.44086	-6.20382
 331	1	3	0.073528	11.3796	-1.60773	-7.05875
 332	1	6	0.703056	10.1625	1.81577	-4.57431
 333	1	2	0.084378	11.3012	1.53674	-2.60147
 334	1	4	-0.422828	11.4189	2.24253	-3.41004
 335	1	2	0.048873	9.70859	4.11283	-5.03291
 336	1	2	0.084374	10.9175	3.44232	-6.16121
 337	1	4	-0.422813	9.96774	3.24738	-5.65364
 338	1	2	0.097892	9.17085	3.05372	-6.37062
 339	1	2	0.084729	8.0926	2.85995	-3.99061
 340	1	4	-0.400138	8.60003	1.94012	-3.67987
 341	1	2	0.084733	7.97594	1.07488	-3.91536
 342	1	2	0.073714	8.79645	2.00488	-2.60725
 343	1	1	0.037815	11.1849	-1.10046	-2.5821
 344	1	2	0.048876	14.3508	0.036224	-5.32739
 345	1	1	-0.222978	11.8613	-1.07323	-3.79437
 346	1	2	0.097895	14.2396	0.757109	-3.70543
 347	1	3	0.054231	9.15898	-1.42857	-1.85511
 348	1	3	0.054231	9.63172	0.236753	-1.89117
 349	1	4	-0.159568	9.73187	-0.695866	-2.433
 350	1	3	0.073528	9.2069	-0.63374	-3.38087
 351	1	6	0.703056	13.6483	-1.58561	-3.68511
 352	1	2	0.084378	15.6201	-0.302199	-4.10935
 353	1	4	-0.422828	14.5496	-0.126712	-4.26405
 354	1	2	0.048873	15.4668	-1.93475	-2.18343
 355	1	2	0.084374	13.9907	-1.45314	-1.29563
 356	1	4	-0.422813	14.3815	-2.06752	-2.10699
 357	1	2	0.097892	14.1582	-3.12157	-1.92908
 358	1	2	0.084729	14.4851	-2.16594	-5.91189
 359	1	4	-0.400138	14.5125	-2.61169	-4.91528
 360	1	2	0.084733	15.5604	-2.66368	-4.59856
 361	1	2	0.073714	14.1098	-3.62611	-4.92885
 362	1	1	0.037815	11.4924	-1.84586	-0.236902
 363	1	2	0.048876	8.95831	-3.62686	-2.81617
 364	1	1	-0.222978	11.4993	-2.02071	-1.62125
 365	1	2	0.097895	9.42106	-5.20333	-2.10677
 366	1	3	0.054231	10.6679	-3.84014	0.306833
 367	1	3	0.054231	12.4159	-3.64533	0.60366
 368	1	4	-0.159568	11.442	-3.14329	0.609399
 369	1	3	0.073528	11.1857	-3.03688	1.66556
 370	1	6	0.703056	11.2904	-3.72149	-2.29953
 371	1	2	0.084378	9.19557	-3.75791	-1.05904
 372	1	4	-0.422828	9.54376	-4.1172	-2.0301
 373	1	2	0.048873	10.7764	-5.00778	-4.2246
 374	1	2	0.084374	10.6166	-3.25787	-4.54411
 375	1	4	-0.422813	11.2342	-4.02417	-4.06666
 376	1	2	0.097892	12.2465	-4.04369	-4.45652
 377	1	2	0.084729	12.1391	-5.94373	-2.262
 378	1	4	-0.400138	12.105	-5.13789	-1.52006
 379	1	2	0.084733	13.1241	-4.85869	-1.23504
 380	1	2	0.073714	11.5364	-5.48492	-0.652237
 381	1	1	0.037815	11.4995	-0.707542	1.88003
 382	1	2	0.048876	10.1938	1.90342	-0.89216
 383	1	1	-0.222978	11.4876	-0.674688	0.516076
 384	1	2	0.097895	10.3783	2.20946	0.848407
 385	1	3	0.054231	12.7425	-2.05594	3.10618
 386	1	3	0.054231	13.4258	-0.423625	2.90936
 387	1	4	-0.159568	12.8466	-1.2094	2.42278
 388	1	3	0.073528	13.5027	-1.56097	1.61546
 389	1	6	0.703056	12.1894	0.923701	0.0481696
 390	1	2	0.084378	11.3701	3.1276	-0.328205
 391	1	4	-0.422828	10.8985	2.16354	-0.106665
 392	1	2	0.048873	13.2302	2.78993	1.11912
 393	1	2	0.084374	12.4761	1.68411	2.31511
 394	1	4	-0.422813	13.0632	1.74266	1.39741
 395	1	2	0.097892	14.0288	1.24327	1.5289
 396	1	2	0.084729	13.4865	2.10679	-1.53377
 397	1	4	-0.400138	13.3499	1.04604	-1.29517
 398	1	2	0.084733	14.3022	0.616486	-0.9679
 399	1	2	0.073714	12.9619	0.509778	-2.14414
 400	1	1	0.037815	9.23233	0.0539368	2.20265
 401	1	2	0.048876	8.69031	0.700726	5.18638
 402	1	1	-0.222978	10.5104	-0.156565	2.67579
 403	1	2	0.097895	9.64072	0.063651	6.55308
 404	1	3	0.054231	8.73047	-0.724599	0.217978
 405	1	3	0.054231	7.69689	-1.35202	1.51108
 406	1	4	-0.159568	8.71088	-1.04099	1.26306
 407	1	3	0.073528	9.26077	-1.97462	1.36192
 408	1	6	0.703056	10.7919	-0.140663	4.48144
 409	1	2	0.084378	10.0339	1.66075	5.85965
 410	1	4	-0.422828	9.66987	0.654211	5.63083
 411	1	2	0.048873	9.44563	-2.11647	4.62778
 412	1	2	0.084374	11.1738	-2.51488	4.41186
 413	1	4	-0.422813	10.467	-1.859	4.92436
 414	1	2	0.097892	10.5828	-1.96326	6.00868
 415	1	2	0.084729	12.3436	0.188087	6.24841
 416	1	4	-0.400138	12.4506	0.022656	5.17052
 417	1	2	0.084733	13.0221	-0.895938	5.00897
 418	1	2	0.073714	12.9399	0.889153	4.71062
 419	1	1	0.037815	7.06396	1.02545	1.99491
 420	1	2	0.048876	7.76783	2.51119	5.38379
 421	1	1	-0.222978	8.29502	0.987201	2.6008
 422	1	2	0.097895	8.10694	4.1883	4.86204
 423	1	3	0.054231	6.92018	0.87317	-0.174701
 424	1	3	0.054231	6.64232	2.53436	0.426026
 425	1	4	-0.159568	7.1977	1.60861	0.584902
 426	1	3	0.073528	8.233	1.84678	0.331533
 427	1	6	0.703056	8.81524	2.63311	3.20593
 428	1	2	0.084378	6.72872	3.2995	4.14883
 429	1	4	-0.422828	7.74653	3.20511	4.54004
 430	1	2	0.048873	11.0453	2.39624	4.19247
 431	1	2	0.084374	11.0492	3.18751	2.58404
 432	1	4	-0.422813	10.5283	3.09143	3.53897
 433	1	2	0.097892	10.504	4.07703	4.01689
 434	1	2	0.084729	8.73253	3.87961	1.15806
 435	1	4	-0.400138	8.2496	3.97226	2.13625
 436	1	2	0.084733	7.16101	3.93383	2.04452
 437	1	2	0.073714	8.54171	4.92229	2.59801
 438	1	1	0.037815	5.68549	-0.484857	3.41569
 439	1	2	0.048876	3.58403	3.12564	0.911737
 440	1	1	-0.222978	5.88457	0.363549	2.33206
 441	1	2	0.097895	3.66794	2.83491	2.66325
 442	1	3	0.054231	7.74945	-0.878924	4.02263
 443	1	3	0.054231	6.64386	-1.67522	4.98758
 444	1	4	-0.159568	6.76933	-0.734719	4.45808
 445	1	3	0.073528	6.79597	0.0453237	5.22012
 446	1	6	0.703056	4.37158	0.912677	1.4036
 447	1	2	0.084378	5.16658	3.16777	1.75734
 448	1	4	-0.422828	4.18891	2.68706	1.71413
 449	1	2	0.048873	4.91683	2.03408	-0.686219
 450	1	2	0.084374	4.94473	0.245388	-0.852612
 451	1	4	-0.422813	4.42789	1.09754	-0.401827
 452	1	2	0.097892	3.39219	1.12445	-0.757982
 453	1	2	0.084729	2.00558	1.07585	1.5127
 454	1	4	-0.400138	2.71992	0.29196	1.78896
 455	1	2	0.084733	2.51583	-0.593813	1.18218
 456	1	2	0.073714	2.62891	0.0781849	2.85435
 457	1	1	0.037815	4.06026	-1.69252	4.80301
 458	1	2	0.048876	2.71994	-3.68664	0.895554
 459	1	1	-0.222978	4.59327	-1.30191	3.5799
 460	1	2	0.097895	2.65493	-4.13072	2.61577
 461	1	3	0.054231	3.35155	-3.77342	4.56831
 462	1	3	0.054231	2.56862	-2.92797	5.86352
 463	1	4	-0.159568	2.98567	-2.78703	4.8607
 464	1	3	0.073528	2.11515	-2.50788	4.25997
 465	1	6	0.703056	4.29591	-2.41287	2.14612
 466	1	2	0.084378	1.90238	-2.58838	2.0475
 467	1	4	-0.422828	2.73158	-3.29247	1.91826
 468	1	2	0.048873	5.16422	-3.01955	0.0141556
 469	1	2	0.084374	4.16738	-1.55312	-0.0662002
 470	1	4	-0.422813	4.94735	-2.06344	0.504722
 471	1	2	0.097892	5.8586	-1.46984	0.561865
 472	1	2	0.084729	5.0873	-4.25199	3.48674
 473	1	4	-0.400138	5.3734	-3.80592	2.53243
 474	1	2	0.084733	5.27737	-4.5488	1.7327
 475	1	2	0.073714	6.40404	-3.43674	2.58426
 476	1	1	0.037815	4.64279	-2.05286	7.0862
 477	1	2	0.048876	1.6059	0.227307	6.28699
 478	1	1	-0.222978	4.29608	-1.17067	6.05594
 479	1	2	0.097895	2.03647	1.95686	6.08853
 480	1	3	0.054231	4.63429	-4.22019	6.72595
 481	1	3	0.054231	5.53993	-3.39966	5.51507
 482	1	4	-0.159568	5.29552	-3.36221	6.57677
 483	1	3	0.073528	6.27309	-3.55853	6.99618
 484	1	6	0.703056	4.0152	0.617034	6.24839
 485	1	2	0.084378	2.16108	0.810743	4.72171
 486	1	4	-0.422828	2.28311	0.928849	5.80018
 487	1	2	0.048873	5.43692	1.1483	8.05608
 488	1	2	0.084374	4.50293	2.56392	7.48912
 489	1	4	-0.422813	4.45172	1.49767	7.73649
 490	1	2	0.097892	3.69125	1.35761	8.49974
 491	1	2	0.084729	4.14728	2.72197	5.16883
 492	1	4	-0.400138	4.51727	1.71617	4.94079
 493	1	2	0.084733	5.60315	1.72666	4.88787
 494	1	2	0.073714	4.06925	1.35633	4.0229
 495	1	1	0.037815	3.62769	-1.13858	9.13162
 496	1	2	0.048876	6.09839	-2.55385	11.7586
 497	1	1	-0.222978	4.57047	-1.89631	8.47189
 498	1	2	0.097895	4.29713	-2.50801	11.6086
 499	1	3	0.054231	1.45041	-1.35406	9.03233
 500	1	3	0.054231	2.05031	0.0788536	8.29617
 501	1	4	-0.159568	2.27454	-0.974845	8.44933
 502	1	3	0.073528	2.18454	-1.50012	7.49886
 503	1	6	0.703056	5.39733	-3.1392	9.56884
 504	1	2	0.084378	5.16212	-4.063	11.7562
 505	1	4	-0.422828	5.20991	-3.04548	11.3537
 506	1	2	0.048873	5.29423	-5.28697	8.44075
 507	1	2	0.084374	4.75683	-5.38646	10.1314
 508	1	4	-0.422813	4.71201	-4.7834	9.21841
 509	1	2	0.097892	3.67353	-4.67455	8.89146
 510	1	2	0.084729	7.64523	-3.63334	10.2066
 511	1	4	-0.400138	7.13463	-3.54618	9.2407
 512	1	2	0.084733	7.21287	-4.50076	8.71043
 513	1	2	0.073714	7.5899	-2.74447	8.6492
 514	1	1	0.037815	2.74564	0.0885984	11.0496
 515	1	2	0.048876	5.49326	2.42956	9.86624
 516	1	1	-0.222978	3.7928	-0.435315	10.3087
 517	1	2	0.097895	5.2824	2.42271	11.6499
 518	1	3	0.054231	3.36474	2.12876	10.5638
 519	1	3	0.054231	1.90606	2.10822	11.3819
 520	1	4	-0.159568	2.86581	1.58602	11.3666
 521	1	3	0.073528	3.3516	1.77974	12.328
 522	1	6	0.703056	5.49266	0.165003	10.7474
 523	1	2	0.084378	6.87157	2.10891	10.9465
 524	1	4	-0.422828	5.79566	1.9589	10.8046
 525	1	2	0.048873	6.79771	0.256212	12.7474
 526	1	2	0.084374	5.10417	0.749797	13.0535
 527	1	4	-0.422813	5.74529	0.0330611	12.5341
 528	1	2	0.097892	5.49909	-0.97185	12.88
 529	1	2	0.084729	6.70747	-0.547521	8.79111
 530	1	4	-0.400138	6.95236	-0.381233	9.84457
 531	1	2	0.084733	7.71087	0.405735	9.91397
 532	1	2	0.073714	7.3462	-1.27469	10.3316
 533	1	1	0.037815	0.845765	0.185454	12.44
 534	1	2	0.048876	-0.834895	-2.00012	12.853
 535	1	1	-0.222978	1.56708	-0.497493	11.5
 536	1	2	0.097895	-1.18433	-2.24929	11.1036
 537	1	3	0.054231	2.44846	-0.529565	13.7621
 538	1	3	0.054231	1.84681	0.979751	14.2574
 539	1	4	-0.159568	1.51855	0.0488871	13.8106
 540	1	3	0.073528	0.864651	-0.47279	14.5189
 541	1	6	0.703056	1.16308	-2.27119	11.5721
 542	1	2	0.084378	-0.70406	-3.6391	12.131
 543	1	4	-0.422828	-0.571224	-2.56622	11.9527
 544	1	2	0.048873	2.91721	-2.72602	13.1562
 545	1	2	0.084374	1.30638	-2.58875	13.9442
 546	1	4	-0.422813	1.8554	-2.97738	13.0816
 547	1	2	0.097892	1.72639	-4.06438	13.0398
 548	1	2	0.084729	1.60495	-4.4705	10.7974
 549	1	4	-0.400138	1.75233	-3.46926	10.378
 550	1	2	0.084733	1.18561	-3.38133	9.44602
 551	1	2	0.073714	2.80617	-3.28573	10.2237
 552	1	1	0.037815	-0.976541	1.13126	11.0601
 553	1	2	0.048876	0.345583	1.42463	15.6593
 554	1	1	-0.222978	-0.266839	0.994116	12.2397
 555	1	2	0.097895	-1.14287	2.36805	15.885
 556	1	3	0.054231	-1.15733	0.561665	8.92672
 557	1	3	0.054231	0.481496	0.891956	9.49015
 558	1	4	-0.159568	-0.481164	0.468208	9.78287
 559	1	3	0.073528	-0.395603	-0.608678	9.90997
 560	1	6	0.703056	-0.636733	2.19282	13.5689
 561	1	2	0.084378	-1.25759	0.674271	15.3128
 562	1	4	-0.422828	-0.663175	1.59417	15.2754
 563	1	2	0.048873	0.787742	3.89485	12.6968
 564	1	2	0.084374	0.536125	4.06646	14.4609
 565	1	4	-0.422813	0.745665	3.35789	13.6515
 566	1	2	0.097892	1.70299	2.87599	13.8338
 567	1	2	0.084729	-1.87069	4.09215	14.2405
 568	1	4	-0.400138	-1.91188	3.41521	13.3801
 569	1	2	0.084733	-1.72571	3.96723	12.4582
 570	1	2	0.073714	-2.85964	2.90633	13.3597
 571	1	1	0.037815	-3.35145	1.36557	11.5955
 572	1	2	0.048876	-0.697394	4.27218	8.24675
 573	1	1	-0.222978	-2.21514	1.69693	10.8697
 574	1	2	0.097895	0.142717	3.4416	9.60132
 575	1	3	0.054231	-2.4917	-0.500215	12.3786
 576	1	3	0.054231	-2.93607	0.658826	13.6373
 577	1	4	-0.159568	-3.21784	0.26885	12.6573
 578	1	3	0.073528	-4.16106	-0.261321	12.802
 579	1	6	0.703056	-2.19128	2.92652	9.53186
 580	1	2	0.084378	-0.297424	2.53529	8.10299
 581	1	4	-0.422828	-0.59281	3.32948	8.79635
 582	1	2	0.048873	-4.31133	2.35504	8.6027
 583	1	2	0.084374	-3.40698	3.50962	7.57348
 584	1	4	-0.422813	-3.33951	2.60771	8.19223
 585	1	2	0.097892	-2.94816	1.7764	7.59654
 586	1	2	0.084729	-3.63023	4.28204	10.8499
 587	1	4	-0.400138	-2.83948	4.48453	10.1341
 588	1	2	0.084733	-2.02184	5.02312	10.625
 589	1	2	0.073714	-3.21094	5.06989	9.2857
 590	1	1	0.037815	-5.25568	0.707149	10.3051
 591	1	2	0.048876	-7.78596	1.31567	12.8407
 592	1	1	-0.222978	-4.66283	1.58061	11.2161
 593	1	2	0.097895	-7.86074	3.04466	13.2199
 594	1	3	0.054231	-3.49351	0.159275	9.13284
 595	1	3	0.054231	-3.8188	-0.970724	10.4095
 596	1	4	-0.159568	-4.30427	-0.3311	9.67128
 597	1	3	0.073528	-4.75327	-0.976875	8.91486
 598	1	6	0.703056	-5.7129	2.39442	12.494
 599	1	2	0.084378	-7.92532	2.5354	11.5202
 600	1	4	-0.422828	-7.50349	2.30858	12.4917
 601	1	2	0.048873	-6.07734	2.36733	14.8468
 602	1	2	0.084374	-5.25551	0.88373	14.3153
 603	1	4	-0.422813	-5.28827	1.96647	14.2002
 604	1	2	0.097892	-4.33826	2.40612	14.4996
 605	1	2	0.084729	-5.57773	4.74017	11.8854
 606	1	4	-0.400138	-5.30706	4.13997	12.7527
 607	1	2	0.084733	-5.8804	4.48931	13.6185
 608	1	2	0.073714	-4.24695	4.26867	12.9526
 609	1	1	0.037815	-7.13772	-0.40946	9.2283
 610	1	2	0.048876	-9.29179	2.46513	8.09487
 611	1	1	-0.222978	-6.52374	0.733855	9.7404
 612	1	2	0.097895	-9.33762	2.06694	9.85561
 613	1	3	0.054231	-8.66443	-1.19638	7.85431
 614	1	3	0.054231	-8.78687	0.458939	8.04436
 615	1	4	-0.159568	-8.03606	-0.318245	7.99301
 616	1	3	0.073528	-7.45169	-0.186168	7.07682
 617	1	6	0.703056	-7.08269	2.3578	9.09065
 618	1	2	0.084378	-9.00895	3.73801	9.30432
 619	1	4	-0.422828	-8.86359	2.67542	9.0808
 620	1	2	0.048873	-5.28262	3.68795	9.8794
 621	1	2	0.084374	-6.3599	4.5983	8.78532
 622	1	4	-0.422813	-6.3145	3.88085	9.6118
 623	1	2	0.097892	-6.89672	4.26905	10.4508
 624	1	2	0.084729	-6.69225	3.44207	6.9896
 625	1	4	-0.400138	-6.77244	2.39714	7.3066
 626	1	2	0.084733	-5.83512	1.86989	7.10022
 627	1	2	0.073714	-7.60035	1.9342	6.76337
 628	1	1	0.037815	-6.96941	-1.98933	11.0802
 629	1	2	0.048876	-8.36381	-4.81747	7.83614
 630	1	1	-0.222978	-7.09611	-1.68421	9.75589
 631	1	2	0.097895	-8.98725	-3.98925	9.30037
 632	1	3	0.054231	-5.12104	-2.08301	12.2051
 633	1	3	0.054231	-5.79351	-3.68483	11.7833
 634	1	4	-0.159568	-5.65598	-2.65506	11.4484
 635	1	3	0.073528	-4.96651	-2.72664	10.6089
 636	1	6	0.703056	-6.90813	-3.07844	8.58289
 637	1	2	0.084378	-9.13206	-3.21661	7.68475
 638	1	4	-0.422828	-8.51336	-3.8489	8.32685
 639	1	2	0.048873	-7.21513	-2.24317	6.3461
 640	1	2	0.084374	-5.53329	-1.99503	6.95455
 641	1	4	-0.422813	-6.38339	-2.6839	6.90438
 642	1	2	0.097892	-6.08207	-3.62069	6.42306
 643	1	2	0.084729	-6.19972	-5.34125	8.36859
 644	1	4	-0.400138	-6.05423	-4.57128	9.13429
 645	1	2	0.084733	-4.98459	-4.35981	9.23014
 646	1	2	0.073714	-6.4745	-4.91678	10.0811
 647	1	1	0.037815	-9.35535	-1.7926	11.671
 648	1	2	0.048876	-6.27331	-0.751879	13.6283
 649	1	1	-0.222978	-8.05622	-2.17979	11.9284
 650	1	2	0.097895	-7.91531	-0.320268	14.1941
 651	1	3	0.054231	-10.1213	0.283181	11.7939
 652	1	3	0.054231	-8.47801	0.152906	11.3544
 653	1	4	-0.159568	-9.43357	-0.337709	11.2187
 654	1	3	0.073528	-9.66813	-0.242695	10.1603