pySIMM System Object

667 atoms
666 bonds
1260 angles
1641 dihedrals
0 impropers

7 atom types
8 bond types
13 angle types
5 dihedral types

-117.949504 117.949504 xlo xhi
-117.949504 117.949504 ylo yhi
-117.949504 117.949504 zlo zhi

Masses

   1	12.01	# c2
   2	1.008	# h1
   3	1.008	# hc
   4	12.01	# c3
   5	1.008	# ha
   6	32.06	# s6
   7	1.008	# h4

Pair Coeffs

   1	0.086	3.3996695084235347	# c2
   2	0.0157	2.471353044121301	# h1
   3	0.0157	2.649532787749369	# hc
   4	0.1094	3.3996695084235347	# c3
   5	0.015	2.59964245953351	# ha
   6	0.25	3.563594872561357	# s6
   7	0.015	2.5105525877194763	# h4

Bond Coeffs

   1	233.5	1.8075	# c3,s6
   2	569.4	1.3343	# c2,c2
   3	326.8	1.5095	# c2,c3
   4	263.2	1.76	# c2,s6
   5	330.6	1.0969	# c3,hc
   6	343.1	1.0879	# c2,ha
   7	344.6	1.0868	# c2,h4
   8	330.6	1.0969	# c3,h1

Angle Coeffs

   1	46.99	110.36	# c2,c3,hc
   2	39.4	107.58	# hc,c3,hc
   3	59.92	103.83	# c3,s6,c3
   4	60.63	104.05	# c2,s6,c3
   5	39.24	108.46	# h1,c3,h1
   6	42.79	115.45	# h4,c2,s6
   7	64.06	123.63	# c2,c2,c3
   8	62.73	120.01	# c2,c2,s6
   9	49.4	122.67	# c2,c2,h4
  10	49.85	120.43	# c2,c2,ha
  11	43.19	107.15	# h1,c3,s6
  12	45.94	115.68	# c3,c2,ha
  13	69.3	121.81	# c2,c2,c2

Dihedral Coeffs

   1	1	0.0	2	0	# X,c2,c3,X
   2	1	6.65	2	180	# X,c2,c2,X
   3	3	0.38	3	180	0.0	2	0	1.15	1	0	# hc,c3,c2,c2
   4	1	6.6499999999999995	2	180	# X,c2,s6,X
   5	1	0.14444444444444446	3	0	# X,c3,s6,X

Atoms

   1	1	1	0.037815	-17.69	11.1815	14.0134
   2	1	2	0.048876	-22.7298	12.03	14.3823
   3	1	1	-0.222978	-18.8731	11.7861	14.2487
   4	1	2	0.097895	-21.4922	13.0335	15.2237
   5	1	3	0.054231	-17.9219	9.52655	12.5998
   6	1	3	0.054231	-16.786	9.17861	13.9206
   7	1	4	-0.159568	-17.7196	9.69069	13.6653
   8	1	3	0.073528	-18.4758	9.14837	14.2324
   9	1	6	0.703056	-20.522	11.1455	14.1706
  10	1	2	0.084378	-21.6391	13.1102	13.4329
  11	1	4	-0.422828	-21.727	12.4663	14.315
  12	1	2	0.048873	-20.634	10.4716	11.8842
  13	1	2	0.084374	-20.2577	9.07828	12.9643
  14	1	4	-0.422813	-20.8593	9.98236	12.839
  15	1	2	0.097892	-21.9242	9.72761	12.8886
  16	1	2	0.084729	-21.7861	9.7394	15.6171
  17	1	4	-0.400138	-20.7524	10.1024	15.6196
  18	1	2	0.084733	-20.0599	9.25739	15.5871
  19	1	2	0.073714	-20.5651	10.71	16.5122
  20	1	1	0.037815	-15.306	11.3364	13.7917
  21	1	2	0.048876	-18.5835	14.4195	15.7838
  22	1	1	-0.222978	-16.5017	11.8342	14.2382
  23	1	2	0.097895	-18.1016	12.9587	16.7137
  24	1	3	0.054231	-14.597	11.1847	11.7086
  25	1	3	0.054231	-15.0982	9.65156	12.4037
  26	1	4	-0.159568	-15.3094	10.7265	12.3807
  27	1	3	0.073528	-16.2603	10.8761	11.8578
  28	1	6	0.703056	-16.4899	13.4913	15.0104
  29	1	2	0.084378	-17.288	14.5336	17.0102
  30	1	4	-0.422828	-17.7482	13.8879	16.2545
  31	1	2	0.048873	-14.3779	13.6083	16.1728
  32	1	2	0.084374	-14.3595	14.4831	14.5944
  33	1	4	-0.422813	-14.9341	14.2551	15.4905
  34	1	2	0.097892	-15.1801	15.1956	15.9957
  35	1	2	0.084729	-18.0985	14.3577	13.4368
  36	1	4	-0.400138	-17.0707	14.6088	13.713
  37	1	2	0.084733	-17.0272	15.6328	14.0997
  38	1	2	0.073714	-16.4284	14.514	12.8345
  39	1	1	0.037815	-12.8993	11.0155	14.0536
  40	1	2	0.048876	-14.6237	8.76568	17.3864
  41	1	1	-0.222978	-14.1677	11.2519	14.5569
  42	1	2	0.097895	-15.6241	8.88143	15.9019
  43	1	3	0.054231	-12.0525	9.57793	15.504
  44	1	3	0.054231	-10.8636	10.2315	14.4413
  45	1	4	-0.159568	-11.7856	10.4893	14.9672
  46	1	3	0.073528	-11.4676	11.2657	15.67
  47	1	6	0.703056	-14.4652	10.913	16.338
  48	1	2	0.084378	-13.8623	8.64485	15.7627
  49	1	4	-0.422828	-14.653	9.1179	16.3486
  50	1	2	0.048873	-16.8733	10.9493	16.5627
  51	1	2	0.084374	-16.0272	10.6498	18.099
  52	1	4	-0.422813	-16.0213	11.2472	17.1801
  53	1	2	0.097892	-16.0489	12.3043	17.4555
  54	1	2	0.084729	-13.6274	11.1081	18.5516
  55	1	4	-0.400138	-13.159	11.1457	17.5616
  56	1	2	0.084733	-12.4204	10.3422	17.4928
  57	1	2	0.073714	-12.7024	12.1299	17.4064
  58	1	1	0.037815	-11.7803	10.2871	12.0993
  59	1	2	0.048876	-10.4727	13.4404	10.8354
  60	1	1	-0.222978	-12.4226	11.2781	12.7948
  61	1	2	0.097895	-11.9064	12.8525	9.94353
  62	1	3	0.054231	-12.1123	8.19264	11.5622
  63	1	3	0.054231	-11.3172	8.40581	13.1078
  64	1	4	-0.159568	-12.0857	8.82583	12.4487
  65	1	3	0.073528	-13.0549	8.69729	12.9435
  66	1	6	0.703056	-12.3922	13.0048	12.2503
  67	1	2	0.084378	-11.8399	14.5383	10.5285
  68	1	4	-0.422828	-11.5548	13.5017	10.7412
  69	1	2	0.048873	-10.8446	13.9742	13.8046
  70	1	2	0.084374	-12.2013	15.0798	13.4279
  71	1	4	-0.422813	-11.9245	14.0427	13.6466
  72	1	2	0.097892	-12.4414	13.6814	14.5396
  73	1	2	0.084729	-13.9204	14.7856	11.8849
  74	1	4	-0.400138	-14.0216	13.7003	11.9965
  75	1	2	0.084733	-14.4513	13.273	11.0846
  76	1	2	0.073714	-14.635	13.4708	12.8566
  77	1	1	0.037815	-11.4872	10.1741	9.73082
  78	1	2	0.048876	-9.03483	8.70517	12.1745
  79	1	1	-0.222978	-11.0066	10.4558	10.9956
  80	1	2	0.097895	-7.52091	9.67312	12.2693
  81	1	3	0.054231	-13.3749	9.87596	8.62322
  82	1	3	0.054231	-13.4876	9.44629	10.2866
  83	1	4	-0.159568	-13.0164	10.1675	9.61225
  84	1	3	0.073528	-13.4388	11.1504	9.83848
  85	1	6	0.703056	-9.32918	10.9854	11.4183
  86	1	2	0.084378	-8.81265	9.86685	13.4954
  87	1	4	-0.422828	-8.60355	9.6739	12.4381
  88	1	2	0.048873	-8.14858	12.0879	13.1776
  89	1	2	0.084374	-9.3223	13.1779	12.4233
  90	1	4	-0.422813	-9.16954	12.159	12.7838
  91	1	2	0.097892	-9.88413	11.9162	13.5707
  92	1	2	0.084729	-8.286	10.829	9.28133
  93	1	4	-0.400138	-8.20202	11.502	10.1279
  94	1	2	0.084733	-8.47493	12.5191	9.82764
  95	1	2	0.073714	-7.18386	11.4945	10.5327
  96	1	1	0.037815	-9.74703	9.05802	8.40797
  97	1	2	0.048876	-13.6663	11.371	7.06866
  98	1	1	-0.222978	-10.8001	9.9443	8.55449
  99	1	2	0.097895	-12.92	12.5395	8.22253
 100	1	3	0.054231	-10.1059	8.08898	10.3316
 101	1	3	0.054231	-9.01623	7.2101	9.30155
 102	1	4	-0.159568	-9.31418	8.21819	9.59578
 103	1	3	0.073528	-8.47202	8.65372	10.1161
 104	1	6	0.703056	-11.2841	11.0801	7.21063
 105	1	2	0.084378	-12.7626	12.7902	6.46743
 106	1	4	-0.422828	-12.8173	12.0363	7.26075
 107	1	2	0.048873	-11.2981	9.9853	5.13352
 108	1	2	0.084374	-11.1721	11.758	4.95295
 109	1	4	-0.422813	-10.8132	10.8834	5.5068
 110	1	2	0.097892	-9.72421	10.8368	5.45112
 111	1	2	0.084729	-9.11926	12.0516	7.40593
 112	1	4	-0.400138	-10.1399	12.4301	7.51872
 113	1	2	0.084733	-10.3312	13.2257	6.79006
 114	1	2	0.073714	-10.2934	12.8038	8.53195
 115	1	1	0.037815	-9.68811	8.17793	6.10054
 116	1	2	0.048876	-6.63833	9.48694	9.45474
 117	1	1	-0.222978	-9.11641	8.72779	7.23157
 118	1	2	0.097895	-6.57195	7.69129	9.26377
 119	1	3	0.054231	-9.71861	8.82916	4.0211
 120	1	3	0.054231	-8.28244	9.27594	4.79827
 121	1	4	-0.159568	-9.00699	8.46357	4.76281
 122	1	3	0.073528	-8.49865	7.58174	4.36052
 123	1	6	0.703056	-7.28215	8.75852	7.24517
 124	1	2	0.084378	-5.3011	8.73347	8.55541
 125	1	4	-0.422828	-6.3676	8.66027	8.79543
 126	1	2	0.048873	-6.98228	11.1021	7.67538
 127	1	2	0.084374	-5.76729	10.456	6.53524
 128	1	4	-0.422813	-6.82745	10.4497	6.81196
 129	1	2	0.097892	-7.43698	10.7974	5.97404
 130	1	2	0.084729	-5.30035	7.81668	6.33601
 131	1	4	-0.400138	-6.35316	7.79043	6.03355
 132	1	2	0.084733	-6.70848	6.75718	6.04634
 133	1	2	0.073714	-6.43782	8.2286	5.03566
 134	1	1	0.037815	-11.3239	6.70334	7.12514
 135	1	2	0.048876	-9.57455	6.06757	3.20721
 136	1	1	-0.222978	-10.7515	7.29807	6.04643
 137	1	2	0.097895	-11.1045	5.91901	2.29023
 138	1	3	0.054231	-12.6912	8.38691	6.95521
 139	1	3	0.054231	-12.5692	7.75349	8.57271
 140	1	4	-0.159568	-12.5775	7.45892	7.52779
 141	1	3	0.073528	-13.4847	6.88595	7.31908
 142	1	6	0.703056	-11.5016	6.72294	4.49186
 143	1	2	0.084378	-10.3645	7.52343	2.51548
 144	1	4	-0.422828	-10.5277	6.54593	2.97935
 145	1	2	0.048873	-11.9072	8.88279	3.5195
 146	1	2	0.084374	-13.1634	7.68987	3.08941
 147	1	4	-0.422813	-12.5365	8.07354	3.90206
 148	1	2	0.097892	-13.165	8.42511	4.72606
 149	1	2	0.084729	-13.1811	5.2839	3.63665
 150	1	4	-0.400138	-12.7089	5.4106	4.61727
 151	1	2	0.084733	-12.1795	4.50147	4.89944
 152	1	2	0.073714	-13.4581	5.69001	5.36473
 153	1	1	0.037815	-10.1595	4.55569	6.97501
 154	1	2	0.048876	-10.6558	3.13475	9.95145
 155	1	1	-0.222978	-11.1812	5.35515	7.442
 156	1	2	0.097895	-12.2947	3.13011	10.6305
 157	1	3	0.054231	-7.92443	4.62867	6.98715
 158	1	3	0.054231	-8.69216	5.68999	5.8276
 159	1	4	-0.159568	-8.80322	5.25459	6.82091
 160	1	3	0.073528	-8.69532	6.05532	7.54971
 161	1	6	0.703056	-12.073	4.73539	8.91694
 162	1	2	0.084378	-12.0196	2.31466	9.08879
 163	1	4	-0.422828	-11.719	3.15697	9.69831
 164	1	2	0.048873	-13.9225	6.21705	9.41663
 165	1	2	0.084374	-14.3725	4.91923	8.24877
 166	1	4	-0.422813	-13.8135	5.1588	9.15934
 167	1	2	0.097892	-14.1867	4.55248	9.99209
 168	1	2	0.084729	-11.9439	5.40892	11.1941
 169	1	4	-0.400138	-11.4646	5.74129	10.2666
 170	1	2	0.084733	-10.38	5.60592	10.3328
 171	1	2	0.073714	-11.7133	6.77822	10.0784
 172	1	1	0.037815	-9.01015	2.50033	6.70673
 173	1	2	0.048876	-12.5328	0.853839	4.72867
 174	1	1	-0.222978	-10.1869	3.19405	6.72016
 175	1	2	0.097895	-11.9423	2.44702	4.17062
 176	1	3	0.054231	-9.58716	1.92392	8.71902
 177	1	3	0.054231	-8.15873	1.16704	8.2375
 178	1	4	-0.159568	-8.68237	2.11112	8.14373
 179	1	3	0.073528	-8.13303	2.89952	8.6717
 180	1	6	0.703056	-11.6656	2.15894	6.51864
 181	1	2	0.084378	-10.771	1.13955	4.57686
 182	1	4	-0.422828	-11.7307	1.5949	4.82261
 183	1	2	0.048873	-14.0142	2.19685	6.13076
 184	1	2	0.084374	-13.638	2.62451	7.81387
 185	1	4	-0.422813	-13.3407	2.77652	6.77272
 186	1	2	0.097892	-13.3959	3.83063	6.50579
 187	1	2	0.084729	-11.4379	0.530393	8.27917
 188	1	4	-0.400138	-11.4525	0.49695	7.18652
 189	1	2	0.084733	-12.2895	-0.121799	6.84401
 190	1	2	0.073714	-10.5092	0.0894678	6.81834
 191	1	1	0.037815	-8.46106	2.26809	4.29846
 192	1	2	0.048876	-6.75738	-0.946111	6.12454
 193	1	1	-0.222978	-8.26934	2.01049	5.63998
 194	1	2	0.097895	-5.28096	-0.335297	6.89925
 195	1	3	0.054231	-9.40597	3.61925	2.82848
 196	1	3	0.054231	-10.15	3.70353	4.363
 197	1	4	-0.159568	-9.18214	3.55822	3.89798
 198	1	3	0.073528	-8.55337	4.41763	4.13461
 199	1	6	0.703056	-6.55166	1.48097	6.03442
 200	1	2	0.084378	-6.83278	-0.232509	7.75277
 201	1	4	-0.422828	-6.3564	-0.168019	6.77349
 202	1	2	0.048873	-5.09995	2.75605	4.65385
 203	1	2	0.084374	-4.40694	1.15486	5.06111
 204	1	4	-0.422813	-5.31291	1.68554	4.74765
 205	1	2	0.097892	-5.66053	1.3006	3.79479
 206	1	2	0.084729	-6.04819	3.45143	7.30237
 207	1	4	-0.400138	-5.80494	2.38975	7.4067
 208	1	2	0.084733	-6.13895	1.99169	8.36841
 209	1	2	0.073714	-4.71968	2.25391	7.33542
 210	1	1	0.037815	-7.62187	1.98575	2.05209
 211	1	2	0.048876	-5.86557	-0.739562	4.30148
 212	1	1	-0.222978	-8.06666	1.45494	3.24778
 213	1	2	0.097895	-6.47452	-2.12292	3.39011
 214	1	3	0.054231	-7.45018	4.12593	1.63751
 215	1	3	0.054231	-6.66634	3.65451	3.14603
 216	1	4	-0.159568	-6.8761	3.32893	2.12295
 217	1	3	0.073528	-5.89424	3.31929	1.67727
 218	1	6	0.703056	-8.11715	-0.371372	3.46298
 219	1	2	0.084378	-5.93679	-0.646733	2.52082
 220	1	4	-0.422828	-6.4312	-1.02866	3.41966
 221	1	2	0.048873	-10.074	-0.971978	4.6748
 222	1	2	0.084374	-8.71218	-2.09238	4.99393
 223	1	4	-0.422813	-8.99931	-1.04131	4.87822
 224	1	2	0.097892	-8.75684	-0.481346	5.78012
 225	1	2	0.084729	-8.28953	-2.47941	2.36118
 226	1	4	-0.400138	-8.50176	-1.44732	2.06023
 227	1	2	0.084733	-9.567	-1.39418	1.82594
 228	1	2	0.073714	-7.8742	-1.18928	1.20154
 229	1	1	0.037815	-6.89334	1.34396	-0.213271
 230	1	2	0.048876	-10.7097	2.00766	2.29477
 231	1	1	-0.222978	-7.79104	1.37696	0.836084
 232	1	2	0.097895	-11.756	0.928122	1.34179
 233	1	3	0.054231	-8.00272	1.12102	-2.09075
 234	1	3	0.054231	-6.35419	0.573384	-2.19416
 235	1	4	-0.159568	-7.21845	0.618825	-1.51948
 236	1	3	0.073528	-7.50099	-0.42404	-1.33989
 237	1	6	0.703056	-9.54188	0.967948	0.495078
 238	1	2	0.084378	-10.6268	0.227859	2.52838
 239	1	4	-0.422828	-10.77	1.03353	1.80778
 240	1	2	0.048873	-11.1946	2.32864	-0.559118
 241	1	2	0.084374	-9.86623	3.30015	0.161903
 242	1	4	-0.422813	-10.1097	2.40548	-0.422278
 243	1	2	0.097892	-9.61606	2.43423	-1.39497
 244	1	2	0.084729	-11.1039	-0.418753	-0.636554
 245	1	4	-0.400138	-10.0204	-0.279316	-0.724492
 246	1	2	0.084733	-9.79503	0.0642452	-1.73721
 247	1	2	0.073714	-9.50908	-1.2222	-0.504906
 248	1	1	0.037815	-4.48909	1.09969	-0.26673
 249	1	2	0.048876	-5.72173	2.77436	-3.44698
 250	1	1	-0.222978	-5.63669	1.86546	-0.189342
 251	1	2	0.097895	-4.4793	4.0264	-3.10889
 252	1	3	0.054231	-4.53086	-0.937488	-1.08239
 253	1	3	0.054231	-5.66585	-0.716322	0.230445
 254	1	4	-0.159568	-4.67996	-0.414015	-0.132864
 255	1	3	0.073528	-4.01894	-0.820511	0.637134
 256	1	6	0.703056	-5.68842	3.38425	-1.14727
 257	1	2	0.084378	-4.19141	2.29771	-2.67342
 258	1	4	-0.422828	-4.93358	3.09435	-2.75575
 259	1	2	0.048873	-7.8632	4.17963	-0.53897
 260	1	2	0.084374	-7.20293	5.00635	-1.99092
 261	1	4	-0.422813	-7.3251	4.04442	-1.48114
 262	1	2	0.097892	-7.84936	3.3484	-2.14062
 263	1	2	0.084729	-3.70633	4.48448	-0.454862
 264	1	4	-0.400138	-4.75417	4.75042	-0.493453
 265	1	2	0.084733	-4.90559	5.59493	-1.1737
 266	1	2	0.073714	-5.13982	5.00348	0.49818
 267	1	1	0.037815	-2.75591	2.46517	0.736106
 268	1	2	0.048876	0.460848	0.261506	-1.33961
 269	1	1	-0.222978	-3.18953	1.58753	-0.232129
 270	1	2	0.097895	0.0731952	1.98855	-1.29068
 271	1	3	0.054231	-3.77518	3.21796	2.51675
 272	1	3	0.054231	-4.42507	1.697	2.02112
 273	1	4	-0.159568	-3.49761	2.26545	2.05939
 274	1	3	0.073528	-2.90574	1.65781	2.74462
 275	1	6	0.703056	-1.86663	0.592038	-1.00771
 276	1	2	0.084378	0.104968	1.04143	0.224768
 277	1	4	-0.422828	-0.137566	1.03025	-0.837453
 278	1	2	0.048873	-1.77664	-1.0526	0.732668
 279	1	2	0.084374	-2.55108	-1.72032	-0.763192
 280	1	4	-0.422813	-1.75137	-1.09265	-0.362854
 281	1	2	0.097892	-0.791552	-1.50832	-0.68922
 282	1	2	0.084729	-1.52199	-0.517854	-3.08461
 283	1	4	-0.400138	-2.27633	0.184111	-2.71115
 284	1	2	0.084733	-3.2702	-0.271532	-2.74691
 285	1	2	0.073714	-2.25884	1.10546	-3.30367
 286	1	1	0.037815	-1.15588	4.06059	-0.349369
 287	1	2	0.048876	1.20559	4.53912	1.67992
 288	1	1	-0.222978	-1.69556	3.37573	0.739568
 289	1	2	0.097895	0.242678	5.73684	2.63908
 290	1	3	0.054231	-1.94331	4.72309	-2.26758
 291	1	3	0.054231	-0.820325	3.3868	-2.4211
 292	1	4	-0.159568	-1.60622	3.79925	-1.79054
 293	1	3	0.073528	-2.45526	3.14614	-1.88723
 294	1	6	0.703056	-0.84383	3.61826	2.36705
 295	1	2	0.084378	1.10319	4.40318	3.4489
 296	1	4	-0.422828	0.567667	4.70122	2.54048
 297	1	2	0.048873	-0.986815	4.01575	4.71389
 298	1	2	0.084374	-2.57636	4.25711	3.94725
 299	1	4	-0.422813	-1.69165	3.61532	3.97611
 300	1	2	0.097892	-1.95915	2.6	4.28097
 301	1	2	0.084729	-0.787247	1.21452	2.43325
 302	1	4	-0.400138	-0.0714472	2.01428	2.64659
 303	1	2	0.084733	0.798395	1.93344	1.98814
 304	1	2	0.073714	0.262111	1.96118	3.68922
 305	1	1	0.037815	0.404397	5.78558	-1.15299
 306	1	2	0.048876	-3.17566	8.04481	-0.0146233
 307	1	1	-0.222978	-0.539114	5.29569	-0.258895
 308	1	2	0.097895	-1.86442	7.94084	-1.217
 309	1	3	0.054231	1.27824	7.55128	-0.153902
 310	1	3	0.054231	1.74204	7.40586	-1.80528
 311	1	4	-0.159568	0.892007	7.24809	-1.12775
 312	1	3	0.073528	0.140956	7.96828	-1.45437
 313	1	6	0.703056	-1.45385	6.55224	0.722285
 314	1	2	0.084378	-3.02464	6.6034	-1.07374
 315	1	4	-0.422828	-2.47753	7.36867	-0.52169
 316	1	2	0.048873	-2.26799	6.00843	2.88671
 317	1	2	0.084374	-3.45899	6.92415	1.93624
 318	1	4	-0.422813	-2.73308	6.10396	1.90244
 319	1	2	0.097892	-3.23445	5.18802	1.59586
 320	1	2	0.084729	-0.45403	8.74453	0.556512
 321	1	4	-0.400138	-0.638936	8.0305	1.36456
 322	1	2	0.084733	-1.31859	8.49002	2.09104
 323	1	2	0.073714	0.294318	7.74538	1.86179
 324	1	1	0.037815	1.04028	5.37237	-3.41227
 325	1	2	0.048876	4.64354	5.31093	-2.15865
 326	1	1	-0.222978	1.1276	5.05443	-2.0564
 327	1	2	0.097895	4.87269	3.74675	-1.32303
 328	1	3	0.054231	0.255149	7.38555	-3.8864
 329	1	3	0.054231	-0.663226	6.04876	-4.6245
 330	1	4	-0.159568	-0.097939	6.36133	-3.75385
 331	1	3	0.073528	-0.902557	6.43496	-3.02056
 332	1	6	0.703056	2.64868	4.51291	-1.21053
 333	1	2	0.084378	4.1143	3.78902	-2.93625
 334	1	4	-0.422828	4.2242	4.31173	-2.00175
 335	1	2	0.048873	3.86559	5.08748	0.772075
 336	1	2	0.084374	3.55522	6.50336	-0.275019
 337	1	4	-0.422813	3.11513	5.59778	0.15753
 338	1	2	0.097892	2.25334	5.86893	0.761998
 339	1	2	0.084729	3.1072	2.93689	0.513539
 340	1	4	-0.400138	2.33843	3.02537	-0.261925
 341	1	2	0.084733	1.34834	3.10689	0.187353
 342	1	2	0.073714	2.38665	2.16178	-0.931768
 343	1	1	0.037815	2.22653	3.60782	-4.74279
 344	1	2	0.048876	1.67266	8.25032	-5.10274
 345	1	1	-0.222978	1.65053	4.85097	-4.55397
 346	1	2	0.097895	3.13428	7.38882	-4.52308
 347	1	3	0.054231	1.73941	1.54806	-4.18874
 348	1	3	0.054231	3.02966	2.18343	-3.25511
 349	1	4	-0.159568	2.08698	2.47543	-3.72186
 350	1	3	0.073528	1.35097	2.68729	-2.94905
 351	1	6	0.703056	1.85029	6.0035	-6.00315
 352	1	2	0.084378	3.06751	8.04574	-6.19156
 353	1	4	-0.422828	2.48853	7.58	-5.38611
 354	1	2	0.048873	2.97482	6.44376	-8.06294
 355	1	2	0.084374	3.83597	5.19643	-7.12795
 356	1	4	-0.422813	2.85626	5.55079	-7.43826
 357	1	2	0.097892	2.35139	4.77516	-8.01307
 358	1	2	0.084729	-0.155351	7.39114	-6.11647
 359	1	4	-0.400138	0.388458	6.72702	-6.79254
 360	1	2	0.084733	0.75322	7.33106	-7.63151
 361	1	2	0.073714	-0.253387	5.93369	-7.18365
 362	1	1	0.037815	3.33808	2.50034	-6.63364
 363	1	2	0.048876	0.596432	0.516123	-5.71515
 364	1	1	-0.222978	2.24807	3.07415	-5.99402
 365	1	2	0.097895	-1.00886	0.941438	-6.38335
 366	1	3	0.054231	2.37158	0.673224	-7.34596
 367	1	3	0.054231	2.47919	1.97044	-8.58971
 368	1	4	-0.159568	2.96729	1.49172	-7.74286
 369	1	3	0.073528	3.78817	0.93612	-8.20115
 370	1	6	0.703056	0.513267	2.77062	-6.56184
 371	1	2	0.084378	0.318085	0.555753	-7.49782
 372	1	4	-0.422828	0.0732301	1.01656	-6.53572
 373	1	2	0.048873	-1.75356	2.91859	-5.84246
 374	1	2	0.084374	-0.605108	3.36699	-4.54218
 375	1	4	-0.422813	-0.834432	3.46521	-5.60397
 376	1	2	0.097892	-0.965351	4.50267	-5.89865
 377	1	2	0.084729	-0.947935	3.10622	-8.39846
 378	1	4	-0.400138	0.143652	3.09242	-8.30286
 379	1	2	0.084733	0.536603	4.06992	-8.59395
 380	1	2	0.073714	0.531465	2.30055	-8.94734
 381	1	1	0.037815	5.60761	2.19704	-7.34663
 382	1	2	0.048876	5.59873	2.43751	-3.52477
 383	1	1	-0.222978	4.70809	2.64626	-6.41448
 384	1	2	0.097895	7.14255	2.39898	-4.42057
 385	1	3	0.054231	5.40351	2.23126	-9.54101
 386	1	3	0.054231	6.08765	3.7354	-8.83008
 387	1	4	-0.159568	5.38263	2.91409	-8.68795
 388	1	3	0.073528	4.4136	3.41985	-8.75687
 389	1	6	0.703056	5.59457	3.88269	-5.42169
 390	1	2	0.084378	6.78033	3.79126	-3.3589
 391	1	4	-0.422828	6.35614	3.04082	-4.03504
 392	1	2	0.048873	7.71538	4.97936	-5.51061
 393	1	2	0.084374	7.58872	3.7168	-6.77369
 394	1	4	-0.422813	7.06286	4.51172	-6.25697
 395	1	2	0.097892	6.7348	5.26401	-6.9826
 396	1	2	0.084729	5.65089	5.81029	-4.07525
 397	1	4	-0.400138	4.91902	5.41431	-4.788
 398	1	2	0.084733	4.83519	6.12756	-5.61191
 399	1	2	0.073714	3.97461	5.27874	-4.29147
 400	1	1	0.037815	6.76052	0.48249	-6.06047
 401	1	2	0.048876	9.53626	-0.270206	-7.73017
 402	1	1	-0.222978	6.72392	1.39944	-7.10533
 403	1	2	0.097895	9.94834	0.367296	-9.32801
 404	1	3	0.054231	4.89351	0.503425	-4.8917
 405	1	3	0.054231	5.38046	-1.11705	-5.37331
 406	1	4	-0.159568	5.37265	-0.0760556	-5.69003
 407	1	3	0.073528	4.70287	-0.107553	-6.54783
 408	1	6	0.703056	7.96146	1.32341	-8.46783
 409	1	2	0.084378	10.2846	1.34565	-7.88599
 410	1	4	-0.422828	9.59524	0.617814	-8.32164
 411	1	2	0.048873	6.42856	0.489292	-10.131
 412	1	2	0.084374	8.03185	-0.294107	-10.2342
 413	1	4	-0.422813	7.25318	0.0652377	-9.55229
 414	1	2	0.097892	6.88225	-0.758445	-8.93593
 415	1	2	0.084729	9.11694	2.48813	-10.1872
 416	1	4	-0.400138	8.19227	2.68351	-9.63284
 417	1	2	0.084733	7.36336	2.72517	-10.3452
 418	1	2	0.073714	8.29453	3.6191	-9.07142
 419	1	1	0.037815	7.66382	-1.13857	-4.51706
 420	1	2	0.048876	11.1497	-0.120966	-6.41949
 421	1	1	-0.222978	7.84486	-0.158207	-5.47082
 422	1	2	0.097895	11.6905	0.412289	-4.81505
 423	1	3	0.054231	6.01748	-1.03672	-3.07987
 424	1	3	0.054231	7.60931	-0.694419	-2.3527
 425	1	4	-0.159568	7.00055	-0.588046	-3.24868
 426	1	3	0.073528	6.80151	0.482927	-3.31758
 427	1	6	0.703056	9.35769	0.807219	-5.10206
 428	1	2	0.084378	10.7639	-1.10288	-4.96867
 429	1	4	-0.422828	10.8899	-0.0988194	-5.36076
 430	1	2	0.048873	10.6714	2.73918	-5.50376
 431	1	2	0.084374	9.32252	2.66512	-6.66088
 432	1	4	-0.422813	9.60661	2.50979	-5.6257
 433	1	2	0.097892	9.02964	3.16049	-4.96328
 434	1	2	0.084729	8.82876	1.39992	-2.84289
 435	1	4	-0.400138	9.65293	0.86203	-3.32276
 436	1	2	0.084733	9.73686	-0.160199	-2.93876
 437	1	2	0.073714	10.5892	1.40272	-3.14435
 438	1	1	0.037815	8.24664	-3.1981	-5.77647
 439	1	2	0.048876	9.3609	-3.72787	-1.29304
 440	1	1	-0.222978	7.85297	-2.51559	-4.63453
 441	1	2	0.097895	9.90307	-2.52007	-2.49455
 442	1	3	0.054231	7.86306	-1.7493	-7.32347
 443	1	3	0.054231	8.77531	-3.08051	-7.91528
 444	1	4	-0.159568	8.63434	-2.45891	-7.02751
 445	1	3	0.073528	9.56592	-1.95813	-6.81772
 446	1	6	0.703056	7.78345	-3.52605	-3.08258
 447	1	2	0.084378	8.6462	-2.10554	-1.30421
 448	1	4	-0.422828	9.04529	-2.89991	-1.93813
 449	1	2	0.048873	6.56297	-2.36397	-1.32638
 450	1	2	0.084374	5.46864	-3.17903	-2.48064
 451	1	4	-0.422813	6.40816	-3.26348	-1.9294
 452	1	2	0.097892	6.37213	-4.13242	-1.26295
 453	1	2	0.084729	8.37617	-5.6026	-2.08373
 454	1	4	-0.400138	8.11254	-5.30436	-3.10454
 455	1	2	0.084733	7.2088	-5.84094	-3.39872
 456	1	2	0.073714	8.94861	-5.52926	-3.77208
 457	1	1	0.037815	9.01772	-5.31795	-6.73754
 458	1	2	0.048876	6.06697	-7.36734	-6.6764
 459	1	1	-0.222978	8.15388	-4.54751	-5.96993
 460	1	2	0.097895	6.48376	-7.3202	-4.91799
 461	1	3	0.054231	7.74171	-6.80487	-7.7645
 462	1	3	0.054231	9.36295	-7.34211	-7.56439
 463	1	4	-0.159568	8.58767	-6.75261	-7.07736
 464	1	3	0.073528	8.37634	-7.31751	-6.16366
 465	1	6	0.703056	6.40893	-5.10566	-5.84892
 466	1	2	0.084378	4.85108	-6.86066	-5.48667
 467	1	4	-0.422828	5.92017	-6.84452	-5.72746
 468	1	2	0.048873	5.46168	-3.11381	-4.8884
 469	1	2	0.084374	4.22461	-4.27429	-5.43227
 470	1	4	-0.422813	5.19044	-4.16586	-4.92572
 471	1	2	0.097892	5.11781	-4.60561	-3.92776
 472	1	2	0.084729	6.37488	-5.27811	-8.24869
 473	1	4	-0.400138	5.80452	-4.71845	-7.50407
 474	1	2	0.084733	4.74621	-4.99423	-7.56374
 475	1	2	0.073714	5.92775	-3.64236	-7.67208
 476	1	1	0.037815	10.6714	-5.3723	-8.47423
 477	1	2	0.048876	12.8559	-5.89251	-5.31636
 478	1	1	-0.222978	10.3005	-5.04198	-7.17666
 479	1	2	0.097895	13.5308	-5.0797	-6.7778
 480	1	3	0.054231	9.60303	-4.53337	-10.2131
 481	1	3	0.054231	9.41967	-6.30055	-10.0113
 482	1	4	-0.159568	9.51433	-5.3395	-9.49288
 483	1	3	0.073528	8.52484	-5.12995	-9.08389
 484	1	6	0.703056	11.4711	-4.12286	-6.14272
 485	1	2	0.084378	13.6371	-4.28539	-5.20367
 486	1	4	-0.422828	13.0285	-4.94369	-5.83398
 487	1	2	0.048873	12.5598	-3.2176	-8.05998
 488	1	2	0.084374	11.494	-2.01906	-7.32627
 489	1	4	-0.422813	12.2191	-2.80055	-7.11155
 490	1	2	0.097892	13.0579	-2.38029	-6.54586
 491	1	2	0.084729	11.9593	-3.18517	-4.03253
 492	1	4	-0.400138	11.0724	-3.65691	-4.47027
 493	1	2	0.084733	10.2618	-2.9464	-4.47989
 494	1	2	0.073714	10.8164	-4.55924	-3.90777
 495	1	1	0.037815	12.7048	-6.66431	-8.37437
 496	1	2	0.048876	14.4268	-6.20759	-10.9755
 497	1	1	-0.222978	11.9431	-5.65678	-8.95622
 498	1	2	0.097895	13.7063	-5.74103	-12.5205
 499	1	3	0.054231	11.4415	-7.02463	-6.56638
 500	1	3	0.054231	11.3112	-8.22962	-7.82765
 501	1	4	-0.159568	12.0028	-7.54727	-7.33321
 502	1	3	0.073528	12.6999	-8.11058	-6.70606
 503	1	6	0.703056	12.3336	-5.08741	-10.6696
 504	1	2	0.084378	14.501	-4.50425	-11.5286
 505	1	4	-0.422828	13.9026	-5.41983	-11.4928
 506	1	2	0.048873	10.3376	-4.95313	-12.0628
 507	1	2	0.084374	11.6877	-5.71533	-12.9037
 508	1	4	-0.422813	11.1648	-5.65892	-11.9443
 509	1	2	0.097892	10.7878	-6.65045	-11.692
 510	1	2	0.084729	11.9149	-3.08503	-11.9072
 511	1	4	-0.400138	11.9607	-3.32495	-10.8392
 512	1	2	0.084733	11.0126	-3.0826	-10.3548
 513	1	2	0.073714	12.7541	-2.74084	-10.3652
 514	1	1	0.037815	14.4493	-8.33035	-8.34553
 515	1	2	0.048876	15.5548	-5.62018	-6.19899
 516	1	1	-0.222978	14.0229	-7.02761	-8.56412
 517	1	2	0.097895	17.0085	-6.3677	-6.94577
 518	1	3	0.054231	15.4131	-7.8309	-6.45555
 519	1	3	0.054231	15.5505	-9.47781	-6.7926
 520	1	4	-0.159568	15.5608	-8.50799	-7.29917
 521	1	3	0.073528	16.5637	-8.38795	-7.71933
 522	1	6	0.703056	15.3446	-5.73584	-8.60108
 523	1	2	0.084378	16.7654	-4.61199	-7.03882
 524	1	4	-0.422828	16.2551	-5.58158	-7.03874
 525	1	2	0.048873	17.3264	-5.3537	-9.87927
 526	1	2	0.084374	17.4089	-6.91687	-9.0166
 527	1	4	-0.422813	16.7637	-6.25073	-9.59592
 528	1	2	0.097892	16.4083	-6.76631	-10.4925
 529	1	2	0.084729	15.9771	-3.48734	-8.97092
 530	1	4	-0.400138	15.0122	-3.97931	-8.80556
 531	1	2	0.084733	14.3652	-3.7711	-9.64314
 532	1	2	0.073714	14.5869	-3.59651	-7.87714
 533	1	1	0.037815	14.5889	-10.6709	-8.65162
 534	1	2	0.048876	13.2566	-7.99624	-12.161
 535	1	1	-0.222978	13.8909	-9.51238	-8.81668
 536	1	2	0.097895	14.7511	-8.14246	-11.1446
 537	1	3	0.054231	15.9973	-9.69015	-10.0385
 538	1	3	0.054231	16.7941	-10.7024	-8.90388
 539	1	4	-0.159568	15.8795	-10.6313	-9.48877
 540	1	3	0.073528	15.8814	-11.4032	-10.2644
 541	1	6	0.703056	13.0334	-9.59776	-10.4002
 542	1	2	0.084378	14.3678	-9.3929	-12.3504
 543	1	4	-0.422828	13.9399	-8.67591	-11.641
 544	1	2	0.048873	11.0498	-8.91052	-11.5011
 545	1	2	0.084374	10.7202	-9.45524	-9.82625
 546	1	4	-0.422813	11.3949	-8.87363	-10.4612
 547	1	2	0.097892	11.443	-7.84656	-10.1222
 548	1	2	0.084729	13.9027	-11.6486	-11.2777
 549	1	4	-0.400138	12.8978	-11.2632	-11.0793
 550	1	2	0.084733	12.3759	-11.9086	-10.3697
 551	1	2	0.073714	12.3354	-11.1992	-12.0178
 552	1	1	0.037815	13.0609	-11.8672	-7.13004
 553	1	2	0.048876	15.9407	-13.609	-9.77261
 554	1	1	-0.222978	14.2672	-11.7191	-7.80003
 555	1	2	0.097895	17.3873	-12.7434	-9.10945
 556	1	3	0.054231	10.9138	-11.4303	-7.06
 557	1	3	0.054231	11.9468	-10.0393	-7.07215
 558	1	4	-0.159568	11.8424	-11.0267	-7.47692
 559	1	3	0.073528	11.6648	-10.9659	-8.54558
 560	1	6	0.703056	15.5943	-12.9332	-7.49709
 561	1	2	0.084378	17.0562	-14.4242	-8.63437
 562	1	4	-0.422828	16.594	-13.4677	-8.90399
 563	1	2	0.048873	16.5095	-11.903	-5.53968
 564	1	2	0.084374	17.7401	-12.8053	-6.46281
 565	1	4	-0.422813	16.8922	-12.1155	-6.54035
 566	1	2	0.097892	17.2129	-11.1849	-7.00748
 567	1	2	0.084729	16.2575	-14.9167	-6.41609
 568	1	4	-0.400138	15.3063	-14.3852	-6.52992
 569	1	2	0.084733	14.9431	-14.0615	-5.55674
 570	1	2	0.073714	14.5855	-15.0057	-7.06474
 571	1	1	0.037815	12.1127	-14.0494	-6.75139
 572	1	2	0.048876	12.4566	-10.0309	-3.51421
 573	1	1	-0.222978	12.6846	-12.8675	-6.27285
 574	1	2	0.097895	13.1539	-9.90363	-5.16125
 575	1	3	0.054231	13.0921	-14.0521	-8.72608
 576	1	3	0.054231	11.5715	-14.8966	-8.77296
 577	1	4	-0.159568	12.0839	-14.0767	-8.29674
 578	1	3	0.073528	11.5286	-13.2292	-8.70277
 579	1	6	0.703056	12.5501	-12.1566	-4.60515
 580	1	2	0.084378	11.3695	-10.0995	-4.93236
 581	1	4	-0.422828	12.364	-10.3618	-4.55522
 582	1	2	0.048873	11.9394	-13.6151	-2.82592
 583	1	2	0.084374	11.1801	-12.0002	-2.69249
 584	1	4	-0.422813	11.4537	-12.812	-3.37575
 585	1	2	0.097892	10.5838	-13.1581	-3.92965
 586	1	2	0.084729	14.8135	-11.4516	-4.48765
 587	1	4	-0.400138	14.1849	-12.0889	-3.86029
 588	1	2	0.084733	14.0822	-11.6395	-2.86592
 589	1	2	0.073714	14.6093	-13.09	-3.76911
 590	1	1	0.037815	11.6041	-15.3882	-4.73221
 591	1	2	0.048876	10.8279	-17.0458	-9.2229
 592	1	1	-0.222978	11.5386	-15.1273	-6.06799
 593	1	2	0.097895	9.62753	-17.7374	-8.0834
 594	1	3	0.054231	13.6946	-15.7051	-5.20869
 595	1	3	0.054231	13.4663	-14.8804	-3.67358
 596	1	4	-0.159568	13.0518	-15.6385	-4.33874
 597	1	3	0.073528	13.1978	-16.629	-3.91223
 598	1	6	0.703056	11.4593	-16.7448	-6.92368
 599	1	2	0.084378	9.71193	-15.9592	-8.33984
 600	1	4	-0.422828	10.284	-16.8852	-8.28449
 601	1	2	0.048873	13.8244	-17.0442	-7.15471
 602	1	2	0.084374	12.8986	-18.0367	-8.31497
 603	1	4	-0.422813	12.984	-17.045	-7.85723
 604	1	2	0.097892	13.1461	-16.307	-8.64269
 605	1	2	0.084729	12.4222	-18.5031	-5.65855
 606	1	4	-0.400138	11.394	-18.2421	-5.93247
 607	1	2	0.084733	10.8147	-18.0775	-5.03282
 608	1	2	0.073714	10.9543	-19.041	-6.53952
 609	1	1	0.037815	9.22103	-15.8741	-4.21629
 610	1	2	0.048876	10.4423	-17.0106	0.00895558
 611	1	1	-0.222978	10.5772	-15.8634	-3.91293
 612	1	2	0.097895	9.39982	-15.7331	-0.682248
 613	1	3	0.054231	8.40029	-17.5455	-3.0558
 614	1	3	0.054231	8.03162	-15.943	-2.3665
 615	1	4	-0.159568	8.16875	-16.5013	-3.29172
 616	1	3	0.073528	7.16964	-16.518	-3.74384
 617	1	6	0.703056	11.0546	-16.5083	-2.23744
 618	1	2	0.084378	9.14775	-17.4812	-1.10207
 619	1	4	-0.422828	9.87787	-16.6988	-0.877488
 620	1	2	0.048873	12.2423	-18.3714	-3.20376
 621	1	2	0.084374	11.6876	-18.6976	-1.53372
 622	1	4	-0.422813	11.414	-18.2562	-2.49862
 623	1	2	0.097892	10.5141	-18.7415	-2.89059
 624	1	2	0.084729	12.6331	-14.9062	-1.37303
 625	1	4	-0.400138	12.5916	-15.9979	-1.42032
 626	1	2	0.084733	12.5605	-16.3962	-0.400381
 627	1	2	0.073714	13.4758	-16.4116	-1.91005
 628	1	1	0.037815	7.85412	-15.7942	-6.25415
 629	1	2	0.048876	7.91256	-12.2557	-6.57583
 630	1	1	-0.222978	8.67155	-15.2462	-5.28456
 631	1	2	0.097895	8.05928	-11.3719	-5.03092
 632	1	3	0.054231	6.60568	-14.335	-7.36657
 633	1	3	0.054231	8.35192	-14.0947	-7.52013
 634	1	4	-0.159568	7.56423	-14.848	-7.41817
 635	1	3	0.073528	7.60372	-15.3736	-8.37813
 636	1	6	0.703056	7.89829	-13.7113	-4.65672
 637	1	2	0.084378	9.47807	-12.2634	-5.67978
 638	1	4	-0.422828	8.38952	-12.254	-5.59082
 639	1	2	0.048873	5.70052	-12.972	-4.10551
 640	1	2	0.084374	5.81636	-13.311	-5.84025
 641	1	4	-0.422813	6.09906	-13.6717	-4.84973
 642	1	2	0.097892	5.70245	-14.6753	-4.65996
 643	1	2	0.084729	7.43584	-13.899	-2.32331
 644	1	4	-0.400138	8.12777	-13.2906	-2.91388
 645	1	2	0.084733	9.14845	-13.4697	-2.58077
 646	1	2	0.073714	7.85621	-12.2359	-2.78796
 647	1	1	0.037815	7.98937	-18.1462	-5.76016
 648	1	2	0.048876	5.55726	-15.6258	-8.97622
 649	1	1	-0.222978	7.44549	-17.1017	-6.42326
 650	1	2	0.097895	4.14781	-16.677	-8.69109
 651	1	3	0.054231	6.7224	-19.8285	-5.22729
 652	1	3	0.054231	7.62609	-20.0553	-6.76514
 653	1	4	-0.159568	7.65701	-19.6234	-5.76208
 654	1	3	0.073528	8.43544	-20.1749	-5.21982