pySIMM System Object

287 atoms
286 bonds
540 angles
701 dihedrals
0 impropers

7 atom types
8 bond types
13 angle types
5 dihedral types

-87.749737 87.749737 xlo xhi
-87.749737 87.749737 ylo yhi
-87.749737 87.749737 zlo zhi

Masses

   1	12.01	# c2
   2	1.008	# h1
   3	1.008	# hc
   4	12.01	# c3
   5	1.008	# ha
   6	32.06	# s6
   7	1.008	# h4

Pair Coeffs

   1	0.086	3.3996695084235347	# c2
   2	0.0157	2.471353044121301	# h1
   3	0.0157	2.649532787749369	# hc
   4	0.1094	3.3996695084235347	# c3
   5	0.015	2.59964245953351	# ha
   6	0.25	3.563594872561357	# s6
   7	0.015	2.5105525877194763	# h4

Bond Coeffs

   1	344.6	1.0868	# c2,h4
   2	343.1	1.0879	# c2,ha
   3	233.5	1.8075	# c3,s6
   4	569.4	1.3343	# c2,c2
   5	326.8	1.5095	# c2,c3
   6	263.2	1.76	# c2,s6
   7	330.6	1.0969	# c3,hc
   8	330.6	1.0969	# c3,h1

Angle Coeffs

   1	62.73	120.01	# c2,c2,s6
   2	45.94	115.68	# c3,c2,ha
   3	43.19	107.15	# h1,c3,s6
   4	46.99	110.36	# c2,c3,hc
   5	39.4	107.58	# hc,c3,hc
   6	60.63	104.05	# c2,s6,c3
   7	59.92	103.83	# c3,s6,c3
   8	42.79	115.45	# h4,c2,s6
   9	39.24	108.46	# h1,c3,h1
  10	64.06	123.63	# c2,c2,c3
  11	49.4	122.67	# c2,c2,h4
  12	49.85	120.43	# c2,c2,ha
  13	69.3	121.81	# c2,c2,c2

Dihedral Coeffs

   1	1	6.65	2	180	# X,c2,c2,X
   2	1	0.14444444444444446	3	0	# X,c3,s6,X
   3	1	0.0	2	0	# X,c2,c3,X
   4	3	0.38	3	180	0.0	2	0	1.15	1	0	# hc,c3,c2,c2
   5	1	6.6499999999999995	2	180	# X,c2,s6,X

Atoms

   1	1	1	0.037815	5.85436	-6.93709	-3.65404
   2	1	2	0.048876	3.70164	-8.60971	-6.44864
   3	1	1	-0.222978	5.15764	-8.06408	-3.90483
   4	1	2	0.097895	2.00921	-8.16206	-6.03421
   5	1	3	0.054231	5.77331	-4.79437	-4.04719
   6	1	3	0.054231	4.40529	-5.64532	-4.6201
   7	1	4	-0.159568	5.10786	-5.61927	-3.78298
   8	1	3	0.073528	4.54076	-5.35926	-2.88709
   9	1	6	0.703056	3.40024	-8.24639	-4.11118
  10	1	2	0.084378	3.28455	-6.89704	-6.08282
  11	1	4	-0.422828	3.06788	-7.94467	-5.85104
  12	1	2	0.048873	1.81533	-10.0254	-4.15767
  13	1	2	0.084374	3.4813	-10.5778	-4.56266
  14	1	4	-0.422813	2.87797	-9.94901	-3.89812
  15	1	2	0.097892	3.03998	-10.23	-2.85159
  16	1	2	0.084729	1.28386	-7.37493	-3.47375
  17	1	4	-0.400138	2.31751	-7.04783	-3.31142
  18	1	2	0.084733	2.54396	-7.03315	-2.23927
  19	1	2	0.073714	2.45679	-6.05706	-3.7538
  20	1	1	0.037815	7.91272	-5.8297	-3.14899
  21	1	2	0.048876	10.4149	-7.31049	-4.2085
  22	1	1	-0.222978	7.20901	-6.94401	-3.47422
  23	1	2	0.097895	10.1735	-8.00659	-2.56209
  24	1	3	0.054231	8.51705	-4.07207	-4.30642
  25	1	3	0.054231	9.66583	-5.39668	-4.42021
  26	1	4	-0.159568	8.60125	-5.16383	-4.3453
  27	1	3	0.073528	8.13615	-5.47173	-5.29083
  28	1	6	0.703056	8.2541	-8.3415	-3.93352
  29	1	2	0.084378	10.512	-9.07533	-3.96492
  30	1	4	-0.422828	10.0199	-8.15265	-3.63682
  31	1	2	0.048873	8.66937	-10.6064	-3.33214
  32	1	2	0.084374	7.38949	-9.88839	-2.30798
  33	1	4	-0.422813	7.7732	-9.97525	-3.32801
  34	1	2	0.097892	7.0268	-10.422	-3.99176
  35	1	2	0.084729	8.53189	-9.5494	-5.96888
  36	1	4	-0.400138	7.99036	-8.63885	-5.68844
  37	1	2	0.084733	6.91737	-8.76309	-5.86955
  38	1	2	0.073714	8.37412	-7.77887	-6.24771
  39	1	1	0.037815	8.63515	-4.12727	-1.61352
  40	1	2	0.048876	6.3907	-8.17622	-1.33438
  41	1	1	-0.222978	7.79692	-5.16194	-1.95353
  42	1	2	0.097895	8.14349	-8.16634	-0.877407
  43	1	3	0.054231	10.634	-4.55329	-0.868351
  44	1	3	0.054231	10.2633	-5.47691	-2.2466
  45	1	4	-0.159568	10.1118	-4.47845	-1.82336
  46	1	3	0.073528	10.6338	-3.78269	-2.4875
  47	1	6	0.703056	7.1299	-6.04242	-0.526788
  48	1	2	0.084378	6.87086	-8.21503	0.386383
  49	1	4	-0.422828	7.13431	-7.83705	-0.607944
  50	1	2	0.048873	7.54982	-6.24716	1.80398
  51	1	2	0.084374	8.97189	-5.58853	0.908136
  52	1	4	-0.422813	7.88204	-5.56002	1.01744
  53	1	2	0.097892	7.53011	-4.55734	1.22459
  54	1	2	0.084729	5.21895	-4.64485	-0.333125
  55	1	4	-0.400138	5.38592	-5.72088	-0.272234
  56	1	2	0.084733	4.81342	-6.26692	-1.0254
  57	1	2	0.073714	5.12047	-6.09133	0.724595
  58	1	1	0.037815	6.99658	-2.45068	-1.01797
  59	1	2	0.048876	9.85128	-1.85842	-2.89241
  60	1	1	-0.222978	8.26392	-2.96609	-0.948237
  61	1	2	0.097895	9.50453	-0.20418	-2.32297
  62	1	3	0.054231	5.52419	-2.02496	-2.67174
  63	1	3	0.054231	5.70301	-3.66096	-2.20908
  64	1	4	-0.159568	6.2673	-2.74591	-2.33575
  65	1	3	0.073528	6.95911	-2.85404	-3.17787
  66	1	6	0.703056	9.55433	-1.74338	-0.501114
  67	1	2	0.084378	11.1403	-0.892191	-2.08318
  68	1	4	-0.422828	10.0688	-1.11934	-2.11578
  69	1	2	0.048873	9.94075	0.568224	-0.0757097
  70	1	2	0.084374	8.1992	0.210421	0.024747
  71	1	4	-0.422813	9.19335	-0.149721	0.281834
  72	1	2	0.097892	9.30464	-0.231985	1.36263
  73	1	2	0.084729	10.9745	-3.07375	0.890324
  74	1	4	-0.400138	11.1504	-2.31889	0.115256
  75	1	2	0.084733	11.7507	-2.72234	-0.706131
  76	1	2	0.073714	11.6695	-1.45649	0.548462
  77	1	1	0.037815	5.50115	-0.664384	-0.650926
  78	1	2	0.048876	8.71942	-3.01449	1.62528
  79	1	1	-0.222978	6.37264	-1.59902	-0.134235
  80	1	2	0.097895	8.82929	-1.59824	2.71951
  81	1	3	0.054231	6.19058	1.27209	-1.36923
  82	1	3	0.054231	7.25207	-0.0174282	-1.83349
  83	1	4	-0.159568	6.19486	0.226059	-1.69683
  84	1	3	0.073528	5.78568	0.165599	-2.70199
  85	1	6	0.703056	6.67287	-1.6809	1.66003
  86	1	2	0.084378	7.92048	-3.02585	3.21111
  87	1	4	-0.422828	8.18812	-2.40264	2.35102
  88	1	2	0.048873	6.44104	-0.367473	3.62792
  89	1	2	0.084374	6.83567	0.632722	2.18067
  90	1	4	-0.422813	6.23647	-0.200845	2.56389
  91	1	2	0.097892	5.17578	-0.0207875	2.41013
  92	1	2	0.084729	5.8137	-3.05733	3.41134
  93	1	4	-0.400138	5.56945	-2.917	2.35289
  94	1	2	0.084733	4.55196	-2.55236	2.28232
  95	1	2	0.073714	5.67555	-3.85658	1.80704
  96	1	1	0.037815	3.40801	-1.13032	0.517163
  97	1	2	0.048876	4.18097	2.7657	-1.30097
  98	1	1	-0.222978	4.21476	-0.352526	-0.254198
  99	1	2	0.097895	4.61226	1.93875	-2.84104
 100	1	3	0.054231	3.9677	-2.67028	-0.957416
 101	1	3	0.054231	3.70042	-3.33512	0.619631
 102	1	4	-0.159568	3.36209	-2.55471	-0.0570388
 103	1	3	0.073528	2.37466	-2.82552	-0.417033
 104	1	6	0.703056	3.18477	0.588474	-1.42649
 105	1	2	0.084378	2.988	2.62285	-2.63644
 106	1	4	-0.422828	3.81713	2.13221	-2.11755
 107	1	2	0.048873	2.73713	-1.39999	-2.67942
 108	1	2	0.084374	2.36979	0.0879351	-3.60776
 109	1	4	-0.422813	3.09064	-0.396319	-2.93972
 110	1	2	0.097892	4.05217	-0.457991	-3.44597
 111	1	2	0.084729	1.07663	-0.305148	-0.826102
 112	1	4	-0.400138	1.42198	0.694736	-1.08793
 113	1	2	0.084733	1.22067	1.4057	-0.284723
 114	1	2	0.073714	0.922576	1.00575	-2.00976
 115	1	1	0.037815	2.43423	0.621167	1.99294
 116	1	2	0.048876	-0.75406	-2.79389	1.04156
 117	1	1	-0.222978	2.49897	-0.675647	1.4754
 118	1	2	0.097895	-0.485395	-1.10277	0.540659
 119	1	3	0.054231	2.91569	2.25849	0.64831
 120	1	3	0.054231	4.35611	1.49857	1.30054
 121	1	4	-0.159568	3.32606	1.77171	1.52539
 122	1	3	0.073528	3.43425	2.5359	2.29683
 123	1	6	0.703056	1.21233	-1.88426	2.04343
 124	1	2	0.084378	0.450332	-2.4202	-0.212711
 125	1	4	-0.422828	-0.00187742	-2.0671	0.712887
 126	1	2	0.048873	0.920859	-4.12052	2.80858
 127	1	2	0.084374	1.66508	-4.10291	1.19246
 128	1	4	-0.422813	1.66901	-3.62747	2.17742
 129	1	2	0.097892	2.6538	-3.7033	2.65022
 130	1	2	0.084729	0.527652	-1.72708	4.3479
 131	1	4	-0.400138	0.0473498	-1.55084	3.38331
 132	1	2	0.084733	-0.355174	-0.542219	3.29887
 133	1	2	0.073714	-0.775147	-2.26776	3.28112
 134	1	1	0.037815	1.02681	2.1221	3.35048
 135	1	2	0.048876	2.15586	-0.523699	6.89472
 136	1	1	-0.222978	1.73168	0.950393	3.12088
 137	1	2	0.097895	1.5696	1.13423	6.65731
 138	1	3	0.054231	-0.343554	1.09971	4.71363
 139	1	3	0.054231	-0.809512	2.72282	4.37383
 140	1	4	-0.159568	0.0731334	2.09597	4.54308
 141	1	3	0.073528	0.531881	2.44304	5.46805
 142	1	6	0.703056	2.39406	0.130547	4.62126
 143	1	2	0.084378	0.559276	-0.27504	6.13246
 144	1	4	-0.422828	1.57266	0.126731	6.23247
 145	1	2	0.048873	2.70232	-2.23154	4.33317
 146	1	2	0.084374	4.03466	-1.22589	3.63957
 147	1	4	-0.422813	3.35684	-1.36831	4.47223
 148	1	2	0.097892	3.93171	-1.49052	5.39709
 149	1	2	0.084729	4.38199	1.37897	4.19001
 150	1	4	-0.400138	3.72798	1.25425	5.05965
 151	1	2	0.084733	3.29432	2.21345	5.35751
 152	1	2	0.073714	4.29134	0.820332	5.8936
 153	1	1	0.037815	-0.331839	2.93718	1.53037
 154	1	2	0.048876	3.17562	3.94937	4.12794
 155	1	1	-0.222978	0.685663	3.11029	2.4586
 156	1	2	0.097895	3.50697	4.83054	2.596
 157	1	3	0.054231	-0.254248	0.755742	1.60326
 158	1	3	0.054231	-1.49141	1.29957	0.586986
 159	1	4	-0.159568	-0.990561	1.54864	1.52585
 160	1	3	0.073528	-1.70984	1.42588	2.34003
 161	1	6	0.703056	1.16695	4.76663	3.11658
 162	1	2	0.084378	3.11222	5.74102	4.08482
 163	1	4	-0.422828	2.92102	4.82159	3.51929
 164	1	2	0.048873	0.369416	7.00994	3.19052
 165	1	2	0.084374	1.5307	6.77655	1.86464
 166	1	4	-0.422813	0.675418	6.33539	2.38284
 167	1	2	0.097892	-0.162321	6.1879	1.7109
 168	1	2	0.084729	-0.340406	4.79901	5.00457
 169	1	4	-0.400138	0.725559	4.99805	4.85852
 170	1	2	0.084733	1.34132	4.34908	5.48755
 171	1	2	0.073714	0.933634	6.04043	5.12363
 172	1	1	0.037815	-2.06126	3.65583	-0.00107671
 173	1	2	0.048876	0.722252	7.10789	-0.568411
 174	1	1	-0.222978	-0.777579	3.78226	0.528919
 175	1	2	0.097895	-0.231556	6.47366	-1.93928
 176	1	3	0.054231	-1.99987	5.09829	-1.67789
 177	1	3	0.054231	-1.94105	3.38966	-2.17126
 178	1	4	-0.159568	-2.35122	4.09803	-1.44249
 179	1	3	0.073528	-3.41808	4.17605	-1.66072
 180	1	6	0.703056	0.479753	4.73011	-0.423799
 181	1	2	0.084378	-0.986482	6.62548	-0.314197
 182	1	4	-0.422828	-0.0630302	6.40128	-0.859596
 183	1	2	0.048873	2.8339	4.49524	-0.788613
 184	1	2	0.084374	2.46522	5.84835	0.298414
 185	1	4	-0.422813	2.21321	4.81257	0.0545056
 186	1	2	0.097892	2.39631	4.16898	0.900517
 187	1	2	0.084729	1.58249	4.38872	-2.51712
 188	1	4	-0.400138	0.607367	4.09656	-2.11336
 189	1	2	0.084733	0.524795	3.01064	-2.07586
 190	1	2	0.073714	-0.169862	4.51357	-2.75765
 191	1	1	0.037815	-4.19696	2.50155	0.132813
 192	1	2	0.048876	-4.75128	2.24156	3.24347
 193	1	1	-0.222978	-3.19672	3.2748	0.692129
 194	1	2	0.097895	-3.08061	2.28222	3.87722
 195	1	3	0.054231	-2.80694	1.47345	-1.24639
 196	1	3	0.054231	-4.29285	0.628992	-1.04285
 197	1	4	-0.159568	-3.87963	1.63333	-1.0977
 198	1	3	0.073528	-4.28477	2.07782	-2.01393
 199	1	6	0.703056	-3.45512	4.03021	2.30712
 200	1	2	0.084378	-4.28616	3.47144	4.46153
 201	1	4	-0.422828	-3.94991	2.88478	3.59911
 202	1	2	0.048873	-1.38378	4.61503	3.17641
 203	1	2	0.084374	-2.10108	5.93017	2.14942
 204	1	4	-0.422813	-2.26806	5.182	2.92962
 205	1	2	0.097892	-2.68054	5.6542	3.82765
 206	1	2	0.084729	-4.72481	5.88223	1.53563
 207	1	4	-0.400138	-4.90112	5.08237	2.26278
 208	1	2	0.084733	-5.75845	4.49278	1.9759
 209	1	2	0.073714	-5.05545	5.50609	3.26133
 210	1	1	0.037815	-6.48006	3.06737	0.115863
 211	1	2	0.048876	-7.51321	0.271963	-0.249281
 212	1	1	-0.222978	-5.45211	2.31684	0.648757
 213	1	2	0.097895	-6.00174	-0.481164	-0.831163
 214	1	3	0.054231	-5.21973	4.7853	-0.443882
 215	1	3	0.054231	-5.8699	3.89695	-1.82531
 216	1	4	-0.159568	-6.09114	4.23338	-0.806333
 217	1	3	0.073528	-6.8801	4.98642	-0.863009
 218	1	6	0.703056	-5.74333	0.648921	1.28159
 219	1	2	0.084378	-6.93099	-1.25681	0.484286
 220	1	4	-0.422828	-6.6337	-0.300285	0.0402937
 221	1	2	0.048873	-3.76002	0.227146	2.54343
 222	1	2	0.084374	-4.5682	-1.28431	2.01237
 223	1	4	-0.422813	-4.26021	-0.276998	1.70994
 224	1	2	0.097892	-3.59687	-0.331327	0.842059
 225	1	2	0.084729	-6.54481	0.857663	3.51226
 226	1	4	-0.400138	-6.95319	0.444648	2.58421
 227	1	2	0.084733	-7.87302	0.943803	2.29292
 228	1	2	0.073714	-7.14121	-0.627331	2.71159
 229	1	1	0.037815	-8.62443	2.81224	-0.82093
 230	1	2	0.048876	-10.8704	3.94853	1.40213
 231	1	1	-0.222978	-7.83588	2.95527	0.301781
 232	1	2	0.097895	-10.5816	2.40967	2.32102
 233	1	3	0.054231	-7.83639	2.99954	-2.85632
 234	1	3	0.054231	-7.08925	1.68814	-1.94284
 235	1	4	-0.159568	-8.02952	2.22603	-2.10588
 236	1	3	0.073528	-8.70892	1.50353	-2.567
 237	1	6	0.703056	-8.54851	3.57597	1.8675
 238	1	2	0.084378	-10.4967	3.98407	3.14859
 239	1	4	-0.422828	-10.308	3.46095	2.20426
 240	1	2	0.048873	-8.09619	2.45418	3.91606
 241	1	2	0.084374	-6.60321	3.12207	3.18593
 242	1	4	-0.422813	-7.64976	3.31338	3.40336
 243	1	2	0.097892	-7.75255	4.19588	4.04318
 244	1	2	0.084729	-9.16813	5.76695	1.19215
 245	1	4	-0.400138	-8.38996	5.37013	1.83857
 246	1	2	0.084733	-8.56637	5.7525	2.85012
 247	1	2	0.073714	-7.40091	5.66642	1.48321
 248	1	1	0.037815	-10.4522	4.2257	-1.27442
 249	1	2	0.048876	-9.65373	0.771606	1.39348
 250	1	1	-0.222978	-9.9687	2.99588	-0.895973
 251	1	2	0.097895	-10.917	-0.394793	0.896992
 252	1	3	0.054231	-9.93927	6.06896	-2.3413
 253	1	3	0.054231	-9.09786	5.90717	-0.801537
 254	1	4	-0.159568	-9.48115	5.34843	-1.6523
 255	1	3	0.073528	-8.62208	4.97452	-2.21339
 256	1	6	0.703056	-11.0115	1.59175	-0.388722
 257	1	2	0.084378	-9.46372	-0.18697	-0.122738
 258	1	4	-0.422828	-10.1644	0.319314	0.545277
 259	1	2	0.048873	-13.1532	0.974175	0.464211
 260	1	2	0.084374	-12.5369	2.44712	1.26432
 261	1	4	-0.422813	-12.6486	1.93407	0.305613
 262	1	2	0.097892	-13.2467	2.54548	-0.36826
 263	1	2	0.084729	-10.6867	0.694194	-2.59872
 264	1	4	-0.400138	-11.4497	0.584152	-1.82387
 265	1	2	0.084733	-11.5125	-0.461656	-1.50361
 266	1	2	0.073714	-12.4301	0.895398	-2.19941
 267	1	1	0.037815	-12.4298	3.64904	-2.36407
 268	1	2	0.048876	-12.0657	8.03382	0.217618
 269	1	1	-0.222978	-11.7454	4.50068	-1.57557
 270	1	2	0.097895	-11.0428	6.65621	0.736704
 271	1	3	0.054231	-14.4155	4.57995	-2.64349
 272	1	3	0.054231	-13.8257	3.63754	-4.00663
 273	1	4	-0.159568	-13.8433	3.69637	-2.91162
 274	1	3	0.073528	-14.4087	2.82471	-2.55994
 275	1	6	0.703056	-12.4377	6.0927	-1.10698
 276	1	2	0.084378	-10.6149	7.60833	-0.740936
 277	1	4	-0.422828	-11.4275	7.21077	-0.124544
 278	1	2	0.048873	-12.4772	6.88776	-3.3581
 279	1	2	0.084374	-14.1458	6.60458	-2.73762
 280	1	4	-0.422813	-13.1508	6.98649	-2.49879
 281	1	2	0.097892	-13.2313	8.03938	-2.20554
 282	1	2	0.084729	-13.6059	5.30317	0.80397
 283	1	4	-0.400138	-13.9187	5.78779	-0.128224
 284	1	2	0.084733	-14.3868	6.7541	0.091212
 285	1	2	0.073714	-14.6175	5.14241	-0.663565
 286	1	7	0	5.61075	-9.03498	-3.94572
 287	1	5	0	-11.8867	2.82189	-2.79889

Velocities

   1	0.000555899	0.000707782	-0.000382938
   2	0.00145461	-0.000694992	-0.000287291
   3	0.000316785	8.25795e-05	-0.000167066
   4	0.00159652	0.000861771	-0.00124107
   5	0.00029515	0.000641747	-0.000665007
   6	0.000539803	0.000434566	-0.00137195
   7	0.000150643	0.000551558	-0.00104932
   8	-0.000399803	0.000428414	-0.00127024
   9	0.000629944	-0.00051021	-0.000407051
  10	0.00284375	-0.000428541	-0.000494024
  11	0.00170282	-0.000216335	-0.000626401
  12	0.000223642	-0.000140612	0.000710322
  13	-0.000206183	-0.00137391	0.000992661
  14	0.000372951	-0.000525401	0.000452501
  15	0.000117902	0.000144532	0.000650114
  16	0.00112177	-0.00144953	0.00109424
  17	0.00112378	-0.000923963	0.000372308
  18	0.00222767	-0.00121506	0.000169412
  19	0.000614316	-0.0008391	0.000354083
  20	0.000290304	0.000971435	-2.337e-05
  21	-0.00115118	-0.00127962	-0.00271125
  22	-0.000384135	6.65515e-05	-0.000416494
  23	-0.000630786	0.00325323	-0.000469462
  24	0.000269627	0.000986982	0.000827132
  25	0.00123095	0.00148334	0.00172338
  26	0.000846852	0.000794239	0.000653658
  27	0.00205094	0.000982564	3.5128e-05
  28	-0.000528472	-0.000160073	0.000428376
  29	-0.000895708	-0.000752901	0.00232518
  30	-0.00076651	0.000190428	1.21961e-05
  31	-0.00144069	-0.000945789	-0.00044688
  32	-0.00135588	-0.000952548	-0.000214339
  33	-0.00111117	-0.000538982	-0.00015584
  34	-0.00120952	-0.000137182	-0.000580128
  35	0.00221575	0.00153187	-0.000135569
  36	0.000576722	0.000637473	0.000152997
  37	0.00096959	-0.000758714	-0.000574117
  38	-7.07216e-05	0.00153807	0.00104604
  39	-0.000149202	0.000590649	0.000689816
  40	-0.000551314	0.000624089	-0.000578364
  41	-0.000163124	-0.00011822	-0.000290046
  42	-0.000569003	0.000474274	-0.000576447
  43	-0.00103727	-0.000629646	0.00248808
  44	-0.000141034	-0.000710309	0.00216036
  45	4.4594e-05	-0.000664276	0.00184184
  46	0.000869304	-0.00096491	0.00237069
  47	-0.000362431	0.000335553	-0.000101512
  48	-0.000538533	0.000230806	-0.000548861
  49	-0.000558328	0.00036163	-0.000493299
  50	-0.00109335	-7.09974e-05	-5.91997e-05
  51	-0.000561589	-0.000458309	0.000432598
  52	-0.000583214	-6.96179e-05	0.000116143
  53	-0.000251638	6.72163e-05	0.000175228
  54	-2.11948e-05	0.000933807	-0.00145902
  55	-0.000308534	0.000936299	-0.000395205
  56	-0.000473675	0.000411725	0.000113668
  57	-0.000349619	0.00227915	7.80571e-05
  58	-0.00125409	0.000475512	0.000416042
  59	0.00178258	-0.00119394	8.13618e-05
  60	0.000238092	-0.000353035	-0.000230637
  61	-0.0025161	-0.00147984	-0.00159158
  62	-0.00150816	-0.000960283	0.000849294
  63	-0.00123903	-0.000790181	0.00113042
  64	-0.00113191	-0.000864082	0.000579808
  65	-0.00188332	-0.00109802	0.000255966
  66	-0.000450987	0.000310542	-0.000210305
  67	-0.00113624	0.00244791	0.000318185
  68	-0.000584861	-1.80591e-05	-0.000366882
  69	-0.00100987	0.000477967	-0.000980162
  70	-0.00084139	-0.000204623	-6.18595e-05
  71	-0.000524452	0.000277189	-0.000435569
  72	1.11435e-05	0.000474004	-0.000467301
  73	0.000192853	0.000694455	-0.000349366
  74	-0.000155588	0.00048867	-0.000571627
  75	-0.000432872	0.000293373	-0.000680454
  76	1.11224e-06	0.000620851	-0.00098527
  77	-0.00130339	0.000141235	3.91985e-05
  78	-2.74729e-05	0.00022301	-0.000634226
  79	0.000193596	-0.000800277	-4.43872e-05
  80	0.000148841	0.00013091	-0.000528579
  81	-0.00056716	-0.000523362	-0.000467404
  82	-0.00101369	-0.000826298	-0.000539648
  83	-0.000805524	-0.000667602	-0.000232938
  84	-0.00123838	-0.00077897	-0.000133916
  85	-0.000258207	-2.71675e-05	9.1458e-05
  86	0.000542403	-0.000108872	-0.000457929
  87	0.000140474	9.07792e-05	-0.00041447
  88	0.000198887	0.000217774	-6.78981e-05
  89	-0.00113295	6.32961e-05	-0.000572561
  90	-0.00044309	-0.000169635	9.66328e-06
  91	-0.00065127	-0.000677821	0.000475746
  92	0.000853692	-0.00101837	-5.76642e-05
  93	0.000294074	-0.000500239	0.000144491
  94	0.000177187	-0.000705698	0.00083159
  95	0.000138855	-0.0002451	-0.000340246
  96	-0.000836259	-0.00023899	0.00069385
  97	0.000380844	-0.00137468	0.000367706
  98	-0.000161684	-0.000500004	-0.000140393
  99	-0.00147014	-0.000769788	-0.000522328
 100	-0.00139981	-0.000161075	-0.000136148
 101	0.00080206	-0.00014562	0.000288088
 102	-0.000331176	-0.000515441	0.00045288
 103	-0.000548207	-0.00124803	0.0016447
 104	-0.000892014	-0.000561978	8.34621e-05
 105	-0.000999831	0.00012039	0.00142044
 106	-0.000703915	-0.00063189	0.000295267
 107	-0.00122891	-0.000695801	0.000259677
 108	-0.00120262	-0.000764694	8.50094e-05
 109	-0.00118023	-0.000713178	0.000135439
 110	-0.00128519	-0.000899215	4.63362e-05
 111	-0.00111107	0.000831548	0.00119266
 112	-0.000759097	0.000399769	0.000201384
 113	-0.00032167	0.00131152	-0.000443836
 114	-0.000779991	-0.00017828	-3.06342e-05
 115	-0.000709587	0.000415746	0.000628803
 116	-0.000294494	0.000344349	-0.00122307
 117	-0.000115815	-0.000739313	-0.000327539
 118	-0.000608515	0.00098234	0.000815564
 119	-0.000170474	-1.56462e-05	0.00030793
 120	-0.000259192	-0.000618216	-0.000318999
 121	-2.50344e-05	-0.000420435	-2.54294e-05
 122	0.000463552	-0.000580062	0.000223487
 123	-0.000534217	-7.72029e-05	6.31794e-06
 124	-0.000204251	0.00224518	-0.000706706
 125	-0.000402533	0.000853708	-0.000269598
 126	-0.000899729	-0.00027596	-0.000479984
 127	-0.000334795	-0.00028132	-0.000135351
 128	-0.000633821	-0.000242767	-0.00017157
 129	-0.000837304	-0.000342833	0.000156582
 130	-0.000525753	-0.000277319	-0.000128379
 131	-0.00052341	-0.000195695	-0.000106458
 132	-0.000550151	-0.000160293	1.71749e-05
 133	-0.000455996	-0.000278544	-0.000243774
 134	-1.98505e-05	0.00106286	1.69187e-05
 135	-0.000495639	-0.000861633	-0.000275438
 136	0.000305645	-0.000567185	-0.00036183
 137	-0.000885499	-0.00100252	0.000203104
 138	0.000349061	0.00107023	0.00054945
 139	0.000967058	0.00128351	0.000789948
 140	0.000794919	0.000794679	0.000436537
 141	0.00133949	0.000674767	0.000248437
 142	-0.000483535	-0.000247304	-3.54666e-07
 143	-0.000517641	-0.00104222	-0.00029437
 144	-0.000591906	-0.00082682	-0.000126123
 145	-0.000431331	-0.000204344	-0.000288905
 146	-0.000293335	-0.000208501	-2.18516e-05
 147	-0.000352591	-0.000289484	-0.000140307
 148	-0.000502458	-0.000405623	-9.19321e-05
 149	-0.000537068	0.000303927	0.00125509
 150	-0.00117951	0.000281199	0.000718562
 151	-0.0018707	0.000244404	2.70023e-05
 152	-0.00175083	0.000748946	0.00134139
 153	-7.93689e-05	0.000407566	2.03543e-05
 154	0.00154101	0.000504048	-0.00201728
 155	0.000573589	-1.75147e-05	0.000462137
 156	0.000299663	0.000677897	-0.00218793
 157	9.19697e-05	0.00038641	0.000326255
 158	-0.000369731	0.000255583	0.000917421
 159	7.57731e-05	0.0002998	0.000680515
 160	0.000496857	0.000283852	0.00104355
 161	0.000578066	0.00048309	-0.000426889
 162	0.00135527	0.000479578	-0.00183177
 163	0.000936954	0.000507288	-0.00171251
 164	0.00126204	0.000669323	-0.00055234
 165	-0.000626798	-0.000401968	-0.00210253
 166	2.14596e-05	0.000132884	-0.000548287
 167	-0.00095977	-0.000189048	0.000694764
 168	0.0021	0.0018061	0.000733365
 169	0.00209637	0.000777162	-0.000100423
 170	0.00207139	0.000255252	-0.000575256
 171	0.00333744	0.000650866	-0.000329259
 172	-0.000317653	0.000317336	0.000517806
 173	3.84275e-05	0.000206571	0.00238874
 174	0.00021839	0.000165859	0.000505557
 175	0.000879646	0.00143506	0.00119147
 176	-0.00015333	0.00102236	0.00095553
 177	-0.00148972	0.00113533	0.000392083
 178	-0.000544334	0.00112779	0.000809859
 179	-0.000679063	0.00183911	0.00152591
 180	-0.000107618	0.000110312	6.54012e-05
 181	-0.000128388	5.65911e-05	0.000873337
 182	0.000192191	0.000479966	0.00119071
 183	-0.000553969	-0.00211826	-0.000703936
 184	0.000991609	-0.000498481	-0.0020527
 185	0.000130787	-0.000596049	-0.00074252
 186	7.06219e-05	0.000187695	-0.000162613
 187	-0.00164274	0.00206231	-0.000963773
 188	-0.00100064	0.000902596	-0.000292782
 189	0.000109735	0.000800068	-0.000753473
 190	-0.00190249	0.000544825	0.000493285
 191	-0.00028997	0.00010533	0.000168125
 192	0.000417379	-0.00127707	-0.00105776
 193	0.000479276	0.000362384	0.000470312
 194	4.43907e-05	-0.000945869	-0.000217217
 195	0.000481846	-0.000147695	0.000854763
 196	-0.000423606	0.000795354	-0.000677449
 197	0.000506905	0.000525892	7.4914e-05
 198	0.00153783	0.00115513	-7.91648e-05
 199	8.82831e-05	-0.000385068	0.00066465
 200	-0.00080927	-0.00196194	7.66777e-05
 201	-0.00011319	-0.00111301	-0.000161593
 202	0.000104906	-0.000436428	0.00176573
 203	-0.000158116	0.000136666	0.00268662
 204	-9.94067e-05	-0.0006511	0.00183667
 205	-0.000646952	-0.00152945	0.00212765
 206	0.00124535	0.000229521	0.000449674
 207	0.000519163	0.000187933	0.00024335
 208	0.000506557	0.000620473	-0.000480175
 209	0.000110947	0.000112491	0.000212902
 210	-0.000305261	-0.000267262	-0.000210359
 211	0.000228767	-0.000521071	-0.00125832
 212	0.000607843	-0.000150023	-9.4596e-05
 213	0.000285738	-0.00129122	-0.000266283
 214	-0.000622872	0.000550275	0.00105389
 215	2.90839e-05	0.00101403	0.000386687
 216	-0.000176841	0.000300928	0.00052445
 217	-0.000706585	-0.00011846	0.000750485
 218	0.000132541	-0.000362666	-0.00073759
 219	-0.000448146	-0.000283311	-0.000194749
 220	-3.6252e-06	-0.000582349	-0.00057119
 221	-0.000100167	0.000394151	-0.00035954
 222	0.000921515	4.00651e-05	-0.000780353
 223	0.000441666	0.000225725	-0.000562029
 224	0.000737741	0.000776953	-0.00038334
 225	0.000736609	0.00199851	-0.000869881
 226	0.00088116	-2.7508e-05	-4.04008e-05
 227	3.77835e-05	-0.00173505	-0.000357523
 228	0.00260129	-0.000108911	0.0018315
 229	3.61688e-05	-0.000163106	-0.000265199
 230	0.000374472	-0.00172917	-0.000573712
 231	0.000494629	-0.000785752	-0.000218408
 232	0.000787729	0.000421541	0.00282027
 233	0.000344083	0.00172289	5.60644e-05
 234	0.000176845	0.000761974	-0.00118678
 235	0.000188859	0.000965919	-0.000715895
 236	0.000162385	0.00156437	-0.00152756
 237	0.000600644	-0.000487535	-0.000322406
 238	0.000969601	0.00255136	-0.000869628
 239	0.000660267	0.000199856	0.000303849
 240	0.00159669	0.000424454	-8.94289e-05
 241	0.00115722	0.000382198	-0.00100136
 242	0.00120883	0.000260836	-0.00057887
 243	0.00134975	0.000506748	-0.00089879
 244	-0.000544495	-0.000841678	0.00030007
 245	0.00154224	-0.000638827	-0.00199086
 246	0.00538382	0.000566196	-0.00183934
 247	0.000592714	-0.00171077	-0.00587932
 248	0.000104709	1.17966e-05	0.00034751
 249	-0.000471988	-0.000874943	0.000743391
 250	0.000240063	-0.000185643	0.000177174
 251	-0.000371095	-0.000561029	2.92502e-05
 252	-9.42923e-05	0.00187788	0.00263511
 253	0.00260247	-0.00207856	0.000515556
 254	0.000361975	-8.62454e-05	0.000335584
 255	-0.00100097	0.000224635	-0.00206595
 256	0.000253507	-0.000311615	0.000433873
 257	6.87878e-05	-0.000712959	0.000622381
 258	-7.36631e-05	-0.000616728	0.000331916
 259	0.00108787	-0.00144056	0.00109676
 260	3.1933e-05	-0.000320812	4.57962e-05
 261	0.000175206	-0.00108513	0.000390629
 262	-0.000441512	-0.00212241	-9.31669e-05
 263	0.00117739	-0.000764703	0.000719063
 264	0.000487139	-0.000197038	0.000297378
 265	-0.000594796	-6.88221e-06	0.00022205
 266	0.000998011	0.000636166	-0.00060246
 267	0.000221348	-5.1092e-05	0.000679987
 268	-0.000402168	0.000223532	-0.00032929
 269	0.000142532	-7.14656e-05	0.000690407
 270	-0.000640079	0.000119783	0.000320978
 271	0.000197985	-0.000832386	0.00036788
 272	0.00126876	0.000985144	-0.00044247
 273	0.000609741	-0.000185707	-0.000284834
 274	0.00080148	-0.000854945	-0.00157583
 275	-0.000104536	0.000107738	-6.62883e-05
 276	0.000159075	-6.37071e-05	0.000382034
 277	-0.000222748	0.000188096	9.08809e-05
 278	-0.000176594	0.000712377	-0.000167847
 279	-2.84498e-05	-0.000941842	-0.000715378
 280	-0.00041677	-0.000218434	-0.000223904
 281	-0.00167692	-0.000387621	-9.10295e-05
 282	-0.000589332	-0.000407887	-0.000644116
 283	-0.000276739	-5.99231e-05	-0.000560603
 284	-0.000269768	-0.000118926	-0.000504728
 285	-0.000305163	9.14625e-05	-0.000805382
 286	0.000266129	0.000491237	0.000387276
 287	0.000508736	0.000100906	0.000689899

Bonds

   1	4	1	3
   2	5	1	7
   3	8	2	11
   4	6	3	9
   5	8	4	11
   6	7	5	7
   7	7	6	7
   8	7	7	8
   9	3	9	11
  10	3	9	14
  11	3	9	17
  12	8	10	11
  13	8	12	14
  14	8	13	14
  15	8	14	15
  16	8	16	17
  17	8	17	18
  18	8	17	19
  19	4	20	22
  20	5	20	26
  21	8	21	30
  22	6	22	28
  23	8	23	30
  24	7	24	26
  25	7	25	26
  26	7	26	27
  27	3	28	30
  28	3	28	33
  29	3	28	36
  30	8	29	30
  31	8	31	33
  32	8	32	33
  33	8	33	34
  34	8	35	36
  35	8	36	37
  36	8	36	38
  37	4	1	22
  38	4	39	41
  39	5	39	45
  40	8	40	49
  41	6	41	47
  42	8	42	49
  43	7	43	45
  44	7	44	45
  45	7	45	46
  46	3	47	49
  47	3	47	52
  48	3	47	55
  49	8	48	49
  50	8	50	52
  51	8	51	52
  52	8	52	53
  53	8	54	55
  54	8	55	56
  55	8	55	57
  56	4	20	41
  57	4	58	60
  58	5	58	64
  59	8	59	68
  60	6	60	66
  61	8	61	68
  62	7	62	64
  63	7	63	64
  64	7	64	65
  65	3	66	68
  66	3	66	71
  67	3	66	74
  68	8	67	68
  69	8	69	71
  70	8	70	71
  71	8	71	72
  72	8	73	74
  73	8	74	75
  74	8	74	76
  75	4	39	60
  76	4	77	79
  77	5	77	83
  78	8	78	87
  79	6	79	85
  80	8	80	87
  81	7	81	83
  82	7	82	83
  83	7	83	84
  84	3	85	87
  85	3	85	90
  86	3	85	93
  87	8	86	87
  88	8	88	90
  89	8	89	90
  90	8	90	91
  91	8	92	93
  92	8	93	94
  93	8	93	95
  94	4	58	79
  95	4	96	98
  96	5	96	102
  97	8	97	106
  98	6	98	104
  99	8	99	106
 100	7	100	102
 101	7	101	102
 102	7	102	103
 103	3	104	106
 104	3	104	109
 105	3	104	112
 106	8	105	106
 107	8	107	109
 108	8	108	109
 109	8	109	110
 110	8	111	112
 111	8	112	113
 112	8	112	114
 113	4	77	98
 114	4	115	117
 115	5	115	121
 116	8	116	125
 117	6	117	123
 118	8	118	125
 119	7	119	121
 120	7	120	121
 121	7	121	122
 122	3	123	125
 123	3	123	128
 124	3	123	131
 125	8	124	125
 126	8	126	128
 127	8	127	128
 128	8	128	129
 129	8	130	131
 130	8	131	132
 131	8	131	133
 132	4	96	117
 133	4	134	136
 134	5	134	140
 135	8	135	144
 136	6	136	142
 137	8	137	144
 138	7	138	140
 139	7	139	140
 140	7	140	141
 141	3	142	144
 142	3	142	147
 143	3	142	150
 144	8	143	144
 145	8	145	147
 146	8	146	147
 147	8	147	148
 148	8	149	150
 149	8	150	151
 150	8	150	152
 151	4	115	136
 152	4	153	155
 153	5	153	159
 154	8	154	163
 155	6	155	161
 156	8	156	163
 157	7	157	159
 158	7	158	159
 159	7	159	160
 160	3	161	163
 161	3	161	166
 162	3	161	169
 163	8	162	163
 164	8	164	166
 165	8	165	166
 166	8	166	167
 167	8	168	169
 168	8	169	170
 169	8	169	171
 170	4	134	155
 171	4	172	174
 172	5	172	178
 173	8	173	182
 174	6	174	180
 175	8	175	182
 176	7	176	178
 177	7	177	178
 178	7	178	179
 179	3	180	182
 180	3	180	185
 181	3	180	188
 182	8	181	182
 183	8	183	185
 184	8	184	185
 185	8	185	186
 186	8	187	188
 187	8	188	189
 188	8	188	190
 189	4	153	174
 190	4	191	193
 191	5	191	197
 192	8	192	201
 193	6	193	199
 194	8	194	201
 195	7	195	197
 196	7	196	197
 197	7	197	198
 198	3	199	201
 199	3	199	204
 200	3	199	207
 201	8	200	201
 202	8	202	204
 203	8	203	204
 204	8	204	205
 205	8	206	207
 206	8	207	208
 207	8	207	209
 208	4	172	193
 209	4	210	212
 210	5	210	216
 211	8	211	220
 212	6	212	218
 213	8	213	220
 214	7	214	216
 215	7	215	216
 216	7	216	217
 217	3	218	220
 218	3	218	223
 219	3	218	226
 220	8	219	220
 221	8	221	223
 222	8	222	223
 223	8	223	224
 224	8	225	226
 225	8	226	227
 226	8	226	228
 227	4	191	212
 228	4	229	231
 229	5	229	235
 230	8	230	239
 231	6	231	237
 232	8	232	239
 233	7	233	235
 234	7	234	235
 235	7	235	236
 236	3	237	239
 237	3	237	242
 238	3	237	245
 239	8	238	239
 240	8	240	242
 241	8	241	242
 242	8	242	243
 243	8	244	245
 244	8	245	246
 245	8	245	247
 246	4	210	231
 247	4	248	250
 248	5	248	254
 249	8	249	258
 250	6	250	256
 251	8	251	258
 252	7	252	254
 253	7	253	254
 254	7	254	255
 255	3	256	258
 256	3	256	261
 257	3	256	264
 258	8	257	258
 259	8	259	261
 260	8	260	261
 261	8	261	262
 262	8	263	264
 263	8	264	265
 264	8	264	266
 265	4	229	250
 266	4	267	269
 267	5	267	273
 268	8	268	277
 269	6	269	275
 270	8	270	277
 271	7	271	273
 272	7	272	273
 273	7	273	274
 274	3	275	277
 275	3	275	280
 276	3	275	283
 277	8	276	277
 278	8	278	280
 279	8	279	280
 280	8	280	281