pySIMM System Object

686 atoms
685 bonds
1296 angles
1688 dihedrals
0 impropers

7 atom types
8 bond types
13 angle types
5 dihedral types

-119.094717 119.094717 xlo xhi
-119.094717 119.094717 ylo yhi
-119.094717 119.094717 zlo zhi

Masses

   1	12.01	# c2
   2	1.008	# h1
   3	1.008	# hc
   4	12.01	# c3
   5	1.008	# ha
   6	32.06	# s6
   7	1.008	# h4

Pair Coeffs

   1	0.086	3.3996695084235347	# c2
   2	0.0157	2.471353044121301	# h1
   3	0.0157	2.649532787749369	# hc
   4	0.1094	3.3996695084235347	# c3
   5	0.015	2.59964245953351	# ha
   6	0.25	3.563594872561357	# s6
   7	0.015	2.5105525877194763	# h4

Bond Coeffs

   1	233.5	1.8075	# c3,s6
   2	569.4	1.3343	# c2,c2
   3	326.8	1.5095	# c2,c3
   4	263.2	1.76	# c2,s6
   5	330.6	1.0969	# c3,hc
   6	343.1	1.0879	# c2,ha
   7	344.6	1.0868	# c2,h4
   8	330.6	1.0969	# c3,h1

Angle Coeffs

   1	46.99	110.36	# c2,c3,hc
   2	39.4	107.58	# hc,c3,hc
   3	59.92	103.83	# c3,s6,c3
   4	60.63	104.05	# c2,s6,c3
   5	39.24	108.46	# h1,c3,h1
   6	42.79	115.45	# h4,c2,s6
   7	64.06	123.63	# c2,c2,c3
   8	62.73	120.01	# c2,c2,s6
   9	49.4	122.67	# c2,c2,h4
  10	49.85	120.43	# c2,c2,ha
  11	43.19	107.15	# h1,c3,s6
  12	45.94	115.68	# c3,c2,ha
  13	69.3	121.81	# c2,c2,c2

Dihedral Coeffs

   1	1	0.0	2	0	# X,c2,c3,X
   2	1	6.65	2	180	# X,c2,c2,X
   3	3	0.38	3	180	0.0	2	0	1.15	1	0	# hc,c3,c2,c2
   4	1	6.6499999999999995	2	180	# X,c2,s6,X
   5	1	0.14444444444444446	3	0	# X,c3,s6,X

Atoms

   1	1	1	0.037815	7.24762	-23.5976	1.09979
   2	1	2	0.048876	8.00757	-27.4261	-2.22847
   3	1	1	-0.222978	7.24892	-24.8442	0.57925
   4	1	2	0.097895	7.48944	-27.7253	-0.529382
   5	1	3	0.054231	7.63416	-22.1533	-0.499963
   6	1	3	0.054231	8.3934	-21.7196	1.04466
   7	1	4	-0.159568	8.12119	-22.5577	0.395534
   8	1	3	0.073528	9.08492	-22.9783	0.0990367
   9	1	6	0.703056	8.02195	-25.4403	-0.907879
  10	1	2	0.084378	6.35511	-26.948	-1.6915
  11	1	4	-0.422828	7.40385	-27.0544	-1.39196
  12	1	2	0.048873	7.20804	-23.8889	-2.53526
  13	1	2	0.084374	8.88718	-23.484	-2.01538
  14	1	4	-0.422813	8.19678	-24.2888	-2.2824
  15	1	2	0.097892	8.60349	-24.8504	-3.13101
  16	1	2	0.084729	10.2284	-26.2129	-1.34586
  17	1	4	-0.400138	9.74437	-25.7369	-0.485628
  18	1	2	0.084733	10.2328	-24.7847	-0.257993
  19	1	2	0.073714	9.77665	-26.4004	0.385823
  20	1	1	0.037815	6.38547	-22.015	2.69085
  21	1	2	0.048876	6.34092	-26.9309	2.64426
  22	1	1	-0.222978	6.62905	-23.3054	2.29312
  23	1	2	0.097895	7.85985	-26.083	3.09886
  24	1	3	0.054231	4.96598	-20.589	1.80107
  25	1	3	0.054231	6.65142	-20.2138	1.4712
  26	1	4	-0.159568	5.93233	-21.0312	1.60064
  27	1	3	0.073528	5.77733	-21.5083	0.627642
  28	1	6	0.703056	5.94506	-24.6469	3.3263
  29	1	2	0.084378	6.72136	-26.6496	4.36869
  30	1	4	-0.422828	6.8071	-26.24	3.35611
  31	1	2	0.048873	6.08152	-23.8237	5.59369
  32	1	2	0.084374	4.44374	-23.6269	4.86655
  33	1	4	-0.422813	5.30982	-24.2774	4.96818
  34	1	2	0.097892	4.98691	-25.2244	5.41409
  35	1	2	0.084729	4.71007	-25.6179	1.49775
  36	1	4	-0.400138	4.4511	-25.2025	2.47529
  37	1	2	0.084733	3.97766	-25.9727	3.09403
  38	1	2	0.073714	3.76836	-24.3604	2.34359
  39	1	1	0.037815	6.12486	-20.329	4.44031
  40	1	2	0.048876	10.3724	-21.5156	4.62284
  41	1	1	-0.222978	6.62618	-21.5266	3.9531
  42	1	2	0.097895	9.54277	-21.5287	3.03285
  43	1	3	0.054231	7.85359	-19.4771	5.52032
  44	1	3	0.054231	6.37317	-18.6864	5.90536
  45	1	4	-0.159568	6.78683	-19.6625	5.65175
  46	1	3	0.073528	6.60729	-20.2495	6.55727
  47	1	6	0.703056	8.10072	-22.2531	4.78088
  48	1	2	0.084378	9.23132	-20.201	4.18422
  49	1	4	-0.422828	9.44613	-21.2673	4.09145
  50	1	2	0.048873	8.8579	-23.9658	3.24965
  51	1	2	0.084374	9.84485	-23.8552	4.72612
  52	1	4	-0.422813	8.82086	-23.8423	4.33559
  53	1	2	0.097892	8.25388	-24.6343	4.83141
  54	1	2	0.084729	9.17877	-22.7401	6.84143
  55	1	4	-0.400138	8.38296	-22.0445	6.55207
  56	1	2	0.084733	8.71267	-21.0249	6.77097
  57	1	2	0.073714	7.46082	-22.2955	7.08858
  58	1	1	0.037815	5.05365	-18.3038	3.80992
  59	1	2	0.048876	1.71538	-18.8751	4.89167
  60	1	1	-0.222978	4.99017	-19.6524	4.05906
  61	1	2	0.097895	1.81911	-19.1691	3.13612
  62	1	3	0.054231	6.27153	-16.9677	2.58689
  63	1	3	0.054231	6.87812	-17.1749	4.22056
  64	1	4	-0.159568	6.39558	-17.6979	3.38662
  65	1	3	0.073528	7.10298	-18.4433	3.00544
  66	1	6	0.703056	3.4041	-20.4953	4.27935
  67	1	2	0.084378	1.03932	-20.3705	4.19903
  68	1	4	-0.422828	1.8418	-19.6287	4.11838
  69	1	2	0.048873	3.27328	-20.7137	6.65589
  70	1	2	0.084374	2.67514	-22.1766	5.81381
  71	1	4	-0.422813	3.45493	-21.4073	5.82959
  72	1	2	0.097892	4.44547	-21.8553	5.94396
  73	1	2	0.084729	2.30591	-22.4599	3.51794
  74	1	4	-0.400138	3.17516	-21.8872	3.17652
  75	1	2	0.084733	2.99469	-21.5095	2.16467
  76	1	2	0.073714	4.06306	-22.5041	3.20273
  77	1	1	0.037815	3.45678	-17.1107	2.48078
  78	1	2	0.048876	5.42389	-15.3149	5.352
  79	1	1	-0.222978	4.00269	-17.4471	3.70558
  80	1	2	0.097895	4.55248	-15.3809	6.92256
  81	1	3	0.054231	3.39177	-17.7979	0.379035
  82	1	3	0.054231	4.85311	-18.2107	1.19971
  83	1	4	-0.159568	3.77441	-18.1007	1.35425
  84	1	3	0.073528	3.3677	-19.0933	1.56188
  85	1	6	0.703056	3.49778	-16.8023	5.31829
  86	1	2	0.084378	5.63122	-16.7144	6.42039
  87	1	4	-0.422828	4.9179	-15.9635	6.06943
  88	1	2	0.048873	3.56934	-17.4776	7.61169
  89	1	2	0.084374	2.56006	-18.5753	6.65564
  90	1	4	-0.422813	3.49765	-18.0152	6.65882
  91	1	2	0.097892	4.34754	-18.6895	6.55209
  92	1	2	0.084729	1.94584	-15.1146	4.66795
  93	1	4	-0.400138	1.99951	-15.8359	5.47592
  94	1	2	0.084733	1.14756	-16.5217	5.42518
  95	1	2	0.073714	2.0137	-15.3305	6.44809
  96	1	1	0.037815	2.93088	-14.7082	2.44464
  97	1	2	0.048876	1.36879	-18.1795	-0.353286
  98	1	1	-0.222978	2.66535	-16.0316	2.12907
  99	1	2	0.097895	1.17957	-18.9337	1.27073
 100	1	3	0.054231	4.98476	-15.1137	3.08619
 101	1	3	0.054231	4.63476	-13.4223	2.87646
 102	1	4	-0.159568	4.19994	-14.3692	3.20653
 103	1	3	0.073528	4.01769	-14.2811	4.26894
 104	1	6	0.703056	1.08515	-16.5164	1.35437
 105	1	2	0.084378	-0.23633	-18.264	0.426133
 106	1	4	-0.422828	0.838023	-18.1428	0.604605
 107	1	2	0.048873	0.430642	-15.0083	-0.318597
 108	1	2	0.084374	-0.954688	-15.9362	0.318272
 109	1	4	-0.422813	-0.0466064	-15.3829	0.582119
 110	1	2	0.097892	-0.291356	-14.5954	1.29791
 111	1	2	0.084729	-0.0161449	-15.7866	3.33242
 112	1	4	-0.400138	0.0711404	-16.7498	2.81914
 113	1	2	0.084733	-0.918381	-17.1034	2.50897
 114	1	2	0.073714	0.545152	-17.4812	3.47311
 115	1	1	0.037815	1.98283	-13.2129	0.709796
 116	1	2	0.048876	2.57889	-13.216	5.4043
 117	1	1	-0.222978	2.23509	-13.6009	2.01387
 118	1	2	0.097895	3.73997	-12.0438	4.66316
 119	1	3	0.054231	0.127464	-12.7882	-0.352969
 120	1	3	0.054231	0.0164105	-12.3833	1.28149
 121	1	4	-0.159568	0.728259	-12.3769	0.459358
 122	1	3	0.073528	0.965329	-11.333	0.232524
 123	1	6	0.703056	1.80313	-12.3516	3.28957
 124	1	2	0.084378	2.2404	-11.4701	5.45184
 125	1	4	-0.422828	2.68761	-12.2757	4.85893
 126	1	2	0.048873	0.341991	-13.8264	4.49851
 127	1	2	0.084374	-0.125136	-12.1104	4.66985
 128	1	4	-0.422813	0.215266	-12.8799	3.96787
 129	1	2	0.097892	-0.520343	-13.0052	3.1702
 130	1	2	0.084729	1.45867	-10.0368	3.71091
 131	1	4	-0.400138	1.46622	-10.6439	2.79888
 132	1	2	0.084733	2.26216	-10.2983	2.13348
 133	1	2	0.073714	0.485339	-10.5671	2.32113
 134	1	1	0.037815	4.05478	-13.8901	-0.35821
 135	1	2	0.048876	1.47229	-10.7009	-1.7789
 136	1	1	-0.222978	2.78829	-13.4013	-0.39542
 137	1	2	0.097895	1.29558	-11.2802	-3.46528
 138	1	3	0.054231	3.02808	-15.7713	-0.72352
 139	1	3	0.054231	4.55799	-15.9445	0.102798
 140	1	4	-0.159568	4.04714	-15.3727	-0.663997
 141	1	3	0.073528	4.4934	-15.5907	-1.63815
 142	1	6	0.703056	2.29265	-12.9428	-2.08665
 143	1	2	0.084378	0.149314	-11.8337	-2.21908
 144	1	4	-0.422828	1.18855	-11.547	-2.40779
 145	1	2	0.048873	0.204959	-14.1333	-2.1485
 146	1	2	0.084374	1.02602	-14.0994	-3.73337
 147	1	4	-0.422813	1.16986	-14.2296	-2.65482
 148	1	2	0.097892	1.62239	-15.2057	-2.45337
 149	1	2	0.084729	3.07986	-12.8605	-4.32183
 150	1	4	-0.400138	3.54564	-13.0608	-3.35044
 151	1	2	0.084733	4.29703	-12.309	-3.12847
 152	1	2	0.073714	3.9681	-14.0703	-3.33053
 153	1	1	0.037815	5.24338	-11.7654	-0.550256
 154	1	2	0.048876	8.40801	-12.524	0.412176
 155	1	1	-0.222978	5.19502	-13.1395	-0.620216
 156	1	2	0.097895	9.15791	-13.937	-0.351715
 157	1	3	0.054231	4.80526	-10.2065	0.98818
 158	1	3	0.054231	3.39113	-10.9444	0.261637
 159	1	4	-0.159568	4.41478	-11.1438	0.581481
 160	1	3	0.073528	4.36437	-11.8176	1.43848
 161	1	6	0.703056	6.80622	-14.0069	-0.531133
 162	1	2	0.084378	8.59654	-12.6169	-1.38427
 163	1	4	-0.422828	8.3911	-13.1639	-0.474045
 164	1	2	0.048873	6.47006	-16.395	-0.78657
 165	1	2	0.084374	6.68816	-15.5538	-2.3664
 166	1	4	-0.422813	7.02095	-15.618	-1.32515
 167	1	2	0.097892	8.08908	-15.8595	-1.29551
 168	1	2	0.084729	7.81589	-15.1351	1.30279
 169	1	4	-0.400138	6.85906	-14.6241	1.14795
 170	1	2	0.084733	6.76925	-13.7714	1.8295
 171	1	2	0.073714	6.04076	-15.3202	1.29407
 172	1	1	0.037815	6.26203	-9.63826	-0.883502
 173	1	2	0.048876	6.72894	-10.5758	-5.1091
 174	1	1	-0.222978	5.99872	-10.9041	-1.3297
 175	1	2	0.097895	5.11714	-10.8528	-4.38281
 176	1	3	0.054231	8.04323	-10.6071	-0.098036
 177	1	3	0.054231	8.16595	-8.92428	-0.0328223
 178	1	4	-0.159568	7.43844	-9.72393	0.0851733
 179	1	3	0.073528	7.11454	-9.78706	1.13018
 180	1	6	0.703056	6.87321	-11.3333	-2.86165
 181	1	2	0.084378	6.06536	-9.3936	-3.941
 182	1	4	-0.422828	6.11571	-10.4456	-4.20995
 183	1	2	0.048873	7.03845	-12.9367	-4.61292
 184	1	2	0.084374	7.84673	-13.5133	-3.13805
 185	1	4	-0.422813	6.9557	-13.0089	-3.52215
 186	1	2	0.097892	6.05441	-13.5611	-3.25992
 187	1	2	0.084729	9.19117	-10.9379	-2.33738
 188	1	4	-0.400138	8.45791	-10.4835	-3.00845
 189	1	2	0.084733	8.80095	-10.5682	-4.04575
 190	1	2	0.073714	8.32326	-9.43584	-2.73953
 191	1	1	0.037815	4.71662	-8.20685	-2.17657
 192	1	2	0.048876	7.95262	-5.79332	-1.79897
 193	1	1	-0.222978	5.8188	-8.41412	-1.3709
 194	1	2	0.097895	8.29005	-5.6224	-0.0609327
 195	1	3	0.054231	2.73988	-9.01435	-2.74631
 196	1	3	0.054231	3.91258	-10.2316	-2.44833
 197	1	4	-0.159568	3.59922	-9.24686	-2.10949
 198	1	3	0.073528	3.21095	-9.31732	-1.09169
 199	1	6	0.703056	6.32935	-6.93218	-0.416623
 200	1	2	0.084378	8.68916	-7.14779	-0.910751
 201	1	4	-0.422828	7.97784	-6.32104	-0.845188
 202	1	2	0.048873	4.3983	-5.78472	0.327777
 203	1	2	0.084374	5.7597	-4.66771	-0.0124804
 204	1	4	-0.422813	5.20554	-5.54196	-0.372527
 205	1	2	0.097892	4.78716	-5.3478	-1.35211
 206	1	2	0.084729	5.86232	-7.87445	1.7374
 207	1	4	-0.400138	6.63176	-7.19954	1.34699
 208	1	2	0.084733	7.63853	-7.59124	1.51752
 209	1	2	0.073714	6.55411	-6.22563	1.84397
 210	1	1	0.037815	3.20068	-6.60041	-3.13758
 211	1	2	0.048876	6.42996	-4.60183	-2.38517
 212	1	1	-0.222978	4.46508	-7.13646	-3.01894
 213	1	2	0.097895	6.72691	-4.12537	-4.06267
 214	1	3	0.054231	1.3976	-6.99263	-1.96888
 215	1	3	0.054231	2.84129	-7.01738	-0.984557
 216	1	4	-0.159568	2.37667	-6.52361	-1.84245
 217	1	3	0.073528	2.23967	-5.49988	-1.49533
 218	1	6	0.703056	5.82488	-6.34403	-3.95991
 219	1	2	0.084378	5.05031	-4.14988	-3.43005
 220	1	4	-0.422828	6.02652	-4.63914	-3.39544
 221	1	2	0.048873	7.41468	-7.92037	-4.76664
 222	1	2	0.084374	8.17738	-6.37151	-4.28231
 223	1	4	-0.422813	7.43461	-7.12928	-4.009
 224	1	2	0.097892	7.66034	-7.54825	-3.03244
 225	1	2	0.084729	6.35295	-5.10657	-5.92877
 226	1	4	-0.400138	5.4909	-5.70891	-5.6211
 227	1	2	0.084733	5.39882	-6.53508	-6.32916
 228	1	2	0.073714	4.59804	-5.07828	-5.61326
 229	1	1	0.037815	1.75884	-5.10274	-4.44707
 230	1	2	0.048876	3.66792	-9.27824	-4.7266
 231	1	1	-0.222978	2.64968	-6.14685	-4.31063
 232	1	2	0.097895	3.72429	-9.33558	-6.50489
 233	1	3	0.054231	0.521285	-5.41156	-6.23408
 234	1	3	0.054231	0.593	-3.75236	-5.71869
 235	1	4	-0.159568	1.19332	-4.66782	-5.79941
 236	1	3	0.073528	1.98993	-4.42469	-6.50974
 237	1	6	0.703056	2.82473	-7.29354	-5.71763
 238	1	2	0.084378	4.96182	-8.40347	-5.62044
 239	1	4	-0.422828	3.91623	-8.71209	-5.62477
 240	1	2	0.048873	1.2708	-8.9542	-6.45103
 241	1	2	0.084374	1.17077	-8.65616	-4.68232
 242	1	4	-0.422813	1.26185	-8.18667	-5.66848
 243	1	2	0.097892	0.432836	-7.49601	-5.83214
 244	1	2	0.084729	3.0404	-7.5521	-8.06896
 245	1	4	-0.400138	2.72639	-6.72044	-7.42833
 246	1	2	0.084733	1.69792	-6.45043	-7.68294
 247	1	2	0.073714	3.40631	-5.87272	-7.56444
 248	1	1	0.037815	1.75148	-2.96661	-3.37263
 249	1	2	0.048876	-1.60392	-3.54988	-4.56986
 250	1	1	-0.222978	1.37236	-4.28672	-3.43942
 251	1	2	0.097895	-2.40109	-3.58407	-2.9624
 252	1	3	0.054231	2.52321	-1.89809	-5.14129
 253	1	3	0.054231	3.43183	-3.33741	-4.76975
 254	1	4	-0.159568	2.882	-2.51205	-4.31178
 255	1	3	0.073528	3.65982	-1.96671	-3.77154
 256	1	6	0.703056	-0.300691	-4.72006	-2.96258
 257	1	2	0.084378	-1.03818	-2.4561	-3.28552
 258	1	4	-0.422828	-1.45164	-3.44105	-3.48989
 259	1	2	0.048873	-0.226881	-7.088	-3.36836
 260	1	2	0.084374	-1.89998	-6.46879	-3.16113
 261	1	4	-0.422813	-0.920631	-6.27906	-3.61453
 262	1	2	0.097892	-1.02866	-6.18075	-4.6988
 263	1	2	0.084729	0.047225	-3.97699	-0.755207
 264	1	4	-0.400138	-0.535506	-4.77252	-1.19804
 265	1	2	0.084733	-1.60309	-4.65074	-0.986984
 266	1	2	0.073714	-0.183706	-5.74122	-0.829094
 267	1	1	0.037815	1.95539	-2.27017	-1.09496
 268	1	2	0.048876	1.00155	1.79935	-1.83271
 269	1	1	-0.222978	1.3886	-2.13458	-2.33914
 270	1	2	0.097895	-0.475753	0.826463	-1.66782
 271	1	3	0.054231	3.51349	-3.52589	-0.232805
 272	1	3	0.054231	3.50101	-3.64785	-1.91649
 273	1	4	-0.159568	3.33713	-2.92464	-1.11934
 274	1	3	0.073528	4.12669	-2.17622	-1.23911
 275	1	6	0.703056	1.23458	-0.376813	-2.80477
 276	1	2	0.084378	0.933344	0.505896	-0.595874
 277	1	4	-0.422828	0.614911	0.802493	-1.59368
 278	1	2	0.048873	3.5567	-0.0440542	-2.29175
 279	1	2	0.084374	3.22673	0.113647	-4.05755
 280	1	4	-0.422813	2.87119	0.348664	-3.04996
 281	1	2	0.097892	2.78929	1.43647	-2.95409
 282	1	2	0.084729	0.420457	0.978559	-4.57838
 283	1	4	-0.400138	0.389239	-0.0968329	-4.36911
 284	1	2	0.084733	0.877012	-0.649245	-5.17402
 285	1	2	0.073714	-0.650032	-0.426187	-4.26085
 286	1	1	0.037815	0.101995	-1.89147	0.546526
 287	1	2	0.048876	1.14007	-0.840618	3.13818
 288	1	1	-0.222978	1.43419	-1.99904	0.165371
 289	1	2	0.097895	2.30998	-2.09229	3.72607
 290	1	3	0.054231	-1.82937	-2.20911	-0.439427
 291	1	3	0.054231	-1.35936	-0.52175	-0.262736
 292	1	4	-0.159568	-0.989282	-1.52485	-0.456033
 293	1	3	0.073528	-0.716134	-1.53557	-1.48953
 294	1	6	0.703056	2.66693	-1.50787	1.4562
 295	1	2	0.084378	2.81929	-0.394225	3.54044
 296	1	4	-0.422828	2.16916	-1.18128	3.14154
 297	1	2	0.048873	4.87307	-1.48859	2.36174
 298	1	2	0.084374	4.53457	-3.05573	1.58889
 299	1	4	-0.422813	4.42328	-1.97206	1.48664
 300	1	2	0.097892	4.93164	-1.60538	0.591112
 301	1	2	0.084729	3.34231	0.156745	-0.116683
 302	1	4	-0.400138	3.03992	0.173064	0.934553
 303	1	2	0.084733	2.15113	0.794311	1.07492
 304	1	2	0.073714	3.85632	0.55945	1.55567
 305	1	1	0.037815	-1.58614	-2.03119	2.35729
 306	1	2	0.048876	-1.41071	-5.36682	3.00081
 307	1	1	-0.222978	-0.376531	-2.37275	1.75928
 308	1	2	0.097895	-1.25459	-5.09337	1.23912
 309	1	3	0.054231	-1.40821	-2.5942	4.48269
 310	1	3	0.054231	-3.01539	-2.18622	4.0171
 311	1	4	-0.159568	-2.10667	-2.68331	3.64983
 312	1	3	0.073528	-2.4065	-3.7219	3.5264
 313	1	6	0.703056	0.441378	-3.8845	2.42978
 314	1	2	0.084378	-0.131549	-6.18418	2.0973
 315	1	4	-0.422828	-0.711614	-5.25828	2.17037
 316	1	2	0.048873	2.79314	-4.08609	1.99986
 317	1	2	0.084374	1.96912	-5.64956	1.99706
 318	1	4	-0.422813	1.8986	-4.60794	1.66528
 319	1	2	0.097892	1.77518	-4.58523	0.580099
 320	1	2	0.084729	-0.353615	-4.49442	4.62911
 321	1	4	-0.400138	0.577679	-4.08987	4.22094
 322	1	2	0.084733	1.38932	-4.8007	4.4126
 323	1	2	0.073714	0.804978	-3.12583	4.68599
 324	1	1	0.037815	-3.70144	-1.5088	1.45247
 325	1	2	0.048876	-3.28278	1.75629	4.39138
 326	1	1	-0.222978	-2.47396	-1.07305	1.96319
 327	1	2	0.097895	-2.66261	2.74488	3.0352
 328	1	3	0.054231	-4.12381	-3.64627	1.89534
 329	1	3	0.054231	-4.21248	-3.20468	0.154012
 330	1	4	-0.159568	-3.71937	-3.0193	1.10245
 331	1	3	0.073528	-2.75122	-3.47818	0.903056
 332	1	6	0.703056	-2.0378	0.461829	2.85323
 333	1	2	0.084378	-4.10232	1.70177	2.81846
 334	1	4	-0.422828	-3.14073	1.79642	3.30506
 335	1	2	0.048873	-0.698146	1.08762	4.73671
 336	1	2	0.084374	-1.90302	-0.172211	5.14366
 337	1	4	-0.422813	-1.16335	0.15258	4.4033
 338	1	2	0.097892	-0.407824	-0.618894	4.27835
 339	1	2	0.084729	-0.241862	2.0112	2.63041
 340	1	4	-0.400138	-0.651861	1.21932	1.99319
 341	1	2	0.084733	0.104198	0.454976	1.81039
 342	1	2	0.073714	-1.00035	1.64372	1.04674
 343	1	1	0.037815	-5.03531	0.476771	0.757145
 344	1	2	0.048876	-6.17257	-4.14319	1.9286
 345	1	1	-0.222978	-4.87628	-0.856131	1.0817
 346	1	2	0.097895	-5.83967	-2.91098	3.20963
 347	1	3	0.054231	-3.96496	1.79911	-0.653509
 348	1	3	0.054231	-3.68815	2.22809	0.941276
 349	1	4	-0.159568	-3.83902	1.34254	0.3268
 350	1	3	0.073528	-2.91088	0.789895	0.245884
 351	1	6	0.703056	-6.44127	-1.88532	1.12904
 352	1	2	0.084378	-7.52405	-3.28917	2.72174
 353	1	4	-0.422828	-6.48952	-3.19349	2.37385
 354	1	2	0.048873	-8.80991	-1.91004	1.33992
 355	1	2	0.084374	-8.10874	-0.429824	2.04137
 356	1	4	-0.422813	-8.06855	-1.11572	1.19524
 357	1	2	0.097892	-8.27782	-0.610524	0.251496
 358	1	2	0.084729	-6.02846	-3.75047	-0.393746
 359	1	4	-0.400138	-6.71927	-2.90709	-0.343857
 360	1	2	0.084733	-7.73268	-3.31535	-0.2597
 361	1	2	0.073714	-6.6623	-2.30214	-1.24755
 362	1	1	0.037815	-7.15127	1.68964	0.578939
 363	1	2	0.048876	-5.81966	2.78739	-2.07453
 364	1	1	-0.222978	-6.1547	0.855682	0.101855
 365	1	2	0.097895	-4.50621	1.85367	-2.83235
 366	1	3	0.054231	-7.73213	2.44773	-1.43822
 367	1	3	0.054231	-8.92616	1.38797	-0.675022
 368	1	4	-0.159568	-8.17233	2.16199	-0.490177
 369	1	3	0.073528	-8.73223	3.07156	-0.260098
 370	1	6	0.703056	-6.01095	0.400178	-1.66973
 371	1	2	0.084378	-6.1254	1.84998	-3.58632
 372	1	4	-0.422828	-5.58334	1.8765	-2.63429
 373	1	2	0.048873	-4.70541	-0.894633	-3.19407
 374	1	2	0.084374	-3.7032	-0.216545	-1.87621
 375	1	4	-0.422813	-4.65231	-0.706513	-2.11535
 376	1	2	0.097892	-4.72746	-1.64579	-1.56598
 377	1	2	0.084729	-7.24074	-0.535849	-3.47751
 378	1	4	-0.400138	-7.53227	-0.0677949	-2.53043
 379	1	2	0.084733	-8.09012	-0.783816	-1.91962
 380	1	2	0.073714	-8.14382	0.812819	-2.7462
 381	1	1	0.037815	-8.38587	3.05869	2.07437
 382	1	2	0.048876	-5.08644	3.0888	4.13341
 383	1	1	-0.222978	-7.34858	2.19574	1.86196
 384	1	2	0.097895	-6.72133	3.71413	4.42881
 385	1	3	0.054231	-10.4379	2.69827	1.33963
 386	1	3	0.054231	-10.2138	2.35252	3.07041
 387	1	4	-0.159568	-9.73563	2.32711	2.08813
 388	1	3	0.073528	-9.62133	1.26047	1.86132
 389	1	6	0.703056	-6.77969	1.54927	3.47826
 390	1	2	0.084378	-6.02082	2.48953	5.5318
 391	1	4	-0.422828	-6.08006	2.84445	4.49658
 392	1	2	0.048873	-7.83669	1.04101	5.5608
 393	1	2	0.084374	-8.69507	2.3513	4.69573
 394	1	4	-0.422813	-8.19652	1.38512	4.58378
 395	1	2	0.097892	-8.87717	0.637971	4.16182
 396	1	2	0.084729	-5.7096	0.0161298	4.91129
 397	1	4	-0.400138	-5.88813	0.029372	3.83023
 398	1	2	0.084733	-6.53616	-0.8109	3.58463
 399	1	2	0.073714	-4.93022	-0.0273165	3.33154
 400	1	1	0.037815	-7.08382	5.11021	2.137
 401	1	2	0.048876	-10.0833	7.29898	3.93943
 402	1	1	-0.222978	-8.26259	4.41845	2.31346
 403	1	2	0.097895	-8.82927	7.54735	2.6945
 404	1	3	0.054231	-5.43049	3.97834	1.23158
 405	1	3	0.054231	-5.773	5.52073	0.43229
 406	1	4	-0.159568	-6.22482	4.6772	0.945116
 407	1	3	0.073528	-6.82373	4.23739	0.150947
 408	1	6	0.703056	-9.80462	5.38552	2.51858
 409	1	2	0.084378	-10.5555	7.6333	2.25679
 410	1	4	-0.422828	-9.80994	7.14275	2.89226
 411	1	2	0.048873	-10.5212	4.51445	0.379229
 412	1	2	0.084374	-11.3557	6.03326	0.824184
 413	1	4	-0.422813	-10.395	5.50586	0.817958
 414	1	2	0.097892	-9.65795	6.07369	0.241274
 415	1	2	0.084729	-11.9854	5.46521	3.45815
 416	1	4	-0.400138	-11.2716	4.65423	3.27441
 417	1	2	0.084733	-11.7305	3.9268	2.59903
 418	1	2	0.073714	-10.9852	4.19251	4.22648
 419	1	1	0.037815	-5.43296	6.79311	2.53821
 420	1	2	0.048876	-8.11609	8.64559	4.3301
 421	1	1	-0.222978	-6.65895	6.23768	2.81144
 422	1	2	0.097895	-7.70447	8.23963	6.02595
 423	1	3	0.054231	-3.67274	5.54829	2.2444
 424	1	3	0.054231	-3.67033	6.38923	3.82008
 425	1	4	-0.159568	-4.29853	5.91398	3.06442
 426	1	3	0.073528	-4.67408	5.00317	3.52716
 427	1	6	0.703056	-7.14873	6.44884	4.5663
 428	1	2	0.084378	-6.4057	8.69155	4.88361
 429	1	4	-0.422828	-7.37049	8.18517	4.98393
 430	1	2	0.048873	-8.1644	5.34324	6.41613
 431	1	2	0.084374	-9.39777	5.99817	5.32358
 432	1	4	-0.422813	-8.44466	5.46771	5.36361
 433	1	2	0.097892	-8.52876	4.48514	4.89973
 434	1	2	0.084729	-5.36048	5.28431	5.65974
 435	1	4	-0.400138	-5.74923	6.30676	5.69577
 436	1	2	0.084733	-4.97909	7.03194	5.42036
 437	1	2	0.073714	-6.10648	6.52726	6.70801
 438	1	1	0.037815	-5.93913	8.472	0.775362
 439	1	2	0.048876	-3.9233	8.48305	4.14128
 440	1	1	-0.222978	-5.09527	7.79152	1.63257
 441	1	2	0.097895	-2.16183	8.70976	3.85081
 442	1	3	0.054231	-7.70737	7.17635	0.777644
 443	1	3	0.054231	-7.8262	8.47576	-0.318667
 444	1	4	-0.159568	-7.43701	8.22288	0.67068
 445	1	3	0.073528	-7.99489	8.82313	1.38363
 446	1	6	0.703056	-3.38904	8.5	1.78568
 447	1	2	0.084378	-3.29244	10.0614	3.60536
 448	1	4	-0.422828	-3.17121	8.97725	3.52054
 449	1	2	0.048873	-1.91256	6.75889	2.64987
 450	1	2	0.084374	-1.96142	6.78087	0.853522
 451	1	4	-0.422813	-1.95288	7.39064	1.75912
 452	1	2	0.097892	-1.06154	8.02777	1.75225
 453	1	2	0.084729	-1.98554	10.3616	1.31526
 454	1	4	-0.400138	-2.89186	9.96262	0.846145
 455	1	2	0.084733	-2.66706	9.67644	-0.182869
 456	1	2	0.073714	-3.68366	10.7177	0.883473
 457	1	1	0.037815	-6.02317	10.4121	-0.702703
 458	1	2	0.048876	-4.16016	9.29252	-3.56054
 459	1	1	-0.222978	-5.47785	9.21211	-0.268533
 460	1	2	0.097895	-2.80238	9.50638	-2.38561
 461	1	3	0.054231	-5.93705	10.3196	-2.90713
 462	1	3	0.054231	-5.8634	11.9538	-2.30956
 463	1	4	-0.159568	-5.56539	10.9273	-2.07759
 464	1	3	0.073528	-4.47608	11.0044	-2.11056
 465	1	6	0.703056	-4.55279	8.14993	-1.45756
 466	1	2	0.084378	-3.01803	7.96255	-3.26239
 467	1	4	-0.422828	-3.53829	8.80975	-2.80094
 468	1	2	0.048873	-3.90424	6.37287	0.0818105
 469	1	2	0.084374	-4.28537	5.77188	-1.54762
 470	1	4	-0.422813	-3.80468	6.57648	-0.979086
 471	1	2	0.097892	-2.74419	6.61913	-1.24925
 472	1	2	0.084729	-6.50043	8.2815	-2.86727
 473	1	4	-0.400138	-5.90638	7.46996	-2.43917
 474	1	2	0.084733	-5.47995	6.85364	-3.23897
 475	1	2	0.073714	-6.53258	6.85427	-1.78354
 476	1	1	0.037815	-7.71511	12.0906	-0.775905
 477	1	2	0.048876	-5.67286	13.3406	2.25221
 478	1	1	-0.222978	-6.83021	11.3267	-0.037563
 479	1	2	0.097895	-7.3982	13.7155	1.89821
 480	1	3	0.054231	-9.59286	11.2212	-1.55
 481	1	3	0.054231	-8.29433	11.4054	-2.77379
 482	1	4	-0.159568	-8.51907	11.1857	-1.72489
 483	1	3	0.073528	-8.30294	10.121	-1.61202
 484	1	6	0.703056	-6.99772	11.433	1.76668
 485	1	2	0.084378	-6.94382	13.0555	3.48403
 486	1	4	-0.422828	-6.71877	13.061	2.41197
 487	1	2	0.048873	-9.35112	11.4847	1.32291
 488	1	2	0.084374	-8.93283	10.3228	2.62034
 489	1	4	-0.422813	-8.7404	11.3218	2.2159
 490	1	2	0.097892	-8.96645	12.0702	2.98285
 491	1	2	0.084729	-6.12122	10.9651	3.90441
 492	1	4	-0.400138	-6.0109	10.5123	2.91315
 493	1	2	0.084733	-6.36886	9.48781	2.94822
 494	1	2	0.073714	-4.9831	10.6025	2.57423
 495	1	1	0.037815	-7.10671	14.4556	-0.381428
 496	1	2	0.048876	-9.07671	16.3668	-1.8578
 497	1	1	-0.222978	-8.01705	13.4519	-0.7023
 498	1	2	0.097895	-10.688	15.8967	-2.46818
 499	1	3	0.054231	-5.32389	13.1257	-0.068083
 500	1	3	0.054231	-5.07668	14.383	-1.19594
 501	1	4	-0.159568	-5.60722	14.148	-0.285353
 502	1	3	0.073528	-5.1571	14.723	0.5292
 503	1	6	0.703056	-9.57966	14.0247	-1.50967
 504	1	2	0.084378	-10.4654	16.1161	-0.727165
 505	1	4	-0.422828	-9.97644	15.782	-1.64361
 506	1	2	0.048873	-10.5152	14.1032	-3.71914
 507	1	2	0.084374	-8.83581	13.4915	-3.75271
 508	1	4	-0.422813	-9.78948	13.4489	-3.22344
 509	1	2	0.097892	-10.1773	12.4279	-3.25527
 510	1	2	0.084729	-11.4781	12.5192	-1.64175
 511	1	4	-0.400138	-11.0378	13.1583	-0.870199
 512	1	2	0.084733	-10.7407	12.551	-0.00946796
 513	1	2	0.073714	-11.7776	13.9064	-0.56636
 514	1	1	0.037815	-6.62513	16.8812	-0.326176
 515	1	2	0.048876	-6.73484	15.823	2.68624
 516	1	1	-0.222978	-7.39789	15.7565	-0.0211468
 517	1	2	0.097895	-7.97188	16.9234	3.38361
 518	1	3	0.054231	-6.81103	17.8237	1.69405
 519	1	3	0.054231	-5.78446	18.6742	0.723638
 520	1	4	-0.159568	-6.70275	18.0848	0.650092
 521	1	3	0.073528	-7.49505	18.7858	0.365427
 522	1	6	0.703056	-8.68651	15.952	1.28832
 523	1	2	0.084378	-8.17646	15.1549	3.51081
 524	1	4	-0.422828	-7.80549	15.9672	2.87725
 525	1	2	0.048873	-9.79421	17.8964	0.412178
 526	1	2	0.084374	-10.4796	17.355	1.98116
 527	1	4	-0.422813	-9.55665	17.5328	1.418
 528	1	2	0.097892	-8.95024	18.264	1.96019
 529	1	2	0.084729	-10.123	14.6996	2.7154
 530	1	4	-0.400138	-9.87062	14.6515	1.65059
 531	1	2	0.084733	-10.7766	14.8478	1.07406
 532	1	2	0.073714	-9.44472	13.6797	1.41279
 533	1	1	0.037815	-5.24389	18.3752	-1.56991
 534	1	2	0.048876	-5.54976	16.8182	-5.30999
 535	1	1	-0.222978	-5.75907	17.1201	-1.39296
 536	1	2	0.097895	-6.65881	17.9009	-4.42105
 537	1	3	0.054231	-7.29904	18.8263	-2.19595
 538	1	3	0.054231	-6.50505	20.1813	-1.45761
 539	1	4	-0.159568	-6.32386	19.324	-2.10914
 540	1	3	0.073528	-6.10014	19.6828	-3.11652
 541	1	6	0.703056	-5.69022	16.2525	-2.9878
 542	1	2	0.084378	-4.86951	18.1128	-4.26881
 543	1	4	-0.422828	-5.68814	17.394	-4.38765
 544	1	2	0.048873	-6.66142	14.7111	-4.48366
 545	1	2	0.084374	-6.57722	14.0405	-2.83292
 546	1	4	-0.422813	-6.79922	14.9318	-3.41898
 547	1	2	0.097892	-7.80874	15.3076	-3.25055
 548	1	2	0.084729	-3.87027	14.6816	-2.84296
 549	1	4	-0.400138	-4.01666	15.6596	-3.30743
 550	1	2	0.084733	-3.88216	15.566	-4.39107
 551	1	2	0.073714	-3.30878	16.3774	-2.89778
 552	1	1	0.037815	-3.04935	18.0608	-0.534627
 553	1	2	0.048876	-4.28314	20.9601	-3.74175
 554	1	1	-0.222978	-3.97983	18.8194	-1.21344
 555	1	2	0.097895	-5.44353	21.7207	-2.57407
 556	1	3	0.054231	-4.30918	16.8699	0.803134
 557	1	3	0.054231	-3.60334	15.9758	-0.582038
 558	1	4	-0.159568	-3.43568	16.7574	0.159369
 559	1	3	0.073528	-2.6652	16.3445	0.813183
 560	1	6	0.703056	-3.61043	20.5936	-1.47201
 561	1	2	0.084378	-3.86766	22.4795	-2.88824
 562	1	4	-0.422828	-4.39392	21.5214	-2.80673
 563	1	2	0.048873	-5.40128	20.9643	0.113709
 564	1	2	0.084374	-3.78149	21.2464	0.817856
 565	1	4	-0.422813	-4.41152	21.3915	-0.0645168
 566	1	2	0.097892	-4.49531	22.4629	-0.280497
 567	1	2	0.084729	-1.386	20.7749	-0.551723
 568	1	4	-0.400138	-1.99647	21.332	-1.25274
 569	1	2	0.084733	-1.54771	21.3834	-2.24475
 570	1	2	0.073714	-2.13887	22.3521	-0.877472
 571	1	1	0.037815	-0.768547	18.39	-1.28758
 572	1	2	0.048876	-3.28237	17.8572	2.66806
 573	1	1	-0.222978	-1.7401	18.3568	-0.308679
 574	1	2	0.097895	-2.4946	19.2759	3.43356
 575	1	3	0.054231	-2.22601	18.1036	-2.93579
 576	1	3	0.054231	-1.04771	19.3431	-3.22833
 577	1	4	-0.159568	-1.18415	18.3628	-2.76272
 578	1	3	0.073528	-0.596053	17.6396	-3.33991
 579	1	6	0.703056	-1.38374	18.6364	1.43142
 580	1	2	0.084378	-3.53921	19.501	1.9891
 581	1	4	-0.422828	-2.8273	18.8365	2.4867
 582	1	2	0.048873	-1.17786	16.4831	2.43185
 583	1	2	0.084374	0.205206	16.8935	1.38022
 584	1	4	-0.422813	-0.472996	17.2687	2.13942
 585	1	2	0.097892	0.0725845	17.628	3.01862
 586	1	2	0.084729	-0.885497	20.9519	1.61719
 587	1	4	-0.400138	-0.279395	20.04	1.66062
 588	1	2	0.084733	0.195898	19.9587	2.64451
 589	1	2	0.073714	0.465424	20.0683	0.863929
 590	1	1	0.037815	0.925771	16.708	-1.0733
 591	1	2	0.048876	3.49307	19.9446	-0.349937
 592	1	1	-0.222978	0.546042	18.0461	-1.05959
 593	1	2	0.097895	3.81403	18.3179	-1.0324
 594	1	3	0.054231	-0.498115	15.5252	-2.23483
 595	1	3	0.054231	0.0480542	14.742	-0.721689
 596	1	4	-0.159568	-0.209073	15.69	-1.19256
 597	1	3	0.073528	-1.10149	15.969	-0.650703
 598	1	6	0.703056	1.71522	19.2404	-1.75648
 599	1	2	0.084378	4.01086	19.7715	-2.04377
 600	1	4	-0.422828	3.4318	19.3074	-1.23771
 601	1	2	0.048873	2.81507	19.2611	-3.8711
 602	1	2	0.084374	2.08139	17.6527	-3.48487
 603	1	4	-0.422813	1.94335	18.7386	-3.46286
 604	1	2	0.097892	1.05863	19.0183	-4.04078
 605	1	2	0.084729	0.865161	21.3164	-0.944668
 606	1	4	-0.400138	1.15697	20.9307	-1.92685
 607	1	2	0.084733	1.99013	21.5159	-2.3316
 608	1	2	0.073714	0.333065	20.9494	-2.63848
 609	1	1	0.037815	2.59827	14.965	-1.46924
 610	1	2	0.048876	5.01664	16.798	1.94638
 611	1	1	-0.222978	2.16855	16.1377	-0.850737
 612	1	2	0.097895	4.99578	15.281	1.02039
 613	1	3	0.054231	3.61509	13.7653	0.0629311
 614	1	3	0.054231	3.94197	13.2454	-1.57173
 615	1	4	-0.159568	3.7649	14.1328	-0.952498
 616	1	3	0.073528	4.69757	14.6939	-0.997807
 617	1	6	0.703056	3.00309	16.6232	0.706488
 618	1	2	0.084378	5.31431	16.8607	0.190331
 619	1	4	-0.422828	4.76235	16.3477	0.979581
 620	1	2	0.048873	3.38106	18.8727	1.39742
 621	1	2	0.084374	1.64773	18.5102	1.12603
 622	1	4	-0.422813	2.57436	18.1489	1.54208
 623	1	2	0.097892	2.46477	17.9529	2.61345
 624	1	2	0.084729	2.98371	14.5043	1.8685
 625	1	4	-0.400138	2.37564	15.4106	1.89572
 626	1	2	0.084733	2.43339	15.8394	2.90178
 627	1	2	0.073714	1.33803	15.1659	1.64789
 628	1	1	0.037815	2.21669	14.6924	-3.86443
 629	1	2	0.048876	-0.849187	11.6108	-2.30254
 630	1	1	-0.222978	1.97378	14.4056	-2.54287
 631	1	2	0.097895	-1.11219	13.3744	-2.22009
 632	1	3	0.054231	0.0768485	14.5151	-4.22608
 633	1	3	0.054231	0.880498	15.3303	-5.45863
 634	1	4	-0.159568	1.01693	14.4905	-4.77834
 635	1	3	0.073528	1.06655	13.5645	-5.36075
 636	1	6	0.703056	1.22415	12.7817	-2.18485
 637	1	2	0.084378	-0.60187	12.5946	-3.76369
 638	1	4	-0.422828	-0.50807	12.5843	-2.67411
 639	1	2	0.048873	2.95946	11.486	-3.1824
 640	1	2	0.084374	1.43824	10.5539	-2.98194
 641	1	4	-0.422813	1.87118	11.5147	-3.28321
 642	1	2	0.097892	1.58211	11.7402	-4.31257
 643	1	2	0.084729	2.34222	11.9008	-0.263587
 644	1	4	-0.400138	1.31291	12.2042	-0.479684
 645	1	2	0.084733	0.9953	13.0051	0.195403
 646	1	2	0.073714	0.647428	11.3389	-0.380654
 647	1	1	0.037815	4.51654	15.409	-3.71219
 648	1	2	0.048876	5.16537	16.4562	-7.69974
 649	1	1	-0.222978	3.36697	15.2252	-4.40516
 650	1	2	0.097895	5.71732	16.6291	-5.99948
 651	1	3	0.054231	4.22276	17.5446	-4.01057