pySIMM System Object

477 atoms
476 bonds
900 angles
1171 dihedrals
0 impropers

7 atom types
8 bond types
13 angle types
5 dihedral types

-105.020374 105.020374 xlo xhi
-105.020374 105.020374 ylo yhi
-105.020374 105.020374 zlo zhi

Masses

   1	12.01	# c2
   2	1.008	# h1
   3	1.008	# hc
   4	12.01	# c3
   5	1.008	# ha
   6	32.06	# s6
   7	1.008	# h4

Pair Coeffs

   1	0.086	3.3996695084235347	# c2
   2	0.0157	2.471353044121301	# h1
   3	0.0157	2.649532787749369	# hc
   4	0.1094	3.3996695084235347	# c3
   5	0.015	2.59964245953351	# ha
   6	0.25	3.563594872561357	# s6
   7	0.015	2.5105525877194763	# h4

Bond Coeffs

   1	344.6	1.0868	# c2,h4
   2	343.1	1.0879	# c2,ha
   3	233.5	1.8075	# c3,s6
   4	569.4	1.3343	# c2,c2
   5	326.8	1.5095	# c2,c3
   6	263.2	1.76	# c2,s6
   7	330.6	1.0969	# c3,hc
   8	330.6	1.0969	# c3,h1

Angle Coeffs

   1	62.73	120.01	# c2,c2,s6
   2	45.94	115.68	# c3,c2,ha
   3	43.19	107.15	# h1,c3,s6
   4	46.99	110.36	# c2,c3,hc
   5	39.4	107.58	# hc,c3,hc
   6	60.63	104.05	# c2,s6,c3
   7	59.92	103.83	# c3,s6,c3
   8	42.79	115.45	# h4,c2,s6
   9	39.24	108.46	# h1,c3,h1
  10	64.06	123.63	# c2,c2,c3
  11	49.4	122.67	# c2,c2,h4
  12	49.85	120.43	# c2,c2,ha
  13	69.3	121.81	# c2,c2,c2

Dihedral Coeffs

   1	1	6.65	2	180	# X,c2,c2,X
   2	1	0.14444444444444446	3	0	# X,c3,s6,X
   3	1	0.0	2	0	# X,c2,c3,X
   4	3	0.38	3	180	0.0	2	0	1.15	1	0	# hc,c3,c2,c2
   5	1	6.6499999999999995	2	180	# X,c2,s6,X

Atoms

   1	1	1	0.037815	13.3129	-2.01904	3.62207
   2	1	2	0.048876	12.8649	1.54651	4.36466
   3	1	1	-0.222978	13.6923	-1.5033	4.80806
   4	1	2	0.097895	11.286	0.681835	4.4268
   5	1	3	0.054231	11.453	-2.62126	2.7004
   6	1	3	0.054231	11.2295	-1.43311	3.92384
   7	1	4	-0.159568	11.9063	-1.71911	3.11768
   8	1	3	0.073528	11.8646	-0.925434	2.36934
   9	1	6	0.703056	12.9424	-0.302832	5.85742
  10	1	2	0.084378	11.7738	1.7601	5.77655
  11	1	4	-0.422828	12.128	1.05806	5.01326
  12	1	2	0.048873	10.7998	-1.37673	6.03561
  13	1	2	0.084374	11.997	-2.00872	7.21958
  14	1	4	-0.422813	11.5967	-1.10981	6.73645
  15	1	2	0.097892	11.2189	-0.411111	7.49109
  16	1	2	0.084729	14.9497	0.716532	6.62096
  17	1	4	-0.400138	14.1223	0.194743	7.11588
  18	1	2	0.084733	13.6225	0.850119	7.83673
  19	1	2	0.073714	14.492	-0.712183	7.61025
  20	1	1	0.037815	13.7866	-3.53434	1.81269
  21	1	2	0.048876	15.8915	-5.90234	2.98704
  22	1	1	-0.222978	14.0986	-2.95258	3.00272
  23	1	2	0.097895	16.6845	-4.6186	1.98149
  24	1	3	0.054231	13.4126	-5.37567	2.95079
  25	1	3	0.054231	12.6549	-5.35404	1.38051
  26	1	4	-0.159568	13.5641	-5.05073	1.91373
  27	1	3	0.073528	14.3874	-5.63874	1.50104
  28	1	6	0.703056	15.5302	-3.69152	3.85228
  29	1	2	0.084378	17.3945	-5.12248	3.55106
  30	1	4	-0.422828	16.4624	-4.96931	2.99475
  31	1	2	0.048873	16.4286	-1.61138	4.84393
  32	1	2	0.084374	17.5481	-2.99512	4.91785
  33	1	4	-0.422813	16.8053	-2.47834	4.29938
  34	1	2	0.097892	17.2747	-2.13807	3.37054
  35	1	2	0.084729	15.8888	-4.93407	5.85637
  36	1	4	-0.400138	15.0515	-4.34465	5.46853
  37	1	2	0.084733	14.8133	-3.54103	6.16969
  38	1	2	0.073714	14.1758	-4.98797	5.32437
  39	1	1	0.037815	13.3827	-3.68052	-0.500917
  40	1	2	0.048876	12.8995	-1.02684	-1.80255
  41	1	1	-0.222978	13.4628	-2.90984	0.628776
  42	1	2	0.097895	11.9893	-0.113534	-0.547284
  43	1	3	0.054231	15.1477	-4.04565	-1.73546
  44	1	3	0.054231	15.504	-4.07738	-0.0535309
  45	1	4	-0.159568	14.731	-4.36529	-0.77677
  46	1	3	0.073528	14.7001	-5.45464	-0.735322
  47	1	6	0.703056	13.9287	-1.18398	0.33486
  48	1	2	0.084378	13.5091	0.558676	-1.22786
  49	1	4	-0.422828	12.9797	-0.357851	-0.943852
  50	1	2	0.048873	13.5261	0.31167	2.19401
  51	1	2	0.084374	15.1161	-0.537636	2.31485
  52	1	4	-0.422813	14.4046	-0.0399778	1.64736
  53	1	2	0.097892	14.8918	0.818959	1.17321
  54	1	2	0.084729	15.2634	-1.77762	-1.56143
  55	1	4	-0.400138	15.4576	-1.27029	-0.611394
  56	1	2	0.084733	15.8052	-0.248196	-0.798256
  57	1	2	0.073714	16.1996	-1.81605	-0.0176635
  58	1	1	0.037815	11.1166	-3.16782	-1.30451
  59	1	2	0.048876	12.9831	-6.5457	-0.761722
  60	1	1	-0.222978	12.3563	-3.74806	-1.43317
  61	1	2	0.097895	11.2717	-6.63371	-1.24499
  62	1	3	0.054231	9.55715	-2.6692	0.214434
  63	1	3	0.054231	11.0803	-1.90483	0.458379
  64	1	4	-0.159568	10.6327	-2.83613	0.111087
  65	1	3	0.073528	10.8829	-3.64534	0.806528
  66	1	6	0.703056	12.4594	-5.11932	-2.65498
  67	1	2	0.084378	12.5174	-7.47061	-2.22406
  68	1	4	-0.422828	12.3012	-6.58736	-1.61247
  69	1	2	0.048873	11.3098	-4.9527	-4.76146
  70	1	2	0.084374	11.2218	-6.57617	-4.05777
  71	1	4	-0.422813	11.1483	-5.50584	-3.834
  72	1	2	0.097892	10.168	-5.29881	-3.40606
  73	1	2	0.084729	13.805	-6.15844	-4.31931
  74	1	4	-0.400138	14.032	-5.54033	-3.44363
  75	1	2	0.084733	14.5231	-4.6163	-3.76873
  76	1	2	0.073714	14.6687	-6.111	-2.7615
  77	1	1	0.037815	8.86976	-3.23201	-2.09564
  78	1	2	0.048876	12.7771	-3.4666	-4.75159
  79	1	1	-0.222978	10.206	-2.94551	-2.31695
  80	1	2	0.097895	12.7965	-1.74313	-5.11872
  81	1	3	0.054231	9.63645	-5.11317	-1.19143
  82	1	3	0.054231	8.22008	-4.52358	-0.398392
  83	1	4	-0.159568	8.69793	-4.58324	-1.37549
  84	1	3	0.073528	8.15711	-5.28581	-2.01457
  85	1	6	0.703056	10.8136	-2.32965	-3.92236
  86	1	2	0.084378	13.1853	-2.27557	-3.45793
  87	1	4	-0.422828	12.57	-2.4776	-4.33849
  88	1	2	0.048873	10.2754	-2.35912	-6.24361
  89	1	2	0.084374	9.62964	-3.80302	-5.38486
  90	1	4	-0.422813	9.7817	-2.72043	-5.33431
  91	1	2	0.097892	8.83032	-2.21797	-5.19845
  92	1	2	0.084729	9.78675	-0.19476	-4.0857
  93	1	4	-0.400138	10.8052	-0.536002	-3.93004
  94	1	2	0.084733	11.2073	-0.171861	-2.9809
  95	1	2	0.073714	11.4168	-0.17902	-4.76561
  96	1	1	0.037815	7.65579	-1.29226	-2.97197
  97	1	2	0.048876	6.23246	-5.35941	-1.00703
  98	1	1	-0.222978	7.73077	-2.59224	-2.56694
  99	1	2	0.097895	4.615	-4.96234	-1.63416
 100	1	3	0.054231	9.0492	0.317139	-2.291
 101	1	3	0.054231	7.5671	0.196556	-1.36337
 102	1	4	-0.159568	8.3078	-0.380954	-1.91394
 103	1	3	0.073528	8.82387	-0.928403	-1.12098
 104	1	6	0.703056	6.0954	-3.13463	-1.94744
 105	1	2	0.084378	5.92596	-5.36283	-2.79085
 106	1	4	-0.422828	5.6894	-4.88826	-1.83174
 107	1	2	0.048873	6.17758	-1.61028	-0.104572
 108	1	2	0.084374	5.1906	-3.06199	0.263733
 109	1	4	-0.422813	6.12027	-2.70125	-0.19064
 110	1	2	0.097892	6.97328	-3.14635	0.320101
 111	1	2	0.084729	3.82701	-2.49388	-1.66295
 112	1	4	-0.400138	4.60719	-2.22302	-2.3824
 113	1	2	0.084733	4.82148	-1.16211	-2.28694
 114	1	2	0.073714	4.28215	-2.47273	-3.39334
 115	1	1	0.037815	6.23111	-1.55214	-4.99831
 116	1	2	0.048876	5.66431	0.789248	-1.642
 117	1	1	-0.222978	6.83769	-0.794518	-3.99063
 118	1	2	0.097895	5.23263	2.35938	-2.3843
 119	1	3	0.054231	5.50144	-3.5824	-4.74841
 120	1	3	0.054231	7.24864	-3.52557	-4.69308
 121	1	4	-0.159568	6.36769	-3.06991	-5.13814
 122	1	3	0.073528	6.45577	-3.3486	-6.19065
 123	1	6	0.703056	6.4382	1.01479	-3.93647
 124	1	2	0.084378	4.32977	0.883529	-2.8304
 125	1	4	-0.422828	5.31148	1.27892	-2.55071
 126	1	2	0.048873	7.41909	3.17679	-3.72648
 127	1	2	0.084374	7.78183	2.17672	-2.29781
 128	1	4	-0.422813	7.71206	2.17541	-3.38965
 129	1	2	0.097892	8.6698	1.90178	-3.84479
 130	1	2	0.084729	5.03329	2.75645	-4.73129
 131	1	4	-0.400138	5.47068	1.86742	-5.19965
 132	1	2	0.084733	6.13556	2.20185	-5.99899
 133	1	2	0.073714	4.66618	1.23061	-5.57003
 134	1	1	0.037815	4.5826	-1.49969	-6.8261
 135	1	2	0.048876	5.64919	1.75552	-8.09206
 136	1	1	-0.222978	5.68873	-1.01853	-6.13684
 137	1	2	0.097895	7.33457	1.68662	-8.66703
 138	1	3	0.054231	4.0534	0.4425	-7.6594
 139	1	3	0.054231	2.99267	-0.811521	-8.1619
 140	1	4	-0.159568	4.04589	-0.612254	-7.94728
 141	1	3	0.073528	4.5807	-0.735523	-8.89046
 142	1	6	0.703056	6.9046	-0.0899214	-7.15346
 143	1	2	0.084378	6.14451	0.56132	-9.35792
 144	1	4	-0.422828	6.44218	1.08991	-8.44747
 145	1	2	0.048873	9.14534	0.66505	-7.298
 146	1	2	0.084374	8.30957	1.39466	-5.90533
 147	1	4	-0.422813	8.46011	0.470577	-6.46453
 148	1	2	0.097892	8.86247	-0.321587	-5.84598
 149	1	2	0.084729	6.64999	-1.79909	-8.81104
 150	1	4	-0.400138	7.49509	-1.39133	-8.24789
 151	1	2	0.084733	8.23608	-0.960671	-8.93072
 152	1	2	0.073714	7.95773	-2.1746	-7.63723
 153	1	1	0.037815	2.56672	-2.03615	-5.64073
 154	1	2	0.048876	5.72348	-4.13259	-8.17383
 155	1	1	-0.222978	3.63419	-2.41656	-6.43566
 156	1	2	0.097895	5.15261	-5.13871	-6.81327
 157	1	3	0.054231	3.65798	-0.484585	-4.58584
 158	1	3	0.054231	1.99483	-0.476598	-4.205
 159	1	4	-0.159568	2.67648	-0.642333	-5.03555
 160	1	3	0.073528	2.52525	0.134021	-5.78404
 161	1	6	0.703056	3.40786	-3.72491	-7.6957
 162	1	2	0.084378	4.69612	-5.56869	-8.49247
 163	1	4	-0.422828	4.8948	-4.74388	-7.79854
 164	1	2	0.048873	2.05157	-5.64425	-7.15532
 165	1	2	0.084374	1.05978	-4.16969	-7.49672
 166	1	4	-0.422813	1.93522	-4.7573	-7.78255
 167	1	2	0.097892	1.8257	-5.08209	-8.82331
 168	1	2	0.084729	3.54048	-4.0561	-10.0513
 169	1	4	-0.400138	3.63335	-3.17803	-9.40223
 170	1	2	0.084733	2.85185	-2.45425	-9.656
 171	1	2	0.073714	4.63288	-2.75071	-9.52575
 172	1	1	0.037815	0.197573	-2.22056	-5.06399
 173	1	2	0.048876	-0.102387	-5.41193	-5.91706
 174	1	1	-0.222978	1.45859	-2.77063	-5.27349
 175	1	2	0.097895	0.881011	-6.65626	-5.10176
 176	1	3	0.054231	-0.782194	-3.41221	-3.44694
 177	1	3	0.054231	-1.8747	-2.40893	-4.33201
 178	1	4	-0.159568	-0.970518	-3.01746	-4.44443
 179	1	3	0.073528	-1.30066	-3.83814	-5.08231
 180	1	6	0.703056	1.71116	-4.47106	-4.65374
 181	1	2	0.084378	-0.30344	-5.70795	-4.14649
 182	1	4	-0.422828	0.403777	-5.67694	-4.98174
 183	1	2	0.048873	3.15169	-6.26323	-4.13497
 184	1	2	0.084374	3.54861	-5.59009	-5.72226
 185	1	4	-0.422813	3.27672	-5.33493	-4.70469
 186	1	2	0.097892	4.01325	-4.71856	-4.20087
 187	1	2	0.084729	1.04006	-3.42501	-2.57802
 188	1	4	-0.400138	1.57769	-4.33368	-2.85616
 189	1	2	0.084733	1.08199	-5.2282	-2.46314
 190	1	2	0.073714	2.58964	-4.26909	-2.44673
 191	1	1	0.037815	-0.732245	-0.0995888	-4.55646
 192	1	2	0.048876	-2.12318	-2.66982	-8.47136
 193	1	1	-0.222978	-0.234022	-0.99276	-5.48281
 194	1	2	0.097895	-1.0168	-3.45502	-7.2984
 195	1	3	0.054231	-1.20281	-0.486651	-2.4139
 196	1	3	0.054231	0.336369	-1.1363	-2.88281
 197	1	4	-0.159568	-0.352351	-0.30833	-3.074
 198	1	3	0.073528	0.171554	0.576383	-2.6958
 199	1	6	0.703056	-0.97198	-1.0592	-7.13711
 200	1	2	0.084378	-2.59308	-2.76725	-6.74785
 201	1	4	-0.422828	-1.75073	-2.65682	-7.43975
 202	1	2	0.048873	-2.49817	-0.108094	-8.68737
 203	1	2	0.084374	-3.08001	0.0236637	-7.00092
 204	1	4	-0.422813	-2.21046	0.129324	-7.65637
 205	1	2	0.097892	-1.81701	1.13811	-7.61307
 206	1	2	0.084729	0.934339	-2.08572	-8.11895
 207	1	4	-0.400138	0.272695	-1.26934	-8.41466
 208	1	2	0.084733	-0.240435	-1.51729	-9.35126
 209	1	2	0.073714	0.832119	-0.339488	-8.53912
 210	1	1	0.037815	-2.60605	1.34134	-4.29141
 211	1	2	0.048876	1.77501	3.45348	-5.20321
 212	1	1	-0.222978	-1.32987	1.11159	-4.78074
 213	1	2	0.097895	0.995818	3.06075	-3.66052
 214	1	3	0.054231	-3.76852	-0.408141	-4.90236
 215	1	3	0.054231	-3.02234	-0.619925	-3.34372
 216	1	4	-0.159568	-3.48792	0.123718	-3.98749
 217	1	3	0.073528	-4.39862	0.403514	-3.4471
 218	1	6	0.703056	-0.346829	2.42694	-5.57846
 219	1	2	0.084378	1.74635	1.76427	-4.61726
 220	1	4	-0.422828	1.18872	2.69792	-4.6661
 221	1	2	0.048873	1.40581	2.6217	-7.19698
 222	1	2	0.084374	0.984098	0.917836	-6.87012
 223	1	4	-0.422813	0.584854	1.91391	-7.0346
 224	1	2	0.097892	-0.0568988	1.94159	-7.91857
 225	1	2	0.084729	-0.245087	4.74207	-6.08201
 226	1	4	-0.400138	-1.06526	4.02175	-5.98809
 227	1	2	0.084733	-1.56098	3.92299	-6.95774
 228	1	2	0.073714	-1.76632	4.35111	-5.2223
 229	1	1	0.037815	-2.61953	3.40029	-3.05938
 230	1	2	0.048876	-6.54726	4.07651	-4.39835
 231	1	1	-0.222978	-3.18091	2.5583	-4.01352
 232	1	2	0.097895	-5.08443	5.16509	-4.48114
 233	1	3	0.054231	-0.578062	2.84253	-2.47916
 234	1	3	0.054231	-1.70453	3.05696	-1.11392
 235	1	4	-0.159568	-1.60243	2.72122	-2.14802
 236	1	3	0.073528	-1.79599	1.65557	-2.02221
 237	1	6	0.703056	-4.65137	2.90905	-5.04068
 238	1	2	0.084378	-5.93591	4.65781	-5.96349
 239	1	4	-0.422828	-5.65039	4.36865	-4.94571
 240	1	2	0.048873	-4.93746	2.93432	-7.4061
 241	1	2	0.084374	-3.62714	4.01957	-6.86189
 242	1	4	-0.422813	-4.07968	3.03294	-6.73
 243	1	2	0.097892	-3.36319	2.23932	-6.90679
 244	1	2	0.084729	-6.18818	1.15996	-4.47055
 245	1	4	-0.400138	-5.76014	1.53235	-5.40745
 246	1	2	0.084733	-6.56539	1.91587	-6.04472
 247	1	2	0.073714	-5.2199	0.74782	-5.94437
 248	1	1	0.037815	-4.33198	4.86709	-2.14147
 249	1	2	0.048876	-1.17317	7.68257	-0.73427
 250	1	1	-0.222978	-3.03972	4.62399	-2.57123
 251	1	2	0.097895	-1.97423	8.12932	-2.26082
 252	1	3	0.054231	-4.4482	2.77474	-1.43206
 253	1	3	0.054231	-5.67763	3.79192	-0.768154
 254	1	4	-0.159568	-5.10418	3.61626	-1.68286
 255	1	3	0.073528	-5.81481	3.26606	-2.43551
 256	1	6	0.703056	-1.68049	5.79212	-2.08853
 257	1	2	0.084378	-2.92547	7.42236	-0.886026
 258	1	4	-0.422828	-1.98259	7.42303	-1.42569
 259	1	2	0.048873	0.167195	6.01213	-0.580815
 260	1	2	0.084374	-1.02223	4.81871	0.0164032
 261	1	4	-0.422813	-0.485083	5.17901	-0.867447
 262	1	2	0.097892	0.148148	4.39979	-1.29727
 263	1	2	0.084729	-0.0832892	4.91899	-3.62582
 264	1	4	-0.400138	-0.435301	5.92072	-3.37783
 265	1	2	0.084733	-0.867633	6.40896	-4.25616
 266	1	2	0.073714	0.393848	6.526	-2.99285
 267	1	1	0.037815	-6.14079	6.22836	-1.29157
 268	1	2	0.048876	-2.77976	8.06268	-4.4725
 269	1	1	-0.222978	-4.91125	6.0954	-1.88031
 270	1	2	0.097895	-2.99119	6.2677	-4.43446
 271	1	3	0.054231	-8.07808	6.58948	-2.32946
 272	1	3	0.054231	-7.06932	5.4333	-3.10104
 273	1	4	-0.159568	-7.3559	5.79712	-2.12906
 274	1	3	0.073528	-7.89972	4.97982	-1.63839
 275	1	6	0.703056	-4.65238	7.42857	-3.11436
 276	1	2	0.084378	-4.07988	7.26339	-5.40853
 277	1	4	-0.422828	-3.49371	7.23141	-4.48238
 278	1	2	0.048873	-5.97505	8.72824	-4.62006
 279	1	2	0.084374	-6.57913	7.05164	-4.50139
 280	1	4	-0.422813	-6.19149	7.90199	-3.9326
 281	1	2	0.097892	-6.91198	8.24018	-3.18236
 282	1	2	0.084729	-5.44285	9.29587	-1.82337
 283	1	4	-0.400138	-4.54449	9.09191	-2.40493
 284	1	2	0.084733	-3.66741	9.21494	-1.77058
 285	1	2	0.073714	-4.48273	9.80563	-3.23452
 286	1	1	0.037815	-7.67828	6.8923	0.301496
 287	1	2	0.048876	-3.12048	5.78077	0.322848
 288	1	1	-0.222978	-6.42806	6.41208	0.0407253
 289	1	2	0.097895	-3.20398	5.349	2.05377
 290	1	3	0.054231	-8.25883	8.37296	-1.25954
 291	1	3	0.054231	-8.30422	8.99178	0.41004
 292	1	4	-0.159568	-7.79431	8.30898	-0.275502
 293	1	3	0.073528	-6.8076	8.76768	-0.375613
 294	1	6	0.703056	-5.18916	6.42384	1.33351
 295	1	2	0.084378	-4.09394	4.36581	0.844814
 296	1	4	-0.422828	-3.75369	5.37219	1.10609
 297	1	2	0.048873	-5.15824	8.77484	1.74551
 298	1	2	0.084374	-3.49998	8.07571	1.6932
 299	1	4	-0.422813	-4.49103	8.07758	1.22514
 300	1	2	0.097892	-4.42031	8.35848	0.173951
 301	1	2	0.084729	-6.00309	5.44595	3.35714
 302	1	4	-0.400138	-5.7111	6.45175	3.0484
 303	1	2	0.084733	-4.86333	6.79348	3.65279
 304	1	2	0.073714	-6.54006	7.15183	3.14732
 305	1	1	0.037815	-8.60065	5.51244	2.14135
 306	1	2	0.048876	-11.82	7.66987	2.53345
 307	1	1	-0.222978	-8.61005	6.54931	1.25036
 308	1	2	0.097895	-12.6368	6.78022	1.23121
 309	1	3	0.054231	-8.61825	3.44138	1.52086
 310	1	3	0.054231	-7.30128	4.28978	0.830076
 311	1	4	-0.159568	-7.89011	4.22493	1.74232
 312	1	3	0.073528	-7.22206	3.87772	2.53555
 313	1	6	0.703056	-10.3233	7.05049	0.787418
 314	1	2	0.084378	-11.6676	5.87189	2.41409
 315	1	4	-0.422828	-11.7444	6.80789	1.86619
 316	1	2	0.048873	-11.8391	8.44697	-0.399846
 317	1	2	0.084374	-10.4106	9.37093	0.14436
 318	1	4	-0.422813	-10.7475	8.4296	-0.301958
 319	1	2	0.097892	-10.3151	8.27088	-1.29356
 320	1	2	0.084729	-10.1901	5.97268	-1.33958
 321	1	4	-0.400138	-10.6689	5.72636	-0.38664
 322	1	2	0.084733	-10.2549	4.79057	0.00133518
 323	1	2	0.073714	-11.7522	5.6378	-0.522278
 324	1	1	0.037815	-9.75909	4.55086	4.10215
 325	1	2	0.048876	-8.78024	6.83975	6.31224
 326	1	1	-0.222978	-9.33914	5.59141	3.30147
 327	1	2	0.097895	-7.54277	6.37375	5.10344
 328	1	3	0.054231	-11.736	5.38521	4.53539
 329	1	3	0.054231	-11.4568	3.85944	5.31038
 330	1	4	-0.159568	-10.9569	4.79473	5.02548
 331	1	3	0.073528	-10.6869	5.27858	5.96193
 332	1	6	0.703056	-9.48539	7.27411	4.04848
 333	1	2	0.084378	-7.78687	8.10092	5.51844
 334	1	4	-0.422828	-8.28037	7.13244	5.38381
 335	1	2	0.048873	-7.92714	8.59475	2.75247
 336	1	2	0.084374	-9.64505	9.06188	2.44917
 337	1	4	-0.422813	-8.91043	8.76033	3.19939
 338	1	2	0.097892	-8.83536	9.55106	3.95467
 339	1	2	0.084729	-11.8135	7.61998	4.61012
 340	1	4	-0.400138	-10.8601	7.78935	5.11809
 341	1	2	0.084733	-10.8398	7.27628	6.08146
 342	1	2	0.073714	-10.7364	8.86112	5.3084
 343	1	1	0.037815	-10.3164	2.36634	3.2679
 344	1	2	0.048876	-9.96433	3.73709	7.33016
 345	1	1	-0.222978	-9.50424	3.2153	3.99675
 346	1	2	0.097895	-8.26816	3.39556	7.76757
 347	1	3	0.054231	-12.2391	3.35753	2.90353
 348	1	3	0.054231	-10.915	3.97153	1.92371
 349	1	4	-0.159568	-11.3291	3.06864	2.36667
 350	1	3	0.073528	-11.5831	2.47984	1.48297
 351	1	6	0.703056	-8.7504	2.68465	5.55273
 352	1	2	0.084378	-8.62566	4.78454	6.70357
 353	1	4	-0.422828	-8.92759	3.77231	6.97785
 354	1	2	0.048873	-10.2594	1.08724	6.41094
 355	1	2	0.084374	-8.91523	0.305698	5.53488
 356	1	4	-0.422813	-9.17967	1.08981	6.22863
 357	1	2	0.097892	-8.64624	0.967667	7.17724
 358	1	2	0.084729	-6.51394	2.55219	4.60265
 359	1	4	-0.400138	-6.98299	3.05628	5.44784
 360	1	2	0.084733	-6.87808	4.1382	5.31257
 361	1	2	0.073714	-6.50479	2.75844	6.38686
 362	1	1	0.037815	-9.17474	0.176891	3.16594
 363	1	2	0.048876	-14.2085	0.174959	2.38979
 364	1	1	-0.222978	-10.2928	0.9863	3.14884
 365	1	2	0.097895	-13.5404	1.81287	2.28634
 366	1	3	0.054231	-7.75018	1.75336	2.70006
 367	1	3	0.054231	-7.35302	0.75386	4.09972
 368	1	4	-0.159568	-7.77805	0.751211	3.11498
 369	1	3	0.073528	-7.09813	0.161911	2.49387
 370	1	6	0.703056	-11.947	0.16404	3.13159
 371	1	2	0.084378	-13.1142	0.56998	1.05363
 372	1	4	-0.422828	-13.3239	0.758749	2.10933
 373	1	2	0.048873	-12.4926	-1.95931	2.18846
 374	1	2	0.084374	-11.2455	-2.15055	3.47096
 375	1	4	-0.422813	-12.156	-1.62953	3.17555
 376	1	2	0.097892	-12.9434	-1.84377	3.90779
 377	1	2	0.084729	-12.7045	1.88999	4.61232
 378	1	4	-0.400138	-12.718	0.796044	4.63368
 379	1	2	0.084733	-13.7522	0.435138	4.67415
 380	1	2	0.073714	-12.162	0.427248	5.50045
 381	1	1	0.037815	-8.4389	-2.14865	3.20211
 382	1	2	0.048876	-9.66444	-3.34687	0.021477
 383	1	1	-0.222978	-9.1892	-1.1015	2.70806
 384	1	2	0.097895	-11.1567	-2.92953	0.933559
 385	1	3	0.054231	-7.97931	-3.60227	1.5909
 386	1	3	0.054231	-9.57469	-3.80816	2.34801
 387	1	4	-0.159568	-8.5331	-3.52318	2.52575
 388	1	3	0.073528	-8.13167	-4.3225	3.15944
 389	1	6	0.703056	-9.58791	-1.12004	0.929809
 390	1	2	0.084378	-10.8849	-2.25349	-0.70275
 391	1	4	-0.422828	-10.403	-2.56606	0.230645
 392	1	2	0.048873	-10.031	0.328695	-0.908474
 393	1	2	0.084374	-11.2498	0.510713	0.375278
 394	1	4	-0.422813	-10.1895	0.397653	0.173873
 395	1	2	0.097892	-9.61306	1.23994	0.573458
 396	1	2	0.084729	-7.52582	-2.21256	0.234378
 397	1	4	-0.400138	-8.0118	-1.25555	0.0500582
 398	1	2	0.084733	-8.22103	-1.16356	-1.02164
 399	1	2	0.073714	-7.36036	-0.434566	0.365118
 400	1	1	0.037815	-6.42409	-2.63061	4.33211
 401	1	2	0.048876	-8.70957	-2.93969	8.1942
 402	1	1	-0.222978	-7.728	-2.18325	4.3764
 403	1	2	0.097895	-7.08831	-3.12334	7.47591
 404	1	3	0.054231	-4.66504	-2.30022	3.08005
 405	1	3	0.054231	-5.75673	-3.53035	2.42566
 406	1	4	-0.159568	-5.7144	-2.57992	2.96612
 407	1	3	0.073528	-6.12389	-1.81876	2.29679
 408	1	6	0.703056	-8.71458	-2.4777	5.86658
 409	1	2	0.084378	-7.75181	-1.4785	7.82238
 410	1	4	-0.422828	-7.97932	-2.5002	7.50437
 411	1	2	0.048873	-11.1061	-2.66355	5.82428
 412	1	2	0.084374	-10.5206	-1.38297	6.93753
 413	1	4	-0.422813	-10.3888	-1.84468	5.95208
 414	1	2	0.097892	-10.5096	-1.09301	5.17655
 415	1	2	0.084729	-8.14916	-4.77963	5.60497
 416	1	4	-0.400138	-9.08905	-4.23294	5.73445
 417	1	2	0.084733	-9.59668	-4.54978	6.6524
 418	1	2	0.073714	-9.74821	-4.38637	4.87301
 419	1	1	0.037815	-4.67574	-3.91555	5.2825
 420	1	2	0.048876	-2.78575	-1.56734	5.98568
 421	1	1	-0.222978	-5.56041	-2.86687	5.37279
 422	1	2	0.097895	-3.65493	-0.626477	4.72006
 423	1	3	0.054231	-4.53565	-5.11308	3.40671
 424	1	3	0.054231	-6.07641	-5.24859	4.24514
 425	1	4	-0.159568	-4.99619	-5.12987	4.39315
 426	1	3	0.073528	-4.65989	-6.05836	4.87342
 427	1	6	0.703056	-5.13583	-1.43266	6.39054
 428	1	2	0.084378	-3.32678	0.100567	6.32986
 429	1	4	-0.422828	-3.55663	-0.827071	5.79279
 430	1	2	0.048873	-5.76498	0.499428	5.27552
 431	1	2	0.084374	-7.13101	-0.278707	6.16596
 432	1	4	-0.422813	-6.09756	0.027584	6.20265
 433	1	2	0.097892	-5.90585	0.687762	7.05451
 434	1	2	0.084729	-5.40823	-2.32414	8.59673
 435	1	4	-0.400138	-4.71635	-1.62007	8.12794
 436	1	2	0.084733	-3.67979	-1.94447	8.22185
 437	1	2	0.073714	-4.82253	-0.637442	8.60126
 438	1	1	0.037815	-3.52975	-4.33948	7.42351
 439	1	2	0.048876	-2.24195	-6.31424	4.41152
 440	1	1	-0.222978	-3.57988	-4.09481	6.06202
 441	1	2	0.097895	-0.561809	-5.68754	4.29303
 442	1	3	0.054231	-2.02299	-4.49863	9.06039
 443	1	3	0.054231	-1.81345	-3.13818	8.01832
 444	1	4	-0.159568	-2.14101	-4.18364	8.04026
 445	1	3	0.073528	-1.402	-4.8105	7.54598
 446	1	6	0.703056	-2.0873	-4.00832	5.01322
 447	1	2	0.084378	-1.26351	-6.089	5.89518
 448	1	4	-0.422828	-1.47639	-5.69869	4.89618
 449	1	2	0.048873	-1.28011	-3.59281	2.81752
 450	1	2	0.084374	-3.00187	-4.0234	2.7646
 451	1	4	-0.422813	-2.25095	-3.45113	3.30657
 452	1	2	0.097892	-2.49939	-2.38534	3.31864
 453	1	2	0.084729	0.00488152	-2.91166	4.7835
 454	1	4	-0.400138	-0.592343	-3.2122	5.65178
 455	1	2	0.084733	-0.864631	-2.31793	6.22016
 456	1	2	0.073714	-0.00967476	-3.9086	6.26132
 457	1	1	0.037815	-5.73398	-5.23311	7.72271
 458	1	2	0.048876	-3.26792	-3.78961	11.8545
 459	1	1	-0.222978	-4.56823	-4.76875	8.23549
 460	1	2	0.097895	-2.76129	-3.07804	10.2891
 461	1	3	0.054231	-6.75022	-6.74353	8.90805
 462	1	3	0.054231	-7.45433	-5.08248	9.05289
 463	1	4	-0.159568	-6.96508	-5.80283	8.38969
 464	1	3	0.073528	-7.71228	-6.05064	7.62607
 465	1	6	0.703056	-4.41691	-4.87116	10.059
 466	1	2	0.084378	-4.35435	-2.67727	10.971
 467	1	4	-0.422828	-3.60307	-3.46726	10.8613
 468	1	2	0.048873	-5.48429	-5.241	12.1471
 469	1	2	0.084374	-6.61719	-4.53652	10.9586
 470	1	4	-0.422813	-5.82701	-5.27954	11.106
 471	1	2	0.097892	-6.16907	-6.29523	10.8884
 472	1	2	0.084729	-3.42726	-7.02307	9.71102
 473	1	4	-0.400138	-3.28314	-6.22788	10.451
 474	1	2	0.084733	-2.24281	-5.89351	10.463
 475	1	2	0.073714	-3.53646	-6.59904	11.4505
 476	1	7	0	14.6015	-1.76982	5.29632
 477	1	5	0	-5.90086	-5.31821	6.67195

Velocities

   1	0.000379244	-0.000368768	0.000423409
   2	-0.00212114	-0.000112392	-0.00104883
   3	1.31872e-05	-0.000309278	0.000113124
   4	-0.00131915	-0.00206823	-0.000986944
   5	0.000594778	0.000108032	-0.00133645
   6	0.000161638	-0.00122933	-0.000333062
   7	0.000460751	-0.000240369	-0.00027053
   8	0.000829096	0.000370873	0.000429875
   9	-0.0003318	0.00044956	-0.000655122
  10	-0.00246828	-0.0013739	-0.00101895
  11	-0.00175379	-0.000723716	-0.00112953
  12	0.000209268	7.36234e-05	-0.000955682
  13	-4.62162e-05	0.00089392	-0.000227555
  14	-0.000188319	0.000486804	-0.000710866
  15	-0.000404943	0.000951255	-0.00139554
  16	-0.0025121	0.00307912	0.000716774
  17	-0.00260705	0.00278124	0.000170387
  18	-0.00462154	0.00331278	-0.00161248
  19	-0.00252002	0.00389968	0.00194863
  20	-0.000168446	-0.00046738	0.000287973
  21	-0.000741161	-0.00142791	4.21921e-05
  22	-0.000186577	-0.00095896	-0.0004901
  23	-0.00211036	-0.00239087	-0.00202369
  24	-0.000756753	-0.000716164	-0.000485085
  25	-0.00122208	0.000258231	-0.000292296
  26	-0.000972279	-0.00047875	-0.000470494
  27	-0.00145502	-0.000751821	-0.000877827
  28	0.000294891	-0.000921824	-0.000800675
  29	0.000251779	-0.0012214	-0.00297025
  30	-0.000787455	-0.00155933	-0.00151247
  31	0.000323733	-0.000453739	-0.00248031
  32	0.00110446	-5.02916e-05	-0.00303203
  33	0.000307786	-0.000557828	-0.00247515
  34	-0.000412247	-0.000774582	-0.00301532
  35	0.00272511	0.00137167	-1.97001e-05
  36	0.00194419	-6.5273e-05	-4.42843e-05
  37	0.00137186	0.000237724	-0.00036578
  38	0.00255664	-0.000944075	0.00104242
  39	-0.000199132	-2.24716e-05	0.000437676
  40	-0.000824278	0.000724466	0.00024989
  41	-0.000413123	-0.000229399	-0.000553998
  42	-0.00118458	-0.000789645	0.000984553
  43	-0.000903491	-0.00055338	-0.000472023
  44	-0.0003322	8.8595e-05	-0.000481482
  45	-0.000594649	-0.000197494	-0.000201821
  46	-0.000627941	-0.000204555	0.000250454
  47	-0.000339293	-0.000143421	-7.07431e-06
  48	-0.00177819	0.000651903	0.00119818
  49	-0.00105678	0.000103285	0.00069377
  50	0.000854418	0.000136862	2.07656e-05
  51	0.000681301	-0.000242012	-0.000656583
  52	0.000472088	-0.000163393	-0.00035231
  53	0.000419927	-0.000397943	-0.000827182
  54	-0.00150537	0.000211853	-0.00104777
  55	-0.000949972	-2.12685e-05	-0.00100603
  56	-0.00100094	-6.35304e-06	-0.000989644
  57	-0.000597712	-0.000150756	-0.00164723
  58	-5.0873e-05	-0.000113677	0.000319679
  59	-0.00102031	-0.000382125	-0.000554659
  60	-0.000879776	-4.44301e-05	-0.000214636
  61	-0.00107701	-0.000213068	-0.000669596
  62	-0.000439974	-0.000565972	1.96821e-05
  63	-0.000585508	-0.00046069	0.000564281
  64	-0.000459045	-0.000408447	0.000163835
  65	-0.000469885	-0.000672561	-2.82663e-05
  66	-0.000674551	1.28889e-05	-0.000166939
  67	-0.00102946	-4.48804e-05	-0.00077655
  68	-0.00100936	-0.000175822	-0.000560148
  69	-0.000672312	0.000760579	-0.000189268
  70	-0.000954332	0.000541343	-0.000783735
  71	-0.000759324	0.000452292	-0.000385427
  72	-0.000751795	0.000410087	-0.000343905
  73	-0.0006971	-0.00228522	0.00108335
  74	-0.0008038	-0.000721539	3.82633e-05
  75	-0.0011505	-0.00109116	-0.00144246
  76	-0.000424515	0.000590327	0.000733736
  77	-0.000197561	-0.000233639	-0.000209047
  78	0.000202623	0.000816435	0.000749767
  79	-0.000567918	7.66793e-06	-2.08017e-05
  80	0.000251236	0.000934339	0.00105966
  81	-0.000459469	0.000300011	0.00118063
  82	-0.00133969	0.000509348	-0.000224753
  83	-0.000485832	-1.4001e-05	0.000203589
  84	0.000152648	-0.000381537	8.14782e-05
  85	5.24118e-05	0.00059465	0.000461699
  86	-9.47368e-05	0.000581753	0.00105808
  87	0.000105297	0.000743746	0.000850272
  88	0.00075962	0.001968	0.00033618
  89	0.00079717	0.00129219	-0.000827273
  90	0.000556076	0.00123502	-4.32129e-05
  91	0.000438249	0.000937163	-1.7432e-05
  92	2.00896e-05	0.000616583	0.00102044
  93	7.57767e-06	0.000575247	0.000863138
  94	1.74216e-05	0.000444034	0.000902386
  95	-9.06864e-05	0.000793948	0.000903011
  96	-0.000583665	-0.000118211	-0.000444842
  97	-1.47534e-05	9.9773e-05	0.000959353
  98	-0.000273113	-0.000408618	-0.000369014
  99	-3.59447e-05	-0.000875297	0.000517807
 100	-0.000482227	-0.000439815	0.000838405
 101	-0.000868544	-0.000453124	0.000143431
 102	-0.000617236	-0.000409648	0.000463524
 103	-0.00106806	-0.000621856	0.000521803
 104	-0.000440803	-0.000709618	-0.00117117
 105	5.31979e-05	-0.00161733	0.000932893
 106	-6.07081e-05	-0.000723239	0.000463876
 107	-0.00145619	0.00147213	-0.00308683
 108	-0.00108053	0.00163827	-0.00143984
 109	-0.00108711	0.00131329	-0.00170174
 110	-0.000976554	0.00224816	-0.00112115
 111	-0.00130084	-0.0029645	-0.00345441
 112	-0.000571524	-0.00135649	-0.00193427
 113	-0.00165463	-0.00134722	-0.000187288
 114	0.00107771	-0.000277191	-0.00272011
 115	-0.000520421	-0.000148181	-0.00137762
 116	-0.00131357	-0.0013921	0.000230591
 117	0.0002369	4.17492e-05	0.000777357
 118	-0.00130061	-0.00105862	0.000880921
 119	0.00103272	-0.000772616	-0.00222672
 120	0.000855494	0.000148574	-0.000864271
 121	0.00107437	8.14496e-05	-0.00103637
 122	0.0018123	0.000750776	-0.0013569
 123	-0.000652657	-0.000281624	0.000479332
 124	-0.000952567	-0.00093154	-0.000109776
 125	-0.00106318	-0.000949458	0.000387137
 126	-0.000573814	-0.000245869	0.0012134
 127	-0.000567919	-0.000661435	0.000894153
 128	-0.000600804	-0.000373478	0.000896256
 129	-0.000690307	-0.000277574	0.000745124
 130	-0.000641473	-0.000260805	0.000678445
 131	-0.000200249	4.79867e-05	0.000492559
 132	0.000124682	0.000496237	0.000942833
 133	0.000140788	-8.00742e-06	-0.000153055
 134	-0.000963585	-0.000625046	-0.000409207
 135	0.0018678	0.00209391	0.000806546
 136	0.000817943	0.00033112	0.000763153
 137	0.000562215	-0.00222062	-0.00299956
 138	0.000836612	0.000213551	-0.000647808
 139	-0.000564149	0.000676531	0.00105867
 140	-9.2472e-05	9.88442e-05	6.83267e-06
 141	-0.00123668	-0.000848164	-0.000449118
 142	-0.000354758	0.000331528	-0.000190773
 143	-0.00347096	-4.06208e-05	0.000720542
 144	-0.000294225	5.49538e-05	-0.000376713
 145	0.000305186	-0.000884487	0.000829803
 146	-0.000979852	0.00168126	-0.00111258
 147	-0.000648557	0.000737625	0.000441866
 148	-0.00174045	0.00161337	0.00219611
 149	-0.000318729	6.2856e-05	0.000303322
 150	-0.000222479	0.000188422	0.000104975
 151	-0.000303924	8.6489e-07	-7.98239e-05
 152	-0.000200826	0.000322328	0.000249576
 153	-0.000461433	7.60837e-05	0.000947986
 154	0.000186434	0.000959849	0.000692283
 155	0.00112446	0.00046458	-0.00049982
 156	2.41168e-06	-0.000199709	-0.000232094
 157	0.000957498	-0.000738025	0.00144733
 158	0.000741919	0.000630813	0.000318556
 159	0.00128933	0.00017032	0.000676122
 160	0.00241108	0.000664221	0.00106459
 161	-0.000111354	-8.0151e-05	0.000168801
 162	0.000881289	0.000837272	-0.000754555
 163	0.00026869	0.000402272	-4.80109e-05
 164	-0.000768718	0.000626943	0.0016236
 165	-8.68507e-05	0.000475535	-0.000998955
 166	-7.95518e-07	-0.000105344	0.000410062
 167	0.000723997	-0.001481	0.000777815
 168	-0.00131176	0.000187905	-2.62038e-05
 169	-0.000563893	3.89447e-05	9.58889e-05
 170	-0.000344994	0.0004558	0.000590983
 171	-0.000427163	-0.000473493	-0.000334982
 172	0.000119108	0.00160683	0.00114409
 173	0.00286207	-0.00312686	-7.49256e-05
 174	0.00176388	0.000236434	0.000307335
 175	-0.0011555	-0.000992268	0.00870877
 176	0.000509523	0.00360817	0.00259196
 177	0.000299553	0.000566732	-0.000933203
 178	0.00110482	0.000995555	0.00143527
 179	0.00233149	-0.000237243	0.00257077
 180	0.000468261	0.000252891	0.000576597
 181	-0.00243544	0.00538728	0.000687275
 182	1.23656e-05	0.000320488	0.00247395
 183	0.00068463	0.000168273	0.000346746