pySIMM System Object

496 atoms
495 bonds
936 angles
1218 dihedrals
0 impropers

7 atom types
8 bond types
13 angle types
5 dihedral types

-106.459188 106.459188 xlo xhi
-106.459188 106.459188 ylo yhi
-106.459188 106.459188 zlo zhi

Masses

   1	12.01	# c2
   2	1.008	# h1
   3	1.008	# hc
   4	12.01	# c3
   5	1.008	# ha
   6	32.06	# s6
   7	1.008	# h4

Pair Coeffs

   1	0.086	3.3996695084235347	# c2
   2	0.0157	2.471353044121301	# h1
   3	0.0157	2.649532787749369	# hc
   4	0.1094	3.3996695084235347	# c3
   5	0.015	2.59964245953351	# ha
   6	0.25	3.563594872561357	# s6
   7	0.015	2.5105525877194763	# h4

Bond Coeffs

   1	344.6	1.0868	# c2,h4
   2	343.1	1.0879	# c2,ha
   3	233.5	1.8075	# c3,s6
   4	569.4	1.3343	# c2,c2
   5	326.8	1.5095	# c2,c3
   6	263.2	1.76	# c2,s6
   7	330.6	1.0969	# c3,hc
   8	330.6	1.0969	# c3,h1

Angle Coeffs

   1	62.73	120.01	# c2,c2,s6
   2	45.94	115.68	# c3,c2,ha
   3	43.19	107.15	# h1,c3,s6
   4	46.99	110.36	# c2,c3,hc
   5	39.4	107.58	# hc,c3,hc
   6	60.63	104.05	# c2,s6,c3
   7	59.92	103.83	# c3,s6,c3
   8	42.79	115.45	# h4,c2,s6
   9	39.24	108.46	# h1,c3,h1
  10	64.06	123.63	# c2,c2,c3
  11	49.4	122.67	# c2,c2,h4
  12	49.85	120.43	# c2,c2,ha
  13	69.3	121.81	# c2,c2,c2

Dihedral Coeffs

   1	1	6.65	2	180	# X,c2,c2,X
   2	1	0.14444444444444446	3	0	# X,c3,s6,X
   3	1	0.0	2	0	# X,c2,c3,X
   4	3	0.38	3	180	0.0	2	0	1.15	1	0	# hc,c3,c2,c2
   5	1	6.6499999999999995	2	180	# X,c2,s6,X

Atoms

   1	1	1	0.037815	7.56448	-13.6668	-0.00578363
   2	1	2	0.048876	5.67626	-13.0616	3.13592
   3	1	1	-0.222978	7.11725	-14.7209	0.706369
   4	1	2	0.097895	4.67345	-12.7116	1.67988
   5	1	3	0.054231	6.78886	-12.0145	-1.20241
   6	1	3	0.054231	5.5787	-12.8075	-0.273327
   7	1	4	-0.159568	6.62196	-12.4887	-0.231004
   8	1	3	0.073528	6.70551	-11.7248	0.548056
   9	1	6	0.703056	5.62247	-14.9193	1.63576
  10	1	2	0.084378	4.03366	-13.7709	2.97123
  11	1	4	-0.422828	4.93594	-13.4594	2.43236
  12	1	2	0.048873	4.12896	-14.4369	-0.174726
  13	1	2	0.084374	4.68427	-16.1488	-0.173078
  14	1	4	-0.422813	4.33553	-15.3147	0.445954
  15	1	2	0.097892	3.43713	-15.6027	1.00316
  16	1	2	0.084729	6.45845	-16.177	3.47446
  17	1	4	-0.400138	5.71313	-16.367	2.69355
  18	1	2	0.084733	4.72599	-16.5425	3.13483
  19	1	2	0.073714	6.01706	-17.2216	2.07727
  20	1	1	0.037815	9.23883	-12.7161	-1.42521
  21	1	2	0.048876	11.321	-14.8118	-2.56943
  22	1	1	-0.222978	8.76788	-13.7242	-0.651901
  23	1	2	0.097895	11.9608	-14.2943	-0.961982
  24	1	3	0.054231	8.42606	-13.8158	-3.1323
  25	1	3	0.054231	8.83144	-12.1587	-3.50121
  26	1	4	-0.159568	9.16411	-13.0311	-2.9254
  27	1	3	0.073528	10.1137	-13.3551	-3.35497
  28	1	6	0.703056	9.77675	-15.2274	-0.758378
  29	1	2	0.084378	11.9155	-16.0285	-1.41212
  30	1	4	-0.422828	11.4059	-15.0632	-1.51045
  31	1	2	0.048873	9.16155	-16.9538	0.820576
  32	1	2	0.084374	10.9223	-16.7761	0.641356
  33	1	4	-0.422813	9.97803	-16.2277	0.735211
  34	1	2	0.097892	10.0119	-15.5645	1.6057
  35	1	2	0.084729	9.3498	-17.3739	-1.70847
  36	1	4	-0.400138	8.84609	-16.4022	-1.75483
  37	1	2	0.084733	7.83109	-16.477	-1.34985
  38	1	2	0.073714	8.81774	-16.0394	-2.78752
  39	1	1	0.037815	10.1661	-10.5882	-1.88342
  40	1	2	0.048876	9.84976	-8.73919	0.550407
  41	1	1	-0.222978	9.49312	-11.4253	-1.02607
  42	1	2	0.097895	8.2103	-9.19608	1.14386
  43	1	3	0.054231	12.3336	-10.6711	-2.05815
  44	1	3	0.054231	11.6537	-12.2186	-1.90165
  45	1	4	-0.159568	11.4615	-11.2484	-2.37176
  46	1	3	0.073528	11.4836	-11.429	-3.4488
  47	1	6	0.703056	9.64297	-11.0552	0.738576
  48	1	2	0.084378	9.62071	-9.23781	2.25638
  49	1	4	-0.422828	9.28613	-9.37997	1.22286
  50	1	2	0.048873	8.05317	-12.2021	2.14553
  51	1	2	0.084374	9.54826	-13.1759	1.85376
  52	1	4	-0.422813	9.14263	-12.1799	2.05623
  53	1	2	0.097892	9.56728	-11.7939	2.98969
  54	1	2	0.084729	11.816	-10.1482	0.325809
  55	1	4	-0.400138	11.4208	-10.9312	0.978909
  56	1	2	0.084733	11.6131	-10.6838	2.02876
  57	1	2	0.073714	11.8669	-11.8998	0.727344
  58	1	1	0.037815	8.84201	-8.53282	-1.79642
  59	1	2	0.048876	10.5426	-10.3294	-4.92403
  60	1	1	-0.222978	9.97169	-9.23604	-2.12496
  61	1	2	0.097895	9.2603	-9.08652	-4.98539
  62	1	3	0.054231	6.6189	-8.7414	-1.80622
  63	1	3	0.054231	7.43352	-9.84858	-0.77287
  64	1	4	-0.159568	7.53296	-9.33559	-1.72845
  65	1	3	0.073528	7.48762	-10.0862	-2.52765
  66	1	6	0.703056	10.9845	-8.45764	-3.45603
  67	1	2	0.084378	10.8258	-8.80483	-5.81378
  68	1	4	-0.422828	10.3398	-9.25658	-4.94161
  69	1	2	0.048873	11.43	-6.10284	-3.37313
  70	1	2	0.084374	11.1079	-6.67424	-5.01913
  71	1	4	-0.422813	10.7803	-6.74203	-3.9758
  72	1	2	0.097892	9.73897	-6.43376	-3.90969
  73	1	2	0.084729	13.1295	-8.1536	-4.43759
  74	1	4	-0.400138	12.7291	-8.86514	-3.70698
  75	1	2	0.084733	13.2605	-8.75082	-2.75545
  76	1	2	0.073714	12.8393	-9.87763	-4.10552
  77	1	1	0.037815	7.6697	-6.47113	-2.13388
  78	1	2	0.048876	12.3398	-6.98713	-1.6568
  79	1	1	-0.222978	8.76175	-7.1622	-1.63905
  80	1	2	0.097895	12.3422	-6.60086	0.0685145
  81	1	3	0.054231	7.86304	-7.7626	-3.92913
  82	1	3	0.054231	6.22709	-7.31074	-3.60497
  83	1	4	-0.159568	7.25091	-6.94708	-3.53635
  84	1	3	0.073528	7.40887	-6.15261	-4.27065
  85	1	6	0.703056	10.1725	-6.28326	-0.8698
  86	1	2	0.084378	11.6422	-8.15274	-0.467285
  87	1	4	-0.422828	11.7791	-7.10122	-0.726574
  88	1	2	0.048873	11.3485	-4.22234	-1.045
  89	1	2	0.084374	10.2983	-4.51766	-2.47921
  90	1	4	-0.422813	10.3721	-4.58175	-1.38944
  91	1	2	0.097892	9.58067	-4.00842	-0.919048
  92	1	2	0.084729	9.11777	-5.3386	1.05312
  93	1	4	-0.400138	9.94709	-6.01834	0.895372
  94	1	2	0.084733	9.7745	-6.9513	1.42402
  95	1	2	0.073714	10.8609	-5.55405	1.28246
  96	1	1	0.037815	7.06159	-5.00774	-0.295834
  97	1	2	0.048876	5.36702	-5.4972	-4.68566
  98	1	1	-0.222978	7.04865	-5.34551	-1.61174
  99	1	2	0.097895	4.61012	-3.89888	-4.45774
 100	1	3	0.054231	7.47252	-6.58204	1.2362
 101	1	3	0.054231	5.77451	-6.13161	1.0977
 102	1	4	-0.159568	6.69986	-6.25295	0.542469
 103	1	3	0.073528	6.47233	-7.13514	-0.0651031
 104	1	6	0.703056	5.55313	-4.67658	-2.42148
 105	1	2	0.084378	6.39756	-4.01541	-4.55786
 106	1	4	-0.422828	5.48359	-4.51489	-4.21681
 107	1	2	0.048873	3.34878	-5.58594	-2.59091
 108	1	2	0.084374	4.56226	-6.89357	-2.60474
 109	1	4	-0.422813	4.28894	-5.94121	-2.15281
 110	1	2	0.097892	4.16825	-6.06817	-1.07141
 111	1	2	0.084729	3.67094	-3.26792	-2.17761
 112	1	4	-0.400138	4.62784	-3.34294	-1.65186
 113	1	2	0.084733	4.44712	-3.61078	-0.611317
 114	1	2	0.073714	5.16604	-2.40045	-1.72446
 115	1	1	0.037815	7.41971	-2.54117	-0.452942
 116	1	2	0.048876	4.4188	-4.6754	1.38173
 117	1	1	-0.222978	7.07403	-3.71108	0.230116
 118	1	2	0.097895	4.35612	-3.87388	2.98246
 119	1	3	0.054231	7.08542	-2.04388	-2.56005
 120	1	3	0.054231	8.14947	-3.41453	-2.39406
 121	1	4	-0.159568	7.84477	-2.48353	-1.92602
 122	1	3	0.073528	8.73588	-1.85917	-2.02657
 123	1	6	0.703056	6.48871	-3.53797	1.97336
 124	1	2	0.084378	4.23735	-2.90282	1.48989
 125	1	4	-0.422828	4.69861	-3.78372	1.94542
 126	1	2	0.048873	6.83963	-4.41015	4.16468
 127	1	2	0.084374	6.18006	-5.6663	3.09239
 128	1	4	-0.422813	6.89713	-4.84319	3.15947
 129	1	2	0.097892	7.91705	-5.19453	2.97295
 130	1	2	0.084729	5.75903	-2.05894	3.67676
 131	1	4	-0.400138	6.52107	-1.98905	2.89235
 132	1	2	0.084733	7.49578	-1.88381	3.37452
 133	1	2	0.073714	6.28578	-1.14824	2.24011
 134	1	1	0.037815	7.39449	-0.0874537	-0.331764
 135	1	2	0.048876	8.57226	-0.00871363	3.20628
 136	1	1	-0.222978	7.69245	-1.34469	0.162424
 137	1	2	0.097895	10.2775	-0.536905	3.20185
 138	1	3	0.054231	7.32775	0.848906	1.63984
 139	1	3	0.054231	6.96455	1.93809	0.370683
 140	1	4	-0.159568	7.61067	1.09421	0.612548
 141	1	3	0.073528	8.63135	1.47976	0.593024
 142	1	6	0.703056	9.13626	-1.38815	1.29929
 143	1	2	0.084378	9.78968	0.795787	2.14104
 144	1	4	-0.422828	9.4614	-0.148326	2.58255
 145	1	2	0.048873	10.746	-2.71329	2.40745
 146	1	2	0.084374	9.11475	-3.41842	2.57518
 147	1	4	-0.422813	9.80479	-2.929	1.88898
 148	1	2	0.097892	10.0193	-3.52195	1.00832
 149	1	2	0.084729	10.2498	0.0899658	-0.225406
 150	1	4	-0.400138	10.469	-0.895645	0.192957
 151	1	2	0.084733	11.4024	-0.866462	0.76609
 152	1	2	0.073714	10.5465	-1.63885	-0.608245
 153	1	1	0.037815	5.20691	0.405248	-1.12579
 154	1	2	0.048876	9.43601	0.0598132	-2.7734
 155	1	1	-0.222978	6.56064	0.27421	-1.35891
 156	1	2	0.097895	8.2	-0.493382	-3.94563
 157	1	3	0.054231	4.9278	-1.27714	0.195514
 158	1	3	0.054231	3.56924	-0.200522	0.223071
 159	1	4	-0.159568	4.65968	-0.220185	0.153038
 160	1	3	0.073528	5.07513	0.236205	1.04437
 161	1	6	0.703056	7.41514	1.33481	-2.58635
 162	1	2	0.084378	9.09793	1.02714	-4.24279
 163	1	4	-0.422828	8.65837	0.379417	-3.47572
 164	1	2	0.048873	6.27809	1.82683	-4.65636
 165	1	2	0.084374	5.66826	2.84549	-3.29428
 166	1	4	-0.422813	6.54766	2.39449	-3.76245
 167	1	2	0.097892	7.24269	3.18924	-4.05523
 168	1	2	0.084729	9.17683	2.93513	-2.70569
 169	1	4	-0.400138	8.69621	2.39509	-1.882
 170	1	2	0.084733	8.23988	3.11247	-1.19394
 171	1	2	0.073714	9.44447	1.78067	-1.37338
 172	1	1	0.037815	3.27305	1.83237	-1.46588
 173	1	2	0.048876	4.03004	2.3927	-4.9559
 174	1	1	-0.222978	4.2963	1.02862	-1.93775
 175	1	2	0.097895	3.7927	0.912568	-5.93175
 176	1	3	0.054231	1.69032	1.74937	-2.98232
 177	1	3	0.054231	1.5806	3.1454	-1.96384
 178	1	4	-0.159568	2.29332	2.47053	-2.44729
 179	1	3	0.073528	2.82277	3.09566	-3.17313
 180	1	6	0.703056	4.15512	0.37736	-3.64384
 181	1	2	0.084378	2.45087	1.52256	-4.9366
 182	1	4	-0.422828	3.5369	1.41522	-4.99231
 183	1	2	0.048873	4.94993	-1.14593	-5.26808
 184	1	2	0.084374	6.29158	-0.261461	-4.52313
 185	1	4	-0.422813	5.35295	-0.767698	-4.32137
 186	1	2	0.097892	5.4575	-1.59774	-3.63017
 187	1	2	0.084729	2.8523	-1.31966	-2.59992
 188	1	4	-0.400138	2.75495	-0.753511	-3.53102
 189	1	2	0.084733	1.8133	-0.206778	-3.53898
 190	1	2	0.073714	2.78585	-1.42987	-4.39276
 191	1	1	0.037815	1.92848	2.19648	0.450063
 192	1	2	0.048876	3.66405	6.08995	-0.620579
 193	1	1	-0.222978	3.13096	2.3466	-0.202638
 194	1	2	0.097895	3.38022	4.90005	-1.92672
 195	1	3	0.054231	0.188626	1.53166	-0.667136
 196	1	3	0.054231	1.45303	0.302508	-0.581486
 197	1	4	-0.159568	0.961226	1.11044	-0.0271737
 198	1	3	0.073528	0.453905	0.622059	0.811685
 199	1	6	0.703056	4.09685	3.8513	0.0972727
 200	1	2	0.084378	2.17619	5.08475	-0.606737
 201	1	4	-0.422828	3.23762	5.10956	-0.862842
 202	1	2	0.048873	4.39924	5.7321	1.52675
 203	1	2	0.084374	3.16709	4.61532	2.17349
 204	1	4	-0.422813	4.14032	4.68045	1.69515
 205	1	2	0.097892	4.91852	4.22434	2.31222
 206	1	2	0.084729	5.69626	4.83117	-1.37845
 207	1	4	-0.400138	5.6919	3.97623	-0.693306
 208	1	2	0.084733	6.44469	4.11897	0.0897579
 209	1	2	0.073714	5.86513	3.05037	-1.22845
 210	1	1	0.037815	0.354761	3.43363	1.72296
 211	1	2	0.048876	2.57736	-0.0207283	4.03891
 212	1	1	-0.222978	1.55817	2.75682	1.63587
 213	1	2	0.097895	0.98264	0.319176	3.31614
 214	1	3	0.054231	-1.04483	4.72096	0.614274
 215	1	3	0.054231	0.246879	4.06759	-0.385036
 216	1	4	-0.159568	-0.409744	3.84072	0.459211
 217	1	3	0.073528	-1.10096	3.04895	0.154627
 218	1	6	0.703056	2.4922	2.17472	3.08378
 219	1	2	0.084378	2.36454	-0.0661728	2.25664
 220	1	4	-0.422828	2.0554	0.426327	3.18443
 221	1	2	0.048873	4.46158	0.785627	3.2109
 222	1	2	0.084374	4.58284	2.00686	1.90929
 223	1	4	-0.422813	4.25383	1.82399	2.9267
 224	1	2	0.097892	4.78533	2.48959	3.61478
 225	1	2	0.084729	2.50889	2.05397	5.4457
 226	1	4	-0.400138	2.20151	2.82049	4.72552
 227	1	2	0.084733	2.82681	3.70796	4.85681
 228	1	2	0.073714	1.15031	3.06265	4.85472
 229	1	1	0.037815	-1.03359	3.24454	3.6595
 230	1	2	0.048876	-1.73547	6.97841	2.94059
 231	1	1	-0.222978	-0.193137	3.98231	2.8396
 232	1	2	0.097895	-1.13872	6.58296	4.61594
 233	1	3	0.054231	-0.818545	1.06116	3.81701
 234	1	3	0.054231	-2.39978	1.61374	3.2468
 235	1	4	-0.159568	-1.32289	1.80646	3.21128
 236	1	3	0.073528	-1.07874	1.57615	2.17286
 237	1	6	0.703056	0.258512	5.73664	2.94972
 238	1	2	0.084378	-0.374107	7.88316	3.66434
 239	1	4	-0.422828	-0.877513	6.91112	3.61566
 240	1	2	0.048873	1.5355	6.96506	4.54834
 241	1	2	0.084374	1.15852	5.30118	5.10216
 242	1	4	-0.422813	1.47319	5.91062	4.25526
 243	1	2	0.097892	2.44372	5.5797	3.88042
 244	1	2	0.084729	2.00838	6.06353	1.34546
 245	1	4	-0.400138	1.03655	6.51309	1.52468
 246	1	2	0.084733	0.391766	6.40826	0.647417
 247	1	2	0.073714	1.16588	7.57656	1.75537
 248	1	1	0.037815	-2.71352	4.65986	4.70092
 249	1	2	0.048876	-3.51873	3.45348	7.48866
 250	1	1	-0.222978	-1.75034	3.66811	4.76382
 251	1	2	0.097895	-2.89744	1.93887	8.2087
 252	1	3	0.054231	-2.70052	5.13858	2.5475
 253	1	3	0.054231	-3.71164	3.77621	2.98345
 254	1	4	-0.159568	-3.37777	4.76603	3.3192
 255	1	3	0.073528	-4.26415	5.40219	3.29259
 256	1	6	0.703056	-1.83104	2.45352	6.1524
 257	1	2	0.084378	-1.91136	3.41228	8.31875
 258	1	4	-0.422828	-2.62693	2.86822	7.6968
 259	1	2	0.048873	-3.17514	0.518914	6.63199
 260	1	2	0.084374	-3.59218	1.2223	5.04289
 261	1	4	-0.422813	-2.77133	0.963271	5.71568
 262	1	2	0.097892	-2.1127	0.230217	5.24241
 263	1	2	0.084729	0.155732	1.17965	5.63603
 264	1	4	-0.400138	-0.269849	1.63739	6.53099
 265	1	2	0.084733	0.419995	2.37969	6.94637
 266	1	2	0.073714	-0.46919	0.863138	7.28081
 267	1	1	0.037815	-4.30846	6.26347	5.63739
 268	1	2	0.048876	-0.228609	4.99791	8.24879
 269	1	1	-0.222978	-3.2461	5.39309	5.75147
 270	1	2	0.097895	-0.22089	4.47758	6.53161
 271	1	3	0.054231	-3.92519	8.45275	5.66271
 272	1	3	0.054231	-3.06584	7.60807	4.42693
 273	1	4	-0.159568	-3.99713	7.61528	4.96843
 274	1	3	0.073528	-4.75113	7.88643	4.22005
 275	1	6	0.703056	-2.09521	5.92511	7.07694
 276	1	2	0.084378	0.265201	6.12865	6.95766
 277	1	4	-0.422828	-0.408148	5.3018	7.21116
 278	1	2	0.048873	-1.09984	7.93047	7.89714
 279	1	2	0.084374	-1.48085	8.0607	6.15554
 280	1	4	-0.422813	-1.84913	7.71446	7.12612
 281	1	2	0.097892	-2.78624	8.21005	7.394
 282	1	2	0.084729	-3.70627	6.67588	8.6956
 283	1	4	-0.400138	-2.87661	5.96748	8.70592
 284	1	2	0.084733	-3.24059	4.97838	8.98764
 285	1	2	0.073714	-2.1225	6.29607	9.43026
 286	1	1	0.037815	-6.52161	7.06686	5.89984
 287	1	2	0.048876	-5.63861	3.03005	4.24212
 288	1	1	-0.222978	-5.66199	6.00024	5.76506
 289	1	2	0.097895	-4.4373	3.05664	5.57942
 290	1	3	0.054231	-5.27222	7.55686	7.6347
 291	1	3	0.054231	-5.73226	8.96467	6.70879
 292	1	4	-0.159568	-6.08283	7.98616	7.04207
 293	1	3	0.073528	-6.88598	8.10297	7.77584
 294	1	6	0.703056	-6.31811	4.36238	6.08386
 295	1	2	0.084378	-5.91177	2.05942	5.73542
 296	1	4	-0.422828	-5.4862	2.98273	5.32589
 297	1	2	0.048873	-6.88356	4.25156	8.40442
 298	1	2	0.084374	-5.59486	3.08142	7.97232
 299	1	4	-0.422813	-5.96343	4.10284	7.82727
 300	1	2	0.097892	-5.21817	4.83746	8.13719
 301	1	2	0.084729	-8.46767	4.1469	5.10514
 302	1	4	-0.400138	-8.07465	4.06904	6.11737
 303	1	2	0.084733	-8.23947	3.05741	6.50485
 304	1	2	0.073714	-8.53196	4.79578	6.78683
 305	1	1	0.037815	-8.33492	6.56868	4.31373
 306	1	2	0.048876	-10.7636	9.42784	5.43369
 307	1	1	-0.222978	-7.76898	7.27835	5.34053
 308	1	2	0.097895	-9.8678	10.5534	4.39248
 309	1	3	0.054231	-7.55941	6.51583	2.32365
 310	1	3	0.054231	-6.31774	6.35171	3.43688
 311	1	4	-0.159568	-7.35097	6.0517	3.2756
 312	1	3	0.073528	-7.37125	4.96473	3.18235
 313	1	6	0.703056	-8.42536	8.99743	5.45462
 314	1	2	0.084378	-10.1869	8.90163	3.80292
 315	1	4	-0.422828	-9.9714	9.50243	4.68474
 316	1	2	0.048873	-7.16615	10.4106	6.98259
 317	1	2	0.084374	-8.83133	10.9643	6.72477
 318	1	4	-0.422813	-8.20435	10.0807	6.88959
 319	1	2	0.097892	-8.54146	9.56145	7.79262
 320	1	2	0.084729	-7.32892	9.33213	3.36512
 321	1	4	-0.400138	-7.28033	9.83023	4.33962
 322	1	2	0.084733	-7.57921	10.8801	4.24754
 323	1	2	0.073714	-6.26552	9.76346	4.74243
 324	1	1	0.037815	-10.3412	6.15216	2.92785
 325	1	2	0.048876	-10.581	4.24174	6.14718
 326	1	1	-0.222978	-9.70118	6.48269	4.11407
 327	1	2	0.097895	-12.16	4.91611	6.6214
 328	1	3	0.054231	-12.115	7.42241	3.07522
 329	1	3	0.054231	-12.1703	6.35174	1.73255
 330	1	4	-0.159568	-11.8444	6.40728	2.77568
 331	1	3	0.073528	-12.4696	5.68607	3.30329
 332	1	6	0.703056	-10.7724	6.58295	5.62118
 333	1	2	0.084378	-11.8227	4.52995	4.9053
 334	1	4	-0.422828	-11.3938	4.89937	5.8382
 335	1	2	0.048873	-10.7608	6.51444	8.00033
 336	1	2	0.084374	-9.09096	6.62457	7.37759
 337	1	4	-0.422813	-10.112	6.98836	7.25449
 338	1	2	0.097892	-10.1622	8.07207	7.38934
 339	1	2	0.084729	-13.1387	6.61902	5.06771
 340	1	4	-0.400138	-12.4392	7.29894	5.56155
 341	1	2	0.084733	-12.7673	7.44076	6.59733
 342	1	2	0.073714	-12.4196	8.26733	5.05375
 343	1	1	0.037815	-9.6973	6.79961	0.733603
 344	1	2	0.048876	-12.396	4.12049	1.15287
 345	1	1	-0.222978	-9.79656	5.83585	1.7169
 346	1	2	0.097895	-11.7582	2.47613	1.45962
 347	1	3	0.054231	-10.7843	8.50973	1.60987
 348	1	3	0.054231	-9.0526	8.45198	1.97863
 349	1	4	-0.159568	-9.80255	8.25152	1.20607
 350	1	3	0.073528	-9.60682	8.97655	0.419606
 351	1	6	0.703056	-10.0056	4.082	1.34667
 352	1	2	0.084378	-11.8564	3.64314	2.80959
 353	1	4	-0.422828	-11.6786	3.53332	1.73598
 354	1	2	0.048873	-8.65312	3.52671	-0.521375
 355	1	2	0.084374	-10.0247	2.38849	-0.281541
 356	1	4	-0.422813	-9.71	3.43737	-0.275261
 357	1	2	0.097892	-10.3363	4.01312	-0.946041
 358	1	2	0.084729	-9.589	3.34948	3.56826
 359	1	4	-0.400138	-9.23631	3.03291	2.58255
 360	1	2	0.084733	-9.54341	1.9988	2.39009
 361	1	2	0.073714	-8.149	3.11425	2.49595
 362	1	1	0.037815	-8.27278	6.16474	-1.14566
 363	1	2	0.048876	-11.3371	9.45198	-0.89782
 364	1	1	-0.222978	-9.44172	6.66891	-0.608657
 365	1	2	0.097895	-12.7381	8.65938	-1.67707
 366	1	3	0.054231	-7.48844	4.99108	0.544857
 367	1	3	0.054231	-6.27749	5.37718	-0.658987
 368	1	4	-0.159568	-7.17712	5.74736	-0.176181
 369	1	3	0.073528	-6.83934	6.6334	0.369956
 370	1	6	0.703056	-10.8447	7.21297	-1.64163
 371	1	2	0.084378	-12.289	8.20981	-0.00357237
 372	1	4	-0.422828	-11.9038	8.51893	-0.980952
 373	1	2	0.048873	-10.02	6.60578	-3.82883
 374	1	2	0.084374	-11.7364	7.1086	-3.84326
 375	1	4	-0.422813	-10.7416	7.32558	-3.43798
 376	1	2	0.097892	-10.4625	8.34804	-3.71077
 377	1	2	0.084729	-13.0515	6.33759	-1.85197
 378	1	4	-0.400138	-12.1231	5.96471	-1.40447
 379	1	2	0.084733	-11.8381	5.03885	-1.90708
 380	1	2	0.073714	-12.2668	5.79549	-0.335776
 381	1	1	0.037815	-7.02255	5.4906	-3.14386
 382	1	2	0.048876	-6.81613	8.39293	-5.16153
 383	1	1	-0.222978	-7.83731	6.35738	-2.43315
 384	1	2	0.097895	-8.59321	8.0805	-5.14757
 385	1	3	0.054231	-7.29752	6.19528	-5.18579
 386	1	3	0.054231	-6.02672	5.05583	-5.06653
 387	1	4	-0.159568	-6.48193	5.89074	-4.52435
 388	1	3	0.073528	-5.71145	6.6653	-4.49171
 389	1	6	0.703056	-7.70698	8.12107	-2.91667
 390	1	2	0.084378	-7.94469	9.68749	-4.6991
 391	1	4	-0.422828	-7.76517	8.6073	-4.66075
 392	1	2	0.048873	-9.53195	9.45573	-2.06591
 393	1	2	0.084374	-8.12541	9.32421	-0.920061
 394	1	4	-0.422813	-8.44857	9.44209	-1.95609
 395	1	2	0.097892	-8.04749	10.3837	-2.3485
 396	1	2	0.084729	-5.62555	9.24615	-3.30575
 397	1	4	-0.400138	-5.97624	8.51118	-2.57244
 398	1	2	0.084733	-5.91705	8.93539	-1.56398
 399	1	2	0.073714	-5.36941	7.60286	-2.61273
 400	1	1	0.037815	-5.53613	3.65524	-3.00826
 401	1	2	0.048876	-8.65424	1.38903	-1.67218
 402	1	1	-0.222978	-6.81263	4.16221	-2.90377
 403	1	2	0.097895	-9.16961	0.967622	-3.31804
 404	1	3	0.054231	-4.62787	5.37867	-1.97426
 405	1	3	0.054231	-3.4891	4.14658	-2.39918
 406	1	4	-0.159568	-4.38675	4.6485	-2.75069
 407	1	3	0.073528	-4.09889	5.22854	-3.63084
 408	1	6	0.703056	-8.24603	3.15143	-3.25951
 409	1	2	0.084378	-7.43099	0.915648	-2.91241
 410	1	4	-0.422828	-8.37495	1.43381	-2.72547
 411	1	2	0.048873	-9.96687	4.70361	-2.75233
 412	1	2	0.084374	-9.75592	4.48985	-4.50573
 413	1	4	-0.422813	-9.81209	3.9739	-3.5404
 414	1	2	0.097892	-10.6082	3.22186	-3.55715
 415	1	2	0.084729	-6.99177	2.11044	-4.92342
 416	1	4	-0.400138	-7.90601	2.70601	-4.94022
 417	1	2	0.084733	-8.74647	2.11627	-5.32239
 418	1	2	0.073714	-7.77151	3.6137	-5.53637
 419	1	1	0.037815	-4.33086	1.89414	-4.06611
 420	1	2	0.048876	-5.86709	-0.652356	-1.81022
 421	1	1	-0.222978	-5.15597	2.3414	-3.04458
 422	1	2	0.097895	-4.06556	-0.466837	-1.6291
 423	1	3	0.054231	-3.61228	3.75531	-5.03744
 424	1	3	0.054231	-5.05315	3.06517	-5.74538
 425	1	4	-0.159568	-4.10403	2.81412	-5.26557
 426	1	3	0.073528	-3.47782	2.336	-6.01823
 427	1	6	0.703056	-5.20085	1.56994	-1.41368
 428	1	2	0.084378	-5.12355	-0.435988	-0.189265
 429	1	4	-0.422828	-5.04958	-0.186871	-1.25406
 430	1	2	0.048873	-3.5758	1.50798	0.332909
 431	1	2	0.084374	-2.82209	1.72137	-1.27718
 432	1	4	-0.422813	-3.64594	2.02486	-0.631465
 433	1	2	0.097892	-3.64206	3.10743	-0.468373
 434	1	2	0.084729	-7.27921	1.72019	-0.251013
 435	1	4	-0.400138	-6.3143	2.22224	-0.172927
 436	1	2	0.084733	-5.88418	2.02231	0.814786
 437	1	2	0.073714	-6.40671	3.29127	-0.331986
 438	1	1	0.037815	-3.95771	-0.550524	-4.19317
 439	1	2	0.048876	-1.39086	1.33779	-6.1872
 440	1	1	-0.222978	-3.55036	0.769594	-4.09251
 441	1	2	0.097895	0.117843	1.38953	-5.22846
 442	1	3	0.054231	-2.71948	-1.72897	-2.8012
 443	1	3	0.054231	-1.99294	-1.49352	-4.38788
 444	1	4	-0.159568	-2.93326	-1.64335	-3.87085
 445	1	3	0.073528	-3.20137	-2.63207	-4.24555
 446	1	6	0.703056	-1.79426	1.20379	-3.83701
 447	1	2	0.084378	-0.69191	-0.17061	-5.47863
 448	1	4	-0.422828	-0.855005	0.899394	-5.34063
 449	1	2	0.048873	-1.68762	3.14596	-2.43783
 450	1	2	0.084374	-0.258693	2.97183	-3.4811
 451	1	4	-0.422813	-1.34964	2.90395	-3.44746
 452	1	2	0.097892	-1.75972	3.58674	-4.19164
 453	1	2	0.084729	0.0646454	0.665828	-2.50997
 454	1	4	-0.400138	-0.85585	0.139972	-2.72454
 455	1	2	0.084733	-1.42708	-0.0116843	-1.80239
 456	1	2	0.073714	-0.572723	-0.808893	-3.18301
 457	1	1	0.037815	-5.94763	-0.425773	-5.60979
 458	1	2	0.048876	-7.65299	-3.45552	-2.62453
 459	1	1	-0.222978	-5.17765	-1.01667	-4.62775
 460	1	2	0.097895	-7.92374	-1.74511	-3.06948
 461	1	3	0.054231	-8.03247	-0.448486	-4.92382
 462	1	3	0.054231	-7.90713	-0.48039	-6.67833
 463	1	4	-0.159568	-7.42406	-0.815602	-5.75578
 464	1	3	0.073528	-7.53813	-1.89315	-5.85684
 465	1	6	0.703056	-5.78278	-2.54964	-3.79169
 466	1	2	0.084378	-8.09788	-3.06858	-4.2958
 467	1	4	-0.422828	-7.54672	-2.71092	-3.42178
 468	1	2	0.048873	-6.10218	-4.76092	-4.63987
 469	1	2	0.084374	-6.16141	-3.53442	-5.95654
 470	1	4	-0.422813	-5.65274	-3.84448	-5.04027
 471	1	2	0.097892	-4.59151	-4.01739	-5.24855
 472	1	2	0.084729	-4.42946	-2.53322	-1.76624
 473	1	4	-0.400138	-4.91248	-3.2908	-2.37946
 474	1	2	0.084733	-5.64965	-3.82143	-1.76743
 475	1	2	0.073714	-4.17104	-4.0072	-2.74946
 476	1	1	0.037815	-6.24414	1.24483	-7.2765
 477	1	2	0.048876	-1.97561	0.939713	-8.28254
 478	1	1	-0.222978	-5.46556	0.319313	-6.65824
 479	1	2	0.097895	-3.25812	1.00538	-9.5266
 480	1	3	0.054231	-5.4311	1.73325	-9.28132
 481	1	3	0.054231	-6.94628	2.50005	-8.87282
 482	1	4	-0.159568	-5.98727	2.17145	-8.45286
 483	1	3	0.073528	-5.47304	3.08159	-8.12192
 484	1	6	0.703056	-3.96834	-0.14958	-7.53607
 485	1	2	0.084378	-3.32379	2.10451	-8.11316
 486	1	4	-0.422828	-3.04442	1.10541	-8.45728
 487	1	2	0.048873	-3.5722	-2.29111	-6.57219
 488	1	2	0.084374	-2.44904	-1.91655	-7.92499
 489	1	4	-0.422813	-2.94453	-1.52094	-7.03177
 490	1	2	0.097892	-2.19288	-1.13874	-6.35775
 491	1	2	0.084729	-3.90894	-1.25921	-9.65337
 492	1	4	-0.400138	-4.70983	-0.971361	-8.96347
 493	1	2	0.084733	-5.22864	-1.86437	-8.59779
 494	1	2	0.073714	-5.42431	-0.317722	-9.46753
 495	1	7	0	7.66878	-15.632	0.806235
 496	1	5	0	-7.23699	1.44858	-6.91011

Velocities

   1	-0.000721338	0.000894539	-0.00107129
   2	0.00285197	0.000406907	-0.00156041
   3	-0.000431281	0.000795012	-0.00160595
   4	0.00191309	0.00107559	-0.000632013
   5	0.000454429	0.00106877	-0.000154446
   6	-0.000407166	0.000440722	-0.00183082
   7	-0.000643789	0.000841388	-0.000732981
   8	-0.00103395	-4.91522e-05	-3.64836e-05
   9	2.29238e-05	0.000278571	-0.000817184
  10	0.0020524	0.00218637	0.000339781
  11	0.00170472	0.000886125	-0.000778943
  12	0.00109528	-0.00164587	-0.00238106
  13	0.000355922	-0.00160417	0.00014838
  14	0.000329664	-0.000715418	-0.000936884
  15	-0.000180642	0.000115475	-0.00151151
  16	-0.00122653	0.000967269	0.00100898
  17	-0.00112309	0.000742439	0.000793519
  18	-0.00153363	0.00243856	0.000811806
  19	-0.00181573	-0.000543582	0.00210884
  20	-0.000404357	0.000104024	-0.000868496
  21	-0.00174943	-0.000778038	-0.00048571
  22	-0.000450764	0.00102704	-0.00167528
  23	-0.0014614	0.00054965	-0.00105692
  24	0.000452216	0.00032077	-0.00138958
  25	-0.000896995	0.000945168	-0.000670266
  26	-0.000122479	0.000951156	-0.00120484
  27	-1.03873e-06	0.0016616	-0.00152965
  28	-0.00089926	0.000651571	-0.000260269
  29	-0.0015533	0.000160652	0.000390543
  30	-0.00125604	9.40466e-05	-0.000246253
  31	-0.0012038	0.00322136	0.00281074
  32	-0.00146261	0.00225211	0.00276058
  33	-0.000866684	0.00270944	0.00136853
  34	-0.00104374	0.00452507	0.000145953
  35	0.00247636	0.000411358	-0.000561737
  36	0.000600095	-0.000531185	-7.24402e-05
  37	0.00087853	-0.00259998	0.000104751
  38	-0.000295323	-0.000436072	1.97717e-05
  39	0.000315996	-0.000273967	-2.61532e-05
  40	-0.000193198	-0.000291475	0.000605574
  41	0.000358414	0.000898866	-0.000779972
  42	0.000200465	-0.00116922	0.000862022
  43	0.000543153	0.000294192	-0.000758838
  44	0.000352638	0.000472949	0.000513592
  45	0.000341397	0.000340224	-9.75532e-05
  46	0.000243518	-0.000519263	6.07506e-05
  47	0.000563023	-0.00052607	-0.000323963
  48	0.000484142	-0.00125078	0.000437619
  49	0.000260399	-0.000796445	0.00044545
  50	0.000740682	-0.000499103	-0.000431776
  51	0.000207668	-0.00105524	-0.0016169
  52	0.000694866	-0.00101357	-0.000791926
  53	0.00135171	-0.00171962	-0.000816485
  54	0.000651372	-0.000447426	-0.000232241
  55	0.000506423	-0.000156633	-1.79499e-05
  56	0.000120382	0.000343107	-8.23271e-05
  57	0.000655893	-0.000227388	0.000655475
  58	0.000584067	-0.000573453	0.000135775
  59	-0.00189146	-0.00057914	0.00158711
  60	-0.000156869	0.00122418	3.7857e-06
  61	-0.000329476	0.000784335	-0.000136767
  62	0.000163183	5.96575e-05	0.000279985
  63	0.000448506	0.000525864	0.000514924
  64	0.000227216	0.000405949	0.000377836
  65	0.00042396	0.000127463	0.00051271
  66	-8.40489e-05	0.000153274	-7.23017e-05
  67	0.000260595	-0.00186837	2.91956e-05
  68	-0.000510754	-0.000320188	0.000333073
  69	-0.000563969	0.000163272	0.000273384
  70	0.000206111	0.000243842	-1.75855e-05
  71	-0.000190025	0.000133739	-0.00010288
  72	-0.000244288	7.97684e-06	-0.000463714
  73	-0.000430725	0.000846682	-0.000414866
  74	-0.000132473	0.000437372	-0.000628563
  75	5.64817e-05	4.92717e-05	-0.000665513
  76	-0.000294803	0.000541941	-0.00103933
  77	0.000723224	-0.000587977	0.000241752
  78	-0.000292935	-0.000976862	0.000709855
  79	-0.000309546	0.00118291	0.000127888
  80	-2.55701e-05	-0.000329303	0.000622429
  81	0.000394305	0.000514689	0.000202954
  82	0.000124953	-0.000408523	0.000561438
  83	-0.000121715	0.000236561	0.000368078
  84	-0.000537907	0.000231449	0.00036807
  85	3.72085e-05	-0.000126457	0.000675808
  86	-0.00053829	-0.000326495	0.00121551
  87	-0.000220411	-0.000433945	0.000802285
  88	0.000434945	-0.000374618	0.000246989
  89	1.21571e-05	-0.000278625	0.000609555
  90	0.000219846	-9.75952e-05	0.00054305
  91	0.00048071	0.00014257	0.000619006
  92	-0.000161864	0.000530203	0.000273924
  93	-0.000635009	-0.000141551	0.000651833
  94	-0.00189325	-0.000114281	0.000293
  95	-0.000452757	-0.00103854	0.00129702
  96	-2.41045e-05	-0.000399703	-0.000174836
  97	-4.09021e-05	0.000246574	0.000292077
  98	-0.000249338	0.000859539	0.000838167
  99	-0.000240584	3.95799e-05	0.000325989
 100	-0.000510238	0.000710675	0.000903325
 101	-0.000609937	7.84044e-05	-0.000356493
 102	-0.000161261	0.0002617	0.000366576
 103	0.000643421	-8.16802e-05	0.000373454
 104	9.05624e-05	0.000221171	0.000288
 105	-0.000326427	0.000353424	0.000200203
 106	-0.000174189	0.000221178	0.000306167
 107	0.000240531	-0.000252955	0.000165789
 108	0.000571987	1.88324e-05	0.00129818
 109	0.000186733	0.000216	0.000597229
 110	-7.95494e-05	0.000819548	0.000655836
 111	-6.47615e-05	0.000160714	0.00038332
 112	2.31872e-06	0.000335853	0.000227622
 113	0.000150524	0.000592748	0.000223242
 114	-0.000150975	0.000353091	7.24614e-05
 115	-1.66908e-05	-0.000418166	0.000165065
 116	-0.00014526	0.000817547	-0.00173289
 117	-2.61599e-05	0.000799299	0.000373261
 118	-0.00047904	-0.00155396	-0.000576782
 119	0.000135826	-0.000121116	0.00011548
 120	0.000314682	2.17395e-07	0.000306737
 121	0.000150779	6.40489e-05	0.000200392
 122	9.44876e-05	5.58343e-05	0.000232528
 123	-0.000386954	0.000223617	4.31286e-05
 124	-0.000487372	0.000662709	0.000833721
 125	-0.000383917	4.82961e-05	-0.000365856
 126	-0.0011647	0.000385287	0.000229034
 127	-0.000530344	0.000233025	-2.793e-05
 128	-0.000675578	0.000356807	0.000260936
 129	-0.000564989	0.000499116	0.000724198
 130	-0.000581308	0.000265607	-9.83724e-06
 131	-0.000541677	0.000332277	-1.20733e-05
 132	-0.000567686	0.000469483	-2.28437e-05
 133	-0.000640897	0.000230145	-0.000100299
 134	0.000186217	-0.000196199	0.000365946
 135	-9.56105e-05	0.0003945	-2.86924e-05
 136	0.000174808	0.000461152	0.000187205
 137	-0.000324197	-0.000342057	0.000615667
 138	-9.93128e-05	-0.000331878	0.00033699
 139	-0.000479727	-0.00019671	0.000562566
 140	-0.000210752	-1.00352e-05	0.000365562
 141	-0.000297999	0.00022815	0.000420808
 142	5.67921e-05	-8.20725e-05	0.000341593
 143	0.000589971	-0.000287074	0.000168566
 144	4.62634e-05	-3.7899e-05	0.000295223
 145	-0.000610671	3.66928e-05	0.00149271
 146	-0.00052978	-0.00041119	-0.000276309
 147	-1.68882e-05	-6.17964e-05	0.000488576
 148	0.00108316	0.000103508	0.000620194
 149	0.000156697	0.000323771	0.000814152
 150	0.000180806	0.000243416	0.000605668
 151	8.39724e-05	0.000250681	0.000793393
 152	0.000425596	0.00044867	0.000469021
 153	0.000189663	0.000205136	0.000205258
 154	0.00034099	-0.000392767	0.000341779
 155	-3.55088e-05	-4.95294e-05	-1.00494e-05
 156	0.000635403	-0.000459953	-5.94153e-05
 157	0.000495724	0.000548975	0.000685191
 158	-2.00228e-06	-0.000102291	-0.000233101
 159	2.96496e-05	0.000411784	0.000206229
 160	-0.000563785	0.000909197	0.000240899
 161	0.000151106	-0.000585485	-0.000215416
 162	0.000615352	-0.000401116	0.000272292
 163	0.000480132	-0.000461574	0.000130147
 164	0.000211579	-0.00162793	-0.000495472
 165	0.0003759	-0.000705876	-0.00107719