pySIMM System Object

819 atoms
818 bonds
1548 angles
2017 dihedrals
0 impropers

7 atom types
8 bond types
13 angle types
5 dihedral types

-126.557021 126.557021 xlo xhi
-126.557021 126.557021 ylo yhi
-126.557021 126.557021 zlo zhi

Masses

   1	12.01	# c2
   2	1.008	# h1
   3	1.008	# hc
   4	12.01	# c3
   5	1.008	# ha
   6	32.06	# s6
   7	1.008	# h4

Pair Coeffs

   1	0.086	3.3996695084235347	# c2
   2	0.0157	2.471353044121301	# h1
   3	0.0157	2.649532787749369	# hc
   4	0.1094	3.3996695084235347	# c3
   5	0.015	2.59964245953351	# ha
   6	0.25	3.563594872561357	# s6
   7	0.015	2.5105525877194763	# h4

Bond Coeffs

   1	233.5	1.8075	# c3,s6
   2	569.4	1.3343	# c2,c2
   3	326.8	1.5095	# c2,c3
   4	263.2	1.76	# c2,s6
   5	330.6	1.0969	# c3,hc
   6	343.1	1.0879	# c2,ha
   7	344.6	1.0868	# c2,h4
   8	330.6	1.0969	# c3,h1

Angle Coeffs

   1	46.99	110.36	# c2,c3,hc
   2	39.4	107.58	# hc,c3,hc
   3	59.92	103.83	# c3,s6,c3
   4	60.63	104.05	# c2,s6,c3
   5	39.24	108.46	# h1,c3,h1
   6	42.79	115.45	# h4,c2,s6
   7	64.06	123.63	# c2,c2,c3
   8	62.73	120.01	# c2,c2,s6
   9	49.4	122.67	# c2,c2,h4
  10	49.85	120.43	# c2,c2,ha
  11	43.19	107.15	# h1,c3,s6
  12	45.94	115.68	# c3,c2,ha
  13	69.3	121.81	# c2,c2,c2

Dihedral Coeffs

   1	1	0.0	2	0	# X,c2,c3,X
   2	1	6.65	2	180	# X,c2,c2,X
   3	3	0.38	3	180	0.0	2	0	1.15	1	0	# hc,c3,c2,c2
   4	1	6.6499999999999995	2	180	# X,c2,s6,X
   5	1	0.14444444444444446	3	0	# X,c3,s6,X

Atoms

   1	1	1	0.037815	8.70047	12.1371	20.1593
   2	1	2	0.048876	6.2224	12.2916	24.6425
   3	1	1	-0.222978	8.08172	12.6574	21.2436
   4	1	2	0.097895	6.76462	13.7985	23.8178
   5	1	3	0.054231	8.41428	9.96158	20.0767
   6	1	3	0.054231	10.0657	10.5022	19.656
   7	1	4	-0.159568	9.19703	10.6986	20.2928
   8	1	3	0.073528	9.58521	10.5007	21.2941
   9	1	6	0.703056	7.58388	11.8397	22.7427
  10	1	2	0.084378	5.44049	12.8064	23.1047
  11	1	4	-0.422828	6.37588	12.7841	23.6748
  12	1	2	0.048873	6.426	9.94096	21.8785
  13	1	2	0.084374	8.08548	9.50161	22.4322
  14	1	4	-0.422813	7.188	10.0852	22.6532
  15	1	2	0.097892	6.7917	9.78744	23.6304
  16	1	2	0.084729	8.74982	11.4401	24.7783
  17	1	4	-0.400138	9.03529	11.8513	23.8034
  18	1	2	0.084733	9.82203	11.2413	23.3491
  19	1	2	0.073714	9.37299	12.8884	23.9122
  20	1	1	0.037815	9.27929	12.3442	17.8246
  21	1	2	0.048876	8.67681	15.4743	21.5315
  22	1	1	-0.222978	9.02884	12.9004	19.063
  23	1	2	0.097895	10.2092	14.5453	21.3472
  24	1	3	0.054231	8.36655	10.8425	16.4502
  25	1	3	0.054231	9.40684	10.1662	17.6355
  26	1	4	-0.159568	8.67857	10.9692	17.4765
  27	1	3	0.073528	7.77868	10.7516	18.0627
  28	1	6	0.703056	9.0472	14.723	19.263
  29	1	2	0.084378	10.1012	16.2424	20.7689
  30	1	4	-0.422828	9.55503	15.3018	20.8996
  31	1	2	0.048873	10.861	15.9379	18.2756
  32	1	2	0.084374	9.69003	15.4197	17.0237
  33	1	4	-0.422813	9.80069	15.8144	18.0334
  34	1	2	0.097892	9.30336	16.7881	18.1085
  35	1	2	0.084729	6.6983	14.5964	19.8177
  36	1	4	-0.400138	7.33253	15.3002	19.2716
  37	1	2	0.084733	7.30564	16.2859	19.7489
  38	1	2	0.073714	6.9738	15.3867	18.2438
  39	1	1	0.037815	9.84445	12.8451	15.501
  40	1	2	0.048876	13.6105	11.8925	17.5358
  41	1	1	-0.222978	10.0279	12.9562	16.8673
  42	1	2	0.097895	12.0792	11.0086	17.8531
  43	1	3	0.054231	11.8751	12.7002	14.6404
  44	1	3	0.054231	10.6973	13.2967	13.5145
  45	1	4	-0.159568	10.9707	13.3079	14.5709
  46	1	3	0.073528	11.205	14.3613	14.7483
  47	1	6	0.703056	11.7008	13.3324	17.5184
  48	1	2	0.084378	12.5038	11.4875	16.1838
  49	1	4	-0.422828	12.5628	11.7735	17.2356
  50	1	2	0.048873	11.4549	12.6403	19.8172
  51	1	2	0.084374	13.0879	13.2547	19.4435
  52	1	4	-0.422813	12.0152	13.4206	19.293
  53	1	2	0.097892	11.7628	14.4185	19.6571
  54	1	2	0.084729	13.6624	14.6635	17.3545
  55	1	4	-0.400138	12.8239	14.4692	16.6764
  56	1	2	0.084733	13.2085	14.0156	15.7584
  57	1	2	0.073714	12.2929	15.4049	16.468
  58	1	1	0.037815	8.80945	11.6289	13.7561
  59	1	2	0.048876	5.87312	13.5289	13.0802
  60	1	1	-0.222978	8.70386	12.5142	14.8051
  61	1	2	0.097895	5.4816	12.0805	14.049
  62	1	3	0.054231	9.68895	9.66329	13.3076
  63	1	3	0.054231	10.8038	10.9978	13.1146
  64	1	4	-0.159568	9.97672	10.6302	13.7331
  65	1	3	0.073528	10.3685	10.4186	14.7356
  66	1	6	0.703056	7.1277	13.3614	15.1419
  67	1	2	0.084378	4.85965	13.6763	14.5349
  68	1	4	-0.422828	5.70122	13.1412	14.0811
  69	1	2	0.048873	6.42425	15.621	15.3569
  70	1	2	0.084374	7.84462	15.2551	16.3709
  71	1	4	-0.422813	7.39554	15.1142	15.3941
  72	1	2	0.097892	8.05377	15.4892	14.6038
  73	1	2	0.084729	5.45091	13.5367	16.8091
  74	1	4	-0.400138	6.40065	12.9947	16.7421
  75	1	2	0.084733	6.21331	11.9196	16.813
  76	1	2	0.073714	7.05564	13.3362	17.5349
  77	1	1	0.037815	7.02587	10.266	12.943
  78	1	2	0.048876	9.85724	11.485	10.5501
  79	1	1	-0.222978	7.8527	11.3687	12.832
  80	1	2	0.097895	9.50894	13.0785	9.79903
  81	1	3	0.054231	6.24397	8.84954	14.4624
  82	1	3	0.054231	7.88515	9.3045	14.7154
  83	1	4	-0.159568	6.92422	9.69377	14.3643
  84	1	3	0.073528	6.59137	10.4451	15.0837
  85	1	6	0.703056	7.89205	12.5736	11.486
  86	1	2	0.084378	10.2613	12.9763	11.4175
  87	1	4	-0.422828	9.54192	12.5131	10.737
  88	1	2	0.048873	8.5491	14.8484	11.1456
  89	1	2	0.084374	7.26271	14.7387	12.362
  90	1	4	-0.422813	8.1905	14.2808	12.0125
  91	1	2	0.097892	8.94495	14.2997	12.8
  92	1	2	0.084729	6.36774	11.5758	9.93788
  93	1	4	-0.400138	6.60546	12.5914	10.2376
  94	1	2	0.084733	5.7209	13.0705	10.6697
  95	1	2	0.073714	6.96375	13.1739	9.38148
  96	1	1	0.037815	6.71533	9.25297	10.7334
  97	1	2	0.048876	4.06554	8.76737	14.6562
  98	1	1	-0.222978	6.26118	9.63605	11.9839
  99	1	2	0.097895	4.37751	10.5374	14.6192
 100	1	3	0.054231	8.82335	9.57251	11.1899
 101	1	3	0.054231	8.54381	8.69838	9.70555
 102	1	4	-0.159568	8.15531	9.50583	10.3317
 103	1	3	0.073528	8.26503	10.419	9.75754
 104	1	6	0.703056	4.48411	9.52515	12.4176
 105	1	2	0.084378	2.80973	9.8934	14.0703
 106	1	4	-0.422828	3.88807	9.70443	14.1166
 107	1	2	0.048873	3.33699	7.56854	11.6922
 108	1	2	0.084374	2.2562	8.97124	11.8621
 109	1	4	-0.422813	3.23439	8.63598	11.5001
 110	1	2	0.097892	3.33221	8.89341	10.4447
 111	1	2	0.084729	4.01668	11.1065	10.701
 112	1	4	-0.400138	3.93525	11.1187	11.7911
 113	1	2	0.084733	2.89245	11.2768	12.0874
 114	1	2	0.073714	4.56609	11.9071	12.1935
 115	1	1	0.037815	5.52396	7.20225	10.1924
 116	1	2	0.048876	7.19048	11.0591	8.04133
 117	1	1	-0.222978	6.05329	8.43066	9.8599
 118	1	2	0.097895	8.18493	9.63694	7.53242
 119	1	3	0.054231	3.49633	6.35307	9.97004
 120	1	3	0.054231	3.81955	7.54885	8.84757
 121	1	4	-0.159568	4.31436	6.73764	9.37962
 122	1	3	0.073528	4.58395	5.98844	8.63884
 123	1	6	0.703056	5.95725	8.98952	8.11395
 124	1	2	0.084378	6.95876	10.3345	6.43118
 125	1	4	-0.422828	7.20494	10.1232	7.47774
 126	1	2	0.048873	4.78559	10.9964	8.70156
 127	1	2	0.084374	4.47385	10.4903	7.01544
 128	1	4	-0.422813	4.57698	10.1447	8.05024
 129	1	2	0.097892	3.65911	9.64084	8.36424
 130	1	2	0.084729	5.58603	8.42049	5.84286
 131	1	4	-0.400138	5.53833	7.8475	6.77548
 132	1	2	0.084733	6.27896	7.04875	6.73622
 133	1	2	0.073714	4.52675	7.44952	6.88438
 134	1	1	0.037815	7.39181	6.31542	11.4568
 135	1	2	0.048876	3.48083	4.19101	10.4415
 136	1	1	-0.222978	6.05983	6.34559	11.1362
 137	1	2	0.097895	3.19536	3.63962	12.1208
 138	1	3	0.054231	6.78516	7.21957	13.2996
 139	1	3	0.054231	8.39518	7.66574	12.832
 140	1	4	-0.159568	7.68985	6.83267	12.8443
 141	1	3	0.073528	8.04561	6.04851	13.518
 142	1	6	0.703056	5.10291	5.05431	11.999
 143	1	2	0.084378	2.74536	5.30282	11.6533
 144	1	4	-0.422828	3.46642	4.49387	11.4905
 145	1	2	0.048873	4.17627	6.77081	13.408
 146	1	2	0.084374	3.86743	5.12375	14.0369
 147	1	4	-0.422813	4.611	5.78384	13.5761
 148	1	2	0.097892	5.48009	5.85375	14.2362
 149	1	2	0.084729	5.35185	3.06852	13.2759
 150	1	4	-0.400138	6.04592	3.71189	12.7236
 151	1	2	0.084733	6.52988	3.14522	11.93
 152	1	2	0.073714	6.78717	4.1318	13.41
 153	1	1	0.037815	8.11333	4.79355	9.69372
 154	1	2	0.048876	11.0485	4.6101	9.3973
 155	1	1	-0.222978	8.31067	5.44806	10.8785
 156	1	2	0.097895	12.2728	5.16531	10.574
 157	1	3	0.054231	8.47566	5.66243	7.75026
 158	1	3	0.054231	6.755	5.52392	8.13422
 159	1	4	-0.159568	7.73896	5.73005	8.55341
 160	1	3	0.073528	7.7861	6.77747	8.84647
 161	1	6	0.703056	10.0706	5.5467	11.3709
 162	1	2	0.084378	11.4399	3.63251	10.8745
 163	1	4	-0.422828	11.3231	4.63165	10.4563
 164	1	2	0.048873	10.2327	6.64964	13.5204
 165	1	2	0.084374	10.0664	4.86212	13.6743
 166	1	4	-0.422813	10.5329	5.67889	13.1137
 167	1	2	0.097892	11.6236	5.59129	13.1712
 168	1	2	0.084729	11.6571	7.29615	11.0914
 169	1	4	-0.400138	10.5771	7.21015	10.9294
 170	1	2	0.084733	10.3419	7.3709	9.87212
 171	1	2	0.073714	10.0609	7.92542	11.567
 172	1	1	0.037815	8.48128	3.12007	8.03734
 173	1	2	0.048876	8.435	0.00331716	10.9072
 174	1	1	-0.222978	8.55821	3.53049	9.34267
 175	1	2	0.097895	7.07008	1.14227	10.9577
 176	1	3	0.054231	10.6566	2.85094	8.12744
 177	1	3	0.054231	9.83859	1.74132	7.02591
 178	1	4	-0.159568	9.83172	2.76456	7.42009
 179	1	3	0.073528	10.1452	3.43839	6.62989
 180	1	6	0.703056	9.14331	2.26119	10.5279
 181	1	2	0.084378	7.7905	0.674082	9.37029
 182	1	4	-0.422828	7.98986	0.882261	10.4266
 183	1	2	0.048873	9.04605	1.67069	12.83
 184	1	2	0.084374	10.3223	2.87619	12.5171
 185	1	4	-0.422813	9.29043	2.59289	12.2898
 186	1	2	0.097892	8.59939	3.38491	12.5733
 187	1	2	0.084729	11.4096	1.76581	9.87054
 188	1	4	-0.400138	10.494	1.18107	9.99887
 189	1	2	0.084733	10.6496	0.429732	10.7815
 190	1	2	0.073714	10.2171	0.682069	9.06391
 191	1	1	0.037815	6.0538	2.73597	7.7294
 192	1	2	0.048876	8.44708	1.26161	4.66627
 193	1	1	-0.222978	7.34071	2.91767	7.2802
 194	1	2	0.097895	8.45771	2.58796	3.46823
 195	1	3	0.054231	4.70294	2.69073	9.48051
 196	1	3	0.054231	6.3368	2.77766	9.89713
 197	1	4	-0.159568	5.6449	3.12689	9.15177
 198	1	3	0.073528	5.53341	4.19789	9.26465
 199	1	6	0.703056	7.44847	3.29913	5.5005
 200	1	2	0.084378	9.65279	2.5822	4.78484
 201	1	4	-0.422828	8.62371	2.33066	4.5203
 202	1	2	0.048873	5.58241	4.65271	4.89933
 203	1	2	0.084374	6.13734	3.63612	3.53291
 204	1	4	-0.422813	5.91929	3.65146	4.60651
 205	1	2	0.097892	5.13581	2.94065	4.84594
 206	1	2	0.084729	7.62937	5.66791	5.63151
 207	1	4	-0.400138	8.28533	4.88185	5.24592
 208	1	2	0.084733	9.25487	4.93892	5.73529
 209	1	2	0.073714	8.41195	5.02212	4.16638
 210	1	1	0.037815	3.77325	2.29289	7.26832
 211	1	2	0.048876	6.38479	1.19564	4.13564
 212	1	1	-0.222978	5.09295	1.95669	7.11126
 213	1	2	0.097895	5.71521	-0.425844	4.01319
 214	1	3	0.054231	2.99516	4.15567	8.09779
 215	1	3	0.054231	4.3932	4.41492	7.06463
 216	1	4	-0.159568	3.49409	3.8047	7.18978
 217	1	3	0.073528	2.89521	4.092	6.32945
 218	1	6	0.703056	5.53339	0.385192	6.25673
 219	1	2	0.084378	4.61024	0.973638	4.10836
 220	1	4	-0.422828	5.56211	0.564189	4.45578
 221	1	2	0.048873	7.15918	-0.706807	7.62627
 222	1	2	0.084374	7.37306	-1.07735	5.88406
 223	1	4	-0.422813	7.16221	-0.288411	6.61474
 224	1	2	0.097892	7.9116	0.500051	6.54507
 225	1	2	0.084729	4.54295	-1.5879	5.30808
 226	1	4	-0.400138	4.2766	-0.921368	6.13543
 227	1	2	0.084733	4.25475	-1.52781	7.04001
 228	1	2	0.073714	3.29583	-0.483077	5.94267
 229	1	1	0.037815	1.41937	1.7189	7.51678
 230	1	2	0.048876	5.56095	0.582255	9.25826
 231	1	1	-0.222978	2.76629	1.4498	7.68037
 232	1	2	0.097895	4.90381	-0.642906	10.3643
 233	1	3	0.054231	0.354515	0.839595	9.24731
 234	1	3	0.054231	-0.69065	1.27029	7.92154
 235	1	4	-0.159568	0.309176	0.88625	8.15767
 236	1	3	0.073528	0.304422	-0.128673	7.74719
 237	1	6	0.703056	3.21203	0.161752	8.90799
 238	1	2	0.084378	5.27192	-1.09488	8.69362
 239	1	4	-0.422828	4.91048	-0.284967	9.3285
 240	1	2	0.048873	2.47932	0.109247	11.1945
 241	1	2	0.084374	3.61979	1.44754	10.8818
 242	1	4	-0.422813	2.7537	0.904093	10.4913
 243	1	2	0.097892	1.9275	1.60523	10.3563
 244	1	2	0.084729	2.77359	-2.07778	9.56423
 245	1	4	-0.400138	2.20182	-1.33021	9.00309
 246	1	2	0.084733	1.26782	-1.12699	9.5349
 247	1	2	0.073714	2.01164	-1.69335	7.98687
 248	1	1	0.037815	1.01711	2.64456	5.34605
 249	1	2	0.048876	-2.12394	3.12544	7.88667
 250	1	1	-0.222978	0.885817	2.6685	6.70813
 251	1	2	0.097895	-2.08095	4.91757	7.87005
 252	1	3	0.054231	1.2111	0.477426	5.10151
 253	1	3	0.054231	2.73608	1.37199	5.01637
 254	1	4	-0.159568	1.6827	1.40208	4.746
 255	1	3	0.073528	1.67588	1.37388	3.65629
 256	1	6	0.703056	0.0909492	3.96956	7.66305
 257	1	2	0.084378	-1.91857	3.99572	6.34433
 258	1	4	-0.422828	-1.68717	4.00706	7.40449
 259	1	2	0.048873	1.37123	3.74266	9.66831
 260	1	2	0.084374	-0.0868931	4.76667	9.89754
 261	1	4	-0.422813	0.305003	3.84874	9.44557
 262	1	2	0.097892	-0.2556	2.98408	9.81328
 263	1	2	0.084729	0.823938	5.59767	6.06162
 264	1	4	-0.400138	0.608377	5.60681	7.13126
 265	1	2	0.084733	-0.183398	6.32299	7.37614
 266	1	2	0.073714	1.52103	5.86732	7.67767
 267	1	1	0.037815	1.08572	4.27844	3.5692
 268	1	2	0.048876	-2.84294	3.10276	2.24534
 269	1	1	-0.222978	0.413559	3.55618	4.52606
 270	1	2	0.097895	-2.88722	4.31019	3.54354
 271	1	3	0.054231	3.1976	4.73322	3.09345
 272	1	3	0.054231	3.04835	3.53989	4.26659
 273	1	4	-0.159568	2.55835	3.89728	3.36354
 274	1	3	0.073528	2.67059	3.10845	2.61321
 275	1	6	0.703056	-1.0886	2.80138	3.83657
 276	1	2	0.084378	-1.67736	4.46433	2.21906
 277	1	4	-0.422828	-2.2327	3.77642	2.85707
 278	1	2	0.048873	0.245071	2.1966	1.93088
 279	1	2	0.084374	-0.220328	0.765389	2.92543
 280	1	4	-0.422813	-0.557229	1.71479	2.49778
 281	1	2	0.097892	-1.41243	1.51794	1.84815
 282	1	2	0.084729	-2.60892	1.02485	4.26238
 283	1	4	-0.400138	-1.96016	1.63688	4.89916
 284	1	2	0.084733	-1.22757	1.00366	5.41038
 285	1	2	0.073714	-2.57298	2.18207	5.6215
 286	1	1	0.037815	-0.218298	6.40976	3.39366
 287	1	2	0.048876	0.294455	7.8393	0.714368
 288	1	1	-0.222978	0.709757	5.47298	2.97
 289	1	2	0.097895	2.08805	8.03151	0.819109
 290	1	3	0.054231	-1.12618	6.96514	5.28697
 291	1	3	0.054231	-2.24925	6.19378	4.18089
 292	1	4	-0.159568	-1.21739	6.1908	4.52267
 293	1	3	0.073528	-1.09227	5.27614	5.05975
 294	1	6	0.703056	1.4075	5.79348	1.29455
 295	1	2	0.084378	1.34571	7.23272	-0.591756
 296	1	4	-0.422828	1.2627	7.3959	0.488892
 297	1	2	0.048873	2.91571	5.23736	-0.461911
 298	1	2	0.084374	3.75017	5.25587	1.11496
 299	1	4	-0.422813	2.84051	4.94301	0.591318
 300	1	2	0.097892	2.69103	3.86086	0.64577
 301	1	2	0.084729	0.200657	3.86258	0.587596
 302	1	4	-0.400138	0.190486	4.91865	0.303185
 303	1	2	0.084733	-0.793177	5.35381	0.493826
 304	1	2	0.073714	0.453157	5.02583	-0.755293
 305	1	1	0.037815	-1.02719	8.6767	2.95636
 306	1	2	0.048876	2.44143	9.18334	5.68156
 307	1	1	-0.222978	-0.0259515	7.74999	3.16533
 308	1	2	0.097895	0.725225	9.62154	5.42351
 309	1	3	0.054231	-0.101489	10.4813	2.10994
 310	1	3	0.054231	-1.66844	10.7704	2.83779
 311	1	4	-0.159568	-0.745996	10.1849	2.94187
 312	1	3	0.073528	-0.306391	10.544	3.87364
 313	1	6	0.703056	1.64447	8.36864	3.57832
 314	1	2	0.084378	1.15754	7.94491	5.87062
 315	1	4	-0.422828	1.47053	8.83223	5.31273
 316	1	2	0.048873	3.3778	6.89856	2.82761
 317	1	2	0.084374	3.82561	7.80279	4.29772
 318	1	4	-0.422813	3.02394	7.24486	3.80206
 319	1	2	0.097892	2.70247	6.42446	4.45182
 320	1	2	0.084729	1.7775	10.7748	3.41996
 321	1	4	-0.400138	2.26669	9.93194	2.92379
 322	1	2	0.084733	3.34019	9.97193	3.13963
 323	1	2	0.073714	2.10496	9.96171	1.8411
 324	1	1	0.037815	-3.23939	8.5957	3.83462
 325	1	2	0.048876	-4.64229	10.2803	1.47118
 326	1	1	-0.222978	-2.34459	8.36539	2.79766
 327	1	2	0.097895	-4.64582	9.61503	-0.203175
 328	1	3	0.054231	-2.75224	10.3087	5.11803
 329	1	3	0.054231	-2.98922	8.77248	6.01482
 330	1	4	-0.159568	-2.61579	9.22363	5.09874
 331	1	3	0.073528	-1.54441	9.0744	5.23487
 332	1	6	0.703056	-2.87606	8.74793	1.09818
 333	1	2	0.084378	-5.21324	8.6103	1.15606
 334	1	4	-0.422828	-4.51998	9.37976	0.859458
 335	1	2	0.048873	-2.17316	9.90579	-0.864843
 336	1	2	0.084374	-1.92484	10.8907	0.603142
 337	1	4	-0.422813	-1.82385	9.88836	0.174264
 338	1	2	0.097892	-0.786264	9.54723	0.206253
 339	1	2	0.084729	-1.49977	7.36308	-0.288256
 340	1	4	-0.400138	-2.56297	7.37276	-0.0346931
 341	1	2	0.084733	-2.83345	6.41267	0.404681
 342	1	2	0.073714	-3.14949	7.54563	-0.944038
 343	1	1	0.037815	-5.22729	7.15379	3.34964
 344	1	2	0.048876	-4.53621	11.2514	4.29438
 345	1	1	-0.222978	-4.5654	8.19216	3.99941
 346	1	2	0.097895	-5.9538	10.842	3.30916
 347	1	3	0.054231	-4.8577	5.2363	2.359
 348	1	3	0.054231	-4.82583	6.61404	1.2858
 349	1	4	-0.159568	-4.56399	6.29019	2.28944
 350	1	3	0.073528	-3.48431	6.24864	2.39078
 351	1	6	0.703056	-5.61104	9.2533	5.11364
 352	1	2	0.084378	-6.18589	11.5685	4.91858
 353	1	4	-0.422828	-5.56703	10.8853	4.32581
 354	1	2	0.048873	-7.87777	9.79061	5.62496
 355	1	2	0.084374	-7.7931	8.39404	4.50851
 356	1	4	-0.422813	-7.35301	8.85677	5.39195
 357	1	2	0.097892	-7.429	8.18154	6.24904
 358	1	2	0.084729	-4.2768	10.788	6.46739
 359	1	4	-0.400138	-5.02115	10.0117	6.66461
 360	1	2	0.084733	-5.88872	10.4834	7.13981
 361	1	2	0.073714	-4.60841	9.26154	7.34337
 362	1	1	0.037815	-7.26103	5.79865	3.09619
 363	1	2	0.048876	-3.84309	4.83569	5.41618
 364	1	1	-0.222978	-6.29885	6.46151	3.86104
 365	1	2	0.097895	-5.02886	3.74758	6.20072
 366	1	3	0.054231	-7.01551	3.83848	4.1562
 367	1	3	0.054231	-8.64023	4.52551	4.25137
 368	1	4	-0.159568	-7.75223	4.42291	3.61762
 369	1	3	0.073528	-8.01039	3.71083	2.82607
 370	1	6	0.703056	-6.00885	5.83572	5.56695
 371	1	2	0.084378	-5.01283	3.95068	4.41109
 372	1	4	-0.422828	-4.86537	4.44743	5.37351
 373	1	2	0.048873	-4.67628	5.92897	7.52123
 374	1	2	0.084374	-4.03976	6.9992	6.24864
 375	1	4	-0.422813	-4.94662	6.66054	6.75022
 376	1	2	0.097892	-5.51596	7.46163	7.22296
 377	1	2	0.084729	-7.1372	5.20253	7.56301
 378	1	4	-0.400138	-7.4006	5.16074	6.49996
 379	1	2	0.084733	-8.28157	5.78437	6.30991
 380	1	2	0.073714	-7.58391	4.11882	6.22115
 381	1	1	0.037815	-8.7992	5.37482	1.31245
 382	1	2	0.048876	-6.12623	7.48371	-0.396893
 383	1	1	-0.222978	-7.78754	6.12693	1.84817
 384	1	2	0.097895	-7.75656	7.21383	-1.10048
 385	1	3	0.054231	-10.4174	4.58004	2.60337
 386	1	3	0.054231	-10.8818	5.99159	1.61131
 387	1	4	-0.159568	-10.0697	5.51733	2.16594
 388	1	3	0.073528	-9.91707	6.19197	3.01896
 389	1	6	0.703056	-7.90075	7.79528	1.17013
 390	1	2	0.084378	-7.1784	8.88583	-0.811197
 391	1	4	-0.422828	-7.15447	7.85086	-0.452572
 392	1	2	0.048873	-9.52878	9.13184	0.0496618
 393	1	2	0.084374	-9.91057	7.38517	-0.0532661
 394	1	4	-0.422813	-9.56053	8.18191	0.596159
 395	1	2	0.097892	-10.2111	8.27806	1.47186
 396	1	2	0.084729	-7.3381	10.0724	1.3828
 397	1	4	-0.400138	-7.46064	9.24472	2.09046
 398	1	2	0.084733	-8.27204	9.47252	2.78881
 399	1	2	0.073714	-6.53837	9.05091	2.60949
 400	1	1	0.037815	-7.68528	4.60153	-0.71452
 401	1	2	0.048876	-10.0835	3.18474	-2.68492
 402	1	1	-0.222978	-8.81147	4.75891	0.0673841
 403	1	2	0.097895	-10.0743	1.73732	-1.62911
 404	1	3	0.054231	-5.70974	5.26091	-0.0915818
 405	1	3	0.054231	-5.79766	3.53762	-0.390922
 406	1	4	-0.159568	-6.3531	4.38616	0.00766697
 407	1	3	0.073528	-6.46735	4.12834	1.06213
 408	1	6	0.703056	-10.2942	3.7346	-0.329259
 409	1	2	0.084378	-11.5884	2.59494	-1.9666
 410	1	4	-0.422828	-10.5125	2.72354	-1.80659
 411	1	2	0.048873	-9.20919	1.82464	0.615601
 412	1	2	0.084374	-10.1231	2.71489	1.86378
 413	1	4	-0.422813	-10.1397	2.36009	0.833675
 414	1	2	0.097892	-10.9962	1.69272	0.684229
 415	1	2	0.084729	-12.6738	3.60273	-0.320361
 416	1	4	-0.400138	-11.9503	4.2619	0.171572
 417	1	2	0.084733	-12.077	4.16663	1.25318
 418	1	2	0.073714	-12.1102	5.29319	-0.163135
 419	1	1	0.037815	-6.437	4.3611	-2.77599
 420	1	2	0.048876	-9.35196	3.49246	-4.57322
 421	1	1	-0.222978	-7.61077	4.58163	-2.09362
 422	1	2	0.097895	-9.61993	5.06012	-5.40213
 423	1	3	0.054231	-4.67509	5.61003	-2.55963
 424	1	3	0.054231	-5.61333	5.97522	-4.03436
 425	1	4	-0.159568	-5.6778	5.66506	-2.99242
 426	1	3	0.073528	-6.12648	6.50044	-2.45605
 427	1	6	0.703056	-8.85689	5.3843	-3.16578
 428	1	2	0.084378	-7.95324	4.43902	-5.16629
 429	1	4	-0.422828	-8.95642	4.49965	-4.73417
 430	1	2	0.048873	-11.1861	5.05687	-2.63965
 431	1	2	0.084374	-10.406	6.28871	-1.58259
 432	1	4	-0.422813	-10.4857	5.89444	-2.59144
 433	1	2	0.097892	-10.8436	6.68173	-3.26384
 434	1	2	0.084729	-7.92983	7.60843	-3.19223
 435	1	4	-0.400138	-8.26539	6.90029	-3.95529
 436	1	2	0.084733	-7.46643	6.66992	-4.66389
 437	1	2	0.073714	-9.10164	7.33855	-4.51105
 438	1	1	0.037815	-6.08418	1.91971	-2.53002
 439	1	2	0.048876	-4.60231	3.77047	-6.63319
 440	1	1	-0.222978	-5.73352	3.1793	-2.98606
 441	1	2	0.097895	-6.09498	3.0009	-6.0237
 442	1	3	0.054231	-7.5718	2.13332	-0.975178
 443	1	3	0.054231	-7.88692	0.736132	-1.86671
 444	1	4	-0.159568	-7.49186	1.73075	-1.98407
 445	1	3	0.073528	-8.19318	2.22284	-2.6499
 446	1	6	0.703056	-4.42816	3.24944	-4.30423
 447	1	2	0.084378	-5.77386	4.71642	-5.67328
 448	1	4	-0.422828	-5.3177	3.73342	-5.80324
 449	1	2	0.048873	-3.75979	5.5245	-4.86818
 450	1	2	0.084374	-2.8399	4.88342	-3.46617
 451	1	4	-0.422813	-3.27066	4.64372	-4.44223
 452	1	2	0.097892	-2.47166	4.33202	-5.12415
 453	1	2	0.084729	-3.22487	1.94896	-5.88438
 454	1	4	-0.400138	-3.5264	1.77875	-4.84456
 455	1	2	0.084733	-2.62515	1.67055	-4.23633
 456	1	2	0.073714	-4.15415	0.886552	-4.793
 457	1	1	0.037815	-5.55702	-0.496961	-2.54297
 458	1	2	0.048876	-1.27953	0.764809	-1.49922
 459	1	1	-0.222978	-5.21935	0.849107	-2.48435
 460	1	2	0.097895	-2.25068	-0.712094	-1.32113
 461	1	3	0.054231	-4.16462	-1.60343	-1.23835
 462	1	3	0.054231	-4.92571	-2.59763	-2.44006
 463	1	4	-0.159568	-4.52403	-1.59213	-2.26902
 464	1	3	0.073528	-3.6845	-1.52026	-2.96785
 465	1	6	0.703056	-3.59657	1.26341	-1.71298
 466	1	2	0.084378	-1.97671	-0.0029295	-2.95884
 467	1	4	-0.422828	-2.13786	0.210001	-1.89662
 468	1	2	0.048873	-2.37629	3.00034	-0.628048
 469	1	2	0.084374	-2.3857	3.19719	-2.38525
 470	1	4	-0.422813	-3.00959	2.9571	-1.52189
 471	1	2	0.097892	-3.84231	3.65247	-1.40261
 472	1	2	0.084729	-4.09038	-0.101654	0.210967
 473	1	4	-0.400138	-3.9356	0.963442	0.0309244
 474	1	2	0.084733	-3.0745	1.30654	0.608256
 475	1	2	0.073714	-4.82711	1.53371	0.313244
 476	1	1	0.037815	-7.37293	-1.789	-1.76352
 477	1	2	0.048876	-6.23043	-2.50612	-5.50104
 478	1	1	-0.222978	-6.77671	-1.06493	-2.79595
 479	1	2	0.097895	-6.74874	-1.23113	-6.64413
 480	1	3	0.054231	-6.44286	-2.11337	0.233319
 481	1	3	0.054231	-6.18285	-0.512724	-0.315889
 482	1	4	-0.159568	-6.90426	-1.32454	-0.361839
 483	1	3	0.073528	-7.71612	-0.835323	0.166963
 484	1	6	0.703056	-7.49405	-0.733834	-4.42565
 485	1	2	0.084378	-5.37883	-0.943829	-5.52038
 486	1	4	-0.422828	-6.35198	-1.43173	-5.64262
 487	1	2	0.048873	-9.80026	-0.819736	-3.9531
 488	1	2	0.084374	-9.47649	-0.572201	-5.69675
 489	1	4	-0.422813	-9.1904	-1.13879	-4.8035
 490	1	2	0.097892	-9.30068	-2.20049	-5.00829
 491	1	2	0.084729	-7.50961	0.859054	-6.18545
 492	1	4	-0.400138	-7.23383	0.892957	-5.12567
 493	1	2	0.084733	-7.87309	1.61903	-4.62179
 494	1	2	0.073714	-6.18179	1.1442	-5.0286
 495	1	1	0.037815	-8.73666	-3.53623	-2.8505
 496	1	2	0.048876	-11.3505	-4.04134	-0.0611818
 497	1	1	-0.222978	-8.40627	-2.72385	-1.78673
 498	1	2	0.097895	-10.3215	-5.18846	-1.00228
 499	1	3	0.054231	-7.45836	-5.0125	-3.83992
 500	1	3	0.054231	-7.85918	-3.67431	-4.84511
 501	1	4	-0.159568	-7.6207	-3.94309	-3.81385
 502	1	3	0.073528	-6.64438	-3.52825	-3.5589
 503	1	6	0.703056	-9.09082	-3.31661	-0.166751
 504	1	2	0.084378	-10.2593	-5.15791	0.785284
 505	1	4	-0.422828	-10.388	-4.55503	-0.120297
 506	1	2	0.048873	-7.40563	-3.66201	1.55179
 507	1	2	0.084374	-8.08924	-5.19787	0.949406
 508	1	4	-0.422813	-7.73742	-4.20207	0.658978
 509	1	2	0.097892	-6.90639	-4.30051	-0.0486927
 510	1	2	0.084729	-10.1638	-2.64604	1.85201
 511	1	4	-0.400138	-9.44854	-2.15696	1.18117
 512	1	2	0.084733	-8.53982	-1.92652	1.7465
 513	1	2	0.073714	-9.88619	-1.23997	0.773056
 514	1	1	0.037815	-10.278	-5.00135	-4.06088
 515	1	2	0.048876	-11.6906	-1.55393	-4.72598
 516	1	1	-0.222978	-10.004	-3.96801	-3.1853
 517	1	2	0.097895	-12.9273	-2.85152	-4.67382
 518	1	3	0.054231	-10.9797	-3.58745	-5.58013
 519	1	3	0.054231	-10.9165	-5.18328	-6.16846
 520	1	4	-0.159568	-11.1591	-4.6177	-5.26255
 521	1	3	0.073528	-12.2261	-4.77478	-5.08724
 522	1	6	0.703056	-11.4528	-2.91657	-2.7303
 523	1	2	0.084378	-13.0926	-1.43537	-3.63487
 524	1	4	-0.422828	-12.368	-2.12206	-4.08575
 525	1	2	0.048873	-12.5798	-4.70712	-1.56037
 526	1	2	0.084374	-13.6637	-3.32475	-1.92675
 527	1	4	-0.422813	-12.8642	-3.96726	-2.31232
 528	1	2	0.097892	-13.2119	-4.4892	-3.20691
 529	1	2	0.084729	-11.4133	-1.90429	-0.567601
 530	1	4	-0.400138	-11.2921	-1.53226	-1.58636
 531	1	2	0.084733	-10.3311	-1.03048	-1.73637
 532	1	2	0.073714	-12.1037	-0.825484	-1.78966
 533	1	1	0.037815	-10.4303	-7.22317	-4.88672
 534	1	2	0.048876	-8.77021	-9.28277	-4.02792
 535	1	1	-0.222978	-9.78395	-6.29849	-4.11721
 536	1	2	0.097895	-7.13394	-8.56895	-3.71362
 537	1	3	0.054231	-12.1995	-6.63515	-3.70231
 538	1	3	0.054231	-12.6221	-7.36437	-5.2188
 539	1	4	-0.159568	-11.8859	-7.40658	-4.41491
 540	1	3	0.073528	-12.0244	-8.32011	-3.83829
 541	1	6	0.703056	-8.83285	-7.18139	-2.85555
 542	1	2	0.084378	-8.03083	-9.36831	-2.3978
 543	1	4	-0.422828	-8.1276	-8.76691	-3.30868
 544	1	2	0.048873	-10.8514	-7.07217	-1.55416
 545	1	2	0.084374	-10.5595	-8.70325	-2.2327
 546	1	4	-0.422813	-10.0952	-7.83749	-1.74977
 547	1	2	0.097892	-9.61345	-8.15316	-0.818186
 548	1	2	0.084729	-7.56136	-7.05413	-0.861984
 549	1	4	-0.400138	-7.72269	-6.38453	-1.71385
 550	1	2	0.084733	-6.76895	-6.17836	-2.21007
 551	1	2	0.073714	-8.20706	-5.47795	-1.39646
 552	1	1	0.037815	-8.68694	-7.67845	-6.55358
 553	1	2	0.048876	-11.0011	-10.3201	-4.32425
 554	1	1	-0.222978	-9.88705	-7.95981	-5.92918
 555	1	2	0.097895	-12.6425	-9.96492	-5.00083
 556	1	3	0.054231	-7.40555	-5.9764	-7.13256
 557	1	3	0.054231	-8.59916	-5.53487	-6.0506
 558	1	4	-0.159568	-7.94125	-6.37171	-6.27268
 559	1	3	0.073528	-7.21024	-6.50499	-5.46849
 560	1	6	0.703056	-10.8643	-9.37748	-6.51807
 561	1	2	0.084378	-11.7244	-11.3851	-5.56972
 562	1	4	-0.422828	-11.6415	-10.3521	-5.21407
 563	1	2	0.048873	-13.214	-9.25277	-7.00845
 564	1	2	0.084374	-12.3869	-7.67418	-7.26765
 565	1	4	-0.422813	-12.3153	-8.75792	-7.39453
 566	1	2	0.097892	-12.1955	-8.99093	-8.45784
 567	1	2	0.084729	-10.9826	-11.3026	-7.8773
 568	1	4	-0.400138	-10.1969	-10.5718	-7.6546
 569	1	2	0.084733	-9.8902	-10.0719	-8.56691
 570	1	2	0.073714	-9.36388	-11.0635	-7.15878
 571	1	1	0.037815	-7.29406	-9.26227	-7.71229
 572	1	2	0.048876	-10.3045	-5.61018	-9.80592
 573	1	1	-0.222978	-8.24516	-8.25858	-7.70922
 574	1	2	0.097895	-10.9052	-6.51372	-8.37475
 575	1	3	0.054231	-6.69011	-9.02628	-5.64572
 576	1	3	0.054231	-7.66866	-10.4754	-5.92373
 577	1	4	-0.159568	-6.89564	-9.82882	-6.35245
 578	1	3	0.073528	-5.96605	-10.4014	-6.39758
 579	1	6	0.703056	-8.82185	-7.36034	-9.16324
 580	1	2	0.084378	-9.57886	-5.31272	-8.19201
 581	1	4	-0.422828	-10.0278	-6.06495	-8.84785
 582	1	2	0.048873	-6.75086	-7.38547	-10.3436
 583	1	2	0.084374	-7.91402	-6.21106	-11.0358
 584	1	4	-0.422813	-7.49057	-6.62307	-10.1132
 585	1	2	0.097892	-7.04592	-5.8168	-9.52124
 586	1	2	0.084729	-8.89401	-9.38244	-10.4101
 587	1	4	-0.400138	-9.47035	-8.46031	-10.4225
 588	1	2	0.084733	-10.5179	-8.67259	-10.1842
 589	1	2	0.073714	-9.40169	-7.96673	-11.3984
 590	1	1	0.037815	-5.23623	-8.86964	-8.83773
 591	1	2	0.048876	-4.9815	-11.7688	-11.1056
 592	1	1	-0.222978	-6.42603	-9.58398	-8.7323
 593	1	2	0.097895	-4.15163	-11.7888	-9.51441
 594	1	3	0.054231	-5.98055	-7.03375	-8.02846
 595	1	3	0.054231	-5.06688	-7.92866	-6.83921
 596	1	4	-0.159568	-5.1215	-7.66311	-7.8948
 597	1	3	0.073528	-4.32961	-6.95696	-8.12108
 598	1	6	0.703056	-6.44281	-11.3488	-9.22387
 599	1	2	0.084378	-5.16016	-13.1701	-10.0258
 600	1	4	-0.422828	-5.03934	-12.0816	-10.0667
 601	1	2	0.048873	-6.82623	-13.51	-8.2845
 602	1	2	0.084374	-6.10302	-12.415	-7.0817
 603	1	4	-0.422813	-6.84126	-12.4914	-7.87923
 604	1	2	0.097892	-7.83477	-12.2766	-7.48955
 605	1	2	0.084729	-8.08168	-11.2408	-11.0131
 606	1	4	-0.400138	-7.9518	-11.8195	-10.0994
 607	1	2	0.084733	-7.86879	-12.8821	-10.3541
 608	1	2	0.073714	-8.81116	-11.675	-9.44679
 609	1	1	0.037815	-2.98174	-8.35342	-9.51327
 610	1	2	0.048876	-3.7607	-9.54559	-13.6697
 611	1	1	-0.222978	-4.22911	-8.91409	-9.78743
 612	1	2	0.097895	-2.52899	-9.66327	-12.3716
 613	1	3	0.054231	-1.19576	-7.51638	-10.4424
 614	1	3	0.054231	-2.35512	-7.84419	-11.5827
 615	1	4	-0.159568	-2.27646	-7.49892	-10.5638
 616	1	3	0.073528	-2.63194	-6.46226	-10.5384
 617	1	6	0.703056	-4.74768	-9.07229	-11.5392
 618	1	2	0.084378	-3.71832	-10.9624	-12.5837
 619	1	4	-0.422828	-3.56047	-9.88111	-12.6454
 620	1	2	0.048873	-6.40383	-10.7189	-12.0443
 621	1	2	0.084374	-7.10152	-9.22347	-11.3011
 622	1	4	-0.422813	-6.3828	-9.62943	-12.0058
 623	1	2	0.097892	-6.59679	-9.2533	-13.0117
 624	1	2	0.084729	-3.8587	-7.18674	-12.7867
 625	1	4	-0.400138	-4.79264	-7.40875	-12.2636
 626	1	2	0.084733	-5.61019	-7.36365	-12.9905
 627	1	2	0.073714	-4.97222	-6.68201	-11.4639
 628	1	1	0.037815	-2.35008	-9.6081	-7.53386
 629	1	2	0.048876	-0.669298	-7.95823	-5.47904
 630	1	1	-0.222978	-2.28116	-8.49372	-8.32868
 631	1	2	0.097895	0.604241	-8.32312	-6.70705
 632	1	3	0.054231	-3.81447	-9.91237	-5.95298
 633	1	3	0.054231	-2.16209	-9.56986	-5.35992
 634	1	4	-0.159568	-2.89633	-9.35152	-6.13714
 635	1	3	0.073528	-3.16012	-8.31479	-5.96307
 636	1	6	0.703056	-1.21691	-7.14361	-7.67019
 637	1	2	0.084378	0.441099	-6.66934	-6.03844
 638	1	4	-0.422828	-0.100916	-7.57533	-6.33129
 639	1	2	0.048873	0.261151	-6.34928	-9.41824
 640	1	2	0.084374	-1.23462	-5.35504	-9.28912
 641	1	4	-0.422813	-0.457669	-5.89125	-8.7358
 642	1	2	0.097892	0.0700364	-5.1844	-8.08578
 643	1	2	0.084729	-2.89039	-6.33351	-6.1026
 644	1	4	-0.400138	-2.28151	-5.9009	-6.89704
 645	1	2	0.084733	-1.6323	-5.13109	-6.46474
 646	1	2	0.073714	-2.91371	-5.44497	-7.66602
 647	1	1	0.037815	-0.694111	-10.9804	-8.73734
 648	1	2	0.048876	-4.12933	-11.7	-7.18122
 649	1	1	-0.222978	-1.54078	-10.7326	-7.67945
 650	1	2	0.097895	-3.46403	-13.1218	-8.06079
 651	1	3	0.054231	-1.15774	-11.5515	-10.8369
 652	1	3	0.054231	-2.45659	-10.8424	-9.99887
 653	1	4	-0.159568	-1.37756	-10.7907	-10.0933
 654	1	3	0.073528	-1.13884	-9.83773	-10.552
 655	1	6	0.703056	-1.87799	-12.1772	-6.58885
 656	1	2	0.084378	-3.97022	-13.2944	-6.35288
 657	1	4	-0.422828	-3.53644	-12.6136	-7.09449
 658	1	2	0.048873	-0.757646	-14.1438	-5.83087