pySIMM System Object

325 atoms
324 bonds
612 angles
795 dihedrals
0 impropers

7 atom types
8 bond types
13 angle types
5 dihedral types

-91.743747 91.743747 xlo xhi
-91.743747 91.743747 ylo yhi
-91.743747 91.743747 zlo zhi

Masses

   1	12.01	# c2
   2	1.008	# h1
   3	1.008	# hc
   4	12.01	# c3
   5	1.008	# ha
   6	32.06	# s6
   7	1.008	# h4

Pair Coeffs

   1	0.086	3.3996695084235347	# c2
   2	0.0157	2.471353044121301	# h1
   3	0.0157	2.649532787749369	# hc
   4	0.1094	3.3996695084235347	# c3
   5	0.015	2.59964245953351	# ha
   6	0.25	3.563594872561357	# s6
   7	0.015	2.5105525877194763	# h4

Bond Coeffs

   1	344.6	1.0868	# c2,h4
   2	343.1	1.0879	# c2,ha
   3	233.5	1.8075	# c3,s6
   4	569.4	1.3343	# c2,c2
   5	326.8	1.5095	# c2,c3
   6	263.2	1.76	# c2,s6
   7	330.6	1.0969	# c3,hc
   8	330.6	1.0969	# c3,h1

Angle Coeffs

   1	62.73	120.01	# c2,c2,s6
   2	45.94	115.68	# c3,c2,ha
   3	43.19	107.15	# h1,c3,s6
   4	46.99	110.36	# c2,c3,hc
   5	39.4	107.58	# hc,c3,hc
   6	60.63	104.05	# c2,s6,c3
   7	59.92	103.83	# c3,s6,c3
   8	42.79	115.45	# h4,c2,s6
   9	39.24	108.46	# h1,c3,h1
  10	64.06	123.63	# c2,c2,c3
  11	49.4	122.67	# c2,c2,h4
  12	49.85	120.43	# c2,c2,ha
  13	69.3	121.81	# c2,c2,c2

Dihedral Coeffs

   1	1	6.65	2	180	# X,c2,c2,X
   2	1	0.14444444444444446	3	0	# X,c3,s6,X
   3	1	0.0	2	0	# X,c2,c3,X
   4	3	0.38	3	180	0.0	2	0	1.15	1	0	# hc,c3,c2,c2
   5	1	6.6499999999999995	2	180	# X,c2,s6,X

Atoms

   1	1	1	0.037815	9.22119	-0.935282	-5.63996
   2	1	2	0.048876	7.98105	1.52389	-7.86775
   3	1	1	-0.222978	10.1931	-0.140142	-6.13277
   4	1	2	0.097895	7.75284	2.23033	-6.22269
   5	1	3	0.054231	8.16209	0.701005	-4.69698
   6	1	3	0.054231	7.28871	-0.0290149	-6.04465
   7	1	4	-0.159568	7.94876	-0.243811	-5.20325
   8	1	3	0.073528	7.42671	-0.818774	-4.43561
   9	1	6	0.703056	10.0307	1.56999	-6.62276
  10	1	2	0.084378	8.53279	3.19578	-7.50382
  11	1	4	-0.422828	8.40304	2.1847	-7.10167
  12	1	2	0.048873	10.3227	3.61354	-5.43715
  13	1	2	0.084374	9.55104	2.35743	-4.41519
  14	1	4	-0.422813	10.3373	2.55508	-5.1507
  15	1	2	0.097892	11.3174	2.28083	-4.74698
  16	1	2	0.084729	11.2138	1.53004	-8.68143
  17	1	4	-0.400138	11.3364	2.0786	-7.74049
  18	1	2	0.084733	11.2423	3.15722	-7.91079
  19	1	2	0.073714	12.3016	1.84335	-7.27843
  20	1	1	0.037815	8.34276	-3.06401	-5.00714
  21	1	2	0.048876	10.7891	-4.8344	-3.61217
  22	1	1	-0.222978	9.38856	-2.25978	-5.34983
  23	1	2	0.097895	10.4637	-5.2801	-5.33266
  24	1	3	0.054231	9.10979	-3.11798	-2.95306
  25	1	3	0.054231	7.4074	-3.4956	-3.08416
  26	1	4	-0.159568	8.37418	-3.62942	-3.58548
  27	1	3	0.073528	8.60351	-4.69969	-3.56996
  28	1	6	0.703056	11.0273	-2.96966	-5.10534
  29	1	2	0.084378	12.1475	-5.03942	-4.75567
  30	1	4	-0.422828	11.1073	-4.7116	-4.65237
  31	1	2	0.048873	12.852	-3.57124	-6.51661
  32	1	2	0.084374	11.591	-2.65397	-7.40942
  33	1	4	-0.422813	12.1672	-2.71599	-6.47988
  34	1	2	0.097892	12.744	-1.80003	-6.31347
  35	1	2	0.084729	12.8911	-2.37541	-3.74635
  36	1	4	-0.400138	11.8716	-1.98977	-3.85674
  37	1	2	0.084733	11.8879	-0.942662	-4.17569
  38	1	2	0.073714	11.3213	-2.09132	-2.91475
  39	1	1	0.037815	6.28601	-4.16554	-5.36197
  40	1	2	0.048876	6.85018	-0.921999	-8.09536
  41	1	1	-0.222978	7.22161	-3.26649	-5.77475
  42	1	2	0.097895	8.63286	-1.19741	-8.02399
  43	1	3	0.054231	6.18797	-6.21441	-6.09433
  44	1	3	0.054231	7.81452	-5.63658	-5.91092
  45	1	4	-0.159568	6.81982	-5.59627	-5.44866
  46	1	3	0.073528	6.94331	-6.08127	-4.48082
  47	1	6	0.703056	7.39153	-3.21325	-7.57704
  48	1	2	0.084378	7.69404	-1.75805	-9.42582
  49	1	4	-0.422828	7.6717	-1.60202	-8.34137
  50	1	2	0.048873	8.70056	-4.96941	-8.53003
  51	1	2	0.084374	9.4637	-3.36292	-8.77318
  52	1	4	-0.422813	8.93739	-4.00835	-8.06044
  53	1	2	0.097892	9.55336	-4.17541	-7.17634
  54	1	2	0.084729	6.42563	-4.25784	-9.47965
  55	1	4	-0.400138	6.05678	-4.01148	-8.4777
  56	1	2	0.084733	5.75933	-4.92325	-7.95202
  57	1	2	0.073714	5.21929	-3.31311	-8.54604
  58	1	1	0.037815	4.34789	-2.67039	-5.15305
  59	1	2	0.048876	5.97048	-5.81564	-2.74754
  60	1	1	-0.222978	4.96537	-3.89724	-5.04009
  61	1	2	0.097895	5.05285	-4.44473	-2.05665
  62	1	3	0.054231	4.35567	-0.732603	-6.13165
  63	1	3	0.054231	5.78843	-1.50923	-6.33387
  64	1	4	-0.159568	5.0251	-1.38662	-5.59082
  65	1	3	0.073528	5.37375	-0.814299	-4.72939
  66	1	6	0.703056	4.04568	-5.17989	-4.09409
  67	1	2	0.084378	4.41284	-6.11195	-1.93297
  68	1	4	-0.422828	4.97511	-5.41222	-2.56187
  69	1	2	0.048873	2.40769	-4.02419	-2.76062
  70	1	2	0.084374	1.64795	-4.75648	-4.2107
  71	1	4	-0.422813	2.38783	-4.89122	-3.4234
  72	1	2	0.097892	2.12144	-5.77692	-2.83612
  73	1	2	0.084729	3.50082	-7.48737	-3.94591
  74	1	4	-0.400138	4.13454	-6.90707	-4.62602
  75	1	2	0.084733	3.7468	-6.98612	-5.64724
  76	1	2	0.073714	5.15141	-7.29788	-4.56033
  77	1	1	0.037815	2.68943	-1.51541	-3.9751
  78	1	2	0.048876	2.11862	-5.48495	-6.0582
  79	1	1	-0.222978	3.0241	-2.41282	-4.97876
  80	1	2	0.097895	1.8668	-4.99645	-7.73534
  81	1	3	0.054231	2.99645	-2.0548	-1.8887
  82	1	3	0.054231	4.37155	-2.43512	-2.79834
  83	1	4	-0.159568	3.58486	-1.6812	-2.72892
  84	1	3	0.073528	4.11888	-0.775656	-2.44594
  85	1	6	0.703056	1.97415	-3.08784	-6.30533
  86	1	2	0.084378	3.49703	-4.81392	-7.01774
  87	1	4	-0.422828	2.42152	-4.76367	-6.81976
  88	1	2	0.048873	-0.234763	-3.40872	-7.10509
  89	1	2	0.084374	-0.117371	-3.6403	-5.32774
  90	1	4	-0.422813	0.192934	-3.01883	-6.17433
  91	1	2	0.097892	-0.10511	-1.98685	-6.02652
  92	1	2	0.084729	3.55735	-2.20342	-7.86912
  93	1	4	-0.400138	2.48848	-2.42999	-7.91152
  94	1	2	0.084733	2.29591	-3.17106	-8.69482
  95	1	2	0.073714	1.90812	-1.53382	-8.14652
  96	1	1	0.037815	1.08242	0.0193439	-4.98165
  97	1	2	0.048876	1.51854	0.566743	-0.0104387
  98	1	1	-0.222978	1.65581	-0.589689	-3.90281
  99	1	2	0.097895	1.37568	-1.1278	-0.579391
 100	1	3	0.054231	2.41199	-0.26198	-6.64846
 101	1	3	0.054231	1.876	1.33628	-6.60838
 102	1	4	-0.159568	2.14078	0.518256	-5.95747
 103	1	3	0.073528	3.04501	0.846628	-5.43038
 104	1	6	0.703056	1.47336	0.438128	-2.38904
 105	1	2	0.084378	2.96644	-0.261912	-0.624858
 106	1	4	-0.422828	1.88182	-0.169029	-0.737386
 107	1	2	0.048873	3.773	1.16556	-2.74562
 108	1	2	0.084374	2.58102	2.25642	-3.47762
 109	1	4	-0.422813	2.80588	1.64695	-2.59897
 110	1	2	0.097892	2.83905	2.28182	-1.70666
 111	1	2	0.084729	-0.593001	1.58665	-2.93821
 112	1	4	-0.400138	0.171725	1.66672	-2.17742
 113	1	2	0.084733	-0.257839	1.50396	-1.18614
 114	1	2	0.073714	0.609853	2.66927	-2.19175
 115	1	1	0.037815	-1.32382	-0.18415	-4.55126
 116	1	2	0.048876	1.82552	3.00407	-5.45013
 117	1	1	-0.222978	-0.21965	0.476591	-5.07037
 118	1	2	0.097895	0.625967	4.2997	-5.66472
 119	1	3	0.054231	-1.06226	-0.958288	-2.52585
 120	1	3	0.054231	-0.305868	-1.97696	-3.75339
 121	1	4	-0.159568	-1.15163	-1.31972	-3.55396
 122	1	3	0.073528	-1.98895	-1.99261	-3.60373
 123	1	6	0.703056	-0.471218	2.18527	-5.72805
 124	1	2	0.084378	0.739041	3.46219	-4.10501
 125	1	4	-0.422828	0.820265	3.3341	-5.18525
 126	1	2	0.048873	-1.19107	2.44074	-8.00993
 127	1	2	0.084374	0.257044	3.41183	-7.66348
 128	1	4	-0.422813	-0.219608	2.43742	-7.50997
 129	1	2	0.097892	0.409008	1.66073	-7.94932
 130	1	2	0.084729	-1.92105	4.05581	-5.63865
 131	1	4	-0.400138	-2.00943	3.01333	-5.31189
 132	1	2	0.084733	-2.84268	2.54247	-5.82204
 133	1	2	0.073714	-2.14416	2.97287	-4.22655
 134	1	1	0.037815	-3.84525	-0.276398	-4.52587
 135	1	2	0.048876	-3.25832	2.08799	-7.77036
 136	1	1	-0.222978	-2.59099	0.00732764	-5.06522
 137	1	2	0.097895	-3.44023	0.784679	-8.969
 138	1	3	0.054231	-4.61713	1.43528	-5.62672
 139	1	3	0.054231	-5.67467	0.887181	-4.45086
 140	1	4	-0.159568	-4.97271	0.499609	-5.19419
 141	1	3	0.073528	-5.5297	-0.0497809	-5.95148
 142	1	6	0.703056	-2.59908	-0.0904259	-6.92313
 143	1	2	0.084378	-4.66068	0.969275	-7.69967
 144	1	4	-0.422828	-3.59474	1.05865	-7.91915
 145	1	2	0.048873	-1.15393	0.093981	-8.82042
 146	1	2	0.084374	-0.193544	-0.248471	-7.35046
 147	1	4	-0.422813	-1.11312	-0.470902	-7.88204
 148	1	2	0.097892	-1.13307	-1.54045	-8.11524
 149	1	2	0.084729	-3.38284	-2.33222	-6.65161
 150	1	4	-0.400138	-3.61515	-1.51992	-7.34912
 151	1	2	0.084733	-4.67514	-1.269	-7.32441
 152	1	2	0.073714	-3.35931	-1.81999	-8.37171
 153	1	1	0.037815	-3.77742	-0.509848	-2.08078
 154	1	2	0.048876	-6.82357	-3.40848	-4.91096
 155	1	1	-0.222978	-4.26384	-0.829644	-3.32466
 156	1	2	0.097895	-5.74341	-2.27524	-5.77157
 157	1	3	0.054231	-2.68369	1.24875	-2.86431
 158	1	3	0.054231	-2.21926	0.739936	-1.25037
 159	1	4	-0.159568	-3.06386	0.836422	-1.93513
 160	1	3	0.073528	-3.7079	1.6253	-1.54743
 161	1	6	0.703056	-5.82361	-1.8366	-3.41702
 162	1	2	0.084378	-5.05213	-3.63308	-4.83913
 163	1	4	-0.422828	-5.85556	-2.89452	-4.88035
 164	1	2	0.048873	-6.12333	-3.72564	-1.94091
 165	1	2	0.084374	-6.27394	-2.17119	-1.04951
 166	1	4	-0.422813	-6.50393	-2.70287	-1.97553
 167	1	2	0.097892	-7.59094	-2.75509	-2.09715
 168	1	2	0.084729	-7.26064	-0.730952	-5.04318
 169	1	4	-0.400138	-7.30612	-0.940691	-3.97248
 170	1	2	0.084733	-8.17325	-1.58702	-3.80072
 171	1	2	0.073714	-7.42925	-0.0152719	-3.40696
 172	1	1	0.037815	-3.83337	-0.7733	0.343244
 173	1	2	0.048876	-3.56782	-4.23508	0.995866
 174	1	1	-0.222978	-3.87163	-1.28565	-0.944874
 175	1	2	0.097895	-5.20853	-4.01315	0.272139
 176	1	3	0.054231	-2.68267	-2.31633	1.45632
 177	1	3	0.054231	-3.43362	-1.17561	2.49623
 178	1	4	-0.159568	-3.57712	-1.69899	1.54658
 179	1	3	0.073528	-4.45189	-2.33121	1.73104
 180	1	6	0.703056	-3.516	-3.08492	-1.14715
 181	1	2	0.084378	-4.08865	-5.2563	-0.363931
 182	1	4	-0.422828	-4.15817	-4.25452	0.0752137
 183	1	2	0.048873	-2.69563	-4.67579	-2.73026
 184	1	2	0.084374	-4.45988	-4.53401	-2.80768
 185	1	4	-0.422813	-3.52972	-3.9642	-2.72808
 186	1	2	0.097892	-3.43774	-3.29095	-3.57397
 187	1	2	0.084729	-1.57616	-4.07441	-0.136323
 188	1	4	-0.400138	-1.74877	-3.20009	-0.773942
 189	1	2	0.084733	-1.19452	-3.31702	-1.71019
 190	1	2	0.073714	-1.42156	-2.28447	-0.270672
 191	1	1	0.037815	-3.25238	1.15539	1.60721
 192	1	2	0.048876	-5.53888	3.31684	1.55059
 193	1	1	-0.222978	-4.12695	0.500522	0.771123
 194	1	2	0.097895	-5.41109	3.58953	-0.218202
 195	1	3	0.054231	-1.37464	0.7347	2.64311
 196	1	3	0.054231	-1.53857	-0.226103	1.19288
 197	1	4	-0.159568	-1.76581	0.753374	1.62039
 198	1	3	0.073528	-1.14501	1.44872	1.05255
 199	1	6	0.703056	-5.69254	1.29112	0.296945
 200	1	2	0.084378	-7.00365	3.24939	0.523803
 201	1	4	-0.422828	-5.92813	3.04395	0.575615
 202	1	2	0.048873	-7.38751	1.37198	-1.35629
 203	1	2	0.084374	-5.76588	1.27198	-2.09331
 204	1	4	-0.422813	-6.40311	0.893885	-1.29059
 205	1	2	0.097892	-6.51889	-0.18345	-1.33532
 206	1	2	0.084729	-7.96393	0.657424	0.701824
 207	1	4	-0.400138	-7.00886	0.450806	1.1976
 208	1	2	0.084733	-6.80442	-0.625908	1.19387
 209	1	2	0.073714	-7.05513	0.841002	2.21546
 210	1	1	0.037815	-4.33658	2.03975	3.57414
 211	1	2	0.048876	-0.613326	4.75951	2.2123
 212	1	1	-0.222978	-3.52834	2.17645	2.46897
 213	1	2	0.097895	-1.2015	4.10459	3.75968
 214	1	3	0.054231	-5.17017	0.0633348	3.01579
 215	1	3	0.054231	-4.56018	0.144095	4.63431
 216	1	4	-0.159568	-5.0707	0.730755	3.86503
 217	1	3	0.073528	-6.08618	0.916675	4.22839
 218	1	6	0.703056	-2.74706	3.74086	2.02438
 219	1	2	0.084378	-0.515702	2.99163	2.51385
 220	1	4	-0.422828	-1.09397	3.90078	2.69552
 221	1	2	0.048873	-1.77192	4.76189	0.0971687
 222	1	2	0.084374	-1.9013	2.98899	-0.113621
 223	1	4	-0.422813	-2.40661	3.88263	0.256507
 224	1	2	0.097892	-3.3546	4.01838	-0.269658
 225	1	2	0.084729	-3.51896	5.19098	3.74007
 226	1	4	-0.400138	-3.52148	5.22941	2.65069
 227	1	2	0.084733	-2.92893	6.08444	2.30596
 228	1	2	0.073714	-4.53521	5.2951	2.24598
 229	1	1	0.037815	-3.21602	2.7277	5.5761
 230	1	2	0.048876	-6.31385	2.88228	7.10743
 231	1	1	-0.222978	-4.2724	2.82754	4.68827
 232	1	2	0.097895	-7.69505	3.71943	6.34444
 233	1	3	0.054231	-1.59073	1.38577	6.15715
 234	1	3	0.054231	-2.46209	0.80343	4.77982
 235	1	4	-0.159568	-2.10237	1.72111	5.25148
 236	1	3	0.073528	-1.33939	2.13124	4.59307
 237	1	6	0.703056	-5.75332	3.81516	4.98653
 238	1	2	0.084378	-7.21153	2.0915	5.76598
 239	1	4	-0.422828	-6.85177	3.04037	6.17481
 240	1	2	0.048873	-6.40148	5.88928	5.95509
 241	1	2	0.084374	-5.03047	5.10824	6.79358
 242	1	4	-0.422813	-5.449	5.36189	5.82859
 243	1	2	0.097892	-4.75144	5.97006	5.24535
 244	1	2	0.084729	-7.80933	4.45391	3.99522
 245	1	4	-0.400138	-6.88124	4.01845	3.60856
 246	1	2	0.084733	-6.43721	4.70035	2.87975
 247	1	2	0.073714	-7.08183	3.03556	3.17002
 248	1	1	0.037815	-3.75542	2.27623	7.85751
 249	1	2	0.048876	-0.222488	4.4324	9.11828
 250	1	1	-0.222978	-3.22048	3.11734	6.89738
 251	1	2	0.097895	-1.68371	5.36666	9.44049
 252	1	3	0.054231	-5.17619	1.20832	6.55986
 253	1	3	0.054231	-3.75095	0.304312	6.86587
 254	1	4	-0.159568	-4.44552	0.996423	7.33099
 255	1	3	0.073528	-5.02392	0.443036	8.07777
 256	1	6	0.703056	-1.79697	4.15386	7.3701
 257	1	2	0.084378	-1.6761	3.57783	9.70258
 258	1	4	-0.422828	-1.31658	4.40329	9.08836
 259	1	2	0.048873	0.545808	4.3496	6.97596
 260	1	2	0.084374	0.0087888	2.65042	6.88965
 261	1	4	-0.422813	-0.23444	3.6748	6.60454
 262	1	2	0.097892	-0.299268	3.77604	5.52285
 263	1	2	0.084729	-1.99758	5.46493	5.38282
 264	1	4	-0.400138	-1.85092	5.70145	6.44068
 265	1	2	0.084733	-2.66835	6.335	6.79367
 266	1	2	0.073714	-0.897462	6.22353	6.58103
 267	1	1	0.037815	-3.90355	1.34905	10.0727
 268	1	2	0.048876	-3.8141	5.56365	8.21262
 269	1	1	-0.222978	-3.87637	2.44923	9.22627
 270	1	2	0.097895	-5.12015	6.24676	9.21245
 271	1	3	0.054231	-4.58942	1.63105	12.1417
 272	1	3	0.054231	-5.84191	1.95537	10.93
 273	1	4	-0.159568	-4.97766	1.3363	11.161
 274	1	3	0.073528	-5.46293	0.376885	11.2727
 275	1	6	0.703056	-4.55044	4.03504	9.90339
 276	1	2	0.084378	-3.47665	6.15538	9.86836
 277	1	4	-0.422828	-4.19728	5.65541	9.214
 278	1	2	0.048873	-6.85602	4.63418	10.1262
 279	1	2	0.084374	-6.358	4.54315	8.41566
 280	1	4	-0.422813	-6.28173	4.05714	9.39176
 281	1	2	0.097892	-6.66565	3.03493	9.32654
 282	1	2	0.084729	-5.52613	3.71297	12.0966
 283	1	4	-0.400138	-4.69642	4.29787	11.6893
 284	1	2	0.084733	-3.75687	4.05212	12.1868
 285	1	2	0.073714	-4.9178	5.35993	11.8439
 286	1	1	0.037815	-2.02889	0.135113	9.13642
 287	1	2	0.048876	-4.54298	-0.569351	12.826
 288	1	1	-0.222978	-3.14507	0.198928	9.90932
 289	1	2	0.097895	-4.08133	-2.28801	12.8776
 290	1	3	0.054231	-1.13647	-1.68628	8.29608
 291	1	3	0.054231	-2.89064	-1.57917	8.04662
 292	1	4	-0.159568	-1.9645	-0.994622	8.09557
 293	1	3	0.073528	-1.81126	-0.614849	7.08196
 294	1	6	0.703056	-3.47816	-1.3801	10.7651
 295	1	2	0.084378	-2.82507	-1.03456	13.0371
 296	1	4	-0.422828	-3.77242	-1.28915	12.5496
 297	1	2	0.048873	-5.12212	-3.08608	10.522
 298	1	2	0.084374	-5.90056	-1.49104	10.678
 299	1	4	-0.422813	-5.06998	-2.03331	10.2213
 300	1	2	0.097892	-5.11569	-1.95319	9.13
 301	1	2	0.084729	-2.53314	-3.49454	11.2967
 302	1	4	-0.400138	-2.29467	-2.72349	10.5553
 303	1	2	0.084733	-2.3952	-3.14931	9.55246
 304	1	2	0.073714	-1.28364	-2.33962	10.725
 305	1	1	0.037815	0.190475	0.687685	8.58944
 306	1	2	0.048876	0.743859	3.43223	10.745
 307	1	1	-0.222978	-0.849425	0.753394	9.45792
 308	1	2	0.097895	0.818704	2.85749	12.4379
 309	1	3	0.054231	2.16652	0.593774	9.48751
 310	1	3	0.054231	2.14881	1.0404	7.78535
 311	1	4	-0.159568	1.61581	1.17259	8.73547
 312	1	3	0.073528	1.66999	2.24378	8.95523
 313	1	6	0.703056	-0.510506	1.42012	11.1054
 314	1	2	0.084378	1.81275	2.04843	11.1982
 315	1	4	-0.422828	0.861092	2.55393	11.3857
 316	1	2	0.048873	-1.38253	2.09656	13.2063
 317	1	2	0.084374	-2.35844	2.67406	11.8165
 318	1	4	-0.422813	-1.82535	1.82531	12.2412
 319	1	2	0.097892	-2.47405	0.960778	12.3627
 320	1	2	0.084729	-0.544241	-0.390787	12.6777
 321	1	4	-0.400138	0.166818	-0.0402238	11.9219
 322	1	2	0.084733	0.331623	-0.818599	11.1688
 323	1	2	0.073714	1.11789	0.220745	12.3995
 324	1	7	0	11.1746	-0.495974	-6.39012
 325	1	5	0	0.0686533	0.261929	7.59886

Velocities

   1	-0.000238932	-0.0001171	0.000379112
   2	0.00272639	-0.00178419	-0.00167656
   3	0.000115705	-0.000457308	0.00119236
   4	0.000491083	-0.00137803	-0.00214861
   5	0.000771451	0.000169212	0.000256867
   6	-0.00037483	0.000339035	0.000771066
   7	-7.42524e-05	0.000304686	0.00041108
   8	0.00072063	0.000161938	0.000727856
   9	0.00109575	-0.000830984	0.000347559
  10	0.0019069	-0.00151224	-0.00155201
  11	0.00157824	-0.00130343	-0.00128066
  12	0.00309624	-0.00165104	0.00142382
  13	0.00365812	-0.00198737	0.00132929
  14	0.00271805	-0.00171997	0.000510646
  15	0.00304442	-0.00257986	-0.000470648
  16	0.00127347	0.000393512	-0.0003435
  17	0.00126716	-0.000397117	0.000263309
  18	0.000884827	-0.000330377	0.00102046
  19	0.00181803	-0.000384037	-0.000414688
  20	-0.000292714	-0.000592108	0.000172854
  21	0.001099	0.000802571	0.000458922
  22	-0.000399192	-4.26447e-05	0.000517317
  23	0.000636672	0.000840613	0.00076623
  24	-5.47391e-06	-0.000113675	0.000394737
  25	-0.000429086	0.00164837	0.000392765
  26	-0.000497866	0.000229049	0.000577535
  27	-0.00138044	8.38073e-05	0.00154054
  28	-6.52915e-05	0.000495754	0.000450998
  29	0.000730794	0.00133516	1.16339e-06
  30	0.000762388	0.00084684	0.000337942
  31	0.000310708	0.00264084	-0.00116318
  32	-0.002787	-0.000700895	-0.000312811
  33	-0.0013228	0.000963993	-0.000956902
  34	-0.00282616	0.00233129	-0.00259693
  35	0.000881512	-0.000195784	-0.000164255
  36	0.0010719	0.000504994	-5.86364e-05
  37	0.00199843	0.0003468	-0.000212408
  38	0.00168071	0.00123817	0.000257438
  39	-0.000317769	-0.000298197	-4.7833e-06
  40	0.00199079	0.000243486	0.000745798
  41	-0.000342505	-0.000506888	4.34512e-05
  42	0.00172037	-0.00211423	-0.000352835
  43	-0.000369068	-0.000871262	0.000636414
  44	-0.000480053	-0.000471749	-0.000628207
  45	-0.000215911	-0.000415424	2.78209e-05
  46	0.000543077	-0.000142245	0.000116347
  47	-0.000566882	-0.000395077	7.62153e-05
  48	0.000158706	-0.00081046	0.000104112
  49	0.000950786	-0.00070723	0.000133755
  50	-0.00178808	-0.00209082	0.0014013
  51	-0.0012597	-0.00274603	-0.000801633
  52	-0.00117143	-0.00160694	0.000193129
  53	-0.000839962	-0.000783378	9.9184e-05
  54	-0.00220067	0.00469108	-0.00189774
  55	-0.000844112	0.000504679	-0.00036961
  56	0.00162767	-0.00188873	-0.0031845
  57	-0.00223453	-0.000753462	0.00352539
  58	-8.00015e-05	0.000186866	-0.00048953
  59	0.000275311	0.00244731	-3.86689e-05
  60	-0.000300658	2.95881e-05	-0.000349258
  61	-0.00101528	0.00160114	-0.000189157
  62	0.000454731	0.000816331	0.00068095
  63	0.000207673	0.000301316	-5.56911e-05
  64	0.00026259	0.000151303	0.000107643
  65	0.000801744	-0.00063048	0.000410873
  66	-0.000221287	0.000484916	-0.000134509
  67	0.000551686	0.00102748	0.000108141
  68	-0.000145122	0.00137539	-2.63617e-05
  69	-0.00060836	0.000959736	-0.00115719
  70	-0.000220605	-0.000597776	-0.000577154
  71	-0.00027494	0.000354481	-0.000374495
  72	6.49362e-05	0.000812173	0.000370405
  73	-0.00335954	0.000963343	-0.00339107
  74	0.00035834	0.000629612	-0.000182481
  75	0.00520779	0.00156666	-0.00212564
  76	-6.95718e-05	4.70114e-05	0.0044511
  77	0.000211708	1.46937e-05	-0.000199377
  78	0.000680659	-2.21839e-05	-0.00100459
  79	-0.000308086	0.000511816	-0.00018803
  80	0.000711143	0.000577372	-0.000927486
  81	0.000661124	-0.000121359	-0.000353052
  82	0.00082782	0.00102411	-0.00069392
  83	0.000264734	0.000505602	-0.000324016
  84	-3.3926e-05	0.00058973	-7.61911e-06
  85	-0.000360623	4.55284e-05	7.16533e-05
  86	0.000521439	0.000907568	-0.00058457
  87	0.000439497	0.000406623	-0.000704043
  88	-0.000311883	-0.00174539	0.000986353
  89	-7.2309e-05	0.000923384	0.00137464
  90	-0.000361108	-0.000259398	0.000415721
  91	-0.000497842	-6.76299e-05	-0.00109957
  92	-0.00250611	0.00372324	-0.000312978
  93	-0.00206521	0.00170346	0.000262044
  94	-0.00125051	0.00188833	-5.92401e-05
  95	-0.00402862	0.000858039	0.00138841
  96	0.000256005	-1.97779e-05	0.000349759
  97	-0.000674811	-0.00118786	0.000338808
  98	-0.000611575	0.000359964	-7.73002e-05
  99	-0.00121177	-0.00100926	-0.000134236
 100	0.000767086	0.00131977	0.00056209
 101	7.32631e-05	0.00113194	0.00102946
 102	1.50235e-05	0.000931207	0.000733351
 103	-0.000207962	0.000899751	0.00136238
 104	-0.000589459	-0.000420236	0.00038016
 105	-0.00097556	-0.00150762	0.000254726
 106	-0.000900827	-0.00106521	0.000175207
 107	-0.000505404	6.31806e-05	0.0012758
 108	-0.000594779	0.000141897	0.00158404
 109	-0.000646608	-0.000299251	0.00126849
 110	-0.0010252	-0.000862657	0.0017195
 111	0.000298257	0.00137829	-0.000401682
 112	-0.000312242	-5.53415e-05	0.000387704
 113	-0.00117364	-0.000894934	-0.00016734
 114	0.000289081	-0.000285915	0.00199582
 115	0.000432177	0.000161621	0.000181535
 116	-0.00108605	0.00115714	0.000690708
 117	-0.000942466	6.65146e-05	0.000263056
 118	-0.00181478	0.000572728	0.00146816
 119	-0.00039504	0.000144508	0.000153652
 120	-0.000169547	0.000246211	0.000180812
 121	-0.000336167	0.000111706	0.000168913
 122	-0.0001436	0.000109671	7.96836e-05
 123	-0.000779199	0.000153016	0.000845338
 124	-0.00103406	-1.63551e-05	0.00109922
 125	-0.00118629	0.000472963	0.000983279
 126	-0.00152826	-0.00331616	0.000790473
 127	-0.00525259	0.0021457	0.000702187
 128	-0.00156271	0.000363177	0.00088302
 129	0.00111852	0.00240268	0.00115098
 130	-0.00193844	-0.000586637	0.000247573
 131	-0.00102809	-0.000322052	0.00121355
 132	-0.00116198	-0.00125422	0.00229052
 133	-0.000231115	0.000667433	0.00137399
 134	0.000315559	0.000439134	-0.000634951
 135	-0.000493439	-0.000949726	0.00152363
 136	-0.00105998	-0.000166062	0.000235583
 137	0.00216642	6.0626e-05	-8.30402e-05
 138	-0.00115155	-0.00104043	-0.00147274
 139	-0.000677531	-0.000417275	-0.000911112
 140	-0.000660283	-0.000834932	-0.000543247
 141	-0.000597163	-0.00156386	-0.000115395
 142	-4.23491e-05	-0.00106763	0.000125184
 143	0.000163015	-0.00204227	-0.00151824
 144	0.000369316	-0.000991257	-2.18043e-05
 145	-0.00086124	8.1275e-05	-5.45294e-05
 146	-9.7465e-05	0.000758514	-0.000496145
 147	-0.000103013	-6.03629e-05	-0.000155688
 148	0.000517026	-4.67637e-05	-0.000364965
 149	0.00122369	-0.00138548	0.00127439
 150	0.000287332	-0.00171693	0.00108542
 151	0.000238429	-0.00226489	0.0018675
 152	-0.00045253	-0.00203245	0.00105407
 153	-0.000149481	0.00085171	-0.00104283
 154	0.000927176	-0.000717622	0.000710326
 155	-0.000244838	0.000333533	0.00123154
 156	0.000281206	-0.000110739	0.000781244
 157	-0.00109923	0.00131813	-0.000567644
 158	-0.000639542	0.00200946	-0.000543959
 159	-0.000649507	0.00125357	-0.000210653
 160	-0.000836227	0.00113156	-0.000273245
 161	-0.000113467	0.000243337	0.000561239
 162	0.0010151	0.00043759	0.000734135
 163	0.000506815	-5.57233e-05	0.000809689
 164	0.000536529	0.000537677	0.00144137
 165	-0.000851901	0.00078902	0.00070554
 166	-5.2312e-05	0.000270861	0.000787867
 167	2.49524e-05	-0.000637646	0.000327069
 168	-0.000643779	-9.41003e-05	0.000832357
 169	-0.00039163	-0.000177788	0.000788024
 170	-0.000203817	-0.000421604	0.000899397
 171	-0.000538912	-0.000248734	0.000929516
 172	0.000360732	-0.000710861	-0.00109888
 173	0.00043545	0.00037819	-0.000128305
 174	0.000223265	0.000666646	0.00127749
 175	0.000168041	-0.00012508	0.000302449
 176	0.0012446	0.000482105	-0.00062225
 177	0.00102455	1.35357e-05	-0.000158283
 178	0.000974255	0.00025257	-3.46006e-05
 179	0.0012585	-0.000169712	-2.7138e-05
 180	-0.000309168	0.000357665	-0.000240767
 181	0.000436717	0.000253747	-1.70496e-05
 182	0.000190404	0.000241446	3.32955e-05
 183	-0.000526591	0.000797793	-0.000674454
 184	-0.00056527	0.000599292	-6.44188e-05
 185	-0.000568627	0.000633523	-0.000133414
 186	-0.000777668	0.00100286	0.000116687
 187	-0.000164275	-0.000373373	-0.00166193
 188	-0.000252797	-7.21891e-05	-0.00118757
 189	-0.000913059	-1.8612e-05	-0.00161085
 190	0.000325828	-0.000345501	-0.00116497
 191	0.000447485	-0.000801032	-0.000971042
 192	0.00160304	0.000741482	4.22175e-06
 193	0.00066198	0.00128362	0.000897964
 194	0.00104241	0.000118354	-0.000128588
 195	0.000695005	-0.003018	-0.00120745
 196	0.000669731	0.00106617	-0.00404538
 197	0.000817464	3.54418e-05	-0.0010408
 198	0.00103895	0.00124402	0.000783533
 199	0.000438657	0.000313705	0.000350694
 200	0.00124216	0.00106109	0.000567327
 201	0.00111199	0.000596834	0.000240297
 202	0.000876343	0.000384347	-0.000165449
 203	0.00102753	0.000494663	0.0003116
 204	0.000883833	0.000542714	0.000301427
 205	0.00108878	0.000485113	0.000320139
 206	0.000248216	0.000135124	-0.000973864
 207	-5.298e-05	0.00039069	-0.000256809
 208	8.56564e-05	0.000403948	0.000165274
 209	-0.000877436	0.000647005	-0.000405192
 210	-0.000147356	-3.5776e-05	-0.00078601
 211	0.00161989	-0.00194223	-3.294e-05
 212	0.00069716	0.000198206	0.000651627
 213	0.000606498	8.75337e-05	0.000433897
 214	0.000650348	-0.000458036	-0.000564011
 215	-0.00275987	0.00118102	0.00055883
 216	-0.00109243	0.000478649	-0.00100605
 217	-0.00185823	0.00097075	-0.00335115
 218	0.000631574	-0.000123442	0.000855621
 219	-0.000230876	-0.00175899	0.00176164
 220	0.000690332	-0.000946752	0.000635728
 221	-0.000388682	0.00082098	0.000813495
 222	0.00142542	0.000706425	0.000902388
 223	0.000518443	0.000205275	0.000873672
 224	0.00041483	-0.000895609	0.000829584
 225	0.00165859	4.23303e-05	0.0014679
 226	0.00100137	2.78107e-05	0.00142245
 227	0.000964933	-7.2665e-05	0.00110548
 228	0.000800886	0.0002741	0.00214596
 229	0.000159006	-0.000458621	-0.000541264
 230	0.000656477	-0.00157536	-0.000372781
 231	-0.000114308	-0.000298013	-0.000282692
 232	0.000272767	-0.00157186	0.000618378
 233	-1.73791e-06	-0.0010196	-0.000996031
 234	-0.000598805	-0.000490722	-0.00098946
 235	-0.000187753	-0.000684452	-0.000745177
 236	-0.000151121	-0.000862077	-0.000822164
 237	-0.000282425	-0.000830447	-0.000252087
 238	0.000236301	-0.00129001	-0.000334957
 239	0.000234982	-0.00135764	-0.000123793
 240	-0.0011106	-0.00166294	0.000708129
 241	-0.00067103	-0.00173231	-0.00011987
 242	-0.000834812	-0.00110292	0.000186402
 243	-0.00119	-0.000566996	0.000364561
 244	-5.13779e-05	-9.62402e-05	-0.000295202
 245	-0.00017576	-0.000289067	-0.000316487
 246	0.000127017	-0.000209524	-5.3715e-05
 247	-0.000392693	-7.79773e-05	-0.000635998
 248	0.000411189	-0.000191005	-0.000814582
 249	6.87184e-05	0.00015027	-0.000277321
 250	3.94021e-05	-0.000745904	-6.66556e-05
 251	-4.8785e-05	-0.000103657	-0.000412754
 252	0.00086926	-0.000489612	-0.000933662
 253	-0.000219442	-0.00106687	0.0007317
 254	-7.12386e-05	-0.000435811	-9.15766e-05
 255	-0.00105684	0.000607871	-0.000307458
 256	9.51162e-05	-0.000420636	-0.000264438
 257	0.000233613	-8.00091e-06	-8.08752e-05
 258	6.52131e-05	-0.000104372	-0.000267906
 259	1.7861e-05	-0.000486894	-0.000367946
 260	2.75304e-05	-0.000546479	0.000590757
 261	5.66746e-05	-0.000724863	2.81522e-05
 262	0.000129905	-0.00148951	6.91983e-07
 263	0.00157108	-0.000708061	-0.000489589
 264	0.000373052	-0.000562595	-0.000354444
 265	-0.000262679	-0.000913117	-0.00127368
 266	1.40505e-05	-0.000166902	0.000581156
 267	-0.000174755	0.000543139	-0.000550004
 268	-0.00100962	3.36661e-05	-0.00156688
 269	0.000149055	-0.000737176	0.000320051
 270	-0.000409154	-0.000424011	-0.000263556
 271	-0.000282801	-0.00127414	1.67984e-05
 272	0.000149691	0.000468838	0.00033509
 273	-0.000348648	-0.000284559	-0.000167461
 274	-0.000938028	-6.91599e-05	-0.00148203
 275	0.00092186	4.49175e-05	-0.000547155
 276	0.000296079	0.000531968	-0.00210034
 277	-0.000107041	4.39066e-05	-0.00119644
 278	0.00100769	-0.000324332	-0.000211067
 279	0.000382732	-0.00236998	-0.000380584
 280	0.000783954	-0.00107941	0.000168079
 281	0.0010412	-0.00128523	0.00144328
 282	0.00242695	-0.000253777	0.000200026
 283	0.00122406	0.000690468	-0.000562511
 284	0.00190823	0.00294256	-0.000864286
 285	-0.000468237	0.000529193	-0.00151415
 286	-8.16289e-05	1.40017e-05	-6.89407e-05
 287	-0.00181297	-9.7617e-05	-0.00135635
 288	-0.000216244	-0.000528697	-0.000148509
 289	-0.0012585	4.1942e-05	-0.000528358
 290	0.000923605	0.000747957	-0.000342835
 291	0.000590108	-0.00120168	0.000515564
 292	-1.65629e-05	-0.000162209	-2.4005e-05
 293	-0.000817178	-8.28937e-05	-0.000314131
 294	-0.000503959	-0.000257548	-0.00049472
 295	-0.00162829	0.000644973	-0.000426878
 296	-0.00131532	4.71634e-05	-0.000731972
 297	-7.57032e-05	-0.000895428	-0.000266422
 298	-0.000438873	-0.00100607	-0.001668
 299	-8.87213e-05	-0.00104445	-0.000904901
 300	0.000184247	-0.00190484	-0.00101593
 301	0.00111379	0.000126381	-0.000343966
 302	0.000378849	0.00037226	-0.000306869
 303	0.000818599	0.000151823	-0.000277169
 304	0.000100271	0.00122126	-0.000380462
 305	-0.000880311	0.00100825	-0.000769828
 306	0.00154148	0.000859762	-0.000713206
 307	-0.000886178	0.000625334	-3.89087e-05
 308	0.00217659	0.000126171	-0.000969975
 309	-0.00318731	0.00373741	0.00334244
 310	0.000769045	-0.00387162	0.0013073
 311	-0.00128901	0.000722946	-0.000332997
 312	-0.00159285	0.0019227	-0.00477072
 313	-3.45445e-05	0.00141184	-0.000397157
 314	0.000572547	-0.000174561	-0.00177701
 315	0.00087384	0.000366809	-0.00104049
 316	0.00124514	0.00149178	0.000106376
 317	-0.00016936	0.00121983	0.00112031
 318	0.000426165	0.00129629	0.000486385
 319	0.000542467	0.00132019	0.001298
 320	-0.00258044	-0.000777443	-0.00318337
 321	-0.000707737	0.00143094	-0.000468726
 322	0.002873	0.00253464	-0.00109968
 323	-0.00255531	0.00220295	0.00293819
 324	0.000368596	-0.000520387	0.00281994
 325	-0.00108597	0.00135298	-0.000733163

Bonds

   1	4	1	3
   2	5	1	7
   3	8	2	11
   4	6	3	9
   5	8	4	11
   6	7	5	7
   7	7	6	7
   8	7	7	8
   9	3	9	11
  10	3	9	14
  11	3	9	17
  12	8	10	11
  13	8	12	14
  14	8	13	14
  15	8	14	15
  16	8	16	17
  17	8	17	18
  18	8	17	19
  19	4	20	22
  20	5	20	26
  21	8	21	30
  22	6	22	28
  23	8	23	30
  24	7	24	26
  25	7	25	26
  26	7	26	27
  27	3	28	30
  28	3	28	33
  29	3	28	36
  30	8	29	30
  31	8	31	33
  32	8	32	33
  33	8	33	34
  34	8	35	36
  35	8	36	37
  36	8	36	38
  37	4	1	22
  38	4	39	41
  39	5	39	45
  40	8	40	49
  41	6	41	47
  42	8	42	49
  43	7	43	45
  44	7	44	45
  45	7	45	46
  46	3	47	49
  47	3	47	52
  48	3	47	55
  49	8	48	49
  50	8	50	52
  51	8	51	52
  52	8	52	53
  53	8	54	55
  54	8	55	56
  55	8	55	57
  56	4	20	41
  57	4	58	60
  58	5	58	64
  59	8	59	68
  60	6	60	66
  61	8	61	68
  62	7	62	64
  63	7	63	64
  64	7	64	65