pySIMM System Object

629 atoms
628 bonds
1188 angles
1547 dihedrals
0 impropers

7 atom types
8 bond types
13 angle types
5 dihedral types

-115.589878 115.589878 xlo xhi
-115.589878 115.589878 ylo yhi
-115.589878 115.589878 zlo zhi

Masses

   1	12.01	# c2
   2	1.008	# h1
   3	1.008	# hc
   4	12.01	# c3
   5	1.008	# ha
   6	32.06	# s6
   7	1.008	# h4

Pair Coeffs

   1	0.086	3.3996695084235347	# c2
   2	0.0157	2.471353044121301	# h1
   3	0.0157	2.649532787749369	# hc
   4	0.1094	3.3996695084235347	# c3
   5	0.015	2.59964245953351	# ha
   6	0.25	3.563594872561357	# s6
   7	0.015	2.5105525877194763	# h4

Bond Coeffs

   1	233.5	1.8075	# c3,s6
   2	569.4	1.3343	# c2,c2
   3	326.8	1.5095	# c2,c3
   4	263.2	1.76	# c2,s6
   5	330.6	1.0969	# c3,hc
   6	343.1	1.0879	# c2,ha
   7	344.6	1.0868	# c2,h4
   8	330.6	1.0969	# c3,h1

Angle Coeffs

   1	46.99	110.36	# c2,c3,hc
   2	39.4	107.58	# hc,c3,hc
   3	59.92	103.83	# c3,s6,c3
   4	60.63	104.05	# c2,s6,c3
   5	39.24	108.46	# h1,c3,h1
   6	42.79	115.45	# h4,c2,s6
   7	64.06	123.63	# c2,c2,c3
   8	62.73	120.01	# c2,c2,s6
   9	49.4	122.67	# c2,c2,h4
  10	49.85	120.43	# c2,c2,ha
  11	43.19	107.15	# h1,c3,s6
  12	45.94	115.68	# c3,c2,ha
  13	69.3	121.81	# c2,c2,c2

Dihedral Coeffs

   1	1	0.0	2	0	# X,c2,c3,X
   2	1	6.65	2	180	# X,c2,c2,X
   3	3	0.38	3	180	0.0	2	0	1.15	1	0	# hc,c3,c2,c2
   4	1	6.6499999999999995	2	180	# X,c2,s6,X
   5	1	0.14444444444444446	3	0	# X,c3,s6,X

Atoms

   1	1	1	0.037815	9.35546	-4.68007	18.9363
   2	1	2	0.048876	11.373	-2.83639	23.2793
   3	1	1	-0.222978	10.1615	-4.54768	20.0108
   4	1	2	0.097895	11.6541	-4.5227	22.7147
   5	1	3	0.054231	8.51718	-2.74369	18.3786
   6	1	3	0.054231	7.37307	-4.08382	18.1873
   7	1	4	-0.159568	8.18937	-3.69955	18.8051
   8	1	3	0.073528	7.71151	-3.49884	19.7641
   9	1	6	0.703056	10.0878	-3.38034	21.3465
  10	1	2	0.084378	12.4061	-3.14479	21.834
  11	1	4	-0.422828	11.5327	-3.4782	22.405
  12	1	2	0.048873	10.3425	-1.29843	20.2087
  13	1	2	0.084374	8.60579	-1.67313	20.5075
  14	1	4	-0.422813	9.61485	-1.69482	20.926
  15	1	2	0.097892	9.64096	-1.10683	21.8505
  16	1	2	0.084729	8.7187	-3.2484	23.2887
  17	1	4	-0.400138	8.69688	-3.86475	22.3828
  18	1	2	0.084733	7.75583	-3.70658	21.8497
  19	1	2	0.073714	8.81325	-4.92307	22.6425
  20	1	1	0.037815	8.80387	-5.7887	16.89
  21	1	2	0.048876	11.9547	-6.99519	20.4474
  22	1	1	-0.222978	9.47742	-5.74494	18.0792
  23	1	2	0.097895	10.2177	-7.3436	20.7614
  24	1	3	0.054231	9.24122	-4.6402	15.038
  25	1	3	0.054231	7.85952	-4.04885	15.9416
  26	1	4	-0.159568	8.85148	-4.50049	16.0439
  27	1	3	0.073528	9.5138	-3.74275	16.4786
  28	1	6	0.703056	10.6611	-7.09017	18.4083
  29	1	2	0.084378	11.3012	-8.62443	20.1205
  30	1	4	-0.422828	11.073	-7.5528	20.1113
  31	1	2	0.048873	9.58642	-8.99466	17.4259
  32	1	2	0.084374	10.9265	-8.34297	16.4025
  33	1	4	-0.422813	10.598	-8.57982	17.4127
  34	1	2	0.097892	11.3004	-9.29787	17.8497
  35	1	2	0.084729	12.4637	-5.52678	18.596
  36	1	4	-0.400138	12.2529	-6.3823	17.9462
  37	1	2	0.084733	13.0213	-7.15291	18.0731
  38	1	2	0.073714	12.2134	-6.05439	16.9036
  39	1	1	0.037815	7.31874	-6.84828	15.3034
  40	1	2	0.048876	4.77413	-7.14389	17.8927
  41	1	1	-0.222978	7.90839	-6.77453	16.5524
  42	1	2	0.097895	5.53203	-6.73067	19.451
  43	1	3	0.054231	5.19296	-7.06943	15.8512
  44	1	3	0.054231	5.46954	-7.32779	14.1741
  45	1	4	-0.159568	5.92534	-7.47438	15.1534
  46	1	3	0.073528	5.97538	-8.5623	15.2294
  47	1	6	0.703056	7.12676	-7.69006	17.9398
  48	1	2	0.084378	5.82068	-5.68728	18.0223
  49	1	4	-0.422828	5.66408	-6.71523	18.364
  50	1	2	0.048873	8.13283	-6.80311	19.9484
  51	1	2	0.084374	7.04993	-8.18222	20.2557
  52	1	4	-0.422813	7.83018	-7.79184	19.5928
  53	1	2	0.097892	8.65538	-8.50823	19.577
  54	1	2	0.084729	7.05491	-9.85785	16.9383
  55	1	4	-0.400138	6.38466	-9.29733	17.6001
  56	1	2	0.084733	6.279	-9.8216	18.5563
  57	1	2	0.073714	5.39288	-9.17157	17.1551
  58	1	1	0.037815	7.13973	-5.78793	13.1844
  59	1	2	0.048876	9.38011	-7.70301	11.254
  60	1	1	-0.222978	7.86934	-6.50741	14.0945
  61	1	2	0.097895	10.2414	-6.19109	11.6815
  62	1	3	0.054231	6.15011	-3.82843	13.2801
  63	1	3	0.054231	5.04971	-5.18259	13.4107
  64	1	4	-0.159568	6.04863	-4.83142	13.6917
  65	1	3	0.073528	6.04678	-4.7054	14.779
  66	1	6	0.703056	9.44091	-7.28864	13.6371
  67	1	2	0.084378	11.0201	-7.77345	11.9411
  68	1	4	-0.422828	10.0673	-7.23231	11.9533
  69	1	2	0.048873	8.97852	-9.63933	13.6647
  70	1	2	0.084374	10.5757	-9.25852	14.3734
  71	1	4	-0.422813	9.52571	-8.95251	14.3159
  72	1	2	0.097892	9.06259	-8.94903	15.3045
  73	1	2	0.084729	11.7323	-7.16343	14.2578
  74	1	4	-0.400138	10.8506	-6.54767	14.4673
  75	1	2	0.084733	11.0024	-5.53971	14.0669
  76	1	2	0.073714	10.6721	-6.51056	15.5345
  77	1	1	0.037815	7.78038	-4.7169	11.1531
  78	1	2	0.048876	4.5198	-6.57566	11.7576
  79	1	1	-0.222978	7.29642	-5.81413	11.8373
  80	1	2	0.097895	4.439	-7.91085	10.5573
  81	1	3	0.054231	8.99595	-2.89634	11.4492
  82	1	3	0.054231	8.16519	-3.37843	12.8699
  83	1	4	-0.159568	8.67067	-3.78442	11.9913
  84	1	3	0.073528	9.56281	-4.29322	12.3664
  85	1	6	0.703056	6.70267	-7.35351	11.0769
  86	1	2	0.084378	4.79381	-8.25667	12.2732
  87	1	4	-0.422828	4.93947	-7.5398	11.4586
  88	1	2	0.048873	6.41831	-9.66876	11.574
  89	1	2	0.084374	8.11145	-9.17977	11.7531
  90	1	4	-0.422813	7.08068	-8.88331	11.957
  91	1	2	0.097892	6.9114	-8.75001	13.0264
  92	1	2	0.084729	6.77339	-6.78972	8.76676
  93	1	4	-0.400138	7.00804	-7.67621	9.34594
  94	1	2	0.084733	8.06397	-7.94118	9.2355
  95	1	2	0.073714	6.38282	-8.52088	9.03605
  96	1	1	0.037815	6.41169	-4.38668	9.16317
  97	1	2	0.048876	10.6447	-2.67523	10.0778
  98	1	1	-0.222978	7.63236	-4.41359	9.81563
  99	1	2	0.097895	10.896	-4.38972	10.6008
 100	1	3	0.054231	5.25004	-4.39126	11.0208
 101	1	3	0.054231	4.31857	-3.9719	9.61942
 102	1	4	-0.159568	5.13584	-4.60918	9.96013
 103	1	3	0.073528	4.78295	-5.62529	9.8822
 104	1	6	0.703056	9.20071	-4.19303	8.90594
 105	1	2	0.084378	11.5448	-3.81612	9.03899
 106	1	4	-0.422828	10.7213	-3.71969	9.75549
 107	1	2	0.048873	9.02907	-2.63395	7.15793
 108	1	2	0.084374	10.3287	-3.81987	6.86286
 109	1	4	-0.422813	9.29578	-3.68454	7.20213
 110	1	2	0.097892	8.62557	-4.31541	6.61183
 111	1	2	0.084729	8.97206	-6.3441	7.92356
 112	1	4	-0.400138	9.69901	-5.88875	8.6028
 113	1	2	0.084733	10.6906	-5.88376	8.13659
 114	1	2	0.073714	9.73071	-6.42403	9.54955
 115	1	1	0.037815	6.45052	-2.7505	7.31905
 116	1	2	0.048876	4.73761	-7.03111	8.25289
 117	1	1	-0.222978	6.19431	-3.99435	7.86715
 118	1	2	0.097895	3.34908	-5.8797	8.17716
 119	1	3	0.054231	7.61202	-2.17557	5.56613
 120	1	3	0.054231	6.85864	-3.6623	5.35176
 121	1	4	-0.159568	6.68488	-2.69395	5.81187
 122	1	3	0.073528	5.85034	-2.21898	5.28572
 123	1	6	0.703056	5.17988	-5.12542	6.83818
 124	1	2	0.084378	3.69435	-6.98044	6.81067
 125	1	4	-0.422828	4.14189	-6.38055	7.61109
 126	1	2	0.048873	7.05815	-6.62559	6.72649
 127	1	2	0.084374	5.76276	-7.06038	5.56821
 128	1	4	-0.422813	6.33745	-6.23524	6.00379
 129	1	2	0.097892	6.86538	-5.70691	5.20656
 130	1	2	0.084729	3.52537	-5.20327	5.13114
 131	1	4	-0.400138	4.24502	-4.44112	5.45075
 132	1	2	0.084733	3.7128	-3.54672	5.78754
 133	1	2	0.073714	4.91052	-4.21231	4.61334
 134	1	1	0.037815	5.98354	-1.31487	9.2332
 135	1	2	0.048876	6.16446	-0.157899	4.90414
 136	1	1	-0.222978	6.42144	-1.52792	7.96036
 137	1	2	0.097895	7.06666	1.35605	5.20772
 138	1	3	0.054231	8.07381	-1.61037	9.73782
 139	1	3	0.054231	6.98159	-1.94177	11.0535
 140	1	4	-0.159568	7.14227	-1.27933	10.2074
 141	1	3	0.073528	7.33998	-0.266866	10.5708
 142	1	6	0.703056	7.01238	0.010116	7.17385
 143	1	2	0.084378	7.95248	-0.169036	4.95584
 144	1	4	-0.422828	7.0452	0.274221	5.3799
 145	1	2	0.048873	9.25506	-0.717338	6.70897
 146	1	2	0.084374	9.16327	1.01496	7.10566
 147	1	4	-0.422813	8.80223	0.0171479	7.37951
 148	1	2	0.097892	9.05247	-0.192359	8.42242
 149	1	2	0.084729	7.12637	2.35884	7.48131
 150	1	4	-0.400138	6.67414	1.53219	8.04054
 151	1	2	0.084733	5.59635	1.64909	8.08372
 152	1	2	0.073714	7.10718	1.46824	9.04366
 153	1	1	0.037815	3.70098	-0.581123	8.7404
 154	1	2	0.048876	2.01704	-0.439651	11.2904
 155	1	1	-0.222978	4.79969	-0.662078	9.55489
 156	1	2	0.097895	2.66891	-0.0187507	12.8939
 157	1	3	0.054231	2.4732	-2.35926	8.66631
 158	1	3	0.054231	2.86052	-1.77501	7.0605
 159	1	4	-0.159568	3.26307	-1.88893	8.06831
 160	1	3	0.073528	4.04548	-2.62478	7.99134
 161	1	6	0.703056	4.39527	-0.372926	11.3132
 162	1	2	0.084378	2.60628	1.23349	11.6468
 163	1	4	-0.422828	2.75473	0.170872	11.818
 164	1	2	0.048873	6.42927	-0.488064	12.6206
 165	1	2	0.084374	6.09144	1.17544	12.0167
 166	1	4	-0.422813	5.65575	0.264707	12.4407
 167	1	2	0.097892	5.15977	0.499897	13.3889
 168	1	2	0.084729	4.0031	-1.92029	13.0758
 169	1	4	-0.400138	4.29573	-2.01328	12.024
 170	1	2	0.084733	3.54364	-2.58361	11.4684
 171	1	2	0.073714	5.26806	-2.48747	11.9528
 172	1	1	0.037815	1.64867	0.298476	7.98699
 173	1	2	0.048876	3.14562	4.29696	8.13479
 174	1	1	-0.222978	2.83972	0.491812	8.61587
 175	1	2	0.097895	4.27979	3.12331	7.41742
 176	1	3	0.054231	0.718267	0.556517	9.95197
 177	1	3	0.054231	-0.437485	0.427004	8.69038
 178	1	4	-0.159568	0.535989	0.051158	9.00343
 179	1	3	0.073528	0.464093	-1.00934	9.26554
 180	1	6	0.703056	3.07846	2.18411	9.24571
 181	1	2	0.084378	2.51899	2.98312	7.08429
 182	1	4	-0.422828	3.27452	3.25417	7.82294
 183	1	2	0.048873	4.71563	3.70015	10.077
 184	1	2	0.084374	4.15	2.59541	11.3555
 185	1	4	-0.422813	4.45595	2.66009	10.3072
 186	1	2	0.097892	5.31341	2.01695	10.122
 187	1	2	0.084729	1.197	2.57021	10.6869
 188	1	4	-0.400138	1.55868	3.01263	9.75384
 189	1	2	0.084733	1.78489	4.07263	9.91603
 190	1	2	0.073714	0.811378	2.90552	8.96037
 191	1	1	0.037815	2.26972	0.70483	5.62343
 192	1	2	0.048876	-1.55709	1.42956	6.63382
 193	1	1	-0.222978	1.38658	0.393257	6.63288
 194	1	2	0.097895	-2.40012	0.193058	5.65454
 195	1	3	0.054231	4.35815	0.930759	4.97811
 196	1	3	0.054231	4.1769	1.02633	6.66423
 197	1	4	-0.159568	3.77836	0.511043	5.80187
 198	1	3	0.073528	4.06371	-0.541282	5.8502
 199	1	6	0.703056	-0.13024	-0.439479	6.04555
 200	1	2	0.084378	-2.1088	-0.0927627	7.38755
 201	1	4	-0.422828	-1.69822	0.359416	6.47897
 202	1	2	0.048873	0.503902	-1.86073	4.25274
 203	1	2	0.084374	-1.1953	-1.30909	4.10389
 204	1	4	-0.422813	-0.170535	-1.00146	4.3401
 205	1	2	0.097892	0.153744	-0.217636	3.66605
 206	1	2	0.084729	0.529736	-2.5016	7.06413
 207	1	4	-0.400138	-0.425848	-1.98206	6.93926
 208	1	2	0.084733	-0.905766	-1.79508	7.90235
 209	1	2	0.073714	-1.10085	-2.5916	6.32778
 210	1	1	0.037815	2.59565	0.986485	3.27646
 211	1	2	0.048876	-1.3154	1.29635	4.12065
 212	1	1	-0.222978	1.94337	1.32892	4.4387
 213	1	2	0.097895	-1.48264	2.89426	3.38587
 214	1	3	0.054231	4.03759	-0.621937	2.9394
 215	1	3	0.054231	2.74307	-1.11535	4.00273
 216	1	4	-0.159568	2.96782	-0.502702	3.12458
 217	1	3	0.073528	2.421	-1.00781	2.3307
 218	1	6	0.703056	0.660245	2.6431	4.42721
 219	1	2	0.084378	-0.478266	1.64712	2.57418
 220	1	4	-0.422828	-0.796464	2.0544	3.53883
 221	1	2	0.048873	0.755204	4.15003	6.26625
 222	1	2	0.084374	-0.927089	3.67213	5.87409
 223	1	4	-0.422813	0.100381	3.31241	5.99995
 224	1	2	0.097892	0.148041	2.5529	6.78001
 225	1	2	0.084729	-0.151188	4.52828	3.2017
 226	1	4	-0.400138	0.819081	4.02397	3.26944
 227	1	2	0.084733	1.53952	4.75054	3.65199
 228	1	2	0.073714	1.1086	3.66154	2.28407
 229	1	1	0.037815	3.19192	1.58508	0.987918
 230	1	2	0.048876	4.29869	3.0102	5.27788
 231	1	1	-0.222978	3.03473	1.8732	2.32681
 232	1	2	0.097895	4.45533	4.71427	4.82015
 233	1	3	0.054231	4.7548	2.85089	0.095054
 234	1	3	0.054231	3.62141	2.22245	-1.06087
 235	1	4	-0.159568	3.70053	2.60026	-0.0342107
 236	1	3	0.073528	3.09479	3.5109	-0.0303204
 237	1	6	0.703056	3.85602	3.37416	2.96467
 238	1	2	0.084378	2.83555	4.0288	5.07206
 239	1	4	-0.422828	3.8387	3.81587	4.70834
 240	1	2	0.048873	6.186	3.70095	3.3863
 241	1	2	0.084374	5.75283	1.9632	3.25529
 242	1	4	-0.422813	5.60615	2.95966	2.82413
 243	1	2	0.097892	5.92229	2.96312	1.78033
 244	1	2	0.084729	4.19896	5.70249	2.62635
 245	1	4	-0.400138	3.87226	4.88439	1.97498
 246	1	2	0.084733	4.57725	4.78825	1.14435
 247	1	2	0.073714	2.85822	5.08489	1.6121
 248	1	1	0.037815	1.54119	0.489824	-0.309058
 249	1	2	0.048876	4.8242	0.468241	-2.13652
 250	1	1	-0.222978	2.72358	0.469899	0.384795
 251	1	2	0.097895	4.83257	-1.31905	-2.28596
 252	1	3	0.054231	0.656103	2.41256	-0.943583
 253	1	3	0.054231	0.84021	2.27456	0.78492
 254	1	4	-0.159568	0.61425	1.70293	-0.111697
 255	1	3	0.073528	-0.426188	1.40596	0.0365885
 256	1	6	0.703056	4.06868	-0.587925	-0.142664
 257	1	2	0.084378	3.29244	-0.394071	-2.414
 258	1	4	-0.422828	4.2664	-0.451995	-1.92863
 259	1	2	0.048873	5.66798	-0.363844	1.64335
 260	1	2	0.084374	6.41966	-0.854309	0.0923706
 261	1	4	-0.422813	5.67952	-0.197407	0.563033
 262	1	2	0.097892	5.91655	0.847504	0.341035
 263	1	2	0.084729	2.70597	-2.5509	-0.135653
 264	1	4	-0.400138	3.73914	-2.33123	0.120307
 265	1	2	0.084733	4.42986	-2.91128	-0.501661
 266	1	2	0.073714	3.91114	-2.55509	1.17866
 267	1	1	0.037815	0.346677	-1.58155	-0.399976
 268	1	2	0.048876	0.848981	-1.50344	-4.381
 269	1	1	-0.222978	1.05884	-0.578226	-1.01752
 270	1	2	0.097895	-0.521744	-2.12277	-3.3626
 271	1	3	0.054231	-0.127309	-2.11238	1.674
 272	1	3	0.054231	0.498197	-0.534452	1.55768
 273	1	4	-0.159568	-0.124761	-1.24152	1.01639
 274	1	3	0.073528	-1.1119	-0.771432	0.994869
 275	1	6	0.703056	0.365308	-0.0501701	-2.60341
 276	1	2	0.084378	-0.772179	-0.815893	-4.54822
 277	1	4	-0.422828	-0.0685287	-1.25622	-3.84128
 278	1	2	0.048873	-1.28305	1.66812	-2.30173
 279	1	2	0.084374	-1.99252	0.17305	-3.00566
 280	1	4	-0.422813	-1.29542	0.572918	-2.26535
 281	1	2	0.097892	-1.59945	0.232919	-1.27471
 282	1	2	0.084729	0.507656	1.98122	-3.85552
 283	1	4	-0.400138	1.24255	1.31432	-3.39097
 284	1	2	0.084733	1.83798	1.85325	-2.64886
 285	1	2	0.073714	1.90553	0.893989	-4.15557
 286	1	1	0.037815	0.7196	-3.65545	-1.74955
 287	1	2	0.048876	-1.8939	-5.2386	-1.85066
 288	1	1	-0.222978	0.0320525	-2.8586	-0.843053
 289	1	2	0.097895	-1.71814	-5.90113	-0.17541
 290	1	3	0.054231	2.79396	-3.8335	-2.37965
 291	1	3	0.054231	1.74369	-3.18461	-3.62044
 292	1	4	-0.159568	1.93094	-3.18097	-2.54888
 293	1	3	0.073528	2.28023	-2.19439	-2.29892
 294	1	6	0.703056	-1.59772	-3.51994	-0.284639
 295	1	2	0.084378	-3.25478	-5.15711	-0.698897
 296	1	4	-0.422828	-2.16425	-5.13109	-0.804711
 297	1	2	0.048873	-3.35732	-3.69618	1.31155
 298	1	2	0.084374	-1.79339	-3.46065	2.13232
 299	1	4	-0.422813	-2.41439	-3.13729	1.29207
 300	1	2	0.097892	-2.64991	-2.07332	1.36607
 301	1	2	0.084729	-2.66008	-1.44889	-0.810029
 302	1	4	-0.400138	-2.71558	-2.46112	-1.21474
 303	1	2	0.084733	-2.42594	-2.47099	-2.2689
 304	1	2	0.073714	-3.73504	-2.84688	-1.10097
 305	1	1	0.037815	0.841983	-5.87284	-2.77579
 306	1	2	0.048876	3.10896	-6.35401	0.952856
 307	1	1	-0.222978	0.699389	-5.02962	-1.68915
 308	1	2	0.097895	3.12023	-6.64222	-0.810778
 309	1	3	0.054231	0.241193	-7.87522	-2.07873
 310	1	3	0.054231	1.06281	-7.89234	-3.60552
 311	1	4	-0.159568	1.04879	-7.38986	-2.62917
 312	1	3	0.073528	2.00006	-7.65708	-2.16707
 313	1	6	0.703056	1.0245	-5.72476	-0.0306838
 314	1	2	0.084378	3.28168	-4.9785	-0.185419
 315	1	4	-0.422828	2.81365	-5.95328	-0.0238752
 316	1	2	0.048873	-0.135956	-4.62337	1.74564
 317	1	2	0.084374	1.47046	-5.20787	2.2366
 318	1	4	-0.422813	0.90796	-4.70409	1.44258
 319	1	2	0.097892	1.36226	-3.73022	1.24136
 320	1	2	0.084729	1.23163	-8.12497	-0.0986593
 321	1	4	-0.400138	0.544713	-7.41758	0.375821
 322	1	2	0.084733	0.61501	-7.52951	1.46337
 323	1	2	0.073714	-0.485797	-7.59631	0.0514904
 324	1	1	0.037815	1.80921	-5.57313	-4.93998
 325	1	2	0.048876	-0.458347	-7.37661	-6.4638
 326	1	1	-0.222978	0.723357	-5.47949	-4.07626
 327	1	2	0.097895	-2.17547	-6.84179	-6.44387
 328	1	3	0.054231	3.27775	-7.11491	-4.42825
 329	1	3	0.054231	3.98418	-5.485	-4.63847
 330	1	4	-0.159568	3.11972	-6.04057	-4.28136
 331	1	3	0.073528	3.19497	-5.86339	-3.20583
 332	1	6	0.703056	-0.936665	-5.94657	-4.65389
 333	1	2	0.084378	-0.90106	-5.70638	-6.96179
 334	1	4	-0.422828	-1.13402	-6.52985	-6.30904
 335	1	2	0.048873	-2.80368	-7.30248	-4.02949
 336	1	2	0.084374	-1.2606	-8.19075	-3.91737
 337	1	4	-0.422813	-1.76059	-7.24109	-3.6982
 338	1	2	0.097892	-1.71888	-7.03326	-2.63005
 339	1	2	0.084729	-2.36342	-4.13691	-5.31737
 340	1	4	-0.400138	-2.1132	-4.61335	-4.36512
 341	1	2	0.084733	-3.0221	-5.02954	-3.91685
 342	1	2	0.073714	-1.64991	-3.8977	-3.68348
 343	1	1	0.037815	1.27542	-4.17859	-6.95212
 344	1	2	0.048876	3.28346	-8.35333	-6.51492
 345	1	1	-0.222978	1.9853	-5.14152	-6.25388
 346	1	2	0.097895	1.6223	-7.74732	-6.76217
 347	1	3	0.054231	0.245283	-2.31183	-6.56007
 348	1	3	0.054231	-0.830474	-3.67093	-6.75185
 349	1	4	-0.159568	0.136881	-3.38076	-6.35065
 350	1	3	0.073528	0.106757	-3.43571	-5.26961
 351	1	6	0.703056	3.23249	-6.05677	-7.28285
 352	1	2	0.084378	2.62728	-8.18881	-8.17798
 353	1	4	-0.422828	2.63637	-7.75958	-7.17004
 354	1	2	0.048873	3.78808	-6.60441	-9.53735
 355	1	2	0.084374	2.49457	-5.37	-9.4874
 356	1	4	-0.422813	3.43486	-5.69291	-9.04123
 357	1	2	0.097892	4.18975	-4.91386	-9.14871
 358	1	2	0.084729	4.90769	-7.03968	-5.77229
 359	1	4	-0.400138	4.90311	-6.52668	-6.73501
 360	1	2	0.084733	5.28829	-7.22357	-7.48839
 361	1	2	0.073714	5.55826	-5.65252	-6.72006
 362	1	1	0.037815	1.21588	-2.9657	-9.09463
 363	1	2	0.048876	1.802	-0.813808	-7.07855
 364	1	1	-0.222978	1.85503	-3.4583	-7.95947
 365	1	2	0.097895	2.95506	-0.912012	-5.7178
 366	1	3	0.054231	2.2983	-1.005	-9.17402
 367	1	3	0.054231	2.69343	-2.1384	-10.4808
 368	1	4	-0.159568	1.89734	-1.77571	-9.81924
 369	1	3	0.073528	1.24609	-1.15338	-10.4382
 370	1	6	0.703056	3.3818	-2.61843	-7.35532
 371	1	2	0.084378	3.4869	-0.219777	-7.2824
 372	1	4	-0.422828	2.85049	-0.97446	-6.80637
 373	1	2	0.048873	4.83213	-2.28972	-5.50506
 374	1	2	0.084374	3.40599	-3.26938	-5.05968
 375	1	4	-0.422813	4.17299	-3.10728	-5.82029
 376	1	2	0.097892	4.7747	-3.99334	-5.98876
 377	1	2	0.084729	4.35756	-1.43816	-9.26293
 378	1	4	-0.400138	4.69034	-2.17137	-8.5273
 379	1	2	0.084733	5.50283	-1.72731	-7.94074
 380	1	2	0.073714	5.0617	-3.07191	-9.02323
 381	1	1	0.037815	-0.46115	-2.73333	-10.7816
 382	1	2	0.048876	-2.32698	-4.56683	-7.96335
 383	1	1	-0.222978	0.010849	-3.36366	-9.66723
 384	1	2	0.097895	-2.93001	-4.31008	-9.62835
 385	1	3	0.054231	0.873583	-2.27562	-12.4898
 386	1	3	0.054231	-0.205683	-3.66435	-12.762
 387	1	4	-0.159568	0.374069	-3.12064	-12.0142
 388	1	3	0.073528	1.1858	-3.81206	-11.7505
 389	1	6	0.703056	-0.680782	-5.03871	-9.64408
 390	1	2	0.084378	-2.76828	-5.97748	-8.98353
 391	1	4	-0.422828	-2.34679	-4.96595	-8.97844
 392	1	2	0.048873	-1.82567	-6.52174	-11.1239
 393	1	2	0.084374	-1.84067	-4.84176	-11.7422
 394	1	4	-0.422813	-1.23528	-5.60809	-11.2624
 395	1	2	0.097892	-0.34993	-5.83503	-11.866
 396	1	2	0.084729	-0.503761	-7.29066	-8.9441
 397	1	4	-0.400138	0.213688	-6.47005	-9.05618
 398	1	2	0.084733	0.958143	-6.74542	-9.80968
 399	1	2	0.073714	0.685521	-6.25552	-8.11185
 400	1	1	0.037815	-2.30141	-1.52843	-9.73364
 401	1	2	0.048876	-3.16059	0.910404	-12.3922
 402	1	1	-0.222978	-1.61494	-1.96527	-10.8478
 403	1	2	0.097895	-3.48289	-0.00297184	-13.8706
 404	1	3	0.054231	-1.57359	-1.80374	-7.70768
 405	1	3	0.054231	-1.75851	-0.115645	-8.17239
 406	1	4	-0.159568	-1.4624	-1.10066	-8.5327
 407	1	3	0.073528	-0.406091	-0.966793	-8.76007
 408	1	6	0.703056	-1.98671	-1.17344	-12.4596
 409	1	2	0.084378	-4.30238	-0.48004	-12.376
 410	1	4	-0.422828	-3.38193	-0.0851783	-12.7831
 411	1	2	0.048873	-0.892143	0.720673	-13.4236
 412	1	2	0.084374	-0.796278	0.714164	-11.6306
 413	1	4	-0.422813	-0.712736	0.10279	-12.536
 414	1	2	0.097892	0.281363	-0.339519	-12.5912
 415	1	2	0.084729	-2.07939	-1.45202	-14.8243
 416	1	4	-0.400138	-1.59859	-2.00977	-14.0134
 417	1	2	0.084733	-0.51878	-2.01015	-14.1871
 418	1	2	0.073714	-2.00112	-3.02875	-13.9792
 419	1	1	0.037815	-4.22108	-0.950722	-8.39168
 420	1	2	0.048876	-6.09828	-0.425712	-11.4707
 421	1	1	-0.222978	-3.6637	-1.36378	-9.57884
 422	1	2	0.097895	-7.09206	-1.90957	-11.3424
 423	1	3	0.054231	-3.76866	-1.92137	-6.49954
 424	1	3	0.054231	-5.35569	-2.39436	-7.17879
 425	1	4	-0.159568	-4.32801	-2.11929	-7.41805
 426	1	3	0.073528	-3.85492	-3.02238	-7.80744
 427	1	6	0.703056	-4.86353	-2.29795	-10.5826
 428	1	2	0.084378	-6.70563	-0.951965	-9.87246
 429	1	4	-0.422828	-6.33561	-1.29092	-10.8465
 430	1	2	0.048873	-5.14706	-3.97912	-12.24
 431	1	2	0.084374	-4.36999	-2.53496	-12.9297
 432	1	4	-0.422813	-4.39315	-3.20273	-12.0654
 433	1	2	0.097892	-3.42663	-3.67035	-11.8915
 434	1	2	0.084729	-5.11449	-4.22344	-9.16105
 435	1	4	-0.400138	-5.80216	-3.51562	-9.63318
 436	1	2	0.084733	-6.42298	-3.00676	-8.88985
 437	1	2	0.073714	-6.4549	-4.05416	-10.3292
 438	1	1	0.037815	-3.98847	1.50744	-8.49253
 439	1	2	0.048876	-7.81559	0.201832	-6.2428
 440	1	1	-0.222978	-4.36957	0.331165	-7.87409
 441	1	2	0.097895	-7.28338	0.5958	-7.91285
 442	1	3	0.054231	-2.50252	1.10065	-10.017
 443	1	3	0.054231	-3.51964	2.42514	-10.4701
 444	1	4	-0.159568	-3.52592	1.47745	-9.94124
 445	1	3	0.073528	-4.18361	0.840534	-10.5262
 446	1	6	0.703056	-5.43995	0.493324	-6.36888
 447	1	2	0.084378	-7.0481	-1.04715	-7.2723
 448	1	4	-0.422828	-7.05932	0.0154191	-7.01422
 449	1	2	0.048873	-5.96753	-1.65889	-5.3516
 450	1	2	0.084374	-4.44808	-0.941381	-4.69497
 451	1	4	-0.422813	-5.46771	-0.738648	-5.03707
 452	1	2	0.097892	-6.04298	-0.302364	-4.21283
 453	1	2	0.084729	-5.6181	2.93125	-6.18891
 454	1	4	-0.400138	-5.74237	2.07349	-5.52955
 455	1	2	0.084733	-6.76936	2.05125	-5.14736
 456	1	2	0.073714	-5.05435	2.15355	-4.68218
 457	1	1	0.037815	-3.88887	3.96035	-8.4171
 458	1	2	0.048876	-2.03486	4.62707	-5.38884
 459	1	1	-0.222978	-3.79868	2.69859	-7.84396
 460	1	2	0.097895	-3.68317	4.11174	-4.85157
 461	1	3	0.054231	-2.12813	5.00003	-7.54959
 462	1	3	0.054231	-3.28754	6.11484	-8.17013
 463	1	4	-0.159568	-3.20352	5.13739	-7.6869
 464	1	3	0.073528	-3.69682	5.3238	-6.72995
 465	1	6	0.703056	-2.72637	2.51554	-6.36212
 466	1	2	0.084378	-2.22038	3.3276	-4.1833
 467	1	4	-0.422828	-2.66149	3.78581	-5.07595
 468	1	2	0.048873	-2.48771	0.109415	-6.19307
 469	1	2	0.084374	-1.51631	1.04323	-5.02075
 470	1	4	-0.422813	-2.49123	0.957604	-5.50788
 471	1	2	0.097892	-3.25792	0.858483	-4.73644
 472	1	2	0.084729	-1.14992	3.0724	-8.07918
 473	1	4	-0.400138	-1.07085	2.65472	-7.07016
 474	1	2	0.084733	-0.461865	3.30303	-6.43078
 475	1	2	0.073714	-0.623472	1.65612	-7.12446
 476	1	1	0.037815	-4.00074	5.34446	-10.3224
 477	1	2	0.048876	-7.64858	5.61909	-10.5334
 478	1	1	-0.222978	-4.59908	4.38204	-9.5277
 479	1	2	0.097895	-6.94665	4.60927	-11.8624
 480	1	3	0.054231	-1.84662	5.80671	-10.1587
 481	1	3	0.054231	-2.14734	4.1076	-10.0868
 482	1	4	-0.159568	-2.50873	5.03024	-10.5508
 483	1	3	0.073528	-2.31643	4.84282	-11.6105
 484	1	6	0.703056	-6.31237	3.8245	-9.75514
 485	1	2	0.084378	-8.34983	4.03652	-10.9194
 486	1	4	-0.422828	-7.42262	4.6194	-10.8853
 487	1	2	0.048873	-7.4446	2.0296	-10.84
 488	1	2	0.084374	-5.76031	2.20738	-11.4209
 489	1	4	-0.422813	-6.40706	2.21107	-10.5369
 490	1	2	0.097892	-6.12912	1.4404	-9.81743
 491	1	2	0.084729	-8.17556	3.15903	-8.47617
 492	1	4	-0.400138	-7.13398	3.40093	-8.2413
 493	1	2	0.084733	-6.62929	2.52213	-7.86452
 494	1	2	0.073714	-7.05958	4.24225	-7.54441
 495	1	1	0.037815	-5.69949	7.10621	-10.6493
 496	1	2	0.048876	-4.02464	8.69917	-13.7743
 497	1	1	-0.222978	-4.53478	6.45111	-10.966
 498	1	2	0.097895	-4.83047	9.36499	-12.2922
 499	1	3	0.054231	-5.44291	6.47621	-8.53742
 500	1	3	0.054231	-5.72189	8.1517	-8.76898
 501	1	4	-0.159568	-5.99448	7.17023	-9.16379
 502	1	3	0.073528	-7.04298	6.94269	-8.97605
 503	1	6	0.703056	-3.35059	7.58228	-11.8079
 504	1	2	0.084378	-3.13637	9.77574	-12.6653
 505	1	4	-0.422828	-3.90904	9.00117	-12.7316
 506	1	2	0.048873	-1.89646	9.15292	-10.7301
 507	1	2	0.084374	-3.5337	9.10855	-9.99183
 508	1	4	-0.422813	-2.71476	8.50482	-10.3953
 509	1	2	0.097892	-2.35953	7.81016	-9.62995
 510	1	2	0.084729	-1.07167	6.74111	-11.8678
 511	1	4	-0.400138	-1.80954	7.06836	-12.6047
 512	1	2	0.084733	-2.02988	6.28242	-13.335
 513	1	2	0.073714	-1.40871	7.94646	-13.1243
 514	1	1	0.037815	-7.30018	8.90368	-11.3132
 515	1	2	0.048876	-7.95463	5.9142	-14.7258
 516	1	1	-0.222978	-6.48598	7.78836	-11.5664
 517	1	2	0.097895	-8.32438	5.58127	-13.0186
 518	1	3	0.054231	-7.12403	9.94544	-13.2236
 519	1	3	0.054231	-8.63363	9.02309	-13.0411
 520	1	4	-0.159568	-7.8902	9.62607	-12.5204
 521	1	3	0.073528	-8.42404	10.5439	-12.2594
 522	1	6	0.703056	-6.42871	7.06871	-13.2929
 523	1	2	0.084378	-8.81499	7.12547	-13.7478
 524	1	4	-0.422828	-8.04009	6.3581	-13.7269
 525	1	2	0.048873	-6.18028	7.54649	-15.619
 526	1	2	0.084374	-7.50216	8.51134	-14.9198
 527	1	4	-0.422813	-6.48352	8.14667	-14.753
 528	1	2	0.097892	-5.79945	8.98977	-14.6401
 529	1	2	0.084729	-5.25213	4.9788	-12.8992
 530	1	4	-0.400138	-5.29505	5.71707	-13.7033
 531	1	2	0.084733	-5.67256	5.2387	-14.614
 532	1	2	0.073714	-4.3038	6.12947	-13.9079
 533	1	1	0.037815	-7.93889	9.36462	-8.93881
 534	1	2	0.048876	-5.19105	11.2661	-12.3662
 535	1	1	-0.222978	-7.36622	9.67037	-10.1692
 536	1	2	0.097895	-6.78466	12.0421	-12.6893
 537	1	3	0.054231	-6.39313	10.0063	-7.51277
 538	1	3	0.054231	-7.61412	11.2561	-7.83742
 539	1	4	-0.159568	-7.45185	10.1896	-7.72662
 540	1	3	0.073528	-7.97788	10.0098	-6.78789
 541	1	6	0.703056	-6.60628	11.3351	-10.3928
 542	1	2	0.084378	-5.51951	12.9107	-11.7952
 543	1	4	-0.422828	-5.96261	11.9252	-11.9769
 544	1	2	0.048873	-4.70526	10.7042	-9.08253
 545	1	2	0.084374	-4.58581	12.3872	-9.68517
 546	1	4	-0.422813	-5.25086	11.6411	-9.2361
 547	1	2	0.097892	-5.62992	12.0262	-8.28571
 548	1	2	0.084729	-7.44576	13.0712	-8.94066
 549	1	4	-0.400138	-7.76329	12.6272	-9.88953
 550	1	2	0.084733	-7.76304	13.3993	-10.6671
 551	1	2	0.073714	-8.76268	12.1869	-9.8013
 552	1	1	0.037815	-9.23247	7.97896	-7.42086
 553	1	2	0.048876	-10.6043	6.81538	-11.7888
 554	1	1	-0.222978	-9.01589	8.53383	-8.66593
 555	1	2	0.097895	-8.88693	7.13379	-11.4504
 556	1	3	0.054231	-7.07763	7.89759	-6.8325
 557	1	3	0.054231	-8.20506	7.90553	-5.49595
 558	1	4	-0.159568	-8.05899	7.54106	-6.52078
 559	1	3	0.073528	-7.93508	6.45779	-6.46929
 560	1	6	0.703056	-10.3199	8.24375	-9.90928
 561	1	2	0.084378	-9.78821	5.99826	-10.4168
 562	1	4	-0.422828	-9.84376	6.91867	-11.0062
 563	1	2	0.048873	-12.4662	8.11676	-8.84313
 564	1	2	0.084374	-12.4393	7.30936	-10.4237
 565	1	4	-0.422813	-11.8894	7.46943	-9.48951
 566	1	2	0.097892	-11.7067	6.50885	-9.01463
 567	1	2	0.084729	-9.90264	10.4125	-10.7946
 568	1	4	-0.400138	-10.6384	9.63246	-10.9988
 569	1	2	0.084733	-10.6122	9.29108	-12.0383
 570	1	2	0.073714	-11.6376	10.014	-10.7611
 571	1	1	0.037815	-11.4179	8.80379	-6.78026
 572	1	2	0.048876	-12.9038	5.65507	-5.37089
 573	1	1	-0.222978	-10.4559	7.81662	-6.83289
 574	1	2	0.097895	-13.1135	6.19103	-7.08611
 575	1	3	0.054231	-11.7238	10.9825	-6.87626
 576	1	3	0.054231	-10.081	10.5076	-7.04984
 577	1	4	-0.159568	-11.0934	10.2037	-7.31822
 578	1	3	0.073528	-11.1796	10.2881	-8.39975
 579	1	6	0.703056	-10.8194	6.08692	-6.44326
 580	1	2	0.084378	-12.5751	4.52086	-6.70633
 581	1	4	-0.422828	-12.5364	5.56997	-6.39208
 582	1	2	0.048873	-8.97696	5.35657	-7.84066
 583	1	2	0.084374	-9.88875	3.98991	-7.11418
 584	1	4	-0.422813	-9.96612	4.97642	-7.58404
 585	1	2	0.097892	-10.5591	4.88732	-8.49806
 586	1	2	0.084729	-10.764	5.79351	-4.09211
 587	1	4	-0.400138	-10.0828	5.53135	-4.89487
 588	1	2	0.084733	-9.9867	4.44085	-4.93124
 589	1	2	0.073714	-9.10884	5.9923	-4.72514
 590	1	1	0.037815	-12.7149	8.23112	-4.78796
 591	1	2	0.048876	-13.145	10.8523	-8.70942
 592	1	1	-0.222978	-12.5907	8.72819	-6.07441
 593	1	2	0.097895	-13.9815	9.35613	-9.28761
 594	1	3	0.054231	-14.2027	7.72154	-3.20825
 595	1	3	0.054231	-14.8449	8.62222	-4.43424
 596	1	4	-0.159568	-14.1088	7.84208	-4.27887
 597	1	3	0.073528	-14.4774	6.917	-4.733
 598	1	6	0.703056	-14.0381	9.49991	-6.8851
 599	1	2	0.084378	-14.9135	10.7458	-8.69729
 600	1	4	-0.422828	-13.9872	10.1759	-8.56303
 601	1	2	0.048873	-15.3789	7.51549	-6.64864
 602	1	2	0.084374	-16.2398	8.98204	-6.03044
 603	1	4	-0.422813	-15.5925	8.57651	-6.81536
 604	1	2	0.097892	-16.0888	8.69249	-7.78507
 605	1	2	0.084729	-15.1142	10.6074	-5.02496
 606	1	4	-0.400138	-14.4467	10.9092	-5.83584
 607	1	2	0.084733	-13.5112	11.3024	-5.42165
 608	1	2	0.073714	-14.9314	11.6712	-6.45554
 609	1	1	0.037815	-10.6929	9.15774	-3.95316
 610	1	2	0.048876	-9.53605	6.64257	-2.05629
 611	1	1	-0.222978	-11.7189	8.27958	-3.83477
 612	1	2	0.097895	-9.93826	7.96281	-0.887914
 613	1	3	0.054231	-10.128	9.8301	-1.96346
 614	1	3	0.054231	-8.87495	8.83878	-2.79304
 615	1	4	-0.159568	-9.66554	9.58529	-2.9262
 616	1	3	0.073528	-9.17192	10.5076	-3.25715
 617	1	6	0.703056	-11.8164	7.35577	-2.26661
 618	1	2	0.084378	-10.5073	6.30449	-0.585
 619	1	4	-0.422828	-10.2862	7.04216	-1.36478
 620	1	2	0.048873	-12.0996	9.38157	-1.01195
 621	1	2	0.084374	-13.6731	8.61169	-1.38088
 622	1	4	-0.422813	-12.6393	8.43104	-1.07302
 623	1	2	0.097892	-12.625	7.92756	-0.0998716
 624	1	2	0.084729	-13.8191	6.07877	-1.86872
 625	1	4	-0.400138	-12.8163	5.85069	-2.24512
 626	1	2	0.084733	-12.8641	5.43878	-3.25714
 627	1	2	0.073714	-12.3292	5.1311	-1.57732
 628	1	7	0	11.0127	-5.17624	20.1838
 629	1	5	0	-10.6467	9.85116	-4.77873

Velocities

   1	0.000101228	-2.26735e-05	1.72292e-05
   2	0.000968182	0.00142979	-0.000942545
   3	0.000537027	0.000403272	6.15092e-05
   4	0.000656839	0.00123358	-0.00074039
   5	-0.000649283	0.000102266	0.000379449
   6	-0.000210554	0.000192527	-9.32291e-05
   7	-0.00025972	-2.76385e-05	0.000144192
   8	-0.000434654	-0.00043374	0.000152857
   9	0.000252142	0.000410897	-0.000211071
  10	0.000130147	0.00103232	-0.00156761
  11	0.000521306	0.00110013	-0.000906723
  12	-0.00067121	-0.000670393	-0.00176302
  13	-0.000416836	-6.06787e-05	-0.000207761
  14	-0.000131034	-4.93093e-05	-0.000919479
  15	0.000621307	0.00092278	-0.00157691
  16	0.000185803	-0.000374786	4.55671e-05
  17	0.000745642	-0.000349549	-7.4974e-05
  18	0.000440362	-0.00131229	0.000131018
  19	0.00179332	-0.000249477	-9.04971e-05
  20	-0.000395857	-0.000363759	-7.83628e-05
  21	-0.000370892	0.000100107	0.00105959
  22	0.000150636	0.000205269	0.000728652
  23	-0.000587825	0.00104347	0.000871508