
Host: node50

Timers On : Mon Dec 12 15:32:42 2022
Timers Off: Mon Dec 12 15:39:21 2022

Wall Time:      398.38 seconds

                                                       Time (seconds)
Module                                       User      System        Wall        Calls

--------------------------------------------------------------------------------------

**************************************************************************************
