pySIMM System Object

178 atoms
177 bonds
330 angles
456 dihedrals
0 impropers

5 atom types
5 bond types
10 angle types
3 dihedral types

-72.151588 72.151588 xlo xhi
-72.151588 72.151588 ylo yhi
-72.151588 72.151588 zlo zhi

Masses

   1	12.01	# c3
   2	1.008	# hc
   3	14.01	# n3
   4	1.008	# h1
   5	1.008	# hn

Pair Coeffs

   1	0.1094	3.3996695084235347	# c3
   2	0.0157	2.649532787749369	# hc
   3	0.17	3.249998523775958	# n3
   4	0.0157	2.471353044121301	# h1
   5	0.0157	1.069078461768407	# hn

Bond Coeffs

   1	330.6	1.0969	# c3,h1
   2	325.9	1.4647	# c3,n3
   3	392.4	1.019	# hn,n3
   4	300.9	1.5375	# c3,c3
   5	330.6	1.0969	# c3,hc

Angle Coeffs

   1	49.53	109.88	# h1,c3,n3
   2	66.02	111.04	# c3,c3,n3
   3	41.4	106.4	# hn,n3,hn
   4	46.34	109.8	# c3,c3,hc
   5	47.42	109.29	# c3,n3,hn
   6	46.39	109.56	# c3,c3,h1
   7	39.4	107.58	# hc,c3,hc
   8	39.24	108.46	# h1,c3,h1
   9	49.55	109.8	# hc,c3,n3
  10	63.82	112.35	# c3,n3,c3

Dihedral Coeffs

   1	1	0.15555555555555556	3	0	# X,c3,c3,X
   2	1	0.3	3	0	# X,c3,n3,X
   3	2	0.3	3	0	0.48	2	180	# c3,c3,n3,c3

Atoms

   1	1	1	-0.185789	8.39558	2.08126	-11.0297
   2	1	1	0.725698	7.61874	0.952834	-10.2987
   3	1	2	0.009194	9.28491	2.3414	-10.4409
   4	1	3	-0.517699	8.48183	-0.191111	-10.0338
   5	1	4	-0.226077	7.21775	1.31261	-9.34593
   6	1	4	-0.130348	6.77638	0.62892	-10.9208
   7	1	2	0.087114	8.76527	1.67202	-11.978
   8	1	5	0.237906	7.89186	-0.932292	-9.66796
   9	1	1	-0.185789	6.33792	5.30339	-10.5147
  10	1	1	0.725698	7.14286	4.04425	-10.1141
  11	1	2	0.009194	6.09227	5.85159	-9.59645
  12	1	3	-0.517699	7.61863	3.32344	-11.3015
  13	1	4	-0.226077	7.99754	4.34011	-9.49758
  14	1	4	-0.130348	6.49143	3.39093	-9.52383
  15	1	2	0.087114	6.99373	5.95778	-11.104
  16	1	5	0.237906	6.7999	3.12679	-11.874
  17	1	1	-0.185789	2.97877	6.11742	-10.5434
  18	1	1	0.725698	4.20961	6.17776	-11.4898
  19	1	2	0.009194	2.45079	7.07815	-10.5959
  20	1	3	-0.517699	5.08607	5.01838	-11.2734
  21	1	4	-0.226077	3.84851	6.15855	-12.5226
  22	1	4	-0.130348	4.76345	7.11131	-11.3337
  23	1	2	0.087114	2.28933	5.36153	-10.9416
  24	1	5	0.237906	4.51096	4.35307	-10.7584
  25	1	1	-0.185789	2.5652	5.28957	-6.78279
  26	1	1	0.725698	2.15422	5.77952	-8.2021
  27	1	2	0.009194	3.03234	4.2996	-6.86519
  28	1	3	-0.517699	3.29426	5.79619	-9.1244
  29	1	4	-0.226077	1.39676	5.09414	-8.5985
  30	1	4	-0.130348	1.71341	6.78069	-8.13947
  31	1	2	0.087114	1.63226	5.13567	-6.22665
  32	1	5	0.237906	3.95059	6.48019	-8.748
  33	1	1	-0.185789	5.63929	7.22709	-5.45298
  34	1	1	0.725698	4.80777	6.41719	-6.4785
  35	1	2	0.009194	6.59466	7.49831	-5.91797
  36	1	3	-0.517699	3.44652	6.18685	-5.97626
  37	1	4	-0.226077	4.75022	6.97797	-7.41843
  38	1	4	-0.130348	5.29955	5.45708	-6.66959
  39	1	2	0.087114	5.10439	8.16719	-5.26171
  40	1	5	0.237906	3.56716	5.79834	-5.04197
  41	1	1	-0.185789	8.10064	7.37515	-3.32695
  42	1	1	0.725698	6.56584	7.2813	-3.11106
  43	1	2	0.009194	8.49828	8.10225	-2.60754
  44	1	3	-0.517699	5.89008	6.51323	-4.16716
  45	1	4	-0.226077	6.38694	6.77533	-2.15689
  46	1	4	-0.130348	6.13362	8.28675	-3.05257
  47	1	2	0.087114	8.29964	7.78824	-4.32386
  48	1	5	0.237906	6.45275	5.67569	-4.31285
  49	1	1	-0.185789	10.9411	4.78128	-3.11009
  50	1	1	0.725698	10.2857	6.17972	-3.24687
  51	1	2	0.009194	10.4862	4.10846	-3.84735
  52	1	3	-0.517699	8.82304	6.08514	-3.14916
  53	1	4	-0.226077	10.6558	6.8406	-2.45577
  54	1	4	-0.130348	10.5586	6.6119	-4.21621
  55	1	2	0.087114	11.9963	4.88638	-3.39334
  56	1	5	0.237906	8.63101	5.71092	-2.22177
  57	1	1	-0.185789	10.3437	1.76877	-2.08728
  58	1	1	0.725698	11.3859	2.81814	-1.6069
  59	1	2	0.009194	10.7634	0.766768	-1.93415
  60	1	3	-0.517699	10.8645	4.18336	-1.74636
  61	1	4	-0.226077	11.5997	2.63234	-0.549835
  62	1	4	-0.130348	12.3213	2.70715	-2.1681
  63	1	2	0.087114	10.2109	1.87996	-3.1703
  64	1	5	0.237906	9.90363	4.13608	-1.41096
  65	1	1	-0.185789	7.58334	1.60154	0.65526
  66	1	1	0.725698	9.0053	1.80702	0.0490826
  67	1	2	0.009194	7.65719	1.82196	1.72751
  68	1	3	-0.517699	9.01115	1.83919	-1.42191
  69	1	4	-0.226077	9.42533	2.74931	0.414647
  70	1	4	-0.130348	9.64473	0.986134	0.393284
  71	1	2	0.087114	7.3318	0.535936	0.590731
  72	1	5	0.237906	8.41073	1.08456	-1.74751
  73	1	1	-0.185789	4.74299	0.887376	-0.853643
  74	1	1	0.725698	5.84794	1.94307	-1.14829
  75	1	2	0.009194	4.57704	0.304846	-1.76763
  76	1	3	-0.517699	6.48164	2.43635	0.0854727
  77	1	4	-0.226077	6.60034	1.46809	-1.78418
  78	1	4	-0.130348	5.42306	2.78352	-1.70493
  79	1	2	0.087114	5.12737	0.16871	-0.120395
  80	1	5	0.237906	5.72548	2.54963	0.75865
  81	1	1	-0.185789	2.47325	1.91547	-2.67291
  82	1	1	0.725698	2.74878	2.41689	-1.22334
  83	1	2	0.009194	1.9443	2.70674	-3.21898
  84	1	3	-0.517699	3.43057	1.41779	-0.378269
  85	1	4	-0.226077	3.36279	3.32028	-1.27264
  86	1	4	-0.130348	1.79952	2.68751	-0.749341
  87	1	2	0.087114	3.43621	1.79759	-3.18425
  88	1	5	0.237906	2.77197	0.646686	-0.278668
  89	1	1	-0.185789	-0.373851	-0.672291	-2.48709
  90	1	1	0.725698	0.347486	0.670025	-2.21166
  91	1	2	0.009194	-0.45747	-0.805284	-3.57392
  92	1	3	-0.517699	1.69797	0.648323	-2.79015
  93	1	4	-0.226077	0.417433	0.85057	-1.13429
  94	1	4	-0.130348	-0.226521	1.48319	-2.66956
  95	1	2	0.087114	-1.39804	-0.590995	-2.10106
  96	1	5	0.237906	1.58652	0.406085	-3.77219
  97	1	1	-0.185789	0.407528	-4.3458	-1.6003
  98	1	1	0.725698	-0.28351	-3.14961	-2.30198
  99	1	2	0.009194	1.47872	-4.32752	-1.84158
 100	1	3	-0.517699	0.288696	-1.86372	-1.89058
 101	1	4	-0.226077	-0.146484	-3.25543	-3.38376
 102	1	4	-0.130348	-1.35799	-3.17077	-2.08517
 103	1	2	0.087114	0.00531711	-5.26188	-2.05158
 104	1	5	0.237906	1.27195	-1.88786	-2.15401
 105	1	1	-0.185789	0.672031	-5.5552	2.05806
 106	1	1	0.725698	0.82838	-5.58025	0.512095
 107	1	2	0.009194	1.21121	-6.42447	2.45523
 108	1	3	-0.517699	0.236945	-4.397	-0.120525
 109	1	4	-0.226077	1.8945	-5.62106	0.266066
 110	1	4	-0.130348	0.349566	-6.4795	0.107897
 111	1	2	0.087114	1.20172	-4.67219	2.43704
 112	1	5	0.237906	-0.74865	-4.39047	0.131985
 113	1	1	-0.185789	-2.78197	-6.91081	3.06067
 114	1	1	0.725698	-1.61399	-6.61	2.08077
 115	1	2	0.009194	-2.39237	-7.4966	3.90255
 116	1	3	-0.517699	-0.714033	-5.57944	2.61476
 117	1	4	-0.226077	-1.05117	-7.53299	1.91488
 118	1	4	-0.130348	-2.00864	-6.26719	1.11674
 119	1	2	0.087114	-3.47462	-7.57665	2.53096
 120	1	5	0.237906	-0.65611	-5.74105	3.61819
 121	1	1	-0.185789	-4.00654	-6.24428	5.98088
 122	1	1	0.725698	-3.31421	-5.30348	4.95312
 123	1	2	0.009194	-5.05616	-6.37553	5.6874
 124	1	3	-0.517699	-3.54106	-5.72422	3.55919
 125	1	4	-0.226077	-3.73323	-4.2975	5.05902
 126	1	4	-0.130348	-2.23607	-5.24584	5.14613
 127	1	2	0.087114	-3.53622	-7.2333	5.91248
 128	1	5	0.237906	-3.35209	-4.91597	2.96969
 129	1	1	-0.185789	-4.37377	-6.21691	9.84018
 130	1	1	0.725698	-4.54226	-6.70328	8.37061
 131	1	2	0.009194	-3.40033	-5.72226	9.957
 132	1	3	-0.517699	-3.96313	-5.76821	7.39402
 133	1	4	-0.226077	-4.02154	-7.66223	8.2694
 134	1	4	-0.130348	-5.60284	-6.86707	8.14985
 135	1	2	0.087114	-4.32327	-7.1212	10.4592
 136	1	5	0.237906	-4.4771	-4.89372	7.48401
 137	1	1	-0.185789	-6.71815	-3.18126	10.4755
 138	1	1	0.725698	-5.65063	-4.04405	9.74213
 139	1	2	0.009194	-6.70861	-2.18179	10.0231
 140	1	3	-0.517699	-5.45528	-5.34659	10.39
 141	1	4	-0.226077	-5.9387	-4.19924	8.69569
 142	1	4	-0.130348	-4.69875	-3.50242	9.75458
 143	1	2	0.087114	-6.39912	-3.05148	11.5178
 144	1	5	0.237906	-5.27292	-5.15866	11.3728
 145	1	1	-0.185789	-10.5529	-3.46103	10.8505
 146	1	1	0.725698	-9.14139	-2.83625	11.0241
 147	1	2	0.009194	-10.5629	-4.41571	11.3923
 148	1	3	-0.517699	-8.11154	-3.70988	10.439
 149	1	4	-0.226077	-9.11816	-1.86556	10.5161
 150	1	4	-0.130348	-8.93403	-2.67658	12.089
 151	1	2	0.087114	-11.2884	-2.81461	11.346
 152	1	5	0.237906	-8.40388	-3.87008	9.47668
 153	1	1	-0.185789	-13.408	-4.26993	9.23602
 154	1	1	0.725698	-11.93	-4.73716	9.14556
 155	1	2	0.009194	-14.0291	-5.1733	9.17978
 156	1	3	-0.517699	-10.9403	-3.68661	9.42688
 157	1	4	-0.226077	-11.7713	-5.58042	9.82445
 158	1	4	-0.130348	-11.7607	-5.09429	8.12354
 159	1	2	0.087114	-13.5937	-3.83095	10.225
 160	1	5	0.237906	-11.2301	-2.82581	8.96544
 161	1	1	-0.185789	-15.6781	-2.09385	7.01169
 162	1	1	0.725698	-15.2887	-3.29223	7.9215
 163	1	2	0.009194	-14.9505	-1.99985	6.19572
 164	1	3	-0.517699	-13.8378	-3.32695	8.16336
 165	1	4	-0.226077	-15.827	-3.2145	8.87101
 166	1	4	-0.130348	-15.583	-4.22751	7.43042
 167	1	2	0.087114	-15.5782	-1.18583	7.62037
 168	1	5	0.237906	-13.4278	-3.60249	7.27278
 169	1	1	-0.185789	-19.5051	-2.16605	6.65464
 170	1	1	0.725698	-18.1519	-2.49985	7.3012
 171	1	2	0.009194	-20.3299	-2.5271	7.28136
 172	1	3	-0.517699	-17.0436	-2.12945	6.4095
 173	1	4	-0.226077	-18.061	-1.9656	8.25041
 174	1	4	-0.130348	-18.1003	-3.57736	7.49383
 175	1	2	0.087114	-19.5907	-2.63639	5.66886
 176	1	5	0.237906	-17.0688	-2.77614	5.62439
 177	1	5	0	8.877	-0.530276	-10.9089
 178	1	2	0	-19.6191	-1.0815	6.53196

Velocities

   1	0.000248187	0.00126468	-3.85207e-05
   2	0.000820323	-0.000317252	-0.00175029
   3	-0.000912836	0.00160926	0.00137441
   4	0.00120855	3.86822e-05	-0.00280508
   5	0.00147641	-0.00104094	-0.00103438
   6	-5.08986e-05	0.00087142	-0.00138452
   7	0.00188252	0.00239258	0.000114953
   8	0.00329668	0.002599	0.00525327
   9	-0.000379366	-8.4314e-05	0.000865178
  10	-0.000672585	0.000150973	0.000995723
  11	-0.0010489	-0.000208978	0.000880117
  12	-0.00064223	0.000195131	0.000641909
  13	-0.000502534	-9.27789e-05	0.000954749
  14	-0.000436666	-0.000102607	0.000755615
  15	-0.000198576	4.16086e-05	0.00139716
  16	-0.00132352	-0.000210423	0.00137841
  17	0.000401011	-6.91579e-05	0.000213862
  18	0.000118385	-0.000428383	-0.000346464
  19	0.000497721	-3.52188e-05	7.02429e-05
  20	0.000299686	-0.00014254	7.68229e-05
  21	-0.000294288	-0.0010211	-0.000222691
  22	0.000172722	-0.000336934	-0.00110189
  23	0.000319679	-9.68313e-05	0.000452637
  24	-6.69007e-05	-0.000595409	-0.000712721
  25	0.000884083	-1.25425e-05	0.000173873
  26	0.00088277	0.000357718	0.000291942
  27	0.000650105	-0.00014743	-3.80668e-05
  28	0.000707264	0.000110888	0.000135332
  29	0.000572997	0.000651482	0.000336128
  30	0.00123819	0.000474972	0.000533014
  31	0.000916333	9.40882e-05	0.000265716
  32	0.000916364	4.56934e-05	-8.22621e-05
  33	0.00139343	-0.000748416	-6.02463e-05
  34	0.00109993	-0.000425213	-3.19952e-05
  35	0.00202897	-0.00225233	0.000348542
  36	0.0011809	-0.000364822	0.000228404
  37	0.000962563	-0.000219395	0.000102628
  38	0.0009022	-0.000452966	-0.000328724
  39	0.00239645	2.8146e-05	-0.00107715
  40	0.00136889	-0.0006311	0.000106782
  41	-0.00085372	0.000307354	0.00136313
  42	-0.000894156	1.77603e-05	0.000895631
  43	-0.000947914	-0.000541995	0.00225424
  44	-0.000343391	-0.000119675	0.000633956
  45	-0.00112479	-7.02292e-05	0.000792002
  46	-0.0011248	-7.09275e-05	0.000764029
  47	-0.000693435	0.0014439	0.00188816
  48	-0.000695431	-0.000520856	0.00164809
  49	-0.00144682	-0.000487381	-0.00106957
  50	-0.00112944	-0.000447631	-0.00190897
  51	-0.00165858	-0.000939322	-0.000509697
  52	-0.00101071	5.53977e-05	3.00687e-05
  53	6.04373e-05	0.000266615	-0.00307565
  54	-0.00216552	-0.0015782	-0.00270635
  55	-0.00144785	-0.000896177	-0.00120995
  56	3.48031e-05	-8.17595e-05	0.000214301
  57	0.00110307	-0.000191277	0.00086448
  58	-0.000313543	0.00121543	0.000855385
  59	0.00185693	0.000347567	0.00236907
  60	-0.00153733	0.000583172	-0.000617516
  61	-0.000975712	0.00231918	0.00116841
  62	0.000269444	0.00173053	0.00170467
  63	0.00212423	-0.00144327	0.000601809
  64	-0.00169529	-7.32717e-05	-0.00113059
  65	-0.000646475	0.000299353	-0.000929587
  66	-0.000507817	0.000576256	-0.000408051
  67	-0.00111182	0.000653033	-0.000967026
  68	0.000412358	-0.000639494	-0.000435549
  69	-0.00125827	0.00111912	-0.000957916
  70	-0.000251002	0.00121246	0.000604325
  71	-0.000365143	0.000210828	-0.000695322
  72	0.00128593	-0.0013969	-0.000307704
  73	-4.22304e-05	-0.000682295	-0.00125205
  74	-6.74829e-05	-0.000753001	-0.00151149
  75	-0.000643744	-0.000345593	-0.00137056
  76	-0.000616611	-0.000115931	-0.00148543
  77	0.000183432	-0.000923712	-0.00106465
  78	-6.20583e-05	-0.00108777	-0.0019818
  79	0.000192249	-0.000999363	-0.00167304
  80	-0.000924447	-0.000245622	-0.00183919
  81	-0.000302099	0.00103085	0.0005317
  82	0.00053257	0.00034828	0.000561006
  83	-0.00105603	0.00104829	0.00125805
  84	0.000325337	-0.000541986	-0.000377733
  85	0.00097642	5.12315e-05	0.000767889
  86	0.000859663	0.000543269	0.00107471
  87	-0.000580833	0.00170115	-0.000201438
  88	3.44167e-05	-0.000382967	-0.00100345
  89	0.000664531	0.000190426	-1.3601e-05
  90	0.000493722	1.14672e-05	0.00106452
  91	0.00185719	0.000414292	-0.000111904
  92	0.000324548	0.000692417	0.000601478
  93	0.000781141	-0.000872447	0.00123042
  94	0.000244331	0.000314322	0.00193882
  95	0.000255891	0.000205242	-0.00112394
  96	5.32393e-05	0.000728373	0.000650185
  97	-0.001078	2.76538e-05	0.000735617
  98	-0.00146104	0.000217418	0.00146071
  99	-0.00121276	0.000210111	0.000372387
 100	-0.000107118	-3.45035e-05	0.000404027
 101	-0.00316134	-8.05984e-05	0.0012637
 102	-0.00119903	0.000937108	0.00304469
 103	-0.00120142	0.00014704	0.000655076
 104	-0.000253993	-0.00102044	3.00754e-05
 105	4.46014e-05	0.000197951	0.000719378
 106	-0.000631713	-0.000296409	0.000658974
 107	0.000515645	0.000596076	0.000836821
 108	-0.00066059	-0.000231464	0.000858561
 109	-0.00078139	-0.000682844	8.58487e-05
 110	-0.00112933	-0.000250542	0.00102389
 111	-0.000135004	0.000558481	0.000109995
 112	-0.00057437	-0.000147667	0.00101139
 113	-0.000594106	0.000544054	0.000824092
 114	0.00065431	-0.000820612	0.00187512
 115	-0.00195313	0.000259611	0.00121768
 116	0.000172875	-5.84163e-05	0.00123721
 117	0.000822011	-0.00109515	0.00398254
 118	0.00181281	-0.00226758	0.000925769
 119	-0.000687828	0.00113751	0.000224114
 120	0.000410305	0.000695428	0.00131071
 121	-0.000688326	0.000716186	-0.000256319
 122	-0.000925885	0.00130074	8.42518e-05
 123	-0.000377451	-0.000365261	-0.000864271
 124	-7.44332e-05	0.00122542	-2.79162e-05
 125	-0.00155067	0.00103636	4.47647e-05
 126	-0.00103726	0.00187572	0.000552289
 127	0.00032728	0.00116897	0.000153611
 128	0.000703593	0.0010134	-8.72201e-05
 129	-0.00134065	0.000241059	-0.000499842
 130	-0.000575904	2.11654e-06	-0.000469403
 131	-0.00118358	-0.00018603	5.23229e-05
 132	-0.00188352	0.000884765	-0.000343253
 133	0.000885938	0.00079348	-0.000394963
 134	-0.000298405	-0.0015892	-0.000538845
 135	-0.00229193	0.00039074	-0.00022467
 136	-0.00342074	1.59855e-05	-0.000544472
 137	-0.00019767	0.000978154	-0.00190076
 138	0.000329291	0.00123	-0.00127549
 139	-0.000703399	0.000893943	-0.00204347
 140	-0.00117094	0.000953959	-0.00157102
 141	0.00142141	0.0018378	-0.00166673
 142	0.00047207	0.000894506	0.000153518
 143	-0.000462753	0.0012219	-0.00188024
 144	-0.00218703	0.000657626	-0.00125011
 145	0.000258882	-0.00184927	-0.00155998
 146	-0.000224214	-0.000918529	-0.00159341
 147	0.000593713	-0.00165636	-0.00121206
 148	0.000255874	-5.99311e-05	-0.00194467
 149	-0.000935127	-0.000824068	-0.0014925
 150	-0.000109209	-0.000982759	-0.00159504
 151	-0.000184468	-0.0019757	-0.00213415
 152	0.000221419	-0.00012758	-0.00196892
 153	0.000710828	-0.00135534	-0.000453071
 154	0.000373525	-0.00199148	-0.00148205
 155	0.000344341	-0.000901227	-0.00218838
 156	0.000964436	-0.00250899	-0.00155533
 157	0.00044187	-0.00242349	-0.00187201
 158	-0.000297	-0.00159895	-0.00175938
 159	0.000959168	-0.00317583	0.000371515
 160	0.00135578	-0.00260548	-0.00202415
 161	0.0012903	0.000387764	0.000340642
 162	0.00120684	0.00115638	0.00139618
 163	0.00105003	-0.000838725	-0.000106633
 164	0.00104041	0.00086341	0.00130886
 165	0.00118826	0.00198085	0.0014196
 166	0.000884068	0.00101269	0.00205567
 167	0.00158704	0.00114245	-0.000860151
 168	0.00113998	0.0025444	0.000877566
 169	0.0013117	-0.000508147	0.000322284
 170	0.00133433	0.00156869	0.00177889
 171	0.00133561	0.000690581	0.00101178
 172	0.0012397	-0.000422771	0.000792442
 173	0.000826661	0.00427485	2.02324e-05
 174	0.0018091	0.00196599	0.00489073
 175	0.00161042	-0.00328506	0.00133205
 176	0.0011492	-0.00192336	0.00184922
 177	-0.00625422	-0.0051018	-0.00380131
 178	0.00113219	-0.000924437	-0.00259261

Bonds

   1	4	1	2
   2	5	1	3
   3	5	1	7
   4	2	2	4
   5	1	2	5
   6	1	2	6
   7	3	4	8
   8	4	9	10
   9	5	9	11
  10	5	9	15
  11	2	10	12
  12	1	10	13
  13	1	10	14
  14	3	12	16
  15	2	1	12
  16	4	17	18
  17	5	17	19
  18	5	17	23
  19	2	18	20
  20	1	18	21
  21	1	18	22
  22	3	20	24
  23	2	9	20
  24	4	25	26
  25	5	25	27
  26	5	25	31
  27	2	26	28
  28	1	26	29
  29	1	26	30
  30	3	28	32
  31	2	17	28
  32	4	33	34
  33	5	33	35
  34	5	33	39
  35	2	34	36
  36	1	34	37
  37	1	34	38
  38	3	36	40
  39	2	25	36
  40	4	41	42
  41	5	41	43
  42	5	41	47
  43	2	42	44
  44	1	42	45
  45	1	42	46
  46	3	44	48
  47	2	33	44
  48	4	49	50
  49	5	49	51
  50	5	49	55
  51	2	50	52
  52	1	50	53
  53	1	50	54
  54	3	52	56
  55	2	41	52
  56	4	57	58
  57	5	57	59
  58	5	57	63
  59	2	58	60
  60	1	58	61
  61	1	58	62
  62	3	60	64
  63	2	49	60
  64	4	65	66
  65	5	65	67
  66	5	65	71
  67	2	66	68
  68	1	66	69
  69	1	66	70
  70	3	68	72
  71	2	57	68
  72	4	73	74
  73	5	73	75
  74	5	73	79
  75	2	74	76
  76	1	74	77
  77	1	74	78
  78	3	76	80
  79	2	65	76
  80	4	81	82
  81	5	81	83
  82	5	81	87
  83	2	82	84
  84	1	82	85
  85	1	82	86
  86	3	84	88
  87	2	73	84
  88	4	89	90
  89	5	89	91
  90	5	89	95
  91	2	90	92
  92	1	90	93
  93	1	90	94
  94	3	92	96
  95	2	81	92
  96	4	97	98
  97	5	97	99
  98	5	97	103
  99	2	98	100
 100	1	98	101
 101	1	98	102
 102	3	100	104
 103	2	89	100
 104	4	105	106
 105	5	105	107
 106	5	105	111
 107	2	106	108
 108	1	106	109
 109	1	106	110
 110	3	108	112
 111	2	97	108
 112	4	113	114
 113	5	113	115
 114	5	113	119
 115	2	114	116
 116	1	114	117
 117	1	114	118
 118	3	116	120
 119	2	105	116
 120	4	121	122
 121	5	121	123
 122	5	121	127
 123	2	122	124
 124	1	122	125
 125	1	122	126
 126	3	124	128
 127	2	113	124
 128	4	129	130
 129	5	129	131
 130	5	129	135
 131	2	130	132
 132	1	130	133
 133	1	130	134
 134	3	132	136
 135	2	121	132
 136	4	137	138
 137	5	137	139
 138	5	137	143
 139	2	138	140
 140	1	138	141
 141	1	138	142
 142	3	140	144
 143	2	129	140
 144	4	145	146
 145	5	145	147
 146	5	145	151
 147	2	146	148
 148	1	146	149
 149	1	146	150
 150	3	148	152
 151	2	137	148
 152	4	153	154
 153	5	153	155
 154	5	153	159
 155	2	154	156
 156	1	154	157
 157	1	154	158
 158	3	156	160
 159	2	145	156
 160	4	161	162
 161	5	161	163
 162	5	161	167
 163	2	162	164
 164	1	162	165
 165	1	162	166
 166	3	164	168
 167	2	153	164
 168	4	169	170
 169	5	169	171
 170	5	169	175
 171	2	170	172
 172	1	170	173
 173	1	170	174
 174	3	172	176
 175	2	161	172
 176	3	4	177
 177	5	169	178

Angles

   1	4	2	1	3
   2	4	2	1	7
   3	7	3	1	7
   4	2	1	2	4
   5	6	1	2	5
   6	6	1	2	6
   7	1	4	2	5
   8	1	4	2	6
   9	8	5	2	6
  10	5	2	4	8
  11	4	10	9	11
  12	4	10	9	15
  13	7	11	9	15
  14	2	9	10	12
  15	6	9	10	13
  16	6	9	10	14
  17	1	12	10	13
  18	1	12	10	14
  19	8	13	10	14
  20	5	10	12	16
  21	2	2	1	12
  22	9	3	1	12
  23	9	7	1	12
  24	10	1	12	10
  25	5	1	12	16
  26	4	18	17	19
  27	4	18	17	23
  28	7	19	17	23
  29	2	17	18	20
  30	6	17	18	21
  31	6	17	18	22
  32	1	20	18	21
  33	1	20	18	22
  34	8	21	18	22
  35	5	18	20	24
  36	2	10	9	20
  37	9	11	9	20
  38	9	15	9	20
  39	10	9	20	18
  40	5	9	20	24
  41	4	26	25	27
  42	4	26	25	31
  43	7	27	25	31
  44	2	25	26	28
  45	6	25	26	29
  46	6	25	26	30
  47	1	28	26	29
  48	1	28	26	30
  49	8	29	26	30
  50	5	26	28	32
  51	2	18	17	28
  52	9	19	17	28
  53	9	23	17	28
  54	10	17	28	26
  55	5	17	28	32
  56	4	34	33	35
  57	4	34	33	39
  58	7	35	33	39
  59	2	33	34	36
  60	6	33	34	37
  61	6	33	34	38
  62	1	36	34	37
  63	1	36	34	38
  64	8	37	34	38
  65	5	34	36	40
  66	2	26	25	36
  67	9	27	25	36
  68	9	31	25	36
  69	10	25	36	34
  70	5	25	36	40
  71	4	42	41	43
  72	4	42	41	47
  73	7	43	41	47
  74	2	41	42	44
  75	6	41	42	45
  76	6	41	42	46
  77	1	44	42	45
  78	1	44	42	46
  79	8	45	42	46
  80	5	42	44	48
  81	2	34	33	44
  82	9	35	33	44
  83	9	39	33	44
  84	10	33	44	42
  85	5	33	44	48
  86	4	50	49	51
  87	4	50	49	55
  88	7	51	49	55
  89	2	49	50	52
  90	6	49	50	53
  91	6	49	50	54
  92	1	52	50	53
  93	1	52	50	54
  94	8	53	50	54
  95	5	50	52	56
  96	2	42	41	52
  97	9	43	41	52
  98	9	47	41	52
  99	10	41	52	50
 100	5	41	52	56
 101	4	58	57	59
 102	4	58	57	63
 103	7	59	57	63
 104	2	57	58	60
 105	6	57	58	61
 106	6	57	58	62
 107	1	60	58	61
 108	1	60	58	62
 109	8	61	58	62
 110	5	58	60	64
 111	2	50	49	60
 112	9	51	49	60
 113	9	55	49	60
 114	10	49	60	58
 115	5	49	60	64
 116	4	66	65	67
 117	4	66	65	71
 118	7	67	65	71
 119	2	65	66	68
 120	6	65	66	69
 121	6	65	66	70
 122	1	68	66	69
 123	1	68	66	70
 124	8	69	66	70
 125	5	66	68	72
 126	2	58	57	68
 127	9	59	57	68
 128	9	63	57	68
 129	10	57	68	66
 130	5	57	68	72
 131	4	74	73	75
 132	4	74	73	79
 133	7	75	73	79
 134	2	73	74	76
 135	6	73	74	77
 136	6	73	74	78
 137	1	76	74	77
 138	1	76	74	78
 139	8	77	74	78
 140	5	74	76	80
 141	2	66	65	76
 142	9	67	65	76
 143	9	71	65	76
 144	10	65	76	74
 145	5	65	76	80
 146	4	82	81	83
 147	4	82	81	87
 148	7	83	81	87
 149	2	81	82	84
 150	6	81	82	85
 151	6	81	82	86
 152	1	84	82	85
 153	1	84	82	86
 154	8	85	82	86
 155	5	82	84	88
 156	2	74	73	84
 157	9	75	73	84
 158	9	79	73	84
 159	10	73	84	82
 160	5	73	84	88
 161	4	90	89	91
 162	4	90	89	95
 163	7	91	89	95
 164	2	89	90	92
 165	6	89	90	93
 166	6	89	90	94
 167	1	92	90	93
 168	1	92	90	94
 169	8	93	90	94
 170	5	90	92	96
 171	2	82	81	92
 172	9	83	81	92
 173	9	87	81	92
 174	10	81	92	90
 175	5	81	92	96
 176	4	98	97	99
 177	4	98	97	103
 178	7	99	97	103
 179	2	97	98	100
 180	6	97	98	101
 181	6	97	98	102
 182	1	100	98	101
 183	1	100	98	102
 184	8	101	98	102
 185	5	98	100	104
 186	2	90	89	100
 187	9	91	89	100
 188	9	95	89	100
 189	10	89	100	98
 190	5	89	100	104
 191	4	106	105	107
 192	4	106	105	111
 193	7	107	105	111
 194	2	105	106	108
 195	6	105	106	109
 196	6	105	106	110
 197	1	108	106	109
 198	1	108	106	110
 199	8	109	106	110
 200	5	106	108	112
 201	2	98	97	108
 202	9	99	97	108
 203	9	103	97	108
 204	10	97	108	106
 205	5	97	108	112
 206	4	114	113	115
 207	4	114	113	119
 208	7	115	113	119
 209	2	113	114	116
 210	6	113	114	117
 211	6	113	114	118
 212	1	116	114	117
 213	1	116	114	118
 214	8	117	114	118
 215	5	114	116	120
 216	2	106	105	116
 217	9	107	105	116
 218	9	111	105	116
 219	10	105	116	114
 220	5	105	116	120
 221	4	122	121	123
 222	4	122	121	127
 223	7	123	121	127
 224	2	121	122	124
 225	6	121	122	125
 226	6	121	122	126
 227	1	124	122	125
 228	1	124	122	126
 229	8	125	122	126
 230	5	122	124	128
 231	2	114	113	124
 232	9	115	113	124
 233	9	119	113	124
 234	10	113	124	122
 235	5	113	124	128
 236	4	130	129	131
 237	4	130	129	135
 238	7	131	129	135
 239	2	129	130	132
 240	6	129	130	133
 241	6	129	130	134
 242	1	132	130	133
 243	1	132	130	134
 244	8	133	130	134
 245	5	130	132	136
 246	2	122	121	132
 247	9	123	121	132
 248	9	127	121	132
 249	10	121	132	130
 250	5	121	132	136
 251	4	138	137	139
 252	4	138	137	143
 253	7	139	137	143
 254	2	137	138	140
 255	6	137	138	141
 256	6	137	138	142
 257	1	140	138	141
 258	1	140	138	142
 259	8	141	138	142
 260	5	138	140	144
 261	2	130	129	140
 262	9	131	129	140
 263	9	135	129	140
 264	10	129	140	138
 265	5	129	140	144
 266	4	146	145	147
 267	4	146	145	151
 268	7	147	145	151
 269	2	145	146	148
 270	6	145	146	149
 271	6	145	146	150
 272	1	148	146	149
 273	1	148	146	150
 274	8	149	146	150
 275	5	146	148	152
 276	2	138	137	148
 277	9	139	137	148
 278	9	143	137	148
 279	10	137	148	146
 280	5	137	148	152
 281	4	154	153	155
 282	4	154	153	159
 283	7	155	153	159
 284	2	153	154	156
 285	6	153	154	157
 286	6	153	154	158
 287	1	156	154	157
 288	1	156	154	158
 289	8	157	154	158
 290	5	154	156	160
 291	2	146	145	156
 292	9	147	145	156
 293	9	151	145	156
 294	10	145	156	154
 295	5	145	156	160
 296	4	162	161	163
 297	4	162	161	167
 298	7	163	161	167
 299	2	161	162	164
 300	6	161	162	165
 301	6	161	162	166
 302	1	164	162	165
 303	1	164	162	166
 304	8	165	162	166
 305	5	162	164	168
 306	2	154	153	164
 307	9	155	153	164
 308	9	159	153	164
 309	10	153	164	162
 310	5	153	164	168
 311	4	170	169	171
 312	4	170	169	175
 313	7	171	169	175
 314	2	169	170	172
 315	6	169	170	173
 316	6	169	170	174
 317	1	172	170	173
 318	1	172	170	174
 319	8	173	170	174
 320	5	170	172	176
 321	2	162	161	172
 322	9	163	161	172
 323	9	167	161	172
 324	10	161	172	170
 325	5	161	172	176
 326	5	2	4	177
 327	3	8	4	177
 328	4	170	169	178
 329	7	171	169	178
 330	7	175	169	178

Dihedrals

   1	1	3	1	2	4
   2	1	3	1	2	5
   3	1	3	1	2	6
   4	1	7	1	2	4
   5	1	7	1	2	5
   6	1	7	1	2	6
   7	2	1	2	4	8
   8	2	5	2	4	8
   9	2	6	2	4	8
  10	1	11	9	10	12
  11	1	11	9	10	13
  12	1	11	9	10	14
  13	1	15	9	10	12
  14	1	15	9	10	13
  15	1	15	9	10	14
  16	2	9	10	12	16
  17	2	13	10	12	16
  18	2	14	10	12	16
  19	1	4	2	1	12
  20	1	5	2	1	12
  21	1	6	2	1	12
  22	3	1	12	10	9
  23	2	1	12	10	13
  24	2	1	12	10	14
  25	3	2	1	12	10
  26	2	2	1	12	16
  27	2	3	1	12	10
  28	2	3	1	12	16
  29	2	7	1	12	10
  30	2	7	1	12	16
  31	1	19	17	18	20
  32	1	19	17	18	21
  33	1	19	17	18	22
  34	1	23	17	18	20
  35	1	23	17	18	21
  36	1	23	17	18	22
  37	2	17	18	20	24
  38	2	21	18	20	24
  39	2	22	18	20	24
  40	1	12	10	9	20
  41	1	13	10	9	20
  42	1	14	10	9	20
  43	3	9	20	18	17
  44	2	9	20	18	21
  45	2	9	20	18	22
  46	3	10	9	20	18
  47	2	10	9	20	24
  48	2	11	9	20	18
  49	2	11	9	20	24
  50	2	15	9	20	18
  51	2	15	9	20	24
  52	1	27	25	26	28
  53	1	27	25	26	29
  54	1	27	25	26	30
  55	1	31	25	26	28
  56	1	31	25	26	29
  57	1	31	25	26	30
  58	2	25	26	28	32
  59	2	29	26	28	32
  60	2	30	26	28	32
  61	1	20	18	17	28
  62	1	21	18	17	28
  63	1	22	18	17	28
  64	3	17	28	26	25
  65	2	17	28	26	29
  66	2	17	28	26	30
  67	3	18	17	28	26
  68	2	18	17	28	32
  69	2	19	17	28	26
  70	2	19	17	28	32
  71	2	23	17	28	26
  72	2	23	17	28	32
  73	1	35	33	34	36
  74	1	35	33	34	37
  75	1	35	33	34	38
  76	1	39	33	34	36
  77	1	39	33	34	37
  78	1	39	33	34	38
  79	2	33	34	36	40
  80	2	37	34	36	40
  81	2	38	34	36	40
  82	1	28	26	25	36
  83	1	29	26	25	36
  84	1	30	26	25	36
  85	3	25	36	34	33
  86	2	25	36	34	37
  87	2	25	36	34	38
  88	3	26	25	36	34
  89	2	26	25	36	40
  90	2	27	25	36	34
  91	2	27	25	36	40
  92	2	31	25	36	34
  93	2	31	25	36	40
  94	1	43	41	42	44
  95	1	43	41	42	45
  96	1	43	41	42	46
  97	1	47	41	42	44
  98	1	47	41	42	45
  99	1	47	41	42	46
 100	2	41	42	44	48
 101	2	45	42	44	48
 102	2	46	42	44	48
 103	1	36	34	33	44
 104	1	37	34	33	44
 105	1	38	34	33	44
 106	3	33	44	42	41
 107	2	33	44	42	45
 108	2	33	44	42	46
 109	3	34	33	44	42
 110	2	34	33	44	48
 111	2	35	33	44	42
 112	2	35	33	44	48
 113	2	39	33	44	42
 114	2	39	33	44	48
 115	1	51	49	50	52
 116	1	51	49	50	53
 117	1	51	49	50	54
 118	1	55	49	50	52
 119	1	55	49	50	53
 120	1	55	49	50	54
 121	2	49	50	52	56
 122	2	53	50	52	56
 123	2	54	50	52	56
 124	1	44	42	41	52
 125	1	45	42	41	52
 126	1	46	42	41	52
 127	3	41	52	50	49
 128	2	41	52	50	53
 129	2	41	52	50	54
 130	3	42	41	52	50
 131	2	42	41	52	56
 132	2	43	41	52	50
 133	2	43	41	52	56
 134	2	47	41	52	50
 135	2	47	41	52	56
 136	1	59	57	58	60
 137	1	59	57	58	61
 138	1	59	57	58	62
 139	1	63	57	58	60
 140	1	63	57	58	61
 141	1	63	57	58	62
 142	2	57	58	60	64
 143	2	61	58	60	64
 144	2	62	58	60	64
 145	1	52	50	49	60
 146	1	53	50	49	60
 147	1	54	50	49	60
 148	3	49	60	58	57
 149	2	49	60	58	61
 150	2	49	60	58	62
 151	3	50	49	60	58
 152	2	50	49	60	64
 153	2	51	49	60	58
 154	2	51	49	60	64
 155	2	55	49	60	58
 156	2	55	49	60	64
 157	1	67	65	66	68
 158	1	67	65	66	69
 159	1	67	65	66	70
 160	1	71	65	66	68
 161	1	71	65	66	69
 162	1	71	65	66	70
 163	2	65	66	68	72
 164	2	69	66	68	72
 165	2	70	66	68	72
 166	1	60	58	57	68
 167	1	61	58	57	68
 168	1	62	58	57	68
 169	3	57	68	66	65
 170	2	57	68	66	69
 171	2	57	68	66	70
 172	3	58	57	68	66
 173	2	58	57	68	72
 174	2	59	57	68	66
 175	2	59	57	68	72
 176	2	63	57	68	66
 177	2	63	57	68	72
 178	1	75	73	74	76
 179	1	75	73	74	77
 180	1	75	73	74	78
 181	1	79	73	74	76
 182	1	79	73	74	77
 183	1	79	73	74	78
 184	2	73	74	76	80
 185	2	77	74	76	80
 186	2	78	74	76	80
 187	1	68	66	65	76
 188	1	69	66	65	76
 189	1	70	66	65	76
 190	3	65	76	74	73
 191	2	65	76	74	77
 192	2	65	76	74	78
 193	3	66	65	76	74
 194	2	66	65	76	80
 195	2	67	65	76	74
 196	2	67	65	76	80
 197	2	71	65	76	74
 198	2	71	65	76	80
 199	1	83	81	82	84
 200	1	83	81	82	85
 201	1	83	81	82	86
 202	1	87	81	82	84
 203	1	87	81	82	85
 204	1	87	81	82	86
 205	2	81	82	84	88
 206	2	85	82	84	88
 207	2	86	82	84	88
 208	1	76	74	73	84
 209	1	77	74	73	84
 210	1	78	74	73	84
 211	3	73	84	82	81
 212	2	73	84	82	85
 213	2	73	84	82	86
 214	3	74	73	84	82
 215	2	74	73	84	88
 216	2	75	73	84	82
 217	2	75	73	84	88
 218	2	79	73	84	82
 219	2	79	73	84	88
 220	1	91	89	90	92
 221	1	91	89	90	93
 222	1	91	89	90	94
 223	1	95	89	90	92
 224	1	95	89	90	93
 225	1	95	89	90	94
 226	2	89	90	92	96
 227	2	93	90	92	96
 228	2	94	90	92	96
 229	1	84	82	81	92
 230	1	85	82	81	92
 231	1	86	82	81	92
 232	3	81	92	90	89
 233	2	81	92	90	93
 234	2	81	92	90	94
 235	3	82	81	92	90
 236	2	82	81	92	96
 237	2	83	81	92	90
 238	2	83	81	92	96
 239	2	87	81	92	90
 240	2	87	81	92	96
 241	1	99	97	98	100
 242	1	99	97	98	101
 243	1	99	97	98	102
 244	1	103	97	98	100
 245	1	103	97	98	101
 246	1	103	97	98	102
 247	2	97	98	100	104
 248	2	101	98	100	104
 249	2	102	98	100	104
 250	1	92	90	89	100
 251	1	93	90	89	100
 252	1	94	90	89	100
 253	3	89	100	98	97
 254	2	89	100	98	101
 255	2	89	100	98	102
 256	3	90	89	100	98
 257	2	90	89	100	104
 258	2	91	89	100	98
 259	2	91	89	100	104
 260	2	95	89	100	98
 261	2	95	89	100	104
 262	1	107	105	106	108
 263	1	107	105	106	109
 264	1	107	105	106	110
 265	1	111	105	106	108
 266	1	111	105	106	109
 267	1	111	105	106	110
 268	2	105	106	108	112
 269	2	109	106	108	112
 270	2	110	106	108	112
 271	1	100	98	97	108
 272	1	101	98	97	108
 273	1	102	98	97	108
 274	3	97	108	106	105
 275	2	97	108	106	109
 276	2	97	108	106	110
 277	3	98	97	108	106
 278	2	98	97	108	112
 279	2	99	97	108	106
 280	2	99	97	108	112
 281	2	103	97	108	106
 282	2	103	97	108	112
 283	1	115	113	114	116
 284	1	115	113	114	117
 285	1	115	113	114	118
 286	1	119	113	114	116
 287	1	119	113	114	117
 288	1	119	113	114	118
 289	2	113	114	116	120
 290	2	117	114	116	120
 291	2	118	114	116	120
 292	1	108	106	105	116
 293	1	109	106	105	116
 294	1	110	106	105	116
 295	3	105	116	114	113