pySIMM System Object

346 atoms
345 bonds
645 angles
897 dihedrals
0 impropers

5 atom types
5 bond types
10 angle types
3 dihedral types

-90.905305 90.905305 xlo xhi
-90.905305 90.905305 ylo yhi
-90.905305 90.905305 zlo zhi

Masses

   1	12.01	# c3
   2	1.008	# hc
   3	14.01	# n3
   4	1.008	# h1
   5	1.008	# hn

Pair Coeffs

   1	0.1094	3.3996695084235347	# c3
   2	0.0157	2.649532787749369	# hc
   3	0.17	3.249998523775958	# n3
   4	0.0157	2.471353044121301	# h1
   5	0.0157	1.069078461768407	# hn

Bond Coeffs

   1	330.6	1.0969	# c3,h1
   2	325.9	1.4647	# c3,n3
   3	392.4	1.019	# hn,n3
   4	300.9	1.5375	# c3,c3
   5	330.6	1.0969	# c3,hc

Angle Coeffs

   1	49.53	109.88	# h1,c3,n3
   2	66.02	111.04	# c3,c3,n3
   3	41.4	106.4	# hn,n3,hn
   4	46.34	109.8	# c3,c3,hc
   5	47.42	109.29	# c3,n3,hn
   6	46.39	109.56	# c3,c3,h1
   7	39.4	107.58	# hc,c3,hc
   8	39.24	108.46	# h1,c3,h1
   9	49.55	109.8	# hc,c3,n3
  10	63.82	112.35	# c3,n3,c3

Dihedral Coeffs

   1	1	0.15555555555555556	3	0	# X,c3,c3,X
   2	1	0.3	3	0	# X,c3,n3,X
   3	2	0.3	3	0	0.48	2	180	# c3,c3,n3,c3

Atoms

   1	1	1	-0.185789	-9.75839	11.0087	-16.0233
   2	1	1	0.725698	-10.7096	10.0885	-16.8332
   3	1	2	0.009194	-10.3725	11.7212	-15.4587
   4	1	3	-0.517699	-9.97255	9.03656	-17.5245
   5	1	4	-0.226077	-11.4373	9.61999	-16.1641
   6	1	4	-0.130348	-11.26	10.6766	-17.5758
   7	1	2	0.087114	-9.23922	10.3946	-15.2763
   8	1	5	0.237906	-10.6486	8.5288	-18.088
   9	1	1	-0.185789	-8.16553	13.4704	-18.5289
  10	1	1	0.725698	-9.27623	12.5765	-17.9278
  11	1	2	0.009194	-8.59927	14.0785	-19.3332
  12	1	3	-0.517699	-8.75328	11.7742	-16.8149
  13	1	4	-0.226077	-10.0991	13.2051	-17.5731
  14	1	4	-0.130348	-9.66137	11.9047	-18.7057
  15	1	2	0.087114	-7.84481	14.1683	-17.7438
  16	1	5	0.237906	-8.0516	11.1523	-17.2112
  17	1	1	-0.185789	-4.73395	12.7011	-20.0826
  18	1	1	0.725698	-5.88451	13.5709	-19.5205
  19	1	2	0.009194	-3.91357	13.3628	-20.3879
  20	1	3	-0.517699	-6.98872	12.7265	-19.0545
  21	1	4	-0.226077	-5.51303	14.1776	-18.6879
  22	1	4	-0.130348	-6.24709	14.2409	-20.3092
  23	1	2	0.087114	-4.35047	12.0793	-19.2626
  24	1	5	0.237906	-7.25382	12.151	-19.8545
  25	1	1	-0.185789	-4.5604	10.0032	-22.845
  26	1	1	0.725698	-4.04231	11.0183	-21.7875
  27	1	2	0.009194	-5.32287	9.36299	-22.3859
  28	1	3	-0.517699	-5.12382	11.8384	-21.2303
  29	1	4	-0.226077	-3.57496	10.4557	-20.9726
  30	1	4	-0.130348	-3.28464	11.6696	-22.237
  31	1	2	0.087114	-3.71797	9.34064	-23.0775
  32	1	5	0.237906	-5.46775	12.4109	-22.0009
  33	1	1	-0.185789	-6.8648	11.6159	-25.4718
  34	1	1	0.725698	-6.2759	11.4083	-24.0563
  35	1	2	0.009194	-7.70535	12.3169	-25.3989
  36	1	3	-0.517699	-5.08606	10.5534	-24.1286
  37	1	4	-0.226077	-6.00334	12.3742	-23.6149
  38	1	4	-0.130348	-7.03037	10.9383	-23.4194
  39	1	2	0.087114	-6.0971	12.0999	-26.0899
  40	1	5	0.237906	-5.35059	9.78312	-24.7416
  41	1	1	-0.185789	-9.04574	11.2504	-27.7053
  42	1	1	0.725698	-7.74716	10.4228	-27.517
  43	1	2	0.009194	-9.32134	11.2123	-28.7672
  44	1	3	-0.517699	-7.32084	10.3488	-26.1126
  45	1	4	-0.226077	-7.93335	9.40041	-27.8613
  46	1	4	-0.130348	-6.94351	10.8511	-28.1269
  47	1	2	0.087114	-8.82296	12.3016	-27.4842
  48	1	5	0.237906	-8.11343	9.96099	-25.6026
  49	1	1	-0.185789	-12.6046	11.0236	-26.2372
  50	1	1	0.725698	-11.4346	11.5576	-27.1025
  51	1	2	0.009194	-12.4217	11.2915	-25.189
  52	1	3	-0.517699	-10.202	10.7913	-26.8864
  53	1	4	-0.226077	-11.7103	11.4781	-28.1592
  54	1	4	-0.130348	-11.262	12.6149	-26.87
  55	1	2	0.087114	-13.5075	11.563	-26.5501
  56	1	5	0.237906	-10.4369	9.8306	-27.1309
  57	1	1	-0.185789	-14.1892	9.24085	-24.2324
  58	1	1	0.725698	-14.0691	9.01855	-25.7694
  59	1	2	0.009194	-15.0439	8.65573	-23.8703
  60	1	3	-0.517699	-12.827	9.55407	-26.3439
  61	1	4	-0.226077	-14.0934	7.94258	-25.9683
  62	1	4	-0.130348	-14.9327	9.47353	-26.2681
  63	1	2	0.087114	-14.447	10.2931	-24.0607
  64	1	5	0.237906	-12.0711	9.05728	-25.8724
  65	1	1	-0.185789	-11.112	7.37896	-22.7782
  66	1	1	0.725698	-12.3769	7.58437	-23.6577
  67	1	2	0.009194	-10.877	6.30761	-22.787
  68	1	3	-0.517699	-12.9903	8.89744	-23.4164
  69	1	4	-0.226077	-12.1059	7.49399	-24.7148
  70	1	4	-0.130348	-13.1106	6.80896	-23.4123
  71	1	2	0.087114	-11.3615	7.61854	-21.7373
  72	1	5	0.237906	-13.2185	8.95354	-22.4276
  73	1	1	-0.185789	-10.1559	10.2239	-21.858
  74	1	1	0.725698	-9.89595	9.57755	-23.2526
  75	1	2	0.009194	-9.98987	11.3058	-21.9389
  76	1	3	-0.517699	-9.87693	8.10578	-23.2021
  77	1	4	-0.226077	-10.647	9.91638	-23.9686
  78	1	4	-0.130348	-8.92288	9.91057	-23.6254
  79	1	2	0.087114	-11.2187	10.1017	-21.6221
  80	1	5	0.237906	-9.10811	7.8566	-22.5831
  81	1	1	-0.185789	-7.14897	9.16095	-19.6837
  82	1	1	0.725698	-7.88862	9.84614	-20.8591
  83	1	2	0.009194	-6.07158	9.31477	-19.8185
  84	1	3	-0.517699	-9.34238	9.68625	-20.7292
  85	1	4	-0.226077	-7.67158	10.9192	-20.86
  86	1	4	-0.130348	-7.55887	9.4078	-21.8064
  87	1	2	0.087114	-7.42462	9.67511	-18.7546
  88	1	5	0.237906	-9.60221	10.1462	-19.8587
  89	1	1	-0.185789	-5.3022	6.95209	-18.4452
  90	1	1	0.725698	-6.85418	6.98401	-18.4307
  91	1	2	0.009194	-4.91848	7.95848	-18.2342
  92	1	3	-0.517699	-7.44256	7.70478	-19.5692
  93	1	4	-0.226077	-7.20457	7.44047	-17.4991
  94	1	4	-0.130348	-7.23244	5.95594	-18.4604
  95	1	2	0.087114	-4.97484	6.6902	-19.4599
  96	1	5	0.237906	-8.44884	7.5824	-19.4738
  97	1	1	-0.185789	-2.74849	4.85402	-16.4674
  98	1	1	0.725698	-3.25136	5.97508	-17.4122
  99	1	2	0.009194	-3.18387	5.00026	-15.47
 100	1	3	-0.517699	-4.71827	5.99015	-17.4709
 101	1	4	-0.226077	-2.91042	6.94098	-17.0265
 102	1	4	-0.130348	-2.83453	5.82786	-18.4153
 103	1	2	0.087114	-1.66309	4.9732	-16.3592
 104	1	5	0.237906	-5.03586	6.21311	-16.5302
 105	1	1	-0.185789	-3.04755	1.02949	-16.6892
 106	1	1	0.725698	-2.57694	2.38349	-16.104
 107	1	2	0.009194	-2.62975	0.917791	-17.6984
 108	1	3	-0.517699	-3.05491	3.4814	-16.9487
 109	1	4	-0.226077	-2.99192	2.49567	-15.0958
 110	1	4	-0.130348	-1.48282	2.40481	-16.0414
 111	1	2	0.087114	-2.6187	0.223751	-16.0793
 112	1	5	0.237906	-4.06199	3.35416	-17.0372
 113	1	1	-0.185789	-6.57774	-0.296919	-17.457
 114	1	1	0.725698	-5.02444	-0.314454	-17.4114
 115	1	2	0.009194	-6.91871	-1.23558	-17.9117
 116	1	3	-0.517699	-4.52791	0.891599	-16.7434
 117	1	4	-0.226077	-4.67937	-1.19259	-16.8567
 118	1	4	-0.130348	-4.63141	-0.366075	-18.4329
 119	1	2	0.087114	-6.88696	0.50314	-18.1413
 120	1	5	0.237906	-4.89938	0.860194	-15.796
 121	1	1	-0.185789	-7.78995	-0.860154	-13.8419
 122	1	1	0.725698	-6.90733	-1.07715	-15.1021
 123	1	2	0.009194	-7.6717	0.178215	-13.5067
 124	1	3	-0.517699	-7.27139	-0.11484	-16.1484
 125	1	4	-0.226077	-5.8571	-0.905599	-14.8415
 126	1	4	-0.130348	-7.03117	-2.09431	-15.4867
 127	1	2	0.087114	-8.84171	-0.977208	-14.1338
 128	1	5	0.237906	-7.07597	0.809676	-15.772
 129	1	1	-0.185789	-7.11618	-4.02533	-11.7456
 130	1	1	0.725698	-7.68247	-3.1963	-12.9293
 131	1	2	0.009194	-7.22472	-5.09196	-11.9799
 132	1	3	-0.517699	-7.47825	-1.75783	-12.6962
 133	1	4	-0.226077	-7.18205	-3.49762	-13.8524
 134	1	4	-0.130348	-8.7545	-3.39313	-13.0379
 135	1	2	0.087114	-7.74305	-3.83906	-10.8651
 136	1	5	0.237906	-8.03655	-1.50316	-11.8852
 137	1	1	-0.185789	-3.31405	-3.51622	-12.0026
 138	1	1	0.725698	-4.72121	-3.93895	-12.4876
 139	1	2	0.009194	-3.35691	-2.45837	-11.7108
 140	1	3	-0.517699	-5.69457	-3.73972	-11.4023
 141	1	4	-0.226077	-4.99483	-3.30626	-13.336
 142	1	4	-0.130348	-4.71798	-4.98651	-12.8093
 143	1	2	0.087114	-2.62295	-3.57971	-12.8526
 144	1	5	0.237906	-5.60489	-2.75959	-11.1414
 145	1	1	-0.185789	-1.11298	-4.69891	-9.07939
 146	1	1	0.725698	-1.60175	-3.77025	-10.2196
 147	1	2	0.009194	-0.677449	-5.6037	-9.52318
 148	1	3	-0.517699	-2.79664	-4.32205	-10.8653
 149	1	4	-0.226077	-1.85852	-2.79127	-9.80157
 150	1	4	-0.130348	-0.800572	-3.63809	-10.9557
 151	1	2	0.087114	-0.297474	-4.17793	-8.56103
 152	1	5	0.237906	-3.50384	-4.36043	-10.134
 153	1	1	-0.185789	-2.84334	-6.29051	-6.03222
 154	1	1	0.725698	-1.67736	-5.90835	-6.98307
 155	1	2	0.009194	-3.59833	-6.85106	-6.59772
 156	1	3	-0.517699	-2.16345	-5.0924	-8.09985
 157	1	4	-0.226077	-0.909215	-5.35959	-6.42862
 158	1	4	-0.130348	-1.22885	-6.82655	-7.37802
 159	1	2	0.087114	-2.4399	-6.98881	-5.28809
 160	1	5	0.237906	-2.87422	-5.64901	-8.57009
 161	1	1	-0.185789	-3.42751	-3.49653	-3.47686
 162	1	1	0.725698	-2.62835	-4.29493	-4.53721
 163	1	2	0.009194	-3.95674	-4.21371	-2.83545
 164	1	3	-0.517699	-3.51279	-5.16293	-5.32328
 165	1	4	-0.226077	-2.11731	-3.6091	-5.21914
 166	1	4	-0.130348	-1.87834	-4.90647	-4.0207
 167	1	2	0.087114	-4.19129	-2.89028	-3.97994
 168	1	5	0.237906	-3.98437	-4.55588	-5.99056
 169	1	1	-0.185789	-2.09802	-1.37038	-0.577584
 170	1	1	0.725698	-3.18424	-2.07997	-1.42458
 171	1	2	0.009194	-2.53333	-1.0496	0.377441
 172	1	3	-0.517699	-2.56351	-2.63195	-2.63265
 173	1	4	-0.226077	-3.60067	-2.90462	-0.835584
 174	1	4	-0.130348	-3.98713	-1.38153	-1.68621
 175	1	2	0.087114	-1.80243	-0.459695	-1.1151
 176	1	5	0.237906	-1.76884	-3.16788	-2.28828
 177	1	1	-0.185789	1.49757	-2.44149	0.178458
 178	1	1	0.725698	0.233664	-1.55803	0.327693
 179	1	2	0.009194	2.36957	-1.85084	0.487501
 180	1	3	-0.517699	-0.900333	-2.21923	-0.324158
 181	1	4	-0.226077	-0.00778704	-1.39805	1.38356
 182	1	4	-0.130348	0.417395	-0.588729	-0.149127
 183	1	2	0.087114	1.63406	-2.6571	-0.88931
 184	1	5	0.237906	-1.14807	-3.01754	0.255371
 185	1	1	-0.185789	2.86606	-5.52654	1.9078
 186	1	1	0.725698	2.58452	-4.6358	0.674588
 187	1	2	0.009194	1.95038	-6.06068	2.19365
 188	1	3	-0.517699	1.48477	-3.70432	0.965239
 189	1	4	-0.226077	3.49042	-4.07829	0.415056
 190	1	4	-0.130348	2.30422	-5.25696	-0.183705
 191	1	2	0.087114	3.60997	-6.28266	1.62667
 192	1	5	0.237906	0.621364	-4.22337	0.832655
 193	1	1	-0.185789	4.09199	-4.3897	5.35671
 194	1	1	0.725698	3.62904	-5.42808	4.30658
 195	1	2	0.009194	5.00327	-3.90094	4.98705
 196	1	3	-0.517699	3.36945	-4.72707	3.05152
 197	1	4	-0.226077	4.4029	-6.18895	4.15992
 198	1	4	-0.130348	2.712	-5.91692	4.6573
 199	1	2	0.087114	4.37153	-4.92498	6.27267
 200	1	5	0.237906	2.7177	-3.97427	3.27146
 201	1	1	-0.185789	2.28261	-1.50602	7.06662
 202	1	1	0.725698	3.51496	-2.22094	6.46355
 203	1	2	0.009194	2.61777	-0.609102	7.60265
 204	1	3	-0.517699	3.06128	-3.35906	5.66035
 205	1	4	-0.226077	4.10096	-1.53134	5.84892
 206	1	4	-0.130348	4.13903	-2.583	7.29024
 207	1	2	0.087114	1.63223	-1.16917	6.24785
 208	1	5	0.237906	2.28457	-3.7767	6.17115
 209	1	1	-0.185789	-0.203346	-2.89267	9.63695
 210	1	1	0.725698	0.371227	-1.82127	8.67542
 211	1	2	0.009194	-0.6027	-3.71838	9.03307
 212	1	3	-0.517699	1.53859	-2.39239	7.9981
 213	1	4	-0.226077	-0.384872	-1.52916	7.94001
 214	1	4	-0.130348	0.676759	-0.938143	9.24753
 215	1	2	0.087114	-1.05457	-2.45425	10.173
 216	1	5	0.237906	2.16281	-2.68557	8.74408
 217	1	1	-0.185789	1.44945	-5.01761	12.3936
 218	1	1	0.725698	0.343216	-4.57807	11.3986
 219	1	2	0.009194	1.52574	-4.27563	13.1989
 220	1	3	-0.517699	0.794648	-3.43099	10.6056
 221	1	4	-0.226077	0.136331	-5.40402	10.7104
 222	1	4	-0.130348	-0.575358	-4.33149	11.9418
 223	1	2	0.087114	1.11064	-5.95357	12.8566
 224	1	5	0.237906	1.59556	-3.79492	10.0962
 225	1	1	-0.185789	5.10327	-6.10328	11.823
 226	1	1	0.725698	3.79593	-5.86056	12.6269
 227	1	2	0.009194	4.86259	-6.65614	10.9054
 228	1	3	-0.517699	2.79189	-5.21289	11.7767
 229	1	4	-0.226077	3.39509	-6.81106	12.9917
 230	1	4	-0.130348	4.01351	-5.22063	13.4901
 231	1	2	0.087114	5.49084	-5.12854	11.5027
 232	1	5	0.237906	3.17724	-4.31425	11.4964
 233	1	1	-0.185789	6.94752	-8.77539	13.884
 234	1	1	0.725698	5.89156	-8.2334	12.8906
 235	1	2	0.009194	7.92087	-8.83324	13.3789
 236	1	3	-0.517699	6.17707	-6.8316	12.554
 237	1	4	-0.226077	5.87532	-8.84351	11.9821
 238	1	4	-0.130348	4.91368	-8.30313	13.3774
 239	1	2	0.087114	6.66632	-9.80439	14.1422
 240	1	5	0.237906	6.4044	-6.36529	13.4304
 241	1	1	-0.185789	8.90912	-7.41444	16.7089
 242	1	1	0.725698	7.93825	-8.50008	16.1728
 243	1	2	0.009194	8.37002	-6.46661	16.8332
 244	1	3	-0.517699	7.08545	-7.94788	15.1154
 245	1	4	-0.226077	8.51802	-9.34726	15.792
 246	1	4	-0.130348	7.28845	-8.85965	16.9785
 247	1	2	0.087114	9.65988	-7.24326	15.9262
 248	1	5	0.237906	6.17743	-7.78355	15.5452
 249	1	1	-0.185789	10.9551	-9.21118	19.445
 250	1	1	0.725698	10.1607	-9.08143	18.1171
 251	1	2	0.009194	11.8286	-8.54838	19.3882
 252	1	3	-0.517699	9.59194	-7.73325	17.9938
 253	1	4	-0.226077	10.8337	-9.25753	17.2721
 254	1	4	-0.130348	9.35443	-9.82278	18.0932
 255	1	2	0.087114	10.3307	-8.83177	20.2638
 256	1	5	0.237906	10.3497	-7.07168	18.1479
 257	1	1	-0.185789	12.719	-12.6449	19.2199
 258	1	1	0.725698	12.1033	-11.3146	18.7104
 259	1	2	0.009194	11.9319	-13.4068	19.287
 260	1	3	-0.517699	11.4195	-10.5852	19.7877
 261	1	4	-0.226077	12.9019	-10.6792	18.3165
 262	1	4	-0.130348	11.3964	-11.5301	17.9011
 263	1	2	0.087114	13.4205	-12.9845	18.4467
 264	1	5	0.237906	12.0958	-10.5257	20.5459
 265	1	1	-0.185789	14.8951	-13.5082	22.2769
 266	1	1	0.725698	14.2129	-13.7319	20.9031
 267	1	2	0.009194	15.5554	-12.6352	22.1926
 268	1	3	-0.517699	13.4177	-12.5545	20.5319
 269	1	4	-0.226077	14.9833	-13.8962	20.1419
 270	1	4	-0.130348	13.5677	-14.6164	20.9446
 271	1	2	0.087114	15.5442	-14.3708	22.475
 272	1	5	0.237906	12.7331	-12.4278	21.2729
 273	1	1	-0.185789	13.5643	-12.6477	25.8031
 274	1	1	0.725698	14.592	-12.8118	24.6462
 275	1	2	0.009194	13.335	-13.6417	26.2065
 276	1	3	-0.517699	13.9591	-13.3152	23.421
 277	1	4	-0.226077	15.029	-11.8318	24.4286
 278	1	4	-0.130348	15.3972	-13.485	24.9618
 279	1	2	0.087114	14.065	-12.0973	26.6097
 280	1	5	0.237906	13.2619	-12.6102	23.1949
 281	1	1	-0.185789	10.9732	-10.1892	24.3116
 282	1	1	0.725698	12.3614	-10.648	24.837
 283	1	2	0.009194	10.44	-11.0514	23.8894
 284	1	3	-0.517699	12.2761	-11.977	25.4568
 285	1	4	-0.226077	13.0339	-10.717	23.976
 286	1	4	-0.130348	12.7695	-9.92183	25.549
 287	1	2	0.087114	11.1617	-9.51228	23.4695
 288	1	5	0.237906	11.6932	-11.884	26.2861
 289	1	1	-0.185789	8.81327	-9.28536	27.3969
 290	1	1	0.725698	9.76897	-10.1584	26.5416
 291	1	2	0.009194	7.87465	-9.16227	26.8402
 292	1	3	-0.517699	10.0929	-9.47985	25.2812
 293	1	4	-0.226077	10.6926	-10.3626	27.0961
 294	1	4	-0.130348	9.28263	-11.1156	26.3248
 295	1	2	0.087114	8.56207	-9.84545	28.3067
 296	1	5	0.237906	9.20684	-9.24428	24.8391
 297	1	1	-0.185789	8.95866	-5.65351	28.7669
 298	1	1	0.725698	8.36927	-7.04728	28.407
 299	1	2	0.009194	9.41045	-5.71212	29.7653
 300	1	3	-0.517699	9.34341	-7.9406	27.7638
 301	1	4	-0.226077	8.02099	-7.52374	29.3303
 302	1	4	-0.130348	7.50622	-6.91558	27.7449
 303	1	2	0.087114	8.10884	-4.96391	28.8554
 304	1	5	0.237906	10.1422	-8.02762	28.3864
 305	1	1	-0.185789	9.51525	-2.7301	27.2212
 306	1	1	0.725698	10.3723	-3.70709	28.0753
 307	1	2	0.009194	8.46688	-3.05453	27.238
 308	1	3	-0.517699	9.97167	-5.09845	27.8223
 309	1	4	-0.226077	11.4233	-3.60543	27.786
 310	1	4	-0.130348	10.2881	-3.48622	29.1453
 311	1	2	0.087114	9.84907	-2.83654	26.1818
 312	1	5	0.237906	10.8182	-5.66073	27.87
 313	1	1	-0.185789	8.72937	0.54485	29.0788
 314	1	1	0.725698	8.9839	-0.978394	28.9155
 315	1	2	0.009194	8.34009	0.698154	30.0929
 316	1	3	-0.517699	9.56505	-1.29096	27.6037
 317	1	4	-0.226077	9.65875	-1.32713	29.7033
 318	1	4	-0.130348	8.02835	-1.505	29.0213
 319	1	2	0.087114	9.68363	1.08452	29.0355
 320	1	5	0.237906	9.01487	-0.758982	26.9336
 321	1	1	-0.185789	8.79414	3.12578	27.0712
 322	1	1	0.725698	8.22067	1.69224	26.8698
 323	1	2	0.009194	9.00506	3.54191	26.078
 324	1	3	-0.517699	7.73003	1.11047	28.1265
 325	1	4	-0.226077	7.37431	1.76175	26.1806
 326	1	4	-0.130348	8.97446	1.04099	26.4139
 327	1	2	0.087114	9.76425	3.0485	27.5773
 328	1	5	0.237906	7.19936	1.86057	28.5678
 329	1	1	-0.185789	5.7853	5.29932	28.1641
 330	1	1	0.725698	6.49788	4.09712	27.4873
 331	1	2	0.009194	6.04895	6.21564	27.62
 332	1	3	-0.517699	7.93165	4.09527	27.8118
 333	1	4	-0.226077	6.06219	3.16695	27.8678
 334	1	4	-0.130348	6.35591	4.14682	26.4025
 335	1	2	0.087114	6.18791	5.41519	29.1784
 336	1	5	0.237906	8.28067	5.04019	27.6664
 337	1	1	-0.185789	2.07168	4.95282	27.2448
 338	1	1	0.725698	3.58645	4.96344	26.9975
 339	1	2	0.009194	1.79913	4.18184	27.9765
 340	1	3	-0.517699	4.30219	5.19154	28.2577
 341	1	4	-0.226077	3.89266	3.99396	26.5943
 342	1	4	-0.130348	3.83854	5.74558	26.2733
 343	1	2	0.087114	1.74789	5.92664	27.6292
 344	1	5	0.237906	4.05526	4.4135	28.8663
 345	1	5	0	-9.29575	9.45152	-18.1626
 346	1	2	0	1.52842	4.75104	26.3135

Velocities

   1	-0.00113321	0.000519661	-0.000427431
   2	0.000617026	-0.000199525	-0.00127005
   3	-0.00187	0.000840894	-0.0022689
   4	0.0017842	0.00223478	-0.00270401
   5	0.00133777	-0.00250127	-0.00168256
   6	-0.000934898	-0.000468721	-0.000411011
   7	-0.00181364	0.00114368	0.000991518
   8	0.000487132	-0.00420672	0.00420101
   9	0.000846957	-0.000616046	0.000307262
  10	0.000917825	-0.000550128	0.000245171
  11	0.000650749	-0.000193116	0.000595518
  12	0.000401985	-0.000390348	0.000566047
  13	0.000775565	-0.000645335	-0.000360568
  14	0.00116986	-0.000767871	9.64982e-05
  15	0.00104508	-0.000810229	0.000501329
  16	0.000394838	-0.000308743	0.00128329
  17	0.000396452	0.000243102	-0.000420845
  18	4.82767e-05	-0.000372496	-0.000511701
  19	6.39311e-05	0.000570351	-0.000491961
  20	0.000592126	-0.000475802	-0.000106397
  21	-0.000153655	0.000155485	-0.000604422
  22	-0.000449425	-0.000494196	-0.000633089
  23	0.000615928	0.000497291	-0.00036877
  24	0.00021618	-0.000723457	-1.81279e-05
  25	0.000297575	-0.000498594	0.000403686
  26	0.000562802	-0.000230934	-1.53485e-05
  27	0.000283045	-0.000135785	0.000706849
  28	0.000644021	8.04591e-05	-0.000223369
  29	0.000519121	-5.47838e-05	0.000244311
  30	0.000708323	-0.000474837	-0.00017362
  31	0.000175841	-0.000675757	0.000458317
  32	0.000825672	-0.00011126	-0.000480249
  33	0.000340123	-0.000151166	0.000502961
  34	0.000522905	-0.000267928	0.000392387
  35	0.000721316	0.000280788	0.000551778
  36	0.000122498	-0.000742883	0.000348993
  37	0.000986004	-0.00024968	0.000134174
  38	0.000398688	0.000189984	0.000613032
  39	0.000487124	-0.000611871	0.000289279
  40	-0.000376648	-0.000888396	0.00074428
  41	7.67019e-06	0.00050948	0.000709934
  42	-0.000330972	2.47438e-05	0.0007781
  43	0.000152601	0.000791082	0.000677344
  44	-0.00038986	-1.0868e-05	0.000773599
  45	-0.000769289	5.06687e-05	0.00090253
  46	-0.00013907	-0.00038755	0.000739886
  47	0.000240622	0.000414714	0.000978463
  48	-0.000614458	0.000553949	0.00087575
  49	-0.000149653	0.000133612	6.49865e-05
  50	-0.000217637	0.00037429	0.000133286
  51	-0.00012059	3.57497e-05	9.10223e-05
  52	-0.000180762	0.000579475	0.000469873
  53	-5.79731e-05	0.000161372	9.87742e-05
  54	-0.00047219	0.000440446	3.28247e-05
  55	-0.000240167	4.16784e-05	0.00016817
  56	-4.79379e-05	0.000534895	0.000522439
  57	0.000275129	-5.42283e-05	-5.90249e-05
  58	0.000277165	-0.000177256	-2.65916e-05
  59	0.000249265	3.55812e-05	1.63755e-07
  60	0.000106957	0.000102254	-9.66433e-05
  61	0.000537507	-0.000198561	5.1349e-05
  62	0.000149341	-0.000426309	-4.23473e-05
  63	0.000349952	-2.3997e-05	-0.000125415
  64	0.000251709	0.00019133	-0.000228435
  65	-7.98347e-05	-0.000345233	0.000295087
  66	0.000134739	-0.00016957	8.36549e-05
  67	-7.71153e-05	-0.000363438	9.54767e-05
  68	0.000260553	-7.40403e-05	-3.99801e-05
  69	0.000301456	-0.000203347	0.000120076
  70	-3.85692e-05	-4.456e-05	-4.97273e-05
  71	-0.000303485	-0.000584073	0.000304009
  72	0.000313264	6.6586e-05	-4.90471e-05
  73	-0.000379519	-0.000156157	0.000560428
  74	-4.38522e-06	-0.000242969	0.000668833
  75	-0.000662207	-0.000122427	0.000451884
  76	4.12415e-05	-0.00027301	0.000757816
  77	0.000254917	-0.000282939	0.000390908
  78	0.000117673	-0.000249798	0.00099054
  79	-0.000355551	-0.000430808	0.000542803
  80	-0.000172325	-0.00023681	0.00100983
  81	-6.73275e-05	-0.000483375	-2.65789e-05
  82	-0.000231638	-0.000400582	0.000134553
  83	-0.000103263	-0.000723038	-0.000397762
  84	-0.000243777	0.000169483	0.000568894
  85	0.000261942	-0.000520316	-0.000253907
  86	-0.000658833	-0.000835984	0.000163892
  87	0.000334796	-0.000314637	2.09988e-05
  88	2.44154e-05	0.000422225	0.000562417
  89	-0.000213233	9.0173e-05	3.15583e-05
  90	-0.000207665	-0.000332038	0.000120523
  91	-0.000426985	0.000252391	-0.000383924
  92	-0.000391428	-0.000381503	0.000184735
  93	-0.00027101	-0.000454664	0.00016335
  94	2.66933e-05	-0.000423473	0.000129935
  95	-0.000247468	-0.000204676	7.77729e-05
  96	-0.000400138	-0.000125414	0.000471455
  97	0.000380645	0.000644944	-0.000472636
  98	0.000135313	0.000774395	-0.000106667
  99	0.000999208	0.000757673	-0.0001912
 100	0.000155733	0.000622728	0.000269188
 101	0.000191519	0.000766106	-0.000100567
 102	-0.000111216	0.000906711	-0.000257692
 103	0.000475967	0.000282949	-0.00108396
 104	0.000369348	0.00100927	0.000298037
 105	-0.000438332	0.000661447	-0.000563089
 106	-0.000546913	0.00066706	-0.000442107
 107	-0.00039427	0.000729753	-0.000550819
 108	-0.00036496	0.000776366	-0.000330457
 109	-0.000613436	0.000597808	-0.000476425
 110	-0.000511602	0.000635949	-0.000330851
 111	-0.000361394	0.000713871	-0.000573781
 112	-0.000474759	0.00120049	1.7459e-06
 113	-9.52499e-05	-0.000337645	-2.48244e-05
 114	-8.96437e-05	-0.000113274	0.000208083
 115	0.000112697	-0.000446505	-3.07843e-05
 116	-0.000416631	0.000490258	-0.000551726
 117	-5.84236e-05	0.000390181	0.000905872
 118	7.09994e-05	-0.00080331	0.000324949
 119	-9.90965e-05	-0.000440714	-0.000115539
 120	-0.000445052	0.000980678	-0.000590712
 121	-0.000679688	-0.000323384	-0.000265018
 122	-0.000536709	-0.000435195	-0.000109808
 123	-0.000628693	-0.000315289	-0.000285106
 124	-0.000331205	-8.88967e-05	-0.000162057
 125	-0.000543713	-0.000599057	4.47868e-05
 126	-0.000631726	-0.000416472	-0.000149191
 127	-0.000646756	-0.000253185	-0.000391181
 128	-0.000318074	-0.000413173	-5.10452e-05
 129	0.000221991	0.00014204	-5.41691e-05
 130	-0.000135375	-0.000351197	-0.000204696
 131	0.00074505	3.49337e-05	0.000197005
 132	-0.000893775	-0.000256081	-0.00016282
 133	0.000182649	-0.000153164	-9.05411e-05
 134	-1.1892e-05	-0.000949813	-0.000338099
 135	0.000138727	4.76216e-05	-0.00010299
 136	-0.00131145	-0.00047979	-0.000387909
 137	0.00025757	0.000322552	2.57937e-05
 138	0.00021041	0.000389037	6.54719e-05
 139	0.000833881	0.000707998	-0.00134212
 140	7.31493e-05	0.000982666	-0.0001726
 141	0.000382663	-1.95485e-05	-0.000312316
 142	0.000117988	0.000240459	0.000598644
 143	0.000504019	-0.00125389	0.000342827
 144	-0.000311043	0.00123358	-0.000966329
 145	-4.2408e-05	0.000157715	0.000174452
 146	0.000266847	0.00044026	0.000273925
 147	-0.00117193	-0.000294428	-4.75495e-05
 148	-0.000687852	0.00139262	0.00120938
 149	0.00157415	0.00087974	4.50122e-05
 150	-4.82481e-05	-0.000741804	-0.000263773
 151	0.000792781	-0.000648203	-0.000283364
 152	-0.000645868	0.00341225	0.00134654
 153	-3.49823e-05	-0.000529409	-0.000171664
 154	-9.55461e-05	-0.000243989	-0.000141051
 155	-0.000122397	-0.000273525	-0.000343377
 156	0.000137077	0.00109014	0.000729399
 157	0.000404415	-0.00125285	0.000171301
 158	-0.000767923	-0.000173563	-0.00110172
 159	4.74417e-06	-0.000859144	-0.000496715
 160	-0.00089338	0.00224475	0.000899262
 161	4.76002e-05	-0.000158446	-0.000426604
 162	0.000127168	-0.000678201	4.47096e-05
 163	-0.000533298	0.000181102	-0.000534776
 164	2.19836e-05	-0.000826508	0.000305224
 165	0.000304353	-0.0010036	-0.000155811
 166	-2.12521e-05	-0.000608498	0.000357782
 167	0.000522243	7.34334e-05	-0.000878124
 168	-0.000463927	-0.000863541	0.000669793
 169	-0.000100237	-5.50567e-05	-0.000522144
 170	-3.96176e-05	-0.000548546	-0.000171269
 171	-0.000216971	0.00109444	-0.000953146
 172	2.97394e-05	-0.000353699	-0.00022895
 173	0.000377923	-0.000652003	-3.54275e-05
 174	-0.000328284	-0.000857726	-9.86424e-05
 175	0.000314038	-0.000724185	-0.00140347
 176	-3.63657e-06	-0.000429994	-0.000297259
 177	1.19391e-05	-7.27829e-05	-0.00156919
 178	0.000382026	0.000485972	-0.00167363
 179	0.000313405	-0.000109908	-0.0023603
 180	-0.000499375	-0.000261162	0.000608864
 181	0.00153361	0.00241883	-0.00170405
 182	0.000194341	-0.000409393	-0.00354856
 183	-0.000553268	-0.000808222	-0.00149905
 184	-0.000648384	0.00118036	0.00254251
 185	0.000170046	0.000658377	-0.000197407
 186	5.79954e-05	0.00032299	-0.000407544
 187	0.000202727	0.000722733	-1.0826e-06
 188	3.87687e-05	0.000440464	-0.000786022
 189	2.68948e-05	0.000255359	-0.000673743
 190	3.41308e-05	3.01317e-05	-0.00019954
 191	9.05608e-05	0.000568468	-0.000170177
 192	5.81815e-05	0.000318101	-0.000613017
 193	0.000448455	1.24914e-05	2.52241e-05
 194	0.00074273	0.000379582	-0.000472518
 195	-0.00012539	0.000945832	-0.000142438
 196	0.0003725	0.00068488	-0.000240955
 197	0.0010902	0.000783787	-0.000857259
 198	0.00102906	-0.000233337	-0.000625099
 199	0.00137628	-0.000367515	-0.000487614
 200	0.00030121	0.000551315	2.25503e-05
 201	0.0007352	-0.000237723	0.00111672
 202	0.000250174	-9.259e-06	-0.000174508
 203	0.00113947	-0.000194909	0.000814563
 204	-0.000131983	-0.000958636	0.00136033
 205	-0.00132012	-7.77472e-05	-0.00177396
 206	0.00193036	0.00117831	-0.000951597
 207	5.63021e-05	-0.000252939	0.00169232
 208	0.00123541	-0.0015187	0.00303766
 209	3.39234e-05	-0.000371858	0.000511551
 210	0.000530472	-0.000527469	0.000640916
 211	-0.000119099	-0.000285324	0.000492322
 212	0.0013977	-0.000133416	0.00174682
 213	0.00101335	-0.00110236	-7.56742e-05
 214	-0.000370952	-0.00019128	0.000647797
 215	0.000143307	-0.000121845	0.000436546
 216	0.00141766	0.00113031	0.00227044
 217	0.000175201	-0.000473713	0.000108524
 218	-0.00103287	0.000837381	0.00206296
 219	0.00194894	-0.000787344	0.000211296
 220	-0.000119951	-0.000654784	0.000436706
 221	-0.00416363	0.000714862	0.00321998
 222	0.000627586	0.00321523	0.00382919
 223	0.000110536	-0.000338729	0.00037982
 224	-0.00106177	-0.0023617	0.000136412
 225	0.000369142	2.8436e-05	-0.000759947
 226	-0.000353172	-0.000767701	-0.00173347
 227	0.00147062	0.000265174	-0.00119823
 228	-0.000734838	-0.00129805	-0.0016683
 229	-4.92711e-05	-0.00103665	-0.0020809
 230	-0.00113323	-0.000851252	-0.00150761
 231	0.000451796	0.000275595	-1.66564e-05
 232	-0.000756909	-0.00151653	-0.00245229
 233	-0.00128524	-5.46357e-05	0.000948256
 234	-0.00128286	0.00046735	0.00124994
 235	-0.00159242	-0.00108697	0.000484325
 236	-0.000254496	3.31386e-05	0.000182228
 237	-0.00245657	-7.18174e-05	0.0016469
 238	-0.000993895	0.00161679	0.00198571
 239	-0.00205734	0.000290223	0.00149171
 240	-0.000480897	0.000563895	-2.5406e-05
 241	-0.000407965	-4.99104e-06	0.00104392
 242	0.000289413	-0.000162917	0.000144752
 243	-0.000826257	-0.000298642	0.00151544
 244	0.00011251	0.000274288	0.000553742
 245	0.000941217	0.000619954	-0.000583036
 246	0.000503522	-0.00133357	-0.000197544
 247	-0.000292879	0.000762447	0.00133365
 248	0.000565839	0.00133454	0.00108025
 249	-0.000712242	-0.00105533	0.000170038
 250	-0.000389495	-0.000532635	0.000121158
 251	-0.00125381	-0.000240436	0.00129992
 252	-0.00057517	-0.000594963	0.000931959
 253	-0.000186977	6.72849e-05	0.000153724
 254	-0.000248785	-0.000685581	-0.00036964
 255	-0.00147334	-0.00251025	0.000262469
 256	-0.00068078	-0.00057077	0.00143246
 257	-0.000529504	-0.00057614	-0.000138567
 258	0.00336902	0.00105973	-0.000378188
 259	-0.00303928	0.00205323	0.00155493
 260	3.23692e-06	-0.00100006	-0.00110171
 261	0.00587197	0.00105776	0.00447384
 262	0.00650659	0.00366477	-0.00376198
 263	-0.00226016	-0.00374236	-0.00026605
 264	-0.00193227	-0.00161716	0.000636679
 265	0.000201507	0.00230029	-5.97483e-05
 266	-0.00104949	-0.0007828	0.00106905
 267	-0.00115982	0.00320659	-0.00176876
 268	0.000536529	-0.00044983	-0.000796963
 269	-0.00204689	-0.00401066	0.000784319
 270	-0.0024794	0.000343475	0.00419653
 271	0.00149447	0.00353382	0.000757171
 272	0.00142035	0.00228682	-0.000463037
 273	-0.000987808	-0.000366871	0.000148478
 274	0.000174826	0.000185025	0.00106006
 275	-0.00158135	-0.000586052	-0.000702478
 276	0.0004215	0.00268803	4.21427e-06
 277	0.00144483	6.57705e-05	0.00292309
 278	-0.000948623	-0.00123165	0.000868418
 279	-0.00173662	-0.000981793	0.00100794
 280	0.00163305	0.00400105	0.000433788
 281	0.000119118	0.00102886	-0.000478651
 282	0.000320334	-0.000963629	-0.00266806
 283	-0.00161694	0.00191135	-5.46989e-05
 284	-0.000604665	3.16342e-05	-0.000697049
 285	-0.001684	-0.00346925	-0.00407759
 286	0.00320668	-0.0007053	-0.00464096
 287	-0.000128207	0.00112426	-0.000458115
 288	-0.00055209	0.00144138	-0.000817698
 289	0.00089355	-0.000140231	0.000158718
 290	0.00106614	0.00036251	-7.24108e-05
 291	0.00107521	9.15462e-05	-8.09226e-05
 292	0.00253237	0.00179879	0.00105074
 293	0.000541969	-0.00111479	0.000278707
 294	0.000478665	0.00105016	-0.00175116
 295	0.000643075	-0.000465896	-0.000102665
 296	0.00289741	0.00482499	0.00182585
 297	0.00122992	-0.000710509	0.000510402
 298	-0.000366515	0.000779101	-0.00232403
 299	0.00299672	-0.00360746	-0.00040223
 300	0.000742579	-0.000259917	0.000864766
 301	-0.00486725	0.000972279	-0.00396159
 302	0.00252452	0.00291339	-0.00571227
 303	0.00191745	-0.00026715	0.0036649
 304	-0.000901993	-0.000404988	0.00289175
 305	-0.001954	-0.000644287	-0.000520707
 306	-0.000964462	0.00049391	-0.000371276
 307	-0.00187793	-0.000862778	0.000976726
 308	-3.5232e-05	0.000282636	-0.000106875
 309	-0.00106407	0.00125819	-0.000432744
 310	-0.00117511	0.000531699	-0.000406363
 311	-0.00310035	-0.00151614	-0.000810453
 312	0.000381264	0.000840879	-0.00112913
 313	0.00104337	-0.000594195	0.000494363
 314	0.000686819	-0.000405596	-0.00042773
 315	0.00222982	-0.00116746	0.00116346
 316	-0.00189364	-0.000424924	-0.00168312
 317	0.00235102	-0.000548672	-0.00192498
 318	0.00101507	-0.000610774	0.00134983
 319	0.000893177	-0.000663875	-0.000324795
 320	-0.00354871	-0.00106207	-0.000786717
 321	-0.000511177	-0.00124527	-0.000129839
 322	-0.00176146	-0.000911567	0.00111457
 323	-0.00024599	-0.0021276	-0.000515613
 324	-0.00024704	9.18209e-05	0.00218785
 325	-0.00254083	-0.000671125	0.00230772
 326	-0.00269087	-0.00150679	0.000337936
 327	-0.000589292	-0.00147004	-0.000200051
 328	0.00134177	0.000645625	0.00270022
 329	0.000320977	-0.000449739	0.000937746
 330	0.000173778	0.000577706	-0.000733666