pySIMM System Object

274 atoms
273 bonds
510 angles
708 dihedrals
0 impropers

5 atom types
5 bond types
10 angle types
3 dihedral types

-83.883674 83.883674 xlo xhi
-83.883674 83.883674 ylo yhi
-83.883674 83.883674 zlo zhi

Masses

   1	12.01	# c3
   2	1.008	# hc
   3	14.01	# n3
   4	1.008	# h1
   5	1.008	# hn

Pair Coeffs

   1	0.1094	3.3996695084235347	# c3
   2	0.0157	2.649532787749369	# hc
   3	0.17	3.249998523775958	# n3
   4	0.0157	2.471353044121301	# h1
   5	0.0157	1.069078461768407	# hn

Bond Coeffs

   1	330.6	1.0969	# c3,h1
   2	325.9	1.4647	# c3,n3
   3	392.4	1.019	# hn,n3
   4	300.9	1.5375	# c3,c3
   5	330.6	1.0969	# c3,hc

Angle Coeffs

   1	49.53	109.88	# h1,c3,n3
   2	66.02	111.04	# c3,c3,n3
   3	41.4	106.4	# hn,n3,hn
   4	46.34	109.8	# c3,c3,hc
   5	47.42	109.29	# c3,n3,hn
   6	46.39	109.56	# c3,c3,h1
   7	39.4	107.58	# hc,c3,hc
   8	39.24	108.46	# h1,c3,h1
   9	49.55	109.8	# hc,c3,n3
  10	63.82	112.35	# c3,n3,c3

Dihedral Coeffs

   1	1	0.15555555555555556	3	0	# X,c3,c3,X
   2	1	0.3	3	0	# X,c3,n3,X
   3	2	0.3	3	0	0.48	2	180	# c3,c3,n3,c3

Atoms

   1	1	1	-0.185789	-7.43768	-5.13587	-16.0809
   2	1	1	0.725698	-7.62423	-6.47213	-15.312
   3	1	2	0.009194	-8.12815	-5.1403	-16.9337
   4	1	3	-0.517699	-6.92761	-6.45956	-14.0305
   5	1	4	-0.226077	-8.68736	-6.63306	-15.1128
   6	1	4	-0.130348	-7.25766	-7.31598	-15.9068
   7	1	2	0.087114	-7.76858	-4.31714	-15.4295
   8	1	5	0.237906	-7.17839	-7.31767	-13.547
   9	1	1	-0.185789	-4.21179	-5.30547	-18.1927
  10	1	1	0.725698	-5.4849	-5.842	-17.4917
  11	1	2	0.009194	-3.83247	-6.08893	-18.861
  12	1	3	-0.517699	-6.06968	-4.8378	-16.5948
  13	1	4	-0.226077	-6.2209	-6.12065	-18.2524
  14	1	4	-0.130348	-5.23633	-6.73705	-16.9096
  15	1	2	0.087114	-4.50828	-4.46246	-18.8307
  16	1	5	0.237906	-5.40719	-4.68864	-15.8364
  17	1	1	-0.185789	-0.826921	-4.05882	-16.8685
  18	1	1	0.725698	-1.89157	-4.435	-17.9284
  19	1	2	0.009194	0.0878476	-3.74166	-17.3852
  20	1	3	-0.517699	-3.12524	-4.87847	-17.2721
  21	1	4	-0.226077	-2.1027	-3.56903	-18.5646
  22	1	4	-0.130348	-1.5029	-5.2467	-18.5549
  23	1	2	0.087114	-1.20017	-3.18333	-16.3207
  24	1	5	0.237906	-2.8493	-5.65435	-16.6705
  25	1	1	-0.185789	0.600475	-5.90755	-13.7891
  26	1	1	0.725698	0.457921	-4.78793	-14.8589
  27	1	2	0.009194	-0.393329	-6.17295	-13.4089
  28	1	3	-0.517699	-0.500587	-5.15087	-15.9101
  29	1	4	-0.226077	0.101393	-3.88029	-14.361
  30	1	4	-0.130348	1.43422	-4.57423	-15.3086
  31	1	2	0.087114	1.13609	-5.46275	-12.9415
  32	1	5	0.237906	-0.0882637	-5.94113	-16.4056
  33	1	1	-0.185789	1.47887	-9.27589	-15.4525
  34	1	1	0.725698	0.726291	-7.93707	-15.2812
  35	1	2	0.009194	1.08086	-9.784	-16.3392
  36	1	3	-0.517699	1.31991	-7.1493	-14.1965
  37	1	4	-0.226077	0.773694	-7.36282	-16.2138
  38	1	4	-0.130348	-0.322272	-8.14233	-15.0533
  39	1	2	0.087114	2.53179	-9.04511	-15.662
  40	1	5	0.237906	1.38147	-7.78481	-13.402
  41	1	1	-0.185789	1.70026	-12.4221	-15.3452
  42	1	1	0.725698	2.19315	-11.3944	-14.2927
  43	1	2	0.009194	2.36259	-13.2962	-15.2995
  44	1	3	-0.517699	1.3742	-10.1752	-14.2687
  45	1	4	-0.226077	2.1315	-11.8574	-13.3023
  46	1	4	-0.130348	3.23989	-11.1344	-14.4872
  47	1	2	0.087114	1.82369	-11.9946	-16.3478
  48	1	5	0.237906	0.411477	-10.4871	-14.1379
  49	1	1	-0.185789	-1.59277	-14.3819	-15.7111
  50	1	1	0.725698	-0.155979	-13.92	-16.0651
  51	1	2	0.009194	-2.29603	-13.6001	-16.0236
  52	1	3	-0.517699	0.2951	-12.8679	-15.1454
  53	1	4	-0.226077	0.522336	-14.7748	-15.974
  54	1	4	-0.130348	-0.123483	-13.5591	-17.0996
  55	1	2	0.087114	-1.81595	-15.2716	-16.3132
  56	1	5	0.237906	0.201716	-13.2744	-14.2163
  57	1	1	-0.185789	-4.28419	-14.2627	-14.135
  58	1	1	0.725698	-3.08383	-15.211	-13.8353
  59	1	2	0.009194	-5.1438	-14.612	-13.5495
  60	1	3	-0.517699	-1.78372	-14.6792	-14.2633
  61	1	4	-0.226077	-3.03119	-15.3648	-12.7526
  62	1	4	-0.130348	-3.26247	-16.1838	-14.3075
  63	1	2	0.087114	-4.56108	-14.3954	-15.1881
  64	1	5	0.237906	-1.66586	-13.82	-13.7263
  65	1	1	-0.185789	-3.28118	-10.8812	-12.4866
  66	1	1	0.725698	-3.44747	-12.4215	-12.6089
  67	1	2	0.009194	-2.9074	-10.6793	-11.4754
  68	1	3	-0.517699	-4.08487	-12.807	-13.8743
  69	1	4	-0.226077	-2.46349	-12.8971	-12.5356
  70	1	4	-0.130348	-4.0698	-12.7773	-11.7808
  71	1	2	0.087114	-4.2728	-10.4147	-12.5289
  72	1	5	0.237906	-4.97187	-12.3163	-13.9422
  73	1	1	-0.185789	-4.05033	-9.40413	-15.123
  74	1	1	0.725698	-2.70426	-10.1512	-14.8733
  75	1	2	0.009194	-4.14331	-9.20948	-16.1991
  76	1	3	-0.517699	-2.34227	-10.2168	-13.4437
  77	1	4	-0.226077	-2.75315	-11.1517	-15.3055
  78	1	4	-0.130348	-1.90801	-9.61361	-15.3975
  79	1	2	0.087114	-4.86924	-10.0877	-14.8709
  80	1	5	0.237906	-2.21992	-9.24718	-13.1573
  81	1	1	-0.185789	-3.44356	-5.86545	-13.6926
  82	1	1	0.725698	-3.19064	-7.11126	-14.5732
  83	1	2	0.009194	-2.65398	-5.13784	-13.9118
  84	1	3	-0.517699	-4.23476	-8.12395	-14.379
  85	1	4	-0.226077	-3.17284	-6.82735	-15.6287
  86	1	4	-0.130348	-2.22122	-7.54145	-14.3086
  87	1	2	0.087114	-4.38742	-5.3954	-13.9932
  88	1	5	0.237906	-5.11584	-7.68431	-14.6405
  89	1	1	-0.185789	-2.33237	-4.08433	-11.4145
  90	1	1	0.725698	-3.54224	-5.05087	-11.2961
  91	1	2	0.009194	-2.50253	-3.3941	-12.2509
  92	1	3	-0.517699	-3.46239	-6.1773	-12.2362
  93	1	4	-0.226077	-4.47865	-4.50659	-11.4589
  94	1	4	-0.130348	-3.57223	-5.47069	-10.2843
  95	1	2	0.087114	-1.4477	-4.68172	-11.67
  96	1	5	0.237906	-4.252	-6.78579	-12.0289
  97	1	1	-0.185789	-0.44545	-1.93937	-8.86977
  98	1	1	0.725698	-0.906963	-2.38548	-10.2797
  99	1	2	0.009194	-1.2787	-1.44822	-8.35052
 100	1	3	-0.517699	-2.04187	-3.31203	-10.1783
 101	1	4	-0.226077	-1.21925	-1.5112	-10.8595
 102	1	4	-0.130348	-0.0700578	-2.87142	-10.7953
 103	1	2	0.087114	0.344038	-1.18775	-8.99462
 104	1	5	0.237906	-2.847	-2.75475	-9.90198
 105	1	1	-0.185789	0.952298	-4.09533	-6.0228
 106	1	1	0.725698	0.544532	-2.76682	-6.70523
 107	1	2	0.009194	1.73699	-4.56616	-6.62999
 108	1	3	-0.517699	0.0592687	-3.07232	-8.05258
 109	1	4	-0.226077	-0.255066	-2.29242	-6.1245
 110	1	4	-0.130348	1.40275	-2.08704	-6.75571
 111	1	2	0.087114	1.40205	-3.87169	-5.04714
 112	1	5	0.237906	-0.671641	-3.77324	-7.93634
 113	1	1	-0.185789	-1.11614	-7.29427	-5.48278
 114	1	1	0.725698	0.172903	-6.43642	-5.60487
 115	1	2	0.009194	-0.818592	-8.34561	-5.38055
 116	1	3	-0.517699	-0.186341	-5.03913	-5.85695
 117	1	4	-0.226077	0.755995	-6.49855	-4.68144
 118	1	4	-0.130348	0.782714	-6.81524	-6.43224
 119	1	2	0.087114	-1.66624	-7.22513	-6.42967
 120	1	5	0.237906	-0.773401	-4.73641	-5.08327
 121	1	1	-0.185789	-2.46873	-6.84689	-1.90968
 122	1	1	0.725698	-1.39962	-6.98776	-3.02709
 123	1	2	0.009194	-2.91454	-5.84626	-1.97563
 124	1	3	-0.517699	-2.025	-6.94579	-4.35301
 125	1	4	-0.226077	-0.693407	-6.15369	-2.95778
 126	1	4	-0.130348	-0.859636	-7.93297	-2.92256
 127	1	2	0.087114	-3.2761	-7.56361	-2.10917
 128	1	5	0.237906	-2.40827	-6.01121	-4.47049
 129	1	1	-0.185789	-0.77666	-8.43104	1.16326
 130	1	1	0.725698	-1.46326	-8.40287	-0.225301
 131	1	2	0.009194	-0.431853	-9.45367	1.3634
 132	1	3	-0.517699	-1.94977	-7.04746	-0.529271
 133	1	4	-0.226077	-0.74783	-8.7258	-0.984394
 134	1	4	-0.130348	-2.31094	-9.09663	-0.230598
 135	1	2	0.087114	-1.53232	-8.20763	1.9259
 136	1	5	0.237906	-2.67434	-6.83441	0.151854
 137	1	1	-0.185789	2.67094	-6.76592	0.788107
 138	1	1	0.725698	1.50159	-7.70498	0.398565
 139	1	2	0.009194	2.36175	-5.72607	0.620329
 140	1	3	-0.517699	0.369016	-7.49187	1.31493
 141	1	4	-0.226077	1.18475	-7.48086	-0.623936
 142	1	4	-0.130348	1.83291	-8.74858	0.44968
 143	1	2	0.087114	3.51174	-6.96333	0.110937
 144	1	5	0.237906	0.0560172	-6.53787	1.14504
 145	1	1	-0.185789	4.45024	-6.37498	4.16813
 146	1	1	0.725698	4.14359	-6.02943	2.68866
 147	1	2	0.009194	4.74736	-7.43137	4.21429
 148	1	3	-0.517699	3.09766	-6.93337	2.20136
 149	1	4	-0.226077	3.79046	-4.99584	2.6122
 150	1	4	-0.130348	5.04949	-6.1454	2.08309
 151	1	2	0.087114	5.3225	-5.79212	4.48978
 152	1	5	0.237906	2.29219	-6.79667	2.80623
 153	1	1	-0.185789	2.23243	-6.4664	7.31167
 154	1	1	0.725698	3.40812	-6.8559	6.37566
 155	1	2	0.009194	1.30632	-6.40553	6.7253
 156	1	3	-0.517699	3.31715	-6.13084	5.10477
 157	1	4	-0.226077	4.36763	-6.65832	6.86141
 158	1	4	-0.130348	3.34222	-7.92876	6.16322
 159	1	2	0.087114	2.08476	-7.29403	8.01718
 160	1	5	0.237906	2.44495	-6.44242	4.68574
 161	1	1	-0.185789	3.36021	-4.05564	10.0866
 162	1	1	0.725698	3.50944	-5.20956	9.05621
 163	1	2	0.009194	3.71953	-4.41801	11.0575
 164	1	3	-0.517699	2.40747	-5.20306	8.08183
 165	1	4	-0.226077	4.46392	-5.12982	8.52843
 166	1	4	-0.130348	3.48786	-6.16133	9.59947
 167	1	2	0.087114	2.28954	-3.85353	10.2232
 168	1	5	0.237906	2.55613	-4.41349	7.45596
 169	1	1	-0.185789	4.36247	-0.732657	8.45842
 170	1	1	0.725698	3.89413	-2.20859	8.45445
 171	1	2	0.009194	4.23039	-0.320504	7.45009
 172	1	3	-0.517699	4.0824	-2.78783	9.78685
 173	1	4	-0.226077	2.82767	-2.23831	8.20471
 174	1	4	-0.130348	4.44656	-2.78751	7.70703
 175	1	2	0.087114	5.43911	-0.708035	8.67444
 176	1	5	0.237906	3.80091	-2.0687	10.4504
 177	1	1	-0.185789	3.24295	2.25732	10.5965
 178	1	1	0.725698	3.89354	1.54707	9.38129
 179	1	2	0.009194	3.26185	3.3404	10.4197
 180	1	3	-0.517699	3.62676	0.1072	9.44243
 181	1	4	-0.226077	3.47163	1.93703	8.44993
 182	1	4	-0.130348	4.97347	1.73375	9.38973
 183	1	2	0.087114	3.89854	2.06622	11.4546
 184	1	5	0.237906	2.62471	0.0263423	9.27658
 185	1	1	-0.185789	1.86474	2.44953	13.3515
 186	1	1	0.725698	1.14265	2.5508	11.9795
 187	1	2	0.009194	2.02667	1.39309	13.6025
 188	1	3	-0.517699	1.84787	1.82404	10.9124
 189	1	4	-0.226077	0.14585	2.10687	12.0785
 190	1	4	-0.130348	1.02716	3.60299	11.6968
 191	1	2	0.087114	2.85321	2.9144	13.2533
 192	1	5	0.237906	1.8393	0.840878	11.1748
 193	1	1	-0.185789	1.17559	4.13619	16.7214
 194	1	1	0.725698	1.86803	3.15316	15.7438
 195	1	2	0.009194	1.72163	4.13112	17.6734
 196	1	3	-0.517699	1.14438	3.11835	14.4644
 197	1	4	-0.226077	2.8986	3.47885	15.5658
 198	1	4	-0.130348	1.8876	2.14645	16.1761
 199	1	2	0.087114	0.167093	3.75908	16.9334
 200	1	5	0.237906	0.246522	2.66874	14.6307
 201	1	1	-0.185789	0.389547	7.88117	16.3207
 202	1	1	0.725698	0.414228	6.50943	17.0438
 203	1	2	0.009194	-0.155762	7.75616	15.3757
 204	1	3	-0.517699	1.10672	5.52806	16.1992
 205	1	4	-0.226077	0.918747	6.59205	18.0115
 206	1	4	-0.130348	-0.615576	6.17272	17.2105
 207	1	2	0.087114	-0.189109	8.58796	16.9285
 208	1	5	0.237906	0.640693	5.53122	15.294
 209	1	1	-0.185789	3.25109	9.96009	14.7775
 210	1	1	0.725698	1.78276	9.53176	15.0584
 211	1	2	0.009194	3.33959	10.247	13.7238
 212	1	3	-0.517699	1.73967	8.44345	16.0443
 213	1	4	-0.226077	1.18148	10.3827	15.3959
 214	1	4	-0.130348	1.35233	9.15757	14.1224
 215	1	2	0.087114	3.88601	9.07229	14.8882
 216	1	5	0.237906	2.3378	7.70384	15.6811
 217	1	1	-0.185789	4.08754	12.9176	14.0259
 218	1	1	0.725698	3.38593	12.4285	15.3291
 219	1	2	0.009194	5.14056	12.6082	14.0512
 220	1	3	-0.517699	3.78356	11.047	15.6498
 221	1	4	-0.226077	3.7131	13.0589	16.1616
 222	1	4	-0.130348	2.29754	12.5093	15.2326
 223	1	2	0.087114	3.63156	12.3986	13.1753
 224	1	5	0.237906	4.8003	11.0493	15.6338
 225	1	1	-0.185789	4.89073	16.6953	14.2164
 226	1	1	0.725698	4.66758	15.2524	14.7622
 227	1	2	0.009194	4.71694	17.4158	15.0272
 228	1	3	-0.517699	4.04121	14.3796	13.7569
 229	1	4	-0.226077	5.6511	14.8416	15.017
 230	1	4	-0.130348	4.05483	15.2806	15.6689
 231	1	2	0.087114	5.95564	16.7799	13.9686
 232	1	5	0.237906	4.51467	14.5843	12.8799
 233	1	1	-0.185789	1.88315	17.5478	11.9502
 234	1	1	0.725698	2.6759	17.3392	13.2725
 235	1	2	0.009194	1.58621	16.5714	11.546
 236	1	3	-0.517699	4.09581	17.0858	13.0158
 237	1	4	-0.226077	2.63626	18.2657	13.8511
 238	1	4	-0.130348	2.22883	16.529	13.8576
 239	1	2	0.087114	2.55419	17.9973	11.2077
 240	1	5	0.237906	4.4584	17.9582	12.639
 241	1	1	-0.185789	-1.25345	19.1671	13.4397
 242	1	1	0.725698	-0.3325	17.9745	13.0482
 243	1	2	0.009194	-1.92131	18.8376	14.2454
 244	1	3	-0.517699	0.690267	18.4271	12.093
 245	1	4	-0.226077	0.156577	17.6058	13.9534
 246	1	4	-0.130348	-0.921632	17.1585	12.6159
 247	1	2	0.087114	-1.89792	19.3929	12.5807
 248	1	5	0.237906	1.0098	19.3191	12.4584
 249	1	1	-0.185789	1.28139	21.5642	15.0815
 250	1	1	0.725698	0.438651	20.268	14.9469
 251	1	2	0.009194	2.21501	21.3291	15.6096
 252	1	3	-0.517699	-0.551113	20.4176	13.8669
 253	1	4	-0.226077	1.11951	19.4654	14.6718
 254	1	4	-0.130348	-0.054916	20.0133	15.8908
 255	1	2	0.087114	1.58241	21.8807	14.0755
 256	1	5	0.237906	-0.0484588	20.8069	13.0732
 257	1	1	-0.185789	-0.28705	23.6891	17.8677
 258	1	1	0.725698	0.606037	22.5936	17.2385
 259	1	2	0.009194	-0.216885	23.5901	18.9585
 260	1	3	-0.517699	0.597771	22.6881	15.7729
 261	1	4	-0.226077	1.6329	22.7062	17.6008
 262	1	4	-0.130348	0.234135	21.6095	17.5436
 263	1	2	0.087114	0.127603	24.674	17.6144
 264	1	5	0.237906	-0.376019	22.7257	15.4799
 265	1	1	-0.185789	-4.08469	24.1624	17.7581
 266	1	1	0.725698	-2.64997	24.4064	18.2438
 267	1	2	0.009194	-4.20255	24.4795	16.7145
 268	1	3	-0.517699	-1.71401	23.603	17.4555
 269	1	4	-0.226077	-2.40243	25.4654	18.1221
 270	1	4	-0.130348	-2.5734	24.1399	19.3037
 271	1	2	0.087114	-4.78656	24.7327	18.3754
 272	1	5	0.237906	-1.81992	23.8913	16.4854
 273	1	5	0	-5.9208	-6.4777	-14.1837
 274	1	2	0	-4.34622	23.0987	17.8305

Velocities

   1	-0.000860909	-4.72625e-05	-0.000462843
   2	-0.000865924	0.000493894	0.000406949
   3	-0.00156976	-0.000446372	-9.56772e-05
   4	0.00146084	-0.00111663	-0.000703009
   5	-0.000876432	0.00196722	0.00255409
   6	-0.0033267	-0.000100009	-9.01408e-05
   7	-0.00051275	0.000488964	-0.000651137
   8	0.00247434	-0.00161562	-0.00142865
   9	-3.95502e-05	2.82947e-05	-0.000325553
  10	-0.000290208	-0.000430509	-0.00074213
  11	0.00063862	0.000426196	-0.000202605
  12	-0.00106405	-0.000210929	-0.0012331
  13	0.000402725	-0.00126993	-0.00109546
  14	-1.40949e-06	-0.000246639	-0.000639456
  15	-0.000107237	4.65329e-05	-0.000439044
  16	-0.00101914	0.000895376	-0.00180809
  17	-0.000202895	4.89347e-05	0.000603444
  18	4.05107e-05	0.000185037	0.000346684
  19	-0.000178211	0.000268332	0.00096874
  20	-0.000403678	0.000590763	-0.00025505
  21	0.000577737	0.000130405	-0.0001231
  22	0.000129292	-0.000113739	0.00059167
  23	-0.000513124	-4.5422e-05	0.000701383
  24	-0.000541827	0.000886493	0.000488114
  25	-0.000146032	-0.000223161	0.000248243
  26	-0.000723191	-3.57733e-05	0.000573973
  27	2.19684e-05	-0.000763327	0.000417471
  28	-0.000431826	-1.18865e-05	0.000542995
  29	-0.00117802	-0.000405048	0.000972282
  30	-0.000761782	0.000616934	0.00078487
  31	-8.93489e-05	-0.000463781	0.000255866
  32	-0.000132211	4.01333e-05	0.000312184
  33	-0.000158499	3.5796e-05	-0.000389946
  34	1.18833e-05	9.87752e-05	-0.000328778
  35	-0.000391262	-3.11892e-05	-0.000215813
  36	0.000127143	-5.16823e-05	-0.000371393
  37	-3.83926e-05	0.00014164	-0.000313014
  38	2.75228e-05	0.000125709	-0.000271862
  39	-0.000175393	-7.3496e-05	-0.000630845
  40	0.000527632	-0.000191991	-0.000477904
  41	-4.35067e-05	7.4372e-05	-1.86445e-07
  42	-2.2577e-05	0.000180628	-0.00013268
  43	-9.15025e-05	5.29874e-05	0.000167226
  44	4.8311e-06	0.000231217	-0.000240033
  45	1.20697e-05	0.000329881	-6.50509e-05
  46	-2.36978e-05	0.000183401	-0.000199003
  47	1.99015e-05	-8.18429e-05	-3.48501e-05
  48	4.71774e-07	0.000268832	-3.27959e-05
  49	-0.000132611	0.000187461	-1.77699e-05
  50	-9.26143e-05	0.000116512	4.95413e-05
  51	-7.61005e-05	0.000269272	4.47041e-05
  52	-8.38039e-05	0.000155485	-3.37146e-06
  53	-0.00012786	7.91475e-05	0.000129111
  54	-1.50039e-05	4.09547e-05	2.12976e-05
  55	-0.000185975	0.000255676	-0.000121481
  56	-0.000143458	0.000244326	2.62573e-05
  57	-0.000165369	0.00013796	-1.51309e-06
  58	-0.000203612	8.32947e-05	-0.000125142
  59	-0.000190439	0.000126291	-6.24824e-05
  60	-0.00018153	2.89316e-05	-6.77832e-05
  61	-0.000224833	-6.95739e-05	-0.000148414
  62	-0.000280245	0.000133854	-0.000257747
  63	-0.000165092	0.000342832	-2.38937e-05
  64	-9.36318e-05	-2.62289e-05	5.76916e-05
  65	-0.000149149	-6.84638e-05	0.00033928
  66	-3.94633e-05	-9.50132e-05	0.000242531
  67	-0.000443124	-4.28218e-05	0.000437882
  68	-0.000127625	0.00011495	0.000228145
  69	-2.13084e-05	-1.19648e-05	0.000103744
  70	3.97614e-05	-0.000179187	0.000254367
  71	-0.000192352	-0.00017682	9.65057e-05
  72	-8.50949e-05	0.000141563	0.000300614
  73	0.000395177	3.74119e-05	0.000478927
  74	0.000247116	-0.000199783	0.000505983
  75	0.00038577	0.000163123	0.000508309
  76	8.30729e-07	-6.61428e-05	0.000554593
  77	8.164e-05	-0.000263327	0.000633537
  78	0.000365133	-0.000413705	0.000492087
  79	0.000258736	0.00018469	0.000489491
  80	-0.000375606	4.06933e-05	0.000432019
  81	0.000951732	4.8784e-06	-8.25678e-05
  82	0.00070083	-1.17008e-05	-3.67676e-05
  83	0.0011873	-0.000182792	-1.22656e-05
  84	0.000777856	-3.21211e-05	0.000642369
  85	0.000152081	-0.000135749	-9.37979e-05
  86	0.000762155	9.13337e-06	-0.000420804
  87	0.00110903	0.000226832	-0.000180967
  88	0.000656071	6.91641e-06	0.00131951
  89	0.000517126	0.000150848	-6.01063e-05
  90	0.000721777	-0.000112741	-2.39714e-05
  91	0.000481264	-8.89158e-05	-0.000285176
  92	0.000758548	-8.60618e-06	-6.30976e-05
  93	0.000592737	-0.000247609	0.000165698
  94	0.000944803	-0.000176269	-2.6045e-05
  95	0.000689754	0.000255539	0.000200875
  96	0.000672132	6.16153e-05	-0.000220481
  97	9.30855e-05	0.000438548	-0.00018087
  98	-5.17207e-05	0.000716984	-0.000187877
  99	0.000166273	0.000382254	-1.25402e-05
 100	0.000139133	0.000479854	-0.000244593
 101	-0.000288733	0.000782264	4.51259e-05
 102	-3.53675e-05	0.000963174	-0.000433629
 103	0.000129253	0.000400879	-9.10607e-05
 104	-4.41877e-05	0.000363756	-0.000430782
 105	2.92183e-05	-0.000117699	-0.000531964
 106	8.83726e-05	3.16529e-06	-0.000378413
 107	9.04108e-05	-1.99551e-05	-0.000538727
 108	7.48612e-05	0.000233012	-0.000412185
 109	0.000102255	-6.38492e-05	-0.000308261
 110	0.000106477	-2.78774e-05	-0.000273897
 111	-3.15742e-05	-0.000204494	-0.000479877
 112	3.93263e-05	0.000269823	-0.00053917
 113	0.000283709	-0.000263175	-0.00031813
 114	0.000151279	-5.14813e-05	-0.000157286
 115	0.000451422	-0.000230372	-0.00037875
 116	5.38218e-05	-0.000159513	-0.000714094
 117	-0.000106399	0.000341429	2.03813e-05
 118	0.000479787	-0.000187087	0.000139102
 119	0.000345753	-0.000284035	-0.000344204
 120	-0.000269968	-7.43382e-06	-0.00102267
 121	-0.000362567	-0.000907575	-0.000418839
 122	-0.000186221	-0.00109527	-0.000221416
 123	-0.000489519	-0.000974544	-0.000789609
 124	0.000126513	-0.000545461	-0.000351422
 125	0.000143055	-0.00140679	0.000147821
 126	-0.00060943	-0.00136024	-0.000267376
 127	-0.000229899	-0.00107818	-0.00029879
 128	0.00024716	-0.000462497	-0.000176014
 129	-0.000403115	0.000572324	0.000399727
 130	-0.000209126	-0.000124373	0.000280115
 131	-0.000446942	0.000657672	0.000968218
 132	-0.000492353	-0.000340423	-0.000262039
 133	-6.7924e-05	-0.000240037	0.000452784
 134	-4.27353e-05	-0.000310474	0.000442888
 135	-0.000514027	0.000942442	0.000175407
 136	-0.000610398	-0.000243574	-0.000425848
 137	-0.000393252	0.000590888	0.000318929
 138	-0.000376698	0.000593718	0.00025079
 139	-0.000416817	0.000613804	0.000405015
 140	-0.000422225	0.000633497	0.000185295
 141	-0.000318832	0.000551804	0.000231216
 142	-0.000374424	0.000582693	0.000284779
 143	-0.000398886	0.000679874	0.000258481
 144	-0.000451538	0.000606837	3.97302e-05
 145	0.00044674	-0.0003741	9.12913e-05
 146	0.000160966	-7.39372e-05	0.000215572
 147	0.000271811	-0.000445109	-0.000116937
 148	-0.000350454	0.000480343	0.000292587
 149	0.000627512	9.28548e-05	0.000423016
 150	-2.91801e-05	-0.000402769	-3.38836e-05
 151	0.00063267	-0.000572036	-2.87393e-05
 152	-0.000260738	0.000914919	0.000350379
 153	0.000872272	-0.000259993	0.00039797
 154	0.000949676	-0.000182286	0.000470896
 155	0.000929049	-0.000274976	0.000315643
 156	0.000726455	-0.000309421	0.000407698
 157	0.000931191	6.20494e-05	0.000426564
 158	0.00113285	-0.000227372	0.000607232
 159	0.000800147	-0.000267039	0.000388312
 160	0.00061324	-0.000302961	0.000657981
 161	0.000609995	-2.92081e-05	0.000380345
 162	0.000227556	-0.000589909	0.000973439
 163	0.00114605	0.000558302	0.00040623
 164	0.000765894	-0.000255046	0.000384037
 165	0.00056771	-0.00153314	0.00147114
 166	-0.000786532	-0.000316099	0.00141863
 167	0.000666496	-1.2913e-05	0.00078116
 168	0.00141038	-0.000381473	0.000378459
 169	-0.00160846	-0.000328179	-0.00130712
 170	-0.00145089	-0.000369109	-0.00056146
 171	-0.00341206	-0.000332508	-0.00107673
 172	0.000407025	-0.000197847	-0.000758276
 173	-0.00178201	-0.00047603	0.00092766
 174	-0.00245548	-0.000432408	-0.00127196
 175	-0.0012447	-0.000209963	-0.00316009
 176	0.00139048	-5.36902e-05	-0.000530767
 177	0.000717348	-0.000229694	-6.8094e-05
 178	-0.000100859	-0.000422222	-0.000394432
 179	0.00106611	-0.000237747	-8.73281e-05
 180	-3.95213e-05	-0.000416757	-1.87433e-05
 181	-0.000813387	-0.000560234	-0.000136305
 182	-0.000103773	-0.00044223	-0.00125131
 183	0.000901895	-0.00046002	-0.000244382
 184	-0.000303046	-0.000432133	0.00154996
 185	0.00043726	0.000292983	0.000355311
 186	0.000961915	0.000819868	0.00012933
 187	-0.000688766	0.000165286	0.000594984
 188	0.000641242	0.000303972	0.000288639
 189	0.000606695	0.00156157	-0.000125927
 190	0.00179213	0.000903676	0.000104374
 191	0.000929312	-0.000693991	0.000668907
 192	0.000267624	0.000343832	0.000426617
 193	-0.000558082	0.00088301	-1.37112e-05
 194	-0.000259599	0.00076797	0.000302158
 195	-0.000774928	0.00105814	0.000118712
 196	0.000471199	0.00111565	-0.000109498
 197	-2.59858e-05	0.000402066	0.000938241
 198	-0.000898289	0.000740063	0.000274773
 199	-0.000583795	0.000853041	-0.000195019
 200	-5.0618e-06	0.00193579	-0.000505823
 201	-0.000218229	0.000788788	-0.000198433
 202	-0.000226177	0.000943237	1.26316e-05
 203	-0.000522823	0.000795667	-2.82825e-05
 204	-0.000593712	0.000816326	-0.000144879
 205	0.000223487	0.00103367	-0.000239101
 206	-0.000189395	0.00109645	0.000499739
 207	0.000229072	0.00108426	-0.0001266
 208	-0.000799411	0.000884177	-4.75502e-05
 209	0.000661597	-0.000750922	-0.000351768
 210	0.00041252	-0.000180583	-0.000888071
 211	0.00116092	-0.000766222	-0.000297934
 212	-7.26992e-05	0.000174775	-0.000587482
 213	0.000554177	8.56139e-05	-0.00130388
 214	0.000619197	-0.000335649	-0.000911533
 215	0.000237901	-0.00103087	-0.00019733
 216	-0.000401952	-0.000194594	-0.000392598
 217	0.000418054	-0.00116358	-0.000114901
 218	0.00114437	-0.000882699	0.000341686
 219	0.000399959	-0.00119173	-0.000583854
 220	0.000797759	-0.00108615	-7.78491e-06
 221	0.00204358	-0.00104764	0.000142578
 222	0.00111763	-0.000417686	0.00119945
 223	-8.04354e-05	-0.00119331	0.000177578
 224	0.000794837	-0.00136605	0.000133162
 225	0.00150628	-0.00193084	-0.00220949
 226	-0.00241207	-0.000328158	0.00039074
 227	0.00584143	-0.000104039	-0.00287706
 228	0.00047854	-0.00127295	-0.000593238
 229	-0.00395893	-0.000968582	0.00546786
 230	-0.00642235	0.00237642	-0.00231772
 231	0.00126059	-0.00606055	-0.00484972
 232	0.00206855	-0.00137314	0.000237213
 233	-4.26333e-05	0.000444528	0.000920787
 234	0.000587036	-0.000287331	0.000420997
 235	-0.000788329	0.000838915	0.00073486
 236	0.000158491	-0.00112798	-0.00100523
 237	0.00165099	-0.000580009	0.000840027
 238	0.000571984	-0.000285372	0.000383455
 239	-0.000265616	0.000409196	0.000701305
 240	0.000475834	-0.00155786	-0.00163097
 241	-0.000194908	0.000341353	0.0010336
 242	0.000142528	0.000545185	0.00106408
 243	0.000328989	0.000225972	0.00141975
 244	0.00049124	0.00111075	0.00162865
 245	-6.55491e-05	0.000462235	0.00112337
 246	0.000461248	0.000505587	0.000613154
 247	-0.000705384	-0.000193895	0.00124792
 248	0.00097431	0.000349799	0.00286593
 249	0.000121037	0.00113194	-0.00037259
 250	0.00112335	0.000569063	-0.000985787
 251	0.000654152	0.00133701	-0.00106484
 252	-0.000451786	0.000694447	0.000519758
 253	0.00156988	0.00178106	-0.00294221
 254	0.00263199	-0.00118472	-0.000623877
 255	-0.000641425	0.00211238	-0.000376874
 256	-0.00174588	0.001168	-0.000129738
 257	-0.00105879	-0.000918202	0.000424564
 258	-0.000939933	-0.000979199	0.000531668
 259	-0.00151479	-0.000863702	0.000514281
 260	-0.00019329	0.00013433	0.000671851
 261	-0.00128226	-0.00141185	0.00137078
 262	-0.00150593	-0.00110198	-0.000173302
 263	-0.000964222	-0.000997824	0.000532833
 264	-0.000163586	0.000320982	0.000428975
 265	-0.00120257	0.00127078	4.74956e-05
 266	-0.000491317	0.000437676	-0.000449145
 267	-0.00112525	0.00015361	-8.23625e-05
 268	-0.00109886	-0.000592027	0.000174875
 269	8.27021e-05	0.000197697	-0.00129206
 270	-0.000573368	0.00147966	-0.000166014
 271	-0.000143362	0.00257834	-9.4124e-05
 272	-0.000734538	-0.000883878	-0.000101027
 273	0.00115959	-0.000208938	-0.00235049
 274	-0.00227736	0.00161963	0.00141197

Bonds

   1	4	1	2
   2	5	1	3
   3	5	1	7
   4	2	2	4
   5	1	2	5
   6	1	2	6
   7	3	4	8
   8	4	9	10
   9	5	9	11
  10	5	9	15
  11	2	10	12
  12	1	10	13
  13	1	10	14
  14	3	12	16
  15	2	1	12
  16	4	17	18
  17	5	17	19
  18	5	17	23
  19	2	18	20
  20	1	18	21
  21	1	18	22
  22	3	20	24
  23	2	9	20
  24	4	25	26
  25	5	25	27
  26	5	25	31
  27	2	26	28
  28	1	26	29
  29	1	26	30
  30	3	28	32
  31	2	17	28
  32	4	33	34
  33	5	33	35
  34	5	33	39
  35	2	34	36
  36	1	34	37
  37	1	34	38
  38	3	36	40
  39	2	25	36
  40	4	41	42
  41	5	41	43
  42	5	41	47
  43	2	42	44
  44	1	42	45
  45	1	42	46
  46	3	44	48
  47	2	33	44
  48	4	49	50
  49	5	49	51
  50	5	49	55
  51	2	50	52
  52	1	50	53
  53	1	50	54
  54	3	52	56
  55	2	41	52
  56	4	57	58
  57	5	57	59
  58	5	57	63
  59	2	58	60
  60	1	58	61
  61	1	58	62
  62	3	60	64
  63	2	49	60
  64	4	65	66
  65	5	65	67
  66	5	65	71
  67	2	66	68
  68	1	66	69
  69	1	66	70
  70	3	68	72
  71	2	57	68
  72	4	73	74
  73	5	73	75
  74	5	73	79
  75	2	74	76
  76	1	74	77
  77	1	74	78
  78	3	76	80
  79	2	65	76
  80	4	81	82
  81	5	81	83
  82	5	81	87
  83	2	82	84
  84	1	82	85
  85	1	82	86
  86	3	84	88
  87	2	73	84
  88	4	89	90
  89	5	89	91
  90	5	89	95
  91	2	90	92
  92	1	90	93
  93	1	90	94
  94	3	92	96
  95	2	81	92
  96	4	97	98
  97	5	97	99
  98	5	97	103
  99	2	98	100
 100	1	98	101
 101	1	98	102
 102	3	100	104
 103	2	89	100
 104	4	105	106
 105	5	105	107
 106	5	105	111
 107	2	106	108
 108	1	106	109
 109	1	106	110
 110	3	108	112
 111	2	97	108
 112	4	113	114
 113	5	113	115
 114	5	113	119
 115	2	114	116
 116	1	114	117
 117	1	114	118
 118	3	116	120
 119	2	105	116
 120	4	121	122
 121	5	121	123
 122	5	121	127
 123	2	122	124
 124	1	122	125
 125	1	122	126
 126	3	124	128
 127	2	113	124
 128	4	129	130
 129	5	129	131
 130	5	129	135
 131	2	130	132
 132	1	130	133
 133	1	130	134
 134	3	132	136
 135	2	121	132
 136	4	137	138
 137	5	137	139
 138	5	137	143
 139	2	138	140
 140	1	138	141
 141	1	138	142
 142	3	140	144
 143	2	129	140
 144	4	145	146
 145	5	145	147
 146	5	145	151
 147	2	146	148
 148	1	146	149
 149	1	146	150
 150	3	148	152
 151	2	137	148
 152	4	153	154
 153	5	153	155
 154	5	153	159
 155	2	154	156
 156	1	154	157
 157	1	154	158
 158	3	156	160
 159	2	145	156
 160	4	161	162
 161	5	161	163
 162	5	161	167
 163	2	162	164
 164	1	162	165
 165	1	162	166
 166	3	164	168
 167	2	153	164
 168	4	169	170
 169	5	169	171
 170	5	169	175
 171	2	170	172
 172	1	170	173
 173	1	170	174
 174	3	172	176
 175	2	161	172
 176	4	177	178
 177	5	177	179
 178	5	177	183
 179	2	178	180
 180	1	178	181
 181	1	178	182
 182	3	180	184
 183	2	169	180
 184	4	185	186
 185	5	185	187
 186	5	185	191
 187	2	186	188
 188	1	186	189
 189	1	186	190
 190	3	188	192
 191	2	177	188
 192	4	193	194
 193	5	193	195
 194	5	193	199
 195	2	194	196
 196	1	194	197
 197	1	194	198
 198	3	196	200
 199	2	185	196
 200	4	201	202
 201	5	201	203
 202	5	201	207
 203	2	202	204
 204	1	202	205
 205	1	202	206
 206	3	204	208
 207	2	193	204
 208	4	209	210
 209	5	209	211
 210	5	209	215
 211	2	210	212
 212	1	210	213
 213	1	210	214
 214	3	212	216
 215	2	201	212
 216	4	217	218
 217	5	217	219
 218	5	217	223
 219	2	218	220
 220	1	218	221
 221	1	218	222
 222	3	220	224
 223	2	209	220
 224	4	225	226
 225	5	225	227
 226	5	225	231
 227	2	226	228
 228	1	226	229
 229	1	226	230
 230	3	228	232
 231	2	217	228
 232	4	233	234
 233	5	233	235
 234	5	233	239
 235	2	234	236
 236	1	234	237
 237	1	234	238
 238	3	236	240
 239	2	225	236
 240	4	241	242
 241	5	241	243
 242	5	241	247
 243	2	242	244
 244	1	242	245
 245	1	242	246
 246	3	244	248
 247	2	233	244
 248	4	249	250
 249	5	249	251
 250	5	249	255
 251	2	250	252
 252	1	250	253
 253	1	250	254
 254	3	252	256
 255	2	241	252
 256	4	257	258
 257	5	257	259
 258	5	257	263
 259	2	258	260
 260	1	258	261
 261	1	258	262
 262	3	260	264
 263	2	249	260
 264	4	265	266
 265	5	265	267
 266	5	265	271
 267	2	266	268
 268	1	266	269
 269	1	266	270
 270	3	268	272
 271	2	257	268
 272	3	4	273
 273	5	265	274

Angles

   1	4	2	1	3
   2	4	2	1	7
   3	7	3	1	7
   4	2	1	2	4
   5	6	1	2	5
   6	6	1	2	6
   7	1	4	2	5
   8	1	4	2	6
   9	8	5	2	6
  10	5	2	4	8
  11	4	10	9	11
  12	4	10	9	15
  13	7	11	9	15
  14	2	9	10	12
  15	6	9	10	13
  16	6	9	10	14
  17	1	12	10	13
  18	1	12	10	14
  19	8	13	10	14
  20	5	10	12	16
  21	2	2	1	12
  22	9	3	1	12
  23	9	7	1	12
  24	10	1	12	10
  25	5	1	12	16
  26	4	18	17	19
  27	4	18	17	23
  28	7	19	17	23
  29	2	17	18	20
  30	6	17	18	21
  31	6	17	18	22
  32	1	20	18	21
  33	1	20	18	22
  34	8	21	18	22
  35	5	18	20	24
  36	2	10	9	20
  37	9	11	9	20
  38	9	15	9	20
  39	10	9	20	18
  40	5	9	20	24
  41	4	26	25	27
  42	4	26	25	31
  43	7	27	25	31
  44	2	25	26	28
  45	6	25	26	29
  46	6	25	26	30
  47	1	28	26	29
  48	1	28	26	30
  49	8	29	26	30
  50	5	26	28	32
  51	2	18	17	28
  52	9	19	17	28
  53	9	23	17	28
  54	10	17	28	26
  55	5	17	28	32
  56	4	34	33	35
  57	4	34	33	39
  58	7	35	33	39
  59	2	33	34	36
  60	6	33	34	37
  61	6	33	34	38
  62	1	36	34	37
  63	1	36	34	38
  64	8	37	34	38
  65	5	34	36	40
  66	2	26	25	36
  67	9	27	25	36
  68	9	31	25	36
  69	10	25	36	34
  70	5	25	36	40
  71	4	42	41	43
  72	4	42	41	47
  73	7	43	41	47
  74	2	41	42	44
  75	6	41	42	45
  76	6	41	42	46
  77	1	44	42	45
  78	1	44	42	46
  79	8	45	42	46
  80	5	42	44	48
  81	2	34	33	44
  82	9	35	33	44
  83	9	39	33	44
  84	10	33	44	42
  85	5	33	44	48
  86	4	50	49	51
  87	4	50	49	55
  88	7	51	49	55
  89	2	49	50	52
  90	6	49	50	53
  91	6	49	50	54
  92	1	52	50	53
  93	1	52	50	54
  94	8	53	50	54
  95	5	50	52	56
  96	2	42	41	52
  97	9	43	41	52