pySIMM System Object

400 atoms
399 bonds
745 angles
1038 dihedrals
0 impropers

5 atom types
5 bond types
10 angle types
3 dihedral types

-95.698432 95.698432 xlo xhi
-95.698432 95.698432 ylo yhi
-95.698432 95.698432 zlo zhi

Masses

   1	12.01	# c3
   2	1.008	# hc
   3	14.01	# n3
   4	1.008	# h1
   5	1.008	# hn

Pair Coeffs

   1	0.1094	3.3996695084235347	# c3
   2	0.0157	2.649532787749369	# hc
   3	0.17	3.249998523775958	# n3
   4	0.0157	2.471353044121301	# h1
   5	0.0157	1.069078461768407	# hn

Bond Coeffs

   1	330.6	1.0969	# c3,h1
   2	325.9	1.4647	# c3,n3
   3	392.4	1.019	# hn,n3
   4	300.9	1.5375	# c3,c3
   5	330.6	1.0969	# c3,hc

Angle Coeffs

   1	49.53	109.88	# h1,c3,n3
   2	66.02	111.04	# c3,c3,n3
   3	41.4	106.4	# hn,n3,hn
   4	46.34	109.8	# c3,c3,hc
   5	47.42	109.29	# c3,n3,hn
   6	46.39	109.56	# c3,c3,h1
   7	39.4	107.58	# hc,c3,hc
   8	39.24	108.46	# h1,c3,h1
   9	49.55	109.8	# hc,c3,n3
  10	63.82	112.35	# c3,n3,c3

Dihedral Coeffs

   1	1	0.15555555555555556	3	0	# X,c3,c3,X
   2	1	0.3	3	0	# X,c3,n3,X
   3	2	0.3	3	0	0.48	2	180	# c3,c3,n3,c3

Atoms

   1	1	1	-0.185789	-30.0917	42.0886	-29.4179
   2	1	1	0.725698	-29.3273	41.0949	-28.5038
   3	1	2	0.009194	-29.6309	43.0789	-29.3111
   4	1	3	-0.517699	-29.8774	39.7476	-28.6067
   5	1	4	-0.226077	-28.2752	41.0551	-28.8001
   6	1	4	-0.130348	-29.3768	41.4204	-27.4589
   7	1	2	0.087114	-29.9255	41.7864	-30.4593
   8	1	5	0.237906	-29.2227	39.1337	-28.1298
   9	1	1	-0.185789	-33.479	42.9095	-27.7729
  10	1	1	0.725698	-31.9602	42.6177	-27.8247
  11	1	2	0.009194	-33.72	43.3165	-26.7826
  12	1	3	-0.517699	-31.5574	42.2138	-29.1763
  13	1	4	-0.226077	-31.4111	43.5201	-27.5372
  14	1	4	-0.130348	-31.7128	41.8187	-27.1149
  15	1	2	0.087114	-33.6898	43.706	-28.4992
  16	1	5	0.237906	-32.035	41.3361	-29.374
  17	1	1	-0.185789	-36.6313	40.7501	-28.1107
  18	1	1	0.725698	-35.7868	42.0459	-28.0525
  19	1	2	0.009194	-37.6927	41.0271	-28.0698
  20	1	3	-0.517699	-34.3526	41.7352	-28.0406
  21	1	4	-0.226077	-36.0194	42.6829	-28.9122
  22	1	4	-0.130348	-36.0442	42.5885	-27.135
  23	1	2	0.087114	-36.4644	40.269	-29.0833
  24	1	5	0.237906	-34.2274	41.029	-27.3142
  25	1	1	-0.185789	-36.6974	37.6138	-25.8491
  26	1	1	0.725698	-37.1955	38.6195	-26.9269
  27	1	2	0.009194	-35.6866	37.2818	-26.1112
  28	1	3	-0.517699	-36.3257	39.7959	-27.0126
  29	1	4	-0.226077	-37.2073	38.1156	-27.8986
  30	1	4	-0.130348	-38.2163	38.939	-26.689
  31	1	2	0.087114	-37.3305	36.7228	-25.939
  32	1	5	0.237906	-36.417	40.2647	-26.1116
  33	1	1	-0.185789	-35.8391	39.4029	-22.5266
  34	1	1	0.725698	-35.864	39.2004	-24.0589
  35	1	2	0.009194	-35.2516	40.3036	-22.3131
  36	1	3	-0.517699	-36.7185	38.0626	-24.4233
  37	1	4	-0.226077	-36.2519	40.11	-24.5305
  38	1	4	-0.130348	-34.8448	39.0295	-24.4179
  39	1	2	0.087114	-36.866	39.6081	-22.1975
  40	1	5	0.237906	-36.4156	37.2968	-23.8229
  41	1	1	-0.185789	-34.2704	39.3907	-19.7817
  42	1	1	0.725698	-35.2946	38.3498	-20.3063
  43	1	2	0.009194	-34.3045	39.3782	-18.6844
  44	1	3	-0.517699	-35.2797	38.2465	-21.7718
  45	1	4	-0.226077	-35.0263	37.369	-19.9011
  46	1	4	-0.130348	-36.3015	38.6048	-19.9568
  47	1	2	0.087114	-34.5963	40.3926	-20.088
  48	1	5	0.237906	-34.3034	38.0972	-22.0238
  49	1	1	-0.185789	-30.449	39.7357	-20.1531
  50	1	1	0.725698	-31.8796	40.0676	-19.6577
  51	1	2	0.009194	-30.348	40.0698	-21.1934
  52	1	3	-0.517699	-32.8711	39.1502	-20.2303
  53	1	4	-0.226077	-31.9069	39.9689	-18.5673
  54	1	4	-0.130348	-32.1288	41.1031	-19.9181
  55	1	2	0.087114	-29.7535	40.3389	-19.5564
  56	1	5	0.237906	-32.57	38.2231	-19.933
  57	1	1	-0.185789	-28.0719	38.3674	-21.5894
  58	1	1	0.725698	-28.6675	37.9436	-20.2146
  59	1	2	0.009194	-27.0657	37.9379	-21.6747
  60	1	3	-0.517699	-30.0864	38.2925	-20.0611
  61	1	4	-0.226077	-28.5731	36.8585	-20.1084
  62	1	4	-0.130348	-28.086	38.4132	-19.413
  63	1	2	0.087114	-27.9381	39.456	-21.579
  64	1	5	0.237906	-30.5798	37.7715	-20.7861
  65	1	1	-0.185789	-30.1076	36.3296	-24.1811
  66	1	1	0.725698	-29.24	36.5746	-22.9147
  67	1	2	0.009194	-30.0731	35.2559	-24.4025
  68	1	3	-0.517699	-28.8623	37.9891	-22.7941
  69	1	4	-0.226077	-29.7919	36.2614	-22.0229
  70	1	4	-0.130348	-28.3232	35.9793	-22.9922
  71	1	2	0.087114	-29.6323	36.8233	-25.0376
  72	1	5	0.237906	-28.3473	38.2378	-23.6342
  73	1	1	-0.185789	-31.3973	39.1175	-24.8584
  74	1	1	0.725698	-31.8956	38.1126	-23.7771
  75	1	2	0.009194	-31.839	40.1011	-24.6535
  76	1	3	-0.517699	-31.5478	36.7162	-24.0892
  77	1	4	-0.226077	-31.4896	38.3828	-22.7998
  78	1	4	-0.130348	-32.9853	38.1777	-23.7041
  79	1	2	0.087114	-30.3172	39.2445	-24.7278
  80	1	5	0.237906	-32.017	36.495	-24.9649
  81	1	1	-0.185789	-33.198	38.2325	-28.1541
  82	1	1	0.725698	-33.0807	38.6341	-26.6624
  83	1	2	0.009194	-34.2598	38.1948	-28.4267
  84	1	3	-0.517699	-31.6689	38.7444	-26.2756
  85	1	4	-0.226077	-33.5574	39.6082	-26.5043
  86	1	4	-0.130348	-33.5642	37.8817	-26.0317
  87	1	2	0.087114	-32.748	39.0326	-28.7553
  88	1	5	0.237906	-31.259	39.4359	-26.9033
  89	1	1	-0.185789	-33.7343	36.4537	-30.6699
  90	1	1	0.725698	-32.397	36.5877	-29.8933
  91	1	2	0.009194	-34.2265	37.4337	-30.7223
  92	1	3	-0.517699	-32.5519	36.9281	-28.4722
  93	1	4	-0.226077	-31.7726	37.3518	-30.3687
  94	1	4	-0.130348	-31.8563	35.6365	-29.9501
  95	1	2	0.087114	-34.3982	35.7893	-30.1014
  96	1	5	0.237906	-31.6059	36.9314	-28.0951
  97	1	1	-0.185789	-34.4234	35.1637	-34.2309
  98	1	1	0.725698	-34.7687	35.7599	-32.8412
  99	1	2	0.009194	-33.7191	35.8353	-34.7391
 100	1	3	-0.517699	-33.5461	35.9243	-32.0473
 101	1	4	-0.226077	-35.2288	36.7437	-32.9837
 102	1	4	-0.130348	-35.479	35.109	-32.3172
 103	1	2	0.087114	-35.3434	35.1637	-34.8295
 104	1	5	0.237906	-32.9502	36.5552	-32.5787
 105	1	1	-0.185789	-33.0	31.7514	-35.3523
 106	1	1	0.725698	-33.4671	33.2248	-35.4887
 107	1	2	0.009194	-33.7851	31.187	-34.8321
 108	1	3	-0.517699	-33.8547	33.7869	-34.1898
 109	1	4	-0.226077	-32.6542	33.8254	-35.9126
 110	1	4	-0.130348	-34.3232	33.2652	-36.1722
 111	1	2	0.087114	-32.9356	31.3305	-36.3642
 112	1	5	0.237906	-33.0237	33.7601	-33.6018
 113	1	1	-0.185789	-30.01	29.9713	-33.6794
 114	1	1	0.725698	-31.3562	30.136	-34.4411
 115	1	2	0.009194	-29.918	28.9153	-33.3948
 116	1	3	-0.517699	-31.6984	31.5488	-34.654
 117	1	4	-0.226077	-31.2958	29.6347	-35.4125
 118	1	4	-0.130348	-32.1505	29.6571	-33.8583
 119	1	2	0.087114	-30.0747	30.5297	-32.7374
 120	1	5	0.237906	-30.9466	31.9503	-35.2099
 121	1	1	-0.185789	-27.1499	29.9847	-36.2618
 122	1	1	0.725698	-28.582	29.7213	-35.7191
 123	1	2	0.009194	-26.9316	31.0569	-36.1815
 124	1	3	-0.517699	-28.7686	30.3589	-34.4102
 125	1	4	-0.226077	-29.3163	30.156	-36.4039
 126	1	4	-0.130348	-28.7555	28.6435	-35.63
 127	1	2	0.087114	-26.4357	29.4709	-35.6053
 128	1	5	0.237906	-28.7391	31.3627	-34.5703
 129	1	1	-0.185789	-27.1394	27.8779	-39.4924
 130	1	1	0.725698	-27.1037	28.1399	-37.9621
 131	1	2	0.009194	-27.2201	26.7944	-39.6481
 132	1	3	-0.517699	-26.9369	29.5719	-37.6767
 133	1	4	-0.226077	-28.0345	27.7795	-37.5164
 134	1	4	-0.130348	-26.2699	27.5879	-37.5138
 135	1	2	0.087114	-26.1759	28.1763	-39.9237
 136	1	5	0.237906	-26.0041	29.8333	-37.9857
 137	1	1	-0.185789	-30.6682	28.7746	-40.7202
 138	1	1	0.725698	-29.594	28.3744	-39.6785
 139	1	2	0.009194	-30.4622	29.7873	-41.0897
 140	1	3	-0.517699	-28.245	28.5432	-40.2414
 141	1	4	-0.226077	-29.6848	29.0164	-38.7975
 142	1	4	-0.130348	-29.7493	27.3317	-39.3785
 143	1	2	0.087114	-31.6361	28.8158	-40.2043
 144	1	5	0.237906	-28.0926	29.5493	-40.2733
 145	1	1	-0.185789	-31.958	26.9029	-43.8046
 146	1	1	0.725698	-31.6679	28.1621	-42.9454
 147	1	2	0.009194	-32.5647	26.2199	-43.1955
 148	1	3	-0.517699	-30.7487	27.8185	-41.8556
 149	1	4	-0.226077	-31.2084	28.9435	-43.5591
 150	1	4	-0.130348	-32.6132	28.5393	-42.5388
 151	1	2	0.087114	-32.5844	27.2033	-44.6545
 152	1	5	0.237906	-29.8306	27.7162	-42.2845
 153	1	1	-0.185789	-29.7564	24.1242	-45.2939
 154	1	1	0.725698	-31.0588	24.8603	-44.881
 155	1	2	0.009194	-29.0606	24.127	-44.4448
 156	1	3	-0.517699	-30.7562	26.1707	-44.2946
 157	1	4	-0.226077	-31.7223	24.9728	-45.7446
 158	1	4	-0.130348	-31.5727	24.2507	-44.1291
 159	1	2	0.087114	-30.0169	23.0723	-45.4659
 160	1	5	0.237906	-30.1377	25.9782	-43.5087
 161	1	1	-0.185789	-28.8956	24.7374	-48.9675
 162	1	1	0.725698	-29.8385	24.6784	-47.7385
 163	1	2	0.009194	-28.2771	23.8311	-48.9808
 164	1	3	-0.517699	-29.0542	24.6512	-46.4963
 165	1	4	-0.226077	-30.4871	25.5587	-47.7173
 166	1	4	-0.130348	-30.4593	23.7779	-47.8058
 167	1	2	0.087114	-28.215	25.5861	-48.8302
 168	1	5	0.237906	-28.7398	25.6062	-46.333
 169	1	1	-0.185789	-29.5081	25.2844	-52.7181
 170	1	1	0.725698	-28.7177	24.8747	-51.4499
 171	1	2	0.009194	-28.8119	25.3182	-53.5668
 172	1	3	-0.517699	-29.5936	24.8729	-50.2743
 173	1	4	-0.226077	-28.3025	23.8689	-51.5855
 174	1	4	-0.130348	-27.8937	25.5817	-51.3008
 175	1	2	0.087114	-29.8617	26.3131	-52.5639
 176	1	5	0.237906	-30.2499	24.1082	-50.4199
 177	1	1	-0.185789	-32.7362	24.0007	-54.3821
 178	1	1	0.725698	-31.4934	24.9001	-54.1578
 179	1	2	0.009194	-33.3258	24.4465	-55.193
 180	1	3	-0.517699	-30.6537	24.3987	-53.0631
 181	1	4	-0.226077	-30.8916	24.9452	-55.071
 182	1	4	-0.130348	-31.8332	25.9125	-53.9125
 183	1	2	0.087114	-33.3674	24.052	-53.4842
 184	1	5	0.237906	-30.3029	23.4926	-53.364
 185	1	1	-0.185789	-33.2795	20.369	-55.54
 186	1	1	0.725698	-33.6467	21.7635	-54.9678
 187	1	2	0.009194	-32.7715	19.7799	-54.7641
 188	1	3	-0.517699	-32.4481	22.5798	-54.7278
 189	1	4	-0.226077	-34.3156	22.2822	-55.6612
 190	1	4	-0.130348	-34.1786	21.6288	-54.0195
 191	1	2	0.087114	-34.219	19.8479	-55.7654
 192	1	5	0.237906	-31.9243	22.1259	-53.9852
 193	1	1	-0.185789	-31.21	19.3221	-58.6152
 194	1	1	0.725698	-32.1545	19.1233	-57.4042
 195	1	2	0.009194	-31.5923	20.1523	-59.2248
 196	1	3	-0.517699	-32.4297	20.4126	-56.7604
 197	1	4	-0.226077	-33.1	18.6843	-57.7435
 198	1	4	-0.130348	-31.6852	18.4391	-56.6875
 199	1	2	0.087114	-31.2688	18.4228	-59.2426
 200	1	5	0.237906	-31.5326	20.849	-56.5538
 201	1	1	-0.185789	-27.4698	20.1654	-58.8961
 202	1	1	0.725698	-28.9453	20.0341	-59.3519
 203	1	2	0.009194	-26.965	20.8658	-59.5745
 204	1	3	-0.517699	-29.7926	19.5849	-58.2442
 205	1	4	-0.226077	-29.3023	21.0081	-59.6966
 206	1	4	-0.130348	-29.005	19.3203	-60.1818
 207	1	2	0.087114	-27.4512	20.6292	-57.8999
 208	1	5	0.237906	-29.3628	18.7438	-57.8626
 209	1	1	-0.185789	-24.5449	17.6578	-58.6971
 210	1	1	0.725698	-25.2921	19.0065	-58.5098
 211	1	2	0.009194	-24.8899	16.9574	-57.9252
 212	1	3	-0.517699	-26.7106	18.8828	-58.8838
 213	1	4	-0.226077	-25.2173	19.3311	-57.4665
 214	1	4	-0.130348	-24.8192	19.7642	-59.1449
 215	1	2	0.087114	-23.4804	17.8373	-58.5001
 216	1	5	0.237906	-26.7028	18.4946	-59.8237
 217	1	1	-0.185789	-24.5588	15.0383	-61.5082
 218	1	1	0.725698	-23.9994	15.7755	-60.2587
 219	1	2	0.009194	-24.1714	15.5143	-62.4187
 220	1	3	-0.517699	-24.729	17.0314	-60.0382
 221	1	4	-0.226077	-24.1464	15.1315	-59.3883
 222	1	4	-0.130348	-22.9272	15.9674	-60.373
 223	1	2	0.087114	-24.164	14.0139	-61.494
 224	1	5	0.237906	-25.7059	16.7655	-60.1326
 225	1	1	-0.185789	-28.2146	14.3439	-62.496
 226	1	1	0.725698	-26.6856	14.085	-62.5025
 227	1	2	0.009194	-28.5975	14.2345	-61.4741
 228	1	3	-0.517699	-26.0486	15.0202	-61.5666
 229	1	4	-0.226077	-26.4677	13.0545	-62.2036
 230	1	4	-0.130348	-26.2991	14.2522	-63.5152
 231	1	2	0.087114	-28.3776	15.3921	-62.7741
 232	1	5	0.237906	-26.384	15.9475	-61.8142
 233	1	1	-0.185789	-30.0799	11.3737	-64.0651
 234	1	1	0.725698	-29.1179	12.0664	-63.068
 235	1	2	0.009194	-31.077	11.8149	-63.9349
 236	1	3	-0.517699	-29.0212	13.4904	-63.4048
 237	1	4	-0.226077	-29.4909	11.9433	-62.0474
 238	1	4	-0.130348	-28.1269	11.606	-63.1419
 239	1	2	0.087114	-30.1645	10.3124	-63.7982
 240	1	5	0.237906	-28.6858	13.5432	-64.3644
 241	1	1	-0.185789	-30.2046	11.6562	-67.8732
 242	1	1	0.725698	-30.6323	11.0819	-66.4991
 243	1	2	0.009194	-29.1667	11.3677	-68.0746
 244	1	3	-0.517699	-29.6692	11.5288	-65.4869
 245	1	4	-0.226077	-31.6299	11.4535	-66.245
 246	1	4	-0.130348	-30.6521	9.98553	-66.5237
 247	1	2	0.087114	-30.213	12.7507	-67.7864
 248	1	5	0.237906	-28.7952	11.0434	-65.6749
 249	1	1	-0.185789	-33.1817	11.3088	-70.2817
 250	1	1	0.725698	-32.4684	11.5754	-68.9265
 251	1	2	0.009194	-33.2736	10.2243	-70.4216
 252	1	3	-0.517699	-31.0416	11.2508	-69.0316
 253	1	4	-0.226077	-32.5729	12.6355	-68.6742
 254	1	4	-0.130348	-32.9343	10.9766	-68.1366
 255	1	2	0.087114	-34.2073	11.6951	-70.1992
 256	1	5	0.237906	-30.7115	11.7477	-69.8557
 257	1	1	-0.185789	-31.3977	13.757	-72.6854
 258	1	1	0.725698	-32.2318	13.3254	-71.449
 259	1	2	0.009194	-31.9568	13.4987	-73.5932
 260	1	3	-0.517699	-32.517	11.8836	-71.491
 261	1	4	-0.226077	-31.6521	13.5504	-70.5486
 262	1	4	-0.130348	-33.1698	13.8909	-71.4042
 263	1	2	0.087114	-31.3241	14.8517	-72.6657
 264	1	5	0.237906	-31.6283	11.4145	-71.6651
 265	1	1	-0.185789	-27.7057	12.9089	-71.9799
 266	1	1	0.725698	-29.1207	13.4513	-71.6609
 267	1	2	0.009194	-27.7696	11.8234	-72.1238
 268	1	3	-0.517699	-30.0351	13.1558	-72.7729
 269	1	4	-0.226077	-29.4999	12.979	-70.7465
 270	1	4	-0.130348	-29.0687	14.5382	-71.5041
 271	1	2	0.087114	-27.0721	13.0732	-71.1015
 272	1	5	0.237906	-29.5566	13.4676	-73.6187
 273	1	1	-0.185789	-24.6458	13.1749	-72.6915
 274	1	1	0.725698	-25.8304	12.9499	-73.6739
 275	1	2	0.009194	-24.7239	12.4556	-71.8668
 276	1	3	-0.517699	-27.0852	13.5339	-73.182
 277	1	4	-0.226077	-25.5798	13.4444	-74.618
 278	1	4	-0.130348	-25.9571	11.8804	-73.873
 279	1	2	0.087114	-23.7225	12.9191	-73.2273
 280	1	5	0.237906	-26.8726	14.5123	-72.9989
 281	1	1	-0.185789	-24.4291	17.0325	-72.3279
 282	1	1	0.725698	-24.4877	15.6653	-73.0658
 283	1	2	0.009194	-23.9294	17.7422	-73.0002
 284	1	3	-0.517699	-24.5372	14.5461	-72.1106
 285	1	4	-0.226077	-25.3809	15.6395	-73.704
 286	1	4	-0.130348	-23.5926	15.548	-73.6943
 287	1	2	0.087114	-23.7756	16.9314	-71.454
 288	1	5	0.237906	-23.6932	14.6072	-71.5451
 289	1	1	-0.185789	-27.9019	17.6083	-70.6275
 290	1	1	0.725698	-26.5742	16.8743	-70.984
 291	1	2	0.009194	-28.2794	18.1279	-71.5182
 292	1	3	-0.517699	-25.7396	17.6377	-71.9209
 293	1	4	-0.226077	-26.0165	16.6542	-70.0716
 294	1	4	-0.130348	-26.8452	15.9281	-71.4601
 295	1	2	0.087114	-28.637	16.824	-70.408
 296	1	5	0.237906	-26.3048	17.8221	-72.7459
 297	1	1	-0.185789	-29.1035	20.0868	-67.8734
 298	1	1	0.725698	-29.1812	19.012	-69.0078
 299	1	2	0.009194	-28.4787	20.9224	-68.2237
 300	1	3	-0.517699	-27.8525	18.5706	-69.4826
 301	1	4	-0.226077	-29.6951	18.128	-68.6146
 302	1	4	-0.130348	-29.7603	19.4017	-69.8539
 303	1	2	0.087114	-28.5748	19.6432	-67.017
 304	1	5	0.237906	-27.3877	18.1432	-68.6842
 305	1	1	-0.185789	-32.8185	20.2949	-66.6818
 306	1	1	0.725698	-31.4145	19.668	-66.9434
 307	1	2	0.009194	-33.5397	19.4668	-66.6934
 308	1	3	-0.517699	-30.4197	20.641	-67.4191
 309	1	4	-0.226077	-31.0373	19.1917	-66.0359
 310	1	4	-0.130348	-31.5387	18.8984	-67.7068
 311	1	2	0.087114	-33.0851	20.9445	-67.5265
 312	1	5	0.237906	-30.2804	21.3125	-66.6668
 313	1	1	-0.185789	-32.6609	23.0015	-63.921
 314	1	1	0.725698	-32.5964	22.4155	-65.3598
 315	1	2	0.009194	-32.278	24.0316	-63.9489
 316	1	3	-0.517699	-32.9962	21.0029	-65.383
 317	1	4	-0.226077	-33.297	22.9633	-65.9996
 318	1	4	-0.130348	-31.5874	22.5367	-65.7697
 319	1	2	0.087114	-33.7229	23.0822	-63.6512
 320	1	5	0.237906	-33.9758	21.0007	-65.1078
 321	1	1	-0.185789	-29.5188	22.9042	-62.9028
 322	1	1	0.725698	-30.5599	21.7758	-63.1229
 323	1	2	0.009194	-29.7012	23.6958	-63.6384
 324	1	3	-0.517699	-31.9475	22.2134	-62.8702
 325	1	4	-0.226077	-30.4616	21.4052	-64.1519
 326	1	4	-0.130348	-30.3288	20.9424	-62.4536
 327	1	2	0.087114	-28.5385	22.4776	-63.1365
 328	1	5	0.237906	-31.9774	22.6851	-61.9711
 329	1	1	-0.185789	-28.3803	25.1067	-59.9073
 330	1	1	0.725698	-28.4949	24.57	-61.3613
 331	1	2	0.009194	-29.37	25.4077	-59.5533
 332	1	3	-0.517699	-29.4824	23.4913	-61.5287
 333	1	4	-0.226077	-28.8057	25.409	-62.006
 334	1	4	-0.130348	-27.5123	24.222	-61.7038
 335	1	2	0.087114	-27.7883	26.0277	-59.9766
 336	1	5	0.237906	-30.3815	23.9038	-61.3019
 337	1	1	-0.185789	-27.6134	25.5503	-56.7636
 338	1	1	0.725698	-26.8783	24.7401	-57.8745
 339	1	2	0.009194	-28.1984	24.862	-56.1422
 340	1	3	-0.517699	-27.7301	24.1755	-58.938
 341	1	4	-0.226077	-26.1276	25.3902	-58.3343
 342	1	4	-0.130348	-26.3502	23.9129	-57.3934
 343	1	2	0.087114	-26.8303	25.9609	-56.1067
 344	1	5	0.237906	-28.382	23.4998	-58.5516
 345	1	1	-0.185789	-29.6633	28.8362	-56.9595
 346	1	1	0.725698	-28.8001	27.7216	-56.2968
 347	1	2	0.009194	-29.7706	29.6371	-56.214
 348	1	3	-0.517699	-28.487	26.6546	-57.2522
 349	1	4	-0.226077	-27.8626	28.169	-55.9529
 350	1	4	-0.130348	-29.3183	27.3065	-55.4287
 351	1	2	0.087114	-29.1142	29.2689	-57.8088
 352	1	5	0.237906	-29.3666	26.2712	-57.5926
 353	1	1	-0.185789	-33.3697	28.4892	-56.4242
 354	1	1	0.725698	-31.9171	27.9387	-56.3253
 355	1	2	0.009194	-33.8599	28.2888	-55.4584
 356	1	3	-0.517699	-31.0428	28.4749	-57.3828
 357	1	4	-0.226077	-31.5095	28.233	-55.361
 358	1	4	-0.130348	-31.9123	26.8484	-56.3774
 359	1	2	0.087114	-33.2832	29.5818	-56.5032
 360	1	5	0.237906	-31.0596	27.8436	-58.1873
 361	1	1	-0.185789	-34.7347	27.3811	-59.8697
 362	1	1	0.725698	-33.6893	27.9529	-58.8727
 363	1	2	0.009194	-34.2406	26.9948	-60.7751
 364	1	3	-0.517699	-34.2454	27.9643	-57.5112
 365	1	4	-0.226077	-32.7786	27.3503	-58.8932
 366	1	4	-0.130348	-33.435	28.9832	-59.1615
 367	1	2	0.087114	-35.212	26.5105	-59.3847
 368	1	5	0.237906	-35.0986	28.5279	-57.5545
 369	1	1	-0.185789	-37.199	28.0185	-62.2352
 370	1	1	0.725698	-37.0523	27.9605	-60.6964
 371	1	2	0.009194	-38.2068	27.6516	-62.4729
 372	1	3	-0.517699	-35.7359	28.4169	-60.2434
 373	1	4	-0.226077	-37.8034	28.6274	-60.259
 374	1	4	-0.130348	-37.2497	26.941	-60.3394
 375	1	2	0.087114	-36.5067	27.291	-62.6827
 376	1	5	0.237906	-35.367	29.0821	-60.9209
 377	1	1	-0.185789	-37.689	31.1098	-64.515
 378	1	1	0.725698	-38.0965	29.8664	-63.6824
 379	1	2	0.009194	-37.0056	30.7725	-65.2943
 380	1	3	-0.517699	-36.9884	29.3753	-62.842
 381	1	4	-0.226077	-38.9504	30.1005	-63.0296
 382	1	4	-0.130348	-38.423	29.0811	-64.3775
 383	1	2	0.087114	-38.6025	31.4247	-65.0347
 384	1	5	0.237906	-36.8544	30.0951	-62.1272
 385	1	1	-0.185789	-35.0174	32.7119	-65.1244
 386	1	1	0.725698	-35.6711	32.4772	-63.7139
 387	1	2	0.009194	-34.0271	32.2341	-65.1304
 388	1	3	-0.517699	-37.1419	32.3037	-63.7817
 389	1	4	-0.226077	-35.2228	31.5911	-63.2467
 390	1	4	-0.130348	-35.4495	33.3455	-63.0688
 391	1	2	0.087114	-35.5937	32.1969	-65.902
 392	1	5	0.237906	-37.5072	33.1528	-64.2028
 393	1	1	-0.185789	-34.0757	36.0513	-64.2024
 394	1	1	0.725698	-33.6894	34.8672	-65.0896
 395	1	2	0.009194	-34.9889	36.5427	-64.5552
 396	1	3	-0.517699	-34.8511	34.1212	-65.5721
 397	1	4	-0.226077	-33.1682	35.2531	-65.966
 398	1	4	-0.130348	-33.0112	34.2077	-64.5493
 399	1	2	0.087114	-33.2613	36.7884	-64.2714
 400	1	5	0.237906	-35.6952	34.6836	-65.5729

Velocities

   1	0.00224087	6.31765e-05	0.00177285
   2	0.00263357	-0.000238151	0.00189615
   3	0.00155152	0.00113018	0.0011349
   4	0.00233749	-0.000108788	0.00053647
   5	0.00224691	0.00110864	0.00140781
   6	0.000596303	-0.00169046	0.00226825
   7	0.000534231	0.000255933	0.00122555
   8	0.00113614	-0.000184851	0.00409043
   9	0.00149706	-0.00127867	0.00239107
  10	0.00226196	-0.00103297	0.00216905
  11	0.00182536	-0.00339704	0.00317874
  12	0.00223088	-0.000387498	0.00188263
  13	0.00110316	-0.00102237	0.00308064
  14	0.0030165	-0.000869416	0.00171197
  15	0.00258816	-0.000491951	0.0027871
  16	0.00180544	-0.00135839	0.000512185
  17	0.00105327	0.00132323	0.00128049
  18	0.00130981	0.000904776	0.000567146
  19	0.00244376	0.00119586	0.00161775
  20	0.000913972	0.000135462	0.000888579
  21	0.00134175	0.000786728	0.00030102
  22	0.00236756	0.000225069	0.00115853
  23	4.93328e-05	0.00148812	0.00156666
  24	0.00101475	-0.000585324	-0.000133109
  25	0.00144752	0.000591359	0.000851533
  26	0.000948374	0.000417387	0.00103897
  27	0.00192591	0.00092929	0.000756394
  28	0.000480238	0.000961585	0.000870649
  29	0.00164075	5.57908e-05	0.000639999
  30	0.000923477	0.00119574	0.000145725
  31	0.0012403	0.000752555	0.000402012
  32	0.00128188	0.000510564	0.00145334
  33	0.00189	-1.47701e-05	0.000416601
  34	0.00155214	-0.000515446	0.000697869
  35	0.00297872	-0.000721597	0.00056206
  36	0.00184896	-0.000746357	0.00101744
  37	0.0023351	-0.000682979	0.000177696
  38	0.00155511	-0.0016179	0.000953217
  39	0.00253732	0.000119056	-0.000907959
  40	0.00247079	-0.000509367	7.3158e-05
  41	0.000443759	-0.000395854	0.00083615
  42	0.000363674	-0.000948071	7.30323e-05
  43	0.000618669	-0.000557203	0.000893114
  44	0.000636405	-0.000493514	7.89926e-05
  45	0.000672814	-0.00162646	0.000505966
  46	0.000206369	-0.00118325	-0.000612662
  47	0.000853851	0.000310124	0.00156619
  48	0.00156357	-0.00137486	-6.31356e-05
  49	0.00064393	-0.000629864	0.000539305
  50	0.000434143	-0.000424936	0.000542027
  51	0.000694237	-0.00063241	0.000309076
  52	0.000448076	-0.000512598	0.00147063
  53	0.0012521	-0.00123709	0.000325541
  54	0.00070832	-0.000245121	0.00122955
  55	0.00198469	-0.00057156	0.000171856
  56	0.000908084	-8.09817e-05	0.00250451
  57	0.000643886	-0.000141394	0.00179305
  58	0.000422855	-0.000806474	0.00115108
  59	0.00126796	0.000410582	0.00207463
  60	0.00026468	0.000180608	0.00049597
  61	-6.73109e-05	-0.00165775	0.00051775
  62	0.000748519	-0.000295647	0.00200413
  63	0.000204438	2.14354e-05	0.00133769
  64	0.000105251	0.000936	-0.00103695
  65	0.00124888	-0.00168521	0.0021934
  66	0.00174821	-0.000912749	0.00125401
  67	0.00109451	-0.0021368	0.00260575
  68	0.00140544	-0.00111943	0.00164653
  69	0.00269942	-0.000360541	0.00181695
  70	0.00147607	0.000169245	0.000662604
  71	0.000887669	-0.000411741	0.00282704
  72	0.00176662	-0.000871311	0.00227944
  73	0.00203244	-0.00136552	0.00132135
  74	0.000816513	-0.00101391	0.00086687
  75	0.003855	0.000102535	0.00284985
  76	0.000980158	-0.00133027	0.00185352
  77	0.00109845	-0.00113585	0.00119334
  78	0.00165532	-0.000537639	0.00129722
  79	0.00131962	-0.00168419	0.00104916
  80	0.00233681	-0.000933948	0.00259126
  81	6.85949e-06	-7.00644e-05	0.00169817
  82	0.000358648	-0.00141263	0.00200059
  83	-0.0009503	0.00197263	0.00192168
  84	0.000808487	-0.000254105	0.00120791
  85	-0.000783809	-0.00141213	0.00241141
  86	0.000516986	-0.000966259	0.0018283
  87	0.00136718	-0.000675129	0.00191235
  88	0.000834538	0.0027727	5.99227e-05
  89	0.000761523	0.000974056	0.00022919
  90	-0.000621501	-0.000458844	0.00128275
  91	0.000408079	0.000793031	0.00153931
  92	-0.00152787	-0.000839322	0.00172612
  93	0.00129774	-0.00155649	0.000405393
  94	-0.00123101	-0.0011438	0.00169589
  95	-0.000391111	0.00192925	0.000403507
  96	-0.00251386	-0.00125945	0.00187008
  97	0.00137749	0.00256589	0.000176682
  98	0.000984922	0.00196185	0.000380587
  99	0.00210947	0.00195867	0.00204409
 100	0.00129458	0.000631785	0.000310587
 101	9.14362e-05	0.00189264	0.00196423
 102	0.00229086	0.00085155	-0.000305818
 103	0.0029134	0.00313688	-0.00123558
 104	0.0024963	-0.000310496	0.000547002
 105	0.000758315	0.00233304	0.000321869
 106	0.00102289	0.00387277	-0.000795529
 107	-0.000208881	0.00291864	-0.0018746
 108	0.00145075	0.00284395	-0.000272249
 109	-0.000252492	0.00609109	-0.000216542
 110	0.00179317	0.00318187	-0.00138278
 111	0.00129027	0.00271669	-0.000743102
 112	0.000506383	0.00238374	0.000127002
 113	0.00100142	-0.000363558	0.00198942
 114	-0.000954558	5.77394e-05	0.00408282
 115	0.00328233	0.000576113	8.56006e-05
 116	-0.000205554	0.000946704	0.000811647
 117	-0.000536666	-0.000747048	0.00606901
 118	-0.000179469	0.000833192	0.00442459
 119	0.000605085	-0.000187589	0.0021135
 120	0.000218538	-2.96309e-05	0.00123958
 121	-0.000192919	0.000872913	0.000293891
 122	-0.000218027	0.00055456	0.00169245
 123	-0.000865655	0.000325595	0.000987013
 124	-0.000705634	0.00197477	0.00174929
 125	-0.00161311	-0.00145673	0.00149161
 126	0.00111703	0.000108456	0.00256114
 127	0.00171826	2.09482e-05	-0.00346817
 128	-0.0021348	0.00221591	0.00147035
 129	-0.00267065	0.00145879	-0.000180203
 130	-0.000231104	0.0029069	-0.000617366
 131	-0.00396561	0.000848724	-0.000257162
 132	-0.00225468	0.00288812	-0.00124914
 133	0.00169229	0.00239731	-0.000797813
 134	-0.000651946	0.00336794	-0.00128785
 135	-0.00388443	0.0009688	-0.00231066
 136	-0.00362243	0.00453157	-0.00240196
 137	-0.0025451	-0.00166392	0.00315751
 138	-0.00212871	-0.000233236	0.00093046
 139	-0.00438555	-0.00020801	0.00559427
 140	-0.00212639	0.00374892	0.00211566
 141	-0.00399259	-0.00373687	0.00211424
 142	0.00121933	-0.0010215	-0.00151348
 143	-0.00229035	0.00136475	0.00407368
 144	-0.00261282	0.00271214	0.00769965
 145	-0.000783649	0.0015524	0.00264165
 146	-0.00270881	-0.000206175	0.00254555
 147	0.00270083	-0.000747217	0.00254052
 148	-0.00211371	0.00121284	0.00190969
 149	-0.00484489	0.00263663	0.00432808
 150	-0.0028694	-0.00196379	0.00433863
 151	-0.00165651	-0.00226213	0.00507856
 152	-0.003039	0.00250135	0.000611007
 153	0.00201271	0.00131522	0.00217456
 154	0.0011959	-0.000482403	0.00150615
 155	0.00205657	-0.00245185	0.00149203
 156	0.000368997	0.0028201	0.00134489
 157	-0.00123426	0.00245042	0.00192969
 158	0.000391343	0.0026539	-4.85466e-05
 159	0.00534794	0.00230724	-0.0042574
 160	0.00417068	0.00646526	0.00104447
 161	-0.00151854	0.000322179	0.00185424
 162	-0.000395615	0.00314857	0.00189411
 163	-0.00518271	-0.00419007	0.00413197
 164	-0.000373181	0.00387559	0.00298203
 165	0.00229134	0.00248968	0.00420974
 166	-0.00218254	0.00530238	0.00480376
 167	0.00471103	-0.00335579	-0.00237733
 168	-0.0054079	0.00480264	0.00371667
 169	0.00113442	0.0015708	0.00113277
 170	-0.00142093	-0.00290659	0.0015627
 171	0.00162472	0.00381218	0.00576312
 172	-0.000988594	0.000289667	0.00163403
 173	-0.00294605	-0.00173765	0.00578048
 174	-0.00449014	-0.00252127	0.00702322
 175	0.00812719	0.00228505	-0.00245886
 176	-0.00730787	0.0123331	0.0032159
 177	-0.000299822	-0.000395265	0.000248746
 178	-0.000588373	-0.0009165	0.00108233
 179	0.000817236	-0.00194129	0.000759058
 180	-0.00282665	0.00175717	0.0021426
 181	-0.00414618	-0.00967158	-0.00641012
 182	0.00138774	-0.000490608	-0.00049188
 183	0.00258169	0.00321694	-0.00154171
 184	-0.00571061	-0.000280486	0.000275011
 185	0.0010813	-0.0056574	0.00491453
 186	0.0014342	-0.00162937	0.00212169
 187	0.0125131	4.34083e-05	0.00458795
 188	4.56839e-05	-0.000349028	0.004649
 189	0.00179651	-0.00906849	0.00507896
 190	0.00148783	-0.0119109	-0.000774332
 191	-0.00131915	0.00138491	0.00532359
 192	-0.00235792	0.0122484	0.0100833
 193	0.0024515	0.00262068	0.00713442
 194	-0.00110633	0.00358738	0.00293033
 195	0.00139967	0.00584137	0.00413773
 196	-0.00103263	0.00172654	0.000641483
 197	0.00351322	0.0026204	-0.00103116
 198	0.00276468	0.0037101	5.91586e-05
 199	0.00221403	0.00176757	0.00335893
 200	-0.006325	0.0108032	0.00671552
 201	-0.000414355	0.0010645	0.00027244
 202	3.22679e-06	-0.00125047	0.00226985
 203	0.0102832	0.00634548	0.00878947
 204	0.0019976	-0.000965062	0.00601471
 205	-0.0011502	-0.00584408	-0.00162338
 206	0.00126918	0.00611591	0.00254615
 207	0.00418922	-0.000959197	0.00327601
 208	-0.000845522	-0.00343231	0.000775336
 209	-0.00493784	-0.00100082	0.00203711
 210	-0.00355541	-0.00114376	0.000773598
 211	-0.00870209	-0.000776719	-0.0011326
 212	-0.000451656	-0.00159836	-0.00314432
 213	-0.0012924	-0.000131102	0.00234925
 214	-2.43533e-05	0.00305185	0.00700774
 215	-0.00532421	-0.0128489	0.00750533
 216	0.00256409	0.00367405	-0.0053278
 217	-0.00302793	0.00189419	-0.00144171
 218	-0.000573149	-0.00303684	-0.00311641
 219	-0.0102389	0.00544575	0.00069122
 220	0.0017067	-8.10988e-05	-0.000971402
 221	-0.0111701	-0.00665691	-0.00784455
 222	0.00411115	-0.00978012	0.00491139
 223	-0.00275659	0.00209274	-0.00826712
 224	-6.69546e-05	0.00422915	-0.00515144
 225	-0.00641616	-0.000683567	0.00227034
 226	-0.00359185	0.00277491	-0.0016404
 227	-0.0099453	0.00108836	0.0044041
 228	-0.00428597	0.00333329	0.000457968
 229	-0.00725594	0.00760546	0.00248914
 230	-0.00732969	-0.00735544	-0.00109024
 231	-0.00835769	-0.000734882	-0.000674783
 232	3.70747e-05	0.00532822	0.00421067
 233	-0.000840212	0.00258712	0.00109272
 234	-0.00243439	0.000451995	0.0040443
 235	-0.00551895	0.00251536	-0.00801183
 236	-0.00847832	0.00255258	0.00360338
 237	-0.0100512	0.00471906	-0.00391155
 238	-0.00475596	0.00314402	0.0101573
 239	-0.00603995	-0.000345977	0.000439187
 240	-0.00495548	-0.00392421	0.00775315
 241	0.0024923	-0.00456273	0.00272898
 242	-0.00147768	-0.00258813	-0.000689671
 243	0.00386716	-0.00246596	0.0101458
 244	-0.000658506	-0.00132558	0.00250673
 245	-0.00421361	0.0014145	-0.00405129
 246	-0.00108377	-0.000165787	-0.00115703
 247	0.00914293	-0.00755788	0.00528863
 248	-0.00352136	-0.00978208	0.00804803
 249	0.00300018	0.00441599	-0.00168456
 250	0.00302502	-0.000349315	0.000400483
 251	0.00079313	0.0028405	-0.00603352
 252	0.00405667	0.00207069	-0.0047706
 253	0.0128442	-0.003237	0.000771894
 254	0.00388852	0.00452663	0.000736138
 255	0.000124388	0.00776238	-0.00230685
 256	0.00630779	-0.00650535	-0.00549515
 257	-0.00300557	-0.00143511	0.00087383
 258	9.06269e-06	0.000688546	0.0037612
 259	0.00114633	-0.00156384	0.00318666
 260	0.000448427	0.00118505	-0.000473016
 261	-0.00189351	-0.00450671	0.00378823
 262	-0.0064287	-0.00883145	0.010076
 263	0.00777011	0.00443685	-0.00498755
 264	-0.00546567	0.00254243	-0.0122571
 265	0.00380792	-0.00189637	-0.0113305
 266	0.00283903	-0.00119472	-0.000725311
 267	0.0120255	0.00277284	-0.00837337
 268	0.00144328	0.00017339	-0.00324842
 269	-0.00575128	0.000490414	0.00142262
 270	0.0112809	-0.00543157	-0.0027216
 271	0.00663105	-0.00310464	-0.00968836
 272	0.00913062	-0.0101092	0.00322999
 273	0.000331496	0.00312219	-0.000851763
 274	-0.000984012	-0.00235082	0.00429701
 275	0.0025419	0.00358148	-0.00562953
 276	0.00288878	-8.19612e-05	-0.0033156
 277	0.00464468	-0.00800971	0.000751329
 278	0.00145403	-0.000196508	0.000805876
 279	0.00353672	-0.00378312	0.00256153
 280	-0.00926144	0.00548186	-0.0165764
 281	-0.00315445	0.00474967	-0.000190499
 282	-0.00126107	0.00431556	0.00416826
 283	0.00716263	0.00843421	-0.00777023