pySIMM System Object

322 atoms
321 bonds
600 angles
834 dihedrals
0 impropers

5 atom types
5 bond types
10 angle types
3 dihedral types

-88.687211 88.687211 xlo xhi
-88.687211 88.687211 ylo yhi
-88.687211 88.687211 zlo zhi

Masses

   1	12.01	# c3
   2	1.008	# hc
   3	14.01	# n3
   4	1.008	# h1
   5	1.008	# hn

Pair Coeffs

   1	0.1094	3.3996695084235347	# c3
   2	0.0157	2.649532787749369	# hc
   3	0.17	3.249998523775958	# n3
   4	0.0157	2.471353044121301	# h1
   5	0.0157	1.069078461768407	# hn

Bond Coeffs

   1	330.6	1.0969	# c3,h1
   2	325.9	1.4647	# c3,n3
   3	392.4	1.019	# hn,n3
   4	300.9	1.5375	# c3,c3
   5	330.6	1.0969	# c3,hc

Angle Coeffs

   1	49.53	109.88	# h1,c3,n3
   2	66.02	111.04	# c3,c3,n3
   3	41.4	106.4	# hn,n3,hn
   4	46.34	109.8	# c3,c3,hc
   5	47.42	109.29	# c3,n3,hn
   6	46.39	109.56	# c3,c3,h1
   7	39.4	107.58	# hc,c3,hc
   8	39.24	108.46	# h1,c3,h1
   9	49.55	109.8	# hc,c3,n3
  10	63.82	112.35	# c3,n3,c3

Dihedral Coeffs

   1	1	0.15555555555555556	3	0	# X,c3,c3,X
   2	1	0.3	3	0	# X,c3,n3,X
   3	2	0.3	3	0	0.48	2	180	# c3,c3,n3,c3

Atoms

   1	1	1	-0.185789	16.4063	-5.32899	10.9041
   2	1	1	0.725698	16.6348	-4.62263	12.2675
   3	1	2	0.009194	16.3904	-6.41199	11.0808
   4	1	3	-0.517699	16.455	-3.17913	12.1679
   5	1	4	-0.226077	15.9142	-4.99862	12.9987
   6	1	4	-0.130348	17.6429	-4.82941	12.644
   7	1	2	0.087114	15.4006	-5.06528	10.5534
   8	1	5	0.237906	16.4931	-2.81637	13.1166
   9	1	1	-0.185789	19.6696	-5.24672	8.83655
  10	1	1	0.725698	18.7801	-5.44704	10.0889
  11	1	2	0.009194	20.6519	-5.69557	9.03229
  12	1	3	-0.517699	17.3944	-5.0403	9.82509
  13	1	4	-0.226077	18.7985	-6.5013	10.3811
  14	1	4	-0.130348	19.1773	-4.84979	10.9182
  15	1	2	0.087114	19.2221	-5.81672	8.01106
  16	1	5	0.237906	17.4021	-4.05014	9.5863
  17	1	1	-0.185789	20.8603	-2.10727	6.96812
  18	1	1	0.725698	20.6467	-3.62131	7.21284
  19	1	2	0.009194	21.4691	-1.97636	6.06461
  20	1	3	-0.517699	19.8582	-3.82878	8.43235
  21	1	4	-0.226077	20.1293	-4.06882	6.35774
  22	1	4	-0.130348	21.624	-4.10449	7.32803
  23	1	2	0.087114	19.8812	-1.65526	6.7613
  24	1	5	0.237906	20.3497	-3.31209	9.16252
  25	1	1	-0.185789	22.2024	0.702152	9.26437
  26	1	1	0.725698	21.7408	0.0300432	7.93768
  27	1	2	0.009194	21.4268	0.557106	10.026
  28	1	3	-0.517699	21.5071	-1.40731	8.11002
  29	1	4	-0.226077	20.8071	0.503601	7.618
  30	1	4	-0.130348	22.4943	0.187039	7.15794
  31	1	2	0.087114	22.231	1.7816	9.07254
  32	1	5	0.237906	22.4199	-1.81738	8.30508
  33	1	1	-0.185789	24.984	-1.31965	11.0171
  34	1	1	0.725698	23.6681	-1.11234	10.2358
  35	1	2	0.009194	25.1216	-2.39684	11.1691
  36	1	3	-0.517699	23.5228	0.289824	9.82689
  37	1	4	-0.226077	23.6742	-1.74917	9.34334
  38	1	4	-0.130348	22.8268	-1.40309	10.873
  39	1	2	0.087114	25.8143	-0.977701	10.3849
  40	1	5	0.237906	23.7169	0.834547	10.6667
  41	1	1	-0.185789	26.5773	-2.12143	13.5997
  42	1	1	0.725698	26.266	-0.688315	13.0924
  43	1	2	0.009194	27.5076	-2.07947	14.1806
  44	1	3	-0.517699	25.0107	-0.619992	12.3327
  45	1	4	-0.226077	26.1669	-0.0278727	13.9599
  46	1	4	-0.130348	27.0948	-0.32491	12.4742
  47	1	2	0.087114	26.7867	-2.76308	12.7349
  48	1	5	0.237906	24.2955	-1.00327	12.9494
  49	1	1	-0.185789	24.7206	-4.60406	15.8899
  50	1	1	0.725698	25.8395	-4.05701	14.9671
  51	1	2	0.009194	23.8619	-4.89935	15.2737
  52	1	3	-0.517699	25.5077	-2.72846	14.4398
  53	1	4	-0.226077	26.7655	-3.9782	15.5463
  54	1	4	-0.130348	26.0086	-4.75682	14.1405
  55	1	2	0.087114	25.1093	-5.51961	16.3536
  56	1	5	0.237906	25.3505	-2.14941	15.2631
  57	1	1	-0.185789	22.1144	-4.81448	17.5697
  58	1	1	0.725698	23.4633	-4.19719	18.0425
  59	1	2	0.009194	21.5257	-5.06923	18.46
  60	1	3	-0.517699	24.2702	-3.65005	16.9431
  61	1	4	-0.226077	23.2517	-3.38401	18.7436
  62	1	4	-0.130348	24.0406	-4.96084	18.5763
  63	1	2	0.087114	22.3329	-5.76525	17.0684
  64	1	5	0.237906	23.7015	-2.91609	16.5208
  65	1	1	-0.185789	20.1415	-1.82166	16.0897
  66	1	1	0.725698	21.0022	-2.60049	17.1254
  67	1	2	0.009194	19.6835	-0.973591	16.6134
  68	1	3	-0.517699	21.2826	-3.96889	16.6676
  69	1	4	-0.226077	21.9438	-2.06944	17.2986
  70	1	4	-0.130348	20.4508	-2.66073	18.0702
  71	1	2	0.087114	19.306	-2.45863	15.7742
  72	1	5	0.237906	20.3885	-4.42301	16.5018
  73	1	1	-0.185789	20.6873	-3.20719	13.3049
  74	1	1	0.725698	21.6147	-2.19058	14.033
  75	1	2	0.009194	21.3107	-3.84634	12.6667
  76	1	3	-0.517699	20.8601	-1.27104	14.8998
  77	1	4	-0.226077	22.3669	-2.71951	14.6232
  78	1	4	-0.130348	22.1502	-1.59652	13.2839
  79	1	2	0.087114	20.2497	-3.87518	14.055
  80	1	5	0.237906	20.2026	-0.782351	14.2954
  81	1	1	-0.185789	18.8721	-1.32616	10.4561
  82	1	1	0.725698	20.0472	-1.76951	11.3628
  83	1	2	0.009194	19.3024	-0.759318	9.6253
  84	1	3	-0.517699	19.5971	-2.61402	12.4768
  85	1	4	-0.226077	20.7383	-2.36496	10.7553
  86	1	4	-0.130348	20.5754	-0.893996	11.7554
  87	1	2	0.087114	18.4164	-2.22119	10.0189
  88	1	5	0.237906	19.0515	-3.36301	12.0559
  89	1	1	-0.185789	17.1195	0.832645	9.08663
  90	1	1	0.725698	16.6923	-0.100224	10.2541
  91	1	2	0.009194	17.7553	0.274063	8.38827
  92	1	3	-0.517699	17.8153	-0.511107	11.1142
  93	1	4	-0.226077	16.2119	-0.997282	9.84738
  94	1	4	-0.130348	15.9588	0.418889	10.881
  95	1	2	0.087114	17.7354	1.63889	9.50557
  96	1	5	0.237906	17.3917	-1.0682	11.8549
  97	1	1	-0.185789	15.1381	2.87188	6.49513
  98	1	1	0.725698	16.3813	2.28142	7.20667
  99	1	2	0.009194	14.5128	2.04701	6.12912
 100	1	3	-0.517699	15.9836	1.41485	8.32332
 101	1	4	-0.226077	16.9446	1.68151	6.48416
 102	1	4	-0.130348	17.026	3.09096	7.56826
 103	1	2	0.087114	15.4938	3.41329	5.60917
 104	1	5	0.237906	15.4267	0.667044	7.91533
 105	1	1	-0.185789	12.3667	5.30132	7.62822
 106	1	1	0.725698	13.1191	4.3229	6.69063
 107	1	2	0.009194	13.044	6.12816	7.88033
 108	1	3	-0.517699	14.3187	3.78372	7.33929
 109	1	4	-0.226077	12.4514	3.49413	6.42996
 110	1	4	-0.130348	13.4028	4.84781	5.771
 111	1	2	0.087114	11.5387	5.74044	7.0572
 112	1	5	0.237906	14.0021	3.30292	8.17969
 113	1	1	-0.185789	10.8918	4.97736	11.1677
 114	1	1	0.725698	11.1907	5.64046	9.79493
 115	1	2	0.009194	10.6147	5.76814	11.8764
 116	1	3	-0.517699	11.8442	4.6924	8.88385
 117	1	4	-0.226077	10.2647	5.9968	9.33363
 118	1	4	-0.130348	11.8522	6.49828	9.95856
 119	1	2	0.087114	11.8305	4.55264	11.5456
 120	1	5	0.237906	11.1592	3.97231	8.66666
 121	1	1	-0.185789	7.45404	3.24708	11.2075
 122	1	1	0.725698	8.46796	4.37954	10.8807
 123	1	2	0.009194	7.70987	2.36414	10.6084
 124	1	3	-0.517699	9.8314	3.92954	11.1926
 125	1	4	-0.226077	8.42017	4.62564	9.81549
 126	1	4	-0.130348	8.23381	5.26984	11.4741
 127	1	2	0.087114	7.5985	2.9595	12.2576
 128	1	5	0.237906	10.0529	3.16738	10.5568
 129	1	1	-0.185789	3.94719	4.84085	11.5189
 130	1	1	0.725698	5.46817	4.66582	11.789
 131	1	2	0.009194	3.5579	5.60253	12.2066
 132	1	3	-0.517699	6.01761	3.57127	10.9748
 133	1	4	-0.226077	6.0006	5.59544	11.5722
 134	1	4	-0.130348	5.61104	4.42363	12.848
 135	1	2	0.087114	3.44284	3.90522	11.7896
 136	1	5	0.237906	5.45109	2.75039	11.1738
 137	1	1	-0.185789	3.53673	6.85386	8.25365
 138	1	1	0.725698	4.09821	6.50126	9.65441
 139	1	2	0.009194	3.77903	6.04362	7.55358
 140	1	3	-0.517699	3.56927	5.2141	10.126
 141	1	4	-0.226077	5.18654	6.42441	9.58422
 142	1	4	-0.130348	3.84615	7.29627	10.3657
 143	1	2	0.087114	4.07915	7.74201	7.90478
 144	1	5	0.237906	3.91613	4.51414	9.473
 145	1	1	-0.185789	0.0716738	7.98926	7.00716
 146	1	1	0.725698	1.54793	7.52154	6.90868
 147	1	2	0.009194	0.013847	8.81706	7.72643
 148	1	3	-0.517699	2.07236	7.12252	8.22037
 149	1	4	-0.226077	1.627	6.67385	6.22032
 150	1	4	-0.130348	2.15119	8.34788	6.51499
 151	1	2	0.087114	-0.201295	8.40817	6.0299
 152	1	5	0.237906	1.55946	6.29071	8.50364
 153	1	1	-0.185789	-3.27685	6.27311	7.83133
 154	1	1	0.725698	-2.29829	7.42769	7.4847
 155	1	2	0.009194	-2.93643	5.78781	8.75482
 156	1	3	-0.517699	-0.916229	6.93921	7.38165
 157	1	4	-0.226077	-2.59972	7.90203	6.54567
 158	1	4	-0.130348	-2.3478	8.17955	8.28011
 159	1	2	0.087114	-4.25118	6.721	8.06444
 160	1	5	0.237906	-0.682141	6.55028	8.29197
 161	1	1	-0.185789	-4.36397	4.46797	4.60661
 162	1	1	0.725698	-4.03051	5.68494	5.50777
 163	1	2	0.009194	-5.05489	3.80635	5.14582
 164	1	3	-0.517699	-3.45592	5.23043	6.78193
 165	1	4	-0.226077	-3.30186	6.3261	5.00379
 166	1	4	-0.130348	-4.94464	6.2604	5.6972
 167	1	2	0.087114	-3.43674	3.90085	4.45371
 168	1	5	0.237906	-2.55851	4.80443	6.55963
 169	1	1	-0.185789	-5.78781	4.1155	1.04466
 170	1	1	0.725698	-5.20123	3.66746	2.40695
 171	1	2	0.009194	-5.73067	3.26202	0.356793
 172	1	3	-0.517699	-4.95908	4.81534	3.28697
 173	1	4	-0.226077	-5.90771	2.98505	2.89377
 174	1	4	-0.130348	-4.25864	3.13483	2.23729
 175	1	2	0.087114	-5.13747	4.89607	0.628215
 176	1	5	0.237906	-5.85797	5.27797	3.4085
 177	1	1	-0.185789	-9.25008	5.35721	-0.0830644
 178	1	1	0.725698	-7.75953	4.95048	-0.211104
 179	1	2	0.009194	-9.63048	5.56254	-1.09218
 180	1	3	-0.517699	-7.19874	4.58858	1.09719
 181	1	4	-0.226077	-7.67856	4.08393	-0.875123
 182	1	4	-0.130348	-7.18785	5.77946	-0.643875
 183	1	2	0.087114	-9.30496	6.3039	0.469578
 184	1	5	0.237906	-7.78704	3.83011	1.4355
 185	1	1	-0.185789	-12.3435	3.48855	1.24777
 186	1	1	0.725698	-11.5569	4.61732	0.53385
 187	1	2	0.009194	-12.0351	3.45713	2.30102
 188	1	3	-0.517699	-10.1161	4.334	0.566768
 189	1	4	-0.226077	-11.8948	4.71609	-0.502486
 190	1	4	-0.130348	-11.7451	5.56429	1.05302
 191	1	2	0.087114	-13.4059	3.76399	1.23746
 192	1	5	0.237906	-9.86183	4.22802	1.54529
 193	1	1	-0.185789	-12.547	-0.31871	0.693192
 194	1	1	0.725698	-12.875	1.05283	1.33363
 195	1	2	0.009194	-12.8441	-0.300386	-0.363459
 196	1	3	-0.517699	-12.1736	2.13911	0.642847
 197	1	4	-0.226077	-13.9546	1.23205	1.29613
 198	1	4	-0.130348	-12.5645	1.03213	2.38545
 199	1	2	0.087114	-13.1825	-1.06399	1.18628
 200	1	5	0.237906	-11.1885	1.88093	0.611278
 201	1	1	-0.185789	-11.2562	-3.23298	0.86674
 202	1	1	0.725698	-10.6973	-1.9668	0.157531
 203	1	2	0.009194	-10.6033	-4.0791	0.616953
 204	1	3	-0.517699	-11.1122	-0.709175	0.801351
 205	1	4	-0.226077	-9.60584	-2.00635	0.230679
 206	1	4	-0.130348	-10.969	-1.97011	-0.90425
 207	1	2	0.087114	-11.1645	-3.08522	1.95069
 208	1	5	0.237906	-10.8286	-0.770378	1.77613
 209	1	1	-0.185789	-14.6375	-5.07968	0.824175
 210	1	1	0.725698	-13.2066	-4.71709	1.29446
 211	1	2	0.009194	-15.2591	-4.17518	0.823312
 212	1	3	-0.517699	-12.6539	-3.60549	0.513642
 213	1	4	-0.226077	-13.2394	-4.42365	2.34939
 214	1	4	-0.130348	-12.5586	-5.59615	1.20072
 215	1	2	0.087114	-15.0701	-5.73904	1.58842
 216	1	5	0.237906	-12.7112	-3.88005	-0.465337
 217	1	1	-0.185789	-15.3359	-7.66588	-1.96156
 218	1	1	0.725698	-15.3216	-7.05208	-0.537867
 219	1	2	0.009194	-14.3002	-7.80843	-2.29436
 220	1	3	-0.517699	-14.7055	-5.7182	-0.52197
 221	1	4	-0.226077	-16.3484	-6.96782	-0.168147
 222	1	4	-0.130348	-14.7671	-7.71733	0.133741
 223	1	2	0.087114	-15.7806	-8.66548	-1.87196
 224	1	5	0.237906	-15.2787	-5.14526	-1.13715
 225	1	1	-0.185789	-15.0439	-7.76756	-5.08188
 226	1	1	0.725698	-16.3477	-7.51383	-4.27157
 227	1	2	0.009194	-14.4737	-6.83099	-5.13381
 228	1	3	-0.517699	-16.09	-6.87314	-2.97374
 229	1	4	-0.226077	-16.996	-6.8426	-4.8414
 230	1	4	-0.130348	-16.8781	-8.4614	-4.12135
 231	1	2	0.087114	-14.42	-8.47929	-4.52851
 232	1	5	0.237906	-15.6161	-5.99429	-3.16954
 233	1	1	-0.185789	-15.9708	-7.97067	-8.81405
 234	1	1	0.725698	-16.0345	-7.43415	-7.36301
 235	1	2	0.009194	-16.3105	-9.01487	-8.82387
 236	1	3	-0.517699	-15.2361	-8.28213	-6.46732
 237	1	4	-0.226077	-15.6439	-6.41073	-7.34096
 238	1	4	-0.130348	-17.0745	-7.42769	-7.01926
 239	1	2	0.087114	-14.9192	-7.97398	-9.12938
 240	1	5	0.237906	-15.6835	-9.1963	-6.45404
 241	1	1	-0.185789	-17.6996	-6.80334	-12.0488
 242	1	1	0.725698	-16.7458	-7.64945	-11.1659
 243	1	2	0.009194	-18.712	-6.87687	-11.6317
 244	1	3	-0.517699	-16.7884	-7.18567	-9.77589
 245	1	4	-0.226077	-17.0566	-8.69849	-11.2093
 246	1	4	-0.130348	-15.7216	-7.57539	-11.549
 247	1	2	0.087114	-17.7463	-7.27353	-13.0395
 248	1	5	0.237906	-16.5017	-6.20849	-9.78609
 249	1	1	-0.185789	-16.047	-3.54032	-13.2324
 250	1	1	0.725698	-16.1306	-5.0669	-12.9507
 251	1	2	0.009194	-17.0183	-3.2092	-13.6219
 252	1	3	-0.517699	-17.3533	-5.3604	-12.1923
 253	1	4	-0.226077	-16.1872	-5.61182	-13.8984
 254	1	4	-0.130348	-15.2491	-5.40832	-12.3968
 255	1	2	0.087114	-15.9046	-3.02023	-12.2766
 256	1	5	0.237906	-18.1034	-4.89681	-12.7007
 257	1	1	-0.185789	-14.1169	-3.05099	-16.5189
 258	1	1	0.725698	-14.9214	-3.84891	-15.4562
 259	1	2	0.009194	-13.1958	-2.67135	-16.0585
 260	1	3	-0.517699	-15.0003	-3.09764	-14.1966
 261	1	4	-0.226077	-15.9298	-4.04687	-15.8299
 262	1	4	-0.130348	-14.4295	-4.81005	-15.2702
 263	1	2	0.087114	-13.7965	-3.7598	-17.2936
 264	1	5	0.237906	-15.1685	-2.1277	-14.4575
 265	1	1	-0.185789	-16.6162	-1.11902	-18.7509
 266	1	1	0.725698	-15.9558	-2.32412	-18.0343
 267	1	2	0.009194	-15.8383	-0.430801	-19.107
 268	1	3	-0.517699	-14.8492	-1.91607	-17.1555
 269	1	4	-0.226077	-16.723	-2.84493	-17.454
 270	1	4	-0.130348	-15.5623	-3.0176	-18.7861
 271	1	2	0.087114	-17.218	-0.570681	-18.0145
 272	1	5	0.237906	-14.2059	-1.39389	-17.7468
 273	1	1	-0.185789	-18.7862	-1.01459	-21.9193
 274	1	1	0.725698	-18.2886	-0.510947	-20.5381
 275	1	2	0.009194	-17.9691	-0.896619	-22.6435
 276	1	3	-0.517699	-17.4481	-1.53755	-19.9114
 277	1	4	-0.226077	-17.7244	0.418541	-20.6713
 278	1	4	-0.130348	-19.141	-0.312168	-19.8783
 279	1	2	0.087114	-18.9848	-2.09207	-21.848
 280	1	5	0.237906	-18.0771	-2.29141	-19.6419
 281	1	1	-0.185789	-21.8291	-0.261121	-24.1587
 282	1	1	0.725698	-20.3856	-0.719792	-23.7996
 283	1	2	0.009194	-22.5352	-0.959751	-23.6929
 284	1	3	-0.517699	-20.0104	-0.342928	-22.4298
 285	1	4	-0.226077	-20.3249	-1.80722	-23.913
 286	1	4	-0.130348	-19.6751	-0.262345	-24.4977
 287	1	2	0.087114	-21.9572	-0.397154	-25.2395
 288	1	5	0.237906	-19.8753	0.667387	-22.4537
 289	1	1	-0.185789	-21.0374	2.48257	-25.558
 290	1	1	0.725698	-21.2959	2.22537	-24.048
 291	1	2	0.009194	-19.9738	2.72656	-25.6732
 292	1	3	-0.517699	-22.2298	1.12485	-23.7614
 293	1	4	-0.226077	-20.3463	1.984	-23.5577
 294	1	4	-0.130348	-21.6725	3.14149	-23.5797
 295	1	2	0.087114	-21.2009	1.56078	-26.1284
 296	1	5	0.237906	-22.3653	1.14078	-22.7528
 297	1	1	-0.185789	-22.1388	5.18568	-28.0581
 298	1	1	0.725698	-21.5508	3.83865	-27.5666
 299	1	2	0.009194	-21.8959	5.28271	-29.1231
 300	1	3	-0.517699	-21.8345	3.59268	-26.1473
 301	1	4	-0.226077	-21.9546	3.01412	-28.1639
 302	1	4	-0.130348	-20.4653	3.87352	-27.714
 303	1	2	0.087114	-21.6063	5.99762	-27.5463
 304	1	5	0.237906	-21.6415	4.46072	-25.6537
 305	1	1	-0.185789	-24.51	6.30803	-29.9854
 306	1	1	0.725698	-24.1847	6.55245	-28.4858
 307	1	2	0.009194	-23.5752	6.1041	-30.5221
 308	1	3	-0.517699	-23.6039	5.35811	-27.8599
 309	1	4	-0.226077	-23.4992	7.39988	-28.3845
 310	1	4	-0.130348	-25.113	6.817	-27.9709
 311	1	2	0.087114	-24.8896	7.25004	-30.4004
 312	1	5	0.237906	-24.1105	4.56062	-28.2431
 313	1	1	-0.185789	-26.924	4.65804	-28.319
 314	1	1	0.725698	-26.8239	5.27631	-29.7251
 315	1	2	0.009194	-26.2721	3.78017	-28.2255
 316	1	3	-0.517699	-25.4672	5.20272	-30.2916
 317	1	4	-0.226077	-27.4706	4.7021	-30.3936
 318	1	4	-0.130348	-27.1807	6.31248	-29.72
 319	1	2	0.087114	-26.6483	5.38234	-27.5473
 320	1	5	0.237906	-25.5953	5.15641	-31.3009
 321	1	5	0	17.2389	-2.77123	11.6601
 322	1	2	0	-27.9538	4.33894	-28.1175

Velocities

   1	-0.00030593	-0.000437727	1.02382e-05
   2	-0.00176427	-0.00188592	0.000948285
   3	-0.00144785	-0.000509471	-0.000820189
   4	-0.000694106	-0.00170025	0.00163629
   5	-0.00264919	-0.00183989	0.000191288
   6	-0.0024243	-0.00281595	0.00215365
   7	0.000224358	0.000491969	-0.000726874
   8	0.00754214	-0.00118899	0.00136499
   9	0.000236209	-5.70987e-06	0.000175074
  10	0.000911406	-0.00043227	0.00076814
  11	0.000440665	-0.000221934	-0.000272953
  12	0.000676873	8.38951e-05	0.000878761
  13	0.000811141	-0.000132612	0.000687264
  14	0.00125891	-0.000366097	0.00069924
  15	-2.11973e-05	-0.000848333	0.000493599
  16	0.000820774	-8.0767e-05	0.000984784
  17	3.18921e-05	-0.000124243	-0.00044022
  18	0.000148926	-3.6042e-05	-0.000314262
  19	0.000544927	3.19383e-05	5.19718e-05
  20	-0.000375994	-0.000755425	-0.000507566
  21	0.000300218	-6.60539e-05	-0.000757063
  22	9.55937e-05	-2.97165e-05	-0.000393663
  23	0.000348502	2.79316e-05	-0.000622151
  24	-0.000527395	0.000199872	-0.000576594
  25	0.000313843	2.58751e-05	0.000473968
  26	-7.29331e-05	-0.000181999	-0.000140049
  27	-9.86409e-05	1.73091e-05	0.000140665
  28	0.00010187	2.63965e-06	0.000221612
  29	0.000379969	9.17302e-05	3.45227e-06
  30	0.000334499	-0.000208788	0.000353418
  31	0.000114934	-8.98329e-05	0.000131756
  32	-0.000503185	-0.000204012	0.000302307
  33	-0.000258107	-0.000287606	0.000110757
  34	0.000176775	8.67764e-05	0.000450929
  35	-1.05442e-05	1.4031e-05	0.0002823
  36	-0.000288684	-0.000280263	-6.2631e-06
  37	-8.95077e-05	-0.000126875	9.654e-05
  38	-0.000110992	-0.000191004	0.000221202
  39	1.77996e-06	-1.56535e-05	0.000279947
  40	-4.84119e-05	1.162e-05	0.00065831
  41	0.000124918	0.000100654	0.000192309
  42	-0.00015419	0.000118642	0.000190488
  43	7.91582e-05	0.000256544	0.000256263
  44	-5.53479e-05	-5.28965e-05	0.000366714
  45	-0.000143373	0.000115467	0.000222973
  46	-0.000128949	0.00021573	0.000164672
  47	0.000196487	0.00019655	0.00022888
  48	-4.08797e-05	-0.000151311	0.000256358
  49	-4.37544e-05	5.71906e-06	-8.33344e-05
  50	0.000134462	-2.9553e-05	4.4421e-05
  51	1.52708e-05	0.00010871	-0.000215677
  52	9.30437e-05	6.26798e-05	0.000197167
  53	3.67326e-05	-5.00185e-05	0.000164041
  54	0.000156381	7.45511e-05	4.63586e-05
  55	-0.000148714	-9.79389e-05	-0.000120617
  56	9.22091e-05	-4.60127e-05	0.000169365
  57	-0.000311204	0.000181762	-0.000397911
  58	-0.000278068	2.54872e-05	-0.000206634
  59	-0.000359718	0.000104951	-0.000458362
  60	-4.52288e-05	-4.70022e-05	-8.18527e-05
  61	-0.000268609	2.75364e-05	-0.000223336
  62	-0.000438195	-6.30092e-05	-0.00017189
  63	-0.000323083	0.000236664	-0.000502946
  64	0.000108427	9.60511e-05	-0.000115778
  65	6.27464e-05	0.000395046	-0.000428757
  66	-7.38331e-05	0.000359999	-0.000350178
  67	9.08045e-05	0.000459802	-0.000506509
  68	-0.000202776	0.00031663	-0.000318333
  69	8.68213e-07	0.00026992	-0.000369716
  70	-7.72597e-05	0.000463944	-0.000354247
  71	8.80978e-06	0.000428596	-0.000435235
  72	-0.000277656	0.000423104	-0.00033198
  73	-3.11448e-05	0.000398508	-0.000483042
  74	0.0001764	9.82259e-05	-0.000267167
  75	-0.000161447	0.000455286	-0.000665536
  76	0.000194922	0.000223707	-0.000398202
  77	-0.000122609	-0.000171107	-0.000138914
  78	0.00050533	-2.66095e-05	-0.000102931
  79	-9.54045e-05	0.0003349	-0.000620339
  80	0.000286331	0.00020899	-0.000516937
  81	0.000211175	0.000477942	-0.000355179
  82	0.000301754	0.000143896	-0.000634825
  83	3.77283e-05	0.000390312	-0.00042362
  84	4.12119e-05	0.000811461	-0.000310049
  85	-0.000246033	-0.00047433	-0.000757225
  86	0.000953514	-4.79948e-05	-0.00111293
  87	-0.000176843	0.000581975	-0.000142753
  88	-0.000471305	0.0010038	-1.79594e-05
  89	-0.000153207	0.000796182	0.000461637
  90	0.000396968	0.000919156	0.000588937
  91	-0.000120097	0.000916693	0.000328416
  92	0.00063532	0.000707537	0.000230694
  93	0.000149415	0.00089191	0.000917291
  94	0.000699447	0.000952194	0.00101795
  95	-0.000178831	0.00107811	0.000150901
  96	0.0010207	0.00112393	0.000517182
  97	-0.00110548	-0.000161072	0.00035261
  98	-0.000880877	0.00033128	0.000350785
  99	-0.00113325	-0.000465318	0.000969354
 100	-0.000359822	0.000501807	0.000572582
 101	-0.000752564	0.000397879	0.000408513
 102	-0.001013	0.000650477	8.82033e-05
 103	-0.0014326	-0.000616613	-3.51008e-05
 104	-0.000285624	0.000202717	0.000772528
 105	-0.000997412	9.41842e-06	-4.08031e-06
 106	-0.00125367	-0.000269946	0.000138273
 107	-0.000985971	0.000111162	-0.000441846
 108	-0.000984813	0.000177527	5.32994e-05
 109	-0.00123313	-0.000469366	0.000720565
 110	-0.00160896	-0.000627512	-0.000178389
 111	-0.00125326	-0.000218693	0.000175957
 112	-0.000705295	0.000651929	0.000429799
 113	3.4351e-05	0.000225207	0.000478699
 114	0.000225223	0.000475784	0.000624547
 115	-0.000129278	5.44876e-05	0.000585299
 116	-0.000547384	0.000275486	0.000357175
 117	0.00030483	0.00108921	0.00089801
 118	0.000702029	6.57005e-05	0.00072747
 119	1.9946e-05	0.000197147	0.000527662
 120	-0.000817441	0.000467963	0.000738421
 121	0.000184136	-4.7541e-05	-0.00124236
 122	0.000213118	0.000132868	-0.000422995
 123	0.000175197	0.000320428	-0.00178987
 124	0.000158242	0.000131877	7.43855e-06
 125	0.00065915	0.000484011	-0.000355349
 126	-4.18123e-05	-9.48104e-05	-0.000216704
 127	5.963e-05	-0.000711913	-0.00142421
 128	0.000401591	0.000268144	-4.73383e-05
 129	0.000258283	-4.15481e-05	-0.000228522
 130	0.000312261	-0.000152117	-0.00056418
 131	0.000516173	2.31982e-05	-0.000147659
 132	0.000184783	0.000193565	-0.00111819
 133	0.00023275	-4.30989e-05	-0.000293291
 134	0.000508539	-0.000573536	-0.000696832
 135	0.000251666	-6.89407e-07	-6.65309e-05
 136	0.000128493	0.000144159	-0.00154188
 137	4.11254e-05	-0.000224033	-0.000283203
 138	0.000205477	-0.000222703	-0.000355757
 139	-5.87424e-05	-0.000279038	-0.000271553
 140	-2.30934e-05	-4.17787e-05	-0.00013617
 141	0.000159621	-0.000506859	-0.000556026
 142	0.000538366	-8.76079e-05	-0.000367198
 143	7.6817e-05	-0.000280459	-0.000377206
 144	-0.000348535	-0.000161361	-0.000190593
 145	5.98936e-05	-0.000345955	-0.000432355
 146	8.06199e-05	-0.000266761	-0.000250165
 147	6.98851e-05	0.000101305	-0.000943731
 148	7.44238e-05	-0.000144618	-0.000204472
 149	0.000203687	-0.000306893	-0.000192954
 150	5.95634e-05	-0.000248425	-0.000265777
 151	-1.2927e-05	-0.000969522	-0.000680376
 152	4.18149e-05	-0.000117263	-0.000126339
 153	-0.000161984	0.000302068	0.000223757
 154	0.000130251	9.25472e-05	0.000237832
 155	-0.000401348	0.000376838	0.000348899
 156	5.37321e-05	-0.000117936	0.000263507
 157	0.00022638	0.000128332	0.000231063
 158	0.00025284	0.000136352	0.000210179
 159	-0.000106267	0.000541556	6.65396e-06
 160	0.000175033	0.000318842	0.000424354
 161	0.000687885	8.36961e-05	-6.6375e-05
 162	-4.39009e-05	0.000107112	0.00019257
 163	0.0013892	-0.0006539	-7.59215e-05
 164	-0.00019026	0.000206386	0.000318233
 165	-0.00018847	0.000453286	0.000442329
 166	-0.000315126	-0.000279517	5.69734e-05
 167	0.00112657	0.000909581	-0.000471412
 168	-0.000215357	5.93473e-05	0.000490862
 169	0.000514405	-0.000125476	-5.16134e-05
 170	0.000759936	-1.12614e-05	-0.000128967
 171	0.000680127	-6.37437e-05	-0.000119393
 172	5.47722e-05	-5.56655e-05	0.000167435
 173	0.00120999	-0.000565012	-0.000273484
 174	0.00111062	0.000613762	-0.000236012
 175	0.000256316	7.93068e-05	-6.66186e-05
 176	-0.000315343	-0.000850151	0.00052625
 177	0.000253515	-0.000204168	0.000617398
 178	0.00023829	-0.000185624	0.000256827
 179	0.000182938	0.000364644	0.000755733
 180	0.000375372	-0.000510691	9.18059e-05
 181	0.000175789	2.70811e-05	-2.04378e-05
 182	0.000139761	-2.67297e-05	0.000439399
 183	0.000366058	-0.000487196	0.00110904
 184	0.000562192	-0.000752662	-0.000127309
 185	3.65745e-06	-0.000141794	3.47314e-05
 186	0.000212214	-0.00030907	3.89023e-05
 187	-0.000270606	-1.37718e-05	0.00012196
 188	0.000222029	-0.0004382	0.00016483
 189	0.000364298	-0.000383534	-2.4263e-05
 190	0.000262539	-0.000239938	-9.90057e-05
 191	1.36609e-05	-6.96272e-05	-0.000271169
 192	8.76162e-05	-0.000795778	0.000156979
 193	-0.000215175	-9.26381e-05	-0.000122225
 194	-0.000206179	-0.000159646	1.56729e-05
 195	-0.000146467	9.94087e-05	-0.000121867
 196	6.13041e-05	-0.000205379	0.000233815
 197	-0.000193427	-4.8407e-05	-0.000239822
 198	-0.000467651	-0.000295021	8.36488e-05
 199	-0.00025542	-0.000160663	-0.000291128
 200	5.69877e-05	-0.000290223	0.000530843
 201	5.00916e-05	-0.000100354	-0.000256554
 202	-0.00036546	-5.54055e-05	-0.000494237
 203	0.000116316	-3.34983e-05	-0.000367664
 204	-0.000213417	-0.00016958	-0.000171458
 205	-0.000325895	5.01327e-05	-0.00109281
 206	-0.000916852	-1.06326e-05	-0.000344502
 207	0.000321477	-1.4515e-06	-0.000299249
 208	-0.000222171	-0.000425313	-0.000199414
 209	-0.00012637	0.000143278	0.000357678
 210	1.31821e-05	-0.000184265	0.000154115
 211	0.000137497	0.000317353	0.000464342
 212	1.25608e-05	-0.000222233	0.00010012
 213	0.000211653	-0.000195608	0.00019311
 214	-0.000135949	-0.000278492	5.57633e-05
 215	-0.000269074	0.000199429	0.000265823
 216	-0.000200159	-0.000225639	9.79887e-05
 217	0.000210713	0.000158337	3.40639e-05
 218	0.00021398	4.88604e-05	0.000214788
 219	0.000259648	0.000261174	0.000103323
 220	-0.000496319	0.000353029	0.000166283
 221	0.00021834	-0.000467366	0.000329296
 222	0.000585994	0.000241865	1.38867e-05
 223	0.000298787	0.000126709	-1.10557e-05
 224	-0.00117107	0.000144499	0.000685741
 225	0.000370755	0.000617614	4.88081e-05
 226	0.000328821	0.000418084	-7.77043e-05
 227	0.000397659	0.000569529	0.000189775
 228	0.000283305	0.000251864	0.000180131
 229	0.00041697	0.000589791	5.11889e-05
 230	0.000299947	0.000442291	-0.000257377
 231	0.000316089	0.00046571	-0.000115896
 232	0.000240774	0.000255649	0.000261731
 233	0.000534999	0.000719286	-4.30437e-05
 234	0.000499212	0.000912111	-5.67492e-05
 235	0.000866095	0.000668256	0.000114629
 236	0.000405059	0.000792477	-0.000131034
 237	0.000545297	0.000864318	-0.000159953
 238	0.000479246	0.000981891	-0.000137584
 239	0.00050194	0.00106204	-0.000102222
 240	0.000456892	0.000829024	-0.000285198
 241	-3.35683e-05	-0.000255	0.000107745
 242	0.000352915	0.000125105	8.42392e-06
 243	0.000105144	-0.000380064	0.000381954
 244	0.000221786	0.000373348	-3.60666e-05
 245	0.000721648	5.03594e-05	0.000152167
 246	0.000304134	0.000490332	-3.84173e-05
 247	-0.000180648	-0.000399129	0.000169211
 248	-0.000239136	0.000433384	-0.000174252
 249	-0.00176754	-0.000209634	-0.00094224
 250	-0.00057412	-4.62887e-05	-0.000423598
 251	-0.00190483	-0.00113317	-0.00140762
 252	-0.000350687	-0.000266334	-0.000103214
 253	-0.000354462	-0.000510197	-0.000181327
 254	-0.000323189	0.000715599	-0.000334966
 255	-0.00248877	0.000237787	-0.00108938
 256	-0.00054581	-0.000383856	9.85988e-05
 257	8.64996e-05	0.000275312	0.000311788
 258	-0.000163208	-0.000278574	-0.000161102
 259	-0.000295723	0.000479034	0.000858981
 260	-0.00175685	0.000382992	-0.000705826
 261	0.000330763	-0.00111761	-0.000985812
 262	0.00044558	0.000236206	0.00054515
 263	0.000710562	0.000556837	0.000274337
 264	-0.00279915	-3.98392e-05	-0.00138414
 265	-0.000366744	-0.000762162	0.000308564
 266	0.00102046	-0.000548694	-0.000856883
 267	-0.00123696	0.000666712	0.0011977
 268	-0.000317164	-1.59959e-05	0.000522409
 269	0.00142553	-0.00257317	-0.00210883
 270	0.00275228	0.00105767	-0.001431
 271	-0.00135755	-0.00235002	0.000683791
 272	-0.000234403	0.00120117	0.00155589
 273	-0.000736098	-0.000816487	0.00037192
 274	0.000443612	-0.000772706	-6.8983e-05
 275	-0.0011757	-0.000773379	-0.000205811
 276	0.000417085	-0.000788665	-0.000226473
 277	0.000766913	-0.00104947	-0.00073975
 278	0.000907818	-0.000122397	0.000425317
 279	-0.000497925	-0.000936744	0.000466148
 280	0.000588031	-0.00107255	-0.000722061
 281	-0.000787155	0.00125253	0.000932927
 282	-0.0010457	0.000350205	0.00103878
 283	-0.00126006	0.00210094	0.00155126
 284	-0.00108287	-0.00088365	0.0013931
 285	-0.00142104	0.000476234	0.00024104
 286	-0.0006939	0.000577816	0.0015524
 287	-0.000933154	0.000527614	0.0010665
 288	-0.00146974	-0.00076434	0.00238615
 289	0.00183022	0.000579059	5.27597e-05
 290	0.00173681	0.000724416	-3.84384e-05
 291	0.00181447	0.000974528	9.44489e-05
 292	0.000236338	0.00180612	-0.000163295
 293	0.00133549	-0.000688083	-5.47382e-05
 294	0.00289253	0.0010847	0.000130463
 295	0.00229216	0.00034372	0.000191967
 296	-0.000770737	0.00258586	-0.000394707
 297	0.000428487	-0.000747667	-0.00127028
 298	0.000559623	-0.000565963	-0.000673076
 299	-0.000483758	-0.00147587	-0.00153079
 300	0.00150788	0.000258516	-0.000255031
 301	6.79159e-05	-0.000973037	0.000116974
 302	0.000427073	-0.000802602	-0.00142943
 303	0.00102604	-0.000628568	-0.00216621
 304	0.0019224	0.000538968	-0.000973263
 305	-0.00131779	0.00206945	0.00141738
 306	0.000776969	0.000889255	0.00117934
 307	-0.00161885	0.0050037	-0.000138662
 308	0.000492017	-9.48853e-05	-0.000369507
 309	0.00162871	0.000287368	0.000775228
 310	0.00158765	0.00124162	0.00253433
 311	-0.00441199	0.00163002	0.00321209
 312	-2.06118e-05	0.000704049	-0.00115672
 313	-0.00124523	-0.00103086	-0.000345741
 314	0.000200948	-0.00173638	-0.000450826
 315	-0.00574124	-0.00459772	-0.00149068
 316	0.00118862	-0.000187666	0.00159251
 317	0.0023846	-0.00328702	-0.00113811
 318	-0.00136489	-0.00222948	-0.00185758
 319	0.00373808	-0.0029087	-0.000467288
 320	0.00242191	-0.00129154	0.00163144
 321	-0.00459156	-0.00317852	-0.00481797
 322	-0.00282769	0.00431374	0.000693187

Bonds

   1	4	1	2
   2	5	1	3
   3	5	1	7
   4	2	2	4
   5	1	2	5
   6	1	2	6
   7	3	4	8
   8	4	9	10
   9	5	9	11
  10	5	9	15
  11	2	10	12
  12	1	10	13
  13	1	10	14
  14	3	12	16
  15	2	1	12
  16	4	17	18
  17	5	17	19
  18	5	17	23
  19	2	18	20
  20	1	18	21
  21	1	18	22
  22	3	20	24
  23	2	9	20
  24	4	25	26
  25	5	25	27
  26	5	25	31
  27	2	26	28
  28	1	26	29
  29	1	26	30
  30	3	28	32
  31	2	17	28
  32	4	33	34
  33	5	33	35
  34	5	33	39
  35	2	34	36
  36	1	34	37
  37	1	34	38
  38	3	36	40
  39	2	25	36
  40	4	41	42
  41	5	41	43
  42	5	41	47
  43	2	42	44
  44	1	42	45
  45	1	42	46
  46	3	44	48
  47	2	33	44
  48	4	49	50
  49	5	49	51
  50	5	49	55
  51	2	50	52
  52	1	50	53
  53	1	50	54
  54	3	52	56
  55	2	41	52
  56	4	57	58
  57	5	57	59
  58	5	57	63
  59	2	58	60
  60	1	58	61
  61	1	58	62
  62	3	60	64
  63	2	49	60
  64	4	65	66
  65	5	65	67
  66	5	65	71
  67	2	66	68
  68	1	66	69
  69	1	66	70
  70	3	68	72
  71	2	57	68
  72	4	73	74
  73	5	73	75
  74	5	73	79
  75	2	74	76
  76	1	74	77
  77	1	74	78
  78	3	76	80
  79	2	65	76
  80	4	81	82
  81	5	81	83
  82	5	81	87
  83	2	82	84
  84	1	82	85
  85	1	82	86
  86	3	84	88
  87	2	73	84
  88	4	89	90
  89	5	89	91
  90	5	89	95
  91	2	90	92
  92	1	90	93
  93	1	90	94
  94	3	92	96
  95	2	81	92
  96	4	97	98
  97	5	97	99
  98	5	97	103
  99	2	98	100
 100	1	98	101
 101	1	98	102
 102	3	100	104
 103	2	89	100
 104	4	105	106
 105	5	105	107
 106	5	105	111
 107	2	106	108