pySIMM System Object

202 atoms
201 bonds
375 angles
519 dihedrals
0 impropers

5 atom types
5 bond types
10 angle types
3 dihedral types

-75.435634 75.435634 xlo xhi
-75.435634 75.435634 ylo yhi
-75.435634 75.435634 zlo zhi

Masses

   1	12.01	# c3
   2	1.008	# hc
   3	14.01	# n3
   4	1.008	# h1
   5	1.008	# hn

Pair Coeffs

   1	0.1094	3.3996695084235347	# c3
   2	0.0157	2.649532787749369	# hc
   3	0.17	3.249998523775958	# n3
   4	0.0157	2.471353044121301	# h1
   5	0.0157	1.069078461768407	# hn

Bond Coeffs

   1	330.6	1.0969	# c3,h1
   2	325.9	1.4647	# c3,n3
   3	392.4	1.019	# hn,n3
   4	300.9	1.5375	# c3,c3
   5	330.6	1.0969	# c3,hc

Angle Coeffs

   1	49.53	109.88	# h1,c3,n3
   2	66.02	111.04	# c3,c3,n3
   3	41.4	106.4	# hn,n3,hn
   4	46.34	109.8	# c3,c3,hc
   5	47.42	109.29	# c3,n3,hn
   6	46.39	109.56	# c3,c3,h1
   7	39.4	107.58	# hc,c3,hc
   8	39.24	108.46	# h1,c3,h1
   9	49.55	109.8	# hc,c3,n3
  10	63.82	112.35	# c3,n3,c3

Dihedral Coeffs

   1	1	0.15555555555555556	3	0	# X,c3,c3,X
   2	1	0.3	3	0	# X,c3,n3,X
   3	2	0.3	3	0	0.48	2	180	# c3,c3,n3,c3

Atoms

   1	1	1	-0.185789	8.95206	-7.48059	-7.27546
   2	1	1	0.725698	8.30469	-6.49982	-6.26243
   3	1	2	0.009194	9.43708	-6.90882	-8.07711
   4	1	3	-0.517699	9.29983	-5.65133	-5.6178
   5	1	4	-0.226077	7.57019	-5.86155	-6.76354
   6	1	4	-0.130348	7.78281	-7.07667	-5.49039
   7	1	2	0.087114	9.75297	-8.02075	-6.75509
   8	1	5	0.237906	8.80968	-5.09262	-4.92629
   9	1	1	-0.185789	6.00924	-9.09523	-9.16054
  10	1	1	0.725698	6.91132	-7.93231	-8.67802
  11	1	2	0.009194	5.25733	-8.70555	-9.85834
  12	1	3	-0.517699	8.01613	-8.47301	-7.87433
  13	1	4	-0.226077	7.31244	-7.39161	-9.54094
  14	1	4	-0.130348	6.31139	-7.24334	-8.0726
  15	1	2	0.087114	6.64376	-9.78571	-9.73275
  16	1	5	0.237906	7.58495	-9.04354	-7.1492
  17	1	1	-0.185789	4.01035	-11.712	-7.17946
  18	1	1	0.725698	4.74786	-11.1224	-8.40667
  19	1	2	0.009194	3.85078	-12.7855	-7.34075
  20	1	3	-0.517699	5.32305	-9.81979	-8.05586
  21	1	4	-0.226077	5.55685	-11.7968	-8.70559
  22	1	4	-0.130348	4.04804	-11.0154	-9.24397
  23	1	2	0.087114	4.67693	-11.6226	-6.31098
  24	1	5	0.237906	4.56392	-9.25577	-7.67645
  25	1	1	-0.185789	0.679221	-10.8136	-5.44864
  26	1	1	0.725698	2.117	-11.3904	-5.58945
  27	1	2	0.009194	0.6312	-9.81727	-5.90801
  28	1	3	-0.517699	2.69689	-11.0702	-6.89945
  29	1	4	-0.226077	2.75437	-10.9464	-4.81788
  30	1	4	-0.130348	2.09564	-12.4755	-5.43986
  31	1	2	0.087114	0.502233	-10.6631	-4.37683
  32	1	5	0.237906	2.02261	-11.3774	-7.59788
  33	1	1	-0.185789	-1.58327	-12.8749	-7.80665
  34	1	1	0.725698	-0.369076	-12.001	-7.41246
  35	1	2	0.009194	-1.49415	-13.1226	-8.8708
  36	1	3	-0.517699	-0.413881	-11.6733	-5.98414
  37	1	4	-0.226077	0.563122	-12.5315	-7.63592
  38	1	4	-0.130348	-0.383412	-11.0742	-7.99691
  39	1	2	0.087114	-1.51676	-13.8219	-7.25445
  40	1	5	0.237906	-1.32532	-11.248	-5.81721
  41	1	1	-0.185789	-4.31375	-12.8299	-9.48859
  42	1	1	0.725698	-4.10024	-12.9519	-7.9577
  43	1	2	0.009194	-5.21508	-13.3932	-9.76149
  44	1	3	-0.517699	-2.89735	-12.2244	-7.53782
  45	1	4	-0.226077	-4.95925	-12.4937	-7.45609
  46	1	4	-0.130348	-4.03678	-14.0039	-7.65762
  47	1	2	0.087114	-3.47723	-13.322	-9.9997
  48	1	5	0.237906	-2.95527	-11.3282	-8.01962
  49	1	1	-0.185789	-4.83235	-9.80728	-11.8084
  50	1	1	0.725698	-4.54132	-11.2788	-11.422
  51	1	2	0.009194	-4.01134	-9.175	-11.4474
  52	1	3	-0.517699	-4.45683	-11.4264	-9.96559
  53	1	4	-0.226077	-5.34337	-11.9192	-11.8023
  54	1	4	-0.130348	-3.59615	-11.5973	-11.8768
  55	1	2	0.087114	-4.81718	-9.75277	-12.9045
  56	1	5	0.237906	-5.31994	-11.0297	-9.59671
  57	1	1	-0.185789	-5.67306	-6.83351	-11.1377
  58	1	1	0.725698	-6.54611	-7.95881	-11.7619
  59	1	2	0.009194	-6.08038	-5.86318	-11.4486
  60	1	3	-0.517699	-6.13657	-9.29195	-11.3017
  61	1	4	-0.226077	-7.58811	-7.79881	-11.4708
  62	1	4	-0.130348	-6.48813	-7.90676	-12.8552
  63	1	2	0.087114	-4.66977	-6.89571	-11.5757
  64	1	5	0.237906	-6.13971	-9.24539	-10.2825
  65	1	1	-0.185789	-6.57424	-6.82595	-7.37884
  66	1	1	0.725698	-6.82785	-6.76823	-8.9104
  67	1	2	0.009194	-7.39367	-6.28964	-6.88454
  68	1	3	-0.517699	-5.56237	-6.86097	-9.65285
  69	1	4	-0.226077	-7.49666	-7.58057	-9.20853
  70	1	4	-0.130348	-7.29964	-5.81059	-9.15614
  71	1	2	0.087114	-5.66476	-6.25846	-7.14456
  72	1	5	0.237906	-4.98395	-6.08479	-9.34127
  73	1	1	-0.185789	-4.07609	-8.75336	-7.20713
  74	1	1	0.725698	-5.57016	-9.18076	-7.31609
  75	1	2	0.009194	-3.45767	-9.6269	-7.4331
  76	1	3	-0.517699	-6.50882	-8.18631	-6.77043
  77	1	4	-0.226077	-5.81277	-9.38936	-8.3656
  78	1	4	-0.130348	-5.70568	-10.1096	-6.75282
  79	1	2	0.087114	-3.86285	-8.03423	-8.00451
  80	1	5	0.237906	-6.31162	-8.10915	-5.77497
  81	1	1	-0.185789	-3.3249	-8.21343	-3.46136
  82	1	1	0.725698	-3.9863	-8.9018	-4.68213
  83	1	2	0.009194	-3.69898	-8.6842	-2.54398
  84	1	3	-0.517699	-3.62297	-8.17768	-5.90988
  85	1	4	-0.226077	-3.62409	-9.93114	-4.75799
  86	1	4	-0.130348	-5.07625	-8.90835	-4.56724
  87	1	2	0.087114	-2.24977	-8.43094	-3.50808
  88	1	5	0.237906	-2.60903	-8.09773	-5.91402
  89	1	1	-0.185789	-3.15207	-6.22888	-0.958944
  90	1	1	0.725698	-2.72013	-6.00158	-2.43062
  91	1	2	0.009194	-3.13638	-7.30132	-0.728355
  92	1	3	-0.517699	-3.53945	-6.73766	-3.40262
  93	1	4	-0.226077	-1.67269	-6.2967	-2.56604
  94	1	4	-0.130348	-2.79627	-4.9337	-2.66258
  95	1	2	0.087114	-4.19263	-5.89402	-0.857883
  96	1	5	0.237906	-3.30582	-6.34003	-4.31051
  97	1	1	-0.185789	-1.67583	-4.91215	2.33832
  98	1	1	0.725698	-2.69262	-5.6392	1.42272
  99	1	2	0.009194	-0.680728	-5.34799	2.17958
 100	1	3	-0.517699	-2.28946	-5.51375	0.0182911
 101	1	4	-0.226077	-2.70726	-6.70064	1.69
 102	1	4	-0.130348	-3.69724	-5.22463	1.56549
 103	1	2	0.087114	-1.95268	-5.13197	3.37736
 104	1	5	0.237906	-1.34166	-5.88054	-0.0363265
 105	1	1	-0.185789	-0.771602	-1.20647	2.84389
 106	1	1	0.725698	-0.607307	-2.74348	2.95397
 107	1	2	0.009194	-1.79416	-0.946159	3.14727
 108	1	3	-0.517699	-1.61244	-3.43803	2.14386
 109	1	4	-0.226077	0.392613	-3.02974	2.60809
 110	1	4	-0.130348	-0.713625	-3.03879	4.00402
 111	1	2	0.087114	-0.102921	-0.747529	3.58352
 112	1	5	0.237906	-1.40904	-3.20972	1.17222
 113	1	1	-0.185789	-0.377048	1.36029	0.00389221
 114	1	1	0.725698	-0.803464	0.799226	1.38693
 115	1	2	0.009194	-0.710476	2.40299	-0.0610351
 116	1	3	-0.517699	-0.490985	-0.630715	1.49966
 117	1	4	-0.226077	-0.266947	1.34331	2.17169
 118	1	4	-0.130348	-1.87842	0.954517	1.52878
 119	1	2	0.087114	-0.938503	0.822336	-0.77067
 120	1	5	0.237906	0.497154	-0.737017	1.28362
 121	1	1	-0.185789	1.89615	3.43399	0.767429
 122	1	1	0.725698	2.02454	1.88729	0.657809
 123	1	2	0.009194	2.0648	3.85681	-0.230577
 124	1	3	-0.517699	1.08307	1.29252	-0.30835
 125	1	4	-0.226077	3.03211	1.63012	0.317749
 126	1	4	-0.130348	1.88159	1.41621	1.63598
 127	1	2	0.087114	0.866535	3.69436	1.03602
 128	1	5	0.237906	1.37253	0.325641	-0.431713
 129	1	1	-0.185789	1.48611	4.96894	3.58466
 130	1	1	0.725698	2.58069	3.9533	3.1479
 131	1	2	0.009194	1.24473	4.79951	4.64039
 132	1	3	-0.517699	2.86031	4.07487	1.7098
 133	1	4	-0.226077	3.49921	4.16977	3.70126
 134	1	4	-0.130348	2.26673	2.93121	3.38752
 135	1	2	0.087114	0.565741	4.73027	3.03954
 136	1	5	0.237906	2.91867	5.07613	1.53345
 137	1	1	-0.185789	2.55586	7.06717	5.66527
 138	1	1	0.725698	2.91712	7.0024	4.15323
 139	1	2	0.009194	2.46069	6.04743	6.05488
 140	1	3	-0.517699	1.82258	6.40898	3.35854
 141	1	4	-0.226077	3.05923	8.02397	3.78713
 142	1	4	-0.130348	3.84783	6.44714	3.99947
 143	1	2	0.087114	1.56458	7.52886	5.75644
 144	1	5	0.237906	1.00545	6.99105	3.52506
 145	1	1	-0.185789	4.44053	9.85452	7.49125
 146	1	1	0.725698	3.76587	9.20336	6.2498
 147	1	2	0.009194	3.83347	9.62269	8.37619
 148	1	3	-0.517699	3.51023	7.78983	6.55128
 149	1	4	-0.226077	2.81122	9.6972	6.04882
 150	1	4	-0.130348	4.41239	9.29623	5.36996
 151	1	2	0.087114	5.40256	9.35129	7.65355
 152	1	5	0.237906	3.14047	7.77304	7.49933
 153	1	1	-0.185789	2.25021	11.8976	8.01516
 154	1	1	0.725698	3.52837	12.2287	7.19278
 155	1	2	0.009194	1.79305	10.9934	7.5959
 156	1	3	-0.517699	4.66861	11.328	7.44995
 157	1	4	-0.226077	3.30236	12.1916	6.12309
 158	1	4	-0.130348	3.85325	13.248	7.43001
 159	1	2	0.087114	2.54257	11.6552	9.04467
 160	1	5	0.237906	5.37504	11.5628	6.75506
 161	1	1	-0.185789	-1.08196	13.7687	8.53229
 162	1	1	0.725698	-0.0753401	12.5886	8.56166
 163	1	2	0.009194	-2.04313	13.3863	8.89971
 164	1	3	-0.517699	1.23357	12.9872	8.03272
 165	1	4	-0.226077	0.0516899	12.232	9.58873
 166	1	4	-0.130348	-0.476781	11.7695	7.95415
 167	1	2	0.087114	-1.24555	14.055	7.48522
 168	1	5	0.237906	1.55829	13.7495	8.62184
 169	1	1	-0.185789	-1.38193	17.2102	10.2998
 170	1	1	0.725698	-1.76773	15.9751	9.43638
 171	1	2	0.009194	-2.23162	17.9022	10.249
 172	1	3	-0.517699	-0.703628	14.9663	9.33624
 173	1	4	-0.226077	-2.67032	15.5115	9.84746
 174	1	4	-0.130348	-2.00042	16.3278	8.42505
 175	1	2	0.087114	-0.544517	17.7362	9.82716
 176	1	5	0.237906	0.112956	15.4214	8.93819
 177	1	1	-0.185789	1.31279	17.6061	11.9319
 178	1	1	0.725698	0.226055	16.5054	12.143
 179	1	2	0.009194	1.55132	17.6755	10.8639
 180	1	3	-0.517699	-1.11899	16.9503	11.7449
 181	1	4	-0.226077	0.516346	15.608	11.5925
 182	1	4	-0.130348	0.194577	16.2504	13.2081
 183	1	2	0.087114	2.23292	17.2427	12.4061
 184	1	5	0.237906	-1.30272	17.7877	12.2942
 185	1	1	-0.185789	1.15923	18.4875	14.9231
 186	1	1	0.725698	0.363393	19.1245	13.7511
 187	1	2	0.009194	1.62604	17.5568	14.5888
 188	1	3	-0.517699	1.00456	18.9843	12.4326
 189	1	4	-0.226077	-0.619275	18.6445	13.6793
 190	1	4	-0.130348	0.198072	20.1876	13.955
 191	1	2	0.087114	1.97512	19.1691	15.1965
 192	1	5	0.237906	0.373994	19.4426	11.7778
 193	1	1	-0.185789	1.5297	16.1801	16.9627
 194	1	1	0.725698	0.9481	17.5718	17.2727
 195	1	2	0.009194	2.3916	16.2469	16.2878
 196	1	3	-0.517699	0.304443	18.1952	16.1067
 197	1	4	-0.226077	0.180643	17.4566	18.0435
 198	1	4	-0.130348	1.73622	18.2266	17.6591
 199	1	2	0.087114	0.769023	15.543	16.4979
 200	1	5	0.237906	-0.470509	17.5918	15.8379
 201	1	5	0	9.67743	-4.99597	-6.30106
 202	1	2	0	1.86672	15.693	17.8858

Velocities

   1	-0.000740115	0.00119571	-3.91887e-05
   2	-0.000271286	-0.000925757	0.00168829
   3	-0.00262992	0.00288191	-4.53333e-05
   4	-0.000459768	-0.00051093	0.0015862
   5	-0.00126448	-0.00100838	0.00317771
   6	0.0011602	-0.00166514	0.00242042
   7	0.000767644	0.00124751	-0.00219142
   8	-0.00265507	0.00754624	-0.00680737
   9	0.000503063	-0.00076193	-1.30621e-05
  10	-0.000405514	9.30983e-05	-0.000581325
  11	0.00110098	-0.00214575	-0.00125493
  12	-0.000373346	0.000632919	-0.000355663
  13	-0.000898694	0.000193251	-0.000593477
  14	-0.000902302	0.000149129	-0.000823967
  15	0.00188341	-0.000957199	0.000901224
  16	0.000211804	-7.20939e-05	-0.000538037
  17	-0.00014389	-0.000256395	0.000205466
  18	-0.000521086	-0.000117238	0.000187437
  19	-0.000752475	4.7445e-05	0.000326313
  20	0.00045743	-0.000671674	-0.000228793
  21	-0.000871912	-0.00080907	-0.000253455
  22	-0.000616799	-1.28897e-05	0.000258856
  23	-0.000365371	-0.0002091	7.25349e-05
  24	0.000476232	-0.000139884	4.04258e-05
  25	-0.000586279	-0.000549623	0.00104349
  26	0.000353224	-0.000210669	0.000599569
  27	-0.000388348	-0.000179207	0.00189715
  28	-0.000610738	0.000209941	0.0003809
  29	-6.12449e-05	-0.00018585	0.000404238
  30	0.000159201	-9.23577e-05	0.000318074
  31	-3.2961e-05	-0.00143853	0.00118261
  32	-0.000294751	0.000261214	0.000652348
  33	0.000467551	0.00124481	-0.000827755
  34	-0.000622519	0.00116148	0.000185061
  35	4.67223e-05	0.00264729	-0.000939686
  36	0.000590432	-0.000404025	0.000492917
  37	9.0783e-05	0.0016229	-0.000599661
  38	-0.000440114	0.00191262	0.00117361
  39	0.000486124	0.00061058	-0.00185137
  40	-0.000447137	-0.000818273	0.00128124
  41	9.85453e-05	-0.000384237	5.50423e-05
  42	0.000413529	-0.0002389	0.000197476
  43	0.000468335	-0.000695542	2.09274e-05
  44	-0.000537853	0.000401234	0.000100398
  45	-0.000173047	-0.000831284	0.000175714
  46	0.000772603	-0.000330792	5.99713e-06
  47	0.000392194	0.00010615	0.000139722
  48	-0.000898883	0.000423726	0.000562635
  49	-0.000439929	-0.000184424	0.000505304
  50	-0.000660672	-0.000330621	0.000305292
  51	-0.000403344	-0.000385719	0.000790394
  52	-0.000405795	-0.000280331	0.000260127
  53	-0.000968871	-0.000102558	0.000469854
  54	-0.000900811	-0.000484651	5.59997e-05
  55	-9.87901e-05	-5.31116e-05	0.000475568
  56	-0.000346146	-0.000580164	0.000448641
  57	-8.3004e-05	-9.44154e-05	-0.00054949
  58	-0.000245543	-0.000215413	-0.000230977
  59	5.89753e-05	-0.000174763	-0.000891829
  60	-0.000362621	-9.48445e-05	0.000126303
  61	-0.000248279	6.37015e-05	-0.00052105
  62	-2.96195e-05	-0.000596864	-0.000318362
  63	-0.000129017	-0.000420105	-0.00053137
  64	-0.000560507	0.000197378	0.0002211
  65	0.000258825	0.00031159	-0.000501191
  66	4.07586e-05	0.000488827	-0.000377749
  67	0.000331592	0.000283346	-0.00027572
  68	-0.000100633	0.00024007	-0.000565111
  69	-0.000241577	0.000671187	-0.000423762
  70	0.000221867	0.00061776	-0.000279873
  71	0.000298247	0.000325504	-0.000576363
  72	-3.69915e-05	0.000345655	-0.000796914
  73	0.000523904	0.000427611	-0.000220611
  74	0.000554217	0.000368973	-0.00048459
  75	0.000581627	0.000546965	-0.000735808
  76	0.000424908	0.00029441	-0.000397429
  77	0.000644174	0.000512132	-0.000450313
  78	0.000511714	0.000299511	-0.000586789
  79	0.000389673	0.000775012	-3.04936e-05
  80	0.000352613	0.000273442	-0.000504989
  81	0.00051365	-1.7897e-05	-4.75633e-05
  82	0.00123752	-0.000463876	-0.000135953
  83	0.000862181	-0.000372331	-5.34336e-05
  84	0.000680434	-3.03374e-05	-0.000165019
  85	0.00218975	-0.000102352	-0.000260166
  86	0.00120938	-0.00144999	-0.000286226
  87	0.000736598	0.000889707	8.54791e-05
  88	0.000696697	0.000125733	-0.000311806
  89	8.97919e-05	-3.73038e-05	0.000232302
  90	-0.000907789	0.000415369	-9.20069e-06
  91	0.00125795	-9.2316e-05	0.000119976
  92	-0.000613294	-0.000126827	0.000256057
  93	-0.000643505	0.00139548	-0.000450205
  94	-0.00187029	0.000425011	0.000175101
  95	-0.000278997	-0.00112904	0.00075494
  96	-0.00121284	0.000116372	0.000175157
  97	0.000712721	6.536e-05	-0.000154392
  98	0.000755372	-0.000157987	0.00013065
  99	0.00100409	0.00101674	-0.00101971
 100	-0.000283177	0.000717905	-0.000106651
 101	0.0017324	-0.00033108	-0.000320658
 102	0.00049035	-0.00101539	0.000959694
 103	0.00160413	-0.000631029	-7.38319e-05
 104	0.000232641	0.00189983	-0.000765119
 105	-0.00110846	0.000371823	0.00043927
 106	-0.000749808	0.000431856	0.000618937
 107	-0.001442	9.70523e-05	-0.000406624
 108	-0.00049907	0.000266844	0.000568001
 109	-0.000628789	0.000710887	0.000699112
 110	-0.000747794	0.000485559	0.000629589
 111	-0.00183967	0.000599651	0.000920598
 112	-0.00104615	0.000907665	0.000644058
 113	0.000502763	0.000220159	0.000744156
 114	0.000246192	0.000324811	0.000559425
 115	0.000810356	0.000166333	0.000538059
 116	-0.000232065	0.000245839	0.000637877
 117	0.000122542	9.96956e-05	0.000782128
 118	0.000120075	0.000596976	0.000384889
 119	0.000896447	0.000153506	0.000586095
 120	-0.000134033	2.65788e-05	0.0011893
 121	0.00131969	0.000861068	-0.00136982
 122	0.000155984	0.000641988	0.00123845
 123	0.00312059	-0.000794915	-0.00189445
 124	0.000905715	-0.000163299	0.00119553
 125	0.000438256	-0.000643255	0.00259414
 126	-0.000962674	0.00227316	0.00182902
 127	0.00107786	0.00218293	-0.00336371
 128	0.00070093	-0.000150494	0.00226372
 129	-0.00052113	0.000192247	-0.000749095
 130	-0.000200569	0.000741828	-0.000974296
 131	-0.000951202	-0.00105045	-0.000836757
 132	0.000320809	0.00157825	-0.00100211
 133	-0.000228781	0.00128782	-0.000785805
 134	0.00070951	0.000689597	-0.00141442
 135	-0.00065375	-1.1922e-06	-0.00136438
 136	-3.92237e-05	0.00152273	-0.000934236
 137	-0.000994789	-0.000378355	-0.000123046
 138	0.000308787	-0.00104814	0.000631101
 139	-0.00168365	0.000489966	0.0007242
 140	-0.00165118	-5.87853e-05	0.000685271
 141	0.00188995	-0.0019117	-0.000192784
 142	-0.00129195	-0.0032637	0.000946147
 143	0.000179879	0.00120806	-0.000192912
 144	-0.000777912	-1.92519e-05	0.00302618
 145	-0.000506825	0.000913915	0.000131331
 146	-0.00215135	-0.000728163	0.000397975
 147	-5.73094e-05	-0.000418032	0.000634637
 148	0.000813267	0.000205535	-0.00058257
 149	-0.00307576	-0.000751354	0.00279644
 150	-0.00368126	0.00230348	-0.000604847
 151	-0.000497548	-0.000588689	-0.00100694
 152	0.00228722	-0.00217384	0.000198065
 153	0.000436075	-0.000607219	0.000590452
 154	-0.00111823	-0.000176842	-0.00189673
 155	0.000117965	-0.000711956	0.00301401
 156	-0.000586099	-0.00151552	-3.41502e-05
 157	-0.00165022	-0.00376697	-0.00117359
 158	-0.00101746	-0.000808519	-0.00429332
 159	0.00119021	0.00280949	0.000404533
 160	-0.000627958	-0.000656501	-0.00104639
 161	0.000413334	0.000265328	0.000578353
 162	0.00101432	-0.00019366	0.00214871
 163	0.000117118	-0.000185871	-0.000642774
 164	-0.000524268	0.000368354	-0.00089326
 165	0.00277868	0.00332893	0.00304898
 166	0.000327421	-0.00140731	0.00533164
 167	0.00199487	-0.000435473	0.000171054
 168	0.000173231	0.00134949	-0.00432752
 169	0.000508914	0.000436482	-0.00179771
 170	-0.000733615	-1.44739e-06	-0.00019018
 171	0.00130118	0.00159798	-0.002844
 172	-0.000443379	-0.00027747	0.000501858
 173	-0.000281632	0.000291578	0.00107359
 174	-0.00124932	-0.00144651	-0.000398791
 175	0.00133724	-0.00122869	-0.00224878
 176	-0.000151513	0.000128455	0.00149738
 177	0.000262541	-0.000371992	-0.000547605
 178	-0.000268807	0.000209546	-0.00126641
 179	0.00139664	-0.000249581	-0.000173943
 180	-6.8089e-05	0.00130199	-0.00178056
 181	-0.000727287	0.000231489	-0.00140614
 182	-0.00107256	0.0001104	-0.00146217
 183	-0.000212151	-0.000751828	0.000395478
 184	0.000325855	0.00157895	-0.00206502
 185	0.000151867	-0.00166928	-0.000590567
 186	-0.000901998	-0.00220387	-0.000608666
 187	-0.0012752	-0.00232066	-5.40904e-05
 188	6.39637e-05	-0.000731676	-4.78832e-05
 189	0.000154922	-0.00418935	-0.000994413
 190	-0.00304133	-0.0027348	7.98571e-05
 191	0.000651806	-0.00211066	-0.00221164
 192	6.40108e-05	-0.000550445	-0.000274253
 193	-0.000122247	6.1968e-05	0.00143804
 194	0.00135457	0.000852409	0.00057034
 195	7.88213e-06	-0.001037	0.00146831
 196	0.000533077	7.63842e-05	0.000402625
 197	0.00155455	0.00198951	0.00111726
 198	0.00191397	0.00054793	-0.000453482
 199	-0.000733734	0.000443993	0.00202277
 200	0.00032594	0.000365229	0.00158172
 201	0.0079167	-0.00759021	-0.00121577
 202	-0.000334321	0.000495524	0.00176426

Bonds

   1	4	1	2
   2	5	1	3
   3	5	1	7
   4	2	2	4
   5	1	2	5
   6	1	2	6
   7	3	4	8
   8	4	9	10
   9	5	9	11
  10	5	9	15
  11	2	10	12
  12	1	10	13
  13	1	10	14
  14	3	12	16
  15	2	1	12
  16	4	17	18
  17	5	17	19
  18	5	17	23
  19	2	18	20
  20	1	18	21
  21	1	18	22
  22	3	20	24
  23	2	9	20
  24	4	25	26
  25	5	25	27
  26	5	25	31
  27	2	26	28
  28	1	26	29
  29	1	26	30
  30	3	28	32
  31	2	17	28
  32	4	33	34
  33	5	33	35
  34	5	33	39
  35	2	34	36
  36	1	34	37
  37	1	34	38
  38	3	36	40
  39	2	25	36
  40	4	41	42
  41	5	41	43
  42	5	41	47
  43	2	42	44
  44	1	42	45
  45	1	42	46
  46	3	44	48
  47	2	33	44
  48	4	49	50
  49	5	49	51
  50	5	49	55
  51	2	50	52
  52	1	50	53
  53	1	50	54
  54	3	52	56
  55	2	41	52
  56	4	57	58
  57	5	57	59
  58	5	57	63
  59	2	58	60
  60	1	58	61
  61	1	58	62
  62	3	60	64
  63	2	49	60
  64	4	65	66
  65	5	65	67
  66	5	65	71
  67	2	66	68
  68	1	66	69
  69	1	66	70
  70	3	68	72
  71	2	57	68
  72	4	73	74
  73	5	73	75
  74	5	73	79
  75	2	74	76
  76	1	74	77
  77	1	74	78
  78	3	76	80
  79	2	65	76
  80	4	81	82
  81	5	81	83
  82	5	81	87
  83	2	82	84
  84	1	82	85
  85	1	82	86
  86	3	84	88
  87	2	73	84
  88	4	89	90
  89	5	89	91
  90	5	89	95
  91	2	90	92
  92	1	90	93
  93	1	90	94
  94	3	92	96
  95	2	81	92
  96	4	97	98
  97	5	97	99
  98	5	97	103
  99	2	98	100
 100	1	98	101
 101	1	98	102
 102	3	100	104
 103	2	89	100
 104	4	105	106
 105	5	105	107
 106	5	105	111
 107	2	106	108
 108	1	106	109
 109	1	106	110
 110	3	108	112
 111	2	97	108
 112	4	113	114
 113	5	113	115
 114	5	113	119
 115	2	114	116
 116	1	114	117
 117	1	114	118
 118	3	116	120
 119	2	105	116
 120	4	121	122
 121	5	121	123
 122	5	121	127
 123	2	122	124
 124	1	122	125
 125	1	122	126
 126	3	124	128
 127	2	113	124
 128	4	129	130
 129	5	129	131
 130	5	129	135
 131	2	130	132
 132	1	130	133
 133	1	130	134
 134	3	132	136
 135	2	121	132
 136	4	137	138
 137	5	137	139
 138	5	137	143
 139	2	138	140
 140	1	138	141
 141	1	138	142
 142	3	140	144
 143	2	129	140
 144	4	145	146
 145	5	145	147
 146	5	145	151
 147	2	146	148
 148	1	146	149
 149	1	146	150
 150	3	148	152
 151	2	137	148
 152	4	153	154
 153	5	153	155
 154	5	153	159
 155	2	154	156
 156	1	154	157
 157	1	154	158
 158	3	156	160
 159	2	145	156
 160	4	161	162
 161	5	161	163
 162	5	161	167
 163	2	162	164
 164	1	162	165
 165	1	162	166
 166	3	164	168
 167	2	153	164
 168	4	169	170
 169	5	169	171
 170	5	169	175
 171	2	170	172
 172	1	170	173
 173	1	170	174
 174	3	172	176
 175	2	161	172
 176	4	177	178
 177	5	177	179
 178	5	177	183
 179	2	178	180
 180	1	178	181
 181	1	178	182
 182	3	180	184
 183	2	169	180
 184	4	185	186
 185	5	185	187
 186	5	185	191
 187	2	186	188
 188	1	186	189
 189	1	186	190
 190	3	188	192
 191	2	177	188
 192	4	193	194
 193	5	193	195
 194	5	193	199
 195	2	194	196
 196	1	194	197
 197	1	194	198
 198	3	196	200
 199	2	185	196
 200	3	4	201
 201	5	193	202

Angles

   1	4	2	1	3
   2	4	2	1	7
   3	7	3	1	7
   4	2	1	2	4
   5	6	1	2	5
   6	6	1	2	6
   7	1	4	2	5
   8	1	4	2	6
   9	8	5	2	6
  10	5	2	4	8
  11	4	10	9	11
  12	4	10	9	15
  13	7	11	9	15
  14	2	9	10	12
  15	6	9	10	13
  16	6	9	10	14
  17	1	12	10	13
  18	1	12	10	14
  19	8	13	10	14
  20	5	10	12	16
  21	2	2	1	12
  22	9	3	1	12
  23	9	7	1	12
  24	10	1	12	10
  25	5	1	12	16
  26	4	18	17	19
  27	4	18	17	23
  28	7	19	17	23
  29	2	17	18	20
  30	6	17	18	21
  31	6	17	18	22
  32	1	20	18	21
  33	1	20	18	22
  34	8	21	18	22
  35	5	18	20	24
  36	2	10	9	20
  37	9	11	9	20
  38	9	15	9	20
  39	10	9	20	18
  40	5	9	20	24
  41	4	26	25	27
  42	4	26	25	31
  43	7	27	25	31
  44	2	25	26	28
  45	6	25	26	29
  46	6	25	26	30
  47	1	28	26	29
  48	1	28	26	30
  49	8	29	26	30
  50	5	26	28	32
  51	2	18	17	28
  52	9	19	17	28
  53	9	23	17	28
  54	10	17	28	26
  55	5	17	28	32
  56	4	34	33	35
  57	4	34	33	39
  58	7	35	33	39
  59	2	33	34	36
  60	6	33	34	37
  61	6	33	34	38
  62	1	36	34	37
  63	1	36	34	38
  64	8	37	34	38
  65	5	34	36	40
  66	2	26	25	36
  67	9	27	25	36
  68	9	31	25	36
  69	10	25	36	34
  70	5	25	36	40
  71	4	42	41	43
  72	4	42	41	47
  73	7	43	41	47
  74	2	41	42	44
  75	6	41	42	45
  76	6	41	42	46
  77	1	44	42	45
  78	1	44	42	46
  79	8	45	42	46
  80	5	42	44	48
  81	2	34	33	44
  82	9	35	33	44
  83	9	39	33	44
  84	10	33	44	42
  85	5	33	44	48
  86	4	50	49	51
  87	4	50	49	55
  88	7	51	49	55
  89	2	49	50	52
  90	6	49	50	53
  91	6	49	50	54
  92	1	52	50	53
  93	1	52	50	54
  94	8	53	50	54
  95	5	50	52	56
  96	2	42	41	52
  97	9	43	41	52
  98	9	47	41	52
  99	10	41	52	50
 100	5	41	52	56
 101	4	58	57	59
 102	4	58	57	63
 103	7	59	57	63
 104	2	57	58	60
 105	6	57	58	61
 106	6	57	58	62
 107	1	60	58	61
 108	1	60	58	62
 109	8	61	58	62
 110	5	58	60	64
 111	2	50	49	60
 112	9	51	49	60
 113	9	55	49	60
 114	10	49	60	58
 115	5	49	60	64
 116	4	66	65	67
 117	4	66	65	71
 118	7	67	65	71
 119	2	65	66	68
 120	6	65	66	69
 121	6	65	66	70
 122	1	68	66	69
 123	1	68	66	70
 124	8	69	66	70
 125	5	66	68	72
 126	2	58	57	68
 127	9	59	57	68
 128	9	63	57	68
 129	10	57	68	66
 130	5	57	68	72
 131	4	74	73	75
 132	4	74	73	79
 133	7	75	73	79
 134	2	73	74	76
 135	6	73	74	77
 136	6	73	74	78
 137	1	76	74	77
 138	1	76	74	78
 139	8	77	74	78
 140	5	74	76	80
 141	2	66	65	76
 142	9	67	65	76
 143	9	71	65	76
 144	10	65	76	74
 145	5	65	76	80
 146	4	82	81	83
 147	4	82	81	87
 148	7	83	81	87
 149	2	81	82	84
 150	6	81	82	85
 151	6	81	82	86
 152	1	84	82	85
 153	1	84	82	86
 154	8	85	82	86
 155	5	82	84	88
 156	2	74	73	84
 157	9	75	73	84
 158	9	79	73	84
 159	10	73	84	82
 160	5	73	84	88
 161	4	90	89	91
 162	4	90	89	95
 163	7	91	89	95
 164	2	89	90	92
 165	6	89	90	93
 166	6	89	90	94
 167	1	92	90	93
 168	1	92	90	94
 169	8	93	90	94
 170	5	90	92	96
 171	2	82	81	92
 172	9	83	81	92
 173	9	87	81	92
 174	10	81	92	90
 175	5	81	92	96
 176	4	98	97	99
 177	4	98	97	103
 178	7	99	97	103
 179	2	97	98	100
 180	6	97	98	101
 181	6	97	98	102
 182	1	100	98	101
 183	1	100	98	102
 184	8	101	98	102
 185	5	98	100	104
 186	2	90	89	100
 187	9	91	89	100
 188	9	95	89	100
 189	10	89	100	98
 190	5	89	100	104
 191	4	106	105	107
 192	4	106	105	111
 193	7	107	105	111
 194	2	105	106	108
 195	6	105	106	109
 196	6	105	106	110
 197	1	108	106	109
 198	1	108	106	110
 199	8	109	106	110
 200	5	106	108	112
 201	2	98	97	108
 202	9	99	97	108
 203	9	103	97	108
 204	10	97	108	106
 205	5	97	108	112
 206	4	114	113	115
 207	4	114	113	119
 208	7	115	113	119
 209	2	113	114	116
 210	6	113	114	117
 211	6	113	114	118
 212	1	116	114	117
 213	1	116	114	118
 214	8	117	114	118
 215	5	114	116	120
 216	2	106	105	116
 217	9	107	105	116
 218	9	111	105	116
 219	10	105	116	114
 220	5	105	116	120
 221	4	122	121	123
 222	4	122	121	127
 223	7	123	121	127
 224	2	121	122	124
 225	6	121	122	125
 226	6	121	122	126
 227	1	124	122	125
 228	1	124	122	126
 229	8	125	122	126
 230	5	122	124	128
 231	2	114	113	124
 232	9	115	113	124
 233	9	119	113	124
 234	10	113	124	122
 235	5	113	124	128
 236	4	130	129	131
 237	4	130	129	135
 238	7	131	129	135
 239	2	129	130	132
 240	6	129	130	133
 241	6	129	130	134
 242	1	132	130	133
 243	1	132	130	134
 244	8	133	130	134
 245	5	130	132	136
 246	2	122	121	132
 247	9	123	121	132
 248	9	127	121	132
 249	10	121	132	130
 250	5	121	132	136
 251	4	138	137	139
 252	4	138	137	143
 253	7	139	137	143
 254	2	137	138	140
 255	6	137	138	141
 256	6	137	138	142
 257	1	140	138	141
 258	1	140	138	142
 259	8	141	138	142
 260	5	138	140	144
 261	2	130	129	140
 262	9	131	129	140
 263	9	135	129	140
 264	10	129	140	138
 265	5	129	140	144
 266	4	146	145	147
 267	4	146	145	151
 268	7	147	145	151
 269	2	145	146	148
 270	6	145	146	149
 271	6	145	146	150
 272	1	148	146	149
 273	1	148	146	150
 274	8	149	146	150
 275	5	146	148	152
 276	2	138	137	148
 277	9	139	137	148
 278	9	143	137	148
 279	10	137	148	146
 280	5	137	148	152
 281	4	154	153	155
 282	4	154	153	159
 283	7	155	153	159
 284	2	153	154	156
 285	6	153	154	157
 286	6	153	154	158
 287	1	156	154	157
 288	1	156	154	158
 289	8	157	154	158
 290	5	154	156	160
 291	2	146	145	156
 292	9	147	145	156
 293	9	151	145	156
 294	10	145	156	154
 295	5	145	156	160
 296	4	162	161	163
 297	4	162	161	167
 298	7	163	161	167
 299	2	161	162	164
 300	6	161	162	165
 301	6	161	162	166
 302	1	164	162	165
 303	1	164	162	166
 304	8	165	162	166
 305	5	162	164	168
 306	2	154	153	164
 307	9	155	153	164
 308	9	159	153	164
 309	10	153	164	162
 310	5	153	164	168
 311	4	170	169	171
 312	4	170	169	175
 313	7	171	169	175
 314	2	169	170	172
 315	6	169	170	173
 316	6	169	170	174
 317	1	172	170	173
 318	1	172	170	174
 319	8	173	170	174
 320	5	170	172	176
 321	2	162	161	172
 322	9	163	161	172
 323	9	167	161	172
 324	10	161	172	170
 325	5	161	172	176
 326	4	178	177	179
 327	4	178	177	183
 328	7	179	177	183
 329	2	177	178	180
 330	6	177	178	181
 331	6	177	178	182
 332	1	180	178	181
 333	1	180	178	182
 334	8	181	178	182
 335	5	178	180	184
 336	2	170	169	180
 337	9	171	169	180
 338	9	175	169	180
 339	10	169	180	178
 340	5	169	180	184
 341	4	186	185	187
 342	4	186	185	191
 343	7	187	185	191
 344	2	185	186	188
 345	6	185	186	189
 346	6	185	186	190
 347	1	188	186	189
 348	1	188	186	190
 349	8	189	186	190
 350	5	186	188	192
 351	2	178	177	188
 352	9	179	177	188
 353	9	183	177	188
 354	10	177	188	186
 355	5	177	188	192
 356	4	194	193	195
 357	4	194	193	199
 358	7	195	193	199
 359	2	193	194	196
 360	6	193	194	197
 361	6	193	194	198
 362	1	196	194	197
 363	1	196	194	198
 364	8	197	194	198
 365	5	194	196	200
 366	2	186	185	196
 367	9	187	185	196
 368	9	191	185	196
 369	10	185	196	194
 370	5	185	196	200
 371	5	2	4	201
 372	3	8	4	201
 373	4	194	193	202
 374	7	195	193	202
 375	7	199	193	202

Dihedrals

   1	1	3	1	2	4
   2	1	3	1	2	5
   3	1	3	1	2	6
   4	1	7	1	2	4
   5	1	7	1	2	5
   6	1	7	1	2	6
   7	2	1	2	4	8
   8	2	5	2	4	8
   9	2	6	2	4	8
  10	1	11	9	10	12
  11	1	11	9	10	13
  12	1	11	9	10	14
  13	1	15	9	10	12
  14	1	15	9	10	13
  15	1	15	9	10	14
  16	2	9	10	12	16
  17	2	13	10	12	16
  18	2	14	10	12	16
  19	1	4	2	1	12
  20	1	5	2	1	12
  21	1	6	2	1	12
  22	3	1	12	10	9
  23	2	1	12	10	13
  24	2	1	12	10	14
  25	3	2	1	12	10
  26	2	2	1	12	16
  27	2	3	1	12	10
  28	2	3	1	12	16
  29	2	7	1	12	10
  30	2	7	1	12	16
  31	1	19	17	18	20
  32	1	19	17	18	21
  33	1	19	17	18	22
  34	1	23	17	18	20
  35	1	23	17	18	21
  36	1	23	17	18	22
  37	2	17	18	20	24
  38	2	21	18	20	24
  39	2	22	18	20	24
  40	1	12	10	9	20
  41	1	13	10	9	20
  42	1	14	10	9	20
  43	3	9	20	18	17
  44	2	9	20	18	21
  45	2	9	20	18	22
  46	3	10	9	20	18
  47	2	10	9	20	24
  48	2	11	9	20	18
  49	2	11	9	20	24
  50	2	15	9	20	18
  51	2	15	9	20	24
  52	1	27	25	26	28
  53	1	27	25	26	29
  54	1	27	25	26	30
  55	1	31	25	26	28
  56	1	31	25	26	29
  57	1	31	25	26	30
  58	2	25	26	28	32
  59	2	29	26	28	32
  60	2	30	26	28	32
  61	1	20	18	17	28
  62	1	21	18	17	28
  63	1	22	18	17	28
  64	3	17	28	26	25
  65	2	17	28	26	29
  66	2	17	28	26	30
  67	3	18	17	28	26
  68	2	18	17	28	32
  69	2	19	17	28	26
  70	2	19	17	28	32
  71	2	23	17	28	26
  72	2	23	17	28	32
  73	1	35	33	34	36
  74	1	35	33	34	37
  75	1	35	33	34	38
  76	1	39	33	34	36
  77	1	39	33	34	37
  78	1	39	33	34	38
  79	2	33	34	36	40
  80	2	37	34	36	40
  81	2	38	34	36	40
  82	1	28	26	25	36
  83	1	29	26	25	36
  84	1	30	26	25	36
  85	3	25	36	34	33
  86	2	25	36	34	37
  87	2	25	36	34	38
  88	3	26	25	36	34
  89	2	26	25	36	40
  90	2	27	25	36	34
  91	2	27	25	36	40
  92	2	31	25	36	34
  93	2	31	25	36	40
  94	1	43	41	42	44
  95	1	43	41	42	45
  96	1	43	41	42	46
  97	1	47	41	42	44
  98	1	47	41	42	45
  99	1	47	41	42	46
 100	2	41	42	44	48
 101	2	45	42	44	48
 102	2	46	42	44	48
 103	1	36	34	33	44
 104	1	37	34	33	44
 105	1	38	34	33	44
 106	3	33	44	42	41
 107	2	33	44	42	45
 108	2	33	44	42	46
 109	3	34	33	44	42
 110	2	34	33	44	48
 111	2	35	33	44	42
 112	2	35	33	44	48
 113	2	39	33	44	42
 114	2	39	33	44	48
 115	1	51	49	50	52
 116	1	51	49	50	53
 117	1	51	49	50	54
 118	1	55	49	50	52
 119	1	55	49	50	53
 120	1	55	49	50	54
 121	2	49	50	52	56
 122	2	53	50	52	56
 123	2	54	50	52	56
 124	1	44	42	41	52