pySIMM System Object

330 atoms
329 bonds
615 angles
855 dihedrals
0 impropers

5 atom types
5 bond types
10 angle types
3 dihedral types

-89.438834 89.438834 xlo xhi
-89.438834 89.438834 ylo yhi
-89.438834 89.438834 zlo zhi

Masses

   1	12.01	# c3
   2	1.008	# hc
   3	14.01	# n3
   4	1.008	# h1
   5	1.008	# hn

Pair Coeffs

   1	0.1094	3.3996695084235347	# c3
   2	0.0157	2.649532787749369	# hc
   3	0.17	3.249998523775958	# n3
   4	0.0157	2.471353044121301	# h1
   5	0.0157	1.069078461768407	# hn

Bond Coeffs

   1	330.6	1.0969	# c3,h1
   2	325.9	1.4647	# c3,n3
   3	392.4	1.019	# hn,n3
   4	300.9	1.5375	# c3,c3
   5	330.6	1.0969	# c3,hc

Angle Coeffs

   1	49.53	109.88	# h1,c3,n3
   2	66.02	111.04	# c3,c3,n3
   3	41.4	106.4	# hn,n3,hn
   4	46.34	109.8	# c3,c3,hc
   5	47.42	109.29	# c3,n3,hn
   6	46.39	109.56	# c3,c3,h1
   7	39.4	107.58	# hc,c3,hc
   8	39.24	108.46	# h1,c3,h1
   9	49.55	109.8	# hc,c3,n3
  10	63.82	112.35	# c3,n3,c3

Dihedral Coeffs

   1	1	0.15555555555555556	3	0	# X,c3,c3,X
   2	1	0.3	3	0	# X,c3,n3,X
   3	2	0.3	3	0	0.48	2	180	# c3,c3,n3,c3

Atoms

   1	1	1	-0.185789	-5.69486	-11.147	-16.4772
   2	1	1	0.725698	-5.1821	-12.5969	-16.2695
   3	1	2	0.009194	-6.7359	-11.1034	-16.1331
   4	1	3	-0.517699	-3.76083	-12.7118	-16.5795
   5	1	4	-0.226077	-5.33591	-12.9025	-15.2304
   6	1	4	-0.130348	-5.73841	-13.2879	-16.9119
   7	1	2	0.087114	-5.12705	-10.483	-15.8136
   8	1	5	0.237906	-3.52581	-13.6964	-16.4899
   9	1	1	-0.185789	-6.38206	-10.6895	-20.2488
  10	1	1	0.725698	-6.26667	-11.4509	-18.9052
  11	1	2	0.009194	-6.88411	-11.3398	-20.9765
  12	1	3	-0.517699	-5.63991	-10.6183	-17.8709
  13	1	4	-0.226077	-7.26542	-11.7528	-18.5746
  14	1	4	-0.130348	-5.66117	-12.3546	-19.0505
  15	1	2	0.087114	-7.04646	-9.83104	-20.0833
  16	1	5	0.237906	-4.67724	-10.4602	-18.1621
  17	1	1	-0.185789	-3.81192	-8.99126	-22.5578
  18	1	1	0.725698	-5.20841	-9.42469	-22.046
  19	1	2	0.009194	-3.94733	-8.37106	-23.4529
  20	1	3	-0.517699	-5.09025	-10.2215	-20.8205
  21	1	4	-0.226077	-5.81789	-8.53731	-21.8472
  22	1	4	-0.130348	-5.70299	-10.025	-22.8188
  23	1	2	0.087114	-3.35282	-8.35021	-21.7935
  24	1	5	0.237906	-4.495	-11.0126	-21.0659
  25	1	1	-0.185789	-0.661282	-10.9936	-23.5696
  26	1	1	0.725698	-1.5917	-9.75557	-23.4195
  27	1	2	0.009194	-0.55332	-11.4806	-22.5924
  28	1	3	-0.517699	-2.90459	-10.1244	-22.879
  29	1	4	-0.226077	-1.11637	-9.04536	-22.7353
  30	1	4	-0.130348	-1.7197	-9.26741	-24.392
  31	1	2	0.087114	0.334152	-10.6078	-23.8219
  32	1	5	0.237906	-3.33332	-10.7248	-23.5825
  33	1	1	-0.185789	-2.42831	-13.9153	-25.3627
  34	1	1	0.725698	-2.3198	-12.706	-24.4049
  35	1	2	0.009194	-3.42985	-14.3506	-25.2594
  36	1	3	-0.517699	-1.03761	-12.0172	-24.59
  37	1	4	-0.226077	-3.13825	-12.0038	-24.6014
  38	1	4	-0.130348	-2.40397	-13.0526	-23.3715
  39	1	2	0.087114	-2.34827	-13.5379	-26.3907
  40	1	5	0.237906	-0.335441	-12.7561	-24.6022
  41	1	1	-0.185789	-2.55728	-16.9938	-26.0492
  42	1	1	0.725698	-1.3191	-16.0598	-26.0924
  43	1	2	0.009194	-2.40106	-17.7933	-26.7849
  44	1	3	-0.517699	-1.3985	-14.9643	-25.1169
  45	1	4	-0.226077	-0.431352	-16.654	-25.8532
  46	1	4	-0.130348	-1.19812	-15.6497	-27.1015
  47	1	2	0.087114	-3.43621	-16.4317	-26.3887
  48	1	5	0.237906	-1.55125	-15.4072	-24.2117
  49	1	1	-0.185789	-4.14456	-19.1684	-23.2889
  50	1	1	0.725698	-3.90807	-18.5931	-24.7091
  51	1	2	0.009194	-4.6572	-18.4102	-22.6839
  52	1	3	-0.517699	-2.82463	-17.6033	-24.7173
  53	1	4	-0.226077	-3.63136	-19.4115	-25.382
  54	1	4	-0.130348	-4.8352	-18.1404	-25.0794
  55	1	2	0.087114	-4.83716	-20.0131	-23.3945
  56	1	5	0.237906	-2.00188	-18.1154	-24.4029
  57	1	1	-0.185789	-3.78717	-19.5684	-20.2156
  58	1	1	0.725698	-3.0774	-20.3747	-21.3433
  59	1	2	0.009194	-3.74388	-20.1607	-19.293
  60	1	3	-0.517699	-2.90598	-19.6091	-22.586
  61	1	4	-0.226077	-2.085	-20.671	-20.9896
  62	1	4	-0.130348	-3.64847	-21.2873	-21.5485
  63	1	2	0.087114	-4.84992	-19.4851	-20.4735
  64	1	5	0.237906	-2.34773	-18.7943	-22.3314
  65	1	1	-0.185789	-1.36098	-16.6314	-19.4916
  66	1	1	0.725698	-1.79712	-18.1044	-19.7232
  67	1	2	0.009194	-0.346947	-16.6498	-19.0739
  68	1	3	-0.517699	-3.24706	-18.2079	-19.9388
  69	1	4	-0.226077	-1.26676	-18.5101	-20.5906
  70	1	4	-0.130348	-1.53561	-18.6948	-18.8383
  71	1	2	0.087114	-1.99447	-16.1911	-18.7118
  72	1	5	0.237906	-3.7067	-17.8125	-19.1232
  73	1	1	-0.185789	-3.67397	-14.8231	-20.5951
  74	1	1	0.725698	-2.57226	-15.5228	-21.4483
  75	1	2	0.009194	-4.47937	-14.5004	-21.2671
  76	1	3	-0.517699	-1.3263	-15.7509	-20.6971
  77	1	4	-0.226077	-2.94823	-16.4667	-21.8482
  78	1	4	-0.130348	-2.3304	-14.888	-22.3052
  79	1	2	0.087114	-4.11951	-15.5732	-19.9325
  80	1	5	0.237906	-0.985076	-14.8291	-20.4312
  81	1	1	-0.185789	-2.11082	-11.4426	-19.5738
  82	1	1	0.725698	-2.58751	-12.5675	-20.5231
  83	1	2	0.009194	-1.58009	-10.6943	-20.1742
  84	1	3	-0.517699	-3.22552	-13.6593	-19.7777
  85	1	4	-0.226077	-3.32989	-12.1696	-21.2215
  86	1	4	-0.130348	-1.73313	-12.9591	-21.0853
  87	1	2	0.087114	-2.99242	-10.9414	-19.1587
  88	1	5	0.237906	-4.01618	-13.2535	-19.2812
  89	1	1	-0.185789	0.22432	-9.89607	-18.1272
  90	1	1	0.725698	-0.785601	-10.8992	-17.5095
  91	1	2	0.009194	-0.277685	-9.28102	-18.8843
  92	1	3	-0.517699	-1.24226	-11.9178	-18.4625
  93	1	4	-0.226077	-1.65413	-10.3591	-17.116
  94	1	4	-0.130348	-0.304056	-11.4181	-16.6729
  95	1	2	0.087114	1.00148	-10.4741	-18.6441
  96	1	5	0.237906	-1.77394	-12.5844	-17.9032
  97	1	1	-0.185789	2.5798	-7.39125	-16.4356
  98	1	1	0.725698	1.84663	-8.05615	-17.6269
  99	1	2	0.009194	1.84468	-6.85737	-15.819
 100	1	3	-0.517699	0.854005	-9.00932	-17.1164
 101	1	4	-0.226077	1.33416	-7.28954	-18.2168
 102	1	4	-0.130348	2.57308	-8.57294	-18.2647
 103	1	2	0.087114	3.27344	-6.63858	-16.8307
 104	1	5	0.237906	0.143139	-8.45718	-16.6416
 105	1	1	-0.185789	4.5364	-9.04995	-13.5797
 106	1	1	0.725698	3.91145	-7.86713	-14.3605
 107	1	2	0.009194	5.3508	-9.47174	-14.1833
 108	1	3	-0.517699	3.31655	-8.37333	-15.5982
 109	1	4	-0.226077	3.12711	-7.41203	-13.7448
 110	1	4	-0.130348	4.67427	-7.11255	-14.5833
 111	1	2	0.087114	4.99373	-8.65886	-12.6618
 112	1	5	0.237906	2.68739	-9.12219	-15.3107
 113	1	1	-0.185789	3.01936	-12.4258	-12.5185
 114	1	1	0.725698	4.13007	-11.3523	-12.6913
 115	1	2	0.009194	3.47711	-13.3297	-12.0968
 116	1	3	-0.517699	3.55846	-10.123	-13.2479
 117	1	4	-0.226077	4.58724	-11.1239	-11.7236
 118	1	4	-0.130348	4.90429	-11.7408	-13.3621
 119	1	2	0.087114	2.65994	-12.7042	-13.5171
 120	1	5	0.237906	2.89055	-9.77926	-12.5612
 121	1	1	-0.185789	0.911855	-11.344	-9.47895
 122	1	1	0.725698	2.19675	-11.6251	-10.3044
 123	1	2	0.009194	0.352008	-10.5372	-9.96879
 124	1	3	-0.517699	1.85629	-12.0348	-11.6704
 125	1	4	-0.226077	2.7878	-10.7054	-10.3669
 126	1	4	-0.130348	2.79245	-12.4125	-9.83277
 127	1	2	0.087114	0.272121	-12.2357	-9.51308
 128	1	5	0.237906	1.35412	-11.2583	-12.0942
 129	1	1	-0.185789	2.20679	-11.4042	-5.85652
 130	1	1	0.725698	1.743	-11.9999	-7.21074
 131	1	2	0.009194	2.59509	-12.2188	-5.23214
 132	1	3	-0.517699	1.16497	-10.9521	-8.06572
 133	1	4	-0.226077	2.59576	-12.465	-7.71018
 134	1	4	-0.130348	0.985228	-12.7706	-7.03296
 135	1	2	0.087114	1.32787	-11.0088	-5.33313
 136	1	5	0.237906	0.300528	-10.6512	-7.6221
 137	1	1	-0.185789	5.52232	-9.56218	-6.48764
 138	1	1	0.725698	4.49846	-10.7165	-6.61955
 139	1	2	0.009194	5.11725	-8.67719	-6.99574
 140	1	3	-0.517699	3.24117	-10.3371	-5.95553
 141	1	4	-0.226077	4.30074	-10.9003	-7.67968
 142	1	4	-0.130348	4.90439	-11.629	-6.16784
 143	1	2	0.087114	6.43503	-9.84672	-7.02672
 144	1	5	0.237906	2.8765	-9.55156	-6.49131
 145	1	1	-0.185789	6.98353	-7.80237	-3.38785
 146	1	1	0.725698	6.61393	-7.98638	-4.88343
 147	1	2	0.009194	7.76402	-8.5328	-3.13707
 148	1	3	-0.517699	5.84913	-9.2224	-5.07651
 149	1	4	-0.226077	5.999	-7.14335	-5.21457
 150	1	4	-0.130348	7.52959	-8.0122	-5.48545
 151	1	2	0.087114	7.43521	-6.80859	-3.27416
 152	1	5	0.237906	4.98202	-9.08532	-4.56031
 153	1	1	-0.185789	5.03792	-8.24575	-0.104759
 154	1	1	0.725698	6.22508	-7.83549	-1.018
 155	1	2	0.009194	4.64445	-9.2084	-0.455101
 156	1	3	-0.517699	5.85059	-7.96056	-2.43184
 157	1	4	-0.226077	6.54533	-6.81178	-0.802019
 158	1	4	-0.130348	7.06309	-8.51088	-0.813622
 159	1	2	0.087114	5.43827	-8.43408	0.899688
 160	1	5	0.237906	5.46527	-8.89762	-2.5311
 161	1	1	-0.185789	2.91543	-5.21638	0.985528
 162	1	1	0.725698	4.20305	-6.04352	0.735269
 163	1	2	0.009194	2.13401	-5.87945	1.38001
 164	1	3	-0.517699	3.91212	-7.27416	-0.0114337
 165	1	4	-0.226077	4.92313	-5.44484	0.170662
 166	1	4	-0.130348	4.64599	-6.30889	1.70315
 167	1	2	0.087114	2.55679	-4.83596	0.0205305
 168	1	5	0.237906	3.59861	-7.00315	-0.941331
 169	1	1	-0.185789	2.3061	-2.17807	3.26275
 170	1	1	0.725698	1.94085	-3.26543	2.22076
 171	1	2	0.009194	1.44986	-1.50242	3.38453
 172	1	3	-0.517699	3.11759	-4.09197	1.93826
 173	1	4	-0.226077	1.14388	-3.89839	2.62716
 174	1	4	-0.130348	1.58653	-2.79337	1.29736
 175	1	2	0.087114	3.12326	-1.5763	2.84273
 176	1	5	0.237906	3.42437	-4.44803	2.84187
 177	1	1	-0.185789	3.61251	-2.35993	6.88253
 178	1	1	0.725698	3.18345	-1.70277	5.54525
 179	1	2	0.009194	4.12882	-1.59674	7.47902
 180	1	3	-0.517699	2.69732	-2.71312	4.59757
 181	1	4	-0.226077	2.38978	-0.970901	5.72471
 182	1	4	-0.130348	4.04629	-1.18725	5.10777
 183	1	2	0.087114	4.36048	-3.13233	6.65943
 184	1	5	0.237906	1.89078	-3.15109	5.03596
 185	1	1	-0.185789	1.75429	-3.96418	9.86236
 186	1	1	0.725698	2.94639	-3.53448	8.96729
 187	1	2	0.009194	1.07082	-4.60359	9.28818
 188	1	3	-0.517699	2.50483	-2.92989	7.7027
 189	1	4	-0.226077	3.58373	-2.83312	9.5148
 190	1	4	-0.130348	3.54408	-4.4225	8.73035
 191	1	2	0.087114	2.17432	-4.59119	10.6593
 192	1	5	0.237906	2.01305	-3.65615	7.1892
 193	1	1	-0.185789	-0.719916	-2.00588	12.0947
 194	1	1	0.725698	0.0606634	-3.22588	11.5422
 195	1	2	0.009194	-0.0087199	-1.21966	12.3804
 196	1	3	-0.517699	0.995978	-2.8397	10.4789
 197	1	4	-0.226077	0.620651	-3.69703	12.357
 198	1	4	-0.130348	-0.656383	-3.95837	11.1517
 199	1	2	0.087114	-1.21468	-2.3281	13.0197
 200	1	5	0.237906	0.474301	-2.31979	9.77522
 201	1	1	-0.185789	-3.49925	-0.661906	12.755
 202	1	1	0.725698	-2.52621	-0.309109	11.592
 203	1	2	0.009194	-4.45874	-0.169331	12.5516
 204	1	3	-0.517699	-1.72214	-1.45483	11.1404
 205	1	4	-0.226077	-3.13211	0.00388064	10.7363
 206	1	4	-0.130348	-1.88152	0.531304	11.8753
 207	1	2	0.087114	-3.70249	-1.74074	12.7424
 208	1	5	0.237906	-2.38059	-2.17703	10.8584
 209	1	1	-0.185789	-3.49769	0.127855	16.5159
 210	1	1	0.725698	-3.94884	-0.569387	15.2067
 211	1	2	0.009194	-2.46867	-0.173007	16.752
 212	1	3	-0.517699	-3.038	-0.235631	14.1036
 213	1	4	-0.226077	-3.96692	-1.65498	15.3471
 214	1	4	-0.130348	-4.96278	-0.234054	14.9587
 215	1	2	0.087114	-4.13135	-0.253741	17.327
 216	1	5	0.237906	-2.93336	0.774949	14.1178
 217	1	1	-0.185789	-3.54778	3.82717	17.5732
 218	1	1	0.725698	-3.18711	2.32169	17.6877
 219	1	2	0.009194	-4.63804	3.93322	17.6423
 220	1	3	-0.517699	-3.59074	1.61334	16.4674
 221	1	4	-0.226077	-2.10532	2.20797	17.8094
 222	1	4	-0.130348	-3.68918	1.8915	18.5617
 223	1	2	0.087114	-3.12509	4.33734	18.4488
 224	1	5	0.237906	-2.97656	1.97701	15.7438
 225	1	1	-0.185789	-2.64709	6.50587	14.9652
 226	1	1	0.725698	-3.39593	5.91154	16.1909
 227	1	2	0.009194	-1.57334	6.3306	15.1123
 228	1	3	-0.517699	-3.07055	4.48644	16.3259
 229	1	4	-0.226077	-3.10144	6.44036	17.1026
 230	1	4	-0.130348	-4.4772	6.02536	16.0518
 231	1	2	0.087114	-2.92679	5.93602	14.0707
 232	1	5	0.237906	-3.47242	4.0221	15.5156
 233	1	1	-0.185789	-2.23356	10.284	15.3936
 234	1	1	0.725698	-2.6411	8.85782	15.8475
 235	1	2	0.009194	-3.00575	10.7085	14.7391
 236	1	3	-0.517699	-2.83978	7.96144	14.7002
 237	1	4	-0.226077	-1.83984	8.4646	16.4821
 238	1	4	-0.130348	-3.56645	8.89131	16.4342
 239	1	2	0.087114	-1.3213	10.1829	14.7908
 240	1	5	0.237906	-3.76859	8.15504	14.3323
 241	1	1	-0.185789	-1.06947	13.2258	17.5803
 242	1	1	0.725698	-1.2809	12.4579	16.2456
 243	1	2	0.009194	-0.823582	12.4959	18.3626
 244	1	3	-0.517699	-1.98436	11.201	16.5389
 245	1	4	-0.226077	-1.86107	13.0681	15.5452
 246	1	4	-0.130348	-0.3098	12.221	15.7962
 247	1	2	0.087114	-2.02921	13.6729	17.8695
 248	1	5	0.237906	-1.40307	10.7238	17.2256
 249	1	1	-0.185789	0.98521	16.4373	17.0821
 250	1	1	0.725698	-0.11907	15.4087	16.7071
 251	1	2	0.009194	0.777565	16.8221	18.0894
 252	1	3	-0.517699	0.00473718	14.2563	17.6085
 253	1	4	-0.226077	-1.104	15.8664	16.8483
 254	1	4	-0.130348	-0.0147885	15.0839	15.666
 255	1	2	0.087114	1.93895	15.8986	17.1491
 256	1	5	0.237906	0.0675804	14.6423	18.5473
 257	1	1	-0.185789	0.435728	19.6456	15.0234
 258	1	1	0.725698	0.000966309	18.4333	15.8922
 259	1	2	0.009194	0.863234	19.2652	14.087
 260	1	3	-0.517699	1.16934	17.5884	16.1579
 261	1	4	-0.226077	-0.421484	18.7876	16.8376
 262	1	4	-0.130348	-0.764033	17.8551	15.3627
 263	1	2	0.087114	-0.464061	20.2079	14.7429
 264	1	5	0.237906	1.8793	18.2197	16.5263
 265	1	1	-0.185789	1.99136	22.316	17.3545
 266	1	1	0.725698	0.916718	21.3476	16.7873
 267	1	2	0.009194	2.75158	21.734	17.8901
 268	1	3	-0.517699	1.43038	20.5563	15.662
 269	1	4	-0.226077	0.583312	20.6796	17.5862
 270	1	4	-0.130348	0.0519451	21.9268	16.4453
 271	1	2	0.087114	1.48955	22.9292	18.1143
 272	1	5	0.237906	1.77984	21.2273	14.9816
 273	1	1	-0.185789	2.3075	25.3536	15.1647
 274	1	1	0.725698	1.83698	23.8958	15.3915
 275	1	2	0.009194	3.32494	25.3679	14.7526
 276	1	3	-0.517699	2.68098	23.2178	16.3838
 277	1	4	-0.226077	0.802745	23.9168	15.748
 278	1	4	-0.130348	1.86276	23.3321	14.4519
 279	1	2	0.087114	1.6476	25.7858	14.401
 280	1	5	0.237906	3.16302	23.9474	16.9026
 281	1	1	-0.185789	2.10258	28.3419	17.6237
 282	1	1	0.725698	2.22467	27.629	16.2464
 283	1	2	0.009194	1.93889	29.4083	17.4252
 284	1	3	-0.517699	2.25111	26.1732	16.4042
 285	1	4	-0.226077	1.35584	27.8904	15.6322
 286	1	4	-0.130348	3.13217	27.9646	15.7329
 287	1	2	0.087114	3.06564	28.2776	18.1471
 288	1	5	0.237906	3.01005	25.9425	17.0419
 289	1	1	-0.185789	1.73845	27.2392	20.7902
 290	1	1	0.725698	1.30897	26.7204	19.3915
 291	1	2	0.009194	2.46326	28.0516	20.6559
 292	1	3	-0.517699	0.994666	27.8503	18.4994
 293	1	4	-0.226077	2.10684	26.1112	18.9514
 294	1	4	-0.130348	0.414213	26.0978	19.4997
 295	1	2	0.087114	0.860281	27.6904	21.27
 296	1	5	0.237906	0.207559	27.5757	17.9153
 297	1	1	-0.185789	2.27013	24.3964	23.319
 298	1	1	0.725698	1.52338	25.122	22.1663
 299	1	2	0.009194	3.17287	23.9335	22.8989
 300	1	3	-0.517699	2.35816	26.2359	21.6984
 301	1	4	-0.226077	1.31665	24.4318	21.3415
 302	1	4	-0.130348	0.57179	25.5105	22.5474
 303	1	2	0.087114	1.64269	23.5785	23.6948
 304	1	5	0.237906	2.68449	26.6961	22.5466
 305	1	1	-0.185789	3.23539	23.955	26.4639
 306	1	1	0.725698	3.72978	24.9008	25.3402
 307	1	2	0.009194	4.099	23.7017	27.0918
 308	1	3	-0.517699	2.65679	25.3187	24.4277
 309	1	4	-0.226077	4.11181	25.8068	25.8221
 310	1	4	-0.130348	4.54837	24.4351	24.7815
 311	1	2	0.087114	2.88568	23.0167	26.0149
 312	1	5	0.237906	1.85555	25.5941	24.9934
 313	1	1	-0.185789	0.365911	23.8114	28.8076
 314	1	1	0.725698	1.89432	23.848	28.5804
 315	1	2	0.009194	0.152404	23.52	29.844
 316	1	3	-0.517699	2.16763	24.543	27.3154
 317	1	4	-0.226077	2.38211	24.4094	29.3834
 318	1	4	-0.130348	2.29058	22.8263	28.56
 319	1	2	0.087114	-0.0173493	24.8333	28.6845
 320	1	5	0.237906	2.42053	25.4922	27.5873
 321	1	1	-0.185789	-2.33957	22.1068	26.7122
 322	1	1	0.725698	-1.65526	23.2654	27.4483
 323	1	2	0.009194	-3.32827	22.4127	26.3496
 324	1	3	-0.517699	-0.318361	22.8649	27.8855
 325	1	4	-0.226077	-1.54452	24.1146	26.7657
 326	1	4	-0.130348	-2.26416	23.5715	28.3055
 327	1	2	0.087114	-2.46824	21.2591	27.3947
 328	1	5	0.237906	0.228011	22.7687	27.0316
 329	1	5	0	-3.5963	-12.4479	-17.5496
 330	1	2	0	-1.74256	21.7747	25.853

Velocities

   1	-0.000337901	-0.0005081	-0.000168741
   2	0.00106061	4.69286e-05	-0.000748089
   3	-0.000641484	-0.00181469	-0.000548208
   4	0.00059249	0.000335534	-0.00337355
   5	0.00305098	0.000370222	-0.000528078
   6	0.000625342	-0.000430081	0.000573568
   7	-0.00147785	-0.000223539	0.000330911
   8	0.00199819	0.00105742	0.00291443
   9	0.000320924	0.000797452	-0.000203554
  10	0.000303034	0.000388599	-0.000318568
  11	0.000125144	0.000879659	-0.000125039
  12	-0.000705887	0.000352916	6.94705e-05
  13	0.000257478	-0.00035765	-0.000671031
  14	0.00124763	0.000865941	-0.000349766
  15	0.00040266	0.000710654	0.000102823
  16	-0.00070086	0.00167266	0.000399286
  17	-0.00024892	0.000546287	-0.000206935
  18	-0.000209513	0.00077961	3.78777e-05
  19	-0.000168471	0.000496867	-0.000259435
  20	0.000243358	0.000595387	-0.000115485
  21	0.000242511	0.000902396	0.000452792
  22	-0.000483357	0.00103289	0.000145157
  23	7.6255e-05	0.000507649	-0.000343331
  24	-3.64809e-05	0.000523673	-0.000500157
  25	-0.000370275	6.26603e-05	0.000463934
  26	-0.000248195	0.000207013	0.000167629
  27	-0.000759147	4.58549e-05	0.000559393
  28	-0.000398303	0.000334456	-0.000277953
  29	-0.000403544	7.46047e-05	0.00020645
  30	0.0001032	0.000158976	0.000102642
  31	-0.000211568	-5.82e-05	0.000869641
  32	-0.000390259	0.000489783	-0.000364731
  33	3.3825e-05	0.000299006	-0.000195361
  34	-0.000256835	0.000129318	-4.51011e-05
  35	3.44607e-05	0.000290115	-0.000554559
  36	-0.000116852	0.000168293	0.000360475
  37	-0.000163329	0.000253847	-0.000208657
  38	-0.000506603	3.90399e-06	-7.73983e-05
  39	0.000386785	0.00037504	-0.000136859
  40	-0.000173295	7.6822e-05	0.000537625
  41	0.000218576	0.000136057	0.000265339
  42	0.00017701	0.000201116	0.000242175
  43	0.00037243	-2.96689e-05	0.000492796
  44	2.29552e-05	0.000278494	8.06235e-05
  45	0.000173671	0.000279546	0.000431679
  46	0.000265465	4.26261e-05	0.000192678
  47	0.000251206	1.89589e-05	-9.8155e-06
  48	-0.000189197	0.000403142	9.79446e-05
  49	-9.24572e-05	0.000587234	0.000457406
  50	-0.000102408	0.000579724	0.000451558
  51	0.000272233	0.000713977	0.000605459
  52	2.61479e-05	0.0004437	0.000375092
  53	-0.000248663	0.000543588	0.000447044
  54	-5.70307e-05	0.000703854	0.000491941
  55	-0.000400154	0.000846094	0.000498608
  56	-5.40512e-05	0.000396757	0.000542605
  57	2.18429e-05	-0.000503209	0.000244804
  58	-0.000122097	-0.000245864	-2.48737e-05
  59	0.00017124	-0.000713755	0.000108032
  60	-0.000112343	9.12346e-05	0.000179973
  61	-0.000116757	-0.000422107	-0.000177627
  62	-0.00019907	-0.000134567	-0.000255526
  63	-1.30716e-05	-0.000484116	0.00040441
  64	0.000105618	-0.000109357	0.000346276
  65	-2.11764e-05	-0.000520222	0.000453032
  66	5.69962e-05	-0.000533223	6.01563e-05
  67	-0.000100971	-0.000576274	0.000546359
  68	2.87409e-05	-0.00056148	0.00045349
  69	-0.000135563	-0.000156763	-0.000216493
  70	0.000390255	-0.000806628	-0.000200178
  71	-0.000160923	-0.000762562	0.000486116
  72	0.000218065	-0.000777742	0.000676366
  73	6.78181e-05	-0.000299467	0.000158092
  74	0.000148433	-0.000389629	0.000402083
  75	3.58312e-05	-0.000491057	8.02255e-05
  76	4.13138e-06	-0.000303605	0.000620578
  77	0.000229344	-0.000392824	0.000389458
  78	0.000280347	-0.000367895	0.0003928
  79	6.94317e-05	-0.000219947	0.000341455
  80	-0.000231593	-0.000263927	0.000912235
  81	0.000129873	-0.000184261	-0.000313302
  82	0.000186719	-0.000252034	-0.000160848
  83	0.000340894	-0.000321304	-0.000367541
  84	-3.46758e-05	-0.000153919	-5.65102e-05
  85	0.000306208	-0.000306039	-0.000371912
  86	0.000185129	-0.00046963	5.39443e-05
  87	0.000193555	-3.90469e-05	-0.000473632
  88	-8.58776e-06	1.13304e-05	-0.000122833
  89	-0.00047697	0.000307796	-0.000157193
  90	-5.37198e-05	-0.000115928	-0.000130815
  91	-0.00104008	0.000633863	0.000440355
  92	6.39769e-05	-9.7253e-05	-0.000140017
  93	-8.99812e-05	-0.000407611	0.00023105
  94	0.000291645	-0.000124134	-0.000292242
  95	-0.000761748	0.000653324	-0.000935236
  96	-0.000186476	2.41109e-05	-0.000176677
  97	-1.48106e-05	3.02799e-05	-0.000255778
  98	-0.000189338	9.16466e-05	-0.000231817
  99	9.99912e-05	2.17862e-05	-0.000174233
 100	1.58872e-05	-0.00012608	-7.20027e-05
 101	-0.000448118	0.000121874	5.53272e-05
 102	-0.000308529	0.000299325	-0.000452361
 103	-5.31817e-05	4.32215e-05	-0.000354261
 104	0.000308487	-0.000355086	0.000498281
 105	0.00010358	-0.000177973	-0.000373306
 106	0.000151329	-9.68409e-05	-0.000364388
 107	3.13128e-05	-0.000235691	-0.000418464
 108	0.000101345	-2.63235e-05	-0.000376681
 109	0.000182533	-8.08643e-05	-0.000322833
 110	0.00017974	-0.000144234	-0.000334626
 111	0.000210182	-0.00017043	-0.000421609
 112	0.000126919	-4.99234e-05	-0.000413068
 113	-2.22438e-05	-8.48494e-05	-0.000190083
 114	1.79017e-05	-0.000149914	-0.000265277
 115	-2.49865e-05	-0.000135678	-0.000277357
 116	5.52947e-05	-8.57611e-05	-0.000251078
 117	9.63996e-05	-0.000174025	-0.00029989
 118	-5.24852e-05	-0.000196335	-0.000319708
 119	-0.000146404	-2.85468e-05	-0.000154038
 120	0.00017161	-3.03564e-05	-0.000170335
 121	0.000211812	-0.000181585	3.77037e-05
 122	0.000184005	-0.000126707	-4.04461e-05
 123	0.00018114	-0.000177888	7.21043e-05
 124	8.19048e-05	-8.44083e-05	-3.26733e-05
 125	0.000161748	-0.0001108	-6.22261e-05
 126	0.000224414	-0.000125256	-8.41731e-05
 127	0.000230871	-0.000190211	8.01721e-06
 128	4.91007e-05	-7.33058e-05	3.07049e-05
 129	-0.000299623	-0.000289396	0.000294115
 130	0.000194977	-0.000208629	6.69235e-05
 131	-0.000263139	-0.000294805	0.000266924
 132	0.000176136	-0.000215824	5.64169e-05
 133	0.000409841	4.41055e-05	0.000199923
 134	0.000311753	-0.000394377	-0.000230782
 135	-0.000548515	-0.000616105	0.000119594
 136	0.000141018	-0.00029062	1.34724e-05
 137	-0.000787216	0.000884766	0.000694248
 138	-0.000322003	0.000432504	0.000945957
 139	-0.00127019	0.000741616	0.000825052
 140	-0.000560985	1.3521e-05	0.000751998
 141	-0.000144586	8.59456e-05	0.000987609
 142	2.90248e-05	0.000704352	0.00119166
 143	-0.000817319	0.0012377	0.000447879
 144	-0.0006575	-1.45089e-05	0.000774771
 145	-9.1301e-05	0.000597281	0.000435031
 146	-0.000270935	0.000866699	0.000458252
 147	-1.58123e-05	0.000588856	0.000162885
 148	-0.000497391	0.000962827	0.000584638
 149	-0.000201779	0.000977734	0.000612932
 150	-0.000362787	0.000759529	0.000330062
 151	-0.000186327	0.000608024	0.000675995
 152	-0.000372185	0.00107412	0.00077217
 153	-0.000377162	-0.000654155	9.80796e-05
 154	6.24184e-05	-0.00110734	0.000494664
 155	-0.00079138	-0.000386181	-0.000174216
 156	-3.37362e-05	0.000194402	0.000416838
 157	0.000950161	-0.00154391	0.00124156
 158	-0.00056883	-0.0020189	5.52068e-05
 159	-0.000786223	-0.000991991	0.000202333
 160	-0.000341425	0.000398725	-0.000282069
 161	0.000660637	-5.37569e-05	-6.25923e-06
 162	0.000595299	-3.39812e-05	-0.000425272
 163	0.00095705	-0.000100824	0.000484609
 164	0.000100823	-8.6916e-05	-0.000139196
 165	0.000377966	-0.000149838	-0.000845243
 166	0.000990013	6.68966e-05	-0.000580138
 167	0.000148933	-0.000357506	6.90962e-05
 168	0.000264698	-0.00013712	-0.000203602
 169	-0.000130034	-0.000154908	-0.000104655
 170	0.000405782	-0.00032905	-0.000105038
 171	-0.000252123	-0.000213512	-0.000582757
 172	0.000749545	0.000213878	-0.000329657
 173	0.000748345	-0.000731091	-5.7812e-05
 174	7.11459e-05	-0.000492596	-4.97137e-05
 175	-7.208e-06	-0.00012955	0.000165544
 176	0.00123672	0.000484628	-0.000394212
 177	-0.000691975	0.000316498	0.000114167
 178	-0.00102693	0.000218963	0.000170612
 179	9.59292e-06	0.000180457	-0.000332476
 180	-0.000694617	7.46788e-05	0.000150082
 181	-0.00120726	7.6829e-06	0.000176566
 182	-0.00117542	0.00043967	0.000111783
 183	-0.00115788	-6.62254e-05	-0.000141721
 184	-0.000861199	0.00010251	-0.000104767
 185	0.000717923	0.000377955	0.00107239
 186	0.000210494	0.000571132	0.000472753
 187	0.000952691	-0.000301144	0.00155947
 188	-0.000463733	0.000964357	0.000882323
 189	0.000628136	0.00033958	0.000275816
 190	-2.53059e-05	0.000558807	-0.000125563
 191	0.00129631	0.00102893	0.00128246
 192	-0.00128575	0.00132402	0.00121409
 193	-0.000641783	-0.000143197	-2.17047e-05
 194	-0.000172296	7.8371e-07	0.000303619
 195	-0.000910311	-0.000120437	0.000543685
 196	0.000183268	0.00021941	0.000699605
 197	-0.00047246	5.96207e-05	0.000550649
 198	0.000115594	-9.93975e-05	-3.57312e-05
 199	-0.00119225	-0.000346092	-0.000398114
 200	0.000242522	-5.6436e-05	0.000448318
 201	-0.000170944	0.000200177	-0.00075277
 202	-0.000406248	-0.000124449	-0.00104712
 203	7.13387e-05	0.00087701	-0.000259476
 204	-0.000105679	-0.000111636	-0.000586677
 205	-0.000568269	-0.000739294	-0.00115697
 206	-0.000635973	0.000200652	-0.00149865
 207	-0.00088889	0.000324052	-0.00104967
 208	6.17892e-05	-0.000110553	-0.000934411
 209	0.000796403	-0.000105154	-0.000729509
 210	0.00095997	-0.000573603	-0.000547908
 211	0.000831933	0.000216517	-0.00055612
 212	0.000569536	-0.000422583	-0.000808557
 213	0.00147579	-0.000538359	-0.000304784
 214	0.000747711	-0.00106628	-0.00041657
 215	0.000851923	-0.000150577	-0.000716304
 216	0.000853199	-0.000464226	-0.000513811
 217	-0.000972719	0.000106351	-0.000895063
 218	-0.00109677	7.33641e-05	-0.000576313
 219	-0.0010386	0.000136319	-0.00203769
 220	0.000377063	-8.86708e-05	-0.000986033
 221	-0.00123729	0.000124164	0.000772196
 222	-0.0021318	0.000101421	-0.00116224
 223	-0.00189917	5.98102e-06	-0.000399361
 224	0.0010216	-7.86824e-06	-0.00040233
 225	0.00047375	0.000419293	-0.000308506
 226	0.000874053	0.000456657	-3.67454e-05
 227	0.000503507	0.000143421	-0.000887254
 228	0.000325673	0.000287321	-0.000316092
 229	0.00148308	0.000207886	-8.1322e-05
 230	0.000858605	0.000935413	0.000466019
 231	-0.000125187	0.000662495	-0.00026186
 232	0.000765434	0.000698617	-0.000769633
 233	0.000611336	0.000489209	0.000292886
 234	0.00197009	8.53982e-05	0.000121788
 235	-0.000299246	0.000298821	0.00126696
 236	0.000625615	0.000507919	6.06058e-05
 237	0.00306695	0.000140686	-0.00122644
 238	0.00282681	-0.000572371	0.00151227
 239	0.00010061	0.0014245	-0.000615323
 240	0.000240434	0.000774961	0.00118055
 241	-0.000933561	0.000458368	0.00112968
 242	0.000638594	0.000156291	0.00102736
 243	-0.00165492	0.000723461	0.00161169
 244	0.000914749	1.02695e-05	0.000609027
 245	0.00109603	-0.000141121	0.000398973
 246	0.001162	0.000458718	0.00197775
 247	-0.00134217	0.000436062	-9.25727e-05
 248	0.00118051	-0.000230244	0.000221726
 249	0.00049014	-0.000784001	-0.000752133
 250	9.94035e-05	-0.000576005	0.000127611
 251	0.0010399	-0.000236424	-0.00085776
 252	-0.00117931	0.00061878	0.00179414
 253	0.000235154	0.000147616	-0.00114337
 254	0.000568991	-0.00216131	0.000633555
 255	0.000352535	-0.00104782	-0.00096483
 256	-0.00279258	0.00176289	0.0014539
 257	-4.91593e-05	-0.000695991	-0.000374637
 258	0.000254646	-0.000960247	-0.000633281
 259	-0.000289195	-0.000309663	-0.000686153
 260	0.000306179	-0.0011778	-0.00135335
 261	0.000798569	-0.0012006	-0.000286986
 262	-7.2937e-05	-0.000675411	-0.000418677
 263	-0.000161563	-0.000640641	9.89171e-05
 264	0.000738542	-0.00128577	-0.00201194
 265	0.000226957	-0.000969588	-0.000340564
 266	0.000198542	-0.00104693	-0.000105366
 267	0.000768455	-0.000839767	-0.000953434
 268	8.78693e-05	-0.00083363	-0.000366956
 269	0.000452409	-0.00113834	-8.52485e-05
 270	0.000130435	-0.00106335	0.000107013
 271	0.000486605	-0.00131774	0.000158304
 272	-9.26786e-05	-0.000636165	-0.000223967
 273	-0.00109266	-1.69287e-05	0.000646287
 274	-0.00209045	0.000426702	0.00119737
 275	-0.00110426	-0.000784136	0.000608286
 276	-0.000771394	-0.000460948	-0.000552042
 277	-0.00136519	0.00137366	0.00329914
 278	-0.00451491	0.000537637	0.00102833
 279	-0.000875372	0.000334853	0.000680646
 280	7.27902e-05	-0.000939578	-0.000678635
 281	-0.00128946	-0.000235822	0.000797147
 282	0.000942438	0.00014537	0.00081265
 283	-0.00239898	-0.00043398	0.000880057
 284	-0.000558976	9.56004e-05	0.000596723
 285	0.0023152	0.000926412	-0.000819269
 286	0.00220665	-0.000449193	0.00264746
 287	-0.0017409	0.000784579	0.00175038
 288	-0.0012378	-0.000819073	0.00107807
 289	0.00168577	0.000883033	-0.000549898
 290	-0.000588258	-0.000627163	0.000712268
 291	0.00266086	-0.000262299	-0.00234331
 292	-0.00162267	-0.00189298	-0.000496829
 293	-0.00159311	-0.00165843	0.000301463
 294	-0.000713319	-5.94076e-05	0.00299786
 295	0.00273002	0.00264222	-0.000255436
 296	0.000278016	-0.00456009	-0.0018529
 297	0.00046223	0.00104683	0.000147277
 298	0.000519952	0.00179446	0.000601238
 299	0.000270493	0.000881121	-0.000237407
 300	0.00111711	0.00112506	0.000253134
 301	-0.000223642	0.00190324	0.000642332
 302	0.000966039	0.00230964	0.000917685
 303	0.000334131	0.0010907	3.96103e-05
 304	0.00142664	0.00145627	-5.24127e-05
 305	0.00185691	-9.37999e-05	-0.000322543
 306	0.00152367	-6.16219e-05	-0.000335065
 307	0.00154424	0.00104585	0.000433097
 308	0.00109793	0.000510405	0.000427278
 309	0.0018991	-0.000171069	-0.000270981
 310	0.00119815	-3.53728e-05	-0.000870643
 311	0.00327004	-0.000675811	-0.000334624
 312	0.00140015	0.000207649	0.000946112
 313	-0.00026972	0.000496917	-0.0015093
 314	-6.66008e-05	-0.00110011	-0.00153355
 315	-0.000690113	0.000765949	-0.00158661
 316	0.000357364	-0.00114626	-0.00137976
 317	0.000411343	-0.00140701	-0.00136169
 318	-0.00110577	-0.00142474	-0.00160523
 319	0.000790563	0.000730346	-0.00189396
 320	-0.000952599	-0.000831932	-0.00138729
 321	-0.000874183	8.58534e-05	-0.000325475
 322	-0.00233666	-0.000445058	0.00173335
 323	-0.000952051	-0.000337454	-0.000559648
 324	-0.000534728	0.00100457	-0.00193154
 325	-0.00559941	0.00170511	0.00422181
 326	-0.00158505	-0.00439793	0.00384019
 327	-0.000797744	-0.000678309	-0.00155669
 328	-0.002303	0.00397182	-0.00332734
 329	-0.00232192	-0.00655137	-0.00575345
 330	-9.54695e-05	0.00138386	-0.000616802

Bonds

   1	4	1	2
   2	5	1	3
   3	5	1	7
   4	2	2	4
   5	1	2	5
   6	1	2	6
   7	3	4	8
   8	4	9	10
   9	5	9	11
  10	5	9	15
  11	2	10	12
  12	1	10	13
  13	1	10	14
  14	3	12	16
  15	2	1	12
  16	4	17	18
  17	5	17	19
  18	5	17	23
  19	2	18	20
  20	1	18	21
  21	1	18	22
  22	3	20	24
  23	2	9	20
  24	4	25	26
  25	5	25	27
  26	5	25	31
  27	2	26	28
  28	1	26	29
  29	1	26	30
  30	3	28	32
  31	2	17	28
  32	4	33	34
  33	5	33	35
  34	5	33	39
  35	2	34	36
  36	1	34	37
  37	1	34	38
  38	3	36	40
  39	2	25	36
  40	4	41	42
  41	5	41	43
  42	5	41	47
  43	2	42	44
  44	1	42	45
  45	1	42	46
  46	3	44	48
  47	2	33	44
  48	4	49	50
  49	5	49	51