pySIMM System Object

362 atoms
361 bonds
675 angles
939 dihedrals
0 impropers

5 atom types
5 bond types
10 angle types
3 dihedral types

-92.325929 92.325929 xlo xhi
-92.325929 92.325929 ylo yhi
-92.325929 92.325929 zlo zhi

Masses

   1	12.01	# c3
   2	1.008	# hc
   3	14.01	# n3
   4	1.008	# h1
   5	1.008	# hn

Pair Coeffs

   1	0.1094	3.3996695084235347	# c3
   2	0.0157	2.649532787749369	# hc
   3	0.17	3.249998523775958	# n3
   4	0.0157	2.471353044121301	# h1
   5	0.0157	1.069078461768407	# hn

Bond Coeffs

   1	330.6	1.0969	# c3,h1
   2	325.9	1.4647	# c3,n3
   3	392.4	1.019	# hn,n3
   4	300.9	1.5375	# c3,c3
   5	330.6	1.0969	# c3,hc

Angle Coeffs

   1	49.53	109.88	# h1,c3,n3
   2	66.02	111.04	# c3,c3,n3
   3	41.4	106.4	# hn,n3,hn
   4	46.34	109.8	# c3,c3,hc
   5	47.42	109.29	# c3,n3,hn
   6	46.39	109.56	# c3,c3,h1
   7	39.4	107.58	# hc,c3,hc
   8	39.24	108.46	# h1,c3,h1
   9	49.55	109.8	# hc,c3,n3
  10	63.82	112.35	# c3,n3,c3

Dihedral Coeffs

   1	1	0.15555555555555556	3	0	# X,c3,c3,X
   2	1	0.3	3	0	# X,c3,n3,X
   3	2	0.3	3	0	0.48	2	180	# c3,c3,n3,c3

Atoms

   1	1	1	-0.185789	13.0384	-5.20408	17.1275
   2	1	1	0.725698	14.375	-5.72915	16.536
   3	1	2	0.009194	13.2617	-4.31995	17.738
   4	1	3	-0.517699	14.1679	-6.88921	15.6763
   5	1	4	-0.226077	14.842	-4.94283	15.9367
   6	1	4	-0.130348	15.0664	-6.00466	17.3404
   7	1	2	0.087114	12.4158	-4.84951	16.2967
   8	1	5	0.237906	15.0595	-7.09159	15.2332
   9	1	1	-0.185789	11.9805	-7.57719	19.9778
  10	1	1	0.725698	12.9536	-6.76073	19.094
  11	1	2	0.009194	12.5242	-7.92326	20.866
  12	1	3	-0.517699	12.2513	-6.1633	17.9532
  13	1	4	-0.226077	13.4107	-5.96796	19.6942
  14	1	4	-0.130348	13.7496	-7.41806	18.7215
  15	1	2	0.087114	11.1985	-6.89246	20.3334
  16	1	5	0.237906	11.9036	-6.93416	17.3851
  17	1	1	-0.185789	9.86905	-10.7251	19.3558
  18	1	1	0.725698	10.3896	-9.48435	20.1208
  19	1	2	0.009194	9.13342	-11.2441	19.9829
  20	1	3	-0.517699	11.3579	-8.74706	19.3026
  21	1	4	-0.226077	9.55058	-8.82823	20.3761
  22	1	4	-0.130348	10.8745	-9.81374	21.0474
  23	1	2	0.087114	9.33437	-10.3715	18.4643
  24	1	5	0.237906	12.0722	-9.42979	19.0458
  25	1	1	-0.185789	11.6939	-13.6625	17.6337
  26	1	1	0.725698	10.4932	-12.8537	18.2031
  27	1	2	0.009194	12.3075	-13.0011	17.0105
  28	1	3	-0.517699	10.9396	-11.6781	18.9585
  29	1	4	-0.226077	9.87627	-12.5176	17.3637
  30	1	4	-0.130348	9.88146	-13.4943	18.848
  31	1	2	0.087114	11.2727	-14.4075	16.9476
  32	1	5	0.237906	11.4151	-12.0381	19.7848
  33	1	1	-0.185789	14.3383	-14.3861	20.3425
  34	1	1	0.725698	13.2594	-13.551	19.6174
  35	1	2	0.009194	14.756	-13.7775	21.1537
  36	1	3	-0.517699	12.5742	-14.3692	18.61
  37	1	4	-0.226077	12.5247	-13.1767	20.3398
  38	1	4	-0.130348	13.7403	-12.694	19.1383
  39	1	2	0.087114	13.8439	-15.2479	20.8096
  40	1	5	0.237906	13.316	-14.8544	18.1068
  41	1	1	-0.185789	17.3278	-15.0555	21.0734
  42	1	1	0.725698	16.434	-15.7505	20.0129
  43	1	2	0.009194	18.052	-15.794	21.4408
  44	1	3	-0.517699	15.4326	-14.8424	19.4394
  45	1	4	-0.226077	17.0732	-16.0995	19.1954
  46	1	4	-0.130348	15.9351	-16.6193	20.4568
  47	1	2	0.087114	16.7056	-14.7819	21.9344
  48	1	5	0.237906	15.9548	-14.0428	19.083
  49	1	1	-0.185789	19.7632	-12.0713	20.9422
  50	1	1	0.725698	18.9565	-13.2423	21.5598
  51	1	2	0.009194	19.088	-11.223	20.7729
  52	1	3	-0.517699	18.0645	-13.8623	20.5731
  53	1	4	-0.226077	19.6585	-14.0024	21.9179
  54	1	4	-0.130348	18.3745	-12.8795	22.415
  55	1	2	0.087114	20.4941	-11.7508	21.6953
  56	1	5	0.237906	18.6708	-14.1361	19.8015
  57	1	1	-0.185789	20.8363	-10.0731	18.7929
  58	1	1	0.725698	21.4474	-11.4581	19.1576
  59	1	2	0.009194	21.5969	-9.49701	18.2511
  60	1	3	-0.517699	20.4592	-12.4168	19.6704
  61	1	4	-0.226077	21.8937	-11.8886	18.2558
  62	1	4	-0.130348	22.2449	-11.3181	19.8962
  63	1	2	0.087114	20.6499	-9.52855	19.7266
  64	1	5	0.237906	19.7737	-12.5276	18.9232
  65	1	1	-0.185789	18.1763	-10.92	16.0984
  66	1	1	0.725698	19.5696	-10.9426	16.7887
  67	1	2	0.009194	18.3051	-11.3122	15.0821
  68	1	3	-0.517699	19.5829	-10.0931	17.9878
  69	1	4	-0.226077	19.8247	-11.9714	17.0627
  70	1	4	-0.130348	20.3218	-10.5647	16.0878
  71	1	2	0.087114	17.8607	-9.87669	15.9748
  72	1	5	0.237906	19.3409	-9.14885	17.6998
  73	1	1	-0.185789	16.1623	-9.98027	18.3183
  74	1	1	0.725698	16.7261	-11.4226	18.1441
  75	1	2	0.009194	15.8068	-9.8669	19.3504
  76	1	3	-0.517699	17.0934	-11.7198	16.749
  77	1	4	-0.226077	17.5914	-11.5702	18.7926
  78	1	4	-0.130348	15.9637	-12.1453	18.4548
  79	1	2	0.087114	16.9897	-9.27137	18.2084
  80	1	5	0.237906	16.2357	-11.6363	16.2066
  81	1	1	-0.185789	12.8185	-10.0386	16.4018
  82	1	1	0.725698	13.8495	-10.4118	17.4901
  83	1	2	0.009194	11.9039	-10.5988	16.616
  84	1	3	-0.517699	15.0684	-9.60364	17.3782
  85	1	4	-0.226077	13.415	-10.2363	18.4805
  86	1	4	-0.130348	14.1061	-11.4707	17.3907
  87	1	2	0.087114	12.5583	-8.97811	16.5008
  88	1	5	0.237906	14.785	-8.63859	17.5377
  89	1	1	-0.185789	11.053	-11.0274	14.0474
  90	1	1	0.725698	12.3078	-10.1184	13.9329
  91	1	2	0.009194	10.4609	-10.726	14.9202
  92	1	3	-0.517699	13.2771	-10.3351	15.0166
  93	1	4	-0.226077	12.008	-9.06517	13.925
  94	1	4	-0.130348	12.8167	-10.3283	12.9853
  95	1	2	0.087114	11.3952	-12.0543	14.2313
  96	1	5	0.237906	14.0818	-9.75086	14.7989
  97	1	1	-0.185789	8.19578	-11.8384	11.6134
  98	1	1	0.725698	8.98591	-11.8617	12.945
  99	1	2	0.009194	7.84976	-10.8137	11.4248
 100	1	3	-0.517699	10.1734	-11.0029	12.8502
 101	1	4	-0.226077	8.34307	-11.4869	13.7478
 102	1	4	-0.130348	9.2839	-12.8899	13.1811
 103	1	2	0.087114	7.2996	-12.4588	11.7398
 104	1	5	0.237906	9.82982	-10.0584	12.6913
 105	1	1	-0.185789	9.32179	-12.6101	8.0292
 106	1	1	0.725698	8.31366	-12.2568	9.14958
 107	1	2	0.009194	9.67974	-13.6366	8.18311
 108	1	3	-0.517699	8.98518	-12.3178	10.4491
 109	1	4	-0.226077	7.9484	-11.2372	8.98195
 110	1	4	-0.130348	7.4631	-12.9475	9.12984
 111	1	2	0.087114	8.78471	-12.6011	7.07195
 112	1	5	0.237906	9.83175	-11.7589	10.3508
 113	1	1	-0.185789	12.6681	-10.9838	7.03694
 114	1	1	0.725698	11.496	-12.0021	6.96151
 115	1	2	0.009194	13.3597	-11.1986	6.21253
 116	1	3	-0.517699	10.4824	-11.6805	7.96931
 117	1	4	-0.226077	11.032	-11.9537	5.97137
 118	1	4	-0.130348	11.8803	-13.0154	7.12166
 119	1	2	0.087114	13.2273	-11.1757	7.96128
 120	1	5	0.237906	10.1521	-10.7448	7.73953
 121	1	1	-0.185789	11.2273	-7.61493	5.83845
 122	1	1	0.725698	11.4156	-9.15635	5.87199
 123	1	2	0.009194	10.8736	-7.27716	6.82099
 124	1	3	-0.517699	12.2912	-9.54042	6.98443
 125	1	4	-0.226077	10.4456	-9.63852	6.03391
 126	1	4	-0.130348	11.8507	-9.50484	4.92943
 127	1	2	0.087114	12.2146	-7.15906	5.68845
 128	1	5	0.237906	11.8019	-9.27475	7.83625
 129	1	1	-0.185789	9.50395	-6.97377	2.43899
 130	1	1	0.725698	10.5706	-7.52527	3.42152
 131	1	2	0.009194	9.75547	-7.32789	1.43124
 132	1	3	-0.517699	10.2799	-7.11595	4.80319
 133	1	4	-0.226077	10.5888	-8.61667	3.35919
 134	1	4	-0.130348	11.5569	-7.14376	3.13557
 135	1	2	0.087114	9.59305	-5.88114	2.40799
 136	1	5	0.237906	10.2474	-6.09978	4.82154
 137	1	1	-0.185789	6.29288	-9.03032	2.91369
 138	1	1	0.725698	7.82081	-8.7783	2.90953
 139	1	2	0.009194	5.82761	-8.42093	3.69963
 140	1	3	-0.517699	8.09054	-7.3431	2.73427
 141	1	4	-0.226077	8.24201	-9.10067	3.86589
 142	1	4	-0.130348	8.28751	-9.3535	2.10162
 143	1	2	0.087114	6.12267	-10.0808	3.18147
 144	1	5	0.237906	7.78804	-6.90588	3.60223
 145	1	1	-0.185789	3.73733	-8.77382	0.0604082
 146	1	1	0.725698	4.19889	-8.85911	1.53822
 147	1	2	0.009194	4.07424	-9.68516	-0.451096
 148	1	3	-0.517699	5.65839	-8.73547	1.6032
 149	1	4	-0.226077	3.75082	-8.04677	2.11958
 150	1	4	-0.130348	3.8817	-9.81842	1.96308
 151	1	2	0.087114	2.64007	-8.79009	0.0405818
 152	1	5	0.237906	5.86889	-7.77639	1.33454
 153	1	1	-0.185789	4.57678	-6.34858	-2.80195
 154	1	1	0.725698	3.99385	-7.61893	-2.12752
 155	1	2	0.009194	5.6319	-6.24941	-2.51661
 156	1	3	-0.517699	4.24173	-7.58527	-0.682182
 157	1	4	-0.226077	2.9213	-7.69972	-2.32689
 158	1	4	-0.130348	4.49211	-8.49827	-2.55052
 159	1	2	0.087114	4.57042	-6.51141	-3.88717
 160	1	5	0.237906	5.25352	-7.53437	-0.585445
 161	1	1	-0.185789	1.94874	-3.53568	-2.82214
 162	1	1	0.725698	2.49276	-4.97825	-2.97824
 163	1	2	0.009194	2.67074	-2.83492	-3.26159
 164	1	3	-0.517699	3.87457	-5.0725	-2.49057
 165	1	4	-0.226077	1.86644	-5.6717	-2.41012
 166	1	4	-0.130348	2.46329	-5.25888	-4.03827
 167	1	2	0.087114	1.8882	-3.30438	-1.75095
 168	1	5	0.237906	3.84381	-4.92767	-1.48327
 169	1	1	-0.185789	-1.27182	-1.8899	-4.117
 170	1	1	0.725698	0.0937788	-1.96207	-3.39056
 171	1	2	0.009194	-1.69361	-0.885784	-3.98157
 172	1	3	-0.517699	0.623624	-3.32653	-3.4634
 173	1	4	-0.226077	0.796782	-1.27622	-3.87624
 174	1	4	-0.130348	-0.0279907	-1.66644	-2.34213
 175	1	2	0.087114	-1.95104	-2.58569	-3.60621
 176	1	5	0.237906	0.672193	-3.54676	-4.45662
 177	1	1	-0.185789	-2.42129	-2.77359	-7.68654
 178	1	1	0.725698	-2.53619	-2.32002	-6.20853
 179	1	2	0.009194	-3.42438	-3.08934	-8.00098
 180	1	3	-0.517699	-1.21916	-2.20586	-5.57301
 181	1	4	-0.226077	-3.04495	-1.35254	-6.14927
 182	1	4	-0.130348	-3.12975	-3.06086	-5.66053
 183	1	2	0.087114	-1.78988	-3.67036	-7.73397
 184	1	5	0.237906	-0.720832	-1.46941	-6.06784
 185	1	1	-0.185789	-1.80271	-0.927844	-11.0171
 186	1	1	0.725698	-2.07475	-2.11683	-10.0591
 187	1	2	0.009194	-0.733542	-0.680427	-11.0078
 188	1	3	-0.517699	-1.93578	-1.7399	-8.64406
 189	1	4	-0.226077	-3.0898	-2.48607	-10.2377
 190	1	4	-0.130348	-1.37427	-2.92964	-10.2836
 191	1	2	0.087114	-2.03743	-1.28088	-12.0299
 192	1	5	0.237906	-0.960345	-1.50708	-8.47974
 193	1	1	-0.185789	-3.34766	2.58766	-11.2764
 194	1	1	0.725698	-2.69689	1.28084	-11.7947
 195	1	2	0.009194	-4.17629	2.34071	-10.5996
 196	1	3	-0.517699	-2.59428	0.295694	-10.7157
 197	1	4	-0.226077	-3.30788	0.862667	-12.6016
 198	1	4	-0.130348	-1.70279	1.5082	-12.1981
 199	1	2	0.087114	-3.79327	3.09963	-12.1384
 200	1	5	0.237906	-2.22384	0.769838	-9.89434
 201	1	1	-0.185789	-1.88225	5.78574	-9.82965
 202	1	1	0.725698	-2.97893	4.70517	-10.0062
 203	1	2	0.009194	-2.32596	6.65545	-9.32842
 204	1	3	-0.517699	-2.38771	3.50132	-10.5988
 205	1	4	-0.226077	-3.43707	4.46178	-9.04299
 206	1	4	-0.130348	-3.74721	5.10532	-10.6774
 207	1	2	0.087114	-1.106	5.39236	-9.16109
 208	1	5	0.237906	-1.6982	3.83447	-11.2707
 209	1	1	-0.185789	0.231699	7.61452	-12.4824
 210	1	1	0.725698	-0.292108	7.293	-11.0564
 211	1	2	0.009194	0.939574	6.82963	-12.7789
 212	1	3	-0.517699	-1.28488	6.21261	-11.1243
 213	1	4	-0.226077	0.540517	6.99856	-10.4101
 214	1	4	-0.130348	-0.768791	8.18589	-10.637
 215	1	2	0.087114	0.802768	8.55043	-12.4305
 216	1	5	0.237906	-2.0187	6.57436	-11.7284
 217	1	1	-0.185789	-1.60152	8.01525	-15.8451
 218	1	1	0.725698	-0.385996	8.01975	-14.8795
 219	1	2	0.009194	-2.22931	8.88864	-15.6256
 220	1	3	-0.517699	-0.836421	7.71287	-13.5168
 221	1	4	-0.226077	0.327053	7.25108	-15.1925
 222	1	4	-0.130348	0.109772	8.99665	-14.9043
 223	1	2	0.087114	-1.21917	8.14822	-16.8657
 224	1	5	0.237906	-1.28123	6.8027	-13.6026
 225	1	1	-0.185789	-4.35558	5.39781	-16.4721
 226	1	1	0.725698	-3.60123	6.74187	-16.66
 227	1	2	0.009194	-3.74357	4.5856	-16.8852
 228	1	3	-0.517699	-2.43437	6.78174	-15.7718
 229	1	4	-0.226077	-3.2859	6.85849	-17.7018
 230	1	4	-0.130348	-4.27234	7.56836	-16.3989
 231	1	2	0.087114	-4.44127	5.1984	-15.3969
 232	1	5	0.237906	-2.80054	6.67689	-14.8298
 233	1	1	-0.185789	-7.32661	5.48791	-18.9215
 234	1	1	0.725698	-5.83072	5.50767	-18.5161
 235	1	2	0.009194	-7.75301	4.51884	-18.6301
 236	1	3	-0.517699	-5.72048	5.33438	-17.0624
 237	1	4	-0.226077	-5.28892	4.7098	-19.0328
 238	1	4	-0.130348	-5.39966	6.47364	-18.804
 239	1	2	0.087114	-7.38955	5.54141	-20.0158
 240	1	5	0.237906	-6.33379	6.03335	-16.6478
 241	1	1	-0.185789	-10.2231	7.70116	-17.712
 242	1	1	0.725698	-9.57746	6.51318	-18.4716
 243	1	2	0.009194	-9.8212	8.63818	-18.1181
 244	1	3	-0.517699	-8.12053	6.58662	-18.304
 245	1	4	-0.226077	-9.9457	5.56761	-18.0615
 246	1	4	-0.130348	-9.82555	6.56674	-19.5376
 247	1	2	0.087114	-9.89102	7.64815	-16.6667
 248	1	5	0.237906	-7.82466	7.48687	-18.6755
 249	1	1	-0.185789	-13.9266	6.99912	-16.9898
 250	1	1	0.725698	-12.4215	6.63993	-17.1507
 251	1	2	0.009194	-13.9966	7.93714	-16.4239
 252	1	3	-0.517699	-11.7096	7.77688	-17.7488
 253	1	4	-0.226077	-11.9915	6.45392	-16.1622
 254	1	4	-0.130348	-12.3036	5.74612	-17.7721
 255	1	2	0.087114	-14.3395	7.20498	-17.9846
 256	1	5	0.237906	-12.0074	8.59518	-17.2241
 257	1	1	-0.185789	-15.3232	4.61816	-14.2775
 258	1	1	0.725698	-14.2647	5.47278	-15.0269
 259	1	2	0.009194	-15.8496	3.96462	-14.9857
 260	1	3	-0.517699	-14.7747	5.98294	-16.3069
 261	1	4	-0.226077	-13.9829	6.31661	-14.387
 262	1	4	-0.130348	-13.3757	4.86094	-15.2141
 263	1	2	0.087114	-14.7713	3.94986	-13.6053
 264	1	5	0.237906	-15.6914	6.38504	-16.1192
 265	1	1	-0.185789	-18.1832	6.95712	-13.1583
 266	1	1	0.725698	-17.2727	6.22273	-14.1734
 267	1	2	0.009194	-17.5569	7.6094	-12.5355
 268	1	3	-0.517699	-16.306	5.38328	-13.457
 269	1	4	-0.226077	-17.8803	5.59571	-14.8344
 270	1	4	-0.130348	-16.7362	6.95804	-14.7837
 271	1	2	0.087114	-18.6276	6.20872	-12.489
 272	1	5	0.237906	-15.8131	5.9919	-12.8065
 273	1	1	-0.185789	-21.2319	9.28064	-13.5982
 274	1	1	0.725698	-20.0538	8.58384	-12.8603
 275	1	2	0.009194	-21.9534	8.51203	-13.9026
 276	1	3	-0.517699	-19.2583	7.76766	-13.7868
 277	1	4	-0.226077	-19.4151	9.33299	-12.3815
 278	1	4	-0.130348	-20.4669	7.94029	-12.075
 279	1	2	0.087114	-21.7503	9.91825	-12.8706
 280	1	5	0.237906	-19.9077	7.16824	-14.2915
 281	1	1	-0.185789	-19.5133	11.8411	-15.9153
 282	1	1	0.725698	-19.936	11.1963	-14.5669
 283	1	2	0.009194	-20.4065	12.1715	-16.462
 284	1	3	-0.517699	-20.8618	10.0799	-14.8009
 285	1	4	-0.226077	-19.0443	10.8342	-14.0488
 286	1	4	-0.130348	-20.4389	11.9347	-13.9332
 287	1	2	0.087114	-19.0494	11.0519	-16.5204
 288	1	5	0.237906	-21.6953	10.4702	-15.2337
 289	1	1	-0.185789	-17.9838	15.2249	-14.8765
 290	1	1	0.725698	-19.101	14.1921	-15.166
 291	1	2	0.009194	-18.4644	16.1383	-14.5034
 292	1	3	-0.517699	-18.5593	12.978	-15.7904
 293	1	4	-0.226077	-19.5898	13.9342	-14.2217
 294	1	4	-0.130348	-19.8491	14.6312	-15.8356
 295	1	2	0.087114	-17.3841	14.828	-14.0499
 296	1	5	0.237906	-18.2339	13.2634	-16.7109
 297	1	1	-0.185789	-14.8701	16.423	-15.2237
 298	1	1	0.725698	-16.235	16.7428	-15.8968
 299	1	2	0.009194	-14.3229	17.3674	-15.1045
 300	1	3	-0.517699	-17.1122	15.5666	-16.0403
 301	1	4	-0.226077	-16.7553	17.5214	-15.3287
 302	1	4	-0.130348	-16.0266	17.1367	-16.8972
 303	1	2	0.087114	-14.2803	15.8094	-15.9166
 304	1	5	0.237906	-16.524	14.776	-16.2956
 305	1	1	-0.185789	-13.9678	14.6929	-11.924
 306	1	1	0.725698	-13.6904	15.4934	-13.2199
 307	1	2	0.009194	-13.005	14.4212	-11.4723
 308	1	3	-0.517699	-14.9599	15.7513	-13.9024
 309	1	4	-0.226077	-13.212	16.4481	-12.9808
 310	1	4	-0.130348	-13.0273	14.9148	-13.8738
 311	1	2	0.087114	-14.449	13.7492	-12.2152
 312	1	5	0.237906	-15.5089	16.3237	-13.2666
 313	1	1	-0.185789	-15.8528	15.356	-8.62014
 314	1	1	0.725698	-15.1223	14.5683	-9.73906
 315	1	2	0.009194	-15.2822	16.2615	-8.37493
 316	1	3	-0.517699	-14.8009	15.3976	-10.9052
 317	1	4	-0.226077	-14.1953	14.1518	-9.32938
 318	1	4	-0.130348	-15.7594	13.7387	-10.0673
 319	1	2	0.087114	-16.8323	15.6794	-8.99607
 320	1	5	0.237906	-15.6872	15.6898	-11.3081
 321	1	1	-0.185789	-16.8014	14.0024	-5.14646
 322	1	1	0.725698	-16.8132	15.059	-6.28847
 323	1	2	0.009194	-15.79	13.9527	-4.72167
 324	1	3	-0.517699	-16.0108	14.5277	-7.39661
 325	1	4	-0.226077	-17.8352	15.2389	-6.63693
 326	1	4	-0.130348	-16.3822	16.0017	-5.93135
 327	1	2	0.087114	-16.9911	13.023	-5.6042
 328	1	5	0.237906	-15.0938	14.2966	-7.02081
 329	1	1	-0.185789	-17.4856	15.0482	-1.75169
 330	1	1	0.725698	-17.6779	15.4121	-3.24655
 331	1	2	0.009194	-18.396	14.5668	-1.37044
 332	1	3	-0.517699	-17.787	14.1878	-4.04508
 333	1	4	-0.226077	-18.583	16.0132	-3.36733
 334	1	4	-0.130348	-16.8159	16.0043	-3.57511
 335	1	2	0.087114	-17.3821	15.9878	-1.19553
 336	1	5	0.237906	-17.7079	13.4205	-3.37819
 337	1	1	-0.185789	-14.6765	15.7006	-0.484696
 338	1	1	0.725698	-15.5024	14.3918	-0.323919
 339	1	2	0.009194	-14.633	15.9815	-1.54594
 340	1	3	-0.517699	-16.3285	14.1377	-1.51054
 341	1	4	-0.226077	-14.8066	13.5497	-0.242917
 342	1	4	-0.130348	-16.1166	14.4317	0.582594
 343	1	2	0.087114	-15.2038	16.5111	0.035404
 344	1	5	0.237906	-15.6842	14.1647	-2.29782
 345	1	1	-0.185789	-10.9721	16.3872	0.135426
 346	1	1	0.725698	-12.4535	16.7815	-0.0847104
 347	1	2	0.009194	-10.3721	17.3013	0.224298
 348	1	3	-0.517699	-13.284	15.5789	0.0164056
 349	1	4	-0.226077	-12.7702	17.511	0.667411
 350	1	4	-0.130348	-12.5582	17.2283	-1.08073
 351	1	2	0.087114	-10.9045	15.865	1.09976
 352	1	5	0.237906	-12.7944	14.858	-0.512687
 353	1	1	-0.185789	-7.98735	15.8525	-0.473803
 354	1	1	0.725698	-9.13731	14.8652	-0.729813
 355	1	2	0.009194	-7.03522	15.313	-0.398017
 356	1	3	-0.517699	-10.4258	15.5334	-0.959492
 357	1	4	-0.226077	-8.90532	14.2826	-1.62605
 358	1	4	-0.130348	-9.2262	14.1776	0.11819
 359	1	2	0.087114	-8.1454	16.3904	0.467118
 360	1	5	0.237906	-10.3365	16.0735	-1.81873
 361	1	5	0	13.9252	-7.69804	16.2465
 362	1	2	0	-7.90556	16.5825	-1.28891

Velocities

   1	0.000529023	-1.89518e-05	-0.000220027
   2	0.0010021	0.00120653	-0.00161485
   3	0.00045784	0.000468996	-0.000924737
   4	0.00200003	0.000511855	-0.000426458
   5	-0.000650765	0.00138769	-0.00204201
   6	0.00164705	0.00254312	-0.00170351
   7	-0.000351912	-0.00125149	-1.05643e-05
   8	0.00461308	-0.00314634	0.00570631
   9	0.00021487	-0.00015461	0.000550022
  10	0.000925837	-0.000356011	0.00140112
  11	-0.000921898	-0.000395512	0.00105282
  12	0.00179839	0.000114801	0.000712411
  13	0.00098948	-0.000515788	0.0015435
  14	0.00110299	-0.000774638	0.00142737
  15	0.000103468	0.000474697	0.000427978
  16	0.000300165	-0.00016075	0.00142905
  17	-0.000688452	-0.000113233	0.000199108
  18	-0.000381603	-0.000339874	6.4039e-05
  19	-0.000281246	-0.00054345	-0.000232715
  20	-0.000933856	0.000444737	0.000651611
  21	-0.00102863	-0.000494508	0.000374803
  22	-0.000725294	-0.000467488	0.000209965
  23	-0.000358773	-0.000445462	7.252e-05
  24	-0.000619325	-5.12011e-05	-9.91809e-05
  25	0.000275255	-0.000142188	4.93808e-05
  26	-9.61739e-05	-0.000123169	-6.21975e-05
  27	-4.0174e-05	-0.00011531	-3.3414e-05
  28	9.87201e-05	-0.000362478	0.000157069
  29	2.85485e-05	-0.000313126	7.22284e-05
  30	5.25678e-05	-0.000314295	-1.45495e-05
  31	6.87592e-05	-0.000141608	-1.23138e-06
  32	-0.000351853	1.36473e-05	-0.000119784
  33	8.65824e-05	-0.000250227	0.000127401
  34	0.000109689	-7.08669e-06	3.37632e-05
  35	-1.82013e-05	-0.000153987	0.000184913
  36	0.000146072	-5.00012e-05	-0.000208153
  37	9.13765e-05	-0.000167123	-6.54645e-05
  38	0.000169465	-0.000191068	0.000118376
  39	3.37507e-05	-0.000114115	4.84517e-05
  40	0.000180521	2.92884e-05	-8.83986e-05
  41	0.000169136	2.40029e-05	0.000282357
  42	0.000182555	-0.000144013	0.000447779
  43	0.00013439	-6.06485e-06	0.000541852
  44	0.000174544	-9.84147e-05	0.000261578
  45	0.000234677	-0.000168184	0.000470868
  46	0.000222209	-1.89141e-05	0.000459439
  47	0.000132625	0.000181832	0.000337995
  48	0.000142498	-0.000235625	0.000226186
  49	0.000118681	5.54908e-05	9.64446e-05
  50	0.000249568	6.35063e-05	0.000175649
  51	6.28697e-05	9.50843e-06	6.54667e-05
  52	0.00025381	-0.000122134	0.00031658
  53	0.000290472	0.000160084	0.000314059
  54	0.000177703	0.000114562	0.000177999
  55	0.000168629	0.000142726	-4.61232e-05
  56	0.000417523	-0.000311596	0.000344856
  57	9.62407e-05	-5.74086e-05	-7.81725e-05
  58	3.59035e-05	-0.000114573	-8.26079e-05
  59	0.000160866	-0.000119136	-7.43878e-05
  60	-2.14508e-05	-2.30053e-05	-1.58884e-05
  61	-8.87045e-05	-0.00017863	-0.000117569
  62	7.76448e-05	-0.000167911	-0.000165147
  63	0.000154016	-7.40482e-05	-7.09542e-05
  64	-8.5759e-05	3.31235e-05	9.2964e-05
  65	-7.94658e-05	0.000101313	4.84935e-05
  66	-6.51284e-06	-4.5927e-05	-8.73392e-06
  67	-0.000204067	0.000174914	4.06574e-05
  68	0.00012992	2.43122e-05	-9.0956e-05
  69	-0.00021184	-7.528e-05	6.07237e-05
  70	1.51249e-05	-0.0002492	-8.00845e-05
  71	5.64758e-05	0.000163028	0.000161487
  72	0.000209283	7.10946e-05	-0.000119441
  73	-0.00030149	0.000239922	-0.000400265
  74	0.000111535	0.000410677	0.00014672
  75	-0.000567964	0.000606913	-0.000570459
  76	5.83538e-06	0.000184698	0.000199335
  77	0.000290222	0.000940318	0.000109609
  78	0.000425706	0.000235352	0.000528071
  79	-0.000516438	0.00047013	-0.00062452
  80	-0.000132958	0.000412887	0.000304809
  81	-0.000537127	-0.000432025	0.000251176
  82	-0.000285361	-0.000322292	0.000104346
  83	-0.000268421	-0.000962133	0.000138791
  84	-0.000263609	-0.000491302	-0.000833252
  85	2.48642e-05	0.000259269	0.000127512
  86	-0.000514508	-0.000384957	0.000456948
  87	-0.000947658	-0.000596292	0.000655581
  88	-0.00016099	-0.000375975	-0.00191477
  89	-0.000303946	0.000197109	0.000127744
  90	-0.000500602	0.000420994	0.000248396
  91	-0.000395264	-5.0377e-05	0.000131964
  92	-0.000411637	0.000288611	0.000204753
  93	-0.000660712	0.000363661	0.000621412
  94	-0.000468419	0.00076523	0.000225697
  95	-0.000195871	0.000233547	-0.000118492
  96	-0.000679099	0.000753171	0.000430791
  97	-8.27651e-05	-2.38579e-05	-0.000137636
  98	-0.000120589	5.46312e-05	-3.29921e-05
  99	-0.000268415	-9.91122e-05	-9.65811e-05
 100	-0.000354183	0.000349624	4.86514e-05
 101	-0.000254346	-0.000130434	-7.05643e-05
 102	5.73259e-05	0.000130126	-0.000131401
 103	1.10018e-05	-0.000195492	-0.000128791
 104	-0.000468412	0.000252181	0.000287948
 105	-1.16182e-06	-0.000207714	-7.17595e-05
 106	3.45506e-05	-4.8089e-05	-9.23871e-05
 107	6.38852e-05	-0.000128044	7.94547e-05
 108	1.64099e-05	9.64768e-05	-5.82685e-05
 109	2.1501e-05	-9.30643e-05	-0.000200477
 110	2.74398e-05	-6.7869e-05	7.33788e-06
 111	-4.41898e-05	-0.000379604	-4.52285e-05
 112	-5.63199e-05	0.000248014	-7.13729e-05
 113	-0.00013352	-0.000156324	-0.000500958
 114	-0.000183796	-0.000154225	-0.000415552
 115	-0.000238879	-0.000187815	-0.000622516
 116	-5.26284e-05	-0.000109587	-0.000262817
 117	-0.000313453	-8.23319e-05	-0.000352589
 118	-0.000204887	-0.000133511	-0.000494974
 119	-3.74926e-05	-0.000237682	-0.000610719
 120	-0.000103036	-0.000182826	-0.000252807
 121	0.00030427	2.79265e-05	-0.000421474
 122	-4.6462e-05	9.80607e-06	-0.000357856
 123	0.000721333	0.000243996	-0.000333829
 124	-2.25484e-05	-0.000175087	-0.000443151
 125	-0.000117004	0.000191378	-0.000297535
 126	-0.000167135	-0.000111924	-0.000401407
 127	0.00035722	-0.000194045	-0.000822464
 128	-1.34158e-05	-0.000157273	-0.000387353
 129	-7.07737e-05	0.000210376	-0.000186127
 130	-7.26565e-05	0.000123737	-0.000210248
 131	-0.000223322	-8.13063e-07	-0.000144854
 132	8.30116e-05	0.000145296	-0.000189791
 133	-0.000209589	0.000132254	-0.000202961
 134	-5.16566e-05	7.92758e-06	-0.000282362
 135	9.5809e-05	0.000182771	-0.00036812
 136	0.000127389	0.000130149	-0.000148707
 137	-1.27464e-05	0.000281667	-0.000102441
 138	-4.58418e-05	0.000388608	-7.82848e-05
 139	-0.000114562	0.000315812	-0.000202665
 140	-6.26669e-05	0.000386962	7.64672e-06
 141	-1.78639e-05	0.000345348	-0.000100364
 142	-2.55626e-05	0.000481791	-0.00012102
 143	6.97413e-05	0.000295966	-5.14026e-05
 144	0.000142602	0.000339779	0.000104134
 145	0.000157948	-0.000152883	-0.000235257
 146	8.9913e-05	-2.79926e-05	-0.000210784
 147	0.000385373	-0.000103649	-0.000197563
 148	7.75672e-05	0.000120187	-0.000188411
 149	1.00209e-05	-1.78864e-05	-0.000293316
 150	0.000177671	-1.72948e-05	-0.000169206
 151	0.000153923	-0.000413507	-0.000270647
 152	1.68892e-05	8.94548e-05	-0.000280464
 153	-5.14902e-05	-0.000222997	-0.000296227
 154	-0.000242683	-5.95468e-05	-0.000187639
 155	-2.43492e-06	-0.000431794	-0.00043349
 156	-8.36098e-05	-7.94496e-05	-0.000230553
 157	-0.000280718	0.000122312	-6.2054e-05
 158	-0.000452915	-0.000187498	-0.000220956
 159	-0.000214874	-0.000270036	-0.00029314
 160	-5.74593e-05	4.2532e-05	-0.000340243
 161	0.000595291	0.000342274	-0.000512594
 162	0.000212478	0.000159293	-4.37455e-05
 163	0.000612815	-1.37328e-05	-0.00107071
 164	0.000243922	-3.703e-05	-0.000296669
 165	0.000121026	0.000528024	0.000338644
 166	-0.000104907	-0.000245765	4.51832e-05
 167	0.00101477	0.000849194	-0.000582659
 168	0.000472818	8.71369e-05	-0.000311087
 169	0.000330464	0.000101342	-6.55577e-05
 170	0.00057242	0.000364734	-0.000501088
 171	0.000222256	5.9379e-05	-9.19144e-07
 172	0.000447432	0.000307258	-0.000169738
 173	0.000453892	0.000156426	-0.00102791
 174	0.000972124	0.000765218	-0.000592968
 175	0.000605274	5.30473e-05	0.000283026
 176	0.000123949	-6.78423e-05	-0.000127234
 177	-0.000835857	-0.000166713	0.000320426
 178	-0.000369894	-0.000416894	0.000442311
 179	-0.000929547	7.2648e-05	0.000453645
 180	-0.000183448	-6.32099e-05	-3.1792e-05
 181	-0.000699509	-0.000615138	0.000803392
 182	8.15365e-05	-0.000714956	0.000600075
 183	-0.000985108	-0.000244526	4.51702e-05
 184	-0.000537899	4.57992e-05	-0.000304318
 185	-6.65165e-05	-8.89449e-05	0.000358276
 186	-0.000340009	-0.00011103	0.000338356
 187	-0.000100351	-6.68406e-05	0.000737428
 188	-0.000782781	-4.81636e-05	0.000404058
 189	-0.000195838	-0.000245784	1.2331e-05
 190	-0.00013663	-7.30977e-06	0.000608861
 191	0.000290334	-0.000148143	0.000324309
 192	-0.000924397	9.63409e-05	0.000625362
 193	-8.76163e-05	0.000142157	-0.000277013
 194	0.000308281	-0.000153292	-8.55855e-05
 195	-0.000114226	0.000289838	-0.000903302
 196	-0.000202594	-4.09295e-05	6.08375e-05
 197	0.000235927	-5.13772e-05	-0.000146625
 198	0.000210272	-0.000279192	0.00013943
 199	0.000949871	0.000220318	-0.000525265
 200	-0.000442959	-1.28506e-05	0.000113411
 201	0.000505926	0.00024182	0.000403646
 202	-0.0011656	0.000141777	-0.000644669
 203	-0.000508963	0.0001873	-0.000398126
 204	0.000553145	-0.000132357	7.84622e-05
 205	-0.000213307	8.37131e-05	5.78044e-05
 206	0.000600633	-0.00040289	0.000221538
 207	-0.000647775	0.000503576	0.000239038
 208	0.000282925	-0.000310637	0.000878801
 209	-1.33028e-05	-0.000306937	-8.49561e-05
 210	0.000162016	4.38457e-05	0.000122933
 211	6.24148e-05	-0.000292883	4.11051e-05
 212	-8.47976e-05	-0.000347502	6.03498e-06
 213	1.4974e-05	0.00015133	6.56329e-05
 214	-9.09184e-05	-0.000120266	-0.000232556
 215	-4.44147e-05	-0.000242501	-0.000195044
 216	0.000441881	-0.00054052	-0.000145221
 217	-0.000525465	-0.000187926	0.000308285
 218	-0.000260887	-0.000237514	-4.20638e-06
 219	-0.000700679	-0.000435011	0.000871892
 220	-3.31492e-05	-0.000511178	4.53392e-05
 221	-0.000296344	-0.000129994	-0.000262569
 222	-0.000401434	-0.000198989	9.86583e-05
 223	-0.000824473	0.000393317	0.000269239
 224	0.000145761	-0.000607287	-1.51549e-05
 225	-0.000127271	-0.000257251	-0.000113977
 226	-0.000380309	-0.00017564	0.000249415
 227	-0.000406891	-7.24582e-05	-0.000721787
 228	-0.00010109	-0.000389905	2.17224e-05
 229	-0.000573422	0.000286995	0.000225234
 230	-0.00031195	-0.000342668	0.000759398
 231	0.000124974	-0.000793984	-0.000179491
 232	0.000101144	-0.000930805	3.21278e-05
 233	-0.000689703	0.000360812	0.00060933
 234	-0.000484533	-4.22786e-06	0.000285006
 235	-0.000752977	0.000385827	0.000577564
 236	-0.000459811	0.000228342	0.000293104
 237	-0.000890157	-0.000215168	0.000371532
 238	-0.000324787	-0.00017592	7.7447e-05
 239	-0.000769509	0.000388919	0.000554567
 240	0.000102304	0.000531752	0.000280755
 241	7.87921e-05	0.00070104	0.000172993
 242	-0.000457207	0.000817286	0.000638904
 243	-0.000255191	0.000956336	-0.000142584
 244	-0.000197329	0.000375304	0.000682631
 245	-0.000466265	0.000817921	0.000834869
 246	-0.000179746	0.000364619	0.000527585
 247	-0.000504977	0.0013134	8.60681e-05
 248	-0.00017608	0.000395408	0.000755209
 249	-0.00104768	0.000342805	-0.000213568
 250	0.00127939	0.000209231	0.00071268
 251	-0.000364589	8.83837e-05	-0.000256103
 252	-0.000723557	0.00111992	-1.66588e-05
 253	-0.000165371	0.00113299	-0.000426276
 254	0.000284045	0.000657666	0.000261312
 255	9.23444e-05	-0.000527157	0.000284367
 256	-0.000408122	0.000632428	-0.000518259
 257	0.000549008	9.92686e-05	3.66725e-05
 258	0.00023414	0.00021532	0.00038416
 259	9.52812e-05	0.000642926	-0.000273282
 260	0.00107002	-0.000323867	0.000197778
 261	-3.19332e-05	0.000466286	0.0004116
 262	0.00083071	0.000475163	0.00077565
 263	0.000183227	-0.000483989	-0.000358959
 264	-9.59588e-05	-0.000505239	9.63466e-05
 265	0.000262603	-6.96457e-05	1.82779e-05
 266	0.000332012	-0.000458912	0.000234785
 267	0.000270073	-0.00032144	0.000212431
 268	0.000649179	0.000180334	0.000384498
 269	0.000263153	-0.000935617	0.000821705
 270	-4.89139e-05	-0.000659789	-0.000328045
 271	-0.000170724	1.56164e-05	-0.000211946
 272	0.00102361	0.000537815	-0.000292149
 273	0.000392815	-2.16798e-05	-0.000886419
 274	-0.00036953	-0.000789208	-0.000464404
 275	0.000204314	0.000376345	-0.00161551
 276	0.000806951	0.000228869	-0.0004517
 277	-0.000905646	-0.00132705	0.0011008
 278	-0.00119984	-0.00180503	-0.00174781
 279	0.000217273	-4.96111e-05	-0.000969785
 280	0.0014857	0.000654754	-0.00175114
 281	0.00115779	0.000142756	0.000184618
 282	0.00107067	0.000143733	0.00016208
 283	0.00111495	-2.77917e-06	0.000144091
 284	0.0012328	0.000201189	-0.000460636
 285	0.000886611	0.000203777	0.000454479
 286	0.000710415	5.47028e-05	7.51026e-06
 287	0.00139243	0.000330874	0.000193748
 288	0.00157519	0.000353701	-0.000909596
 289	-7.92065e-05	0.000355071	-0.000242395
 290	0.000193797	6.6119e-05	0.000435242
 291	0.000189136	-9.70037e-05	0.0013324
 292	0.000691183	0.000433083	0.000170249
 293	0.000935619	-0.000295647	0.000750585
 294	-0.000400865	-0.000355068	0.000860179
 295	0.00125225	-0.000302734	-0.00153851
 296	0.000395544	0.00072913	0.000117375
 297	-0.00140397	-0.00127092	0.000227201
 298	-0.000545252	0.000537269	-0.000740173
 299	0.00144183	-0.0024657	-0.00314804
 300	-0.00199254	0.00175532	-0.00128919
 301	0.000108222	0.00149979	-0.00148346
 302	0.000848391	-0.000197752	-0.000731643
 303	-0.00347725	-0.0051424	0.00180096
 304	-0.00348027	0.00164979	-0.00425991
 305	-0.000252698	0.000607372	0.000691609
 306	-0.00180105	0.000569521	0.00068098
 307	0.000374062	0.00232618	0.000592818
 308	-0.00228157	0.00305657	0.00228179
 309	0.000218161	-0.000196597	-7.64326e-05
 310	-0.00384679	-0.000372936	-0.000626178