pySIMM System Object

98 atoms
97 bonds
180 angles
246 dihedrals
0 impropers

5 atom types
5 bond types
10 angle types
3 dihedral types

-58.161691 58.161691 xlo xhi
-58.161691 58.161691 ylo yhi
-58.161691 58.161691 zlo zhi

Masses

   1	12.01	# c3
   2	1.008	# hc
   3	14.01	# n3
   4	1.008	# h1
   5	1.008	# hn

Pair Coeffs

   1	0.1094	3.3996695084235347	# c3
   2	0.0157	2.649532787749369	# hc
   3	0.17	3.249998523775958	# n3
   4	0.0157	2.471353044121301	# h1
   5	0.0157	1.069078461768407	# hn

Bond Coeffs

   1	330.6	1.0969	# c3,h1
   2	325.9	1.4647	# c3,n3
   3	392.4	1.019	# hn,n3
   4	300.9	1.5375	# c3,c3
   5	330.6	1.0969	# c3,hc

Angle Coeffs

   1	49.53	109.88	# h1,c3,n3
   2	66.02	111.04	# c3,c3,n3
   3	41.4	106.4	# hn,n3,hn
   4	46.34	109.8	# c3,c3,hc
   5	47.42	109.29	# c3,n3,hn
   6	46.39	109.56	# c3,c3,h1
   7	39.4	107.58	# hc,c3,hc
   8	39.24	108.46	# h1,c3,h1
   9	49.55	109.8	# hc,c3,n3
  10	63.82	112.35	# c3,n3,c3

Dihedral Coeffs

   1	1	0.15555555555555556	3	0	# X,c3,c3,X
   2	1	0.3	3	0	# X,c3,n3,X
   3	2	0.3	3	0	0.48	2	180	# c3,c3,n3,c3

Atoms

   1	1	1	-0.185789	-0.537211	3.38694	-9.36194
   2	1	1	0.725698	-1.29659	3.53158	-8.01319
   3	1	2	0.009194	-1.27115	3.2491	-10.1665
   4	1	3	-0.517699	-2.18415	4.68868	-8.04946
   5	1	4	-0.226077	-1.89043	2.63305	-7.818
   6	1	4	-0.130348	-0.575639	3.66368	-7.19891
   7	1	2	0.087114	-0.024644	4.33474	-9.5671
   8	1	5	0.237906	-1.6069	5.50782	-8.21002
   9	1	1	-0.185789	1.0619	-0.117133	-9.21594
  10	1	1	0.725698	-0.0619021	0.942238	-9.11712
  11	1	2	0.009194	1.43492	-0.167999	-10.2471
  12	1	3	-0.517699	0.458059	2.28097	-9.42299
  13	1	4	-0.226077	-0.85164	0.694079	-9.83448
  14	1	4	-0.130348	-0.478017	0.930345	-8.10438
  15	1	2	0.087114	1.89595	0.220633	-8.58587
  16	1	5	0.237906	0.854523	2.22981	-10.3582
  17	1	1	-0.185789	1.12031	-3.71795	-7.87085
  18	1	1	0.725698	1.66238	-2.48744	-8.65774
  19	1	2	0.009194	0.260578	-3.39876	-7.26647
  20	1	3	-0.517699	0.620955	-1.46383	-8.77211
  21	1	4	-0.226077	2.52129	-2.05199	-8.13923
  22	1	4	-0.130348	1.9922	-2.79907	-9.65547
  23	1	2	0.087114	0.72348	-4.44496	-8.58972
  24	1	5	0.237906	-0.121436	-1.82516	-9.3664
  25	1	1	-0.185789	3.37429	-4.26681	-4.7914
  26	1	1	0.725698	2.72542	-3.49397	-5.96885
  27	1	2	0.009194	4.41083	-3.91673	-4.70102
  28	1	3	-0.517699	2.07881	-4.38626	-6.94478
  29	1	4	-0.226077	1.99897	-2.7732	-5.57734
  30	1	4	-0.130348	3.51368	-2.93495	-6.48377
  31	1	2	0.087114	3.42793	-5.33677	-5.03056
  32	1	5	0.237906	2.82328	-4.85006	-7.45925
  33	1	1	-0.185789	2.8267	-3.99835	-0.997679
  34	1	1	0.725698	3.42842	-4.53925	-2.31974
  35	1	2	0.009194	1.85484	-4.47503	-0.814928
  36	1	3	-0.517699	2.6838	-4.06324	-3.4881
  37	1	4	-0.226077	4.45396	-4.15846	-2.38594
  38	1	4	-0.130348	3.46266	-5.63426	-2.30739
  39	1	2	0.087114	3.49675	-4.32596	-0.192537
  40	1	5	0.237906	2.53152	-3.0683	-3.33227
  41	1	1	-0.185789	1.59276	-2.48777	1.35072
  42	1	1	0.725698	2.62108	-1.86705	0.358401
  43	1	2	0.009194	1.86956	-3.53065	1.54867
  44	1	3	-0.517699	2.66516	-2.51388	-0.962819
  45	1	4	-0.226077	2.39597	-0.808274	0.19942
  46	1	4	-0.130348	3.62438	-1.93689	0.793228
  47	1	2	0.087114	0.612342	-2.51064	0.858575
  48	1	5	0.237906	3.44582	-2.06817	-1.44081
  49	1	1	-0.185789	2.44306	-0.849543	4.74741
  50	1	1	0.725698	2.72647	-1.47646	3.35957
  51	1	2	0.009194	1.73367	-0.0265622	4.60763
  52	1	3	-0.517699	1.46907	-1.786	2.66091
  53	1	4	-0.226077	3.30849	-0.773631	2.75337
  54	1	4	-0.130348	3.30886	-2.39618	3.48567
  55	1	2	0.087114	1.94342	-1.60475	5.36689
  56	1	5	0.237906	0.893261	-2.33536	3.29348
  57	1	1	-0.185789	2.82338	1.50793	6.96278
  58	1	1	0.725698	3.51946	0.12315	6.83431
  59	1	2	0.009194	3.34863	2.21702	6.30941
  60	1	3	-0.517699	3.66139	-0.349096	5.44506
  61	1	4	-0.226077	4.53007	0.228051	7.24194
  62	1	4	-0.130348	2.99078	-0.6245	7.43726
  63	1	2	0.087114	2.97437	1.86546	7.98912
  64	1	5	0.237906	4.08499	0.409989	4.91494
  65	1	1	-0.185789	-0.664668	2.69928	5.8749
  66	1	1	0.725698	0.737569	2.83793	6.52278
  67	1	2	0.009194	-0.564854	2.09769	4.96228
  68	1	3	-0.517699	1.37118	1.52153	6.64057
  69	1	4	-0.226077	1.35437	3.47651	5.88212
  70	1	4	-0.130348	0.661958	3.30743	7.51046
  71	1	2	0.087114	-0.983921	3.69555	5.54311
  72	1	5	0.237906	0.825173	0.967727	7.29712
  73	1	1	-0.185789	-3.50549	2.33075	8.43373
  74	1	1	0.725698	-2.2117	2.93576	7.82295
  75	1	2	0.009194	-3.23826	1.42334	8.98963
  76	1	3	-0.517699	-1.72413	2.09157	6.72611
  77	1	4	-0.226077	-2.43904	3.93267	7.4324
  78	1	4	-0.130348	-1.44101	3.03749	8.59502
  79	1	2	0.087114	-3.89525	3.04308	9.17202
  80	1	5	0.237906	-2.54911	1.91883	6.15358
  81	1	1	-0.185789	-6.06813	2.53196	5.55534
  82	1	1	0.725698	-5.09353	3.08333	6.62602
  83	1	2	0.009194	-6.89586	2.0138	6.05733
  84	1	3	-0.517699	-4.57069	1.98115	7.4482
  85	1	4	-0.226077	-4.26504	3.59449	6.12808
  86	1	4	-0.130348	-5.61701	3.79872	7.26958
  87	1	2	0.087114	-6.50473	3.38899	5.02629
  88	1	5	0.237906	-5.36633	1.56069	7.92275
  89	1	1	-0.185789	-5.5217	0.21135	2.55539
  90	1	1	0.725698	-6.32227	1.02909	3.57789
  91	1	2	0.009194	-4.95736	-0.59032	3.04803
  92	1	3	-0.517699	-5.42407	1.61523	4.57637
  93	1	4	-0.226077	-7.03499	0.374562	4.08921
  94	1	4	-0.130348	-6.87401	1.82182	3.06049
  95	1	2	0.087114	-4.81464	0.861308	2.02733
  96	1	5	0.237906	-4.98555	0.838533	5.06856
  97	1	5	0	-2.61607	4.81098	-7.13465
  98	1	2	0	-6.19162	-0.242624	1.81467

Velocities

   1	-0.000267954	0.000357732	-0.00138081
   2	0.000611036	0.00157859	-0.000992941
   3	-0.00123268	-0.000508	-0.000594168
   4	0.000723466	0.00164105	-9.18301e-05
   5	0.000356719	0.00164928	-0.000475258
   6	0.000952973	0.00159573	-0.001401
   7	-0.000893619	0.000517297	-0.0026503
   8	0.00124297	0.00256763	0.00479037
   9	-0.00074543	-0.000287228	-0.000402959
  10	-0.000152235	0.000205374	-0.000801219
  11	-0.00011253	-0.000656985	-0.000224253
  12	-0.000182699	0.000577859	-0.000995255
  13	-0.000331816	0.000388126	-0.000718025
  14	-0.000208124	0.000706083	-0.000692572
  15	-0.000932095	-0.00105013	6.38465e-05
  16	0.000284125	0.000493472	-0.000874949
  17	-0.00040328	-0.000603446	0.00135852
  18	-0.0011688	3.09078e-05	0.00121192
  19	-0.000333187	-0.000871854	0.00172598
  20	-0.0014027	-0.000865452	-0.000836014
  21	-0.00217414	0.000722889	0.0022634
  22	0.000711374	-0.000443917	0.00195261
  23	-0.000547239	-0.000645618	0.00136334
  24	-0.000140233	-0.000888226	-0.0021687
  25	0.000253967	0.000121368	0.000420317
  26	0.000253708	-6.64635e-05	0.000555166
  27	0.000243923	0.000373888	0.000395819
  28	0.000210583	-0.000134183	0.000488673
  29	-5.52461e-06	-0.000202017	0.000450474
  30	-2.12524e-05	0.000119761	0.000485029
  31	0.000480812	0.00019035	0.000433722
  32	0.000461188	0.000429412	0.000162283
  33	0.00170241	-0.000163364	0.000234112
  34	0.000872187	-0.000213535	1.49574e-05
  35	0.00206282	-0.0004885	0.00109773
  36	0.000290601	2.98819e-05	0.000366923
  37	0.000860487	-8.31029e-05	-0.000653222
  38	0.00088015	-9.56371e-05	-0.000231516
  39	0.00255577	0.000129289	-0.00022032
  40	0.000217263	-0.000128371	0.000537135
  41	0.000569195	-0.000241828	-0.000287538
  42	0.000972709	-0.000401124	4.38348e-05
  43	0.000429695	-0.000297745	-2.8725e-05
  44	0.00141862	-0.00033024	0.000190962
  45	0.00114211	-0.00035024	6.7971e-05
  46	0.00084355	-0.000542185	0.000481111
  47	0.000732178	-0.000385061	-0.00078578
  48	0.00166306	-0.000188348	0.000446034
  49	-0.000690864	0.000392314	-0.000358338
  50	-8.47339e-05	-0.000903861	0.000246004
  51	0.000817988	0.00146645	-0.00173783
  52	-3.55616e-05	2.75035e-05	-0.000626857
  53	0.00118285	-0.00193757	0.000355278
  54	-0.0013485	-0.0014626	0.00137668
  55	-0.00261499	0.00151288	-0.000565982
  56	-0.000928772	0.000805372	-0.000968256
  57	-0.00103321	-8.35156e-05	-0.000476593
  58	-0.00153696	-0.000599815	0.000561444
  59	-6.11719e-05	-0.000542385	-0.000272817
  60	-0.000670626	-0.00115224	0.000631127
  61	-0.00194743	-0.00119959	0.00133472
  62	-0.00269148	-5.22876e-05	0.000186438
  63	-0.00131607	4.04862e-05	-0.000384877
  64	0.00099234	-0.0020151	0.000997791
  65	-0.000252024	0.00104788	-0.000921729
  66	-0.000386281	0.000791498	-0.00072501
  67	-0.000250855	0.00141001	-0.00111961
  68	-0.000487034	0.00055075	-0.00131402
  69	-0.000101396	0.00100965	-0.000319217
  70	-0.000426706	0.000204853	-0.000546478
  71	-0.000230352	0.00130392	-0.000577897
  72	-0.00126377	0.000227477	-0.00203778
  73	0.000958094	-0.000519786	0.000167624
  74	0.000574903	-0.00029971	-4.57814e-06
  75	0.00115551	-0.000935301	-0.000338939
  76	-0.00012781	0.000852357	-0.00111541
  77	0.000606311	0.000234411	0.00129835
  78	0.00108919	-0.00126405	-0.000239067
  79	0.00104787	-0.00110695	0.000703125
  80	-0.000665264	0.0017655	-0.00101527
  81	0.000308843	-0.000122851	0.000264482
  82	0.000419904	-0.000164255	0.000774954
  83	9.90406e-05	0.00025121	0.000381411
  84	0.000418007	-0.000487626	0.000297378
  85	0.000135241	0.000166937	0.000906491
  86	0.000163819	-0.000630142	0.000959668
  87	0.000593891	0.0002578	0.000551307
  88	0.000820189	-0.000492278	0.000397946
  89	-0.000231855	-0.000293888	0.000380902
  90	-0.000292229	0.000222337	-0.000125004
  91	-0.000889191	-0.00048879	0.000648035
  92	-6.23491e-05	-3.57429e-05	0.000378795
  93	-0.000838275	0.00077519	-0.000380142
  94	0.000402029	0.000571411	-0.000380441
  95	0.000332814	-0.000820083	0.000573515
  96	-0.000386769	-0.000380495	3.30779e-05
  97	-0.00285496	-0.00125956	-0.00148998
  98	-0.000229221	-5.05527e-05	0.000110469

Bonds

   1	4	1	2
   2	5	1	3
   3	5	1	7
   4	2	2	4
   5	1	2	5
   6	1	2	6
   7	3	4	8
   8	4	9	10
   9	5	9	11
  10	5	9	15
  11	2	10	12
  12	1	10	13
  13	1	10	14
  14	3	12	16
  15	2	1	12
  16	4	17	18
  17	5	17	19
  18	5	17	23
  19	2	18	20
  20	1	18	21
  21	1	18	22
  22	3	20	24
  23	2	9	20
  24	4	25	26
  25	5	25	27
  26	5	25	31
  27	2	26	28
  28	1	26	29
  29	1	26	30
  30	3	28	32
  31	2	17	28
  32	4	33	34
  33	5	33	35
  34	5	33	39
  35	2	34	36
  36	1	34	37
  37	1	34	38
  38	3	36	40
  39	2	25	36
  40	4	41	42
  41	5	41	43
  42	5	41	47
  43	2	42	44
  44	1	42	45
  45	1	42	46
  46	3	44	48
  47	2	33	44
  48	4	49	50
  49	5	49	51
  50	5	49	55
  51	2	50	52
  52	1	50	53
  53	1	50	54
  54	3	52	56
  55	2	41	52
  56	4	57	58
  57	5	57	59
  58	5	57	63
  59	2	58	60
  60	1	58	61
  61	1	58	62
  62	3	60	64
  63	2	49	60
  64	4	65	66
  65	5	65	67
  66	5	65	71
  67	2	66	68
  68	1	66	69
  69	1	66	70
  70	3	68	72
  71	2	57	68
  72	4	73	74
  73	5	73	75
  74	5	73	79
  75	2	74	76
  76	1	74	77
  77	1	74	78
  78	3	76	80
  79	2	65	76
  80	4	81	82
  81	5	81	83
  82	5	81	87
  83	2	82	84
  84	1	82	85
  85	1	82	86
  86	3	84	88
  87	2	73	84
  88	4	89	90
  89	5	89	91
  90	5	89	95
  91	2	90	92
  92	1	90	93
  93	1	90	94
  94	3	92	96
  95	2	81	92
  96	3	4	97
  97	5	89	98

Angles

   1	4	2	1	3
   2	4	2	1	7
   3	7	3	1	7
   4	2	1	2	4
   5	6	1	2	5
   6	6	1	2	6
   7	1	4	2	5
   8	1	4	2	6
   9	8	5	2	6
  10	5	2	4	8
  11	4	10	9	11
  12	4	10	9	15
  13	7	11	9	15
  14	2	9	10	12
  15	6	9	10	13
  16	6	9	10	14
  17	1	12	10	13
  18	1	12	10	14
  19	8	13	10	14
  20	5	10	12	16
  21	2	2	1	12
  22	9	3	1	12
  23	9	7	1	12
  24	10	1	12	10
  25	5	1	12	16
  26	4	18	17	19
  27	4	18	17	23
  28	7	19	17	23
  29	2	17	18	20
  30	6	17	18	21
  31	6	17	18	22
  32	1	20	18	21
  33	1	20	18	22
  34	8	21	18	22
  35	5	18	20	24
  36	2	10	9	20
  37	9	11	9	20
  38	9	15	9	20
  39	10	9	20	18
  40	5	9	20	24
  41	4	26	25	27
  42	4	26	25	31
  43	7	27	25	31
  44	2	25	26	28
  45	6	25	26	29
  46	6	25	26	30
  47	1	28	26	29
  48	1	28	26	30
  49	8	29	26	30
  50	5	26	28	32
  51	2	18	17	28
  52	9	19	17	28
  53	9	23	17	28
  54	10	17	28	26
  55	5	17	28	32
  56	4	34	33	35
  57	4	34	33	39
  58	7	35	33	39
  59	2	33	34	36
  60	6	33	34	37
  61	6	33	34	38
  62	1	36	34	37
  63	1	36	34	38
  64	8	37	34	38
  65	5	34	36	40
  66	2	26	25	36
  67	9	27	25	36
  68	9	31	25	36
  69	10	25	36	34
  70	5	25	36	40
  71	4	42	41	43
  72	4	42	41	47
  73	7	43	41	47
  74	2	41	42	44
  75	6	41	42	45
  76	6	41	42	46
  77	1	44	42	45
  78	1	44	42	46
  79	8	45	42	46
  80	5	42	44	48
  81	2	34	33	44
  82	9	35	33	44
  83	9	39	33	44
  84	10	33	44	42
  85	5	33	44	48
  86	4	50	49	51
  87	4	50	49	55
  88	7	51	49	55
  89	2	49	50	52
  90	6	49	50	53
  91	6	49	50	54
  92	1	52	50	53
  93	1	52	50	54
  94	8	53	50	54
  95	5	50	52	56
  96	2	42	41	52
  97	9	43	41	52
  98	9	47	41	52
  99	10	41	52	50
 100	5	41	52	56
 101	4	58	57	59
 102	4	58	57	63
 103	7	59	57	63
 104	2	57	58	60
 105	6	57	58	61
 106	6	57	58	62
 107	1	60	58	61
 108	1	60	58	62
 109	8	61	58	62
 110	5	58	60	64
 111	2	50	49	60
 112	9	51	49	60
 113	9	55	49	60
 114	10	49	60	58
 115	5	49	60	64
 116	4	66	65	67
 117	4	66	65	71
 118	7	67	65	71
 119	2	65	66	68
 120	6	65	66	69
 121	6	65	66	70
 122	1	68	66	69
 123	1	68	66	70
 124	8	69	66	70
 125	5	66	68	72
 126	2	58	57	68
 127	9	59	57	68
 128	9	63	57	68
 129	10	57	68	66
 130	5	57	68	72
 131	4	74	73	75
 132	4	74	73	79
 133	7	75	73	79
 134	2	73	74	76
 135	6	73	74	77
 136	6	73	74	78
 137	1	76	74	77
 138	1	76	74	78
 139	8	77	74	78
 140	5	74	76	80
 141	2	66	65	76
 142	9	67	65	76
 143	9	71	65	76
 144	10	65	76	74
 145	5	65	76	80
 146	4	82	81	83
 147	4	82	81	87
 148	7	83	81	87
 149	2	81	82	84
 150	6	81	82	85
 151	6	81	82	86
 152	1	84	82	85
 153	1	84	82	86
 154	8	85	82	86
 155	5	82	84	88
 156	2	74	73	84
 157	9	75	73	84
 158	9	79	73	84
 159	10	73	84	82
 160	5	73	84	88
 161	4	90	89	91
 162	4	90	89	95
 163	7	91	89	95
 164	2	89	90	92
 165	6	89	90	93
 166	6	89	90	94
 167	1	92	90	93
 168	1	92	90	94
 169	8	93	90	94
 170	5	90	92	96
 171	2	82	81	92
 172	9	83	81	92
 173	9	87	81	92
 174	10	81	92	90
 175	5	81	92	96
 176	5	2	4	97
 177	3	8	4	97
 178	4	90	89	98
 179	7	91	89	98
 180	7	95	89	98

Dihedrals

   1	1	3	1	2	4
   2	1	3	1	2	5
   3	1	3	1	2	6
   4	1	7	1	2	4
   5	1	7	1	2	5
   6	1	7	1	2	6
   7	2	1	2	4	8
   8	2	5	2	4	8
   9	2	6	2	4	8
  10	1	11	9	10	12
  11	1	11	9	10	13
  12	1	11	9	10	14
  13	1	15	9	10	12
  14	1	15	9	10	13
  15	1	15	9	10	14
  16	2	9	10	12	16
  17	2	13	10	12	16
  18	2	14	10	12	16
  19	1	4	2	1	12
  20	1	5	2	1	12
  21	1	6	2	1	12
  22	3	1	12	10	9
  23	2	1	12	10	13
  24	2	1	12	10	14
  25	3	2	1	12	10
  26	2	2	1	12	16
  27	2	3	1	12	10
  28	2	3	1	12	16
  29	2	7	1	12	10
  30	2	7	1	12	16
  31	1	19	17	18	20
  32	1	19	17	18	21
  33	1	19	17	18	22
  34	1	23	17	18	20
  35	1	23	17	18	21
  36	1	23	17	18	22
  37	2	17	18	20	24
  38	2	21	18	20	24
  39	2	22	18	20	24
  40	1	12	10	9	20
  41	1	13	10	9	20
  42	1	14	10	9	20
  43	3	9	20	18	17
  44	2	9	20	18	21
  45	2	9	20	18	22
  46	3	10	9	20	18
  47	2	10	9	20	24
  48	2	11	9	20	18
  49	2	11	9	20	24
  50	2	15	9	20	18
  51	2	15	9	20	24
  52	1	27	25	26	28
  53	1	27	25	26	29
  54	1	27	25	26	30
  55	1	31	25	26	28
  56	1	31	25	26	29
  57	1	31	25	26	30
  58	2	25	26	28	32
  59	2	29	26	28	32
  60	2	30	26	28	32
  61	1	20	18	17	28
  62	1	21	18	17	28
  63	1	22	18	17	28
  64	3	17	28	26	25
  65	2	17	28	26	29
  66	2	17	28	26	30
  67	3	18	17	28	26
  68	2	18	17	28	32
  69	2	19	17	28	26
  70	2	19	17	28	32
  71	2	23	17	28	26
  72	2	23	17	28	32
  73	1	35	33	34	36
  74	1	35	33	34	37
  75	1	35	33	34	38
  76	1	39	33	34	36
  77	1	39	33	34	37
  78	1	39	33	34	38
  79	2	33	34	36	40
  80	2	37	34	36	40
  81	2	38	34	36	40
  82	1	28	26	25	36
  83	1	29	26	25	36
  84	1	30	26	25	36
  85	3	25	36	34	33
  86	2	25	36	34	37
  87	2	25	36	34	38
  88	3	26	25	36	34
  89	2	26	25	36	40
  90	2	27	25	36	34
  91	2	27	25	36	40
  92	2	31	25	36	34
  93	2	31	25	36	40
  94	1	43	41	42	44
  95	1	43	41	42	45
  96	1	43	41	42	46
  97	1	47	41	42	44
  98	1	47	41	42	45
  99	1	47	41	42	46
 100	2	41	42	44	48
 101	2	45	42	44	48
 102	2	46	42	44	48
 103	1	36	34	33	44
 104	1	37	34	33	44
 105	1	38	34	33	44
 106	3	33	44	42	41
 107	2	33	44	42	45
 108	2	33	44	42	46
 109	3	34	33	44	42
 110	2	34	33	44	48
 111	2	35	33	44	42
 112	2	35	33	44	48
 113	2	39	33	44	42
 114	2	39	33	44	48
 115	1	51	49	50	52
 116	1	51	49	50	53
 117	1	51	49	50	54
 118	1	55	49	50	52
 119	1	55	49	50	53
 120	1	55	49	50	54
 121	2	49	50	52	56
 122	2	53	50	52	56
 123	2	54	50	52	56
 124	1	44	42	41	52
 125	1	45	42	41	52
 126	1	46	42	41	52
 127	3	41	52	50	49
 128	2	41	52	50	53
 129	2	41	52	50	54
 130	3	42	41	52	50
 131	2	42	41	52	56
 132	2	43	41	52	50
 133	2	43	41	52	56
 134	2	47	41	52	50
 135	2	47	41	52	56
 136	1	59	57	58	60
 137	1	59	57	58	61
 138	1	59	57	58	62
 139	1	63	57	58	60
 140	1	63	57	58	61
 141	1	63	57	58	62
 142	2	57	58	60	64
 143	2	61	58	60	64
 144	2	62	58	60	64
 145	1	52	50	49	60
 146	1	53	50	49	60
 147	1	54	50	49	60
 148	3	49	60	58	57
 149	2	49	60	58	61
 150	2	49	60	58	62
 151	3	50	49	60	58
 152	2	50	49	60	64
 153	2	51	49	60	58
 154	2	51	49	60	64
 155	2	55	49	60	58
 156	2	55	49	60	64
 157	1	67	65	66	68
 158	1	67	65	66	69
 159	1	67	65	66	70
 160	1	71	65	66	68
 161	1	71	65	66	69
 162	1	71	65	66	70
 163	2	65	66	68	72
 164	2	69	66	68	72
 165	2	70	66	68	72
 166	1	60	58	57	68
 167	1	61	58	57	68
 168	1	62	58	57	68
 169	3	57	68	66	65
 170	2	57	68	66	69
 171	2	57	68	66	70
 172	3	58	57	68	66
 173	2	58	57	68	72
 174	2	59	57	68	66
 175	2	59	57	68	72
 176	2	63	57	68	66
 177	2	63	57	68	72
 178	1	75	73	74	76
 179	1	75	73	74	77
 180	1	75	73	74	78
 181	1	79	73	74	76
 182	1	79	73	74	77
 183	1	79	73	74	78
 184	2	73	74	76	80
 185	2	77	74	76	80
 186	2	78	74	76	80
 187	1	68	66	65	76
 188	1	69	66	65	76
 189	1	70	66	65	76
 190	3	65	76	74	73
 191	2	65	76	74	77
 192	2	65	76	74	78
 193	3	66	65	76	74
 194	2	66	65	76	80
 195	2	67	65	76	74
 196	2	67	65	76	80
 197	2	71	65	76	74
 198	2	71	65	76	80
 199	1	83	81	82	84
 200	1	83	81	82	85
 201	1	83	81	82	86
 202	1	87	81	82	84
 203	1	87	81	82	85
 204	1	87	81	82	86
 205	2	81	82	84	88
 206	2	85	82	84	88
 207	2	86	82	84	88
 208	1	76	74	73	84
 209	1	77	74	73	84
 210	1	78	74	73	84
 211	3	73	84	82	81
 212	2	73	84	82	85
 213	2	73	84	82	86
 214	3	74	73	84	82
 215	2	74	73	84	88
 216	2	75	73	84	82
 217	2	75	73	84	88
 218	2	79	73	84	82
 219	2	79	73	84	88
 220	1	91	89	90	92
 221	1	91	89	90	93
 222	1	91	89	90	94
 223	1	95	89	90	92
 224	1	95	89	90	93
 225	1	95	89	90	94
 226	2	89	90	92	96
 227	2	93	90	92	96
 228	2	94	90	92	96
 229	1	84	82	81	92
 230	1	85	82	81	92
 231	1	86	82	81	92
 232	3	81	92	90	89
 233	2	81	92	90	93
 234	2	81	92	90	94
 235	3	82	81	92	90
 236	2	82	81	92	96
 237	2	83	81	92	90
 238	2	83	81	92	96
 239	2	87	81	92	90
 240	2	87	81	92	96
 241	2	1	2	4	97
 242	2	5	2	4	97
 243	2	6	2	4	97
 244	1	92	90	89	98
 245	1	93	90	89	98
 246	1	94	90	89	98

