pySIMM System Object

290 atoms
289 bonds
540 angles
750 dihedrals
0 impropers

5 atom types
5 bond types
10 angle types
3 dihedral types

-85.545167 85.545167 xlo xhi
-85.545167 85.545167 ylo yhi
-85.545167 85.545167 zlo zhi

Masses

   1	12.01	# c3
   2	1.008	# hc
   3	14.01	# n3
   4	1.008	# h1
   5	1.008	# hn

Pair Coeffs

   1	0.1094	3.3996695084235347	# c3
   2	0.0157	2.649532787749369	# hc
   3	0.17	3.249998523775958	# n3
   4	0.0157	2.471353044121301	# h1
   5	0.0157	1.069078461768407	# hn

Bond Coeffs

   1	330.6	1.0969	# c3,h1
   2	325.9	1.4647	# c3,n3
   3	392.4	1.019	# hn,n3
   4	300.9	1.5375	# c3,c3
   5	330.6	1.0969	# c3,hc

Angle Coeffs

   1	49.53	109.88	# h1,c3,n3
   2	66.02	111.04	# c3,c3,n3
   3	41.4	106.4	# hn,n3,hn
   4	46.34	109.8	# c3,c3,hc
   5	47.42	109.29	# c3,n3,hn
   6	46.39	109.56	# c3,c3,h1
   7	39.4	107.58	# hc,c3,hc
   8	39.24	108.46	# h1,c3,h1
   9	49.55	109.8	# hc,c3,n3
  10	63.82	112.35	# c3,n3,c3

Dihedral Coeffs

   1	1	0.15555555555555556	3	0	# X,c3,c3,X
   2	1	0.3	3	0	# X,c3,n3,X
   3	2	0.3	3	0	0.48	2	180	# c3,c3,n3,c3

Atoms

   1	1	1	-0.185789	-4.52516	-15.0807	-10.4713
   2	1	1	0.725698	-4.79886	-14.6822	-11.9467
   3	1	2	0.009194	-4.10955	-16.0963	-10.4654
   4	1	3	-0.517699	-5.26214	-13.3026	-12.0631
   5	1	4	-0.226077	-3.87375	-14.774	-12.5232
   6	1	4	-0.130348	-5.54558	-15.3472	-12.3936
   7	1	2	0.087114	-3.73304	-14.4278	-10.0841
   8	1	5	0.237906	-5.27719	-13.0823	-13.0547
   9	1	1	-0.185789	-7.89461	-15.9007	-8.78044
  10	1	1	0.725698	-6.83852	-15.8772	-9.91287
  11	1	2	0.009194	-8.71797	-16.5586	-9.08658
  12	1	3	-0.517699	-5.69004	-15.0424	-9.54238
  13	1	4	-0.226077	-6.49758	-16.8992	-10.1084
  14	1	4	-0.130348	-7.29116	-15.4829	-10.8298
  15	1	2	0.087114	-7.42987	-16.3649	-7.90044
  16	1	5	0.237906	-6.04124	-14.0928	-9.43261
  17	1	1	-0.185789	-9.93076	-13.149	-7.02405
  18	1	1	0.725698	-9.43255	-14.5817	-7.3338
  19	1	2	0.009194	-10.6051	-13.1978	-6.15958
  20	1	3	-0.517699	-8.44188	-14.5673	-8.41391
  21	1	4	-0.226077	-8.98182	-15.0126	-6.4339
  22	1	4	-0.130348	-10.2858	-15.2029	-7.63111
  23	1	2	0.087114	-9.06363	-12.5506	-6.71357
  24	1	5	0.237906	-8.90147	-14.1408	-9.21726
  25	1	1	-0.185789	-11.7485	-10.4229	-9.07807
  26	1	1	0.725698	-11.1254	-11.1297	-7.84198
  27	1	2	0.009194	-11.0037	-10.3684	-9.8819
  28	1	3	-0.517699	-10.6316	-12.4768	-8.15211
  29	1	4	-0.226077	-10.289	-10.5234	-7.48051
  30	1	4	-0.130348	-11.8721	-11.1923	-7.04245
  31	1	2	0.087114	-11.9388	-9.386	-8.77565
  32	1	5	0.237906	-11.4516	-13.0166	-8.42857
  33	1	1	-0.185789	-14.2382	-12.6481	-10.9998
  34	1	1	0.725698	-12.9213	-12.3029	-10.2652
  35	1	2	0.009194	-14.128	-13.6377	-11.4598
  36	1	3	-0.517699	-13.0193	-10.9935	-9.61319
  37	1	4	-0.226077	-12.7031	-13.0717	-9.51474
  38	1	4	-0.130348	-12.1048	-12.2779	-10.9902
  39	1	2	0.087114	-15.0317	-12.7332	-10.2459
  40	1	5	0.237906	-13.3933	-10.3728	-10.33
  41	1	1	-0.185789	-15.8087	-13.0222	-13.7666
  42	1	1	0.725698	-15.9002	-11.8734	-12.7281
  43	1	2	0.009194	-16.779	-13.0955	-14.2746
  44	1	3	-0.517699	-14.6239	-11.649	-12.0365
  45	1	4	-0.226077	-16.1551	-10.952	-13.262
  46	1	4	-0.130348	-16.6933	-12.0817	-12.0007
  47	1	2	0.087114	-15.664	-13.9714	-13.2359
  48	1	5	0.237906	-13.9167	-11.5985	-12.77
  49	1	1	-0.185789	-13.5864	-13.5486	-16.8755
  50	1	1	0.725698	-14.7419	-13.8163	-15.876
  51	1	2	0.009194	-12.651	-13.909	-16.43
  52	1	3	-0.517699	-14.7366	-12.8365	-14.783
  53	1	4	-0.226077	-15.6958	-13.7307	-16.4069
  54	1	4	-0.130348	-14.6575	-14.8332	-15.4759
  55	1	2	0.087114	-13.7716	-14.1619	-17.7661
  56	1	5	0.237906	-14.8558	-11.9356	-15.2436
  57	1	1	-0.185789	-11.0042	-12.2087	-17.9981
  58	1	1	0.725698	-12.4708	-11.793	-18.3222
  59	1	2	0.009194	-10.3463	-11.7234	-18.7299
  60	1	3	-0.517699	-13.4329	-12.1167	-17.2597
  61	1	4	-0.226077	-12.4957	-10.7083	-18.468
  62	1	4	-0.130348	-12.7811	-12.2677	-19.2598
  63	1	2	0.087114	-10.9121	-13.2872	-18.1762
  64	1	5	0.237906	-13.1226	-11.5821	-16.4479
  65	1	1	-0.185789	-10.2479	-10.4175	-14.6301
  66	1	1	0.725698	-10.7834	-10.5714	-16.0808
  67	1	2	0.009194	-10.3678	-9.36348	-14.3514
  68	1	3	-0.517699	-10.5027	-11.9053	-16.6273
  69	1	4	-0.226077	-11.8639	-10.3931	-16.0865
  70	1	4	-0.130348	-10.3005	-9.82324	-16.7187
  71	1	2	0.087114	-9.16586	-10.5968	-14.6347
  72	1	5	0.237906	-9.49941	-12.0593	-16.5806
  73	1	1	-0.185789	-9.28761	-13.1726	-13.5543
  74	1	1	0.725698	-10.774	-12.7052	-13.6048
  75	1	2	0.009194	-9.26684	-14.2489	-13.3407
  76	1	3	-0.517699	-10.9149	-11.2356	-13.5689
  77	1	4	-0.226077	-11.2597	-13.1136	-14.4921
  78	1	4	-0.130348	-11.2952	-13.1201	-12.7376
  79	1	2	0.087114	-8.86529	-13.058	-14.5589
  80	1	5	0.237906	-10.552	-10.9534	-12.6603
  81	1	1	-0.185789	-7.95008	-11.5876	-10.3126
  82	1	1	0.725698	-8.82642	-12.5282	-11.1703
  83	1	2	0.009194	-8.18372	-11.7767	-9.25984
  84	1	3	-0.517699	-8.41566	-12.4599	-12.5765
  85	1	4	-0.226077	-8.71826	-13.5604	-10.824
  86	1	4	-0.130348	-9.87631	-12.2357	-11.0755
  87	1	2	0.087114	-6.89723	-11.8613	-10.4503
  88	1	5	0.237906	-7.46686	-12.8305	-12.6081
  89	1	1	-0.185789	-7.35611	-9.30668	-8.36779
  90	1	1	0.725698	-7.2893	-9.1841	-9.91378
  91	1	2	0.009194	-6.93553	-10.2727	-8.06107
  92	1	3	-0.517699	-8.15276	-10.1434	-10.6178
  93	1	4	-0.226077	-6.25766	-9.33538	-10.2504
  94	1	4	-0.130348	-7.59282	-8.17486	-10.2137
  95	1	2	0.087114	-8.41313	-9.30747	-8.0729
  96	1	5	0.237906	-7.99953	-9.98065	-11.611
  97	1	1	-0.185789	-6.01111	-7.10958	-5.52458
  98	1	1	0.725698	-6.66302	-8.35069	-6.1818
  99	1	2	0.009194	-4.96778	-7.03404	-5.85784
 100	1	3	-0.517699	-6.6384	-8.22619	-7.64416
 101	1	4	-0.226077	-6.09798	-9.24416	-5.8963
 102	1	4	-0.130348	-7.69552	-8.45758	-5.82937
 103	1	2	0.087114	-5.98758	-7.27869	-4.44063
 104	1	5	0.237906	-5.65636	-8.2231	-7.9106
 105	1	1	-0.185789	-6.97304	-3.39153	-5.66765
 106	1	1	0.725698	-6.1429	-4.62707	-5.24008
 107	1	2	0.009194	-8.006	-3.53594	-5.3239
 108	1	3	-0.517699	-6.72272	-5.83889	-5.82186
 109	1	4	-0.226077	-5.11345	-4.50897	-5.59686
 110	1	4	-0.130348	-6.13257	-4.70691	-4.14693
 111	1	2	0.087114	-6.58607	-2.51491	-5.13253
 112	1	5	0.237906	-6.76041	-5.68273	-6.82811
 113	1	1	-0.185789	-7.8973	-1.96162	-9.1268
 114	1	1	0.725698	-7.93417	-2.1214	-7.58095
 115	1	2	0.009194	-8.75882	-1.34857	-9.42042
 116	1	3	-0.517699	-6.96885	-3.1309	-7.13449
 117	1	4	-0.226077	-7.70328	-1.16718	-7.09809
 118	1	4	-0.130348	-8.94197	-2.42708	-7.27975
 119	1	2	0.087114	-8.0614	-2.94758	-9.57955
 120	1	5	0.237906	-6.04767	-2.81378	-7.42717
 121	1	1	-0.185789	-5.22423	0.656577	-10.0324
 122	1	1	0.725698	-6.33229	-0.0153417	-9.1762
 123	1	2	0.009194	-4.35928	-0.0166431	-10.0817
 124	1	3	-0.517699	-6.66913	-1.34233	-9.70453
 125	1	4	-0.226077	-5.96784	-0.145638	-8.15208
 126	1	4	-0.130348	-7.23039	0.610561	-9.16829
 127	1	2	0.087114	-5.59735	0.763456	-11.0598
 128	1	5	0.237906	-5.85566	-1.93393	-9.5548
 129	1	1	-0.185789	-5.26788	4.27435	-8.72347
 130	1	1	0.725698	-5.75817	3.05631	-9.5488
 131	1	2	0.009194	-5.94752	5.11424	-8.91605
 132	1	3	-0.517699	-4.7647	1.97419	-9.51399
 133	1	4	-0.226077	-6.71228	2.7057	-9.14772
 134	1	4	-0.130348	-5.91288	3.35871	-10.5903
 135	1	2	0.087114	-4.28653	4.58504	-9.10211
 136	1	5	0.237906	-3.95981	2.29938	-10.0443
 137	1	1	-0.185789	-6.40512	3.94159	-5.08372
 138	1	1	0.725698	-6.44923	3.64807	-6.60401
 139	1	2	0.009194	-5.63696	3.31185	-4.61598
 140	1	3	-0.517699	-5.19201	4.0614	-7.25037
 141	1	4	-0.226077	-6.59374	2.57618	-6.76831
 142	1	4	-0.130348	-7.29172	4.19172	-7.04634
 143	1	2	0.087114	-7.3692	3.64409	-4.6522
 144	1	5	0.237906	-4.50966	3.33946	-7.02628
 145	1	1	-0.185789	-5.60883	7.20777	-3.22562
 146	1	1	0.725698	-6.10489	5.74572	-3.36659
 147	1	2	0.009194	-6.33221	7.88355	-3.70085
 148	1	3	-0.517699	-6.12512	5.36992	-4.78207
 149	1	4	-0.226077	-5.42098	5.08016	-2.83017
 150	1	4	-0.130348	-7.10799	5.64441	-2.93659
 151	1	2	0.087114	-5.60045	7.45272	-2.15568
 152	1	5	0.237906	-5.20557	5.60197	-5.1491
 153	1	1	-0.185789	-2.24773	8.82811	-4.16636
 154	1	1	0.725698	-3.69289	8.7755	-3.60084
 155	1	2	0.009194	-2.29359	8.71252	-5.25687
 156	1	3	-0.517699	-4.25815	7.43867	-3.80792
 157	1	4	-0.226077	-3.68111	9.01455	-2.53302
 158	1	4	-0.130348	-4.31187	9.51699	-4.11797
 159	1	2	0.087114	-1.84791	9.83261	-3.98015
 160	1	5	0.237906	-4.2795	7.2882	-4.8136
 161	1	1	-0.185789	-0.0293417	6.7757	-1.7696
 162	1	1	0.725698	-1.11186	7.81167	-2.1684
 163	1	2	0.009194	0.925429	7.07435	-2.22206
 164	1	3	-0.517699	-1.30756	7.80485	-3.6249
 165	1	4	-0.226077	-2.0584	7.55392	-1.68597
 166	1	4	-0.130348	-0.803332	8.81085	-1.83849
 167	1	2	0.087114	-0.303047	5.81118	-2.21688
 168	1	5	0.237906	-1.65852	6.87623	-3.85048
 169	1	1	-0.185789	1.2486	5.38549	1.58905
 170	1	1	0.725698	1.24629	5.69308	0.0694668
 171	1	2	0.009194	2.05704	4.66949	1.78602
 172	1	3	-0.517699	0.151838	6.59582	-0.302665
 173	1	4	-0.226077	2.19632	6.1657	-0.203589
 174	1	4	-0.130348	1.15047	4.75154	-0.483449
 175	1	2	0.087114	0.310057	4.86752	1.8266
 176	1	5	0.237906	0.353353	7.4844	0.15088
 177	1	1	-0.185789	1.45942	7.46947	4.81949
 178	1	1	0.725698	1.53068	6.21438	3.90999
 179	1	2	0.009194	1.64055	7.14627	5.85287
 180	1	3	-0.517699	1.41362	6.56356	2.48728
 181	1	4	-0.226077	2.48707	5.70279	4.05886
 182	1	4	-0.130348	0.722355	5.52922	4.19072
 183	1	2	0.087114	0.429133	7.84682	4.78959
 184	1	5	0.237906	2.27907	7.0497	2.2613
 185	1	1	-0.185789	3.38371	10.8007	4.94847
 186	1	1	0.725698	2.40651	9.69426	5.42162
 187	1	2	0.009194	4.38955	10.37	4.85777
 188	1	3	-0.517699	2.4069	8.56731	4.47768
 189	1	4	-0.226077	2.70762	9.33976	6.41354
 190	1	4	-0.130348	1.39295	10.1061	5.48631
 191	1	2	0.087114	3.0794	11.1125	3.94087
 192	1	5	0.237906	2.17329	8.94812	3.56419
 193	1	1	-0.185789	4.39205	14.2501	6.3606
 194	1	1	0.725698	4.35631	13.0471	5.38331
 195	1	2	0.009194	3.37825	14.6607	6.45901
 196	1	3	-0.517699	3.44067	11.9943	5.8369
 197	1	4	-0.226077	4.04153	13.396	4.39382
 198	1	4	-0.130348	5.36893	12.636	5.29615
 199	1	2	0.087114	4.99585	15.033	5.8842
 200	1	5	0.237906	3.74096	11.731	6.7742
 201	1	1	-0.185789	5.59694	14.7121	9.99936
 202	1	1	0.725698	5.12155	15.119	8.57953
 203	1	2	0.009194	5.68804	15.6227	10.6053
 204	1	3	-0.517699	4.93478	13.9452	7.71595
 205	1	4	-0.226077	4.17914	15.6698	8.66003
 206	1	4	-0.130348	5.87095	15.7788	8.12577
 207	1	2	0.087114	4.79359	14.1162	10.453
 208	1	5	0.237906	5.84731	13.4989	7.65098
 209	1	1	-0.185789	8.45488	12.5303	11.3901
 210	1	1	0.725698	7.29633	13.565	11.4188
 211	1	2	0.009194	8.09867	11.6495	10.8395
 212	1	3	-0.517699	6.88143	13.9542	10.06
 213	1	4	-0.226077	6.44316	13.112	11.9343
 214	1	4	-0.130348	7.6024	14.4581	11.9749
 215	1	2	0.087114	8.62868	12.1995	12.4216
 216	1	5	0.237906	7.63959	14.5139	9.67759
 217	1	1	-0.185789	11.5772	11.5307	11.7832
 218	1	1	0.725698	10.737	11.9517	10.5413
 219	1	2	0.009194	10.9393	11.4332	12.6708
 220	1	3	-0.517699	9.73502	13.0043	10.7848
 221	1	4	-0.226077	11.4103	12.3186	9.7609
 222	1	4	-0.130348	10.2283	11.0706	10.1342
 223	1	2	0.087114	11.9514	10.5225	11.5627
 224	1	5	0.237906	9.53489	13.3721	9.85826
 225	1	1	-0.185789	14.9922	12.7971	13.1009
 226	1	1	0.725698	13.7811	11.8331	12.9451
 227	1	2	0.009194	15.3161	13.1243	12.1038
 228	1	3	-0.517699	12.7416	12.4137	12.0806
 229	1	4	-0.226077	14.12	10.8896	12.5047
 230	1	4	-0.130348	13.3611	11.62	13.9348
 231	1	2	0.087114	14.6427	13.6986	13.6182
 232	1	5	0.237906	12.4312	13.2933	12.4866
 233	1	1	-0.185789	18.168	10.7237	13.9094
 234	1	1	0.725698	16.878	11.1413	13.1531
 235	1	2	0.009194	18.8694	11.5682	13.9265
 236	1	3	-0.517699	16.1764	12.2456	13.8262
 237	1	4	-0.226077	17.1516	11.4494	12.139
 238	1	4	-0.130348	16.2119	10.275	13.0848
 239	1	2	0.087114	18.6406	9.94863	13.2956
 240	1	5	0.237906	15.9117	11.9068	14.7476
 241	1	1	-0.185789	19.2324	8.07281	15.3774
 242	1	1	0.725698	19.0824	9.52089	15.9315
 243	1	2	0.009194	19.3954	8.1136	14.295
 244	1	3	-0.517699	17.9568	10.2356	15.3049
 245	1	4	-0.226077	18.8689	9.46987	17.0036
 246	1	4	-0.130348	20.0088	10.0893	15.7914
 247	1	2	0.087114	18.2718	7.56036	15.5146
 248	1	5	0.237906	17.7637	11.0332	15.9068
 249	1	1	-0.185789	19.0618	6.21519	17.8464
 250	1	1	0.725698	20.3332	6.99766	17.4111
 251	1	2	0.009194	18.1919	6.87709	17.7581
 252	1	3	-0.517699	20.3417	7.26133	15.9612
 253	1	4	-0.226077	20.4	7.93965	17.9634
 254	1	4	-0.130348	21.219	6.39764	17.6461
 255	1	2	0.087114	18.9001	5.39572	17.1346
 256	1	5	0.237906	20.3814	6.35698	15.4972
 257	1	1	-0.185789	19.5633	3.68647	20.644
 258	1	1	0.725698	20.0942	4.65892	19.5534
 259	1	2	0.009194	18.8965	2.96799	20.1514
 260	1	3	-0.517699	19.065	5.65639	19.2246
 261	1	4	-0.226077	20.9855	5.18597	19.9063
 262	1	4	-0.130348	20.3614	4.08163	18.6607
 263	1	2	0.087114	20.4038	3.10134	21.0394
 264	1	5	0.237906	19.1468	6.39735	19.9186
 265	1	1	-0.185789	18.661	5.984	23.606
 266	1	1	0.725698	19.581	5.12937	22.6951
 267	1	2	0.009194	18.2916	6.83846	23.0244
 268	1	3	-0.517699	18.7983	4.32439	21.7518
 269	1	4	-0.226077	20.2253	5.80939	22.1279
 270	1	4	-0.130348	20.2144	4.47187	23.3014
 271	1	2	0.087114	19.291	6.39895	24.4033
 272	1	5	0.237906	18.0884	4.93471	21.3527
 273	1	1	-0.185789	15.4571	5.2826	25.637
 274	1	1	0.725698	16.7368	6.04168	25.1878
 275	1	2	0.009194	15.7077	4.22653	25.7998
 276	1	3	-0.517699	17.4938	5.27101	24.1966
 277	1	4	-0.226077	16.4643	7.01583	24.7708
 278	1	4	-0.130348	17.3748	6.21519	26.0616
 279	1	2	0.087114	15.1696	5.67754	26.6194
 280	1	5	0.237906	16.8377	5.0019	23.4654
 281	1	1	-0.185789	12.3909	6.65284	23.7752
 282	1	1	0.725698	13.7181	6.71032	24.5434
 283	1	2	0.009194	12.5333	6.23345	22.7717
 284	1	3	-0.517699	14.287	5.36468	24.7151
 285	1	4	-0.226077	14.4201	7.34799	24.0007
 286	1	4	-0.130348	13.5314	7.1512	25.5292
 287	1	2	0.087114	11.984	7.66479	23.6707
 288	1	5	0.237906	13.5373	4.77833	25.0757
 289	1	5	0	-6.21794	-13.2292	-11.7177
 290	1	2	0	11.6545	6.04001	24.3108

Velocities

   1	-4.30599e-06	0.000359367	-0.000561268
   2	0.000920099	-4.94717e-05	-0.000803741
   3	0.000878985	0.000760814	-0.000145755
   4	-0.000768319	-0.000489736	-0.00160952
   5	0.00186689	0.00139212	0.000175544
   6	0.00259113	-0.00122335	-0.00144274
   7	-0.000691703	0.00108649	3.72567e-05
   8	-0.00429739	-0.00245944	-0.00193456
   9	-0.000142806	2.3254e-05	-4.90869e-05
  10	-0.000567618	-0.000319978	-0.000629711
  11	-0.000513815	0.000137895	0.000393186
  12	-0.000442818	-0.000388534	-0.000974882
  13	-0.000811513	-0.000396218	-0.000669268
  14	-0.000771307	-3.84798e-05	-0.000431124
  15	8.45147e-05	-0.000212852	-0.000247791
  16	-0.00038777	-0.000615288	-7.12124e-05
  17	-0.000384758	-7.50887e-06	0.000360563
  18	-4.33111e-05	-1.84047e-05	0.000448582
  19	-0.000626832	4.27861e-05	0.000252936
  20	5.54814e-05	-3.87423e-05	0.000510655
  21	-0.000247239	0.00017543	0.000716495
  22	-0.00010531	-5.40966e-07	0.000443546
  23	-0.000567253	0.000170055	0.000559604
  24	0.000218049	0.000483517	0.000791548
  25	0.000174081	3.64953e-05	2.3562e-06
  26	-0.00018321	-6.1458e-05	1.43759e-05
  27	0.000156719	-1.07985e-05	2.85669e-05
  28	-0.000189552	-4.89689e-05	0.000152113
  29	-0.000148178	-0.000110065	9.56161e-05
  30	-0.000278755	5.23963e-05	-6.32725e-05
  31	4.44146e-05	-3.52338e-05	-4.13476e-05
  32	-0.000201833	-0.000123166	0.000153311
  33	-5.29996e-05	0.000132442	1.49344e-05
  34	2.02464e-06	-3.55968e-05	4.89613e-05
  35	-0.000233986	6.64269e-05	0.000198853
  36	8.65921e-05	0.000117545	-0.000255086
  37	-0.00023067	5.51835e-05	0.000161782
  38	4.09716e-05	-0.000319639	7.90188e-05
  39	-8.05149e-05	0.000472745	-1.33209e-05
  40	0.000323816	1.87131e-05	-0.000370544
  41	0.000350437	3.75033e-05	2.8923e-05
  42	0.000353973	0.000245045	-0.000237181
  43	0.000373527	2.16106e-05	-5.28472e-05
  44	0.000345944	0.000100281	-0.000105138
  45	0.00062132	0.000224505	-0.00046154
  46	0.000216347	0.000559188	-0.000295823
  47	0.000225975	0.000127867	0.000213577
  48	0.000377221	-0.000148497	-4.86267e-05
  49	0.000256232	-0.000255103	3.05246e-05
  50	0.000495836	-0.000402104	0.000302564
  51	0.000407368	2.03955e-05	-7.18032e-05
  52	0.000450861	-0.000200094	7.58377e-05
  53	0.000391867	-0.000738929	0.000430497
  54	0.00083811	-0.000301823	0.000460739
  55	0.000242498	-0.000423663	0.000151698
  56	0.000490931	-0.000281344	-8.68085e-05
  57	-0.000148378	0.000168441	-0.000119076
  58	-0.000216915	-0.000156805	-0.000210549
  59	-0.000203521	0.000289342	-9.88097e-05
  60	-0.000172693	-0.000270807	-0.000193112
  61	-0.000444018	-0.000194853	-0.000305613
  62	-0.00010586	-0.000328101	-0.000168594
  63	7.96624e-05	0.000178345	-0.000108578
  64	-0.000312966	-5.78712e-05	-0.000274927
  65	-0.000410363	0.000246752	-0.000105249
  66	-0.000493029	0.000205309	-8.06619e-05
  67	-0.000705463	0.000206275	-3.51511e-05
  68	-0.000272124	0.000254616	-9.69949e-05
  69	-0.000511556	1.27075e-05	-1.7998e-05
  70	-0.000660167	0.00030397	-9.79525e-05
  71	-0.000300523	0.000596179	-0.000227418
  72	-0.000278181	0.000379344	-4.98009e-06
  73	0.000323003	0.000237701	-5.30015e-05
  74	0.000252608	2.71636e-05	-0.000179617
  75	0.000409733	0.000204197	-0.000126181
  76	2.48623e-05	1.2491e-05	-8.09994e-05
  77	0.000441891	1.9161e-05	-0.000205807
  78	0.000231192	-0.000116314	-0.000240803
  79	0.000453107	0.000368616	6.94602e-05
  80	0.000117732	-6.8966e-06	-0.000101795
  81	-0.000219833	5.25721e-05	0.000344907
  82	-0.000119035	0.000173253	0.000128789
  83	-0.000666786	0.000271964	0.000315869
  84	0.000108627	0.000203206	0.000234289
  85	-0.000251173	0.000166892	0.000130172
  86	-0.00015595	0.000210445	-2.83085e-05
  87	-0.000268325	-0.000251252	0.000756934
  88	8.82665e-05	0.000212943	0.000393013
  89	0.000199877	0.000183481	0.000289924
  90	0.000436453	-8.47473e-05	0.000241523
  91	-7.27299e-06	0.000110775	0.00045903
  92	0.000274371	0.000120884	0.000188835
  93	0.000475746	-0.000472574	0.000459393
  94	0.000851493	-3.58663e-05	8.71037e-05
  95	0.000159277	0.000367028	0.00014473
  96	0.000504957	-2.74427e-05	0.00021571
  97	0.000280605	0.000263904	0.000174151
  98	0.000208262	0.000307218	0.000286301
  99	0.000320077	0.000185731	0.00025694
 100	0.000255123	0.00013039	0.000246213
 101	9.13152e-05	0.000252875	0.000403184
 102	0.000160149	0.000447538	0.000240855
 103	0.000212173	0.000432683	0.000231327
 104	0.000282545	0.00010144	0.000292826
 105	-0.000166549	0.000120437	-0.000232286
 106	0.000411496	0.000422275	-0.000433048
 107	-3.12476e-05	-0.000268185	3.91337e-05
 108	0.000370192	0.000288395	2.74473e-05
 109	0.000208556	0.000665167	-0.00101864
 110	0.00102441	0.000630965	-0.000421889
 111	-0.00037452	0.000298774	-0.00041186
 112	0.00017193	2.82659e-05	-3.47865e-05
 113	-0.000654839	-0.000209286	-0.000151793
 114	-0.000901786	-0.000320245	-0.000174771
 115	-0.000509413	-7.31387e-05	-0.000285619
 116	-0.000609948	-7.00679e-05	-0.000242989
 117	-0.00119336	-0.000303349	-7.14616e-05
 118	-0.000845475	-0.000619586	-0.000302624
 119	-0.000652865	-0.000154463	-0.000244562
 120	-0.000758294	9.84715e-05	-0.000492429
 121	0.000501752	-0.000765539	0.00142683
 122	-0.000546533	-0.000396495	0.000398456
 123	0.00041622	-0.000958096	0.00249264
 124	-0.000397311	-0.000296116	0.000233302
 125	-0.00152012	-0.00034668	0.000763515
 126	-0.000399845	-0.00012772	-0.000528027
 127	0.00158767	-0.000922151	0.00102156
 128	-0.000546112	-0.000403697	0.000596017
 129	-3.08232e-05	-5.23389e-05	-0.000680927
 130	0.000331429	-0.000631414	-2.66631e-06
 131	2.79232e-06	-0.000206189	-0.00146624
 132	0.000129532	-0.000759144	0.00163831
 133	3.24505e-06	-0.000159523	-0.000360561
 134	0.001114	-0.00147842	-0.000365326
 135	0.000110326	-0.000276646	-0.00054334
 136	0.000850306	-0.00106036	0.00255887
 137	-0.000296786	0.000202375	-0.000657054
 138	-0.000685395	0.00103357	-0.000775859
 139	-0.000439486	-0.000360571	-0.00115042
 140	-0.000496435	0.000814193	-0.000560423
 141	-0.00120094	0.00117915	-0.00131505
 142	-0.000440639	0.00170704	-0.000433972
 143	-0.000326018	0.000365747	-0.000608781
 144	-0.000562734	0.000940874	3.62025e-05
 145	0.000854488	-0.000723397	0.000428766
 146	0.000997965	-0.000730272	4.54072e-05
 147	0.000522064	-0.000655287	0.00103803
 148	0.000365501	-7.54696e-05	-9.35928e-05
 149	0.00128932	-0.000926669	-0.000572486
 150	0.00118858	-0.000997865	0.000431448
 151	0.00123766	-0.00121562	0.000534844
 152	0.000374589	-0.000244531	-0.000253906
 153	0.00023627	0.000753139	0.00108103
 154	0.000209405	-5.25938e-05	0.00085882
 155	0.000565112	0.00157929	0.00100896
 156	0.000556136	-8.15514e-05	-3.29126e-06
 157	7.29923e-05	-0.000766475	0.00100782
 158	3.36293e-05	0.000128739	0.00132724
 159	-0.000107289	0.000763542	0.00191638
 160	0.000178459	0.000687659	-0.0001218
 161	0.00044347	0.000503554	0.000288887
 162	-0.000265429	-0.000175172	0.000681016
 163	0.000432563	0.00182714	0.00110948
 164	0.000444136	0.000786924	0.000623795
 165	-0.000262437	-0.00145862	6.70188e-05
 166	-0.00129883	-0.000191193	0.00167473
 167	0.00161552	0.000622662	-0.000675236
 168	0.000906932	0.000790346	-0.000158125
 169	0.000132666	0.000415532	6.91739e-05
 170	-5.90157e-05	-0.000111555	4.17127e-05
 171	0.000449971	0.00085437	0.000313833
 172	-0.000292412	-0.000416395	0.00018802
 173	-0.000185698	-2.49896e-05	-0.000253833
 174	-8.26571e-05	-0.000275055	0.000317849
 175	0.000346312	0.000141716	0.000276381
 176	-0.000937449	-0.000622166	0.00090659
 177	-0.000227844	0.000787469	-0.000331122
 178	-0.00050411	0.000850074	-0.000361499
 179	-0.000249675	0.000658058	-0.000371101
 180	-0.000373195	0.000791959	-0.000341059
 181	-0.000651228	0.000648045	-0.000401765
 182	-0.000675275	0.00105913	-0.000395228
 183	-0.000125042	0.0010702	-0.000288738
 184	-0.000460565	0.000965143	-0.000340404
 185	0.000439868	1.70303e-06	0.000107978
 186	-0.000336924	0.00057269	-0.000444335
 187	0.000302747	-0.000475021	0.000708123
 188	7.04831e-05	0.000468948	-0.000253399
 189	-0.0013146	0.000642455	-0.000129414
 190	-0.000257845	0.000956783	-0.00142836
 191	0.0011685	0.000142799	-7.95907e-05
 192	0.000528342	0.000377139	-0.00041217
 193	0.00152636	-0.00077652	0.000500161
 194	0.000662685	-0.000384834	0.000126724
 195	0.00191624	0.000258403	0.00011939
 196	0.000481562	-0.000120369	0.000158489
 197	0.000249899	0.000115709	0.000416119
 198	0.000444655	-0.000751732	-0.000558398
 199	0.0025671	-0.00132806	0.000947392
 200	0.000505158	-0.000235398	0.000149141
 201	0.00112912	-0.000716345	0.000579187
 202	0.000402959	-0.00137181	0.000662886
 203	0.00129645	-0.000439448	0.000125812
 204	0.000548943	-0.00147669	0.000757454
 205	0.000142993	-0.00186834	0.000972364
 206	-0.000141853	-0.00103695	0.000277575
 207	0.00147981	-0.000681865	0.00121225
 208	0.000422508	-0.0018288	0.00124999
 209	0.00132412	-0.000220487	0.000127688
 210	0.00106245	-0.00064368	0.000283321
 211	0.00117096	-0.000815812	0.00118701
 212	0.00127857	-0.000394836	0.000325966
 213	0.00110566	-0.00112342	-4.74179e-05
 214	0.000678013	-0.000757428	0.000650131
 215	0.00240386	0.000763076	0.000261964
 216	0.00120756	5.77671e-06	0.000698605
 217	0.000203229	-2.01746e-05	-0.0014657
 218	0.000574401	1.27282e-05	-0.00166723
 219	-0.000147651	-0.000600159	-0.00178451
 220	0.000479435	-0.000189311	-0.00158264
 221	0.000706387	0.000144319	-0.00150061
 222	0.000671117	2.12174e-05	-0.00181296
 223	0.000736253	0.000229656	-0.00160458
 224	-0.000610442	-0.000999103	-0.00170314
 225	-0.000964075	0.000421999	0.000769555
 226	-0.00101189	0.000591912	0.000211005
 227	-0.000799226	0.000766646	0.000939869
 228	-0.00038523	0.000414091	-0.000623686
 229	-0.000867232	0.000462908	0.000630475
 230	-0.00174485	0.0008391	-3.80971e-05
 231	-0.000912718	0.000243866	0.00112219
 232	-0.00100646	0.000306532	-0.000806195
 233	-0.0013775	-0.000749735	-0.000456368
 234	-0.00147727	-9.31127e-05	8.35171e-05
 235	-0.000893424	-0.00113571	-0.000832338
 236	-0.00109284	-0.000129986	0.00058135
 237	-0.00157421	0.000307578	0.000193847
 238	-0.00167461	8.47746e-05	-0.000168989
 239	-0.00216901	-0.00108353	-0.000632207
 240	-0.00127856	-0.000502238	0.00041288
 241	0.00115239	0.000449002	-0.000924045
 242	-0.000819291	-6.89249e-05	-7.13922e-05
 243	0.00304729	0.00135327	-0.000614996
 244	-0.0010556	-0.00060102	-0.000306942
 245	-0.00174086	-0.00105202	-0.000296179
 246	-0.00130266	0.000981086	0.00119892
 247	0.00134402	-0.000381632	-0.00289159
 248	-0.00131146	-0.000536462	-0.000477734
 249	-0.000945753	-9.84446e-05	-0.00110465
 250	-0.000795324	0.000442646	0.000282076
 251	-0.00111823	-0.000466427	-0.00182524
 252	0.000724063	0.000734097	0.000371382
 253	-0.0016703	0.000320596	0.000561999
 254	-0.000851573	0.000723355	0.0010836
 255	5.39621e-05	-5.75275e-05	-0.00140332
 256	0.00170617	0.000862483	0.000195027
 257	-0.00114366	0.000559735	-0.000181355
 258	-0.00135042	0.000375718	-0.000363232
 259	-0.00124381	0.000537032	0.000154988
 260	-0.00185898	-0.000438886	-0.00116742
 261	-0.00181418	0.00107589	-0.000238781
 262	-0.000644187	0.00021409	-1.33032e-05
 263	-0.000994015	0.000577306	-0.000230141
 264	-0.00304371	-0.00042828	-0.00104022
 265	-0.000328391	0.000632296	-3.35087e-05
 266	-0.000510056	0.000863408	-0.000454911
 267	-0.000846609	0.000448651	-9.3172e-06
 268	-0.000720874	0.000660469	-4.95673e-05
 269	-0.000810804	0.00104205	-0.000736137
 270	-2.28528e-05	0.000958581	-0.000662432
 271	-4.62665e-05	0.00100246	-0.000346998
 272	-0.000947436	0.000729087	0.000132549
 273	0.000585929	0.00029888	0.00139876
 274	0.000508287	2.2882e-06	0.00116636
 275	0.000537912	0.000345781	0.00206514
 276	0.000165318	0.000366863	0.000610372
 277	0.000667614	0.00032812	0.00157566
 278	0.000933672	-0.000385949	0.000893567
 279	0.000307173	0.000827335	0.000809271
 280	-3.47784e-05	0.000260273	0.00071384
 281	0.00105089	-0.000979258	-0.0011661
 282	0.000528205	-0.00058644	-0.000331414
 283	0.0016817	-0.00154122	-0.000921251
 284	0.000666198	-0.000399412	0.000977382
 285	0.000774393	-0.000693333	-1.93296e-05
 286	-0.000263345	-0.000485067	-0.000489968
 287	0.00123669	-0.00102309	-0.00200369
 288	0.000612484	-0.000323632	0.00103343
 289	0.000637459	-0.000588593	0.00157721
 290	0.000902309	-0.000654468	-0.00114704

Bonds

   1	4	1	2
   2	5	1	3
   3	5	1	7
   4	2	2	4
   5	1	2	5
   6	1	2	6
   7	3	4	8
   8	4	9	10
   9	5	9	11
  10	5	9	15
  11	2	10	12
  12	1	10	13
  13	1	10	14
  14	3	12	16
  15	2	1	12
  16	4	17	18
  17	5	17	19
  18	5	17	23
  19	2	18	20
  20	1	18	21
  21	1	18	22
  22	3	20	24
  23	2	9	20
  24	4	25	26
  25	5	25	27
  26	5	25	31
  27	2	26	28
  28	1	26	29
  29	1	26	30
  30	3	28	32
  31	2	17	28
  32	4	33	34
  33	5	33	35
  34	5	33	39
  35	2	34	36
  36	1	34	37
  37	1	34	38
  38	3	36	40
  39	2	25	36
  40	4	41	42
  41	5	41	43
  42	5	41	47
  43	2	42	44
  44	1	42	45
  45	1	42	46
  46	3	44	48
  47	2	33	44
  48	4	49	50
  49	5	49	51
  50	5	49	55
  51	2	50	52
  52	1	50	53
  53	1	50	54
  54	3	52	56
  55	2	41	52
  56	4	57	58
  57	5	57	59
  58	5	57	63
  59	2	58	60
  60	1	58	61
  61	1	58	62
  62	3	60	64
  63	2	49	60
  64	4	65	66
  65	5	65	67
  66	5	65	71
  67	2	66	68
  68	1	66	69
  69	1	66	70
  70	3	68	72
  71	2	57	68
  72	4	73	74
  73	5	73	75
  74	5	73	79
  75	2	74	76
  76	1	74	77
  77	1	74	78
  78	3	76	80
  79	2	65	76
  80	4	81	82
  81	5	81	83
  82	5	81	87
  83	2	82	84
  84	1	82	85
  85	1	82	86
  86	3	84	88
  87	2	73	84
  88	4	89	90
  89	5	89	91
  90	5	89	95
  91	2	90	92
  92	1	90	93
  93	1	90	94
  94	3	92	96
  95	2	81	92
  96	4	97	98
  97	5	97	99
  98	5	97	103
  99	2	98	100
 100	1	98	101
 101	1	98	102
 102	3	100	104
 103	2	89	100
 104	4	105	106
 105	5	105	107
 106	5	105	111
 107	2	106	108
 108	1	106	109
 109	1	106	110
 110	3	108	112
 111	2	97	108
 112	4	113	114
 113	5	113	115
 114	5	113	119
 115	2	114	116
 116	1	114	117
 117	1	114	118
 118	3	116	120
 119	2	105	116
 120	4	121	122
 121	5	121	123
 122	5	121	127
 123	2	122	124
 124	1	122	125
 125	1	122	126
 126	3	124	128
 127	2	113	124
 128	4	129	130
 129	5	129	131
 130	5	129	135
 131	2	130	132
 132	1	130	133
 133	1	130	134
 134	3	132	136
 135	2	121	132
 136	4	137	138
 137	5	137	139
 138	5	137	143
 139	2	138	140
 140	1	138	141
 141	1	138	142
 142	3	140	144
 143	2	129	140
 144	4	145	146
 145	5	145	147
 146	5	145	151
 147	2	146	148
 148	1	146	149
 149	1	146	150
 150	3	148	152
 151	2	137	148
 152	4	153	154
 153	5	153	155
 154	5	153	159
 155	2	154	156
 156	1	154	157
 157	1	154	158
 158	3	156	160
 159	2	145	156
 160	4	161	162
 161	5	161	163
 162	5	161	167
 163	2	162	164
 164	1	162	165
 165	1	162	166
 166	3	164	168
 167	2	153	164
 168	4	169	170
 169	5	169	171
 170	5	169	175
 171	2	170	172
 172	1	170	173
 173	1	170	174
 174	3	172	176
 175	2	161	172
 176	4	177	178
 177	5	177	179
 178	5	177	183
 179	2	178	180
 180	1	178	181
 181	1	178	182
 182	3	180	184
 183	2	169	180
 184	4	185	186
 185	5	185	187
 186	5	185	191
 187	2	186	188
 188	1	186	189
 189	1	186	190
 190	3	188	192
 191	2	177	188
 192	4	193	194
 193	5	193	195
 194	5	193	199
 195	2	194	196
 196	1	194	197
 197	1	194	198
 198	3	196	200
 199	2	185	196
 200	4	201	202
 201	5	201	203
 202	5	201	207
 203	2	202	204
 204	1	202	205
 205	1	202	206
 206	3	204	208
 207	2	193	204
 208	4	209	210
 209	5	209	211
 210	5	209	215
 211	2	210	212
 212	1	210	213
 213	1	210	214
 214	3	212	216
 215	2	201	212
 216	4	217	218
 217	5	217	219
 218	5	217	223
 219	2	218	220
 220	1	218	221
 221	1	218	222
 222	3	220	224
 223	2	209	220
 224	4	225	226
 225	5	225	227
 226	5	225	231
 227	2	226	228
 228	1	226	229
 229	1	226	230
 230	3	228	232
 231	2	217	228
 232	4	233	234
 233	5	233	235
 234	5	233	239
 235	2	234	236
 236	1	234	237
 237	1	234	238
 238	3	236	240
 239	2	225	236
 240	4	241	242
 241	5	241	243
 242	5	241	247
 243	2	242	244
 244	1	242	245
 245	1	242	246
 246	3	244	248
 247	2	233	244
 248	4	249	250
 249	5	249	251
 250	5	249	255
 251	2	250	252
 252	1	250	253
 253	1	250	254
 254	3	252	256
 255	2	241	252
 256	4	257	258
 257	5	257	259
 258	5	257	263
 259	2	258	260
 260	1	258	261
 261	1	258	262
 262	3	260	264
 263	2	249	260
 264	4	265	266
 265	5	265	267
 266	5	265	271
 267	2	266	268
 268	1	266	269
 269	1	266	270
 270	3	268	272
 271	2	257	268
 272	4	273	274
 273	5	273	275
 274	5	273	279
 275	2	274	276
 276	1	274	277
 277	1	274	278
 278	3	276	280
 279	2	265	276
 280	4	281	282
 281	5	281	283
 282	5	281	287
 283	2	282	284
 284	1	282	285
 285	1	282	286
 286	3	284	288
 287	2	273	284
 288	3	4	289
 289	5	281	290
