

################################################################################
##################################    Init    ##################################
################################################################################
units           real
atom_style      full
pair_style      lj/cut/coul/long 12.0  12.0
kspace_style    pppm 1e-4
bond_style      harmonic
angle_style     harmonic
dihedral_style  fourier
special_bonds   amber
pair_modify     mix arithmetic
read_data       temp.lmps
  orthogonal box = (-44.7194 -44.7194 -44.7194) to (44.7194 44.7194 44.7194)
  1 by 1 by 1 MPI processor grid
  reading atoms ...
  16 atoms
  reading velocities ...
  16 velocities
  scanning bonds ...
  4 = max bonds/atom
  scanning angles ...
  6 = max angles/atom
  scanning dihedrals ...
  12 = max dihedrals/atom
  reading bonds ...
  15 bonds
  reading angles ...
  25 angles
  reading dihedrals ...
  30 dihedrals
  4 = max # of 1-2 neighbors
  6 = max # of 1-3 neighbors
  11 = max # of 1-4 neighbors
  14 = max # of special neighbors
  special bonds CPU = 0.000336885 secs
  read_data CPU = 0.00612402 secs
################################################################################

timestep        1
fix             pysimm_md all nve/limit 0.1
run             2000
PPPM initialization ...
  using 12-bit tables for long-range coulomb (../kspace.cpp:332)
  G vector (1/distance) = 0.106946
  grid = 9 9 9
  stencil order = 5
  estimated absolute RMS force accuracy = 0.029686
  estimated relative force accuracy = 8.93985e-05
  using double precision KISS FFT
  3d grid and FFT values/proc = 2744 729
Neighbor list info ...
  update every 1 steps, delay 10 steps, check yes
  max neighbors/atom: 2000, page size: 100000
  master list distance cutoff = 14
  ghost atom cutoff = 14
  binsize = 7, bins = 13 13 13
  1 neighbor lists, perpetual/occasional/extra = 1 0 0
  (1) pair lj/cut/coul/long, perpetual
      attributes: half, newton on
      pair build: half/bin/newton
      stencil: half/bin/3d/newton
      bin: standard
Per MPI rank memory allocation (min/avg/max) = 13.14 | 13.14 | 13.14 Mbytes
Step Temp E_pair E_mol TotEng Press 
       0  0.038993303   -7.8940837    103.88459    95.992247   -11.597763 
    2000    852.37965    1.1796631    34.661142    73.952532   -6.6943355 
Loop time of 0.695936 on 1 procs for 2000 steps with 16 atoms

Performance: 248.299 ns/day, 0.097 hours/ns, 2873.828 timesteps/s
100.0% CPU use with 1 MPI tasks x no OpenMP threads

MPI task timing breakdown:
Section |  min time  |  avg time  |  max time  |%varavg| %total
---------------------------------------------------------------
Pair    | 0.01546    | 0.01546    | 0.01546    |   0.0 |  2.22
Bond    | 0.017525   | 0.017525   | 0.017525   |   0.0 |  2.52
Kspace  | 0.6555     | 0.6555     | 0.6555     |   0.0 | 94.19
Neigh   | 0.0018284  | 0.0018284  | 0.0018284  |   0.0 |  0.26
Comm    | 0.0011203  | 0.0011203  | 0.0011203  |   0.0 |  0.16
Output  | 1.7881e-05 | 1.7881e-05 | 1.7881e-05 |   0.0 |  0.00
Modify  | 0.0017533  | 0.0017533  | 0.0017533  |   0.0 |  0.25
Other   |            | 0.002729   |            |       |  0.39

Nlocal:    16 ave 16 max 16 min
Histogram: 1 0 0 0 0 0 0 0 0 0
Nghost:    4 ave 4 max 4 min
Histogram: 1 0 0 0 0 0 0 0 0 0
Neighs:    120 ave 120 max 120 min
Histogram: 1 0 0 0 0 0 0 0 0 0

Total # of neighbors = 120
Ave neighs/atom = 7.5
Ave special neighs/atom = 8.75
Neighbor list builds = 80
Dangerous builds = 0
unfix pysimm_md
min_style cg
minimize 0.001 0.001 10000 100000
WARNING: Using 'neigh_modify every 1 delay 0 check yes' setting during minimization (../min.cpp:190)
PPPM initialization ...
  using 12-bit tables for long-range coulomb (../kspace.cpp:332)
  G vector (1/distance) = 0.106946
  grid = 9 9 9
  stencil order = 5
  estimated absolute RMS force accuracy = 0.029686
  estimated relative force accuracy = 8.93985e-05
  using double precision KISS FFT
  3d grid and FFT values/proc = 2744 729
Per MPI rank memory allocation (min/avg/max) = 14.26 | 14.26 | 14.26 Mbytes
Step Temp E_pair E_mol TotEng Press 
    2000    852.37965    1.1796631    34.661142    73.952532   -6.6943355 
    2082    852.37965 -0.0024684963   0.93168153     39.04094    2.5114122 
Loop time of 0.052804 on 1 procs for 82 steps with 16 atoms

100.4% CPU use with 1 MPI tasks x no OpenMP threads

Minimization stats:
  Stopping criterion = energy tolerance
  Energy initial, next-to-last, final = 
         35.8408048397     0.930062261386     0.929213033569
  Force two-norm initial, final = 236.959 1.04798
  Force max component initial, final = 100.602 0.424684
  Final line search alpha, max atom move = 0.0762306 0.0323739
  Iterations, force evaluations = 82 170

MPI task timing breakdown:
Section |  min time  |  avg time  |  max time  |%varavg| %total
---------------------------------------------------------------
Pair    | 0.0017054  | 0.0017054  | 0.0017054  |   0.0 |  3.23
Bond    | 0.0013537  | 0.0013537  | 0.0013537  |   0.0 |  2.56
Kspace  | 0.049119   | 0.049119   | 0.049119   |   0.0 | 93.02
Neigh   | 0          | 0          | 0          |   0.0 |  0.00
Comm    | 7.1049e-05 | 7.1049e-05 | 7.1049e-05 |   0.0 |  0.13
Output  | 0          | 0          | 0          |   0.0 |  0.00
Modify  | 0          | 0          | 0          |   0.0 |  0.00
Other   |            | 0.0005543  |            |       |  1.05

Nlocal:    16 ave 16 max 16 min
Histogram: 1 0 0 0 0 0 0 0 0 0
Nghost:    4 ave 4 max 4 min
Histogram: 1 0 0 0 0 0 0 0 0 0
Neighs:    120 ave 120 max 120 min
Histogram: 1 0 0 0 0 0 0 0 0 0

Total # of neighbors = 120
Ave neighs/atom = 7.5
Ave special neighs/atom = 8.75
Neighbor list builds = 0
Dangerous builds = 0
write_dump all custom pysimm.dump.tmp id q x y z vx vy vz
quit


################################################################################
##################################    Init    ##################################
################################################################################
units           real
atom_style      full
pair_style      lj/cut/coul/long 12.0  12.0
kspace_style    pppm 1e-4
bond_style      harmonic
angle_style     harmonic
dihedral_style  fourier
special_bonds   amber
pair_modify     mix arithmetic
read_data       temp.lmps
  orthogonal box = (-44.7194 -44.7194 -44.7194) to (44.7194 44.7194 44.7194)
  1 by 1 by 1 MPI processor grid
  reading atoms ...
  24 atoms
  reading velocities ...
  24 velocities
  scanning bonds ...
  4 = max bonds/atom
  scanning angles ...
  6 = max angles/atom
  scanning dihedrals ...
  12 = max dihedrals/atom
  reading bonds ...
  23 bonds
  reading angles ...
  40 angles
  reading dihedrals ...
  51 dihedrals
  4 = max # of 1-2 neighbors
  6 = max # of 1-3 neighbors
  12 = max # of 1-4 neighbors
  15 = max # of special neighbors
  special bonds CPU = 0.00032711 secs
  read_data CPU = 0.006037 secs
################################################################################

timestep        1
fix             pysimm_md all nve/limit 0.1
run             2000
PPPM initialization ...
  using 12-bit tables for long-range coulomb (../kspace.cpp:332)
  G vector (1/distance) = 0.106946
  grid = 9 9 9
  stencil order = 5
  estimated absolute RMS force accuracy = 0.0363579
  estimated relative force accuracy = 0.000109491
  using double precision KISS FFT
  3d grid and FFT values/proc = 2744 729
Neighbor list info ...
  update every 1 steps, delay 10 steps, check yes
  max neighbors/atom: 2000, page size: 100000
  master list distance cutoff = 14
  ghost atom cutoff = 14
  binsize = 7, bins = 13 13 13
  1 neighbor lists, perpetual/occasional/extra = 1 0 0
  (1) pair lj/cut/coul/long, perpetual
      attributes: half, newton on
      pair build: half/bin/newton
      stencil: half/bin/3d/newton
      bin: standard
Per MPI rank memory allocation (min/avg/max) = 13.2 | 13.2 | 13.2 Mbytes
Step Temp E_pair E_mol TotEng Press 
       0    555.91302    18.370612    178.41475      234.898   -7.0853805 
    2000    644.54612    16.546138    71.395913    132.13125    5.0871275 
Loop time of 0.476425 on 1 procs for 2000 steps with 24 atoms

Performance: 362.701 ns/day, 0.066 hours/ns, 4197.931 timesteps/s
99.7% CPU use with 1 MPI tasks x no OpenMP threads

MPI task timing breakdown:
Section |  min time  |  avg time  |  max time  |%varavg| %total
---------------------------------------------------------------
Pair    | 0.019612   | 0.019612   | 0.019612   |   0.0 |  4.12
Bond    | 0.01748    | 0.01748    | 0.01748    |   0.0 |  3.67
Kspace  | 0.43338    | 0.43338    | 0.43338    |   0.0 | 90.97
Neigh   | 0.0017545  | 0.0017545  | 0.0017545  |   0.0 |  0.37
Comm    | 0.00082374 | 0.00082374 | 0.00082374 |   0.0 |  0.17
Output  | 1.4782e-05 | 1.4782e-05 | 1.4782e-05 |   0.0 |  0.00
Modify  | 0.0014162  | 0.0014162  | 0.0014162  |   0.0 |  0.30
Other   |            | 0.001939   |            |       |  0.41

Nlocal:    24 ave 24 max 24 min
Histogram: 1 0 0 0 0 0 0 0 0 0
Nghost:    1 ave 1 max 1 min
Histogram: 1 0 0 0 0 0 0 0 0 0
Neighs:    276 ave 276 max 276 min
Histogram: 1 0 0 0 0 0 0 0 0 0

Total # of neighbors = 276
Ave neighs/atom = 11.5
Ave special neighs/atom = 9.5
Neighbor list builds = 79
Dangerous builds = 0
unfix pysimm_md
min_style cg
minimize 0.001 0.001 10000 100000
WARNING: Using 'neigh_modify every 1 delay 0 check yes' setting during minimization (../min.cpp:190)
PPPM initialization ...
  using 12-bit tables for long-range coulomb (../kspace.cpp:332)
  G vector (1/distance) = 0.106946
  grid = 9 9 9
  stencil order = 5
  estimated absolute RMS force accuracy = 0.0363579
  estimated relative force accuracy = 0.000109491
  using double precision KISS FFT
  3d grid and FFT values/proc = 2744 729
Per MPI rank memory allocation (min/avg/max) = 14.32 | 14.32 | 14.32 Mbytes
Step Temp E_pair E_mol TotEng Press 
    2000    644.54612    16.546138    71.395913    132.13125    5.0871275 
    2043    644.54612    15.953667    7.9135549    68.056422    2.9668881 
Loop time of 0.0204999 on 1 procs for 43 steps with 24 atoms

97.5% CPU use with 1 MPI tasks x no OpenMP threads

Minimization stats:
  Stopping criterion = energy tolerance
  Energy initial, next-to-last, final = 
         87.9420512916      23.8866883956      23.8672222672
  Force two-norm initial, final = 299.544 4.73468
  Force max component initial, final = 112.256 1.71656
  Final line search alpha, max atom move = 0.0246274 0.0422746
  Iterations, force evaluations = 43 86

MPI task timing breakdown:
Section |  min time  |  avg time  |  max time  |%varavg| %total
---------------------------------------------------------------
Pair    | 0.0013793  | 0.0013793  | 0.0013793  |   0.0 |  6.73
Bond    | 0.00084233 | 0.00084233 | 0.00084233 |   0.0 |  4.11
Kspace  | 0.01798    | 0.01798    | 0.01798    |   0.0 | 87.71
Neigh   | 0          | 0          | 0          |   0.0 |  0.00
Comm    | 4.1485e-05 | 4.1485e-05 | 4.1485e-05 |   0.0 |  0.20
Output  | 0          | 0          | 0          |   0.0 |  0.00
Modify  | 0          | 0          | 0          |   0.0 |  0.00
Other   |            | 0.0002568  |            |       |  1.25

Nlocal:    24 ave 24 max 24 min
Histogram: 1 0 0 0 0 0 0 0 0 0
Nghost:    1 ave 1 max 1 min
Histogram: 1 0 0 0 0 0 0 0 0 0
Neighs:    276 ave 276 max 276 min
Histogram: 1 0 0 0 0 0 0 0 0 0

Total # of neighbors = 276
Ave neighs/atom = 11.5
Ave special neighs/atom = 9.5
Neighbor list builds = 0
Dangerous builds = 0
write_dump all custom pysimm.dump.tmp id q x y z vx vy vz
quit


################################################################################
##################################    Init    ##################################
################################################################################
units           real
atom_style      full
pair_style      lj/cut/coul/long 12.0  12.0
kspace_style    pppm 1e-4
bond_style      harmonic
angle_style     harmonic
dihedral_style  fourier
special_bonds   amber
pair_modify     mix arithmetic
read_data       temp.lmps
  orthogonal box = (-44.7194 -44.7194 -44.7194) to (44.7194 44.7194 44.7194)
  1 by 1 by 1 MPI processor grid
  reading atoms ...
  32 atoms
  reading velocities ...
  32 velocities
  scanning bonds ...
  4 = max bonds/atom
  scanning angles ...
  6 = max angles/atom
  scanning dihedrals ...
  12 = max dihedrals/atom
  reading bonds ...
  31 bonds
  reading angles ...
  55 angles
  reading dihedrals ...
  72 dihedrals
  4 = max # of 1-2 neighbors
  6 = max # of 1-3 neighbors
  12 = max # of 1-4 neighbors
  15 = max # of special neighbors
  special bonds CPU = 0.000295162 secs
  read_data CPU = 0.00672889 secs
################################################################################

timestep        1
fix             pysimm_md all nve/limit 0.1
run             2000
PPPM initialization ...
  using 12-bit tables for long-range coulomb (../kspace.cpp:332)
  G vector (1/distance) = 0.114834
  grid = 10 10 10
  stencil order = 5
  estimated absolute RMS force accuracy = 0.0326337
  estimated relative force accuracy = 9.82753e-05
  using double precision KISS FFT
  3d grid and FFT values/proc = 3375 1000
Neighbor list info ...
  update every 1 steps, delay 10 steps, check yes
  max neighbors/atom: 2000, page size: 100000
  master list distance cutoff = 14
  ghost atom cutoff = 14
  binsize = 7, bins = 13 13 13
  1 neighbor lists, perpetual/occasional/extra = 1 0 0
  (1) pair lj/cut/coul/long, perpetual
      attributes: half, newton on
      pair build: half/bin/newton
      stencil: half/bin/3d/newton
      bin: standard
Per MPI rank memory allocation (min/avg/max) = 13.25 | 13.25 | 13.25 Mbytes
Step Temp E_pair E_mol TotEng Press 
       0    478.22125     33.41472     191.4677    269.07251   -7.3348338 
    2000     652.3498    30.071207    79.082315    169.43398   0.23231998 
Loop time of 0.646611 on 1 procs for 2000 steps with 32 atoms

Performance: 267.240 ns/day, 0.090 hours/ns, 3093.050 timesteps/s
100.2% CPU use with 1 MPI tasks x no OpenMP threads

MPI task timing breakdown:
Section |  min time  |  avg time  |  max time  |%varavg| %total
---------------------------------------------------------------
Pair    | 0.03238    | 0.03238    | 0.03238    |   0.0 |  5.01
Bond    | 0.023713   | 0.023713   | 0.023713   |   0.0 |  3.67
Kspace  | 0.58379    | 0.58379    | 0.58379    |   0.0 | 90.28
Neigh   | 0.001955   | 0.001955   | 0.001955   |   0.0 |  0.30
Comm    | 0.00078535 | 0.00078535 | 0.00078535 |   0.0 |  0.12
Output  | 1.4067e-05 | 1.4067e-05 | 1.4067e-05 |   0.0 |  0.00
Modify  | 0.0016015  | 0.0016015  | 0.0016015  |   0.0 |  0.25
Other   |            | 0.002371   |            |       |  0.37

Nlocal:    32 ave 32 max 32 min
Histogram: 1 0 0 0 0 0 0 0 0 0
Nghost:    3 ave 3 max 3 min
Histogram: 1 0 0 0 0 0 0 0 0 0
Neighs:    496 ave 496 max 496 min
Histogram: 1 0 0 0 0 0 0 0 0 0

Total # of neighbors = 496
Ave neighs/atom = 15.5
Ave special neighs/atom = 9.875
Neighbor list builds = 63
Dangerous builds = 0
unfix pysimm_md
min_style cg
minimize 0.001 0.001 10000 100000
WARNING: Using 'neigh_modify every 1 delay 0 check yes' setting during minimization (../min.cpp:190)
PPPM initialization ...
  using 12-bit tables for long-range coulomb (../kspace.cpp:332)
  G vector (1/distance) = 0.114834
  grid = 10 10 10
  stencil order = 5
  estimated absolute RMS force accuracy = 0.0326337
  estimated relative force accuracy = 9.82753e-05
  using double precision KISS FFT
  3d grid and FFT values/proc = 3375 1000
Per MPI rank memory allocation (min/avg/max) = 14.37 | 14.37 | 14.37 Mbytes
Step Temp E_pair E_mol TotEng Press 
    2000     652.3498    30.071207    79.082315    169.43398   0.23231998 
    2041     652.3498      33.8459    12.896686    107.02304    4.4918987 
Loop time of 0.0276589 on 1 procs for 41 steps with 32 atoms

101.2% CPU use with 1 MPI tasks x no OpenMP threads

Minimization stats:
  Stopping criterion = energy tolerance
  Energy initial, next-to-last, final = 
         109.153522016      46.7759938674      46.7425861165
  Force two-norm initial, final = 255.982 6.6922
  Force max component initial, final = 89.5523 2.10651
  Final line search alpha, max atom move = 0.0262057 0.0552026
  Iterations, force evaluations = 41 82

MPI task timing breakdown:
Section |  min time  |  avg time  |  max time  |%varavg| %total
---------------------------------------------------------------
Pair    | 0.0022645  | 0.0022645  | 0.0022645  |   0.0 |  8.19
Bond    | 0.0010934  | 0.0010934  | 0.0010934  |   0.0 |  3.95
Kspace  | 0.023993   | 0.023993   | 0.023993   |   0.0 | 86.74
Neigh   | 3.2902e-05 | 3.2902e-05 | 3.2902e-05 |   0.0 |  0.12
Comm    | 3.767e-05  | 3.767e-05  | 3.767e-05  |   0.0 |  0.14
Output  | 0          | 0          | 0          |   0.0 |  0.00
Modify  | 0          | 0          | 0          |   0.0 |  0.00
Other   |            | 0.0002379  |            |       |  0.86

Nlocal:    32 ave 32 max 32 min
Histogram: 1 0 0 0 0 0 0 0 0 0
Nghost:    4 ave 4 max 4 min
Histogram: 1 0 0 0 0 0 0 0 0 0
Neighs:    496 ave 496 max 496 min
Histogram: 1 0 0 0 0 0 0 0 0 0

Total # of neighbors = 496
Ave neighs/atom = 15.5
Ave special neighs/atom = 9.875
Neighbor list builds = 1
Dangerous builds = 0
write_dump all custom pysimm.dump.tmp id q x y z vx vy vz
quit


################################################################################
##################################    Init    ##################################
################################################################################
units           real
atom_style      full
pair_style      lj/cut/coul/long 12.0  12.0
kspace_style    pppm 1e-4
bond_style      harmonic
angle_style     harmonic
dihedral_style  fourier
special_bonds   amber
pair_modify     mix arithmetic
read_data       temp.lmps
  orthogonal box = (-44.7194 -44.7194 -44.7194) to (44.7194 44.7194 44.7194)
  1 by 1 by 1 MPI processor grid
  reading atoms ...
  40 atoms
  reading velocities ...
  40 velocities
  scanning bonds ...
  4 = max bonds/atom
  scanning angles ...
  6 = max angles/atom
  scanning dihedrals ...
  12 = max dihedrals/atom
  reading bonds ...
  39 bonds
  reading angles ...
  70 angles
  reading dihedrals ...
  93 dihedrals
  4 = max # of 1-2 neighbors
  6 = max # of 1-3 neighbors
  12 = max # of 1-4 neighbors
  15 = max # of special neighbors
  special bonds CPU = 0.000250101 secs
  read_data CPU = 0.00623107 secs
################################################################################

timestep        1
fix             pysimm_md all nve/limit 0.1
run             2000
PPPM initialization ...
  using 12-bit tables for long-range coulomb (../kspace.cpp:332)
  G vector (1/distance) = 0.114833
  grid = 10 10 10
  stencil order = 5
  estimated absolute RMS force accuracy = 0.0364854
  estimated relative force accuracy = 0.000109875
  using double precision KISS FFT
  3d grid and FFT values/proc = 3375 1000
Neighbor list info ...
  update every 1 steps, delay 10 steps, check yes
  max neighbors/atom: 2000, page size: 100000
  master list distance cutoff = 14
  ghost atom cutoff = 14
  binsize = 7, bins = 13 13 13
  1 neighbor lists, perpetual/occasional/extra = 1 0 0
  (1) pair lj/cut/coul/long, perpetual
      attributes: half, newton on
      pair build: half/bin/newton
      stencil: half/bin/3d/newton
      bin: standard
Per MPI rank memory allocation (min/avg/max) = 13.25 | 13.25 | 13.25 Mbytes
Step Temp E_pair E_mol TotEng Press 
       0      518.542    50.642439    188.49532    299.41909   -5.1521648 
    2000    591.68515     51.17555    89.403511     209.3634   -17.013104 
Loop time of 0.67656 on 1 procs for 2000 steps with 40 atoms

Performance: 255.410 ns/day, 0.094 hours/ns, 2956.131 timesteps/s
99.9% CPU use with 1 MPI tasks x no OpenMP threads

MPI task timing breakdown:
Section |  min time  |  avg time  |  max time  |%varavg| %total
---------------------------------------------------------------
Pair    | 0.047814   | 0.047814   | 0.047814   |   0.0 |  7.07
Bond    | 0.030231   | 0.030231   | 0.030231   |   0.0 |  4.47
Kspace  | 0.59085    | 0.59085    | 0.59085    |   0.0 | 87.33
Neigh   | 0.0025179  | 0.0025179  | 0.0025179  |   0.0 |  0.37
Comm    | 0.00095296 | 0.00095296 | 0.00095296 |   0.0 |  0.14
Output  | 1.502e-05  | 1.502e-05  | 1.502e-05  |   0.0 |  0.00
Modify  | 0.0020213  | 0.0020213  | 0.0020213  |   0.0 |  0.30
Other   |            | 0.002157   |            |       |  0.32

Nlocal:    40 ave 40 max 40 min
Histogram: 1 0 0 0 0 0 0 0 0 0
Nghost:    4 ave 4 max 4 min
Histogram: 1 0 0 0 0 0 0 0 0 0
Neighs:    779 ave 779 max 779 min
Histogram: 1 0 0 0 0 0 0 0 0 0

Total # of neighbors = 779
Ave neighs/atom = 19.475
Ave special neighs/atom = 10.1
Neighbor list builds = 60
Dangerous builds = 0
unfix pysimm_md
min_style cg
minimize 0.001 0.001 10000 100000
WARNING: Using 'neigh_modify every 1 delay 0 check yes' setting during minimization (../min.cpp:190)
PPPM initialization ...
  using 12-bit tables for long-range coulomb (../kspace.cpp:332)
  G vector (1/distance) = 0.114833
  grid = 10 10 10
  stencil order = 5
  estimated absolute RMS force accuracy = 0.0364854
  estimated relative force accuracy = 0.000109875
  using double precision KISS FFT
  3d grid and FFT values/proc = 3375 1000
Per MPI rank memory allocation (min/avg/max) = 14.37 | 14.37 | 14.37 Mbytes
Step Temp E_pair E_mol TotEng Press 
    2000    591.68515     51.17555    89.403511     209.3634   -17.013104 
    2042    591.68515     53.06001    13.865473    135.70982    4.5381655 
Loop time of 0.0282841 on 1 procs for 42 steps with 40 atoms

99.0% CPU use with 1 MPI tasks x no OpenMP threads

Minimization stats:
  Stopping criterion = energy tolerance
  Energy initial, next-to-last, final = 
         140.579060839      66.9826741629      66.9254828264
  Force two-norm initial, final = 289.414 7.92039
  Force max component initial, final = 78.6347 2.13786
  Final line search alpha, max atom move = 0.0126441 0.0270314
  Iterations, force evaluations = 42 84

MPI task timing breakdown:
Section |  min time  |  avg time  |  max time  |%varavg| %total
---------------------------------------------------------------
Pair    | 0.0032856  | 0.0032856  | 0.0032856  |   0.0 | 11.62
Bond    | 0.0013359  | 0.0013359  | 0.0013359  |   0.0 |  4.72
Kspace  | 0.023335   | 0.023335   | 0.023335   |   0.0 | 82.50
Neigh   | 4.1008e-05 | 4.1008e-05 | 4.1008e-05 |   0.0 |  0.14
Comm    | 2.7657e-05 | 2.7657e-05 | 2.7657e-05 |   0.0 |  0.10
Output  | 0          | 0          | 0          |   0.0 |  0.00
Modify  | 0          | 0          | 0          |   0.0 |  0.00
Other   |            | 0.0002584  |            |       |  0.91

Nlocal:    40 ave 40 max 40 min
Histogram: 1 0 0 0 0 0 0 0 0 0
Nghost:    4 ave 4 max 4 min
Histogram: 1 0 0 0 0 0 0 0 0 0
Neighs:    780 ave 780 max 780 min
Histogram: 1 0 0 0 0 0 0 0 0 0

Total # of neighbors = 780
Ave neighs/atom = 19.5
Ave special neighs/atom = 10.1
Neighbor list builds = 1
Dangerous builds = 0
write_dump all custom pysimm.dump.tmp id q x y z vx vy vz
quit


################################################################################
##################################    Init    ##################################
################################################################################
units           real
atom_style      full
pair_style      lj/cut/coul/long 12.0  12.0
kspace_style    pppm 1e-4
bond_style      harmonic
angle_style     harmonic
dihedral_style  fourier
special_bonds   amber
pair_modify     mix arithmetic
read_data       temp.lmps
  orthogonal box = (-44.7194 -44.7194 -44.7194) to (44.7194 44.7194 44.7194)
  1 by 1 by 1 MPI processor grid
  reading atoms ...
  48 atoms
  reading velocities ...
  48 velocities
  scanning bonds ...
  4 = max bonds/atom
  scanning angles ...
  6 = max angles/atom
  scanning dihedrals ...
  12 = max dihedrals/atom
  reading bonds ...
  47 bonds
  reading angles ...
  85 angles
  reading dihedrals ...
  114 dihedrals
  4 = max # of 1-2 neighbors
  6 = max # of 1-3 neighbors
  12 = max # of 1-4 neighbors
  15 = max # of special neighbors
  special bonds CPU = 0.000436783 secs
  read_data CPU = 0.00470996 secs
################################################################################

timestep        1
fix             pysimm_md all nve/limit 0.1
run             2000
PPPM initialization ...
  using 12-bit tables for long-range coulomb (../kspace.cpp:332)
  G vector (1/distance) = 0.114833
  grid = 10 10 10
  stencil order = 5
  estimated absolute RMS force accuracy = 0.0399677
  estimated relative force accuracy = 0.000120362
  using double precision KISS FFT
  3d grid and FFT values/proc = 3375 1000
Neighbor list info ...
  update every 1 steps, delay 10 steps, check yes
  max neighbors/atom: 2000, page size: 100000
  master list distance cutoff = 14
  ghost atom cutoff = 14
  binsize = 7, bins = 13 13 13
  1 neighbor lists, perpetual/occasional/extra = 1 0 0
  (1) pair lj/cut/coul/long, perpetual
      attributes: half, newton on
      pair build: half/bin/newton
      stencil: half/bin/3d/newton
      bin: standard
Per MPI rank memory allocation (min/avg/max) = 13.25 | 13.25 | 13.25 Mbytes
Step Temp E_pair E_mol TotEng Press 
       0    490.97899    64.645817    116.07193    249.50295   -7.3862791 
    2000    527.74138    80.398495    83.494823    237.82887    7.9499122 
Loop time of 1.08156 on 1 procs for 2000 steps with 48 atoms

Performance: 159.770 ns/day, 0.150 hours/ns, 1849.184 timesteps/s
100.0% CPU use with 1 MPI tasks x no OpenMP threads

MPI task timing breakdown:
Section |  min time  |  avg time  |  max time  |%varavg| %total
---------------------------------------------------------------
Pair    | 0.098829   | 0.098829   | 0.098829   |   0.0 |  9.14
Bond    | 0.054952   | 0.054952   | 0.054952   |   0.0 |  5.08
Kspace  | 0.91366    | 0.91366    | 0.91366    |   0.0 | 84.48
Neigh   | 0.0057085  | 0.0057085  | 0.0057085  |   0.0 |  0.53
Comm    | 0.0015388  | 0.0015388  | 0.0015388  |   0.0 |  0.14
Output  | 1.9073e-05 | 1.9073e-05 | 1.9073e-05 |   0.0 |  0.00
Modify  | 0.0032864  | 0.0032864  | 0.0032864  |   0.0 |  0.30
Other   |            | 0.003565   |            |       |  0.33

Nlocal:    48 ave 48 max 48 min
Histogram: 1 0 0 0 0 0 0 0 0 0
Nghost:    8 ave 8 max 8 min
Histogram: 1 0 0 0 0 0 0 0 0 0
Neighs:    1116 ave 1116 max 1116 min
Histogram: 1 0 0 0 0 0 0 0 0 0

Total # of neighbors = 1116
Ave neighs/atom = 23.25
Ave special neighs/atom = 10.25
Neighbor list builds = 68
Dangerous builds = 0
unfix pysimm_md
min_style cg
minimize 0.001 0.001 10000 100000
WARNING: Using 'neigh_modify every 1 delay 0 check yes' setting during minimization (../min.cpp:190)
PPPM initialization ...
  using 12-bit tables for long-range coulomb (../kspace.cpp:332)
  G vector (1/distance) = 0.114833
  grid = 10 10 10
  stencil order = 5
  estimated absolute RMS force accuracy = 0.0399677
  estimated relative force accuracy = 0.000120362
  using double precision KISS FFT
  3d grid and FFT values/proc = 3375 1000
Per MPI rank memory allocation (min/avg/max) = 14.38 | 14.38 | 14.38 Mbytes
Step Temp E_pair E_mol TotEng Press 
    2000    527.74138    80.398495    83.494823    237.82887    7.9499122 
    2019    527.74138    72.910469     27.46042    174.30644    5.9487718 
Loop time of 0.037926 on 1 procs for 19 steps with 48 atoms

100.2% CPU use with 1 MPI tasks x no OpenMP threads

Minimization stats:
  Stopping criterion = linesearch alpha is zero
  Energy initial, next-to-last, final = 
         163.893318212      100.370888809      100.370888809
  Force two-norm initial, final = 267.707 23.6624
  Force max component initial, final = 110.685 6.38002
  Final line search alpha, max atom move = 2.12038e-11 1.35281e-10
  Iterations, force evaluations = 19 93

MPI task timing breakdown:
Section |  min time  |  avg time  |  max time  |%varavg| %total
---------------------------------------------------------------
Pair    | 0.00525    | 0.00525    | 0.00525    |   0.0 | 13.84
Bond    | 0.0019968  | 0.0019968  | 0.0019968  |   0.0 |  5.26
Kspace  | 0.03038    | 0.03038    | 0.03038    |   0.0 | 80.10
Neigh   | 0          | 0          | 0          |   0.0 |  0.00
Comm    | 3.9101e-05 | 3.9101e-05 | 3.9101e-05 |   0.0 |  0.10
Output  | 0          | 0          | 0          |   0.0 |  0.00
Modify  | 0          | 0          | 0          |   0.0 |  0.00
Other   |            | 0.0002599  |            |       |  0.69

Nlocal:    48 ave 48 max 48 min
Histogram: 1 0 0 0 0 0 0 0 0 0
Nghost:    8 ave 8 max 8 min
Histogram: 1 0 0 0 0 0 0 0 0 0
Neighs:    1113 ave 1113 max 1113 min
Histogram: 1 0 0 0 0 0 0 0 0 0

Total # of neighbors = 1113
Ave neighs/atom = 23.1875
Ave special neighs/atom = 10.25
Neighbor list builds = 0
Dangerous builds = 0
write_dump all custom pysimm.dump.tmp id q x y z vx vy vz
quit


################################################################################
##################################    Init    ##################################
################################################################################
units           real
atom_style      full
pair_style      lj/cut/coul/long 12.0  12.0
kspace_style    pppm 1e-4
bond_style      harmonic
angle_style     harmonic
dihedral_style  fourier
special_bonds   amber
pair_modify     mix arithmetic
read_data       temp.lmps
  orthogonal box = (-44.7194 -44.7194 -44.7194) to (44.7194 44.7194 44.7194)
  1 by 1 by 1 MPI processor grid
  reading atoms ...
  56 atoms
  reading velocities ...
  56 velocities
  scanning bonds ...
  4 = max bonds/atom
  scanning angles ...
  6 = max angles/atom
  scanning dihedrals ...
  12 = max dihedrals/atom
  reading bonds ...
  55 bonds
  reading angles ...
  100 angles
  reading dihedrals ...
  135 dihedrals
  4 = max # of 1-2 neighbors
  6 = max # of 1-3 neighbors
  12 = max # of 1-4 neighbors
  15 = max # of special neighbors
  special bonds CPU = 0.000473976 secs
  read_data CPU = 0.00738287 secs
################################################################################

timestep        1
fix             pysimm_md all nve/limit 0.1
run             2000
PPPM initialization ...
  using 12-bit tables for long-range coulomb (../kspace.cpp:332)
  G vector (1/distance) = 0.128949
  grid = 12 12 12
  stencil order = 5
  estimated absolute RMS force accuracy = 0.0263012
  estimated relative force accuracy = 7.92054e-05
  using double precision KISS FFT
  3d grid and FFT values/proc = 4913 1728
Neighbor list info ...
  update every 1 steps, delay 10 steps, check yes
  max neighbors/atom: 2000, page size: 100000
  master list distance cutoff = 14
  ghost atom cutoff = 14
  binsize = 7, bins = 13 13 13
  1 neighbor lists, perpetual/occasional/extra = 1 0 0
  (1) pair lj/cut/coul/long, perpetual
      attributes: half, newton on
      pair build: half/bin/newton
      stencil: half/bin/3d/newton
      bin: standard
Per MPI rank memory allocation (min/avg/max) = 13.37 | 13.37 | 13.37 Mbytes
Step Temp E_pair E_mol TotEng Press 
       0    450.98448    88.365463    202.33495    364.63686    -4.905309 
    2000    501.48716    93.595318    94.004439    269.81585    6.6518277 
Loop time of 1.51125 on 1 procs for 2000 steps with 56 atoms

Performance: 114.343 ns/day, 0.210 hours/ns, 1323.410 timesteps/s
100.0% CPU use with 1 MPI tasks x no OpenMP threads

MPI task timing breakdown:
Section |  min time  |  avg time  |  max time  |%varavg| %total
---------------------------------------------------------------
Pair    | 0.12214    | 0.12214    | 0.12214    |   0.0 |  8.08
Bond    | 0.061819   | 0.061819   | 0.061819   |   0.0 |  4.09
Kspace  | 1.3124     | 1.3124     | 1.3124     |   0.0 | 86.84
Neigh   | 0.0058928  | 0.0058928  | 0.0058928  |   0.0 |  0.39
Comm    | 0.0015936  | 0.0015936  | 0.0015936  |   0.0 |  0.11
Output  | 1.4067e-05 | 1.4067e-05 | 1.4067e-05 |   0.0 |  0.00
Modify  | 0.0037425  | 0.0037425  | 0.0037425  |   0.0 |  0.25
Other   |            | 0.003632   |            |       |  0.24

Nlocal:    56 ave 56 max 56 min
Histogram: 1 0 0 0 0 0 0 0 0 0
Nghost:    16 ave 16 max 16 min
Histogram: 1 0 0 0 0 0 0 0 0 0
Neighs:    1540 ave 1540 max 1540 min
Histogram: 1 0 0 0 0 0 0 0 0 0

Total # of neighbors = 1540
Ave neighs/atom = 27.5
Ave special neighs/atom = 10.3571
Neighbor list builds = 62
Dangerous builds = 0
unfix pysimm_md
min_style cg
minimize 0.001 0.001 10000 100000
WARNING: Using 'neigh_modify every 1 delay 0 check yes' setting during minimization (../min.cpp:190)
PPPM initialization ...
  using 12-bit tables for long-range coulomb (../kspace.cpp:332)
  G vector (1/distance) = 0.128949
  grid = 12 12 12
  stencil order = 5
  estimated absolute RMS force accuracy = 0.0263012
  estimated relative force accuracy = 7.92054e-05
  using double precision KISS FFT
  3d grid and FFT values/proc = 4913 1728
Per MPI rank memory allocation (min/avg/max) = 14.5 | 14.5 | 14.5 Mbytes
Step Temp E_pair E_mol TotEng Press 
    2000    501.48716    93.595318    94.004439    269.81585    6.6518277 
    2050    501.48716    90.958584    14.246458    187.42113    5.4359401 
Loop time of 0.0567019 on 1 procs for 50 steps with 56 atoms

100.5% CPU use with 1 MPI tasks x no OpenMP threads

Minimization stats:
  Stopping criterion = energy tolerance
  Energy initial, next-to-last, final = 
          187.59975689       105.30069112      105.205041979
  Force two-norm initial, final = 361.225 10.1691
  Force max component initial, final = 109.596 2.9171
  Final line search alpha, max atom move = 0.0115849 0.0337942
  Iterations, force evaluations = 50 100

MPI task timing breakdown:
Section |  min time  |  avg time  |  max time  |%varavg| %total
---------------------------------------------------------------
Pair    | 0.0078051  | 0.0078051  | 0.0078051  |   0.0 | 13.77
Bond    | 0.0023427  | 0.0023427  | 0.0023427  |   0.0 |  4.13
Kspace  | 0.046067   | 0.046067   | 0.046067   |   0.0 | 81.24
Neigh   | 6.6042e-05 | 6.6042e-05 | 6.6042e-05 |   0.0 |  0.12
Comm    | 5.3167e-05 | 5.3167e-05 | 5.3167e-05 |   0.0 |  0.09
Output  | 0          | 0          | 0          |   0.0 |  0.00
Modify  | 0          | 0          | 0          |   0.0 |  0.00
Other   |            | 0.0003684  |            |       |  0.65

Nlocal:    56 ave 56 max 56 min
Histogram: 1 0 0 0 0 0 0 0 0 0
Nghost:    16 ave 16 max 16 min
Histogram: 1 0 0 0 0 0 0 0 0 0
Neighs:    1540 ave 1540 max 1540 min
Histogram: 1 0 0 0 0 0 0 0 0 0

Total # of neighbors = 1540
Ave neighs/atom = 27.5
Ave special neighs/atom = 10.3571
Neighbor list builds = 1
Dangerous builds = 0
write_dump all custom pysimm.dump.tmp id q x y z vx vy vz
quit


################################################################################
##################################    Init    ##################################
################################################################################
units           real
atom_style      full
pair_style      lj/cut/coul/long 12.0  12.0
kspace_style    pppm 1e-4
bond_style      harmonic
angle_style     harmonic
dihedral_style  fourier
special_bonds   amber
pair_modify     mix arithmetic
read_data       temp.lmps
  orthogonal box = (-44.7194 -44.7194 -44.7194) to (44.7194 44.7194 44.7194)
  1 by 1 by 1 MPI processor grid
  reading atoms ...
  64 atoms
  reading velocities ...
  64 velocities
  scanning bonds ...
  4 = max bonds/atom
  scanning angles ...
  6 = max angles/atom
  scanning dihedrals ...
  12 = max dihedrals/atom
  reading bonds ...
  63 bonds
  reading angles ...
  115 angles
  reading dihedrals ...
  156 dihedrals
  4 = max # of 1-2 neighbors
  6 = max # of 1-3 neighbors
  12 = max # of 1-4 neighbors
  15 = max # of special neighbors
  special bonds CPU = 0.000472069 secs
  read_data CPU = 0.00514603 secs
################################################################################

timestep        1
fix             pysimm_md all nve/limit 0.1
run             2000
PPPM initialization ...
  using 12-bit tables for long-range coulomb (../kspace.cpp:332)
  G vector (1/distance) = 0.128949
  grid = 12 12 12
  stencil order = 5
  estimated absolute RMS force accuracy = 0.0281172
  estimated relative force accuracy = 8.46741e-05
  using double precision KISS FFT
  3d grid and FFT values/proc = 4913 1728
Neighbor list info ...
  update every 1 steps, delay 10 steps, check yes
  max neighbors/atom: 2000, page size: 100000
  master list distance cutoff = 14
  ghost atom cutoff = 14
  binsize = 7, bins = 13 13 13
  1 neighbor lists, perpetual/occasional/extra = 1 0 0
  (1) pair lj/cut/coul/long, perpetual
      attributes: half, newton on
      pair build: half/bin/newton
      stencil: half/bin/3d/newton
      bin: standard
Per MPI rank memory allocation (min/avg/max) = 13.37 | 13.37 | 13.37 Mbytes
Step Temp E_pair E_mol TotEng Press 
       0     437.8111    109.15122    192.42614    383.79435   -4.1847813 
    2000    512.39429    108.21429    105.37134    309.80869   -1.8259973 
Loop time of 1.49545 on 1 procs for 2000 steps with 64 atoms

Performance: 115.550 ns/day, 0.208 hours/ns, 1337.387 timesteps/s
100.0% CPU use with 1 MPI tasks x no OpenMP threads

MPI task timing breakdown:
Section |  min time  |  avg time  |  max time  |%varavg| %total
---------------------------------------------------------------
Pair    | 0.15016    | 0.15016    | 0.15016    |   0.0 | 10.04
Bond    | 0.066527   | 0.066527   | 0.066527   |   0.0 |  4.45
Kspace  | 1.2627     | 1.2627     | 1.2627     |   0.0 | 84.44
Neigh   | 0.0068655  | 0.0068655  | 0.0068655  |   0.0 |  0.46
Comm    | 0.0017071  | 0.0017071  | 0.0017071  |   0.0 |  0.11
Output  | 1.502e-05  | 1.502e-05  | 1.502e-05  |   0.0 |  0.00
Modify  | 0.0037756  | 0.0037756  | 0.0037756  |   0.0 |  0.25
Other   |            | 0.003703   |            |       |  0.25

Nlocal:    64 ave 64 max 64 min
Histogram: 1 0 0 0 0 0 0 0 0 0
Nghost:    31 ave 31 max 31 min
Histogram: 1 0 0 0 0 0 0 0 0 0
Neighs:    1955 ave 1955 max 1955 min
Histogram: 1 0 0 0 0 0 0 0 0 0

Total # of neighbors = 1955
Ave neighs/atom = 30.5469
Ave special neighs/atom = 10.4375
Neighbor list builds = 62
Dangerous builds = 0
unfix pysimm_md
min_style cg
minimize 0.001 0.001 10000 100000
WARNING: Using 'neigh_modify every 1 delay 0 check yes' setting during minimization (../min.cpp:190)
PPPM initialization ...
  using 12-bit tables for long-range coulomb (../kspace.cpp:332)
  G vector (1/distance) = 0.128949
  grid = 12 12 12
  stencil order = 5
  estimated absolute RMS force accuracy = 0.0281172
  estimated relative force accuracy = 8.46741e-05
  using double precision KISS FFT
  3d grid and FFT values/proc = 4913 1728
Per MPI rank memory allocation (min/avg/max) = 14.5 | 14.5 | 14.5 Mbytes
Step Temp E_pair E_mol TotEng Press 
    2000    512.39429    108.21429    105.37134    309.80869   -1.8259973 
    2041    512.39429    106.59853    16.560226    219.38181    6.1351846 
Loop time of 0.04899 on 1 procs for 41 steps with 64 atoms

100.0% CPU use with 1 MPI tasks x no OpenMP threads

Minimization stats:
  Stopping criterion = energy tolerance
  Energy initial, next-to-last, final = 
         213.585636071      123.281523189      123.158760452
  Force two-norm initial, final = 299.214 11.8222
  Force max component initial, final = 81.2425 2.64907
  Final line search alpha, max atom move = 0.00544227 0.014417
  Iterations, force evaluations = 41 82

MPI task timing breakdown:
Section |  min time  |  avg time  |  max time  |%varavg| %total
---------------------------------------------------------------
Pair    | 0.0074644  | 0.0074644  | 0.0074644  |   0.0 | 15.24
Bond    | 0.0022485  | 0.0022485  | 0.0022485  |   0.0 |  4.59
Kspace  | 0.0389     | 0.0389     | 0.0389     |   0.0 | 79.40
Neigh   | 0          | 0          | 0          |   0.0 |  0.00
Comm    | 4.6015e-05 | 4.6015e-05 | 4.6015e-05 |   0.0 |  0.09
Output  | 0          | 0          | 0          |   0.0 |  0.00
Modify  | 0          | 0          | 0          |   0.0 |  0.00
Other   |            | 0.0003312  |            |       |  0.68

Nlocal:    64 ave 64 max 64 min
Histogram: 1 0 0 0 0 0 0 0 0 0
Nghost:    31 ave 31 max 31 min
Histogram: 1 0 0 0 0 0 0 0 0 0
Neighs:    1951 ave 1951 max 1951 min
Histogram: 1 0 0 0 0 0 0 0 0 0

Total # of neighbors = 1951
Ave neighs/atom = 30.4844
Ave special neighs/atom = 10.4375
Neighbor list builds = 0
Dangerous builds = 0
write_dump all custom pysimm.dump.tmp id q x y z vx vy vz
quit


################################################################################
##################################    Init    ##################################
################################################################################
units           real
atom_style      full
pair_style      lj/cut/coul/long 12.0  12.0
kspace_style    pppm 1e-4
bond_style      harmonic
angle_style     harmonic
dihedral_style  fourier
special_bonds   amber
pair_modify     mix arithmetic
read_data       temp.lmps
  orthogonal box = (-44.7194 -44.7194 -44.7194) to (44.7194 44.7194 44.7194)
  1 by 1 by 1 MPI processor grid
  reading atoms ...
  72 atoms
  reading velocities ...
  72 velocities
  scanning bonds ...
  4 = max bonds/atom
  scanning angles ...
  6 = max angles/atom
  scanning dihedrals ...
  12 = max dihedrals/atom
  reading bonds ...
  71 bonds
  reading angles ...
  130 angles
  reading dihedrals ...
  177 dihedrals
  4 = max # of 1-2 neighbors
  6 = max # of 1-3 neighbors
  12 = max # of 1-4 neighbors
  15 = max # of special neighbors
  special bonds CPU = 0.00028801 secs
  read_data CPU = 0.00689697 secs
################################################################################

timestep        1
fix             pysimm_md all nve/limit 0.1
run             2000
PPPM initialization ...
  using 12-bit tables for long-range coulomb (../kspace.cpp:332)
  G vector (1/distance) = 0.128949
  grid = 12 12 12
  stencil order = 5
  estimated absolute RMS force accuracy = 0.0298228
  estimated relative force accuracy = 8.98104e-05
  using double precision KISS FFT
  3d grid and FFT values/proc = 4913 1728
Neighbor list info ...
  update every 1 steps, delay 10 steps, check yes
  max neighbors/atom: 2000, page size: 100000
  master list distance cutoff = 14
  ghost atom cutoff = 14
  binsize = 7, bins = 13 13 13
  1 neighbor lists, perpetual/occasional/extra = 1 0 0
  (1) pair lj/cut/coul/long, perpetual
      attributes: half, newton on
      pair build: half/bin/newton
      stencil: half/bin/3d/newton
      bin: standard
Per MPI rank memory allocation (min/avg/max) = 13.38 | 13.38 | 13.38 Mbytes
Step Temp E_pair E_mol TotEng Press 
       0    454.66388    125.10798     189.8589    411.19081   -3.7328777 
    2000    414.96001    125.66674     122.5733    336.06115    8.4298202 
Loop time of 1.09312 on 1 procs for 2000 steps with 72 atoms

Performance: 158.080 ns/day, 0.152 hours/ns, 1829.632 timesteps/s
100.2% CPU use with 1 MPI tasks x no OpenMP threads

MPI task timing breakdown:
Section |  min time  |  avg time  |  max time  |%varavg| %total
---------------------------------------------------------------
Pair    | 0.1251     | 0.1251     | 0.1251     |   0.0 | 11.44
Bond    | 0.053554   | 0.053554   | 0.053554   |   0.0 |  4.90
Kspace  | 0.90144    | 0.90144    | 0.90144    |   0.0 | 82.47
Neigh   | 0.0061438  | 0.0061438  | 0.0061438  |   0.0 |  0.56
Comm    | 0.0014379  | 0.0014379  | 0.0014379  |   0.0 |  0.13
Output  | 1.4067e-05 | 1.4067e-05 | 1.4067e-05 |   0.0 |  0.00
Modify  | 0.0027835  | 0.0027835  | 0.0027835  |   0.0 |  0.25
Other   |            | 0.002638   |            |       |  0.24

Nlocal:    72 ave 72 max 72 min
Histogram: 1 0 0 0 0 0 0 0 0 0
Nghost:    42 ave 42 max 42 min
Histogram: 1 0 0 0 0 0 0 0 0 0
Neighs:    2203 ave 2203 max 2203 min
Histogram: 1 0 0 0 0 0 0 0 0 0

Total # of neighbors = 2203
Ave neighs/atom = 30.5972
Ave special neighs/atom = 10.5
Neighbor list builds = 67
Dangerous builds = 0
unfix pysimm_md
min_style cg
minimize 0.001 0.001 10000 100000
WARNING: Using 'neigh_modify every 1 delay 0 check yes' setting during minimization (../min.cpp:190)
PPPM initialization ...
  using 12-bit tables for long-range coulomb (../kspace.cpp:332)
  G vector (1/distance) = 0.128949
  grid = 12 12 12
  stencil order = 5
  estimated absolute RMS force accuracy = 0.0298228
  estimated relative force accuracy = 8.98104e-05
  using double precision KISS FFT
  3d grid and FFT values/proc = 4913 1728
Per MPI rank memory allocation (min/avg/max) = 14.5 | 14.5 | 14.5 Mbytes
Step Temp E_pair E_mol TotEng Press 
    2000    414.96001    125.66674     122.5733    336.06115    8.4298202 
    2030    414.96001    124.78856    24.863372    237.47304    5.3933666 
Loop time of 0.032726 on 1 procs for 30 steps with 72 atoms

100.8% CPU use with 1 MPI tasks x no OpenMP threads

Minimization stats:
  Stopping criterion = energy tolerance
  Energy initial, next-to-last, final = 
         248.240042048      149.777062516       149.65193039
  Force two-norm initial, final = 356.697 11.2419
  Force max component initial, final = 106.905 2.47015
  Final line search alpha, max atom move = 0.0125925 0.0311054
  Iterations, force evaluations = 30 60

MPI task timing breakdown:
Section |  min time  |  avg time  |  max time  |%varavg| %total
---------------------------------------------------------------
Pair    | 0.0054042  | 0.0054042  | 0.0054042  |   0.0 | 16.51
Bond    | 0.0016408  | 0.0016408  | 0.0016408  |   0.0 |  5.01
Kspace  | 0.025425   | 0.025425   | 0.025425   |   0.0 | 77.69
Neigh   | 0          | 0          | 0          |   0.0 |  0.00
Comm    | 3.5286e-05 | 3.5286e-05 | 3.5286e-05 |   0.0 |  0.11
Output  | 0          | 0          | 0          |   0.0 |  0.00
Modify  | 0          | 0          | 0          |   0.0 |  0.00
Other   |            | 0.0002208  |            |       |  0.67

Nlocal:    72 ave 72 max 72 min
Histogram: 1 0 0 0 0 0 0 0 0 0
Nghost:    42 ave 42 max 42 min
Histogram: 1 0 0 0 0 0 0 0 0 0
Neighs:    2201 ave 2201 max 2201 min
Histogram: 1 0 0 0 0 0 0 0 0 0

Total # of neighbors = 2201
Ave neighs/atom = 30.5694
Ave special neighs/atom = 10.5
Neighbor list builds = 0
Dangerous builds = 0
write_dump all custom pysimm.dump.tmp id q x y z vx vy vz
quit


################################################################################
##################################    Init    ##################################
################################################################################
units           real
atom_style      full
pair_style      lj/cut/coul/long 12.0  12.0
kspace_style    pppm 1e-4
bond_style      harmonic
angle_style     harmonic
dihedral_style  fourier
special_bonds   amber
pair_modify     mix arithmetic
read_data       temp.lmps
  orthogonal box = (-44.7194 -44.7194 -44.7194) to (44.7194 44.7194 44.7194)
  1 by 1 by 1 MPI processor grid
  reading atoms ...
  80 atoms
  reading velocities ...
  80 velocities
  scanning bonds ...
  4 = max bonds/atom
  scanning angles ...
  6 = max angles/atom
  scanning dihedrals ...
  12 = max dihedrals/atom
  reading bonds ...
  79 bonds
  reading angles ...
  145 angles
  reading dihedrals ...
  198 dihedrals
  4 = max # of 1-2 neighbors
  6 = max # of 1-3 neighbors
  12 = max # of 1-4 neighbors
  15 = max # of special neighbors
  special bonds CPU = 0.00018692 secs
  read_data CPU = 0.00666094 secs
################################################################################

timestep        1
fix             pysimm_md all nve/limit 0.1
run             2000
PPPM initialization ...
WARNING: System is not charge neutral, net charge = -1e-05 (../kspace.cpp:313)
  using 12-bit tables for long-range coulomb (../kspace.cpp:332)
  G vector (1/distance) = 0.128949
  grid = 12 12 12
  stencil order = 5
  estimated absolute RMS force accuracy = 0.031436
  estimated relative force accuracy = 9.46685e-05
  using double precision KISS FFT
  3d grid and FFT values/proc = 4913 1728
Neighbor list info ...
  update every 1 steps, delay 10 steps, check yes
  max neighbors/atom: 2000, page size: 100000
  master list distance cutoff = 14
  ghost atom cutoff = 14
  binsize = 7, bins = 13 13 13
  1 neighbor lists, perpetual/occasional/extra = 1 0 0
  (1) pair lj/cut/coul/long, perpetual
      attributes: half, newton on
      pair build: half/bin/newton
      stencil: half/bin/3d/newton
      bin: standard
Per MPI rank memory allocation (min/avg/max) = 13.38 | 13.38 | 13.38 Mbytes
Step Temp E_pair E_mol TotEng Press 
       0    372.94246    137.18064    139.26396    364.26658   -6.7176183 
    2000    395.53309    144.87566    121.02864    359.04601    5.2116059 
Loop time of 0.85796 on 1 procs for 2000 steps with 80 atoms

Performance: 201.408 ns/day, 0.119 hours/ns, 2331.110 timesteps/s
100.0% CPU use with 1 MPI tasks x no OpenMP threads

MPI task timing breakdown:
Section |  min time  |  avg time  |  max time  |%varavg| %total
---------------------------------------------------------------
Pair    | 0.10803    | 0.10803    | 0.10803    |   0.0 | 12.59
Bond    | 0.045446   | 0.045446   | 0.045446   |   0.0 |  5.30
Kspace  | 0.69372    | 0.69372    | 0.69372    |   0.0 | 80.86
Neigh   | 0.0051153  | 0.0051153  | 0.0051153  |   0.0 |  0.60
Comm    | 0.0012064  | 0.0012064  | 0.0012064  |   0.0 |  0.14
Output  | 1.0967e-05 | 1.0967e-05 | 1.0967e-05 |   0.0 |  0.00
Modify  | 0.0022817  | 0.0022817  | 0.0022817  |   0.0 |  0.27
Other   |            | 0.002154   |            |       |  0.25

Nlocal:    80 ave 80 max 80 min
Histogram: 1 0 0 0 0 0 0 0 0 0
Nghost:    58 ave 58 max 58 min
Histogram: 1 0 0 0 0 0 0 0 0 0
Neighs:    2984 ave 2984 max 2984 min
Histogram: 1 0 0 0 0 0 0 0 0 0

Total # of neighbors = 2984
Ave neighs/atom = 37.3
Ave special neighs/atom = 10.55
Neighbor list builds = 62
Dangerous builds = 0
unfix pysimm_md
min_style cg
minimize 0.001 0.001 10000 100000
WARNING: Using 'neigh_modify every 1 delay 0 check yes' setting during minimization (../min.cpp:190)
PPPM initialization ...
  using 12-bit tables for long-range coulomb (../kspace.cpp:332)
  G vector (1/distance) = 0.128949
  grid = 12 12 12
  stencil order = 5
  estimated absolute RMS force accuracy = 0.031436
  estimated relative force accuracy = 9.46685e-05
  using double precision KISS FFT
  3d grid and FFT values/proc = 4913 1728
Per MPI rank memory allocation (min/avg/max) = 14.5 | 14.5 | 14.5 Mbytes
Step Temp E_pair E_mol TotEng Press 
    2000    395.53309    144.87566    121.02864    359.04601    5.2116059 
    2042    395.53309    138.54559    23.901856    255.58915    5.9359083 
Loop time of 0.0376849 on 1 procs for 42 steps with 80 atoms

98.2% CPU use with 1 MPI tasks x no OpenMP threads

Minimization stats:
  Stopping criterion = energy tolerance
  Energy initial, next-to-last, final = 
         265.904298524      162.589706437      162.447442274
  Force two-norm initial, final = 319.342 12.9407
  Force max component initial, final = 71.7446 2.77658
  Final line search alpha, max atom move = 0.00862706 0.0239537
  Iterations, force evaluations = 42 84

MPI task timing breakdown:
Section |  min time  |  avg time  |  max time  |%varavg| %total
---------------------------------------------------------------
Pair    | 0.0077209  | 0.0077209  | 0.0077209  |   0.0 | 20.49
Bond    | 0.0020626  | 0.0020626  | 0.0020626  |   0.0 |  5.47
Kspace  | 0.02759    | 0.02759    | 0.02759    |   0.0 | 73.21
Neigh   | 0          | 0          | 0          |   0.0 |  0.00
Comm    | 4.673e-05  | 4.673e-05  | 4.673e-05  |   0.0 |  0.12
Output  | 0          | 0          | 0          |   0.0 |  0.00
Modify  | 0          | 0          | 0          |   0.0 |  0.00
Other   |            | 0.0002651  |            |       |  0.70

Nlocal:    80 ave 80 max 80 min
Histogram: 1 0 0 0 0 0 0 0 0 0
Nghost:    59 ave 59 max 59 min
Histogram: 1 0 0 0 0 0 0 0 0 0
Neighs:    3002 ave 3002 max 3002 min
Histogram: 1 0 0 0 0 0 0 0 0 0

Total # of neighbors = 3002
Ave neighs/atom = 37.525
Ave special neighs/atom = 10.55
Neighbor list builds = 0
Dangerous builds = 0
write_dump all custom pysimm.dump.tmp id q x y z vx vy vz
quit


################################################################################
##################################    Init    ##################################
################################################################################
units           real
atom_style      full
pair_style      lj/cut/coul/long 12.0  12.0
kspace_style    pppm 1e-4
bond_style      harmonic
angle_style     harmonic
dihedral_style  fourier
special_bonds   amber
pair_modify     mix arithmetic
read_data       temp.lmps
  orthogonal box = (-56.3429 -56.3429 -56.3429) to (56.3429 56.3429 56.3429)
  1 by 1 by 1 MPI processor grid
  reading atoms ...
  88 atoms
  reading velocities ...
  88 velocities
  scanning bonds ...
  4 = max bonds/atom
  scanning angles ...
  6 = max angles/atom
  scanning dihedrals ...
  12 = max dihedrals/atom
  reading bonds ...
  87 bonds
  reading angles ...
  160 angles
  reading dihedrals ...
  219 dihedrals
  4 = max # of 1-2 neighbors
  6 = max # of 1-3 neighbors
  12 = max # of 1-4 neighbors
  15 = max # of special neighbors
  special bonds CPU = 0.000234127 secs
  read_data CPU = 0.00714993 secs
################################################################################

timestep        1
fix             pysimm_md all nve/limit 0.1
run             2000
PPPM initialization ...
WARNING: System is not charge neutral, net charge = -1.1e-05 (../kspace.cpp:313)
  using 12-bit tables for long-range coulomb (../kspace.cpp:332)
  G vector (1/distance) = 0.128327
  grid = 15 15 15
  stencil order = 5
  estimated absolute RMS force accuracy = 0.023857
  estimated relative force accuracy = 7.18446e-05
  using double precision KISS FFT
  3d grid and FFT values/proc = 8000 3375
Neighbor list info ...
  update every 1 steps, delay 10 steps, check yes
  max neighbors/atom: 2000, page size: 100000
  master list distance cutoff = 14
  ghost atom cutoff = 14
  binsize = 7, bins = 17 17 17
  1 neighbor lists, perpetual/occasional/extra = 1 0 0
  (1) pair lj/cut/coul/long, perpetual
      attributes: half, newton on
      pair build: half/bin/newton
      stencil: half/bin/3d/newton
      bin: standard
Per MPI rank memory allocation (min/avg/max) = 13.66 | 13.66 | 13.66 Mbytes
Step Temp E_pair E_mol TotEng Press 
       0    359.16577      134.803    4038.7574     4266.703   -173.15743 
    2000    643.25813    177.54542    149.35301    493.71486    8.1314572 
Loop time of 1.892 on 1 procs for 2000 steps with 88 atoms

Performance: 91.332 ns/day, 0.263 hours/ns, 1057.085 timesteps/s
100.0% CPU use with 1 MPI tasks x no OpenMP threads

MPI task timing breakdown:
Section |  min time  |  avg time  |  max time  |%varavg| %total
---------------------------------------------------------------
Pair    | 0.15629    | 0.15629    | 0.15629    |   0.0 |  8.26
Bond    | 0.060129   | 0.060129   | 0.060129   |   0.0 |  3.18
Kspace  | 1.6569     | 1.6569     | 1.6569     |   0.0 | 87.58
Neigh   | 0.010888   | 0.010888   | 0.010888   |   0.0 |  0.58
Comm    | 0.0021808  | 0.0021808  | 0.0021808  |   0.0 |  0.12
Output  | 1.1921e-05 | 1.1921e-05 | 1.1921e-05 |   0.0 |  0.00
Modify  | 0.0030603  | 0.0030603  | 0.0030603  |   0.0 |  0.16
Other   |            | 0.002491   |            |       |  0.13

Nlocal:    88 ave 88 max 88 min
Histogram: 1 0 0 0 0 0 0 0 0 0
Nghost:    125 ave 125 max 125 min
Histogram: 1 0 0 0 0 0 0 0 0 0
Neighs:    3181 ave 3181 max 3181 min
Histogram: 1 0 0 0 0 0 0 0 0 0

Total # of neighbors = 3181
Ave neighs/atom = 36.1477
Ave special neighs/atom = 10.5909
Neighbor list builds = 92
Dangerous builds = 0
unfix pysimm_md
min_style cg
minimize 0.001 0.001 10000 100000
WARNING: Using 'neigh_modify every 1 delay 0 check yes' setting during minimization (../min.cpp:190)
PPPM initialization ...
  using 12-bit tables for long-range coulomb (../kspace.cpp:332)
  G vector (1/distance) = 0.128327
  grid = 15 15 15
  stencil order = 5
  estimated absolute RMS force accuracy = 0.023857
  estimated relative force accuracy = 7.18446e-05
  using double precision KISS FFT
  3d grid and FFT values/proc = 8000 3375
Per MPI rank memory allocation (min/avg/max) = 14.78 | 14.78 | 14.78 Mbytes
Step Temp E_pair E_mol TotEng Press 
    2000    643.25813    177.54542    149.35301    493.71486    8.1314572 
    2035    643.25813    163.94949      36.4378    367.20372    4.8705399 
Loop time of 0.056649 on 1 procs for 35 steps with 88 atoms

98.8% CPU use with 1 MPI tasks x no OpenMP threads

Minimization stats:
  Stopping criterion = energy tolerance
  Energy initial, next-to-last, final = 
         326.898425842      200.432438991      200.387287514
  Force two-norm initial, final = 445.825 19.6076
  Force max component initial, final = 116.733 3.88035
  Final line search alpha, max atom move = 0.0060153 0.0233415
  Iterations, force evaluations = 35 70

MPI task timing breakdown:
Section |  min time  |  avg time  |  max time  |%varavg| %total
---------------------------------------------------------------
Pair    | 0.0075853  | 0.0075853  | 0.0075853  |   0.0 | 13.39
Bond    | 0.0019243  | 0.0019243  | 0.0019243  |   0.0 |  3.40
Kspace  | 0.046731   | 0.046731   | 0.046731   |   0.0 | 82.49
Neigh   | 9.799e-05  | 9.799e-05  | 9.799e-05  |   0.0 |  0.17
Comm    | 6.0081e-05 | 6.0081e-05 | 6.0081e-05 |   0.0 |  0.11
Output  | 0          | 0          | 0          |   0.0 |  0.00
Modify  | 0          | 0          | 0          |   0.0 |  0.00
Other   |            | 0.0002506  |            |       |  0.44

Nlocal:    88 ave 88 max 88 min
Histogram: 1 0 0 0 0 0 0 0 0 0
Nghost:    125 ave 125 max 125 min
Histogram: 1 0 0 0 0 0 0 0 0 0
Neighs:    3163 ave 3163 max 3163 min
Histogram: 1 0 0 0 0 0 0 0 0 0

Total # of neighbors = 3163
Ave neighs/atom = 35.9432
Ave special neighs/atom = 10.5909
Neighbor list builds = 1
Dangerous builds = 0
write_dump all custom pysimm.dump.tmp id q x y z vx vy vz
quit


################################################################################
##################################    Init    ##################################
################################################################################
units           real
atom_style      full
pair_style      lj/cut/coul/long 12.0  12.0
kspace_style    pppm 1e-4
bond_style      harmonic
angle_style     harmonic
dihedral_style  fourier
special_bonds   amber
pair_modify     mix arithmetic
read_data       temp.lmps
  orthogonal box = (-58.1617 -58.1617 -58.1617) to (58.1617 58.1617 58.1617)
  1 by 1 by 1 MPI processor grid
  reading atoms ...
  96 atoms
  reading velocities ...
  96 velocities
  scanning bonds ...
  4 = max bonds/atom
  scanning angles ...
  6 = max angles/atom
  scanning dihedrals ...
  12 = max dihedrals/atom
  reading bonds ...
  95 bonds
  reading angles ...
  175 angles
  reading dihedrals ...
  240 dihedrals
  4 = max # of 1-2 neighbors
  6 = max # of 1-3 neighbors
  12 = max # of 1-4 neighbors
  15 = max # of special neighbors
  special bonds CPU = 0.000405073 secs
  read_data CPU = 0.00713801 secs
################################################################################

timestep        1
fix             pysimm_md all nve/limit 0.1
run             2000
PPPM initialization ...
WARNING: System is not charge neutral, net charge = -1.2e-05 (../kspace.cpp:313)
  using 12-bit tables for long-range coulomb (../kspace.cpp:332)
  G vector (1/distance) = 0.125836
  grid = 15 15 15
  stencil order = 5
  estimated absolute RMS force accuracy = 0.0260266
  estimated relative force accuracy = 7.83782e-05
  using double precision KISS FFT
  3d grid and FFT values/proc = 8000 3375
Neighbor list info ...
  update every 1 steps, delay 10 steps, check yes
  max neighbors/atom: 2000, page size: 100000
  master list distance cutoff = 14
  ghost atom cutoff = 14
  binsize = 7, bins = 17 17 17
  1 neighbor lists, perpetual/occasional/extra = 1 0 0
  (1) pair lj/cut/coul/long, perpetual
      attributes: half, newton on
      pair build: half/bin/newton
      stencil: half/bin/3d/newton
      bin: standard
Per MPI rank memory allocation (min/avg/max) = 13.66 | 13.66 | 13.66 Mbytes
Step Temp E_pair E_mol TotEng Press 
       0    589.09219      7833664    4214.4201    7838045.2    1365168.7 
    2000     1091.165    194.14893    234.98756    738.12927   0.92656509 
Loop time of 2.47831 on 1 procs for 2000 steps with 96 atoms

Performance: 69.725 ns/day, 0.344 hours/ns, 807.003 timesteps/s
100.0% CPU use with 1 MPI tasks x no OpenMP threads

MPI task timing breakdown:
Section |  min time  |  avg time  |  max time  |%varavg| %total
---------------------------------------------------------------
Pair    | 0.20523    | 0.20523    | 0.20523    |   0.0 |  8.28
Bond    | 0.085035   | 0.085035   | 0.085035   |   0.0 |  3.43
Kspace  | 2.159      | 2.159      | 2.159      |   0.0 | 87.12
Neigh   | 0.020682   | 0.020682   | 0.020682   |   0.0 |  0.83
Comm    | 0.0015383  | 0.0015383  | 0.0015383  |   0.0 |  0.06
Output  | 1.4067e-05 | 1.4067e-05 | 1.4067e-05 |   0.0 |  0.00
Modify  | 0.0043256  | 0.0043256  | 0.0043256  |   0.0 |  0.17
Other   |            | 0.002465   |            |       |  0.10

Nlocal:    96 ave 96 max 96 min
Histogram: 1 0 0 0 0 0 0 0 0 0
Nghost:    0 ave 0 max 0 min
Histogram: 1 0 0 0 0 0 0 0 0 0
Neighs:    3398 ave 3398 max 3398 min
Histogram: 1 0 0 0 0 0 0 0 0 0

Total # of neighbors = 3398
Ave neighs/atom = 35.3958
Ave special neighs/atom = 10.625
Neighbor list builds = 130
Dangerous builds = 0
unfix pysimm_md
min_style cg
minimize 0.001 0.001 10000 100000
WARNING: Using 'neigh_modify every 1 delay 0 check yes' setting during minimization (../min.cpp:190)
PPPM initialization ...
  using 12-bit tables for long-range coulomb (../kspace.cpp:332)
  G vector (1/distance) = 0.125836
  grid = 15 15 15
  stencil order = 5
  estimated absolute RMS force accuracy = 0.0260266
  estimated relative force accuracy = 7.83782e-05
  using double precision KISS FFT
  3d grid and FFT values/proc = 8000 3375
Per MPI rank memory allocation (min/avg/max) = 14.78 | 14.78 | 14.78 Mbytes
Step Temp E_pair E_mol TotEng Press 
    2000     1091.165    194.14893    234.98756    738.12927   0.92656509 
    2031     1091.165    187.12693    36.341471    532.46118    9.3469208 
Loop time of 0.0611842 on 1 procs for 31 steps with 96 atoms

99.7% CPU use with 1 MPI tasks x no OpenMP threads

Minimization stats:
  Stopping criterion = energy tolerance
  Energy initial, next-to-last, final = 
         429.136487067      223.495574332      223.468402328
  Force two-norm initial, final = 501.583 22.7238
  Force max component initial, final = 103.636 5.069
  Final line search alpha, max atom move = 0.00630297 0.0319498
  Iterations, force evaluations = 31 62

MPI task timing breakdown:
Section |  min time  |  avg time  |  max time  |%varavg| %total
---------------------------------------------------------------
Pair    | 0.008004   | 0.008004   | 0.008004   |   0.0 | 13.08
Bond    | 0.0022388  | 0.0022388  | 0.0022388  |   0.0 |  3.66
Kspace  | 0.050677   | 0.050677   | 0.050677   |   0.0 | 82.83
Neigh   | 0          | 0          | 0          |   0.0 |  0.00
Comm    | 1.812e-05  | 1.812e-05  | 1.812e-05  |   0.0 |  0.03
Output  | 0          | 0          | 0          |   0.0 |  0.00
Modify  | 0          | 0          | 0          |   0.0 |  0.00
Other   |            | 0.0002465  |            |       |  0.40

Nlocal:    96 ave 96 max 96 min
Histogram: 1 0 0 0 0 0 0 0 0 0
Nghost:    0 ave 0 max 0 min
Histogram: 1 0 0 0 0 0 0 0 0 0
Neighs:    3395 ave 3395 max 3395 min
Histogram: 1 0 0 0 0 0 0 0 0 0

Total # of neighbors = 3395
Ave neighs/atom = 35.3646
Ave special neighs/atom = 10.625
Neighbor list builds = 0
Dangerous builds = 0
write_dump all custom pysimm.dump.tmp id q x y z vx vy vz
quit


################################################################################
##################################    Init    ##################################
################################################################################
units           real
atom_style      full
pair_style      lj/cut/coul/long 12.0  12.0
kspace_style    pppm 1e-4
bond_style      harmonic
angle_style     harmonic
dihedral_style  fourier
special_bonds   amber
pair_modify     mix arithmetic
read_data       temp.lmps
  orthogonal box = (-59.8733 -59.8733 -59.8733) to (59.8733 59.8733 59.8733)
  1 by 1 by 1 MPI processor grid
  reading atoms ...
  104 atoms
  reading velocities ...
  104 velocities
  scanning bonds ...
  4 = max bonds/atom
  scanning angles ...
  6 = max angles/atom
  scanning dihedrals ...
  12 = max dihedrals/atom
  reading bonds ...
  103 bonds
  reading angles ...
  190 angles
  reading dihedrals ...
  261 dihedrals
  4 = max # of 1-2 neighbors
  6 = max # of 1-3 neighbors
  12 = max # of 1-4 neighbors
  15 = max # of special neighbors
  special bonds CPU = 0.000293016 secs
  read_data CPU = 0.00729108 secs
################################################################################

timestep        1
fix             pysimm_md all nve/limit 0.1
run             2000
PPPM initialization ...
WARNING: System is not charge neutral, net charge = -1.3e-05 (../kspace.cpp:313)
  using 12-bit tables for long-range coulomb (../kspace.cpp:332)
  G vector (1/distance) = 0.123573
  grid = 15 15 15
  stencil order = 5
  estimated absolute RMS force accuracy = 0.0281318
  estimated relative force accuracy = 8.47181e-05
  using double precision KISS FFT
  3d grid and FFT values/proc = 8000 3375
Neighbor list info ...
  update every 1 steps, delay 10 steps, check yes
  max neighbors/atom: 2000, page size: 100000
  master list distance cutoff = 14
  ghost atom cutoff = 14
  binsize = 7, bins = 18 18 18
  1 neighbor lists, perpetual/occasional/extra = 1 0 0
  (1) pair lj/cut/coul/long, perpetual
      attributes: half, newton on
      pair build: half/bin/newton
      stencil: half/bin/3d/newton
      bin: standard
Per MPI rank memory allocation (min/avg/max) = 13.66 | 13.66 | 13.66 Mbytes
Step Temp E_pair E_mol TotEng Press 
       0    1006.4172    182.94152    4040.1488     4532.084    -140.2022 
    2000    807.15919    208.90221    231.78666    688.50565    2.5916844 
Loop time of 1.89963 on 1 procs for 2000 steps with 104 atoms

Performance: 90.965 ns/day, 0.264 hours/ns, 1052.837 timesteps/s
100.1% CPU use with 1 MPI tasks x no OpenMP threads

MPI task timing breakdown:
Section |  min time  |  avg time  |  max time  |%varavg| %total
---------------------------------------------------------------
Pair    | 0.21368    | 0.21368    | 0.21368    |   0.0 | 11.25
Bond    | 0.067768   | 0.067768   | 0.067768   |   0.0 |  3.57
Kspace  | 1.5974     | 1.5974     | 1.5974     |   0.0 | 84.09
Neigh   | 0.014361   | 0.014361   | 0.014361   |   0.0 |  0.76
Comm    | 0.0010505  | 0.0010505  | 0.0010505  |   0.0 |  0.06
Output  | 1.1921e-05 | 1.1921e-05 | 1.1921e-05 |   0.0 |  0.00
Modify  | 0.003304   | 0.003304   | 0.003304   |   0.0 |  0.17
Other   |            | 0.002013   |            |       |  0.11

Nlocal:    104 ave 104 max 104 min
Histogram: 1 0 0 0 0 0 0 0 0 0
Nghost:    35 ave 35 max 35 min
Histogram: 1 0 0 0 0 0 0 0 0 0
Neighs:    4094 ave 4094 max 4094 min
Histogram: 1 0 0 0 0 0 0 0 0 0

Total # of neighbors = 4094
Ave neighs/atom = 39.3654
Ave special neighs/atom = 10.6538
Neighbor list builds = 104
Dangerous builds = 0
unfix pysimm_md
min_style cg
minimize 0.001 0.001 10000 100000
WARNING: Using 'neigh_modify every 1 delay 0 check yes' setting during minimization (../min.cpp:190)
PPPM initialization ...
  using 12-bit tables for long-range coulomb (../kspace.cpp:332)
  G vector (1/distance) = 0.123573
  grid = 15 15 15
  stencil order = 5
  estimated absolute RMS force accuracy = 0.0281318
  estimated relative force accuracy = 8.47181e-05
  using double precision KISS FFT
  3d grid and FFT values/proc = 8000 3375
Per MPI rank memory allocation (min/avg/max) = 14.79 | 14.79 | 14.79 Mbytes
Step Temp E_pair E_mol TotEng Press 
    2000    807.15919    208.90221    231.78666    688.50565    2.5916844 
    2038    807.15919    198.15064    47.471153    493.43858    5.6404253 
Loop time of 0.0629768 on 1 procs for 38 steps with 104 atoms

100.0% CPU use with 1 MPI tasks x no OpenMP threads

Minimization stats:
  Stopping criterion = energy tolerance
  Energy initial, next-to-last, final = 
          440.68886763      245.772169622      245.621791219
  Force two-norm initial, final = 539.699 19.8834
  Force max component initial, final = 105.851 3.87464
  Final line search alpha, max atom move = 0.00534663 0.0207163
  Iterations, force evaluations = 38 76

MPI task timing breakdown:
Section |  min time  |  avg time  |  max time  |%varavg| %total
---------------------------------------------------------------
Pair    | 0.0095358  | 0.0095358  | 0.0095358  |   0.0 | 15.14
Bond    | 0.0024347  | 0.0024347  | 0.0024347  |   0.0 |  3.87
Kspace  | 0.05057    | 0.05057    | 0.05057    |   0.0 | 80.30
Neigh   | 0.00011921 | 0.00011921 | 0.00011921 |   0.0 |  0.19
Comm    | 3.6955e-05 | 3.6955e-05 | 3.6955e-05 |   0.0 |  0.06
Output  | 0          | 0          | 0          |   0.0 |  0.00
Modify  | 0          | 0          | 0          |   0.0 |  0.00
Other   |            | 0.0002799  |            |       |  0.44

Nlocal:    104 ave 104 max 104 min
Histogram: 1 0 0 0 0 0 0 0 0 0
Nghost:    35 ave 35 max 35 min
Histogram: 1 0 0 0 0 0 0 0 0 0
Neighs:    4067 ave 4067 max 4067 min
Histogram: 1 0 0 0 0 0 0 0 0 0

Total # of neighbors = 4067
Ave neighs/atom = 39.1058
Ave special neighs/atom = 10.6538
Neighbor list builds = 1
Dangerous builds = 0
write_dump all custom pysimm.dump.tmp id q x y z vx vy vz
quit


################################################################################
##################################    Init    ##################################
################################################################################
units           real
atom_style      full
pair_style      lj/cut/coul/long 12.0  12.0
kspace_style    pppm 1e-4
bond_style      harmonic
angle_style     harmonic
dihedral_style  fourier
special_bonds   amber
pair_modify     mix arithmetic
read_data       temp.lmps
  orthogonal box = (-61.4923 -61.4923 -61.4923) to (61.4923 61.4923 61.4923)
  1 by 1 by 1 MPI processor grid
  reading atoms ...
  112 atoms
  reading velocities ...
  112 velocities
  scanning bonds ...
  4 = max bonds/atom
  scanning angles ...
  6 = max angles/atom
  scanning dihedrals ...
  12 = max dihedrals/atom
  reading bonds ...
  111 bonds
  reading angles ...
  205 angles
  reading dihedrals ...
  282 dihedrals
  4 = max # of 1-2 neighbors
  6 = max # of 1-3 neighbors
  12 = max # of 1-4 neighbors
  15 = max # of special neighbors
  special bonds CPU = 0.000524044 secs
  read_data CPU = 0.00720811 secs
################################################################################

timestep        1
fix             pysimm_md all nve/limit 0.1
run             2000
PPPM initialization ...
WARNING: System is not charge neutral, net charge = -1.4e-05 (../kspace.cpp:313)
  using 12-bit tables for long-range coulomb (../kspace.cpp:332)
  G vector (1/distance) = 0.121502
  grid = 15 15 15
  stencil order = 5
  estimated absolute RMS force accuracy = 0.030175
  estimated relative force accuracy = 9.0871e-05
  using double precision KISS FFT
  3d grid and FFT values/proc = 8000 3375
Neighbor list info ...
  update every 1 steps, delay 10 steps, check yes
  max neighbors/atom: 2000, page size: 100000
  master list distance cutoff = 14
  ghost atom cutoff = 14
  binsize = 7, bins = 18 18 18
  1 neighbor lists, perpetual/occasional/extra = 1 0 0
  (1) pair lj/cut/coul/long, perpetual
      attributes: half, newton on
      pair build: half/bin/newton
      stencil: half/bin/3d/newton
      bin: standard
Per MPI rank memory allocation (min/avg/max) = 13.66 | 13.66 | 13.66 Mbytes
Step Temp E_pair E_mol TotEng Press 
       0    748.98776    194.41627    4299.8642     4742.098   -137.60466 
    2000    605.45229    220.02666    208.85929     629.2119   0.80210245 
Loop time of 2.44794 on 1 procs for 2000 steps with 112 atoms

Performance: 70.590 ns/day, 0.340 hours/ns, 817.013 timesteps/s
100.0% CPU use with 1 MPI tasks x no OpenMP threads

MPI task timing breakdown:
Section |  min time  |  avg time  |  max time  |%varavg| %total
---------------------------------------------------------------
Pair    | 0.2801     | 0.2801     | 0.2801     |   0.0 | 11.44
Bond    | 0.095519   | 0.095519   | 0.095519   |   0.0 |  3.90
Kspace  | 2.0451     | 2.0451     | 2.0451     |   0.0 | 83.54
Neigh   | 0.018471   | 0.018471   | 0.018471   |   0.0 |  0.75
Comm    | 0.0012794  | 0.0012794  | 0.0012794  |   0.0 |  0.05
Output  | 1.3113e-05 | 1.3113e-05 | 1.3113e-05 |   0.0 |  0.00
Modify  | 0.0045686  | 0.0045686  | 0.0045686  |   0.0 |  0.19
Other   |            | 0.002941   |            |       |  0.12

Nlocal:    112 ave 112 max 112 min
Histogram: 1 0 0 0 0 0 0 0 0 0
Nghost:    0 ave 0 max 0 min
Histogram: 1 0 0 0 0 0 0 0 0 0
Neighs:    4606 ave 4606 max 4606 min
Histogram: 1 0 0 0 0 0 0 0 0 0

Total # of neighbors = 4606
Ave neighs/atom = 41.125
Ave special neighs/atom = 10.6786
Neighbor list builds = 90
Dangerous builds = 0
unfix pysimm_md
min_style cg
minimize 0.001 0.001 10000 100000
WARNING: Using 'neigh_modify every 1 delay 0 check yes' setting during minimization (../min.cpp:190)
PPPM initialization ...
  using 12-bit tables for long-range coulomb (../kspace.cpp:332)
  G vector (1/distance) = 0.121502
  grid = 15 15 15
  stencil order = 5
  estimated absolute RMS force accuracy = 0.030175
  estimated relative force accuracy = 9.0871e-05
  using double precision KISS FFT
  3d grid and FFT values/proc = 8000 3375
Per MPI rank memory allocation (min/avg/max) = 14.79 | 14.79 | 14.79 Mbytes
Step Temp E_pair E_mol TotEng Press 
    2000    605.45229    220.02666    208.85929     629.2119   0.80210245 
    2029    605.45229    210.32586    48.982933    459.63474    4.4574956 
Loop time of 0.105291 on 1 procs for 29 steps with 112 atoms

99.7% CPU use with 1 MPI tasks x no OpenMP threads

Minimization stats:
  Stopping criterion = linesearch alpha is zero
  Energy initial, next-to-last, final = 
         428.885953092      259.308794741      259.308794741
  Force two-norm initial, final = 497.406 23.7513
  Force max component initial, final = 91.6471 5.00973
  Final line search alpha, max atom move = 2.08315e-11 1.0436e-10
  Iterations, force evaluations = 29 113

MPI task timing breakdown:
Section |  min time  |  avg time  |  max time  |%varavg| %total
---------------------------------------------------------------
Pair    | 0.01813    | 0.01813    | 0.01813    |   0.0 | 17.22
Bond    | 0.0042906  | 0.0042906  | 0.0042906  |   0.0 |  4.07
Kspace  | 0.08249    | 0.08249    | 0.08249    |   0.0 | 78.35
Neigh   | 0          | 0          | 0          |   0.0 |  0.00
Comm    | 2.9802e-05 | 2.9802e-05 | 2.9802e-05 |   0.0 |  0.03
Output  | 0          | 0          | 0          |   0.0 |  0.00
Modify  | 0          | 0          | 0          |   0.0 |  0.00
Other   |            | 0.0003505  |            |       |  0.33

Nlocal:    112 ave 112 max 112 min
Histogram: 1 0 0 0 0 0 0 0 0 0
Nghost:    0 ave 0 max 0 min
Histogram: 1 0 0 0 0 0 0 0 0 0
Neighs:    4589 ave 4589 max 4589 min
Histogram: 1 0 0 0 0 0 0 0 0 0

Total # of neighbors = 4589
Ave neighs/atom = 40.9732
Ave special neighs/atom = 10.6786
Neighbor list builds = 0
Dangerous builds = 0
write_dump all custom pysimm.dump.tmp id q x y z vx vy vz
quit


################################################################################
##################################    Init    ##################################
################################################################################
units           real
atom_style      full
pair_style      lj/cut/coul/long 12.0  12.0
kspace_style    pppm 1e-4
bond_style      harmonic
angle_style     harmonic
dihedral_style  fourier
special_bonds   amber
pair_modify     mix arithmetic
read_data       temp.lmps
  orthogonal box = (-63.0302 -63.0302 -63.0302) to (63.0302 63.0302 63.0302)
  1 by 1 by 1 MPI processor grid
  reading atoms ...
  120 atoms
  reading velocities ...
  120 velocities
  scanning bonds ...
  4 = max bonds/atom
  scanning angles ...
  6 = max angles/atom
  scanning dihedrals ...
  12 = max dihedrals/atom
  reading bonds ...
  119 bonds
  reading angles ...
  220 angles
  reading dihedrals ...
  303 dihedrals
  4 = max # of 1-2 neighbors
  6 = max # of 1-3 neighbors
  12 = max # of 1-4 neighbors
  15 = max # of special neighbors
  special bonds CPU = 0.00113893 secs
  read_data CPU = 0.00832415 secs
################################################################################

timestep        1
fix             pysimm_md all nve/limit 0.1
run             2000
PPPM initialization ...
WARNING: System is not charge neutral, net charge = -1.5e-05 (../kspace.cpp:313)
  using 12-bit tables for long-range coulomb (../kspace.cpp:332)
  G vector (1/distance) = 0.119595
  grid = 15 15 15
  stencil order = 5
  estimated absolute RMS force accuracy = 0.0321585
  estimated relative force accuracy = 9.68442e-05
  using double precision KISS FFT
  3d grid and FFT values/proc = 8000 3375
Neighbor list info ...
  update every 1 steps, delay 10 steps, check yes
  max neighbors/atom: 2000, page size: 100000
  master list distance cutoff = 14
  ghost atom cutoff = 14
  binsize = 7, bins = 19 19 19
  1 neighbor lists, perpetual/occasional/extra = 1 0 0
  (1) pair lj/cut/coul/long, perpetual
      attributes: half, newton on
      pair build: half/bin/newton
      stencil: half/bin/3d/newton
      bin: standard
Per MPI rank memory allocation (min/avg/max) = 13.67 | 13.67 | 13.67 Mbytes
Step Temp E_pair E_mol TotEng Press 
       0    564.75218    206.73531    4303.6848    4710.7469   -130.21493 
    2000    539.24593    240.05388    241.50969    672.84294   -3.9854045 
Loop time of 2.37587 on 1 procs for 2000 steps with 120 atoms

Performance: 72.731 ns/day, 0.330 hours/ns, 841.798 timesteps/s
100.0% CPU use with 1 MPI tasks x no OpenMP threads

MPI task timing breakdown:
Section |  min time  |  avg time  |  max time  |%varavg| %total
---------------------------------------------------------------
Pair    | 0.25697    | 0.25697    | 0.25697    |   0.0 | 10.82
Bond    | 0.097862   | 0.097862   | 0.097862   |   0.0 |  4.12
Kspace  | 1.9935     | 1.9935     | 1.9935     |   0.0 | 83.90
Neigh   | 0.019147   | 0.019147   | 0.019147   |   0.0 |  0.81
Comm    | 0.0010002  | 0.0010002  | 0.0010002  |   0.0 |  0.04
Output  | 1.2159e-05 | 1.2159e-05 | 1.2159e-05 |   0.0 |  0.00
Modify  | 0.004745   | 0.004745   | 0.004745   |   0.0 |  0.20
Other   |            | 0.00266    |            |       |  0.11

Nlocal:    120 ave 120 max 120 min
Histogram: 1 0 0 0 0 0 0 0 0 0
Nghost:    0 ave 0 max 0 min
Histogram: 1 0 0 0 0 0 0 0 0 0
Neighs:    4384 ave 4384 max 4384 min
Histogram: 1 0 0 0 0 0 0 0 0 0

Total # of neighbors = 4384
Ave neighs/atom = 36.5333
Ave special neighs/atom = 10.7
Neighbor list builds = 96
Dangerous builds = 0
unfix pysimm_md
min_style cg
minimize 0.001 0.001 10000 100000
WARNING: Using 'neigh_modify every 1 delay 0 check yes' setting during minimization (../min.cpp:190)
PPPM initialization ...
  using 12-bit tables for long-range coulomb (../kspace.cpp:332)
  G vector (1/distance) = 0.119595
  grid = 15 15 15
  stencil order = 5
  estimated absolute RMS force accuracy = 0.0321585
  estimated relative force accuracy = 9.68442e-05
  using double precision KISS FFT
  3d grid and FFT values/proc = 8000 3375
Per MPI rank memory allocation (min/avg/max) = 14.8 | 14.8 | 14.8 Mbytes
Step Temp E_pair E_mol TotEng Press 
    2000    539.24593    240.05388    241.50969    672.84294   -3.9854045 
    2046    539.24593    225.99037    56.081157     473.3509    2.9349298 
[...]
unfix pysimm_md
min_style cg
minimize 0.001 0.001 10000 100000
WARNING: Using 'neigh_modify every 1 delay 0 check yes' setting during minimization (../min.cpp:190)
PPPM initialization ...
  using 12-bit tables for long-range coulomb (../kspace.cpp:332)
  G vector (1/distance) = 0.125296
  grid = 24 24 24
  stencil order = 5
  estimated absolute RMS force accuracy = 0.0256849
  estimated relative force accuracy = 7.73494e-05
  using double precision KISS FFT
  3d grid and FFT values/proc = 24389 13824
Per MPI rank memory allocation (min/avg/max) = 16.41 | 16.41 | 16.41 Mbytes
Step Temp E_pair E_mol TotEng Press 
    2000    195.57494    796.54079    260.13457    1275.2898    1.4899747 
    2017    195.57494    795.13486    113.92255    1127.6718     1.378706 
Loop time of 0.112764 on 1 procs for 17 steps with 376 atoms

100.2% CPU use with 1 MPI tasks x no OpenMP threads

Minimization stats:
  Stopping criterion = energy tolerance
  Energy initial, next-to-last, final = 
         1056.67535831      909.822873312       909.05741257
  Force two-norm initial, final = 415.497 32.4693
  Force max component initial, final = 159.72 7.42839
  Final line search alpha, max atom move = 0.00625844 0.0464901
  Iterations, force evaluations = 17 32

MPI task timing breakdown:
Section |  min time  |  avg time  |  max time  |%varavg| %total
---------------------------------------------------------------
Pair    | 0.02127    | 0.02127    | 0.02127    |   0.0 | 18.86
Bond    | 0.0037258  | 0.0037258  | 0.0037258  |   0.0 |  3.30
Kspace  | 0.087493   | 0.087493   | 0.087493   |   0.0 | 77.59
Neigh   | 0          | 0          | 0          |   0.0 |  0.00
Comm    | 1.9073e-06 | 1.9073e-06 | 1.9073e-06 |   0.0 |  0.00
Output  | 0          | 0          | 0          |   0.0 |  0.00
Modify  | 0          | 0          | 0          |   0.0 |  0.00
Other   |            | 0.0002735  |            |       |  0.24

Nlocal:    376 ave 376 max 376 min
Histogram: 1 0 0 0 0 0 0 0 0 0
Nghost:    0 ave 0 max 0 min
Histogram: 1 0 0 0 0 0 0 0 0 0
Neighs:    22955 ave 22955 max 22955 min
Histogram: 1 0 0 0 0 0 0 0 0 0

Total # of neighbors = 22955
Ave neighs/atom = 61.0505
Ave special neighs/atom = 10.9043
Neighbor list builds = 0
Dangerous builds = 0
write_dump all custom pysimm.dump.tmp id q x y z vx vy vz
quit


################################################################################
##################################    Init    ##################################
################################################################################
units           real
atom_style      full
pair_style      lj/cut/coul/long 12.0  12.0
kspace_style    pppm 1e-4
bond_style      harmonic
angle_style     harmonic
dihedral_style  fourier
special_bonds   amber
pair_modify     mix arithmetic
read_data       temp.lmps
  orthogonal box = (-94.3783 -94.3783 -94.3783) to (94.3783 94.3783 94.3783)
  1 by 1 by 1 MPI processor grid
  reading atoms ...
  384 atoms
  reading velocities ...
  384 velocities
  scanning bonds ...
  4 = max bonds/atom
  scanning angles ...
  6 = max angles/atom
  scanning dihedrals ...
  12 = max dihedrals/atom
  reading bonds ...
  383 bonds
  reading angles ...
  715 angles
  reading dihedrals ...
  996 dihedrals
  4 = max # of 1-2 neighbors
  6 = max # of 1-3 neighbors
  12 = max # of 1-4 neighbors
  15 = max # of special neighbors
  special bonds CPU = 0.000889063 secs
  read_data CPU = 0.010772 secs
################################################################################

timestep        1
fix             pysimm_md all nve/limit 0.1
run             2000
PPPM initialization ...
WARNING: System is not charge neutral, net charge = -4.8e-05 (../kspace.cpp:313)
  using 12-bit tables for long-range coulomb (../kspace.cpp:332)
  G vector (1/distance) = 0.124736
  grid = 24 24 24
  stencil order = 5
  estimated absolute RMS force accuracy = 0.0262018
  estimated relative force accuracy = 7.89061e-05
  using double precision KISS FFT
  3d grid and FFT values/proc = 24389 13824
Neighbor list info ...
  update every 1 steps, delay 10 steps, check yes
  max neighbors/atom: 2000, page size: 100000
  master list distance cutoff = 14
  ghost atom cutoff = 14
  binsize = 7, bins = 27 27 27
  1 neighbor lists, perpetual/occasional/extra = 1 0 0
  (1) pair lj/cut/coul/long, perpetual
      attributes: half, newton on
      pair build: half/bin/newton
      stencil: half/bin/3d/newton
      bin: standard
Per MPI rank memory allocation (min/avg/max) = 15.29 | 15.29 | 15.29 Mbytes
Step Temp E_pair E_mol TotEng Press 
       0    191.49056      791.399    4495.2186    5505.2328   -39.145159 
    2000    169.89619    815.88859    260.05118    1269.9018   0.44885946 
Loop time of 7.22004 on 1 procs for 2000 steps with 384 atoms

Performance: 23.933 ns/day, 1.003 hours/ns, 277.007 timesteps/s
100.1% CPU use with 1 MPI tasks x no OpenMP threads

MPI task timing breakdown:
Section |  min time  |  avg time  |  max time  |%varavg| %total
---------------------------------------------------------------
Pair    | 0.97184    | 0.97184    | 0.97184    |   0.0 | 13.46
Bond    | 0.24587    | 0.24587    | 0.24587    |   0.0 |  3.41
Kspace  | 5.9188     | 5.9188     | 5.9188     |   0.0 | 81.98
Neigh   | 0.068644   | 0.068644   | 0.068644   |   0.0 |  0.95
Comm    | 0.0012338  | 0.0012338  | 0.0012338  |   0.0 |  0.02
Output  | 1.4067e-05 | 1.4067e-05 | 1.4067e-05 |   0.0 |  0.00
Modify  | 0.01012    | 0.01012    | 0.01012    |   0.0 |  0.14
Other   |            | 0.003531   |            |       |  0.05

Nlocal:    384 ave 384 max 384 min
Histogram: 1 0 0 0 0 0 0 0 0 0
Nghost:    0 ave 0 max 0 min
Histogram: 1 0 0 0 0 0 0 0 0 0
Neighs:    22031 ave 22031 max 22031 min
Histogram: 1 0 0 0 0 0 0 0 0 0

Total # of neighbors = 22031
Ave neighs/atom = 57.3724
Ave special neighs/atom = 10.9062
Neighbor list builds = 95
Dangerous builds = 0
unfix pysimm_md
min_style cg
minimize 0.001 0.001 10000 100000
WARNING: Using 'neigh_modify every 1 delay 0 check yes' setting during minimization (../min.cpp:190)
PPPM initialization ...
  using 12-bit tables for long-range coulomb (../kspace.cpp:332)
  G vector (1/distance) = 0.124736
  grid = 24 24 24
  stencil order = 5
  estimated absolute RMS force accuracy = 0.0262018
  estimated relative force accuracy = 7.89061e-05
  using double precision KISS FFT
  3d grid and FFT values/proc = 24389 13824
Per MPI rank memory allocation (min/avg/max) = 16.41 | 16.41 | 16.41 Mbytes
Step Temp E_pair E_mol TotEng Press 
    2000    169.89619    815.88859    260.05118    1269.9018   0.44885946 
    2014    169.89619    809.61599     123.0707    1126.6487    1.0484951 
Loop time of 0.0978069 on 1 procs for 14 steps with 384 atoms

99.2% CPU use with 1 MPI tasks x no OpenMP threads

Minimization stats:
  Stopping criterion = energy tolerance
  Energy initial, next-to-last, final = 
           1075.939768      933.303969686      932.686684545
  Force two-norm initial, final = 441.819 40.9023
  Force max component initial, final = 130.375 12.2327
  Final line search alpha, max atom move = 0.00457895 0.0560129
  Iterations, force evaluations = 14 28

MPI task timing breakdown:
Section |  min time  |  avg time  |  max time  |%varavg| %total
---------------------------------------------------------------
Pair    | 0.018248   | 0.018248   | 0.018248   |   0.0 | 18.66
Bond    | 0.0033753  | 0.0033753  | 0.0033753  |   0.0 |  3.45
Kspace  | 0.075941   | 0.075941   | 0.075941   |   0.0 | 77.64
Neigh   | 0          | 0          | 0          |   0.0 |  0.00
Comm    | 5.9605e-06 | 5.9605e-06 | 5.9605e-06 |   0.0 |  0.01
Output  | 0          | 0          | 0          |   0.0 |  0.00
Modify  | 0          | 0          | 0          |   0.0 |  0.00
Other   |            | 0.000236   |            |       |  0.24

Nlocal:    384 ave 384 max 384 min
Histogram: 1 0 0 0 0 0 0 0 0 0
Nghost:    0 ave 0 max 0 min
Histogram: 1 0 0 0 0 0 0 0 0 0
Neighs:    22088 ave 22088 max 22088 min
Histogram: 1 0 0 0 0 0 0 0 0 0

Total # of neighbors = 22088
Ave neighs/atom = 57.5208
Ave special neighs/atom = 10.9062
Neighbor list builds = 0
Dangerous builds = 0
write_dump all custom pysimm.dump.tmp id q x y z vx vy vz
quit


################################################################################
##################################    Init    ##################################
################################################################################
units           real
atom_style      full
pair_style      lj/cut/coul/long 12.0  12.0
kspace_style    pppm 1e-4
bond_style      harmonic
angle_style     harmonic
dihedral_style  fourier
special_bonds   amber
pair_modify     mix arithmetic
read_data       temp.lmps
  orthogonal box = (-95.0429 -95.0429 -95.0429) to (95.0429 95.0429 95.0429)
  1 by 1 by 1 MPI processor grid
  reading atoms ...
  392 atoms
  reading velocities ...
  392 velocities
  scanning bonds ...
  4 = max bonds/atom
  scanning angles ...
  6 = max angles/atom
  scanning dihedrals ...
  12 = max dihedrals/atom
  reading bonds ...
  391 bonds
  reading angles ...
  730 angles
  reading dihedrals ...
  1017 dihedrals
  4 = max # of 1-2 neighbors
  6 = max # of 1-3 neighbors
  12 = max # of 1-4 neighbors
  15 = max # of special neighbors
  special bonds CPU = 0.00148797 secs
  read_data CPU = 0.014241 secs
################################################################################

timestep        1
fix             pysimm_md all nve/limit 0.1
run             2000
PPPM initialization ...
WARNING: System is not charge neutral, net charge = -4.9e-05 (../kspace.cpp:313)
  using 12-bit tables for long-range coulomb (../kspace.cpp:332)
  G vector (1/distance) = 0.124189
  grid = 24 24 24
  stencil order = 5
  estimated absolute RMS force accuracy = 0.0267151
  estimated relative force accuracy = 8.04516e-05
  using double precision KISS FFT
  3d grid and FFT values/proc = 24389 13824
Neighbor list info ...
  update every 1 steps, delay 10 steps, check yes
  max neighbors/atom: 2000, page size: 100000
  master list distance cutoff = 14
  ghost atom cutoff = 14
  binsize = 7, bins = 28 28 28
  1 neighbor lists, perpetual/occasional/extra = 1 0 0
  (1) pair lj/cut/coul/long, perpetual
      attributes: half, newton on
      pair build: half/bin/newton
      stencil: half/bin/3d/newton
      bin: standard
Per MPI rank memory allocation (min/avg/max) = 15.3 | 15.3 | 15.3 Mbytes
Step Temp E_pair E_mol TotEng Press 
       0    166.42072    806.39313    4020.6708    5021.0268   -34.756535 
    2000    167.30607    837.92618    300.87674    1333.7976   -0.4362131 
Loop time of 7.23837 on 1 procs for 2000 steps with 392 atoms

Performance: 23.873 ns/day, 1.005 hours/ns, 276.305 timesteps/s
100.0% CPU use with 1 MPI tasks x no OpenMP threads

MPI task timing breakdown:
Section |  min time  |  avg time  |  max time  |%varavg| %total
---------------------------------------------------------------
Pair    | 0.92609    | 0.92609    | 0.92609    |   0.0 | 12.79
Bond    | 0.25435    | 0.25435    | 0.25435    |   0.0 |  3.51
Kspace  | 5.971      | 5.971      | 5.971      |   0.0 | 82.49
Neigh   | 0.071782   | 0.071782   | 0.071782   |   0.0 |  0.99
Comm    | 0.0013514  | 0.0013514  | 0.0013514  |   0.0 |  0.02
Output  | 1.3113e-05 | 1.3113e-05 | 1.3113e-05 |   0.0 |  0.00
Modify  | 0.010482   | 0.010482   | 0.010482   |   0.0 |  0.14
Other   |            | 0.003315   |            |       |  0.05

Nlocal:    392 ave 392 max 392 min
Histogram: 1 0 0 0 0 0 0 0 0 0
Nghost:    0 ave 0 max 0 min
Histogram: 1 0 0 0 0 0 0 0 0 0
Neighs:    23027 ave 23027 max 23027 min
Histogram: 1 0 0 0 0 0 0 0 0 0

Total # of neighbors = 23027
Ave neighs/atom = 58.7423
Ave special neighs/atom = 10.9082
Neighbor list builds = 105
Dangerous builds = 0
unfix pysimm_md
min_style cg
minimize 0.001 0.001 10000 100000
WARNING: Using 'neigh_modify every 1 delay 0 check yes' setting during minimization (../min.cpp:190)
PPPM initialization ...
  using 12-bit tables for long-range coulomb (../kspace.cpp:332)
  G vector (1/distance) = 0.124189
  grid = 24 24 24
  stencil order = 5
  estimated absolute RMS force accuracy = 0.0267151
  estimated relative force accuracy = 8.04516e-05
  using double precision KISS FFT
  3d grid and FFT values/proc = 24389 13824
Per MPI rank memory allocation (min/avg/max) = 16.43 | 16.43 | 16.43 Mbytes
Step Temp E_pair E_mol TotEng Press 
    2000    167.30607    837.92618    300.87674    1333.7976   -0.4362131 
    2019    167.30607    829.84199    126.65031     1151.487    1.2173507 
Loop time of 0.130274 on 1 procs for 19 steps with 392 atoms

100.5% CPU use with 1 MPI tasks x no OpenMP threads

Minimization stats:
  Stopping criterion = energy tolerance
  Energy initial, next-to-last, final = 
         1138.80291415      957.108309878      956.492302422
  Force two-norm initial, final = 482.551 36.4282
  Force max component initial, final = 104.42 7.75467
  Final line search alpha, max atom move = 0.00456691 0.0354149
  Iterations, force evaluations = 19 38

MPI task timing breakdown:
Section |  min time  |  avg time  |  max time  |%varavg| %total
---------------------------------------------------------------
Pair    | 0.024177   | 0.024177   | 0.024177   |   0.0 | 18.56
Bond    | 0.0046239  | 0.0046239  | 0.0046239  |   0.0 |  3.55
Kspace  | 0.10115    | 0.10115    | 0.10115    |   0.0 | 77.64
Neigh   | 0          | 0          | 0          |   0.0 |  0.00
Comm    | 7.1526e-06 | 7.1526e-06 | 7.1526e-06 |   0.0 |  0.01
Output  | 0          | 0          | 0          |   0.0 |  0.00
Modify  | 0          | 0          | 0          |   0.0 |  0.00
Other   |            | 0.0003197  |            |       |  0.25

Nlocal:    392 ave 392 max 392 min
Histogram: 1 0 0 0 0 0 0 0 0 0
Nghost:    0 ave 0 max 0 min
Histogram: 1 0 0 0 0 0 0 0 0 0
Neighs:    23035 ave 23035 max 23035 min
Histogram: 1 0 0 0 0 0 0 0 0 0

Total # of neighbors = 23035
Ave neighs/atom = 58.7628
Ave special neighs/atom = 10.9082
Neighbor list builds = 0
Dangerous builds = 0
write_dump all custom pysimm.dump.tmp id q x y z vx vy vz
quit


################################################################################
##################################    Init    ##################################
################################################################################
units           real
atom_style      full
pair_style      lj/cut/coul/long 12.0  12.0
kspace_style    pppm 1e-4
bond_style      harmonic
angle_style     harmonic
dihedral_style  fourier
special_bonds   amber
pair_modify     mix arithmetic
read_data       temp.lmps
  orthogonal box = (-95.6984 -95.6984 -95.6984) to (95.6984 95.6984 95.6984)
  1 by 1 by 1 MPI processor grid
  reading atoms ...
  400 atoms
  reading velocities ...
  400 velocities
  scanning bonds ...
  4 = max bonds/atom
  scanning angles ...
  6 = max angles/atom
  scanning dihedrals ...
  12 = max dihedrals/atom
  reading bonds ...
  399 bonds
  reading angles ...
  745 angles
  reading dihedrals ...
  1038 dihedrals
  4 = max # of 1-2 neighbors
  6 = max # of 1-3 neighbors
  12 = max # of 1-4 neighbors
  15 = max # of special neighbors
  special bonds CPU = 0.000905037 secs
  read_data CPU = 0.0100749 secs
################################################################################

timestep        1
fix             pysimm_md all nve/limit 0.1
run             2000
PPPM initialization ...
WARNING: System is not charge neutral, net charge = -5e-05 (../kspace.cpp:313)
  using 12-bit tables for long-range coulomb (../kspace.cpp:332)
  G vector (1/distance) = 0.123653
  grid = 24 24 24
  stencil order = 5
  estimated absolute RMS force accuracy = 0.0272246
  estimated relative force accuracy = 8.19861e-05
  using double precision KISS FFT
  3d grid and FFT values/proc = 24389 13824
Neighbor list info ...
  update every 1 steps, delay 10 steps, check yes
  max neighbors/atom: 2000, page size: 100000
  master list distance cutoff = 14
  ghost atom cutoff = 14
  binsize = 7, bins = 28 28 28
  1 neighbor lists, perpetual/occasional/extra = 1 0 0
  (1) pair lj/cut/coul/long, perpetual
      attributes: half, newton on
      pair build: half/bin/newton
      stencil: half/bin/3d/newton
      bin: standard
Per MPI rank memory allocation (min/avg/max) = 15.3 | 15.3 | 15.3 Mbytes
Step Temp E_pair E_mol TotEng Press 
       0     163.9523    825.83934    4016.5829    5037.4178   -33.816484 
    2000    163.05571    840.09055    292.89116    1326.9109   0.82171434 
Loop time of 7.28206 on 1 procs for 2000 steps with 400 atoms

Performance: 23.730 ns/day, 1.011 hours/ns, 274.648 timesteps/s
100.1% CPU use with 1 MPI tasks x no OpenMP threads

MPI task timing breakdown:
Section |  min time  |  avg time  |  max time  |%varavg| %total
---------------------------------------------------------------
Pair    | 1.06       | 1.06       | 1.06       |   0.0 | 14.56
Bond    | 0.25348    | 0.25348    | 0.25348    |   0.0 |  3.48
Kspace  | 5.8797     | 5.8797     | 5.8797     |   0.0 | 80.74
Neigh   | 0.073044   | 0.073044   | 0.073044   |   0.0 |  1.00
Comm    | 0.0012593  | 0.0012593  | 0.0012593  |   0.0 |  0.02
Output  | 1.502e-05  | 1.502e-05  | 1.502e-05  |   0.0 |  0.00
Modify  | 0.010773   | 0.010773   | 0.010773   |   0.0 |  0.15
Other   |            | 0.003733   |            |       |  0.05

Nlocal:    400 ave 400 max 400 min
Histogram: 1 0 0 0 0 0 0 0 0 0
Nghost:    0 ave 0 max 0 min
Histogram: 1 0 0 0 0 0 0 0 0 0
Neighs:    27049 ave 27049 max 27049 min
Histogram: 1 0 0 0 0 0 0 0 0 0

Total # of neighbors = 27049
Ave neighs/atom = 67.6225
Ave special neighs/atom = 10.91
Neighbor list builds = 99
Dangerous builds = 0
unfix pysimm_md
min_style cg
minimize 0.001 0.001 10000 100000
WARNING: Using 'neigh_modify every 1 delay 0 check yes' setting during minimization (../min.cpp:190)
PPPM initialization ...
  using 12-bit tables for long-range coulomb (../kspace.cpp:332)
  G vector (1/distance) = 0.123653
  grid = 24 24 24
  stencil order = 5
  estimated absolute RMS force accuracy = 0.0272246
  estimated relative force accuracy = 8.19861e-05
  using double precision KISS FFT
  3d grid and FFT values/proc = 24389 13824
Per MPI rank memory allocation (min/avg/max) = 16.43 | 16.43 | 16.43 Mbytes
Step Temp E_pair E_mol TotEng Press 
    2000    163.05571    840.09055    292.89116    1326.9109   0.82171434 
    2016    163.05571    829.53912    141.52008    1164.9884   0.21285065 
Loop time of 0.11483 on 1 procs for 16 steps with 400 atoms

100.1% CPU use with 1 MPI tasks x no OpenMP threads

Minimization stats:
  Stopping criterion = energy tolerance
  Energy initial, next-to-last, final = 
         1132.98170714      971.329846009      971.059198625
  Force two-norm initial, final = 427.736 35.6588
  Force max component initial, final = 115.463 7.2671
  Final line search alpha, max atom move = 0.00733741 0.0533216
  Iterations, force evaluations = 16 32

MPI task timing breakdown:
Section |  min time  |  avg time  |  max time  |%varavg| %total
---------------------------------------------------------------
Pair    | 0.024781   | 0.024781   | 0.024781   |   0.0 | 21.58
Bond    | 0.0039515  | 0.0039515  | 0.0039515  |   0.0 |  3.44
Kspace  | 0.085809   | 0.085809   | 0.085809   |   0.0 | 74.73
Neigh   | 0          | 0          | 0          |   0.0 |  0.00
Comm    | 3.8147e-06 | 3.8147e-06 | 3.8147e-06 |   0.0 |  0.00
Output  | 0          | 0          | 0          |   0.0 |  0.00
Modify  | 0          | 0          | 0          |   0.0 |  0.00
Other   |            | 0.0002844  |            |       |  0.25

Nlocal:    400 ave 400 max 400 min
Histogram: 1 0 0 0 0 0 0 0 0 0
Nghost:    0 ave 0 max 0 min
Histogram: 1 0 0 0 0 0 0 0 0 0
Neighs:    27042 ave 27042 max 27042 min
Histogram: 1 0 0 0 0 0 0 0 0 0

Total # of neighbors = 27042
Ave neighs/atom = 67.605
Ave special neighs/atom = 10.91
Neighbor list builds = 0
Dangerous builds = 0
write_dump all custom pysimm.dump.tmp id q x y z vx vy vz
quit
