pySIMM System Object

398 atoms
397 bonds
792 angles
1179 dihedrals
0 impropers

2 atom types
2 bond types
3 angle types
3 dihedral types

-90.201958 90.201958 xlo xhi
-90.201958 90.201958 ylo yhi
-90.201958 90.201958 zlo zhi

Masses

   1	12.01	# c3
   2	1.008	# hc

Pair Coeffs

   1	0.1094	3.3996695084235347	# c3
   2	0.0157	2.649532787749369	# hc

Bond Coeffs

   1	330.6	1.0969	# c3,hc
   2	300.9	1.5375	# c3,c3

Angle Coeffs

   1	46.34	109.8	# c3,c3,hc
   2	39.4	107.58	# hc,c3,hc
   3	62.86	111.51	# c3,c3,c3

Dihedral Coeffs

   1	1	0.16	3	0	# hc,c3,c3,c3
   2	1	0.15	3	0	# hc,c3,c3,hc
   3	3	0.18	3	0	0.25	2	180	0.2	1	180	# c3,c3,c3,c3

Atoms

   1	1	1	-0.06457	4.46766	4.34063	10.5121
   2	1	1	0.061186	3.99783	3.93719	9.09175
   3	1	2	0.013749	4.02593	3.69265	11.2779
   4	1	2	0.012175	5.55964	4.2728	10.5988
   5	1	1	-0.029522	4.64244	4.83386	7.99251
   6	1	1	0.182537	4.30877	6.35166	8.06067
   7	1	2	0.017614	4.33493	4.46486	7.00555
   8	1	2	0.005524	5.73267	4.70932	8.03292
   9	1	1	-0.245806	2.7916	6.64239	8.01797
  10	1	1	-0.291525	4.99994	7.09734	6.90025
  11	1	2	-0.003466	4.7091	6.76199	8.99574
  12	1	2	0.0629	4.61893	6.75199	5.93072
  13	1	2	0.058439	6.0845	6.93346	6.92342
  14	1	2	0.076366	4.82202	8.17764	6.97053
  15	1	2	0.061036	2.28155	6.247	8.90407
  16	1	2	0.060061	2.33458	6.19823	7.12709
  17	1	2	0.042474	2.60437	7.72309	7.98981
  18	1	2	-0.019174	2.91526	4.08402	9.05373
  19	1	1	-0.06457	4.30026	2.43599	8.79925
  20	1	1	0.061186	3.36157	1.40711	9.50586
  21	1	2	0.013749	4.26872	2.24731	7.71929
  22	1	2	0.012175	5.34066	2.25331	9.09033
  23	1	1	-0.029522	3.87923	-0.0572169	9.35269
  24	1	1	0.182537	5.2583	-0.383117	9.99703
  25	1	2	0.017614	3.93677	-0.308689	8.2871
  26	1	2	0.005524	3.13477	-0.737846	9.78642
  27	1	1	-0.245806	5.60327	-1.87208	9.78024
  28	1	1	-0.291525	5.31718	-0.05363	11.5058
  29	1	2	-0.003466	6.03782	0.199152	9.49179
  30	1	2	0.0629	5.24606	1.0264	11.6811
  31	1	2	0.058439	6.26724	-0.390288	11.9395
  32	1	2	0.076366	4.5017	-0.548193	12.0484
  33	1	2	0.061036	4.87059	-2.52213	10.2751
  34	1	2	0.060061	6.59541	-2.10524	10.1868
  35	1	2	0.042474	5.61301	-2.11861	8.71111
  36	1	2	-0.019174	3.36781	1.63402	10.5769
  37	1	1	-0.06457	1.85755	1.49902	9.08121
  38	1	1	0.061186	1.52879	1.3069	7.5612
  39	1	2	0.013749	1.31427	0.75176	9.67083
  40	1	2	0.012175	1.43705	2.45123	9.4266
  41	1	1	-0.029522	0.215554	0.489797	7.35787
  42	1	1	0.182537	0.297968	-1.02491	7.69889
  43	1	2	0.017614	-0.114682	0.56214	6.31611
  44	1	2	0.005524	-0.578139	0.955927	7.9566
  45	1	1	-0.245806	1.23963	-1.79118	6.7427
  46	1	1	-0.291525	-1.11055	-1.65471	7.64043
  47	1	2	-0.003466	0.671991	-1.15328	8.72126
  48	1	2	0.0629	-1.0747	-2.71738	7.91086
  49	1	2	0.058439	-1.5374	-1.57286	6.63246
  50	1	2	0.076366	-1.79022	-1.15362	8.34106
  51	1	2	0.061036	1.21225	-2.86768	6.95316
  52	1	2	0.060061	2.2795	-1.46483	6.85174
  53	1	2	0.042474	0.940605	-1.64107	5.69784
  54	1	2	-0.019174	2.35548	0.756304	7.1078
  55	1	1	-0.06457	1.43039	2.69194	6.84912
  56	1	1	0.061186	1.20997	2.72996	5.30428
  57	1	2	0.013749	2.34789	3.24635	7.04407
  58	1	2	0.012175	0.625152	3.26675	7.32628
  59	1	1	-0.029522	2.21019	1.78142	4.56645
  60	1	1	0.182537	2.08545	1.68229	3.02368
  61	1	2	0.017614	3.23334	2.08995	4.81967
  62	1	2	0.005524	2.09344	0.762327	4.95128
  63	1	1	-0.245806	0.706849	1.14876	2.57332
  64	1	1	-0.291525	3.1996	0.781997	2.45139
  65	1	2	-0.003466	2.23987	2.67259	2.59194
  66	1	2	0.0629	4.19034	1.15535	2.73952
  67	1	2	0.058439	3.15529	0.764596	1.35601
  68	1	2	0.076366	3.10143	-0.248553	2.81567
  69	1	2	0.061036	0.519112	0.149079	2.98517
  70	1	2	0.060061	0.658224	1.08153	1.48027
  71	1	2	0.042474	-0.105841	1.80812	2.89618
  72	1	2	-0.019174	0.19558	2.37386	5.11853
  73	1	1	-0.06457	1.34103	4.2255	4.85746
  74	1	1	0.061186	0.454534	4.74861	3.6816
  75	1	2	0.013749	1.11519	4.87509	5.71183
  76	1	2	0.012175	2.40014	4.38926	4.63912
  77	1	1	-0.029522	-1.0647	4.61464	4.02337
  78	1	1	0.182537	-2.07093	5.08155	2.93264
  79	1	2	0.017614	-1.26647	5.17467	4.94607
  80	1	2	0.005524	-1.3028	3.5703	4.24696
  81	1	1	-0.245806	-1.85306	4.37368	1.57575
  82	1	1	-0.291525	-3.51858	4.84816	3.41458
  83	1	2	-0.003466	-1.96061	6.16172	2.77865
  84	1	2	0.0629	-3.70639	5.38086	4.35531
  85	1	2	0.058439	-3.71126	3.78065	3.58135
  86	1	2	0.076366	-4.23966	5.21334	2.67273
  87	1	2	0.061036	-0.88252	4.63681	1.13867
  88	1	2	0.060061	-2.62613	4.67029	0.856033
  89	1	2	0.042474	-1.89585	3.2832	1.69024
  90	1	2	-0.019174	0.644657	4.13338	2.80072
  91	1	1	-0.06457	0.800433	6.23514	3.32323
  92	1	1	0.061186	2.29275	6.58929	3.01912
  93	1	2	0.013749	0.459198	6.8703	4.1512
  94	1	2	0.012175	0.201384	6.51919	2.45781
  95	1	1	-0.029522	2.52593	8.1305	2.90489
  96	1	1	0.182537	2.25378	8.84046	1.54295
  97	1	2	0.017614	3.57654	8.31714	3.16285
  98	1	2	0.005524	1.94958	8.63551	3.69102
  99	1	1	-0.245806	0.793425	8.74545	1.05082
 100	1	1	-0.291525	2.66076	10.3263	1.63907
 101	1	2	-0.003466	2.89181	8.39169	0.775848
 102	1	2	0.0629	2.53474	10.8291	0.6719
 103	1	2	0.058439	3.71365	10.4256	1.93132
 104	1	2	0.076366	2.04722	10.8538	2.38052
 105	1	2	0.061036	0.556329	7.73274	0.710896
 106	1	2	0.060061	0.628329	9.41015	0.193648
 107	1	2	0.042474	0.0883119	9.02988	1.84198
 108	1	2	-0.019174	2.85376	6.31749	3.91585
 109	1	1	-0.06457	2.86805	5.78035	1.81588
 110	1	1	0.061186	4.42374	5.77555	1.67664
 111	1	2	0.013749	2.39402	6.14499	0.900547
 112	1	2	0.012175	2.55148	4.73781	1.88526
 113	1	1	-0.029522	5.05289	4.84542	2.76282
 114	1	1	0.182537	6.59348	4.94323	2.95323
 115	1	2	0.017614	4.79091	3.80765	2.5177
 116	1	2	0.005524	4.59461	5.04219	3.73772
 117	1	1	-0.245806	7.03985	6.3143	3.50983
 118	1	1	-0.291525	7.0782	3.8272	3.90325
 119	1	2	-0.003466	7.09497	4.78581	1.99214
 120	1	2	0.0629	6.82276	2.83711	3.50516
 121	1	2	0.058439	6.61839	3.92681	4.895
 122	1	2	0.076366	8.16774	3.86753	4.02668
 123	1	2	0.061036	6.75536	7.13877	2.84798
 124	1	2	0.060061	8.13069	6.34613	3.62338
 125	1	2	0.042474	6.5938	6.50119	4.49284
 126	1	2	-0.019174	4.78918	6.79394	1.83353
 127	1	1	-0.06457	4.82381	5.30829	0.240982
 128	1	1	0.061186	4.62875	6.37637	-0.881009
 129	1	2	0.013749	5.85968	4.9588	0.211779
 130	1	2	0.012175	4.21941	4.42366	0.0239595
 131	1	1	-0.029522	5.54055	7.63592	-0.70945
 132	1	1	0.182537	7.04679	7.43054	-0.360927
 133	1	2	0.017614	5.10767	8.2523	0.0872213
 134	1	2	0.005524	5.46622	8.25635	-1.6121
 135	1	1	-0.245806	7.8495	6.64445	-1.42017
 136	1	1	-0.291525	7.71815	8.80072	-0.125687
 137	1	2	-0.003466	7.11959	6.87949	0.581502
 138	1	2	0.0629	7.70218	9.40823	-1.03955
 139	1	2	0.058439	8.7637	8.67591	0.183102
 140	1	2	0.076366	7.20193	9.35834	0.66582
 141	1	2	0.061036	7.57153	5.58477	-1.42132
 142	1	2	0.060061	8.92411	6.68804	-1.20293
 143	1	2	0.042474	7.69069	7.05653	-2.42472
 144	1	2	-0.019174	3.61075	6.76073	-0.783316
 145	1	1	-0.06457	4.70403	5.81956	-2.3398
 146	1	1	0.061186	3.73475	4.66988	-2.75904
 147	1	2	0.013749	5.72164	5.50569	-2.57714
 148	1	2	0.012175	4.50937	6.66055	-3.01791
 149	1	1	-0.029522	2.25288	4.88077	-2.32009
 150	1	1	0.182537	1.55897	6.16987	-2.84147
 151	1	2	0.017614	2.19794	4.86577	-1.22499
 152	1	2	0.005524	1.65818	4.02115	-2.65228
 153	1	1	-0.245806	1.48262	6.22326	-4.38376
 154	1	1	-0.291525	0.137673	6.27636	-2.24885
 155	1	2	-0.003466	2.12084	7.04754	-2.50095
 156	1	2	0.0629	0.168387	6.25501	-1.15289
 157	1	2	0.058439	-0.492634	5.44394	-2.58721
 158	1	2	0.076366	-0.342526	7.21451	-2.55379
 159	1	2	0.061036	2.4808	6.3	-4.83036
 160	1	2	0.060061	0.910534	7.10001	-4.71213
 161	1	2	0.042474	0.992043	5.32723	-4.78491
 162	1	2	-0.019174	3.7489	4.69535	-3.85256
 163	1	1	-0.06457	4.24868	3.25257	-2.3428
 164	1	1	0.061186	4.35968	2.20295	-3.49263
 165	1	2	0.013749	5.22046	3.33429	-1.84351
 166	1	2	0.012175	3.58265	2.83831	-1.57431
 167	1	1	-0.029522	5.4716	2.5411	-4.53716
 168	1	1	0.182537	6.90113	2.78648	-3.97624
 169	1	2	0.017614	5.16574	3.41945	-5.11915
 170	1	2	0.005524	5.54854	1.71667	-5.25497
 171	1	1	-0.245806	7.43966	1.58264	-3.1713
 172	1	1	-0.291525	7.87448	3.11965	-5.1266
 173	1	2	-0.003466	6.88574	3.65856	-3.31416
 174	1	2	0.0629	7.53348	4.0022	-5.68226
 175	1	2	0.058439	7.95507	2.28142	-5.83038
 176	1	2	0.076366	8.87715	3.3359	-4.73698
 177	1	2	0.061036	7.42974	0.668831	-3.7788
 178	1	2	0.060061	6.84028	1.40419	-2.27085
 179	1	2	0.042474	8.47176	1.76446	-2.84636
 180	1	2	-0.019174	4.64304	1.26544	-3.00355
 181	1	1	-0.06457	2.9711	1.97479	-4.1683
 182	1	1	0.061186	2.86358	0.825614	-5.21523
 183	1	2	0.013749	2.22175	1.79607	-3.38606
 184	1	2	0.012175	2.67763	2.90662	-4.66664
 185	1	1	-0.029522	3.09046	-0.567978	-4.55836
 186	1	1	0.182537	3.11491	-1.78516	-5.52019
 187	1	2	0.017614	2.29064	-0.723353	-3.82768
 188	1	2	0.005524	4.02955	-0.57099	-3.9942
 189	1	1	-0.245806	3.08819	-3.10257	-4.71561
 190	1	1	-0.291525	4.34452	-1.76979	-6.45422
 191	1	2	-0.003466	2.21242	-1.76977	-6.13829
 192	1	2	0.0629	5.27595	-1.78827	-5.87443
 193	1	2	0.058439	4.35605	-0.878305	-7.09128
 194	1	2	0.076366	4.33709	-2.64599	-7.11434
 195	1	2	0.061036	3.12147	-3.97107	-5.3847
 196	1	2	0.060061	2.16901	-3.17586	-4.12221
 197	1	2	0.042474	3.94451	-3.16594	-4.0324
 198	1	2	-0.019174	3.64312	0.979431	-5.96437
 199	1	1	-0.06457	1.47339	0.905505	-5.92161
 200	1	1	0.061186	1.51581	0.759479	-7.47278
 201	1	2	0.013749	0.818263	0.149871	-5.47607
 202	1	2	0.012175	0.981022	1.86007	-5.69308
 203	1	1	-0.029522	2.12697	2.04549	-8.11358
 204	1	1	0.182537	2.45743	1.97612	-9.63222
 205	1	2	0.017614	3.0518	2.3131	-7.58984
 206	1	2	0.005524	1.43799	2.88291	-7.94076
 207	1	1	-0.245806	3.40621	0.809884	-9.99013
 208	1	1	-0.291525	3.08194	3.30948	-10.0957
 209	1	2	-0.003466	1.52902	1.84486	-10.1998
 210	1	2	0.0629	4.03626	3.4955	-9.58653
 211	1	2	0.058439	2.41015	4.15015	-9.88143
 212	1	2	0.076366	3.26905	3.29684	-11.1767
 213	1	2	0.061036	4.31896	0.844358	-9.38197
 214	1	2	0.060061	3.69896	0.859168	-11.0463
 215	1	2	0.042474	2.92246	-0.161052	-9.83405
 216	1	2	-0.019174	2.16268	-0.0880137	-7.71257
 217	1	1	-0.06457	0.0896915	0.46777	-8.02821
 218	1	1	0.061186	-0.429918	-0.982087	-7.77423
 219	1	2	0.013749	-0.595117	1.2067	-7.59904
 220	1	2	0.012175	0.0540802	0.64743	-9.10808
 221	1	1	-0.029522	0.158604	-1.94581	-8.85182
 222	1	1	0.182537	-0.0419285	-3.47146	-8.60706
 223	1	2	0.017614	1.23493	-1.76427	-8.95691
 224	1	2	0.005524	-0.284326	-1.68142	-9.82129
 225	1	1	-0.245806	0.773161	-3.99823	-7.40618
 226	1	1	-0.291525	0.348465	-4.26555	-9.87163
 227	1	2	-0.003466	-1.09865	-3.68327	-8.41179
 228	1	2	0.0629	0.179868	-5.3398	-9.72512
 229	1	2	0.058439	1.40721	-4.11603	-10.1191
 230	1	2	0.076366	-0.252319	-3.94729	-10.7328
 231	1	2	0.061036	0.612488	-5.07559	-7.27473
 232	1	2	0.060061	0.481807	-3.50824	-6.47152
 233	1	2	0.042474	1.84628	-3.83368	-7.56279
 234	1	2	-0.019174	-0.0690228	-1.31664	-6.79959
 235	1	1	-0.06457	-1.99244	-1.01458	-7.76628
 236	1	1	0.061186	-2.68917	-0.857521	-6.38028
 237	1	2	0.013749	-2.37508	-0.246563	-8.45137
 238	1	2	0.012175	-2.3503	-1.95609	-8.19362
 239	1	1	-0.029522	-2.50073	0.558656	-5.76233
 240	1	1	0.182537	-3.3741	0.869898	-4.51314
 241	1	2	0.017614	-2.71005	1.31675	-6.52809
 242	1	2	0.005524	-1.44831	0.680374	-5.48394
 243	1	1	-0.245806	-4.88053	0.957398	-4.84803
 244	1	1	-0.291525	-2.91456	2.19049	-3.85895
 245	1	2	-0.003466	-3.23682	0.0771686	-3.76773
 246	1	2	0.0629	-3.5032	2.40446	-2.95801
 247	1	2	0.058439	-3.03068	3.03403	-4.55137
 248	1	2	0.076366	-1.85936	2.13316	-3.5631
 249	1	2	0.061036	-5.46042	1.20835	-3.95104
 250	1	2	0.060061	-5.2668	0.0062117	-5.23028
 251	1	2	0.042474	-5.0706	1.73145	-5.60225
 252	1	2	-0.019174	-3.75733	-0.957988	-6.60428
 253	1	1	-0.06457	-2.2878	-1.99094	-5.38063
 254	1	1	0.061186	-3.49241	-2.82282	-4.86538
 255	1	2	0.013749	-1.58021	-2.6857	-5.84516
 256	1	2	0.012175	-1.75309	-1.54433	-4.53282
 257	1	1	-0.029522	-4.01702	-3.78692	-5.97572
 258	1	1	0.182537	-5.47765	-4.29393	-5.81057
 259	1	2	0.017614	-3.34446	-4.64517	-6.06117
 260	1	2	0.005524	-3.95983	-3.28321	-6.94801
 261	1	1	-0.245806	-5.80897	-5.32955	-6.9065
 262	1	1	-0.291525	-6.51915	-3.15152	-5.85801
 263	1	2	-0.003466	-5.57463	-4.80394	-4.84775
 264	1	2	0.0629	-6.42354	-2.47873	-4.99844
 265	1	2	0.058439	-7.53862	-3.55654	-5.83737
 266	1	2	0.076366	-6.40896	-2.55809	-6.77449
 267	1	2	0.061036	-6.82443	-5.72381	-6.77424
 268	1	2	0.060061	-5.11421	-6.17763	-6.86836
 269	1	2	0.042474	-5.74477	-4.8802	-7.90566
 270	1	2	-0.019174	-4.287	-2.09679	-4.67007
 271	1	1	-0.06457	-3.22979	-3.4903	-3.4764
 272	1	1	0.061186	-1.82556	-4.10738	-3.15957
 273	1	2	0.013749	-4.00238	-4.23758	-3.27228
 274	1	2	0.012175	-3.40501	-2.69733	-2.73834
 275	1	1	-0.029522	-1.58666	-5.50768	-3.79807
 276	1	1	0.182537	-2.43831	-6.67883	-3.21113
 277	1	2	0.017614	-0.522444	-5.74399	-3.66566
 278	1	2	0.005524	-1.71155	-5.44776	-4.88377
 279	1	1	-0.245806	-1.53848	-7.79798	-2.64162
 280	1	1	-0.291525	-3.39619	-7.28048	-4.25852
 281	1	2	-0.003466	-3.05914	-6.31164	-2.38542
 282	1	2	0.0629	-2.84403	-7.67558	-5.12047
 283	1	2	0.058439	-4.09957	-6.52526	-4.61657
 284	1	2	0.076366	-3.98297	-8.09914	-3.82314
 285	1	2	0.061036	-2.14521	-8.59775	-2.19874
 286	1	2	0.060061	-0.875568	-7.40933	-1.85877
 287	1	2	0.042474	-0.915253	-8.24019	-3.42959
 288	1	2	-0.019174	-1.04864	-3.45514	-3.56776
 289	1	1	-0.06457	-1.61957	-4.16496	-1.6135
 290	1	1	0.061186	-1.04948	-2.87673	-0.953749
 291	1	2	0.013749	-2.59857	-4.37987	-1.17297
 292	1	2	0.012175	-0.963309	-5.00366	-1.35053
 293	1	1	-0.029522	0.48321	-2.73414	-1.22735
 294	1	1	0.182537	1.17953	-1.46018	-0.667968
 295	1	2	0.017614	0.644783	-2.74432	-2.31099
 296	1	2	0.005524	1.0124	-3.61808	-0.859368
 297	1	1	-0.245806	0.603565	-0.164138	-1.28325
 298	1	1	-0.291525	2.70411	-1.54613	-0.894186
 299	1	2	-0.003466	1.04119	-1.40721	0.417247
 300	1	2	0.0629	3.13451	-2.35741	-0.293789
 301	1	2	0.058439	3.20233	-0.613772	-0.603141
 302	1	2	0.076366	2.94337	-1.74846	-1.94211
 303	1	2	0.061036	1.18759	0.710383	-0.970487
 304	1	2	0.060061	-0.430825	-0.00252331	-0.956515
 305	1	2	0.042474	0.608817	-0.204301	-2.3784
 306	1	2	-0.019174	-1.52676	-2.03363	-1.46823
 307	1	1	-0.06457	-1.48115	-2.72333	0.548139
 308	1	1	0.061186	-1.26592	-3.87998	1.59617
 309	1	2	0.013749	-1.00522	-1.82589	0.956372
 310	1	2	0.012175	-2.5369	-2.44187	0.535116
 311	1	1	-0.029522	0.202529	-4.39795	1.61543
 312	1	1	0.182537	0.641727	-5.24555	2.84478
 313	1	2	0.017614	0.877564	-3.53557	1.55181
 314	1	2	0.005524	0.369371	-5.00337	0.717008
 315	1	1	-0.245806	0.480817	-4.49987	4.18848
 316	1	1	-0.291525	2.11318	-5.68237	2.67802
 317	1	2	-0.003466	0.0409288	-6.16118	2.88774
 318	1	2	0.0629	2.78201	-4.8124	2.65343
 319	1	2	0.058439	2.25084	-6.24595	1.74672
 320	1	2	0.076366	2.4244	-6.32753	3.50919
 321	1	2	0.061036	-0.571973	-4.29759	4.41496
 322	1	2	0.060061	1.02206	-3.54617	4.17114
 323	1	2	0.042474	0.879678	-5.10136	5.01514
 324	1	2	-0.019174	-1.43	-3.38848	2.56075
 325	1	1	-0.06457	-2.30614	-5.05077	1.53129
 326	1	1	0.061186	-3.77661	-4.63929	1.85504
 327	1	2	0.013749	-2.2461	-5.55221	0.563341
 328	1	2	0.012175	-2.02747	-5.83522	2.24336
 329	1	1	-0.029522	-3.97751	-4.54005	3.40323
 330	1	1	0.182537	-4.75411	-3.29699	3.92137
 331	1	2	0.017614	-3.00234	-4.543	3.90579
 332	1	2	0.005524	-4.47858	-5.45121	3.75543
 333	1	1	-0.245806	-4.02515	-1.96626	3.62081
 334	1	1	-0.291525	-4.98941	-3.41727	5.44146
 335	1	2	-0.003466	-5.7407	-3.26262	3.44963
 336	1	2	0.0629	-5.54265	-4.3347	5.67855
 337	1	2	0.058439	-5.57564	-2.56747	5.813
 338	1	2	0.076366	-4.03705	-3.43999	5.9865
 339	1	2	0.061036	-3.01211	-1.96889	4.04239
 340	1	2	0.060061	-4.57104	-1.12127	4.05863
 341	1	2	0.042474	-3.94845	-1.77698	2.54449
 342	1	2	-0.019174	-3.95915	-3.66349	1.41197
 343	1	1	-0.06457	-4.78607	-5.61429	1.17256
 344	1	1	0.061186	-6.28081	-5.17209	1.22561
 345	1	2	0.013749	-4.50252	-5.75499	0.121652
 346	1	2	0.012175	-4.68797	-6.60284	1.64059
 347	1	1	-0.029522	-6.56059	-3.76428	0.599265
 348	1	1	0.182537	-5.96567	-3.45495	-0.808076
 349	1	2	0.017614	-6.17478	-3.00467	1.28692
 350	1	2	0.005524	-7.64444	-3.59256	0.573683
 351	1	1	-0.245806	-6.147	-1.95889	-1.14369
 352	1	1	-0.291525	-6.58212	-4.30259	-1.93983
 353	1	2	-0.003466	-4.88658	-3.64282	-0.792793
 354	1	2	0.0629	-7.67818	-4.26881	-1.90879
 355	1	2	0.058439	-6.25458	-5.34741	-1.87818
 356	1	2	0.076366	-6.27391	-3.9164	-2.91498
 357	1	2	0.061036	-7.21059	-1.69342	-1.19216
 358	1	2	0.060061	-5.69087	-1.71644	-2.11196
 359	1	2	0.042474	-5.66905	-1.32738	-0.384297
 360	1	2	-0.019174	-6.5152	-5.08537	2.29151
 361	1	1	-0.06457	-7.23188	-6.27057	0.652251
 362	1	1	0.061186	-8.29663	-6.81419	1.64783
 363	1	2	0.013749	-7.77244	-5.87661	-0.210985
 364	1	2	0.012175	-6.63261	-7.1109	0.277588
 365	1	1	-0.029522	-9.29476	-5.68605	2.08203
 366	1	1	0.182537	-10.3677	-6.00739	3.16599
 367	1	2	0.017614	-9.78981	-5.26172	1.20028
 368	1	2	0.005524	-8.70631	-4.85757	2.49208
 369	1	1	-0.245806	-9.82338	-6.82686	4.35666
 370	1	1	-0.291525	-11.6671	-6.62571	2.60155
 371	1	2	-0.003466	-10.668	-5.03457	3.57736
 372	1	2	0.0629	-12.0564	-6.02283	1.77172
 373	1	2	0.058439	-12.4406	-6.65615	3.37925
 374	1	2	0.076366	-11.5254	-7.64927	2.24425
 375	1	2	0.061036	-9.58103	-7.85525	4.06532
 376	1	2	0.060061	-10.5679	-6.87456	5.1611
 377	1	2	0.042474	-8.91743	-6.36224	4.76579
 378	1	2	-0.019174	-7.74666	-7.13144	2.54298
 379	1	1	-0.06457	-8.96814	-8.10077	1.07481
 380	1	1	0.061186	-9.83785	-7.92548	-0.20611
 381	1	2	0.013749	-8.19098	-8.85223	0.899965
 382	1	2	0.012175	-9.58979	-8.54785	1.85572
 383	1	1	-0.029522	-9.11731	-8.17925	-1.56017
 384	1	1	0.182537	-8.59948	-9.62613	-1.79721
 385	1	2	0.017614	-8.27903	-7.483	-1.66703
 386	1	2	0.005524	-9.81695	-7.92492	-2.36722
 387	1	1	-0.245806	-7.85331	-9.71125	-3.1456
 388	1	1	-0.291525	-9.73056	-10.6784	-1.76113
 389	1	2	-0.003466	-7.87435	-9.88148	-1.01608
 390	1	2	0.0629	-9.33712	-11.6765	-1.99139
 391	1	2	0.058439	-10.5106	-10.4433	-2.49644
 392	1	2	0.076366	-10.1949	-10.7327	-0.769543
 393	1	2	0.061036	-7.02116	-8.99667	-3.17677
 394	1	2	0.060061	-8.527	-9.48979	-3.9831
 395	1	2	0.042474	-7.43817	-10.7156	-3.29759
 396	1	2	-0.019174	-10.2728	-6.9204	-0.229046
 397	1	2	0	4.16978	5.36832	10.7515
 398	1	2	0	-10.699	-8.60029	-0.136143

Velocities

   1	-0.000348757	-0.000365946	-4.8327e-05
   2	-3.08186e-05	-0.000116485	-0.000212719
   3	-0.000769284	-0.000305114	-0.000234064
   4	-0.000396626	-0.00079784	0.000266385
   5	0.000222061	2.4262e-05	4.16824e-06
   6	0.000377347	5.17609e-05	0.000215531
   7	0.000319216	0.000179338	-6.0608e-05
   8	0.000206839	-0.000172139	0.000146125
   9	0.00041705	0.00032812	0.000516461
  10	0.000251774	0.000176021	0.00023878
  11	0.000613223	-0.000115918	0.000219587
  12	0.000236731	0.000114472	0.000250714
  13	0.000286795	0.000309569	0.000177473
  14	0.000102493	0.000147587	0.000204417
  15	0.000432057	-8.42752e-05	0.000306842
  16	0.000298805	0.000996423	0.000269635
  17	0.000659487	0.000422991	0.00120499
  18	2.7673e-06	-7.62412e-05	-0.000442084
  19	-0.000103619	-8.3803e-05	-0.000185783
  20	-0.000179244	-5.67645e-05	-0.000220211
  21	2.99348e-05	-0.000163931	-0.000199305
  22	-0.000118845	-0.000156919	-9.50824e-05
  23	-0.000302412	-8.90676e-05	-0.000192091
  24	-0.000244564	2.4498e-05	-0.000249149
  25	-0.000359226	-0.000119423	-0.000195925
  26	-0.000330035	-4.08791e-05	-9.29432e-05
  27	-0.000120914	7.20627e-05	-0.00029078
  28	-0.000169631	0.000177551	-0.000270853
  29	-0.000388152	8.27095e-05	-0.000329104
  30	-0.000574422	0.000179568	-0.000351947
  31	3.10134e-05	0.000595646	-0.000396316
  32	7.28816e-05	-0.000109366	-9.78924e-05
  33	5.97042e-05	-2.57137e-05	-0.000142544
  34	-2.3051e-05	0.000248423	-0.00048147
  35	-0.000307991	0.000110583	-0.000285212
  36	-0.000203032	-3.291e-05	-0.000239026
  37	-0.000210612	9.9504e-05	-0.000167604
  38	-0.00023178	-2.01865e-05	-0.000111222
  39	-0.000297325	0.000215074	-8.77388e-05
  40	-8.60577e-05	0.000183218	-0.000258678
  41	-0.000294715	-3.60841e-05	5.40848e-05
  42	-4.99266e-05	-4.1808e-05	8.50491e-05
  43	-0.000422428	-6.35698e-05	8.76849e-05
  44	-0.000235268	-8.47824e-05	0.000154624
  45	0.000190434	0.000136443	0.000200976
  46	0.000122185	-0.000478326	4.41583e-05
  47	-0.000116325	6.85472e-05	0.000131921
  48	0.000491073	-0.000478323	-3.02693e-05
  49	9.45306e-05	-0.000584185	5.16161e-05
  50	-4.87133e-05	-0.000777689	7.06125e-05
  51	0.000235092	9.23609e-05	6.06857e-05
  52	0.000156599	0.000151559	0.000516788
  53	0.000455873	0.000240624	0.000163431
  54	-0.000314776	-0.000117628	-5.39833e-05
  55	9.54315e-05	-8.24851e-05	-0.000254638
  56	-0.000116315	-0.000149016	-0.000191567
  57	0.000386056	-0.000467032	-0.000567697
  58	0.000465461	0.000355715	-0.000174671
  59	-0.000212624	-0.000215793	-0.000156463
  60	-0.000139555	-0.000178822	-0.000137505
  61	-0.000176977	-0.000293573	-0.000113659
  62	-0.000294573	-0.000223807	-0.000180498
  63	-0.00013139	-0.000198167	-0.000198698
  64	-9.16356e-05	-0.000163741	-7.79244e-05
  65	-0.000118983	-0.000167857	-0.000158951
  66	-0.000122726	-0.00018781	8.47065e-05
  67	3.96537e-05	-7.04021e-05	-9.46652e-05
  68	-0.00015207	-0.000190691	-0.000146385
  69	-3.12932e-05	-0.000307237	-0.000381021
  70	-0.000171908	2.44136e-05	-0.000197542
  71	-0.000161776	-0.000345004	-1.35809e-05
  72	-0.00014627	-0.000105673	-0.000140468
  73	-2.6914e-05	-0.000142509	-0.000163029
  74	-3.36435e-05	-0.000122898	-9.11299e-05
  75	0.000113461	-8.19698e-05	-0.000136196
  76	-1.90643e-05	-0.000214492	-0.000199559
  77	-7.86135e-05	-0.000328167	-0.000304212
  78	6.54414e-06	-0.000126636	-0.000273309
  79	-0.000217973	-0.000666377	-0.000128768
  80	-2.71862e-05	-0.000438677	-0.000681543
  81	6.63904e-06	-9.74077e-06	-0.000336357
  82	-2.52238e-05	-1.4987e-05	-0.000373332
  83	0.000127992	-0.000107446	-0.000148505
  84	3.94414e-05	-0.000238421	-0.000243086
  85	-0.000208803	-3.19344e-05	-0.000649074
  86	5.37601e-05	0.000291152	-0.000298341
  87	0.000253661	-0.000454242	-6.11912e-05
  88	0.000343228	0.00051371	-0.000490847
  89	-0.000594257	-7.13627e-06	-0.000540067
  90	6.42163e-05	-2.94546e-05	-0.000167524
  91	-0.000110582	-4.93973e-05	2.15484e-05
  92	-0.000120572	-2.83011e-05	4.55448e-05
  93	-0.000123122	-0.000158619	9.65176e-05
  94	-9.20293e-05	2.68346e-05	3.73621e-05
  95	-8.26944e-05	-2.72764e-05	0.000191807
  96	0.000159418	4.55208e-05	0.000198204
  97	-0.000114023	-7.73253e-05	0.000374816
  98	-0.000201837	-6.38818e-05	0.000130133
  99	0.000182322	0.000241513	7.51209e-05
 100	0.000374876	-1.26613e-05	0.000234018
 101	0.000170297	-2.65984e-05	0.000232803
 102	0.000615074	-8.27495e-06	0.0002093
 103	0.000353123	-0.000169283	0.000414549
 104	0.000327875	0.000104592	0.000131046
 105	7.70333e-05	0.000254212	9.48001e-05
 106	0.0003563	0.000246213	6.45465e-05
 107	0.000180356	0.000346759	2.91509e-05
 108	-0.000138548	-0.000120008	2.26275e-05
 109	-0.000157158	4.09139e-05	-9.47471e-06
 110	-0.000173515	3.21071e-05	-1.69298e-05
 111	-0.000170906	0.000114266	-1.10136e-05
 112	-0.000156125	3.34859e-05	-0.000111321
 113	-0.00019594	5.64786e-05	2.53243e-06
 114	-0.000214016	8.60221e-05	3.23437e-05
 115	-0.000181761	6.33331e-05	-1.46316e-05
 116	-0.000213836	3.16098e-05	-8.55153e-07
 117	-0.000295423	7.10928e-05	0.000151864
 118	-0.000206755	4.70808e-05	-3.94676e-05
 119	-0.000192018	0.000184811	3.46242e-05
 120	-0.000316506	6.33422e-05	-4.42851e-05
 121	-0.000108898	5.47734e-05	4.63885e-06
 122	-0.000190527	-3.73846e-05	-0.000146871
 123	-0.000266317	0.000105251	0.000182923
 124	-0.000301593	9.2182e-05	0.000242579
 125	-0.000370728	-1.49284e-05	0.000127085
 126	-0.000169801	4.88491e-05	-3.87217e-05
 127	-0.000182713	-3.38367e-05	1.16391e-05
 128	-0.000140736	-0.000115355	-1.88136e-05
 129	-0.000187076	-8.81795e-05	3.51149e-05
 130	-0.000219528	-3.08068e-05	4.80549e-05
 131	-0.000145189	-5.92369e-05	-3.37645e-05
 132	-0.000188029	-5.36457e-05	6.66734e-05
 133	-0.000199273	-6.52758e-05	-7.40522e-05
 134	-0.000119279	-0.000106551	-5.98968e-05
 135	-6.90336e-05	-2.34293e-05	0.000130411
 136	-0.00020817	-3.35845e-05	0.000113628
 137	-0.000229826	-4.60799e-05	8.5595e-05
 138	-0.00012458	-5.97117e-05	9.32426e-05
 139	-0.000254214	-1.71723e-05	0.000224591
 140	-0.000312321	-1.60473e-05	4.83035e-05
 141	-0.000233354	1.94762e-05	-8.63284e-05
 142	-0.000125742	-0.000213729	0.000374234
 143	0.00019952	0.000157786	0.000157299
 144	-0.000144421	-9.53005e-05	-5.66889e-05
 145	-0.00010727	-0.000106468	2.94091e-06
 146	-5.32171e-05	-0.000214683	2.42186e-05
 147	-8.94719e-05	-2.61484e-05	-6.78593e-05
 148	-0.000223421	-0.000156473	-1.76193e-05
 149	-4.78371e-05	-0.000207415	-7.46338e-05
 150	5.83879e-05	-0.000179849	-6.83459e-05
 151	-0.000121525	-0.00026838	-7.11569e-05
 152	-5.71728e-05	-0.000200009	-0.000154663
 153	0.00010089	-0.000153408	-6.96603e-05
 154	9.903e-05	2.57338e-06	-6.08625e-05
 155	0.000155949	-0.000215687	-7.72885e-05
 156	0.000117327	-1.08338e-05	-5.88129e-05
 157	-9.47032e-06	7.39948e-05	-5.3464e-05
 158	0.000218834	5.348e-05	-4.16822e-05
 159	0.000126634	-0.000456365	-7.22782e-05
 160	0.000375802	3.0359e-06	-8.39962e-05
 161	-0.000158639	-2.02716e-05	-7.74781e-05
 162	2.09333e-05	-0.000259225	2.38105e-05
 163	-3.83514e-05	-0.000160993	8.70827e-05
 164	-6.91136e-05	-0.000201026	0.000117322
 165	-3.4422e-05	-0.00014802	7.75363e-05
 166	-3.60099e-05	-0.000152362	0.000114148
 167	-6.52164e-05	-0.000222816	8.59643e-05
 168	-9.69664e-05	-0.000119295	0.000102779
 169	-0.00011499	-0.000299646	5.55456e-06
 170	7.1879e-06	-0.000295716	0.000184701
 171	-3.69249e-05	-0.000116856	5.30317e-05
 172	-0.00013492	-2.80079e-05	9.5828e-05
 173	-0.000165104	-0.000129089	0.000117262
 174	-0.000251198	-9.17964e-05	6.73538e-05
 175	-2.6496e-05	-3.85412e-05	0.000130248
 176	-0.000178108	0.000113237	0.000108264
 177	0.000200422	-4.60549e-05	-6.25342e-05
 178	-0.000153309	-0.00032661	-6.94223e-05
 179	-0.000125736	9.4778e-06	0.000231088
 180	-7.59082e-05	-0.000174299	0.000141736
 181	-2.76662e-05	-0.000210607	6.07774e-05
 182	0.000154779	-4.25784e-05	-0.000144795
 183	-2.57952e-06	-0.000465864	3.05111e-05
 184	-0.000171972	-0.000175911	0.000225109
 185	0.000512761	-5.26182e-05	-0.000299291
 186	0.00051496	1.76312e-06	-0.000328761
 187	0.00068138	-0.000189902	-0.000148409
 188	0.000623282	5.41565e-05	-0.000512736
 189	0.000785423	2.27462e-05	-0.000261578
 190	0.000371299	0.000143503	-0.000511912
 191	0.000418868	-0.00010927	-0.000196359
 192	0.00048544	0.000484451	-0.000665554
 193	5.19752e-05	4.05419e-05	-0.000662209
 194	0.000523077	2.51114e-05	-0.000362006
 195	0.000545424	-8.73141e-06	-0.000229555
 196	0.000991938	7.51778e-05	6.16751e-05
 197	0.00101474	7.52126e-05	-0.000541148
 198	8.43962e-05	0.000201187	-0.000175725
 199	0.000120107	-0.000182558	-5.55209e-05
 200	2.09287e-05	-5.11874e-05	-8.6349e-05
 201	0.000255469	-0.000338699	-7.29074e-05
 202	-1.48672e-05	-0.000288837	4.64154e-05
 203	-4.29171e-05	-7.72367e-06	-9.1758e-05
 204	-2.58046e-05	-4.1897e-05	-9.97558e-05
 205	-7.37526e-05	7.61134e-05	-7.96118e-05
 206	-0.000112452	-7.25985e-05	-0.000109494
 207	0.000174523	9.69948e-05	-8.08969e-06
 208	-0.000228174	2.16161e-05	-0.000159659
 209	6.30527e-06	-0.000226936	-7.51979e-05
 210	-0.000286677	0.000208327	-0.000161283
 211	-0.000367405	-7.61964e-05	-0.000249282
 212	-0.000198498	-3.95455e-05	-0.000153132
 213	0.000272311	0.000445633	-0.000201119
 214	-4.36782e-05	-5.15661e-05	-7.92895e-05
 215	0.000448092	1.01349e-05	0.000266609
 216	2.38021e-05	-4.53078e-05	-0.000157542
 217	1.93661e-05	-1.83071e-05	-6.81307e-05
 218	-2.85302e-05	-4.65437e-06	-0.000112177
 219	3.67278e-05	-1.77805e-05	1.27363e-06
 220	-2.41679e-05	2.98442e-05	-4.29442e-05
 221	-4.76964e-06	-1.62094e-05	-8.8426e-05
 222	6.20628e-05	-8.14449e-06	8.70051e-05
 223	-3.57786e-05	2.58845e-05	-0.000189459
 224	-0.000100562	-0.000126047	-9.46526e-05
 225	0.000196384	0.000167998	7.87081e-05
 226	7.50576e-06	-0.000128531	0.000143493
 227	9.52293e-05	9.20814e-07	0.000197944
 228	0.000200889	-0.000135895	0.000338879
 229	-5.61942e-05	4.75033e-06	-3.16167e-05
 230	-0.000173124	-0.000354104	0.000187263
 231	0.000196125	0.000180425	0.000242396
 232	0.000291227	0.000284293	3.91422e-05
 233	0.000169992	0.000129173	-6.30808e-05
 234	-2.25435e-05	-8.48666e-06	-0.000108956
 235	1.15757e-05	6.84022e-05	-0.000146598
 236	4.99227e-06	3.20297e-05	-0.000150898
 237	4.03993e-05	0.000141907	-0.000112609
 238	-3.09641e-05	0.000104829	-0.000225193
 239	1.42641e-05	1.38448e-06	-0.000105435
 240	9.21261e-05	-0.000149409	-9.48585e-06
 241	-9.23452e-05	3.89917e-05	-3.02499e-05
 242	1.77423e-05	1.96931e-05	-0.000167328
 243	7.3187e-05	-7.84976e-05	6.83898e-05
 244	0.000189099	-0.000241586	0.000111229
 245	9.91774e-05	-0.000219077	-8.93511e-05
 246	0.000200125	-0.000272097	0.000136817
 247	0.000264247	-0.000176983	0.00018005
 248	0.000180245	-0.000377172	0.000106803
 249	0.000124343	7.8552e-05	6.93154e-05
 250	-5.94729e-06	-0.000114621	0.000211899
 251	8.39658e-05	-0.000172138	-3.51682e-05
 252	1.66931e-05	3.9646e-05	-0.000130729
 253	6.34466e-05	7.02161e-05	-0.000170035
 254	3.07423e-05	0.000218326	4.68739e-06
 255	-7.13792e-05	-2.57939e-05	-0.000238274
 256	0.000243867	4.52556e-05	-0.000265068
 257	3.81426e-05	0.000176962	1.75261e-05
 258	0.000144907	-6.42368e-05	6.90762e-05
 259	0.000161558	0.000292781	-0.000102301
 260	-0.000111223	0.000230716	5.09617e-05
 261	0.000382554	4.31634e-05	-0.000128043
 262	-5.19047e-05	-0.000254177	0.000168826
 263	0.000264094	-0.000158601	4.50122e-05
 264	-4.60615e-06	-0.00017038	8.8185e-05
 265	3.31898e-05	-0.000462596	0.000383383
 266	-0.000332336	-0.000324926	0.000102509
 267	0.000544864	-0.00037994	-8.30098e-05
 268	0.00072302	0.000310181	-0.000456583
 269	6.21207e-05	0.000322276	-1.9001e-05
 270	4.84751e-05	0.000254488	-6.64535e-05
 271	7.24178e-05	0.000382781	3.45918e-05
 272	2.76151e-05	0.000153517	-7.50091e-05
 273	-7.78188e-05	0.000566434	0.000269771
 274	0.000334211	0.000508044	-4.67602e-05
 275	-0.000164281	0.000211787	-0.000243512
 276	-0.000244906	0.00023426	-0.000273767
 277	-0.000183738	8.28435e-05	-0.000396831
 278	-0.000260035	0.000351408	-0.00020865
 279	-0.000299542	0.000482738	0.00028697
 280	0.000277082	-0.000100888	-0.000559787
 281	-0.000619794	0.000348799	-0.000620937