pySIMM System Object

362 atoms
361 bonds
720 angles
1071 dihedrals
0 impropers

2 atom types
2 bond types
3 angle types
3 dihedral types

-87.242359 87.242359 xlo xhi
-87.242359 87.242359 ylo yhi
-87.242359 87.242359 zlo zhi

Masses

   1	12.01	# c3
   2	1.008	# hc

Pair Coeffs

   1	0.1094	3.3996695084235347	# c3
   2	0.0157	2.649532787749369	# hc

Bond Coeffs

   1	330.6	1.0969	# c3,hc
   2	300.9	1.5375	# c3,c3

Angle Coeffs

   1	46.34	109.8	# c3,c3,hc
   2	39.4	107.58	# hc,c3,hc
   3	62.86	111.51	# c3,c3,c3

Dihedral Coeffs

   1	1	0.16	3	0	# hc,c3,c3,c3
   2	1	0.15	3	0	# hc,c3,c3,hc
   3	3	0.18	3	0	0.25	2	180	0.2	1	180	# c3,c3,c3,c3

Atoms

   1	1	1	-0.06457	-4.56938	4.16312	9.79696
   2	1	1	0.061186	-3.7348	3.95132	8.50782
   3	1	2	0.013749	-5.4628	3.52887	9.80596
   4	1	2	0.012175	-3.97776	3.93139	10.6917
   5	1	1	-0.029522	-2.46759	4.85566	8.48546
   6	1	1	0.182537	-2.71375	6.39011	8.49883
   7	1	2	0.017614	-1.87938	4.6171	7.59034
   8	1	2	0.005524	-1.83464	4.59122	9.343
   9	1	1	-0.245806	-3.54459	6.86908	7.28691
  10	1	1	-0.291525	-1.36612	7.14221	8.53238
  11	1	2	-0.003466	-3.25419	6.65961	9.41415
  12	1	2	0.0629	-0.771294	6.92724	7.63552
  13	1	2	0.058439	-0.778631	6.8492	9.41164
  14	1	2	0.076366	-1.5273	8.22626	8.58408
  15	1	2	0.061036	-4.5636	6.46592	7.31866
  16	1	2	0.060061	-3.07866	6.55847	6.34309
  17	1	2	0.042474	-3.62746	7.96315	7.28209
  18	1	2	-0.019174	-4.36823	4.22982	7.66201
  19	1	1	-0.06457	-3.30255	2.46405	8.33828
  20	1	1	0.061186	-4.44285	1.44622	8.02664
  21	1	2	0.013749	-2.5462	2.38601	7.54914
  22	1	2	0.012175	-2.79068	2.17603	9.26284
  23	1	1	-0.029522	-3.96165	-0.0353019	8.1401
  24	1	1	0.182537	-3.42004	-0.492775	9.52551
  25	1	2	0.017614	-3.17466	-0.222522	7.40083
  26	1	2	0.005524	-4.7982	-0.692215	7.86816
  27	1	1	-0.245806	-3.03633	-1.98701	9.47645
  28	1	1	-0.291525	-4.41828	-0.249357	10.6794
  29	1	2	-0.003466	-2.50003	0.0595408	9.75009
  30	1	2	0.0629	-4.59009	0.821925	10.8384
  31	1	2	0.058439	-4.02952	-0.658722	11.6203
  32	1	2	0.076366	-5.38318	-0.728741	10.4721
  33	1	2	0.061036	-3.91484	-2.61313	9.27559
  34	1	2	0.060061	-2.59906	-2.30769	10.4304
  35	1	2	0.042474	-2.29526	-2.17355	8.68893
  36	1	2	-0.019174	-5.22223	1.57494	8.78415
  37	1	1	-0.06457	-5.15871	1.69256	6.65894
  38	1	1	0.061186	-4.28264	1.56302	5.36676
  39	1	2	0.013749	-5.9941	0.984256	6.60782
  40	1	2	0.012175	-5.65159	2.67235	6.66899
  41	1	1	-0.029522	-5.06083	0.824737	4.23614
  42	1	1	0.182537	-5.23456	-0.704976	4.44657
  43	1	2	0.017614	-4.56688	0.978022	3.26916
  44	1	2	0.005524	-6.04904	1.29388	4.13901
  45	1	1	-0.245806	-3.91365	-1.479	4.23594
  46	1	1	-0.291525	-6.31006	-1.25529	3.48939
  47	1	2	-0.003466	-5.58195	-0.897184	5.46815
  48	1	2	0.0629	-6.48723	-2.31839	3.68603
  49	1	2	0.058439	-6.00291	-1.14196	2.44184
  50	1	2	0.076366	-7.26313	-0.729613	3.6269
  51	1	2	0.061036	-4.07322	-2.55734	4.36074
  52	1	2	0.060061	-3.14721	-1.1741	4.95745
  53	1	2	0.042474	-3.52034	-1.31022	3.22574
  54	1	2	-0.019174	-3.39691	0.971826	5.59965
  55	1	1	-0.06457	-3.81616	2.96008	4.85708
  56	1	1	0.061186	-2.55123	2.95087	3.94333
  57	1	2	0.013749	-3.60784	3.6255	5.69857
  58	1	2	0.012175	-4.66456	3.41561	4.33004
  59	1	1	-0.029522	-1.27891	2.71491	4.82553
  60	1	1	0.182537	0.0794815	2.5173	4.10258
  61	1	2	0.017614	-1.17828	3.56174	5.51618
  62	1	2	0.005524	-1.43105	1.83462	5.45898
  63	1	1	-0.245806	0.084012	1.28593	3.16748
  64	1	1	-0.291525	1.21819	2.37929	5.13513
  65	1	2	-0.003466	0.301386	3.41499	3.52059
  66	1	2	0.0629	1.26384	3.26165	5.78596
  67	1	2	0.058439	2.18892	2.28267	4.63274
  68	1	2	0.076366	1.07142	1.49448	5.76749
  69	1	2	0.061036	-0.113723	0.365677	3.73151
  70	1	2	0.060061	1.05768	1.17922	2.67307
  71	1	2	0.042474	-0.675238	1.36894	2.38319
  72	1	2	-0.019174	-2.6519	2.11794	3.24268
  73	1	1	-0.06457	-2.49076	4.29216	3.14054
  74	1	1	0.061186	-1.84337	4.22226	1.71967
  75	1	2	0.013749	-3.50332	4.69128	3.00034
  76	1	2	0.012175	-1.99453	5.03383	3.77358
  77	1	1	-0.029522	-2.81128	3.5182	0.716439
  78	1	1	0.182537	-2.21933	3.13438	-0.672946
  79	1	2	0.017614	-3.68319	4.16706	0.560814
  80	1	2	0.005524	-3.20265	2.60058	1.17064
  81	1	1	-0.245806	-0.994536	2.19646	-0.572991
  82	1	1	-0.291525	-3.30477	2.46508	-1.5432
  83	1	2	-0.003466	-1.90765	4.04342	-1.1998
  84	1	2	0.0629	-4.17102	3.12752	-1.6642
  85	1	2	0.058439	-3.65093	1.52754	-1.08955
  86	1	2	0.076366	-2.91579	2.23651	-2.54353
  87	1	2	0.061036	-0.143428	2.69607	-0.0959141
  88	1	2	0.060061	-0.667436	1.88014	-1.57102
  89	1	2	0.042474	-1.23754	1.29501	0.00263405
  90	1	2	-0.019174	-0.945683	3.61195	1.78078
  91	1	1	-0.06457	-1.43332	5.64436	1.21839
  92	1	1	0.061186	-0.204124	6.27548	1.94233
  93	1	2	0.013749	-2.3016	6.30939	1.31364
  94	1	2	0.012175	-1.20132	5.59398	0.152373
  95	1	1	-0.029522	-0.168473	7.83346	1.85621
  96	1	1	0.182537	0.259272	8.49083	0.508627
  97	1	2	0.017614	0.524772	8.17835	2.63383
  98	1	2	0.005524	-1.14517	8.23357	2.15825
  99	1	1	-0.245806	-0.845336	8.45762	-0.57116
 100	1	1	-0.291525	0.677089	9.95723	0.753598
 101	1	2	-0.003466	1.1403	7.97641	0.109647
 102	1	2	0.0629	1.01462	10.4287	-0.177893
 103	1	2	0.058439	1.50421	10.0138	1.47268
 104	1	2	0.076366	-0.162037	10.5436	1.14927
 105	1	2	0.061036	-1.02084	7.44377	-0.940314
 106	1	2	0.060061	-0.554953	9.06348	-1.43863
 107	1	2	0.042474	-1.79067	8.85662	-0.182275
 108	1	2	-0.019174	-0.332949	6.06262	3.00414
 109	1	1	-0.06457	1.12401	5.59473	1.49325
 110	1	1	0.061186	2.44576	6.09874	2.15874
 111	1	2	0.013749	1.19398	5.7033	0.406448
 112	1	2	0.012175	1.05268	4.51641	1.66728
 113	1	1	-0.029522	2.4149	5.95084	3.7134
 114	1	1	0.182537	3.50795	6.73845	4.49071
 115	1	2	0.017614	2.4927	4.88429	3.95986
 116	1	2	0.005524	1.45229	6.27991	4.11502
 117	1	1	-0.245806	3.30743	8.26926	4.39777
 118	1	1	-0.291525	3.51154	6.31401	5.97456
 119	1	2	-0.003466	4.49723	6.49839	4.08598
 120	1	2	0.0629	3.69887	5.23727	6.07204
 121	1	2	0.058439	2.54869	6.53873	6.45109
 122	1	2	0.076366	4.29795	6.84218	6.52817
 123	1	2	0.061036	3.38791	8.6296	3.3665
 124	1	2	0.060061	4.07006	8.79412	4.98656
 125	1	2	0.042474	2.32239	8.56035	4.78412
 126	1	2	-0.019174	2.56599	7.15743	1.9144
 127	1	1	-0.06457	3.6507	5.30553	1.56661
 128	1	1	0.061186	4.03315	5.65143	0.0947374
 129	1	2	0.013749	4.54085	5.41615	2.19265
 130	1	2	0.012175	3.38345	4.24959	1.63956
 131	1	1	-0.029522	4.50704	7.12848	-0.0929178
 132	1	1	0.182537	5.5086	7.72904	0.939351
 133	1	2	0.017614	3.61089	7.76153	-0.0832084
 134	1	2	0.005524	4.92113	7.24701	-1.10266
 135	1	1	-0.245806	6.86879	7.0006	0.999372
 136	1	1	-0.291525	5.74083	9.2235	0.63083
 137	1	2	-0.003466	5.06132	7.68186	1.93766
 138	1	2	0.0629	6.2082	9.35376	-0.353525
 139	1	2	0.058439	6.39583	9.68045	1.38331
 140	1	2	0.076366	4.79237	9.77532	0.636029
 141	1	2	0.061036	6.77061	6.01476	1.46618
 142	1	2	0.060061	7.58502	7.56755	1.6072
 143	1	2	0.042474	7.29739	6.87798	-0.00329477
 144	1	2	-0.019174	3.12426	5.59043	-0.507549
 145	1	1	-0.06457	5.023	4.62976	-0.555447
 146	1	1	0.061186	4.53879	3.15521	-0.751883
 147	1	2	0.013749	5.96642	4.61136	-0.00442936
 148	1	2	0.012175	5.2877	5.01134	-1.54983
 149	1	1	-0.029522	3.10759	3.03297	-1.36459
 150	1	1	0.182537	2.91249	3.6909	-2.75942
 151	1	2	0.017614	2.37984	3.45457	-0.660297
 152	1	2	0.005524	2.8361	1.97567	-1.45506
 153	1	1	-0.245806	3.76233	3.01002	-3.85651
 154	1	1	-0.291525	1.42295	3.65421	-3.16142
 155	1	2	-0.003466	3.207	4.74577	-2.70771
 156	1	2	0.0629	0.803647	4.16471	-2.41307
 157	1	2	0.058439	1.06697	2.62062	-3.25583
 158	1	2	0.076366	1.26755	4.15696	-4.12413
 159	1	2	0.061036	4.83489	3.1337	-3.66691
 160	1	2	0.060061	3.55182	3.4526	-4.83811
 161	1	2	0.042474	3.54355	1.93605	-3.91438
 162	1	2	-0.019174	5.23419	2.73624	-1.48484
 163	1	1	-0.06457	4.68216	2.28433	0.540399
 164	1	1	0.061186	5.40465	0.912292	0.365513
 165	1	2	0.013749	5.19976	2.85159	1.32168
 166	1	2	0.012175	3.68483	2.09	0.956562
 167	1	1	-0.029522	6.91656	1.05435	-0.00510559
 168	1	1	0.182537	7.78079	1.93977	0.9362
 169	1	2	0.017614	7.00462	1.44517	-1.02594
 170	1	2	0.005524	7.3769	0.0604052	-0.0258276
 171	1	1	-0.245806	7.76591	1.44404	2.39957
 172	1	1	-0.291525	9.23442	2.00081	0.422048
 173	1	2	-0.003466	7.39764	2.966	0.918896
 174	1	2	0.0629	9.26915	2.39293	-0.602185
 175	1	2	0.058439	9.69558	1.00499	0.423775
 176	1	2	0.076366	9.84246	2.66007	1.05416
 177	1	2	0.061036	8.10725	0.403113	2.46428
 178	1	2	0.060061	6.76016	1.50389	2.83175
 179	1	2	0.042474	8.42704	2.05859	3.02334
 180	1	2	-0.019174	5.35344	0.416896	1.34104
 181	1	1	-0.06457	4.63333	0.0168507	-0.650256
 182	1	1	0.061186	5.03727	-1.488	-0.70968
 183	1	2	0.013749	3.56101	0.0612595	-0.419143
 184	1	2	0.012175	4.73553	0.463838	-1.64349
 185	1	1	-0.029522	4.42981	-2.24928	0.507943
 186	1	1	0.182537	4.99498	-3.67481	0.767159
 187	1	2	0.017614	3.34468	-2.31671	0.361515
 188	1	2	0.005524	4.57043	-1.6631	1.42366
 189	1	1	-0.245806	4.13911	-4.39925	1.82788
 190	1	1	-0.291525	6.47265	-3.65051	1.21745
 191	1	2	-0.003466	4.93682	-4.26742	-0.151787
 192	1	2	0.0629	6.6007	-3.02942	2.11298
 193	1	2	0.058439	7.12582	-3.25825	0.429527
 194	1	2	0.076366	6.81993	-4.66389	1.45436
 195	1	2	0.061036	4.50857	-5.41839	1.99687
 196	1	2	0.060061	3.09401	-4.47228	1.50105
 197	1	2	0.042474	4.16167	-3.86329	2.78533
 198	1	2	-0.019174	6.12436	-1.57913	-0.656225
 199	1	1	-0.06457	4.56965	-2.10879	-2.06396
 200	1	1	0.061186	5.63588	-2.16804	-3.20755
 201	1	2	0.013749	4.23706	-3.13103	-1.86772
 202	1	2	0.012175	3.67642	-1.57884	-2.42135
 203	1	1	-0.029522	6.33678	-0.792591	-3.44303
 204	1	1	0.182537	7.44051	-0.742716	-4.5357
 205	1	2	0.017614	6.79843	-0.457816	-2.50912
 206	1	2	0.005524	5.57033	-0.0495638	-3.69908
 207	1	1	-0.245806	8.58322	-1.74851	-4.27291
 208	1	1	-0.291525	8.01716	0.685825	-4.63568
 209	1	2	-0.003466	6.99419	-0.974557	-5.51031
 210	1	2	0.0629	8.49555	0.985169	-3.69433
 211	1	2	0.058439	7.22482	1.41052	-4.86226
 212	1	2	0.076366	8.76656	0.747829	-5.43464
 213	1	2	0.061036	9.0307	-1.58411	-3.2845
 214	1	2	0.060061	9.37344	-1.64149	-5.02643
 215	1	2	0.042474	8.22317	-2.78305	-4.32072
 216	1	2	-0.019174	6.40419	-2.8771	-2.87829
 217	1	1	-0.06457	5.02123	-2.69137	-4.54624
 218	1	1	0.061186	4.13105	-3.97204	-4.48103
 219	1	2	0.013749	4.44371	-1.86881	-4.97696
 220	1	2	0.012175	5.82843	-2.88922	-5.26184
 221	1	1	-0.029522	4.99662	-5.22202	-4.13556
 222	1	1	0.182537	4.20876	-6.49159	-3.69971
 223	1	2	0.017614	5.69805	-4.97734	-3.32936
 224	1	2	0.005524	5.61667	-5.46199	-5.00951
 225	1	1	-0.245806	3.52427	-6.32297	-2.32325
 226	1	1	-0.291525	5.15144	-7.71241	-3.65053
 227	1	2	-0.003466	3.43326	-6.71493	-4.44112
 228	1	2	0.0629	4.59972	-8.61987	-3.3747
 229	1	2	0.058439	5.95204	-7.56218	-2.91497
 230	1	2	0.076366	5.61482	-7.88702	-4.62961
 231	1	2	0.061036	2.98437	-7.23789	-2.04901
 232	1	2	0.060061	2.79888	-5.50227	-2.324
 233	1	2	0.042474	4.26559	-6.12252	-1.54035
 234	1	2	-0.019174	3.39668	-3.83709	-3.68638
 235	1	1	-0.06457	3.33283	-4.15962	-5.81455
 236	1	1	0.061186	1.86912	-3.61296	-5.80596
 237	1	2	0.013749	3.88677	-3.69868	-6.64292
 238	1	2	0.012175	3.28608	-5.22286	-6.07575
 239	1	1	-0.029522	1.84428	-2.0667	-5.6083
 240	1	1	0.182537	0.496231	-1.35962	-5.907
 241	1	2	0.017614	2.60696	-1.61136	-6.25275
 242	1	2	0.005524	2.13914	-1.83944	-4.57574
 243	1	1	-0.245806	0.215572	-1.29548	-7.42542
 244	1	1	-0.291525	0.503738	0.0703465	-5.32409
 245	1	2	-0.003466	-0.318196	-1.90551	-5.41675
 246	1	2	0.0629	-0.450365	0.576089	-5.5176
 247	1	2	0.058439	1.30609	0.673294	-5.76811
 248	1	2	0.076366	0.654753	0.0475147	-4.23744
 249	1	2	0.061036	0.0979987	-2.29572	-7.85236
 250	1	2	0.060061	1.03592	-0.794556	-7.9545
 251	1	2	0.042474	-0.703585	-0.736274	-7.63388
 252	1	2	-0.019174	1.46048	-3.82034	-6.79862
 253	1	1	-0.06457	1.0123	-4.35575	-4.73175
 254	1	1	0.061186	-0.401637	-4.85752	-5.15429
 255	1	2	0.013749	1.56424	-5.22072	-4.35231
 256	1	2	0.012175	0.915353	-3.67609	-3.87764
 257	1	1	-0.029522	-0.399101	-6.24683	-5.87463
 258	1	1	0.182537	0.247126	-6.3347	-7.28343
 259	1	2	0.017614	-1.43648	-6.59121	-5.97328
 260	1	2	0.005524	0.103644	-6.98292	-5.24336
 261	1	1	-0.245806	-0.526158	-5.51743	-8.34156
 262	1	1	-0.291525	0.324367	-7.80797	-7.73911
 263	1	2	-0.003466	1.27749	-5.96997	-7.23293
 264	1	2	0.0629	0.908968	-8.40667	-7.0292
 265	1	2	0.058439	0.808228	-7.88733	-8.72072
 266	1	2	0.076366	-0.677318	-8.24985	-7.8154
 267	1	2	0.061036	-0.0467516	-5.60743	-9.32433
 268	1	2	0.060061	-0.556493	-4.45468	-8.08637
 269	1	2	0.042474	-1.56004	-5.87347	-8.43378
 270	1	2	-0.019174	-0.814001	-4.13304	-5.86507
 271	1	1	-0.06457	-1.40357	-4.84825	-3.9482
 272	1	1	0.061186	-0.922173	-5.28541	-2.51694
 273	1	2	0.013749	-2.29869	-5.41027	-4.22589
 274	1	2	0.012175	-1.7498	-3.81146	-3.86414
 275	1	1	-0.029522	-0.25747	-6.69525	-2.38834
 276	1	1	0.182537	-1.1682	-7.95363	-2.23605
 277	1	2	0.017614	0.357233	-6.65536	-1.47929
 278	1	2	0.005524	0.470161	-6.85439	-3.18519
 279	1	1	-0.245806	-0.290453	-9.20787	-2.03391
 280	1	1	-0.291525	-2.14159	-8.20684	-3.40705
 281	1	2	-0.003466	-1.77032	-7.84044	-1.32612
 282	1	2	0.0629	-1.6027	-8.34395	-4.35048
 283	1	2	0.058439	-2.86094	-7.39129	-3.52012
 284	1	2	0.076366	-2.72354	-9.11905	-3.22543
 285	1	2	0.061036	-0.911574	-10.0966	-1.86526
 286	1	2	0.060061	0.366675	-9.08966	-1.16324
 287	1	2	0.042474	0.338577	-9.39356	-2.91406
 288	1	2	-0.019174	-0.135442	-4.58278	-2.22083
 289	1	1	-0.06457	-2.04097	-5.11089	-1.44909
 290	1	1	0.061186	-2.48846	-3.63788	-1.1651
 291	1	2	0.013749	-2.88999	-5.73332	-1.72914
 292	1	2	0.012175	-1.68295	-5.55288	-0.511385
 293	1	1	-0.029522	-2.31073	-3.24646	0.335245
 294	1	1	0.182537	-0.842777	-3.19485	0.854059
 295	1	2	0.017614	-2.86874	-3.95405	0.957085
 296	1	2	0.005524	-2.76335	-2.26169	0.510505
 297	1	1	-0.245806	-0.826618	-2.91631	2.37236
 298	1	1	-0.291525	0.0183756	-2.13146	0.134199
 299	1	2	-0.003466	-0.370168	-4.17232	0.699561
 300	1	2	0.0629	0.191009	-2.39443	-0.915733
 301	1	2	0.058439	1.00073	-2.04359	0.612849
 302	1	2	0.076366	-0.462764	-1.14617	0.17119
 303	1	2	0.061036	0.197393	-2.95671	2.76438
 304	1	2	0.060061	-1.42289	-3.66092	2.91461
 305	1	2	0.042474	-1.23519	-1.92237	2.59328
 306	1	2	-0.019174	-1.80287	-2.98125	-1.71078
 307	1	1	-0.06457	-3.90119	-3.229	-1.71402
 308	1	1	0.061186	-5.15069	-4.17006	-1.588
 309	1	2	0.013749	-4.17009	-2.26627	-1.26078
 310	1	2	0.012175	-3.77241	-2.98735	-2.77539
 311	1	1	-0.029522	-5.2639	-5.00994	-0.278212
 312	1	1	0.182537	-5.7348	-4.21606	0.971866
 313	1	2	0.017614	-4.31581	-5.50794	-0.0588765
 314	1	2	0.005524	-5.98136	-5.82629	-0.430881
 315	1	1	-0.245806	-5.50987	-5.06049	2.24523
 316	1	1	-0.291525	-7.22635	-3.81407	0.877426
 317	1	2	-0.003466	-5.13936	-3.29987	1.06556
 318	1	2	0.0629	-7.56935	-3.36	1.81409
 319	1	2	0.058439	-7.85857	-4.68877	0.679528
 320	1	2	0.076366	-7.39786	-3.08003	0.0821393
 321	1	2	0.061036	-6.08519	-5.99404	2.20226
 322	1	2	0.060061	-5.82098	-4.51183	3.14167
 323	1	2	0.042474	-4.44998	-5.31751	2.36375
 324	1	2	-0.019174	-6.0094	-3.49436	-1.57049
 325	1	1	-0.06457	-5.36878	-5.03152	-2.87102
 326	1	1	0.061186	-5.97192	-4.22463	-4.06637
 327	1	2	0.013749	-4.42539	-5.49139	-3.17529
 328	1	2	0.012175	-6.02828	-5.87952	-2.64837
 329	1	1	-0.029522	-7.46699	-4.59333	-4.31248
 330	1	1	0.182537	-8.43771	-4.23761	-3.15071
 331	1	2	0.017614	-7.52857	-5.66996	-4.5188
 332	1	2	0.005524	-7.83542	-4.09327	-5.21542
 333	1	1	-0.245806	-9.82351	-4.86929	-3.39797
 334	1	1	-0.291525	-8.59721	-2.71068	-2.96424
 335	1	2	-0.003466	-8.05378	-4.66085	-2.21484
 336	1	2	0.0629	-9.30595	-2.49315	-2.15543
 337	1	2	0.058439	-8.97531	-2.24128	-3.88127
 338	1	2	0.076366	-7.64783	-2.23051	-2.70338
 339	1	2	0.061036	-10.5065	-4.64396	-2.56928
 340	1	2	0.060061	-9.74529	-5.96053	-3.48006
 341	1	2	0.042474	-10.2715	-4.48677	-4.324
 342	1	2	-0.019174	-5.92744	-3.16004	-3.8185
 343	1	1	-0.06457	-5.09748	-4.41147	-5.34066
 344	1	1	0.061186	-5.53384	-3.60891	-6.59628
 345	1	2	0.013749	-4.06753	-4.12278	-5.10106
 346	1	2	0.012175	-5.0613	-5.47684	-5.60299
 347	1	1	-0.029522	-5.79478	-2.0946	-6.37263
 348	1	1	0.182537	-4.62141	-1.29296	-5.74551
 349	1	2	0.017614	-6.68394	-1.97525	-5.74107
 350	1	2	0.005524	-6.05555	-1.64573	-7.33994
 351	1	1	-0.245806	-5.0317	0.179131	-5.53104
 352	1	1	-0.291525	-3.3375	-1.35984	-6.59663
 353	1	2	-0.003466	-4.38866	-1.70885	-4.75883
 354	1	2	0.0629	-3.52407	-1.01365	-7.62103
 355	1	2	0.058439	-2.93924	-2.3806	-6.64227
 356	1	2	0.076366	-2.56194	-0.722051	-6.15711
 357	1	2	0.061036	-5.91627	0.246291	-4.88531
 358	1	2	0.060061	-5.26723	0.664925	-6.48651
 359	1	2	0.042474	-4.2228	0.743972	-5.05058
 360	1	2	-0.019174	-6.44165	-4.06029	-7.01482
 361	1	2	0	-4.91952	5.19874	9.87767
 362	1	2	0	-4.76721	-3.73275	-7.37135

Velocities

   1	9.82285e-05	-0.000216222	-2.20597e-05
   2	5.77237e-06	4.98669e-05	-8.98242e-05
   3	-5.21905e-05	6.51973e-06	-0.000176393
   4	1.48858e-06	-0.000618347	-8.03019e-05
   5	-6.95212e-05	9.30494e-05	6.92578e-05
   6	-6.9827e-05	0.000132776	-0.000183283
   7	0.000142561	-5.66213e-06	0.000265801
   8	-0.000311208	0.000265179	0.000297508
   9	-7.06632e-05	3.73048e-05	-0.000217035
  10	4.33559e-05	-3.14448e-05	-0.000428537
  11	1.07358e-05	0.000289194	-0.000175848
  12	-0.000164844	-8.43187e-05	-0.000577809
  13	0.000212814	-0.000200794	-0.000602046
  14	0.000254557	-5.14255e-05	-0.000336995
  15	5.1348e-05	-0.000273781	-0.000367521
  16	0.000156195	0.000297882	-0.00020342
  17	-0.000412648	2.1974e-05	-7.60209e-05
  18	-5.62076e-05	0.000110081	-4.08581e-05
  19	0.000187796	4.93299e-05	-0.000467898
  20	0.000132171	4.16631e-05	-6.71432e-05
  21	-0.000310609	0.000318326	-0.000969889
  22	0.00087203	-6.65117e-05	-0.000903374
  23	-7.72628e-05	-7.89556e-05	-4.71623e-05
  24	-9.13777e-05	-0.000146044	-3.95957e-05
  25	-0.000219506	-0.000279122	-0.000129816
  26	-0.000258218	8.19475e-05	0.000106613
  27	-0.00025234	-0.000202667	-5.95186e-06
  28	-0.000151553	-0.000200322	-9.43588e-05
  29	-0.000120744	-0.000222172	-2.55703e-06
  30	-0.000184051	-0.000199939	-5.97735e-05
  31	-0.000193213	-0.000241516	-8.32612e-05
  32	-0.000136923	-0.000212683	-0.000149118
  33	-0.000283327	-0.000127885	-2.07746e-05
  34	-0.000344081	-0.000244292	4.23585e-05
  35	-0.000208732	-0.00034029	5.54148e-05
  36	0.000258872	0.000151139	1.04248e-05
  37	-1.87562e-05	-4.15182e-05	-1.87653e-05
  38	-1.23292e-06	1.5193e-05	-1.73332e-05
  39	8.28e-05	-0.000105999	4.08006e-05
  40	-8.0403e-05	-7.36452e-05	-2.34727e-05
  41	-9.06852e-05	7.66004e-05	-1.23463e-05
  42	-9.54672e-05	7.37855e-05	5.46958e-05
  43	-0.000104614	5.73013e-05	-3.17862e-05
  44	-6.47499e-05	0.000108975	2.78142e-05
  45	-0.000104286	9.06926e-05	1.98307e-05
  46	-0.000192536	6.64293e-05	0.000195788
  47	-6.74374e-06	0.000121243	9.15487e-05
  48	-0.000266768	9.75488e-05	0.00033793
  49	-0.000275403	-7.11229e-05	0.000172055
  50	-0.000152139	0.000155278	0.00022721
  51	-8.25244e-05	8.62648e-05	4.61797e-05
  52	-7.39917e-05	0.000101934	-7.5702e-06
  53	-0.000125821	8.38817e-05	-2.22392e-06
  54	-3.53987e-05	-9.47517e-06	-6.93146e-05
  55	5.93805e-05	1.05277e-05	3.65247e-06
  56	8.80425e-05	-4.5238e-05	1.53905e-05
  57	8.80367e-05	-2.48147e-05	2.41919e-05
  58	8.19511e-05	4.76326e-05	4.95695e-05
  59	0.000100613	1.37825e-07	-2.288e-05
  60	0.000141484	3.24246e-07	-2.4469e-05
  61	0.00012164	1.10332e-05	-2.19631e-05
  62	0.00013647	-1.13601e-05	-3.03319e-06
  63	0.000176971	-3.20374e-05	3.30154e-05
  64	0.000174235	0.000108685	-3.48114e-05
  65	0.000101016	-5.99352e-06	-6.60355e-05
  66	0.00018786	0.000136712	-9.91142e-05
  67	0.000169149	8.96929e-05	-6.66805e-05
  68	0.000232563	0.000138326	2.43478e-05
  69	0.000278082	-1.50195e-05	8.76284e-05
  70	0.000170462	2.09629e-05	-8.07509e-06
  71	0.000136597	-0.000111048	7.48639e-05
  72	6.36531e-05	-6.43035e-05	3.15654e-05
  73	-1.57613e-06	-5.59882e-05	-8.36383e-06
  74	-7.48253e-06	-6.99943e-05	-1.33943e-05
  75	-2.18345e-05	-0.000124752	-3.25822e-05
  76	-5.45664e-05	-2.16245e-05	-1.66079e-05
  77	-1.64031e-05	-6.28262e-05	1.1496e-05
  78	1.49181e-05	-5.70447e-05	1.00683e-05
  79	-5.3352e-06	-7.11444e-05	-8.2015e-06
  80	-1.00697e-05	-7.111e-05	3.4226e-06
  81	-5.06069e-06	-7.6165e-05	4.77758e-05
  82	3.36074e-05	-3.72684e-05	-1.582e-05
  83	4.38048e-05	-6.41782e-05	2.13495e-05
  84	7.38353e-05	2.20018e-05	-0.000109847
  85	-6.16088e-05	1.02846e-05	5.37902e-06
  86	7.51594e-05	-0.000111406	9.31217e-06
  87	1.0982e-05	-5.82129e-05	2.29742e-05
  88	-6.46404e-06	-0.000129695	6.02361e-05
  89	-1.61262e-05	-3.97593e-05	9.59248e-05
  90	-5.47504e-06	-4.4328e-05	1.76153e-06
  91	-8.67404e-05	-5.00196e-05	2.32378e-05
  92	-5.77261e-05	-1.09672e-05	-2.09073e-05
  93	-9.70788e-05	-7.82795e-05	0.000108325
  94	-0.000155113	5.92076e-07	1.00312e-05
  95	-7.59133e-05	-7.24663e-05	-7.31729e-05
  96	-1.62754e-05	-0.000114481	-0.000108543
  97	-0.000111928	-1.68676e-05	-6.16165e-05
  98	-9.44921e-05	-4.00017e-05	-0.00013842
  99	1.45527e-05	-0.000121518	-0.000118006
 100	5.95034e-05	-0.000150715	-0.000146757
 101	-3.03651e-05	-0.000180822	-5.7351e-05
 102	3.78033e-05	-0.000183058	-0.000169889
 103	0.000109588	-0.00018549	-0.000187325
 104	0.000113506	-0.000101765	-0.000105763
 105	-2.19932e-05	-0.000142138	-8.68589e-05
 106	6.6601e-05	-0.000188408	-0.000143827
 107	2.03504e-05	-6.78899e-05	-0.000178661
 108	-4.33335e-05	-2.40429e-05	-1.49711e-05
 109	-5.36752e-05	-5.55799e-05	-5.04762e-05
 110	-6.98193e-05	-1.42287e-05	-3.85342e-05
 111	-6.41477e-05	-2.12557e-05	-4.87352e-05
 112	-4.88186e-05	-2.62953e-05	-7.51061e-05
 113	-6.84449e-05	-9.9226e-05	-4.45274e-05
 114	-5.47865e-05	-0.000178494	6.87619e-06
 115	-0.00012577	-0.000102842	-9.62156e-05
 116	-6.47498e-05	-6.62408e-05	-4.19335e-05
 117	6.61305e-06	-0.000176332	0.00010006
 118	-8.8874e-05	-0.000277401	-1.69368e-05
 119	-6.15265e-05	-0.000193244	1.36997e-05
 120	-9.4105e-05	-0.000282118	-8.2915e-05
 121	-0.000104628	-0.000311849	-2.78553e-05
 122	-0.000114989	-0.000317229	3.94358e-05
 123	1.56944e-05	-0.000118494	0.000117911
 124	2.03169e-05	-0.00023494	0.000129476
 125	1.11983e-05	-0.000159244	0.000113201
 126	-6.43606e-05	-3.01615e-05	-5.03275e-06
 127	-2.7553e-05	-2.19761e-05	-6.33843e-05
 128	-3.57992e-05	1.97363e-05	-3.02776e-05
 129	-4.95258e-05	1.82494e-05	-4.8775e-05
 130	-1.89074e-05	-2.23619e-06	-4.72746e-05
 131	-2.92448e-05	-2.39976e-05	-7.28528e-05
 132	-5.63462e-05	6.4464e-05	-4.40646e-05
 133	-3.8259e-05	-1.13719e-05	-0.000106847
 134	3.82664e-06	-3.01174e-05	-5.28051e-05
 135	-3.46209e-05	9.74507e-05	-3.56375e-05
 136	-9.50689e-05	4.29877e-05	-7.7553e-05
 137	-7.57816e-05	4.60102e-05	-7.01345e-05
 138	-4.85658e-05	5.35754e-05	-5.08935e-05
 139	-0.000148814	9.06032e-05	-5.54063e-05
 140	-0.000112295	2.9391e-05	-0.000135916
 141	-5.47224e-06	9.13067e-05	-5.63675e-05
 142	-7.88563e-05	0.000124787	9.9553e-07
 143	-5.6151e-07	0.000143858	-1.70966e-05
 144	-2.51054e-05	-2.41719e-05	-5.27395e-05
 145	-2.07016e-06	-6.54407e-05	-5.8686e-06
 146	-2.22153e-05	-1.418e-05	8.30324e-06
 147	-3.27929e-05	-1.57528e-05	3.66862e-05
 148	1.21059e-05	-5.10644e-05	3.38852e-06
 149	-9.48801e-06	-7.04861e-05	3.79151e-05
 150	-6.44486e-06	-0.000117201	-2.50746e-05
 151	-1.11486e-05	-7.25662e-06	-1.41362e-06
 152	-3.16029e-05	-4.61116e-05	8.05809e-05
 153	-2.72982e-05	-0.000212548	2.98007e-05
 154	-1.03848e-05	-0.000128775	-1.16175e-06
 155	8.34806e-06	-0.000135308	-6.6773e-05
 156	1.57396e-06	-5.54491e-05	-4.31254e-05
 157	-3.17975e-05	-0.000126698	7.23896e-05
 158	-5.13873e-06	-0.000194451	-4.86165e-05
 159	-1.76166e-05	-0.000197471	6.48876e-06
 160	-2.10048e-05	-0.000262588	-5.02077e-06
 161	-2.67628e-05	-0.00020113	9.12895e-05
 162	-8.38255e-06	-5.25614e-05	1.48354e-05
 163	1.5545e-05	-7.24754e-05	2.27423e-05
 164	1.84077e-05	-2.00341e-05	2.89415e-05
 165	-5.33154e-06	-4.21e-05	1.69586e-05
 166	4.92759e-06	-6.8424e-05	5.45665e-06
 167	2.73083e-05	-5.92571e-05	2.47099e-06
 168	5.03047e-05	-1.94249e-05	-3.16656e-05
 169	1.78011e-05	-8.81276e-05	-2.05209e-06
 170	2.00892e-05	-4.76595e-05	4.39587e-05
 171	4.93447e-05	4.53086e-05	-1.13367e-05
 172	5.29421e-05	-0.000116496	-4.85495e-05
 173	7.90148e-05	-2.31669e-05	-8.76964e-05
 174	7.16696e-05	-0.000120254	-4.70413e-05
 175	-5.28657e-06	-0.000140358	-4.65265e-05
 176	0.000100785	-0.000149867	-5.31891e-05
 177	-7.42174e-05	1.47924e-05	3.58865e-05
 178	7.60303e-05	0.000199616	2.63405e-05
 179	0.000157436	5.48861e-06	-6.99402e-05
 180	3.75981e-05	-3.92054e-05	2.56496e-05
 181	4.36154e-05	-8.35973e-05	1.30551e-05
 182	5.41224e-05	-4.40094e-05	6.25602e-05
 183	3.54691e-05	-7.12138e-05	5.75241e-08
 184	5.73117e-05	-7.27286e-05	2.62361e-05
 185	0.000102748	-8.62223e-05	3.8808e-05
 186	0.000201084	-2.73845e-05	4.82427e-05
 187	9.75455e-05	-0.000157449	2.99537e-05
 188	4.38733e-05	-5.78184e-05	4.58217e-05
 189	0.000257161	-0.000113208	1.74353e-05
 190	0.000209286	7.77122e-05	4.75934e-05
 191	0.000267577	-3.45355e-05	3.19179e-05
 192	0.000151289	9.74952e-05	4.94081e-05
 193	0.000181943	0.000130331	5.50939e-05
 194	0.000285026	0.000114587	5.29612e-05
 195	0.000269293	-0.000118094	-6.39575e-05
 196	0.000241915	-9.52815e-05	5.49487e-05
 197	0.000284739	-0.000169102	5.73338e-05
 198	6.52268e-05	-4.70466e-05	3.57185e-05
 199	6.84779e-05	-0.000102268	5.47136e-05
 200	4.69606e-05	-8.18155e-05	9.06046e-05
 201	8.60077e-05	-0.000100188	8.07928e-05
 202	4.24524e-05	-0.000116948	7.66303e-05
 203	0.000128301	-0.000123449	0.000119729
 204	8.14868e-05	-0.000117986	0.000109453
 205	0.000177338	-0.000198549	0.000137358
 206	0.000154851	-6.51112e-05	0.000194801
 207	7.8972e-05	-0.000150761	3.78411e-05
 208	9.37052e-05	-0.000131088	0.000125902
 209	4.55902e-05	-8.94264e-05	0.000104169
 210	0.000181168	-0.000190514	0.000109496
 211	7.64518e-05	-0.000104564	0.000247678
 212	1.80623e-05	-9.11465e-05	6.18347e-05
 213	0.000222471	-7.22138e-05	-3.89444e-05
 214	-2.65204e-05	-0.000251455	-8.03261e-05
 215	3.21705e-05	-0.000140647	0.00019024
 216	1.9596e-05	-0.000145605	2.22324e-05
 217	-1.18722e-05	2.45012e-05	5.6863e-05
 218	-4.87623e-05	5.05956e-05	5.24071e-05
 219	-1.58534e-05	6.98902e-05	0.000164312
 220	-6.67439e-05	4.55557e-05	1.53094e-05
 221	-9.72899e-05	2.76595e-05	6.58931e-05
 222	-0.000157852	6.38099e-05	9.16214e-05
 223	-9.01906e-05	-8.83332e-07	6.98867e-05
 224	-0.00010802	-7.71289e-06	7.55279e-05
 225	1.28852e-05	6.28975e-05	0.000171485
 226	-0.00023574	1.67671e-07	-8.85802e-05
 227	-0.000255178	0.000168069	0.000170628
 228	-0.000259602	3.12384e-05	-2.88441e-05
 229	-0.000106651	-7.73186e-05	-0.000219783
 230	-0.000413696	1.78411e-06	-0.000171543
 231	4.15899e-06	8.14291e-05	0.000217988
 232	4.60459e-05	9.48273e-05	0.000272211
 233	0.000104794	8.75269e-06	9.97552e-05
 234	-6.09816e-05	6.68679e-05	3.75182e-05
 235	-3.60437e-06	9.844e-05	1.95075e-05
 236	1.52437e-05	0.000173426	4.65531e-06
 237	4.64487e-05	5.57099e-05	3.87877e-05
 238	-6.15153e-05	9.698e-05	3.4151e-05
 239	7.57425e-05	0.000189197	1.4624e-06
 240	9.64154e-05	0.000209543	-3.00093e-05
 241	0.000101608	0.000166502	1.9268e-05
 242	5.16592e-05	0.000170885	6.43071e-06
 243	0.000170261	0.000316837	-3.77806e-05
 244	4.10523e-05	0.000185314	5.63656e-05
 245	8.0365e-05	0.000182239	-0.00011159
 246	7.94285e-05	0.000212529	-6.15268e-05
 247	0.000115113	0.000198208	0.000213999
 248	-0.000127183	0.00011968	7.80035e-05
 249	0.000400141	0.000337817	-0.000162209
 250	0.000104475	0.000545539	6.90997e-05
 251	6.49348e-05	0.000152035	-1.71931e-05
 252	3.72543e-05	0.000213983	-1.43675e-05
 253	4.80896e-06	0.000205068	-2.32252e-05
 254	-2.39351e-05	0.000219011	-3.20102e-05
 255	-2.48442e-05	0.000176934	-3.33643e-05
 256	2.293e-05	0.000182733	-4.29934e-07
 257	2.98531e-05	0.000244788	-4.86704e-05
 258	-4.46101e-05	0.000291527	-8.12064e-05
 259	4.09696e-05	0.00019954	-3.00525e-05
 260	8.52473e-05	0.000254261	-7.30008e-05
 261	-0.000189317	0.000243413	-8.01093e-06
 262	7.25018e-05	0.000293907	-5.48668e-05
 263	-5.14445e-05	0.000379605	-0.000149231
 264	0.000149098	0.000362786	-6.08916e-05
 265	5.17278e-05	0.000319867	-8.21598e-05
 266	9.62293e-05	0.000207553	-1.00703e-05
 267	-0.000287933	0.000278755	-5.77414e-05
 268	-0.000236989	0.000249671	-8.63807e-07
 269	-0.000174383	0.000174108	9.5999e-05
 270	1.46911e-05	0.000248461	-3.49313e-05
 271	-3.95816e-05	0.000174974	-7.39762e-05
 272	-6.98929e-05	0.000278185	-3.49174e-05
 273	3.62302e-05	1.93583e-05	-7.67699e-05
 274	-0.0002073	0.00012278	-0.00011116
 275	2.09329e-05	0.000324503	1.94824e-05
 276	3.0539e-05	0.000317608	0.000129507
 277	4.12201e-05	0.000394291	1.82856e-06
 278	-1.759e-05	0.00027231	-2.22948e-06
 279	4.09239e-05	0.0003445	0.000288479
 280	6.95101e-05	0.000225343	0.000111083
 281	6.53771e-06	0.000371175	0.000103285
 282	8.25297e-05	0.000540914	8.28746e-05
 283	-0.000157395	5.84819e-05	0.000278765
 284	0.000327623	2.89493e-05	-3.27284e-05
 285	2.34721e-05	0.000384169	0.000494105
 286	8.16405e-05	0.000507313	0.000247392
 287	-1.92505e-05	0.000184479	0.000290713
 288	-0.000126652	0.000345661	-2.87116e-05
 289	-0.00013289	0.000157232	-0.00011502
 290	-0.000134994	0.000138063	4.46465e-05
 291	-8.21961e-05	0.000159345	-0.000163327
 292	-0.000155244	0.000108873	-0.000130395
 293	-4.66887e-06	-9.74204e-05	7.52321e-05
 294	5.75801e-05	1.65191e-05	-0.00015545
 295	0.000198004	-0.000286952	4.37632e-05
 296	-0.000129019	-0.000201446	0.000330785
 297	0.000232006	-6.0719e-05	-0.000133135
 298	-0.00015693	0.000176522	-0.00018831
 299	0.00016354	8.38995e-05	-0.000278217
 300	-0.000323105	0.000303003	-0.000261446
 301	-8.2538e-05	0.000238912	-0.000385786
 302	-0.000270185	0.000122658	-8.53893e-06
 303	0.000282759	8.41027e-05	-0.000254322
 304	0.000400199	-0.000188496	-9.90697e-05
 305	8.1631e-05	-0.000133498	-3.35216e-05
 306	-0.00022109	0.000196233	2.70212e-05
 307	-0.000213347	0.000217454	0.000154275
 308	-0.000136678	0.000148036	1.74296e-05
 309	-0.000232923	9.99376e-05	0.000478189
 310	-0.000281852	0.000534803	0.00024363
 311	-8.38808e-05	0.000104142	-2.38294e-05
 312	7.38962e-06	8.23961e-05	1.98817e-05
 313	-6.54511e-05	0.000138744	-0.000112771
 314	-7.3623e-05	8.23414e-05	-1.612e-05
 315	0.000229259	0.00021039	6.72487e-05
 316	-4.50463e-05	-4.44829e-05	0.000179084
 317	-5.91153e-05	0.000144048	-0.000114091
 318	0.000105598	0.000154724	9.14267e-05