pySIMM System Object

650 atoms
649 bonds
1296 angles
1935 dihedrals
0 impropers

2 atom types
2 bond types
3 angle types
3 dihedral types

-106.946247 106.946247 xlo xhi
-106.946247 106.946247 ylo yhi
-106.946247 106.946247 zlo zhi

Masses

   1	12.01	# c3
   2	1.008	# hc

Pair Coeffs

   1	0.1094	3.3996695084235347	# c3
   2	0.0157	2.649532787749369	# hc

Bond Coeffs

   1	330.6	1.0969	# c3,hc
   2	300.9	1.5375	# c3,c3

Angle Coeffs

   1	46.34	109.8	# c3,c3,hc
   2	39.4	107.58	# hc,c3,hc
   3	62.86	111.51	# c3,c3,c3

Dihedral Coeffs

   1	1	0.16	3	0	# hc,c3,c3,c3
   2	1	0.15	3	0	# hc,c3,c3,hc
   3	3	0.18	3	0	0.25	2	180	0.2	1	180	# c3,c3,c3,c3

Atoms

   1	1	1	-0.06457	-16.15	6.24193	-0.580478
   2	1	1	0.061186	-14.9472	7.20813	-0.426293
   3	1	2	0.013749	-15.8523	5.20026	-0.41371
   4	1	2	0.012175	-16.9422	6.48547	0.138952
   5	1	1	-0.029522	-15.3631	8.69378	-0.624271
   6	1	1	0.182537	-16.0056	9.05629	-1.99229
   7	1	2	0.017614	-14.4728	9.3218	-0.491616
   8	1	2	0.005524	-16.0608	8.97303	0.176542
   9	1	1	-0.245806	-15.0848	8.73156	-3.19035
  10	1	1	-0.291525	-16.3816	10.5531	-2.02005
  11	1	2	-0.003466	-16.9366	8.48882	-2.11141
  12	1	2	0.0629	-15.4897	11.1853	-1.92412
  13	1	2	0.058439	-17.0654	10.7984	-1.19772
  14	1	2	0.076366	-16.883	10.8104	-2.96138
  15	1	2	0.061036	-14.9051	7.65332	-3.27442
  16	1	2	0.060061	-14.1161	9.23698	-3.0894
  17	1	2	0.042474	-15.5438	9.05988	-4.13137
  18	1	2	-0.019174	-14.2106	6.97504	-1.20148
  19	1	1	-0.06457	-14.2597	7.04236	0.960019
  20	1	1	0.061186	-13.6228	5.64791	1.28307
  21	1	2	0.013749	-13.5153	7.83416	1.08726
  22	1	2	0.012175	-15.016	7.25562	1.72613
  23	1	1	-0.029522	-12.743	5.68438	2.56968
  24	1	1	0.182537	-13.4253	6.2268	3.85671
  25	1	2	0.017614	-11.8579	6.30167	2.37766
  26	1	2	0.005524	-12.3709	4.67081	2.7707
  27	1	1	-0.245806	-12.4097	6.26682	5.01707
  28	1	1	-0.291525	-14.6593	5.39751	4.2764
  29	1	2	-0.003466	-13.7493	7.25987	3.68035
  30	1	2	0.0629	-15.4551	5.45575	3.52457
  31	1	2	0.058439	-15.0741	5.77218	5.22054
  32	1	2	0.076366	-14.3935	4.34218	4.41679
  33	1	2	0.061036	-12.0664	5.25635	5.26973
  34	1	2	0.060061	-12.8609	6.70801	5.91471
  35	1	2	0.042474	-11.5334	6.87062	4.74972
  36	1	2	-0.019174	-14.4731	4.99298	1.50803
  37	1	1	-0.06457	-12.8837	4.91423	0.110439
  38	1	1	0.061186	-11.3959	5.2745	-0.221545
  39	1	2	0.013749	-12.9012	3.85511	0.391893
  40	1	2	0.012175	-13.4793	4.95779	-0.807192
  41	1	1	-0.029522	-10.8827	4.42621	-1.42858
  42	1	1	0.182537	-10.9856	2.88161	-1.28862
  43	1	2	0.017614	-9.83276	4.66582	-1.62207
  44	1	2	0.005524	-11.4318	4.73026	-2.32953
  45	1	1	-0.245806	-10.2765	2.35709	-0.0237908
  46	1	1	-0.291525	-10.3927	2.1881	-2.53358
  47	1	2	-0.003466	-12.0427	2.5941	-1.2369
  48	1	2	0.0629	-10.5074	1.09901	-2.46373
  49	1	2	0.058439	-9.32321	2.41203	-2.63812
  50	1	2	0.076366	-10.9035	2.52198	-3.44531
  51	1	2	0.061036	-10.3313	1.26503	0.0177789
  52	1	2	0.060061	-10.7405	2.7403	0.892258
  53	1	2	0.042474	-9.21977	2.64913	-0.0284882
  54	1	2	-0.019174	-10.7938	5.00909	0.652511
  55	1	1	-0.06457	-11.1912	6.79199	-0.509097
  56	1	1	0.061186	-9.7248	7.31763	-0.58641
  57	1	2	0.013749	-11.665	7.37663	0.277056
  58	1	2	0.012175	-11.7222	7.03815	-1.43802
  59	1	1	-0.029522	-9.02801	7.24938	0.815255
  60	1	1	0.182537	-7.56516	6.72374	0.819241
  61	1	2	0.017614	-9.05475	8.24513	1.276
  62	1	2	0.005524	-9.60477	6.62219	1.50334
  63	1	1	-0.245806	-7.46618	5.23218	0.427668
  64	1	1	-0.291525	-6.92539	6.93003	2.20656
  65	1	2	-0.003466	-6.97401	7.30538	0.106377
  66	1	2	0.0629	-6.92917	7.99158	2.47054
  67	1	2	0.058439	-5.88271	6.58918	2.21214
  68	1	2	0.076366	-7.47232	6.38165	2.98258
  69	1	2	0.061036	-8.09384	4.61261	1.08007
  70	1	2	0.060061	-6.43175	4.87673	0.514955
  71	1	2	0.042474	-7.77722	5.06811	-0.60926
  72	1	2	-0.019174	-9.17497	6.71345	-1.31217
  73	1	1	-0.06457	-9.79756	8.77446	-1.13962
  74	1	1	0.061186	-8.46298	9.56952	-1.29169
  75	1	2	0.013749	-10.2997	8.76167	-2.11609
  76	1	2	0.012175	-10.4679	9.31529	-0.464596
  77	1	1	-0.029522	-7.51453	8.87204	-2.31643
  78	1	1	0.182537	-6.11698	9.52535	-2.51942
  79	1	2	0.017614	-8.02291	8.83311	-3.28878
  80	1	2	0.005524	-7.35757	7.82844	-2.02558
  81	1	1	-0.245806	-5.31863	9.67348	-1.20374
  82	1	1	-0.291525	-5.2921	8.70865	-3.53627
  83	1	2	-0.003466	-6.25174	10.5253	-2.94957
  84	1	2	0.0629	-5.82231	8.62817	-4.49349
  85	1	2	0.058439	-5.10125	7.69399	-3.16395
  86	1	2	0.076366	-4.32461	9.1893	-3.72799
  87	1	2	0.061036	-5.82212	10.3495	-0.503015
  88	1	2	0.060061	-4.32452	10.0931	-1.40196
  89	1	2	0.042474	-5.18292	8.70236	-0.712073
  90	1	2	-0.019174	-7.9657	9.57305	-0.316111
  91	1	1	-0.06457	-8.70923	11.0614	-1.70184
  92	1	1	0.061186	-9.78655	11.8651	-0.903854
  93	1	2	0.013749	-8.99285	11.0807	-2.76237
  94	1	2	0.012175	-7.75596	11.5888	-1.63621
  95	1	1	-0.029522	-10.017	13.2972	-1.48466
  96	1	1	0.182537	-9.09238	14.4632	-1.01825
  97	1	2	0.017614	-11.0465	13.5842	-1.23412
  98	1	2	0.005524	-9.99614	13.2419	-2.58095
  99	1	1	-0.245806	-7.59454	14.2588	-1.3326
 100	1	1	-0.291525	-9.56878	15.7891	-1.64896
 101	1	2	-0.003466	-9.1915	14.5828	0.0647633
 102	1	2	0.0629	-8.97212	16.6334	-1.28125
 103	1	2	0.058439	-10.6178	15.9877	-1.39571
 104	1	2	0.076366	-9.47985	15.7583	-2.74234
 105	1	2	0.061036	-7.15945	13.4751	-0.703214
 106	1	2	0.060061	-7.02823	15.1765	-1.13008
 107	1	2	0.042474	-7.44374	13.9936	-2.38665
 108	1	2	-0.019174	-10.7244	11.3429	-1.11197
 109	1	1	-0.06457	-9.54798	11.8383	0.638594
 110	1	1	0.061186	-10.6792	12.4232	1.54756
 111	1	2	0.013749	-8.60653	12.3613	0.831161
 112	1	2	0.012175	-9.38096	10.8054	0.962482
 113	1	1	-0.029522	-12.0611	11.765	1.22034
 114	1	1	0.182537	-13.2744	12.1846	2.09972
 115	1	2	0.017614	-11.9487	10.6744	1.28349
 116	1	2	0.005524	-12.3328	11.9861	0.182085
 117	1	1	-0.245806	-13.5832	13.6939	1.99573
 118	1	1	-0.291525	-14.5269	11.3749	1.70614
 119	1	2	-0.003466	-13.0689	11.9425	3.1487
 120	1	2	0.0629	-14.347	10.2995	1.82651
 121	1	2	0.058439	-14.8075	11.5655	0.662669
 122	1	2	0.076366	-15.3796	11.6432	2.34234
 123	1	2	0.061036	-12.7499	14.2978	2.36732
 124	1	2	0.060061	-14.4665	13.9503	2.59391
 125	1	2	0.042474	-13.7804	13.984	0.95591
 126	1	2	-0.019174	-10.7601	13.4964	1.34717
 127	1	1	-0.06457	-10.3255	12.2244	3.05645
 128	1	1	0.061186	-8.93972	12.7408	3.55142
 129	1	2	0.013749	-11.0931	12.6863	3.68579
 130	1	2	0.012175	-10.3859	11.1492	3.2398
 131	1	1	-0.029522	-8.70445	14.2645	3.30471
 132	1	1	0.182537	-9.82853	15.2726	3.68626
 133	1	2	0.017614	-8.50073	14.3919	2.23575
 134	1	2	0.005524	-7.77317	14.5662	3.80157
 135	1	1	-0.245806	-10.198	15.2743	5.18521
 136	1	1	-0.291525	-9.41365	16.6968	3.25835
 137	1	2	-0.003466	-10.7321	15.0267	3.12073
 138	1	2	0.0629	-8.51851	17.0254	3.80161
 139	1	2	0.058439	-10.2182	17.4152	3.45937
 140	1	2	0.076366	-9.19529	16.7338	2.18354
 141	1	2	0.061036	-10.7521	14.3697	5.45683
 142	1	2	0.060061	-10.8488	16.1252	5.42265
 143	1	2	0.042474	-9.30222	15.3464	5.81486
 144	1	2	-0.019174	-8.17403	12.2563	2.94296
 145	1	1	-0.06457	-8.6216	12.3265	5.02715
 146	1	1	0.061186	-8.33975	10.8155	5.32199
 147	1	2	0.013749	-9.41958	12.6639	5.69364
 148	1	2	0.012175	-7.73313	12.8831	5.35091
 149	1	1	-0.029522	-7.32539	10.1662	4.32633
 150	1	1	0.182537	-5.94047	10.8668	4.21499
 151	1	2	0.017614	-7.78572	10.119	3.33168
 152	1	2	0.005524	-7.14897	9.12264	4.60388
 153	1	1	-0.245806	-5.14539	10.8208	5.53859
 154	1	1	-0.291525	-5.10268	10.2269	3.08783
 155	1	2	-0.003466	-6.08628	11.9194	3.94594
 156	1	2	0.0629	-5.6353	10.2749	2.12979
 157	1	2	0.058439	-4.88434	9.17418	3.30788
 158	1	2	0.076366	-4.14797	10.7537	2.96658
 159	1	2	0.061036	-5.66654	11.3588	6.33892
 160	1	2	0.060061	-4.16226	11.2917	5.4146
 161	1	2	0.042474	-4.98586	9.78546	5.86334
 162	1	2	-0.019174	-7.86618	10.8097	6.30849
 163	1	1	-0.06457	-9.64784	9.96485	5.45527
 164	1	1	0.061186	-9.72829	8.99088	6.67471
 165	1	2	0.013749	-10.5196	10.6273	5.49247
 166	1	2	0.012175	-9.78756	9.37491	4.53994
 167	1	1	-0.029522	-9.73139	9.71311	8.05965
 168	1	1	0.182537	-10.7623	10.8618	8.24003
 169	1	2	0.017614	-8.72814	10.1059	8.26574
 170	1	2	0.005524	-9.93166	8.97425	8.84433
 171	1	1	-0.245806	-12.2194	10.3887	8.03723
 172	1	1	-0.291525	-10.6111	11.4972	9.63806
 173	1	2	-0.003466	-10.5528	11.6515	7.51011
 174	1	2	0.0629	-9.59301	11.8797	9.78398
 175	1	2	0.058439	-10.8185	10.7649	10.4287
 176	1	2	0.076366	-11.3056	12.3378	9.7601
 177	1	2	0.061036	-12.4671	9.57544	8.73105
 178	1	2	0.060061	-12.3857	10.0299	7.01479
 179	1	2	0.042474	-12.9218	11.2128	8.21406
 180	1	2	-0.019174	-10.6879	8.47188	6.57714
 181	1	1	-0.06457	-8.60884	7.91407	6.5817
 182	1	1	0.061186	-8.59737	6.77292	7.6447
 183	1	2	0.013749	-8.64796	7.45349	5.58532
 184	1	2	0.012175	-7.65044	8.43428	6.63305
 185	1	1	-0.029522	-9.83772	5.84448	7.47666
 186	1	1	0.182537	-10.0107	4.70416	8.52316
 187	1	2	0.017614	-9.81637	5.40294	6.4725
 188	1	2	0.005524	-10.7407	6.46392	7.52221
 189	1	1	-0.245806	-11.3788	4.01338	8.3359
 190	1	1	-0.291525	-9.87855	5.18872	9.98448
 191	1	2	-0.003466	-9.24227	3.94229	8.35188
 192	1	2	0.0629	-10.5773	6.00928	10.191
 193	1	2	0.058439	-8.86119	5.53631	10.1992
 194	1	2	0.076366	-10.0961	4.37185	10.6838
 195	1	2	0.061036	-11.4798	3.15925	9.01705
 196	1	2	0.060061	-11.495	3.64017	7.3121
 197	1	2	0.042474	-12.2023	4.71015	8.53788
 198	1	2	-0.019174	-8.66619	7.21311	8.64233
 199	1	1	-0.06457	-7.23656	6.01221	7.5501
 200	1	1	0.061186	-6.1282	6.45392	8.56331
 201	1	2	0.013749	-7.41459	4.94421	7.70195
 202	1	2	0.012175	-6.84602	6.09201	6.5265
 203	1	1	-0.029522	-5.95802	8.00446	8.67364
 204	1	1	0.182537	-4.92303	8.52431	9.71084
 205	1	2	0.017614	-6.91689	8.46792	8.9268
 206	1	2	0.005524	-5.6735	8.39298	7.6886
 207	1	1	-0.245806	-5.21102	8.02462	11.1443
 208	1	1	-0.291525	-4.89175	10.0676	9.69538
 209	1	2	-0.003466	-3.92111	8.18421	9.4227
 210	1	2	0.0629	-5.8638	10.485	9.98752
 211	1	2	0.058439	-4.64539	10.4419	8.69393
 212	1	2	0.076366	-4.13358	10.4482	10.3911
 213	1	2	0.061036	-6.22678	8.29654	11.4582
 214	1	2	0.060061	-4.50446	8.46713	11.8576
 215	1	2	0.042474	-5.10763	6.93541	11.216
 216	1	2	-0.019174	-6.45012	6.09363	9.54658
 217	1	1	-0.06457	-4.7539	5.8006	8.21849
 218	1	1	0.061186	-4.72626	4.27117	7.91834
 219	1	2	0.013749	-4.34871	6.33822	7.35535
 220	1	2	0.012175	-4.05411	5.98425	9.04259
 221	1	1	-0.029522	-5.13598	3.45652	9.18522
 222	1	1	0.182537	-5.44604	1.95031	8.95161
 223	1	2	0.017614	-6.02346	3.90299	9.6478
 224	1	2	0.005524	-4.33247	3.55026	9.92778
 225	1	1	-0.245806	-6.75201	1.73524	8.15224
 226	1	1	-0.291525	-5.54828	1.20755	10.3001
 227	1	2	-0.003466	-4.62171	1.48957	8.39673
 228	1	2	0.0629	-5.74104	0.138964	10.1422
 229	1	2	0.058439	-6.36195	1.61513	10.9135
 230	1	2	0.076366	-4.61329	1.2989	10.8669
 231	1	2	0.061036	-6.92856	0.665627	7.98351
 232	1	2	0.060061	-6.7138	2.22099	7.17211
 233	1	2	0.042474	-7.61448	2.1386	8.69689
 234	1	2	-0.019174	-5.44548	4.06296	7.12146
 235	1	1	-0.06457	-3.30584	3.86872	7.39897
 236	1	1	0.061186	-3.16148	3.68026	5.85452
 237	1	2	0.013749	-2.57099	4.61506	7.72852
 238	1	2	0.012175	-2.98203	2.94372	7.88809
 239	1	1	-0.029522	-3.54635	4.96779	5.05728
 240	1	1	0.182537	-3.05331	5.10184	3.5823
 241	1	2	0.017614	-3.11702	5.82453	5.59025
 242	1	2	0.005524	-4.63456	5.10987	5.08513
 243	1	1	-0.245806	-3.7742	4.18918	2.56609
 244	1	1	-0.291525	-1.52276	4.95493	3.4404
 245	1	2	-0.003466	-3.29622	6.13057	3.28498
 246	1	2	0.0629	-1.20282	5.23624	2.42931
 247	1	2	0.058439	-1.20041	3.92137	3.61591
 248	1	2	0.076366	-1.00009	5.60642	4.15168
 249	1	2	0.061036	-3.54853	4.50976	1.54138
 250	1	2	0.060061	-4.86179	4.23675	2.69716
 251	1	2	0.042474	-3.45218	3.14611	2.65902
 252	1	2	-0.019174	-2.09042	3.51739	5.69052
 253	1	1	-0.06457	-3.92588	2.40789	5.37948
 254	1	1	0.061186	-3.00345	1.22665	4.95826
 255	1	2	0.013749	-4.59231	2.06608	6.17349
 256	1	2	0.012175	-4.59876	2.66295	4.55652
 257	1	1	-0.029522	-2.26081	0.615174	6.18484
 258	1	1	0.182537	-1.21897	-0.496948	5.87346
 259	1	2	0.017614	-3.00232	0.233224	6.89649
 260	1	2	0.005524	-1.72971	1.41458	6.71412
 261	1	1	-0.245806	-0.649969	-1.07551	7.18577
 262	1	1	-0.291525	-0.0618545	0.00707131	4.9832
 263	1	2	-0.003466	-1.71032	-1.32266	5.34909
 264	1	2	0.0629	-0.424772	0.322475	3.99911
 265	1	2	0.058439	0.676462	-0.788065	4.82063
 266	1	2	0.076366	0.450607	0.85793	5.44948
 267	1	2	0.061036	0.0588641	-1.8868	6.97774
 268	1	2	0.060061	-1.45331	-1.48474	7.81111
 269	1	2	0.042474	-0.125812	-0.302948	7.76268
 270	1	2	-0.019174	-2.24054	1.65672	4.29855
 271	1	1	-0.06457	-3.77023	0.189933	4.08155
 272	1	1	0.061186	-5.05545	-0.469446	4.69269
 273	1	2	0.013749	-3.07138	-0.57609	3.73726
 274	1	2	0.012175	-4.05004	0.718637	3.16185
 275	1	1	-0.029522	-4.7867	-1.77718	5.50607
 276	1	1	0.182537	-4.75301	-3.14064	4.75093
 277	1	2	0.017614	-5.58699	-1.85113	6.2542
 278	1	2	0.005524	-3.86774	-1.67252	6.08857
 279	1	1	-0.245806	-4.51959	-4.28789	5.75677
 280	1	1	-0.291525	-3.69557	-3.22401	3.63309
 281	1	2	-0.003466	-5.73332	-3.31633	4.29223
 282	1	2	0.0629	-2.68035	-3.10812	4.0314
 283	1	2	0.058439	-3.8627	-2.45763	2.87554
 284	1	2	0.076366	-3.75914	-4.19101	3.12211
 285	1	2	0.061036	-4.55123	-5.26136	5.2542
 286	1	2	0.060061	-5.2933	-4.2889	6.53465
 287	1	2	0.042474	-3.54215	-4.1896	6.24626
 288	1	2	-0.019174	-5.47271	0.226575	5.42388
 289	1	1	-0.06457	-6.14431	-0.663082	3.59678
 290	1	1	0.061186	-6.92339	0.628502	3.21269
 291	1	2	0.013749	-5.63145	-1.05412	2.71711
 292	1	2	0.012175	-6.87082	-1.42126	3.91162
 293	1	1	-0.029522	-8.0291	0.947357	4.2711
 294	1	1	0.182537	-8.77096	2.30797	4.12833
 295	1	2	0.017614	-7.57604	0.925253	5.2683
 296	1	2	0.005524	-8.77321	0.144638	4.28059
 297	1	1	-0.245806	-7.81739	3.52379	4.15154
 298	1	1	-0.291525	-9.81942	2.45776	5.24802
 299	1	2	-0.003466	-9.32427	2.32345	3.18259
 300	1	2	0.0629	-10.528	1.62014	5.23472
 301	1	2	0.058439	-10.3934	3.38256	5.11519
 302	1	2	0.076366	-9.34018	2.4864	6.23454
 303	1	2	0.061036	-7.16119	3.52935	3.27376
 304	1	2	0.060061	-7.19106	3.51914	5.0522
 305	1	2	0.042474	-8.38817	4.46046	4.14021
 306	1	2	-0.019174	-6.20361	1.4509	3.27584
 307	1	1	-0.06457	-7.41404	0.655021	1.72442
 308	1	1	0.061186	-8.08934	-0.593575	1.05276
 309	1	2	0.013749	-8.10617	1.4915	1.61421
 310	1	2	0.012175	-6.57056	0.973664	1.1094
 311	1	1	-0.029522	-9.31041	-1.10732	1.87115
 312	1	1	0.182537	-10.1986	-2.19153	1.1954
 313	1	2	0.017614	-9.94553	-0.25012	2.1305
 314	1	2	0.005524	-8.94672	-1.52621	2.81592
 315	1	1	-0.245806	-10.7964	-1.74167	-0.156918
 316	1	1	-0.291525	-11.3392	-2.60824	2.148
 317	1	2	-0.003466	-9.59052	-3.08675	1.0176
 318	1	2	0.0629	-12.0022	-1.76057	2.36326
 319	1	2	0.058439	-10.9375	-2.97911	3.09932
 320	1	2	0.076366	-11.9431	-3.4096	1.70405
 321	1	2	0.061036	-10.0129	-1.52829	-0.893323
 322	1	2	0.060061	-11.4142	-0.843764	-0.0349193
 323	1	2	0.042474	-11.431	-2.53142	-0.578056
 324	1	2	-0.019174	-8.49818	-0.19495	0.119879
 325	1	1	-0.06457	-7.1342	-1.7625	0.629645
 326	1	1	0.061186	-5.82084	-1.37686	-0.127027
 327	1	2	0.013749	-6.89285	-2.35413	1.51977
 328	1	2	0.012175	-7.68691	-2.45222	-0.0198649
 329	1	1	-0.029522	-6.14278	-0.84839	-1.56427
 330	1	1	0.182537	-5.18943	0.228994	-2.15765
 331	1	2	0.017614	-7.15163	-0.422495	-1.58706
 332	1	2	0.005524	-6.18434	-1.70683	-2.24747
 333	1	1	-0.245806	-5.22255	1.56206	-1.37509
 334	1	1	-0.291525	-5.55304	0.497629	-3.63332
 335	1	2	-0.003466	-4.1617	-0.141541	-2.1492
 336	1	2	0.0629	-5.49368	-0.425211	-4.22391
 337	1	2	0.058439	-4.86184	1.2243	-4.07853
 338	1	2	0.076366	-6.57162	0.896661	-3.72131
 339	1	2	0.061036	-4.82543	1.44551	-0.361097
 340	1	2	0.060061	-6.24581	1.95236	-1.30371
 341	1	2	0.042474	-4.60587	2.31887	-1.87595
 342	1	2	-0.019174	-5.3298	-0.599421	0.456147
 343	1	1	-0.06457	-4.8681	-2.61534	-0.137823
 344	1	1	0.061186	-3.39537	-2.40747	-0.618115
 345	1	2	0.013749	-4.82536	-3.02946	0.875823
 346	1	2	0.012175	-5.34473	-3.39159	-0.747859
 347	1	1	-0.029522	-2.68731	-1.24095	0.145732
 348	1	1	0.182537	-1.21226	-0.93669	-0.240513
 349	1	2	0.017614	-2.72194	-1.4496	1.22053
 350	1	2	0.005524	-3.24792	-0.313598	0.00107842
 351	1	1	-0.245806	-0.69342	0.267344	0.573465
 352	1	1	-0.291525	-1.03047	-0.659702	-1.74988
 353	1	2	-0.003466	-0.585636	-1.79492	0.0304403
 354	1	2	0.0629	-1.28837	-1.53812	-2.35305
 355	1	2	0.058439	0.0134809	-0.405587	-1.97209
 356	1	2	0.076366	-1.65968	0.178814	-2.07367
 357	1	2	0.061036	-0.785629	0.0755631	1.64895
 358	1	2	0.060061	-1.26128	1.17686	0.339053
 359	1	2	0.042474	0.36472	0.458983	0.355565
 360	1	2	-0.019174	-3.42606	-2.14175	-1.67833
 361	1	1	-0.06457	-2.57465	-3.72951	-0.482172
 362	1	1	0.061186	-3.12704	-4.99798	-1.20472
 363	1	2	0.013749	-1.56198	-3.56358	-0.866698
 364	1	2	0.012175	-2.46549	-3.941	0.58816
 365	1	1	-0.029522	-3.42151	-4.69816	-2.71018
 366	1	1	0.182537	-3.87172	-5.89705	-3.59238
 367	1	2	0.017614	-2.52133	-4.25856	-3.15992
 368	1	2	0.005524	-4.20298	-3.93234	-2.77932
 369	1	1	-0.245806	-4.12324	-5.4278	-5.04084
 370	1	1	-0.291525	-5.13492	-6.59778	-3.04413
 371	1	2	-0.003466	-3.06038	-6.63355	-3.63914
 372	1	2	0.0629	-5.96964	-5.89072	-2.95925
 373	1	2	0.058439	-4.95369	-7.03559	-2.05549
 374	1	2	0.076366	-5.44439	-7.41172	-3.71163
 375	1	2	0.061036	-4.39001	-6.27614	-5.68352
 376	1	2	0.060061	-3.22349	-4.9601	-5.46011
 377	1	2	0.042474	-4.94056	-4.69663	-5.08274
 378	1	2	-0.019174	-4.06995	-5.28586	-0.726337
 379	1	1	-0.06457	-2.12827	-6.18825	-1.06006
 380	1	1	0.061186	-1.68816	-6.60306	0.381115
 381	1	2	0.013749	-2.55734	-7.08132	-1.52832
 382	1	2	0.012175	-1.24469	-5.9261	-1.65086
 383	1	1	-0.029522	-2.93561	-6.90874	1.2688
 384	1	1	0.182537	-2.67116	-7.54542	2.66392
 385	1	2	0.017614	-3.59748	-7.58406	0.710526
 386	1	2	0.005524	-3.50395	-5.9829	1.41854
 387	1	1	-0.245806	-4.00907	-7.81852	3.38252
 388	1	1	-0.291525	-1.75476	-6.68678	3.56518
 389	1	2	-0.003466	-2.18861	-8.52029	2.52284
 390	1	2	0.0629	-2.20415	-5.71154	3.77536
 391	1	2	0.058439	-0.775911	-6.51646	3.10275
 392	1	2	0.076366	-1.58218	-7.1893	4.52503
 393	1	2	0.061036	-4.57275	-6.88987	3.53151
 394	1	2	0.060061	-3.8392	-8.27973	4.36348
 395	1	2	0.042474	-4.63283	-8.50296	2.79378
 396	1	2	-0.019174	-1.14995	-5.76574	0.839289
 397	1	1	-0.06457	-0.712381	-7.82255	0.33708
 398	1	1	0.061186	0.491493	-7.74855	-0.653383
 399	1	2	0.013749	-0.301916	-7.99828	1.33825
 400	1	2	0.012175	-1.3191	-8.70174	0.0927132
 401	1	1	-0.029522	1.35717	-9.04761	-0.582626
 402	1	1	0.182537	0.613048	-10.3968	-0.799643
 403	1	2	0.017614	1.86029	-9.08055	0.39271
 404	1	2	0.005524	2.15397	-8.99644	-1.33213
 405	1	1	-0.245806	1.61385	-11.5704	-0.749174
 406	1	1	-0.291525	-0.173138	-10.4447	-2.12985
 407	1	2	-0.003466	-0.0948962	-10.5506	0.0236963
 408	1	2	0.0629	0.491022	-10.2725	-2.98585
 409	1	2	0.058439	-0.969928	-9.69205	-2.1543
 410	1	2	0.076366	-0.64723	-11.4254	-2.26126
 411	1	2	0.061036	2.15915	-11.5769	0.202873
 412	1	2	0.060061	2.34644	-11.4983	-1.56315
 413	1	2	0.042474	1.09224	-12.5312	-0.843755
 414	1	2	-0.019174	0.0758442	-7.68725	-1.66216
 415	1	1	-0.06457	1.36626	-6.47594	-0.410323
 416	1	1	0.061186	2.48696	-6.20089	-1.46008
 417	1	2	0.013749	0.731638	-5.58355	-0.372548
 418	1	2	0.012175	1.81691	-6.56012	0.586666
 419	1	1	-0.029522	1.89957	-5.93892	-2.88676
 420	1	1	0.182537	1.90659	-7.14985	-3.86172
 421	1	2	0.017614	2.43615	-5.11783	-3.37664
 422	1	2	0.005524	0.872397	-5.56713	-2.78248
 423	1	1	-0.245806	3.33407	-7.59143	-4.25456
 424	1	1	-0.291525	1.10232	-6.80834	-5.13368
 425	1	2	-0.003466	1.41381	-8.00399	-3.38882
 426	1	2	0.0629	1.06845	-7.66752	-5.81521
 427	1	2	0.058439	1.55367	-5.96374	-5.66984
 428	1	2	0.076366	0.0684502	-6.5414	-4.88063
 429	1	2	0.061036	3.88519	-7.98151	-3.39258
 430	1	2	0.060061	3.9024	-6.75541	-4.67811
 431	1	2	0.042474	3.29819	-8.3914	-5.00455
 432	1	2	-0.019174	3.12979	-7.08069	-1.48375
 433	1	1	-0.06457	3.37244	-5.00108	-1.00067
 434	1	1	0.061186	4.76387	-4.91719	-1.70402
 435	1	2	0.013749	2.80817	-4.07883	-1.19263
 436	1	2	0.012175	3.52125	-5.01578	0.0842206
 437	1	1	-0.029522	5.71855	-6.1146	-1.36543
 438	1	1	0.182537	6.1321	-6.31417	0.125698
 439	1	2	0.017614	6.62385	-6.00448	-1.96526
 440	1	2	0.005524	5.2898	-7.05055	-1.73789
 441	1	1	-0.245806	7.56608	-6.88519	0.223979
 442	1	1	-0.291525	5.18853	-7.27771	0.884993
 443	1	2	-0.003466	6.12847	-5.34559	0.639413
 444	1	2	0.0629	5.16917	-8.26526	0.406855
 445	1	2	0.058439	4.16237	-6.90716	0.929905
 446	1	2	0.076366	5.52845	-7.41193	1.91953
 447	1	2	0.061036	7.62849	-7.87144	-0.253136
 448	1	2	0.060061	7.86954	-6.99444	1.27278
 449	1	2	0.042474	8.29634	-6.22887	-0.262636
 450	1	2	-0.019174	4.54412	-4.98385	-2.76981
 451	1	1	-0.06457	5.39023	-3.50157	-1.48258
 452	1	1	0.061186	6.63179	-3.04255	-2.32537
 453	1	2	0.013749	4.60267	-2.76347	-1.68336
 454	1	2	0.012175	5.6194	-3.37437	-0.41755
 455	1	1	-0.029522	6.38972	-2.99873	-3.87123
 456	1	1	0.182537	6.38669	-4.33348	-4.68944
 457	1	2	0.017614	7.11223	-2.31063	-4.32542
 458	1	2	0.005524	5.42283	-2.49867	-4.01458
 459	1	1	-0.245806	7.71425	-4.61601	-5.42676
 460	1	1	-0.291525	5.23851	-4.32162	-5.72346
 461	1	2	-0.003466	6.22167	-5.18664	-4.03078
 462	1	2	0.0629	5.36367	-3.49925	-6.43929
 463	1	2	0.058439	4.26693	-4.19966	-5.22812
 464	1	2	0.076366	5.20826	-5.26256	-6.28695
 465	1	2	0.061036	8.03455	-3.75097	-6.02098
 466	1	2	0.060061	7.60353	-5.46883	-6.10824
 467	1	2	0.042474	8.51057	-4.88054	-4.72409
 468	1	2	-0.019174	6.7117	-1.98535	-2.05088
 469	1	1	-0.06457	7.97326	-3.68652	-1.86092
 470	1	1	0.061186	9.24078	-2.77572	-1.80513
 471	1	2	0.013749	7.82858	-4.08203	-0.851337
 472	1	2	0.012175	8.20283	-4.56161	-2.4769
 473	1	1	-0.029522	9.12831	-1.54083	-0.859004
 474	1	1	0.182537	8.68195	-1.83389	0.600635
 475	1	2	0.017614	8.43889	-0.808654	-1.29695
 476	1	2	0.005524	10.1039	-1.03885	-0.823998
 477	1	1	-0.245806	8.54262	-0.514927	1.38959
 478	1	1	-0.291525	9.65153	-2.78245	1.34137
 479	1	2	-0.003466	7.69026	-2.30138	0.583681
 480	1	2	0.0629	10.6698	-2.37354	1.35024
 481	1	2	0.058439	9.68187	-3.77282	0.872222
 482	1	2	0.076366	9.33343	-2.92349	2.38179
 483	1	2	0.061036	8.18633	-0.707007	2.40939
 484	1	2	0.060061	7.82176	0.154868	0.904028
 485	1	2	0.042474	9.50504	0.0082971	1.45631
 486	1	2	-0.019174	10.0106	-3.41469	-1.3679
 487	1	1	-0.06457	9.72984	-2.33863	-3.21775
 488	1	1	0.061186	11.2745	-2.22069	-3.38136
 489	1	2	0.013749	9.38143	-3.04582	-3.97053
 490	1	2	0.012175	9.25092	-1.38233	-3.46498
 491	1	1	-0.029522	11.6041	-1.46446	-4.71081
 492	1	1	0.182537	12.772	-0.442124	-4.63958
 493	1	2	0.017614	10.7191	-0.920593	-5.06526
 494	1	2	0.005524	11.8149	-2.19973	-5.49852
 495	1	1	-0.245806	12.4198	0.786487	-3.77036
 496	1	1	-0.291525	13.1616	0.022785	-6.05893
 497	1	2	-0.003466	13.6548	-0.921618	-4.20655
 498	1	2	0.0629	13.4649	-0.830209	-6.67913
 499	1	2	0.058439	14.0038	0.725059	-6.02179
 500	1	2	0.076366	12.3201	0.524216	-6.55363
 501	1	2	0.061036	13.2453	1.50921	-3.77215
 502	1	2	0.060061	12.2341	0.504267	-2.72777
 503	1	2	0.042474	11.5246	1.29396	-4.15169
 504	1	2	-0.019174	11.6446	-1.64104	-2.53077
 505	1	1	-0.06457	11.9239	-3.64462	-3.36484
 506	1	1	0.061186	13.4776	-3.70546	-3.27349
 507	1	2	0.013749	11.5226	-4.25034	-2.54824
 508	1	2	0.012175	11.5858	-4.15375	-4.26885
 509	1	1	-0.029522	14.0363	-2.9861	-2.00121
 510	1	1	0.182537	13.3705	-3.29522	-0.625139
 511	1	2	0.017614	13.9507	-1.90563	-2.1647
 512	1	2	0.005524	15.1161	-3.17003	-1.92852
 513	1	1	-0.245806	13.9656	-2.37734	0.463806
 514	1	1	-0.291525	13.5023	-4.76772	-0.180216
 515	1	2	-0.003466	12.3028	-3.05654	-0.681932
 516	1	2	0.0629	12.9042	-5.42991	-0.814047
 517	1	2	0.058439	13.1366	-4.89516	0.846445
 518	1	2	0.076366	14.548	-5.09809	-0.211586
 519	1	2	0.061036	15.0388	-2.56562	0.594159
 520	1	2	0.060061	13.4694	-2.54451	1.42812
 521	1	2	0.042474	13.8318	-1.3207	0.199696
 522	1	2	-0.019174	13.8641	-3.13762	-4.12158
 523	1	1	-0.06457	14.0297	-5.16717	-3.41297
 524	1	1	0.061186	14.3941	-5.67791	-4.84674
 525	1	2	0.013749	14.9426	-5.25862	-2.81097
 526	1	2	0.012175	13.3266	-5.87153	-2.95545
 527	1	1	-0.029522	13.1807	-5.74607	-5.82439
 528	1	1	0.182537	12.0131	-6.68179	-5.39617
 529	1	2	0.017614	13.5145	-6.10053	-6.80222
 530	1	2	0.005524	12.8077	-4.7305	-6.00181
 531	1	1	-0.245806	12.4353	-8.16725	-5.34698
 532	1	1	-0.291525	10.8197	-6.51392	-6.35941
 533	1	2	-0.003466	11.6615	-6.40442	-4.39665
 534	1	2	0.0629	9.96999	-7.12917	-6.03784
 535	1	2	0.058439	11.0918	-6.81158	-7.37999
 536	1	2	0.076366	10.486	-5.46915	-6.38579
 537	1	2	0.061036	11.5737	-8.80622	-5.11672
 538	1	2	0.060061	13.1857	-8.33969	-4.5675
 539	1	2	0.042474	12.8522	-8.49259	-6.30856
 540	1	2	-0.019174	14.7447	-6.70286	-4.69672
 541	1	1	-0.06457	15.6009	-4.87663	-5.43693
 542	1	1	0.061186	16.1691	-5.33644	-6.81831
 543	1	2	0.013749	15.2892	-3.8345	-5.53544
 544	1	2	0.012175	16.4207	-4.88221	-4.70665
 545	1	1	-0.029522	17.272	-4.35612	-7.33191
 546	1	1	0.182537	16.8568	-2.87094	-7.54034
 547	1	2	0.017614	17.666	-4.72924	-8.28499
 548	1	2	0.005524	18.1165	-4.38121	-6.63043
 549	1	1	-0.245806	15.6222	-2.71115	-8.45568
 550	1	1	-0.291525	18.0411	-2.06753	-8.11874
 551	1	2	-0.003466	16.6197	-2.42489	-6.56703
 552	1	2	0.0629	17.7811	-1.00613	-8.21704
 553	1	2	0.058439	18.3252	-2.44266	-9.11024
 554	1	2	0.076366	18.9173	-2.13864	-7.46208
 555	1	2	0.061036	15.413	-1.64999	-8.64018
 556	1	2	0.060061	14.7261	-3.1446	-7.99585
 557	1	2	0.042474	15.7855	-3.19975	-9.42462
 558	1	2	-0.019174	15.3552	-5.31402	-7.54897
 559	1	1	-0.06457	16.7448	-6.78694	-6.79261
 560	1	1	0.061186	16.7445	-7.47709	-8.19201
 561	1	2	0.013749	17.765	-6.74583	-6.38882
 562	1	2	0.012175	16.1891	-7.42467	-6.09822
 563	1	1	-0.029522	15.4065	-8.23928	-8.42273
 564	1	1	0.182537	15.1296	-8.71079	-9.87779
 565	1	2	0.017614	14.5757	-7.59035	-8.12517
 566	1	2	0.005524	15.3623	-9.09815	-7.74273
 567	1	1	-0.245806	14.9629	-7.53066	-10.8613
 568	1	1	-0.291525	13.8646	-9.59446	-9.91165
 569	1	2	-0.003466	15.9658	-9.32361	-10.2318
 570	1	2	0.0629	13.9778	-10.4635	-9.25174
 571	1	2	0.058439	13.6754	-9.96654	-10.9263
 572	1	2	0.076366	12.9823	-9.02934	-9.58467
 573	1	2	0.061036	14.6844	-7.89523	-11.8579
 574	1	2	0.060061	15.8963	-6.9666	-10.9712
 575	1	2	0.042474	14.1802	-6.84084	-10.5208
 576	1	2	-0.019174	16.7939	-6.68099	-8.94148
 577	1	1	-0.06457	18.0299	-8.32848	-8.42098
 578	1	1	0.061186	18.2888	-9.50753	-7.42858
 579	1	2	0.013749	18.0572	-8.6951	-9.45444
 580	1	2	0.012175	18.8689	-7.62481	-8.35176
 581	1	1	-0.029522	19.8192	-9.67487	-7.17256
 582	1	1	0.182537	20.6765	-9.99367	-8.43795
 583	1	2	0.017614	19.9774	-10.4554	-6.42017
 584	1	2	0.005524	20.1915	-8.75683	-6.69882
 585	1	1	-0.245806	21.4312	-11.3325	-8.28745
 586	1	1	-0.291525	21.6831	-8.86443	-8.74799
 587	1	2	-0.003466	20.0205	-10.0902	-9.31189
 588	1	2	0.0629	22.2523	-9.09211	-9.65805
 589	1	2	0.058439	22.3958	-8.735	-7.92365
 590	1	2	0.076366	21.167	-7.91023	-8.90777
 591	1	2	0.061036	22.1423	-11.2916	-7.45279
 592	1	2	0.060061	21.9909	-11.5668	-9.2017
 593	1	2	0.042474	20.7333	-12.1578	-8.10195
 594	1	2	-0.019174	17.8448	-9.22912	-6.46709
 595	1	1	-0.06457	17.6331	-10.8465	-7.89606
 596	1	1	0.061186	16.8885	-11.6623	-6.80032
 597	1	2	0.013749	16.9164	-10.6408	-8.69535
 598	1	2	0.012175	18.3987	-11.4803	-8.35037
 599	1	1	-0.029522	16.0323	-12.8225	-7.41779
 600	1	1	0.182537	16.6741	-13.8813	-8.37181
 601	1	2	0.017614	15.2012	-12.3567	-7.96277
 602	1	2	0.005524	15.5334	-13.3686	-6.61135
 603	1	1	-0.245806	18.0191	-14.4737	-7.9001
 604	1	1	-0.291525	16.7664	-13.4149	-9.8439
 605	1	2	-0.003466	15.9653	-14.7197	-8.38302
 606	1	2	0.0629	17.5467	-12.6633	-9.99734
 607	1	2	0.058439	15.8118	-12.9935	-10.1831
 608	1	2	0.076366	17.0017	-14.2654	-10.4958
 609	1	2	0.061036	18.8273	-13.7374	-7.96014
 610	1	2	0.060061	18.3029	-15.3222	-8.53501
 611	1	2	0.042474	17.951	-14.8423	-6.87012
 612	1	2	-0.019174	16.1475	-10.9768	-6.37938
 613	1	1	-0.06457	17.8256	-12.0607	-5.61302
 614	1	1	0.061186	17.2275	-12.9605	-4.4913
 615	1	2	0.013749	18.7076	-12.5632	-6.02421
 616	1	2	0.012175	18.2155	-11.156	-5.137
 617	1	1	-0.029522	15.9078	-12.423	-3.82545
 618	1	1	0.182537	15.8534	-11.0812	-3.01936
 619	1	2	0.017614	15.5297	-13.2081	-3.161
 620	1	2	0.005524	15.1382	-12.3544	-4.60292
 621	1	1	-0.245806	15.8764	-9.80075	-3.88199
 622	1	1	-0.291525	16.8554	-10.9557	-1.85426
 623	1	2	-0.003466	14.8615	-11.0879	-2.54837
 624	1	2	0.0629	16.5326	-10.167	-1.16307
 625	1	2	0.058439	17.8531	-10.6785	-2.21313
 626	1	2	0.076366	16.9211	-11.8902	-1.28387
 627	1	2	0.061036	15.1313	-9.85413	-4.68421
 628	1	2	0.060061	16.8607	-9.62348	-4.32444
 629	1	2	0.042474	15.6333	-8.92456	-3.26765
 630	1	2	-0.019174	16.9332	-13.8899	-4.98831
 631	1	1	-0.06457	18.3563	-13.3913	-3.50315
 632	1	1	0.061186	18.007	-14.5702	-2.55428
 633	1	2	0.013749	18.6811	-12.5394	-2.90406
 634	1	2	0.012175	19.2491	-13.6641	-4.0766
 635	1	1	-0.029522	17.9615	-15.9672	-3.23342
 636	1	1	0.182537	19.3151	-16.4832	-3.80289
 637	1	2	0.017614	17.2145	-15.9543	-4.03645
 638	1	2	0.005524	17.5948	-16.6928	-2.49576
 639	1	1	-0.245806	19.1249	-17.8486	-4.49638
 640	1	1	-0.291525	20.4104	-16.6036	-2.71827
 641	1	2	-0.003466	19.6713	-15.7851	-4.56958
 642	1	2	0.0629	21.3247	-17.0423	-3.13722
 643	1	2	0.058439	20.0763	-17.2427	-1.89106
 644	1	2	0.076366	20.6794	-15.6223	-2.31034
 645	1	2	0.061036	18.3909	-17.7743	-5.30837
 646	1	2	0.060061	18.7758	-18.6072	-3.7845
 647	1	2	0.042474	20.07	-18.1985	-4.93102
 648	1	2	-0.019174	17.045	-14.3832	-2.06488
 649	1	2	0	-16.5755	6.29307	-1.5894
 650	1	2	0	18.738	-14.5913	-1.73772

Velocities

   1	-7.65694e-05	0.000224559	-0.000463389
   2	8.1478e-05	-1.36135e-06	2.44304e-05
   3	-0.000285525	7.87264e-05	-0.000744614
   4	-0.000170124	9.34905e-05	-0.000487782
   5	0.000336986	0.000133069	7.53283e-05
   6	0.000165925	4.63347e-05	0.000195028
   7	0.000521903	-8.39709e-05	-0.000126225
   8	0.000569827	0.000311077	0.000208718
   9	0.000103277	-0.00015876	0.000135503
  10	5.86557e-05	4.18467e-05	3.56374e-05
  11	0.000175842	8.86578e-05	0.000314457
  12	-2.29374e-05	0.000149509	4.72113e-06
  13	-1.15996e-05	1.94297e-05	-2.55982e-05
  14	4.10417e-05	-0.000116944	-5.49864e-06
  15	-0.000241122	-0.000208437	0.000193428
  16	0.000252524	-0.000450819	0.00020683
  17	0.000192114	-2.782e-05	0.000146485
  18	0.000181967	6.21495e-05	0.000140158
  19	-0.00020737	-0.000187888	0.000108448