pySIMM System Object

452 atoms
451 bonds
900 angles
1341 dihedrals
0 impropers

2 atom types
2 bond types
3 angle types
3 dihedral types

-94.307583 94.307583 xlo xhi
-94.307583 94.307583 ylo yhi
-94.307583 94.307583 zlo zhi

Masses

   1	12.01	# c3
   2	1.008	# hc

Pair Coeffs

   1	0.1094	3.3996695084235347	# c3
   2	0.0157	2.649532787749369	# hc

Bond Coeffs

   1	330.6	1.0969	# c3,hc
   2	300.9	1.5375	# c3,c3

Angle Coeffs

   1	46.34	109.8	# c3,c3,hc
   2	39.4	107.58	# hc,c3,hc
   3	62.86	111.51	# c3,c3,c3

Dihedral Coeffs

   1	1	0.16	3	0	# hc,c3,c3,c3
   2	1	0.15	3	0	# hc,c3,c3,hc
   3	3	0.18	3	0	0.25	2	180	0.2	1	180	# c3,c3,c3,c3

Atoms

   1	1	1	-0.06457	-12.9313	-3.85492	1.61533
   2	1	1	0.061186	-11.6809	-3.00823	1.26391
   3	1	2	0.013749	-12.663	-4.89425	1.83524
   4	1	2	0.012175	-13.4503	-3.44491	2.49109
   5	1	1	-0.029522	-12.0553	-1.53281	0.930982
   6	1	1	0.182537	-12.9738	-1.32067	-0.306684
   7	1	2	0.017614	-11.1329	-0.958848	0.770632
   8	1	2	0.005524	-12.5387	-1.08947	1.81167
   9	1	1	-0.245806	-12.329	-1.81726	-1.62051
  10	1	1	-0.291525	-13.3417	0.170615	-0.451929
  11	1	2	-0.003466	-13.9124	-1.86681	-0.156214
  12	1	2	0.0629	-12.4488	0.777074	-0.641997
  13	1	2	0.058439	-13.8254	0.545136	0.458933
  14	1	2	0.076366	-14.038	0.31966	-1.28667
  15	1	2	0.061036	-12.1656	-2.90097	-1.60266
  16	1	2	0.060061	-11.365	-1.32375	-1.79395
  17	1	2	0.042474	-12.9795	-1.59978	-2.47686
  18	1	2	-0.019174	-11.2287	-3.45035	0.372436
  19	1	1	-0.06457	-10.632	-3.03527	2.41767
  20	1	1	0.061186	-9.91166	-4.3997	2.65508
  21	1	2	0.013749	-9.86906	-2.26541	2.24922
  22	1	2	0.012175	-11.1529	-2.73003	3.3321
  23	1	1	-0.029522	-9.04586	-4.39015	3.95308
  24	1	1	0.182537	-9.80403	-4.17381	5.29481
  25	1	2	0.017614	-8.27978	-3.61031	3.87181
  26	1	2	0.005524	-8.50544	-5.34374	4.01814
  27	1	1	-0.245806	-8.81287	-4.23361	6.47652
  28	1	1	-0.291525	-10.9425	-5.19407	5.52212
  29	1	2	-0.003466	-10.2427	-3.16897	5.29977
  30	1	2	0.0629	-11.7476	-5.06332	4.78932
  31	1	2	0.058439	-11.3863	-5.06414	6.51706
  32	1	2	0.076366	-10.5688	-6.22307	5.44778
  33	1	2	0.061036	-8.34519	-5.22379	6.54825
  34	1	2	0.060061	-9.32529	-4.02877	7.42489
  35	1	2	0.042474	-8.01773	-3.48698	6.35702
  36	1	2	-0.019174	-10.6832	-5.16123	2.80348
  37	1	1	-0.06457	-9.07419	-4.9112	1.43864
  38	1	1	0.061186	-7.88053	-4.01512	0.960375
  39	1	2	0.013749	-8.70377	-5.90644	1.70804
  40	1	2	0.012175	-9.74242	-5.11182	0.592458
  41	1	1	-0.029522	-6.65223	-4.88429	0.554706
  42	1	1	0.182537	-5.9086	-5.58274	1.72852
  43	1	2	0.017614	-5.91457	-4.27067	0.0258638
  44	1	2	0.005524	-6.98682	-5.64087	-0.167462
  45	1	1	-0.245806	-5.1928	-4.57088	2.65128
  46	1	1	-0.291525	-4.88586	-6.59501	1.17328
  47	1	2	-0.003466	-6.62136	-6.14822	2.33918
  48	1	2	0.0629	-4.32854	-7.07719	1.98617
  49	1	2	0.058439	-4.16797	-6.09993	0.509145
  50	1	2	0.076366	-5.39083	-7.38168	0.59911
  51	1	2	0.061036	-4.61527	-5.09417	3.42349
  52	1	2	0.060061	-5.90804	-3.92015	3.16618
  53	1	2	0.042474	-4.50309	-3.93787	2.07909
  54	1	2	-0.019174	-7.58622	-3.36322	1.78552
  55	1	1	-0.06457	-8.33442	-3.10374	-0.219624
  56	1	1	0.061186	-7.32612	-2.0676	-0.809002
  57	1	2	0.013749	-9.20879	-2.53498	0.103693
  58	1	2	0.012175	-8.6798	-3.75094	-1.03719
  59	1	1	-0.029522	-6.66945	-1.21372	0.325866
  60	1	1	0.182537	-5.66936	-0.10318	-0.0982824
  61	1	2	0.017614	-7.47245	-0.752033	0.915692
  62	1	2	0.005524	-6.1326	-1.87968	1.0116
  63	1	1	-0.245806	-4.41961	-0.665581	-0.810846
  64	1	1	-0.291525	-5.2348	0.729629	1.12555
  65	1	2	-0.003466	-6.17291	0.592005	-0.771896
  66	1	2	0.0629	-6.1061	1.16088	1.63427
  67	1	2	0.058439	-4.58667	1.55876	0.816207
  68	1	2	0.076366	-4.68481	0.113404	1.8481
  69	1	2	0.061036	-3.87563	-1.36033	-0.158508
  70	1	2	0.060061	-3.73578	0.146725	-1.08833
  71	1	2	0.042474	-4.68757	-1.19886	-1.72903
  72	1	2	-0.019174	-6.54307	-2.62986	-1.32162
  73	1	1	-0.06457	-8.13329	-1.2077	-1.83766
  74	1	1	0.061186	-7.41974	-0.656334	-3.11485
  75	1	2	0.013749	-8.9879	-1.79181	-2.20375
  76	1	2	0.012175	-8.56942	-0.385778	-1.26128
  77	1	1	-0.029522	-6.79539	-1.81075	-3.96224
  78	1	1	0.182537	-6.09948	-1.40107	-5.29156
  79	1	2	0.017614	-7.58301	-2.54028	-4.19226
  80	1	2	0.005524	-6.05103	-2.34598	-3.36431
  81	1	1	-0.245806	-4.96837	-0.370209	-5.07867
  82	1	1	-0.291525	-5.53674	-2.64921	-6.00395
  83	1	2	-0.003466	-6.84398	-0.960062	-5.96561
  84	1	2	0.0629	-6.33312	-3.37793	-6.20057
  85	1	2	0.058439	-4.76773	-3.13868	-5.39276
  86	1	2	0.076366	-5.08563	-2.37751	-6.96648
  87	1	2	0.061036	-5.36292	0.577852	-4.69659
  88	1	2	0.060061	-4.45786	-0.153887	-6.02536
  89	1	2	0.042474	-4.22174	-0.745427	-4.36728
  90	1	2	-0.019174	-6.60354	-0.000461591	-2.80337
  91	1	1	-0.06457	-8.40496	0.193707	-3.98869
  92	1	1	0.061186	-9.25356	1.27858	-3.25873
  93	1	2	0.013749	-9.09069	-0.490123	-4.50623
  94	1	2	0.012175	-7.81908	0.699496	-4.76241
  95	1	1	-0.029522	-10.3414	1.91131	-4.17963
  96	1	1	0.182537	-9.85283	2.81615	-5.35033
  97	1	2	0.017614	-11.0134	2.49215	-3.53575
  98	1	2	0.005524	-10.9775	1.11259	-4.58317
  99	1	1	-0.245806	-9.66968	2.03363	-6.67134
 100	1	1	-0.291525	-10.8532	3.96766	-5.58972
 101	1	2	-0.003466	-8.89292	3.27434	-5.08977
 102	1	2	0.0629	-10.4943	4.63904	-6.37987
 103	1	2	0.058439	-10.9881	4.5632	-4.67874
 104	1	2	0.076366	-11.8345	3.57865	-5.89007
 105	1	2	0.061036	-8.92725	1.23568	-6.578
 106	1	2	0.060061	-9.33076	2.70425	-7.47091
 107	1	2	0.042474	-10.6155	1.57869	-6.99191
 108	1	2	-0.019174	-9.83882	0.756582	-2.4983
 109	1	1	-0.06457	-8.33187	2.32021	-2.54896
 110	1	1	0.061186	-9.02244	3.47642	-1.76132
 111	1	2	0.013749	-7.66204	2.73149	-3.30886
 112	1	2	0.012175	-7.68181	1.79736	-1.84312
 113	1	1	-0.029522	-9.87563	2.9196	-0.578623
 114	1	1	0.182537	-10.897	3.91191	0.0461607
 115	1	2	0.017614	-9.19093	2.5631	0.202382
 116	1	2	0.005524	-10.4411	2.03954	-0.896708
 117	1	1	-0.245806	-12.0712	4.22059	-0.910882
 118	1	1	-0.291525	-11.4488	3.34486	1.37155
 119	1	2	-0.003466	-10.3974	4.85671	0.286439
 120	1	2	0.0629	-10.6371	3.1694	2.08854
 121	1	2	0.058439	-11.9716	2.39442	1.20855
 122	1	2	0.076366	-12.1549	4.04767	1.83122
 123	1	2	0.061036	-11.7278	4.70362	-1.83203
 124	1	2	0.060061	-12.7893	4.89891	-0.433455
 125	1	2	0.042474	-12.6055	3.30284	-1.18697
 126	1	2	-0.019174	-9.68319	4.00493	-2.45246
 127	1	1	-0.06457	-7.95242	4.48147	-1.22296
 128	1	1	0.061186	-7.16674	5.29411	-2.29895
 129	1	2	0.013749	-8.41222	5.19224	-0.530149
 130	1	2	0.012175	-7.24711	3.9007	-0.620203
 131	1	1	-0.029522	-8.08849	6.13245	-3.24318
 132	1	1	0.182537	-9.25532	6.95779	-2.61464
 133	1	2	0.017614	-8.53272	5.43691	-3.96558
 134	1	2	0.005524	-7.46414	6.80317	-3.84777
 135	1	1	-0.245806	-8.81039	8.02967	-1.59602
 136	1	1	-0.291525	-10.0762	7.63571	-3.73272
 137	1	2	-0.003466	-9.93498	6.27502	-2.09411
 138	1	2	0.0629	-9.46759	8.36872	-4.27724
 139	1	2	0.058439	-10.9473	8.15707	-3.31622
 140	1	2	0.076366	-10.4449	6.89679	-4.45383
 141	1	2	0.061036	-8.44524	7.5714	-0.670658
 142	1	2	0.060061	-9.65512	8.67203	-1.31726
 143	1	2	0.042474	-8.02236	8.6696	-2.01261
 144	1	2	-0.019174	-6.67253	4.57333	-2.95554
 145	1	1	-0.06457	-5.99629	6.16094	-1.73364
 146	1	1	0.061186	-4.88645	5.46766	-0.883248
 147	1	2	0.013749	-6.38607	7.00079	-1.15679
 148	1	2	0.012175	-5.49451	6.62598	-2.59213
 149	1	1	-0.029522	-4.32711	4.14436	-1.48896
 150	1	1	0.182537	-3.67008	4.26108	-2.89124
 151	1	2	0.017614	-5.13035	3.39854	-1.53221
 152	1	2	0.005524	-3.57949	3.7283	-0.802067
 153	1	1	-0.245806	-2.44389	5.20263	-2.90077
 154	1	1	-0.291525	-3.25074	2.86128	-3.38731
 155	1	2	-0.003466	-4.40677	4.65447	-3.602
 156	1	2	0.0629	-4.11098	2.18154	-3.4034
 157	1	2	0.058439	-2.48466	2.42524	-2.73324
 158	1	2	0.076366	-2.84306	2.91326	-4.40451
 159	1	2	0.061036	-2.73404	6.24035	-2.69894
 160	1	2	0.060061	-1.95342	5.18807	-3.88205
 161	1	2	0.042474	-1.70646	4.89709	-2.14746
 162	1	2	-0.019174	-4.06598	6.18976	-0.894303
 163	1	1	-0.06457	-5.28299	5.27301	0.616772
 164	1	1	0.061186	-4.31726	5.92822	1.65411
 165	1	2	0.013749	-6.2994	5.64122	0.792267
 166	1	2	0.012175	-5.34206	4.19959	0.840104
 167	1	1	-0.029522	-4.34828	7.49145	1.61066
 168	1	1	0.182537	-5.73928	8.1651	1.78372
 169	1	2	0.017614	-3.90612	7.83611	0.667815
 170	1	2	0.005524	-3.7081	7.8892	2.40486
 171	1	1	-0.245806	-6.42802	7.77823	3.11151
 172	1	1	-0.291525	-5.60008	9.69959	1.69777
 173	1	2	-0.003466	-6.39523	7.86239	0.961379
 174	1	2	0.0629	-5.15238	9.99707	0.741184
 175	1	2	0.058439	-4.96635	10.0841	2.50711
 176	1	2	0.076366	-6.5818	10.1837	1.77331
 177	1	2	0.061036	-5.78888	8.02028	3.97009
 178	1	2	0.060061	-6.65823	6.70686	3.14414
 179	1	2	0.042474	-7.37512	8.31968	3.22858
 180	1	2	-0.019174	-4.68272	5.62158	2.63965
 181	1	1	-0.06457	-2.87085	5.35519	1.49812
 182	1	1	0.061186	-1.83194	5.74986	2.59107
 183	1	2	0.013749	-2.9245	4.25987	1.46028
 184	1	2	0.012175	-2.47751	5.66499	0.524263
 185	1	1	-0.029522	-2.12088	5.02361	3.9386
 186	1	1	0.182537	-1.34852	5.57334	5.17172
 187	1	2	0.017614	-1.89504	3.95804	3.81716
 188	1	2	0.005524	-3.19112	5.0769	4.16814
 189	1	1	-0.245806	-1.56253	4.65074	6.38993
 190	1	1	-0.291525	-1.75731	7.01834	5.53747
 191	1	2	-0.003466	-0.276417	5.57748	4.95553
 192	1	2	0.0629	-2.84076	7.09309	5.69459
 193	1	2	0.058439	-1.47218	7.72809	4.7524
 194	1	2	0.076366	-1.25741	7.33876	6.46002
 195	1	2	0.061036	-0.987541	5.00705	7.25382
 196	1	2	0.060061	-1.23197	3.62847	6.16717
 197	1	2	0.042474	-2.62175	4.61425	6.67482
 198	1	2	-0.019174	-1.92445	6.81933	2.78226
 199	1	1	-0.06457	-0.378734	5.49709	2.0687
 200	1	1	0.061186	0.387447	6.8027	1.67623
 201	1	2	0.013749	0.179944	4.95521	2.83601
 202	1	2	0.012175	-0.397624	4.81793	1.20692
 203	1	1	-0.029522	-0.355371	7.55662	0.525754
 204	1	1	0.182537	0.280925	8.88612	0.0339163
 205	1	2	0.017614	-1.37995	7.78658	0.836565
 206	1	2	0.005524	-0.443409	6.87686	-0.332316
 207	1	1	-0.245806	0.404415	9.9352	1.16109
 208	1	1	-0.291525	-0.548509	9.46868	-1.13036
 209	1	2	-0.003466	1.28421	8.68267	-0.359847
 210	1	2	0.0629	-1.56844	9.71116	-0.80566
 211	1	2	0.058439	-0.614681	8.75129	-1.95819
 212	1	2	0.076366	-0.085754	10.3851	-1.51732
 213	1	2	0.061036	-0.574815	10.1462	1.6092
 214	1	2	0.060061	0.809735	10.8766	0.769735
 215	1	2	0.042474	1.07905	9.59225	1.95433
 216	1	2	-0.019174	0.377306	7.45059	2.56115
 217	1	1	-0.06457	1.88434	6.56582	1.28893
 218	1	1	0.061186	2.73527	5.57843	2.14927
 219	1	2	0.013749	1.90404	6.23207	0.2476
 220	1	2	0.012175	2.39392	7.53725	1.30048
 221	1	1	-0.029522	2.70592	5.95611	3.6644
 222	1	1	0.182537	3.18617	4.84679	4.6475
 223	1	2	0.017614	1.69666	6.24655	3.96798
 224	1	2	0.005524	3.32005	6.85511	3.80746
 225	1	1	-0.245806	2.30091	3.57703	4.62242
 226	1	1	-0.291525	3.23111	5.4032	6.08637
 227	1	2	-0.003466	4.20753	4.54748	4.3855
 228	1	2	0.0629	3.61082	4.64735	6.7852
 229	1	2	0.058439	2.23107	5.7068	6.42202
 230	1	2	0.076366	3.89198	6.27696	6.14623
 231	1	2	0.061036	2.66584	2.84204	5.35066
 232	1	2	0.060061	2.30827	3.08929	3.64222
 233	1	2	0.042474	1.26164	3.81259	4.8775
 234	1	2	-0.019174	2.28831	4.58776	2.02716
 235	1	1	-0.06457	4.21424	5.53086	1.62856
 236	1	1	0.061186	4.58	4.40672	0.612564
 237	1	2	0.013749	4.48152	6.50328	1.19486
 238	1	2	0.012175	4.90081	5.42051	2.47582
 239	1	1	-0.029522	3.83989	4.59209	-0.747571
 240	1	1	0.182537	4.31065	3.70024	-1.92952
 241	1	2	0.017614	3.92225	5.64252	-1.05622
 242	1	2	0.005524	2.77215	4.39634	-0.590378
 243	1	1	-0.245806	5.76939	3.98941	-2.35248
 244	1	1	-0.291525	3.37817	3.89412	-3.14398
 245	1	2	-0.003466	4.22943	2.64723	-1.63715
 246	1	2	0.0629	3.67793	3.24024	-3.97254
 247	1	2	0.058439	3.40538	4.93184	-3.50007
 248	1	2	0.076366	2.3411	3.64874	-2.88247
 249	1	2	0.061036	6.05634	3.35708	-3.20196
 250	1	2	0.060061	6.47692	3.78669	-1.54128
 251	1	2	0.042474	5.88916	5.03769	-2.65386
 252	1	2	-0.019174	5.65453	4.52528	0.432551
 253	1	1	-0.06457	4.33731	2.99977	1.23273
 254	1	1	0.061186	5.41736	1.92508	0.918245
 255	1	2	0.013749	4.26548	3.08062	2.32378
 256	1	2	0.012175	3.35387	2.65227	0.890599
 257	1	1	-0.029522	6.6824	2.0922	1.81213
 258	1	1	0.182537	7.93542	1.27931	1.37081
 259	1	2	0.017614	6.43227	1.83365	2.84529
 260	1	2	0.005524	6.9624	3.15294	1.83952
 261	1	1	-0.245806	9.02569	1.35191	2.46037
 262	1	1	-0.291525	8.51648	1.75913	0.0220802
 263	1	2	-0.003466	7.67002	0.224056	1.25488
 264	1	2	0.0629	7.80687	1.60509	-0.79874
 265	1	2	0.058439	9.42657	1.19852	-0.226578
 266	1	2	0.076366	8.77342	2.82505	0.0611181
 267	1	2	0.061036	9.90496	0.764011	2.17134
 268	1	2	0.060061	8.65346	0.950316	3.4113
 269	1	2	0.042474	9.34758	2.38763	2.62726
 270	1	2	-0.019174	5.74483	2.09456	-0.108973
 271	1	1	-0.06457	4.80147	0.493121	0.91726
 272	1	1	0.061186	3.83276	0.0874837	2.07708
 273	1	2	0.013749	5.57885	-0.266831	0.792164
 274	1	2	0.012175	4.22163	0.439787	-0.0110162
 275	1	1	-0.029522	4.50328	-0.203964	3.45444
 276	1	1	0.182537	5.70502	-1.19177	3.51111
 277	1	2	0.017614	3.72819	-0.557677	4.14695
 278	1	2	0.005524	4.82653	0.754885	3.87556
 279	1	1	-0.245806	5.35398	-2.6251	3.06007
 280	1	1	-0.291525	6.27803	-1.23057	4.94366
 281	1	2	-0.003466	6.50322	-0.821935	2.86193
 282	1	2	0.0629	5.53467	-1.61416	5.65409
 283	1	2	0.058439	6.57928	-0.227537	5.27104
 284	1	2	0.076366	7.1631	-1.87653	4.99368
 285	1	2	0.061036	6.17644	-3.31692	3.27402
 286	1	2	0.060061	5.18377	-2.66059	1.98165
 287	1	2	0.042474	4.45845	-2.99636	3.57385
 288	1	2	-0.019174	3.17765	0.934963	2.28298
 289	1	1	-0.06457	2.90336	-1.06572	1.59386
 290	1	1	0.061186	1.63014	-0.598538	0.829032
 291	1	2	0.013749	3.49662	-1.68797	0.917334
 292	1	2	0.012175	2.60079	-1.69414	2.44001
 293	1	1	-0.029522	0.567791	0.0260954	1.79346
 294	1	1	0.182537	-0.633519	0.759318	1.12933
 295	1	2	0.017614	1.05972	0.753617	2.44775
 296	1	2	0.005524	0.181981	-0.739206	2.47303
 297	1	1	-0.245806	-0.193148	1.88988	0.170336
 298	1	1	-0.291525	-1.55039	1.34333	2.22293
 299	1	2	-0.003466	-1.23307	0.0389757	0.560382
 300	1	2	0.0629	-1.94199	0.548005	2.86934
 301	1	2	0.058439	-2.40462	1.86718	1.77892
 302	1	2	0.076366	-0.999913	2.05491	2.84966
 303	1	2	0.061036	0.313062	1.4865	-0.714612
 304	1	2	0.060061	0.49126	2.58566	0.671875
 305	1	2	0.042474	-1.06097	2.4605	-0.184398
 306	1	2	-0.019174	1.96377	0.219988	0.181845
 307	1	1	-0.06457	1.0644	-1.67504	-0.162311
 308	1	1	0.061186	0.864788	-3.17321	0.273968
 309	1	2	0.013749	0.0983985	-1.32122	-0.537425
 310	1	2	0.012175	1.69319	-1.64146	-1.05548
 311	1	1	-0.029522	0.00509675	-3.29057	1.5665
 312	1	1	0.182537	-0.52124	-4.7065	1.93675
 313	1	2	0.017614	-0.861194	-2.62348	1.46647
 314	1	2	0.005524	0.592536	-2.92414	2.41604
 315	1	1	-0.245806	-1.33796	-5.36336	0.802894
 316	1	1	-0.291525	-1.37798	-4.62887	3.21765
 317	1	2	-0.003466	0.328868	-5.35958	2.16605
 318	1	2	0.0629	-2.24444	-3.97281	3.0714
 319	1	2	0.058439	-0.790002	-4.23453	4.05579
 320	1	2	0.076366	-1.74515	-5.62283	3.5026
 321	1	2	0.061036	-0.710719	-5.57952	-0.0691042
 322	1	2	0.060061	-2.16093	-4.71113	0.484978
 323	1	2	0.042474	-1.76374	-6.31742	1.13731
 324	1	2	-0.019174	0.264473	-3.59978	-0.537021
 325	1	1	-0.06457	2.16357	-4.04706	0.349075
 326	1	1	0.061186	2.95704	-4.19357	-0.987323
 327	1	2	0.013749	2.8109	-3.68216	1.14928
 328	1	2	0.012175	1.90493	-5.06099	0.673544
 329	1	1	-0.029522	2.28221	-5.27967	-1.88864
 330	1	1	0.182537	2.21616	-4.98107	-3.41202
 331	1	2	0.017614	1.25225	-5.45116	-1.55297
 332	1	2	0.005524	2.79332	-6.23815	-1.72916
 333	1	1	-0.245806	1.33003	-3.75621	-3.73612
 334	1	1	-0.291525	1.68301	-6.21545	-4.1695
 335	1	2	-0.003466	3.22308	-4.78753	-3.79273
 336	1	2	0.0629	2.32322	-7.08859	-3.99084
 337	1	2	0.058439	1.66376	-6.03045	-5.25086
 338	1	2	0.076366	0.664236	-6.46579	-3.84744
 339	1	2	0.061036	1.74523	-2.8329	-3.31755
 340	1	2	0.060061	0.316448	-3.88824	-3.33682
 341	1	2	0.042474	1.25057	-3.61372	-4.82112
 342	1	2	-0.019174	2.94833	-3.23283	-1.49747
 343	1	1	-0.06457	4.44997	-4.51263	-0.676814
 344	1	1	0.061186	5.42999	-4.54242	-1.89225
 345	1	2	0.013749	4.8258	-3.78049	0.0441555
 346	1	2	0.012175	4.47921	-5.47479	-0.152739
 347	1	1	-0.029522	5.44878	-3.22024	-2.72816
 348	1	1	0.182537	5.94128	-1.92576	-2.012
 349	1	2	0.017614	4.44123	-3.04042	-3.11509
 350	1	2	0.005524	6.05596	-3.38158	-3.62861
 351	1	1	-0.245806	5.13208	-0.700726	-2.49195
 352	1	1	-0.291525	7.44117	-1.64975	-2.26093
 353	1	2	-0.003466	5.7855	-2.01812	-0.931648
 354	1	2	0.0629	8.07009	-2.48877	-1.95145
 355	1	2	0.058439	7.76999	-0.767188	-1.69887
 356	1	2	0.076366	7.63281	-1.46313	-3.32512
 357	1	2	0.061036	4.07167	-0.807193	-2.23051
 358	1	2	0.060061	5.20659	-0.582769	-3.58039
 359	1	2	0.042474	5.50421	0.220949	-2.02789
 360	1	2	-0.019174	5.07545	-5.31412	-2.58317
 361	1	1	-0.06457	6.86921	-4.95285	-1.46266
 362	1	1	0.061186	7.0504	-6.31881	-0.729055
 363	1	2	0.013749	7.5083	-4.95015	-2.35571
 364	1	2	0.012175	7.24849	-4.17182	-0.795552
 365	1	1	-0.029522	6.27976	-7.48061	-1.43518
 366	1	1	0.182537	6.37968	-8.88221	-0.76888
 367	1	2	0.017614	6.63373	-7.55677	-2.47171
 368	1	2	0.005524	5.21422	-7.23362	-1.49413
 369	1	1	-0.245806	5.57293	-9.91616	-1.58263
 370	1	1	-0.291525	5.88852	-8.87915	0.696615
 371	1	2	-0.003466	7.42488	-9.21399	-0.781306
 372	1	2	0.0629	5.90845	-9.89365	1.11393
 373	1	2	0.058439	4.85963	-8.50345	0.764787
 374	1	2	0.076366	6.5266	-8.25273	1.33094
 375	1	2	0.061036	5.67142	-10.9177	-1.1454
 376	1	2	0.060061	5.9343	-9.96501	-2.61744
 377	1	2	0.042474	4.50679	-9.65642	-1.60397
 378	1	2	-0.019174	6.62809	-6.20473	0.275209
 379	1	1	-0.06457	8.56424	-6.67616	-0.58127
 380	1	1	0.061186	9.53291	-5.56902	-0.0515596
 381	1	2	0.013749	8.66316	-7.5447	0.0807995
 382	1	2	0.012175	8.90578	-7.00546	-1.56809
 383	1	1	-0.029522	9.13421	-5.10426	1.38521
 384	1	1	0.182537	9.81395	-3.79582	1.88795
 385	1	2	0.017614	9.35786	-5.91991	2.08528
 386	1	2	0.005524	8.05109	-4.94942	1.44435
 387	1	1	-0.245806	9.54871	-3.59312	3.39406
 388	1	1	-0.291525	9.34269	-2.5473	1.10909
 389	1	2	-0.003466	10.8992	-3.87425	1.77102
 390	1	2	0.0629	8.25323	-2.43058	1.17139
 391	1	2	0.058439	9.62233	-2.60632	0.0525315
 392	1	2	0.076366	9.806	-1.64108	1.51746
 393	1	2	0.061036	10.0427	-2.68333	3.75799
 394	1	2	0.060061	9.93614	-4.43951	3.97479
 395	1	2	0.042474	8.47585	-3.50383	3.59676
 396	1	2	-0.019174	9.46037	-4.70606	-0.715836
 397	1	1	-0.06457	11.0073	-6.09211	-0.077381
 398	1	1	0.061186	11.6734	-6.27791	-1.48188
 399	1	2	0.013749	11.6395	-5.45706	0.538538
 400	1	2	0.012175	11.0169	-7.06083	0.43926
 401	1	1	-0.029522	12.9859	-7.10808	-1.35784
 402	1	1	0.182537	13.6385	-7.55991	-2.69754
 403	1	2	0.017614	12.7723	-8.00967	-0.768806
 404	1	2	0.005524	13.7193	-6.5392	-0.772846
 405	1	1	-0.245806	12.6951	-8.41625	-3.5725
 406	1	1	-0.291525	14.9349	-8.34785	-2.41431
 407	1	2	-0.003466	13.9188	-6.67547	-3.28092
 408	1	2	0.0629	15.6372	-7.74514	-1.82491
 409	1	2	0.058439	15.4351	-8.62522	-3.35076
 410	1	2	0.076366	14.7212	-9.26838	-1.85628
 411	1	2	0.061036	12.3187	-9.28304	-3.01506
 412	1	2	0.060061	13.2221	-8.78575	-4.46111
 413	1	2	0.042474	11.8371	-7.83209	-3.92559
 414	1	2	-0.019174	10.9833	-6.91122	-2.04497
 415	1	1	-0.06457	11.8259	-4.97119	-2.3342
 416	1	1	0.061186	13.0672	-4.03821	-2.11196
 417	1	2	0.013749	11.8563	-5.29325	-3.38287
 418	1	2	0.012175	10.9053	-4.39429	-2.26074
 419	1	1	-0.029522	13.1925	-2.96674	-3.24522
 420	1	1	0.182537	12.3679	-1.64528	-3.14083
 421	1	2	0.017614	12.9729	-3.44374	-4.20925
 422	1	2	0.005524	14.2517	-2.68496	-3.30861
 423	1	1	-0.245806	10.8403	-1.84334	-3.08992
 424	1	1	-0.291525	12.721	-0.719132	-4.32457
 425	1	2	-0.003466	12.6531	-1.11129	-2.22925
 426	1	2	0.0629	12.2025	0.243874	-4.23494
 427	1	2	0.058439	12.432	-1.17456	-5.28032
 428	1	2	0.076366	13.7987	-0.515407	-4.35377
 429	1	2	0.061036	10.5354	-2.26431	-2.1272
 430	1	2	0.060061	10.4958	-2.50285	-3.89616
 431	1	2	0.042474	10.3214	-0.881852	-3.19157
 432	1	2	-0.019174	13.9507	-4.67218	-2.24422
 433	1	1	-0.06457	13.1943	-3.4525	-0.677437
 434	1	1	0.061186	14.461	-2.58671	-0.446868
 435	1	2	0.013749	12.2898	-2.88543	-0.427148
 436	1	2	0.012175	13.2676	-4.27984	0.0313017
 437	1	1	-0.029522	14.7136	-2.24154	1.04286
 438	1	1	0.182537	13.5386	-1.54578	1.78492
 439	1	2	0.017614	15.6048	-1.60333	1.10228
 440	1	2	0.005524	14.966	-3.16822	1.57474
 441	1	1	-0.245806	13.0812	-0.241034	1.09611
 442	1	1	-0.291525	13.9291	-1.25461	3.24876
 443	1	2	-0.003466	12.6845	-2.23266	1.81063
 444	1	2	0.0629	14.2263	-2.17663	3.76404
 445	1	2	0.058439	13.0839	-0.820731	3.7978
 446	1	2	0.076366	14.7677	-0.548534	3.29898
 447	1	2	0.061036	12.6681	-0.43879	0.100637
 448	1	2	0.060061	13.9167	0.462255	0.99063
 449	1	2	0.042474	12.2956	0.250214	1.68316
 450	1	2	-0.019174	15.3365	-3.1332	-0.820642
 451	1	2	0	-13.6408	-3.88512	0.780644
 452	1	2	0	14.4142	-1.65942	-1.02676

Velocities

   1	2.84225e-05	-2.98799e-05	-0.000124145
   2	3.97795e-05	-1.34891e-05	-1.49547e-05
   3	2.24809e-05	-4.06464e-05	-0.000164203
   4	-2.70902e-05	-7.90575e-05	-0.000135154
   5	6.03251e-05	-2.97413e-06	2.73996e-06
   6	7.34007e-05	1.35051e-05	-7.79839e-06
   7	6.82308e-05	-1.57956e-05	1.86142e-05
   8	5.42944e-05	-9.4923e-06	-1.0342e-06
   9	4.05718e-05	-6.48166e-05	1.07176e-05
  10	0.000153749	3.11495e-05	-4.02321e-05
  11	4.46277e-05	7.42831e-05	1.37183e-05
  12	0.000183548	-2.05306e-05	-6.00365e-05
  13	0.000181129	7.72211e-05	-4.39577e-05
  14	0.000155271	4.78314e-05	-3.55632e-05
  15	-2.54577e-05	-7.41508e-05	4.54781e-05
  16	7.12733e-05	-0.000132898	-1.27298e-05
  17	5.34898e-05	-5.94135e-05	2.58559e-06
  18	9.03998e-05	1.70646e-05	-9.11219e-07
  19	-1.63902e-05	-2.56679e-05	4.47529e-05
  20	8.89927e-07	-2.08402e-05	4.23888e-05
  21	-2.21976e-05	-1.15068e-05	9.65082e-05
  22	-6.77076e-05	-6.66969e-05	2.52459e-05
  23	3.07251e-05	-2.16446e-06	3.24526e-05
  24	7.35024e-05	5.41019e-05	4.4623e-05
  25	5.7774e-05	-3.02595e-05	-8.11754e-06
  26	1.93075e-07	-1.73069e-05	4.4873e-05
  27	0.000106405	8.60735e-05	2.45933e-05
  28	7.62975e-05	7.41763e-05	0.000108249
  29	8.58684e-05	6.26394e-05	1.94263e-05
  30	6.53684e-05	4.02919e-05	0.000116747
  31	9.60539e-05	0.000118122	0.000113328
  32	7.54429e-05	6.9884e-05	0.000148482
  33	9.85053e-05	8.32629e-05	4.32124e-05
  34	0.000131442	0.000117504	3.097e-05
  35	0.000109207	7.39722e-05	-1.64612e-05
  36	2.41916e-06	-1.65102e-05	6.25427e-05
  37	-8.15042e-06	-1.12352e-05	3.85827e-05
  38	-7.31861e-06	-2.51591e-05	2.07111e-05
  39	-1.17091e-05	-1.80467e-05	3.58241e-05
  40	-1.4675e-05	-1.9617e-05	4.11025e-05
  41	-2.73048e-05	-4.52845e-05	-2.5579e-06
  42	-1.42006e-05	-2.38514e-05	1.81954e-06
  43	-3.32926e-05	-7.43592e-05	-4.29745e-05
  44	-6.7279e-05	-5.76436e-05	2.98441e-05
  45	0.000201492	-7.18455e-06	-0.000177809
  46	-0.00019686	-0.000228218	3.90347e-05
  47	-3.45186e-05	0.000146588	0.000136205
  48	-0.000228715	-0.000237644	5.69888e-05
  49	-0.0001503	-0.000410768	-5.03395e-05
  50	-0.000353332	-0.00020917	0.000148266
  51	0.000145731	4.76366e-06	-0.000129488
  52	0.000337249	0.000196395	-0.000247114
  53	0.000286284	-0.00021902	-0.000309968
  54	2.39082e-05	-3.5223e-05	2.11774e-05
  55	-1.17536e-05	-2.12415e-06	3.77676e-05
  56	-1.3456e-05	-2.50748e-05	2.67366e-06
  57	1.89274e-05	2.54147e-05	7.29349e-05
  58	-6.04599e-05	6.69589e-06	4.98269e-05
  59	1.79109e-05	-1.42141e-05	-1.73192e-05
  60	6.07155e-05	-6.58392e-05	-4.73731e-05
  61	3.26132e-05	3.2124e-05	-3.41684e-05
  62	-1.10376e-05	-1.60246e-05	2.73118e-06
  63	3.68957e-05	-0.000137212	-3.77037e-05
  64	9.62588e-05	-5.36188e-05	-7.01127e-05
  65	8.75005e-05	-5.86581e-05	-6.14139e-05
  66	0.000115442	-4.18141e-06	-8.12439e-05
  67	0.000129162	-8.88637e-05	-9.69306e-05
  68	7.28268e-05	-5.69016e-05	-5.60122e-05
  69	-3.85284e-06	-0.000162098	-3.03659e-05
  70	8.26973e-05	-0.000175467	-3.95277e-05
  71	1.34133e-05	-0.000127501	-3.53614e-05
  72	-2.95662e-05	-4.13855e-05	-6.97927e-06
  73	-2.27131e-05	-2.65202e-05	6.77803e-06
  74	-3.4931e-05	-8.23637e-06	9.46325e-06
  75	-1.39334e-05	-3.95424e-05	3.38227e-06
  76	-3.98995e-05	-3.4411e-05	1.01359e-05
  77	-2.40437e-05	1.01058e-05	-7.15099e-06
  78	-2.53126e-05	3.96164e-05	2.79848e-06
  79	-1.93502e-05	7.38865e-06	-2.11575e-05
  80	-2.3706e-05	6.1977e-06	-1.15853e-05
  81	-5.71718e-05	7.37136e-05	1.82716e-05
  82	1.79146e-05	6.35604e-05	-1.92436e-06
  83	-3.23866e-05	2.37864e-05	-1.09307e-06
  84	4.22867e-05	4.14317e-05	-1.44165e-05
  85	2.80056e-05	8.42981e-05	1.59534e-06
  86	1.81618e-05	8.67736e-05	4.05155e-06
  87	-9.4459e-05	6.38477e-05	2.92054e-06
  88	-4.44761e-05	8.37337e-05	2.66723e-05
  89	-6.12429e-05	9.98711e-05	3.59756e-05
  90	-3.82496e-05	-4.90382e-06	9.16865e-06
  91	-4.06187e-05	-6.27062e-06	2.15866e-05
  92	-1.91611e-05	1.00018e-05	2.08473e-05
  93	-5.48149e-05	-3.0608e-06	3.66281e-05
  94	-4.9179e-05	-1.55075e-05	9.81557e-06
  95	4.80951e-07	2.33227e-05	6.74327e-06
  96	3.30836e-05	-4.17711e-05	-2.91644e-05
  97	2.2509e-05	7.11553e-05	-1.33036e-05
  98	-3.2432e-05	3.25673e-05	3.70176e-05
  99	-4.26544e-05	-9.33964e-05	-1.07214e-05
 100	0.000103753	1.63083e-05	-4.55489e-05
 101	6.98203e-05	-9.57531e-05	-6.23157e-05
 102	0.000125403	-4.2531e-05	-8.59783e-05
 103	0.000173015	6.43304e-05	-6.70287e-05
 104	6.88124e-05	6.9241e-05	9.10671e-07
 105	-9.35859e-05	-0.000140144	-1.82948e-06
 106	-1.56476e-05	-0.000141641	-3.9084e-05
 107	-7.91743e-05	-4.19425e-05	2.3884e-05
 108	-2.50207e-05	2.72549e-05	2.79123e-05
 109	1.27738e-06	4.15126e-06	1.06258e-05
 110	1.51862e-05	3.19276e-05	-1.72392e-05
 111	1.49261e-05	-1.99878e-05	9.21851e-06
 112	-1.6876e-05	-8.47433e-07	2.4641e-05
 113	5.37953e-06	7.03955e-05	-9.06516e-06
 114	1.47234e-05	9.29542e-05	-3.0872e-05
 115	-1.70564e-06	7.67226e-05	1.31737e-06
 116	-3.37944e-06	7.09236e-05	6.52709e-06
 117	1.54838e-05	7.46725e-05	-3.66195e-05
 118	1.24851e-05	0.000125795	-1.82251e-05
 119	2.00548e-05	9.6554e-05	-5.42716e-05
 120	1.22498e-05	0.000130437	-1.68617e-05
 121	1.53066e-06	0.000128744	-6.18129e-07
 122	2.10034e-05	0.000143486	-3.05667e-05
 123	1.81386e-05	4.63971e-05	-5.1489e-05
 124	1.98413e-05	9.25264e-05	-5.46526e-05
 125	1.01749e-05	6.92365e-05	-9.20397e-06
 126	2.88664e-05	3.36199e-05	-2.90893e-05
 127	2.70252e-05	2.41301e-05	-2.97658e-05
 128	4.28947e-05	2.97313e-06	-3.16144e-05
 129	3.3929e-05	3.56866e-05	-3.78722e-05
 130	1.53624e-05	1.84899e-05	-2.22785e-05
 131	6.89315e-05	1.54267e-05	-4.59566e-05
 132	7.67706e-05	4.34554e-05	-6.62466e-05
 133	6.33955e-05	2.03395e-05	-4.7135e-05
 134	9.16062e-05	-2.18421e-06	-4.28706e-05
 135	6.61842e-05	-1.01734e-05	-2.97009e-06
 136	0.000153775	0.000117248	-7.84327e-05
 137	2.91471e-05	4.77421e-05	-0.000123323
 138	0.000207321	0.000116037	-2.14632e-05
 139	0.000155532	0.000135593	-9.95064e-05
 140	0.000159507	0.000159335	-0.000124932
 141	2.43119e-05	-5.82404e-05	-1.0569e-05
 142	6.96404e-05	-6.34509e-06	-2.56133e-06
 143	9.33825e-05	-5.91104e-06	5.62496e-05
 144	3.70083e-05	-9.72301e-06	-2.43898e-05
 145	4.83604e-05	-1.13335e-05	-2.06675e-05
 146	3.12781e-05	-3.09132e-05	-1.49277e-05
 147	5.38912e-05	-1.11483e-05	-1.78548e-05
 148	6.08526e-05	-1.14452e-05	-1.3179e-05
 149	1.34767e-05	-3.72124e-05	-1.61853e-05
 150	3.71764e-05	-3.13993e-05	-3.73727e-06
 151	-1.80214e-06	-1.92559e-05	-3.64806e-05
 152	-6.19941e-06	-6.20001e-05	-9.06641e-06
 153	0.000108593	-0.000123552	5.28059e-05
 154	-6.4186e-05	-4.2236e-05	-5.75766e-05
 155	7.60628e-05	5.35193e-05	2.8903e-06
 156	-0.000119445	2.9048e-05	-9.7427e-05
 157	-0.000108402	-0.000133981	-6.74326e-05
 158	-4.84977e-05	-3.12678e-05	-5.11616e-05
 159	0.000189423	-0.000112443	0.0001088
 160	0.000113029	-0.000108888	5.49703e-05
 161	8.06712e-05	-0.000223079	4.04972e-05
 162	4.16105e-05	-4.32173e-05	-1.04101e-05
 163	1.79903e-05	-3.17238e-05	-1.85632e-05
 164	1.71527e-06	-1.98882e-05	-1.25959e-05
 165	1.26464e-05	-4.29065e-05	-2.78428e-05
 166	2.79745e-05	-3.189e-05	-1.63404e-05
 167	-1.91245e-05	-2.04271e-05	-1.88156e-05
 168	-2.90238e-05	-3.93017e-05	-1.85582e-05
 169	-2.66663e-05	-1.92559e-05	-2.20917e-05
 170	-2.11276e-05	-9.06515e-06	-2.28597e-05
 171	-9.66318e-06	-2.47727e-05	-4.7202e-06
 172	-5.57727e-05	-3.8986e-05	-4.94884e-05
 173	-3.40447e-05	-6.41009e-05	-5.41366e-06
 174	-7.30459e-05	-5.01637e-05	-6.10746e-05
 175	-5.1993e-05	-1.37617e-05	-6.48453e-05
 176	-6.32908e-05	-5.44369e-05	-4.6239e-05
 177	-4.52545e-06	3.22272e-06	-1.6463e-05
 178	8.29798e-06	-2.80768e-05	1.87466e-05
 179	-1.74788e-05	-3.78606e-05	-5.48336e-06
 180	-9.19699e-10	-2.28401e-05	-1.43917e-05
 181	7.4568e-06	-6.49222e-06	-6.59971e-06
 182	-1.81668e-06	-3.65179e-06	2.72866e-07
 183	1.87839e-05	-7.39422e-06	-1.35039e-05
 184	1.31256e-05	2.87594e-06	-1.23214e-06
 185	1.22935e-06	-1.05341e-05	-3.85749e-06
 186	1.3359e-05	-1.65496e-05	-8.47958e-06
 187	-1.61409e-06	-9.82007e-06	-1.29352e-05
 188	2.58093e-06	-8.58278e-06	2.5822e-06
 189	7.85588e-05	-5.49618e-05	-2.65156e-05
 190	-2.8563e-05	-4.08875e-05	3.82255e-05
 191	7.19694e-06	2.87403e-05	-3.53589e-05
 192	-2.30011e-05	-9.24043e-05	0.000100812
 193	-0.000105039	-1.39081e-05	3.51539e-05
 194	9.24373e-06	-3.66477e-05	1.6167e-05
 195	9.52441e-05	-6.04796e-05	-3.5452e-05
 196	0.00010388	-3.89807e-05	-6.44911e-05
 197	8.90433e-05	-9.60616e-05	5.56664e-06
 198	-1.16856e-05	-5.36529e-06	6.65232e-06
 199	-8.27745e-08	4.16414e-06	1.31103e-06
 200	2.69798e-06	1.02419e-05	3.14291e-05
 201	-2.35213e-06	-1.11456e-05	-7.71079e-06
 202	4.84234e-06	2.08085e-05	-1.28706e-05
 203	1.72205e-06	4.69741e-05	5.58546e-05
 204	-1.18612e-05	7.67976e-05	0.000118174
 205	-4.93783e-06	2.05779e-05	5.20949e-05
 206	1.8719e-05	8.25544e-05	2.66677e-05
 207	-1.09292e-05	2.5719e-05	0.00016664
 208	-2.23129e-05	0.000125287	0.000149638
 209	-1.21606e-05	0.000102753	0.000105084
 210	-2.17753e-05	0.000104698	0.000167152
 211	-2.33077e-05	0.00016397	0.000117131
 212	-2.9531e-05	0.000146045	0.00019053
 213	-5.44493e-06	-8.76967e-06	0.00019539
 214	-3.08039e-05	5.11702e-05	0.000207567
 215	8.40279e-06	-1.58785e-06	0.00013878
 216	1.12438e-05	-1.55797e-05	5.0346e-05
 217	-2.68346e-06	6.66265e-06	1.46229e-05
 218	-2.4999e-06	-1.03672e-05	-4.59555e-06
 219	-1.23422e-05	1.748e-05	1.02597e-05
 220	3.04144e-06	3.59899e-06	2.19155e-05
 221	2.62514e-05	-2.68788e-05	-5.08871e-07
 222	3.86893e-05	-4.32633e-05	-2.48979e-05
 223	3.31418e-05	-2.5568e-05	2.14844e-05
 224	3.46852e-05	-3.26028e-05	-2.04903e-06