pySIMM System Object

308 atoms
307 bonds
612 angles
909 dihedrals
0 impropers

2 atom types
2 bond types
3 angle types
3 dihedral types

-82.385262 82.385262 xlo xhi
-82.385262 82.385262 ylo yhi
-82.385262 82.385262 zlo zhi

Masses

   1	12.01	# c3
   2	1.008	# hc

Pair Coeffs

   1	0.1094	3.3996695084235347	# c3
   2	0.0157	2.649532787749369	# hc

Bond Coeffs

   1	330.6	1.0969	# c3,hc
   2	300.9	1.5375	# c3,c3

Angle Coeffs

   1	46.34	109.8	# c3,c3,hc
   2	39.4	107.58	# hc,c3,hc
   3	62.86	111.51	# c3,c3,c3

Dihedral Coeffs

   1	1	0.16	3	0	# hc,c3,c3,c3
   2	1	0.15	3	0	# hc,c3,c3,hc
   3	3	0.18	3	0	0.25	2	180	0.2	1	180	# c3,c3,c3,c3

Atoms

   1	1	1	-0.06457	3.69221	-11.039	-0.971083
   2	1	1	0.061186	3.57496	-9.93932	-2.05832
   3	1	2	0.013749	2.7854	-11.0977	-0.358409
   4	1	2	0.012175	3.85829	-12.024	-1.42563
   5	1	1	-0.029522	4.86668	-9.84702	-2.9218
   6	1	1	0.182537	6.15303	-9.38727	-2.17869
   7	1	2	0.017614	4.69007	-9.15378	-3.75482
   8	1	2	0.005524	5.05036	-10.8287	-3.37858
   9	1	1	-0.245806	6.03717	-7.94704	-1.62864
  10	1	1	-0.291525	7.37279	-9.4832	-3.11953
  11	1	2	-0.003466	6.34577	-10.0619	-1.33635
  12	1	2	0.0629	7.25183	-8.82703	-3.99068
  13	1	2	0.058439	7.50618	-10.5109	-3.48016
  14	1	2	0.076366	8.29156	-9.19085	-2.59581
  15	1	2	0.061036	5.26508	-7.87359	-0.854054
  16	1	2	0.060061	5.79005	-7.24108	-2.43089
  17	1	2	0.042474	6.98392	-7.62758	-1.17544
  18	1	2	-0.019174	3.44185	-8.97751	-1.55569
  19	1	1	-0.06457	2.34667	-10.1703	-2.9875
  20	1	1	0.061186	0.938629	-10.2283	-2.30803
  21	1	2	0.013749	2.34645	-9.40633	-3.77105
  22	1	2	0.012175	2.5135	-11.118	-3.51437
  23	1	1	-0.029522	-0.222316	-10.336	-3.34304
  24	1	1	0.182537	-0.144149	-11.5212	-4.34749
  25	1	2	0.017614	-0.275227	-9.40703	-3.92283
  26	1	2	0.005524	-1.17146	-10.4071	-2.79528
  27	1	1	-0.245806	-1.3471	-11.4794	-5.31367
  28	1	1	-0.291525	-0.0869923	-12.8999	-3.65162
  29	1	2	-0.003466	0.75977	-11.4093	-4.9588
  30	1	2	0.0629	0.834281	-13.0162	-3.06875
  31	1	2	0.058439	-0.106709	-13.7087	-4.39284
  32	1	2	0.076366	-0.942067	-13.0352	-2.97749
  33	1	2	0.061036	-2.29267	-11.6016	-4.7703
  34	1	2	0.060061	-1.27551	-12.2817	-6.0588
  35	1	2	0.042474	-1.3823	-10.5241	-5.85233
  36	1	2	-0.019174	0.927474	-11.1654	-1.73945
  37	1	1	-0.06457	0.642326	-9.12895	-1.23393
  38	1	1	0.061186	0.211065	-7.69386	-1.68706
  39	1	2	0.013749	-0.174595	-9.53844	-0.628781
  40	1	2	0.012175	1.48327	-9.04613	-0.537087
  41	1	1	-0.029522	-0.00836181	-6.77086	-0.442645
  42	1	1	0.182537	-1.00584	-7.26884	0.640813
  43	1	2	0.017614	-0.377793	-5.7939	-0.772191
  44	1	2	0.005524	0.964705	-6.58732	0.0321342
  45	1	1	-0.245806	-2.41136	-7.55494	0.0650857
  46	1	1	-0.291525	-1.11376	-6.22887	1.77695
  47	1	2	-0.003466	-0.620667	-8.19188	1.09053
  48	1	2	0.0629	-1.77977	-6.58787	2.57151
  49	1	2	0.058439	-1.51061	-5.27612	1.40347
  50	1	2	0.076366	-0.130318	-6.03742	2.22429
  51	1	2	0.061036	-3.10626	-7.83965	0.864909
  52	1	2	0.060061	-2.38776	-8.37999	-0.656536
  53	1	2	0.042474	-2.81723	-6.66851	-0.438829
  54	1	2	-0.019174	-0.751234	-7.78933	-2.20265
  55	1	1	-0.06457	1.21235	-7.05801	-2.70365
  56	1	1	0.061186	1.01848	-5.55447	-3.06097
  57	1	2	0.013749	1.16222	-7.61619	-3.64333
  58	1	2	0.012175	2.22826	-7.18274	-2.31114
  59	1	1	-0.029522	-0.398028	-5.26775	-3.64718
  60	1	1	0.182537	-0.747125	-3.76461	-3.83611
  61	1	2	0.017614	-0.482477	-5.78164	-4.61387
  62	1	2	0.005524	-1.16999	-5.7088	-3.00652
  63	1	1	-0.245806	-0.8622	-3.00632	-2.4939
  64	1	1	-0.291525	-2.065	-3.6204	-4.62551
  65	1	2	-0.003466	0.0382984	-3.28418	-4.42802
  66	1	2	0.0629	-1.97478	-4.07532	-5.62
  67	1	2	0.058439	-2.32496	-2.56412	-4.76276
  68	1	2	0.076366	-2.8945	-4.10891	-4.09878
  69	1	2	0.061036	-1.62131	-3.46563	-1.84814
  70	1	2	0.060061	-1.14933	-1.96125	-2.66485
  71	1	2	0.042474	0.089564	-2.99749	-1.95094
  72	1	2	-0.019174	1.12558	-4.99126	-2.12906
  73	1	1	-0.06457	2.14779	-5.08085	-4.03096
  74	1	1	0.061186	2.99358	-3.90224	-3.46189
  75	1	2	0.013749	2.82488	-5.91265	-4.26764
  76	1	2	0.012175	1.70531	-4.81524	-4.99629
  77	1	1	-0.029522	3.98867	-4.45001	-2.3937
  78	1	1	0.182537	4.66598	-3.39508	-1.47515
  79	1	2	0.017614	4.76806	-5.02457	-2.91067
  80	1	2	0.005524	3.4701	-5.16673	-1.74498
  81	1	1	-0.245806	3.6438	-2.61577	-0.618946
  82	1	1	-0.291525	5.69344	-4.08426	-0.552306
  83	1	2	-0.003466	5.21851	-2.67326	-2.08722
  84	1	2	0.0629	6.45533	-4.61016	-1.14137
  85	1	2	0.058439	5.2049	-4.81508	0.104785
  86	1	2	0.076366	6.20702	-3.34747	0.0778811
  87	1	2	0.061036	3.00676	-1.97381	-1.23869
  88	1	2	0.060061	4.15833	-1.96853	0.101607
  89	1	2	0.042474	2.99912	-3.3032	-0.0565079
  90	1	2	-0.019174	2.30406	-3.21176	-2.96973
  91	1	1	-0.06457	3.73714	-3.12608	-4.59146
  92	1	1	0.061186	2.83321	-2.21993	-5.47991
  93	1	2	0.013749	4.26277	-3.85624	-5.22076
  94	1	2	0.012175	4.50867	-2.49065	-4.14746
  95	1	1	-0.029522	3.46731	-1.92901	-6.87673
  96	1	1	0.182537	4.72677	-1.01359	-6.93004
  97	1	2	0.017614	2.68692	-1.4796	-7.5026
  98	1	2	0.005524	3.69748	-2.88211	-7.37064
  99	1	1	-0.245806	6.04574	-1.77086	-6.65158
 100	1	1	-0.291525	4.82711	-0.337429	-8.31493
 101	1	2	-0.003466	4.62989	-0.2143	-6.18939
 102	1	2	0.0629	5.69728	0.329167	-8.36305
 103	1	2	0.058439	3.93372	0.265198	-8.52262
 104	1	2	0.076366	4.92712	-1.08678	-9.11054
 105	1	2	0.061036	6.09663	-2.14444	-5.62542
 106	1	2	0.060061	6.90739	-1.10623	-6.79212
 107	1	2	0.042474	6.16282	-2.62235	-7.33374
 108	1	2	-0.019174	1.93603	-2.8013	-5.70196
 109	1	1	-0.06457	2.37204	-0.940632	-4.70583
 110	1	1	0.061186	1.48353	0.0801832	-5.4868
 111	1	2	0.013749	3.26887	-0.432238	-4.33616
 112	1	2	0.012175	1.81619	-1.24456	-3.81124
 113	1	1	-0.029522	0.195755	-0.605666	-6.05094
 114	1	1	0.182537	-0.708732	0.251881	-6.98203
 115	1	2	0.017614	-0.406458	-0.953094	-5.20212
 116	1	2	0.005524	0.464887	-1.50309	-6.61702
 117	1	1	-0.245806	0.0173782	0.683612	-8.27545
 118	1	1	-0.291525	-1.98656	-0.531826	-7.34937
 119	1	2	-0.003466	-1.03678	1.15332	-6.45279
 120	1	2	0.0629	-2.55601	-0.792295	-6.44892
 121	1	2	0.058439	-1.7418	-1.45994	-7.88146
 122	1	2	0.076366	-2.64017	0.0693218	-7.99376
 123	1	2	0.061036	0.867389	1.33829	-8.05967
 124	1	2	0.060061	-0.662888	1.23865	-8.93346
 125	1	2	0.042474	0.388127	-0.188954	-8.82805
 126	1	2	-0.019174	2.07396	0.454008	-6.32826
 127	1	1	-0.06457	1.08675	1.2897	-4.57957
 128	1	1	0.061186	2.22543	2.11964	-3.91127
 129	1	2	0.013749	0.46835	1.9906	-5.14993
 130	1	2	0.012175	0.450509	0.880894	-3.78822
 131	1	1	-0.029522	3.33643	2.58526	-4.90645
 132	1	1	0.182537	2.92082	3.3073	-6.22497
 133	1	2	0.017614	3.91171	1.69692	-5.18657
 134	1	2	0.005524	4.05403	3.218	-4.36795
 135	1	1	-0.245806	2.25064	4.68318	-6.01875
 136	1	1	-0.291525	4.16105	3.47981	-7.12858
 137	1	2	-0.003466	2.21512	2.6776	-6.77421
 138	1	2	0.0629	4.90507	4.13241	-6.65441
 139	1	2	0.058439	3.88387	3.92165	-8.09393
 140	1	2	0.076366	4.63567	2.5122	-7.33108
 141	1	2	0.061036	1.21336	4.57217	-5.68771
 142	1	2	0.060061	2.21636	5.24321	-6.96169
 143	1	2	0.042474	2.79948	5.28836	-5.28624
 144	1	2	-0.019174	2.74183	1.45301	-3.21342
 145	1	1	-0.06457	1.68436	3.31636	-3.05732
 146	1	1	0.061186	0.952414	3.01324	-1.71132
 147	1	2	0.013749	1.01399	3.93178	-3.66092
 148	1	2	0.012175	2.53069	3.97238	-2.81785
 149	1	1	-0.029522	1.73228	2.05703	-0.760527
 150	1	1	0.182537	3.17634	2.49486	-0.390261
 151	1	2	0.017614	1.76352	1.05502	-1.20711
 152	1	2	0.005524	1.16447	1.94822	0.171035
 153	1	1	-0.245806	3.21062	3.84077	0.368232
 154	1	1	-0.291525	3.85868	1.40325	0.459735
 155	1	2	-0.003466	3.76647	2.60501	-1.30807
 156	1	2	0.0629	3.88415	0.450883	-0.082822
 157	1	2	0.058439	3.32324	1.24626	1.40416
 158	1	2	0.076366	4.89308	1.68269	0.69542
 159	1	2	0.061036	2.85965	4.66467	-0.264086
 160	1	2	0.060061	4.23412	4.08289	0.680483
 161	1	2	0.042474	2.58088	3.80239	1.26626
 162	1	2	-0.019174	0.904532	3.98257	-1.20546
 163	1	1	-0.06457	-0.524947	2.53774	-1.89555
 164	1	1	0.061186	-1.61564	3.41732	-1.21467
 165	1	2	0.013749	-0.773166	2.46844	-2.95748
 166	1	2	0.012175	-0.627364	1.51119	-1.51942
 167	1	1	-0.029522	-1.78069	4.81448	-1.89612
 168	1	1	0.182537	-2.11306	4.82096	-3.41548
 169	1	2	0.017614	-0.866545	5.4007	-1.73919
 170	1	2	0.005524	-2.58066	5.36647	-1.39059
 171	1	1	-0.245806	-3.38294	4.00941	-3.75624
 172	1	1	-0.291525	-2.27576	6.27306	-3.91273
 173	1	2	-0.003466	-1.27415	4.38767	-3.97146
 174	1	2	0.0629	-1.36523	6.85492	-3.72215
 175	1	2	0.058439	-3.11242	6.77152	-3.40649
 176	1	2	0.076366	-2.46862	6.29542	-4.99261
 177	1	2	0.061036	-4.2449	4.36883	-3.17998
 178	1	2	0.060061	-3.2446	2.94314	-3.54192
 179	1	2	0.042474	-3.62506	4.09845	-4.82271
 180	1	2	-0.019174	-2.55984	2.87689	-1.34515
 181	1	1	-0.06457	-1.37844	3.5543	0.322242
 182	1	1	0.061186	-2.65652	3.91835	1.13826
 183	1	2	0.013749	-0.978728	2.61292	0.719887
 184	1	2	0.012175	-0.594002	4.30092	0.493476
 185	1	1	-0.029522	-3.47809	2.62603	1.43482
 186	1	1	0.182537	-4.91307	2.84116	1.99527
 187	1	2	0.017614	-2.91025	2.00577	2.14112
 188	1	2	0.005524	-3.56256	2.03199	0.516321
 189	1	1	-0.245806	-5.57267	1.48075	2.30334
 190	1	1	-0.291525	-5.81877	3.64549	1.03431
 191	1	2	-0.003466	-4.85092	3.38615	2.94341
 192	1	2	0.0629	-6.84285	3.70153	1.42428
 193	1	2	0.058439	-5.85784	3.17405	0.0441258
 194	1	2	0.076366	-5.463	4.67498	0.912524
 195	1	2	0.061036	-6.56584	1.62189	2.74786
 196	1	2	0.060061	-4.96704	0.905494	3.01361
 197	1	2	0.042474	-5.68866	0.883289	1.39007
 198	1	2	-0.019174	-3.27838	4.5641	0.512967
 199	1	1	-0.06457	-2.30614	4.71164	2.4393
 200	1	1	0.061186	-2.6059	6.24432	2.35066
 201	1	2	0.013749	-2.85967	4.27913	3.27578
 202	1	2	0.012175	-1.2521	4.55833	2.70598
 203	1	1	-0.029522	-1.61452	6.94177	1.36938
 204	1	1	0.182537	-1.94726	8.40327	0.9542
 205	1	2	0.017614	-1.55261	6.36116	0.447136
 206	1	2	0.005524	-0.609079	6.91391	1.80989
 207	1	1	-0.245806	-3.31933	8.52743	0.253828
 208	1	1	-0.291525	-0.844827	8.94603	0.0199781
 209	1	2	-0.003466	-1.95723	9.04519	1.84214
 210	1	2	0.0629	-0.791234	8.36137	-0.907453
 211	1	2	0.058439	0.136511	8.90351	0.509005
 212	1	2	0.076366	-1.04095	9.99205	-0.246921
 213	1	2	0.061036	-3.48183	9.55407	-0.0974644
 214	1	2	0.060061	-4.14169	8.28487	0.935875
 215	1	2	0.042474	-3.38059	7.85812	-0.613784
 216	1	2	-0.019174	-3.61896	6.3457	1.94843
 217	1	1	-0.06457	-2.5627	6.91801	3.7587
 218	1	1	0.061186	-3.76637	6.58248	4.69305
 219	1	2	0.013749	-1.61772	6.6225	4.22296
 220	1	2	0.012175	-2.51759	8.00814	3.66638
 221	1	1	-0.029522	-5.09252	7.21782	4.16693
 222	1	1	0.182537	-6.2587	6.20829	3.99243
 223	1	2	0.017614	-4.91496	7.70688	3.20201
 224	1	2	0.005524	-5.4166	8.02755	4.83412
 225	1	1	-0.245806	-7.46933	6.88767	3.31974
 226	1	1	-0.291525	-6.69645	5.55601	5.3233
 227	1	2	-0.003466	-5.9189	5.4125	3.32186
 228	1	2	0.0629	-7.53947	4.87325	5.15919
 229	1	2	0.058439	-7.01133	6.31711	6.04822
 230	1	2	0.076366	-5.88462	4.97009	5.7701
 231	1	2	0.061036	-8.27743	6.16431	3.1534
 232	1	2	0.060061	-7.1893	7.30632	2.34497
 233	1	2	0.042474	-7.86088	7.7012	3.94354
 234	1	2	-0.019174	-3.89914	5.49766	4.68928
 235	1	1	-0.06457	-3.53468	7.00894	6.17826
 236	1	1	0.061186	-2.32291	6.38738	6.94012
 237	1	2	0.013749	-3.47964	8.1037	6.24258
 238	1	2	0.012175	-4.43584	6.73515	6.7415
 239	1	1	-0.029522	-1.01588	7.22485	6.76294
 240	1	1	0.182537	-0.467385	7.82383	8.08591
 241	1	2	0.017614	-1.17774	8.04704	6.0544
 242	1	2	0.005524	-0.239227	6.59942	6.30404
 243	1	1	-0.245806	-1.38177	8.94158	8.63718
 244	1	1	-0.291525	0.960146	8.3733	7.88372
 245	1	2	-0.003466	-0.409876	7.02485	8.83632
 246	1	2	0.0629	1.35853	8.77428	8.82422
 247	1	2	0.058439	0.970961	9.17732	7.13696
 248	1	2	0.076366	1.63799	7.58015	7.54429
 249	1	2	0.061036	-2.38954	8.56738	8.85248
 250	1	2	0.060061	-1.47102	9.76505	7.91737
 251	1	2	0.042474	-0.974157	9.34964	9.57055
 252	1	2	-0.019174	-2.60195	6.43621	7.99854
 253	1	1	-0.06457	-2.12183	4.87949	6.60744
 254	1	1	0.061186	-1.13789	4.11275	7.53869
 255	1	2	0.013749	-3.09777	4.37739	6.63517
 256	1	2	0.012175	-1.76231	4.79484	5.57542
 257	1	1	-0.029522	-1.82197	3.73821	8.88592
 258	1	1	0.182537	-0.890052	3.1565	9.98595
 259	1	2	0.017614	-2.63503	3.03278	8.68598
 260	1	2	0.005524	-2.30733	4.62958	9.30128
 261	1	1	-0.245806	-1.72518	2.71422	11.2062
 262	1	1	-0.291525	0.194622	4.16072	10.4366
 263	1	2	-0.003466	-0.383462	2.26442	9.60084
 264	1	2	0.0629	0.78013	3.7502	11.2688
 265	1	2	0.058439	-0.256764	5.10314	10.772
 266	1	2	0.076366	0.895961	4.38353	9.62422
 267	1	2	0.061036	-1.08432	2.26338	11.9742
 268	1	2	0.060061	-2.47573	1.9684	10.9157
 269	1	2	0.042474	-2.24769	3.56825	11.656
 270	1	2	-0.019174	-0.317034	4.79747	7.77277
 271	1	1	-0.06457	-0.470611	2.92258	6.77895
 272	1	1	0.061186	-1.417	1.86143	6.12328
 273	1	2	0.013749	0.264792	2.42199	7.42053
 274	1	2	0.012175	0.127834	3.38743	5.98449
 275	1	1	-0.029522	-1.73501	0.675362	7.094
 276	1	1	0.182537	-3.12481	-0.0186482	6.95957
 277	1	2	0.017614	-1.66656	1.02846	8.12677
 278	1	2	0.005524	-0.954098	-0.0889208	7.01708
 279	1	1	-0.245806	-3.37804	-0.683114	5.59109
 280	1	1	-0.291525	-4.30284	0.912337	7.32398
 281	1	2	-0.003466	-3.12906	-0.828926	7.70036
 282	1	2	0.0629	-4.39322	1.74986	6.62216
 283	1	2	0.058439	-4.18252	1.3175	8.33558
 284	1	2	0.076366	-5.24903	0.357243	7.30216
 285	1	2	0.061036	-4.26136	-1.332	5.63997
 286	1	2	0.060061	-2.52475	-1.30362	5.29081
 287	1	2	0.042474	-3.56476	0.066221	4.81371
 288	1	2	-0.019174	-2.36172	2.35556	5.88256
 289	1	1	-0.06457	-0.837538	1.39914	4.74909
 290	1	1	0.061186	0.591362	0.791182	4.78524
 291	1	2	0.013749	-1.52071	0.687409	4.28471
 292	1	2	0.012175	-0.822952	2.26455	4.07354
 293	1	1	-0.029522	1.08684	0.308415	3.39759
 294	1	1	0.182537	0.315851	-0.897019	2.78781
 295	1	2	0.017614	2.14739	0.0392421	3.48675
 296	1	2	0.005524	1.04418	1.15389	2.6985
 297	1	1	-0.245806	0.368291	-2.15353	3.68632
 298	1	1	-0.291525	0.876137	-1.23849	1.39216
 299	1	2	-0.003466	-0.736095	-0.619186	2.65194
 300	1	2	0.0629	0.776449	-0.384659	0.712707
 301	1	2	0.058439	0.335048	-2.08349	0.94785
 302	1	2	0.076366	1.93778	-1.50567	1.45493
 303	1	2	0.061036	1.40573	-2.44564	3.89294
 304	1	2	0.060061	-0.131244	-2.99956	3.1976
 305	1	2	0.042474	-0.139834	-1.98434	4.6427
 306	1	2	-0.019174	1.29747	1.54949	5.14439
 307	1	2	0	4.52192	-10.8348	-0.284843
 308	1	2	0	0.648371	-0.0331764	5.50306

Velocities

   1	4.70801e-05	2.88324e-05	-2.96463e-05
   2	-1.85435e-06	7.64872e-05	2.36707e-05
   3	0.000112751	8.53422e-05	7.01853e-05
   4	-9.36259e-05	3.11185e-05	-8.50286e-05
   5	-3.09176e-05	0.000178283	-8.39822e-06
   6	-1.53501e-06	0.000107611	-1.69831e-05
   7	-6.78362e-05	0.000257346	6.26993e-05
   8	-4.03708e-05	0.000222698	-0.000110975
   9	3.32141e-05	4.67424e-05	0.000146721
  10	-3.56178e-05	0.000206167	-7.06905e-05
  11	3.62053e-05	1.31812e-05	-0.000100112
  12	-2.77123e-05	0.000356316	3.92335e-05
  13	-9.62652e-05	0.000259792	-0.00024263
  14	-7.84321e-06	7.97677e-05	-4.97994e-05
  15	1.16143e-05	-9.43288e-06	0.000129144
  16	9.15265e-05	0.000146485	0.000217622
  17	3.08846e-05	-4.46261e-05	0.000214927
  18	-2.42071e-05	4.84183e-05	7.39806e-05
  19	-1.6828e-05	5.41891e-05	4.31335e-05
  20	-4.69833e-06	9.99066e-06	6.07995e-05
  21	-4.72527e-05	5.50793e-05	4.13857e-05
  22	-2.82023e-06	5.9831e-05	3.40399e-05
  23	-2.23305e-05	6.27593e-06	8.14137e-05
  24	-3.0863e-05	3.2851e-05	4.91416e-05
  25	-4.51895e-05	1.52924e-05	9.77766e-05
  26	-1.09383e-05	-1.68156e-05	9.36869e-05
  27	-1.42688e-05	9.21079e-05	3.06388e-05
  28	-7.90874e-05	1.22449e-05	1.4735e-05
  29	-1.89116e-05	2.67572e-05	7.1601e-05
  30	-0.000105887	-1.0361e-05	5.29946e-05
  31	-5.56079e-05	3.57547e-05	-1.19924e-05
  32	-0.000110514	2.74253e-06	-2.95385e-05
  33	-2.73236e-05	0.000117441	1.20789e-05
  34	-2.76865e-05	0.00010491	1.53338e-05
  35	2.77466e-05	0.00010544	4.89711e-05
  36	2.69343e-05	5.4946e-06	5.8021e-05
  37	-1.42473e-05	6.9534e-06	5.89555e-05
  38	-2.08392e-05	2.22549e-06	4.81555e-05
  39	-1.03215e-05	1.34724e-06	5.7859e-05
  40	-1.71723e-05	1.41065e-05	6.03118e-05
  41	-1.33038e-05	8.42329e-06	4.55747e-05
  42	2.17727e-05	-9.82755e-06	6.96022e-05
  43	-3.69629e-05	1.65392e-06	4.58032e-05
  44	-6.28016e-06	2.96834e-05	2.22192e-05
  45	6.69751e-06	-1.20342e-05	0.000106915
  46	4.40662e-05	-2.85095e-05	8.77249e-05
  47	4.0723e-05	-1.27262e-05	4.93937e-05
  48	7.8722e-05	-5.31301e-05	0.000107686
  49	1.16558e-05	-3.17642e-05	0.000114439
  50	5.52475e-05	-1.66201e-05	5.73305e-05
  51	4.32187e-05	-8.00375e-05	0.0001167
  52	-3.0332e-06	3.33466e-05	5.56491e-05
  53	-3.74238e-05	9.63247e-06	0.000180397
  54	-2.68007e-05	1.90594e-07	6.14489e-05
  55	-3.47699e-05	-8.4402e-06	2.56272e-05
  56	6.70876e-06	2.79673e-06	4.8029e-05
  57	-8.50477e-05	9.7135e-06	1.69269e-05
  58	-2.57139e-05	-4.26943e-05	-1.21477e-05
  59	6.62592e-06	4.68849e-05	7.46178e-05
  60	4.81453e-05	5.54922e-05	8.13552e-05
  61	-2.33056e-05	5.58747e-05	7.28981e-05
  62	5.25459e-06	6.30423e-05	8.43477e-05
  63	0.000203554	9.39224e-05	7.39903e-05
  64	-2.56318e-05	8.28233e-05	0.000209119
  65	6.04983e-06	8.25253e-06	-1.07626e-05
  66	-0.000167575	-2.80288e-05	0.000247296
  67	4.23972e-05	9.06624e-05	0.000130382
  68	-8.85501e-06	0.000204742	0.000349348
  69	0.000273325	0.000113393	0.00016743
  70	0.000194163	9.31723e-05	7.65786e-05
  71	0.000262053	0.000105994	-2.68125e-05
  72	3.7334e-05	-1.91342e-05	5.93601e-05
  73	3.7441e-06	-1.48798e-05	3.45045e-05
  74	1.93913e-05	-1.64035e-05	1.26535e-05
  75	-3.78939e-06	-2.39188e-05	3.80407e-05
  76	-5.84171e-07	-2.37736e-05	3.33197e-05
  77	1.9005e-05	-1.89856e-05	9.71089e-06
  78	5.97672e-05	-2.39963e-05	-1.64676e-05
  79	-1.70685e-06	-4.78906e-05	9.64155e-06
  80	9.30302e-06	4.01171e-06	2.71695e-05
  81	8.98058e-05	5.77882e-05	-5.56615e-05
  82	7.99251e-06	-5.09214e-05	2.0679e-05
  83	0.000108455	-7.47042e-05	-3.32694e-05
  84	-4.22362e-06	-9.98125e-05	4.8731e-05
  85	-4.06608e-05	-1.54209e-05	2.51354e-05
  86	2.81184e-05	-6.23492e-05	1.77334e-05
  87	0.000133958	7.43228e-05	-8.4021e-05
  88	0.000112991	5.2777e-05	-6.84094e-05
  89	4.56672e-05	0.00010964	-4.43154e-05
  90	2.98851e-05	-7.42544e-06	1.36794e-05
  91	1.62125e-05	-2.56288e-05	3.4088e-06
  92	1.9184e-05	-2.67446e-05	6.7419e-07
  93	7.85792e-06	-3.36439e-05	6.04533e-06
  94	2.47585e-05	-2.71236e-05	-9.4065e-06
  95	3.55003e-05	-1.57135e-05	1.06679e-05
  96	3.58587e-05	-1.39819e-05	4.75791e-05
  97	4.40509e-05	-1.1647e-05	3.92231e-06
  98	4.34976e-05	-1.00743e-05	5.25407e-06
  99	3.75572e-05	-4.93392e-05	-5.56781e-05
 100	-2.84927e-06	0.00010094	0.000101578
 101	6.6768e-05	-7.65905e-05	0.00011972
 102	-5.30007e-06	0.000107007	0.000132636
 103	-8.29478e-06	0.000118086	0.000175505
 104	-2.37153e-05	0.000166068	3.89218e-05
 105	4.1834e-05	-0.000178009	-0.000101913
 106	3.79132e-05	-3.31873e-05	1.45702e-05
 107	3.02035e-05	3.37014e-05	-0.000161263
 108	2.42461e-05	-3.1013e-05	-1.11202e-05
 109	5.46561e-06	-2.55975e-05	-4.76056e-06
 110	2.40187e-05	-1.87057e-05	-1.82812e-05
 111	-2.30282e-06	-2.7645e-05	1.75201e-05
 112	-1.42822e-05	-2.75906e-05	-1.74004e-05
 113	3.44209e-05	-1.78712e-05	-4.21177e-05
 114	5.45514e-05	-2.62154e-05	-6.67721e-05
 115	1.65739e-05	-6.23122e-06	-4.98749e-05
 116	4.025e-05	-2.69106e-05	-2.71201e-05
 117	6.46787e-05	-7.1553e-05	-7.69166e-05
 118	3.82611e-05	-1.09799e-05	-4.23659e-05
 119	7.17041e-05	-4.51636e-06	-9.31507e-05
 120	3.30866e-05	3.37695e-05	-3.27762e-05
 121	1.73641e-05	-3.53423e-05	-9.57191e-06
 122	5.17882e-05	-1.90472e-05	-6.40268e-05
 123	8.56234e-05	-9.46775e-05	-8.94834e-05
 124	7.73433e-05	-6.23137e-05	-8.33575e-05
 125	3.48824e-05	-9.18746e-05	-6.49382e-05
 126	3.95755e-05	-1.6773e-05	-7.80299e-06
 127	5.62531e-06	-2.04872e-05	-2.2023e-05
 128	-7.53744e-06	-1.28534e-05	-8.23671e-06
 129	9.75526e-06	-2.23995e-05	-2.72398e-05
 130	-1.6102e-06	-2.10485e-05	-2.85887e-05
 131	-1.09068e-05	1.14181e-05	-3.82209e-06
 132	-1.42192e-05	8.79062e-06	-3.87052e-06
 133	5.63271e-06	2.11327e-05	-5.63954e-06
 134	-2.33886e-05	2.138e-05	3.30235e-06
 135	-9.58457e-05	-3.17877e-05	-5.92013e-06
 136	-4.11013e-07	9.14993e-05	3.01692e-05
 137	3.59056e-05	-2.57377e-05	-3.23746e-05
 138	-6.70025e-05	0.000163165	3.81119e-05
 139	-7.16798e-06	5.17795e-05	1.41644e-05
 140	8.49911e-05	0.000127398	6.40079e-05
 141	-9.41654e-05	-9.02925e-05	-1.95892e-05
 142	-0.000114876	-2.93735e-05	-3.30276e-06
 143	-0.00013889	-5.12482e-06	4.74328e-06
 144	-1.02125e-06	-1.34355e-05	-1.49353e-05
 145	-2.51243e-05	-2.84554e-05	4.87534e-06
 146	2.11837e-06	-4.34808e-05	1.88382e-05
 147	-4.24818e-05	-3.80029e-05	1.53099e-05
 148	-3.51001e-05	-1.2512e-05	-2.86713e-06
 149	3.05661e-05	-3.28073e-05	2.86142e-06
 150	3.69978e-05	-2.55244e-05	-2.75812e-05
 151	2.60666e-05	-3.27963e-05	2.48491e-06
 152	5.06021e-05	-3.20696e-05	1.53215e-05
 153	4.66058e-05	-4.00008e-05	-2.24356e-06
 154	6.05178e-05	-3.53247e-05	-6.00495e-05
 155	1.32105e-05	-5.2308e-06	-4.04757e-05
 156	5.94657e-05	-2.38523e-05	-7.88328e-05
 157	7.43432e-05	-5.73995e-05	-5.6069e-05
 158	6.18661e-05	-3.26211e-05	-7.07533e-05
 159	-3.33151e-05	-3.81674e-05	4.52402e-05
 160	6.23945e-05	-1.04239e-05	-7.77643e-05
 161	0.000120505	-8.39652e-05	4.75959e-05
 162	2.02804e-06	-4.59252e-05	2.40025e-05
 163	5.47129e-07	-6.09021e-05	5.8229e-05
 164	5.84885e-06	-4.49997e-05	5.28583e-05
 165	-1.53989e-05	-9.83542e-05	6.53387e-05
 166	1.24143e-05	-4.92492e-05	9.03186e-05
 167	1.76293e-05	-5.15552e-05	3.53693e-05
 168	4.96542e-05	-6.93608e-05	2.86e-05
 169	1.73878e-05	-5.2721e-05	4.77209e-05
 170	9.92754e-06	-4.16763e-05	1.51245e-05
 171	-1.52505e-05	2.91767e-05	3.70656e-05
 172	0.000185999	-7.52489e-05	-2.91314e-05
 173	2.01048e-05	-0.000158755	5.51984e-05
 174	0.000188564	-0.000111153	6.9575e-05
 175	0.000144274	-2.34103e-05	-0.000150605
 176	0.000331057	-9.70926e-05	-5.54441e-05
 177	9.36997e-06	0.000119223	1.81045e-05
 178	-0.000109244	2.4735e-05	7.24074e-05
 179	1.32248e-06	2.17002e-05	3.34276e-05
 180	2.97887e-07	-3.88947e-05	6.0098e-05
 181	1.23458e-05	-2.32745e-05	5.01817e-05
 182	1.66069e-05	-1.54651e-05	5.69059e-05
 183	2.28119e-05	-1.44213e-05	6.14195e-05
 184	9.99851e-06	-1.69639e-05	3.50581e-05
 185	3.43884e-05	-1.73835e-05	9.7822e-05
 186	3.7524e-05	-2.45206e-05	0.00011214
 187	5.06575e-05	-8.47635e-08	0.000100388
 188	2.80862e-05	-3.30224e-05	0.000109624
 189	4.84748e-05	-3.13472e-05	0.000107583
 190	2.7566e-05	-3.41774e-05	0.00011299
 191	3.42265e-05	-2.16197e-05	0.00011066
 192	2.33391e-05	-5.58681e-05	0.000106256
 193	4.32667e-05	-2.72979e-05	0.000110169
 194	1.01022e-05	-2.68409e-05	0.000124618
 195	3.01608e-05	-4.52628e-05	7.22126e-05
 196	3.26559e-05	-1.44407e-05	0.000135053
 197	9.34814e-05	-4.46622e-05	0.000111116
 198	4.55153e-06	-3.79473e-05	4.44016e-05
 199	1.67626e-05	1.74933e-05	3.49104e-05
 200	-4.56929e-06	1.252e-05	9.68814e-06
 201	3.15077e-05	2.59133e-05	4.84089e-05
 202	2.18491e-05	3.66736e-05	2.9711e-05
 203	2.41781e-07	8.78133e-06	1.17152e-05
 204	-2.07884e-05	-6.77029e-06	-2.46999e-05
 205	2.5522e-05	-1.09185e-05	2.58007e-05
 206	-6.51154e-06	3.76291e-05	2.87673e-05
 207	-2.00143e-05	-4.87706e-05	-3.45877e-05
 208	-2.46616e-05	-8.42079e-06	-3.11089e-05
 209	-3.81137e-05	1.32745e-05	-3.99285e-05
 210	-1.41838e-05	-2.16814e-05	-2.20788e-05
 211	-2.55958e-05	1.23725e-05	-2.67897e-05
 212	-3.72883e-05	-1.46947e-05	-4.83613e-05
 213	-1.09761e-05	-7.48638e-05	-0.000116623
 214	-1.94252e-05	1.2078e-05	-1.15035e-05
 215	-2.81704e-05	-0.00011813	1.94589e-05
 216	-2.00829e-06	-3.54426e-06	-2.32956e-06
 217	-2.95002e-05	2.60303e-05	3.46846e-06
 218	-4.21566e-05	2.49835e-05	-9.12451e-06
 219	-3.41417e-05	3.22164e-05	1.53351e-05
 220	-2.98627e-05	2.56044e-05	-5.18945e-06
 221	-2.66192e-05	5.56879e-05	-1.39712e-05
 222	-5.38097e-05	8.6901e-05	-1.00523e-05
 223	-1.19763e-05	3.93947e-05	-1.99358e-05
 224	-3.48081e-06	7.20442e-05	-2.32299e-05
 225	-3.12367e-05	0.000107362	-3.05478e-05
 226	-8.12017e-05	0.000116138	-5.20288e-06
 227	-6.94698e-05	6.55165e-05	5.07896e-06
 228	-0.000104619	0.000144468	-1.68659e-06
 229	-5.8487e-05	0.000132597	-1.2064e-05
 230	-0.000100218	9.36552e-05	-1.32423e-06
 231	-3.15632e-05	0.000114319	-5.98367e-05
 232	-5.78397e-06	0.000119069	-1.84848e-05
 233	-4.12833e-05	0.000102407	-2.96444e-05
 234	-6.04326e-05	2.7032e-05	-3.03973e-05
 235	-4.82223e-05	-1.19801e-05	3.28707e-06
 236	-4.09656e-05	-1.79002e-05	-7.54969e-06
 237	-6.03393e-05	-1.26084e-05	3.00709e-05
 238	-4.74938e-05	-3.15837e-05	-5.05533e-06
 239	-4.62896e-05	-1.01838e-05	-1.5686e-05
 240	2.11103e-05	-6.99831e-05	-1.60919e-05
 241	-7.5029e-05	2.60274e-05	3.14371e-05
 242	-6.82451e-05	1.0697e-05	-8.00184e-05
 243	3.97999e-05	-0.000111087	9.97475e-05
 244	-4.01328e-06	-2.75387e-05	-8.45404e-05
 245	8.38662e-05	-0.000107424	-6.19466e-05
 246	3.2645e-05	-1.85616e-05	-0.000104157
 247	-6.61286e-05	-2.42842e-05	-8.27152e-05
 248	1.86738e-06	-4.82516e-06	-0.000126458
 249	4.5528e-05	-0.000121698	0.000104768
 250	2.22033e-05	-5.57562e-05	0.000167278
 251	6.94275e-05	-0.000186017	0.000119408
 252	-3.22649e-05	-2.66415e-05	-4.28399e-06
 253	-3.79178e-05	-1.48053e-05	-2.70488e-05
 254	9.83835e-06	-2.44049e-05	-7.96304e-05
 255	-3.36476e-05	-2.09219e-05	3.66842e-06
 256	-7.87122e-05	-1.28324e-06	-4.09878e-05
 257	7.11481e-05	-2.97153e-05	-5.05475e-05
 258	9.84195e-05	-7.33485e-05	-9.35065e-05
 259	4.47079e-05	-4.51038e-06	-2.47538e-05
 260	0.00011581	-2.37978e-05	-1.35163e-05
 261	0.000107459	-0.000132078	-0.00010745
 262	8.635e-05	-8.0348e-05	-4.91512e-05
 263	0.000106644	-4.82051e-05	-0.000137762
 264	0.000164187	-0.000157418	-0.000140638
 265	6.62483e-05	-0.000144064	0.000101946
 266	2.08317e-05	5.67905e-05	-6.89376e-05
 267	0.000120457	-6.95606e-05	-8.1354e-05
 268	0.000176049	-0.000197534	-0.000118419
 269	2.33301e-05	-0.000169377	-0.000135882
 270	2.22233e-05	-2.92115e-05	-0.000111389
 271	-3.02878e-05	-2.43536e-05	-0.000120644
 272	-5.68684e-05	-2.4137e-05	-8.97585e-05
 273	-6.88713e-06	-2.90291e-05	-0.000151054
 274	-5.51711e-05	-2.42812e-05	-0.000141288
 275	-2.83993e-05	-1.71735e-05	-7.34744e-05
 276	-4.53706e-05	4.99757e-06	1.24792e-06
 277	3.21911e-05	-1.68755e-05	-7.76634e-05
 278	-4.66227e-05	-3.30684e-05	-0.000111466
 279	-0.000136448	3.04067e-05	5.93472e-06
 280	-6.13926e-06	2.09421e-05	8.31385e-05
 281	-1.30598e-05	-3.01999e-06	-9.37253e-06
 282	-7.75275e-05	-1.3086e-05	5.14923e-05
 283	9.81859e-05	6.87265e-05	5.10924e-05
 284	-6.83704e-06	1.75718e-05	0.000212104
 285	-0.000161492	6.72349e-05	3.67698e-05
 286	-0.000174511	1.41313e-06	-3.93235e-05
 287	-0.000139554	4.77558e-05	2.52009e-05
 288	-6.35609e-05	-1.91631e-05	-6.35947e-05
 289	-0.000100199	-3.94322e-05	-0.000105874
 290	-0.000121513	-9.12549e-05	-0.000133623
 291	-0.000134401	-1.06397e-05	-0.000104149
 292	-7.33262e-05	-3.56242e-05	-9.74375e-05
 293	-0.000134715	-2.68045e-05	-0.000160762
 294	-0.000148116	1.12442e-05	-0.000222807
 295	-0.000140667	-4.74906e-05	-0.0001699
 296	-0.000116759	9.34981e-06	-0.000117583
 297	-0.000225915	1.57136e-06	-0.00023324
 298	-7.30205e-05	8.48845e-06	-0.000193114
 299	-0.0001329	5.00224e-05	-0.000271869
 300	-8.35872e-05	-1.33572e-05	-0.000218833
 301	-7.55308e-06	-2.92181e-05	-0.000201917
 302	-6.15371e-05	6.32362e-05	-0.000138454
 303	-0.000241972	-1.70797e-05	-0.000180238
 304	-0.000214051	1.15846e-05	-0.000262402
 305	-0.000277418	1.77478e-06	-0.000261992
 306	-9.86021e-05	-0.000138965	-8.45887e-05
 307	0.000138785	-7.4793e-05	-0.000118402
 308	-0.000153291	-0.000138174	-0.000185013

Bonds

   1	2	1	2
   2	1	1	3
   3	1	1	4
   4	2	2	5
   5	1	2	18
   6	2	5	6
   7	1	5	7
   8	1	5	8
   9	2	6	9
  10	2	6	10
  11	1	6	11
  12	1	9	15
  13	1	9	16
  14	1	9	17
  15	1	10	12
  16	1	10	13
  17	1	10	14
  18	2	19	20
  19	1	19	21
  20	1	19	22
  21	2	20	23
  22	1	20	36
  23	2	23	24
  24	1	23	25
  25	1	23	26
  26	2	24	27
  27	2	24	28
  28	1	24	29
  29	1	27	33
  30	1	27	34
  31	1	27	35
  32	1	28	30
  33	1	28	31
  34	1	28	32
  35	2	2	19
  36	2	37	38
  37	1	37	39
  38	1	37	40
  39	2	38	41
  40	1	38	54
  41	2	41	42
  42	1	41	43
  43	1	41	44
  44	2	42	45
  45	2	42	46
  46	1	42	47
  47	1	45	51
  48	1	45	52
  49	1	45	53
  50	1	46	48
  51	1	46	49
  52	1	46	50
  53	2	20	37
  54	2	55	56
  55	1	55	57
  56	1	55	58
  57	2	56	59
  58	1	56	72
  59	2	59	60
  60	1	59	61
  61	1	59	62
  62	2	60	63
  63	2	60	64
  64	1	60	65
  65	1	63	69
  66	1	63	70
  67	1	63	71
  68	1	64	66
  69	1	64	67
  70	1	64	68
  71	2	38	55
  72	2	73	74
  73	1	73	75
  74	1	73	76
  75	2	74	77
  76	1	74	90
  77	2	77	78
  78	1	77	79
  79	1	77	80
  80	2	78	81
  81	2	78	82
  82	1	78	83
  83	1	81	87
  84	1	81	88
  85	1	81	89
  86	1	82	84
  87	1	82	85
  88	1	82	86
  89	2	56	73
  90	2	91	92
  91	1	91	93
  92	1	91	94
  93	2	92	95
  94	1	92	108
  95	2	95	96
  96	1	95	97
  97	1	95	98
  98	2	96	99
  99	2	96	100
 100	1	96	101
 101	1	99	105
 102	1	99	106
 103	1	99	107
 104	1	100	102
 105	1	100	103
 106	1	100	104
 107	2	74	91
 108	2	109	110
 109	1	109	111
 110	1	109	112
 111	2	110	113
 112	1	110	126
 113	2	113	114
 114	1	113	115
 115	1	113	116
 116	2	114	117
 117	2	114	118
 118	1	114	119
 119	1	117	123
 120	1	117	124
 121	1	117	125
 122	1	118	120
 123	1	118	121
 124	1	118	122
 125	2	92	109
 126	2	127	128
 127	1	127	129
 128	1	127	130
 129	2	128	131
 130	1	128	144
 131	2	131	132
 132	1	131	133
 133	1	131	134
 134	2	132	135
 135	2	132	136
 136	1	132	137
 137	1	135	141
 138	1	135	142
 139	1	135	143
 140	1	136	138
 141	1	136	139
 142	1	136	140
 143	2	110	127
 144	2	145	146
 145	1	145	147
 146	1	145	148
 147	2	146	149
 148	1	146	162
 149	2	149	150
 150	1	149	151
 151	1	149	152
 152	2	150	153
 153	2	150	154
 154	1	150	155
 155	1	153	159
 156	1	153	160
 157	1	153	161
 158	1	154	156
 159	1	154	157
 160	1	154	158
 161	2	128	145
 162	2	163	164
 163	1	163	165
 164	1	163	166
 165	2	164	167
 166	1	164	180
 167	2	167	168
 168	1	167	169
 169	1	167	170
 170	2	168	171
 171	2	168	172
 172	1	168	173
 173	1	171	177
 174	1	171	178
 175	1	171	179
 176	1	172	174
 177	1	172	175
 178	1	172	176
 179	2	146	163
 180	2	181	182
 181	1	181	183
 182	1	181	184
 183	2	182	185
 184	1	182	198
 185	2	185	186
 186	1	185	187
 187	1	185	188
 188	2	186	189
 189	2	186	190
 190	1	186	191
 191	1	189	195
 192	1	189	196
 193	1	189	197
 194	1	190	192
 195	1	190	193
 196	1	190	194
 197	2	164	181
 198	2	199	200
 199	1	199	201
 200	1	199	202