pySIMM System Object

290 atoms
289 bonds
576 angles
855 dihedrals
0 impropers

2 atom types
2 bond types
3 angle types
3 dihedral types

-80.631849 80.631849 xlo xhi
-80.631849 80.631849 ylo yhi
-80.631849 80.631849 zlo zhi

Masses

   1	12.01	# c3
   2	1.008	# hc

Pair Coeffs

   1	0.1094	3.3996695084235347	# c3
   2	0.0157	2.649532787749369	# hc

Bond Coeffs

   1	330.6	1.0969	# c3,hc
   2	300.9	1.5375	# c3,c3

Angle Coeffs

   1	46.34	109.8	# c3,c3,hc
   2	39.4	107.58	# hc,c3,hc
   3	62.86	111.51	# c3,c3,c3

Dihedral Coeffs

   1	1	0.16	3	0	# hc,c3,c3,c3
   2	1	0.15	3	0	# hc,c3,c3,hc
   3	3	0.18	3	0	0.25	2	180	0.2	1	180	# c3,c3,c3,c3

Atoms

   1	1	1	-0.06457	12.1108	0.143313	-3.45681
   2	1	1	0.061186	11.0883	-1.02302	-3.41117
   3	1	2	0.013749	11.6419	1.09755	-3.19077
   4	1	2	0.012175	12.9407	-0.0355553	-2.76152
   5	1	1	-0.029522	11.7213	-2.37351	-3.85965
   6	1	1	0.182537	12.3923	-2.39459	-5.26268
   7	1	2	0.017614	10.9412	-3.14611	-3.83712
   8	1	2	0.005524	12.4702	-2.67532	-3.11534
   9	1	1	-0.245806	11.4383	-1.95017	-6.39406
  10	1	1	-0.291525	12.9422	-3.80362	-5.56977
  11	1	2	-0.003466	13.2522	-1.71373	-5.25406
  12	1	2	0.0629	12.1313	-4.54131	-5.6187
  13	1	2	0.058439	13.6503	-4.12312	-4.79491
  14	1	2	0.076366	13.4709	-3.8127	-6.53118
  15	1	2	0.061036	11.1366	-0.903076	-6.27231
  16	1	2	0.060061	10.5337	-2.57072	-6.41187
  17	1	2	0.042474	11.9305	-2.03606	-7.37094
  18	1	2	-0.019174	10.2759	-0.797013	-4.11064
  19	1	1	-0.06457	10.4694	-1.19553	-1.99167
  20	1	1	0.061186	9.80434	0.0629749	-1.34087
  21	1	2	0.013749	9.762	-2.02983	-2.01265
  22	1	2	0.012175	11.2802	-1.52793	-1.33248
  23	1	1	-0.029522	9.22186	-0.231471	0.0756997
  24	1	1	0.182537	10.2092	-0.809713	1.12968
  25	1	2	0.017614	8.38798	-0.936229	-0.0192682
  26	1	2	0.005524	8.79645	0.698483	0.47588
  27	1	1	-0.245806	9.48043	-1.03015	2.47235
  28	1	1	-0.291525	11.4495	0.084698	1.35391
  29	1	2	-0.003466	10.5547	-1.79389	0.790305
  30	1	2	0.0629	12.0739	0.135202	0.454082
  31	1	2	0.058439	12.0754	-0.316202	2.16098
  32	1	2	0.076366	11.1535	1.10522	1.6274
  33	1	2	0.061036	9.11981	-0.0793294	2.88492
  34	1	2	0.060061	10.1523	-1.48856	3.20888
  35	1	2	0.042474	8.61844	-1.69692	2.34407
  36	1	2	-0.019174	10.6239	0.772482	-1.18098
  37	1	1	-0.06457	8.79145	0.849364	-2.24384
  38	1	1	0.061186	7.2684	0.495963	-2.18538
  39	1	2	0.013749	8.88738	1.89247	-1.92251
  40	1	2	0.012175	9.12064	0.854157	-3.28751
  41	1	1	-0.029522	6.44495	1.48038	-3.07853
  42	1	1	0.182537	6.45023	2.97875	-2.66037
  43	1	2	0.017614	5.39772	1.16365	-3.11418
  44	1	2	0.005524	6.8117	1.4023	-4.11062
  45	1	1	-0.245806	5.91974	3.19927	-1.22546
  46	1	1	-0.291525	5.6082	3.80622	-3.65494
  47	1	2	-0.003466	7.47345	3.36842	-2.71206
  48	1	2	0.0629	5.63584	4.87221	-3.39657
  49	1	2	0.058439	4.56006	3.48078	-3.65039
  50	1	2	0.076366	5.99562	3.69887	-4.67584
  51	1	2	0.061036	5.84299	4.2705	-1.00129
  52	1	2	0.060061	6.59118	2.75875	-0.479168
  53	1	2	0.042474	4.92425	2.75395	-1.10153
  54	1	2	-0.019174	6.94579	0.640622	-1.15272
  55	1	1	-0.06457	6.95648	-0.978899	-2.59366
  56	1	1	0.061186	5.55541	-1.51449	-2.15808
  57	1	2	0.013749	7.69605	-1.65861	-2.17007
  58	1	2	0.012175	7.06583	-1.05552	-3.68346
  59	1	1	-0.029522	5.50236	-1.73622	-0.61228
  60	1	1	0.182537	4.11281	-2.09028	-0.0191341
  61	1	2	0.017614	6.21135	-2.53396	-0.354033
  62	1	2	0.005524	5.85811	-0.843856	-0.0875865
  63	1	1	-0.245806	3.09449	-0.935831	-0.159809
  64	1	1	-0.291525	4.25086	-2.47218	1.46979
  65	1	2	-0.003466	3.72068	-2.96717	-0.541673
  66	1	2	0.0629	4.92731	-3.32745	1.5918
  67	1	2	0.058439	3.27836	-2.75208	1.89236
  68	1	2	0.076366	4.64856	-1.63415	2.05611
  69	1	2	0.061036	3.45593	-0.031273	0.345449
  70	1	2	0.060061	2.13469	-1.21409	0.290027
  71	1	2	0.042474	2.90295	-0.685645	-1.20902
  72	1	2	-0.019174	4.81388	-0.75461	-2.41035
  73	1	1	-0.06457	5.20177	-2.82215	-2.9403
  74	1	1	0.061186	3.74548	-2.86712	-3.49747
  75	1	2	0.013749	5.88758	-2.95993	-3.78626
  76	1	2	0.012175	5.39206	-3.68357	-2.29002
  77	1	1	-0.029522	3.60795	-1.92257	-4.73231
  78	1	1	0.182537	2.16515	-1.68756	-5.27091
  79	1	2	0.017614	4.22764	-2.31692	-5.54833
  80	1	2	0.005524	4.03244	-0.942365	-4.48434
  81	1	1	-0.245806	1.17079	-1.22964	-4.17883
  82	1	1	-0.291525	2.19084	-0.650408	-6.41366
  83	1	2	-0.003466	1.78527	-2.62155	-5.70109
  84	1	2	0.0629	2.86154	-0.974136	-7.21938
  85	1	2	0.058439	2.53701	0.326038	-6.05119
  86	1	2	0.076366	1.18964	-0.519013	-6.84291
  87	1	2	0.061036	0.995971	-2.02188	-3.44179
  88	1	2	0.060061	0.198087	-0.97927	-4.62052
  89	1	2	0.042474	1.54439	-0.342056	-3.65273
  90	1	2	-0.019174	3.08997	-2.4761	-2.71984
  91	1	1	-0.06457	3.31539	-4.3305	-3.83411
  92	1	1	0.061186	2.94457	-5.22564	-2.61071
  93	1	2	0.013749	4.13041	-4.80243	-4.39864
  94	1	2	0.012175	2.45238	-4.32263	-4.50708
  95	1	1	-0.029522	2.97812	-6.74548	-2.97657
  96	1	1	0.182537	2.29341	-7.21624	-4.29577
  97	1	2	0.017614	2.59147	-7.34348	-2.14367
  98	1	2	0.005524	4.03845	-7.02087	-3.05112
  99	1	1	-0.245806	2.60838	-8.70852	-4.53783
 100	1	1	-0.291525	0.76308	-7.01601	-4.31837
 101	1	2	-0.003466	2.72048	-6.66232	-5.14069
 102	1	2	0.0629	0.319217	-7.52428	-5.18351
 103	1	2	0.058439	0.500395	-5.95767	-4.40924
 104	1	2	0.076366	0.300245	-7.42633	-3.41271
 105	1	2	0.061036	3.69172	-8.87767	-4.57891
 106	1	2	0.060061	2.18268	-9.04807	-5.49044
 107	1	2	0.042474	2.19438	-9.3336	-3.73631
 108	1	2	-0.019174	3.74019	-5.09093	-1.87079
 109	1	1	-0.06457	1.62235	-4.74652	-1.92797
 110	1	1	0.061186	1.11499	-5.52276	-0.670635
 111	1	2	0.013749	0.833709	-4.72665	-2.6822
 112	1	2	0.012175	1.7459	-3.70406	-1.61902
 113	1	1	-0.029522	2.26904	-5.73684	0.362888
 114	1	1	0.182537	1.90336	-6.42255	1.70934
 115	1	2	0.017614	2.7064	-4.75918	0.590912
 116	1	2	0.005524	3.0699	-6.3278	-0.0955511
 117	1	1	-0.245806	1.36191	-7.85481	1.51171
 118	1	1	-0.291525	3.13382	-6.45441	2.64016
 119	1	2	-0.003466	1.13995	-5.83032	2.22709
 120	1	2	0.0629	3.50344	-5.43893	2.83109
 121	1	2	0.058439	3.94998	-7.03861	2.19664
 122	1	2	0.076366	2.87759	-6.90386	3.60769
 123	1	2	0.061036	0.435275	-7.85358	0.928589
 124	1	2	0.060061	1.1413	-8.3214	2.4799
 125	1	2	0.042474	2.09486	-8.48303	0.989853
 126	1	2	-0.019174	0.753423	-6.50431	-0.997563
 127	1	1	-0.06457	-0.0700132	-4.75282	-0.00558251
 128	1	1	0.061186	-1.27268	-4.34266	-0.911628
 129	1	2	0.013749	-0.466495	-5.33316	0.834145
 130	1	2	0.012175	0.365937	-3.85247	0.428505
 131	1	1	-0.029522	-1.954	-5.56959	-1.5981
 132	1	1	0.182537	-2.36453	-6.78226	-0.709828
 133	1	2	0.017614	-1.26609	-5.94086	-2.36577
 134	1	2	0.005524	-2.83502	-5.22948	-2.15426
 135	1	1	-0.245806	-3.37114	-6.44042	0.411169
 136	1	1	-0.291525	-2.95495	-7.89826	-1.59761
 137	1	2	-0.003466	-1.46632	-7.1938	-0.237869
 138	1	2	0.0629	-3.87322	-7.55953	-2.09436
 139	1	2	0.058439	-3.19821	-8.78558	-0.999854
 140	1	2	0.076366	-2.23914	-8.20191	-2.37165
 141	1	2	0.061036	-2.92083	-5.78877	1.16732
 142	1	2	0.060061	-3.6963	-7.35158	0.928568
 143	1	2	0.042474	-4.26334	-5.94699	0.0055705
 144	1	2	-0.019174	-0.871503	-3.73961	-1.72829
 145	1	1	-0.06457	-2.30275	-3.43244	-0.159115
 146	1	1	0.061186	-2.25126	-1.89086	-0.424634
 147	1	2	0.013749	-2.23114	-3.61081	0.91881
 148	1	2	0.012175	-3.31678	-3.75542	-0.421184
 149	1	1	-0.029522	-2.33656	-1.4876	-1.93115
 150	1	1	0.182537	-3.53182	-2.06964	-2.73617
 151	1	2	0.017614	-1.40063	-1.75576	-2.43504
 152	1	2	0.005524	-2.39429	-0.392537	-1.99267
 153	1	1	-0.245806	-4.90016	-1.60781	-2.18702
 154	1	1	-0.291525	-3.41104	-1.68713	-4.22626
 155	1	2	-0.003466	-3.49983	-3.16183	-2.68769
 156	1	2	0.0629	-2.46579	-2.05292	-4.64683
 157	1	2	0.058439	-3.44694	-0.598351	-4.35825
 158	1	2	0.076366	-4.22925	-2.12949	-4.80833
 159	1	2	0.061036	-5.06407	-1.97101	-1.16575
 160	1	2	0.060061	-5.71675	-1.99741	-2.80765
 161	1	2	0.042474	-4.97129	-0.512773	-2.17946
 162	1	2	-0.019174	-3.1645	-1.49931	0.0311975
 163	1	1	-0.06457	-1.05028	-1.15973	0.260406
 164	1	1	0.061186	-1.33325	-0.467068	1.63087
 165	1	2	0.013749	-0.193638	-1.82725	0.352448
 166	1	2	0.012175	-0.691456	-0.368824	-0.411492
 167	1	1	-0.029522	-1.64184	-1.44438	2.80579
 168	1	1	0.182537	-0.539207	-2.47472	3.16843
 169	1	2	0.017614	-2.57665	-1.97727	2.59122
 170	1	2	0.005524	-1.83165	-0.859169	3.7118
 171	1	1	-0.245806	0.811974	-1.81665	3.52556
 172	1	1	-0.291525	-1.01128	-3.36383	4.33752
 173	1	2	-0.003466	-0.378175	-3.13422	2.31575
 174	1	2	0.0629	-1.95198	-3.8701	4.08694
 175	1	2	0.058439	-1.17468	-2.76714	5.24415
 176	1	2	0.076366	-0.264916	-4.13492	4.56566
 177	1	2	0.061036	0.693807	-1.09596	4.34452
 178	1	2	0.060061	1.2409	-1.29206	2.66417
 179	1	2	0.042474	1.53977	-2.57458	3.84139
 180	1	2	-0.019174	-0.409207	0.0604811	1.88569
 181	1	1	-0.06457	-2.45574	0.608074	1.49313
 182	1	1	0.061186	-2.4325	1.7413	2.56443
 183	1	2	0.013749	-2.39793	1.07478	0.500655
 184	1	2	0.012175	-3.42609	0.101646	1.51582
 185	1	1	-0.029522	-1.31444	2.77107	2.2057
 186	1	1	0.182537	-0.987712	3.85115	3.27547
 187	1	2	0.017614	-1.59096	3.27629	1.27071
 188	1	2	0.005524	-0.383422	2.23538	1.98877
 189	1	1	-0.245806	0.177437	4.73974	2.79081
 190	1	1	-0.291525	-0.645612	3.25516	4.65932
 191	1	2	-0.003466	-1.85482	4.50585	3.39481
 192	1	2	0.0629	-0.333629	4.04511	5.35381
 193	1	2	0.058439	0.170915	2.52615	4.58209
 194	1	2	0.076366	-1.51398	2.75711	5.10594
 195	1	2	0.061036	0.374397	5.54778	3.50632
 196	1	2	0.060061	-0.0589293	5.19904	1.82278
 197	1	2	0.042474	1.09819	4.15348	2.67575
 198	1	2	-0.019174	-2.18515	1.30223	3.53487
 199	1	1	-0.06457	-3.84026	2.40915	2.6798
 200	1	1	0.061186	-4.76371	1.8865	3.83206
 201	1	2	0.013749	-3.70142	3.48293	2.81667
 202	1	2	0.012175	-4.36668	2.31575	1.72056
 203	1	1	-0.029522	-4.95155	0.33651	3.78488
 204	1	1	0.182537	-5.81708	-0.30795	4.90608
 205	1	2	0.017614	-3.97029	-0.140736	3.8333
 206	1	2	0.005524	-5.38401	0.0626259	2.81366
 207	1	1	-0.245806	-5.31429	0.0388185	6.32561
 208	1	1	-0.291525	-5.85592	-1.84121	4.73132
 209	1	2	-0.003466	-6.85112	0.0441346	4.81193
 210	1	2	0.0629	-4.8529	-2.27566	4.83066
 211	1	2	0.058439	-6.25014	-2.11118	3.74358
 212	1	2	0.076366	-6.50354	-2.30208	5.48784
 213	1	2	0.061036	-5.91363	-0.478844	7.08501
 214	1	2	0.060061	-5.39209	1.11389	6.52617
 215	1	2	0.042474	-4.26699	-0.262307	6.45569
 216	1	2	-0.019174	-4.27556	2.1183	4.78275
 217	1	1	-0.06457	-6.15198	2.59419	3.7905
 218	1	1	0.061186	-6.20686	4.15591	3.85075
 219	1	2	0.013749	-6.61504	2.25215	2.86266
 220	1	2	0.012175	-6.78405	2.22107	4.60346
 221	1	1	-0.029522	-5.74777	4.70536	5.24115
 222	1	1	0.182537	-4.23046	5.00269	5.41272
 223	1	2	0.017614	-6.06935	4.00104	6.01942
 224	1	2	0.005524	-6.28346	5.63883	5.45922
 225	1	1	-0.245806	-3.89801	5.28092	6.89319
 226	1	1	-0.291525	-3.76722	6.19658	4.55311
 227	1	2	-0.003466	-3.64391	4.13139	5.11595
 228	1	2	0.0629	-4.34812	7.09681	4.78549
 229	1	2	0.058439	-3.87491	5.97949	3.48531
 230	1	2	0.076366	-2.70938	6.42123	4.73855
 231	1	2	0.061036	-4.18539	4.43056	7.52404
 232	1	2	0.060061	-4.42687	6.17187	7.25461
 233	1	2	0.042474	-2.82091	5.44517	7.02479
 234	1	2	-0.019174	-5.55275	4.56753	3.08004
 235	1	1	-0.06457	-7.63998	4.70863	3.53728
 236	1	1	0.061186	-8.37529	4.23716	2.23375
 237	1	2	0.013749	-8.29234	4.50376	4.3966
 238	1	2	0.012175	-7.5753	5.80256	3.50378
 239	1	1	-0.029522	-9.1171	2.87397	2.46682
 240	1	1	0.182537	-10.651	2.85948	2.21829
 241	1	2	0.017614	-8.96373	2.53804	3.49967
 242	1	2	0.005524	-8.66511	2.08686	1.84995
 243	1	1	-0.245806	-11.0333	3.16839	0.756229
 244	1	1	-0.291525	-11.4217	3.77819	3.19252
 245	1	2	-0.003466	-10.9851	1.83348	2.42134
 246	1	2	0.0629	-12.5034	3.62937	3.08443
 247	1	2	0.058439	-11.2099	4.83765	3.00547
 248	1	2	0.076366	-11.155	3.55373	4.23274
 249	1	2	0.061036	-12.0975	2.96087	0.588117
 250	1	2	0.060061	-10.4556	2.54745	0.0602575
 251	1	2	0.042474	-10.8583	4.2211	0.512601
 252	1	2	-0.019174	-9.15253	4.98744	2.0614
 253	1	1	-0.06457	-7.47991	4.20542	0.943529
 254	1	1	0.061186	-7.3669	5.5131	0.0963863
 255	1	2	0.013749	-6.46993	3.85968	1.18388
 256	1	2	0.012175	-7.86749	3.43221	0.268194
 257	1	1	-0.029522	-8.72583	5.79491	-0.620706
 258	1	1	0.182537	-8.73382	6.82901	-1.77855
 259	1	2	0.017614	-9.45738	6.11991	0.128928
 260	1	2	0.005524	-9.10734	4.84996	-1.02876
 261	1	1	-0.245806	-10.1758	7.0227	-2.29548
 262	1	1	-0.291525	-7.82631	6.41374	-2.96024
 263	1	2	-0.003466	-8.39989	7.7993	-1.39385
 264	1	2	0.0629	-7.88174	7.15533	-3.76692
 265	1	2	0.058439	-8.13658	5.44416	-3.36986
 266	1	2	0.076366	-6.77546	6.33388	-2.66223
 267	1	2	0.061036	-10.8419	7.34624	-1.48591
 268	1	2	0.060061	-10.573	6.08714	-2.71019
 269	1	2	0.042474	-10.2092	7.7856	-3.08327
 270	1	2	-0.019174	-6.62003	5.27917	-0.671597
 271	1	1	-0.06457	-6.83286	6.72912	0.91265
 272	1	1	0.061186	-5.91505	7.69535	0.117553
 273	1	2	0.013749	-6.23	6.356	1.74515
 274	1	2	0.012175	-7.67986	7.27514	1.34765
 275	1	1	-0.029522	-5.87723	9.15955	0.638037
 276	1	1	0.182537	-5.24777	9.43538	2.03461
 277	1	2	0.017614	-6.89437	9.57112	0.616504
 278	1	2	0.005524	-5.30997	9.7466	-0.0960594
 279	1	1	-0.245806	-3.81463	8.87926	2.17046
 280	1	1	-0.291525	-6.13446	8.99166	3.21884
 281	1	2	-0.003466	-5.16673	10.5272	2.11697
 282	1	2	0.0629	-6.15308	7.90409	3.33346
 283	1	2	0.058439	-7.16488	9.34584	3.09051
 284	1	2	0.076366	-5.75226	9.41255	4.15718
 285	1	2	0.061036	-3.39233	9.13298	3.15107
 286	1	2	0.060061	-3.15855	9.30591	1.40183
 287	1	2	0.042474	-3.79635	7.78945	2.06629
 288	1	2	-0.019174	-4.90092	7.27933	0.0764554
 289	1	2	0	12.5278	0.274681	-4.46157
 290	1	2	0	-6.24163	7.74231	-0.923725

Velocities

   1	0.000236851	8.28971e-05	-9.59994e-05
   2	0.000163982	0.000149542	-2.95833e-05
   3	0.000519397	3.13396e-05	0.000457284
   4	0.000576052	-0.000260427	-0.000617982
   5	2.84804e-05	8.24495e-05	-3.78678e-05
   6	-0.000207176	-7.36785e-05	-0.000163414
   7	-2.40407e-05	0.000121855	0.000137483
   8	9.67177e-05	0.000108489	-0.000101654
   9	-0.000424971	-0.000412006	-9.36369e-05
  10	-0.000208939	-0.000104604	-4.58666e-05
  11	-0.000275006	2.56178e-05	-0.000381481
  12	-0.000209154	-0.000114236	0.000236969
  13	-6.37452e-05	4.12902e-05	-0.000145396
  14	-0.000432946	-0.000221819	-0.000155729
  15	-0.000725943	-0.000465242	-0.000138492
  16	-0.000266395	-0.000680832	4.54377e-05
  17	-0.000485925	-0.000362727	-0.000132227
  18	0.00019458	0.000181123	-5.47281e-05
  19	8.47444e-05	0.000164678	-3.42687e-05
  20	-2.36766e-05	0.000124673	-8.87097e-05
  21	5.71249e-05	0.000161581	-0.000115407
  22	5.29529e-05	0.000173648	-3.87004e-07
  23	-7.94224e-05	0.000206451	-6.66708e-05
  24	-0.000169953	0.000113284	-1.44761e-05
  25	-0.000129361	0.000288608	-5.24479e-05
  26	1.84961e-05	0.000261699	-9.46044e-05
  27	-0.000305153	-6.73475e-05	-0.000114055
  28	-0.000208512	0.000110643	0.000215423
  29	-0.00012226	0.000165789	-0.000102152
  30	-0.000207039	0.000358082	0.00025338
  31	-0.000218035	-0.000106114	0.000129419
  32	-0.000247247	2.63447e-05	0.000508978
  33	-0.000372665	-0.000138765	9.39485e-07
  34	-0.00032603	-0.000123863	-0.000100646
  35	-0.000258116	-0.000101289	-0.000237276
  36	-7.30036e-05	0.000202662	-5.84843e-05
  37	-4.94637e-05	-6.00018e-05	-0.000247058
  38	-5.65054e-05	4.50347e-05	1.7611e-05
  39	0.000136353	3.36319e-05	-0.000665145
  40	-0.00019279	-0.000503048	-0.00028233
  41	-7.61873e-05	4.99192e-05	-1.59234e-05
  42	9.30751e-05	5.27354e-05	-8.1995e-05
  43	-8.73757e-05	9.06562e-05	7.92865e-05
  44	-0.000139036	-4.70774e-05	-2.68374e-05
  45	0.000325199	0.000157172	-9.71063e-06
  46	-1.01309e-05	0.000132251	1.67521e-05
  47	9.74757e-05	-2.08285e-06	-0.000270016
  48	0.000267947	0.00013649	-4.91038e-05
  49	-5.48212e-05	0.000321829	0.000285623
  50	-0.000251266	-1.50172e-05	-6.22433e-05
  51	0.000596353	0.000164964	9.78439e-06
  52	0.000346893	2.8171e-06	-0.000101299
  53	0.000252334	0.000358618	0.000123192
  54	4.4629e-05	0.000150279	4.5941e-05
  55	-0.000123915	2.74799e-05	0.00017399
  56	-0.000132697	4.77443e-05	0.000168924
  57	-0.00011935	6.29395e-05	0.000282276
  58	-6.46702e-05	-7.35037e-05	0.000187807
  59	-0.000129937	0.00012525	0.000167694
  60	-9.57387e-05	-4.29872e-05	0.000148326
  61	-4.67954e-05	0.000206831	0.000229162
  62	-0.00025392	0.000196223	0.000119656
  63	-0.000229227	-0.000193918	4.65436e-06
  64	-8.53057e-05	5.72524e-05	0.000174194
  65	3.3137e-05	-0.000125032	0.00020763
  66	-5.96183e-05	9.05506e-05	0.000231465
  67	-7.02695e-05	2.6475e-05	0.000210935
  68	-0.000119815	9.0152e-05	0.00014148
  69	-0.000225982	2.32925e-06	-0.000360366
  70	-0.000138334	-0.000129796	0.000273259
  71	-0.000459225	-0.000539528	-3.89415e-05
  72	-0.000139008	6.44113e-05	0.000150781
  73	-4.60981e-05	5.05477e-05	0.000200157
  74	-1.38827e-05	-5.37725e-05	0.000123962
  75	2.24652e-06	5.69646e-05	0.000219798
  76	-8.71222e-06	6.21444e-05	0.000223197
  77	3.60701e-05	3.74206e-05	0.000148694
  78	4.62596e-05	-5.25423e-05	0.000134207
  79	0.000112367	9.93319e-05	0.000190972
  80	-4.669e-05	5.11712e-05	0.000242348
  81	0.000105022	0.000129284	0.000107939
  82	7.92895e-05	-0.000218364	-2.05847e-05
  83	2.1874e-05	-8.80179e-05	0.000258801
  84	8.99865e-05	-0.000362462	4.57588e-05
  85	9.27645e-05	-0.000176378	-0.000169689
  86	9.79831e-05	-0.000277532	-5.70812e-05
  87	0.000140736	0.000245056	0.000233042
  88	8.44355e-05	6.06056e-05	0.000131169
  89	0.000142607	0.000188365	-5.66987e-05
  90	-3.70072e-05	-9.80143e-05	0.000116551
  91	8.40968e-05	-1.83599e-05	6.82278e-06
  92	1.70281e-05	-8.94297e-05	-1.73894e-05
  93	0.000126926	2.75466e-05	3.882e-05
  94	0.00011628	-3.31171e-05	-2.37723e-05
  95	2.05372e-05	-2.62636e-05	-6.4355e-05
  96	-2.59419e-05	-8.48981e-05	-3.26081e-05
  97	5.44817e-05	-4.54501e-05	-4.98847e-05
  98	8.93559e-06	-4.67271e-05	-8.52672e-05
  99	-1.40776e-05	-8.42159e-05	4.36716e-05
 100	-2.32409e-05	-0.000108176	-4.49353e-05
 101	-3.81148e-05	-9.71059e-05	-5.40036e-05
 102	-1.10434e-05	-0.000103732	-5.56938e-05
 103	-6.53942e-05	-0.000106775	-4.89393e-05
 104	-4.14399e-05	-0.000122162	-6.82462e-05
 105	-2.22229e-05	-8.53029e-05	9.32391e-05
 106	1.98197e-05	-0.000141602	5.0286e-05
 107	-3.50869e-05	-4.3082e-05	5.73807e-05
 108	2.52681e-05	-7.2633e-05	-2.53667e-05
 109	2.02666e-05	-9.27815e-05	-5.83028e-05
 110	4.51662e-05	-0.000129793	-5.52062e-05
 111	2.19707e-05	-0.000136576	-6.23554e-05
 112	-3.58458e-05	-0.00010971	-4.34838e-05
 113	5.47047e-05	-3.97468e-05	-3.23658e-05
 114	6.72434e-05	-0.00014993	-7.1191e-05
 115	-0.000101181	1.79491e-05	6.17296e-05
 116	0.000148124	9.61437e-05	-1.25338e-05
 117	-7.88045e-05	-7.01375e-05	-0.000187548
 118	0.000146731	-0.00040073	-0.000176026
 119	0.000168658	-0.000123853	2.27111e-05
 120	0.000311395	-0.000477674	-9.58872e-05
 121	3.09704e-05	-0.000476111	-0.000297225
 122	0.000163957	-0.000468971	-0.000195854
 123	-0.000165081	9.18165e-05	-3.89061e-05
 124	2.14592e-05	-0.000191494	-0.000217413
 125	-0.000212487	-6.75358e-05	-0.000392456
 126	0.000142508	-0.000163697	-7.84859e-05
 127	1.60858e-05	-0.000201156	-0.00013687
 128	-1.55488e-05	-0.000223815	-0.000115662
 129	5.75996e-05	-0.000179588	-8.92962e-05
 130	-1.978e-05	-0.000172125	-0.000161158
 131	6.16218e-05	-0.000309612	-0.00013118
 132	0.00032036	-0.000373453	-0.000132935
 133	5.36722e-05	-0.000191079	-0.000177413
 134	-2.04861e-05	-0.000386868	-5.07066e-05
 135	0.00023757	-0.00057595	-0.00014324
 136	0.000573057	-0.000582568	-7.4314e-05
 137	0.000399779	-0.000202813	-0.000112898
 138	0.000487375	-0.00082941	-6.80237e-05
 139	0.000809732	-0.000599499	-2.32856e-05
 140	0.0006415	-0.00043766	-6.70784e-05
 141	0.000124572	-0.000476742	-0.000143785
 142	0.0004075	-0.000626	-0.00014724
 143	0.000174138	-0.000718601	-0.000175056
 144	-9.7537e-05	-0.000203362	-0.00013243
 145	-2.6174e-05	-0.000331943	-6.89577e-05
 146	9.56454e-06	-0.000226494	0.000210457
 147	-0.000138412	-0.000503402	-8.80879e-05
 148	-1.61457e-05	-0.000253893	-0.000207156
 149	2.68129e-06	4.53375e-05	0.000310393
 150	6.92666e-05	0.000174603	0.000155101
 151	4.10912e-05	0.000200354	0.000298342
 152	-5.52098e-05	7.32069e-05	0.000552466
 153	3.87271e-05	3.52948e-05	0.000208394
 154	0.000155145	0.000498144	0.000257226
 155	0.000112921	0.00014383	-5.52242e-05
 156	0.0001779	0.000553871	0.000226582
 157	0.000216208	0.000536488	0.000497978
 158	0.000184549	0.000664007	0.000100332
 159	7.78463e-06	-0.00019284	0.000124023
 160	6.96559e-05	0.00018123	8.95055e-05
 161	3.19425e-05	3.87267e-05	0.000458913
 162	2.52232e-05	-0.000315951	0.000316643
 163	3.05215e-05	-0.000275318	0.0002371
 164	-3.83994e-05	-0.000241967	0.000227739
 165	-2.07645e-05	-0.000289298	0.00029977
 166	0.000118528	-0.000293466	0.000257862
 167	-0.000134202	-0.000433401	2.20684e-05
 168	1.6099e-05	-0.000326288	-2.61485e-05
 169	-1.27389e-05	-0.000569191	-0.000214015
 170	-0.000381364	-0.000595258	9.16149e-05
 171	-0.000115664	-7.56717e-05	3.95044e-05
 172	0.00026093	-0.000613356	-0.00018039
 173	0.00017789	-0.000182347	-9.81138e-05
 174	0.000455898	-0.000931005	-0.000284279
 175	-6.39833e-06	-0.000784763	-0.000106672
 176	0.00052058	-0.000372743	-0.000215294
 177	-0.000316181	-0.000133304	6.3067e-05
 178	-0.000183951	3.66708e-05	0.000101535
 179	3.42102e-05	7.26154e-05	4.01337e-05
 180	-1.63731e-05	-0.000322568	0.000315534
 181	0.000163296	-4.61259e-05	0.000140037
 182	0.000156777	-1.72833e-05	0.000168452
 183	0.000384522	-2.38075e-05	0.000160496
 184	7.98678e-05	0.000108024	-4.56327e-05
 185	0.000341525	-0.000141619	0.000321951
 186	3.92619e-05	1.75846e-05	0.00028523
 187	0.000645743	-0.000256689	0.0001698
 188	0.000378269	-0.000220249	0.000706691
 189	-0.000240586	0.000363821	0.00023802
 190	0.000265871	8.27173e-05	0.000273079
 191	-0.000118718	-0.000207867	0.0003526
 192	0.000143085	0.00015193	0.000250107
 193	0.000401174	0.000243844	0.000221654
 194	0.000373481	-9.53932e-05	0.00031407
 195	-0.000196824	0.000186717	0.000421413
 196	-0.000618366	0.000610787	0.000447338
 197	-0.000167639	0.000576821	-0.000212302
 198	8.80181e-05	-7.70374e-05	0.000166373
 199	0.000220217	0.000169129	3.46048e-05
 200	0.000141689	0.000267346	4.87869e-05
 201	0.000205832	0.000173779	-5.23765e-05
 202	0.000251337	9.67387e-05	4.50593e-05
 203	0.000239111	0.000297824	-8.99408e-05
 204	0.000188375	0.0001745	-0.000208099
 205	0.000229855	0.000330545	-2.80491e-06
 206	0.000326843	0.000345126	-0.000142141
 207	6.51699e-05	0.000243954	-0.000201106
 208	0.000504876	0.000207973	-0.000404158
 209	0.000165123	2.46846e-05	-0.000307113
 210	0.000580066	0.000388272	-0.000400621
 211	0.000617413	0.000269942	-0.000477208
 212	0.000523305	-3.45727e-05	-0.000504384
 213	0.00036632	-0.000171031	-0.000217482
 214	-0.00050155	0.000183714	-7.12804e-05
 215	0.000224318	0.000797456	-0.000272431
 216	0.000131369	0.000236064	3.76997e-05
 217	9.30379e-05	0.00016231	2.34367e-05
 218	-7.08407e-05	0.000130555	7.28991e-05
 219	0.000120729	0.00014095	4.65524e-05
 220	0.000133221	9.98813e-05	4.09499e-05
 221	-0.000341496	0.000194697	0.000119305
 222	-0.000383354	0.000280518	0.000285805
 223	-0.00037929	0.000154368	0.000102298
 224	-0.0004262	0.000141035	7.57775e-05
 225	-0.000478776	1.79956e-05	0.000323557
 226	-0.000465037	0.000475241	0.000516662
 227	-0.00033366	0.000385866	8.31113e-05
 228	0.000387308	0.000721661	0.00159826
 229	-0.0016185	0.00114835	0.000500852
 230	-9.74368e-05	-0.000371096	-0.000397761
 231	-2.51497e-05	-0.000323781	9.54072e-05
 232	-0.000898551	-0.00036236	0.00062704
 233	-0.000535984	0.000524003	0.00035028
 234	1.25962e-05	0.000140824	0.000116773
 235	-2.01046e-05	0.00015883	-0.000125507
 236	6.91994e-05	-2.54069e-05	-9.10129e-05
 237	-8.57254e-05	0.000281553	-0.000149321
 238	1.75162e-05	0.000115076	-0.000271932
 239	0.000103991	2.54026e-05	4.22722e-05
 240	0.000119302	0.000159341	-7.87398e-05
 241	2.15232e-05	8.58663e-05	8.02112e-05
 242	7.77823e-05	-5.37349e-05	0.000119858
 243	0.000395104	0.000591402	-6.57733e-05
 244	0.000163406	0.00010217	3.72615e-05
 245	-8.8666e-06	0.000179672	-0.000336031
 246	0.000130055	0.000486818	-0.000296768
 247	0.000541605	9.04789e-05	0.000478441
 248	-0.00018576	-0.000358999	3.24654e-05
 249	0.000376861	0.000899061	-0.000290773
 250	0.000374085	0.000613112	-0.000102267
 251	0.000675985	0.000595223	0.00022198
 252	5.77877e-05	-6.54403e-06	-0.000143464
 253	-1.80275e-06	-4.87307e-05	-0.000200184
 254	-8.22383e-05	-6.60184e-05	-0.000177328
 255	1.25404e-05	7.06924e-05	-0.000114497
 256	2.47785e-05	-0.000127895	-0.000105215
 257	-0.000121755	0.000295404	-5.521e-07
 258	4.19881e-05	0.000360098	1.35088e-05
 259	5.34624e-05	0.000527423	8.78538e-05
 260	-0.000434082	0.000426111	3.49122e-05
 261	0.000102704	0.00107551	0.000162921
 262	-0.000197846	5.00687e-05	-9.33504e-05
 263	0.000387873	0.000249597	-2.70631e-05
 264	-0.000361268	-0.000177604	-0.000275004
 265	-0.000288127	-5.26131e-05	0.00025678
 266	-0.000154549	0.000145208	-0.000282106
 267	0.000414718	0.00163125	0.000218965
 268	-0.000506931	0.00124541	0.000371586
 269	0.0004569	0.000989649	5.26352e-05
 270	-0.000215418	-8.35319e-05	-0.000328553
 271	0.000135117	-0.000299796	-0.000128918
 272	-0.000347791	5.36741e-05	-0.000206074
 273	0.000580604	-0.000485375	-0.000502079
 274	0.000241811	-0.000554367	0.000395933
 275	-0.000933802	-7.43722e-06	-6.00149e-05
 276	-0.000415552	-0.000112056	-0.000318194
 277	-0.00119822	-0.000612965	0.000539118
 278	-0.00164233	0.000440462	-0.000213227
 279	-0.000315364	-4.62293e-05	-0.00101113
 280	0.000144135	-0.000496026	-1.35603e-05
 281	-0.000529931	-0.000121994	-0.000207391
 282	0.000328436	-0.000550961	-0.00028966
 283	2.01547e-05	-0.000605869	0.000467347
 284	0.000456439	-0.000658884	-7.99553e-05
 285	0.000549473	0.000908209	-0.00164745
 286	-0.000989786	-0.000902723	-0.00206267
 287	-0.000493407	-0.000167721	6.02968e-05
 288	-0.000171403	0.000423248	-0.000390039
 289	-0.000268027	0.000335215	-0.000277833
 290	-0.00039771	1.32834e-05	-0.000235661

Bonds

   1	2	1	2
   2	1	1	3
   3	1	1	4
   4	2	2	5
   5	1	2	18
   6	2	5	6
   7	1	5	7
   8	1	5	8
   9	2	6	9
  10	2	6	10
  11	1	6	11
  12	1	9	15
  13	1	9	16
  14	1	9	17
  15	1	10	12
  16	1	10	13
  17	1	10	14
  18	2	19	20
  19	1	19	21
  20	1	19	22
  21	2	20	23
  22	1	20	36
  23	2	23	24
  24	1	23	25
  25	1	23	26
  26	2	24	27
  27	2	24	28
  28	1	24	29
  29	1	27	33
  30	1	27	34
  31	1	27	35
  32	1	28	30
  33	1	28	31
  34	1	28	32
  35	2	2	19
  36	2	37	38
  37	1	37	39
  38	1	37	40
  39	2	38	41
  40	1	38	54
  41	2	41	42
  42	1	41	43
  43	1	41	44
  44	2	42	45
  45	2	42	46
  46	1	42	47
  47	1	45	51
  48	1	45	52
  49	1	45	53
  50	1	46	48
  51	1	46	49
  52	1	46	50
  53	2	20	37
  54	2	55	56
  55	1	55	57
  56	1	55	58
  57	2	56	59
  58	1	56	72
  59	2	59	60
  60	1	59	61
  61	1	59	62
  62	2	60	63
  63	2	60	64
  64	1	60	65
  65	1	63	69
  66	1	63	70
  67	1	63	71
  68	1	64	66
  69	1	64	67
  70	1	64	68
  71	2	38	55
  72	2	73	74
  73	1	73	75
  74	1	73	76
  75	2	74	77
  76	1	74	90
  77	2	77	78
  78	1	77	79
  79	1	77	80
  80	2	78	81
  81	2	78	82
  82	1	78	83
  83	1	81	87
  84	1	81	88
  85	1	81	89
  86	1	82	84
  87	1	82	85
  88	1	82	86
  89	2	56	73
  90	2	91	92
  91	1	91	93
  92	1	91	94
  93	2	92	95
  94	1	92	108
  95	2	95	96
  96	1	95	97
  97	1	95	98
  98	2	96	99
  99	2	96	100
 100	1	96	101
 101	1	99	105
 102	1	99	106
 103	1	99	107
 104	1	100	102
 105	1	100	103
 106	1	100	104
 107	2	74	91
 108	2	109	110
 109	1	109	111
 110	1	109	112
 111	2	110	113
 112	1	110	126
 113	2	113	114
 114	1	113	115
 115	1	113	116
 116	2	114	117
 117	2	114	118
 118	1	114	119
 119	1	117	123
 120	1	117	124
 121	1	117	125
 122	1	118	120
 123	1	118	121
 124	1	118	122
 125	2	92	109
 126	2	127	128
 127	1	127	129
 128	1	127	130
 129	2	128	131
 130	1	128	144
 131	2	131	132
 132	1	131	133
 133	1	131	134
 134	2	132	135
 135	2	132	136
 136	1	132	137
 137	1	135	141
 138	1	135	142
 139	1	135	143
 140	1	136	138
 141	1	136	139
 142	1	136	140
 143	2	110	127
 144	2	145	146
 145	1	145	147
 146	1	145	148
 147	2	146	149
 148	1	146	162
 149	2	149	150
 150	1	149	151
 151	1	149	152
 152	2	150	153
 153	2	150	154
 154	1	150	155
 155	1	153	159
 156	1	153	160
 157	1	153	161
 158	1	154	156
 159	1	154	157
 160	1	154	158
 161	2	128	145
 162	2	163	164
 163	1	163	165
 164	1	163	166
 165	2	164	167
 166	1	164	180
 167	2	167	168
 168	1	167	169
 169	1	167	170
 170	2	168	171
 171	2	168	172
 172	1	168	173
 173	1	171	177
 174	1	171	178
 175	1	171	179
 176	1	172	174
 177	1	172	175
 178	1	172	176
 179	2	146	163
 180	2	181	182
 181	1	181	183
 182	1	181	184
 183	2	182	185
 184	1	182	198
 185	2	185	186
 186	1	185	187
 187	1	185	188
 188	2	186	189
 189	2	186	190
 190	1	186	191
 191	1	189	195
 192	1	189	196
 193	1	189	197
 194	1	190	192
 195	1	190	193
 196	1	190	194
 197	2	164	181
 198	2	199	200
 199	1	199	201
 200	1	199	202
 201	2	200	203
 202	1	200	216
 203	2	203	204
 204	1	203	205
 205	1	203	206
 206	2	204	207
 207	2	204	208
 208	1	204	209
 209	1	207	213
 210	1	207	214
 211	1	207	215
 212	1	208	210
 213	1	208	211
 214	1	208	212
 215	2	182	199
 216	2	217	218
 217	1	217	219
 218	1	217	220
 219	2	218	221
 220	1	218	234
 221	2	221	222
 222	1	221	223
 223	1	221	224
 224	2	222	225
 225	2	222	226
 226	1	222	227
 227	1	225	231
 228	1	225	232
 229	1	225	233
 230	1	226	228
 231	1	226	229
 232	1	226	230
 233	2	200	217
 234	2	235	236
 235	1	235	237
 236	1	235	238
 237	2	236	239
 238	1	236	252
 239	2	239	240
 240	1	239	241
 241	1	239	242
 242	2	240	243
 243	2	240	244
 244	1	240	245
 245	1	243	249
 246	1	243	250
 247	1	243	251
 248	1	244	246
 249	1	244	247
 250	1	244	248
 251	2	218	235
 252	2	253	254
 253	1	253	255
 254	1	253	256
 255	2	254	257
 256	1	254	270
 257	2	257	258
 258	1	257	259
 259	1	257	260
 260	2	258	261
 261	2	258	262
 262	1	258	263
 263	1	261	267
 264	1	261	268
 265	1	261	269
 266	1	262	264
 267	1	262	265
 268	1	262	266
 269	2	236	253
 270	2	271	272
 271	1	271	273
 272	1	271	274
 273	2	272	275
 274	1	272	288
 275	2	275	276
 276	1	275	277
 277	1	275	278
 278	2	276	279
 279	2	276	280
 280	1	276	281
 281	1	279	285
 282	1	279	286
 283	1	279	287
 284	1	280	282
 285	1	280	283
 286	1	280	284
 287	2	254	271
 288	1	1	289
 289	1	272	290

Angles

   1	1	2	1	3
   2	1	2	1	4
   3	2	3	1	4
   4	3	1	2	5
   5	1	1	2	18
   6	1	5	2	18
   7	3	2	5	6
   8	1	2	5	7
   9	1	2	5	8
  10	1	6	5	7
  11	1	6	5	8
  12	2	7	5	8
  13	3	5	6	9
  14	3	5	6	10
  15	1	5	6	11
  16	3	9	6	10
  17	1	9	6	11
  18	1	10	6	11