pySIMM System Object

902 atoms
901 bonds
1800 angles
2691 dihedrals
0 impropers

2 atom types
2 bond types
3 angle types
3 dihedral types

-119.639584 119.639584 xlo xhi
-119.639584 119.639584 ylo yhi
-119.639584 119.639584 zlo zhi

Masses

   1	12.01	# c3
   2	1.008	# hc

Pair Coeffs

   1	0.1094	3.3996695084235347	# c3
   2	0.0157	2.649532787749369	# hc

Bond Coeffs

   1	330.6	1.0969	# c3,hc
   2	300.9	1.5375	# c3,c3

Angle Coeffs

   1	46.34	109.8	# c3,c3,hc
   2	39.4	107.58	# hc,c3,hc
   3	62.86	111.51	# c3,c3,c3

Dihedral Coeffs

   1	1	0.16	3	0	# hc,c3,c3,c3
   2	1	0.15	3	0	# hc,c3,c3,hc
   3	3	0.18	3	0	0.25	2	180	0.2	1	180	# c3,c3,c3,c3

Atoms

   1	1	1	-0.06457	9.41262	20.2263	9.62673
   2	1	1	0.061186	9.85256	20.5392	8.17509
   3	1	2	0.013749	9.20838	19.157	9.75825
   4	1	2	0.012175	10.1941	20.5115	10.3426
   5	1	1	-0.029522	10.2085	22.0409	7.98179
   6	1	1	0.182537	9.04761	23.0518	8.19814
   7	1	2	0.017614	10.59	22.1819	6.96187
   8	1	2	0.005524	11.035	22.2961	8.658
   9	1	1	-0.245806	7.85833	22.808	7.2408
  10	1	1	-0.291525	9.56175	24.4962	8.02072
  11	1	2	-0.003466	8.68276	22.9628	9.22861
  12	1	2	0.0629	9.93405	24.6595	7.0013
  13	1	2	0.058439	10.3777	24.7079	8.72314
  14	1	2	0.076366	8.76009	25.2206	8.21123
  15	1	2	0.061036	7.36221	21.8544	7.4563
  16	1	2	0.060061	8.19093	22.7969	6.19499
  17	1	2	0.042474	7.10437	23.5976	7.34971
  18	1	2	-0.019174	9.01399	20.3221	7.51065
  19	1	1	-0.06457	11.0568	19.6516	7.74741
  20	1	1	0.061186	10.7961	18.1153	7.583
  21	1	2	0.013749	11.4922	20.049	6.82445
  22	1	2	0.012175	11.8481	19.7872	8.49584
  23	1	1	-0.029522	11.9589	17.4183	6.81388
  24	1	1	0.182537	13.3841	17.6125	7.40406
  25	1	2	0.017614	11.9691	17.7905	5.78201
  26	1	2	0.005524	11.749	16.3422	6.74969
  27	1	1	-0.245806	14.435	16.9675	6.47788
  28	1	1	-0.291525	13.5233	17.0353	8.8301
  29	1	2	-0.003466	13.6128	18.6845	7.44458
  30	1	2	0.0629	12.8752	17.5624	9.53994
  31	1	2	0.058439	14.5544	17.1393	9.19039
  32	1	2	0.076366	13.2621	15.9697	8.8493
  33	1	2	0.061036	14.279	15.8842	6.40293
  34	1	2	0.060061	15.4492	17.1409	6.85924
  35	1	2	0.042474	14.3791	17.3944	5.46848
  36	1	2	-0.019174	10.8035	17.7134	8.60327
  37	1	1	-0.06457	9.40238	17.6687	7.01541
  38	1	1	0.061186	9.13626	17.7286	5.47151
  39	1	2	0.013749	9.30453	16.6208	7.32011
  40	1	2	0.012175	8.59126	18.1794	7.54599
  41	1	1	-0.029522	7.72585	17.1544	5.12448
  42	1	1	0.182537	7.42297	15.6994	5.58355
  43	1	2	0.017614	7.57968	17.1894	4.04067
  44	1	2	0.005524	6.96318	17.8182	5.55276
  45	1	1	-0.245806	8.46235	14.6797	5.07153
  46	1	1	-0.291525	6.01445	15.2742	5.11732
  47	1	2	-0.003466	7.41723	15.6626	6.67951
  48	1	2	0.0629	5.76992	14.269	5.48328
  49	1	2	0.058439	5.94848	15.2638	4.02181
  50	1	2	0.076366	5.2528	15.9652	5.49971
  51	1	2	0.061036	8.17796	13.6666	5.37327
  52	1	2	0.060061	9.45779	14.8784	5.48521
  53	1	2	0.042474	8.52799	14.6986	3.97708
  54	1	2	-0.019174	9.87878	17.0898	4.98533
  55	1	1	-0.06457	9.27603	19.1746	4.90428
  56	1	1	0.061186	9.29011	19.3614	3.35775
  57	1	2	0.013749	10.2088	19.6098	5.25441
  58	1	2	0.012175	8.46962	19.7848	5.33085
  59	1	1	-0.029522	10.5577	18.7016	2.7184
  60	1	1	0.182537	10.3165	17.897	1.41105
  61	1	2	0.017614	11.3092	19.4786	2.52788
  62	1	2	0.005524	11.0451	18.0309	3.43377
  63	1	1	-0.245806	9.40601	16.6674	1.62356
  64	1	1	-0.291525	11.6624	17.4381	0.816269
  65	1	2	-0.003466	9.84386	18.549	0.670213
  66	1	2	0.0629	12.2783	18.3065	0.569193
  67	1	2	0.058439	11.5105	16.8644	-0.106564
  68	1	2	0.076366	12.2193	16.8127	1.52473
  69	1	2	0.061036	9.78306	16.039	2.43872
  70	1	2	0.060061	9.36245	16.0547	0.714494
  71	1	2	0.042474	8.37873	16.9636	1.86038
  72	1	2	-0.019174	8.3794	18.9157	2.95087
  73	1	1	-0.06457	9.23058	20.8975	3.09011
  74	1	1	0.061186	9.24072	21.3821	1.60725
  75	1	2	0.013749	8.33724	21.3111	3.57677
  76	1	2	0.012175	10.0866	21.3296	3.61837
  77	1	1	-0.029522	7.9904	20.8473	0.840883
  78	1	1	0.182537	7.88975	21.2182	-0.666891
  79	1	2	0.017614	7.08864	21.214	1.3486
  80	1	2	0.005524	7.95015	19.7558	0.918348
  81	1	1	-0.245806	9.12967	20.7848	-1.48232
  82	1	1	-0.291525	6.62026	20.5935	-1.28312
  83	1	2	-0.003466	7.78448	22.306	-0.759388
  84	1	2	0.0629	5.72278	20.9242	-0.745481
  85	1	2	0.058439	6.66035	19.4975	-1.24109
  86	1	2	0.076366	6.51071	20.8909	-2.33353
  87	1	2	0.061036	10.0333	21.3063	-1.14597
  88	1	2	0.060061	8.99376	21.0221	-2.54485
  89	1	2	0.042474	9.3008	19.7047	-1.39699
  90	1	2	-0.019174	10.1335	20.9689	1.12629
  91	1	1	-0.06457	9.32563	22.9426	1.50569
  92	1	1	0.061186	10.4371	23.666	2.33443
  93	1	2	0.013749	8.35476	23.3574	1.8071
  94	1	2	0.012175	9.44927	23.2027	0.453655
  95	1	1	-0.029522	10.3506	25.2217	2.21275
  96	1	1	0.182537	11.0499	25.9316	1.01208
  97	1	2	0.017614	10.7835	25.6415	3.1299
  98	1	2	0.005524	9.29402	25.5191	2.23611
  99	1	1	-0.245806	10.5344	25.5031	-0.378757
 100	1	1	-0.291525	10.9064	27.4616	1.15852
 101	1	2	-0.003466	12.1221	25.7174	1.04663
 102	1	2	0.0629	11.4485	27.9833	0.35977
 103	1	2	0.058439	11.3171	27.8028	2.11717
 104	1	2	0.076366	9.85249	27.7637	1.11003
 105	1	2	0.061036	10.85	24.4829	-0.622361
 106	1	2	0.060061	10.9445	26.1545	-1.16065
 107	1	2	0.042474	9.43981	25.56	-0.430509
 108	1	2	-0.019174	10.1793	23.4648	3.37846
 109	1	1	-0.06457	11.8629	23.0881	2.07275
 110	1	1	0.061186	13.0295	23.6204	2.96871
 111	1	2	0.013749	12.0946	23.2628	1.01776
 112	1	2	0.012175	11.8396	21.9997	2.19423
 113	1	1	-0.029522	12.6864	23.4804	4.48945
 114	1	1	0.182537	13.7849	23.9171	5.50226
 115	1	2	0.017614	12.4247	22.4329	4.69038
 116	1	2	0.005524	11.7906	24.0685	4.7183
 117	1	1	-0.245806	14.1406	25.4146	5.37492
 118	1	1	-0.291525	13.3382	23.6149	6.94701
 119	1	2	-0.003466	14.6941	23.3287	5.33505
 120	1	2	0.0629	13.128	22.5457	7.07366
 121	1	2	0.058439	12.4345	24.1796	7.20512
 122	1	2	0.076366	14.1246	23.8872	7.66198
 123	1	2	0.061036	14.5657	25.6419	4.39227
 124	1	2	0.060061	14.8851	25.7009	6.1283
 125	1	2	0.042474	13.2525	26.043	5.51847
 126	1	2	-0.019174	13.1718	24.6834	2.75231
 127	1	1	-0.06457	14.3582	22.8665	2.64118
 128	1	1	0.061186	14.8162	22.8066	1.15123
 129	1	2	0.013749	15.1835	23.2921	3.22125
 130	1	2	0.012175	14.2197	21.8477	3.00805
 131	1	1	-0.029522	14.9939	24.2098	0.489186
 132	1	1	0.182537	15.7847	25.3107	1.25663
 133	1	2	0.017614	13.9907	24.6048	0.293852
 134	1	2	0.005524	15.4387	24.081	-0.506157
 135	1	1	-0.245806	17.2604	24.9525	1.53413
 136	1	1	-0.291525	15.7177	26.6385	0.471641
 137	1	2	-0.003466	15.2991	25.4921	2.22026
 138	1	2	0.0629	16.2059	26.542	-0.506504
 139	1	2	0.058439	16.2161	27.4448	1.02422
 140	1	2	0.076366	14.6764	26.9428	0.306544
 141	1	2	0.061036	17.3416	24.1854	2.31098
 142	1	2	0.060061	17.8095	25.8295	1.89923
 143	1	2	0.042474	17.7597	24.594	0.625147
 144	1	2	-0.019174	14.009	22.3475	0.577532
 145	1	1	-0.06457	16.0637	21.8851	0.931628
 146	1	1	0.061186	15.8676	20.3363	1.05885
 147	1	2	0.013749	16.8729	22.1845	1.60314
 148	1	2	0.012175	16.4531	22.074	-0.0765896
 149	1	1	-0.029522	14.6488	19.7994	0.24497
 150	1	1	0.182537	14.6472	20.1265	-1.27481
 151	1	2	0.017614	13.7249	20.1816	0.695949
 152	1	2	0.005524	14.585	18.7128	0.349387
 153	1	1	-0.245806	15.8374	19.4781	-2.01621
 154	1	1	-0.291525	13.322	19.6666	-1.9185
 155	1	2	-0.003466	14.7106	21.2123	-1.41323
 156	1	2	0.0629	12.4635	20.1416	-1.42717
 157	1	2	0.058439	13.2029	18.5784	-1.84049
 158	1	2	0.076366	13.2914	19.9372	-2.98127
 159	1	2	0.061036	16.795	19.8784	-1.66356
 160	1	2	0.060061	15.7768	19.6765	-3.09353
 161	1	2	0.042474	15.8435	18.3907	-1.87062
 162	1	2	-0.019174	16.7678	19.9003	0.61471
 163	1	1	-0.06457	15.8254	19.8485	2.54465
 164	1	1	0.061186	16.6555	18.5741	2.89934
 165	1	2	0.013749	16.1602	20.6562	3.20482
 166	1	2	0.012175	14.7824	19.6658	2.83464
 167	1	1	-0.029522	18.1944	18.74	2.68946
 168	1	1	0.182537	18.8484	19.998	3.32611
 169	1	2	0.017614	18.4159	18.7307	1.61497
 170	1	2	0.005524	18.7054	17.8652	3.10851
 171	1	1	-0.245806	18.6539	20.0567	4.85822
 172	1	1	-0.291525	20.3543	20.042	2.99222
 173	1	2	-0.003466	18.4011	20.8971	2.88785
 174	1	2	0.0629	20.5126	20.0466	1.90647
 175	1	2	0.058439	20.8766	19.1725	3.41115
 176	1	2	0.076366	20.8168	20.9486	3.40227
 177	1	2	0.061036	19.0633	19.1595	5.33952
 178	1	2	0.060061	17.5938	20.1356	5.12569
 179	1	2	0.042474	19.1642	20.9318	5.27981
 180	1	2	-0.019174	16.491	18.4216	3.97113
 181	1	1	-0.06457	16.0971	17.3171	2.16666
 182	1	1	0.061186	16.7443	15.9385	2.50493
 183	1	2	0.013749	15.0176	17.2501	2.35744
 184	1	2	0.012175	16.209	17.4816	1.09155
 185	1	1	-0.029522	16.5422	15.5551	4.00085
 186	1	1	0.182537	17.3411	14.3156	4.49413
 187	1	2	0.017614	15.4725	15.3897	4.17189
 188	1	2	0.005524	16.8277	16.3951	4.64272
 189	1	1	-0.245806	16.9121	13.9414	5.92844
 190	1	1	-0.291525	18.8695	14.537	4.44886
 191	1	2	-0.003466	17.113	13.4576	3.85605
 192	1	2	0.0629	19.1552	15.4273	5.02335
 193	1	2	0.058439	19.2264	14.6602	3.4198
 194	1	2	0.076366	19.3969	13.6742	4.8743
 195	1	2	0.061036	17.4452	13.0467	6.27334
 196	1	2	0.060061	15.8373	13.7261	5.96979
 197	1	2	0.042474	17.1247	14.7587	6.62929
 198	1	2	-0.019174	17.8208	16.0192	2.33325
 199	1	1	-0.06457	16.1894	14.8454	1.53385
 200	1	1	0.061186	17.1701	14.4365	0.391126
 201	1	2	0.013749	15.9267	13.9555	2.11112
 202	1	2	0.012175	15.2403	15.1788	1.09312
 203	1	1	-0.029522	17.5493	15.6625	-0.501273
 204	1	1	0.182537	18.5414	15.4035	-1.66988
 205	1	2	0.017614	17.9971	16.4421	0.124823
 206	1	2	0.005524	16.6274	16.091	-0.915884
 207	1	1	-0.245806	19.8767	14.7904	-1.19135
 208	1	1	-0.291525	18.8176	16.7178	-2.43092
 209	1	2	-0.003466	18.0818	14.713	-2.38719
 210	1	2	0.0629	19.2851	17.4633	-1.77518
 211	1	2	0.058439	17.8859	17.1435	-2.8235
 212	1	2	0.076366	19.4887	16.5417	-3.28081
 213	1	2	0.061036	20.3534	15.4288	-0.436705
 214	1	2	0.060061	20.5737	14.6779	-2.0312
 215	1	2	0.042474	19.7267	13.7954	-0.755683
 216	1	2	-0.019174	18.0919	14.0874	0.869447
 217	1	1	-0.06457	16.5982	13.2735	-0.480515
 218	1	1	0.061186	16.1129	11.9714	0.236385
 219	1	2	0.013749	15.7728	13.6827	-1.07253
 220	1	2	0.012175	17.3687	12.9724	-1.19966
 221	1	1	-0.029522	17.2482	11.3511	1.1148
 222	1	1	0.182537	16.828	10.1778	2.04872
 223	1	2	0.017614	17.6988	12.1199	1.7514
 224	1	2	0.005524	18.0477	11.0096	0.443895
 225	1	1	-0.245806	15.9699	10.6497	3.2431
 226	1	1	-0.291525	18.0729	9.43758	2.5803
 227	1	2	-0.003466	16.2421	9.44645	1.48285
 228	1	2	0.0629	17.7811	8.5995	3.2256
 229	1	2	0.058439	18.713	10.112	3.16353
 230	1	2	0.076366	18.6679	9.032	1.75244
 231	1	2	0.061036	15.5672	9.78863	3.79085
 232	1	2	0.060061	15.1259	11.2624	2.91452
 233	1	2	0.042474	16.5659	11.2433	3.94555
 234	1	2	-0.019174	15.2726	12.235	0.886422
 235	1	1	-0.06457	15.6038	10.9483	-0.836996
 236	1	1	0.061186	14.0601	10.8466	-1.04591
 237	1	2	0.013749	16.0653	11.1781	-1.80628
 238	1	2	0.012175	15.9795	9.94665	-0.608445
 239	1	1	-0.029522	13.4475	12.1984	-1.52901
 240	1	1	0.182537	12.0735	12.1606	-2.26725
 241	1	2	0.017614	14.1526	12.6456	-2.24041
 242	1	2	0.005524	13.3883	12.8997	-0.686919
 243	1	1	-0.245806	10.8616	11.8465	-1.36507
 244	1	1	-0.291525	12.074	11.2343	-3.50323
 245	1	2	-0.003466	11.913	13.1798	-2.64267
 246	1	2	0.0629	11.1624	11.3846	-4.09483
 247	1	2	0.058439	12.1113	10.177	-3.21383
 248	1	2	0.076366	12.9336	11.447	-4.15095
 249	1	2	0.061036	9.92622	12.0399	-1.90474
 250	1	2	0.060061	10.8657	12.4798	-0.470854
 251	1	2	0.042474	10.8482	10.7964	-1.05451
 252	1	2	-0.019174	13.9449	10.1382	-1.87345
 253	1	1	-0.06457	13.3444	10.245	0.205608
 254	1	1	0.061186	12.7937	8.80222	-0.00748784
 255	1	2	0.013749	14.0308	10.2407	1.0561
 256	1	2	0.012175	12.5271	10.903	0.51528
 257	1	1	-0.029522	13.9484	7.76134	-0.118549
 258	1	1	0.182537	13.5329	6.31626	-0.516736
 259	1	2	0.017614	14.4968	7.7357	0.830864
 260	1	2	0.005524	14.67	8.10581	-0.867576
 261	1	1	-0.245806	14.7607	5.3824	-0.478673
 262	1	1	-0.291525	12.8716	6.25113	-1.91129
 263	1	2	-0.003466	12.8141	5.92673	0.21103
 264	1	2	0.0629	11.9192	6.79398	-1.9269
 265	1	2	0.058439	12.6585	5.21165	-2.19031
 266	1	2	0.076366	13.5279	6.6818	-2.67804
 267	1	2	0.061036	14.4731	4.35169	-0.721025
 268	1	2	0.060061	15.2147	5.37712	0.520267
 269	1	2	0.042474	15.5229	5.7035	-1.20003
 270	1	2	-0.019174	12.2742	8.8172	-0.972522
 271	1	1	-0.06457	11.7007	8.43251	1.04414
 272	1	1	0.061186	12.1249	8.45034	2.55327
 273	1	2	0.013749	11.2748	7.46261	0.778957
 274	1	2	0.012175	10.8676	9.12683	0.890877
 275	1	1	-0.029522	12.6006	7.06403	3.09477
 276	1	1	0.182537	11.5309	6.04697	3.60038
 277	1	2	0.017614	13.2667	7.2704	3.94307
 278	1	2	0.005524	13.2374	6.5736	2.35322
 279	1	1	-0.245806	12.2365	4.78884	4.15012
 280	1	1	-0.291525	10.4985	5.61701	2.53667
 281	1	2	-0.003466	10.9807	6.49629	4.43652
 282	1	2	0.0629	10.9926	5.19722	1.65216
 283	1	2	0.058439	9.87199	6.45942	2.22395
 284	1	2	0.076366	9.82874	4.84878	2.94206
 285	1	2	0.061036	11.5056	4.06376	4.52602
 286	1	2	0.060061	12.9094	5.04745	4.97721
 287	1	2	0.042474	12.8283	4.29662	3.36783
 288	1	2	-0.019174	13.0084	9.0867	2.63867
 289	1	1	-0.06457	11.031	9.07494	3.47308
 290	1	1	0.061186	10.7837	10.6054	3.31519
 291	1	2	0.013749	10.0912	8.54456	3.2844
 292	1	2	0.012175	11.3009	8.88202	4.5186
 293	1	1	-0.029522	11.9936	11.4473	3.83803
 294	1	1	0.182537	11.8791	12.9945	3.72885
 295	1	2	0.017614	12.8824	11.1571	3.27165
 296	1	2	0.005524	12.2193	11.178	4.8741
 297	1	1	-0.245806	11.71	13.4731	2.27193
 298	1	1	-0.291525	13.118	13.6693	4.35183
 299	1	2	-0.003466	11.0136	13.3384	4.30341
 300	1	2	0.0629	13.2312	13.3805	5.40427
 301	1	2	0.058439	13.0247	14.762	4.31238
 302	1	2	0.076366	14.0315	13.3827	3.81665
 303	1	2	0.061036	10.7648	13.1172	1.8464
 304	1	2	0.060061	12.5345	13.1159	1.64323
 305	1	2	0.042474	11.7001	14.5676	2.22461
 306	1	2	-0.019174	10.7345	10.8104	2.24142
 307	1	1	-0.06457	9.37288	11.0346	3.84502
 308	1	1	0.061186	8.90261	10.6913	5.30142
 309	1	2	0.013749	9.27303	12.1167	3.7128
 310	1	2	0.012175	8.6342	10.6356	3.1453
 311	1	1	-0.029522	9.92806	11.1315	6.38818
 312	1	1	0.182537	9.4288	11.1571	7.86193
 313	1	2	0.017614	10.2937	12.1354	6.143
 314	1	2	0.005524	10.7902	10.4563	6.34655
 315	1	1	-0.245806	8.20262	12.0726	8.0796
 316	1	1	-0.291525	10.5743	11.6057	8.79434
 317	1	2	-0.003466	9.15294	10.14	8.16454
 318	1	2	0.0629	10.8954	12.6288	8.56019
 319	1	2	0.058439	11.4427	10.9426	8.6929
 320	1	2	0.076366	10.2543	11.5804	9.84356
 321	1	2	0.061036	7.32643	11.7092	7.53014
 322	1	2	0.060061	8.41583	13.0992	7.75748
 323	1	2	0.042474	7.92821	12.1028	9.14151
 324	1	2	-0.019174	8.02994	11.3318	5.44491
 325	1	1	-0.06457	8.41613	9.22051	5.53395
 326	1	1	0.061186	7.32789	8.63097	4.57663
 327	1	2	0.013749	9.28804	8.5577	5.53518
 328	1	2	0.012175	8.00716	9.15212	6.54865
 329	1	1	-0.029522	5.97937	9.41989	4.68345
 330	1	1	0.182537	5.14874	9.56332	3.37555
 331	1	2	0.017614	6.15411	10.4324	5.05754
 332	1	2	0.005524	5.35821	8.94668	5.455
 333	1	1	-0.245806	5.86543	10.4077	2.2984
 334	1	1	-0.291525	3.77392	10.19	3.68938
 335	1	2	-0.003466	4.95726	8.57657	2.94822
 336	1	2	0.0629	3.22454	9.57957	4.41711
 337	1	2	0.058439	3.1614	10.2596	2.78165
 338	1	2	0.076366	3.8869	11.1999	4.10382
 339	1	2	0.061036	6.76439	9.90325	1.92725
 340	1	2	0.060061	6.15446	11.3896	2.69421
 341	1	2	0.042474	5.20853	10.5703	1.43473
 342	1	2	-0.019174	7.7142	8.68086	3.55577
 343	1	1	-0.06457	7.15517	7.12304	4.95137
 344	1	1	0.061186	6.1301	6.27083	4.13617
 345	1	2	0.013749	8.13275	6.62617	4.89062
 346	1	2	0.012175	6.87818	7.10547	6.01002
 347	1	1	-0.029522	6.56909	6.16799	2.64252
 348	1	1	0.182537	5.64324	5.3519	1.69605
 349	1	2	0.017614	7.56788	5.71823	2.6092
 350	1	2	0.005524	6.67894	7.1742	2.22272
 351	1	1	-0.245806	6.22106	5.34657	0.265093
 352	1	1	-0.291525	4.19141	5.87958	1.66808
 353	1	2	-0.003466	5.62114	4.30797	2.03147
 354	1	2	0.0629	3.71906	5.80871	2.65481
 355	1	2	0.058439	3.58175	5.29085	0.971219
 356	1	2	0.076366	4.15977	6.92682	1.34302
 357	1	2	0.061036	7.23802	4.93447	0.257168
 358	1	2	0.060061	6.26051	6.36279	-0.147432
 359	1	2	0.042474	5.60428	4.73096	-0.401701
 360	1	2	-0.019174	5.16206	6.77665	4.17336
 361	1	1	-0.06457	5.92647	4.85057	4.75921
 362	1	1	0.061186	5.55589	4.78399	6.27693
 363	1	2	0.013749	5.13055	4.33115	4.21245
 364	1	2	0.012175	6.84279	4.27763	4.57814
 365	1	1	-0.029522	4.29574	5.65437	6.58413
 366	1	1	0.182537	3.80516	5.67498	8.0593
 367	1	2	0.017614	3.47068	5.31116	5.94593
 368	1	2	0.005524	4.49226	6.6931	6.29581
 369	1	1	-0.245806	2.55498	6.57038	8.19004
 370	1	1	-0.291525	4.89598	6.16002	9.04068
 371	1	2	-0.003466	3.50182	4.66265	8.35265
 372	1	2	0.0629	5.26287	7.15504	8.75851
 373	1	2	0.058439	5.7492	5.47198	9.06309
 374	1	2	0.076366	4.49791	6.22088	10.0612
 375	1	2	0.061036	2.17199	6.55629	9.21811
 376	1	2	0.060061	1.75326	6.21804	7.52892
 377	1	2	0.042474	2.78497	7.61032	7.9251
 378	1	2	-0.019174	6.39127	5.19259	6.85322
 379	1	1	-0.06457	5.34904	3.31561	6.76192
 380	1	1	0.061186	6.4578	2.26486	6.42447
 381	1	2	0.013749	5.23035	3.32135	7.85184
 382	1	2	0.012175	4.39142	2.98268	6.35151
 383	1	1	-0.029522	7.87085	2.77924	6.85552
 384	1	1	0.182537	9.09066	1.91421	6.42937
 385	1	2	0.017614	7.88085	2.89206	7.94766
 386	1	2	0.005524	8.04537	3.78197	6.45247
 387	1	1	-0.245806	10.3907	2.52802	6.99118
 388	1	1	-0.291525	9.20047	1.76657	4.8952
 389	1	2	-0.003466	9.00456	0.912248	6.86405
 390	1	2	0.0629	9.22697	2.74834	4.40618
 391	1	2	0.058439	8.35376	1.20117	4.4884
 392	1	2	0.076366	10.1152	1.2256	4.62248
 393	1	2	0.061036	10.5325	3.55289	6.62734
 394	1	2	0.060061	11.2643	1.93373	6.6953
 395	1	2	0.042474	10.3624	2.55898	8.08762
 396	1	2	-0.019174	6.45002	2.10822	5.34042
 397	1	1	-0.06457	6.14829	0.90285	7.12497
 398	1	1	0.061186	4.8257	0.180591	6.71572
 399	1	2	0.013749	6.96628	0.194871	6.95481
 400	1	2	0.012175	6.15673	1.09474	8.20216
 401	1	1	-0.029522	4.34153	-0.778245	7.84533
 402	1	1	0.182537	3.89791	-0.123582	9.18674
 403	1	2	0.017614	5.12963	-1.51501	8.04897
 404	1	2	0.005524	3.48515	-1.34399	7.47826
 405	1	1	-0.245806	3.40979	-1.21293	10.1655
 406	1	1	-0.291525	2.78967	0.937948	9.00209
 407	1	2	-0.003466	4.75725	0.363166	9.66107
 408	1	2	0.0629	1.92778	0.517762	8.46849
 409	1	2	0.058439	3.1554	1.80539	8.44085
 410	1	2	0.076366	2.4407	1.30531	9.9752
 411	1	2	0.061036	4.19513	-1.9587	10.3412
 412	1	2	0.060061	2.52785	-1.73215	9.76897
 413	1	2	0.042474	3.14084	-0.77462	11.1348
 414	1	2	-0.019174	4.03919	0.916243	6.56528
 415	1	1	-0.06457	5.01657	-0.592375	5.37178
 416	1	1	0.061186	3.7051	-1.08047	4.66231
 417	1	2	0.013749	5.58895	0.02312	4.66652
 418	1	2	0.012175	5.66773	-1.45115	5.58106
 419	1	1	-0.029522	3.26382	-0.110503	3.51892
 420	1	1	0.182537	3.01897	1.37112	3.91825
 421	1	2	0.017614	2.34111	-0.480954	3.05766
 422	1	2	0.005524	4.02967	-0.138395	2.73247
 423	1	1	-0.245806	1.79628	1.53382	4.84992
 424	1	1	-0.291525	2.82584	2.24609	2.66171
 425	1	2	-0.003466	3.90739	1.75509	4.4292
 426	1	2	0.0629	2.67915	3.29738	2.93961
 427	1	2	0.058439	1.95187	1.91985	2.08378
 428	1	2	0.076366	3.70699	2.19304	2.01004
 429	1	2	0.061036	1.90242	0.946227	5.76823
 430	1	2	0.060061	0.876835	1.2086	4.34714
 431	1	2	0.042474	1.67086	2.58424	5.14127
 432	1	2	-0.019174	2.89874	-1.12418	5.39883
 433	1	1	-0.06457	3.92061	-2.52841	4.10967
 434	1	1	0.061186	2.69167	-3.25768	3.47392
 435	1	2	0.013749	4.7137	-2.46905	3.35248
 436	1	2	0.012175	4.33265	-3.16774	4.89741
 437	1	1	-0.029522	1.44816	-3.38257	4.41907
 438	1	1	0.182537	1.53567	-4.33588	5.65482
 439	1	2	0.017614	0.610369	-3.7198	3.80148
 440	1	2	0.005524	1.13923	-2.3858	4.75596
 441	1	1	-0.245806	0.122137	-4.81831	6.05447
 442	1	1	-0.291525	2.18835	-3.69198	6.89414
 443	1	2	-0.003466	2.12111	-5.22507	5.40075
 444	1	2	0.0629	1.67723	-2.75951	7.164
 445	1	2	0.058439	3.24762	-3.48259	6.72929
 446	1	2	0.076366	2.12999	-4.36802	7.75635
 447	1	2	0.061036	-0.509586	-3.97283	6.35526
 448	1	2	0.060061	0.173213	-5.52219	6.89471
 449	1	2	0.042474	-0.373891	-5.33339	5.22286
 450	1	2	-0.019174	2.38132	-2.62884	2.63697
 451	1	1	-0.06457	3.16824	-4.60486	2.83509
 452	1	1	0.061186	2.24836	-5.37899	1.82832
 453	1	2	0.013749	4.0935	-4.39076	2.2842
 454	1	2	0.012175	3.48381	-5.28963	3.62982
 455	1	1	-0.029522	1.90275	-4.57321	0.533277
 456	1	1	0.182537	0.730223	-3.54484	0.591401
 457	1	2	0.017614	1.70231	-5.28159	-0.279482
 458	1	2	0.005524	2.81941	-4.05671	0.219593
 459	1	1	-0.245806	-0.554004	-4.07749	-0.0850265
 460	1	1	-0.291525	1.13037	-2.21158	-0.0785471
 461	1	2	-0.003466	0.481841	-3.32171	1.63159
 462	1	2	0.0629	1.36325	-2.36018	-1.14066
 463	1	2	0.058439	2.01265	-1.77605	0.406718
 464	1	2	0.076366	0.315615	-1.48021	-0.0066545
 465	1	2	0.061036	-0.374509	-4.31282	-1.14171
 466	1	2	0.060061	-1.35391	-3.32796	-0.0373639
 467	1	2	0.042474	-0.925375	-4.98147	0.40725
 468	1	2	-0.019174	2.92117	-6.16133	1.46136
 469	1	1	-0.06457	1.05243	-6.13426	2.49437
 470	1	1	0.061186	0.880201	-7.64812	2.14618
 471	1	2	0.013749	1.16026	-6.07791	3.5764
 472	1	2	0.012175	0.11153	-5.61327	2.29461
 473	1	1	-0.029522	2.08393	-8.53353	2.60613
 474	1	1	0.182537	2.48516	-8.43717	4.10585
 475	1	2	0.017614	2.96217	-8.30396	1.99107
 476	1	2	0.005524	1.85741	-9.58297	2.40029
 477	1	1	-0.245806	3.67017	-9.3808	4.40011
 478	1	1	-0.291525	1.31768	-8.75792	5.06665
 479	1	2	-0.003466	2.82996	-7.41972	4.31856
 480	1	2	0.0629	1.65729	-8.7275	6.10949
 481	1	2	0.058439	0.910323	-9.75773	4.87196
 482	1	2	0.076366	0.504781	-8.02913	4.96887
 483	1	2	0.061036	3.9949	-9.28354	5.44366
 484	1	2	0.060061	4.52746	-9.14144	3.75857
 485	1	2	0.042474	3.39271	-10.4282	4.22502
 486	1	2	-0.019174	0.00548925	-7.96622	2.72101
 487	1	1	-0.06457	0.536657	-7.8629	0.640051
 488	1	1	0.061186	0.127945	-9.30391	0.192144
 489	1	2	0.013749	-0.275201	-7.18045	0.362611
 490	1	2	0.012175	1.41107	-7.56071	0.0507057
 491	1	1	-0.029522	-0.0401679	-9.32705	-1.36279
 492	1	1	0.182537	0.62672	-10.5298	-2.08661
 493	1	2	0.017614	0.369409	-8.40843	-1.80315
 494	1	2	0.005524	-1.10908	-9.30076	-1.60933
 495	1	1	-0.245806	2.16859	-10.4256	-2.08289
 496	1	1	-0.291525	0.114261	-10.6372	-3.53833
 497	1	2	-0.003466	0.352366	-11.4602	-1.57985
 498	1	2	0.0629	-0.97537	-10.7672	-3.55833
 499	1	2	0.058439	0.562762	-11.4999	-4.04688
 500	1	2	0.076366	0.362749	-9.7349	-4.1112
 501	1	2	0.061036	2.61365	-11.2819	-2.60488
 502	1	2	0.060061	2.56913	-10.4169	-1.06254
 503	1	2	0.042474	2.50185	-9.51014	-2.58798
 504	1	2	-0.019174	0.949775	-9.97386	0.457969
 505	1	1	-0.06457	-1.16942	-9.80351	0.910064
 506	1	1	0.061186	-1.54728	-11.2996	0.6711
 507	1	2	0.013749	-1.0999	-9.64399	1.98939
 508	1	2	0.012175	-1.99391	-9.1622	0.582806
 509	1	1	-0.029522	-0.484969	-12.3033	1.22691
 510	1	1	0.182537	-0.0270838	-12.146	2.70909
 511	1	2	0.017614	0.409447	-12.224	0.598186
 512	1	2	0.005524	-0.847102	-13.3279	1.07025
 513	1	1	-0.245806	1.17068	-13.0773	2.99266
 514	1	1	-0.291525	-1.13836	-12.4131	3.74692
 515	1	2	-0.003466	0.32892	-11.1246	2.86506
 516	1	2	0.0629	-1.92008	-11.6477	3.69862
 517	1	2	0.058439	-0.729655	-12.3884	4.76494
 518	1	2	0.076366	-1.5971	-13.3973	3.59009
 519	1	2	0.061036	0.888463	-14.1305	2.86855
 520	1	2	0.060061	1.53722	-12.9394	4.01773
 521	1	2	0.042474	2.00288	-12.862	2.31059
 522	1	2	-0.019174	-1.54942	-11.4541	-0.409904
 523	1	1	-0.06457	-2.99364	-11.632	1.1649
 524	1	1	0.061186	-4.10598	-11.6985	0.0710921
 525	1	2	0.013749	-2.99051	-12.6096	1.66234
 526	1	2	0.012175	-3.29012	-10.9226	1.94663
 527	1	1	-0.029522	-4.3197	-10.3459	-0.677659
 528	1	1	0.182537	-4.86692	-9.17798	0.190346
 529	1	2	0.017614	-5.01932	-10.4809	-1.50853
 530	1	2	0.005524	-3.37504	-10.0451	-1.14512
 531	1	1	-0.245806	-6.3181	-9.42616	0.661576
 532	1	1	-0.291525	-4.79956	-7.85388	-0.5993
 533	1	2	-0.003466	-4.24071	-9.0558	1.08094
 534	1	2	0.0629	-5.41885	-7.90328	-1.50401
 535	1	2	0.058439	-3.76814	-7.6323	-0.90152
 536	1	2	0.076366	-5.15578	-7.01659	0.0137104
 537	1	2	0.061036	-6.69582	-8.56014	1.21931
 538	1	2	0.060061	-6.3813	-10.2943	1.32756
 539	1	2	0.042474	-6.98619	-9.59719	-0.192048
 540	1	2	-0.019174	-5.02811	-11.923	0.612319
 541	1	1	-0.06457	-3.84804	-12.8827	-0.917421
 542	1	1	0.061186	-5.07569	-13.3316	-1.77331
 543	1	2	0.013749	-3.02977	-12.5842	-1.57796
 544	1	2	0.012175	-3.48196	-13.7554	-0.360663
 545	1	1	-0.029522	-4.6627	-14.2185	-2.98774
 546	1	1	0.182537	-3.64348	-13.6167	-3.9979
 547	1	2	0.017614	-5.5672	-14.4713	-3.55117
 548	1	2	0.005524	-4.25921	-15.1679	-2.61168
 549	1	1	-0.245806	-4.06361	-12.2268	-4.52642
 550	1	1	-0.291525	-3.44123	-14.5844	-5.18333
 551	1	2	-0.003466	-2.66842	-13.5147	-3.50698
 552	1	2	0.0629	-3.1025	-15.5667	-4.8308
 553	1	2	0.058439	-2.68392	-14.1975	-5.87674
 554	1	2	0.076366	-4.37552	-14.7252	-5.74178
 555	1	2	0.061036	-4.08906	-11.4841	-3.72062
 556	1	2	0.060061	-5.05573	-12.2669	-4.99305
 557	1	2	0.042474	-3.34891	-11.8673	-5.27738
 558	1	2	-0.019174	-5.5438	-12.4337	-2.17687
 559	1	1	-0.06457	-6.13152	-14.0853	-0.901057
 560	1	1	0.061186	-7.57201	-14.1991	-1.49452
 561	1	2	0.013749	-5.74493	-15.0915	-0.691301
 562	1	2	0.012175	-6.22401	-13.6055	0.0786618
 563	1	1	-0.029522	-8.18644	-12.7847	-1.74019
 564	1	1	0.182537	-8.21912	-12.35	-3.23244
 565	1	2	0.017614	-7.617	-12.0443	-1.16355
 566	1	2	0.005524	-9.19534	-12.7138	-1.33089
 567	1	1	-0.245806	-8.47508	-10.8331	-3.34836
 568	1	1	-0.291525	-9.27825	-13.1234	-4.04963
 569	1	2	-0.003466	-7.24103	-12.5505	-3.68447
 570	1	2	0.0629	-10.2833	-12.9655	-3.64135
 571	1	2	0.058439	-9.07318	-14.2	-4.05434
 572	1	2	0.076366	-9.28054	-12.7854	-5.09344
 573	1	2	0.061036	-7.69045	-10.2663	-2.83124
 574	1	2	0.060061	-9.44071	-10.5618	-2.90493
 575	1	2	0.042474	-8.47815	-10.5169	-4.39911
 576	1	2	-0.019174	-7.50277	-14.7342	-2.44718
 577	1	1	-0.06457	-8.43123	-15.0941	-0.548975
 578	1	1	0.061186	-9.82817	-15.5536	-1.09397
 579	1	2	0.013749	-7.83748	-15.9924	-0.347191
 580	1	2	0.012175	-8.52193	-14.6134	0.429773
 581	1	1	-0.029522	-11.0353	-14.6149	-0.747689
 582	1	1	0.182537	-11.1252	-13.9906	0.678183
 583	1	2	0.017614	-11.9706	-15.1526	-0.949147
 584	1	2	0.005524	-11.0486	-13.7951	-1.47366
 585	1	1	-0.245806	-11.1503	-15.0332	1.81728
 586	1	1	-0.291525	-12.3769	-13.0938	0.784294
 587	1	2	-0.003466	-10.2612	-13.3341	0.835801
 588	1	2	0.0629	-12.4311	-12.6142	1.7696
 589	1	2	0.058439	-13.2945	-13.6776	0.638041
 590	1	2	0.076366	-12.3509	-12.2975	0.0315527
 591	1	2	0.061036	-11.3513	-14.5482	2.78075
 592	1	2	0.060061	-10.185	-15.5416	1.91318
 593	1	2	0.042474	-11.9306	-15.7857	1.64713
 594	1	2	-0.019174	-9.77351	-15.5216	-2.18419
 595	1	1	-0.06457	-10.1438	-17.0359	-0.702769
 596	1	1	0.061186	-9.32045	-18.1576	-1.42119
 597	1	2	0.013749	-10.0044	-17.1251	0.376367
 598	1	2	0.012175	-11.2058	-17.2446	-0.88494
 599	1	1	-0.029522	-9.60839	-19.5548	-0.783328
 600	1	1	0.182537	-9.31614	-19.72	0.735831
 601	1	2	0.017614	-9.00924	-20.3124	-1.29917
 602	1	2	0.005524	-10.6604	-19.8124	-0.962547
 603	1	1	-0.245806	-7.87457	-19.3159	1.11795
 604	1	1	-0.291525	-9.57562	-21.1797	1.16663
 605	1	2	-0.003466	-10.0118	-19.095	1.30806
 606	1	2	0.0629	-10.6052	-21.478	0.932416
 607	1	2	0.058439	-9.42974	-21.2985	2.24764
 608	1	2	0.076366	-8.89379	-21.8694	0.652791
 609	1	2	0.061036	-7.68622	-19.5151	2.18034
 610	1	2	0.060061	-7.70308	-18.2459	0.9516
 611	1	2	0.042474	-7.1391	-19.8797	0.530188
 612	1	2	-0.019174	-8.25298	-17.9546	-1.28624
 613	1	1	-0.06457	-9.5847	-18.1475	-2.96386
 614	1	1	0.061186	-8.89188	-19.2709	-3.80222
 615	1	2	0.013749	-10.6665	-18.1669	-3.1514
 616	1	2	0.012175	-9.24339	-17.1848	-3.35363
 617	1	1	-0.029522	-8.36	-18.7112	-5.16138
 618	1	1	0.182537	-6.86444	-18.2911	-5.14557
 619	1	2	0.017614	-8.98365	-17.8723	-5.49775
 620	1	2	0.005524	-8.46708	-19.4673	-5.94487
 621	1	1	-0.245806	-6.55979	-17.1384	-4.16663
 622	1	1	-0.291525	-6.40039	-17.8992	-6.56435
 623	1	2	-0.003466	-6.27063	-19.1611	-4.83543
 624	1	2	0.0629	-5.33244	-17.6469	-6.56863
 625	1	2	0.058439	-6.9586	-17.0303	-6.93527
 626	1	2	0.076366	-6.55054	-18.7288	-7.26671
 627	1	2	0.061036	-6.77586	-17.424	-3.1312
 628	1	2	0.060061	-7.1504	-16.2479	-4.41502
 629	1	2	0.042474	-5.49772	-16.8695	-4.21503
 630	1	2	-0.019174	-8.02475	-19.6276	-3.23693
 631	1	1	-0.06457	-9.87528	-20.4627	-4.03671
 632	1	1	0.061186	-9.23216	-21.7881	-4.56077
 633	1	2	0.013749	-10.6493	-20.1139	-4.72428
 634	1	2	0.012175	-10.4181	-20.6962	-3.1148
 635	1	1	-0.029522	-8.4404	-22.4862	-3.40877
 636	1	1	0.182537	-7.57087	-23.7189	-3.79508
 637	1	2	0.017614	-9.15077	-22.787	-2.62736
 638	1	2	0.005524	-7.77042	-21.7582	-2.93883
 639	1	1	-0.245806	-6.82542	-24.2462	-2.55029
 640	1	1	-0.291525	-6.55341	-23.4122	-4.91665
 641	1	2	-0.003466	-8.21882	-24.5319	-4.14074
 642	1	2	0.0629	-5.90341	-24.2779	-5.09575
 643	1	2	0.058439	-5.91821	-22.5584	-4.64929
 644	1	2	0.076366	-7.05865	-23.1857	-5.86272
 645	1	2	0.061036	-6.25055	-25.1484	-2.79384
 646	1	2	0.060061	-7.53294	-24.5046	-1.75247
 647	1	2	0.042474	-6.12906	-23.4933	-2.1593
 648	1	2	-0.019174	-8.51632	-21.541	-5.34955
 649	1	1	-0.06457	-10.3183	-22.7288	-5.17671
 650	1	1	0.061186	-10.5032	-22.6197	-6.72919
 651	1	2	0.013749	-11.262	-22.5887	-4.64273
 652	1	2	0.012175	-10.0552	-23.7666	-4.96176
 653	1	1	-0.029522	-11.3335	-23.8073	-7.31349
 654	1	1	0.182537	-10.5183	-24.9745	-7.94114
 655	1	2	0.017614	-12.0101	-23.4348	-8.09142
 656	1	2	0.005524	-11.9838	-24.2214	-6.53244
 657	1	1	-0.245806	-9.51912	-25.6288	-6.96219
 658	1	1	-0.291525	-9.80422	-24.5544	-9.2452
 659	1	2	-0.003466	-11.2459	-25.7491	-8.21658
 660	1	2	0.0629	-10.5176	-24.1194	-9.95635
 661	1	2	0.058439	-9.34116	-25.4247	-9.7269
 662	1	2	0.076366	-9.01517	-23.8169	-9.0568
 663	1	2	0.061036	-9.05862	-26.5136	-7.41901
 664	1	2	0.060061	-10.0265	-25.9526	-6.04511
 665	1	2	0.042474	-8.71298	-24.9379	-6.68894
 666	1	2	-0.019174	-9.48903	-22.7185	-7.13252
 667	1	1	-0.06457	-10.9815	-21.2308	-7.26584
 668	1	1	0.061186	-12.4895	-20.8005	-7.18401
 669	1	2	0.013749	-10.7107	-21.206	-8.32945
 670	1	2	0.012175	-10.3537	-20.4547	-6.82259
 671	1	1	-0.029522	-12.5925	-19.2424	-7.29721
 672	1	1	0.182537	-11.9708	-18.5953	-8.5663
 673	1	2	0.017614	-12.1165	-18.8003	-6.41198
 674	1	2	0.005524	-13.6367	-18.9204	-7.25985
 675	1	1	-0.245806	-12.109	-17.0585	-8.49444
 676	1	1	-0.291525	-12.6177	-19.1125	-9.87064
 677	1	2	-0.003466	-10.8983	-18.8232	-8.60082
 678	1	2	0.0629	-12.2016	-18.5905	-10.7414
 679	1	2	0.058439	-13.7028	-18.949	-9.8633
 680	1	2	0.076366	-12.4312	-20.1834	-10.0125
 681	1	2	0.061036	-11.6163	-16.6638	-7.59703