pySIMM System Object

740 atoms
739 bonds
1476 angles
2205 dihedrals
0 impropers

2 atom types
2 bond types
3 angle types
3 dihedral types

-111.814004 111.814004 xlo xhi
-111.814004 111.814004 ylo yhi
-111.814004 111.814004 zlo zhi

Masses

   1	12.01	# c3
   2	1.008	# hc

Pair Coeffs

   1	0.1094	3.3996695084235347	# c3
   2	0.0157	2.649532787749369	# hc

Bond Coeffs

   1	330.6	1.0969	# c3,hc
   2	300.9	1.5375	# c3,c3

Angle Coeffs

   1	46.34	109.8	# c3,c3,hc
   2	39.4	107.58	# hc,c3,hc
   3	62.86	111.51	# c3,c3,c3

Dihedral Coeffs

   1	1	0.16	3	0	# hc,c3,c3,c3
   2	1	0.15	3	0	# hc,c3,c3,hc
   3	3	0.18	3	0	0.25	2	180	0.2	1	180	# c3,c3,c3,c3

Atoms

   1	1	1	-0.06457	-16.6203	-14.6226	-0.603658
   2	1	1	0.061186	-16.5579	-13.291	0.188493
   3	1	2	0.013749	-15.6188	-14.9779	-0.872303
   4	1	2	0.012175	-17.1086	-15.4074	-0.0121815
   5	1	1	-0.029522	-17.9699	-12.7969	0.615171
   6	1	1	0.182537	-18.9894	-12.5598	-0.53503
   7	1	2	0.017614	-17.8547	-11.8567	1.17043
   8	1	2	0.005524	-18.3977	-13.5207	1.32146
   9	1	1	-0.245806	-18.4844	-11.5426	-1.58348
  10	1	1	-0.291525	-20.3413	-12.0828	0.0362775
  11	1	2	-0.003466	-19.1769	-13.5126	-1.04497
  12	1	2	0.0629	-20.2394	-11.1068	0.527275
  13	1	2	0.058439	-20.7291	-12.7995	0.771171
  14	1	2	0.076366	-21.087	-11.9855	-0.762551
  15	1	2	0.061036	-17.6047	-11.9227	-2.11604
  16	1	2	0.060061	-18.2171	-10.5897	-1.10956
  17	1	2	0.042474	-19.2591	-11.344	-2.33473
  18	1	2	-0.019174	-16.1338	-12.5198	-0.461622
  19	1	1	-0.06457	-15.6462	-13.4193	1.44306
  20	1	1	0.061186	-14.1297	-13.7249	1.19735
  21	1	2	0.013749	-15.7506	-12.519	2.05747
  22	1	2	0.012175	-16.0573	-14.2225	2.06802
  23	1	1	-0.029522	-13.2752	-13.5086	2.48246
  24	1	1	0.182537	-13.7244	-14.2814	3.75337
  25	1	2	0.017614	-13.2757	-12.4407	2.72837
  26	1	2	0.005524	-12.2323	-13.7728	2.26194
  27	1	1	-0.245806	-12.8247	-13.8963	4.94596
  28	1	1	-0.291525	-13.7063	-15.8139	3.56189
  29	1	2	-0.003466	-14.747	-13.9797	4.01198
  30	1	2	0.0629	-14.4355	-16.1307	2.80696
  31	1	2	0.058439	-13.9633	-16.3236	4.49898
  32	1	2	0.076366	-12.7128	-16.1586	3.24874
  33	1	2	0.061036	-11.7852	-14.1975	4.7659
  34	1	2	0.060061	-13.1674	-14.3839	5.86728
  35	1	2	0.042474	-12.8425	-12.812	5.11219
  36	1	2	-0.019174	-14.0886	-14.7971	0.970332
  37	1	1	-0.06457	-13.4543	-13.0497	-0.0475665
  38	1	1	0.061186	-12.9268	-11.5787	0.0579905
  39	1	2	0.013749	-12.5902	-13.6856	-0.270719
  40	1	2	0.012175	-14.091	-13.1433	-0.933321
  41	1	1	-0.029522	-12.2509	-11.1378	-1.27863
  42	1	1	0.182537	-11.0686	-12.0115	-1.7849
  43	1	2	0.017614	-11.8788	-10.1137	-1.17622
  44	1	2	0.005524	-13.017	-11.1014	-2.06439
  45	1	1	-0.245806	-9.96499	-12.1871	-0.720886
  46	1	1	-0.291525	-10.4599	-11.3941	-3.06192
  47	1	2	-0.003466	-11.4461	-13.0042	-2.05823
  48	1	2	0.0629	-9.6689	-12.0372	-3.46648
  49	1	2	0.058439	-10.0251	-10.4077	-2.85479
  50	1	2	0.076366	-11.2249	-11.2752	-3.83928
  51	1	2	0.061036	-9.1166	-12.7442	-1.13121
  52	1	2	0.060061	-10.3271	-12.7427	0.151907
  53	1	2	0.042474	-9.60428	-11.2094	-0.384896
  54	1	2	-0.019174	-12.1592	-11.562	0.836645
  55	1	1	-0.06457	-14.042	-10.5633	0.450288
  56	1	1	0.061186	-13.5874	-9.1383	0.890957
  57	1	2	0.013749	-14.6157	-10.9574	1.28649
  58	1	2	0.012175	-14.7437	-10.4826	-0.390294
  59	1	1	-0.029522	-12.8072	-9.18828	2.24834
  60	1	1	0.182537	-11.5217	-8.31761	2.31167
  61	1	2	0.017614	-13.483	-8.89865	3.06251
  62	1	2	0.005524	-12.5224	-10.2156	2.49654
  63	1	1	-0.245806	-10.3982	-8.85622	1.39886
  64	1	1	-0.291525	-11.0077	-8.22393	3.76161
  65	1	2	-0.003466	-11.7613	-7.29967	1.99212
  66	1	2	0.0629	-11.7637	-7.75351	4.3976
  67	1	2	0.058439	-10.0995	-7.61168	3.81809
  68	1	2	0.076366	-10.7815	-9.21689	4.16876
  69	1	2	0.061036	-10.1618	-9.89904	1.64299
  70	1	2	0.060061	-9.48373	-8.26262	1.51942
  71	1	2	0.042474	-10.6811	-8.80456	0.342327
  72	1	2	-0.019174	-12.9503	-8.71825	0.108292
  73	1	1	-0.06457	-14.8709	-8.25556	0.980338
  74	1	1	0.061186	-14.7032	-6.78144	1.46872
  75	1	2	0.013749	-15.364	-8.23891	-0.000690052
  76	1	2	0.012175	-15.5555	-8.78964	1.64581
  77	1	1	-0.029522	-13.8597	-5.95882	0.44448
  78	1	1	0.182537	-13.5515	-4.48205	0.825652
  79	1	2	0.017614	-14.3852	-5.96346	-0.519502
  80	1	2	0.005524	-12.906	-6.46456	0.260854
  81	1	1	-0.245806	-12.8387	-4.3427	2.18999
  82	1	1	-0.291525	-12.6972	-3.81691	-0.274111
  83	1	2	-0.003466	-14.4948	-3.9246	0.876581
  84	1	2	0.0629	-13.2055	-3.86464	-1.24528
  85	1	2	0.058439	-11.724	-4.31495	-0.371998
  86	1	2	0.076366	-12.5174	-2.75989	-0.0412174
  87	1	2	0.061036	-13.4727	-4.69839	3.00986
  88	1	2	0.060061	-12.6017	-3.2913	2.39513
  89	1	2	0.042474	-11.8996	-4.90933	2.20581
  90	1	2	-0.019174	-14.1595	-6.80141	2.41864
  91	1	1	-0.06457	-16.0771	-6.08198	1.74117
  92	1	1	0.061186	-17.132	-6.85788	2.59587
  93	1	2	0.013749	-16.5381	-5.84415	0.773446
  94	1	2	0.012175	-15.8718	-5.12273	2.21829
  95	1	1	-0.029522	-18.475	-6.07456	2.74344
  96	1	1	0.182537	-18.612	-5.01377	3.87903
  97	1	2	0.017614	-19.2652	-6.82037	2.90066
  98	1	2	0.005524	-18.7166	-5.60188	1.78238
  99	1	1	-0.245806	-17.6191	-3.83576	3.78142
 100	1	1	-0.291525	-20.0546	-4.46483	3.90466
 101	1	2	-0.003466	-18.4474	-5.5008	4.8444
 102	1	2	0.0629	-20.192	-3.76463	4.73824
 103	1	2	0.058439	-20.7803	-5.27835	4.03038
 104	1	2	0.076366	-20.2902	-3.93637	2.97213
 105	1	2	0.061036	-16.6005	-4.15578	4.02672
 106	1	2	0.060061	-17.8824	-3.04742	4.49771
 107	1	2	0.042474	-17.6234	-3.39533	2.77638
 108	1	2	-0.019174	-17.3934	-7.71651	1.97227
 109	1	1	-0.06457	-16.5626	-7.39631	3.94779
 110	1	1	0.061186	-17.4881	-8.32746	4.80225
 111	1	2	0.013749	-16.2608	-6.52903	4.54347
 112	1	2	0.012175	-15.6387	-7.9506	3.75594
 113	1	1	-0.029522	-17.9964	-9.56847	3.99764
 114	1	1	0.182537	-19.1519	-10.3768	4.65839
 115	1	2	0.017614	-17.143	-10.2348	3.81362
 116	1	2	0.005524	-18.3589	-9.26857	3.01044
 117	1	1	-0.245806	-20.4835	-9.59132	4.66429
 118	1	1	-0.291525	-19.3552	-11.7196	3.92738
 119	1	2	-0.003466	-18.8979	-10.6202	5.6949
 120	1	2	0.0629	-18.4301	-12.3098	3.92559
 121	1	2	0.058439	-19.6614	-11.5554	2.88817
 122	1	2	0.076366	-20.1329	-12.3164	4.42015
 123	1	2	0.061036	-20.4064	-8.66377	5.24162
 124	1	2	0.060061	-21.2832	-10.1924	5.11494
 125	1	2	0.042474	-20.7903	-9.33135	3.64319
 126	1	2	-0.019174	-18.36	-7.74637	5.11278
 127	1	1	-0.06457	-16.7153	-8.80593	6.07371
 128	1	1	0.061186	-16.3623	-7.71669	7.13055
 129	1	2	0.013749	-17.2572	-9.60452	6.58698
 130	1	2	0.012175	-15.7951	-9.27014	5.7125
 131	1	1	-0.029522	-17.6115	-6.98154	7.71211
 132	1	1	0.182537	-18.8534	-7.82785	8.12654
 133	1	2	0.017614	-17.9445	-6.26252	6.95493
 134	1	2	0.005524	-17.3003	-6.36327	8.56419
 135	1	1	-0.245806	-18.5857	-8.82505	9.27434
 136	1	1	-0.291525	-20.012	-6.88819	8.52378
 137	1	2	-0.003466	-19.1991	-8.40394	7.26202
 138	1	2	0.0629	-19.7469	-6.28707	9.40287
 139	1	2	0.058439	-20.9165	-7.46185	8.76215
 140	1	2	0.076366	-20.2592	-6.20377	7.70238
 141	1	2	0.061036	-17.9722	-9.66574	8.93342
 142	1	2	0.060061	-19.5267	-9.25126	9.64417
 143	1	2	0.042474	-18.0818	-8.33449	10.1166
 144	1	2	-0.019174	-15.805	-6.9307	6.61584
 145	1	1	-0.06457	-15.4098	-8.22876	8.26211
 146	1	1	0.061186	-13.9782	-8.71549	7.8612
 147	1	2	0.013749	-15.894	-9.02289	8.83489
 148	1	2	0.012175	-15.2775	-7.40943	8.9802
 149	1	1	-0.029522	-13.2489	-7.7517	6.87365
 150	1	1	0.182537	-13.061	-6.28859	7.36618
 151	1	2	0.017614	-13.791	-7.74339	5.91987
 152	1	2	0.005524	-12.2588	-8.1524	6.63623
 153	1	1	-0.245806	-12.1169	-6.1917	8.58469
 154	1	1	-0.291525	-12.5204	-5.40592	6.22171
 155	1	2	-0.003466	-14.0325	-5.87432	7.65938
 156	1	2	0.0629	-13.1955	-5.43404	5.35769
 157	1	2	0.058439	-11.5294	-5.74583	5.89498
 158	1	2	0.076366	-12.4326	-4.36106	6.54457
 159	1	2	0.061036	-12.5202	-6.7324	9.44864
 160	1	2	0.060061	-11.983	-5.14547	8.88656
 161	1	2	0.042474	-11.1287	-6.60419	8.34738
 162	1	2	-0.019174	-13.4097	-8.70575	8.79599
 163	1	1	-0.06457	-13.9571	-10.1949	7.34621
 164	1	1	0.061186	-12.859	-11.1284	7.95005
 165	1	2	0.013749	-14.9354	-10.6607	7.51015
 166	1	2	0.012175	-13.8316	-10.1951	6.25568
 167	1	1	-0.029522	-13.0117	-11.3723	9.48495
 168	1	1	0.182537	-14.4114	-11.8386	9.97351
 169	1	2	0.017614	-12.735	-10.4599	10.0272
 170	1	2	0.005524	-12.2902	-12.1368	9.79623
 171	1	1	-0.245806	-14.8614	-13.1608	9.31193
 172	1	1	-0.291525	-14.4137	-11.9976	11.5083
 173	1	2	-0.003466	-15.1513	-11.0668	9.7348
 174	1	2	0.0629	-14.1396	-11.0548	11.9981
 175	1	2	0.058439	-13.7005	-12.7688	11.826
 176	1	2	0.076366	-15.4099	-12.2848	11.8677
 177	1	2	0.061036	-14.1324	-13.9597	9.49786
 178	1	2	0.060061	-14.9772	-13.0475	8.22769
 179	1	2	0.042474	-15.8302	-13.484	9.71295
 180	1	2	-0.019174	-12.9885	-12.0965	7.45572
 181	1	1	-0.06457	-11.4408	-10.6064	7.57578
 182	1	1	0.061186	-10.2091	-11.477	7.97484
 183	1	2	0.013749	-11.4044	-10.4428	6.49047
 184	1	2	0.012175	-11.3238	-9.61976	8.0294
 185	1	1	-0.029522	-10.1929	-12.8183	7.18051
 186	1	1	0.182537	-9.06247	-13.8306	7.53195
 187	1	2	0.017614	-10.1495	-12.5974	6.10628
 188	1	2	0.005524	-11.1471	-13.3295	7.35137
 189	1	1	-0.245806	-9.31583	-15.1784	6.82242
 190	1	1	-0.291525	-8.90952	-14.0762	9.04999
 191	1	2	-0.003466	-8.10804	-13.4449	7.15619
 192	1	2	0.0629	-9.86137	-14.3937	9.49432
 193	1	2	0.058439	-8.56857	-13.1726	9.56858
 194	1	2	0.076366	-8.166	-14.8598	9.24192
 195	1	2	0.061036	-8.48386	-15.8721	6.99667
 196	1	2	0.060061	-9.41649	-15.0421	5.73994
 197	1	2	0.042474	-10.2359	-15.6499	7.19073
 198	1	2	-0.019174	-10.2882	-11.7414	9.03196
 199	1	1	-0.06457	-8.90976	-10.6289	7.78995
 200	1	1	0.061186	-8.35407	-9.93544	9.07845
 201	1	2	0.013749	-8.11761	-11.2695	7.3927
 202	1	2	0.012175	-9.07773	-9.87087	7.01288
 203	1	1	-0.029522	-9.45092	-9.20413	9.92058
 204	1	1	0.182537	-8.99174	-8.54774	11.2533
 205	1	2	0.017614	-10.254	-9.90283	10.1757
 206	1	2	0.005524	-9.90319	-8.42357	9.29754
 207	1	1	-0.245806	-8.31799	-9.55344	12.2136
 208	1	1	-0.291525	-10.1953	-7.88491	11.9569
 209	1	2	-0.003466	-8.27438	-7.74796	11.0338
 210	1	2	0.0629	-10.9574	-8.62921	12.2208
 211	1	2	0.058439	-10.6607	-7.13371	11.3067
 212	1	2	0.076366	-9.87769	-7.37995	12.8777
 213	1	2	0.061036	-8.98239	-10.4012	12.4234
 214	1	2	0.060061	-8.07013	-9.07104	13.1673
 215	1	2	0.042474	-7.38356	-9.94317	11.7927
 216	1	2	-0.019174	-7.94434	-10.7344	9.70593
 217	1	1	-0.06457	-7.20783	-8.93502	8.7331
 218	1	1	0.061186	-6.06398	-9.42047	7.79029
 219	1	2	0.013749	-7.67722	-8.04823	8.29659
 220	1	2	0.012175	-6.73779	-8.59723	9.66437
 221	1	1	-0.029522	-5.25842	-10.5753	8.46367
 222	1	1	0.182537	-4.26915	-11.3449	7.54233
 223	1	2	0.017614	-5.9483	-11.3137	8.88794
 224	1	2	0.005524	-4.70675	-10.1566	9.31582
 225	1	1	-0.245806	-4.99821	-12.1977	6.47972
 226	1	1	-0.291525	-3.35346	-12.2577	8.38455
 227	1	2	-0.003466	-3.61929	-10.6315	7.02347
 228	1	2	0.0629	-2.63379	-12.7841	7.7451
 229	1	2	0.058439	-3.93975	-13.0084	8.92976
 230	1	2	0.076366	-2.78437	-11.6703	9.11599
 231	1	2	0.061036	-4.27526	-12.7299	5.84904
 232	1	2	0.060061	-5.61436	-11.5788	5.82123
 233	1	2	0.042474	-5.64865	-12.9433	6.95371
 234	1	2	-0.019174	-6.50929	-9.79745	6.86514
 235	1	1	-0.06457	-5.14681	-8.20578	7.42512
 236	1	1	0.061186	-5.38578	-7.5478	6.02876
 237	1	2	0.013749	-5.24713	-7.42968	8.19536
 238	1	2	0.012175	-4.09403	-8.50233	7.48486
 239	1	1	-0.029522	-6.85536	-7.05003	5.84161
 240	1	1	0.182537	-7.15569	-6.02086	4.7071
 241	1	2	0.017614	-7.15375	-6.55446	6.773
 242	1	2	0.005524	-7.52675	-7.91119	5.72856
 243	1	1	-0.245806	-7.11307	-6.59446	3.27376
 244	1	1	-0.291525	-6.28806	-4.74703	4.80048
 245	1	2	-0.003466	-8.19397	-5.7026	4.86962
 246	1	2	0.0629	-6.65172	-3.98362	4.10136
 247	1	2	0.058439	-5.24054	-4.95467	4.55132
 248	1	2	0.076366	-6.32562	-4.32231	5.81127
 249	1	2	0.061036	-7.58018	-5.89414	2.57007
 250	1	2	0.060061	-7.6597	-7.54266	3.21188
 251	1	2	0.042474	-6.08503	-6.75807	2.93461
 252	1	2	-0.019174	-4.75107	-6.65438	6.03279
 253	1	1	-0.06457	-4.89853	-8.48537	4.88271
 254	1	1	0.061186	-3.64323	-7.95742	4.12795
 255	1	2	0.013749	-4.67636	-9.47782	5.28361
 256	1	2	0.012175	-5.71493	-8.65521	4.1766
 257	1	1	-0.029522	-2.36436	-8.07219	5.01062
 258	1	1	0.182537	-1.07649	-7.41732	4.43473
 259	1	2	0.017614	-2.17381	-9.13115	5.22357
 260	1	2	0.005524	-2.55857	-7.6073	5.98421
 261	1	1	-0.245806	0.130069	-7.7273	5.34517
 262	1	1	-0.291525	-1.21662	-5.88895	4.25911
 263	1	2	-0.003466	-0.853389	-7.84765	3.45311
 264	1	2	0.0629	-1.99133	-5.64035	3.52516
 265	1	2	0.058439	-0.275605	-5.45257	3.9016
 266	1	2	0.076366	-1.476	-5.40661	5.20994
 267	1	2	0.061036	1.05094	-7.29947	4.92943
 268	1	2	0.060061	0.277409	-8.81045	5.44027
 269	1	2	0.042474	-0.0171764	-7.31165	6.35012
 270	1	2	-0.019174	-3.82167	-6.89185	3.94467
 271	1	1	-0.06457	-3.5072	-8.59831	2.71418
 272	1	1	0.061186	-3.37743	-10.1582	2.64119
 273	1	2	0.013749	-2.681	-8.11832	2.18464
 274	1	2	0.012175	-4.39317	-8.28868	2.1466
 275	1	1	-0.029522	-1.90243	-10.6775	2.64086
 276	1	1	0.182537	-1.1339	-10.7606	1.28483
 277	1	2	0.017614	-1.92888	-11.6953	3.05206
 278	1	2	0.005524	-1.30483	-10.1024	3.35367
 279	1	1	-0.245806	0.268447	-11.3636	1.51473
 280	1	1	-0.291525	-0.98943	-9.41352	0.547724
 281	1	2	-0.003466	-1.66624	-11.4478	0.616249
 282	1	2	0.0629	-0.473408	-8.67173	1.16934
 283	1	2	0.058439	-1.96592	-9.01578	0.261588
 284	1	2	0.076366	-0.415234	-9.54192	-0.376707
 285	1	2	0.061036	0.801297	-11.4881	0.564074
 286	1	2	0.060061	0.196205	-12.3508	1.98809
 287	1	2	0.042474	0.873654	-10.7167	2.16265
 288	1	2	-0.019174	-3.82375	-10.5752	3.54874
 289	1	1	-0.06457	-4.19385	-10.7213	1.44267
 290	1	1	0.061186	-5.73544	-10.7729	1.66094
 291	1	2	0.013749	-3.96408	-10.0832	0.58987
 292	1	2	0.012175	-3.84265	-11.7292	1.19393
 293	1	1	-0.029522	-6.14148	-12.0335	2.4906
 294	1	1	0.182537	-7.62881	-12.129	2.94398
 295	1	2	0.017614	-5.5173	-12.0733	3.39074
 296	1	2	0.005524	-5.89158	-12.9385	1.92605
 297	1	1	-0.245806	-8.10212	-10.9008	3.7548
 298	1	1	-0.291525	-7.85402	-13.4087	3.77271
 299	1	2	-0.003466	-8.27033	-12.2216	2.0605
 300	1	2	0.0629	-7.55102	-14.2989	3.20734
 301	1	2	0.058439	-8.91594	-13.5173	4.02343
 302	1	2	0.076366	-7.27894	-13.3825	4.70649
 303	1	2	0.061036	-8.09728	-9.99337	3.14078
 304	1	2	0.060061	-7.46107	-10.7286	4.62688
 305	1	2	0.042474	-9.1284	-11.0476	4.11312
 306	1	2	-0.019174	-5.98434	-9.91212	2.28792
 307	1	1	-0.06457	-6.57766	-10.5543	0.358142
 308	1	1	0.061186	-6.18088	-11.2209	-1.00452
 309	1	2	0.013749	-7.60938	-10.8399	0.566296
 310	1	2	0.012175	-6.66556	-9.47825	0.208716
 311	1	1	-0.029522	-5.96378	-12.7578	-0.870908
 312	1	1	0.182537	-5.72016	-13.5432	-2.1918
 313	1	2	0.017614	-6.83124	-13.1931	-0.358433
 314	1	2	0.005524	-5.10008	-12.9387	-0.223183
 315	1	1	-0.245806	-6.87654	-13.4105	-3.20783
 316	1	1	-0.291525	-5.47486	-15.0353	-1.88338
 317	1	2	-0.003466	-4.80689	-13.1625	-2.66527
 318	1	2	0.0629	-6.35547	-15.4902	-1.41228
 319	1	2	0.058439	-4.6213	-15.1584	-1.20497
 320	1	2	0.076366	-5.25439	-15.5911	-2.80342
 321	1	2	0.061036	-7.02694	-12.3688	-3.51386
 322	1	2	0.060061	-7.81545	-13.7889	-2.78682
 323	1	2	0.042474	-6.65886	-13.9879	-4.11503
 324	1	2	-0.019174	-7.07664	-11.1027	-1.6235
 325	1	1	-0.06457	-5.02154	-10.5258	-1.79962
 326	1	1	0.061186	-5.00418	-8.96097	-1.85628
 327	1	2	0.013749	-4.06442	-10.8879	-1.40661
 328	1	2	0.012175	-5.05041	-10.8853	-2.83581
 329	1	1	-0.029522	-6.2472	-8.41527	-2.63672
 330	1	1	0.182537	-6.80412	-7.02092	-2.22103
 331	1	2	0.017614	-7.08004	-9.12064	-2.54886
 332	1	2	0.005524	-6.00228	-8.39987	-3.7069
 333	1	1	-0.245806	-7.37683	-6.99416	-0.785934
 334	1	1	-0.291525	-7.90164	-6.57859	-3.2119
 335	1	2	-0.003466	-6.01239	-6.27154	-2.27419
 336	1	2	0.0629	-7.50813	-6.53476	-4.23523
 337	1	2	0.058439	-8.27871	-5.58049	-2.95572
 338	1	2	0.076366	-8.74796	-7.27718	-3.19929
 339	1	2	0.061036	-6.59699	-7.16984	-0.0367156
 340	1	2	0.060061	-8.15867	-7.75365	-0.661389
 341	1	2	0.042474	-7.81996	-6.01502	-0.565092
 342	1	2	-0.019174	-5.01888	-8.59647	-0.828279
 343	1	1	-0.06457	-3.64556	-8.51751	-2.49045
 344	1	1	0.061186	-3.29832	-6.99334	-2.50863
 345	1	2	0.013749	-2.82961	-9.03347	-1.96918
 346	1	2	0.012175	-3.63397	-8.9081	-3.51386
 347	1	1	-0.029522	-3.3271	-6.38975	-1.06737
 348	1	1	0.182537	-3.01142	-4.87418	-0.932061
 349	1	2	0.017614	-2.6137	-6.94191	-0.444935
 350	1	2	0.005524	-4.31067	-6.55484	-0.617388
 351	1	1	-0.245806	-3.06388	-4.45715	0.553211
 352	1	1	-0.291525	-3.97123	-3.98747	-1.75612
 353	1	2	-0.003466	-1.9877	-4.68764	-1.27819
 354	1	2	0.0629	-3.88525	-4.19385	-2.82939
 355	1	2	0.058439	-3.73857	-2.92571	-1.6068
 356	1	2	0.076366	-5.01335	-4.15117	-1.45437
 357	1	2	0.061036	-2.35199	-5.04502	1.14555
 358	1	2	0.060061	-4.06674	-4.6115	0.971948
 359	1	2	0.042474	-2.80355	-3.39779	0.670716
 360	1	2	-0.019174	-4.05651	-6.48582	-3.10986
 361	1	1	-0.06457	-1.91907	-6.72171	-3.19288
 362	1	1	0.061186	-1.68372	-7.35255	-4.60264
 363	1	2	0.013749	-1.78009	-5.63897	-3.29657
 364	1	2	0.012175	-1.13742	-7.06368	-2.50504
 365	1	1	-0.029522	-2.81733	-6.94467	-5.59753
 366	1	1	0.182537	-2.71619	-7.51466	-7.04103
 367	1	2	0.017614	-2.85342	-5.84884	-5.65621
 368	1	2	0.005524	-3.78683	-7.25859	-5.19446
 369	1	1	-0.245806	-3.9186	-7.04121	-7.88473
 370	1	1	-0.291525	-2.63819	-9.05795	-7.06823
 371	1	2	-0.003466	-1.81563	-7.11554	-7.52319
 372	1	2	0.0629	-3.49624	-9.50335	-6.54896
 373	1	2	0.058439	-1.72021	-9.4208	-6.59102
 374	1	2	0.076366	-2.63665	-9.42678	-8.1015
 375	1	2	0.061036	-3.83215	-7.39693	-8.91908
 376	1	2	0.060061	-3.96893	-5.94544	-7.91019
 377	1	2	0.042474	-4.86307	-7.41803	-7.47177
 378	1	2	-0.019174	-1.7072	-8.44179	-4.49516
 379	1	1	-0.06457	-0.281367	-6.97173	-5.17248
 380	1	1	0.061186	0.972419	-7.26577	-4.28816
 381	1	2	0.013749	-0.131289	-7.49605	-6.12333
 382	1	2	0.012175	-0.30813	-5.9012	-5.40825
 383	1	1	-0.029522	0.964253	-8.7337	-3.75113
 384	1	1	0.182537	2.17985	-9.16173	-2.88029
 385	1	2	0.017614	0.891414	-9.41751	-4.60713
 386	1	2	0.005524	0.061813	-8.90188	-3.1528
 387	1	1	-0.245806	2.02213	-10.6297	-2.43061
 388	1	1	-0.291525	2.37946	-8.25257	-1.64649
 389	1	2	-0.003466	3.09114	-9.11669	-3.48873
 390	1	2	0.0629	1.47249	-8.21544	-1.03158
 391	1	2	0.058439	2.63331	-7.22804	-1.94316
 392	1	2	0.076366	3.19998	-8.6245	-1.02034
 393	1	2	0.061036	1.12153	-10.7612	-1.81926
 394	1	2	0.060061	2.88794	-10.9515	-1.83842
 395	1	2	0.042474	1.94405	-11.2957	-3.29918
 396	1	2	-0.019174	0.939363	-6.59114	-3.42545
 397	1	1	-0.06457	2.28938	-6.98157	-5.08123
 398	1	1	0.061186	2.41476	-5.60727	-5.8134
 399	1	2	0.013749	3.14899	-7.07291	-4.40683
 400	1	2	0.012175	2.38773	-7.78803	-5.81592
 401	1	1	-0.029522	3.73829	-5.52923	-6.64229
 402	1	1	0.182537	3.98321	-6.65348	-7.68914
 403	1	2	0.017614	4.58728	-5.50978	-5.94635
 404	1	2	0.005524	3.77021	-4.58032	-7.18765
 405	1	1	-0.245806	5.30607	-6.39874	-8.44247
 406	1	1	-0.291525	2.82561	-6.78795	-8.70419
 407	1	2	-0.003466	4.09891	-7.61159	-7.16878
 408	1	2	0.0629	2.65334	-5.84118	-9.23133
 409	1	2	0.058439	1.89196	-7.08342	-8.2111
 410	1	2	0.076366	3.05717	-7.55566	-9.45302
 411	1	2	0.061036	6.14751	-6.33566	-7.74108
 412	1	2	0.060061	5.26227	-5.46034	-9.00983
 413	1	2	0.042474	5.51678	-7.21373	-9.14633
 414	1	2	-0.019174	1.58056	-5.52472	-6.51444
 415	1	1	-0.06457	2.31922	-4.42329	-4.80029
 416	1	1	0.061186	2.32306	-2.97903	-5.39612
 417	1	2	0.013749	1.41252	-4.52741	-4.1931
 418	1	2	0.012175	3.15694	-4.52281	-4.09835
 419	1	1	-0.029522	1.03672	-2.68986	-6.23602
 420	1	1	0.182537	1.15902	-2.89305	-7.77241
 421	1	2	0.017614	0.698954	-1.66059	-6.06726
 422	1	2	0.005524	0.219901	-3.31639	-5.85434
 423	1	1	-0.245806	2.10836	-1.86813	-8.43209
 424	1	1	-0.291525	-0.234595	-2.80256	-8.42943
 425	1	2	-0.003466	1.5503	-3.89279	-7.98232
 426	1	2	0.0629	-0.167627	-2.97669	-9.51067
 427	1	2	0.058439	-0.681819	-1.81318	-8.2693
 428	1	2	0.076366	-0.91227	-3.5573	-8.01089
 429	1	2	0.061036	3.14473	-2.02268	-8.11416
 430	1	2	0.060061	1.81679	-0.840491	-8.18069
 431	1	2	0.042474	2.08795	-1.96945	-9.52441
 432	1	2	-0.019174	3.20434	-2.88085	-6.02853
 433	1	1	-0.06457	2.47717	-1.94258	-4.24071
 434	1	1	0.061186	2.9335	-0.508198	-4.65993
 435	1	2	0.013749	1.50954	-1.87669	-3.72561
 436	1	2	0.012175	3.17062	-2.31551	-3.4794
 437	1	1	-0.029522	4.31403	-0.452094	-5.40096
 438	1	1	0.182537	5.58876	-0.937598	-4.64141
 439	1	2	0.017614	4.47843	0.583781	-5.70894
 440	1	2	0.005524	4.24739	-0.987834	-6.35293
 441	1	1	-0.245806	6.84179	-0.226366	-5.20304
 442	1	1	-0.291525	5.82612	-2.46331	-4.74326
 443	1	2	-0.003466	5.50974	-0.669796	-3.58159
 444	1	2	0.0629	5.84311	-2.79095	-5.79038
 445	1	2	0.058439	5.06178	-3.0386	-4.21739
 446	1	2	0.076366	6.78917	-2.73291	-4.29191
 447	1	2	0.061036	6.99223	-0.476839	-6.261
 448	1	2	0.060061	7.74124	-0.525968	-4.65068
 449	1	2	0.042474	6.75367	0.86367	-5.12262
 450	1	2	-0.019174	2.18854	-0.154803	-5.37648
 451	1	1	-0.06457	2.83008	0.430958	-3.415
 452	1	1	0.061186	2.89654	1.98556	-3.58784
 453	1	2	0.013749	1.86392	0.227739	-2.93466
 454	1	2	0.012175	3.57159	0.121416	-2.67071
 455	1	1	-0.029522	1.76504	2.57467	-4.49203
 456	1	1	0.182537	1.96221	2.54387	-6.03951
 457	1	2	0.017614	1.57619	3.61107	-4.18666
 458	1	2	0.005524	0.837669	2.04531	-4.2365
 459	1	1	-0.245806	2.33998	3.93122	-6.60732
 460	1	1	-0.291525	0.68553	2.04417	-6.75216
 461	1	2	-0.003466	2.76825	1.85329	-6.29871
 462	1	2	0.0629	-0.160968	2.71492	-6.5576
 463	1	2	0.058439	0.409431	1.03941	-6.40948
 464	1	2	0.076366	0.839934	1.99493	-7.83735
 465	1	2	0.061036	1.55381	4.66828	-6.40004
 466	1	2	0.060061	2.47542	3.8789	-7.69487
 467	1	2	0.042474	3.27578	4.30275	-6.17782
 468	1	2	-0.019174	2.61758	2.33527	-2.58842
 469	1	1	-0.06457	4.33548	2.54404	-3.84238
 470	1	1	0.061186	4.8303	3.67521	-2.88365
 471	1	2	0.013749	5.05055	1.72339	-3.76238
 472	1	2	0.012175	4.43572	2.88666	-4.87646
 473	1	1	-0.029522	4.95438	3.19963	-1.39693
 474	1	1	0.182537	5.82812	1.93664	-1.14006
 475	1	2	0.017614	3.95374	3.02049	-0.986336
 476	1	2	0.005524	5.36648	4.00631	-0.786251
 477	1	1	-0.245806	5.89327	1.63363	0.371563
 478	1	1	-0.291525	7.26252	2.05202	-1.70501
 479	1	2	-0.003466	5.35132	1.07311	-1.61466
 480	1	2	0.0629	7.79482	2.90248	-1.26419
 481	1	2	0.058439	7.25997	2.17331	-2.79426
 482	1	2	0.076366	7.83682	1.14447	-1.4813
 483	1	2	0.061036	6.46024	0.71332	0.559847
 484	1	2	0.060061	4.88631	1.4981	0.785532
 485	1	2	0.042474	6.38058	2.45214	0.916732
 486	1	2	-0.019174	5.83775	3.93045	-3.22759
 487	1	1	-0.06457	3.9635	4.9656	-3.03006
 488	1	1	0.061186	4.47429	6.25266	-2.30812
 489	1	2	0.013749	3.84305	5.19833	-4.09489
 490	1	2	0.012175	2.96021	4.73881	-2.64872
 491	1	1	-0.029522	3.35585	7.34432	-2.30657
 492	1	1	0.182537	2.89529	7.77978	-0.889872
 493	1	2	0.017614	2.47915	6.99751	-2.86947
 494	1	2	0.005524	3.70333	8.23171	-2.85139
 495	1	1	-0.245806	2.14662	6.64951	-0.147123
 496	1	1	-0.291525	1.9976	9.03203	-0.973802
 497	1	2	-0.003466	3.78126	8.04995	-0.301372
 498	1	2	0.0629	2.5294	9.86144	-1.45674
 499	1	2	0.058439	1.69829	9.36424	0.0281682
 500	1	2	0.076366	1.0878	8.82544	-1.55161
 501	1	2	0.061036	1.82665	6.98761	0.846418
 502	1	2	0.060061	2.78331	5.76825	-0.00596485
 503	1	2	0.042474	1.2535	6.33875	-0.703846
 504	1	2	-0.019174	4.66976	5.97696	-1.2707
 505	1	1	-0.06457	5.79983	6.82267	-2.91156
 506	1	1	0.061186	6.51651	7.8832	-2.00993
 507	1	2	0.013749	6.50479	6.01772	-3.13975
 508	1	2	0.012175	5.5597	7.2704	-3.8848
 509	1	1	-0.029522	6.99902	7.27479	-0.64648
 510	1	1	0.182537	7.7759	5.92297	-0.659767
 511	1	2	0.017614	6.10645	7.12904	-0.0263652
 512	1	2	0.005524	7.58692	7.99718	-0.0812989
 513	1	1	-0.245806	7.97483	5.42083	0.786478
 514	1	1	-0.291525	9.14187	5.97052	-1.37616
 515	1	2	-0.003466	7.1708	5.17326	-1.17254
 516	1	2	0.0629	9.01374	6.03879	-2.46204
 517	1	2	0.058439	9.71153	5.05229	-1.18593
 518	1	2	0.076366	9.74356	6.82007	-1.03035
 519	1	2	0.061036	8.59541	6.11857	1.36283
 520	1	2	0.060061	8.46536	4.43937	0.795313
 521	1	2	0.042474	7.01057	5.31416	1.29917
 522	1	2	-0.019174	5.75261	8.62254	-1.75034
 523	1	1	-0.06457	7.60752	8.67111	-2.81628
 524	1	1	0.061186	7.93143	10.1425	-2.38622
 525	1	2	0.013749	8.54527	8.113	-2.83514
 526	1	2	0.012175	7.30437	8.70504	-3.86913
 527	1	1	-0.029522	6.70712	11.1093	-2.43532
 528	1	1	0.182537	5.88176	11.1161	-3.75198
 529	1	2	0.017614	7.05854	12.1316	-2.24818
 530	1	2	0.005524	6.03059	10.8732	-1.60404
 531	1	1	-0.245806	6.72581	11.5272	-4.97842
 532	1	1	-0.291525	4.6686	12.0601	-3.61484
 533	1	2	-0.003466	5.48298	10.1101	-3.93022
 534	1	2	0.0629	4.05512	12.0404	-4.52431
 535	1	2	0.058439	4.99168	13.0948	-3.4429
 536	1	2	0.076366	4.03159	11.7561	-2.7748
 537	1	2	0.061036	6.10095	11.5769	-5.87883
 538	1	2	0.060061	7.52356	10.8016	-5.17364
 539	1	2	0.042474	7.18448	12.5128	-4.82787
 540	1	2	-0.019174	8.65707	10.4992	-3.12352
 541	1	1	-0.06457	8.61554	10.209	-0.990325
 542	1	1	0.061186	9.49948	11.4583	-0.678146
 543	1	2	0.013749	7.8138	10.1404	-0.251037
 544	1	2	0.012175	9.24418	9.32012	-0.852924
 545	1	1	-0.029522	9.87166	11.4973	0.842455
 546	1	1	0.182537	8.69849	11.5019	1.86575
 547	1	2	0.017614	10.4552	12.401	1.04657
 548	1	2	0.005524	10.529	10.6468	1.06655
 549	1	1	-0.245806	7.66914	12.621	1.58934
 550	1	1	-0.291525	9.24662	11.6437	3.30157
 551	1	2	-0.003466	8.17829	10.5377	1.82773
 552	1	2	0.0629	8.43232	11.5951	4.03543
 553	1	2	0.058439	9.76773	12.6006	3.43286
 554	1	2	0.076366	9.9523	10.8351	3.52987
 555	1	2	0.061036	6.89629	12.6366	2.36792
 556	1	2	0.060061	7.16218	12.469	0.629114
 557	1	2	0.042474	8.15444	13.6051	1.5716
 558	1	2	-0.019174	8.9243	12.3642	-0.900767
 559	1	1	-0.06457	10.7588	11.465	-1.6113
 560	1	1	0.061186	11.966	12.367	-1.20824
 561	1	2	0.013749	11.1255	10.4332	-1.68726
 562	1	2	0.012175	10.4355	11.7493	-2.61411
 563	1	1	-0.029522	11.6041	13.8841	-1.15164
 564	1	1	0.182537	12.6675	14.7902	-0.475612
 565	1	2	0.017614	10.6579	14.0182	-0.614439
 566	1	2	0.005524	11.4128	14.2567	-2.16202
 567	1	1	-0.245806	12.8245	14.4936	1.03344
 568	1	1	-0.291525	12.3149	16.279	-0.674239
 569	1	2	-0.003466	13.632	14.6203	-0.963108
 570	1	2	0.0629	12.244	16.524	-1.74135
 571	1	2	0.058439	13.0864	16.9231	-0.233797
 572	1	2	0.076366	11.3551	16.5218	-0.200895
 573	1	2	0.061036	13.518	15.2057	1.49733
 574	1	2	0.060061	13.227	13.4887	1.20537
 575	1	2	0.042474	11.8616	14.5742	1.55354
 576	1	2	-0.019174	12.2221	12.056	-0.191391
 577	1	1	-0.06457	13.2623	12.0174	-2.01278
 578	1	1	0.061186	13.5838	12.7293	-3.36963
 579	1	2	0.013749	14.0966	12.2286	-1.33491
 580	1	2	0.012175	13.3001	10.931	-2.16327
 581	1	1	-0.029522	12.4455	12.6919	-4.44396
 582	1	1	0.182537	11.9766	11.3108	-5.00207
 583	1	2	0.017614	12.7469	13.3224	-5.29072
 584	1	2	0.005524	11.5739	13.2047	-4.02841
 585	1	1	-0.245806	12.8662	10.7585	-6.14362
 586	1	1	-0.291525	10.5388	11.4344	-5.55895
 587	1	2	-0.003466	11.9564	10.577	-4.18747
 588	1	2	0.0629	10.1594	10.4564	-5.88047
 589	1	2	0.058439	10.5102	12.1115	-6.42221
 590	1	2	0.076366	9.84725	11.8265	-4.80534
 591	1	2	0.061036	13.8564	10.4528	-5.79945
 592	1	2	0.060061	12.994	11.5046	-6.93801
 593	1	2	0.042474	12.4057	9.86936	-6.59244
 594	1	2	-0.019174	13.7342	13.7921	-3.15395
 595	1	1	-0.06457	14.9183	12.1752	-3.95618
 596	1	1	0.061186	16.2544	12.4666	-3.19689
 597	1	2	0.013749	14.794	11.092	-4.00474
 598	1	2	0.012175	15.0306	12.5269	-4.99033
 599	1	1	-0.029522	17.4195	11.6393	-3.83703
 600	1	1	0.182537	17.2848	10.0887	-3.79924
 601	1	2	0.017614	18.3644	11.8826	-3.34153
 602	1	2	0.005524	17.5413	11.9558	-4.88142
 603	1	1	-0.245806	17.03	9.54272	-2.37585
 604	1	1	-0.291525	18.5511	9.43159	-4.3876
 605	1	2	-0.003466	16.4494	9.78058	-4.43852
 606	1	2	0.0629	19.437	9.67435	-3.78712
 607	1	2	0.058439	18.7273	9.77661	-5.41416
 608	1	2	0.076366	18.4458	8.33978	-4.4141
 609	1	2	0.061036	17.0177	8.4457	-2.37848
 610	1	2	0.060061	16.0607	9.87708	-1.98748
 611	1	2	0.042474	17.8134	9.87302	-1.68189
 612	1	2	-0.019174	16.141	12.1493	-2.15675
 613	1	1	-0.06457	16.5813	13.9938	-3.19254
 614	1	1	0.061186	17.9546	14.448	-2.59186
 615	1	2	0.013749	16.5637	14.2949	-4.24203
 616	1	2	0.012175	15.7742	14.543	-2.69857
 617	1	1	-0.029522	18.3488	13.7728	-1.2328
 618	1	1	0.182537	17.8015	14.3811	0.0917439
 619	1	2	0.017614	19.4442	13.8169	-1.1699
 620	1	2	0.005524	18.119	12.7027	-1.24824
 621	1	1	-0.245806	18.3805	13.615	1.30058
 622	1	1	-0.291525	16.2644	14.3864	0.180903
 623	1	2	-0.003466	18.1472	15.4185	0.179813
 624	1	2	0.0629	15.9387	14.7052	1.17858
 625	1	2	0.058439	15.8523	13.3878	-0.00819837
 626	1	2	0.076366	15.836	15.0918	-0.536935
 627	1	2	0.061036	19.4774	13.6384	1.28857
 628	1	2	0.060061	18.06	12.5654	1.29124
 629	1	2	0.042474	18.0475	14.0652	2.24427
 630	1	2	-0.019174	18.7101	14.0926	-3.29994
 631	1	1	-0.06457	18.1256	16.002	-2.49545
 632	1	1	0.061186	18.2434	16.8637	-3.79388
 633	1	2	0.013749	19.0509	16.1869	-1.93323
 634	1	2	0.012175	17.3244	16.4188	-1.87273
 635	1	1	-0.029522	19.3028	16.3011	-4.79343
 636	1	1	0.182537	20.2131	17.3551	-5.48896
 637	1	2	0.017614	18.7872	15.6955	-5.55006
 638	1	2	0.005524	19.9755	15.6127	-4.26737
 639	1	1	-0.245806	20.9995	16.7013	-6.64482
 640	1	1	-0.291525	21.204	18.0191	-4.50508
 641	1	2	-0.003466	19.6013	18.1482	-5.92584
 642	1	2	0.0629	21.8547	18.727	-5.03367
 643	1	2	0.058439	21.8425	17.2681	-4.02306
 644	1	2	0.076366	20.6825	18.5793	-3.72079
 645	1	2	0.061036	20.3155	16.2706	-7.38681
 646	1	2	0.060061	21.6513	15.9002	-6.27362
 647	1	2	0.042474	21.6263	17.4416	-7.15789
 648	1	2	-0.019174	18.6211	17.8145	-3.41048
 649	1	1	-0.06457	16.8512	17.1662	-4.43952
 650	1	1	0.061186	16.7818	18.2709	-5.54102
 651	1	2	0.013749	16.1538	17.4449	-3.6385
 652	1	2	0.012175	16.4505	16.2503	-4.86578
 653	1	1	-0.029522	15.356	18.2949	-6.17914
 654	1	1	0.182537	15.2193	17.5052	-7.51321
 655	1	2	0.017614	15.057	19.3267	-6.38782
 656	1	2	0.005524	14.6166	17.9271	-5.45539
 657	1	1	-0.245806	13.8009	17.6833	-8.09419
 658	1	1	-0.291525	15.5412	15.9994	-7.38705
 659	1	2	-0.003466	15.9234	17.934	-8.23763
 660	1	2	0.0629	15.3675	15.4864	-8.34126
 661	1	2	0.058439	14.91	15.5226	-6.62636
 662	1	2	0.076366	16.5928	15.8392	-7.12202
 663	1	2	0.061036	13.0447	17.2645	-7.4181
 664	1	2	0.060061	13.7105	17.1773	-9.06356
 665	1	2	0.042474	13.5724	18.7453	-8.24868
 666	1	2	-0.019174	17.4917	18.0102	-6.33124
 667	1	1	-0.06457	17.1912	19.6497	-4.93531
 668	1	1	0.061186	17.1797	20.9221	-5.83876