pySIMM System Object

596 atoms
595 bonds
1188 angles
1773 dihedrals
0 impropers

2 atom types
2 bond types
3 angle types
3 dihedral types

-103.798926 103.798926 xlo xhi
-103.798926 103.798926 ylo yhi
-103.798926 103.798926 zlo zhi

Masses

   1	12.01	# c3
   2	1.008	# hc

Pair Coeffs

   1	0.1094	3.3996695084235347	# c3
   2	0.0157	2.649532787749369	# hc

Bond Coeffs

   1	330.6	1.0969	# c3,hc
   2	300.9	1.5375	# c3,c3

Angle Coeffs

   1	46.34	109.8	# c3,c3,hc
   2	39.4	107.58	# hc,c3,hc
   3	62.86	111.51	# c3,c3,c3

Dihedral Coeffs

   1	1	0.16	3	0	# hc,c3,c3,c3
   2	1	0.15	3	0	# hc,c3,c3,hc
   3	3	0.18	3	0	0.25	2	180	0.2	1	180	# c3,c3,c3,c3

Atoms

   1	1	1	-0.06457	1.18241	14.4136	0.877658
   2	1	1	0.061186	1.7957	13.2785	1.73577
   3	1	2	0.013749	0.232982	14.1043	0.425047
   4	1	2	0.012175	0.989647	15.3053	1.48766
   5	1	1	-0.029522	3.11583	13.7241	2.42697
   6	1	1	0.182537	4.31146	14.0143	1.47461
   7	1	2	0.017614	3.42893	12.9427	3.13143
   8	1	2	0.005524	2.90987	14.6178	3.03074
   9	1	1	-0.245806	4.75213	12.7659	0.675309
  10	1	1	-0.291525	5.51663	14.5574	2.27125
  11	1	2	-0.003466	4.02026	14.7942	0.760829
  12	1	2	0.0629	5.88194	13.8129	2.99003
  13	1	2	0.058439	5.24288	15.4655	2.8229
  14	1	2	0.076366	6.34375	14.8132	1.59731
  15	1	2	0.061036	3.97476	12.443	-0.0265875
  16	1	2	0.060061	4.9807	11.9291	1.3478
  17	1	2	0.042474	5.65104	12.9819	0.0844471
  18	1	2	-0.019174	2.04735	12.4491	1.07257
  19	1	1	-0.06457	0.780877	12.7552	2.79408
  20	1	1	0.061186	-0.496875	12.0277	2.25339
  21	1	2	0.013749	1.29957	12.1006	3.50317
  22	1	2	0.012175	0.459482	13.6113	3.40127
  23	1	1	-0.029522	-1.22997	11.2382	3.38037
  24	1	1	0.182537	-1.65799	12.0512	4.63351
  25	1	2	0.017614	-0.576553	10.4252	3.71976
  26	1	2	0.005524	-2.12167	10.7592	2.95439
  27	1	1	-0.245806	-2.29152	11.1098	5.68081
  28	1	1	-0.291525	-2.64083	13.1945	4.29748
  29	1	2	-0.003466	-0.765143	12.4913	5.09457
  30	1	2	0.0629	-2.17067	13.9498	3.6569
  31	1	2	0.058439	-2.97127	13.702	5.21234
  32	1	2	0.076366	-3.52962	12.8092	3.78199
  33	1	2	0.061036	-3.21066	10.6512	5.29433
  34	1	2	0.060061	-2.54284	11.6582	6.59741
  35	1	2	0.042474	-1.5966	10.305	5.95059
  36	1	2	-0.019174	-1.17208	12.8315	1.93644
  37	1	1	-0.06457	-0.337066	11.1419	0.966568
  38	1	1	0.061186	0.240426	9.69119	1.09953
  39	1	2	0.013749	-1.35204	11.0554	0.563956
  40	1	2	0.012175	0.210523	11.6821	0.18695
  41	1	1	-0.029522	0.145284	8.92383	-0.255552
  42	1	1	0.182537	-1.27827	8.75651	-0.860965
  43	1	2	0.017614	0.567819	7.92253	-0.128173
  44	1	2	0.005524	0.783075	9.42584	-0.994996
  45	1	1	-0.245806	-2.30253	8.22104	0.162405
  46	1	1	-0.291525	-1.22986	7.8167	-2.08446
  47	1	2	-0.003466	-1.63051	9.73178	-1.21875
  48	1	2	0.0629	-2.21553	7.74434	-2.56007
  49	1	2	0.058439	-0.917943	6.80669	-1.79094
  50	1	2	0.076366	-0.52166	8.18982	-2.83471
  51	1	2	0.061036	-3.25959	8.00378	-0.320768
  52	1	2	0.060061	-2.50007	8.94938	0.957286
  53	1	2	0.042474	-1.93346	7.30031	0.623458
  54	1	2	-0.019174	-0.382503	9.15399	1.81782
  55	1	1	-0.06457	1.70893	9.68403	1.62016
  56	1	1	0.061186	2.31748	8.32839	2.09102
  57	1	2	0.013749	1.78766	10.35	2.47606
  58	1	2	0.012175	2.34941	10.1132	0.838452
  59	1	1	-0.029522	1.55671	7.75273	3.33365
  60	1	1	0.182537	1.2838	6.22307	3.29095
  61	1	2	0.017614	2.11859	7.99659	4.24318
  62	1	2	0.005524	0.597359	8.2582	3.47958
  63	1	1	-0.245806	0.224553	5.8418	2.23434
  64	1	1	-0.291525	0.83724	5.71603	4.67558
  65	1	2	-0.003466	2.21109	5.69927	3.04431
  66	1	2	0.0629	1.63035	5.88926	5.40901
  67	1	2	0.058439	0.636518	4.63823	4.65417
  68	1	2	0.076366	-0.0699941	6.23059	5.01513
  69	1	2	0.061036	-0.714982	6.37676	2.41585
  70	1	2	0.060061	0.0154148	4.7656	2.26459
  71	1	2	0.042474	0.566721	6.07526	1.2211
  72	1	2	-0.019174	2.26696	7.61832	1.26012
  73	1	1	-0.06457	3.82438	8.60377	2.39761
  74	1	1	0.061186	4.67344	7.43242	2.98334
  75	1	2	0.013749	4.31677	8.96406	1.48457
  76	1	2	0.012175	3.84181	9.44907	3.09151
  77	1	1	-0.029522	4.83793	6.2994	1.92255
  78	1	1	0.182537	5.60048	5.0231	2.38204
  79	1	2	0.017614	5.35799	6.71549	1.04972
  80	1	2	0.005524	3.85241	5.99199	1.55676
  81	1	1	-0.245806	4.98366	4.36357	3.63655
  82	1	1	-0.291525	5.65659	3.99533	1.23226
  83	1	2	-0.003466	6.63706	5.29452	2.61618
  84	1	2	0.0629	6.13212	4.4296	0.343922
  85	1	2	0.058439	4.64902	3.66157	0.952959
  86	1	2	0.076366	6.23875	3.11324	1.52697
  87	1	2	0.061036	5.03675	5.02961	4.50502
  88	1	2	0.060061	5.52756	3.44696	3.8966
  89	1	2	0.042474	3.93352	4.09575	3.46749
  90	1	2	-0.019174	4.13589	7.0194	3.84247
  91	1	1	-0.06457	6.06864	7.91107	3.50637
  92	1	1	0.061186	6.10829	9.14879	4.46321
  93	1	2	0.013749	6.7016	8.13666	2.63801
  94	1	2	0.012175	6.54025	7.06468	4.00614
  95	1	1	-0.029522	7.56334	9.51591	4.89607
  96	1	1	0.182537	8.19915	8.7787	6.11598
  97	1	2	0.017614	7.56747	10.5891	5.12756
  98	1	2	0.005524	8.22808	9.40938	4.02878
  99	1	1	-0.245806	8.35425	7.25304	5.93883
 100	1	1	-0.291525	9.57662	9.39811	6.43501
 101	1	2	-0.003466	7.57388	8.94009	6.99845
 102	1	2	0.0629	10.0138	8.93939	7.33079
 103	1	2	0.058439	9.48668	10.4755	6.623
 104	1	2	0.076366	10.275	9.25265	5.60103
 105	1	2	0.061036	7.38215	6.74957	5.98252
 106	1	2	0.060061	8.964	6.82952	6.74674
 107	1	2	0.042474	8.84059	7.01129	4.98534
 108	1	2	-0.019174	5.79864	9.98401	3.82896
 109	1	1	-0.06457	5.10074	9.0548	5.6541
 110	1	1	0.061186	4.97275	10.3024	6.59266
 111	1	2	0.013749	5.37199	8.17533	6.24746
 112	1	2	0.012175	4.10096	8.84302	5.2635
 113	1	1	-0.029522	4.60585	11.6124	5.82277
 114	1	1	0.182537	4.8276	12.9298	6.62484
 115	1	2	0.017614	3.55652	11.5457	5.50606
 116	1	2	0.005524	5.18907	11.7031	4.90182
 117	1	1	-0.245806	6.32828	13.2677	6.78137
 118	1	1	-0.291525	4.10362	14.1132	5.95214
 119	1	2	-0.003466	4.3987	12.8351	7.62728
 120	1	2	0.0629	3.0337	13.9025	5.83031
 121	1	2	0.058439	4.52945	14.3221	4.9657
 122	1	2	0.076366	4.19971	15.0217	6.55974
 123	1	2	0.061036	6.86553	12.4868	7.33098
 124	1	2	0.060061	6.45619	14.206	7.3355
 125	1	2	0.042474	6.80838	13.3854	5.80154
 126	1	2	-0.019174	5.93764	10.4613	7.07897
 127	1	1	-0.06457	3.89349	10.0205	7.68668
 128	1	1	0.061186	4.26774	8.97626	8.78076
 129	1	2	0.013749	3.59141	10.9425	8.19062
 130	1	2	0.012175	3.00086	9.68444	7.15446
 131	1	1	-0.029522	5.53994	9.35707	9.6042
 132	1	1	0.182537	5.7049	10.8288	10.0914
 133	1	2	0.017614	6.41119	9.11991	8.98289
 134	1	2	0.005524	5.62395	8.68428	10.4676
 135	1	1	-0.245806	4.60483	11.3014	11.0663
 136	1	1	-0.291525	7.08767	11.0055	10.7543
 137	1	2	-0.003466	5.688	11.4961	9.22401
 138	1	2	0.0629	7.17653	10.3797	11.6515
 139	1	2	0.058439	7.24911	12.0501	11.0488
 140	1	2	0.076366	7.89155	10.7274	10.0611
 141	1	2	0.061036	3.64793	11.4352	10.5506
 142	1	2	0.060061	4.86657	12.2735	11.5028
 143	1	2	0.042474	4.46926	10.5865	11.8876
 144	1	2	-0.019174	4.5468	8.05331	8.26596
 145	1	1	-0.06457	3.07084	8.59296	9.71402
 146	1	1	0.061186	1.81417	7.92036	9.07039
 147	1	2	0.013749	2.73953	9.46468	10.283
 148	1	2	0.012175	3.45127	7.89594	10.4716
 149	1	1	-0.029522	2.16668	6.77449	8.07186
 150	1	1	0.182537	3.00398	5.59966	8.65213
 151	1	2	0.017614	2.69781	7.20396	7.21338
 152	1	2	0.005524	1.2437	6.35522	7.65897
 153	1	1	-0.245806	2.22499	4.78599	9.70837
 154	1	1	-0.291525	3.46814	4.66278	7.5172
 155	1	2	-0.003466	3.90702	5.99595	9.13045
 156	1	2	0.0629	4.05614	5.21514	6.77403
 157	1	2	0.058439	2.61096	4.20548	7.00682
 158	1	2	0.076366	4.09927	3.85682	7.91187
 159	1	2	0.061036	1.95528	5.40472	10.5719
 160	1	2	0.060061	2.8341	3.95238	10.0794
 161	1	2	0.042474	1.30597	4.36827	9.27957
 162	1	2	-0.019174	1.28355	7.46172	9.91033
 163	1	1	-0.06457	0.82541	8.95416	8.43214
 164	1	1	0.061186	-0.682768	8.79976	8.80932
 165	1	2	0.013749	1.1415	9.97421	8.67784
 166	1	2	0.012175	0.902268	8.89867	7.3384
 167	1	1	-0.029522	-0.982927	9.04663	10.3216
 168	1	1	0.182537	-0.442051	10.3732	10.9243
 169	1	2	0.017614	-0.595986	8.20616	10.9109
 170	1	2	0.005524	-2.06873	9.04514	10.4723
 171	1	1	-0.245806	-0.983925	11.6225	10.1932
 172	1	1	-0.291525	-0.791466	10.4565	12.4249
 173	1	2	-0.003466	0.651105	10.3818	10.8532
 174	1	2	0.0629	-0.376723	9.59899	12.9696
 175	1	2	0.058439	-1.87835	10.4657	12.5768
 176	1	2	0.076366	-0.376571	11.3693	12.8705
 177	1	2	0.061036	-2.0811	11.6391	10.2066
 178	1	2	0.060061	-0.653012	11.6508	9.14842
 179	1	2	0.042474	-0.623828	12.5398	10.6756
 180	1	2	-0.019174	-1.20838	9.57698	8.24537
 181	1	1	-0.06457	-1.2287	7.42758	8.31485
 182	1	1	0.061186	-2.7468	7.12716	8.51483
 183	1	2	0.013749	-0.998398	7.32744	7.2458
 184	1	2	0.012175	-0.658154	6.64337	8.81723
 185	1	1	-0.029522	-3.62764	8.10082	7.67401
 186	1	1	0.182537	-5.17007	7.98547	7.861
 187	1	2	0.017614	-3.38462	7.97589	6.61141
 188	1	2	0.005524	-3.34969	9.12939	7.9311
 189	1	1	-0.245806	-5.88289	9.14431	7.13027
 190	1	1	-0.291525	-5.60898	7.97495	9.34293
 191	1	2	-0.003466	-5.51756	7.05234	7.40327
 192	1	2	0.0629	-5.21647	8.85071	9.87516
 193	1	2	0.058439	-5.26049	7.07118	9.85638
 194	1	2	0.076366	-6.7031	7.99047	9.42245
 195	1	2	0.061036	-6.97236	9.02717	7.18554
 196	1	2	0.060061	-5.60327	9.17663	6.07135
 197	1	2	0.042474	-5.62101	10.1114	7.57818
 198	1	2	-0.019174	-3.00557	7.30202	9.56126
 199	1	1	-0.06457	-3.00996	5.61786	8.20197
 200	1	1	0.061186	-3.05199	4.6524	9.43439
 201	1	2	0.013749	-3.96411	5.52113	7.67552
 202	1	2	0.012175	-2.25546	5.26038	7.48828
 203	1	1	-0.029522	-1.90026	4.89498	10.4658
 204	1	1	0.182537	-1.91595	4.02335	11.7537
 205	1	2	0.017614	-1.90375	5.93882	10.795
 206	1	2	0.005524	-0.941664	4.73214	9.95981
 207	1	1	-0.245806	-3.23944	4.14439	12.542
 208	1	1	-0.291525	-0.731826	4.40816	12.6662
 209	1	2	-0.003466	-1.77397	2.97118	11.4796
 210	1	2	0.0629	-0.808261	5.45313	12.9928
 211	1	2	0.058439	0.222099	4.28266	12.1393
 212	1	2	0.076366	-0.706578	3.77206	13.5598
 213	1	2	0.061036	-3.45216	5.1911	12.7937
 214	1	2	0.060061	-3.18623	3.57338	13.4773
 215	1	2	0.042474	-4.08481	3.749	11.9665
 216	1	2	-0.019174	-3.99636	4.8556	9.951
 217	1	1	-0.06457	-3.03833	3.15785	8.98374
 218	1	1	0.061186	-4.03684	2.71103	7.87126
 219	1	2	0.013749	-2.01786	2.93331	8.66147
 220	1	2	0.012175	-3.22205	2.51965	9.85609
 221	1	1	-0.029522	-5.50414	2.82693	8.38929
 222	1	1	0.182537	-6.61568	2.69319	7.31045
 223	1	2	0.017614	-5.64926	3.79094	8.89013
 224	1	2	0.005524	-5.6565	2.06193	9.16227
 225	1	1	-0.245806	-6.64676	3.90801	6.35844
 226	1	1	-0.291525	-7.99708	2.5305	7.97812
 227	1	2	-0.003466	-6.44143	1.79313	6.71029
 228	1	2	0.0629	-8.78361	2.41409	7.222
 229	1	2	0.058439	-8.24189	3.40448	8.5951
 230	1	2	0.076366	-8.01631	1.64142	8.62083
 231	1	2	0.061036	-7.42798	3.78491	5.59805
 232	1	2	0.060061	-5.6927	4.0266	5.8371
 233	1	2	0.042474	-6.85071	4.83448	6.90997
 234	1	2	-0.019174	-3.91384	3.36689	7.00496
 235	1	1	-0.06457	-3.70028	1.24984	7.42152
 236	1	1	0.061186	-2.85897	1.09228	6.11476
 237	1	2	0.013749	-3.17477	0.734136	8.23615
 238	1	2	0.012175	-4.62369	0.673967	7.29805
 239	1	1	-0.029522	-1.48968	1.84123	6.19159
 240	1	1	0.182537	-0.362566	1.44588	5.1883
 241	1	2	0.017614	-1.06919	1.6516	7.186
 242	1	2	0.005524	-1.65666	2.92466	6.13349
 243	1	1	-0.245806	-0.598304	1.89862	3.73188
 244	1	1	-0.291525	-0.010353	-0.0568087	5.23476
 245	1	2	-0.003466	0.531975	1.98514	5.52708
 246	1	2	0.0629	0.895031	-0.256479	4.64806
 247	1	2	0.058439	-0.817781	-0.672741	4.82126
 248	1	2	0.076366	0.178932	-0.381593	6.26538
 249	1	2	0.061036	0.332006	1.82345	3.15519
 250	1	2	0.060061	-0.931451	2.94187	3.69348
 251	1	2	0.042474	-1.34351	1.2731	3.23099
 252	1	2	-0.019174	-2.62524	0.0223884	6.07229
 253	1	1	-0.06457	-3.70132	1.45382	4.85019
 254	1	1	0.061186	-3.99572	0.230836	3.9299
 255	1	2	0.013749	-4.65022	1.91172	5.1476
 256	1	2	0.012175	-3.18887	2.23368	4.2803
 257	1	1	-0.029522	-5.06747	-0.707	4.562
 258	1	1	0.182537	-5.27514	-2.07692	3.85443
 259	1	2	0.017614	-6.02337	-0.170878	4.61011
 260	1	2	0.005524	-4.79423	-0.914998	5.60306
 261	1	1	-0.245806	-6.46316	-2.82832	4.49083
 262	1	1	-0.291525	-4.01242	-2.96608	3.90111
 263	1	2	-0.003466	-5.5284	-1.91303	2.80174
 264	1	2	0.0629	-3.18666	-2.51832	3.336
 265	1	2	0.058439	-4.21482	-3.94911	3.45785
 266	1	2	0.076366	-3.67931	-3.12147	4.93503
 267	1	2	0.061036	-6.64053	-3.78152	3.97715
 268	1	2	0.060061	-7.3826	-2.23381	4.41943
 269	1	2	0.042474	-6.27334	-3.04078	5.55063
 270	1	2	-0.019174	-3.05969	-0.33469	3.86626
 271	1	1	-0.06457	-4.31163	0.656706	2.46428
 272	1	1	0.061186	-5.56966	1.56084	2.23828
 273	1	2	0.013749	-4.37241	-0.243298	1.8486
 274	1	2	0.012175	-3.42323	1.17204	2.08189
 275	1	1	-0.029522	-6.85932	0.764537	1.8521
 276	1	1	0.182537	-7.08763	0.394933	0.351832
 277	1	2	0.017614	-7.71319	1.38215	2.16026
 278	1	2	0.005524	-6.93378	-0.14186	2.46033
 279	1	1	-0.245806	-8.45879	-0.293035	0.181006
 280	1	1	-0.291525	-5.99249	-0.506248	-0.255418
 281	1	2	-0.003466	-7.12408	1.31729	-0.240492
 282	1	2	0.0629	-5.88996	-1.44101	0.30957
 283	1	2	0.058439	-5.02528	0.00459691	-0.267843
 284	1	2	0.076366	-6.23424	-0.761611	-1.29416
 285	1	2	0.061036	-8.65801	-0.508485	-0.876087
 286	1	2	0.060061	-9.26743	0.35107	0.548412
 287	1	2	0.042474	-8.49605	-1.23969	0.735007
 288	1	2	-0.019174	-5.80843	2.03925	3.19246
 289	1	1	-0.06457	-5.27917	2.69714	1.21393
 290	1	1	0.061186	-4.35926	3.85033	1.70975
 291	1	2	0.013749	-4.81922	2.23042	0.337728
 292	1	2	0.012175	-6.22801	3.13475	0.881643
 293	1	1	-0.029522	-5.10399	4.79081	2.71321
 294	1	1	0.182537	-4.27923	5.96297	3.31822
 295	1	2	0.017614	-5.47426	4.18651	3.54677
 296	1	2	0.005524	-6.00374	5.19974	2.24525
 297	1	1	-0.245806	-3.08916	5.47267	4.1725
 298	1	1	-0.291525	-5.18297	6.87804	4.16604
 299	1	2	-0.003466	-3.88987	6.59251	2.5112
 300	1	2	0.0629	-6.02584	7.25425	3.57286
 301	1	2	0.058439	-4.6141	7.74414	4.52267
 302	1	2	0.076366	-5.58562	6.34574	5.03518
 303	1	2	0.061036	-2.37433	4.90561	3.56666
 304	1	2	0.060061	-3.4303	4.82872	4.99194
 305	1	2	0.042474	-2.55098	6.32261	4.60998
 306	1	2	-0.019174	-3.55217	3.38611	2.28454
 307	1	1	-0.06457	-3.62384	4.57377	0.531105
 308	1	1	0.061186	-4.4046	5.08782	-0.73024
 309	1	2	0.013749	-3.06547	5.41611	0.940851
 310	1	2	0.012175	-2.82396	3.90938	0.199838
 311	1	1	-0.029522	-5.64609	5.95473	-0.361961
 312	1	1	0.182537	-6.37961	6.67571	-1.53032
 313	1	2	0.017614	-5.34391	6.70715	0.377744
 314	1	2	0.005524	-6.38799	5.31171	0.121976
 315	1	1	-0.245806	-5.46805	7.61179	-2.35454
 316	1	1	-0.291525	-7.58029	7.47678	-0.983567
 317	1	2	-0.003466	-6.78947	5.91868	-2.20971
 318	1	2	0.0629	-7.24772	8.26675	-0.298203
 319	1	2	0.058439	-8.27201	6.8209	-0.440067
 320	1	2	0.076366	-8.13867	7.94779	-1.80225
 321	1	2	0.061036	-4.64726	7.06024	-2.82709
 322	1	2	0.060061	-5.04307	8.40276	-1.72561
 323	1	2	0.042474	-6.0397	8.09403	-3.1573
 324	1	2	-0.019174	-3.70147	5.77139	-1.21418
 325	1	1	-0.06457	-4.76068	3.99607	-1.79482
 326	1	1	0.061186	-3.62704	3.02804	-2.26656
 327	1	2	0.013749	-5.60853	3.4095	-1.42371
 328	1	2	0.012175	-5.13662	4.49831	-2.69406
 329	1	1	-0.029522	-2.50256	3.80264	-3.03237
 330	1	1	0.182537	-1.0474	3.27425	-2.87239
 331	1	2	0.017614	-2.49064	4.85294	-2.72646
 332	1	2	0.005524	-2.76159	3.82734	-4.09897
 333	1	1	-0.245806	-0.520887	3.37554	-1.42263
 334	1	1	-0.291525	-0.0999744	4.04334	-3.81699
 335	1	2	-0.003466	-1.00241	2.22422	-3.16886
 336	1	2	0.0629	-0.425589	3.9443	-4.86013
 337	1	2	0.058439	0.922216	3.65059	-3.74742
 338	1	2	0.076366	-0.0736647	5.11104	-3.56581
 339	1	2	0.061036	-1.06287	2.70044	-0.751281
 340	1	2	0.060061	-0.614703	4.39867	-1.03768
 341	1	2	0.042474	0.538032	3.09215	-1.37534
 342	1	2	-0.019174	-3.21308	2.53586	-1.38486
 343	1	1	-0.06457	-4.29551	1.92264	-3.14201
 344	1	1	0.061186	-3.39086	0.781645	-3.70236
 345	1	2	0.013749	-5.10291	1.45531	-2.56296
 346	1	2	0.012175	-4.78759	2.43682	-3.97471
 347	1	1	-0.029522	-2.72374	-0.031801	-2.54767
 348	1	1	0.182537	-1.77757	-1.19505	-2.96399
 349	1	2	0.017614	-3.51674	-0.452692	-1.9198
 350	1	2	0.005524	-2.15528	0.644794	-1.90085
 351	1	1	-0.245806	-1.20065	-1.88481	-1.70973
 352	1	1	-0.291525	-0.622175	-0.737676	-3.88232
 353	1	2	-0.003466	-2.35877	-1.95497	-3.4999
 354	1	2	0.0629	-0.998003	-0.329469	-4.82783
 355	1	2	0.058439	0.0314618	-1.58378	-4.12873
 356	1	2	0.076366	-0.0103855	0.0294709	-3.39176
 357	1	2	0.061036	-2.00652	-2.25999	-1.06639
 358	1	2	0.060061	-0.590166	-1.1874	-1.12205
 359	1	2	0.042474	-0.570369	-2.73829	-1.9898
 360	1	2	-0.019174	-2.59815	1.2381	-4.30079
 361	1	1	-0.06457	-4.2052	-0.161874	-4.64106
 362	1	1	0.061186	-4.95689	0.486344	-5.84783
 363	1	2	0.013749	-3.53231	-0.92148	-5.05526
 364	1	2	0.012175	-4.92777	-0.694152	-4.01138
 365	1	1	-0.029522	-4.00574	1.40315	-6.68181
 366	1	1	0.182537	-4.62202	2.09745	-7.92891
 367	1	2	0.017614	-3.14032	0.80894	-7.00383
 368	1	2	0.005524	-3.60891	2.19602	-6.03771
 369	1	1	-0.245806	-3.56085	2.97438	-8.62667
 370	1	1	-0.291525	-5.85858	2.95611	-7.58022
 371	1	2	-0.003466	-4.926	1.33261	-8.65363
 372	1	2	0.0629	-5.61221	3.70782	-6.81958
 373	1	2	0.058439	-6.68054	2.33795	-7.20023
 374	1	2	0.076366	-6.22813	3.48078	-8.47006
 375	1	2	0.061036	-3.97072	3.43181	-9.53584
 376	1	2	0.060061	-2.68957	2.37397	-8.91706
 377	1	2	0.042474	-3.21668	3.77924	-7.96459
 378	1	2	-0.019174	-5.76356	1.11149	-5.45187
 379	1	1	-0.06457	-5.60128	-0.613342	-6.74806
 380	1	1	0.061186	-6.54334	-1.64713	-6.05003
 381	1	2	0.013749	-6.17748	-0.140893	-7.55196
 382	1	2	0.012175	-4.77235	-1.13726	-7.23361
 383	1	1	-0.029522	-7.75632	-0.924106	-5.38585
 384	1	1	0.182537	-8.79399	-1.82626	-4.65996
 385	1	2	0.017614	-8.27926	-0.340131	-6.15465
 386	1	2	0.005524	-7.38369	-0.199225	-4.65232
 387	1	1	-0.245806	-9.92521	-0.960922	-4.06493
 388	1	1	-0.291525	-8.15949	-2.68829	-3.54559
 389	1	2	-0.003466	-9.25897	-2.49789	-5.39179
 390	1	2	0.0629	-7.64106	-2.06035	-2.81125
 391	1	2	0.058439	-7.4385	-3.40522	-3.95568
 392	1	2	0.076366	-8.9292	-3.26425	-3.01689
 393	1	2	0.061036	-9.53465	-0.264678	-3.31211
 394	1	2	0.060061	-10.6864	-1.58991	-3.58653
 395	1	2	0.042474	-10.4201	-0.374077	-4.84903
 396	1	2	-0.019174	-5.98644	-2.14452	-5.25142
 397	1	1	-0.06457	-7.0067	-2.75897	-7.04546
 398	1	1	0.061186	-5.89295	-3.50588	-7.85051
 399	1	2	0.013749	-7.57777	-3.51667	-6.49592
 400	1	2	0.012175	-7.7063	-2.29269	-7.74903
 401	1	1	-0.029522	-6.50012	-4.62641	-8.75189
 402	1	1	0.182537	-7.61033	-4.19004	-9.75053
 403	1	2	0.017614	-6.90582	-5.41446	-8.10393
 404	1	2	0.005524	-5.70028	-5.09716	-9.33429
 405	1	1	-0.245806	-8.08575	-5.40142	-10.5802
 406	1	1	-0.291525	-7.15645	-3.0587	-10.7009
 407	1	2	-0.003466	-8.47909	-3.83344	-9.18401
 408	1	2	0.0629	-6.2711	-3.35858	-11.2752
 409	1	2	0.058439	-6.91687	-2.14194	-10.1494
 410	1	2	0.076366	-7.95365	-2.81173	-11.4131
 411	1	2	0.061036	-8.44971	-6.20331	-9.92578
 412	1	2	0.060061	-7.26895	-5.8036	-11.193
 413	1	2	0.042474	-8.90677	-5.11669	-11.2503
 414	1	2	-0.019174	-5.42194	-2.77308	-8.51063
 415	1	1	-0.06457	-4.79179	-4.08912	-6.90807
 416	1	1	0.061186	-3.51658	-4.68219	-7.58258
 417	1	2	0.013749	-4.44177	-3.31377	-6.21892
 418	1	2	0.012175	-5.25813	-4.85796	-6.27837
 419	1	1	-0.029522	-2.74529	-3.60532	-8.41561
 420	1	1	0.182537	-3.00711	-3.60624	-9.94789
 421	1	2	0.017614	-1.66515	-3.70711	-8.26753
 422	1	2	0.005524	-2.97969	-2.61197	-8.0122
 423	1	1	-0.245806	-2.5113	-4.89672	-10.638
 424	1	1	-0.291525	-2.32998	-2.38189	-10.599
 425	1	2	-0.003466	-4.0814	-3.51883	-10.1351
 426	1	2	0.0629	-2.53932	-2.34799	-11.6755
 427	1	2	0.058439	-1.2414	-2.41584	-10.4632
 428	1	2	0.076366	-2.70246	-1.4495	-10.1565
 429	1	2	0.061036	-3.10894	-5.76395	-10.338
 430	1	2	0.060061	-1.45996	-5.09626	-10.3948
 431	1	2	0.042474	-2.59743	-4.81021	-11.7284
 432	1	2	-0.019174	-3.83186	-5.50154	-8.23119
 433	1	1	-0.06457	-2.60565	-5.28412	-6.46757
 434	1	1	0.061186	-1.44372	-6.20933	-6.9464
 435	1	2	0.013749	-2.1825	-4.44253	-5.90287
 436	1	2	0.012175	-3.20955	-5.83548	-5.73798
 437	1	1	-0.029522	-1.91811	-7.48351	-7.72279
 438	1	1	0.182537	-2.81802	-8.51006	-6.96741
 439	1	2	0.017614	-1.02781	-8.00324	-8.08435
 440	1	2	0.005524	-2.42583	-7.18435	-8.64503
 441	1	1	-0.245806	-2.56957	-9.93873	-7.50389
 442	1	1	-0.291525	-4.32923	-8.2056	-7.10415
 443	1	2	-0.003466	-2.55997	-8.51245	-5.90217
 444	1	2	0.0629	-4.62882	-8.16979	-8.15932
 445	1	2	0.058439	-4.60528	-7.25528	-6.64126
 446	1	2	0.076366	-4.92428	-8.98558	-6.6129
 447	1	2	0.061036	-2.8222	-10.0063	-8.56975
 448	1	2	0.060061	-3.18122	-10.6706	-6.96159
 449	1	2	0.042474	-1.52022	-10.2336	-7.38529
 450	1	2	-0.019174	-0.866516	-5.61769	-7.65636
 451	1	1	-0.06457	-0.492533	-6.49364	-5.73819
 452	1	1	0.061186	0.932756	-7.10272	-5.97099
 453	1	2	0.013749	-0.325444	-5.53848	-5.22315
 454	1	2	0.012175	-1.02554	-7.10734	-5.00272
 455	1	1	-0.029522	1.87332	-6.20582	-6.83904
 456	1	1	0.182537	1.6924	-6.22039	-8.38943
 457	1	2	0.017614	2.91484	-6.44929	-6.60144
 458	1	2	0.005524	1.75481	-5.1762	-6.47647
 459	1	1	-0.245806	2.82088	-6.99191	-9.10631
 460	1	1	-0.291525	1.63649	-4.78205	-8.95275
 461	1	2	-0.003466	0.753806	-6.71415	-8.65317
 462	1	2	0.0629	2.57764	-4.2501	-8.76395
 463	1	2	0.058439	0.824366	-4.20724	-8.49148
 464	1	2	0.076366	1.46208	-4.79407	-10.0359
 465	1	2	0.061036	3.80636	-6.58015	-8.854
 466	1	2	0.060061	2.69778	-6.93363	-10.195
 467	1	2	0.042474	2.80675	-8.05028	-8.83537
 468	1	2	-0.019174	1.36951	-7.02627	-4.97127
 469	1	1	-0.06457	0.913372	-8.62868	-6.31454
 470	1	1	0.061186	1.96221	-9.56577	-5.62667
 471	1	2	0.013749	-0.0676442	-9.01809	-6.02424
 472	1	2	0.012175	0.965119	-8.77432	-7.39914
 473	1	1	-0.029522	2.05031	-9.416	-4.07678
 474	1	1	0.182537	0.710945	-9.51927	-3.29653
 475	1	2	0.017614	2.54322	-8.46798	-3.82898
 476	1	2	0.005524	2.71288	-10.1913	-3.68723
 477	1	1	-0.245806	0.958841	-9.29619	-1.78975
 478	1	1	-0.291525	0.000656704	-10.8745	-3.51121
 479	1	2	-0.003466	0.0364388	-8.72442	-3.63301
 480	1	2	0.0629	0.652643	-11.7091	-3.22437
 481	1	2	0.058439	-0.293993	-11.0119	-4.55811
 482	1	2	0.076366	-0.911355	-10.9322	-2.90422
 483	1	2	0.061036	0.0151402	-9.32468	-1.23096
 484	1	2	0.060061	1.4239	-8.31829	-1.61243
 485	1	2	0.042474	1.62207	-10.0694	-1.381
 486	1	2	-0.019174	1.59126	-10.5754	-5.83342
 487	1	1	-0.06457	3.36635	-9.47901	-6.29418
 488	1	1	0.061186	4.46088	-10.4969	-5.82461
 489	1	2	0.013749	3.23572	-9.61858	-7.37282
 490	1	2	0.012175	3.74094	-8.46242	-6.14659
 491	1	1	-0.029522	5.75732	-10.3357	-6.68128
 492	1	1	0.182537	6.38255	-8.91244	-6.73692
 493	1	2	0.017614	5.5401	-10.6608	-7.70739
 494	1	2	0.005524	6.53026	-11.0154	-6.30535
 495	1	1	-0.245806	7.66189	-8.92611	-7.60002
 496	1	1	-0.291525	6.70757	-8.34939	-5.33498
 497	1	2	-0.003466	5.67863	-8.22929	-7.22759
 498	1	2	0.0629	5.79807	-8.20839	-4.73918
 499	1	2	0.058439	7.20044	-7.37243	-5.41517
 500	1	2	0.076366	7.37715	-9.02444	-4.78725
 501	1	2	0.061036	8.08308	-7.91663	-7.68666
 502	1	2	0.060061	7.44427	-9.28655	-8.61323
 503	1	2	0.042474	8.42728	-9.57882	-7.16115
 504	1	2	-0.019174	4.71473	-10.2695	-4.78354
 505	1	1	-0.06457	3.92758	-11.9648	-5.87348
 506	1	1	0.061186	4.92539	-13.1323	-5.57564
 507	1	2	0.013749	3.07633	-12.0635	-5.19645
 508	1	2	0.012175	3.51658	-12.1133	-6.87541
 509	1	1	-0.029522	5.76682	-12.9785	-4.26285
 510	1	1	0.182537	5.11939	-13.3213	-2.88348
 511	1	2	0.017614	6.19546	-11.9714	-4.20884
 512	1	2	0.005524	6.63303	-13.6431	-4.38066
 513	1	1	-0.245806	3.99595	-12.3578	-2.45431
 514	1	1	-0.291525	6.21047	-13.3325	-1.79055
 515	1	2	-0.003466	4.69677	-14.3315	-2.90957
 516	1	2	0.0629	7.00064	-14.0539	-2.03408
 517	1	2	0.058439	5.78784	-13.6184	-0.819071
 518	1	2	0.076366	6.67121	-12.3421	-1.68448
 519	1	2	0.061036	4.33659	-11.3162	-2.49525
 520	1	2	0.060061	3.67951	-12.5672	-1.42483
 521	1	2	0.042474	3.1102	-12.4755	-3.08454
 522	1	2	-0.019174	5.66671	-13.1106	-6.38298
 523	1	1	-0.06457	4.21402	-14.5231	-5.66494
 524	1	1	0.061186	4.36127	-15.3113	-7.0056
 525	1	2	0.013749	4.6125	-15.1768	-4.88481
 526	1	2	0.012175	3.15064	-14.4116	-5.41876
 527	1	1	-0.029522	3.88586	-14.5375	-8.27211
 528	1	1	0.182537	2.36383	-14.2229	-8.33145
 529	1	2	0.017614	4.13713	-15.1261	-9.16454
 530	1	2	0.005524	4.46329	-13.6096	-8.36419
 531	1	1	-0.245806	1.51342	-15.4907	-8.57156
 532	1	1	-0.291525	2.07352	-13.1897	-9.44123
 533	1	2	-0.003466	2.04344	-13.7809	-7.38126
 534	1	2	0.0629	1.00741	-12.9313	-9.46305
 535	1	2	0.058439	2.3508	-13.5829	-10.4276
 536	1	2	0.076366	2.63769	-12.2641	-9.27126
 537	1	2	0.061036	1.81298	-15.9949	-9.49917
 538	1	2	0.060061	0.450544	-15.2319	-8.6555
 539	1	2	0.042474	1.61268	-16.2039	-7.74531
 540	1	2	-0.019174	3.70143	-16.1813	-6.91583
 541	1	1	-0.06457	5.81114	-15.8653	-7.19595
 542	1	1	0.061186	5.92483	-17.4143	-7.02894
 543	1	2	0.013749	6.15792	-15.5809	-8.19433
 544	1	2	0.012175	6.5076	-15.3765	-6.50253
 545	1	1	-0.029522	7.29543	-17.9603	-7.53842
 546	1	1	0.182537	7.64644	-17.71	-9.03289
 547	1	2	0.017614	7.32594	-19.0444	-7.38417
 548	1	2	0.005524	8.09536	-17.5375	-6.91665
 549	1	1	-0.245806	6.54833	-18.2079	-9.99939
 550	1	1	-0.291525	8.98874	-18.3893	-9.37895
 551	1	2	-0.003466	7.78543	-16.6349	-9.19651
 552	1	2	0.0629	9.27632	-18.1787	-10.4166
 553	1	2	0.058439	8.9223	-19.4782	-9.258
 554	1	2	0.076366	9.79092	-18.0213	-8.727
 555	1	2	0.061036	6.86875	-18.0909	-11.0422
 556	1	2	0.060061	5.62089	-17.6358	-9.8775
 557	1	2	0.042474	6.32589	-19.269	-9.82875
 558	1	2	-0.019174	5.13514	-17.8576	-7.64343
 559	1	1	-0.06457	5.6807	-17.8259	-5.54048
 560	1	1	0.061186	5.57413	-19.3516	-5.21715
 561	1	2	0.013749	6.48438	-17.3761	-4.94758
 562	1	2	0.012175	4.75207	-17.3677	-5.18488
 563	1	1	-0.029522	4.3677	-19.9933	-5.97241
 564	1	1	0.182537	4.12972	-21.5145	-5.74949
 565	1	2	0.017614	4.50183	-19.8456	-7.04982
 566	1	2	0.005524	3.45244	-19.4516	-5.69924
 567	1	1	-0.245806	5.37497	-22.3679	-6.08089
 568	1	1	-0.291525	2.93033	-21.9952	-6.5933
 569	1	2	-0.003466	3.86287	-21.6881	-4.70036
 570	1	2	0.0629	2.72396	-23.0566	-6.40664
 571	1	2	0.058439	3.12556	-21.8684	-7.66572
 572	1	2	0.076366	2.02532	-21.4287	-6.34034
 573	1	2	0.061036	5.71228	-22.1863	-7.10923
 574	1	2	0.060061	5.14911	-23.4368	-5.98061
 575	1	2	0.042474	6.20552	-22.1447	-5.40072
 576	1	2	-0.019174	6.47717	-19.8573	-5.56379
 577	1	1	-0.06457	5.47481	-19.5809	-3.67685
 578	1	1	0.061186	6.67722	-19.1113	-2.81089
 579	1	2	0.013749	4.56767	-19.0862	-3.30597
 580	1	2	0.012175	5.34135	-20.6478	-3.46835
 581	1	1	-0.029522	8.00736	-19.8719	-3.06973
 582	1	1	0.182537	8.96348	-19.2434	-4.12215
 583	1	2	0.017614	7.7724	-20.9055	-3.35541
 584	1	2	0.005524	8.55193	-19.9449	-2.1191
 585	1	1	-0.245806	10.1054	-20.2245	-4.46144
 586	1	1	-0.291525	9.55703	-17.8957	-3.65588
 587	1	2	-0.003466	8.41627	-19.0591	-5.04886
 588	1	2	0.0629	10.1044	-18.0126	-2.71216
 589	1	2	0.058439	8.77641	-17.1405	-3.5099
 590	1	2	0.076366	10.2548	-17.5035	-4.40634
 591	1	2	0.061036	9.70413	-21.1678	-4.85333
 592	1	2	0.060061	10.7072	-20.4515	-3.57229
 593	1	2	0.042474	10.7693	-19.8015	-5.22581
 594	1	2	-0.019174	6.8133	-18.0273	-2.87362
 595	1	2	0	1.85225	14.698	0.0578157
 596	1	2	0	6.39877	-19.2985	-1.76578

Velocities

   1	0.000172814	-5.75013e-05	-0.000123343
   2	-3.20668e-05	-7.84616e-05	-6.75275e-05
   3	0.000550545	-0.000288949	-0.00080737
   4	-0.000531376	-0.000311511	1.58787e-05
   5	4.38877e-05	-0.000314315	-1.13479e-05
   6	2.45739e-05	-0.000145826	-4.27227e-05
   7	3.80613e-05	-0.000533718	-0.000235629
   8	9.66007e-05	-0.000428407	0.00017687
   9	4.55652e-05	-4.21853e-05	-0.000188503
  10	1.73733e-06	-7.09427e-05	-6.50778e-05
  11	-4.47295e-05	-9.15128e-05	3.99912e-05
  12	0.000161212	-7.44307e-05	-0.000119647
  13	-7.56838e-05	-0.00013228	-2.0657e-05
  14	-8.29029e-05	7.19985e-05	-0.000133969
  15	7.16414e-05	0.000146321	-0.000328893
  16	-8.24965e-05	-0.000192995	-0.000308143
  17	0.000130648	9.97599e-06	-5.51421e-05
  18	-8.9292e-05	-0.000126221	-2.23883e-05
  19	-0.000203412	0.00014287	-7.13757e-05
  20	-0.000173145	8.66748e-05	1.17463e-07
  21	-0.000322544	0.000274579	0.00010029
  22	-0.00025024	0.000306058	-0.000291837
  23	-7.40775e-06	4.5222e-05	9.16276e-05
  24	2.83739e-06	-3.07466e-05	0.000165885
  25	0.000108717	0.000137587	2.86187e-05
  26	1.3945e-06	-8.64443e-05	0.000190954
  27	5.67368e-05	-0.000127443	9.87498e-05
  28	3.59088e-07	-7.64829e-06	0.000306249
  29	3.825e-05	-7.10817e-05	0.000147966
  30	-2.85345e-05	4.51963e-05	0.000351232
  31	5.49047e-05	-9.98509e-05	0.000378906
  32	-2.17818e-05	2.74076e-05	0.000321466
  33	2.25019e-05	-7.23043e-05	7.53489e-05
  34	8.05143e-05	-0.00023011	0.000158422
  35	2.95494e-05	-0.000172497	-1.2483e-05
  36	-0.000290814	5.05481e-05	1.00706e-05
  37	-0.00015804	5.08506e-05	2.94771e-05
  38	-6.54162e-05	7.41051e-05	5.97652e-05
  39	-0.00018801	-3.12303e-05	7.26535e-05
  40	-0.000230211	4.28949e-05	-5.15479e-06
  41	-2.34175e-05	6.95259e-05	6.22148e-05
  42	3.73447e-06	6.72192e-05	1.81475e-05
  43	-2.93541e-05	6.69947e-05	7.52601e-05
  44	6.78832e-06	7.04002e-05	7.96133e-05
  45	2.90992e-06	-1.92968e-05	-2.56949e-05
  46	3.97367e-05	0.000142668	-4.53152e-05
  47	-2.40898e-05	7.39276e-05	5.3373e-05
  48	4.33087e-05	0.000158477	-6.99812e-05
  49	4.12805e-05	0.000109638	-8.48905e-05
  50	5.38e-05	0.000188026	4.97816e-06
  51	2.13426e-05	-4.94925e-05	-5.66544e-05
  52	-4.62849e-05	-5.77859e-05	-5.15974e-06
  53	4.14807e-05	-2.1626e-05	-5.00609e-05
  54	-6.01522e-05	4.32262e-05	5.87238e-05
  55	-7.4336e-05	0.000126004	0.000116261
  56	-3.31674e-05	7.69809e-05	4.89073e-05
  57	-0.000113759	0.000110851	0.000128939
  58	-6.59741e-05	0.000145693	0.000133063
  59	-2.30057e-05	2.59546e-05	1.94785e-05
  60	2.38916e-05	1.24535e-06	-9.79565e-06
  61	-3.18391e-05	1.63635e-05	3.23592e-05
  62	-4.46804e-05	-1.90683e-05	2.71286e-05
  63	9.65955e-05	-4.64803e-05	-6.78259e-05
  64	-5.54019e-05	-2.43363e-05	-4.97203e-05
  65	6.30115e-05	4.41136e-05	4.10652e-05
  66	-0.000113712	-1.10968e-05	1.55518e-05
  67	-1.68371e-05	-2.52711e-05	-7.83472e-05
  68	-9.29377e-05	-6.11439e-05	-0.00010744
  69	7.64109e-05	-7.5048e-05	-0.000143276
  70	0.000124819	-5.3023e-05	-4.2475e-05
  71	0.000153088	-7.92603e-05	-5.93496e-05
  72	-5.66797e-05	0.000130546	1.98499e-05
  73	-1.58575e-05	4.32108e-05	-6.43014e-06
  74	1.02399e-05	2.31143e-05	-1.52329e-05
  75	-3.82094e-05	2.3443e-05	-2.09316e-05
  76	2.2535e-05	4.79539e-05	-1.58563e-05
  77	8.52654e-06	2.4518e-05	-2.69224e-05
  78	1.06187e-05	1.51903e-06	-3.01336e-05
  79	3.84452e-05	3.11653e-05	-7.95697e-06