pySIMM System Object

776 atoms
775 bonds
1548 angles
2313 dihedrals
0 impropers

2 atom types
2 bond types
3 angle types
3 dihedral types

-113.647346 113.647346 xlo xhi
-113.647346 113.647346 ylo yhi
-113.647346 113.647346 zlo zhi

Masses

   1	12.01	# c3
   2	1.008	# hc

Pair Coeffs

   1	0.1094	3.3996695084235347	# c3
   2	0.0157	2.649532787749369	# hc

Bond Coeffs

   1	330.6	1.0969	# c3,hc
   2	300.9	1.5375	# c3,c3

Angle Coeffs

   1	46.34	109.8	# c3,c3,hc
   2	39.4	107.58	# hc,c3,hc
   3	62.86	111.51	# c3,c3,c3

Dihedral Coeffs

   1	1	0.16	3	0	# hc,c3,c3,c3
   2	1	0.15	3	0	# hc,c3,c3,hc
   3	3	0.18	3	0	0.25	2	180	0.2	1	180	# c3,c3,c3,c3

Atoms

   1	1	1	-0.06457	-5.41562	-8.19339	-21.6222
   2	1	1	0.061186	-4.17576	-7.26448	-21.5595
   3	1	2	0.013749	-6.07159	-8.04884	-20.7561
   4	1	2	0.012175	-6.00508	-7.9984	-22.5272
   5	1	1	-0.029522	-3.2846	-7.40014	-22.8273
   6	1	1	0.182537	-2.70485	-8.81623	-23.1058
   7	1	2	0.017614	-2.44513	-6.69804	-22.7396
   8	1	2	0.005524	-3.86537	-7.07758	-23.7017
   9	1	1	-0.245806	-1.84256	-9.34905	-21.9389
  10	1	1	-0.291525	-1.86665	-8.8086	-24.4016
  11	1	2	-0.003466	-3.53484	-9.5153	-23.2654
  12	1	2	0.0629	-0.992362	-8.15312	-24.3014
  13	1	2	0.058439	-2.46502	-8.45776	-25.2519
  14	1	2	0.076366	-1.50863	-9.81832	-24.6382
  15	1	2	0.061036	-2.44625	-9.51093	-21.0382
  16	1	2	0.060061	-1.03634	-8.64607	-21.6938
  17	1	2	0.042474	-1.38679	-10.3118	-22.2022
  18	1	2	-0.019174	-3.56201	-7.56082	-20.704
  19	1	1	-0.06457	-4.58858	-5.77745	-21.3603
  20	1	1	0.061186	-5.32386	-5.41258	-20.0255
  21	1	2	0.013749	-3.70812	-5.13902	-21.487
  22	1	2	0.012175	-5.24392	-5.50277	-22.1968
  23	1	1	-0.029522	-5.39616	-3.87206	-19.8018
  24	1	1	0.182537	-6.02387	-3.03469	-20.9506
  25	1	2	0.017614	-4.3815	-3.4937	-19.633
  26	1	2	0.005524	-5.95573	-3.67497	-18.8776
  27	1	1	-0.245806	-5.96396	-1.53358	-20.6006
  28	1	1	-0.291525	-7.48243	-3.43755	-21.2605
  29	1	2	-0.003466	-5.42784	-3.17608	-21.8608
  30	1	2	0.0629	-7.54169	-4.4648	-21.6388
  31	1	2	0.058439	-7.90958	-2.7814	-22.0291
  32	1	2	0.076366	-8.10913	-3.36325	-20.3629
  33	1	2	0.061036	-6.57477	-1.31282	-19.7164
  34	1	2	0.060061	-6.33562	-0.923384	-21.4334
  35	1	2	0.042474	-4.93267	-1.2246	-20.3899
  36	1	2	-0.019174	-6.35558	-5.75653	-20.1664
  37	1	1	-0.06457	-4.85823	-6.15036	-18.7207
  38	1	1	0.061186	-3.6082	-5.62707	-17.9345
  39	1	2	0.013749	-5.71613	-6.07895	-18.0428
  40	1	2	0.012175	-4.74906	-7.22471	-18.9018
  41	1	1	-0.029522	-3.36928	-6.47846	-16.6472
  42	1	1	0.182537	-4.53974	-6.54026	-15.6256
  43	1	2	0.017614	-2.49197	-6.09591	-16.1164
  44	1	2	0.005524	-3.11461	-7.50388	-16.9462
  45	1	1	-0.245806	-5.01923	-5.13999	-15.1915
  46	1	1	-0.291525	-4.12251	-7.35005	-14.3795
  47	1	2	-0.003466	-5.38644	-7.06879	-16.08
  48	1	2	0.0629	-4.96092	-7.44504	-13.6781
  49	1	2	0.058439	-3.29141	-6.86362	-13.8529
  50	1	2	0.076366	-3.80473	-8.36166	-14.6613
  51	1	2	0.061036	-5.79358	-5.22222	-14.4234
  52	1	2	0.060061	-5.45128	-4.58133	-16.0297
  53	1	2	0.042474	-4.18695	-4.56007	-14.777
  54	1	2	-0.019174	-3.82495	-4.60293	-17.6187
  55	1	1	-0.06457	-2.31615	-5.60487	-18.8041
  56	1	1	0.061186	-1.09197	-4.81299	-18.2509
  57	1	2	0.013749	-2.53762	-5.15864	-19.7711
  58	1	2	0.012175	-2.02202	-6.64305	-19.0072
  59	1	1	-0.029522	-1.38739	-3.27484	-18.1993
  60	1	1	0.182537	-0.938915	-2.55203	-16.8984
  61	1	2	0.017614	-0.920403	-2.78864	-19.0645
  62	1	2	0.005524	-2.45586	-3.07906	-18.3343
  63	1	1	-0.245806	-1.78282	-2.96622	-15.6728
  64	1	1	-0.291525	-1.01149	-1.02251	-17.0778
  65	1	2	-0.003466	0.10603	-2.80022	-16.6919
  66	1	2	0.0629	-0.3331	-0.704635	-17.8759
  67	1	2	0.058439	-0.71018	-0.504111	-16.1587
  68	1	2	0.076366	-2.02722	-0.700546	-17.3378
  69	1	2	0.061036	-2.84898	-2.78111	-15.8517
  70	1	2	0.060061	-1.48314	-2.39599	-14.7847
  71	1	2	0.042474	-1.65149	-4.02725	-15.4366
  72	1	2	-0.019174	-0.859598	-5.18292	-17.2486
  73	1	1	-0.06457	0.118831	-5.15351	-19.1748
  74	1	1	0.061186	1.47289	-4.42815	-18.8951
  75	1	2	0.013749	0.297137	-6.23671	-19.1475
  76	1	2	0.012175	-0.211852	-4.93532	-20.1944
  77	1	1	-0.029522	2.04784	-4.8587	-17.5095
  78	1	1	0.182537	3.36544	-4.16389	-17.0598
  79	1	2	0.017614	2.21818	-5.94318	-17.5266
  80	1	2	0.005524	1.29614	-4.69218	-16.7309
  81	1	1	-0.245806	3.26285	-2.62187	-17.0406
  82	1	1	-0.291525	3.78448	-4.67201	-15.6642
  83	1	2	-0.003466	4.16786	-4.44216	-17.7539
  84	1	2	0.0629	3.90596	-5.76244	-15.6666
  85	1	2	0.058439	3.032	-4.41258	-14.9086
  86	1	2	0.076366	4.74072	-4.22849	-15.3597
  87	1	2	0.061036	3.0918	-2.2217	-18.046
  88	1	2	0.060061	4.19454	-2.17779	-16.6686
  89	1	2	0.042474	2.44578	-2.2873	-16.3897
  90	1	2	-0.019174	1.27805	-3.3515	-18.8618
  91	1	1	-0.06457	2.52403	-4.67045	-20.0295
  92	1	1	0.061186	2.06004	-4.46358	-21.5087
  93	1	2	0.013749	2.89903	-5.69812	-19.9356
  94	1	2	0.012175	3.3787	-4.02188	-19.8333
  95	1	1	-0.029522	3.19116	-4.77699	-22.5387
  96	1	1	0.182537	4.21643	-3.65796	-22.9006
  97	1	2	0.017614	2.69916	-5.07938	-23.4724
  98	1	2	0.005524	3.73831	-5.66788	-22.2035
  99	1	1	-0.245806	5.06424	-3.15394	-21.713
 100	1	1	-0.291525	5.15321	-4.15661	-24.0216
 101	1	2	-0.003466	3.67785	-2.7963	-23.3053
 102	1	2	0.0629	5.84103	-3.36268	-24.3386
 103	1	2	0.058439	4.57745	-4.46934	-24.9018
 104	1	2	0.076366	5.75144	-5.0116	-23.6818
 105	1	2	0.061036	4.4604	-2.55568	-21.0219
 106	1	2	0.060061	5.8756	-2.50456	-22.065
 107	1	2	0.042474	5.51411	-3.99027	-21.1632
 108	1	2	-0.019174	1.32743	-5.25908	-21.668
 109	1	1	-0.06457	1.34715	-3.09483	-21.7512
 110	1	1	0.061186	0.705629	-2.85307	-23.1595
 111	1	2	0.013749	2.07372	-2.30485	-21.5363
 112	1	2	0.012175	0.552438	-2.96509	-21.0102
 113	1	1	-0.029522	-0.321354	-3.96444	-23.5529
 114	1	1	0.182537	-0.752293	-3.97958	-25.0495
 115	1	2	0.017614	-1.20987	-3.85593	-22.9167
 116	1	2	0.005524	0.0794035	-4.95893	-23.3375
 117	1	1	-0.245806	0.389428	-4.45156	-25.9791
 118	1	1	-0.291525	-1.98143	-4.88932	-25.2488
 119	1	2	-0.003466	-1.05195	-2.97539	-25.3657
 120	1	2	0.0629	-2.81597	-4.56769	-24.6131
 121	1	2	0.058439	-1.74035	-5.92895	-25.002
 122	1	2	0.076366	-2.32245	-4.85886	-26.2912
 123	1	2	0.061036	1.25691	-3.78454	-25.9293
 124	1	2	0.060061	0.0521234	-4.47316	-27.0229
 125	1	2	0.042474	0.721993	-5.46225	-25.7102
 126	1	2	-0.019174	1.50621	-2.85575	-23.903
 127	1	1	-0.06457	0.000973067	-1.45879	-23.1742
 128	1	1	0.061186	0.927544	-0.207801	-23.1034
 129	1	2	0.013749	-0.643484	-1.35052	-24.0505
 130	1	2	0.012175	-0.67822	-1.4558	-22.3195
 131	1	1	-0.029522	1.94083	-0.11388	-24.2886
 132	1	1	0.182537	1.43167	-0.404676	-25.7333
 133	1	2	0.017614	2.75032	-0.822675	-24.0792
 134	1	2	0.005524	2.42333	0.872061	-24.2717
 135	1	1	-0.245806	0.349179	0.576147	-26.2333
 136	1	1	-0.291525	2.62269	-0.39727	-26.7153
 137	1	2	-0.003466	1.0054	-1.41265	-25.7662
 138	1	2	0.0629	3.09371	0.593182	-26.7546
 139	1	2	0.058439	2.29505	-0.660396	-27.7289
 140	1	2	0.076366	3.38379	-1.12717	-26.4117
 141	1	2	0.061036	-0.604763	0.408423	-25.7221
 142	1	2	0.060061	0.16211	0.432455	-27.3049
 143	1	2	0.042474	0.656889	1.6182	-26.0798
 144	1	2	-0.019174	1.55802	-0.319393	-22.2181
 145	1	1	-0.06457	0.15426	1.13705	-22.8946
 146	1	1	0.061186	-0.693125	1.3104	-21.5913
 147	1	2	0.013749	-0.490905	1.34059	-23.7522
 148	1	2	0.012175	0.892773	1.94882	-22.9045
 149	1	1	-0.029522	0.0598109	0.87036	-20.2974
 150	1	1	0.182537	1.40727	1.59378	-20.0156
 151	1	2	0.017614	0.235839	-0.211813	-20.3386
 152	1	2	0.005524	-0.589426	1.0231	-19.4295
 153	1	1	-0.245806	1.22322	3.10178	-19.739
 154	1	1	-0.291525	2.12685	0.932386	-18.8218
 155	1	2	-0.003466	2.06649	1.48981	-20.8851
 156	1	2	0.0629	2.30128	-0.132657	-19.0166
 157	1	2	0.058439	1.53225	1.02112	-17.9037
 158	1	2	0.076366	3.101	1.40477	-18.6442
 159	1	2	0.061036	0.804063	3.62109	-20.6086
 160	1	2	0.060061	2.18732	3.57266	-19.5101
 161	1	2	0.042474	0.556266	3.26343	-18.8837
 162	1	2	-0.019174	-0.865201	2.38796	-21.5105
 163	1	1	-0.06457	-2.10576	0.642695	-21.6907
 164	1	1	0.061186	-3.32303	1.51044	-21.2409
 165	1	2	0.013749	-2.2859	0.303077	-22.717
 166	1	2	0.012175	-2.11389	-0.276387	-21.0905
 167	1	1	-0.029522	-3.55633	2.78027	-22.1187
 168	1	1	0.182537	-3.6369	2.54953	-23.6537
 169	1	2	0.017614	-2.76961	3.51594	-21.9108
 170	1	2	0.005524	-4.4973	3.25338	-21.8143
 171	1	1	-0.245806	-4.76577	1.57061	-24.0492
 172	1	1	-0.291525	-3.83545	3.89392	-24.3844
 173	1	2	-0.003466	-2.6857	2.13544	-24.0056
 174	1	2	0.0629	-3.01878	4.58851	-24.1509
 175	1	2	0.058439	-4.78163	4.36614	-24.0908
 176	1	2	0.076366	-3.85	3.74672	-25.4716
 177	1	2	0.061036	-5.73786	1.92528	-23.6838
 178	1	2	0.060061	-4.58997	0.568937	-23.6398
 179	1	2	0.042474	-4.8278	1.47174	-25.1402
 180	1	2	-0.019174	-4.19853	0.866839	-21.3692
 181	1	1	-0.06457	-3.22221	1.84973	-19.7243
 182	1	1	0.061186	-4.41616	2.61155	-19.0687
 183	1	2	0.013749	-3.06815	0.914464	-19.1699
 184	1	2	0.012175	-2.31445	2.43912	-19.5746
 185	1	1	-0.029522	-5.72143	1.7597	-19.1239
 186	1	1	0.182537	-7.02133	2.42279	-18.5815
 187	1	2	0.017614	-5.55281	0.817936	-18.5868
 188	1	2	0.005524	-5.91611	1.48895	-20.1675
 189	1	1	-0.245806	-8.2416	1.52783	-18.8882
 190	1	1	-0.291525	-7.26981	3.83791	-19.1497
 191	1	2	-0.003466	-6.95195	2.50544	-17.4918
 192	1	2	0.0629	-7.27603	3.82493	-20.247
 193	1	2	0.058439	-6.5004	4.54333	-18.8155
 194	1	2	0.076366	-8.23695	4.22724	-18.8081
 195	1	2	0.061036	-9.15153	1.94292	-18.4372
 196	1	2	0.060061	-8.10002	0.517432	-18.4878
 197	1	2	0.042474	-8.40508	1.44289	-19.9702
 198	1	2	-0.019174	-4.60774	3.52175	-19.6436
 199	1	1	-0.06457	-4.01855	3.03968	-17.6191
 200	1	1	0.061186	-3.52668	4.5158	-17.4596
 201	1	2	0.013749	-4.87945	2.90133	-16.9606
 202	1	2	0.012175	-3.2513	2.35688	-17.2299
 203	1	1	-0.029522	-2.41084	4.9029	-18.4837
 204	1	1	0.182537	-1.89391	6.36896	-18.4383
 205	1	2	0.017614	-2.76852	4.727	-19.5039
 206	1	2	0.005524	-1.55578	4.23274	-18.3331
 207	1	1	-0.245806	-3.02466	7.40621	-18.6209
 208	1	1	-0.291525	-0.814214	6.58357	-19.5202
 209	1	2	-0.003466	-1.41172	6.55212	-17.4706
 210	1	2	0.0629	-1.22403	6.42084	-20.5252
 211	1	2	0.058439	0.0242684	5.89137	-19.3757
 212	1	2	0.076366	-0.41576	7.60481	-19.4751
 213	1	2	0.061036	-3.57068	7.23091	-19.5564
 214	1	2	0.060061	-2.61518	8.42361	-18.6513
 215	1	2	0.042474	-3.74046	7.36737	-17.7912
 216	1	2	-0.019174	-4.3901	5.15664	-17.6677
 217	1	1	-0.06457	-3.03646	4.79924	-16.005
 218	1	1	0.061186	-3.96886	4.39398	-14.8213
 219	1	2	0.013749	-2.07063	4.29795	-15.8854
 220	1	2	0.012175	-2.8341	5.87181	-15.9019
 221	1	1	-0.029522	-5.31473	5.18362	-14.8839
 222	1	1	0.182537	-6.44092	4.68877	-13.9311
 223	1	2	0.017614	-5.71922	5.15754	-15.9018
 224	1	2	0.005524	-5.10106	6.23993	-14.6732
 225	1	1	-0.245806	-7.01615	3.31967	-14.3599
 226	1	1	-0.291525	-7.58499	5.7224	-13.8706
 227	1	2	-0.003466	-6.04581	4.59181	-12.9142
 228	1	2	0.0629	-8.3728	5.39126	-13.1824
 229	1	2	0.058439	-8.03522	5.87001	-14.8605
 230	1	2	0.076366	-7.21532	6.69222	-13.5147
 231	1	2	0.061036	-7.77587	2.98038	-13.6448
 232	1	2	0.060061	-6.24008	2.54953	-14.4068
 233	1	2	0.042474	-7.4884	3.38689	-15.3473
 234	1	2	-0.019174	-4.18653	3.32543	-14.9048
 235	1	1	-0.06457	-3.22014	4.63114	-13.4664
 236	1	1	0.061186	-2.60235	3.36991	-12.7831
 237	1	2	0.013749	-2.4225	5.37097	-13.6146
 238	1	2	0.012175	-3.89304	5.11038	-12.7472
 239	1	1	-0.029522	-1.56055	2.65013	-13.6981
 240	1	1	0.182537	-0.549059	1.66265	-13.0363
 241	1	2	0.017614	-0.948067	3.42726	-14.1711
 242	1	2	0.005524	-2.07962	2.13574	-14.5174
 243	1	1	-0.245806	-1.15097	0.310481	-12.5952
 244	1	1	-0.291525	0.2488	2.29825	-11.877
 245	1	2	-0.003466	0.180602	1.42218	-13.8207
 246	1	2	0.0629	1.0676	1.63687	-11.5673
 247	1	2	0.058439	-0.38657	2.47387	-11.0005
 248	1	2	0.076366	0.68786	3.25563	-12.1838
 249	1	2	0.061036	-0.351043	-0.403363	-12.3622
 250	1	2	0.060061	-1.76287	-0.125841	-13.3934
 251	1	2	0.042474	-1.76587	0.414507	-11.6948
 252	1	2	-0.019174	-2.0481	3.76219	-11.9232
 253	1	1	-0.06457	-3.71948	2.42165	-12.2512
 254	1	1	0.061186	-3.82795	2.36517	-10.6986
 255	1	2	0.013749	-4.68488	2.72937	-12.6582
 256	1	2	0.012175	-3.56623	1.41543	-12.6488
 257	1	1	-0.029522	-4.37366	3.7033	-10.1159
 258	1	1	0.182537	-4.39447	3.81632	-8.56462
 259	1	2	0.017614	-5.38274	3.87808	-10.5083
 260	1	2	0.005524	-3.76289	4.53147	-10.4937
 261	1	1	-0.245806	-5.02311	5.15956	-8.13876
 262	1	1	-0.291525	-2.98924	3.67549	-7.93804
 263	1	2	-0.003466	-5.02608	3.02457	-8.14918
 264	1	2	0.0629	-2.57361	2.67574	-8.11015
 265	1	2	0.058439	-3.03229	3.82788	-6.85238
 266	1	2	0.076366	-2.29594	4.41481	-8.35849
 267	1	2	0.061036	-5.08019	5.23291	-7.0455
 268	1	2	0.060061	-6.04207	5.25479	-8.53448
 269	1	2	0.042474	-4.43117	6.0067	-8.50802
 270	1	2	-0.019174	-2.80378	2.2422	-10.3277
 271	1	1	-0.06457	-4.5965	1.09559	-10.2191
 272	1	1	0.061186	-6.05718	0.889681	-10.7519
 273	1	2	0.013749	-4.57753	1.05362	-9.12727
 274	1	2	0.012175	-3.98451	0.236517	-10.5203
 275	1	1	-0.029522	-7.16709	1.51002	-9.84302
 276	1	1	0.182537	-7.72989	0.663677	-8.65957
 277	1	2	0.017614	-8.01695	1.73993	-10.4992
 278	1	2	0.005524	-6.83661	2.48027	-9.46174
 279	1	1	-0.245806	-8.8532	1.44671	-7.94668
 280	1	1	-0.291525	-6.67219	0.236065	-7.62199
 281	1	2	-0.003466	-8.18695	-0.248613	-9.06143
 282	1	2	0.0629	-6.16596	1.1059	-7.1863
 283	1	2	0.058439	-5.9226	-0.418672	-8.07317
 284	1	2	0.076366	-7.14026	-0.328483	-6.80774
 285	1	2	0.061036	-9.30238	0.846389	-7.14634
 286	1	2	0.060061	-9.65094	1.7131	-8.65134
 287	1	2	0.042474	-8.46639	2.3725	-7.50191
 288	1	2	-0.019174	-6.14789	1.42136	-11.7029
 289	1	1	-0.06457	-6.31977	-0.611536	-11.0638
 290	1	1	0.061186	-5.65399	-1.12334	-12.3748
 291	1	2	0.013749	-5.94221	-1.17717	-10.2121
 292	1	2	0.012175	-7.39786	-0.80353	-11.1215
 293	1	1	-0.029522	-6.53647	-0.777932	-13.6171
 294	1	1	0.182537	-5.92151	-1.06278	-15.018
 295	1	2	0.017614	-6.78805	0.288301	-13.5773
 296	1	2	0.005524	-7.49661	-1.2987	-13.5451
 297	1	1	-0.245806	-4.58916	-0.317235	-15.2573
 298	1	1	-0.291525	-6.92691	-0.684311	-16.123
 299	1	2	-0.003466	-5.73711	-2.13764	-15.1214
 300	1	2	0.0629	-7.87018	-1.23021	-15.9964
 301	1	2	0.058439	-6.52607	-0.935549	-17.1126
 302	1	2	0.076366	-7.14686	0.390188	-16.1005
 303	1	2	0.061036	-3.8053	-0.682159	-14.5844
 304	1	2	0.060061	-4.70478	0.761866	-15.1004
 305	1	2	0.042474	-4.23805	-0.474244	-16.2845
 306	1	2	-0.019174	-4.73404	-0.545741	-12.5003
 307	1	1	-0.06457	-5.15878	-2.6065	-12.2994
 308	1	1	0.061186	-6.05751	-3.74544	-11.706
 309	1	2	0.013749	-4.86023	-2.91672	-13.3028
 310	1	2	0.012175	-4.20853	-2.60027	-11.7634
 311	1	1	-0.029522	-7.48329	-3.76797	-12.3323
 312	1	1	0.182537	-8.3841	-4.98464	-11.9719
 313	1	2	0.017614	-7.39055	-3.71503	-13.4245
 314	1	2	0.005524	-8.01744	-2.86396	-12.0197
 315	1	1	-0.245806	-7.76478	-6.34725	-12.3575
 316	1	1	-0.291525	-9.76357	-4.83816	-12.6484
 317	1	2	-0.003466	-8.55889	-4.98573	-10.8891
 318	1	2	0.0629	-9.66795	-4.8381	-13.7417
 319	1	2	0.058439	-10.2487	-3.90132	-12.3469
 320	1	2	0.076366	-10.4259	-5.66538	-12.3639
 321	1	2	0.061036	-6.82559	-6.52943	-11.8224
 322	1	2	0.060061	-7.5683	-6.40062	-13.4349
 323	1	2	0.042474	-8.44834	-7.16612	-12.1005
 324	1	2	-0.019174	-5.57008	-4.66503	-12.0447
 325	1	1	-0.06457	-6.10661	-3.83948	-10.1425
 326	1	1	0.061186	-4.77034	-3.67369	-9.34221
 327	1	2	0.013749	-6.84096	-3.11313	-9.77458
 328	1	2	0.012175	-6.52144	-4.81888	-9.87353
 329	1	1	-0.029522	-3.75168	-4.80841	-9.69857
 330	1	1	0.182537	-2.23511	-4.46607	-9.60336
 331	1	2	0.017614	-3.92477	-5.15859	-10.7209
 332	1	2	0.005524	-3.9657	-5.67714	-9.06216
 333	1	1	-0.245806	-1.787	-3.38715	-10.6158
 334	1	1	-0.291525	-1.3942	-5.74249	-9.81677
 335	1	2	-0.003466	-1.99873	-4.09911	-8.60311
 336	1	2	0.0629	-1.65395	-6.50887	-9.07572
 337	1	2	0.058439	-0.323652	-5.52562	-9.71226
 338	1	2	0.076366	-1.56186	-6.16164	-10.8171
 339	1	2	0.061036	-2.27052	-2.42343	-10.421
 340	1	2	0.060061	-2.01885	-3.69128	-11.6444
 341	1	2	0.042474	-0.70421	-3.22276	-10.5493
 342	1	2	-0.019174	-4.34943	-2.70028	-9.60096
 343	1	1	-0.06457	-5.13895	-3.6441	-7.82279
 344	1	1	0.061186	-4.00908	-3.36174	-6.78014
 345	1	2	0.013749	-5.92545	-2.8943	-7.66684
 346	1	2	0.012175	-5.60197	-4.61162	-7.60128
 347	1	1	-0.029522	-3.31054	-1.99436	-7.06805
 348	1	1	0.182537	-2.15299	-1.58204	-6.11682
 349	1	2	0.017614	-4.07005	-1.20541	-7.03413
 350	1	2	0.005524	-2.9152	-1.98754	-8.08855
 351	1	1	-0.245806	-1.60394	-0.198054	-6.52496
 352	1	1	-0.291525	-1.0027	-2.61275	-6.09156
 353	1	2	-0.003466	-2.54513	-1.48015	-5.09774
 354	1	2	0.0629	-1.34339	-3.58398	-5.71403
 355	1	2	0.058439	-0.193658	-2.27074	-5.43412
 356	1	2	0.076366	-0.584046	-2.75859	-7.09513
 357	1	2	0.061036	-2.39907	0.557866	-6.50311
 358	1	2	0.060061	-1.18441	-0.223372	-7.53887
 359	1	2	0.042474	-0.813932	0.126682	-5.83628
 360	1	2	-0.019174	-3.26646	-4.15882	-6.86962
 361	1	1	-0.06457	-4.54822	-3.4035	-5.31191
 362	1	1	0.061186	-5.41396	-4.63916	-4.90301
 363	1	2	0.013749	-3.6999	-3.35646	-4.61841
 364	1	2	0.012175	-5.12114	-2.48423	-5.14891
 365	1	1	-0.029522	-4.62678	-5.96884	-5.12984
 366	1	1	0.182537	-5.38136	-7.2882	-4.8007
 367	1	2	0.017614	-3.70529	-5.93485	-4.53379
 368	1	2	0.005524	-4.30791	-6.02968	-6.17672
 369	1	1	-0.245806	-4.47285	-8.50403	-5.07989
 370	1	1	-0.291525	-6.70038	-7.43231	-5.59307
 371	1	2	-0.003466	-5.61815	-7.31052	-3.73013
 372	1	2	0.0629	-6.5191	-7.36105	-6.67307
 373	1	2	0.058439	-7.42243	-6.65641	-5.31258
 374	1	2	0.076366	-7.16927	-8.40318	-5.39005
 375	1	2	0.061036	-4.97905	-9.43856	-4.8073
 376	1	2	0.060061	-3.54741	-8.44109	-4.49381
 377	1	2	0.042474	-4.20269	-8.5591	-6.14221
 378	1	2	-0.019174	-6.3014	-4.65948	-5.54285
 379	1	1	-0.06457	-5.92326	-4.5351	-3.43112
 380	1	1	0.061186	-6.68232	-3.23473	-3.01408
 381	1	2	0.013749	-6.59832	-5.37605	-3.23359
 382	1	2	0.012175	-5.05729	-4.67159	-2.77261
 383	1	1	-0.029522	-7.79962	-2.86637	-4.04443
 384	1	1	0.182537	-8.65514	-1.60821	-3.72325
 385	1	2	0.017614	-8.47363	-3.72695	-4.14836
 386	1	2	0.005524	-7.35634	-2.71136	-5.0341
 387	1	1	-0.245806	-9.70774	-1.38688	-4.83003
 388	1	1	-0.291525	-7.79886	-0.333586	-3.5492
 389	1	2	-0.003466	-9.20874	-1.77786	-2.79181
 390	1	2	0.0629	-7.17962	-0.149065	-4.4349
 391	1	2	0.058439	-7.13575	-0.414386	-2.67983
 392	1	2	0.076366	-8.43859	0.543817	-3.39236
 393	1	2	0.061036	-9.22862	-1.2228	-5.80266
 394	1	2	0.060061	-10.3342	-0.514816	-4.60451
 395	1	2	0.042474	-10.3671	-2.25944	-4.91881
 396	1	2	-0.019174	-5.95395	-2.41595	-2.9923
 397	1	1	-0.06457	-7.29556	-3.37537	-1.58409
 398	1	1	0.061186	-6.38502	-3.93302	-0.444874
 399	1	2	0.013749	-7.67508	-2.40052	-1.2552
 400	1	2	0.012175	-8.16964	-4.02754	-1.68716
 401	1	1	-0.029522	-7.19022	-4.07022	0.889805
 402	1	1	0.182537	-8.49373	-4.91827	0.846535
 403	1	2	0.017614	-7.44176	-3.06436	1.25107
 404	1	2	0.005524	-6.55269	-4.51762	1.65886
 405	1	1	-0.245806	-9.13561	-4.9777	2.24907
 406	1	1	-0.291525	-8.25594	-6.35292	0.3235
 407	1	2	-0.003466	-9.22206	-4.42759	0.190074
 408	1	2	0.0629	-7.51062	-6.87585	0.93581
 409	1	2	0.058439	-7.90685	-6.34825	-0.715817
 410	1	2	0.076366	-9.18668	-6.93306	0.353617
 411	1	2	0.061036	-9.34748	-3.96822	2.62329
 412	1	2	0.060061	-8.47099	-5.47612	2.9662
 413	1	2	0.042474	-10.0832	-5.5303	2.22085
 414	1	2	-0.019174	-6.05681	-4.93292	-0.74238
 415	1	1	-0.06457	-5.11537	-3.0449	-0.244636
 416	1	1	0.061186	-4.06599	-3.55088	0.798091
 417	1	2	0.013749	-4.59752	-2.91364	-1.20187
 418	1	2	0.012175	-5.45575	-2.04234	0.0416983
 419	1	1	-0.029522	-3.37548	-4.87371	0.332887
 420	1	1	0.182537	-3.97355	-6.18666	0.910789
 421	1	2	0.017614	-2.30834	-4.85519	0.586471
 422	1	2	0.005524	-3.40104	-4.91644	-0.763803
 423	1	1	-0.245806	-3.66399	-6.35845	2.41448
 424	1	1	-0.291525	-3.44202	-7.40649	0.129169
 425	1	2	-0.003466	-5.06101	-6.17809	0.793038
 426	1	2	0.0629	-3.87958	-8.33606	0.514383
 427	1	2	0.058439	-2.35029	-7.48196	0.211026
 428	1	2	0.076366	-3.7024	-7.33065	-0.934172
 429	1	2	0.061036	-4.12591	-5.56473	3.0108
 430	1	2	0.060061	-2.58247	-6.34295	2.59841
 431	1	2	0.042474	-4.05714	-7.31433	2.78273
 432	1	2	-0.019174	-4.58821	-3.72745	1.7375
 433	1	1	-0.06457	-3.00742	-2.43994	1.07838
 434	1	1	0.061186	-2.22143	-2.59001	2.42127
 435	1	2	0.013749	-2.29985	-2.43406	0.238663
 436	1	2	0.012175	-3.47221	-1.44821	1.05674
 437	1	1	-0.029522	-3.1224	-2.49929	3.70275
 438	1	1	0.182537	-3.94009	-1.19108	3.93763
 439	1	2	0.017614	-2.48344	-2.65916	4.57331
 440	1	2	0.005524	-3.80744	-3.35275	3.73756
 441	1	1	-0.245806	-4.11422	-0.928523	5.45178
 442	1	1	-0.291525	-5.35106	-1.23645	3.30436
 443	1	2	-0.003466	-3.39556	-0.337756	3.51624
 444	1	2	0.0629	-5.91818	-2.10304	3.66737
 445	1	2	0.058439	-5.31385	-1.28792	2.21524
 446	1	2	0.076366	-5.91756	-0.332656	3.56112
 447	1	2	0.061036	-4.67559	-1.7426	5.92782
 448	1	2	0.060061	-4.6598	0.00766541	5.62437
 449	1	2	0.042474	-3.14662	-0.843734	5.95973
 450	1	2	-0.019174	-1.79785	-3.59791	2.4046
 451	1	1	-0.06457	-1.00895	-1.60276	2.41322
 452	1	1	0.061186	0.104477	-1.68109	3.51628
 453	1	2	0.013749	-0.490528	-1.738	1.45482
 454	1	2	0.012175	-1.39388	-0.57725	2.37217
 455	1	1	-0.029522	0.869001	-3.0445	3.56898
 456	1	1	0.182537	0.192328	-4.27291	4.25777
 457	1	2	0.017614	1.85072	-2.88403	4.02935
 458	1	2	0.005524	1.10178	-3.30906	2.52911
 459	1	1	-0.245806	0.693908	-4.51164	5.69957
 460	1	1	-0.291525	0.42777	-5.55536	3.42932
 461	1	2	-0.003466	-0.886528	-4.12831	4.31819
 462	1	2	0.0629	1.49883	-5.781	3.34982
 463	1	2	0.058439	0.0239199	-5.44514	2.41493
 464	1	2	0.076366	-0.0698973	-6.4166	3.89255
 465	1	2	0.061036	1.78844	-4.58192	5.73402
 466	1	2	0.060061	0.283776	-5.44692	6.10076
 467	1	2	0.042474	0.373319	-3.71157	6.37251
 468	1	2	-0.019174	0.856919	-0.992761	3.1187
 469	1	1	-0.06457	-0.323468	-1.07178	4.89004
 470	1	1	0.061186	0.690544	-0.133344	5.62627
 471	1	2	0.013749	-1.22782	-0.478314	4.7281
 472	1	2	0.012175	-0.634833	-1.86554	5.57575
 473	1	1	-0.029522	1.16186	1.09577	4.78148
 474	1	1	0.182537	0.0464148	1.93825	4.10109
 475	1	2	0.017614	1.86526	0.755099	4.01179
 476	1	2	0.005524	1.74	1.77342	5.41922
 477	1	1	-0.245806	0.671564	3.0487	3.23075
 478	1	1	-0.291525	-0.933696	2.56414	5.11795
 479	1	2	-0.003466	-0.527952	1.29524	3.42634
 480	1	2	0.0629	-0.405303	3.2244	5.81605
 481	1	2	0.058439	-1.4565	1.79562	5.69908
 482	1	2	0.076366	-1.69574	3.1602	4.60066
 483	1	2	0.061036	-0.107462	3.62121	2.71188
 484	1	2	0.060061	1.33404	2.61908	2.46871
 485	1	2	0.042474	1.25903	3.74575	3.84183
 486	1	2	-0.019174	0.127439	0.267235	6.47444
 487	1	1	-0.06457	1.90561	-0.917169	6.21078
 488	1	1	0.061186	2.71723	-0.193494	7.33058
 489	1	2	0.013749	1.56388	-1.873	6.61865
 490	1	2	0.012175	2.5811	-1.1588	5.38067
 491	1	1	-0.029522	4.08861	-0.907948	7.55456
 492	1	1	0.182537	5.32304	-0.00158735	7.3063
 493	1	2	0.017614	4.16949	-1.79639	6.91449
 494	1	2	0.005524	4.1398	-1.29821	8.57929
 495	1	1	-0.245806	5.4828	0.362685	5.81278
 496	1	1	-0.291525	6.6084	-0.684443	7.81877
 497	1	2	-0.003466	5.19595	0.927617	7.87614
 498	1	2	0.0629	6.53146	-0.905426	8.89097
 499	1	2	0.058439	7.4797	-0.0337748	7.67292
 500	1	2	0.076366	6.79196	-1.62661	7.2869
 501	1	2	0.061036	6.36616	0.995832	5.66264
 502	1	2	0.060061	4.61288	0.914634	5.43777
 503	1	2	0.042474	5.60373	-0.539604	5.19998
 504	1	2	-0.019174	2.91525	0.823959	6.9858
 505	1	1	-0.06457	1.92194	-0.101537	8.67182
 506	1	1	0.061186	2.52147	0.879713	9.7295
 507	1	2	0.013749	0.880618	0.176185	8.48807
 508	1	2	0.012175	1.86871	-1.11064	9.1013
 509	1	1	-0.029522	2.51926	2.36883	9.24903
 510	1	1	0.182537	1.2389	2.93888	8.56623
 511	1	2	0.017614	3.33031	2.465	8.51666
 512	1	2	0.005524	2.83284	3.03117	10.0574
 513	1	1	-0.245806	1.48983	4.39832	8.13016
 514	1	1	-0.291525	-0.043626	2.87773	9.42328
 515	1	2	-0.003466	1.04965	2.3641	7.65349
 516	1	2	0.0629	-0.347117	1.84523	9.62099
 517	1	2	0.058439	-0.877651	3.35641	8.89491
 518	1	2	0.076366	0.0869667	3.39837	10.3771
 519	1	2	0.061036	1.6823	5.04025	8.9994
 520	1	2	0.060061	0.62151	4.80158	7.59437
 521	1	2	0.042474	2.35532	4.46191	7.45861
 522	1	2	-0.019174	3.57962	0.617795	9.81899
 523	1	1	-0.06457	1.89885	0.589035	11.1404
 524	1	1	0.061186	2.45508	1.31862	12.4127
 525	1	2	0.013749	0.811645	0.711211	11.1035
 526	1	2	0.012175	2.03851	-0.48413	11.3255
 527	1	1	-0.029522	4.00446	1.50087	12.4247
 528	1	1	0.182537	4.83119	0.183567	12.3702
 529	1	2	0.017614	4.30603	2.03778	13.3312
 530	1	2	0.005524	4.29645	2.14835	11.5899
 531	1	1	-0.245806	4.7229	-0.62965	13.679
 532	1	1	-0.291525	6.31269	0.493205	12.0694
 533	1	2	-0.003466	4.46506	-0.451511	11.5562
 534	1	2	0.0629	6.89796	-0.432317	12.0004
 535	1	2	0.058439	6.75225	1.11904	12.8564
 536	1	2	0.076366	6.41271	1.02288	11.1135
 537	1	2	0.061036	5.3604	-1.52144	13.633
 538	1	2	0.060061	3.69637	-0.971355	13.8497
 539	1	2	0.042474	5.03696	-0.0313393	14.5437
 540	1	2	-0.019174	2.20755	0.649355	13.2384
 541	1	1	-0.06457	1.67149	2.63553	12.7076
 542	1	1	0.061186	1.97356	3.40816	14.0356
 543	1	2	0.013749	1.85272	3.31146	11.8756
 544	1	2	0.012175	0.59695	2.41099	12.6888
 545	1	1	-0.029522	1.11466	4.71633	14.1148
 546	1	1	0.182537	1.10934	5.65522	12.874
 547	1	2	0.017614	1.46658	5.3294	14.9509
 548	1	2	0.005524	0.0772573	4.43898	14.3445
 549	1	1	-0.245806	2.52865	6.11801	12.4745
 550	1	1	-0.291525	0.21853	6.88651	13.1435
 551	1	2	-0.003466	0.660671	5.13071	12.0227
 552	1	2	0.0629	0.16934	7.53247	12.258
 553	1	2	0.058439	0.608659	7.48122	13.9793
 554	1	2	0.076366	-0.805295	6.57893	13.391
 555	1	2	0.061036	2.48425	6.79837	11.615
 556	1	2	0.060061	3.16365	5.27074	12.1907
 557	1	2	0.042474	3.01538	6.64775	13.3032
 558	1	2	-0.019174	3.02429	3.71641	14.0167
 559	1	1	-0.06457	1.75555	2.49859	15.2961
 560	1	1	0.061186	2.01944	3.15333	16.6926
 561	1	2	0.013749	0.725048	2.1223	15.2644
 562	1	2	0.012175	2.40676	1.62541	15.209
 563	1	1	-0.029522	3.54076	3.33677	16.9737
 564	1	1	0.182537	3.88868	4.21502	18.2086
 565	1	2	0.017614	4.01854	3.78592	16.0946
 566	1	2	0.005524	4.00519	2.35003	17.0907
 567	1	1	-0.245806	3.42665	5.68052	18.0403
 568	1	1	-0.291525	5.40622	4.18033	18.4857
 569	1	2	-0.003466	3.39167	3.80109	19.0921
 570	1	2	0.0629	5.74868	3.15158	18.6535
 571	1	2	0.058439	5.65157	4.76531	19.3812
 572	1	2	0.076366	5.96895	4.59668	17.6405
 573	1	2	0.061036	3.77998	6.29738	18.8755
 574	1	2	0.060061	2.33319	5.75548	18.0218
 575	1	2	0.042474	3.81889	6.11341	17.1114
 576	1	2	-0.019174	1.58266	4.15042	16.6489
 577	1	1	-0.06457	1.21736	2.49245	17.8615
 578	1	1	0.061186	1.80288	1.25409	18.6186
 579	1	2	0.013749	1.07315	3.28711	18.6015
 580	1	2	0.012175	0.204028	2.26127	17.5107
 581	1	1	-0.029522	2.08852	0.0149636	17.7089
 582	1	1	0.182537	0.857665	-0.695227	17.0558
 583	1	2	0.017614	2.64691	-0.726804	18.2947
 584	1	2	0.005524	2.79124	0.320402	16.9279
 585	1	1	-0.245806	0.270087	-1.83338	17.928
 586	1	1	-0.291525	1.23996	-1.30784	15.6925
 587	1	2	-0.003466	0.0678185	0.0419651	16.8689
 588	1	2	0.0629	0.376726	-1.80203	15.2291
 589	1	2	0.058439	2.04186	-2.04886	15.8024
 590	1	2	0.076366	1.58125	-0.533003	15.0029
 591	1	2	0.061036	-0.134357	-1.47402	18.8776
 592	1	2	0.060061	1.03285	-2.59065	18.1489
 593	1	2	0.042474	-0.553808	-2.33296	17.4028
 594	1	2	-0.019174	2.76868	1.54255	19.0477
 595	1	1	-0.06457	0.869806	0.854251	19.799
 596	1	1	0.061186	0.720405	1.83429	21.0074
 597	1	2	0.013749	-0.117277	0.689889	19.3597
 598	1	2	0.012175	1.19871	-0.114018	20.1984
 599	1	1	-0.029522	-0.456529	1.3537	21.926
 600	1	1	0.182537	-1.87289	1.28081	21.2816
 601	1	2	0.017614	-0.557682	2.02367	22.7842
 602	1	2	0.005524	-0.203898	0.368688	22.3403
 603	1	1	-0.245806	-2.26901	2.58173	20.5456
 604	1	1	-0.291525	-2.92993	0.9584	22.3593
 605	1	2	-0.003466	-1.90039	0.456225	20.5596
 606	1	2	0.0629	-2.98824	1.76033	23.1065
 607	1	2	0.058439	-2.68532	0.0233749	22.8785
 608	1	2	0.076366	-3.92299	0.842552	21.9074
 609	1	2	0.061036	-3.30153	2.52135	20.1798
 610	1	2	0.060061	-1.62673	2.75985	19.675
 611	1	2	0.042474	-2.19445	3.44964	21.2132
 612	1	2	-0.019174	0.455568	2.8281	20.6348
 613	1	1	-0.06457	2.07762	1.98854	21.7764
 614	1	1	0.061186	2.00761	2.61991	23.2095
 615	1	2	0.013749	2.51615	0.990228	21.8559
 616	1	2	0.012175	2.77713	2.55559	21.156
 617	1	1	-0.029522	1.29784	4.01555	23.276
 618	1	1	0.182537	2.13134	5.29685	22.9757
 619	1	2	0.017614	0.902272	4.12158	24.2947
 620	1	2	0.005524	0.415125	4.02411	22.6279
 621	1	1	-0.245806	1.24773	6.5504	23.1507
 622	1	1	-0.291525	2.7576	5.30771	21.5671
 623	1	2	-0.003466	2.94051	5.38237	23.7113
 624	1	2	0.0629	3.16818	6.29688	21.3344
 625	1	2	0.058439	2.00902	5.06626	20.8023
 626	1	2	0.076366	3.58374	4.5919	21.4961
 627	1	2	0.061036	0.812461	6.58371	24.1573
 628	1	2	0.060061	0.427441	6.55813	22.4217
 629	1	2	0.042474	1.83721	7.46548	23.0116
 630	1	2	-0.019174	1.36851	1.94665	23.7853
 631	1	1	-0.06457	3.34646	2.64011	24.0087
 632	1	1	0.061186	4.1903	1.33347	24.1222
 633	1	2	0.013749	3.11842	2.97769	25.0267
 634	1	2	0.012175	4.00153	3.42112	23.6074
 635	1	1	-0.029522	3.42952	-0.0016435	24.4204
 636	1	1	0.182537	2.87706	-0.236721	25.8596
 637	1	2	0.017614	4.13293	-0.823134	24.2322
 638	1	2	0.005524	2.6183	-0.157441	23.7021
 639	1	1	-0.245806	1.61075	0.578021	26.1957
 640	1	1	-0.291525	3.94208	-0.0697829	26.9664
 641	1	2	-0.003466	2.5693	-1.29036	25.8876
 642	1	2	0.0629	3.55534	-0.432774	27.9269
 643	1	2	0.058439	4.2256	0.981228	27.0997
 644	1	2	0.076366	4.8441	-0.64751	26.7297
 645	1	2	0.061036	1.19989	0.259534	27.1619
 646	1	2	0.060061	0.832462	0.418223	25.4396
 647	1	2	0.042474	1.82106	1.64994	26.2648
 648	1	2	-0.019174	4.8183	1.49981	25.0
 649	1	1	-0.06457	5.16832	1.19025	22.909
 650	1	1	0.061186	6.63777	0.913759	23.3469
 651	1	2	0.013749	5.1644	2.09797	22.2918
 652	1	2	0.012175	4.80678	0.396363	22.2473
 653	1	1	-0.029522	7.53765	0.480949	22.1475
 654	1	1	0.182537	7.67692	-1.04678	21.8889
 655	1	2	0.017614	8.55367	0.860748	22.302
 656	1	2	0.005524	7.1845	0.973683	21.2321
 657	1	1	-0.245806	6.34202	-1.74924	21.5655
 658	1	1	-0.291525	8.40767	-1.77507	23.0399
 659	1	2	-0.003466	8.31178	-1.15058	20.9992
 660	1	2	0.0629	8.6294	-2.81172	22.7572
 661	1	2	0.058439	7.80295	-1.802	23.954
 662	1	2	0.076366	9.3595	-1.28135	23.2725
 663	1	2	0.061036	5.67933	-1.7688	22.4387
 664	1	2	0.060061	6.52072	-2.78739	21.2588
 665	1	2	0.042474	5.82396	-1.2421	20.7418
 666	1	2	-0.019174	6.5931	0.0805279	24.0492