pySIMM System Object

218 atoms
217 bonds
432 angles
639 dihedrals
0 impropers

2 atom types
2 bond types
3 angle types
3 dihedral types

-72.712168 72.712168 xlo xhi
-72.712168 72.712168 ylo yhi
-72.712168 72.712168 zlo zhi

Masses

   1	12.01	# c3
   2	1.008	# hc

Pair Coeffs

   1	0.1094	3.3996695084235347	# c3
   2	0.0157	2.649532787749369	# hc

Bond Coeffs

   1	330.6	1.0969	# c3,hc
   2	300.9	1.5375	# c3,c3

Angle Coeffs

   1	46.34	109.8	# c3,c3,hc
   2	39.4	107.58	# hc,c3,hc
   3	62.86	111.51	# c3,c3,c3

Dihedral Coeffs

   1	1	0.16	3	0	# hc,c3,c3,c3
   2	1	0.15	3	0	# hc,c3,c3,hc
   3	3	0.18	3	0	0.25	2	180	0.2	1	180	# c3,c3,c3,c3

Atoms

   1	1	1	-0.06457	-3.81117	3.98405	-9.97582
   2	1	1	0.061186	-3.02647	3.8254	-8.64748
   3	1	2	0.013749	-3.43889	3.3	-10.7467
   4	1	2	0.012175	-4.87329	3.74951	-9.84283
   5	1	1	-0.029522	-1.50108	4.07524	-8.83419
   6	1	1	0.182537	-0.776559	3.17854	-9.8789
   7	1	2	0.017614	-1.00568	3.9413	-7.86337
   8	1	2	0.005524	-1.34865	5.12674	-9.11179
   9	1	1	-0.245806	-0.942813	1.66822	-9.59563
  10	1	1	-0.291525	0.724705	3.53162	-9.93703
  11	1	2	-0.003466	-1.19017	3.38694	-10.8731
  12	1	2	0.0629	1.21615	3.32417	-8.9781
  13	1	2	0.058439	0.866696	4.59376	-10.173
  14	1	2	0.076366	1.23104	2.94533	-10.7142
  15	1	2	0.061036	-1.9914	1.35931	-9.67974
  16	1	2	0.060061	-0.587302	1.41543	-8.58885
  17	1	2	0.042474	-0.370134	1.07401	-10.3188
  18	1	2	-0.019174	-3.15046	2.79174	-8.31162
  19	1	1	-0.06457	-3.57489	4.77613	-7.53981
  20	1	1	0.061186	-5.05326	4.54377	-7.09859
  21	1	2	0.013749	-2.92942	4.73287	-6.65461
  22	1	2	0.012175	-3.47317	5.79891	-7.9203
  23	1	1	-0.029522	-5.53729	5.62575	-6.08251
  24	1	1	0.182537	-5.53923	7.10079	-6.5789
  25	1	2	0.017614	-4.90952	5.58519	-5.18472
  26	1	2	0.005524	-6.55542	5.37007	-5.76011
  27	1	1	-0.245806	-6.05908	8.03358	-5.46409
  28	1	1	-0.291525	-6.37532	7.31213	-7.86108
  29	1	2	-0.003466	-4.50787	7.40651	-6.79135
  30	1	2	0.0629	-5.9395	6.77988	-8.7148
  31	1	2	0.058439	-6.41202	8.37585	-8.12764
  32	1	2	0.076366	-7.40519	6.96044	-7.72109
  33	1	2	0.061036	-7.10047	7.79983	-5.20871
  34	1	2	0.060061	-6.01315	9.0828	-5.78197
  35	1	2	0.042474	-5.4525	7.93231	-4.55532
  36	1	2	-0.019174	-5.67454	4.66817	-7.99075
  37	1	1	-0.06457	-5.38159	3.0979	-6.59458
  38	1	1	0.061186	-4.81598	2.65812	-5.20302
  39	1	2	0.013749	-6.47409	3.04235	-6.56605
  40	1	2	0.012175	-5.10156	2.3557	-7.35118
  41	1	1	-0.029522	-5.73073	1.58706	-4.52853
  42	1	1	0.182537	-7.13232	2.06554	-4.04951
  43	1	2	0.017614	-5.21947	1.17094	-3.65343
  44	1	2	0.005524	-5.85849	0.748562	-5.22601
  45	1	1	-0.245806	-7.05374	3.19979	-3.00237
  46	1	1	-0.291525	-7.91932	0.875196	-3.46086
  47	1	2	-0.003466	-7.70887	2.43499	-4.90473
  48	1	2	0.0629	-8.92851	1.18492	-3.16175
  49	1	2	0.058439	-7.41194	0.464773	-2.57843
  50	1	2	0.076366	-8.02141	0.0717364	-4.20107
  51	1	2	0.061036	-8.05335	3.44222	-2.62058
  52	1	2	0.060061	-6.64227	4.1184	-3.43572
  53	1	2	0.042474	-6.42625	2.90711	-2.15094
  54	1	2	-0.019174	-4.80189	3.52368	-4.54185
  55	1	1	-0.06457	-3.35953	2.10611	-5.3044
  56	1	1	0.061186	-2.5379	2.21594	-3.98568
  57	1	2	0.013749	-2.79482	2.61591	-6.08631
  58	1	2	0.012175	-3.41203	1.05885	-5.62926
  59	1	1	-0.029522	-2.08245	3.68484	-3.72843
  60	1	1	0.182537	-1.5649	3.97107	-2.29023
  61	1	2	0.017614	-1.29701	3.93782	-4.45317
  62	1	2	0.005524	-2.9036	4.38057	-3.93327
  63	1	1	-0.245806	-2.67415	3.81037	-1.22509
  64	1	1	-0.291525	-0.975703	5.39523	-2.21412
  65	1	2	-0.003466	-0.756769	3.27074	-2.04675
  66	1	2	0.0629	-0.152367	5.51479	-2.92947
  67	1	2	0.058439	-0.580337	5.60225	-1.21192
  68	1	2	0.076366	-1.73996	6.14906	-2.44213
  69	1	2	0.061036	-3.55836	4.40555	-1.48624
  70	1	2	0.060061	-2.32272	4.14343	-0.241297
  71	1	2	0.042474	-2.98182	2.76344	-1.12117
  72	1	2	-0.019174	-3.19436	1.91902	-3.16307
  73	1	1	-0.06457	-1.31496	1.24811	-4.01045
  74	1	1	0.061186	-1.43439	0.0424651	-3.03163
  75	1	2	0.013749	-1.14905	0.870954	-5.02846
  76	1	2	0.012175	-0.40434	1.81114	-3.77886
  77	1	1	-0.029522	-2.55247	-0.942702	-3.48567
  78	1	1	0.182537	-2.91301	-2.0378	-2.43782
  79	1	2	0.017614	-2.26695	-1.40781	-4.43842
  80	1	2	0.005524	-3.45778	-0.368853	-3.70646
  81	1	1	-0.245806	-4.43253	-2.06932	-2.16246
  82	1	1	-0.291525	-2.44269	-3.44129	-2.88273
  83	1	2	-0.003466	-2.41991	-1.80121	-1.4859
  84	1	2	0.0629	-1.36533	-3.46068	-3.08286
  85	1	2	0.058439	-2.96153	-3.75665	-3.79681
  86	1	2	0.076366	-2.65024	-4.18332	-2.10159
  87	1	2	0.061036	-4.78078	-1.09741	-1.79032
  88	1	2	0.060061	-4.67507	-2.82493	-1.40477
  89	1	2	0.042474	-4.99361	-2.30787	-3.07513
  90	1	2	-0.019174	-1.71264	0.43063	-2.04252
  91	1	1	-0.06457	-0.0597324	-0.67028	-2.89818
  92	1	1	0.061186	0.998891	0.130938	-2.06837
  93	1	2	0.013749	0.291604	-0.897822	-3.90772
  94	1	2	0.012175	-0.196286	-1.64779	-2.42501
  95	1	1	-0.029522	2.29226	0.524788	-2.86092
  96	1	1	0.182537	2.89538	-0.464405	-3.90569
  97	1	2	0.017614	3.08091	0.804934	-2.15494
  98	1	2	0.005524	2.06414	1.45143	-3.40389
  99	1	1	-0.245806	4.22495	0.0990596	-4.45145
 100	1	1	-0.291525	3.1212	-1.90081	-3.38593
 101	1	2	-0.003466	2.2157	-0.522968	-4.76398
 102	1	2	0.0629	3.53484	-2.53245	-4.18199
 103	1	2	0.058439	2.18484	-2.36595	-3.05905
 104	1	2	0.076366	3.82906	-1.91396	-2.55183
 105	1	2	0.061036	4.077	1.09757	-4.88198
 106	1	2	0.060061	4.62815	-0.548613	-5.24003
 107	1	2	0.042474	4.97698	0.177459	-3.65599
 108	1	2	-0.019174	0.537006	1.08941	-1.81558
 109	1	1	-0.06457	1.27683	-0.585571	-0.705622
 110	1	1	0.061186	1.95965	0.264157	0.418924
 111	1	2	0.013749	1.87435	-1.47205	-0.926517
 112	1	2	0.012175	0.328331	-0.961317	-0.298711
 113	1	1	-0.029522	1.00832	1.39273	0.940099
 114	1	1	0.182537	1.68348	2.76994	1.19609
 115	1	2	0.017614	0.503533	1.06312	1.85779
 116	1	2	0.005524	0.192381	1.55418	0.228094
 117	1	1	-0.245806	0.613751	3.84031	1.4988
 118	1	1	-0.291525	2.71195	2.74731	2.34774
 119	1	2	-0.003466	2.20342	3.07502	0.278526
 120	1	2	0.0629	3.57755	2.12857	2.09717
 121	1	2	0.058439	2.26276	2.36092	3.27138
 122	1	2	0.076366	3.08795	3.75793	2.55037
 123	1	2	0.061036	0.0587333	3.59396	2.41298
 124	1	2	0.060061	-0.102591	3.91803	0.673203
 125	1	2	0.042474	1.07493	4.82674	1.63426
 126	1	2	-0.019174	2.84671	0.739524	-0.00615491
 127	1	1	-0.06457	2.40677	-0.631173	1.62275
 128	1	1	0.061186	3.38199	-1.81143	1.32459
 129	1	2	0.013749	2.84712	-0.0105255	2.4099
 130	1	2	0.012175	1.4888	-1.04634	2.04415
 131	1	1	-0.029522	4.64875	-1.40075	0.507256
 132	1	1	0.182537	5.49033	-0.168549	0.958414
 133	1	2	0.017614	4.316	-1.19378	-0.514543
 134	1	2	0.005524	5.31135	-2.2717	0.419673
 135	1	1	-0.245806	6.09688	-0.281881	2.37262
 136	1	1	-0.291525	6.61804	0.0870744	-0.0646526
 137	1	2	-0.003466	4.85564	0.72068	0.944055
 138	1	2	0.0629	7.31926	-0.756444	-0.0964212
 139	1	2	0.058439	7.18259	0.991748	0.19389
 140	1	2	0.076366	6.20645	0.228843	-1.07201
 141	1	2	0.061036	5.32376	-0.172237	3.14103
 142	1	2	0.060061	6.82804	0.517554	2.54605
 143	1	2	0.042474	6.60747	-1.24347	2.5098
 144	1	2	-0.019174	2.84409	-2.49908	0.666729
 145	1	1	-0.06457	3.75309	-2.68199	2.57183
 146	1	1	0.061186	2.61126	-3.3615	3.39637
 147	1	2	0.013749	4.3697	-2.10986	3.26781
 148	1	2	0.012175	4.41089	-3.487	2.21939
 149	1	1	-0.029522	1.51241	-4.0513	2.52887
 150	1	1	0.182537	2.01546	-5.16266	1.56363
 151	1	2	0.017614	0.983283	-3.28806	1.94617
 152	1	2	0.005524	0.753233	-4.49214	3.18623
 153	1	1	-0.245806	2.56246	-6.39497	2.31773
 154	1	1	-0.291525	0.88191	-5.59638	0.609924
 155	1	2	-0.003466	2.82449	-4.76645	0.939458
 156	1	2	0.0629	1.23791	-6.35661	-0.0967576
 157	1	2	0.058439	0.515914	-4.7427	0.0253518
 158	1	2	0.076366	0.0365632	-6.01786	1.16831
 159	1	2	0.061036	1.80381	-6.81208	2.99187
 160	1	2	0.060061	3.44812	-6.13932	2.91079
 161	1	2	0.042474	2.85795	-7.18057	1.61095
 162	1	2	-0.019174	3.11641	-4.15434	3.95403
 163	1	1	-0.06457	1.99545	-2.40228	4.46548
 164	1	1	0.061186	1.41495	-3.0963	5.7352
 165	1	2	0.013749	2.74731	-1.67025	4.78631
 166	1	2	0.012175	1.1897	-1.82567	3.99989
 167	1	1	-0.029522	0.376216	-2.17362	6.45345
 168	1	1	0.182537	0.774658	-0.697761	6.76495
 169	1	2	0.017614	0.010899	-2.65212	7.36849
 170	1	2	0.005524	-0.504611	-2.13231	5.79905
 171	1	1	-0.245806	-0.437799	0.0493082	7.36218
 172	1	1	-0.291525	1.98026	-0.545044	7.71829
 173	1	2	-0.003466	1.02593	-0.192087	5.82423
 174	1	2	0.0629	2.91918	-0.78981	7.21212
 175	1	2	0.058439	1.87235	-1.18277	8.60414
 176	1	2	0.076366	2.07298	0.493471	8.06021
 177	1	2	0.061036	-0.730218	-0.384834	8.32682
 178	1	2	0.060061	-1.30113	-0.00334186	6.68712
 179	1	2	0.042474	-0.204529	1.10966	7.52166
 180	1	2	-0.019174	0.834829	-3.95327	5.37704
 181	1	1	-0.06457	2.53723	-3.6779	6.66005
 182	1	1	0.061186	2.08098	-4.37562	7.98141
 183	1	2	0.013749	3.11472	-4.41663	6.09338
 184	1	2	0.012175	3.252	-2.88594	6.89034
 185	1	1	-0.029522	1.12869	-5.57463	7.67447
 186	1	1	0.182537	0.560903	-6.35808	8.89315
 187	1	2	0.017614	1.65201	-6.28119	7.0168
 188	1	2	0.005524	0.268528	-5.20573	7.10427
 189	1	1	-0.245806	-0.440996	-7.42951	8.41366
 190	1	1	-0.291525	-0.117547	-5.44042	9.93523
 191	1	2	-0.003466	1.37823	-6.89431	9.38945
 192	1	2	0.0629	-0.564326	-6.03552	10.7415
 193	1	2	0.058439	-0.912256	-4.84114	9.4733
 194	1	2	0.076366	0.605887	-4.75799	10.397
 195	1	2	0.061036	0.0331425	-8.11325	7.69841
 196	1	2	0.060061	-1.30715	-6.96725	7.92328
 197	1	2	0.042474	-0.805924	-8.02733	9.25829
 198	1	2	-0.019174	1.52689	-3.64656	8.58145
 199	1	1	-0.06457	3.31694	-4.80634	8.82715
 200	1	1	0.061186	4.05216	-3.62434	9.50547
 201	1	2	0.013749	3.00692	-5.48258	9.62967
 202	1	2	0.012175	4.01767	-5.37257	8.19965
 203	1	1	-0.029522	5.20995	-4.1159	10.4069
 204	1	1	0.182537	5.99159	-2.97298	11.1067
 205	1	2	0.017614	5.90648	-4.69439	9.78607
 206	1	2	0.005524	4.81882	-4.80718	11.1651
 207	1	1	-0.245806	7.26708	-3.52574	11.7772
 208	1	1	-0.291525	5.13679	-2.22696	12.1563
 209	1	2	-0.003466	6.30456	-2.24951	10.3426
 210	1	2	0.0629	4.26883	-1.74031	11.6967
 211	1	2	0.058439	5.72725	-1.44435	12.6491
 212	1	2	0.076366	4.77573	-2.9164	12.9301
 213	1	2	0.061036	7.01635	-4.25285	12.56
 214	1	2	0.060061	7.84754	-2.71565	12.2362
 215	1	2	0.042474	7.91079	-4.02352	11.0411
 216	1	2	-0.019174	4.45538	-2.93859	8.75145
 217	1	2	0	-3.73181	5.00909	-10.3596
 218	1	2	0	3.32812	-3.05902	10.1044

Velocities

   1	3.58936e-05	-3.27679e-05	-0.000260898
   2	-0.000136701	-6.3299e-05	-0.000210108
   3	-0.000197514	-0.000402177	-7.83211e-05
   4	-8.76587e-05	0.000479303	-0.000362688
   5	-0.000125471	-2.46769e-05	0.000131905
   6	5.00694e-05	1.23914e-05	0.00023432
   7	-0.000307452	-9.40097e-05	0.000177235
   8	-0.000131302	3.88233e-05	0.000214666
   9	0.000122981	3.69213e-05	0.00052899
  10	-1.70138e-05	0.000188735	0.00039297
  11	8.67217e-05	-0.000188361	0.00021018
  12	-0.000185138	0.000506575	0.000534854
  13	-0.000150725	0.00020532	0.000181618
  14	0.000200867	8.99117e-05	0.000644718
  15	0.00017372	-3.74768e-05	0.000277793
  16	-0.000192832	0.000428196	0.000749443
  17	0.000455659	-6.10212e-05	0.000917691
  18	-0.000258365	-3.83299e-05	-0.000196937
  19	-7.60791e-05	-6.24343e-05	-0.000169299
  20	-5.92971e-05	1.35077e-05	-0.00020971
  21	-5.42516e-05	-0.000135446	-0.000196589
  22	-6.03542e-06	-8.95324e-05	-0.00012903
  23	0.000129857	-3.04447e-05	-0.000207445
  24	7.3203e-05	-3.1775e-05	-0.000175441
  25	0.000315994	2.4949e-05	-0.000312027
  26	0.000188841	-9.95602e-06	4.15186e-05
  27	0.000123032	-0.000304312	-3.19412e-06
  28	-8.25044e-05	-6.10959e-05	-9.5529e-05
  29	2.25809e-05	4.77878e-05	-0.000298481
  30	0.000119959	0.000352716	-0.000247201
  31	-0.00052953	1.29405e-05	0.000165123
  32	6.72967e-05	-0.000518859	-0.00016761
  33	0.000171555	-0.000444208	7.59957e-05
  34	3.98167e-05	-0.000220814	0.000255853
  35	0.00022693	-0.00049371	-7.14583e-05
  36	-8.57129e-05	6.68415e-05	-0.00019811
  37	-0.000187586	2.97946e-05	-0.000119155
  38	-0.00018782	0.000149537	-4.81857e-05
  39	-0.000177035	0.000164793	-2.93931e-05
  40	-0.000289475	-4.96943e-05	-6.21693e-05
  41	-0.000183539	0.000113127	-0.000115503
  42	-0.000149013	9.56549e-05	0.000114124
  43	-9.99298e-05	9.78351e-06	-0.000172883
  44	-0.000263669	0.00020302	-0.000165437
  45	8.24482e-06	1.696e-05	0.000165555
  46	-6.13244e-05	2.1543e-05	0.000151746
  47	-0.000213192	0.000137446	0.00017417
  48	9.24864e-07	4.20934e-05	0.00030322
  49	5.95466e-05	8.28081e-06	6.52122e-05
  50	-0.000155485	8.73009e-05	0.00014903
  51	7.09281e-05	-9.73976e-05	0.000400054
  52	-0.000158034	6.86182e-05	0.000145298
  53	0.00020975	-1.09098e-05	9.86829e-06
  54	-0.000285158	0.000151228	-9.57923e-05
  55	-0.000177685	0.000164924	0.000106785
  56	-0.00022397	0.000165151	0.000154481
  57	-0.000122929	8.58323e-05	8.63958e-05
  58	-0.000198911	0.00013892	0.000156723
  59	-0.00035181	0.000225947	0.000251473
  60	-8.89924e-05	0.000147707	0.000141222
  61	-0.000535451	0.00038425	8.62166e-05
  62	-0.000476913	0.000128218	0.000480128
  63	8.80708e-05	0.000175673	0.000349882
  64	4.23368e-05	0.000101614	0.0001856
  65	-8.99282e-05	9.6318e-05	2.95235e-06
  66	-0.000117243	0.000141218	-2.13179e-05
  67	0.000338015	-6.00805e-05	0.000101881
  68	6.8104e-05	0.000209961	0.000490628
  69	0.000225134	0.000546095	0.00072668
  70	0.000406776	-0.000247847	0.000368766
  71	-0.000235099	0.000239054	7.77175e-05
  72	-0.000219727	9.0611e-05	0.000151696
  73	-0.000145001	0.000234005	0.000163781
  74	-2.91211e-05	0.000117339	3.08697e-05
  75	-0.000116661	0.000341739	0.000119867
  76	-0.000204165	0.000275533	0.000208596
  77	5.7952e-05	3.02752e-05	-9.23765e-05
  78	1.30288e-05	2.47733e-06	-0.000131687
  79	0.000216667	6.20383e-05	-5.03128e-05
  80	4.39707e-05	-2.65508e-05	-0.000210104
  81	2.49041e-05	0.000171695	5.98937e-05
  82	-0.000271917	-5.48154e-05	-0.000299885
  83	0.000161334	-0.000172353	-0.000177749
  84	-0.000228798	-0.000271275	-7.66153e-05
  85	-0.000184605	0.000243192	-0.000451671
  86	-0.00061371	-0.000125999	-0.00046759
  87	0.000197912	0.000207408	0.000139152
  88	5.69899e-05	0.000179716	6.80857e-05
  89	-0.000119516	0.000256149	0.00013034
  90	-2.41659e-05	-4.31536e-05	8.28363e-05
  91	3.2553e-05	0.000119638	-0.000152591
  92	0.00011505	-2.33693e-05	-7.06406e-05
  93	-2.02942e-06	0.00041577	-0.000239918
  94	0.00011676	-8.29537e-06	-0.000392791
  95	0.000189603	-0.000275085	-7.243e-06
  96	0.000227073	-0.000403378	0.000123143
  97	0.000175713	-0.000238209	-5.40947e-06
  98	0.00030696	-0.000299559	-0.000147809
  99	0.000260445	-0.000475564	0.000143075
 100	0.000180719	-0.000380472	0.000249775
 101	0.000272897	-0.000497856	8.52872e-05
 102	0.000211111	-0.000437753	0.00031181
 103	0.000154496	-0.000333612	0.000233063
 104	0.000152915	-0.000341833	0.000274329
 105	0.000330319	-0.000426407	0.000221096
 106	0.000203443	-0.000443973	8.11688e-05
 107	0.000281494	-0.000578614	0.000142252
 108	0.00023545	1.74922e-05	-9.25585e-05
 109	1.93248e-05	-7.1416e-05	-1.01671e-05
 110	8.29326e-05	-4.64916e-05	-6.10561e-05
 111	-4.03853e-05	-0.000103361	2.86143e-05
 112	-1.70609e-05	1.76618e-05	-6.11579e-05
 113	9.06238e-05	-7.56123e-05	-7.37147e-06
 114	-1.15121e-05	1.38585e-05	-0.000162375
 115	0.00020032	-3.4855e-05	6.66303e-05
 116	7.79647e-06	-0.000218989	4.97669e-05
 117	-0.000204359	-5.90747e-05	-0.000644016
 118	-0.000272371	0.00036187	9.37559e-05
 119	0.000171056	-0.000148277	-0.000110199
 120	-0.000159228	0.000347615	0.000477636
 121	-0.000475191	0.00061261	9.36371e-05
 122	-0.000407427	0.000457883	-0.000103335
 123	-0.000452924	4.08096e-05	-0.000781584
 124	3.80118e-05	-0.000313845	-0.000888566
 125	-0.000378405	3.57354e-05	-0.000699833
 126	5.78699e-05	-3.61347e-05	-7.03542e-05
 127	0.000197531	3.2404e-05	2.64145e-05
 128	0.000183096	8.91866e-05	3.25177e-05
 129	0.000255604	0.000159141	-0.000119349
 130	0.000225899	0.000110898	0.000127936
 131	0.000146322	5.28802e-05	5.88665e-05
 132	0.000149217	0.000135107	-4.60889e-05
 133	0.000130015	2.61205e-05	2.06589e-05
 134	0.000173439	9.21066e-05	6.3978e-05
 135	-4.65237e-05	0.000335889	6.26268e-05
 136	0.000277927	-0.000179207	5.85611e-05
 137	0.000160492	0.000160176	-0.000245352
 138	0.0001568	-0.000282394	0.000246382
 139	0.000396477	-0.000223183	-1.8588e-05
 140	0.000414781	-0.000263116	-9.98469e-06
 141	-0.000145845	0.000397352	-5.94956e-05
 142	-0.000120634	0.000430693	4.66472e-05
 143	9.72193e-06	0.000413175	0.000255723
 144	0.000181226	6.93335e-06	0.000102881
 145	0.000262573	0.00013933	0.000137881
 146	0.000349935	8.47543e-05	0.000108618
 147	0.000181172	0.000251221	8.56258e-05
 148	0.000355936	0.000217485	0.000158695
 149	0.00031627	5.737e-05	0.000251804
 150	0.000208909	4.24513e-06	0.000268916
 151	0.000315506	4.75971e-05	0.00023838
 152	0.000339216	8.2803e-05	0.000264486
 153	0.000184417	-7.15228e-06	0.000302996
 154	1.86875e-05	6.06176e-05	0.000492782
 155	0.000168227	-6.93308e-05	0.000192771
 156	-0.000182384	2.7429e-05	0.000441023
 157	-3.51545e-05	9.18061e-05	0.000570707
 158	8.32978e-05	0.000145093	0.000680332
 159	0.00018501	1.68371e-05	0.000313177
 160	0.000196616	-3.69971e-05	0.000282613
 161	0.000137966	-2.92742e-05	0.000296307
 162	0.00043478	0.000117512	0.000120576
 163	0.000226459	-8.34996e-06	0.000115763
 164	-9.29602e-05	-7.96752e-05	-0.000151126
 165	0.000253175	-0.000110569	0.00034499
 166	0.000384214	0.000167427	1.41371e-05
 167	-0.000187293	-0.000130539	-0.000251988
 168	-0.000145374	-0.00014	-0.000163815
 169	-0.000317769	-0.000151454	-0.000315903
 170	-0.000130688	-4.70653e-05	-0.000355288
 171	-0.000119866	-8.43546e-05	-0.000208706
 172	-0.000164618	-0.000327602	-0.000141601
 173	-8.27259e-05	-0.000147355	-0.000168367
 174	-0.000197783	-0.000566087	-0.000104378
 175	-0.000339524	-0.000250819	-0.000116295
 176	3.93337e-05	-0.000328966	-0.000219751
 177	-0.00025001	-0.00012532	-0.000275544
 178	-6.75e-05	8.58447e-05	-0.000292787
 179	-3.33648e-06	-0.000114091	-9.41287e-05
 180	-0.000123728	-6.20593e-05	-0.000269524
 181	-0.000177662	-0.000239189	-0.000111487
 182	-0.000241952	-8.40312e-05	-9.34191e-05
 183	-0.000378079	-0.000402699	-0.000108056
 184	-1.01665e-05	-0.000351974	-0.000290531
 185	-0.000397887	-6.26641e-05	-5.87543e-05
 186	-0.000294193	-0.000179528	-0.000164414
 187	-0.000499172	-3.15482e-06	-0.000283719
 188	-0.000391696	8.57129e-05	6.29191e-05
 189	-0.000256925	-0.000315217	6.95827e-05
 190	-0.000337652	-0.000133049	-0.000232144
 191	-0.000207509	-5.25985e-05	-0.000156198
 192	-0.000560218	-8.08596e-05	-0.000318331
 193	-0.000202517	-5.53728e-05	-0.000395296
 194	-0.000341377	-0.000219003	-0.000151114
 195	-0.000331608	-0.000421963	0.00011017
 196	-0.000387184	-0.000481172	0.000130187
 197	-0.000133688	-0.000234413	0.000193271
 198	-0.000134929	2.0717e-05	-0.000172403
 199	-0.000248038	-5.72792e-05	1.7636e-05
 200	0.000261881	-2.10362e-05	-0.000439712
 201	-0.000431385	0.000359039	0.000241904
 202	-0.000520676	-0.00050658	0.00010111
 203	0.000235929	7.23271e-05	-0.000254073
 204	0.000329355	0.000141883	-0.000309354
 205	0.000253504	-0.000102818	-9.46118e-05
 206	0.000137325	0.000302666	-0.000135058
 207	0.000219999	0.00021466	4.72987e-05
 208	0.000215749	0.000288908	-0.000536409
 209	0.000512607	-2.01943e-05	-0.000338179
 210	0.000822503	0.00101229	-0.000910431
 211	0.000430551	-0.000271867	0.000104818
 212	-0.000691268	0.000253333	-0.00098814
 213	0.000130744	7.24603e-05	-0.000136887
 214	-0.000114093	0.000273407	0.00038873
 215	0.000616304	0.000513743	0.000237094
 216	0.000445813	-0.000452713	-0.000738872
 217	0.000504714	-0.000190408	-0.000586627
 218	0.000503014	0.000435539	-0.000627599

Bonds

   1	2	1	2
   2	1	1	3
   3	1	1	4
   4	2	2	5
   5	1	2	18
   6	2	5	6
   7	1	5	7
   8	1	5	8
   9	2	6	9
  10	2	6	10
  11	1	6	11
  12	1	9	15
  13	1	9	16
  14	1	9	17
  15	1	10	12
  16	1	10	13
  17	1	10	14
  18	2	19	20
  19	1	19	21
  20	1	19	22
  21	2	20	23
  22	1	20	36
  23	2	23	24
  24	1	23	25
  25	1	23	26
  26	2	24	27
  27	2	24	28
  28	1	24	29
  29	1	27	33
  30	1	27	34
  31	1	27	35
  32	1	28	30
  33	1	28	31
  34	1	28	32
  35	2	2	19
  36	2	37	38
  37	1	37	39
  38	1	37	40
  39	2	38	41
  40	1	38	54
  41	2	41	42
  42	1	41	43
  43	1	41	44
  44	2	42	45
  45	2	42	46
  46	1	42	47
  47	1	45	51
  48	1	45	52
  49	1	45	53
  50	1	46	48
  51	1	46	49
  52	1	46	50
  53	2	20	37
  54	2	55	56
  55	1	55	57
  56	1	55	58
  57	2	56	59
  58	1	56	72
  59	2	59	60
  60	1	59	61
  61	1	59	62
  62	2	60	63
  63	2	60	64
  64	1	60	65
  65	1	63	69
  66	1	63	70
  67	1	63	71
  68	1	64	66
  69	1	64	67
  70	1	64	68
  71	2	38	55
  72	2	73	74
  73	1	73	75
  74	1	73	76
  75	2	74	77
  76	1	74	90
  77	2	77	78
  78	1	77	79
  79	1	77	80
  80	2	78	81
  81	2	78	82
  82	1	78	83
  83	1	81	87
  84	1	81	88
  85	1	81	89
  86	1	82	84
  87	1	82	85
  88	1	82	86
  89	2	56	73
  90	2	91	92
  91	1	91	93
  92	1	91	94
  93	2	92	95
  94	1	92	108
  95	2	95	96
  96	1	95	97
  97	1	95	98
  98	2	96	99
  99	2	96	100
 100	1	96	101
 101	1	99	105
 102	1	99	106
 103	1	99	107
 104	1	100	102
 105	1	100	103
 106	1	100	104
 107	2	74	91
 108	2	109	110
 109	1	109	111
 110	1	109	112
 111	2	110	113
 112	1	110	126
 113	2	113	114
 114	1	113	115
 115	1	113	116
 116	2	114	117
 117	2	114	118
 118	1	114	119
 119	1	117	123
 120	1	117	124
 121	1	117	125
 122	1	118	120
 123	1	118	121
 124	1	118	122
 125	2	92	109
 126	2	127	128
 127	1	127	129
 128	1	127	130
 129	2	128	131
 130	1	128	144
 131	2	131	132
 132	1	131	133
 133	1	131	134
 134	2	132	135
 135	2	132	136
 136	1	132	137
 137	1	135	141
 138	1	135	142
 139	1	135	143
 140	1	136	138
 141	1	136	139
 142	1	136	140
 143	2	110	127
 144	2	145	146
 145	1	145	147
 146	1	145	148
 147	2	146	149
 148	1	146	162
 149	2	149	150
 150	1	149	151
 151	1	149	152
 152	2	150	153
 153	2	150	154
 154	1	150	155
 155	1	153	159
 156	1	153	160
 157	1	153	161
 158	1	154	156
 159	1	154	157
 160	1	154	158
 161	2	128	145
 162	2	163	164
 163	1	163	165
 164	1	163	166
 165	2	164	167
 166	1	164	180
 167	2	167	168
 168	1	167	169
 169	1	167	170
 170	2	168	171
 171	2	168	172
 172	1	168	173
 173	1	171	177
 174	1	171	178
 175	1	171	179
 176	1	172	174
 177	1	172	175
 178	1	172	176
 179	2	146	163
 180	2	181	182
 181	1	181	183
 182	1	181	184
 183	2	182	185
 184	1	182	198
 185	2	185	186
 186	1	185	187
 187	1	185	188
 188	2	186	189
 189	2	186	190
 190	1	186	191
 191	1	189	195
 192	1	189	196
 193	1	189	197
 194	1	190	192
 195	1	190	193
 196	1	190	194
 197	2	164	181
 198	2	199	200
 199	1	199	201
 200	1	199	202
 201	2	200	203
 202	1	200	216
 203	2	203	204
 204	1	203	205
 205	1	203	206
 206	2	204	207
 207	2	204	208
 208	1	204	209
 209	1	207	213
 210	1	207	214
 211	1	207	215
 212	1	208	210
 213	1	208	211
 214	1	208	212
 215	2	182	199
 216	1	1	217
 217	1	200	218

Angles

   1	1	2	1	3
   2	1	2	1	4
   3	2	3	1	4
   4	3	1	2	5
   5	1	1	2	18
   6	1	5	2	18
   7	3	2	5	6
   8	1	2	5	7
   9	1	2	5	8
  10	1	6	5	7
  11	1	6	5	8
  12	2	7	5	8
  13	3	5	6	9
  14	3	5	6	10
  15	1	5	6	11
  16	3	9	6	10
  17	1	9	6	11
  18	1	10	6	11
  19	1	6	9	15
  20	1	6	9	16
  21	1	6	9	17
  22	2	15	9	16
  23	2	15	9	17
  24	2	16	9	17
  25	1	6	10	12
  26	1	6	10	13
  27	1	6	10	14
  28	2	12	10	13
  29	2	12	10	14
  30	2	13	10	14
  31	1	20	19	21
  32	1	20	19	22
  33	2	21	19	22
  34	3	19	20	23
  35	1	19	20	36
  36	1	23	20	36
  37	3	20	23	24
  38	1	20	23	25
  39	1	20	23	26
  40	1	24	23	25
  41	1	24	23	26
  42	2	25	23	26
  43	3	23	24	27
  44	3	23	24	28
  45	1	23	24	29
  46	3	27	24	28
  47	1	27	24	29
  48	1	28	24	29
  49	1	24	27	33
  50	1	24	27	34
  51	1	24	27	35
  52	2	33	27	34
  53	2	33	27	35
  54	2	34	27	35
  55	1	24	28	30
  56	1	24	28	31
  57	1	24	28	32
  58	2	30	28	31
  59	2	30	28	32
  60	2	31	28	32
  61	3	1	2	19
  62	3	5	2	19
  63	1	18	2	19
  64	3	2	19	20
  65	1	2	19	21
  66	1	2	19	22
  67	1	38	37	39
  68	1	38	37	40
  69	2	39	37	40
  70	3	37	38	41
  71	1	37	38	54
  72	1	41	38	54
  73	3	38	41	42
  74	1	38	41	43
  75	1	38	41	44
  76	1	42	41	43
  77	1	42	41	44
  78	2	43	41	44
  79	3	41	42	45
  80	3	41	42	46
  81	1	41	42	47
  82	3	45	42	46
  83	1	45	42	47
  84	1	46	42	47
  85	1	42	45	51
  86	1	42	45	52
  87	1	42	45	53
  88	2	51	45	52
  89	2	51	45	53
  90	2	52	45	53
  91	1	42	46	48
  92	1	42	46	49
  93	1	42	46	50
  94	2	48	46	49
  95	2	48	46	50
  96	2	49	46	50
  97	3	19	20	37
  98	3	23	20	37
  99	1	36	20	37
 100	3	20	37	38
 101	1	20	37	39
 102	1	20	37	40
 103	1	56	55	57
 104	1	56	55	58
 105	2	57	55	58
 106	3	55	56	59
 107	1	55	56	72
 108	1	59	56	72
 109	3	56	59	60
 110	1	56	59	61
 111	1	56	59	62
 112	1	60	59	61
 113	1	60	59	62
 114	2	61	59	62
 115	3	59	60	63
 116	3	59	60	64
 117	1	59	60	65
 118	3	63	60	64
 119	1	63	60	65
 120	1	64	60	65
 121	1	60	63	69
 122	1	60	63	70
 123	1	60	63	71
 124	2	69	63	70
 125	2	69	63	71
 126	2	70	63	71
 127	1	60	64	66
 128	1	60	64	67
 129	1	60	64	68
 130	2	66	64	67
 131	2	66	64	68
 132	2	67	64	68
 133	3	37	38	55
 134	3	41	38	55
 135	1	54	38	55
 136	3	38	55	56
 137	1	38	55	57
 138	1	38	55	58
 139	1	74	73	75
 140	1	74	73	76
 141	2	75	73	76
 142	3	73	74	77
 143	1	73	74	90
 144	1	77	74	90
 145	3	74	77	78
 146	1	74	77	79
 147	1	74	77	80
 148	1	78	77	79
 149	1	78	77	80
 150	2	79	77	80
 151	3	77	78	81
 152	3	77	78	82
 153	1	77	78	83
 154	3	81	78	82
 155	1	81	78	83
 156	1	82	78	83
 157	1	78	81	87
 158	1	78	81	88
 159	1	78	81	89
 160	2	87	81	88
 161	2	87	81	89
 162	2	88	81	89
 163	1	78	82	84
 164	1	78	82	85
 165	1	78	82	86
 166	2	84	82	85
 167	2	84	82	86
 168	2	85	82	86
 169	3	55	56	73
 170	3	59	56	73
 171	1	72	56	73
 172	3	56	73	74
 173	1	56	73	75
 174	1	56	73	76
 175	1	92	91	93
 176	1	92	91	94
 177	2	93	91	94
 178	3	91	92	95
 179	1	91	92	108
 180	1	95	92	108
 181	3	92	95	96
 182	1	92	95	97
 183	1	92	95	98
 184	1	96	95	97
 185	1	96	95	98
 186	2	97	95	98
 187	3	95	96	99
 188	3	95	96	100
 189	1	95	96	101
 190	3	99	96	100
 191	1	99	96	101
 192	1	100	96	101
 193	1	96	99	105
 194	1	96	99	106
 195	1	96	99	107
 196	2	105	99	106
 197	2	105	99	107
 198	2	106	99	107
 199	1	96	100	102
 200	1	96	100	103
 201	1	96	100	104
 202	2	102	100	103
 203	2	102	100	104
 204	2	103	100	104
 205	3	73	74	91
 206	3	77	74	91
 207	1	90	74	91
 208	3	74	91	92
 209	1	74	91	93
 210	1	74	91	94
 211	1	110	109	111
 212	1	110	109	112
 213	2	111	109	112
 214	3	109	110	113
 215	1	109	110	126
 216	1	113	110	126
 217	3	110	113	114
 218	1	110	113	115
 219	1	110	113	116
 220	1	114	113	115
 221	1	114	113	116
 222	2	115	113	116
 223	3	113	114	117
 224	3	113	114	118
 225	1	113	114	119
 226	3	117	114	118
 227	1	117	114	119
 228	1	118	114	119
 229	1	114	117	123
 230	1	114	117	124
 231	1	114	117	125
 232	2	123	117	124
 233	2	123	117	125
 234	2	124	117	125
 235	1	114	118	120
 236	1	114	118	121
 237	1	114	118	122
 238	2	120	118	121
 239	2	120	118	122
 240	2	121	118	122
 241	3	91	92	109
 242	3	95	92	109
 243	1	108	92	109
 244	3	92	109	110
 245	1	92	109	111
 246	1	92	109	112
 247	1	128	127	129
 248	1	128	127	130
 249	2	129	127	130
 250	3	127	128	131
 251	1	127	128	144
 252	1	131	128	144
 253	3	128	131	132
 254	1	128	131	133
 255	1	128	131	134
 256	1	132	131	133
 257	1	132	131	134
 258	2	133	131	134
 259	3	131	132	135
 260	3	131	132	136
 261	1	131	132	137
 262	3	135	132	136
 263	1	135	132	137
 264	1	136	132	137
 265	1	132	135	141
 266	1	132	135	142
 267	1	132	135	143
 268	2	141	135	142
 269	2	141	135	143
 270	2	142	135	143
 271	1	132	136	138
 272	1	132	136	139
 273	1	132	136	140
 274	2	138	136	139
 275	2	138	136	140
 276	2	139	136	140
 277	3	109	110	127
 278	3	113	110	127
 279	1	126	110	127
 280	3	110	127	128
 281	1	110	127	129
 282	1	110	127	130
 283	1	146	145	147
 284	1	146	145	148
 285	2	147	145	148
 286	3	145	146	149
 287	1	145	146	162
 288	1	149	146	162
 289	3	146	149	150
 290	1	146	149	151
 291	1	146	149	152
 292	1	150	149	151
 293	1	150	149	152
 294	2	151	149	152
 295	3	149	150	153
 296	3	149	150	154
 297	1	149	150	155
 298	3	153	150	154
 299	1	153	150	155
 300	1	154	150	155
 301	1	150	153	159
 302	1	150	153	160
 303	1	150	153	161
 304	2	159	153	160
 305	2	159	153	161
 306	2	160	153	161
 307	1	150	154	156
 308	1	150	154	157
 309	1	150	154	158
 310	2	156	154	157
 311	2	156	154	158
 312	2	157	154	158
 313	3	127	128	145
 314	3	131	128	145
 315	1	144	128	145
 316	3	128	145	146
 317	1	128	145	147
 318	1	128	145	148
 319	1	164	163	165
 320	1	164	163	166
 321	2	165	163	166
 322	3	163	164	167
 323	1	163	164	180
 324	1	167	164	180
 325	3	164	167	168
 326	1	164	167	169
 327	1	164	167	170
 328	1	168	167	169
 329	1	168	167	170
 330	2	169	167	170
 331	3	167	168	171
 332	3	167	168	172
 333	1	167	168	173
 334	3	171	168	172
 335	1	171	168	173
 336	1	172	168	173
 337	1	168	171	177
 338	1	168	171	178
 339	1	168	171	179
 340	2	177	171	178
 341	2	177	171	179
 342	2	178	171	179
 343	1	168	172	174
 344	1	168	172	175
 345	1	168	172	176
 346	2	174	172	175
 347	2	174	172	176
 348	2	175	172	176
 349	3	145	146	163
 350	3	149	146	163
 351	1	162	146	163
 352	3	146	163	164
 353	1	146	163	165
 354	1	146	163	166
 355	1	182	181	183
 356	1	182	181	184
 357	2	183	181	184
 358	3	181	182	185
 359	1	181	182	198
 360	1	185	182	198
 361	3	182	185	186
 362	1	182	185	187
 363	1	182	185	188
 364	1	186	185	187
 365	1	186	185	188
 366	2	187	185	188
 367	3	185	186	189
 368	3	185	186	190
 369	1	185	186	191
 370	3	189	186	190
 371	1	189	186	191
 372	1	190	186	191
 373	1	186	189	195
 374	1	186	189	196
 375	1	186	189	197
 376	2	195	189	196
 377	2	195	189	197
 378	2	196	189	197
 379	1	186	190	192
 380	1	186	190	193
 381	1	186	190	194
 382	2	192	190	193
 383	2	192	190	194
 384	2	193	190	194
 385	3	163	164	181
 386	3	167	164	181
 387	1	180	164	181
 388	3	164	181	182
 389	1	164	181	183
 390	1	164	181	184
 391	1	200	199	201
 392	1	200	199	202
 393	2	201	199	202
 394	3	199	200	203
 395	1	199	200	216
 396	1	203	200	216
 397	3	200	203	204
 398	1	200	203	205
 399	1	200	203	206
 400	1	204	203	205
 401	1	204	203	206
 402	2	205	203	206
 403	3	203	204	207
 404	3	203	204	208
 405	1	203	204	209
 406	3	207	204	208
 407	1	207	204	209
 408	1	208	204	209
 409	1	204	207	213
 410	1	204	207	214
 411	1	204	207	215
 412	2	213	207	214
 413	2	213	207	215
 414	2	214	207	215
 415	1	204	208	210
 416	1	204	208	211
 417	1	204	208	212
 418	2	210	208	211
 419	2	210	208	212
 420	2	211	208	212
 421	3	181	182	199
 422	3	185	182	199
 423	1	198	182	199
 424	3	182	199	200
 425	1	182	199	201
 426	1	182	199	202
 427	1	2	1	217
 428	2	3	1	217
 429	2	4	1	217
 430	1	199	200	218
 431	1	203	200	218
 432	2	216	200	218

Dihedrals

   1	1	3	1	2	5