pySIMM System Object

200 atoms
199 bonds
396 angles
585 dihedrals
0 impropers

2 atom types
2 bond types
3 angle types
3 dihedral types

-70.438408 70.438408 xlo xhi
-70.438408 70.438408 ylo yhi
-70.438408 70.438408 zlo zhi

Masses

   1	12.01	# c3
   2	1.008	# hc

Pair Coeffs

   1	0.1094	3.3996695084235347	# c3
   2	0.0157	2.649532787749369	# hc

Bond Coeffs

   1	330.6	1.0969	# c3,hc
   2	300.9	1.5375	# c3,c3

Angle Coeffs

   1	46.34	109.8	# c3,c3,hc
   2	39.4	107.58	# hc,c3,hc
   3	62.86	111.51	# c3,c3,c3

Dihedral Coeffs

   1	1	0.16	3	0	# hc,c3,c3,c3
   2	1	0.15	3	0	# hc,c3,c3,hc
   3	3	0.18	3	0	0.25	2	180	0.2	1	180	# c3,c3,c3,c3

Atoms

   1	1	1	-0.06457	-7.78041	5.04381	-2.07235
   2	1	1	0.061186	-6.88802	3.88898	-1.54855
   3	1	2	0.013749	-7.2939	5.59102	-2.88737
   4	1	2	0.012175	-8.73894	4.66128	-2.44559
   5	1	1	-0.029522	-7.58025	3.09991	-0.398959
   6	1	1	0.182537	-7.92818	3.91204	0.880233
   7	1	2	0.017614	-6.93321	2.26308	-0.104558
   8	1	2	0.005524	-8.50104	2.64822	-0.791489
   9	1	1	-0.245806	-6.68505	4.55105	1.54037
  10	1	1	-0.291525	-8.64862	3.00732	1.90225
  11	1	2	-0.003466	-8.62659	4.71503	0.615503
  12	1	2	0.0629	-7.99878	2.1852	2.2278
  13	1	2	0.058439	-9.55747	2.57385	1.46612
  14	1	2	0.076366	-8.94399	3.58161	2.78926
  15	1	2	0.061036	-6.22726	5.30234	0.886272
  16	1	2	0.060061	-5.92974	3.79104	1.77578
  17	1	2	0.042474	-6.96046	5.05751	2.47393
  18	1	2	-0.019174	-5.97355	4.33687	-1.15018
  19	1	1	-0.06457	-6.50081	2.9048	-2.6926
  20	1	1	0.061186	-5.47874	3.45433	-3.73629
  21	1	2	0.013749	-6.10093	1.9752	-2.2695
  22	1	2	0.012175	-7.43134	2.61633	-3.19271
  23	1	1	-0.029522	-5.3818	2.55431	-5.00922
  24	1	1	0.182537	-6.69237	2.3441	-5.8216
  25	1	2	0.017614	-5.00091	1.56434	-4.73342
  26	1	2	0.005524	-4.63343	2.99201	-5.68261
  27	1	1	-0.245806	-6.40587	1.49596	-7.07892
  28	1	1	-0.291525	-7.37255	3.66933	-6.23186
  29	1	2	-0.003466	-7.40223	1.77186	-5.21278
  30	1	2	0.0629	-7.7264	4.22368	-5.35446
  31	1	2	0.058439	-8.24567	3.47582	-6.8675
  32	1	2	0.076366	-6.67915	4.3102	-6.79071
  33	1	2	0.061036	-5.71397	2.01443	-7.75471
  34	1	2	0.060061	-7.3327	1.29215	-7.62975
  35	1	2	0.042474	-5.95965	0.531497	-6.80541
  36	1	2	-0.019174	-5.83943	4.42898	-4.07921
  37	1	1	-0.06457	-4.05839	3.73117	-3.14284
  38	1	1	0.061186	-3.30472	2.50172	-2.53253
  39	1	2	0.013749	-3.45609	4.17185	-3.94664
  40	1	2	0.012175	-4.11733	4.53099	-2.39459
  41	1	1	-0.029522	-1.79997	2.51607	-2.9342
  42	1	1	0.182537	-1.54186	2.11445	-4.41519
  43	1	2	0.017614	-1.22286	1.84182	-2.29029
  44	1	2	0.005524	-1.40052	3.52158	-2.74569
  45	1	1	-0.245806	-1.64315	0.585929	-4.62056
  46	1	1	-0.291525	-0.164735	2.6143	-4.89542
  47	1	2	-0.003466	-2.29178	2.58952	-5.05755
  48	1	2	0.0629	-0.00632428	2.36129	-5.95129
  49	1	2	0.058439	0.642215	2.15985	-4.31224
  50	1	2	0.076366	-0.0892272	3.70449	-4.79741
  51	1	2	0.061036	-1.4568	0.324153	-5.66955
  52	1	2	0.060061	-2.63873	0.210013	-4.35833
  53	1	2	0.042474	-0.905163	0.0575193	-4.00346
  54	1	2	-0.019174	-3.74534	1.60598	-2.96206
  55	1	1	-0.06457	-3.47728	2.45747	-0.980947
  56	1	1	0.061186	-3.1378	1.12351	-0.243285
  57	1	2	0.013749	-4.50518	2.71551	-0.718522
  58	1	2	0.012175	-2.85176	3.25891	-0.577057
  59	1	1	-0.029522	-3.98635	-0.0876348	-0.750931
  60	1	1	0.182537	-3.37829	-1.48596	-0.441132
  61	1	2	0.017614	-4.98955	-0.0163787	-0.30993
  62	1	2	0.005524	-4.14437	-0.050747	-1.83048
  63	1	1	-0.245806	-2.10456	-1.76706	-1.27318
  64	1	1	-0.291525	-4.41859	-2.59334	-0.709475
  65	1	2	-0.003466	-3.11072	-1.54344	0.619612
  66	1	2	0.0629	-5.31555	-2.44275	-0.0958089
  67	1	2	0.058439	-4.00756	-3.58089	-0.464626
  68	1	2	0.076366	-4.72189	-2.60084	-1.76416
  69	1	2	0.061036	-1.29228	-1.07756	-1.01736
  70	1	2	0.060061	-2.30888	-1.67166	-2.34702
  71	1	2	0.042474	-1.73792	-2.7847	-1.09064
  72	1	2	-0.019174	-2.08308	0.90211	-0.430519
  73	1	1	-0.06457	-3.34259	1.28315	1.30143
  74	1	1	0.061186	-2.14264	1.9193	2.07224
  75	1	2	0.013749	-4.25875	1.85509	1.49856
  76	1	2	0.012175	-3.56325	0.302928	1.72391
  77	1	1	-0.029522	-2.36068	3.45089	2.28319
  78	1	1	0.182537	-1.06044	4.28028	2.47806
  79	1	2	0.017614	-3.01078	3.59014	3.15696
  80	1	2	0.005524	-2.92066	3.88676	1.45081
  81	1	1	-0.245806	-0.241073	4.39602	1.17252
  82	1	1	-0.291525	-1.397	5.69257	3.00071
  83	1	2	-0.003466	-0.429947	3.7968	3.23345
  84	1	2	0.0629	-1.93314	5.63686	3.95644
  85	1	2	0.058439	-2.02643	6.23738	2.28564
  86	1	2	0.076366	-0.481604	6.27495	3.16425
  87	1	2	0.061036	0.0829673	3.41391	0.812168
  88	1	2	0.060061	0.660741	4.99951	1.33491
  89	1	2	0.042474	-0.830244	4.87298	0.379068
  90	1	2	-0.019174	-1.24266	1.77655	1.46677
  91	1	1	-0.06457	-1.88377	1.24662	3.46112
  92	1	1	0.061186	-1.55921	-0.281343	3.49222
  93	1	2	0.013749	-2.75803	1.42269	4.10185
  94	1	2	0.012175	-1.04995	1.77556	3.93354
  95	1	1	-0.029522	-1.4222	-0.808223	4.9604
  96	1	1	0.182537	-0.549585	-0.00950134	5.97473
  97	1	2	0.017614	-1.09799	-1.85405	4.95959
  98	1	2	0.005524	-2.43899	-0.83565	5.37419
  99	1	1	-0.245806	-0.65402	-0.656268	7.373
 100	1	1	-0.291525	0.938117	0.0949474	5.58096
 101	1	2	-0.003466	-0.950646	1.00715	6.06753
 102	1	2	0.0629	1.51345	0.581474	6.37855
 103	1	2	0.058439	1.07426	0.698453	4.67844
 104	1	2	0.076366	1.36685	-0.900204	5.41693
 105	1	2	0.061036	-0.250962	-1.67707	7.3653
 106	1	2	0.060061	-1.69869	-0.703415	7.70509
 107	1	2	0.042474	-0.0940149	-0.0739237	8.11556
 108	1	2	-0.019174	-2.44704	-0.793402	3.11278
 109	1	1	-0.06457	-0.398187	-0.667861	2.52013
 110	1	1	0.061186	0.112197	-2.14691	2.53547
 111	1	2	0.013749	0.439493	0.00616231	2.71465
 112	1	2	0.012175	-0.724236	-0.447311	1.4964
 113	1	1	-0.029522	-1.05507	-3.17381	2.36259
 114	1	1	0.182537	-0.731831	-4.64414	2.74923
 115	1	2	0.017614	-1.38623	-3.14419	1.31792
 116	1	2	0.005524	-1.92732	-2.88098	2.95418
 117	1	1	-0.245806	-0.585306	-4.82516	4.27784
 118	1	1	-0.291525	-1.83774	-5.58645	2.22845
 119	1	2	-0.003466	0.204308	-4.95554	2.27349
 120	1	2	0.0629	-1.926	-5.5184	1.13681
 121	1	2	0.058439	-2.81121	-5.33222	2.66685
 122	1	2	0.076366	-1.61071	-6.62962	2.48174
 123	1	2	0.061036	-1.51544	-4.55676	4.7946
 124	1	2	0.060061	0.219038	-4.20397	4.68635
 125	1	2	0.042474	-0.351985	-5.86903	4.52225
 126	1	2	-0.019174	0.590385	-2.31981	3.50392
 127	1	1	-0.06457	1.17929	-2.37784	1.41486
 128	1	1	0.061186	2.44397	-1.46811	1.43087
 129	1	2	0.013749	1.51169	-3.42044	1.41472
 130	1	2	0.012175	0.675611	-2.23807	0.449293
 131	1	1	-0.029522	3.30786	-1.58703	2.72611
 132	1	1	0.182537	4.01748	-2.95066	2.98685
 133	1	2	0.017614	2.69768	-1.32624	3.59617
 134	1	2	0.005524	4.06504	-0.79511	2.69185
 135	1	1	-0.245806	5.40268	-2.72915	3.6325
 136	1	1	-0.291525	3.18699	-3.8881	3.89008
 137	1	2	-0.003466	4.18577	-3.4694	2.0383
 138	1	2	0.0629	2.95578	-3.41035	4.85062
 139	1	2	0.058439	3.73706	-4.8147	4.09668
 140	1	2	0.076366	2.24649	-4.17091	3.41138
 141	1	2	0.061036	5.91433	-3.68592	3.79626
 142	1	2	0.060061	5.30788	-2.22143	4.60082
 143	1	2	0.042474	6.04181	-2.11607	2.9848
 144	1	2	-0.019174	2.08965	-0.434708	1.40061
 145	1	1	-0.06457	3.25011	-1.67746	0.110629
 146	1	1	0.061186	4.49273	-0.754661	-0.0931236
 147	1	2	0.013749	2.56962	-1.52902	-0.737244
 148	1	2	0.012175	3.55666	-2.72627	0.0390316
 149	1	1	-0.029522	4.15966	0.769082	-0.00319286
 150	1	1	0.182537	2.95586	1.30664	-0.835299
 151	1	2	0.017614	5.05877	1.34422	-0.260427
 152	1	2	0.005524	3.96725	1.00652	1.05072
 153	1	1	-0.245806	2.7409	2.80507	-0.535555
 154	1	1	-0.291525	3.10773	1.10945	-2.35786
 155	1	2	-0.003466	2.04173	0.787717	-0.524261
 156	1	2	0.0629	2.28079	1.59275	-2.88733
 157	1	2	0.058439	3.08463	0.0484577	-2.6287
 158	1	2	0.076366	4.04411	1.5485	-2.72355
 159	1	2	0.061036	1.85749	3.18531	-1.06389
 160	1	2	0.060061	3.60877	3.39769	-0.851263
 161	1	2	0.042474	2.58708	2.96976	0.538267
 162	1	2	-0.019174	5.18331	-0.945086	0.736575
 163	1	1	-0.06457	5.26958	-1.11675	-1.3991
 164	1	1	0.061186	6.57769	-1.93541	-1.18498
 165	1	2	0.013749	4.6032	-1.6563	-2.08288
 166	1	2	0.012175	5.54912	-0.191883	-1.91806
 167	1	1	-0.029522	7.47647	-1.91473	-2.46379
 168	1	1	0.182537	6.88012	-2.47788	-3.79159
 169	1	2	0.017614	8.43634	-2.40423	-2.25925
 170	1	2	0.005524	7.73747	-0.861783	-2.63388
 171	1	1	-0.245806	7.57857	-1.82558	-5.00545
 172	1	1	-0.291525	7.00715	-4.01294	-3.91819
 173	1	2	-0.003466	5.81896	-2.21533	-3.86282
 174	1	2	0.0629	6.64423	-4.34913	-4.89764
 175	1	2	0.058439	6.41656	-4.53717	-3.16248
 176	1	2	0.076366	8.05301	-4.33001	-3.82053
 177	1	2	0.061036	7.15142	-2.1948	-5.94641
 178	1	2	0.060061	8.6534	-2.04685	-5.00767
 179	1	2	0.042474	7.45267	-0.735523	-4.9904
 180	1	2	-0.019174	7.1519	-1.38838	-0.426388
 181	1	1	-0.06457	6.29489	-3.34628	-0.591354
 182	1	1	0.061186	7.53862	-4.22032	-0.292284
 183	1	2	0.013749	5.76309	-3.22596	0.357186
 184	1	2	0.012175	5.60752	-3.89492	-1.24436
 185	1	1	-0.029522	8.5091	-3.57243	0.726876
 186	1	1	0.182537	9.58381	-4.547	1.27444
 187	1	2	0.017614	7.92461	-3.18857	1.57291
 188	1	2	0.005524	9.00382	-2.70699	0.267751
 189	1	1	-0.245806	10.4218	-3.86181	2.37441
 190	1	1	-0.291525	10.5143	-5.08885	0.166769
 191	1	2	-0.003466	9.06983	-5.40139	1.734
 192	1	2	0.0629	9.95615	-5.67889	-0.569863
 193	1	2	0.058439	11.2839	-5.74319	0.59522
 194	1	2	0.076366	11.0191	-4.26841	-0.358621
 195	1	2	0.061036	10.9708	-3.00109	1.97191
 196	1	2	0.060061	11.15	-4.56254	2.80162
 197	1	2	0.042474	9.77941	-3.50704	3.19035
 198	1	2	-0.019174	8.06797	-4.45334	-1.22268
 199	1	2	0	-7.98832	5.7756	-1.28323
 200	1	2	0	7.18808	-5.17872	0.11175

Velocities

   1	-1.00317e-05	0.000112844	0.000295035
   2	-1.86388e-05	1.18142e-05	-3.11062e-05
   3	0.00019386	0.000532675	0.000685483
   4	0.000125418	0.000174426	-0.000160274
   5	0.000298327	-0.000158197	8.2717e-05
   6	0.000252002	-0.000163571	0.000101914
   7	0.000576055	7.73315e-05	5.42541e-05
   8	0.000415107	-0.000461168	0.000218414
   9	0.000265486	-0.000109869	-1.18824e-05
  10	0.000233154	-4.00645e-05	0.000194498
  11	0.000213946	-0.000201982	0.000124886
  12	8.17775e-05	-0.000116524	0.000196745
  13	9.56649e-05	9.51091e-05	0.000297083
  14	0.000355276	4.5467e-05	0.0001714
  15	2.71877e-05	8.20378e-05	-3.38757e-06
  16	0.000423947	1.00081e-05	-0.000284523
  17	0.000394223	-0.000269021	0.000106547
  18	9.37684e-05	-9.40878e-05	-0.000160887
  19	-0.000358292	0.000182676	-0.000326079
  20	-0.000174252	0.00016888	-0.000109327
  21	-0.000747119	-0.000123662	-0.000650945
  22	-0.000468453	0.000767045	-0.000487863
  23	-7.77609e-05	0.000123125	-7.97774e-05
  24	-2.67925e-05	0.000131614	-0.000176264
  25	-0.000222757	0.000128203	4.98641e-05
  26	2.41723e-05	4.2098e-05	-3.44941e-06
  27	0.000123253	6.66922e-05	-0.000112103
  28	5.52065e-06	9.13711e-05	-0.000270812
  29	-5.99987e-05	0.000139456	-0.000230601
  30	-6.48533e-05	0.000131907	-0.00032311
  31	2.96605e-05	5.2843e-05	-0.000327305
  32	2.26332e-05	7.48354e-05	-0.000258493
  33	0.000174486	7.26659e-05	-7.5375e-05
  34	0.000171237	1.69459e-05	-0.000190964
  35	0.000127016	0.000103504	-2.55285e-05
  36	-5.85268e-05	0.000219252	-8.46435e-05
  37	-0.000166621	-7.10253e-06	6.00783e-05
  38	-0.000264812	-8.51449e-05	1.70772e-05
  39	-9.22504e-05	4.56441e-05	0.000164672
  40	-0.000177844	-7.08722e-05	0.000112596
  41	-0.000217479	-0.000118434	3.86287e-05
  42	-0.000113281	2.58765e-05	1.3418e-05
  43	-0.000279722	-0.000194936	-9.18262e-06
  44	-0.000215249	-0.000155416	0.00014973
  45	-0.000292162	7.4274e-05	-0.000211019
  46	8.62293e-05	-0.000198869	0.000270209
  47	7.42713e-05	0.000254337	-3.23305e-05
  48	0.00015242	-3.44255e-05	0.000240977
  49	-0.000120739	-0.000554936	0.000263102
  50	0.000375287	-0.000252525	0.000502208
  51	-0.000228851	0.000198484	-0.000240408
  52	-0.000357014	0.00015826	-0.000339072
  53	-0.000399413	-0.000100324	-0.00023702
  54	-0.000292984	-7.29027e-05	2.46425e-05
  55	-0.000259897	-0.0001048	2.7968e-05
  56	-8.42223e-05	-5.97036e-05	9.04251e-05
  57	-0.000344769	-0.000333878	-3.36618e-05
  58	-0.000451073	-8.09689e-06	6.34176e-05
  59	1.53807e-05	-0.000100815	0.000159121
  60	4.11898e-05	-9.72475e-05	0.000267939
  61	-1.02821e-05	-0.000147224	0.000134701
  62	4.63766e-05	-0.000188195	0.00014797
  63	8.04054e-05	-0.000114523	0.000332887
  64	8.64537e-05	-0.000130137	0.000283649
  65	-1.11055e-06	-1.44291e-05	0.000287328
  66	5.12039e-05	-0.000122214	0.000233606
  67	0.000103559	-0.000107798	0.000350886
  68	0.000132757	-0.000190877	0.000267116
  69	7.28227e-05	-0.000114823	0.00036347
  70	0.000136819	-0.000135594	0.000320872
  71	5.24004e-05	-0.000120584	0.000369563
  72	-6.0324e-05	3.51987e-05	8.83893e-05
  73	-7.68558e-05	3.77739e-05	0.00010366
  74	-8.31425e-05	4.73595e-05	4.88188e-05
  75	-6.29348e-05	6.35454e-05	6.71891e-05
  76	-0.000124134	5.69279e-05	0.000163051
  77	-0.000115463	4.60702e-05	0.000118339
  78	-0.000127983	0.000119165	-9.66487e-05
  79	1.56445e-05	2.58017e-05	0.000207448
  80	-0.000253066	-6.71501e-07	0.000188631
  81	-0.000236767	-3.84442e-05	-0.000166778
  82	-0.000128524	0.000200767	-0.00029257
  83	-7.82886e-05	0.000245731	-5.9843e-05
  84	-0.000122933	0.000366363	-0.000282822
  85	-0.000117608	0.000109179	-0.000377083
  86	-0.000113517	0.000224649	-0.000384471
  87	-0.000176885	-5.97881e-05	-3.55453e-05
  88	-0.000268247	6.87532e-05	-0.000345259
  89	-0.000340595	-0.000211835	-0.000202658
  90	-0.000103369	7.99092e-05	4.03187e-05
  91	6.31499e-05	1.72671e-05	5.61205e-05
  92	1.45256e-05	1.78862e-05	-4.06338e-05
  93	0.000140148	5.55505e-05	0.000161576
  94	0.000151246	-1.01702e-05	-6.07481e-05
  95	3.8672e-05	-7.35821e-05	-1.38878e-05
  96	3.89008e-05	-9.37389e-05	-2.40059e-05
  97	4.51374e-05	-5.96687e-05	-8.05965e-05
  98	2.87339e-05	-0.000100203	-2.88789e-05
  99	-0.000156611	2.80078e-05	2.71603e-05
 100	7.6336e-05	-0.0003172	7.0801e-05
 101	0.000154445	-4.6426e-05	-0.000126735
 102	6.97802e-05	-0.000293485	4.20438e-05
 103	0.000207959	-0.000447817	5.49656e-06
 104	-2.77954e-05	-0.000385581	0.000210383
 105	-0.000325641	-3.34566e-05	0.000131974
 106	-0.000180854	0.000229168	-4.80835e-05
 107	-0.000116585	-6.03977e-06	1.48109e-07
 108	-2.12086e-05	3.03737e-05	-5.43418e-06
 109	-3.37859e-05	8.39621e-06	-5.50433e-05
 110	-8.66436e-06	2.42568e-05	-9.62451e-05
 111	-4.33458e-05	5.16686e-05	-9.04437e-05
 112	-8.47157e-05	3.85663e-05	-4.76755e-05
 113	-5.27265e-06	1.12661e-05	-2.67703e-05
 114	4.08975e-05	1.61876e-05	-7.59149e-05
 115	-6.00439e-05	3.21732e-05	-1.2332e-05
 116	3.46867e-05	9.41561e-06	1.8424e-05
 117	0.00011688	-1.29136e-05	-8.40154e-05
 118	8.77804e-06	2.56169e-05	-5.93873e-05
 119	7.40546e-06	3.53944e-05	-0.000128538
 120	-5.29614e-05	8.18318e-05	-4.09945e-05
 121	3.66044e-05	-9.15418e-06	2.16081e-05
 122	4.97448e-05	1.802e-05	-0.000119628
 123	0.000157266	2.29147e-05	-2.35741e-05
 124	0.000172808	-6.01945e-05	-0.000130393
 125	7.546e-05	-3.56614e-05	-0.000121212
 126	3.02898e-05	3.28379e-05	-0.000106704
 127	-3.72108e-05	6.00851e-05	-0.000136874
 128	-5.17385e-05	8.70169e-05	-0.000113157
 129	-1.87262e-05	5.22394e-05	-0.000134968
 130	-5.55983e-05	5.64627e-05	-0.000121915
 131	-9.22036e-05	8.18211e-05	-9.64152e-05
 132	-1.09164e-05	8.75102e-05	-0.00015235
 133	-0.000110507	-1.61983e-05	-7.584e-05
 134	-0.000135725	0.000118132	-3.15088e-05
 135	-5.7498e-06	0.000129671	-0.000169637
 136	6.67332e-05	-5.11573e-06	-0.00020611
 137	5.39653e-07	0.000137876	-0.000181002
 138	5.81664e-05	-7.70007e-05	-0.000157952
 139	0.000110791	8.75516e-06	-0.000273435
 140	6.20622e-05	-1.90849e-05	-0.000200956
 141	7.71864e-05	0.000142556	-0.000307642
 142	-2.28399e-05	-1.08291e-05	-9.31558e-05
 143	-7.31538e-05	0.000265491	-0.00010493
 144	-8.48973e-05	8.93064e-05	-0.000111364
 145	-3.1422e-05	0.000150304	-9.97895e-05
 146	-5.79937e-05	0.000145085	1.23384e-05
 147	-1.93953e-05	0.000158539	-8.82128e-05
 148	-3.5348e-05	0.000150663	-0.00010724
 149	-4.63417e-05	0.000173636	-8.89407e-05
 150	6.36914e-05	0.000200987	-0.000219188
 151	-1.6553e-05	0.000145126	-1.55888e-05
 152	-0.000144509	0.000202045	-0.000106643
 153	-1.82092e-05	0.000201029	-0.000134706
 154	0.000320423	0.000360252	-0.00020776
 155	1.55827e-05	0.000160944	-0.000388784
 156	0.000508133	0.000566394	-0.00032035
 157	0.000190634	0.000380211	-0.000332366
 158	0.000455383	0.000238176	1.69958e-05
 159	6.13228e-05	0.000227496	-0.000257303
 160	2.33304e-05	0.000232531	5.79446e-05
 161	-0.000206368	0.000113432	-0.000153603
 162	-0.000116737	0.000189037	4.92365e-05
 163	6.31971e-05	7.8575e-05	8.55668e-05
 164	-3.19255e-05	-1.4486e-05	0.000240838
 165	8.16712e-05	0.000142483	3.12941e-05
 166	0.000172461	6.02102e-05	0.000143445
 167	5.84948e-05	-0.000130414	0.000320491
 168	0.000115436	-0.000222241	0.000368835
 169	6.02081e-05	-8.21555e-05	0.000426578
 170	7.05928e-05	-0.000139445	0.000306107
 171	0.000222091	-0.000258773	0.00044263
 172	2.28225e-05	-0.000250013	0.00032095
 173	0.000111939	-0.000202837	0.000299113
 174	-4.83813e-05	-0.000175161	0.000339306
 175	2.25231e-05	-0.000289473	0.00028442
 176	2.51876e-06	-0.000334069	0.00025326
 177	0.000345485	-0.000269137	0.00041239
 178	0.000225611	-0.000237023	0.000621444
 179	0.00019118	-0.000252731	0.000444315
 180	-8.86327e-05	-5.92998e-05	0.000305351
 181	-2.27838e-05	-7.11782e-05	7.60048e-05
 182	-3.02166e-05	-0.000106319	-3.1728e-05
 183	-7.9593e-05	-0.000193553	8.27877e-05
 184	-3.4842e-05	9.59679e-06	-9.69333e-06
 185	-8.79953e-05	-0.000219757	7.46292e-05
 186	0.000106931	-0.000120935	-0.000158329
 187	-0.000166409	-0.000543239	0.000199624
 188	-0.000264437	1.53847e-05	0.000328261
 189	4.56735e-05	-7.45885e-05	-0.00015486
 190	0.000148444	0.000115243	-0.000250642
 191	0.000304682	-0.000242794	-0.000249311
 192	0.000226735	2.13496e-05	-0.000236504
 193	0.000305276	0.000234878	-0.000341368
 194	-2.75218e-05	0.000198943	-0.000286092
 195	-0.000138323	7.64988e-05	-0.000107006
 196	0.000184478	2.49455e-05	-0.000215532
 197	-5.3636e-06	-0.00026981	-0.000123267
 198	1.63117e-05	7.37642e-05	-7.73828e-05
 199	-0.000274187	-0.000244626	0.00056532
 200	3.5715e-05	-0.000183217	-0.000219335

Bonds

   1	2	1	2
   2	1	1	3
   3	1	1	4
   4	2	2	5
   5	1	2	18
   6	2	5	6
   7	1	5	7
   8	1	5	8
   9	2	6	9
  10	2	6	10
  11	1	6	11
  12	1	9	15
  13	1	9	16
  14	1	9	17
  15	1	10	12
  16	1	10	13
  17	1	10	14
  18	2	19	20
  19	1	19	21
  20	1	19	22
  21	2	20	23
  22	1	20	36
  23	2	23	24
  24	1	23	25
  25	1	23	26
  26	2	24	27
  27	2	24	28
  28	1	24	29
  29	1	27	33
  30	1	27	34
  31	1	27	35
  32	1	28	30
  33	1	28	31
  34	1	28	32
  35	2	2	19
  36	2	37	38
  37	1	37	39
  38	1	37	40
  39	2	38	41
  40	1	38	54
  41	2	41	42
  42	1	41	43
  43	1	41	44
  44	2	42	45
  45	2	42	46
  46	1	42	47
  47	1	45	51
  48	1	45	52
  49	1	45	53
  50	1	46	48
  51	1	46	49
  52	1	46	50
  53	2	20	37
  54	2	55	56
  55	1	55	57
  56	1	55	58
  57	2	56	59
  58	1	56	72
  59	2	59	60
  60	1	59	61
  61	1	59	62
  62	2	60	63
  63	2	60	64
  64	1	60	65
  65	1	63	69
  66	1	63	70
  67	1	63	71
  68	1	64	66
  69	1	64	67
  70	1	64	68
  71	2	38	55
  72	2	73	74
  73	1	73	75
  74	1	73	76
  75	2	74	77
  76	1	74	90
  77	2	77	78
  78	1	77	79
  79	1	77	80
  80	2	78	81
  81	2	78	82
  82	1	78	83
  83	1	81	87
  84	1	81	88
  85	1	81	89
  86	1	82	84
  87	1	82	85
  88	1	82	86
  89	2	56	73
  90	2	91	92
  91	1	91	93
  92	1	91	94
  93	2	92	95
  94	1	92	108
  95	2	95	96
  96	1	95	97
  97	1	95	98
  98	2	96	99
  99	2	96	100
 100	1	96	101
 101	1	99	105
 102	1	99	106
 103	1	99	107
 104	1	100	102
 105	1	100	103
 106	1	100	104
 107	2	74	91
 108	2	109	110
 109	1	109	111
 110	1	109	112
 111	2	110	113
 112	1	110	126
 113	2	113	114
 114	1	113	115
 115	1	113	116
 116	2	114	117
 117	2	114	118
 118	1	114	119
 119	1	117	123
 120	1	117	124
 121	1	117	125
 122	1	118	120
 123	1	118	121
 124	1	118	122
 125	2	92	109
 126	2	127	128
 127	1	127	129
 128	1	127	130
 129	2	128	131
 130	1	128	144
 131	2	131	132
 132	1	131	133
 133	1	131	134
 134	2	132	135
 135	2	132	136
 136	1	132	137
 137	1	135	141
 138	1	135	142
 139	1	135	143
 140	1	136	138
 141	1	136	139
 142	1	136	140
 143	2	110	127
 144	2	145	146
 145	1	145	147
 146	1	145	148
 147	2	146	149
 148	1	146	162
 149	2	149	150
 150	1	149	151
 151	1	149	152
 152	2	150	153
 153	2	150	154
 154	1	150	155
 155	1	153	159
 156	1	153	160
 157	1	153	161
 158	1	154	156
 159	1	154	157
 160	1	154	158
 161	2	128	145
 162	2	163	164
 163	1	163	165
 164	1	163	166
 165	2	164	167
 166	1	164	180
 167	2	167	168
 168	1	167	169
 169	1	167	170
 170	2	168	171
 171	2	168	172
 172	1	168	173
 173	1	171	177
 174	1	171	178
 175	1	171	179
 176	1	172	174
 177	1	172	175
 178	1	172	176
 179	2	146	163
 180	2	181	182
 181	1	181	183
 182	1	181	184
 183	2	182	185
 184	1	182	198
 185	2	185	186
 186	1	185	187
 187	1	185	188
 188	2	186	189
 189	2	186	190
 190	1	186	191
 191	1	189	195
 192	1	189	196
 193	1	189	197
 194	1	190	192
 195	1	190	193
 196	1	190	194
 197	2	164	181
 198	1	1	199
 199	1	182	200

Angles

   1	1	2	1	3
   2	1	2	1	4
   3	2	3	1	4
   4	3	1	2	5
   5	1	1	2	18
   6	1	5	2	18
   7	3	2	5	6
   8	1	2	5	7
   9	1	2	5	8
  10	1	6	5	7
  11	1	6	5	8
  12	2	7	5	8
  13	3	5	6	9
  14	3	5	6	10
  15	1	5	6	11
  16	3	9	6	10
  17	1	9	6	11
  18	1	10	6	11
  19	1	6	9	15
  20	1	6	9	16
  21	1	6	9	17
  22	2	15	9	16
  23	2	15	9	17
  24	2	16	9	17
  25	1	6	10	12
  26	1	6	10	13
  27	1	6	10	14
  28	2	12	10	13
  29	2	12	10	14
  30	2	13	10	14
  31	1	20	19	21
  32	1	20	19	22
  33	2	21	19	22
  34	3	19	20	23
  35	1	19	20	36
  36	1	23	20	36
  37	3	20	23	24
  38	1	20	23	25
  39	1	20	23	26
  40	1	24	23	25
  41	1	24	23	26
  42	2	25	23	26
  43	3	23	24	27
  44	3	23	24	28
  45	1	23	24	29
  46	3	27	24	28
  47	1	27	24	29
  48	1	28	24	29
  49	1	24	27	33
  50	1	24	27	34
  51	1	24	27	35
  52	2	33	27	34
  53	2	33	27	35
  54	2	34	27	35
  55	1	24	28	30
  56	1	24	28	31
  57	1	24	28	32
  58	2	30	28	31
  59	2	30	28	32
  60	2	31	28	32
  61	3	1	2	19
  62	3	5	2	19
  63	1	18	2	19
  64	3	2	19	20
  65	1	2	19	21
  66	1	2	19	22
  67	1	38	37	39
  68	1	38	37	40
  69	2	39	37	40
  70	3	37	38	41
  71	1	37	38	54
  72	1	41	38	54
  73	3	38	41	42
  74	1	38	41	43
  75	1	38	41	44
  76	1	42	41	43
  77	1	42	41	44
  78	2	43	41	44
  79	3	41	42	45
  80	3	41	42	46
  81	1	41	42	47
  82	3	45	42	46
  83	1	45	42	47
  84	1	46	42	47
  85	1	42	45	51
  86	1	42	45	52
  87	1	42	45	53
  88	2	51	45	52
  89	2	51	45	53
  90	2	52	45	53
  91	1	42	46	48
  92	1	42	46	49
  93	1	42	46	50
  94	2	48	46	49
  95	2	48	46	50
  96	2	49	46	50
  97	3	19	20	37
  98	3	23	20	37
  99	1	36	20	37
 100	3	20	37	38
 101	1	20	37	39
 102	1	20	37	40
 103	1	56	55	57
 104	1	56	55	58
 105	2	57	55	58
 106	3	55	56	59
 107	1	55	56	72
 108	1	59	56	72
 109	3	56	59	60
 110	1	56	59	61
 111	1	56	59	62
 112	1	60	59	61
 113	1	60	59	62
 114	2	61	59	62
 115	3	59	60	63
 116	3	59	60	64
 117	1	59	60	65
 118	3	63	60	64
 119	1	63	60	65
 120	1	64	60	65
 121	1	60	63	69
 122	1	60	63	70
 123	1	60	63	71
 124	2	69	63	70
 125	2	69	63	71
 126	2	70	63	71
 127	1	60	64	66
 128	1	60	64	67
 129	1	60	64	68
 130	2	66	64	67
 131	2	66	64	68
 132	2	67	64	68
 133	3	37	38	55
 134	3	41	38	55
 135	1	54	38	55
 136	3	38	55	56
 137	1	38	55	57
 138	1	38	55	58
 139	1	74	73	75
 140	1	74	73	76
 141	2	75	73	76
 142	3	73	74	77
 143	1	73	74	90
 144	1	77	74	90
 145	3	74	77	78
 146	1	74	77	79
 147	1	74	77	80
 148	1	78	77	79
 149	1	78	77	80
 150	2	79	77	80
 151	3	77	78	81
 152	3	77	78	82
 153	1	77	78	83
 154	3	81	78	82
 155	1	81	78	83
 156	1	82	78	83
 157	1	78	81	87
 158	1	78	81	88
 159	1	78	81	89
 160	2	87	81	88
 161	2	87	81	89
 162	2	88	81	89
 163	1	78	82	84
 164	1	78	82	85
 165	1	78	82	86
 166	2	84	82	85
 167	2	84	82	86
 168	2	85	82	86
 169	3	55	56	73
 170	3	59	56	73
 171	1	72	56	73
 172	3	56	73	74
 173	1	56	73	75
 174	1	56	73	76
 175	1	92	91	93
 176	1	92	91	94
 177	2	93	91	94
 178	3	91	92	95
 179	1	91	92	108
 180	1	95	92	108
 181	3	92	95	96
 182	1	92	95	97
 183	1	92	95	98
 184	1	96	95	97
 185	1	96	95	98
 186	2	97	95	98
 187	3	95	96	99
 188	3	95	96	100
 189	1	95	96	101
 190	3	99	96	100
 191	1	99	96	101
 192	1	100	96	101
 193	1	96	99	105
 194	1	96	99	106
 195	1	96	99	107
 196	2	105	99	106
 197	2	105	99	107
 198	2	106	99	107
 199	1	96	100	102
 200	1	96	100	103
 201	1	96	100	104
 202	2	102	100	103
 203	2	102	100	104
 204	2	103	100	104
 205	3	73	74	91
 206	3	77	74	91
 207	1	90	74	91
 208	3	74	91	92
 209	1	74	91	93
 210	1	74	91	94
 211	1	110	109	111
 212	1	110	109	112
 213	2	111	109	112
 214	3	109	110	113
 215	1	109	110	126
 216	1	113	110	126
 217	3	110	113	114
 218	1	110	113	115
 219	1	110	113	116
 220	1	114	113	115
 221	1	114	113	116
 222	2	115	113	116
 223	3	113	114	117
 224	3	113	114	118
 225	1	113	114	119
 226	3	117	114	118
 227	1	117	114	119
 228	1	118	114	119
 229	1	114	117	123
 230	1	114	117	124
 231	1	114	117	125
 232	2	123	117	124
 233	2	123	117	125
 234	2	124	117	125
 235	1	114	118	120
 236	1	114	118	121
 237	1	114	118	122
 238	2	120	118	121
 239	2	120	118	122
 240	2	121	118	122
 241	3	91	92	109
 242	3	95	92	109
 243	1	108	92	109
 244	3	92	109	110
 245	1	92	109	111
 246	1	92	109	112
 247	1	128	127	129
 248	1	128	127	130
 249	2	129	127	130
 250	3	127	128	131
 251	1	127	128	144
 252	1	131	128	144
 253	3	128	131	132
 254	1	128	131	133
 255	1	128	131	134
 256	1	132	131	133
 257	1	132	131	134
 258	2	133	131	134
 259	3	131	132	135
 260	3	131	132	136
 261	1	131	132	137
 262	3	135	132	136
 263	1	135	132	137
 264	1	136	132	137
 265	1	132	135	141
 266	1	132	135	142
 267	1	132	135	143
 268	2	141	135	142
 269	2	141	135	143
 270	2	142	135	143
 271	1	132	136	138
 272	1	132	136	139
 273	1	132	136	140
 274	2	138	136	139
 275	2	138	136	140
 276	2	139	136	140
 277	3	109	110	127
 278	3	113	110	127
 279	1	126	110	127
 280	3	110	127	128
 281	1	110	127	129
 282	1	110	127	130
 283	1	146	145	147
 284	1	146	145	148
 285	2	147	145	148
 286	3	145	146	149
 287	1	145	146	162
 288	1	149	146	162
 289	3	146	149	150
 290	1	146	149	151
 291	1	146	149	152
 292	1	150	149	151
 293	1	150	149	152
 294	2	151	149	152
 295	3	149	150	153
 296	3	149	150	154
 297	1	149	150	155
 298	3	153	150	154
 299	1	153	150	155
 300	1	154	150	155
 301	1	150	153	159
 302	1	150	153	160
 303	1	150	153	161
 304	2	159	153	160
 305	2	159	153	161
 306	2	160	153	161
 307	1	150	154	156
 308	1	150	154	157
 309	1	150	154	158
 310	2	156	154	157
 311	2	156	154	158
 312	2	157	154	158
 313	3	127	128	145
 314	3	131	128	145
 315	1	144	128	145
 316	3	128	145	146
 317	1	128	145	147
 318	1	128	145	148
 319	1	164	163	165
 320	1	164	163	166
 321	2	165	163	166
 322	3	163	164	167
 323	1	163	164	180
 324	1	167	164	180
 325	3	164	167	168
 326	1	164	167	169
 327	1	164	167	170
 328	1	168	167	169
 329	1	168	167	170
 330	2	169	167	170
 331	3	167	168	171
 332	3	167	168	172
 333	1	167	168	173
 334	3	171	168	172
 335	1	171	168	173
 336	1	172	168	173
 337	1	168	171	177
 338	1	168	171	178
 339	1	168	171	179
 340	2	177	171	178
 341	2	177	171	179
 342	2	178	171	179
 343	1	168	172	174
 344	1	168	172	175
 345	1	168	172	176
 346	2	174	172	175
 347	2	174	172	176
 348	2	175	172	176
 349	3	145	146	163
 350	3	149	146	163
 351	1	162	146	163
 352	3	146	163	164
 353	1	146	163	165
 354	1	146	163	166
 355	1	182	181	183
 356	1	182	181	184
 357	2	183	181	184
 358	3	181	182	185
 359	1	181	182	198
 360	1	185	182	198
 361	3	182	185	186
 362	1	182	185	187
 363	1	182	185	188
 364	1	186	185	187
 365	1	186	185	188
 366	2	187	185	188
 367	3	185	186	189
 368	3	185	186	190
 369	1	185	186	191
 370	3	189	186	190
 371	1	189	186	191
 372	1	190	186	191
 373	1	186	189	195
 374	1	186	189	196
 375	1	186	189	197
 376	2	195	189	196
 377	2	195	189	197
 378	2	196	189	197
 379	1	186	190	192
 380	1	186	190	193
 381	1	186	190	194
 382	2	192	190	193
 383	2	192	190	194
 384	2	193	190	194
 385	3	163	164	181
 386	3	167	164	181
 387	1	180	164	181
 388	3	164	181	182
 389	1	164	181	183
 390	1	164	181	184
 391	1	2	1	199
 392	2	3	1	199
 393	2	4	1	199
 394	1	181	182	200
 395	1	185	182	200
 396	2	198	182	200

Dihedrals

   1	1	3	1	2	5
   2	2	3	1	2	18
   3	1	4	1	2	5
   4	2	4	1	2	18
   5	3	1	2	5	6
   6	1	1	2	5	7
   7	1	1	2	5	8
   8	1	18	2	5	6
   9	2	18	2	5	7
  10	2	18	2	5	8
  11	3	2	5	6	9
  12	3	2	5	6	10
  13	1	2	5	6	11
  14	1	7	5	6	9
  15	1	7	5	6	10
  16	2	7	5	6	11
  17	1	8	5	6	9
  18	1	8	5	6	10
  19	2	8	5	6	11
  20	1	5	6	9	15
  21	1	5	6	9	16
  22	1	5	6	9	17
  23	1	10	6	9	15
  24	1	10	6	9	16
  25	1	10	6	9	17
  26	2	11	6	9	15
  27	2	11	6	9	16
  28	2	11	6	9	17
  29	1	5	6	10	12
  30	1	5	6	10	13
  31	1	5	6	10	14
  32	1	9	6	10	12
  33	1	9	6	10	13
  34	1	9	6	10	14
  35	2	11	6	10	12
  36	2	11	6	10	13
  37	2	11	6	10	14
  38	1	21	19	20	23
  39	2	21	19	20	36
  40	1	22	19	20	23
  41	2	22	19	20	36
  42	3	19	20	23	24
  43	1	19	20	23	25
  44	1	19	20	23	26
  45	1	36	20	23	24
  46	2	36	20	23	25
  47	2	36	20	23	26
  48	3	20	23	24	27
  49	3	20	23	24	28
  50	1	20	23	24	29
  51	1	25	23	24	27
  52	1	25	23	24	28
  53	2	25	23	24	29
  54	1	26	23	24	27
  55	1	26	23	24	28
  56	2	26	23	24	29
  57	1	23	24	27	33
  58	1	23	24	27	34
  59	1	23	24	27	35
  60	1	28	24	27	33
  61	1	28	24	27	34
  62	1	28	24	27	35
  63	2	29	24	27	33
  64	2	29	24	27	34
  65	2	29	24	27	35
  66	1	23	24	28	30
  67	1	23	24	28	31
  68	1	23	24	28	32
  69	1	27	24	28	30
  70	1	27	24	28	31
  71	1	27	24	28	32
  72	2	29	24	28	30
  73	2	29	24	28	31
  74	2	29	24	28	32
  75	1	3	1	2	19
  76	1	4	1	2	19
  77	3	6	5	2	19
  78	1	7	5	2	19
  79	1	8	5	2	19
  80	3	2	19	20	23
  81	1	2	19	20	36
  82	3	1	2	19	20
  83	1	1	2	19	21
  84	1	1	2	19	22
  85	3	5	2	19	20
  86	1	5	2	19	21
  87	1	5	2	19	22
  88	1	18	2	19	20
  89	2	18	2	19	21
  90	2	18	2	19	22
  91	1	39	37	38	41
  92	2	39	37	38	54
  93	1	40	37	38	41
  94	2	40	37	38	54
  95	3	37	38	41	42
  96	1	37	38	41	43
  97	1	37	38	41	44
  98	1	54	38	41	42
  99	2	54	38	41	43
 100	2	54	38	41	44
 101	3	38	41	42	45
 102	3	38	41	42	46
 103	1	38	41	42	47
 104	1	43	41	42	45
 105	1	43	41	42	46
 106	2	43	41	42	47
 107	1	44	41	42	45
 108	1	44	41	42	46
 109	2	44	41	42	47
 110	1	41	42	45	51
 111	1	41	42	45	52
 112	1	41	42	45	53
 113	1	46	42	45	51
 114	1	46	42	45	52
 115	1	46	42	45	53
 116	2	47	42	45	51
 117	2	47	42	45	52
 118	2	47	42	45	53
 119	1	41	42	46	48
 120	1	41	42	46	49
 121	1	41	42	46	50
 122	1	45	42	46	48
 123	1	45	42	46	49
 124	1	45	42	46	50
 125	2	47	42	46	48
 126	2	47	42	46	49
 127	2	47	42	46	50
 128	1	21	19	20	37
 129	1	22	19	20	37
 130	3	2	19	20	37
 131	3	24	23	20	37
 132	1	25	23	20	37
 133	1	26	23	20	37
 134	3	20	37	38	41
 135	1	20	37	38	54
 136	3	19	20	37	38
 137	1	19	20	37	39