pySIMM System Object

614 atoms
613 bonds
1224 angles
1827 dihedrals
0 impropers

2 atom types
2 bond types
3 angle types
3 dihedral types

-104.869094 104.869094 xlo xhi
-104.869094 104.869094 ylo yhi
-104.869094 104.869094 zlo zhi

Masses

   1	12.01	# c3
   2	1.008	# hc

Pair Coeffs

   1	0.1094	3.3996695084235347	# c3
   2	0.0157	2.649532787749369	# hc

Bond Coeffs

   1	330.6	1.0969	# c3,hc
   2	300.9	1.5375	# c3,c3

Angle Coeffs

   1	46.34	109.8	# c3,c3,hc
   2	39.4	107.58	# hc,c3,hc
   3	62.86	111.51	# c3,c3,c3

Dihedral Coeffs

   1	1	0.16	3	0	# hc,c3,c3,c3
   2	1	0.15	3	0	# hc,c3,c3,hc
   3	3	0.18	3	0	0.25	2	180	0.2	1	180	# c3,c3,c3,c3

Atoms

   1	1	1	-0.06457	6.13621	13.3415	5.58371
   2	1	1	0.061186	7.08858	12.2382	5.05649
   3	1	2	0.013749	5.13627	12.9422	5.78973
   4	1	2	0.012175	6.52225	13.7801	6.51268
   5	1	1	-0.029522	8.52849	12.7742	4.81561
   6	1	1	0.182537	8.66822	13.9458	3.80403
   7	1	2	0.017614	9.15181	11.9433	4.45984
   8	1	2	0.005524	8.95238	13.0881	5.77867
   9	1	1	-0.245806	8.11803	13.5955	2.40282
  10	1	1	-0.291525	10.1474	14.3709	3.68713
  11	1	2	-0.003466	8.1131	14.8124	4.18354
  12	1	2	0.0629	10.7627	13.5524	3.29259
  13	1	2	0.058439	10.5484	14.66	4.6668
  14	1	2	0.076366	10.2525	15.2315	3.01474
  15	1	2	0.061036	7.03457	13.4298	2.43041
  16	1	2	0.060061	8.59672	12.6907	2.00748
  17	1	2	0.042474	8.30423	14.4153	1.69765
  18	1	2	-0.019174	6.71291	11.887	4.09107
  19	1	1	-0.06457	7.14097	11.0248	6.02904
  20	1	1	0.061186	5.82214	10.2022	6.22615
  21	1	2	0.013749	7.95456	10.3571	5.72829
  22	1	2	0.012175	7.45424	11.4048	7.00993
  23	1	1	-0.029522	6.08516	8.84708	6.94971
  24	1	1	0.182537	6.83555	8.92618	8.30862
  25	1	2	0.017614	6.6694	8.20051	6.28476
  26	1	2	0.005524	5.12517	8.33724	7.10711
  27	1	1	-0.245806	7.1015	7.50627	8.84814
  28	1	1	-0.291525	6.07038	9.74969	9.36796
  29	1	2	-0.003466	7.8145	9.39509	8.1503
  30	1	2	0.0629	5.97623	10.7996	9.06674
  31	1	2	0.058439	6.60025	9.73142	10.3286
  32	1	2	0.076366	5.06318	9.34451	9.52741
  33	1	2	0.061036	6.15893	6.98625	9.05739
  34	1	2	0.060061	7.68414	7.54449	9.77714
  35	1	2	0.042474	7.66768	6.91171	8.12021
  36	1	2	-0.019174	5.20885	10.8066	6.90543
  37	1	1	-0.06457	4.90455	10.0016	4.96946
  38	1	1	0.061186	5.23067	8.86815	3.93779
  39	1	2	0.013749	3.91306	9.78274	5.38215
  40	1	2	0.012175	4.77026	10.9492	4.43732
  41	1	1	-0.029522	4.17541	8.855	2.78594
  42	1	1	0.182537	2.68801	8.6767	3.20254
  43	1	2	0.017614	4.41485	8.05298	2.08126
  44	1	2	0.005524	4.26638	9.78989	2.21723
  45	1	1	-0.245806	2.45895	7.40811	4.04938
  46	1	1	-0.291525	1.78218	8.63033	1.95354
  47	1	2	-0.003466	2.37253	9.54595	3.79201
  48	1	2	0.0629	0.725869	8.55544	2.24131
  49	1	2	0.058439	2.02528	7.76639	1.32171
  50	1	2	0.076366	1.9026	9.53974	1.3517
  51	1	2	0.061036	1.39441	7.28465	4.27103
  52	1	2	0.060061	2.98764	7.46108	5.008
  53	1	2	0.042474	2.80052	6.5165	3.5106
  54	1	2	-0.019174	5.15985	7.91309	4.46658
  55	1	1	-0.06457	6.66607	8.98869	3.34388
  56	1	1	0.061186	7.21717	7.7739	2.53703
  57	1	2	0.013749	7.37978	9.14608	4.14937
  58	1	2	0.012175	6.70247	9.89129	2.71994
  59	1	1	-0.029522	7.44619	6.53253	3.46465
  60	1	1	0.182537	6.94827	5.17283	2.90004
  61	1	2	0.017614	8.5144	6.45446	3.7035
  62	1	2	0.005524	6.96728	6.68341	4.43799
  63	1	1	-0.245806	5.40874	5.10175	2.80164
  64	1	1	-0.291525	7.46079	4.00803	3.77015
  65	1	2	-0.003466	7.3613	5.02775	1.89761
  66	1	2	0.0629	8.55412	3.9798	3.75284
  67	1	2	0.058439	7.09749	3.04413	3.39202
  68	1	2	0.076366	7.13538	4.11514	4.81181
  69	1	2	0.061036	4.94458	5.31243	3.77262
  70	1	2	0.060061	5.08595	4.10375	2.47975
  71	1	2	0.042474	5.02131	5.81861	2.07047
  72	1	2	-0.019174	6.50272	7.52808	1.7473
  73	1	1	-0.06457	8.53808	8.2475	1.85559
  74	1	1	0.061186	9.3264	7.21221	0.994154
  75	1	2	0.013749	8.32413	9.12225	1.22715
  76	1	2	0.012175	9.17851	8.60975	2.6658
  77	1	1	-0.029522	8.47601	6.74724	-0.229175
  78	1	1	0.182537	9.11141	5.65642	-1.13861
  79	1	2	0.017614	8.24863	7.62532	-0.847803
  80	1	2	0.005524	7.50724	6.37141	0.115122
  81	1	1	-0.245806	9.50853	4.378	-0.365274
  82	1	1	-0.291525	8.14233	5.28994	-2.28225
  83	1	2	-0.003466	10.0151	6.06539	-1.60667
  84	1	2	0.0629	7.88356	6.17749	-2.87317
  85	1	2	0.058439	7.21351	4.85808	-1.88809
  86	1	2	0.076366	8.59877	4.5573	-2.95951
  87	1	2	0.061036	10.2923	4.58387	0.372794
  88	1	2	0.060061	9.9012	3.61833	-1.05256
  89	1	2	0.042474	8.64512	3.947	0.15632
  90	1	2	-0.019174	9.52372	6.33689	1.6215
  91	1	1	-0.06457	10.7089	7.77447	0.520244
  92	1	1	0.061186	11.6277	8.44397	1.59382
  93	1	2	0.013749	10.5237	8.51183	-0.271887
  94	1	2	0.012175	11.2569	6.9579	0.0478473
  95	1	1	-0.029522	12.9268	9.04921	0.971742
  96	1	1	0.182537	14.1682	8.12852	0.762361
  97	1	2	0.017614	13.2438	9.87229	1.62516
  98	1	2	0.005524	12.6717	9.52675	0.0166183
  99	1	1	-0.245806	13.9263	6.92606	-0.175608
 100	1	1	-0.291525	15.3494	8.96392	0.224351
 101	1	2	-0.003466	14.4848	7.73371	1.73231
 102	1	2	0.0629	16.2531	8.34854	0.131481
 103	1	2	0.058439	15.5809	9.7952	0.902186
 104	1	2	0.076366	15.1172	9.38143	-0.763635
 105	1	2	0.061036	13.2803	6.17776	0.296054
 106	1	2	0.060061	14.8722	6.42214	-0.410422
 107	1	2	0.042474	13.4698	7.24637	-1.12065
 108	1	2	-0.019174	11.0628	9.3181	1.92966
 109	1	1	-0.06457	11.8855	7.52985	2.83286
 110	1	1	0.061186	12.6261	8.16806	4.05494
 111	1	2	0.013749	12.4369	6.65344	2.47953
 112	1	2	0.012175	10.9296	7.14602	3.20502
 113	1	1	-0.029522	11.9191	9.48514	4.51937
 114	1	1	0.182537	12.513	10.2081	5.76309
 115	1	2	0.017614	10.8632	9.25919	4.7197
 116	1	2	0.005524	11.9265	10.2121	3.69969
 117	1	1	-0.245806	13.9679	10.6727	5.53504
 118	1	1	-0.291525	11.6408	11.4212	6.14585
 119	1	2	-0.003466	12.4944	9.5325	6.62566
 120	1	2	0.0629	10.6138	11.1062	6.36787
 121	1	2	0.058439	11.6104	12.1563	5.33222
 122	1	2	0.076366	12.0373	11.9191	7.03955
 123	1	2	0.061036	14.636	9.82349	5.36354
 124	1	2	0.060061	14.3437	11.2134	6.41272
 125	1	2	0.042474	14.0354	11.3425	4.66833
 126	1	2	-0.019174	13.6443	8.42279	3.74425
 127	1	1	-0.06457	12.708	7.14865	5.23686
 128	1	1	0.061186	13.3218	5.74543	4.94207
 129	1	2	0.013749	13.2687	7.58393	6.07013
 130	1	2	0.012175	11.684	7.01775	5.5943
 131	1	1	-0.029522	14.7801	5.79612	4.38661
 132	1	1	0.182537	15.8262	6.70447	5.09772
 133	1	2	0.017614	14.718	6.12468	3.34318
 134	1	2	0.005524	15.1762	4.77376	4.33158
 135	1	1	-0.245806	16.0874	6.33648	6.57408
 136	1	1	-0.291525	17.1575	6.67042	4.31677
 137	1	2	-0.003466	15.473	7.73942	5.06995
 138	1	2	0.0629	17.5881	5.66096	4.31776
 139	1	2	0.058439	17.89	7.35469	4.76302
 140	1	2	0.076366	17.0068	6.97787	3.27415
 141	1	2	0.061036	15.2383	6.61447	7.20696
 142	1	2	0.060061	16.9589	6.87999	6.96015
 143	1	2	0.042474	16.2802	5.26222	6.68749
 144	1	2	-0.019174	12.749	5.30209	4.12624
 145	1	1	-0.06457	13.181	4.74929	6.142
 146	1	1	0.061186	11.7559	4.19098	6.47072
 147	1	2	0.013749	13.5945	5.19436	7.05099
 148	1	2	0.012175	13.8212	3.88142	5.93967
 149	1	1	-0.029522	10.9904	3.66514	5.2148
 150	1	1	0.182537	11.7214	2.57545	4.37956
 151	1	2	0.017614	10.7499	4.51552	4.565
 152	1	2	0.005524	10.0205	3.25785	5.51438
 153	1	1	-0.245806	11.9399	1.26929	5.17472
 154	1	1	-0.291525	10.9311	2.27013	3.08966
 155	1	2	-0.003466	12.7039	2.95122	4.07095
 156	1	2	0.0629	10.7962	3.17937	2.49077
 157	1	2	0.058439	9.9394	1.86168	3.32214
 158	1	2	0.076366	11.4647	1.53787	2.47096
 159	1	2	0.061036	12.5866	1.4325	6.04464
 160	1	2	0.060061	12.4226	0.510744	4.54601
 161	1	2	0.042474	10.9846	0.860255	5.52555
 162	1	2	-0.019174	11.9373	3.32786	7.11854
 163	1	1	-0.06457	10.8856	5.19255	7.30129
 164	1	1	0.061186	10.1118	4.60436	8.52513
 165	1	2	0.013749	11.5124	6.01498	7.66326
 166	1	2	0.012175	10.1563	5.67279	6.63574
 167	1	1	-0.029522	11.0394	4.04141	9.64857
 168	1	1	0.182537	12.1721	4.98174	10.1465
 169	1	2	0.017614	11.4869	3.09867	9.31042
 170	1	2	0.005524	10.4255	3.78604	10.5202
 171	1	1	-0.245806	11.6304	6.31242	10.7158
 172	1	1	-0.291525	13.0254	4.26753	11.2155
 173	1	2	-0.003466	12.8419	5.21262	9.31066
 174	1	2	0.0629	13.4569	3.34172	10.8147
 175	1	2	0.058439	12.4217	4.01133	12.0955
 176	1	2	0.076366	13.8532	4.90847	11.5438
 177	1	2	0.061036	10.9311	6.12922	11.5414
 178	1	2	0.060061	11.1086	6.89464	9.94732
 179	1	2	0.042474	12.4512	6.93302	11.0965
 180	1	2	-0.019174	9.55987	5.44746	8.95353
 181	1	1	-0.06457	9.06157	3.55472	8.05735
 182	1	1	0.061186	8.09898	2.95448	9.12862
 183	1	2	0.013749	8.45206	4.00121	7.26028
 184	1	2	0.012175	9.60736	2.7304	7.59357
 185	1	1	-0.029522	7.15157	4.04984	9.70515
 186	1	1	0.182537	6.20062	3.62055	10.8609
 187	1	2	0.017614	6.55055	4.46355	8.88577
 188	1	2	0.005524	7.76446	4.87433	10.0859
 189	1	1	-0.245806	5.44992	4.84992	11.4166
 190	1	1	-0.291525	6.93164	2.90082	12.0163
 191	1	2	-0.003466	5.44197	2.93669	10.4664
 192	1	2	0.0629	7.75582	3.51412	12.4021
 193	1	2	0.058439	7.33894	1.93624	11.6914
 194	1	2	0.076366	6.24094	2.69859	12.8443
 195	1	2	0.061036	4.72602	4.54947	12.1844
 196	1	2	0.060061	4.89925	5.36677	10.6223
 197	1	2	0.042474	6.14786	5.56699	11.8674
 198	1	2	-0.019174	8.69358	2.57686	9.96438
 199	1	1	-0.06457	7.3324	1.74481	8.50348
 200	1	1	0.061186	7.91816	0.329544	8.82136
 201	1	2	0.013749	6.29698	1.76296	8.85253
 202	1	2	0.012175	7.26642	1.87453	7.41473
 203	1	1	-0.029522	9.45745	0.2293	8.56648
 204	1	1	0.182537	10.1391	-1.12573	8.90814
 205	1	2	0.017614	9.97969	0.998665	9.14482
 206	1	2	0.005524	9.64839	0.450278	7.50911
 207	1	1	-0.245806	9.9252	-1.54644	10.3795
 208	1	1	-0.291525	11.6506	-1.0473	8.60523
 209	1	2	-0.003466	9.72722	-1.91038	8.26223
 210	1	2	0.0629	12.1384	-0.283777	9.22452
 211	1	2	0.058439	11.824	-0.795531	7.55159
 212	1	2	0.076366	12.1376	-2.01028	8.80356
 213	1	2	0.061036	10.2787	-0.766674	11.0659
 214	1	2	0.060061	10.4744	-2.46987	10.6015
 215	1	2	0.042474	8.86638	-1.73766	10.5905
 216	1	2	-0.019174	7.75559	0.159747	9.89138
 217	1	1	-0.06457	7.1763	-0.786987	8.02166
 218	1	1	0.061186	5.61639	-0.78805	8.03474
 219	1	2	0.013749	7.52298	-0.725514	6.9854
 220	1	2	0.012175	7.50393	-1.76607	8.39102
 221	1	1	-0.029522	5.07992	-1.0202	9.48276
 222	1	1	0.182537	3.56114	-0.75888	9.69444
 223	1	2	0.017614	5.62003	-0.38179	10.1909
 224	1	2	0.005524	5.31343	-2.05327	9.77266
 225	1	1	-0.245806	3.20545	0.742769	9.6076
 226	1	1	-0.291525	3.1055	-1.30958	11.0619
 227	1	2	-0.003466	2.98782	-1.29302	8.9294
 228	1	2	0.0629	2.0298	-1.14909	11.2071
 229	1	2	0.058439	3.63924	-0.814864	11.8834
 230	1	2	0.076366	3.29551	-2.38801	11.1305
 231	1	2	0.061036	2.12278	0.888471	9.7091
 232	1	2	0.060061	3.50962	1.17739	8.65023
 233	1	2	0.042474	3.69842	1.30741	10.4081
 234	1	2	-0.019174	5.26895	0.188056	7.68496
 235	1	1	-0.06457	5.08639	-1.87266	7.03695
 236	1	1	0.061186	4.58917	-1.35649	5.64794
 237	1	2	0.013749	5.86784	-2.6252	6.86787
 238	1	2	0.012175	4.27182	-2.43802	7.50218
 239	1	1	-0.029522	5.70283	-0.58382	4.87131
 240	1	1	0.182537	5.54559	-0.410039	3.32873
 241	1	2	0.017614	6.64092	-1.13446	5.00872
 242	1	2	0.005524	5.86075	0.400938	5.3302
 243	1	1	-0.245806	4.46481	0.603078	2.89432
 244	1	1	-0.291525	5.35425	-1.7499	2.5852
 245	1	2	-0.003466	6.5012	0.00469656	2.9816
 246	1	2	0.0629	5.4387	-1.60231	1.5013
 247	1	2	0.058439	4.36701	-2.18347	2.78621
 248	1	2	0.076366	6.11955	-2.47623	2.88586
 249	1	2	0.061036	4.56735	0.832334	1.82632
 250	1	2	0.060061	4.56555	1.54453	3.44705
 251	1	2	0.042474	3.45422	0.208371	3.04758
 252	1	2	-0.019174	4.37525	-2.26267	5.07075
 253	1	1	-0.06457	3.26195	-0.551283	5.79703
 254	1	1	0.061186	1.99442	-1.28843	5.26811
 255	1	2	0.013749	3.11133	-0.300289	6.84849
 256	1	2	0.012175	3.35575	0.417766	5.29913
 257	1	1	-0.029522	1.65666	-2.5454	6.12584
 258	1	1	0.182537	0.468543	-3.41841	5.62963
 259	1	2	0.017614	1.47268	-2.23403	7.16091
 260	1	2	0.005524	2.5385	-3.1951	6.16525
 261	1	1	-0.245806	0.238486	-4.59979	6.59519
 262	1	1	-0.291525	0.67531	-3.94988	4.19377
 263	1	2	-0.003466	-0.448743	-2.82152	5.63501
 264	1	2	0.0629	0.700824	-3.13096	3.46509
 265	1	2	0.058439	-0.147135	-4.61653	3.90576
 266	1	2	0.076366	1.61386	-4.51276	4.11453
 267	1	2	0.061036	-0.626713	-5.19657	6.28028
 268	1	2	0.060061	0.0437917	-4.23835	7.61272
 269	1	2	0.042474	1.11516	-5.25922	6.62732
 270	1	2	-0.019174	2.25271	-1.64603	4.26412
 271	1	1	-0.06457	0.79869	-0.305796	5.06287
 272	1	1	0.061186	0.332171	0.538131	6.29913
 273	1	2	0.013749	-0.047183	-0.845423	4.629
 274	1	2	0.012175	1.10552	0.380214	4.26389
 275	1	1	-0.029522	-0.748621	-0.154246	7.18775
 276	1	1	0.182537	-2.25259	0.0391891	6.82934
 277	1	2	0.017614	-0.61337	0.240031	8.20366
 278	1	2	0.005524	-0.536956	-1.22333	7.27269
 279	1	1	-0.245806	-3.12442	-0.651034	7.90024
 280	1	1	-0.291525	-2.64604	-0.475994	5.42842
 281	1	2	-0.003466	-2.49409	1.10785	6.86985
 282	1	2	0.0629	-2.44355	-1.5489	5.32725
 283	1	2	0.058439	-2.10704	0.0577265	4.64013
 284	1	2	0.076366	-3.71489	-0.31409	5.24905
 285	1	2	0.061036	-4.1852	-0.429471	7.74402
 286	1	2	0.060061	-2.86165	-0.298267	8.90543
 287	1	2	0.042474	-2.99247	-1.74034	7.87517
 288	1	2	-0.019174	1.18953	0.654911	6.96411
 289	1	1	-0.06457	-0.0842616	1.97398	5.86451
 290	1	1	0.061186	1.10675	2.9285	5.56654
 291	1	2	0.013749	-0.703423	1.87012	4.96916
 292	1	2	0.012175	-0.707872	2.43976	6.63698
 293	1	1	-0.029522	1.73737	3.47228	6.89044
 294	1	1	0.182537	3.04738	4.29881	6.75543
 295	1	2	0.017614	1.95514	2.62601	7.54978
 296	1	2	0.005524	1.00151	4.06703	7.43876
 297	1	1	-0.245806	4.19552	3.49729	6.10328
 298	1	1	-0.291525	3.49925	4.80496	8.13952
 299	1	2	-0.003466	2.85559	5.18754	6.1447
 300	1	2	0.0629	2.71283	5.40756	8.611
 301	1	2	0.058439	4.3928	5.43447	8.04795
 302	1	2	0.076366	3.73439	3.96559	8.80569
 303	1	2	0.061036	3.96552	3.25538	5.05964
 304	1	2	0.060061	4.38194	2.56076	6.64352
 305	1	2	0.042474	5.1232	4.08181	6.10853
 306	1	2	-0.019174	1.88385	2.31502	5.09978
 307	1	1	-0.06457	0.774653	4.0123	4.48667
 308	1	1	0.061186	-0.520759	4.89453	4.57236
 309	1	2	0.013749	1.62791	4.69083	4.41781
 310	1	2	0.012175	0.791491	3.51194	3.5165
 311	1	1	-0.029522	-0.665431	5.60902	5.94806
 312	1	1	0.182537	-1.7426	6.7281	6.04802
 313	1	2	0.017614	0.30518	6.04093	6.22413
 314	1	2	0.005524	-0.906809	4.85594	6.70681
 315	1	1	-0.245806	-1.54469	7.86777	5.02276
 316	1	1	-0.291525	-1.75843	7.31731	7.47435
 317	1	2	-0.003466	-2.73161	6.28621	5.87793
 318	1	2	0.0629	-0.799604	7.79423	7.71431
 319	1	2	0.058439	-1.94694	6.5332	8.21839
 320	1	2	0.076366	-2.54924	8.07133	7.57457
 321	1	2	0.061036	-1.64185	7.50473	3.99296
 322	1	2	0.060061	-0.558531	8.33381	5.13706
 323	1	2	0.042474	-2.30343	8.64773	5.16357
 324	1	2	-0.019174	-0.337107	5.68737	3.84248
 325	1	1	-0.06457	-1.85813	4.20139	4.13924
 326	1	1	0.061186	-1.88002	3.45856	2.76366
 327	1	2	0.013749	-2.1728	3.51583	4.93383
 328	1	2	0.012175	-2.6479	4.96065	4.09678
 329	1	1	-0.029522	-1.73389	4.4704	1.57747
 330	1	1	0.182537	-0.934942	3.98876	0.331771
 331	1	2	0.017614	-1.25527	5.39217	1.92272
 332	1	2	0.005524	-2.73761	4.78294	1.26084
 333	1	1	-0.245806	0.549914	3.69369	0.641963
 334	1	1	-0.291525	-1.02245	5.0445	-0.790474
 335	1	2	-0.003466	-1.38169	3.0726	-0.0611243
 336	1	2	0.0629	-2.06755	5.23775	-1.06316
 337	1	2	0.058439	-0.500417	4.69909	-1.69171
 338	1	2	0.076366	-0.568709	5.9927	-0.4751
 339	1	2	0.061036	0.656756	2.82423	1.2997
 340	1	2	0.060061	1.03215	4.55548	1.12077
 341	1	2	0.042474	1.09977	3.46683	-0.280061
 342	1	2	-0.019174	-1.0531	2.74711	2.75716
 343	1	1	-0.06457	-3.20437	2.63341	2.68049
 344	1	1	0.061186	-3.42384	1.73882	1.41779
 345	1	2	0.013749	-3.27611	1.98845	3.56565
 346	1	2	0.012175	-4.02634	3.35133	2.77094
 347	1	1	-0.029522	-2.29517	0.663231	1.30356
 348	1	1	0.182537	-2.37312	-0.309603	0.0931004
 349	1	2	0.017614	-2.29514	0.0647664	2.22331
 350	1	2	0.005524	-1.31711	1.15387	1.26714
 351	1	1	-0.245806	-1.21918	-1.33265	0.160776
 352	1	1	-0.291525	-2.33822	0.423727	-1.26629
 353	1	2	-0.003466	-3.30658	-0.882159	0.150723
 354	1	2	0.0629	-3.19632	1.09616	-1.38158
 355	1	2	0.058439	-2.37193	-0.29642	-2.09336
 356	1	2	0.076366	-1.41924	1.01397	-1.37037
 357	1	2	0.061036	-1.25477	-1.89838	1.10043
 358	1	2	0.060061	-0.244333	-0.832248	0.0997235
 359	1	2	0.042474	-1.28665	-2.0513	-0.66567
 360	1	2	-0.019174	-3.38191	2.38505	0.536159
 361	1	1	-0.06457	-4.82995	1.05541	1.41636
 362	1	1	0.061186	-6.07988	1.95319	1.69703
 363	1	2	0.013749	-4.98918	0.573208	0.444211
 364	1	2	0.012175	-4.78802	0.248842	2.15604
 365	1	1	-0.029522	-6.11887	3.17204	0.720823
 366	1	1	0.182537	-7.30593	4.15991	0.89542
 367	1	2	0.017614	-6.13195	2.79038	-0.308719
 368	1	2	0.005524	-5.19352	3.7515	0.813962
 369	1	1	-0.245806	-7.22558	5.27871	-0.164861
 370	1	1	-0.291525	-7.353	4.78392	2.3079
 371	1	2	-0.003466	-8.24798	3.62499	0.723504
 372	1	2	0.0629	-6.40976	5.29297	2.54341
 373	1	2	0.058439	-7.53477	4.02246	3.07537
 374	1	2	0.076366	-8.1637	5.51981	2.37802
 375	1	2	0.061036	-8.08319	5.9578	-0.0803011
 376	1	2	0.060061	-7.2312	4.85657	-1.17767
 377	1	2	0.042474	-6.30854	5.86987	-0.0457855
 378	1	2	-0.019174	-5.99154	2.33153	2.72126
 379	1	1	-0.06457	-7.42099	1.15067	1.62437
 380	1	1	0.061186	-7.45422	-0.252664	2.31055
 381	1	2	0.013749	-8.22225	1.75667	2.06535
 382	1	2	0.012175	-7.67709	1.0446	0.565645
 383	1	1	-0.029522	-7.11106	-0.137965	3.83026
 384	1	1	0.182537	-7.06852	-1.47359	4.62675
 385	1	2	0.017614	-7.84892	0.524586	4.3016
 386	1	2	0.005524	-6.14278	0.358473	3.95957
 387	1	1	-0.245806	-6.80051	-1.19281	6.11821
 388	1	1	-0.291525	-6.01364	-2.45878	4.07445
 389	1	2	-0.003466	-8.04948	-1.9603	4.57745
 390	1	2	0.0629	-5.01746	-2.00079	4.05328
 391	1	2	0.058439	-6.26417	-2.78112	3.05689
 392	1	2	0.076366	-5.96074	-3.35945	4.69865
 393	1	2	0.061036	-5.85031	-0.666035	6.24729
 394	1	2	0.060061	-6.75932	-2.12663	6.69282
 395	1	2	0.042474	-7.59575	-0.569214	6.54552
 396	1	2	-0.019174	-6.69865	-0.881514	1.82747
 397	1	1	-0.06457	-8.82518	-0.974879	2.13068
 398	1	1	0.061186	-9.46312	-1.03566	0.709432
 399	1	2	0.013749	-8.72059	-2.0096	2.47812
 400	1	2	0.012175	-9.53551	-0.487988	2.80926
 401	1	1	-0.029522	-10.7422	-1.93735	0.738618
 402	1	1	0.182537	-11.8377	-1.57087	1.78098
 403	1	2	0.017614	-10.4286	-2.97381	0.920691
 404	1	2	0.005524	-11.2198	-1.94297	-0.245853
 405	1	1	-0.245806	-13.0205	-2.55702	1.67864
 406	1	1	-0.291525	-12.3556	-0.123265	1.62658
 407	1	2	-0.003466	-11.4231	-1.68109	2.79026
 408	1	2	0.0629	-12.7838	0.0374559	0.629524
 409	1	2	0.058439	-11.5549	0.609279	1.7813
 410	1	2	0.076366	-13.1378	0.0854145	2.36711
 411	1	2	0.061036	-12.6805	-3.58972	1.82649
 412	1	2	0.060061	-13.5029	-2.49294	0.694962
 413	1	2	0.042474	-13.776	-2.34012	2.4443
 414	1	2	-0.019174	-9.76055	-0.0154184	0.445762
 415	1	1	-0.06457	-8.45606	-1.54051	-0.37341
 416	1	1	0.061186	-8.96711	-1.52746	-1.84716
 417	1	2	0.013749	-7.53359	-0.951685	-0.343099
 418	1	2	0.012175	-8.15749	-2.56122	-0.105541
 419	1	1	-0.029522	-9.38257	-0.0968548	-2.33004
 420	1	1	0.182537	-10.9001	0.236398	-2.2728
 421	1	2	0.017614	-9.05554	0.0611814	-3.36539
 422	1	2	0.005524	-8.82565	0.647987	-1.74671
 423	1	1	-0.245806	-11.7386	-0.630156	-3.24048
 424	1	1	-0.291525	-11.1309	1.72907	-2.58829
 425	1	2	-0.003466	-11.2712	0.0677619	-1.25906
 426	1	2	0.0629	-12.1959	1.98213	-2.51105
 427	1	2	0.058439	-10.7937	1.97461	-3.60331
 428	1	2	0.076366	-10.5843	2.3654	-1.88098
 429	1	2	0.061036	-11.6891	-1.69327	-2.98096
 430	1	2	0.060061	-11.3907	-0.512726	-4.27371
 431	1	2	0.042474	-12.795	-0.335992	-3.20387
 432	1	2	-0.019174	-9.82718	-2.19625	-1.89301
 433	1	1	-0.06457	-7.88022	-2.11535	-2.79617
 434	1	1	0.061186	-8.44565	-2.6652	-4.14237
 435	1	2	0.013749	-7.14871	-1.3214	-2.99731
 436	1	2	0.012175	-7.30067	-2.89954	-2.29936
 437	1	1	-0.029522	-9.2921	-3.97476	-3.97736
 438	1	1	0.182537	-8.57506	-5.23119	-3.39158
 439	1	2	0.017614	-9.7041	-4.23468	-4.95451
 440	1	2	0.005524	-10.1844	-3.76585	-3.37646
 441	1	1	-0.245806	-9.12027	-6.5265	-4.03646
 442	1	1	-0.291525	-8.75087	-5.36179	-1.85964
 443	1	2	-0.003466	-7.50309	-5.17806	-3.6159
 444	1	2	0.0629	-9.81246	-5.43147	-1.59093
 445	1	2	0.058439	-8.32376	-4.51651	-1.31748
 446	1	2	0.076366	-8.25066	-6.26637	-1.4916
 447	1	2	0.061036	-10.191	-6.64707	-3.82824
 448	1	2	0.060061	-8.59585	-7.40646	-3.64318
 449	1	2	0.042474	-8.98582	-6.52314	-5.12363
 450	1	2	-0.019174	-9.12564	-1.89205	-4.50786
 451	1	1	-0.06457	-7.29711	-2.75452	-5.19527
 452	1	1	0.061186	-7.62024	-3.06439	-6.6975
 453	1	2	0.013749	-6.78525	-1.78301	-5.19335
 454	1	2	0.012175	-6.53929	-3.46267	-4.83824
 455	1	1	-0.029522	-8.5916	-2.04011	-7.37905
 456	1	1	0.182537	-10.137	-2.1181	-7.14599
 457	1	2	0.017614	-8.40781	-2.0338	-8.4587
 458	1	2	0.005524	-8.25234	-1.04898	-7.05052
 459	1	1	-0.245806	-10.8766	-3.06098	-8.12091
 460	1	1	-0.291525	-10.7536	-0.707079	-7.27494
 461	1	2	-0.003466	-10.3596	-2.46343	-6.13659
 462	1	2	0.0629	-10.5997	-0.301246	-8.28293
 463	1	2	0.058439	-10.302	-0.0142128	-6.55373
 464	1	2	0.076366	-11.8327	-0.731616	-7.07699
 465	1	2	0.061036	-10.5904	-2.86397	-9.16147
 466	1	2	0.060061	-11.9624	-2.92361	-8.04117
 467	1	2	0.042474	-10.6833	-4.11135	-7.89059
 468	1	2	-0.019174	-6.66039	-2.83506	-7.1703
 469	1	1	-0.06457	-7.84899	-4.58595	-6.97255
 470	1	1	0.061186	-7.28136	-5.20623	-8.29217
 471	1	2	0.013749	-7.37886	-5.14411	-6.15528
 472	1	2	0.012175	-8.90924	-4.83304	-6.8939
 473	1	1	-0.029522	-5.77252	-4.91176	-8.55976
 474	1	1	0.182537	-4.79479	-5.21412	-7.39078
 475	1	2	0.017614	-5.6602	-3.86274	-8.86109
 476	1	2	0.005524	-5.44345	-5.5003	-9.42273
 477	1	1	-0.245806	-3.37679	-4.71517	-7.73978
 478	1	1	-0.291525	-4.74892	-6.71798	-7.04218
 479	1	2	-0.003466	-5.11367	-4.66528	-6.49751
 480	1	2	0.0629	-4.45473	-7.31361	-7.91584
 481	1	2	0.058439	-5.72429	-7.077	-6.69345
 482	1	2	0.076366	-4.02245	-6.9067	-6.242
 483	1	2	0.061036	-2.68393	-4.89821	-6.90899
 484	1	2	0.060061	-3.38288	-3.63584	-7.9379
 485	1	2	0.042474	-2.98684	-5.22444	-8.63029
 486	1	2	-0.019174	-7.37729	-6.28479	-8.1348
 487	1	1	-0.06457	-8.15227	-4.84961	-9.53166
 488	1	1	0.061186	-7.88998	-5.64694	-10.85
 489	1	2	0.013749	-9.20468	-4.99974	-9.27291
 490	1	2	0.012175	-8.02028	-3.78277	-9.72526
 491	1	1	-0.029522	-8.83167	-5.14705	-11.9926
 492	1	1	0.182537	-8.78811	-3.62669	-12.3198
 493	1	2	0.017614	-9.86472	-5.42287	-11.7427
 494	1	2	0.005524	-8.58795	-5.67702	-12.9201
 495	1	1	-0.245806	-9.73661	-3.30769	-13.4945
 496	1	1	-0.291525	-7.3628	-3.12972	-12.6522
 497	1	2	-0.003466	-9.15788	-3.06063	-11.4566
 498	1	2	0.0629	-6.69285	-3.22761	-11.7898
 499	1	2	0.058439	-7.37838	-2.06974	-12.9349
 500	1	2	0.076366	-6.9344	-3.69844	-13.4872
 501	1	2	0.061036	-9.74825	-2.23046	-13.7028
 502	1	2	0.060061	-10.7634	-3.61495	-13.2597
 503	1	2	0.042474	-9.4232	-3.82886	-14.408
 504	1	2	-0.019174	-6.86026	-5.46152	-11.1695
 505	1	1	-0.06457	-8.04213	-7.18208	-10.6014
 506	1	1	0.061186	-7.98915	-8.12923	-11.8378
 507	1	2	0.013749	-7.26883	-7.51104	-9.89921
 508	1	2	0.012175	-9.00154	-7.34195	-10.094
 509	1	1	-0.029522	-6.68067	-7.99295	-12.6778
 510	1	1	0.182537	-5.35773	-8.40597	-11.9608
 511	1	2	0.017614	-6.59569	-6.95841	-13.0315
 512	1	2	0.005524	-6.7961	-8.58365	-13.5953
 513	1	1	-0.245806	-4.3256	-7.25721	-11.9725
 514	1	1	-0.291525	-4.72171	-9.65695	-12.6098
 515	1	2	-0.003466	-5.56764	-8.64886	-10.9122
 516	1	2	0.0629	-5.40897	-10.5106	-12.5969
 517	1	2	0.058439	-3.8134	-9.95321	-12.0702
 518	1	2	0.076366	-4.44688	-9.45999	-13.6538
 519	1	2	0.061036	-4.04536	-6.99147	-12.9997
 520	1	2	0.060061	-3.41452	-7.54826	-11.4349
 521	1	2	0.042474	-4.72642	-6.36089	-11.4876
 522	1	2	-0.019174	-8.80295	-7.82243	-12.5008
 523	1	1	-0.06457	-8.28052	-9.60426	-11.4065
 524	1	1	0.061186	-9.50386	-10.2797	-12.095
 525	1	2	0.013749	-7.40525	-10.2312	-11.6024
 526	1	2	0.012175	-8.40607	-9.66306	-10.3188
 527	1	1	-0.029522	-10.8712	-9.61844	-11.7316
 528	1	1	0.182537	-11.2559	-9.62614	-10.2256
 529	1	2	0.017614	-11.6728	-10.1246	-12.2826
 530	1	2	0.005524	-10.8789	-8.58186	-12.09
 531	1	1	-0.245806	-11.3862	-11.055	-9.65692
 532	1	1	-0.291525	-12.5761	-8.85852	-10.0071
 533	1	2	-0.003466	-10.4839	-9.10299	-9.65078
 534	1	2	0.0629	-12.8368	-8.82978	-8.94158
 535	1	2	0.058439	-13.4032	-9.33469	-10.5487
 536	1	2	0.076366	-12.4863	-7.82288	-10.358
 537	1	2	0.061036	-10.4207	-11.5699	-9.67281
 538	1	2	0.060061	-12.1054	-11.6462	-10.237
 539	1	2	0.042474	-11.7264	-11.0306	-8.61413
 540	1	2	-0.019174	-9.5266	-11.3094	-11.7233
 541	1	1	-0.06457	-9.30591	-10.3505	-13.6381
 542	1	1	0.061186	-10.0979	-11.4972	-14.3371
 543	1	2	0.013749	-9.56093	-9.37848	-14.0683
 544	1	2	0.012175	-8.24086	-10.4896	-13.8654
 545	1	1	-0.029522	-10.321	-11.189	-15.854
 546	1	1	0.182537	-11.5781	-10.3557	-16.2489
 547	1	2	0.017614	-10.3866	-12.131	-16.4102
 548	1	2	0.005524	-9.42588	-10.693	-16.2522
 549	1	1	-0.245806	-11.5861	-8.90978	-15.71
 550	1	1	-0.291525	-12.903	-11.0605	-15.8885
 551	1	2	-0.003466	-11.5543	-10.2777	-17.3438
 552	1	2	0.0629	-13.0769	-11.056	-14.8062
 553	1	2	0.058439	-12.9033	-12.0999	-16.24
 554	1	2	0.076366	-13.7494	-10.5466	-16.3609
 555	1	2	0.061036	-10.6499	-8.39409	-15.9573
 556	1	2	0.060061	-11.7251	-8.88908	-14.6228
 557	1	2	0.042474	-12.4086	-8.33921	-16.1595
 558	1	2	-0.019174	-11.0671	-11.6091	-13.8457
 559	1	1	-0.06457	-9.30257	-12.8266	-14.1596
 560	1	1	0.061186	-10.0868	-14.1539	-14.3928
 561	1	2	0.013749	-8.4495	-12.7902	-14.8499
 562	1	2	0.012175	-8.86197	-12.8681	-13.1565
 563	1	1	-0.029522	-11.094	-14.48	-13.2424
 564	1	1	0.182537	-12.5887	-14.1966	-13.5439
 565	1	2	0.017614	-10.804	-13.9214	-12.3427
 566	1	2	0.005524	-11.0229	-15.5421	-12.9765
 567	1	1	-0.245806	-13.4192	-14.2902	-12.2456
 568	1	1	-0.291525	-13.1663	-15.1719	-14.5945
 569	1	2	-0.003466	-12.6906	-13.1777	-13.9267
 570	1	2	0.0629	-13.0748	-16.2116	-14.2555
 571	1	2	0.058439	-12.6505	-15.0805	-15.5571
 572	1	2	0.076366	-14.2296	-14.9651	-14.7685
 573	1	2	0.061036	-13.3557	-15.2956	-11.8099
 574	1	2	0.060061	-14.4758	-14.0686	-12.4408
 575	1	2	0.042474	-13.0591	-13.5722	-11.4987
 576	1	2	-0.019174	-10.6722	-14.0306	-15.3096
 577	1	1	-0.06457	-9.1015	-15.3296	-14.7061
 578	1	1	0.061186	-7.84066	-15.5274	-13.7938
 579	1	2	0.013749	-9.66046	-16.2723	-14.7712
 580	1	2	0.012175	-8.75072	-15.13	-15.7199
 581	1	1	-0.029522	-6.81945	-16.5394	-14.4129
 582	1	1	0.182537	-6.09519	-16.1698	-15.7466
 583	1	2	0.017614	-7.30052	-17.5202	-14.5203
 584	1	2	0.005524	-6.01683	-16.6949	-13.6845
 585	1	1	-0.245806	-5.7565	-14.6696	-15.8956
 586	1	1	-0.291525	-6.7933	-16.7166	-17.0136
 587	1	2	-0.003466	-5.13109	-16.6942	-15.7081
 588	1	2	0.0629	-6.13947	-16.5956	-17.8865
 589	1	2	0.058439	-7.73141	-16.2011	-17.2375
 590	1	2	0.076366	-7.00749	-17.7874	-16.9088
 591	1	2	0.061036	-6.65894	-14.0634	-16.0348
 592	1	2	0.060061	-5.10924	-14.5079	-16.7666
 593	1	2	0.042474	-5.22342	-14.3004	-15.0104
 594	1	2	-0.019174	-7.3264	-14.5657	-13.6931
 595	1	1	-0.06457	-8.23411	-15.9797	-12.3561
 596	1	1	0.061186	-7.12583	-15.8272	-11.2822
 597	1	2	0.013749	-9.05961	-15.3624	-12.0159
 598	1	2	0.012175	-8.59906	-17.0149	-12.3764
 599	1	1	-0.029522	-7.57338	-16.2608	-9.85996
 600	1	1	0.182537	-8.87832	-15.6084	-9.3197
 601	1	2	0.017614	-6.75258	-16.0476	-9.16295
 602	1	2	0.005524	-7.70156	-17.3511	-9.85557
 603	1	1	-0.245806	-8.83858	-14.0647	-9.34841
 604	1	1	-0.291525	-9.17164	-16.0906	-7.88378
 605	1	2	-0.003466	-9.71964	-15.9389	-9.94185
 606	1	2	0.0629	-8.38854	-15.7607	-7.18954
 607	1	2	0.058439	-9.22904	-17.1854	-7.84269
 608	1	2	0.076366	-10.1308	-15.6912	-7.53029
 609	1	2	0.061036	-8.75495	-13.6804	-10.3719
 610	1	2	0.060061	-7.99162	-13.6811	-8.76639
 611	1	2	0.042474	-9.76043	-13.6566	-8.91736
 612	1	2	-0.019174	-6.78831	-14.7834	-11.2561
 613	1	2	0	6.01476	14.1464	4.84937
 614	1	2	0	-6.24955	-16.4278	-11.5493

Velocities

   1	-0.000152031	-1.61739e-05	-0.000242997
   2	6.11849e-06	-2.53977e-05	-1.36466e-05
   3	-0.000210888	-7.15475e-05	-0.000633906
   4	-0.000461748	-0.000120779	-7.44353e-05
   5	2.96065e-05	-2.16376e-05	5.00568e-05
   6	3.06212e-05	-3.96061e-05	6.29676e-06
   7	5.80632e-05	-3.89619e-05	9.82565e-05
   8	3.46594e-05	-6.46229e-06	5.02732e-05
   9	-8.32304e-06	-0.000171034	5.20059e-05
  10	1.71148e-06	-2.55933e-05	-0.000111736
  11	1.73485e-05	-2.13534e-05	1.90398e-05
  12	-1.58562e-05	4.2201e-05	-0.000288443
  13	0.000138748	-0.000111717	-0.000126595
  14	-0.000122797	6.54886e-05	-1.267e-05
  15	4.31282e-05	-0.000388218	0.000127427
  16	0.000165854	-7.68219e-05	3.45843e-05
  17	-0.000233043	-0.00011924	5.83298e-05
  18	0.000119308	-0.000116535	-2.19523e-05
  19	-2.05221e-05	3.36179e-05	5.58489e-05
  20	2.04721e-05	4.35579e-06	4.37554e-05
  21	2.13393e-05	6.20486e-05	0.000116258
  22	-6.61644e-05	0.000120999	2.3937e-05
  23	8.98367e-05	-2.73367e-05	8.28616e-06
  24	3.97245e-05	-3.15092e-05	4.04261e-05
  25	0.000126093	2.61794e-05	-9.39381e-06
  26	0.000111436	-7.60278e-05	-1.66856e-05
  27	-2.34736e-05	-4.07053e-05	7.48041e-05
  28	1.62867e-05	-2.17185e-05	-7.54731e-06
  29	6.87716e-05	-5.01086e-05	5.62195e-05
  30	-5.58986e-07	-2.5795e-05	-3.43676e-05
  31	-2.58548e-05	-8.86173e-06	3.5128e-06
  32	1.23217e-05	-4.8165e-05	-5.25952e-05
  33	-6.19128e-05	5.43632e-05	0.000136229
  34	-1.81939e-05	-3.63966e-05	6.23882e-05
  35	-0.00011558	-0.000121976	0.000104283
  36	3.92762e-06	-4.82448e-05	6.71991e-05
  37	4.0461e-06	1.57115e-05	4.52942e-05
  38	2.70106e-05	4.37644e-05	3.24201e-05
  39	2.78686e-05	-4.27413e-05	7.73916e-05
  40	-4.14882e-05	4.14064e-05	8.87902e-05
  41	4.04266e-06	1.81276e-05	2.12953e-05
  42	1.16789e-05	5.08035e-05	3.92022e-05
  43	-1.66604e-06	-3.34441e-05	8.55848e-05
  44	4.08822e-05	-2.01208e-05	-4.30602e-05
  45	5.00657e-05	8.25843e-05	0.000104946
  46	-4.84978e-05	-3.08819e-05	8.48764e-05
  47	8.7731e-06	6.02899e-05	-6.95208e-06
  48	-2.92145e-05	-6.66062e-05	0.000132894
  49	-5.79751e-05	-5.50654e-05	0.000105836
  50	-0.000129444	-6.46871e-05	2.37212e-05
  51	5.0343e-05	1.616e-05	5.94622e-05
  52	2.25862e-05	0.000159814	0.000109114
  53	0.000139804	7.1052e-05	0.000139178
  54	-1.0832e-05	4.61468e-05	3.96567e-05
  55	3.83415e-05	-1.5328e-06	5.99292e-05
  56	-1.03468e-05	-1.54475e-05	5.22126e-05
  57	3.88562e-05	-4.40598e-05	8.23537e-05
  58	9.09865e-05	-3.84259e-06	7.79747e-05
  59	-5.86338e-05	4.22823e-07	0.000107936
  60	-4.92398e-05	1.85613e-05	5.07674e-05
  61	-8.04258e-05	1.235e-05	0.000222687
  62	-0.000187355	-9.21921e-06	4.48808e-05