pySIMM System Object

470 atoms
469 bonds
936 angles
1395 dihedrals
0 impropers

2 atom types
2 bond types
3 angle types
3 dihedral types

-95.599628 95.599628 xlo xhi
-95.599628 95.599628 ylo yhi
-95.599628 95.599628 zlo zhi

Masses

   1	12.01	# c3
   2	1.008	# hc

Pair Coeffs

   1	0.1094	3.3996695084235347	# c3
   2	0.0157	2.649532787749369	# hc

Bond Coeffs

   1	330.6	1.0969	# c3,hc
   2	300.9	1.5375	# c3,c3

Angle Coeffs

   1	46.34	109.8	# c3,c3,hc
   2	39.4	107.58	# hc,c3,hc
   3	62.86	111.51	# c3,c3,c3

Dihedral Coeffs

   1	1	0.16	3	0	# hc,c3,c3,c3
   2	1	0.15	3	0	# hc,c3,c3,hc
   3	3	0.18	3	0	0.25	2	180	0.2	1	180	# c3,c3,c3,c3

Atoms

   1	1	1	-0.06457	-7.60557	-1.1389	10.815
   2	1	1	0.061186	-6.60993	-0.315034	9.95951
   3	1	2	0.013749	-8.17192	-1.84532	10.1975
   4	1	2	0.012175	-7.07913	-1.71047	11.59
   5	1	1	-0.029522	-5.83574	0.730619	10.8149
   6	1	1	0.182537	-6.69352	1.84769	11.4742
   7	1	2	0.017614	-5.07932	1.21545	10.1837
   8	1	2	0.005524	-5.28011	0.199044	11.5989
   9	1	1	-0.245806	-7.47309	2.6941	10.4422
  10	1	1	-0.291525	-5.79454	2.77494	12.3173
  11	1	2	-0.003466	-7.41642	1.38897	12.1593
  12	1	2	0.0629	-5.05473	3.27982	11.6847
  13	1	2	0.058439	-5.25806	2.20499	13.0862
  14	1	2	0.076366	-6.39208	3.54307	12.824
  15	1	2	0.061036	-8.22464	2.0934	9.91696
  16	1	2	0.060061	-6.79378	3.1284	9.6988
  17	1	2	0.042474	-8.00371	3.51665	10.9378
  18	1	2	-0.019174	-7.19516	0.227237	9.21294
  19	1	1	-0.06457	-5.59645	-1.23859	9.21882
  20	1	1	0.061186	-6.18347	-2.08887	8.04903
  21	1	2	0.013749	-4.76086	-0.64419	8.82934
  22	1	2	0.012175	-5.15455	-1.89782	9.97384
  23	1	1	-0.029522	-5.16453	-3.14404	7.51423
  24	1	1	0.182537	-4.64978	-4.19947	8.53489
  25	1	2	0.017614	-4.29016	-2.62971	7.09975
  26	1	2	0.005524	-5.62859	-3.67977	6.6757
  27	1	1	-0.245806	-3.68158	-5.18001	7.83979
  28	1	1	-0.291525	-5.78918	-4.98915	9.21711
  29	1	2	-0.003466	-4.07324	-3.69026	9.31603
  30	1	2	0.0629	-6.41227	-4.33461	9.83811
  31	1	2	0.058439	-5.38099	-5.76754	9.87383
  32	1	2	0.076366	-6.43155	-5.47456	8.47173
  33	1	2	0.061036	-4.19334	-5.74741	7.05221
  34	1	2	0.060061	-3.2675	-5.89482	8.56193
  35	1	2	0.042474	-2.8419	-4.64091	7.38318
  36	1	2	-0.019174	-7.03535	-2.65279	8.44245
  37	1	1	-0.06457	-6.76415	-1.24025	6.87081
  38	1	1	0.061186	-5.76931	-0.280539	6.13329
  39	1	2	0.013749	-7.19754	-1.94597	6.15267
  40	1	2	0.012175	-7.632	-0.668456	7.22089
  41	1	1	-0.029522	-5.99291	-0.313115	4.59053
  42	1	1	0.182537	-5.52796	-1.6179	3.88305
  43	1	2	0.017614	-5.46862	0.519347	4.1092
  44	1	2	0.005524	-7.06063	-0.147976	4.39428
  45	1	1	-0.245806	-3.98736	-1.7389	3.83087
  46	1	1	-0.291525	-6.09515	-1.67948	2.45024
  47	1	2	-0.003466	-5.91812	-2.4885	4.42233
  48	1	2	0.0629	-5.81718	-2.62263	1.96497
  49	1	2	0.058439	-5.71398	-0.851122	1.83964
  50	1	2	0.076366	-7.19073	-1.62205	2.46115
  51	1	2	0.061036	-3.6894	-2.64853	3.29473
  52	1	2	0.060061	-3.55211	-1.79365	4.83482
  53	1	2	0.042474	-3.54346	-0.87978	3.31201
  54	1	2	-0.019174	-4.75746	-0.631793	6.33931
  55	1	1	-0.06457	-5.88957	1.1712	6.69592
  56	1	1	0.061186	-4.9111	2.26531	6.16213
  57	1	2	0.013749	-5.7534	1.13587	7.77854
  58	1	2	0.012175	-6.91908	1.51674	6.53181
  59	1	1	-0.029522	-3.43039	1.76644	6.23124
  60	1	1	0.182537	-2.31961	2.68456	5.65837
  61	1	2	0.017614	-3.1896	1.53018	7.27624
  62	1	2	0.005524	-3.34687	0.824903	5.67871
  63	1	1	-0.245806	-2.52938	3.01579	4.16435
  64	1	1	-0.291525	-0.946345	2.00673	5.83597
  65	1	2	-0.003466	-2.28552	3.61603	6.22956
  66	1	2	0.0629	-0.727335	1.83539	6.89714
  67	1	2	0.058439	-0.154792	2.63756	5.42027
  68	1	2	0.076366	-0.912001	1.03964	5.32108
  69	1	2	0.061036	-2.57798	2.09923	3.56277
  70	1	2	0.060061	-1.70279	3.62923	3.7842
  71	1	2	0.042474	-3.4538	3.57786	4.00339
  72	1	2	-0.019174	-5.17231	2.4403	5.11745
  73	1	1	-0.06457	-5.17332	3.56272	7.00067
  74	1	1	0.061186	-4.93919	4.95822	6.3367
  75	1	2	0.013749	-6.21728	3.56205	7.34053
  76	1	2	0.012175	-4.57197	3.4726	7.91153
  77	1	1	-0.029522	-5.82684	5.14387	5.06347
  78	1	1	0.182537	-5.68218	6.49422	4.30371
  79	1	2	0.017614	-6.87906	5.01644	5.34991
  80	1	2	0.005524	-5.61473	4.35005	4.34174
  81	1	1	-0.245806	-4.22497	6.79452	3.88336
  82	1	1	-0.291525	-6.59264	6.50193	3.05757
  83	1	2	-0.003466	-6.02747	7.30913	4.95135
  84	1	2	0.0629	-7.63907	6.32854	3.33826
  85	1	2	0.058439	-6.29456	5.72024	2.34718
  86	1	2	0.076366	-6.53898	7.4692	2.54256
  87	1	2	0.061036	-3.57311	6.91836	4.75601
  88	1	2	0.060061	-4.17399	7.72482	3.30412
  89	1	2	0.042474	-3.81981	5.98595	3.26213
  90	1	2	-0.019174	-3.89545	5.02241	6.02404
  91	1	1	-0.06457	-5.20435	6.12259	7.34884
  92	1	1	0.061186	-4.46963	6.07653	8.72273
  93	1	2	0.013749	-6.28464	6.18392	7.53571
  94	1	2	0.012175	-4.91624	7.05979	6.86316
  95	1	1	-0.029522	-4.92365	7.24406	9.65542
  96	1	1	0.182537	-4.58206	8.69063	9.18503
  97	1	2	0.017614	-4.48788	7.07812	10.6475
  98	1	2	0.005524	-6.00621	7.16504	9.82064
  99	1	1	-0.245806	-5.77468	9.37178	8.47415
 100	1	1	-0.291525	-4.14535	9.56741	10.3789
 101	1	2	-0.003466	-3.74123	8.6614	8.4832
 102	1	2	0.0629	-3.88151	10.5782	10.0434
 103	1	2	0.058439	-3.26726	9.14105	10.8793
 104	1	2	0.076366	-4.95157	9.65278	11.1185
 105	1	2	0.061036	-6.11147	8.80201	7.60208
 106	1	2	0.060061	-5.49414	10.3738	8.12616
 107	1	2	0.042474	-6.628	9.47816	9.15597
 108	1	2	-0.019174	-4.79779	5.16496	9.23283
 109	1	1	-0.06457	-2.92409	5.98872	8.52636
 110	1	1	0.061186	-2.02579	6.05879	9.80132
 111	1	2	0.013749	-2.64049	6.78919	7.83622
 112	1	2	0.012175	-2.68858	5.05127	8.01123
 113	1	1	-0.029522	-2.42509	4.95343	10.8322
 114	1	1	0.182537	-1.70994	4.99691	12.2134
 115	1	2	0.017614	-2.24962	3.97184	10.3725
 116	1	2	0.005524	-3.50029	5.0025	11.0306
 117	1	1	-0.245806	-2.02275	6.28989	12.9994
 118	1	1	-0.291525	-2.11261	3.77427	13.0645
 119	1	2	-0.003466	-0.625877	4.93343	12.0686
 120	1	2	0.0629	-1.89716	2.83841	12.5338
 121	1	2	0.058439	-3.18281	3.79634	13.303
 122	1	2	0.076366	-1.55573	3.75967	14.0097
 123	1	2	0.061036	-1.64881	7.17756	12.4801
 124	1	2	0.060061	-1.54794	6.26552	13.9882
 125	1	2	0.042474	-3.10397	6.40904	13.1451
 126	1	2	-0.019174	-2.18012	7.03775	10.2635
 127	1	1	-0.06457	-0.516747	5.92831	9.41769
 128	1	1	0.061186	0.0529984	6.95605	8.39071
 129	1	2	0.013749	0.104558	5.98094	10.3175
 130	1	2	0.012175	-0.390611	4.9196	9.01645
 131	1	1	-0.029522	-0.171988	8.44492	8.8084
 132	1	1	0.182537	0.229051	8.89342	10.2464
 133	1	2	0.017614	-1.24042	8.66144	8.68581
 134	1	2	0.005524	0.329325	9.09641	8.08076
 135	1	1	-0.245806	1.72376	8.70521	10.5839
 136	1	1	-0.291525	-0.153923	10.3751	10.452
 137	1	2	-0.003466	-0.348298	8.31271	10.9724
 138	1	2	0.0629	0.418639	11.0256	9.7787
 139	1	2	0.058439	0.0458006	10.691	11.4837
 140	1	2	0.076366	-1.22078	10.5358	10.2556
 141	1	2	0.061036	1.96125	7.64901	10.7471
 142	1	2	0.060061	1.98061	9.23031	11.5125
 143	1	2	0.042474	2.36472	9.09796	9.7846
 144	1	2	-0.019174	-0.521207	6.84666	7.46835
 145	1	1	-0.06457	1.54241	6.67562	7.9943
 146	1	1	0.061186	1.84154	5.46875	7.04499
 147	1	2	0.013749	2.15303	6.55511	8.89314
 148	1	2	0.012175	1.9402	7.57246	7.50331
 149	1	1	-0.029522	0.964093	5.45266	5.75264
 150	1	1	0.182537	0.967804	6.75295	4.90227
 151	1	2	0.017614	-0.0703996	5.20778	6.02464
 152	1	2	0.005524	1.29304	4.63885	5.09997
 153	1	1	-0.245806	2.37156	7.09242	4.35359
 154	1	1	-0.291525	-0.0318952	6.62152	3.73364
 155	1	2	-0.003466	0.631155	7.5937	5.5203
 156	1	2	0.0629	-1.04354	6.4194	4.10717
 157	1	2	0.058439	0.253734	5.80273	3.06095
 158	1	2	0.076366	-0.0698508	7.54813	3.14748
 159	1	2	0.061036	3.07603	7.30672	5.16578
 160	1	2	0.060061	2.33108	7.98121	3.71164
 161	1	2	0.042474	2.77316	6.26157	3.75955
 162	1	2	-0.019174	2.87869	5.61324	6.72416
 163	1	1	-0.06457	1.7929	4.09466	7.78832
 164	1	1	0.061186	2.96878	3.10398	7.52076
 165	1	2	0.013749	1.73924	4.26002	8.86895
 166	1	2	0.012175	0.852253	3.58795	7.54373
 167	1	1	-0.029522	4.3388	3.60058	8.08393
 168	1	1	0.182537	4.37152	4.02747	9.57811
 169	1	2	0.017614	4.69436	4.44189	7.47596
 170	1	2	0.005524	5.08115	2.80428	7.95813
 171	1	1	-0.245806	3.9172	2.89879	10.5306
 172	1	1	-0.291525	5.79115	4.49378	9.96422
 173	1	2	-0.003466	3.70699	4.88717	9.72155
 174	1	2	0.0629	6.11557	5.32487	9.32538
 175	1	2	0.058439	6.51684	3.6773	9.85847
 176	1	2	0.076366	5.81666	4.84084	11.0048
 177	1	2	0.061036	4.53462	2.0015	10.3971
 178	1	2	0.060061	2.87031	2.62454	10.3556
 179	1	2	0.042474	4.00179	3.21789	11.5769
 180	1	2	-0.019174	2.71152	2.18597	8.06088
 181	1	1	-0.06457	3.08377	2.73736	6.01084
 182	1	1	0.061186	3.82234	1.40405	5.69239
 183	1	2	0.013749	2.0832	2.65546	5.57708
 184	1	2	0.012175	3.57089	3.57161	5.49041
 185	1	1	-0.029522	2.87773	0.18682	5.92967
 186	1	1	0.182537	3.57822	-1.20213	5.95489
 187	1	2	0.017614	2.10664	0.188055	5.14749
 188	1	2	0.005524	2.33983	0.311498	6.87728
 189	1	1	-0.245806	2.52545	-2.33036	5.9707
 190	1	1	-0.291525	4.53106	-1.36521	7.16078
 191	1	2	-0.003466	4.17275	-1.32721	5.04364
 192	1	2	0.0629	4.00361	-1.18539	8.10608
 193	1	2	0.058439	5.37818	-0.672267	7.10086
 194	1	2	0.076366	4.94491	-2.38083	7.1908
 195	1	2	0.061036	3.00969	-3.31474	5.95168
 196	1	2	0.060061	1.86947	-2.26394	5.09391
 197	1	2	0.042474	1.90072	-2.27329	6.87118
 198	1	2	-0.019174	4.66434	1.30287	6.38153
 199	1	1	-0.06457	4.37802	1.42765	4.23156
 200	1	1	0.061186	5.91861	1.65252	4.12858
 201	1	2	0.013749	4.1254	0.480004	3.74732
 202	1	2	0.012175	3.8572	2.19148	3.63884
 203	1	1	-0.029522	6.34939	2.9907	4.80915
 204	1	1	0.182537	7.87074	3.30933	4.82531
 205	1	2	0.017614	6.01475	2.99491	5.84905
 206	1	2	0.005524	5.82289	3.81924	4.31717
 207	1	1	-0.245806	8.70525	2.19881	5.5025
 208	1	1	-0.291525	8.12028	4.65312	5.5428
 209	1	2	-0.003466	8.22476	3.42625	3.79383
 210	1	2	0.0629	7.80319	4.60459	6.59255
 211	1	2	0.058439	7.56528	5.46424	5.05494
 212	1	2	0.076366	9.18564	4.91439	5.51977
 213	1	2	0.061036	8.35574	2.01445	6.52629
 214	1	2	0.060061	9.76323	2.48533	5.55068
 215	1	2	0.042474	8.64731	1.25727	4.94375
 216	1	2	-0.019174	6.39244	0.83141	4.67917
 217	1	1	-0.06457	6.43384	1.60889	2.65565
 218	1	1	0.061186	5.9513	0.445301	1.73265
 219	1	2	0.013749	6.1707	2.56271	2.18591
 220	1	2	0.012175	7.53001	1.57636	2.67633
 221	1	1	-0.029522	6.31464	-0.948134	2.33519
 222	1	1	0.182537	5.65045	-2.18008	1.65327
 223	1	2	0.017614	6.04039	-0.980114	3.39506
 224	1	2	0.005524	7.4062	-1.06348	2.3053
 225	1	1	-0.245806	4.10903	-2.19066	1.79213
 226	1	1	-0.291525	6.22205	-3.48567	2.24471
 227	1	2	-0.003466	5.89729	-2.18113	0.585931
 228	1	2	0.0629	5.79074	-4.36165	1.7441
 229	1	2	0.058439	6.00175	-3.56178	3.31723
 230	1	2	0.076366	7.31073	-3.5282	2.11496
 231	1	2	0.061036	3.6862	-3.07923	1.3069
 232	1	2	0.060061	3.64913	-1.3152	1.32205
 233	1	2	0.042474	3.80825	-2.20797	2.84629
 234	1	2	-0.019174	4.86232	0.510606	1.65419
 235	1	1	-0.06457	6.55384	0.638464	0.300318
 236	1	1	0.061186	5.60372	1.25772	-0.769498
 237	1	2	0.013749	7.45448	1.26314	0.364156
 238	1	2	0.012175	6.92218	-0.317491	-0.0902338
 239	1	1	-0.029522	5.052	2.64902	-0.330686
 240	1	1	0.182537	4.24053	3.43608	-1.39607
 241	1	2	0.017614	5.89225	3.2778	-0.00920594
 242	1	2	0.005524	4.41221	2.51333	0.550366
 243	1	1	-0.245806	5.11634	3.89284	-2.58476
 244	1	1	-0.291525	3.56687	4.66612	-0.751541
 245	1	2	-0.003466	3.43478	2.79859	-1.77827
 246	1	2	0.0629	2.96783	5.21321	-1.49028
 247	1	2	0.058439	4.31517	5.35507	-0.339657
 248	1	2	0.076366	2.89687	4.36171	0.0625135
 249	1	2	0.061036	4.51513	4.44806	-3.31545
 250	1	2	0.060061	5.56606	3.04207	-3.1076
 251	1	2	0.042474	5.92747	4.54869	-2.24416
 252	1	2	-0.019174	6.23549	1.42339	-1.64863
 253	1	1	-0.06457	4.4708	0.256703	-1.15381
 254	1	1	0.061186	4.21431	0.100278	-2.68044
 255	1	2	0.013749	4.70618	-0.737909	-0.761774
 256	1	2	0.012175	3.54546	0.565142	-0.649452
 257	1	1	-0.029522	5.36755	-0.679757	-3.38614
 258	1	1	0.182537	5.41823	-0.552539	-4.93564
 259	1	2	0.017614	5.31277	-1.73705	-3.11506
 260	1	2	0.005524	6.33461	-0.340775	-2.99656
 261	1	1	-0.245806	6.4446	-1.54699	-5.51783
 262	1	1	-0.291525	5.76164	0.879301	-5.40481
 263	1	2	-0.003466	4.44334	-0.815394	-5.35634
 264	1	2	0.0629	4.9737	1.59124	-5.13447
 265	1	2	0.058439	5.86718	0.91334	-6.49636
 266	1	2	0.076366	6.70508	1.22267	-4.96197
 267	1	2	0.061036	6.46728	-1.48591	-6.61313
 268	1	2	0.060061	6.18588	-2.57812	-5.24626
 269	1	2	0.042474	7.45407	-1.33624	-5.14245
 270	1	2	-0.019174	4.21776	1.10963	-3.09854
 271	1	1	-0.06457	2.7827	-0.45402	-2.97065
 272	1	1	0.061186	2.25772	-1.66311	-2.12507
 273	1	2	0.013749	2.66656	-0.674677	-4.03512
 274	1	2	0.012175	2.10287	0.389164	-2.79677
 275	1	1	-0.029522	2.92717	-3.03946	-2.42658
 276	1	1	0.182537	3.01235	-3.51983	-3.90651
 277	1	2	0.017614	2.41829	-3.81307	-1.83679
 278	1	2	0.005524	3.94086	-3.00964	-2.01111
 279	1	1	-0.245806	1.64061	-3.833	-4.54236
 280	1	1	-0.291525	3.91012	-4.77202	-3.99662
 281	1	2	-0.003466	3.49241	-2.74542	-4.5113
 282	1	2	0.0629	3.48221	-5.60442	-3.42355
 283	1	2	0.058439	4.91254	-4.56364	-3.60187
 284	1	2	0.076366	4.02327	-5.09672	-5.03858
 285	1	2	0.061036	1.76733	-4.2947	-5.52968
 286	1	2	0.060061	1.05765	-2.9211	-4.69226
 287	1	2	0.042474	1.06022	-4.52267	-3.91687
 288	1	2	-0.019174	2.50664	-1.46908	-1.08042
 289	1	1	-0.06457	0.7023	-1.72997	-2.19162
 290	1	1	0.061186	-0.0344747	-0.79463	-1.18995
 291	1	2	0.013749	0.40332	-1.44811	-3.20558
 292	1	2	0.012175	0.358614	-2.75888	-2.02924
 293	1	1	-0.029522	0.0623841	-1.32226	0.28152
 294	1	1	0.182537	-0.54313	-0.41775	1.39245
 295	1	2	0.017614	1.11586	-1.47398	0.53894
 296	1	2	0.005524	-0.383556	-2.31828	0.353056
 297	1	1	-0.245806	0.10231	0.986463	1.43549
 298	1	1	-0.291525	-0.385976	-1.09759	2.76872
 299	1	2	-0.003466	-1.61878	-0.298874	1.21755
 300	1	2	0.0629	-0.85319	-2.09035	2.76926
 301	1	2	0.058439	-0.869404	-0.50232	3.55172
 302	1	2	0.076366	0.672913	-1.21545	3.0314
 303	1	2	0.061036	-0.106025	1.54934	0.517964
 304	1	2	0.060061	1.19082	0.915428	1.55707
 305	1	2	0.042474	-0.295196	1.57077	2.27483
 306	1	2	-0.019174	0.520952	0.149996	-1.1986
 307	1	1	-0.06457	-1.4717	-0.401176	-1.67909
 308	1	1	0.061186	-2.5274	-1.48483	-2.105
 309	1	2	0.013749	-1.93795	0.220873	-0.907315
 310	1	2	0.012175	-1.33508	0.296855	-2.50842
 311	1	1	-0.029522	-2.69459	-2.60185	-1.03384
 312	1	1	0.182537	-3.92743	-3.54033	-1.17471
 313	1	2	0.017614	-2.74576	-2.12838	-0.0451001
 314	1	2	0.005524	-1.79887	-3.23331	-1.0428
 315	1	1	-0.245806	-5.26894	-2.77749	-1.25053
 316	1	1	-0.291525	-3.95959	-4.53932	0.00160565
 317	1	2	-0.003466	-3.82405	-4.13498	-2.09
 318	1	2	0.0629	-4.06128	-4.01685	0.960764
 319	1	2	0.058439	-3.03717	-5.13271	0.0329821
 320	1	2	0.076366	-4.8021	-5.23469	-0.10028
 321	1	2	0.061036	-5.35179	-2.21201	-2.18557
 322	1	2	0.060061	-5.37048	-2.07598	-0.414286
 323	1	2	0.042474	-6.11585	-3.47424	-1.21717
 324	1	2	-0.019174	-3.47085	-0.930554	-2.11211
 325	1	1	-0.06457	-2.35166	-2.078	-3.54614
 326	1	1	0.061186	-2.44558	-1.06994	-4.73549
 327	1	2	0.013749	-1.41043	-2.63217	-3.59712
 328	1	2	0.012175	-3.12342	-2.83557	-3.72179
 329	1	1	-0.029522	-3.91439	-0.559413	-4.91739
 330	1	1	0.182537	-4.0841	0.964377	-5.17023
 331	1	2	0.017614	-4.52215	-0.820046	-4.04398
 332	1	2	0.005524	-4.38121	-1.11013	-5.74422
 333	1	1	-0.245806	-3.70087	1.8152	-3.93941
 334	1	1	-0.291525	-5.54026	1.2741	-5.57735
 335	1	2	-0.003466	-3.44342	1.27062	-6.00327
 336	1	2	0.0629	-5.82014	0.715376	-6.47946
 337	1	2	0.058439	-5.66582	2.34247	-5.79347
 338	1	2	0.076366	-6.2391	1.00302	-4.77579
 339	1	2	0.061036	-2.63171	1.73726	-3.7184
 340	1	2	0.060061	-4.26325	1.50052	-3.05117
 341	1	2	0.042474	-3.9173	2.87563	-4.11973
 342	1	2	-0.019174	-1.7832	-0.227645	-4.52617
 343	1	1	-0.06457	-1.92184	-1.75808	-6.03559
 344	1	1	0.061186	-1.72778	-0.816901	-7.26625
 345	1	2	0.013749	-0.973292	-2.26644	-5.83034
 346	1	2	0.012175	-2.62876	-2.5569	-6.28454
 347	1	1	-0.029522	-0.675089	0.316528	-7.03921
 348	1	1	0.182537	0.682578	-0.0371427	-6.35946
 349	1	2	0.017614	-1.15052	1.08806	-6.42142
 350	1	2	0.005524	-0.474381	0.810339	-7.99904
 351	1	1	-0.245806	1.51193	1.25165	-6.16707
 352	1	1	-0.291525	1.52782	-1.07639	-7.12761
 353	1	2	-0.003466	0.483123	-0.439004	-5.36002
 354	1	2	0.0629	1.07209	-2.07114	-7.0837
 355	1	2	0.058439	2.5263	-1.16866	-6.68546
 356	1	2	0.076366	1.64931	-0.787676	-8.17913
 357	1	2	0.061036	0.966776	1.97758	-5.55084
 358	1	2	0.060061	1.73566	1.72188	-7.133
 359	1	2	0.042474	2.46426	1.03965	-5.66717
 360	1	2	-0.019174	-2.66804	-0.280621	-7.4124
 361	1	1	-0.06457	-1.47994	-1.57217	-8.61221
 362	1	1	0.061186	-2.51906	-2.65797	-9.03857
 363	1	2	0.013749	-1.42729	-0.821533	-9.41143
 364	1	2	0.012175	-0.496358	-2.04386	-8.58636
 365	1	1	-0.029522	-3.97116	-2.09398	-9.13683
 366	1	1	0.182537	-5.10441	-3.15835	-9.20282
 367	1	2	0.017614	-4.03108	-1.44102	-10.0176
 368	1	2	0.005524	-4.19528	-1.45824	-8.27559
 369	1	1	-0.245806	-6.45606	-2.47424	-9.49806
 370	1	1	-0.291525	-5.21908	-3.97755	-7.89641
 371	1	2	-0.003466	-4.91149	-3.8573	-10.0243
 372	1	2	0.0629	-6.07482	-4.66251	-7.94358
 373	1	2	0.058439	-5.36004	-3.31867	-7.03021
 374	1	2	0.076366	-4.3256	-4.58712	-7.72199
 375	1	2	0.061036	-7.26038	-3.21681	-9.57266
 376	1	2	0.060061	-6.41656	-1.92716	-10.4483
 377	1	2	0.042474	-6.71956	-1.76359	-8.7042
 378	1	2	-0.019174	-2.5018	-3.43803	-8.2745
 379	1	1	-0.06457	-2.07876	-3.29001	-10.397
 380	1	1	0.061186	-0.984821	-4.39206	-10.2911
 381	1	2	0.013749	-2.93576	-3.72031	-10.9265
 382	1	2	0.012175	-1.72908	-2.48031	-11.041
 383	1	1	-0.029522	-1.62044	-5.71531	-9.76796
 384	1	1	0.182537	-0.64312	-6.72222	-9.10243
 385	1	2	0.017614	-2.13384	-6.20913	-10.6037
 386	1	2	0.005524	-2.40668	-5.49188	-9.03836
 387	1	1	-0.245806	-1.40958	-8.013	-8.73977
 388	1	1	-0.291525	0.0300262	-6.15674	-7.82954
 389	1	2	-0.003466	0.145895	-6.98351	-9.81765
 390	1	2	0.0629	0.71054	-5.33035	-8.06328
 391	1	2	0.058439	0.625697	-6.93158	-7.33082
 392	1	2	0.076366	-0.720852	-5.79497	-7.11552
 393	1	2	0.061036	-0.752772	-8.7351	-8.24144
 394	1	2	0.060061	-1.81649	-8.49119	-9.63955
 395	1	2	0.042474	-2.24416	-7.79671	-8.0606
 396	1	2	-0.019174	-0.230589	-4.05533	-9.57425
 397	1	1	-0.06457	-0.280512	-4.6029	-11.6679
 398	1	1	0.061186	0.858141	-3.57051	-11.9574
 399	1	2	0.013749	0.138354	-5.61512	-11.709
 400	1	2	0.012175	-1.03478	-4.58292	-12.4645
 401	1	1	-0.029522	0.740306	-2.8851	-13.3529
 402	1	1	0.182537	-0.463901	-1.92778	-13.5591
 403	1	2	0.017614	0.709757	-3.66005	-14.1289
 404	1	2	0.005524	1.64687	-2.29454	-13.5303
 405	1	1	-0.245806	-0.607772	-1.57445	-15.0547
 406	1	1	-0.291525	-0.317971	-0.62401	-12.7398
 407	1	2	-0.003466	-1.38796	-2.43468	-13.2606
 408	1	2	0.0629	-1.18361	0.0309426	-12.8983
 409	1	2	0.058439	0.582492	-0.0731022	-13.04
 410	1	2	0.076366	-0.245913	-0.822364	-11.6652
 411	1	2	0.061036	-1.46223	-0.905637	-15.2164
 412	1	2	0.060061	-0.771782	-2.47847	-15.6545
 413	1	2	0.042474	0.294349	-1.0743	-15.4299
 414	1	2	-0.019174	0.786773	-2.77435	-11.2072
 415	1	1	-0.06457	2.26383	-4.21845	-11.7406
 416	1	1	0.061186	2.75302	-5.21113	-12.8565
 417	1	2	0.013749	2.9864	-3.4068	-11.6195
 418	1	2	0.012175	2.23993	-4.72582	-10.7677
 419	1	1	-0.029522	3.65599	-4.54347	-13.952
 420	1	1	0.182537	5.18232	-4.34677	-13.6835
 421	1	2	0.017614	3.23573	-3.57305	-14.2264
 422	1	2	0.005524	3.56627	-5.15103	-14.8617
 423	1	1	-0.245806	5.52396	-3.67864	-12.3345
 424	1	1	-0.291525	5.81314	-3.52649	-14.8298
 425	1	2	-0.003466	5.67334	-5.32657	-13.7001
 426	1	2	0.0629	6.89884	-3.43981	-14.6961
 427	1	2	0.058439	5.39384	-2.51268	-14.8657
 428	1	2	0.076366	5.63181	-4.00595	-15.7998
 429	1	2	0.061036	5.17516	-4.28511	-11.4905
 430	1	2	0.060061	5.07527	-2.67998	-12.2636
 431	1	2	0.042474	6.60995	-3.5653	-12.2261
 432	1	2	-0.019174	1.8423	-5.50537	-13.386
 433	1	1	-0.06457	3.36858	-6.53151	-12.285
 434	1	1	0.061186	2.52643	-7.82124	-12.5344
 435	1	2	0.013749	4.36539	-6.70551	-12.6977
 436	1	2	0.012175	3.54073	-6.41932	-11.2082
 437	1	1	-0.029522	3.16745	-9.0313	-11.7925
 438	1	1	0.182537	2.76067	-9.14767	-10.2999
 439	1	2	0.017614	4.25998	-8.95631	-11.8729
 440	1	2	0.005524	2.89943	-9.96994	-12.2955
 441	1	1	-0.245806	3.8022	-9.96393	-9.50723
 442	1	1	-0.291525	1.37197	-9.8064	-10.1534
 443	1	2	-0.003466	2.71836	-8.14519	-9.85548
 444	1	2	0.0629	1.37424	-10.8229	-10.5668
 445	1	2	0.058439	0.598993	-9.23198	-10.6767
 446	1	2	0.076366	1.08966	-9.8752	-9.09649
 447	1	2	0.061036	3.89659	-10.9797	-9.91161
 448	1	2	0.060061	3.51317	-10.0406	-8.45151
 449	1	2	0.042474	4.78775	-9.48355	-9.55034
 450	1	2	-0.019174	1.52836	-7.65078	-12.1127
 451	1	1	-0.06457	2.31197	-8.15528	-14.0427
 452	1	1	0.061186	3.60589	-8.41667	-14.8536
 453	1	2	0.013749	1.67219	-9.04523	-14.1087
 454	1	2	0.012175	1.74277	-7.35566	-14.5305
 455	1	1	-0.029522	3.29075	-8.84228	-16.3075
 456	1	1	0.182537	4.5476	-8.99219	-17.2047
 457	1	2	0.017614	2.62634	-8.09164	-16.7552
 458	1	2	0.005524	2.73251	-9.78792	-16.2971
 459	1	1	-0.245806	4.13713	-9.26263	-18.6677
 460	1	1	-0.291525	5.49778	-10.108	-16.7148
 461	1	2	-0.003466	5.09892	-8.04303	-17.1854
 462	1	2	0.0629	6.34004	-10.2298	-17.4075
 463	1	2	0.058439	4.97317	-11.0695	-16.6462
 464	1	2	0.076366	5.91715	-9.87205	-15.7298
 465	1	2	0.061036	3.49365	-8.45926	-19.0477
 466	1	2	0.060061	3.5898	-10.2099	-18.754
 467	1	2	0.042474	5.02077	-9.31844	-19.3159
 468	1	2	-0.019174	4.22314	-7.51083	-14.8726
 469	1	2	0	-8.33966	-0.49128	11.3079
 470	1	2	0	4.19365	-9.20035	-14.3622

Velocities

   1	-0.000117947	4.07807e-05	-6.83646e-05
   2	-7.40565e-05	-6.43591e-05	-8.52571e-05
   3	0.000387633	-0.000561046	0.000140041
   4	-0.000200742	0.000726531	0.00049616
   5	-0.000107338	4.4079e-05	-0.000162392
   6	-7.53287e-05	1.41407e-05	-3.52048e-05
   7	-0.000158132	3.51344e-05	-0.000199585
   8	-1.9104e-05	3.58625e-05	-0.000185105
   9	-3.12651e-05	0.000225782	0.000107896
  10	-3.23004e-05	-6.7372e-05	3.7722e-05
  11	-7.61986e-05	-2.96872e-05	-7.72156e-05
  12	-3.27705e-06	-1.51396e-05	5.9319e-05
  13	-4.39837e-05	-0.000156153	-2.63749e-05
  14	5.68788e-06	-7.92271e-05	0.000117762
  15	-6.59626e-05	0.000322933	3.66381e-05
  16	-3.70482e-05	0.000320591	0.000169282
  17	2.64158e-05	0.000183557	0.000256938
  18	-6.67816e-05	-0.000117528	-0.00016154
  19	-6.43999e-05	-0.00017669	7.08009e-05
  20	2.31675e-05	-0.00015949	5.78915e-06
  21	4.26618e-05	-0.000285937	0.000138723
  22	-0.000230264	-0.000253902	0.000106638
  23	0.000109444	-8.37596e-05	7.17222e-05
  24	2.33508e-05	-0.000233503	1.3194e-06
  25	0.000146645	-6.80038e-06	0.000298817
  26	0.000272671	9.89474e-06	-6.74098e-05
  27	-7.88649e-05	-0.000201099	-0.000153702
  28	4.54562e-05	-0.000214541	4.29055e-05
  29	9.32072e-05	-0.000346117	3.58115e-05
  30	0.000329343	-0.000252974	0.000419037
  31	5.89457e-05	-0.000493997	-0.000261328
  32	-0.000233846	0.000143353	9.14167e-05
  33	-0.000148865	-2.87981e-05	-0.000217988
  34	-7.96238e-05	-0.000345818	-0.000295096
  35	-5.17276e-05	-0.000190168	-0.000121175
  36	3.00762e-05	-0.000255169	-3.97876e-05
  37	4.40414e-05	-0.000127653	-2.11303e-05
  38	3.31815e-05	-5.59527e-05	1.61669e-05
  39	6.09174e-05	-8.45813e-05	-5.13462e-05
  40	2.85566e-05	-0.000142793	-4.78304e-05
  41	5.6712e-05	-5.43303e-05	1.21871e-05
  42	8.77064e-06	-2.5668e-05	-3.00883e-05
  43	0.000130372	-6.77716e-05	2.6994e-05
  44	9.51633e-05	2.81299e-05	-9.56734e-06
  45	2.70648e-05	-4.59824e-05	-4.64905e-05
  46	1.5291e-08	5.98796e-05	-4.54089e-05
  47	-1.21291e-06	-5.27146e-05	-8.39752e-05
  48	1.2911e-05	9.86771e-05	-0.000121426
  49	-3.5014e-05	0.000113926	2.27956e-05
  50	-8.10358e-06	2.73777e-05	-2.05667e-05
  51	4.85501e-06	2.34306e-06	-0.000146214
  52	-8.88229e-06	-0.00015702	-4.08951e-05
  53	2.51678e-05	2.14126e-06	5.5285e-05
  54	6.1605e-05	-1.31483e-05	4.76435e-05
  55	-9.22193e-05	-4.75002e-05	-6.85527e-05
  56	-0.000112081	1.60249e-05	-7.63244e-05
  57	-0.000213044	3.74136e-05	-3.73567e-05
  58	-8.4296e-05	-8.80927e-05	-0.000186418
  59	-9.55272e-05	6.11118e-06	-0.000159846
  60	-0.000103831	0.000105416	-8.29586e-05
  61	-8.7896e-05	-5.87237e-05	-0.000174992
  62	-6.54775e-05	5.68284e-05	-0.000224199
  63	-7.8539e-06	4.73871e-05	-0.000102014
  64	-7.49115e-05	0.00020057	4.59026e-05
  65	-0.000206234	9.26198e-05	-8.68243e-05
  66	-0.000196922	0.000187673	7.15131e-05
  67	-7.50165e-05	0.000289276	0.000169823
  68	6.25292e-05	0.000221381	8.01801e-06
  69	0.000215968	5.24922e-05	-0.000103802
  70	-7.2875e-05	0.000195069	-1.62421e-05
  71	-8.12112e-05	-0.000113151	-0.00020789
  72	-0.000164378	1.13405e-05	-6.93749e-05
  73	-2.24412e-05	-1.16849e-06	-8.89554e-05
  74	8.20665e-06	6.09611e-05	-8.41221e-05
  75	1.05385e-05	4.68925e-05	-1.59412e-05
  76	5.047e-05	2.22688e-05	-0.00013435
  77	5.13383e-05	1.48219e-05	-0.000138908
  78	2.16889e-05	9.61554e-05	-5.8024e-05
  79	5.96205e-05	-9.44086e-05	-0.000235632
  80	0.000215578	9.82866e-05	-0.000171815
  81	1.38835e-05	8.54434e-05	-7.00447e-05
  82	-1.97307e-05	0.000173291	-1.94197e-05
  83	3.60363e-05	4.46236e-05	2.95694e-06
  84	-1.92698e-05	0.000234782	1.94828e-05
  85	-0.000100159	0.000188848	-5.174e-05
  86	1.60373e-05	0.000195199	1.40166e-05
  87	-9.42317e-07	0.000180938	-6.51334e-05
  88	4.48878e-06	5.16079e-05	-0.000153208
  89	3.78742e-05	5.16776e-05	1.589e-05
  90	-7.065e-06	6.40887e-05	-8.86597e-05
  91	1.01786e-05	3.11924e-05	-0.000111536
  92	1.37862e-05	3.35286e-05	-8.75052e-05
  93	1.83146e-05	6.12712e-05	-0.000105542
  94	2.5375e-05	4.71215e-05	-8.00754e-05
  95	7.01154e-06	-8.61827e-06	-7.54078e-05
  96	-5.07526e-06	1.97536e-05	-1.25858e-05
  97	3.96865e-06	-3.53634e-05	-6.89714e-05
  98	2.40566e-06	-1.99305e-05	-6.99179e-05
  99	-1.19612e-05	2.55328e-05	6.49302e-06
 100	-1.37589e-05	-4.1882e-05	1.59921e-05
 101	5.80794e-06	4.39359e-05	-2.19322e-05
 102	-0.000107632	3.30834e-06	8.57851e-05
 103	5.10789e-05	-1.55569e-05	-5.65672e-05
 104	1.74035e-05	-0.000164765	6.99835e-05
 105	2.58102e-05	7.58967e-05	-3.45111e-05
 106	-1.70579e-05	5.67763e-05	7.14534e-05
 107	-1.33087e-05	-3.19678e-05	-5.58804e-06
 108	3.63279e-05	7.03129e-06	-0.000135752
 109	3.455e-05	5.50305e-05	-0.000115582
 110	2.00384e-05	-2.05251e-05	-7.10683e-05
 111	2.7897e-05	0.000101665	-4.49578e-05
 112	3.9156e-05	9.88027e-05	-0.000153444
 113	3.7506e-06	-1.03801e-05	-0.00011851
 114	3.46085e-05	-5.57836e-05	-0.000114059
 115	-3.21918e-05	-1.88022e-05	-0.000125453
 116	8.00831e-06	4.18954e-06	-8.96782e-05
 117	7.69921e-05	-5.10352e-05	-0.000113866
 118	4.58878e-05	-4.29621e-05	-0.000125956
 119	2.07102e-05	-6.96635e-05	-0.000143403
 120	5.219e-05	-5.00549e-05	-0.000111118
 121	3.70625e-05	-5.9457e-05	-0.000113728
 122	4.05881e-05	-3.84766e-05	-0.000115403
 123	1.8676e-05	-5.29869e-05	-0.000130207
 124	0.000145532	-3.98033e-05	-0.000141185
 125	8.16039e-05	-6.62658e-05	-2.72109e-05
 126	4.18131e-05	-1.81147e-05	-7.8785e-05
 127	3.39968e-05	-2.90957e-05	-9.14257e-05
 128	5.88634e-05	-4.45739e-05	-3.60603e-05
 129	2.1212e-05	-4.70506e-05	-6.94591e-05
 130	2.42439e-05	-2.82989e-05	-7.58617e-05
 131	8.5346e-05	-2.47915e-05	-6.07267e-05
 132	-1.63683e-06	-4.22381e-05	-2.96545e-05
 133	9.279e-05	-1.64296e-05	-0.00013376
 134	0.000142668	-4.2111e-05	-3.25671e-05
 135	-2.22387e-05	-1.04445e-05	4.24195e-05
 136	-5.42796e-05	-5.19215e-05	-5.9972e-05
 137	-2.74287e-05	-5.57017e-05	-7.86957e-05
 138	-3.48674e-05	-4.28067e-05	-2.66318e-05
 139	-0.000125264	-5.0013e-05	-5.62125e-05
 140	-4.39056e-05	-8.37892e-05	-0.000125129
 141	1.29961e-05	-1.23936e-05	-1.57784e-05
 142	-0.000108692	-7.0362e-05	9.68384e-05
 143	1.64235e-05	6.79282e-05	0.000124016
 144	7.91719e-05	-2.26842e-05	-6.43199e-05
 145	8.28928e-05	-5.27987e-05	-1.86383e-05
 146	6.3943e-05	-5.31908e-05	-3.55191e-05
 147	5.72697e-05	-7.04706e-05	-4.07465e-06
 148	0.000107286	-5.77028e-05	-1.36158e-06
 149	3.61668e-05	-2.61741e-05	-1.24383e-05
 150	4.0188e-06	-6.04197e-06	8.8457e-06
 151	4.21208e-05	-3.1456e-05	1.59506e-05
 152	1.66855e-05	-1.06778e-05	-3.4284e-05
 153	-5.36871e-06	1.03292e-05	9.74763e-06
 154	-3.59261e-06	1.46444e-06	1.9134e-05
 155	1.03834e-06	-2.47639e-05	2.98327e-05
 156	1.81496e-06	-1.57506e-05	1.66312e-05
 157	1.33777e-06	2.11997e-05	-7.63347e-07
 158	-1.73936e-05	1.15539e-05	3.82637e-05
 159	-3.41788e-06	-2.94397e-07	7.44552e-06
 160	-1.8408e-05	2.09813e-05	2.72931e-05
 161	-8.68347e-06	2.55657e-05	-5.20955e-06
 162	7.13239e-05	-5.74858e-05	-4.39212e-05
 163	6.74001e-05	-6.0893e-05	-4.37458e-05
 164	4.34699e-05	-6.77483e-05	-5.04353e-05
 165	4.90045e-05	-6.91945e-05	-4.54792e-05
 166	6.22787e-05	-4.6551e-05	-4.9463e-05
 167	5.09094e-05	-0.000134897	-1.40987e-06
 168	-5.25407e-06	-0.000109416	-5.19542e-06
 169	0.0001135	-0.000157497	8.22279e-06
 170	1.70946e-05	-0.000171305	4.68838e-05
 171	1.01603e-05	-0.000109184	6.80693e-06
 172	-3.72762e-05	-3.31149e-05	2.76007e-05
 173	-3.35864e-05	-0.000130776	-2.33061e-05
 174	-8.75359e-05	2.89345e-06	4.38094e-05
 175	1.67046e-05	1.91638e-05	2.50668e-05
 176	-7.61027e-05	-3.84418e-05	3.67637e-05
 177	2.8121e-05	-9.86205e-05	3.44136e-05
 178	1.34454e-05	-0.000136322	-9.9319e-06
 179	-2.16702e-05	-9.43374e-05	7.92781e-06
 180	1.63123e-05	-7.41676e-05	-8.4441e-05
 181	8.44406e-05	-2.18868e-05	-6.41172e-05
 182	3.66162e-05	-2.85592e-05	-7.45022e-05
 183	9.09691e-05	2.63262e-05	-0.000101612
 184	0.000128195	-2.02433e-05	-2.85928e-05
 185	4.34918e-06	-6.34356e-06	-7.57713e-05
 186	-5.72354e-05	-2.38862e-05	-8.801e-05
 187	-1.22735e-05	3.69121e-05	-6.27731e-05
 188	2.00616e-05	8.00535e-06	-6.51149e-05
 189	-9.8213e-05	1.53591e-05	-0.000126505
 190	-8.73662e-05	-8.4838e-05	-7.03147e-05
 191	-3.8298e-05	-3.89371e-05	-7.72917e-05
 192	-0.000115867	-0.000125335	-7.86663e-05
 193	-8.78128e-05	-8.43404e-05	-1.2883e-05
 194	-9.36424e-05	-8.53621e-05	-0.000106418
 195	-0.00014147	-5.11465e-06	-0.000125702
 196	-7.65032e-05	5.22111e-05	-0.000140963
 197	-0.000120142	2.95676e-05	-0.000140537
 198	5.59065e-05	-6.35072e-05	-9.04436e-05
 199	3.46228e-05	-5.26621e-05	-7.81525e-05
 200	2.1721e-05	1.88799e-05	-0.000110604
 201	7.5669e-05	-7.74819e-05	-5.24073e-05
 202	-1.49281e-05	-9.47776e-05	-9.92782e-05
 203	-2.64376e-06	3.96351e-05	-0.000130164
 204	-4.73901e-06	5.40241e-05	-8.6573e-05
 205	-3.91223e-05	5.15059e-05	-0.000139967
 206	-7.6781e-06	1.80621e-05	-0.000161238
 207	-3.8985e-05	6.74962e-05	-3.64266e-05
 208	-4.53681e-05	6.4955e-05	-9.80953e-05