pySIMM System Object

344 atoms
343 bonds
684 angles
1017 dihedrals
0 impropers

2 atom types
2 bond types
3 angle types
3 dihedral types

-85.684126 85.684126 xlo xhi
-85.684126 85.684126 ylo yhi
-85.684126 85.684126 zlo zhi

Masses

   1	12.01	# c3
   2	1.008	# hc

Pair Coeffs

   1	0.1094	3.3996695084235347	# c3
   2	0.0157	2.649532787749369	# hc

Bond Coeffs

   1	330.6	1.0969	# c3,hc
   2	300.9	1.5375	# c3,c3

Angle Coeffs

   1	46.34	109.8	# c3,c3,hc
   2	39.4	107.58	# hc,c3,hc
   3	62.86	111.51	# c3,c3,c3

Dihedral Coeffs

   1	1	0.16	3	0	# hc,c3,c3,c3
   2	1	0.15	3	0	# hc,c3,c3,hc
   3	3	0.18	3	0	0.25	2	180	0.2	1	180	# c3,c3,c3,c3

Atoms

   1	1	1	-0.06457	5.42296	1.6119	11.0069
   2	1	1	0.061186	5.09474	2.00028	9.54235
   3	1	2	0.013749	4.66536	0.938951	11.4237
   4	1	2	0.012175	6.39687	1.11028	11.072
   5	1	1	-0.029522	6.1679	2.95484	8.94222
   6	1	1	0.182537	6.34738	4.323	9.65858
   7	1	2	0.017614	5.91595	3.15193	7.89178
   8	1	2	0.005524	7.1339	2.43267	8.93031
   9	1	1	-0.245806	5.04317	5.15151	9.70017
  10	1	1	-0.291525	7.45813	5.14225	8.96789
  11	1	2	-0.003466	6.67409	4.14646	10.6905
  12	1	2	0.0629	7.19197	5.36894	7.92769
  13	1	2	0.058439	8.40623	4.58997	8.96692
  14	1	2	0.076366	7.62395	6.09144	9.49271
  15	1	2	0.061036	4.2792	4.66156	10.3152
  16	1	2	0.060061	4.63588	5.29484	8.69128
  17	1	2	0.042474	5.22644	6.14093	10.1375
  18	1	2	-0.019174	4.13996	2.53226	9.55133
  19	1	1	-0.06457	4.9533	0.74321	8.63239
  20	1	1	0.061186	3.70545	-0.155049	8.89567
  21	1	2	0.013749	4.94701	1.04287	7.57774
  22	1	2	0.012175	5.86725	0.15265	8.75914
  23	1	1	-0.029522	3.77472	-1.49431	8.09551
  24	1	1	0.182537	4.94034	-2.46131	8.4527
  25	1	2	0.017614	3.84851	-1.2731	7.02437
  26	1	2	0.005524	2.82816	-2.03376	8.23255
  27	1	1	-0.245806	4.86608	-3.72625	7.57122
  28	1	1	-0.291525	4.95638	-2.86761	9.94321
  29	1	2	-0.003466	5.89516	-1.97413	8.22333
  30	1	2	0.0629	5.17153	-2.00802	10.5889
  31	1	2	0.058439	5.73526	-3.61703	10.1316
  32	1	2	0.076366	3.99194	-3.29565	10.2441
  33	1	2	0.061036	3.93874	-4.28253	7.75765
  34	1	2	0.060061	5.71231	-4.39375	7.77682
  35	1	2	0.042474	4.89925	-3.46228	6.50662
  36	1	2	-0.019174	3.70937	-0.424783	9.95592
  37	1	1	-0.06457	2.33207	0.559971	8.66999
  38	1	1	0.061186	1.99319	1.01028	7.21038
  39	1	2	0.013749	1.56183	-0.135564	9.02181
  40	1	2	0.012175	2.23572	1.41758	9.34643
  41	1	1	-0.029522	0.468907	0.857429	6.91452
  42	1	1	0.182537	-0.0343664	-0.603235	6.72484
  43	1	2	0.017614	0.201299	1.41962	6.01226
  44	1	2	0.005524	-0.0906678	1.33035	7.7326
  45	1	1	-0.245806	0.539699	-1.26895	5.45261
  46	1	1	-0.291525	-1.57642	-0.631172	6.66542
  47	1	2	-0.003466	0.266615	-1.20931	7.58719
  48	1	2	0.0629	-1.94399	-1.66078	6.57163
  49	1	2	0.058439	-1.9479	-0.0559614	5.80776
  50	1	2	0.076366	-2.00927	-0.203484	7.57842
  51	1	2	0.061036	0.102091	-2.26458	5.30719
  52	1	2	0.060061	1.62551	-1.39974	5.51965
  53	1	2	0.042474	0.319307	-0.668751	4.56063
  54	1	2	-0.019174	2.52235	0.358144	6.51941
  55	1	1	-0.06457	2.4489	2.47777	6.93802
  56	1	1	0.061186	2.6575	2.84044	5.43721
  57	1	2	0.013749	3.38103	2.70131	7.46015
  58	1	2	0.012175	1.69863	3.14626	7.38083
  59	1	1	-0.029522	3.92769	2.13865	4.85556
  60	1	1	0.182537	4.1228	2.24009	3.31758
  61	1	2	0.017614	4.81191	2.55805	5.35349
  62	1	2	0.005524	3.9274	1.07427	5.11087
  63	1	1	-0.245806	3.01509	1.50507	2.52852
  64	1	1	-0.291525	5.49982	1.66842	2.91848
  65	1	2	-0.003466	4.1151	3.29396	3.02372
  66	1	2	0.0629	6.30947	2.22825	3.40318
  67	1	2	0.058439	5.6513	1.73141	1.8341
  68	1	2	0.076366	5.58778	0.614651	3.21185
  69	1	2	0.061036	2.98212	0.441794	2.79786
  70	1	2	0.060061	3.19806	1.57688	1.44909
  71	1	2	0.042474	2.02602	1.93421	2.72086
  72	1	2	-0.019174	1.78391	2.4723	4.89201
  73	1	1	-0.06457	2.73746	4.39188	5.26758
  74	1	1	0.061186	1.88371	4.94085	4.0879
  75	1	2	0.013749	2.40937	4.89958	6.18397
  76	1	2	0.012175	3.78811	4.68332	5.15428
  77	1	1	-0.029522	0.37201	4.94075	4.46551
  78	1	1	0.182537	-0.615676	5.01191	3.26603
  79	1	2	0.017614	0.18228	5.7844	5.14213
  80	1	2	0.005524	0.132083	4.03955	5.04339
  81	1	1	-0.245806	-0.525959	3.77076	2.34724
  82	1	1	-0.291525	-2.06258	5.16576	3.77949
  83	1	2	-0.003466	-0.390356	5.89893	2.66283
  84	1	2	0.0629	-2.16277	6.06473	4.40041
  85	1	2	0.058439	-2.36053	4.29785	4.38157
  86	1	2	0.076366	-2.76485	5.25781	2.94142
  87	1	2	0.061036	0.425412	3.74008	1.80411
  88	1	2	0.060061	-1.3252	3.78442	1.59646
  89	1	2	0.042474	-0.624641	2.84399	2.92675
  90	1	2	-0.019174	2.01891	4.25881	3.24843
  91	1	1	-0.06457	2.3667	6.35989	3.65637
  92	1	1	0.061186	3.65507	6.3574	2.78159
  93	1	2	0.013749	2.53083	6.96046	4.56072
  94	1	2	0.012175	1.57323	6.86572	3.09645
  95	1	1	-0.029522	4.44105	7.70322	2.84351
  96	1	1	0.182537	3.80648	8.94193	2.14249
  97	1	2	0.017614	5.42832	7.52007	2.40139
  98	1	2	0.005524	4.65205	7.95015	3.89223
  99	1	1	-0.245806	2.7913	9.68657	3.0387
 100	1	1	-0.291525	4.91089	9.92907	1.70623
 101	1	2	-0.003466	3.28765	8.62675	1.2314
 102	1	2	0.0629	4.47911	10.7939	1.18717
 103	1	2	0.058439	5.61711	9.44679	1.01855
 104	1	2	0.076366	5.47401	10.2963	2.57367
 105	1	2	0.061036	1.92252	9.06532	3.27431
 106	1	2	0.060061	2.41785	10.5853	2.5321
 107	1	2	0.042474	3.25531	9.99972	3.98255
 108	1	2	-0.019174	4.327	5.62089	3.22959
 109	1	1	-0.06457	3.33208	5.88394	1.32875
 110	1	1	0.061186	4.51276	5.84586	0.308401
 111	1	2	0.013749	2.53606	6.52718	0.941003
 112	1	2	0.012175	2.89729	4.87887	1.36625
 113	1	1	-0.029522	5.6378	4.87192	0.780425
 114	1	1	0.182537	6.99452	4.97677	0.0275383
 115	1	2	0.017614	5.25647	3.84676	0.692475
 116	1	2	0.005524	5.85408	5.01978	1.84305
 117	1	1	-0.245806	7.74095	6.29087	0.350831
 118	1	1	-0.291525	7.89247	3.7733	0.384328
 119	1	2	-0.003466	6.82724	4.93909	-1.05412
 120	1	2	0.0629	7.40523	2.82905	0.110304
 121	1	2	0.058439	8.10819	3.74718	1.46005
 122	1	2	0.076366	8.84634	3.82556	-0.155249
 123	1	2	0.061036	7.16264	7.17076	0.0490126
 124	1	2	0.060061	8.69983	6.32951	-0.181069
 125	1	2	0.042474	7.94639	6.37105	1.42578
 126	1	2	-0.019174	4.93004	6.85318	0.227201
 127	1	1	-0.06457	3.9788	5.40193	-1.0889
 128	1	1	0.061186	3.04528	6.39924	-1.84191
 129	1	2	0.013749	4.80656	5.14779	-1.75729
 130	1	2	0.012175	3.4378	4.4675	-0.915061
 131	1	1	-0.029522	3.69208	7.80087	-2.08113
 132	1	1	0.182537	5.16182	7.86962	-2.59809
 133	1	2	0.017614	3.65682	8.34021	-1.12669
 134	1	2	0.005524	3.04902	8.38216	-2.75479
 135	1	1	-0.245806	5.37586	7.24208	-3.99221
 136	1	1	-0.291525	5.63581	9.33866	-2.61981
 137	1	2	-0.003466	5.81381	7.33985	-1.8961
 138	1	2	0.0629	5.04199	9.93286	-3.32597
 139	1	2	0.058439	6.68949	9.40509	-2.91872
 140	1	2	0.076366	5.54282	9.79445	-1.62608
 141	1	2	0.061036	5.31485	6.14994	-3.94656
 142	1	2	0.060061	6.37395	7.48553	-4.37746
 143	1	2	0.042474	4.63507	7.6115	-4.71249
 144	1	2	-0.019174	2.19295	6.60285	-1.18834
 145	1	1	-0.06457	2.42186	5.81355	-3.15482
 146	1	1	0.061186	1.52495	4.53774	-3.04057
 147	1	2	0.013749	3.20183	5.61328	-3.89207
 148	1	2	0.012175	1.80535	6.60004	-3.60849
 149	1	1	-0.029522	0.470101	4.60551	-1.89369
 150	1	1	0.182537	-0.538844	5.7859	-1.9802
 151	1	2	0.017614	0.989404	4.64356	-0.927955
 152	1	2	0.005524	-0.102668	3.66943	-1.87967
 153	1	1	-0.245806	-1.46185	5.68331	-3.21522
 154	1	1	-0.291525	-1.39363	5.85384	-0.698017
 155	1	2	-0.003466	0.0118623	6.73139	-2.04806
 156	1	2	0.0629	-0.756561	5.98499	0.184915
 157	1	2	0.058439	-1.98102	4.93622	-0.567549
 158	1	2	0.076366	-2.08867	6.70179	-0.737329
 159	1	2	0.061036	-0.893453	5.77605	-4.14789
 160	1	2	0.060061	-2.20921	6.48648	-3.20757
 161	1	2	0.042474	-1.99452	4.72388	-3.22955
 162	1	2	-0.019174	0.958806	4.49718	-3.97695
 163	1	1	-0.06457	2.353	3.21326	-2.97102
 164	1	1	0.061186	2.23435	2.26894	-4.1992
 165	1	2	0.013749	3.41464	3.42814	-2.82519
 166	1	2	0.012175	2.05951	2.64355	-2.07934
 167	1	1	-0.029522	2.82626	2.87176	-5.51062
 168	1	1	0.182537	4.34616	3.2009	-5.49428
 169	1	2	0.017614	2.27043	3.78244	-5.76682
 170	1	2	0.005524	2.64483	2.17001	-6.33368
 171	1	1	-0.245806	5.22394	1.93957	-5.33688
 172	1	1	-0.291525	4.74162	3.95166	-6.78318
 173	1	2	-0.003466	4.56726	3.87132	-4.65747
 174	1	2	0.0629	4.16921	4.88261	-6.88252
 175	1	2	0.058439	4.55296	3.33615	-7.67197
 176	1	2	0.076366	5.8067	4.21497	-6.76876
 177	1	2	0.061036	5.01359	1.2132	-6.13216
 178	1	2	0.060061	5.05374	1.45183	-4.37015
 179	1	2	0.042474	6.28849	2.20055	-5.38806
 180	1	2	-0.019174	2.83689	1.38918	-3.94745
 181	1	1	-0.06457	0.769511	1.78312	-4.42558
 182	1	1	0.061186	0.67609	0.258886	-4.71738
 183	1	2	0.013749	0.14502	2.00687	-3.55191
 184	1	2	0.012175	0.333263	2.3565	-5.25405
 185	1	1	-0.029522	0.771381	-0.550266	-3.38908
 186	1	1	0.182537	0.929789	-2.08635	-3.55749
 187	1	2	0.017614	-0.130877	-0.347153	-2.79701
 188	1	2	0.005524	1.61139	-0.181137	-2.78716
 189	1	1	-0.245806	0.748849	-2.79583	-2.19862
 190	1	1	-0.291525	2.29504	-2.47157	-4.17008
 191	1	2	-0.003466	0.142316	-2.4564	-4.22285
 192	1	2	0.0629	3.12144	-2.07574	-3.56634
 193	1	2	0.058439	2.40024	-2.08691	-5.19095
 194	1	2	0.076366	2.40417	-3.56195	-4.21821
 195	1	2	0.061036	0.827062	-3.88409	-2.31406
 196	1	2	0.060061	-0.237748	-2.57515	-1.77191
 197	1	2	0.042474	1.5127	-2.47147	-1.48038
 198	1	2	-0.019174	1.54812	0.00373225	-5.33069
 199	1	1	-0.06457	-0.614175	-0.0990554	-5.52258
 200	1	1	0.061186	-0.304862	-0.762126	-6.89576
 201	1	2	0.013749	-1.24588	-0.762963	-4.92216
 202	1	2	0.012175	-1.23037	0.794111	-5.68908
 203	1	1	-0.029522	0.296536	0.282708	-7.88444
 204	1	1	0.182537	1.09013	-0.308282	-9.0838
 205	1	2	0.017614	0.96575	0.964561	-7.35047
 206	1	2	0.005524	-0.519548	0.912251	-8.26338
 207	1	1	-0.245806	2.37158	-1.05076	-8.63875
 208	1	1	-0.291525	1.46884	0.815208	-10.072
 209	1	2	-0.003466	0.455626	-1.01965	-9.62548
 210	1	2	0.0629	2.122	1.55643	-9.5938
 211	1	2	0.058439	0.572709	1.33278	-10.4366
 212	1	2	0.076366	1.99658	0.406225	-10.9427
 213	1	2	0.061036	3.01165	-0.399753	-8.0296
 214	1	2	0.060061	2.9519	-1.37615	-9.51116
 215	1	2	0.042474	2.1376	-1.94787	-8.05453
 216	1	2	-0.019174	0.442202	-1.53647	-6.70747
 217	1	1	-0.06457	-1.57513	-1.42751	-7.50385
 218	1	1	0.061186	-1.9691	-2.81033	-6.89867
 219	1	2	0.013749	-2.40522	-0.718992	-7.40096
 220	1	2	0.012175	-1.44797	-1.56326	-8.58436
 221	1	1	-0.029522	-0.987016	-3.92042	-7.39292
 222	1	1	0.182537	-1.06318	-5.28272	-6.644
 223	1	2	0.017614	0.0482833	-3.56851	-7.3284
 224	1	2	0.005524	-1.17268	-4.08925	-8.46201
 225	1	1	-0.245806	-0.570052	-5.18258	-5.18297
 226	1	1	-0.291525	-0.23028	-6.34792	-7.38722
 227	1	2	-0.003466	-2.09897	-5.63979	-6.63346
 228	1	2	0.0629	-0.302706	-7.31996	-6.88316
 229	1	2	0.058439	0.828486	-6.06187	-7.42825
 230	1	2	0.076366	-0.590751	-6.47687	-8.41538
 231	1	2	0.061036	-0.577301	-6.16913	-4.7046
 232	1	2	0.060061	-1.20534	-4.52137	-4.58344
 233	1	2	0.042474	0.457278	-4.80139	-5.14467
 234	1	2	-0.019174	-1.89528	-2.74373	-5.8088
 235	1	1	-0.06457	-3.4446	-3.15295	-7.28624
 236	1	1	0.061186	-4.52303	-2.89613	-6.19153
 237	1	2	0.013749	-3.72278	-2.59636	-8.191
 238	1	2	0.012175	-3.51973	-4.20397	-7.58737
 239	1	1	-0.029522	-4.5813	-1.40463	-5.74996
 240	1	1	0.182537	-5.77589	-1.02312	-4.83065
 241	1	2	0.017614	-4.62005	-0.76887	-6.64376
 242	1	2	0.005524	-3.64794	-1.15349	-5.23139
 243	1	1	-0.245806	-7.13913	-1.13677	-5.55036
 244	1	1	-0.291525	-5.59606	0.412763	-4.29417
 245	1	2	-0.003466	-5.7916	-1.69247	-3.962
 246	1	2	0.0629	-6.41611	0.680146	-3.61589
 247	1	2	0.058439	-5.57987	1.14107	-5.11493
 248	1	2	0.076366	-4.65632	0.505376	-3.73538
 249	1	2	0.061036	-7.35107	-2.16749	-5.85487
 250	1	2	0.060061	-7.16401	-0.502771	-6.4456
 251	1	2	0.042474	-7.95343	-0.818752	-4.88727
 252	1	2	-0.019174	-5.47685	-3.11606	-6.68399
 253	1	1	-0.06457	-4.35613	-3.87297	-4.98424
 254	1	1	0.061186	-5.6089	-4.74821	-4.69157
 255	1	2	0.013749	-3.50893	-4.54012	-5.16369
 256	1	2	0.012175	-4.09178	-3.30055	-4.08591
 257	1	1	-0.029522	-5.94761	-5.72006	-5.86582
 258	1	1	0.182537	-7.43811	-5.70996	-6.30141
 259	1	2	0.017614	-5.66439	-6.743	-5.61039
 260	1	2	0.005524	-5.33949	-5.46909	-6.74233
 261	1	1	-0.245806	-8.39456	-6.18346	-5.18461
 262	1	1	-0.291525	-7.63513	-6.58246	-7.55893
 263	1	2	-0.003466	-7.71168	-4.68119	-6.56958
 264	1	2	0.0629	-6.99926	-6.23087	-8.38116
 265	1	2	0.058439	-8.67688	-6.54302	-7.90113
 266	1	2	0.076366	-7.38185	-7.63028	-7.35347
 267	1	2	0.061036	-9.42976	-6.20714	-5.54725
 268	1	2	0.060061	-8.36558	-5.50698	-4.32226
 269	1	2	0.042474	-8.13121	-7.19237	-4.84255
 270	1	2	-0.019174	-6.4456	-4.04297	-4.61626
 271	1	1	-0.06457	-5.54684	-5.46391	-3.30233
 272	1	1	0.061186	-4.16608	-6.01732	-2.80261
 273	1	2	0.013749	-6.30158	-6.25406	-3.26469
 274	1	2	0.012175	-5.89664	-4.7229	-2.57504
 275	1	1	-0.029522	-3.52778	-7.1316	-3.6943
 276	1	1	0.182537	-3.92288	-8.62097	-3.44348
 277	1	2	0.017614	-2.44594	-7.07286	-3.52168
 278	1	2	0.005524	-3.6476	-6.88799	-4.75421
 279	1	1	-0.245806	-3.09767	-9.53822	-4.37215
 280	1	1	-0.291525	-5.42314	-8.94606	-3.61804
 281	1	2	-0.003466	-3.6475	-8.88546	-2.41513
 282	1	2	0.0629	-5.76937	-8.71724	-4.63142
 283	1	2	0.058439	-6.04365	-8.403	-2.89895
 284	1	2	0.076366	-5.6007	-10.0149	-3.44509
 285	1	2	0.061036	-3.30969	-10.595	-4.16658
 286	1	2	0.060061	-2.02211	-9.37884	-4.22461
 287	1	2	0.042474	-3.33039	-9.34219	-5.42672
 288	1	2	-0.019174	-3.45642	-5.18181	-2.8367
 289	1	1	-0.06457	-4.2231	-6.44302	-1.30588
 290	1	1	0.061186	-4.4228	-5.26591	-0.297763
 291	1	2	0.013749	-5.02767	-7.17678	-1.19365
 292	1	2	0.012175	-3.29516	-6.97209	-1.05208
 293	1	1	-0.029522	-3.15772	-5.03861	0.582003
 294	1	1	0.182537	-3.19855	-3.79936	1.52383
 295	1	2	0.017614	-2.28889	-4.93677	-0.0818911
 296	1	2	0.005524	-2.97212	-5.93784	1.18314
 297	1	1	-0.245806	-3.37839	-2.46675	0.761995
 298	1	1	-0.291525	-1.9146	-3.73656	2.37808
 299	1	2	-0.003466	-4.04134	-3.90206	2.21711
 300	1	2	0.0629	-1.9566	-2.89759	3.08438
 301	1	2	0.058439	-1.02702	-3.60628	1.74586
 302	1	2	0.076366	-1.78848	-4.65793	2.96032
 303	1	2	0.061036	-2.59102	-2.33373	0.0095587
 304	1	2	0.060061	-3.33304	-1.61765	1.45561
 305	1	2	0.042474	-4.35091	-2.42132	0.258019
 306	1	2	-0.019174	-4.52126	-4.35827	-0.90224
 307	1	1	-0.06457	-5.75788	-5.37474	0.505192
 308	1	1	0.061186	-5.80124	-6.28906	1.77945
 309	1	2	0.013749	-6.02641	-4.35247	0.789418
 310	1	2	0.012175	-6.55633	-5.68563	-0.18145
 311	1	1	-0.029522	-5.53298	-7.78559	1.42314
 312	1	1	0.182537	-5.55123	-8.81735	2.58774
 313	1	2	0.017614	-4.54422	-7.85894	0.957494
 314	1	2	0.005524	-6.26163	-8.10346	0.665903
 315	1	1	-0.245806	-4.5822	-8.44568	3.73213
 316	1	1	-0.291525	-5.20803	-10.2246	2.05383
 317	1	2	-0.003466	-6.56428	-8.88112	3.00102
 318	1	2	0.0629	-4.19094	-10.2548	1.64287
 319	1	2	0.058439	-5.90643	-10.5214	1.26115
 320	1	2	0.076366	-5.27467	-10.9712	2.85521
 321	1	2	0.061036	-3.55505	-8.3442	3.35957
 322	1	2	0.060061	-4.58721	-9.22067	4.50886
 323	1	2	0.042474	-4.87169	-7.50214	4.20976
 324	1	2	-0.019174	-5.01128	-5.96708	2.46642
 325	1	1	-0.06457	-7.16194	-6.09005	2.51681
 326	1	1	0.061186	-7.28671	-4.73589	3.2713
 327	1	2	0.013749	-7.97753	-6.20065	1.79057
 328	1	2	0.012175	-7.30501	-6.87819	3.25894
 329	1	1	-0.029522	-8.72051	-4.14424	3.30892
 330	1	1	0.182537	-9.65135	-4.66494	4.43924
 331	1	2	0.017614	-9.2043	-4.27398	2.33205
 332	1	2	0.005524	-8.61352	-3.05994	3.44388
 333	1	1	-0.245806	-10.0184	-6.15886	4.30509
 334	1	1	-0.291525	-10.9467	-3.82476	4.48012
 335	1	2	-0.003466	-9.13802	-4.52585	5.39958
 336	1	2	0.0629	-10.7188	-2.76002	4.61617
 337	1	2	0.058439	-11.5894	-4.13707	5.31269
 338	1	2	0.076366	-11.5163	-3.93574	3.54861
 339	1	2	0.061036	-10.4398	-6.37556	3.31543
 340	1	2	0.060061	-10.7633	-6.44091	5.0599
 341	1	2	0.042474	-9.14619	-6.80019	4.46457
 342	1	2	-0.019174	-6.89752	-4.84538	4.29173
 343	1	2	0	5.44935	2.49501	11.6558
 344	1	2	0	-6.64322	-3.98536	2.8011

Velocities

   1	-0.000105128	-0.000114692	-0.000102043
   2	-6.86709e-05	-3.07702e-05	-7.02998e-05
   3	-0.000477152	0.000308072	-4.50291e-05
   4	-0.000413106	-0.000758418	-0.000242371
   5	-0.000183625	5.97034e-05	-0.000146933
   6	-9.23597e-05	9.10392e-05	-0.000170498
   7	-0.000376012	9.19926e-05	-0.000126577
   8	-0.000192596	7.79823e-05	-0.000285341
   9	3.13973e-05	0.000269486	-0.000155503
  10	-5.08712e-05	1.22877e-05	-0.000185903
  11	-0.000120945	5.95712e-05	-0.000184822
  12	-0.000121114	0.000121882	-0.000156176
  13	-0.000120042	-6.25172e-05	-0.00030198
  14	7.30999e-05	-3.94931e-05	-0.000145649
  15	-3.15485e-05	0.000429916	-0.000133683
  16	3.26112e-05	0.000294125	-0.000171561
  17	0.000197441	0.000284951	-0.00024121
  18	-4.72433e-05	-2.94025e-05	-6.5377e-05
  19	-5.55609e-05	-0.000183594	5.19191e-05
  20	-2.71482e-05	-0.000137791	0.000153603
  21	1.85666e-05	-0.000375231	-9.57781e-06
  22	-3.77461e-05	-0.000167001	0.00021352
  23	-7.35759e-05	-0.000234032	0.000218859
  24	-4.39542e-05	-0.000198677	0.000200919
  25	-0.000124691	-0.000291078	0.000207184
  26	-7.00063e-05	-0.00022287	0.000280017
  27	-0.000226142	-0.000136964	0.000124683
  28	7.67987e-05	-0.000217374	0.000173264
  29	-4.36285e-05	-0.000232951	0.00011152
  30	0.000230649	-0.000271804	0.00017742
  31	4.29434e-05	-0.000292943	8.00343e-05
  32	9.14656e-05	-0.000158656	0.000318069
  33	-0.000284908	-4.54187e-05	0.000201017
  34	-0.000274517	-0.000234077	-1.32547e-05
  35	-0.000331797	-5.44602e-05	0.000174479
  36	-3.36918e-05	-0.000175563	0.000171232
  37	-1.88247e-06	-0.00018186	4.31762e-05
  38	0.000124801	-0.000169762	3.6892e-05
  39	-4.74234e-05	-0.000102037	-3.03435e-06
  40	-2.06667e-05	-0.000122667	2.9937e-05
  41	0.000130112	-8.2326e-05	-3.8147e-05
  42	4.41472e-05	-2.20379e-05	-0.000142626
  43	0.000160608	4.37131e-06	3.44789e-05
  44	0.000151566	-0.000114536	6.85256e-06
  45	3.43662e-05	-1.15708e-05	-0.000162898
  46	3.88328e-05	0.000114299	-0.000247921
  47	-6.09558e-05	-0.000112105	-0.000176538
  48	-6.53507e-05	0.000166415	-0.000450313
  49	0.000147617	0.000303387	-0.000184077
  50	1.74959e-05	8.17468e-06	-0.000208561
  51	7.90841e-06	-4.23246e-06	-0.000194896
  52	3.4312e-05	-4.98771e-05	-0.000162578
  53	5.95316e-05	1.04284e-05	-0.00015108
  54	0.000137512	-0.000218545	3.93709e-05
  55	0.000198512	-0.000206828	1.08597e-05
  56	2.82929e-05	-9.71546e-05	7.25362e-06
  57	0.000339317	-0.000333661	-0.000158303
  58	0.000374858	-0.000141296	0.000212613
  59	5.25374e-05	-3.73374e-05	-1.94415e-05
  60	0.00013254	8.38395e-05	2.96308e-07
  61	2.96977e-05	-7.69238e-05	5.59201e-05
  62	1.94985e-05	-6.11766e-05	-9.45643e-05
  63	0.000172227	0.000119693	-8.165e-05
  64	0.000155626	8.71158e-05	7.06825e-05
  65	0.000143816	9.8319e-05	8.87897e-05
  66	0.000121722	5.00053e-05	0.000187292
  67	0.000241681	0.000171025	0.000101096
  68	0.000117888	7.8583e-05	5.19556e-06
  69	0.000103953	0.000133513	-7.42341e-05
  70	0.000266859	0.000109568	-6.13585e-05
  71	0.000168739	0.000169423	-0.000157609
  72	2.64046e-05	-0.000106659	2.75418e-05
  73	-6.79555e-05	-5.80983e-05	6.95672e-05
  74	-2.7483e-05	-3.17523e-07	6.24625e-05
  75	-0.000137423	-0.000147238	7.43037e-05
  76	-5.97318e-05	-4.26027e-06	0.000140271
  77	-5.46558e-05	2.86744e-05	3.34801e-05
  78	-2.9668e-05	0.00013855	5.69023e-05
  79	-1.84127e-05	-1.06714e-05	8.58241e-05
  80	-7.33477e-05	-4.159e-06	-4.22032e-06
  81	-4.30139e-05	0.000207032	-5.33709e-05
  82	-4.40254e-05	0.000132997	1.75778e-05
  83	-2.70829e-05	0.000171409	0.000109239
  84	-5.64466e-05	0.000105632	5.91696e-05
  85	-7.97372e-05	0.000111292	-1.80404e-05
  86	-3.4882e-05	0.000176432	2.02904e-05
  87	-7.82452e-05	0.000285532	-9.00047e-05
  88	-8.75653e-05	0.000224853	-1.10877e-06
  89	2.30888e-05	0.000162305	-0.000101335
  90	-4.54367e-05	-6.62783e-06	4.3308e-05
  91	-3.17703e-05	1.07782e-07	9.05031e-05
  92	-2.06169e-05	7.33757e-05	7.93027e-05
  93	-4.39106e-06	-2.20377e-05	0.000110616
  94	-1.53941e-05	2.62992e-05	0.00012249
  95	-0.000135139	0.000136075	4.2643e-06
  96	-0.00019135	0.000112274	-1.68888e-05
  97	-0.000114594	0.000191011	1.13693e-05
  98	-0.000139535	0.000186282	1.26856e-05
  99	-0.000189964	0.00011362	-1.0029e-05
 100	-0.000233418	0.000139334	-6.48928e-05
 101	-0.00020942	5.90842e-05	9.15991e-06
 102	-0.000277977	0.000125048	-3.22129e-05
 103	-0.000259639	0.000154755	-0.00010477
 104	-0.000198156	0.000136221	-9.74115e-05
 105	-0.000194398	0.000107529	-1.105e-05
 106	-0.000177358	0.00010933	-6.85682e-06
 107	-0.000190636	0.000108546	-1.39485e-05
 108	2.13759e-05	0.000130366	0.000107217
 109	-9.18425e-06	-2.24079e-05	7.27184e-05
 110	1.77252e-05	-4.4413e-05	7.9675e-05
 111	-8.08892e-06	-3.66946e-05	4.9209e-05
 112	1.10846e-05	-1.47394e-05	0.000116453
 113	4.20559e-05	3.09937e-05	0.000109838
 114	9.41296e-05	0.000223236	0.000201708
 115	0.000163567	-7.83722e-06	-9.21239e-06
 116	-3.59355e-05	-4.63309e-05	0.000131833
 117	-0.000105991	0.000321103	0.000261907
 118	0.000239796	0.000348224	0.000254906
 119	0.000165864	0.000211146	0.000187761
 120	0.000407982	0.000277199	0.00021179
 121	0.000167246	0.000371957	0.000281276
 122	0.000284299	0.00049376	0.000326204
 123	-0.000187548	0.000251731	0.000209912
 124	-6.24135e-05	0.00045496	0.000340521
 125	-0.000199145	0.000354567	0.000280947
 126	-3.22326e-05	-3.19073e-05	5.5172e-05
 127	3.53342e-05	-0.000105706	8.85721e-05
 128	6.11434e-05	-0.000121142	6.38971e-05
 129	5.6909e-05	-0.000117357	0.000121344
 130	3.90187e-05	-0.000102261	9.87242e-05
 131	4.97389e-05	-0.000127148	7.02691e-05
 132	3.42128e-05	-9.90713e-05	1.4747e-06
 133	0.000108604	-0.000150768	8.78228e-05
 134	2.6573e-05	-9.02201e-05	0.0001223
 135	-4.55123e-07	-0.000104571	-3.51006e-06
 136	-1.38539e-05	-8.44023e-05	-4.38105e-05
 137	7.52828e-05	-7.94261e-05	-1.61338e-05
 138	-4.72494e-05	-0.0001256	-5.22974e-05
 139	-1.70615e-05	-5.53054e-05	-6.79601e-05
 140	-1.20355e-05	-5.856e-05	-5.64348e-05
 141	1.95535e-05	-0.000106037	3.0847e-06
 142	-1.07531e-05	-9.12123e-05	-3.26716e-05
 143	-2.08685e-05	-0.000114277	1.71659e-05
 144	4.28725e-05	-0.000121907	4.72692e-05
 145	4.77918e-05	-0.000110318	5.10539e-05
 146	-9.29362e-06	-5.9678e-05	2.38169e-05
 147	5.00848e-05	-0.000130197	6.33306e-05
 148	8.70857e-05	-7.80724e-05	3.64122e-05
 149	-7.25651e-05	-2.35286e-05	-3.95727e-05
 150	4.07655e-05	7.83848e-05	-4.02304e-05
 151	-0.000114647	-0.000111717	-1.41439e-05
 152	-0.000155138	3.31242e-05	-0.000124819
 153	8.28873e-05	0.000231218	-8.30189e-05
 154	-7.38702e-06	7.62774e-05	-7.21556e-05
 155	0.00013013	2.69079e-05	3.38673e-05
 156	-3.63768e-05	5.74806e-05	-4.95119e-05
 157	-2.11345e-05	8.14561e-05	-0.000103502
 158	5.21619e-06	8.48445e-05	-9.22538e-05
 159	0.000150863	1.98893e-05	-6.55666e-05
 160	0.000299829	0.000435945	-0.000172745
 161	-0.000174927	0.000379179	-4.81634e-05
 162	3.40912e-05	-5.11831e-05	-4.27866e-06
 163	-7.01395e-05	-0.000101842	8.83672e-05
 164	-0.000104392	-0.00011356	0.000101628
 165	-6.41233e-05	-0.000132577	8.73701e-05
 166	-0.000105205	-5.61104e-05	9.813e-05
 167	-7.69044e-05	-0.00012253	0.000114019
 168	-6.6179e-05	-0.000166061	0.000126275
 169	-3.987e-05	-9.26822e-05	0.000120224
 170	-0.000101439	-9.54108e-05	9.66315e-05
 171	-0.000108216	-0.000172565	0.000330361
 172	2.71989e-05	-0.000338127	5.7919e-05
 173	-7.91559e-05	-7.12646e-05	5.61485e-05
 174	1.69086e-05	-0.000365039	-0.00012939
 175	0.00012447	-0.000474465	0.000127045
 176	2.08616e-05	-0.000309911	0.000119533
 177	-0.000203065	-0.000332294	0.000507674
 178	-5.76473e-05	5.30416e-05	0.000455739
 179	-0.000101329	-0.000233085	0.000192095
 180	-0.00012677	-0.000129804	0.000116845
 181	-0.000114132	-0.000100028	0.000136404
 182	-0.000130665	-8.86067e-05	7.13262e-05
 183	-8.95948e-05	-0.000141593	0.000166441
 184	-0.000143668	-6.73233e-05	0.000168958
 185	-0.000151228	-0.000190704	1.32084e-05
 186	-4.10353e-05	-0.000160078	-0.00018998
 187	-0.000196217	-0.000320717	-1.13317e-05
 188	-0.000204575	-0.0001996	9.32047e-05
 189	1.43162e-05	-0.000391522	-0.000308443
 190	-2.12992e-05	4.64093e-05	-0.000276785
 191	-1.88986e-05	-0.000120029	-0.000235122
 192	-4.33213e-05	0.000212745	-0.000361194
 193	-0.000170592	3.13447e-05	-0.000299387
 194	0.000162857	6.75722e-05	-0.000258466
 195	3.10481e-05	-0.00037314	-0.000515206
 196	2.24749e-05	-0.000492624	-0.000245108
 197	2.61023e-05	-0.000509399	-0.000274235
 198	-0.000116202	-4.74373e-05	7.92955e-05
 199	-9.48074e-05	-8.3977e-05	2.93105e-05
 200	-5.32258e-05	-5.69308e-05	1.36708e-05
 201	-0.000101905	-0.000111992	-9.23601e-06
 202	-0.000109872	-9.18864e-05	3.74952e-05
 203	-9.12372e-06	-3.95309e-05	7.23458e-05
 204	-6.82072e-05	-6.72809e-06	1.1067e-05
 205	5.42402e-05	-0.000127047	0.000100267
 206	2.90006e-05	4.45568e-05	0.000138055
 207	-2.98146e-05	8.55992e-06	-7.41494e-05
 208	-0.000155005	1.50741e-05	3.02113e-06
 209	-7.95932e-05	-1.26932e-05	3.21014e-05
 210	-0.000246911	9.43052e-05	4.5244e-06
 211	-0.00021011	-8.78269e-05	-2.62932e-05
 212	-9.55825e-05	5.85048e-05	1.79167e-05
 213	-5.72524e-05	-3.80231e-05	-1.32337e-06
 214	-1.40834e-05	0.000133012	-0.000114114
 215	-1.06277e-06	-7.14267e-05	-0.000173632
 216	-5.68841e-05	-6.66824e-05	4.50442e-06
 217	-4.84589e-05	-1.03293e-05	-2.10546e-05
 218	-2.83289e-05	-4.88125e-05	-7.57963e-05
 219	-5.57077e-05	-2.43369e-05	3.28648e-05
 220	-7.49029e-05	4.63223e-05	-2.4441e-05
 221	-2.92263e-05	-1.49052e-06	-0.000169947
 222	3.48947e-05	-2.50974e-05	-0.000197965
 223	-3.90822e-05	1.00154e-05	-0.00023107
 224	-0.000105294	1.83218e-05	-0.000155923
 225	8.88099e-05	-6.3389e-05	-0.000209791
 226	3.13332e-05	3.67428e-05	-0.00027522
 227	4.26174e-05	-5.02898e-05	-0.000164488
 228	-4.88169e-05	-2.85215e-05	-0.000412615
 229	5.27352e-05	-8.73465e-06	-0.00016521
 230	9.90083e-05	0.000192547	-0.000322931
 231	0.000102987	-8.13973e-05	-0.000237551
 232	0.000117511	-8.57192e-05	-0.000168636
 233	9.69379e-05	-6.68915e-05	-0.000239651
 234	-3.53905e-06	-0.000104677	-8.8233e-05
 235	-1.42941e-05	-4.88376e-05	-7.70592e-05
 236	-2.09134e-06	-5.55387e-05	-3.71214e-05
 237	-3.74714e-05	-6.97225e-05	-7.17169e-05
 238	-3.53465e-05	-6.39783e-05	-4.11253e-05
 239	5.80901e-05	-4.78736e-05	-9.40547e-06
 240	9.37563e-05	-4.74406e-05	5.49166e-05
 241	4.06399e-05	-2.97018e-05	1.94247e-05
 242	6.91021e-05	-9.45553e-05	-1.93398e-05
 243	6.66383e-05	-8.31688e-05	0.000111084
 244	0.000110879	-2.30456e-05	-2.67775e-05
 245	0.000151216	-1.47696e-05	6.67109e-05
 246	8.73354e-05	4.94843e-05	-9.123e-05
 247	0.000184566	-7.51693e-05	-6.39029e-05
 248	8.25524e-05	-2.10934e-05	2.1165e-05
 249	7.37978e-05	-9.19039e-05	0.00013837
 250	9.70543e-06	-0.000103013	0.000114628
 251	9.27096e-05	-9.69624e-05	0.00015153
 252	-9.1089e-06	-3.13116e-05	-3.31882e-05
 253	2.39114e-05	-5.75655e-05	-8.27788e-05
 254	5.47529e-06	-1.42279e-05	-2.54757e-05
 255	1.39773e-05	-7.57721e-05	-9.98572e-05
 256	7.53194e-05	-6.89454e-05	-8.03117e-05
 257	-2.09031e-05	-0.000106571	3.28674e-05
 258	-3.10975e-05	-0.000102293	8.03692e-05
 259	-1.82205e-05	-8.8286e-05	0.000126472
 260	-2.12092e-05	-0.000179469	2.38019e-05
 261	-6.04686e-05	-9.98199e-06	7.89429e-05
 262	-7.7152e-05	-0.000170341	0.000117611
 263	5.44467e-06	-0.000131362	1.86981e-05
 264	-0.000114749	-0.000211403	8.45609e-05
 265	-8.72748e-05	-0.000193505	0.000169901
 266	-6.23631e-05	-0.000163377	0.000163953
 267	-7.62994e-05	0.000213856	0.000129865
 268	8.92814e-05	-7.76104e-05	0.000140764
 269	-0.000249356	-8.35912e-05	1.19452e-05
 270	1.91025e-05	1.52568e-05	-0.000113489
 271	-1.91411e-05	0.000109145	-8.73294e-06
 272	-3.40252e-05	0.000160227	0.000106881
 273	-3.54911e-05	0.000126289	5.06486e-05
 274	-3.37224e-05	0.000176306	-3.58701e-05
 275	7.49521e-08	0.000129434	0.000118138
 276	-4.95647e-05	0.000167503	0.000214974
 277	-1.55226e-06	0.0001419	0.000214937
 278	6.88705e-05	0.000107625	0.000117001
 279	-4.6182e-05	0.000145914	0.000217315
 280	-6.4679e-05	0.000179646	0.000303892
 281	-1.72098e-05	0.000179254	0.000215079
 282	-0.000127707	0.000126724	0.000293982
 283	-2.91051e-05	0.000215269	0.000306798
 284	-6.97404e-05	0.000185503	0.000371523
 285	-0.000132761	0.000156245	0.000186446
 286	-6.87016e-05	0.000105975	0.000303063
 287	-3.92324e-06	0.000222688	0.000217325
 288	-3.22786e-05	0.000148673	7.92398e-05
 289	-8.88187e-05	6.63082e-05	-1.04686e-05
 290	8.82307e-06	9.95197e-05	1.8011e-05
 291	-0.000261029	0.000235048	-4.36516e-05
 292	-0.000241153	-8.71728e-05	4.08283e-05
 293	5.58554e-05	-0.000127075	-3.16363e-05
 294	0.000166649	8.27912e-06	-0.000150915
 295	9.25333e-05	-0.000248748	3.49129e-05
 296	-5.40582e-05	-7.38146e-05	6.26041e-05
 297	0.000575375	-9.66459e-05	-0.000450802
 298	2.87049e-05	-8.73692e-05	5.53802e-05
 299	1.45849e-05	0.000257565	-0.000284702
 300	5.90472e-05	9.253e-05	-0.000104832
 301	0.00018465	-0.000390151	0.000207187
 302	-0.000272773	5.14085e-06	0.000302842
 303	0.000611602	-0.00058144	-0.000540582
 304	0.000909571	6.67349e-05	-0.000652354
 305	0.000567828	8.56311e-05	-0.0003916
 306	0.000135411	9.31704e-05	-2.37171e-05
 307	1.5593e-05	0.000190202	-9.21819e-05
 308	-0.000150377	0.000206259	-0.000118663
 309	-1.77371e-05	0.000232354	-0.000172345
 310	6.0848e-05	0.000166165	-0.00012447
 311	-0.000349516	0.0001955	-4.43941e-05
 312	-0.000101545	0.000265459	6.12852e-05
 313	-0.000475289	5.67076e-05	-0.00030647
 314	-0.00059725	0.00018666	0.000230333
 315	-0.000117406	0.000506504	6.55786e-06
 316	0.000188113	0.000325289	-1.12082e-05
 317	-5.1499e-05	8.38602e-05	0.000114126
 318	0.000114725	0.000646651	-0.000191664
 319	0.00010943	0.000203276	0.00011529
 320	0.000513863	0.000321877	-1.75573e-05
 321	-0.000221913	0.00113204	-9.57872e-05
 322	0.000380894	0.000345359	-0.000165345
 323	-0.000569536	0.00026224	0.000237014
 324	-0.000202957	0.000167555	-2.25375e-05
 325	-0.000186788	0.000301223	-0.000347594
 326	-1.09687e-05	0.000214246	-0.000145434
 327	5.34929e-06	0.000634056	-0.000567322
 328	-0.000494018	0.000176926	-0.000534426
 329	2.37281e-05	0.000219625	-2.64211e-05
 330	0.000290302	-0.000129054	3.26254e-05
 331	-7.06319e-05	0.000192162	-2.24966e-05
 332	-9.15066e-05	0.000197218	-3.46694e-05
 333	0.000601433	-0.000188237	-0.000272114
 334	0.000210073	-0.000337244	0.000491584
 335	0.000461505	-0.000245571	-5.48904e-05
 336	9.1365e-05	-0.00038525	0.00109718
 337	0.000313615	-0.00089409	0.000371482
 338	0.000189427	9.47719e-05	0.000434393