pySIMM System Object

326 atoms
325 bonds
648 angles
963 dihedrals
0 impropers

2 atom types
2 bond types
3 angle types
3 dihedral types

-84.067056 84.067056 xlo xhi
-84.067056 84.067056 ylo yhi
-84.067056 84.067056 zlo zhi

Masses

   1	12.01	# c3
   2	1.008	# hc

Pair Coeffs

   1	0.1094	3.3996695084235347	# c3
   2	0.0157	2.649532787749369	# hc

Bond Coeffs

   1	330.6	1.0969	# c3,hc
   2	300.9	1.5375	# c3,c3

Angle Coeffs

   1	46.34	109.8	# c3,c3,hc
   2	39.4	107.58	# hc,c3,hc
   3	62.86	111.51	# c3,c3,c3

Dihedral Coeffs

   1	1	0.16	3	0	# hc,c3,c3,c3
   2	1	0.15	3	0	# hc,c3,c3,hc
   3	3	0.18	3	0	0.25	2	180	0.2	1	180	# c3,c3,c3,c3

Atoms

   1	1	1	-0.06457	-5.88359	-0.371223	11.9898
   2	1	1	0.061186	-4.89023	-0.763648	10.8664
   3	1	2	0.013749	-6.85055	-0.0609252	11.5773
   4	1	2	0.012175	-6.05769	-1.21279	12.6723
   5	1	1	-0.029522	-3.50782	-1.19692	11.4346
   6	1	1	0.182537	-2.73583	-0.129714	12.2602
   7	1	2	0.017614	-2.86778	-1.50875	10.5986
   8	1	2	0.005524	-3.65017	-2.08951	12.0583
   9	1	1	-0.245806	-2.44318	1.1546	11.4516
  10	1	1	-0.291525	-1.41191	-0.723854	12.7861
  11	1	2	-0.003466	-3.33363	0.146113	13.1373
  12	1	2	0.0629	-0.752305	-1.0116	11.9576
  13	1	2	0.058439	-1.60103	-1.61438	13.3987
  14	1	2	0.076366	-0.879313	0.00480596	13.4099
  15	1	2	0.061036	-3.36912	1.68018	11.1901
  16	1	2	0.060061	-1.90369	0.921703	10.5248
  17	1	2	0.042474	-1.82885	1.84956	12.0378
  18	1	2	-0.019174	-4.72971	0.119649	10.2421
  19	1	1	-0.06457	-5.45518	-1.90711	9.97129
  20	1	1	0.061186	-6.75797	-1.5963	9.17115
  21	1	2	0.013749	-4.68372	-2.24972	9.27167
  22	1	2	0.012175	-5.64329	-2.7636	10.6296
  23	1	1	-0.029522	-7.19852	-2.81306	8.29916
  24	1	1	0.182537	-7.50303	-4.13833	9.05616
  25	1	2	0.017614	-6.4136	-3.02807	7.56402
  26	1	2	0.005524	-8.09055	-2.52917	7.72515
  27	1	1	-0.245806	-7.90359	-5.24154	8.05369
  28	1	1	-0.291525	-8.60637	-3.9859	10.1272
  29	1	2	-0.003466	-6.58927	-4.48248	9.55538
  30	1	2	0.0629	-8.28422	-3.3259	10.9413
  31	1	2	0.058439	-8.84848	-4.95816	10.5745
  32	1	2	0.076366	-9.52461	-3.5746	9.6896
  33	1	2	0.061036	-8.825	-4.97423	7.52106
  34	1	2	0.060061	-8.0722	-6.19451	8.57086
  35	1	2	0.042474	-7.11162	-5.39973	7.31083
  36	1	2	-0.019174	-7.54772	-1.44839	9.91562
  37	1	1	-0.06457	-6.75808	-0.267672	8.33907
  38	1	1	0.061186	-5.902	-0.196122	7.02764
  39	1	2	0.013749	-7.80738	-0.0992694	8.07881
  40	1	2	0.012175	-6.50803	0.583989	8.98248
  41	1	1	-0.029522	-6.45907	0.892746	6.05522
  42	1	1	0.182537	-7.84369	0.610748	5.40224
  43	1	2	0.017614	-5.75076	1.0522	5.23569
  44	1	2	0.005524	-6.5081	1.84769	6.59519
  45	1	1	-0.245806	-7.85362	-0.68329	4.55733
  46	1	1	-0.291525	-8.26009	1.8067	4.51929
  47	1	2	-0.003466	-8.60802	0.512553	6.18082
  48	1	2	0.0629	-9.25519	1.64451	4.08661
  49	1	2	0.058439	-7.54955	1.95546	3.6962
  50	1	2	0.076366	-8.29829	2.73104	5.10934
  51	1	2	0.061036	-8.81194	-0.796249	4.03524
  52	1	2	0.060061	-7.71985	-1.57201	5.18474
  53	1	2	0.042474	-7.05581	-0.667531	3.80389
  54	1	2	-0.019174	-5.97611	-1.15752	6.52272
  55	1	1	-0.06457	-4.39831	0.0956905	7.33356
  56	1	1	0.061186	-3.36808	-0.135132	6.18189
  57	1	2	0.013749	-4.0585	-0.509907	8.17288
  58	1	2	0.012175	-4.33166	1.13667	7.6769
  59	1	1	-0.029522	-3.30659	-1.64984	5.79405
  60	1	1	0.182537	-2.38898	-2.04159	4.60448
  61	1	2	0.017614	-2.9961	-2.22076	6.67914
  62	1	2	0.005524	-4.31002	-2.00869	5.54446
  63	1	1	-0.245806	-2.8438	-1.40111	3.27309
  64	1	1	-0.291525	-2.35057	-3.57582	4.44376
  65	1	2	-0.003466	-1.36455	-1.72487	4.82173
  66	1	2	0.0629	-1.96377	-4.05351	5.35274
  67	1	2	0.058439	-1.69876	-3.86303	3.60956
  68	1	2	0.076366	-3.35273	-3.97661	4.2454
  69	1	2	0.061036	-3.86226	-1.7179	3.01515
  70	1	2	0.060061	-2.1775	-1.69791	2.45352
  71	1	2	0.042474	-2.83472	-0.307508	3.32492
  72	1	2	-0.019174	-3.69546	0.434782	5.30993
  73	1	1	-0.06457	-1.98058	0.412839	6.65001
  74	1	1	0.061186	-1.08129	1.06975	5.55588
  75	1	2	0.013749	-2.12334	1.1687	7.4334
  76	1	2	0.012175	-1.4471	-0.401736	7.15349
  77	1	1	-0.029522	-1.64897	2.45704	5.12469
  78	1	1	0.182537	-1.03485	3.0735	3.83245
  79	1	2	0.017614	-1.51075	3.16051	5.95634
  80	1	2	0.005524	-2.73251	2.38532	4.97534
  81	1	1	-0.245806	-1.29344	2.2157	2.5722
  82	1	1	-0.291525	-1.59348	4.49438	3.60762
  83	1	2	-0.003466	0.04962	3.17387	3.95268
  84	1	2	0.0629	-1.37342	5.13992	4.46713
  85	1	2	0.058439	-2.68147	4.47177	3.46554
  86	1	2	0.076366	-1.1422	4.95433	2.71955
  87	1	2	0.061036	-0.779527	1.24937	2.62941
  88	1	2	0.060061	-0.922806	2.72634	1.67481
  89	1	2	0.042474	-2.36642	2.03046	2.43611
  90	1	2	-0.019174	-1.07184	0.424879	4.67799
  91	1	1	-0.06457	0.37811	1.19391	6.08846
  92	1	1	0.061186	1.18683	-0.134792	6.04386
  93	1	2	0.013749	0.331744	1.56842	7.11941
  94	1	2	0.012175	0.929642	1.9483	5.51901
  95	1	1	-0.029522	2.2514	-0.23505	7.1806
  96	1	1	0.182537	3.46471	0.74349	7.13789
  97	1	2	0.017614	2.63342	-1.26328	7.1791
  98	1	2	0.005524	1.74601	-0.130291	8.14965
  99	1	1	-0.245806	3.13536	2.16214	7.65733
 100	1	1	-0.291525	4.63064	0.170817	7.97279
 101	1	2	-0.003466	3.8233	0.83775	6.10892
 102	1	2	0.0629	5.51026	0.824298	7.91603
 103	1	2	0.058439	4.92803	-0.818587	7.60539
 104	1	2	0.076366	4.34552	0.0714727	9.02786
 105	1	2	0.061036	2.46081	2.69744	6.98318
 106	1	2	0.060061	4.04847	2.76556	7.73524
 107	1	2	0.042474	2.67317	2.12137	8.65178
 108	1	2	-0.019174	0.473899	-0.936276	6.25324
 109	1	1	-0.06457	1.75804	-0.383628	4.61184
 110	1	1	0.061186	2.49962	-1.73791	4.36964
 111	1	2	0.013749	2.42659	0.449646	4.37401
 112	1	2	0.012175	0.938793	-0.315969	3.88546
 113	1	1	-0.029522	1.5581	-2.95182	4.65338
 114	1	1	0.182537	2.16997	-4.37225	4.48651
 115	1	2	0.017614	0.68101	-2.87216	3.99871
 116	1	2	0.005524	1.18308	-2.88766	5.68054
 117	1	1	-0.245806	3.42711	-4.58284	5.35917
 118	1	1	-0.291525	1.11692	-5.44813	4.82532
 119	1	2	-0.003466	2.44876	-4.52789	3.43776
 120	1	2	0.0629	0.240503	-5.3535	4.17277
 121	1	2	0.058439	0.781306	-5.35887	5.86633
 122	1	2	0.076366	1.52994	-6.45479	4.68454
 123	1	2	0.061036	4.24689	-3.93158	5.03734
 124	1	2	0.060061	3.78385	-5.61747	5.28253
 125	1	2	0.042474	3.21268	-4.3735	6.4149
 126	1	2	-0.019174	3.33892	-1.79698	5.06909
 127	1	1	-0.06457	3.06879	-1.80609	2.91715
 128	1	1	0.061186	4.08812	-0.702825	2.4944
 129	1	2	0.013749	3.54927	-2.77567	2.75616
 130	1	2	0.012175	2.21121	-1.77303	2.23593
 131	1	1	-0.029522	5.27916	-0.537804	3.48973
 132	1	1	0.182537	6.23784	-1.75887	3.63901
 133	1	2	0.017614	4.87239	-0.278236	4.47083
 134	1	2	0.005524	5.86423	0.34514	3.20045
 135	1	1	-0.245806	7.50982	-1.61732	2.77049
 136	1	1	-0.291525	6.65819	-1.95005	5.11204
 137	1	2	-0.003466	5.72001	-2.67435	3.33161
 138	1	2	0.0629	7.18631	-1.06498	5.48912
 139	1	2	0.058439	7.32272	-2.81668	5.2183
 140	1	2	0.076366	5.78233	-2.12331	5.7482
 141	1	2	0.061036	7.27092	-1.51419	1.70711
 142	1	2	0.060061	8.15026	-2.50157	2.8794
 143	1	2	0.042474	8.09426	-0.738662	3.07167
 144	1	2	-0.019174	3.55803	0.254182	2.5097
 145	1	1	-0.06457	4.61635	-0.900645	1.04138
 146	1	1	0.061186	3.60251	-0.829141	-0.141264
 147	1	2	0.013749	5.15105	-1.8532	0.978538
 148	1	2	0.012175	5.37703	-0.130489	0.858454
 149	1	1	-0.029522	2.62325	0.382103	-0.0770946
 150	1	1	0.182537	3.27503	1.79031	0.00431887
 151	1	2	0.017614	1.94935	0.249392	0.778923
 152	1	2	0.005524	1.98212	0.361149	-0.966779
 153	1	1	-0.245806	4.07557	2.143	-1.26838
 154	1	1	-0.291525	2.19042	2.86028	0.251602
 155	1	2	-0.003466	3.96364	1.82552	0.856492
 156	1	2	0.0629	1.64769	2.65502	1.18292
 157	1	2	0.058439	1.46401	2.88304	-0.570792
 158	1	2	0.076366	2.63993	3.85724	0.33962
 159	1	2	0.061036	4.92093	1.45974	-1.40634
 160	1	2	0.060061	4.48357	3.15914	-1.19914
 161	1	2	0.042474	3.43916	2.09182	-2.16087
 162	1	2	-0.019174	4.24223	-0.67294	-1.01459
 163	1	1	-0.06457	2.81957	-2.16496	-0.384042
 164	1	1	0.061186	3.00982	-2.81794	-1.78979
 165	1	2	0.013749	3.07712	-2.90244	0.381891
 166	1	2	0.012175	1.74597	-1.98725	-0.237406
 167	1	1	-0.029522	4.45721	-3.36579	-2.01033
 168	1	1	0.182537	4.98918	-4.37192	-0.948951
 169	1	2	0.017614	5.1565	-2.52352	-2.07943
 170	1	2	0.005524	4.50229	-3.88191	-2.97535
 171	1	1	-0.245806	4.08188	-5.61275	-0.79215
 172	1	1	-0.291525	6.42208	-4.81657	-1.30954
 173	1	2	-0.003466	5.05103	-3.87687	0.025041
 174	1	2	0.0629	7.09241	-3.95079	-1.38053
 175	1	2	0.058439	6.44076	-5.34469	-2.27138
 176	1	2	0.076366	6.82449	-5.49007	-0.542474
 177	1	2	0.061036	3.94261	-6.12166	-1.75426
 178	1	2	0.060061	3.09509	-5.33847	-0.400893
 179	1	2	0.042474	4.52386	-6.32932	-0.0884739
 180	1	2	-0.019174	2.3302	-3.67719	-1.82456
 181	1	1	-0.06457	2.5395	-1.83616	-2.91049
 182	1	1	0.061186	2.66498	-2.30689	-4.39338
 183	1	2	0.013749	1.49267	-1.57081	-2.7189
 184	1	2	0.012175	3.08505	-0.896717	-2.80731
 185	1	1	-0.029522	1.63605	-3.43478	-4.70698
 186	1	1	0.182537	1.69218	-4.05586	-6.13519
 187	1	2	0.017614	0.623371	-3.05305	-4.52739
 188	1	2	0.005524	1.78547	-4.24792	-3.9859
 189	1	1	-0.245806	0.702622	-5.23537	-6.2419
 190	1	1	-0.291525	3.10562	-4.52752	-6.54344
 191	1	2	-0.003466	1.36846	-3.30821	-6.86693
 192	1	2	0.0629	3.5126	-5.23358	-5.80878
 193	1	2	0.058439	3.79803	-3.68262	-6.63326
 194	1	2	0.076366	3.07837	-5.02808	-7.51946
 195	1	2	0.061036	0.67633	-5.629	-7.2658
 196	1	2	0.060061	-0.314003	-4.91866	-5.9783
 197	1	2	0.042474	0.991033	-6.05325	-5.56929
 198	1	2	-0.019174	3.65801	-2.7344	-4.54849
 199	1	1	-0.06457	2.55677	-1.06997	-5.34076
 200	1	1	0.061186	3.92832	-0.496074	-5.82619
 201	1	2	0.013749	1.97098	-1.33696	-6.22218
 202	1	2	0.012175	1.97825	-0.275587	-4.85033
 203	1	1	-0.029522	4.89759	-0.156925	-4.64737
 204	1	1	0.182537	6.32336	0.336405	-5.02642
 205	1	2	0.017614	5.03463	-1.04616	-4.0242
 206	1	2	0.005524	4.4253	0.601265	-4.00993
 207	1	1	-0.245806	7.06201	-0.63908	-5.97046
 208	1	1	-0.291525	7.16313	0.556433	-3.75017
 209	1	2	-0.003466	6.24951	1.30937	-5.52638
 210	1	2	0.0629	7.2819	-0.379133	-3.18871
 211	1	2	0.058439	6.68584	1.29339	-3.09317
 212	1	2	0.076366	8.16261	0.932282	-4.00234
 213	1	2	0.061036	7.10249	-1.64754	-5.53949
 214	1	2	0.060061	8.09127	-0.303004	-6.14734
 215	1	2	0.042474	6.56751	-0.700425	-6.94728
 216	1	2	-0.019174	4.41287	-1.27989	-6.41725
 217	1	1	-0.06457	3.71507	0.756337	-6.7273
 218	1	1	0.061186	2.83362	0.616643	-8.00479
 219	1	2	0.013749	3.26788	1.51505	-6.08049
 220	1	2	0.012175	4.68809	1.14102	-7.05112
 221	1	1	-0.029522	3.25782	-0.613351	-8.86854
 222	1	1	0.182537	2.35718	-0.898907	-10.1076
 223	1	2	0.017614	3.2294	-1.50686	-8.23649
 224	1	2	0.005524	4.30563	-0.505944	-9.17879
 225	1	1	-0.245806	2.02225	-2.40252	-10.2217
 226	1	1	-0.291525	3.01488	-0.424589	-11.4239
 227	1	2	-0.003466	1.40206	-0.372635	-9.98694
 228	1	2	0.0629	2.33494	-0.575389	-12.2717
 229	1	2	0.058439	3.93565	-0.987111	-11.6244
 230	1	2	0.076366	3.27366	0.639302	-11.3893
 231	1	2	0.061036	1.38312	-2.5935	-11.0929
 232	1	2	0.060061	1.48415	-2.75067	-9.33122
 233	1	2	0.042474	2.93472	-3.00301	-10.3285
 234	1	2	-0.019174	1.80045	0.425643	-7.69369
 235	1	1	-0.06457	2.85774	1.94367	-8.83766
 236	1	1	0.061186	2.36639	3.28539	-8.18162
 237	1	2	0.013749	3.87386	2.09288	-9.22504
 238	1	2	0.012175	2.2542	1.78793	-9.73273
 239	1	1	-0.029522	3.49609	4.00252	-7.3743
 240	1	1	0.182537	3.3334	5.54191	-7.21323
 241	1	2	0.017614	4.46717	3.81268	-7.84936
 242	1	2	0.005524	3.56001	3.57257	-6.37052
 243	1	1	-0.245806	3.48396	6.30531	-8.54947
 244	1	1	-0.291525	4.36787	6.0787	-6.20024
 245	1	2	-0.003466	2.33813	5.7607	-6.80817
 246	1	2	0.0629	4.24359	7.15863	-6.0512
 247	1	2	0.058439	5.39211	5.8978	-6.55049
 248	1	2	0.076366	4.24867	5.5913	-5.22444
 249	1	2	0.061036	2.66802	6.0723	-9.2428
 250	1	2	0.060061	4.4345	6.05779	-9.03859
 251	1	2	0.042474	3.46324	7.38915	-8.37966
 252	1	2	-0.019174	2.15368	3.94804	-9.0257
 253	1	1	-0.06457	1.0425	3.1565	-7.35645
 254	1	1	0.061186	-0.302636	3.28753	-8.14509
 255	1	2	0.013749	1.06744	2.23281	-6.77819
 256	1	2	0.012175	1.02505	3.94083	-6.59052
 257	1	1	-0.029522	-0.322839	2.56521	-9.52736
 258	1	1	0.182537	-1.63222	2.67604	-10.3598
 259	1	2	0.017614	-0.0530773	1.51278	-9.39325
 260	1	2	0.005524	0.464403	2.99695	-10.1549
 261	1	1	-0.245806	-1.49955	1.85407	-11.6594
 262	1	1	-0.291525	-1.99318	4.13854	-10.7028
 263	1	2	-0.003466	-2.4677	2.24921	-9.79558
 264	1	2	0.0629	-2.20279	4.72068	-9.79773
 265	1	2	0.058439	-2.89055	4.17727	-11.333
 266	1	2	0.076366	-1.17514	4.62866	-11.2456
 267	1	2	0.061036	-1.27906	0.802831	-11.4348
 268	1	2	0.060061	-0.692124	2.24497	-12.2917
 269	1	2	0.042474	-2.43155	1.88546	-12.2375
 270	1	2	-0.019174	-0.366376	4.35506	-8.39168
 271	1	1	-0.06457	-1.53559	3.01446	-7.21656
 272	1	1	0.061186	-1.70168	1.602	-6.54567
 273	1	2	0.013749	-2.46112	3.26227	-7.74968
 274	1	2	0.012175	-1.48131	3.77397	-6.42885
 275	1	1	-0.029522	-2.28774	0.556526	-7.54688
 276	1	1	0.182537	-2.37584	-0.9206	-7.07134
 277	1	2	0.017614	-1.68022	0.540822	-8.45062
 278	1	2	0.005524	-3.28749	0.888053	-7.8567
 279	1	1	-0.245806	-1.01437	-1.48085	-6.60662
 280	1	1	-0.291525	-2.92586	-1.8078	-8.20845
 281	1	2	-0.003466	-3.08645	-0.995328	-6.24136
 282	1	2	0.0629	-3.05636	-2.84218	-7.86645
 283	1	2	0.058439	-2.24202	-1.817	-9.0671
 284	1	2	0.076366	-3.90142	-1.44217	-8.55248
 285	1	2	0.061036	-1.11463	-2.53462	-6.32067
 286	1	2	0.060061	-0.631951	-0.941048	-5.73384
 287	1	2	0.042474	-0.267996	-1.4122	-7.40782
 288	1	2	-0.019174	-0.723477	1.24619	-6.21591
 289	1	1	-0.06457	-2.60487	1.732	-5.27875
 290	1	1	0.061186	-1.89721	2.35711	-4.03493
 291	1	2	0.013749	-3.48393	2.32552	-5.5571
 292	1	2	0.012175	-3.01428	0.764563	-4.98213
 293	1	1	-0.029522	-1.05927	1.32266	-3.21951
 294	1	1	0.182537	-1.86001	0.275181	-2.38017
 295	1	2	0.017614	-0.419493	1.9014	-2.54018
 296	1	2	0.005524	-0.357537	0.808007	-3.88796
 297	1	1	-0.245806	-1.31343	0.182344	-0.938599
 298	1	1	-0.291525	-1.84139	-1.13253	-3.01452
 299	1	2	-0.003466	-2.90853	0.582199	-2.3026
 300	1	2	0.0629	-2.37843	-1.84934	-2.38083
 301	1	2	0.058439	-0.815482	-1.4966	-3.14037
 302	1	2	0.076366	-2.32914	-1.13486	-3.99276
 303	1	2	0.061036	-1.33712	1.16294	-0.447074
 304	1	2	0.060061	-0.280006	-0.182034	-0.934505
 305	1	2	0.042474	-1.91801	-0.507195	-0.336044
 306	1	2	-0.019174	-1.16853	3.09631	-4.38717
 307	1	1	-0.06457	-2.9018	3.13512	-3.13689
 308	1	1	0.061186	-3.29183	4.51773	-3.71558
 309	1	2	0.013749	-3.80967	2.53619	-2.98913
 310	1	2	0.012175	-2.46085	3.29178	-2.14365
 311	1	1	-0.029522	-4.39776	5.20606	-2.88057
 312	1	1	0.182537	-4.68737	6.67216	-3.3006
 313	1	2	0.017614	-4.09935	5.19761	-1.82406
 314	1	2	0.005524	-5.32053	4.61496	-2.9503
 315	1	1	-0.245806	-5.77559	7.28605	-2.39437
 316	1	1	-0.291525	-5.10878	6.80417	-4.78164
 317	1	2	-0.003466	-3.7682	7.25542	-3.15855
 318	1	2	0.0629	-5.99069	6.1878	-4.99678
 319	1	2	0.058439	-4.29996	6.49994	-5.4566
 320	1	2	0.076366	-5.35595	7.84636	-5.01997
 321	1	2	0.061036	-5.48215	7.23128	-1.33861
 322	1	2	0.060061	-6.7294	6.75609	-2.51241
 323	1	2	0.042474	-5.93945	8.34224	-2.64279
 324	1	2	-0.019174	-2.40133	5.1588	-3.74477
 325	1	2	0	-5.50696	0.474041	12.5773
 326	1	2	0	-3.63844	4.40361	-4.74867

Velocities

   1	0.000134559	2.05773e-05	-0.00018499
   2	0.000137691	-0.000155493	-0.000129005
   3	0.000388348	0.000543073	-0.00035937
   4	-0.000376968	-0.00010658	-0.000474386
   5	0.000120087	-0.00014172	-5.59937e-05
   6	0.000126567	-2.09475e-05	-0.000184863
   7	0.000114875	-0.000311811	3.98908e-06
   8	0.000113189	-5.85137e-05	9.61327e-05
   9	-4.55755e-05	3.14223e-06	-0.000222908
  10	0.000186791	0.000229734	-0.000122532
  11	0.000147608	1.06499e-06	-0.000175785
  12	0.000247145	0.000285847	-0.000101698
  13	0.00030918	0.000237876	-6.61849e-05
  14	7.23833e-05	0.000354512	-0.00014501
  15	-9.14464e-05	-0.000166149	-0.000376622
  16	0.000104689	4.77214e-05	-0.000153391
  17	-0.000235952	0.000162383	-0.000219754
  18	0.000179359	-0.000198294	-0.000181501
  19	-8.59017e-05	-0.000100015	-6.60327e-05
  20	1.90595e-06	6.49769e-05	-0.000116121
  21	-0.000132687	-0.000402725	2.2286e-05
  22	-0.000270943	1.52586e-05	4.70387e-05
  23	-0.00011758	0.000183443	-0.000195729
  24	-0.000111745	0.000195662	-0.000198082
  25	-0.000163588	0.000168615	-0.000232542
  26	-0.000119333	0.000278967	-0.000125816
  27	-0.000167086	0.000224227	-0.000214115
  28	-2.72251e-05	0.000296955	-0.00015501
  29	-8.36578e-05	0.000196638	-0.000272588
  30	-1.93795e-05	0.000519397	-0.000311412
  31	0.000125923	0.000392564	8.78039e-05
  32	-0.000103037	0.000130375	-0.000172437
  33	-0.000225249	0.000215134	-0.000130697
  34	-8.35604e-05	0.000217922	-0.000240959
  35	-0.000231619	0.000277056	-0.000307092
  36	3.89033e-07	0.000160009	-0.000134242
  37	3.62702e-05	9.60132e-05	-7.44156e-05
  38	-4.55248e-05	3.74845e-05	-0.000109614
  39	4.36698e-05	0.000179831	-1.81614e-05
  40	0.000117276	7.26626e-05	-7.24261e-05
  41	-0.000127256	4.05036e-05	-8.73334e-05
  42	-0.000115115	-0.000126573	-4.39351e-05
  43	-0.000118641	0.000139696	-6.37861e-05
  44	-0.000234901	1.70297e-05	-2.82763e-05
  45	-7.30451e-05	-0.000219534	6.49742e-05
  46	-0.000255731	-0.000274959	-0.000181391
  47	-9.45839e-05	-0.000106757	-3.44825e-05
  48	-0.000244973	-0.000419872	-0.000118839
  49	-0.000303072	-0.000323332	-0.000203505
  50	-0.000321458	-0.000206018	-0.000295757
  51	-6.80624e-05	-0.000306451	0.000101446
  52	-3.95729e-05	-0.000164305	0.000150277
  53	-8.70034e-05	-0.000262186	6.44607e-05
  54	-7.40789e-05	4.55576e-05	-0.000124112
  55	-4.46762e-05	-0.000145587	-5.72707e-05
  56	-3.47068e-05	3.50969e-05	-6.20457e-05
  57	-0.000118547	-0.000452911	-0.000250843
  58	4.42831e-05	-0.00025231	0.000261623
  59	5.20522e-05	3.89733e-05	-0.000110854
  60	0.000115804	4.97603e-05	-4.25422e-05
  61	2.73417e-05	5.30971e-05	-0.000102858
  62	4.96163e-05	5.13556e-05	-0.000131901
  63	0.000256045	1.28332e-05	-0.000105962
  64	7.93272e-05	4.10809e-05	7.36925e-06
  65	0.000107694	4.18495e-05	4.29104e-05
  66	1.58779e-05	8.45332e-05	5.48462e-05
  67	7.88412e-05	-4.75067e-06	5.47343e-05
  68	5.86084e-05	9.10965e-05	8.07048e-06
  69	0.000385489	-0.000210777	-0.000330783
  70	0.000489886	0.000206087	3.82205e-05
  71	-1.83545e-05	1.96165e-05	-5.45147e-05
  72	-5.84214e-05	5.88378e-05	-5.05141e-05
  73	-9.6339e-05	8.13871e-05	8.61239e-06
  74	-5.57483e-05	2.37724e-05	1.99378e-05
  75	-0.000156796	0.000162224	-6.68885e-05
  76	-9.94224e-05	0.000152266	0.000124367
  77	-8.05019e-05	6.72744e-06	-6.19181e-05
  78	3.68e-05	9.30373e-05	4.00789e-05
  79	-0.000298373	7.61361e-06	-2.53566e-05
  80	-4.51237e-05	-8.90757e-05	-0.000245486
  81	0.000300305	7.94772e-05	-6.11675e-06
  82	-9.56766e-05	4.29943e-05	-1.78918e-05
  83	5.19323e-06	0.000214275	0.000207395
  84	-0.000404313	2.08142e-05	7.67471e-05
  85	-6.03542e-05	-0.000100068	-0.000304926
  86	7.80851e-05	0.000147307	0.000122486
  87	0.000416478	0.000148149	4.98314e-05
  88	0.000341128	0.000154596	4.63481e-05
  89	0.000341729	-5.21898e-05	-0.000141084
  90	-3.87777e-05	9.081e-06	2.63989e-05
  91	-5.90026e-05	-1.61292e-05	5.95909e-05
  92	-7.23463e-05	-4.75849e-05	0.000110196
  93	-7.05524e-05	-4.39489e-06	5.83364e-05
  94	-2.86413e-05	-3.86033e-05	5.15722e-05
  95	-3.76359e-05	-5.44026e-05	9.49737e-05
  96	-1.86855e-06	-9.60931e-05	3.71807e-05
  97	-6.38318e-05	-5.92659e-05	0.000100685
  98	-6.36472e-06	-1.98294e-05	0.000112775
  99	4.78283e-05	-3.8449e-05	-0.000101006
 100	4.21156e-06	-3.52047e-05	8.27704e-05
 101	7.11307e-06	-0.00019755	2.64648e-05
 102	4.97631e-05	-0.00011547	-0.000105909
 103	-9.2656e-05	-0.000137508	0.00027182
 104	6.20025e-05	0.000210412	0.000128055
 105	-6.0538e-06	-0.000112926	-0.000115277
 106	5.77159e-05	-3.67093e-05	-0.000245912
 107	0.000122151	6.88143e-05	-6.07835e-05
 108	-7.67856e-05	-4.04934e-05	0.000134934
 109	-6.57413e-05	-0.000108537	0.000125928
 110	-3.45573e-05	-9.87253e-05	0.000144978
 111	-7.34742e-05	-0.000104493	0.000102428
 112	-6.52991e-05	-0.000134912	0.000123908
 113	1.81119e-05	-0.000123	0.000256695
 114	-4.21075e-05	-0.000117561	5.76403e-05
 115	-9.80813e-05	-7.4414e-05	0.000416954
 116	0.000212422	-0.000145809	0.000324273
 117	0.00012907	-0.00022778	-0.00021649
 118	-4.43623e-06	-0.000126548	0.000196114
 119	-0.000260256	-7.03506e-05	-2.40354e-06
 120	-9.14217e-05	-0.0001221	0.000317649
 121	0.000136915	-0.000127043	0.000244782
 122	-2.6658e-05	-0.000131006	0.000139252
 123	5.05347e-05	-0.000150204	-0.00025741
 124	0.000142994	-0.000210784	-0.000462315
 125	0.000328274	-0.000417854	-0.00013903
 126	-1.32248e-05	-8.30736e-05	0.00013061
 127	-6.21585e-05	-0.000123077	0.000130883
 128	-5.82611e-05	-0.000119761	0.000140272
 129	-6.05734e-05	-0.000123768	0.000120476
 130	-6.66054e-05	-0.000111502	0.000133747
 131	-7.26804e-05	-0.000108514	0.000159304
 132	6.44172e-06	-3.64631e-05	0.000174579
 133	-0.000104413	-0.000168939	0.000165618
 134	-0.000124644	-5.52896e-05	0.000219348
 135	-3.1836e-06	5.34644e-05	0.000154746
 136	6.14833e-05	3.3506e-05	0.000163866
 137	7.30402e-05	-8.10371e-05	0.000195728
 138	-0.000116276	0.000146494	0.000168263
 139	0.000236086	0.000180908	0.000174571
 140	9.85721e-05	-0.000137111	0.000178523
 141	-1.83375e-05	-6.74236e-05	0.000152
 142	0.000117829	0.000152804	0.000234188
 143	-0.000125517	0.000159941	8.87333e-05
 144	-5.52489e-05	-0.0001223	0.000130764
 145	-4.01503e-05	-0.000100918	0.000139972
 146	-3.77727e-05	-6.40334e-05	0.000128434
 147	-3.35097e-05	-9.68104e-05	0.000119315
 148	-5.10661e-05	-8.02212e-05	0.000164305
 149	-3.70666e-05	-8.51541e-05	0.000125236
 150	-1.51642e-05	-8.0686e-05	-7.6018e-05
 151	3.94172e-05	3.22588e-06	0.000211373
 152	-0.000137184	-0.000149862	0.000204884
 153	-1.83819e-05	-0.000301653	-0.000147232
 154	2.72396e-05	-2.19948e-05	-0.000241622
 155	-2.72232e-06	1.48516e-05	-8.34838e-05
 156	8.45963e-05	0.000203129	-0.000147287
 157	-4.07133e-05	-0.000198948	-0.000202446
 158	3.98969e-05	4.43298e-06	-0.000506651
 159	1.86181e-05	-0.000274202	2.44572e-06
 160	-7.89735e-05	-0.000258178	-0.000364966
 161	-2.33306e-05	-0.000526305	-0.000133208
 162	-1.60497e-05	-5.73928e-05	0.000138175
 163	-1.13274e-05	-5.97827e-05	3.23483e-05
 164	-4.45471e-06	7.57937e-05	-2.48707e-05
 165	9.64671e-07	-0.000105901	-1.59774e-05
 166	-1.49427e-05	-8.34395e-05	5.58674e-05
 167	8.26109e-06	7.56211e-05	-7.26357e-05
 168	-8.429e-06	-1.37461e-05	-0.000149201
 169	3.60872e-06	7.83375e-05	-5.01903e-06
 170	1.30166e-05	0.000144841	-0.000110311
 171	6.36645e-05	-8.04523e-05	-0.000342717
 172	3.09722e-05	8.32372e-05	-0.000116852
 173	-8.87936e-05	-9.98509e-05	-0.000103901
 174	-1.70973e-05	0.000113741	-0.000105492
 175	8.42492e-05	6.98837e-05	-0.000108786
 176	4.44221e-05	0.00010455	-9.78802e-05
 177	0.000443377	-0.000188639	-0.000345463
 178	-0.000100391	-0.000172488	-0.000696068
 179	-9.10553e-05	2.86717e-05	-0.000132294
 180	-7.86706e-07	8.06153e-05	-9.57089e-05
 181	9.51063e-06	0.000146399	1.68654e-05
 182	1.59564e-05	0.000186676	-1.04326e-05
 183	-3.50305e-06	0.000128065	1.47619e-05
 184	4.99676e-06	0.000142841	5.8373e-05
 185	-2.89883e-05	0.000244767	5.27273e-06
 186	6.91491e-05	4.52495e-05	9.09888e-05
 187	-1.97617e-05	0.000358817	-0.000156034
 188	-0.000193329	0.000303343	0.000117488
 189	-0.00016962	0.000260857	0.000150697
 190	4.9998e-05	-0.000302784	0.000396387
 191	0.000373377	2.31591e-05	-6.22861e-05
 192	-0.000231423	-0.000303667	0.000560105
 193	0.000241149	-0.000472073	0.000392573
 194	9.54239e-05	-0.000433782	0.000457382
 195	3.05577e-05	-5.87601e-05	0.00026874
 196	-0.000168756	0.000584755	-0.000240587
 197	-0.000572878	0.000396917	0.000494086
 198	4.37857e-06	0.000155412	-1.55686e-06
 199	7.38876e-05	0.000181278	-1.22714e-05
 200	8.94076e-05	0.000110229	-2.86705e-05
 201	6.95039e-05	0.000154207	-1.44523e-05
 202	8.48466e-05	0.000196684	-4.10118e-05
 203	7.47819e-05	0.000102875	4.98259e-06
 204	5.07983e-05	0.000191089	4.97644e-05
 205	9.90064e-05	8.88254e-05	-3.32135e-05
 206	3.50723e-05	5.88733e-05	1.65703e-05
 207	0.000156792	0.000278232	4.6212e-05
 208	5.56709e-06	0.0002107	7.35023e-05
 209	4.18447e-06	0.000213718	7.41395e-05
 210	8.96924e-05	0.000183236	3.23926e-05
 211	-6.47511e-05	0.000130355	0.000115075
 212	-8.13322e-06	0.000312578	0.000117294
 213	0.000432954	0.000323271	0.000146176
 214	7.43678e-05	0.000497004	-8.21542e-05
 215	7.83053e-05	7.42432e-05	0.000113037
 216	7.27741e-05	8.47611e-05	1.28351e-05
 217	0.00013674	9.06833e-05	-4.68088e-05
 218	9.59955e-05	6.55227e-05	-4.35561e-05
 219	0.000173559	0.000106679	-7.17435e-05
 220	0.00014354	5.24436e-05	-9.05627e-05
 221	3.85916e-05	7.15234e-05	-6.85734e-06
 222	-2.60425e-05	6.4156e-05	1.57295e-05
 223	4.64457e-05	7.61032e-05	-3.82475e-07
 224	3.42464e-05	2.78836e-05	-7.41056e-05
 225	-1.78117e-05	5.97823e-05	8.89157e-05
 226	-0.000117689	5.93911e-05	-1.74882e-05
 227	-2.64048e-05	5.52678e-05	8.14245e-05
 228	-0.000100011	-0.000115843	-3.97001e-06
 229	-2.40811e-05	0.000209368	9.22306e-06
 230	-0.000298814	0.000117462	-0.000125725
 231	-3.05699e-05	2.15689e-05	0.000102325
 232	-1.20333e-05	0.000110549	0.000107253
 233	-1.66081e-05	6.7683e-05	0.000111274
 234	9.62625e-05	0.000106761	1.36992e-05
 235	3.05336e-05	5.16576e-05	-6.00338e-05
 236	-5.805e-06	1.61294e-05	-0.000121265
 237	2.18478e-05	5.74278e-05	-0.000125524
 238	-1.10262e-05	4.29577e-06	-4.31831e-05
 239	-1.49479e-05	6.14385e-05	-9.61926e-05
 240	-0.000123431	3.54982e-05	-0.000105233
 241	2.18733e-06	6.85372e-05	-5.85938e-05
 242	-6.52242e-05	7.011e-05	-0.000105044
 243	-0.000121143	8.50566e-05	-8.36614e-05
 244	-0.000203927	7.08556e-05	-2.90064e-05
 245	-0.000127953	-3.78431e-05	-0.000158582
 246	-0.000284969	5.33005e-05	-2.15377e-05
 247	-0.000180428	0.000128599	3.05717e-05
 248	-0.000249339	2.92502e-05	-5.67313e-05
 249	0.000209846	-0.00034727	-0.000333418
 250	0.000143564	0.000587435	0.000206679
 251	-0.000757053	6.39351e-05	-8.4376e-05
 252	-3.18019e-05	-1.81114e-05	-0.000142146
 253	-9.65901e-07	4.47098e-05	-7.46358e-05
 254	-1.44044e-05	-0.000110439	-9.52541e-06
 255	8.83487e-05	0.000126289	8.33412e-05
 256	4.06654e-06	0.000170367	-0.000220219
 257	-0.000163695	-0.000109546	2.13788e-05
 258	-0.000192012	2.07327e-05	6.97276e-05
 259	-0.000256505	-0.000162072	4.17391e-05
 260	-0.000121472	-0.000223399	-2.46363e-05
 261	-0.000429816	-0.00012245	0.000177474
 262	-2.69946e-06	3.80469e-05	-0.000106964
 263	-0.000232876	0.000261855	0.000199832
 264	0.000163474	0.000218101	-0.000203995
 265	-4.33817e-05	6.74439e-05	-4.45042e-05
 266	1.8572e-05	-0.000174935	-0.000280644
 267	-0.000703528	-0.000156513	0.000287024
 268	-0.00031441	-0.000405732	0.000127865
 269	-0.000408197	7.11301e-05	0.000160681
 270	-0.000122485	-0.000113308	-1.94527e-05
 271	9.14987e-05	-0.000118542	0.000197804
 272	9.76114e-05	-0.000164979	0.000127471
 273	3.52896e-05	9.21138e-06	0.000352145
 274	0.000345491	-0.000192077	0.000231981
 275	-0.000233454	-7.88651e-05	0.000228832
 276	0.000169053	-0.000216908	3.05649e-05
 277	-0.000667024	0.000139132	-9.53149e-05
 278	-0.000427552	-0.000152956	0.000786011
 279	0.000476899	-0.000174449	-0.000907987
 280	-0.000434569	-0.000175358	0.000258617
 281	0.000700281	-0.000395844	0.000454628
 282	0.000164792	-0.000291309	0.000187045
 283	-0.00107803	0.000160297	-0.000249701
 284	-0.000807593	-0.00044659	0.00105782
 285	0.000768276	-0.000280803	-0.00118905
 286	0.000877471	-0.000401159	-0.000921196
 287	1.42998e-05	0.000158466	-0.0013293
 288	0.000123933	-0.000243811	1.35978e-05
 289	0.000186822	9.10146e-06	0.000191228
 290	0.000302739	-2.30838e-05	0.000158993
 291	0.000250865	7.43308e-05	0.000220395
 292	0.000124528	2.81583e-05	0.00020105
 293	9.69004e-05	-0.000136442	0.000204566
 294	-0.000143937	4.45547e-05	0.000217857
 295	0.00020685	-0.000233015	0.000180148
 296	-3.53266e-05	-0.000272016	0.00021274
 297	-0.000131135	-5.91554e-05	0.00020689
 298	-0.000444572	6.78648e-05	0.000154016
 299	-5.93233e-05	0.000251923	0.000263627
 300	-0.000348608	9.61757e-05	0.000278169
 301	-0.000506596	-2.32964e-05	-0.000167238
 302	-0.000701114	0.000148735	0.000260627
 303	0.000114192	-3.03473e-05	0.000190765
 304	-0.000192325	-0.000286848	0.000216254
 305	-0.000288232	0.000100029	0.000226995
 306	0.000391061	-0.000125661	0.000141794
 307	0.000393671	0.000124115	0.000149392
 308	0.000375562	9.89856e-05	1.7314e-05
 309	0.000378964	0.00021213	0.000276254
 310	0.000491872	0.000231127	5.65585e-05
 311	0.000274671	2.39181e-05	-6.31855e-05
 312	0.00019192	1.18546e-05	-0.0001104
 313	0.000179996	6.07737e-05	-4.61411e-05
 314	0.000297929	-1.85599e-05	-0.00013591
 315	0.000516556	2.44144e-05	0.000252426
 316	-0.00022719	-0.00021032	9.91539e-06
 317	0.00024006	2.1756e-05	-0.000465175
 318	5.03479e-05	-0.000635378	0.000208214
 319	-0.00023078	0.000181502	-0.0001745
 320	-0.000819601	-0.000324839	3.69712e-05
 321	0.00103979	0.00030178	0.000125074
 322	0.000584028	-0.000143099	0.000822537
 323	0.000258066	-3.05316e-05	0.000115227
 324	0.000326116	0.000147647	9.81272e-05
 325	0.000365334	-0.000283736	0.000147428
 326	0.000406881	8.1139e-05	-9.97029e-06

Bonds

   1	2	1	2
   2	1	1	3
   3	1	1	4
   4	2	2	5
   5	1	2	18
   6	2	5	6
   7	1	5	7
   8	1	5	8
   9	2	6	9
  10	2	6	10
  11	1	6	11
  12	1	9	15
  13	1	9	16
  14	1	9	17
  15	1	10	12
  16	1	10	13
  17	1	10	14
  18	2	19	20
  19	1	19	21
  20	1	19	22
  21	2	20	23
  22	1	20	36
  23	2	23	24
  24	1	23	25
  25	1	23	26
  26	2	24	27
  27	2	24	28
  28	1	24	29
  29	1	27	33
  30	1	27	34
  31	1	27	35
  32	1	28	30
  33	1	28	31
  34	1	28	32
  35	2	2	19
  36	2	37	38
  37	1	37	39
  38	1	37	40
  39	2	38	41
  40	1	38	54
  41	2	41	42
  42	1	41	43
  43	1	41	44
  44	2	42	45
  45	2	42	46
  46	1	42	47
  47	1	45	51
  48	1	45	52
  49	1	45	53
  50	1	46	48
  51	1	46	49
  52	1	46	50
  53	2	20	37
  54	2	55	56
  55	1	55	57
  56	1	55	58
  57	2	56	59
  58	1	56	72
  59	2	59	60
  60	1	59	61
  61	1	59	62
  62	2	60	63
  63	2	60	64
  64	1	60	65
  65	1	63	69
  66	1	63	70
  67	1	63	71
  68	1	64	66
  69	1	64	67
  70	1	64	68
  71	2	38	55
  72	2	73	74
  73	1	73	75
  74	1	73	76
  75	2	74	77
  76	1	74	90
  77	2	77	78
  78	1	77	79
  79	1	77	80
  80	2	78	81
  81	2	78	82
  82	1	78	83
  83	1	81	87
  84	1	81	88
  85	1	81	89
  86	1	82	84
  87	1	82	85
  88	1	82	86
  89	2	56	73
  90	2	91	92
  91	1	91	93
  92	1	91	94
  93	2	92	95
  94	1	92	108
  95	2	95	96
  96	1	95	97
  97	1	95	98
  98	2	96	99
  99	2	96	100
 100	1	96	101
 101	1	99	105