pySIMM System Object

884 atoms
883 bonds
1764 angles
2637 dihedrals
0 impropers

2 atom types
2 bond types
3 angle types
3 dihedral types

-118.820109 118.820109 xlo xhi
-118.820109 118.820109 ylo yhi
-118.820109 118.820109 zlo zhi

Masses

   1	12.01	# c3
   2	1.008	# hc

Pair Coeffs

   1	0.1094	3.3996695084235347	# c3
   2	0.0157	2.649532787749369	# hc

Bond Coeffs

   1	330.6	1.0969	# c3,hc
   2	300.9	1.5375	# c3,c3

Angle Coeffs

   1	46.34	109.8	# c3,c3,hc
   2	39.4	107.58	# hc,c3,hc
   3	62.86	111.51	# c3,c3,c3

Dihedral Coeffs

   1	1	0.16	3	0	# hc,c3,c3,c3
   2	1	0.15	3	0	# hc,c3,c3,hc
   3	3	0.18	3	0	0.25	2	180	0.2	1	180	# c3,c3,c3,c3

Atoms

   1	1	1	-0.06457	15.9637	-8.57603	-13.5596
   2	1	1	0.061186	16.1142	-7.10667	-14.0277
   3	1	2	0.013749	14.9835	-8.75177	-13.1012
   4	1	2	0.012175	16.0707	-9.26919	-14.4036
   5	1	1	-0.029522	17.4639	-6.86331	-14.7606
   6	1	1	0.182537	18.7513	-7.12593	-13.9306
   7	1	2	0.017614	17.4904	-5.82053	-15.1028
   8	1	2	0.005524	17.4911	-7.48602	-15.6647
   9	1	1	-0.245806	18.8231	-6.25914	-12.6527
  10	1	1	-0.291525	20.003	-6.87181	-14.7972
  11	1	2	-0.003466	18.7744	-8.18099	-13.6317
  12	1	2	0.0629	20.0537	-5.82378	-15.1187
  13	1	2	0.058439	19.9924	-7.50561	-15.6928
  14	1	2	0.076366	20.9172	-7.1008	-14.2354
  15	1	2	0.061036	18.0316	-6.52867	-11.9436
  16	1	2	0.060061	18.7228	-5.19342	-12.8947
  17	1	2	0.042474	19.7821	-6.40325	-12.1397
  18	1	2	-0.019174	16.1095	-6.46292	-13.1447
  19	1	1	-0.06457	14.9338	-6.67742	-14.946
  20	1	1	0.061186	13.5076	-6.60468	-14.3001
  21	1	2	0.013749	15.1742	-5.71885	-15.4173
  22	1	2	0.012175	14.8946	-7.38554	-15.7838
  23	1	1	-0.029522	12.4979	-5.83337	-15.2039
  24	1	1	0.182537	12.382	-6.32548	-16.6753
  25	1	2	0.017614	12.782	-4.77471	-15.2263
  26	1	2	0.005524	11.5037	-5.87352	-14.739
  27	1	1	-0.245806	11.404	-5.43204	-17.466
  28	1	1	-0.291525	11.934	-7.80028	-16.7806
  29	1	2	-0.003466	13.3615	-6.22972	-17.16
  30	1	2	0.0629	12.6783	-8.47713	-16.3451
  31	1	2	0.058439	11.8037	-8.09079	-17.8306
  32	1	2	0.076366	10.9795	-7.95815	-16.2628
  33	1	2	0.061036	10.3848	-5.52612	-17.0724
  34	1	2	0.060061	11.3857	-5.71774	-18.5253
  35	1	2	0.042474	11.7013	-4.37738	-17.4078
  36	1	2	-0.019174	13.1611	-7.64463	-14.2622
  37	1	1	-0.06457	13.415	-6.12832	-12.8078
  38	1	1	0.061186	13.4712	-4.60072	-12.4615
  39	1	2	0.013749	12.4445	-6.49802	-12.4565
  40	1	2	0.012175	14.1453	-6.66544	-12.1933
  41	1	1	-0.029522	13.4018	-4.39103	-10.9146
  42	1	1	0.182537	12.163	-4.97567	-10.1811
  43	1	2	0.017614	13.4386	-3.32168	-10.6861
  44	1	2	0.005524	14.3054	-4.82349	-10.4648
  45	1	1	-0.245806	10.8334	-4.42017	-10.7311
  46	1	1	-0.291525	12.2525	-4.68884	-8.66712
  47	1	2	-0.003466	12.1557	-6.06612	-10.296
  48	1	2	0.0629	11.4056	-5.14009	-8.13474
  49	1	2	0.058439	12.2439	-3.60939	-8.46904
  50	1	2	0.076366	13.1748	-5.10736	-8.24536
  51	1	2	0.061036	9.99692	-4.79967	-10.1377
  52	1	2	0.060061	10.6687	-4.7261	-11.7708
  53	1	2	0.042474	10.8111	-3.32497	-10.68
  54	1	2	-0.019174	12.5883	-4.13231	-12.9074
  55	1	1	-0.06457	14.7389	-3.89249	-13.0279
  56	1	1	0.061186	14.7599	-2.33429	-13.0062
  57	1	2	0.013749	14.8757	-4.16825	-14.0712
  58	1	2	0.012175	15.6146	-4.27641	-12.4889
  59	1	1	-0.029522	13.7069	-1.74615	-14.0041
  60	1	1	0.182537	12.8399	-0.581014	-13.4533
  61	1	2	0.017614	14.2199	-1.41452	-14.9157
  62	1	2	0.005524	13.0262	-2.53078	-14.3522
  63	1	1	-0.245806	11.8879	-1.0328	-12.3243
  64	1	1	-0.291525	12.0194	0.0562951	-14.5916
  65	1	2	-0.003466	13.497	0.198483	-13.0555
  66	1	2	0.0629	12.6901	0.480676	-15.3437
  67	1	2	0.058439	11.386	0.868731	-14.2139
  68	1	2	0.076366	11.3766	-0.684149	-15.083
  69	1	2	0.061036	11.2588	-1.86886	-12.6529
  70	1	2	0.060061	11.2279	-0.210444	-12.0209
  71	1	2	0.042474	12.4428	-1.3472	-11.4343
  72	1	2	-0.019174	14.547	-1.99608	-11.9894
  73	1	1	-0.06457	16.2137	-1.89194	-13.3567
  74	1	1	0.061186	16.5127	-0.361223	-13.4263
  75	1	2	0.013749	16.9093	-2.34301	-12.6366
  76	1	2	0.012175	16.4406	-2.35354	-14.3227
  77	1	1	-0.029522	16.2875	0.313193	-12.037
  78	1	1	0.182537	16.4891	1.8548	-11.9761
  79	1	2	0.017614	16.9645	-0.154211	-11.3099
  80	1	2	0.005524	15.2755	0.0953272	-11.6804
  81	1	1	-0.245806	15.6065	2.62138	-12.9878
  82	1	1	-0.291525	16.2086	2.37076	-10.5491
  83	1	2	-0.003466	17.5384	2.08551	-12.1965
  84	1	2	0.0629	16.8559	1.86912	-9.8189
  85	1	2	0.058439	15.1646	2.18949	-10.2629
  86	1	2	0.076366	16.3988	3.44917	-10.4808
  87	1	2	0.061036	15.8699	2.36888	-14.0215
  88	1	2	0.060061	15.7411	3.70419	-12.8736
  89	1	2	0.042474	14.5438	2.39522	-12.8358
  90	1	2	-0.019174	15.8072	0.0845283	-14.135
  91	1	1	-0.06457	17.9588	-0.0685325	-13.952
  92	1	1	0.061186	18.4196	-0.806616	-15.2506
  93	1	2	0.013749	18.6694	-0.316274	-13.1525
  94	1	2	0.012175	18.0469	1.00766	-14.1095
  95	1	1	-0.029522	19.9108	-0.510006	-15.6099
  96	1	1	0.182537	20.2514	0.759191	-16.4498
  97	1	2	0.017614	20.285	-1.37613	-16.171
  98	1	2	0.005524	20.5011	-0.494323	-14.6844
  99	1	1	-0.245806	19.841	2.09393	-15.7911
 100	1	1	-0.291525	21.7635	0.787296	-16.7586
 101	1	2	-0.003466	19.7399	0.694471	-17.4148
 102	1	2	0.0629	22.0146	1.637	-17.4059
 103	1	2	0.058439	22.0737	-0.12889	-17.2768
 104	1	2	0.076366	22.3513	0.875063	-15.836
 105	1	2	0.061036	18.7527	2.21765	-15.7881
 106	1	2	0.060061	20.2533	2.9436	-16.3495
 107	1	2	0.042474	20.2093	2.15609	-14.7593
 108	1	2	-0.019174	18.4201	-1.86525	-14.9766
 109	1	1	-0.06457	17.4297	-0.614819	-16.4421
 110	1	1	0.061186	17.6803	-1.46921	-17.7281
 111	1	2	0.013749	17.429	0.449418	-16.6962
 112	1	2	0.012175	16.4112	-0.837623	-16.107
 113	1	1	-0.029522	17.7907	-2.99198	-17.3826
 114	1	1	0.182537	17.9887	-3.97526	-18.5724
 115	1	2	0.017614	16.8876	-3.2887	-16.8325
 116	1	2	0.005524	18.6319	-3.1519	-16.6992
 117	1	1	-0.245806	19.3026	-3.71188	-19.3397
 118	1	1	-0.291525	17.9689	-5.4342	-18.0725
 119	1	2	-0.003466	17.1513	-3.87969	-19.2727
 120	1	2	0.0629	17.0195	-5.66012	-17.5715
 121	1	2	0.058439	18.7873	-5.61918	-17.366
 122	1	2	0.076366	18.0782	-6.1341	-18.9103
 123	1	2	0.061036	19.3043	-2.71879	-19.7992
 124	1	2	0.060061	19.4347	-4.44591	-20.1444
 125	1	2	0.042474	20.1693	-3.78146	-18.6701
 126	1	2	-0.019174	18.6302	-1.15299	-18.1703
 127	1	1	-0.06457	16.5409	-1.2302	-18.7705
 128	1	1	0.061186	16.2253	0.241931	-19.179
 129	1	2	0.013749	16.749	-1.78878	-19.6888
 130	1	2	0.012175	15.6422	-1.67572	-18.3384
 131	1	1	-0.029522	17.4506	1.01141	-19.7658
 132	1	1	0.182537	18.3234	0.319848	-20.8547
 133	1	2	0.017614	18.1102	1.2578	-18.9263
 134	1	2	0.005524	17.1121	1.98391	-20.1463
 135	1	1	-0.245806	17.5614	-0.0293128	-22.1512
 136	1	1	-0.291525	19.5326	1.21704	-21.1955
 137	1	2	-0.003466	18.7292	-0.610523	-20.4466
 138	1	2	0.0629	19.2051	2.16923	-21.6319
 139	1	2	0.058439	20.1963	0.721655	-21.9154
 140	1	2	0.076366	20.1219	1.43665	-20.2962
 141	1	2	0.061036	16.8812	-0.87291	-21.9947
 142	1	2	0.060061	18.26	-0.331038	-22.9416
 143	1	2	0.042474	16.9858	0.830146	-22.5173
 144	1	2	-0.019174	15.9839	0.791323	-18.2671
 145	1	1	-0.06457	14.9577	0.368361	-20.0898
 146	1	1	0.061186	13.5574	0.0972623	-19.4445
 147	1	2	0.013749	15.0603	-0.274083	-20.9682
 148	1	2	0.012175	14.9291	1.38885	-20.4919
 149	1	1	-0.029522	13.3407	0.846495	-18.0922
 150	1	1	0.182537	13.5117	2.39154	-18.1398
 151	1	2	0.017614	14.0248	0.430833	-17.3423
 152	1	2	0.005524	12.3384	0.632736	-17.7085
 153	1	1	-0.245806	12.458	3.07127	-19.0418
 154	1	1	-0.291525	13.4354	2.98518	-16.7174
 155	1	2	-0.003466	14.5048	2.63556	-18.5347
 156	1	2	0.0629	14.1967	2.53776	-16.0661
 157	1	2	0.058439	12.4502	2.80661	-16.2681
 158	1	2	0.076366	13.608	4.0684	-16.7387
 159	1	2	0.061036	12.5654	2.76171	-20.0879
 160	1	2	0.060061	12.5677	4.16244	-19.0107
 161	1	2	0.042474	11.4423	2.8224	-18.7107
 162	1	2	-0.019174	12.836	0.508603	-20.1571
 163	1	1	-0.06457	13.2312	-1.42691	-19.3152
 164	1	1	0.061186	11.8144	-1.88483	-19.7844
 165	1	2	0.013749	13.9726	-2.01183	-19.8706
 166	1	2	0.012175	13.36	-1.7361	-18.2696
 167	1	1	-0.029522	11.5523	-1.67465	-21.3097
 168	1	1	0.182537	12.6233	-2.24754	-22.2795
 169	1	2	0.017614	11.4261	-0.603856	-21.512
 170	1	2	0.005524	10.5966	-2.14331	-21.5729
 171	1	1	-0.245806	12.8229	-3.77093	-22.1109
 172	1	1	-0.291525	12.2405	-1.9331	-23.7408
 173	1	2	-0.003466	13.5822	-1.75245	-22.0898
 174	1	2	0.0629	12.1377	-0.851275	-23.8924
 175	1	2	0.058439	11.2889	-2.40897	-24.0101
 176	1	2	0.076366	13.0117	-2.29673	-24.4314
 177	1	2	0.061036	11.8773	-4.30837	-22.2565
 178	1	2	0.060061	13.2076	-4.01739	-21.1144
 179	1	2	0.042474	13.5461	-4.15012	-22.8437
 180	1	2	-0.019174	11.7907	-2.96359	-19.5976
 181	1	1	-0.06457	10.6992	-1.24734	-18.903
 182	1	1	0.061186	9.22363	-1.66136	-19.1929
 183	1	2	0.013749	10.9223	-1.46847	-17.8506
 184	1	2	0.012175	10.7638	-0.160745	-19.0091
 185	1	1	-0.029522	9.01672	-3.19955	-19.0549
 186	1	1	0.182537	7.61903	-3.74312	-19.4654
 187	1	2	0.017614	9.22601	-3.48456	-18.0189
 188	1	2	0.005524	9.7543	-3.72625	-19.6702
 189	1	1	-0.245806	7.53338	-5.25705	-19.179
 190	1	1	-0.291525	7.28471	-3.47216	-20.9491
 191	1	2	-0.003466	6.84849	-3.26048	-18.8589
 192	1	2	0.0629	8.06029	-3.8822	-21.6083
 193	1	2	0.058439	7.19329	-2.39811	-21.1486
 194	1	2	0.076366	6.32782	-3.93551	-21.2199
 195	1	2	0.061036	6.53638	-5.64377	-19.4244
 196	1	2	0.060061	7.72073	-5.46391	-18.1179
 197	1	2	0.042474	8.27171	-5.81251	-19.7712
 198	1	2	-0.019174	9.0005	-1.40206	-20.2318
 199	1	1	-0.06457	8.26347	-0.833943	-18.2752
 200	1	1	0.061186	7.50951	0.325331	-18.9991
 201	1	2	0.013749	7.53175	-1.5069	-17.8228
 202	1	2	0.012175	8.81931	-0.420968	-17.4228
 203	1	1	-0.029522	8.50653	1.34687	-19.6367
 204	1	1	0.182537	7.88638	2.54076	-20.4168
 205	1	2	0.017614	9.16861	0.823427	-20.3352
 206	1	2	0.005524	9.1509	1.74643	-18.8428
 207	1	1	-0.245806	6.95	2.08347	-21.5579
 208	1	1	-0.291525	9.00337	3.43785	-20.9912
 209	1	2	-0.003466	7.30733	3.16306	-19.7241
 210	1	2	0.0629	9.63278	2.88206	-21.6978
 211	1	2	0.058439	9.64526	3.82157	-20.1888
 212	1	2	0.076366	8.57715	4.30036	-21.5186
 213	1	2	0.061036	7.47667	1.42009	-22.2555
 214	1	2	0.060061	6.5794	2.94728	-22.1237
 215	1	2	0.042474	6.07558	1.54913	-21.1679
 216	1	2	-0.019174	6.93926	-0.126113	-19.8184
 217	1	1	-0.06457	6.50951	1.05614	-18.0471
 218	1	1	0.061186	5.45923	0.199912	-17.2689
 219	1	2	0.013749	7.10204	1.63147	-17.3279
 220	1	2	0.012175	5.94712	1.79065	-18.635
 221	1	1	-0.029522	4.58227	-0.647349	-18.2477
 222	1	1	0.182537	3.64726	-1.70324	-17.5871
 223	1	2	0.017614	5.21806	-1.1837	-18.9604
 224	1	2	0.005524	3.97712	0.0461341	-18.8467
 225	1	1	-0.245806	4.42354	-2.91899	-17.0351
 226	1	1	-0.291525	2.58571	-2.19292	-18.5938
 227	1	2	-0.003466	3.10514	-1.24614	-16.7538
 228	1	2	0.0629	1.91579	-2.92579	-18.1268
 229	1	2	0.058439	3.05718	-2.66594	-19.4648
 230	1	2	0.076366	1.97141	-1.35625	-18.9495
 231	1	2	0.061036	3.76155	-3.55764	-16.4371
 232	1	2	0.060061	5.25712	-2.60937	-16.398
 233	1	2	0.042474	4.82821	-3.52912	-17.8506
 234	1	2	-0.019174	6.00332	-0.482311	-16.6086
 235	1	1	-0.06457	4.5725	1.14352	-16.3836
 236	1	1	0.061186	4.92711	1.2324	-14.8655
 237	1	2	0.013749	4.59211	2.15889	-16.8007
 238	1	2	0.012175	3.52023	0.856083	-16.4664
 239	1	1	-0.029522	6.35733	1.81497	-14.6378
 240	1	1	0.182537	6.67466	2.46054	-13.2533
 241	1	2	0.017614	6.51434	2.60942	-15.3778
 242	1	2	0.005524	7.109	1.04726	-14.8615
 243	1	1	-0.245806	6.79373	1.46117	-12.0834
 244	1	1	-0.291525	5.7048	3.60367	-12.8817
 245	1	2	-0.003466	7.66703	2.91767	-13.3616
 246	1	2	0.0629	6.07563	4.15098	-12.0061
 247	1	2	0.058439	4.70691	3.22072	-12.6355
 248	1	2	0.076366	5.60784	4.31858	-13.7082
 249	1	2	0.061036	7.20776	1.95999	-11.1983
 250	1	2	0.060061	7.4649	0.634817	-12.3423
 251	1	2	0.042474	5.81906	1.0494	-11.8006
 252	1	2	-0.019174	4.22088	1.96508	-14.4602
 253	1	1	-0.06457	4.68411	-0.126582	-14.1356
 254	1	1	0.061186	3.4557	-0.136163	-13.1759
 255	1	2	0.013749	4.56072	-0.921296	-14.8747
 256	1	2	0.012175	5.58065	-0.408131	-13.5758
 257	1	1	-0.029522	2.11231	-0.051367	-13.961
 258	1	1	0.182537	0.823899	0.104068	-13.1034
 259	1	2	0.017614	2.01737	-0.936383	-14.6012
 260	1	2	0.005524	2.15142	0.806043	-14.6422
 261	1	1	-0.245806	-0.421841	0.102547	-14.0138
 262	1	1	-0.291525	0.834651	1.38286	-12.2366
 263	1	2	-0.003466	0.726512	-0.753975	-12.4307
 264	1	2	0.0629	1.62757	1.34539	-11.4803
 265	1	2	0.058439	-0.117763	1.49761	-11.7041
 266	1	2	0.076366	0.988634	2.27585	-12.8553
 267	1	2	0.061036	-1.33989	0.169773	-13.4167
 268	1	2	0.060061	-0.47223	-0.821956	-14.6026
 269	1	2	0.042474	-0.403164	0.951482	-14.7091
 270	1	2	-0.019174	3.53692	0.776181	-12.5736
 271	1	1	-0.06457	3.52495	-1.31654	-12.1557
 272	1	1	0.061186	3.59499	-2.76971	-12.742
 273	1	2	0.013749	2.69246	-1.22685	-11.4545
 274	1	2	0.012175	4.40652	-1.13693	-11.53
 275	1	1	-0.029522	2.20418	-3.45894	-12.9143
 276	1	1	0.182537	1.58248	-4.20855	-11.6972
 277	1	2	0.017614	2.31882	-4.19934	-13.7171
 278	1	2	0.005524	1.47718	-2.73828	-13.2997
 279	1	1	-0.245806	0.259895	-4.87846	-12.1272
 280	1	1	-0.291525	1.32144	-3.31502	-10.4672
 281	1	2	-0.003466	2.26269	-5.01181	-11.3879
 282	1	2	0.0629	0.661654	-2.47604	-10.7193
 283	1	2	0.058439	2.25731	-2.91638	-10.063
 284	1	2	0.076366	0.842476	-3.8922	-9.66714
 285	1	2	0.061036	-0.183065	-5.43998	-11.2973
 286	1	2	0.060061	0.427994	-5.58064	-12.9533
 287	1	2	0.042474	-0.471166	-4.12953	-12.4577
 288	1	2	-0.019174	3.9758	-2.69403	-13.7616
 289	1	1	-0.06457	4.59871	-3.66995	-11.9575
 290	1	1	0.061186	6.10589	-3.33179	-12.1624
 291	1	2	0.013749	4.3542	-3.5917	-10.8927
 292	1	2	0.012175	4.44378	-4.71789	-12.2431
 293	1	1	-0.029522	6.60355	-3.76196	-13.5803
 294	1	1	0.182537	8.07778	-3.42532	-13.9405
 295	1	2	0.017614	5.97607	-3.27388	-14.3307
 296	1	2	0.005524	6.43389	-4.83217	-13.7296
 297	1	1	-0.245806	8.36235	-1.90926	-13.9067
 298	1	1	-0.291525	8.41958	-3.97932	-15.3366
 299	1	2	-0.003466	8.75353	-3.91701	-13.2327
 300	1	2	0.0629	8.28621	-5.06797	-15.3684
 301	1	2	0.058439	9.46372	-3.76008	-15.5919
 302	1	2	0.076366	7.77423	-3.53144	-16.1023
 303	1	2	0.061036	8.26677	-1.51405	-12.8893
 304	1	2	0.060061	7.67126	-1.36512	-14.5618
 305	1	2	0.042474	9.38308	-1.70005	-14.2455
 306	1	2	-0.019174	6.18816	-2.24091	-12.1456
 307	1	1	-0.06457	6.99972	-3.7936	-10.9622
 308	1	1	0.061186	6.99375	-5.27785	-10.4569
 309	1	2	0.013749	8.03724	-3.52803	-11.1888
 310	1	2	0.012175	6.76241	-3.14211	-10.1178
 311	1	1	-0.029522	7.25651	-6.30659	-11.5957
 312	1	1	0.182537	7.66941	-7.74335	-11.164
 313	1	2	0.017614	8.04679	-5.91798	-12.2487
 314	1	2	0.005524	6.34823	-6.38985	-12.2038
 315	1	1	-0.245806	8.9763	-7.7798	-10.3392
 316	1	1	-0.291525	7.82828	-8.63857	-12.4115
 317	1	2	-0.003466	6.86914	-8.18228	-10.5568
 318	1	2	0.0629	8.62827	-8.26662	-13.0644
 319	1	2	0.058439	6.89778	-8.6676	-12.9922
 320	1	2	0.076366	8.07464	-9.66803	-12.1225
 321	1	2	0.061036	8.85976	-7.2688	-9.37649
 322	1	2	0.060061	9.79994	-7.30632	-10.8877
 323	1	2	0.042474	9.26672	-8.81531	-10.1218
 324	1	2	-0.019174	7.86591	-5.33038	-9.80524
 325	1	1	-0.06457	5.7701	-5.69329	-9.57511
 326	1	1	0.061186	5.41607	-4.80459	-8.33734
 327	1	2	0.013749	4.88868	-5.78159	-10.2197
 328	1	2	0.012175	5.9465	-6.70609	-9.19476
 329	1	1	-0.029522	6.56438	-4.80637	-7.27244
 330	1	1	0.182537	6.78719	-3.48388	-6.48343
 331	1	2	0.017614	7.52076	-5.0615	-7.73724
 332	1	2	0.005524	6.37915	-5.62183	-6.5609
 333	1	1	-0.245806	7.25739	-2.31883	-7.38266
 334	1	1	-0.291525	7.81653	-3.70929	-5.35591
 335	1	2	-0.003466	5.85418	-3.17706	-6.0051
 336	1	2	0.0629	7.48079	-4.50102	-4.67438
 337	1	2	0.058439	7.95287	-2.79513	-4.76455
 338	1	2	0.076366	8.79221	-3.99983	-5.7658
 339	1	2	0.061036	6.47484	-2.01576	-8.0869
 340	1	2	0.060061	8.15232	-2.5972	-7.95364
 341	1	2	0.042474	7.50258	-1.43767	-6.77658
 342	1	2	-0.019174	5.23592	-3.78916	-8.69633
 343	1	1	-0.06457	4.07786	-5.35127	-7.7478
 344	1	1	0.061186	3.44225	-4.60226	-6.534
 345	1	2	0.013749	3.32672	-5.39229	-8.54808
 346	1	2	0.012175	4.2759	-6.3906	-7.46884
 347	1	1	-0.029522	3.073	-3.13757	-6.92648
 348	1	1	0.182537	2.43866	-2.25053	-5.81909
 349	1	2	0.017614	2.37378	-3.17527	-7.7685
 350	1	2	0.005524	3.96504	-2.62038	-7.29638
 351	1	1	-0.245806	2.14738	-0.839428	-6.3719
 352	1	1	-0.291525	3.3181	-2.14239	-4.55355
 353	1	2	-0.003466	1.47283	-2.68057	-5.53159
 354	1	2	0.0629	3.46117	-3.12055	-4.07958
 355	1	2	0.058439	2.84568	-1.48593	-3.81206
 356	1	2	0.076366	4.30401	-1.72589	-4.79419
 357	1	2	0.061036	1.48963	-0.892636	-7.24864
 358	1	2	0.060061	3.07471	-0.333919	-6.6701
 359	1	2	0.042474	1.6488	-0.220307	-5.61551
 360	1	2	-0.019174	4.18247	-4.5626	-5.73157
 361	1	1	-0.06457	2.19407	-5.36973	-5.98752
 362	1	1	0.061186	2.41116	-6.85506	-5.54524
 363	1	2	0.013749	1.78954	-4.83542	-5.12067
 364	1	2	0.012175	1.42086	-5.31837	-6.76164
 365	1	1	-0.029522	3.48402	-6.93952	-4.41426
 366	1	1	0.182537	3.79692	-8.35407	-3.8506
 367	1	2	0.017614	3.16713	-6.29498	-3.58359
 368	1	2	0.005524	4.42871	-6.52307	-4.78263
 369	1	1	-0.245806	4.86083	-8.25773	-2.73661
 370	1	1	-0.291525	4.27712	-9.3348	-4.94401
 371	1	2	-0.003466	2.89175	-8.76664	-3.38879
 372	1	2	0.0629	5.15992	-8.94089	-5.46344
 373	1	2	0.058439	3.49365	-9.51959	-5.68826
 374	1	2	0.076366	4.54545	-10.3031	-4.50348
 375	1	2	0.061036	5.05762	-9.24479	-2.29982
 376	1	2	0.060061	4.52066	-7.59624	-1.92992
 377	1	2	0.042474	5.80698	-7.86207	-3.12753
 378	1	2	-0.019174	2.78664	-7.42657	-6.39762
 379	1	1	-0.06457	1.07533	-7.53734	-5.11537
 380	1	1	0.061186	-0.126414	-7.46714	-6.11486
 381	1	2	0.013749	1.27033	-8.59865	-4.92192
 382	1	2	0.012175	0.786155	-7.10218	-4.15449
 383	1	1	-0.029522	0.305091	-7.92342	-7.54683
 384	1	1	0.182537	-0.775812	-7.85837	-8.66249
 385	1	2	0.017614	0.688424	-8.95064	-7.48869
 386	1	2	0.005524	1.14382	-7.30738	-7.88849
 387	1	1	-0.245806	-0.152063	-8.24144	-10.0218
 388	1	1	-0.291525	-1.44407	-6.46894	-8.76399
 389	1	2	-0.003466	-1.55638	-8.59939	-8.45325
 390	1	2	0.0629	-0.692216	-5.67982	-8.8847
 391	1	2	0.058439	-2.03485	-6.24559	-7.8677
 392	1	2	0.076366	-2.12565	-6.42735	-9.62272
 393	1	2	0.061036	0.648172	-7.54386	-10.2995
 394	1	2	0.060061	-0.908539	-8.22857	-10.8164
 395	1	2	0.042474	0.275762	-9.25108	-9.98206
 396	1	2	-0.019174	-0.451025	-6.42323	-6.17148
 397	1	1	-0.06457	-1.32402	-8.32541	-5.59672
 398	1	1	0.061186	-1.97512	-7.87165	-4.25404
 399	1	2	0.013749	-2.12345	-8.35211	-6.34504
 400	1	2	0.012175	-0.967231	-9.35737	-5.51293
 401	1	1	-0.029522	-2.81219	-9.02685	-3.6271
 402	1	1	0.182537	-2.01455	-10.2442	-3.07619
 403	1	2	0.017614	-3.53558	-9.3822	-4.37276
 404	1	2	0.005524	-3.40874	-8.62834	-2.80365
 405	1	1	-0.245806	-2.98876	-11.2871	-2.4881
 406	1	1	-0.291525	-0.973837	-9.84778	-2.00416
 407	1	2	-0.003466	-1.48212	-10.7343	-3.89927
 408	1	2	0.0629	-1.4424	-9.27436	-1.19427
 409	1	2	0.058439	-0.165337	-9.24491	-2.43404
 410	1	2	0.076366	-0.512176	-10.741	-1.56519
 411	1	2	0.061036	-3.71404	-11.6125	-3.24432
 412	1	2	0.060061	-3.54427	-10.8708	-1.63793
 413	1	2	0.042474	-2.44651	-12.1752	-2.13996
 414	1	2	-0.019174	-1.19133	-7.60739	-3.54602
 415	1	1	-0.06457	-2.86726	-6.60907	-4.45665
 416	1	1	0.061186	-3.2229	-5.83705	-3.14118
 417	1	2	0.013749	-2.39115	-5.9139	-5.15771
 418	1	2	0.012175	-3.78538	-6.92765	-4.968
 419	1	1	-0.029522	-2.38725	-4.52483	-2.99569
 420	1	1	0.182537	-0.843457	-4.6905	-2.96686
 421	1	2	0.017614	-2.66861	-4.00291	-2.07442
 422	1	2	0.005524	-2.65679	-3.85272	-3.82124
 423	1	1	-0.245806	-0.352393	-5.44278	-1.70875
 424	1	1	-0.291525	-0.157838	-3.30993	-3.03333
 425	1	2	-0.003466	-0.52757	-5.24591	-3.85528
 426	1	2	0.0629	0.933713	-3.41847	-3.04078
 427	1	2	0.058439	-0.432891	-2.69082	-2.17005
 428	1	2	0.076366	-0.449646	-2.77342	-3.94467
 429	1	2	0.061036	-0.784223	-6.44664	-1.63776
 430	1	2	0.060061	-0.621673	-4.89515	-0.796852
 431	1	2	0.042474	0.73908	-5.55383	-1.72809
 432	1	2	-0.019174	-2.99282	-6.47973	-2.28623
 433	1	1	-0.06457	-4.75757	-5.54749	-3.1031
 434	1	1	0.061186	-5.31323	-4.76455	-1.87067
 435	1	2	0.013749	-5.00133	-4.96956	-4.00466
 436	1	2	0.012175	-5.30847	-6.48779	-3.21025
 437	1	1	-0.029522	-4.90955	-5.34985	-0.476147
 438	1	1	0.182537	-5.59888	-6.65982	0.0216603
 439	1	2	0.017614	-5.10037	-4.56517	0.262747
 440	1	2	0.005524	-3.82258	-5.4845	-0.430823
 441	1	1	-0.245806	-5.45288	-6.77543	1.55513
 442	1	1	-0.291525	-5.04073	-7.94397	-0.624734
 443	1	2	-0.003466	-6.67139	-6.62594	-0.193702
 444	1	2	0.0629	-3.94838	-7.99	-0.533587
 445	1	2	0.058439	-5.31445	-8.00883	-1.68058
 446	1	2	0.076366	-5.45638	-8.83444	-0.136806
 447	1	2	0.061036	-4.39609	-6.83606	1.84503
 448	1	2	0.060061	-5.96218	-7.67212	1.92995
 449	1	2	0.042474	-5.89695	-5.90762	2.05884
 450	1	2	-0.019174	-4.82903	-3.79348	-1.93073
 451	1	1	-0.06457	-6.84121	-4.48898	-2.06254
 452	1	1	0.061186	-7.55178	-3.3491	-1.25085
 453	1	2	0.013749	-7.00122	-4.24622	-3.12118
 454	1	2	0.012175	-7.39279	-5.42498	-1.91865
 455	1	1	-0.029522	-7.09072	-1.90839	-1.64757
 456	1	1	0.182537	-5.71853	-1.3964	-1.10747
 457	1	2	0.017614	-7.8729	-1.19862	-1.35985
 458	1	2	0.005524	-7.08591	-1.85534	-2.74421
 459	1	1	-0.245806	-5.88057	-0.178937	-0.171797
 460	1	1	-0.291525	-4.77341	-0.999655	-2.26628
 461	1	2	-0.003466	-5.23027	-2.18331	-0.523318
 462	1	2	0.0629	-5.17585	-0.14362	-2.82278
 463	1	2	0.058439	-4.63639	-1.82393	-2.97602
 464	1	2	0.076366	-3.78427	-0.720653	-1.88214
 465	1	2	0.061036	-6.38837	0.648639	-0.683361
 466	1	2	0.060061	-4.90148	0.181516	0.167792
 467	1	2	0.042474	-6.45896	-0.439368	0.71818
 468	1	2	-0.019174	-8.57087	-3.40071	-1.64516
 469	1	1	-0.06457	-7.67071	-3.63078	0.28592
 470	1	1	0.061186	-9.00008	-3.24952	1.02145
 471	1	2	0.013749	-7.55422	-4.70523	0.438955
 472	1	2	0.012175	-6.8269	-3.17868	0.819245
 473	1	1	-0.029522	-10.2959	-3.77907	0.326418
 474	1	1	0.182537	-10.3094	-5.29098	-0.0396707
 475	1	2	0.017614	-10.4854	-3.18959	-0.579011
 476	1	2	0.005524	-11.1592	-3.59479	0.973015
 477	1	1	-0.245806	-11.6229	-5.64978	-0.765661
 478	1	1	-0.291525	-10.1297	-6.21095	1.1891
 479	1	2	-0.003466	-9.49138	-5.49844	-0.738248
 480	1	2	0.0629	-10.1695	-7.2655	0.888999
 481	1	2	0.058439	-10.9221	-6.04078	1.92762
 482	1	2	0.076366	-9.1625	-6.04724	1.67802
 483	1	2	0.061036	-11.6241	-6.70405	-1.06957
 484	1	2	0.060061	-11.7477	-5.04027	-1.66944
 485	1	2	0.042474	-12.4911	-5.48064	-0.115736
 486	1	2	-0.019174	-8.93616	-3.75591	1.98987
 487	1	1	-0.06457	-9.07101	-1.72498	1.33144
 488	1	1	0.061186	-10.1922	-1.24469	2.30631
 489	1	2	0.013749	-8.11326	-1.41408	1.76264
 490	1	2	0.012175	-9.17142	-1.18955	0.384215
 491	1	1	-0.029522	-10.3443	0.306766	2.21282
 492	1	1	0.182537	-11.5213	0.79079	1.32176
 493	1	2	0.017614	-9.40631	0.753392	1.8566
 494	1	2	0.005524	-10.4918	0.730729	3.21238
 495	1	1	-0.245806	-11.3943	0.350771	-0.153792
 496	1	1	-0.291525	-11.6504	2.32689	1.39575
 497	1	2	-0.003466	-12.4496	0.362825	1.72227
 498	1	2	0.0629	-11.7949	2.65739	2.43212
 499	1	2	0.058439	-12.5109	2.6745	0.81045
 500	1	2	0.076366	-10.7499	2.81577	1.0027
 501	1	2	0.061036	-12.2206	0.75748	-0.750122
 502	1	2	0.060061	-11.4315	-0.740815	-0.24804
 503	1	2	0.042474	-10.4531	0.706671	-0.591662
 504	1	2	-0.019174	-11.1396	-1.69006	1.99284
 505	1	1	-0.06457	-9.90255	-1.68913	3.77466
 506	1	1	0.061186	-11.1075	-1.5654	4.76244
 507	1	2	0.013749	-9.54273	-2.72217	3.80065
 508	1	2	0.012175	-9.06317	-1.08947	4.14073
 509	1	1	-0.029522	-12.3369	-2.44172	4.35994
 510	1	1	0.182537	-12.0824	-3.93832	4.00741
 511	1	2	0.017614	-12.8098	-1.96831	3.49037
 512	1	2	0.005524	-13.0941	-2.3829	5.15287
 513	1	1	-0.245806	-13.3729	-4.5761	3.45045
 514	1	1	-0.291525	-11.5623	-4.78331	5.19017
 515	1	2	-0.003466	-11.3351	-3.99227	3.21066
 516	1	2	0.0629	-10.558	-4.46854	5.49278
 517	1	2	0.058439	-11.4945	-5.8415	4.90788
 518	1	2	0.076366	-12.2318	-4.70555	6.05582
 519	1	2	0.061036	-14.1726	-4.56577	4.20176
 520	1	2	0.060061	-13.1969	-5.61755	3.15319
 521	1	2	0.042474	-13.7262	-4.03269	2.56503
 522	1	2	-0.019174	-11.4738	-0.537676	4.69965
 523	1	1	-0.06457	-10.6723	-1.80319	6.24571
 524	1	1	0.061186	-10.4432	-0.533616	7.12542
 525	1	2	0.013749	-11.4373	-2.40213	6.75542
 526	1	2	0.012175	-9.77189	-2.42826	6.27018
 527	1	1	-0.029522	-9.30465	0.394216	6.60088
 528	1	1	0.182537	-7.87567	-0.218047	6.62852
 529	1	2	0.017614	-9.27014	1.31456	7.19299
 530	1	2	0.005524	-9.54887	0.71538	5.58121
 531	1	1	-0.245806	-7.36054	-0.440937	8.06888
 532	1	1	-0.291525	-6.89284	0.692719	5.86318
 533	1	2	-0.003466	-7.88033	-1.18821	6.11952
 534	1	2	0.0629	-6.82877	1.68343	6.3309
 535	1	2	0.058439	-7.21406	0.825028	4.82226
 536	1	2	0.076366	-5.88687	0.255002	5.84979
 537	1	2	0.061036	-6.32811	-0.811971	8.05654
 538	1	2	0.060061	-7.96627	-1.183	8.6015
 539	1	2	0.042474	-7.37817	0.494203	8.64308
 540	1	2	-0.019174	-10.1296	-0.926381	8.09417
 541	1	1	-0.06457	-11.7813	0.245703	7.34348
 542	1	1	0.061186	-11.8027	1.31414	8.48722
 543	1	2	0.013749	-12.0286	0.73175	6.3961
 544	1	2	0.012175	-12.5896	-0.472242	7.53504
 545	1	1	-0.029522	-13.1098	2.16606	8.44763
 546	1	1	0.182537	-13.4229	2.92488	7.12506
 547	1	2	0.017614	-13.0646	2.91146	9.24677
 548	1	2	0.005524	-13.962	1.51592	8.68587
 549	1	1	-0.245806	-12.2574	3.82328	6.65338
 550	1	1	-0.291525	-14.7003	3.77566	7.28681
 551	1	2	-0.003466	-13.6336	2.1952	6.33437
 552	1	2	0.0629	-15.5521	3.14724	7.57542
 553	1	2	0.058439	-14.9575	4.27484	6.3442
 554	1	2	0.076366	-14.5664	4.5471	8.05587
 555	1	2	0.061036	-11.3659	3.23096	6.41588
 556	1	2	0.060061	-11.9909	4.55808	7.42309
 557	1	2	0.042474	-12.5364	4.37093	5.74443
 558	1	2	-0.019174	-10.961	1.99344	8.33528
 559	1	1	-0.06457	-11.6381	0.646233	9.88926
 560	1	1	0.061186	-11.3997	1.58012	11.118
 561	1	2	0.013749	-12.5272	0.0296846	10.0769
 562	1	2	0.012175	-10.7967	-0.0520527	9.86857
 563	1	1	-0.029522	-10.1125	2.44956	10.9465
 564	1	1	0.182537	-10.3527	3.91648	10.4946
 565	1	2	0.017614	-9.44185	1.95422	10.2321
 566	1	2	0.005524	-9.54398	2.48151	11.8797
 567	1	1	-0.245806	-9.01804	4.57762	10.0908
 568	1	1	-0.291525	-11.0349	4.76622	11.5907
 569	1	2	-0.003466	-10.9986	3.92125	9.61111
 570	1	2	0.0629	-10.4304	4.78598	12.5063
 571	1	2	0.058439	-12.0261	4.37703	11.8446
 572	1	2	0.076366	-11.1676	5.80037	11.2491
 573	1	2	0.061036	-8.53604	4.01852	9.27895
 574	1	2	0.060061	-8.32482	4.61488	10.9407
 575	1	2	0.042474	-9.18266	5.60366	9.73843
 576	1	2	-0.019174	-12.2759	2.22485	11.2411
 577	1	1	-0.06457	-11.3221	0.67918	12.3859
 578	1	1	0.061186	-11.289	1.42513	13.7624
 579	1	2	0.013749	-12.1896	0.00800247	12.3745
 580	1	2	0.012175	-10.4622	0.0123756	12.2774
 581	1	1	-0.029522	-9.90306	1.39204	14.496
 582	1	1	0.182537	-9.08586	0.0626567	14.5417
 583	1	2	0.017614	-10.0478	1.74678	15.5248
 584	1	2	0.005524	-9.25694	2.1514	14.04
 585	1	1	-0.245806	-9.88808	-1.17648	14.9959
 586	1	1	-0.291525	-7.86234	0.229171	15.4658
 587	1	2	-0.003466	-8.69158	-0.139022	13.5384
 588	1	2	0.0629	-7.20858	-0.650154	15.4106
 589	1	2	0.058439	-8.17963	0.349555	16.5079
 590	1	2	0.076366	-7.27032	1.10628	15.1815
 591	1	2	0.061036	-9.22478	-2.04221	15.1158
 592	1	2	0.060061	-10.6441	-1.45568	14.2536
 593	1	2	0.042474	-10.384	-0.995582	15.9578
 594	1	2	-0.019174	-11.4666	2.4878	13.5697
 595	1	1	-0.06457	-12.4348	0.946666	14.7106
 596	1	1	0.061186	-13.8958	1.33929	14.3186
 597	1	2	0.013749	-12.3695	-0.13953	14.789
 598	1	2	0.012175	-12.2511	1.32976	15.7228
 599	1	1	-0.029522	-14.9165	0.62221	15.2629
 600	1	1	0.182537	-14.9272	-0.93414	15.2425
 601	1	2	0.017614	-15.9342	0.940686	15.0152
 602	1	2	0.005524	-14.7284	0.947601	16.2939
 603	1	1	-0.245806	-15.111	-1.51772	13.8235
 604	1	1	-0.291525	-16.0429	-1.46476	16.1681
 605	1	2	-0.003466	-13.98	-1.3094	15.647
 606	1	2	0.0629	-15.9133	-1.08779	17.1904
 607	1	2	0.058439	-16.0253	-2.56107	16.2102
 608	1	2	0.076366	-17.0328	-1.1532	15.8109
 609	1	2	0.061036	-15.2009	-2.61047	13.8634
 610	1	2	0.060061	-14.2523	-1.28602	13.1828
 611	1	2	0.042474	-16.016	-1.1188	13.3478
 612	1	2	-0.019174	-14.0935	0.990791	13.2987
 613	1	1	-0.06457	-14.0531	2.89737	14.2823
 614	1	1	0.061186	-15.5047	3.47871	14.2388
 615	1	2	0.013749	-13.5181	3.34111	15.1325
 616	1	2	0.012175	-13.5192	3.24545	13.3917
 617	1	1	-0.029522	-15.5794	4.75129	13.3368
 618	1	1	0.182537	-16.1401	4.48146	11.9138
 619	1	2	0.017614	-14.5922	5.22646	13.2648
 620	1	2	0.005524	-16.2181	5.50851	13.8037
 621	1	1	-0.245806	-15.2787	3.48944	11.1045
 622	1	1	-0.291525	-16.2856	5.80146	11.1282
 623	1	2	-0.003466	-17.1438	4.04878	12.0197
 624	1	2	0.0629	-16.7217	5.61826	10.138
 625	1	2	0.058439	-15.3109	6.28556	10.9879
 626	1	2	0.076366	-16.9432	6.50084	11.6596
 627	1	2	0.061036	-15.2217	2.51004	11.5931
 628	1	2	0.060061	-14.2611	3.87643	10.9821
 629	1	2	0.042474	-15.7087	3.33153	10.1083
 630	1	2	-0.019174	-16.148	2.72076	13.7847
 631	1	1	-0.06457	-15.9998	3.78312	15.6885
 632	1	1	0.061186	-17.5073	4.14449	15.8898
 633	1	2	0.013749	-15.3837	4.60505	16.0633
 634	1	2	0.012175	-15.7742	2.934	16.3402
 635	1	1	-0.029522	-18.45	2.99999	15.3988
 636	1	1	0.182537	-19.9739	3.32301	15.3791
 637	1	2	0.017614	-18.2775	2.11287	16.0224
 638	1	2	0.005524	-18.1813	2.71039	14.3781
 639	1	1	-0.245806	-20.7725	2.07466	14.9473
 640	1	1	-0.291525	-20.3193	4.50728	14.4486
 641	1	2	-0.003466	-20.3145	3.58163	16.3877
 642	1	2	0.0629	-21.4059	4.64732	14.3883
 643	1	2	0.058439	-19.9418	4.33333	13.433
 644	1	2	0.076366	-19.892	5.44541	14.8213
 645	1	2	0.061036	-21.8508	2.27662	14.9663
 646	1	2	0.060061	-20.5777	1.23423	15.6253
 647	1	2	0.042474	-20.5009	1.76441	13.9302
 648	1	2	-0.019174	-17.7277	5.03152	15.2892
 649	1	1	-0.06457	-17.765	4.49353	17.3939
 650	1	1	0.061186	-17.9112	6.01628	17.7154
 651	1	2	0.013749	-17.0005	4.02595	18.02
 652	1	2	0.012175	-18.6884	4.00523	17.7199
 653	1	1	-0.029522	-18.4857	6.24514	19.1519
 654	1	1	0.182537	-19.6295	7.28923	19.2866
 655	1	2	0.017614	-17.6869	6.53419	19.8376
 656	1	2	0.005524	-18.8649	5.29627	19.5525
 657	1	1	-0.245806	-20.9318	6.83912	18.5866
 658	1	1	-0.291525	-19.2239	8.70453	18.826
 659	1	2	-0.003466	-19.8566	7.3585	20.3585
 660	1	2	0.0629	-18.2801	9.01104	19.2935
 661	1	2	0.058439	-19.9919	9.4342	19.1112
 662	1	2	0.076366	-19.1082	8.75252	17.7367
 663	1	2	0.061036	-21.7511	7.52918	18.8237
 664	1	2	0.060061	-21.2292	5.83836	18.9239
 665	1	2	0.042474	-20.8221	6.81434	17.496
 666	1	2	-0.019174	-18.6816	6.35321	17.0129
 667	1	1	-0.06457	-16.6567	6.89479	17.3815