pySIMM System Object

758 atoms
757 bonds
1512 angles
2259 dihedrals
0 impropers

2 atom types
2 bond types
3 angle types
3 dihedral types

-112.738128 112.738128 xlo xhi
-112.738128 112.738128 ylo yhi
-112.738128 112.738128 zlo zhi

Masses

   1	12.01	# c3
   2	1.008	# hc

Pair Coeffs

   1	0.1094	3.3996695084235347	# c3
   2	0.0157	2.649532787749369	# hc

Bond Coeffs

   1	330.6	1.0969	# c3,hc
   2	300.9	1.5375	# c3,c3

Angle Coeffs

   1	46.34	109.8	# c3,c3,hc
   2	39.4	107.58	# hc,c3,hc
   3	62.86	111.51	# c3,c3,c3

Dihedral Coeffs

   1	1	0.16	3	0	# hc,c3,c3,c3
   2	1	0.15	3	0	# hc,c3,c3,hc
   3	3	0.18	3	0	0.25	2	180	0.2	1	180	# c3,c3,c3,c3

Atoms

   1	1	1	-0.06457	-4.6977	-16.3926	-15.9397
   2	1	1	0.061186	-5.71357	-15.663	-15.0233
   3	1	2	0.013749	-3.66868	-16.255	-15.588
   4	1	2	0.012175	-4.90206	-17.4703	-15.9705
   5	1	1	-0.029522	-7.1825	-15.8852	-15.4847
   6	1	1	0.182537	-7.52213	-15.4203	-16.9297
   7	1	2	0.017614	-7.84844	-15.3569	-14.7896
   8	1	2	0.005524	-7.42371	-16.9523	-15.3908
   9	1	1	-0.245806	-7.23297	-13.9193	-17.1597
  10	1	1	-0.291525	-9.00131	-15.715	-17.2561
  11	1	2	-0.003466	-6.91793	-15.9979	-17.6397
  12	1	2	0.0629	-9.67106	-15.1351	-16.6086
  13	1	2	0.058439	-9.22635	-16.7802	-17.1196
  14	1	2	0.076366	-9.22732	-15.456	-18.298
  15	1	2	0.061036	-6.16045	-13.7041	-17.0862
  16	1	2	0.060061	-7.76145	-13.3001	-16.4238
  17	1	2	0.042474	-7.55869	-13.6111	-18.161
  18	1	2	-0.019174	-5.52197	-14.5877	-15.0812
  19	1	1	-0.06457	-5.55391	-16.1015	-13.5387
  20	1	1	0.061186	-4.19443	-15.7634	-12.8376
  21	1	2	0.013749	-6.38621	-15.6994	-12.952
  22	1	2	0.012175	-5.69607	-17.1892	-13.4986
  23	1	1	-0.029522	-4.27068	-15.9502	-11.2927
  24	1	1	0.182537	-4.74197	-17.3405	-10.7839
  25	1	2	0.017614	-4.9537	-15.1979	-10.8812
  26	1	2	0.005524	-3.28312	-15.7365	-10.8623
  27	1	1	-0.245806	-4.8217	-17.3327	-9.24355
  28	1	1	-0.291525	-3.82768	-18.4944	-11.2512
  29	1	2	-0.003466	-5.75538	-17.532	-11.158
  30	1	2	0.0629	-3.85374	-18.6084	-12.3413
  31	1	2	0.058439	-4.15407	-19.4468	-10.815
  32	1	2	0.076366	-2.78812	-18.3194	-10.9468
  33	1	2	0.061036	-3.82954	-17.1816	-8.79996
  34	1	2	0.060061	-5.22343	-18.2822	-8.86797
  35	1	2	0.042474	-5.47798	-16.5264	-8.89376
  36	1	2	-0.019174	-3.48749	-16.5148	-13.2096
  37	1	1	-0.06457	-3.51749	-14.396	-13.2028
  38	1	1	0.061186	-3.98659	-13.0819	-12.4902
  39	1	2	0.013749	-2.46034	-14.5384	-12.9521
  40	1	2	0.012175	-3.51693	-14.2407	-14.2867
  41	1	1	-0.029522	-3.1433	-11.8592	-12.9703
  42	1	1	0.182537	-1.60057	-11.9661	-12.8176
  43	1	2	0.017614	-3.46189	-10.9628	-12.4298
  44	1	2	0.005524	-3.37319	-11.6705	-14.0274
  45	1	1	-0.245806	-1.16338	-12.2848	-11.3708
  46	1	1	-0.291525	-0.933737	-10.6564	-13.2887
  47	1	2	-0.003466	-1.23108	-12.7638	-13.4733
  48	1	2	0.0629	0.15804	-10.7506	-13.2821
  49	1	2	0.058439	-1.20966	-9.81632	-12.6384
  50	1	2	0.076366	-1.239	-10.411	-14.3136
  51	1	2	0.061036	-0.0714418	-12.3289	-11.3012
  52	1	2	0.060061	-1.54699	-13.2555	-11.036
  53	1	2	0.042474	-1.52166	-11.5144	-10.6787
  54	1	2	-0.019174	-3.80478	-13.2067	-11.4188
  55	1	1	-0.06457	-5.50307	-12.7915	-12.7011
  56	1	1	0.061186	-6.14944	-11.6849	-11.814
  57	1	2	0.013749	-6.07736	-13.6946	-12.5049
  58	1	2	0.012175	-5.66195	-12.5518	-13.7607
  59	1	1	-0.029522	-6.19835	-12.1259	-10.3129
  60	1	1	0.182537	-5.80031	-11.0292	-9.28735
  61	1	2	0.017614	-7.20412	-12.4965	-10.0798
  62	1	2	0.005524	-5.55206	-12.9927	-10.1391
  63	1	1	-0.245806	-4.29035	-10.7065	-9.32907
  64	1	1	-0.291525	-6.20674	-11.4538	-7.86331
  65	1	2	-0.003466	-6.34828	-10.1103	-9.51107
  66	1	2	0.0629	-7.29343	-11.5683	-7.80453
  67	1	2	0.058439	-5.91391	-10.6957	-7.12717
  68	1	2	0.076366	-5.74323	-12.4072	-7.58409
  69	1	2	0.061036	-3.69104	-11.6136	-9.18503
  70	1	2	0.060061	-4.02448	-9.99286	-8.53951
  71	1	2	0.042474	-4.00568	-10.2547	-10.285
  72	1	2	-0.019174	-5.563	-10.7677	-11.9145
  73	1	1	-0.06457	-7.57048	-11.4037	-12.3947
  74	1	1	0.061186	-8.47274	-10.3802	-11.6342
  75	1	2	0.013749	-7.47309	-11.0699	-13.4363
  76	1	2	0.012175	-8.07167	-12.3747	-12.4425
  77	1	1	-0.029522	-7.85837	-8.94705	-11.7118
  78	1	1	0.182537	-8.60554	-7.82804	-10.9301
  79	1	2	0.017614	-7.80274	-8.65138	-12.7677
  80	1	2	0.005524	-6.82171	-8.96922	-11.36
  81	1	1	-0.245806	-8.78334	-8.14778	-9.4281
  82	1	1	-0.291525	-7.8623	-6.48458	-11.0872
  83	1	2	-0.003466	-9.60185	-7.69425	-11.3689
  84	1	2	0.0629	-7.76402	-6.21464	-12.1461
  85	1	2	0.058439	-6.85583	-6.53798	-10.6525
  86	1	2	0.076366	-8.40829	-5.6766	-10.5843
  87	1	2	0.061036	-9.40695	-9.03644	-9.27883
  88	1	2	0.060061	-9.27737	-7.31435	-8.9133
  89	1	2	0.042474	-7.81485	-8.31699	-8.94178
  90	1	2	-0.019174	-8.50766	-10.6794	-10.582
  91	1	1	-0.06457	-9.94809	-10.3767	-12.1572
  92	1	1	0.061186	-10.663	-11.7568	-12.3296
  93	1	2	0.013749	-9.96599	-9.86567	-13.1289
  94	1	2	0.012175	-10.5371	-9.75476	-11.4818
  95	1	1	-0.029522	-12.1098	-11.613	-12.8996
  96	1	1	0.182537	-13.2875	-11.3389	-11.9138
  97	1	2	0.017614	-12.3406	-12.5475	-13.4274
  98	1	2	0.005524	-12.1082	-10.8389	-13.6781
  99	1	1	-0.245806	-13.1722	-10.016	-11.1265
 100	1	1	-0.291525	-14.6245	-11.3591	-12.6851
 101	1	2	-0.003466	-13.3379	-12.1507	-11.1825
 102	1	2	0.0629	-15.4729	-11.2333	-12.0007
 103	1	2	0.058439	-14.7587	-12.3136	-13.2097
 104	1	2	0.076366	-14.6616	-10.5517	-13.4275
 105	1	2	0.061036	-12.3816	-10.0737	-10.3703
 106	1	2	0.060061	-14.1054	-9.80189	-10.5907
 107	1	2	0.042474	-12.9651	-9.1721	-11.7966
 108	1	2	-0.019174	-10.1065	-12.2397	-13.1369
 109	1	1	-0.06457	-10.5704	-12.6699	-11.0649
 110	1	1	0.061186	-11.1109	-14.1346	-11.1906
 111	1	2	0.013749	-11.0884	-12.1549	-10.2495
 112	1	2	0.012175	-9.52639	-12.7394	-10.7447
 113	1	1	-0.029522	-10.4484	-14.9232	-12.3673
 114	1	1	0.182537	-11.1489	-16.2571	-12.7614
 115	1	2	0.017614	-9.40122	-15.1232	-12.1039
 116	1	2	0.005524	-10.4161	-14.314	-13.2749
 117	1	1	-0.245806	-12.5137	-16.0174	-13.4472
 118	1	1	-0.291525	-10.2453	-17.0846	-13.698
 119	1	2	-0.003466	-11.3215	-16.8704	-11.8713
 120	1	2	0.0629	-9.27478	-17.2886	-13.2284
 121	1	2	0.058439	-10.068	-16.5522	-14.6389
 122	1	2	0.076366	-10.7119	-18.0486	-13.9363
 123	1	2	0.061036	-13.2165	-15.5001	-12.7851
 124	1	2	0.060061	-12.9741	-16.9714	-13.7328
 125	1	2	0.042474	-12.3957	-15.4134	-14.3558
 126	1	2	-0.019174	-12.1855	-14.084	-11.3817
 127	1	1	-0.06457	-10.8667	-14.8955	-9.84781
 128	1	1	0.061186	-11.6855	-14.4167	-8.61184
 129	1	2	0.013749	-11.0383	-15.9686	-9.96605
 130	1	2	0.012175	-9.80007	-14.7984	-9.63392
 131	1	1	-0.029522	-13.2318	-14.5036	-8.81411
 132	1	1	0.182537	-13.8319	-15.7881	-9.46259
 133	1	2	0.017614	-13.5236	-13.6541	-9.44221
 134	1	2	0.005524	-13.7306	-14.3225	-7.85309
 135	1	1	-0.245806	-13.606	-17.0766	-8.64261
 136	1	1	-0.291525	-15.3444	-15.5906	-9.70031
 137	1	2	-0.003466	-13.3768	-15.9387	-10.447
 138	1	2	0.0629	-15.8769	-15.453	-8.75063
 139	1	2	0.058439	-15.7766	-16.46	-10.2116
 140	1	2	0.076366	-15.5294	-14.7097	-10.3279
 141	1	2	0.061036	-12.5589	-17.3945	-8.68468
 142	1	2	0.060061	-14.2027	-17.9032	-9.04843
 143	1	2	0.042474	-13.8934	-16.9345	-7.59317
 144	1	2	-0.019174	-11.4918	-13.3489	-8.48432
 145	1	1	-0.06457	-11.2363	-15.0864	-7.27046
 146	1	1	0.061186	-9.77969	-14.8249	-6.7645
 147	1	2	0.013749	-11.3944	-16.1665	-7.31383
 148	1	2	0.012175	-11.9147	-14.7376	-6.48143
 149	1	1	-0.029522	-9.35768	-13.3237	-6.83401
 150	1	1	0.182537	-10.2471	-12.3312	-6.03257
 151	1	2	0.017614	-9.32711	-13.012	-7.88541
 152	1	2	0.005524	-8.32992	-13.2155	-6.47384
 153	1	1	-0.245806	-10.1591	-12.5603	-4.5075
 154	1	1	-0.291525	-9.8529	-10.8752	-6.35875
 155	1	2	-0.003466	-11.2938	-12.4554	-6.33339
 156	1	2	0.0629	-9.9379	-10.6807	-7.43502
 157	1	2	0.058439	-8.81986	-10.6676	-6.05208
 158	1	2	0.076366	-10.5107	-10.1685	-5.83769
 159	1	2	0.061036	-10.5232	-13.556	-4.22951
 160	1	2	0.060061	-10.7726	-11.8258	-3.97105
 161	1	2	0.042474	-9.12504	-12.4584	-4.156
 162	1	2	-0.019174	-9.80074	-15.1031	-5.70655
 163	1	1	-0.06457	-8.71802	-15.7543	-7.44496
 164	1	1	0.061186	-7.70578	-16.4666	-6.49149
 165	1	2	0.013749	-9.22135	-16.5173	-8.04931
 166	1	2	0.012175	-8.1378	-15.168	-8.16941
 167	1	1	-0.029522	-8.37066	-17.4948	-5.52258
 168	1	1	0.182537	-9.29054	-18.563	-6.17749
 169	1	2	0.017614	-8.94443	-16.9563	-4.75846
 170	1	2	0.005524	-7.58366	-18.0342	-4.98291
 171	1	1	-0.245806	-8.55336	-19.4145	-7.23598
 172	1	1	-0.291525	-9.89058	-19.4842	-5.09487
 173	1	2	-0.003466	-10.1324	-18.061	-6.66723
 174	1	2	0.0629	-10.456	-18.9013	-4.35697
 175	1	2	0.058439	-9.10301	-20.0356	-4.56559
 176	1	2	0.076366	-10.5766	-20.2142	-5.5426
 177	1	2	0.061036	-7.67776	-19.9109	-6.79892
 178	1	2	0.060061	-8.21472	-18.8012	-8.07923
 179	1	2	0.042474	-9.21711	-20.1889	-7.6404
 180	1	2	-0.019174	-7.02843	-17.0292	-7.14136
 181	1	1	-0.06457	-6.84682	-15.4121	-5.73457
 182	1	1	0.061186	-5.68073	-15.9236	-4.83365
 183	1	2	0.013749	-6.42519	-14.714	-6.4699
 184	1	2	0.012175	-7.52348	-14.818	-5.11653
 185	1	1	-0.029522	-4.55316	-16.5651	-5.69811
 186	1	1	0.182537	-3.34028	-17.1753	-4.93509
 187	1	2	0.017614	-4.18305	-15.8206	-6.41426
 188	1	2	0.005524	-4.9972	-17.3706	-6.29403
 189	1	1	-0.245806	-2.43222	-17.9522	-5.91285
 190	1	1	-0.291525	-3.75378	-18.1072	-3.77385
 191	1	2	-0.003466	-2.73639	-16.3627	-4.51571
 192	1	2	0.0629	-4.4218	-18.9027	-4.1276
 193	1	2	0.058439	-4.26565	-17.5521	-2.97919
 194	1	2	0.076366	-2.87143	-18.5786	-3.32341
 195	1	2	0.061036	-1.53482	-18.321	-5.40063
 196	1	2	0.060061	-2.10566	-17.3126	-6.74047
 197	1	2	0.042474	-2.96023	-18.8146	-6.33944
 198	1	2	-0.019174	-6.05449	-16.7118	-4.17577
 199	1	1	-0.06457	-5.18694	-14.7446	-3.93524
 200	1	1	0.061186	-5.77979	-14.6878	-2.48742
 201	1	2	0.013749	-4.0987	-14.7956	-3.84269
 202	1	2	0.012175	-5.38378	-13.7922	-4.44602
 203	1	1	-0.029522	-7.32764	-14.9079	-2.43137
 204	1	1	0.182537	-7.98187	-14.9374	-1.0213
 205	1	2	0.017614	-7.58943	-15.8526	-2.91834
 206	1	2	0.005524	-7.81231	-14.1136	-3.01114
 207	1	1	-0.245806	-7.37	-16.0177	-0.101571
 208	1	1	-0.291525	-9.50285	-15.167	-1.1512
 209	1	2	-0.003466	-7.84915	-13.9607	-0.540753
 210	1	2	0.0629	-9.71734	-16.1376	-1.61649
 211	1	2	0.058439	-9.9637	-14.3834	-1.7655
 212	1	2	0.076366	-9.98487	-15.1467	-0.165811
 213	1	2	0.061036	-7.43371	-17.0102	-0.565501
 214	1	2	0.060061	-7.90157	-16.0556	0.857449
 215	1	2	0.042474	-6.3167	-15.806	0.117328
 216	1	2	-0.019174	-5.31555	-15.5108	-1.93297
 217	1	1	-0.06457	-5.41877	-13.3451	-1.77974
 218	1	1	0.061186	-3.94045	-12.8525	-1.84566
 219	1	2	0.013749	-6.06966	-12.5748	-2.204
 220	1	2	0.012175	-5.69106	-13.4165	-0.719882
 221	1	1	-0.029522	-3.00275	-13.8422	-1.08638
 222	1	1	0.182537	-1.47602	-13.6397	-1.30708
 223	1	2	0.017614	-3.23915	-14.8738	-1.37142
 224	1	2	0.005524	-3.22549	-13.7697	-0.0135381
 225	1	1	-0.245806	-1.0336	-14.0095	-2.74115
 226	1	1	-0.291525	-0.673037	-14.4832	-0.294931
 227	1	2	-0.003466	-1.21476	-12.5909	-1.12718
 228	1	2	0.0629	0.404994	-14.3256	-0.42504
 229	1	2	0.058439	-0.880279	-15.5535	-0.422286
 230	1	2	0.076366	-0.930083	-14.2049	0.734771
 231	1	2	0.061036	0.0469512	-13.8628	-2.86171
 232	1	2	0.060061	-1.53341	-13.3883	-3.48974
 233	1	2	0.042474	-1.26016	-15.0597	-2.96323
 234	1	2	-0.019174	-3.632	-12.8141	-2.89424
 235	1	1	-0.06457	-3.85111	-11.402	-1.26411
 236	1	1	0.061186	-3.80493	-10.2387	-2.30554
 237	1	2	0.013749	-4.69672	-11.2287	-0.585454
 238	1	2	0.012175	-2.97059	-11.3129	-0.618484
 239	1	1	-0.029522	-5.04843	-10.2309	-3.25169
 240	1	1	0.182537	-5.37092	-8.92736	-4.04666
 241	1	2	0.017614	-5.93264	-10.4229	-2.63233
 242	1	2	0.005524	-4.98349	-11.0712	-3.95527
 243	1	1	-0.245806	-4.40493	-8.61424	-5.21005
 244	1	1	-0.291525	-5.53323	-7.6899	-3.13741
 245	1	2	-0.003466	-6.35032	-9.10316	-4.51105
 246	1	2	0.0629	-5.93107	-6.84295	-3.7103
 247	1	2	0.058439	-4.57402	-7.379	-2.70626
 248	1	2	0.076366	-6.23062	-7.89739	-2.31638
 249	1	2	0.061036	-4.83516	-7.84509	-5.86349
 250	1	2	0.060061	-4.22013	-9.50494	-5.82163
 251	1	2	0.042474	-3.44527	-8.2324	-4.84698
 252	1	2	-0.019174	-3.86337	-9.32476	-1.70368
 253	1	1	-0.06457	-2.44607	-10.2339	-3.06949
 254	1	1	0.061186	-1.53607	-9.01561	-2.73682
 255	1	2	0.013749	-1.89534	-11.1517	-2.84881
 256	1	2	0.012175	-2.63018	-10.2791	-4.14598
 257	1	1	-0.029522	-0.957575	-9.11959	-1.29367
 258	1	1	0.182537	-0.175982	-7.87613	-0.781976
 259	1	2	0.017614	-0.317961	-10.0082	-1.22995
 260	1	2	0.005524	-1.77877	-9.29944	-0.5901
 261	1	1	-0.245806	0.448579	-8.17149	0.597606
 262	1	1	-0.291525	-1.06407	-6.61522	-0.690677
 263	1	2	-0.003466	0.650656	-7.65584	-1.46537
 264	1	2	0.0629	-1.43418	-6.31415	-1.67709
 265	1	2	0.058439	-0.495827	-5.76996	-0.282785
 266	1	2	0.076366	-1.92883	-6.79047	-0.0383862
 267	1	2	0.061036	1.03149	-7.31227	0.952362
 268	1	2	0.060061	1.12391	-9.03447	0.542218
 269	1	2	0.042474	-0.326875	-8.38995	1.34284
 270	1	2	-0.019174	-2.18496	-8.13312	-2.76687
 271	1	1	-0.06457	-0.464475	-8.77764	-3.84403
 272	1	1	0.061186	0.529039	-9.95147	-4.14869
 273	1	2	0.013749	0.083855	-7.8593	-3.62026
 274	1	2	0.012175	-1.01578	-8.5319	-4.75974
 275	1	1	-0.029522	1.85265	-9.89784	-3.31689
 276	1	1	0.182537	3.0458	-9.05066	-3.86001
 277	1	2	0.017614	2.21182	-10.9318	-3.23017
 278	1	2	0.005524	1.63612	-9.58793	-2.29074
 279	1	1	-0.245806	4.26205	-9.18946	-2.91977
 280	1	1	-0.291525	2.72785	-7.55466	-4.05517
 281	1	2	-0.003466	3.35363	-9.45286	-4.83269
 282	1	2	0.0629	2.39986	-7.09024	-3.11722
 283	1	2	0.058439	1.95069	-7.41309	-4.80975
 284	1	2	0.076366	3.61477	-7.0189	-4.40981
 285	1	2	0.061036	5.12706	-8.6438	-3.31758
 286	1	2	0.060061	4.55226	-10.2418	-2.80973
 287	1	2	0.042474	4.03615	-8.79044	-1.92261
 288	1	2	-0.019174	0.0465462	-10.8894	-3.85782
 289	1	1	-0.06457	0.80638	-10.056	-5.67515
 290	1	1	0.061186	-0.354355	-10.6634	-6.51796
 291	1	2	0.013749	1.0219	-9.04683	-6.01895
 292	1	2	0.012175	1.71134	-10.6504	-5.84519
 293	1	1	-0.029522	-0.286405	-12.2239	-6.50115
 294	1	1	0.182537	-1.49417	-12.9878	-7.11804
 295	1	2	0.017614	-0.180506	-12.5548	-5.46081
 296	1	2	0.005524	0.628152	-12.5558	-7.00416
 297	1	1	-0.245806	-2.84135	-12.6403	-6.44512
 298	1	1	-0.291525	-1.25817	-14.5087	-7.03649
 299	1	2	-0.003466	-1.57068	-12.7455	-8.18366
 300	1	2	0.0629	-0.318027	-14.7851	-7.52999
 301	1	2	0.058439	-2.06959	-15.0494	-7.53863
 302	1	2	0.076366	-1.21054	-14.8452	-5.99313
 303	1	2	0.061036	-3.11626	-11.5945	-6.62119
 304	1	2	0.060061	-2.80012	-12.8069	-5.36298
 305	1	2	0.042474	-3.64605	-13.2646	-6.85152
 306	1	2	-0.019174	-1.2817	-10.4023	-6.00068
 307	1	1	-0.06457	-0.517069	-10.0269	-7.94164
 308	1	1	0.061186	0.722214	-9.69986	-8.84559
 309	1	2	0.013749	-1.18613	-10.6594	-8.52963
 310	1	2	0.012175	-1.10442	-9.116	-7.81834
 311	1	1	-0.029522	1.70281	-10.9047	-8.97526
 312	1	1	0.182537	2.91737	-10.7181	-9.92998
 313	1	2	0.017614	1.13616	-11.7896	-9.29036
 314	1	2	0.005524	2.11034	-11.136	-7.98666
 315	1	1	-0.245806	2.51215	-10.4269	-11.3911
 316	1	1	-0.291525	3.82217	-11.9677	-9.8879
 317	1	2	-0.003466	3.5226	-9.87648	-9.57147
 318	1	2	0.0629	3.28339	-12.8562	-10.2411
 319	1	2	0.058439	4.17145	-12.1626	-8.86615
 320	1	2	0.076366	4.7058	-11.8291	-10.5234
 321	1	2	0.061036	1.90286	-9.51919	-11.4702
 322	1	2	0.060061	1.94563	-11.2648	-11.8117
 323	1	2	0.042474	3.40293	-10.2787	-12.0142
 324	1	2	-0.019174	0.292117	-9.55925	-9.84395
 325	1	1	-0.06457	1.47666	-8.36391	-8.52412
 326	1	1	0.061186	0.644161	-7.10245	-8.11206
 327	1	2	0.013749	2.22373	-8.56823	-7.74771
 328	1	2	0.012175	2.06268	-8.08723	-9.40964
 329	1	1	-0.029522	-0.342238	-6.67454	-9.24989
 330	1	1	0.182537	-1.63668	-5.91847	-8.82617
 331	1	2	0.017614	-0.667505	-7.55687	-9.81109
 332	1	2	0.005524	0.211534	-6.06352	-9.97476
 333	1	1	-0.245806	-2.60443	-6.78531	-7.98916
 334	1	1	-0.291525	-2.3764	-5.39644	-10.0759
 335	1	2	-0.003466	-1.37764	-5.04394	-8.22783
 336	1	2	0.0629	-1.7305	-4.72965	-10.6609
 337	1	2	0.058439	-3.27108	-4.82906	-9.78999
 338	1	2	0.076366	-2.68988	-6.22551	-10.7229
 339	1	2	0.061036	-2.15047	-7.10236	-7.04375
 340	1	2	0.060061	-2.91079	-7.68018	-8.54466
 341	1	2	0.042474	-3.51003	-6.21854	-7.73909
 342	1	2	-0.019174	0.0832543	-7.36105	-7.21152
 343	1	1	-0.06457	1.6711	-5.98184	-7.74275
 344	1	1	0.061186	1.1587	-4.64372	-7.11888
 345	1	2	0.013749	2.41044	-6.40082	-7.04781
 346	1	2	0.012175	2.21937	-5.75888	-8.66424
 347	1	1	-0.029522	0.314508	-4.90308	-5.8306
 348	1	1	0.182537	-0.307781	-3.65954	-5.13631
 349	1	2	0.017614	0.949231	-5.4146	-5.09893
 350	1	2	0.005524	-0.503986	-5.59342	-6.05666
 351	1	1	-0.245806	-1.0649	-4.09231	-3.86292
 352	1	1	-0.291525	-1.25668	-2.86829	-6.06338
 353	1	2	-0.003466	0.495406	-2.98713	-4.81259
 354	1	2	0.0629	-0.722408	-2.46111	-6.92978
 355	1	2	0.058439	-1.70285	-2.022	-5.52632
 356	1	2	0.076366	-2.0724	-3.50585	-6.42673
 357	1	2	0.061036	-0.389682	-4.60703	-3.16811
 358	1	2	0.060061	-1.8907	-4.77323	-4.10616
 359	1	2	0.042474	-1.48174	-3.22159	-3.34139
 360	1	2	-0.019174	0.521731	-4.15333	-7.85815
 361	1	1	-0.06457	2.3466	-3.67222	-6.81143
 362	1	1	0.061186	3.33317	-3.36603	-7.98518
 363	1	2	0.013749	1.948	-2.71102	-6.46634
 364	1	2	0.012175	2.89872	-4.08913	-5.96207
 365	1	1	-0.029522	2.57378	-2.70096	-9.17634
 366	1	1	0.182537	3.41778	-2.33462	-10.4298
 367	1	2	0.017614	2.07901	-1.79128	-8.8113
 368	1	2	0.005524	1.77292	-3.37109	-9.5101
 369	1	1	-0.245806	2.51591	-1.70044	-11.51
 370	1	1	-0.291525	4.16132	-3.55241	-11.0232
 371	1	2	-0.003466	4.16096	-1.57663	-10.1544
 372	1	2	0.0629	3.45879	-4.35838	-11.2705
 373	1	2	0.058439	4.90588	-3.94732	-10.322
 374	1	2	0.076366	4.69301	-3.27092	-11.9406
 375	1	2	0.061036	3.10869	-1.39269	-12.3805
 376	1	2	0.060061	2.00754	-0.810081	-11.1191
 377	1	2	0.042474	1.75062	-2.40935	-11.8511
 378	1	2	-0.019174	3.75273	-4.30887	-8.34602
 379	1	1	-0.06457	4.54237	-2.49722	-7.51836
 380	1	1	0.061186	5.40784	-3.03502	-6.33272
 381	1	2	0.013749	5.22061	-2.35899	-8.36816
 382	1	2	0.012175	4.16094	-1.5012	-7.26178
 383	1	1	-0.029522	5.75495	-4.55089	-6.49445
 384	1	1	0.182537	6.64252	-5.18567	-5.38526
 385	1	2	0.017614	6.25018	-4.69688	-7.46347
 386	1	2	0.005524	4.82937	-5.13544	-6.53636
 387	1	1	-0.245806	6.80827	-6.69934	-5.6396
 388	1	1	-0.291525	6.08869	-4.95322	-3.96045
 389	1	2	-0.003466	7.64527	-4.74396	-5.43687
 390	1	2	0.0629	5.05382	-5.30305	-3.87584
 391	1	2	0.058439	6.11019	-3.89081	-3.69087
 392	1	2	0.076366	6.69183	-5.49022	-3.2178
 393	1	2	0.061036	5.84186	-7.21655	-5.59122
 394	1	2	0.060061	7.47394	-7.14936	-4.89249
 395	1	2	0.042474	7.24383	-6.88176	-6.63006
 396	1	2	-0.019174	4.81755	-2.93044	-5.41579
 397	1	1	-0.06457	6.71132	-2.18767	-6.18149
 398	1	1	0.061186	6.55638	-0.638728	-6.06229
 399	1	2	0.013749	7.26971	-2.5262	-5.30136
 400	1	2	0.012175	7.33816	-2.42081	-7.04936
 401	1	1	-0.029522	7.95787	0.0488051	-5.96588
 402	1	1	0.182537	8.96432	-0.240439	-7.11631
 403	1	2	0.017614	8.42378	-0.239044	-5.01424
 404	1	2	0.005524	7.83268	1.13516	-5.92375
 405	1	1	-0.245806	10.2724	0.546079	-6.88711
 406	1	1	-0.291525	8.39369	0.098793	-8.51204
 407	1	2	-0.003466	9.23077	-1.30392	-7.10249
 408	1	2	0.0629	8.09068	1.1518	-8.56774
 409	1	2	0.058439	7.52421	-0.52426	-8.75266
 410	1	2	0.076366	9.14752	-0.0777973	-9.28938
 411	1	2	0.061036	10.7147	0.291532	-5.91576
 412	1	2	0.060061	10.0903	1.62818	-6.90732
 413	1	2	0.042474	11.0104	0.309687	-7.66393
 414	1	2	-0.019174	6.06354	-0.275392	-6.96919
 415	1	1	-0.06457	5.65631	-0.264467	-4.84311
 416	1	1	0.061186	5.38229	1.25259	-4.6029
 417	1	2	0.013749	4.68345	-0.760705	-4.93615
 418	1	2	0.012175	6.12178	-0.690106	-3.94529
 419	1	1	-0.029522	4.55166	1.89094	-5.76432
 420	1	1	0.182537	5.3616	2.63396	-6.86319
 421	1	2	0.017614	3.82089	2.60121	-5.36003
 422	1	2	0.005524	3.94445	1.10658	-6.23502
 423	1	1	-0.245806	6.08691	3.88788	-6.32384
 424	1	1	-0.291525	4.42884	3.04013	-8.02359
 425	1	2	-0.003466	6.1154	1.95938	-7.27929
 426	1	2	0.0629	4.99511	3.53277	-8.82397
 427	1	2	0.058439	3.65044	3.73296	-7.67917
 428	1	2	0.076366	3.93771	2.15902	-8.45524
 429	1	2	0.061036	6.8731	3.62196	-5.60939
 430	1	2	0.060061	5.3832	4.56711	-5.82676
 431	1	2	0.042474	6.56803	4.43774	-7.14237
 432	1	2	-0.019174	6.34576	1.7533	-4.51621
 433	1	1	-0.06457	4.65516	1.43884	-3.23685
 434	1	1	0.061186	4.71429	2.87953	-2.63878
 435	1	2	0.013749	3.60655	1.14513	-3.37834
 436	1	2	0.012175	5.04222	0.736223	-2.49091
 437	1	1	-0.029522	6.16243	3.38286	-2.30843
 438	1	1	0.182537	7.00359	2.57499	-1.2708
 439	1	2	0.017614	6.08374	4.41386	-1.95501
 440	1	2	0.005524	6.74176	3.47976	-3.23265
 441	1	1	-0.245806	7.98488	3.51051	-0.52691
 442	1	1	-0.291525	7.83393	1.43816	-1.91357
 443	1	2	-0.003466	6.33661	2.137	-0.519023
 444	1	2	0.0629	8.48695	1.82687	-2.70523
 445	1	2	0.058439	7.20522	0.657707	-2.34572
 446	1	2	0.076366	8.46959	0.953893	-1.16174
 447	1	2	0.061036	8.69909	3.96399	-1.22593
 448	1	2	0.060061	8.55408	2.95549	0.229375
 449	1	2	0.042474	7.45625	4.32052	-0.0113311
 450	1	2	-0.019174	4.32979	3.54024	-3.41846
 451	1	1	-0.06457	3.70843	2.97456	-1.44722
 452	1	1	0.061186	3.29949	4.3734	-0.877541
 453	1	2	0.013749	2.77227	2.5015	-1.77165
 454	1	2	0.012175	4.0623	2.34262	-0.624517
 455	1	1	-0.029522	2.62975	5.32128	-1.92742
 456	1	1	0.182537	3.54771	6.13484	-2.89425
 457	1	2	0.017614	1.97224	6.02382	-1.4017
 458	1	2	0.005524	1.94227	4.70461	-2.52118
 459	1	1	-0.245806	3.69521	7.61412	-2.47019
 460	1	1	-0.291525	3.00415	6.08525	-4.33977
 461	1	2	-0.003466	4.55057	5.70244	-2.91139
 462	1	2	0.0629	2.00798	6.54164	-4.40052
 463	1	2	0.058439	2.92773	5.05088	-4.697
 464	1	2	0.076366	3.66965	6.62538	-5.02484
 465	1	2	0.061036	2.71794	8.11102	-2.42376
 466	1	2	0.060061	4.31742	8.1605	-3.1901
 467	1	2	0.042474	4.17505	7.70911	-1.49152
 468	1	2	-0.019174	2.47115	4.11322	-0.209766
 469	1	1	-0.06457	4.38602	5.02402	0.0363365
 470	1	1	0.061186	3.91287	5.53867	1.43267
 471	1	2	0.013749	5.17771	4.29351	0.214737
 472	1	2	0.012175	4.88785	5.8406	-0.490885
 473	1	1	-0.029522	3.42496	4.3935	2.38069
 474	1	1	0.182537	4.41274	3.21364	2.61307
 475	1	2	0.017614	2.47884	3.98742	2.00325
 476	1	2	0.005524	3.18477	4.81278	3.36213
 477	1	1	-0.245806	3.79223	2.18291	3.57948
 478	1	1	-0.291525	5.78568	3.66952	3.15733
 479	1	2	-0.003466	4.57971	2.69477	1.66262
 480	1	2	0.0629	5.67437	4.20744	4.10644
 481	1	2	0.058439	6.30343	4.32499	2.44761
 482	1	2	0.076366	6.4359	2.80385	3.3345
 483	1	2	0.061036	4.45978	1.32216	3.71137
 484	1	2	0.060061	2.83684	1.80961	3.19006
 485	1	2	0.042474	3.60992	2.62784	4.56618
 486	1	2	-0.019174	4.8026	5.98025	1.89093
 487	1	1	-0.06457	2.85008	6.67168	1.29185
 488	1	1	0.061186	2.52475	7.4986	2.57313
 489	1	2	0.013749	3.1702	7.37303	0.513494
 490	1	2	0.012175	1.9196	6.21431	0.932816
 491	1	1	-0.029522	1.25812	8.38094	2.32661
 492	1	1	0.182537	0.11212	8.15859	3.3497
 493	1	2	0.017614	0.858594	8.20746	1.31871
 494	1	2	0.005524	1.5417	9.44147	2.33392
 495	1	1	-0.245806	-0.539628	6.7651	3.1973
 496	1	1	-0.291525	-0.963545	9.25497	3.20242
 497	1	2	-0.003466	0.522217	8.23698	4.36382
 498	1	2	0.0629	-0.528254	10.251	3.35246
 499	1	2	0.058439	-1.75958	9.12182	3.94568
 500	1	2	0.076366	-1.41905	9.22706	2.20443
 501	1	2	0.061036	-1.35412	6.63913	3.92151
 502	1	2	0.060061	0.183384	5.95961	3.37119
 503	1	2	0.042474	-0.957603	6.63563	2.19092
 504	1	2	-0.019174	2.29388	6.78604	3.36757
 505	1	1	-0.06457	3.73008	8.375	3.04224
 506	1	1	0.061186	3.56915	9.00903	4.45976
 507	1	2	0.013749	4.65968	7.80004	3.02364
 508	1	2	0.012175	3.87591	9.1719	2.30123
 509	1	1	-0.029522	3.47988	7.9351	5.59481
 510	1	1	0.182537	4.51314	6.76675	5.60937
 511	1	2	0.017614	2.49156	7.46778	5.51088
 512	1	2	0.005524	3.4365	8.41403	6.57395
 513	1	1	-0.245806	4.20668	5.81299	6.7835
 514	1	1	-0.291525	5.99768	7.18672	5.66705
 515	1	2	-0.003466	4.38194	6.18778	4.69082
 516	1	2	0.0629	6.30002	7.71876	4.75999
 517	1	2	0.058439	6.64037	6.30034	5.73921
 518	1	2	0.076366	6.2062	7.81654	6.53711
 519	1	2	0.061036	4.33741	6.32188	7.74711
 520	1	2	0.060061	4.87397	4.94218	6.76324
 521	1	2	0.042474	3.17498	5.44345	6.72777
 522	1	2	-0.019174	2.58969	9.49363	4.45913
 523	1	1	-0.06457	4.60733	10.1711	4.65605
 524	1	1	0.061186	4.49984	11.1024	5.91262
 525	1	2	0.013749	5.6287	9.78532	4.58259
 526	1	2	0.012175	4.50861	10.8302	3.78371
 527	1	1	-0.029522	3.03432	11.484	6.29283
 528	1	1	0.182537	2.23239	12.2338	5.18997
 529	1	2	0.017614	3.03627	12.1275	7.17944
 530	1	2	0.005524	2.49165	10.578	6.588
 531	1	1	-0.245806	2.79521	13.6451	4.91859
 532	1	1	-0.291525	0.744891	12.3359	5.58639
 533	1	2	-0.003466	2.27709	11.6741	4.24936
 534	1	2	0.0629	0.166403	12.8385	4.80105
 535	1	2	0.058439	0.623573	12.9038	6.5176
 536	1	2	0.076366	0.312413	11.3383	5.73375
 537	1	2	0.061036	2.17802	14.1732	4.18114
 538	1	2	0.060061	3.81414	13.5968	4.51722
 539	1	2	0.042474	2.81233	14.2425	5.83881
 540	1	2	-0.019174	5.00894	12.0287	5.62409
 541	1	1	-0.06457	5.33598	10.5451	7.10652
 542	1	1	0.061186	5.34998	11.3549	8.44166
 543	1	2	0.013749	4.9738	9.5472	7.32927
 544	1	2	0.012175	6.37418	10.4188	6.77205
 545	1	1	-0.029522	6.19511	10.614	9.53216
 546	1	1	0.182537	5.88021	9.11137	9.78791
 547	1	2	0.017614	6.058	11.1164	10.4952
 548	1	2	0.005524	7.25887	10.7097	9.27729
 549	1	1	-0.245806	4.39703	8.86663	10.1479
 550	1	1	-0.291525	6.7832	8.56326	10.9132
 551	1	2	-0.003466	6.12004	8.53247	8.88867
 552	1	2	0.0629	6.60524	7.49161	11.0676
 553	1	2	0.058439	6.59115	9.08136	11.8614
 554	1	2	0.076366	7.84284	8.69396	10.6602
 555	1	2	0.061036	4.22257	7.80508	10.3634
 556	1	2	0.060061	3.73086	9.14733	9.32389
 557	1	2	0.042474	4.10834	9.44579	11.0342
 558	1	2	-0.019174	4.32262	11.3961	8.81641
 559	1	1	-0.06457	5.85131	12.8214	8.20555
 560	1	1	0.061186	5.93441	13.7461	9.46084
 561	1	2	0.013749	6.84239	12.7571	7.73843
 562	1	2	0.012175	5.19514	13.3111	7.4782
 563	1	1	-0.029522	4.51125	14.1233	9.98455
 564	1	1	0.182537	4.44694	14.6026	11.4589
 565	1	2	0.017614	3.84088	13.2613	9.89557
 566	1	2	0.005524	4.07167	14.8826	9.332
 567	1	1	-0.245806	4.59806	13.4349	12.4594
 568	1	1	-0.291525	3.12938	15.3569	11.7322
 569	1	2	-0.003466	5.25927	15.3065	11.6383
 570	1	2	0.0629	3.02661	16.218	11.06
 571	1	2	0.058439	3.1062	15.7345	12.7617
 572	1	2	0.076366	2.26211	14.701	11.5849
 573	1	2	0.061036	4.5578	13.8042	13.4916
 574	1	2	0.060061	5.55577	12.9178	12.3317
 575	1	2	0.042474	3.79389	12.6993	12.3305
 576	1	2	-0.019174	6.40907	13.1526	10.2433
 577	1	1	-0.06457	6.95219	14.9298	9.275
 578	1	1	0.061186	6.44123	16.3772	8.97564
 579	1	2	0.013749	7.50127	14.9746	10.2164
 580	1	2	0.012175	7.71749	14.6557	8.5397
 581	1	1	-0.029522	5.72722	16.5492	7.59208
 582	1	1	0.182537	6.3655	15.9391	6.30256
 583	1	2	0.017614	5.56241	17.6213	7.42236
 584	1	2	0.005524	4.71992	16.1275	7.67597
 585	1	1	-0.245806	7.80898	16.3884	5.98913
 586	1	1	-0.291525	5.47393	16.2719	5.08648
 587	1	2	-0.003466	6.38311	14.8503	6.39782
 588	1	2	0.0629	5.82176	15.7437	4.18986
 589	1	2	0.058439	5.48542	17.3487	4.8745
 590	1	2	0.076366	4.43458	15.9767	5.26825
 591	1	2	0.061036	8.52015	15.9794	6.71536
 592	1	2	0.060061	7.89081	17.4825	5.98102
 593	1	2	0.042474	8.12068	16.0216	5.00301
 594	1	2	-0.019174	5.6827	16.6136	9.73012
 595	1	1	-0.06457	7.5381	17.4827	9.16108
 596	1	1	0.061186	8.41349	17.4965	10.4592
 597	1	2	0.013749	8.22112	17.4263	8.31703
 598	1	2	0.012175	7.04649	18.461	9.07692
 599	1	1	-0.029522	9.3842	18.7223	10.4585
 600	1	1	0.182537	10.2985	18.898	9.21173
 601	1	2	0.017614	10.0435	18.6618	11.3317
 602	1	2	0.005524	8.79061	19.6373	10.5865
 603	1	1	-0.245806	11.164	17.6501	8.92434
 604	1	1	-0.291525	11.2097	20.1309	9.3894
 605	1	2	-0.003466	9.67342	19.0944	8.3322
 606	1	2	0.0629	11.8864	20.0015	10.2436
 607	1	2	0.058439	10.6125	21.0356	9.55923
 608	1	2	0.076366	11.82	20.2955	8.4925
 609	1	2	0.061036	11.8304	17.8307	8.07163
 610	1	2	0.060061	10.5444	16.7806	8.67562
 611	1	2	0.042474	11.7838	17.3935	9.79274
 612	1	2	-0.019174	9.02657	16.5891	10.4495
 613	1	1	-0.06457	7.53825	17.4725	11.7523
 614	1	1	0.061186	8.25679	17.6233	13.1396
 615	1	2	0.013749	6.79513	18.2645	11.639
 616	1	2	0.012175	6.97002	16.5468	11.7657
 617	1	1	-0.029522	9.45251	16.6278	13.3445
 618	1	1	0.182537	9.17784	15.2048	13.923
 619	1	2	0.017614	10.1589	17.1165	14.0256
 620	1	2	0.005524	10.0178	16.5213	12.4132
 621	1	1	-0.245806	10.5077	14.4328	14.0619
 622	1	1	-0.291525	8.19102	14.3614	13.093
 623	1	2	-0.003466	8.76649	15.2976	14.9343
 624	1	2	0.0629	8.09401	13.354	13.5169
 625	1	2	0.058439	8.53981	14.2583	12.0598
 626	1	2	0.076366	7.19205	14.8065	13.0958
 627	1	2	0.061036	11.2166	14.9853	14.6913
 628	1	2	0.060061	10.9736	14.2724	13.0812
 629	1	2	0.042474	10.3434	13.4519	14.5255
 630	1	2	-0.019174	8.71599	18.6166	13.1335
 631	1	1	-0.06457	7.24497	17.6112	14.3398
 632	1	1	0.061186	6.64934	18.98	14.8037
 633	1	2	0.013749	7.71179	17.1662	15.2212
 634	1	2	0.012175	6.41662	16.9328	14.0978
 635	1	1	-0.029522	7.70621	19.9476	15.4303
 636	1	1	0.182537	8.31229	19.4864	16.7909
 637	1	2	0.017614	7.22211	20.9125	15.6053
 638	1	2	0.005524	8.50706	20.1678	14.7145
 639	1	1	-0.245806	8.47415	20.685	17.7522
 640	1	1	-0.291525	9.68451	18.7923	16.6347
 641	1	2	-0.003466	7.62103	18.7816	17.2711
 642	1	2	0.0629	10.1096	18.5511	17.6171
 643	1	2	0.058439	10.3971	19.4409	16.1095
 644	1	2	0.076366	9.60393	17.8536	16.083
 645	1	2	0.061036	8.87192	20.3572	18.7209
 646	1	2	0.060061	7.50889	21.1716	17.9371
 647	1	2	0.042474	9.16107	21.4331	17.336
 648	1	2	-0.019174	5.94537	18.7337	15.6067
 649	1	1	-0.06457	5.82986	19.6618	13.667
 650	1	1	0.061186	4.84264	20.7937	14.0847
 651	1	2	0.013749	5.24572	18.8974	13.1381
 652	1	2	0.012175	6.54715	20.0701	12.9439
 653	1	1	-0.029522	4.40913	21.5645	12.7982
 654	1	1	0.182537	3.60346	22.8768	13.0054
 655	1	2	0.017614	3.82213	20.8828	12.1685
 656	1	2	0.005524	5.30304	21.8149	12.2117
 657	1	1	-0.245806	3.08501	23.4027	11.6503
 658	1	1	-0.291525	4.44198	23.9795	13.6934
 659	1	2	-0.003466	2.72152	22.6664	13.6208
 660	1	2	0.0629	3.85622	24.9011	13.7989
 661	1	2	0.058439	5.33798	24.2137	13.1046
 662	1	2	0.076366	4.76521	23.6807	14.6966
 663	1	2	0.061036	3.91709	23.6355	10.9737
 664	1	2	0.060061	2.49169	24.3152	11.7886
 665	1	2	0.042474	2.44432	22.6576	11.162
 666	1	2	-0.019174	5.38443	21.4951	14.7239
 667	1	1	-0.06457	3.61249	20.2298	14.8685
 668	1	1	0.061186	3.1306	21.1402	16.0387
 669	1	2	0.013749	3.84491	19.2366	15.2629
 670	1	2	0.012175	2.79209	20.0633	14.1588