pySIMM System Object

900 atoms
899 bonds
1794 angles
2682 dihedrals
0 impropers

2 atom types
2 bond types
3 angle types
3 dihedral types

-119.639584 119.639584 xlo xhi
-119.639584 119.639584 ylo yhi
-119.639584 119.639584 zlo zhi

Masses

   1	12.01	# c3
   2	1.008	# hc

Pair Coeffs

   1	0.1094	3.3996695084235347	# c3
   2	0.0157	2.649532787749369	# hc

Bond Coeffs

   1	330.6	1.0969	# c3,hc
   2	300.9	1.5375	# c3,c3

Angle Coeffs

   1	46.34	109.8	# c3,c3,hc
   2	39.4	107.58	# hc,c3,hc
   3	62.86	111.51	# c3,c3,c3

Dihedral Coeffs

   1	1	0.16	3	0	# hc,c3,c3,c3
   2	1	0.15	3	0	# hc,c3,c3,hc
   3	3	0.18	3	0	0.25	2	180	0.2	1	180	# c3,c3,c3,c3

Atoms

   1	1	1	-0.06457	80.5869	65.4183	22.8653
   2	1	1	0.061186	81.0534	65.6957	21.4177
   3	1	2	0.013749	80.2455	64.3826	22.9791
   4	1	2	0.012175	81.4078	65.5818	23.5748
   5	1	1	-0.029522	81.425	67.1907	21.2236
   6	1	1	0.182537	80.2621	68.1975	21.4451
   7	1	2	0.017614	81.8121	67.3328	20.2059
   8	1	2	0.005524	82.2486	67.4381	21.9064
   9	1	1	-0.245806	79.108	68.0047	20.434
  10	1	1	-0.291525	80.785	69.6466	21.3525
  11	1	2	-0.003466	79.8592	68.058	22.4563
  12	1	2	0.0629	81.18	69.8595	20.351
  13	1	2	0.058439	81.5858	69.8201	22.0823
  14	1	2	0.076366	79.9812	70.3636	21.5611
  15	1	2	0.061036	78.6109	67.0377	20.5731
  16	1	2	0.060061	79.4764	68.0589	19.4015
  17	1	2	0.042474	78.3455	68.7828	20.5639
  18	1	2	-0.019174	80.2175	65.4869	20.748
  19	1	1	-0.06457	82.2476	64.7848	21.0126
  20	1	1	0.061186	81.965	63.2502	20.8767
  21	1	2	0.013749	82.6913	65.1592	20.0836
  22	1	2	0.012175	83.0381	64.9234	21.7616
  23	1	1	-0.029522	83.1209	62.5201	20.1283
  24	1	1	0.182537	84.5456	62.6986	20.7248
  25	1	2	0.017614	83.1447	62.8745	19.0904
  26	1	2	0.005524	82.8926	61.447	20.081
  27	1	1	-0.245806	85.589	62.0102	19.8213
  28	1	1	-0.291525	84.6638	62.1525	22.165
  29	1	2	-0.003466	84.7957	63.7664	20.7422
  30	1	2	0.0629	84.0272	62.7139	22.8588
  31	1	2	0.058439	85.696	62.2379	22.5274
  32	1	2	0.076366	84.3744	61.0949	22.2089
  33	1	2	0.061036	85.4104	60.9289	19.7692
  34	1	2	0.060061	86.6042	62.1701	20.206
  35	1	2	0.042474	85.5492	62.4155	18.8023
  36	1	2	-0.019174	81.959	62.8695	21.9052
  37	1	1	-0.06457	80.5683	62.8133	20.3086
  38	1	1	0.061186	80.3077	62.8581	18.7633
  39	1	2	0.013749	80.4581	61.7711	20.627
  40	1	2	0.012175	79.7614	63.3405	20.8289
  41	1	1	-0.029522	78.9013	62.2725	18.4177
  42	1	1	0.182537	78.6088	60.8169	18.8821
  43	1	2	0.017614	78.7558	62.3022	17.3337
  44	1	2	0.005524	78.1336	62.9325	18.8428
  45	1	1	-0.245806	79.6581	59.8042	18.3766
  46	1	1	-0.291525	77.2045	60.3781	18.4157
  47	1	2	-0.003466	78.6006	60.7841	19.9781
  48	1	2	0.0629	76.9698	59.3707	18.7823
  49	1	2	0.058439	77.1385	60.3665	17.3203
  50	1	2	0.076366	76.4365	61.0618	18.7983
  51	1	2	0.061036	79.3795	58.7886	18.6756
  52	1	2	0.060061	80.6493	60.0102	18.797
  53	1	2	0.042474	79.7309	59.8242	17.2827
  54	1	2	-0.019174	81.0553	62.2202	18.2839
  55	1	1	-0.06457	80.4389	64.3009	18.1863
  56	1	1	0.061186	80.449	64.4819	16.639
  57	1	2	0.013749	81.3692	64.7439	18.5341
  58	1	2	0.012175	79.6287	64.9086	18.6095
  59	1	1	-0.029522	81.7145	63.8197	15.9981
  60	1	1	0.182537	81.4696	63.0164	14.6905
  61	1	2	0.017614	82.467	64.5956	15.8072
  62	1	2	0.005524	82.2015	63.1477	16.7125
  63	1	1	-0.245806	80.5584	61.7875	14.9032
  64	1	1	-0.291525	82.8131	62.5559	14.092
  65	1	2	-0.003466	80.9962	63.6697	13.9514
  66	1	2	0.0629	83.43	63.4235	13.8453
  67	1	2	0.058439	82.6579	61.9845	13.1683
  68	1	2	0.076366	83.3703	61.9277	14.7979
  69	1	2	0.061036	80.9399	61.1547	15.7129
  70	1	2	0.060061	80.5083	61.1792	13.9914
  71	1	2	0.042474	79.533	62.084	15.1476
  72	1	2	-0.019174	79.537	64.0345	16.2366
  73	1	1	-0.06457	80.3876	66.0174	16.3672
  74	1	1	0.061186	80.3983	66.4992	14.8834
  75	1	2	0.013749	79.4936	66.4313	16.8524
  76	1	2	0.012175	81.243	66.4518	16.8946
  77	1	1	-0.029522	79.1474	65.9648	14.1179
  78	1	1	0.182537	79.0511	66.3297	12.6082
  79	1	2	0.017614	78.2461	66.3374	14.6223
  80	1	2	0.005524	79.1028	64.874	14.2009
  81	1	1	-0.245806	80.2927	65.8925	11.7974
  82	1	1	-0.291525	77.7827	65.7037	11.991
  83	1	2	-0.003466	78.9469	67.4171	12.5114
  84	1	2	0.0629	76.8843	66.0357	12.5261
  85	1	2	0.058439	77.8229	64.6079	12.0355
  86	1	2	0.076366	77.6754	65.9989	10.9397
  87	1	2	0.061036	81.1967	66.4117	12.1364
  88	1	2	0.060061	80.1611	66.1298	10.7344
  89	1	2	0.042474	80.4605	64.8119	11.8837
  90	1	2	-0.019174	81.2908	66.0837	14.404
  91	1	1	-0.06457	80.4853	68.0591	14.7783
  92	1	1	0.061186	81.6005	68.783	15.6017
  93	1	2	0.013749	79.5159	68.4766	15.0812
  94	1	2	0.012175	80.607	68.3168	13.7254
  95	1	1	-0.029522	81.5145	70.3384	15.4789
  96	1	1	0.182537	82.2064	71.0475	14.2733
  97	1	2	0.017614	81.9535	70.7587	16.393
  98	1	2	0.005524	80.4583	70.6369	15.509
  99	1	1	-0.245806	81.6754	70.6247	12.8866
 100	1	1	-0.291525	82.0719	72.5778	14.425
 101	1	2	-0.003466	83.2778	70.828	14.2966
 102	1	2	0.0629	82.6098	73.099	13.6231
 103	1	2	0.058439	82.4927	72.9143	15.381
 104	1	2	0.076366	81.0192	72.8854	14.3866
 105	1	2	0.061036	81.9883	69.6053	12.6359
 106	1	2	0.060061	82.077	71.2791	12.1028
 107	1	2	0.042474	80.5802	70.6819	12.8471
 108	1	2	-0.019174	81.3477	68.5832	16.6473
 109	1	1	-0.06457	83.0243	68.2027	15.3342
 110	1	1	0.061186	84.1973	68.7403	16.2184
 111	1	2	0.013749	83.2487	68.3707	14.2764
 112	1	2	0.012175	83.0008	67.1153	15.4633
 113	1	1	-0.029522	83.8663	68.6134	17.7428
 114	1	1	0.182537	84.9704	69.0678	18.742
 115	1	2	0.017614	83.6129	67.5663	17.9562
 116	1	2	0.005524	82.9684	69.1979	17.9733
 117	1	1	-0.245806	85.3152	70.5662	18.5964
 118	1	1	-0.291525	84.5387	68.7779	20.1938
 119	1	2	-0.003466	85.8821	68.4837	18.5733
 120	1	2	0.0629	84.3352	67.7089	20.3331
 121	1	2	0.058439	83.6348	69.3408	20.4548
 122	1	2	0.076366	85.3304	69.0611	20.8986
 123	1	2	0.061036	85.7296	70.7866	17.6077
 124	1	2	0.060061	86.0649	70.8647	19.3399
 125	1	2	0.042474	84.4243	71.1902	18.7421
 126	1	2	-0.019174	84.3397	69.8011	15.9921
 127	1	1	-0.06457	85.5226	67.9814	15.888
 128	1	1	0.061186	85.9715	67.9094	14.3962
 129	1	2	0.013749	86.3522	68.4103	16.4595
 130	1	2	0.012175	85.3848	66.9657	16.2635
 131	1	1	-0.029522	86.1453	69.3067	13.7213
 132	1	1	0.182537	86.9423	70.4133	14.474
 133	1	2	0.017614	85.1409	69.701	13.5299
 134	1	2	0.005524	86.583	69.1692	12.724
 135	1	1	-0.245806	88.4189	70.055	14.7469
 136	1	1	-0.291525	86.8735	71.7336	13.6767
 137	1	2	-0.003466	86.4624	70.6046	15.4384
 138	1	2	0.0629	87.3556	71.6266	12.6966
 139	1	2	0.058439	87.3769	72.5442	14.2184
 140	1	2	0.076366	85.8317	72.0384	13.5149
 141	1	2	0.061036	88.5029	69.2972	15.5326
 142	1	2	0.060061	88.9724	70.935	15.098
 143	1	2	0.042474	88.9119	69.6843	13.8393
 144	1	2	-0.019174	85.1609	67.4455	13.831
 145	1	1	-0.06457	87.2187	66.9861	14.1784
 146	1	1	0.061186	87.0225	65.4383	14.3148
 147	1	2	0.013749	88.0292	67.2893	14.8465
 148	1	2	0.012175	87.606	67.1696	13.1684
 149	1	1	-0.029522	85.8022	64.8975	13.5062
 150	1	1	0.182537	85.7981	65.2173	11.9847
 151	1	2	0.017614	84.8795	65.2825	13.957
 152	1	2	0.005524	85.7384	63.8115	13.6163
 153	1	1	-0.245806	86.986	64.5632	11.2449
 154	1	1	-0.291525	84.4711	64.7565	11.3455
 155	1	2	-0.003466	85.863	66.3023	11.8408
 156	1	2	0.0629	83.6143	65.2367	11.8348
 157	1	2	0.058439	84.3495	63.6692	11.4303
 158	1	2	0.076366	84.44	65.0208	10.2811
 159	1	2	0.061036	87.9447	64.9657	11.5922
 160	1	2	0.060061	86.9227	64.7537	10.1663
 161	1	2	0.042474	86.992	63.4769	11.3985
 162	1	2	-0.019174	87.9216	64.9998	13.871
 163	1	1	-0.06457	86.9833	64.9581	15.8033
 164	1	1	0.061186	87.8156	63.6867	16.1632
 165	1	2	0.013749	87.3187	65.7696	16.4585
 166	1	2	0.012175	85.9409	64.7765	16.0962
 167	1	1	-0.029522	89.3537	63.8529	15.9475
 168	1	1	0.182537	90.008	65.1164	16.5728
 169	1	2	0.017614	89.5719	63.8359	14.8724
 170	1	2	0.005524	89.8673	62.9821	16.3715
 171	1	1	-0.245806	89.82	65.1848	18.1052
 172	1	1	-0.291525	91.5123	65.1605	16.232
 173	1	2	-0.003466	89.5574	66.0116	16.1305
 174	1	2	0.0629	91.6657	65.1584	15.1455
 175	1	2	0.058439	92.0377	64.2943	16.654
 176	1	2	0.076366	91.9752	66.0703	16.6343
 177	1	2	0.061036	90.2339	64.292	18.5909
 178	1	2	0.060061	88.7608	65.2624	18.3768
 179	1	2	0.042474	90.3295	66.0642	18.5186
 180	1	2	-0.019174	87.6547	63.5403	17.2364
 181	1	1	-0.06457	87.2568	62.4243	15.4398
 182	1	1	0.061186	87.9096	61.0496	15.7827
 183	1	2	0.013749	86.1783	62.3555	15.636
 184	1	2	0.012175	87.3628	62.5836	14.3635
 185	1	1	-0.029522	87.7119	60.6723	17.2807
 186	1	1	0.182537	88.5174	59.4388	17.7788
 187	1	2	0.017614	86.6431	60.5029	17.455
 188	1	2	0.005524	87.9947	61.5168	17.918
 189	1	1	-0.245806	88.0964	59.0735	19.2177
 190	1	1	-0.291525	90.045	59.6644	17.725
 191	1	2	-0.003466	88.289	58.5756	17.1478
 192	1	2	0.0629	90.3308	60.559	18.2925
 193	1	2	0.058439	90.397	59.7818	16.6936
 194	1	2	0.076366	90.5766	58.8057	18.1535
 195	1	2	0.061036	88.634	58.183	19.5666
 196	1	2	0.060061	87.0225	58.8554	19.2658
 197	1	2	0.042474	88.3101	59.8965	19.9116
 198	1	2	-0.019174	88.9854	61.1331	15.6084
 199	1	1	-0.06457	87.3581	59.9502	14.8167
 200	1	1	0.061186	88.337	59.5436	13.6717
 201	1	2	0.013749	87.1037	59.0604	15.3981
 202	1	2	0.012175	86.405	60.2762	14.379
 203	1	1	-0.029522	88.7098	60.77	12.7761
 204	1	1	0.182537	89.7001	60.5131	11.6058
 205	1	2	0.017614	89.1557	61.5526	13.3998
 206	1	2	0.005524	87.785	61.1938	12.3631
 207	1	1	-0.245806	91.0416	59.9132	12.0838
 208	1	1	-0.291525	89.9639	61.8258	10.8371
 209	1	2	-0.003466	89.2442	59.8155	10.893
 210	1	2	0.0629	90.4245	62.5795	11.4884
 211	1	2	0.058439	89.0281	62.2404	10.4423
 212	1	2	0.076366	90.6363	61.6512	9.988
 213	1	2	0.061036	91.5146	60.5589	12.8345
 214	1	2	0.060061	91.7374	59.8026	11.243
 215	1	2	0.042474	90.9004	58.9191	12.5243
 216	1	2	-0.019174	89.2613	59.1975	14.1478
 217	1	1	-0.06457	87.7675	58.3784	12.8015
 218	1	1	0.061186	87.2788	57.0786	13.5207
 219	1	2	0.013749	86.9439	58.7864	12.2066
 220	1	2	0.012175	88.5396	58.0748	12.0855
 221	1	1	-0.029522	88.4137	56.4556	14.3974
 222	1	1	0.182537	87.9884	55.2875	15.3358
 223	1	2	0.017614	88.8705	57.2242	15.0301
 224	1	2	0.005524	89.2093	56.1072	13.7255
 225	1	1	-0.245806	87.1383	55.769	16.532
 226	1	1	-0.291525	89.2293	54.5387	15.8646
 227	1	2	-0.003466	87.395	54.5597	14.7734
 228	1	2	0.0629	88.933	53.7059	16.5148
 229	1	2	0.058439	89.8778	55.2098	16.4421
 230	1	2	0.076366	89.8167	54.1244	15.0358
 231	1	2	0.061036	86.7305	54.9122	17.0828
 232	1	2	0.060061	86.2981	56.3881	16.2053
 233	1	2	0.042474	87.7418	56.3589	17.2311
 234	1	2	-0.019174	86.4407	57.3459	14.1716
 235	1	1	-0.06457	86.764	56.0562	12.4494
 236	1	1	0.061186	85.219	55.9581	12.2463
 237	1	2	0.013749	87.2227	56.2845	11.4786
 238	1	2	0.012175	87.1386	55.054	12.6776
 239	1	1	-0.029522	84.608	57.3125	11.7676
 240	1	1	0.182537	83.2354	57.278	11.0268
 241	1	2	0.017614	85.3137	57.7626	11.0591
 242	1	2	0.005524	84.5474	58.0101	12.6127
 243	1	1	-0.245806	82.0231	56.9488	11.9231
 244	1	1	-0.291525	83.2422	56.3655	9.78065
 245	1	2	-0.003466	83.0717	58.3007	10.6623
 246	1	2	0.0629	82.3316	56.5195	9.18805
 247	1	2	0.058439	83.2819	55.3052	10.0585
 248	1	2	0.076366	84.1028	56.588	9.13769
 249	1	2	0.061036	81.0879	57.1439	11.3837
 250	1	2	0.060061	82.0226	57.5722	12.8244
 251	1	2	0.042474	82.0142	55.8952	12.2222
 252	1	2	-0.019174	85.0978	55.2506	11.4187
 253	1	1	-0.06457	84.507	55.3583	13.5004
 254	1	1	0.061186	83.9621	53.9121	13.2947
 255	1	2	0.013749	85.1934	55.3621	14.3508
 256	1	2	0.012175	83.686	56.0134	13.8072
 257	1	1	-0.029522	85.1195	52.8745	13.1794
 258	1	1	0.182537	84.706	51.4256	12.7932
 259	1	2	0.017614	85.6762	52.8559	14.1241
 260	1	2	0.005524	85.8326	53.2173	12.4217
 261	1	1	-0.245806	85.9391	50.4981	12.819
 262	1	1	-0.291525	84.0259	51.35	11.4083
 263	1	2	-0.003466	83.9994	51.0359	13.5326
 264	1	2	0.0629	83.0707	51.8881	11.4033
 265	1	2	0.058439	83.814	50.3081	11.1376
 266	1	2	0.076366	84.6693	51.7799	10.6303
 267	1	2	0.061036	85.6534	49.4646	12.5862
 268	1	2	0.060061	86.407	50.5006	13.8114
 269	1	2	0.042474	86.6894	50.819	12.0853
 270	1	2	-0.019174	83.4371	53.9221	12.3326
 271	1	1	-0.06457	82.8767	53.5416	14.3533
 272	1	1	0.061186	83.3075	53.5693	15.861
 273	1	2	0.013749	82.4546	52.5683	14.0953
 274	1	2	0.012175	82.0392	54.2309	14.201
 275	1	1	-0.029522	83.7967	52.1903	16.4078
 276	1	1	0.182537	82.7365	51.1678	16.9231
 277	1	2	0.017614	84.464	52.4067	17.2528
 278	1	2	0.005524	84.4349	51.7009	15.6668
 279	1	1	-0.245806	83.4528	49.9203	17.4821
 280	1	1	-0.291525	81.7068	50.7221	15.8637
 281	1	2	-0.003466	82.1836	51.619	17.7562
 282	1	2	0.0629	82.2029	50.2985	14.9822
 283	1	2	0.058439	81.0746	51.5579	15.5449
 284	1	2	0.076366	81.0423	49.9531	16.2757
 285	1	2	0.061036	82.7282	49.195	17.8695
 286	1	2	0.060061	84.1281	50.1919	18.3031
 287	1	2	0.042474	84.044	49.4236	16.7021
 288	1	2	-0.019174	84.1859	54.2136	15.9399
 289	1	1	-0.06457	82.2117	54.1903	16.781
 290	1	1	0.061186	81.9592	55.719	16.6209
 291	1	2	0.013749	81.2745	53.6552	16.5925
 292	1	2	0.012175	82.4821	53.9998	17.8271
 293	1	1	-0.029522	83.1616	56.5654	17.1541
 294	1	1	0.182537	83.0449	58.1116	17.038
 295	1	2	0.017614	84.0578	56.2749	16.5992
 296	1	2	0.005524	83.3759	56.3002	18.1937
 297	1	1	-0.245806	82.8871	58.5854	15.5779
 298	1	1	-0.291525	84.2768	58.7918	17.6693
 299	1	2	-0.003466	82.1736	58.4551	17.6041
 300	1	2	0.0629	84.3803	58.5086	18.7243
 301	1	2	0.058439	84.1822	59.8841	17.6234
 302	1	2	0.076366	85.1958	58.5038	17.1444
 303	1	2	0.061036	81.9484	58.2225	15.1441
 304	1	2	0.060061	83.7198	58.2315	14.9581
 305	1	2	0.042474	82.8704	59.6797	15.5278
 306	1	2	-0.019174	81.9192	55.923	15.5465
 307	1	1	-0.06457	80.5424	56.1439	17.1379
 308	1	1	0.061186	80.0591	55.7972	18.5894
 309	1	2	0.013749	80.4407	57.2255	17.0061
 310	1	2	0.012175	79.8119	55.7432	16.4308
 311	1	1	-0.029522	81.0698	56.2459	19.6865
 312	1	1	0.182537	80.5537	56.2719	21.1546
 313	1	2	0.017614	81.4332	57.2507	19.443
 314	1	2	0.005524	81.9358	55.5752	19.6563
 315	1	1	-0.245806	79.3204	57.1813	21.3581
 316	1	1	-0.291525	81.6863	56.7287	22.0988
 317	1	2	-0.003466	80.28	55.2541	21.4563
 318	1	2	0.0629	82.0022	57.7544	21.8682
 319	1	2	0.058439	82.5607	56.0722	22.0061
 320	1	2	0.076366	81.3558	56.7007	23.1449
 321	1	2	0.061036	78.4533	56.8161	20.7955
 322	1	2	0.060061	79.5332	58.2102	21.0431
 323	1	2	0.042474	79.0312	57.2065	22.4164
 324	1	2	-0.019174	79.1796	56.4315	18.7222
 325	1	1	-0.06457	79.5819	54.3224	18.8176
 326	1	1	0.061186	78.5043	53.7264	17.8521
 327	1	2	0.013749	80.4586	53.666	18.8243
 328	1	2	0.012175	79.1669	54.2488	19.8296
 329	1	1	-0.029522	77.1468	54.4993	17.961
 330	1	1	0.182537	76.3225	54.6494	16.6499
 331	1	2	0.017614	77.3083	55.5086	18.35
 332	1	2	0.005524	76.5265	54.0093	18.7225
 333	1	1	-0.245806	77.0331	55.5206	15.5903
 334	1	1	-0.291525	74.9362	55.2505	16.9638
 335	1	2	-0.003466	76.1493	53.6663	16.2061
 336	1	2	0.0629	74.3918	54.6212	17.6791
 337	1	2	0.058439	74.3282	55.3239	16.0533
 338	1	2	0.076366	75.0312	56.2558	17.3934
 339	1	2	0.061036	77.9405	55.0339	15.2161
 340	1	2	0.060061	77.3071	56.4997	16.0035
 341	1	2	0.042474	76.3785	55.6883	14.726
 342	1	2	-0.019174	78.8927	53.7895	16.8328
 343	1	1	-0.06457	78.3464	52.2133	18.2125
 344	1	1	0.061186	77.3355	51.3579	17.3823
 345	1	2	0.013749	79.3296	51.7277	18.1525
 346	1	2	0.012175	78.0642	52.182	19.2696
 347	1	1	-0.029522	77.7906	51.2687	15.8924
 348	1	1	0.182537	76.8841	50.4488	14.9313
 349	1	2	0.017614	78.7938	50.8291	15.8673
 350	1	2	0.005524	77.8942	52.2785	15.48
 351	1	1	-0.245806	77.48	50.4556	13.5076
 352	1	1	-0.291525	75.4283	50.9637	14.8876
 353	1	2	-0.003466	76.8673	49.4032	15.2615
 354	1	2	0.0629	74.9446	50.8852	15.8683
 355	1	2	0.058439	74.8325	50.3723	14.1811
 356	1	2	0.076366	75.3917	52.0119	14.566
 357	1	2	0.061036	78.5018	50.0555	13.5108
 358	1	2	0.060061	77.5128	51.4737	13.0994
 359	1	2	0.042474	76.8787	49.8355	12.8311
 360	1	2	-0.019174	76.3631	51.856	17.4124
 361	1	1	-0.06457	77.1351	49.9323	17.9943
 362	1	1	0.061186	76.7494	49.853	19.5079
 363	1	2	0.013749	76.348	49.4117	17.436
 364	1	2	0.012175	78.0567	49.3653	17.8198
 365	1	1	-0.029522	75.4898	50.7249	19.8122
 366	1	1	0.182537	74.988	50.7337	21.2837
 367	1	2	0.017614	74.6689	50.3902	19.1644
 368	1	2	0.005524	75.6915	51.7655	19.5351
 369	1	1	-0.245806	73.7409	51.6334	21.4132
 370	1	1	-0.291525	76.0734	51.2048	22.2779
 371	1	2	-0.003466	74.6776	49.7201	21.5654
 372	1	2	0.0629	76.4509	52.1984	22.0046
 373	1	2	0.058439	76.9207	50.5097	22.3042
 374	1	2	0.076366	75.6666	51.2631	23.2951
 375	1	2	0.061036	73.3508	51.6127	22.4385
 376	1	2	0.060061	72.9421	51.2896	20.744
 377	1	2	0.042474	73.9771	52.6745	21.158
 378	1	2	-0.019174	77.5811	50.2531	20.0952
 379	1	1	-0.06457	76.5289	48.3814	19.9767
 380	1	1	0.061186	77.629	47.3221	19.6381
 381	1	2	0.013749	76.4015	48.3773	21.0656
 382	1	2	0.012175	75.5723	48.0612	19.5542
 383	1	1	-0.029522	79.0457	47.8186	20.0796
 384	1	1	0.182537	80.26	46.962	19.6214
 385	1	2	0.017614	79.059	47.8969	21.1748
 386	1	2	0.005524	79.2238	48.833	19.7087
 387	1	1	-0.245806	81.5605	47.5277	20.2308
 388	1	1	-0.291525	80.3864	46.8993	18.0826
 389	1	2	-0.003466	80.1561	45.9384	19.9977
 390	1	2	0.0629	80.4319	47.9065	17.6505
 391	1	2	0.058439	79.5375	46.3699	17.6344
 392	1	2	0.076366	81.2975	46.3625	17.7905
 393	1	2	0.061036	81.7189	48.5692	19.9259
 394	1	2	0.060061	82.4301	46.9396	19.9125
 395	1	2	0.042474	81.5195	47.4984	21.3268
 396	1	2	-0.019174	77.6234	47.1703	18.5531
 397	1	1	-0.06457	77.305	45.9598	20.333
 398	1	1	0.061186	75.969	45.2573	19.9299
 399	1	2	0.013749	78.1134	45.2424	20.1545
 400	1	2	0.012175	77.324	46.1451	21.4115
 401	1	1	-0.029522	75.4635	44.3206	21.0685
 402	1	1	0.182537	75.0304	44.9994	22.4014
 403	1	2	0.017614	76.2364	43.5707	21.2818
 404	1	2	0.005524	74.596	43.768	20.7068
 405	1	1	-0.245806	74.5237	43.9306	23.3931
 406	1	1	-0.291525	73.9394	46.0762	22.204
 407	1	2	-0.003466	75.8974	45.478	22.87
 408	1	2	0.0629	73.0662	45.6608	21.6853
 409	1	2	0.058439	74.3151	46.9263	21.6234
 410	1	2	0.076366	73.6045	46.4684	23.1724
 411	1	2	0.061036	75.2957	43.1731	23.5776
 412	1	2	0.060061	73.6324	43.4226	23.0028
 413	1	2	0.042474	74.2627	44.3855	24.357
 414	1	2	-0.019174	75.1971	46.0055	19.7707
 415	1	1	-0.06457	76.1477	44.4688	18.5935
 416	1	1	0.061186	74.8299	43.9861	17.8917
 417	1	2	0.013749	76.7249	45.0722	17.8816
 418	1	2	0.012175	76.7906	43.6061	18.8113
 419	1	1	-0.029522	74.3897	44.9526	16.745
 420	1	1	0.182537	74.1602	46.4391	17.1354
 421	1	2	0.017614	73.461	44.5865	16.2928
 422	1	2	0.005524	75.1496	44.9127	15.9534
 423	1	1	-0.245806	72.9489	46.6179	18.0791
 424	1	1	-0.291525	73.9597	47.3068	15.8748
 425	1	2	-0.003466	75.0574	46.8199	17.6336
 426	1	2	0.0629	73.8272	48.3615	16.1469
 427	1	2	0.058439	73.0752	46.9854	15.3103
 428	1	2	0.076366	74.832	47.2403	15.2124
 429	1	2	0.061036	73.0584	46.0328	18.9985
 430	1	2	0.060061	72.0212	46.2997	17.5871
 431	1	2	0.042474	72.8375	47.6706	18.3672
 432	1	2	-0.019174	74.0257	43.9507	18.631
 433	1	1	-0.06457	75.0344	42.534	17.3461
 434	1	1	0.061186	73.7949	41.8043	16.7317
 435	1	2	0.013749	75.8184	42.5867	16.5792
 436	1	2	0.012175	75.4537	41.8976	18.1321
 437	1	1	-0.029522	72.5681	41.6759	17.698
 438	1	1	0.182537	72.6791	40.7227	18.9317
 439	1	2	0.017614	71.7211	41.3356	17.0948
 440	1	2	0.005524	72.2618	42.6718	18.04
 441	1	1	-0.245806	71.2748	40.2289	19.3504
 442	1	1	-0.291525	73.3431	41.3722	20.1626
 443	1	2	-0.003466	73.2673	39.838	18.6689
 444	1	2	0.0629	72.822	42.2955	20.445
 445	1	2	0.058439	74.396	41.6007	19.9817
 446	1	2	0.076366	73.3101	40.6919	21.0228
 447	1	2	0.061036	70.6412	41.069	19.6624
 448	1	2	0.060061	71.3427	39.5232	20.1877
 449	1	2	0.042474	70.7702	39.7125	18.5248
 450	1	2	-0.019174	73.4681	42.4331	15.9015
 451	1	1	-0.06457	74.2631	40.459	16.0829
 452	1	1	0.061186	73.3306	39.6909	15.0831
 453	1	2	0.013749	75.182	40.6737	15.5212
 454	1	2	0.012175	74.5877	39.7705	16.8709
 455	1	1	-0.029522	72.9636	40.5066	13.8005
 456	1	1	0.182537	71.7836	41.5248	13.8849
 457	1	2	0.017614	72.7574	39.8027	12.985
 458	1	2	0.005524	73.8723	41.0328	13.4793
 459	1	1	-0.245806	70.5017	40.9938	13.2033
 460	1	1	-0.291525	72.1692	42.8749	13.241
 461	1	2	-0.003466	71.5388	41.7235	14.9308
 462	1	2	0.0629	72.397	42.751	12.1748
 463	1	2	0.058439	73.0507	43.3079	13.7296
 464	1	2	0.076366	71.349	43.5976	13.3333
 465	1	2	0.061036	70.675	40.7959	12.138
 466	1	2	0.060061	69.691	41.7287	13.2825
 467	1	2	0.042474	70.1498	40.0675	13.6683
 468	1	2	-0.019174	74.0009	38.9149	14.6986
 469	1	1	-0.06457	72.1458	38.9252	15.7587
 470	1	1	0.061186	71.9991	37.4058	15.4221
 471	1	2	0.013749	72.2508	38.9969	16.841
 472	1	2	0.012175	71.1967	39.4285	15.5503
 473	1	1	-0.029522	73.2172	36.5476	15.8956
 474	1	1	0.182537	73.5995	36.6551	17.3998
 475	1	2	0.017614	74.0971	36.7957	15.2905
 476	1	2	0.005524	73.0177	35.4936	15.6886
 477	1	1	-0.245806	74.8017	35.7386	17.7091
 478	1	1	-0.291525	72.4282	36.3124	18.3482
 479	1	2	-0.003466	73.9197	37.6801	17.6139
 480	1	2	0.0629	72.7558	36.3516	19.3946
 481	1	2	0.058439	72.0427	35.3043	18.1511
 482	1	2	0.076366	71.6022	37.0249	18.2405
 483	1	2	0.061036	75.1132	35.8468	18.7556
 484	1	2	0.060061	75.6601	35.995	17.0757
 485	1	2	0.042474	74.5491	34.6848	17.5346
 486	1	2	-0.019174	71.1263	37.0766	15.994
 487	1	1	-0.06457	71.6668	37.177	13.9155
 488	1	1	0.061186	71.2888	35.726	13.4737
 489	1	2	0.013749	70.8432	37.8426	13.6318
 490	1	2	0.012175	72.5372	37.4933	13.3277
 491	1	1	-0.029522	71.1378	35.6839	11.9175
 492	1	1	0.182537	71.932	34.5502	11.2123
 493	1	2	0.017614	71.4532	36.639	11.4773
 494	1	2	0.005524	70.0754	35.5955	11.6576
 495	1	1	-0.245806	73.4573	34.7945	11.2607
 496	1	1	-0.291525	71.4769	34.4015	9.74523
 497	1	2	-0.003466	71.7224	33.5989	11.7131
 498	1	2	0.0629	70.4056	34.1708	9.69026
 499	1	2	0.058439	72.0202	33.5867	9.25028
 500	1	2	0.076366	71.6588	35.3252	9.18163
 501	1	2	0.061036	73.9938	33.9859	10.7488
 502	1	2	0.060061	73.8279	34.8351	12.2915
 503	1	2	0.042474	73.7188	35.7393	10.7676
 504	1	2	-0.019174	72.1189	35.0734	13.7543
 505	1	1	-0.06457	69.9967	35.1988	14.1797
 506	1	1	0.061186	69.6588	33.6919	13.9388
 507	1	2	0.013749	70.0541	35.3642	15.2594
 508	1	2	0.012175	69.1612	35.8203	13.8428
 509	1	1	-0.029522	70.7474	32.7182	14.4993
 510	1	1	0.182537	71.2014	32.8935	15.9809
 511	1	2	0.017614	71.6398	32.8174	13.8705
 512	1	2	0.005524	70.4129	31.6837	14.3469
 513	1	1	-0.245806	72.4153	31.9855	16.2733
 514	1	1	-0.291525	70.0945	32.6162	17.0204
 515	1	2	-0.003466	71.5389	33.922	16.1293
 516	1	2	0.0629	69.3069	33.3757	16.9737
 517	1	2	0.058439	70.5048	32.6438	18.0378
 518	1	2	0.076366	69.6438	31.6284	16.863
 519	1	2	0.061036	72.1498	30.9264	16.1644
 520	1	2	0.060061	72.7816	32.1436	17.2957
 521	1	2	0.042474	73.2424	32.2053	15.5865
 522	1	2	-0.019174	69.6646	33.5328	12.857
 523	1	1	-0.06457	68.2232	33.3201	14.4375
 524	1	1	0.061186	67.096	33.2476	13.3588
 525	1	2	0.013749	68.253	32.335	14.9187
 526	1	2	0.012175	67.9203	34.0093	15.2343
 527	1	1	-0.029522	66.843	34.6054	12.6334
 528	1	1	0.182537	66.2821	35.745	13.531
 529	1	2	0.017614	66.1347	34.468	11.8098
 530	1	2	0.005524	67.7749	34.9353	12.1596
 531	1	1	-0.245806	64.8438	35.4552	14.0186
 532	1	1	-0.291525	66.3079	37.0869	12.7693
 533	1	2	-0.003466	66.9185	35.8643	14.4149
 534	1	2	0.0629	65.6727	37.0452	11.8751
 535	1	2	0.058439	67.3288	37.3367	12.4534
 536	1	2	0.076366	65.9466	37.9035	13.4075
 537	1	2	0.061036	64.4546	36.302	14.5978
 538	1	2	0.060061	64.8097	34.5742	14.6697
 539	1	2	0.042474	64.1669	35.284	13.172
 540	1	2	-0.019174	66.1905	33.0018	13.9167
 541	1	1	-0.06457	67.3507	32.0764	12.3533
 542	1	1	0.061186	66.123	31.6243	11.495
 543	1	2	0.013749	68.1624	32.3906	11.691
 544	1	2	0.012175	67.7268	31.2006	12.8986
 545	1	1	-0.029522	66.5383	30.6949	10.3123
 546	1	1	0.182537	67.5969	31.2368	9.30975
 547	1	2	0.017614	65.6408	30.4514	9.73446
 548	1	2	0.005524	66.9062	29.7455	10.7227
 549	1	1	-0.245806	67.2166	32.6097	8.71155
 550	1	1	-0.291525	67.8155	30.2164	8.17164
 551	1	2	-0.003466	68.5588	31.3429	9.82506
 552	1	2	0.0629	68.1191	29.2418	8.57462
 553	1	2	0.058439	68.6042	30.5565	7.48827
 554	1	2	0.076366	66.8968	30.0726	7.58777
 555	1	2	0.061036	67.1595	33.3823	9.48715
 556	1	2	0.060061	66.2475	32.5612	8.19881
 557	1	2	0.042474	67.9702	32.935	7.98283
 558	1	2	-0.019174	65.6773	32.5198	11.0605
 559	1	1	-0.06457	65.0397	30.9067	12.3677
 560	1	1	0.061186	63.6113	30.7807	11.7451
 561	1	2	0.013749	65.4136	29.9059	12.6213
 562	1	2	0.012175	64.9233	31.4198	13.3271
 563	1	1	-0.029522	63.0111	32.1901	11.4446
 564	1	1	0.182537	63.0274	32.588	9.94173
 565	1	2	0.017614	63.5645	32.9432	12.0204
 566	1	2	0.005524	61.9889	32.2718	11.8182
 567	1	1	-0.245806	62.7834	34.1025	9.77919
 568	1	1	-0.291525	61.9909	31.7965	9.11342
 569	1	2	-0.003466	64.0176	32.3723	9.5252
 570	1	2	0.0629	60.9745	31.9642	9.48857
 571	1	2	0.058439	62.1947	30.7201	9.14118
 572	1	2	0.076366	62.0195	32.1083	8.062
 573	1	2	0.061036	63.5562	34.6787	10.3039
 574	1	2	0.060061	61.807	34.3907	10.1868
 575	1	2	0.042474	62.8125	34.3909	8.72104
 576	1	2	-0.019174	63.6988	30.2168	10.8116
 577	1	1	-0.06457	62.7217	29.9186	12.6947
 578	1	1	0.061186	61.3372	29.4467	12.1265
 579	1	2	0.013749	63.304	29.0242	12.9427
 580	1	2	0.012175	62.6047	30.4319	13.6536
 581	1	1	-0.029522	60.1199	30.3856	12.4346
 582	1	1	0.182537	59.9883	31.0175	13.8535
 583	1	2	0.017614	59.1914	29.8446	12.21
 584	1	2	0.005524	60.1255	31.2002	11.7038
 585	1	1	-0.245806	59.9585	29.9863	15.0029
 586	1	1	-0.291525	58.7177	31.8909	13.9263
 587	1	2	-0.003466	60.8364	31.6913	14.0222
 588	1	2	0.0629	58.6345	32.3812	14.9047
 589	1	2	0.058439	57.8136	31.2883	13.7696
 590	1	2	0.076366	58.7432	32.6789	13.1646
 591	1	2	0.061036	59.7301	30.4775	15.9573
 592	1	2	0.060061	60.9307	29.497	15.1243
 593	1	2	0.042474	59.1953	29.2174	14.8267
 594	1	2	-0.019174	61.4153	29.462	11.0369
 595	1	1	-0.06457	61.0156	27.9695	12.5351
 596	1	1	0.061186	61.843	26.8349	11.8422
 597	1	2	0.013749	61.1421	27.8949	13.6173
 598	1	2	0.012175	59.9551	27.7591	12.3445
 599	1	1	-0.029522	61.5495	25.4495	12.5036
 600	1	1	0.182537	61.8356	25.3122	14.027
 601	1	2	0.017614	62.1477	24.6811	12.0033
 602	1	2	0.005524	60.497	25.1919	12.3253
 603	1	1	-0.245806	63.2756	25.7239	14.4084
 604	1	1	-0.291525	61.5726	23.8619	14.4852
 605	1	2	-0.003466	61.1387	25.9481	14.585
 606	1	2	0.0629	60.5415	23.5626	14.2581
 607	1	2	0.058439	61.7203	23.7615	15.5678
 608	1	2	0.076366	62.251	23.1606	13.9824
 609	1	2	0.061036	63.4607	25.5408	15.4743
 610	1	2	0.060061	63.447	26.7913	14.2262
 611	1	2	0.042474	64.0132	25.1518	13.8317
 612	1	2	-0.019174	62.9084	27.042	11.9822
 613	1	1	-0.06457	61.5861	26.8182	10.2989
 614	1	1	0.061186	62.2785	25.6788	9.47992
 615	1	2	0.013749	60.5051	26.7966	10.1095
 616	1	2	0.012175	61.9274	27.7747	9.8943
 617	1	1	-0.029522	62.8264	26.222	8.11938
 618	1	1	0.182537	64.3188	26.6547	8.14429
 619	1	2	0.017614	62.1999	27.05	7.76183
 620	1	2	0.005524	62.7368	25.454	7.3453
 621	1	1	-0.245806	64.6175	27.7872	9.14779
 622	1	1	-0.291525	64.7764	27.082	6.73362
 623	1	2	-0.003466	64.9199	25.7831	8.43548
 624	1	2	0.0629	65.8414	27.3443	6.73264
 625	1	2	0.058439	64.2091	27.9537	6.38372
 626	1	2	0.076366	64.632	26.2674	6.01312
 627	1	2	0.061036	64.4094	27.4758	10.1771
 628	1	2	0.060061	64.0182	28.6777	8.92177
 629	1	2	0.042474	65.6766	28.0651	9.10155
 630	1	2	-0.019174	63.1376	25.3166	10.0543
 631	1	1	-0.06457	61.2825	24.4962	9.24966
 632	1	1	0.061186	61.9078	23.1592	8.7345
 633	1	2	0.013749	60.514	24.8503	8.55845
 634	1	2	0.012175	60.7373	24.2746	10.1732
 635	1	1	-0.029522	62.6787	22.4506	9.89274
 636	1	1	0.182537	63.6128	21.2765	9.4827
 637	1	2	0.017614	61.9458	22.0851	10.6241
 638	1	2	0.005524	63.2948	23.1803	10.4287
 639	1	1	-0.245806	64.2308	20.6338	10.7423
 640	1	1	-0.291525	64.7413	21.7161	8.52256
 641	1	2	-0.003466	63.0282	20.4976	8.98267
 642	1	2	0.0629	65.4341	20.8861	8.33486
 643	1	2	0.058439	65.3167	22.5491	8.94614
 644	1	2	0.076366	64.3429	22.0292	7.5507
 645	1	2	0.061036	64.8629	19.7782	10.4729
 646	1	2	0.060061	63.4472	20.2715	11.4192
 647	1	2	0.042474	64.8496	21.3558	11.2899
 648	1	2	-0.019174	62.6286	23.3917	7.94624
 649	1	1	-0.06457	60.8109	22.2281	8.12238
 650	1	1	0.061186	60.6307	22.3219	6.56746
 651	1	2	0.013749	59.8674	22.3912	8.64919
 652	1	2	0.012175	61.0572	21.1907	8.35693
 653	1	1	-0.029522	59.7526	21.1657	5.98846
 654	1	1	0.182537	60.4998	19.908	5.45698
 655	1	2	0.017614	59.1544	21.5494	5.15322
 656	1	2	0.005524	59.0294	20.8371	6.74477
 657	1	1	-0.245806	61.3808	19.212	6.51469
 658	1	1	-0.291525	61.3237	20.2037	4.18447
 659	1	2	-0.003466	59.7227	19.1874	5.16783
 660	1	2	0.0629	60.6998	20.6786	3.4169
 661	1	2	0.058439	61.7212	19.2721	3.76241
 662	1	2	0.076366	62.1731	20.8643	4.39549
 663	1	2	0.061036	61.7685	18.2628	6.12353
 664	1	2	0.060061	60.8019	18.9876	7.41931
 665	1	2	0.042474	62.2397	19.8349	6.79122
 666	1	2	-0.019174	61.6381	22.1827	6.16159
 667	1	1	-0.06457	60.1943	23.7235	6.02438
 668	1	1	0.061186	58.6972	24.1957	6.09409
 669	1	2	0.013749	60.4738	23.7385	4.96237
 670	1	2	0.012175	60.8386	24.485	6.46938
 671	1	1	-0.029522	58.6331	25.7529	5.95349
 672	1	1	0.182537	59.2772	26.3616	4.67701
 673	1	2	0.017614	59.1164	26.1988	6.83327
 674	1	2	0.005524	57.5964	26.1004	5.98012
 675	1	1	-0.245806	59.1523	27.9011	4.70675
 676	1	1	-0.291525	58.6493	25.812	3.37601
 677	1	2	-0.003466	60.3478	26.1242	4.66711
 678	1	2	0.0629	59.0717	26.3169	2.49821
 679	1	2	0.058439	57.5627	25.9662	3.36558
 680	1	2	0.076366	58.8462	24.7396	3.2605
 681	1	2	0.061036	59.6169	28.3124	5.61186
 682	1	2	0.060061	58.0998	28.2129	4.69146
 683	1	2	0.042474	59.6526	28.3496	3.83948
 684	1	2	-0.019174	58.1911	23.7583	5.22969
 685	1	1	-0.06457	57.911	23.7256	7.35811
 686	1	1	0.061186	56.3683	23.9978	7.36876
 687	1	2	0.013749	58.3811	24.1953	8.22871
 688	1	2	0.012175	58.0361	22.6516	7.50545
 689	1	1	-0.029522	55.5379	22.7446	6.94357
 690	1	1	0.182537	55.7915	22.1971	5.51306
 691	1	2	0.017614	54.4681	22.9663	7.0286
 692	1	2	0.005524	55.7333	21.9404	7.6649
 693	1	1	-0.245806	55.3963	23.2109	4.41639
 694	1	1	-0.291525	55.0193	20.8774	5.30217
 695	1	2	-0.003466	56.8533	21.9591	5.40498
 696	1	2	0.0629	55.3119	20.1308	6.0517
 697	1	2	0.058439	55.2299	20.4558	4.31108
 698	1	2	0.076366	53.9366	21.0368	5.38278
 699	1	2	0.061036	55.962	24.1453	4.50375
 700	1	2	0.060061	54.3286	23.4536	4.47787
 701	1	2	0.042474	55.5949	22.7984	3.41935