

################################################################################
##################################    Init    ##################################
################################################################################
units           real
atom_style      full
pair_style      lj/cut/coul/long 12.0  12.0
kspace_style    pppm 1e-4
bond_style      harmonic
angle_style     harmonic
dihedral_style  fourier
special_bonds   amber
pair_modify     mix arithmetic
read_data       temp.lmps
  orthogonal box = (-55.907 -55.907 -55.907) to (55.907 55.907 55.907)
  1 by 1 by 1 MPI processor grid
  reading atoms ...
  36 atoms
  reading velocities ...
  36 velocities
  scanning bonds ...
  3 = max bonds/atom
  scanning angles ...
  6 = max angles/atom
  scanning dihedrals ...
  18 = max dihedrals/atom
  reading bonds ...
  35 bonds
  reading angles ...
  66 angles
  reading dihedrals ...
  90 dihedrals
  4 = max # of 1-2 neighbors
  9 = max # of 1-3 neighbors
  17 = max # of 1-4 neighbors
  21 = max # of special neighbors
  special bonds CPU = 0.000261068 secs
  read_data CPU = 0.00338292 secs
################################################################################

timestep        1
fix             pysimm_md all nve/limit 0.1
run             2000
PPPM initialization ...
  using 12-bit tables for long-range coulomb (../kspace.cpp:332)
  G vector (1/distance) = 0.143483
  grid = 18 18 18
  stencil order = 5
  estimated absolute RMS force accuracy = 0.000832936
  estimated relative force accuracy = 2.50836e-06
  using double precision KISS FFT
  3d grid and FFT values/proc = 12167 5832
Neighbor list info ...
  update every 1 steps, delay 10 steps, check yes
  max neighbors/atom: 2000, page size: 100000
  master list distance cutoff = 14
  ghost atom cutoff = 14
  binsize = 7, bins = 16 16 16
  1 neighbor lists, perpetual/occasional/extra = 1 0 0
  (1) pair lj/cut/coul/long, perpetual
      attributes: half, newton on
      pair build: half/bin/newton
      stencil: half/bin/3d/newton
      bin: standard
Per MPI rank memory allocation (min/avg/max) = 16.14 | 16.14 | 16.14 Mbytes
Step Temp E_pair E_mol TotEng Press 
       0   0.24946032    31810.879 4.2551092e+22 4.2551092e+22 6.6322945e+29 
    2000    912.19755   -10.297315    81.194528    166.06528   -8.9073707 
Loop time of 2.50135 on 1 procs for 2000 steps with 36 atoms

Performance: 69.083 ns/day, 0.347 hours/ns, 799.568 timesteps/s
100.1% CPU use with 1 MPI tasks x no OpenMP threads

MPI task timing breakdown:
Section |  min time  |  avg time  |  max time  |%varavg| %total
---------------------------------------------------------------
Pair    | 0.035504   | 0.035504   | 0.035504   |   0.0 |  1.42
Bond    | 0.028915   | 0.028915   | 0.028915   |   0.0 |  1.16
Kspace  | 2.4266     | 2.4266     | 2.4266     |   0.0 | 97.01
Neigh   | 0.0032978  | 0.0032978  | 0.0032978  |   0.0 |  0.13
Comm    | 0.0010779  | 0.0010779  | 0.0010779  |   0.0 |  0.04
Output  | 2.1935e-05 | 2.1935e-05 | 2.1935e-05 |   0.0 |  0.00
Modify  | 0.002192   | 0.002192   | 0.002192   |   0.0 |  0.09
Other   |            | 0.003725   |            |       |  0.15

Nlocal:    36 ave 36 max 36 min
Histogram: 1 0 0 0 0 0 0 0 0 0
Nghost:    0 ave 0 max 0 min
Histogram: 1 0 0 0 0 0 0 0 0 0
Neighs:    630 ave 630 max 630 min
Histogram: 1 0 0 0 0 0 0 0 0 0

Total # of neighbors = 630
Ave neighs/atom = 17.5
Ave special neighs/atom = 10.6111
Neighbor list builds = 99
Dangerous builds = 0
unfix pysimm_md
min_style cg
minimize 0.001 0.001 10000 100000
WARNING: Using 'neigh_modify every 1 delay 0 check yes' setting during minimization (../min.cpp:190)
PPPM initialization ...
  using 12-bit tables for long-range coulomb (../kspace.cpp:332)
  G vector (1/distance) = 0.143483
  grid = 18 18 18
  stencil order = 5
  estimated absolute RMS force accuracy = 0.000832936
  estimated relative force accuracy = 2.50836e-06
  using double precision KISS FFT
  3d grid and FFT values/proc = 12167 5832
Per MPI rank memory allocation (min/avg/max) = 17.26 | 17.26 | 17.26 Mbytes
Step Temp E_pair E_mol TotEng Press 
    2000    912.19755   -10.297315    81.194528    166.06528   -8.9073707 
    2082    912.19755   -13.744882    7.2906259     88.71381     3.288896 
Loop time of 0.212294 on 1 procs for 82 steps with 36 atoms

100.3% CPU use with 1 MPI tasks x no OpenMP threads

Minimization stats:
  Stopping criterion = energy tolerance
  Energy initial, next-to-last, final = 
         70.8972128203     -6.44818247513     -6.45425630804
  Force two-norm initial, final = 285.822 2.91294
  Force max component initial, final = 91.6948 0.819793
  Final line search alpha, max atom move = 0.0348711 0.0285871
  Iterations, force evaluations = 82 166

MPI task timing breakdown:
Section |  min time  |  avg time  |  max time  |%varavg| %total
---------------------------------------------------------------
Pair    | 0.004847   | 0.004847   | 0.004847   |   0.0 |  2.28
Bond    | 0.0026217  | 0.0026217  | 0.0026217  |   0.0 |  1.23
Kspace  | 0.20413    | 0.20413    | 0.20413    |   0.0 | 96.15
Neigh   | 6.6757e-05 | 6.6757e-05 | 6.6757e-05 |   0.0 |  0.03
Comm    | 8.3208e-05 | 8.3208e-05 | 8.3208e-05 |   0.0 |  0.04
Output  | 0          | 0          | 0          |   0.0 |  0.00
Modify  | 0          | 0          | 0          |   0.0 |  0.00
Other   |            | 0.0005469  |            |       |  0.26

Nlocal:    36 ave 36 max 36 min
Histogram: 1 0 0 0 0 0 0 0 0 0
Nghost:    0 ave 0 max 0 min
Histogram: 1 0 0 0 0 0 0 0 0 0
Neighs:    630 ave 630 max 630 min
Histogram: 1 0 0 0 0 0 0 0 0 0

Total # of neighbors = 630
Ave neighs/atom = 17.5
Ave special neighs/atom = 10.6111
Neighbor list builds = 2
Dangerous builds = 0
write_dump all custom pysimm.dump.tmp id q x y z vx vy vz
quit


################################################################################
##################################    Init    ##################################
################################################################################
units           real
atom_style      full
pair_style      lj/cut/coul/long 12.0  12.0
kspace_style    pppm 1e-4
bond_style      harmonic
angle_style     harmonic
dihedral_style  fourier
special_bonds   amber
pair_modify     mix arithmetic
read_data       temp.lmps
  orthogonal box = (-55.907 -55.907 -55.907) to (55.907 55.907 55.907)
  1 by 1 by 1 MPI processor grid
  reading atoms ...
  54 atoms
  reading velocities ...
  54 velocities
  scanning bonds ...
  3 = max bonds/atom
  scanning angles ...
  6 = max angles/atom
  scanning dihedrals ...
  18 = max dihedrals/atom
  reading bonds ...
  53 bonds
  reading angles ...
  102 angles
  reading dihedrals ...
  144 dihedrals
  4 = max # of 1-2 neighbors
  9 = max # of 1-3 neighbors
  18 = max # of 1-4 neighbors
  22 = max # of special neighbors
  special bonds CPU = 0.0002141 secs
  read_data CPU = 0.00373507 secs
################################################################################

timestep        1
fix             pysimm_md all nve/limit 0.1
run             2000
PPPM initialization ...
  using 12-bit tables for long-range coulomb (../kspace.cpp:332)
  G vector (1/distance) = 0.143483
  grid = 18 18 18
  stencil order = 5
  estimated absolute RMS force accuracy = 0.00102013
  estimated relative force accuracy = 3.0721e-06
  using double precision KISS FFT
  3d grid and FFT values/proc = 12167 5832
Neighbor list info ...
  update every 1 steps, delay 10 steps, check yes
  max neighbors/atom: 2000, page size: 100000
  master list distance cutoff = 14
  ghost atom cutoff = 14
  binsize = 7, bins = 16 16 16
  1 neighbor lists, perpetual/occasional/extra = 1 0 0
  (1) pair lj/cut/coul/long, perpetual
      attributes: half, newton on
      pair build: half/bin/newton
      stencil: half/bin/3d/newton
      bin: standard
Per MPI rank memory allocation (min/avg/max) = 16.2 | 16.2 | 16.2 Mbytes
Step Temp E_pair E_mol TotEng Press 
       0    602.47697    205141.65 8.5148437e+25 8.5148437e+25    40304.792 
    2000    989.68428   -13.468122    129.47286    272.35797    2.5492953 
Loop time of 2.516 on 1 procs for 2000 steps with 54 atoms

Performance: 68.680 ns/day, 0.349 hours/ns, 794.912 timesteps/s
100.0% CPU use with 1 MPI tasks x no OpenMP threads

MPI task timing breakdown:
Section |  min time  |  avg time  |  max time  |%varavg| %total
---------------------------------------------------------------
Pair    | 0.071869   | 0.071869   | 0.071869   |   0.0 |  2.86
Bond    | 0.043609   | 0.043609   | 0.043609   |   0.0 |  1.73
Kspace  | 2.3885     | 2.3885     | 2.3885     |   0.0 | 94.93
Neigh   | 0.0050306  | 0.0050306  | 0.0050306  |   0.0 |  0.20
Comm    | 0.00094676 | 0.00094676 | 0.00094676 |   0.0 |  0.04
Output  | 1.7166e-05 | 1.7166e-05 | 1.7166e-05 |   0.0 |  0.00
Modify  | 0.0025928  | 0.0025928  | 0.0025928  |   0.0 |  0.10
Other   |            | 0.003471   |            |       |  0.14

Nlocal:    54 ave 54 max 54 min
Histogram: 1 0 0 0 0 0 0 0 0 0
Nghost:    0 ave 0 max 0 min
Histogram: 1 0 0 0 0 0 0 0 0 0
Neighs:    1431 ave 1431 max 1431 min
Histogram: 1 0 0 0 0 0 0 0 0 0

Total # of neighbors = 1431
Ave neighs/atom = 26.5
Ave special neighs/atom = 11.0741
Neighbor list builds = 97
Dangerous builds = 0
unfix pysimm_md
min_style cg
minimize 0.001 0.001 10000 100000
WARNING: Using 'neigh_modify every 1 delay 0 check yes' setting during minimization (../min.cpp:190)
PPPM initialization ...
  using 12-bit tables for long-range coulomb (../kspace.cpp:332)
  G vector (1/distance) = 0.143483
  grid = 18 18 18
  stencil order = 5
  estimated absolute RMS force accuracy = 0.00102013
  estimated relative force accuracy = 3.0721e-06
  using double precision KISS FFT
  3d grid and FFT values/proc = 12167 5832
Per MPI rank memory allocation (min/avg/max) = 17.33 | 17.33 | 17.33 Mbytes
Step Temp E_pair E_mol TotEng Press 
    2000    989.68428   -13.468122    129.47286    272.35797    2.5492953 
    2126    989.68428   -20.951642    16.382035    151.78362    5.0364283 
Loop time of 0.320495 on 1 procs for 126 steps with 54 atoms

99.5% CPU use with 1 MPI tasks x no OpenMP threads

Minimization stats:
  Stopping criterion = energy tolerance
  Energy initial, next-to-last, final = 
         116.004740569     -4.56538102788     -4.56960675406
  Force two-norm initial, final = 400.652 1.98601
  Force max component initial, final = 111.55 0.631017
  Final line search alpha, max atom move = 0.023069 0.0145569
  Iterations, force evaluations = 126 254

MPI task timing breakdown:
Section |  min time  |  avg time  |  max time  |%varavg| %total
---------------------------------------------------------------
Pair    | 0.014758   | 0.014758   | 0.014758   |   0.0 |  4.60
Bond    | 0.0059977  | 0.0059977  | 0.0059977  |   0.0 |  1.87
Kspace  | 0.29869    | 0.29869    | 0.29869    |   0.0 | 93.20
Neigh   | 5.1975e-05 | 5.1975e-05 | 5.1975e-05 |   0.0 |  0.02
Comm    | 8.1062e-05 | 8.1062e-05 | 8.1062e-05 |   0.0 |  0.03
Output  | 0          | 0          | 0          |   0.0 |  0.00
Modify  | 0          | 0          | 0          |   0.0 |  0.00
Other   |            | 0.0009201  |            |       |  0.29

Nlocal:    54 ave 54 max 54 min
Histogram: 1 0 0 0 0 0 0 0 0 0
Nghost:    0 ave 0 max 0 min
Histogram: 1 0 0 0 0 0 0 0 0 0
Neighs:    1431 ave 1431 max 1431 min
Histogram: 1 0 0 0 0 0 0 0 0 0

Total # of neighbors = 1431
Ave neighs/atom = 26.5
Ave special neighs/atom = 11.0741
Neighbor list builds = 1
Dangerous builds = 0
write_dump all custom pysimm.dump.tmp id q x y z vx vy vz
quit


################################################################################
##################################    Init    ##################################
################################################################################
units           real
atom_style      full
pair_style      lj/cut/coul/long 12.0  12.0
kspace_style    pppm 1e-4
bond_style      harmonic
angle_style     harmonic
dihedral_style  fourier
special_bonds   amber
pair_modify     mix arithmetic
read_data       temp.lmps
  orthogonal box = (-55.907 -55.907 -55.907) to (55.907 55.907 55.907)
  1 by 1 by 1 MPI processor grid
  reading atoms ...
  72 atoms
  reading velocities ...
  72 velocities
  scanning bonds ...
  3 = max bonds/atom
  scanning angles ...
  6 = max angles/atom
  scanning dihedrals ...
  18 = max dihedrals/atom
  reading bonds ...
  71 bonds
  reading angles ...
  138 angles
  reading dihedrals ...
  198 dihedrals
  4 = max # of 1-2 neighbors
  9 = max # of 1-3 neighbors
  18 = max # of 1-4 neighbors
  22 = max # of special neighbors
  special bonds CPU = 0.000272989 secs
  read_data CPU = 0.00391293 secs
################################################################################

timestep        1
fix             pysimm_md all nve/limit 0.1
run             2000
PPPM initialization ...
  using 12-bit tables for long-range coulomb (../kspace.cpp:332)
  G vector (1/distance) = 0.143483
  grid = 18 18 18
  stencil order = 5
  estimated absolute RMS force accuracy = 0.00117795
  estimated relative force accuracy = 3.54736e-06
  using double precision KISS FFT
  3d grid and FFT values/proc = 12167 5832
Neighbor list info ...
  update every 1 steps, delay 10 steps, check yes
  max neighbors/atom: 2000, page size: 100000
  master list distance cutoff = 14
  ghost atom cutoff = 14
  binsize = 7, bins = 16 16 16
  1 neighbor lists, perpetual/occasional/extra = 1 0 0
  (1) pair lj/cut/coul/long, perpetual
      attributes: half, newton on
      pair build: half/bin/newton
      stencil: half/bin/3d/newton
      bin: standard
Per MPI rank memory allocation (min/avg/max) = 16.21 | 16.21 | 16.21 Mbytes
Step Temp E_pair E_mol TotEng Press 
       0    738.83969    465726.59 1.5203448e+27 1.5203448e+27 -2.0028859e+38 
    2000    826.73896   -16.974685    198.72564    356.71993    11.936562 
Loop time of 2.60527 on 1 procs for 2000 steps with 72 atoms

Performance: 66.327 ns/day, 0.362 hours/ns, 767.675 timesteps/s
100.0% CPU use with 1 MPI tasks x no OpenMP threads

MPI task timing breakdown:
Section |  min time  |  avg time  |  max time  |%varavg| %total
---------------------------------------------------------------
Pair    | 0.12222    | 0.12222    | 0.12222    |   0.0 |  4.69
Bond    | 0.058873   | 0.058873   | 0.058873   |   0.0 |  2.26
Kspace  | 2.408      | 2.408      | 2.408      |   0.0 | 92.43
Neigh   | 0.0081134  | 0.0081134  | 0.0081134  |   0.0 |  0.31
Comm    | 0.0010412  | 0.0010412  | 0.0010412  |   0.0 |  0.04
Output  | 2.408e-05  | 2.408e-05  | 2.408e-05  |   0.0 |  0.00
Modify  | 0.0033004  | 0.0033004  | 0.0033004  |   0.0 |  0.13
Other   |            | 0.003746   |            |       |  0.14

Nlocal:    72 ave 72 max 72 min
Histogram: 1 0 0 0 0 0 0 0 0 0
Nghost:    0 ave 0 max 0 min
Histogram: 1 0 0 0 0 0 0 0 0 0
Neighs:    2556 ave 2556 max 2556 min
Histogram: 1 0 0 0 0 0 0 0 0 0

Total # of neighbors = 2556
Ave neighs/atom = 35.5
Ave special neighs/atom = 11.3056
Neighbor list builds = 100
Dangerous builds = 0
unfix pysimm_md
min_style cg
minimize 0.001 0.001 10000 100000
WARNING: Using 'neigh_modify every 1 delay 0 check yes' setting during minimization (../min.cpp:190)
PPPM initialization ...
  using 12-bit tables for long-range coulomb (../kspace.cpp:332)
  G vector (1/distance) = 0.143483
  grid = 18 18 18
  stencil order = 5
  estimated absolute RMS force accuracy = 0.00117795
  estimated relative force accuracy = 3.54736e-06
  using double precision KISS FFT
  3d grid and FFT values/proc = 12167 5832
Per MPI rank memory allocation (min/avg/max) = 17.33 | 17.33 | 17.33 Mbytes
Step Temp E_pair E_mol TotEng Press 
    2000    826.73896   -16.974685    198.72564    356.71993    11.936562 
    2091    826.73896   -28.278735    33.963894    180.65414    5.8255337 
Loop time of 0.248429 on 1 procs for 91 steps with 72 atoms

99.8% CPU use with 1 MPI tasks x no OpenMP threads

Minimization stats:
  Stopping criterion = energy tolerance
  Energy initial, next-to-last, final = 
         181.750953289      5.69070222291      5.68515920399
  Force two-norm initial, final = 490.217 2.68107
  Force max component initial, final = 154.177 0.73414
  Final line search alpha, max atom move = 0.04799 0.0352314
  Iterations, force evaluations = 91 182

MPI task timing breakdown:
Section |  min time  |  avg time  |  max time  |%varavg| %total
---------------------------------------------------------------
Pair    | 0.0185     | 0.0185     | 0.0185     |   0.0 |  7.45
Bond    | 0.0057878  | 0.0057878  | 0.0057878  |   0.0 |  2.33
Kspace  | 0.22322    | 0.22322    | 0.22322    |   0.0 | 89.85
Neigh   | 9.8944e-05 | 9.8944e-05 | 9.8944e-05 |   0.0 |  0.04
Comm    | 8.3685e-05 | 8.3685e-05 | 8.3685e-05 |   0.0 |  0.03
Output  | 0          | 0          | 0          |   0.0 |  0.00
Modify  | 0          | 0          | 0          |   0.0 |  0.00
Other   |            | 0.0007396  |            |       |  0.30

Nlocal:    72 ave 72 max 72 min
Histogram: 1 0 0 0 0 0 0 0 0 0
Nghost:    0 ave 0 max 0 min
Histogram: 1 0 0 0 0 0 0 0 0 0
Neighs:    2556 ave 2556 max 2556 min
Histogram: 1 0 0 0 0 0 0 0 0 0

Total # of neighbors = 2556
Ave neighs/atom = 35.5
Ave special neighs/atom = 11.3056
Neighbor list builds = 1
Dangerous builds = 0
write_dump all custom pysimm.dump.tmp id q x y z vx vy vz
quit


################################################################################
##################################    Init    ##################################
################################################################################
units           real
atom_style      full
pair_style      lj/cut/coul/long 12.0  12.0
kspace_style    pppm 1e-4
bond_style      harmonic
angle_style     harmonic
dihedral_style  fourier
special_bonds   amber
pair_modify     mix arithmetic
read_data       temp.lmps
  orthogonal box = (-55.907 -55.907 -55.907) to (55.907 55.907 55.907)
  1 by 1 by 1 MPI processor grid
  reading atoms ...
  90 atoms
  reading velocities ...
  90 velocities
  scanning bonds ...
  3 = max bonds/atom
  scanning angles ...
  6 = max angles/atom
  scanning dihedrals ...
  18 = max dihedrals/atom
  reading bonds ...
  89 bonds
  reading angles ...
  174 angles
  reading dihedrals ...
  252 dihedrals
  4 = max # of 1-2 neighbors
  9 = max # of 1-3 neighbors
  18 = max # of 1-4 neighbors
  22 = max # of special neighbors
  special bonds CPU = 0.00028801 secs
  read_data CPU = 0.00375986 secs
################################################################################

timestep        1
fix             pysimm_md all nve/limit 0.1
run             2000
PPPM initialization ...
  using 12-bit tables for long-range coulomb (../kspace.cpp:332)
  G vector (1/distance) = 0.143483
  grid = 18 18 18
  stencil order = 5
  estimated absolute RMS force accuracy = 0.00131699
  estimated relative force accuracy = 3.96607e-06
  using double precision KISS FFT
  3d grid and FFT values/proc = 12167 5832
Neighbor list info ...
  update every 1 steps, delay 10 steps, check yes
  max neighbors/atom: 2000, page size: 100000
  master list distance cutoff = 14
  ghost atom cutoff = 14
  binsize = 7, bins = 16 16 16
  1 neighbor lists, perpetual/occasional/extra = 1 0 0
  (1) pair lj/cut/coul/long, perpetual
      attributes: half, newton on
      pair build: half/bin/newton
      stencil: half/bin/3d/newton
      bin: standard
Per MPI rank memory allocation (min/avg/max) = 16.21 | 16.21 | 16.21 Mbytes
Step Temp E_pair E_mol TotEng Press 
       0    659.58252 2.4506165e+08 4.3894566e+25 4.3894566e+25 1.7386162e+35 
    2000    747.29663   -17.143346    242.22601    423.33455    -4.869896 
Loop time of 2.70323 on 1 procs for 2000 steps with 90 atoms

Performance: 63.924 ns/day, 0.375 hours/ns, 739.856 timesteps/s
100.0% CPU use with 1 MPI tasks x no OpenMP threads

MPI task timing breakdown:
Section |  min time  |  avg time  |  max time  |%varavg| %total
---------------------------------------------------------------
Pair    | 0.18444    | 0.18444    | 0.18444    |   0.0 |  6.82
Bond    | 0.07348    | 0.07348    | 0.07348    |   0.0 |  2.72
Kspace  | 2.4235     | 2.4235     | 2.4235     |   0.0 | 89.65
Neigh   | 0.01293    | 0.01293    | 0.01293    |   0.0 |  0.48
Comm    | 0.0013816  | 0.0013816  | 0.0013816  |   0.0 |  0.05
Output  | 1.6928e-05 | 1.6928e-05 | 1.6928e-05 |   0.0 |  0.00
Modify  | 0.0038769  | 0.0038769  | 0.0038769  |   0.0 |  0.14
Other   |            | 0.003606   |            |       |  0.13

Nlocal:    90 ave 90 max 90 min
Histogram: 1 0 0 0 0 0 0 0 0 0
Nghost:    33 ave 33 max 33 min
Histogram: 1 0 0 0 0 0 0 0 0 0
Neighs:    4005 ave 4005 max 4005 min
Histogram: 1 0 0 0 0 0 0 0 0 0

Total # of neighbors = 4005
Ave neighs/atom = 44.5
Ave special neighs/atom = 11.4444
Neighbor list builds = 109
Dangerous builds = 0
unfix pysimm_md
min_style cg
minimize 0.001 0.001 10000 100000
WARNING: Using 'neigh_modify every 1 delay 0 check yes' setting during minimization (../min.cpp:190)
PPPM initialization ...
  using 12-bit tables for long-range coulomb (../kspace.cpp:332)
  G vector (1/distance) = 0.143483
  grid = 18 18 18
  stencil order = 5
  estimated absolute RMS force accuracy = 0.00131699
  estimated relative force accuracy = 3.96607e-06
  using double precision KISS FFT
  3d grid and FFT values/proc = 12167 5832
Per MPI rank memory allocation (min/avg/max) = 17.33 | 17.33 | 17.33 Mbytes
Step Temp E_pair E_mol TotEng Press 
    2000    747.29663   -17.143346    242.22601    423.33455    -4.869896 
    2131    747.29663   -36.754917    44.532524    206.02949    6.4105855 
Loop time of 0.357933 on 1 procs for 131 steps with 90 atoms

100.0% CPU use with 1 MPI tasks x no OpenMP threads

Minimization stats:
  Stopping criterion = energy tolerance
  Energy initial, next-to-last, final = 
         225.082661532      7.78448203093      7.77760628152
  Force two-norm initial, final = 477.212 2.97105
  Force max component initial, final = 115.36 0.532626
  Final line search alpha, max atom move = 0.0534083 0.0284466
  Iterations, force evaluations = 131 262

MPI task timing breakdown:
Section |  min time  |  avg time  |  max time  |%varavg| %total
---------------------------------------------------------------
Pair    | 0.040649   | 0.040649   | 0.040649   |   0.0 | 11.36
Bond    | 0.010446   | 0.010446   | 0.010446   |   0.0 |  2.92
Kspace  | 0.30513    | 0.30513    | 0.30513    |   0.0 | 85.25
Neigh   | 0.00038004 | 0.00038004 | 0.00038004 |   0.0 |  0.11
Comm    | 0.00019002 | 0.00019002 | 0.00019002 |   0.0 |  0.05
Output  | 0          | 0          | 0          |   0.0 |  0.00
Modify  | 0          | 0          | 0          |   0.0 |  0.00
Other   |            | 0.001139   |            |       |  0.32

Nlocal:    90 ave 90 max 90 min
Histogram: 1 0 0 0 0 0 0 0 0 0
Nghost:    32 ave 32 max 32 min
Histogram: 1 0 0 0 0 0 0 0 0 0
Neighs:    4005 ave 4005 max 4005 min
Histogram: 1 0 0 0 0 0 0 0 0 0

Total # of neighbors = 4005
Ave neighs/atom = 44.5
Ave special neighs/atom = 11.4444
Neighbor list builds = 3
Dangerous builds = 0
write_dump all custom pysimm.dump.tmp id q x y z vx vy vz
quit


################################################################################
##################################    Init    ##################################
################################################################################
units           real
atom_style      full
pair_style      lj/cut/coul/long 12.0  12.0
kspace_style    pppm 1e-4
bond_style      harmonic
angle_style     harmonic
dihedral_style  fourier
special_bonds   amber
pair_modify     mix arithmetic
read_data       temp.lmps
  orthogonal box = (-55.907 -55.907 -55.907) to (55.907 55.907 55.907)
  1 by 1 by 1 MPI processor grid
  reading atoms ...
  108 atoms
  reading velocities ...
  108 velocities
  scanning bonds ...
  3 = max bonds/atom
  scanning angles ...
  6 = max angles/atom
  scanning dihedrals ...
  18 = max dihedrals/atom
  reading bonds ...
  107 bonds
  reading angles ...
  210 angles
  reading dihedrals ...
  306 dihedrals
  4 = max # of 1-2 neighbors
  9 = max # of 1-3 neighbors
  18 = max # of 1-4 neighbors
  22 = max # of special neighbors
  special bonds CPU = 0.000306129 secs
  read_data CPU = 0.00384903 secs
################################################################################

timestep        1
fix             pysimm_md all nve/limit 0.1
run             2000
PPPM initialization ...
WARNING: System is not charge neutral, net charge = -1.2e-05 (../kspace.cpp:313)
  using 12-bit tables for long-range coulomb (../kspace.cpp:332)
  G vector (1/distance) = 0.143483
  grid = 18 18 18
  stencil order = 5
  estimated absolute RMS force accuracy = 0.00144269
  estimated relative force accuracy = 4.34461e-06
  using double precision KISS FFT
  3d grid and FFT values/proc = 12167 5832
Neighbor list info ...
  update every 1 steps, delay 10 steps, check yes
  max neighbors/atom: 2000, page size: 100000
  master list distance cutoff = 14
  ghost atom cutoff = 14
  binsize = 7, bins = 16 16 16
  1 neighbor lists, perpetual/occasional/extra = 1 0 0
  (1) pair lj/cut/coul/long, perpetual
      attributes: half, newton on
      pair build: half/bin/newton
      stencil: half/bin/3d/newton
      bin: standard
Per MPI rank memory allocation (min/avg/max) = 16.21 | 16.21 | 16.21 Mbytes
Step Temp E_pair E_mol TotEng Press 
       0    621.62408 2.3189065e+08 5.0396636e+26 5.0396636e+26 2.7817859e+37 
    2000    747.34976   -31.988596    278.35812    484.73424     -1.97783 
Loop time of 2.77472 on 1 procs for 2000 steps with 108 atoms

Performance: 62.277 ns/day, 0.385 hours/ns, 720.793 timesteps/s
100.1% CPU use with 1 MPI tasks x no OpenMP threads

MPI task timing breakdown:
Section |  min time  |  avg time  |  max time  |%varavg| %total
---------------------------------------------------------------
Pair    | 0.25109    | 0.25109    | 0.25109    |   0.0 |  9.05
Bond    | 0.086881   | 0.086881   | 0.086881   |   0.0 |  3.13
Kspace  | 2.411      | 2.411      | 2.411      |   0.0 | 86.89
Neigh   | 0.015684   | 0.015684   | 0.015684   |   0.0 |  0.57
Comm    | 0.0019205  | 0.0019205  | 0.0019205  |   0.0 |  0.07
Output  | 2.408e-05  | 2.408e-05  | 2.408e-05  |   0.0 |  0.00
Modify  | 0.0042994  | 0.0042994  | 0.0042994  |   0.0 |  0.15
Other   |            | 0.003845   |            |       |  0.14

Nlocal:    108 ave 108 max 108 min
Histogram: 1 0 0 0 0 0 0 0 0 0
Nghost:    73 ave 73 max 73 min
Histogram: 1 0 0 0 0 0 0 0 0 0
Neighs:    5595 ave 5595 max 5595 min
Histogram: 1 0 0 0 0 0 0 0 0 0

Total # of neighbors = 5595
Ave neighs/atom = 51.8056
Ave special neighs/atom = 11.537
Neighbor list builds = 102
Dangerous builds = 0
unfix pysimm_md
min_style cg
minimize 0.001 0.001 10000 100000
WARNING: Using 'neigh_modify every 1 delay 0 check yes' setting during minimization (../min.cpp:190)
PPPM initialization ...
  using 12-bit tables for long-range coulomb (../kspace.cpp:332)
  G vector (1/distance) = 0.143483
  grid = 18 18 18
  stencil order = 5
  estimated absolute RMS force accuracy = 0.00144269
  estimated relative force accuracy = 4.34461e-06
  using double precision KISS FFT
  3d grid and FFT values/proc = 12167 5832
Per MPI rank memory allocation (min/avg/max) = 17.34 | 17.34 | 17.34 Mbytes
Step Temp E_pair E_mol TotEng Press 
    2000    747.34976   -31.988596    278.35812    484.73424     -1.97783 
    2201    747.34976   -44.406621    53.462479    247.42058    7.6663615 
Loop time of 0.60126 on 1 procs for 201 steps with 108 atoms

99.9% CPU use with 1 MPI tasks x no OpenMP threads

Minimization stats:
  Stopping criterion = energy tolerance
  Energy initial, next-to-last, final = 
         246.369521019      9.06211159593      9.05585734349
  Force two-norm initial, final = 548.35 4.57742
  Force max component initial, final = 99.5766 0.809292
  Final line search alpha, max atom move = 0.0104193 0.00843229
  Iterations, force evaluations = 201 402

MPI task timing breakdown:
Section |  min time  |  avg time  |  max time  |%varavg| %total
---------------------------------------------------------------
Pair    | 0.081973   | 0.081973   | 0.081973   |   0.0 | 13.63
Bond    | 0.018926   | 0.018926   | 0.018926   |   0.0 |  3.15
Kspace  | 0.49746    | 0.49746    | 0.49746    |   0.0 | 82.74
Neigh   | 0.00061798 | 0.00061798 | 0.00061798 |   0.0 |  0.10
Comm    | 0.00037622 | 0.00037622 | 0.00037622 |   0.0 |  0.06
Output  | 0          | 0          | 0          |   0.0 |  0.00
Modify  | 0          | 0          | 0          |   0.0 |  0.00
Other   |            | 0.001904   |            |       |  0.32

Nlocal:    108 ave 108 max 108 min
Histogram: 1 0 0 0 0 0 0 0 0 0
Nghost:    72 ave 72 max 72 min
Histogram: 1 0 0 0 0 0 0 0 0 0
Neighs:    5583 ave 5583 max 5583 min
Histogram: 1 0 0 0 0 0 0 0 0 0

Total # of neighbors = 5583
Ave neighs/atom = 51.6944
Ave special neighs/atom = 11.537
Neighbor list builds = 4
Dangerous builds = 0
write_dump all custom pysimm.dump.tmp id q x y z vx vy vz
quit


################################################################################
##################################    Init    ##################################
################################################################################
units           real
atom_style      full
pair_style      lj/cut/coul/long 12.0  12.0
kspace_style    pppm 1e-4
bond_style      harmonic
angle_style     harmonic
dihedral_style  fourier
special_bonds   amber
pair_modify     mix arithmetic
read_data       temp.lmps
  orthogonal box = (-55.907 -55.907 -55.907) to (55.907 55.907 55.907)
  1 by 1 by 1 MPI processor grid
  reading atoms ...
  126 atoms
  reading velocities ...
  126 velocities
  scanning bonds ...
  3 = max bonds/atom
  scanning angles ...
  6 = max angles/atom
  scanning dihedrals ...
  18 = max dihedrals/atom
  reading bonds ...
  125 bonds
  reading angles ...
  246 angles
  reading dihedrals ...
  360 dihedrals
  4 = max # of 1-2 neighbors
  9 = max # of 1-3 neighbors
  18 = max # of 1-4 neighbors
  22 = max # of special neighbors
  special bonds CPU = 0.000250101 secs
  read_data CPU = 0.00415397 secs
################################################################################

timestep        1
fix             pysimm_md all nve/limit 0.1
run             2000
PPPM initialization ...
WARNING: System is not charge neutral, net charge = -1.4e-05 (../kspace.cpp:313)
  using 12-bit tables for long-range coulomb (../kspace.cpp:332)
  G vector (1/distance) = 0.143483
  grid = 18 18 18
  stencil order = 5
  estimated absolute RMS force accuracy = 0.00155828
  estimated relative force accuracy = 4.69271e-06
  using double precision KISS FFT
  3d grid and FFT values/proc = 12167 5832
Neighbor list info ...
  update every 1 steps, delay 10 steps, check yes
  max neighbors/atom: 2000, page size: 100000
  master list distance cutoff = 14
  ghost atom cutoff = 14
  binsize = 7, bins = 16 16 16
  1 neighbor lists, perpetual/occasional/extra = 1 0 0
  (1) pair lj/cut/coul/long, perpetual
      attributes: half, newton on
      pair build: half/bin/newton
      stencil: half/bin/3d/newton
      bin: standard
Per MPI rank memory allocation (min/avg/max) = 16.21 | 16.21 | 16.21 Mbytes
Step Temp E_pair E_mol TotEng Press 
       0    639.76647    1083443.7 7.2948108e+24 7.2948108e+24    212674.28 
    2000    699.91624   -41.186606    302.52223     522.1253    1.7028922 
Loop time of 2.80864 on 1 procs for 2000 steps with 126 atoms

Performance: 61.524 ns/day, 0.390 hours/ns, 712.087 timesteps/s
100.0% CPU use with 1 MPI tasks x no OpenMP threads

MPI task timing breakdown:
Section |  min time  |  avg time  |  max time  |%varavg| %total
---------------------------------------------------------------
Pair    | 0.32751    | 0.32751    | 0.32751    |   0.0 | 11.66
Bond    | 0.10016    | 0.10016    | 0.10016    |   0.0 |  3.57
Kspace  | 2.3494     | 2.3494     | 2.3494     |   0.0 | 83.65
Neigh   | 0.020761   | 0.020761   | 0.020761   |   0.0 |  0.74
Comm    | 0.0022402  | 0.0022402  | 0.0022402  |   0.0 |  0.08
Output  | 2.1935e-05 | 2.1935e-05 | 2.1935e-05 |   0.0 |  0.00
Modify  | 0.0047889  | 0.0047889  | 0.0047889  |   0.0 |  0.17
Other   |            | 0.003715   |            |       |  0.13

Nlocal:    126 ave 126 max 126 min
Histogram: 1 0 0 0 0 0 0 0 0 0
Nghost:    109 ave 109 max 109 min
Histogram: 1 0 0 0 0 0 0 0 0 0
Neighs:    7860 ave 7860 max 7860 min
Histogram: 1 0 0 0 0 0 0 0 0 0

Total # of neighbors = 7860
Ave neighs/atom = 62.381
Ave special neighs/atom = 11.6032
Neighbor list builds = 107
Dangerous builds = 0
unfix pysimm_md
min_style cg
minimize 0.001 0.001 10000 100000
WARNING: Using 'neigh_modify every 1 delay 0 check yes' setting during minimization (../min.cpp:190)
PPPM initialization ...
  using 12-bit tables for long-range coulomb (../kspace.cpp:332)
  G vector (1/distance) = 0.143483
  grid = 18 18 18
  stencil order = 5
  estimated absolute RMS force accuracy = 0.00155828
  estimated relative force accuracy = 4.69271e-06
  using double precision KISS FFT
  3d grid and FFT values/proc = 12167 5832
Per MPI rank memory allocation (min/avg/max) = 17.34 | 17.34 | 17.34 Mbytes
Step Temp E_pair E_mol TotEng Press 
    2000    699.91624   -41.186606    302.52223     522.1253    1.7028922 
    2221    699.91624   -55.872917    60.757337    265.67409    8.6140906 
Loop time of 0.785659 on 1 procs for 221 steps with 126 atoms

100.0% CPU use with 1 MPI tasks x no OpenMP threads

Minimization stats:
  Stopping criterion = linesearch alpha is zero
  Energy initial, next-to-last, final = 
         261.335623889      4.88441977137      4.88441977137
  Force two-norm initial, final = 527.238 6.29461
  Force max component initial, final = 110.158 1.15531
  Final line search alpha, max atom move = 2.54443e-10 2.9396e-10
  Iterations, force evaluations = 221 490

MPI task timing breakdown:
Section |  min time  |  avg time  |  max time  |%varavg| %total
---------------------------------------------------------------
Pair    | 0.14366    | 0.14366    | 0.14366    |   0.0 | 18.28
Bond    | 0.026852   | 0.026852   | 0.026852   |   0.0 |  3.42
Kspace  | 0.61123    | 0.61123    | 0.61123    |   0.0 | 77.80
Neigh   | 0.00099444 | 0.00099444 | 0.00099444 |   0.0 |  0.13
Comm    | 0.00056839 | 0.00056839 | 0.00056839 |   0.0 |  0.07
Output  | 0          | 0          | 0          |   0.0 |  0.00
Modify  | 0          | 0          | 0          |   0.0 |  0.00
Other   |            | 0.002358   |            |       |  0.30

Nlocal:    126 ave 126 max 126 min
Histogram: 1 0 0 0 0 0 0 0 0 0
Nghost:    110 ave 110 max 110 min
Histogram: 1 0 0 0 0 0 0 0 0 0
Neighs:    7847 ave 7847 max 7847 min
Histogram: 1 0 0 0 0 0 0 0 0 0

Total # of neighbors = 7847
Ave neighs/atom = 62.2778
Ave special neighs/atom = 11.6032
Neighbor list builds = 5
Dangerous builds = 0
write_dump all custom pysimm.dump.tmp id q x y z vx vy vz
quit


################################################################################
##################################    Init    ##################################
################################################################################
units           real
atom_style      full
pair_style      lj/cut/coul/long 12.0  12.0
kspace_style    pppm 1e-4
bond_style      harmonic
angle_style     harmonic
dihedral_style  fourier
special_bonds   amber
pair_modify     mix arithmetic
read_data       temp.lmps
  orthogonal box = (-55.907 -55.907 -55.907) to (55.907 55.907 55.907)
  1 by 1 by 1 MPI processor grid
  reading atoms ...
  144 atoms
  reading velocities ...
  144 velocities
  scanning bonds ...
  3 = max bonds/atom
  scanning angles ...
  6 = max angles/atom
  scanning dihedrals ...
  18 = max dihedrals/atom
  reading bonds ...
  143 bonds
  reading angles ...
  282 angles
  reading dihedrals ...
  414 dihedrals
  4 = max # of 1-2 neighbors
  9 = max # of 1-3 neighbors
  18 = max # of 1-4 neighbors
  22 = max # of special neighbors
  special bonds CPU = 0.000319958 secs
  read_data CPU = 0.00419021 secs
################################################################################

timestep        1
fix             pysimm_md all nve/limit 0.1
run             2000
PPPM initialization ...
WARNING: System is not charge neutral, net charge = -1.6e-05 (../kspace.cpp:313)
  using 12-bit tables for long-range coulomb (../kspace.cpp:332)
  G vector (1/distance) = 0.143483
  grid = 18 18 18
  stencil order = 5
  estimated absolute RMS force accuracy = 0.00166587
  estimated relative force accuracy = 5.01672e-06
  using double precision KISS FFT
  3d grid and FFT values/proc = 12167 5832
Neighbor list info ...
  update every 1 steps, delay 10 steps, check yes
  max neighbors/atom: 2000, page size: 100000
  master list distance cutoff = 14
  ghost atom cutoff = 14
  binsize = 7, bins = 16 16 16
  1 neighbor lists, perpetual/occasional/extra = 1 0 0
  (1) pair lj/cut/coul/long, perpetual
      attributes: half, newton on
      pair build: half/bin/newton
      stencil: half/bin/3d/newton
      bin: standard
Per MPI rank memory allocation (min/avg/max) = 16.22 | 16.22 | 16.22 Mbytes
Step Temp E_pair E_mol TotEng Press 
       0    611.84551    6048791.9 1.4474724e+22 1.4474724e+22 4.1451841e+28 
    2000    752.80535   -28.660577    370.89443    663.12153    2.2593837 
Loop time of 3.13684 on 1 procs for 2000 steps with 144 atoms

Performance: 55.087 ns/day, 0.436 hours/ns, 637.584 timesteps/s
100.0% CPU use with 1 MPI tasks x no OpenMP threads

MPI task timing breakdown:
Section |  min time  |  avg time  |  max time  |%varavg| %total
---------------------------------------------------------------
Pair    | 0.42434    | 0.42434    | 0.42434    |   0.0 | 13.53
Bond    | 0.11515    | 0.11515    | 0.11515    |   0.0 |  3.67
Kspace  | 2.5568     | 2.5568     | 2.5568     |   0.0 | 81.51
Neigh   | 0.028294   | 0.028294   | 0.028294   |   0.0 |  0.90
Comm    | 0.0028915  | 0.0028915  | 0.0028915  |   0.0 |  0.09
Output  | 1.9073e-05 | 1.9073e-05 | 1.9073e-05 |   0.0 |  0.00
Modify  | 0.0053985  | 0.0053985  | 0.0053985  |   0.0 |  0.17
Other   |            | 0.003928   |            |       |  0.13

Nlocal:    144 ave 144 max 144 min
Histogram: 1 0 0 0 0 0 0 0 0 0
Nghost:    150 ave 150 max 150 min
Histogram: 1 0 0 0 0 0 0 0 0 0
Neighs:    9562 ave 9562 max 9562 min
Histogram: 1 0 0 0 0 0 0 0 0 0

Total # of neighbors = 9562
Ave neighs/atom = 66.4028
Ave special neighs/atom = 11.6528
Neighbor list builds = 116
Dangerous builds = 0
unfix pysimm_md
min_style cg
minimize 0.001 0.001 10000 100000
WARNING: Using 'neigh_modify every 1 delay 0 check yes' setting during minimization (../min.cpp:190)
PPPM initialization ...
  using 12-bit tables for long-range coulomb (../kspace.cpp:332)
  G vector (1/distance) = 0.143483
  grid = 18 18 18
  stencil order = 5
  estimated absolute RMS force accuracy = 0.00166587
  estimated relative force accuracy = 5.01672e-06
  using double precision KISS FFT
  3d grid and FFT values/proc = 12167 5832
Per MPI rank memory allocation (min/avg/max) = 17.35 | 17.35 | 17.35 Mbytes
Step Temp E_pair E_mol TotEng Press 
    2000    752.80535   -28.660577    370.89443    663.12153    2.2593837 
    2206    752.80535   -59.991128     70.84522    331.74177    10.511112 
Loop time of 0.685627 on 1 procs for 206 steps with 144 atoms

100.2% CPU use with 1 MPI tasks x no OpenMP threads

Minimization stats:
  Stopping criterion = energy tolerance
  Energy initial, next-to-last, final = 
          342.23385072       10.863720332       10.854091548
  Force two-norm initial, final = 586.119 7.34066
  Force max component initial, final = 105.108 1.45109
  Final line search alpha, max atom move = 0.00875833 0.0127091
  Iterations, force evaluations = 206 412

MPI task timing breakdown:
Section |  min time  |  avg time  |  max time  |%varavg| %total
---------------------------------------------------------------
Pair    | 0.14006    | 0.14006    | 0.14006    |   0.0 | 20.43
Bond    | 0.026009   | 0.026009   | 0.026009   |   0.0 |  3.79
Kspace  | 0.51582    | 0.51582    | 0.51582    |   0.0 | 75.23
Neigh   | 0.001003   | 0.001003   | 0.001003   |   0.0 |  0.15
Comm    | 0.00052023 | 0.00052023 | 0.00052023 |   0.0 |  0.08
Output  | 0          | 0          | 0          |   0.0 |  0.00
Modify  | 0          | 0          | 0          |   0.0 |  0.00
Other   |            | 0.002207   |            |       |  0.32

Nlocal:    144 ave 144 max 144 min
Histogram: 1 0 0 0 0 0 0 0 0 0
Nghost:    148 ave 148 max 148 min
Histogram: 1 0 0 0 0 0 0 0 0 0
Neighs:    9711 ave 9711 max 9711 min
Histogram: 1 0 0 0 0 0 0 0 0 0

Total # of neighbors = 9711
Ave neighs/atom = 67.4375
Ave special neighs/atom = 11.6528
Neighbor list builds = 4
Dangerous builds = 0
write_dump all custom pysimm.dump.tmp id q x y z vx vy vz
quit


################################################################################
##################################    Init    ##################################
################################################################################
units           real
atom_style      full
pair_style      lj/cut/coul/long 12.0  12.0
kspace_style    pppm 1e-4
bond_style      harmonic
angle_style     harmonic
dihedral_style  fourier
special_bonds   amber
pair_modify     mix arithmetic
read_data       temp.lmps
  orthogonal box = (-55.907 -55.907 -55.907) to (55.907 55.907 55.907)
  1 by 1 by 1 MPI processor grid
  reading atoms ...
  162 atoms
  reading velocities ...
  162 velocities
  scanning bonds ...
  3 = max bonds/atom
  scanning angles ...
  6 = max angles/atom
  scanning dihedrals ...
  18 = max dihedrals/atom
  reading bonds ...
  161 bonds
  reading angles ...
  318 angles
  reading dihedrals ...
  468 dihedrals
  4 = max # of 1-2 neighbors
  9 = max # of 1-3 neighbors
  18 = max # of 1-4 neighbors
  22 = max # of special neighbors
  special bonds CPU = 0.000355005 secs
  read_data CPU = 0.00437403 secs
################################################################################

timestep        1
fix             pysimm_md all nve/limit 0.1
run             2000
PPPM initialization ...
WARNING: System is not charge neutral, net charge = -1.8e-05 (../kspace.cpp:313)
  using 12-bit tables for long-range coulomb (../kspace.cpp:332)
  G vector (1/distance) = 0.143483
  grid = 18 18 18
  stencil order = 5
  estimated absolute RMS force accuracy = 0.00176692
  estimated relative force accuracy = 5.32104e-06
  using double precision KISS FFT
  3d grid and FFT values/proc = 12167 5832
Neighbor list info ...
  update every 1 steps, delay 10 steps, check yes
  max neighbors/atom: 2000, page size: 100000
  master list distance cutoff = 14
  ghost atom cutoff = 14
  binsize = 7, bins = 16 16 16
  1 neighbor lists, perpetual/occasional/extra = 1 0 0
  (1) pair lj/cut/coul/long, perpetual
      attributes: half, newton on
      pair build: half/bin/newton
      stencil: half/bin/3d/newton
      bin: standard
Per MPI rank memory allocation (min/avg/max) = 16.23 | 16.23 | 16.23 Mbytes
Step Temp E_pair E_mol TotEng Press 
       0    668.66768    2580697.3 1.5264135e+24 1.5264135e+24 -6.7914696e+32 
    2000    626.26292   -39.267911    372.40553    633.68772    5.6817946 
Loop time of 3.24886 on 1 procs for 2000 steps with 162 atoms

Performance: 53.188 ns/day, 0.451 hours/ns, 615.601 timesteps/s
100.1% CPU use with 1 MPI tasks x no OpenMP threads

MPI task timing breakdown:
Section |  min time  |  avg time  |  max time  |%varavg| %total
---------------------------------------------------------------
Pair    | 0.54112    | 0.54112    | 0.54112    |   0.0 | 16.66
Bond    | 0.13159    | 0.13159    | 0.13159    |   0.0 |  4.05
Kspace  | 2.5325     | 2.5325     | 2.5325     |   0.0 | 77.95
Neigh   | 0.029639   | 0.029639   | 0.029639   |   0.0 |  0.91
Comm    | 0.0032771  | 0.0032771  | 0.0032771  |   0.0 |  0.10
Output  | 3.6001e-05 | 3.6001e-05 | 3.6001e-05 |   0.0 |  0.00
Modify  | 0.0060127  | 0.0060127  | 0.0060127  |   0.0 |  0.19
Other   |            | 0.004701   |            |       |  0.14

Nlocal:    162 ave 162 max 162 min
Histogram: 1 0 0 0 0 0 0 0 0 0
Nghost:    178 ave 178 max 178 min
Histogram: 1 0 0 0 0 0 0 0 0 0
Neighs:    12713 ave 12713 max 12713 min
Histogram: 1 0 0 0 0 0 0 0 0 0

Total # of neighbors = 12713
Ave neighs/atom = 78.4753
Ave special neighs/atom = 11.6914
Neighbor list builds = 98
Dangerous builds = 0
unfix pysimm_md
min_style cg
minimize 0.001 0.001 10000 100000
WARNING: Using 'neigh_modify every 1 delay 0 check yes' setting during minimization (../min.cpp:190)
PPPM initialization ...
  using 12-bit tables for long-range coulomb (../kspace.cpp:332)
  G vector (1/distance) = 0.143483
  grid = 18 18 18
  stencil order = 5
  estimated absolute RMS force accuracy = 0.00176692
  estimated relative force accuracy = 5.32104e-06
  using double precision KISS FFT
  3d grid and FFT values/proc = 12167 5832
Per MPI rank memory allocation (min/avg/max) = 17.36 | 17.36 | 17.36 Mbytes
Step Temp E_pair E_mol TotEng Press 
    2000    626.26292   -39.267911    372.40553    633.68772    5.6817946 
    2173    626.26292   -71.235986    74.744149    304.05826    9.5217923 
Loop time of 0.618199 on 1 procs for 173 steps with 162 atoms

100.1% CPU use with 1 MPI tasks x no OpenMP threads

Minimization stats:
  Stopping criterion = energy tolerance
  Energy initial, next-to-last, final = 
         333.137621942      3.51164518208      3.50816310691
  Force two-norm initial, final = 565.766 5.92099
  Force max component initial, final = 94.3975 1.08584
  Final line search alpha, max atom move = 0.00935342 0.0101563
  Iterations, force evaluations = 173 346

MPI task timing breakdown:
Section |  min time  |  avg time  |  max time  |%varavg| %total
---------------------------------------------------------------
Pair    | 0.15807    | 0.15807    | 0.15807    |   0.0 | 25.57
Bond    | 0.024368   | 0.024368   | 0.024368   |   0.0 |  3.94
Kspace  | 0.43202    | 0.43202    | 0.43202    |   0.0 | 69.88
Neigh   | 0.0011897  | 0.0011897  | 0.0011897  |   0.0 |  0.19
Comm    | 0.00056386 | 0.00056386 | 0.00056386 |   0.0 |  0.09
Output  | 0          | 0          | 0          |   0.0 |  0.00
Modify  | 0          | 0          | 0          |   0.0 |  0.00
Other   |            | 0.001984   |            |       |  0.32

Nlocal:    162 ave 162 max 162 min
Histogram: 1 0 0 0 0 0 0 0 0 0
Nghost:    180 ave 180 max 180 min
Histogram: 1 0 0 0 0 0 0 0 0 0
Neighs:    12696 ave 12696 max 12696 min
Histogram: 1 0 0 0 0 0 0 0 0 0

Total # of neighbors = 12696
Ave neighs/atom = 78.3704
Ave special neighs/atom = 11.6914
Neighbor list builds = 4
Dangerous builds = 0
write_dump all custom pysimm.dump.tmp id q x y z vx vy vz
quit


################################################################################
##################################    Init    ##################################
################################################################################
units           real
atom_style      full
pair_style      lj/cut/coul/long 12.0  12.0
kspace_style    pppm 1e-4
bond_style      harmonic
angle_style     harmonic
dihedral_style  fourier
special_bonds   amber
pair_modify     mix arithmetic
read_data       temp.lmps
  orthogonal box = (-55.907 -55.907 -55.907) to (55.907 55.907 55.907)
  1 by 1 by 1 MPI processor grid
  reading atoms ...
  180 atoms
  reading velocities ...
  180 velocities
  scanning bonds ...
  3 = max bonds/atom
  scanning angles ...
  6 = max angles/atom
  scanning dihedrals ...
  18 = max dihedrals/atom
  reading bonds ...
  179 bonds
  reading angles ...
  354 angles
  reading dihedrals ...
  522 dihedrals
  4 = max # of 1-2 neighbors
  9 = max # of 1-3 neighbors
  18 = max # of 1-4 neighbors
  22 = max # of special neighbors
  special bonds CPU = 0.000282049 secs
  read_data CPU = 0.00466609 secs
################################################################################

timestep        1
fix             pysimm_md all nve/limit 0.1
run             2000
PPPM initialization ...
WARNING: System is not charge neutral, net charge = -2e-05 (../kspace.cpp:313)
  using 12-bit tables for long-range coulomb (../kspace.cpp:332)
  G vector (1/distance) = 0.143483
  grid = 18 18 18
  stencil order = 5
  estimated absolute RMS force accuracy = 0.0018625
  estimated relative force accuracy = 5.60887e-06
  using double precision KISS FFT
  3d grid and FFT values/proc = 12167 5832
Neighbor list info ...
  update every 1 steps, delay 10 steps, check yes
  max neighbors/atom: 2000, page size: 100000
  master list distance cutoff = 14
  ghost atom cutoff = 14
  binsize = 7, bins = 16 16 16
  1 neighbor lists, perpetual/occasional/extra = 1 0 0
  (1) pair lj/cut/coul/long, perpetual
      attributes: half, newton on
      pair build: half/bin/newton
      stencil: half/bin/3d/newton
      bin: standard
Per MPI rank memory allocation (min/avg/max) = 16.22 | 16.22 | 16.22 Mbytes
Step Temp E_pair E_mol TotEng Press 
       0    563.31126    8416.5158 3.6366516e+26 3.6366516e+26 5.5635719e+36 
    2000    532.40143   -65.877861    335.71968    553.91259    -13.78414 
Loop time of 3.42212 on 1 procs for 2000 steps with 180 atoms

Performance: 50.495 ns/day, 0.475 hours/ns, 584.432 timesteps/s
100.0% CPU use with 1 MPI tasks x no OpenMP threads

MPI task timing breakdown:
Section |  min time  |  avg time  |  max time  |%varavg| %total
---------------------------------------------------------------
Pair    | 0.64489    | 0.64489    | 0.64489    |   0.0 | 18.84
Bond    | 0.14542    | 0.14542    | 0.14542    |   0.0 |  4.25
Kspace  | 2.5858     | 2.5858     | 2.5858     |   0.0 | 75.56
Neigh   | 0.030193   | 0.030193   | 0.030193   |   0.0 |  0.88
Comm    | 0.0041621  | 0.0041621  | 0.0041621  |   0.0 |  0.12
Output  | 1.812e-05  | 1.812e-05  | 1.812e-05  |   0.0 |  0.00
Modify  | 0.0064976  | 0.0064976  | 0.0064976  |   0.0 |  0.19
Other   |            | 0.005108   |            |       |  0.15

Nlocal:    180 ave 180 max 180 min
Histogram: 1 0 0 0 0 0 0 0 0 0
Nghost:    356 ave 356 max 356 min
Histogram: 1 0 0 0 0 0 0 0 0 0
Neighs:    14870 ave 14870 max 14870 min
Histogram: 1 0 0 0 0 0 0 0 0 0

Total # of neighbors = 14870
Ave neighs/atom = 82.6111
Ave special neighs/atom = 11.7222
Neighbor list builds = 84
Dangerous builds = 0
unfix pysimm_md
min_style cg
minimize 0.001 0.001 10000 100000
WARNING: Using 'neigh_modify every 1 delay 0 check yes' setting during minimization (../min.cpp:190)
PPPM initialization ...
  using 12-bit tables for long-range coulomb (../kspace.cpp:332)
  G vector (1/distance) = 0.143483
  grid = 18 18 18
  stencil order = 5
  estimated absolute RMS force accuracy = 0.0018625
  estimated relative force accuracy = 5.60887e-06
  using double precision KISS FFT
  3d grid and FFT values/proc = 12167 5832
Per MPI rank memory allocation (min/avg/max) = 17.36 | 17.36 | 17.36 Mbytes
Step Temp E_pair E_mol TotEng Press 
    2000    532.40143   -65.877861    335.71968    553.91259    -13.78414 
    2153    532.40143   -81.535994    80.202514    282.73729    9.4413167 
Loop time of 0.693964 on 1 procs for 153 steps with 180 atoms

100.1% CPU use with 1 MPI tasks x no OpenMP threads

Minimization stats:
  Stopping criterion = linesearch alpha is zero
  Energy initial, next-to-last, final = 
           269.8418224     -1.33348033263     -1.33348033263
  Force two-norm initial, final = 550.732 5.14279
  Force max component initial, final = 92.1344 0.958752
  Final line search alpha, max atom move = 2.69279e-10 2.58172e-10
  Iterations, force evaluations = 153 369

MPI task timing breakdown:
Section |  min time  |  avg time  |  max time  |%varavg| %total
---------------------------------------------------------------
Pair    | 0.18993    | 0.18993    | 0.18993    |   0.0 | 27.37
Bond    | 0.029002   | 0.029002   | 0.029002   |   0.0 |  4.18
Kspace  | 0.47123    | 0.47123    | 0.47123    |   0.0 | 67.90
Neigh   | 0.00077415 | 0.00077415 | 0.00077415 |   0.0 |  0.11
Comm    | 0.0008111  | 0.0008111  | 0.0008111  |   0.0 |  0.12
Output  | 0          | 0          | 0          |   0.0 |  0.00
Modify  | 0          | 0          | 0          |   0.0 |  0.00
Other   |            | 0.002216   |            |       |  0.32

Nlocal:    180 ave 180 max 180 min
Histogram: 1 0 0 0 0 0 0 0 0 0
Nghost:    356 ave 356 max 356 min
Histogram: 1 0 0 0 0 0 0 0 0 0
Neighs:    15018 ave 15018 max 15018 min
Histogram: 1 0 0 0 0 0 0 0 0 0

Total # of neighbors = 15018
Ave neighs/atom = 83.4333
Ave special neighs/atom = 11.7222
Neighbor list builds = 2
Dangerous builds = 0
write_dump all custom pysimm.dump.tmp id q x y z vx vy vz
quit


################################################################################
##################################    Init    ##################################
################################################################################
units           real
atom_style      full
pair_style      lj/cut/coul/long 12.0  12.0
kspace_style    pppm 1e-4
bond_style      harmonic
angle_style     harmonic
dihedral_style  fourier
special_bonds   amber
pair_modify     mix arithmetic
read_data       temp.lmps
  orthogonal box = (-70.4384 -70.4384 -70.4384) to (70.4384 70.4384 70.4384)
  1 by 1 by 1 MPI processor grid
  reading atoms ...
  198 atoms
  reading velocities ...
  198 velocities
  scanning bonds ...
  3 = max bonds/atom
  scanning angles ...
  6 = max angles/atom
  scanning dihedrals ...
  18 = max dihedrals/atom
  reading bonds ...
  197 bonds
  reading angles ...
  390 angles
  reading dihedrals ...
  576 dihedrals
  4 = max # of 1-2 neighbors
  9 = max # of 1-3 neighbors
  18 = max # of 1-4 neighbors
  22 = max # of special neighbors
  special bonds CPU = 0.000379086 secs
  read_data CPU = 0.00511098 secs
################################################################################

timestep        1
fix             pysimm_md all nve/limit 0.1
run             2000
PPPM initialization ...
WARNING: System is not charge neutral, net charge = -2.2e-05 (../kspace.cpp:313)
  using 12-bit tables for long-range coulomb (../kspace.cpp:332)
  G vector (1/distance) = 0.148006
  grid = 24 24 24
  stencil order = 5
  estimated absolute RMS force accuracy = 0.00114067
  estimated relative force accuracy = 3.43511e-06
  using double precision KISS FFT
  3d grid and FFT values/proc = 24389 13824
Neighbor list info ...
  update every 1 steps, delay 10 steps, check yes
  max neighbors/atom: 2000, page size: 100000
  master list distance cutoff = 14
  ghost atom cutoff = 14
  binsize = 7, bins = 21 21 21
  1 neighbor lists, perpetual/occasional/extra = 1 0 0
  (1) pair lj/cut/coul/long, perpetual
      attributes: half, newton on
      pair build: half/bin/newton
      stencil: half/bin/3d/newton
      bin: standard
Per MPI rank memory allocation (min/avg/max) = 17.4 | 17.4 | 17.4 Mbytes
Step Temp E_pair E_mol TotEng Press 
       0    483.77792   -65.010586    1110.1111    1329.1844   -16.443766 
    2000    490.99251   -65.128177    337.30954    560.50177   -6.1554123 
Loop time of 6.65128 on 1 procs for 2000 steps with 198 atoms

Performance: 25.980 ns/day, 0.924 hours/ns, 300.694 timesteps/s
100.1% CPU use with 1 MPI tasks x no OpenMP threads

MPI task timing breakdown:
Section |  min time  |  avg time  |  max time  |%varavg| %total
---------------------------------------------------------------
Pair    | 0.73863    | 0.73863    | 0.73863    |   0.0 | 11.11
Bond    | 0.16013    | 0.16013    | 0.16013    |   0.0 |  2.41
Kspace  | 5.7001     | 5.7001     | 5.7001     |   0.0 | 85.70
Neigh   | 0.038912   | 0.038912   | 0.038912   |   0.0 |  0.59
Comm    | 0.0012105  | 0.0012105  | 0.0012105  |   0.0 |  0.02
Output  | 2.0027e-05 | 2.0027e-05 | 2.0027e-05 |   0.0 |  0.00
Modify  | 0.007386   | 0.007386   | 0.007386   |   0.0 |  0.11
Other   |            | 0.00491    |            |       |  0.07

Nlocal:    198 ave 198 max 198 min
Histogram: 1 0 0 0 0 0 0 0 0 0
Nghost:    0 ave 0 max 0 min
Histogram: 1 0 0 0 0 0 0 0 0 0
Neighs:    16868 ave 16868 max 16868 min
Histogram: 1 0 0 0 0 0 0 0 0 0

Total # of neighbors = 16868
Ave neighs/atom = 85.1919
Ave special neighs/atom = 11.7475
Neighbor list builds = 94
Dangerous builds = 0
unfix pysimm_md
min_style cg
minimize 0.001 0.001 10000 100000
WARNING: Using 'neigh_modify every 1 delay 0 check yes' setting during minimization (../min.cpp:190)
PPPM initialization ...
  using 12-bit tables for long-range coulomb (../kspace.cpp:332)
  G vector (1/distance) = 0.148006
  grid = 24 24 24
  stencil order = 5
  estimated absolute RMS force accuracy = 0.00114067
  estimated relative force accuracy = 3.43511e-06
  using double precision KISS FFT
  3d grid and FFT values/proc = 24389 13824
Per MPI rank memory allocation (min/avg/max) = 18.52 | 18.52 | 18.52 Mbytes
Step Temp E_pair E_mol TotEng Press 
    2000    490.99251   -65.128177    337.30954    560.50177   -6.1554123 
    2238    490.99251    -87.63433    91.843775    292.52986    4.7350547 
Loop time of 1.86778 on 1 procs for 238 steps with 198 atoms

100.1% CPU use with 1 MPI tasks x no OpenMP threads

Minimization stats:
  Stopping criterion = linesearch alpha is zero
  Energy initial, next-to-last, final = 
          272.18135953      4.20944493034      4.20944493034
  Force two-norm initial, final = 526.699 2.98824
  Force max component initial, final = 102.299 0.472741
  Final line search alpha, max atom move = 8.86434e-10 4.19054e-10
  Iterations, force evaluations = 238 524

MPI task timing breakdown:
Section |  min time  |  avg time  |  max time  |%varavg| %total
---------------------------------------------------------------
Pair    | 0.30271    | 0.30271    | 0.30271    |   0.0 | 16.21
Bond    | 0.044989   | 0.044989   | 0.044989   |   0.0 |  2.41
Kspace  | 1.5155     | 1.5155     | 1.5155     |   0.0 | 81.14
Neigh   | 0.001215   | 0.001215   | 0.001215   |   0.0 |  0.07
Comm    | 0.00022912 | 0.00022912 | 0.00022912 |   0.0 |  0.01
Output  | 0          | 0          | 0          |   0.0 |  0.00
Modify  | 0          | 0          | 0          |   0.0 |  0.00
Other   |            | 0.00316    |            |       |  0.17

Nlocal:    198 ave 198 max 198 min
Histogram: 1 0 0 0 0 0 0 0 0 0
Nghost:    0 ave 0 max 0 min
Histogram: 1 0 0 0 0 0 0 0 0 0
Neighs:    17226 ave 17226 max 17226 min
Histogram: 1 0 0 0 0 0 0 0 0 0

Total # of neighbors = 17226
Ave neighs/atom = 87
Ave special neighs/atom = 11.7475
Neighbor list builds = 3
Dangerous builds = 0
write_dump all custom pysimm.dump.tmp id q x y z vx vy vz
quit


################################################################################
##################################    Init    ##################################
################################################################################
units           real
atom_style      full
pair_style      lj/cut/coul/long 12.0  12.0
kspace_style    pppm 1e-4
bond_style      harmonic
angle_style     harmonic
dihedral_style  fourier
special_bonds   amber
pair_modify     mix arithmetic
read_data       temp.lmps
  orthogonal box = (-72.7122 -72.7122 -72.7122) to (72.7122 72.7122 72.7122)
  1 by 1 by 1 MPI processor grid
  reading atoms ...
  216 atoms
  reading velocities ...
  216 velocities
  scanning bonds ...
  3 = max bonds/atom
  scanning angles ...
  6 = max angles/atom
  scanning dihedrals ...
  18 = max dihedrals/atom
  reading bonds ...
  215 bonds
  reading angles ...
  426 angles
  reading dihedrals ...
  630 dihedrals
  4 = max # of 1-2 neighbors
  9 = max # of 1-3 neighbors
  18 = max # of 1-4 neighbors
  22 = max # of special neighbors
  special bonds CPU = 0.000546217 secs
  read_data CPU = 0.00532007 secs
################################################################################

timestep        1
fix             pysimm_md all nve/limit 0.1
run             2000
PPPM initialization ...
WARNING: System is not charge neutral, net charge = -2.4e-05 (../kspace.cpp:313)
  using 12-bit tables for long-range coulomb (../kspace.cpp:332)
  G vector (1/distance) = 0.14546
  grid = 24 24 24
  stencil order = 5
  estimated absolute RMS force accuracy = 0.00126561
  estimated relative force accuracy = 3.81135e-06
  using double precision KISS FFT
  3d grid and FFT values/proc = 24389 13824
Neighbor list info ...
  update every 1 steps, delay 10 steps, check yes
  max neighbors/atom: 2000, page size: 100000
  master list distance cutoff = 14
  ghost atom cutoff = 14
  binsize = 7, bins = 21 21 21
  1 neighbor lists, perpetual/occasional/extra = 1 0 0
  (1) pair lj/cut/coul/long, perpetual
      attributes: half, newton on
      pair build: half/bin/newton
      stencil: half/bin/3d/newton
      bin: standard
Per MPI rank memory allocation (min/avg/max) = 17.4 | 17.4 | 17.4 Mbytes
Step Temp E_pair E_mol TotEng Press 
       0    449.90644     49616753    1115.2975     49618157    4425039.5 
    2000    476.35945   -68.981944    404.36102    640.66554   -11.552248 
Loop time of 6.71432 on 1 procs for 2000 steps with 216 atoms

Performance: 25.736 ns/day, 0.933 hours/ns, 297.871 timesteps/s
99.9% CPU use with 1 MPI tasks x no OpenMP threads

MPI task timing breakdown:
Section |  min time  |  avg time  |  max time  |%varavg| %total
---------------------------------------------------------------
Pair    | 0.75894    | 0.75894    | 0.75894    |   0.0 | 11.30
Bond    | 0.17491    | 0.17491    | 0.17491    |   0.0 |  2.61
Kspace  | 5.7173     | 5.7173     | 5.7173     |   0.0 | 85.15
Neigh   | 0.047652   | 0.047652   | 0.047652   |   0.0 |  0.71
Comm    | 0.0028389  | 0.0028389  | 0.0028389  |   0.0 |  0.04
Output  | 2.0027e-05 | 2.0027e-05 | 2.0027e-05 |   0.0 |  0.00
Modify  | 0.0078669  | 0.0078669  | 0.0078669  |   0.0 |  0.12
Other   |            | 0.00478    |            |       |  0.07

Nlocal:    216 ave 216 max 216 min
Histogram: 1 0 0 0 0 0 0 0 0 0
Nghost:    122 ave 122 max 122 min
Histogram: 1 0 0 0 0 0 0 0 0 0
Neighs:    17287 ave 17287 max 17287 min
Histogram: 1 0 0 0 0 0 0 0 0 0

Total # of neighbors = 17287
Ave neighs/atom = 80.0324
Ave special neighs/atom = 11.7685
Neighbor list builds = 103
Dangerous builds = 0
unfix pysimm_md
min_style cg
minimize 0.001 0.001 10000 100000
WARNING: Using 'neigh_modify every 1 delay 0 check yes' setting during minimization (../min.cpp:190)
PPPM initialization ...
  using 12-bit tables for long-range coulomb (../kspace.cpp:332)
  G vector (1/distance) = 0.14546
  grid = 24 24 24
  stencil order = 5
  estimated absolute RMS force accuracy = 0.00126561
  estimated relative force accuracy = 3.81135e-06
  using double precision KISS FFT
  3d grid and FFT values/proc = 24389 13824
Per MPI rank memory allocation (min/avg/max) = 18.53 | 18.53 | 18.53 Mbytes
Step Temp E_pair E_mol TotEng Press 
    2000    476.35945   -68.981944    404.36102    640.66554   -11.552248 
    2187    476.35945   -89.018101    104.55226    320.82062    4.3264101 
Loop time of 1.32878 on 1 procs for 187 steps with 216 atoms

100.1% CPU use with 1 MPI tasks x no OpenMP threads

Minimization stats:
  Stopping criterion = energy tolerance
  Energy initial, next-to-last, final = 
         335.379077194      15.5456808162      15.5341618376
  Force two-norm initial, final = 605.365 5.53105
  Force max component initial, final = 106.137 0.994598
  Final line search alpha, max atom move = 0.0184908 0.0183909
  Iterations, force evaluations = 187 374

MPI task timing breakdown:
Section |  min time  |  avg time  |  max time  |%varavg| %total
---------------------------------------------------------------
Pair    | 0.21814    | 0.21814    | 0.21814    |   0.0 | 16.42
Bond    | 0.035195   | 0.035195   | 0.035195   |   0.0 |  2.65
Kspace  | 1.0702     | 1.0702     | 1.0702     |   0.0 | 80.54
Neigh   | 0.0022631  | 0.0022631  | 0.0022631  |   0.0 |  0.17
Comm    | 0.00044131 | 0.00044131 | 0.00044131 |   0.0 |  0.03
Output  | 0          | 0          | 0          |   0.0 |  0.00
Modify  | 0          | 0          | 0          |   0.0 |  0.00
Other   |            | 0.002512   |            |       |  0.19

Nlocal:    216 ave 216 max 216 min
Histogram: 1 0 0 0 0 0 0 0 0 0
Nghost:    121 ave 121 max 121 min
Histogram: 1 0 0 0 0 0 0 0 0 0
Neighs:    17971 ave 17971 max 17971 min
Histogram: 1 0 0 0 0 0 0 0 0 0

Total # of neighbors = 17971
Ave neighs/atom = 83.1991
Ave special neighs/atom = 11.7685
Neighbor list builds = 5
Dangerous builds = 0
write_dump all custom pysimm.dump.tmp id q x y z vx vy vz
quit


################################################################################
##################################    Init    ##################################
################################################################################
units           real
atom_style      full
pair_style      lj/cut/coul/long 12.0  12.0
kspace_style    pppm 1e-4
bond_style      harmonic
angle_style     harmonic
dihedral_style  fourier
special_bonds   amber
pair_modify     mix arithmetic
read_data       temp.lmps
  orthogonal box = (-74.852 -74.852 -74.852) to (74.852 74.852 74.852)
  1 by 1 by 1 MPI processor grid
  reading atoms ...
  234 atoms
  reading velocities ...
  234 velocities
  scanning bonds ...
  3 = max bonds/atom
  scanning angles ...
  6 = max angles/atom
  scanning dihedrals ...
  18 = max dihedrals/atom
  reading bonds ...
  233 bonds
  reading angles ...
  462 angles
  reading dihedrals ...
  684 dihedrals
  4 = max # of 1-2 neighbors
  9 = max # of 1-3 neighbors
  18 = max # of 1-4 neighbors
  22 = max # of special neighbors
  special bonds CPU = 0.000379086 secs
  read_data CPU = 0.00505686 secs
################################################################################

timestep        1
fix             pysimm_md all nve/limit 0.1
run             2000
PPPM initialization ...
WARNING: System is not charge neutral, net charge = -2.6e-05 (../kspace.cpp:313)
  using 12-bit tables for long-range coulomb (../kspace.cpp:332)
  G vector (1/distance) = 0.143156
  grid = 24 24 24
  stencil order = 5
  estimated absolute RMS force accuracy = 0.00138977
  estimated relative force accuracy = 4.18525e-06
  using double precision KISS FFT
  3d grid and FFT values/proc = 24389 13824
Neighbor list info ...
  update every 1 steps, delay 10 steps, check yes
  max neighbors/atom: 2000, page size: 100000
  master list distance cutoff = 14
  ghost atom cutoff = 14
  binsize = 7, bins = 22 22 22
  1 neighbor lists, perpetual/occasional/extra = 1 0 0
  (1) pair lj/cut/coul/long, perpetual
      attributes: half, newton on
      pair build: half/bin/newton
      stencil: half/bin/3d/newton
      bin: standard
Per MPI rank memory allocation (min/avg/max) = 17.41 | 17.41 | 17.41 Mbytes
Step Temp E_pair E_mol TotEng Press 
       0    439.57787    710741.33    1127.2509    712173.88    58108.344 
    2000    415.05715   -71.602826    425.96496    642.63125   -2.5513486 
Loop time of 6.98319 on 1 procs for 2000 steps with 234 atoms

Performance: 24.745 ns/day, 0.970 hours/ns, 286.402 timesteps/s
100.0% CPU use with 1 MPI tasks x no OpenMP threads

MPI task timing breakdown:
Section |  min time  |  avg time  |  max time  |%varavg| %total
---------------------------------------------------------------
Pair    | 0.86922    | 0.86922    | 0.86922    |   0.0 | 12.45
Bond    | 0.19197    | 0.19197    | 0.19197    |   0.0 |  2.75
Kspace  | 5.8509     | 5.8509     | 5.8509     |   0.0 | 83.79
Neigh   | 0.055513   | 0.055513   | 0.055513   |   0.0 |  0.79
Comm    | 0.0014422  | 0.0014422  | 0.0014422  |   0.0 |  0.02
Output  | 1.9789e-05 | 1.9789e-05 | 1.9789e-05 |   0.0 |  0.00
Modify  | 0.0092077  | 0.0092077  | 0.0092077  |   0.0 |  0.13
Other   |            | 0.004925   |            |       |  0.07

Nlocal:    234 ave 234 max 234 min
Histogram: 1 0 0 0 0 0 0 0 0 0
Nghost:    0 ave 0 max 0 min
Histogram: 1 0 0 0 0 0 0 0 0 0
Neighs:    21579 ave 21579 max 21579 min
Histogram: 1 0 0 0 0 0 0 0 0 0

Total # of neighbors = 21579
Ave neighs/atom = 92.2179
Ave special neighs/atom = 11.7863
Neighbor list builds = 107
Dangerous builds = 0
unfix pysimm_md
min_style cg
minimize 0.001 0.001 10000 100000
WARNING: Using 'neigh_modify every 1 delay 0 check yes' setting during minimization (../min.cpp:190)
PPPM initialization ...
  using 12-bit tables for long-range coulomb (../kspace.cpp:332)
  G vector (1/distance) = 0.143156
  grid = 24 24 24
  stencil order = 5
  estimated absolute RMS force accuracy = 0.00138977
  estimated relative force accuracy = 4.18525e-06
  using double precision KISS FFT
  3d grid and FFT values/proc = 24389 13824
Per MPI rank memory allocation (min/avg/max) = 18.54 | 18.54 | 18.54 Mbytes
Step Temp E_pair E_mol TotEng Press 
    2000    415.05715   -71.602826    425.96496    642.63125   -2.5513486 
    2183    415.05715   -98.525889    104.63714    294.38036    3.7653897 
Loop time of 1.41711 on 1 procs for 183 steps with 234 atoms

100.0% CPU use with 1 MPI tasks x no OpenMP threads

Minimization stats:
  Stopping criterion = energy tolerance
  Energy initial, next-to-last, final = 
         354.362135137      6.11228604956      6.11124636558
  Force two-norm initial, final = 618.259 6.12813
  Force max component initial, final = 123.794 1.09722
  Final line search alpha, max atom move = 0.00718148 0.00787964
  Iterations, force evaluations = 183 366

MPI task timing breakdown:
Section |  min time  |  avg time  |  max time  |%varavg| %total
---------------------------------------------------------------
Pair    | 0.27166    | 0.27166    | 0.27166    |   0.0 | 19.17
Bond    | 0.038103   | 0.038103   | 0.038103   |   0.0 |  2.69
Kspace  | 1.1024     | 1.1024     | 1.1024     |   0.0 | 77.79
Neigh   | 0.0021372  | 0.0021372  | 0.0021372  |   0.0 |  0.15
Comm    | 0.00018334 | 0.00018334 | 0.00018334 |   0.0 |  0.01
Output  | 0          | 0          | 0          |   0.0 |  0.00
Modify  | 0          | 0          | 0          |   0.0 |  0.00
Other   |            | 0.002659   |            |       |  0.19

Nlocal:    234 ave 234 max 234 min
Histogram: 1 0 0 0 0 0 0 0 0 0
Nghost:    0 ave 0 max 0 min
Histogram: 1 0 0 0 0 0 0 0 0 0
Neighs:    21790 ave 21790 max 21790 min
Histogram: 1 0 0 0 0 0 0 0 0 0

Total # of neighbors = 21790
Ave neighs/atom = 93.1197
Ave special neighs/atom = 11.7863
Neighbor list builds = 4
Dangerous builds = 0
write_dump all custom pysimm.dump.tmp id q x y z vx vy vz
quit


################################################################################
##################################    Init    ##################################
################################################################################
units           real
atom_style      full
pair_style      lj/cut/coul/long 12.0  12.0
kspace_style    pppm 1e-4
bond_style      harmonic
angle_style     harmonic
dihedral_style  fourier
special_bonds   amber
pair_modify     mix arithmetic
read_data       temp.lmps
  orthogonal box = (-76.876 -76.876 -76.876) to (76.876 76.876 76.876)
  1 by 1 by 1 MPI processor grid
  reading atoms ...
  252 atoms
  reading velocities ...
  252 velocities
  scanning bonds ...
  3 = max bonds/atom
  scanning angles ...
  6 = max angles/atom
  scanning dihedrals ...
  18 = max dihedrals/atom
  reading bonds ...
  251 bonds
  reading angles ...
  498 angles
  reading dihedrals ...
  738 dihedrals
  4 = max # of 1-2 neighbors
  9 = max # of 1-3 neighbors
  18 = max # of 1-4 neighbors
  22 = max # of special neighbors
  special bonds CPU = 0.000369072 secs
  read_data CPU = 0.00548005 secs
################################################################################

timestep        1
fix             pysimm_md all nve/limit 0.1
run             2000
PPPM initialization ...
WARNING: System is not charge neutral, net charge = -2.8e-05 (../kspace.cpp:313)
  using 12-bit tables for long-range coulomb (../kspace.cpp:332)
  G vector (1/distance) = 0.14107
  grid = 24 24 24
  stencil order = 5
  estimated absolute RMS force accuracy = 0.0015133
  estimated relative force accuracy = 4.55725e-06
  using double precision KISS FFT
  3d grid and FFT values/proc = 24389 13824
Neighbor list info ...
  update every 1 steps, delay 10 steps, check yes
  max neighbors/atom: 2000, page size: 100000
  master list distance cutoff = 14
  ghost atom cutoff = 14
  binsize = 7, bins = 22 22 22
  1 neighbor lists, perpetual/occasional/extra = 1 0 0
  (1) pair lj/cut/coul/long, perpetual
      attributes: half, newton on
      pair build: half/bin/newton
      stencil: half/bin/3d/newton
      bin: standard
Per MPI rank memory allocation (min/avg/max) = 17.41 | 17.41 | 17.41 Mbytes
Step Temp E_pair E_mol TotEng Press 
       0    385.30972 1.4069546e+09    1124.2953 1.406956e+09 1.0617072e+08 
    2000    499.25135   -84.534998    426.86396    715.86049    2.4285187 
Loop time of 6.99534 on 1 procs for 2000 steps with 252 atoms

Performance: 24.702 ns/day, 0.972 hours/ns, 285.905 timesteps/s
100.1% CPU use with 1 MPI tasks x no OpenMP threads

MPI task timing breakdown:
Section |  min time  |  avg time  |  max time  |%varavg| %total
---------------------------------------------------------------
Pair    | 0.95128    | 0.95128    | 0.95128    |   0.0 | 13.60
Bond    | 0.20485    | 0.20485    | 0.20485    |   0.0 |  2.93
Kspace  | 5.7647     | 5.7647     | 5.7647     |   0.0 | 82.41
Neigh   | 0.059098   | 0.059098   | 0.059098   |   0.0 |  0.84
Comm    | 0.0013657  | 0.0013657  | 0.0013657  |   0.0 |  0.02
Output  | 2.3842e-05 | 2.3842e-05 | 2.3842e-05 |   0.0 |  0.00
Modify  | 0.0090539  | 0.0090539  | 0.0090539  |   0.0 |  0.13
Other   |            | 0.004936   |            |       |  0.07

Nlocal:    252 ave 252 max 252 min
Histogram: 1 0 0 0 0 0 0 0 0 0
Nghost:    0 ave 0 max 0 min
Histogram: 1 0 0 0 0 0 0 0 0 0
Neighs:    23586 ave 23586 max 23586 min
Histogram: 1 0 0 0 0 0 0 0 0 0

Total # of neighbors = 23586
Ave neighs/atom = 93.5952
Ave special neighs/atom = 11.8016
Neighbor list builds = 102
Dangerous builds = 0
unfix pysimm_md
min_style cg
minimize 0.001 0.001 10000 100000
WARNING: Using 'neigh_modify every 1 delay 0 check yes' setting during minimization (../min.cpp:190)
PPPM initialization ...
  using 12-bit tables for long-range coulomb (../kspace.cpp:332)
  G vector (1/distance) = 0.14107
  grid = 24 24 24
  stencil order = 5
  estimated absolute RMS force accuracy = 0.0015133
  estimated relative force accuracy = 4.55725e-06
  using double precision KISS FFT
  3d grid and FFT values/proc = 24389 13824
Per MPI rank memory allocation (min/avg/max) = 18.54 | 18.54 | 18.54 Mbytes
Step Temp E_pair E_mol TotEng Press 
    2000    499.25135   -84.534998    426.86396    715.86049    2.4285187 
    2169    499.25135   -109.16297    117.97777    382.34633     4.803607 
Loop time of 1.51168 on 1 procs for 169 steps with 252 atoms

100.1% CPU use with 1 MPI tasks x no OpenMP threads

Minimization stats:
  Stopping criterion = linesearch alpha is zero
  Energy initial, next-to-last, final = 
         342.328958954      8.81479579024      8.81479579024
  Force two-norm initial, final = 561.996 5.94466
  Force max component initial, final = 111.737 0.871334
  Final line search alpha, max atom move = 2.68425e-10 2.33888e-10
  Iterations, force evaluations = 169 388

MPI task timing breakdown:
Section |  min time  |  avg time  |  max time  |%varavg| %total
---------------------------------------------------------------
Pair    | 0.31019    | 0.31019    | 0.31019    |   0.0 | 20.52
Bond    | 0.043153   | 0.043153   | 0.043153   |   0.0 |  2.85
Kspace  | 1.1529     | 1.1529     | 1.1529     |   0.0 | 76.26
Neigh   | 0.002418   | 0.002418   | 0.002418   |   0.0 |  0.16
Comm    | 0.00021148 | 0.00021148 | 0.00021148 |   0.0 |  0.01
Output  | 0          | 0          | 0          |   0.0 |  0.00
Modify  | 0          | 0          | 0          |   0.0 |  0.00
Other   |            | 0.002856   |            |       |  0.19

Nlocal:    252 ave 252 max 252 min
Histogram: 1 0 0 0 0 0 0 0 0 0
Nghost:    0 ave 0 max 0 min
Histogram: 1 0 0 0 0 0 0 0 0 0
Neighs:    23809 ave 23809 max 23809 min
Histogram: 1 0 0 0 0 0 0 0 0 0

Total # of neighbors = 23809
Ave neighs/atom = 94.4802
Ave special neighs/atom = 11.8016
Neighbor list builds = 4
Dangerous builds = 0
write_dump all custom pysimm.dump.tmp id q x y z vx vy vz
quit


################################################################################
##################################    Init    ##################################
################################################################################
units           real
atom_style      full
pair_style      lj/cut/coul/long 12.0  12.0
kspace_style    pppm 1e-4
bond_style      harmonic
angle_style     harmonic
dihedral_style  fourier
special_bonds   amber
pair_modify     mix arithmetic
read_data       temp.lmps
  orthogonal box = (-78.7987 -78.7987 -78.7987) to (78.7987 78.7987 78.7987)
  1 by 1 by 1 MPI processor grid
  reading atoms ...
  270 atoms
  reading velocities ...
  270 velocities
  scanning bonds ...
  3 = max bonds/atom
  scanning angles ...
  6 = max angles/atom
  scanning dihedrals ...
  18 = max dihedrals/atom
  reading bonds ...
  269 bonds
  reading angles ...
  534 angles
  reading dihedrals ...
  792 dihedrals
  4 = max # of 1-2 neighbors
  9 = max # of 1-3 neighbors
  18 = max # of 1-4 neighbors
  22 = max # of special neighbors
  special bonds CPU = 0.000352144 secs
  read_data CPU = 0.00557494 secs
################################################################################

timestep        1
fix             pysimm_md all nve/limit 0.1
run             2000
PPPM initialization ...
WARNING: System is not charge neutral, net charge = -3e-05 (../kspace.cpp:313)
  using 12-bit tables for long-range coulomb (../kspace.cpp:332)
  G vector (1/distance) = 0.142326
  grid = 25 25 25
  stencil order = 5
  estimated absolute RMS force accuracy = 0.00143135
  estimated relative force accuracy = 4.31046e-06
  using double precision KISS FFT
  3d grid and FFT values/proc = 27000 15625
Neighbor list info ...
  update every 1 steps, delay 10 steps, check yes
  max neighbors/atom: 2000, page size: 100000
  master list distance cutoff = 14
  ghost atom cutoff = 14
  binsize = 7, bins = 23 23 23
  1 neighbor lists, perpetual/occasional/extra = 1 0 0
  (1) pair lj/cut/coul/long, perpetual
      attributes: half, newton on
      pair build: half/bin/newton
      stencil: half/bin/3d/newton
      bin: standard
Per MPI rank memory allocation (min/avg/max) = 17.68 | 17.68 | 17.68 Mbytes
Step Temp E_pair E_mol TotEng Press 
       0    465.86044    6964760.8    1131.9393    6966266.3    488050.12 
    2000    429.46614   -91.863656    420.62789    673.12646    3.8917895 
Loop time of 7.75629 on 1 procs for 2000 steps with 270 atoms

Performance: 22.279 ns/day, 1.077 hours/ns, 257.855 timesteps/s
100.0% CPU use with 1 MPI tasks x no OpenMP threads

MPI task timing breakdown:
Section |  min time  |  avg time  |  max time  |%varavg| %total
---------------------------------------------------------------
Pair    | 1.1758     | 1.1758     | 1.1758     |   0.0 | 15.16
Bond    | 0.22013    | 0.22013    | 0.22013    |   0.0 |  2.84
Kspace  | 6.2771     | 6.2771     | 6.2771     |   0.0 | 80.93
Neigh   | 0.065449   | 0.065449   | 0.065449   |   0.0 |  0.84
Comm    | 0.0024116  | 0.0024116  | 0.0024116  |   0.0 |  0.03
Output  | 2.2173e-05 | 2.2173e-05 | 2.2173e-05 |   0.0 |  0.00
Modify  | 0.0099852  | 0.0099852  | 0.0099852  |   0.0 |  0.13
Other   |            | 0.005399   |            |       |  0.07

Nlocal:    270 ave 270 max 270 min
Histogram: 1 0 0 0 0 0 0 0 0 0
Nghost:    95 ave 95 max 95 min
Histogram: 1 0 0 0 0 0 0 0 0 0
Neighs:    29470 ave 29470 max 29470 min
Histogram: 1 0 0 0 0 0 0 0 0 0

Total # of neighbors = 29470
Ave neighs/atom = 109.148
Ave special neighs/atom = 11.8148
Neighbor list builds = 97
Dangerous builds = 0
unfix pysimm_md
min_style cg
minimize 0.001 0.001 10000 100000
[...]
WARNING: Using 'neigh_modify every 1 delay 0 check yes' setting during minimization (../min.cpp:190)
PPPM initialization ...
  using 12-bit tables for long-range coulomb (../kspace.cpp:332)
  G vector (1/distance) = 0.148178
  grid = 40 40 40
  stencil order = 5
  estimated absolute RMS force accuracy = 0.0010913
  estimated relative force accuracy = 3.28641e-06
  using double precision KISS FFT
  3d grid and FFT values/proc = 91125 64000
Per MPI rank memory allocation (min/avg/max) = 25.93 | 25.93 | 25.93 Mbytes
Step Temp E_pair E_mol TotEng Press 
    2000    150.03908   -353.64987    732.20624    756.47247   0.59988006 
    2174    150.03908   -405.82169     430.0485    402.14291    1.4058983 
Loop time of 6.97617 on 1 procs for 174 steps with 846 atoms

100.0% CPU use with 1 MPI tasks x no OpenMP threads

Minimization stats:
  Stopping criterion = linesearch alpha is zero
  Energy initial, next-to-last, final = 
         378.556367113      24.2268069984      24.2268069984
  Force two-norm initial, final = 633.016 6.75804
  Force max component initial, final = 118.34 0.809299
  Final line search alpha, max atom move = 1.82744e-10 1.47895e-10
  Iterations, force evaluations = 174 399

MPI task timing breakdown:
Section |  min time  |  avg time  |  max time  |%varavg| %total
---------------------------------------------------------------
Pair    | 1.5259     | 1.5259     | 1.5259     |   0.0 | 21.87
Bond    | 0.14555    | 0.14555    | 0.14555    |   0.0 |  2.09
Kspace  | 5.2913     | 5.2913     | 5.2913     |   0.0 | 75.85
Neigh   | 0.0056341  | 0.0056341  | 0.0056341  |   0.0 |  0.08
Comm    | 0.00037003 | 0.00037003 | 0.00037003 |   0.0 |  0.01
Output  | 0          | 0          | 0          |   0.0 |  0.00
Modify  | 0          | 0          | 0          |   0.0 |  0.00
Other   |            | 0.007356   |            |       |  0.11

Nlocal:    846 ave 846 max 846 min
Histogram: 1 0 0 0 0 0 0 0 0 0
Nghost:    41 ave 41 max 41 min
Histogram: 1 0 0 0 0 0 0 0 0 0
Neighs:    121413 ave 121413 max 121413 min
Histogram: 1 0 0 0 0 0 0 0 0 0

Total # of neighbors = 121413
Ave neighs/atom = 143.514
Ave special neighs/atom = 11.9409
Neighbor list builds = 2
Dangerous builds = 0
write_dump all custom pysimm.dump.tmp id q x y z vx vy vz
quit


################################################################################
##################################    Init    ##################################
################################################################################
units           real
atom_style      full
pair_style      lj/cut/coul/long 12.0  12.0
kspace_style    pppm 1e-4
bond_style      harmonic
angle_style     harmonic
dihedral_style  fourier
special_bonds   amber
pair_modify     mix arithmetic
read_data       temp.lmps
  orthogonal box = (-117.989 -117.989 -117.989) to (117.989 117.989 117.989)
  1 by 1 by 1 MPI processor grid
  reading atoms ...
  864 atoms
  reading velocities ...
  864 velocities
  scanning bonds ...
  3 = max bonds/atom
  scanning angles ...
  6 = max angles/atom
  scanning dihedrals ...
  18 = max dihedrals/atom
  reading bonds ...
  863 bonds
  reading angles ...
  1722 angles
  reading dihedrals ...
  2574 dihedrals
  4 = max # of 1-2 neighbors
  9 = max # of 1-3 neighbors
  18 = max # of 1-4 neighbors
  22 = max # of special neighbors
  special bonds CPU = 0.000744104 secs
  read_data CPU = 0.00971889 secs
################################################################################

timestep        1
fix             pysimm_md all nve/limit 0.1
run             2000
PPPM initialization ...
WARNING: System is not charge neutral, net charge = -9.6e-05 (../kspace.cpp:313)
  using 12-bit tables for long-range coulomb (../kspace.cpp:332)
  G vector (1/distance) = 0.147602
  grid = 40 40 40
  stencil order = 5
  estimated absolute RMS force accuracy = 0.00111821
  estimated relative force accuracy = 3.36745e-06
  using double precision KISS FFT
  3d grid and FFT values/proc = 91125 64000
Neighbor list info ...
  update every 1 steps, delay 10 steps, check yes
  max neighbors/atom: 2000, page size: 100000
  master list distance cutoff = 14
  ghost atom cutoff = 14
  binsize = 7, bins = 34 34 34
  1 neighbor lists, perpetual/occasional/extra = 1 0 0
  (1) pair lj/cut/coul/long, perpetual
      attributes: half, newton on
      pair build: half/bin/newton
      stencil: half/bin/3d/newton
      bin: standard
Per MPI rank memory allocation (min/avg/max) = 24.81 | 24.81 | 24.81 Mbytes
Step Temp E_pair E_mol TotEng Press 
       0    146.91468     665.7479    1452.4443    2496.1213     18.99685 
    2000    128.72104    -362.7304    702.68649    671.08311    1.2209022 
Loop time of 31.5451 on 1 procs for 2000 steps with 864 atoms

Performance: 5.478 ns/day, 4.381 hours/ns, 63.401 timesteps/s
100.1% CPU use with 1 MPI tasks x no OpenMP threads

MPI task timing breakdown:
Section |  min time  |  avg time  |  max time  |%varavg| %total
---------------------------------------------------------------
Pair    | 4.6832     | 4.6832     | 4.6832     |   0.0 | 14.85
Bond    | 0.66687    | 0.66687    | 0.66687    |   0.0 |  2.11
Kspace  | 25.911     | 25.911     | 25.911     |   0.0 | 82.14
Neigh   | 0.24718    | 0.24718    | 0.24718    |   0.0 |  0.78
Comm    | 0.0023184  | 0.0023184  | 0.0023184  |   0.0 |  0.01
Output  | 2.3842e-05 | 2.3842e-05 | 2.3842e-05 |   0.0 |  0.00
Modify  | 0.026461   | 0.026461   | 0.026461   |   0.0 |  0.08
Other   |            | 0.008373   |            |       |  0.03

Nlocal:    864 ave 864 max 864 min
Histogram: 1 0 0 0 0 0 0 0 0 0
Nghost:    0 ave 0 max 0 min
Histogram: 1 0 0 0 0 0 0 0 0 0
Neighs:    118325 ave 118325 max 118325 min
Histogram: 1 0 0 0 0 0 0 0 0 0

Total # of neighbors = 118325
Ave neighs/atom = 136.95
Ave special neighs/atom = 11.9421
Neighbor list builds = 91
Dangerous builds = 0
unfix pysimm_md
min_style cg
minimize 0.001 0.001 10000 100000
WARNING: Using 'neigh_modify every 1 delay 0 check yes' setting during minimization (../min.cpp:190)
PPPM initialization ...
  using 12-bit tables for long-range coulomb (../kspace.cpp:332)
  G vector (1/distance) = 0.147602
  grid = 40 40 40
  stencil order = 5
  estimated absolute RMS force accuracy = 0.00111821
  estimated relative force accuracy = 3.36745e-06
  using double precision KISS FFT
  3d grid and FFT values/proc = 91125 64000
Per MPI rank memory allocation (min/avg/max) = 25.93 | 25.93 | 25.93 Mbytes
Step Temp E_pair E_mol TotEng Press 
    2000    128.72104    -362.7304    702.68649    671.08311    1.2209022 
    2106    128.72104   -405.94231    439.18377    364.36849     1.009221 
Loop time of 3.55746 on 1 procs for 106 steps with 864 atoms

100.1% CPU use with 1 MPI tasks x no OpenMP threads

Minimization stats:
  Stopping criterion = energy tolerance
  Energy initial, next-to-last, final = 
         339.956086757      33.2567967437      33.2414684196
  Force two-norm initial, final = 581.76 6.89833
  Force max component initial, final = 102.925 1.0434
  Final line search alpha, max atom move = 0.0198198 0.02068
  Iterations, force evaluations = 106 212

MPI task timing breakdown:
Section |  min time  |  avg time  |  max time  |%varavg| %total
---------------------------------------------------------------
Pair    | 0.7563     | 0.7563     | 0.7563     |   0.0 | 21.26
Bond    | 0.076256   | 0.076256   | 0.076256   |   0.0 |  2.14
Kspace  | 2.7182     | 2.7182     | 2.7182     |   0.0 | 76.41
Neigh   | 0.0025809  | 0.0025809  | 0.0025809  |   0.0 |  0.07
Comm    | 0.00011349 | 0.00011349 | 0.00011349 |   0.0 |  0.00
Output  | 0          | 0          | 0          |   0.0 |  0.00
Modify  | 0          | 0          | 0          |   0.0 |  0.00
Other   |            | 0.004039   |            |       |  0.11

Nlocal:    864 ave 864 max 864 min
Histogram: 1 0 0 0 0 0 0 0 0 0
Nghost:    0 ave 0 max 0 min
Histogram: 1 0 0 0 0 0 0 0 0 0
Neighs:    118444 ave 118444 max 118444 min
Histogram: 1 0 0 0 0 0 0 0 0 0

Total # of neighbors = 118444
Ave neighs/atom = 137.088
Ave special neighs/atom = 11.9421
Neighbor list builds = 1
Dangerous builds = 0
write_dump all custom pysimm.dump.tmp id q x y z vx vy vz
quit


################################################################################
##################################    Init    ##################################
################################################################################
units           real
atom_style      full
pair_style      lj/cut/coul/long 12.0  12.0
kspace_style    pppm 1e-4
bond_style      harmonic
angle_style     harmonic
dihedral_style  fourier
special_bonds   amber
pair_modify     mix arithmetic
read_data       temp.lmps
  orthogonal box = (-118.82 -118.82 -118.82) to (118.82 118.82 118.82)
  1 by 1 by 1 MPI processor grid
  reading atoms ...
  882 atoms
  reading velocities ...
  882 velocities
  scanning bonds ...
  3 = max bonds/atom
  scanning angles ...
  6 = max angles/atom
  scanning dihedrals ...
  18 = max dihedrals/atom
  reading bonds ...
  881 bonds
  reading angles ...
  1758 angles
  reading dihedrals ...
  2628 dihedrals
  4 = max # of 1-2 neighbors
  9 = max # of 1-3 neighbors
  18 = max # of 1-4 neighbors
  22 = max # of special neighbors
  special bonds CPU = 0.000718117 secs
  read_data CPU = 0.00938201 secs
################################################################################

timestep        1
fix             pysimm_md all nve/limit 0.1
run             2000
PPPM initialization ...
WARNING: System is not charge neutral, net charge = -9.8e-05 (../kspace.cpp:313)
  using 12-bit tables for long-range coulomb (../kspace.cpp:332)
  G vector (1/distance) = 0.147039
  grid = 40 40 40
  stencil order = 5
  estimated absolute RMS force accuracy = 0.00114509
  estimated relative force accuracy = 3.44841e-06
  using double precision KISS FFT
  3d grid and FFT values/proc = 91125 64000
Neighbor list info ...
  update every 1 steps, delay 10 steps, check yes
  max neighbors/atom: 2000, page size: 100000
  master list distance cutoff = 14
  ghost atom cutoff = 14
  binsize = 7, bins = 34 34 34
  1 neighbor lists, perpetual/occasional/extra = 1 0 0
  (1) pair lj/cut/coul/long, perpetual
      attributes: half, newton on
      pair build: half/bin/newton
      stencil: half/bin/3d/newton
      bin: standard
Per MPI rank memory allocation (min/avg/max) = 24.81 | 24.81 | 24.81 Mbytes
Step Temp E_pair E_mol TotEng Press 
       0    126.09607    4393337.6    1451.6878    4395120.4     89812.47 
    2000    148.98998   -382.37493    798.33943    807.22613  -0.36705716 
Loop time of 31.1412 on 1 procs for 2000 steps with 882 atoms

Performance: 5.549 ns/day, 4.325 hours/ns, 64.224 timesteps/s
100.0% CPU use with 1 MPI tasks x no OpenMP threads

MPI task timing breakdown:
Section |  min time  |  avg time  |  max time  |%varavg| %total
---------------------------------------------------------------
Pair    | 4.6321     | 4.6321     | 4.6321     |   0.0 | 14.87
Bond    | 0.66842    | 0.66842    | 0.66842    |   0.0 |  2.15
Kspace  | 25.515     | 25.515     | 25.515     |   0.0 | 81.93
Neigh   | 0.28894    | 0.28894    | 0.28894    |   0.0 |  0.93
Comm    | 0.0023963  | 0.0023963  | 0.0023963  |   0.0 |  0.01
Output  | 2.2888e-05 | 2.2888e-05 | 2.2888e-05 |   0.0 |  0.00
Modify  | 0.026464   | 0.026464   | 0.026464   |   0.0 |  0.08
Other   |            | 0.007643   |            |       |  0.02

Nlocal:    882 ave 882 max 882 min
Histogram: 1 0 0 0 0 0 0 0 0 0
Nghost:    0 ave 0 max 0 min
Histogram: 1 0 0 0 0 0 0 0 0 0
Neighs:    122165 ave 122165 max 122165 min
Histogram: 1 0 0 0 0 0 0 0 0 0

Total # of neighbors = 122165
Ave neighs/atom = 138.509
Ave special neighs/atom = 11.9433
Neighbor list builds = 106
Dangerous builds = 0
unfix pysimm_md
min_style cg
minimize 0.001 0.001 10000 100000
WARNING: Using 'neigh_modify every 1 delay 0 check yes' setting during minimization (../min.cpp:190)
PPPM initialization ...
  using 12-bit tables for long-range coulomb (../kspace.cpp:332)
  G vector (1/distance) = 0.147039
  grid = 40 40 40
  stencil order = 5
  estimated absolute RMS force accuracy = 0.00114509
  estimated relative force accuracy = 3.44841e-06
  using double precision KISS FFT
  3d grid and FFT values/proc = 91125 64000
Per MPI rank memory allocation (min/avg/max) = 25.94 | 25.94 | 25.94 Mbytes
Step Temp E_pair E_mol TotEng Press 
    2000    148.98998   -382.37493    798.33943    807.22613  -0.36705716 
    2122    148.98998   -413.81446    462.91161    440.35879    1.2302449 
Loop time of 4.12196 on 1 procs for 122 steps with 882 atoms

100.0% CPU use with 1 MPI tasks x no OpenMP threads

Minimization stats:
  Stopping criterion = energy tolerance
  Energy initial, next-to-last, final = 
         415.964492747      49.1398352442      49.0971490333
  Force two-norm initial, final = 634.823 9.76967
  Force max component initial, final = 105.861 1.14977
  Final line search alpha, max atom move = 0.0120692 0.0138768
  Iterations, force evaluations = 122 244

MPI task timing breakdown:
Section |  min time  |  avg time  |  max time  |%varavg| %total
---------------------------------------------------------------
Pair    | 0.89499    | 0.89499    | 0.89499    |   0.0 | 21.71
Bond    | 0.089253   | 0.089253   | 0.089253   |   0.0 |  2.17
Kspace  | 3.1275     | 3.1275     | 3.1275     |   0.0 | 75.87
Neigh   | 0.0053852  | 0.0053852  | 0.0053852  |   0.0 |  0.13
Comm    | 0.00014067 | 0.00014067 | 0.00014067 |   0.0 |  0.00
Output  | 0          | 0          | 0          |   0.0 |  0.00
Modify  | 0          | 0          | 0          |   0.0 |  0.00
Other   |            | 0.004719   |            |       |  0.11

Nlocal:    882 ave 882 max 882 min
Histogram: 1 0 0 0 0 0 0 0 0 0
Nghost:    0 ave 0 max 0 min
Histogram: 1 0 0 0 0 0 0 0 0 0
Neighs:    122602 ave 122602 max 122602 min
Histogram: 1 0 0 0 0 0 0 0 0 0

Total # of neighbors = 122602
Ave neighs/atom = 139.005
Ave special neighs/atom = 11.9433
Neighbor list builds = 2
Dangerous builds = 0
write_dump all custom pysimm.dump.tmp id q x y z vx vy vz
quit


################################################################################
##################################    Init    ##################################
################################################################################
units           real
atom_style      full
pair_style      lj/cut/coul/long 12.0  12.0
kspace_style    pppm 1e-4
bond_style      harmonic
angle_style     harmonic
dihedral_style  fourier
special_bonds   amber
pair_modify     mix arithmetic
read_data       temp.lmps
  orthogonal box = (-119.64 -119.64 -119.64) to (119.64 119.64 119.64)
  1 by 1 by 1 MPI processor grid
  reading atoms ...
  900 atoms
  reading velocities ...
  900 velocities
  scanning bonds ...
  3 = max bonds/atom
  scanning angles ...
  6 = max angles/atom
  scanning dihedrals ...
  18 = max dihedrals/atom
  reading bonds ...
  899 bonds
  reading angles ...
  1794 angles
  reading dihedrals ...
  2682 dihedrals
  4 = max # of 1-2 neighbors
  9 = max # of 1-3 neighbors
  18 = max # of 1-4 neighbors
  22 = max # of special neighbors
  special bonds CPU = 0.000760794 secs
  read_data CPU = 0.00996709 secs
################################################################################

timestep        1
fix             pysimm_md all nve/limit 0.1
run             2000
PPPM initialization ...
WARNING: System is not charge neutral, net charge = -0.0001 (../kspace.cpp:313)
  using 12-bit tables for long-range coulomb (../kspace.cpp:332)
  G vector (1/distance) = 0.146488
  grid = 40 40 40
  stencil order = 5
  estimated absolute RMS force accuracy = 0.00117194
  estimated relative force accuracy = 3.52927e-06
  using double precision KISS FFT
  3d grid and FFT values/proc = 91125 64000
Neighbor list info ...
  update every 1 steps, delay 10 steps, check yes
  max neighbors/atom: 2000, page size: 100000
  master list distance cutoff = 14
  ghost atom cutoff = 14
  binsize = 7, bins = 35 35 35
  1 neighbor lists, perpetual/occasional/extra = 1 0 0
  (1) pair lj/cut/coul/long, perpetual
      attributes: half, newton on
      pair build: half/bin/newton
      stencil: half/bin/3d/newton
      bin: standard
Per MPI rank memory allocation (min/avg/max) = 24.83 | 24.83 | 24.83 Mbytes
Step Temp E_pair E_mol TotEng Press 
       0    146.01172    2903.1754    1482.3127    4776.7627    63.139706 
    2000    115.59213   -401.47406    782.92185    691.20559  -0.30893151 
Loop time of 30.7306 on 1 procs for 2000 steps with 900 atoms

Performance: 5.623 ns/day, 4.268 hours/ns, 65.082 timesteps/s
100.0% CPU use with 1 MPI tasks x no OpenMP threads

MPI task timing breakdown:
Section |  min time  |  avg time  |  max time  |%varavg| %total
---------------------------------------------------------------
Pair    | 4.7682     | 4.7682     | 4.7682     |   0.0 | 15.52
Bond    | 0.69018    | 0.69018    | 0.69018    |   0.0 |  2.25
Kspace  | 24.993     | 24.993     | 24.993     |   0.0 | 81.33
Neigh   | 0.24063    | 0.24063    | 0.24063    |   0.0 |  0.78
Comm    | 0.0021458  | 0.0021458  | 0.0021458  |   0.0 |  0.01
Output  | 2.3842e-05 | 2.3842e-05 | 2.3842e-05 |   0.0 |  0.00
Modify  | 0.028417   | 0.028417   | 0.028417   |   0.0 |  0.09
Other   |            | 0.008315   |            |       |  0.03

Nlocal:    900 ave 900 max 900 min
Histogram: 1 0 0 0 0 0 0 0 0 0
Nghost:    0 ave 0 max 0 min
Histogram: 1 0 0 0 0 0 0 0 0 0
Neighs:    127005 ave 127005 max 127005 min
Histogram: 1 0 0 0 0 0 0 0 0 0

Total # of neighbors = 127005
Ave neighs/atom = 141.117
Ave special neighs/atom = 11.9444
Neighbor list builds = 85
Dangerous builds = 0
unfix pysimm_md
min_style cg
minimize 0.001 0.001 10000 100000
WARNING: Using 'neigh_modify every 1 delay 0 check yes' setting during minimization (../min.cpp:190)
PPPM initialization ...
  using 12-bit tables for long-range coulomb (../kspace.cpp:332)
  G vector (1/distance) = 0.146488
  grid = 40 40 40
  stencil order = 5
  estimated absolute RMS force accuracy = 0.00117194
  estimated relative force accuracy = 3.52927e-06
  using double precision KISS FFT
  3d grid and FFT values/proc = 91125 64000
Per MPI rank memory allocation (min/avg/max) = 25.96 | 25.96 | 25.96 Mbytes
Step Temp E_pair E_mol TotEng Press 
    2000    115.59213   -401.47406    782.92185    691.20559  -0.30893151 
    2128    115.59213   -423.83715    469.13553    355.05618   0.81657861 
Loop time of 4.41314 on 1 procs for 128 steps with 900 atoms

99.8% CPU use with 1 MPI tasks x no OpenMP threads

Minimization stats:
  Stopping criterion = energy tolerance
  Energy initial, next-to-last, final = 
         381.447790105      45.3345008863      45.2983810488
  Force two-norm initial, final = 605.886 9.6415
  Force max component initial, final = 100.535 1.28458
  Final line search alpha, max atom move = 0.00893479 0.0114775
  Iterations, force evaluations = 128 256

MPI task timing breakdown:
Section |  min time  |  avg time  |  max time  |%varavg| %total
---------------------------------------------------------------
Pair    | 0.99819    | 0.99819    | 0.99819    |   0.0 | 22.62
Bond    | 0.096406   | 0.096406   | 0.096406   |   0.0 |  2.18
Kspace  | 3.3075     | 3.3075     | 3.3075     |   0.0 | 74.95
Neigh   | 0.0058467  | 0.0058467  | 0.0058467  |   0.0 |  0.13
Comm    | 0.00016427 | 0.00016427 | 0.00016427 |   0.0 |  0.00
Output  | 0          | 0          | 0          |   0.0 |  0.00
Modify  | 0          | 0          | 0          |   0.0 |  0.00
Other   |            | 0.005029   |            |       |  0.11

Nlocal:    900 ave 900 max 900 min
Histogram: 1 0 0 0 0 0 0 0 0 0
Nghost:    0 ave 0 max 0 min
Histogram: 1 0 0 0 0 0 0 0 0 0
Neighs:    127833 ave 127833 max 127833 min
Histogram: 1 0 0 0 0 0 0 0 0 0

Total # of neighbors = 127833
Ave neighs/atom = 142.037
Ave special neighs/atom = 11.9444
Neighbor list builds = 2
Dangerous builds = 0
write_dump all custom pysimm.dump.tmp id q x y z vx vy vz
quit
