pySIMM System Object

300 atoms
299 bonds
594 angles
885 dihedrals
0 impropers

4 atom types
4 bond types
7 angle types
4 dihedral types

-109.224802 109.224802 xlo xhi
-109.224802 109.224802 ylo yhi
-109.224802 109.224802 zlo zhi

Masses

   1	12.01	# c3
   2	1.008	# hc
   3	19.0	# f
   4	1.008	# h2

Pair Coeffs

   1	0.1094	3.3996695084235347	# c3
   2	0.0157	2.649532787749369	# hc
   3	0.061	3.1181455134911875	# f
   4	0.0157	2.2931733004932333	# h2

Bond Coeffs

   1	330.6	1.0969	# c3,hc
   2	356.9	1.3497	# c3,f
   3	331.7	1.0961	# c3,h2
   4	300.9	1.5375	# c3,c3

Angle Coeffs

   1	51.15	108.79	# f,c3,h2
   2	46.34	109.8	# c3,c3,hc
   3	66.11	109.24	# c3,c3,f
   4	39.4	107.58	# hc,c3,hc
   5	46.25	110.22	# c3,c3,h2
   6	70.89	107.36	# f,c3,f
   7	62.86	111.51	# c3,c3,c3

Dihedral Coeffs

   1	2	0.0	3	0	0.19	1	0	# hc,c3,c3,f
   2	1	0.15555555555555556	3	0	# X,c3,c3,X
   3	1	0.16	3	0	# hc,c3,c3,c3
   4	3	0.18	3	0	0.25	2	180	0.2	1	180	# c3,c3,c3,c3

Atoms

   1	1	1	0.070548	-43.9123	-6.34231	21.5287
   2	1	1	0.506757	-43.8107	-7.26632	22.7577
   3	1	2	-0.012767	-43.5539	-5.33564	21.7831
   4	1	2	-0.014806	-43.2544	-6.72335	20.7382
   5	1	3	-0.274996	-42.8881	-6.78317	23.618
   6	1	3	-0.274736	-43.3941	-8.49603	22.3831
   7	1	1	0.070548	-45.6309	-5.1584	19.9617
   8	1	1	0.506757	-45.3719	-6.25841	21.0294
   9	1	2	-0.012767	-45.2074	-4.21761	20.3399
  10	1	2	-0.014806	-46.7088	-4.96648	19.8915
  11	1	3	-0.274996	-46.165	-5.98704	22.0907
  12	1	3	-0.274736	-45.7643	-7.46854	20.5804
  13	1	1	0.070548	-45.6789	-6.55072	17.6856
  14	1	1	0.506757	-45.0579	-5.40712	18.5367
  15	1	2	-0.012767	-45.3781	-7.51709	18.1079
  16	1	2	-0.014806	-45.2185	-6.51191	16.6887
  17	1	3	-0.274996	-45.1443	-4.24994	17.8438
  18	1	3	-0.274736	-43.7299	-5.63315	18.622
  19	1	1	0.070548	-47.7648	-7.42174	16.3694
  20	1	1	0.506757	-47.2226	-6.51863	17.5099
  21	1	2	-0.012767	-48.8587	-7.35217	16.3736
  22	1	2	-0.014806	-47.4549	-6.99636	15.4047
  23	1	3	-0.274996	-47.631	-5.25947	17.2421
  24	1	3	-0.274736	-47.8361	-6.85367	18.6647
  25	1	1	0.070548	-48.1073	-9.80361	15.4063
  26	1	1	0.506757	-47.3238	-8.91259	16.4073
  27	1	2	-0.012767	-47.4625	-10.6211	15.0626
  28	1	2	-0.014806	-48.3006	-9.20854	14.5029
  29	1	3	-0.274996	-46.0202	-8.98093	16.0582
  30	1	3	-0.274736	-47.3967	-9.41987	17.6555
  31	1	1	0.070548	-49.4234	-11.5775	16.9042
  32	1	1	0.506757	-49.4622	-10.3785	15.9133
  33	1	2	-0.012767	-49.1319	-11.232	17.9045
  34	1	2	-0.014806	-50.4532	-11.9424	17.0218
  35	1	3	-0.274996	-50.1837	-9.39506	16.492
  36	1	3	-0.274736	-50.1941	-10.7366	14.8345
  37	1	1	0.070548	-48.9585	-14.0635	17.2476
  38	1	1	0.506757	-48.5229	-12.7745	16.5008
  39	1	2	-0.012767	-49.0122	-13.8313	18.3205
  40	1	2	-0.014806	-49.9898	-14.3116	16.9669
  41	1	3	-0.274996	-48.5746	-12.9683	15.166
  42	1	3	-0.274736	-47.2382	-12.481	16.7931
  43	1	1	0.070548	-47.6173	-15.7426	15.6442
  44	1	1	0.506757	-48.0486	-15.3153	17.0764
  45	1	2	-0.012767	-46.8885	-16.5528	15.7663
  46	1	2	-0.014806	-47.0599	-14.9286	15.1647
  47	1	3	-0.274996	-48.6657	-16.358	17.6749
  48	1	3	-0.274736	-46.9247	-15.1227	17.8022
  49	1	1	0.070548	-48.3436	-16.2839	13.1965
  50	1	1	0.506757	-48.7462	-16.2452	14.6971
  51	1	2	-0.012767	-47.9345	-15.2993	12.9296
  52	1	2	-0.014806	-49.2538	-16.3887	12.5895
  53	1	3	-0.274996	-49.1747	-17.4648	15.0845
  54	1	3	-0.274736	-49.8313	-15.4477	14.7895
  55	1	1	0.070548	-47.949	-18.8126	12.6529
  56	1	1	0.506757	-47.3349	-17.3811	12.7495
  57	1	2	-0.012767	-48.1102	-19.1991	13.6665
  58	1	2	-0.014806	-48.9457	-18.7489	12.196
  59	1	3	-0.274996	-46.8592	-16.9843	11.5501
  60	1	3	-0.274736	-46.2679	-17.3903	13.5748
  61	1	1	0.070548	-47.7714	-21.2639	11.8845
  62	1	1	0.506757	-47.1034	-19.8584	11.8708
  63	1	2	-0.012767	-48.0461	-21.5242	12.9157
  64	1	2	-0.014806	-48.7204	-21.2021	11.3349
  65	1	3	-0.274996	-45.8632	-19.9256	12.4005
  66	1	3	-0.274736	-46.9832	-19.4624	10.5852
  67	1	1	0.070548	-47.7408	-23.7209	11.1055
  68	1	1	0.506757	-46.9116	-22.4195	11.2928
  69	1	2	-0.012767	-47.9674	-24.1347	12.0977
  70	1	2	-0.014806	-48.7137	-23.4681	10.6619
  71	1	3	-0.274996	-45.8982	-22.6855	12.1462
  72	1	3	-0.274736	-46.3524	-22.0601	10.1187
  73	1	1	0.070548	-45.6281	-25.194	10.6544
  74	1	1	0.506757	-47.0814	-24.8343	10.2393
  75	1	2	-0.012767	-44.9698	-24.3595	10.3819
  76	1	2	-0.014806	-45.5803	-25.276	11.7487
  77	1	3	-0.274996	-47.8725	-25.9259	10.3277
  78	1	3	-0.274736	-47.1158	-24.4573	8.94102
  79	1	1	0.070548	-43.4968	-26.5037	10.2084
  80	1	1	0.506757	-45.041	-26.4939	10.0443
  81	1	2	-0.012767	-43.2526	-26.2581	11.2513
  82	1	2	-0.014806	-43.0817	-25.6828	9.60744
  83	1	3	-0.274996	-45.5773	-27.5683	10.6621
  84	1	3	-0.274736	-45.3582	-26.5885	8.73606
  85	1	1	0.070548	-43.0511	-28.3095	8.38148
  86	1	1	0.506757	-42.7574	-27.8135	9.82191
  87	1	2	-0.012767	-44.028	-28.812	8.37256
  88	1	2	-0.014806	-43.1522	-27.4333	7.72718
  89	1	3	-0.274996	-43.0547	-28.7864	10.7109
  90	1	3	-0.274736	-41.4345	-27.5804	9.97801
  91	1	1	0.070548	-41.6213	-30.4991	8.58891
  92	1	1	0.506757	-41.9993	-29.2508	7.73818
  93	1	2	-0.012767	-41.1666	-30.1691	9.53132
  94	1	2	-0.014806	-42.5465	-31.02	8.87082
  95	1	3	-0.274996	-40.9059	-28.5205	7.42972
  96	1	3	-0.274736	-42.5182	-29.641	6.55425
  97	1	1	0.070548	-39.1794	-31.0159	7.8465
  98	1	1	0.506757	-40.6475	-31.5196	7.92791
  99	1	2	-0.012767	-39.1255	-30.0584	7.32581
 100	1	2	-0.014806	-38.8472	-30.7883	8.86876
 101	1	3	-0.274996	-41.1008	-31.9032	6.7176
 102	1	3	-0.274736	-40.6849	-32.6355	8.68719
 103	1	1	0.070548	-38.2807	-32.3402	5.69848
 104	1	1	0.506757	-38.1381	-31.9774	7.20818
 105	1	2	-0.012767	-37.4817	-33.0428	5.42845
 106	1	2	-0.014806	-39.2015	-32.9169	5.55064
 107	1	3	-0.274996	-38.0891	-33.1285	7.9109
 108	1	3	-0.274736	-36.9302	-31.4104	7.41115
 109	1	1	0.070548	-36.9924	-30.275	4.61729
 110	1	1	0.506757	-38.2692	-31.1618	4.68367
 111	1	2	-0.012767	-37.1758	-29.4874	3.87248
 112	1	2	-0.014806	-36.8675	-29.7372	5.56554
 113	1	3	-0.274996	-38.5333	-31.6578	3.45463
 114	1	3	-0.274736	-39.3143	-30.3438	4.93091
 115	1	1	0.070548	-34.5619	-29.9289	3.96115
 116	1	1	0.506757	-35.6607	-30.9837	4.24179
 117	1	2	-0.012767	-34.8552	-29.3597	3.06916
 118	1	2	-0.014806	-34.5641	-29.2018	4.7866
 119	1	3	-0.274996	-35.8442	-31.7449	3.14465
 120	1	3	-0.274736	-35.2643	-31.8111	5.22853
 121	1	1	0.070548	-32.8759	-31.5025	2.66841
 122	1	1	0.506757	-33.1033	-30.4344	3.77664
 123	1	2	-0.012767	-33.1481	-31.0662	1.6974
 124	1	2	-0.014806	-33.5591	-32.3447	2.82254
 125	1	3	-0.274996	-32.6108	-30.8552	4.96004
 126	1	3	-0.274736	-32.3884	-29.3306	3.46313
 127	1	1	0.070548	-30.278	-31.0734	2.56109
 128	1	1	0.506757	-31.4435	-32.105	2.57025
 129	1	2	-0.012767	-30.137	-30.6891	3.58067
 130	1	2	-0.014806	-30.5707	-30.211	1.94853
 131	1	3	-0.274996	-31.4238	-32.8502	1.4425
 132	1	3	-0.274736	-31.2699	-32.975	3.58921
 133	1	1	0.070548	-27.7965	-30.536	2.27882
 134	1	1	0.506757	-28.9091	-31.5918	2.04283
 135	1	2	-0.012767	-27.5306	-30.5399	3.34485
 136	1	2	-0.014806	-28.206	-29.5354	2.08326
 137	1	3	-0.274996	-29.001	-31.879	0.727248
 138	1	3	-0.274736	-28.5714	-32.7314	2.68298
 139	1	1	0.070548	-25.8254	-32.0991	1.56252
 140	1	1	0.506757	-26.4988	-30.7025	1.44263
 141	1	2	-0.012767	-26.4988	-32.8426	1.11727
 142	1	2	-0.014806	-25.7638	-32.383	2.61954
 143	1	3	-0.274996	-26.7526	-30.3969	0.15167
 144	1	3	-0.274736	-25.6537	-29.7396	1.86851
 145	1	1	0.070548	-23.2508	-31.3484	1.28294
 146	1	1	0.506757	-24.4366	-32.2729	0.872271
 147	1	2	-0.012767	-23.4768	-30.3135	1.00204
 148	1	2	-0.014806	-22.3871	-31.6135	0.658904
 149	1	3	-0.274996	-24.6037	-32.1404	-0.463322
 150	1	3	-0.274736	-24.0559	-33.558	1.04229
 151	1	1	0.070548	-21.7799	-30.2553	3.05635
 152	1	1	0.506757	-22.7934	-31.395	2.76639
 153	1	2	-0.012767	-22.2634	-29.2951	2.8275
 154	1	2	-0.014806	-20.9514	-30.3423	2.34053
 155	1	3	-0.274996	-22.2346	-32.5919	3.0387
 156	1	3	-0.274736	-23.8614	-31.2625	3.57621
 157	1	1	0.070548	-22.2264	-30.1035	5.64245
 158	1	1	0.506757	-21.1819	-30.1826	4.49051
 159	1	2	-0.012767	-23.0009	-29.377	5.35138
 160	1	2	-0.014806	-22.7374	-31.0668	5.74641
 161	1	3	-0.274996	-20.3927	-29.0885	4.51314
 162	1	3	-0.274736	-20.3442	-31.2226	4.67729
 163	1	1	0.070548	-20.5767	-30.5536	7.69133
 164	1	1	0.506757	-21.6957	-29.6869	7.04358
 165	1	2	-0.012767	-20.2663	-30.0421	8.61388
 166	1	2	-0.014806	-19.6887	-30.5421	7.04698
 167	1	3	-0.274996	-21.2437	-28.4125	6.9932
 168	1	3	-0.274736	-22.756	-29.6134	7.8793
 169	1	1	0.070548	-19.7529	-32.6381	8.87783
 170	1	1	0.506757	-20.9211	-32.0228	8.05854
 171	1	2	-0.012767	-19.3813	-31.8826	9.58059
 172	1	2	-0.014806	-18.9186	-32.8451	8.19439
 173	1	3	-0.274996	-21.1024	-32.7458	6.93364
 174	1	3	-0.274736	-22.0805	-32.0792	8.74275
 175	1	1	0.070548	-18.8253	-34.603	10.3086
 176	1	1	0.506757	-20.0743	-33.9269	9.67841
 177	1	2	-0.012767	-18.1494	-34.908	9.49843
 178	1	2	-0.014806	-19.1473	-35.5384	10.7882
 179	1	3	-0.274996	-20.6502	-34.8379	8.8636
 180	1	3	-0.274736	-20.9797	-33.6802	10.6499
 181	1	1	0.070548	-17.0333	-34.6917	12.1187
 182	1	1	0.506757	-18.007	-33.7684	11.3361
 183	1	2	-0.012767	-17.6129	-35.5089	12.571
 184	1	2	-0.014806	-16.3677	-35.1762	11.3862
 185	1	3	-0.274996	-18.8214	-33.1205	12.1945
 186	1	3	-0.274736	-17.3041	-32.8195	10.6761
 187	1	1	0.070548	-16.9631	-33.5105	14.4533
 188	1	1	0.506757	-16.16	-34.0514	13.2333
 189	1	2	-0.012767	-17.3262	-32.5059	14.2073
 190	1	2	-0.014806	-17.8538	-34.137	14.5959
 191	1	3	-0.274996	-15.3998	-33.0648	12.7088
 192	1	3	-0.274736	-15.2946	-35.0194	13.6138
 193	1	1	0.070548	-16.7601	-32.5202	16.8923
 194	1	1	0.506757	-16.1781	-33.4545	15.7941
 195	1	2	-0.012767	-16.1419	-32.6512	17.7878
 196	1	2	-0.014806	-16.6098	-31.4782	16.5801
 197	1	3	-0.274996	-14.9172	-33.0231	15.5667
 198	1	3	-0.274736	-16.0691	-34.701	16.2999
 199	1	1	0.070548	-18.7705	-31.7717	18.4036
 200	1	1	0.506757	-18.2606	-32.698	17.2582
 201	1	2	-0.012767	-18.4428	-30.745	18.1838
 202	1	2	-0.014806	-19.8665	-31.7413	18.3399
 203	1	3	-0.274996	-18.5572	-33.9829	17.5306
 204	1	3	-0.274736	-19.0018	-32.3769	16.1747
 205	1	1	0.070548	-19.2897	-33.2463	20.4896
 206	1	1	0.506757	-18.3992	-32.1267	19.8803
 207	1	2	-0.012767	-20.3301	-33.0435	20.2184
 208	1	2	-0.014806	-19.0393	-34.1951	19.9954
 209	1	3	-0.274996	-17.1003	-32.4677	19.9815
 210	1	3	-0.274736	-18.5404	-30.9888	20.6014
 211	1	1	0.070548	-19.7228	-32.3122	22.929
 212	1	1	0.506757	-19.2175	-33.4862	22.0309
 213	1	2	-0.012767	-20.557	-31.8019	22.43
 214	1	2	-0.014806	-18.9211	-31.5669	23.0199
 215	1	3	-0.274996	-17.9493	-33.7768	22.3909
 216	1	3	-0.274736	-19.94	-34.6028	22.2687
 217	1	1	0.070548	-20.4074	-31.4924	25.2858
 218	1	1	0.506757	-20.1686	-32.725	24.3654
 219	1	2	-0.012767	-21.2855	-30.9528	24.9055
 220	1	2	-0.014806	-19.5656	-30.7923	25.1884
 221	1	3	-0.274996	-21.3255	-33.4125	24.2856
 222	1	3	-0.274736	-19.2518	-33.5371	24.9331
 223	1	1	0.070548	-19.2763	-31.8216	27.5862
 224	1	1	0.506757	-20.6206	-31.7858	26.8057
 225	1	2	-0.012767	-18.5596	-32.4663	27.064
 226	1	2	-0.014806	-18.8393	-30.8114	27.5607
 227	1	3	-0.274996	-21.339	-32.9091	26.9962
 228	1	3	-0.274736	-21.3756	-30.7758	27.3
 229	1	1	0.070548	-17.9205	-32.1547	29.7191
 230	1	1	0.506757	-19.3282	-32.2689	29.0744
 231	1	2	-0.012767	-17.4196	-31.2476	29.3395
 232	1	2	-0.014806	-17.308	-32.9827	29.3445
 233	1	3	-0.274996	-20.2295	-31.5389	29.7616
 234	1	3	-0.274736	-19.7099	-33.5628	29.1592
 235	1	1	0.070548	-16.4716	-32.6656	31.7716
 236	1	1	0.506757	-17.8408	-32.1273	31.2703
 237	1	2	-0.012767	-16.535	-33.7554	31.8547
 238	1	2	-0.014806	-15.7213	-32.5115	30.9896
 239	1	3	-0.274996	-18.041	-30.8577	31.6719
 240	1	3	-0.274736	-18.814	-32.8634	31.8467
 241	1	1	0.070548	-16.8323	-32.0162	34.3258
 242	1	1	0.506757	-15.9082	-32.0406	33.0832
 243	1	2	-0.012767	-16.3823	-31.3672	35.093
 244	1	2	-0.014806	-17.7699	-31.5142	34.0586
 245	1	3	-0.274996	-14.7671	-32.6849	33.4029
 246	1	3	-0.274736	-15.5162	-30.774	32.8243
 247	1	1	0.070548	-18.5692	-33.3124	35.5966
 248	1	1	0.506757	-17.1413	-33.384	34.9944
 249	1	2	-0.012767	-18.6263	-32.441	36.2661
 250	1	2	-0.014806	-19.257	-33.1032	34.7641
 251	1	3	-0.274996	-17.0631	-34.4138	34.1305
 252	1	3	-0.274736	-16.2332	-33.6221	35.964
 253	1	1	0.070548	-18.3427	-34.9199	37.623
 254	1	1	0.506757	-19.1251	-34.5492	36.3395
 255	1	2	-0.012767	-17.4291	-35.4503	37.3141
 256	1	2	-0.014806	-17.967	-34.0061	38.0832
 257	1	3	-0.274996	-19.1746	-35.6243	35.5183
 258	1	3	-0.274736	-20.4017	-34.2118	36.6323
 259	1	1	0.070548	-18.9989	-35.2706	40.1324
 260	1	1	0.506757	-19.0866	-35.7924	38.6793
 261	1	2	-0.012767	-17.9505	-35.0543	40.38
 262	1	2	-0.014806	-19.2961	-36.083	40.7949
 263	1	3	-0.274996	-20.3762	-36.0662	38.4007
 264	1	3	-0.274736	-18.496	-37.0114	38.6748
 265	1	1	0.070548	-19.684	-33.6058	41.9726
 266	1	1	0.506757	-19.8611	-34.0354	40.4926
 267	1	2	-0.012767	-18.6204	-33.3416	42.1189
 268	1	2	-0.014806	-20.2357	-32.6715	42.1434
 269	1	3	-0.274996	-21.167	-34.2221	40.2379
 270	1	3	-0.274736	-19.4892	-32.9873	39.7278
 271	1	1	0.070548	-21.5009	-35.2551	43.0071
 272	1	1	0.506757	-20.0825	-34.6131	43.105
 273	1	2	-0.012767	-21.4687	-35.9994	42.197
 274	1	2	-0.014806	-22.2337	-34.4944	42.7113
 275	1	3	-0.274996	-19.1491	-35.5937	43.1668
 276	1	3	-0.274736	-19.929	-33.9127	44.2464
 277	1	1	0.070548	-23.5936	-36.2026	44.175
 278	1	1	0.506757	-22.043	-36.0067	44.2638
 279	1	2	-0.012767	-24.0472	-35.1966	44.1983
 280	1	2	-0.014806	-23.8669	-36.6398	43.1966
 281	1	3	-0.274996	-21.4095	-37.1933	44.3781
 282	1	3	-0.274736	-21.7768	-35.3427	45.4107
 283	1	1	0.070548	-23.7353	-38.443	45.6458
 284	1	1	0.506757	-24.3067	-37.0176	45.2969
 285	1	2	-0.012767	-23.0851	-38.8041	44.8406
 286	1	2	-0.014806	-23.094	-38.3692	46.5425
 287	1	3	-0.274996	-25.604	-37.0938	44.9222
 288	1	3	-0.274736	-24.315	-36.2848	46.436
 289	1	1	0.070548	-25.556	-39.4627	47.2602
 290	1	1	0.506757	-24.7677	-39.5845	45.9169
 291	1	2	-0.012767	-25.5341	-38.4112	47.5923
 292	1	2	-0.014806	-26.6247	-39.6702	47.0714
 293	1	3	-0.274996	-25.6383	-39.7154	44.8732
 294	1	3	-0.274736	-24.0775	-40.7504	45.8672
 295	1	1	0.070548	-25.4151	-41.8784	48.2342
 296	1	1	0.506757	-25.0629	-40.3811	48.414
 297	1	2	-0.012767	-24.7503	-42.3888	47.5379
 298	1	2	-0.014806	-25.3582	-42.4234	49.186
 299	1	3	-0.274996	-25.6597	-39.9849	49.5582
 300	1	3	-0.274736	-23.7335	-40.2211	48.6196

Velocities

   1	0.000768655	-0.000737204	0.000822476
   2	0.00119221	-0.000827368	0.000688294
   3	-0.00117944	-0.000475611	0.00204756
   4	0.00221614	0.00159358	0.000524937
   5	0.000953642	0.000540045	0.000760678
   6	0.00102861	-0.000691448	0.00100521
   7	0.00135571	-0.00166377	-0.000427901
   8	0.00179776	-0.00202423	-0.000507682
   9	-5.29831e-05	-0.000971014	-0.000324999
  10	0.000563607	-0.00221364	-0.00149503
  11	0.000563682	-0.00109879	-0.00131491
  12	0.00163298	-0.00176456	-0.000342168
  13	0.000595398	-0.00224492	-0.00015505
  14	0.00101202	-0.00165266	-0.000511342
  15	0.000107025	-0.00193028	-0.000106506
  16	-0.000437379	-0.00315882	-0.000641028
  17	0.000114502	-0.00158474	-0.000390879
  18	0.000906913	-0.00228857	0.000215705
  19	0.000250643	-0.00148899	0.000281107
  20	0.000386765	-0.00161423	0.000267537
  21	-0.00043773	-0.000714691	0.00204677
  22	-0.000876591	-0.00133507	-0.000137288
  23	0.000195177	-0.00168511	3.16951e-05
  24	0.000311554	-0.00120451	0.000119345
  25	0.000610399	-0.00199813	0.000231877
  26	6.10439e-05	-0.0012425	0.000137149
  27	0.000902089	-0.00259222	0.00168042
  28	0.00125269	-0.00290652	-0.000297421
  29	-0.000167258	-0.00231543	-0.000184111
  30	0.000285918	-0.00154607	-0.000322781
  31	-0.00109976	-0.00106563	-0.000474076
  32	-1.45925e-05	-0.000838435	-0.000153189
  33	-0.00230017	-0.00182923	-0.000452332
  34	-0.0010007	-0.00148571	-0.00303233
  35	0.000396028	-0.00125349	0.000569389
  36	-0.000466129	-0.00126803	-5.32586e-05
  37	-0.000529924	-0.00108076	-0.000333186
  38	-0.00064787	-0.00107622	3.20916e-06
  39	0.00120737	-0.00232085	0.000112285
  40	0.000134865	-0.000971351	-3.9574e-05
  41	0.000305554	-0.00103503	-1.53285e-05
  42	-0.000125573	-0.00139975	0.000838687
  43	0.000248573	-0.000854464	-0.000890627
  44	5.86233e-06	-0.000672799	-0.0017335
  45	0.00138694	-0.000481636	-0.000586459
  46	0.000208304	-0.002219	-0.00148803
  47	0.000406906	-0.000416244	-0.00155479
  48	0.000474735	-0.000397819	-0.00179025
  49	0.000556119	-0.00126902	-0.000383583
  50	-0.000296491	-0.000849865	-0.000988285
  51	-0.00023113	-0.000826813	-0.00063992
  52	-7.1726e-05	-0.00168074	0.000757215
  53	0.000250255	-0.000812238	-0.00125396
  54	-9.58601e-05	-0.000277126	-0.00159834
  55	0.000526797	-0.000617232	-0.00146082
  56	-0.000350787	-0.000883791	-0.000269919
  57	-0.00109443	-0.00150289	-0.000718723
  58	0.000949406	8.96261e-05	-0.00276652
  59	-0.000763457	0.000576572	-0.000585232
  60	-0.000517573	-0.000724324	-0.000385355
  61	0.000905336	-0.000523014	-4.87681e-05
  62	0.000882475	-0.000872046	-0.000943038
  63	0.00284988	-2.89137e-05	0.00175011
  64	-0.000467139	0.000151047	0.00163445
  65	0.00103911	-0.000594552	0.000353349
  66	0.00111389	-0.0013286	-0.00126823
  67	0.000318086	-0.000714948	-0.00101734
  68	0.000319796	-0.000437836	-0.00119914
  69	0.00122135	0.000673348	-0.000159838
  70	-0.00106983	-0.00066581	-0.000721659
  71	0.000757611	-0.000779219	-0.000908525
  72	0.000127424	-0.00116147	-0.00124742
  73	-0.000461069	-0.000132609	-6.62405e-05
  74	-4.42719e-05	-0.000394139	0.000120128
  75	0.00228262	0.000620962	0.00299377
  76	-0.00305213	-0.00187828	-0.00102111
  77	9.42903e-05	-0.000409413	-0.000627857
  78	0.0012162	-0.00118231	-0.000543825
  79	0.00114178	-0.000995905	0.000307665
  80	0.000529968	-0.000805254	4.26495e-05
  81	0.000258383	-0.00125199	-0.000722944
  82	0.00224839	-0.000384189	0.00120855
  83	0.000452616	-2.45555e-05	-0.000403518
  84	0.00163573	-0.000517471	0.000120153
  85	0.000246704	-0.00091763	-0.000133812
  86	0.000178142	-0.000414829	-0.000152146
  87	0.00129229	-0.00156361	-0.00162649
  88	0.000440152	-2.77394e-05	0.000319644
  89	0.00025568	-9.06729e-05	0.0010253
  90	0.00059687	-0.00136551	-0.000448874
  91	0.00129791	-0.000790895	-0.00112387
  92	0.00180081	-0.000321011	-0.000168783
  93	0.00122532	-0.000602407	-0.00113248
  94	0.00127324	-0.000212093	-0.00246083
  95	0.00227594	0.000121888	0.000248963
  96	0.00238777	3.3852e-05	-0.00159203
  97	0.00142167	0.00120839	-1.23067e-05
  98	0.00133993	-9.39671e-05	-0.000368467
  99	0.000189845	0.00224772	0.000166573
 100	0.00335309	0.00104687	0.00319032
 101	0.000385621	-0.000750989	-0.000179947
 102	0.000926386	0.000142463	0.000184736
 103	0.00109514	0.000646806	-0.000769324
 104	0.000634809	0.00043017	-0.00168916
 105	0.0014871	0.00306536	0.00411514
 106	0.00223066	0.000306268	-0.00203565
 107	0.000929867	0.00043597	-0.000872317
 108	0.000801344	-0.000470506	0.000337349
 109	0.00187912	-0.00153953	-0.0017911
 110	0.0012908	0.000810913	-0.001955
 111	0.00518026	-0.00549105	-0.00434819
 112	0.00414856	0.000275099	-0.00340678
 113	0.000420568	0.00164405	-0.00141761
 114	0.000526915	-0.00017209	-0.000619249
 115	0.000468595	-0.000266465	-0.00274923
 116	0.000598624	-0.00114601	-0.00178413
 117	0.00114921	0.000353175	-0.00259394
 118	0.000612791	-0.00225749	-0.000287407
 119	-0.00150466	-0.000892309	-0.00266494
 120	0.00139208	-0.00155891	-0.00199501
 121	0.00201557	0.00024704	-0.0015792
 122	0.00198332	0.000893126	-0.00312455
 123	0.000699191	-0.00186847	0.00194146
 124	0.00345423	-0.000969746	-0.00484805
 125	-0.00141306	0.000546682	-0.00132809
 126	0.00295385	0.000689556	-0.00203675
 127	0.000438343	0.000987198	0.000749214
 128	0.00057453	0.00176189	-0.00168001
 129	0.00148535	-0.000579272	0.000397143
 130	0.00575796	0.00113082	0.00367808
 131	-0.000902644	0.00392434	-0.00289912
 132	-0.0012416	-0.000394483	-0.00331607
 133	3.14929e-05	0.00285309	0.00138486
 134	0.00223619	0.002273	0.00162111
 135	0.00261604	0.00528301	0.000885476
 136	0.00251739	0.00633026	0.00187933
 137	0.000835577	0.00204751	0.00148817
 138	0.000793096	0.00249127	0.00322417
 139	-0.000127156	0.00449768	-0.00180514
 140	-0.00108519	0.00373024	-7.10994e-05
 141	0.00115028	0.00295644	-0.000130223
 142	0.00242454	0.00420551	0.00210363
 143	0.00024965	0.00536918	-0.000826281
 144	-0.000926454	0.00240622	-0.00155582
 145	3.48189e-05	0.00334512	0.00075188
 146	-0.000429689	0.000602587	-0.000333818
 147	-0.00291359	0.0018268	-0.00236816
 148	-0.00188468	0.0020319	0.000834832
 149	-0.000907218	-0.00250779	-0.00118368
 150	-0.00223943	0.00208671	0.00201857
 151	0.000219342	-0.000388464	0.00101143
 152	0.00189115	0.000290417	0.000478396
 153	0.00295285	-0.000343153	0.000939425
 154	0.00497368	-0.00673082	0.000149165
 155	-0.000907964	-0.00055867	-0.00177181
 156	0.000468065	0.00126061	0.000541766
 157	-6.04447e-06	0.00237558	0.0014444
 158	0.00345459	0.000955181	0.00219074
 159	0.00669226	0.00800248	-0.00376076
 160	-0.00842965	0.00803508	0.0030657
 161	0.00312556	-0.00105515	-0.00250676
 162	-0.000384834	-0.000356425	0.00214802
 163	0.00239813	-0.00155687	-0.000316256
 164	0.000589404	0.000411194	0.000677445
 165	0.00395822	0.00183091	-0.00520999
 166	-0.000677499	0.00473096	-0.00230557
 167	-0.00209289	0.00357858	0.000267415
 168	0.00352527	0.000842938	0.00118876
 169	0.00361838	0.00170395	-0.00364253
 170	0.0018875	-0.000964038	-0.00331936
 171	-0.00656826	0.00364566	-0.00599024
 172	0.00870486	-0.00294838	-0.00916058
 173	-0.000297947	0.000127538	0.000793946
 174	0.00285054	0.00221989	0.00317701
 175	0.00101722	0.00256034	0.0023037
 176	0.00285836	0.0028364	-0.00234687
 177	0.0047992	0.00583067	0.00752487
 178	0.00232627	-0.00072306	0.00220332
 179	0.00561658	0.00343483	-0.000585134
 180	-0.00205196	0.00439967	-0.00705545
 181	-0.000281303	-0.00203396	0.00105569
 182	-0.000282056	0.000955089	0.00313842
 183	-0.0150932	0.00525911	0.0129723
 184	-0.00606647	-0.00306864	0.00936581
 185	-0.000948425	0.00379595	0.00130178
 186	0.000650655	-0.000586154	0.00251088
 187	-0.00173762	0.00344923	0.00270516
 188	0.000472966	-0.00168959	0.00149954
 189	0.00290966	-0.00192932	-0.00594855
 190	0.00457109	0.00263122	0.004839
 191	-0.000398449	0.00131369	0.0001219
 192	-0.00111578	-0.000265	0.0042
 193	0.000269809	0.00477224	0.000202334
 194	-0.0015411	0.00265052	0.0027714
 195	-0.00191004	0.00399723	0.00440847
 196	-0.00231365	0.00224812	0.0138415
 197	-0.00570118	0.00389279	-0.00307627
 198	0.00279843	0.00232916	-0.0046832
 199	0.00325884	0.000361776	-0.0022176
 200	-0.00652133	0.00226426	0.00121776
 201	-0.0225079	-0.0177508	-0.0204492
 202	-0.0109701	-0.00635726	0.00356995
 203	-0.00205187	-6.11204e-05	-0.000671296
 204	-0.00564585	-0.00154742	0.00728623
 205	-1.18154e-05	0.00103863	-0.00181647
 206	0.0014799	-0.00110128	-0.00179841
 207	-0.0104601	-0.00381553	-0.0013501
 208	-0.00708213	0.00701889	0.00129961
 209	0.00257058	0.00179256	-0.00171649
 210	0.0017136	-0.00239672	-0.00313862
 211	0.00298315	0.000235182	-0.00556165
 212	-1.62129e-06	-0.0023872	-0.00331666
 213	-0.00574036	-0.0143448	0.00285897
 214	0.00613562	-0.00523141	0.022005
 215	0.000505016	0.000115827	-0.00383584
 216	0.00990411	0.00465185	0.00225785
 217	-0.000710266	0.00727717	0.00482126
 218	0.00216092	-0.00044245	0.00739554
 219	0.0127536	-0.00786382	-0.00678858
 220	-0.00730828	-0.0026208	-0.00621236
 221	-0.00161605	-0.00514327	0.00209362
 222	-0.00465857	0.00164969	-0.00136356
 223	0.00518834	-0.00337309	0.00380945
 224	0.00475788	-0.00164358	0.00129584
 225	-0.010212	0.0142562	-0.00872115
 226	-0.0153686	-0.0103435	0.0204076
 227	0.0018246	0.00759609	-0.00307989
 228	0.00327437	-0.00373338	0.00248861
 229	-0.00433895	-0.0136874	-0.00143533
 230	0.000130892	-0.00674843	0.00340229
 231	-0.00787703	0.000234629	0.00924045
 232	-0.000717076	-0.0342309	0.0141076
 233	-0.00279788	0.00692211	-0.000651895
 234	0.0129695	-0.00266247	0.00363225
 235	0.00559114	0.00603198	0.007188
 236	0.00407982	-0.00321101	0.00119105
 237	0.0218546	0.0078901	-0.0061769
 238	-0.030364	0.0141681	0.0104902
 239	0.00409884	-0.00215293	-0.00541066
 240	0.0086272	0.00212802	0.00850667
 241	0.00560584	0.0090874	-0.00576583
 242	0.00555518	-0.00240824	0.00659017
 243	0.0111724	0.0227467	0.0466855
 244	-0.0116794	-0.00555125	-0.00647681
 245	-0.000294116	-0.0102505	-0.00485881
 246	0.0122561	-0.00486875	-0.0025444
 247	0.0076711	-0.0021498	-0.00486851
 248	-0.00105542	0.000575313	0.00473488
 249	-0.00907149	0.0279306	-0.00274397
 250	-0.0125854	-0.00384271	-0.00630049
 251	-0.00103218	-0.00240774	-0.00557785
 252	-0.00875944	0.003153	-0.00140664
 253	0.014713	0.0126334	-0.0183634
 254	-0.00743686	-0.00519544	0.00190481
 255	-0.0347335	-0.00896171	-0.0198111
 256	-0.0022243	-0.0215953	-0.0143631
 257	0.00515935	-0.00556161	-0.00858743
 258	-0.0104551	0.0110069	0.00583033
 259	-0.00403597	0.00107235	0.00992065
 260	0.0127054	-0.00157228	-0.00635165
 261	0.0110317	-0.00757556	-0.0120984
 262	0.0163071	-0.0456763	-0.0144783
 263	0.00508213	0.00124664	0.00664499
 264	-0.0117658	0.00868624	-0.00109387
 265	-0.00830732	-0.00883138	-0.00190545
 266	-0.00132349	0.000489718	-0.00588545
 267	0.0214391	-0.0116086	-0.0270315
 268	0.00687863	0.0197114	-0.00525152
 269	-0.00249875	0.00512762	-0.00589982
 270	0.0007642	0.00164457	-3.19889e-05
 271	0.00644002	-0.00939399	0.00903714
 272	0.0129875	0.00122886	0.00144364
 273	0.00223899	-0.00338994	-0.0362609
 274	0.00319115	-0.0271358	-0.00986073
 275	0.00911219	-0.000845609	-0.00528099
 276	-0.00826671	0.00664353	0.0104028
 277	-0.0045242	0.00859535	-0.00324251
 278	-0.00731891	0.0103455	-0.00808769
 279	-0.00395006	0.0129297	0.0116192
 280	0.0125423	0.0194281	0.0187678
 281	-0.00790119	-0.00178027	-0.00278232
 282	-0.00331777	-0.00223453	0.00183959
 283	-0.00272912	0.000410531	-0.00388563
 284	-0.00207839	-0.00020809	0.00682594
 285	0.00310581	-8.13209e-05	0.0264748
 286	0.0497702	-0.0317158	0.0139358
 287	-0.00915516	-0.00768669	-0.0124177
 288	-0.00476531	0.000798528	0.00829666
 289	0.0226954	0.00272341	-0.0211093
 290	0.00980764	-0.00367508	-0.00161954
 291	0.00591775	0.0317702	0.0172335
 292	-0.0161022	-0.0463859	0.00344436
 293	-0.00757483	-0.00133547	0.00374438
 294	-0.00147735	0.00223275	0.000257706
 295	-0.0107982	0.00506083	0.00342539
 296	-0.0121957	-0.00502829	0.007926
 297	-0.0402496	0.000138065	-0.023516
 298	-0.026569	-0.00600042	-0.0131453
 299	-0.0109477	-0.00130021	0.00020299
 300	-0.0128119	-0.000735241	-0.0164859

Bonds

   1	4	1	2
   2	1	1	3
   3	1	1	4
   4	2	2	5
   5	2	2	6
   6	4	7	8
   7	1	7	9
   8	1	7	10
   9	2	8	11
  10	2	8	12
  11	4	1	8
  12	4	13	14
  13	1	13	15
  14	1	13	16
  15	2	14	17
  16	2	14	18
  17	4	7	14
  18	4	19	20
  19	1	19	21
  20	1	19	22
  21	2	20	23
  22	2	20	24
  23	4	13	20
  24	4	25	26
  25	1	25	27
  26	1	25	28
  27	2	26	29
  28	2	26	30
  29	4	19	26
  30	4	31	32
  31	1	31	33
  32	1	31	34
  33	2	32	35
  34	2	32	36
  35	4	25	32
  36	4	37	38
  37	1	37	39
  38	1	37	40
  39	2	38	41
  40	2	38	42
  41	4	31	38
  42	4	43	44
  43	1	43	45
  44	1	43	46
  45	2	44	47
  46	2	44	48
  47	4	37	44
  48	4	49	50
  49	1	49	51
  50	1	49	52
  51	2	50	53
  52	2	50	54
  53	4	43	50
  54	4	55	56
  55	1	55	57
  56	1	55	58
  57	2	56	59
  58	2	56	60
  59	4	49	56
  60	4	61	62
  61	1	61	63
  62	1	61	64
  63	2	62	65
  64	2	62	66
  65	4	55	62
  66	4	67	68
  67	1	67	69
  68	1	67	70
  69	2	68	71
  70	2	68	72
  71	4	61	68
  72	4	73	74
  73	1	73	75
  74	1	73	76
  75	2	74	77
  76	2	74	78
  77	4	67	74
  78	4	79	80
  79	1	79	81
  80	1	79	82
  81	2	80	83
  82	2	80	84
  83	4	73	80
  84	4	85	86
  85	1	85	87
  86	1	85	88
  87	2	86	89
  88	2	86	90
  89	4	79	86
  90	4	91	92
  91	1	91	93
  92	1	91	94
  93	2	92	95
  94	2	92	96
  95	4	85	92
  96	4	97	98
  97	1	97	99
  98	1	97	100
  99	2	98	101
 100	2	98	102
 101	4	91	98
 102	4	103	104
 103	1	103	105
 104	1	103	106
 105	2	104	107
 106	2	104	108
 107	4	97	104
 108	4	109	110
 109	1	109	111
 110	1	109	112
 111	2	110	113
 112	2	110	114
 113	4	103	110
 114	4	115	116
 115	1	115	117
 116	1	115	118
 117	2	116	119
 118	2	116	120
 119	4	109	116
 120	4	121	122
 121	1	121	123
 122	1	121	124
 123	2	122	125
 124	2	122	126
 125	4	115	122
 126	4	127	128
 127	1	127	129
 128	1	127	130
 129	2	128	131
 130	2	128	132
 131	4	121	128
 132	4	133	134
 133	1	133	135
 134	1	133	136
 135	2	134	137
 136	2	134	138
 137	4	127	134
 138	4	139	140
 139	1	139	141
 140	1	139	142
 141	2	140	143
 142	2	140	144
 143	4	133	140
 144	4	145	146
 145	1	145	147
 146	1	145	148
 147	2	146	149
 148	2	146	150
 149	4	139	146
 150	4	151	152
 151	1	151	153
 152	1	151	154
 153	2	152	155
 154	2	152	156
 155	4	145	152
 156	4	157	158
 157	1	157	159
 158	1	157	160
 159	2	158	161
 160	2	158	162
 161	4	151	158
 162	4	163	164
 163	1	163	165
 164	1	163	166
 165	2	164	167
 166	2	164	168
 167	4	157	164
 168	4	169	170
 169	1	169	171
 170	1	169	172
 171	2	170	173
 172	2	170	174
 173	4	163	170
 174	4	175	176
 175	1	175	177
 176	1	175	178
 177	2	176	179
 178	2	176	180
 179	4	169	176
 180	4	181	182
 181	1	181	183
 182	1	181	184
 183	2	182	185
 184	2	182	186
 185	4	175	182
 186	4	187	188
 187	1	187	189
 188	1	187	190
 189	2	188	191
 190	2	188	192
 191	4	181	188
 192	4	193	194
 193	1	193	195
 194	1	193	196
 195	2	194	197
 196	2	194	198
 197	4	187	194
 198	4	199	200
 199	1	199	201
 200	1	199	202
 201	2	200	203
 202	2	200	204
 203	4	193	200
 204	4	205	206
 205	1	205	207
 206	1	205	208
 207	2	206	209
 208	2	206	210
 209	4	199	206
 210	4	211	212
 211	1	211	213
 212	1	211	214
 213	2	212	215
 214	2	212	216
 215	4	205	212
 216	4	217	218
 217	1	217	219
 218	1	217	220
 219	2	218	221
 220	2	218	222
 221	4	211	218
 222	4	223	224
 223	1	223	225
 224	1	223	226
 225	2	224	227
 226	2	224	228
 227	4	217	224
 228	4	229	230
 229	1	229	231
 230	1	229	232
 231	2	230	233
 232	2	230	234
 233	4	223	230
 234	4	235	236
 235	1	235	237
 236	1	235	238
 237	2	236	239
 238	2	236	240
 239	4	229	236
 240	4	241	242
 241	1	241	243
 242	1	241	244
 243	2	242	245
 244	2	242	246
 245	4	235	242
 246	4	247	248
 247	1	247	249
 248	1	247	250
 249	2	248	251
 250	2	248	252
 251	4	241	248
 252	4	253	254
 253	1	253	255
 254	1	253	256
 255	2	254	257
 256	2	254	258
 257	4	247	254
 258	4	259	260
 259	1	259	261
 260	1	259	262
 261	2	260	263