pySIMM System Object

62 atoms
61 bonds
120 angles
171 dihedrals
0 impropers

4 atom types
4 bond types
7 angle types
4 dihedral types

-51.040224 51.040224 xlo xhi
-51.040224 51.040224 ylo yhi
-51.040224 51.040224 zlo zhi

Masses

   1	12.01	# c3
   2	1.008	# hc
   3	19.0	# f
   4	1.008	# h2

Pair Coeffs

   1	0.1094	3.3996695084235347	# c3
   2	0.0157	2.649532787749369	# hc
   3	0.061	3.1181455134911875	# f
   4	0.0157	2.2931733004932333	# h2

Bond Coeffs

   1	330.6	1.0969	# c3,hc
   2	356.9	1.3497	# c3,f
   3	331.7	1.0961	# c3,h2
   4	300.9	1.5375	# c3,c3

Angle Coeffs

   1	51.15	108.79	# f,c3,h2
   2	46.34	109.8	# c3,c3,hc
   3	66.11	109.24	# c3,c3,f
   4	39.4	107.58	# hc,c3,hc
   5	46.25	110.22	# c3,c3,h2
   6	70.89	107.36	# f,c3,f
   7	62.86	111.51	# c3,c3,c3

Dihedral Coeffs

   1	2	0.0	3	0	0.19	1	0	# hc,c3,c3,f
   2	1	0.15555555555555556	3	0	# X,c3,c3,X
   3	1	0.16	3	0	# hc,c3,c3,c3
   4	3	0.18	3	0	0.25	2	180	0.2	1	180	# c3,c3,c3,c3

Atoms

   1	1	1	0.070548	-4.09099	5.9012	-2.46398
   2	1	1	0.506757	-3.95707	6.58039	-3.8426
   3	1	2	-0.012767	-3.21893	6.16313	-1.85313
   4	1	2	-0.014806	-4.96822	6.30448	-1.93918
   5	1	3	-0.274996	-3.43474	7.81638	-3.6853
   6	1	3	-0.274736	-5.1697	6.74177	-4.41658
   7	1	1	0.070548	-4.4755	3.65955	-1.21837
   8	1	1	0.506757	-4.20985	4.36237	-2.5799
   9	1	2	-0.012767	-5.00623	2.71459	-1.40148
  10	1	2	-0.014806	-5.17494	4.27857	-0.64008
  11	1	3	-0.274996	-3.10555	3.86925	-3.18274
  12	1	3	-0.274736	-5.24035	4.05851	-3.39951
  13	1	1	0.070548	-3.63557	2.9708	1.11282
  14	1	1	0.506757	-3.22971	3.34315	-0.345515
  15	1	2	-0.012767	-4.73141	2.92505	1.18018
  16	1	2	-0.014806	-3.35005	3.79129	1.78605
  17	1	3	-0.274996	-2.51549	2.36031	-0.933337
  18	1	3	-0.274736	-2.41011	4.41517	-0.287394
  19	1	1	0.070548	-1.52879	1.55844	1.79413
  20	1	1	0.506757	-3.07955	1.64443	1.69465
  21	1	2	-0.012767	-1.11134	1.34211	0.803167
  22	1	2	-0.014806	-1.13546	2.54574	2.07318
  23	1	3	-0.274996	-3.55985	0.61258	0.965034
  24	1	3	-0.274736	-3.62834	1.50893	2.9214
  25	1	1	0.070548	-1.62246	-0.909805	2.67174
  26	1	1	0.506757	-0.971904	0.498239	2.78835
  27	1	2	-0.012767	-1.68707	-1.18405	1.61288
  28	1	2	-0.014806	-2.66194	-0.842288	3.01692
  29	1	3	-0.274996	0.357543	0.402868	2.56626
  30	1	3	-0.274736	-1.09584	0.980162	4.04475
  31	1	1	0.070548	0.400992	-2.62498	2.94924
  32	1	1	0.506757	-0.946868	-2.05838	3.47793
  33	1	2	-0.012767	1.19617	-1.8952	3.1463
  34	1	2	-0.014806	0.653624	-3.50332	3.55887
  35	1	3	-0.274996	-0.754738	-1.66976	4.75769
  36	1	3	-0.274736	-1.82752	-3.0808	3.571
  37	1	1	0.070548	1.46576	-4.15849	1.10264
  38	1	1	0.506757	0.445942	-3.03449	1.44859
  39	1	2	-0.012767	1.16091	-5.0599	1.65257
  40	1	2	-0.014806	1.3491	-4.41899	0.043389
  41	1	3	-0.274996	-0.764705	-3.47541	1.04309
  42	1	3	-0.274736	0.691057	-1.94168	0.694314
  43	1	1	0.070548	3.71252	-2.89533	0.465099
  44	1	1	0.506757	2.97231	-3.89702	1.4022
  45	1	2	-0.012767	4.5515	-2.45382	1.02063
  46	1	2	-0.014806	3.05809	-2.0502	0.228557
  47	1	3	-0.274996	3.59844	-5.09333	1.40537
  48	1	3	-0.274736	3.11845	-3.45627	2.66944
  49	1	1	0.070548	4.84492	-2.33202	-1.74394
  50	1	1	0.506757	4.27773	-3.47323	-0.859698
  51	1	2	-0.012767	5.48657	-1.68918	-1.12579
  52	1	2	-0.014806	4.00979	-1.69307	-2.06306
  53	1	3	-0.274996	5.25701	-4.3622	-0.589426
  54	1	3	-0.274736	3.30121	-4.13027	-1.5209
  55	1	1	0.070548	7.05043	-3.35882	-2.69266
  56	1	1	0.506757	5.65051	-2.76707	-2.99778
  57	1	2	-0.012767	7.71026	-3.27336	-3.56608
  58	1	2	-0.014806	7.53077	-2.82895	-1.85961
  59	1	3	-0.274996	4.94439	-3.64217	-3.74635
  60	1	3	-0.274736	5.82145	-1.67313	-3.774
  61	1	4	0	-3.30528	6.00694	-4.51164
  62	1	2	0	6.99062	-4.42251	-2.43175

Velocities

   1	0.00064682	-0.000134484	-9.4516e-05
   2	0.000369009	-1.04871e-05	-8.13197e-05
   3	0.00103772	-0.000482713	-0.000504007
   4	0.00100644	0.000229036	0.000226029
   5	-9.113e-05	0.000157129	0.000113759
   6	0.000257583	-0.000302407	7.37683e-06
   7	-0.000189551	0.000375715	0.00028235
   8	-3.43176e-05	-6.80563e-05	0.000101958
   9	-0.00106245	0.000771556	0.00070236
  10	0.000417104	0.00105586	0.000371912
  11	-0.000279251	-0.000531675	7.92628e-05
  12	-0.000215859	0.000206035	0.000244883
  13	4.66613e-05	-8.1759e-05	7.33543e-05
  14	-0.000187582	-0.000296102	-3.27592e-05
  15	5.93701e-05	0.000138824	0.000394838
  16	0.000380777	-6.43006e-05	-8.48151e-05
  17	-0.000885696	-0.000712337	-0.000164634
  18	0.000362014	-0.000716209	-0.00028366
  19	-7.58684e-07	-0.000307987	-0.000334515
  20	7.32605e-06	-4.35984e-05	0.00012212
  21	-0.000245465	-0.000457876	-0.000455163
  22	0.000284473	-0.000369145	-0.000510919
  23	-0.000454351	-9.46556e-05	0.000436419
  24	0.000325014	0.000277654	0.000301511
  25	1.94819e-05	-0.000330242	-0.000805436
  26	-0.000117497	-0.000325914	-0.00035562
  27	0.000698477	-0.00026761	-0.000856645
  28	-0.000233232	-0.000420224	-0.00152148
  29	-5.65234e-05	-0.000205407	5.73366e-05
  30	-0.000557057	-0.000466873	-0.000357424
  31	-0.000196583	-0.000259763	0.000146747
  32	-0.000270315	-0.00014184	-0.000349387
  33	-0.00024912	-0.000355871	0.000434907
  34	-0.000486353	-0.000313598	0.000117011
  35	-0.00057152	0.000242537	-0.000422366
  36	-0.000393696	-2.51328e-05	-0.000214902
  37	0.00051402	0.00010902	0.000111972
  38	0.000318883	-9.53805e-05	0.000100592
  39	0.000445921	-7.5734e-05	-0.000250208
  40	0.000855236	0.000435677	2.72979e-05
  41	0.000442427	-0.000187716	-0.000254576
  42	0.000444475	-1.45712e-05	0.000289294
  43	0.000545803	0.000230371	0.000649326
  44	0.000359079	0.000275619	0.000580626
  45	0.000752376	-7.92252e-05	0.000652001
  46	0.000756354	0.000461745	0.00104292
  47	0.000549428	0.000314125	0.000803542
  48	-7.44087e-05	0.000328136	0.000621374
  49	-0.000315174	0.000428066	-0.000130563
  50	0.000213688	0.000474019	0.000346599
  51	-0.000333751	0.000811657	-0.000572479
  52	-0.000600009	0.000144061	-8.41861e-05
  53	0.000421962	0.0006617	0.000260113
  54	0.000215349	0.00011256	0.0007132
  55	-0.000795247	-0.000239806	-0.000274329
  56	-0.000528771	0.000297879	-0.000303617
  57	-0.000935631	-0.00136067	-0.000471017
  58	-0.000427742	0.000138203	-0.000746343
  59	-0.000793105	0.000616222	-0.000412745
  60	-0.000122585	0.000307079	-0.000247061
  61	0.000570165	0.00031994	-0.000239649
  62	-0.00124115	-8.51668e-06	0.000544666

Bonds

   1	4	1	2
   2	1	1	3
   3	1	1	4
   4	2	2	5
   5	2	2	6
   6	4	7	8
   7	1	7	9
   8	1	7	10
   9	2	8	11
  10	2	8	12
  11	4	1	8
  12	4	13	14
  13	1	13	15
  14	1	13	16
  15	2	14	17
  16	2	14	18
  17	4	7	14
  18	4	19	20
  19	1	19	21
  20	1	19	22
  21	2	20	23
  22	2	20	24
  23	4	13	20
  24	4	25	26
  25	1	25	27
  26	1	25	28
  27	2	26	29
  28	2	26	30
  29	4	19	26
  30	4	31	32
  31	1	31	33
  32	1	31	34
  33	2	32	35
  34	2	32	36
  35	4	25	32
  36	4	37	38
  37	1	37	39
  38	1	37	40
  39	2	38	41
  40	2	38	42
  41	4	31	38
  42	4	43	44
  43	1	43	45
  44	1	43	46
  45	2	44	47
  46	2	44	48
  47	4	37	44
  48	4	49	50
  49	1	49	51
  50	1	49	52
  51	2	50	53
  52	2	50	54
  53	4	43	50
  54	4	55	56
  55	1	55	57
  56	1	55	58
  57	2	56	59
  58	2	56	60
  59	4	49	56
  60	3	2	61
  61	1	55	62

Angles

   1	2	2	1	3
   2	2	2	1	4
   3	4	3	1	4
   4	3	1	2	5
   5	3	1	2	6
   6	6	5	2	6
   7	2	8	7	9
   8	2	8	7	10
   9	4	9	7	10
  10	3	7	8	11
  11	3	7	8	12
  12	6	11	8	12
  13	7	2	1	8
  14	2	3	1	8
  15	2	4	1	8
  16	7	1	8	7
  17	3	1	8	11
  18	3	1	8	12
  19	2	14	13	15
  20	2	14	13	16
  21	4	15	13	16
  22	3	13	14	17
  23	3	13	14	18
  24	6	17	14	18
  25	7	8	7	14
  26	2	9	7	14
  27	2	10	7	14
  28	7	7	14	13
  29	3	7	14	17
  30	3	7	14	18
  31	2	20	19	21
  32	2	20	19	22
  33	4	21	19	22
  34	3	19	20	23
  35	3	19	20	24
  36	6	23	20	24
  37	7	14	13	20
  38	2	15	13	20
  39	2	16	13	20
  40	7	13	20	19
  41	3	13	20	23
  42	3	13	20	24
  43	2	26	25	27
  44	2	26	25	28
  45	4	27	25	28
  46	3	25	26	29
  47	3	25	26	30
  48	6	29	26	30
  49	7	20	19	26
  50	2	21	19	26
  51	2	22	19	26
  52	7	19	26	25
  53	3	19	26	29
  54	3	19	26	30
  55	2	32	31	33
  56	2	32	31	34
  57	4	33	31	34
  58	3	31	32	35
  59	3	31	32	36
  60	6	35	32	36
  61	7	26	25	32
  62	2	27	25	32
  63	2	28	25	32
  64	7	25	32	31
  65	3	25	32	35
  66	3	25	32	36
  67	2	38	37	39
  68	2	38	37	40
  69	4	39	37	40
  70	3	37	38	41
  71	3	37	38	42
  72	6	41	38	42
  73	7	32	31	38
  74	2	33	31	38
  75	2	34	31	38
  76	7	31	38	37
  77	3	31	38	41
  78	3	31	38	42
  79	2	44	43	45
  80	2	44	43	46
  81	4	45	43	46
  82	3	43	44	47
  83	3	43	44	48
  84	6	47	44	48
  85	7	38	37	44
  86	2	39	37	44
  87	2	40	37	44
  88	7	37	44	43
  89	3	37	44	47
  90	3	37	44	48
  91	2	50	49	51
  92	2	50	49	52
  93	4	51	49	52
  94	3	49	50	53
  95	3	49	50	54
  96	6	53	50	54
  97	7	44	43	50
  98	2	45	43	50
  99	2	46	43	50
 100	7	43	50	49
 101	3	43	50	53
 102	3	43	50	54
 103	2	56	55	57
 104	2	56	55	58
 105	4	57	55	58
 106	3	55	56	59
 107	3	55	56	60
 108	6	59	56	60
 109	7	50	49	56
 110	2	51	49	56
 111	2	52	49	56
 112	7	49	56	55
 113	3	49	56	59
 114	3	49	56	60
 115	5	1	2	61
 116	1	5	2	61
 117	1	6	2	61
 118	2	56	55	62
 119	4	57	55	62
 120	4	58	55	62

Dihedrals

   1	1	3	1	2	5
   2	1	3	1	2	6
   3	1	4	1	2	5
   4	1	4	1	2	6
   5	1	9	7	8	11
   6	1	9	7	8	12
   7	1	10	7	8	11
   8	1	10	7	8	12
   9	2	5	2	1	8
  10	2	6	2	1	8
  11	3	1	8	7	9
  12	3	1	8	7	10
  13	4	2	1	8	7
  14	2	2	1	8	11
  15	2	2	1	8	12
  16	3	3	1	8	7
  17	1	3	1	8	11
  18	1	3	1	8	12
  19	3	4	1	8	7
  20	1	4	1	8	11
  21	1	4	1	8	12
  22	1	15	13	14	17
  23	1	15	13	14	18
  24	1	16	13	14	17
  25	1	16	13	14	18
  26	2	11	8	7	14
  27	2	12	8	7	14
  28	4	1	8	7	14
  29	3	7	14	13	15
  30	3	7	14	13	16
  31	4	8	7	14	13
  32	2	8	7	14	17
  33	2	8	7	14	18
  34	3	9	7	14	13
  35	1	9	7	14	17
  36	1	9	7	14	18
  37	3	10	7	14	13
  38	1	10	7	14	17
  39	1	10	7	14	18
  40	1	21	19	20	23
  41	1	21	19	20	24
  42	1	22	19	20	23
  43	1	22	19	20	24
  44	2	17	14	13	20
  45	2	18	14	13	20
  46	4	7	14	13	20
  47	3	13	20	19	21
  48	3	13	20	19	22
  49	4	14	13	20	19
  50	2	14	13	20	23
  51	2	14	13	20	24
  52	3	15	13	20	19
  53	1	15	13	20	23
  54	1	15	13	20	24
  55	3	16	13	20	19
  56	1	16	13	20	23
  57	1	16	13	20	24
  58	1	27	25	26	29
  59	1	27	25	26	30
  60	1	28	25	26	29
  61	1	28	25	26	30
  62	2	23	20	19	26
  63	2	24	20	19	26
  64	4	13	20	19	26
  65	3	19	26	25	27
  66	3	19	26	25	28
  67	4	20	19	26	25
  68	2	20	19	26	29
  69	2	20	19	26	30
  70	3	21	19	26	25
  71	1	21	19	26	29
  72	1	21	19	26	30
  73	3	22	19	26	25
  74	1	22	19	26	29
  75	1	22	19	26	30
  76	1	33	31	32	35
  77	1	33	31	32	36
  78	1	34	31	32	35
  79	1	34	31	32	36
  80	2	29	26	25	32
  81	2	30	26	25	32
  82	4	19	26	25	32
  83	3	25	32	31	33
  84	3	25	32	31	34
  85	4	26	25	32	31
  86	2	26	25	32	35
  87	2	26	25	32	36
  88	3	27	25	32	31
  89	1	27	25	32	35
  90	1	27	25	32	36
  91	3	28	25	32	31
  92	1	28	25	32	35
  93	1	28	25	32	36
  94	1	39	37	38	41
  95	1	39	37	38	42
  96	1	40	37	38	41
  97	1	40	37	38	42
  98	2	35	32	31	38
  99	2	36	32	31	38
 100	4	25	32	31	38
 101	3	31	38	37	39
 102	3	31	38	37	40
 103	4	32	31	38	37
 104	2	32	31	38	41
 105	2	32	31	38	42
 106	3	33	31	38	37
 107	1	33	31	38	41
 108	1	33	31	38	42
 109	3	34	31	38	37
 110	1	34	31	38	41
 111	1	34	31	38	42
 112	1	45	43	44	47
 113	1	45	43	44	48
 114	1	46	43	44	47
 115	1	46	43	44	48
 116	2	41	38	37	44
 117	2	42	38	37	44
 118	4	31	38	37	44
 119	3	37	44	43	45
 120	3	37	44	43	46
 121	4	38	37	44	43
 122	2	38	37	44	47
 123	2	38	37	44	48
 124	3	39	37	44	43
 125	1	39	37	44	47
 126	1	39	37	44	48
 127	3	40	37	44	43
 128	1	40	37	44	47
 129	1	40	37	44	48
 130	1	51	49	50	53
 131	1	51	49	50	54
 132	1	52	49	50	53
 133	1	52	49	50	54
 134	2	47	44	43	50
 135	2	48	44	43	50
 136	4	37	44	43	50
 137	3	43	50	49	51
 138	3	43	50	49	52
 139	4	44	43	50	49
 140	2	44	43	50	53
 141	2	44	43	50	54
 142	3	45	43	50	49
 143	1	45	43	50	53
 144	1	45	43	50	54
 145	3	46	43	50	49
 146	1	46	43	50	53
 147	1	46	43	50	54
 148	1	57	55	56	59
 149	1	57	55	56	60
 150	1	58	55	56	59
 151	1	58	55	56	60
 152	2	53	50	49	56
 153	2	54	50	49	56
 154	4	43	50	49	56
 155	3	49	56	55	57
 156	3	49	56	55	58
 157	4	50	49	56	55
 158	2	50	49	56	59
 159	2	50	49	56	60
 160	3	51	49	56	55
 161	1	51	49	56	59
 162	1	51	49	56	60
 163	3	52	49	56	55
 164	1	52	49	56	59
 165	1	52	49	56	60
 166	2	3	1	2	61
 167	2	4	1	2	61
 168	2	8	1	2	61
 169	1	59	56	55	62
 170	1	60	56	55	62
 171	3	49	56	55	62

