pySIMM System Object

176 atoms
175 bonds
348 angles
513 dihedrals
0 impropers

4 atom types
4 bond types
7 angle types
4 dihedral types

-90.637638 90.637638 xlo xhi
-90.637638 90.637638 ylo yhi
-90.637638 90.637638 zlo zhi

Masses

   1	12.01	# c3
   2	1.008	# hc
   3	19.0	# f
   4	1.008	# h2

Pair Coeffs

   1	0.1094	3.3996695084235347	# c3
   2	0.0157	2.649532787749369	# hc
   3	0.061	3.1181455134911875	# f
   4	0.0157	2.2931733004932333	# h2

Bond Coeffs

   1	330.6	1.0969	# c3,hc
   2	356.9	1.3497	# c3,f
   3	331.7	1.0961	# c3,h2
   4	300.9	1.5375	# c3,c3

Angle Coeffs

   1	51.15	108.79	# f,c3,h2
   2	46.34	109.8	# c3,c3,hc
   3	66.11	109.24	# c3,c3,f
   4	39.4	107.58	# hc,c3,hc
   5	46.25	110.22	# c3,c3,h2
   6	70.89	107.36	# f,c3,f
   7	62.86	111.51	# c3,c3,c3

Dihedral Coeffs

   1	2	0.0	3	0	0.19	1	0	# hc,c3,c3,f
   2	1	0.15555555555555556	3	0	# X,c3,c3,X
   3	1	0.16	3	0	# hc,c3,c3,c3
   4	3	0.18	3	0	0.25	2	180	0.2	1	180	# c3,c3,c3,c3

Atoms

   1	1	1	0.070548	8.09918	-5.30508	19.7777
   2	1	1	0.506757	6.61792	-4.97701	19.4906
   3	1	2	-0.012767	8.19107	-5.78334	20.7624
   4	1	2	-0.014806	8.4487	-6.03896	19.0427
   5	1	3	-0.274996	5.82055	-5.79514	20.2117
   6	1	3	-0.274736	6.33217	-5.19342	18.1878
   7	1	1	0.070548	10.4761	-4.27985	20.099
   8	1	1	0.506757	8.98035	-4.03456	19.7504
   9	1	2	-0.012767	10.5099	-4.9328	20.9822
  10	1	2	-0.014806	10.9325	-3.34021	20.4342
  11	1	3	-0.274996	8.49206	-3.16783	20.6664
  12	1	3	-0.274736	8.84949	-3.4139	18.5603
  13	1	1	0.070548	11.6371	-4.10019	17.6976
  14	1	1	0.506757	11.3681	-4.91698	18.9948
  15	1	2	-0.012767	10.7133	-4.05452	17.1106
  16	1	2	-0.014806	12.3429	-4.67273	17.0798
  17	1	3	-0.274996	12.5512	-5.24921	19.5577
  18	1	3	-0.274736	10.8376	-6.10321	18.6293
  19	1	1	0.070548	12.7324	-2.00048	16.576
  20	1	1	0.506757	12.2111	-2.66666	17.882
  21	1	2	-0.012767	13.071	-0.987367	16.8227
  22	1	2	-0.014806	13.6331	-2.53495	16.2432
  23	1	3	-0.274996	13.245	-2.69857	18.7506
  24	1	3	-0.274736	11.2945	-1.85655	18.4532
  25	1	1	0.070548	12.1945	-1.06283	14.1988
  26	1	1	0.506757	11.7263	-1.94747	15.39
  27	1	2	-0.012767	11.78	-1.45437	13.2616
  28	1	2	-0.014806	13.2803	-1.19433	14.0909
  29	1	3	-0.274996	11.5787	-3.19936	14.9041
  30	1	3	-0.274736	10.5032	-1.57477	15.8169
  31	1	1	0.070548	10.4181	0.950275	14.2494
  32	1	1	0.506757	11.898	0.462439	14.2894
  33	1	2	-0.012767	9.92591	0.719886	15.2021
  34	1	2	-0.014806	10.4306	2.04831	14.2057
  35	1	3	-0.274996	12.4557	0.944877	15.4209
  36	1	3	-0.274736	12.5775	1.07179	13.2927
  37	1	1	0.070548	8.14693	1.14088	13.1049
  38	1	1	0.506757	9.53173	0.43515	13.0823
  39	1	2	-0.012767	7.75086	1.06891	14.1273
  40	1	2	-0.014806	8.28806	2.21554	12.9361
  41	1	3	-0.274996	10.1463	0.659319	11.902
  42	1	3	-0.274736	9.37681	-0.899947	13.1859
  43	1	1	0.070548	7.32698	0.640906	10.6063
  44	1	1	0.506757	7.05334	0.596241	12.1386
  45	1	2	-0.012767	6.51686	0.0949824	10.1086
  46	1	2	-0.014806	8.23025	0.0599226	10.3824
  47	1	3	-0.274996	5.90891	1.26278	12.4056
  48	1	3	-0.274736	6.76946	-0.682807	12.4685
  49	1	1	0.070548	7.69326	2.00124	8.42554
  50	1	1	0.506757	7.45825	2.05277	9.96084
  51	1	2	-0.012767	8.37614	1.16733	8.21155
  52	1	2	-0.014806	8.24294	2.90244	8.11958
  53	1	3	-0.274996	6.39375	2.83816	10.233
  54	1	3	-0.274736	8.5185	2.68794	10.5049
  55	1	1	0.070548	5.85923	3.25195	7.08099
  56	1	1	0.506757	6.42751	1.87236	7.52637
  57	1	2	-0.012767	5.69938	3.88572	7.96284
  58	1	2	-0.014806	6.63131	3.76477	6.49099
  59	1	3	-0.274996	6.80745	1.17519	6.43287
  60	1	3	-0.274736	5.47729	1.12871	8.13087
  61	1	1	0.070548	4.24463	4.60516	5.63118
  62	1	1	0.506757	4.54083	3.21175	6.25341
  63	1	2	-0.012767	4.11659	5.33209	6.44507
  64	1	2	-0.014806	5.13334	4.93742	5.07715
  65	1	3	-0.274996	3.52118	2.86037	7.06657
  66	1	3	-0.274736	4.62139	2.28116	5.27968
  67	1	1	0.070548	2.82435	6.15903	4.19445
  68	1	1	0.506757	3.01505	4.69762	4.68219
  69	1	2	-0.012767	2.48564	6.76767	5.04418
  70	1	2	-0.014806	3.80571	6.56687	3.91439
  71	1	3	-0.274996	1.89449	4.30876	5.3286
  72	1	3	-0.274736	3.17134	3.87365	3.62491
  73	1	1	0.070548	0.409894	5.84364	3.21801
  74	1	1	0.506757	1.8537	6.382	3.00156
  75	1	2	-0.012767	0.438425	4.7463	3.21613
  76	1	2	-0.014806	0.062575	6.13588	4.21864
  77	1	3	-0.274996	1.82083	7.71473	2.78284
  78	1	3	-0.274736	2.39591	5.84203	1.88741
  79	1	1	0.070548	-1.95261	5.49573	2.28428
  80	1	1	0.506757	-0.637804	6.31401	2.16825
  81	1	2	-0.012767	-2.38557	5.67754	3.2779
  82	1	2	-0.014806	-1.70697	4.42534	2.26256
  83	1	3	-0.274996	-0.915973	7.62119	2.36591
  84	1	3	-0.274736	-0.133634	6.19874	0.922665
  85	1	1	0.070548	-2.63427	5.35605	-0.234613
  86	1	1	0.506757	-3.04396	5.7675	1.2077
  87	1	2	-0.012767	-2.02413	6.15788	-0.671123
  88	1	2	-0.014806	-1.98174	4.4736	-0.181065
  89	1	3	-0.274996	-3.4028	7.06987	1.22003
  90	1	3	-0.274736	-4.14915	5.09069	1.59076
  91	1	1	0.070548	-4.8171	6.20211	-1.39516
  92	1	1	0.506757	-3.7854	5.04947	-1.2285
  93	1	2	-0.012767	-5.33141	6.37164	-0.440561
  94	1	2	-0.014806	-4.26289	7.12831	-1.60199
  95	1	3	-0.274996	-4.39818	3.90378	-0.863979
  96	1	3	-0.274736	-3.19029	4.7784	-2.4101
  97	1	1	0.070548	-7.06517	5.05921	-2.09644
  98	1	1	0.506757	-5.90209	6.01255	-2.49546
  99	1	2	-0.012767	-6.68158	4.17373	-1.58583
 100	1	2	-0.014806	-7.67482	5.57141	-1.33908
 101	1	3	-0.274996	-5.34752	5.63815	-3.66817
 102	1	3	-0.274736	-6.4246	7.23925	-2.72308
 103	1	1	0.070548	-7.51558	3.38963	-4.09603
 104	1	1	0.506757	-7.99261	4.6162	-3.26699
 105	1	2	-0.012767	-8.24513	3.22892	-4.90158
 106	1	2	-0.014806	-6.57531	3.64834	-4.59713
 107	1	3	-0.274996	-8.18772	5.63622	-4.13256
 108	1	3	-0.274736	-9.22997	4.37358	-2.77783
 109	1	1	0.070548	-7.50908	0.779828	-4.21607
 110	1	1	0.506757	-7.31661	2.0452	-3.3343
 111	1	2	-0.012767	-7.48028	-0.111302	-3.57357
 112	1	2	-0.014806	-8.53005	0.811754	-4.62176
 113	1	3	-0.274996	-6.09599	2.01592	-2.76067
 114	1	3	-0.274736	-8.1948	1.9382	-2.31252
 115	1	1	0.070548	-6.96143	-0.658021	-6.23522
 116	1	1	0.506757	-6.51653	0.571639	-5.39582
 117	1	2	-0.012767	-6.77596	-1.56375	-5.64084
 118	1	2	-0.014806	-8.05433	-0.614288	-6.33844
 119	1	3	-0.274996	-5.26661	0.355581	-4.93375
 120	1	3	-0.274736	-6.47937	1.68894	-6.14698
 121	1	1	0.070548	-5.13019	-1.82563	-7.68702
 122	1	1	0.506757	-6.34812	-0.862441	-7.65501
 123	1	2	-0.012767	-5.47338	-2.81926	-7.36647
 124	1	2	-0.014806	-4.39973	-1.50792	-6.93055
 125	1	3	-0.274996	-6.04231	0.294422	-8.2769
 126	1	3	-0.274736	-7.34558	-1.40231	-8.39076
 127	1	1	0.070548	-5.35967	-2.13109	-10.2854
 128	1	1	0.506757	-4.40714	-1.97208	-9.06305
 129	1	2	-0.012767	-5.83067	-1.16094	-10.494
 130	1	2	-0.014806	-6.17038	-2.8182	-10.0113
 131	1	3	-0.274996	-3.59117	-3.04394	-8.95844
 132	1	3	-0.274736	-3.59644	-0.906648	-9.24714
 133	1	1	0.070548	-5.80042	-2.57263	-12.7442
 134	1	1	0.506757	-4.7463	-2.65883	-11.6057
 135	1	2	-0.012767	-5.96492	-1.51204	-12.9788
 136	1	2	-0.014806	-6.7647	-2.92928	-12.3557
 137	1	3	-0.274996	-4.356	-3.94076	-11.4288
 138	1	3	-0.274736	-3.66434	-1.92576	-11.9519
 139	1	1	0.070548	-5.75702	-2.54032	-15.3466
 140	1	1	0.506757	-5.47362	-3.35134	-14.0555
 141	1	2	-0.012767	-5.19522	-3.0154	-16.1579
 142	1	2	-0.014806	-5.30931	-1.54319	-15.2367
 143	1	3	-0.274996	-4.17739	-3.7277	-14.1162
 144	1	3	-0.274736	-6.18143	-4.50457	-14.0809
 145	1	1	0.070548	-7.77733	-3.51044	-16.7123
 146	1	1	0.506757	-7.25299	-2.39331	-15.7612
 147	1	2	-0.012767	-8.87335	-3.55023	-16.6417
 148	1	2	-0.014806	-7.42061	-4.48387	-16.3548
 149	1	3	-0.274996	-7.42484	-1.17908	-16.3295
 150	1	3	-0.274736	-8.04109	-2.36086	-14.6629
 151	1	1	0.070548	-7.43354	-4.64705	-19.0465
 152	1	1	0.506757	-7.39069	-3.34317	-18.2096
 153	1	2	-0.012767	-6.66889	-5.34074	-18.6696
 154	1	2	-0.014806	-7.10785	-4.3651	-20.0508
 155	1	3	-0.274996	-6.13446	-2.86342	-18.3326
 156	1	3	-0.274736	-8.17641	-2.41355	-18.7984
 157	1	1	0.070548	-8.93929	-6.43685	-20.2604
 158	1	1	0.506757	-8.79676	-5.39595	-19.1092
 159	1	2	-0.012767	-8.35955	-7.33067	-19.9896
 160	1	2	-0.014806	-9.98477	-6.77191	-20.2956
 161	1	3	-0.274996	-9.83802	-4.53848	-19.1626
 162	1	3	-0.274736	-8.95341	-6.06231	-17.9438
 163	1	1	0.070548	-9.02809	-4.62806	-22.2084
 164	1	1	0.506757	-8.50382	-6.00423	-21.6933
 165	1	2	-0.012767	-8.29305	-4.20134	-22.9041
 166	1	2	-0.014806	-9.07342	-3.9058	-21.3868
 167	1	3	-0.274996	-7.15307	-5.99701	-21.7503
 168	1	3	-0.274736	-8.84916	-6.99539	-22.5427
 169	1	1	0.070548	-10.9446	-3.23302	-23.1608
 170	1	1	0.506757	-10.4024	-4.65953	-22.9193
 171	1	2	-0.012767	-11.0588	-2.6905	-22.2135
 172	1	2	-0.014806	-11.9236	-3.26224	-23.6563
 173	1	3	-0.274996	-11.2997	-5.35546	-22.1869
 174	1	3	-0.274736	-10.2942	-5.2695	-24.1208
 175	1	4	0	6.37217	-3.93994	19.7456
 176	1	2	0	-10.259	-2.6593	-23.7982

Velocities

   1	-4.38928e-05	-0.00027384	0.00073817
   2	-6.89995e-05	3.06165e-06	0.00056232
   3	-0.000327676	0.000266143	0.00103821
   4	-0.000307202	-0.000707447	0.00121412
   5	-0.000256019	-0.00104737	-0.00101705
   6	0.000736758	0.00173816	7.22067e-05
   7	9.08725e-05	0.000330691	-0.000249269
   8	-7.10158e-05	-0.000216537	-0.000136386
   9	0.000829327	0.000954768	-6.27957e-05
  10	-0.000192959	0.000575924	-0.000969226
  11	7.10764e-05	0.000100106	-0.000248213
  12	-0.000422653	-0.000831636	-0.000409209
  13	-9.0483e-05	0.000233413	-0.00020239
  14	0.000106306	0.000210352	-0.000228221
  15	-0.000153309	0.000161461	-0.000186999
  16	-5.46589e-05	5.8326e-05	-0.000317564
  17	0.000368591	0.000529202	-0.000292036
  18	0.000175042	0.000218205	-0.000100055
  19	-0.000187075	-5.32822e-05	-0.000352982
  20	-3.10952e-05	0.000144608	-0.000378518
  21	-0.000199514	-2.46823e-05	-0.000678792
  22	-0.000277205	-0.000153919	-0.000477427
  23	4.30789e-05	0.000279084	-0.000572127
  24	3.23373e-05	0.000249582	-0.000467458
  25	-0.000381582	1.71052e-05	-0.00015526
  26	-0.00028589	-0.000335008	-0.000281396
  27	-4.0811e-05	-5.60302e-05	-0.000320364
  28	-0.00029629	0.000193287	0.000266643
  29	0.000239548	-0.000351619	-0.000578514
  30	-0.000569607	-0.000778755	-0.000538226
  31	-0.000455834	6.60365e-05	-0.000146947
  32	-0.000546526	-5.12748e-06	-1.01613e-05
  33	-0.000549122	0.000130778	-0.000179214
  34	-0.000259228	3.8133e-05	-0.000241523
  35	-0.000739177	-3.85513e-05	7.14694e-05
  36	-0.000405308	-0.000100157	7.44311e-05
  37	-0.000325243	0.000299583	-1.06193e-05
  38	-0.000397334	0.000245203	-0.000191679
  39	-0.000330062	0.00038741	-3.75571e-05
  40	-0.000350167	0.000290681	-0.000154173
  41	-0.000379818	0.000441131	-0.000151515
  42	-0.000329983	0.000218882	-0.000380059
  43	-3.54029e-05	0.000179549	0.000120378
  44	-0.000250152	0.000191772	8.72584e-05
  45	4.18204e-05	0.000162707	-2.46645e-05
  46	-3.64443e-05	0.000151754	0.000228805
  47	-0.000325493	0.000213009	-0.000207297
  48	-0.000295734	0.000199933	1.53917e-05
  49	0.000343423	-0.000233274	8.45437e-06
  50	0.000106173	0.000136896	-4.79363e-05
  51	0.000257595	-0.000388681	0.000324103
  52	0.000517377	-0.000397974	-0.000174488
  53	4.7215e-05	0.000145999	-0.000337576
  54	-3.94628e-06	0.000288057	4.84178e-07
  55	0.000170679	-0.000374723	0.00010578
  56	0.000378319	-0.000350536	-3.94244e-05
  57	0.000173089	-0.000483522	0.000177259
  58	0.000110168	-0.000244969	0.000144754
  59	0.000507696	-0.000219068	-7.91671e-05
  60	0.000504291	-0.000577145	-0.000122702
  61	0.000183169	-8.30769e-05	0.000299591
  62	9.90887e-05	-0.00022294	0.000181705
  63	0.000533104	-0.000125444	0.000386515
  64	0.000134258	-0.000227367	0.000144108
  65	0.00016438	-0.000245375	0.000265091
  66	-4.02072e-05	-0.000202921	0.000146311
  67	1.31011e-05	0.00049007	0.000415018
  68	-1.75102e-05	0.000404247	0.000548343
  69	-0.000255203	0.000421024	0.000393217
  70	0.000105278	0.000606778	0.000822439
  71	5.04592e-05	0.000742987	0.000865122
  72	-0.000559039	0.000337881	0.000534411
  73	0.000445507	-0.000246713	-0.000207368
  74	0.00022696	0.000514256	0.000123123
  75	0.000956449	-0.000246074	-0.000472542
  76	0.000198484	-0.000661501	-0.000159571
  77	-0.000211946	0.000559875	0.000535445
  78	0.000838189	0.00100893	0.000189992
  79	0.000284845	-0.000502735	9.71049e-05
  80	0.000318765	-0.000533207	-0.00012149
  81	0.000465972	-0.000725621	0.000212225
  82	0.000204905	-0.000519268	-0.000197166
  83	0.000321784	-0.00049461	-0.00041329
  84	0.000292709	-0.000850998	-0.000110868
  85	0.000134128	-0.00020691	0.000253574
  86	0.000155641	-0.000193432	0.000282089
  87	-0.000185343	1.94047e-05	0.000193349
  88	0.000476392	5.20469e-05	0.00028253
  89	0.000462006	-0.000101026	0.00037914
  90	-4.35426e-05	0.000119136	0.000304377
  91	0.000471817	-0.000523889	-9.79406e-05
  92	0.000234842	-0.000650695	0.000247342
  93	0.000654913	-0.000103141	-8.49297e-05
  94	0.000791183	-0.000790091	-0.000382816
  95	0.00014336	-0.000490619	0.000632273
  96	0.000240585	-0.00108783	0.000338267
  97	2.80905e-05	2.9811e-05	0.000175869
  98	0.000248248	-0.000245964	4.93398e-05
  99	-0.000145036	5.6961e-05	0.000389695
 100	0.000227412	0.000408126	7.94752e-05
 101	-1.77826e-05	-0.000147326	-0.000100372
 102	0.000521905	-7.10181e-05	0.00036388
 103	-0.00034938	0.000695208	-0.000598021
 104	-0.000490213	-1.35841e-05	0.000539247
 105	-0.000692674	0.00047847	-0.000256969
 106	-0.00087569	0.00151928	-0.00117795
 107	-0.00217038	0.000594036	0.00163358
 108	0.00014174	-0.00139138	0.00147387
 109	0.000750931	1.35502e-05	0.000243806
 110	0.00118838	0.000695659	-0.000820433
 111	0.00237197	0.000470174	0.000812425
 112	0.000165472	-0.00114486	0.00163685
 113	0.00199227	0.00167937	-0.0024914
 114	0.0026498	0.000357298	0.000385526
 115	-0.0015786	0.000287598	-0.000586081
 116	-0.000614354	-2.05037e-06	-0.000780273
 117	-0.00269075	9.78499e-05	-0.000491943
 118	-0.00148972	0.00141429	-0.00112733
 119	-0.000147805	-0.000320372	-0.00223496
 120	-0.00142439	0.000159484	-0.000541504
 121	-0.000603544	0.000475146	0.000260541
 122	-0.00101306	-4.50071e-05	-0.000239513
 123	8.61794e-05	0.000474439	0.00100986
 124	-0.00055891	0.00138605	-0.00015544
 125	-0.00122212	-3.97733e-05	-0.0003041
 126	-0.000650068	-0.000499129	-0.000367427
 127	-0.000916752	-0.00122372	0.000381925
 128	-0.000876594	0.000264635	0.000133225
 129	-0.00167206	-0.00168238	-0.000117245
 130	-0.000426105	-0.00168207	0.000721231
 131	0.000175317	0.00109731	0.000416164
 132	-0.00203814	0.000993443	-0.000672696
 133	0.000553031	-7.59511e-05	-0.000123466
 134	-0.000406336	-0.00134055	0.000654547
 135	0.00111285	0.000136681	0.000488108
 136	0.000155057	-7.64176e-05	-0.00104168
 137	-0.00181064	-0.00180078	0.00054717
 138	0.00063824	-0.00233339	0.0017999
 139	0.000408728	0.000779778	1.67533e-05
 140	0.00122687	0.000625797	-0.000309475
 141	0.000656639	0.00141969	-0.000229094
 142	-0.000531252	0.00116065	2.1734e-05
 143	0.00156109	0.00195103	-0.000371537
 144	0.00229503	5.56258e-05	-0.0007074
 145	0.00101194	-0.00116985	0.000557151
 146	0.000150132	-0.000540552	0.000285515
 147	0.00099293	-0.00233279	0.00109716
 148	0.00214554	-0.000924367	0.000280947
 149	-0.000980514	-0.000839315	-5.94906e-05
 150	0.000289823	-0.000751603	0.000435064
 151	0.000227055	0.000635356	-0.000720741
 152	0.000217309	-0.000135566	0.0004342
 153	0.000653216	0.000390235	-0.00181934
 154	-0.000358087	0.00170829	-0.000689245
 155	-3.18709e-05	0.000622863	0.000221046
 156	-0.000515173	8.42659e-05	0.00172704
 157	-7.85605e-05	0.000192678	0.00018743
 158	9.34349e-05	0.0009802	-0.000619995
 159	-0.000533791	0.000170612	0.000956367
 160	-0.000127368	0.000372723	0.000423341
 161	0.000616935	0.00138291	-0.00208027
 162	-0.000451846	0.00225811	0.000114704
 163	0.00102897	-0.000726055	-0.00173683
 164	0.000324468	-0.000644026	-1.98861e-05
 165	0.000782858	-0.00343787	-0.00376689
 166	0.00372933	0.000889211	-0.00292066
 167	0.00041757	-0.00142902	0.00115808
 168	0.000292153	-0.00107235	0.000496706
 169	-0.000678047	0.000271208	0.000329818
 170	-0.000288771	0.000297757	0.000504465
 171	-0.001745	0.000237844	0.000153571
 172	-0.000591508	-0.000220156	0.000311767
 173	0.000645866	0.00106953	0.00227196
 174	-0.00266909	-0.000441821	0.000848117
 175	-0.000461595	-0.000472565	0.0017963
 176	-0.00120124	0.00102608	0.000331612

Bonds

   1	4	1	2
   2	1	1	3
   3	1	1	4
   4	2	2	5
   5	2	2	6
   6	4	7	8
   7	1	7	9
   8	1	7	10
   9	2	8	11
  10	2	8	12
  11	4	1	8
  12	4	13	14
  13	1	13	15
  14	1	13	16
  15	2	14	17
  16	2	14	18
  17	4	7	14
  18	4	19	20
  19	1	19	21
  20	1	19	22
  21	2	20	23
  22	2	20	24
  23	4	13	20
  24	4	25	26
  25	1	25	27
  26	1	25	28
  27	2	26	29
  28	2	26	30
  29	4	19	26
  30	4	31	32
  31	1	31	33
  32	1	31	34
  33	2	32	35
  34	2	32	36
  35	4	25	32
  36	4	37	38
  37	1	37	39
  38	1	37	40
  39	2	38	41
  40	2	38	42
  41	4	31	38
  42	4	43	44
  43	1	43	45
  44	1	43	46
  45	2	44	47
  46	2	44	48
  47	4	37	44
  48	4	49	50
  49	1	49	51
  50	1	49	52
  51	2	50	53
  52	2	50	54
  53	4	43	50
  54	4	55	56
  55	1	55	57
  56	1	55	58
  57	2	56	59
  58	2	56	60
  59	4	49	56
  60	4	61	62
  61	1	61	63
  62	1	61	64
  63	2	62	65
  64	2	62	66
  65	4	55	62
  66	4	67	68
  67	1	67	69
  68	1	67	70
  69	2	68	71
  70	2	68	72
  71	4	61	68
  72	4	73	74
  73	1	73	75
  74	1	73	76
  75	2	74	77
  76	2	74	78
  77	4	67	74
  78	4	79	80
  79	1	79	81
  80	1	79	82
  81	2	80	83
  82	2	80	84
  83	4	73	80
  84	4	85	86
  85	1	85	87
  86	1	85	88
  87	2	86	89
  88	2	86	90
  89	4	79	86
  90	4	91	92
  91	1	91	93
  92	1	91	94
  93	2	92	95
  94	2	92	96
  95	4	85	92
  96	4	97	98
  97	1	97	99
  98	1	97	100
  99	2	98	101
 100	2	98	102
 101	4	91	98
 102	4	103	104
 103	1	103	105
 104	1	103	106
 105	2	104	107
 106	2	104	108
 107	4	97	104
 108	4	109	110
 109	1	109	111
 110	1	109	112
 111	2	110	113
 112	2	110	114
 113	4	103	110
 114	4	115	116
 115	1	115	117
 116	1	115	118
 117	2	116	119
 118	2	116	120
 119	4	109	116
 120	4	121	122
 121	1	121	123
 122	1	121	124
 123	2	122	125
 124	2	122	126
 125	4	115	122
 126	4	127	128
 127	1	127	129
 128	1	127	130
 129	2	128	131
 130	2	128	132
 131	4	121	128
 132	4	133	134
 133	1	133	135
 134	1	133	136
 135	2	134	137
 136	2	134	138
 137	4	127	134
 138	4	139	140
 139	1	139	141
 140	1	139	142
 141	2	140	143
 142	2	140	144
 143	4	133	140
 144	4	145	146
 145	1	145	147
 146	1	145	148
 147	2	146	149
 148	2	146	150
 149	4	139	146
 150	4	151	152
 151	1	151	153
 152	1	151	154
 153	2	152	155
 154	2	152	156
 155	4	145	152
 156	4	157	158
 157	1	157	159
 158	1	157	160
 159	2	158	161
 160	2	158	162
 161	4	151	158
 162	4	163	164
 163	1	163	165
 164	1	163	166
 165	2	164	167
 166	2	164	168
 167	4	157	164
 168	4	169	170
 169	1	169	171
 170	1	169	172
 171	2	170	173
 172	2	170	174
 173	4	163	170
 174	3	2	175
 175	1	169	176

Angles

   1	2	2	1	3
   2	2	2	1	4
   3	4	3	1	4
   4	3	1	2	5
   5	3	1	2	6
   6	6	5	2	6
   7	2	8	7	9
   8	2	8	7	10
   9	4	9	7	10
  10	3	7	8	11
  11	3	7	8	12
  12	6	11	8	12
  13	7	2	1	8
  14	2	3	1	8
  15	2	4	1	8
  16	7	1	8	7
  17	3	1	8	11
  18	3	1	8	12
  19	2	14	13	15
  20	2	14	13	16
  21	4	15	13	16
  22	3	13	14	17
  23	3	13	14	18
  24	6	17	14	18
  25	7	8	7	14
  26	2	9	7	14
  27	2	10	7	14
  28	7	7	14	13
  29	3	7	14	17
  30	3	7	14	18
  31	2	20	19	21
  32	2	20	19	22
  33	4	21	19	22
  34	3	19	20	23
  35	3	19	20	24
  36	6	23	20	24
  37	7	14	13	20
  38	2	15	13	20
  39	2	16	13	20
  40	7	13	20	19
  41	3	13	20	23
  42	3	13	20	24
  43	2	26	25	27
  44	2	26	25	28
  45	4	27	25	28
  46	3	25	26	29
  47	3	25	26	30
  48	6	29	26	30
  49	7	20	19	26
  50	2	21	19	26
  51	2	22	19	26
  52	7	19	26	25
  53	3	19	26	29
  54	3	19	26	30
  55	2	32	31	33
  56	2	32	31	34
  57	4	33	31	34
  58	3	31	32	35
  59	3	31	32	36
  60	6	35	32	36
  61	7	26	25	32
  62	2	27	25	32
  63	2	28	25	32
  64	7	25	32	31
  65	3	25	32	35
  66	3	25	32	36
  67	2	38	37	39
  68	2	38	37	40
  69	4	39	37	40
  70	3	37	38	41
  71	3	37	38	42
  72	6	41	38	42
  73	7	32	31	38
  74	2	33	31	38
  75	2	34	31	38
  76	7	31	38	37
  77	3	31	38	41
  78	3	31	38	42
  79	2	44	43	45
  80	2	44	43	46
  81	4	45	43	46
  82	3	43	44	47
  83	3	43	44	48
  84	6	47	44	48
  85	7	38	37	44
  86	2	39	37	44
  87	2	40	37	44
  88	7	37	44	43
  89	3	37	44	47
  90	3	37	44	48
  91	2	50	49	51
  92	2	50	49	52
  93	4	51	49	52
  94	3	49	50	53
  95	3	49	50	54
  96	6	53	50	54
  97	7	44	43	50
  98	2	45	43	50
  99	2	46	43	50
 100	7	43	50	49
 101	3	43	50	53
 102	3	43	50	54
 103	2	56	55	57
 104	2	56	55	58
 105	4	57	55	58
 106	3	55	56	59
 107	3	55	56	60
 108	6	59	56	60
 109	7	50	49	56
 110	2	51	49	56
 111	2	52	49	56
 112	7	49	56	55
 113	3	49	56	59
 114	3	49	56	60
 115	2	62	61	63
 116	2	62	61	64
 117	4	63	61	64
 118	3	61	62	65
 119	3	61	62	66
 120	6	65	62	66
 121	7	56	55	62
 122	2	57	55	62
 123	2	58	55	62
 124	7	55	62	61
 125	3	55	62	65
 126	3	55	62	66
 127	2	68	67	69
 128	2	68	67	70
 129	4	69	67	70
 130	3	67	68	71
 131	3	67	68	72
 132	6	71	68	72
 133	7	62	61	68
 134	2	63	61	68
 135	2	64	61	68
 136	7	61	68	67
 137	3	61	68	71
 138	3	61	68	72
 139	2	74	73	75
 140	2	74	73	76
 141	4	75	73	76
 142	3	73	74	77
 143	3	73	74	78
 144	6	77	74	78
 145	7	68	67	74
 146	2	69	67	74
 147	2	70	67	74
 148	7	67	74	73
 149	3	67	74	77
 150	3	67	74	78
 151	2	80	79	81
 152	2	80	79	82
 153	4	81	79	82
 154	3	79	80	83
 155	3	79	80	84
 156	6	83	80	84
 157	7	74	73	80
 158	2	75	73	80
 159	2	76	73	80
 160	7	73	80	79
 161	3	73	80	83
 162	3	73	80	84
 163	2	86	85	87
 164	2	86	85	88
 165	4	87	85	88
 166	3	85	86	89
 167	3	85	86	90
 168	6	89	86	90
 169	7	80	79	86
 170	2	81	79	86
 171	2	82	79	86
 172	7	79	86	85
 173	3	79	86	89
 174	3	79	86	90
 175	2	92	91	93
 176	2	92	91	94
 177	4	93	91	94
 178	3	91	92	95
 179	3	91	92	96
 180	6	95	92	96
 181	7	86	85	92
 182	2	87	85	92
 183	2	88	85	92
 184	7	85	92	91
 185	3	85	92	95
 186	3	85	92	96
 187	2	98	97	99
 188	2	98	97	100
 189	4	99	97	100
 190	3	97	98	101
 191	3	97	98	102
 192	6	101	98	102
 193	7	92	91	98
 194	2	93	91	98
 195	2	94	91	98
 196	7	91	98	97
 197	3	91	98	101
 198	3	91	98	102
 199	2	104	103	105
 200	2	104	103	106
 201	4	105	103	106
 202	3	103	104	107
 203	3	103	104	108
 204	6	107	104	108
 205	7	98	97	104
 206	2	99	97	104
 207	2	100	97	104
 208	7	97	104	103
 209	3	97	104	107
 210	3	97	104	108
 211	2	110	109	111
 212	2	110	109	112
 213	4	111	109	112
 214	3	109	110	113
 215	3	109	110	114
 216	6	113	110	114
 217	7	104	103	110
 218	2	105	103	110
 219	2	106	103	110
 220	7	103	110	109
 221	3	103	110	113
 222	3	103	110	114
 223	2	116	115	117
 224	2	116	115	118
 225	4	117	115	118
 226	3	115	116	119
 227	3	115	116	120
 228	6	119	116	120
 229	7	110	109	116
 230	2	111	109	116
 231	2	112	109	116
 232	7	109	116	115
 233	3	109	116	119
 234	3	109	116	120
 235	2	122	121	123
 236	2	122	121	124
 237	4	123	121	124
 238	3	121	122	125
 239	3	121	122	126
 240	6	125	122	126
 241	7	116	115	122
 242	2	117	115	122
 243	2	118	115	122
 244	7	115	122	121
 245	3	115	122	125
 246	3	115	122	126
 247	2	128	127	129
 248	2	128	127	130
 249	4	129	127	130
 250	3	127	128	131
 251	3	127	128	132
 252	6	131	128	132
 253	7	122	121	128
 254	2	123	121	128
 255	2	124	121	128
 256	7	121	128	127
 257	3	121	128	131
 258	3	121	128	132
 259	2	134	133	135
 260	2	134	133	136
 261	4	135	133	136
 262	3	133	134	137
 263	3	133	134	138
 264	6	137	134	138
 265	7	128	127	134
 266	2	129	127	134
 267	2	130	127	134
 268	7	127	134	133
 269	3	127	134	137
 270	3	127	134	138
 271	2	140	139	141
 272	2	140	139	142
 273	4	141	139	142
 274	3	139	140	143
 275	3	139	140	144
 276	6	143	140	144
 277	7	134	133	140
 278	2	135	133	140
 279	2	136	133	140
 280	7	133	140	139
 281	3	133	140	143
 282	3	133	140	144
 283	2	146	145	147
 284	2	146	145	148
 285	4	147	145	148
 286	3	145	146	149
 287	3	145	146	150
 288	6	149	146	150
 289	7	140	139	146
 290	2	141	139	146
 291	2	142	139	146
 292	7	139	146	145
 293	3	139	146	149
 294	3	139	146	150
 295	2	152	151	153
 296	2	152	151	154
 297	4	153	151	154
 298	3	151	152	155
 299	3	151	152	156
 300	6	155	152	156
 301	7	146	145	152
 302	2	147	145	152
 303	2	148	145	152
 304	7	145	152	151
 305	3	145	152	155
 306	3	145	152	156
 307	2	158	157	159
 308	2	158	157	160
 309	4	159	157	160
 310	3	157	158	161
 311	3	157	158	162
 312	6	161	158	162
 313	7	152	151	158
 314	2	153	151	158
 315	2	154	151	158
 316	7	151	158	157
 317	3	151	158	161
 318	3	151	158	162
 319	2	164	163	165
 320	2	164	163	166
 321	4	165	163	166
 322	3	163	164	167
 323	3	163	164	168
 324	6	167	164	168
 325	7	158	157	164
 326	2	159	157	164
 327	2	160	157	164
 328	7	157	164	163
 329	3	157	164	167
 330	3	157	164	168
 331	2	170	169	171
 332	2	170	169	172
 333	4	171	169	172
 334	3	169	170	173
 335	3	169	170	174
 336	6	173	170	174
 337	7	164	163	170
 338	2	165	163	170
 339	2	166	163	170
 340	7	163	170	169
 341	3	163	170	173
 342	3	163	170	174
 343	5	1	2	175
 344	1	5	2	175
 345	1	6	2	175
 346	2	170	169	176
 347	4	171	169	176
 348	4	172	169	176

Dihedrals

   1	1	3	1	2	5
   2	1	3	1	2	6
   3	1	4	1	2	5
   4	1	4	1	2	6
   5	1	9	7	8	11
   6	1	9	7	8	12
   7	1	10	7	8	11
   8	1	10	7	8	12
   9	2	5	2	1	8
  10	2	6	2	1	8
  11	3	1	8	7	9
  12	3	1	8	7	10
  13	4	2	1	8	7
  14	2	2	1	8	11
  15	2	2	1	8	12
  16	3	3	1	8	7
  17	1	3	1	8	11
  18	1	3	1	8	12
  19	3	4	1	8	7
  20	1	4	1	8	11
  21	1	4	1	8	12
  22	1	15	13	14	17
  23	1	15	13	14	18
  24	1	16	13	14	17
  25	1	16	13	14	18
  26	2	11	8	7	14
  27	2	12	8	7	14
  28	4	1	8	7	14
  29	3	7	14	13	15
  30	3	7	14	13	16
  31	4	8	7	14	13
  32	2	8	7	14	17
  33	2	8	7	14	18
  34	3	9	7	14	13
  35	1	9	7	14	17
  36	1	9	7	14	18
  37	3	10	7	14	13
  38	1	10	7	14	17
  39	1	10	7	14	18
  40	1	21	19	20	23
  41	1	21	19	20	24
  42	1	22	19	20	23
  43	1	22	19	20	24
  44	2	17	14	13	20
  45	2	18	14	13	20
  46	4	7	14	13	20
  47	3	13	20	19	21
  48	3	13	20	19	22
  49	4	14	13	20	19
  50	2	14	13	20	23
  51	2	14	13	20	24
  52	3	15	13	20	19
  53	1	15	13	20	23
  54	1	15	13	20	24
  55	3	16	13	20	19
  56	1	16	13	20	23
  57	1	16	13	20	24
  58	1	27	25	26	29
  59	1	27	25	26	30
  60	1	28	25	26	29
  61	1	28	25	26	30
  62	2	23	20	19	26
  63	2	24	20	19	26
  64	4	13	20	19	26
  65	3	19	26	25	27
  66	3	19	26	25	28
  67	4	20	19	26	25
  68	2	20	19	26	29
  69	2	20	19	26	30
  70	3	21	19	26	25
  71	1	21	19	26	29
  72	1	21	19	26	30
  73	3	22	19	26	25
  74	1	22	19	26	29
  75	1	22	19	26	30
  76	1	33	31	32	35
  77	1	33	31	32	36
  78	1	34	31	32	35
  79	1	34	31	32	36
  80	2	29	26	25	32
  81	2	30	26	25	32
  82	4	19	26	25	32
  83	3	25	32	31	33
  84	3	25	32	31	34
  85	4	26	25	32	31
  86	2	26	25	32	35
  87	2	26	25	32	36
  88	3	27	25	32	31
  89	1	27	25	32	35
  90	1	27	25	32	36
  91	3	28	25	32	31
  92	1	28	25	32	35
  93	1	28	25	32	36
  94	1	39	37	38	41
  95	1	39	37	38	42
  96	1	40	37	38	41
  97	1	40	37	38	42
  98	2	35	32	31	38
  99	2	36	32	31	38
 100	4	25	32	31	38
 101	3	31	38	37	39
 102	3	31	38	37	40
 103	4	32	31	38	37
 104	2	32	31	38	41
 105	2	32	31	38	42
 106	3	33	31	38	37
 107	1	33	31	38	41
 108	1	33	31	38	42
 109	3	34	31	38	37
 110	1	34	31	38	41
 111	1	34	31	38	42
 112	1	45	43	44	47
 113	1	45	43	44	48
 114	1	46	43	44	47
 115	1	46	43	44	48
 116	2	41	38	37	44
 117	2	42	38	37	44
 118	4	31	38	37	44
 119	3	37	44	43	45
 120	3	37	44	43	46
 121	4	38	37	44	43
 122	2	38	37	44	47
 123	2	38	37	44	48
 124	3	39	37	44	43
 125	1	39	37	44	47
 126	1	39	37	44	48
 127	3	40	37	44	43
 128	1	40	37	44	47
 129	1	40	37	44	48
 130	1	51	49	50	53
 131	1	51	49	50	54
 132	1	52	49	50	53
 133	1	52	49	50	54
 134	2	47	44	43	50
 135	2	48	44	43	50
 136	4	37	44	43	50
 137	3	43	50	49	51
 138	3	43	50	49	52
 139	4	44	43	50	49
 140	2	44	43	50	53
 141	2	44	43	50	54
 142	3	45	43	50	49
 143	1	45	43	50	53
 144	1	45	43	50	54
 145	3	46	43	50	49
 146	1	46	43	50	53
 147	1	46	43	50	54
 148	1	57	55	56	59
 149	1	57	55	56	60
 150	1	58	55	56	59
 151	1	58	55	56	60
 152	2	53	50	49	56
 153	2	54	50	49	56
 154	4	43	50	49	56
 155	3	49	56	55	57
 156	3	49	56	55	58
 157	4	50	49	56	55
 158	2	50	49	56	59
 159	2	50	49	56	60
 160	3	51	49	56	55
 161	1	51	49	56	59
 162	1	51	49	56	60
 163	3	52	49	56	55
 164	1	52	49	56	59
 165	1	52	49	56	60
 166	1	63	61	62	65
 167	1	63	61	62	66
 168	1	64	61	62	65
 169	1	64	61	62	66
 170	2	59	56	55	62
 171	2	60	56	55	62
 172	4	49	56	55	62
 173	3	55	62	61	63
 174	3	55	62	61	64
 175	4	56	55	62	61
 176	2	56	55	62	65
 177	2	56	55	62	66
 178	3	57	55	62	61
 179	1	57	55	62	65
 180	1	57	55	62	66
 181	3	58	55	62	61
 182	1	58	55	62	65
 183	1	58	55	62	66
 184	1	69	67	68	71
 185	1	69	67	68	72
 186	1	70	67	68	71
 187	1	70	67	68	72
 188	2	65	62	61	68
 189	2	66	62	61	68
 190	4	55	62	61	68
 191	3	61	68	67	69
 192	3	61	68	67	70
 193	4	62	61	68	67
 194	2	62	61	68	71
 195	2	62	61	68	72
 196	3	63	61	68	67
 197	1	63	61	68	71
 198	1	63	61	68	72
 199	3	64	61	68	67
 200	1	64	61	68	71
 201	1	64	61	68	72
 202	1	75	73	74	77
 203	1	75	73	74	78
 204	1	76	73	74	77
 205	1	76	73	74	78
 206	2	71	68	67	74
 207	2	72	68	67	74
 208	4	61	68	67	74
 209	3	67	74	73	75
 210	3	67	74	73	76
 211	4	68	67	74	73
 212	2	68	67	74	77
 213	2	68	67	74	78
 214	3	69	67	74	73
 215	1	69	67	74	77
 216	1	69	67	74	78
 217	3	70	67	74	73
 218	1	70	67	74	77
 219	1	70	67	74	78
 220	1	81	79	80	83
 221	1	81	79	80	84
 222	1	82	79	80	83
 223	1	82	79	80	84
 224	2	77	74	73	80
 225	2	78	74	73	80
 226	4	67	74	73	80
 227	3	73	80	79	81
 228	3	73	80	79	82
 229	4	74	73	80	79
 230	2	74	73	80	83
 231	2	74	73	80	84
 232	3	75	73	80	79
 233	1	75	73	80	83
 234	1	75	73	80	84
 235	3	76	73	80	79
 236	1	76	73	80	83
 237	1	76	73	80	84
 238	1	87	85	86	89
 239	1	87	85	86	90
 240	1	88	85	86	89
 241	1	88	85	86	90
 242	2	83	80	79	86
 243	2	84	80	79	86
 244	4	73	80	79	86
 245	3	79	86	85	87
 246	3	79	86	85	88
 247	4	80	79	86	85
 248	2	80	79	86	89
 249	2	80	79	86	90
 250	3	81	79	86	85
 251	1	81	79	86	89
 252	1	81	79	86	90
 253	3	82	79	86	85
 254	1	82	79	86	89
 255	1	82	79	86	90
 256	1	93	91	92	95
 257	1	93	91	92	96
 258	1	94	91	92	95
 259	1	94	91	92	96
 260	2	89	86	85	92
 261	2	90	86	85	92
 262	4	79	86	85	92
 263	3	85	92	91	93
 264	3	85	92	91	94
 265	4	86	85	92	91
 266	2	86	85	92	95
 267	2	86	85	92	96
 268	3	87	85	92	91
 269	1	87	85	92	95
 270	1	87	85	92	96
 271	3	88	85	92	91
 272	1	88	85	92	95
 273	1	88	85	92	96
 274	1	99	97	98	101
 275	1	99	97	98	102
 276	1	100	97	98	101
 277	1	100	97	98	102
 278	2	95	92	91	98
 279	2	96	92	91	98
 280	4	85	92	91	98
 281	3	91	98	97	99
 282	3	91	98	97	100
 283	4	92	91	98	97
 284	2	92	91	98	101
 285	2	92	91	98	102
 286	3	93	91	98	97
 287	1	93	91	98	101
 288	1	93	91	98	102
 289	3	94	91	98	97
 290	1	94	91	98	101
 291	1	94	91	98	102
 292	1	105	103	104	107
 293	1	105	103	104	108
 294	1	106	103	104	107
 295	1	106	103	104	108