pySIMM System Object

110 atoms
109 bonds
216 angles
315 dihedrals
0 impropers

4 atom types
4 bond types
7 angle types
4 dihedral types

-76.748909 76.748909 xlo xhi
-76.748909 76.748909 ylo yhi
-76.748909 76.748909 zlo zhi

Masses

   1	12.01	# c3
   2	1.008	# hc
   3	19.0	# f
   4	1.008	# h2

Pair Coeffs

   1	0.1094	3.3996695084235347	# c3
   2	0.0157	2.649532787749369	# hc
   3	0.061	3.1181455134911875	# f
   4	0.0157	2.2931733004932333	# h2

Bond Coeffs

   1	330.6	1.0969	# c3,hc
   2	356.9	1.3497	# c3,f
   3	331.7	1.0961	# c3,h2
   4	300.9	1.5375	# c3,c3

Angle Coeffs

   1	51.15	108.79	# f,c3,h2
   2	46.34	109.8	# c3,c3,hc
   3	66.11	109.24	# c3,c3,f
   4	39.4	107.58	# hc,c3,hc
   5	46.25	110.22	# c3,c3,h2
   6	70.89	107.36	# f,c3,f
   7	62.86	111.51	# c3,c3,c3

Dihedral Coeffs

   1	2	0.0	3	0	0.19	1	0	# hc,c3,c3,f
   2	1	0.15555555555555556	3	0	# X,c3,c3,X
   3	1	0.16	3	0	# hc,c3,c3,c3
   4	3	0.18	3	0	0.25	2	180	0.2	1	180	# c3,c3,c3,c3

Atoms

   1	1	1	0.070548	4.69048	1.3831	-5.4931
   2	1	1	0.506757	4.65363	0.845118	-4.04464
   3	1	2	-0.012767	4.87031	2.46722	-5.49343
   4	1	2	-0.014806	5.53599	0.925401	-6.02257
   5	1	3	-0.274996	4.75876	1.86297	-3.16297
   6	1	3	-0.274736	5.70424	0.0221139	-3.83079
   7	1	1	0.070548	3.2599	1.60679	-7.6953
   8	1	1	0.506757	3.37102	1.07582	-6.23847
   9	1	2	-0.012767	3.07103	2.6886	-7.64975
  10	1	2	-0.014806	2.35954	1.17761	-8.15399
  11	1	3	-0.274996	2.34899	1.6084	-5.53209
  12	1	3	-0.274736	3.15139	-0.254738	-6.23225
  13	1	1	0.070548	4.99131	-0.0851075	-8.80148
  14	1	1	0.506757	4.47251	1.37695	-8.64152
  15	1	2	-0.012767	5.02083	-0.582061	-7.82723
  16	1	2	-0.014806	6.04272	-0.0444119	-9.11814
  17	1	3	-0.274996	4.15197	1.89956	-9.84477
  18	1	3	-0.274736	5.49939	2.14566	-8.21634
  19	1	1	0.070548	4.70132	-2.44958	-9.82071
  20	1	1	0.506757	4.22898	-0.970332	-9.82592
  21	1	2	-0.012767	4.38557	-2.92708	-10.7541
  22	1	2	-0.014806	5.79849	-2.45213	-9.88855
  23	1	3	-0.274996	4.46169	-0.504536	-11.0725
  24	1	3	-0.274736	2.89019	-0.890807	-9.65107
  25	1	1	0.070548	3.65451	-4.69539	-8.95894
  26	1	1	0.506757	4.27328	-3.31587	-8.59556
  27	1	2	-0.012767	3.66068	-5.34161	-8.07242
  28	1	2	-0.014806	4.33486	-5.18989	-9.66671
  29	1	3	-0.274996	5.3854	-3.54896	-7.86363
  30	1	3	-0.274736	3.46132	-2.65347	-7.7502
  31	1	1	0.070548	1.04169	-4.0852	-8.77055
  32	1	1	0.506757	2.22529	-4.6903	-9.58358
  33	1	2	-0.012767	1.19668	-3.00758	-8.63979
  34	1	2	-0.014806	0.139567	-4.16021	-9.3939
  35	1	3	-0.274996	2.26637	-4.03194	-10.7616
  36	1	3	-0.274736	1.92407	-5.96039	-9.93035
  37	1	1	0.070548	-0.491243	-4.01483	-6.72927
  38	1	1	0.506757	0.720377	-4.73119	-7.39543
  39	1	2	-0.012767	-0.223775	-2.95969	-6.5989
  40	1	2	-0.014806	-1.33697	-4.02377	-7.43102
  41	1	3	-0.274996	0.462151	-6.0448	-7.56611
  42	1	3	-0.274736	1.79971	-4.64366	-6.59229
  43	1	1	0.070548	-2.14281	-3.83043	-4.69196
  44	1	1	0.506757	-0.973078	-4.60477	-5.36962
  45	1	2	-0.012767	-2.41584	-4.35499	-3.76648
  46	1	2	-0.014806	-3.02901	-3.90374	-5.33926
  47	1	3	-0.274996	0.045785	-4.718	-4.49055
  48	1	3	-0.274736	-1.42151	-5.8636	-5.57128
  49	1	1	0.070548	-2.86119	-1.75346	-3.28779
  50	1	1	0.506757	-1.89221	-2.32741	-4.37154
  51	1	2	-0.012767	-3.7341	-2.41727	-3.20877
  52	1	2	-0.014806	-3.27064	-0.794706	-3.63517
  53	1	3	-0.274996	-0.602757	-2.10376	-4.04275
  54	1	3	-0.274736	-2.09167	-1.62577	-5.51003
  55	1	1	0.070548	-1.20584	-0.393039	-1.7636
  56	1	1	0.506757	-2.26791	-1.5386	-1.86173
  57	1	2	-0.012767	-0.212673	-0.8367	-1.61059
  58	1	2	-0.014806	-1.1493	0.111803	-2.7378
  59	1	3	-0.274996	-3.30133	-1.32626	-1.01853
  60	1	3	-0.274736	-1.7206	-2.6977	-1.43313
  61	1	1	0.070548	-1.22055	0.230444	0.802442
  62	1	1	0.506757	-1.42642	0.703997	-0.679334
  63	1	2	-0.012767	-1.26151	-0.86505	0.846045
  64	1	2	-0.014806	-0.201961	0.490984	1.12303
  65	1	3	-0.274996	-2.61603	1.30497	-0.909962
  66	1	3	-0.274736	-0.515586	1.67297	-0.923951
  67	1	1	0.070548	-2.06039	0.285116	3.29856
  68	1	1	0.506757	-2.22503	0.809673	1.83877
  69	1	2	-0.012767	-3.02258	0.45195	3.80242
  70	1	2	-0.014806	-1.9564	-0.808156	3.26321
  71	1	3	-0.274996	-3.47141	0.429952	1.47712
  72	1	3	-0.274736	-2.23527	2.16017	1.80499
  73	1	1	0.070548	-1.4053	0.742416	5.7031
  74	1	1	0.506757	-0.93403	0.854356	4.22062
  75	1	2	-0.012767	-2.35172	1.29352	5.78791
  76	1	2	-0.014806	-1.66685	-0.306604	5.90215
  77	1	3	-0.274996	0.195819	0.139782	4.0264
  78	1	3	-0.274736	-0.646601	2.13738	3.92172
  79	1	1	0.070548	-1.34477	1.51955	8.11031
  80	1	1	0.506757	-0.471952	1.2271	6.85287
  81	1	2	-0.012767	-2.11937	0.743453	8.18972
  82	1	2	-0.014806	-1.89564	2.45166	7.9238
  83	1	3	-0.274996	0.453456	0.276951	7.10982
  84	1	3	-0.274736	0.185411	2.35671	6.51214
  85	1	1	0.070548	-1.47373	2.51129	10.4646
  86	1	1	0.506757	-0.639167	1.62082	9.49214
  87	1	2	-0.012767	-1.23361	3.56117	10.2526
  88	1	2	-0.014806	-2.53942	2.39594	10.2244
  89	1	3	-0.274996	0.59619	2.15484	9.37225
  90	1	3	-0.274736	-0.490367	0.368128	9.9793
  91	1	1	0.070548	-1.72001	3.39421	12.9411
  92	1	1	0.506757	-1.28613	2.24244	11.9854
  93	1	2	-0.012767	-1.73554	2.98811	13.9623
  94	1	2	-0.014806	-0.940271	4.1683	12.948
  95	1	3	-0.274996	0.0114644	1.98508	12.2604
  96	1	3	-0.274736	-1.97071	1.12668	12.3258
  97	1	1	0.070548	-3.5745	4.93454	13.8696
  98	1	1	0.506757	-3.08749	4.07758	12.6585
  99	1	2	-0.012767	-2.99507	4.66962	14.7642
 100	1	2	-0.014806	-3.33738	5.99205	13.685
 101	1	3	-0.274996	-4.00363	3.16132	12.2789
 102	1	3	-0.274736	-2.94523	4.90718	11.5998
 103	1	1	0.070548	-6.06827	5.26097	13.1199
 104	1	1	0.506757	-5.07878	4.82188	14.233
 105	1	2	-0.012767	-5.59669	5.28611	12.1308
 106	1	2	-0.014806	-6.92688	4.57842	13.0634
 107	1	3	-0.274996	-5.2955	5.60242	15.316
 108	1	3	-0.274736	-5.35822	3.5633	14.6417
 109	1	4	0	3.72993	0.291877	-3.83972
 110	1	2	0	-6.46019	6.26726	13.3182

Velocities

   1	-0.000778398	-0.000279631	0.00012017
   2	-0.000450943	0.000363202	0.000214146
   3	-0.000911161	-0.000194304	-0.000402873
   4	-0.000841431	-0.000675505	0.00024217
   5	-9.38705e-05	0.000959095	-0.000325718
   6	8.11513e-05	0.000822224	0.000278756
   7	-0.000181509	-0.000261047	-8.22739e-06
   8	-0.000620654	-0.000544504	-6.09991e-05
   9	0.000110632	-0.00013508	0.000335769
  10	2.15329e-05	0.000297215	-0.000636929
  11	-0.00108048	-0.000960381	-0.000176267
  12	-0.000390698	-0.000596612	-0.000413531
  13	0.000282766	-8.37571e-05	-0.000310456
  14	0.000525956	-4.47269e-05	0.000537413
  15	0.000795666	-0.000387755	-0.000527409
  16	0.000239713	0.000231533	-0.000872976
  17	0.00180485	0.00108844	0.000751306
  18	0.000545379	-0.000771067	0.00190415
  19	-0.000331153	-0.000107218	-0.00057512
  20	7.29282e-05	0.000105661	-0.000504064
  21	-0.000669166	-0.000105666	-0.000401044
  22	-0.000379223	-0.000404175	-0.000860759
  23	0.000285358	0.000347981	-0.000375163
  24	0.000103566	0.000530874	-0.000602509
  25	-0.000753608	0.000122767	0.000597903
  26	-0.000202621	0.000155419	-0.000290416
  27	-0.000957556	0.00079168	0.00108866
  28	-0.00101589	-0.000782005	0.000975864
  29	-7.9499e-07	2.82282e-05	-0.000636956
  30	0.000291263	0.000536656	-0.000157214
  31	-0.000489328	0.000659302	0.00097787
  32	-0.000852263	0.000245975	0.000815705
  33	7.50532e-05	0.000555529	0.00122256
  34	-0.000590533	0.00124494	0.00106191
  35	-0.000858979	3.18277e-05	0.000709985
  36	-0.00126516	0.00024496	0.00113803
  37	0.000205334	0.000933939	0.00141817
  38	-0.000531814	0.000418742	0.000843199
  39	0.00116634	0.000625977	0.00186298
  40	3.72982e-06	0.00196174	0.00166491
  41	-0.00154417	0.000652797	0.000545222
  42	-0.00027441	-0.000469017	0.000594189
  43	0.00151574	0.000749911	0.00241038
  44	0.000299475	0.000342956	0.00116859
  45	0.00354282	0.0017033	0.00353085
  46	0.000309317	-1.34962e-05	0.0042215
  47	0.00051203	-0.00135124	0.000703888
  48	-0.00133658	0.0010466	0.000345162
  49	0.00170664	0.00108601	0.000228435
  50	0.00158894	0.000972462	0.000394129
  51	0.00136633	0.00149452	-0.000148182
  52	0.00238191	0.00148652	0.000613957
  53	0.00178532	0.00145891	-0.000464127
  54	0.00065775	-7.87227e-05	-0.000101461
  55	0.00129155	0.000291405	3.64996e-05
  56	0.00182965	-5.37838e-05	0.00011098
  57	0.00161053	0.000820414	-0.000405048
  58	0.000696529	0.000822342	0.000257592
  59	0.0018681	-0.00108276	0.000466822
  60	0.00251531	-6.15055e-05	-0.000790764
  61	-0.00138017	-0.00245255	-1.59041e-05
  62	0.000448576	-0.000638359	0.000481396
  63	-0.00403967	-0.00240459	-0.000959508
  64	-0.000931633	-0.0051783	0.000738717
  65	0.000592004	-0.00061019	-0.000363772
  66	0.000868945	-0.000569664	0.00245876
  67	-0.000924015	-0.000335652	-0.000345543
  68	-0.000920379	-0.00110391	-0.00048472
  69	-0.00099372	-0.00027765	-0.000511208
  70	-0.000610391	-0.000319269	0.000179383
  71	-0.00110703	-0.000809	-0.000227628
  72	-0.000275388	-0.00113091	-0.00151476
  73	-0.00182945	0.000784332	-0.000739929
  74	-0.00119125	0.000257628	-0.000533495
  75	-0.0013809	0.00164365	-0.000947423
  76	-0.00283213	0.00101726	-0.000808183
  77	-0.00103214	0.000296871	0.000198714
  78	-0.0012218	0.000185859	-0.000992385
  79	-0.000992396	0.00115369	-0.000709304
  80	-0.0014817	-0.000233694	-0.00069335
  81	-0.00181287	0.00201165	-0.000183474
  82	-3.25214e-05	0.00168859	-0.000820026
  83	-0.00295237	-0.00159513	-0.000528594
  84	0.000204883	-0.00131455	-0.00100308
  85	0.000513243	0.000737957	-0.000574867
  86	-0.000221387	0.000811369	-0.00108608
  87	0.0010063	0.000767966	-0.000143838
  88	0.000378968	0.00148811	-0.000258825
  89	-0.000328486	0.000833695	-0.00180118
  90	6.60622e-05	0.000804557	-0.00129416
  91	0.000689547	0.000151366	-0.000881255
  92	0.000840787	0.000265303	-0.000746812
  93	0.00211033	0.000768669	-0.000574542
  94	-0.000419902	0.00123879	-0.00217778
  95	0.000991422	0.000672985	-0.000868314
  96	0.00118653	0.000122237	-0.000667644
  97	0.000356574	-0.00101189	-0.000399634
  98	-0.000596331	-0.00196116	-2.51168e-05
  99	0.000769629	-9.79742e-05	-0.000428199
 100	-0.000168276	-0.001183	-0.00175786
 101	0.000201423	-0.00362614	0.00221425
 102	-0.00310814	-0.00298963	-0.00119662
 103	0.00149026	0.000105005	-0.000624235
 104	0.000391982	-0.000457446	-4.9494e-05
 105	0.00198309	-0.00189129	-0.000344131
 106	0.000489938	0.00111959	-0.00100312
 107	0.000797718	-0.000893668	0.000252674
 108	-0.000316743	-0.000632968	-0.000245997
 109	-0.000134073	0.000213306	0.00111261
 110	0.0032069	0.000935058	-0.00183038

Bonds

   1	4	1	2
   2	1	1	3
   3	1	1	4
   4	2	2	5
   5	2	2	6
   6	4	7	8
   7	1	7	9
   8	1	7	10
   9	2	8	11
  10	2	8	12
  11	4	1	8
  12	4	13	14
  13	1	13	15
  14	1	13	16
  15	2	14	17
  16	2	14	18
  17	4	7	14
  18	4	19	20
  19	1	19	21
  20	1	19	22
  21	2	20	23
  22	2	20	24
  23	4	13	20
  24	4	25	26
  25	1	25	27
  26	1	25	28
  27	2	26	29
  28	2	26	30
  29	4	19	26
  30	4	31	32
  31	1	31	33
  32	1	31	34
  33	2	32	35
  34	2	32	36
  35	4	25	32
  36	4	37	38
  37	1	37	39
  38	1	37	40
  39	2	38	41
  40	2	38	42
  41	4	31	38
  42	4	43	44
  43	1	43	45
  44	1	43	46
  45	2	44	47
  46	2	44	48
  47	4	37	44
  48	4	49	50
  49	1	49	51
  50	1	49	52
  51	2	50	53
  52	2	50	54
  53	4	43	50
  54	4	55	56
  55	1	55	57
  56	1	55	58
  57	2	56	59
  58	2	56	60
  59	4	49	56
  60	4	61	62
  61	1	61	63
  62	1	61	64
  63	2	62	65
  64	2	62	66
  65	4	55	62
  66	4	67	68
  67	1	67	69
  68	1	67	70
  69	2	68	71
  70	2	68	72
  71	4	61	68
  72	4	73	74
  73	1	73	75
  74	1	73	76
  75	2	74	77
  76	2	74	78
  77	4	67	74
  78	4	79	80
  79	1	79	81
  80	1	79	82
  81	2	80	83
  82	2	80	84
  83	4	73	80
  84	4	85	86
  85	1	85	87
  86	1	85	88
  87	2	86	89
  88	2	86	90
  89	4	79	86
  90	4	91	92
  91	1	91	93
  92	1	91	94
  93	2	92	95
  94	2	92	96
  95	4	85	92
  96	4	97	98
  97	1	97	99
  98	1	97	100
  99	2	98	101
 100	2	98	102
 101	4	91	98
 102	4	103	104
 103	1	103	105
 104	1	103	106
 105	2	104	107
 106	2	104	108
 107	4	97	104
 108	3	2	109
 109	1	103	110

Angles

   1	2	2	1	3
   2	2	2	1	4
   3	4	3	1	4
   4	3	1	2	5
   5	3	1	2	6
   6	6	5	2	6
   7	2	8	7	9
   8	2	8	7	10
   9	4	9	7	10
  10	3	7	8	11
  11	3	7	8	12
  12	6	11	8	12
  13	7	2	1	8
  14	2	3	1	8
  15	2	4	1	8
  16	7	1	8	7
  17	3	1	8	11
  18	3	1	8	12
  19	2	14	13	15
  20	2	14	13	16
  21	4	15	13	16
  22	3	13	14	17
  23	3	13	14	18
  24	6	17	14	18
  25	7	8	7	14
  26	2	9	7	14
  27	2	10	7	14
  28	7	7	14	13
  29	3	7	14	17
  30	3	7	14	18
  31	2	20	19	21
  32	2	20	19	22
  33	4	21	19	22
  34	3	19	20	23
  35	3	19	20	24
  36	6	23	20	24
  37	7	14	13	20
  38	2	15	13	20
  39	2	16	13	20
  40	7	13	20	19
  41	3	13	20	23
  42	3	13	20	24
  43	2	26	25	27
  44	2	26	25	28
  45	4	27	25	28
  46	3	25	26	29
  47	3	25	26	30
  48	6	29	26	30
  49	7	20	19	26
  50	2	21	19	26
  51	2	22	19	26
  52	7	19	26	25
  53	3	19	26	29
  54	3	19	26	30
  55	2	32	31	33
  56	2	32	31	34
  57	4	33	31	34
  58	3	31	32	35
  59	3	31	32	36
  60	6	35	32	36
  61	7	26	25	32
  62	2	27	25	32
  63	2	28	25	32
  64	7	25	32	31
  65	3	25	32	35
  66	3	25	32	36
  67	2	38	37	39
  68	2	38	37	40
  69	4	39	37	40
  70	3	37	38	41
  71	3	37	38	42
  72	6	41	38	42
  73	7	32	31	38
  74	2	33	31	38
  75	2	34	31	38
  76	7	31	38	37
  77	3	31	38	41
  78	3	31	38	42
  79	2	44	43	45
  80	2	44	43	46
  81	4	45	43	46
  82	3	43	44	47
  83	3	43	44	48
  84	6	47	44	48
  85	7	38	37	44
  86	2	39	37	44
  87	2	40	37	44
  88	7	37	44	43
  89	3	37	44	47
  90	3	37	44	48
  91	2	50	49	51
  92	2	50	49	52
  93	4	51	49	52
  94	3	49	50	53
  95	3	49	50	54
  96	6	53	50	54
  97	7	44	43	50
  98	2	45	43	50
  99	2	46	43	50
 100	7	43	50	49
 101	3	43	50	53
 102	3	43	50	54
 103	2	56	55	57
 104	2	56	55	58
 105	4	57	55	58
 106	3	55	56	59
 107	3	55	56	60
 108	6	59	56	60
 109	7	50	49	56
 110	2	51	49	56
 111	2	52	49	56
 112	7	49	56	55
 113	3	49	56	59
 114	3	49	56	60
 115	2	62	61	63
 116	2	62	61	64
 117	4	63	61	64
 118	3	61	62	65
 119	3	61	62	66
 120	6	65	62	66
 121	7	56	55	62
 122	2	57	55	62
 123	2	58	55	62
 124	7	55	62	61
 125	3	55	62	65
 126	3	55	62	66
 127	2	68	67	69
 128	2	68	67	70
 129	4	69	67	70
 130	3	67	68	71
 131	3	67	68	72
 132	6	71	68	72
 133	7	62	61	68
 134	2	63	61	68
 135	2	64	61	68
 136	7	61	68	67
 137	3	61	68	71
 138	3	61	68	72
 139	2	74	73	75
 140	2	74	73	76
 141	4	75	73	76
 142	3	73	74	77
 143	3	73	74	78
 144	6	77	74	78
 145	7	68	67	74
 146	2	69	67	74
 147	2	70	67	74
 148	7	67	74	73
 149	3	67	74	77
 150	3	67	74	78
 151	2	80	79	81
 152	2	80	79	82
 153	4	81	79	82
 154	3	79	80	83
 155	3	79	80	84
 156	6	83	80	84
 157	7	74	73	80
 158	2	75	73	80
 159	2	76	73	80
 160	7	73	80	79
 161	3	73	80	83
 162	3	73	80	84
 163	2	86	85	87
 164	2	86	85	88
 165	4	87	85	88
 166	3	85	86	89
 167	3	85	86	90
 168	6	89	86	90
 169	7	80	79	86
 170	2	81	79	86
 171	2	82	79	86
 172	7	79	86	85
 173	3	79	86	89
 174	3	79	86	90
 175	2	92	91	93
 176	2	92	91	94
 177	4	93	91	94
 178	3	91	92	95
 179	3	91	92	96
 180	6	95	92	96
 181	7	86	85	92
 182	2	87	85	92
 183	2	88	85	92
 184	7	85	92	91
 185	3	85	92	95
 186	3	85	92	96
 187	2	98	97	99
 188	2	98	97	100
 189	4	99	97	100
 190	3	97	98	101
 191	3	97	98	102
 192	6	101	98	102
 193	7	92	91	98
 194	2	93	91	98
 195	2	94	91	98
 196	7	91	98	97
 197	3	91	98	101
 198	3	91	98	102
 199	2	104	103	105
 200	2	104	103	106
 201	4	105	103	106
 202	3	103	104	107
 203	3	103	104	108
 204	6	107	104	108
 205	7	98	97	104
 206	2	99	97	104
 207	2	100	97	104
 208	7	97	104	103
 209	3	97	104	107
 210	3	97	104	108
 211	5	1	2	109
 212	1	5	2	109
 213	1	6	2	109
 214	2	104	103	110
 215	4	105	103	110
 216	4	106	103	110

Dihedrals

   1	1	3	1	2	5
   2	1	3	1	2	6
   3	1	4	1	2	5
   4	1	4	1	2	6
   5	1	9	7	8	11
   6	1	9	7	8	12
   7	1	10	7	8	11
   8	1	10	7	8	12
   9	2	5	2	1	8
  10	2	6	2	1	8
  11	3	1	8	7	9
  12	3	1	8	7	10
  13	4	2	1	8	7
  14	2	2	1	8	11
  15	2	2	1	8	12
  16	3	3	1	8	7
  17	1	3	1	8	11
  18	1	3	1	8	12
  19	3	4	1	8	7
  20	1	4	1	8	11
  21	1	4	1	8	12
  22	1	15	13	14	17
  23	1	15	13	14	18
  24	1	16	13	14	17
  25	1	16	13	14	18
  26	2	11	8	7	14
  27	2	12	8	7	14
  28	4	1	8	7	14
  29	3	7	14	13	15
  30	3	7	14	13	16
  31	4	8	7	14	13
  32	2	8	7	14	17
  33	2	8	7	14	18
  34	3	9	7	14	13
  35	1	9	7	14	17
  36	1	9	7	14	18
  37	3	10	7	14	13
  38	1	10	7	14	17
  39	1	10	7	14	18
  40	1	21	19	20	23
  41	1	21	19	20	24
  42	1	22	19	20	23
  43	1	22	19	20	24
  44	2	17	14	13	20
  45	2	18	14	13	20
  46	4	7	14	13	20
  47	3	13	20	19	21
  48	3	13	20	19	22
  49	4	14	13	20	19
  50	2	14	13	20	23
  51	2	14	13	20	24
  52	3	15	13	20	19
  53	1	15	13	20	23
  54	1	15	13	20	24
  55	3	16	13	20	19
  56	1	16	13	20	23
  57	1	16	13	20	24
  58	1	27	25	26	29
  59	1	27	25	26	30
  60	1	28	25	26	29
  61	1	28	25	26	30
  62	2	23	20	19	26
  63	2	24	20	19	26
  64	4	13	20	19	26
  65	3	19	26	25	27
  66	3	19	26	25	28
  67	4	20	19	26	25
  68	2	20	19	26	29
  69	2	20	19	26	30
  70	3	21	19	26	25
  71	1	21	19	26	29
  72	1	21	19	26	30
  73	3	22	19	26	25
  74	1	22	19	26	29
  75	1	22	19	26	30
  76	1	33	31	32	35
  77	1	33	31	32	36
  78	1	34	31	32	35
  79	1	34	31	32	36
  80	2	29	26	25	32
  81	2	30	26	25	32
  82	4	19	26	25	32
  83	3	25	32	31	33
  84	3	25	32	31	34
  85	4	26	25	32	31
  86	2	26	25	32	35
  87	2	26	25	32	36
  88	3	27	25	32	31
  89	1	27	25	32	35
  90	1	27	25	32	36
  91	3	28	25	32	31
  92	1	28	25	32	35
  93	1	28	25	32	36
  94	1	39	37	38	41
  95	1	39	37	38	42
  96	1	40	37	38	41
  97	1	40	37	38	42
  98	2	35	32	31	38
  99	2	36	32	31	38
 100	4	25	32	31	38
 101	3	31	38	37	39
 102	3	31	38	37	40
 103	4	32	31	38	37
 104	2	32	31	38	41
 105	2	32	31	38	42
 106	3	33	31	38	37
 107	1	33	31	38	41
 108	1	33	31	38	42
 109	3	34	31	38	37
 110	1	34	31	38	41
 111	1	34	31	38	42
 112	1	45	43	44	47
 113	1	45	43	44	48
 114	1	46	43	44	47
 115	1	46	43	44	48
 116	2	41	38	37	44
 117	2	42	38	37	44
 118	4	31	38	37	44
 119	3	37	44	43	45
 120	3	37	44	43	46
 121	4	38	37	44	43
 122	2	38	37	44	47
 123	2	38	37	44	48
 124	3	39	37	44	43
 125	1	39	37	44	47
 126	1	39	37	44	48
 127	3	40	37	44	43
 128	1	40	37	44	47
 129	1	40	37	44	48
 130	1	51	49	50	53
 131	1	51	49	50	54
 132	1	52	49	50	53
 133	1	52	49	50	54
 134	2	47	44	43	50
 135	2	48	44	43	50
 136	4	37	44	43	50
 137	3	43	50	49	51
 138	3	43	50	49	52
 139	4	44	43	50	49
 140	2	44	43	50	53
 141	2	44	43	50	54
 142	3	45	43	50	49
 143	1	45	43	50	53
 144	1	45	43	50	54
 145	3	46	43	50	49
 146	1	46	43	50	53
 147	1	46	43	50	54
 148	1	57	55	56	59
 149	1	57	55	56	60
 150	1	58	55	56	59
 151	1	58	55	56	60
 152	2	53	50	49	56
 153	2	54	50	49	56
 154	4	43	50	49	56
 155	3	49	56	55	57
 156	3	49	56	55	58
 157	4	50	49	56	55
 158	2	50	49	56	59
 159	2	50	49	56	60
 160	3	51	49	56	55
 161	1	51	49	56	59
 162	1	51	49	56	60
 163	3	52	49	56	55
 164	1	52	49	56	59
 165	1	52	49	56	60
 166	1	63	61	62	65
 167	1	63	61	62	66
 168	1	64	61	62	65
 169	1	64	61	62	66
 170	2	59	56	55	62
 171	2	60	56	55	62
 172	4	49	56	55	62
 173	3	55	62	61	63
 174	3	55	62	61	64
 175	4	56	55	62	61
 176	2	56	55	62	65
 177	2	56	55	62	66
 178	3	57	55	62	61
 179	1	57	55	62	65
 180	1	57	55	62	66
 181	3	58	55	62	61
 182	1	58	55	62	65
 183	1	58	55	62	66
 184	1	69	67	68	71
 185	1	69	67	68	72
 186	1	70	67	68	71
 187	1	70	67	68	72
 188	2	65	62	61	68
 189	2	66	62	61	68
 190	4	55	62	61	68
 191	3	61	68	67	69
 192	3	61	68	67	70
 193	4	62	61	68	67
 194	2	62	61	68	71
 195	2	62	61	68	72
 196	3	63	61	68	67
 197	1	63	61	68	71
 198	1	63	61	68	72
 199	3	64	61	68	67
 200	1	64	61	68	71
 201	1	64	61	68	72
 202	1	75	73	74	77
 203	1	75	73	74	78
 204	1	76	73	74	77
 205	1	76	73	74	78
 206	2	71	68	67	74
 207	2	72	68	67	74
 208	4	61	68	67	74
 209	3	67	74	73	75
 210	3	67	74	73	76
 211	4	68	67	74	73
 212	2	68	67	74	77
 213	2	68	67	74	78
 214	3	69	67	74	73
 215	1	69	67	74	77
 216	1	69	67	74	78
 217	3	70	67	74	73
 218	1	70	67	74	77
 219	1	70	67	74	78
 220	1	81	79	80	83
 221	1	81	79	80	84
 222	1	82	79	80	83
 223	1	82	79	80	84
 224	2	77	74	73	80
 225	2	78	74	73	80
 226	4	67	74	73	80
 227	3	73	80	79	81
 228	3	73	80	79	82
 229	4	74	73	80	79
 230	2	74	73	80	83
 231	2	74	73	80	84
 232	3	75	73	80	79
 233	1	75	73	80	83
 234	1	75	73	80	84
 235	3	76	73	80	79
 236	1	76	73	80	83
 237	1	76	73	80	84
 238	1	87	85	86	89
 239	1	87	85	86	90
 240	1	88	85	86	89
 241	1	88	85	86	90
 242	2	83	80	79	86
 243	2	84	80	79	86
 244	4	73	80	79	86
 245	3	79	86	85	87
 246	3	79	86	85	88
 247	4	80	79	86	85
 248	2	80	79	86	89
 249	2	80	79	86	90
 250	3	81	79	86	85
 251	1	81	79	86	89
 252	1	81	79	86	90
 253	3	82	79	86	85
 254	1	82	79	86	89
 255	1	82	79	86	90
 256	1	93	91	92	95
 257	1	93	91	92	96
 258	1	94	91	92	95
 259	1	94	91	92	96
 260	2	89	86	85	92
 261	2	90	86	85	92
 262	4	79	86	85	92
 263	3	85	92	91	93
 264	3	85	92	91	94
 265	4	86	85	92	91
 266	2	86	85	92	95
 267	2	86	85	92	96
 268	3	87	85	92	91
 269	1	87	85	92	95
 270	1	87	85	92	96
 271	3	88	85	92	91
 272	1	88	85	92	95
 273	1	88	85	92	96
 274	1	99	97	98	101
 275	1	99	97	98	102
 276	1	100	97	98	101
 277	1	100	97	98	102
 278	2	95	92	91	98
 279	2	96	92	91	98
 280	4	85	92	91	98
 281	3	91	98	97	99
 282	3	91	98	97	100
 283	4	92	91	98	97
 284	2	92	91	98	101
 285	2	92	91	98	102
 286	3	93	91	98	97
 287	1	93	91	98	101
 288	1	93	91	98	102
 289	3	94	91	98	97
 290	1	94	91	98	101
 291	1	94	91	98	102
 292	1	105	103	104	107
 293	1	105	103	104	108
 294	1	106	103	104	107
 295	1	106	103	104	108
 296	2	101	98	97	104
 297	2	102	98	97	104
 298	4	91	98	97	104
 299	3	97	104	103	105
 300	3	97	104	103	106
 301	4	98	97	104	103
 302	2	98	97	104	107
 303	2	98	97	104	108
 304	3	99	97	104	103
 305	1	99	97	104	107
 306	1	99	97	104	108
 307	3	100	97	104	103
 308	1	100	97	104	107
 309	1	100	97	104	108
 310	2	3	1	2	109
 311	2	4	1	2	109
 312	2	8	1	2	109
 313	1	107	104	103	110
 314	1	108	104	103	110
 315	3	97	104	103	110

