pySIMM System Object

224 atoms
223 bonds
444 angles
657 dihedrals
0 impropers

4 atom types
4 bond types
7 angle types
4 dihedral types

-98.557589 98.557589 xlo xhi
-98.557589 98.557589 ylo yhi
-98.557589 98.557589 zlo zhi

Masses

   1	12.01	# c3
   2	1.008	# hc
   3	19.0	# f
   4	1.008	# h2

Pair Coeffs

   1	0.1094	3.3996695084235347	# c3
   2	0.0157	2.649532787749369	# hc
   3	0.061	3.1181455134911875	# f
   4	0.0157	2.2931733004932333	# h2

Bond Coeffs

   1	330.6	1.0969	# c3,hc
   2	356.9	1.3497	# c3,f
   3	331.7	1.0961	# c3,h2
   4	300.9	1.5375	# c3,c3

Angle Coeffs

   1	51.15	108.79	# f,c3,h2
   2	46.34	109.8	# c3,c3,hc
   3	66.11	109.24	# c3,c3,f
   4	39.4	107.58	# hc,c3,hc
   5	46.25	110.22	# c3,c3,h2
   6	70.89	107.36	# f,c3,f
   7	62.86	111.51	# c3,c3,c3

Dihedral Coeffs

   1	2	0.0	3	0	0.19	1	0	# hc,c3,c3,f
   2	1	0.15555555555555556	3	0	# X,c3,c3,X
   3	1	0.16	3	0	# hc,c3,c3,c3
   4	3	0.18	3	0	0.25	2	180	0.2	1	180	# c3,c3,c3,c3

Atoms

   1	1	1	0.070548	5.62663	-6.07352	-23.5959
   2	1	1	0.506757	6.85089	-6.51482	-22.7626
   3	1	2	-0.012767	5.13395	-6.95202	-24.0341
   4	1	2	-0.014806	4.8941	-5.60306	-22.9284
   5	1	3	-0.274996	6.71507	-7.80863	-22.3991
   6	1	3	-0.274736	6.93312	-5.79083	-21.6249
   7	1	1	0.070548	4.89538	-4.73459	-25.7225
   8	1	1	0.506757	6.03274	-5.10028	-24.7266
   9	1	2	-0.012767	4.44099	-5.67303	-26.0697
  10	1	2	-0.014806	5.33435	-4.28955	-26.6243
  11	1	3	-0.274996	7.01631	-5.67989	-25.4513
  12	1	3	-0.274736	6.58303	-3.99445	-24.1853
  13	1	1	0.070548	4.11971	-2.36221	-24.7743
  14	1	1	0.506757	3.75569	-3.81264	-25.204
  15	1	2	-0.012767	4.71184	-2.4036	-23.8532
  16	1	2	-0.014806	3.18859	-1.84972	-24.4953
  17	1	3	-0.274996	2.79703	-3.76258	-26.1553
  18	1	3	-0.274736	3.14587	-4.41357	-24.1601
  19	1	1	0.070548	4.94858	0.01941	-25.4706
  20	1	1	0.506757	4.85122	-1.48783	-25.8328
  21	1	2	-0.012767	5.52131	0.523138	-26.2578
  22	1	2	-0.014806	3.94302	0.459402	-25.523
  23	1	3	-0.274996	4.20828	-1.56813	-27.0177
  24	1	3	-0.274736	6.09297	-1.95864	-26.0727
  25	1	1	0.070548	5.95603	1.84282	-23.918
  26	1	1	0.506757	5.55416	0.349855	-24.0762
  27	1	2	-0.012767	5.83577	2.15171	-22.8727
  28	1	2	-0.014806	5.22103	2.44884	-24.4657
  29	1	3	-0.274996	4.61679	0.0867243	-23.1388
  30	1	3	-0.274736	6.59419	-0.458388	-23.7855
  31	1	1	0.070548	8.61103	1.77198	-23.5821
  32	1	1	0.506757	7.37916	2.2304	-24.4181
  33	1	2	-0.012767	8.7748	0.69511	-23.7123
  34	1	2	-0.014806	9.5045	2.24482	-24.0132
  35	1	3	-0.274996	7.54891	1.76919	-25.6756
  36	1	3	-0.274736	7.42089	3.57515	-24.5467
  37	1	1	0.070548	9.97314	1.89086	-21.4226
  38	1	1	0.506757	8.57613	2.0943	-22.0664
  39	1	2	-0.012767	10.3901	0.943598	-21.7919
  40	1	2	-0.014806	10.6558	2.66293	-21.7994
  41	1	3	-0.274996	8.17112	3.36847	-21.876
  42	1	3	-0.274736	7.66808	1.30331	-21.4578
  43	1	1	0.070548	9.28261	2.98935	-19.0899
  44	1	1	0.506757	10.015	1.85723	-19.8666
  45	1	2	-0.012767	9.20492	2.67332	-18.0414
  46	1	2	-0.014806	8.24634	3.06904	-19.4363
  47	1	3	-0.274996	11.3107	1.81659	-19.4854
  48	1	3	-0.274736	9.50729	0.675818	-19.4499
  49	1	1	0.070548	9.05128	5.56169	-18.6625
  50	1	1	0.506757	9.95897	4.38895	-19.1242
  51	1	2	-0.012767	8.28437	5.7311	-19.4311
  52	1	2	-0.014806	9.65633	6.47908	-18.642
  53	1	3	-0.274996	11.0781	4.38239	-18.3665
  54	1	3	-0.274736	10.3749	4.67593	-20.3755
  55	1	1	0.070548	9.29945	5.09411	-16.1044
  56	1	1	0.506757	8.34247	5.40997	-17.2888
  57	1	2	-0.012767	9.72478	4.09291	-16.2461
  58	1	2	-0.014806	10.1484	5.79052	-16.1357
  59	1	3	-0.274996	7.6844	6.56643	-17.0609
  60	1	3	-0.274736	7.39044	4.45798	-17.3954
  61	1	1	0.070548	9.68191	4.62892	-13.6337
  62	1	1	0.506757	8.66546	5.14206	-14.689
  63	1	2	-0.012767	9.92934	3.58397	-13.8678
  64	1	2	-0.014806	10.6219	5.18675	-13.7441
  65	1	3	-0.274996	7.55502	4.37408	-14.6575
  66	1	3	-0.274736	8.29973	6.40823	-14.3975
  67	1	1	0.070548	10.2881	4.05944	-11.2283
  68	1	1	0.506757	9.22482	4.70818	-12.1522
  69	1	2	-0.012767	10.3575	2.99112	-11.4767
  70	1	2	-0.014806	11.2728	4.48287	-11.4704
  71	1	3	-0.274996	8.04935	4.0614	-11.9993
  72	1	3	-0.274736	9.02704	5.9924	-11.7888
  73	1	1	0.070548	8.68547	3.64629	-9.21267
  74	1	1	0.506757	10.0556	4.19595	-9.69858
  75	1	2	-0.012767	7.90151	4.37451	-9.46084
  76	1	2	-0.014806	8.44582	2.73403	-9.7761
  77	1	3	-0.274996	11.0745	3.53971	-9.10144
  78	1	3	-0.274736	10.1898	5.48921	-9.33118
  79	1	1	0.070548	7.1177	3.01415	-7.303
  80	1	1	0.506757	8.58582	3.31699	-7.7027
  81	1	2	-0.012767	6.62513	2.47748	-8.12611
  82	1	2	-0.014806	6.57448	3.96442	-7.20527
  83	1	3	-0.274996	9.37399	2.25567	-7.42121
  84	1	3	-0.274736	9.02954	4.355	-6.96039
  85	1	1	0.070548	7.67664	2.75008	-4.76028
  86	1	1	0.506757	6.9314	2.18546	-6.00493
  87	1	2	-0.012767	8.75719	2.75006	-4.94826
  88	1	2	-0.014806	7.39373	3.80507	-4.6395
  89	1	3	-0.274996	7.29962	0.911076	-6.25741
  90	1	3	-0.274736	5.60378	2.13183	-5.76204
  91	1	1	0.070548	7.98064	0.555325	-3.38143
  92	1	1	0.506757	7.43621	2.01239	-3.41338
  93	1	2	-0.012767	7.404	-0.0592621	-4.08153
  94	1	2	-0.014806	9.01251	0.557872	-3.75939
  95	1	3	-0.274996	6.12169	2.03746	-3.10545
  96	1	3	-0.274736	8.04196	2.74587	-2.45549
  97	1	1	0.070548	6.50453	-0.426755	-1.48166
  98	1	1	0.506757	7.94598	-0.181571	-2.01428
  99	1	2	-0.012767	6.05297	0.527223	-1.19046
 100	1	2	-0.014806	5.89089	-0.792807	-2.31629
 101	1	3	-0.274996	8.69269	0.473168	-1.10205
 102	1	3	-0.274736	8.57835	-1.35917	-2.20434
 103	1	1	0.070548	6.97848	-1.01422	1.06559
 104	1	1	0.506757	6.3471	-1.42077	-0.296057
 105	1	2	-0.012767	6.82431	-1.83433	1.77786
 106	1	2	-0.014806	8.06818	-0.961001	0.944632
 107	1	3	-0.274996	6.82324	-2.63591	-0.642044
 108	1	3	-0.274736	5.02438	-1.6387	-0.125294
 109	1	1	0.070548	4.95718	0.55	1.86632
 110	1	1	0.506757	6.48779	0.318945	1.70838
 111	1	2	-0.012767	4.80334	1.60011	2.15209
 112	1	2	-0.014806	4.46108	0.464995	0.8926
 113	1	3	-0.274996	7.08599	0.449538	2.91176
 114	1	3	-0.274736	6.96387	1.35176	0.981776
 115	1	1	0.070548	2.68332	-0.206057	2.7308
 116	1	1	0.506757	4.22081	-0.323793	2.91644
 117	1	2	-0.012767	2.43562	0.812842	2.40296
 118	1	2	-0.014806	2.39067	-0.85465	1.89265
 119	1	3	-0.274996	4.58387	0.0735659	4.15388
 120	1	3	-0.274736	4.57731	-1.61967	2.80139
 121	1	1	0.070548	1.62731	0.671218	4.92249
 122	1	1	0.506757	1.80773	-0.545879	3.96902
 123	1	2	-0.012767	1.06923	1.44563	4.37776
 124	1	2	-0.014806	2.6016	1.12335	5.14056
 125	1	3	-0.274996	2.27908	-1.62948	4.62137
 126	1	3	-0.274736	0.592594	-0.906073	3.49676
 127	1	1	0.070548	-0.511319	-0.218017	6.11253
 128	1	1	0.506757	0.899152	0.407385	6.27012
 129	1	2	-0.012767	-0.39505	-1.28348	5.8708
 130	1	2	-0.014806	-1.00737	0.236641	5.2441
 131	1	3	-0.274996	0.81651	1.5971	6.90459
 132	1	3	-0.274736	1.6657	-0.380253	7.05552
 133	1	1	0.070548	-2.69746	-1.0	7.10166
 134	1	1	0.506757	-1.46574	-0.0930715	7.33041
 135	1	2	-0.012767	-2.38692	-2.04341	7.2537
 136	1	2	-0.014806	-2.98913	-0.935218	6.04384
 137	1	3	-0.274996	-1.85622	1.18994	7.48751
 138	1	3	-0.274736	-0.848844	-0.474758	8.46994
 139	1	1	0.070548	-3.75844	-0.774221	9.49923
 140	1	1	0.506757	-3.96261	-0.733104	7.95637
 141	1	2	-0.012767	-3.05216	0.0163393	9.78574
 142	1	2	-0.014806	-3.26739	-1.72198	9.75838
 143	1	3	-0.274996	-4.54581	0.425847	7.58257
 144	1	3	-0.274736	-4.81569	-1.70857	7.5752
 145	1	1	0.070548	-6.20775	-1.56604	9.99513
 146	1	1	0.506757	-5.03903	-0.614836	10.3789
 147	1	2	-0.012767	-5.80311	-2.57122	9.8146
 148	1	2	-0.014806	-6.62948	-1.21874	9.04352
 149	1	3	-0.274996	-5.45785	0.668553	10.3349
 150	1	3	-0.274736	-4.66214	-0.84003	11.6567
 151	1	1	0.070548	-8.44468	-2.67866	10.3919
 152	1	1	0.506757	-7.39903	-1.68934	10.9768
 153	1	2	-0.012767	-8.0691	-3.70211	10.5323
 154	1	2	-0.014806	-8.5058	-2.54006	9.30349
 155	1	3	-0.274996	-7.95324	-0.478998	11.2033
 156	1	3	-0.274736	-6.98364	-2.17373	12.1682
 157	1	1	0.070548	-9.96836	-2.66424	12.5123
 158	1	1	0.506757	-9.88262	-2.59057	10.9637
 159	1	2	-0.012767	-9.46056	-3.57957	12.8465
 160	1	2	-0.014806	-9.40573	-1.83103	12.9506
 161	1	3	-0.274996	-10.5742	-3.61619	10.4209
 162	1	3	-0.274736	-10.4738	-1.47	10.4965
 163	1	1	0.070548	-12.1659	-1.30204	12.8673
 164	1	1	0.506757	-11.3964	-2.63187	13.1192
 165	1	2	-0.012767	-12.7136	-1.38203	11.9178
 166	1	2	-0.014806	-11.4409	-0.488716	12.7273
 167	1	3	-0.274996	-12.1281	-3.6684	12.6537
 168	1	3	-0.274736	-11.2622	-2.86876	14.444
 169	1	1	0.070548	-14.257	-1.91786	14.3044
 170	1	1	0.506757	-13.1583	-0.868906	13.9789
 171	1	2	-0.012767	-13.8308	-2.92571	14.3433
 172	1	2	-0.014806	-14.9661	-1.93965	13.4646
 173	1	3	-0.274996	-13.7561	0.264812	13.551
 174	1	3	-0.274736	-12.4603	-0.511909	15.0798
 175	1	1	0.070548	-14.2039	-1.96028	16.9161
 176	1	1	0.506757	-15.0427	-1.69464	15.6242
 177	1	2	-0.012767	-13.7832	-1.01172	17.2721
 178	1	2	-0.014806	-13.3366	-2.58622	16.6636
 179	1	3	-0.274996	-16.1208	-2.50736	15.5504
 180	1	3	-0.274736	-15.5388	-0.438391	15.6654
 181	1	1	0.070548	-14.2055	-2.69243	19.4288
 182	1	1	0.506757	-14.9691	-2.65366	18.0765
 183	1	2	-0.012767	-14.7606	-3.35952	20.1022
 184	1	2	-0.014806	-13.2367	-3.1883	19.2742
 185	1	3	-0.274996	-15.1725	-3.9451	17.7281
 186	1	3	-0.274736	-16.2003	-2.12714	18.2631
 187	1	1	0.070548	-13.9622	-1.51805	21.6938
 188	1	1	0.506757	-13.9636	-1.33149	20.1471
 189	1	2	-0.012767	-14.8438	-2.1024	21.9905
 190	1	2	-0.014806	-13.0909	-2.13565	21.944
 191	1	3	-0.274996	-14.8661	-0.405141	19.7662
 192	1	3	-0.274736	-12.7579	-0.861011	19.7569
 193	1	1	0.070548	-14.0429	-0.44139	24.081
 194	1	1	0.506757	-13.9341	-0.217523	22.5478
 195	1	2	-0.012767	-14.0722	0.542303	24.5704
 196	1	2	-0.014806	-15.0207	-0.899178	24.2888
 197	1	3	-0.274996	-14.9884	0.563683	22.2298
 198	1	3	-0.274736	-12.8354	0.516276	22.2712
 199	1	1	0.070548	-11.5073	-0.731609	24.6893
 200	1	1	0.506757	-12.9566	-1.29476	24.7878
 201	1	2	-0.012767	-11.2156	-0.64889	23.6357
 202	1	2	-0.014806	-11.499	0.29103	25.0899
 203	1	3	-0.274996	-13.0146	-2.56722	24.3391
 204	1	3	-0.274736	-13.3399	-1.34146	26.0828
 205	1	1	0.070548	-9.05286	-0.813147	25.5099
 206	1	1	0.506757	-10.413	-1.57769	25.3992
 207	1	2	-0.012767	-8.30354	-1.31736	24.8836
 208	1	2	-0.014806	-9.15156	0.190436	25.0734
 209	1	3	-0.274996	-10.8543	-2.01377	26.5972
 210	1	3	-0.274736	-10.1931	-2.69263	24.6652
 211	1	1	0.070548	-7.07542	-0.00366541	26.9457
 212	1	1	0.506757	-8.47827	-0.670309	26.9447
 213	1	2	-0.012767	-7.20196	1.07116	26.7519
 214	1	2	-0.014806	-6.48456	-0.386589	26.1028
 215	1	3	-0.274996	-8.40526	-1.88348	27.531
 216	1	3	-0.274736	-9.32751	0.0936367	27.6686
 217	1	1	0.070548	-5.51936	-1.55472	28.3575
 218	1	1	0.506757	-6.25504	-0.191199	28.2532
 219	1	2	-0.012767	-5.16779	-1.73212	29.382
 220	1	2	-0.014806	-4.64559	-1.57526	27.6939
 221	1	3	-0.274996	-5.3141	0.779094	28.2947
 222	1	3	-0.274736	-7.02387	0.00123507	29.3477
 223	1	4	0	7.78769	-6.40967	-23.3214
 224	1	2	0	-6.1518	-2.40348	28.0793

Velocities

   1	0.000198922	-0.000702597	-0.00085183
   2	-0.000459906	-0.000428559	-1.08458e-05
   3	0.000835886	-0.000657852	-0.00160166
   4	-0.000656867	-0.00152438	-0.00116329
   5	-0.00157687	0.000212246	0.00182017
   6	-5.38254e-05	0.00114711	-0.00100558
   7	0.000315101	0.000257423	8.38716e-05
   8	0.000352677	7.47604e-05	-0.000168519
   9	0.000342685	0.000350818	-6.4879e-05
  10	0.000185151	0.000339158	4.40119e-05
  11	0.000624133	0.000679223	-0.0002558
  12	8.7385e-05	-8.65001e-05	0.000529722
  13	0.00037586	8.58535e-05	0.000347012
  14	0.000331444	0.000114001	0.000460954
  15	0.00054522	0.000201509	0.000192882
  16	0.000345286	-3.65143e-05	0.00056484
  17	5.57814e-05	-3.14683e-05	0.000794596
  18	0.000682835	7.26e-05	0.00064704
  19	-0.000196238	0.000110583	4.50476e-05
  20	-4.3291e-05	9.60369e-05	0.000151978
  21	-0.000493476	0.000182853	-3.52344e-05
  22	-0.000293862	-4.95799e-05	0.000311837
  23	-0.000316155	-5.01149e-05	0.000292714
  24	-5.21717e-05	0.000244201	-7.93558e-05
  25	6.76431e-05	0.000179434	-0.000286608
  26	6.28588e-05	0.000171459	-9.92809e-05
  27	6.90856e-05	0.000346268	-0.000309096
  28	8.13887e-05	0.000126912	-0.000377208
  29	0.00030333	0.000211444	0.000157943
  30	0.000144727	0.000201048	-0.000283558
  31	6.11143e-05	-5.52515e-05	-0.000332506
  32	9.51196e-05	7.6789e-05	-0.000324468
  33	6.86877e-05	-4.00806e-05	-0.000468128
  34	8.41996e-05	-1.91698e-05	-0.000231753
  35	-3.31757e-05	9.89567e-05	-0.00034967
  36	0.000197056	7.19748e-05	-0.000269211
  37	-9.76627e-05	-0.000195225	-0.00018074
  38	-5.151e-05	-0.000237052	-0.000291763
  39	-8.24922e-05	-0.000222012	-0.000100736
  40	-7.31463e-05	-0.000215765	-0.000182095
  41	-0.00015856	-0.000290162	-0.000178556
  42	-3.48277e-05	-0.000372016	-0.000443213
  43	-0.000138165	-6.44204e-05	-0.000185523
  44	-0.000170132	-0.000108922	-0.000168243
  45	-0.000141593	-3.95573e-05	-0.000175113
  46	-0.000136308	-5.02397e-05	-0.000188356
  47	-0.000181643	-0.000145062	-0.000135624
  48	-0.000236285	-6.7676e-05	-0.000136784
  49	-0.000224939	-0.000112837	-0.000169663
  50	-0.000144597	-6.56886e-05	-0.000146309
  51	-0.000410847	-0.000435566	-5.5104e-05
  52	-0.000395157	1.02556e-05	-0.000496978
  53	-0.00017757	-3.27457e-05	-9.5612e-05
  54	-9.68074e-05	-7.2477e-05	-0.000136609
  55	0.000113943	0.000338875	-1.47455e-05
  56	8.20637e-06	3.81998e-05	-1.92311e-05
  57	0.000240866	0.000375032	0.000100074
  58	1.9109e-05	0.000448952	-0.000116072
  59	-7.80284e-05	6.29884e-06	-0.000121648
  60	9.08351e-05	-7.36121e-05	0.000236383
  61	0.000177556	0.000638182	3.77852e-05
  62	0.000120847	0.000417143	3.51308e-06
  63	0.000701515	0.000815698	-0.000176848
  64	-6.26362e-05	0.00111083	0.000338766
  65	0.000201445	0.000305972	8.08146e-05
  66	1.44694e-06	0.000396587	-4.69396e-05
  67	0.000157091	0.0002054	-0.000146672
  68	-8.05635e-05	-1.46433e-05	-7.88569e-06
  69	0.00048375	0.000264606	-0.000307057
  70	1.86131e-05	0.000550339	-0.000132288
  71	0.000273891	-0.00073838	-0.000304148
  72	-0.000860317	-0.000242052	0.000392095
  73	0.000140325	8.43667e-05	-0.000101254
  74	0.000203541	-6.01206e-05	-0.00012867
  75	0.000194749	0.000160452	-8.0833e-05
  76	4.14967e-05	0.000114171	-0.000102554
  77	0.000142428	-0.00032924	-0.00032891
  78	0.000462792	-0.000139794	5.71422e-05
  79	0.000216948	0.000222357	8.48167e-05
  80	0.000215031	4.09001e-05	-8.98243e-05
  81	-3.18208e-06	0.000461534	5.99694e-05
  82	0.000382778	0.000292096	0.000325415
  83	0.000100631	-7.05635e-05	-0.000228863
  84	0.000448906	-8.67317e-05	-6.17664e-05
  85	0.000115722	-0.000216429	0.000132216
  86	0.000231025	5.9077e-06	-4.20478e-05
  87	0.000154032	-0.000464995	0.000296436
  88	0.000383517	-0.000145469	0.000116144
  89	0.000297817	5.18997e-05	-0.000176685
  90	0.000219028	-0.0001071	-0.000169114
  91	-0.000101117	-0.000182614	0.000232312
  92	-0.000397361	-0.000299436	4.78902e-05
  93	0.000439296	-0.00024502	-0.000163148
  94	0.000100099	0.000156444	0.000763728
  95	-0.000535802	-0.000702387	-0.000515289
  96	-0.00107712	-0.000212365	0.00041075
  97	-0.000472574	-0.000534349	9.71338e-05
  98	-0.000472097	-0.000335155	0.000150387
  99	-0.000701132	-0.000559683	-0.000141076
 100	-0.000318108	-0.000937112	0.000156906
 101	-0.000607641	-0.000398837	0.000282411
 102	-0.000439839	-0.000311762	0.000139398
 103	6.78704e-05	8.30562e-05	0.000191458
 104	-0.000194605	-0.000261337	0.000396732
 105	0.000405512	0.00016065	0.000354182
 106	3.31979e-05	0.00025091	-0.000101421
 107	-0.00014121	-0.000317048	0.000636542
 108	-0.000127611	-0.000372211	0.000740722
 109	7.37496e-05	0.000255609	-7.9465e-05
 110	6.39528e-05	9.05184e-05	0.000175367
 111	9.07844e-05	0.000345849	-0.000393183
 112	0.000137579	-5.15313e-06	-8.97306e-05
 113	-0.00015312	-0.000147887	0.000318331
 114	0.000318004	9.98321e-05	0.000367097
 115	7.5489e-05	0.000695795	0.000243015
 116	5.82044e-05	0.000576493	0.000139126
 117	0.000105993	0.000753248	0.000399366
 118	-3.19584e-05	0.000825005	0.000180072
 119	0.000158931	0.00084003	1.48172e-05
 120	-2.93131e-05	0.000527654	0.000410291
 121	0.000540881	0.000391816	0.000612885
 122	0.000207908	0.000589844	0.000293547
 123	0.00103259	0.00080147	0.000689995
 124	0.00068211	-0.000105424	0.00100286
 125	0.000113729	0.000370067	7.92826e-06
 126	0.000116538	0.000895046	0.000301588
 127	0.000103425	0.000490888	-7.44553e-05
 128	0.000127588	0.000352803	0.000388469
 129	0.00012072	0.000582419	-0.000460852
 130	0.000268053	0.000879283	3.46436e-05
 131	2.58298e-05	0.000305012	0.000470789
 132	-0.000139654	0.000213364	0.000520476
 133	9.09417e-05	-0.000315429	-0.000660786
 134	-0.000124453	-6.81694e-05	-0.000213031
 135	0.00030922	-0.000286334	-0.000889109
 136	0.000209169	-8.06276e-05	-0.000677485
 137	-0.000372075	-0.000175428	0.00011123
 138	-0.000192323	-0.000273007	-0.000246822
 139	-0.000145104	-0.0013269	-0.000748525
 140	-7.64732e-05	-0.000858511	-0.000739226
 141	0.000516582	-0.00203124	-0.000490056
 142	-0.00106651	-0.00185557	-0.000913606
 143	-0.000232142	-0.000868887	-0.000530335
 144	3.93635e-05	-0.000897817	-0.000953137
 145	0.000108024	-0.000776056	-0.000230813
 146	-3.97939e-05	-0.000416886	-0.000882297
 147	0.000215124	-0.000871844	0.000499359
 148	0.000156913	-0.00151275	-0.00050698
 149	-4.85369e-05	-0.000463166	-0.00211799
 150	-0.000143619	0.000755549	-0.000637625
 151	-0.00021143	0.000184917	-7.87951e-05
 152	0.00013766	-0.000139783	-0.000158932
 153	-0.000502005	7.07781e-05	-8.41036e-05
 154	-0.000264563	0.000197508	-7.72316e-05
 155	0.00061029	9.14273e-05	-0.000215435
 156	8.94041e-05	-0.000157801	-0.000139527
 157	0.00031419	0.000249652	7.46481e-05
 158	-9.73723e-05	0.000643043	8.07466e-05
 159	0.000213304	1.96056e-05	-0.000381972
 160	0.000667098	3.37716e-06	9.54971e-05
 161	-0.000666736	0.00109997	-8.94747e-05
 162	0.000302739	0.00104674	0.000527826
 163	0.000460783	0.000381728	0.000909525
 164	0.000587867	0.00041207	0.000657522
 165	0.000494925	0.00041189	0.00089464
 166	0.000413844	0.000444726	0.000977435
 167	0.000456499	0.00030531	0.0010844
 168	0.00120127	0.000661102	0.000633317
 169	0.000411216	-0.000115991	0.000714651
 170	0.000307612	0.000116762	0.000969422
 171	0.000791159	8.5044e-05	0.00118598
 172	0.000919346	-0.000506598	0.000313352
 173	0.000233874	8.94028e-05	0.00100096
 174	8.10308e-05	0.00010391	0.00112988
 175	-0.00116178	0.000543643	0.00077296
 176	-0.000549198	-0.000322654	0.000232291
 177	-0.00260877	0.00106898	0.0010299
 178	-0.000221157	0.00167838	0.00126736
 179	6.33944e-05	-0.00110503	-9.15018e-05
 180	-0.00151258	-0.000671559	-0.00042556
 181	-0.000803815	-0.000403902	0.000339842
 182	-0.000791806	-0.000655479	0.000350281
 183	-0.000994737	0.000124298	0.000703989
 184	-0.000991599	-0.000812341	0.000481525
 185	0.000368804	-0.000740609	-5.16782e-05
 186	-0.00124163	-0.00176819	0.000622254
 187	-0.000222194	0.000691988	-0.000481931
 188	-0.000257507	-6.69834e-05	-0.000508037
 189	-0.000435965	0.0012153	-0.00012873
 190	-0.000426152	0.000449411	-0.000418102
 191	1.04734e-05	5.93467e-06	-0.00101782
 192	-5.88341e-05	-0.000798443	-0.000822387
 193	-7.30909e-05	0.000787755	-0.000743735
 194	0.000544061	0.000857277	-0.000777949
 195	-7.16668e-05	0.000728768	-0.000582543
 196	-0.00035782	0.00100918	-0.00130782
 197	0.00129759	0.0017158	-0.00127893
 198	0.00121702	-3.9922e-05	-0.000589816
 199	-0.000510871	0.000278741	0.000800595
 200	-0.000587373	0.000191447	-0.000406928
 201	-0.00014223	0.00144032	0.00104601
 202	-0.000726588	-0.000202887	0.00196863
 203	-0.000446572	0.000462896	-0.00112545
 204	-0.00121621	-0.000609304	-0.000647804
 205	-0.000558055	-0.00054923	0.000483529
 206	-0.000589023	-0.000442715	0.000129103
 207	-0.000723492	-4.62508e-06	-4.80018e-05
 208	-0.000660681	-0.000178739	0.00114795
 209	-0.000516685	-0.00141397	-0.000247993
 210	-0.000671478	0.000274124	-0.000943083
 211	0.000113256	-0.00135966	-0.000236666
 212	-1.89416e-05	-0.0013242	0.00036679
 213	0.000120624	-0.00157843	-0.00161738
 214	1.74307e-05	-0.00234633	0.000176276
 215	0.000257384	-0.00157199	-0.000265046
 216	0.000428657	-0.00145071	0.00102263
 217	0.00171146	0.00124416	0.000283465
 218	0.000393806	0.000394187	-0.000187765
 219	0.00333643	0.00278471	1.20349e-05
 220	0.000511081	0.00113426	-0.0011095
 221	-0.000769134	0.00137257	-0.000555654
 222	0.000197677	-0.000278698	-0.000251051
 223	-0.00049007	-0.00204615	-6.56406e-05
 224	0.00168985	0.000632461	0.00251277

Bonds

   1	4	1	2
   2	1	1	3
   3	1	1	4
   4	2	2	5
   5	2	2	6
   6	4	7	8
   7	1	7	9
   8	1	7	10
   9	2	8	11
  10	2	8	12
  11	4	1	8
  12	4	13	14
  13	1	13	15
  14	1	13	16
  15	2	14	17
  16	2	14	18
  17	4	7	14
  18	4	19	20
  19	1	19	21
  20	1	19	22
  21	2	20	23
  22	2	20	24
  23	4	13	20
  24	4	25	26
  25	1	25	27
  26	1	25	28
  27	2	26	29
  28	2	26	30
  29	4	19	26
  30	4	31	32
  31	1	31	33
  32	1	31	34
  33	2	32	35
  34	2	32	36
  35	4	25	32
  36	4	37	38
  37	1	37	39
  38	1	37	40
  39	2	38	41
  40	2	38	42
  41	4	31	38
  42	4	43	44
  43	1	43	45
  44	1	43	46
  45	2	44	47
  46	2	44	48
  47	4	37	44
  48	4	49	50
  49	1	49	51
  50	1	49	52
  51	2	50	53
  52	2	50	54
  53	4	43	50
  54	4	55	56
  55	1	55	57
  56	1	55	58
  57	2	56	59
  58	2	56	60
  59	4	49	56
  60	4	61	62
  61	1	61	63
  62	1	61	64
  63	2	62	65
  64	2	62	66
  65	4	55	62
  66	4	67	68
  67	1	67	69
  68	1	67	70
  69	2	68	71
  70	2	68	72
  71	4	61	68
  72	4	73	74
  73	1	73	75
  74	1	73	76
  75	2	74	77
  76	2	74	78
  77	4	67	74
  78	4	79	80
  79	1	79	81
  80	1	79	82
  81	2	80	83
  82	2	80	84
  83	4	73	80
  84	4	85	86
  85	1	85	87
  86	1	85	88
  87	2	86	89
  88	2	86	90
  89	4	79	86
  90	4	91	92
  91	1	91	93
  92	1	91	94
  93	2	92	95
  94	2	92	96
  95	4	85	92
  96	4	97	98
  97	1	97	99
  98	1	97	100
  99	2	98	101
 100	2	98	102
 101	4	91	98
 102	4	103	104
 103	1	103	105
 104	1	103	106
 105	2	104	107
 106	2	104	108
 107	4	97	104
 108	4	109	110
 109	1	109	111
 110	1	109	112
 111	2	110	113
 112	2	110	114
 113	4	103	110
 114	4	115	116
 115	1	115	117
 116	1	115	118
 117	2	116	119
 118	2	116	120
 119	4	109	116
 120	4	121	122
 121	1	121	123
 122	1	121	124
 123	2	122	125
 124	2	122	126
 125	4	115	122
 126	4	127	128
 127	1	127	129
 128	1	127	130
 129	2	128	131
 130	2	128	132
 131	4	121	128
 132	4	133	134
 133	1	133	135
 134	1	133	136
 135	2	134	137
 136	2	134	138
 137	4	127	134
 138	4	139	140
 139	1	139	141
 140	1	139	142
 141	2	140	143
 142	2	140	144
 143	4	133	140
 144	4	145	146
 145	1	145	147
 146	1	145	148
 147	2	146	149
 148	2	146	150
 149	4	139	146
 150	4	151	152
 151	1	151	153
 152	1	151	154
 153	2	152	155
 154	2	152	156
 155	4	145	152
 156	4	157	158
 157	1	157	159
 158	1	157	160
 159	2	158	161
 160	2	158	162
 161	4	151	158
 162	4	163	164
 163	1	163	165
 164	1	163	166
 165	2	164	167
 166	2	164	168
 167	4	157	164
 168	4	169	170
 169	1	169	171
 170	1	169	172
 171	2	170	173
 172	2	170	174
 173	4	163	170
 174	4	175	176
 175	1	175	177
 176	1	175	178
 177	2	176	179
 178	2	176	180
 179	4	169	176
 180	4	181	182
 181	1	181	183
 182	1	181	184
 183	2	182	185
 184	2	182	186
 185	4	175	182
 186	4	187	188
 187	1	187	189
 188	1	187	190
 189	2	188	191
 190	2	188	192
 191	4	181	188
 192	4	193	194
 193	1	193	195
 194	1	193	196
 195	2	194	197
 196	2	194	198
 197	4	187	194
 198	4	199	200
 199	1	199	201
 200	1	199	202
 201	2	200	203
 202	2	200	204
 203	4	193	200
 204	4	205	206
 205	1	205	207
 206	1	205	208
 207	2	206	209
 208	2	206	210
 209	4	199	206
 210	4	211	212
 211	1	211	213
 212	1	211	214
 213	2	212	215
 214	2	212	216
 215	4	205	212
 216	4	217	218
 217	1	217	219
 218	1	217	220
 219	2	218	221
 220	2	218	222
 221	4	211	218
 222	3	2	223
 223	1	217	224

Angles

   1	2	2	1	3
   2	2	2	1	4
   3	4	3	1	4
   4	3	1	2	5
   5	3	1	2	6
   6	6	5	2	6
   7	2	8	7	9
   8	2	8	7	10
   9	4	9	7	10
  10	3	7	8	11
  11	3	7	8	12
  12	6	11	8	12
  13	7	2	1	8
  14	2	3	1	8
  15	2	4	1	8
  16	7	1	8	7
  17	3	1	8	11
  18	3	1	8	12
  19	2	14	13	15
  20	2	14	13	16
  21	4	15	13	16
  22	3	13	14	17
  23	3	13	14	18
  24	6	17	14	18
  25	7	8	7	14
  26	2	9	7	14
  27	2	10	7	14
  28	7	7	14	13
  29	3	7	14	17
  30	3	7	14	18
  31	2	20	19	21
  32	2	20	19	22
  33	4	21	19	22
  34	3	19	20	23
  35	3	19	20	24
  36	6	23	20	24
  37	7	14	13	20
  38	2	15	13	20
  39	2	16	13	20
  40	7	13	20	19
  41	3	13	20	23
  42	3	13	20	24
  43	2	26	25	27
  44	2	26	25	28
  45	4	27	25	28
  46	3	25	26	29
  47	3	25	26	30
  48	6	29	26	30
  49	7	20	19	26
  50	2	21	19	26
  51	2	22	19	26
  52	7	19	26	25
  53	3	19	26	29
  54	3	19	26	30
  55	2	32	31	33
  56	2	32	31	34
  57	4	33	31	34
  58	3	31	32	35
  59	3	31	32	36
  60	6	35	32	36
  61	7	26	25	32
  62	2	27	25	32
  63	2	28	25	32
  64	7	25	32	31
  65	3	25	32	35
  66	3	25	32	36
  67	2	38	37	39
  68	2	38	37	40
  69	4	39	37	40
  70	3	37	38	41
  71	3	37	38	42
  72	6	41	38	42
  73	7	32	31	38
  74	2	33	31	38
  75	2	34	31	38
  76	7	31	38	37
  77	3	31	38	41
  78	3	31	38	42
  79	2	44	43	45
  80	2	44	43	46
  81	4	45	43	46
  82	3	43	44	47
  83	3	43	44	48
  84	6	47	44	48
  85	7	38	37	44
  86	2	39	37	44
  87	2	40	37	44
  88	7	37	44	43
  89	3	37	44	47
  90	3	37	44	48
  91	2	50	49	51
  92	2	50	49	52
  93	4	51	49	52
  94	3	49	50	53
  95	3	49	50	54
  96	6	53	50	54
  97	7	44	43	50
  98	2	45	43	50
  99	2	46	43	50
 100	7	43	50	49
 101	3	43	50	53
 102	3	43	50	54
 103	2	56	55	57
 104	2	56	55	58
 105	4	57	55	58
 106	3	55	56	59
 107	3	55	56	60
 108	6	59	56	60
 109	7	50	49	56
 110	2	51	49	56
 111	2	52	49	56
 112	7	49	56	55
 113	3	49	56	59
 114	3	49	56	60
 115	2	62	61	63
 116	2	62	61	64
 117	4	63	61	64
 118	3	61	62	65
 119	3	61	62	66
 120	6	65	62	66
 121	7	56	55	62
 122	2	57	55	62
 123	2	58	55	62
 124	7	55	62	61
 125	3	55	62	65
 126	3	55	62	66
 127	2	68	67	69
 128	2	68	67	70
 129	4	69	67	70
 130	3	67	68	71
 131	3	67	68	72
 132	6	71	68	72
 133	7	62	61	68
 134	2	63	61	68
 135	2	64	61	68
 136	7	61	68	67
 137	3	61	68	71
 138	3	61	68	72
 139	2	74	73	75
 140	2	74	73	76
 141	4	75	73	76
 142	3	73	74	77
 143	3	73	74	78
 144	6	77	74	78
 145	7	68	67	74
 146	2	69	67	74
 147	2	70	67	74
 148	7	67	74	73
 149	3	67	74	77
 150	3	67	74	78
 151	2	80	79	81
 152	2	80	79	82
 153	4	81	79	82
 154	3	79	80	83
 155	3	79	80	84
 156	6	83	80	84
 157	7	74	73	80
 158	2	75	73	80
 159	2	76	73	80
 160	7	73	80	79
 161	3	73	80	83
 162	3	73	80	84
 163	2	86	85	87
 164	2	86	85	88
 165	4	87	85	88
 166	3	85	86	89
 167	3	85	86	90
 168	6	89	86	90
 169	7	80	79	86
 170	2	81	79	86
 171	2	82	79	86
 172	7	79	86	85
 173	3	79	86	89
 174	3	79	86	90
 175	2	92	91	93
 176	2	92	91	94
 177	4	93	91	94
 178	3	91	92	95
 179	3	91	92	96
 180	6	95	92	96
 181	7	86	85	92
 182	2	87	85	92
 183	2	88	85	92
 184	7	85	92	91
 185	3	85	92	95
 186	3	85	92	96
 187	2	98	97	99
 188	2	98	97	100
 189	4	99	97	100
 190	3	97	98	101
 191	3	97	98	102
 192	6	101	98	102
 193	7	92	91	98
 194	2	93	91	98
 195	2	94	91	98
 196	7	91	98	97
 197	3	91	98	101
 198	3	91	98	102
 199	2	104	103	105
 200	2	104	103	106
 201	4	105	103	106
 202	3	103	104	107
 203	3	103	104	108
 204	6	107	104	108
 205	7	98	97	104
 206	2	99	97	104
 207	2	100	97	104
 208	7	97	104	103
 209	3	97	104	107
 210	3	97	104	108
 211	2	110	109	111
 212	2	110	109	112
 213	4	111	109	112
 214	3	109	110	113
 215	3	109	110	114
 216	6	113	110	114
 217	7	104	103	110
 218	2	105	103	110
 219	2	106	103	110
 220	7	103	110	109
 221	3	103	110	113
 222	3	103	110	114
 223	2	116	115	117
 224	2	116	115	118
 225	4	117	115	118
 226	3	115	116	119
 227	3	115	116	120
 228	6	119	116	120
 229	7	110	109	116
 230	2	111	109	116
 231	2	112	109	116
 232	7	109	116	115
 233	3	109	116	119
 234	3	109	116	120
 235	2	122	121	123
 236	2	122	121	124
 237	4	123	121	124
 238	3	121	122	125
 239	3	121	122	126
 240	6	125	122	126
 241	7	116	115	122
 242	2	117	115	122
 243	2	118	115	122
 244	7	115	122	121
 245	3	115	122	125
 246	3	115	122	126
 247	2	128	127	129
 248	2	128	127	130
 249	4	129	127	130
 250	3	127	128	131
 251	3	127	128	132
 252	6	131	128	132
 253	7	122	121	128
 254	2	123	121	128
 255	2	124	121	128
 256	7	121	128	127
 257	3	121	128	131
 258	3	121	128	132
 259	2	134	133	135
 260	2	134	133	136
 261	4	135	133	136
 262	3	133	134	137
 263	3	133	134	138
 264	6	137	134	138
 265	7	128	127	134
 266	2	129	127	134
 267	2	130	127	134
 268	7	127	134	133
 269	3	127	134	137
 270	3	127	134	138
 271	2	140	139	141
 272	2	140	139	142
 273	4	141	139	142
 274	3	139	140	143
 275	3	139	140	144
 276	6	143	140	144
 277	7	134	133	140
 278	2	135	133	140
 279	2	136	133	140
 280	7	133	140	139
 281	3	133	140	143
 282	3	133	140	144
 283	2	146	145	147
 284	2	146	145	148
 285	4	147	145	148
 286	3	145	146	149
 287	3	145	146	150
 288	6	149	146	150
 289	7	140	139	146
 290	2	141	139	146
 291	2	142	139	146
 292	7	139	146	145
 293	3	139	146	149
 294	3	139	146	150
 295	2	152	151	153
 296	2	152	151	154
 297	4	153	151	154
 298	3	151	152	155
 299	3	151	152	156
 300	6	155	152	156
 301	7	146	145	152
 302	2	147	145	152
 303	2	148	145	152
 304	7	145	152	151
 305	3	145	152	155
 306	3	145	152	156
 307	2	158	157	159
 308	2	158	157	160
 309	4	159	157	160
 310	3	157	158	161
 311	3	157	158	162
 312	6	161	158	162
 313	7	152	151	158
 314	2	153	151	158
 315	2	154	151	158
 316	7	151	158	157
 317	3	151	158	161
 318	3	151	158	162
 319	2	164	163	165
 320	2	164	163	166
 321	4	165	163	166
 322	3	163	164	167
 323	3	163	164	168
 324	6	167	164	168
 325	7	158	157	164
 326	2	159	157	164
 327	2	160	157	164
 328	7	157	164	163
 329	3	157	164	167
 330	3	157	164	168
 331	2	170	169	171
 332	2	170	169	172
 333	4	171	169	172
 334	3	169	170	173
 335	3	169	170	174
 336	6	173	170	174
 337	7	164	163	170
 338	2	165	163	170
 339	2	166	163	170
 340	7	163	170	169
 341	3	163	170	173
 342	3	163	170	174
 343	2	176	175	177
 344	2	176	175	178
 345	4	177	175	178
 346	3	175	176	179
 347	3	175	176	180
 348	6	179	176	180
 349	7	170	169	176
 350	2	171	169	176
 351	2	172	169	176
 352	7	169	176	175
 353	3	169	176	179
 354	3	169	176	180
 355	2	182	181	183
 356	2	182	181	184
 357	4	183	181	184
 358	3	181	182	185
 359	3	181	182	186
 360	6	185	182	186
 361	7	176	175	182
 362	2	177	175	182
 363	2	178	175	182
 364	7	175	182	181
 365	3	175	182	185
 366	3	175	182	186
 367	2	188	187	189
 368	2	188	187	190
 369	4	189	187	190
 370	3	187	188	191
 371	3	187	188	192
 372	6	191	188	192
 373	7	182	181	188
 374	2	183	181	188
 375	2	184	181	188
 376	7	181	188	187
 377	3	181	188	191
 378	3	181	188	192
 379	2	194	193	195
 380	2	194	193	196
 381	4	195	193	196
 382	3	193	194	197
 383	3	193	194	198