pySIMM System Object

146 atoms
145 bonds
288 angles
423 dihedrals
0 impropers

4 atom types
4 bond types
7 angle types
4 dihedral types

-84.885175 84.885175 xlo xhi
-84.885175 84.885175 ylo yhi
-84.885175 84.885175 zlo zhi

Masses

   1	12.01	# c3
   2	1.008	# hc
   3	19.0	# f
   4	1.008	# h2

Pair Coeffs

   1	0.1094	3.3996695084235347	# c3
   2	0.0157	2.649532787749369	# hc
   3	0.061	3.1181455134911875	# f
   4	0.0157	2.2931733004932333	# h2

Bond Coeffs

   1	330.6	1.0969	# c3,hc
   2	356.9	1.3497	# c3,f
   3	331.7	1.0961	# c3,h2
   4	300.9	1.5375	# c3,c3

Angle Coeffs

   1	51.15	108.79	# f,c3,h2
   2	46.34	109.8	# c3,c3,hc
   3	66.11	109.24	# c3,c3,f
   4	39.4	107.58	# hc,c3,hc
   5	46.25	110.22	# c3,c3,h2
   6	70.89	107.36	# f,c3,f
   7	62.86	111.51	# c3,c3,c3

Dihedral Coeffs

   1	2	0.0	3	0	0.19	1	0	# hc,c3,c3,f
   2	1	0.15555555555555556	3	0	# X,c3,c3,X
   3	1	0.16	3	0	# hc,c3,c3,c3
   4	3	0.18	3	0	0.25	2	180	0.2	1	180	# c3,c3,c3,c3

Atoms

   1	1	1	0.070548	-14.5404	12.4771	9.74228
   2	1	1	0.506757	-15.6226	12.2399	8.66836
   3	1	2	-0.012767	-14.8723	13.2622	10.4353
   4	1	2	-0.014806	-14.4232	11.5636	10.3389
   5	1	3	-0.274996	-16.2847	13.3882	8.40436
   6	1	3	-0.274736	-16.537	11.3574	9.12651
   7	1	1	0.070548	-12.1465	13.4204	10.1264
   8	1	1	0.506757	-13.1817	12.8628	9.10937
   9	1	2	-0.012767	-12.6789	14.0878	10.8178
  10	1	2	-0.014806	-11.4393	14.0791	9.60865
  11	1	3	-0.274996	-13.3779	13.8075	8.16332
  12	1	3	-0.274736	-12.6905	11.7899	8.45284
  13	1	1	0.070548	-10.2972	11.4937	10.2522
  14	1	1	0.506757	-11.3629	12.374	10.9699
  15	1	2	-0.012767	-10.8027	10.7283	9.65229
  16	1	2	-0.014806	-9.74611	10.9366	11.0228
  17	1	3	-0.274996	-10.7667	13.027	11.9926
  18	1	3	-0.274736	-12.2446	11.5468	11.5722
  19	1	1	0.070548	-8.03704	11.3986	8.94466
  20	1	1	0.506757	-9.26535	12.2473	9.36888
  21	1	2	-0.012767	-7.38729	12.0225	8.31979
  22	1	2	-0.014806	-7.43884	11.1758	9.83932
  23	1	3	-0.274996	-8.79491	13.3248	10.0344
  24	1	3	-0.274736	-9.86023	12.7393	8.26124
  25	1	1	0.070548	-7.12171	9.45344	7.49129
  26	1	1	0.506757	-8.35186	10.0569	8.22101
  27	1	2	-0.012767	-7.21504	8.36137	7.47418
  28	1	2	-0.014806	-6.23153	9.64897	8.10521
  29	1	3	-0.274996	-8.74641	9.16226	9.15418
  30	1	3	-0.274736	-9.39229	10.1712	7.36836
  31	1	1	0.070548	-7.66299	9.32321	4.89225
  32	1	1	0.506757	-6.86031	9.9835	6.04941
  33	1	2	-0.012767	-8.72271	9.59888	4.97271
  34	1	2	-0.014806	-7.32574	9.78	3.95153
  35	1	3	-0.274996	-7.09224	11.3131	5.99688
  36	1	3	-0.274736	-5.5396	9.87146	5.78331
  37	1	1	0.070548	-7.71189	7.33077	3.286
  38	1	1	0.506757	-7.55417	7.77711	4.7654
  39	1	2	-0.012767	-8.62548	7.79452	2.88812
  40	1	2	-0.014806	-6.89686	7.76405	2.69308
  41	1	3	-0.274996	-6.37823	7.33091	5.25371
  42	1	3	-0.274736	-8.51399	7.21875	5.5337
  43	1	1	0.070548	-6.63426	4.88501	3.50441
  44	1	1	0.506757	-7.79546	5.8004	3.01399
  45	1	2	-0.012767	-6.96087	3.85165	3.34764
  46	1	2	-0.014806	-6.52855	4.97271	4.59211
  47	1	3	-0.274996	-7.95902	5.63363	1.68314
  48	1	3	-0.274736	-8.94403	5.33069	3.54966
  49	1	1	0.070548	-4.11775	4.19773	3.42926
  50	1	1	0.506757	-5.24188	5.09203	2.8302
  51	1	2	-0.012767	-4.21436	4.21429	4.5237
  52	1	2	-0.014806	-3.14357	4.66116	3.22156
  53	1	3	-0.274996	-5.30414	4.89926	1.49413
  54	1	3	-0.274736	-4.85495	6.37575	2.98788
  55	1	1	0.070548	-3.18863	2.47896	1.67515
  56	1	1	0.506757	-4.07571	2.71945	2.93877
  57	1	2	-0.012767	-3.69696	1.75972	1.01801
  58	1	2	-0.014806	-3.1335	3.40759	1.09133
  59	1	3	-0.274996	-3.69523	1.95558	3.98453
  60	1	3	-0.274736	-5.31821	2.27583	2.65084
  61	1	1	0.070548	-1.00666	1.76507	0.556899
  62	1	1	0.506757	-1.74111	1.96527	1.91555
  63	1	2	-0.012767	-1.69499	1.26815	-0.140567
  64	1	2	-0.014806	-0.805843	2.75086	0.115611
  65	1	3	-0.274996	-1.7758	0.80261	2.59982
  66	1	3	-0.274736	-1.07635	2.86865	2.66949
  67	1	1	0.070548	0.929203	0.865155	-0.83869
  68	1	1	0.506757	0.313406	0.942196	0.586135
  69	1	2	-0.012767	0.145903	0.50144	-1.51706
  70	1	2	-0.014806	1.14056	1.88638	-1.18532
  71	1	3	-0.274996	0.038678	-0.312075	1.00836
  72	1	3	-0.274736	1.19723	1.50163	1.44056
  73	1	1	0.070548	2.1097	-0.876948	-2.30835
  74	1	1	0.506757	2.21371	-0.00905247	-1.01828
  75	1	2	-0.012767	1.12291	-1.35846	-2.33249
  76	1	2	-0.014806	2.12561	-0.203566	-3.17434
  77	1	3	-0.274996	3.27335	0.82195	-1.1345
  78	1	3	-0.274736	2.46639	-0.780258	0.0595526
  79	1	1	0.070548	2.99453	-2.79896	-3.80677
  80	1	1	0.506757	3.18263	-1.98956	-2.49077
  81	1	2	-0.012767	1.91711	-2.92089	-3.98611
  82	1	2	-0.014806	3.372	-3.82058	-3.65724
  83	1	3	-0.274996	4.42955	-1.47948	-2.41571
  84	1	3	-0.274736	3.07914	-2.88791	-1.48697
  85	1	1	0.070548	5.14977	-2.65251	-5.23019
  86	1	1	0.506757	3.65961	-2.22445	-5.08799
  87	1	2	-0.012767	5.68413	-2.41202	-4.30386
  88	1	2	-0.014806	5.18872	-3.74798	-5.3068
  89	1	3	-0.274996	3.50812	-0.885065	-5.13968
  90	1	3	-0.274736	2.95663	-2.70536	-6.13642
  91	1	1	0.070548	5.46679	-2.47373	-7.83796
  92	1	1	0.506757	5.961	-2.05771	-6.4157
  93	1	2	-0.012767	4.64769	-3.19526	-7.74902
  94	1	2	-0.014806	5.02459	-1.59773	-8.33343
  95	1	3	-0.274996	7.24106	-2.43717	-6.20816
  96	1	3	-0.274736	5.98047	-0.709739	-6.33025
  97	1	1	0.070548	6.79377	-4.6009	-8.40343
  98	1	1	0.506757	6.51414	-3.11998	-8.78692
  99	1	2	-0.012767	6.96403	-4.6727	-7.32386
 100	1	2	-0.014806	5.86995	-5.1678	-8.58264
 101	1	3	-0.274996	7.64402	-2.38162	-8.85475
 102	1	3	-0.274736	5.97658	-3.09019	-10.0279
 103	1	1	0.070548	7.84076	-6.84774	-9.151
 104	1	1	0.506757	7.96388	-5.29798	-9.15582
 105	1	2	-0.012767	6.79326	-7.11153	-9.35195
 106	1	2	-0.014806	8.38989	-7.22696	-10.0179
 107	1	3	-0.274996	9.15218	-4.92766	-8.629
 108	1	3	-0.274736	7.9957	-4.91156	-10.4501
 109	1	1	0.070548	9.76716	-8.13044	-7.88995
 110	1	1	0.506757	8.30675	-7.59294	-7.86124
 111	1	2	-0.012767	10.4111	-7.34224	-8.30383
 112	1	2	-0.014806	10.1185	-8.27329	-6.86029
 113	1	3	-0.274996	8.16619	-6.79862	-6.77715
 114	1	3	-0.274736	7.45144	-8.61061	-7.62928
 115	1	1	0.070548	9.45745	-10.7865	-8.1511
 116	1	1	0.506757	10.0181	-9.44015	-8.70072
 117	1	2	-0.012767	8.36401	-10.8049	-8.2371
 118	1	2	-0.014806	9.79406	-11.5703	-8.84278
 119	1	3	-0.274996	11.3511	-9.5723	-8.8823
 120	1	3	-0.274736	9.53419	-9.29875	-9.95275
 121	1	1	0.070548	9.82787	-12.7398	-6.51079
 122	1	1	0.506757	9.86202	-11.1886	-6.70286
 123	1	2	-0.012767	10.1283	-13.2246	-7.44907
 124	1	2	-0.014806	8.78748	-13.0523	-6.34773
 125	1	3	-0.274996	8.98539	-10.6274	-5.84245
 126	1	3	-0.274736	11.0619	-10.6645	-6.37989
 127	1	1	0.070548	10.3253	-12.9545	-3.92751
 128	1	1	0.506757	10.723	-13.3307	-5.38299
 129	1	2	-0.012767	10.1329	-11.8758	-3.87448
 130	1	2	-0.014806	11.2163	-13.0923	-3.30107
 131	1	3	-0.274996	12.0104	-12.9714	-5.58036
 132	1	3	-0.274736	10.7745	-14.6752	-5.52496
 133	1	1	0.070548	9.5129	-14.3504	-1.91635
 134	1	1	0.506757	9.12271	-13.7288	-3.29111
 135	1	2	-0.012767	9.43562	-13.5676	-1.14865
 136	1	2	-0.014806	10.5718	-14.6406	-1.92544
 137	1	3	-0.274996	8.59874	-14.6579	-4.12018
 138	1	3	-0.274736	8.11876	-12.8454	-3.0965
 139	1	1	0.070548	9.04178	-16.889	-2.22736
 140	1	1	0.506757	8.70124	-15.5876	-1.4524
 141	1	2	-0.012767	9.04466	-17.7599	-1.55813
 142	1	2	-0.014806	10.0353	-16.8295	-2.69109
 143	1	3	-0.274996	8.97755	-15.7936	-0.144218
 144	1	3	-0.274736	7.37349	-15.3441	-1.51604
 145	1	4	0	-15.1891	11.8451	7.74213
 146	1	2	0	8.31161	-17.085	-3.0223

Velocities

   1	0.000285117	-0.000135769	2.95023e-05
   2	0.000204153	-0.00041036	0.000260743
   3	5.54639e-05	-0.00042078	0.000318352
   4	0.000690945	-0.000154287	-0.000110666
   5	0.000908541	-0.000260885	-0.000914446
   6	-0.000359211	0.000631541	0.00107736
   7	2.70888e-05	0.000147482	7.11235e-05
   8	2.37164e-05	0.000571555	-0.00011214
   9	8.99143e-05	-4.57591e-05	0.000187313
  10	4.76531e-05	0.000215835	0.000276712
  11	-0.000396212	0.00104052	0.000497316
  12	0.000118125	0.00105541	-0.00082994
  13	-0.000395866	-0.000226556	-0.000557615
  14	-0.000131077	-0.000241507	-0.000231599
  15	-0.00055884	5.35806e-06	-0.000709742
  16	-0.000493126	-0.000516398	-0.000685599
  17	3.35546e-05	-0.000573909	-0.000136842
  18	-0.000213997	-0.000214716	-0.00035063
  19	-0.000241409	-0.00019719	-0.000193551
  20	-0.000286989	-0.000190567	-0.00036814
  21	-0.000164239	-0.00020151	-3.45639e-05
  22	-0.000397931	-0.000203534	-9.92152e-05
  23	-0.000362783	-0.000245569	-0.000245415
  24	-0.000140963	-0.000125715	-0.000386635
  25	8.57908e-05	-0.000192947	5.35768e-05
  26	-0.000107627	-0.000192944	-0.000220266
  27	0.000131675	-0.000207181	-7.62378e-05
  28	-8.62171e-05	-0.000251629	0.00033198
  29	-0.000313751	-0.000221048	-0.000328745
  30	8.66122e-05	-0.000228212	-0.000477146
  31	0.000877721	1.39386e-05	-0.000126664
  32	0.000486288	-2.30808e-05	0.000177853
  33	0.000808876	-0.000218415	-0.000309247
  34	0.00100977	0.000156272	-2.73423e-06
  35	0.000359163	-5.01495e-05	0.000216599
  36	0.000595756	0.000180001	0.000644869
  37	0.000341043	-2.06073e-06	-0.000149485
  38	0.0011524	7.19374e-05	-0.000251185
  39	0.000109789	-6.58156e-05	0.000314269
  40	1.44202e-05	-3.90105e-05	-0.000625816
  41	0.00159299	0.000457198	-0.00097952
  42	0.00181281	-0.000238366	0.000331555
  43	0.000216567	4.24906e-05	0.000178304
  44	0.000237453	-2.72466e-05	5.80206e-05
  45	0.000121542	1.51507e-05	0.000562757
  46	0.000379937	0.000379013	0.000137752
  47	0.000164846	-0.000260686	9.4996e-05
  48	0.000251805	0.000110008	0.000206537
  49	9.54012e-05	-8.34981e-05	9.1605e-05
  50	0.000100853	-0.000255218	-0.000132822
  51	7.22471e-05	0.000137654	8.82135e-05
  52	0.000101713	-0.000144108	-4.07837e-06
  53	-0.0001482	-0.000844554	-3.36341e-05
  54	0.000215184	-0.000203892	-0.000802686
  55	-0.000535664	-0.00030533	3.20841e-05
  56	3.79746e-05	-0.000173106	0.000408612
  57	-0.00062851	-0.000621404	0.000446697
  58	-0.000937716	-0.000462083	-0.000263435
  59	0.000712495	0.000158082	0.000409376
  60	-4.79124e-05	-0.000444577	0.00120321
  61	-0.000296228	0.000644323	-0.000288584
  62	-0.000376929	0.000101681	-0.000264815
  63	-0.000394422	0.00150011	-0.000801744
  64	0.00036652	0.000829406	0.000412722
  65	-9.79646e-05	-2.84152e-05	-0.000479651
  66	-0.00057551	0.000107234	-0.00010066
  67	-0.000616655	9.74191e-05	-0.00032155
  68	-0.000764207	-8.14916e-05	-0.000443692
  69	-0.000499175	4.31228e-05	-0.000445501
  70	-0.000608433	0.000110623	-0.000275946
  71	-0.00142727	-0.00018293	-0.00117288
  72	-0.000592197	-0.000924231	-6.87219e-05
  73	-0.000834588	-0.000535149	0.000553458
  74	-0.000590498	0.000131583	1.40339e-06
  75	-0.000476379	-0.00133962	0.00154487
  76	-0.00201326	-0.000960029	0.000191722
  77	-0.000727018	0.000202161	-0.000625348
  78	-0.000348786	0.000629024	0.000319521
  79	-4.30196e-05	0.000476495	0.000224802
  80	-5.09254e-05	0.000311968	0.000305734
  81	-4.45036e-05	0.000810117	-1.15935e-05
  82	-0.000372123	0.000335375	0.000121144
  83	-0.000317807	0.00112084	-0.000186248
  84	0.000963864	0.000245702	0.00035763
  85	3.8583e-05	-0.00031367	0.000412679
  86	0.00033376	0.00069196	0.00051411
  87	0.000167439	-0.000777639	0.000474149
  88	-0.000679475	-0.000330452	0.000248586
  89	0.00135534	0.000853825	0.00128574
  90	-1.42326e-05	0.00186667	0.000210606
  91	0.0001879	-0.000193433	0.000439897
  92	0.000396865	-0.000626848	0.000500522
  93	-0.000353389	0.000397995	0.000220837
  94	0.000949855	0.00021039	0.000479101
  95	0.000205746	-0.00129164	0.000419407
  96	0.00115102	-0.000658326	0.000692672
  97	0.000377696	-0.000476056	0.000765961
  98	-0.000196428	-0.000685442	0.000397527
  99	0.00137187	9.2166e-06	0.000625758
 100	0.000420927	-0.000886883	0.00182349
 101	-0.000353327	-0.000524999	-0.000365385
 102	-0.000810363	-0.0013633	0.000650854
 103	0.00030852	-0.000173846	-0.000684467
 104	5.867e-06	-0.000226898	-7.2123e-05
 105	0.000665878	-0.000397997	-0.00227827
 106	0.00172933	0.000486541	-5.39139e-05
 107	0.000292465	-0.000394026	-0.00058986
 108	-0.000662112	9.60309e-05	2.59841e-06
 109	-0.00114765	-0.000567292	0.000782965
 110	-0.00109033	-0.000467895	-0.000352431
 111	-0.000668017	-0.000397596	0.00183897
 112	-0.00212833	-0.00112126	0.0010372
 113	-0.00189071	-0.000680469	-0.000315384
 114	-0.00141753	-0.000443785	-0.00133983
 115	0.00011718	-0.000445665	4.83929e-05
 116	-0.000603309	-0.000125942	0.000249726
 117	0.000100087	-0.000858633	0.000253181
 118	0.000401661	-0.000223341	-6.58781e-05
 119	-0.000564232	0.000639076	-9.69316e-05
 120	-0.000999079	-0.000168581	0.000434524
 121	0.000720055	-0.000129519	0.00013142
 122	0.000497704	-0.000250473	-9.06315e-05
 123	0.000719	-0.000286063	0.000234866
 124	0.000736998	-0.000172059	0.000227091
 125	0.00068068	-7.1446e-05	9.13798e-06
 126	0.000551518	-3.80734e-05	-0.00053052
 127	0.000348956	0.000791537	7.92008e-05
 128	0.000788181	0.000404446	0.000291546
 129	-0.00035044	0.000640028	-0.000322462
 130	0.000203349	0.00154726	0.000511181
 131	0.000724105	0.000697432	0.000486991
 132	0.00130874	0.000380203	0.000647365
 133	0.000870938	7.40416e-05	-0.000344312
 134	0.00055408	0.000376757	-8.81951e-05
 135	0.00199568	9.44168e-05	-0.000178068
 136	0.000591476	-0.000877462	-0.000958818
 137	0.000921857	0.000542177	-0.000440158
 138	0.000287225	-2.72872e-05	0.000245697
 139	-0.00113653	0.000992527	-0.00065855
 140	-0.000335874	0.000907348	-0.000395916
 141	-0.00342442	0.000595492	-0.00127313
 142	-0.000504845	-6.38698e-06	0.000645513
 143	-0.00104469	0.000456172	-0.000407796
 144	-7.32372e-05	0.00219235	-0.00107226
 145	3.59114e-05	-0.0015817	0.000872018
 146	-0.000183356	0.00260199	-0.00183673

Bonds

   1	4	1	2
   2	1	1	3
   3	1	1	4
   4	2	2	5
   5	2	2	6
   6	4	7	8
   7	1	7	9
   8	1	7	10
   9	2	8	11
  10	2	8	12
  11	4	1	8
  12	4	13	14
  13	1	13	15
  14	1	13	16
  15	2	14	17
  16	2	14	18
  17	4	7	14
  18	4	19	20
  19	1	19	21
  20	1	19	22
  21	2	20	23
  22	2	20	24
  23	4	13	20
  24	4	25	26
  25	1	25	27
  26	1	25	28
  27	2	26	29
  28	2	26	30
  29	4	19	26
  30	4	31	32
  31	1	31	33
  32	1	31	34
  33	2	32	35
  34	2	32	36
  35	4	25	32
  36	4	37	38
  37	1	37	39
  38	1	37	40
  39	2	38	41
  40	2	38	42
  41	4	31	38
  42	4	43	44
  43	1	43	45
  44	1	43	46
  45	2	44	47
  46	2	44	48
  47	4	37	44
  48	4	49	50
  49	1	49	51
  50	1	49	52
  51	2	50	53
  52	2	50	54
  53	4	43	50
  54	4	55	56
  55	1	55	57
  56	1	55	58
  57	2	56	59
  58	2	56	60
  59	4	49	56
  60	4	61	62
  61	1	61	63
  62	1	61	64
  63	2	62	65
  64	2	62	66
  65	4	55	62
  66	4	67	68
  67	1	67	69
  68	1	67	70
  69	2	68	71
  70	2	68	72
  71	4	61	68
  72	4	73	74
  73	1	73	75
  74	1	73	76
  75	2	74	77
  76	2	74	78
  77	4	67	74
  78	4	79	80
  79	1	79	81
  80	1	79	82
  81	2	80	83
  82	2	80	84
  83	4	73	80
  84	4	85	86
  85	1	85	87
  86	1	85	88
  87	2	86	89
  88	2	86	90
  89	4	79	86
  90	4	91	92
  91	1	91	93
  92	1	91	94
  93	2	92	95
  94	2	92	96
  95	4	85	92
  96	4	97	98
  97	1	97	99
  98	1	97	100
  99	2	98	101
 100	2	98	102
 101	4	91	98
 102	4	103	104
 103	1	103	105
 104	1	103	106
 105	2	104	107
 106	2	104	108
 107	4	97	104
 108	4	109	110
 109	1	109	111
 110	1	109	112
 111	2	110	113
 112	2	110	114
 113	4	103	110
 114	4	115	116
 115	1	115	117
 116	1	115	118
 117	2	116	119
 118	2	116	120
 119	4	109	116
 120	4	121	122
 121	1	121	123
 122	1	121	124
 123	2	122	125
 124	2	122	126
 125	4	115	122
 126	4	127	128
 127	1	127	129
 128	1	127	130
 129	2	128	131
 130	2	128	132
 131	4	121	128
 132	4	133	134
 133	1	133	135
 134	1	133	136
 135	2	134	137
 136	2	134	138
 137	4	127	134
 138	4	139	140
 139	1	139	141
 140	1	139	142
 141	2	140	143
 142	2	140	144
 143	4	133	140
 144	3	2	145
 145	1	139	146

Angles

   1	2	2	1	3
   2	2	2	1	4
   3	4	3	1	4
   4	3	1	2	5
   5	3	1	2	6
   6	6	5	2	6
   7	2	8	7	9
   8	2	8	7	10
   9	4	9	7	10
  10	3	7	8	11
  11	3	7	8	12
  12	6	11	8	12
  13	7	2	1	8
  14	2	3	1	8
  15	2	4	1	8
  16	7	1	8	7
  17	3	1	8	11
  18	3	1	8	12
  19	2	14	13	15
  20	2	14	13	16
  21	4	15	13	16
  22	3	13	14	17
  23	3	13	14	18
  24	6	17	14	18
  25	7	8	7	14
  26	2	9	7	14
  27	2	10	7	14
  28	7	7	14	13
  29	3	7	14	17
  30	3	7	14	18
  31	2	20	19	21
  32	2	20	19	22
  33	4	21	19	22
  34	3	19	20	23
  35	3	19	20	24
  36	6	23	20	24
  37	7	14	13	20
  38	2	15	13	20
  39	2	16	13	20
  40	7	13	20	19
  41	3	13	20	23
  42	3	13	20	24
  43	2	26	25	27
  44	2	26	25	28
  45	4	27	25	28
  46	3	25	26	29
  47	3	25	26	30
  48	6	29	26	30
  49	7	20	19	26
  50	2	21	19	26
  51	2	22	19	26
  52	7	19	26	25
  53	3	19	26	29
  54	3	19	26	30
  55	2	32	31	33
  56	2	32	31	34
  57	4	33	31	34
  58	3	31	32	35
  59	3	31	32	36
  60	6	35	32	36
  61	7	26	25	32
  62	2	27	25	32
  63	2	28	25	32
  64	7	25	32	31
  65	3	25	32	35
  66	3	25	32	36
  67	2	38	37	39
  68	2	38	37	40
  69	4	39	37	40
  70	3	37	38	41
  71	3	37	38	42
  72	6	41	38	42
  73	7	32	31	38
  74	2	33	31	38
  75	2	34	31	38
  76	7	31	38	37
  77	3	31	38	41
  78	3	31	38	42
  79	2	44	43	45
  80	2	44	43	46
  81	4	45	43	46
  82	3	43	44	47
  83	3	43	44	48
  84	6	47	44	48
  85	7	38	37	44
  86	2	39	37	44
  87	2	40	37	44
  88	7	37	44	43
  89	3	37	44	47
  90	3	37	44	48
  91	2	50	49	51
  92	2	50	49	52
  93	4	51	49	52
  94	3	49	50	53
  95	3	49	50	54
  96	6	53	50	54
  97	7	44	43	50
  98	2	45	43	50
  99	2	46	43	50
 100	7	43	50	49
 101	3	43	50	53
 102	3	43	50	54
 103	2	56	55	57
 104	2	56	55	58
 105	4	57	55	58
 106	3	55	56	59
 107	3	55	56	60
 108	6	59	56	60
 109	7	50	49	56
 110	2	51	49	56
 111	2	52	49	56
 112	7	49	56	55
 113	3	49	56	59
 114	3	49	56	60
 115	2	62	61	63
 116	2	62	61	64
 117	4	63	61	64
 118	3	61	62	65
 119	3	61	62	66
 120	6	65	62	66
 121	7	56	55	62
 122	2	57	55	62
 123	2	58	55	62
 124	7	55	62	61
 125	3	55	62	65
 126	3	55	62	66
 127	2	68	67	69
 128	2	68	67	70
 129	4	69	67	70
 130	3	67	68	71
 131	3	67	68	72
 132	6	71	68	72
 133	7	62	61	68
 134	2	63	61	68
 135	2	64	61	68
 136	7	61	68	67
 137	3	61	68	71
 138	3	61	68	72
 139	2	74	73	75
 140	2	74	73	76
 141	4	75	73	76
 142	3	73	74	77
 143	3	73	74	78
 144	6	77	74	78
 145	7	68	67	74
 146	2	69	67	74
 147	2	70	67	74
 148	7	67	74	73
 149	3	67	74	77
 150	3	67	74	78
 151	2	80	79	81
 152	2	80	79	82
 153	4	81	79	82
 154	3	79	80	83
 155	3	79	80	84
 156	6	83	80	84
 157	7	74	73	80
 158	2	75	73	80
 159	2	76	73	80
 160	7	73	80	79
 161	3	73	80	83
 162	3	73	80	84
 163	2	86	85	87
 164	2	86	85	88
 165	4	87	85	88
 166	3	85	86	89
 167	3	85	86	90
 168	6	89	86	90
 169	7	80	79	86
 170	2	81	79	86
 171	2	82	79	86
 172	7	79	86	85
 173	3	79	86	89
 174	3	79	86	90
 175	2	92	91	93
 176	2	92	91	94
 177	4	93	91	94
 178	3	91	92	95
 179	3	91	92	96
 180	6	95	92	96
 181	7	86	85	92
 182	2	87	85	92
 183	2	88	85	92
 184	7	85	92	91
 185	3	85	92	95
 186	3	85	92	96
 187	2	98	97	99
 188	2	98	97	100
 189	4	99	97	100
 190	3	97	98	101
 191	3	97	98	102
 192	6	101	98	102
 193	7	92	91	98
 194	2	93	91	98
 195	2	94	91	98
 196	7	91	98	97
 197	3	91	98	101
 198	3	91	98	102
 199	2	104	103	105
 200	2	104	103	106
 201	4	105	103	106
 202	3	103	104	107
 203	3	103	104	108
 204	6	107	104	108
 205	7	98	97	104
 206	2	99	97	104
 207	2	100	97	104
 208	7	97	104	103
 209	3	97	104	107
 210	3	97	104	108
 211	2	110	109	111
 212	2	110	109	112
 213	4	111	109	112
 214	3	109	110	113
 215	3	109	110	114
 216	6	113	110	114
 217	7	104	103	110
 218	2	105	103	110
 219	2	106	103	110
 220	7	103	110	109
 221	3	103	110	113
 222	3	103	110	114
 223	2	116	115	117
 224	2	116	115	118
 225	4	117	115	118
 226	3	115	116	119
 227	3	115	116	120
 228	6	119	116	120
 229	7	110	109	116
 230	2	111	109	116
 231	2	112	109	116
 232	7	109	116	115
 233	3	109	116	119
 234	3	109	116	120
 235	2	122	121	123
 236	2	122	121	124
 237	4	123	121	124
 238	3	121	122	125
 239	3	121	122	126
 240	6	125	122	126
 241	7	116	115	122
 242	2	117	115	122
 243	2	118	115	122
 244	7	115	122	121
 245	3	115	122	125
 246	3	115	122	126
 247	2	128	127	129
 248	2	128	127	130
 249	4	129	127	130
 250	3	127	128	131
 251	3	127	128	132
 252	6	131	128	132
 253	7	122	121	128
 254	2	123	121	128
 255	2	124	121	128
 256	7	121	128	127
 257	3	121	128	131
 258	3	121	128	132
 259	2	134	133	135
 260	2	134	133	136
 261	4	135	133	136
 262	3	133	134	137
 263	3	133	134	138
 264	6	137	134	138
 265	7	128	127	134
 266	2	129	127	134
 267	2	130	127	134
 268	7	127	134	133
 269	3	127	134	137
 270	3	127	134	138
 271	2	140	139	141
 272	2	140	139	142
 273	4	141	139	142
 274	3	139	140	143
 275	3	139	140	144
 276	6	143	140	144
 277	7	134	133	140
 278	2	135	133	140
 279	2	136	133	140
 280	7	133	140	139
 281	3	133	140	143
 282	3	133	140	144
 283	5	1	2	145
 284	1	5	2	145
 285	1	6	2	145
 286	2	140	139	146
 287	4	141	139	146
 288	4	142	139	146

Dihedrals

   1	1	3	1	2	5
   2	1	3	1	2	6
   3	1	4	1	2	5
   4	1	4	1	2	6
   5	1	9	7	8	11
   6	1	9	7	8	12
   7	1	10	7	8	11
   8	1	10	7	8	12
   9	2	5	2	1	8
  10	2	6	2	1	8
  11	3	1	8	7	9
  12	3	1	8	7	10
  13	4	2	1	8	7
  14	2	2	1	8	11
  15	2	2	1	8	12
  16	3	3	1	8	7
  17	1	3	1	8	11
  18	1	3	1	8	12
  19	3	4	1	8	7
  20	1	4	1	8	11
  21	1	4	1	8	12
  22	1	15	13	14	17
  23	1	15	13	14	18
  24	1	16	13	14	17
  25	1	16	13	14	18
  26	2	11	8	7	14
  27	2	12	8	7	14
  28	4	1	8	7	14
  29	3	7	14	13	15
  30	3	7	14	13	16
  31	4	8	7	14	13
  32	2	8	7	14	17
  33	2	8	7	14	18
  34	3	9	7	14	13
  35	1	9	7	14	17
  36	1	9	7	14	18
  37	3	10	7	14	13
  38	1	10	7	14	17
  39	1	10	7	14	18
  40	1	21	19	20	23
  41	1	21	19	20	24
  42	1	22	19	20	23
  43	1	22	19	20	24
  44	2	17	14	13	20
  45	2	18	14	13	20
  46	4	7	14	13	20
  47	3	13	20	19	21
  48	3	13	20	19	22
  49	4	14	13	20	19
  50	2	14	13	20	23
  51	2	14	13	20	24
  52	3	15	13	20	19
  53	1	15	13	20	23
  54	1	15	13	20	24
  55	3	16	13	20	19
  56	1	16	13	20	23
  57	1	16	13	20	24
  58	1	27	25	26	29
  59	1	27	25	26	30
  60	1	28	25	26	29
  61	1	28	25	26	30
  62	2	23	20	19	26
  63	2	24	20	19	26
  64	4	13	20	19	26
  65	3	19	26	25	27
  66	3	19	26	25	28
  67	4	20	19	26	25
  68	2	20	19	26	29
  69	2	20	19	26	30
  70	3	21	19	26	25
  71	1	21	19	26	29
  72	1	21	19	26	30
  73	3	22	19	26	25
  74	1	22	19	26	29
  75	1	22	19	26	30
  76	1	33	31	32	35
  77	1	33	31	32	36
  78	1	34	31	32	35
  79	1	34	31	32	36
  80	2	29	26	25	32
  81	2	30	26	25	32
  82	4	19	26	25	32
  83	3	25	32	31	33
  84	3	25	32	31	34
  85	4	26	25	32	31
  86	2	26	25	32	35
  87	2	26	25	32	36
  88	3	27	25	32	31
  89	1	27	25	32	35
  90	1	27	25	32	36
  91	3	28	25	32	31
  92	1	28	25	32	35
  93	1	28	25	32	36
  94	1	39	37	38	41
  95	1	39	37	38	42
  96	1	40	37	38	41
  97	1	40	37	38	42
  98	2	35	32	31	38
  99	2	36	32	31	38
 100	4	25	32	31	38
 101	3	31	38	37	39
 102	3	31	38	37	40
 103	4	32	31	38	37
 104	2	32	31	38	41
 105	2	32	31	38	42
 106	3	33	31	38	37
 107	1	33	31	38	41
 108	1	33	31	38	42
 109	3	34	31	38	37
 110	1	34	31	38	41
 111	1	34	31	38	42
 112	1	45	43	44	47
 113	1	45	43	44	48
 114	1	46	43	44	47
 115	1	46	43	44	48
 116	2	41	38	37	44
 117	2	42	38	37	44
 118	4	31	38	37	44
 119	3	37	44	43	45
 120	3	37	44	43	46
 121	4	38	37	44	43
 122	2	38	37	44	47
 123	2	38	37	44	48
 124	3	39	37	44	43
 125	1	39	37	44	47
 126	1	39	37	44	48
 127	3	40	37	44	43
 128	1	40	37	44	47
 129	1	40	37	44	48
 130	1	51	49	50	53
 131	1	51	49	50	54
 132	1	52	49	50	53
 133	1	52	49	50	54
 134	2	47	44	43	50
 135	2	48	44	43	50
 136	4	37	44	43	50
 137	3	43	50	49	51
 138	3	43	50	49	52
 139	4	44	43	50	49
 140	2	44	43	50	53
 141	2	44	43	50	54
 142	3	45	43	50	49
 143	1	45	43	50	53
 144	1	45	43	50	54
 145	3	46	43	50	49
 146	1	46	43	50	53
 147	1	46	43	50	54
 148	1	57	55	56	59
 149	1	57	55	56	60
 150	1	58	55	56	59
 151	1	58	55	56	60
 152	2	53	50	49	56
 153	2	54	50	49	56
 154	4	43	50	49	56
 155	3	49	56	55	57
 156	3	49	56	55	58
 157	4	50	49	56	55
 158	2	50	49	56	59
 159	2	50	49	56	60
 160	3	51	49	56	55
 161	1	51	49	56	59
 162	1	51	49	56	60
 163	3	52	49	56	55
 164	1	52	49	56	59
 165	1	52	49	56	60
 166	1	63	61	62	65
 167	1	63	61	62	66
 168	1	64	61	62	65
 169	1	64	61	62	66
 170	2	59	56	55	62
 171	2	60	56	55	62
 172	4	49	56	55	62
 173	3	55	62	61	63
 174	3	55	62	61	64
 175	4	56	55	62	61
 176	2	56	55	62	65
 177	2	56	55	62	66
 178	3	57	55	62	61
 179	1	57	55	62	65
 180	1	57	55	62	66
 181	3	58	55	62	61
 182	1	58	55	62	65
 183	1	58	55	62	66
 184	1	69	67	68	71
 185	1	69	67	68	72
 186	1	70	67	68	71
 187	1	70	67	68	72
 188	2	65	62	61	68
 189	2	66	62	61	68
 190	4	55	62	61	68
 191	3	61	68	67	69
 192	3	61	68	67	70
 193	4	62	61	68	67
 194	2	62	61	68	71
 195	2	62	61	68	72
 196	3	63	61	68	67
 197	1	63	61	68	71
 198	1	63	61	68	72
 199	3	64	61	68	67
 200	1	64	61	68	71
 201	1	64	61	68	72
 202	1	75	73	74	77
 203	1	75	73	74	78
 204	1	76	73	74	77
 205	1	76	73	74	78
 206	2	71	68	67	74
 207	2	72	68	67	74
 208	4	61	68	67	74
 209	3	67	74	73	75
 210	3	67	74	73	76
 211	4	68	67	74	73
 212	2	68	67	74	77
 213	2	68	67	74	78
 214	3	69	67	74	73
 215	1	69	67	74	77
 216	1	69	67	74	78
 217	3	70	67	74	73
 218	1	70	67	74	77
 219	1	70	67	74	78
 220	1	81	79	80	83
 221	1	81	79	80	84
 222	1	82	79	80	83
 223	1	82	79	80	84
 224	2	77	74	73	80
 225	2	78	74	73	80
 226	4	67	74	73	80
 227	3	73	80	79	81
 228	3	73	80	79	82
 229	4	74	73	80	79
 230	2	74	73	80	83
 231	2	74	73	80	84
 232	3	75	73	80	79
 233	1	75	73	80	83
 234	1	75	73	80	84
 235	3	76	73	80	79
 236	1	76	73	80	83
 237	1	76	73	80	84
 238	1	87	85	86	89
 239	1	87	85	86	90
 240	1	88	85	86	89
 241	1	88	85	86	90
 242	2	83	80	79	86
 243	2	84	80	79	86
 244	4	73	80	79	86
 245	3	79	86	85	87
 246	3	79	86	85	88
 247	4	80	79	86	85
 248	2	80	79	86	89
 249	2	80	79	86	90
 250	3	81	79	86	85
 251	1	81	79	86	89
 252	1	81	79	86	90
 253	3	82	79	86	85
 254	1	82	79	86	89
 255	1	82	79	86	90
 256	1	93	91	92	95
 257	1	93	91	92	96
 258	1	94	91	92	95
 259	1	94	91	92	96
 260	2	89	86	85	92
 261	2	90	86	85	92
 262	4	79	86	85	92
 263	3	85	92	91	93
 264	3	85	92	91	94
 265	4	86	85	92	91
 266	2	86	85	92	95
 267	2	86	85	92	96
 268	3	87	85	92	91
 269	1	87	85	92	95
 270	1	87	85	92	96
 271	3	88	85	92	91
 272	1	88	85	92	95
 273	1	88	85	92	96
 274	1	99	97	98	101
 275	1	99	97	98	102
 276	1	100	97	98	101
 277	1	100	97	98	102
 278	2	95	92	91	98
 279	2	96	92	91	98
 280	4	85	92	91	98
 281	3	91	98	97	99
 282	3	91	98	97	100
 283	4	92	91	98	97
 284	2	92	91	98	101
 285	2	92	91	98	102
 286	3	93	91	98	97
 287	1	93	91	98	101
 288	1	93	91	98	102
 289	3	94	91	98	97
 290	1	94	91	98	101
 291	1	94	91	98	102
 292	1	105	103	104	107
 293	1	105	103	104	108
 294	1	106	103	104	107
 295	1	106	103	104	108
 296	2	101	98	97	104
 297	2	102	98	97	104
 298	4	91	98	97	104
 299	3	97	104	103	105
 300	3	97	104	103	106
 301	4	98	97	104	103
 302	2	98	97	104	107
 303	2	98	97	104	108
 304	3	99	97	104	103
 305	1	99	97	104	107
 306	1	99	97	104	108
 307	3	100	97	104	103
 308	1	100	97	104	107
 309	1	100	97	104	108
 310	1	111	109	110	113
 311	1	111	109	110	114
 312	1	112	109	110	113
 313	1	112	109	110	114
 314	2	107	104	103	110
 315	2	108	104	103	110
 316	4	97	104	103	110
 317	3	103	110	109	111
 318	3	103	110	109	112
 319	4	104	103	110	109
 320	2	104	103	110	113
 321	2	104	103	110	114
 322	3	105	103	110	109
 323	1	105	103	110	113
 324	1	105	103	110	114
 325	3	106	103	110	109
 326	1	106	103	110	113
 327	1	106	103	110	114
 328	1	117	115	116	119
 329	1	117	115	116	120
 330	1	118	115	116	119
 331	1	118	115	116	120
 332	2	113	110	109	116
 333	2	114	110	109	116
 334	4	103	110	109	116
 335	3	109	116	115	117
 336	3	109	116	115	118
 337	4	110	109	116	115
 338	2	110	109	116	119
 339	2	110	109	116	120
 340	3	111	109	116	115
 341	1	111	109	116	119
 342	1	111	109	116	120
 343	3	112	109	116	115
 344	1	112	109	116	119
 345	1	112	109	116	120
 346	1	123	121	122	125
 347	1	123	121	122	126
 348	1	124	121	122	125
 349	1	124	121	122	126
 350	2	119	116	115	122
 351	2	120	116	115	122
 352	4	109	116	115	122
 353	3	115	122	121	123
 354	3	115	122	121	124
 355	4	116	115	122	121
 356	2	116	115	122	125
 357	2	116	115	122	126
 358	3	117	115	122	121
 359	1	117	115	122	125
 360	1	117	115	122	126
 361	3	118	115	122	121
 362	1	118	115	122	125
 363	1	118	115	122	126
 364	1	129	127	128	131
 365	1	129	127	128	132
 366	1	130	127	128	131
 367	1	130	127	128	132
 368	2	125	122	121	128
 369	2	126	122	121	128
 370	4	115	122	121	128
 371	3	121	128	127	129
 372	3	121	128	127	130
 373	4	122	121	128	127
 374	2	122	121	128	131
 375	2	122	121	128	132
 376	3	123	121	128	127
 377	1	123	121	128	131
 378	1	123	121	128	132
 379	3	124	121	128	127
 380	1	124	121	128	131
 381	1	124	121	128	132
 382	1	135	133	134	137
 383	1	135	133	134	138
 384	1	136	133	134	137
 385	1	136	133	134	138
 386	2	131	128	127	134
 387	2	132	128	127	134
 388	4	121	128	127	134
 389	3	127	134	133	135
 390	3	127	134	133	136
 391	4	128	127	134	133
 392	2	128	127	134	137
 393	2	128	127	134	138
 394	3	129	127	134	133
 395	1	129	127	134	137
 396	1	129	127	134	138
 397	3	130	127	134	133
 398	1	130	127	134	137
 399	1	130	127	134	138
 400	1	141	139	140	143
 401	1	141	139	140	144
 402	1	142	139	140	143
 403	1	142	139	140	144
 404	2	137	134	133	140
 405	2	138	134	133	140
 406	4	127	134	133	140
 407	3	133	140	139	141
 408	3	133	140	139	142
 409	4	134	133	140	139
 410	2	134	133	140	143
 411	2	134	133	140	144
 412	3	135	133	140	139
 413	1	135	133	140	143
 414	1	135	133	140	144
 415	3	136	133	140	139
 416	1	136	133	140	143
 417	1	136	133	140	144
 418	2	3	1	2	145
 419	2	4	1	2	145
 420	2	8	1	2	145
 421	1	143	140	139	146
 422	1	144	140	139	146
 423	3	133	140	139	146

