pySIMM System Object

266 atoms
265 bonds
528 angles
783 dihedrals
0 impropers

4 atom types
4 bond types
7 angle types
4 dihedral types

-104.571191 104.571191 xlo xhi
-104.571191 104.571191 ylo yhi
-104.571191 104.571191 zlo zhi

Masses

   1	12.01	# c3
   2	1.008	# hc
   3	19.0	# f
   4	1.008	# h2

Pair Coeffs

   1	0.1094	3.3996695084235347	# c3
   2	0.0157	2.649532787749369	# hc
   3	0.061	3.1181455134911875	# f
   4	0.0157	2.2931733004932333	# h2

Bond Coeffs

   1	330.6	1.0969	# c3,hc
   2	356.9	1.3497	# c3,f
   3	331.7	1.0961	# c3,h2
   4	300.9	1.5375	# c3,c3

Angle Coeffs

   1	51.15	108.79	# f,c3,h2
   2	46.34	109.8	# c3,c3,hc
   3	66.11	109.24	# c3,c3,f
   4	39.4	107.58	# hc,c3,hc
   5	46.25	110.22	# c3,c3,h2
   6	70.89	107.36	# f,c3,f
   7	62.86	111.51	# c3,c3,c3

Dihedral Coeffs

   1	2	0.0	3	0	0.19	1	0	# hc,c3,c3,f
   2	1	0.15555555555555556	3	0	# X,c3,c3,X
   3	1	0.16	3	0	# hc,c3,c3,c3
   4	3	0.18	3	0	0.25	2	180	0.2	1	180	# c3,c3,c3,c3

Atoms

   1	1	1	0.070548	-4.2913	26.3003	7.44946
   2	1	1	0.506757	-4.89914	26.3003	6.03172
   3	1	2	-0.012767	-4.92329	26.9092	8.10977
   4	1	2	-0.014806	-4.31933	25.2767	7.84305
   5	1	3	-0.274996	-6.22851	26.0751	6.11697
   6	1	3	-0.274736	-4.37859	25.3043	5.28259
   7	1	1	0.070548	-2.32706	27.1895	8.9063
   8	1	1	0.506757	-2.84438	26.8519	7.47971
   9	1	2	-0.012767	-3.11356	27.7573	9.42219
  10	1	2	-0.014806	-1.48861	27.8928	8.83441
  11	1	3	-0.274996	-2.80009	27.9943	6.75675
  12	1	3	-0.274736	-2.01177	25.9904	6.85979
  13	1	1	0.070548	-0.651606	25.1778	9.43511
  14	1	1	0.506757	-1.92377	25.9909	9.81274
  15	1	2	-0.012767	-0.872037	24.5565	8.55975
  16	1	2	-0.014806	-0.451276	24.4659	10.2476
  17	1	3	-0.274996	-1.7852	26.453	11.0753
  18	1	3	-0.274736	-2.95869	25.1274	9.89182
  19	1	1	0.070548	1.94762	25.1709	9.13617
  20	1	1	0.506757	0.640907	26.0058	9.18549
  21	1	2	-0.012767	2.77783	25.8434	8.88817
  22	1	2	-0.014806	2.17133	24.8042	10.1479
  23	1	3	-0.274996	0.793247	26.9248	10.1634
  24	1	3	-0.274736	0.541051	26.7154	8.04102
  25	1	1	0.070548	3.36109	23.5045	7.73984
  26	1	1	0.506757	1.93709	23.9576	8.16487
  27	1	2	-0.012767	3.38245	22.4179	7.59436
  28	1	2	-0.014806	4.04039	23.6777	8.58622
  29	1	3	-0.274996	1.34547	22.9223	8.80091
  30	1	3	-0.274736	1.1703	24.1958	7.08145
  31	1	1	0.070548	3.33663	23.8924	5.08973
  32	1	1	0.506757	3.94963	24.216	6.48587
  33	1	2	-0.012767	2.37738	24.4104	4.96681
  34	1	2	-0.014806	3.98988	24.3368	4.32584
  35	1	3	-0.274996	3.87526	25.5528	6.66501
  36	1	3	-0.274736	5.27505	23.9541	6.44472
  37	1	1	0.070548	2.78689	22.2023	3.25569
  38	1	1	0.506757	3.14818	22.3909	4.75274
  39	1	2	-0.012767	1.91276	22.8317	3.03766
  40	1	2	-0.014806	3.58748	22.6189	2.63259
  41	1	3	-0.274996	4.27596	21.7156	5.05745
  42	1	3	-0.274736	2.16852	21.8699	5.51951
  43	1	1	0.070548	3.4844	19.6183	3.08585
  44	1	1	0.506757	2.45447	20.7509	2.79784
  45	1	2	-0.012767	3.01718	18.6727	2.78146
  46	1	2	-0.014806	3.64405	19.5204	4.16636
  47	1	3	-0.274996	2.20454	20.7877	1.47034
  48	1	3	-0.274736	1.27636	20.3819	3.34738
  49	1	1	0.070548	5.9316	18.7272	2.83929
  50	1	1	0.506757	4.85303	19.734	2.35671
  51	1	2	-0.012767	6.15393	18.9403	3.89449
  52	1	2	-0.014806	6.86381	18.9345	2.29543
  53	1	3	-0.274996	4.68594	19.6055	1.0231
  54	1	3	-0.274736	5.37398	20.9663	2.52912
  55	1	1	0.070548	5.22711	16.75	1.26667
  56	1	1	0.506757	5.61431	17.2128	2.70239
  57	1	2	-0.012767	4.1873	17.0457	1.07188
  58	1	2	-0.014806	5.83836	17.2945	0.534084
  59	1	3	-0.274996	6.70888	16.5517	3.13718
  60	1	3	-0.274736	4.62478	16.8951	3.56601
  61	1	1	0.070548	4.64024	14.8218	-0.320208
  62	1	1	0.506757	5.37277	15.2275	0.990733
  63	1	2	-0.012767	3.57286	15.0603	-0.214018
  64	1	2	-0.014806	5.00524	15.4585	-1.13794
  65	1	3	-0.274996	4.87628	14.5192	2.02761
  66	1	3	-0.274736	6.68795	14.9372	0.885604
  67	1	1	0.070548	3.96106	13.0375	-2.03592
  68	1	1	0.506757	4.77496	13.3299	-0.745938
  69	1	2	-0.012767	2.89557	12.9881	-1.77082
  70	1	2	-0.014806	4.05165	13.8979	-2.71365
  71	1	3	-0.274996	4.30352	12.5268	0.232971
  72	1	3	-0.274736	6.07205	13.0081	-0.933551
  73	1	1	0.070548	4.33636	10.428	-2.00999
  74	1	1	0.506757	4.34379	11.7536	-2.83021
  75	1	2	-0.012767	4.96077	10.5427	-1.11653
  76	1	2	-0.014806	3.31618	10.2529	-1.64152
  77	1	3	-0.274996	3.4378	11.6538	-3.82833
  78	1	3	-0.274736	5.53437	11.9505	-3.4372
  79	1	1	0.070548	4.60705	7.88351	-1.90214
  80	1	1	0.506757	4.83603	9.1579	-2.76121
  81	1	2	-0.012767	3.53603	7.81639	-1.66468
  82	1	2	-0.014806	5.11229	8.01928	-0.935989
  83	1	3	-0.274996	4.20994	9.02046	-3.94865
  84	1	3	-0.274736	6.15515	9.28693	-3.01736
  85	1	1	0.070548	6.58327	6.41079	-2.80879
  86	1	1	0.506757	5.06072	6.52084	-2.50906
  87	1	2	-0.012767	6.78907	6.90462	-3.76796
  88	1	2	-0.014806	7.13302	6.98429	-2.04983
  89	1	3	-0.274996	4.36156	6.25432	-3.63363
  90	1	3	-0.274736	4.68943	5.56502	-1.62912
  91	1	1	0.070548	6.47179	3.98637	-3.82315
  92	1	1	0.506757	7.18618	4.97642	-2.85893
  93	1	2	-0.012767	5.49775	3.7156	-3.39451
  94	1	2	-0.014806	6.24845	4.51029	-4.76275
  95	1	3	-0.274996	7.21371	4.47108	-1.60559
  96	1	3	-0.274736	8.48231	5.10349	-3.21574
  97	1	1	0.070548	7.76097	1.87657	-2.92754
  98	1	1	0.506757	7.24107	2.67118	-4.16085
  99	1	2	-0.012767	8.68827	2.34187	-2.56921
 100	1	2	-0.014806	7.03691	1.99772	-2.11118
 101	1	3	-0.274996	8.27669	2.95411	-4.98144
 102	1	3	-0.274736	6.40845	1.90505	-4.89924
 103	1	1	0.070548	8.93544	-0.129391	-4.25132
 104	1	1	0.506757	7.99034	0.345468	-3.10667
 105	1	2	-0.012767	8.67963	-1.15996	-4.52656
 106	1	2	-0.014806	8.71767	0.448582	-5.15743
 107	1	3	-0.274996	6.79269	-0.260647	-3.26488
 108	1	3	-0.274736	8.44053	-0.123647	-1.92324
 109	1	1	0.070548	11.0967	-1.01364	-2.91888
 110	1	1	0.506757	10.4648	-0.0481769	-3.97088
 111	1	2	-0.012767	12.1889	-0.908077	-2.9825
 112	1	2	-0.014806	10.8458	-0.675462	-1.90577
 113	1	3	-0.274996	11.1137	-0.221897	-5.1441
 114	1	3	-0.274736	10.7676	1.21444	-3.59806
 115	1	1	0.070548	11.6741	-3.39249	-2.13146
 116	1	1	0.506757	10.7545	-2.52433	-3.04188
 117	1	2	-0.012767	12.6061	-3.60392	-2.67417
 118	1	2	-0.014806	11.9769	-2.79541	-1.26011
 119	1	3	-0.274996	10.9096	-2.9293	-4.32112
 120	1	3	-0.274736	9.45732	-2.72183	-2.73207
 121	1	1	0.070548	10.581	-5.7112	-2.70954
 122	1	1	0.506757	11.0811	-4.73423	-1.60943
 123	1	2	-0.012767	11.4562	-6.16024	-3.19976
 124	1	2	-0.014806	10.063	-5.1538	-3.49756
 125	1	3	-0.274996	10.1297	-4.4736	-0.687095
 126	1	3	-0.274736	12.0643	-5.36103	-0.923722
 127	1	1	0.070548	10.1833	-7.78271	-1.12411
 128	1	1	0.506757	9.62782	-6.84616	-2.2425
 129	1	2	-0.012767	10.2896	-7.21366	-0.19124
 130	1	2	-0.014806	11.1975	-8.10446	-1.3986
 131	1	3	-0.274996	9.3468	-7.56756	-3.34925
 132	1	3	-0.274736	8.45468	-6.29705	-1.85862
 133	1	1	0.070548	9.81458	-9.85606	0.391614
 134	1	1	0.506757	9.31596	-9.04622	-0.838707
 135	1	2	-0.012767	9.45263	-9.36546	1.30621
 136	1	2	-0.014806	10.9104	-9.79221	0.440996
 137	1	3	-0.274996	9.29921	-9.84528	-1.92681
 138	1	3	-0.274736	8.04026	-8.67709	-0.593656
 139	1	1	0.070548	7.8847	-11.6613	0.309146
 140	1	1	0.506757	9.40869	-11.3621	0.431731
 141	1	2	-0.012767	7.4323	-11.0195	-0.453153
 142	1	2	-0.014806	7.39852	-11.3808	1.25392
 143	1	3	-0.274996	10.1287	-12.0445	-0.485485
 144	1	3	-0.274736	9.82554	-11.8452	1.62481
 145	1	1	0.070548	8.13303	-14.2267	0.84156
 146	1	1	0.506757	7.49185	-13.1228	-0.0480814
 147	1	2	-0.012767	8.07264	-13.9207	1.89485
 148	1	2	-0.014806	9.2036	-14.2909	0.608107
 149	1	3	-0.274996	7.79793	-13.3414	-1.34626
 150	1	3	-0.274736	6.14433	-13.1911	0.0341205
 151	1	1	0.070548	8.39781	-16.7296	1.35439
 152	1	1	0.506757	7.50183	-15.6431	0.699981
 153	1	2	-0.012767	8.36472	-16.5976	2.4449
 154	1	2	-0.014806	9.44263	-16.5447	1.0692
 155	1	3	-0.274996	7.27428	-15.9447	-0.594571
 156	1	3	-0.274736	6.30511	-15.6496	1.32847
 157	1	1	0.070548	6.64196	-18.684	1.44235
 158	1	1	0.506757	8.06414	-18.2127	1.01888
 159	1	2	-0.012767	6.5476	-18.5261	2.52556
 160	1	2	-0.014806	5.87769	-18.0412	0.997771
 161	1	3	-0.274996	8.98713	-18.9537	1.67048
 162	1	3	-0.274736	8.286	-18.4489	-0.290658
 163	1	1	0.070548	6.13152	-20.6017	-0.3515
 164	1	1	0.506757	6.28543	-20.1708	1.13637
 165	1	2	-0.012767	5.88685	-21.6731	-0.366443
 166	1	2	-0.014806	7.10674	-20.5367	-0.85001
 167	1	3	-0.274996	7.19784	-20.9881	1.70581
 168	1	3	-0.274736	5.14268	-20.4691	1.79254
 169	1	1	0.070548	3.59838	-20.0392	-0.737599
 170	1	1	0.506757	5.07151	-19.8643	-1.21928
 171	1	2	-0.012767	3.48945	-19.6038	0.261033
 172	1	2	-0.014806	3.39705	-21.1134	-0.625905
 173	1	3	-0.274996	5.20818	-20.3707	-2.46441
 174	1	3	-0.274736	5.39011	-18.5583	-1.31611
 175	1	1	0.070548	1.05672	-19.7965	-1.20776
 176	1	1	0.506757	2.50162	-19.4092	-1.64651
 177	1	2	-0.012767	1.07659	-20.8065	-0.775634
 178	1	2	-0.014806	0.422864	-19.8827	-2.10152
 179	1	3	-0.274996	2.63951	-19.8447	-2.91796
 180	1	3	-0.274736	2.65279	-18.0686	-1.69428
 181	1	1	0.070548	-1.00245	-19.4697	0.251751
 182	1	1	0.506757	0.341594	-18.8445	-0.212433
 183	1	2	-0.012767	-1.53407	-19.8625	-0.625882
 184	1	2	-0.014806	-0.770766	-20.3512	0.866335
 185	1	3	-0.274996	0.106248	-17.6568	-0.808121
 186	1	3	-0.274736	1.14198	-18.6223	0.852844
 187	1	1	0.070548	-2.70386	-17.4856	0.170839
 188	1	1	0.506757	-1.97767	-18.5527	1.04526
 189	1	2	-0.012767	-2.01471	-16.6569	-0.0329411
 190	1	2	-0.014806	-2.93701	-17.9368	-0.80193
 191	1	3	-0.274996	-1.32178	-17.9513	2.06126
 192	1	3	-0.274736	-2.87846	-19.3785	1.62294
 193	1	1	0.070548	-4.58725	-15.6584	0.0245823
 194	1	1	0.506757	-4.00449	-16.8851	0.781972
 195	1	2	-0.012767	-5.54727	-15.3978	0.486438
 196	1	2	-0.014806	-3.93617	-14.7896	0.194837
 197	1	3	-0.274996	-3.7702	-16.4844	2.05114
 198	1	3	-0.274736	-4.97115	-17.8272	0.859376
 199	1	1	0.070548	-5.68584	-14.7821	-2.18474
 200	1	1	0.506757	-4.7721	-15.8388	-1.50673
 201	1	2	-0.012767	-5.23942	-13.7874	-2.04797
 202	1	2	-0.014806	-5.64871	-14.9642	-3.26712
 203	1	3	-0.274996	-5.19952	-17.0804	-1.82593
 204	1	3	-0.274736	-3.55782	-15.727	-2.09039
 205	1	1	0.070548	-8.10731	-14.2754	-2.87648
 206	1	1	0.506757	-7.17291	-14.7327	-1.71945
 207	1	2	-0.012767	-7.94589	-13.2046	-3.0535
 208	1	2	-0.014806	-7.78188	-14.7685	-3.80244
 209	1	3	-0.274996	-7.57351	-15.9136	-1.20518
 210	1	3	-0.274736	-7.2666	-13.8417	-0.707386
 211	1	1	0.070548	-10.3606	-13.9163	-1.50569
 212	1	1	0.506757	-9.6299	-14.5621	-2.72249
 213	1	2	-0.012767	-9.73565	-13.9917	-0.609231
 214	1	2	-0.014806	-11.254	-14.5141	-1.27641
 215	1	3	-0.274996	-9.83077	-15.8978	-2.68122
 216	1	3	-0.274736	-10.2193	-14.186	-3.87915
 217	1	1	0.070548	-11.346	-11.8225	-0.384726
 218	1	1	0.506757	-10.8155	-12.4452	-1.7037
 219	1	2	-0.012767	-10.6222	-12.0252	0.416968
 220	1	2	-0.014806	-12.2633	-12.3533	-0.0945237
 221	1	3	-0.274996	-9.79966	-11.7068	-2.19934
 222	1	3	-0.274736	-11.8132	-12.4224	-2.61526
 223	1	1	0.070548	-12.5484	-9.81544	-1.57558
 224	1	1	0.506757	-11.6343	-10.2921	-0.408502
 225	1	2	-0.012767	-12.0235	-9.99091	-2.52267
 226	1	2	-0.014806	-13.444	-10.4485	-1.60174
 227	1	3	-0.274996	-10.4569	-9.62948	-0.424358
 228	1	3	-0.274736	-12.2097	-9.99834	0.777786
 229	1	1	0.070548	-13.8317	-7.95006	-2.81099
 230	1	1	0.506757	-12.9649	-8.31681	-1.56896
 231	1	2	-0.012767	-13.512	-8.56669	-3.66232
 232	1	2	-0.014806	-13.6194	-6.91452	-3.11152
 233	1	3	-0.274996	-13.6001	-7.98629	-0.423792
 234	1	3	-0.274736	-11.8567	-7.54509	-1.61654
 235	1	1	0.070548	-16.0889	-8.08467	-4.00949
 236	1	1	0.506757	-15.3659	-8.0967	-2.6359
 237	1	2	-0.012767	-15.6431	-7.31289	-4.64701
 238	1	2	-0.014806	-15.8636	-9.03267	-4.51761
 239	1	3	-0.274996	-15.6431	-9.25545	-1.99761
 240	1	3	-0.274736	-15.8241	-7.08377	-1.86926
 241	1	1	0.070548	-18.1601	-6.44619	-3.83487
 242	1	1	0.506757	-17.6352	-7.90392	-3.95715
 243	1	2	-0.012767	-19.2574	-6.48706	-3.80401
 244	1	2	-0.014806	-17.8634	-6.04495	-2.86002
 245	1	3	-0.274996	-18.1749	-8.47854	-5.0558
 246	1	3	-0.274736	-18.1579	-8.6113	-2.93163
 247	1	1	0.070548	-18.7363	-4.28494	-5.14236
 248	1	1	0.506757	-17.7288	-5.44964	-4.95232
 249	1	2	-0.012767	-18.6031	-3.85292	-6.14419
 250	1	2	-0.014806	-19.7523	-4.70254	-5.15832
 251	1	3	-0.274996	-16.4992	-4.95259	-4.68893
 252	1	3	-0.274736	-17.6116	-6.07441	-6.14437
 253	1	1	0.070548	-17.6619	-2.01596	-4.47848
 254	1	1	0.506757	-18.666	-3.14401	-4.08819
 255	1	2	-0.012767	-16.7894	-2.0696	-3.812
 256	1	2	-0.014806	-17.2572	-2.2036	-5.48195
 257	1	3	-0.274996	-18.3323	-3.62683	-2.87269
 258	1	3	-0.274736	-19.9225	-2.67998	-3.92626
 259	1	1	0.070548	-19.3474	-0.28608	-5.46927
 260	1	1	0.506757	-18.2132	-0.566082	-4.44723
 261	1	2	-0.012767	-19.3925	0.780101	-5.72466
 262	1	2	-0.014806	-20.3333	-0.562541	-5.07639
 263	1	3	-0.274996	-18.6232	-0.246859	-3.1996
 264	1	3	-0.274736	-17.1889	0.270877	-4.72672
 265	1	4	0	-4.74372	27.2593	5.52493
 266	1	2	0	-19.1847	-0.847041	-6.39857

Velocities

   1	-0.000625645	0.000231727	0.000257661
   2	0.000235105	-3.06306e-05	3.01423e-06
   3	-0.000886405	0.000473945	-0.000269123
   4	-0.00086639	0.000484033	0.000707368
   5	0.000222782	-0.000636342	-0.000922177
   6	0.00092074	-5.41929e-06	0.00035012
   7	-0.000228915	5.6137e-05	0.00036449
   8	-0.000494911	7.00304e-05	0.000525999
   9	0.000108346	0.000268298	0.000642059
  10	-0.000160564	-0.000113072	1.4045e-05
  11	-0.000727504	0.000132131	0.000553141
  12	-0.000650681	0.000107098	0.000353669
  13	-2.73738e-05	0.00010298	1.04537e-05
  14	2.48645e-06	6.04342e-05	0.000318992
  15	-0.00017041	0.000264103	-2.32463e-05
  16	9.88327e-05	-0.00010112	-0.000206067
  17	0.000350236	0.000150727	0.000292511
  18	-5.38411e-06	0.000198837	0.000591582
  19	-1.85423e-05	0.000230809	-0.000175988
  20	-9.11293e-05	0.000135035	-7.30193e-05
  21	-9.82116e-05	0.000232564	-0.000382936
  22	0.000204273	0.000283556	-0.000134004
  23	1.67582e-05	0.000117209	-1.31155e-05
  24	-0.000123526	0.000135083	-6.85635e-05
  25	-0.000134363	-5.18569e-05	1.17302e-06
  26	-9.67547e-05	9.6378e-05	-0.000118961
  27	-0.000274897	-4.60801e-05	0.000181553
  28	-0.000206144	-1.28088e-05	0.000100892
  29	-0.000333914	0.000275043	-5.08508e-05
  30	-4.21352e-05	0.000205583	-0.000132917
  31	1.02975e-05	-0.000177317	4.94294e-05
  32	5.0348e-05	-0.000243331	7.46419e-05
  33	-5.97972e-05	-0.000275056	0.00013276
  34	-0.000107314	-9.75634e-06	3.74544e-05
  35	0.000415245	-0.000224558	-3.11186e-05
  36	-2.14579e-05	-0.000583502	8.62761e-05
  37	0.00022991	-0.000145999	-8.97406e-05
  38	0.000188282	-0.000134773	-7.50735e-05
  39	0.000254964	-0.000127594	-0.000124239
  40	0.000281258	-0.000145265	-1.64917e-05
  41	0.000241663	-0.000115948	-0.000176644
  42	0.000221969	-0.00029388	-5.6541e-05
  43	0.000293649	-9.82124e-05	-0.000398474
  44	0.000226938	-0.000144631	-0.000138869
  45	0.000158061	-8.20113e-05	-0.000276626
  46	0.000596518	-9.67811e-05	-0.000448239
  47	-3.69214e-05	-7.65391e-05	-7.19467e-05
  48	0.000381451	-0.000243498	9.82592e-05
  49	0.000144333	-0.000238872	-0.000657776
  50	0.000125349	-0.000268881	-0.000733668
  51	0.000316916	1.03327e-05	-0.000747498
  52	7.03141e-05	-0.000493274	-0.000867669
  53	-0.000152998	-0.000597586	-0.000676655
  54	0.000165289	-0.000231336	-0.00111474
  55	0.000117085	-0.000488229	-0.000164421
  56	-5.62075e-05	-0.000240331	-0.000218415
  57	0.000258114	-0.000165526	-0.0004691
  58	0.000482006	-0.000901304	-0.00016948
  59	-0.000263203	-0.000326307	0.000142341
  60	-0.000252341	0.000109661	-0.000297811
  61	0.000197861	-0.000396147	-0.000101069
  62	-0.000459087	-0.00059832	0.000300071
  63	0.000202198	-0.000143702	-0.000698458
  64	0.000817348	-0.000502491	9.22335e-05
  65	-0.00163742	-6.76235e-05	9.75311e-05
  66	-0.000551722	-0.00139359	0.00129916
  67	0.00021198	-0.000347919	-3.54348e-05
  68	0.000112993	-0.00040913	2.08032e-05
  69	0.000200472	-0.000414085	-9.92179e-05
  70	0.00022194	-0.000318753	4.1047e-06
  71	-2.98101e-05	-0.00035423	1.8661e-06
  72	0.000118008	-0.000487831	0.000149776
  73	0.000496464	-0.000230076	7.59729e-05
  74	0.000362206	-0.000295533	9.36663e-06
  75	0.000690505	-0.000230796	-4.87019e-05
  76	0.000572853	-0.000205484	0.000291242
  77	0.000408472	-0.00039445	-2.06418e-05
  78	0.00036894	-0.000160499	6.94324e-05
  79	0.000620555	-0.000152602	7.02477e-05
  80	0.000310666	-0.000207406	-4.07645e-05
  81	0.000660613	-0.000290592	0.000195004
  82	0.00072651	-5.93128e-05	6.95065e-06
  83	-0.000147752	-0.000293782	0.000209209
  84	0.000201172	-0.000167705	-0.00054604
  85	0.000652598	6.12889e-05	-0.000244291
  86	0.000700943	-6.71805e-05	7.00231e-06
  87	0.000428129	-0.000177674	-0.000427404
  88	0.00078719	0.000298287	-0.000514741
  89	0.000551957	-0.000137304	0.000114719
  90	0.000896848	-8.88134e-05	6.35744e-05
  91	0.000357656	-1.37436e-05	0.000251728
  92	0.000638401	6.59394e-05	-2.6976e-05
  93	0.000391198	0.000166942	0.000450276
  94	0.00028093	-0.000174924	0.000181881
  95	0.000807985	0.000287481	6.79624e-05
  96	0.000587278	-4.24119e-05	-0.000221021
  97	-0.000581385	-0.000239038	0.000650001
  98	0.000124203	-0.00015848	0.000440402
  99	-0.000787094	-0.000260071	0.00120196
 100	-0.00105721	-0.00026629	0.000255071
 101	0.000511184	-0.000377931	0.000846745
 102	0.000216314	3.16876e-05	0.000129556
 103	-0.000421963	-7.56546e-05	0.000579313
 104	-0.000446185	-0.000206003	0.000617873
 105	-0.000288593	-0.000102493	0.000587264
 106	-0.000549979	-0.000148909	0.000576374
 107	-0.000399982	-0.00029433	0.000585249
 108	-0.000365561	-0.00016426	0.000599593
 109	-0.000172336	0.000214902	0.000372514
 110	-0.000421102	0.000182054	0.000495166
 111	-0.000177135	9.42193e-05	5.63632e-06
 112	0.000157589	0.000312673	0.000430033
 113	-0.000488768	0.000375116	0.000421322
 114	-0.0006163	0.00020602	0.000564532
 115	-0.000405859	0.000148353	0.000455493
 116	-0.000358869	0.000259305	0.000536778
 117	-0.000354187	0.000286555	0.000502269
 118	-0.000516659	-1.52274e-05	0.000611526
 119	-0.00055258	0.00023602	0.000517517
 120	-0.000325878	0.000407241	0.00072977
 121	-0.000445354	0.00035782	-0.000248294
 122	-0.000467409	1.68607e-05	6.13507e-05
 123	-0.000424192	0.000349606	-0.000187323
 124	-0.000276178	0.000556449	-0.000213715
 125	-0.000515862	-0.000272557	9.51447e-05
 126	-0.000500373	-0.000213243	-8.39304e-05
 127	-0.000922803	0.000507231	-0.00040576
 128	-0.000634926	0.0003559	-0.000668016
 129	-0.00164265	0.000556407	-0.000347741
 130	-0.000679731	0.000870719	0.000121312
 131	-9.60984e-05	0.000337024	-0.00079582
 132	-0.000846323	0.000256126	-0.00115798
 133	0.000131447	0.00016032	-0.00100126
 134	-0.000535343	0.000215128	-0.000694783
 135	0.000835586	0.000276758	-0.00080717
 136	0.000176963	3.32296e-05	-0.00178324
 137	-0.000526979	0.000387988	-0.000829673
 138	-0.000553414	-6.76248e-05	-0.000310053
 139	7.0247e-05	0.000155097	-0.00013612
 140	8.858e-05	0.000186169	-0.000548051
 141	-0.000115844	7.50101e-05	-8.47984e-05
 142	0.000340627	0.000248506	-3.38045e-05
 143	-0.000102768	-6.06156e-05	-0.000497633
 144	0.000302333	0.000514305	-0.000473164
 145	-2.74818e-05	0.000160688	3.66717e-05
 146	-9.7682e-05	0.000135947	8.85961e-05
 147	0.000162836	0.000233682	2.79299e-05
 148	-7.50286e-05	7.86986e-05	-0.000135616
 149	-0.000371631	-3.66631e-05	5.92774e-05
 150	-7.6428e-05	0.000239384	0.000378546
 151	0.000163399	0.000149357	-0.000215288
 152	-0.000162563	0.000180809	0.000273103
 153	0.000643188	0.000138839	-0.000207592
 154	3.45577e-05	0.000160161	-0.000697799
 155	-0.000910522	0.000140713	0.000401968
 156	0.000174182	0.00026293	0.000936731
 157	-0.000123945	0.000568802	-6.72711e-06
 158	-8.96772e-06	0.000164671	-3.58897e-05
 159	-0.000160398	0.000897645	-6.51971e-05
 160	7.50106e-05	0.000619478	-0.000251777
 161	-0.000157507	0.00012813	0.00014612
 162	4.81854e-05	-3.31327e-05	7.2153e-06
 163	-0.000524399	0.000316526	0.000498305
 164	-0.000499368	0.000596658	0.000390788
 165	-0.000771724	0.000376108	0.000709584
 166	-0.000512703	1.27144e-05	0.00053143
 167	-0.000733489	0.000511579	0.000652224
 168	-0.00062424	0.00108449	0.000380376
 169	-0.000328955	0.000703737	0.000284515
 170	-0.000315971	0.000352402	0.000313575
 171	-0.000411086	0.00162384	-0.00010347
 172	-0.000307225	0.000807901	0.00128888
 173	-0.000241071	0.000121515	0.000416363
 174	-0.000177342	0.000297925	0.000108226
 175	-0.000203165	9.58269e-05	-0.000654408
 176	-0.000160433	-0.000207085	-0.000568428
 177	-0.000457768	-5.7015e-05	-0.00100829
 178	-0.000255786	0.000638418	-0.000672451
 179	5.79984e-05	-0.00146778	-0.000109552
 180	-0.000303381	-0.000237432	-0.00188265
 181	0.000257125	5.40088e-05	-0.00018828
 182	0.000215867	3.14415e-06	-0.000329809
 183	-8.74633e-05	0.000564801	-0.000213673
 184	0.000249177	-0.000286324	-0.000666804
 185	0.000257866	0.000159993	-3.63766e-05
 186	0.000500243	-0.000304863	-0.000471752
 187	0.000243864	-0.000148288	0.000458397
 188	0.000768601	9.24805e-05	0.000391938
 189	5.35826e-05	-4.48229e-05	0.00029655
 190	0.00019891	-0.000286998	0.00054987
 191	0.00150893	0.000361103	-0.000223923
 192	0.00124051	0.000213167	0.00130177
 193	-3.24453e-05	-0.000146158	0.00037521
 194	8.81717e-05	-0.000324031	0.000334689
 195	-8.0255e-05	-0.000172745	0.000314386
 196	-4.51433e-05	-0.000194939	0.000672534
 197	-3.34236e-05	-0.000673302	0.000478184
 198	0.000312484	-0.000582175	7.78896e-05
 199	0.000324233	0.000274376	-0.000442015
 200	0.000139225	0.000257578	0.000195039
 201	0.000329172	0.000297298	-0.000495783
 202	0.000612603	0.000156053	-0.000426494
 203	0.000300806	0.000252113	7.47144e-05
 204	0.000329553	0.000171794	0.00061822
 205	-0.00042919	0.000115664	-0.000912066
 206	0.00010838	0.000405824	-0.00107776
 207	-0.00106213	0.000231923	-0.000891417
 208	-0.000547584	0.000518807	-0.00117888
 209	0.000297675	0.000471529	-0.000887477
 210	-3.14356e-05	0.000476383	-0.00119407
 211	0.000216152	2.49513e-05	0.000208318
 212	-0.000348999	-0.000466903	8.85837e-05
 213	0.000693955	0.000391173	-9.97817e-05
 214	0.000350582	0.000148426	0.00100155
 215	0.000109072	-0.000504157	0.00117729
 216	-0.00147021	-0.0016478	0.00027164
 217	-0.000270028	-3.62606e-05	-0.000232345
 218	0.000196866	-1.90365e-05	-4.87725e-05
 219	-0.000803176	-0.000345608	0.000146413
 220	-0.000626513	0.00025162	-0.000807882
 221	0.000363149	-4.92377e-05	0.00026173
 222	0.000485768	5.58129e-05	-0.000353506
 223	-0.000159212	6.13353e-05	6.09691e-06
 224	0.000224208	3.42785e-05	-0.00029265
 225	-0.000812664	-0.000522807	-0.000227489
 226	-0.000425361	0.000387699	0.000769813
 227	0.000379426	-0.000258191	-0.000807894
 228	0.000745841	0.000373293	-0.000117081
 229	0.000446483	0.00057116	-6.57683e-06
 230	0.000597718	0.000279244	-0.000202592
 231	0.000816984	0.00123703	-0.000340027
 232	-1.0674e-05	0.000820956	0.000688223
 233	0.00109745	0.00090035	-0.000107033
 234	0.000991821	-0.000395035	-0.000719774
 235	0.00052011	-0.000391517	-4.95913e-05
 236	0.000496829	-0.000151185	-0.000124346
 237	0.000436238	-0.000536984	-0.000330969
 238	0.000590581	-0.000567288	0.000156772
 239	0.000925915	-0.000314728	-0.000215435
 240	-4.16321e-05	-0.000524387	3.47534e-05
 241	-0.000106308	-0.000977431	0.000700638
 242	0.000435791	-0.00079013	-0.00026817
 243	-0.000151238	-0.00130424	0.000435986
 244	-0.000722018	-0.00126415	0.00110782
 245	0.000980066	1.75715e-05	-0.000959107
 246	0.00042584	-0.00203542	-0.00118447
 247	-0.000353617	-0.000582118	0.000967108
 248	-9.96833e-05	-0.000263229	0.001405
 249	-0.000348825	-0.000951807	0.000821003
 250	-0.000271811	-0.000680925	0.00122102
 251	-0.000340935	-0.000104074	0.00205417
 252	0.000642556	0.000210552	0.00115763
 253	-0.000496623	-0.000412232	-0.000282993
 254	-0.000825017	3.93262e-05	0.000212459
 255	-0.000457653	-0.000328948	-0.000358222
 256	-0.00052123	-0.000654103	-0.000211353
 257	-0.00154044	0.000438597	0.000521493
 258	-0.000795949	0.0007202	-0.000941053
 259	0.000771614	0.00161583	-0.000639882
 260	0.000159277	-0.000222762	-0.000365933
 261	0.00188031	0.00187528	0.000195626
 262	0.000354235	0.00249878	-0.00100285
 263	-0.000513993	-0.000511258	-0.000566686
 264	0.000922547	-0.000883258	0.00107568
 265	-4.10297e-05	-0.000171736	-0.00014822
 266	0.00019284	0.00223381	-0.00127291

Bonds

   1	4	1	2
   2	1	1	3
   3	1	1	4
   4	2	2	5
   5	2	2	6
   6	4	7	8
   7	1	7	9
   8	1	7	10
   9	2	8	11
  10	2	8	12
  11	4	1	8
  12	4	13	14
  13	1	13	15
  14	1	13	16
  15	2	14	17
  16	2	14	18
  17	4	7	14
  18	4	19	20
  19	1	19	21
  20	1	19	22
  21	2	20	23
  22	2	20	24
  23	4	13	20
  24	4	25	26
  25	1	25	27
  26	1	25	28
  27	2	26	29
  28	2	26	30
  29	4	19	26
  30	4	31	32
  31	1	31	33
  32	1	31	34
  33	2	32	35
  34	2	32	36
  35	4	25	32
  36	4	37	38
  37	1	37	39
  38	1	37	40
  39	2	38	41
  40	2	38	42
  41	4	31	38
  42	4	43	44
  43	1	43	45
  44	1	43	46
  45	2	44	47
  46	2	44	48
  47	4	37	44
  48	4	49	50
  49	1	49	51
  50	1	49	52
  51	2	50	53
  52	2	50	54
  53	4	43	50
  54	4	55	56
  55	1	55	57
  56	1	55	58
  57	2	56	59
  58	2	56	60
  59	4	49	56
  60	4	61	62
  61	1	61	63
  62	1	61	64
  63	2	62	65
  64	2	62	66
  65	4	55	62
  66	4	67	68
  67	1	67	69
  68	1	67	70
  69	2	68	71
  70	2	68	72
  71	4	61	68
  72	4	73	74
  73	1	73	75
  74	1	73	76
  75	2	74	77
  76	2	74	78
  77	4	67	74
  78	4	79	80
  79	1	79	81
  80	1	79	82
  81	2	80	83
  82	2	80	84
  83	4	73	80
  84	4	85	86
  85	1	85	87
  86	1	85	88
  87	2	86	89
  88	2	86	90
  89	4	79	86
  90	4	91	92
  91	1	91	93
  92	1	91	94
  93	2	92	95
  94	2	92	96
  95	4	85	92
  96	4	97	98
  97	1	97	99
  98	1	97	100
  99	2	98	101
 100	2	98	102
 101	4	91	98
 102	4	103	104
 103	1	103	105
 104	1	103	106
 105	2	104	107
 106	2	104	108
 107	4	97	104
 108	4	109	110
 109	1	109	111
 110	1	109	112
 111	2	110	113
 112	2	110	114
 113	4	103	110
 114	4	115	116
 115	1	115	117
 116	1	115	118
 117	2	116	119
 118	2	116	120
 119	4	109	116
 120	4	121	122
 121	1	121	123
 122	1	121	124
 123	2	122	125
 124	2	122	126
 125	4	115	122
 126	4	127	128
 127	1	127	129
 128	1	127	130
 129	2	128	131
 130	2	128	132
 131	4	121	128
 132	4	133	134
 133	1	133	135
 134	1	133	136
 135	2	134	137
 136	2	134	138
 137	4	127	134
 138	4	139	140
 139	1	139	141
 140	1	139	142
 141	2	140	143
 142	2	140	144
 143	4	133	140
 144	4	145	146
 145	1	145	147
 146	1	145	148
 147	2	146	149
 148	2	146	150
 149	4	139	146
 150	4	151	152
 151	1	151	153
 152	1	151	154
 153	2	152	155
 154	2	152	156
 155	4	145	152
 156	4	157	158
 157	1	157	159
 158	1	157	160
 159	2	158	161
 160	2	158	162
 161	4	151	158
 162	4	163	164
 163	1	163	165
 164	1	163	166
 165	2	164	167
 166	2	164	168
 167	4	157	164
 168	4	169	170
 169	1	169	171
 170	1	169	172
 171	2	170	173
 172	2	170	174
 173	4	163	170
 174	4	175	176
 175	1	175	177
 176	1	175	178
 177	2	176	179
 178	2	176	180
 179	4	169	176
 180	4	181	182
 181	1	181	183
 182	1	181	184
 183	2	182	185
 184	2	182	186
 185	4	175	182
 186	4	187	188
 187	1	187	189
 188	1	187	190
 189	2	188	191
 190	2	188	192
 191	4	181	188
 192	4	193	194
 193	1	193	195
 194	1	193	196
 195	2	194	197
 196	2	194	198
 197	4	187	194
 198	4	199	200
 199	1	199	201
 200	1	199	202
 201	2	200	203
 202	2	200	204
 203	4	193	200
 204	4	205	206
 205	1	205	207
 206	1	205	208
 207	2	206	209
 208	2	206	210
 209	4	199	206
 210	4	211	212
 211	1	211	213
 212	1	211	214
 213	2	212	215
 214	2	212	216
 215	4	205	212
 216	4	217	218
 217	1	217	219
 218	1	217	220
 219	2	218	221
 220	2	218	222
 221	4	211	218
 222	4	223	224
 223	1	223	225
 224	1	223	226
 225	2	224	227
 226	2	224	228
 227	4	217	224
 228	4	229	230
 229	1	229	231
 230	1	229	232
 231	2	230	233
 232	2	230	234
 233	4	223	230
 234	4	235	236
 235	1	235	237
 236	1	235	238
 237	2	236	239
 238	2	236	240
 239	4	229	236
 240	4	241	242
 241	1	241	243
 242	1	241	244
 243	2	242	245
 244	2	242	246
 245	4	235	242
 246	4	247	248
 247	1	247	249
 248	1	247	250
 249	2	248	251
 250	2	248	252
 251	4	241	248
 252	4	253	254
 253	1	253	255
 254	1	253	256
 255	2	254	257
 256	2	254	258
 257	4	247	254
 258	4	259	260
 259	1	259	261
 260	1	259	262
 261	2	260	263
 262	2	260	264
 263	4	253	260
 264	3	2	265
 265	1	259	266

Angles

   1	2	2	1	3
   2	2	2	1	4
   3	4	3	1	4
   4	3	1	2	5
   5	3	1	2	6
   6	6	5	2	6
   7	2	8	7	9
   8	2	8	7	10
   9	4	9	7	10
  10	3	7	8	11
  11	3	7	8	12
  12	6	11	8	12
  13	7	2	1	8
  14	2	3	1	8
  15	2	4	1	8
  16	7	1	8	7
  17	3	1	8	11
  18	3	1	8	12
  19	2	14	13	15
  20	2	14	13	16
  21	4	15	13	16
  22	3	13	14	17
  23	3	13	14	18
  24	6	17	14	18
  25	7	8	7	14
  26	2	9	7	14
  27	2	10	7	14
  28	7	7	14	13
  29	3	7	14	17
  30	3	7	14	18
  31	2	20	19	21
  32	2	20	19	22
  33	4	21	19	22
  34	3	19	20	23
  35	3	19	20	24
  36	6	23	20	24
  37	7	14	13	20
  38	2	15	13	20
  39	2	16	13	20
  40	7	13	20	19
  41	3	13	20	23
  42	3	13	20	24
  43	2	26	25	27
  44	2	26	25	28
  45	4	27	25	28
  46	3	25	26	29
  47	3	25	26	30
  48	6	29	26	30
  49	7	20	19	26
  50	2	21	19	26
  51	2	22	19	26
  52	7	19	26	25
  53	3	19	26	29
  54	3	19	26	30
  55	2	32	31	33
  56	2	32	31	34
  57	4	33	31	34
  58	3	31	32	35
  59	3	31	32	36
  60	6	35	32	36
  61	7	26	25	32
  62	2	27	25	32
  63	2	28	25	32
  64	7	25	32	31
  65	3	25	32	35
  66	3	25	32	36
  67	2	38	37	39
  68	2	38	37	40
  69	4	39	37	40
  70	3	37	38	41
  71	3	37	38	42
  72	6	41	38	42
  73	7	32	31	38
  74	2	33	31	38
  75	2	34	31	38
  76	7	31	38	37
  77	3	31	38	41
  78	3	31	38	42
  79	2	44	43	45
  80	2	44	43	46
  81	4	45	43	46
  82	3	43	44	47
  83	3	43	44	48
  84	6	47	44	48
  85	7	38	37	44
  86	2	39	37	44
  87	2	40	37	44
  88	7	37	44	43
  89	3	37	44	47
  90	3	37	44	48
  91	2	50	49	51
  92	2	50	49	52
  93	4	51	49	52
  94	3	49	50	53
  95	3	49	50	54
  96	6	53	50	54
  97	7	44	43	50
  98	2	45	43	50
  99	2	46	43	50
 100	7	43	50	49
 101	3	43	50	53
 102	3	43	50	54
 103	2	56	55	57
 104	2	56	55	58
 105	4	57	55	58
 106	3	55	56	59
 107	3	55	56	60
 108	6	59	56	60
 109	7	50	49	56
 110	2	51	49	56
 111	2	52	49	56
 112	7	49	56	55
 113	3	49	56	59
 114	3	49	56	60
 115	2	62	61	63
 116	2	62	61	64
 117	4	63	61	64
 118	3	61	62	65
 119	3	61	62	66
 120	6	65	62	66
 121	7	56	55	62
 122	2	57	55	62
 123	2	58	55	62
 124	7	55	62	61
 125	3	55	62	65
 126	3	55	62	66
 127	2	68	67	69
 128	2	68	67	70
 129	4	69	67	70
 130	3	67	68	71
 131	3	67	68	72
 132	6	71	68	72
 133	7	62	61	68
 134	2	63	61	68
 135	2	64	61	68
 136	7	61	68	67
 137	3	61	68	71
 138	3	61	68	72
 139	2	74	73	75
 140	2	74	73	76
 141	4	75	73	76
 142	3	73	74	77
 143	3	73	74	78
 144	6	77	74	78
 145	7	68	67	74
 146	2	69	67	74
 147	2	70	67	74