pySIMM System Object

98 atoms
97 bonds
192 angles
279 dihedrals
0 impropers

4 atom types
4 bond types
7 angle types
4 dihedral types

-73.612741 73.612741 xlo xhi
-73.612741 73.612741 ylo yhi
-73.612741 73.612741 zlo zhi

Masses

   1	12.01	# c3
   2	1.008	# hc
   3	19.0	# f
   4	1.008	# h2

Pair Coeffs

   1	0.1094	3.3996695084235347	# c3
   2	0.0157	2.649532787749369	# hc
   3	0.061	3.1181455134911875	# f
   4	0.0157	2.2931733004932333	# h2

Bond Coeffs

   1	330.6	1.0969	# c3,hc
   2	356.9	1.3497	# c3,f
   3	331.7	1.0961	# c3,h2
   4	300.9	1.5375	# c3,c3

Angle Coeffs

   1	51.15	108.79	# f,c3,h2
   2	46.34	109.8	# c3,c3,hc
   3	66.11	109.24	# c3,c3,f
   4	39.4	107.58	# hc,c3,hc
   5	46.25	110.22	# c3,c3,h2
   6	70.89	107.36	# f,c3,f
   7	62.86	111.51	# c3,c3,c3

Dihedral Coeffs

   1	2	0.0	3	0	0.19	1	0	# hc,c3,c3,f
   2	1	0.15555555555555556	3	0	# X,c3,c3,X
   3	1	0.16	3	0	# hc,c3,c3,c3
   4	3	0.18	3	0	0.25	2	180	0.2	1	180	# c3,c3,c3,c3

Atoms

   1	1	1	0.070548	-1.89513	4.12702	5.46969
   2	1	1	0.506757	-1.35309	4.1083	4.02345
   3	1	2	-0.012767	-1.53582	5.02149	5.99679
   4	1	2	-0.014806	-2.99026	4.19708	5.44192
   5	1	3	-0.274996	-0.255839	4.88974	3.92155
   6	1	3	-0.274736	-2.27936	4.61238	3.17885
   7	1	1	0.070548	-1.80842	2.85182	7.76163
   8	1	1	0.506757	-1.4777	2.85589	6.24349
   9	1	2	-0.012767	-1.15043	3.58286	8.25163
  10	1	2	-0.014806	-1.51143	1.88263	8.18159
  11	1	3	-0.274996	-0.14415	2.68136	6.11525
  12	1	3	-0.274736	-2.03627	1.77861	5.65275
  13	1	1	0.070548	-4.42114	2.37358	7.49335
  14	1	1	0.506757	-3.27416	3.17487	8.17856
  15	1	2	-0.012767	-4.28912	2.43796	6.41293
  16	1	2	-0.014806	-5.37038	2.89229	7.68732
  17	1	3	-0.274996	-3.36294	3.04906	9.52015
  18	1	3	-0.274736	-3.49632	4.48814	7.94985
  19	1	1	0.070548	-5.56039	0.030612	7.09213
  20	1	1	0.506757	-4.58943	0.895548	7.94963
  21	1	2	-0.012767	-5.66548	-0.930018	7.60742
  22	1	2	-0.014806	-6.55886	0.488906	7.10395
  23	1	3	-0.274996	-5.0955	0.89294	9.20185
  24	1	3	-0.274736	-3.39622	0.273544	8.05049
  25	1	1	0.070548	-5.94886	-1.31375	4.85304
  26	1	1	0.506757	-5.14454	-0.223271	5.61407
  27	1	2	-0.012767	-5.54313	-1.39146	3.83662
  28	1	2	-0.014806	-6.97386	-0.940604	4.71758
  29	1	3	-0.274996	-5.31375	0.917433	4.91282
  30	1	3	-0.274736	-3.83285	-0.504364	5.51665
  31	1	1	0.070548	-4.7386	-3.42797	5.97891
  32	1	1	0.506757	-6.04361	-2.7405	5.47006
  33	1	2	-0.012767	-4.12906	-2.70731	6.53534
  34	1	2	-0.014806	-5.02984	-4.17185	6.73394
  35	1	3	-0.274996	-6.91875	-2.68759	6.49808
  36	1	3	-0.274736	-6.6487	-3.52634	4.55539
  37	1	1	0.070548	-3.30988	-3.26591	3.78855
  38	1	1	0.506757	-3.84071	-4.16366	4.93964
  39	1	2	-0.012767	-4.14498	-3.01581	3.12218
  40	1	2	-0.014806	-2.95879	-2.3202	4.21029
  41	1	3	-0.274996	-2.81424	-4.68675	5.6434
  42	1	3	-0.274736	-4.50645	-5.22062	4.42664
  43	1	1	0.070548	-1.77298	-2.84397	1.81332
  44	1	1	0.506757	-2.15231	-3.84672	2.93178
  45	1	2	-0.012767	-1.5103	-1.88509	2.2814
  46	1	2	-0.014806	-2.6815	-2.63856	1.23281
  47	1	3	-0.274996	-2.51955	-5.02048	2.37158
  48	1	3	-0.274736	-1.07561	-4.06431	3.7182
  49	1	1	0.070548	-1.1207	-3.69915	-0.562707
  50	1	1	0.506757	-0.624742	-3.27618	0.847203
  51	1	2	-0.012767	-2.01853	-4.32149	-0.445432
  52	1	2	-0.014806	-0.371128	-4.35548	-1.0272
  53	1	3	-0.274996	0.253679	-2.25348	0.743733
  54	1	3	-0.274736	0.110278	-4.29669	1.33957
  55	1	1	0.070548	-0.153402	-2.06788	-2.31714
  56	1	1	0.506757	-1.42119	-2.52827	-1.53962
  57	1	2	-0.012767	0.712452	-2.01927	-1.64711
  58	1	2	-0.014806	0.0939789	-2.85317	-3.04511
  59	1	3	-0.274996	-2.34033	-2.9752	-2.42419
  60	1	3	-0.274736	-2.01574	-1.5094	-0.879931
  61	1	1	0.070548	1.03477	-0.428573	-3.87296
  62	1	1	0.506757	-0.26798	-0.717285	-3.07153
  63	1	2	-0.012767	1.75381	0.059244	-3.20077
  64	1	2	-0.014806	1.49769	-1.3821	-4.15764
  65	1	3	-0.274996	-0.436266	0.287808	-2.18141
  66	1	3	-0.274736	-1.36002	-0.73436	-3.86641
  67	1	1	0.070548	2.18196	1.01967	-5.74296
  68	1	1	0.506757	0.865429	0.439717	-5.14982
  69	1	2	-0.012767	1.956	1.44546	-6.73053
  70	1	2	-0.014806	2.50541	1.86869	-5.12492
  71	1	3	-0.274996	0.0581653	1.49291	-4.89164
  72	1	3	-0.274736	0.247708	-0.284818	-6.11089
  73	1	1	0.070548	4.4544	0.594842	-6.85552
  74	1	1	0.506757	3.37497	0.0368875	-5.88364
  75	1	2	-0.012767	4.0664	0.521442	-7.88075
  76	1	2	-0.014806	4.58793	1.66699	-6.65911
  77	1	3	-0.274996	3.90183	-0.176071	-4.65758
  78	1	3	-0.274736	2.93762	-1.15833	-6.33837
  79	1	1	0.070548	6.77158	0.152899	-8.00629
  80	1	1	0.506757	5.84161	-0.106147	-6.78733
  81	1	2	-0.012767	6.3262	-0.320053	-8.8927
  82	1	2	-0.014806	7.71867	-0.37793	-7.8364
  83	1	3	-0.274996	6.4852	0.25142	-5.65385
  84	1	3	-0.274736	5.68305	-1.44601	-6.70921
  85	1	1	0.070548	8.26377	1.7152	-9.3627
  86	1	1	0.506757	7.08637	1.63316	-8.35111
  87	1	2	-0.012767	9.18519	1.39367	-8.85777
  88	1	2	-0.014806	8.09625	0.982494	-10.1645
  89	1	3	-0.274996	7.40208	2.31655	-7.23059
  90	1	3	-0.274736	5.97436	2.20332	-8.86394
  91	1	1	0.070548	9.83507	3.13616	-10.8063
  92	1	1	0.506757	8.50512	3.10263	-10.0133
  93	1	2	-0.012767	10.6824	3.36458	-10.1463
  94	1	2	-0.014806	10.0373	2.16932	-11.2858
  95	1	3	-0.274996	8.53956	4.08012	-9.08146
  96	1	3	-0.274736	7.49691	3.39714	-10.8644
  97	1	4	0	-1.10504	3.09112	3.698
  98	1	2	0	9.80633	3.90073	-11.5938

Velocities

   1	2.74907e-05	-0.000297565	0.000346595
   2	-0.000172183	0.000165397	0.000328531
   3	-0.000205958	-0.000195275	0.00029212
   4	5.32979e-05	-0.000436506	0.000340117
   5	0.000649279	-0.00103076	0.000656518
   6	0.000226083	0.00175159	0.000761637
   7	-0.00014231	0.000336887	0.000304254
   8	0.000229512	-0.000109759	0.000368813
   9	-0.000384063	0.000640894	0.000169554
  10	-9.75889e-05	0.000626239	0.000796381
  11	0.0002	6.54989e-05	0.00050808
  12	0.000536817	-0.000257312	0.000495213
  13	0.000171753	-0.00033837	-0.000486322
  14	-0.000354873	0.000333782	-0.000367989
  15	0.000736138	-0.000656414	-0.000434659
  16	-7.52963e-05	-0.000412455	-0.00120719
  17	-0.00079626	0.00108424	-0.000381231
  18	-0.000571017	0.000193432	-0.00115741
  19	0.000174586	-0.000378103	0.000338156
  20	0.000378379	-0.000192759	7.08074e-07
  21	0.000509836	-0.000412218	0.000253223
  22	0.00018331	-0.000509449	0.000732023
  23	0.00080523	0.000111921	0.000130983
  24	0.000471526	-4.13376e-05	-0.000230242
  25	0.000214787	9.8504e-06	-0.000181643
  26	-0.000163216	4.29859e-05	0.000160823
  27	0.000752369	6.71919e-05	1.08217e-05
  28	0.000252753	-7.87419e-05	-0.000743695
  29	-0.000865768	0.000118336	0.000478634
  30	-9.98265e-05	0.000559405	-0.000240959
  31	-0.000171351	-8.77687e-05	-7.09636e-05
  32	-1.5102e-05	-2.70128e-05	-0.000362555
  33	-0.000223632	-3.74471e-05	-6.00541e-05
  34	-0.00033166	-5.47481e-05	-0.000100463
  35	-0.000328884	-3.25748e-05	-0.000634695
  36	0.00025996	0.000108007	-0.000672545
  37	9.98307e-05	5.9794e-05	0.000237485
  38	-3.18652e-05	-8.43317e-05	6.10864e-05
  39	0.00018951	3.53785e-05	0.000122241
  40	-3.81326e-05	4.69103e-05	0.00038473
  41	-0.00015067	-0.000168197	0.000177789
  42	2.69531e-05	-4.64091e-05	-0.000108205
  43	0.000408016	0.00023847	0.000431273
  44	0.000200215	0.000190343	0.000334501
  45	0.00121319	-6.4678e-05	0.000609573
  46	0.000386355	0.00104656	0.000739169
  47	0.000246797	0.000225328	0.000249965
  48	0.000128288	0.000177678	0.000444932
  49	-0.000665793	2.74876e-05	6.83027e-05
  50	-0.000145566	-0.000374409	4.56117e-05
  51	-0.00128638	0.000959033	0.00024736
  52	-0.00139235	-0.000808689	7.30828e-05
  53	0.000462806	-0.000923576	3.35953e-05
  54	-0.000687824	-0.000881919	-0.000181425
  55	0.000735976	0.000152733	0.000526601
  56	0.00033447	0.000143106	-8.7102e-05
  57	0.000193594	0.00158006	0.00109875
  58	0.00193963	-0.000409527	0.00154392
  59	0.000752229	0.000293042	-0.000582095
  60	0.000143937	0.00013617	-0.000261349
  61	0.000359403	-0.000212762	-0.000541833
  62	0.000163541	-0.000716359	-0.00103842
  63	0.000110336	-0.00043368	-8.23997e-05
  64	0.000489617	-6.87413e-05	-0.000887454
  65	-0.00153459	0.000107083	-0.00227762
  66	0.000907413	-0.00258042	-0.00199905
  67	0.000491359	0.000547577	-8.64541e-05
  68	0.000408886	0.000530426	-0.000102023
  69	0.000320751	0.000783622	9.25238e-05
  70	0.000576774	0.000367205	0.00013297
  71	0.000690146	0.000576681	0.00068087
  72	9.00495e-05	0.0013138	-0.000503128
  73	0.000384623	0.000508516	5.3687e-05
  74	0.000104877	0.000305179	-0.000402709
  75	0.000490424	0.00133032	-2.21291e-05
  76	0.000824186	0.000324781	0.000721349
  77	-8.51693e-05	-0.000485436	-0.000541392
  78	-0.000148741	0.000777957	-0.00118377
  79	0.000226415	-0.000199872	0.000201741
  80	-3.71571e-05	-0.000289278	-2.67753e-05
  81	0.000683085	-0.000499988	0.000133808
  82	0.000335197	0.000258608	0.000559398
  83	0.000146841	-0.000919532	8.67676e-05
  84	-0.000595868	-0.000163743	-0.000716398
  85	-0.000325259	-9.40148e-05	0.000475395
  86	-0.000458628	-0.000138001	0.00014391
  87	-0.000262726	0.000429919	0.000751393
  88	0.000118179	-0.000312778	0.00054797
  89	-0.000957765	0.000155304	0.000115215
  90	-0.000575645	-0.000668212	-0.000226903
  91	-0.000727606	-0.000271069	0.000517869
  92	-0.000756872	-0.00024942	0.000246694
  93	-0.000443763	-0.00361082	0.0014128
  94	-0.0025964	0.000708145	-0.00230981
  95	-0.00111066	2.62433e-05	-8.43468e-05
  96	-0.000624301	-0.000815488	-0.000175332
  97	-0.0014502	5.74042e-05	-0.000329884
  98	0.000530688	0.00212398	0.00275401

Bonds

   1	4	1	2
   2	1	1	3
   3	1	1	4
   4	2	2	5
   5	2	2	6
   6	4	7	8
   7	1	7	9
   8	1	7	10
   9	2	8	11
  10	2	8	12
  11	4	1	8
  12	4	13	14
  13	1	13	15
  14	1	13	16
  15	2	14	17
  16	2	14	18
  17	4	7	14
  18	4	19	20
  19	1	19	21
  20	1	19	22
  21	2	20	23
  22	2	20	24
  23	4	13	20
  24	4	25	26
  25	1	25	27
  26	1	25	28
  27	2	26	29
  28	2	26	30
  29	4	19	26
  30	4	31	32
  31	1	31	33
  32	1	31	34
  33	2	32	35
  34	2	32	36
  35	4	25	32
  36	4	37	38
  37	1	37	39
  38	1	37	40
  39	2	38	41
  40	2	38	42
  41	4	31	38
  42	4	43	44
  43	1	43	45
  44	1	43	46
  45	2	44	47
  46	2	44	48
  47	4	37	44
  48	4	49	50
  49	1	49	51
  50	1	49	52
  51	2	50	53
  52	2	50	54
  53	4	43	50
  54	4	55	56
  55	1	55	57
  56	1	55	58
  57	2	56	59
  58	2	56	60
  59	4	49	56
  60	4	61	62
  61	1	61	63
  62	1	61	64
  63	2	62	65
  64	2	62	66
  65	4	55	62
  66	4	67	68
  67	1	67	69
  68	1	67	70
  69	2	68	71
  70	2	68	72
  71	4	61	68
  72	4	73	74
  73	1	73	75
  74	1	73	76
  75	2	74	77
  76	2	74	78
  77	4	67	74
  78	4	79	80
  79	1	79	81
  80	1	79	82
  81	2	80	83
  82	2	80	84
  83	4	73	80
  84	4	85	86
  85	1	85	87
  86	1	85	88
  87	2	86	89
  88	2	86	90
  89	4	79	86
  90	4	91	92
  91	1	91	93
  92	1	91	94
  93	2	92	95
  94	2	92	96
  95	4	85	92
  96	3	2	97
  97	1	91	98

Angles

   1	2	2	1	3
   2	2	2	1	4
   3	4	3	1	4
   4	3	1	2	5
   5	3	1	2	6
   6	6	5	2	6
   7	2	8	7	9
   8	2	8	7	10
   9	4	9	7	10
  10	3	7	8	11
  11	3	7	8	12
  12	6	11	8	12
  13	7	2	1	8
  14	2	3	1	8
  15	2	4	1	8
  16	7	1	8	7
  17	3	1	8	11
  18	3	1	8	12
  19	2	14	13	15
  20	2	14	13	16
  21	4	15	13	16
  22	3	13	14	17
  23	3	13	14	18
  24	6	17	14	18
  25	7	8	7	14
  26	2	9	7	14
  27	2	10	7	14
  28	7	7	14	13
  29	3	7	14	17
  30	3	7	14	18
  31	2	20	19	21
  32	2	20	19	22
  33	4	21	19	22
  34	3	19	20	23
  35	3	19	20	24
  36	6	23	20	24
  37	7	14	13	20
  38	2	15	13	20
  39	2	16	13	20
  40	7	13	20	19
  41	3	13	20	23
  42	3	13	20	24
  43	2	26	25	27
  44	2	26	25	28
  45	4	27	25	28
  46	3	25	26	29
  47	3	25	26	30
  48	6	29	26	30
  49	7	20	19	26
  50	2	21	19	26
  51	2	22	19	26
  52	7	19	26	25
  53	3	19	26	29
  54	3	19	26	30
  55	2	32	31	33
  56	2	32	31	34
  57	4	33	31	34
  58	3	31	32	35
  59	3	31	32	36
  60	6	35	32	36
  61	7	26	25	32
  62	2	27	25	32
  63	2	28	25	32
  64	7	25	32	31
  65	3	25	32	35
  66	3	25	32	36
  67	2	38	37	39
  68	2	38	37	40
  69	4	39	37	40
  70	3	37	38	41
  71	3	37	38	42
  72	6	41	38	42
  73	7	32	31	38
  74	2	33	31	38
  75	2	34	31	38
  76	7	31	38	37
  77	3	31	38	41
  78	3	31	38	42
  79	2	44	43	45
  80	2	44	43	46
  81	4	45	43	46
  82	3	43	44	47
  83	3	43	44	48
  84	6	47	44	48
  85	7	38	37	44
  86	2	39	37	44
  87	2	40	37	44
  88	7	37	44	43
  89	3	37	44	47
  90	3	37	44	48
  91	2	50	49	51
  92	2	50	49	52
  93	4	51	49	52
  94	3	49	50	53
  95	3	49	50	54
  96	6	53	50	54
  97	7	44	43	50
  98	2	45	43	50
  99	2	46	43	50
 100	7	43	50	49
 101	3	43	50	53
 102	3	43	50	54
 103	2	56	55	57
 104	2	56	55	58
 105	4	57	55	58
 106	3	55	56	59
 107	3	55	56	60
 108	6	59	56	60
 109	7	50	49	56
 110	2	51	49	56
 111	2	52	49	56
 112	7	49	56	55
 113	3	49	56	59
 114	3	49	56	60
 115	2	62	61	63
 116	2	62	61	64
 117	4	63	61	64
 118	3	61	62	65
 119	3	61	62	66
 120	6	65	62	66
 121	7	56	55	62
 122	2	57	55	62
 123	2	58	55	62
 124	7	55	62	61
 125	3	55	62	65
 126	3	55	62	66
 127	2	68	67	69
 128	2	68	67	70
 129	4	69	67	70
 130	3	67	68	71
 131	3	67	68	72
 132	6	71	68	72
 133	7	62	61	68
 134	2	63	61	68
 135	2	64	61	68
 136	7	61	68	67
 137	3	61	68	71
 138	3	61	68	72
 139	2	74	73	75
 140	2	74	73	76
 141	4	75	73	76
 142	3	73	74	77
 143	3	73	74	78
 144	6	77	74	78
 145	7	68	67	74
 146	2	69	67	74
 147	2	70	67	74
 148	7	67	74	73
 149	3	67	74	77
 150	3	67	74	78
 151	2	80	79	81
 152	2	80	79	82
 153	4	81	79	82
 154	3	79	80	83
 155	3	79	80	84
 156	6	83	80	84
 157	7	74	73	80
 158	2	75	73	80
 159	2	76	73	80
 160	7	73	80	79
 161	3	73	80	83
 162	3	73	80	84
 163	2	86	85	87
 164	2	86	85	88
 165	4	87	85	88
 166	3	85	86	89
 167	3	85	86	90
 168	6	89	86	90
 169	7	80	79	86
 170	2	81	79	86
 171	2	82	79	86
 172	7	79	86	85
 173	3	79	86	89
 174	3	79	86	90
 175	2	92	91	93
 176	2	92	91	94
 177	4	93	91	94
 178	3	91	92	95
 179	3	91	92	96
 180	6	95	92	96
 181	7	86	85	92
 182	2	87	85	92
 183	2	88	85	92
 184	7	85	92	91
 185	3	85	92	95
 186	3	85	92	96
 187	5	1	2	97
 188	1	5	2	97
 189	1	6	2	97
 190	2	92	91	98
 191	4	93	91	98
 192	4	94	91	98

Dihedrals

   1	1	3	1	2	5
   2	1	3	1	2	6
   3	1	4	1	2	5
   4	1	4	1	2	6
   5	1	9	7	8	11
   6	1	9	7	8	12
   7	1	10	7	8	11
   8	1	10	7	8	12
   9	2	5	2	1	8
  10	2	6	2	1	8
  11	3	1	8	7	9
  12	3	1	8	7	10
  13	4	2	1	8	7
  14	2	2	1	8	11
  15	2	2	1	8	12
  16	3	3	1	8	7
  17	1	3	1	8	11
  18	1	3	1	8	12
  19	3	4	1	8	7
  20	1	4	1	8	11
  21	1	4	1	8	12
  22	1	15	13	14	17
  23	1	15	13	14	18
  24	1	16	13	14	17
  25	1	16	13	14	18
  26	2	11	8	7	14
  27	2	12	8	7	14
  28	4	1	8	7	14
  29	3	7	14	13	15
  30	3	7	14	13	16
  31	4	8	7	14	13
  32	2	8	7	14	17
  33	2	8	7	14	18
  34	3	9	7	14	13
  35	1	9	7	14	17
  36	1	9	7	14	18
  37	3	10	7	14	13
  38	1	10	7	14	17
  39	1	10	7	14	18
  40	1	21	19	20	23
  41	1	21	19	20	24
  42	1	22	19	20	23
  43	1	22	19	20	24
  44	2	17	14	13	20
  45	2	18	14	13	20
  46	4	7	14	13	20
  47	3	13	20	19	21
  48	3	13	20	19	22
  49	4	14	13	20	19
  50	2	14	13	20	23
  51	2	14	13	20	24
  52	3	15	13	20	19
  53	1	15	13	20	23
  54	1	15	13	20	24
  55	3	16	13	20	19
  56	1	16	13	20	23
  57	1	16	13	20	24
  58	1	27	25	26	29
  59	1	27	25	26	30
  60	1	28	25	26	29
  61	1	28	25	26	30
  62	2	23	20	19	26
  63	2	24	20	19	26
  64	4	13	20	19	26
  65	3	19	26	25	27
  66	3	19	26	25	28
  67	4	20	19	26	25
  68	2	20	19	26	29
  69	2	20	19	26	30
  70	3	21	19	26	25
  71	1	21	19	26	29
  72	1	21	19	26	30
  73	3	22	19	26	25
  74	1	22	19	26	29
  75	1	22	19	26	30
  76	1	33	31	32	35
  77	1	33	31	32	36
  78	1	34	31	32	35
  79	1	34	31	32	36
  80	2	29	26	25	32
  81	2	30	26	25	32
  82	4	19	26	25	32
  83	3	25	32	31	33
  84	3	25	32	31	34
  85	4	26	25	32	31
  86	2	26	25	32	35
  87	2	26	25	32	36
  88	3	27	25	32	31
  89	1	27	25	32	35
  90	1	27	25	32	36
  91	3	28	25	32	31
  92	1	28	25	32	35
  93	1	28	25	32	36
  94	1	39	37	38	41
  95	1	39	37	38	42
  96	1	40	37	38	41
  97	1	40	37	38	42
  98	2	35	32	31	38
  99	2	36	32	31	38
 100	4	25	32	31	38
 101	3	31	38	37	39
 102	3	31	38	37	40
 103	4	32	31	38	37
 104	2	32	31	38	41
 105	2	32	31	38	42
 106	3	33	31	38	37
 107	1	33	31	38	41
 108	1	33	31	38	42
 109	3	34	31	38	37
 110	1	34	31	38	41
 111	1	34	31	38	42
 112	1	45	43	44	47
 113	1	45	43	44	48
 114	1	46	43	44	47
 115	1	46	43	44	48
 116	2	41	38	37	44
 117	2	42	38	37	44
 118	4	31	38	37	44
 119	3	37	44	43	45
 120	3	37	44	43	46
 121	4	38	37	44	43
 122	2	38	37	44	47
 123	2	38	37	44	48
 124	3	39	37	44	43
 125	1	39	37	44	47
 126	1	39	37	44	48
 127	3	40	37	44	43
 128	1	40	37	44	47
 129	1	40	37	44	48
 130	1	51	49	50	53
 131	1	51	49	50	54
 132	1	52	49	50	53
 133	1	52	49	50	54
 134	2	47	44	43	50
 135	2	48	44	43	50
 136	4	37	44	43	50
 137	3	43	50	49	51
 138	3	43	50	49	52
 139	4	44	43	50	49
 140	2	44	43	50	53
 141	2	44	43	50	54
 142	3	45	43	50	49
 143	1	45	43	50	53
 144	1	45	43	50	54
 145	3	46	43	50	49
 146	1	46	43	50	53
 147	1	46	43	50	54
 148	1	57	55	56	59
 149	1	57	55	56	60
 150	1	58	55	56	59
 151	1	58	55	56	60
 152	2	53	50	49	56
 153	2	54	50	49	56
 154	4	43	50	49	56
 155	3	49	56	55	57
 156	3	49	56	55	58
 157	4	50	49	56	55
 158	2	50	49	56	59
 159	2	50	49	56	60
 160	3	51	49	56	55
 161	1	51	49	56	59
 162	1	51	49	56	60
 163	3	52	49	56	55
 164	1	52	49	56	59
 165	1	52	49	56	60
 166	1	63	61	62	65
 167	1	63	61	62	66
 168	1	64	61	62	65
 169	1	64	61	62	66
 170	2	59	56	55	62
 171	2	60	56	55	62
 172	4	49	56	55	62
 173	3	55	62	61	63
 174	3	55	62	61	64
 175	4	56	55	62	61
 176	2	56	55	62	65
 177	2	56	55	62	66
 178	3	57	55	62	61
 179	1	57	55	62	65
 180	1	57	55	62	66
 181	3	58	55	62	61
 182	1	58	55	62	65
 183	1	58	55	62	66
 184	1	69	67	68	71
 185	1	69	67	68	72
 186	1	70	67	68	71
 187	1	70	67	68	72
 188	2	65	62	61	68
 189	2	66	62	61	68
 190	4	55	62	61	68
 191	3	61	68	67	69
 192	3	61	68	67	70
 193	4	62	61	68	67
 194	2	62	61	68	71
 195	2	62	61	68	72
 196	3	63	61	68	67
 197	1	63	61	68	71
 198	1	63	61	68	72
 199	3	64	61	68	67
 200	1	64	61	68	71
 201	1	64	61	68	72
 202	1	75	73	74	77
 203	1	75	73	74	78
 204	1	76	73	74	77
 205	1	76	73	74	78
 206	2	71	68	67	74
 207	2	72	68	67	74
 208	4	61	68	67	74
 209	3	67	74	73	75
 210	3	67	74	73	76
 211	4	68	67	74	73
 212	2	68	67	74	77
 213	2	68	67	74	78
 214	3	69	67	74	73
 215	1	69	67	74	77
 216	1	69	67	74	78
 217	3	70	67	74	73
 218	1	70	67	74	77
 219	1	70	67	74	78
 220	1	81	79	80	83
 221	1	81	79	80	84
 222	1	82	79	80	83
 223	1	82	79	80	84
 224	2	77	74	73	80
 225	2	78	74	73	80
 226	4	67	74	73	80
 227	3	73	80	79	81
 228	3	73	80	79	82
 229	4	74	73	80	79
 230	2	74	73	80	83
 231	2	74	73	80	84
 232	3	75	73	80	79
 233	1	75	73	80	83
 234	1	75	73	80	84
 235	3	76	73	80	79
 236	1	76	73	80	83
 237	1	76	73	80	84
 238	1	87	85	86	89
 239	1	87	85	86	90
 240	1	88	85	86	89
 241	1	88	85	86	90
 242	2	83	80	79	86
 243	2	84	80	79	86
 244	4	73	80	79	86
 245	3	79	86	85	87
 246	3	79	86	85	88
 247	4	80	79	86	85
 248	2	80	79	86	89
 249	2	80	79	86	90
 250	3	81	79	86	85
 251	1	81	79	86	89
 252	1	81	79	86	90
 253	3	82	79	86	85
 254	1	82	79	86	89
 255	1	82	79	86	90
 256	1	93	91	92	95
 257	1	93	91	92	96
 258	1	94	91	92	95
 259	1	94	91	92	96
 260	2	89	86	85	92
 261	2	90	86	85	92
 262	4	79	86	85	92
 263	3	85	92	91	93
 264	3	85	92	91	94
 265	4	86	85	92	91
 266	2	86	85	92	95
 267	2	86	85	92	96
 268	3	87	85	92	91
 269	1	87	85	92	95
 270	1	87	85	92	96
 271	3	88	85	92	91
 272	1	88	85	92	95
 273	1	88	85	92	96
 274	2	3	1	2	97
 275	2	4	1	2	97
 276	2	8	1	2	97
 277	1	95	92	91	98
 278	1	96	92	91	98
 279	3	85	92	91	98

