pySIMM System Object

218 atoms
217 bonds
432 angles
639 dihedrals
0 impropers

4 atom types
4 bond types
7 angle types
4 dihedral types

-97.636436 97.636436 xlo xhi
-97.636436 97.636436 ylo yhi
-97.636436 97.636436 zlo zhi

Masses

   1	12.01	# c3
   2	1.008	# hc
   3	19.0	# f
   4	1.008	# h2

Pair Coeffs

   1	0.1094	3.3996695084235347	# c3
   2	0.0157	2.649532787749369	# hc
   3	0.061	3.1181455134911875	# f
   4	0.0157	2.2931733004932333	# h2

Bond Coeffs

   1	330.6	1.0969	# c3,hc
   2	356.9	1.3497	# c3,f
   3	331.7	1.0961	# c3,h2
   4	300.9	1.5375	# c3,c3

Angle Coeffs

   1	51.15	108.79	# f,c3,h2
   2	46.34	109.8	# c3,c3,hc
   3	66.11	109.24	# c3,c3,f
   4	39.4	107.58	# hc,c3,hc
   5	46.25	110.22	# c3,c3,h2
   6	70.89	107.36	# f,c3,f
   7	62.86	111.51	# c3,c3,c3

Dihedral Coeffs

   1	2	0.0	3	0	0.19	1	0	# hc,c3,c3,f
   2	1	0.15555555555555556	3	0	# X,c3,c3,X
   3	1	0.16	3	0	# hc,c3,c3,c3
   4	3	0.18	3	0	0.25	2	180	0.2	1	180	# c3,c3,c3,c3

Atoms

   1	1	1	0.070548	3.97535	-24.1614	7.54891
   2	1	1	0.506757	3.01454	-23.4781	8.54324
   3	1	2	-0.012767	3.42831	-24.929	6.98492
   4	1	2	-0.014806	4.31254	-23.411	6.82185
   5	1	3	-0.274996	1.83475	-23.2394	7.92976
   6	1	3	-0.274736	3.50363	-22.2822	8.93606
   7	1	1	0.070548	5.99703	-25.8084	7.35331
   8	1	1	0.506757	5.19826	-24.8118	8.24072
   9	1	2	-0.012767	5.32025	-26.6309	7.08316
  10	1	2	-0.014806	6.78337	-26.2778	7.95829
  11	1	3	-0.274996	4.77127	-25.503	9.32187
  12	1	3	-0.274736	6.01657	-23.8523	8.71911
  13	1	1	0.070548	7.72153	-24.1621	6.17036
  14	1	1	0.506757	6.62241	-25.2546	6.0417
  15	1	2	-0.012767	7.27728	-23.2715	6.63008
  16	1	2	-0.014806	8.01232	-23.8543	5.15634
  17	1	3	-0.274996	7.10006	-26.2996	5.33119
  18	1	3	-0.274736	5.64318	-24.7629	5.25233
  19	1	1	0.070548	10.2084	-23.5884	6.74313
  20	1	1	0.506757	9.01088	-24.5586	6.94576
  21	1	2	-0.012767	11.0635	-23.9789	7.30765
  22	1	2	-0.014806	10.5143	-23.63	5.68848
  23	1	3	-0.274996	9.43586	-25.7782	6.55128
  24	1	3	-0.274736	8.74921	-24.6873	8.26319
  25	1	1	0.070548	11.2582	-21.2362	7.04252
  26	1	1	0.506757	9.96803	-22.0997	7.1221
  27	1	2	-0.012767	11.0021	-20.2149	6.73558
  28	1	2	-0.014806	11.8707	-21.6205	6.21497
  29	1	3	-0.274996	9.08582	-21.5671	6.24845
  30	1	3	-0.274736	9.39309	-21.996	8.33756
  31	1	1	0.070548	11.6356	-20.3783	9.54975
  32	1	1	0.506757	12.1447	-21.1891	8.32121
  33	1	2	-0.012767	10.8631	-20.9507	10.079
  34	1	2	-0.014806	12.464	-20.2936	10.2671
  35	1	3	-0.274996	12.3932	-22.4507	8.73429
  36	1	3	-0.274736	13.3558	-20.7055	7.96589
  37	1	1	0.070548	10.9762	-18.1171	10.5608
  38	1	1	0.506757	11.0908	-18.9558	9.25966
  39	1	2	-0.012767	10.6489	-18.7778	11.3755
  40	1	2	-0.014806	11.9788	-17.7824	10.8574
  41	1	3	-0.274996	11.8997	-18.3107	8.39044
  42	1	3	-0.274736	9.88697	-19.0601	8.65925
  43	1	1	0.070548	10.0926	-15.9452	9.28671
  44	1	1	0.506757	10.0038	-16.9021	10.5108
  45	1	2	-0.012767	9.17839	-15.3366	9.27043
  46	1	2	-0.014806	10.068	-16.5236	8.35657
  47	1	3	-0.274996	10.1614	-16.1935	11.6505
  48	1	3	-0.274736	8.73815	-17.3716	10.5793
  49	1	1	0.070548	11.5931	-14.3562	7.86703
  50	1	1	0.506757	11.3094	-14.9823	9.25926
  51	1	2	-0.012767	11.9283	-15.1557	7.19185
  52	1	2	-0.014806	12.4508	-13.6758	7.96544
  53	1	3	-0.274996	11.146	-13.9936	10.1661
  54	1	3	-0.274736	12.4289	-15.6337	9.63933
  55	1	1	0.070548	9.89203	-12.3851	8.00474
  56	1	1	0.506757	10.4347	-13.5828	7.1754
  57	1	2	-0.012767	9.41013	-12.7726	8.9112
  58	1	2	-0.014806	10.7429	-11.7811	8.34779
  59	1	3	-0.274996	10.9319	-13.1529	5.99626
  60	1	3	-0.274736	9.43511	-14.4359	6.8656
  61	1	1	0.070548	8.56661	-10.2362	8.21346
  62	1	1	0.506757	8.86411	-11.4562	7.30296
  63	1	2	-0.012767	8.34299	-10.5923	9.22878
  64	1	2	-0.014806	9.49099	-9.65025	8.30639
  65	1	3	-0.274996	7.72866	-12.1415	7.04778
  66	1	3	-0.274736	9.35343	-11.0121	6.12572
  67	1	1	0.070548	7.45774	-7.96772	8.5545
  68	1	1	0.506757	7.41312	-9.3012	7.76038
  69	1	2	-0.012767	7.17354	-8.17358	9.59582
  70	1	2	-0.014806	8.49706	-7.61376	8.59863
  71	1	3	-0.274996	6.23505	-9.91514	8.01208
  72	1	3	-0.274736	7.45906	-9.06253	6.43322
  73	1	1	0.070548	5.07512	-7.15647	7.85749
  74	1	1	0.506757	6.58153	-6.80545	8.01464
  75	1	2	-0.012767	4.96731	-7.9664	7.12586
  76	1	2	-0.014806	4.70524	-7.55506	8.81207
  77	1	3	-0.274996	6.72314	-5.78918	8.89365
  78	1	3	-0.274736	7.10386	-6.35943	6.85135
  79	1	1	0.070548	2.68614	-6.49248	7.26881
  80	1	1	0.506757	4.15122	-5.99619	7.40146
  81	1	2	-0.012767	2.41238	-7.03368	8.18519
  82	1	2	-0.014806	2.64168	-7.23626	6.46139
  83	1	3	-0.274996	4.20624	-4.96523	8.27134
  84	1	3	-0.274736	4.57315	-5.53518	6.20479
  85	1	1	0.070548	1.91067	-4.4912	5.78492
  86	1	1	0.506757	1.61004	-5.40296	7.00418
  87	1	2	-0.012767	2.72308	-3.80267	6.05313
  88	1	2	-0.014806	2.29387	-5.11398	4.9648
  89	1	3	-0.274996	1.44739	-4.65642	8.11831
  90	1	3	-0.274736	0.431385	-6.03832	6.82662
  91	1	1	0.070548	0.00934059	-2.76778	6.29703
  92	1	1	0.506757	0.734257	-3.64313	5.2374
  93	1	2	-0.012767	-0.740517	-3.38229	6.81433
  94	1	2	-0.014806	0.732045	-2.46222	7.06508
  95	1	3	-0.274996	-0.166155	-4.44688	4.62746
  96	1	3	-0.274736	1.24853	-2.87682	4.25085
  97	1	1	0.070548	-1.63481	-1.70377	4.5534
  98	1	1	0.506757	-0.673314	-1.48327	5.75707
  99	1	2	-0.012767	-1.08758	-2.11612	3.69949
 100	1	2	-0.014806	-2.35022	-2.48994	4.83178
 101	1	3	-0.274996	0.296198	-0.593754	5.4562
 102	1	3	-0.274736	-1.35847	-0.931925	6.78223
 103	1	1	0.070548	-1.66364	0.84028	3.72089
 104	1	1	0.506757	-2.44407	-0.460096	4.07745
 105	1	2	-0.012767	-2.38092	1.65886	3.59709
 106	1	2	-0.014806	-1.07335	1.16065	4.58635
 107	1	3	-0.274996	-3.36748	-0.15245	5.01429
 108	1	3	-0.274736	-3.1719	-0.840618	3.00486
 109	1	1	0.070548	-1.4157	0.695926	1.06778
 110	1	1	0.506757	-0.739931	0.775292	2.46815
 111	1	2	-0.012767	-0.616823	0.672987	0.313254
 112	1	2	-0.014806	-1.93346	-0.264239	0.953586
 113	1	3	-0.274996	0.0908146	1.84072	2.49828
 114	1	3	-0.274736	0.0867828	-0.286264	2.56459
 115	1	1	0.070548	-2.78093	1.77544	-0.797164
 116	1	1	0.506757	-2.38684	1.84846	0.699629
 117	1	2	-0.012767	-1.88044	1.95305	-1.40124
 118	1	2	-0.014806	-3.09103	0.746218	-1.02685
 119	1	3	-0.274996	-1.79254	3.03375	0.948533
 120	1	3	-0.274736	-3.49797	1.78868	1.46055
 121	1	1	0.070548	-3.65583	4.2449	-0.964044
 122	1	1	0.506757	-3.90072	2.7412	-1.27841
 123	1	2	-0.012767	-2.6617	4.52449	-1.33884
 124	1	2	-0.014806	-3.62203	4.37826	0.124138
 125	1	3	-0.274996	-5.09446	2.33838	-0.793731
 126	1	3	-0.274736	-3.9752	2.56519	-2.61597
 127	1	1	0.070548	-4.91927	5.23612	-3.03979
 128	1	1	0.506757	-4.70217	5.2608	-1.50074
 129	1	2	-0.012767	-5.5266	4.35792	-3.2945
 130	1	2	-0.014806	-3.95053	5.09536	-3.53935
 131	1	3	-0.274996	-4.27943	6.48433	-1.11264
 132	1	3	-0.274736	-5.88059	5.0558	-0.871996
 133	1	1	0.070548	-6.11966	6.18175	-5.08134
 134	1	1	0.506757	-5.61336	6.48593	-3.64444
 135	1	2	-0.012767	-6.98139	5.50374	-5.01344
 136	1	2	-0.014806	-5.33971	5.61134	-5.60593
 137	1	3	-0.274996	-4.74243	7.51776	-3.66098
 138	1	3	-0.274736	-6.66065	6.85258	-2.87725
 139	1	1	0.070548	-7.71434	8.25561	-5.49404
 140	1	1	0.506757	-6.50509	7.3947	-5.97501
 141	1	2	-0.012767	-7.72886	8.32026	-4.40293
 142	1	2	-0.014806	-8.64261	7.73227	-5.7639
 143	1	3	-0.274996	-5.40947	8.14501	-6.22305
 144	1	3	-0.274736	-6.84136	6.87137	-7.17707
 145	1	1	0.070548	-7.7335	9.81231	-7.59927
 146	1	1	0.506757	-7.7765	9.7098	-6.04622
 147	1	2	-0.012767	-8.64977	9.35711	-8.00118
 148	1	2	-0.014806	-6.91352	9.19653	-7.97854
 149	1	3	-0.274996	-6.79304	10.4238	-5.45846
 150	1	3	-0.274736	-8.93521	10.2535	-5.61196
 151	1	1	0.070548	-7.33779	11.0852	-9.75557
 152	1	1	0.506757	-7.56896	11.2287	-8.22405
 153	1	2	-0.012767	-8.29326	10.8111	-10.2244
 154	1	2	-0.014806	-6.67467	10.2282	-9.93414
 155	1	3	-0.274996	-6.54589	11.8954	-7.65273
 156	1	3	-0.274736	-8.68181	11.9672	-8.01681
 157	1	1	0.070548	-7.67909	13.5313	-10.6052
 158	1	1	0.506757	-6.74087	12.2986	-10.52
 159	1	2	-0.012767	-8.7047	13.1839	-10.7914
 160	1	2	-0.014806	-7.70469	14.0311	-9.62754
 161	1	3	-0.274996	-6.44624	11.8563	-11.7615
 162	1	3	-0.274736	-5.55037	12.6566	-9.99259
 163	1	1	0.070548	-5.85509	15.123	-11.6187
 164	1	1	0.506757	-7.31109	14.5771	-11.6979
 165	1	2	-0.012767	-5.1662	14.3702	-12.0254
 166	1	2	-0.014806	-5.58166	15.2428	-10.5613
 167	1	3	-0.274996	-7.52917	14.0428	-12.9203
 168	1	3	-0.274736	-8.20361	15.5872	-11.5961
 169	1	1	0.070548	-5.92266	16.4828	-13.859
 170	1	1	0.506757	-5.5914	16.4751	-12.3385
 171	1	2	-0.012767	-6.96215	16.1825	-14.0038
 172	1	2	-0.014806	-5.33442	15.6865	-14.3358
 173	1	3	-0.274996	-4.28454	16.7682	-12.1645
 174	1	3	-0.274736	-6.26636	17.4438	-11.6833
 175	1	1	0.070548	-6.39431	19.1	-14.1565
 176	1	1	0.506757	-5.65467	17.8139	-14.6331
 177	1	2	-0.012767	-5.96119	19.9576	-14.6901
 178	1	2	-0.014806	-6.13596	19.2872	-13.1137
 179	1	3	-0.274996	-5.93598	17.6062	-15.9391
 180	1	3	-0.274736	-4.32758	18.0699	-14.612
 181	1	1	0.070548	-8.76194	19.7099	-13.1718
 182	1	1	0.506757	-7.94139	19.1409	-14.3618
 183	1	2	-0.012767	-9.82771	19.6543	-13.4338
 184	1	2	-0.014806	-8.63936	19.0383	-12.3105
 185	1	3	-0.274996	-8.44522	17.9122	-14.6002
 186	1	3	-0.274736	-8.22575	19.84	-15.4825
 187	1	1	0.070548	-9.5288	21.6642	-11.7336
 188	1	1	0.506757	-8.44014	21.1572	-12.7154
 189	1	2	-0.012767	-10.4994	21.635	-12.2485
 190	1	2	-0.014806	-9.64176	20.9359	-10.9209
 191	1	3	-0.274996	-8.35899	21.9923	-13.7727
 192	1	3	-0.274736	-7.23644	21.1617	-12.1043
 193	1	1	0.070548	-9.69045	23.2326	-9.65835
 194	1	1	0.506757	-9.31547	23.0998	-11.1567
 195	1	2	-0.012767	-9.73258	24.303	-9.42162
 196	1	2	-0.014806	-10.7158	22.8633	-9.51939
 197	1	3	-0.274996	-10.1165	23.9432	-11.8468
 198	1	3	-0.274736	-8.06571	23.5862	-11.329
 199	1	1	0.070548	-7.75133	23.4513	-7.89908
 200	1	1	0.506757	-8.7322	22.5137	-8.65565
 201	1	2	-0.012767	-6.89592	22.8507	-7.57167
 202	1	2	-0.014806	-7.34057	24.1773	-8.61345
 203	1	3	-0.274996	-7.97149	21.5876	-9.27907
 204	1	3	-0.274736	-9.47496	21.7932	-7.78886
 205	1	1	0.070548	-7.36586	25.2999	-6.12837
 206	1	1	0.506757	-8.33253	24.2118	-6.67218
 207	1	2	-0.012767	-6.86018	25.7767	-6.97877
 208	1	2	-0.014806	-7.96652	26.0991	-5.67092
 209	1	3	-0.274996	-9.48306	24.8214	-7.03148
 210	1	3	-0.274736	-8.66322	23.3545	-5.68293
 211	1	1	0.070548	-5.57933	23.5103	-5.32858
 212	1	1	0.506757	-6.29809	24.8599	-5.08454
 213	1	2	-0.012767	-4.79509	23.3521	-4.57714
 214	1	2	-0.014806	-5.09892	23.4928	-6.31468
 215	1	3	-0.274996	-6.84557	24.8495	-3.84947
 216	1	3	-0.274736	-5.34607	25.819	-5.05528
 217	1	4	0	2.82475	-24.1035	9.42243
 218	1	2	0	-6.26815	22.6598	-5.25936

Velocities

   1	-0.000687242	-0.000535954	8.0389e-06
   2	0.000101562	-0.000192951	0.000460377
   3	-0.00106486	-0.00115645	0.00083006
   4	-0.00136351	-0.000769257	-0.000665538
   5	0.000211706	0.00128906	0.000515203
   6	0.00131861	-0.000779012	0.000637699
   7	0.000134868	4.54389e-05	-0.000175955
   8	-0.000139332	0.000147449	-0.000426766
   9	0.000441157	-7.34981e-05	-2.51001e-05
  10	0.000223285	0.000476301	-5.57386e-06
  11	0.000392038	0.000384394	-1.73268e-05
  12	-0.000345869	0.000622682	-0.00110354
  13	0.000130679	0.000162459	-9.56962e-05
  14	0.000289273	5.73547e-05	-6.92206e-05
  15	0.000144281	0.00025065	-0.000180416
  16	0.000382647	9.36342e-05	-6.2972e-05
  17	0.000459263	0.000171609	-6.04082e-05
  18	0.000246093	4.04445e-05	-0.000179406
  19	0.000117748	6.07926e-05	0.000192289
  20	1.05444e-05	0.000210776	0.000169571
  21	9.30293e-05	0.000133832	0.000518362
  22	0.000300315	-5.95616e-05	0.000390454
  23	6.49029e-05	0.000153841	0.000412746
  24	-0.00015022	0.000371468	0.000201881
  25	7.19266e-05	6.03485e-05	6.95555e-05
  26	0.000175715	0.00017701	1.29093e-05
  27	3.13601e-05	0.000161179	1.5982e-05
  28	9.79289e-05	0.00011531	1.98485e-06
  29	0.00025731	3.0756e-05	-0.000293972
  30	-0.000124942	0.000334542	-9.3297e-05
  31	-6.36481e-05	-2.65463e-06	1.29919e-05
  32	0.000125841	0.000202902	8.27333e-06
  33	0.000262608	-0.000288359	0.000101548
  34	3.22232e-05	0.000334525	-6.84846e-05
  35	0.000377991	0.000210712	-7.39223e-05
  36	-2.21034e-05	0.000484574	7.64569e-06
  37	-0.0004972	-0.000326394	4.16328e-05
  38	-0.000613113	-0.000250139	2.86683e-05
  39	-0.000719338	-0.000337868	-4.88796e-05
  40	-0.00046473	-0.000540786	0.000159651
  41	-0.00109625	-2.95357e-05	-0.000265379
  42	-0.00076222	-0.000667455	0.000433882
  43	-0.000223095	-0.00018051	1.2219e-06
  44	-0.00029385	-0.000168652	2.38747e-05
  45	1.39841e-05	0.000169291	0.00025297
  46	-0.000724513	-0.000193336	1.59973e-05
  47	-0.000143565	-0.000196208	3.09995e-05
  48	-0.000360259	1.021e-05	6.77183e-05
  49	-0.000101001	-0.000620396	-0.000427451
  50	0.000132881	-0.000630706	-0.000373154
  51	-0.000730766	-0.000733874	-0.000607476
  52	0.000283073	-0.00105662	-0.000697726
  53	0.000834017	-0.000631404	-0.000250345
  54	2.06957e-05	-0.0010757	-0.000791498
  55	0.000863634	0.000353793	2.33651e-05
  56	3.9029e-05	-1.46358e-05	-1.43145e-05
  57	0.00133826	0.000727373	0.000424957
  58	0.00120557	0.000290085	-0.000693306
  59	-0.000178726	-0.00029922	-0.000210433
  60	-0.000482209	0.000458005	0.000369783
  61	0.000685094	0.000354878	0.000303413
  62	0.000613372	0.00032088	0.00031748
  63	0.00103527	0.000411738	0.000401642
  64	0.000597415	0.00056144	6.13228e-06
  65	0.000569883	0.000264086	0.000635299
  66	0.000275824	0.000276218	0.000165439
  67	-4.53598e-05	4.00299e-05	0.000446323
  68	0.000348408	3.56417e-05	0.000471788
  69	-7.36441e-05	2.81941e-05	0.000443366
  70	-0.000132323	0.00029549	0.000530286
  71	0.000530239	-0.000264693	0.000559981
  72	0.000167903	8.00993e-05	0.000474655
  73	-0.000185868	-0.000517736	-0.000139832
  74	-0.000267882	-0.000223532	0.000235421
  75	0.000104479	-0.000459584	-0.000267924
  76	-0.000335054	-0.000733173	-0.000283743
  77	-0.00066008	-0.000181113	0.000238628
  78	-0.000115285	-0.000107757	0.00034296
  79	-0.000227979	-0.000453639	-0.00046371
  80	-0.000239245	-0.00052961	-0.00011777
  81	-0.000377471	-0.000595379	-0.000590835
  82	-0.000150755	-0.000338672	-0.000587122
  83	-0.000476891	-0.000700562	0.000102441
  84	-5.53009e-05	-0.000245446	6.29126e-05
  85	7.90719e-05	3.13036e-05	-9.12025e-05
  86	-0.000130791	-0.000303409	-0.000386826
  87	0.000110213	-0.000128767	0.000227038
  88	0.000116991	0.000255421	-0.000248316
  89	-0.000292378	-0.000541187	-0.000244617
  90	-0.000134527	-0.000179748	-0.000730597
  91	0.000463452	0.00042128	9.23019e-05
  92	0.000254769	0.000348853	1.95586e-05
  93	0.000583616	0.000466138	0.000314345
  94	0.000626345	0.000528446	-9.37527e-05
  95	5.45771e-05	0.000641013	-6.80649e-05
  96	0.000412368	0.00035907	0.000108156
  97	1.80016e-05	4.941e-05	0.00026194
  98	0.000291665	0.000294269	1.95252e-05
  99	-0.000154879	2.82774e-05	0.000153176
 100	0.000139332	1.91926e-05	0.000499396
 101	0.000177621	0.000279941	-0.000381627
 102	0.000542271	0.000481984	8.91745e-05
 103	-0.00024361	-3.40655e-05	9.22506e-05
 104	-0.000141238	-1.54367e-05	0.000382177
 105	-0.000343976	-0.000156551	-0.000100451
 106	-0.000317861	0.000183856	5.83517e-05
 107	0.000192342	5.59643e-05	0.000695278
 108	-0.000504651	-4.93926e-05	0.000633508
 109	-0.000190386	-2.92761e-05	0.000136829
 110	-0.000189687	-7.90589e-05	0.000137998
 111	-0.000184523	-0.000362537	0.00015151
 112	-0.000466735	0.000100303	0.000302653
 113	-0.00017355	-9.04969e-05	0.000189669
 114	-0.000168054	-7.16809e-05	0.000123142
 115	0.00048708	0.000405051	-0.000161375
 116	8.72171e-05	0.000194606	-3.15246e-05
 117	0.000589865	0.000904523	0.000142104
 118	0.000952426	0.000343325	-0.000490179
 119	0.000144662	0.00011797	0.000198854
 120	-8.177e-05	0.000271538	-0.000273805
 121	-8.42031e-06	0.000179069	-0.000545499
 122	0.000281196	0.000104577	-0.000352587
 123	-0.000355527	0.000417943	-0.00126638
 124	0.000679395	0.000322772	-0.000592492
 125	0.000305584	-0.000121416	-0.000465022
 126	0.000433442	1.02414e-05	-0.000360544
 127	-0.000884784	-0.000172192	-2.15256e-05
 128	-0.000558393	-0.000151182	-9.00274e-05
 129	-0.000637327	-0.000355138	-2.34146e-05
 130	-0.000916855	0.000230139	-0.000188025
 131	-0.000828651	-3.37792e-05	-0.000135994
 132	-0.000325136	-0.000520556	0.000229533
 133	-0.00102436	-1.25494e-05	0.000169224
 134	-0.00127298	-0.000268998	0.000269077
 135	-0.00133684	0.000345643	-0.000145206
 136	-0.00115468	-0.000237421	0.000247295
 137	-0.00160312	1.68648e-05	0.000646282
 138	-0.00147339	-0.000801943	0.000239835
 139	0.000300784	0.000935856	0.00050574
 140	-0.000231819	0.000293708	0.00039303
 141	0.00101729	0.00180058	0.000544311
 142	-2.55776e-05	0.000976227	0.00140533
 143	0.000227911	-0.000209963	0.000771552
 144	-0.000423891	0.000759594	0.000251406
 145	0.00195376	-0.000370041	-0.000568273
 146	0.000561385	0.000551534	-0.000594753
 147	0.00294501	-0.00172259	-0.00123555
 148	0.00314601	0.00058269	0.000458899
 149	4.54594e-05	0.00100127	-0.000323945
 150	0.000153153	0.000749853	-0.00191378
 151	0.00122712	-0.000991764	-0.000889028
 152	0.000848162	-0.000540966	-0.00099815
 153	0.00146696	-0.00174505	-0.000937805
 154	0.00189909	-0.000569671	-0.000516938
 155	0.000155516	0.000700765	-0.00112946
 156	0.000108659	-0.00143427	-0.00161025
 157	0.00029893	-0.000654885	0.00068812
 158	0.000421863	-0.00073544	-0.00107467
 159	6.22042e-05	-0.000579374	0.00185246
 160	0.00162145	-0.00110277	0.000944775
 161	-0.00100668	-0.000283715	-0.00157801
 162	0.00108805	-0.00127727	-0.00213765
 163	-0.00106832	0.000130136	0.000220437
 164	-0.00103351	-2.43814e-05	0.000795749
 165	-0.00134298	0.000228509	-0.000354351
 166	-0.000695524	-0.000321588	0.000171393
 167	-0.00194686	0.000412419	0.000738901
 168	-0.00115122	-0.000232015	0.0019069
 169	-0.000274126	0.000219577	0.000507092
 170	-0.000964615	0.000332603	0.000526439
 171	-6.63432e-05	-0.000168115	0.000121663
 172	0.000163885	0.000389356	0.000935043
 173	-0.000976982	0.000287571	0.00098844
 174	-0.00122218	0.000306811	0.000548345
 175	8.97144e-05	0.000129052	0.000124742
 176	-0.000213168	3.97471e-05	0.000117852
 177	9.20137e-05	0.000166827	1.18961e-05
 178	0.000229804	8.26352e-05	0.000106877
 179	-0.000848942	-0.000100675	0.000186908
 180	-0.000120791	-0.000180219	-0.000525905
 181	-0.000119614	0.00022783	-0.000414627
 182	0.000109701	-0.000104638	-3.65221e-05
 183	-1.87177e-05	0.000501171	-0.000879613
 184	-0.000777605	0.00034714	-0.0002189
 185	0.000164755	-0.000148899	0.000284317
 186	0.000264983	-0.000534071	-0.000310711
 187	0.000557996	0.00035719	-0.000328232
 188	0.000162595	0.000180945	-0.000883821
 189	0.000555008	0.000908028	-0.000435455
 190	0.000480403	-7.26791e-05	-0.00066442
 191	-0.000647402	3.76789e-05	-0.00109156
 192	0.000447703	0.000582238	-0.00147348
 193	-0.000143031	-0.000832941	0.000300935
 194	0.000916604	-8.56507e-05	0.000400768
 195	-0.00151598	-0.000923407	0.000587327
 196	0.000391545	-0.0021775	-0.000779332
 197	0.00150551	0.000529549	0.000377653
 198	0.00120053	-0.000513773	0.00105003
 199	-0.000114371	0.00049887	7.05974e-05
 200	-0.000352463	8.66033e-05	0.00107769
 201	-5.95167e-05	0.000759184	0.00011054
 202	-0.000486683	0.000375645	-0.000180641
 203	-0.000901819	-0.00116429	0.00197755
 204	-0.000649684	0.00158173	0.00195055
 205	0.00080344	0.000559443	-0.000919031
 206	0.000214052	0.000684305	0.000253184
 207	0.00198574	-0.00125777	-0.00129219
 208	0.00142482	0.00195563	-0.00258652
 209	-0.000235735	0.000202752	0.000904306
 210	0.00113027	0.000507036	0.000565203
 211	0.000508106	0.000545593	-0.000521037
 212	-0.000607352	4.13946e-05	0.000129795
 213	0.00066327	0.000981302	-0.000776475
 214	0.000579073	0.00122614	-0.000540096
 215	-0.0029066	-0.00236965	-0.00100448
 216	-0.00155455	0.000988864	0.00337955
 217	-0.0003303	-0.000242573	0.000360955
 218	0.00125029	-4.70601e-05	-0.000812905

Bonds

   1	4	1	2
   2	1	1	3
   3	1	1	4
   4	2	2	5
   5	2	2	6
   6	4	7	8
   7	1	7	9
   8	1	7	10
   9	2	8	11
  10	2	8	12
  11	4	1	8
  12	4	13	14
  13	1	13	15
  14	1	13	16
  15	2	14	17
  16	2	14	18
  17	4	7	14
  18	4	19	20
  19	1	19	21
  20	1	19	22
  21	2	20	23
  22	2	20	24
  23	4	13	20
  24	4	25	26
  25	1	25	27
  26	1	25	28
  27	2	26	29
  28	2	26	30
  29	4	19	26
  30	4	31	32
  31	1	31	33
  32	1	31	34
  33	2	32	35
  34	2	32	36
  35	4	25	32
  36	4	37	38
  37	1	37	39
  38	1	37	40
  39	2	38	41
  40	2	38	42
  41	4	31	38
  42	4	43	44
  43	1	43	45
  44	1	43	46
  45	2	44	47
  46	2	44	48
  47	4	37	44
  48	4	49	50
  49	1	49	51
  50	1	49	52
  51	2	50	53
  52	2	50	54
  53	4	43	50
  54	4	55	56
  55	1	55	57
  56	1	55	58
  57	2	56	59
  58	2	56	60
  59	4	49	56
  60	4	61	62
  61	1	61	63
  62	1	61	64
  63	2	62	65
  64	2	62	66
  65	4	55	62
  66	4	67	68
  67	1	67	69
  68	1	67	70
  69	2	68	71
  70	2	68	72
  71	4	61	68
  72	4	73	74
  73	1	73	75
  74	1	73	76
  75	2	74	77
  76	2	74	78
  77	4	67	74
  78	4	79	80
  79	1	79	81
  80	1	79	82
  81	2	80	83
  82	2	80	84
  83	4	73	80
  84	4	85	86
  85	1	85	87
  86	1	85	88
  87	2	86	89
  88	2	86	90
  89	4	79	86
  90	4	91	92
  91	1	91	93
  92	1	91	94
  93	2	92	95
  94	2	92	96
  95	4	85	92
  96	4	97	98
  97	1	97	99
  98	1	97	100
  99	2	98	101
 100	2	98	102
 101	4	91	98
 102	4	103	104
 103	1	103	105
 104	1	103	106
 105	2	104	107
 106	2	104	108
 107	4	97	104
 108	4	109	110
 109	1	109	111
 110	1	109	112
 111	2	110	113
 112	2	110	114
 113	4	103	110
 114	4	115	116
 115	1	115	117
 116	1	115	118
 117	2	116	119
 118	2	116	120
 119	4	109	116
 120	4	121	122
 121	1	121	123
 122	1	121	124
 123	2	122	125
 124	2	122	126
 125	4	115	122
 126	4	127	128
 127	1	127	129
 128	1	127	130
 129	2	128	131
 130	2	128	132
 131	4	121	128
 132	4	133	134
 133	1	133	135
 134	1	133	136
 135	2	134	137
 136	2	134	138
 137	4	127	134
 138	4	139	140
 139	1	139	141
 140	1	139	142
 141	2	140	143
 142	2	140	144
 143	4	133	140
 144	4	145	146
 145	1	145	147
 146	1	145	148
 147	2	146	149
 148	2	146	150
 149	4	139	146
 150	4	151	152
 151	1	151	153
 152	1	151	154
 153	2	152	155
 154	2	152	156
 155	4	145	152
 156	4	157	158
 157	1	157	159
 158	1	157	160
 159	2	158	161
 160	2	158	162
 161	4	151	158
 162	4	163	164
 163	1	163	165
 164	1	163	166
 165	2	164	167
 166	2	164	168
 167	4	157	164
 168	4	169	170
 169	1	169	171
 170	1	169	172
 171	2	170	173
 172	2	170	174
 173	4	163	170
 174	4	175	176
 175	1	175	177
 176	1	175	178
 177	2	176	179
 178	2	176	180
 179	4	169	176
 180	4	181	182
 181	1	181	183
 182	1	181	184
 183	2	182	185
 184	2	182	186
 185	4	175	182
 186	4	187	188
 187	1	187	189
 188	1	187	190
 189	2	188	191
 190	2	188	192
 191	4	181	188
 192	4	193	194
 193	1	193	195
 194	1	193	196
 195	2	194	197
 196	2	194	198
 197	4	187	194
 198	4	199	200
 199	1	199	201
 200	1	199	202
 201	2	200	203
 202	2	200	204
 203	4	193	200
 204	4	205	206
 205	1	205	207
 206	1	205	208
 207	2	206	209
 208	2	206	210
 209	4	199	206
 210	4	211	212
 211	1	211	213
 212	1	211	214
 213	2	212	215
 214	2	212	216
 215	4	205	212
 216	3	2	217
 217	1	211	218

Angles

   1	2	2	1	3
   2	2	2	1	4
   3	4	3	1	4
   4	3	1	2	5
   5	3	1	2	6
   6	6	5	2	6
   7	2	8	7	9
   8	2	8	7	10
   9	4	9	7	10
  10	3	7	8	11
  11	3	7	8	12
  12	6	11	8	12
  13	7	2	1	8
  14	2	3	1	8
  15	2	4	1	8
  16	7	1	8	7
  17	3	1	8	11
  18	3	1	8	12
  19	2	14	13	15
  20	2	14	13	16
  21	4	15	13	16
  22	3	13	14	17
  23	3	13	14	18
  24	6	17	14	18
  25	7	8	7	14
  26	2	9	7	14
  27	2	10	7	14
  28	7	7	14	13
  29	3	7	14	17
  30	3	7	14	18
  31	2	20	19	21
  32	2	20	19	22
  33	4	21	19	22
  34	3	19	20	23
  35	3	19	20	24
  36	6	23	20	24
  37	7	14	13	20
  38	2	15	13	20
  39	2	16	13	20
  40	7	13	20	19
  41	3	13	20	23
  42	3	13	20	24
  43	2	26	25	27
  44	2	26	25	28
  45	4	27	25	28
  46	3	25	26	29
  47	3	25	26	30
  48	6	29	26	30
  49	7	20	19	26
  50	2	21	19	26
  51	2	22	19	26
  52	7	19	26	25
  53	3	19	26	29
  54	3	19	26	30
  55	2	32	31	33
  56	2	32	31	34
  57	4	33	31	34
  58	3	31	32	35
  59	3	31	32	36
  60	6	35	32	36
  61	7	26	25	32
  62	2	27	25	32
  63	2	28	25	32
  64	7	25	32	31
  65	3	25	32	35
  66	3	25	32	36
  67	2	38	37	39
  68	2	38	37	40
  69	4	39	37	40
  70	3	37	38	41
  71	3	37	38	42
  72	6	41	38	42
  73	7	32	31	38
  74	2	33	31	38
  75	2	34	31	38
  76	7	31	38	37
  77	3	31	38	41
  78	3	31	38	42
  79	2	44	43	45
  80	2	44	43	46
  81	4	45	43	46
  82	3	43	44	47
  83	3	43	44	48
  84	6	47	44	48
  85	7	38	37	44
  86	2	39	37	44
  87	2	40	37	44
  88	7	37	44	43
  89	3	37	44	47
  90	3	37	44	48
  91	2	50	49	51
  92	2	50	49	52
  93	4	51	49	52
  94	3	49	50	53
  95	3	49	50	54
  96	6	53	50	54
  97	7	44	43	50
  98	2	45	43	50
  99	2	46	43	50
 100	7	43	50	49
 101	3	43	50	53
 102	3	43	50	54
 103	2	56	55	57
 104	2	56	55	58
 105	4	57	55	58
 106	3	55	56	59
 107	3	55	56	60
 108	6	59	56	60
 109	7	50	49	56
 110	2	51	49	56
 111	2	52	49	56
 112	7	49	56	55
 113	3	49	56	59
 114	3	49	56	60
 115	2	62	61	63
 116	2	62	61	64
 117	4	63	61	64
 118	3	61	62	65
 119	3	61	62	66
 120	6	65	62	66
 121	7	56	55	62
 122	2	57	55	62
 123	2	58	55	62
 124	7	55	62	61
 125	3	55	62	65
 126	3	55	62	66
 127	2	68	67	69
 128	2	68	67	70
 129	4	69	67	70
 130	3	67	68	71
 131	3	67	68	72
 132	6	71	68	72
 133	7	62	61	68
 134	2	63	61	68
 135	2	64	61	68
 136	7	61	68	67
 137	3	61	68	71
 138	3	61	68	72
 139	2	74	73	75
 140	2	74	73	76
 141	4	75	73	76
 142	3	73	74	77
 143	3	73	74	78
 144	6	77	74	78
 145	7	68	67	74
 146	2	69	67	74
 147	2	70	67	74
 148	7	67	74	73
 149	3	67	74	77
 150	3	67	74	78
 151	2	80	79	81
 152	2	80	79	82
 153	4	81	79	82
 154	3	79	80	83
 155	3	79	80	84
 156	6	83	80	84
 157	7	74	73	80
 158	2	75	73	80
 159	2	76	73	80
 160	7	73	80	79
 161	3	73	80	83
 162	3	73	80	84
 163	2	86	85	87
 164	2	86	85	88
 165	4	87	85	88
 166	3	85	86	89
 167	3	85	86	90
 168	6	89	86	90
 169	7	80	79	86
 170	2	81	79	86
 171	2	82	79	86
 172	7	79	86	85
 173	3	79	86	89
 174	3	79	86	90
 175	2	92	91	93
 176	2	92	91	94
 177	4	93	91	94
 178	3	91	92	95
 179	3	91	92	96
 180	6	95	92	96
 181	7	86	85	92
 182	2	87	85	92
 183	2	88	85	92
 184	7	85	92	91
 185	3	85	92	95
 186	3	85	92	96
 187	2	98	97	99
 188	2	98	97	100
 189	4	99	97	100
 190	3	97	98	101
 191	3	97	98	102
 192	6	101	98	102
 193	7	92	91	98
 194	2	93	91	98
 195	2	94	91	98
 196	7	91	98	97
 197	3	91	98	101
 198	3	91	98	102
 199	2	104	103	105
 200	2	104	103	106
 201	4	105	103	106
 202	3	103	104	107
 203	3	103	104	108
 204	6	107	104	108
 205	7	98	97	104
 206	2	99	97	104
 207	2	100	97	104
 208	7	97	104	103
 209	3	97	104	107
 210	3	97	104	108
 211	2	110	109	111
 212	2	110	109	112
 213	4	111	109	112
 214	3	109	110	113
 215	3	109	110	114
 216	6	113	110	114
 217	7	104	103	110
 218	2	105	103	110
 219	2	106	103	110
 220	7	103	110	109
 221	3	103	110	113
 222	3	103	110	114
 223	2	116	115	117
 224	2	116	115	118
 225	4	117	115	118
 226	3	115	116	119
 227	3	115	116	120
 228	6	119	116	120
 229	7	110	109	116
 230	2	111	109	116
 231	2	112	109	116
 232	7	109	116	115
 233	3	109	116	119
 234	3	109	116	120
 235	2	122	121	123
 236	2	122	121	124
 237	4	123	121	124
 238	3	121	122	125
 239	3	121	122	126
 240	6	125	122	126
 241	7	116	115	122
 242	2	117	115	122
 243	2	118	115	122
 244	7	115	122	121
 245	3	115	122	125
 246	3	115	122	126
 247	2	128	127	129
 248	2	128	127	130
 249	4	129	127	130
 250	3	127	128	131
 251	3	127	128	132
 252	6	131	128	132
 253	7	122	121	128
 254	2	123	121	128
 255	2	124	121	128
 256	7	121	128	127
 257	3	121	128	131
 258	3	121	128	132
 259	2	134	133	135
 260	2	134	133	136
 261	4	135	133	136
 262	3	133	134	137
 263	3	133	134	138
 264	6	137	134	138
 265	7	128	127	134
 266	2	129	127	134
 267	2	130	127	134
 268	7	127	134	133
 269	3	127	134	137
 270	3	127	134	138
 271	2	140	139	141
 272	2	140	139	142
 273	4	141	139	142
 274	3	139	140	143
 275	3	139	140	144
 276	6	143	140	144
 277	7	134	133	140
 278	2	135	133	140
 279	2	136	133	140
 280	7	133	140	139
 281	3	133	140	143
 282	3	133	140	144
 283	2	146	145	147
 284	2	146	145	148
 285	4	147	145	148
 286	3	145	146	149
 287	3	145	146	150
 288	6	149	146	150
 289	7	140	139	146
 290	2	141	139	146
 291	2	142	139	146
 292	7	139	146	145
 293	3	139	146	149
 294	3	139	146	150
 295	2	152	151	153
 296	2	152	151	154
 297	4	153	151	154
 298	3	151	152	155
 299	3	151	152	156
 300	6	155	152	156
 301	7	146	145	152
 302	2	147	145	152
 303	2	148	145	152
 304	7	145	152	151
 305	3	145	152	155
 306	3	145	152	156
 307	2	158	157	159
 308	2	158	157	160
 309	4	159	157	160
 310	3	157	158	161
 311	3	157	158	162
 312	6	161	158	162
 313	7	152	151	158
 314	2	153	151	158
 315	2	154	151	158
 316	7	151	158	157
 317	3	151	158	161
 318	3	151	158	162
 319	2	164	163	165
 320	2	164	163	166
 321	4	165	163	166
 322	3	163	164	167
 323	3	163	164	168
 324	6	167	164	168
 325	7	158	157	164
 326	2	159	157	164
 327	2	160	157	164
 328	7	157	164	163
 329	3	157	164	167
 330	3	157	164	168
 331	2	170	169	171
 332	2	170	169	172
 333	4	171	169	172
 334	3	169	170	173
 335	3	169	170	174
 336	6	173	170	174
 337	7	164	163	170
 338	2	165	163	170
 339	2	166	163	170
 340	7	163	170	169
 341	3	163	170	173
 342	3	163	170	174
 343	2	176	175	177
 344	2	176	175	178
 345	4	177	175	178
 346	3	175	176	179
 347	3	175	176	180
 348	6	179	176	180
 349	7	170	169	176
 350	2	171	169	176
 351	2	172	169	176
 352	7	169	176	175
 353	3	169	176	179
 354	3	169	176	180
 355	2	182	181	183
 356	2	182	181	184
 357	4	183	181	184
 358	3	181	182	185
 359	3	181	182	186
 360	6	185	182	186
 361	7	176	175	182
 362	2	177	175	182
 363	2	178	175	182
 364	7	175	182	181
 365	3	175	182	185
 366	3	175	182	186
 367	2	188	187	189
 368	2	188	187	190
 369	4	189	187	190
 370	3	187	188	191
 371	3	187	188	192
 372	6	191	188	192
 373	7	182	181	188
 374	2	183	181	188
 375	2	184	181	188
 376	7	181	188	187
 377	3	181	188	191
 378	3	181	188	192
 379	2	194	193	195
 380	2	194	193	196
 381	4	195	193	196
 382	3	193	194	197
 383	3	193	194	198
 384	6	197	194	198
 385	7	188	187	194
 386	2	189	187	194
 387	2	190	187	194
 388	7	187	194	193
 389	3	187	194	197
 390	3	187	194	198
 391	2	200	199	201
 392	2	200	199	202
 393	4	201	199	202
 394	3	199	200	203
 395	3	199	200	204
 396	6	203	200	204
 397	7	194	193	200
 398	2	195	193	200
 399	2	196	193	200
 400	7	193	200	199
 401	3	193	200	203
 402	3	193	200	204
 403	2	206	205	207
 404	2	206	205	208
 405	4	207	205	208
 406	3	205	206	209
 407	3	205	206	210
 408	6	209	206	210
 409	7	200	199	206
 410	2	201	199	206
 411	2	202	199	206
 412	7	199	206	205
 413	3	199	206	209
 414	3	199	206	210
 415	2	212	211	213
 416	2	212	211	214
 417	4	213	211	214