pySIMM System Object

284 atoms
283 bonds
564 angles
837 dihedrals
0 impropers

4 atom types
4 bond types
7 angle types
4 dihedral types

-106.948619 106.948619 xlo xhi
-106.948619 106.948619 ylo yhi
-106.948619 106.948619 zlo zhi

Masses

   1	12.01	# c3
   2	1.008	# hc
   3	19.0	# f
   4	1.008	# h2

Pair Coeffs

   1	0.1094	3.3996695084235347	# c3
   2	0.0157	2.649532787749369	# hc
   3	0.061	3.1181455134911875	# f
   4	0.0157	2.2931733004932333	# h2

Bond Coeffs

   1	330.6	1.0969	# c3,hc
   2	356.9	1.3497	# c3,f
   3	331.7	1.0961	# c3,h2
   4	300.9	1.5375	# c3,c3

Angle Coeffs

   1	51.15	108.79	# f,c3,h2
   2	46.34	109.8	# c3,c3,hc
   3	66.11	109.24	# c3,c3,f
   4	39.4	107.58	# hc,c3,hc
   5	46.25	110.22	# c3,c3,h2
   6	70.89	107.36	# f,c3,f
   7	62.86	111.51	# c3,c3,c3

Dihedral Coeffs

   1	2	0.0	3	0	0.19	1	0	# hc,c3,c3,f
   2	1	0.15555555555555556	3	0	# X,c3,c3,X
   3	1	0.16	3	0	# hc,c3,c3,c3
   4	3	0.18	3	0	0.25	2	180	0.2	1	180	# c3,c3,c3,c3

Atoms

   1	1	1	0.070548	18.6739	4.16397	16.8476
   2	1	1	0.506757	17.7262	5.30141	16.4112
   3	1	2	-0.012767	18.8109	4.20153	17.9368
   4	1	2	-0.014806	18.2032	3.19821	16.6269
   5	1	3	-0.274996	16.8151	5.52815	17.3824
   6	1	3	-0.274736	17.0406	4.95084	15.3014
   7	1	1	0.070548	21.0991	3.23764	16.6751
   8	1	1	0.506757	20.057	4.27122	16.1622
   9	1	2	-0.012767	20.9751	3.14515	17.7629
  10	1	2	-0.014806	22.1103	3.64376	16.5516
  11	1	3	-0.274996	20.5555	5.50368	16.4095
  12	1	3	-0.274736	19.9143	4.19652	14.8227
  13	1	1	0.070548	21.472	1.62853	14.5752
  14	1	1	0.506757	21.034	1.81128	16.0578
  15	1	2	-0.012767	20.6949	2.03248	13.916
  16	1	2	-0.014806	21.4974	0.550869	14.3625
  17	1	3	-0.274996	21.7778	0.98913	16.8312
  18	1	3	-0.274736	19.7766	1.33452	16.1798
  19	1	1	0.070548	23.412	1.7335	12.8254
  20	1	1	0.506757	22.8496	2.23226	14.1842
  21	1	2	-0.012767	24.351	2.26335	12.6284
  22	1	2	-0.014806	23.6968	0.676962	12.9267
  23	1	3	-0.274996	23.7684	1.93464	15.1286
  24	1	3	-0.274736	22.7836	3.58118	14.1599
  25	1	1	0.070548	23.1662	1.73418	10.2362
  26	1	1	0.506757	22.4528	1.86828	11.6091
  27	1	2	-0.012767	22.4701	1.31436	9.49967
  28	1	2	-0.014806	23.9535	0.973917	10.3352
  29	1	3	-0.274996	21.5407	0.873879	11.6835
  30	1	3	-0.274736	21.7441	3.01405	11.6664
  31	1	1	0.070548	22.8596	4.15493	9.14366
  32	1	1	0.506757	23.8061	3.03323	9.66439
  33	1	2	-0.012767	22.4046	4.68978	9.98667
  34	1	2	-0.014806	23.4814	4.90805	8.64004
  35	1	3	-0.274996	24.6148	3.58162	10.5958
  36	1	3	-0.274736	24.6431	2.67716	8.6643
  37	1	1	0.070548	21.1471	4.9268	7.41219
  38	1	1	0.506757	21.7441	3.70775	8.16394
  39	1	2	-0.012767	20.8184	5.66018	8.16192
  40	1	2	-0.014806	21.9459	5.43743	6.86042
  41	1	3	-0.274996	22.2424	2.80992	7.28865
  42	1	3	-0.274736	20.7679	3.07433	8.84656
  43	1	1	0.070548	20.0642	3.48086	5.43073
  44	1	1	0.506757	19.9458	4.64092	6.46209
  45	1	2	-0.012767	19.0832	3.36828	4.94954
  46	1	2	-0.014806	20.2279	2.53194	5.95479
  47	1	3	-0.274996	19.6622	5.78479	5.80075
  48	1	3	-0.274736	18.8507	4.40549	7.21808
  49	1	1	0.070548	21.4923	2.35347	3.55622
  50	1	1	0.506757	21.125	3.66196	4.30761
  51	1	2	-0.012767	21.9644	1.66673	4.27305
  52	1	2	-0.014806	22.2708	2.58582	2.81618
  53	1	3	-0.274996	20.7036	4.58915	3.42068
  54	1	3	-0.274736	22.2756	4.15856	4.80709
  55	1	1	0.070548	19.558	2.44788	1.79912
  56	1	1	0.506757	20.3426	1.5955	2.83692
  57	1	2	-0.012767	18.8995	3.13818	2.34304
  58	1	2	-0.014806	20.2646	3.07846	1.24235
  59	1	3	-0.274996	20.9016	0.518812	2.24408
  60	1	3	-0.274736	19.4924	1.10618	3.76585
  61	1	1	0.070548	17.7653	2.60922	-0.010557
  62	1	1	0.506757	18.6978	1.65088	0.780409
  63	1	2	-0.012767	17.1655	3.18996	0.703777
  64	1	2	-0.014806	18.3914	3.34414	-0.535272
  65	1	3	-0.274996	17.9664	0.714407	1.42128
  66	1	3	-0.274736	19.5207	1.0152	-0.0819686
  67	1	1	0.070548	15.9755	3.02854	-1.78165
  68	1	1	0.506757	16.8008	1.94613	-1.03554
  69	1	2	-0.012767	15.2261	3.43264	-1.08663
  70	1	2	-0.014806	16.6359	3.87382	-2.02028
  71	1	3	-0.274996	15.9366	1.13074	-0.391942
  72	1	3	-0.274736	17.4854	1.18521	-1.91446
  73	1	1	0.070548	14.2707	1.39956	-2.94753
  74	1	1	0.506757	15.2603	2.59436	-3.09222
  75	1	2	-0.012767	14.8072	0.525912	-2.55774
  76	1	2	-0.014806	13.52	1.65661	-2.18749
  77	1	3	-0.274996	14.5845	3.68548	-3.51484
  78	1	3	-0.274736	16.187	2.34847	-4.04351
  79	1	1	0.070548	12.5087	-0.158774	-3.97189
  80	1	1	0.506757	13.5453	0.962712	-4.25475
  81	1	2	-0.012767	11.8332	0.185168	-3.17606
  82	1	2	-0.014806	13.0364	-1.02735	-3.5546
  83	1	3	-0.274996	12.9255	2.01279	-4.83276
  84	1	3	-0.274736	14.457	0.502177	-5.13692
  85	1	1	0.070548	12.4452	-1.24179	-6.36292
  86	1	1	0.506757	11.6426	-0.632949	-5.17706
  87	1	2	-0.012767	12.934	-0.427502	-6.91356
  88	1	2	-0.014806	13.2547	-1.86465	-5.95795
  89	1	3	-0.274996	10.8755	0.38716	-5.61918
  90	1	3	-0.274736	10.7706	-1.54529	-4.69484
  91	1	1	0.070548	10.4308	-1.34461	-8.02563
  92	1	1	0.506757	11.6349	-2.09022	-7.38522
  93	1	2	-0.012767	9.6663	-1.18014	-7.25531
  94	1	2	-0.014806	10.7642	-0.345702	-8.33923
  95	1	3	-0.274996	11.2248	-3.23448	-6.79442
  96	1	3	-0.274736	12.4969	-2.48101	-8.34828
  97	1	1	0.070548	9.21926	-3.47217	-8.94466
  98	1	1	0.506757	9.742	-2.03736	-9.23569
  99	1	2	-0.012767	10.0504	-4.18369	-9.03461
 100	1	2	-0.014806	8.90494	-3.52098	-7.89331
 101	1	3	-0.274996	10.5831	-2.06529	-10.292
 102	1	3	-0.274736	8.72678	-1.23191	-9.61789
 103	1	1	0.070548	8.17011	-3.90801	-11.3572
 104	1	1	0.506757	8.02287	-3.96667	-9.80693
 105	1	2	-0.012767	7.17541	-3.95496	-11.816
 106	1	2	-0.014806	8.53964	-2.91574	-11.6422
 107	1	3	-0.274996	6.91526	-3.27537	-9.45706
 108	1	3	-0.274736	7.74939	-5.22968	-9.41604
 109	1	1	0.070548	8.71223	-6.48308	-11.901
 110	1	1	0.506757	9.09059	-4.97594	-12.0175
 111	1	2	-0.012767	9.45165	-7.05921	-12.4748
 112	1	2	-0.014806	8.85043	-6.81976	-10.8667
 113	1	3	-0.274996	9.21686	-4.66576	-13.3265
 114	1	3	-0.274736	10.3344	-4.84081	-11.51
 115	1	1	0.070548	7.10403	-8.43805	-12.2171
 116	1	1	0.506757	7.30354	-6.90704	-12.3975
 117	1	2	-0.012767	7.62948	-8.96062	-13.0283
 118	1	2	-0.014806	7.60708	-8.75398	-11.2927
 119	1	3	-0.274996	7.1754	-6.60004	-13.7057
 120	1	3	-0.274736	6.34189	-6.22383	-11.7472
 121	1	1	0.070548	4.80022	-8.71836	-13.4404
 122	1	1	0.506757	5.64025	-8.95106	-12.1547
 123	1	2	-0.012767	5.15807	-9.40609	-14.2192
 124	1	2	-0.014806	4.98242	-7.71113	-13.8311
 125	1	3	-0.274996	5.02594	-8.46105	-11.0554
 126	1	3	-0.274736	5.71561	-10.2855	-11.9462
 127	1	1	0.070548	2.81291	-10.1595	-12.5018
 128	1	1	0.506757	3.26481	-8.88757	-13.2779
 129	1	2	-0.012767	3.1548	-10.0919	-11.4619
 130	1	2	-0.014806	3.31295	-11.0395	-12.929
 131	1	3	-0.274996	2.73535	-8.90382	-14.5211
 132	1	3	-0.274736	2.78767	-7.7728	-12.6808
 133	1	1	0.070548	0.929774	-11.4865	-11.4076
 134	1	1	0.506757	1.28461	-10.4196	-12.4751
 135	1	2	-0.012767	1.12589	-11.057	-10.4148
 136	1	2	-0.014806	1.62347	-12.3335	-11.5033
 137	1	3	-0.274996	0.864756	-10.8317	-13.6902
 138	1	3	-0.274736	0.625901	-9.27818	-12.1813
 139	1	1	0.070548	-1.623	-10.9331	-11.5251
 140	1	1	0.506757	-0.525617	-12.031	-11.4343
 141	1	2	-0.012767	-1.55555	-10.4471	-12.507
 142	1	2	-0.014806	-1.40461	-10.1547	-10.7807
 143	1	3	-0.274996	-0.654537	-12.9172	-12.4443
 144	1	3	-0.274736	-0.675544	-12.7524	-10.3009
 145	1	1	0.070548	-3.39151	-11.9576	-9.92101
 146	1	1	0.506757	-3.09317	-11.3835	-11.3355
 147	1	2	-0.012767	-2.62731	-11.604	-9.21584
 148	1	2	-0.014806	-3.28726	-13.0512	-9.95113
 149	1	3	-0.274996	-3.42292	-12.3014	-12.2703
 150	1	3	-0.274736	-3.85559	-10.3002	-11.6052
 151	1	1	0.070548	-5.00338	-12.4067	-8.01573
 152	1	1	0.506757	-4.76798	-11.5989	-9.31749
 153	1	2	-0.012767	-4.16203	-12.2274	-7.33221
 154	1	2	-0.014806	-4.96313	-13.478	-8.25863
 155	1	3	-0.274996	-5.75788	-11.8407	-10.2028
 156	1	3	-0.274736	-4.76589	-10.2776	-9.03526
 157	1	1	0.070548	-6.48961	-10.6601	-6.76269
 158	1	1	0.506757	-6.32631	-12.1245	-7.25608
 159	1	2	-0.012767	-5.51472	-10.301	-6.40481
 160	1	2	-0.014806	-6.73948	-10.0189	-7.61476
 161	1	3	-0.274996	-6.35362	-12.9697	-6.2017
 162	1	3	-0.274736	-7.37587	-12.4742	-8.02941
 163	1	1	0.070548	-8.93501	-11.076	-5.81307
 164	1	1	0.506757	-7.53312	-10.4331	-5.63189
 165	1	2	-0.012767	-9.44967	-11.0418	-4.84292
 166	1	2	-0.014806	-8.83105	-12.1482	-6.01685
 167	1	3	-0.274996	-7.00951	-10.8796	-4.46775
 168	1	3	-0.274736	-7.68232	-9.10214	-5.44216
 169	1	1	0.070548	-10.9285	-9.51192	-6.22818
 170	1	1	0.506757	-9.85331	-10.4171	-6.88233
 171	1	2	-0.012767	-10.4492	-8.85335	-5.49079
 172	1	2	-0.014806	-11.5991	-10.1655	-5.65565
 173	1	3	-0.274996	-10.4768	-11.416	-7.54752
 174	1	3	-0.274736	-9.14373	-9.73083	-7.80377
 175	1	1	0.070548	-13.2327	-8.40757	-6.74761
 176	1	1	0.506757	-11.7697	-8.6427	-7.20548
 177	1	2	-0.012767	-13.7501	-9.37729	-6.74401
 178	1	2	-0.014806	-13.7416	-7.80731	-7.51462
 179	1	3	-0.274996	-11.8531	-9.2102	-8.4293
 180	1	3	-0.274736	-11.1547	-7.45501	-7.39989
 181	1	1	0.070548	-14.9597	-7.41184	-5.18996
 182	1	1	0.506757	-13.4536	-7.73353	-5.36692
 183	1	2	-0.012767	-15.2306	-6.6182	-5.89971
 184	1	2	-0.014806	-15.5417	-8.29187	-5.49935
 185	1	3	-0.274996	-12.7355	-6.59506	-5.27234
 186	1	3	-0.274736	-13.0246	-8.54575	-4.37745
 187	1	1	0.070548	-14.6906	-5.77977	-3.14931
 188	1	1	0.506757	-15.4362	-6.99691	-3.77337
 189	1	2	-0.012767	-13.71	-6.11393	-2.78458
 190	1	2	-0.014806	-14.4923	-5.04219	-3.9381
 191	1	3	-0.274996	-15.3454	-8.06636	-2.95058
 192	1	3	-0.274736	-16.757	-6.73497	-3.89148
 193	1	1	0.070548	-14.5943	-4.17714	-1.05822
 194	1	1	0.506757	-15.4543	-5.0803	-1.98636
 195	1	2	-0.012767	-15.2574	-3.80968	-0.2671
 196	1	2	-0.014806	-13.8426	-4.79963	-0.553722
 197	1	3	-0.274996	-16.0236	-6.0043	-1.18129
 198	1	3	-0.274736	-16.476	-4.34888	-2.48541
 199	1	1	0.070548	-13.1881	-1.98629	-0.723267
 200	1	1	0.506757	-13.8716	-2.97124	-1.72034
 201	1	2	-0.012767	-12.3144	-2.49516	-0.291655
 202	1	2	-0.014806	-12.7766	-1.1472	-1.30145
 203	1	3	-0.274996	-14.6945	-2.27467	-2.53231
 204	1	3	-0.274736	-12.9033	-3.45203	-2.53094
 205	1	1	0.070548	-15.4161	-0.797774	0.0703931
 206	1	1	0.506757	-14.0368	-1.40876	0.454877
 207	1	2	-0.012767	-15.2413	0.121649	-0.505604
 208	1	2	-0.014806	-15.9337	-1.47968	-0.61208
 209	1	3	-0.274996	-14.1606	-2.35638	1.40747
 210	1	3	-0.274736	-13.2996	-0.430667	1.02646
 211	1	1	0.070548	-15.9478	0.548982	2.29294
 212	1	1	0.506757	-16.4146	-0.492574	1.22923
 213	1	2	-0.012767	-15.6351	1.46218	1.76772
 214	1	2	-0.014806	-15.0513	0.173936	2.80248
 215	1	3	-0.274996	-16.7659	-1.65189	1.8249
 216	1	3	-0.274736	-17.5347	-0.0400711	0.625529
 217	1	1	0.070548	-16.4371	1.96311	4.39853
 218	1	1	0.506757	-17.0068	0.935777	3.3786
 219	1	2	-0.012767	-15.6789	2.57658	3.89275
 220	1	2	-0.014806	-15.8903	1.41993	5.18181
 221	1	3	-0.274996	-18.1221	1.42633	2.79748
 222	1	3	-0.274736	-17.3863	-0.156345	4.07708
 223	1	1	0.070548	-18.6706	2.29076	5.79615
 224	1	1	0.506757	-17.4503	2.93482	5.07307
 225	1	2	-0.012767	-19.3618	1.88919	5.0438
 226	1	2	-0.014806	-18.3228	1.42207	6.37244
 227	1	3	-0.274996	-17.8801	3.81086	4.13689
 228	1	3	-0.274736	-16.7465	3.67333	5.95958
 229	1	1	0.070548	-19.7807	4.65014	6.17323
 230	1	1	0.506757	-19.4718	3.23542	6.75192
 231	1	2	-0.012767	-20.2492	4.53294	5.18719
 232	1	2	-0.014806	-18.8318	5.16898	6.00552
 233	1	3	-0.274996	-20.628	2.60177	7.04858
 234	1	3	-0.274736	-18.7997	3.34165	7.92019
 235	1	1	0.070548	-20.9189	6.95137	6.27816
 236	1	1	0.506757	-20.6531	5.60708	7.0323
 237	1	2	-0.012767	-20.4238	6.93807	5.30011
 238	1	2	-0.014806	-21.988	7.00253	6.02778
 239	1	3	-0.274996	-21.85	5.03855	7.29743
 240	1	3	-0.274736	-20.0585	5.81275	8.22758
 241	1	1	0.070548	-19.0335	8.565	7.24218
 242	1	1	0.506757	-20.5468	8.27047	7.01527
 243	1	2	-0.012767	-18.9699	9.47363	7.8464
 244	1	2	-0.014806	-18.5923	7.78331	7.872
 245	1	3	-0.274996	-21.0909	9.30358	6.3339
 246	1	3	-0.274736	-21.1712	8.31555	8.21312
 247	1	1	0.070548	-16.715	9.24736	6.2695
 248	1	1	0.506757	-18.1494	8.72322	5.96881
 249	1	2	-0.012767	-16.3784	8.82641	7.22605
 250	1	2	-0.014806	-16.0334	8.82596	5.51594
 251	1	3	-0.274996	-18.0186	7.50463	5.40341
 252	1	3	-0.274736	-18.742	9.49444	5.03376
 253	1	1	0.070548	-17.5367	11.6339	7.0531
 254	1	1	0.506757	-16.489	10.7896	6.27759
 255	1	2	-0.012767	-18.5033	11.5587	6.53992
 256	1	2	-0.014806	-17.686	11.1869	8.04407
 257	1	3	-0.274996	-16.4242	11.2153	4.99627
 258	1	3	-0.274736	-15.2667	10.9991	6.81423
 259	1	1	0.070548	-18.4503	14.0091	7.36074
 260	1	1	0.506757	-17.1745	13.1351	7.26097
 261	1	2	-0.012767	-18.9793	13.7453	8.28731
 262	1	2	-0.014806	-19.1397	13.7352	6.55028
 263	1	3	-0.274996	-16.48	13.2314	8.41745
 264	1	3	-0.274736	-16.3808	13.6151	6.27929
 265	1	1	0.070548	-18.0732	16.1117	5.85687
 266	1	1	0.506757	-18.2268	15.5477	7.31075
 267	1	2	-0.012767	-17.003	16.238	5.63912
 268	1	2	-0.014806	-18.4288	15.3736	5.12677
 269	1	3	-0.274996	-17.1435	15.9011	8.0376
 270	1	3	-0.274736	-19.273	16.0974	7.96647
 271	1	1	0.070548	-18.5132	18.0797	4.19188
 272	1	1	0.506757	-18.795	17.4639	5.59457
 273	1	2	-0.012767	-17.5013	17.789	3.87692
 274	1	2	-0.014806	-18.4829	19.1745	4.27997
 275	1	3	-0.274996	-20.1231	17.304	5.77374
 276	1	3	-0.274736	-18.396	18.3689	6.51556
 277	1	1	0.070548	-20.961	18.2252	3.2306
 278	1	1	0.506757	-19.5028	17.721	3.04889
 279	1	2	-0.012767	-20.9845	19.1984	3.73801
 280	1	2	-0.014806	-21.4632	18.3405	2.26135
 281	1	3	-0.274996	-19.0231	18.2656	1.90759
 282	1	3	-0.274736	-19.5027	16.3837	2.8528
 283	1	4	0	18.269	6.23464	16.2237
 284	1	2	0	-21.5641	17.5195	3.81529

Velocities

   1	0.000500562	0.000323912	0.000499351
   2	-1.41742e-05	-0.000349292	-7.46227e-06
   3	0.000683284	0.000884162	0.000318501
   4	0.000766839	0.000110553	0.00134171
   5	-0.0010528	-0.00148079	-0.000877907
   6	0.00141406	-0.000285394	-0.000967724
   7	0.000139301	3.17887e-06	0.000132726
   8	0.000272496	0.000291738	9.20163e-05
   9	-0.000105688	4.86119e-05	0.000164975
  10	0.000165242	-0.000131225	0.00038232
  11	0.000718164	0.000136679	-0.000121243
  12	0.000293037	0.000136299	-4.58037e-06
  13	-0.000307906	-0.000130576	0.000238122
  14	-0.000279575	-3.769e-06	0.00019891
  15	-0.000276484	-0.000147365	0.000118435
  16	-0.000185273	3.80414e-06	0.000288363
  17	-0.000457895	-0.000118128	0.000146894
  18	-0.000269469	0.000232715	0.000109543
  19	-0.000377597	-7.85826e-05	0.000249234
  20	-0.000313515	9.90855e-06	0.000235532
  21	-0.000151588	-0.000239285	0.000256488
  22	-0.000578712	-0.000137428	0.000212705
  23	-0.000316224	5.46806e-05	0.000191051
  24	-0.000357012	-5.22095e-05	0.000159971
  25	2.17136e-05	0.000151931	0.000240653
  26	-0.000218486	0.000147004	0.000121748
  27	0.000214829	2.98827e-05	0.000140131
  28	6.57154e-05	0.000240164	0.000457645
  29	-0.000370894	0.000252367	-4.3446e-05
  30	-9.63941e-05	0.000230707	9.92411e-05
  31	7.3472e-05	3.69641e-05	-2.97702e-05
  32	2.60297e-05	0.000177377	0.000344033
  33	-0.000257567	3.74249e-05	-0.000208288
  34	0.00014693	7.21188e-05	0.000113447
  35	-0.000325292	0.000354741	0.000554659
  36	0.000378065	0.000191873	0.000636362
  37	0.000277356	-0.000152716	-0.000282012
  38	0.000430919	-0.00011704	-0.000352936
  39	0.000368518	-0.000138842	-0.000256352
  40	0.000176263	-0.00015046	-0.000426856
  41	0.000887007	0.000213027	-0.000441787
  42	0.000464916	-0.000530857	-0.000684534
  43	7.88092e-05	-0.000223357	-7.04253e-05
  44	0.000127797	-0.000245523	-5.71887e-05
  45	-6.93798e-05	-0.000441973	0.00027332
  46	0.000506149	-0.000181119	-0.000128802
  47	-0.000122524	-0.000262662	2.28024e-05
  48	0.000298044	-0.000362384	0.000155323
  49	-0.000267392	0.000191873	-0.000646396
  50	-0.000343403	5.60507e-05	-0.000433733
  51	0.000151229	0.000237259	-0.000883319
  52	-0.000599285	0.000452408	-0.000917174
  53	-0.000850335	2.9787e-05	-0.000223573
  54	-0.000294391	0.000281775	-0.000773957
  55	-0.000201711	-0.000153085	-0.000510193
  56	-0.000323708	4.77976e-06	-0.000350796
  57	5.3415e-05	0.000202837	-0.00065515
  58	-9.15794e-05	-0.000538134	-0.000811174
  59	-0.000456831	-0.000198985	-0.000112228
  60	-0.000347198	0.000326369	-0.000208109
  61	-0.000386577	-0.000111947	-9.68375e-05
  62	-0.000568939	-0.000238304	-9.60994e-05
  63	-0.000353705	-8.59879e-05	-8.81484e-05
  64	-0.000280252	-0.000167087	-4.79053e-05
  65	-0.000774468	0.0001807	0.000288899
  66	-0.00090741	-0.000738634	-5.07591e-05
  67	-7.55943e-05	0.000141365	-0.000206015
  68	-0.000403456	5.09008e-06	-9.50017e-05
  69	-8.91451e-05	0.000296676	-0.000311963
  70	0.000103685	8.69678e-06	-0.000177184
  71	-0.000598566	0.000240299	-5.26644e-05
  72	-0.000527563	-0.000190605	-2.38276e-05
  73	0.000377317	-0.000132856	-0.000255251
  74	5.01654e-05	0.000120606	-0.000231902
  75	0.000592307	-3.64076e-05	-0.000318447
  76	0.000328244	-0.000352447	-0.000237004
  77	-0.000207789	3.15144e-07	-0.000125903
  78	0.000111514	0.000405814	-0.00025037
  79	0.000517197	-0.000226938	-9.48618e-05
  80	0.000521266	-0.000277393	-0.000242028
  81	0.000670466	-0.000260049	4.64478e-05
  82	0.000544706	-0.000297889	-0.000267225
  83	0.000603311	-0.000355289	-0.000460523
  84	0.000612457	-0.000427151	-7.97086e-05
  85	0.000147947	0.000151513	-0.000160871
  86	0.000305863	-5.8564e-05	3.19309e-05
  87	-3.26244e-05	0.000258348	-0.000172727
  88	0.000292637	0.000193046	-0.000376317
  89	0.000202375	-6.00448e-06	0.000324134
  90	0.000414555	-0.000141896	7.00196e-05
  91	-0.000145348	0.000148689	0.000267972
  92	2.75933e-05	0.00016409	-4.12743e-05
  93	-5.68131e-05	-7.00468e-05	0.000409814
  94	-0.00031217	0.000246964	0.000390895
  95	0.000206972	9.27406e-05	-4.63857e-05
  96	-0.000112141	0.00029162	-0.000214309
  97	-0.000220473	0.000268242	0.00024274
  98	-0.000210971	0.000261263	0.000256887
  99	-0.000192436	0.000283281	0.000382442
 100	-0.000352573	0.000309144	0.000205437
 101	-0.000257798	0.000301118	0.00022162
 102	-0.000216244	0.000298673	0.000353467
 103	0.000174622	0.000114281	0.000107897
 104	-7.60345e-05	0.000207932	8.92419e-05
 105	0.000256647	-1.93663e-05	-5.09614e-05
 106	0.000104716	0.000137975	0.000106136
 107	-0.000149412	0.000208431	-0.000141387
 108	-0.000107413	0.000225079	0.000119817
 109	0.000504902	0.000100133	0.000367434
 110	0.00037409	0.000133253	0.000325152
 111	0.000686103	0.000139128	0.000590431
 112	0.000303003	0.000206837	0.000424183
 113	0.000545462	8.36765e-05	0.000318167
 114	0.000314283	0.000326506	0.0004861
 115	0.00061984	-6.21675e-05	3.53336e-05
 116	0.000628386	-4.82061e-05	7.54243e-05
 117	0.000633658	-3.25393e-05	2.32462e-05
 118	0.000626171	-6.52312e-05	3.39927e-05
 119	0.000905437	-6.86681e-05	3.97045e-05
 120	0.000469524	-5.49219e-05	-0.000144902
 121	0.000489421	6.51416e-05	0.000128757
 122	0.000588659	-8.20936e-05	4.09746e-05
 123	0.000223709	-6.04014e-05	0.000109971
 124	0.00069221	-4.41943e-06	4.06446e-05
 125	0.000701372	-0.000258238	0.000169702
 126	0.00058829	-9.3296e-05	-0.000159215
 127	0.000244808	0.000176534	-0.000188074
 128	0.000454275	0.000393916	0.000276578
 129	0.000151904	-0.000142877	-0.000139739
 130	0.000262548	0.00028837	-0.000401564
 131	0.000275816	0.00109361	0.000339317
 132	0.000779079	0.0002253	0.000854915
 133	1.65609e-06	-5.18998e-05	-0.000737499
 134	0.000202214	0.000185179	-0.000476534
 135	-0.000210301	-0.000246331	-0.000614457
 136	6.74355e-05	4.67327e-06	-0.000763012
 137	0.000359324	0.000480211	-0.000593889
 138	0.000121534	0.000115487	-0.000386603
 139	-7.2763e-05	-0.000240288	-0.000354162
 140	2.25435e-05	-0.000168956	-0.00106742
 141	-0.000339047	0.000127103	-0.000190041
 142	0.00012771	-0.000493469	-0.000176695
 143	0.000114125	0.000519545	-0.00168295
 144	-3.2586e-05	-0.000921273	-0.00154852
 145	0.000213205	0.000127324	0.000342364
 146	-9.20951e-06	-0.000436672	4.702e-05
 147	0.000252221	0.000488743	0.00011411
 148	0.000417854	0.000135562	0.000742447
 149	-8.34917e-05	-0.000921702	0.000539845
 150	-0.000208322	-0.000674964	-0.000320406
 151	0.000131194	0.000421658	0.000461657
 152	3.68119e-05	-3.08127e-05	0.00017175
 153	4.39281e-05	0.000865442	0.000449719
 154	0.000451392	0.000346553	0.000833801
 155	0.000212009	-0.000755196	0.000175453
 156	-0.000551538	7.81608e-05	-0.000326298
 157	-0.000279953	0.000168223	0.00057481
 158	-3.98193e-05	0.000278192	0.000299409
 159	-0.000346676	0.000223673	0.000702563
 160	-0.000265629	0.000315101	0.0006796
 161	-0.000156342	9.0048e-05	0.000138599
 162	5.90817e-05	0.000370658	0.000132497
 163	-0.000431278	-0.00029941	0.000474279
 164	-0.000444225	-0.00022428	0.000586563
 165	-0.00047826	-0.000391491	0.000463386
 166	-0.000293324	-0.000284046	0.000414334
 167	-0.00044931	-0.000496888	0.000486879
 168	-0.00051697	-0.000309287	0.000923879
 169	-0.00103168	-0.000748571	0.000287295
 170	-0.000541395	-0.00037605	0.000480681
 171	-0.00146858	-0.00108168	0.000871718
 172	-0.00141124	-0.000980376	-0.000403511
 173	-0.000141682	-0.000462328	0.000235745
 174	-0.000540228	-9.18456e-05	0.000705852
 175	-0.000453436	0.0005488	-0.000229241
 176	-0.000431367	-0.000230862	0.000167022
 177	-0.000956591	0.000813143	-0.000284804
 178	-1.32508e-05	0.000731123	-0.00038761
 179	-0.000339543	-0.000119602	0.000103177
 180	0.000230188	-0.00052805	0.000484732
 181	-0.000181529	0.00121121	-3.40957e-05
 182	-0.000315734	0.000738083	-0.000286548
 183	-6.25053e-05	0.00146489	0.000202213
 184	-0.000507127	0.00147883	-0.0001857
 185	-7.72793e-05	0.000589873	-0.000356909
 186	-0.000378053	0.00064537	-0.00035451
 187	2.26745e-05	0.000877168	0.000421309
 188	0.000167989	0.000902128	0.000199292
 189	0.000206564	0.0010215	6.53671e-05
 190	-0.000361857	0.00123699	0.000649486
 191	0.00057989	0.000773831	-3.31497e-05
 192	0.000101458	0.000706718	0.000649704
 193	-0.000328278	0.00022287	0.000998602
 194	-3.31657e-05	9.21767e-05	0.000910308
 195	-0.000706968	0.000157269	0.000712526
 196	-0.000369909	0.000428404	0.00132226
 197	0.000619298	-0.000430172	0.000767774
 198	-0.000532212	-0.000197006	0.00150073
 199	-0.00089766	0.000888235	0.000377812
 200	-0.000446535	0.000189229	0.000789878
 201	-3.96684e-05	0.00201554	-5.01702e-05
 202	-0.00232108	0.00142682	0.000171793
 203	-0.000507367	-0.000422336	0.000313685
 204	-0.00012542	0.000140166	0.00123416
 205	-0.00102581	-0.000424066	0.000334975
 206	-0.00104404	-0.000123194	0.000605086
 207	-0.0010578	-0.00028771	0.000543273
 208	-0.000917044	-0.000365934	0.000199911
 209	-0.00098309	-0.000679628	5.78126e-05
 210	-0.0013582	-0.000262932	0.00125301
 211	-7.38286e-05	-0.00114329	0.000280126
 212	-0.000931615	-0.000663822	0.000294578
 213	0.00149496	-0.0016467	0.000328673
 214	-0.000943912	-0.00230701	0.00096616
 215	-0.00108457	-0.000727543	0.000124199
 216	-0.000902234	-0.000344474	0.000479004
 217	0.000916207	-0.000318065	-0.000393833
 218	-8.58064e-05	0.000420112	-0.00052466
 219	0.00180627	-0.00110624	1.84834e-06
 220	-0.000132427	-0.000958229	-8.64845e-05
 221	0.00113871	0.00210387	-0.00144173
 222	-0.00223669	0.000986422	-0.000786189
 223	0.00106873	0.000567542	-0.00158284
 224	0.00143203	0.000485391	-0.000962182
 225	0.00111421	0.00106804	-0.00188683
 226	0.000699377	0.000263163	-0.00183467
 227	0.00213779	0.000615952	-0.00117089
 228	0.00149661	0.000274293	-0.000851921
 229	-0.000185835	-0.000346029	-0.00181521
 230	0.00113755	0.00018417	-0.0014141
 231	-0.00169171	-0.00101709	-0.00103148
 232	-0.000658109	-6.36761e-05	-0.00363028
 233	0.0017417	-0.000508673	-0.000482662
 234	0.00191628	0.000960147	-0.00195125
 235	2.5092e-05	-0.00046462	-0.000410356
 236	0.000890122	-0.000421858	-0.000707766
 237	-0.000208587	3.23704e-06	-0.000546748
 238	-9.77963e-05	-0.000844528	-3.57072e-05
 239	0.00128262	-0.000434141	0.000969404
 240	0.00243771	-0.00044374	-0.00148331
 241	-0.000180092	-0.000702608	-7.16219e-05
 242	-0.00014561	-0.000631872	-0.000105884
 243	-2.28117e-06	-0.00094076	0.000371972
 244	-3.31983e-05	-0.0010186	-0.000584538
 245	-0.000314061	-0.000436686	0.000317233
 246	1.2304e-05	-0.00122097	5.30453e-06
 247	-0.000337309	-0.000429839	0.00253575
 248	-2.41733e-05	9.35776e-05	0.000285309
 249	-0.00323694	0.0020036	0.00462703
 250	0.00154711	-0.00260852	0.00553385
 251	5.42138e-07	0.000796804	-0.00123435
 252	0.000291409	0.00132118	0.00106632
 253	0.00038012	0.000244597	-0.000553322
 254	-9.09631e-05	-0.000589289	-0.000367942
 255	0.000166941	0.000161051	-0.000125262
 256	0.000383435	0.00100119	-0.000140469
 257	-0.00144771	-0.00271819	-0.00112931
 258	0.000465248	0.000354694	-0.00202723
 259	0.000408318	-0.000252016	0.000643138
 260	0.000667537	0.000364416	-0.00201478
 261	0.00225452	-0.000715291	0.00143745
 262	-0.000800113	-0.000502799	0.00173787
 263	0.00363058	0.00101846	-0.00382233
 264	-0.00201289	-8.05875e-05	-0.00438161
 265	-0.00207237	-0.00013167	0.000214436
 266	-0.00085466	-5.48227e-05	0.000254209
 267	-0.00204028	-0.00152247	-0.000999669
 268	-0.00379988	0.000294901	0.000787891
 269	-0.00086318	0.000787205	-0.000105662
 270	-0.00115033	-0.000812395	0.000343108
 271	-0.000536604	0.000622209	0.000988559
 272	-0.000471413	0.000843071	0.00105324
 273	5.92919e-06	0.00201675	0.00176245
 274	-0.0023315	0.00069492	0.00049807
 275	-0.000752995	0.00290595	0.00186146
 276	0.00145891	0.000147809	0.000970574
 277	0.00120349	0.000175116	-0.0013072
 278	0.000665765	-0.00148116	0.00072969
 279	0.00162155	-5.81699e-05	-0.000562529
 280	0.00253767	0.000941129	-0.00187987
 281	0.00224375	-0.00452883	-0.000244682
 282	-0.000581151	-0.00172426	0.00404394
 283	-0.000303722	-3.39581e-05	0.00114687
 284	-8.60245e-05	0.000671876	-0.00206042

Bonds

   1	4	1	2
   2	1	1	3
   3	1	1	4
   4	2	2	5
   5	2	2	6
   6	4	7	8
   7	1	7	9
   8	1	7	10
   9	2	8	11
  10	2	8	12
  11	4	1	8
  12	4	13	14
  13	1	13	15
  14	1	13	16
  15	2	14	17
  16	2	14	18
  17	4	7	14
  18	4	19	20
  19	1	19	21
  20	1	19	22
  21	2	20	23
  22	2	20	24
  23	4	13	20
  24	4	25	26
  25	1	25	27
  26	1	25	28
  27	2	26	29
  28	2	26	30
  29	4	19	26
  30	4	31	32
  31	1	31	33
  32	1	31	34
  33	2	32	35
  34	2	32	36
  35	4	25	32
  36	4	37	38
  37	1	37	39
  38	1	37	40
  39	2	38	41
  40	2	38	42
  41	4	31	38
  42	4	43	44
  43	1	43	45
  44	1	43	46
  45	2	44	47
  46	2	44	48
  47	4	37	44
  48	4	49	50
  49	1	49	51
  50	1	49	52
  51	2	50	53
  52	2	50	54
  53	4	43	50
  54	4	55	56
  55	1	55	57
  56	1	55	58
  57	2	56	59
  58	2	56	60
  59	4	49	56
  60	4	61	62
  61	1	61	63
  62	1	61	64
  63	2	62	65
  64	2	62	66
  65	4	55	62
  66	4	67	68
  67	1	67	69
  68	1	67	70
  69	2	68	71
  70	2	68	72
  71	4	61	68
  72	4	73	74
  73	1	73	75
  74	1	73	76
  75	2	74	77
  76	2	74	78
  77	4	67	74
  78	4	79	80
  79	1	79	81
  80	1	79	82
  81	2	80	83
  82	2	80	84
  83	4	73	80
  84	4	85	86
  85	1	85	87
  86	1	85	88
  87	2	86	89
  88	2	86	90
  89	4	79	86
  90	4	91	92
  91	1	91	93
  92	1	91	94
  93	2	92	95
  94	2	92	96
  95	4	85	92
  96	4	97	98
  97	1	97	99
  98	1	97	100
  99	2	98	101
 100	2	98	102
 101	4	91	98
 102	4	103	104
 103	1	103	105
 104	1	103	106
 105	2	104	107
 106	2	104	108
 107	4	97	104
 108	4	109	110
 109	1	109	111
 110	1	109	112
 111	2	110	113
 112	2	110	114
 113	4	103	110
 114	4	115	116
 115	1	115	117
 116	1	115	118
 117	2	116	119
 118	2	116	120
 119	4	109	116
 120	4	121	122
 121	1	121	123
 122	1	121	124
 123	2	122	125
 124	2	122	126
 125	4	115	122
 126	4	127	128
 127	1	127	129
 128	1	127	130
 129	2	128	131
 130	2	128	132
 131	4	121	128
 132	4	133	134
 133	1	133	135
 134	1	133	136
 135	2	134	137
 136	2	134	138
 137	4	127	134
 138	4	139	140
 139	1	139	141
 140	1	139	142
 141	2	140	143
 142	2	140	144
 143	4	133	140
 144	4	145	146
 145	1	145	147
 146	1	145	148
 147	2	146	149
 148	2	146	150
 149	4	139	146
 150	4	151	152
 151	1	151	153
 152	1	151	154
 153	2	152	155
 154	2	152	156
 155	4	145	152
 156	4	157	158
 157	1	157	159
 158	1	157	160
 159	2	158	161
 160	2	158	162
 161	4	151	158
 162	4	163	164
 163	1	163	165
 164	1	163	166
 165	2	164	167
 166	2	164	168
 167	4	157	164
 168	4	169	170
 169	1	169	171
 170	1	169	172
 171	2	170	173
 172	2	170	174
 173	4	163	170
 174	4	175	176
 175	1	175	177
 176	1	175	178
 177	2	176	179
 178	2	176	180
 179	4	169	176
 180	4	181	182
 181	1	181	183
 182	1	181	184
 183	2	182	185
 184	2	182	186
 185	4	175	182
 186	4	187	188
 187	1	187	189
 188	1	187	190
 189	2	188	191
 190	2	188	192
 191	4	181	188
 192	4	193	194
 193	1	193	195
 194	1	193	196
 195	2	194	197
 196	2	194	198
 197	4	187	194
 198	4	199	200
 199	1	199	201
 200	1	199	202
 201	2	200	203
 202	2	200	204
 203	4	193	200
 204	4	205	206
 205	1	205	207
 206	1	205	208
 207	2	206	209
 208	2	206	210
 209	4	199	206
 210	4	211	212
 211	1	211	213
 212	1	211	214
 213	2	212	215
 214	2	212	216
 215	4	205	212
 216	4	217	218
 217	1	217	219
 218	1	217	220
 219	2	218	221
 220	2	218	222
 221	4	211	218
 222	4	223	224
 223	1	223	225
 224	1	223	226
 225	2	224	227
 226	2	224	228
 227	4	217	224
 228	4	229	230
 229	1	229	231
 230	1	229	232
 231	2	230	233
 232	2	230	234
 233	4	223	230
 234	4	235	236
 235	1	235	237
 236	1	235	238
 237	2	236	239
 238	2	236	240
 239	4	229	236
 240	4	241	242
 241	1	241	243
 242	1	241	244
 243	2	242	245
 244	2	242	246
 245	4	235	242
 246	4	247	248
 247	1	247	249
 248	1	247	250
 249	2	248	251
 250	2	248	252
 251	4	241	248
 252	4	253	254
 253	1	253	255
 254	1	253	256
 255	2	254	257
 256	2	254	258
 257	4	247	254
 258	4	259	260
 259	1	259	261
 260	1	259	262
 261	2	260	263
 262	2	260	264
 263	4	253	260
 264	4	265	266
 265	1	265	267
 266	1	265	268
 267	2	266	269
 268	2	266	270
 269	4	259	266
 270	4	271	272
 271	1	271	273
 272	1	271	274
 273	2	272	275
 274	2	272	276
 275	4	265	272
 276	4	277	278
 277	1	277	279
 278	1	277	280
 279	2	278	281
 280	2	278	282
 281	4	271	278
 282	3	2	283
 283	1	277	284

Angles

   1	2	2	1	3
   2	2	2	1	4
   3	4	3	1	4
   4	3	1	2	5
   5	3	1	2	6
   6	6	5	2	6
   7	2	8	7	9
   8	2	8	7	10
   9	4	9	7	10
  10	3	7	8	11
  11	3	7	8	12
  12	6	11	8	12
  13	7	2	1	8
  14	2	3	1	8
  15	2	4	1	8
  16	7	1	8	7
  17	3	1	8	11
  18	3	1	8	12
  19	2	14	13	15
  20	2	14	13	16
  21	4	15	13	16
  22	3	13	14	17
  23	3	13	14	18
  24	6	17	14	18
  25	7	8	7	14
  26	2	9	7	14
  27	2	10	7	14
  28	7	7	14	13
  29	3	7	14	17
  30	3	7	14	18
  31	2	20	19	21
  32	2	20	19	22
  33	4	21	19	22
  34	3	19	20	23
  35	3	19	20	24
  36	6	23	20	24
  37	7	14	13	20
  38	2	15	13	20
  39	2	16	13	20
  40	7	13	20	19
  41	3	13	20	23
  42	3	13	20	24
  43	2	26	25	27