pySIMM System Object

302 atoms
301 bonds
600 angles
891 dihedrals
0 impropers

4 atom types
4 bond types
7 angle types
4 dihedral types

-109.224802 109.224802 xlo xhi
-109.224802 109.224802 ylo yhi
-109.224802 109.224802 zlo zhi

Masses

   1	12.01	# c3
   2	1.008	# hc
   3	19.0	# f
   4	1.008	# h2

Pair Coeffs

   1	0.1094	3.3996695084235347	# c3
   2	0.0157	2.649532787749369	# hc
   3	0.061	3.1181455134911875	# f
   4	0.0157	2.2931733004932333	# h2

Bond Coeffs

   1	330.6	1.0969	# c3,hc
   2	356.9	1.3497	# c3,f
   3	331.7	1.0961	# c3,h2
   4	300.9	1.5375	# c3,c3

Angle Coeffs

   1	51.15	108.79	# f,c3,h2
   2	46.34	109.8	# c3,c3,hc
   3	66.11	109.24	# c3,c3,f
   4	39.4	107.58	# hc,c3,hc
   5	46.25	110.22	# c3,c3,h2
   6	70.89	107.36	# f,c3,f
   7	62.86	111.51	# c3,c3,c3

Dihedral Coeffs

   1	2	0.0	3	0	0.19	1	0	# hc,c3,c3,f
   2	1	0.15555555555555556	3	0	# X,c3,c3,X
   3	1	0.16	3	0	# hc,c3,c3,c3
   4	3	0.18	3	0	0.25	2	180	0.2	1	180	# c3,c3,c3,c3

Atoms

   1	1	1	0.070548	-13.2713	21.4227	2.92965
   2	1	1	0.506757	-13.1468	20.4459	4.11754
   3	1	2	-0.012767	-12.9805	22.4322	3.24988
   4	1	2	-0.014806	-12.5573	21.1225	2.15363
   5	1	3	-0.274996	-12.1255	20.8329	4.91236
   6	1	3	-0.274736	-12.8556	19.2013	3.67991
   7	1	1	0.070548	-14.9417	22.5688	1.28958
   8	1	1	0.506757	-14.7101	21.4681	2.36272
   9	1	2	-0.012767	-14.5111	23.505	1.67081
  10	1	2	-0.014806	-16.0161	22.7743	1.20524
  11	1	3	-0.274996	-15.5608	21.7231	3.3826
  12	1	3	-0.274736	-15.0555	20.2517	1.89357
  13	1	1	0.070548	-14.9799	21.1696	-0.980225
  14	1	1	0.506757	-14.3558	22.31	-0.127457
  15	1	2	-0.012767	-14.6872	20.2013	-0.557055
  16	1	2	-0.014806	-14.5149	21.2036	-1.97521
  17	1	3	-0.274996	-14.4263	23.4655	-0.825225
  18	1	3	-0.274736	-13.0309	22.0724	-0.0270047
  19	1	1	0.070548	-17.0578	20.3153	-2.31136
  20	1	1	0.506757	-16.5223	21.2117	-1.1626
  21	1	2	-0.012767	-18.151	20.3959	-2.32676
  22	1	2	-0.014806	-16.7253	20.7386	-3.26933
  23	1	3	-0.274996	-16.9229	22.4741	-1.42812
  24	1	3	-0.274736	-17.1449	20.876	-0.0126783
  25	1	1	0.070548	-17.4195	17.9353	-3.27221
  26	1	1	0.506757	-16.6342	18.8196	-2.26621
  27	1	2	-0.012767	-16.7777	17.1171	-3.61988
  28	1	2	-0.014806	-17.6105	18.5349	-4.17303
  29	1	3	-0.274996	-15.328	18.7347	-2.60182
  30	1	3	-0.274736	-16.7235	18.3176	-1.01721
  31	1	1	0.070548	-18.7348	16.1629	-1.77489
  32	1	1	0.506757	-18.7751	17.3613	-2.76719
  33	1	2	-0.012767	-18.4212	16.507	-0.781234
  34	1	2	-0.014806	-19.7661	15.8099	-1.63625
  35	1	3	-0.274996	-19.4958	18.3468	-2.19077
  36	1	3	-0.274736	-19.5056	17.0032	-3.84679
  37	1	1	0.070548	-18.2784	13.6732	-1.42947
  38	1	1	0.506757	-17.8523	14.9562	-2.19027
  39	1	2	-0.012767	-18.3398	13.9148	-0.359129
  40	1	2	-0.014806	-19.306	13.414	-1.71355
  41	1	3	-0.274996	-17.9367	14.7514	-3.52209
  42	1	3	-0.274736	-16.5593	15.2419	-1.92918
  43	1	1	0.070548	-16.9141	11.9993	-3.01706
  44	1	1	0.506757	-17.3555	12.4289	-1.58757
  45	1	2	-0.012767	-16.1571	11.2146	-2.8942
  46	1	2	-0.014806	-16.385	12.8246	-3.50844
  47	1	3	-0.274996	-17.9662	11.3847	-0.985213
  48	1	3	-0.274736	-16.2374	12.6369	-0.857278
  49	1	1	0.070548	-17.6524	11.4419	-5.45629
  50	1	1	0.506757	-18.0341	11.4518	-3.95003
  51	1	2	-0.012767	-17.2509	12.4324	-5.71219
  52	1	2	-0.014806	-18.5697	11.3421	-6.0531
  53	1	3	-0.274996	-18.3997	10.2125	-3.56033
  54	1	3	-0.274736	-19.1535	12.1971	-3.83793
  55	1	1	0.070548	-17.2636	8.93105	-6.05193
  56	1	1	0.506757	-16.6456	10.357	-5.93115
  57	1	2	-0.012767	-17.4418	8.52916	-5.04736
  58	1	2	-0.014806	-18.252	9.00395	-6.52586
  59	1	3	-0.274996	-16.1791	10.7723	-7.12829
  60	1	3	-0.274736	-15.5755	10.3343	-5.1095
  61	1	1	0.070548	-17.0753	6.4883	-6.79591
  62	1	1	0.506757	-16.412	7.89316	-6.83277
  63	1	2	-0.012767	-17.3481	6.24279	-5.76025
  64	1	2	-0.014806	-18.0247	6.53885	-7.34645
  65	1	3	-0.274996	-15.1663	7.83794	-6.31474
  66	1	3	-0.274736	-16.3067	8.28157	-8.12243
  67	1	1	0.070548	-17.044	4.02667	-7.52524
  68	1	1	0.506757	-16.2123	5.32764	-7.36631
  69	1	2	-0.012767	-17.2717	3.63337	-6.52484
  70	1	2	-0.014806	-18.0168	4.27652	-7.97134
  71	1	3	-0.274996	-15.1977	5.07682	-6.50883
  72	1	3	-0.274736	-15.6562	5.66751	-8.54821
  73	1	1	0.070548	-14.9269	2.55414	-7.99567
  74	1	1	0.506757	-16.3941	2.89922	-8.37763
  75	1	2	-0.012767	-14.2804	3.39541	-8.2772
  76	1	2	-0.014806	-14.8529	2.46702	-6.90302
  77	1	3	-0.274996	-17.1756	1.80554	-8.24128
  78	1	3	-0.274736	-16.4685	3.24789	-9.68165
  79	1	1	0.070548	-12.8032	1.23061	-8.46505
  80	1	1	0.506757	-14.3453	1.26253	-8.63194
  81	1	2	-0.012767	-12.5585	1.45095	-7.41652
  82	1	2	-0.014806	-12.3741	2.05795	-9.0474
  83	1	3	-0.274996	-14.8926	0.177406	-8.04299
  84	1	3	-0.274736	-14.6523	1.20015	-9.94491
  85	1	1	0.070548	-12.3648	-0.57032	-10.3194
  86	1	1	0.506757	-12.0809	-0.0838448	-8.87083
  87	1	2	-0.012767	-13.3339	-1.08807	-10.3342
  88	1	2	-0.014806	-12.4778	0.305367	-10.9728
  89	1	3	-0.274996	-12.3953	-1.06379	-7.99514
  90	1	3	-0.274736	-10.7578	0.133057	-8.69873
  91	1	1	0.070548	-10.9405	-2.75837	-10.1054
  92	1	1	0.506757	-11.2943	-1.50073	-10.9526
  93	1	2	-0.012767	-10.5204	-2.44286	-9.14247
  94	1	2	-0.014806	-11.8766	-3.28095	-9.86435
  95	1	3	-0.274996	-10.1917	-0.768056	-11.2198
  96	1	3	-0.274736	-11.7754	-1.87715	-12.1567
  97	1	1	0.070548	-8.47523	-3.2781	-10.8034
  98	1	1	0.506757	-9.9484	-3.77781	-10.7393
  99	1	2	-0.012767	-8.4085	-2.31895	-11.3202
 100	1	2	-0.014806	-8.1562	-3.0572	-9.77532
 101	1	3	-0.274996	-10.387	-4.17596	-11.9502
 102	1	3	-0.274736	-9.99529	-4.88529	-9.96711
 103	1	1	0.070548	-7.56899	-4.61604	-12.9406
 104	1	1	0.506757	-7.4294	-4.24474	-11.4334
 105	1	2	-0.012767	-6.76253	-5.31185	-13.2031
 106	1	2	-0.014806	-8.48173	-5.20722	-13.082
 107	1	3	-0.274996	-7.38888	-5.39179	-10.7218
 108	1	3	-0.274736	-6.21435	-3.68814	-11.2381
 109	1	1	0.070548	-6.29946	-2.55109	-14.062
 110	1	1	0.506757	-7.57085	-3.44491	-13.9667
 111	1	2	-0.012767	-6.51215	-1.7411	-14.7737
 112	1	2	-0.014806	-6.13392	-2.04298	-13.1038
 113	1	3	-0.274996	-7.85117	-3.95472	-15.1856
 114	1	3	-0.274736	-8.61384	-2.62726	-13.7126
 115	1	1	0.070548	-3.86709	-2.18872	-14.7409
 116	1	1	0.506757	-4.98245	-3.24265	-14.5116
 117	1	2	-0.012767	-4.11198	-1.62068	-15.6494
 118	1	2	-0.014806	-3.89968	-1.45672	-13.9218
 119	1	3	-0.274996	-5.18645	-3.91344	-15.6643
 120	1	3	-0.274736	-4.58916	-4.1482	-13.5945
 121	1	1	0.070548	-2.17332	-3.76852	-15.9817
 122	1	1	0.506757	-2.40885	-2.71385	-14.8637
 123	1	2	-0.012767	-2.44368	-3.31704	-16.9462
 124	1	2	-0.014806	-2.86094	-4.60984	-15.8381
 125	1	3	-0.274996	-1.97883	-3.16894	-13.6679
 126	1	3	-0.274736	-1.65358	-1.62281	-15.1235
 127	1	1	0.070548	0.409142	-3.32688	-16.1685
 128	1	1	0.506757	-0.741614	-4.36844	-16.0873
 129	1	2	-0.012767	0.553274	-2.88424	-15.1737
 130	1	2	-0.014806	0.102111	-2.50472	-16.8293
 131	1	3	-0.274996	-0.735381	-5.15337	-17.187
 132	1	3	-0.274736	-0.533509	-5.19596	-15.0397
 133	1	1	0.070548	2.88776	-2.80382	-16.4129
 134	1	1	0.506757	1.78046	-3.85937	-16.6641
 135	1	2	-0.012767	3.1207	-2.79585	-15.3387
 136	1	2	-0.014806	2.48302	-1.80555	-16.631
 137	1	3	-0.274996	1.70897	-4.14925	-17.9813
 138	1	3	-0.274736	2.11223	-4.99714	-16.0158
 139	1	1	0.070548	4.86864	-4.37964	-17.1001
 140	1	1	0.506757	4.2098	-2.97394	-17.2093
 141	1	2	-0.012767	4.19382	-5.11272	-17.5604
 142	1	2	-0.014806	4.92641	-4.67729	-16.0462
 143	1	3	-0.274996	4.00422	-2.6435	-18.5024
 144	1	3	-0.274736	5.04463	-2.02321	-16.7367
 145	1	1	0.070548	7.42799	-3.60471	-17.3787
 146	1	1	0.506757	6.26003	-4.55281	-17.7829
 147	1	2	-0.012767	7.19743	-2.57772	-17.6868
 148	1	2	-0.014806	8.30749	-3.87572	-17.9795
 149	1	3	-0.274996	6.10107	-4.44683	-19.1209
 150	1	3	-0.274736	6.65658	-5.82977	-17.589
 151	1	1	0.070548	8.89599	-2.50983	-15.6001
 152	1	1	0.506757	7.85285	-3.62193	-15.8851
 153	1	2	-0.012767	8.42039	-1.53578	-15.7819
 154	1	2	-0.014806	9.70437	-2.58493	-16.3408
 155	1	3	-0.274996	8.36129	-4.82915	-15.5649
 156	1	3	-0.274736	6.7788	-3.43373	-15.0928
 157	1	1	0.070548	8.49194	-2.42213	-13.0164
 158	1	1	0.506757	9.52522	-2.49344	-14.1782
 159	1	2	-0.012767	7.68259	-1.74297	-13.3179
 160	1	2	-0.014806	8.02035	-3.40444	-12.8896
 161	1	3	-0.274996	10.3551	-1.4287	-14.1404
 162	1	3	-0.274736	10.3308	-3.56542	-14.0252
 163	1	1	0.070548	10.1552	-2.76661	-10.9683
 164	1	1	0.506757	9.0195	-1.93944	-11.6373
 165	1	2	-0.012767	10.4868	-2.21614	-10.0772
 166	1	2	-0.014806	11.0297	-2.79092	-11.6313
 167	1	3	-0.274996	9.4436	-0.659974	-11.7421
 168	1	3	-0.274736	7.96135	-1.84709	-10.8018
 169	1	1	0.070548	10.9614	-4.83913	-9.70755
 170	1	1	0.506757	9.80288	-4.2179	-10.5375
 171	1	2	-0.012767	11.2737	-4.10755	-8.95199
 172	1	2	-0.014806	11.8288	-4.98446	-10.3664
 173	1	3	-0.274996	9.58458	-4.96682	-11.6386
 174	1	3	-0.274736	8.65846	-4.23079	-9.82356
 175	1	1	0.070548	11.8612	-6.88981	-8.35505
 176	1	1	0.506757	10.6355	-6.18286	-8.9955
 177	1	2	-0.012767	12.5409	-7.21508	-9.15485
 178	1	2	-0.014806	11.5086	-7.81424	-7.87659
 179	1	3	-0.274996	10.1059	-7.05572	-9.88021
 180	1	3	-0.274736	9.69311	-6.00542	-8.04319
 181	1	1	0.070548	13.639	-6.99962	-6.53164
 182	1	1	0.506757	12.676	-6.06996	-7.31647
 183	1	2	-0.012767	13.0524	-7.80685	-6.07208
 184	1	2	-0.014806	14.3009	-7.49462	-7.25616
 185	1	3	-0.274996	11.853	-5.42812	-6.46147
 186	1	3	-0.274736	13.3829	-5.12019	-7.96604
 187	1	1	0.070548	13.7205	-5.76747	-4.21943
 188	1	1	0.506757	14.5169	-6.34698	-5.42698
 189	1	2	-0.012767	13.3685	-4.76056	-4.48103
 190	1	2	-0.014806	12.8217	-6.37891	-4.06476
 191	1	3	-0.274996	15.287	-5.37646	-5.96739
 192	1	3	-0.274736	15.3716	-7.31033	-5.01697
 193	1	1	0.070548	13.9039	-4.72628	-1.80898
 194	1	1	0.506757	14.5053	-5.68441	-2.87742
 195	1	2	-0.012767	14.5525	-4.76097	-0.925647
 196	1	2	-0.014806	13.9776	-3.69616	-2.18339
 197	1	3	-0.274996	15.766	-5.25252	-3.10463
 198	1	3	-0.274736	14.6216	-6.92045	-2.34246
 199	1	1	0.070548	11.9286	-4.02762	-0.262844
 200	1	1	0.506757	12.4323	-4.98809	-1.37973
 201	1	2	-0.012767	12.3291	-3.02613	-0.473885
 202	1	2	-0.014806	10.8383	-3.9211	-0.348139
 203	1	3	-0.274996	12.2467	-6.27514	-1.02524
 204	1	3	-0.274736	11.6275	-4.78692	-2.44553
 205	1	1	0.070548	11.3497	-5.49905	1.8168
 206	1	1	0.506757	12.2622	-4.39255	1.21243
 207	1	2	-0.012767	10.3017	-5.25108	1.60062
 208	1	2	-0.014806	11.54	-6.44556	1.29757
 209	1	3	-0.274996	13.5635	-4.72833	1.32181
 210	1	3	-0.274736	12.1142	-3.25671	1.92858
 211	1	1	0.070548	10.9536	-4.61255	4.25361
 212	1	1	0.506757	11.4893	-5.76134	3.34539
 213	1	2	-0.012767	10.085	-4.14175	3.77324
 214	1	2	-0.014806	11.7203	-3.82975	4.32027
 215	1	3	-0.274996	12.7814	-6.00859	3.6538
 216	1	3	-0.274736	10.8275	-6.91205	3.59597
 217	1	1	0.070548	10.2966	-3.78255	6.59217
 218	1	1	0.506757	10.5602	-5.02712	5.69942
 219	1	2	-0.012767	9.40461	-3.26912	6.20615
 220	1	2	-0.014806	11.12	-3.06682	6.46307
 221	1	3	-0.274996	9.43193	-5.76858	5.64349
 222	1	3	-0.274736	11.5304	-5.78995	6.24683
 223	1	1	0.070548	11.4641	-4.12506	8.88452
 224	1	1	0.506757	10.1116	-4.05362	8.11618
 225	1	2	-0.012767	12.1308	-4.85129	8.4072
 226	1	2	-0.014806	11.9669	-3.15435	8.77164
 227	1	3	-0.274996	9.36937	-5.16231	8.31798
 228	1	3	-0.274736	9.38466	-3.02496	8.60699
 229	1	1	0.070548	12.8173	-4.49496	11.0082
 230	1	1	0.506757	11.3882	-4.46132	10.4009
 231	1	2	-0.012767	13.4023	-3.66455	10.5884
 232	1	2	-0.014806	13.3224	-5.40767	10.6635
 233	1	3	-0.274996	10.6179	-3.55631	11.0426
 234	1	3	-0.274736	10.8282	-5.67763	10.5796
 235	1	1	0.070548	14.297	-4.90399	13.0562
 236	1	1	0.506757	12.9129	-4.40561	12.5559
 237	1	2	-0.012767	14.2868	-6.00126	13.0899
 238	1	2	-0.014806	15.0527	-4.65486	12.2979
 239	1	3	-0.274996	12.7107	-3.11949	12.9191
 240	1	3	-0.274736	11.9531	-5.14089	13.1592
 241	1	1	0.070548	13.7817	-4.28126	15.602
 242	1	1	0.506757	14.7917	-4.33863	14.4204
 243	1	2	-0.012767	14.1972	-3.6138	16.3705
 244	1	2	-0.014806	12.8625	-3.77949	15.2821
 245	1	3	-0.274996	15.8859	-5.03737	14.7966
 246	1	3	-0.274736	15.2482	-3.08351	14.2052
 247	1	1	0.070548	12.0284	-5.52453	16.9525
 248	1	1	0.506757	13.4273	-5.62831	16.29
 249	1	2	-0.012767	12.0279	-4.6562	17.6257
 250	1	2	-0.014806	11.2996	-5.28464	16.1653
 251	1	3	-0.274996	13.4598	-6.65213	15.4123
 252	1	3	-0.274736	14.3643	-5.88446	17.2293
 253	1	1	0.070548	12.34	-7.14696	18.9849
 254	1	1	0.506757	11.495	-6.7535	17.7395
 255	1	2	-0.012767	13.2668	-7.61553	18.63
 256	1	2	-0.014806	12.6845	-6.2362	19.4859
 257	1	3	-0.274996	11.3713	-7.8163	16.9147
 258	1	3	-0.274736	10.2432	-6.40778	18.1155
 259	1	1	0.070548	11.7112	-7.64834	21.4965
 260	1	1	0.506757	11.6742	-8.12335	20.0138
 261	1	2	-0.012767	12.7503	-7.42357	21.773
 262	1	2	-0.014806	11.4102	-8.49953	22.1201
 263	1	3	-0.274996	10.4158	-8.49321	19.6912
 264	1	3	-0.274736	12.3704	-9.28212	19.9712
 265	1	1	0.070548	10.966	-5.91621	23.3187
 266	1	1	0.506757	10.8152	-6.42748	21.8574
 267	1	2	-0.012767	12.0063	-5.59311	23.4645
 268	1	2	-0.014806	10.3607	-5.00475	23.4244
 269	1	3	-0.274996	9.51676	-6.68514	21.5999
 270	1	3	-0.274736	11.1271	-5.38245	21.0625
 271	1	1	0.070548	9.11638	-7.3841	24.438
 272	1	1	0.506757	10.5866	-6.87819	24.4797
 273	1	2	-0.012767	8.98046	-8.00935	23.5475
 274	1	2	-0.014806	8.45174	-6.51895	24.3103
 275	1	3	-0.274996	11.452	-7.91348	24.508
 276	1	3	-0.274736	10.8048	-6.18567	25.6185
 277	1	1	0.070548	7.1245	-8.55849	25.4909
 278	1	1	0.506757	8.63183	-8.22008	25.6538
 279	1	2	-0.012767	6.57153	-7.62281	25.3294
 280	1	2	-0.014806	6.99492	-9.13683	24.5652
 281	1	3	-0.274996	9.35084	-9.36077	25.7272
 282	1	3	-0.274736	8.82811	-7.54895	26.8067
 283	1	1	0.070548	7.00185	-10.7819	26.8435
 284	1	1	0.506757	6.44872	-9.33919	26.6531
 285	1	2	-0.012767	7.51866	-11.0874	25.9244
 286	1	2	-0.014806	7.77269	-10.7695	27.6265
 287	1	3	-0.274996	5.12142	-9.3482	26.3975
 288	1	3	-0.274736	6.56204	-8.65681	27.8133
 289	1	1	0.070548	5.16824	-11.7034	28.4977
 290	1	1	0.506757	5.96667	-11.891	27.1712
 291	1	2	-0.012767	5.22282	-10.6547	28.8146
 292	1	2	-0.014806	4.10162	-11.887	28.3075
 293	1	3	-0.274996	5.09727	-12.0169	26.1427
 294	1	3	-0.274736	6.63852	-13.0618	27.1579
 295	1	1	0.070548	5.24471	-14.094	29.547
 296	1	1	0.506757	5.60782	-12.592	29.691
 297	1	2	-0.012767	5.92044	-14.6239	28.866
 298	1	2	-0.014806	5.30309	-14.604	30.5172
 299	1	3	-0.274996	4.99803	-12.128	30.8053
 300	1	3	-0.274736	6.9346	-12.4498	29.911
 301	1	4	0	-14.0613	20.4154	4.72026
 302	1	2	0	4.22159	-14.2137	29.1685

Velocities

   1	0.00030814	0.000705923	0.000768536
   2	-3.07122e-05	-3.40608e-05	0.000265482
   3	-0.000666449	0.000781044	0.00163218
   4	0.000788823	0.00154065	0.000867369
   5	0.00115957	-0.00173517	-0.000426804
   6	-0.0021458	-0.00021639	-0.000572652
   7	-3.5288e-05	-3.16287e-05	3.96472e-05
   8	0.000418593	7.65133e-05	3.75318e-05
   9	-0.000429648	0.000137421	8.33473e-05
  10	-0.000176719	-0.00064917	-1.91324e-05
  11	-2.5388e-05	-0.000445648	-0.000214359
  12	0.00117463	-5.19477e-05	-4.78678e-05
  13	7.02023e-05	-0.000103745	-9.42999e-05
  14	2.56421e-06	-5.14802e-05	-7.52365e-06
  15	0.000117195	-9.12497e-05	-3.74923e-05
  16	0.000139371	6.76289e-05	-0.000111297
  17	-1.22423e-05	-5.69056e-05	-2.03603e-05
  18	1.83355e-05	2.20844e-05	-1.29812e-06
  19	9.63555e-05	-0.000137147	-0.000238307
  20	0.000115794	-8.60285e-05	-0.000165527
  21	2.24792e-05	-0.000121522	-0.000185291
  22	4.2614e-05	-0.000187133	-0.000175347
  23	3.47893e-05	-0.000138361	-0.000212737
  24	7.3152e-05	-9.74789e-05	-0.000184181
  25	-0.00014146	-6.72859e-05	-0.000137167
  26	5.7038e-05	-8.8395e-05	-0.000181417
  27	-0.000177369	-0.000123838	-0.000249654
  28	-9.79908e-05	-9.00229e-07	-0.000153673
  29	2.36149e-05	-0.000177313	-0.000245286
  30	2.42658e-05	-0.000187884	-0.000152391
  31	-0.000259577	-6.41026e-05	-0.000187003
  32	-0.000139756	6.25951e-05	-5.80975e-05
  33	-0.000292819	-0.000159828	-0.000151559
  34	-0.000248153	1.04301e-05	-0.000350658
  35	7.01942e-05	0.000116379	0.000157286
  36	-0.000301077	0.000349075	-4.63484e-05
  37	-3.62783e-05	0.000103872	8.03505e-05
  38	-0.000336105	-3.63511e-05	-0.00026854
  39	0.000157479	0.000290252	6.22808e-05
  40	-8.11351e-05	-8.03714e-05	0.000351321
  41	-0.000778921	-0.000208412	-0.000206732
  42	-0.000239908	2.18184e-05	-0.000722392
  43	1.46094e-05	0.000184008	0.000112545
  44	3.15098e-05	0.000175338	0.000139701
  45	0.00020107	0.000349474	9.4567e-05
  46	-0.000205467	0.000279869	2.87674e-05
  47	0.000150291	0.000127712	0.000203723
  48	5.39091e-05	0.000297459	8.95661e-05
  49	-0.000152543	2.36453e-05	0.000196422
  50	4.35742e-05	-9.83555e-05	0.000249468
  51	-0.000343997	0.000102229	0.000174216
  52	-0.000201185	-8.80851e-05	0.000303442
  53	0.000479765	-0.000206448	0.000302093
  54	-0.00016543	-0.000443184	0.000462691
  55	3.03186e-06	0.000172016	-0.000265275
  56	-3.77395e-05	0.000170434	4.67259e-05
  57	-0.000134053	4.59259e-05	-0.000348192
  58	6.18848e-05	0.00026782	-0.000368948
  59	8.47403e-05	0.000372793	0.000164685
  60	-0.000123003	5.22454e-05	0.000159004
  61	0.000115785	0.00013577	-0.00018819
  62	3.39733e-05	0.000208384	-0.000318397
  63	5.39957e-05	0.000269387	-0.000176879
  64	0.000147984	3.44464e-05	-0.000248334
  65	9.91062e-05	0.000342547	-0.00045795
  66	-0.000118675	0.000198702	-0.000334273
  67	0.000174107	-0.000153743	0.000526169
  68	0.000100389	1.64877e-06	9.94056e-06
  69	0.000772958	-0.000123433	0.000678699
  70	-0.00011195	-0.000336514	0.0010559
  71	0.000282003	0.000280688	-0.000121858
  72	-0.000131202	-0.00023227	-0.000164856
  73	-5.13691e-05	-0.000164554	-0.000128711
  74	-0.000160488	-0.000199475	0.000294114
  75	-0.00017971	-0.000136122	-0.000313685
  76	0.000229154	-0.000143941	-0.0001493
  77	-0.000116377	-0.000195707	0.00057098
  78	-0.000593894	-0.000248622	0.000302836
  79	-4.75705e-05	-6.2839e-05	-6.68635e-05
  80	-5.54032e-05	-0.000127816	-0.000211759
  81	-0.000127081	6.61268e-05	-7.91646e-05
  82	-5.40901e-05	-0.000107945	-0.000137974
  83	-8.6479e-05	-0.000196892	-0.000356831
  84	2.23354e-05	5.82488e-06	-0.000244105
  85	0.00042548	0.00031348	-7.30514e-05
  86	6.40204e-05	-4.25323e-05	8.07427e-05
  87	0.000238151	0.000699941	-0.00052104
  88	0.00100107	0.000523767	0.000105763
  89	-0.000277548	-0.000176052	-0.000185957
  90	3.37887e-05	-0.000164028	0.000497707
  91	9.63521e-05	-3.33815e-05	-3.9459e-05
  92	0.000279557	9.56702e-05	4.69196e-05
  93	4.50486e-05	-0.000186205	3.44171e-05
  94	5.53814e-05	-1.68022e-05	-0.000183936
  95	0.000375684	-4.1354e-05	0.000126236
  96	0.000233593	0.000225257	2.23485e-05
  97	0.000112632	7.54716e-05	-2.0351e-05
  98	0.000111772	3.78161e-05	-0.000165506
  99	0.00014812	5.56782e-05	-4.57293e-05
 100	2.07022e-05	9.30588e-05	7.40594e-06
 101	0.000143352	0.000307927	-0.00026146
 102	9.38916e-05	-0.000153443	-0.000439768
 103	2.82883e-05	-7.87663e-05	0.000102792
 104	0.000208954	0.000171464	2.33396e-05
 105	-9.84259e-06	-0.000114979	0.00010545
 106	2.42556e-05	-0.000121147	0.000294651
 107	0.000554313	0.000315144	0.000235083
 108	0.000124674	0.000457543	-0.00022738
 109	-0.000126318	-0.00018405	-0.000132209
 110	-9.66997e-05	-0.000200825	-3.63811e-05
 111	-0.000206895	-0.000123471	-3.14462e-05
 112	-1.35402e-05	-0.000239151	-0.000127617
 113	-0.000123336	-0.000344555	3.05796e-05
 114	-0.00010118	-0.00019808	-6.62934e-05
 115	-0.000116718	-0.000178451	0.000285339
 116	-0.000205787	-0.00017892	-0.000349336
 117	-0.000151155	0.000513039	0.000736892
 118	3.21872e-05	-0.00080164	0.000850673
 119	-0.000197332	0.000499225	-0.000746815
 120	-0.000324536	-0.000703717	-0.000804734
 121	-0.000148942	-0.000187921	-0.000145623
 122	-0.000176892	-0.000195479	-0.000124333
 123	1.63017e-05	-0.000176573	-0.000191731
 124	-0.000170803	-0.000201155	-0.00027137
 125	4.43447e-05	-0.000142364	-0.000189249
 126	-0.000316738	-0.000130528	-0.00026821
 127	-0.0002412	9.43351e-05	-0.000200061
 128	-8.0165e-05	-8.59003e-05	0.000145702
 129	-0.000161486	0.000286249	-0.000298235
 130	-0.000435491	-5.51812e-05	-0.000301257
 131	9.63788e-05	-0.000595358	0.000513228
 132	2.40319e-05	0.00040069	0.000512492
 133	-0.000210272	0.000208185	-0.000368869
 134	-0.000250081	0.000192931	-0.000273537
 135	-4.16902e-05	0.000142038	-0.000402851
 136	-0.000206679	0.000236091	-0.000268707
 137	-0.000401352	0.00015196	-0.000258169
 138	-0.000189266	0.000198058	-0.000285611
 139	-0.000225863	0.000205591	4.62519e-05
 140	-0.000324585	0.000101208	-0.000523967
 141	-0.000154636	5.07817e-06	0.000257416
 142	-0.000314779	0.000633235	0.000166437
 143	-0.000628354	-0.000497181	-0.000634402
 144	-0.0002688	0.000325154	-0.00104766
 145	-2.15939e-05	-0.000251453	0.000421525
 146	-0.000177272	1.13515e-05	0.000234774
 147	0.000146933	-0.00017521	0.000600576
 148	-8.95606e-05	-0.000300816	0.000350011
 149	4.18556e-06	0.000144665	0.000223185
 150	-0.000481229	-8.28967e-05	0.000209001
 151	0.000210714	-0.000559994	0.000298823
 152	6.76626e-05	-0.000463834	0.00040199
 153	0.000362452	-0.000561284	-2.85528e-05
 154	0.00026517	-0.000889881	0.000391028
 155	1.51693e-05	-0.000527727	0.000271007
 156	9.80252e-05	-0.000338398	0.000432641
 157	0.000216164	0.000523998	0.000340561
 158	0.000159231	-0.000157953	0.000333503
 159	0.000584127	0.000910168	0.000227196
 160	-0.00026142	0.000781625	0.000486532
 161	0.000330942	-0.000270282	-5.7371e-05
 162	-4.93274e-05	-0.000246777	0.000746119
 163	0.000277579	0.000109592	0.000329357
 164	0.000496694	0.000394557	0.000309712
 165	0.000507091	0.000147447	0.000226315
 166	0.000223421	-0.000199341	0.00027683
 167	0.000955943	0.000229375	0.00022569
 168	0.000597656	0.000781205	0.000394852
 169	-0.000160826	0.000448282	0.000942868
 170	4.13523e-06	0.000251782	0.000578566
 171	-0.00090063	0.000291387	0.00143058
 172	0.000249082	0.0011336	0.00134867
 173	0.000142206	8.69447e-05	0.000652179
 174	-9.75656e-05	0.000416628	0.000419037
 175	0.000290533	0.000194912	7.05766e-05
 176	0.000140172	2.09129e-05	0.000237468
 177	0.000417913	0.0006462	-6.33962e-06
 178	0.000536527	-3.79648e-05	-0.000215533
 179	0.000674996	0.00017676	-0.000239233
 180	-0.000114964	-0.000777259	0.00013276
 181	-0.000278678	-0.000284767	0.000278151
 182	5.38081e-05	6.47987e-05	0.000295169
 183	-0.000633638	2.27402e-05	0.000379097
 184	-0.000507994	-0.000630325	0.000315188
 185	-0.000111005	2.32226e-05	0.000186234
 186	0.000257771	0.000117365	0.000575661
 187	-3.74983e-05	-0.000411439	7.18164e-05
 188	-3.68547e-05	-0.000595326	0.000207224
 189	-0.000413458	-0.000640503	-0.000298071
 190	0.000179901	-0.00065358	0.00045268
 191	0.000262941	-0.000835418	0.000188412
 192	-0.000341313	-0.000845946	0.000237512
 193	-0.000338674	0.000735906	-0.000571533
 194	7.19634e-05	0.000478636	-0.000100895
 195	-0.000218695	0.00163925	-0.000644916
 196	-0.00102301	0.000560232	-0.00118401
 197	-0.000143995	0.000909326	-0.000457224
 198	0.000701111	0.000777952	0.000457583
 199	-0.000448763	-0.000146412	-0.000235942
 200	-0.000167349	0.000105968	-0.000328083
 201	-0.00148808	0.000198448	-0.000545123
 202	-0.000582287	-0.00120233	0.000147194
 203	0.000366055	1.90533e-05	-0.000327294
 204	-0.00038169	-0.000224923	-0.000234257
 205	0.000216833	0.000281137	-0.000194924
 206	0.000270669	0.000138939	-0.000293337
 207	0.000266712	0.000364416	-0.000311543
 208	0.000226616	0.000321594	-0.000255675
 209	0.000252005	-0.000128415	-0.000679795
 210	0.000714639	0.000185627	-0.000264584
 211	-0.000296583	-0.000186734	-2.92205e-05
 212	-0.000206531	2.2195e-05	-0.000206188
 213	-0.00061034	-0.000482157	0.000243903
 214	-0.000545478	6.59259e-05	-0.00030875
 215	-0.000345049	-0.000321384	5.38223e-05
 216	-0.000608704	0.000141924	-0.00072159
 217	5.80138e-05	-0.000380552	9.01549e-05
 218	0.000341279	-0.000354269	0.000150035
 219	-0.000134718	-0.000681047	0.000146366
 220	-0.000133125	-0.000191513	-4.94968e-05
 221	0.000717219	-0.000948719	0.000672629
 222	0.000861765	0.000130094	-9.93993e-05
 223	0.000465315	-0.000912342	-0.000181392
 224	0.000299697	-0.000165494	0.000143979
 225	-0.000348161	-0.00197605	0.000295646
 226	0.00138401	-0.00150175	-0.00104128
 227	-0.000409413	0.000348208	0.000413073
 228	0.00104943	0.000375365	0.000138586
 229	0.00056895	-0.00114328	-0.00020685
 230	0.000479007	0.000390617	7.8747e-05
 231	0.00172708	-0.0024158	-0.00112581
 232	-0.000774144	-0.0022744	0.000754189
 233	0.00197646	0.00214742	-0.000568444
 234	-0.00137053	0.00142824	0.00125973
 235	0.000177962	-0.000105456	0.000404408
 236	0.000637445	0.000397191	-0.000330648
 237	-0.000372536	-8.92248e-05	0.000722615
 238	0.000712462	-0.000641442	0.000773928
 239	0.00173883	0.000951785	-0.00165924
 240	-9.53187e-05	0.00183709	0.000273014
 241	-0.00138494	-6.03387e-05	-0.000251992
 242	-0.000549954	0.00011639	0.000583055
 243	-0.00246805	0.000295041	1.41307e-05
 244	-0.00148101	-0.000743556	-0.0011261
 245	-0.000775551	0.000177986	0.00143078
 246	-0.000498653	0.000170097	0.000838222
 247	-0.000196793	0.000421262	0.000769451
 248	-0.000965324	-0.000180985	-0.000455086
 249	0.000797885	0.000331044	0.000902975
 250	-0.000800168	0.000766434	0.00144862
 251	-0.00243522	0.000173998	-0.000915979
 252	-6.04772e-05	-0.000970218	-0.00155703
 253	0.000986744	-0.000301243	-0.000136146
 254	1.58147e-05	0.00053506	0.000889572
 255	0.000335451	-0.000963288	-0.00104425
 256	0.00198526	-0.000692569	2.53305e-05
 257	-0.00138192	0.000883122	0.000652229
 258	0.000629095	0.00119288	0.00226261
 259	-0.000115029	0.000891514	-0.000474796
 260	0.000808791	6.87983e-05	-1.67463e-05
 261	-0.000281985	0.0013097	-0.000137865
 262	-0.000260616	0.000999814	-0.000516528
 263	0.00109429	-0.000614455	-0.000398012
 264	0.00130014	0.000328478	0.00114935
 265	5.50767e-05	1.4598e-05	-0.000856567
 266	-0.00044743	0.000636808	-0.00103311
 267	0.000318548	-0.00100794	-0.00108706
 268	0.000859387	0.000575119	-0.000193674
 269	-0.00045068	0.000290177	-0.000566035
 270	-0.00068962	0.000637966	-0.00113343
 271	-0.000337885	5.3111e-05	-0.000324282
 272	-1.34325e-05	-0.000488027	-0.0011427
 273	-0.000826478	-0.000441249	8.66448e-05
 274	-0.000129204	6.13014e-05	-0.000558352
 275	-0.000691733	-0.00109019	-0.00188889
 276	0.00117715	-0.00126501	-0.000884841
 277	-0.000150886	0.000716691	0.000852257
 278	-0.000127399	0.000789516	0.000521394
 279	-0.000121772	0.00118349	0.00321501
 280	-0.000802351	0.00246599	-6.48793e-05
 281	-0.000155982	0.000855414	0.0015286
 282	-0.00045643	0.0016572	0.000101827
 283	0.000355951	-0.00113305	-0.000807515
 284	0.000259335	-0.00105511	-0.000224463
 285	0.000756403	-0.000932649	-0.000702326
 286	2.69924e-06	-0.00141684	-0.000354709
 287	0.000253015	-0.00144005	-0.00103724
 288	-0.00071716	-0.00194653	0.00033874
 289	0.000248029	-0.000274738	-0.00077107
 290	8.91026e-05	-0.000969869	-0.000729629
 291	0.000823631	-0.000167192	-0.00135168
 292	2.07051e-05	0.000143347	-0.000613502
 293	-0.000181743	-0.000947593	-0.000465882
 294	-0.000474724	-0.00144878	-0.000563212
 295	-0.000138592	0.000398914	0.0010021
 296	0.000190446	0.000418562	-0.000269836
 297	-8.63064e-05	-0.000277414	0.00155102
 298	-0.000352547	0.00132798	0.00157064
 299	0.000727661	0.00202176	-0.000526338
 300	0.00033523	3.61463e-05	-0.000866705
 301	0.000415596	0.00101142	0.00113558
 302	-1.03511e-05	6.51063e-05	0.000989222

Bonds

   1	4	1	2
   2	1	1	3
   3	1	1	4
   4	2	2	5
   5	2	2	6
   6	4	7	8
   7	1	7	9
   8	1	7	10
   9	2	8	11
  10	2	8	12
  11	4	1	8
  12	4	13	14
  13	1	13	15
  14	1	13	16
  15	2	14	17
  16	2	14	18
  17	4	7	14
  18	4	19	20
  19	1	19	21
  20	1	19	22
  21	2	20	23
  22	2	20	24
  23	4	13	20
  24	4	25	26
  25	1	25	27
  26	1	25	28
  27	2	26	29
  28	2	26	30
  29	4	19	26
  30	4	31	32
  31	1	31	33
  32	1	31	34
  33	2	32	35
  34	2	32	36
  35	4	25	32
  36	4	37	38
  37	1	37	39
  38	1	37	40
  39	2	38	41
  40	2	38	42
  41	4	31	38
  42	4	43	44
  43	1	43	45
  44	1	43	46
  45	2	44	47
  46	2	44	48
  47	4	37	44
  48	4	49	50
  49	1	49	51
  50	1	49	52
  51	2	50	53
  52	2	50	54
  53	4	43	50
  54	4	55	56
  55	1	55	57
  56	1	55	58
  57	2	56	59
  58	2	56	60
  59	4	49	56
  60	4	61	62
  61	1	61	63
  62	1	61	64
  63	2	62	65
  64	2	62	66
  65	4	55	62
  66	4	67	68
  67	1	67	69
  68	1	67	70
  69	2	68	71
  70	2	68	72
  71	4	61	68
  72	4	73	74
  73	1	73	75
  74	1	73	76
  75	2	74	77
  76	2	74	78
  77	4	67	74
  78	4	79	80
  79	1	79	81
  80	1	79	82
  81	2	80	83
  82	2	80	84
  83	4	73	80
  84	4	85	86
  85	1	85	87
  86	1	85	88
  87	2	86	89
  88	2	86	90
  89	4	79	86
  90	4	91	92
  91	1	91	93
  92	1	91	94
  93	2	92	95
  94	2	92	96
  95	4	85	92
  96	4	97	98
  97	1	97	99
  98	1	97	100
  99	2	98	101
 100	2	98	102
 101	4	91	98
 102	4	103	104
 103	1	103	105
 104	1	103	106
 105	2	104	107
 106	2	104	108
 107	4	97	104
 108	4	109	110
 109	1	109	111
 110	1	109	112
 111	2	110	113
 112	2	110	114
 113	4	103	110
 114	4	115	116
 115	1	115	117
 116	1	115	118
 117	2	116	119
 118	2	116	120
 119	4	109	116
 120	4	121	122
 121	1	121	123
 122	1	121	124
 123	2	122	125
 124	2	122	126
 125	4	115	122
 126	4	127	128
 127	1	127	129
 128	1	127	130
 129	2	128	131
 130	2	128	132
 131	4	121	128
 132	4	133	134
 133	1	133	135
 134	1	133	136
 135	2	134	137
 136	2	134	138
 137	4	127	134
 138	4	139	140
 139	1	139	141
 140	1	139	142
 141	2	140	143
 142	2	140	144
 143	4	133	140
 144	4	145	146
 145	1	145	147
 146	1	145	148
 147	2	146	149
 148	2	146	150
 149	4	139	146
 150	4	151	152
 151	1	151	153
 152	1	151	154
 153	2	152	155
 154	2	152	156
 155	4	145	152
 156	4	157	158
 157	1	157	159
 158	1	157	160
 159	2	158	161
 160	2	158	162
 161	4	151	158
 162	4	163	164
 163	1	163	165
 164	1	163	166
 165	2	164	167
 166	2	164	168
 167	4	157	164
 168	4	169	170
 169	1	169	171
 170	1	169	172
 171	2	170	173
 172	2	170	174
 173	4	163	170
 174	4	175	176
 175	1	175	177
 176	1	175	178
 177	2	176	179
 178	2	176	180
 179	4	169	176
 180	4	181	182
 181	1	181	183
 182	1	181	184
 183	2	182	185
 184	2	182	186
 185	4	175	182
 186	4	187	188
 187	1	187	189
 188	1	187	190
 189	2	188	191
 190	2	188	192
 191	4	181	188
 192	4	193	194
 193	1	193	195
 194	1	193	196
 195	2	194	197
 196	2	194	198
 197	4	187	194
 198	4	199	200
 199	1	199	201
 200	1	199	202
 201	2	200	203
 202	2	200	204
 203	4	193	200
 204	4	205	206
 205	1	205	207
 206	1	205	208
 207	2	206	209
 208	2	206	210
 209	4	199	206
 210	4	211	212
 211	1	211	213
 212	1	211	214
 213	2	212	215
 214	2	212	216