pySIMM System Object

182 atoms
181 bonds
360 angles
531 dihedrals
0 impropers

4 atom types
4 bond types
7 angle types
4 dihedral types

-91.704061 91.704061 xlo xhi
-91.704061 91.704061 ylo yhi
-91.704061 91.704061 zlo zhi

Masses

   1	12.01	# c3
   2	1.008	# hc
   3	19.0	# f
   4	1.008	# h2

Pair Coeffs

   1	0.1094	3.3996695084235347	# c3
   2	0.0157	2.649532787749369	# hc
   3	0.061	3.1181455134911875	# f
   4	0.0157	2.2931733004932333	# h2

Bond Coeffs

   1	330.6	1.0969	# c3,hc
   2	356.9	1.3497	# c3,f
   3	331.7	1.0961	# c3,h2
   4	300.9	1.5375	# c3,c3

Angle Coeffs

   1	51.15	108.79	# f,c3,h2
   2	46.34	109.8	# c3,c3,hc
   3	66.11	109.24	# c3,c3,f
   4	39.4	107.58	# hc,c3,hc
   5	46.25	110.22	# c3,c3,h2
   6	70.89	107.36	# f,c3,f
   7	62.86	111.51	# c3,c3,c3

Dihedral Coeffs

   1	2	0.0	3	0	0.19	1	0	# hc,c3,c3,f
   2	1	0.15555555555555556	3	0	# X,c3,c3,X
   3	1	0.16	3	0	# hc,c3,c3,c3
   4	3	0.18	3	0	0.25	2	180	0.2	1	180	# c3,c3,c3,c3

Atoms

   1	1	1	0.070548	10.8022	3.0289	-21.4738
   2	1	1	0.506757	11.6823	2.19197	-20.5223
   3	1	2	-0.012767	11.0597	2.78753	-22.5142
   4	1	2	-0.014806	9.75749	2.7311	-21.326
   5	1	3	-0.274996	11.6936	0.906626	-20.9373
   6	1	3	-0.274736	11.174	2.19248	-19.2706
   7	1	1	0.070548	10.2735	5.46	-22.2969
   8	1	1	0.506757	10.9738	4.55095	-21.2473
   9	1	2	-0.012767	10.6452	5.1735	-23.2906
  10	1	2	-0.014806	10.6128	6.49439	-22.1574
  11	1	3	-0.274996	12.2946	4.83815	-21.2934
  12	1	3	-0.274736	10.572	4.87784	-20.0027
  13	1	1	0.070548	7.94475	5.95597	-21.0941
  14	1	1	0.506757	8.71874	5.43834	-22.3397
  15	1	2	-0.012767	8.10921	5.2629	-20.2604
  16	1	2	-0.014806	6.87126	5.89111	-21.3176
  17	1	3	-0.274996	8.32135	6.13276	-23.4287
  18	1	3	-0.274736	8.29775	4.1814	-22.595
  19	1	1	0.070548	7.22568	8.01628	-19.6468
  20	1	1	0.506757	8.25855	7.40962	-20.6358
  21	1	2	-0.012767	7.59889	8.99312	-19.3161
  22	1	2	-0.014806	6.29878	8.23353	-20.1958
  23	1	3	-0.274996	8.30939	8.23467	-21.7037
  24	1	3	-0.274736	9.48642	7.4781	-20.0799
  25	1	1	0.070548	6.13171	7.93774	-17.2958
  26	1	1	0.506757	6.86592	7.14272	-18.4125
  27	1	2	-0.012767	5.39838	7.29491	-16.7962
  28	1	2	-0.014806	5.51726	8.70771	-17.7829
  29	1	3	-0.274996	6.03366	6.15902	-18.8192
  30	1	3	-0.274736	7.95444	6.51202	-17.9279
  31	1	1	0.070548	7.83826	7.76357	-15.2271
  32	1	1	0.506757	7.03338	8.63961	-16.237
  33	1	2	-0.012767	8.6375	7.22015	-15.7434
  34	1	2	-0.014806	8.36847	8.4454	-14.5475
  35	1	3	-0.274996	7.91837	9.42951	-16.8826
  36	1	3	-0.274736	6.25695	9.50181	-15.5443
  37	1	1	0.070548	7.95513	6.00193	-13.3804
  38	1	1	0.506757	7.02482	6.76894	-14.3576
  39	1	2	-0.012767	8.67879	5.43847	-13.9859
  40	1	2	-0.014806	8.57215	6.7156	-12.8227
  41	1	3	-0.274996	6.07608	7.44493	-13.6775
  42	1	3	-0.274736	6.38724	5.87872	-15.1436
  43	1	1	0.070548	6.16482	5.50745	-11.4301
  44	1	1	0.506757	7.27084	4.99579	-12.4039
  45	1	2	-0.012767	5.77591	4.63053	-10.8972
  46	1	2	-0.014806	5.30789	5.88923	-11.9969
  47	1	3	-0.274996	8.24771	4.41093	-11.6759
  48	1	3	-0.274736	6.74046	3.98511	-13.1272
  49	1	1	0.070548	5.43897	7.25823	-9.62895
  50	1	1	0.506757	6.60962	6.55707	-10.3714
  51	1	2	-0.012767	4.74164	7.64769	-10.3839
  52	1	2	-0.014806	5.83507	8.14661	-9.11704
  53	1	3	-0.274996	7.45086	5.99425	-9.47803
  54	1	3	-0.274736	7.3232	7.53906	-10.9598
  55	1	1	0.070548	5.45527	5.98826	-7.33987
  56	1	1	0.506757	4.63377	6.42727	-8.59108
  57	1	2	-0.012767	6.04749	5.10129	-7.60071
  58	1	2	-0.014806	6.18273	6.77375	-7.09339
  59	1	3	-0.274996	3.58121	7.19516	-8.23612
  60	1	3	-0.274736	4.10601	5.34179	-9.19569
  61	1	1	0.070548	5.55018	5.07143	-4.9488
  62	1	1	0.506757	4.63374	5.6602	-6.06185
  63	1	2	-0.012767	5.98123	4.12885	-5.31447
  64	1	2	-0.014806	6.40423	5.74675	-4.80308
  65	1	3	-0.274996	3.65528	4.77828	-6.36003
  66	1	3	-0.274736	4.05193	6.79621	-5.6215
  67	1	1	0.070548	5.93679	4.35608	-2.51851
  68	1	1	0.506757	4.8808	4.80392	-3.56741
  69	1	2	-0.012767	6.53505	3.53682	-2.94028
  70	1	2	-0.014806	6.64289	5.18684	-2.37791
  71	1	3	-0.274996	3.93652	3.84716	-3.69289
  72	1	3	-0.274736	4.27351	5.9235	-3.12257
  73	1	1	0.070548	4.9847	2.41586	-1.05786
  74	1	1	0.506757	5.3979	3.91484	-1.1226
  75	1	2	-0.012767	4.3636	2.15943	-1.92421
  76	1	2	-0.014806	5.89225	1.806	-1.16475
  77	1	3	-0.274996	6.41011	4.10585	-0.246289
  78	1	3	-0.274736	4.39563	4.71748	-0.707149
  79	1	1	0.070548	4.16038	0.43364	0.340124
  80	1	1	0.506757	4.22738	1.98108	0.230978
  81	1	2	-0.012767	5.17599	0.0311237	0.219641
  82	1	2	-0.014806	3.58813	0.0480782	-0.514648
  83	1	3	-0.274996	4.80542	2.48856	1.34002
  84	1	3	-0.274736	2.9708	2.47238	0.175435
  85	1	1	0.070548	2.16593	0.394524	2.05153
  86	1	1	0.506757	3.56271	-0.156365	1.65097
  87	1	2	-0.012767	2.2979	1.38257	2.51375
  88	1	2	-0.014806	1.57538	0.559971	1.14058
  89	1	3	-0.274996	4.43217	0.0315678	2.66835
  90	1	3	-0.274736	3.50186	-1.49562	1.4809
  91	1	1	0.070548	2.05996	-0.968971	4.29158
  92	1	1	0.506757	1.32198	-0.491069	3.01063
  93	1	2	-0.012767	2.77348	-1.75772	4.01861
  94	1	2	-0.014806	2.66314	-0.139208	4.6845
  95	1	3	-0.274996	0.856932	-1.56029	2.32612
  96	1	3	-0.274736	0.224554	0.221017	3.3457
  97	1	1	0.070548	0.139776	-2.60475	5.03233
  98	1	1	0.506757	1.15865	-1.50335	5.44004
  99	1	2	-0.012767	-0.6633	-2.15441	4.4365
 100	1	2	-0.014806	0.642547	-3.30752	4.35367
 101	1	3	-0.274996	0.509876	-0.464427	6.00918
 102	1	3	-0.274736	1.98214	-1.98241	6.39853
 103	1	1	0.070548	-0.966192	-2.6707	7.46995
 104	1	1	0.506757	-0.479813	-3.42997	6.20299
 105	1	2	-0.012767	-1.09983	-3.41593	8.26214
 106	1	2	-0.014806	-0.167519	-2.02397	7.85036
 107	1	3	-0.274996	0.42286	-4.356	6.59773
 108	1	3	-0.274736	-1.51405	-4.15901	5.72253
 109	1	1	0.070548	-3.59695	-2.59331	7.66543
 110	1	1	0.506757	-2.27914	-1.8452	7.31349
 111	1	2	-0.012767	-4.42898	-1.88997	7.51955
 112	1	2	-0.014806	-3.76889	-3.38112	6.92066
 113	1	3	-0.274996	-2.18936	-0.723857	8.06132
 114	1	3	-0.274736	-2.40355	-1.39461	6.04648
 115	1	1	0.070548	-3.5184	-4.74943	9.12875
 116	1	1	0.506757	-3.69993	-3.19909	9.10085
 117	1	2	-0.012767	-3.00597	-5.07562	8.2137
 118	1	2	-0.014806	-2.83074	-5.01352	9.94449
 119	1	3	-0.274996	-4.89196	-2.84178	9.62626
 120	1	3	-0.274736	-2.78874	-2.65099	9.93433
 121	1	1	0.070548	-5.86521	-5.39787	8.17066
 122	1	1	0.506757	-4.81287	-5.59374	9.29993
 123	1	2	-0.012767	-5.56572	-6.0084	7.30745
 124	1	2	-0.014806	-5.8389	-4.36416	7.80727
 125	1	3	-0.274996	-5.33282	-5.39562	10.5308
 126	1	3	-0.274736	-4.43852	-6.89294	9.28669
 127	1	1	0.070548	-7.5804	-7.19397	9.02244
 128	1	1	0.506757	-7.33646	-5.73585	8.53588
 129	1	2	-0.012767	-6.83708	-7.47185	9.77839
 130	1	2	-0.014806	-7.41098	-7.87487	8.17738
 131	1	3	-0.274996	-8.05398	-5.53707	7.40733
 132	1	3	-0.274736	-7.79495	-4.82872	9.4258
 133	1	1	0.070548	-9.2714	-8.97809	9.7681
 134	1	1	0.506757	-8.98624	-7.45776	9.63018
 135	1	2	-0.012767	-8.58363	-9.3955	10.5162
 136	1	2	-0.014806	-9.01448	-9.47404	8.82166
 137	1	3	-0.274996	-9.95909	-6.87244	8.90001
 138	1	3	-0.274736	-9.02588	-6.89887	10.8615
 139	1	1	0.070548	-11.3152	-8.59708	11.3567
 140	1	1	0.506757	-10.7302	-9.37198	10.1426
 141	1	2	-0.012767	-11.4537	-7.54631	11.0733
 142	1	2	-0.014806	-10.5682	-8.61674	12.1604
 143	1	3	-0.274996	-11.5139	-9.20746	9.054
 144	1	3	-0.274736	-10.7242	-10.6975	10.4046
 145	1	1	0.070548	-13.3933	-8.0863	12.8367
 146	1	1	0.506757	-12.6615	-9.1146	11.9271
 147	1	2	-0.012767	-14.3257	-8.55129	13.1865
 148	1	2	-0.014806	-13.7138	-7.23775	12.2167
 149	1	3	-0.274996	-12.4646	-10.2642	12.6092
 150	1	3	-0.274736	-13.5128	-9.41982	10.9241
 151	1	1	0.070548	-11.6863	-6.33394	13.7517
 152	1	1	0.506757	-12.619	-7.5368	14.0726
 153	1	2	-0.012767	-12.1601	-5.70394	12.9867
 154	1	2	-0.014806	-10.7628	-6.70867	13.2955
 155	1	3	-0.274996	-11.8859	-8.51663	14.644
 156	1	3	-0.274736	-13.535	-7.17719	14.9976
 157	1	1	0.070548	-10.6394	-6.18523	16.1487
 158	1	1	0.506757	-11.2829	-5.42959	14.9489
 159	1	2	-0.012767	-11.3439	-6.93607	16.5267
 160	1	2	-0.014806	-9.76497	-6.74479	15.7891
 161	1	3	-0.274996	-12.3543	-4.70566	15.3401
 162	1	3	-0.274736	-10.3986	-4.53683	14.4525
 163	1	1	0.070548	-9.45174	-6.1241	18.4193
 164	1	1	0.506757	-10.2207	-5.29895	17.3535
 165	1	2	-0.012767	-8.43738	-6.32357	18.0498
 166	1	2	-0.014806	-9.91806	-7.11558	18.5035
 167	1	3	-0.274996	-9.42229	-4.28748	16.9484
 168	1	3	-0.274736	-11.319	-4.73812	17.9037
 169	1	1	0.070548	-9.00712	-3.99269	19.9614
 170	1	1	0.506757	-9.38491	-5.49848	19.8446
 171	1	2	-0.012767	-9.27194	-3.64611	20.9701
 172	1	2	-0.014806	-9.63469	-3.39098	19.2943
 173	1	3	-0.274996	-8.53121	-6.23976	20.5852
 174	1	3	-0.274736	-10.5867	-5.67489	20.4397
 175	1	1	0.070548	-7.3227	-2.15348	19.3894
 176	1	1	0.506757	-7.51512	-3.65134	19.7181
 177	1	2	-0.012767	-7.799	-1.90038	18.433
 178	1	2	-0.014806	-6.25722	-1.90046	19.3134
 179	1	3	-0.274996	-6.99414	-4.38253	18.7087
 180	1	3	-0.274736	-6.79323	-3.94287	20.8231
 181	1	4	0	12.7145	2.55946	-20.499
 182	1	2	0	-7.76877	-1.52007	20.1668

Velocities

   1	-0.000108276	9.53349e-05	0.000361509
   2	0.000282009	-9.94299e-05	-8.31403e-05
   3	-0.000456471	0.000226081	0.000265585
   4	9.51515e-06	8.24733e-05	0.000764883
   5	0.000483191	0.0001331	-0.000713427
   6	0.000512069	-0.000782954	-4.40987e-05
   7	-1.67476e-05	-2.23622e-05	0.000133585
   8	-0.000300369	5.06032e-05	0.000437479
   9	0.000144294	-0.000408577	0.000259972
  10	8.83297e-05	-6.72921e-05	-0.000157202
  11	-0.000285722	7.8908e-05	0.000878024
  12	-0.000764175	-8.41206e-05	0.00027289
  13	-0.000440149	0.00016857	-0.000490031
  14	9.23e-06	8.14055e-05	-0.000127924
  15	-0.00118112	1.48816e-05	-0.000551738
  16	-0.000390753	0.000669728	-0.000993122
  17	0.000386429	-3.91355e-05	-0.000378301
  18	9.9665e-05	3.99315e-05	-0.00014946
  19	-8.48359e-05	-6.55981e-05	8.06924e-05
  20	-0.000151879	-8.18572e-05	-4.68938e-05
  21	-2.94097e-05	-8.35075e-05	0.000168471
  22	-0.000163112	0.000122937	0.000134215
  23	6.26155e-05	0.000213055	0.000164443
  24	-0.000228954	-0.000400236	0.000125925
  25	8.65777e-05	0.000239029	0.000225436
  26	-0.000253074	-5.24113e-05	7.87708e-05
  27	-1.46743e-05	0.000422196	0.000302678
  28	0.000272641	0.000370536	0.000269792
  29	-0.000626698	0.000304839	0.000103738
  30	-0.000447333	-0.000427006	1.02144e-05
  31	0.000147719	-0.000323551	9.68906e-05
  32	0.000419243	-8.07179e-05	0.000128633
  33	-4.1987e-05	-0.000517121	1.98269e-05
  34	0.000333037	-0.000496675	8.69073e-05
  35	0.000691531	-0.000417134	7.84132e-05
  36	0.000840164	0.000264233	0.000203662
  37	-8.24943e-05	-2.4184e-05	0.000239677
  38	-7.66281e-05	-0.000154198	2.90861e-05
  39	-6.28756e-05	-5.63263e-05	0.000343382
  40	-0.000198766	6.60474e-05	0.000181277
  41	-0.00021525	-0.000182641	-0.000152221
  42	8.12106e-05	-0.000276468	4.08501e-05
  43	0.000100438	6.34822e-05	0.000357587
  44	3.45879e-05	3.52394e-05	0.000364383
  45	0.000432129	9.68887e-06	0.000471112
  46	-3.04128e-05	-0.000174628	0.000372876
  47	0.000129387	0.000240785	0.000399709
  48	4.32682e-05	-0.000102335	0.000545151
  49	-0.000106997	-0.000226992	0.000431691
  50	2.15939e-05	0.000332019	0.000111456
  51	-0.000137494	3.41672e-05	0.000635962
  52	-0.000204681	-0.000446289	0.000891163
  53	0.000529942	0.00085532	-3.30358e-05
  54	-0.000700255	0.000633519	-0.000249395
  55	0.000149515	-0.000123517	0.000298426
  56	0.000177049	-0.000966155	1.38927e-05
  57	0.000452093	-5.68157e-05	0.000730904
  58	-5.75084e-05	0.000155425	3.43652e-05
  59	-0.000801812	-0.00205767	-0.000491197
  60	0.00146325	-0.00156912	-2.30257e-05
  61	2.78199e-05	0.00101884	0.000568369
  62	5.68696e-06	0.000280616	0.000298511
  63	0.00136115	0.00165031	0.000546083
  64	-0.000901124	0.0020485	0.00126194
  65	0.000229461	-3.59955e-05	0.000515611
  66	-0.000212119	0.000330541	-9.915e-05
  67	-0.000274025	-0.000396966	-0.000194201
  68	-0.000402553	-0.000128391	8.12221e-05
  69	-0.00101925	-0.000864358	-0.000341057
  70	0.000329042	-0.000843359	-0.000639251
  71	0.000146343	-0.000583542	-0.000720404
  72	-0.00112622	-0.000660823	0.000439858
  73	0.000227784	-3.2922e-05	5.57705e-05
  74	0.000114833	-4.18562e-05	-1.3919e-06
  75	0.000419003	-0.000167375	-4.71816e-05
  76	0.000325573	5.28933e-05	0.000316731
  77	0.000333638	0.000101281	-0.000277703
  78	0.000218393	-5.13682e-06	0.000184088
  79	-0.000967933	1.62765e-05	-0.00088024
  80	0.000133345	1.0454e-05	-8.10882e-05
  81	-0.00137654	-0.000742036	-0.00177832
  82	-0.00186571	0.000861541	-0.000684057
  83	0.000919412	-0.000869971	-8.47007e-05
  84	0.000460378	0.000910159	0.000545693
  85	-0.000591397	-0.000230512	-0.000679661
  86	-0.000534478	-4.57017e-06	-0.000756042
  87	-0.000748208	-9.12856e-05	-0.000934513
  88	-0.000731623	-0.000500441	-0.000666983
  89	-0.000432736	0.00037511	-0.000909777
  90	-0.000210046	-3.89509e-05	-0.000556836
  91	0.000181864	0.000297488	-0.000305382
  92	-0.000181139	-0.000229209	-0.00030851
  93	0.000570679	0.000644911	-0.000268087
  94	-0.000193933	0.00068788	-0.000534073
  95	1.67609e-05	-0.000535242	3.73035e-05
  96	-0.000311626	-0.00046998	-0.000217749
  97	5.28609e-05	0.000444482	0.000156561
  98	0.000606908	4.42739e-05	-5.26894e-05
  99	6.40404e-05	0.000841617	0.000459756
 100	-0.0004148	0.00037208	-9.96993e-05
 101	0.00125232	7.05083e-05	0.000640709
 102	0.000943438	-0.000593736	-0.000658437
 103	0.000309373	0.000345466	0.000293501
 104	2.02914e-05	0.000418027	0.000143166
 105	0.00044626	0.000386219	0.000372587
 106	0.000363907	0.000407823	0.000103123
 107	-0.000259945	4.59416e-05	-0.000119478
 108	-0.000273894	0.00082068	0.000147495
 109	0.000221414	-0.000117665	-0.000102662
 110	0.000212822	0.000174607	0.00038332
 111	0.000241146	-0.000123404	-0.000232105
 112	0.000395806	-2.76126e-05	-0.000239555
 113	5.18399e-06	-1.27539e-05	0.000673947
 114	0.00038957	0.000599346	0.000516067
 115	-0.000170956	-0.000243862	8.35984e-05
 116	-0.000233512	-0.000222788	-0.000184496
 117	0.000447173	-0.000408054	0.000482283
 118	-0.000771165	-9.70879e-05	0.000618468
 119	-0.000456016	-0.000342485	-0.000616143
 120	-0.000633154	-0.000147233	0.000151428
 121	-0.000149433	0.000219408	-0.000429139
 122	-0.000263855	-0.000182148	-0.000445311
 123	-0.000126332	0.00056612	-0.000688619
 124	-0.000267384	0.000364767	-6.99471e-05
 125	-0.000349196	-0.000473417	-0.000412207
 126	-0.00041926	-0.000240003	-0.00077447
 127	0.000330417	-0.00014765	-0.00040882
 128	-1.12096e-05	-4.52352e-05	-0.000326456
 129	0.000466793	-0.00022912	-0.000619598
 130	0.00017552	-0.000118089	-0.000544392
 131	-0.000213223	0.000170661	-0.000164654
 132	4.21883e-05	-0.000192528	-0.000112063
 133	0.000536384	-8.75648e-05	0.000859152
 134	0.000533414	-0.000152525	-9.64052e-05
 135	-2.03306e-05	0.000396869	0.00168261
 136	0.00118142	-0.000877428	0.0014402
 137	0.00051899	-0.000641516	-0.000436103
 138	0.000418748	0.000425472	-0.000398287
 139	-0.000162317	0.000510778	-0.000108798
 140	0.000131577	0.000443696	0.000115968
 141	-0.000419849	0.000442698	-0.000272097
 142	-0.000267262	0.000789544	-4.41927e-05
 143	0.000688326	0.00101941	-0.000195871
 144	-0.000550085	0.000422913	-0.00014408
 145	-0.000115995	-0.000558299	0.000200197
 146	-5.02736e-05	6.69065e-06	-0.000300194
 147	0.000493532	-0.0012973	0.000847009
 148	-0.00117487	-0.000706039	0.000514784
 149	0.000203445	-0.000204389	-0.000736506
 150	1.26835e-05	8.31339e-05	-0.000425585
 151	-3.61187e-05	7.87087e-05	-0.000455862
 152	0.000591667	-0.000365316	-0.000304741
 153	-0.000537401	-2.00653e-05	-0.000241026
 154	4.90893e-05	0.000566485	-0.000831821
 155	0.00136375	-0.000224018	-0.00100923
 156	0.00100919	-0.00104127	0.000420798
 157	0.000385214	0.00037668	-0.000236251
 158	2.23419e-05	4.76202e-05	-0.000274464
 159	0.000980337	-0.000372118	-0.000631576
 160	0.000891096	0.00110331	-0.000223754
 161	-0.000203906	-0.000330795	-0.000257423
 162	-0.000312405	0.000293257	-0.00034198
 163	-0.000864131	0.000416588	0.000428105
 164	-0.000477258	0.000444129	9.94919e-05
 165	-0.0010471	-0.000262718	0.00030063
 166	-0.00141421	0.000715776	0.000656775
 167	-0.00065618	0.000653704	0.000388758
 168	-0.000795249	0.00012084	-0.000305396
 169	0.000223438	0.000262008	0.000333833
 170	-0.000112839	0.000390759	0.000354121
 171	0.000534328	0.000445561	0.00041707
 172	0.00018119	0.000287931	0.000325637
 173	0.000234271	0.000254344	-0.000158683
 174	0.000279958	0.000516349	0.00116551
 175	0.000104525	-0.000203011	0.000606848
 176	0.000183663	-0.000299135	-9.1902e-05
 177	-0.00064456	0.000155623	0.00108111
 178	3.02971e-05	-0.000239263	-9.27503e-05
 179	-0.000602514	-2.66448e-05	-0.000774628
 180	0.000673225	-0.0010009	-0.000600897
 181	0.000284464	-2.46554e-05	-8.93814e-05
 182	0.000797252	-0.000617143	0.00124499

Bonds

   1	4	1	2
   2	1	1	3
   3	1	1	4
   4	2	2	5
   5	2	2	6
   6	4	7	8
   7	1	7	9
   8	1	7	10
   9	2	8	11
  10	2	8	12
  11	4	1	8
  12	4	13	14
  13	1	13	15
  14	1	13	16
  15	2	14	17
  16	2	14	18
  17	4	7	14
  18	4	19	20
  19	1	19	21
  20	1	19	22
  21	2	20	23
  22	2	20	24
  23	4	13	20
  24	4	25	26
  25	1	25	27
  26	1	25	28
  27	2	26	29
  28	2	26	30
  29	4	19	26
  30	4	31	32
  31	1	31	33
  32	1	31	34
  33	2	32	35
  34	2	32	36
  35	4	25	32
  36	4	37	38
  37	1	37	39
  38	1	37	40
  39	2	38	41
  40	2	38	42
  41	4	31	38
  42	4	43	44
  43	1	43	45
  44	1	43	46
  45	2	44	47
  46	2	44	48
  47	4	37	44
  48	4	49	50
  49	1	49	51
  50	1	49	52
  51	2	50	53
  52	2	50	54
  53	4	43	50
  54	4	55	56
  55	1	55	57
  56	1	55	58
  57	2	56	59
  58	2	56	60
  59	4	49	56
  60	4	61	62
  61	1	61	63
  62	1	61	64
  63	2	62	65
  64	2	62	66
  65	4	55	62
  66	4	67	68
  67	1	67	69
  68	1	67	70
  69	2	68	71
  70	2	68	72
  71	4	61	68
  72	4	73	74
  73	1	73	75
  74	1	73	76
  75	2	74	77
  76	2	74	78
  77	4	67	74
  78	4	79	80
  79	1	79	81
  80	1	79	82
  81	2	80	83
  82	2	80	84
  83	4	73	80
  84	4	85	86
  85	1	85	87
  86	1	85	88
  87	2	86	89
  88	2	86	90
  89	4	79	86
  90	4	91	92
  91	1	91	93
  92	1	91	94
  93	2	92	95
  94	2	92	96
  95	4	85	92
  96	4	97	98
  97	1	97	99
  98	1	97	100
  99	2	98	101
 100	2	98	102
 101	4	91	98
 102	4	103	104
 103	1	103	105
 104	1	103	106
 105	2	104	107
 106	2	104	108
 107	4	97	104
 108	4	109	110
 109	1	109	111
 110	1	109	112
 111	2	110	113
 112	2	110	114
 113	4	103	110
 114	4	115	116
 115	1	115	117
 116	1	115	118
 117	2	116	119
 118	2	116	120
 119	4	109	116
 120	4	121	122
 121	1	121	123
 122	1	121	124
 123	2	122	125
 124	2	122	126
 125	4	115	122
 126	4	127	128
 127	1	127	129
 128	1	127	130
 129	2	128	131
 130	2	128	132
 131	4	121	128
 132	4	133	134
 133	1	133	135
 134	1	133	136
 135	2	134	137
 136	2	134	138
 137	4	127	134
 138	4	139	140
 139	1	139	141
 140	1	139	142
 141	2	140	143
 142	2	140	144
 143	4	133	140
 144	4	145	146
 145	1	145	147
 146	1	145	148
 147	2	146	149
 148	2	146	150
 149	4	139	146
 150	4	151	152
 151	1	151	153
 152	1	151	154
 153	2	152	155
 154	2	152	156
 155	4	145	152
 156	4	157	158
 157	1	157	159
 158	1	157	160
 159	2	158	161
 160	2	158	162
 161	4	151	158
 162	4	163	164
 163	1	163	165
 164	1	163	166
 165	2	164	167
 166	2	164	168
 167	4	157	164
 168	4	169	170
 169	1	169	171
 170	1	169	172
 171	2	170	173
 172	2	170	174
 173	4	163	170
 174	4	175	176
 175	1	175	177
 176	1	175	178
 177	2	176	179
 178	2	176	180
 179	4	169	176
 180	3	2	181
 181	1	175	182

Angles

   1	2	2	1	3
   2	2	2	1	4
   3	4	3	1	4
   4	3	1	2	5
   5	3	1	2	6
   6	6	5	2	6
   7	2	8	7	9
   8	2	8	7	10
   9	4	9	7	10
  10	3	7	8	11
  11	3	7	8	12
  12	6	11	8	12
  13	7	2	1	8
  14	2	3	1	8
  15	2	4	1	8
  16	7	1	8	7
  17	3	1	8	11
  18	3	1	8	12
  19	2	14	13	15
  20	2	14	13	16
  21	4	15	13	16
  22	3	13	14	17
  23	3	13	14	18
  24	6	17	14	18
  25	7	8	7	14
  26	2	9	7	14
  27	2	10	7	14
  28	7	7	14	13
  29	3	7	14	17
  30	3	7	14	18
  31	2	20	19	21
  32	2	20	19	22
  33	4	21	19	22
  34	3	19	20	23
  35	3	19	20	24
  36	6	23	20	24
  37	7	14	13	20
  38	2	15	13	20
  39	2	16	13	20
  40	7	13	20	19
  41	3	13	20	23
  42	3	13	20	24
  43	2	26	25	27
  44	2	26	25	28
  45	4	27	25	28
  46	3	25	26	29
  47	3	25	26	30
  48	6	29	26	30
  49	7	20	19	26
  50	2	21	19	26
  51	2	22	19	26
  52	7	19	26	25
  53	3	19	26	29
  54	3	19	26	30
  55	2	32	31	33
  56	2	32	31	34
  57	4	33	31	34
  58	3	31	32	35
  59	3	31	32	36
  60	6	35	32	36
  61	7	26	25	32
  62	2	27	25	32
  63	2	28	25	32
  64	7	25	32	31
  65	3	25	32	35
  66	3	25	32	36
  67	2	38	37	39
  68	2	38	37	40
  69	4	39	37	40
  70	3	37	38	41
  71	3	37	38	42
  72	6	41	38	42
  73	7	32	31	38
  74	2	33	31	38
  75	2	34	31	38
  76	7	31	38	37
  77	3	31	38	41
  78	3	31	38	42
  79	2	44	43	45
  80	2	44	43	46
  81	4	45	43	46
  82	3	43	44	47
  83	3	43	44	48
  84	6	47	44	48
  85	7	38	37	44
  86	2	39	37	44
  87	2	40	37	44
  88	7	37	44	43
  89	3	37	44	47
  90	3	37	44	48
  91	2	50	49	51
  92	2	50	49	52
  93	4	51	49	52
  94	3	49	50	53
  95	3	49	50	54
  96	6	53	50	54
  97	7	44	43	50
  98	2	45	43	50
  99	2	46	43	50
 100	7	43	50	49
 101	3	43	50	53
 102	3	43	50	54
 103	2	56	55	57
 104	2	56	55	58
 105	4	57	55	58
 106	3	55	56	59
 107	3	55	56	60
 108	6	59	56	60
 109	7	50	49	56
 110	2	51	49	56
 111	2	52	49	56
 112	7	49	56	55
 113	3	49	56	59
 114	3	49	56	60
 115	2	62	61	63
 116	2	62	61	64
 117	4	63	61	64
 118	3	61	62	65
 119	3	61	62	66
 120	6	65	62	66
 121	7	56	55	62
 122	2	57	55	62
 123	2	58	55	62
 124	7	55	62	61
 125	3	55	62	65
 126	3	55	62	66
 127	2	68	67	69
 128	2	68	67	70
 129	4	69	67	70
 130	3	67	68	71
 131	3	67	68	72
 132	6	71	68	72
 133	7	62	61	68
 134	2	63	61	68
 135	2	64	61	68
 136	7	61	68	67
 137	3	61	68	71
 138	3	61	68	72
 139	2	74	73	75
 140	2	74	73	76
 141	4	75	73	76
 142	3	73	74	77
 143	3	73	74	78
 144	6	77	74	78
 145	7	68	67	74
 146	2	69	67	74
 147	2	70	67	74
 148	7	67	74	73
 149	3	67	74	77
 150	3	67	74	78
 151	2	80	79	81
 152	2	80	79	82
 153	4	81	79	82
 154	3	79	80	83
 155	3	79	80	84
 156	6	83	80	84
 157	7	74	73	80
 158	2	75	73	80
 159	2	76	73	80
 160	7	73	80	79
 161	3	73	80	83
 162	3	73	80	84
 163	2	86	85	87
 164	2	86	85	88
 165	4	87	85	88
 166	3	85	86	89
 167	3	85	86	90
 168	6	89	86	90
 169	7	80	79	86
 170	2	81	79	86
 171	2	82	79	86
 172	7	79	86	85
 173	3	79	86	89
 174	3	79	86	90
 175	2	92	91	93
 176	2	92	91	94
 177	4	93	91	94
 178	3	91	92	95
 179	3	91	92	96
 180	6	95	92	96
 181	7	86	85	92
 182	2	87	85	92
 183	2	88	85	92
 184	7	85	92	91
 185	3	85	92	95
 186	3	85	92	96
 187	2	98	97	99
 188	2	98	97	100
 189	4	99	97	100
 190	3	97	98	101
 191	3	97	98	102
 192	6	101	98	102
 193	7	92	91	98
 194	2	93	91	98
 195	2	94	91	98
 196	7	91	98	97
 197	3	91	98	101
 198	3	91	98	102
 199	2	104	103	105
 200	2	104	103	106
 201	4	105	103	106
 202	3	103	104	107
 203	3	103	104	108
 204	6	107	104	108
 205	7	98	97	104
 206	2	99	97	104
 207	2	100	97	104
 208	7	97	104	103
 209	3	97	104	107
 210	3	97	104	108
 211	2	110	109	111
 212	2	110	109	112
 213	4	111	109	112
 214	3	109	110	113
 215	3	109	110	114
 216	6	113	110	114
 217	7	104	103	110
 218	2	105	103	110
 219	2	106	103	110
 220	7	103	110	109
 221	3	103	110	113
 222	3	103	110	114
 223	2	116	115	117
 224	2	116	115	118
 225	4	117	115	118
 226	3	115	116	119
 227	3	115	116	120
 228	6	119	116	120
 229	7	110	109	116
 230	2	111	109	116
 231	2	112	109	116
 232	7	109	116	115
 233	3	109	116	119
 234	3	109	116	120
 235	2	122	121	123
 236	2	122	121	124
 237	4	123	121	124
 238	3	121	122	125
 239	3	121	122	126
 240	6	125	122	126
 241	7	116	115	122
 242	2	117	115	122
 243	2	118	115	122
 244	7	115	122	121
 245	3	115	122	125
 246	3	115	122	126
 247	2	128	127	129
 248	2	128	127	130
 249	4	129	127	130
 250	3	127	128	131
 251	3	127	128	132
 252	6	131	128	132
 253	7	122	121	128
 254	2	123	121	128
 255	2	124	121	128
 256	7	121	128	127
 257	3	121	128	131
 258	3	121	128	132
 259	2	134	133	135
 260	2	134	133	136
 261	4	135	133	136
 262	3	133	134	137
 263	3	133	134	138
 264	6	137	134	138
 265	7	128	127	134
 266	2	129	127	134
 267	2	130	127	134
 268	7	127	134	133
 269	3	127	134	137
 270	3	127	134	138
 271	2	140	139	141
 272	2	140	139	142
 273	4	141	139	142
 274	3	139	140	143
 275	3	139	140	144
 276	6	143	140	144
 277	7	134	133	140
 278	2	135	133	140
 279	2	136	133	140
 280	7	133	140	139
 281	3	133	140	143
 282	3	133	140	144
 283	2	146	145	147
 284	2	146	145	148
 285	4	147	145	148
 286	3	145	146	149
 287	3	145	146	150
 288	6	149	146	150
 289	7	140	139	146
 290	2	141	139	146
 291	2	142	139	146
 292	7	139	146	145
 293	3	139	146	149
 294	3	139	146	150
 295	2	152	151	153
 296	2	152	151	154
 297	4	153	151	154
 298	3	151	152	155
 299	3	151	152	156
 300	6	155	152	156
 301	7	146	145	152
 302	2	147	145	152
 303	2	148	145	152
 304	7	145	152	151
 305	3	145	152	155
 306	3	145	152	156
 307	2	158	157	159
 308	2	158	157	160
 309	4	159	157	160
 310	3	157	158	161
 311	3	157	158	162
 312	6	161	158	162
 313	7	152	151	158
 314	2	153	151	158
 315	2	154	151	158
 316	7	151	158	157
 317	3	151	158	161
 318	3	151	158	162
 319	2	164	163	165
 320	2	164	163	166
 321	4	165	163	166
 322	3	163	164	167
 323	3	163	164	168
 324	6	167	164	168
 325	7	158	157	164
 326	2	159	157	164
 327	2	160	157	164
 328	7	157	164	163
 329	3	157	164	167
 330	3	157	164	168
 331	2	170	169	171
 332	2	170	169	172
 333	4	171	169	172
 334	3	169	170	173
 335	3	169	170	174
 336	6	173	170	174
 337	7	164	163	170
 338	2	165	163	170
 339	2	166	163	170
 340	7	163	170	169
 341	3	163	170	173
 342	3	163	170	174
 343	2	176	175	177
 344	2	176	175	178
 345	4	177	175	178
 346	3	175	176	179
 347	3	175	176	180
 348	6	179	176	180
 349	7	170	169	176
 350	2	171	169	176
 351	2	172	169	176
 352	7	169	176	175
 353	3	169	176	179
 354	3	169	176	180
 355	5	1	2	181
 356	1	5	2	181
 357	1	6	2	181
 358	2	176	175	182
 359	4	177	175	182
 360	4	178	175	182

Dihedrals

   1	1	3	1	2	5
   2	1	3	1	2	6
   3	1	4	1	2	5
   4	1	4	1	2	6
   5	1	9	7	8	11
   6	1	9	7	8	12
   7	1	10	7	8	11
   8	1	10	7	8	12
   9	2	5	2	1	8
  10	2	6	2	1	8
  11	3	1	8	7	9
  12	3	1	8	7	10
  13	4	2	1	8	7
  14	2	2	1	8	11
  15	2	2	1	8	12
  16	3	3	1	8	7
  17	1	3	1	8	11
  18	1	3	1	8	12
  19	3	4	1	8	7
  20	1	4	1	8	11
  21	1	4	1	8	12
  22	1	15	13	14	17
  23	1	15	13	14	18
  24	1	16	13	14	17
  25	1	16	13	14	18
  26	2	11	8	7	14
  27	2	12	8	7	14
  28	4	1	8	7	14
  29	3	7	14	13	15
  30	3	7	14	13	16
  31	4	8	7	14	13
  32	2	8	7	14	17
  33	2	8	7	14	18
  34	3	9	7	14	13
  35	1	9	7	14	17
  36	1	9	7	14	18
  37	3	10	7	14	13
  38	1	10	7	14	17
  39	1	10	7	14	18
  40	1	21	19	20	23
  41	1	21	19	20	24
  42	1	22	19	20	23
  43	1	22	19	20	24
  44	2	17	14	13	20
  45	2	18	14	13	20
  46	4	7	14	13	20
  47	3	13	20	19	21
  48	3	13	20	19	22
  49	4	14	13	20	19
  50	2	14	13	20	23
  51	2	14	13	20	24
  52	3	15	13	20	19
  53	1	15	13	20	23
  54	1	15	13	20	24
  55	3	16	13	20	19
  56	1	16	13	20	23
  57	1	16	13	20	24
  58	1	27	25	26	29
  59	1	27	25	26	30
  60	1	28	25	26	29
  61	1	28	25	26	30
  62	2	23	20	19	26
  63	2	24	20	19	26
  64	4	13	20	19	26
  65	3	19	26	25	27
  66	3	19	26	25	28
  67	4	20	19	26	25
  68	2	20	19	26	29
  69	2	20	19	26	30
  70	3	21	19	26	25
  71	1	21	19	26	29
  72	1	21	19	26	30
  73	3	22	19	26	25
  74	1	22	19	26	29
  75	1	22	19	26	30
  76	1	33	31	32	35
  77	1	33	31	32	36
  78	1	34	31	32	35
  79	1	34	31	32	36
  80	2	29	26	25	32
  81	2	30	26	25	32
  82	4	19	26	25	32
  83	3	25	32	31	33
  84	3	25	32	31	34
  85	4	26	25	32	31
  86	2	26	25	32	35
  87	2	26	25	32	36
  88	3	27	25	32	31
  89	1	27	25	32	35
  90	1	27	25	32	36
  91	3	28	25	32	31
  92	1	28	25	32	35
  93	1	28	25	32	36
  94	1	39	37	38	41
  95	1	39	37	38	42
  96	1	40	37	38	41
  97	1	40	37	38	42
  98	2	35	32	31	38
  99	2	36	32	31	38
 100	4	25	32	31	38
 101	3	31	38	37	39
 102	3	31	38	37	40
 103	4	32	31	38	37
 104	2	32	31	38	41
 105	2	32	31	38	42
 106	3	33	31	38	37
 107	1	33	31	38	41
 108	1	33	31	38	42
 109	3	34	31	38	37
 110	1	34	31	38	41
 111	1	34	31	38	42
 112	1	45	43	44	47
 113	1	45	43	44	48
 114	1	46	43	44	47
 115	1	46	43	44	48
 116	2	41	38	37	44
 117	2	42	38	37	44
 118	4	31	38	37	44
 119	3	37	44	43	45
 120	3	37	44	43	46
 121	4	38	37	44	43
 122	2	38	37	44	47
 123	2	38	37	44	48
 124	3	39	37	44	43
 125	1	39	37	44	47
 126	1	39	37	44	48
 127	3	40	37	44	43
 128	1	40	37	44	47
 129	1	40	37	44	48
 130	1	51	49	50	53
 131	1	51	49	50	54
 132	1	52	49	50	53
 133	1	52	49	50	54
 134	2	47	44	43	50
 135	2	48	44	43	50
 136	4	37	44	43	50
 137	3	43	50	49	51
 138	3	43	50	49	52
 139	4	44	43	50	49
 140	2	44	43	50	53
 141	2	44	43	50	54
 142	3	45	43	50	49
 143	1	45	43	50	53
 144	1	45	43	50	54
 145	3	46	43	50	49
 146	1	46	43	50	53
 147	1	46	43	50	54
 148	1	57	55	56	59
 149	1	57	55	56	60
 150	1	58	55	56	59
 151	1	58	55	56	60
 152	2	53	50	49	56
 153	2	54	50	49	56
 154	4	43	50	49	56
 155	3	49	56	55	57
 156	3	49	56	55	58
 157	4	50	49	56	55
 158	2	50	49	56	59
 159	2	50	49	56	60
 160	3	51	49	56	55
 161	1	51	49	56	59
 162	1	51	49	56	60
 163	3	52	49	56	55
 164	1	52	49	56	59
 165	1	52	49	56	60
 166	1	63	61	62	65
 167	1	63	61	62	66
 168	1	64	61	62	65
 169	1	64	61	62	66
 170	2	59	56	55	62
 171	2	60	56	55	62
 172	4	49	56	55	62
 173	3	55	62	61	63
 174	3	55	62	61	64
 175	4	56	55	62	61
 176	2	56	55	62	65
 177	2	56	55	62	66
 178	3	57	55	62	61
 179	1	57	55	62	65
 180	1	57	55	62	66
 181	3	58	55	62	61
 182	1	58	55	62	65
 183	1	58	55	62	66
 184	1	69	67	68	71
 185	1	69	67	68	72
 186	1	70	67	68	71
 187	1	70	67	68	72
 188	2	65	62	61	68
 189	2	66	62	61	68
 190	4	55	62	61	68
 191	3	61	68	67	69
 192	3	61	68	67	70
 193	4	62	61	68	67
 194	2	62	61	68	71
 195	2	62	61	68	72
 196	3	63	61	68	67
 197	1	63	61	68	71
 198	1	63	61	68	72
 199	3	64	61	68	67
 200	1	64	61	68	71
 201	1	64	61	68	72
 202	1	75	73	74	77
 203	1	75	73	74	78
 204	1	76	73	74	77
 205	1	76	73	74	78
 206	2	71	68	67	74
 207	2	72	68	67	74
 208	4	61	68	67	74
 209	3	67	74	73	75
 210	3	67	74	73	76
 211	4	68	67	74	73
 212	2	68	67	74	77
 213	2	68	67	74	78
 214	3	69	67	74	73
 215	1	69	67	74	77
 216	1	69	67	74	78
 217	3	70	67	74	73
 218	1	70	67	74	77
 219	1	70	67	74	78
 220	1	81	79	80	83
 221	1	81	79	80	84
 222	1	82	79	80	83
 223	1	82	79	80	84
 224	2	77	74	73	80
 225	2	78	74	73	80
 226	4	67	74	73	80
 227	3	73	80	79	81
 228	3	73	80	79	82
 229	4	74	73	80	79
 230	2	74	73	80	83
 231	2	74	73	80	84
 232	3	75	73	80	79
 233	1	75	73	80	83
 234	1	75	73	80	84
 235	3	76	73	80	79
 236	1	76	73	80	83
 237	1	76	73	80	84
 238	1	87	85	86	89
 239	1	87	85	86	90
 240	1	88	85	86	89
 241	1	88	85	86	90
 242	2	83	80	79	86
 243	2	84	80	79	86
 244	4	73	80	79	86
 245	3	79	86	85	87
 246	3	79	86	85	88
 247	4	80	79	86	85
 248	2	80	79	86	89
 249	2	80	79	86	90
 250	3	81	79	86	85
 251	1	81	79	86	89
 252	1	81	79	86	90