pySIMM System Object

68 atoms
67 bonds
132 angles
189 dihedrals
0 impropers

4 atom types
4 bond types
7 angle types
4 dihedral types

-64.306653 64.306653 xlo xhi
-64.306653 64.306653 ylo yhi
-64.306653 64.306653 zlo zhi

Masses

   1	12.01	# c3
   2	1.008	# hc
   3	19.0	# f
   4	1.008	# h2

Pair Coeffs

   1	0.1094	3.3996695084235347	# c3
   2	0.0157	2.649532787749369	# hc
   3	0.061	3.1181455134911875	# f
   4	0.0157	2.2931733004932333	# h2

Bond Coeffs

   1	330.6	1.0969	# c3,hc
   2	356.9	1.3497	# c3,f
   3	331.7	1.0961	# c3,h2
   4	300.9	1.5375	# c3,c3

Angle Coeffs

   1	51.15	108.79	# f,c3,h2
   2	46.34	109.8	# c3,c3,hc
   3	66.11	109.24	# c3,c3,f
   4	39.4	107.58	# hc,c3,hc
   5	46.25	110.22	# c3,c3,h2
   6	70.89	107.36	# f,c3,f
   7	62.86	111.51	# c3,c3,c3

Dihedral Coeffs

   1	2	0.0	3	0	0.19	1	0	# hc,c3,c3,f
   2	1	0.15555555555555556	3	0	# X,c3,c3,X
   3	1	0.16	3	0	# hc,c3,c3,c3
   4	3	0.18	3	0	0.25	2	180	0.2	1	180	# c3,c3,c3,c3

Atoms

   1	1	1	0.070548	-5.83352	-1.74104	5.43415
   2	1	1	0.506757	-7.21167	-2.41963	5.58481
   3	1	2	-0.012767	-5.40078	-2.02189	4.4658
   4	1	2	-0.014806	-5.97765	-0.652016	5.41295
   5	1	3	-0.274996	-7.11911	-3.76206	5.47096
   6	1	3	-0.274736	-8.02693	-2.00181	4.59222
   7	1	1	0.070548	-3.52267	-1.31312	6.60689
   8	1	1	0.506757	-4.86276	-2.09674	6.58801
   9	1	2	-0.012767	-2.87275	-1.75783	7.37315
  10	1	2	-0.014806	-3.71565	-0.285852	6.94753
  11	1	3	-0.274996	-4.58802	-3.41886	6.5976
  12	1	3	-0.274736	-5.48564	-1.84196	7.76163
  13	1	1	0.070548	-1.25755	-0.859583	5.51398
  14	1	1	0.506757	-2.74446	-1.24169	5.2678
  15	1	2	-0.012767	-0.721448	-1.75758	5.85177
  16	1	2	-0.014806	-1.19937	-0.153031	6.35343
  17	1	3	-0.274996	-2.7989	-2.4218	4.6161
  18	1	3	-0.274736	-3.3545	-0.331888	4.47895
  19	1	1	0.070548	-0.910795	1.23948	4.03211
  20	1	1	0.506757	-0.504015	-0.242854	4.30439
  21	1	2	-0.012767	-1.73455	1.52224	4.69961
  22	1	2	-0.014806	-0.0866269	1.89211	4.35349
  23	1	3	-0.274996	-0.603855	-1.04552	3.22497
  24	1	3	-0.274736	0.814385	-0.250091	4.60652
  25	1	1	0.070548	-0.0370921	1.91472	1.70426
  26	1	1	0.506757	-1.28716	1.6321	2.57726
  27	1	2	-0.012767	0.682923	1.09543	1.80087
  28	1	2	-0.014806	0.47454	2.7843	2.14047
  29	1	3	-0.274996	-2.10334	0.72436	2.00262
  30	1	3	-0.274736	-2.02555	2.75975	2.66965
  31	1	1	0.070548	-0.706137	1.04869	-0.727834
  32	1	1	0.506757	-0.305138	2.22866	0.204061
  33	1	2	-0.012767	-1.68262	0.653037	-0.423903
  34	1	2	-0.014806	-0.872238	1.45984	-1.73366
  35	1	3	-0.274996	-1.25834	3.1785	0.0904391
  36	1	3	-0.274736	0.802085	2.82497	-0.28969
  37	1	1	0.070548	1.71919	0.27682	-1.32841
  38	1	1	0.506757	0.291535	-0.133712	-0.866635
  39	1	2	-0.012767	1.65601	1.18801	-1.93632
  40	1	2	-0.014806	2.30166	0.558255	-0.439134
  41	1	3	-0.274996	0.373153	-0.79962	0.303138
  42	1	3	-0.274736	-0.263739	-1.00012	-1.73938
  43	1	1	0.070548	2.09852	-0.80362	-3.64708
  44	1	1	0.506757	2.51915	-0.777291	-2.14398
  45	1	2	-0.012767	1.95995	0.226735	-3.98571
  46	1	2	-0.014806	1.10383	-1.2572	-3.72678
  47	1	3	-0.274996	2.40444	-1.99916	-1.58226
  48	1	3	-0.274736	3.82192	-0.445711	-2.02676
  49	1	1	0.070548	4.37783	-0.843527	-5.00102
  50	1	1	0.506757	3.0334	-1.55233	-4.64392
  51	1	2	-0.012767	5.16172	-1.61034	-5.07703
  52	1	2	-0.014806	4.69354	-0.200916	-4.17558
  53	1	3	-0.274996	3.30606	-2.78176	-4.15663
  54	1	3	-0.274736	2.32694	-1.77777	-5.7737
  55	1	1	0.070548	3.29466	1.04951	-6.48436
  56	1	1	0.506757	4.44498	0.0216801	-6.29319
  57	1	2	-0.012767	2.45354	0.547055	-6.98193
  58	1	2	-0.014806	2.91916	1.34628	-5.50053
  59	1	3	-0.274996	5.63596	0.654974	-6.24066
  60	1	3	-0.274736	4.50371	-0.780329	-7.37955
  61	1	1	0.070548	4.65415	2.29325	-8.41014
  62	1	1	0.506757	3.62262	2.36301	-7.25377
  63	1	2	-0.012767	4.54079	3.15515	-9.08074
  64	1	2	-0.014806	5.68435	2.32523	-8.03337
  65	1	3	-0.274996	4.03319	3.29128	-6.35978
  66	1	3	-0.274736	2.46243	2.84024	-7.75944
  67	1	4	0	-7.67441	-2.16787	6.54599
  68	1	2	0	4.53018	1.38292	-9.0077

Velocities

   1	0.000623888	-0.000702841	-0.00042061
   2	0.000270477	0.000243076	-4.83489e-05
   3	0.000487781	-0.00162645	-0.000242601
   4	0.00145636	-0.000639783	-0.00118317
   5	-0.000866046	0.000292274	-0.00197545
   6	-0.000626348	0.00239369	0.00162812
   7	-4.6473e-06	-0.00071923	0.000616805
   8	0.000117544	-0.000911594	-7.63029e-05
   9	-0.000147298	-0.000677244	0.000720263
  10	-0.000258483	-0.00082276	0.000633834
  11	0.000157128	-0.000933426	-0.000302844
  12	-0.000198065	-0.00121867	-0.000255868
  13	1.70786e-05	0.000475462	0.000579186
  14	0.000224061	-0.000457706	0.000716908
  15	0.000642509	0.000812296	0.000375125
  16	-0.000193749	0.000438258	0.000670797
  17	0.00097667	-0.000557057	0.00098499
  18	-0.000257958	-0.00102724	0.000477598
  19	-0.0014767	0.000742501	0.000560077
  20	-0.000783617	0.000890145	0.000398134
  21	-0.00279566	-0.000263777	-0.000615336
  22	-0.00254364	0.0013079	0.00211567
  23	-0.0012017	0.00104314	0.000259106
  24	-0.000566721	0.00150847	-0.000478809
  25	0.000770887	-0.000941314	0.00034845
  26	0.00021801	0.00107829	0.000251312
  27	-0.00053331	-0.00212128	0.000172347
  28	0.00229665	-0.00185679	0.000400451
  29	-0.00100162	0.00219472	0.000192815
  30	0.00199064	0.00226258	-0.000101956
  31	-0.000184983	0.000168223	0.000150929
  32	0.00072382	-0.000328672	0.000382292
  33	-0.000248539	0.000450106	0.000279395
  34	-0.000276007	0.000590174	0.000336993
  35	0.00115384	0.000141543	0.000701031
  36	0.00083288	-0.000621668	0.000299195
  37	-0.000900787	-0.000111079	-0.00102857
  38	-0.000687112	-0.000132373	-0.000638819
  39	-0.00128443	-0.000514671	-0.00160432
  40	-0.000869476	0.000667889	-0.00127584
  41	-0.00038975	-0.000606131	-0.00092041
  42	-0.00114249	0.000391305	-0.000887145
  43	-0.000195636	-0.000547252	-0.00057946
  44	-0.000829084	-0.00046064	-0.000449209
  45	-0.00104398	-0.000634214	-0.00059545
  46	0.000188779	-0.00140074	-0.000812494
  47	-0.00156789	-0.00038969	-0.000386731
  48	-0.000767707	-0.00094049	0.000309903
  49	0.000849897	0.00101508	0.000887673
  50	0.00066435	0.000397473	-0.000297084
  51	0.00118237	0.00131909	0.00150823
  52	-6.7939e-05	0.00126231	0.00104757
  53	0.000635611	0.0001867	-0.000937701
  54	0.00143307	0.000934173	-0.000845746
  55	0.00100668	0.000439262	0.000603315
  56	0.00124531	0.000864256	0.000878955
  57	0.00127415	0.000102845	0.000428239
  58	0.000694696	0.000548093	0.000392546
  59	0.00100815	0.00127604	0.000941756
  60	0.00181102	0.000563008	0.00108063
  61	-0.00181914	-0.00161648	-0.00182483
  62	0.000617901	6.36744e-05	0.000122731
  63	-0.00235036	-0.00197989	-0.00227474
  64	-0.00111865	-0.00251671	-0.00375267
  65	0.00359482	-0.000237098	-0.000907583
  66	0.000110421	0.00111158	0.00231513
  67	0.00170042	-0.000677612	0.000858675
  68	-0.00401996	-0.00194612	-0.000840596

Bonds

   1	4	1	2
   2	1	1	3
   3	1	1	4
   4	2	2	5
   5	2	2	6
   6	4	7	8
   7	1	7	9
   8	1	7	10
   9	2	8	11
  10	2	8	12
  11	4	1	8
  12	4	13	14
  13	1	13	15
  14	1	13	16
  15	2	14	17
  16	2	14	18
  17	4	7	14
  18	4	19	20
  19	1	19	21
  20	1	19	22
  21	2	20	23
  22	2	20	24
  23	4	13	20
  24	4	25	26
  25	1	25	27
  26	1	25	28
  27	2	26	29
  28	2	26	30
  29	4	19	26
  30	4	31	32
  31	1	31	33
  32	1	31	34
  33	2	32	35
  34	2	32	36
  35	4	25	32
  36	4	37	38
  37	1	37	39
  38	1	37	40
  39	2	38	41
  40	2	38	42
  41	4	31	38
  42	4	43	44
  43	1	43	45
  44	1	43	46
  45	2	44	47
  46	2	44	48
  47	4	37	44
  48	4	49	50
  49	1	49	51
  50	1	49	52
  51	2	50	53
  52	2	50	54
  53	4	43	50
  54	4	55	56
  55	1	55	57
  56	1	55	58
  57	2	56	59
  58	2	56	60
  59	4	49	56
  60	4	61	62
  61	1	61	63
  62	1	61	64
  63	2	62	65
  64	2	62	66
  65	4	55	62
  66	3	2	67
  67	1	61	68

Angles

   1	2	2	1	3
   2	2	2	1	4
   3	4	3	1	4
   4	3	1	2	5
   5	3	1	2	6
   6	6	5	2	6
   7	2	8	7	9
   8	2	8	7	10
   9	4	9	7	10
  10	3	7	8	11
  11	3	7	8	12
  12	6	11	8	12
  13	7	2	1	8
  14	2	3	1	8
  15	2	4	1	8
  16	7	1	8	7
  17	3	1	8	11
  18	3	1	8	12
  19	2	14	13	15
  20	2	14	13	16
  21	4	15	13	16
  22	3	13	14	17
  23	3	13	14	18
  24	6	17	14	18
  25	7	8	7	14
  26	2	9	7	14
  27	2	10	7	14
  28	7	7	14	13
  29	3	7	14	17
  30	3	7	14	18
  31	2	20	19	21
  32	2	20	19	22
  33	4	21	19	22
  34	3	19	20	23
  35	3	19	20	24
  36	6	23	20	24
  37	7	14	13	20
  38	2	15	13	20
  39	2	16	13	20
  40	7	13	20	19
  41	3	13	20	23
  42	3	13	20	24
  43	2	26	25	27
  44	2	26	25	28
  45	4	27	25	28
  46	3	25	26	29
  47	3	25	26	30
  48	6	29	26	30
  49	7	20	19	26
  50	2	21	19	26
  51	2	22	19	26
  52	7	19	26	25
  53	3	19	26	29
  54	3	19	26	30
  55	2	32	31	33
  56	2	32	31	34
  57	4	33	31	34
  58	3	31	32	35
  59	3	31	32	36
  60	6	35	32	36
  61	7	26	25	32
  62	2	27	25	32
  63	2	28	25	32
  64	7	25	32	31
  65	3	25	32	35
  66	3	25	32	36
  67	2	38	37	39
  68	2	38	37	40
  69	4	39	37	40
  70	3	37	38	41
  71	3	37	38	42
  72	6	41	38	42
  73	7	32	31	38
  74	2	33	31	38
  75	2	34	31	38
  76	7	31	38	37
  77	3	31	38	41
  78	3	31	38	42
  79	2	44	43	45
  80	2	44	43	46
  81	4	45	43	46
  82	3	43	44	47
  83	3	43	44	48
  84	6	47	44	48
  85	7	38	37	44
  86	2	39	37	44
  87	2	40	37	44
  88	7	37	44	43
  89	3	37	44	47
  90	3	37	44	48
  91	2	50	49	51
  92	2	50	49	52
  93	4	51	49	52
  94	3	49	50	53
  95	3	49	50	54
  96	6	53	50	54
  97	7	44	43	50
  98	2	45	43	50
  99	2	46	43	50
 100	7	43	50	49
 101	3	43	50	53
 102	3	43	50	54
 103	2	56	55	57
 104	2	56	55	58
 105	4	57	55	58
 106	3	55	56	59
 107	3	55	56	60
 108	6	59	56	60
 109	7	50	49	56
 110	2	51	49	56
 111	2	52	49	56
 112	7	49	56	55
 113	3	49	56	59
 114	3	49	56	60
 115	2	62	61	63
 116	2	62	61	64
 117	4	63	61	64
 118	3	61	62	65
 119	3	61	62	66
 120	6	65	62	66
 121	7	56	55	62
 122	2	57	55	62
 123	2	58	55	62
 124	7	55	62	61
 125	3	55	62	65
 126	3	55	62	66
 127	5	1	2	67
 128	1	5	2	67
 129	1	6	2	67
 130	2	62	61	68
 131	4	63	61	68
 132	4	64	61	68

Dihedrals

   1	1	3	1	2	5
   2	1	3	1	2	6
   3	1	4	1	2	5
   4	1	4	1	2	6
   5	1	9	7	8	11
   6	1	9	7	8	12
   7	1	10	7	8	11
   8	1	10	7	8	12
   9	2	5	2	1	8
  10	2	6	2	1	8
  11	3	1	8	7	9
  12	3	1	8	7	10
  13	4	2	1	8	7
  14	2	2	1	8	11
  15	2	2	1	8	12
  16	3	3	1	8	7
  17	1	3	1	8	11
  18	1	3	1	8	12
  19	3	4	1	8	7
  20	1	4	1	8	11
  21	1	4	1	8	12
  22	1	15	13	14	17
  23	1	15	13	14	18
  24	1	16	13	14	17
  25	1	16	13	14	18
  26	2	11	8	7	14
  27	2	12	8	7	14
  28	4	1	8	7	14
  29	3	7	14	13	15
  30	3	7	14	13	16
  31	4	8	7	14	13
  32	2	8	7	14	17
  33	2	8	7	14	18
  34	3	9	7	14	13
  35	1	9	7	14	17
  36	1	9	7	14	18
  37	3	10	7	14	13
  38	1	10	7	14	17
  39	1	10	7	14	18
  40	1	21	19	20	23
  41	1	21	19	20	24
  42	1	22	19	20	23
  43	1	22	19	20	24
  44	2	17	14	13	20
  45	2	18	14	13	20
  46	4	7	14	13	20
  47	3	13	20	19	21
  48	3	13	20	19	22
  49	4	14	13	20	19
  50	2	14	13	20	23
  51	2	14	13	20	24
  52	3	15	13	20	19
  53	1	15	13	20	23
  54	1	15	13	20	24
  55	3	16	13	20	19
  56	1	16	13	20	23
  57	1	16	13	20	24
  58	1	27	25	26	29
  59	1	27	25	26	30
  60	1	28	25	26	29
  61	1	28	25	26	30
  62	2	23	20	19	26
  63	2	24	20	19	26
  64	4	13	20	19	26
  65	3	19	26	25	27
  66	3	19	26	25	28
  67	4	20	19	26	25
  68	2	20	19	26	29
  69	2	20	19	26	30
  70	3	21	19	26	25
  71	1	21	19	26	29
  72	1	21	19	26	30
  73	3	22	19	26	25
  74	1	22	19	26	29
  75	1	22	19	26	30
  76	1	33	31	32	35
  77	1	33	31	32	36
  78	1	34	31	32	35
  79	1	34	31	32	36
  80	2	29	26	25	32
  81	2	30	26	25	32
  82	4	19	26	25	32
  83	3	25	32	31	33
  84	3	25	32	31	34
  85	4	26	25	32	31
  86	2	26	25	32	35
  87	2	26	25	32	36
  88	3	27	25	32	31
  89	1	27	25	32	35
  90	1	27	25	32	36
  91	3	28	25	32	31
  92	1	28	25	32	35
  93	1	28	25	32	36
  94	1	39	37	38	41
  95	1	39	37	38	42
  96	1	40	37	38	41
  97	1	40	37	38	42
  98	2	35	32	31	38
  99	2	36	32	31	38
 100	4	25	32	31	38
 101	3	31	38	37	39
 102	3	31	38	37	40
 103	4	32	31	38	37
 104	2	32	31	38	41
 105	2	32	31	38	42
 106	3	33	31	38	37
 107	1	33	31	38	41
 108	1	33	31	38	42
 109	3	34	31	38	37
 110	1	34	31	38	41
 111	1	34	31	38	42
 112	1	45	43	44	47
 113	1	45	43	44	48
 114	1	46	43	44	47
 115	1	46	43	44	48
 116	2	41	38	37	44
 117	2	42	38	37	44
 118	4	31	38	37	44
 119	3	37	44	43	45
 120	3	37	44	43	46
 121	4	38	37	44	43
 122	2	38	37	44	47
 123	2	38	37	44	48
 124	3	39	37	44	43
 125	1	39	37	44	47
 126	1	39	37	44	48
 127	3	40	37	44	43
 128	1	40	37	44	47
 129	1	40	37	44	48
 130	1	51	49	50	53
 131	1	51	49	50	54
 132	1	52	49	50	53
 133	1	52	49	50	54
 134	2	47	44	43	50
 135	2	48	44	43	50
 136	4	37	44	43	50
 137	3	43	50	49	51
 138	3	43	50	49	52
 139	4	44	43	50	49
 140	2	44	43	50	53
 141	2	44	43	50	54
 142	3	45	43	50	49
 143	1	45	43	50	53
 144	1	45	43	50	54
 145	3	46	43	50	49
 146	1	46	43	50	53
 147	1	46	43	50	54
 148	1	57	55	56	59
 149	1	57	55	56	60
 150	1	58	55	56	59
 151	1	58	55	56	60
 152	2	53	50	49	56
 153	2	54	50	49	56
 154	4	43	50	49	56
 155	3	49	56	55	57
 156	3	49	56	55	58
 157	4	50	49	56	55
 158	2	50	49	56	59
 159	2	50	49	56	60
 160	3	51	49	56	55
 161	1	51	49	56	59
 162	1	51	49	56	60
 163	3	52	49	56	55
 164	1	52	49	56	59
 165	1	52	49	56	60
 166	1	63	61	62	65
 167	1	63	61	62	66
 168	1	64	61	62	65
 169	1	64	61	62	66
 170	2	59	56	55	62
 171	2	60	56	55	62
 172	4	49	56	55	62
 173	3	55	62	61	63
 174	3	55	62	61	64
 175	4	56	55	62	61
 176	2	56	55	62	65
 177	2	56	55	62	66
 178	3	57	55	62	61
 179	1	57	55	62	65
 180	1	57	55	62	66
 181	3	58	55	62	61
 182	1	58	55	62	65
 183	1	58	55	62	66
 184	2	3	1	2	67
 185	2	4	1	2	67
 186	2	8	1	2	67
 187	1	65	62	61	68
 188	1	66	62	61	68
 189	3	55	62	61	68

