pySIMM System Object

200 atoms
199 bonds
396 angles
585 dihedrals
0 impropers

4 atom types
4 bond types
7 angle types
4 dihedral types

-94.763094 94.763094 xlo xhi
-94.763094 94.763094 ylo yhi
-94.763094 94.763094 zlo zhi

Masses

   1	12.01	# c3
   2	1.008	# hc
   3	19.0	# f
   4	1.008	# h2

Pair Coeffs

   1	0.1094	3.3996695084235347	# c3
   2	0.0157	2.649532787749369	# hc
   3	0.061	3.1181455134911875	# f
   4	0.0157	2.2931733004932333	# h2

Bond Coeffs

   1	330.6	1.0969	# c3,hc
   2	356.9	1.3497	# c3,f
   3	331.7	1.0961	# c3,h2
   4	300.9	1.5375	# c3,c3

Angle Coeffs

   1	51.15	108.79	# f,c3,h2
   2	46.34	109.8	# c3,c3,hc
   3	66.11	109.24	# c3,c3,f
   4	39.4	107.58	# hc,c3,hc
   5	46.25	110.22	# c3,c3,h2
   6	70.89	107.36	# f,c3,f
   7	62.86	111.51	# c3,c3,c3

Dihedral Coeffs

   1	2	0.0	3	0	0.19	1	0	# hc,c3,c3,f
   2	1	0.15555555555555556	3	0	# X,c3,c3,X
   3	1	0.16	3	0	# hc,c3,c3,c3
   4	3	0.18	3	0	0.25	2	180	0.2	1	180	# c3,c3,c3,c3

Atoms

   1	1	1	0.070548	-21.186	-9.12764	3.87484
   2	1	1	0.506757	-20.8849	-10.4185	3.08411
   3	1	2	-0.012767	-21.7723	-9.37769	4.76921
   4	1	2	-0.014806	-20.2371	-8.7041	4.22719
   5	1	3	-0.274996	-20.5678	-11.4084	3.94668
   6	1	3	-0.274736	-19.8194	-10.2463	2.2724
   7	1	1	0.070548	-22.5623	-6.90914	3.85447
   8	1	1	0.506757	-21.9609	-8.0849	3.03271
   9	1	2	-0.012767	-23.1402	-7.34273	4.68233
  10	1	2	-0.014806	-23.3081	-6.38403	3.2449
  11	1	3	-0.274996	-22.9949	-8.70616	2.42124
  12	1	3	-0.274736	-21.1732	-7.62383	2.03982
  13	1	1	0.070548	-20.7471	-4.98903	3.47567
  14	1	1	0.506757	-21.5689	-5.87384	4.45513
  15	1	2	-0.012767	-20.0112	-5.62308	2.96911
  16	1	2	-0.014806	-20.1536	-4.28343	4.07328
  17	1	3	-0.274996	-22.2598	-5.07322	5.2963
  18	1	3	-0.274736	-20.6964	-6.5169	5.26021
  19	1	1	0.070548	-20.7315	-3.11391	1.64641
  20	1	1	0.506757	-21.5595	-4.16988	2.42992
  21	1	2	-0.012767	-21.3762	-2.67213	0.878122
  22	1	2	-0.014806	-20.4811	-2.2843	2.32224
  23	1	3	-0.274996	-22.5655	-3.51081	3.04367
  24	1	3	-0.274736	-22.1624	-4.98711	1.54
  25	1	1	0.070548	-18.8621	-2.75191	-0.140795
  26	1	1	0.506757	-19.4182	-3.64224	1.00601
  27	1	2	-0.012767	-17.7712	-2.85836	-0.196283
  28	1	2	-0.014806	-19.0209	-1.70112	0.139063
  29	1	3	-0.274996	-18.4755	-3.68368	1.97361
  30	1	3	-0.274736	-19.5647	-4.91639	0.593771
  31	1	1	0.070548	-19.2709	-4.35654	-2.25407
  32	1	1	0.506757	-19.47	-2.97732	-1.55677
  33	1	2	-0.012767	-19.9242	-5.1083	-1.79482
  34	1	2	-0.014806	-19.6387	-4.26787	-3.28584
  35	1	3	-0.274996	-20.7977	-2.73809	-1.50329
  36	1	3	-0.274736	-18.985	-2.01178	-2.36871
  37	1	1	0.070548	-17.752	-6.20296	-3.15172
  38	1	1	0.506757	-17.821	-4.90242	-2.31034
  39	1	2	-0.012767	-18.5867	-6.85302	-2.8551
  40	1	2	-0.014806	-17.9515	-5.95915	-4.20276
  41	1	3	-0.274996	-17.0112	-3.96505	-2.84736
  42	1	3	-0.274736	-17.3523	-5.14098	-1.0693
  43	1	1	0.070548	-15.0859	-6.2574	-3.04328
  44	1	1	0.506757	-16.4358	-7.02769	-3.02879
  45	1	2	-0.012767	-14.2961	-6.97161	-2.77346
  46	1	2	-0.014806	-15.0724	-5.51699	-2.23469
  47	1	3	-0.274996	-16.4249	-7.9568	-4.01034
  48	1	3	-0.274736	-16.4928	-7.73836	-1.88008
  49	1	1	0.070548	-13.8775	-4.27514	-4.21217
  50	1	1	0.506757	-14.6954	-5.58349	-4.39132
  51	1	2	-0.012767	-14.3765	-3.65106	-3.45842
  52	1	2	-0.014806	-13.9229	-3.69237	-5.14279
  53	1	3	-0.274996	-14.0099	-6.46428	-5.15187
  54	1	3	-0.274736	-15.785	-5.2684	-5.12348
  55	1	1	0.070548	-11.4667	-4.65356	-5.05137
  56	1	1	0.506757	-12.3898	-4.45492	-3.81622
  57	1	2	-0.012767	-11.9328	-5.3321	-5.77496
  58	1	2	-0.014806	-11.3854	-3.69126	-5.57565
  59	1	3	-0.274996	-12.0122	-3.32509	-3.1768
  60	1	3	-0.274736	-12.2596	-5.45034	-2.91344
  61	1	1	0.070548	-9.13737	-5.0645	-5.99295
  62	1	1	0.506757	-10.0439	-5.17832	-4.73702
  63	1	2	-0.012767	-9.5835	-5.65025	-6.80856
  64	1	2	-0.014806	-9.14191	-4.02127	-6.33786
  65	1	3	-0.274996	-10.1319	-6.4727	-4.35923
  66	1	3	-0.274736	-9.51313	-4.48507	-3.70715
  67	1	1	0.070548	-6.85583	-5.40578	-7.12189
  68	1	1	0.506757	-7.66529	-5.51406	-5.79907
  69	1	2	-0.012767	-6.98589	-6.33327	-7.69685
  70	1	2	-0.014806	-7.29114	-4.6136	-7.74712
  71	1	3	-0.274996	-7.62812	-6.80417	-5.39824
  72	1	3	-0.274736	-7.0821	-4.7835	-4.82479
  73	1	1	0.070548	-4.56628	-6.11256	-6.04064
  74	1	1	0.506757	-5.33865	-5.1147	-6.96
  75	1	2	-0.012767	-5.21316	-6.50626	-5.2517
  76	1	2	-0.014806	-4.28393	-6.99121	-6.63699
  77	1	3	-0.274996	-4.79384	-5.18324	-8.19568
  78	1	3	-0.274736	-5.19196	-3.82374	-6.58586
  79	1	1	0.070548	-2.54875	-6.64609	-4.56778
  80	1	1	0.506757	-3.30414	-5.53841	-5.35058
  81	1	2	-0.012767	-2.35854	-7.48869	-5.2469
  82	1	2	-0.014806	-3.21573	-7.04017	-3.78833
  83	1	3	-0.274996	-2.49217	-4.96565	-6.26475
  84	1	3	-0.274736	-3.68761	-4.57942	-4.48081
  85	1	1	0.070548	-1.32351	-5.10051	-2.84753
  86	1	1	0.506757	-1.20307	-6.23163	-3.90781
  87	1	2	-0.012767	-1.58582	-4.16327	-3.35307
  88	1	2	-0.014806	-2.16233	-5.33291	-2.17648
  89	1	3	-0.274996	-0.31925	-5.88764	-4.86868
  90	1	3	-0.274736	-0.689783	-7.34075	-3.3329
  91	1	1	0.070548	1.19732	-4.44649	-2.8203
  92	1	1	0.506757	-0.0620885	-4.81352	-1.98946
  93	1	2	-0.012767	1.64666	-5.3708	-3.20784
  94	1	2	-0.014806	0.885532	-3.86794	-3.70086
  95	1	3	-0.274996	0.209683	-5.86941	-1.19063
  96	1	3	-0.274736	-0.383757	-3.80659	-1.14815
  97	1	1	0.070548	2.75893	-4.2406	-0.727606
  98	1	1	0.506757	2.2938	-3.63629	-2.08121
  99	1	2	-0.012767	1.95363	-4.15106	0.0108402
 100	1	2	-0.014806	2.89904	-5.32186	-0.863961
 101	1	3	-0.274996	1.85192	-2.37136	-1.90975
 102	1	3	-0.274736	3.34851	-3.53766	-2.91982
 103	1	1	0.070548	4.2665	-2.10819	-0.136073
 104	1	1	0.506757	4.0766	-3.65314	-0.133863
 105	1	2	-0.012767	5.31943	-1.8935	0.0763181
 106	1	2	-0.014806	4.12611	-1.72216	-1.15233
 107	1	3	-0.274996	5.12101	-4.20307	-0.793392
 108	1	3	-0.274736	4.20148	-4.10044	1.13598
 109	1	1	0.070548	3.90018	-1.12732	2.3003
 110	1	1	0.506757	3.36706	-1.30697	0.851981
 111	1	2	-0.012767	3.15655	-0.538723	2.85564
 112	1	2	-0.014806	3.92617	-2.10252	2.80434
 113	1	3	-0.274996	3.11103	-0.0893059	0.323904
 114	1	3	-0.274736	2.15033	-1.8817	0.957329
 115	1	1	0.070548	5.39976	0.257376	3.83998
 116	1	1	0.506757	5.28798	-0.446998	2.46071
 117	1	2	-0.012767	4.85835	1.21252	3.78588
 118	1	2	-0.014806	4.86191	-0.341352	4.58818
 119	1	3	-0.274996	5.49554	0.468816	1.49024
 120	1	3	-0.274736	6.25431	-1.37891	2.3222
 121	1	1	0.070548	7.74596	1.37962	3.46071
 122	1	1	0.506757	6.83056	0.524923	4.38012
 123	1	2	-0.012767	7.35152	2.40522	3.43501
 124	1	2	-0.014806	7.68978	1.01428	2.42953
 125	1	3	-0.274996	7.4182	-0.64358	4.71576
 126	1	3	-0.274736	6.66817	1.18855	5.54745
 127	1	1	0.070548	9.53255	1.73764	5.35046
 128	1	1	0.506757	9.2491	1.42401	3.85306
 129	1	2	-0.012767	9.23393	0.87628	5.96214
 130	1	2	-0.014806	8.89512	2.57485	5.66646
 131	1	3	-0.274996	9.82336	2.35765	3.06204
 132	1	3	-0.274736	9.82042	0.248083	3.51278
 133	1	1	0.070548	11.2257	2.15218	7.23624
 134	1	1	0.506757	11.0028	2.0914	5.6965
 135	1	2	-0.012767	11.5817	1.1738	7.58825
 136	1	2	-0.014806	10.2578	2.30298	7.73501
 137	1	3	-0.274996	11.328	3.2676	5.11428
 138	1	3	-0.274736	11.8479	1.16884	5.18882
 139	1	1	0.070548	13.6428	3.17677	7.14812
 140	1	1	0.506757	12.1974	3.25556	7.73369
 141	1	2	-0.012767	13.6358	2.68465	6.17139
 142	1	2	-0.014806	14.236	2.50904	7.78887
 143	1	3	-0.274996	11.6122	4.45894	7.53179
 144	1	3	-0.274736	12.279	3.13171	9.07748
 145	1	1	0.070548	13.9608	5.37842	5.77143
 146	1	1	0.506757	14.3855	4.538	7.01573
 147	1	2	-0.012767	14.0438	6.44627	6.01628
 148	1	2	-0.014806	12.8971	5.22094	5.56647
 149	1	3	-0.274996	15.7162	4.30306	7.00174
 150	1	3	-0.274736	14.1917	5.27874	8.13092
 151	1	1	0.070548	13.9721	5.64943	3.22495
 152	1	1	0.506757	14.7558	5.1225	4.46045
 153	1	2	-0.012767	13.4114	6.54888	3.51295
 154	1	2	-0.014806	13.2036	4.90553	2.97002
 155	1	3	-0.274996	14.9847	3.80013	4.29919
 156	1	3	-0.274736	15.9556	5.73678	4.55431
 157	1	1	0.070548	15.3204	7.45036	1.94654
 158	1	1	0.506757	14.8071	5.97827	1.95102
 159	1	2	-0.012767	14.4472	8.11687	1.95242
 160	1	2	-0.014806	15.8361	7.64549	2.89529
 161	1	3	-0.274996	13.9857	5.80256	0.893739
 162	1	3	-0.274736	15.8126	5.09248	1.78733
 163	1	1	0.070548	15.6025	7.95148	-0.626536
 164	1	1	0.506757	16.2615	7.89307	0.785109
 165	1	2	-0.012767	14.7845	8.68383	-0.607488
 166	1	2	-0.014806	15.1299	6.98789	-0.842937
 167	1	3	-0.274996	16.6837	9.13783	1.09716
 168	1	3	-0.274736	17.375	7.13203	0.79021
 169	1	1	0.070548	17.2214	9.66616	-1.895
 170	1	1	0.506757	16.5469	8.26488	-1.8263
 171	1	2	-0.012767	17.9151	9.64136	-2.74565
 172	1	2	-0.014806	17.8629	9.79747	-1.01835
 173	1	3	-0.274996	15.8588	8.04783	-2.97002
 174	1	3	-0.274736	17.5308	7.341	-1.87964
 175	1	1	0.070548	16.9975	12.0985	-2.77237
 176	1	1	0.506757	16.292	10.9111	-2.03876
 177	1	2	-0.012767	16.3761	12.3844	-3.63314
 178	1	2	-0.014806	17.9221	11.7518	-3.24553
 179	1	3	-0.274996	15.8409	11.2708	-0.819185
 180	1	3	-0.274736	15.1747	10.6058	-2.73348
 181	1	1	0.070548	18.0605	13.3354	-0.627869
 182	1	1	0.506757	17.2812	13.4072	-1.97355
 183	1	2	-0.012767	18.1608	14.3579	-0.245293
 184	1	2	-0.014806	17.4359	12.8487	0.130593
 185	1	3	-0.274996	16.1017	14.0241	-1.73633
 186	1	3	-0.274736	17.9494	14.2503	-2.79249
 187	1	1	0.070548	20.6067	13.4605	0.016813
 188	1	1	0.506757	19.4608	12.6515	-0.650967
 189	1	2	-0.012767	20.2788	13.7808	1.01535
 190	1	2	-0.014806	21.4561	12.7847	0.187792
 191	1	3	-0.274996	19.8299	12.2471	-1.88306
 192	1	3	-0.274736	19.348	11.5033	0.0506676
 193	1	1	0.070548	22.3235	15.3508	-0.0415102
 194	1	1	0.506757	21.1235	14.6974	-0.763332
 195	1	2	-0.012767	23.1813	14.6661	-0.0131141
 196	1	2	-0.014806	22.6398	16.2684	-0.554206
 197	1	3	-0.274996	20.148	15.6215	-0.891551
 198	1	3	-0.274736	21.517	14.3622	-2.0105
 199	1	4	0	-21.747	-10.7436	2.49099
 200	1	2	0	22.0654	15.6111	0.993032

Velocities

   1	-0.000480568	-0.000206098	0.000333152
   2	0.000117742	0.000116695	4.2756e-08
   3	-0.000989982	-0.000516328	-5.21465e-05
   4	-0.000648857	-0.000145103	0.000946657
   5	0.00139065	0.000381974	-0.000237626
   6	-0.000546658	0.0011869	-0.000478145
   7	-0.000152971	3.52808e-05	7.52957e-05
   8	7.59485e-06	2.0345e-05	0.000192776
   9	-0.000317717	0.000142547	-5.66406e-05
  10	-7.76017e-05	0.000154843	-8.24665e-05
  11	4.7015e-05	0.00019876	-0.000243796
  12	0.000284102	3.10214e-05	0.00049959
  13	-7.78547e-05	7.36267e-05	0.000335344
  14	-0.000191598	5.8035e-05	0.000184076
  15	4.87113e-05	5.67795e-05	0.000266455
  16	-0.000101928	0.000114586	0.0004077
  17	-0.000302269	0.000103732	4.83303e-05
  18	-0.000291162	8.35914e-05	0.000310017
  19	-1.06629e-05	-4.89835e-05	0.000225578
  20	-6.21683e-05	8.02405e-05	0.000309662
  21	-5.22017e-05	1.72539e-05	0.000261816
  22	0.000197676	-5.76794e-05	0.000144078
  23	6.83991e-05	0.000221542	0.000310333
  24	-0.000151238	7.82261e-05	0.000384721
  25	-0.000197758	-0.000247622	7.80238e-05
  26	-0.000195249	-0.000277217	2.57138e-05
  27	-0.000187835	-0.00029322	4.08683e-05
  28	-0.000151725	-0.000269416	0.0001834
  29	-5.98104e-05	-0.000566164	-3.44175e-05
  30	-0.000501461	-0.000210316	-5.81548e-05
  31	-0.000341375	-0.000134639	1.51616e-05
  32	-0.000285151	-0.000159104	0.000125832
  33	-0.000390245	-0.000131248	-9.1313e-05
  34	-0.000303775	-1.18047e-05	2.07048e-05
  35	-0.000294146	-0.000139544	0.00026052
  36	-0.000360626	-9.36364e-05	0.000191499
  37	-0.000213256	-8.30726e-05	-0.000120084
  38	-0.000339661	-0.00016644	2.22816e-05
  39	-0.000106282	-0.000225072	-0.000147266
  40	-0.00028909	-5.49874e-07	-8.62639e-05
  41	-0.000310721	-0.000105349	0.000202024
  42	-0.000424731	-0.000348404	2.04564e-05
  43	-0.000148206	0.000177935	-0.000274733
  44	-7.85648e-05	4.65237e-05	-0.000306546
  45	-8.87394e-05	0.000251466	-0.00025311
  46	-0.000236638	0.00019563	-0.000283959
  47	-2.60895e-05	0.000209599	-0.000463823
  48	7.41615e-05	-0.00016354	-0.000431121
  49	-3.26762e-05	0.000103967	-0.000359206
  50	-0.000188879	0.000192118	-0.00027756
  51	-5.83677e-05	0.000254887	-0.000500843
  52	0.000112362	-3.39333e-05	-0.00045107
  53	-0.000375297	0.000158492	-0.000415099
  54	-0.000262184	0.000359203	-0.000102272
  55	1.36576e-05	-4.37985e-05	-0.000153102
  56	-6.72135e-05	5.50108e-05	-0.000223326
  57	6.64662e-05	-0.000185426	-5.09008e-05
  58	-3.14526e-05	-0.000111128	-0.00028528
  59	-7.94719e-05	7.99051e-05	-0.000256886
  60	-0.000158389	0.00010155	-0.000163007
  61	9.43653e-05	-0.000116061	-5.47564e-05
  62	5.19569e-05	8.06683e-05	-5.21815e-05
  63	7.59279e-05	-0.000189603	8.62646e-06
  64	0.000143519	-0.000157012	-0.000182977
  65	0.000103714	0.000149957	0.0001914
  66	-1.58418e-06	0.000302386	-0.000179122
  67	0.000171781	-0.00022525	5.8031e-05
  68	8.67715e-05	-0.000156067	1.68043e-05
  69	0.00021625	-0.000260945	0.000106333
  70	0.000193476	-0.000274684	-1.68747e-05
  71	2.03327e-05	-0.000150818	4.51126e-05
  72	7.30103e-05	-0.000166514	2.61044e-05
  73	0.00014056	-5.20784e-05	0.000235576
  74	0.000170801	-0.000197167	9.25451e-05
  75	0.000112618	5.33582e-05	0.000269262
  76	0.000163171	-0.000127004	0.000358736
  77	0.000256361	-0.000397645	0.000140487
  78	0.000183321	-0.00015232	-5.89631e-05
  79	0.000287524	-1.81513e-05	-0.00011473
  80	0.000107599	5.21547e-05	0.000195528
  81	0.000333448	0.000158688	-0.000322289
  82	0.000388194	-0.000260579	-0.000150078
  83	1.34011e-05	0.00036188	0.000295552
  84	-1.10724e-05	-0.000163693	0.000392491
  85	0.000353205	0.000264843	-0.000453914
  86	0.000287585	-7.80278e-06	-0.000162432
  87	0.000716519	0.000207095	-0.000755907
  88	0.000134511	0.000654787	-0.000590099
  89	0.000366779	-0.000336916	-0.000218751
  90	0.000120966	5.75543e-05	9.56977e-05
  91	0.000430723	-0.000195146	-0.000106086
  92	0.000240262	0.000119157	-0.00024903
  93	0.000396487	-0.000331667	0.000187534
  94	0.000637352	-0.00037873	-0.000297357
  95	-9.30442e-05	0.000153596	-9.14831e-05
  96	0.000271009	0.000260202	-0.000410301
  97	0.000192108	0.000183385	6.66456e-05
  98	0.000382923	-9.88375e-05	-0.000127973
  99	3.2468e-05	0.000210004	-0.000114324
 100	0.000341014	0.000176522	0.000264173
 101	0.00041487	-3.6325e-05	-0.000514425
 102	0.000526226	-0.000367054	2.63823e-05
 103	-0.000134514	0.000437797	-8.1332e-05
 104	1.49102e-05	0.000428215	0.000255403
 105	-0.000145604	0.000602736	-0.000175357
 106	-0.000191322	0.000285392	-0.000123373
 107	0.000263064	0.000337162	0.000726331
 108	-0.000307759	0.000782723	0.000412043
 109	-0.000359727	0.000160849	-3.33421e-05
 110	-0.00021475	0.000370617	-0.000118933
 111	-0.000266054	0.000337358	-8.44511e-05
 112	-0.000657693	0.000147767	-2.8276e-05
 113	-0.000129696	0.000428494	-1.22339e-05
 114	-0.000230517	0.000389738	-0.000336945
 115	-2.92441e-05	-0.000784157	0.000379346
 116	-0.00023168	-0.000192797	0.000115783
 117	-0.000224619	-0.000873856	0.000875952
 118	0.000260497	-0.00119865	0.000245195
 119	-0.000249167	0.000181399	0.000470499
 120	-0.000344701	-0.00026809	-0.000255389
 121	-5.97375e-05	-0.000761701	-4.58134e-05
 122	4.82653e-05	-0.000692654	0.000138775
 123	-0.000181105	-0.000814406	-0.000188628
 124	-4.50492e-05	-0.000933006	1.76853e-05
 125	0.000131282	-0.000647097	0.000215874
 126	0.000135373	-0.000543338	6.88282e-05
 127	5.13256e-05	-0.000279084	-0.000200435
 128	-2.69658e-05	-0.00047618	-0.000159127
 129	0.000263418	-0.000280191	-9.60985e-05
 130	-0.000105853	-0.000383888	-0.000244726
 131	-0.000274205	-0.000448714	-0.00030232
 132	0.00014276	-0.000403667	-0.000142414
 133	0.000214413	0.000331621	-0.000328049
 134	1.18533e-05	9.50097e-05	-0.000308463
 135	0.000405891	0.000417652	-0.00029231
 136	0.000267674	0.000218178	-0.000199808
 137	-0.000266776	0.000117158	-0.00043155
 138	0.000140697	0.00020697	-0.000305312
 139	0.000152986	0.000478722	-0.000706286
 140	0.000228092	0.0004613	-0.000517489
 141	-0.000110238	0.00095725	-0.00093647
 142	7.8575e-05	5.10817e-05	-0.00107588
 143	0.000191617	0.000454818	-0.000496038
 144	0.000459166	0.000555675	-0.000532005
 145	0.000445864	0.000749097	4.54958e-06
 146	0.00046736	0.000341715	-0.000302612
 147	0.000554241	0.000684076	0.000268472
 148	0.000404696	0.000824846	9.83711e-05
 149	0.000423881	5.32625e-05	-0.000609508
 150	0.00078292	6.29036e-05	-6.39311e-05
 151	-0.00021948	0.00106434	0.000176144
 152	0.000199103	0.000970795	-0.0001708
 153	-0.000133642	0.00104856	0.000393779
 154	-0.000272354	0.00105822	0.000358201
 155	0.000290083	0.00102195	-0.00045516
 156	0.000188561	0.00104966	-0.000372645
 157	-5.06448e-05	0.000882561	0.000118739
 158	-0.000639224	0.00109195	-2.50841e-06
 159	0.000218662	0.00123926	-7.43152e-06
 160	-9.21682e-05	0.000778366	0.000185092
 161	-0.00121647	0.00172047	0.000333011
 162	-0.00109094	0.000706667	-0.000674992
 163	0.000221589	-0.000142713	0.000168024
 164	0.000240819	0.000276514	0.000149469
 165	0.00018156	-0.000125862	-3.76194e-05
 166	0.000293433	-0.00016258	0.000474473
 167	0.000715358	0.000183107	-0.000209792
 168	-1.71507e-05	-0.00011715	0.000432194
 169	0.000247593	-0.000797214	-0.000526303
 170	0.000130883	-0.000671648	1.19215e-05
 171	-0.000468758	-0.000734686	-0.00111217
 172	0.000989785	-0.000880214	-0.000994935
 173	-8.26937e-05	-0.000791327	0.000159308
 174	-9.08917e-06	-0.000818788	0.000172125
 175	-0.000348349	-0.000596455	0.000407492
 176	0.000117069	-0.00080109	0.000443293
 177	-0.000765188	-0.000531646	0.000661532
 178	-0.000428769	-0.000307771	0.000132078
 179	0.000902003	-0.00130333	0.000919291
 180	-0.000425787	-0.00069119	0.00117049
 181	5.25729e-05	-0.000951601	0.000427397
 182	-0.000360979	-0.000748339	0.000745181
 183	8.27154e-05	-0.000944623	0.000501504
 184	0.00046932	-0.00128714	0.000525333
 185	-0.000428332	-0.00119249	0.00129293
 186	-0.000812891	-0.000363839	0.00077372
 187	3.76461e-05	5.40169e-06	7.21754e-05
 188	0.000271386	-0.000452312	1.75104e-05
 189	-0.000281255	-0.000282662	5.37828e-05
 190	9.93956e-05	0.00018543	0.00016389
 191	0.000199495	-7.98924e-05	-0.000219442
 192	0.000686898	-0.000750531	-0.000309919
 193	-0.000165631	0.000459738	0.000178578
 194	5.54355e-05	9.64696e-05	0.000163586
 195	-0.00026889	0.0003583	0.000771071
 196	0.000189613	-0.000145377	-0.000457576
 197	-0.000101827	7.14481e-05	0.000150408
 198	-0.000188874	0.000221376	9.33473e-05
 199	6.89102e-05	-0.000429608	0.000452355
 200	-0.000265526	0.00126089	-3.37555e-05

Bonds

   1	4	1	2
   2	1	1	3
   3	1	1	4
   4	2	2	5
   5	2	2	6
   6	4	7	8
   7	1	7	9
   8	1	7	10
   9	2	8	11
  10	2	8	12
  11	4	1	8
  12	4	13	14
  13	1	13	15
  14	1	13	16
  15	2	14	17
  16	2	14	18
  17	4	7	14
  18	4	19	20
  19	1	19	21
  20	1	19	22
  21	2	20	23
  22	2	20	24
  23	4	13	20
  24	4	25	26
  25	1	25	27
  26	1	25	28
  27	2	26	29
  28	2	26	30
  29	4	19	26
  30	4	31	32
  31	1	31	33
  32	1	31	34
  33	2	32	35
  34	2	32	36
  35	4	25	32
  36	4	37	38
  37	1	37	39
  38	1	37	40
  39	2	38	41
  40	2	38	42
  41	4	31	38
  42	4	43	44
  43	1	43	45
  44	1	43	46
  45	2	44	47
  46	2	44	48
  47	4	37	44
  48	4	49	50
  49	1	49	51
  50	1	49	52
  51	2	50	53
  52	2	50	54
  53	4	43	50
  54	4	55	56
  55	1	55	57
  56	1	55	58
  57	2	56	59
  58	2	56	60
  59	4	49	56
  60	4	61	62
  61	1	61	63
  62	1	61	64
  63	2	62	65
  64	2	62	66
  65	4	55	62
  66	4	67	68
  67	1	67	69
  68	1	67	70
  69	2	68	71
  70	2	68	72
  71	4	61	68
  72	4	73	74
  73	1	73	75
  74	1	73	76
  75	2	74	77
  76	2	74	78
  77	4	67	74
  78	4	79	80
  79	1	79	81
  80	1	79	82
  81	2	80	83
  82	2	80	84
  83	4	73	80
  84	4	85	86
  85	1	85	87
  86	1	85	88
  87	2	86	89
  88	2	86	90
  89	4	79	86
  90	4	91	92
  91	1	91	93
  92	1	91	94
  93	2	92	95
  94	2	92	96
  95	4	85	92
  96	4	97	98
  97	1	97	99
  98	1	97	100
  99	2	98	101
 100	2	98	102
 101	4	91	98
 102	4	103	104
 103	1	103	105
 104	1	103	106
 105	2	104	107
 106	2	104	108
 107	4	97	104
 108	4	109	110
 109	1	109	111
 110	1	109	112
 111	2	110	113
 112	2	110	114
 113	4	103	110
 114	4	115	116
 115	1	115	117
 116	1	115	118
 117	2	116	119
 118	2	116	120
 119	4	109	116
 120	4	121	122
 121	1	121	123
 122	1	121	124
 123	2	122	125
 124	2	122	126
 125	4	115	122
 126	4	127	128
 127	1	127	129
 128	1	127	130
 129	2	128	131
 130	2	128	132
 131	4	121	128
 132	4	133	134
 133	1	133	135
 134	1	133	136
 135	2	134	137
 136	2	134	138
 137	4	127	134
 138	4	139	140
 139	1	139	141
 140	1	139	142
 141	2	140	143
 142	2	140	144
 143	4	133	140
 144	4	145	146
 145	1	145	147
 146	1	145	148
 147	2	146	149
 148	2	146	150
 149	4	139	146
 150	4	151	152
 151	1	151	153
 152	1	151	154
 153	2	152	155
 154	2	152	156
 155	4	145	152
 156	4	157	158
 157	1	157	159
 158	1	157	160
 159	2	158	161
 160	2	158	162
 161	4	151	158
 162	4	163	164
 163	1	163	165
 164	1	163	166
 165	2	164	167
 166	2	164	168
 167	4	157	164
 168	4	169	170
 169	1	169	171
 170	1	169	172
 171	2	170	173
 172	2	170	174
 173	4	163	170
 174	4	175	176
 175	1	175	177
 176	1	175	178
 177	2	176	179
 178	2	176	180
 179	4	169	176
 180	4	181	182
 181	1	181	183
 182	1	181	184
 183	2	182	185
 184	2	182	186
 185	4	175	182
 186	4	187	188
 187	1	187	189
 188	1	187	190
 189	2	188	191
 190	2	188	192
 191	4	181	188
 192	4	193	194
 193	1	193	195
 194	1	193	196
 195	2	194	197
 196	2	194	198
 197	4	187	194
 198	3	2	199
 199	1	193	200

Angles

   1	2	2	1	3
   2	2	2	1	4
   3	4	3	1	4
   4	3	1	2	5
   5	3	1	2	6
   6	6	5	2	6
   7	2	8	7	9
   8	2	8	7	10
   9	4	9	7	10
  10	3	7	8	11
  11	3	7	8	12
  12	6	11	8	12
  13	7	2	1	8
  14	2	3	1	8
  15	2	4	1	8
  16	7	1	8	7
  17	3	1	8	11
  18	3	1	8	12
  19	2	14	13	15
  20	2	14	13	16
  21	4	15	13	16
  22	3	13	14	17
  23	3	13	14	18
  24	6	17	14	18
  25	7	8	7	14
  26	2	9	7	14
  27	2	10	7	14
  28	7	7	14	13
  29	3	7	14	17
  30	3	7	14	18
  31	2	20	19	21
  32	2	20	19	22
  33	4	21	19	22
  34	3	19	20	23
  35	3	19	20	24
  36	6	23	20	24
  37	7	14	13	20
  38	2	15	13	20
  39	2	16	13	20
  40	7	13	20	19
  41	3	13	20	23
  42	3	13	20	24
  43	2	26	25	27
  44	2	26	25	28
  45	4	27	25	28
  46	3	25	26	29
  47	3	25	26	30
  48	6	29	26	30
  49	7	20	19	26
  50	2	21	19	26
  51	2	22	19	26
  52	7	19	26	25
  53	3	19	26	29
  54	3	19	26	30
  55	2	32	31	33
  56	2	32	31	34
  57	4	33	31	34
  58	3	31	32	35
  59	3	31	32	36
  60	6	35	32	36
  61	7	26	25	32
  62	2	27	25	32
  63	2	28	25	32
  64	7	25	32	31
  65	3	25	32	35
  66	3	25	32	36
  67	2	38	37	39
  68	2	38	37	40
  69	4	39	37	40
  70	3	37	38	41
  71	3	37	38	42
  72	6	41	38	42
  73	7	32	31	38
  74	2	33	31	38
  75	2	34	31	38
  76	7	31	38	37
  77	3	31	38	41
  78	3	31	38	42
  79	2	44	43	45
  80	2	44	43	46
  81	4	45	43	46
  82	3	43	44	47
  83	3	43	44	48
  84	6	47	44	48
  85	7	38	37	44
  86	2	39	37	44
  87	2	40	37	44
  88	7	37	44	43
  89	3	37	44	47
  90	3	37	44	48
  91	2	50	49	51
  92	2	50	49	52
  93	4	51	49	52
  94	3	49	50	53
  95	3	49	50	54
  96	6	53	50	54
  97	7	44	43	50
  98	2	45	43	50
  99	2	46	43	50
 100	7	43	50	49
 101	3	43	50	53
 102	3	43	50	54
 103	2	56	55	57
 104	2	56	55	58
 105	4	57	55	58
 106	3	55	56	59
 107	3	55	56	60
 108	6	59	56	60
 109	7	50	49	56
 110	2	51	49	56
 111	2	52	49	56
 112	7	49	56	55
 113	3	49	56	59
 114	3	49	56	60
 115	2	62	61	63
 116	2	62	61	64
 117	4	63	61	64
 118	3	61	62	65
 119	3	61	62	66
 120	6	65	62	66
 121	7	56	55	62
 122	2	57	55	62
 123	2	58	55	62
 124	7	55	62	61
 125	3	55	62	65
 126	3	55	62	66
 127	2	68	67	69
 128	2	68	67	70
 129	4	69	67	70
 130	3	67	68	71
 131	3	67	68	72
 132	6	71	68	72
 133	7	62	61	68
 134	2	63	61	68
 135	2	64	61	68
 136	7	61	68	67
 137	3	61	68	71
 138	3	61	68	72
 139	2	74	73	75
 140	2	74	73	76
 141	4	75	73	76
 142	3	73	74	77
 143	3	73	74	78
 144	6	77	74	78
 145	7	68	67	74
 146	2	69	67	74
 147	2	70	67	74
 148	7	67	74	73
 149	3	67	74	77
 150	3	67	74	78
 151	2	80	79	81
 152	2	80	79	82
 153	4	81	79	82
 154	3	79	80	83
 155	3	79	80	84
 156	6	83	80	84
 157	7	74	73	80
 158	2	75	73	80
 159	2	76	73	80
 160	7	73	80	79
 161	3	73	80	83
 162	3	73	80	84
 163	2	86	85	87
 164	2	86	85	88
 165	4	87	85	88
 166	3	85	86	89
 167	3	85	86	90
 168	6	89	86	90
 169	7	80	79	86
 170	2	81	79	86
 171	2	82	79	86
 172	7	79	86	85
 173	3	79	86	89
 174	3	79	86	90
 175	2	92	91	93
 176	2	92	91	94
 177	4	93	91	94
 178	3	91	92	95
 179	3	91	92	96
 180	6	95	92	96
 181	7	86	85	92
 182	2	87	85	92
 183	2	88	85	92
 184	7	85	92	91
 185	3	85	92	95
 186	3	85	92	96
 187	2	98	97	99
 188	2	98	97	100
 189	4	99	97	100
 190	3	97	98	101
 191	3	97	98	102
 192	6	101	98	102
 193	7	92	91	98
 194	2	93	91	98
 195	2	94	91	98
 196	7	91	98	97
 197	3	91	98	101
 198	3	91	98	102
 199	2	104	103	105
 200	2	104	103	106
 201	4	105	103	106
 202	3	103	104	107
 203	3	103	104	108
 204	6	107	104	108
 205	7	98	97	104
 206	2	99	97	104
 207	2	100	97	104
 208	7	97	104	103
 209	3	97	104	107
 210	3	97	104	108
 211	2	110	109	111
 212	2	110	109	112
 213	4	111	109	112
 214	3	109	110	113
 215	3	109	110	114
 216	6	113	110	114
 217	7	104	103	110
 218	2	105	103	110
 219	2	106	103	110
 220	7	103	110	109
 221	3	103	110	113
 222	3	103	110	114
 223	2	116	115	117
 224	2	116	115	118
 225	4	117	115	118
 226	3	115	116	119
 227	3	115	116	120
 228	6	119	116	120
 229	7	110	109	116
 230	2	111	109	116
 231	2	112	109	116
 232	7	109	116	115
 233	3	109	116	119
 234	3	109	116	120
 235	2	122	121	123
 236	2	122	121	124
 237	4	123	121	124
 238	3	121	122	125
 239	3	121	122	126
 240	6	125	122	126
 241	7	116	115	122
 242	2	117	115	122
 243	2	118	115	122
 244	7	115	122	121
 245	3	115	122	125
 246	3	115	122	126
 247	2	128	127	129
 248	2	128	127	130
 249	4	129	127	130
 250	3	127	128	131
 251	3	127	128	132
 252	6	131	128	132
 253	7	122	121	128
 254	2	123	121	128
 255	2	124	121	128
 256	7	121	128	127
 257	3	121	128	131
 258	3	121	128	132
 259	2	134	133	135
 260	2	134	133	136
 261	4	135	133	136
 262	3	133	134	137
 263	3	133	134	138
 264	6	137	134	138
 265	7	128	127	134
 266	2	129	127	134
 267	2	130	127	134
 268	7	127	134	133
 269	3	127	134	137
 270	3	127	134	138
 271	2	140	139	141
 272	2	140	139	142
 273	4	141	139	142
 274	3	139	140	143
 275	3	139	140	144
 276	6	143	140	144
 277	7	134	133	140
 278	2	135	133	140
 279	2	136	133	140
 280	7	133	140	139
 281	3	133	140	143
 282	3	133	140	144
 283	2	146	145	147
 284	2	146	145	148
 285	4	147	145	148
 286	3	145	146	149
 287	3	145	146	150
 288	6	149	146	150
 289	7	140	139	146
 290	2	141	139	146
 291	2	142	139	146
 292	7	139	146	145
 293	3	139	146	149
 294	3	139	146	150
 295	2	152	151	153
 296	2	152	151	154
 297	4	153	151	154
 298	3	151	152	155
 299	3	151	152	156
 300	6	155	152	156
 301	7	146	145	152
 302	2	147	145	152
 303	2	148	145	152
 304	7	145	152	151
 305	3	145	152	155
 306	3	145	152	156
 307	2	158	157	159
 308	2	158	157	160
 309	4	159	157	160
 310	3	157	158	161
 311	3	157	158	162
 312	6	161	158	162
 313	7	152	151	158
 314	2	153	151	158
 315	2	154	151	158
 316	7	151	158	157
 317	3	151	158	161
 318	3	151	158	162
 319	2	164	163	165
 320	2	164	163	166
 321	4	165	163	166
 322	3	163	164	167
 323	3	163	164	168
 324	6	167	164	168
 325	7	158	157	164
 326	2	159	157	164
 327	2	160	157	164
 328	7	157	164	163
 329	3	157	164	167
 330	3	157	164	168
 331	2	170	169	171
 332	2	170	169	172
 333	4	171	169	172
 334	3	169	170	173
 335	3	169	170	174
 336	6	173	170	174
 337	7	164	163	170
 338	2	165	163	170
 339	2	166	163	170
 340	7	163	170	169
 341	3	163	170	173
 342	3	163	170	174
 343	2	176	175	177
 344	2	176	175	178
 345	4	177	175	178
 346	3	175	176	179
 347	3	175	176	180
 348	6	179	176	180
 349	7	170	169	176
 350	2	171	169	176
 351	2	172	169	176
 352	7	169	176	175
 353	3	169	176	179
 354	3	169	176	180
 355	2	182	181	183
 356	2	182	181	184
 357	4	183	181	184
 358	3	181	182	185
 359	3	181	182	186
 360	6	185	182	186
 361	7	176	175	182
 362	2	177	175	182
 363	2	178	175	182
 364	7	175	182	181
 365	3	175	182	185
 366	3	175	182	186
 367	2	188	187	189
 368	2	188	187	190
 369	4	189	187	190
 370	3	187	188	191
 371	3	187	188	192
 372	6	191	188	192
 373	7	182	181	188
 374	2	183	181	188
 375	2	184	181	188
 376	7	181	188	187
 377	3	181	188	191
 378	3	181	188	192
 379	2	194	193	195
 380	2	194	193	196
 381	4	195	193	196
 382	3	193	194	197
 383	3	193	194	198
 384	6	197	194	198
 385	7	188	187	194
 386	2	189	187	194
 387	2	190	187	194
 388	7	187	194	193
 389	3	187	194	197
 390	3	187	194	198
 391	5	1	2	199
 392	1	5	2	199
 393	1	6	2	199
 394	2	194	193	200
 395	4	195	193	200
 396	4	196	193	200

Dihedrals

   1	1	3	1	2	5
   2	1	3	1	2	6
   3	1	4	1	2	5
   4	1	4	1	2	6
   5	1	9	7	8	11
   6	1	9	7	8	12
   7	1	10	7	8	11
   8	1	10	7	8	12
   9	2	5	2	1	8
  10	2	6	2	1	8
  11	3	1	8	7	9
  12	3	1	8	7	10
  13	4	2	1	8	7
  14	2	2	1	8	11
  15	2	2	1	8	12
  16	3	3	1	8	7
  17	1	3	1	8	11
  18	1	3	1	8	12
  19	3	4	1	8	7
  20	1	4	1	8	11
  21	1	4	1	8	12
  22	1	15	13	14	17
  23	1	15	13	14	18
  24	1	16	13	14	17
  25	1	16	13	14	18
  26	2	11	8	7	14
  27	2	12	8	7	14
  28	4	1	8	7	14
  29	3	7	14	13	15
  30	3	7	14	13	16
  31	4	8	7	14	13
  32	2	8	7	14	17
  33	2	8	7	14	18
  34	3	9	7	14	13
  35	1	9	7	14	17
  36	1	9	7	14	18
  37	3	10	7	14	13
  38	1	10	7	14	17
  39	1	10	7	14	18
  40	1	21	19	20	23
  41	1	21	19	20	24
  42	1	22	19	20	23
  43	1	22	19	20	24
  44	2	17	14	13	20
  45	2	18	14	13	20
  46	4	7	14	13	20
  47	3	13	20	19	21
  48	3	13	20	19	22
  49	4	14	13	20	19
  50	2	14	13	20	23
  51	2	14	13	20	24
  52	3	15	13	20	19
  53	1	15	13	20	23
  54	1	15	13	20	24
  55	3	16	13	20	19
  56	1	16	13	20	23
  57	1	16	13	20	24
  58	1	27	25	26	29
  59	1	27	25	26	30
  60	1	28	25	26	29
  61	1	28	25	26	30
  62	2	23	20	19	26
  63	2	24	20	19	26
  64	4	13	20	19	26
  65	3	19	26	25	27
  66	3	19	26	25	28
  67	4	20	19	26	25
  68	2	20	19	26	29
  69	2	20	19	26	30
  70	3	21	19	26	25
  71	1	21	19	26	29
  72	1	21	19	26	30
  73	3	22	19	26	25
  74	1	22	19	26	29
  75	1	22	19	26	30
  76	1	33	31	32	35
  77	1	33	31	32	36
  78	1	34	31	32	35
  79	1	34	31	32	36
  80	2	29	26	25	32
  81	2	30	26	25	32
  82	4	19	26	25	32
  83	3	25	32	31	33
  84	3	25	32	31	34
  85	4	26	25	32	31
  86	2	26	25	32	35
  87	2	26	25	32	36
  88	3	27	25	32	31
  89	1	27	25	32	35
  90	1	27	25	32	36
  91	3	28	25	32	31
  92	1	28	25	32	35
  93	1	28	25	32	36
  94	1	39	37	38	41
  95	1	39	37	38	42
  96	1	40	37	38	41
  97	1	40	37	38	42
  98	2	35	32	31	38
  99	2	36	32	31	38
 100	4	25	32	31	38
 101	3	31	38	37	39
 102	3	31	38	37	40
 103	4	32	31	38	37
 104	2	32	31	38	41
 105	2	32	31	38	42
 106	3	33	31	38	37
 107	1	33	31	38	41
 108	1	33	31	38	42
 109	3	34	31	38	37
 110	1	34	31	38	41
 111	1	34	31	38	42
 112	1	45	43	44	47
 113	1	45	43	44	48
 114	1	46	43	44	47
 115	1	46	43	44	48
 116	2	41	38	37	44
 117	2	42	38	37	44