pySIMM System Object

152 atoms
151 bonds
300 angles
441 dihedrals
0 impropers

4 atom types
4 bond types
7 angle types
4 dihedral types

-86.097985 86.097985 xlo xhi
-86.097985 86.097985 ylo yhi
-86.097985 86.097985 zlo zhi

Masses

   1	12.01	# c3
   2	1.008	# hc
   3	19.0	# f
   4	1.008	# h2

Pair Coeffs

   1	0.1094	3.3996695084235347	# c3
   2	0.0157	2.649532787749369	# hc
   3	0.061	3.1181455134911875	# f
   4	0.0157	2.2931733004932333	# h2

Bond Coeffs

   1	330.6	1.0969	# c3,hc
   2	356.9	1.3497	# c3,f
   3	331.7	1.0961	# c3,h2
   4	300.9	1.5375	# c3,c3

Angle Coeffs

   1	51.15	108.79	# f,c3,h2
   2	46.34	109.8	# c3,c3,hc
   3	66.11	109.24	# c3,c3,f
   4	39.4	107.58	# hc,c3,hc
   5	46.25	110.22	# c3,c3,h2
   6	70.89	107.36	# f,c3,f
   7	62.86	111.51	# c3,c3,c3

Dihedral Coeffs

   1	2	0.0	3	0	0.19	1	0	# hc,c3,c3,f
   2	1	0.15555555555555556	3	0	# X,c3,c3,X
   3	1	0.16	3	0	# hc,c3,c3,c3
   4	3	0.18	3	0	0.25	2	180	0.2	1	180	# c3,c3,c3,c3

Atoms

   1	1	1	0.070548	7.76808	1.96075	-19.1203
   2	1	1	0.506757	6.31444	1.46163	-19.251
   3	1	2	-0.012767	8.15774	2.21002	-20.1166
   4	1	2	-0.014806	7.7612	2.89077	-18.5401
   5	1	3	-0.274996	5.63938	2.27178	-20.0956
   6	1	3	-0.274736	5.67805	1.52139	-18.0607
   7	1	1	0.070548	10.2071	1.28332	-18.4664
   8	1	1	0.506757	8.69678	0.911101	-18.4625
   9	1	2	-0.012767	10.4915	1.51634	-19.5019
  10	1	2	-0.014806	10.7984	0.395515	-18.2093
  11	1	3	-0.274996	8.57045	-0.249522	-19.1449
  12	1	3	-0.274736	8.27836	0.644171	-17.209
  13	1	1	0.070548	10.4885	2.32778	-16.0251
  14	1	1	0.506757	10.6528	2.47184	-17.566
  15	1	2	-0.012767	9.41998	2.31142	-15.7912
  16	1	2	-0.014806	10.8635	3.249	-15.5582
  17	1	3	-0.274996	11.9429	2.75285	-17.8529
  18	1	3	-0.274736	9.99379	3.58732	-17.9456
  19	1	1	0.070548	11.2658	1.1935	-13.8064
  20	1	1	0.506757	11.2117	1.11862	-15.3601
  21	1	2	-0.012767	12.0786	0.539606	-13.4651
  22	1	2	-0.014806	11.5601	2.20936	-13.5109
  23	1	3	-0.274996	12.4896	1.06398	-15.7934
  24	1	3	-0.274736	10.6548	-0.0458464	-15.7512
  25	1	1	0.070548	9.93776	1.23839	-11.5637
  26	1	1	0.506757	9.96461	0.794061	-13.0541
  27	1	2	-0.012767	8.89933	1.29354	-11.2145
  28	1	2	-0.014806	10.2932	2.27709	-11.5163
  29	1	3	-0.274996	8.89433	1.36222	-13.6468
  30	1	3	-0.274736	9.78011	-0.538583	-13.15
  31	1	1	0.070548	10.3319	-1.06756	-10.2607
  32	1	1	0.506757	10.774	0.395848	-10.5585
  33	1	2	-0.012767	10.5836	-1.71081	-11.1132
  34	1	2	-0.014806	10.9491	-1.4452	-9.4334
  35	1	3	-0.274996	12.0573	0.363287	-10.9784
  36	1	3	-0.274736	10.821	1.07609	-9.39183
  37	1	1	0.070548	8.58861	-2.73103	-9.39772
  38	1	1	0.506757	8.84049	-1.28081	-9.88756
  39	1	2	-0.012767	9.17858	-3.41667	-10.0218
  40	1	2	-0.014806	9.005	-2.84467	-8.38874
  41	1	3	-0.274996	8.47535	-0.413634	-8.91832
  42	1	3	-0.274736	8.05843	-1.01183	-10.9522
  43	1	1	0.070548	6.01604	-2.26991	-8.84671
  44	1	1	0.506757	7.10846	-3.21503	-9.42621
  45	1	2	-0.012767	5.04364	-2.65753	-9.17765
  46	1	2	-0.014806	6.09352	-1.27822	-9.30701
  47	1	3	-0.274996	7.04609	-4.41156	-8.80132
  48	1	3	-0.274736	6.78121	-3.48794	-10.7097
  49	1	1	0.070548	5.30173	-0.821129	-6.80551
  50	1	1	0.506757	5.98039	-2.12985	-7.29814
  51	1	2	-0.012767	5.7391	0.0162879	-7.3663
  52	1	2	-0.014806	5.58956	-0.630714	-5.7648
  53	1	3	-0.274996	5.35705	-3.20196	-6.76381
  54	1	3	-0.274736	7.23243	-2.14663	-6.79321
  55	1	1	0.070548	2.88554	-1.59134	-5.96588
  56	1	1	0.506757	3.75296	-0.742975	-6.94191
  57	1	2	-0.012767	1.83305	-1.33064	-6.14423
  58	1	2	-0.014806	2.95904	-2.65425	-6.22991
  59	1	3	-0.274996	3.38656	0.553043	-6.83187
  60	1	3	-0.274736	3.39425	-1.07552	-8.20086
  61	1	1	0.070548	2.04523	-2.02936	-3.58832
  62	1	1	0.506757	3.18617	-1.42383	-4.45118
  63	1	2	-0.012767	1.08103	-1.64194	-3.94559
  64	1	2	-0.014806	2.01125	-3.11206	-3.77294
  65	1	3	-0.274996	3.3702	-0.121677	-4.14954
  66	1	3	-0.274736	4.33975	-2.06737	-4.17325
  67	1	1	0.070548	1.09064	-2.65662	-1.31829
  68	1	1	0.506757	2.13408	-1.77563	-2.05624
  69	1	2	-0.012767	0.0960004	-2.4403	-1.73242
  70	1	2	-0.014806	1.28985	-3.70747	-1.56984
  71	1	3	-0.274996	1.88479	-0.472144	-1.80579
  72	1	3	-0.274736	3.37499	-2.05314	-1.60447
  73	1	1	0.070548	-0.0368202	-3.52996	0.768282
  74	1	1	0.506757	1.01897	-2.52808	0.229673
  75	1	2	-0.012767	-1.01574	-3.25879	0.348516
  76	1	2	-0.014806	0.190148	-4.52455	0.360675
  77	1	3	-0.274996	2.22477	-2.7838	0.777881
  78	1	3	-0.274736	0.662921	-1.27225	0.576069
  79	1	1	0.070548	-1.29487	-4.69281	2.625
  80	1	1	0.506757	-0.183238	-3.65837	2.30934
  81	1	2	-0.012767	-1.15853	-5.5687	1.97566
  82	1	2	-0.014806	-2.26083	-4.25944	2.32886
  83	1	3	-0.274996	0.981935	-4.03939	2.8712
  84	1	3	-0.274736	-0.525256	-2.46821	2.84936
  85	1	1	0.070548	-1.65583	-4.07192	5.1345
  86	1	1	0.506757	-1.41174	-5.19477	4.08809
  87	1	2	-0.012767	-0.702682	-3.55565	5.31428
  88	1	2	-0.014806	-2.32435	-3.31728	4.69896
  89	1	3	-0.274996	-0.321048	-5.91907	4.41718
  90	1	3	-0.274736	-2.43664	-6.07172	4.08174
  91	1	1	0.070548	-3.73406	-4.9595	6.43496
  92	1	1	0.506757	-2.24497	-4.51125	6.50676
  93	1	2	-0.012767	-4.25943	-4.34398	5.692
  94	1	2	-0.014806	-3.77546	-5.98612	6.05127
  95	1	3	-0.274996	-2.12554	-3.44924	7.33293
  96	1	3	-0.274736	-1.48778	-5.49122	7.04424
  97	1	1	0.070548	-4.93322	-3.51073	8.24392
  98	1	1	0.506757	-4.54532	-4.94039	7.75905
  99	1	2	-0.012767	-4.09493	-3.08776	8.80661
 100	1	2	-0.014806	-5.05813	-2.85506	7.37107
 101	1	3	-0.274996	-3.8604	-5.58229	8.73027
 102	1	3	-0.274736	-5.64857	-5.68731	7.52779
 103	1	1	0.070548	-6.45886	-2.02916	9.74476
 104	1	1	0.506757	-6.22507	-3.42818	9.10561
 105	1	2	-0.012767	-6.14194	-1.25987	9.0273
 106	1	2	-0.014806	-7.54053	-1.8918	9.87437
 107	1	3	-0.274996	-6.25062	-4.39995	10.0427
 108	1	3	-0.274736	-7.28437	-3.65401	8.29375
 109	1	1	0.070548	-5.81201	-0.2846	11.5981
 110	1	1	0.506757	-5.76371	-1.76252	11.1108
 111	1	2	-0.012767	-5.40162	-0.24156	12.6165
 112	1	2	-0.014806	-5.12906	0.315553	10.9805
 113	1	3	-0.274996	-6.28931	-2.54864	12.0752
 114	1	3	-0.274736	-4.45927	-2.10226	11.0265
 115	1	1	0.070548	-7.20469	1.7465	12.3517
 116	1	1	0.506757	-7.20838	0.393629	11.5862
 117	1	2	-0.012767	-6.74692	1.60343	13.3404
 118	1	2	-0.014806	-6.53982	2.4395	11.8186
 119	1	3	-0.274996	-8.13925	-0.436873	12.1009
 120	1	3	-0.274736	-7.53981	0.629507	10.2969
 121	1	1	0.070548	-8.49522	3.91322	12.9008
 122	1	1	0.506757	-8.60446	2.40417	12.5427
 123	1	2	-0.012767	-7.65635	4.34982	12.3417
 124	1	2	-0.014806	-8.21314	4.00833	13.9574
 125	1	3	-0.274996	-9.2354	1.77624	13.559
 126	1	3	-0.274736	-9.37683	2.23585	11.4485
 127	1	1	0.070548	-11.1048	4.327	13.2385
 128	1	1	0.506757	-9.75372	4.78521	12.6094
 129	1	2	-0.012767	-11.1972	3.23689	13.1818
 130	1	2	-0.014806	-11.9279	4.70311	12.6151
 131	1	3	-0.274996	-9.91674	4.89183	11.2715
 132	1	3	-0.274736	-9.46983	6.04799	12.9987
 133	1	1	0.070548	-12.0259	6.19789	14.7683
 134	1	1	0.506757	-11.3559	4.79486	14.6984
 135	1	2	-0.012767	-13.08	6.09634	14.4808
 136	1	2	-0.014806	-11.5984	6.84644	13.9939
 137	1	3	-0.274996	-10.211	4.74221	15.4147
 138	1	3	-0.274736	-12.1849	3.90065	15.2796
 139	1	1	0.070548	-12.3358	6.1794	17.4135
 140	1	1	0.506757	-11.922	6.94799	16.1274
 141	1	2	-0.012767	-11.929	6.7168	18.2812
 142	1	2	-0.014806	-11.8399	5.2022	17.4392
 143	1	3	-0.274996	-10.6496	7.37705	16.2839
 144	1	3	-0.274736	-12.6507	8.08288	16.0347
 145	1	1	0.070548	-14.5646	7.22945	18.2484
 146	1	1	0.506757	-13.8608	5.99219	17.6348
 147	1	2	-0.012767	-13.9271	7.7226	18.9936
 148	1	2	-0.014806	-15.4963	6.93846	18.7514
 149	1	3	-0.274996	-14.043	4.94387	18.468
 150	1	3	-0.274736	-14.4823	5.65793	16.483
 151	1	4	0	6.27051	0.438229	-19.6403
 152	1	2	0	-14.8213	7.96817	17.4792

Velocities

   1	-8.4776e-05	0.000365751	-2.39137e-05
   2	7.07871e-05	-0.00027168	-0.000214776
   3	-9.46373e-05	0.000552377	3.38925e-05
   4	-0.000435579	0.000261799	0.000270619
   5	-0.000166305	-0.000654574	-0.000392595
   6	-0.000297974	-0.000381624	-0.000472836
   7	-7.91286e-05	0.000108277	-0.000133848
   8	-0.000132285	0.000320561	-3.7696e-06
   9	-0.000223832	0.00032457	-0.000123653
  10	-0.000237482	2.76725e-06	-0.00031385
  11	-0.000183074	0.000228921	0.00012155
  12	-7.63867e-05	0.000410292	6.41778e-05
  13	0.000377004	-0.000105646	4.46921e-05
  14	0.000241676	-0.000122099	1.10624e-05
  15	0.000431043	7.21534e-05	0.000120604
  16	0.000672672	-0.000129712	-5.69761e-05
  17	0.000259107	-0.000431068	-0.000146674
  18	0.000345621	5.92556e-05	0.000237962
  19	1.24901e-05	0.000410742	0.000171542
  20	0.000224882	-0.000110393	0.00024111
  21	0.000153645	0.000836694	0.000530104
  22	-0.000487745	0.000615432	-0.000125567
  23	0.000256608	-0.000356913	0.000290628
  24	0.000106326	-6.48932e-05	0.000284282
  25	-0.000162326	2.68445e-05	0.000130861
  26	-9.10045e-06	0.000258287	8.64944e-05
  27	-0.000193576	-9.41606e-05	0.000185689
  28	-0.000142039	3.20479e-05	0.000415668
  29	-3.60322e-05	0.000243051	0.000130525
  30	2.21446e-05	0.000256344	-6.79284e-05
  31	-0.00022011	-0.000240011	-0.000339605
  32	-0.000185734	-0.000153855	1.58064e-05
  33	-0.000192374	-6.7891e-05	-0.000457889
  34	-0.0002588	-0.000430386	-0.000382047
  35	-0.00016349	-7.96419e-05	9.50497e-05
  36	-0.00020252	-0.000421272	0.000211298
  37	-0.00018601	-0.0001614	1.55102e-05
  38	-0.000272505	-0.000257185	-0.000436003
  39	-0.000259765	-0.000291352	0.000112369
  40	3.20387e-05	0.000210131	-9.91524e-06
  41	-0.00047371	1.14666e-05	-0.000750348
  42	-0.000183277	-0.000703627	-0.000634114
  43	-0.000133669	-1.13081e-05	0.00019249
  44	-0.000194887	-0.000220945	0.000464513
  45	-0.000166296	0.000104939	0.000227686
  46	3.58745e-05	-0.000100066	1.41846e-05
  47	2.4798e-05	7.20244e-05	0.001086
  48	-0.000362823	-0.000934523	0.000682343
  49	-1.41327e-05	0.000412042	-0.000121171
  50	-0.000120765	0.000281859	0.000144362
  51	-0.000191103	0.00025358	-0.000520362
  52	0.000178264	0.000763076	-0.000229327
  53	-0.000185887	0.000385535	0.000338575
  54	-0.000133852	0.000305647	0.000158737
  55	0.000329009	0.000304201	0.000440865
  56	-2.49729e-05	0.000401809	0.000255055
  57	0.000272687	9.4135e-05	0.000599033
  58	0.000472103	0.000315214	0.000512145
  59	-7.54006e-05	0.000369885	0.000431774
  60	-0.000326884	0.000379759	0.000335608
  61	0.000507872	6.60001e-05	0.000109624
  62	0.00051681	0.000413014	0.000393354
  63	0.000516854	-3.44886e-05	3.72507e-05
  64	0.000774838	0.000105939	-7.16614e-05
  65	0.000229947	0.000429685	0.000467036
  66	0.000645335	0.000632778	0.000384759
  67	-0.000125194	-0.000321577	-0.000391189
  68	0.000147613	-0.000217182	0.000115708
  69	-5.99863e-05	-8.96213e-05	-0.000449449
  70	-0.00027172	-0.000299105	-0.000618985
  71	0.000151194	-0.000269229	0.000305542
  72	1.86894e-05	-0.000409014	0.000298211
  73	0.000235553	-0.000794092	-0.000325272
  74	-0.000145569	-0.000513302	-0.000402002
  75	0.000163873	-0.00128786	-0.000470451
  76	0.000658797	-0.000820827	-5.01224e-05
  77	-0.000103492	-0.000233327	-0.000433457
  78	-0.000504508	-0.000644806	-0.000364482
  79	0.000475827	-0.000579261	-0.000346238
  80	0.00019003	-0.000306998	-0.000294483
  81	0.00139484	-0.000884554	0.000237698
  82	0.000539142	-0.00115349	-0.0013079
  83	0.000203543	0.000250231	5.84012e-05
  84	-0.000372508	-0.000252059	-0.000739365
  85	-0.000773472	0.000480052	-0.000665275
  86	-0.000339154	0.000136615	-0.000194392
  87	-0.00101468	0.00103824	-0.00105673
  88	-0.00122307	-6.8958e-05	-0.000927678
  89	-0.000596684	9.09307e-05	0.000554864
  90	-0.000557935	0.000366101	-0.000361751
  91	-0.000133362	0.000102826	0.000284728
  92	-0.000275417	0.000709628	-0.000355691
  93	-0.000580784	-0.00041627	0.000175066
  94	0.000241285	-6.0444e-05	0.00063535
  95	-0.000438472	0.000996504	-0.000700222
  96	0.00023022	0.00117309	-0.000237666
  97	-3.51117e-05	0.000177184	0.000544532
  98	0.000118235	0.000239345	0.000495094
  99	-2.79266e-05	0.000257081	0.000482131
 100	-0.000151851	0.000160723	0.000559594
 101	0.000360079	0.000430477	0.000435755
 102	0.000128835	0.000107225	0.000816098
 103	7.69588e-06	-6.1925e-05	0.000584036
 104	1.04967e-05	-1.03799e-05	0.000635029
 105	6.3561e-05	-0.000111308	0.000613113
 106	4.57757e-05	-3.73695e-05	0.00062605
 107	3.59439e-06	2.95453e-05	0.000634857
 108	-2.86593e-05	8.97212e-05	0.00069508
 109	-0.000415436	0.000247651	1.5369e-05
 110	4.0133e-05	0.000139817	0.0005201
 111	-0.000590436	0.000693994	0.000122008
 112	-0.00041209	0.000179254	-8.23036e-05
 113	0.00032263	0.000258662	0.000768977
 114	0.000167849	0.000520095	0.000488424
 115	-0.00034888	0.000118675	-0.00089016
 116	-0.000452495	-4.02105e-06	-0.000523362
 117	0.000158217	0.000491073	-0.00107063
 118	-0.000771736	0.000111798	-0.00144072
 119	-0.000532125	4.27334e-05	-0.000427485
 120	-0.000381675	-0.000222889	-0.000610396
 121	-0.000145108	-0.000140504	0.000134451
 122	-0.000271216	-4.88359e-05	-0.000299026
 123	0.000259833	-0.000141984	0.000732547
 124	-0.000705774	-0.00055923	0.000296285
 125	2.59416e-05	-0.000403978	-0.000302417
 126	-0.000575105	4.34898e-05	-0.000162122
 127	0.000176219	0.000301079	-0.000182885
 128	0.000177201	8.36881e-05	-0.000275575
 129	0.000315593	0.000326619	0.000231734
 130	8.38018e-05	0.000164298	-0.000165865
 131	0.000255272	-0.000338718	-0.000303639
 132	0.0002434	0.00019689	-0.000672985
 133	0.000294423	0.000454066	-6.20041e-05
 134	0.000323677	0.000451055	-0.000216286
 135	0.000171825	0.000448181	3.2313e-05
 136	0.000374832	0.000738659	0.000160965
 137	0.00040038	0.000575304	-0.000324424
 138	0.000364111	0.000461918	-0.000134194
 139	6.00596e-05	-0.000987648	-0.000152142
 140	0.000304483	-0.000251651	0.00029708
 141	0.00047217	-0.00194625	0.000202298
 142	-0.000445324	-0.0012568	-0.00109871
 143	0.00031617	-0.000487942	0.000630309
 144	0.000545428	-3.08128e-05	0.00058796
 145	0.000314868	3.32997e-05	-0.000974095
 146	0.000175382	-0.000722559	0.000327677
 147	-0.000558405	-0.0013013	0.000633087
 148	-0.00106083	0.000939761	-0.00307101
 149	0.000315109	0.0005428	0.00200044
 150	0.000109801	-0.00218437	0.000866858
 151	0.000667074	-0.000302557	-0.000248808
 152	0.00278339	0.000601595	-0.00131813

Bonds

   1	4	1	2
   2	1	1	3
   3	1	1	4
   4	2	2	5
   5	2	2	6
   6	4	7	8
   7	1	7	9
   8	1	7	10
   9	2	8	11
  10	2	8	12
  11	4	1	8
  12	4	13	14
  13	1	13	15
  14	1	13	16
  15	2	14	17
  16	2	14	18
  17	4	7	14
  18	4	19	20
  19	1	19	21
  20	1	19	22
  21	2	20	23
  22	2	20	24
  23	4	13	20
  24	4	25	26
  25	1	25	27
  26	1	25	28
  27	2	26	29
  28	2	26	30
  29	4	19	26
  30	4	31	32
  31	1	31	33
  32	1	31	34
  33	2	32	35
  34	2	32	36
  35	4	25	32
  36	4	37	38
  37	1	37	39
  38	1	37	40
  39	2	38	41
  40	2	38	42
  41	4	31	38
  42	4	43	44
  43	1	43	45
  44	1	43	46
  45	2	44	47
  46	2	44	48
  47	4	37	44
  48	4	49	50
  49	1	49	51
  50	1	49	52
  51	2	50	53
  52	2	50	54
  53	4	43	50
  54	4	55	56
  55	1	55	57
  56	1	55	58
  57	2	56	59
  58	2	56	60
  59	4	49	56
  60	4	61	62
  61	1	61	63
  62	1	61	64
  63	2	62	65
  64	2	62	66
  65	4	55	62
  66	4	67	68
  67	1	67	69
  68	1	67	70
  69	2	68	71
  70	2	68	72
  71	4	61	68
  72	4	73	74
  73	1	73	75
  74	1	73	76
  75	2	74	77
  76	2	74	78
  77	4	67	74
  78	4	79	80
  79	1	79	81
  80	1	79	82
  81	2	80	83
  82	2	80	84
  83	4	73	80
  84	4	85	86
  85	1	85	87
  86	1	85	88
  87	2	86	89
  88	2	86	90
  89	4	79	86
  90	4	91	92
  91	1	91	93
  92	1	91	94
  93	2	92	95
  94	2	92	96
  95	4	85	92
  96	4	97	98
  97	1	97	99
  98	1	97	100
  99	2	98	101
 100	2	98	102
 101	4	91	98
 102	4	103	104
 103	1	103	105
 104	1	103	106
 105	2	104	107
 106	2	104	108
 107	4	97	104
 108	4	109	110
 109	1	109	111
 110	1	109	112
 111	2	110	113
 112	2	110	114
 113	4	103	110
 114	4	115	116
 115	1	115	117
 116	1	115	118
 117	2	116	119
 118	2	116	120
 119	4	109	116
 120	4	121	122
 121	1	121	123
 122	1	121	124
 123	2	122	125
 124	2	122	126
 125	4	115	122
 126	4	127	128
 127	1	127	129
 128	1	127	130
 129	2	128	131
 130	2	128	132
 131	4	121	128
 132	4	133	134
 133	1	133	135
 134	1	133	136
 135	2	134	137
 136	2	134	138
 137	4	127	134
 138	4	139	140
 139	1	139	141
 140	1	139	142
 141	2	140	143
 142	2	140	144
 143	4	133	140
 144	4	145	146
 145	1	145	147
 146	1	145	148
 147	2	146	149
 148	2	146	150
 149	4	139	146
 150	3	2	151
 151	1	145	152

Angles

   1	2	2	1	3
   2	2	2	1	4
   3	4	3	1	4
   4	3	1	2	5
   5	3	1	2	6
   6	6	5	2	6
   7	2	8	7	9
   8	2	8	7	10
   9	4	9	7	10
  10	3	7	8	11
  11	3	7	8	12
  12	6	11	8	12
  13	7	2	1	8
  14	2	3	1	8
  15	2	4	1	8
  16	7	1	8	7
  17	3	1	8	11
  18	3	1	8	12
  19	2	14	13	15
  20	2	14	13	16
  21	4	15	13	16
  22	3	13	14	17
  23	3	13	14	18
  24	6	17	14	18
  25	7	8	7	14
  26	2	9	7	14
  27	2	10	7	14
  28	7	7	14	13
  29	3	7	14	17
  30	3	7	14	18
  31	2	20	19	21
  32	2	20	19	22
  33	4	21	19	22
  34	3	19	20	23
  35	3	19	20	24
  36	6	23	20	24
  37	7	14	13	20
  38	2	15	13	20
  39	2	16	13	20
  40	7	13	20	19
  41	3	13	20	23
  42	3	13	20	24
  43	2	26	25	27
  44	2	26	25	28
  45	4	27	25	28
  46	3	25	26	29
  47	3	25	26	30
  48	6	29	26	30
  49	7	20	19	26
  50	2	21	19	26
  51	2	22	19	26
  52	7	19	26	25
  53	3	19	26	29
  54	3	19	26	30
  55	2	32	31	33
  56	2	32	31	34
  57	4	33	31	34
  58	3	31	32	35
  59	3	31	32	36
  60	6	35	32	36
  61	7	26	25	32
  62	2	27	25	32
  63	2	28	25	32
  64	7	25	32	31
  65	3	25	32	35
  66	3	25	32	36
  67	2	38	37	39
  68	2	38	37	40
  69	4	39	37	40
  70	3	37	38	41
  71	3	37	38	42
  72	6	41	38	42
  73	7	32	31	38
  74	2	33	31	38
  75	2	34	31	38
  76	7	31	38	37
  77	3	31	38	41
  78	3	31	38	42
  79	2	44	43	45
  80	2	44	43	46
  81	4	45	43	46
  82	3	43	44	47
  83	3	43	44	48
  84	6	47	44	48
  85	7	38	37	44
  86	2	39	37	44
  87	2	40	37	44
  88	7	37	44	43
  89	3	37	44	47
  90	3	37	44	48
  91	2	50	49	51
  92	2	50	49	52
  93	4	51	49	52
  94	3	49	50	53
  95	3	49	50	54
  96	6	53	50	54
  97	7	44	43	50
  98	2	45	43	50
  99	2	46	43	50
 100	7	43	50	49
 101	3	43	50	53
 102	3	43	50	54
 103	2	56	55	57
 104	2	56	55	58
 105	4	57	55	58
 106	3	55	56	59
 107	3	55	56	60
 108	6	59	56	60
 109	7	50	49	56
 110	2	51	49	56
 111	2	52	49	56
 112	7	49	56	55
 113	3	49	56	59
 114	3	49	56	60
 115	2	62	61	63
 116	2	62	61	64
 117	4	63	61	64
 118	3	61	62	65
 119	3	61	62	66
 120	6	65	62	66
 121	7	56	55	62
 122	2	57	55	62
 123	2	58	55	62
 124	7	55	62	61
 125	3	55	62	65
 126	3	55	62	66
 127	2	68	67	69
 128	2	68	67	70
 129	4	69	67	70
 130	3	67	68	71
 131	3	67	68	72
 132	6	71	68	72
 133	7	62	61	68
 134	2	63	61	68
 135	2	64	61	68
 136	7	61	68	67
 137	3	61	68	71
 138	3	61	68	72
 139	2	74	73	75
 140	2	74	73	76
 141	4	75	73	76
 142	3	73	74	77
 143	3	73	74	78
 144	6	77	74	78
 145	7	68	67	74
 146	2	69	67	74
 147	2	70	67	74
 148	7	67	74	73
 149	3	67	74	77
 150	3	67	74	78
 151	2	80	79	81
 152	2	80	79	82
 153	4	81	79	82
 154	3	79	80	83
 155	3	79	80	84
 156	6	83	80	84
 157	7	74	73	80
 158	2	75	73	80
 159	2	76	73	80
 160	7	73	80	79
 161	3	73	80	83
 162	3	73	80	84
 163	2	86	85	87
 164	2	86	85	88
 165	4	87	85	88
 166	3	85	86	89
 167	3	85	86	90
 168	6	89	86	90
 169	7	80	79	86
 170	2	81	79	86
 171	2	82	79	86
 172	7	79	86	85
 173	3	79	86	89
 174	3	79	86	90
 175	2	92	91	93
 176	2	92	91	94
 177	4	93	91	94
 178	3	91	92	95
 179	3	91	92	96
 180	6	95	92	96
 181	7	86	85	92
 182	2	87	85	92
 183	2	88	85	92
 184	7	85	92	91
 185	3	85	92	95
 186	3	85	92	96
 187	2	98	97	99
 188	2	98	97	100
 189	4	99	97	100
 190	3	97	98	101
 191	3	97	98	102
 192	6	101	98	102
 193	7	92	91	98
 194	2	93	91	98
 195	2	94	91	98
 196	7	91	98	97
 197	3	91	98	101
 198	3	91	98	102
 199	2	104	103	105
 200	2	104	103	106
 201	4	105	103	106
 202	3	103	104	107
 203	3	103	104	108
 204	6	107	104	108
 205	7	98	97	104
 206	2	99	97	104
 207	2	100	97	104
 208	7	97	104	103
 209	3	97	104	107
 210	3	97	104	108
 211	2	110	109	111
 212	2	110	109	112
 213	4	111	109	112
 214	3	109	110	113
 215	3	109	110	114
 216	6	113	110	114
 217	7	104	103	110
 218	2	105	103	110
 219	2	106	103	110
 220	7	103	110	109
 221	3	103	110	113
 222	3	103	110	114
 223	2	116	115	117
 224	2	116	115	118
 225	4	117	115	118
 226	3	115	116	119
 227	3	115	116	120
 228	6	119	116	120
 229	7	110	109	116
 230	2	111	109	116
 231	2	112	109	116
 232	7	109	116	115
 233	3	109	116	119
 234	3	109	116	120
 235	2	122	121	123
 236	2	122	121	124
 237	4	123	121	124
 238	3	121	122	125
 239	3	121	122	126
 240	6	125	122	126
 241	7	116	115	122
 242	2	117	115	122
 243	2	118	115	122
 244	7	115	122	121
 245	3	115	122	125
 246	3	115	122	126
 247	2	128	127	129
 248	2	128	127	130
 249	4	129	127	130
 250	3	127	128	131
 251	3	127	128	132
 252	6	131	128	132
 253	7	122	121	128
 254	2	123	121	128
 255	2	124	121	128
 256	7	121	128	127
 257	3	121	128	131
 258	3	121	128	132
 259	2	134	133	135
 260	2	134	133	136
 261	4	135	133	136
 262	3	133	134	137
 263	3	133	134	138
 264	6	137	134	138
 265	7	128	127	134
 266	2	129	127	134
 267	2	130	127	134
 268	7	127	134	133
 269	3	127	134	137
 270	3	127	134	138
 271	2	140	139	141
 272	2	140	139	142
 273	4	141	139	142
 274	3	139	140	143
 275	3	139	140	144
 276	6	143	140	144
 277	7	134	133	140
 278	2	135	133	140
 279	2	136	133	140
 280	7	133	140	139
 281	3	133	140	143
 282	3	133	140	144
 283	2	146	145	147
 284	2	146	145	148
 285	4	147	145	148
 286	3	145	146	149
 287	3	145	146	150
 288	6	149	146	150
 289	7	140	139	146
 290	2	141	139	146
 291	2	142	139	146
 292	7	139	146	145
 293	3	139	146	149
 294	3	139	146	150
 295	5	1	2	151
 296	1	5	2	151
 297	1	6	2	151
 298	2	146	145	152
 299	4	147	145	152
 300	4	148	145	152

Dihedrals

   1	1	3	1	2	5
   2	1	3	1	2	6
   3	1	4	1	2	5
   4	1	4	1	2	6
   5	1	9	7	8	11
   6	1	9	7	8	12
   7	1	10	7	8	11
   8	1	10	7	8	12
   9	2	5	2	1	8
  10	2	6	2	1	8
  11	3	1	8	7	9
  12	3	1	8	7	10
  13	4	2	1	8	7
  14	2	2	1	8	11
  15	2	2	1	8	12
  16	3	3	1	8	7
  17	1	3	1	8	11
  18	1	3	1	8	12
  19	3	4	1	8	7
  20	1	4	1	8	11
  21	1	4	1	8	12
  22	1	15	13	14	17
  23	1	15	13	14	18
  24	1	16	13	14	17
  25	1	16	13	14	18
  26	2	11	8	7	14
  27	2	12	8	7	14
  28	4	1	8	7	14
  29	3	7	14	13	15
  30	3	7	14	13	16
  31	4	8	7	14	13
  32	2	8	7	14	17
  33	2	8	7	14	18
  34	3	9	7	14	13
  35	1	9	7	14	17
  36	1	9	7	14	18
  37	3	10	7	14	13
  38	1	10	7	14	17
  39	1	10	7	14	18
  40	1	21	19	20	23
  41	1	21	19	20	24
  42	1	22	19	20	23
  43	1	22	19	20	24
  44	2	17	14	13	20
  45	2	18	14	13	20
  46	4	7	14	13	20
  47	3	13	20	19	21
  48	3	13	20	19	22
  49	4	14	13	20	19
  50	2	14	13	20	23
  51	2	14	13	20	24
  52	3	15	13	20	19
  53	1	15	13	20	23
  54	1	15	13	20	24
  55	3	16	13	20	19
  56	1	16	13	20	23
  57	1	16	13	20	24
  58	1	27	25	26	29
  59	1	27	25	26	30
  60	1	28	25	26	29
  61	1	28	25	26	30
  62	2	23	20	19	26
  63	2	24	20	19	26
  64	4	13	20	19	26
  65	3	19	26	25	27
  66	3	19	26	25	28
  67	4	20	19	26	25
  68	2	20	19	26	29
  69	2	20	19	26	30
  70	3	21	19	26	25
  71	1	21	19	26	29
  72	1	21	19	26	30
  73	3	22	19	26	25
  74	1	22	19	26	29
  75	1	22	19	26	30
  76	1	33	31	32	35
  77	1	33	31	32	36
  78	1	34	31	32	35
  79	1	34	31	32	36
  80	2	29	26	25	32
  81	2	30	26	25	32
  82	4	19	26	25	32
  83	3	25	32	31	33
  84	3	25	32	31	34
  85	4	26	25	32	31
  86	2	26	25	32	35
  87	2	26	25	32	36
  88	3	27	25	32	31
  89	1	27	25	32	35
  90	1	27	25	32	36
  91	3	28	25	32	31
  92	1	28	25	32	35
  93	1	28	25	32	36
  94	1	39	37	38	41
  95	1	39	37	38	42
  96	1	40	37	38	41
  97	1	40	37	38	42
  98	2	35	32	31	38
  99	2	36	32	31	38
 100	4	25	32	31	38
 101	3	31	38	37	39
 102	3	31	38	37	40
 103	4	32	31	38	37
 104	2	32	31	38	41
 105	2	32	31	38	42
 106	3	33	31	38	37
 107	1	33	31	38	41
 108	1	33	31	38	42
 109	3	34	31	38	37
 110	1	34	31	38	41
 111	1	34	31	38	42
 112	1	45	43	44	47
 113	1	45	43	44	48
 114	1	46	43	44	47
 115	1	46	43	44	48
 116	2	41	38	37	44
 117	2	42	38	37	44
 118	4	31	38	37	44
 119	3	37	44	43	45
 120	3	37	44	43	46
 121	4	38	37	44	43
 122	2	38	37	44	47
 123	2	38	37	44	48
 124	3	39	37	44	43
 125	1	39	37	44	47
 126	1	39	37	44	48
 127	3	40	37	44	43
 128	1	40	37	44	47
 129	1	40	37	44	48
 130	1	51	49	50	53
 131	1	51	49	50	54
 132	1	52	49	50	53
 133	1	52	49	50	54
 134	2	47	44	43	50
 135	2	48	44	43	50
 136	4	37	44	43	50
 137	3	43	50	49	51
 138	3	43	50	49	52
 139	4	44	43	50	49
 140	2	44	43	50	53
 141	2	44	43	50	54
 142	3	45	43	50	49
 143	1	45	43	50	53
 144	1	45	43	50	54
 145	3	46	43	50	49
 146	1	46	43	50	53
 147	1	46	43	50	54
 148	1	57	55	56	59
 149	1	57	55	56	60
 150	1	58	55	56	59
 151	1	58	55	56	60
 152	2	53	50	49	56
 153	2	54	50	49	56
 154	4	43	50	49	56
 155	3	49	56	55	57
 156	3	49	56	55	58
 157	4	50	49	56	55
 158	2	50	49	56	59
 159	2	50	49	56	60
 160	3	51	49	56	55
 161	1	51	49	56	59
 162	1	51	49	56	60
 163	3	52	49	56	55
 164	1	52	49	56	59
 165	1	52	49	56	60
 166	1	63	61	62	65
 167	1	63	61	62	66
 168	1	64	61	62	65
 169	1	64	61	62	66
 170	2	59	56	55	62
 171	2	60	56	55	62
 172	4	49	56	55	62
 173	3	55	62	61	63
 174	3	55	62	61	64
 175	4	56	55	62	61
 176	2	56	55	62	65
 177	2	56	55	62	66
 178	3	57	55	62	61
 179	1	57	55	62	65
 180	1	57	55	62	66
 181	3	58	55	62	61
 182	1	58	55	62	65
 183	1	58	55	62	66
 184	1	69	67	68	71
 185	1	69	67	68	72
 186	1	70	67	68	71
 187	1	70	67	68	72
 188	2	65	62	61	68
 189	2	66	62	61	68
 190	4	55	62	61	68
 191	3	61	68	67	69
 192	3	61	68	67	70
 193	4	62	61	68	67
 194	2	62	61	68	71
 195	2	62	61	68	72
 196	3	63	61	68	67
 197	1	63	61	68	71
 198	1	63	61	68	72
 199	3	64	61	68	67
 200	1	64	61	68	71
 201	1	64	61	68	72
 202	1	75	73	74	77
 203	1	75	73	74	78
 204	1	76	73	74	77
 205	1	76	73	74	78
 206	2	71	68	67	74
 207	2	72	68	67	74
 208	4	61	68	67	74
 209	3	67	74	73	75
 210	3	67	74	73	76
 211	4	68	67	74	73
 212	2	68	67	74	77
 213	2	68	67	74	78
 214	3	69	67	74	73
 215	1	69	67	74	77
 216	1	69	67	74	78
 217	3	70	67	74	73
 218	1	70	67	74	77
 219	1	70	67	74	78
 220	1	81	79	80	83
 221	1	81	79	80	84
 222	1	82	79	80	83
 223	1	82	79	80	84
 224	2	77	74	73	80
 225	2	78	74	73	80
 226	4	67	74	73	80
 227	3	73	80	79	81
 228	3	73	80	79	82
 229	4	74	73	80	79
 230	2	74	73	80	83
 231	2	74	73	80	84
 232	3	75	73	80	79
 233	1	75	73	80	83
 234	1	75	73	80	84
 235	3	76	73	80	79
 236	1	76	73	80	83
 237	1	76	73	80	84
 238	1	87	85	86	89
 239	1	87	85	86	90
 240	1	88	85	86	89
 241	1	88	85	86	90
 242	2	83	80	79	86
 243	2	84	80	79	86
 244	4	73	80	79	86
 245	3	79	86	85	87
 246	3	79	86	85	88
 247	4	80	79	86	85
 248	2	80	79	86	89
 249	2	80	79	86	90
 250	3	81	79	86	85
 251	1	81	79	86	89
 252	1	81	79	86	90
 253	3	82	79	86	85
 254	1	82	79	86	89
 255	1	82	79	86	90
 256	1	93	91	92	95
 257	1	93	91	92	96
 258	1	94	91	92	95
 259	1	94	91	92	96
 260	2	89	86	85	92
 261	2	90	86	85	92
 262	4	79	86	85	92
 263	3	85	92	91	93
 264	3	85	92	91	94
 265	4	86	85	92	91
 266	2	86	85	92	95
 267	2	86	85	92	96
 268	3	87	85	92	91
 269	1	87	85	92	95
 270	1	87	85	92	96
 271	3	88	85	92	91
 272	1	88	85	92	95
 273	1	88	85	92	96
 274	1	99	97	98	101
 275	1	99	97	98	102
 276	1	100	97	98	101
 277	1	100	97	98	102
 278	2	95	92	91	98
 279	2	96	92	91	98
 280	4	85	92	91	98
 281	3	91	98	97	99
 282	3	91	98	97	100
 283	4	92	91	98	97
 284	2	92	91	98	101
 285	2	92	91	98	102
 286	3	93	91	98	97
 287	1	93	91	98	101
 288	1	93	91	98	102
 289	3	94	91	98	97
 290	1	94	91	98	101
 291	1	94	91	98	102
 292	1	105	103	104	107
 293	1	105	103	104	108
 294	1	106	103	104	107
 295	1	106	103	104	108
 296	2	101	98	97	104
 297	2	102	98	97	104
 298	4	91	98	97	104
 299	3	97	104	103	105
 300	3	97	104	103	106
 301	4	98	97	104	103
 302	2	98	97	104	107
 303	2	98	97	104	108
 304	3	99	97	104	103
 305	1	99	97	104	107
 306	1	99	97	104	108
 307	3	100	97	104	103
 308	1	100	97	104	107
 309	1	100	97	104	108
 310	1	111	109	110	113
 311	1	111	109	110	114
 312	1	112	109	110	113
 313	1	112	109	110	114
 314	2	107	104	103	110
 315	2	108	104	103	110
 316	4	97	104	103	110
 317	3	103	110	109	111
 318	3	103	110	109	112
 319	4	104	103	110	109
 320	2	104	103	110	113
 321	2	104	103	110	114
 322	3	105	103	110	109
 323	1	105	103	110	113
 324	1	105	103	110	114
 325	3	106	103	110	109
 326	1	106	103	110	113
 327	1	106	103	110	114
 328	1	117	115	116	119
 329	1	117	115	116	120
 330	1	118	115	116	119
 331	1	118	115	116	120
 332	2	113	110	109	116
 333	2	114	110	109	116
 334	4	103	110	109	116
 335	3	109	116	115	117
 336	3	109	116	115	118
 337	4	110	109	116	115
 338	2	110	109	116	119
 339	2	110	109	116	120
 340	3	111	109	116	115
 341	1	111	109	116	119
 342	1	111	109	116	120
 343	3	112	109	116	115
 344	1	112	109	116	119
 345	1	112	109	116	120
 346	1	123	121	122	125
 347	1	123	121	122	126
 348	1	124	121	122	125
 349	1	124	121	122	126
 350	2	119	116	115	122
 351	2	120	116	115	122
 352	4	109	116	115	122
 353	3	115	122	121	123
 354	3	115	122	121	124
 355	4	116	115	122	121
 356	2	116	115	122	125
 357	2	116	115	122	126
 358	3	117	115	122	121
 359	1	117	115	122	125
 360	1	117	115	122	126
 361	3	118	115	122	121
 362	1	118	115	122	125
 363	1	118	115	122	126
 364	1	129	127	128	131
 365	1	129	127	128	132
 366	1	130	127	128	131
 367	1	130	127	128	132
 368	2	125	122	121	128
 369	2	126	122	121	128
 370	4	115	122	121	128
 371	3	121	128	127	129
 372	3	121	128	127	130
 373	4	122	121	128	127
 374	2	122	121	128	131
 375	2	122	121	128	132
 376	3	123	121	128	127
 377	1	123	121	128	131
 378	1	123	121	128	132
 379	3	124	121	128	127
 380	1	124	121	128	131
 381	1	124	121	128	132
 382	1	135	133	134	137
 383	1	135	133	134	138
 384	1	136	133	134	137
 385	1	136	133	134	138
 386	2	131	128	127	134
 387	2	132	128	127	134
 388	4	121	128	127	134
 389	3	127	134	133	135
 390	3	127	134	133	136
 391	4	128	127	134	133
 392	2	128	127	134	137
 393	2	128	127	134	138
 394	3	129	127	134	133
 395	1	129	127	134	137
 396	1	129	127	134	138
 397	3	130	127	134	133
 398	1	130	127	134	137
 399	1	130	127	134	138
 400	1	141	139	140	143
 401	1	141	139	140	144
 402	1	142	139	140	143
 403	1	142	139	140	144
 404	2	137	134	133	140
 405	2	138	134	133	140
 406	4	127	134	133	140
 407	3	133	140	139	141
 408	3	133	140	139	142
 409	4	134	133	140	139
 410	2	134	133	140	143
 411	2	134	133	140	144
 412	3	135	133	140	139
 413	1	135	133	140	143
 414	1	135	133	140	144
 415	3	136	133	140	139
 416	1	136	133	140	143
 417	1	136	133	140	144
 418	1	147	145	146	149
 419	1	147	145	146	150
 420	1	148	145	146	149
 421	1	148	145	146	150
 422	2	143	140	139	146
 423	2	144	140	139	146
 424	4	133	140	139	146
 425	3	139	146	145	147
 426	3	139	146	145	148
 427	4	140	139	146	145
 428	2	140	139	146	149
 429	2	140	139	146	150
 430	3	141	139	146	145
 431	1	141	139	146	149
 432	1	141	139	146	150
 433	3	142	139	146	145
 434	1	142	139	146	149
 435	1	142	139	146	150
 436	2	3	1	2	151
 437	2	4	1	2	151
 438	2	8	1	2	151
 439	1	149	146	145	152
 440	1	150	146	145	152
 441	3	139	146	145	152