pySIMM System Object

104 atoms
103 bonds
204 angles
297 dihedrals
0 impropers

4 atom types
4 bond types
7 angle types
4 dihedral types

-75.213517 75.213517 xlo xhi
-75.213517 75.213517 ylo yhi
-75.213517 75.213517 zlo zhi

Masses

   1	12.01	# c3
   2	1.008	# hc
   3	19.0	# f
   4	1.008	# h2

Pair Coeffs

   1	0.1094	3.3996695084235347	# c3
   2	0.0157	2.649532787749369	# hc
   3	0.061	3.1181455134911875	# f
   4	0.0157	2.2931733004932333	# h2

Bond Coeffs

   1	330.6	1.0969	# c3,hc
   2	356.9	1.3497	# c3,f
   3	331.7	1.0961	# c3,h2
   4	300.9	1.5375	# c3,c3

Angle Coeffs

   1	51.15	108.79	# f,c3,h2
   2	46.34	109.8	# c3,c3,hc
   3	66.11	109.24	# c3,c3,f
   4	39.4	107.58	# hc,c3,hc
   5	46.25	110.22	# c3,c3,h2
   6	70.89	107.36	# f,c3,f
   7	62.86	111.51	# c3,c3,c3

Dihedral Coeffs

   1	2	0.0	3	0	0.19	1	0	# hc,c3,c3,f
   2	1	0.15555555555555556	3	0	# X,c3,c3,X
   3	1	0.16	3	0	# hc,c3,c3,c3
   4	3	0.18	3	0	0.25	2	180	0.2	1	180	# c3,c3,c3,c3

Atoms

   1	1	1	0.070548	6.58571	-5.79516	1.21723
   2	1	1	0.506757	5.27377	-5.88268	2.02246
   3	1	2	-0.012767	7.32307	-6.48736	1.64713
   4	1	2	-0.014806	6.40408	-6.13585	0.190209
   5	1	3	-0.274996	5.53195	-6.02623	3.34111
   6	1	3	-0.274736	4.58259	-6.97803	1.6395
   7	1	1	0.070548	8.54783	-4.28407	0.490481
   8	1	1	0.506757	7.16479	-4.36057	1.19368
   9	1	2	-0.012767	9.0627	-5.2421	0.646817
  10	1	2	-0.014806	9.18119	-3.55289	1.00488
  11	1	3	-0.274996	7.31334	-3.91559	2.46068
  12	1	3	-0.274736	6.27419	-3.52386	0.616325
  13	1	1	0.070548	8.2417	-2.53773	-1.51032
  14	1	1	0.506757	8.52797	-3.99459	-1.03855
  15	1	2	-0.012767	7.16412	-2.33745	-1.45142
  16	1	2	-0.014806	8.49209	-2.48534	-2.57844
  17	1	3	-0.274996	9.71845	-4.37848	-1.55173
  18	1	3	-0.274736	7.62936	-4.81224	-1.63149
  19	1	1	0.070548	9.15145	-0.0691744	-1.54807
  20	1	1	0.506757	9.00996	-1.4079	-0.768425
  21	1	2	-0.012767	9.61735	0.672015	-0.884603
  22	1	2	-0.014806	9.86375	-0.217889	-2.37138
  23	1	3	-0.274996	10.2646	-1.81596	-0.475872
  24	1	3	-0.274736	8.41891	-1.17029	0.423423
  25	1	1	0.070548	8.06308	1.96022	-2.72362
  26	1	1	0.506757	7.84779	0.531987	-2.13528
  27	1	2	-0.012767	7.58478	2.04487	-3.70745
  28	1	2	-0.014806	9.13266	2.08024	-2.9456
  29	1	3	-0.274996	7.42029	-0.257423	-3.14384
  30	1	3	-0.274736	6.86757	0.504848	-1.20827
  31	1	1	0.070548	6.12796	3.3263	-1.44394
  32	1	1	0.506757	7.62894	3.15934	-1.8328
  33	1	2	-0.012767	5.88838	2.65231	-0.612347
  34	1	2	-0.014806	5.99706	4.33266	-1.02142
  35	1	3	-0.274996	8.34614	3.10479	-0.687765
  36	1	3	-0.274736	8.03523	4.29362	-2.44405
  37	1	1	0.070548	3.64703	3.23191	-1.95956
  38	1	1	0.506757	5.07111	3.14012	-2.56542
  39	1	2	-0.012767	3.59849	2.51733	-1.12731
  40	1	2	-0.014806	3.51753	4.22195	-1.50029
  41	1	3	-0.274996	5.2437	4.07815	-3.52018
  42	1	3	-0.274736	5.2347	1.93644	-3.14639
  43	1	1	0.070548	1.15398	2.7282	-2.09178
  44	1	1	0.506757	2.44995	2.96901	-2.91822
  45	1	2	-0.012767	0.710296	3.70782	-1.86515
  46	1	2	-0.014806	1.40766	2.31956	-1.1074
  47	1	3	-0.274996	2.68847	1.93585	-3.74893
  48	1	3	-0.274736	2.27039	4.04981	-3.70747
  49	1	1	0.070548	0.364652	0.317662	-2.95648
  50	1	1	0.506757	0.0579948	1.83203	-2.73708
  51	1	2	-0.012767	0.984558	0.198126	-3.85369
  52	1	2	-0.014806	-0.573267	-0.185462	-3.2216
  53	1	3	-0.274996	-1.03736	1.91983	-1.94921
  54	1	3	-0.274736	-0.31368	2.37445	-3.91636
  55	1	1	0.070548	0.388985	-0.356997	-0.377489
  56	1	1	0.506757	1.04733	-0.450255	-1.78373
  57	1	2	-0.012767	1.13022	-0.668333	0.372018
  58	1	2	-0.014806	0.179553	0.690263	-0.135159
  59	1	3	-0.274996	1.18043	-1.74547	-2.14119
  60	1	3	-0.274736	2.31608	-0.000681729	-1.6561
  61	1	1	0.070548	-1.66265	-0.673943	1.08191
  62	1	1	0.506757	-0.890727	-1.20184	-0.153736
  63	1	2	-0.012767	-0.960967	-0.592967	1.92407
  64	1	2	-0.014806	-1.96301	0.360678	0.880038
  65	1	3	-0.274996	-0.539654	-2.49262	0.0366949
  66	1	3	-0.274736	-1.68126	-1.14554	-1.24512
  67	1	1	0.070548	-4.099	-0.67818	2.02378
  68	1	1	0.506757	-2.89149	-1.52066	1.53396
  69	1	2	-0.012767	-4.87885	-1.3697	2.37091
  70	1	2	-0.014806	-3.79844	-0.114992	2.91891
  71	1	3	-0.274996	-2.49888	-2.29207	2.57326
  72	1	3	-0.274736	-3.32508	-2.39462	0.597824
  73	1	1	0.070548	-6.2553	0.310464	1.01835
  74	1	1	0.506757	-4.70241	0.305708	0.975933
  75	1	2	-0.012767	-6.62168	-0.724058	0.97436
  76	1	2	-0.014806	-6.55165	0.696402	2.00149
  77	1	3	-0.274996	-4.23955	1.54277	1.26652
  78	1	3	-0.274736	-4.26046	0.0268948	-0.267418
  79	1	1	0.070548	-8.51012	1.11934	-0.0603061
  80	1	1	0.506757	-6.95746	1.12975	-0.105144
  81	1	2	-0.012767	-8.87007	0.126988	-0.366415
  82	1	2	-0.014806	-8.87771	1.81354	-0.828508
  83	1	3	-0.274996	-6.52449	2.4096	-0.109522
  84	1	3	-0.274736	-6.63047	0.622056	-1.31395
  85	1	1	0.070548	-10.6621	1.82887	1.13894
  86	1	1	0.506757	-9.15981	1.47614	1.30059
  87	1	2	-0.012767	-10.773	2.51064	0.284617
  88	1	2	-0.014806	-11.209	0.923714	0.846708
  89	1	3	-0.274996	-8.49339	2.48598	1.89909
  90	1	3	-0.274736	-9.04996	0.400309	2.11068
  91	1	1	0.070548	-11.1879	1.81073	3.755
  92	1	1	0.506757	-11.3454	2.49819	2.36835
  93	1	2	-0.012767	-10.1302	1.6002	3.95106
  94	1	2	-0.014806	-11.4666	2.53492	4.53278
  95	1	3	-0.274996	-12.6592	2.63727	2.08571
  96	1	3	-0.274736	-10.8918	3.76665	2.47717
  97	1	1	0.070548	-13.4601	0.806799	4.49321
  98	1	1	0.506757	-12.0291	0.524353	3.97335
  99	1	2	-0.012767	-13.429	1.38744	5.42445
 100	1	2	-0.014806	-14.0549	1.37048	3.7651
 101	1	3	-0.274996	-11.3976	-0.251689	4.88192
 102	1	3	-0.274736	-12.1009	-0.218623	2.84737
 103	1	4	0	4.64467	-4.99923	1.86554
 104	1	2	0	-13.99	-0.1315	4.7013

Velocities

   1	-0.000427973	3.66516e-05	-0.00121048
   2	-0.000436086	0.000847416	-0.000910647
   3	-0.000912056	-0.00085355	-0.00181858
   4	-0.00114989	0.000838447	-0.00135709
   5	-0.000469769	0.00274184	-0.000639959
   6	-0.000794239	0.00055933	0.000579133
   7	0.000629843	0.000827286	0.000666748
   8	0.000338454	-0.000177352	9.8915e-05
   9	0.00183072	0.00166103	0.0018881
  10	-0.000889999	0.0022227	0.00046787
  11	9.09176e-05	-0.00129607	0.000491309
  12	0.00069142	0.000551338	0.000672089
  13	0.000365697	-0.000130406	5.87633e-05
  14	0.000899993	5.53384e-05	0.000489702
  15	0.000332187	-0.000335108	0.00066147
  16	-0.000284951	-0.000441936	-9.37129e-05
  17	0.00111854	0.000429347	0.000908566
  18	0.00139724	-0.000472394	0.000609127
  19	0.000454345	0.000184347	-0.00040036
  20	0.000674182	0.000133314	-0.000519496
  21	-7.16446e-05	0.000278727	-0.000113826
  22	0.000726312	0.000711841	-0.000272813
  23	0.000784432	0.000246381	-0.000975704
  24	0.00117737	0.000321032	-0.000353624
  25	0.000121356	-0.000321474	-0.000550368
  26	0.000323236	-0.000195826	-0.000424675
  27	-0.00042803	-0.000262655	-0.000319703
  28	-2.74211e-06	-0.000240368	-0.00111608
  29	0.000358022	-0.000414238	-0.000228689
  30	0.000563973	-0.00038057	-0.000207815
  31	0.000506315	-0.00102158	0.000543828
  32	0.000423827	-0.000355302	-0.000337127
  33	0.00108191	-0.00134871	0.000444739
  34	0.000464131	-0.00122912	0.00109007
  35	0.00138456	2.60452e-05	-0.000885662
  36	-0.000418086	-0.000255104	-0.000800536
  37	7.67002e-05	-0.000958847	0.000329875
  38	0.000230636	-0.000914575	0.000670644
  39	-0.00018317	-0.00154148	-0.000167423
  40	0.000313158	-0.00126772	0.00100361
  41	0.000414011	-0.00097446	0.000688897
  42	-4.12075e-05	-0.00093462	0.000609742
  43	-0.00015915	-0.000197698	-0.00029631
  44	2.78379e-06	0.000129193	-6.15004e-05
  45	-0.000312411	-0.000324785	-0.000133391
  46	-0.000143919	-0.000182529	-0.000320777
  47	-0.000316206	0.000914935	-0.00117703
  48	0.000237854	0.00100575	0.00107438
  49	-9.52534e-05	-0.00033966	0.000247518
  50	-0.000236767	-0.000346164	-7.13993e-05
  51	-0.000122243	-0.000481297	0.000217353
  52	-2.29353e-05	-0.000661275	0.000517538
  53	-5.8553e-05	-0.000421018	0.000227744
  54	-0.000729687	-0.000618879	-3.13037e-05
  55	-0.000306404	0.000513568	0.000455508
  56	0.000127479	0.000456331	0.000643102
  57	-0.000395774	0.000852817	0.000664094
  58	-0.000589386	0.000504707	0.000295597
  59	0.0012598	0.000425131	0.00113468
  60	-0.000189999	0.00140744	0.000669125
  61	-0.000588356	-1.53351e-05	5.26583e-05
  62	-0.000172596	0.000219247	0.000272888
  63	-0.000972224	3.35796e-05	0.000347726
  64	-0.000782675	-7.12231e-05	5.78173e-05
  65	0.000109639	0.000345827	0.000353562
  66	2.11064e-05	-3.89325e-05	0.000148028
  67	-0.000846202	-0.000425482	-0.000631409
  68	-0.000651808	-0.000246619	-0.000352184
  69	-0.000914466	-0.000484941	-0.000832867
  70	-0.00115238	-0.000349285	-0.000547095
  71	-0.000931723	-0.000342257	-0.000300167
  72	-0.000311996	-0.00021718	-0.000577925
  73	-0.000436236	-0.000503093	-0.000699607
  74	-0.000541853	-0.000488471	-0.000772295
  75	-0.000516226	-0.000450858	-0.00153366
  76	-0.000397904	-0.00127534	-0.000368779
  77	-0.000382762	-0.000518094	-0.000908515
  78	-0.000650399	-0.000797018	-0.00076847
  79	-0.000166461	0.000126448	0.000219112
  80	-0.000237043	0.000478169	-2.32216e-05
  81	3.60124e-05	7.3428e-05	0.000239377
  82	-0.000310981	0.000118416	0.000355228
  83	-0.000471316	0.000524202	0.00115861
  84	-0.000236338	0.00166675	-0.000481018
  85	0.000256956	0.000583906	0.000194827
  86	-3.18882e-05	-8.2404e-05	0.000403872
  87	0.000927527	0.00113437	0.000489049
  88	-2.08134e-05	0.000913681	-0.000480017
  89	0.000347908	-0.000543348	0.000877086
  90	-0.000500717	-0.000317336	0.000195995
  91	-0.000330396	0.000566178	0.000322723
  92	-0.000104297	0.000339882	9.51405e-05
  93	-0.000211231	0.00130507	0.000826056
  94	-0.00132231	0.000592395	8.65264e-06
  95	-2.74426e-06	0.000107548	-0.000177838
  96	-0.000223183	0.000387673	-3.68136e-05
  97	-2.9692e-05	-0.000616829	-0.000261498
  98	0.000442683	-1.7867e-05	0.000444174
  99	-0.000809139	-0.000557921	-0.00029932
 100	8.56135e-05	-0.000977127	-0.000632233
 101	0.000611834	0.000898937	0.00113938
 102	0.00181875	-0.000501114	0.000735705
 103	-0.000424643	0.000733356	-0.0019679
 104	7.58743e-05	-0.000783365	-0.000347465

Bonds

   1	4	1	2
   2	1	1	3
   3	1	1	4
   4	2	2	5
   5	2	2	6
   6	4	7	8
   7	1	7	9
   8	1	7	10
   9	2	8	11
  10	2	8	12
  11	4	1	8
  12	4	13	14
  13	1	13	15
  14	1	13	16
  15	2	14	17
  16	2	14	18
  17	4	7	14
  18	4	19	20
  19	1	19	21
  20	1	19	22
  21	2	20	23
  22	2	20	24
  23	4	13	20
  24	4	25	26
  25	1	25	27
  26	1	25	28
  27	2	26	29
  28	2	26	30
  29	4	19	26
  30	4	31	32
  31	1	31	33
  32	1	31	34
  33	2	32	35
  34	2	32	36
  35	4	25	32
  36	4	37	38
  37	1	37	39
  38	1	37	40
  39	2	38	41
  40	2	38	42
  41	4	31	38
  42	4	43	44
  43	1	43	45
  44	1	43	46
  45	2	44	47
  46	2	44	48
  47	4	37	44
  48	4	49	50
  49	1	49	51
  50	1	49	52
  51	2	50	53
  52	2	50	54
  53	4	43	50
  54	4	55	56
  55	1	55	57
  56	1	55	58
  57	2	56	59
  58	2	56	60
  59	4	49	56
  60	4	61	62
  61	1	61	63
  62	1	61	64
  63	2	62	65
  64	2	62	66
  65	4	55	62
  66	4	67	68
  67	1	67	69
  68	1	67	70
  69	2	68	71
  70	2	68	72
  71	4	61	68
  72	4	73	74
  73	1	73	75
  74	1	73	76
  75	2	74	77
  76	2	74	78
  77	4	67	74
  78	4	79	80
  79	1	79	81
  80	1	79	82
  81	2	80	83
  82	2	80	84
  83	4	73	80
  84	4	85	86
  85	1	85	87
  86	1	85	88
  87	2	86	89
  88	2	86	90
  89	4	79	86
  90	4	91	92
  91	1	91	93
  92	1	91	94
  93	2	92	95
  94	2	92	96
  95	4	85	92
  96	4	97	98
  97	1	97	99
  98	1	97	100
  99	2	98	101
 100	2	98	102
 101	4	91	98
 102	3	2	103
 103	1	97	104

Angles

   1	2	2	1	3
   2	2	2	1	4
   3	4	3	1	4
   4	3	1	2	5
   5	3	1	2	6
   6	6	5	2	6
   7	2	8	7	9
   8	2	8	7	10
   9	4	9	7	10
  10	3	7	8	11
  11	3	7	8	12
  12	6	11	8	12
  13	7	2	1	8
  14	2	3	1	8
  15	2	4	1	8
  16	7	1	8	7
  17	3	1	8	11
  18	3	1	8	12
  19	2	14	13	15
  20	2	14	13	16
  21	4	15	13	16
  22	3	13	14	17
  23	3	13	14	18
  24	6	17	14	18
  25	7	8	7	14
  26	2	9	7	14
  27	2	10	7	14
  28	7	7	14	13
  29	3	7	14	17
  30	3	7	14	18
  31	2	20	19	21
  32	2	20	19	22
  33	4	21	19	22
  34	3	19	20	23
  35	3	19	20	24
  36	6	23	20	24
  37	7	14	13	20
  38	2	15	13	20
  39	2	16	13	20
  40	7	13	20	19
  41	3	13	20	23
  42	3	13	20	24
  43	2	26	25	27
  44	2	26	25	28
  45	4	27	25	28
  46	3	25	26	29
  47	3	25	26	30
  48	6	29	26	30
  49	7	20	19	26
  50	2	21	19	26
  51	2	22	19	26
  52	7	19	26	25
  53	3	19	26	29
  54	3	19	26	30
  55	2	32	31	33
  56	2	32	31	34
  57	4	33	31	34
  58	3	31	32	35
  59	3	31	32	36
  60	6	35	32	36
  61	7	26	25	32
  62	2	27	25	32
  63	2	28	25	32
  64	7	25	32	31
  65	3	25	32	35
  66	3	25	32	36
  67	2	38	37	39
  68	2	38	37	40
  69	4	39	37	40
  70	3	37	38	41
  71	3	37	38	42
  72	6	41	38	42
  73	7	32	31	38
  74	2	33	31	38
  75	2	34	31	38
  76	7	31	38	37
  77	3	31	38	41
  78	3	31	38	42
  79	2	44	43	45
  80	2	44	43	46
  81	4	45	43	46
  82	3	43	44	47
  83	3	43	44	48
  84	6	47	44	48
  85	7	38	37	44
  86	2	39	37	44
  87	2	40	37	44
  88	7	37	44	43
  89	3	37	44	47
  90	3	37	44	48
  91	2	50	49	51
  92	2	50	49	52
  93	4	51	49	52
  94	3	49	50	53
  95	3	49	50	54
  96	6	53	50	54
  97	7	44	43	50
  98	2	45	43	50
  99	2	46	43	50
 100	7	43	50	49
 101	3	43	50	53
 102	3	43	50	54
 103	2	56	55	57
 104	2	56	55	58
 105	4	57	55	58
 106	3	55	56	59
 107	3	55	56	60
 108	6	59	56	60
 109	7	50	49	56
 110	2	51	49	56
 111	2	52	49	56
 112	7	49	56	55
 113	3	49	56	59
 114	3	49	56	60
 115	2	62	61	63
 116	2	62	61	64
 117	4	63	61	64
 118	3	61	62	65
 119	3	61	62	66
 120	6	65	62	66
 121	7	56	55	62
 122	2	57	55	62
 123	2	58	55	62
 124	7	55	62	61
 125	3	55	62	65
 126	3	55	62	66
 127	2	68	67	69
 128	2	68	67	70
 129	4	69	67	70
 130	3	67	68	71
 131	3	67	68	72
 132	6	71	68	72
 133	7	62	61	68
 134	2	63	61	68
 135	2	64	61	68
 136	7	61	68	67
 137	3	61	68	71
 138	3	61	68	72
 139	2	74	73	75
 140	2	74	73	76
 141	4	75	73	76
 142	3	73	74	77
 143	3	73	74	78
 144	6	77	74	78
 145	7	68	67	74
 146	2	69	67	74
 147	2	70	67	74
 148	7	67	74	73
 149	3	67	74	77
 150	3	67	74	78
 151	2	80	79	81
 152	2	80	79	82
 153	4	81	79	82
 154	3	79	80	83
 155	3	79	80	84
 156	6	83	80	84
 157	7	74	73	80
 158	2	75	73	80
 159	2	76	73	80
 160	7	73	80	79
 161	3	73	80	83
 162	3	73	80	84
 163	2	86	85	87
 164	2	86	85	88
 165	4	87	85	88
 166	3	85	86	89
 167	3	85	86	90
 168	6	89	86	90
 169	7	80	79	86
 170	2	81	79	86
 171	2	82	79	86
 172	7	79	86	85
 173	3	79	86	89
 174	3	79	86	90
 175	2	92	91	93
 176	2	92	91	94
 177	4	93	91	94
 178	3	91	92	95
 179	3	91	92	96
 180	6	95	92	96
 181	7	86	85	92
 182	2	87	85	92
 183	2	88	85	92
 184	7	85	92	91
 185	3	85	92	95
 186	3	85	92	96
 187	2	98	97	99
 188	2	98	97	100
 189	4	99	97	100
 190	3	97	98	101
 191	3	97	98	102
 192	6	101	98	102
 193	7	92	91	98
 194	2	93	91	98
 195	2	94	91	98
 196	7	91	98	97
 197	3	91	98	101
 198	3	91	98	102
 199	5	1	2	103
 200	1	5	2	103
 201	1	6	2	103
 202	2	98	97	104
 203	4	99	97	104
 204	4	100	97	104

Dihedrals

   1	1	3	1	2	5
   2	1	3	1	2	6
   3	1	4	1	2	5
   4	1	4	1	2	6
   5	1	9	7	8	11
   6	1	9	7	8	12
   7	1	10	7	8	11
   8	1	10	7	8	12
   9	2	5	2	1	8
  10	2	6	2	1	8
  11	3	1	8	7	9
  12	3	1	8	7	10
  13	4	2	1	8	7
  14	2	2	1	8	11
  15	2	2	1	8	12
  16	3	3	1	8	7
  17	1	3	1	8	11
  18	1	3	1	8	12
  19	3	4	1	8	7
  20	1	4	1	8	11
  21	1	4	1	8	12
  22	1	15	13	14	17
  23	1	15	13	14	18
  24	1	16	13	14	17
  25	1	16	13	14	18
  26	2	11	8	7	14
  27	2	12	8	7	14
  28	4	1	8	7	14
  29	3	7	14	13	15
  30	3	7	14	13	16
  31	4	8	7	14	13
  32	2	8	7	14	17
  33	2	8	7	14	18
  34	3	9	7	14	13
  35	1	9	7	14	17
  36	1	9	7	14	18
  37	3	10	7	14	13
  38	1	10	7	14	17
  39	1	10	7	14	18
  40	1	21	19	20	23
  41	1	21	19	20	24
  42	1	22	19	20	23
  43	1	22	19	20	24
  44	2	17	14	13	20
  45	2	18	14	13	20
  46	4	7	14	13	20
  47	3	13	20	19	21
  48	3	13	20	19	22
  49	4	14	13	20	19
  50	2	14	13	20	23
  51	2	14	13	20	24
  52	3	15	13	20	19
  53	1	15	13	20	23
  54	1	15	13	20	24
  55	3	16	13	20	19
  56	1	16	13	20	23
  57	1	16	13	20	24
  58	1	27	25	26	29
  59	1	27	25	26	30
  60	1	28	25	26	29
  61	1	28	25	26	30
  62	2	23	20	19	26
  63	2	24	20	19	26
  64	4	13	20	19	26
  65	3	19	26	25	27
  66	3	19	26	25	28
  67	4	20	19	26	25
  68	2	20	19	26	29
  69	2	20	19	26	30
  70	3	21	19	26	25
  71	1	21	19	26	29
  72	1	21	19	26	30
  73	3	22	19	26	25
  74	1	22	19	26	29
  75	1	22	19	26	30
  76	1	33	31	32	35
  77	1	33	31	32	36
  78	1	34	31	32	35
  79	1	34	31	32	36
  80	2	29	26	25	32
  81	2	30	26	25	32
  82	4	19	26	25	32
  83	3	25	32	31	33
  84	3	25	32	31	34
  85	4	26	25	32	31
  86	2	26	25	32	35
  87	2	26	25	32	36
  88	3	27	25	32	31
  89	1	27	25	32	35
  90	1	27	25	32	36
  91	3	28	25	32	31
  92	1	28	25	32	35
  93	1	28	25	32	36
  94	1	39	37	38	41
  95	1	39	37	38	42
  96	1	40	37	38	41
  97	1	40	37	38	42
  98	2	35	32	31	38
  99	2	36	32	31	38
 100	4	25	32	31	38
 101	3	31	38	37	39
 102	3	31	38	37	40
 103	4	32	31	38	37
 104	2	32	31	38	41
 105	2	32	31	38	42
 106	3	33	31	38	37
 107	1	33	31	38	41
 108	1	33	31	38	42
 109	3	34	31	38	37
 110	1	34	31	38	41
 111	1	34	31	38	42
 112	1	45	43	44	47
 113	1	45	43	44	48
 114	1	46	43	44	47
 115	1	46	43	44	48
 116	2	41	38	37	44
 117	2	42	38	37	44
 118	4	31	38	37	44
 119	3	37	44	43	45
 120	3	37	44	43	46
 121	4	38	37	44	43
 122	2	38	37	44	47
 123	2	38	37	44	48
 124	3	39	37	44	43
 125	1	39	37	44	47
 126	1	39	37	44	48
 127	3	40	37	44	43
 128	1	40	37	44	47
 129	1	40	37	44	48
 130	1	51	49	50	53
 131	1	51	49	50	54
 132	1	52	49	50	53
 133	1	52	49	50	54
 134	2	47	44	43	50
 135	2	48	44	43	50
 136	4	37	44	43	50
 137	3	43	50	49	51
 138	3	43	50	49	52
 139	4	44	43	50	49
 140	2	44	43	50	53
 141	2	44	43	50	54
 142	3	45	43	50	49
 143	1	45	43	50	53
 144	1	45	43	50	54
 145	3	46	43	50	49
 146	1	46	43	50	53
 147	1	46	43	50	54
 148	1	57	55	56	59
 149	1	57	55	56	60
 150	1	58	55	56	59
 151	1	58	55	56	60
 152	2	53	50	49	56
 153	2	54	50	49	56
 154	4	43	50	49	56
 155	3	49	56	55	57
 156	3	49	56	55	58
 157	4	50	49	56	55
 158	2	50	49	56	59
 159	2	50	49	56	60
 160	3	51	49	56	55
 161	1	51	49	56	59
 162	1	51	49	56	60
 163	3	52	49	56	55
 164	1	52	49	56	59
 165	1	52	49	56	60
 166	1	63	61	62	65
 167	1	63	61	62	66
 168	1	64	61	62	65
 169	1	64	61	62	66
 170	2	59	56	55	62
 171	2	60	56	55	62
 172	4	49	56	55	62
 173	3	55	62	61	63
 174	3	55	62	61	64
 175	4	56	55	62	61
 176	2	56	55	62	65
 177	2	56	55	62	66
 178	3	57	55	62	61
 179	1	57	55	62	65
 180	1	57	55	62	66
 181	3	58	55	62	61
 182	1	58	55	62	65
 183	1	58	55	62	66
 184	1	69	67	68	71
 185	1	69	67	68	72
 186	1	70	67	68	71
 187	1	70	67	68	72
 188	2	65	62	61	68
 189	2	66	62	61	68
 190	4	55	62	61	68
 191	3	61	68	67	69
 192	3	61	68	67	70
 193	4	62	61	68	67
 194	2	62	61	68	71
 195	2	62	61	68	72
 196	3	63	61	68	67
 197	1	63	61	68	71
 198	1	63	61	68	72
 199	3	64	61	68	67
 200	1	64	61	68	71
 201	1	64	61	68	72
 202	1	75	73	74	77
 203	1	75	73	74	78
 204	1	76	73	74	77
 205	1	76	73	74	78
 206	2	71	68	67	74
 207	2	72	68	67	74
 208	4	61	68	67	74
 209	3	67	74	73	75
 210	3	67	74	73	76
 211	4	68	67	74	73
 212	2	68	67	74	77
 213	2	68	67	74	78
 214	3	69	67	74	73
 215	1	69	67	74	77
 216	1	69	67	74	78
 217	3	70	67	74	73
 218	1	70	67	74	77
 219	1	70	67	74	78
 220	1	81	79	80	83
 221	1	81	79	80	84
 222	1	82	79	80	83
 223	1	82	79	80	84
 224	2	77	74	73	80
 225	2	78	74	73	80
 226	4	67	74	73	80
 227	3	73	80	79	81
 228	3	73	80	79	82
 229	4	74	73	80	79
 230	2	74	73	80	83
 231	2	74	73	80	84
 232	3	75	73	80	79
 233	1	75	73	80	83
 234	1	75	73	80	84
 235	3	76	73	80	79
 236	1	76	73	80	83
 237	1	76	73	80	84
 238	1	87	85	86	89
 239	1	87	85	86	90
 240	1	88	85	86	89
 241	1	88	85	86	90
 242	2	83	80	79	86
 243	2	84	80	79	86
 244	4	73	80	79	86
 245	3	79	86	85	87
 246	3	79	86	85	88
 247	4	80	79	86	85
 248	2	80	79	86	89
 249	2	80	79	86	90
 250	3	81	79	86	85
 251	1	81	79	86	89
 252	1	81	79	86	90
 253	3	82	79	86	85
 254	1	82	79	86	89
 255	1	82	79	86	90
 256	1	93	91	92	95
 257	1	93	91	92	96
 258	1	94	91	92	95
 259	1	94	91	92	96
 260	2	89	86	85	92
 261	2	90	86	85	92
 262	4	79	86	85	92
 263	3	85	92	91	93
 264	3	85	92	91	94
 265	4	86	85	92	91
 266	2	86	85	92	95
 267	2	86	85	92	96
 268	3	87	85	92	91
 269	1	87	85	92	95
 270	1	87	85	92	96
 271	3	88	85	92	91
 272	1	88	85	92	95
 273	1	88	85	92	96
 274	1	99	97	98	101
 275	1	99	97	98	102
 276	1	100	97	98	101
 277	1	100	97	98	102
 278	2	95	92	91	98
 279	2	96	92	91	98
 280	4	85	92	91	98
 281	3	91	98	97	99
 282	3	91	98	97	100
 283	4	92	91	98	97
 284	2	92	91	98	101
 285	2	92	91	98	102
 286	3	93	91	98	97
 287	1	93	91	98	101
 288	1	93	91	98	102
 289	3	94	91	98	97
 290	1	94	91	98	101
 291	1	94	91	98	102
 292	2	3	1	2	103
 293	2	4	1	2	103
 294	2	8	1	2	103
 295	1	101	98	97	104
 296	1	102	98	97	104
 297	3	91	98	97	104

