pySIMM System Object

140 atoms
139 bonds
276 angles
405 dihedrals
0 impropers

4 atom types
4 bond types
7 angle types
4 dihedral types

-83.636683 83.636683 xlo xhi
-83.636683 83.636683 ylo yhi
-83.636683 83.636683 zlo zhi

Masses

   1	12.01	# c3
   2	1.008	# hc
   3	19.0	# f
   4	1.008	# h2

Pair Coeffs

   1	0.1094	3.3996695084235347	# c3
   2	0.0157	2.649532787749369	# hc
   3	0.061	3.1181455134911875	# f
   4	0.0157	2.2931733004932333	# h2

Bond Coeffs

   1	330.6	1.0969	# c3,hc
   2	356.9	1.3497	# c3,f
   3	331.7	1.0961	# c3,h2
   4	300.9	1.5375	# c3,c3

Angle Coeffs

   1	51.15	108.79	# f,c3,h2
   2	46.34	109.8	# c3,c3,hc
   3	66.11	109.24	# c3,c3,f
   4	39.4	107.58	# hc,c3,hc
   5	46.25	110.22	# c3,c3,h2
   6	70.89	107.36	# f,c3,f
   7	62.86	111.51	# c3,c3,c3

Dihedral Coeffs

   1	2	0.0	3	0	0.19	1	0	# hc,c3,c3,f
   2	1	0.15555555555555556	3	0	# X,c3,c3,X
   3	1	0.16	3	0	# hc,c3,c3,c3
   4	3	0.18	3	0	0.25	2	180	0.2	1	180	# c3,c3,c3,c3

Atoms

   1	1	1	0.070548	-2.05026	14.0497	-10.7406
   2	1	1	0.506757	-0.865128	13.1435	-11.1344
   3	1	2	-0.012767	-2.31616	14.7092	-11.578
   4	1	2	-0.014806	-2.92462	13.4159	-10.547
   5	1	3	-0.274996	-0.0667391	13.768	-12.0271
   6	1	3	-0.274736	-1.33	12.0256	-11.7341
   7	1	1	0.070548	-2.82031	15.9286	-9.07781
   8	1	1	0.506757	-1.73415	14.892	-9.48314
   9	1	2	-0.012767	-2.81447	16.7339	-9.82565
  10	1	2	-0.014806	-2.51773	16.4114	-8.1397
  11	1	3	-0.274996	-0.580644	15.5667	-9.6815
  12	1	3	-0.274736	-1.4873	14.059	-8.45057
  13	1	1	0.070548	-4.53756	14.1732	-8.04055
  14	1	1	0.506757	-4.28323	15.4154	-8.94358
  15	1	2	-0.012767	-3.90095	13.359	-8.3968
  16	1	2	-0.014806	-5.56722	13.8278	-8.20756
  17	1	3	-0.274996	-5.05552	16.4474	-8.54122
  18	1	3	-0.274736	-4.74563	15.1243	-10.1798
  19	1	1	0.070548	-4.61526	13.1034	-5.64924
  20	1	1	0.506757	-4.34344	14.3703	-6.50973
  21	1	2	-0.012767	-4.43632	13.3646	-4.60051
  22	1	2	-0.014806	-5.68583	12.8625	-5.70603
  23	1	3	-0.274996	-5.19781	15.3181	-6.06809
  24	1	3	-0.274736	-3.11119	14.8457	-6.23345
  25	1	1	0.070548	-3.86436	10.7047	-4.95001
  26	1	1	0.506757	-3.80861	11.8273	-6.02433
  27	1	2	-0.012767	-3.74267	9.72647	-5.43154
  28	1	2	-0.014806	-4.88461	10.6815	-4.5425
  29	1	3	-0.274996	-4.3421	11.3089	-7.15258
  30	1	3	-0.274736	-2.53271	12.1322	-6.33234
  31	1	1	0.070548	-1.34228	10.6561	-4.0363
  32	1	1	0.506757	-2.86705	10.8176	-3.75957
  33	1	2	-0.012767	-0.956112	11.5471	-4.54609
  34	1	2	-0.014806	-0.826729	10.647	-3.0657
  35	1	3	-0.274996	-3.04346	12.008	-3.14849
  36	1	3	-0.274736	-3.2347	9.90723	-2.83054
  37	1	1	0.070548	0.640758	9.26953	-4.84926
  38	1	1	0.506757	-0.906875	9.39027	-4.81977
  39	1	2	-0.012767	1.0482	10.2216	-5.21718
  40	1	2	-0.014806	1.01748	9.183	-3.8228
  41	1	3	-0.274996	-1.44978	8.29521	-4.24753
  42	1	3	-0.274736	-1.38473	9.44354	-6.07946
  43	1	1	0.070548	0.769562	6.66976	-5.44909
  44	1	1	0.506757	1.23327	8.12869	-5.72662
  45	1	2	-0.012767	1.19193	6.02974	-6.23649
  46	1	2	-0.014806	-0.315768	6.59093	-5.58574
  47	1	3	-0.274996	2.57877	8.19587	-5.63103
  48	1	3	-0.274736	0.977178	8.40054	-7.02565
  49	1	1	0.070548	0.504295	4.66477	-3.89016
  50	1	1	0.506757	1.17299	6.05284	-4.08005
  51	1	2	-0.012767	0.31776	4.21904	-4.87703
  52	1	2	-0.014806	-0.492894	4.81623	-3.45234
  53	1	3	-0.274996	2.51624	5.96634	-3.992
  54	1	3	-0.274736	0.782825	6.84677	-3.05903
  55	1	1	0.070548	1.58967	4.06168	-1.57512
  56	1	1	0.506757	1.27031	3.621	-3.03417
  57	1	2	-0.012767	2.12679	5.01856	-1.58081
  58	1	2	-0.014806	0.638863	4.26251	-1.06326
  59	1	3	-0.274996	0.465157	2.5352	-3.00261
  60	1	3	-0.274736	2.38819	3.23661	-3.68802
  61	1	1	0.070548	2.3631	3.36935	0.77848
  62	1	1	0.506757	2.42157	3.03958	-0.741051
  63	1	2	-0.012767	2.95395	4.27721	0.964446
  64	1	2	-0.014806	1.33097	3.63031	1.04823
  65	1	3	-0.274996	3.71031	3.09401	-1.14372
  66	1	3	-0.274736	1.99499	1.77902	-0.963315
  67	1	1	0.070548	2.83628	2.73988	3.21693
  68	1	1	0.506757	2.84537	2.24728	1.74332
  69	1	2	-0.012767	3.74606	3.33005	3.39553
  70	1	2	-0.014806	2.00233	3.44242	3.35208
  71	1	3	-0.274996	4.10187	1.86609	1.42594
  72	1	3	-0.274736	2.05864	1.15543	1.62214
  73	1	1	0.070548	3.83778	0.561951	4.27158
  74	1	1	0.506757	2.72229	1.64313	4.31389
  75	1	2	-0.012767	3.8908	0.121769	3.26895
  76	1	2	-0.014806	4.80386	1.06351	4.42353
  77	1	3	-0.274996	2.76863	2.28918	5.49903
  78	1	3	-0.274736	1.49556	1.07818	4.26332
  79	1	1	0.070548	2.56883	-1.61684	4.95799
  80	1	1	0.506757	3.7091	-0.605851	5.29256
  81	1	2	-0.012767	2.46983	-1.70342	3.86738
  82	1	2	-0.014806	1.61287	-1.2093	5.31241
  83	1	3	-0.274996	4.9108	-1.22294	5.30984
  84	1	3	-0.274736	3.53231	-0.123538	6.54207
  85	1	1	0.070548	1.46351	-3.90804	5.33882
  86	1	1	0.506757	2.73832	-3.04283	5.55289
  87	1	2	-0.012767	0.680198	-3.54603	6.01941
  88	1	2	-0.014806	1.07359	-3.7303	4.32691
  89	1	3	-0.274996	2.99667	-2.95999	6.87608
  90	1	3	-0.274736	3.79448	-3.64755	4.96775
  91	1	1	0.070548	2.16165	-6.15748	4.25368
  92	1	1	0.506757	1.65116	-5.44334	5.53709
  93	1	2	-0.012767	1.3086	-6.29565	3.57499
  94	1	2	-0.014806	2.84365	-5.49665	3.7057
  95	1	3	-0.274996	0.442682	-5.9701	5.83898
  96	1	3	-0.274736	2.42679	-5.70566	6.61057
  97	1	1	0.070548	2.06357	-8.60915	5.21726
  98	1	1	0.506757	2.87094	-7.5257	4.4408
  99	1	2	-0.012767	2.06936	-8.36255	6.28724
 100	1	2	-0.014806	1.01306	-8.56689	4.89995
 101	1	3	-0.274996	4.06315	-7.31622	5.04293
 102	1	3	-0.274736	3.15843	-7.96574	3.19527
 103	1	1	0.070548	2.14957	-11.0841	6.11189
 104	1	1	0.506757	2.59252	-10.0647	5.02705
 105	1	2	-0.012767	2.63902	-12.0446	5.90429
 106	1	2	-0.014806	2.55364	-10.7565	7.08004
 107	1	3	-0.274996	3.94401	-10.0817	5.0371
 108	1	3	-0.274736	2.23083	-10.5309	3.81054
 109	1	1	0.070548	0.314599	-12.4937	7.24712
 110	1	1	0.506757	0.623859	-11.3186	6.27544
 111	1	2	-0.012767	1.11595	-12.5481	7.99708
 112	1	2	-0.014806	-0.592915	-12.261	7.82127
 113	1	3	-0.274996	0.0695001	-10.2008	6.79313
 114	1	3	-0.274736	0.0132194	-11.5076	5.08608
 115	1	1	0.070548	-1.24734	-14.0848	5.90788
 116	1	1	0.506757	0.137177	-13.8969	6.59949
 117	1	2	-0.012767	-1.91906	-13.2744	6.22259
 118	1	2	-0.014806	-1.1273	-13.9501	4.82388
 119	1	3	-0.274996	0.344375	-14.8135	7.57002
 120	1	3	-0.274736	1.11827	-14.1289	5.6989
 121	1	1	0.070548	-1.21973	-16.6862	5.62927
 122	1	1	0.506757	-1.98072	-15.4307	6.15369
 123	1	2	-0.012767	-0.339344	-16.8697	6.2579
 124	1	2	-0.014806	-0.826762	-16.4726	4.62583
 125	1	3	-0.274996	-3.1812	-15.3194	5.54455
 126	1	3	-0.274736	-2.25414	-15.5468	7.47316
 127	1	1	0.070548	-1.18547	-19.2287	5.24917
 128	1	1	0.506757	-2.06737	-17.9894	5.56602
 129	1	2	-0.012767	-0.408694	-19.3209	6.02068
 130	1	2	-0.014806	-0.648272	-19.0505	4.3072
 131	1	3	-0.274996	-3.00415	-17.8541	4.60223
 132	1	3	-0.274736	-2.70917	-18.1767	6.73894
 133	1	1	0.070548	-0.989583	-21.7488	4.8222
 134	1	1	0.506757	-1.94716	-20.5801	5.14458
 135	1	2	-0.012767	-0.40292	-21.5404	3.91823
 136	1	2	-0.014806	-1.54969	-22.6785	4.65442
 137	1	3	-0.274996	-2.88784	-20.5383	4.17541
 138	1	3	-0.274736	-2.57607	-20.8743	6.30373
 139	1	4	0	-0.274933	12.8476	-10.2593
 140	1	2	0	-0.28965	-21.9205	5.64998

Velocities

   1	-9.6996e-05	-0.000259801	-0.000194636
   2	7.66515e-05	0.000261578	-0.000442878
   3	-0.000762638	-0.000330317	9.92241e-06
   4	0.000151387	-0.000502232	5.85156e-05
   5	0.000894886	0.00150778	0.00105502
   6	0.000872891	0.0009075	-0.0021891
   7	0.000150219	-0.00016115	0.000132011
   8	-6.62608e-05	-0.000169705	-0.000153723
   9	4.81858e-05	-4.41678e-05	0.000263856
  10	0.000129423	-0.000464096	9.14236e-05
  11	-0.000122267	-0.000244803	-0.00020286
  12	0.000185225	-0.000103699	-7.76896e-05
  13	0.000233397	-0.000266807	4.53289e-05
  14	0.000159099	-0.000194483	3.07269e-05
  15	0.000344345	-0.000120002	0.0002594
  16	0.000368537	-0.000501299	-0.000109052
  17	0.000138549	-0.000149605	0.000236175
  18	-6.37355e-05	-0.00010118	6.15157e-05
  19	-0.000279956	-1.32667e-06	8.4221e-06
  20	-5.43057e-05	-8.75451e-05	5.96552e-05
  21	-0.000485345	6.88535e-06	0.000163004
  22	-0.000340697	9.62228e-05	-9.21455e-05
  23	3.15591e-05	1.52379e-05	-8.86115e-05
  24	1.80816e-05	-0.000253725	0.000160223
  25	-0.000233024	0.000224204	0.000514993
  26	-0.000345721	-9.15949e-05	0.000194303
  27	-0.000574803	0.000121836	0.000702962
  28	-0.000112104	0.000567685	0.000871478
  29	-0.000410958	-0.000246342	0.00030969
  30	-0.000368922	-0.000136113	-4.37885e-06
  31	4.0554e-05	0.000390652	-0.000463932
  32	0.000254953	0.000416586	9.48094e-05
  33	-0.000207296	3.91874e-05	-0.00119361
  34	0.000465698	0.00107102	-0.000739314
  35	0.000431479	0.000458505	1.75754e-05
  36	0.000580874	0.000530147	0.000423532
  37	-0.000172209	7.36509e-06	0.000551975
  38	-0.000175219	-6.91026e-05	0.000213069
  39	-9.17713e-05	-1.86437e-05	0.000597052
  40	-0.000512202	-5.01439e-05	0.000651966
  41	-7.95045e-05	0.000271149	0.000912119
  42	-0.00019682	-0.00080873	0.000210998
  43	0.000137328	0.000111317	0.000804516
  44	0.000237018	1.24238e-05	0.000862884
  45	-0.000696476	0.000262985	0.000282334
  46	1.5186e-05	0.00045007	0.00172253
  47	0.000233433	0.000119941	0.00140984
  48	0.000707392	-0.000101078	0.000738611
  49	0.000908661	-0.000568692	-0.000792842
  50	0.000916894	-0.000475914	0.000257214
  51	0.00219055	-0.00033967	-0.00114897
  52	0.000426093	-0.000733482	-0.00189447
  53	0.000926845	-0.00069362	-0.000371079
  54	0.00119954	-0.00101969	0.000829953
  55	-0.000588146	-0.000617983	-0.000258741
  56	5.85241e-05	-0.000722414	-0.000337867
  57	-0.000869975	-0.000476857	-3.36588e-05
  58	-0.000861468	-0.000967906	-0.000608858
  59	-0.000384483	-0.000424224	-0.000524525
  60	0.000244268	-0.00121886	0.000265851
  61	-0.00114481	-0.000181869	-0.000126692
  62	-0.000542424	-0.000323557	-7.64453e-05
  63	-0.00180748	0.000244129	-0.000153119
  64	-0.00139635	-0.000831474	-0.000444
  65	-0.000425942	0.000169209	0.000289305
  66	-6.22703e-05	-0.000479358	-0.000187171
  67	-0.000688404	0.000357059	6.99795e-05
  68	-0.000686344	0.000246472	7.97625e-05
  69	-0.000698887	0.000430136	-9.1502e-05
  70	-0.000667286	0.000408964	2.78948e-06
  71	-0.000564184	0.000624923	5.82419e-05
  72	-0.000321812	-4.35099e-05	0.000243534
  73	-0.000563452	0.000211522	-0.000255742
  74	-0.000473837	0.000363827	0.000171965
  75	-0.00101549	0.000332247	-0.000311589
  76	-0.000558301	0.000299867	-0.000693627
  77	7.26501e-05	0.000387555	0.000141976
  78	-0.000535543	0.00044804	0.000631709
  79	0.000542624	-0.000612849	4.61273e-05
  80	0.000226905	-0.000105079	-0.000365376
  81	0.00060688	-0.000888756	7.69533e-05
  82	0.000490491	-0.00070195	-8.41796e-05
  83	0.000418441	0.000175851	-0.00105168
  84	0.000705821	-0.000279065	-0.000222968
  85	0.000648034	-0.000541469	0.000327362
  86	0.000736757	-0.000646009	0.000289327
  87	0.000987742	-0.000992066	0.000902113
  88	0.000213132	-0.000107128	0.000641612
  89	0.000660208	-0.000499896	0.000274197
  90	0.000632726	-0.000883007	0.00039046
  91	-0.000675186	-0.000578181	-0.00100444
  92	0.000462072	-0.000717896	-0.000418092
  93	-0.00152984	-0.00189479	0.000209931
  94	-0.00197105	-0.000357379	-0.00225087
  95	0.000604896	-0.000544088	0.000338744
  96	0.00106823	-0.00112012	-0.00103925
  97	0.000281999	4.10732e-05	-0.000564425
  98	0.0002804	-0.000218084	-0.000801637
  99	0.000237116	0.000345695	-0.000594616
 100	0.000260976	-7.97876e-05	-0.000614893
 101	9.09716e-05	0.000600734	-0.000688052
 102	0.000795463	-0.000385181	-0.000659646
 103	-0.000531931	7.76037e-06	-0.00044585
 104	0.000187424	2.26218e-05	-3.30642e-05
 105	-0.00137781	-0.000162825	-0.00131102
 106	1.6746e-05	-0.00085917	-0.000454893
 107	0.000203464	0.000148513	0.00110345
 108	0.00104534	-2.69316e-05	-0.000254079
 109	-8.72921e-06	0.000715096	0.000463015
 110	-0.000591781	0.000660981	0.000174941
 111	0.000399235	0.0009863	-6.63603e-06
 112	0.000195927	0.000573749	0.00100691
 113	-3.97824e-06	0.000865871	0.000411461
 114	-0.00106036	0.000903219	0.00038297
 115	0.000361122	0.000506766	0.000454681
 116	9.4177e-05	0.00047327	0.000783153
 117	0.000336893	0.000491328	0.000716515
 118	0.000651626	0.000818856	0.000504201
 119	-0.000188558	0.000579083	0.000948339
 120	0.00025328	0.000436072	0.000950258
 121	-0.000502407	0.000226845	-0.000104514
 122	-0.000136627	0.00058753	-0.000331444
 123	-0.0009222	0.000176112	0.000346277
 124	-2.1345e-05	0.00017504	0.000114632
 125	0.000580468	0.001207	-0.00156541
 126	-0.00124879	0.000566158	-0.000578527
 127	-0.000516499	0.000353748	0.000304093
 128	-0.000815711	0.000241487	-0.000235471
 129	-0.000579192	0.000620154	0.0005004
 130	-0.000149562	0.000672791	0.000529728
 131	-0.000921837	3.64556e-05	-9.93783e-05
 132	-0.000622138	0.000428149	-0.000124074
 133	0.00105682	0.000675005	1.9097e-05
 134	0.000161781	-7.84497e-06	-0.000209557
 135	0.000331964	0.000432572	-0.000555828
 136	0.0018258	2.94615e-05	0.00108621
 137	0.000530252	-0.000404796	-0.000619316
 138	-8.84032e-06	-0.000579558	-0.000526122
 139	-0.000672838	-0.000529796	-0.000219202
 140	0.00175907	0.00207126	-8.71035e-05

Bonds

   1	4	1	2
   2	1	1	3
   3	1	1	4
   4	2	2	5
   5	2	2	6
   6	4	7	8
   7	1	7	9
   8	1	7	10
   9	2	8	11
  10	2	8	12
  11	4	1	8
  12	4	13	14
  13	1	13	15
  14	1	13	16
  15	2	14	17
  16	2	14	18
  17	4	7	14
  18	4	19	20
  19	1	19	21
  20	1	19	22
  21	2	20	23
  22	2	20	24
  23	4	13	20
  24	4	25	26
  25	1	25	27
  26	1	25	28
  27	2	26	29
  28	2	26	30
  29	4	19	26
  30	4	31	32
  31	1	31	33
  32	1	31	34
  33	2	32	35
  34	2	32	36
  35	4	25	32
  36	4	37	38
  37	1	37	39
  38	1	37	40
  39	2	38	41
  40	2	38	42
  41	4	31	38
  42	4	43	44
  43	1	43	45
  44	1	43	46
  45	2	44	47
  46	2	44	48
  47	4	37	44
  48	4	49	50
  49	1	49	51
  50	1	49	52
  51	2	50	53
  52	2	50	54
  53	4	43	50
  54	4	55	56
  55	1	55	57
  56	1	55	58
  57	2	56	59
  58	2	56	60
  59	4	49	56
  60	4	61	62
  61	1	61	63
  62	1	61	64
  63	2	62	65
  64	2	62	66
  65	4	55	62
  66	4	67	68
  67	1	67	69
  68	1	67	70
  69	2	68	71
  70	2	68	72
  71	4	61	68
  72	4	73	74
  73	1	73	75
  74	1	73	76
  75	2	74	77
  76	2	74	78
  77	4	67	74
  78	4	79	80
  79	1	79	81
  80	1	79	82
  81	2	80	83
  82	2	80	84
  83	4	73	80
  84	4	85	86
  85	1	85	87
  86	1	85	88
  87	2	86	89
  88	2	86	90
  89	4	79	86
  90	4	91	92
  91	1	91	93
  92	1	91	94
  93	2	92	95
  94	2	92	96
  95	4	85	92
  96	4	97	98
  97	1	97	99
  98	1	97	100
  99	2	98	101
 100	2	98	102
 101	4	91	98
 102	4	103	104
 103	1	103	105
 104	1	103	106
 105	2	104	107
 106	2	104	108
 107	4	97	104
 108	4	109	110
 109	1	109	111
 110	1	109	112
 111	2	110	113
 112	2	110	114
 113	4	103	110
 114	4	115	116
 115	1	115	117
 116	1	115	118
 117	2	116	119
 118	2	116	120
 119	4	109	116
 120	4	121	122
 121	1	121	123
 122	1	121	124
 123	2	122	125
 124	2	122	126
 125	4	115	122
 126	4	127	128
 127	1	127	129
 128	1	127	130
 129	2	128	131
 130	2	128	132
 131	4	121	128
 132	4	133	134
 133	1	133	135
 134	1	133	136
 135	2	134	137
 136	2	134	138
 137	4	127	134
 138	3	2	139
 139	1	133	140

Angles

   1	2	2	1	3
   2	2	2	1	4
   3	4	3	1	4
   4	3	1	2	5
   5	3	1	2	6
   6	6	5	2	6
   7	2	8	7	9
   8	2	8	7	10
   9	4	9	7	10
  10	3	7	8	11
  11	3	7	8	12
  12	6	11	8	12
  13	7	2	1	8
  14	2	3	1	8
  15	2	4	1	8
  16	7	1	8	7
  17	3	1	8	11
  18	3	1	8	12
  19	2	14	13	15
  20	2	14	13	16
  21	4	15	13	16
  22	3	13	14	17
  23	3	13	14	18
  24	6	17	14	18
  25	7	8	7	14
  26	2	9	7	14
  27	2	10	7	14
  28	7	7	14	13
  29	3	7	14	17
  30	3	7	14	18
  31	2	20	19	21
  32	2	20	19	22
  33	4	21	19	22
  34	3	19	20	23
  35	3	19	20	24
  36	6	23	20	24
  37	7	14	13	20
  38	2	15	13	20
  39	2	16	13	20
  40	7	13	20	19
  41	3	13	20	23
  42	3	13	20	24
  43	2	26	25	27
  44	2	26	25	28
  45	4	27	25	28
  46	3	25	26	29
  47	3	25	26	30
  48	6	29	26	30
  49	7	20	19	26
  50	2	21	19	26
  51	2	22	19	26
  52	7	19	26	25
  53	3	19	26	29
  54	3	19	26	30
  55	2	32	31	33
  56	2	32	31	34
  57	4	33	31	34
  58	3	31	32	35
  59	3	31	32	36
  60	6	35	32	36
  61	7	26	25	32
  62	2	27	25	32
  63	2	28	25	32
  64	7	25	32	31
  65	3	25	32	35
  66	3	25	32	36
  67	2	38	37	39
  68	2	38	37	40
  69	4	39	37	40
  70	3	37	38	41
  71	3	37	38	42
  72	6	41	38	42
  73	7	32	31	38
  74	2	33	31	38
  75	2	34	31	38
  76	7	31	38	37
  77	3	31	38	41
  78	3	31	38	42
  79	2	44	43	45
  80	2	44	43	46
  81	4	45	43	46
  82	3	43	44	47
  83	3	43	44	48
  84	6	47	44	48
  85	7	38	37	44
  86	2	39	37	44
  87	2	40	37	44
  88	7	37	44	43
  89	3	37	44	47
  90	3	37	44	48
  91	2	50	49	51
  92	2	50	49	52
  93	4	51	49	52
  94	3	49	50	53
  95	3	49	50	54
  96	6	53	50	54
  97	7	44	43	50
  98	2	45	43	50
  99	2	46	43	50
 100	7	43	50	49
 101	3	43	50	53
 102	3	43	50	54
 103	2	56	55	57
 104	2	56	55	58
 105	4	57	55	58
 106	3	55	56	59
 107	3	55	56	60
 108	6	59	56	60
 109	7	50	49	56
 110	2	51	49	56
 111	2	52	49	56
 112	7	49	56	55
 113	3	49	56	59
 114	3	49	56	60
 115	2	62	61	63
 116	2	62	61	64
 117	4	63	61	64
 118	3	61	62	65
 119	3	61	62	66
 120	6	65	62	66
 121	7	56	55	62
 122	2	57	55	62
 123	2	58	55	62
 124	7	55	62	61
 125	3	55	62	65
 126	3	55	62	66
 127	2	68	67	69
 128	2	68	67	70
 129	4	69	67	70
 130	3	67	68	71
 131	3	67	68	72
 132	6	71	68	72
 133	7	62	61	68
 134	2	63	61	68
 135	2	64	61	68
 136	7	61	68	67
 137	3	61	68	71
 138	3	61	68	72
 139	2	74	73	75
 140	2	74	73	76
 141	4	75	73	76
 142	3	73	74	77
 143	3	73	74	78
 144	6	77	74	78
 145	7	68	67	74
 146	2	69	67	74
 147	2	70	67	74
 148	7	67	74	73
 149	3	67	74	77
 150	3	67	74	78
 151	2	80	79	81
 152	2	80	79	82
 153	4	81	79	82
 154	3	79	80	83
 155	3	79	80	84
 156	6	83	80	84
 157	7	74	73	80
 158	2	75	73	80
 159	2	76	73	80
 160	7	73	80	79
 161	3	73	80	83
 162	3	73	80	84
 163	2	86	85	87
 164	2	86	85	88
 165	4	87	85	88
 166	3	85	86	89
 167	3	85	86	90
 168	6	89	86	90
 169	7	80	79	86
 170	2	81	79	86
 171	2	82	79	86
 172	7	79	86	85
 173	3	79	86	89
 174	3	79	86	90
 175	2	92	91	93
 176	2	92	91	94
 177	4	93	91	94
 178	3	91	92	95
 179	3	91	92	96
 180	6	95	92	96
 181	7	86	85	92
 182	2	87	85	92
 183	2	88	85	92
 184	7	85	92	91
 185	3	85	92	95
 186	3	85	92	96
 187	2	98	97	99
 188	2	98	97	100
 189	4	99	97	100
 190	3	97	98	101
 191	3	97	98	102
 192	6	101	98	102
 193	7	92	91	98
 194	2	93	91	98
 195	2	94	91	98
 196	7	91	98	97
 197	3	91	98	101
 198	3	91	98	102
 199	2	104	103	105
 200	2	104	103	106
 201	4	105	103	106
 202	3	103	104	107
 203	3	103	104	108
 204	6	107	104	108
 205	7	98	97	104
 206	2	99	97	104
 207	2	100	97	104
 208	7	97	104	103
 209	3	97	104	107
 210	3	97	104	108
 211	2	110	109	111
 212	2	110	109	112
 213	4	111	109	112
 214	3	109	110	113
 215	3	109	110	114
 216	6	113	110	114
 217	7	104	103	110
 218	2	105	103	110
 219	2	106	103	110
 220	7	103	110	109
 221	3	103	110	113
 222	3	103	110	114
 223	2	116	115	117
 224	2	116	115	118
 225	4	117	115	118
 226	3	115	116	119
 227	3	115	116	120
 228	6	119	116	120
 229	7	110	109	116
 230	2	111	109	116
 231	2	112	109	116
 232	7	109	116	115
 233	3	109	116	119
 234	3	109	116	120
 235	2	122	121	123
 236	2	122	121	124
 237	4	123	121	124
 238	3	121	122	125
 239	3	121	122	126
 240	6	125	122	126
 241	7	116	115	122
 242	2	117	115	122
 243	2	118	115	122
 244	7	115	122	121
 245	3	115	122	125
 246	3	115	122	126
 247	2	128	127	129
 248	2	128	127	130
 249	4	129	127	130
 250	3	127	128	131
 251	3	127	128	132
 252	6	131	128	132
 253	7	122	121	128
 254	2	123	121	128
 255	2	124	121	128
 256	7	121	128	127
 257	3	121	128	131
 258	3	121	128	132
 259	2	134	133	135
 260	2	134	133	136
 261	4	135	133	136
 262	3	133	134	137
 263	3	133	134	138
 264	6	137	134	138
 265	7	128	127	134
 266	2	129	127	134
 267	2	130	127	134
 268	7	127	134	133
 269	3	127	134	137
 270	3	127	134	138
 271	5	1	2	139
 272	1	5	2	139
 273	1	6	2	139
 274	2	134	133	140
 275	4	135	133	140
 276	4	136	133	140

Dihedrals

   1	1	3	1	2	5
   2	1	3	1	2	6
   3	1	4	1	2	5
   4	1	4	1	2	6
   5	1	9	7	8	11
   6	1	9	7	8	12
   7	1	10	7	8	11
   8	1	10	7	8	12
   9	2	5	2	1	8
  10	2	6	2	1	8
  11	3	1	8	7	9
  12	3	1	8	7	10
  13	4	2	1	8	7
  14	2	2	1	8	11
  15	2	2	1	8	12
  16	3	3	1	8	7
  17	1	3	1	8	11
  18	1	3	1	8	12
  19	3	4	1	8	7
  20	1	4	1	8	11
  21	1	4	1	8	12
  22	1	15	13	14	17
  23	1	15	13	14	18
  24	1	16	13	14	17
  25	1	16	13	14	18
  26	2	11	8	7	14
  27	2	12	8	7	14
  28	4	1	8	7	14
  29	3	7	14	13	15
  30	3	7	14	13	16
  31	4	8	7	14	13
  32	2	8	7	14	17
  33	2	8	7	14	18
  34	3	9	7	14	13
  35	1	9	7	14	17
  36	1	9	7	14	18
  37	3	10	7	14	13
  38	1	10	7	14	17
  39	1	10	7	14	18
  40	1	21	19	20	23
  41	1	21	19	20	24
  42	1	22	19	20	23
  43	1	22	19	20	24
  44	2	17	14	13	20
  45	2	18	14	13	20
  46	4	7	14	13	20
  47	3	13	20	19	21
  48	3	13	20	19	22
  49	4	14	13	20	19
  50	2	14	13	20	23
  51	2	14	13	20	24
  52	3	15	13	20	19
  53	1	15	13	20	23
  54	1	15	13	20	24
  55	3	16	13	20	19
  56	1	16	13	20	23
  57	1	16	13	20	24
  58	1	27	25	26	29
  59	1	27	25	26	30
  60	1	28	25	26	29
  61	1	28	25	26	30
  62	2	23	20	19	26
  63	2	24	20	19	26
  64	4	13	20	19	26
  65	3	19	26	25	27
  66	3	19	26	25	28
  67	4	20	19	26	25
  68	2	20	19	26	29
  69	2	20	19	26	30
  70	3	21	19	26	25
  71	1	21	19	26	29
  72	1	21	19	26	30
  73	3	22	19	26	25
  74	1	22	19	26	29
  75	1	22	19	26	30
  76	1	33	31	32	35
  77	1	33	31	32	36
  78	1	34	31	32	35
  79	1	34	31	32	36
  80	2	29	26	25	32
  81	2	30	26	25	32
  82	4	19	26	25	32
  83	3	25	32	31	33
  84	3	25	32	31	34
  85	4	26	25	32	31
  86	2	26	25	32	35
  87	2	26	25	32	36
  88	3	27	25	32	31
  89	1	27	25	32	35
  90	1	27	25	32	36
  91	3	28	25	32	31
  92	1	28	25	32	35
  93	1	28	25	32	36
  94	1	39	37	38	41
  95	1	39	37	38	42
  96	1	40	37	38	41
  97	1	40	37	38	42
  98	2	35	32	31	38
  99	2	36	32	31	38
 100	4	25	32	31	38
 101	3	31	38	37	39
 102	3	31	38	37	40
 103	4	32	31	38	37
 104	2	32	31	38	41
 105	2	32	31	38	42
 106	3	33	31	38	37
 107	1	33	31	38	41
 108	1	33	31	38	42
 109	3	34	31	38	37
 110	1	34	31	38	41
 111	1	34	31	38	42
 112	1	45	43	44	47
 113	1	45	43	44	48
 114	1	46	43	44	47
 115	1	46	43	44	48
 116	2	41	38	37	44
 117	2	42	38	37	44
 118	4	31	38	37	44
 119	3	37	44	43	45
 120	3	37	44	43	46
 121	4	38	37	44	43
 122	2	38	37	44	47
 123	2	38	37	44	48
 124	3	39	37	44	43
 125	1	39	37	44	47
 126	1	39	37	44	48
 127	3	40	37	44	43
 128	1	40	37	44	47
 129	1	40	37	44	48
 130	1	51	49	50	53
 131	1	51	49	50	54
 132	1	52	49	50	53
 133	1	52	49	50	54
 134	2	47	44	43	50
 135	2	48	44	43	50
 136	4	37	44	43	50
 137	3	43	50	49	51
 138	3	43	50	49	52
 139	4	44	43	50	49
 140	2	44	43	50	53
 141	2	44	43	50	54
 142	3	45	43	50	49
 143	1	45	43	50	53
 144	1	45	43	50	54
 145	3	46	43	50	49
 146	1	46	43	50	53
 147	1	46	43	50	54
 148	1	57	55	56	59
 149	1	57	55	56	60
 150	1	58	55	56	59
 151	1	58	55	56	60
 152	2	53	50	49	56
 153	2	54	50	49	56
 154	4	43	50	49	56
 155	3	49	56	55	57
 156	3	49	56	55	58
 157	4	50	49	56	55
 158	2	50	49	56	59
 159	2	50	49	56	60
 160	3	51	49	56	55
 161	1	51	49	56	59
 162	1	51	49	56	60
 163	3	52	49	56	55
 164	1	52	49	56	59
 165	1	52	49	56	60
 166	1	63	61	62	65
 167	1	63	61	62	66
 168	1	64	61	62	65
 169	1	64	61	62	66
 170	2	59	56	55	62
 171	2	60	56	55	62
 172	4	49	56	55	62
 173	3	55	62	61	63
 174	3	55	62	61	64
 175	4	56	55	62	61
 176	2	56	55	62	65
 177	2	56	55	62	66
 178	3	57	55	62	61
 179	1	57	55	62	65
 180	1	57	55	62	66
 181	3	58	55	62	61
 182	1	58	55	62	65
 183	1	58	55	62	66
 184	1	69	67	68	71
 185	1	69	67	68	72
 186	1	70	67	68	71
 187	1	70	67	68	72
 188	2	65	62	61	68
 189	2	66	62	61	68
 190	4	55	62	61	68
 191	3	61	68	67	69
 192	3	61	68	67	70
 193	4	62	61	68	67
 194	2	62	61	68	71
 195	2	62	61	68	72
 196	3	63	61	68	67
 197	1	63	61	68	71
 198	1	63	61	68	72
 199	3	64	61	68	67
 200	1	64	61	68	71
 201	1	64	61	68	72
 202	1	75	73	74	77
 203	1	75	73	74	78
 204	1	76	73	74	77
 205	1	76	73	74	78
 206	2	71	68	67	74
 207	2	72	68	67	74
 208	4	61	68	67	74
 209	3	67	74	73	75
 210	3	67	74	73	76
 211	4	68	67	74	73
 212	2	68	67	74	77
 213	2	68	67	74	78
 214	3	69	67	74	73
 215	1	69	67	74	77
 216	1	69	67	74	78
 217	3	70	67	74	73
 218	1	70	67	74	77
 219	1	70	67	74	78
 220	1	81	79	80	83
 221	1	81	79	80	84
 222	1	82	79	80	83
 223	1	82	79	80	84
 224	2	77	74	73	80
 225	2	78	74	73	80
 226	4	67	74	73	80
 227	3	73	80	79	81
 228	3	73	80	79	82
 229	4	74	73	80	79
 230	2	74	73	80	83
 231	2	74	73	80	84
 232	3	75	73	80	79
 233	1	75	73	80	83
 234	1	75	73	80	84
 235	3	76	73	80	79
 236	1	76	73	80	83
 237	1	76	73	80	84
 238	1	87	85	86	89
 239	1	87	85	86	90
 240	1	88	85	86	89
 241	1	88	85	86	90
 242	2	83	80	79	86
 243	2	84	80	79	86
 244	4	73	80	79	86
 245	3	79	86	85	87
 246	3	79	86	85	88
 247	4	80	79	86	85
 248	2	80	79	86	89
 249	2	80	79	86	90
 250	3	81	79	86	85
 251	1	81	79	86	89
 252	1	81	79	86	90
 253	3	82	79	86	85
 254	1	82	79	86	89
 255	1	82	79	86	90
 256	1	93	91	92	95
 257	1	93	91	92	96
 258	1	94	91	92	95
 259	1	94	91	92	96
 260	2	89	86	85	92
 261	2	90	86	85	92
 262	4	79	86	85	92
 263	3	85	92	91	93
 264	3	85	92	91	94
 265	4	86	85	92	91
 266	2	86	85	92	95
 267	2	86	85	92	96
 268	3	87	85	92	91
 269	1	87	85	92	95
 270	1	87	85	92	96
 271	3	88	85	92	91
 272	1	88	85	92	95
 273	1	88	85	92	96
 274	1	99	97	98	101
 275	1	99	97	98	102
 276	1	100	97	98	101
 277	1	100	97	98	102
 278	2	95	92	91	98
 279	2	96	92	91	98
 280	4	85	92	91	98
 281	3	91	98	97	99
 282	3	91	98	97	100
 283	4	92	91	98	97
 284	2	92	91	98	101
 285	2	92	91	98	102
 286	3	93	91	98	97
 287	1	93	91	98	101
 288	1	93	91	98	102
 289	3	94	91	98	97
 290	1	94	91	98	101
 291	1	94	91	98	102
 292	1	105	103	104	107
 293	1	105	103	104	108
 294	1	106	103	104	107
 295	1	106	103	104	108
 296	2	101	98	97	104
 297	2	102	98	97	104
 298	4	91	98	97	104
 299	3	97	104	103	105
 300	3	97	104	103	106
 301	4	98	97	104	103
 302	2	98	97	104	107
 303	2	98	97	104	108
 304	3	99	97	104	103
 305	1	99	97	104	107
 306	1	99	97	104	108
 307	3	100	97	104	103
 308	1	100	97	104	107
 309	1	100	97	104	108
 310	1	111	109	110	113
 311	1	111	109	110	114
 312	1	112	109	110	113
 313	1	112	109	110	114
 314	2	107	104	103	110
 315	2	108	104	103	110
 316	4	97	104	103	110
 317	3	103	110	109	111
 318	3	103	110	109	112
 319	4	104	103	110	109
 320	2	104	103	110	113
 321	2	104	103	110	114
 322	3	105	103	110	109
 323	1	105	103	110	113
 324	1	105	103	110	114
 325	3	106	103	110	109
 326	1	106	103	110	113
 327	1	106	103	110	114
 328	1	117	115	116	119
 329	1	117	115	116	120
 330	1	118	115	116	119
 331	1	118	115	116	120
 332	2	113	110	109	116
 333	2	114	110	109	116
 334	4	103	110	109	116
 335	3	109	116	115	117
 336	3	109	116	115	118
 337	4	110	109	116	115
 338	2	110	109	116	119
 339	2	110	109	116	120
 340	3	111	109	116	115
 341	1	111	109	116	119
 342	1	111	109	116	120
 343	3	112	109	116	115
 344	1	112	109	116	119
 345	1	112	109	116	120
 346	1	123	121	122	125
 347	1	123	121	122	126
 348	1	124	121	122	125
 349	1	124	121	122	126
 350	2	119	116	115	122
 351	2	120	116	115	122
 352	4	109	116	115	122
 353	3	115	122	121	123
 354	3	115	122	121	124
 355	4	116	115	122	121
 356	2	116	115	122	125
 357	2	116	115	122	126
 358	3	117	115	122	121
 359	1	117	115	122	125
 360	1	117	115	122	126
 361	3	118	115	122	121
 362	1	118	115	122	125
 363	1	118	115	122	126
 364	1	129	127	128	131
 365	1	129	127	128	132
 366	1	130	127	128	131
 367	1	130	127	128	132
 368	2	125	122	121	128
 369	2	126	122	121	128
 370	4	115	122	121	128
 371	3	121	128	127	129
 372	3	121	128	127	130
 373	4	122	121	128	127
 374	2	122	121	128	131
 375	2	122	121	128	132
 376	3	123	121	128	127
 377	1	123	121	128	131
 378	1	123	121	128	132
 379	3	124	121	128	127
 380	1	124	121	128	131
 381	1	124	121	128	132
 382	1	135	133	134	137
 383	1	135	133	134	138
 384	1	136	133	134	137
 385	1	136	133	134	138
 386	2	131	128	127	134
 387	2	132	128	127	134
 388	4	121	128	127	134
 389	3	127	134	133	135
 390	3	127	134	133	136
 391	4	128	127	134	133
 392	2	128	127	134	137
 393	2	128	127	134	138
 394	3	129	127	134	133
 395	1	129	127	134	137
 396	1	129	127	134	138
 397	3	130	127	134	133
 398	1	130	127	134	137
 399	1	130	127	134	138
 400	2	3	1	2	139
 401	2	4	1	2	139
 402	2	8	1	2	139
 403	1	137	134	133	140
 404	1	138	134	133	140
 405	3	127	134	133	140

