pySIMM System Object

230 atoms
229 bonds
456 angles
675 dihedrals
0 impropers

4 atom types
4 bond types
7 angle types
4 dihedral types

-99.461838 99.461838 xlo xhi
-99.461838 99.461838 ylo yhi
-99.461838 99.461838 zlo zhi

Masses

   1	12.01	# c3
   2	1.008	# hc
   3	19.0	# f
   4	1.008	# h2

Pair Coeffs

   1	0.1094	3.3996695084235347	# c3
   2	0.0157	2.649532787749369	# hc
   3	0.061	3.1181455134911875	# f
   4	0.0157	2.2931733004932333	# h2

Bond Coeffs

   1	330.6	1.0969	# c3,hc
   2	356.9	1.3497	# c3,f
   3	331.7	1.0961	# c3,h2
   4	300.9	1.5375	# c3,c3

Angle Coeffs

   1	51.15	108.79	# f,c3,h2
   2	46.34	109.8	# c3,c3,hc
   3	66.11	109.24	# c3,c3,f
   4	39.4	107.58	# hc,c3,hc
   5	46.25	110.22	# c3,c3,h2
   6	70.89	107.36	# f,c3,f
   7	62.86	111.51	# c3,c3,c3

Dihedral Coeffs

   1	2	0.0	3	0	0.19	1	0	# hc,c3,c3,f
   2	1	0.15555555555555556	3	0	# X,c3,c3,X
   3	1	0.16	3	0	# hc,c3,c3,c3
   4	3	0.18	3	0	0.25	2	180	0.2	1	180	# c3,c3,c3,c3

Atoms

   1	1	1	0.070548	-8.94691	-12.4357	22.7187
   2	1	1	0.506757	-8.72241	-13.6602	21.8053
   3	1	2	-0.012767	-8.44618	-12.5985	23.6828
   4	1	2	-0.014806	-8.4656	-11.5624	22.2626
   5	1	3	-0.274996	-7.55185	-14.2549	22.1242
   6	1	3	-0.274736	-8.62957	-13.2766	20.5133
   7	1	1	0.070548	-10.7456	-11.0524	24.0088
   8	1	1	0.506757	-10.4516	-12.1695	22.9685
   9	1	2	-0.012767	-10.0806	-11.2114	24.8691
  10	1	2	-0.014806	-11.7559	-11.1909	24.4126
  11	1	3	-0.274996	-11.0058	-13.3088	23.4418
  12	1	3	-0.274736	-11.0759	-11.9163	21.7998
  13	1	1	0.070548	-11.6251	-9.01178	22.529
  14	1	1	0.506757	-10.5801	-9.58069	23.5322
  15	1	2	-0.012767	-11.4781	-9.47875	21.5478
  16	1	2	-0.014806	-11.3969	-7.94766	22.38
  17	1	3	-0.274996	-10.5507	-8.78846	24.6272
  18	1	3	-0.274736	-9.35646	-9.42252	22.9853
  19	1	1	0.070548	-14.0837	-8.19192	22.1689
  20	1	1	0.506757	-13.1194	-9.13719	22.9391
  21	1	2	-0.012767	-15.1092	-8.39079	22.5052
  22	1	2	-0.014806	-13.8739	-7.15622	22.4713
  23	1	3	-0.274996	-13.2671	-8.8621	24.2532
  24	1	3	-0.274736	-13.5347	-10.414	22.7945
  25	1	1	0.070548	-15.1976	-7.51662	19.9301
  26	1	1	0.506757	-14.0219	-8.26754	20.6185
  27	1	2	-0.012767	-14.8438	-7.01602	19.0206
  28	1	2	-0.014806	-15.5054	-6.69128	20.5874
  29	1	3	-0.274996	-12.8765	-7.68281	20.2045
  30	1	3	-0.274736	-13.9489	-9.54876	20.2034
  31	1	1	0.070548	-16.3636	-9.4356	18.4686
  32	1	1	0.506757	-16.4577	-8.36719	19.5999
  33	1	2	-0.012767	-15.877	-10.3413	18.8524
  34	1	2	-0.014806	-17.3848	-9.75382	18.2159
  35	1	3	-0.274996	-16.8683	-8.98823	20.7277
  36	1	3	-0.274736	-17.461	-7.51494	19.2937
  37	1	1	0.070548	-15.8664	-10.042	16.0299
  38	1	1	0.506757	-15.6507	-9.00111	17.1607
  39	1	2	-0.012767	-15.8557	-11.0468	16.4747
  40	1	2	-0.014806	-16.8806	-9.92591	15.6267
  41	1	3	-0.274996	-16.1175	-7.80057	16.7535
  42	1	3	-0.274736	-14.3333	-8.83811	17.3993
  43	1	1	0.070548	-14.4912	-8.65949	14.2023
  44	1	1	0.506757	-14.8261	-10.0256	14.8712
  45	1	2	-0.012767	-13.5681	-8.79499	13.6235
  46	1	2	-0.014806	-14.2462	-7.9139	14.9679
  47	1	3	-0.274996	-15.2426	-10.9009	13.9299
  48	1	3	-0.274736	-13.6707	-10.557	15.3298
  49	1	1	0.070548	-15.3729	-6.58904	12.8788
  50	1	1	0.506757	-15.5746	-8.0834	13.2511
  51	1	2	-0.012767	-15.426	-5.995	13.8017
  52	1	2	-0.014806	-16.2313	-6.26639	12.2729
  53	1	3	-0.274996	-15.647	-8.81751	12.1193
  54	1	3	-0.274736	-16.7916	-8.18755	13.8256
  55	1	1	0.070548	-13.9119	-6.89262	10.7319
  56	1	1	0.506757	-14.0724	-6.20316	12.1187
  57	1	2	-0.012767	-13.633	-7.94203	10.8957
  58	1	2	-0.014806	-14.8856	-6.91323	10.224
  59	1	3	-0.274996	-14.0997	-4.8603	11.9855
  60	1	3	-0.274736	-13.0002	-6.46914	12.8951
  61	1	1	0.070548	-12.7671	-7.09323	8.46071
  62	1	1	0.506757	-12.863	-6.26685	9.77188
  63	1	2	-0.012767	-12.7085	-8.16226	8.70685
  64	1	2	-0.014806	-13.7107	-6.97024	7.91136
  65	1	3	-0.274996	-11.6604	-6.20088	10.3826
  66	1	3	-0.274736	-13.2356	-5.00826	9.45135
  67	1	1	0.070548	-11.7548	-7.41084	6.13316
  68	1	1	0.506757	-11.58	-6.74077	7.52237
  69	1	2	-0.012767	-11.5473	-8.48515	6.2349
  70	1	2	-0.014806	-12.8098	-7.34388	5.83363
  71	1	3	-0.274996	-10.4366	-7.20861	8.07242
  72	1	3	-0.274736	-11.4387	-5.40501	7.39085
  73	1	1	0.070548	-9.36337	-6.7929	5.24982
  74	1	1	0.506757	-10.8945	-6.83825	4.97417
  75	1	2	-0.012767	-9.16698	-6.24683	6.17962
  76	1	2	-0.014806	-9.00615	-7.81791	5.41934
  77	1	3	-0.274996	-11.1277	-7.63875	3.91038
  78	1	3	-0.274736	-11.3746	-5.62335	4.62986
  79	1	1	0.070548	-6.99396	-6.26068	4.45196
  80	1	1	0.506757	-8.50825	-6.12518	4.14059
  81	1	2	-0.012767	-6.77443	-7.31167	4.68607
  82	1	2	-0.014806	-6.77333	-5.70047	5.3711
  83	1	3	-0.274996	-8.7803	-6.65842	2.93071
  84	1	3	-0.274736	-8.82516	-4.81433	4.08346
  85	1	1	0.070548	-6.17446	-4.3063	2.92034
  86	1	1	0.506757	-6.01695	-5.79595	3.33624
  87	1	2	-0.012767	-7.16978	-4.15217	2.48834
  88	1	2	-0.014806	-6.1327	-3.68297	3.82441
  89	1	3	-0.274996	-6.13498	-6.60827	2.26418
  90	1	3	-0.274736	-4.76897	-6.00732	3.80755
  91	1	1	0.070548	-5.28803	-4.42479	0.484068
  92	1	1	0.506757	-5.1552	-3.76522	1.885
  93	1	2	-0.012767	-4.80469	-5.41	0.507004
  94	1	2	-0.014806	-6.35042	-4.61156	0.273952
  95	1	3	-0.274996	-3.89225	-3.90702	2.344
  96	1	3	-0.274736	-5.35316	-2.43153	1.8026
  97	1	1	0.070548	-3.18812	-3.26381	-0.517795
  98	1	1	0.506757	-4.68928	-3.62629	-0.699998
  99	1	2	-0.012767	-3.06516	-2.58888	0.336116
 100	1	2	-0.014806	-2.64961	-4.17949	-0.236647
 101	1	3	-0.274996	-5.44567	-2.52946	-0.9145
 102	1	3	-0.274736	-4.84568	-4.38246	-1.80775
 103	1	1	0.070548	-3.08429	-1.34946	-2.36117
 104	1	1	0.506757	-2.47554	-2.64464	-1.75228
 105	1	2	-0.012767	-2.56184	-1.13538	-3.29846
 106	1	2	-0.014806	-4.10856	-1.55748	-2.69084
 107	1	3	-0.274996	-2.3904	-3.57367	-2.72925
 108	1	3	-0.274736	-1.18795	-2.4158	-1.41325
 109	1	1	0.070548	-1.73233	0.541551	-1.03583
 110	1	1	0.506757	-3.09751	-0.0763681	-1.45735
 111	1	2	-0.012767	-1.92361	1.29057	-0.254391
 112	1	2	-0.014806	-1.11057	-0.209713	-0.538445
 113	1	3	-0.274996	-3.84302	0.863527	-2.07694
 114	1	3	-0.274736	-3.77062	-0.336215	-0.318045
 115	1	1	0.070548	0.492347	1.62526	-1.66543
 116	1	1	0.506757	-0.923704	1.24027	-2.15775
 117	1	2	-0.012767	0.400127	2.44718	-0.941801
 118	1	2	-0.014806	0.915181	0.782056	-1.10155
 119	1	3	-0.274996	-1.57667	2.3649	-2.51968
 120	1	3	-0.274736	-0.831079	0.461831	-3.25272
 121	1	1	0.070548	1.08129	3.21815	-3.66869
 122	1	1	0.506757	1.51452	2.03047	-2.76138
 123	1	2	-0.012767	0.968673	4.11132	-3.03898
 124	1	2	-0.014806	0.0906481	3.02092	-4.09183
 125	1	3	-0.274996	1.85981	0.955992	-3.50371
 126	1	3	-0.274736	2.63499	2.37002	-2.08611
 127	1	1	0.070548	3.52714	3.5471	-4.54131
 128	1	1	0.506757	2.01118	3.55182	-4.86745
 129	1	2	-0.012767	3.86585	2.50492	-4.46115
 130	1	2	-0.014806	3.68665	4.00337	-3.55613
 131	1	3	-0.274996	1.63247	4.76311	-5.33236
 132	1	3	-0.274736	1.7653	2.67437	-5.86654
 133	1	1	0.070548	5.91622	3.8576	-5.33287
 134	1	1	0.506757	4.44248	4.29036	-5.54141
 135	1	2	-0.012767	6.07609	2.9019	-5.85162
 136	1	2	-0.014806	6.07784	3.64073	-4.26727
 137	1	3	-0.274996	4.30817	5.62213	-5.35555
 138	1	3	-0.274736	4.09044	4.02049	-6.81776
 139	1	1	0.070548	6.88804	5.36852	-7.24998
 140	1	1	0.506757	7.00267	4.86681	-5.78334
 141	1	2	-0.012767	5.85387	5.65621	-7.4697
 142	1	2	-0.014806	7.11013	4.52821	-7.92211
 143	1	3	-0.274996	7.04871	5.89585	-4.90898
 144	1	3	-0.274736	8.18453	4.22386	-5.64233
 145	1	1	0.070548	9.26663	6.47392	-7.15095
 146	1	1	0.506757	7.78924	6.57841	-7.62408
 147	1	2	-0.012767	9.6555	5.47785	-7.40196
 148	1	2	-0.014806	9.29151	6.54539	-6.05608
 149	1	3	-0.274996	7.22421	7.70199	-7.12947
 150	1	3	-0.274736	7.74219	6.69652	-8.96942
 151	1	1	0.070548	11.6281	7.42598	-7.03603
 152	1	1	0.506757	10.241	7.5389	-7.72025
 153	1	2	-0.012767	12.1337	6.53283	-7.42992
 154	1	2	-0.014806	11.4885	7.23259	-5.96366
 155	1	3	-0.274996	9.74306	8.7847	-7.57128
 156	1	3	-0.274736	10.4112	7.33177	-9.04532
 157	1	1	0.070548	12.7807	9.13485	-8.64771
 158	1	1	0.506757	12.5779	8.64554	-7.18651
 159	1	2	-0.012767	13.0765	8.27091	-9.25879
 160	1	2	-0.014806	11.8215	9.47544	-9.05738
 161	1	3	-0.274996	13.7602	8.25674	-6.66248
 162	1	3	-0.274736	12.1468	9.65506	-6.39984
 163	1	1	0.070548	13.3107	11.6971	-8.43438
 164	1	1	0.506757	13.8103	10.2793	-8.86508
 165	1	2	-0.012767	13.9978	12.1181	-7.6868
 166	1	2	-0.014806	12.3461	11.6071	-7.9197
 167	1	3	-0.274996	14.9779	10.0244	-8.23564
 168	1	3	-0.274736	14.1398	10.2362	-10.1764
 169	1	1	0.070548	14.4893	13.2057	-10.1891
 170	1	1	0.506757	13.1374	12.7272	-9.5812
 171	1	2	-0.012767	15.1674	12.3621	-10.3526
 172	1	2	-0.014806	14.993	13.8112	-9.4217
 173	1	3	-0.274996	12.49	13.7979	-9.07176
 174	1	3	-0.274736	12.298	12.2043	-10.4988
 175	1	1	0.070548	13.9144	13.2817	-12.7608
 176	1	1	0.506757	14.4352	14.0411	-11.4986
 177	1	2	-0.012767	12.8661	13.0064	-12.6192
 178	1	2	-0.014806	14.4656	12.337	-12.8614
 179	1	3	-0.274996	15.7116	14.4366	-11.7051
 180	1	3	-0.274736	13.7249	15.1695	-11.2884
 181	1	1	0.070548	13.6714	13.214	-15.3582
 182	1	1	0.506757	13.9973	14.0677	-14.1017
 183	1	2	-0.012767	13.8542	13.8339	-16.2461
 184	1	2	-0.014806	14.4071	12.4002	-15.4164
 185	1	3	-0.274996	15.2456	14.5433	-14.3005
 186	1	3	-0.274736	13.1983	15.1577	-14.0719
 187	1	1	0.070548	11.7271	12.474	-16.9097
 188	1	1	0.506757	12.2448	12.5985	-15.4499
 189	1	2	-0.012767	10.6315	12.3923	-16.8958
 190	1	2	-0.014806	11.9275	13.4264	-17.4213
 191	1	3	-0.274996	11.3416	13.3389	-14.7725
 192	1	3	-0.274736	12.2406	11.3931	-14.8418
 193	1	1	0.070548	11.5656	9.95551	-17.5406
 194	1	1	0.506757	12.295	11.3119	-17.774
 195	1	2	-0.012767	11.6909	9.64831	-16.4986
 196	1	2	-0.014806	10.4873	10.1341	-17.6485
 197	1	3	-0.274996	13.6244	11.1696	-17.5816
 198	1	3	-0.274736	12.1462	11.7095	-19.0568
 199	1	1	0.070548	13.2359	7.95058	-18.1049
 200	1	1	0.506757	11.9614	8.76778	-18.4755
 201	1	2	-0.012767	13.3918	7.23232	-18.9155
 202	1	2	-0.014806	14.1139	8.60899	-18.138
 203	1	3	-0.274996	12.1142	9.18539	-19.7507
 204	1	3	-0.274736	10.902	7.93133	-18.5517
 205	1	1	0.070548	14.1997	6.02635	-16.5302
 206	1	1	0.506757	13.2076	7.21216	-16.7294
 207	1	2	-0.012767	15.1939	6.4325	-16.2965
 208	1	2	-0.014806	13.8983	5.47983	-15.6258
 209	1	3	-0.274996	13.5137	8.12526	-15.7796
 210	1	3	-0.274736	11.97	6.77797	-16.4109
 211	1	1	0.070548	14.9633	3.65173	-17.2193
 212	1	1	0.506757	14.3601	5.00767	-17.6947
 213	1	2	-0.012767	15.6089	3.84281	-16.351
 214	1	2	-0.014806	15.6436	3.27437	-17.9943
 215	1	3	-0.274996	15.2211	5.54074	-18.5908
 216	1	3	-0.274736	13.2082	4.82123	-18.3774
 217	1	1	0.070548	13.667	1.55187	-18.0424
 218	1	1	0.506757	13.9407	2.53132	-16.8594
 219	1	2	-0.012767	13.7587	2.09877	-18.991
 220	1	2	-0.014806	12.6238	1.20832	-18.005
 221	1	3	-0.274996	14.3986	1.87069	-15.7729
 222	1	3	-0.274736	12.7703	3.06136	-16.4377
 223	1	1	0.070548	14.5097	-0.445124	-19.4375
 224	1	1	0.506757	14.5956	0.307354	-18.0895
 225	1	2	-0.012767	14.9509	0.150204	-20.2475
 226	1	2	-0.014806	15.0525	-1.39908	-19.3878
 227	1	3	-0.274996	14.2596	-0.560008	-17.1084
 228	1	3	-0.274736	15.8846	0.664507	-17.8893
 229	1	4	0	-9.52428	-14.4001	21.9069
 230	1	2	0	13.4677	-0.66317	-19.7035

Velocities

   1	-0.000429147	-0.000310637	0.000690462
   2	-0.000143032	0.000117412	0.000111676
   3	-0.00106225	-0.000949813	0.000936661
   4	0.000335581	-0.000338215	0.00151841
   5	0.000791104	0.00106394	-0.00115915
   6	-0.00189574	0.000392406	8.58537e-05
   7	-0.000193646	0.000221189	-0.000179033
   8	-0.000491972	0.000198238	-0.00020404
   9	-0.0002144	7.26886e-05	-0.000290597
  10	-3.06462e-05	0.00037604	6.72485e-05
  11	-0.00122102	0.000355045	-0.000700015
  12	0.00025934	0.000554284	-0.000379886
  13	1.43176e-05	0.000379058	1.14248e-05
  14	0.000141077	0.000110734	-0.000229992
  15	0.000228437	0.000847249	-0.000192609
  16	-0.000112888	0.000496601	0.000577377
  17	0.00050098	5.36322e-05	-0.000174848
  18	0.000105763	-0.000119638	-0.00049949
  19	-0.000296219	-0.000537489	-5.60369e-06
  20	5.79488e-05	-0.000139606	-2.20785e-05
  21	-0.000145703	-0.0013345	-0.000358425
  22	-0.00108229	-0.000504298	0.000290232
  23	6.8919e-05	-0.000222927	-4.82916e-05
  24	0.000658689	-0.000250938	-0.000128922
  25	0.000397473	-1.34234e-05	-0.000241961
  26	0.000231319	-0.000113888	4.54587e-05
  27	0.000597809	-0.000149767	-0.000239017
  28	0.000421409	8.27565e-05	-0.000331054
  29	0.00023561	0.000159988	0.000468824
  30	0.000448258	7.69647e-06	-0.00030542
  31	0.000367456	1.31303e-05	-0.000182445
  32	0.000306998	0.000142478	-0.000346073
  33	0.000294126	3.66778e-05	-1.87972e-05
  34	0.000369038	1.93078e-05	-0.000197329
  35	-8.37483e-06	0.000374628	-0.000352346
  36	0.000540935	0.00029575	-0.000656133
  37	0.000255917	-0.000136507	-0.000119722
  38	0.000461588	-0.000153508	-0.000171172
  39	0.000232209	-0.000151881	-0.000136774
  40	0.000220281	-5.96976e-05	3.12492e-06
  41	0.000723795	-5.86776e-05	-0.000217371
  42	0.000489183	-0.000457491	-0.000141768
  43	9.64293e-05	-0.000147095	-0.000185488
  44	0.000123164	-0.000165073	-0.000232958
  45	-6.72452e-05	-0.000212529	-0.000429956
  46	0.000398622	-0.000259193	-0.000170741
  47	-1.57014e-05	-9.30052e-05	-0.00024592
  48	0.000156069	-0.000236118	-0.000390267
  49	-5.19169e-05	0.000154201	0.000382621
  50	-9.12415e-05	9.66391e-05	0.000164775
  51	0.000167206	1.4866e-05	0.00048207
  52	-0.000127509	0.000316248	0.000574058
  53	-0.000433782	0.000274397	7.50949e-05
  54	2.46742e-05	9.99024e-05	0.000390637
  55	-0.000730831	0.000436322	-1.26696e-06
  56	-0.00015584	0.000118342	0.000202258
  57	-0.0016002	0.000154666	-0.000364525
  58	-0.00074066	0.00145843	-2.90054e-05
  59	0.000144063	0.000166466	0.000511581
  60	-2.85065e-05	-0.000342747	-0.000136074
  61	-0.000161788	-0.00044603	0.000415749
  62	-0.00017063	-0.000180373	0.000263333
  63	0.000180649	-0.000369043	0.000679746
  64	-0.000254257	-0.000856656	0.000476936
  65	-0.000301366	-0.000738043	0.000575016
  66	0.000484935	-1.10465e-05	0.000169295
  67	-0.000211168	-0.000468536	0.000270631
  68	-0.000332478	-0.000346503	0.000240271
  69	6.08976e-05	-0.000420036	0.000280946
  70	-0.000232739	-0.00075196	0.000287312
  71	-0.000202787	-3.86087e-05	0.000233725
  72	-0.000628142	-0.000344876	7.16315e-05
  73	-0.000350838	8.81279e-05	0.00027961
  74	-0.00033705	-0.000253732	0.00024668
  75	-0.00050237	-1.80804e-05	0.000369696
  76	-0.000138603	0.0001386	0.000149961
  77	-0.000116107	-0.000322821	0.000248322
  78	-0.000575649	-0.000360227	0.000196163
  79	-0.000345773	7.58538e-05	0.000349672
  80	-0.000351822	0.000459122	0.000481484
  81	-0.000586596	2.86302e-05	0.00035953
  82	-0.000134469	2.88504e-05	0.000328986
  83	-0.000554215	0.00111603	0.000239906
  84	-9.65662e-05	0.000559125	0.00111685
  85	-2.60868e-05	-0.000292736	1.26253e-05
  86	-0.000245141	-0.000233014	0.000300707
  87	-1.51478e-05	-0.000287197	-2.87832e-05
  88	-3.82617e-05	-0.000156441	-8.0092e-05
  89	-0.000307176	-0.000400289	0.000431285
  90	-0.000295176	-0.000306966	0.000405407
  91	0.000389416	-0.000671448	9.82758e-05
  92	0.000185939	-0.000526888	3.84776e-05
  93	0.000484313	-0.000621131	0.000227978
  94	0.000418473	-0.00083438	9.22302e-05
  95	0.000139841	-0.000551572	0.000165999
  96	0.000314359	-0.000529353	-0.000179937
  97	9.20193e-05	4.33458e-05	-0.000257936
  98	0.000221884	-0.00067979	-2.89627e-05
  99	-0.000110509	0.000201845	-0.000352782
 100	0.000555697	0.000336937	-0.000177011
 101	-0.000172392	-0.00101538	-0.00032619
 102	0.000522264	-0.0010408	0.000178634
 103	-0.000628401	0.000194498	-0.000305952
 104	-0.000386103	0.000178801	-0.000532725
 105	-0.000803963	0.000349589	-0.000376836
 106	-0.000688893	0.00014833	-9.0031e-05
 107	-0.000697842	0.000277724	-0.000650547
 108	-0.00025108	0.000214175	-0.00108471
 109	-0.000435266	1.68145e-05	-0.000263065
 110	-0.000511157	0.000146411	-0.000250042
 111	-0.000303797	-0.000164839	-5.51999e-05
 112	-0.000440892	-0.000136792	-0.000494982
 113	-0.000454325	0.000251031	-0.000171268
 114	-0.000553304	8.15403e-05	-0.000281311
 115	-0.000375957	6.48272e-05	2.04354e-05
 116	-0.000410971	0.000242357	-0.000141686
 117	-0.000383472	3.35002e-05	5.17726e-05
 118	-0.000553877	-1.12144e-05	3.74978e-05
 119	-0.000332644	0.000373239	9.71895e-05
 120	-0.000538878	0.000481558	-0.000334444
 121	0.000329065	0.000274599	0.000446567
 122	-9.24495e-05	1.50061e-05	0.000250745
 123	0.000632714	0.000229403	0.000566232
 124	0.00025407	0.000670034	0.000429554
 125	-0.000276006	3.96484e-05	0.000141617
 126	-4.06854e-05	-0.000263242	0.000322929
 127	0.000476404	0.000764899	0.000753569
 128	0.000515657	7.73135e-05	0.000536339
 129	0.000694022	0.00092403	0.0018561
 130	0.000244181	0.00172363	0.000367328
 131	0.000236929	-0.000212497	1.33727e-05
 132	0.000992702	-0.0004088	0.00087055
 133	0.000421515	0.000228951	-0.000268616
 134	0.000296559	-0.000166542	-0.000220741
 135	0.000697433	0.000368002	-0.000445373
 136	0.000516372	7.88015e-05	-0.000299661
 137	9.50134e-05	2.44861e-05	-0.00174114
 138	0.000202128	-0.00150901	9.20398e-05
 139	0.000507329	-2.90732e-05	-0.000458695
 140	8.74135e-05	0.000590283	-0.000192152
 141	0.000449494	-0.000748857	-0.00115138
 142	0.0014318	-8.82788e-05	-6.79558e-05
 143	-0.000817816	0.000929117	-0.000547859
 144	0.000329657	0.0012275	0.000673804
 145	0.000292818	-0.000155951	-0.000515301
 146	0.000212086	0.000310011	-0.000147627
 147	0.00016753	2.51022e-05	-0.00147217
 148	0.000499376	-0.00112738	-0.000457515
 149	0.000321483	-1.10416e-05	0.000699411
 150	-0.000113589	0.00114777	-6.33173e-05
 151	8.66963e-05	0.000186499	0.00073101
 152	0.000258853	0.000266713	0.000349783
 153	6.77585e-06	-8.15791e-05	0.00121502
 154	-0.000207973	0.000656212	0.000774837
 155	2.86515e-05	0.000104058	0.000921906
 156	0.000485819	0.000883343	0.000280984
 157	0.000278832	-0.000720982	0.000153518
 158	0.000251344	3.51445e-05	0.000385322
 159	0.000422825	-0.000992883	0.000608282
 160	0.000250678	-0.00100466	-1.79605e-05
 161	0.000234733	0.000286608	0.000617923
 162	0.000224842	0.000380208	-7.90721e-05
 163	-0.000188072	-0.000699887	-0.000642493
 164	-4.87528e-05	-0.000631919	-0.000593201
 165	-0.00049786	-0.00078898	-0.000313476
 166	-0.000385001	-0.000787274	-0.00103787
 167	0.000284808	-0.000391632	-0.0011149
 168	-0.00081839	-0.000808665	-0.000775521
 169	-9.66834e-05	-0.000596995	-0.000801878
 170	1.33992e-05	-0.000520729	-0.000513278
 171	-0.000581523	-0.000743963	-0.00202976
 172	0.000607379	-0.00145342	-0.000592449
 173	0.000301323	-0.000545628	-0.000105289
 174	-0.000193787	-7.15044e-05	-0.000613381
 175	0.000522261	0.000342699	-0.000621457
 176	-0.000945156	0.000482149	-0.000114763
 177	0.000535053	-5.9555e-05	-0.00124815
 178	0.000917329	0.000532849	-0.000143889
 179	-0.00165176	0.00309188	0.00054999
 180	-0.00316245	-0.00101747	0.000411712
 181	0.000476733	0.000657599	-0.00076095
 182	0.00146117	0.00019998	-0.000689314
 183	-0.00089925	0.00119228	-0.000682667
 184	0.000868881	0.00109738	-0.00188497
 185	0.00218673	-0.00158008	-0.000606181
 186	0.00284214	0.00122613	-0.000929134
 187	-0.000421398	-0.00102531	0.00104093
 188	0.000700984	-6.09781e-05	0.000537207
 189	-0.000313481	-0.00218265	0.00203756
 190	-0.00191555	-0.000956903	0.000591717
 191	0.00106553	1.92552e-05	0.000956476
 192	0.00166406	5.72965e-05	0.000849319
 193	-0.00109199	-0.00043275	-0.000849901
 194	0.000164256	-0.000796344	0.00103833
 195	-0.00338267	-0.000729626	-0.000561921
 196	-0.000759744	0.000207116	-0.00307914
 197	-0.000265006	-0.00200756	0.00295469
 198	0.00251548	-3.21008e-05	0.000984978
 199	9.66962e-05	2.81424e-05	5.84522e-05
 200	7.85724e-05	-0.000270512	-0.000602254
 201	0.000794788	0.000358039	-3.17403e-05
 202	-6.4081e-05	0.000303505	0.000809288
 203	0.000776318	3.86037e-05	-0.000453173
 204	0.000438138	-0.000660081	-0.0014936
 205	0.000128181	0.000311803	-0.000201857
 206	-0.000684404	-0.000447104	-0.000243274
 207	-3.3311e-06	0.000979841	-0.000630125
 208	0.000766758	0.000315469	2.80466e-05
 209	-0.00240575	-0.000592043	0.00038665
 210	-0.000538788	-0.00171606	-0.00164634
 211	0.000403807	0.000281047	-1.11509e-05
 212	0.000341774	0.000202978	-5.69101e-05
 213	0.000876389	0.000494968	-0.000511375
 214	-9.725e-05	-7.41554e-06	-0.00016581
 215	0.0003338	0.000138062	-0.000132933
 216	0.000372584	-9.66848e-05	-0.000184397
 217	-0.000218079	0.000462499	0.00125985
 218	0.000332503	0.000729933	0.000817984
 219	-0.00109739	0.000635571	0.00118011
 220	-0.000147657	0.000332291	0.00193498
 221	0.000790807	0.000729941	0.00070623
 222	0.000760618	0.00105267	0.00124989
 223	-0.000995629	0.00133722	1.7313e-06
 224	0.000168812	0.000740486	0.000211366
 225	-0.00283382	0.00223	-0.000396747
 226	-0.000393105	0.00153471	-0.00125397
 227	0.00151656	0.000149544	6.85265e-05
 228	4.9823e-05	0.00110385	-0.000979292
 229	0.000655711	-0.00043691	0.00112508
 230	-0.00104136	0.000600901	0.00125002

Bonds

   1	4	1	2
   2	1	1	3
   3	1	1	4
   4	2	2	5
   5	2	2	6
   6	4	7	8
   7	1	7	9
   8	1	7	10
   9	2	8	11
  10	2	8	12
  11	4	1	8
  12	4	13	14
  13	1	13	15
  14	1	13	16
  15	2	14	17
  16	2	14	18
  17	4	7	14
  18	4	19	20
  19	1	19	21
  20	1	19	22
  21	2	20	23
  22	2	20	24
  23	4	13	20
  24	4	25	26
  25	1	25	27
  26	1	25	28
  27	2	26	29
  28	2	26	30
  29	4	19	26
  30	4	31	32
  31	1	31	33
  32	1	31	34
  33	2	32	35
  34	2	32	36
  35	4	25	32
  36	4	37	38
  37	1	37	39
  38	1	37	40
  39	2	38	41
  40	2	38	42
  41	4	31	38
  42	4	43	44
  43	1	43	45
  44	1	43	46
  45	2	44	47
  46	2	44	48
  47	4	37	44
  48	4	49	50
  49	1	49	51
  50	1	49	52
  51	2	50	53
  52	2	50	54
  53	4	43	50
  54	4	55	56
  55	1	55	57
  56	1	55	58
  57	2	56	59
  58	2	56	60
  59	4	49	56
  60	4	61	62
  61	1	61	63
  62	1	61	64
  63	2	62	65
  64	2	62	66
  65	4	55	62
  66	4	67	68
  67	1	67	69
  68	1	67	70
  69	2	68	71
  70	2	68	72
  71	4	61	68
  72	4	73	74
  73	1	73	75
  74	1	73	76
  75	2	74	77
  76	2	74	78
  77	4	67	74
  78	4	79	80
  79	1	79	81
  80	1	79	82
  81	2	80	83
  82	2	80	84
  83	4	73	80
  84	4	85	86
  85	1	85	87
  86	1	85	88
  87	2	86	89
  88	2	86	90
  89	4	79	86
  90	4	91	92
  91	1	91	93
  92	1	91	94
  93	2	92	95
  94	2	92	96
  95	4	85	92
  96	4	97	98
  97	1	97	99
  98	1	97	100
  99	2	98	101
 100	2	98	102
 101	4	91	98
 102	4	103	104
 103	1	103	105
 104	1	103	106
 105	2	104	107
 106	2	104	108
 107	4	97	104
 108	4	109	110
 109	1	109	111
 110	1	109	112
 111	2	110	113
 112	2	110	114
 113	4	103	110
 114	4	115	116
 115	1	115	117
 116	1	115	118
 117	2	116	119
 118	2	116	120
 119	4	109	116
 120	4	121	122
 121	1	121	123
 122	1	121	124
 123	2	122	125
 124	2	122	126
 125	4	115	122
 126	4	127	128
 127	1	127	129
 128	1	127	130
 129	2	128	131
 130	2	128	132
 131	4	121	128
 132	4	133	134
 133	1	133	135
 134	1	133	136
 135	2	134	137
 136	2	134	138
 137	4	127	134
 138	4	139	140
 139	1	139	141
 140	1	139	142
 141	2	140	143
 142	2	140	144
 143	4	133	140
 144	4	145	146
 145	1	145	147
 146	1	145	148
 147	2	146	149
 148	2	146	150
 149	4	139	146
 150	4	151	152
 151	1	151	153
 152	1	151	154
 153	2	152	155
 154	2	152	156
 155	4	145	152
 156	4	157	158
 157	1	157	159
 158	1	157	160
 159	2	158	161
 160	2	158	162
 161	4	151	158
 162	4	163	164
 163	1	163	165
 164	1	163	166
 165	2	164	167
 166	2	164	168
 167	4	157	164
 168	4	169	170
 169	1	169	171
 170	1	169	172
 171	2	170	173
 172	2	170	174
 173	4	163	170
 174	4	175	176
 175	1	175	177
 176	1	175	178
 177	2	176	179
 178	2	176	180
 179	4	169	176
 180	4	181	182
 181	1	181	183
 182	1	181	184
 183	2	182	185
 184	2	182	186
 185	4	175	182
 186	4	187	188
 187	1	187	189
 188	1	187	190
 189	2	188	191
 190	2	188	192
 191	4	181	188
 192	4	193	194
 193	1	193	195
 194	1	193	196
 195	2	194	197
 196	2	194	198
 197	4	187	194
 198	4	199	200
 199	1	199	201
 200	1	199	202
 201	2	200	203
 202	2	200	204
 203	4	193	200
 204	4	205	206
 205	1	205	207
 206	1	205	208
 207	2	206	209
 208	2	206	210
 209	4	199	206
 210	4	211	212
 211	1	211	213
 212	1	211	214
 213	2	212	215
 214	2	212	216
 215	4	205	212
 216	4	217	218
 217	1	217	219
 218	1	217	220
 219	2	218	221
 220	2	218	222
 221	4	211	218
 222	4	223	224
 223	1	223	225
 224	1	223	226
 225	2	224	227
 226	2	224	228
 227	4	217	224
 228	3	2	229
 229	1	223	230

Angles

   1	2	2	1	3
   2	2	2	1	4
   3	4	3	1	4
   4	3	1	2	5
   5	3	1	2	6
   6	6	5	2	6
   7	2	8	7	9
   8	2	8	7	10
   9	4	9	7	10
  10	3	7	8	11
  11	3	7	8	12
  12	6	11	8	12
  13	7	2	1	8
  14	2	3	1	8
  15	2	4	1	8
  16	7	1	8	7
  17	3	1	8	11
  18	3	1	8	12
  19	2	14	13	15
  20	2	14	13	16
  21	4	15	13	16
  22	3	13	14	17
  23	3	13	14	18
  24	6	17	14	18
  25	7	8	7	14
  26	2	9	7	14
  27	2	10	7	14
  28	7	7	14	13
  29	3	7	14	17
  30	3	7	14	18
  31	2	20	19	21
  32	2	20	19	22
  33	4	21	19	22
  34	3	19	20	23
  35	3	19	20	24
  36	6	23	20	24
  37	7	14	13	20
  38	2	15	13	20
  39	2	16	13	20
  40	7	13	20	19
  41	3	13	20	23
  42	3	13	20	24
  43	2	26	25	27
  44	2	26	25	28
  45	4	27	25	28
  46	3	25	26	29
  47	3	25	26	30
  48	6	29	26	30
  49	7	20	19	26
  50	2	21	19	26
  51	2	22	19	26
  52	7	19	26	25
  53	3	19	26	29
  54	3	19	26	30
  55	2	32	31	33
  56	2	32	31	34
  57	4	33	31	34
  58	3	31	32	35
  59	3	31	32	36
  60	6	35	32	36
  61	7	26	25	32
  62	2	27	25	32
  63	2	28	25	32
  64	7	25	32	31
  65	3	25	32	35
  66	3	25	32	36
  67	2	38	37	39
  68	2	38	37	40
  69	4	39	37	40
  70	3	37	38	41
  71	3	37	38	42
  72	6	41	38	42
  73	7	32	31	38
  74	2	33	31	38
  75	2	34	31	38
  76	7	31	38	37
  77	3	31	38	41
  78	3	31	38	42
  79	2	44	43	45
  80	2	44	43	46
  81	4	45	43	46
  82	3	43	44	47
  83	3	43	44	48
  84	6	47	44	48
  85	7	38	37	44
  86	2	39	37	44
  87	2	40	37	44
  88	7	37	44	43
  89	3	37	44	47
  90	3	37	44	48
  91	2	50	49	51
  92	2	50	49	52
  93	4	51	49	52
  94	3	49	50	53
  95	3	49	50	54
  96	6	53	50	54
  97	7	44	43	50
  98	2	45	43	50
  99	2	46	43	50
 100	7	43	50	49
 101	3	43	50	53
 102	3	43	50	54
 103	2	56	55	57
 104	2	56	55	58
 105	4	57	55	58
 106	3	55	56	59
 107	3	55	56	60
 108	6	59	56	60
 109	7	50	49	56
 110	2	51	49	56
 111	2	52	49	56
 112	7	49	56	55
 113	3	49	56	59
 114	3	49	56	60
 115	2	62	61	63
 116	2	62	61	64
 117	4	63	61	64
 118	3	61	62	65
 119	3	61	62	66
 120	6	65	62	66
 121	7	56	55	62
 122	2	57	55	62
 123	2	58	55	62
 124	7	55	62	61
 125	3	55	62	65
 126	3	55	62	66
 127	2	68	67	69
 128	2	68	67	70
 129	4	69	67	70
 130	3	67	68	71
 131	3	67	68	72
 132	6	71	68	72
 133	7	62	61	68
 134	2	63	61	68
 135	2	64	61	68
 136	7	61	68	67
 137	3	61	68	71
 138	3	61	68	72
 139	2	74	73	75
 140	2	74	73	76
 141	4	75	73	76
 142	3	73	74	77
 143	3	73	74	78
 144	6	77	74	78
 145	7	68	67	74
 146	2	69	67	74
 147	2	70	67	74
 148	7	67	74	73
 149	3	67	74	77
 150	3	67	74	78
 151	2	80	79	81
 152	2	80	79	82
 153	4	81	79	82
 154	3	79	80	83
 155	3	79	80	84
 156	6	83	80	84
 157	7	74	73	80
 158	2	75	73	80
 159	2	76	73	80
 160	7	73	80	79
 161	3	73	80	83
 162	3	73	80	84
 163	2	86	85	87
 164	2	86	85	88
 165	4	87	85	88
 166	3	85	86	89
 167	3	85	86	90
 168	6	89	86	90
 169	7	80	79	86
 170	2	81	79	86
 171	2	82	79	86
 172	7	79	86	85
 173	3	79	86	89
 174	3	79	86	90
 175	2	92	91	93
 176	2	92	91	94
 177	4	93	91	94
 178	3	91	92	95
 179	3	91	92	96
 180	6	95	92	96
 181	7	86	85	92
 182	2	87	85	92
 183	2	88	85	92
 184	7	85	92	91
 185	3	85	92	95
 186	3	85	92	96
 187	2	98	97	99
 188	2	98	97	100
 189	4	99	97	100
 190	3	97	98	101
 191	3	97	98	102
 192	6	101	98	102
 193	7	92	91	98
 194	2	93	91	98
 195	2	94	91	98
 196	7	91	98	97
 197	3	91	98	101
 198	3	91	98	102
 199	2	104	103	105
 200	2	104	103	106
 201	4	105	103	106
 202	3	103	104	107
 203	3	103	104	108
 204	6	107	104	108
 205	7	98	97	104
 206	2	99	97	104
 207	2	100	97	104
 208	7	97	104	103
 209	3	97	104	107
 210	3	97	104	108
 211	2	110	109	111
 212	2	110	109	112
 213	4	111	109	112
 214	3	109	110	113
 215	3	109	110	114
 216	6	113	110	114
 217	7	104	103	110
 218	2	105	103	110
 219	2	106	103	110
 220	7	103	110	109
 221	3	103	110	113
 222	3	103	110	114
 223	2	116	115	117
 224	2	116	115	118
 225	4	117	115	118
 226	3	115	116	119
 227	3	115	116	120
 228	6	119	116	120
 229	7	110	109	116
 230	2	111	109	116
 231	2	112	109	116
 232	7	109	116	115
 233	3	109	116	119
 234	3	109	116	120
 235	2	122	121	123
 236	2	122	121	124
 237	4	123	121	124
 238	3	121	122	125
 239	3	121	122	126
 240	6	125	122	126
 241	7	116	115	122
 242	2	117	115	122
 243	2	118	115	122
 244	7	115	122	121
 245	3	115	122	125
 246	3	115	122	126
 247	2	128	127	129
 248	2	128	127	130
 249	4	129	127	130
 250	3	127	128	131
 251	3	127	128	132
 252	6	131	128	132
 253	7	122	121	128
 254	2	123	121	128
 255	2	124	121	128
 256	7	121	128	127
 257	3	121	128	131
 258	3	121	128	132
 259	2	134	133	135
 260	2	134	133	136
 261	4	135	133	136
 262	3	133	134	137
 263	3	133	134	138
 264	6	137	134	138
 265	7	128	127	134
 266	2	129	127	134
 267	2	130	127	134
 268	7	127	134	133
 269	3	127	134	137
 270	3	127	134	138
 271	2	140	139	141
 272	2	140	139	142
 273	4	141	139	142
 274	3	139	140	143
 275	3	139	140	144
 276	6	143	140	144
 277	7	134	133	140
 278	2	135	133	140
 279	2	136	133	140
 280	7	133	140	139
 281	3	133	140	143
 282	3	133	140	144
 283	2	146	145	147
 284	2	146	145	148
 285	4	147	145	148
 286	3	145	146	149
 287	3	145	146	150
 288	6	149	146	150
 289	7	140	139	146
 290	2	141	139	146
 291	2	142	139	146
 292	7	139	146	145
 293	3	139	146	149
 294	3	139	146	150
 295	2	152	151	153
 296	2	152	151	154
 297	4	153	151	154
 298	3	151	152	155
 299	3	151	152	156
 300	6	155	152	156
 301	7	146	145	152
 302	2	147	145	152
 303	2	148	145	152
 304	7	145	152	151
 305	3	145	152	155
 306	3	145	152	156
 307	2	158	157	159
 308	2	158	157	160
 309	4	159	157	160
 310	3	157	158	161
 311	3	157	158	162
 312	6	161	158	162
 313	7	152	151	158
 314	2	153	151	158
 315	2	154	151	158
 316	7	151	158	157
 317	3	151	158	161
 318	3	151	158	162
 319	2	164	163	165
 320	2	164	163	166
 321	4	165	163	166
 322	3	163	164	167
 323	3	163	164	168
 324	6	167	164	168
 325	7	158	157	164
 326	2	159	157	164
 327	2	160	157	164
 328	7	157	164	163
 329	3	157	164	167
 330	3	157	164	168
 331	2	170	169	171
 332	2	170	169	172
 333	4	171	169	172
 334	3	169	170	173
 335	3	169	170	174
 336	6	173	170	174
 337	7	164	163	170
 338	2	165	163	170
 339	2	166	163	170
 340	7	163	170	169
 341	3	163	170	173
 342	3	163	170	174
 343	2	176	175	177
 344	2	176	175	178
 345	4	177	175	178
 346	3	175	176	179
 347	3	175	176	180
 348	6	179	176	180
 349	7	170	169	176
 350	2	171	169	176
 351	2	172	169	176
 352	7	169	176	175