pySIMM System Object

194 atoms
193 bonds
384 angles
567 dihedrals
0 impropers

4 atom types
4 bond types
7 angle types
4 dihedral types

-93.765513 93.765513 xlo xhi
-93.765513 93.765513 ylo yhi
-93.765513 93.765513 zlo zhi

Masses

   1	12.01	# c3
   2	1.008	# hc
   3	19.0	# f
   4	1.008	# h2

Pair Coeffs

   1	0.1094	3.3996695084235347	# c3
   2	0.0157	2.649532787749369	# hc
   3	0.061	3.1181455134911875	# f
   4	0.0157	2.2931733004932333	# h2

Bond Coeffs

   1	330.6	1.0969	# c3,hc
   2	356.9	1.3497	# c3,f
   3	331.7	1.0961	# c3,h2
   4	300.9	1.5375	# c3,c3

Angle Coeffs

   1	51.15	108.79	# f,c3,h2
   2	46.34	109.8	# c3,c3,hc
   3	66.11	109.24	# c3,c3,f
   4	39.4	107.58	# hc,c3,hc
   5	46.25	110.22	# c3,c3,h2
   6	70.89	107.36	# f,c3,f
   7	62.86	111.51	# c3,c3,c3

Dihedral Coeffs

   1	2	0.0	3	0	0.19	1	0	# hc,c3,c3,f
   2	1	0.15555555555555556	3	0	# X,c3,c3,X
   3	1	0.16	3	0	# hc,c3,c3,c3
   4	3	0.18	3	0	0.25	2	180	0.2	1	180	# c3,c3,c3,c3

Atoms

   1	1	1	0.070548	-11.883	-13.4522	15.6054
   2	1	1	0.506757	-12.8783	-13.645	14.4419
   3	1	2	-0.012767	-11.5949	-14.4344	16.0043
   4	1	2	-0.014806	-10.9713	-12.99	15.208
   5	1	3	-0.274996	-12.4334	-14.6272	13.6285
   6	1	3	-0.274736	-12.9635	-12.5251	13.6913
   7	1	1	0.070548	-11.6217	-12.5389	18.0458
   8	1	1	0.506757	-12.4767	-12.5925	16.7479
   9	1	2	-0.012767	-11.4298	-13.5731	18.3639
  10	1	2	-0.014806	-12.2236	-12.105	18.8542
  11	1	3	-0.274996	-13.6785	-13.1112	17.0878
  12	1	3	-0.274736	-12.73	-11.3473	16.2979
  13	1	1	0.070548	-10.2678	-10.2645	17.7025
  14	1	1	0.506757	-10.2569	-11.7961	17.9745
  15	1	2	-0.012767	-10.5992	-10.0895	16.6722
  16	1	2	-0.014806	-9.22804	-9.91139	17.7355
  17	1	3	-0.274996	-9.59207	-12.0344	19.1266
  18	1	3	-0.274736	-9.48385	-12.378	17.0329
  19	1	1	0.070548	-10.8247	-7.8664	18.5981
  20	1	1	0.506757	-11.1075	-9.39186	18.68
  21	1	2	-0.012767	-11.5425	-7.34607	19.2444
  22	1	2	-0.014806	-9.83983	-7.6668	19.0432
  23	1	3	-0.274996	-10.8717	-9.7673	19.9557
  24	1	3	-0.274736	-12.4273	-9.59899	18.4899
  25	1	1	0.070548	-10.9535	-5.69244	17.192
  26	1	1	0.506757	-10.8509	-7.24313	17.1745
  27	1	2	-0.012767	-10.3749	-5.26956	16.3621
  28	1	2	-0.014806	-10.4406	-5.328	18.0931
  29	1	3	-0.274996	-9.69514	-7.56458	16.5523
  30	1	3	-0.274736	-11.8313	-7.78388	16.4222
  31	1	1	0.070548	-13.2144	-5.18437	15.8575
  32	1	1	0.506757	-12.3945	-5.10513	17.1801
  33	1	2	-0.012767	-13.5941	-6.20377	15.7128
  34	1	2	-0.014806	-14.1155	-4.56791	15.9825
  35	1	3	-0.274996	-13.1189	-5.69953	18.154
  36	1	3	-0.274736	-12.3188	-3.80956	17.5577
  37	1	1	0.070548	-13.503	-4.50544	13.4108
  38	1	1	0.506757	-12.4878	-4.73252	14.5622
  39	1	2	-0.012767	-14.2294	-5.32996	13.4266
  40	1	2	-0.014806	-14.0943	-3.60724	13.6291
  41	1	3	-0.274996	-11.7988	-3.59282	14.7849
  42	1	3	-0.274736	-11.5802	-5.66722	14.2112
  43	1	1	0.070548	-11.7637	-3.41084	11.691
  44	1	1	0.506757	-12.9193	-4.41803	11.9702
  45	1	2	-0.012767	-11.3569	-3.66263	10.7042
  46	1	2	-0.014806	-10.9414	-3.5779	12.3975
  47	1	3	-0.274996	-13.9473	-4.16673	11.1304
  48	1	3	-0.274736	-12.491	-5.64695	11.606
  49	1	1	0.070548	-10.9415	-0.921688	11.6199
  50	1	1	0.506757	-12.1467	-1.90346	11.6875
  51	1	2	-0.012767	-10.3194	-1.0904	12.51
  52	1	2	-0.014806	-11.3267	0.102425	11.7252
  53	1	3	-0.274996	-13.0024	-1.62696	10.6813
  54	1	3	-0.274736	-12.8263	-1.61151	12.8167
  55	1	1	0.070548	-10.6932	-0.480156	9.04371
  56	1	1	0.506757	-10.0204	-0.961015	10.3639
  57	1	2	-0.012767	-11.5892	-1.07633	8.84371
  58	1	2	-0.014806	-11.0456	0.549862	9.19193
  59	1	3	-0.274996	-8.98211	-0.145633	10.6506
  60	1	3	-0.274736	-9.4876	-2.19153	10.2207
  61	1	1	0.070548	-10.5379	0.188092	6.59086
  62	1	1	0.506757	-9.8157	-0.537809	7.75993
  63	1	2	-0.012767	-11.5252	-0.271987	6.44623
  64	1	2	-0.014806	-10.7378	1.22253	6.90185
  65	1	3	-0.274996	-9.59938	-1.8291	7.42748
  66	1	3	-0.274736	-8.61342	0.0333119	7.98145
  67	1	1	0.070548	-10.6103	1.05272	4.18971
  68	1	1	0.506757	-9.80238	0.216913	5.22055
  69	1	2	-0.012767	-11.4489	0.442808	3.82547
  70	1	2	-0.014806	-11.075	1.90352	4.70722
  71	1	3	-0.274996	-9.68005	-1.0396	4.73768
  72	1	3	-0.274736	-8.55382	0.710859	5.35358
  73	1	1	0.070548	-9.06768	0.546426	2.12543
  74	1	1	0.506757	-9.82601	1.61142	2.97023
  75	1	2	-0.012767	-8.41056	-0.044598	2.77441
  76	1	2	-0.014806	-9.80201	-0.161935	1.71796
  77	1	3	-0.274996	-10.7448	2.21978	2.18744
  78	1	3	-0.274736	-8.99928	2.59332	3.3914
  79	1	1	0.070548	-7.60937	-0.0377384	0.102544
  80	1	1	0.506757	-8.19962	1.11016	0.964123
  81	1	2	-0.012767	-8.41802	-0.733627	-0.160853
  82	1	2	-0.014806	-6.91337	-0.617171	0.724868
  83	1	3	-0.274996	-8.91493	1.94484	0.181177
  84	1	3	-0.274736	-7.18143	1.82833	1.48459
  85	1	1	0.070548	-5.75055	1.43314	-1.02037
  86	1	1	0.506757	-6.87909	0.380756	-1.20666
  87	1	2	-0.012767	-6.20853	2.42409	-0.89719
  88	1	2	-0.014806	-5.22252	1.22219	-0.0805512
  89	1	3	-0.274996	-7.78004	0.83707	-2.1045
  90	1	3	-0.274736	-6.37985	-0.749798	-1.75259
  91	1	1	0.070548	-5.2657	1.71807	-3.58322
  92	1	1	0.506757	-4.69065	1.51767	-2.15274
  93	1	2	-0.012767	-5.75115	0.786839	-3.90408
  94	1	2	-0.014806	-6.06232	2.47371	-3.54191
  95	1	3	-0.274996	-3.92021	0.407595	-2.11065
  96	1	3	-0.274736	-3.86108	2.53753	-1.84397
  97	1	1	0.070548	-2.99598	1.21032	-4.7861
  98	1	1	0.506757	-4.24106	2.13728	-4.67841
  99	1	2	-0.012767	-2.36635	1.34061	-3.89859
 100	1	2	-0.014806	-3.34422	0.169237	-4.74145
 101	1	3	-0.274996	-3.8601	3.41534	-4.46872
 102	1	3	-0.274736	-4.90568	2.15644	-5.85399
 103	1	1	0.070548	-1.49482	2.75457	-6.37269
 104	1	1	0.506757	-2.1078	1.35841	-6.05707
 105	1	2	-0.012767	-1.06276	2.72994	-7.38052
 106	1	2	-0.014806	-2.30774	3.48723	-6.44951
 107	1	3	-0.274996	-2.81026	0.952425	-7.13754
 108	1	3	-0.274736	-1.11163	0.452393	-5.95589
 109	1	1	0.070548	0.937579	2.55034	-5.26289
 110	1	1	0.506757	-0.424419	3.29869	-5.38018
 111	1	2	-0.012767	1.53336	3.06657	-4.49715
 112	1	2	-0.014806	0.775993	1.54628	-4.85229
 113	1	3	-0.274996	-0.188736	4.59306	-5.68723
 114	1	3	-0.274736	-0.953008	3.34592	-4.13962
 115	1	1	0.070548	3.2015	1.85052	-6.20108
 116	1	1	0.506757	1.80785	2.44407	-6.5461
 117	1	2	-0.012767	3.7311	2.5658	-5.55627
 118	1	2	-0.014806	3.05135	0.956065	-5.58037
 119	1	3	-0.274996	1.97024	3.66569	-7.09421
 120	1	3	-0.274736	1.18574	1.67758	-7.46342
 121	1	1	0.070548	4.59204	2.6528	-8.28222
 122	1	1	0.506757	4.14046	1.46707	-7.38195
 123	1	2	-0.012767	5.07166	3.4082	-7.64419
 124	1	2	-0.014806	3.70832	3.13863	-8.71126
 125	1	3	-0.274996	3.58804	0.481646	-8.11916
 126	1	3	-0.274736	5.23207	0.91491	-6.80708
 127	1	1	0.070548	6.89051	1.64092	-9.04096
 128	1	1	0.506757	5.55283	2.3146	-9.46152
 129	1	2	-0.012767	6.69881	0.580432	-8.82929
 130	1	2	-0.014806	7.22952	2.08465	-8.09488
 131	1	3	-0.274996	5.79374	3.47954	-10.1022
 132	1	3	-0.274736	4.91352	1.53046	-10.3564
 133	1	1	0.070548	9.23505	0.813082	-9.60369
 134	1	1	0.506757	8.06105	1.72332	-10.0587
 135	1	2	-0.012767	8.99669	-0.227183	-9.86517
 136	1	2	-0.014806	9.29301	0.831395	-8.50626
 137	1	3	-0.274996	8.47617	3.00405	-10.173
 138	1	3	-0.274736	7.65899	1.32693	-11.2859
 139	1	1	0.070548	10.7288	1.26936	-11.7122
 140	1	1	0.506757	10.6405	1.16566	-10.1609
 141	1	2	-0.012767	10.2772	2.21574	-12.0375
 142	1	2	-0.014806	10.1042	0.475625	-12.1454
 143	1	3	-0.274996	11.0443	2.31724	-9.58054
 144	1	3	-0.274736	11.4946	0.225154	-9.70506
 145	1	1	0.070548	13.2015	2.20881	-11.859
 146	1	1	0.506757	12.1517	1.15067	-12.3371
 147	1	2	-0.012767	12.8466	2.74784	-10.9799
 148	1	2	-0.014806	13.2782	2.98714	-12.6278
 149	1	3	-0.274996	12.0016	1.31915	-13.671
 150	1	3	-0.274736	12.5798	-0.125704	-12.2171
 151	1	1	0.070548	15.5811	2.75212	-10.9717
 152	1	1	0.506757	14.6236	1.66944	-11.5438
 153	1	2	-0.012767	16.3558	2.25681	-10.3694
 154	1	2	-0.014806	15.0208	3.37282	-10.2588
 155	1	3	-0.274996	15.1614	1.09038	-12.6392
 156	1	3	-0.274736	14.542	0.708896	-10.5964
 157	1	1	0.070548	17.3909	2.96291	-12.8325
 158	1	1	0.506757	16.2974	3.68035	-11.9892
 159	1	2	-0.012767	17.6783	2.02855	-12.3312
 160	1	2	-0.014806	16.9536	2.65619	-13.793
 161	1	3	-0.274996	16.8133	4.70794	-11.2797
 162	1	3	-0.274736	15.4016	4.25264	-12.8226
 163	1	1	0.070548	18.4664	5.14039	-13.8194
 164	1	1	0.506757	18.6864	3.76462	-13.1215
 165	1	2	-0.012767	18.0545	5.85171	-13.0987
 166	1	2	-0.014806	17.6938	5.03176	-14.5926
 167	1	3	-0.274996	19.3584	3.93352	-11.9601
 168	1	3	-0.274736	19.4636	2.96541	-13.885
 169	1	1	0.070548	19.6029	7.24151	-14.8839
 170	1	1	0.506757	19.7433	5.74685	-14.4688
 171	1	2	-0.012767	18.5857	7.40587	-15.2649
 172	1	2	-0.014806	20.2621	7.41737	-15.746
 173	1	3	-0.274996	19.9913	5.05903	-15.6066
 174	1	3	-0.274736	20.8246	5.56496	-13.6832
 175	1	1	0.070548	18.8868	8.44127	-12.6693
 176	1	1	0.506757	19.9216	8.33924	-13.8254
 177	1	2	-0.012767	19.0213	7.56972	-12.015
 178	1	2	-0.014806	17.8768	8.34879	-13.0877
 179	1	3	-0.274996	19.9672	9.50794	-14.4983
 180	1	3	-0.274736	21.1658	8.17273	-13.3296
 181	1	1	0.070548	18.3213	11.0138	-12.3918
 182	1	1	0.506757	18.9649	9.72697	-11.7873
 183	1	2	-0.012767	18.8535	11.8952	-12.0082
 184	1	2	-0.014806	18.48	11.0386	-13.4745
 185	1	3	-0.274996	20.2495	10.0036	-11.4764
 186	1	3	-0.274736	18.3929	9.44298	-10.5966
 187	1	1	0.070548	16.4754	11.8399	-10.7544
 188	1	1	0.506757	16.8048	11.2106	-12.1314
 189	1	2	-0.012767	16.8061	11.2104	-9.92113
 190	1	2	-0.014806	16.9608	12.819	-10.6478
 191	1	3	-0.274996	16.1347	10.0456	-12.2807
 192	1	3	-0.274736	16.3169	12.0338	-13.0867
 193	1	4	0	-13.8756	-13.9193	14.8039
 194	1	2	0	15.3934	11.99	-10.6473

Velocities

   1	-0.000214154	0.000102134	0.00015205
   2	5.35862e-05	-0.000372396	9.07005e-05
   3	-0.000119409	0.000241008	0.000441061
   4	-0.000166032	-7.37068e-05	0.000129386
   5	0.000644467	-0.000445713	0.000510624
   6	-5.23941e-05	-0.000500639	-8.40961e-05
   7	-0.000161573	0.000116315	-8.7268e-05
   8	-0.000102992	0.000398854	-0.000102545
   9	-0.00011952	-1.54087e-06	-0.000431305
  10	-6.07046e-05	-0.000236662	8.08539e-05
  11	-0.000280508	0.000781013	-0.000283829
  12	0.0004292	0.000478563	-0.000243251
  13	0.000229795	-3.70846e-05	0.000294058
  14	-8.37043e-05	-9.01989e-05	-8.73773e-06
  15	0.000871966	0.000294608	0.000208601
  16	0.000227341	-0.000172635	0.000870468
  17	-3.37449e-05	-0.000405266	-0.000107932
  18	-0.000254424	1.30103e-05	-0.000204517
  19	-0.000224799	4.34307e-05	-0.000239205
  20	2.83548e-06	-6.1668e-05	-6.35138e-06
  21	-0.000311089	3.69971e-06	-0.000333271
  22	-0.000315952	0.000266897	-0.000191171
  23	5.56357e-06	0.000110121	4.16655e-05
  24	5.96421e-05	-0.000204628	-0.00011064
  25	0.000207356	-5.66551e-06	-0.000407144
  26	-0.000160681	-6.68617e-05	-0.000318945
  27	0.000298577	-0.000203684	-0.000429845
  28	0.000421518	-0.000136092	-0.00047487
  29	-0.000296787	-0.000388177	-0.00035317
  30	-0.000394311	0.000117722	-0.00020498
  31	0.000205116	0.000731118	-0.000162728
  32	0.000404563	0.000411417	-0.000281318
  33	-9.99772e-06	0.000831778	-0.000201487
  34	0.000440702	0.000931131	1.80438e-06
  35	0.0003086	0.000517958	-0.000277673
  36	0.000805123	0.000324151	-0.000191556
  37	-9.94194e-05	0.000245851	-0.000295786
  38	5.84798e-05	0.000588987	-0.000313151
  39	-0.00011882	0.000331627	8.52501e-05
  40	-3.72168e-05	0.000338925	-0.000564343
  41	-3.44719e-06	0.000701523	-0.000534168
  42	0.000171542	0.000672849	-0.000219237
  43	-0.000188413	-0.000415763	-0.000662352
  44	-0.000205911	-0.000320045	-0.000363157
  45	-0.00062875	-0.000127275	-0.000947845
  46	8.55122e-05	-0.000744812	-0.00104445
  47	-0.000119705	-0.000574275	-0.000472478
  48	-0.000166901	-0.000432694	9.22005e-05
  49	0.000184525	-0.000589499	7.33859e-05
  50	4.51801e-05	-0.000356648	4.84132e-05
  51	0.000375257	-0.00109856	-0.000164112
  52	0.000445476	-0.000569153	0.000532149
  53	-0.000337515	0.000211623	0.000501011
  54	0.000563096	-0.000550054	0.000436322
  55	-0.000340833	-0.000418175	5.23615e-05
  56	-6.38841e-05	-0.000348346	-8.98748e-05
  57	1.03567e-05	-0.000941625	-0.000110567
  58	-0.000961744	-0.000663582	0.000248307
  59	-0.000234221	-0.000137722	-0.000106453
  60	0.000146608	-0.000238153	-0.000229815
  61	-0.000135938	0.000499914	0.00024767
  62	-0.000130498	0.000383251	0.000150883
  63	-0.000245082	0.00074182	0.000317058
  64	0.000155382	0.000565597	0.000261775
  65	0.000513019	0.000580609	-0.000162489
  66	-0.000415947	0.000861136	0.000458547
  67	-0.000200849	-4.90117e-05	-8.94943e-06
  68	-9.81825e-05	0.000345503	0.000224672
  69	0.000118233	-0.000410862	-0.000138998
  70	-0.000639513	-0.000199917	-0.000207841
  71	0.000140535	0.000289766	0.000461353
  72	-0.000212676	0.000559318	0.000233989
  73	0.000219343	0.000210077	0.000189031
  74	-0.000101187	9.55849e-05	3.71905e-05
  75	0.000460515	0.000586482	0.000288572
  76	0.000459402	-0.00013278	0.000387582
  77	-0.000143216	-0.000100655	-5.70643e-05
  78	-0.000370604	0.000257664	0.000147006
  79	0.000217168	8.69757e-05	0.000108947
  80	1.00322e-06	0.00016605	-9.24852e-05
  81	0.000329214	-2.05636e-05	9.93696e-05
  82	0.000215377	0.000231779	0.000231219
  83	-0.000316612	-0.00025215	-0.000224473
  84	-0.000193327	0.00059606	-0.000350111
  85	0.000469591	-0.000231481	0.000129398
  86	0.000386933	-0.000109568	6.18568e-05
  87	0.000542461	-0.000205106	5.03748e-05
  88	0.000402843	-0.000269162	0.000143289
  89	0.000514014	-9.26342e-05	-3.57632e-05
  90	0.000323067	-0.000198853	0.000206854
  91	0.000417723	-4.90509e-05	0.000214358
  92	0.000548001	-0.000257828	0.000122145
  93	0.000187403	8.20986e-05	0.000230559
  94	0.000620741	0.000141264	0.000393065
  95	0.000410722	-0.000337349	2.75404e-05
  96	0.000622638	-0.000344379	0.000198287
  97	9.31299e-05	-0.000384085	-0.000165024
  98	0.000299589	-0.000184375	2.13225e-06
  99	2.30348e-06	-0.000815463	-5.93376e-05
 100	-0.000165022	-0.000310822	-0.000642203
 101	0.000443737	-0.0002365	-4.57698e-05
 102	0.000156094	-0.00019384	8.80383e-05
 103	4.78743e-05	8.31189e-06	0.000133567
 104	0.000356682	-0.000135472	1.11587e-05
 105	1.66377e-05	0.000227235	9.74897e-05
 106	-5.22437e-05	-0.00010115	0.00020824
 107	0.000750776	-0.00038832	-0.000125811
 108	0.000587358	0.000151973	0.000358763
 109	0.00011479	0.000244468	-8.80677e-05
 110	6.39745e-07	1.86257e-05	0.00016919
 111	0.00021013	0.000469649	-0.000302941
 112	0.000400491	0.000288026	0.000108515
 113	-0.000219867	0.000122115	0.000472922
 114	9.66769e-05	-0.000461026	0.000237875
 115	-0.000342057	-0.000250851	-0.000252056
 116	-0.000113981	0.000230586	-0.000224183
 117	-0.000246176	-0.000559932	7.69543e-06
 118	-0.000694072	-0.000380832	-0.000517253
 119	0.000188499	0.000317508	3.5277e-05
 120	-0.000235266	0.000512976	-0.000395526
 121	-0.000850601	-0.000344889	-0.000548601
 122	-0.000296684	-0.000234874	-0.000154206
 123	-0.00189418	0.000446353	-0.000728502
 124	-0.00115182	-0.001436	-0.00126072
 125	9.12287e-05	-0.000704237	0.000179353
 126	-6.78797e-05	0.000434741	7.77473e-05
 127	-5.68774e-05	5.40536e-05	0.000453032
 128	-4.43229e-05	-0.000100288	3.71816e-05
 129	-5.64264e-06	6.25599e-05	0.000528644
 130	-0.000288456	0.000210255	0.000469938
 131	0.000138053	2.5859e-05	0.000323993
 132	0.000457058	-9.05712e-05	-0.000351857
 133	-7.25878e-05	-0.000281879	8.71932e-05
 134	7.3033e-05	0.000123119	0.000594572
 135	1.08988e-05	-3.61649e-05	-0.00093528
 136	-0.000170758	-0.00130933	8.45008e-05
 137	0.00034797	5.98348e-05	0.00113595
 138	-7.62568e-06	0.000791526	0.000427261
 139	-0.000180567	0.00137557	0.000458709
 140	3.21617e-06	9.46466e-05	0.000446271
 141	0.00102608	0.00233908	0.00140453
 142	-0.00115191	0.00259152	-0.000263411
 143	0.000381648	-0.000461589	0.00130113
 144	-0.000148809	-0.000380994	-0.000244757
 145	-0.000200464	0.000296423	-0.000164306
 146	-0.000313031	0.000323436	0.000300159
 147	-0.000323419	0.00080413	-0.000442417
 148	-0.000137447	-0.00010923	-0.000585896
 149	-0.000307511	-0.000485991	0.00017045
 150	-0.00086781	0.000194223	0.00100125
 151	-0.000469534	0.00014448	0.000378085
 152	-0.000224043	0.000256628	-0.000149031
 153	-0.00103595	0.000286926	0.00115784
 154	-0.000979046	0.00041915	-0.000262377
 155	-0.000274456	0.000857102	-0.000480197
 156	-4.33192e-05	-0.00029884	-0.000699533
 157	7.30389e-05	-0.000239311	0.000499431
 158	0.000148214	-0.000137919	0.000528859
 159	0.000204686	-0.000127892	0.000601985
 160	-4.88035e-05	-0.000366172	0.000616686
 161	0.000328674	-0.000283498	0.000579293
 162	0.000346151	9.74393e-05	0.00051432
 163	-9.85843e-05	-0.000296904	-0.000425708
 164	4.15224e-05	-0.000130617	-3.33621e-07
 165	-0.00092218	-0.000353876	-0.000794732
 166	0.000405574	-0.000817596	-0.000861863
 167	0.00026584	0.000150112	-0.000219307
 168	-0.000151383	-0.000254837	-5.10383e-05
 169	-0.000354932	0.000193417	-0.000274792
 170	9.92263e-06	0.000347866	0.000186593
 171	-0.00032918	-7.04187e-05	-0.00039797
 172	-0.000351032	0.000153397	-0.00029419
 173	0.0011466	0.000107286	0.000574303
 174	-0.000445035	0.000993659	0.00098751
 175	-5.70059e-05	9.85849e-05	-0.000366349
 176	-0.000497494	0.000564835	-0.000669559
 177	4.10584e-05	-0.000184869	-0.000706634
 178	-0.000161039	0.000404595	-0.000124633
 179	-0.00149136	0.000449093	-0.000909566
 180	-0.000252914	0.00140599	-0.00112222
 181	0.000168631	-0.000125815	0.000458547
 182	0.000539108	-0.000141246	-9.27445e-05
 183	-0.000463521	-0.000187961	0.00129425
 184	0.000633297	0.000836886	0.000555043
 185	0.000675721	-0.000121744	-0.000626181
 186	0.0010197	-0.000342381	7.97698e-05
 187	-0.000153913	-0.000804608	-0.000109285
 188	3.78738e-06	-0.00108726	8.06764e-05
 189	-0.000784309	-0.00105895	-0.000102854
 190	0.000480576	-0.0011172	-0.000202716
 191	0.000635591	-0.00154092	0.000456001
 192	-0.000414834	-0.00159301	-4.02709e-05
 193	1.89229e-05	-0.000676333	-0.000112906
 194	-4.85487e-05	-1.73061e-05	-0.000567542

Bonds

   1	4	1	2
   2	1	1	3
   3	1	1	4
   4	2	2	5
   5	2	2	6
   6	4	7	8
   7	1	7	9
   8	1	7	10
   9	2	8	11
  10	2	8	12
  11	4	1	8
  12	4	13	14
  13	1	13	15
  14	1	13	16
  15	2	14	17
  16	2	14	18
  17	4	7	14
  18	4	19	20
  19	1	19	21
  20	1	19	22
  21	2	20	23
  22	2	20	24
  23	4	13	20
  24	4	25	26
  25	1	25	27
  26	1	25	28
  27	2	26	29
  28	2	26	30
  29	4	19	26
  30	4	31	32
  31	1	31	33
  32	1	31	34
  33	2	32	35
  34	2	32	36
  35	4	25	32
  36	4	37	38
  37	1	37	39
  38	1	37	40
  39	2	38	41
  40	2	38	42
  41	4	31	38
  42	4	43	44
  43	1	43	45
  44	1	43	46
  45	2	44	47
  46	2	44	48
  47	4	37	44
  48	4	49	50
  49	1	49	51
  50	1	49	52
  51	2	50	53
  52	2	50	54
  53	4	43	50
  54	4	55	56
  55	1	55	57
  56	1	55	58
  57	2	56	59
  58	2	56	60
  59	4	49	56
  60	4	61	62
  61	1	61	63
  62	1	61	64
  63	2	62	65
  64	2	62	66
  65	4	55	62
  66	4	67	68
  67	1	67	69
  68	1	67	70
  69	2	68	71
  70	2	68	72
  71	4	61	68
  72	4	73	74
  73	1	73	75
  74	1	73	76
  75	2	74	77
  76	2	74	78
  77	4	67	74
  78	4	79	80
  79	1	79	81
  80	1	79	82
  81	2	80	83
  82	2	80	84
  83	4	73	80
  84	4	85	86
  85	1	85	87
  86	1	85	88
  87	2	86	89
  88	2	86	90
  89	4	79	86
  90	4	91	92
  91	1	91	93
  92	1	91	94
  93	2	92	95
  94	2	92	96
  95	4	85	92
  96	4	97	98
  97	1	97	99
  98	1	97	100
  99	2	98	101
 100	2	98	102
 101	4	91	98
 102	4	103	104
 103	1	103	105
 104	1	103	106
 105	2	104	107
 106	2	104	108
 107	4	97	104
 108	4	109	110
 109	1	109	111
 110	1	109	112
 111	2	110	113
 112	2	110	114
 113	4	103	110
 114	4	115	116
 115	1	115	117
 116	1	115	118
 117	2	116	119
 118	2	116	120
 119	4	109	116
 120	4	121	122
 121	1	121	123
 122	1	121	124
 123	2	122	125
 124	2	122	126
 125	4	115	122
 126	4	127	128
 127	1	127	129
 128	1	127	130
 129	2	128	131
 130	2	128	132
 131	4	121	128
 132	4	133	134
 133	1	133	135
 134	1	133	136
 135	2	134	137
 136	2	134	138
 137	4	127	134
 138	4	139	140
 139	1	139	141
 140	1	139	142
 141	2	140	143
 142	2	140	144
 143	4	133	140
 144	4	145	146
 145	1	145	147
 146	1	145	148
 147	2	146	149
 148	2	146	150
 149	4	139	146
 150	4	151	152
 151	1	151	153
 152	1	151	154
 153	2	152	155
 154	2	152	156
 155	4	145	152
 156	4	157	158
 157	1	157	159
 158	1	157	160
 159	2	158	161
 160	2	158	162
 161	4	151	158
 162	4	163	164
 163	1	163	165
 164	1	163	166
 165	2	164	167
 166	2	164	168
 167	4	157	164
 168	4	169	170
 169	1	169	171
 170	1	169	172
 171	2	170	173
 172	2	170	174
 173	4	163	170
 174	4	175	176
 175	1	175	177
 176	1	175	178
 177	2	176	179
 178	2	176	180
 179	4	169	176
 180	4	181	182
 181	1	181	183
 182	1	181	184
 183	2	182	185
 184	2	182	186
 185	4	175	182
 186	4	187	188
 187	1	187	189
 188	1	187	190
 189	2	188	191
 190	2	188	192
 191	4	181	188
 192	3	2	193
 193	1	187	194

Angles

   1	2	2	1	3
   2	2	2	1	4
   3	4	3	1	4
   4	3	1	2	5
   5	3	1	2	6
   6	6	5	2	6
   7	2	8	7	9
   8	2	8	7	10
   9	4	9	7	10
  10	3	7	8	11
  11	3	7	8	12
  12	6	11	8	12
  13	7	2	1	8
  14	2	3	1	8
  15	2	4	1	8
  16	7	1	8	7
  17	3	1	8	11
  18	3	1	8	12
  19	2	14	13	15
  20	2	14	13	16
  21	4	15	13	16
  22	3	13	14	17
  23	3	13	14	18
  24	6	17	14	18
  25	7	8	7	14
  26	2	9	7	14
  27	2	10	7	14
  28	7	7	14	13
  29	3	7	14	17
  30	3	7	14	18
  31	2	20	19	21
  32	2	20	19	22
  33	4	21	19	22
  34	3	19	20	23
  35	3	19	20	24
  36	6	23	20	24
  37	7	14	13	20
  38	2	15	13	20
  39	2	16	13	20
  40	7	13	20	19
  41	3	13	20	23
  42	3	13	20	24
  43	2	26	25	27
  44	2	26	25	28
  45	4	27	25	28
  46	3	25	26	29
  47	3	25	26	30
  48	6	29	26	30
  49	7	20	19	26
  50	2	21	19	26
  51	2	22	19	26
  52	7	19	26	25
  53	3	19	26	29
  54	3	19	26	30
  55	2	32	31	33
  56	2	32	31	34
  57	4	33	31	34
  58	3	31	32	35
  59	3	31	32	36
  60	6	35	32	36
  61	7	26	25	32
  62	2	27	25	32
  63	2	28	25	32
  64	7	25	32	31
  65	3	25	32	35
  66	3	25	32	36
  67	2	38	37	39
  68	2	38	37	40
  69	4	39	37	40
  70	3	37	38	41
  71	3	37	38	42
  72	6	41	38	42
  73	7	32	31	38
  74	2	33	31	38
  75	2	34	31	38
  76	7	31	38	37
  77	3	31	38	41
  78	3	31	38	42
  79	2	44	43	45
  80	2	44	43	46
  81	4	45	43	46
  82	3	43	44	47
  83	3	43	44	48
  84	6	47	44	48
  85	7	38	37	44
  86	2	39	37	44
  87	2	40	37	44
  88	7	37	44	43
  89	3	37	44	47
  90	3	37	44	48
  91	2	50	49	51
  92	2	50	49	52
  93	4	51	49	52
  94	3	49	50	53
  95	3	49	50	54
  96	6	53	50	54
  97	7	44	43	50
  98	2	45	43	50
  99	2	46	43	50
 100	7	43	50	49
 101	3	43	50	53
 102	3	43	50	54
 103	2	56	55	57
 104	2	56	55	58
 105	4	57	55	58
 106	3	55	56	59
 107	3	55	56	60
 108	6	59	56	60
 109	7	50	49	56
 110	2	51	49	56
 111	2	52	49	56
 112	7	49	56	55
 113	3	49	56	59
 114	3	49	56	60
 115	2	62	61	63
 116	2	62	61	64
 117	4	63	61	64
 118	3	61	62	65
 119	3	61	62	66
 120	6	65	62	66
 121	7	56	55	62
 122	2	57	55	62
 123	2	58	55	62
 124	7	55	62	61
 125	3	55	62	65
 126	3	55	62	66
 127	2	68	67	69
 128	2	68	67	70
 129	4	69	67	70
 130	3	67	68	71
 131	3	67	68	72
 132	6	71	68	72
 133	7	62	61	68
 134	2	63	61	68
 135	2	64	61	68
 136	7	61	68	67
 137	3	61	68	71
 138	3	61	68	72
 139	2	74	73	75
 140	2	74	73	76
 141	4	75	73	76
 142	3	73	74	77
 143	3	73	74	78
 144	6	77	74	78
 145	7	68	67	74
 146	2	69	67	74
 147	2	70	67	74
 148	7	67	74	73
 149	3	67	74	77
 150	3	67	74	78
 151	2	80	79	81
 152	2	80	79	82
 153	4	81	79	82
 154	3	79	80	83
 155	3	79	80	84
 156	6	83	80	84
 157	7	74	73	80
 158	2	75	73	80
 159	2	76	73	80
 160	7	73	80	79
 161	3	73	80	83
 162	3	73	80	84
 163	2	86	85	87
 164	2	86	85	88
 165	4	87	85	88
 166	3	85	86	89
 167	3	85	86	90
 168	6	89	86	90
 169	7	80	79	86
 170	2	81	79	86
 171	2	82	79	86
 172	7	79	86	85
 173	3	79	86	89
 174	3	79	86	90
 175	2	92	91	93
 176	2	92	91	94
 177	4	93	91	94
 178	3	91	92	95
 179	3	91	92	96
 180	6	95	92	96
 181	7	86	85	92
 182	2	87	85	92
 183	2	88	85	92
 184	7	85	92	91
 185	3	85	92	95
 186	3	85	92	96
 187	2	98	97	99
 188	2	98	97	100
 189	4	99	97	100
 190	3	97	98	101
 191	3	97	98	102
 192	6	101	98	102
 193	7	92	91	98
 194	2	93	91	98
 195	2	94	91	98
 196	7	91	98	97
 197	3	91	98	101
 198	3	91	98	102
 199	2	104	103	105
 200	2	104	103	106
 201	4	105	103	106
 202	3	103	104	107
 203	3	103	104	108
 204	6	107	104	108
 205	7	98	97	104
 206	2	99	97	104
 207	2	100	97	104
 208	7	97	104	103
 209	3	97	104	107
 210	3	97	104	108
 211	2	110	109	111
 212	2	110	109	112
 213	4	111	109	112
 214	3	109	110	113
 215	3	109	110	114
 216	6	113	110	114
 217	7	104	103	110
 218	2	105	103	110
 219	2	106	103	110
 220	7	103	110	109
 221	3	103	110	113
 222	3	103	110	114
 223	2	116	115	117
 224	2	116	115	118
 225	4	117	115	118
 226	3	115	116	119
 227	3	115	116	120
 228	6	119	116	120
 229	7	110	109	116
 230	2	111	109	116
 231	2	112	109	116
 232	7	109	116	115
 233	3	109	116	119
 234	3	109	116	120
 235	2	122	121	123
 236	2	122	121	124
 237	4	123	121	124
 238	3	121	122	125
 239	3	121	122	126
 240	6	125	122	126
 241	7	116	115	122
 242	2	117	115	122
 243	2	118	115	122
 244	7	115	122	121
 245	3	115	122	125
 246	3	115	122	126
 247	2	128	127	129
 248	2	128	127	130
 249	4	129	127	130
 250	3	127	128	131
 251	3	127	128	132
 252	6	131	128	132
 253	7	122	121	128
 254	2	123	121	128
 255	2	124	121	128
 256	7	121	128	127
 257	3	121	128	131
 258	3	121	128	132
 259	2	134	133	135
 260	2	134	133	136
 261	4	135	133	136
 262	3	133	134	137
 263	3	133	134	138
 264	6	137	134	138
 265	7	128	127	134
 266	2	129	127	134
 267	2	130	127	134
 268	7	127	134	133
 269	3	127	134	137
 270	3	127	134	138
 271	2	140	139	141
 272	2	140	139	142
 273	4	141	139	142
 274	3	139	140	143
 275	3	139	140	144
 276	6	143	140	144
 277	7	134	133	140
 278	2	135	133	140
 279	2	136	133	140
 280	7	133	140	139
 281	3	133	140	143
 282	3	133	140	144
 283	2	146	145	147
 284	2	146	145	148
 285	4	147	145	148
 286	3	145	146	149
 287	3	145	146	150
 288	6	149	146	150
 289	7	140	139	146
 290	2	141	139	146
 291	2	142	139	146
 292	7	139	146	145
 293	3	139	146	149
 294	3	139	146	150
 295	2	152	151	153
 296	2	152	151	154
 297	4	153	151	154
 298	3	151	152	155
 299	3	151	152	156
 300	6	155	152	156
 301	7	146	145	152
 302	2	147	145	152
 303	2	148	145	152
 304	7	145	152	151
 305	3	145	152	155
 306	3	145	152	156
 307	2	158	157	159
 308	2	158	157	160
 309	4	159	157	160
 310	3	157	158	161
 311	3	157	158	162
 312	6	161	158	162
 313	7	152	151	158
 314	2	153	151	158
 315	2	154	151	158
 316	7	151	158	157
 317	3	151	158	161
 318	3	151	158	162
 319	2	164	163	165
 320	2	164	163	166
 321	4	165	163	166
 322	3	163	164	167
 323	3	163	164	168
 324	6	167	164	168
 325	7	158	157	164
 326	2	159	157	164
 327	2	160	157	164
 328	7	157	164	163
 329	3	157	164	167
 330	3	157	164	168
 331	2	170	169	171
 332	2	170	169	172
 333	4	171	169	172
 334	3	169	170	173
 335	3	169	170	174
 336	6	173	170	174
 337	7	164	163	170
 338	2	165	163	170
 339	2	166	163	170
 340	7	163	170	169
 341	3	163	170	173
 342	3	163	170	174
 343	2	176	175	177
 344	2	176	175	178
 345	4	177	175	178
 346	3	175	176	179
 347	3	175	176	180
 348	6	179	176	180
 349	7	170	169	176
 350	2	171	169	176
 351	2	172	169	176
 352	7	169	176	175
 353	3	169	176	179
 354	3	169	176	180
 355	2	182	181	183
 356	2	182	181	184
 357	4	183	181	184
 358	3	181	182	185
 359	3	181	182	186
 360	6	185	182	186
 361	7	176	175	182
 362	2	177	175	182
 363	2	178	175	182
 364	7	175	182	181
 365	3	175	182	185
 366	3	175	182	186
 367	2	188	187	189
 368	2	188	187	190
 369	4	189	187	190
 370	3	187	188	191
 371	3	187	188	192
 372	6	191	188	192
 373	7	182	181	188
 374	2	183	181	188
 375	2	184	181	188
 376	7	181	188	187
 377	3	181	188	191
 378	3	181	188	192
 379	5	1	2	193
 380	1	5	2	193
 381	1	6	2	193
 382	2	188	187	194
 383	4	189	187	194
 384	4	190	187	194

Dihedrals

   1	1	3	1	2	5
   2	1	3	1	2	6
   3	1	4	1	2	5
   4	1	4	1	2	6
   5	1	9	7	8	11
   6	1	9	7	8	12
   7	1	10	7	8	11
   8	1	10	7	8	12
   9	2	5	2	1	8
  10	2	6	2	1	8
  11	3	1	8	7	9
  12	3	1	8	7	10
  13	4	2	1	8	7
  14	2	2	1	8	11
  15	2	2	1	8	12
  16	3	3	1	8	7
  17	1	3	1	8	11
  18	1	3	1	8	12
  19	3	4	1	8	7
  20	1	4	1	8	11
  21	1	4	1	8	12
  22	1	15	13	14	17
  23	1	15	13	14	18
  24	1	16	13	14	17
  25	1	16	13	14	18
  26	2	11	8	7	14
  27	2	12	8	7	14
  28	4	1	8	7	14
  29	3	7	14	13	15
  30	3	7	14	13	16
  31	4	8	7	14	13
  32	2	8	7	14	17
  33	2	8	7	14	18
  34	3	9	7	14	13
  35	1	9	7	14	17
  36	1	9	7	14	18
  37	3	10	7	14	13
  38	1	10	7	14	17
  39	1	10	7	14	18
  40	1	21	19	20	23
  41	1	21	19	20	24
  42	1	22	19	20	23
  43	1	22	19	20	24
  44	2	17	14	13	20
  45	2	18	14	13	20
  46	4	7	14	13	20
  47	3	13	20	19	21
  48	3	13	20	19	22
  49	4	14	13	20	19
  50	2	14	13	20	23
  51	2	14	13	20	24
  52	3	15	13	20	19
  53	1	15	13	20	23
  54	1	15	13	20	24
  55	3	16	13	20	19
  56	1	16	13	20	23
  57	1	16	13	20	24
  58	1	27	25	26	29
  59	1	27	25	26	30
  60	1	28	25	26	29
  61	1	28	25	26	30
  62	2	23	20	19	26
  63	2	24	20	19	26
  64	4	13	20	19	26
  65	3	19	26	25	27
  66	3	19	26	25	28
  67	4	20	19	26	25
  68	2	20	19	26	29
  69	2	20	19	26	30
  70	3	21	19	26	25
  71	1	21	19	26	29
  72	1	21	19	26	30
  73	3	22	19	26	25
  74	1	22	19	26	29
  75	1	22	19	26	30
  76	1	33	31	32	35
  77	1	33	31	32	36
  78	1	34	31	32	35
  79	1	34	31	32	36
  80	2	29	26	25	32
  81	2	30	26	25	32
  82	4	19	26	25	32
  83	3	25	32	31	33
  84	3	25	32	31	34
  85	4	26	25	32	31
  86	2	26	25	32	35
  87	2	26	25	32	36
  88	3	27	25	32	31
  89	1	27	25	32	35
  90	1	27	25	32	36
  91	3	28	25	32	31
  92	1	28	25	32	35
  93	1	28	25	32	36
  94	1	39	37	38	41
  95	1	39	37	38	42
  96	1	40	37	38	41
  97	1	40	37	38	42
  98	2	35	32	31	38
  99	2	36	32	31	38
 100	4	25	32	31	38
 101	3	31	38	37	39
 102	3	31	38	37	40
 103	4	32	31	38	37
 104	2	32	31	38	41
 105	2	32	31	38	42
 106	3	33	31	38	37
 107	1	33	31	38	41
 108	1	33	31	38	42
 109	3	34	31	38	37
 110	1	34	31	38	41
 111	1	34	31	38	42
 112	1	45	43	44	47
 113	1	45	43	44	48
 114	1	46	43	44	47
 115	1	46	43	44	48
 116	2	41	38	37	44
 117	2	42	38	37	44
 118	4	31	38	37	44
 119	3	37	44	43	45
 120	3	37	44	43	46
 121	4	38	37	44	43
 122	2	38	37	44	47
 123	2	38	37	44	48
 124	3	39	37	44	43
 125	1	39	37	44	47
 126	1	39	37	44	48
 127	3	40	37	44	43
 128	1	40	37	44	47
 129	1	40	37	44	48
 130	1	51	49	50	53
 131	1	51	49	50	54
 132	1	52	49	50	53
 133	1	52	49	50	54
 134	2	47	44	43	50
 135	2	48	44	43	50
 136	4	37	44	43	50
 137	3	43	50	49	51
 138	3	43	50	49	52
 139	4	44	43	50	49
 140	2	44	43	50	53
 141	2	44	43	50	54
 142	3	45	43	50	49
 143	1	45	43	50	53
 144	1	45	43	50	54
 145	3	46	43	50	49
 146	1	46	43	50	53
 147	1	46	43	50	54
 148	1	57	55	56	59
 149	1	57	55	56	60
 150	1	58	55	56	59
 151	1	58	55	56	60
 152	2	53	50	49	56
 153	2	54	50	49	56
 154	4	43	50	49	56
 155	3	49	56	55	57
 156	3	49	56	55	58
 157	4	50	49	56	55
 158	2	50	49	56	59
 159	2	50	49	56	60
 160	3	51	49	56	55