

################################################################################
##################################    Init    ##################################
################################################################################
units           real
atom_style      full
pair_style      lj/cut/coul/long 12.0  12.0
kspace_style    pppm 1e-4
bond_style      harmonic
angle_style     harmonic
dihedral_style  fourier
special_bonds   amber
pair_modify     mix arithmetic
read_data       temp.lmps
  orthogonal box = (-51.0402 -51.0402 -51.0402) to (51.0402 51.0402 51.0402)
  1 by 1 by 1 MPI processor grid
  reading atoms ...
  12 atoms
  reading velocities ...
  12 velocities
  scanning bonds ...
  4 = max bonds/atom
  scanning angles ...
  6 = max angles/atom
  scanning dihedrals ...
  13 = max dihedrals/atom
  reading bonds ...
  11 bonds
  reading angles ...
  18 angles
  reading dihedrals ...
  21 dihedrals
  4 = max # of 1-2 neighbors
  5 = max # of 1-3 neighbors
  8 = max # of 1-4 neighbors
  11 = max # of special neighbors
  special bonds CPU = 0.000217915 secs
  read_data CPU = 0.00344992 secs
################################################################################

timestep        1
fix             pysimm_md all nve/limit 0.1
run             2000
PPPM initialization ...
  using 12-bit tables for long-range coulomb (../kspace.cpp:332)
  G vector (1/distance) = 0.0612487
  grid = 5 5 5
  stencil order = 5
  estimated absolute RMS force accuracy = 0.0365447
  estimated relative force accuracy = 0.000110053
  using double precision KISS FFT
  3d grid and FFT values/proc = 1000 125
Neighbor list info ...
  update every 1 steps, delay 10 steps, check yes
  max neighbors/atom: 2000, page size: 100000
  master list distance cutoff = 14
  ghost atom cutoff = 14
  binsize = 7, bins = 15 15 15
  1 neighbor lists, perpetual/occasional/extra = 1 0 0
  (1) pair lj/cut/coul/long, perpetual
      attributes: half, newton on
      pair build: half/bin/newton
      stencil: half/bin/3d/newton
      bin: standard
Per MPI rank memory allocation (min/avg/max) = 13.15 | 13.15 | 13.15 Mbytes
Step Temp E_pair E_mol TotEng Press 
       0 0.00018457868    185.31461 7.419326e+24 7.419326e+24 8.9253377e+32 
    2000    1977.3705   -11.205374    24.851193    78.481645    4.4123365 
Loop time of 0.0893531 on 1 procs for 2000 steps with 12 atoms

Performance: 1933.901 ns/day, 0.012 hours/ns, 22383.111 timesteps/s
100.7% CPU use with 1 MPI tasks x no OpenMP threads

MPI task timing breakdown:
Section |  min time  |  avg time  |  max time  |%varavg| %total
---------------------------------------------------------------
Pair    | 0.0046575  | 0.0046575  | 0.0046575  |   0.0 |  5.21
Bond    | 0.0075228  | 0.0075228  | 0.0075228  |   0.0 |  8.42
Kspace  | 0.073867   | 0.073867   | 0.073867   |   0.0 | 82.67
Neigh   | 0.00090575 | 0.00090575 | 0.00090575 |   0.0 |  1.01
Comm    | 0.00044608 | 0.00044608 | 0.00044608 |   0.0 |  0.50
Output  | 1.4067e-05 | 1.4067e-05 | 1.4067e-05 |   0.0 |  0.02
Modify  | 0.00076652 | 0.00076652 | 0.00076652 |   0.0 |  0.86
Other   |            | 0.001174   |            |       |  1.31

Nlocal:    12 ave 12 max 12 min
Histogram: 1 0 0 0 0 0 0 0 0 0
Nghost:    0 ave 0 max 0 min
Histogram: 1 0 0 0 0 0 0 0 0 0
Neighs:    66 ave 66 max 66 min
Histogram: 1 0 0 0 0 0 0 0 0 0

Total # of neighbors = 66
Ave neighs/atom = 5.5
Ave special neighs/atom = 8.33333
Neighbor list builds = 89
Dangerous builds = 0
unfix pysimm_md
min_style cg
minimize 0.001 0.001 10000 100000
WARNING: Using 'neigh_modify every 1 delay 0 check yes' setting during minimization (../min.cpp:190)
PPPM initialization ...
  using 12-bit tables for long-range coulomb (../kspace.cpp:332)
  G vector (1/distance) = 0.0612487
  grid = 5 5 5
  stencil order = 5
  estimated absolute RMS force accuracy = 0.0365447
  estimated relative force accuracy = 0.000110053
  using double precision KISS FFT
  3d grid and FFT values/proc = 1000 125
Per MPI rank memory allocation (min/avg/max) = 14.27 | 14.27 | 14.27 Mbytes
Step Temp E_pair E_mol TotEng Press 
    2000    1977.3705   -11.205374    24.851193    78.481645    4.4123365 
    2020    1977.3705   -16.560428    3.4986196    51.774017    2.8213555 
Loop time of 0.00205517 on 1 procs for 20 steps with 12 atoms

97.3% CPU use with 1 MPI tasks x no OpenMP threads

Minimization stats:
  Stopping criterion = energy tolerance
  Energy initial, next-to-last, final = 
         13.6458190325      -13.053987499     -13.0618088011
  Force two-norm initial, final = 200.842 3.12129
  Force max component initial, final = 137.348 1.09854
  Final line search alpha, max atom move = 0.0492539 0.0541074
  Iterations, force evaluations = 20 41

MPI task timing breakdown:
Section |  min time  |  avg time  |  max time  |%varavg| %total
---------------------------------------------------------------
Pair    | 0.00016117 | 0.00016117 | 0.00016117 |   0.0 |  7.84
Bond    | 0.00018787 | 0.00018787 | 0.00018787 |   0.0 |  9.14
Kspace  | 0.0016117  | 0.0016117  | 0.0016117  |   0.0 | 78.42
Neigh   | 0          | 0          | 0          |   0.0 |  0.00
Comm    | 2.0742e-05 | 2.0742e-05 | 2.0742e-05 |   0.0 |  1.01
Output  | 0          | 0          | 0          |   0.0 |  0.00
Modify  | 0          | 0          | 0          |   0.0 |  0.00
Other   |            | 7.367e-05  |            |       |  3.58

Nlocal:    12 ave 12 max 12 min
Histogram: 1 0 0 0 0 0 0 0 0 0
Nghost:    0 ave 0 max 0 min
Histogram: 1 0 0 0 0 0 0 0 0 0
Neighs:    66 ave 66 max 66 min
Histogram: 1 0 0 0 0 0 0 0 0 0

Total # of neighbors = 66
Ave neighs/atom = 5.5
Ave special neighs/atom = 8.33333
Neighbor list builds = 0
Dangerous builds = 0
write_dump all custom pysimm.dump.tmp id q x y z vx vy vz
quit


################################################################################
##################################    Init    ##################################
################################################################################
units           real
atom_style      full
pair_style      lj/cut/coul/long 12.0  12.0
kspace_style    pppm 1e-4
bond_style      harmonic
angle_style     harmonic
dihedral_style  fourier
special_bonds   amber
pair_modify     mix arithmetic
read_data       temp.lmps
  orthogonal box = (-51.0402 -51.0402 -51.0402) to (51.0402 51.0402 51.0402)
  1 by 1 by 1 MPI processor grid
  reading atoms ...
  18 atoms
  reading velocities ...
  18 velocities
  scanning bonds ...
  4 = max bonds/atom
  scanning angles ...
  6 = max angles/atom
  scanning dihedrals ...
  13 = max dihedrals/atom
  reading bonds ...
  17 bonds
  reading angles ...
  30 angles
  reading dihedrals ...
  39 dihedrals
  4 = max # of 1-2 neighbors
  6 = max # of 1-3 neighbors
  11 = max # of 1-4 neighbors
  15 = max # of special neighbors
  special bonds CPU = 0.00023818 secs
  read_data CPU = 0.00341702 secs
################################################################################

timestep        1
fix             pysimm_md all nve/limit 0.1
run             2000
PPPM initialization ...
  using 12-bit tables for long-range coulomb (../kspace.cpp:332)
  G vector (1/distance) = 0.0712523
  grid = 6 6 6
  stencil order = 5
  estimated absolute RMS force accuracy = 0.0369807
  estimated relative force accuracy = 0.000111366
  using double precision KISS FFT
  3d grid and FFT values/proc = 1331 216
Neighbor list info ...
  update every 1 steps, delay 10 steps, check yes
  max neighbors/atom: 2000, page size: 100000
  master list distance cutoff = 14
  ghost atom cutoff = 14
  binsize = 7, bins = 15 15 15
  1 neighbor lists, perpetual/occasional/extra = 1 0 0
  (1) pair lj/cut/coul/long, perpetual
      attributes: half, newton on
      pair build: half/bin/newton
      stencil: half/bin/3d/newton
      bin: standard
Per MPI rank memory allocation (min/avg/max) = 13.42 | 13.42 | 13.42 Mbytes
Step Temp E_pair E_mol TotEng Press 
       0    1279.4769    471.99485 2.1138634e+23 2.1138634e+23 -1.1156672e+32 
    2000    1312.6959   -31.667487    76.410346    111.26211    -2.495196 
Loop time of 0.152931 on 1 procs for 2000 steps with 18 atoms

Performance: 1129.920 ns/day, 0.021 hours/ns, 13077.775 timesteps/s
100.0% CPU use with 1 MPI tasks x no OpenMP threads

MPI task timing breakdown:
Section |  min time  |  avg time  |  max time  |%varavg| %total
---------------------------------------------------------------
Pair    | 0.010044   | 0.010044   | 0.010044   |   0.0 |  6.57
Bond    | 0.013165   | 0.013165   | 0.013165   |   0.0 |  8.61
Kspace  | 0.125      | 0.125      | 0.125      |   0.0 | 81.74
Neigh   | 0.0013978  | 0.0013978  | 0.0013978  |   0.0 |  0.91
Comm    | 0.00066471 | 0.00066471 | 0.00066471 |   0.0 |  0.43
Output  | 2.8849e-05 | 2.8849e-05 | 2.8849e-05 |   0.0 |  0.02
Modify  | 0.00096273 | 0.00096273 | 0.00096273 |   0.0 |  0.63
Other   |            | 0.001668   |            |       |  1.09

Nlocal:    18 ave 18 max 18 min
Histogram: 1 0 0 0 0 0 0 0 0 0
Nghost:    18 ave 18 max 18 min
Histogram: 1 0 0 0 0 0 0 0 0 0
Neighs:    153 ave 153 max 153 min
Histogram: 1 0 0 0 0 0 0 0 0 0

Total # of neighbors = 153
Ave neighs/atom = 8.5
Ave special neighs/atom = 9.55556
Neighbor list builds = 87
Dangerous builds = 0
unfix pysimm_md
min_style cg
minimize 0.001 0.001 10000 100000
WARNING: Using 'neigh_modify every 1 delay 0 check yes' setting during minimization (../min.cpp:190)
PPPM initialization ...
  using 12-bit tables for long-range coulomb (../kspace.cpp:332)
  G vector (1/distance) = 0.0712523
  grid = 6 6 6
  stencil order = 5
  estimated absolute RMS force accuracy = 0.0369807
  estimated relative force accuracy = 0.000111366
  using double precision KISS FFT
  3d grid and FFT values/proc = 1331 216
Per MPI rank memory allocation (min/avg/max) = 14.54 | 14.54 | 14.54 Mbytes
Step Temp E_pair E_mol TotEng Press 
    2000    1312.6959   -31.667487    76.410346    111.26211    -2.495196 
    2035    1312.6959   -32.371981    8.4022764    42.549549    2.6728624 
Loop time of 0.00594711 on 1 procs for 35 steps with 18 atoms

100.9% CPU use with 1 MPI tasks x no OpenMP threads

Minimization stats:
  Stopping criterion = energy tolerance
  Energy initial, next-to-last, final = 
         44.7428590559     -23.9465703642     -23.9697049962
  Force two-norm initial, final = 286.262 5.37729
  Force max component initial, final = 122.372 2.33693
  Final line search alpha, max atom move = 0.0147801 0.03454
  Iterations, force evaluations = 35 69

MPI task timing breakdown:
Section |  min time  |  avg time  |  max time  |%varavg| %total
---------------------------------------------------------------
Pair    | 0.00060582 | 0.00060582 | 0.00060582 |   0.0 | 10.19
Bond    | 0.00052595 | 0.00052595 | 0.00052595 |   0.0 |  8.84
Kspace  | 0.0046232  | 0.0046232  | 0.0046232  |   0.0 | 77.74
Neigh   | 0          | 0          | 0          |   0.0 |  0.00
Comm    | 4.1008e-05 | 4.1008e-05 | 4.1008e-05 |   0.0 |  0.69
Output  | 0          | 0          | 0          |   0.0 |  0.00
Modify  | 0          | 0          | 0          |   0.0 |  0.00
Other   |            | 0.0001512  |            |       |  2.54

Nlocal:    18 ave 18 max 18 min
Histogram: 1 0 0 0 0 0 0 0 0 0
Nghost:    18 ave 18 max 18 min
Histogram: 1 0 0 0 0 0 0 0 0 0
Neighs:    153 ave 153 max 153 min
Histogram: 1 0 0 0 0 0 0 0 0 0

Total # of neighbors = 153
Ave neighs/atom = 8.5
Ave special neighs/atom = 9.55556
Neighbor list builds = 0
Dangerous builds = 0
write_dump all custom pysimm.dump.tmp id q x y z vx vy vz
quit


################################################################################
##################################    Init    ##################################
################################################################################
units           real
atom_style      full
pair_style      lj/cut/coul/long 12.0  12.0
kspace_style    pppm 1e-4
bond_style      harmonic
angle_style     harmonic
dihedral_style  fourier
special_bonds   amber
pair_modify     mix arithmetic
read_data       temp.lmps
  orthogonal box = (-51.0402 -51.0402 -51.0402) to (51.0402 51.0402 51.0402)
  1 by 1 by 1 MPI processor grid
  reading atoms ...
  24 atoms
  reading velocities ...
  24 velocities
  scanning bonds ...
  4 = max bonds/atom
  scanning angles ...
  6 = max angles/atom
  scanning dihedrals ...
  13 = max dihedrals/atom
  reading bonds ...
  23 bonds
  reading angles ...
  42 angles
  reading dihedrals ...
  57 dihedrals
  4 = max # of 1-2 neighbors
  6 = max # of 1-3 neighbors
  12 = max # of 1-4 neighbors
  16 = max # of special neighbors
  special bonds CPU = 0.000262022 secs
  read_data CPU = 0.00345492 secs
################################################################################

timestep        1
fix             pysimm_md all nve/limit 0.1
run             2000
PPPM initialization ...
  using 12-bit tables for long-range coulomb (../kspace.cpp:332)
  G vector (1/distance) = 0.0892896
  grid = 8 8 8
  stencil order = 5
  estimated absolute RMS force accuracy = 0.0281418
  estimated relative force accuracy = 8.47481e-05
  using double precision KISS FFT
  3d grid and FFT values/proc = 2197 512
Neighbor list info ...
  update every 1 steps, delay 10 steps, check yes
  max neighbors/atom: 2000, page size: 100000
  master list distance cutoff = 14
  ghost atom cutoff = 14
  binsize = 7, bins = 15 15 15
  1 neighbor lists, perpetual/occasional/extra = 1 0 0
  (1) pair lj/cut/coul/long, perpetual
      attributes: half, newton on
      pair build: half/bin/newton
      stencil: half/bin/3d/newton
      bin: standard
Per MPI rank memory allocation (min/avg/max) = 13.54 | 13.54 | 13.54 Mbytes
Step Temp E_pair E_mol TotEng Press 
       0    970.25455    501.78748 7.0768542e+24 7.0768542e+24 5.7122161e+34 
    2000    975.60387   -40.757243    96.488673     122.6175   -3.7703319 
Loop time of 0.30196 on 1 procs for 2000 steps with 24 atoms

Performance: 572.261 ns/day, 0.042 hours/ns, 6623.394 timesteps/s
100.0% CPU use with 1 MPI tasks x no OpenMP threads

MPI task timing breakdown:
Section |  min time  |  avg time  |  max time  |%varavg| %total
---------------------------------------------------------------
Pair    | 0.017942   | 0.017942   | 0.017942   |   0.0 |  5.94
Bond    | 0.019259   | 0.019259   | 0.019259   |   0.0 |  6.38
Kspace  | 0.25836    | 0.25836    | 0.25836    |   0.0 | 85.56
Neigh   | 0.0020041  | 0.0020041  | 0.0020041  |   0.0 |  0.66
Comm    | 0.001014   | 0.001014   | 0.001014   |   0.0 |  0.34
Output  | 1.6928e-05 | 1.6928e-05 | 1.6928e-05 |   0.0 |  0.01
Modify  | 0.0014431  | 0.0014431  | 0.0014431  |   0.0 |  0.48
Other   |            | 0.001921   |            |       |  0.64

Nlocal:    24 ave 24 max 24 min
Histogram: 1 0 0 0 0 0 0 0 0 0
Nghost:    2 ave 2 max 2 min
Histogram: 1 0 0 0 0 0 0 0 0 0
Neighs:    276 ave 276 max 276 min
Histogram: 1 0 0 0 0 0 0 0 0 0

Total # of neighbors = 276
Ave neighs/atom = 11.5
Ave special neighs/atom = 10.1667
Neighbor list builds = 96
Dangerous builds = 0
unfix pysimm_md
min_style cg
minimize 0.001 0.001 10000 100000
WARNING: Using 'neigh_modify every 1 delay 0 check yes' setting during minimization (../min.cpp:190)
PPPM initialization ...
  using 12-bit tables for long-range coulomb (../kspace.cpp:332)
  G vector (1/distance) = 0.0892896
  grid = 8 8 8
  stencil order = 5
  estimated absolute RMS force accuracy = 0.0281418
  estimated relative force accuracy = 8.47481e-05
  using double precision KISS FFT
  3d grid and FFT values/proc = 2197 512
Per MPI rank memory allocation (min/avg/max) = 14.67 | 14.67 | 14.67 Mbytes
Step Temp E_pair E_mol TotEng Press 
    2000    975.60387   -40.757243    96.488673     122.6175   -3.7703319 
    2041    975.60387   -49.408552    16.314465    33.791979    2.9674408 
Loop time of 0.0128129 on 1 procs for 41 steps with 24 atoms

101.4% CPU use with 1 MPI tasks x no OpenMP threads

Minimization stats:
  Stopping criterion = energy tolerance
  Energy initial, next-to-last, final = 
         55.7314306912     -33.0619928842     -33.0940870822
  Force two-norm initial, final = 339.86 6.8339
  Force max component initial, final = 110.178 2.21909
  Final line search alpha, max atom move = 0.0204773 0.045441
  Iterations, force evaluations = 41 82

MPI task timing breakdown:
Section |  min time  |  avg time  |  max time  |%varavg| %total
---------------------------------------------------------------
Pair    | 0.0011849  | 0.0011849  | 0.0011849  |   0.0 |  9.25
Bond    | 0.00084925 | 0.00084925 | 0.00084925 |   0.0 |  6.63
Kspace  | 0.010539   | 0.010539   | 0.010539   |   0.0 | 82.26
Neigh   | 2.0027e-05 | 2.0027e-05 | 2.0027e-05 |   0.0 |  0.16
Comm    | 2.5988e-05 | 2.5988e-05 | 2.5988e-05 |   0.0 |  0.20
Output  | 0          | 0          | 0          |   0.0 |  0.00
Modify  | 0          | 0          | 0          |   0.0 |  0.00
Other   |            | 0.0001934  |            |       |  1.51

Nlocal:    24 ave 24 max 24 min
Histogram: 1 0 0 0 0 0 0 0 0 0
Nghost:    2 ave 2 max 2 min
Histogram: 1 0 0 0 0 0 0 0 0 0
Neighs:    276 ave 276 max 276 min
Histogram: 1 0 0 0 0 0 0 0 0 0

Total # of neighbors = 276
Ave neighs/atom = 11.5
Ave special neighs/atom = 10.1667
Neighbor list builds = 1
Dangerous builds = 0
write_dump all custom pysimm.dump.tmp id q x y z vx vy vz
quit


################################################################################
##################################    Init    ##################################
################################################################################
units           real
atom_style      full
pair_style      lj/cut/coul/long 12.0  12.0
kspace_style    pppm 1e-4
bond_style      harmonic
angle_style     harmonic
dihedral_style  fourier
special_bonds   amber
pair_modify     mix arithmetic
read_data       temp.lmps
  orthogonal box = (-51.0402 -51.0402 -51.0402) to (51.0402 51.0402 51.0402)
  1 by 1 by 1 MPI processor grid
  reading atoms ...
  30 atoms
  reading velocities ...
  30 velocities
  scanning bonds ...
  4 = max bonds/atom
  scanning angles ...
  6 = max angles/atom
  scanning dihedrals ...
  13 = max dihedrals/atom
  reading bonds ...
  29 bonds
  reading angles ...
  54 angles
  reading dihedrals ...
  75 dihedrals
  4 = max # of 1-2 neighbors
  6 = max # of 1-3 neighbors
  12 = max # of 1-4 neighbors
  16 = max # of special neighbors
  special bonds CPU = 0.000176907 secs
  read_data CPU = 0.00345206 secs
################################################################################

timestep        1
fix             pysimm_md all nve/limit 0.1
run             2000
PPPM initialization ...
  using 12-bit tables for long-range coulomb (../kspace.cpp:332)
  G vector (1/distance) = 0.0892927
  grid = 8 8 8
  stencil order = 5
  estimated absolute RMS force accuracy = 0.0314671
  estimated relative force accuracy = 9.47622e-05
  using double precision KISS FFT
  3d grid and FFT values/proc = 2197 512
Neighbor list info ...
  update every 1 steps, delay 10 steps, check yes
  max neighbors/atom: 2000, page size: 100000
  master list distance cutoff = 14
  ghost atom cutoff = 14
  binsize = 7, bins = 15 15 15
  1 neighbor lists, perpetual/occasional/extra = 1 0 0
  (1) pair lj/cut/coul/long, perpetual
      attributes: half, newton on
      pair build: half/bin/newton
      stencil: half/bin/3d/newton
      bin: standard
Per MPI rank memory allocation (min/avg/max) = 13.54 | 13.54 | 13.54 Mbytes
Step Temp E_pair E_mol TotEng Press 
       0    773.75474    17965.564 1.4996286e+28 1.4996286e+28    4649.4801 
    2000    1654.6467    -55.10294    75.083635    163.01413   -3.8567018 
Loop time of 0.331453 on 1 procs for 2000 steps with 30 atoms

Performance: 521.341 ns/day, 0.046 hours/ns, 6034.036 timesteps/s
99.8% CPU use with 1 MPI tasks x no OpenMP threads

MPI task timing breakdown:
Section |  min time  |  avg time  |  max time  |%varavg| %total
---------------------------------------------------------------
Pair    | 0.025588   | 0.025588   | 0.025588   |   0.0 |  7.72
Bond    | 0.024471   | 0.024471   | 0.024471   |   0.0 |  7.38
Kspace  | 0.27444    | 0.27444    | 0.27444    |   0.0 | 82.80
Neigh   | 0.0022235  | 0.0022235  | 0.0022235  |   0.0 |  0.67
Comm    | 0.0009985  | 0.0009985  | 0.0009985  |   0.0 |  0.30
Output  | 2.0027e-05 | 2.0027e-05 | 2.0027e-05 |   0.0 |  0.01
Modify  | 0.0015936  | 0.0015936  | 0.0015936  |   0.0 |  0.48
Other   |            | 0.00212    |            |       |  0.64

Nlocal:    30 ave 30 max 30 min
Histogram: 1 0 0 0 0 0 0 0 0 0
Nghost:    9 ave 9 max 9 min
Histogram: 1 0 0 0 0 0 0 0 0 0
Neighs:    435 ave 435 max 435 min
Histogram: 1 0 0 0 0 0 0 0 0 0

Total # of neighbors = 435
Ave neighs/atom = 14.5
Ave special neighs/atom = 10.5333
Neighbor list builds = 88
Dangerous builds = 0
unfix pysimm_md
min_style cg
minimize 0.001 0.001 10000 100000
WARNING: Using 'neigh_modify every 1 delay 0 check yes' setting during minimization (../min.cpp:190)
PPPM initialization ...
  using 12-bit tables for long-range coulomb (../kspace.cpp:332)
  G vector (1/distance) = 0.0892927
  grid = 8 8 8
  stencil order = 5
  estimated absolute RMS force accuracy = 0.0314671
  estimated relative force accuracy = 9.47622e-05
  using double precision KISS FFT
  3d grid and FFT values/proc = 2197 512
Per MPI rank memory allocation (min/avg/max) = 14.67 | 14.67 | 14.67 Mbytes
Step Temp E_pair E_mol TotEng Press 
    2000    1654.6467    -55.10294    75.083635    163.01413   -3.8567018 
    2032    1654.6467   -65.585736     16.90679    94.354492    6.4210324 
Loop time of 0.010572 on 1 procs for 32 steps with 30 atoms

94.6% CPU use with 1 MPI tasks x no OpenMP threads

Minimization stats:
  Stopping criterion = energy tolerance
  Energy initial, next-to-last, final = 
         19.9806954315     -48.6518739538     -48.6789458741
  Force two-norm initial, final = 284.366 4.83134
  Force max component initial, final = 105.738 1.65826
  Final line search alpha, max atom move = 0.0186197 0.0308764
  Iterations, force evaluations = 32 64

MPI task timing breakdown:
Section |  min time  |  avg time  |  max time  |%varavg| %total
---------------------------------------------------------------
Pair    | 0.0013061  | 0.0013061  | 0.0013061  |   0.0 | 12.35
Bond    | 0.00083113 | 0.00083113 | 0.00083113 |   0.0 |  7.86
Kspace  | 0.008224   | 0.008224   | 0.008224   |   0.0 | 77.79
Neigh   | 0          | 0          | 0          |   0.0 |  0.00
Comm    | 3.6001e-05 | 3.6001e-05 | 3.6001e-05 |   0.0 |  0.34
Output  | 0          | 0          | 0          |   0.0 |  0.00
Modify  | 0          | 0          | 0          |   0.0 |  0.00
Other   |            | 0.0001748  |            |       |  1.65

Nlocal:    30 ave 30 max 30 min
Histogram: 1 0 0 0 0 0 0 0 0 0
Nghost:    9 ave 9 max 9 min
Histogram: 1 0 0 0 0 0 0 0 0 0
Neighs:    435 ave 435 max 435 min
Histogram: 1 0 0 0 0 0 0 0 0 0

Total # of neighbors = 435
Ave neighs/atom = 14.5
Ave special neighs/atom = 10.5333
Neighbor list builds = 0
Dangerous builds = 0
write_dump all custom pysimm.dump.tmp id q x y z vx vy vz
quit


################################################################################
##################################    Init    ##################################
################################################################################
units           real
atom_style      full
pair_style      lj/cut/coul/long 12.0  12.0
kspace_style    pppm 1e-4
bond_style      harmonic
angle_style     harmonic
dihedral_style  fourier
special_bonds   amber
pair_modify     mix arithmetic
read_data       temp.lmps
  orthogonal box = (-51.0402 -51.0402 -51.0402) to (51.0402 51.0402 51.0402)
  1 by 1 by 1 MPI processor grid
  reading atoms ...
  36 atoms
  reading velocities ...
  36 velocities
  scanning bonds ...
  4 = max bonds/atom
  scanning angles ...
  6 = max angles/atom
  scanning dihedrals ...
  13 = max dihedrals/atom
  reading bonds ...
  35 bonds
  reading angles ...
  66 angles
  reading dihedrals ...
  93 dihedrals
  4 = max # of 1-2 neighbors
  6 = max # of 1-3 neighbors
  12 = max # of 1-4 neighbors
  16 = max # of special neighbors
  special bonds CPU = 0.00019908 secs
  read_data CPU = 0.00344706 secs
################################################################################

timestep        1
fix             pysimm_md all nve/limit 0.1
run             2000
PPPM initialization ...
  using 12-bit tables for long-range coulomb (../kspace.cpp:332)
  G vector (1/distance) = 0.0892896
  grid = 8 8 8
  stencil order = 5
  estimated absolute RMS force accuracy = 0.0344665
  estimated relative force accuracy = 0.000103795
  using double precision KISS FFT
  3d grid and FFT values/proc = 2197 512
Neighbor list info ...
  update every 1 steps, delay 10 steps, check yes
  max neighbors/atom: 2000, page size: 100000
  master list distance cutoff = 14
  ghost atom cutoff = 14
  binsize = 7, bins = 15 15 15
  1 neighbor lists, perpetual/occasional/extra = 1 0 0
  (1) pair lj/cut/coul/long, perpetual
      attributes: half, newton on
      pair build: half/bin/newton
      stencil: half/bin/3d/newton
      bin: standard
Per MPI rank memory allocation (min/avg/max) = 13.54 | 13.54 | 13.54 Mbytes
Step Temp E_pair E_mol TotEng Press 
       0    1370.9917    159.14381 1.5117431e+23 1.5117431e+23  1.74323e+31 
    2000    1542.1369   -75.414227    124.75663    210.23101   -9.2360786 
Loop time of 0.332278 on 1 procs for 2000 steps with 36 atoms

Performance: 520.046 ns/day, 0.046 hours/ns, 6019.056 timesteps/s
99.9% CPU use with 1 MPI tasks x no OpenMP threads

MPI task timing breakdown:
Section |  min time  |  avg time  |  max time  |%varavg| %total
---------------------------------------------------------------
Pair    | 0.034299   | 0.034299   | 0.034299   |   0.0 | 10.32
Bond    | 0.028382   | 0.028382   | 0.028382   |   0.0 |  8.54
Kspace  | 0.26231    | 0.26231    | 0.26231    |   0.0 | 78.94
Neigh   | 0.0028641  | 0.0028641  | 0.0028641  |   0.0 |  0.86
Comm    | 0.00060773 | 0.00060773 | 0.00060773 |   0.0 |  0.18
Output  | 1.4067e-05 | 1.4067e-05 | 1.4067e-05 |   0.0 |  0.00
Modify  | 0.0017455  | 0.0017455  | 0.0017455  |   0.0 |  0.53
Other   |            | 0.002052   |            |       |  0.62

Nlocal:    36 ave 36 max 36 min
Histogram: 1 0 0 0 0 0 0 0 0 0
Nghost:    0 ave 0 max 0 min
Histogram: 1 0 0 0 0 0 0 0 0 0
Neighs:    630 ave 630 max 630 min
Histogram: 1 0 0 0 0 0 0 0 0 0

Total # of neighbors = 630
Ave neighs/atom = 17.5
Ave special neighs/atom = 10.7778
Neighbor list builds = 92
Dangerous builds = 0
unfix pysimm_md
min_style cg
minimize 0.001 0.001 10000 100000
WARNING: Using 'neigh_modify every 1 delay 0 check yes' setting during minimization (../min.cpp:190)
PPPM initialization ...
  using 12-bit tables for long-range coulomb (../kspace.cpp:332)
  G vector (1/distance) = 0.0892896
  grid = 8 8 8
  stencil order = 5
  estimated absolute RMS force accuracy = 0.0344665
  estimated relative force accuracy = 0.000103795
  using double precision KISS FFT
  3d grid and FFT values/proc = 2197 512
Per MPI rank memory allocation (min/avg/max) = 14.67 | 14.67 | 14.67 Mbytes
Step Temp E_pair E_mol TotEng Press 
    2000    1542.1369   -75.414227    124.75663    210.23101   -9.2360786 
    2018    1542.1369   -76.811135    21.348494    105.42596    8.3827132 
Loop time of 0.00677299 on 1 procs for 18 steps with 36 atoms

103.3% CPU use with 1 MPI tasks x no OpenMP threads

Minimization stats:
  Stopping criterion = energy tolerance
  Energy initial, next-to-last, final = 
         49.3424068517     -55.4415091034     -55.4626408555
  Force two-norm initial, final = 365.126 15.5849
  Force max component initial, final = 101.536 4.41877
  Final line search alpha, max atom move = 0.00824828 0.0364472
  Iterations, force evaluations = 18 36

MPI task timing breakdown:
Section |  min time  |  avg time  |  max time  |%varavg| %total
---------------------------------------------------------------
Pair    | 0.0010808  | 0.0010808  | 0.0010808  |   0.0 | 15.96
Bond    | 0.0005784  | 0.0005784  | 0.0005784  |   0.0 |  8.54
Kspace  | 0.0050073  | 0.0050073  | 0.0050073  |   0.0 | 73.93
Neigh   | 0          | 0          | 0          |   0.0 |  0.00
Comm    | 1.359e-05  | 1.359e-05  | 1.359e-05  |   0.0 |  0.20
Output  | 0          | 0          | 0          |   0.0 |  0.00
Modify  | 0          | 0          | 0          |   0.0 |  0.00
Other   |            | 9.298e-05  |            |       |  1.37

Nlocal:    36 ave 36 max 36 min
Histogram: 1 0 0 0 0 0 0 0 0 0
Nghost:    0 ave 0 max 0 min
Histogram: 1 0 0 0 0 0 0 0 0 0
Neighs:    630 ave 630 max 630 min
Histogram: 1 0 0 0 0 0 0 0 0 0

Total # of neighbors = 630
Ave neighs/atom = 17.5
Ave special neighs/atom = 10.7778
Neighbor list builds = 0
Dangerous builds = 0
write_dump all custom pysimm.dump.tmp id q x y z vx vy vz
quit


################################################################################
##################################    Init    ##################################
################################################################################
units           real
atom_style      full
pair_style      lj/cut/coul/long 12.0  12.0
kspace_style    pppm 1e-4
bond_style      harmonic
angle_style     harmonic
dihedral_style  fourier
special_bonds   amber
pair_modify     mix arithmetic
read_data       temp.lmps
  orthogonal box = (-51.0402 -51.0402 -51.0402) to (51.0402 51.0402 51.0402)
  1 by 1 by 1 MPI processor grid
  reading atoms ...
  42 atoms
  reading velocities ...
  42 velocities
  scanning bonds ...
  4 = max bonds/atom
  scanning angles ...
  6 = max angles/atom
  scanning dihedrals ...
  13 = max dihedrals/atom
  reading bonds ...
  41 bonds
  reading angles ...
  78 angles
  reading dihedrals ...
  111 dihedrals
  4 = max # of 1-2 neighbors
  6 = max # of 1-3 neighbors
  12 = max # of 1-4 neighbors
  16 = max # of special neighbors
  special bonds CPU = 0.000220776 secs
  read_data CPU = 0.00358295 secs
################################################################################

timestep        1
fix             pysimm_md all nve/limit 0.1
run             2000
PPPM initialization ...
  using 12-bit tables for long-range coulomb (../kspace.cpp:332)
  G vector (1/distance) = 0.0974037
  grid = 9 9 9
  stencil order = 5
  estimated absolute RMS force accuracy = 0.0299321
  estimated relative force accuracy = 9.01398e-05
  using double precision KISS FFT
  3d grid and FFT values/proc = 2744 729
Neighbor list info ...
  update every 1 steps, delay 10 steps, check yes
  max neighbors/atom: 2000, page size: 100000
  master list distance cutoff = 14
  ghost atom cutoff = 14
  binsize = 7, bins = 15 15 15
  1 neighbor lists, perpetual/occasional/extra = 1 0 0
  (1) pair lj/cut/coul/long, perpetual
      attributes: half, newton on
      pair build: half/bin/newton
      stencil: half/bin/3d/newton
      bin: standard
Per MPI rank memory allocation (min/avg/max) = 13.58 | 13.58 | 13.58 Mbytes
Step Temp E_pair E_mol TotEng Press 
       0    1316.4587    1240.7993 3.2012971e+29 3.2012971e+29 1.4375263e+42 
    2000    1424.1673   -81.990389    124.62932    216.69099    5.6124941 
Loop time of 0.477072 on 1 procs for 2000 steps with 42 atoms

Performance: 362.209 ns/day, 0.066 hours/ns, 4192.239 timesteps/s
100.0% CPU use with 1 MPI tasks x no OpenMP threads

MPI task timing breakdown:
Section |  min time  |  avg time  |  max time  |%varavg| %total
---------------------------------------------------------------
Pair    | 0.045258   | 0.045258   | 0.045258   |   0.0 |  9.49
Bond    | 0.034152   | 0.034152   | 0.034152   |   0.0 |  7.16
Kspace  | 0.3889     | 0.3889     | 0.3889     |   0.0 | 81.52
Neigh   | 0.0036077  | 0.0036077  | 0.0036077  |   0.0 |  0.76
Comm    | 0.00092983 | 0.00092983 | 0.00092983 |   0.0 |  0.19
Output  | 1.8835e-05 | 1.8835e-05 | 1.8835e-05 |   0.0 |  0.00
Modify  | 0.0020335  | 0.0020335  | 0.0020335  |   0.0 |  0.43
Other   |            | 0.002168   |            |       |  0.45

Nlocal:    42 ave 42 max 42 min
Histogram: 1 0 0 0 0 0 0 0 0 0
Nghost:    42 ave 42 max 42 min
Histogram: 1 0 0 0 0 0 0 0 0 0
Neighs:    861 ave 861 max 861 min
Histogram: 1 0 0 0 0 0 0 0 0 0

Total # of neighbors = 861
Ave neighs/atom = 20.5
Ave special neighs/atom = 10.9524
Neighbor list builds = 94
Dangerous builds = 0
unfix pysimm_md
min_style cg
minimize 0.001 0.001 10000 100000
WARNING: Using 'neigh_modify every 1 delay 0 check yes' setting during minimization (../min.cpp:190)
PPPM initialization ...
  using 12-bit tables for long-range coulomb (../kspace.cpp:332)
  G vector (1/distance) = 0.0974037
  grid = 9 9 9
  stencil order = 5
  estimated absolute RMS force accuracy = 0.0299321
  estimated relative force accuracy = 9.01398e-05
  using double precision KISS FFT
  3d grid and FFT values/proc = 2744 729
Per MPI rank memory allocation (min/avg/max) = 14.71 | 14.71 | 14.71 Mbytes
Step Temp E_pair E_mol TotEng Press 
    2000    1424.1673   -81.990389    124.62932    216.69099    5.6124941 
    2042    1424.1673   -95.820927    29.550726    107.78185    7.9724301 
Loop time of 0.035665 on 1 procs for 42 steps with 42 atoms

98.1% CPU use with 1 MPI tasks x no OpenMP threads

Minimization stats:
  Stopping criterion = linesearch alpha is zero
  Energy initial, next-to-last, final = 
         42.6389355576     -66.2702010974     -66.2702010974
  Force two-norm initial, final = 322.516 17.8435
  Force max component initial, final = 93.5802 4.83623
  Final line search alpha, max atom move = 2.64486e-11 1.27911e-10
  Iterations, force evaluations = 42 137

MPI task timing breakdown:
Section |  min time  |  avg time  |  max time  |%varavg| %total
---------------------------------------------------------------
Pair    | 0.0051579  | 0.0051579  | 0.0051579  |   0.0 | 14.46
Bond    | 0.002558   | 0.002558   | 0.002558   |   0.0 |  7.17
Kspace  | 0.027502   | 0.027502   | 0.027502   |   0.0 | 77.11
Neigh   | 4.3869e-05 | 4.3869e-05 | 4.3869e-05 |   0.0 |  0.12
Comm    | 8.5354e-05 | 8.5354e-05 | 8.5354e-05 |   0.0 |  0.24
Output  | 0          | 0          | 0          |   0.0 |  0.00
Modify  | 0          | 0          | 0          |   0.0 |  0.00
Other   |            | 0.0003178  |            |       |  0.89

Nlocal:    42 ave 42 max 42 min
Histogram: 1 0 0 0 0 0 0 0 0 0
Nghost:    42 ave 42 max 42 min
Histogram: 1 0 0 0 0 0 0 0 0 0
Neighs:    861 ave 861 max 861 min
Histogram: 1 0 0 0 0 0 0 0 0 0

Total # of neighbors = 861
Ave neighs/atom = 20.5
Ave special neighs/atom = 10.9524
Neighbor list builds = 1
Dangerous builds = 0
write_dump all custom pysimm.dump.tmp id q x y z vx vy vz
quit


################################################################################
##################################    Init    ##################################
################################################################################
units           real
atom_style      full
pair_style      lj/cut/coul/long 12.0  12.0
kspace_style    pppm 1e-4
bond_style      harmonic
angle_style     harmonic
dihedral_style  fourier
special_bonds   amber
pair_modify     mix arithmetic
read_data       temp.lmps
  orthogonal box = (-51.0402 -51.0402 -51.0402) to (51.0402 51.0402 51.0402)
  1 by 1 by 1 MPI processor grid
  reading atoms ...
  48 atoms
  reading velocities ...
  48 velocities
  scanning bonds ...
  4 = max bonds/atom
  scanning angles ...
  6 = max angles/atom
  scanning dihedrals ...
  13 = max dihedrals/atom
  reading bonds ...
  47 bonds
  reading angles ...
  90 angles
  reading dihedrals ...
  129 dihedrals
  4 = max # of 1-2 neighbors
  6 = max # of 1-3 neighbors
  12 = max # of 1-4 neighbors
  16 = max # of special neighbors
  special bonds CPU = 0.000232935 secs
  read_data CPU = 0.00367689 secs
################################################################################

timestep        1
fix             pysimm_md all nve/limit 0.1
run             2000
PPPM initialization ...
  using 12-bit tables for long-range coulomb (../kspace.cpp:332)
  G vector (1/distance) = 0.0974035
  grid = 9 9 9
  stencil order = 5
  estimated absolute RMS force accuracy = 0.0319986
  estimated relative force accuracy = 9.63628e-05
  using double precision KISS FFT
  3d grid and FFT values/proc = 2744 729
Neighbor list info ...
  update every 1 steps, delay 10 steps, check yes
  max neighbors/atom: 2000, page size: 100000
  master list distance cutoff = 14
  ghost atom cutoff = 14
  binsize = 7, bins = 15 15 15
  1 neighbor lists, perpetual/occasional/extra = 1 0 0
  (1) pair lj/cut/coul/long, perpetual
      attributes: half, newton on
      pair build: half/bin/newton
      stencil: half/bin/3d/newton
      bin: standard
Per MPI rank memory allocation (min/avg/max) = 13.59 | 13.59 | 13.59 Mbytes
Step Temp E_pair E_mol TotEng Press 
       0    1242.3593    295.32537 3.2298888e+25 3.2298888e+25 -2.2848864e+35 
    2000    1432.3835   -106.13734      141.347    235.88382    7.4979568 
Loop time of 0.554686 on 1 procs for 2000 steps with 48 atoms

Performance: 311.528 ns/day, 0.077 hours/ns, 3605.645 timesteps/s
99.9% CPU use with 1 MPI tasks x no OpenMP threads

MPI task timing breakdown:
Section |  min time  |  avg time  |  max time  |%varavg| %total
---------------------------------------------------------------
Pair    | 0.058856   | 0.058856   | 0.058856   |   0.0 | 10.61
Bond    | 0.041249   | 0.041249   | 0.041249   |   0.0 |  7.44
Kspace  | 0.44355    | 0.44355    | 0.44355    |   0.0 | 79.96
Neigh   | 0.0046604  | 0.0046604  | 0.0046604  |   0.0 |  0.84
Comm    | 0.0014806  | 0.0014806  | 0.0014806  |   0.0 |  0.27
Output  | 2.0981e-05 | 2.0981e-05 | 2.0981e-05 |   0.0 |  0.00
Modify  | 0.0022681  | 0.0022681  | 0.0022681  |   0.0 |  0.41
Other   |            | 0.002597   |            |       |  0.47

Nlocal:    48 ave 48 max 48 min
Histogram: 1 0 0 0 0 0 0 0 0 0
Nghost:    48 ave 48 max 48 min
Histogram: 1 0 0 0 0 0 0 0 0 0
Neighs:    1115 ave 1115 max 1115 min
Histogram: 1 0 0 0 0 0 0 0 0 0

Total # of neighbors = 1115
Ave neighs/atom = 23.2292
Ave special neighs/atom = 11.0833
Neighbor list builds = 97
Dangerous builds = 0
unfix pysimm_md
min_style cg
minimize 0.001 0.001 10000 100000
WARNING: Using 'neigh_modify every 1 delay 0 check yes' setting during minimization (../min.cpp:190)
PPPM initialization ...
  using 12-bit tables for long-range coulomb (../kspace.cpp:332)
  G vector (1/distance) = 0.0974035
  grid = 9 9 9
  stencil order = 5
  estimated absolute RMS force accuracy = 0.0319986
  estimated relative force accuracy = 9.63628e-05
  using double precision KISS FFT
  3d grid and FFT values/proc = 2744 729
Per MPI rank memory allocation (min/avg/max) = 14.71 | 14.71 | 14.71 Mbytes
Step Temp E_pair E_mol TotEng Press 
    2000    1432.3835   -106.13734      141.347    235.88382    7.4979568 
    2056    1432.3835   -114.47863    30.161754    116.35729    8.5450073 
Loop time of 0.0309851 on 1 procs for 56 steps with 48 atoms

100.0% CPU use with 1 MPI tasks x no OpenMP threads

Minimization stats:
  Stopping criterion = energy tolerance
  Energy initial, next-to-last, final = 
         35.2096573808     -84.2425183203     -84.3168755377
  Force two-norm initial, final = 359.094 9.08536
  Force max component initial, final = 107.254 2.08486
  Final line search alpha, max atom move = 0.0121313 0.025292
  Iterations, force evaluations = 56 112

MPI task timing breakdown:
Section |  min time  |  avg time  |  max time  |%varavg| %total
---------------------------------------------------------------
Pair    | 0.0053794  | 0.0053794  | 0.0053794  |   0.0 | 17.36
Bond    | 0.0025127  | 0.0025127  | 0.0025127  |   0.0 |  8.11
Kspace  | 0.022637   | 0.022637   | 0.022637   |   0.0 | 73.06
Neigh   | 5.0068e-05 | 5.0068e-05 | 5.0068e-05 |   0.0 |  0.16
Comm    | 6.8665e-05 | 6.8665e-05 | 6.8665e-05 |   0.0 |  0.22
Output  | 0          | 0          | 0          |   0.0 |  0.00
Modify  | 0          | 0          | 0          |   0.0 |  0.00
Other   |            | 0.0003374  |            |       |  1.09

Nlocal:    48 ave 48 max 48 min
Histogram: 1 0 0 0 0 0 0 0 0 0
Nghost:    48 ave 48 max 48 min
Histogram: 1 0 0 0 0 0 0 0 0 0
Neighs:    1113 ave 1113 max 1113 min
Histogram: 1 0 0 0 0 0 0 0 0 0

Total # of neighbors = 1113
Ave neighs/atom = 23.1875
Ave special neighs/atom = 11.0833
Neighbor list builds = 1
Dangerous builds = 0
write_dump all custom pysimm.dump.tmp id q x y z vx vy vz
quit


################################################################################
##################################    Init    ##################################
################################################################################
units           real
atom_style      full
pair_style      lj/cut/coul/long 12.0  12.0
kspace_style    pppm 1e-4
bond_style      harmonic
angle_style     harmonic
dihedral_style  fourier
special_bonds   amber
pair_modify     mix arithmetic
read_data       temp.lmps
  orthogonal box = (-51.0402 -51.0402 -51.0402) to (51.0402 51.0402 51.0402)
  1 by 1 by 1 MPI processor grid
  reading atoms ...
  54 atoms
  reading velocities ...
  54 velocities
  scanning bonds ...
  4 = max bonds/atom
  scanning angles ...
  6 = max angles/atom
  scanning dihedrals ...
  13 = max dihedrals/atom
  reading bonds ...
  53 bonds
  reading angles ...
  102 angles
  reading dihedrals ...
  147 dihedrals
  4 = max # of 1-2 neighbors
  6 = max # of 1-3 neighbors
  12 = max # of 1-4 neighbors
  16 = max # of special neighbors
  special bonds CPU = 0.000176907 secs
  read_data CPU = 0.00357103 secs
################################################################################

timestep        1
fix             pysimm_md all nve/limit 0.1
run             2000
PPPM initialization ...
  using 12-bit tables for long-range coulomb (../kspace.cpp:332)
  G vector (1/distance) = 0.0974034
  grid = 9 9 9
  stencil order = 5
  estimated absolute RMS force accuracy = 0.0339396
  estimated relative force accuracy = 0.000102208
  using double precision KISS FFT
  3d grid and FFT values/proc = 2744 729
Neighbor list info ...
  update every 1 steps, delay 10 steps, check yes
  max neighbors/atom: 2000, page size: 100000
  master list distance cutoff = 14
  ghost atom cutoff = 14
  binsize = 7, bins = 15 15 15
  1 neighbor lists, perpetual/occasional/extra = 1 0 0
  (1) pair lj/cut/coul/long, perpetual
      attributes: half, newton on
      pair build: half/bin/newton
      stencil: half/bin/3d/newton
      bin: standard
Per MPI rank memory allocation (min/avg/max) = 13.59 | 13.59 | 13.59 Mbytes
Step Temp E_pair E_mol TotEng Press 
       0    1270.2266    277.73039 3.6495974e+22 3.6495974e+22 -4.358075e+29 
    2000    1135.7308   -107.55673     188.5251    260.39446    8.0559303 
Loop time of 0.548331 on 1 procs for 2000 steps with 54 atoms

Performance: 315.138 ns/day, 0.076 hours/ns, 3647.432 timesteps/s
99.7% CPU use with 1 MPI tasks x no OpenMP threads

MPI task timing breakdown:
Section |  min time  |  avg time  |  max time  |%varavg| %total
---------------------------------------------------------------
Pair    | 0.067275   | 0.067275   | 0.067275   |   0.0 | 12.27
Bond    | 0.045869   | 0.045869   | 0.045869   |   0.0 |  8.37
Kspace  | 0.42323    | 0.42323    | 0.42323    |   0.0 | 77.19
Neigh   | 0.0050774  | 0.0050774  | 0.0050774  |   0.0 |  0.93
Comm    | 0.0016153  | 0.0016153  | 0.0016153  |   0.0 |  0.29
Output  | 2.1935e-05 | 2.1935e-05 | 2.1935e-05 |   0.0 |  0.00
Modify  | 0.0024951  | 0.0024951  | 0.0024951  |   0.0 |  0.46
Other   |            | 0.002745   |            |       |  0.50

Nlocal:    54 ave 54 max 54 min
Histogram: 1 0 0 0 0 0 0 0 0 0
Nghost:    54 ave 54 max 54 min
Histogram: 1 0 0 0 0 0 0 0 0 0
Neighs:    1333 ave 1333 max 1333 min
Histogram: 1 0 0 0 0 0 0 0 0 0

Total # of neighbors = 1333
Ave neighs/atom = 24.6852
Ave special neighs/atom = 11.1852
Neighbor list builds = 88
Dangerous builds = 0
unfix pysimm_md
min_style cg
minimize 0.001 0.001 10000 100000
WARNING: Using 'neigh_modify every 1 delay 0 check yes' setting during minimization (../min.cpp:190)
PPPM initialization ...
  using 12-bit tables for long-range coulomb (../kspace.cpp:332)
  G vector (1/distance) = 0.0974034
  grid = 9 9 9
  stencil order = 5
  estimated absolute RMS force accuracy = 0.0339396
  estimated relative force accuracy = 0.000102208
  using double precision KISS FFT
  3d grid and FFT values/proc = 2744 729
Per MPI rank memory allocation (min/avg/max) = 14.71 | 14.71 | 14.71 Mbytes
Step Temp E_pair E_mol TotEng Press 
    2000    1135.7308   -107.55673     188.5251    260.39446    8.0559303 
    2039    1135.7308   -126.15653    38.064081    91.333638    8.0920404 
Loop time of 0.0225909 on 1 procs for 39 steps with 54 atoms

101.8% CPU use with 1 MPI tasks x no OpenMP threads

Minimization stats:
  Stopping criterion = energy tolerance
  Energy initial, next-to-last, final = 
          80.968367739     -88.0133705934     -88.0924491355
  Force two-norm initial, final = 460.375 9.34446
  Force max component initial, final = 160.191 2.7957
  Final line search alpha, max atom move = 0.00910151 0.0254451
  Iterations, force evaluations = 39 77

MPI task timing breakdown:
Section |  min time  |  avg time  |  max time  |%varavg| %total
---------------------------------------------------------------
Pair    | 0.0043702  | 0.0043702  | 0.0043702  |   0.0 | 19.35
Bond    | 0.0020227  | 0.0020227  | 0.0020227  |   0.0 |  8.95
Kspace  | 0.015893   | 0.015893   | 0.015893   |   0.0 | 70.35
Neigh   | 0          | 0          | 0          |   0.0 |  0.00
Comm    | 6.175e-05  | 6.175e-05  | 6.175e-05  |   0.0 |  0.27
Output  | 0          | 0          | 0          |   0.0 |  0.00
Modify  | 0          | 0          | 0          |   0.0 |  0.00
Other   |            | 0.0002437  |            |       |  1.08

Nlocal:    54 ave 54 max 54 min
Histogram: 1 0 0 0 0 0 0 0 0 0
Nghost:    54 ave 54 max 54 min
Histogram: 1 0 0 0 0 0 0 0 0 0
Neighs:    1331 ave 1331 max 1331 min
Histogram: 1 0 0 0 0 0 0 0 0 0

Total # of neighbors = 1331
Ave neighs/atom = 24.6481
Ave special neighs/atom = 11.1852
Neighbor list builds = 0
Dangerous builds = 0
write_dump all custom pysimm.dump.tmp id q x y z vx vy vz
quit


################################################################################
##################################    Init    ##################################
################################################################################
units           real
atom_style      full
pair_style      lj/cut/coul/long 12.0  12.0
kspace_style    pppm 1e-4
bond_style      harmonic
angle_style     harmonic
dihedral_style  fourier
special_bonds   amber
pair_modify     mix arithmetic
read_data       temp.lmps
  orthogonal box = (-51.0402 -51.0402 -51.0402) to (51.0402 51.0402 51.0402)
  1 by 1 by 1 MPI processor grid
  reading atoms ...
  60 atoms
  reading velocities ...
  60 velocities
  scanning bonds ...
  4 = max bonds/atom
  scanning angles ...
  6 = max angles/atom
  scanning dihedrals ...
  13 = max dihedrals/atom
  reading bonds ...
  59 bonds
  reading angles ...
  114 angles
  reading dihedrals ...
  165 dihedrals
  4 = max # of 1-2 neighbors
  6 = max # of 1-3 neighbors
  12 = max # of 1-4 neighbors
  16 = max # of special neighbors
  special bonds CPU = 0.00022912 secs
  read_data CPU = 0.00388408 secs
################################################################################

timestep        1
fix             pysimm_md all nve/limit 0.1
run             2000
PPPM initialization ...
  using 12-bit tables for long-range coulomb (../kspace.cpp:332)
  G vector (1/distance) = 0.0974057
  grid = 9 9 9
  stencil order = 5
  estimated absolute RMS force accuracy = 0.0357781
  estimated relative force accuracy = 0.000107745
  using double precision KISS FFT
  3d grid and FFT values/proc = 2744 729
Neighbor list info ...
  update every 1 steps, delay 10 steps, check yes
  max neighbors/atom: 2000, page size: 100000
  master list distance cutoff = 14
  ghost atom cutoff = 14
  binsize = 7, bins = 15 15 15
  1 neighbor lists, perpetual/occasional/extra = 1 0 0
  (1) pair lj/cut/coul/long, perpetual
      attributes: half, newton on
      pair build: half/bin/newton
      stencil: half/bin/3d/newton
      bin: standard
Per MPI rank memory allocation (min/avg/max) = 13.59 | 13.59 | 13.59 Mbytes
Step Temp E_pair E_mol TotEng Press 
       0     1020.233    256.17406 3.3809936e+25 3.3809936e+25 -1.7136648e+35 
    2000    1025.9174   -141.32529    178.91572    218.01626  -0.83788514 
Loop time of 0.595091 on 1 procs for 2000 steps with 60 atoms

Performance: 290.376 ns/day, 0.083 hours/ns, 3360.831 timesteps/s
99.8% CPU use with 1 MPI tasks x no OpenMP threads

MPI task timing breakdown:
Section |  min time  |  avg time  |  max time  |%varavg| %total
---------------------------------------------------------------
Pair    | 0.081565   | 0.081565   | 0.081565   |   0.0 | 13.71
Bond    | 0.051819   | 0.051819   | 0.051819   |   0.0 |  8.71
Kspace  | 0.44834    | 0.44834    | 0.44834    |   0.0 | 75.34
Neigh   | 0.0061843  | 0.0061843  | 0.0061843  |   0.0 |  1.04
Comm    | 0.0016887  | 0.0016887  | 0.0016887  |   0.0 |  0.28
Output  | 2.408e-05  | 2.408e-05  | 2.408e-05  |   0.0 |  0.00
Modify  | 0.0027032  | 0.0027032  | 0.0027032  |   0.0 |  0.45
Other   |            | 0.002765   |            |       |  0.46

Nlocal:    60 ave 60 max 60 min
Histogram: 1 0 0 0 0 0 0 0 0 0
Nghost:    60 ave 60 max 60 min
Histogram: 1 0 0 0 0 0 0 0 0 0
Neighs:    1718 ave 1718 max 1718 min
Histogram: 1 0 0 0 0 0 0 0 0 0

Total # of neighbors = 1718
Ave neighs/atom = 28.6333
Ave special neighs/atom = 11.2667
Neighbor list builds = 92
Dangerous builds = 0
unfix pysimm_md
min_style cg
minimize 0.001 0.001 10000 100000
WARNING: Using 'neigh_modify every 1 delay 0 check yes' setting during minimization (../min.cpp:190)
PPPM initialization ...
  using 12-bit tables for long-range coulomb (../kspace.cpp:332)
  G vector (1/distance) = 0.0974057
  grid = 9 9 9
  stencil order = 5
  estimated absolute RMS force accuracy = 0.0357781
  estimated relative force accuracy = 0.000107745
  using double precision KISS FFT
  3d grid and FFT values/proc = 2744 729
Per MPI rank memory allocation (min/avg/max) = 14.71 | 14.71 | 14.71 Mbytes
Step Temp E_pair E_mol TotEng Press 
    2000    1025.9174   -141.32529    178.91572    218.01626  -0.83788514 
    2041    1025.9174   -148.58768    39.472511    71.310651    8.5515113 
Loop time of 0.0245318 on 1 procs for 41 steps with 60 atoms

101.9% CPU use with 1 MPI tasks x no OpenMP threads

Minimization stats:
  Stopping criterion = energy tolerance
  Energy initial, next-to-last, final = 
         37.5904336434     -109.012393689     -109.115172593
  Force two-norm initial, final = 453.32 10.4455
  Force max component initial, final = 113.097 3.06307
  Final line search alpha, max atom move = 0.00743216 0.0227653
  Iterations, force evaluations = 41 82

MPI task timing breakdown:
Section |  min time  |  avg time  |  max time  |%varavg| %total
---------------------------------------------------------------
Pair    | 0.0056539  | 0.0056539  | 0.0056539  |   0.0 | 23.05
Bond    | 0.0022185  | 0.0022185  | 0.0022185  |   0.0 |  9.04
Kspace  | 0.016258   | 0.016258   | 0.016258   |   0.0 | 66.27
Neigh   | 6.1989e-05 | 6.1989e-05 | 6.1989e-05 |   0.0 |  0.25
Comm    | 6.4373e-05 | 6.4373e-05 | 6.4373e-05 |   0.0 |  0.26
Output  | 0          | 0          | 0          |   0.0 |  0.00
Modify  | 0          | 0          | 0          |   0.0 |  0.00
Other   |            | 0.0002754  |            |       |  1.12

Nlocal:    60 ave 60 max 60 min
Histogram: 1 0 0 0 0 0 0 0 0 0
Nghost:    60 ave 60 max 60 min
Histogram: 1 0 0 0 0 0 0 0 0 0
Neighs:    1715 ave 1715 max 1715 min
Histogram: 1 0 0 0 0 0 0 0 0 0

Total # of neighbors = 1715
Ave neighs/atom = 28.5833
Ave special neighs/atom = 11.2667
Neighbor list builds = 1
Dangerous builds = 0
write_dump all custom pysimm.dump.tmp id q x y z vx vy vz
quit


################################################################################
##################################    Init    ##################################
################################################################################
units           real
atom_style      full
pair_style      lj/cut/coul/long 12.0  12.0
kspace_style    pppm 1e-4
bond_style      harmonic
angle_style     harmonic
dihedral_style  fourier
special_bonds   amber
pair_modify     mix arithmetic
read_data       temp.lmps
  orthogonal box = (-64.3067 -64.3067 -64.3067) to (64.3067 64.3067 64.3067)
  1 by 1 by 1 MPI processor grid
  reading atoms ...
  66 atoms
  reading velocities ...
  66 velocities
  scanning bonds ...
  4 = max bonds/atom
  scanning angles ...
  6 = max angles/atom
  scanning dihedrals ...
  13 = max dihedrals/atom
  reading bonds ...
  65 bonds
  reading angles ...
  126 angles
  reading dihedrals ...
  183 dihedrals
  4 = max # of 1-2 neighbors
  6 = max # of 1-3 neighbors
  12 = max # of 1-4 neighbors
  16 = max # of special neighbors
  special bonds CPU = 0.000211 secs
  read_data CPU = 0.00389504 secs
################################################################################

timestep        1
fix             pysimm_md all nve/limit 0.1
run             2000
PPPM initialization ...
  using 12-bit tables for long-range coulomb (../kspace.cpp:332)
  G vector (1/distance) = 0.0887595
  grid = 10 10 10
  stencil order = 5
  estimated absolute RMS force accuracy = 0.0334514
  estimated relative force accuracy = 0.000100738
  using double precision KISS FFT
  3d grid and FFT values/proc = 3375 1000
Neighbor list info ...
  update every 1 steps, delay 10 steps, check yes
  max neighbors/atom: 2000, page size: 100000
  master list distance cutoff = 14
  ghost atom cutoff = 14
  binsize = 7, bins = 19 19 19
  1 neighbor lists, perpetual/occasional/extra = 1 0 0
  (1) pair lj/cut/coul/long, perpetual
      attributes: half, newton on
      pair build: half/bin/newton
      stencil: half/bin/3d/newton
      bin: standard
Per MPI rank memory allocation (min/avg/max) = 13.66 | 13.66 | 13.66 Mbytes
Step Temp E_pair E_mol TotEng Press 
       0    931.21716   -158.17942    1058.2012    1080.4475   -26.900518 
    2000    779.25692   -148.89225    196.95624    199.04708  -0.54791317 
Loop time of 0.733314 on 1 procs for 2000 steps with 66 atoms

Performance: 235.643 ns/day, 0.102 hours/ns, 2727.344 timesteps/s
99.9% CPU use with 1 MPI tasks x no OpenMP threads

MPI task timing breakdown:
Section |  min time  |  avg time  |  max time  |%varavg| %total
---------------------------------------------------------------
Pair    | 0.092213   | 0.092213   | 0.092213   |   0.0 | 12.57
Bond    | 0.058706   | 0.058706   | 0.058706   |   0.0 |  8.01
Kspace  | 0.56858    | 0.56858    | 0.56858    |   0.0 | 77.54
Neigh   | 0.0065131  | 0.0065131  | 0.0065131  |   0.0 |  0.89
Comm    | 0.0012891  | 0.0012891  | 0.0012891  |   0.0 |  0.18
Output  | 2.5988e-05 | 2.5988e-05 | 2.5988e-05 |   0.0 |  0.00
Modify  | 0.0029807  | 0.0029807  | 0.0029807  |   0.0 |  0.41
Other   |            | 0.003005   |            |       |  0.41

Nlocal:    66 ave 66 max 66 min
Histogram: 1 0 0 0 0 0 0 0 0 0
Nghost:    5 ave 5 max 5 min
Histogram: 1 0 0 0 0 0 0 0 0 0
Neighs:    1918 ave 1918 max 1918 min
Histogram: 1 0 0 0 0 0 0 0 0 0

Total # of neighbors = 1918
Ave neighs/atom = 29.0606
Ave special neighs/atom = 11.3333
Neighbor list builds = 87
Dangerous builds = 0
unfix pysimm_md
min_style cg
minimize 0.001 0.001 10000 100000
WARNING: Using 'neigh_modify every 1 delay 0 check yes' setting during minimization (../min.cpp:190)
PPPM initialization ...
  using 12-bit tables for long-range coulomb (../kspace.cpp:332)
  G vector (1/distance) = 0.0887595
  grid = 10 10 10
  stencil order = 5
  estimated absolute RMS force accuracy = 0.0334514
  estimated relative force accuracy = 0.000100738
  using double precision KISS FFT
  3d grid and FFT values/proc = 3375 1000
Per MPI rank memory allocation (min/avg/max) = 14.78 | 14.78 | 14.78 Mbytes
Step Temp E_pair E_mol TotEng Press 
    2000    779.25692   -148.89225    196.95624    199.04708  -0.54791317 
    2021    779.25692   -160.61156    50.762166    41.133705     3.151395 
Loop time of 0.0389059 on 1 procs for 21 steps with 66 atoms

100.2% CPU use with 1 MPI tasks x no OpenMP threads

Minimization stats:
  Stopping criterion = linesearch alpha is zero
  Energy initial, next-to-last, final = 
         48.0639857768     -109.849391034     -109.849391034
  Force two-norm initial, final = 448.799 21.3261
  Force max component initial, final = 109.323 4.54536
  Final line search alpha, max atom move = 2.62014e-11 1.19095e-10
  Iterations, force evaluations = 21 97

MPI task timing breakdown:
Section |  min time  |  avg time  |  max time  |%varavg| %total
---------------------------------------------------------------
Pair    | 0.0078301  | 0.0078301  | 0.0078301  |   0.0 | 20.13
Bond    | 0.0031502  | 0.0031502  | 0.0031502  |   0.0 |  8.10
Kspace  | 0.027605   | 0.027605   | 0.027605   |   0.0 | 70.95
Neigh   | 0          | 0          | 0          |   0.0 |  0.00
Comm    | 5.3406e-05 | 5.3406e-05 | 5.3406e-05 |   0.0 |  0.14
Output  | 0          | 0          | 0          |   0.0 |  0.00
Modify  | 0          | 0          | 0          |   0.0 |  0.00
Other   |            | 0.0002673  |            |       |  0.69

Nlocal:    66 ave 66 max 66 min
Histogram: 1 0 0 0 0 0 0 0 0 0
Nghost:    4 ave 4 max 4 min
Histogram: 1 0 0 0 0 0 0 0 0 0
Neighs:    1912 ave 1912 max 1912 min
Histogram: 1 0 0 0 0 0 0 0 0 0

Total # of neighbors = 1912
Ave neighs/atom = 28.9697
Ave special neighs/atom = 11.3333
Neighbor list builds = 0
Dangerous builds = 0
write_dump all custom pysimm.dump.tmp id q x y z vx vy vz
quit


################################################################################
##################################    Init    ##################################
################################################################################
units           real
atom_style      full
pair_style      lj/cut/coul/long 12.0  12.0
kspace_style    pppm 1e-4
bond_style      harmonic
angle_style     harmonic
dihedral_style  fourier
special_bonds   amber
pair_modify     mix arithmetic
read_data       temp.lmps
  orthogonal box = (-66.3825 -66.3825 -66.3825) to (66.3825 66.3825 66.3825)
  1 by 1 by 1 MPI processor grid
  reading atoms ...
  72 atoms
  reading velocities ...
  72 velocities
  scanning bonds ...
  4 = max bonds/atom
  scanning angles ...
  6 = max angles/atom
  scanning dihedrals ...
  13 = max dihedrals/atom
  reading bonds ...
  71 bonds
  reading angles ...
  138 angles
  reading dihedrals ...
  201 dihedrals
  4 = max # of 1-2 neighbors
  6 = max # of 1-3 neighbors
  12 = max # of 1-4 neighbors
  16 = max # of special neighbors
  special bonds CPU = 0.00023222 secs
  read_data CPU = 0.00387597 secs
################################################################################

timestep        1
fix             pysimm_md all nve/limit 0.1
run             2000
PPPM initialization ...
  using 12-bit tables for long-range coulomb (../kspace.cpp:332)
  G vector (1/distance) = 0.0866466
  grid = 10 10 10
  stencil order = 5
  estimated absolute RMS force accuracy = 0.0351384
  estimated relative force accuracy = 0.000105818
  using double precision KISS FFT
  3d grid and FFT values/proc = 3375 1000
Neighbor list info ...
  update every 1 steps, delay 10 steps, check yes
  max neighbors/atom: 2000, page size: 100000
  master list distance cutoff = 14
  ghost atom cutoff = 14
  binsize = 7, bins = 19 19 19
  1 neighbor lists, perpetual/occasional/extra = 1 0 0
  (1) pair lj/cut/coul/long, perpetual
      attributes: half, newton on
      pair build: half/bin/newton
      stencil: half/bin/3d/newton
      bin: standard
Per MPI rank memory allocation (min/avg/max) = 13.66 | 13.66 | 13.66 Mbytes
Step Temp E_pair E_mol TotEng Press 
       0     713.4042   -170.61037     1085.987    1066.3598    -25.98558 
    2000    763.13024   -166.67344    173.73084    168.56438    2.0563422 
Loop time of 0.701921 on 1 procs for 2000 steps with 72 atoms

Performance: 246.182 ns/day, 0.097 hours/ns, 2849.324 timesteps/s
100.0% CPU use with 1 MPI tasks x no OpenMP threads

MPI task timing breakdown:
Section |  min time  |  avg time  |  max time  |%varavg| %total
---------------------------------------------------------------
Pair    | 0.089869   | 0.089869   | 0.089869   |   0.0 | 12.80
Bond    | 0.058596   | 0.058596   | 0.058596   |   0.0 |  8.35
Kspace  | 0.54098    | 0.54098    | 0.54098    |   0.0 | 77.07
Neigh   | 0.0061433  | 0.0061433  | 0.0061433  |   0.0 |  0.88
Comm    | 0.0007236  | 0.0007236  | 0.0007236  |   0.0 |  0.10
Output  | 1.5974e-05 | 1.5974e-05 | 1.5974e-05 |   0.0 |  0.00
Modify  | 0.0029345  | 0.0029345  | 0.0029345  |   0.0 |  0.42
Other   |            | 0.002657   |            |       |  0.38

Nlocal:    72 ave 72 max 72 min
Histogram: 1 0 0 0 0 0 0 0 0 0
Nghost:    0 ave 0 max 0 min
Histogram: 1 0 0 0 0 0 0 0 0 0
Neighs:    2075 ave 2075 max 2075 min
Histogram: 1 0 0 0 0 0 0 0 0 0

Total # of neighbors = 2075
Ave neighs/atom = 28.8194
Ave special neighs/atom = 11.3889
Neighbor list builds = 84
Dangerous builds = 0
unfix pysimm_md
min_style cg
minimize 0.001 0.001 10000 100000
WARNING: Using 'neigh_modify every 1 delay 0 check yes' setting during minimization (../min.cpp:190)
PPPM initialization ...
  using 12-bit tables for long-range coulomb (../kspace.cpp:332)
  G vector (1/distance) = 0.0866466
  grid = 10 10 10
  stencil order = 5
  estimated absolute RMS force accuracy = 0.0351384
  estimated relative force accuracy = 0.000105818
  using double precision KISS FFT
  3d grid and FFT values/proc = 3375 1000
Per MPI rank memory allocation (min/avg/max) = 14.78 | 14.78 | 14.78 Mbytes
Step Temp E_pair E_mol TotEng Press 
    2000    763.13024   -166.67344    173.73084    168.56438    2.0563422 
    2023    763.13024    -180.1823    50.586713    31.911396    2.4345019 
Loop time of 0.038578 on 1 procs for 23 steps with 72 atoms

98.5% CPU use with 1 MPI tasks x no OpenMP threads

Minimization stats:
  Stopping criterion = linesearch alpha is zero
  Energy initial, next-to-last, final = 
         7.05739885574     -129.595589134     -129.595589134
  Force two-norm initial, final = 382.564 18.8061
  Force max component initial, final = 122.768 4.21314
  Final line search alpha, max atom move = 2.5705e-11 1.08299e-10
  Iterations, force evaluations = 23 101

MPI task timing breakdown:
Section |  min time  |  avg time  |  max time  |%varavg| %total
---------------------------------------------------------------
Pair    | 0.007951   | 0.007951   | 0.007951   |   0.0 | 20.61
Bond    | 0.003274   | 0.003274   | 0.003274   |   0.0 |  8.49
Kspace  | 0.027045   | 0.027045   | 0.027045   |   0.0 | 70.10
Neigh   | 0          | 0          | 0          |   0.0 |  0.00
Comm    | 3.0994e-05 | 3.0994e-05 | 3.0994e-05 |   0.0 |  0.08
Output  | 0          | 0          | 0          |   0.0 |  0.00
Modify  | 0          | 0          | 0          |   0.0 |  0.00
Other   |            | 0.0002775  |            |       |  0.72

Nlocal:    72 ave 72 max 72 min
Histogram: 1 0 0 0 0 0 0 0 0 0
Nghost:    0 ave 0 max 0 min
Histogram: 1 0 0 0 0 0 0 0 0 0
Neighs:    2082 ave 2082 max 2082 min
Histogram: 1 0 0 0 0 0 0 0 0 0

Total # of neighbors = 2082
Ave neighs/atom = 28.9167
Ave special neighs/atom = 11.3889
Neighbor list builds = 0
Dangerous builds = 0
write_dump all custom pysimm.dump.tmp id q x y z vx vy vz
quit


################################################################################
##################################    Init    ##################################
################################################################################
units           real
atom_style      full
pair_style      lj/cut/coul/long 12.0  12.0
kspace_style    pppm 1e-4
bond_style      harmonic
angle_style     harmonic
dihedral_style  fourier
special_bonds   amber
pair_modify     mix arithmetic
read_data       temp.lmps
  orthogonal box = (-68.336 -68.336 -68.336) to (68.336 68.336 68.336)
  1 by 1 by 1 MPI processor grid
  reading atoms ...
  78 atoms
  reading velocities ...
  78 velocities
  scanning bonds ...
  4 = max bonds/atom
  scanning angles ...
  6 = max angles/atom
  scanning dihedrals ...
  13 = max dihedrals/atom
  reading bonds ...
  77 bonds
  reading angles ...
  150 angles
  reading dihedrals ...
  219 dihedrals
  4 = max # of 1-2 neighbors
  6 = max # of 1-3 neighbors
  12 = max # of 1-4 neighbors
  16 = max # of special neighbors
  special bonds CPU = 0.00020504 secs
  read_data CPU = 0.00381398 secs
################################################################################

timestep        1
fix             pysimm_md all nve/limit 0.1
run             2000
PPPM initialization ...
  using 12-bit tables for long-range coulomb (../kspace.cpp:332)
  G vector (1/distance) = 0.0971154
  grid = 12 12 12
  stencil order = 5
  estimated absolute RMS force accuracy = 0.0265493
  estimated relative force accuracy = 7.99524e-05
  using double precision KISS FFT
  3d grid and FFT values/proc = 4913 1728
Neighbor list info ...
  update every 1 steps, delay 10 steps, check yes
  max neighbors/atom: 2000, page size: 100000
  master list distance cutoff = 14
  ghost atom cutoff = 14
  binsize = 7, bins = 20 20 20
  1 neighbor lists, perpetual/occasional/extra = 1 0 0
  (1) pair lj/cut/coul/long, perpetual
      attributes: half, newton on
      pair build: half/bin/newton
      stencil: half/bin/3d/newton
      bin: standard
Per MPI rank memory allocation (min/avg/max) = 13.79 | 13.79 | 13.79 Mbytes
Step Temp E_pair E_mol TotEng Press 
       0    703.66538   -189.52719    1071.6642     1043.644    -23.72524 
    2000    725.61487   -192.78457    216.78094    190.54122   -5.3142808 
Loop time of 0.993682 on 1 procs for 2000 steps with 78 atoms

Performance: 173.899 ns/day, 0.138 hours/ns, 2012.717 timesteps/s
100.0% CPU use with 1 MPI tasks x no OpenMP threads

MPI task timing breakdown:
Section |  min time  |  avg time  |  max time  |%varavg| %total
---------------------------------------------------------------
Pair    | 0.12161    | 0.12161    | 0.12161    |   0.0 | 12.24
Bond    | 0.065938   | 0.065938   | 0.065938   |   0.0 |  6.64
Kspace  | 0.79183    | 0.79183    | 0.79183    |   0.0 | 79.69
Neigh   | 0.0072498  | 0.0072498  | 0.0072498  |   0.0 |  0.73
Comm    | 0.00084877 | 0.00084877 | 0.00084877 |   0.0 |  0.09
Output  | 2.2888e-05 | 2.2888e-05 | 2.2888e-05 |   0.0 |  0.00
Modify  | 0.0031443  | 0.0031443  | 0.0031443  |   0.0 |  0.32
Other   |            | 0.003043   |            |       |  0.31

Nlocal:    78 ave 78 max 78 min
Histogram: 1 0 0 0 0 0 0 0 0 0
Nghost:    0 ave 0 max 0 min
Histogram: 1 0 0 0 0 0 0 0 0 0
Neighs:    2608 ave 2608 max 2608 min
Histogram: 1 0 0 0 0 0 0 0 0 0

Total # of neighbors = 2608
Ave neighs/atom = 33.4359
Ave special neighs/atom = 11.4359
Neighbor list builds = 81
Dangerous builds = 0
unfix pysimm_md
min_style cg
minimize 0.001 0.001 10000 100000
WARNING: Using 'neigh_modify every 1 delay 0 check yes' setting during minimization (../min.cpp:190)
PPPM initialization ...
  using 12-bit tables for long-range coulomb (../kspace.cpp:332)
  G vector (1/distance) = 0.0971154
  grid = 12 12 12
  stencil order = 5
  estimated absolute RMS force accuracy = 0.0265493
  estimated relative force accuracy = 7.99524e-05
  using double precision KISS FFT
  3d grid and FFT values/proc = 4913 1728
Per MPI rank memory allocation (min/avg/max) = 14.91 | 14.91 | 14.91 Mbytes
Step Temp E_pair E_mol TotEng Press 
    2000    725.61487   -192.78457    216.78094    190.54122   -5.3142808 
    2029    725.61487   -196.40104    60.207236     30.35104    3.4074987 
Loop time of 0.0307159 on 1 procs for 29 steps with 78 atoms

97.7% CPU use with 1 MPI tasks x no OpenMP threads

Minimization stats:
  Stopping criterion = energy tolerance
  Energy initial, next-to-last, final = 
         23.9963698963     -136.132902653     -136.193807122
  Force two-norm initial, final = 422.51 15.6836
  Force max component initial, final = 107.005 3.01515
  Final line search alpha, max atom move = 0.00793276 0.0239185
  Iterations, force evaluations = 29 57

MPI task timing breakdown:
Section |  min time  |  avg time  |  max time  |%varavg| %total
---------------------------------------------------------------
Pair    | 0.0058422  | 0.0058422  | 0.0058422  |   0.0 | 19.02
Bond    | 0.0020535  | 0.0020535  | 0.0020535  |   0.0 |  6.69
Kspace  | 0.022587   | 0.022587   | 0.022587   |   0.0 | 73.54
Neigh   | 0          | 0          | 0          |   0.0 |  0.00
Comm    | 2.3365e-05 | 2.3365e-05 | 2.3365e-05 |   0.0 |  0.08
Output  | 0          | 0          | 0          |   0.0 |  0.00
Modify  | 0          | 0          | 0          |   0.0 |  0.00
Other   |            | 0.0002098  |            |       |  0.68

Nlocal:    78 ave 78 max 78 min
Histogram: 1 0 0 0 0 0 0 0 0 0
Nghost:    0 ave 0 max 0 min
Histogram: 1 0 0 0 0 0 0 0 0 0
Neighs:    2598 ave 2598 max 2598 min
Histogram: 1 0 0 0 0 0 0 0 0 0

Total # of neighbors = 2598
Ave neighs/atom = 33.3077
Ave special neighs/atom = 11.4359
Neighbor list builds = 0
Dangerous builds = 0
write_dump all custom pysimm.dump.tmp id q x y z vx vy vz
quit


################################################################################
##################################    Init    ##################################
################################################################################
units           real
atom_style      full
pair_style      lj/cut/coul/long 12.0  12.0
kspace_style    pppm 1e-4
bond_style      harmonic
angle_style     harmonic
dihedral_style  fourier
special_bonds   amber
pair_modify     mix arithmetic
read_data       temp.lmps
  orthogonal box = (-70.1838 -70.1838 -70.1838) to (70.1838 70.1838 70.1838)
  1 by 1 by 1 MPI processor grid
  reading atoms ...
  84 atoms
  reading velocities ...
  84 velocities
  scanning bonds ...
  4 = max bonds/atom
  scanning angles ...
  6 = max angles/atom
  scanning dihedrals ...
  13 = max dihedrals/atom
  reading bonds ...
  83 bonds
  reading angles ...
  162 angles
  reading dihedrals ...
  237 dihedrals
  4 = max # of 1-2 neighbors
  6 = max # of 1-3 neighbors
  12 = max # of 1-4 neighbors
  16 = max # of special neighbors
  special bonds CPU = 0.000241995 secs
  read_data CPU = 0.0038898 secs
################################################################################

timestep        1
fix             pysimm_md all nve/limit 0.1
run             2000
PPPM initialization ...
  using 12-bit tables for long-range coulomb (../kspace.cpp:332)
  G vector (1/distance) = 0.0952467
  grid = 12 12 12
  stencil order = 5
  estimated absolute RMS force accuracy = 0.0278772
  estimated relative force accuracy = 8.39513e-05
  using double precision KISS FFT
  3d grid and FFT values/proc = 4913 1728
Neighbor list info ...
  update every 1 steps, delay 10 steps, check yes
  max neighbors/atom: 2000, page size: 100000
  master list distance cutoff = 14
  ghost atom cutoff = 14
  binsize = 7, bins = 21 21 21
  1 neighbor lists, perpetual/occasional/extra = 1 0 0
  (1) pair lj/cut/coul/long, perpetual
      attributes: half, newton on
      pair build: half/bin/newton
      stencil: half/bin/3d/newton
      bin: standard
Per MPI rank memory allocation (min/avg/max) = 13.8 | 13.8 | 13.8 Mbytes
Step Temp E_pair E_mol TotEng Press 
       0    673.16064   -206.21278    1081.4094    1041.7414   -20.811729 
    2000    742.46065   -202.00317    206.82943     188.5164     0.255132 
Loop time of 1.08448 on 1 procs for 2000 steps with 84 atoms

Performance: 159.339 ns/day, 0.151 hours/ns, 1844.199 timesteps/s
99.6% CPU use with 1 MPI tasks x no OpenMP threads

MPI task timing breakdown:
Section |  min time  |  avg time  |  max time  |%varavg| %total
---------------------------------------------------------------
Pair    | 0.15701    | 0.15701    | 0.15701    |   0.0 | 14.48
Bond    | 0.073028   | 0.073028   | 0.073028   |   0.0 |  6.73
Kspace  | 0.83633    | 0.83633    | 0.83633    |   0.0 | 77.12
Neigh   | 0.0098171  | 0.0098171  | 0.0098171  |   0.0 |  0.91
Comm    | 0.0016701  | 0.0016701  | 0.0016701  |   0.0 |  0.15
Output  | 2.2888e-05 | 2.2888e-05 | 2.2888e-05 |   0.0 |  0.00
Modify  | 0.0035152  | 0.0035152  | 0.0035152  |   0.0 |  0.32
Other   |            | 0.003093   |            |       |  0.29

Nlocal:    84 ave 84 max 84 min
Histogram: 1 0 0 0 0 0 0 0 0 0
Nghost:    46 ave 46 max 46 min
Histogram: 1 0 0 0 0 0 0 0 0 0
Neighs:    3191 ave 3191 max 3191 min
Histogram: 1 0 0 0 0 0 0 0 0 0

Total # of neighbors = 3191
Ave neighs/atom = 37.9881
Ave special neighs/atom = 11.4762
Neighbor list builds = 85
Dangerous builds = 0
unfix pysimm_md
min_style cg
minimize 0.001 0.001 10000 100000
WARNING: Using 'neigh_modify every 1 delay 0 check yes' setting during minimization (../min.cpp:190)
PPPM initialization ...
  using 12-bit tables for long-range coulomb (../kspace.cpp:332)
  G vector (1/distance) = 0.0952467
  grid = 12 12 12
  stencil order = 5
  estimated absolute RMS force accuracy = 0.0278772
  estimated relative force accuracy = 8.39513e-05
  using double precision KISS FFT
  3d grid and FFT values/proc = 4913 1728
Per MPI rank memory allocation (min/avg/max) = 14.92 | 14.92 | 14.92 Mbytes
Step Temp E_pair E_mol TotEng Press 
    2000    742.46065   -202.00317    206.82943     188.5164     0.255132 
    2017    742.46065   -213.71236    66.611825    36.589606    1.4493965 
Loop time of 0.0187731 on 1 procs for 17 steps with 84 atoms

101.2% CPU use with 1 MPI tasks x no OpenMP threads

Minimization stats:
  Stopping criterion = energy tolerance
  Energy initial, next-to-last, final = 
         4.82626021372     -146.981301191      -147.10053115
  Force two-norm initial, final = 455.514 29.7906
  Force max component initial, final = 114.659 6.5717
  Final line search alpha, max atom move = 0.00644064 0.042326
  Iterations, force evaluations = 17 34

MPI task timing breakdown:
Section |  min time  |  avg time  |  max time  |%varavg| %total
---------------------------------------------------------------
Pair    | 0.0041285  | 0.0041285  | 0.0041285  |   0.0 | 21.99
Bond    | 0.0012798  | 0.0012798  | 0.0012798  |   0.0 |  6.82
Kspace  | 0.013214   | 0.013214   | 0.013214   |   0.0 | 70.39
Neigh   | 0          | 0          | 0          |   0.0 |  0.00
Comm    | 2.9802e-05 | 2.9802e-05 | 2.9802e-05 |   0.0 |  0.16
Output  | 0          | 0          | 0          |   0.0 |  0.00
Modify  | 0          | 0          | 0          |   0.0 |  0.00
Other   |            | 0.0001214  |            |       |  0.65

Nlocal:    84 ave 84 max 84 min
Histogram: 1 0 0 0 0 0 0 0 0 0
Nghost:    46 ave 46 max 46 min
Histogram: 1 0 0 0 0 0 0 0 0 0
Neighs:    3191 ave 3191 max 3191 min
Histogram: 1 0 0 0 0 0 0 0 0 0

Total # of neighbors = 3191
Ave neighs/atom = 37.9881
Ave special neighs/atom = 11.4762
Neighbor list builds = 0
Dangerous builds = 0
write_dump all custom pysimm.dump.tmp id q x y z vx vy vz
quit


################################################################################
##################################    Init    ##################################
################################################################################
units           real
atom_style      full
pair_style      lj/cut/coul/long 12.0  12.0
kspace_style    pppm 1e-4
bond_style      harmonic
angle_style     harmonic
dihedral_style  fourier
special_bonds   amber
pair_modify     mix arithmetic
read_data       temp.lmps
  orthogonal box = (-71.9391 -71.9391 -71.9391) to (71.9391 71.9391 71.9391)
  1 by 1 by 1 MPI processor grid
  reading atoms ...
  90 atoms
  reading velocities ...
  90 velocities
  scanning bonds ...
  4 = max bonds/atom
  scanning angles ...
  6 = max angles/atom
  scanning dihedrals ...
  13 = max dihedrals/atom
  reading bonds ...
  89 bonds
  reading angles ...
  174 angles
  reading dihedrals ...
  255 dihedrals
  4 = max # of 1-2 neighbors
  6 = max # of 1-3 neighbors
  12 = max # of 1-4 neighbors
  16 = max # of special neighbors
  special bonds CPU = 0.000251055 secs
  read_data CPU = 0.003901 secs
################################################################################

timestep        1
fix             pysimm_md all nve/limit 0.1
run             2000
PPPM initialization ...
  using 12-bit tables for long-range coulomb (../kspace.cpp:332)
  G vector (1/distance) = 0.0935333
  grid = 12 12 12
  stencil order = 5
  estimated absolute RMS force accuracy = 0.029131
  estimated relative force accuracy = 8.7727e-05
  using double precision KISS FFT
  3d grid and FFT values/proc = 4913 1728
Neighbor list info ...
  update every 1 steps, delay 10 steps, check yes
  max neighbors/atom: 2000, page size: 100000
  master list distance cutoff = 14
  ghost atom cutoff = 14
  binsize = 7, bins = 21 21 21
  1 neighbor lists, perpetual/occasional/extra = 1 0 0
  (1) pair lj/cut/coul/long, perpetual
      attributes: half, newton on
      pair build: half/bin/newton
      stencil: half/bin/3d/newton
      bin: standard
Per MPI rank memory allocation (min/avg/max) = 13.8 | 13.8 | 13.8 Mbytes
Step Temp E_pair E_mol TotEng Press 
       0    692.40736   -222.30573    1087.0072    1048.3917   -20.881837 
    2000    625.16745   -202.06534     219.4524    183.23904   -2.0187617 
Loop time of 1.06905 on 1 procs for 2000 steps with 90 atoms

Performance: 161.640 ns/day, 0.148 hours/ns, 1870.829 timesteps/s
100.0% CPU use with 1 MPI tasks x no OpenMP threads

MPI task timing breakdown:
Section |  min time  |  avg time  |  max time  |%varavg| %total
---------------------------------------------------------------
Pair    | 0.15741    | 0.15741    | 0.15741    |   0.0 | 14.72
Bond    | 0.07434    | 0.07434    | 0.07434    |   0.0 |  6.95
Kspace  | 0.82013    | 0.82013    | 0.82013    |   0.0 | 76.72
Neigh   | 0.0096939  | 0.0096939  | 0.0096939  |   0.0 |  0.91
Comm    | 0.00090814 | 0.00090814 | 0.00090814 |   0.0 |  0.08
Output  | 1.7881e-05 | 1.7881e-05 | 1.7881e-05 |   0.0 |  0.00
Modify  | 0.0036013  | 0.0036013  | 0.0036013  |   0.0 |  0.34
Other   |            | 0.002944   |            |       |  0.28

Nlocal:    90 ave 90 max 90 min
Histogram: 1 0 0 0 0 0 0 0 0 0
Nghost:    5 ave 5 max 5 min
Histogram: 1 0 0 0 0 0 0 0 0 0
Neighs:    3688 ave 3688 max 3688 min
Histogram: 1 0 0 0 0 0 0 0 0 0

Total # of neighbors = 3688
Ave neighs/atom = 40.9778
Ave special neighs/atom = 11.5111
Neighbor list builds = 90
Dangerous builds = 0
unfix pysimm_md
min_style cg
minimize 0.001 0.001 10000 100000
WARNING: Using 'neigh_modify every 1 delay 0 check yes' setting during minimization (../min.cpp:190)
PPPM initialization ...
  using 12-bit tables for long-range coulomb (../kspace.cpp:332)
  G vector (1/distance) = 0.0935333
  grid = 12 12 12
  stencil order = 5
  estimated absolute RMS force accuracy = 0.029131
  estimated relative force accuracy = 8.7727e-05
  using double precision KISS FFT
  3d grid and FFT values/proc = 4913 1728
Per MPI rank memory allocation (min/avg/max) = 14.92 | 14.92 | 14.92 Mbytes
Step Temp E_pair E_mol TotEng Press 
    2000    625.16745   -202.06534     219.4524    183.23904   -2.0187617 
    2046    625.16745    -224.6779    60.608018       1.7821    2.6228153 
Loop time of 0.052536 on 1 procs for 46 steps with 90 atoms

99.0% CPU use with 1 MPI tasks x no OpenMP threads

Minimization stats:
  Stopping criterion = energy tolerance
  Energy initial, next-to-last, final = 
         17.3870598063     -163.922691702     -164.069883157
  Force two-norm initial, final = 468.363 12.6057
  Force max component initial, final = 113.282 2.44408
  Final line search alpha, max atom move = 0.011132 0.0272076
  Iterations, force evaluations = 46 92

[...]
Histogram: 1 0 0 0 0 0 0 0 0 0
Neighs:    10483 ave 10483 max 10483 min
Histogram: 1 0 0 0 0 0 0 0 0 0

Total # of neighbors = 10483
Ave neighs/atom = 37.1738
Ave special neighs/atom = 11.844
Neighbor list builds = 77
Dangerous builds = 0
unfix pysimm_md
min_style cg
minimize 0.001 0.001 10000 100000
WARNING: Using 'neigh_modify every 1 delay 0 check yes' setting during minimization (../min.cpp:190)
PPPM initialization ...
  using 12-bit tables for long-range coulomb (../kspace.cpp:332)
  G vector (1/distance) = 0.0861914
  grid = 16 16 16
  stencil order = 5
  estimated absolute RMS force accuracy = 0.0343944
  estimated relative force accuracy = 0.000103578
  using double precision KISS FFT
  3d grid and FFT values/proc = 9261 4096
Per MPI rank memory allocation (min/avg/max) = 15.43 | 15.43 | 15.43 Mbytes
Step Temp E_pair E_mol TotEng Press 
    2000    280.77698   -746.92027     331.3045   -180.43482   0.66720349 
    2014    280.77698   -761.05692    198.44563   -327.43034   0.69293102 
Loop time of 0.045378 on 1 procs for 14 steps with 282 atoms

99.2% CPU use with 1 MPI tasks x no OpenMP threads

Minimization stats:
  Stopping criterion = energy tolerance
  Energy initial, next-to-last, final = 
        -415.615761957     -562.092079961     -562.611285251
  Force two-norm initial, final = 424.253 37.2745
  Force max component initial, final = 101.03 8.94213
  Final line search alpha, max atom move = 0.00474065 0.0423915
  Iterations, force evaluations = 14 28

MPI task timing breakdown:
Section |  min time  |  avg time  |  max time  |%varavg| %total
---------------------------------------------------------------
Pair    | 0.011455   | 0.011455   | 0.011455   |   0.0 | 25.24
Bond    | 0.003932   | 0.003932   | 0.003932   |   0.0 |  8.66
Kspace  | 0.029744   | 0.029744   | 0.029744   |   0.0 | 65.55
Neigh   | 0          | 0          | 0          |   0.0 |  0.00
Comm    | 1.2636e-05 | 1.2636e-05 | 1.2636e-05 |   0.0 |  0.03
Output  | 0          | 0          | 0          |   0.0 |  0.00
Modify  | 0          | 0          | 0          |   0.0 |  0.00
Other   |            | 0.0002351  |            |       |  0.52

Nlocal:    282 ave 282 max 282 min
Histogram: 1 0 0 0 0 0 0 0 0 0
Nghost:    0 ave 0 max 0 min
Histogram: 1 0 0 0 0 0 0 0 0 0
Neighs:    10511 ave 10511 max 10511 min
Histogram: 1 0 0 0 0 0 0 0 0 0

Total # of neighbors = 10511
Ave neighs/atom = 37.273
Ave special neighs/atom = 11.844
Neighbor list builds = 0
Dangerous builds = 0
write_dump all custom pysimm.dump.tmp id q x y z vx vy vz
quit


################################################################################
##################################    Init    ##################################
################################################################################
units           real
atom_style      full
pair_style      lj/cut/coul/long 12.0  12.0
kspace_style    pppm 1e-4
bond_style      harmonic
angle_style     harmonic
dihedral_style  fourier
special_bonds   amber
pair_modify     mix arithmetic
read_data       temp.lmps
  orthogonal box = (-107.718 -107.718 -107.718) to (107.718 107.718 107.718)
  1 by 1 by 1 MPI processor grid
  reading atoms ...
  288 atoms
  reading velocities ...
  288 velocities
  scanning bonds ...
  4 = max bonds/atom
  scanning angles ...
  6 = max angles/atom
  scanning dihedrals ...
  13 = max dihedrals/atom
  reading bonds ...
  287 bonds
  reading angles ...
  570 angles
  reading dihedrals ...
  849 dihedrals
  4 = max # of 1-2 neighbors
  6 = max # of 1-3 neighbors
  12 = max # of 1-4 neighbors
  16 = max # of special neighbors
  special bonds CPU = 0.000344992 secs
  read_data CPU = 0.00560498 secs
################################################################################

timestep        1
fix             pysimm_md all nve/limit 0.1
run             2000
PPPM initialization ...
  using 12-bit tables for long-range coulomb (../kspace.cpp:332)
  G vector (1/distance) = 0.0857203
  grid = 16 16 16
  stencil order = 5
  estimated absolute RMS force accuracy = 0.0347897
  estimated relative force accuracy = 0.000104768
  using double precision KISS FFT
  3d grid and FFT values/proc = 9261 4096
Neighbor list info ...
  update every 1 steps, delay 10 steps, check yes
  max neighbors/atom: 2000, page size: 100000
  master list distance cutoff = 14
  ghost atom cutoff = 14
  binsize = 7, bins = 31 31 31
  1 neighbor lists, perpetual/occasional/extra = 1 0 0
  (1) pair lj/cut/coul/long, perpetual
      attributes: half, newton on
      pair build: half/bin/newton
      stencil: half/bin/3d/newton
      bin: standard
Per MPI rank memory allocation (min/avg/max) = 14.3 | 14.3 | 14.3 Mbytes
Step Temp E_pair E_mol TotEng Press 
       0    274.90707   -771.33369    1223.0972    686.94445   -5.9967655 
    2000     197.1117    -746.3758    356.29946   -221.44876   0.31476134 
Loop time of 2.80942 on 1 procs for 2000 steps with 288 atoms

Performance: 61.507 ns/day, 0.390 hours/ns, 711.890 timesteps/s
99.6% CPU use with 1 MPI tasks x no OpenMP threads

MPI task timing breakdown:
Section |  min time  |  avg time  |  max time  |%varavg| %total
---------------------------------------------------------------
Pair    | 0.49186    | 0.49186    | 0.49186    |   0.0 | 17.51
Bond    | 0.24752    | 0.24752    | 0.24752    |   0.0 |  8.81
Kspace  | 2.0193     | 2.0193     | 2.0193     |   0.0 | 71.88
Neigh   | 0.035011   | 0.035011   | 0.035011   |   0.0 |  1.25
Comm    | 0.001241   | 0.001241   | 0.001241   |   0.0 |  0.04
Output  | 2.1935e-05 | 2.1935e-05 | 2.1935e-05 |   0.0 |  0.00
Modify  | 0.0098779  | 0.0098779  | 0.0098779  |   0.0 |  0.35
Other   |            | 0.00454    |            |       |  0.16

Nlocal:    288 ave 288 max 288 min
Histogram: 1 0 0 0 0 0 0 0 0 0
Nghost:    0 ave 0 max 0 min
Histogram: 1 0 0 0 0 0 0 0 0 0
Neighs:    10923 ave 10923 max 10923 min
Histogram: 1 0 0 0 0 0 0 0 0 0

Total # of neighbors = 10923
Ave neighs/atom = 37.9271
Ave special neighs/atom = 11.8472
Neighbor list builds = 87
Dangerous builds = 0
unfix pysimm_md
min_style cg
minimize 0.001 0.001 10000 100000
WARNING: Using 'neigh_modify every 1 delay 0 check yes' setting during minimization (../min.cpp:190)
PPPM initialization ...
  using 12-bit tables for long-range coulomb (../kspace.cpp:332)
  G vector (1/distance) = 0.0857203
  grid = 16 16 16
  stencil order = 5
  estimated absolute RMS force accuracy = 0.0347897
  estimated relative force accuracy = 0.000104768
  using double precision KISS FFT
  3d grid and FFT values/proc = 9261 4096
Per MPI rank memory allocation (min/avg/max) = 15.43 | 15.43 | 15.43 Mbytes
Step Temp E_pair E_mol TotEng Press 
    2000     197.1117    -746.3758    356.29946   -221.44876   0.31476134 
    2015     197.1117   -770.04146    200.68535   -400.72854    0.5613361 
Loop time of 0.135615 on 1 procs for 15 steps with 288 atoms

99.5% CPU use with 1 MPI tasks x no OpenMP threads

Minimization stats:
  Stopping criterion = linesearch alpha is zero
  Energy initial, next-to-last, final = 
        -390.076339375      -569.35611587      -569.35611587
  Force two-norm initial, final = 480.229 33.9713
  Force max component initial, final = 113.115 8.53138
  Final line search alpha, max atom move = 5.56769e-12 4.75e-11
  Iterations, force evaluations = 15 89

MPI task timing breakdown:
Section |  min time  |  avg time  |  max time  |%varavg| %total
---------------------------------------------------------------
Pair    | 0.035961   | 0.035961   | 0.035961   |   0.0 | 26.52
Bond    | 0.011974   | 0.011974   | 0.011974   |   0.0 |  8.83
Kspace  | 0.087126   | 0.087126   | 0.087126   |   0.0 | 64.25
Neigh   | 0          | 0          | 0          |   0.0 |  0.00
Comm    | 2.6941e-05 | 2.6941e-05 | 2.6941e-05 |   0.0 |  0.02
Output  | 0          | 0          | 0          |   0.0 |  0.00
Modify  | 0          | 0          | 0          |   0.0 |  0.00
Other   |            | 0.0005271  |            |       |  0.39

Nlocal:    288 ave 288 max 288 min
Histogram: 1 0 0 0 0 0 0 0 0 0
Nghost:    0 ave 0 max 0 min
Histogram: 1 0 0 0 0 0 0 0 0 0
Neighs:    10939 ave 10939 max 10939 min
Histogram: 1 0 0 0 0 0 0 0 0 0

Total # of neighbors = 10939
Ave neighs/atom = 37.9826
Ave special neighs/atom = 11.8472
Neighbor list builds = 0
Dangerous builds = 0
write_dump all custom pysimm.dump.tmp id q x y z vx vy vz
quit


################################################################################
##################################    Init    ##################################
################################################################################
units           real
atom_style      full
pair_style      lj/cut/coul/long 12.0  12.0
kspace_style    pppm 1e-4
bond_style      harmonic
angle_style     harmonic
dihedral_style  fourier
special_bonds   amber
pair_modify     mix arithmetic
read_data       temp.lmps
  orthogonal box = (-108.477 -108.477 -108.477) to (108.477 108.477 108.477)
  1 by 1 by 1 MPI processor grid
  reading atoms ...
  294 atoms
  reading velocities ...
  294 velocities
  scanning bonds ...
  4 = max bonds/atom
  scanning angles ...
  6 = max angles/atom
  scanning dihedrals ...
  13 = max dihedrals/atom
  reading bonds ...
  293 bonds
  reading angles ...
  582 angles
  reading dihedrals ...
  867 dihedrals
  4 = max # of 1-2 neighbors
  6 = max # of 1-3 neighbors
  12 = max # of 1-4 neighbors
  16 = max # of special neighbors
  special bonds CPU = 0.00041604 secs
  read_data CPU = 0.00577402 secs
################################################################################

timestep        1
fix             pysimm_md all nve/limit 0.1
run             2000
PPPM initialization ...
  using 12-bit tables for long-range coulomb (../kspace.cpp:332)
  G vector (1/distance) = 0.0852606
  grid = 16 16 16
  stencil order = 5
  estimated absolute RMS force accuracy = 0.0351778
  estimated relative force accuracy = 0.000105937
  using double precision KISS FFT
  3d grid and FFT values/proc = 9261 4096
Neighbor list info ...
  update every 1 steps, delay 10 steps, check yes
  max neighbors/atom: 2000, page size: 100000
  master list distance cutoff = 14
  ghost atom cutoff = 14
  binsize = 7, bins = 31 31 31
  1 neighbor lists, perpetual/occasional/extra = 1 0 0
  (1) pair lj/cut/coul/long, perpetual
      attributes: half, newton on
      pair build: half/bin/newton
      stencil: half/bin/3d/newton
      bin: standard
Per MPI rank memory allocation (min/avg/max) = 14.3 | 14.3 | 14.3 Mbytes
Step Temp E_pair E_mol TotEng Press 
       0    193.07533   -780.15443    1213.2615     601.7347   -5.9024674 
    2000     223.7587   -779.45298    348.85641   -235.17079 -0.013244298 
Loop time of 2.76175 on 1 procs for 2000 steps with 294 atoms

Performance: 62.569 ns/day, 0.384 hours/ns, 724.178 timesteps/s
100.0% CPU use with 1 MPI tasks x no OpenMP threads

MPI task timing breakdown:
Section |  min time  |  avg time  |  max time  |%varavg| %total
---------------------------------------------------------------
Pair    | 0.48729    | 0.48729    | 0.48729    |   0.0 | 17.64
Bond    | 0.2476     | 0.2476     | 0.2476     |   0.0 |  8.97
Kspace  | 1.9794     | 1.9794     | 1.9794     |   0.0 | 71.67
Neigh   | 0.031505   | 0.031505   | 0.031505   |   0.0 |  1.14
Comm    | 0.0012653  | 0.0012653  | 0.0012653  |   0.0 |  0.05
Output  | 2.408e-05  | 2.408e-05  | 2.408e-05  |   0.0 |  0.00
Modify  | 0.0099242  | 0.0099242  | 0.0099242  |   0.0 |  0.36
Other   |            | 0.004719   |            |       |  0.17

Nlocal:    294 ave 294 max 294 min
Histogram: 1 0 0 0 0 0 0 0 0 0
Nghost:    0 ave 0 max 0 min
Histogram: 1 0 0 0 0 0 0 0 0 0
Neighs:    10743 ave 10743 max 10743 min
Histogram: 1 0 0 0 0 0 0 0 0 0

Total # of neighbors = 10743
Ave neighs/atom = 36.5408
Ave special neighs/atom = 11.8503
Neighbor list builds = 80
Dangerous builds = 0
unfix pysimm_md
min_style cg
minimize 0.001 0.001 10000 100000
WARNING: Using 'neigh_modify every 1 delay 0 check yes' setting during minimization (../min.cpp:190)
PPPM initialization ...
  using 12-bit tables for long-range coulomb (../kspace.cpp:332)
  G vector (1/distance) = 0.0852606
  grid = 16 16 16
  stencil order = 5
  estimated absolute RMS force accuracy = 0.0351778
  estimated relative force accuracy = 0.000105937
  using double precision KISS FFT
  3d grid and FFT values/proc = 9261 4096
Per MPI rank memory allocation (min/avg/max) = 15.43 | 15.43 | 15.43 Mbytes
Step Temp E_pair E_mol TotEng Press 
    2000     223.7587   -779.45298    348.85641   -235.17079 -0.013244298 
    2010     223.7587   -792.20315    217.85739   -378.91997   0.25055297 
Loop time of 0.032095 on 1 procs for 10 steps with 294 atoms

99.7% CPU use with 1 MPI tasks x no OpenMP threads

Minimization stats:
  Stopping criterion = energy tolerance
  Energy initial, next-to-last, final = 
        -430.596567299     -574.001437674     -574.345753811
  Force two-norm initial, final = 467.861 41.5254
  Force max component initial, final = 119.352 10.0012
  Final line search alpha, max atom move = 0.00478013 0.0478068
  Iterations, force evaluations = 10 20

MPI task timing breakdown:
Section |  min time  |  avg time  |  max time  |%varavg| %total
---------------------------------------------------------------
Pair    | 0.008688   | 0.008688   | 0.008688   |   0.0 | 27.07
Bond    | 0.0028961  | 0.0028961  | 0.0028961  |   0.0 |  9.02
Kspace  | 0.020324   | 0.020324   | 0.020324   |   0.0 | 63.32
Neigh   | 0          | 0          | 0          |   0.0 |  0.00
Comm    | 9.0599e-06 | 9.0599e-06 | 9.0599e-06 |   0.0 |  0.03
Output  | 0          | 0          | 0          |   0.0 |  0.00
Modify  | 0          | 0          | 0          |   0.0 |  0.00
Other   |            | 0.0001779  |            |       |  0.55

Nlocal:    294 ave 294 max 294 min
Histogram: 1 0 0 0 0 0 0 0 0 0
Nghost:    0 ave 0 max 0 min
Histogram: 1 0 0 0 0 0 0 0 0 0
Neighs:    10743 ave 10743 max 10743 min
Histogram: 1 0 0 0 0 0 0 0 0 0

Total # of neighbors = 10743
Ave neighs/atom = 36.5408
Ave special neighs/atom = 11.8503
Neighbor list builds = 0
Dangerous builds = 0
write_dump all custom pysimm.dump.tmp id q x y z vx vy vz
quit


################################################################################
##################################    Init    ##################################
################################################################################
units           real
atom_style      full
pair_style      lj/cut/coul/long 12.0  12.0
kspace_style    pppm 1e-4
bond_style      harmonic
angle_style     harmonic
dihedral_style  fourier
special_bonds   amber
pair_modify     mix arithmetic
read_data       temp.lmps
  orthogonal box = (-109.225 -109.225 -109.225) to (109.225 109.225 109.225)
  1 by 1 by 1 MPI processor grid
  reading atoms ...
  300 atoms
  reading velocities ...
  300 velocities
  scanning bonds ...
  4 = max bonds/atom
  scanning angles ...
  6 = max angles/atom
  scanning dihedrals ...
  13 = max dihedrals/atom
  reading bonds ...
  299 bonds
  reading angles ...
  594 angles
  reading dihedrals ...
  885 dihedrals
  4 = max # of 1-2 neighbors
  6 = max # of 1-3 neighbors
  12 = max # of 1-4 neighbors
  16 = max # of special neighbors
  special bonds CPU = 0.000386 secs
  read_data CPU = 0.00544715 secs
################################################################################

timestep        1
fix             pysimm_md all nve/limit 0.1
run             2000
PPPM initialization ...
  using 12-bit tables for long-range coulomb (../kspace.cpp:332)
  G vector (1/distance) = 0.084812
  grid = 16 16 16
  stencil order = 5
  estimated absolute RMS force accuracy = 0.0355589
  estimated relative force accuracy = 0.000107084
  using double precision KISS FFT
  3d grid and FFT values/proc = 9261 4096
Neighbor list info ...
  update every 1 steps, delay 10 steps, check yes
  max neighbors/atom: 2000, page size: 100000
  master list distance cutoff = 14
  ghost atom cutoff = 14
  binsize = 7, bins = 32 32 32
  1 neighbor lists, perpetual/occasional/extra = 1 0 0
  (1) pair lj/cut/coul/long, perpetual
      attributes: half, newton on
      pair build: half/bin/newton
      stencil: half/bin/3d/newton
      bin: standard
Per MPI rank memory allocation (min/avg/max) = 14.32 | 14.32 | 14.32 Mbytes
Step Temp E_pair E_mol TotEng Press 
       0    219.26837   -801.62145    1239.3788    633.18295   -6.1158219 
    2000    234.41732   -795.55649    365.89797   -220.73122   0.51209936 
Loop time of 2.8429 on 1 procs for 2000 steps with 300 atoms

Performance: 60.783 ns/day, 0.395 hours/ns, 703.507 timesteps/s
100.0% CPU use with 1 MPI tasks x no OpenMP threads

MPI task timing breakdown:
Section |  min time  |  avg time  |  max time  |%varavg| %total
---------------------------------------------------------------
Pair    | 0.51242    | 0.51242    | 0.51242    |   0.0 | 18.02
Bond    | 0.26019    | 0.26019    | 0.26019    |   0.0 |  9.15
Kspace  | 2.0187     | 2.0187     | 2.0187     |   0.0 | 71.01
Neigh   | 0.034967   | 0.034967   | 0.034967   |   0.0 |  1.23
Comm    | 0.0014141  | 0.0014141  | 0.0014141  |   0.0 |  0.05
Output  | 2.408e-05  | 2.408e-05  | 2.408e-05  |   0.0 |  0.00
Modify  | 0.010372   | 0.010372   | 0.010372   |   0.0 |  0.36
Other   |            | 0.004853   |            |       |  0.17

Nlocal:    300 ave 300 max 300 min
Histogram: 1 0 0 0 0 0 0 0 0 0
Nghost:    0 ave 0 max 0 min
Histogram: 1 0 0 0 0 0 0 0 0 0
Neighs:    11120 ave 11120 max 11120 min
Histogram: 1 0 0 0 0 0 0 0 0 0

Total # of neighbors = 11120
Ave neighs/atom = 37.0667
Ave special neighs/atom = 11.8533
Neighbor list builds = 86
Dangerous builds = 0
unfix pysimm_md
min_style cg
minimize 0.001 0.001 10000 100000
WARNING: Using 'neigh_modify every 1 delay 0 check yes' setting during minimization (../min.cpp:190)
PPPM initialization ...
  using 12-bit tables for long-range coulomb (../kspace.cpp:332)
  G vector (1/distance) = 0.084812
  grid = 16 16 16
  stencil order = 5
  estimated absolute RMS force accuracy = 0.0355589
  estimated relative force accuracy = 0.000107084
  using double precision KISS FFT
  3d grid and FFT values/proc = 9261 4096
Per MPI rank memory allocation (min/avg/max) = 15.44 | 15.44 | 15.44 Mbytes
Step Temp E_pair E_mol TotEng Press 
    2000    234.41732   -795.55649    365.89797   -220.73122   0.51209936 
    2010    234.41732   -812.93165    213.05234   -390.95202   0.59457233 
Loop time of 0.0305071 on 1 procs for 10 steps with 300 atoms

98.3% CPU use with 1 MPI tasks x no OpenMP threads

Minimization stats:
  Stopping criterion = energy tolerance
  Energy initial, next-to-last, final = 
        -429.658516282     -599.703322244     -599.879314972
  Force two-norm initial, final = 423.559 41.045
  Force max component initial, final = 103.689 9.29955
  Final line search alpha, max atom move = 0.00481319 0.0447605
  Iterations, force evaluations = 10 20

MPI task timing breakdown:
Section |  min time  |  avg time  |  max time  |%varavg| %total
---------------------------------------------------------------
Pair    | 0.0082839  | 0.0082839  | 0.0082839  |   0.0 | 27.15
Bond    | 0.0028479  | 0.0028479  | 0.0028479  |   0.0 |  9.34
Kspace  | 0.019187   | 0.019187   | 0.019187   |   0.0 | 62.90
Neigh   | 0          | 0          | 0          |   0.0 |  0.00
Comm    | 6.1989e-06 | 6.1989e-06 | 6.1989e-06 |   0.0 |  0.02
Output  | 0          | 0          | 0          |   0.0 |  0.00
Modify  | 0          | 0          | 0          |   0.0 |  0.00
Other   |            | 0.0001817  |            |       |  0.60

Nlocal:    300 ave 300 max 300 min
Histogram: 1 0 0 0 0 0 0 0 0 0
Nghost:    0 ave 0 max 0 min
Histogram: 1 0 0 0 0 0 0 0 0 0
Neighs:    11121 ave 11121 max 11121 min
Histogram: 1 0 0 0 0 0 0 0 0 0

Total # of neighbors = 11121
Ave neighs/atom = 37.07
Ave special neighs/atom = 11.8533
Neighbor list builds = 0
Dangerous builds = 0
write_dump all custom pysimm.dump.tmp id q x y z vx vy vz
quit
