pySIMM System Object

1122 atoms
1226 bonds
2156 angles
3240 dihedrals
336 impropers

9 atom types
11 bond types
18 angle types
7 dihedral types
4 improper types

-134.534396 134.534396 xlo xhi
-134.534396 134.534396 ylo yhi
-134.534396 134.534396 zlo zhi

Masses

   1	12.01	# ca
   2	16.0	# o
   3	12.01	# c
   4	14.01	# n
   5	12.01	# c3
   6	19.0	# f
   7	1.008	# ha
   8	1.008	# hn
   9	1.008	# hc

Pair Coeffs

   1	0.086	3.3996695084235347	# ca
   2	0.21	2.959921901149463	# o
   3	0.086	3.3996695084235347	# c
   4	0.17	3.249998523775958	# n
   5	0.1094	3.3996695084235347	# c3
   6	0.061	3.1181455134911875	# f
   7	0.015	2.59964245953351	# ha
   8	0.0157	1.069078461768407	# hn
   9	0.0157	2.649532787749369	# hc

Bond Coeffs

   1	403.2	1.0129	# hn,n
   2	427.6	1.3789	# c,n
   3	461.1	1.3984	# ca,ca
   4	637.7	1.2183	# c,o
   5	300.9	1.5375	# c3,c3
   6	345.8	1.086	# ca,ha
   7	356.9	1.3497	# c3,f
   8	345.9	1.4906	# c,ca
   9	384.2	1.4121	# ca,n
  10	321.0	1.5156	# c3,ca
  11	330.6	1.0969	# c3,hc

Angle Coeffs

   1	66.11	109.24	# c3,c3,f
   2	46.8	110.47	# ca,c3,hc
   3	74.22	123.05	# n,c,o
   4	63.56	112.24	# ca,c3,ca
   5	70.89	107.36	# f,c3,f
   6	66.62	120.02	# ca,ca,ca
   7	62.86	111.51	# c3,c3,c3
   8	63.53	120.77	# c3,ca,ca
   9	63.15	112.07	# c3,c3,ca
  10	68.72	122.6	# ca,c,o
  11	63.82	123.71	# c,n,ca
  12	67.68	115.25	# ca,c,n
  13	48.33	117.55	# c,n,hn
  14	67.87	120.19	# ca,ca,n
  15	48.18	119.88	# ca,ca,ha
  16	64.28	120.33	# c,ca,ca
  17	63.74	127.08	# c,n,c
  18	39.4	107.58	# hc,c3,hc

Dihedral Coeffs

   1	1	2.5	2	180	# X,c,n,X
   2	1	0.45	2	180	# X,ca,n,X
   3	1	1.0	2	180	# X,c,ca,X
   4	2	2.5	2	180	2.0	1	0	# hn,n,c,o
   5	1	3.625	2	180	# X,ca,ca,X
   6	1	0.15555555555555556	3	0	# X,c3,c3,X
   7	1	0.0	2	0	# X,c3,ca,X

Improper Coeffs

   1	1.1	-1	2	# n,X,X,hn
   2	10.5	-1	2	# c,X,X,o
   3	1.1	-1	2	# ca,ca,ca,c3
   4	1.1	-1	2	# ca,X,X,ha

Atoms

   1	1	1	-0.004194	-10.6973	-3.05858	-28.4979
   2	1	1	-0.097141	-11.92	-3.33713	-29.1796
   3	1	1	-0.172015	-12.0152	-2.95288	-30.5453
   4	1	2	-0.377994	-8.00575	-1.89358	-27.5008
   5	1	1	0.033493	-9.63437	-2.47564	-29.1914
   6	1	1	-0.063739	-10.92	-2.38906	-31.2372
   7	1	2	-0.398381	-8.29022	-0.98173	-32.0503
   8	1	1	0.032144	-9.73434	-2.17051	-30.5302
   9	1	3	0.032313	-8.35739	-1.91845	-28.6703
  10	1	4	0.461698	-7.72932	-1.34747	-29.7799
  11	1	3	0.091945	-8.50509	-1.44481	-30.9402
  12	1	1	-0.10563	-14.4606	-6.34323	-31.252
  13	1	5	-0.099376	-13.1563	-3.94217	-28.432
  14	1	1	-0.043296	-14.1168	-4.72501	-29.3932
  15	1	1	-0.073043	-13.6122	-5.5743	-30.4234
  16	1	1	-0.117827	-15.8382	-6.29814	-31.0009
  17	1	1	-0.037562	-15.5188	-4.72933	-29.1751
  18	1	1	-0.083705	-16.3305	-5.53459	-29.9663
  19	1	5	0.396	-13.9016	-2.76529	-27.6765
  20	1	5	0.310495	-12.6781	-4.99857	-27.3744
  21	1	6	-0.130298	-13.0295	-1.949	-27.0532
  22	1	6	-0.128745	-14.7558	-3.19847	-26.7131
  23	1	6	-0.120019	-14.6028	-1.97314	-28.5218
  24	1	6	-0.104287	-11.7844	-5.86086	-27.919
  25	1	6	-0.095507	-13.7115	-5.7401	-26.9278
  26	1	6	-0.104872	-12.1197	-4.44414	-26.2763
  27	1	3	0.456145	-17.7806	-5.77763	-29.8227
  28	1	3	0.550902	-16.9972	-7.01896	-31.6046
  29	1	4	0.015704	-18.0979	-6.67543	-30.8245
  30	1	2	-0.456801	-18.4955	-5.32982	-28.9451
  31	1	2	-0.487703	-16.9638	-7.7331	-32.5922
  32	1	1	-0.116566	-19.3999	-7.21543	-30.9963
  33	1	1	-0.050109	-19.7761	-8.36861	-30.2775
  34	1	1	0.154929	-21.0581	-8.91422	-30.4757
  35	1	1	0.041555	-20.3132	-6.58238	-31.8662
  36	1	1	-0.223109	-21.5822	-7.14939	-32.0647
  37	1	1	-0.080449	-21.9576	-8.31945	-31.3844
  38	1	5	-0.108008	-19.9434	-5.29597	-32.5938
  39	1	5	-0.182228	-23.3173	-8.94516	-31.6573
  40	1	5	-0.345523	-18.806	-9.03229	-29.3054
  41	1	7	0.155183	-10.5652	-3.21649	-27.4344
  42	1	7	0.172904	-12.9549	-3.06751	-31.0778
  43	1	7	0.158028	-11.0052	-2.07004	-32.275
  44	1	7	0.153129	-14.0546	-6.98288	-32.0323
  45	1	7	0.142914	-12.536	-5.64529	-30.5827
  46	1	7	0.135531	-16.0004	-4.18036	-28.3796
  47	1	7	0.17765	-22.2766	-6.6801	-32.7529
  48	1	9	0.046541	-20.7771	-4.92166	-33.2007
  49	1	9	0.045238	-19.0917	-5.46043	-33.2671
  50	1	9	0.051941	-19.675	-4.50751	-31.8785
  51	1	9	0.087961	-23.3865	-9.29057	-32.6978
  52	1	9	0.066782	-24.1219	-8.22085	-31.4915
  53	1	9	0.075908	-23.5036	-9.80921	-31.005
  54	1	9	0.105172	-17.8413	-9.25755	-29.7792
  55	1	9	0.115625	-19.2054	-9.97925	-28.9229
  56	1	9	0.140296	-18.6234	-8.38864	-28.4376
  57	1	4	0.486064	7.98375	1.33387	-33.3193
  58	1	3	0.047133	7.41945	0.192947	-33.881
  59	1	1	0.001076	6.00301	0.187168	-33.448
  60	1	3	0.034038	7.04151	2.11657	-32.6531
  61	1	1	0.050122	5.78419	1.31158	-32.6766
  62	1	2	-0.383076	7.9639	-0.678039	-34.5328
  63	1	2	-0.380811	7.20804	3.20814	-32.1335
  64	1	1	-0.001248	5.04591	-0.821839	-33.6086
  65	1	1	-0.036565	4.58213	1.4642	-31.9792
  66	1	1	-0.208842	3.59885	0.450491	-32.1249
  67	1	1	-0.065319	3.79422	-0.699692	-32.9529
  68	1	7	0.153391	5.32191	-1.70359	-34.1793
  69	1	7	0.155343	4.4316	2.31342	-31.3168
  70	1	7	0.174191	2.68846	0.543245	-31.5351
  71	1	5	-0.106637	2.74717	-1.86429	-32.9827
  72	1	5	0.445763	2.64721	-2.61296	-34.3816
  73	1	6	-0.144255	3.71349	-3.38755	-34.6529
  74	1	6	-0.136881	2.5307	-1.76206	-35.4321
  75	1	6	-0.144092	1.56438	-3.4258	-34.4364
  76	1	5	0.367264	3.20878	-2.85004	-31.8429
  77	1	6	-0.12104	2.36984	-3.90222	-31.6779
  78	1	6	-0.122614	3.29943	-2.1848	-30.6681
  79	1	6	-0.112321	4.44473	-3.3506	-32.0646
  80	1	1	-0.021957	1.32129	-1.29225	-32.7544
  81	1	1	-0.054241	0.402987	-1.7691	-31.7712
  82	1	1	-0.111709	-0.877164	-1.20826	-31.7101
  83	1	1	-0.087244	0.907588	-0.244522	-33.6169
  84	1	1	-0.118951	-0.373374	0.31522	-33.5378
  85	1	1	-0.044875	-1.24709	-0.200134	-32.5764
  86	1	3	0.461883	-2.61537	0.236957	-32.2311
  87	1	4	-0.007433	-2.98622	-0.524717	-31.1312
  88	1	3	0.491356	-1.99973	-1.42346	-30.7414
  89	1	1	-0.019445	-4.16575	-0.25783	-30.3841
  90	1	1	-0.186861	-4.09373	0.817854	-29.4869
  91	1	1	-0.068374	-5.17662	1.14109	-28.6675
  92	1	1	-0.009193	-5.36238	-1.01706	-30.4927
  93	1	1	0.220761	-6.48421	-0.649668	-29.7012
  94	1	1	-0.402098	-6.36525	0.410926	-28.7785
  95	1	7	0.148422	-3.17325	1.39383	-29.4004
  96	1	7	0.146291	-5.09608	1.96372	-27.9555
  97	1	7	0.158981	-0.673429	1.13499	-34.1845
  98	1	7	0.141813	1.59635	0.16639	-34.3471
  99	1	7	0.143633	0.651974	-2.52324	-31.0373
 100	1	2	-0.474465	-1.9894	-2.14027	-29.7529
 101	1	2	-0.469737	-3.25545	1.08318	-32.8304
 102	1	5	-0.37887	-5.42732	-2.22423	-31.4361
 103	1	9	0.115886	-6.26452	-2.90342	-31.2399
 104	1	9	0.123845	-4.52281	-2.84119	-31.3516
 105	1	9	0.138418	-5.51039	-1.89286	-32.4803
 106	1	7	0.21348	-7.21069	0.66816	-28.1312
 107	1	1	-0.004194	16.9203	7.02947	-38.7661
 108	1	1	-0.097141	15.8702	7.35081	-39.6742
 109	1	1	-0.172015	16.2331	7.86918	-40.9551
 110	1	2	-0.377994	19.6359	6.42778	-37.3476
 111	1	1	0.033493	18.2558	7.17865	-39.1843
 112	1	1	-0.063739	17.5785	8.00935	-41.351
 113	1	2	-0.398381	20.6847	7.98959	-41.5963
 114	1	1	0.032144	18.5742	7.66014	-40.4394
 115	1	3	0.032313	19.5298	6.83436	-38.4931
 116	1	4	0.461698	20.5402	7.0559	-39.4408
 117	1	3	0.091945	20.0546	7.62998	-40.614
 118	1	1	-0.10563	14.5377	3.47613	-38.0476
 119	1	5	-0.099376	14.3712	7.20384	-39.2436
 120	1	1	-0.043296	14.1701	5.91044	-38.385
 121	1	1	-0.073043	14.8107	4.68757	-38.7329
 122	1	1	-0.117827	13.5956	3.49437	-37.0095
 123	1	1	-0.037562	13.2513	5.8823	-37.3064
 124	1	1	-0.083705	12.9758	4.67302	-36.6646
 125	1	5	0.396	13.3649	7.06588	-40.4772
 126	1	5	0.310495	14.0306	8.52987	-38.4499
 127	1	6	-0.130298	12.115	6.68783	-40.1186
 128	1	6	-0.128745	13.1684	8.23289	-41.1413
 129	1	6	-0.120019	13.7884	6.13032	-41.3715
 130	1	6	-0.104287	12.7036	8.73644	-38.3311
 131	1	6	-0.095507	14.5116	9.63733	-39.0547
 132	1	6	-0.104872	14.558	8.54434	-37.2092
 133	1	3	0.456145	12.0491	4.41254	-35.5408
 134	1	3	0.550902	13.0861	2.42348	-36.0982
 135	1	4	0.015704	12.1829	3.06116	-35.2517
 136	1	2	-0.456801	11.384	5.25705	-34.9647
 137	1	2	-0.487703	13.4458	1.25849	-36.0743
 138	1	1	-0.116566	11.4743	2.42793	-34.1911
 139	1	1	-0.050109	10.1019	2.12685	-34.3518
 140	1	1	0.154929	9.39121	1.56525	-33.2585
 141	1	1	0.041555	12.1419	2.14582	-32.9829
 142	1	1	-0.223109	11.4642	1.47764	-31.9522
 143	1	1	-0.080449	10.094	1.18336	-32.0833
 144	1	5	-0.108008	13.5994	2.53776	-32.8068
 145	1	5	-0.182228	9.39153	0.431888	-30.9552
 146	1	5	-0.345523	9.43263	2.392	-35.711
 147	1	7	0.155183	16.7129	6.64886	-37.7676
 148	1	7	0.172904	15.4795	8.16169	-41.6772
 149	1	7	0.158028	17.8454	8.38433	-42.3356
 150	1	7	0.153129	15.0264	2.54438	-38.33
 151	1	7	0.142914	15.4952	4.66567	-39.5776
 152	1	7	0.135531	12.7078	6.76098	-36.9785
 153	1	7	0.17765	11.9944	1.22407	-31.0387
 154	1	9	0.046541	13.817	3.51428	-33.2562
 155	1	9	0.045238	14.2606	1.79518	-33.2706
 156	1	9	0.051941	13.8684	2.61848	-31.7476
 157	1	9	0.087961	8.57826	1.03142	-30.5221
 158	1	9	0.066782	10.0815	0.185563	-30.1371
 159	1	9	0.075908	8.96838	-0.512058	-31.3191
 160	1	9	0.105172	8.49043	1.8466	-35.8482
 161	1	9	0.115625	10.0782	2.06701	-36.5376
 162	1	9	0.140296	9.21747	3.46023	-35.8455
 163	1	4	0.486064	19.9194	-3.97723	-36.0041
 164	1	3	0.047133	20.4814	-2.70214	-36.1043
 165	1	1	0.001076	21.9404	-2.90779	-35.9317
 166	1	3	0.034038	20.8736	-4.98687	-35.8789
 167	1	1	0.050122	22.1762	-4.26426	-35.803
 168	1	2	-0.383076	19.9345	-1.65582	-36.4094
 169	1	2	-0.380811	20.6792	-6.19127	-35.7869
 170	1	1	-0.001248	22.9685	-1.96506	-35.7973
 171	1	1	-0.036565	23.4596	-4.72767	-35.4765
 172	1	1	-0.208842	24.5124	-3.7943	-35.3325
 173	1	1	-0.065319	24.2971	-2.40663	-35.5447
 174	1	7	0.153391	22.7291	-0.90757	-35.8976
 175	1	7	0.155343	23.6191	-5.78808	-35.2974
 176	1	7	0.174191	25.4995	-4.17925	-35.0863
 177	1	5	-0.106637	25.4532	-1.35934	-35.53
 178	1	5	0.445763	26.8695	-1.96215	-35.8834
 179	1	6	-0.144255	27.759	-0.970073	-36.0713
 180	1	6	-0.136881	26.8827	-2.68593	-37.0256
 181	1	6	-0.144092	27.3857	-2.7645	-34.9294
 182	1	5	0.367264	25.5644	-0.699853	-34.0917
 183	1	6	-0.12104	24.3919	-0.153156	-33.7074
 184	1	6	-0.122614	25.845	-1.59191	-33.1251
 185	1	6	-0.112321	26.5171	0.274373	-34.0047
 186	1	1	-0.021957	25.1336	-0.294848	-36.627
 187	1	1	-0.054241	24.9459	1.07752	-36.328
 188	1	1	-0.111709	24.6957	1.97342	-37.3633
 189	1	1	-0.087244	25.0031	-0.697464	-37.9859
 190	1	1	-0.118951	24.7711	0.232775	-39.0219
 191	1	1	-0.044875	24.623	1.57916	-38.6817
 192	1	3	0.461883	24.2561	2.76376	-39.5142
 193	1	4	-0.007433	24.1084	3.78297	-38.5823
 194	1	3	0.491356	24.3954	3.40782	-37.2851
 195	1	1	-0.019445	23.6712	5.09058	-38.8626
 196	1	1	-0.186861	24.609	6.12114	-38.699
 197	1	1	-0.068374	24.2278	7.45777	-38.8619
 198	1	1	-0.009193	22.3096	5.36937	-39.1254
 199	1	1	0.220761	21.9132	6.72626	-39.2445
 200	1	1	-0.402098	22.8845	7.75472	-39.1561
 201	1	7	0.148422	25.6442	5.88735	-38.4451
 202	1	7	0.146291	24.9528	8.25214	-38.7465
 203	1	7	0.158981	24.6504	-0.0907821	-40.0531
 204	1	7	0.141813	25.0521	-1.75062	-38.2431
 205	1	7	0.143633	24.9952	1.49227	-35.3299
 206	1	2	-0.474465	24.3312	4.08129	-36.2702
 207	1	2	-0.469737	24.1446	2.82352	-40.7318
 208	1	5	-0.37887	21.2913	4.21223	-39.1947
 209	1	9	0.115886	20.981	3.90207	-38.1866
 210	1	9	0.123845	21.6876	3.33229	-39.7125
 211	1	9	0.138418	20.3814	4.47261	-39.7478
 212	1	7	0.21348	22.5909	8.79275	-39.2972
 213	1	4	0.486064	6.0416	-5.06105	-27.4633
 214	1	3	0.047133	7.22299	-5.62761	-26.9872
 215	1	1	0.001076	8.26592	-5.23566	-27.9499
 216	1	3	0.034038	6.23343	-4.339	-28.6389
 217	1	1	0.050122	7.66818	-4.52763	-28.9706
 218	1	2	-0.383076	7.41242	-6.19364	-25.9233
 219	1	2	-0.380811	5.47131	-3.5428	-29.1629
 220	1	1	-0.001248	9.64188	-5.42466	-27.8659
 221	1	1	-0.036565	8.41992	-3.99161	-30.0149
 222	1	1	-0.208842	9.82062	-4.16922	-29.9602
 223	1	1	-0.065319	10.4552	-4.89297	-28.9047
 224	1	7	0.153391	10.0362	-5.9598	-27.0044
 225	1	7	0.155343	7.941	-3.40607	-30.7961
 226	1	7	0.174191	10.423	-3.70533	-30.7393
 227	1	5	-0.106637	12.0155	-4.97602	-28.853
 228	1	5	0.445763	12.4916	-3.69739	-28.0696
 229	1	6	-0.144255	11.771	-3.54116	-26.9357
 230	1	6	-0.136881	12.2958	-2.57091	-28.7897
 231	1	6	-0.144092	13.8022	-3.72762	-27.7272
 232	1	5	0.367264	12.5239	-6.2696	-28.0747
 233	1	6	-0.12104	12.3887	-6.17788	-26.7286
 234	1	6	-0.122614	13.8255	-6.5837	-28.3374
 235	1	6	-0.112321	11.8024	-7.35086	-28.4414
 236	1	1	-0.021957	12.5674	-5.07835	-30.3122
 237	1	1	-0.054241	13.6581	-4.30585	-30.8052
 238	1	1	-0.111709	14.2197	-4.64777	-32.0481
 239	1	1	-0.087244	12.0642	-6.13485	-31.1248
 240	1	1	-0.118951	12.6639	-6.49429	-32.3453
 241	1	1	-0.044875	13.7445	-5.72006	-32.7797
 242	1	3	0.461883	14.5713	-5.85129	-34.0075
 243	1	4	-0.007433	15.4509	-4.78286	-33.994
 244	1	3	0.491356	15.3039	-4.00581	-32.8454
 245	1	1	-0.019445	16.3133	-4.52437	-35.0966
 246	1	1	-0.186861	15.7046	-4.25893	-36.3395
 247	1	1	-0.068374	16.4854	-4.01747	-37.4732
 248	1	1	-0.009193	17.7271	-4.56498	-34.9781
 249	1	1	0.220761	18.5159	-4.2064	-36.1092
 250	1	1	-0.402098	17.8812	-3.98759	-37.3533
 251	1	7	0.148422	14.6287	-4.23522	-36.4227
 252	1	7	0.146291	16.0021	-3.77452	-38.4269
 253	1	7	0.158981	12.2938	-7.32715	-32.9483
 254	1	7	0.141813	11.2145	-6.72312	-30.7865
 255	1	7	0.143633	14.0872	-3.47913	-30.2479
 256	1	2	-0.474465	15.8197	-2.93553	-32.5853
 257	1	2	-0.469737	14.3909	-6.65626	-34.9057
 258	1	5	-0.37887	18.3362	-4.96051	-33.6272
 259	1	9	0.115886	18.2384	-4.13856	-32.9066
 260	1	9	0.123845	19.3937	-5.23296	-33.6754
 261	1	9	0.138418	17.8216	-5.83503	-33.2064
 262	1	7	0.21348	18.4744	-3.68789	-38.2181
 263	1	4	0.486064	-6.45647	-10.9013	-21.627
 264	1	3	0.047133	-6.94606	-10.7457	-22.923
 265	1	1	0.001076	-5.84639	-10.093	-23.6763
 266	1	3	0.034038	-5.12115	-10.5406	-21.4925
 267	1	1	0.050122	-4.76534	-9.99298	-22.8172
 268	1	2	-0.383076	-8.10534	-10.844	-23.289
 269	1	2	-0.380811	-4.44404	-10.4769	-20.4773
 270	1	1	-0.001248	-5.91968	-9.3289	-24.8583
 271	1	1	-0.036565	-3.6872	-9.16019	-23.0782
 272	1	1	-0.208842	-3.73517	-8.38199	-24.2409
 273	1	1	-0.065319	-4.83829	-8.43149	-25.1532
 274	1	7	0.153391	-6.83367	-9.34636	-25.4413
 275	1	7	0.155343	-2.90887	-9.02812	-22.3323
 276	1	7	0.174191	-2.92217	-7.68064	-24.3997
 277	1	5	-0.106637	-4.81191	-7.38994	-26.3257
 278	1	5	0.445763	-5.74855	-7.74686	-27.5427
 279	1	6	-0.144255	-7.06437	-7.72268	-27.2202
 280	1	6	-0.136881	-5.51691	-9.0014	-28.0052
 281	1	6	-0.144092	-5.57123	-6.87834	-28.5767
 282	1	5	0.367264	-5.29488	-5.9984	-25.7056
 283	1	6	-0.12104	-4.46324	-5.53447	-24.7329
 284	1	6	-0.122614	-6.49258	-6.1228	-25.0891
 285	1	6	-0.112321	-5.42582	-4.98719	-26.6048
 286	1	1	-0.021957	-3.32379	-7.36054	-26.8543
 287	1	1	-0.054241	-2.48302	-6.2078	-26.769
 288	1	1	-0.111709	-1.08695	-6.33477	-26.9076
 289	1	1	-0.087244	-2.69458	-8.5896	-27.2124
 290	1	1	-0.118951	-1.30045	-8.67964	-27.4019
 291	1	1	-0.044875	-0.506799	-7.54243	-27.1907
 292	1	3	0.461883	0.976836	-7.37225	-27.0825
 293	1	4	-0.007433	1.20242	-6.0465	-26.7183
 294	1	3	0.491356	0.000432469	-5.35571	-26.5917
 295	1	1	-0.019445	2.47718	-5.51543	-26.3374
 296	1	1	-0.186861	2.57191	-4.9955	-25.0295
 297	1	1	-0.068374	3.78335	-4.49881	-24.5484
 298	1	1	-0.009193	3.6102	-5.52197	-27.2011
 299	1	1	0.220761	4.84501	-5.04645	-26.6876
 300	1	1	-0.402098	4.91289	-4.55223	-25.3671
 301	1	7	0.148422	1.70567	-4.97096	-24.3886
 302	1	7	0.146291	3.85953	-4.11758	-23.5278
 303	1	7	0.158981	-0.835009	-9.64014	-27.6221
 304	1	7	0.141813	-3.27211	-9.51388	-27.2561
 305	1	7	0.143633	-2.86003	-5.22342	-26.5068
 306	1	2	-0.474465	-0.17612	-4.20709	-26.2279
 307	1	2	-0.469737	1.7977	-8.26761	-27.1671
 308	1	5	-0.37887	3.53983	-6.12784	-28.6178
 309	1	9	0.115886	4.00016	-5.51108	-29.3907
 310	1	9	0.123845	2.51054	-6.26855	-28.9539
 311	1	9	0.138418	4.01673	-7.11668	-28.6418
 312	1	7	0.21348	5.86677	-4.2048	-24.9665
 313	1	4	0.486064	-3.31733	-17.1391	-8.22515
 314	1	3	0.047133	-4.21621	-16.3931	-8.99585
 315	1	1	0.001076	-4.61631	-17.2863	-10.0986
 316	1	3	0.034038	-3.16583	-18.4529	-8.68334
 317	1	1	0.050122	-3.99437	-18.5121	-9.91025
 318	1	2	-0.383076	-4.56947	-15.2349	-8.84304
 319	1	2	-0.380811	-2.45049	-19.3529	-8.26174
 320	1	1	-0.001248	-5.3973	-16.9958	-11.2242
 321	1	1	-0.036565	-4.09646	-19.5185	-10.8725
 322	1	1	-0.208842	-4.86841	-19.2393	-12.0102
 323	1	1	-0.065319	-5.50782	-17.9835	-12.2296
 324	1	7	0.153391	-5.87324	-16.0243	-11.3254
 325	1	7	0.155343	-3.5862	-20.4722	-10.7476
 326	1	7	0.174191	-4.95484	-20.0545	-12.7157
 327	1	5	-0.106637	-6.42424	-17.7645	-13.4704
 328	1	5	0.445763	-6.03043	-18.7286	-14.675
 329	1	6	-0.144255	-4.69442	-18.6776	-14.9297
 330	1	6	-0.136881	-6.61299	-18.3764	-15.8439
 331	1	6	-0.144092	-6.38682	-20.0257	-14.4834
 332	1	5	0.367264	-7.88004	-18.0951	-12.9609
 333	1	6	-0.12104	-7.89462	-19.237	-12.2279
 334	1	6	-0.122614	-8.73744	-18.3188	-13.9868
 335	1	6	-0.112321	-8.40991	-17.1107	-12.1827
 336	1	1	-0.021957	-6.31761	-16.3177	-14.0566
 337	1	1	-0.054241	-7.36636	-15.7979	-14.8715
 338	1	1	-0.111709	-7.15705	-14.6453	-15.6211
 339	1	1	-0.087244	-5.11748	-15.559	-13.9718
 340	1	1	-0.118951	-4.96192	-14.3353	-14.654
 341	1	1	-0.044875	-5.99236	-13.9332	-15.5127
 342	1	3	0.461883	-6.08915	-12.8061	-16.4838
 343	1	4	-0.007433	-7.26958	-12.9879	-17.2094
 344	1	3	0.491356	-7.98615	-14.062	-16.7122
 345	1	1	-0.019445	-7.69029	-12.1453	-18.3055
 346	1	1	-0.186861	-8.76693	-11.2604	-18.1183
 347	1	1	-0.068374	-9.14847	-10.3549	-19.1151
 348	1	1	-0.009193	-7.00516	-12.1305	-19.5457
 349	1	1	0.220761	-7.30572	-11.1367	-20.5171
 350	1	1	-0.402098	-8.40238	-10.2798	-20.2961
 351	1	7	0.148422	-9.30696	-11.2848	-17.1758
 352	1	7	0.146291	-9.97797	-9.67057	-18.9427
 353	1	7	0.158981	-4.02637	-13.783	-14.6077
 354	1	7	0.141813	-4.25648	-15.9461	-13.4306
 355	1	7	0.143633	-8.29382	-16.3347	-15.0622
 356	1	2	-0.474465	-9.07194	-14.4786	-17.0724
 357	1	2	-0.469737	-5.27433	-11.9054	-16.5777
 358	1	5	-0.37887	-5.88586	-13.1408	-19.7589
 359	1	9	0.115886	-4.98387	-12.8297	-19.214
 360	1	9	0.123845	-5.61081	-13.2545	-20.812
 361	1	9	0.138418	-6.17185	-14.1411	-19.4097
 362	1	7	0.21348	-8.66263	-9.51054	-21.0166
 363	1	1	-0.004194	7.21484	-15.3117	-6.46244
 364	1	1	-0.097141	7.29722	-15.125	-7.87152
 365	1	1	-0.172015	8.2184	-15.917	-8.62938
 366	1	2	-0.377994	7.59204	-16.2415	-3.48586
 367	1	1	0.033493	8.03309	-16.3052	-5.87404
 368	1	1	-0.063739	9.00685	-16.9181	-8.01935
 369	1	2	-0.398381	10.4112	-18.9055	-6.06529
 370	1	1	0.032144	8.87815	-17.0975	-6.63619
 371	1	3	0.032313	8.16155	-16.7339	-4.45368
 372	1	4	0.461698	9.0915	-17.7794	-4.49144
 373	1	3	0.091945	9.56911	-18.0785	-5.76023
 374	1	1	-0.10563	3.33968	-12.3383	-6.83755
 375	1	5	-0.099376	6.37663	-14.0995	-8.62055
 376	1	1	-0.043296	5.08957	-13.8367	-7.78008
 377	1	1	-0.073043	4.60312	-12.5303	-7.44443
 378	1	1	-0.117827	2.5252	-13.4671	-6.63631
 379	1	1	-0.037562	4.26704	-14.9523	-7.48383
 380	1	1	-0.083705	2.99167	-14.7284	-6.96295
 381	1	5	0.396	5.89131	-14.6515	-10.0314
 382	1	5	0.310495	7.20394	-12.7733	-8.86696
 383	1	6	-0.130298	6.66993	-14.3487	-11.0961
 384	1	6	-0.128745	4.67191	-14.1704	-10.3829
 385	1	6	-0.120019	5.76316	-15.9977	-10.0116
 386	1	6	-0.104287	6.53801	-11.9181	-9.69264
 387	1	6	-0.095507	8.39359	-12.9646	-9.4845
 388	1	6	-0.104872	7.51836	-12.184	-7.68257
 389	1	3	0.456145	1.86759	-15.6833	-6.78433
 390	1	3	0.550902	1.08652	-13.592	-6.24725
 391	1	4	0.015704	0.763589	-14.9351	-6.40065
 392	1	2	-0.456801	1.86384	-16.8679	-7.07468
 393	1	2	-0.487703	0.331856	-12.6891	-5.93312
 394	1	1	-0.116566	-0.562323	-15.4739	-6.25746
 395	1	1	-0.050109	-1.29367	-16.0211	-7.35679
 396	1	1	0.154929	-2.57777	-16.5871	-7.14685
 397	1	1	0.041555	-1.13715	-15.5221	-4.95917
 398	1	1	-0.223109	-2.40841	-16.081	-4.78816
 399	1	1	-0.080449	-3.14943	-16.5934	-5.86229
 400	1	5	-0.108008	-0.380087	-15.0584	-3.72185
 401	1	5	-0.182228	-4.55433	-17.1382	-5.58467
 402	1	5	-0.345523	-0.681393	-16.0156	-8.76218
 403	1	7	0.155183	6.57461	-14.7042	-5.83379
 404	1	7	0.172904	8.31069	-15.7631	-9.69891
 405	1	7	0.158028	9.69407	-17.54	-8.586
 406	1	7	0.153129	2.95034	-11.3354	-6.64379
 407	1	7	0.142914	5.15574	-11.6284	-7.68289
 408	1	7	0.135531	4.56384	-15.9767	-7.74678
 409	1	7	0.17765	-2.82526	-16.133	-3.78602
 410	1	9	0.046541	-0.313462	-13.9725	-3.6772
 411	1	9	0.045238	0.630594	-15.4598	-3.69446
 412	1	9	0.051941	-0.902778	-15.379	-2.79333
 413	1	9	0.087961	-4.75314	-17.1881	-4.51184
 414	1	9	0.066782	-4.69581	-18.1501	-5.99095
 415	1	9	0.075908	-5.31371	-16.4758	-6.02439
 416	1	9	0.105172	0.0276639	-15.1989	-8.91182
 417	1	9	0.115625	-1.43138	-15.8806	-9.55175
 418	1	9	0.140296	-0.13857	-16.9565	-8.93336
 419	1	4	0.486064	21.1214	-12.8068	2.15224
 420	1	3	0.047133	21.0727	-14.0766	2.71953
 421	1	1	0.001076	20.6906	-15.0085	1.60835
 422	1	3	0.034038	20.9439	-12.8993	0.758881
 423	1	1	0.050122	20.6039	-14.2984	0.446857
 424	1	2	-0.383076	20.9575	-14.3031	3.89913
 425	1	2	-0.380811	20.8349	-12.0068	-0.0543564
 426	1	1	-0.001248	20.1979	-16.308	1.69492
 427	1	1	-0.036565	20.1043	-14.8856	-0.725768
 428	1	1	-0.208842	19.5354	-16.1859	-0.654926
 429	1	1	-0.065319	19.5505	-16.8956	0.582574
 430	1	7	0.153391	20.1875	-16.7727	2.6715
 431	1	7	0.155343	20.0286	-14.2974	-1.639
 432	1	7	0.174191	19.0171	-16.6104	-1.51396
 433	1	5	-0.106637	18.7018	-18.1956	0.71534
 434	1	5	0.445763	19.451	-19.2889	-0.141126
 435	1	6	-0.144255	20.7471	-19.3755	0.293211
 436	1	6	-0.136881	19.5164	-18.9627	-1.47251
 437	1	6	-0.144092	18.8851	-20.5262	-0.0260236
 438	1	5	0.367264	18.5168	-18.7694	2.20109
 439	1	6	-0.12104	18.0642	-17.8772	3.09369
 440	1	6	-0.122614	19.6099	-19.2537	2.80262
 441	1	6	-0.112321	17.6094	-19.7604	2.2265
 442	1	1	-0.021957	17.2653	-17.8333	0.270817
 443	1	1	-0.054241	16.4605	-18.6525	-0.560908
 444	1	1	-0.111709	15.1006	-18.3369	-0.684287
 445	1	1	-0.087244	16.6609	-16.7262	0.888146
 446	1	1	-0.118951	15.2982	-16.4404	0.811537
 447	1	1	-0.044875	14.5412	-17.2646	-0.013972
 448	1	3	0.461883	13.0893	-17.1753	-0.336792
 449	1	4	-0.007433	12.8812	-18.2228	-1.23929
 450	1	3	0.491356	14.0248	-18.959	-1.50434
 451	1	1	-0.019445	11.6261	-18.6037	-1.79151
 452	1	1	-0.186861	11.149	-19.8472	-1.39041
 453	1	1	-0.068374	9.98079	-20.3634	-1.94367
 454	1	1	-0.009193	10.9196	-17.8625	-2.78196
 455	1	1	0.220761	9.72025	-18.3785	-3.34897
 456	1	1	-0.402098	9.29003	-19.6513	-2.93356
 457	1	7	0.148422	11.7095	-20.457	-0.670934
 458	1	7	0.146291	9.64607	-21.3525	-1.64822
 459	1	7	0.158981	14.8541	-15.6104	1.35844
 460	1	7	0.141813	17.2536	-16.1161	1.56744
 461	1	7	0.143633	16.8476	-19.5456	-1.06464
 462	1	2	-0.474465	14.179	-19.8202	-2.33743
 463	1	2	-0.469737	12.3024	-16.3098	0.0440725
 464	1	5	-0.37887	11.5099	-16.5373	-3.23877
 465	1	9	0.115886	11.3343	-15.7831	-2.47865
 466	1	9	0.123845	11.0852	-16.1681	-4.18595
 467	1	9	0.138418	12.587	-16.6297	-3.40848
 468	1	7	0.21348	8.40124	-20.0995	-3.35267
 469	1	1	-0.004194	25.8438	-7.78949	11.8956
 470	1	1	-0.097141	26.2443	-7.65849	10.5332
 471	1	1	-0.172015	25.9479	-6.45558	9.83342
 472	1	2	-0.377994	24.6682	-7.2836	14.7515
 473	1	1	0.033493	25.2206	-6.66757	12.4755
 474	1	1	-0.063739	25.3466	-5.34149	10.4357
 475	1	2	-0.398381	23.7109	-3.5191	12.2698
 476	1	1	0.032144	25.0155	-5.49321	11.7707
 477	1	3	0.032313	24.7353	-6.44989	13.883
 478	1	4	0.461698	24.039	-5.21695	13.8095
 479	1	3	0.091945	24.2224	-4.57419	12.5911
 480	1	1	-0.10563	26.9822	-8.97037	5.88922
 481	1	5	-0.099376	27.1546	-8.69615	9.80497
 482	1	1	-0.043296	26.6274	-8.88641	8.33155
 483	1	1	-0.073043	27.4891	-8.89865	7.20832
 484	1	1	-0.117827	25.5864	-8.98922	5.7435
 485	1	1	-0.037562	25.2332	-9.00321	8.12066
 486	1	1	-0.083705	24.7364	-9.08316	6.81764
 487	1	5	0.396	28.6244	-8.05977	9.90873
 488	1	5	0.310495	27.0416	-10.1264	10.4859
 489	1	6	-0.130298	28.9376	-7.70691	11.208
 490	1	6	-0.128745	29.6609	-8.84752	9.45089
 491	1	6	-0.120019	28.6235	-6.90848	9.19274
 492	1	6	-0.104287	27.6483	-10.0976	11.6891
 493	1	6	-0.095507	27.6703	-11.0266	9.73712
 494	1	6	-0.104872	25.7806	-10.5607	10.7029
 495	1	3	0.456145	23.3694	-9.45683	6.38982
 496	1	3	0.550902	24.73	-9.14423	4.53915
 497	1	4	0.015704	23.4161	-9.44075	5.00966
 498	1	2	-0.456801	22.462	-9.77746	7.15177
 499	1	2	-0.487703	25.1535	-9.08548	3.41244
 500	1	1	-0.116566	22.2941	-9.82505	4.20619
 501	1	1	-0.050109	22.2874	-11.0929	3.58347
 502	1	1	0.154929	21.1408	-11.5802	2.90605
 503	1	1	0.041555	21.1271	-9.00108	4.17552
 504	1	1	-0.223109	19.9651	-9.53064	3.61874
 505	1	1	-0.080449	19.9582	-10.8203	3.04066
 506	1	5	-0.108008	20.9842	-7.64563	4.8378
 507	1	5	-0.182228	18.647	-11.39	2.55492
 508	1	5	-0.345523	23.5141	-11.9997	3.61451
 509	1	7	0.155183	26.0169	-8.6673	12.5095
 510	1	7	0.172904	26.2143	-6.32199	8.79057
 511	1	7	0.158028	25.2121	-4.37622	9.93007
 512	1	7	0.153129	27.6627	-9.01117	5.02062
 513	1	7	0.142914	28.5658	-8.78253	7.31808
 514	1	7	0.135531	24.5345	-8.9923	8.96073
 515	1	7	0.17765	19.0474	-8.9605	3.59659
 516	1	9	0.046541	21.9486	-7.18863	5.08708
 517	1	9	0.045238	20.396	-7.7577	5.75467
 518	1	9	0.051941	20.4456	-6.95212	4.18265
 519	1	9	0.087961	18.4702	-11.0473	1.51749
 520	1	9	0.066782	17.8231	-11.0703	3.21599
 521	1	9	0.075908	18.6475	-12.4895	2.5635
 522	1	9	0.105172	23.9554	-12.0455	2.60219
 523	1	9	0.115625	23.2334	-13.0156	3.92234
 524	1	9	0.140296	24.2975	-11.6937	4.3129
 525	1	1	-0.004194	17.8652	4.91844	14.4689
 526	1	1	-0.097141	19.1388	4.97652	15.1599
 527	1	1	-0.172015	20.138	5.83929	14.5708
 528	1	2	-0.377994	15.8486	4.29769	12.2537
 529	1	1	0.033493	17.7602	5.50419	13.1931
 530	1	1	-0.063739	19.934	6.4886	13.2964
 531	1	2	-0.398381	19.0135	7.08634	10.3403
 532	1	1	0.032144	18.7259	6.27738	12.5943
 533	1	3	0.032313	16.7422	5.14437	12.1336
 534	1	4	0.461698	17.1215	5.82445	10.9493
 535	1	3	0.091945	18.3108	6.5525	11.1831
 536	1	1	-0.10563	19.6451	0.766742	14.7751
 537	1	5	-0.099376	19.3508	4.17511	16.5446
 538	1	1	-0.043296	19.8997	2.77278	16.2302
 539	1	1	-0.073043	19.253	2.05004	15.196
 540	1	1	-0.117827	20.5798	0.0795837	15.5199
 541	1	1	-0.037562	20.9612	2.03277	16.9275
 542	1	1	-0.083705	21.2965	0.699139	16.5344
 543	1	5	0.396	17.959	3.96954	17.3067
 544	1	5	0.310495	20.3224	4.9442	17.5133
 545	1	6	-0.130298	18.1788	3.5625	18.5808
 546	1	6	-0.128745	17.1763	3.03076	16.8447
 547	1	6	-0.120019	17.1925	5.04008	17.3741
 548	1	6	-0.104287	19.9541	6.19895	17.7963
 549	1	6	-0.095507	21.5784	4.99348	16.991
 550	1	6	-0.104872	20.516	4.30444	18.6878
 551	1	3	0.456145	22.2556	-0.359041	17.0299
 552	1	3	0.550902	21.1144	-1.30282	15.2446
 553	1	4	0.015704	22.0921	-1.50635	16.23
 554	1	2	-0.456801	22.9096	-0.263112	18.0631
 555	1	2	-0.487703	20.6912	-2.02562	14.3244
 556	1	1	-0.116566	22.5641	-2.86649	16.4057
 557	1	1	-0.050109	23.4712	-3.40526	15.4746
 558	1	1	0.154929	23.1875	-4.6634	14.8469
 559	1	1	0.041555	21.5579	-3.72094	16.9637
 560	1	1	-0.223109	21.2383	-4.90159	16.2964
 561	1	1	-0.080449	21.9883	-5.3228	15.1897
 562	1	5	-0.108008	20.6083	-3.23911	18.0996
 563	1	5	-0.182228	21.4455	-6.50209	14.381
 564	1	5	-0.345523	24.5814	-2.49395	14.9994
 565	1	7	0.155183	17.0098	4.37352	14.8387
 566	1	7	0.172904	21.106	5.99124	15.0315
 567	1	7	0.158028	20.7304	7.05674	12.8289
 568	1	7	0.153129	19.1026	0.274109	13.9788
 569	1	7	0.142914	18.3945	2.44739	14.7309
 570	1	7	0.135531	21.5666	2.51317	17.7092
 571	1	7	0.17765	20.3842	-5.4532	16.6028
 572	1	9	0.046541	19.6259	-2.96231	17.6684
 573	1	9	0.045238	21.0482	-2.40852	18.6144
 574	1	9	0.051941	20.4365	-4.03239	18.8292
 575	1	9	0.087961	21.9178	-6.73853	13.4247
 576	1	9	0.066782	20.3827	-6.34709	14.2294
 577	1	9	0.075908	21.5763	-7.39022	15.0321
 578	1	9	0.105172	24.8819	-1.79376	15.8224
 579	1	9	0.115625	24.227	-1.84696	14.178
 580	1	9	0.140296	25.4854	-3.00038	14.6632
 581	1	4	0.486064	15.5016	-7.51536	4.84007
 582	1	3	0.047133	15.6739	-6.36255	5.62603
 583	1	1	0.001076	16.3353	-5.36377	4.71939
 584	1	3	0.034038	15.6669	-7.21735	3.44135
 585	1	1	0.050122	16.228	-5.82942	3.41551
 586	1	2	-0.383076	15.3109	-6.22417	6.794
 587	1	2	-0.380811	15.5964	-8.00014	2.51706
 588	1	1	-0.001248	17.2254	-4.36272	5.09283
 589	1	1	-0.036565	16.9193	-5.14962	2.39284
 590	1	1	-0.208842	17.6869	-4.00855	2.72074
 591	1	1	-0.065319	17.9153	-3.59499	4.06869
 592	1	7	0.153391	17.2881	-4.16969	6.1748
 593	1	7	0.155343	16.899	-5.53686	1.40304
 594	1	7	0.174191	18.1937	-3.52085	1.89691
 595	1	5	-0.106637	18.9006	-2.40104	4.41078
 596	1	5	0.445763	19.8647	-2.86974	5.5426
 597	1	6	-0.144255	20.2993	-4.12389	5.30627
 598	1	6	-0.136881	19.2331	-3.00964	6.66894
 599	1	6	-0.144092	20.9159	-2.01682	5.79755
 600	1	5	0.367264	19.8097	-1.92843	3.15287
 601	1	6	-0.12104	20.5701	-3.02221	2.73528
 602	1	6	-0.122614	20.7637	-0.914559	3.28598
 603	1	6	-0.112321	19.067	-1.37704	2.1341
 604	1	1	-0.021957	18.0121	-1.18915	4.92562
 605	1	1	-0.054241	18.5893	0.0525299	5.3895
 606	1	1	-0.111709	17.7942	1.02938	5.92906
 607	1	1	-0.087244	16.6255	-1.39218	5.04542
 608	1	1	-0.118951	15.8045	-0.420477	5.61114
 609	1	1	-0.044875	16.3902	0.783576	6.00965
 610	1	3	0.461883	15.781	1.83111	6.81828
 611	1	4	-0.007433	16.7385	2.82988	7.01922
 612	1	3	0.491356	18.0257	2.42716	6.51499
 613	1	1	-0.019445	16.3991	4.08233	7.68855
 614	1	1	-0.186861	15.7016	5.09793	6.96868
 615	1	1	-0.068374	15.5533	6.38057	7.55831
 616	1	1	-0.009193	16.9506	4.31744	9.00224
 617	1	1	0.220761	16.6359	5.55076	9.62961
 618	1	1	-0.402098	16.0101	6.56199	8.87334
 619	1	7	0.148422	15.2521	4.84947	6.0107
 620	1	7	0.146291	14.9783	7.18131	7.03026
 621	1	7	0.158981	14.7188	-0.579074	5.74582
 622	1	7	0.141813	16.1117	-2.25902	4.63187
 623	1	7	0.143633	19.6663	0.213888	5.474
 624	1	2	-0.474465	18.9497	3.19772	6.25829
 625	1	2	-0.469737	14.5784	1.94797	6.89419
 626	1	5	-0.37887	17.7776	3.1794	9.70718
 627	1	9	0.115886	17.8049	3.31787	10.7446
 628	1	9	0.123845	18.8292	3.13692	9.42534
 629	1	9	0.138418	17.3826	2.16445	9.55086
 630	1	7	0.21348	15.841	7.52384	9.35817
 631	1	1	-0.004194	7.07097	-14.4623	9.0501
 632	1	1	-0.097141	7.38838	-14.554	7.66563
 633	1	1	-0.172015	6.89537	-13.5289	6.81048
 634	1	2	-0.377994	5.77551	-13.9694	11.7909
 635	1	1	0.033493	6.38689	-13.3906	9.56405
 636	1	1	-0.063739	6.14017	-12.4706	7.30701
 637	1	2	-0.398381	3.98046	-11.0125	8.79551
 638	1	1	0.032144	5.89252	-12.4582	8.676