pySIMM System Object

580 atoms
634 bonds
1112 angles
1676 dihedrals
176 impropers

9 atom types
11 bond types
18 angle types
7 dihedral types
4 improper types

-106.601510 106.601510 xlo xhi
-106.601510 106.601510 ylo yhi
-106.601510 106.601510 zlo zhi

Masses

   1	14.01	# n
   2	12.01	# c
   3	12.01	# ca
   4	1.008	# hn
   5	16.0	# o
   6	1.008	# ha
   7	12.01	# c3
   8	19.0	# f
   9	1.008	# hc

Pair Coeffs

   1	0.17	3.249998523775958	# n
   2	0.086	3.3996695084235347	# c
   3	0.086	3.3996695084235347	# ca
   4	0.0157	1.069078461768407	# hn
   5	0.21	2.959921901149463	# o
   6	0.015	2.59964245953351	# ha
   7	0.1094	3.3996695084235347	# c3
   8	0.061	3.1181455134911875	# f
   9	0.0157	2.649532787749369	# hc

Bond Coeffs

   1	345.8	1.086	# ca,ha
   2	637.7	1.2183	# c,o
   3	321.0	1.5156	# c3,ca
   4	300.9	1.5375	# c3,c3
   5	384.2	1.4121	# ca,n
   6	330.6	1.0969	# c3,hc
   7	403.2	1.0129	# hn,n
   8	356.9	1.3497	# c3,f
   9	461.1	1.3984	# ca,ca
  10	427.6	1.3789	# c,n
  11	345.9	1.4906	# c,ca

Angle Coeffs

   1	66.11	109.24	# c3,c3,f
   2	46.8	110.47	# ca,c3,hc
   3	39.4	107.58	# hc,c3,hc
   4	63.82	123.71	# c,n,ca
   5	66.62	120.02	# ca,ca,ca
   6	63.53	120.77	# c3,ca,ca
   7	62.86	111.51	# c3,c3,c3
   8	63.74	127.08	# c,n,c
   9	48.33	117.55	# c,n,hn
  10	64.28	120.33	# c,ca,ca
  11	48.18	119.88	# ca,ca,ha
  12	68.72	122.6	# ca,c,o
  13	63.15	112.07	# c3,c3,ca
  14	70.89	107.36	# f,c3,f
  15	67.87	120.19	# ca,ca,n
  16	63.56	112.24	# ca,c3,ca
  17	67.68	115.25	# ca,c,n
  18	74.22	123.05	# n,c,o

Dihedral Coeffs

   1	2	2.5	2	180	2.0	1	0	# hn,n,c,o
   2	1	3.625	2	180	# X,ca,ca,X
   3	1	0.15555555555555556	3	0	# X,c3,c3,X
   4	1	0.0	2	0	# X,c3,ca,X
   5	1	1.0	2	180	# X,c,ca,X
   6	1	2.5	2	180	# X,c,n,X
   7	1	0.45	2	180	# X,ca,n,X

Improper Coeffs

   1	1.1	-1	2	# n,X,X,hn
   2	1.1	-1	2	# ca,X,X,ha
   3	10.5	-1	2	# c,X,X,o
   4	1.1	-1	2	# ca,ca,ca,c3

Atoms

   1	1	1	0.486064	-10.2708	-8.43057	-13.6216
   2	1	2	0.047133	-8.99266	-8.89931	-14.0063
   3	1	3	0.001076	-9.21467	-10.3025	-14.3895
   4	1	2	0.034038	-11.2544	-9.40002	-13.6915
   5	1	3	0.050122	-10.5313	-10.5916	-14.1952
   6	1	5	-0.383076	-7.95898	-8.25193	-14.1167
   7	1	5	-0.380811	-12.4551	-9.30999	-13.4324
   8	1	3	-0.001248	-8.30449	-11.2759	-14.7693
   9	1	3	-0.036565	-11.0243	-11.8543	-14.5093
  10	1	3	-0.208842	-10.1271	-12.8562	-14.9466
  11	1	3	-0.065319	-8.74215	-12.6055	-15.0057
  12	1	6	0.153391	-7.26907	-10.9857	-14.8811
  13	1	6	0.155343	-12.0858	-12.0777	-14.3832
  14	1	6	0.174191	-10.514	-13.8684	-15.1677
  15	1	7	-0.106637	-7.76759	-13.7664	-15.3196
  16	1	7	0.445763	-6.28331	-13.5172	-14.8965
  17	1	8	-0.144255	-6.18205	-13.0999	-13.6113
  18	1	8	-0.136881	-5.69725	-12.6104	-15.6845
  19	1	8	-0.144092	-5.5082	-14.6013	-14.9848
  20	1	7	0.367264	-7.80516	-14.0626	-16.8601
  21	1	8	-0.12104	-6.793	-14.8204	-17.3563
  22	1	8	-0.122614	-7.77684	-12.9151	-17.5959
  23	1	8	-0.112321	-8.96704	-14.6854	-17.1738
  24	1	3	-0.021957	-8.18317	-14.965	-14.4407
  25	1	3	-0.054241	-8.24185	-16.2922	-14.9178
  26	1	3	-0.111709	-8.76286	-17.2795	-14.0638
  27	1	3	-0.087244	-8.51076	-14.7082	-13.082
  28	1	3	-0.118951	-8.90643	-15.7422	-12.2182
  29	1	3	-0.044875	-9.06811	-17.019	-12.7513
  30	1	2	0.461883	-9.52173	-18.311	-12.1556
  31	1	1	-0.007433	-9.54839	-19.24	-13.1968
  32	1	2	0.491356	-9.05754	-18.7058	-14.3613
  33	1	3	-0.019445	-10.1729	-20.509	-13.1332
  34	1	3	-0.186861	-9.53479	-21.5725	-12.4769
  35	1	3	-0.068374	-10.1572	-22.8298	-12.4307
  36	1	3	-0.009193	-11.353	-20.7127	-13.8626
  37	1	3	0.220761	-11.8667	-22.02	-13.9338
  38	1	3	-0.402098	-11.3053	-23.0831	-13.198
  39	1	6	0.148422	-8.5837	-21.4064	-11.9907
  40	1	6	0.146291	-9.6487	-23.6254	-11.8731
  41	1	6	0.158981	-9.18602	-15.5371	-11.1834
  42	1	6	0.141813	-8.42801	-13.6858	-12.6903
  43	1	6	0.143633	-7.98441	-16.5707	-15.933
  44	1	5	-0.474465	-8.88421	-19.2476	-15.4353
  45	1	5	-0.469737	-9.80521	-18.5258	-11.0061
  46	1	7	-0.37887	-12.0399	-19.592	-14.6412
  47	1	9	0.115886	-13.1056	-19.8373	-14.7038
  48	1	9	0.123845	-11.6455	-19.5132	-15.6792
  49	1	9	0.138418	-11.9777	-18.6124	-14.1901
  50	1	6	0.21348	-11.7427	-24.0831	-13.2528
  51	1	3	-0.004194	-5.54743	-5.74602	-3.1192
  52	1	3	-0.097141	-6.25843	-5.75148	-4.34022
  53	1	3	-0.172015	-7.15505	-6.84442	-4.57701
  54	1	5	-0.377994	-4.04661	-6.51771	-0.584093
  55	1	3	0.033493	-5.75222	-6.79668	-2.21824
  56	1	3	-0.063739	-7.3632	-7.86977	-3.63612
  57	1	5	-0.398381	-7.20114	-9.83428	-1.25335
  58	1	3	0.032144	-6.66092	-7.7846	-2.44228
  59	1	2	0.032313	-5.00085	-7.12079	-0.992257
  60	1	1	0.461698	-5.51679	-8.32858	-0.556015
  61	1	2	0.091945	-6.57568	-8.7807	-1.34243
  62	1	3	-0.10563	-9.76738	-4.44532	-6.53258
  63	1	7	-0.099376	-6.02512	-4.69311	-5.47245
  64	1	3	-0.043296	-7.2988	-4.52878	-6.37602
  65	1	3	-0.073043	-8.5797	-4.33939	-5.78688
  66	1	3	-0.117827	-9.65226	-4.59023	-7.9198
  67	1	3	-0.037562	-7.24025	-4.58891	-7.79397
  68	1	3	-0.083705	-8.41941	-4.58574	-8.52692
  69	1	7	0.396	-4.74901	-5.22106	-6.2574
  70	1	7	0.310495	-5.73555	-3.27424	-4.8759
  71	1	8	-0.130298	-4.30987	-4.38134	-7.23515
  72	1	8	-0.128745	-5.0107	-6.39907	-6.84687
  73	1	8	-0.120019	-3.70291	-5.45323	-5.4243
  74	1	8	-0.104287	-4.46012	-3.11232	-4.43572
  75	1	8	-0.095507	-6.58401	-2.97066	-3.88529
  76	1	8	-0.104872	-5.91155	-2.30735	-5.78926
  77	1	2	0.456145	-8.6306	-4.82871	-9.98541
  78	1	2	0.550902	-10.6968	-4.84146	-8.97367
  79	1	1	0.015704	-10.0015	-5.00181	-10.1567
  80	1	5	-0.456801	-7.73047	-4.94539	-10.8096
  81	1	5	-0.487703	-11.8778	-5.07049	-8.76716
  82	1	3	-0.116566	-10.5438	-5.42209	-11.4022
  83	1	3	-0.050109	-10.2686	-6.72676	-11.8518
  84	1	3	0.154929	-10.551	-7.08881	-13.1821
  85	1	3	0.041555	-11.1437	-4.45875	-12.2616
  86	1	3	-0.223109	-11.4484	-4.83661	-13.5745
  87	1	3	-0.080449	-11.1516	-6.13034	-14.0459
  88	1	7	-0.108008	-11.4809	-3.01812	-11.8357
  89	1	7	-0.182228	-11.4869	-6.40365	-15.5039
  90	1	7	-0.345523	-9.57056	-7.71726	-10.8803
  91	1	6	0.155183	-4.77181	-5.01998	-2.87707
  92	1	6	0.172904	-7.67829	-6.96599	-5.52134
  93	1	6	0.158028	-8.02229	-8.71553	-3.81838
  94	1	6	0.153129	-10.7414	-4.40952	-6.06616
  95	1	6	0.142914	-8.65154	-4.28967	-4.6989
  96	1	6	0.135531	-6.3247	-4.65648	-8.36355
  97	1	6	0.17765	-11.9206	-4.12499	-14.2411
  98	1	9	0.046541	-10.6962	-2.61414	-11.176
  99	1	9	0.045238	-12.4121	-3.00545	-11.2613
 100	1	9	0.051941	-11.5622	-2.31705	-12.6907
 101	1	9	0.087961	-11.572	-5.49423	-16.12
 102	1	9	0.066782	-12.4633	-6.94796	-15.531
 103	1	9	0.075908	-10.7161	-7.04639	-15.9612
 104	1	9	0.105172	-9.92211	-7.57609	-9.83137
 105	1	9	0.115625	-8.4856	-7.59158	-10.9049
 106	1	9	0.140296	-9.78738	-8.76747	-11.0735
 107	1	1	0.486064	-2.32008	-18.2684	7.02335
 108	1	2	0.047133	-1.98625	-17.22	6.17988
 109	1	3	0.001076	-1.24433	-17.8695	5.07941
 110	1	2	0.034038	-1.88887	-19.5094	6.54952
 111	1	3	0.050122	-1.1649	-19.2182	5.26548
 112	1	5	-0.383076	-2.32873	-16.0269	6.30499
 113	1	5	-0.380811	-1.87965	-20.5419	7.18814
 114	1	3	-0.001248	-0.779612	-17.2426	3.94033
 115	1	3	-0.036565	-0.54171	-20.0465	4.30123
 116	1	3	-0.208842	-0.0397373	-19.4418	3.12201
 117	1	3	-0.065319	-0.237931	-18.0588	2.87894
 118	1	6	0.153391	-0.97875	-16.1656	3.81823
 119	1	6	0.155343	-0.499472	-21.1274	4.45816
 120	1	6	0.174191	0.386638	-20.1271	2.39679
 121	1	7	-0.106637	0.0319957	-17.3803	1.53204
 122	1	7	0.445763	1.46359	-16.6984	1.67284
 123	1	8	-0.144255	1.51392	-15.8533	2.72194
 124	1	8	-0.136881	1.76316	-15.9335	0.566007
 125	1	8	-0.144092	2.46134	-17.6407	1.84681
 126	1	7	0.367264	0.0358299	-18.4162	0.326817
 127	1	8	-0.12104	1.05955	-19.3093	0.32947
 128	1	8	-0.122614	0.240135	-17.7974	-0.84082
 129	1	8	-0.112321	-1.13666	-19.0619	0.189518
 130	1	3	-0.021957	-1.15024	-16.3734	1.34743
 131	1	3	-0.054241	-0.976043	-14.9611	1.26598
 132	1	3	-0.111709	-2.11534	-14.1247	1.35345
 133	1	3	-0.087244	-2.49977	-16.8318	1.41827
 134	1	3	-0.118951	-3.64246	-15.9827	1.49466
 135	1	3	-0.044875	-3.3913	-14.6233	1.48335
 136	1	2	0.461883	-4.35053	-13.4883	1.56357
 137	1	1	-0.007433	-3.53918	-12.353	1.52003
 138	1	2	0.491356	-2.17828	-12.6561	1.36454
 139	1	3	-0.019445	-4.04461	-11.013	1.60366
 140	1	3	-0.186861	-4.24402	-10.4105	2.863
 141	1	3	-0.068374	-4.67879	-9.09335	2.985
 142	1	3	-0.009193	-4.49493	-10.3251	0.45236
 143	1	3	0.220761	-5.06921	-9.03412	0.593472
 144	1	3	-0.402098	-5.08796	-8.42337	1.86268
 145	1	6	0.148422	-4.01769	-10.9805	3.77192
 146	1	6	0.146291	-4.79228	-8.60508	3.95364
 147	1	6	0.158981	-4.66301	-16.3496	1.57613
 148	1	6	0.141813	-2.69167	-17.8874	1.51275
 149	1	6	0.143633	-0.00530478	-14.4515	1.30878
 150	1	5	-0.474465	-1.23911	-11.9007	1.42746
 151	1	5	-0.469737	-5.558	-13.5688	1.71257
 152	1	7	-0.37887	-4.35687	-10.9564	-0.943864
 153	1	9	0.115886	-3.5501	-11.672	-1.03799
 154	1	9	0.123845	-4.22049	-10.1839	-1.73447
 155	1	9	0.138418	-5.25763	-11.5079	-1.22105
 156	1	6	0.21348	-5.50032	-7.42458	1.98941
 157	1	3	-0.004194	-11.2718	-12.6739	8.572
 158	1	3	-0.097141	-11.4013	-12.5518	7.16274
 159	1	3	-0.172015	-11.4631	-11.2481	6.57903
 160	1	5	-0.377994	-10.1173	-12.4634	11.2938
 161	1	3	0.033493	-10.9727	-11.5173	9.29916
 162	1	3	-0.063739	-11.2042	-10.0792	7.3703
 163	1	5	-0.398381	-10.1394	-8.09851	9.64426
 164	1	3	0.032144	-10.9852	-10.224	8.75678
 165	1	2	0.032313	-10.3292	-11.4557	10.637
 166	1	1	0.461698	-9.82788	-10.1505	10.741
 167	1	2	0.091945	-10.3066	-9.29423	9.72689
 168	1	3	-0.10563	-10.2463	-17.1872	8.06556
 169	1	7	-0.099376	-11.3922	-13.8309	6.3515
 170	1	3	-0.043296	-10.5342	-14.9149	7.1335
 171	1	3	-0.073043	-11.0398	-16.2138	7.43552
 172	1	3	-0.117827	-8.91747	-16.8688	8.33513
 173	1	3	-0.037562	-9.17626	-14.6487	7.38706
 174	1	3	-0.083705	-8.38884	-15.6539	7.98042
 175	1	7	0.396	-10.7407	-13.6266	4.93681
 176	1	7	0.310495	-12.9016	-14.2439	6.2358
 177	1	8	-0.130298	-10.4542	-14.8334	4.36468
 178	1	8	-0.128745	-9.52001	-13.0057	4.93045
 179	1	8	-0.120019	-11.5843	-12.948	4.08179
 180	1	8	-0.104287	-13.0718	-15.2859	5.38128
 181	1	8	-0.095507	-13.7137	-13.3055	5.67918
 182	1	8	-0.104872	-13.4838	-14.4956	7.45454
 183	1	2	0.456145	-6.933	-15.6923	8.28105
 184	1	2	0.550902	-7.83542	-17.6737	8.96867
 185	1	1	0.015704	-6.68384	-16.9211	8.82861
 186	1	5	-0.456801	-6.1122	-14.8552	7.96556
 187	1	5	-0.487703	-7.9519	-18.737	9.55534
 188	1	3	-0.116566	-5.32112	-17.3492	9.05828
 189	1	3	-0.050109	-4.53762	-17.8191	7.97354
 190	1	3	0.154929	-3.11736	-18.0249	8.17296
 191	1	3	0.041555	-4.66914	-17.0551	10.3117
 192	1	3	-0.223109	-3.27285	-17.2011	10.4639
 193	1	3	-0.080449	-2.48385	-17.6651	9.41442
 194	1	7	-0.108008	-5.43151	-16.5351	11.5604
 195	1	7	-0.182228	-0.946339	-17.6782	9.64878
 196	1	7	-0.345523	-5.20913	-17.9664	6.57316
 197	1	6	0.155183	-11.2383	-13.6264	9.12215
 198	1	6	0.172904	-11.6168	-11.0974	5.51803
 199	1	6	0.158028	-11.2628	-9.11402	6.88103
 200	1	6	0.153129	-10.6484	-18.1849	8.33521
 201	1	6	0.142914	-12.0553	-16.4983	7.22833
 202	1	6	0.135531	-8.6523	-13.7296	7.15499
 203	1	6	0.17765	-2.79865	-16.9973	11.4082
 204	1	9	0.046541	-4.97775	-16.8635	12.5057
 205	1	9	0.045238	-6.42667	-16.9734	11.5995
 206	1	9	0.051941	-5.48287	-15.4201	11.5974
 207	1	9	0.087961	-0.344517	-18.1853	8.86079
 208	1	9	0.066782	-0.71144	-18.1236	10.6016
 209	1	9	0.075908	-0.583287	-16.6217	9.66597
 210	1	9	0.105172	-5.34011	-16.9905	6.07072
 211	1	9	0.115625	-6.20447	-18.4642	6.60469
 212	1	9	0.140296	-4.61396	-18.5876	5.86569
 213	1	1	0.486064	0.213647	-6.65397	2.92246
 214	1	2	0.047133	-0.848886	-7.07122	3.73504
 215	1	3	0.001076	-0.236877	-8.22376	4.47624
 216	1	2	0.034038	1.36857	-7.41307	3.03596
 217	1	3	0.050122	1.047	-8.42768	4.11265
 218	1	5	-0.383076	-1.99607	-6.62176	3.94478
 219	1	5	-0.380811	2.43297	-7.37019	2.42732
 220	1	3	-0.001248	-0.883088	-9.02993	5.40804
 221	1	3	-0.036565	1.76497	-9.53603	4.56297
 222	1	3	-0.208842	1.10307	-10.3752	5.51139
 223	1	3	-0.065319	-0.208724	-10.1187	6.01046
 224	1	6	0.153391	-1.91244	-8.80658	5.66144
 225	1	6	0.155343	2.75433	-9.7228	4.20735
 226	1	6	0.174191	1.67765	-11.192	5.78344
 227	1	7	-0.106637	-0.880767	-11.1183	7.04309
 228	1	7	0.445763	0.175407	-11.9427	7.86995
 229	1	8	-0.144255	-0.354883	-12.8078	8.69635
 230	1	8	-0.136881	1.02615	-11.1931	8.64223
 231	1	8	-0.144092	0.845229	-12.7619	7.1287
 232	1	7	0.367264	-1.76118	-12.0333	6.1357
 233	1	8	-0.12104	-2.9262	-11.3715	5.87289
 234	1	8	-0.122614	-2.1279	-13.1462	6.79762
 235	1	8	-0.112321	-1.24171	-12.4619	4.95926
 236	1	3	-0.021957	-1.69173	-10.3371	8.12183
 237	1	3	-0.054241	-2.66861	-11.0253	8.87959
 238	1	3	-0.111709	-3.32706	-10.4159	9.96028
 239	1	3	-0.087244	-1.50729	-8.93023	8.39736
 240	1	3	-0.118951	-2.3427	-8.29983	9.32849
 241	1	3	-0.044875	-3.21922	-9.07329	10.1199
 242	1	2	0.461883	-4.27268	-8.63298	11.0454
 243	1	1	-0.007433	-4.99884	-9.75845	11.3557
 244	1	2	0.491356	-4.43664	-10.9243	10.7912
 245	1	3	-0.019445	-6.33559	-9.75637	11.8819
 246	1	3	-0.186861	-6.53834	-9.47262	13.2734
 247	1	3	-0.068374	-7.84032	-9.40093	13.843
 248	1	3	-0.009193	-7.4494	-9.96874	11.0554
 249	1	3	0.220761	-8.73621	-9.84774	11.6119
 250	1	3	-0.402098	-8.93041	-9.55955	12.9851
 251	1	6	0.148422	-5.70455	-9.20058	13.9017
 252	1	6	0.146291	-8.01704	-9.18501	14.9102
 253	1	6	0.158981	-2.28981	-7.25053	9.4434
 254	1	6	0.141813	-0.799844	-8.28702	7.85915
 255	1	6	0.143633	-2.91269	-12.0334	8.59301
 256	1	5	-0.474465	-4.8196	-12.0851	10.9535
 257	1	5	-0.469737	-4.48203	-7.46595	11.304
 258	1	7	-0.37887	-7.20086	-10.3348	9.58595
 259	1	9	0.115886	-8.03511	-10.1554	8.9246
 260	1	9	0.123845	-6.97927	-11.3941	9.42314
 261	1	9	0.138418	-6.38902	-9.70223	9.20353
 262	1	6	0.21348	-9.94706	-9.44133	13.3422
 263	1	1	0.486064	10.512	-4.37721	3.37225
 264	1	2	0.047133	9.5852	-3.3676	3.21029
 265	1	3	0.001076	9.38873	-3.1419	1.7585
 266	1	2	0.034038	10.811	-4.94218	2.09902
 267	1	3	0.050122	10.0515	-4.11621	1.09389
 268	1	5	-0.383076	9.32092	-2.56727	4.08502
 269	1	5	-0.380811	11.701	-5.74562	1.79967
 270	1	3	-0.001248	8.76139	-2.0559	1.15171
 271	1	3	-0.036565	10.0527	-4.06472	-0.316187
 272	1	3	-0.208842	9.42921	-3.0092	-1.0078
 273	1	3	-0.065319	8.73868	-1.98641	-0.24988
 274	1	6	0.153391	8.21183	-1.30762	1.77309
 275	1	6	0.155343	10.6274	-4.78208	-0.857012
 276	1	6	0.174191	9.66581	-2.84994	-2.06365
 277	1	7	-0.106637	7.9593	-0.769665	-0.901431
 278	1	7	0.445763	7.83829	-0.861021	-2.45555
 279	1	8	-0.144255	7.32872	-2.04719	-2.85362
 280	1	8	-0.136881	8.97431	-0.682572	-3.13308
 281	1	8	-0.144092	7.04043	0.173216	-2.91
 282	1	7	0.367264	8.79982	0.507326	-0.494626
 283	1	8	-0.12104	8.47839	1.63317	-1.11623
 284	1	8	-0.122614	10.102	0.252089	-0.680854
 285	1	8	-0.112321	8.75437	0.804123	0.830387
 286	1	3	-0.021957	6.50643	-0.83732	-0.28861
 287	1	3	-0.054241	5.9756	-2.12049	-0.00846537
 288	1	3	-0.111709	4.67592	-2.19604	0.456929
 289	1	3	-0.087244	5.76862	0.304345	0.0230552
 290	1	3	-0.118951	4.5085	0.208548	0.587169
 291	1	3	-0.044875	3.97874	-1.07974	0.782859
 292	1	2	0.461883	2.5476	-1.52988	1.04114
 293	1	1	-0.007433	2.53862	-2.88722	0.832571
 294	1	2	0.491356	3.80062	-3.35952	0.558254
 295	1	3	-0.019445	1.41611	-3.81245	0.895491
 296	1	3	-0.186861	0.599601	-3.92476	-0.242393
 297	1	3	-0.068374	-0.398085	-4.89104	-0.315029
 298	1	3	-0.009193	1.18051	-4.58413	2.03765
 299	1	3	0.220761	0.196714	-5.61534	1.9185
 300	1	3	-0.402098	-0.578232	-5.77987	0.729207
 301	1	6	0.148422	0.736904	-3.23184	-1.0729
 302	1	6	0.146291	-0.950022	-4.98177	-1.24153
 303	1	6	0.158981	3.86143	1.13397	0.643397
 304	1	6	0.141813	6.1554	1.29919	-0.155172
 305	1	6	0.143633	6.50862	-3.05512	-0.260232
 306	1	5	-0.474465	4.16205	-4.5204	0.448593
 307	1	5	-0.469737	1.61419	-0.834273	1.43515
 308	1	7	-0.37887	1.91867	-4.27461	3.31074
 309	1	9	0.115886	1.26216	-4.3598	4.16303
 310	1	9	0.123845	2.24064	-3.241	3.39952
 311	1	9	0.138418	2.78477	-4.94263	3.43598
 312	1	6	0.21348	-1.29699	-6.60736	0.652358
 313	1	1	0.486064	10.2914	4.00213	11.8057
 314	1	2	0.047133	9.02371	3.42834	11.7741
 315	1	3	0.001076	9.28426	1.98363	12.0082
 316	1	2	0.034038	11.3089	3.05925	11.9194
 317	1	3	0.050122	10.622	1.80383	12.1043
 318	1	5	-0.383076	7.96125	4.04372	11.9009
 319	1	5	-0.380811	12.5096	3.24493	12.102
 320	1	3	-0.001248	8.37168	1.01133	12.3662
 321	1	3	-0.036565	11.2191	0.543456	12.438
 322	1	3	-0.208842	10.3174	-0.483095	12.8077
 323	1	3	-0.065319	8.89408	-0.279202	12.6107
 324	1	6	0.153391	7.35825	1.25387	12.1886
 325	1	6	0.155343	12.2925	0.585294	12.6827
 326	1	6	0.174191	10.7009	-1.4834	13.0491
 327	1	7	-0.106637	7.99551	-1.49175	12.8572
 328	1	7	0.445763	7.9228	-1.62171	14.4161
 329	1	8	-0.144255	7.05657	-2.55151	14.8493
 330	1	8	-0.136881	7.65739	-0.430684	15.0368
 331	1	8	-0.144092	9.07029	-2.0162	14.9594
 332	1	7	0.367264	6.4951	-1.46651	12.3309
 333	1	8	-0.12104	6.4736	-1.27726	10.9591
 334	1	8	-0.122614	5.81525	-0.44568	12.9146
 335	1	8	-0.112321	5.79364	-2.66765	12.5328
 336	1	3	-0.021957	8.69855	-2.66732	12.0365
 337	1	3	-0.054241	9.13574	-2.49794	10.6691
 338	1	3	-0.111709	9.67312	-3.52818	9.85732
 339	1	3	-0.087244	8.93683	-3.98342	12.5177
 340	1	3	-0.118951	9.59807	-4.98115	11.7759
 341	1	3	-0.044875	9.95872	-4.76262	10.4051
 342	1	2	0.461883	10.7765	-5.55036	9.38734
 343	1	1	-0.007433	10.7588	-4.73475	8.21351
 344	1	2	0.491356	10.2441	-3.48316	8.47363
 345	1	3	-0.019445	11.404	-4.95395	6.97037
 346	1	3	-0.186861	12.819	-4.91138	6.90674
 347	1	3	-0.068374	13.4551	-4.82373	5.65729
 348	1	3	-0.009193	10.6205	-5.00034	5.7709
 349	1	3	0.220761	11.2697	-4.69291	4.56802
 350	1	3	-0.402098	12.6848	-4.67112	4.49731
 351	1	6	0.148422	13.4003	-4.87803	7.84476
 352	1	6	0.146291	14.5602	-4.7888	5.63536
 353	1	6	0.158981	9.84492	-5.88856	12.3141
 354	1	6	0.141813	8.73694	-4.25261	13.5938
 355	1	6	0.143633	8.97649	-1.5236	10.2314
 356	1	5	-0.474465	10.3619	-2.51559	7.75897
 357	1	5	-0.469737	11.4819	-6.49858	9.61916
 358	1	7	-0.37887	9.12521	-5.15656	5.83843
 359	1	9	0.115886	8.65948	-5.54504	4.8832
 360	1	9	0.123845	8.61615	-4.2655	6.18572
 361	1	9	0.138418	8.91854	-5.91125	6.62436
 362	1	6	0.21348	13.2146	-4.45578	3.56167
 363	1	3	-0.004194	13.7917	6.56273	21.0842
 364	1	3	-0.097141	13.3209	7.86255	21.4364
 365	1	3	-0.172015	14.0955	8.64899	22.2688
 366	1	5	-0.377994	15.0545	3.72533	21.0438
 367	1	3	0.033493	14.9426	6.06247	21.7012
 368	1	3	-0.063739	15.1814	8.08157	22.9985
 369	1	5	-0.398381	17.3061	6.15945	24.3114
 370	1	3	0.032144	15.6387	6.79876	22.6818
 371	1	2	0.032313	15.5327	4.67173	21.6699
 372	1	1	0.461698	16.4108	4.6126	22.7675
 373	1	2	0.091945	16.5963	5.87278	23.3775
 374	1	3	-0.10563	13.9166	8.21241	17.2671
 375	1	7	-0.099376	12.0788	8.43743	20.6585
 376	1	3	-0.043296	12.3201	8.22603	19.1272
 377	1	3	-0.073043	13.6655	8.25757	18.6523
 378	1	3	-0.117827	12.8749	8.1763	16.4101
 379	1	3	-0.037562	11.2705	8.13258	18.2277
 380	1	3	-0.083705	11.599	8.09603	16.8602
 381	1	7	0.396	11.8801	10.0008	20.862
 382	1	7	0.310495	10.801	7.64805	21.2082
 383	1	8	-0.130298	13.0351	10.6409	20.5896
 384	1	8	-0.128745	11.6331	10.2723	22.1172
 385	1	8	-0.120019	10.8313	10.571	20.1834
 386	1	8	-0.104287	10.8469	7.64793	22.58
 387	1	8	-0.095507	10.8255	6.35331	20.8164
 388	1	8	-0.104872	9.52817	7.97772	20.8665
 389	1	2	0.456145	10.7906	8.00898	15.6433
 390	1	2	0.550902	12.8847	8.07618	14.9433
 391	1	1	0.015704	11.5593	7.91202	14.5203
 392	1	5	-0.456801	9.56531	7.96885	15.6559
 393	1	5	-0.487703	13.9032	7.95216	14.2793
 394	1	3	-0.116566	11.1887	7.37254	13.1945
 395	1	3	-0.050109	10.8681	5.99789	13.1372
 396	1	3	0.154929	10.5871	5.38628	11.8843
 397	1	3	0.041555	11.3579	8.12606	12.0511
 398	1	3	-0.223109	11.0497	7.53754	10.7884
 399	1	3	-0.080449	10.6167	6.17092	10.7272
 400	1	7	-0.108008	11.576	9.68317	12.0186
 401	1	7	-0.182228	10.5247	5.60499	9.28746
 402	1	7	-0.345523	10.8303	5.17572	14.4438
 403	1	6	0.155183	13.1862	5.93651	20.3585
 404	1	6	0.172904	13.8704	9.68041	22.6304
 405	1	6	0.158028	15.6435	8.70089	23.6897
 406	1	6	0.153129	14.926	8.29662	16.8914
 407	1	6	0.142914	14.507	8.34616	19.3416
 408	1	6	0.135531	10.2175	8.12422	18.5066
 409	1	6	0.17765	11.1943	8.04162	9.80055
 410	1	9	0.046541	12.3729	9.98593	12.6913
 411	1	9	0.045238	10.6874	10.1831	12.2332
 412	1	9	0.051941	11.8036	10.0678	11.0305
 413	1	9	0.087961	9.59295	5.08797	9.03614
 414	1	9	0.066782	11.29	4.88588	9.13563
 415	1	9	0.075908	10.756	6.32353	8.58107
 416	1	9	0.105172	10.6853	4.13943	14.3185
 417	1	9	0.115625	9.99611	5.45882	15.0483
 418	1	9	0.140296	11.849	5.33699	14.9393
 419	1	1	0.486064	17.8842	-0.0519879	13.0277
 420	1	2	0.047133	18.9364	-0.922193	13.0253
 421	1	3	0.001076	19.6693	-0.588863	14.2487
 422	1	2	0.034038	18.0075	0.97048	13.9068
 423	1	3	0.050122	19.2907	0.647364	14.7096
 424	1	5	-0.383076	18.9656	-1.98964	12.4703
 425	1	5	-0.380811	17.2432	1.91888	14.0535
 426	1	3	-0.001248	20.7707	-1.31685	14.7507
 427	1	3	-0.036565	20.0333	1.30605	15.6557
 428	1	3	-0.208842	21.0735	0.54862	16.2498
 429	1	3	-0.065319	21.3958	-0.775077	15.837
 430	1	6	0.153391	20.9571	-2.33082	14.4891
 431	1	6	0.155343	19.7281	2.32689	15.9179
 432	1	6	0.174191	21.63	0.992336	17.1547
 433	1	7	-0.106637	22.3787	-1.63073	16.8118
 434	1	7	0.445763	22.1655	-3.21777	16.811
 435	1	8	-0.144255	22.6432	-3.95609	17.8223
 436	1	8	-0.136881	22.6463	-3.68676	15.7314
 437	1	8	-0.144092	20.8488	-3.49849	16.7808
 438	1	7	0.367264	23.8112	-1.29018	16.43
 439	1	8	-0.12104	24.1192	0.0200901	16.7346
 440	1	8	-0.122614	23.8608	-1.31917	15.0491
 441	1	8	-0.112321	24.8481	-2.01643	16.9368
 442	1	3	-0.021957	21.8763	-1.24519	18.2769
 443	1	3	-0.054241	20.5424	-1.03262	18.601
 444	1	3	-0.111709	20.2327	-0.454969	19.8133
 445	1	3	-0.087244	22.8751	-1.02879	19.2673
 446	1	3	-0.118951	22.5257	-0.330492	20.4733
 447	1	3	-0.044875	21.1774	-0.0468985	20.7376
 448	1	2	0.461883	20.6301	0.779547	21.8576
 449	1	1	-0.007433	19.2671	0.789604	21.4964
 450	1	2	0.491356	18.9392	0.093629	20.3119
 451	1	3	-0.019445	18.1869	1.40821	22.2656
 452	1	3	-0.186861	17.4828	0.53533	23.0825
 453	1	3	-0.068374	16.5917	1.09149	23.9925
 454	1	3	-0.009193	17.9205	2.78278	22.2318
 455	1	3	0.220761	16.9638	3.36813	23.0719
 456	1	3	-0.402098	16.4063	2.49236	24.0648
 457	1	6	0.148422	17.5792	-0.521632	23.0163
 458	1	6	0.146291	15.9733	0.422946	24.6521
 459	1	6	0.158981	23.2604	-0.202451	21.2416
 460	1	6	0.141813	23.9658	-1.21949	19.1815
 461	1	6	0.143633	19.7305	-1.28562	17.9029
 462	1	5	-0.474465	17.8614	0.0816298	19.727
 463	1	5	-0.469737	21.2138	1.28279	22.7965
 464	1	7	-0.37887	18.5994	3.54893	21.0611
 465	1	9	0.115886	18.3129	3.03323	20.1853
 466	1	9	0.123845	19.6957	3.4489	21.0673
 467	1	9	0.138418	18.5617	4.58759	21.1379
 468	1	6	0.21348	15.6279	2.94346	24.6875
 469	1	3	-0.004194	18.4399	4.02714	1.6269
 470	1	3	-0.097141	18.1226	2.87218	2.35274
 471	1	3	-0.172015	17.1969	1.9396	1.86163
 472	1	5	-0.377994	18.2752	6.32999	-0.342643
 473	1	3	0.033493	17.7028	4.21734	0.505719
 474	1	3	-0.063739	16.5763	2.18354	0.659268
 475	1	5	-0.398381	15.8566	2.88465	-2.11616
 476	1	3	0.032144	16.9086	3.27623	-0.0068444
 477	1	2	0.032313	17.7765	5.27788	-0.507421
 478	1	1	0.461698	17.1611	4.77974	-1.66042
 479	1	2	0.091945	16.5362	3.61072	-1.34961
 480	1	3	-0.10563	15.7229	2.94314	6.06583
 481	1	7	-0.099376	18.8207	2.55782	3.70409
 482	1	3	-0.043296	17.7762	2.18113	4.85727
 483	1	3	-0.073043	16.7079	3.0552	5.04036
 484	1	3	-0.117827	15.8239	1.77229	6.84164
 485	1	3	-0.037562	17.9721	1.12927	5.88272
 486	1	3	-0.083705	16.8653	0.825645	6.74247
 487	1	7	0.396	19.565	3.77599	4.35637
 488	1	7	0.310495	19.8026	1.36026	3.49117
 489	1	8	-0.130298	20.6863	4.33736	3.62911
 490	1	8	-0.128745	20.235	3.53015	5.50478
 491	1	8	-0.120019	18.798	4.9459	4.602
 492	1	8	-0.104287	19.1452	0.104798	3.41643
 493	1	8	-0.095507	20.6884	1.29952	4.4781
 494	1	8	-0.104872	20.5618	1.6097	2.40297
 495	1	2	0.456145	16.7038	-0.167413	7.82596
 496	1	2	0.550902	15.054	1.43864	8.09547
 497	1	1	0.015704	15.6033	0.319644	8.59361
 498	1	5	-0.456801	17.2947	-1.23109	8.00424
 499	1	5	-0.487703	14.0333	1.95535	8.49191
 500	1	3	-0.116566	15.5115	-0.0145915	9.94176
 501	1	3	-0.050109	16.656	0.240013	10.8424
 502	1	3	0.154929	16.751	-0.263153	12.2204
 503	1	3	0.041555	14.4674	-0.841892	10.4297
 504	1	3	-0.223109	14.5229	-1.17193	11.7969
 505	1	3	-0.080449	15.6132	-1.01166	12.6581
 506	1	7	-0.108008	13.1632	-1.1837	9.66671
 507	1	7	-0.182228	15.4346	-1.62693	14.005
 508	1	7	-0.345523	17.8205	1.10477	10.4677
 509	1	6	0.155183	19.0252	4.86099	1.99095
 510	1	6	0.172904	17.0198	1.02001	2.4143
 511	1	6	0.158028	15.8177	1.53815	0.266441
 512	1	6	0.153129	15.0384	3.74793	6.23961
 513	1	6	0.142914	16.6541	3.83066	4.37557
 514	1	6	0.135531	18.7908	0.410455	5.84145
 515	1	6	0.17765	13.5941	-1.50606	12.2897
 516	1	9	0.046541	13.2413	-0.931122	8.63948
 517	1	9	0.045238	12.2437	-0.725006	9.98021
 518	1	9	0.051941	12.9825	-2.22512	9.7195
 519	1	9	0.087961	15.0422	-0.846224	14.6854
 520	1	9	0.066782	16.3863	-2.02382	14.4122
 521	1	9	0.075908	14.6769	-2.45602	13.997
 522	1	9	0.105172	17.6898	2.05594	10.987
 523	1	9	0.115625	17.862	1.44702	9.43504
 524	1	9	0.140296	18.8379	0.63074	10.6593
 525	1	3	-0.004194	7.90249	9.75099	-0.0364269
 526	1	3	-0.097141	8.7374	9.43082	-1.07506
 527	1	3	-0.172015	9.62558	8.34699	-0.835977
 528	1	5	-0.377994	7.20006	10.6754	2.95592
 529	1	3	0.033493	8.19487	9.24487	1.2521
 530	1	3	-0.063739	9.97223	7.85799	0.412441
 531	1	5	-0.398381	10.2383	7.40871	3.42651
 532	1	3	0.032144	9.24877	8.39302	1.42652
 533	1	2	0.032313	7.90454	9.75569	2.64563
 534	1	1	0.461698	8.76971	9.15492	3.55592
 535	1	2	0.091945	9.52376	8.23689	2.89461
 536	1	3	-0.10563	12.6277	11.0806	-2.64104
 537	1	7	-0.099376	8.73563	10.2161	-2.4174
 538	1	3	-0.043296	10.2654	10.1607	-2.79759
 539	1	3	-0.073043	11.2763	10.9353	-2.19572
 540	1	3	-0.117827	13.0465	9.93038	-3.32086
 541	1	3	-0.037562	10.8289	9.23488	-3.67945
 542	1	3	-0.083705	12.203	9.09788	-3.80558
 543	1	7	0.396	8.1387	11.7362	-2.33368
 544	1	7	0.310495	7.78211	9.44222	-3.44154
 545	1	8	-0.130298	8.37892	12.4296	-3.54661
 546	1	8	-0.128745	8.8592	12.429	-1.37883
 547	1	8	-0.120019	6.84321	11.882	-2.01756
 548	1	8	-0.104287	6.50656	9.50797	-3.11784
 549	1	8	-0.095507	8.20177	8.13537	-3.50327
 550	1	8	-0.104872	7.65456	9.85726	-4.73833
 551	1	2	0.456145	13.0613	7.9294	-4.25673
 552	1	2	0.550902	14.4477	9.49299	-3.47775
 553	1	1	0.015704	14.4011	8.25288	-4.0688
 554	1	5	-0.456801	12.6335	6.77172	-4.42413
 555	1	5	-0.487703	15.4516	10.1818	-3.21369
 556	1	3	-0.116566	15.4375	7.23036	-4.06492
 557	1	3	-0.050109	15.7791	6.59981	-2.80789
 558	1	3	0.154929	16.8072	5.56557	-2.81872
 559	1	3	0.041555	16.0596	6.89655	-5.29949
 560	1	3	-0.223109	17.1051	5.90965	-5.29081
 561	1	3	-0.080449	17.4484	5.26934	-4.02614
 562	1	7	-0.108008	15.7306	7.42254	-6.6711
 563	1	7	-0.182228	18.5291	4.16234	-4.01148
 564	1	7	-0.345523	15.0093	6.85565	-1.5699
 565	1	6	0.155183	7.21562	10.4123	-0.127434
 566	1	6	0.172904	10.3001	7.97184	-1.62899
 567	1	6	0.158028	10.7089	7.11923	0.570009
 568	1	6	0.153129	13.3222	11.6282	-1.99085
 569	1	6	0.142914	11.0168	11.5288	-1.41929
 570	1	6	0.135531	10.1974	8.60939	-4.21586
 571	1	6	0.17765	17.7037	5.74204	-6.16529
 572	1	9	0.046541	15.9449	8.54639	-6.63847
 573	1	9	0.045238	14.6416	7.34518	-6.88893
 574	1	9	0.051941	16.3644	7.00155	-7.45991
 575	1	9	0.087961	18.5301	3.73115	-5.01406
 576	1	9	0.066782	18.3077	3.26831	-3.38006
 577	1	9	0.075908	19.4561	4.5903	-3.70222
 578	1	9	0.105172	15.6257	6.61749	-0.654629
 579	1	9	0.115625	14.0357	6.33845	-1.61577
 580	1	9	0.140296	14.7584	7.89465	-1.33783

Velocities

   1	0.00234966	-0.00322947	0.00278251
   2	0.00395617	-0.0013447	0.00428726
   3	0.00388054	-0.00268418	0.00278145
   4	0.00253755	-0.00355614	-0.00304349
   5	0.00316875	-0.000747079	-0.00348549
   6	0.00356967	-0.00235404	0.009781
   7	0.00367092	-0.00371183	-0.00616738
   8	0.00806064	-0.00610927	-0.00137303
   9	0.00309148	-0.00160163	-0.00369983
  10	0.00135252	-0.00191786	-1.77605e-05
  11	0.00627302	-0.00167909	-0.00299371
  12	0.00260546	0.00398758	0.00337062
  13	0.000866668	0.00354279	-0.00129173
  14	0.00278659	0.00253792	0.00150861
  15	0.00535888	-0.000715379	0.00028342
  16	0.00466843	0.00104824	-0.00132354
  17	0.00234335	-0.000231866	0.00232978
  18	0.00438335	0.000601796	0.00258671
  19	0.00125047	-0.00325455	0.00547511
  20	0.0104179	-0.000537556	0.00224333
  21	0.00924448	-0.00267636	0.00645028
  22	0.00367408	0.000402583	8.76087e-05
  23	0.00987246	-0.00224891	-0.000562397
  24	0.0046708	0.000530228	0.000589528
  25	0.00252328	3.14836e-05	-0.00176566
  26	0.00547201	-0.0010772	-0.00101815
  27	0.00269316	-0.00101441	0.00197896
  28	0.00881991	-0.00244808	0.000554264
  29	0.00896972	-0.00162273	-0.00117519
  30	0.00850561	-0.00316562	-0.00099991
  31	0.00111029	-0.00254671	-0.000466978
  32	-0.000423444	-0.00117821	0.000912652
  33	0.000914062	-0.00282772	-6.81981e-05
  34	-0.00103353	-0.00211738	-0.0012789
  35	0.00353031	-0.00243655	-0.00991771
  36	0.00325914	-0.000584238	-0.00313013
  37	0.00304023	0.00167089	-0.0091659
  38	0.00554954	-0.000853273	-0.0144758
  39	-0.00204417	0.00312586	-0.00316123
  40	0.00232343	-0.0109225	-0.0111866
  41	0.0210984	-0.0102488	0.0137597
  42	0.00946098	-0.00805716	0.0126915
  43	0.0075475	-0.00478367	-0.00134434
  44	0.00156168	-0.00202735	0.00421681
  45	0.00181894	0.000548049	-0.00102574
  46	0.00367752	0.00124458	-0.00492143
  47	-0.00109837	-0.00564152	-0.00752744
  48	0.00309569	0.00836168	-0.000131875
  49	0.0109127	-0.00629082	0.00170464
  50	-0.00166279	-0.00148932	-0.0187084
  51	0.0026842	-0.00419479	0.000730269
  52	0.00302316	-0.00357369	0.000892702
  53	0.00201028	-0.00101353	0.00580207
  54	0.00346442	-0.000923699	0.0013067
  55	0.00711465	-0.00198282	4.54256e-05
  56	-0.00366257	0.00126711	0.00320401
  57	0.00253839	-0.00100471	0.00490006
  58	-0.000928226	-0.000963536	0.00294541
  59	0.00617553	-0.00273156	-0.000239852
  60	0.00562452	-0.00171228	0.000183896
  61	-0.00268087	-0.0001898	0.00624889
  62	0.000145125	-0.0017316	0.00204124
  63	0.00277253	-0.00452248	0.00160115
  64	0.00360718	0.0029713	0.00136551
  65	0.00302901	0.00282364	0.0012747
  66	0.00168329	-0.00242211	0.00247985
  67	-0.0012991	-0.00110867	0.000876304
  68	-0.000569189	-0.000728116	-0.000389631