pySIMM System Object

1372 atoms
1501 bonds
2636 angles
3980 dihedrals
416 impropers

9 atom types
11 bond types
18 angle types
7 dihedral types
4 improper types

-142.000621 142.000621 xlo xhi
-142.000621 142.000621 ylo yhi
-142.000621 142.000621 zlo zhi

Masses

   1	14.01	# n
   2	12.01	# c
   3	12.01	# ca
   4	1.008	# hn
   5	16.0	# o
   6	1.008	# ha
   7	12.01	# c3
   8	19.0	# f
   9	1.008	# hc

Pair Coeffs

   1	0.17	3.249998523775958	# n
   2	0.086	3.3996695084235347	# c
   3	0.086	3.3996695084235347	# ca
   4	0.0157	1.069078461768407	# hn
   5	0.21	2.959921901149463	# o
   6	0.015	2.59964245953351	# ha
   7	0.1094	3.3996695084235347	# c3
   8	0.061	3.1181455134911875	# f
   9	0.0157	2.649532787749369	# hc

Bond Coeffs

   1	345.8	1.086	# ca,ha
   2	637.7	1.2183	# c,o
   3	321.0	1.5156	# c3,ca
   4	300.9	1.5375	# c3,c3
   5	384.2	1.4121	# ca,n
   6	330.6	1.0969	# c3,hc
   7	403.2	1.0129	# hn,n
   8	356.9	1.3497	# c3,f
   9	461.1	1.3984	# ca,ca
  10	427.6	1.3789	# c,n
  11	345.9	1.4906	# c,ca

Angle Coeffs

   1	66.11	109.24	# c3,c3,f
   2	46.8	110.47	# ca,c3,hc
   3	39.4	107.58	# hc,c3,hc
   4	63.82	123.71	# c,n,ca
   5	66.62	120.02	# ca,ca,ca
   6	63.53	120.77	# c3,ca,ca
   7	62.86	111.51	# c3,c3,c3
   8	63.74	127.08	# c,n,c
   9	48.33	117.55	# c,n,hn
  10	64.28	120.33	# c,ca,ca
  11	48.18	119.88	# ca,ca,ha
  12	68.72	122.6	# ca,c,o
  13	63.15	112.07	# c3,c3,ca
  14	70.89	107.36	# f,c3,f
  15	67.87	120.19	# ca,ca,n
  16	63.56	112.24	# ca,c3,ca
  17	67.68	115.25	# ca,c,n
  18	74.22	123.05	# n,c,o

Dihedral Coeffs

   1	2	2.5	2	180	2.0	1	0	# hn,n,c,o
   2	1	3.625	2	180	# X,ca,ca,X
   3	1	0.15555555555555556	3	0	# X,c3,c3,X
   4	1	0.0	2	0	# X,c3,ca,X
   5	1	1.0	2	180	# X,c,ca,X
   6	1	2.5	2	180	# X,c,n,X
   7	1	0.45	2	180	# X,ca,n,X

Improper Coeffs

   1	1.1	-1	2	# n,X,X,hn
   2	1.1	-1	2	# ca,X,X,ha
   3	10.5	-1	2	# c,X,X,o
   4	1.1	-1	2	# ca,ca,ca,c3

Atoms

   1	1	1	0.486064	-22.3367	-7.11705	-33.8454
   2	1	2	0.047133	-21.5298	-6.07326	-34.2404
   3	1	3	0.001076	-21.6604	-6.05474	-35.7229
   4	1	2	0.034038	-23.1028	-7.64587	-34.867
   5	1	3	0.050122	-22.6467	-6.94198	-36.0684
   6	1	5	-0.383076	-20.8288	-5.37506	-33.5224
   7	1	5	-0.380811	-23.8109	-8.62484	-34.8203
   8	1	3	-0.001248	-20.9235	-5.35743	-36.6911
   9	1	3	-0.036565	-23.0051	-7.1211	-37.3909
  10	1	3	-0.208842	-22.3221	-6.38955	-38.3895
  11	1	3	-0.065319	-21.2239	-5.53284	-38.0616
  12	1	6	0.153391	-20.0846	-4.73944	-36.3662
  13	1	6	0.155343	-23.7941	-7.83582	-37.6395
  14	1	6	0.174191	-22.6	-6.60363	-39.4106
  15	1	7	-0.106637	-20.2254	-4.95611	-39.1186
  16	1	7	0.445763	-18.9424	-5.85578	-39.0338
  17	1	8	-0.144255	-18.2156	-5.77819	-40.1676
  18	1	8	-0.136881	-19.2091	-7.1725	-38.8764
  19	1	8	-0.144092	-18.1891	-5.5737	-37.9295
  20	1	7	0.367264	-20.8186	-5.04354	-40.5653
  21	1	8	-0.12104	-20.9493	-6.30375	-41.0401
  22	1	8	-0.122614	-20.0592	-4.35756	-41.472
  23	1	8	-0.112321	-22.0672	-4.50652	-40.5906
  24	1	3	-0.021957	-19.8839	-3.46002	-38.8118
  25	1	3	-0.054241	-18.5878	-2.90911	-39.0125
  26	1	3	-0.111709	-18.3726	-1.5486	-38.7903
  27	1	3	-0.087244	-20.9258	-2.57233	-38.3951
  28	1	3	-0.118951	-20.6914	-1.19602	-38.1909
  29	1	3	-0.044875	-19.3996	-0.715735	-38.4102
  30	1	2	0.461883	-18.8405	0.652256	-38.3467
  31	1	1	-0.007433	-17.4912	0.535276	-38.6066
  32	1	2	0.491356	-17.1138	-0.755726	-38.8811
  33	1	3	-0.019445	-16.6114	1.65756	-38.582
  34	1	3	-0.186861	-16.8155	2.75683	-39.4575
  35	1	3	-0.068374	-15.9173	3.83562	-39.4979
  36	1	3	-0.009193	-15.5998	1.71562	-37.6068
  37	1	3	0.220761	-14.7685	2.85042	-37.6119
  38	1	3	-0.402098	-14.8859	3.88946	-38.5602
  39	1	6	0.148422	-17.6536	2.74261	-40.1466
  40	1	6	0.146291	-16.0302	4.62347	-40.2381
  41	1	6	0.158981	-21.4876	-0.511758	-37.8976
  42	1	6	0.141813	-21.9431	-2.92871	-38.2635
  43	1	6	0.143633	-17.7576	-3.51625	-39.3536
  44	1	5	-0.474465	-15.9858	-1.16117	-39.0932
  45	1	5	-0.469737	-19.3982	1.70887	-38.1205
  46	1	7	-0.37887	-15.4195	0.65854	-36.5084
  47	1	9	0.115886	-16.3795	0.29407	-36.1024
  48	1	9	0.123845	-14.8458	1.06744	-35.6508
  49	1	9	0.138418	-14.8481	-0.208993	-36.8857
  50	1	6	0.21348	-14.1962	4.72653	-38.5613
  51	1	3	-0.004194	-13.1382	-13.1576	-29.2808
  52	1	3	-0.097141	-14.3296	-12.4145	-29.377
  53	1	3	-0.172015	-14.913	-12.1537	-30.6598
  54	1	5	-0.377994	-10.7939	-15.1161	-29.7283
  55	1	3	0.033493	-12.5881	-13.6984	-30.4329
  56	1	3	-0.063739	-14.382	-12.8016	-31.7987
  57	1	5	-0.398381	-12.7508	-14.3441	-33.8376
  58	1	3	0.032144	-13.223	-13.57	-31.6511
  59	1	2	0.032313	-11.4951	-14.6622	-30.6143
  60	1	1	0.461698	-11.5504	-15.0928	-31.9278
  61	1	2	0.091945	-12.4897	-14.3714	-32.652
  62	1	3	-0.10563	-18.4911	-12.5083	-29.259
  63	1	7	-0.099376	-14.8683	-11.7918	-28.0671
  64	1	3	-0.043296	-16.3902	-11.5163	-28.3083
  65	1	3	-0.073043	-17.1902	-12.6192	-28.7052
  66	1	3	-0.117827	-18.9333	-11.2064	-29.4512
  67	1	3	-0.037562	-16.9499	-10.2128	-28.4106
  68	1	3	-0.083705	-18.2046	-10.1132	-29.0399
  69	1	7	0.396	-14.0179	-10.4906	-27.8487
  70	1	7	0.310495	-14.7017	-12.6319	-26.7057
  71	1	8	-0.130298	-14.3707	-9.84664	-26.693
  72	1	8	-0.128745	-12.6971	-10.711	-27.6935
  73	1	8	-0.120019	-14.1458	-9.65866	-28.9157
  74	1	8	-0.104287	-13.4734	-12.8775	-26.2485
  75	1	8	-0.095507	-15.2525	-13.8452	-26.7592
  76	1	8	-0.104872	-15.2807	-12.0664	-25.6325
  77	1	2	0.456145	-18.9697	-8.92713	-29.46
  78	1	2	0.550902	-20.2191	-10.7636	-30.0036
  79	1	1	0.015704	-20.1528	-9.38415	-30.0352
  80	1	5	-0.456801	-18.6287	-7.77531	-29.3138
  81	1	5	-0.487703	-21.1	-11.5295	-30.3726
  82	1	3	-0.116566	-21.2085	-8.5916	-30.5859
  83	1	3	-0.050109	-21.2878	-8.32711	-31.9807
  84	1	3	0.154929	-22.3429	-7.53852	-32.4856
  85	1	3	0.041555	-22.2199	-8.12298	-29.7095
  86	1	3	-0.223109	-23.3478	-7.50015	-30.2473
  87	1	3	-0.080449	-23.4009	-7.18797	-31.6174
  88	1	7	-0.108008	-22.2193	-8.36661	-28.2024
  89	1	7	-0.182228	-24.6257	-6.44004	-32.1665
  90	1	7	-0.345523	-20.2282	-8.86738	-32.9396
  91	1	6	0.155183	-12.6255	-13.3039	-28.3383
  92	1	6	0.172904	-15.803	-11.5413	-30.7831
  93	1	6	0.158028	-14.8782	-12.698	-32.7562
  94	1	6	0.153129	-19.0679	-13.3716	-29.6001
  95	1	6	0.142914	-16.7507	-13.6201	-28.6465
  96	1	6	0.135531	-16.4034	-9.28844	-28.2268
  97	1	6	0.17765	-24.1612	-7.21634	-29.5848
  98	1	9	0.046541	-21.2444	-8.11119	-27.7681
  99	1	9	0.045238	-22.418	-9.42141	-27.9848
 100	1	9	0.051941	-22.9872	-7.7736	-27.6906
 101	1	9	0.087961	-24.357	-5.4614	-32.6027
 102	1	9	0.066782	-25.3537	-6.23991	-31.3681
 103	1	9	0.075908	-25.166	-7.01444	-32.9308
 104	1	9	0.105172	-19.929	-8.19614	-33.7494
 105	1	9	0.115625	-19.2899	-9.01602	-32.3995
 106	1	9	0.140296	-20.5413	-9.8364	-33.3801
 107	1	1	0.486064	-9.16019	-27.3443	-26.1444
 108	1	2	0.047133	-8.77556	-26.4188	-27.1212
 109	1	3	0.001076	-9.59623	-26.7583	-28.3285
 110	1	2	0.034038	-10.1461	-28.2221	-26.6086
 111	1	3	0.050122	-10.4333	-27.8032	-28.01
 112	1	5	-0.383076	-7.88912	-25.597	-27.0596
 113	1	5	-0.380811	-10.6814	-29.1298	-26.0015
 114	1	3	-0.001248	-9.5954	-26.1632	-29.5748
 115	1	3	-0.036565	-11.2453	-28.3971	-29.0162
 116	1	3	-0.208842	-11.2431	-27.807	-30.3198
 117	1	3	-0.065319	-10.4579	-26.6551	-30.625
 118	1	6	0.153391	-8.93393	-25.3228	-29.6806
 119	1	6	0.155343	-11.8163	-29.3039	-28.8066
 120	1	6	0.174191	-11.8466	-28.2759	-31.1027
 121	1	7	-0.106637	-10.4993	-25.9523	-32.0582
 122	1	7	0.445763	-11.9617	-25.9076	-32.7739
 123	1	8	-0.144255	-12.8951	-25.2938	-31.9614
 124	1	8	-0.136881	-12.4851	-27.0865	-33.1902
 125	1	8	-0.144092	-11.8595	-25.2328	-33.9615
 126	1	7	0.367264	-9.51634	-26.7217	-33.053
 127	1	8	-0.12104	-9.91417	-28.0038	-33.3977
 128	1	8	-0.122614	-8.287	-26.9657	-32.5607
 129	1	8	-0.112321	-9.30485	-25.9599	-34.1573
 130	1	3	-0.021957	-9.92373	-24.4518	-31.9466
 131	1	3	-0.054241	-10.7266	-23.2767	-32.2229
 132	1	3	-0.111709	-10.1549	-22.0204	-32.1308
 133	1	3	-0.087244	-8.54567	-24.1875	-31.7238
 134	1	3	-0.118951	-7.97336	-22.9232	-31.6405
 135	1	3	-0.044875	-8.79943	-21.8385	-31.8658
 136	1	2	0.461883	-8.51742	-20.375	-31.6689
 137	1	1	-0.007433	-9.71292	-19.7824	-32.0694
 138	1	2	0.491356	-10.7524	-20.6671	-32.3776
 139	1	3	-0.019445	-9.76192	-18.4195	-32.4332
 140	1	3	-0.186861	-8.86015	-18.0439	-33.4449
 141	1	3	-0.068374	-8.86729	-16.743	-33.9855
 142	1	3	-0.009193	-10.715	-17.4824	-31.9248
 143	1	3	0.220761	-10.7018	-16.1308	-32.4523
 144	1	3	-0.402098	-9.75094	-15.7864	-33.4476
 145	1	6	0.148422	-8.17739	-18.7851	-33.8425
 146	1	6	0.146291	-8.19827	-16.4924	-34.7958
 147	1	6	0.158981	-6.91053	-22.7693	-31.4514
 148	1	6	0.141813	-7.84718	-25.0065	-31.5378
 149	1	6	0.143633	-11.7858	-23.2811	-32.5077
 150	1	5	-0.474465	-11.8739	-20.4127	-32.835
 151	1	5	-0.469737	-7.45004	-19.8301	-31.3575
 152	1	7	-0.37887	-11.7181	-17.9961	-30.8671
 153	1	9	0.115886	-12.5271	-18.5572	-31.348
 154	1	9	0.123845	-12.2987	-17.2204	-30.3398
 155	1	9	0.138418	-11.2501	-18.6356	-30.1047
 156	1	6	0.21348	-9.74665	-14.7495	-33.7932
 157	1	3	-0.004194	1.22629	-30.7367	-21.8881
 158	1	3	-0.097141	0.839689	-30.5995	-20.5334
 159	1	3	-0.172015	1.87744	-30.4628	-19.5436
 160	1	5	-0.377994	2.63339	-31.5613	-24.4978
 161	1	3	0.033493	2.56826	-30.9408	-22.1727
 162	1	3	-0.063739	3.24749	-30.599	-19.8734
 163	1	5	-0.398381	5.92128	-31.3185	-21.2579
 164	1	3	0.032144	3.55415	-30.8954	-21.2027
 165	1	2	0.032313	3.18959	-31.4116	-23.4281
 166	1	1	0.461698	4.53763	-31.6488	-23.1351
 167	1	2	0.091945	4.83784	-31.3203	-21.8148
 168	1	3	-0.10563	-2.05623	-27.6233	-21.9313
 169	1	7	-0.099376	-0.647794	-30.8298	-20.1581
 170	1	3	-0.043296	-1.59026	-29.8648	-20.9516
 171	1	3	-0.073043	-1.1768	-28.5493	-21.306
 172	1	3	-0.117827	-3.37579	-28.0421	-22.2304
 173	1	3	-0.037562	-2.94813	-30.2238	-21.1708
 174	1	3	-0.083705	-3.80954	-29.2774	-21.77
 175	1	7	0.396	-0.906694	-32.3468	-20.5526
 176	1	7	0.310495	-0.959781	-30.6065	-18.6052
 177	1	8	-0.130298	-1.23276	-32.5016	-21.8792
 178	1	8	-0.128745	-1.94863	-32.8204	-19.8342
 179	1	8	-0.120019	0.12435	-33.2292	-20.3011
 180	1	8	-0.104287	-0.497613	-29.3902	-18.2035
 181	1	8	-0.095507	-0.387921	-31.537	-17.7963
 182	1	8	-0.104872	-2.28575	-30.6342	-18.3106
 183	1	2	0.456145	-5.25807	-29.3764	-22.1311
 184	1	2	0.550902	-4.48582	-27.3824	-22.9449
 185	1	1	0.015704	-5.59755	-28.1966	-22.8206
 186	1	5	-0.456801	-5.96847	-30.3204	-21.8817
 187	1	5	-0.487703	-4.44135	-26.215	-23.2707
 188	1	3	-0.116566	-6.93781	-27.7606	-23.1491
 189	1	3	-0.050109	-7.39725	-27.8062	-24.5051
 190	1	3	0.154929	-8.71457	-27.3226	-24.8051
 191	1	3	0.041555	-7.79276	-27.2925	-22.1111
 192	1	3	-0.223109	-9.12421	-26.8953	-22.448
 193	1	3	-0.080449	-9.6087	-26.8861	-23.7753
 194	1	7	-0.108008	-7.3758	-27.2011	-20.6467
 195	1	7	-0.182228	-11.0027	-26.3024	-24.1037
 196	1	7	-0.345523	-6.45994	-28.2698	-25.6511
 197	1	6	0.155183	0.514785	-30.8511	-22.7081
 198	1	6	0.172904	1.65959	-30.3517	-18.4877
 199	1	6	0.158028	4.02418	-30.5823	-19.1112
 200	1	6	0.153129	-1.69378	-26.6433	-22.2383
 201	1	6	0.142914	-0.156435	-28.2013	-21.0769
 202	1	6	0.135531	-3.3685	-31.1694	-20.8453
 203	1	6	0.17765	-9.80744	-26.6335	-21.6463
 204	1	9	0.046541	-8.1529	-26.6761	-20.0965
 205	1	9	0.045238	-6.45006	-26.6389	-20.4952
 206	1	9	0.051941	-7.29702	-28.204	-20.2385
 207	1	9	0.087961	-11.4526	-25.8374	-23.241
 208	1	9	0.066782	-11.7246	-27.0574	-24.4441
 209	1	9	0.075908	-10.9146	-25.5413	-24.908
 210	1	9	0.105172	-5.86856	-27.4255	-26.0562
 211	1	9	0.115625	-6.98673	-28.6692	-26.5272
 212	1	9	0.140296	-5.81228	-29.0989	-25.359
 213	1	1	0.486064	7.21134	-38.9169	-30.1648
 214	1	2	0.047133	8.08207	-37.8544	-29.9119
 215	1	3	0.001076	9.27986	-38.4946	-29.3133
 216	1	2	0.034038	7.7589	-40.1735	-29.904
 217	1	3	0.050122	9.07394	-39.8598	-29.2769
 218	1	5	-0.383076	7.82745	-36.6592	-29.9656
 219	1	5	-0.380811	7.21649	-41.2706	-29.9806
 220	1	3	-0.001248	10.4132	-37.9118	-28.737
 221	1	3	-0.036565	9.98473	-40.7048	-28.6335
 222	1	3	-0.208842	11.1243	-40.1298	-28.0086
 223	1	3	-0.065319	11.3707	-38.7193	-28.0514
 224	1	6	0.153391	10.4607	-36.8326	-28.7315
 225	1	6	0.155343	9.78981	-41.7741	-28.5985
 226	1	6	0.174191	11.7825	-40.8068	-27.4712
 227	1	7	-0.106637	12.4955	-38.0151	-27.1997
 228	1	7	0.445763	13.5174	-39.0418	-26.5494
 229	1	8	-0.144255	14.5468	-38.514	-25.8398
 230	1	8	-0.136881	14.0833	-39.8162	-27.4937
 231	1	8	-0.144092	12.9085	-39.8509	-25.6557
 232	1	7	0.367264	13.2809	-37.0118	-28.1827
 233	1	8	-0.12104	14.4734	-36.5545	-27.7223
 234	1	8	-0.122614	12.569	-35.8905	-28.4565
 235	1	8	-0.112321	13.5375	-37.5714	-29.3859
 236	1	3	-0.021957	11.8353	-37.206	-26.0442
 237	1	3	-0.054241	10.4371	-37.241	-25.7763
 238	1	3	-0.111709	9.87639	-36.1515	-25.1
 239	1	3	-0.087244	12.6485	-36.294	-25.3313
 240	1	3	-0.118951	12.0671	-35.3089	-24.5316
 241	1	3	-0.044875	10.6679	-35.2198	-24.4738
 242	1	2	0.461883	9.78249	-34.0951	-24.0485
 243	1	1	-0.007433	8.5075	-34.4083	-24.5025
 244	1	2	0.491356	8.46534	-35.6637	-25.1123
 245	1	3	-0.019445	7.51948	-33.4033	-24.6906
 246	1	3	-0.186861	7.69787	-32.5874	-25.8084
 247	1	3	-0.068374	6.84731	-31.5252	-26.0742
 248	1	3	-0.009193	6.45581	-33.1439	-23.7961
 249	1	3	0.220761	5.53522	-32.0833	-24.081
 250	1	3	-0.402098	5.75572	-31.2885	-25.2363
 251	1	6	0.148422	8.56689	-32.7265	-26.4575
 252	1	6	0.146291	7.04031	-30.8708	-26.917
 253	1	6	0.158981	12.6772	-34.5232	-24.1048
 254	1	6	0.141813	13.7185	-36.2455	-25.4726
 255	1	6	0.143633	9.76856	-37.964	-26.2319
 256	1	5	-0.474465	7.51468	-36.2495	-25.6179
 257	1	5	-0.469737	10.1497	-33.0522	-23.5388
 258	1	7	-0.37887	6.31038	-34.051	-22.5771
 259	1	9	0.115886	5.30355	-34.0437	-22.1408
 260	1	9	0.123845	7.01241	-33.7067	-21.7962
 261	1	9	0.138418	6.52268	-35.097	-22.8345
 262	1	6	0.21348	5.11206	-30.4429	-25.4589
 263	1	1	0.486064	-5.5354	-42.7398	-22.2121
 264	1	2	0.047133	-5.58042	-41.3514	-22.4308
 265	1	3	0.001076	-4.17868	-40.9337	-22.7414
 266	1	2	0.034038	-4.21335	-43.2116	-22.2483
 267	1	3	0.050122	-3.37941	-42.0505	-22.6016
 268	1	5	-0.383076	-6.54209	-40.6653	-22.6798
 269	1	5	-0.380811	-3.79213	-44.3454	-22.2335
 270	1	3	-0.001248	-3.68499	-39.749	-23.3232
 271	1	3	-0.036565	-2.04059	-42.0315	-23.0006
 272	1	3	-0.208842	-1.5224	-40.8471	-23.5476
 273	1	3	-0.065319	-2.31762	-39.6822	-23.7309
 274	1	6	0.153391	-4.3811	-38.9261	-23.4596
 275	1	6	0.155343	-1.43944	-42.9294	-22.9159
 276	1	6	0.174191	-0.485633	-40.8629	-23.8528
 277	1	7	-0.106637	-1.61237	-38.4346	-24.3815
 278	1	7	0.445763	-2.62279	-37.2965	-24.747
 279	1	8	-0.144255	-3.55056	-37.798	-25.5894
 280	1	8	-0.136881	-2.02661	-36.2754	-25.3989
 281	1	8	-0.144092	-3.20886	-36.7584	-23.6622
 282	1	7	0.367264	-0.607116	-37.9215	-23.2879
 283	1	8	-0.12104	-1.14135	-37.957	-22.0448
 284	1	8	-0.122614	-0.190638	-36.6506	-23.4921
 285	1	8	-0.112321	0.52853	-38.6672	-23.2511
 286	1	3	-0.021957	-0.877519	-38.7898	-25.7183
 287	1	3	-0.054241	0.174378	-37.9745	-26.2516
 288	1	3	-0.111709	0.831369	-38.4026	-27.4256
 289	1	3	-0.087244	-1.29372	-39.941	-26.4541
 290	1	3	-0.118951	-0.570763	-40.3798	-27.5785
 291	1	3	-0.044875	0.500258	-39.6052	-28.0136
 292	1	2	0.461883	1.45561	-39.8926	-29.1137
 293	1	1	-0.007433	2.34232	-38.8159	-29.1206
 294	1	2	0.491356	2.02455	-37.87	-28.1423
 295	1	3	-0.019445	3.43811	-38.7045	-30.0284
 296	1	3	-0.186861	3.17091	-38.4454	-31.3778
 297	1	3	-0.068374	4.2209	-38.2124	-32.2866
 298	1	3	-0.009193	4.79099	-38.8589	-29.5995
 299	1	3	0.220761	5.85607	-38.7195	-30.5416
 300	1	3	-0.402098	5.55566	-38.3414	-31.8666
 301	1	6	0.148422	2.13929	-38.358	-31.7346
 302	1	6	0.146291	4.00611	-37.9322	-33.306
 303	1	6	0.158981	-0.823762	-41.3054	-28.0972
 304	1	6	0.141813	-2.13978	-40.5281	-26.1327
 305	1	6	0.143633	0.484837	-37.0358	-25.7959
 306	1	5	-0.474465	2.59723	-36.8389	-27.8443
 307	1	5	-0.469737	1.41008	-40.8737	-29.8457
 308	1	7	-0.37887	5.09392	-39.0294	-28.0992
 309	1	9	0.115886	4.4365	-39.7725	-27.6327
 310	1	9	0.123845	4.95432	-38.0789	-27.5613
 311	1	9	0.138418	6.1069	-39.3801	-27.8735
 312	1	6	0.21348	6.35513	-38.1956	-32.5843
 313	1	3	-0.004194	-13.5644	-45.8835	-13.4014
 314	1	3	-0.097141	-12.549	-46.2094	-14.3378
 315	1	3	-0.172015	-11.247	-45.6671	-14.1299
 316	1	5	-0.377994	-15.2483	-45.1757	-10.957
 317	1	3	0.033493	-13.2425	-45.1123	-12.2923
 318	1	3	-0.063739	-10.9681	-44.8209	-13.0214
 319	1	5	-0.398381	-11.0131	-43.4538	-10.1679
 320	1	3	0.032144	-11.9863	-44.5916	-12.0901
 321	1	2	0.032313	-14.0934	-44.8098	-11.1247
 322	1	1	0.461698	-13.2648	-44.1238	-10.2396
 323	1	2	0.091945	-11.9839	-43.9338	-10.7431
 324	1	3	-0.10563	-9.80159	-48.3333	-17.742
 325	1	7	-0.099376	-12.8123	-47.2731	-15.4347
 326	1	3	-0.043296	-11.6797	-47.2413	-16.5211
 327	1	3	-0.073043	-10.7988	-48.3325	-16.7505
 328	1	3	-0.117827	-9.65646	-47.1878	-18.5143
 329	1	3	-0.037562	-11.4972	-46.0994	-17.3563
 330	1	3	-0.083705	-10.4804	-46.0989	-18.3413
 331	1	7	0.396	-14.1793	-46.9563	-16.1822
 332	1	7	0.310495	-12.8774	-48.6635	-14.6593
 333	1	8	-0.130298	-15.2702	-47.3332	-15.4858
 334	1	8	-0.128745	-14.2694	-47.5786	-17.3868
 335	1	8	-0.120019	-14.3324	-45.6139	-16.3933
 336	1	8	-0.104287	-13.1814	-49.709	-15.4667
 337	1	8	-0.095507	-13.8039	-48.6862	-13.6767
 338	1	8	-0.104872	-11.7136	-48.9421	-14.0206
 339	1	2	0.456145	-10.0725	-45.0697	-19.355
 340	1	2	0.550902	-8.66875	-46.8836	-19.5808
 341	1	1	0.015704	-9.00243	-45.6289	-20.0463
 342	1	5	-0.456801	-10.6405	-44.0137	-19.5801
 343	1	5	-0.487703	-7.76249	-47.6101	-19.9373
 344	1	3	-0.116566	-8.39047	-45.0418	-21.1996
 345	1	3	-0.050109	-7.29135	-44.1457	-21.0934
 346	1	3	0.154929	-6.68525	-43.6157	-22.27
 347	1	3	0.041555	-8.86615	-45.4514	-22.4679
 348	1	3	-0.223109	-8.27501	-44.909	-23.6293
 349	1	3	-0.080449	-7.20552	-43.9962	-23.5447
 350	1	7	-0.108008	-10.0577	-46.4063	-22.6262
 351	1	7	-0.182228	-6.56518	-43.4949	-24.8465
 352	1	7	-0.345523	-6.7691	-43.792	-19.6853
 353	1	6	0.155183	-14.5698	-46.2844	-13.4625
 354	1	6	0.172904	-10.4164	-45.9153	-14.788
 355	1	6	0.158028	-9.9775	-44.4228	-12.854
 356	1	6	0.153129	-9.13721	-49.1903	-17.8947
 357	1	6	0.142914	-10.8813	-49.2467	-16.1827
 358	1	6	0.135531	-12.1263	-45.2051	-17.2537
 359	1	6	0.17765	-8.6593	-45.2032	-24.5881
 360	1	9	0.046541	-10.4321	-46.4379	-23.6535
 361	1	9	0.045238	-10.9098	-46.0882	-22.0172
 362	1	9	0.051941	-9.80269	-47.4304	-22.3372
 363	1	9	0.087961	-6.964	-43.9989	-25.7359
 364	1	9	0.066782	-5.47232	-43.6322	-24.8288
 365	1	9	0.075908	-6.76298	-42.4264	-24.9959
 366	1	9	0.105172	-5.91288	-43.1017	-19.6823
 367	1	9	0.115625	-6.46405	-44.6871	-19.1502
 368	1	9	0.140296	-7.58286	-43.3011	-19.1294
 369	1	1	0.486064	-17.2481	-46.8789	3.04872
 370	1	2	0.047133	-17.6861	-46.6035	1.7484
 371	1	3	0.001076	-17.5653	-47.8724	1.01091
 372	1	2	0.034038	-16.8508	-48.2069	3.22823
 373	1	3	0.050122	-17.0901	-48.8454	1.88677
 374	1	5	-0.383076	-18.1519	-45.5644	1.32337
 375	1	5	-0.380811	-16.371	-48.707	4.22401
 376	1	3	-0.001248	-17.7999	-48.1443	-0.344085
 377	1	3	-0.036565	-16.9746	-50.1671	1.45207
 378	1	3	-0.208842	-17.2885	-50.4749	0.111038
 379	1	3	-0.065319	-17.669	-49.4708	-0.84188
 380	1	6	0.153391	-18.0701	-47.315	-0.987443
 381	1	6	0.155343	-16.6283	-50.9454	2.13058
 382	1	6	0.174191	-17.2004	-51.5035	-0.186804
 383	1	7	-0.106637	-17.8585	-49.7205	-2.38327
 384	1	7	0.445763	-17.7334	-51.2367	-2.79473
 385	1	8	-0.144255	-18.6642	-52.0153	-2.20446
 386	1	8	-0.136881	-16.5292	-51.7562	-2.46038
 387	1	8	-0.144092	-17.8346	-51.4265	-4.13824
 388	1	7	0.367264	-19.3032	-49.2372	-2.8252
 389	1	8	-0.12104	-20.253	-49.7126	-1.95278
 390	1	8	-0.122614	-19.663	-49.6672	-4.05965
 391	1	8	-0.112321	-19.4682	-47.8901	-2.82669
 392	1	3	-0.021957	-16.7257	-48.9022	-3.08767
 393	1	3	-0.054241	-16.9393	-48.1241	-4.26677
 394	1	3	-0.111709	-15.9226	-47.2943	-4.71506
 395	1	3	-0.087244	-15.4298	-48.8837	-2.49493
 396	1	3	-0.118951	-14.4004	-48.0695	-2.9971
 397	1	3	-0.044875	-14.6836	-47.258	-4.10426
 398	1	2	0.461883	-13.8623	-46.2365	-4.81273
 399	1	1	-0.007433	-14.6761	-45.7453	-5.82057
 400	1	2	0.491356	-15.9238	-46.3304	-5.8401
 401	1	3	-0.019445	-14.317	-44.6984	-6.68962
 402	1	3	-0.186861	-14.4728	-43.3754	-6.24323
 403	1	3	-0.068374	-14.1555	-42.2972	-7.08339
 404	1	3	-0.009193	-13.8864	-44.9584	-8.01211
 405	1	3	0.220761	-13.6095	-43.8811	-8.88851
 406	1	3	-0.402098	-13.6971	-42.5591	-8.39214
 407	1	6	0.148422	-14.8137	-43.1762	-5.23355
 408	1	6	0.146291	-14.2374	-41.2778	-6.70642
 409	1	6	0.158981	-13.4161	-48.0617	-2.52941
 410	1	6	0.141813	-15.2056	-49.4762	-1.63126
 411	1	6	0.143633	-17.8963	-48.0851	-4.78256
 412	1	5	-0.474465	-16.8615	-46.0674	-6.57925
 413	1	5	-0.469737	-12.7135	-45.9156	-4.55904
 414	1	7	-0.37887	-13.7819	-46.4214	-8.49959
 415	1	9	0.115886	-13.4924	-47.0947	-7.68823
 416	1	9	0.123845	-12.9882	-46.574	-9.251
 417	1	9	0.138418	-14.7304	-46.7829	-8.90075
 418	1	6	0.21348	-13.4563	-41.7302	-9.048
 419	1	3	-0.004194	-11.6332	-36.3949	1.64323
 420	1	3	-0.097141	-11.6496	-37.677	2.26401
 421	1	3	-0.172015	-11.5538	-38.8318	1.4305
 422	1	5	-0.377994	-11.7157	-33.9689	-0.304653
 423	1	3	0.033493	-11.5476	-36.3145	0.247876
 424	1	3	-0.063739	-11.4661	-38.7399	0.0251642
 425	1	5	-0.398381	-11.1568	-37.7903	-2.88954
 426	1	3	0.032144	-11.434	-37.451	-0.531565
 427	1	2	0.032313	-11.5822	-35.1282	-0.641262
 428	1	1	0.461698	-11.411	-35.6568	-1.9183
 429	1	2	0.091945	-11.3257	-37.0439	-1.94571
 430	1	3	-0.10563	-15.4355	-39.2923	3.01922
 431	1	7	-0.099376	-11.9305	-37.8538	3.78459
 432	1	3	-0.043296	-13.1599	-38.792	3.85946
 433	1	3	-0.073043	-14.2923	-38.4812	3.04855
 434	1	3	-0.117827	-15.4408	-40.4339	3.80037
 435	1	3	-0.037562	-13.21	-39.9642	4.66249
 436	1	3	-0.083705	-14.3593	-40.7605	4.60181
 437	1	7	0.396	-12.3354	-36.5093	4.53415
 438	1	7	0.310495	-10.6188	-38.4342	4.42315
 439	1	8	-0.130298	-12.8079	-36.7381	5.77724
 440	1	8	-0.128745	-13.3282	-35.853	3.87589
 441	1	8	-0.120019	-11.3185	-35.6316	4.70662
 442	1	8	-0.104287	-10.3423	-39.6782	3.97691
 443	1	8	-0.095507	-10.6624	-38.5118	5.76834
 444	1	8	-0.104872	-9.53055	-37.6866	4.11493
 445	1	2	0.456145	-14.6717	-42.0774	5.24493
 446	1	2	0.550902	-16.4552	-41.5119	3.87738
 447	1	1	0.015704	-15.9021	-42.4649	4.73129
 448	1	5	-0.456801	-13.9942	-42.6871	6.06121
 449	1	5	-0.487703	-17.5209	-41.5367	3.29609
 450	1	3	-0.116566	-16.5079	-43.7285	4.95601
 451	1	3	-0.050109	-16.4153	-44.7358	3.97008
 452	1	3	0.154929	-17.2124	-45.8996	4.10402
 453	1	3	0.041555	-17.3098	-43.9	6.10609
 454	1	3	-0.223109	-18.0548	-45.0696	6.25092
 455	1	3	-0.080449	-18.0594	-46.0356	5.22823
 456	1	7	-0.108008	-17.4052	-42.7915	7.15979
 457	1	7	-0.182228	-19.0559	-47.1868	5.37184
 458	1	7	-0.345523	-15.4506	-44.6024	2.77966
 459	1	6	0.155183	-11.7041	-35.4678	2.19839
 460	1	6	0.172904	-11.6192	-39.825	1.86086
 461	1	6	0.158028	-11.4015	-39.6261	-0.601282
 462	1	6	0.153129	-16.2769	-39.0647	2.37446
 463	1	6	0.142914	-14.3132	-37.6082	2.41292
 464	1	6	0.135531	-12.3898	-40.2521	5.32307
 465	1	6	0.17765	-18.6794	-45.1873	7.10451
 466	1	9	0.046541	-17.6768	-41.8415	6.70939
 467	1	9	0.045238	-16.4515	-42.6511	7.67806
 468	1	9	0.051941	-18.1381	-43.0382	7.92342
 469	1	9	0.087961	-19.4788	-47.4979	4.40642
 470	1	9	0.066782	-19.895	-46.9154	6.03811
 471	1	9	0.075908	-18.5565	-48.0568	5.81373
 472	1	9	0.105172	-14.9698	-45.5544	2.53209
 473	1	9	0.115625	-14.6372	-43.8642	2.93246
 474	1	9	0.140296	-16.0179	-44.2705	1.89586
 475	1	3	-0.004194	-3.81134	-27.2997	-6.04343
 476	1	3	-0.097141	-4.54163	-28.4284	-6.50559
 477	1	3	-0.172015	-5.92185	-28.2632	-6.79617
 478	1	5	-0.377994	-2.72784	-24.4494	-5.47131
 479	1	3	0.033493	-4.45928	-26.0726	-5.92564
 480	1	3	-0.063739	-6.55433	-27.0164	-6.64783
 481	1	5	-0.398381	-7.25508	-24.0387	-6.38915
 482	1	3	0.032144	-5.79473	-25.9352	-6.21672
 483	1	2	0.032313	-3.9042	-24.7213	-5.65814
 484	1	1	0.461698	-4.97508	-23.8428	-5.83705
 485	1	2	0.091945	-6.15786	-24.5051	-6.1446
 486	1	3	-0.10563	-5.80872	-33.0673	-7.53542
 487	1	7	-0.099376	-3.82639	-29.7819	-6.81219
 488	1	3	-0.043296	-4.83751	-30.9678	-6.67713
 489	1	3	-0.073043	-4.86782	-32.0346	-7.6138
 490	1	3	-0.117827	-6.75214	-33.02	-6.50585
 491	1	3	-0.037562	-5.71029	-31.0343	-5.55796
 492	1	3	-0.083705	-6.69348	-32.0405	-5.52929
 493	1	7	0.396	-2.65857	-30.0583	-5.80227
 494	1	7	0.310495	-3.24218	-29.6116	-8.27474
 495	1	8	-0.130298	-3.0541	-29.7982	-4.5458
 496	1	8	-0.128745	-1.56033	-29.3107	-6.05641
 497	1	8	-0.120019	-2.24389	-31.337	-5.82508
 498	1	8	-0.104287	-4.24149	-29.6786	-9.17877
 499	1	8	-0.095507	-2.34118	-30.5474	-8.62206
 500	1	8	-0.104872	-2.61533	-28.413	-8.44222
 501	1	2	0.456145	-7.88874	-32.2118	-4.6527
 502	1	2	0.550902	-7.95543	-33.8626	-6.27666
 503	1	1	0.015704	-8.58966	-33.2832	-5.1853
 504	1	5	-0.456801	-8.15171	-31.5549	-3.66577
 505	1	5	-0.487703	-8.31891	-34.7897	-6.98599
 506	1	3	-0.116566	-9.87468	-33.7063	-4.73191
 507	1	3	-0.050109	-9.99248	-34.4512	-3.52576
 508	1	3	0.154929	-11.2753	-34.8689	-3.08646
 509	1	3	0.041555	-11.0194	-33.3816	-5.49852
 510	1	3	-0.223109	-12.2706	-33.7982	-5.04479
 511	1	3	-0.080449	-12.4111	-34.5509	-3.87086
 512	1	7	-0.108008	-10.9598	-32.618	-6.8231
 513	1	7	-0.182228	-13.8277	-34.9839	-3.48917
 514	1	7	-0.345523	-8.731	-34.7589	-2.70435
 515	1	6	0.155183	-2.74787	-27.3261	-5.85173
 516	1	6	0.172904	-6.50765	-29.0896	-7.19857
 517	1	6	0.158028	-7.60281	-26.8745	-6.91194
 518	1	6	0.153129	-5.83497	-33.8463	-8.29682
 519	1	6	0.142914	-4.17478	-32.079	-8.44908
 520	1	6	0.135531	-5.69315	-30.2688	-4.78905
 521	1	6	0.17765	-13.1519	-33.5374	-5.63804
 522	1	9	0.046541	-10.1939	-31.835	-6.80742
 523	1	9	0.045238	-11.9156	-32.1296	-7.06765
 524	1	9	0.051941	-10.733	-33.3032	-7.64573
 525	1	9	0.087961	-14.0565	-34.7398	-2.44244
 526	1	9	0.066782	-13.9591	-36.0613	-3.6395
 527	1	9	0.075908	-14.5894	-34.4824	-4.09726
 528	1	9	0.105172	-7.95351	-35.2315	-3.31076
 529	1	9	0.115625	-8.91458	-35.4295	-1.85592
 530	1	9	0.140296	-8.29731	-33.8471	-2.27284
 531	1	1	0.486064	2.29977	-12.5166	2.21907
 532	1	2	0.047133	1.09443	-12.2276	1.56192
 533	1	3	0.001076	0.293619	-13.4733	1.61794
 534	1	2	0.034038	2.392	-13.8736	2.56304
 535	1	3	0.050122	1.09464	-14.4706	2.13514
 536	1	5	-0.383076	0.76467	-11.2087	0.981586
 537	1	5	-0.380811	3.31997	-14.4689	3.09708
 538	1	3	-0.001248	-1.01383	-13.7236	1.16696
 539	1	3	-0.036565	0.667073	-15.7955	2.14164
 540	1	3	-0.208842	-0.653593	-16.0687	1.6997
 541	1	3	-0.065319	-1.53979	-15.0452	1.23586
 542	1	6	0.153391	-1.58663	-12.8846	0.777961
 543	1	6	0.155343	1.33287	-16.5832	2.4887
 544	1	6	0.174191	-0.95821	-17.1117	1.68383
 545	1	7	-0.106637	-2.96563	-15.4239	0.676162
 546	1	7	0.445763	-3.7396	-16.1584	1.83966
 547	1	8	-0.144255	-5.04909	-16.3614	1.61533
 548	1	8	-0.136881	-3.67272	-15.4574	2.9882
 549	1	8	-0.144092	-3.23548	-17.3821	2.09212
 550	1	7	0.367264	-3.82753	-14.1871	0.201505
 551	1	8	-0.12104	-5.02997	-14.574	-0.279821
 552	1	8	-0.122614	-4.04595	-13.2655	1.17688
 553	1	8	-0.112321	-3.25256	-13.5418	-0.838941
 554	1	3	-0.021957	-2.82087	-16.3238	-0.591488
 555	1	3	-0.054241	-3.86973	-17.1753	-1.06464
 556	1	3	-0.111709	-3.6895	-17.9083	-2.24217
 557	1	3	-0.087244	-1.63149	-16.2636	-1.37094
 558	1	3	-0.118951	-1.47148	-17.0261	-2.54068
 559	1	3	-0.044875	-2.52336	-17.8241	-2.96522
 560	1	2	0.461883	-2.62883	-18.71	-4.14892
 561	1	1	-0.007433	-3.88243	-19.2958	-4.05416
 562	1	2	0.491356	-4.59187	-18.8628	-2.93229
 563	1	3	-0.019445	-4.35499	-20.1911	-5.05859
 564	1	3	-0.186861	-4.61651	-19.6343	-6.32698
 565	1	3	-0.068374	-4.98697	-20.4499	-7.40574
 566	1	3	-0.009193	-4.45024	-21.5964	-4.86492
 567	1	3	0.220761	-4.84774	-22.4266	-5.95071
 568	1	3	-0.402098	-5.11402	-21.8357	-7.21073
 569	1	6	0.148422	-4.50733	-18.5683	-6.48688
 570	1	6	0.146291	-5.19765	-19.9972	-8.37653
 571	1	6	0.158981	-0.550049	-16.9762	-3.11459
 572	1	6	0.141813	-0.820731	-15.6152	-1.08079
 573	1	6	0.143633	-4.82399	-17.2577	-0.556024
 574	1	5	-0.474465	-5.68295	-19.2177	-2.52928
 575	1	5	-0.469737	-1.78214	-18.8569	-5.01022
 576	1	7	-0.37887	-4.0567	-22.2092	-3.51874
 577	1	9	0.115886	-2.9762	-22.4036	-3.48736
 578	1	9	0.123845	-4.55894	-23.1646	-3.31492
 579	1	9	0.138418	-4.3091	-21.5566	-2.67435
 580	1	6	0.21348	-5.41109	-22.4644	-8.05272
 581	1	1	0.486064	7.75628	0.150466	10.8583
 582	1	2	0.047133	6.42092	0.136238	10.5223
 583	1	3	0.001076	6.21249	-1.14869	9.8383
 584	1	2	0.034038	8.44195	-0.982956	10.4098
 585	1	3	0.050122	7.40792	-1.82606	9.7634
 586	1	5	-0.383076	5.60098	1.0276	10.6508
 587	1	5	-0.380811	9.58071	-1.33348	10.6634
 588	1	3	-0.001248	5.03241	-1.66585	9.30687
 589	1	3	-0.036565	7.48263	-3.09062	9.16673
 590	1	3	-0.208842	6.28962	-3.65737	8.65468
 591	1	3	-0.065319	5.05315	-2.94881	8.69863
 592	1	6	0.153391	4.13584	-1.05456	9.40639
 593	1	6	0.155343	8.42833	-3.62618	9.13472
 594	1	6	0.174191	6.33485	-4.65431	8.23144
 595	1	7	-0.106637	3.74399	-3.61918	8.19236
 596	1	7	0.445763	2.68113	-2.54306	7.70193
 597	1	8	-0.144255	3.25767	-1.62107	6.89831
 598	1	8	-0.136881	2.08517	-1.85727	8.70327
 599	1	8	-0.144092	1.67068	-3.09343	6.99332
 600	1	7	0.367264	3.15697	-4.4135	9.42053
 601	1	8	-0.12104	3.99753	-5.42767	9.72864
 602	1	8	-0.122614	1.92659	-4.93541	9.17669
 603	1	8	-0.112321	3.05141	-3.67716	10.5602
 604	1	3	-0.021957	4.07284	-4.54757	6.96513
 605	1	3	-0.054241	3.74208	-5.93426	6.88795
 606	1	3	-0.111709	4.07304	-6.67399	5.73518
 607	1	3	-0.087244	4.72446	-3.97114	5.84349
 608	1	3	-0.118951	4.98251	-4.7111	4.6663
 609	1	3	-0.044875	4.64368	-6.07222	4.63588
 610	1	2	0.461883	4.78293	-7.1015	3.55374
 611	1	1	-0.007433	4.33074	-8.30254	4.10653
 612	1	2	0.491356	3.86205	-8.12331	5.41407
 613	1	3	-0.019445	4.39465	-9.54828	3.38326
 614	1	3	-0.186861	5.64016	-9.95978	2.87519
 615	1	3	-0.068374	5.76849	-11.1513	2.14073
 616	1	3	-0.009193	3.24868	-10.3596	3.15538
 617	1	3	0.220761	3.37646	-11.5795	2.40756
 618	1	3	-0.402098	4.63726	-11.9244	1.87412
 619	1	6	0.148422	6.53008	-9.35299	3.04095
 620	1	6	0.146291	6.73867	-11.4368	1.73809
 621	1	6	0.158981	5.45178	-4.25192	3.79968
 622	1	6	0.141813	5.0161	-2.91862	5.85729
 623	1	6	0.143633	3.22611	-6.46981	7.68015
 624	1	5	-0.474465	3.47531	-8.97635	6.20046
 625	1	5	-0.469737	5.20989	-6.90619	2.42948
 626	1	7	-0.37887	1.90777	-9.93645	3.75992
 627	1	9	0.115886	1.83577	-8.86868	3.92415