pySIMM System Object

1066 atoms
1165 bonds
2048 angles
3080 dihedrals
320 impropers

9 atom types
11 bond types
18 angle types
7 dihedral types
4 improper types

-132.364107 132.364107 xlo xhi
-132.364107 132.364107 ylo yhi
-132.364107 132.364107 zlo zhi

Masses

   1	12.01	# ca
   2	16.0	# o
   3	12.01	# c
   4	14.01	# n
   5	12.01	# c3
   6	19.0	# f
   7	1.008	# ha
   8	1.008	# hn
   9	1.008	# hc

Pair Coeffs

   1	0.086	3.3996695084235347	# ca
   2	0.21	2.959921901149463	# o
   3	0.086	3.3996695084235347	# c
   4	0.17	3.249998523775958	# n
   5	0.1094	3.3996695084235347	# c3
   6	0.061	3.1181455134911875	# f
   7	0.015	2.59964245953351	# ha
   8	0.0157	1.069078461768407	# hn
   9	0.0157	2.649532787749369	# hc

Bond Coeffs

   1	403.2	1.0129	# hn,n
   2	427.6	1.3789	# c,n
   3	461.1	1.3984	# ca,ca
   4	637.7	1.2183	# c,o
   5	300.9	1.5375	# c3,c3
   6	345.8	1.086	# ca,ha
   7	356.9	1.3497	# c3,f
   8	345.9	1.4906	# c,ca
   9	384.2	1.4121	# ca,n
  10	321.0	1.5156	# c3,ca
  11	330.6	1.0969	# c3,hc

Angle Coeffs

   1	66.11	109.24	# c3,c3,f
   2	46.8	110.47	# ca,c3,hc
   3	74.22	123.05	# n,c,o
   4	63.56	112.24	# ca,c3,ca
   5	70.89	107.36	# f,c3,f
   6	66.62	120.02	# ca,ca,ca
   7	62.86	111.51	# c3,c3,c3
   8	63.53	120.77	# c3,ca,ca
   9	63.15	112.07	# c3,c3,ca
  10	68.72	122.6	# ca,c,o
  11	63.82	123.71	# c,n,ca
  12	67.68	115.25	# ca,c,n
  13	48.33	117.55	# c,n,hn
  14	67.87	120.19	# ca,ca,n
  15	48.18	119.88	# ca,ca,ha
  16	64.28	120.33	# c,ca,ca
  17	63.74	127.08	# c,n,c
  18	39.4	107.58	# hc,c3,hc

Dihedral Coeffs

   1	1	2.5	2	180	# X,c,n,X
   2	1	0.45	2	180	# X,ca,n,X
   3	1	1.0	2	180	# X,c,ca,X
   4	2	2.5	2	180	2.0	1	0	# hn,n,c,o
   5	1	3.625	2	180	# X,ca,ca,X
   6	1	0.15555555555555556	3	0	# X,c3,c3,X
   7	1	0.0	2	0	# X,c3,ca,X

Improper Coeffs

   1	1.1	-1	2	# n,X,X,hn
   2	10.5	-1	2	# c,X,X,o
   3	1.1	-1	2	# ca,ca,ca,c3
   4	1.1	-1	2	# ca,X,X,ha

Atoms

   1	1	1	-0.004194	-8.30344	-61.1348	-1.24485
   2	1	1	-0.097141	-9.67571	-60.7713	-1.14318
   3	1	1	-0.172015	-10.1747	-59.7538	-2.00204
   4	1	2	-0.377994	-5.43189	-61.741	-2.2112
   5	1	1	0.033493	-7.50421	-60.5041	-2.19949
   6	1	1	-0.063739	-9.3465	-59.1198	-2.94995
   7	1	2	-0.398381	-7.03426	-58.2906	-4.84514
   8	1	1	0.032144	-8.00574	-59.5128	-3.00784
   9	1	3	0.032313	-6.10542	-60.8004	-2.59682
  10	1	4	0.461698	-5.86127	-59.9448	-3.67009
  11	1	3	0.091945	-6.94112	-59.1101	-3.95025
  12	1	1	-0.10563	-12.9066	-63.1118	-2.75734
  13	1	5	-0.099376	-10.6549	-61.41	-0.103814
  14	1	1	-0.043296	-11.9437	-61.8823	-0.846731
  15	1	1	-0.073043	-11.7942	-62.5642	-2.08226
  16	1	1	-0.117827	-14.1769	-62.9202	-2.20871
  17	1	1	-0.037562	-13.2583	-61.7155	-0.320204
  18	1	1	-0.083705	-14.3558	-62.2441	-1.0163
  19	1	5	0.396	-10.9338	-60.3082	0.991641
  20	1	5	0.310495	-10.0504	-62.6811	0.596054
  21	1	6	-0.130298	-11.5995	-60.7708	2.07606
  22	1	6	-0.128745	-11.6562	-59.2691	0.51083
  23	1	6	-0.120019	-9.77236	-59.7633	1.42484
  24	1	6	-0.104287	-9.49793	-63.5177	-0.31945
  25	1	6	-0.095507	-10.9967	-63.4039	1.23759
  26	1	6	-0.104872	-9.09327	-62.3762	1.51344
  27	1	3	0.456145	-15.8131	-62.2752	-0.676479
  28	1	3	0.550902	-15.5044	-63.4409	-2.64145
  29	1	4	0.015704	-16.4206	-63.0096	-1.68822
  30	1	2	-0.456801	-16.3398	-61.7908	0.31088
  31	1	2	-0.487703	-15.7079	-64.1591	-3.60466
  32	1	1	-0.116566	-17.8025	-63.3651	-1.69824
  33	1	1	-0.050109	-18.7693	-62.5304	-2.30441
  34	1	1	0.154929	-20.1231	-62.9054	-2.28086
  35	1	1	0.041555	-18.2072	-64.5672	-1.06968
  36	1	1	-0.223109	-19.5679	-64.9099	-1.02634
  37	1	1	-0.080449	-20.5297	-64.0824	-1.63463
  38	1	5	-0.108008	-17.1799	-65.508	-0.446974
  39	1	5	-0.182228	-22.0024	-64.4821	-1.63466
  40	1	5	-0.345523	-18.3801	-61.2033	-2.9562
  41	1	7	0.155183	-7.83922	-61.8949	-0.629054
  42	1	7	0.172904	-11.206	-59.4568	-1.95112
  43	1	7	0.158028	-9.73483	-58.3679	-3.63982
  44	1	7	0.153129	-12.7825	-63.6777	-3.68065
  45	1	7	0.142914	-10.8037	-62.7144	-2.50073
  46	1	7	0.135531	-13.4524	-61.2069	0.616905
  47	1	7	0.17765	-19.9004	-65.8351	-0.551198
  48	1	9	0.046541	-16.7426	-65.0673	0.450689
  49	1	9	0.045238	-16.3787	-65.7405	-1.14523
  50	1	9	0.051941	-17.6369	-66.4676	-0.161346
  51	1	9	0.087961	-22.4557	-64.3715	-2.62856
  52	1	9	0.066782	-22.572	-63.8478	-0.945022
  53	1	9	0.075908	-22.1533	-65.5245	-1.32533
  54	1	9	0.105172	-17.9169	-60.529	-2.22834
  55	1	9	0.115625	-19.2598	-60.6804	-3.36727
  56	1	9	0.140296	-17.6719	-61.3569	-3.78863
  57	1	1	-0.004194	6.86072	-57.8282	-6.94852
  58	1	1	-0.097141	5.47052	-58.0653	-6.73532
  59	1	1	-0.172015	4.6569	-58.3002	-7.88148
  60	1	2	-0.377994	9.76423	-57.6493	-8.07251
  61	1	1	0.033493	7.36034	-57.8078	-8.26165
  62	1	1	-0.063739	5.17612	-58.2135	-9.18546
  63	1	2	-0.398381	6.87684	-57.863	-11.7074
  64	1	1	0.032144	6.52367	-57.9078	-9.34038
  65	1	3	0.032313	8.75446	-57.6441	-8.75999
  66	1	4	0.461698	8.65084	-57.6163	-10.154
  67	1	3	0.091945	7.32242	-57.7696	-10.575
  68	1	1	-0.10563	1.36561	-56.505	-6.12179
  69	1	5	-0.099376	4.84266	-58.1085	-5.31144
  70	1	1	-0.043296	3.26934	-57.951	-5.4137
  71	1	1	-0.073043	2.74418	-56.7508	-5.96609
  72	1	1	-0.117827	0.465242	-57.5009	-5.73055
  73	1	1	-0.037562	2.31711	-58.9422	-5.03846
  74	1	1	-0.083705	0.947504	-58.6933	-5.21396
  75	1	5	0.396	5.38908	-56.9357	-4.39894
  76	1	5	0.310495	5.26127	-59.4824	-4.64813
  77	1	6	-0.130298	6.65122	-57.1206	-3.93681
  78	1	6	-0.128745	5.44485	-55.7608	-5.07247
  79	1	6	-0.120019	4.59501	-56.742	-3.30937
  80	1	6	-0.104287	4.81892	-59.6508	-3.37117
  81	1	6	-0.095507	6.5997	-59.6608	-4.6342
  82	1	6	-0.104872	4.78529	-60.5177	-5.37588
  83	1	3	0.456145	-0.219111	-59.5943	-5.01556
  84	1	3	0.550902	-1.019	-57.593	-5.87989
  85	1	4	0.015704	-1.33809	-58.8794	-5.44356
  86	1	2	-0.456801	-0.145957	-60.7781	-4.72857
  87	1	2	-0.487703	-1.72919	-56.7525	-6.40592
  88	1	1	-0.116566	-2.62129	-59.5013	-5.55354
  89	1	1	-0.050109	-3.60157	-59.3392	-4.5418
  90	1	1	0.154929	-4.79471	-60.1208	-4.59226
  91	1	1	0.041555	-2.84193	-60.4349	-6.59465
  92	1	1	-0.223109	-3.9699	-61.2614	-6.57232
  93	1	1	-0.080449	-4.94384	-61.1281	-5.57798
  94	1	5	-0.108008	-1.8365	-60.6498	-7.72334
  95	1	5	-0.182228	-6.15949	-62.0547	-5.62904
  96	1	5	-0.345523	-3.35998	-58.3215	-3.41899
  97	1	7	0.155183	7.55226	-57.6732	-6.12833
  98	1	7	0.172904	3.60644	-58.5522	-7.77088
  99	1	7	0.158028	4.54403	-58.3769	-10.052
 100	1	7	0.153129	1.01907	-55.592	-6.5888
 101	1	7	0.142914	3.42425	-56.0034	-6.36334
 102	1	7	0.135531	2.60899	-59.9094	-4.64702
 103	1	7	0.17765	-4.09993	-62.0002	-7.36358
 104	1	9	0.046541	-2.26614	-61.2284	-8.54723
 105	1	9	0.045238	-0.958635	-61.2034	-7.36555
 106	1	9	0.051941	-1.48985	-59.6958	-8.14187
 107	1	9	0.087961	-6.14393	-62.7806	-4.79588
 108	1	9	0.066782	-6.1776	-62.6425	-6.55716
 109	1	9	0.075908	-7.09024	-61.4783	-5.59211
 110	1	9	0.105172	-4.13232	-58.3192	-2.64253
 111	1	9	0.115625	-3.30396	-57.3043	-3.82106
 112	1	9	0.140296	-2.4139	-58.5234	-2.90377
 113	1	1	-0.004194	15.8916	-48.2016	-13.2113
 114	1	1	-0.097141	15.8393	-49.5976	-12.9712
 115	1	1	-0.172015	15.7153	-50.0496	-11.6189
 116	1	2	-0.377994	16.1381	-45.1342	-13.0614
 117	1	1	0.033493	15.8981	-47.353	-12.1029
 118	1	1	-0.063739	15.7965	-49.1817	-10.509
 119	1	2	-0.398381	16.3112	-46.7326	-8.69857
 120	1	1	0.032144	15.8823	-47.8127	-10.7996
 121	1	3	0.032313	16.0899	-45.8766	-12.0865
 122	1	4	0.461698	16.2744	-45.5436	-10.7478
 123	1	3	0.091945	16.1529	-46.6598	-9.90625
 124	1	1	-0.10563	12.262	-51.816	-13.9161
 125	1	5	-0.099376	15.9889	-50.6636	-14.1089
 126	1	1	-0.043296	14.7463	-51.6114	-13.9901
 127	1	1	-0.073043	13.4368	-51.0598	-14.1036
 128	1	1	-0.117827	12.4086	-53.1617	-13.5971
 129	1	1	-0.037562	14.8371	-52.9894	-13.6742
 130	1	1	-0.083705	13.6609	-53.7221	-13.4644
 131	1	5	0.396	15.9984	-50.0378	-15.567
 132	1	5	0.310495	17.4024	-51.356	-13.8672
 133	1	6	-0.130298	17.0425	-49.1929	-15.792
 134	1	6	-0.128745	14.8852	-49.3174	-15.8095
 135	1	6	-0.120019	16.0282	-50.9819	-16.5462
 136	1	6	-0.104287	18.393	-50.4358	-13.8125
 137	1	6	-0.095507	17.7535	-52.2639	-14.8
 138	1	6	-0.104872	17.4953	-52.0172	-12.6879
 139	1	3	0.456145	13.4793	-55.1214	-13.0235
 140	1	3	0.550902	11.3963	-54.1963	-13.2837
 141	1	4	0.015704	12.1062	-55.3247	-12.9023
 142	1	2	-0.456801	14.3738	-55.9004	-12.771
 143	1	2	-0.487703	10.1838	-54.0765	-13.3305
 144	1	1	-0.116566	11.4706	-56.5292	-12.4394
 145	1	1	-0.050109	10.5756	-56.5098	-11.3222
 146	1	1	0.154929	9.76653	-57.6581	-11.051
 147	1	1	0.041555	11.6061	-57.7197	-13.2093
 148	1	1	-0.223109	10.9164	-58.8732	-12.8159
 149	1	1	-0.080449	9.99235	-58.8582	-11.7708
 150	1	5	-0.108008	12.4202	-57.8283	-14.5163
 151	1	5	-0.182228	9.22592	-60.1628	-11.5147
 152	1	5	-0.345523	10.37	-55.2335	-10.4836
 153	1	7	0.155183	16.0021	-47.7626	-14.196
 154	1	7	0.172904	15.6364	-51.1162	-11.4188
 155	1	7	0.158028	15.8044	-49.5541	-9.48714
 156	1	7	0.153129	11.2777	-51.3631	-14.0076
 157	1	7	0.142914	13.3054	-49.9964	-14.2786
 158	1	7	0.135531	15.786	-53.4922	-13.5383
 159	1	7	0.17765	11.0463	-59.795	-13.3923
 160	1	9	0.046541	13.4792	-57.9694	-14.288
 161	1	9	0.045238	12.3145	-56.9262	-15.1345
 162	1	9	0.051941	12.1021	-58.678	-15.138
 163	1	9	0.087961	9.78514	-61.0475	-11.8402
 164	1	9	0.066782	8.27585	-60.1681	-12.0607
 165	1	9	0.075908	9.02986	-60.2939	-10.4497
 166	1	9	0.105172	11.1879	-54.5182	-10.5949
 167	1	9	0.115625	10.3307	-55.4656	-9.41289
 168	1	9	0.140296	9.45149	-54.7066	-10.7666
 169	1	4	0.486064	15.4351	-33.1656	-1.45515
 170	1	3	0.047133	15.414	-33.8222	-2.68651
 171	1	1	0.001076	14.8103	-35.1575	-2.40994
 172	1	3	0.034038	14.9308	-33.9468	-0.420923
 173	1	1	0.050122	14.4878	-35.2017	-1.076
 174	1	2	-0.383076	15.7527	-33.3841	-3.77065
 175	1	2	-0.380811	14.7495	-33.6572	0.744871
 176	1	1	-0.001248	14.4444	-36.1884	-3.27918
 177	1	1	-0.036565	13.7474	-36.2572	-0.538996
 178	1	1	-0.208842	13.2663	-37.25	-1.41976
 179	1	1	-0.065319	13.6064	-37.2301	-2.80125
 180	1	7	0.153391	14.7383	-36.1125	-4.31939
 181	1	7	0.155343	13.502	-36.2651	0.5186
 182	1	7	0.174191	12.6455	-38.0163	-0.977144
 183	1	5	-0.106637	13.0249	-38.2339	-3.84694
 184	1	5	0.445763	12.1014	-37.3926	-4.83423
 185	1	6	-0.144255	11.3235	-38.1181	-5.66581
 186	1	6	-0.136881	12.7923	-36.534	-5.62257
 187	1	6	-0.144092	11.2288	-36.6366	-4.14864
 188	1	5	0.367264	12.1306	-39.3554	-3.18301
 189	1	6	-0.12104	11.7098	-40.2632	-4.08715
 190	1	6	-0.122614	11.0166	-38.8241	-2.63591
 191	1	6	-0.112321	12.7565	-40.0519	-2.19716
 192	1	1	-0.021957	14.2096	-38.9686	-4.5378
 193	1	1	-0.054241	14.1547	-39.3093	-5.90279
 194	1	1	-0.111709	15.159	-40.118	-6.43565
 195	1	1	-0.087244	15.3287	-39.4179	-3.77045
 196	1	1	-0.118951	16.3364	-40.2383	-4.32788
 197	1	1	-0.044875	16.1951	-40.6058	-5.66719
 198	1	3	0.461883	16.9707	-41.5654	-6.5053
 199	1	4	-0.007433	16.3429	-41.573	-7.73665
 200	1	3	0.491356	15.2804	-40.6922	-7.78562
 201	1	1	-0.019445	16.7965	-42.3129	-8.86677
 202	1	1	-0.186861	17.9226	-41.8261	-9.54378
 203	1	1	-0.068374	18.4263	-42.4784	-10.6726
 204	1	1	-0.009193	16.2021	-43.533	-9.25102
 205	1	1	0.220761	16.7486	-44.2495	-10.3566
 206	1	1	-0.402098	17.8491	-43.6935	-11.0606
 207	1	7	0.148422	18.4002	-40.9071	-9.21512
 208	1	7	0.146291	19.3097	-42.0872	-11.186
 209	1	7	0.158981	17.1705	-40.6045	-3.73981
 210	1	7	0.141813	15.3974	-39.1488	-2.71414
 211	1	7	0.143633	13.3454	-39.01	-6.56659
 212	1	2	-0.474465	14.5327	-40.4642	-8.71513
 213	1	2	-0.469737	18.0231	-42.0988	-6.21264
 214	1	5	-0.37887	14.9925	-44.0388	-8.44875
 215	1	9	0.115886	15.3253	-44.4834	-7.49498
 216	1	9	0.123845	14.4304	-44.8173	-8.9793
 217	1	9	0.138418	14.2653	-43.2443	-8.24001
 218	1	7	0.21348	18.2607	-44.222	-11.9292
 219	1	4	0.486064	12.9156	-19.9284	2.74986
 220	1	3	0.047133	11.6826	-20.5736	2.55571
 221	1	1	0.001076	11.7806	-21.2161	1.2138
 222	1	3	0.034038	13.7434	-20.04	1.6317
 223	1	1	0.050122	13.006	-20.8973	0.671017
 224	1	2	-0.383076	10.6965	-20.5827	3.28341
 225	1	2	-0.380811	14.8089	-19.4844	1.42335
 226	1	1	-0.001248	10.8703	-22.0218	0.516982
 227	1	1	-0.036565	13.39	-21.3564	-0.596864
 228	1	1	-0.208842	12.5089	-22.2093	-1.29959
 229	1	1	-0.065319	11.2484	-22.5658	-0.748482
 230	1	7	0.153391	9.92604	-22.2442	0.989031
 231	1	7	0.155343	14.3501	-21.0566	-0.997635
 232	1	7	0.174191	12.8079	-22.583	-2.26764
 233	1	5	-0.106637	10.369	-23.5849	-1.52812
 234	1	5	0.445763	9.65672	-22.7859	-2.69524
 235	1	6	-0.144255	10.5431	-22.3917	-3.62907
 236	1	6	-0.136881	9.10225	-21.6491	-2.21836
 237	1	6	-0.144092	8.69656	-23.4749	-3.3687
 238	1	5	0.367264	9.30973	-24.2866	-0.606934
 239	1	6	-0.12104	9.87091	-24.7466	0.539862
 240	1	6	-0.122614	8.77309	-25.3489	-1.23839
 241	1	6	-0.112321	8.27659	-23.4747	-0.282168
 242	1	1	-0.021957	11.3009	-24.7193	-2.04073
 243	1	1	-0.054241	12.2089	-25.3288	-1.12331
 244	1	1	-0.111709	12.931	-26.4706	-1.5261
 245	1	1	-0.087244	11.1709	-25.3067	-3.33841
 246	1	1	-0.118951	11.9318	-26.4232	-3.71377
 247	1	1	-0.044875	12.7927	-27.0118	-2.7839
 248	1	3	0.461883	13.6836	-28.211	-2.89305
 249	1	4	-0.007433	14.2895	-28.3412	-1.66152
 250	1	3	0.491356	13.9182	-27.3175	-0.789892
 251	1	1	-0.019445	15.1845	-29.4035	-1.33381
 252	1	1	-0.186861	16.4973	-29.0637	-1.01214
 253	1	1	-0.068374	17.4495	-30.06	-0.789644
 254	1	1	-0.009193	14.8286	-30.7665	-1.42956
 255	1	1	0.220761	15.8021	-31.7955	-1.29603
 256	1	1	-0.402098	17.1104	-31.4114	-0.959908
 257	1	7	0.148422	16.7845	-28.025	-0.919864
 258	1	7	0.146291	18.4727	-29.7923	-0.514405
 259	1	7	0.158981	11.8153	-26.8571	-4.69885
 260	1	7	0.141813	10.4548	-24.9328	-4.06578
 261	1	7	0.143633	12.3251	-24.9791	-0.100816
 262	1	2	-0.474465	14.3005	-27.1351	0.34661
 263	1	2	-0.469737	13.8704	-28.9049	-3.87475
 264	1	5	-0.37887	13.3668	-31.1449	-1.6721
 265	1	9	0.115886	13.152	-31.3231	-2.73906
 266	1	9	0.123845	12.6903	-30.3449	-1.34306
 267	1	9	0.138418	13.0624	-32.0394	-1.10565
 268	1	7	0.21348	17.8717	-32.1757	-0.794353
 269	1	1	-0.004194	10.1414	-10.2106	3.55311
 270	1	1	-0.097141	10.631	-9.45873	4.65434
 271	1	1	-0.172015	11.1505	-8.15742	4.39311
 272	1	2	-0.377994	9.46548	-11.4341	0.776513
 273	1	1	0.033493	10.2409	-9.68914	2.25984
 274	1	1	-0.063739	11.1994	-7.6092	3.09116
 275	1	2	-0.398381	11.1219	-7.16208	-0.00431386
 276	1	1	0.032144	10.7473	-8.4223	2.03802
 277	1	3	0.032313	9.9104	-10.3123	0.950421
 278	1	4	0.461698	10.289	-9.37429	-0.00421845
 279	1	3	0.091945	10.7338	-8.1765	0.563993
 280	1	1	-0.10563	9.36246	-13.7811	6.03897
 281	1	5	-0.099376	10.5754	-10.0507	6.08937
 282	1	1	-0.043296	10.5707	-11.6172	5.95337
 283	1	1	-0.073043	9.37546	-12.3807	6.15638
 284	1	1	-0.117827	10.5681	-14.4188	5.76416
 285	1	1	-0.037562	11.7523	-12.323	5.56049
 286	1	1	-0.083705	11.7352	-13.7157	5.54178
 287	1	5	0.396	9.29414	-9.46406	6.8005
 288	1	5	0.310495	11.8274	-9.64701	6.97182
 289	1	6	-0.130298	9.31149	-8.12227	6.92648
 290	1	6	-0.128745	9.0974	-9.97706	8.03111
 291	1	6	-0.120019	8.16669	-9.68758	6.09016
 292	1	6	-0.104287	11.8183	-8.38362	7.42022
 293	1	6	-0.095507	11.8898	-10.4152	8.07455
 294	1	6	-0.104872	12.9989	-9.77357	6.32618
 295	1	3	0.456145	12.8397	-14.6901	5.29705
 296	1	3	0.550902	10.8981	-15.8665	5.68272
 297	1	4	0.015704	12.2545	-15.9309	5.40886
 298	1	2	-0.456801	14.0118	-14.4577	5.11114
 299	1	2	-0.487703	10.1387	-16.8013	5.88708
 300	1	1	-0.116566	12.9364	-17.1656	5.24825
 301	1	1	-0.050109	12.761	-17.8543	4.03455
 302	1	1	0.154929	13.22	-19.1873	3.92976
 303	1	1	0.041555	13.5961	-17.7702	6.34824
 304	1	1	-0.223109	14.0548	-19.1029	6.23729
 305	1	1	-0.080449	13.8489	-19.8181	5.0423
 306	1	5	-0.108008	13.7556	-17.0287	7.67331
 307	1	5	-0.182228	14.2253	-21.2981	5.01252
 308	1	5	-0.345523	11.9682	-17.1911	2.90245
 309	1	7	0.155183	9.70258	-11.196	3.67927
 310	1	7	0.172904	11.4998	-7.52971	5.21532
 311	1	7	0.158028	11.6035	-6.61275	2.90183
 312	1	7	0.153129	8.46107	-14.3596	6.20544
 313	1	7	0.142914	8.43857	-11.9333	6.43815
 314	1	7	0.135531	12.7014	-11.8349	5.34119
 315	1	7	0.17765	14.5168	-19.5872	7.08881
 316	1	9	0.046541	14.5543	-16.2704	7.58336
 317	1	9	0.045238	14.0476	-17.7239	8.47452
 318	1	9	0.051941	12.8282	-16.5432	7.99029
 319	1	9	0.087961	14.7961	-21.5408	4.11155
 320	1	9	0.066782	13.3344	-21.9345	5.0424
 321	1	9	0.075908	14.8576	-21.576	5.8621
 322	1	9	0.105172	12.2821	-17.5416	1.91225
 323	1	9	0.115625	12.0911	-16.1038	2.86574
 324	1	9	0.140296	10.8957	-17.4056	3.00576
 325	1	1	-0.004194	12.2062	-18.2775	-6.84443
 326	1	1	-0.097141	12.9729	-17.1605	-7.29221
 327	1	1	-0.172015	12.4661	-16.3943	-8.38494
 328	1	2	-0.377994	10.1457	-20.6476	-6.52272
 329	1	1	0.033493	11.0616	-18.6304	-7.56105
 330	1	1	-0.063739	11.318	-16.7813	-9.0968
 331	1	2	-0.398381	8.95407	-18.3368	-10.3318
 332	1	1	0.032144	10.6484	-17.9203	-8.67254
 333	1	3	0.032313	10.1046	-19.7698	-7.3629
 334	1	4	0.461698	9.15659	-19.6276	-8.37308
 335	1	3	0.091945	9.49183	-18.6165	-9.26955
 336	1	1	-0.10563	14.9986	-12.9725	-5.91438
 337	1	5	-0.099376	14.3658	-16.7557	-6.72143
 338	1	1	-0.043296	14.2387	-15.3168	-6.16199
 339	1	1	-0.073043	15.1753	-14.271	-6.43614
 340	1	1	-0.117827	13.8874	-12.7303	-5.10699
 341	1	1	-0.037562	13.1276	-15.0138	-5.33913
 342	1	1	-0.083705	12.9804	-13.7223	-4.83844
 343	1	5	0.396	15.4439	-16.902	-7.89025
 344	1	5	0.310495	14.8199	-17.6696	-5.52061
 345	1	6	-0.130298	16.709	-16.7807	-7.42337
 346	1	6	-0.128745	15.3675	-18.0925	-8.54446
 347	1	6	-0.120019	15.3539	-15.9529	-8.86009
 348	1	6	-0.104287	13.8939	-17.7196	-4.53166
 349	1	6	-0.095507	15.9443	-17.2097	-4.91387
 350	1	6	-0.104872	15.0854	-18.9256	-5.94109
 351	1	3	0.456145	11.8885	-13.1591	-4.0149
 352	1	3	0.550902	13.4211	-11.4829	-4.43052
 353	1	4	0.015704	12.1957	-11.8151	-3.86286
 354	1	2	-0.456801	10.8783	-13.7503	-3.65831
 355	1	2	-0.487703	13.9841	-10.401	-4.4209
 356	1	1	-0.116566	11.2847	-10.873	-3.29079
 357	1	1	-0.050109	11.3065	-10.5439	-1.91428
 358	1	1	0.154929	10.3165	-9.66076	-1.4004
 359	1	1	0.041555	10.3223	-10.291	-4.15094
 360	1	1	-0.223109	9.39392	-9.38162	-3.63394
 361	1	1	-0.080449	9.365	-9.06497	-2.27123
 362	1	5	-0.108008	10.3196	-10.5781	-5.64732
 363	1	5	-0.182228	8.3176	-8.04519	-1.80307
 364	1	5	-0.345523	12.3769	-11.1707	-1.01083
 365	1	7	0.155183	12.5084	-18.9244	-6.02975
 366	1	7	0.172904	12.9944	-15.5165	-8.73804
 367	1	7	0.158028	10.978	-16.2421	-9.97895
 368	1	7	0.153129	15.7113	-12.1809	-6.11763
 369	1	7	0.142914	16.0666	-14.4471	-7.0329
 370	1	7	0.135531	12.3866	-15.7609	-5.08511
 371	1	7	0.17765	8.69691	-8.91142	-4.31744
 372	1	9	0.046541	9.55434	-9.99361	-6.16514
 373	1	9	0.045238	10.112	-11.6301	-5.85319
 374	1	9	0.051941	11.292	-10.3226	-6.08869
 375	1	9	0.087961	8.61926	-7.02439	-2.07856
 376	1	9	0.066782	8.13957	-8.05964	-0.719407
 377	1	9	0.075908	7.34748	-8.22589	-2.288
 378	1	9	0.105172	12.5868	-10.5598	-0.117713
 379	1	9	0.115625	13.3469	-11.2789	-1.52849
 380	1	9	0.140296	12.065	-12.1642	-0.659503
 381	1	4	0.486064	-1.20297	-12.8432	-11.1525
 382	1	3	0.047133	-0.460884	-13.9178	-10.6568
 383	1	1	0.001076	-1.24982	-15.1168	-11.0015
 384	1	3	0.034038	-2.3828	-13.2287	-11.7761
 385	1	1	0.050122	-2.39988	-14.6968	-11.6543
 386	1	2	-0.383076	0.46505	-13.9109	-9.85971
 387	1	2	-0.380811	-3.28871	-12.5245	-12.185
 388	1	1	-0.001248	-1.01533	-16.4476	-10.6821
 389	1	1	-0.036565	-3.38177	-15.612	-12.0234
 390	1	1	-0.208842	-3.1358	-16.9873	-11.7764
 391	1	1	-0.065319	-1.92065	-17.4271	-11.1433
 392	1	7	0.153391	-0.0996975	-16.6982	-10.1226
 393	1	7	0.155343	-4.3025	-15.2756	-12.4883
 394	1	7	0.174191	-3.90043	-17.7003	-12.069
 395	1	5	-0.106637	-1.52546	-18.9037	-10.8856
 396	1	5	0.445763	-2.07396	-19.8652	-12.0073
 397	1	6	-0.144255	-3.41586	-19.929	-12.0587
 398	1	6	-0.136881	-1.69943	-21.1452	-11.7885
 399	1	6	-0.144092	-1.63352	-19.5128	-13.247
 400	1	5	0.367264	-2.1556	-19.2573	-9.49579
 401	1	6	-0.12104	-1.56468	-18.5521	-8.49654
 402	1	6	-0.122614	-2.05613	-20.5656	-9.21404
 403	1	6	-0.112321	-3.47009	-19.0007	-9.42591
 404	1	1	-0.021957	0.0440876	-19.0709	-10.8792
 405	1	1	-0.054241	0.812427	-19.7274	-9.86498
 406	1	1	-0.111709	2.21719	-19.8395	-9.99672
 407	1	1	-0.087244	0.774686	-18.5534	-11.9878
 408	1	1	-0.118951	2.17046	-18.7034	-12.1227
 409	1	1	-0.044875	2.87201	-19.342	-11.0958
 410	1	3	0.461883	4.32654	-19.6464	-10.9322
 411	1	4	-0.007433	4.45483	-20.3111	-9.70401
 412	1	3	0.491356	3.21991	-20.4857	-9.08329
 413	1	1	-0.019445	5.68907	-20.8149	-9.18799
 414	1	1	-0.186861	5.9402	-22.1922	-9.31761
 415	1	1	-0.068374	7.19897	-22.7124	-9.03944
 416	1	1	-0.009193	6.70728	-19.9396	-8.71002
 417	1	1	0.220761	8.01659	-20.4724	-8.53428
 418	1	1	-0.402098	8.2285	-21.8631	-8.64413
 419	1	7	0.148422	5.16332	-22.8539	-9.68082
 420	1	7	0.146291	7.38387	-23.7903	-9.17598
 421	1	7	0.158981	2.70105	-18.3493	-13.0057
 422	1	7	0.141813	0.249407	-18.0395	-12.7843
 423	1	7	0.143633	0.348375	-20.1789	-8.9903
 424	1	2	-0.474465	2.96342	-21.049	-8.03417
 425	1	2	-0.469737	5.20214	-19.4005	-11.7494
 426	1	5	-0.37887	6.37813	-18.4518	-8.46288
 427	1	9	0.115886	6.47159	-17.861	-9.3849
 428	1	9	0.123845	7.0354	-17.9948	-7.70887
 429	1	9	0.138418	5.34339	-18.3394	-8.10736
 430	1	7	0.21348	9.20427	-22.2788	-8.44158
 431	1	4	0.486064	0.895271	2.00051	-16.4428
 432	1	3	0.047133	-0.436939	1.65083	-16.2473
 433	1	1	0.001076	-0.515656	0.216818	-16.5848
 434	1	3	0.034038	1.67398	0.946034	-16.9074
 435	1	1	0.050122	0.728101	-0.168197	-17.0269
 436	1	2	-0.383076	-1.2937	2.29574	-15.6671
 437	1	2	-0.380811	2.87169	0.856937	-17.0224
 438	1	1	-0.001248	-1.52134	-0.72648	-16.2955
 439	1	1	-0.036565	1.0161	-1.48753	-17.3212
 440	1	1	-0.208842	0.0548466	-2.4585	-17.0124
 441	1	1	-0.065319	-1.22754	-2.11425	-16.487
 442	1	7	0.153391	-2.46237	-0.398459	-15.876
 443	1	7	0.155343	2.02038	-1.74804	-17.6395
 444	1	7	0.174191	0.361668	-3.4997	-17.1278
 445	1	5	-0.106637	-2.1594	-3.3355	-16.1386
 446	1	5	0.445763	-3.45423	-2.95156	-15.3376
 447	1	6	-0.144255	-4.2377	-2.03473	-15.9447
 448	1	6	-0.136881	-3.07486	-2.45825	-14.1398
 449	1	6	-0.144092	-4.24801	-4.01665	-15.104
 450	1	5	0.367264	-2.50744	-3.97488	-17.5313
 451	1	6	-0.12104	-3.42215	-4.94947	-17.4969
 452	1	6	-0.122614	-1.4211	-4.53831	-18.1036
 453	1	6	-0.112321	-3.00361	-3.04085	-18.3772
 454	1	1	-0.021957	-1.37604	-4.31138	-15.1962
 455	1	1	-0.054241	-1.67659	-5.70345	-15.1048
 456	1	1	-0.111709	-1.01771	-6.49409	-14.1449
 457	1	1	-0.087244	-0.424199	-3.7944	-14.264
 458	1	1	-0.118951	0.194271	-4.58933	-13.2857
 459	1	1	-0.044875	-0.104348	-5.95373	-13.262
 460	1	3	0.461883	0.261577	-6.99005	-12.2664
 461	1	4	-0.007433	-0.571522	-8.06634	-12.5361
 462	1	3	0.491356	-1.33989	-7.87081	-13.6788
 463	1	1	-0.019445	-0.731182	-9.13346	-11.5945
 464	1	1	-0.186861	-1.03276	-8.7327	-10.2693
 465	1	1	-0.068374	-1.23608	-9.66568	-9.25767
 466	1	1	-0.009193	-0.662919	-10.5189	-11.9092
 467	1	1	0.220761	-0.948979	-11.4705	-10.8707
 468	1	1	-0.402098	-1.22011	-11.0375	-9.55563
 469	1	7	0.148422	-1.0987	-7.68125	-10.0102
 470	1	7	0.146291	-1.44824	-9.33169	-8.24114
 471	1	7	0.158981	0.854201	-4.16021	-12.5358
 472	1	7	0.141813	-0.210146	-2.72753	-14.245
 473	1	7	0.143633	-2.44288	-6.17412	-15.7166
 474	1	2	-0.474465	-2.237	-8.56006	-14.1081
 475	1	2	-0.469737	1.06494	-6.85367	-11.3519
 476	1	5	-0.37887	-0.305366	-10.9689	-13.3393
 477	1	9	0.115886	0.137259	-11.9754	-13.3688
 478	1	9	0.123845	0.41225	-10.2747	-13.8047
 479	1	9	0.138418	-1.20537	-10.9807	-13.9729
 480	1	7	0.21348	-1.47602	-11.7617	-8.78397
 481	1	4	0.486064	2.50832	15.1921	-25.1089
 482	1	3	0.047133	3.62273	14.9784	-24.3437
 483	1	1	0.001076	3.4995	13.6162	-23.821
 484	1	3	0.034038	1.6388	14.1195	-25.1041
 485	1	1	0.050122	2.35071	13.0611	-24.3472
 486	1	2	-0.383076	4.61709	15.6938	-24.2821
 487	1	2	-0.380811	0.520331	14.0378	-25.5929
 488	1	1	-0.001248	4.33715	12.9775	-22.9174
 489	1	1	-0.036565	2.0508	11.7313	-24.1396
 490	1	1	-0.208842	2.90519	11.0175	-23.2652
 491	1	1	-0.065319	3.99011	11.6484	-22.5375
 492	1	7	0.153391	5.16251	13.5322	-22.5049
 493	1	7	0.155343	1.1807	11.2853	-24.5681
 494	1	7	0.174191	2.61876	9.97945	-23.0751
 495	1	5	-0.106637	4.81239	10.7522	-21.5511
 496	1	5	0.445763	5.87303	10.1546	-22.5428
 497	1	6	-0.144255	6.48083	11.0793	-23.3122
 498	1	6	-0.136881	5.28914	9.3547	-23.468
 499	1	6	-0.144092	6.84841	9.46945	-21.8783
 500	1	5	0.367264	5.5952	11.4894	-20.3897
 501	1	6	-0.12104	6.30242	10.6477	-19.576
 502	1	6	-0.122614	4.73132	12.0878	-19.5546
 503	1	6	-0.112321	6.53445	12.3923	-20.8252
 504	1	1	-0.021957	3.86895	9.71357	-20.8344
 505	1	1	-0.054241	4.28025	8.40964	-20.3501
 506	1	1	-0.111709	3.47147	7.7585	-19.3597
 507	1	1	-0.087244	2.64636	10.2374	-20.3232
 508	1	1	-0.118951	1.82277	9.53185	-19.4207
 509	1	1	-0.044875	2.25467	8.29338	-18.9631
 510	1	3	0.461883	1.65566	7.47419	-17.8612
 511	1	4	-0.007433	2.56329	6.46365	-17.6418
 512	1	3	0.491356	3.64835	6.51516	-18.5135
 513	1	1	-0.019445	2.33334	5.42952	-16.6938
 514	1	1	-0.186861	2.55785	5.6904	-15.3334
 515	1	1	-0.068374	2.19163	4.7774	-14.343
 516	1	1	-0.009193	1.79882	4.18889	-17.0794
 517	1	1	0.220761	1.44099	3.24923	-16.0845
 518	1	1	-0.402098	1.62325	3.569	-14.7269
 519	1	7	0.148422	3.00491	6.65155	-15.0442
 520	1	7	0.146291	2.28416	5.03244	-13.2911
 521	1	7	0.158981	0.914148	9.98472	-19.0379
 522	1	7	0.141813	2.39712	11.2579	-20.5172
 523	1	7	0.143633	5.23922	7.99597	-20.6466
 524	1	2	-0.474465	4.49008	5.65121	-18.6349
 525	1	2	-0.469737	0.512187	7.54575	-17.4421
 526	1	5	-0.37887	1.62736	3.89784	-18.583
 527	1	9	0.115886	0.951642	4.63354	-19.0482
 528	1	9	0.123845	1.25416	2.90274	-18.8181
 529	1	9	0.138418	2.60051	3.97054	-19.0857
 530	1	7	0.21348	1.32118	2.86021	-13.9621
 531	1	1	-0.004194	-5.64098	19.4722	-19.3862
 532	1	1	-0.097141	-4.95109	19.0359	-20.5603
 533	1	1	-0.172015	-5.69932	18.5672	-21.6757
 534	1	2	-0.377994	-7.72705	20.2386	-17.2532
 535	1	1	0.033493	-7.01392	19.5572	-19.4284
 536	1	1	-0.063739	-7.08997	18.6415	-21.6724
 537	1	2	-0.398381	-9.90466	18.3494	-20.8686
 538	1	1	0.032144	-7.70476	19.1551	-20.5303
 539	1	3	0.032313	-7.95815	19.7289	-18.3251
 540	1	4	0.461698	-9.18523	19.2483	-18.7644
 541	1	3	0.091945	-9.12515	18.9275	-20.1334
 542	1	1	-0.10563	-1.91696	21.072	-23.0703
 543	1	5	-0.099376	-3.47282	18.7058	-20.5331
 544	1	1	-0.043296	-2.98515	19.2038	-21.933
 545	1	1	-0.073043	-2.84028	20.605	-22.1343
 546	1	1	-0.117827	-1.41137	20.1484	-23.9864
 547	1	1	-0.037562	-2.63911	18.3412	-22.9869
 548	1	1	-0.083705	-1.89479	18.8573	-24.0415
 549	1	5	0.396	-3.38965	17.1256	-20.2989
 550	1	5	0.310495	-2.60195	19.4763	-19.4219
 551	1	6	-0.130298	-2.07218	16.8676	-20.0898
 552	1	6	-0.128745	-3.80099	16.2815	-21.3228
 553	1	6	-0.120019	-4.08908	16.7003	-19.1938
 554	1	6	-0.104287	-2.60027	18.975	-18.1522
 555	1	6	-0.095507	-3.0068	20.6952	-19.1309
 556	1	6	-0.104872	-1.32163	19.6733	-19.8299
 557	1	3	0.456145	-1.21613	18.1328	-25.0895
 558	1	3	0.550902	-0.333202	20.2809	-24.9669
 559	1	4	0.015704	-0.210389	18.9859	-25.4693
 560	1	2	-0.456801	-1.42741	16.9596	-25.304
 561	1	2	-0.487703	0.392247	21.2826	-25.0972
 562	1	1	-0.116566	0.913719	18.349	-26.007
 563	1	1	-0.050109	1.61541	17.4248	-25.2108
 564	1	1	0.154929	2.26761	16.3696	-25.8702
 565	1	1	0.041555	1.13278	18.4361	-27.3905
 566	1	1	-0.223109	2.04428	17.5564	-27.9767
 567	1	1	-0.080449	2.5766	16.465	-27.2482
 568	1	5	-0.108008	0.405133	19.4516	-28.2688
 569	1	5	-0.182228	3.3951	15.4018	-28.0134
 570	1	5	-0.345523	1.42005	17.4351	-23.6828
 571	1	7	0.155183	-5.15893	19.6976	-18.4315
 572	1	7	0.172904	-5.19886	18.1173	-22.5758
 573	1	7	0.158028	-7.72517	18.2755	-22.4733
 574	1	7	0.153129	-1.64048	22.1101	-23.0428
 575	1	7	0.142914	-3.26502	21.2937	-21.4183
 576	1	7	0.135531	-2.82637	17.2834	-23.0216
 577	1	7	0.17765	2.30211	17.6909	-28.9911
 578	1	9	0.046541	-0.63739	19.1894	-28.4681
 579	1	9	0.045238	0.943722	19.5762	-29.2154
 580	1	9	0.051941	0.372027	20.4047	-27.7586
 581	1	9	0.087961	2.89193	14.4195	-28.0035
 582	1	9	0.066782	4.39742	15.2992	-27.6038
 583	1	9	0.075908	3.51233	15.6482	-29.0614
 584	1	9	0.105172	0.581607	16.7619	-23.4802
 585	1	9	0.115625	1.21736	18.4637	-23.3042
 586	1	9	0.140296	2.27581	17.0576	-23.0777
 587	1	1	-0.004194	-18.7021	22.5605	-11.216
 588	1	1	-0.097141	-17.9576	21.8606	-12.2123
 589	1	1	-0.172015	-16.6338	21.4553	-11.8374
 590	1	2	-0.377994	-20.0331	23.845	-8.7615
 591	1	1	0.033493	-18.1877	22.954	-9.97115
 592	1	1	-0.063739	-16.0405	21.9542	-10.6403
 593	1	2	-0.398381	-15.4285	23.6393	-7.98322
 594	1	1	0.032144	-16.8572	22.6855	-9.69018
 595	1	3	0.032313	-18.8762	23.515	-8.77799
 596	1	4	0.461698	-17.8431	23.7133	-7.86859
 597	1	3	0.091945	-16.5458	23.4002	-8.44278
 598	1	1	-0.10563	-17.2736	20.6104	-17.0576
 599	1	5	-0.099376	-18.6047	21.8706	-13.6544
 600	1	1	-0.043296	-17.6009	21.5807	-14.8352
 601	1	1	-0.073043	-18.1315	20.9917	-16.0238
 602	1	1	-0.117827	-15.8976	20.7532	-16.8966
 603	1	1	-0.037562	-16.2187	21.9062	-14.8139
 604	1	1	-0.083705	-15.4075	21.4631	-15.8407
 605	1	5	0.396	-19.0622	23.3518	-14.1035
 606	1	5	0.310495	-19.8586	20.9163	-13.5353
 607	1	6	-0.130298	-19.4562	23.4182	-15.4257
 608	1	6	-0.128745	-18.0238	24.2363	-13.9053
 609	1	6	-0.120019	-20.1067	23.8189	-13.3776
 610	1	6	-0.104287	-20.7495	20.9472	-14.6132
 611	1	6	-0.095507	-20.7665	21.2352	-12.5636
 612	1	6	-0.104872	-19.5258	19.6327	-13.2613
 613	1	3	0.456145	-13.9353	21.3434	-15.8657
 614	1	3	0.550902	-14.731	19.9913	-17.5403
 615	1	4	0.015704	-13.6169	20.2895	-16.7606
 616	1	2	-0.456801	-13.1997	21.8726	-15.0578
 617	1	2	-0.487703	-14.8364	19.1415	-18.4305
 618	1	1	-0.116566	-12.405	19.493	-16.8065
 619	1	1	-0.050109	-11.3945	19.7842	-17.7837
 620	1	1	0.154929	-10.2677	18.9481	-17.8767
 621	1	1	0.041555	-12.2418	18.4298	-15.876
 622	1	1	-0.223109	-11.145	17.5788	-16.0255
 623	1	1	-0.080449	-10.1498	17.8222	-16.998
 624	1	5	-0.108008	-13.1453	18.1959	-14.6917
 625	1	5	-0.182228	-9.01926	16.7519	-16.9856
 626	1	5	-0.345523	-11.497	21.0388	-18.6465
 627	1	7	0.155183	-19.7233	22.8524	-11.3471
 628	1	7	0.172904	-15.9968	20.893	-12.5386
 629	1	7	0.158028	-15.0174	21.7599	-10.4014
 630	1	7	0.153129	-17.6345	20.0242	-17.8848
 631	1	7	0.142914	-19.2055	20.8299	-16.199
 632	1	7	0.135531	-15.7239	22.4673	-14.0393
 633	1	7	0.17765	-11.0438	16.7693	-15.3241
 634	1	9	0.046541	-12.7464	18.6227	-13.7518
 635	1	9	0.045238	-13.3596	17.134	-14.5262