pySIMM System Object

742 atoms
811 bonds
1424 angles
2144 dihedrals
224 impropers

9 atom types
11 bond types
18 angle types
7 dihedral types
4 improper types

-115.524777 115.524777 xlo xhi
-115.524777 115.524777 ylo yhi
-115.524777 115.524777 zlo zhi

Masses

   1	14.01	# n
   2	12.01	# c
   3	12.01	# ca
   4	1.008	# hn
   5	16.0	# o
   6	1.008	# ha
   7	12.01	# c3
   8	19.0	# f
   9	1.008	# hc

Pair Coeffs

   1	0.17	3.249998523775958	# n
   2	0.086	3.3996695084235347	# c
   3	0.086	3.3996695084235347	# ca
   4	0.0157	1.069078461768407	# hn
   5	0.21	2.959921901149463	# o
   6	0.015	2.59964245953351	# ha
   7	0.1094	3.3996695084235347	# c3
   8	0.061	3.1181455134911875	# f
   9	0.0157	2.649532787749369	# hc

Bond Coeffs

   1	345.8	1.086	# ca,ha
   2	637.7	1.2183	# c,o
   3	321.0	1.5156	# c3,ca
   4	300.9	1.5375	# c3,c3
   5	384.2	1.4121	# ca,n
   6	330.6	1.0969	# c3,hc
   7	403.2	1.0129	# hn,n
   8	356.9	1.3497	# c3,f
   9	461.1	1.3984	# ca,ca
  10	427.6	1.3789	# c,n
  11	345.9	1.4906	# c,ca

Angle Coeffs

   1	66.11	109.24	# c3,c3,f
   2	46.8	110.47	# ca,c3,hc
   3	39.4	107.58	# hc,c3,hc
   4	63.82	123.71	# c,n,ca
   5	66.62	120.02	# ca,ca,ca
   6	63.53	120.77	# c3,ca,ca
   7	62.86	111.51	# c3,c3,c3
   8	63.74	127.08	# c,n,c
   9	48.33	117.55	# c,n,hn
  10	64.28	120.33	# c,ca,ca
  11	48.18	119.88	# ca,ca,ha
  12	68.72	122.6	# ca,c,o
  13	63.15	112.07	# c3,c3,ca
  14	70.89	107.36	# f,c3,f
  15	67.87	120.19	# ca,ca,n
  16	63.56	112.24	# ca,c3,ca
  17	67.68	115.25	# ca,c,n
  18	74.22	123.05	# n,c,o

Dihedral Coeffs

   1	2	2.5	2	180	2.0	1	0	# hn,n,c,o
   2	1	3.625	2	180	# X,ca,ca,X
   3	1	0.15555555555555556	3	0	# X,c3,c3,X
   4	1	0.0	2	0	# X,c3,ca,X
   5	1	1.0	2	180	# X,c,ca,X
   6	1	2.5	2	180	# X,c,n,X
   7	1	0.45	2	180	# X,ca,n,X

Improper Coeffs

   1	1.1	-1	2	# n,X,X,hn
   2	1.1	-1	2	# ca,X,X,ha
   3	10.5	-1	2	# c,X,X,o
   4	1.1	-1	2	# ca,ca,ca,c3

Atoms

   1	1	1	0.486064	-12.4789	-3.00302	12.4429
   2	1	2	0.047133	-11.9779	-4.29654	12.5749
   3	1	3	0.001076	-10.8006	-4.13945	13.4579
   4	1	2	0.034038	-11.639	-2.0073	12.9111
   5	1	3	0.050122	-10.5693	-2.77339	13.6129
   6	1	5	-0.383076	-12.5264	-5.34186	12.2304
   7	1	5	-0.380811	-11.8891	-0.81572	12.9202
   8	1	3	-0.001248	-10.0807	-5.09184	14.2011
   9	1	3	-0.036565	-9.48706	-2.27874	14.3333
  10	1	3	-0.208842	-8.65109	-3.25153	14.9089
  11	1	3	-0.065319	-8.96163	-4.63951	14.9183
  12	1	6	0.153391	-10.3788	-6.13909	14.1852
  13	1	6	0.155343	-9.3025	-1.2032	14.4214
  14	1	6	0.174191	-7.77385	-2.92032	15.4656
  15	1	7	-0.106637	-8.12176	-5.55062	15.848
  16	1	7	0.445763	-8.46438	-5.09619	17.3475
  17	1	8	-0.144255	-7.98941	-5.92544	18.3238
  18	1	8	-0.136881	-9.80373	-5.03176	17.544
  19	1	8	-0.144092	-7.97648	-3.8667	17.6203
  20	1	7	0.367264	-8.42539	-7.08776	15.7245
  21	1	8	-0.12104	-8.41875	-7.51495	14.4476
  22	1	8	-0.122614	-9.61671	-7.4591	16.2375
  23	1	8	-0.112321	-7.51063	-7.87417	16.3366
  24	1	3	-0.021957	-6.62436	-5.38444	15.4193
  25	1	3	-0.054241	-6.26093	-5.14194	14.0587
  26	1	3	-0.111709	-4.90168	-5.04487	13.6973
  27	1	3	-0.087244	-5.56581	-5.6456	16.3426
  28	1	3	-0.118951	-4.20398	-5.63821	15.9174
  29	1	3	-0.044875	-3.89476	-5.33127	14.5842
  30	1	2	0.461883	-2.59478	-5.24475	13.8294
  31	1	1	-0.007433	-2.96344	-4.93121	12.4952
  32	1	2	0.491356	-4.33454	-4.71069	12.3709
  33	1	3	-0.019445	-2.08146	-4.69281	11.3886
  34	1	3	-0.186861	-1.1356	-3.6613	11.494
  35	1	3	-0.068374	-0.314629	-3.2961	10.4083
  36	1	3	-0.009193	-2.10918	-5.437	10.1587
  37	1	3	0.220761	-1.16405	-5.17524	9.15516
  38	1	3	-0.402098	-0.310832	-4.07824	9.24479
  39	1	6	0.148422	-1.06442	-3.10875	12.4128
  40	1	6	0.146291	0.342287	-2.4341	10.4935
  41	1	6	0.158981	-3.41412	-5.8589	16.6305
  42	1	6	0.141813	-5.76545	-5.87855	17.3891
  43	1	6	0.143633	-7.00446	-5.00775	13.2848
  44	1	5	-0.474465	-5.02274	-4.34568	11.424
  45	1	5	-0.469737	-1.46496	-5.49144	14.2492
  46	1	7	-0.37887	-3.17902	-6.46556	9.79186
  47	1	9	0.115886	-3.16622	-7.31763	10.4629
  48	1	9	0.123845	-3.02295	-6.81923	8.77416
  49	1	9	0.138418	-4.20227	-6.04597	9.82435
  50	1	6	0.21348	0.322101	-3.83825	8.39409
  51	1	3	-0.004194	-14.7234	2.46678	3.62051
  52	1	3	-0.097141	-16.0471	2.01938	3.33058
  53	1	3	-0.172015	-17.0804	2.98137	3.40386
  54	1	5	-0.377994	-12.1761	3.98108	4.62759
  55	1	3	0.033493	-14.4827	3.7745	4.07871
  56	1	3	-0.063739	-16.8348	4.33126	3.7969
  57	1	5	-0.398381	-15.6007	7.07029	4.60279
  58	1	3	0.032144	-15.5213	4.68966	4.14435
  59	1	2	0.032313	-13.287	4.45978	4.6006
  60	1	1	0.461698	-13.6662	5.76124	4.89395
  61	1	2	0.091945	-15.0048	5.99694	4.59408
  62	1	3	-0.10563	-14.4875	-2.4946	4.7116
  63	1	7	-0.099376	-16.2994	0.501095	3.0087
  64	1	3	-0.043296	-15.5332	-0.347527	4.03914
  65	1	3	-0.073043	-14.8944	-1.58774	3.69262
  66	1	3	-0.117827	-14.6931	-2.15436	6.0398
  67	1	3	-0.037562	-15.5828	0.0252488	5.39276
  68	1	3	-0.083705	-15.178	-0.91022	6.33673
  69	1	7	0.396	-17.7984	-0.0273773	3.14423
  70	1	7	0.310495	-15.848	0.294225	1.52012
  71	1	8	-0.130298	-18.5757	0.5139	2.17158
  72	1	8	-0.128745	-18.4077	0.354141	4.29882
  73	1	8	-0.120019	-17.8938	-1.36598	3.03812
  74	1	8	-0.104287	-14.5066	0.459403	1.43782
  75	1	8	-0.095507	-16.4032	1.19421	0.652031
  76	1	8	-0.104872	-16.1181	-0.929515	0.996153
  77	1	2	0.456145	-15.1229	-0.73037	7.75943
  78	1	2	0.550902	-14.4477	-2.88821	7.31348
  79	1	1	0.015704	-14.766	-1.96873	8.29019
  80	1	5	-0.456801	-15.217	0.344713	8.32376
  81	1	5	-0.487703	-14.0663	-4.04096	7.42603
  82	1	3	-0.116566	-14.8252	-2.26659	9.6709
  83	1	3	-0.050109	-13.6214	-2.37552	10.3808
  84	1	3	0.154929	-13.6802	-2.72356	11.7668
  85	1	3	0.041555	-16.0695	-2.49419	10.3067
  86	1	3	-0.223109	-16.0978	-2.83187	11.6649
  87	1	3	-0.080449	-14.9207	-2.95588	12.4199
  88	1	7	-0.108008	-17.3598	-2.44601	9.52082
  89	1	7	-0.182228	-15.0108	-3.40807	13.918
  90	1	7	-0.345523	-12.3236	-2.03104	9.62899
  91	1	6	0.155183	-13.8986	1.75422	3.54998
  92	1	6	0.172904	-18.0793	2.73567	3.12868
  93	1	6	0.158028	-17.6429	5.06133	3.83823
  94	1	6	0.153129	-14.0668	-3.44733	4.45769
  95	1	6	0.142914	-14.7991	-1.88754	2.6667
  96	1	6	0.135531	-16.0695	0.9484	5.70865
  97	1	6	0.17765	-17.0499	-3.04574	12.1477
  98	1	9	0.046541	-17.7038	-1.39676	9.3887
  99	1	9	0.045238	-18.1525	-3.02097	9.98802
 100	1	9	0.051941	-17.2035	-2.88316	8.5189
 101	1	9	0.087961	-15.5362	-4.36155	14.0065
 102	1	9	0.066782	-15.5755	-2.67585	14.5215
 103	1	9	0.075908	-14.0504	-3.5578	14.4184
 104	1	9	0.105172	-11.4189	-2.12602	10.2415
 105	1	9	0.115625	-12.3347	-0.968741	9.30436
 106	1	9	0.140296	-12.1399	-2.68066	8.75726
 107	1	1	0.486064	-7.73199	14.1455	14.1619
 108	1	2	0.047133	-8.43848	13.2044	13.3872
 109	1	3	0.001076	-8.60313	12.0292	14.2594
 110	1	2	0.034038	-7.6749	13.7426	15.5142
 111	1	3	0.050122	-8.26283	12.3649	15.5424
 112	1	5	-0.383076	-8.91799	13.3154	12.261
 113	1	5	-0.380811	-7.2822	14.3847	16.4836
 114	1	3	-0.001248	-9.14752	10.7667	13.9066
 115	1	3	-0.036565	-8.60932	11.4968	16.582
 116	1	3	-0.208842	-9.24792	10.2754	16.284
 117	1	3	-0.065319	-9.52928	9.87425	14.9473
 118	1	6	0.153391	-9.34018	10.5461	12.8588
 119	1	6	0.155343	-8.39432	11.7934	17.6032
 120	1	6	0.174191	-9.52522	9.62451	17.1309
 121	1	7	-0.106637	-10.0595	8.43901	14.6364
 122	1	7	0.445763	-11.6045	8.37604	14.9645
 123	1	8	-0.144255	-12.1603	7.12212	14.7587
 124	1	8	-0.136881	-11.764	8.71776	16.2429
 125	1	8	-0.144092	-12.3346	9.30939	14.2633
 126	1	7	0.367264	-9.26068	7.35114	15.4828
 127	1	8	-0.12104	-9.64064	7.17354	16.7695
 128	1	8	-0.122614	-7.96821	7.80998	15.6169
 129	1	8	-0.112321	-9.31268	6.04865	14.9539
 130	1	3	-0.021957	-9.81088	8.08054	13.134
 131	1	3	-0.054241	-10.882	7.79299	12.2437
 132	1	3	-0.111709	-10.6064	7.67843	10.885
 133	1	3	-0.087244	-8.50193	8.04663	12.5974
 134	1	3	-0.118951	-8.22749	7.79972	11.2313
 135	1	3	-0.044875	-9.32835	7.63962	10.4087
 136	1	2	0.461883	-9.40842	7.48046	8.95435
 137	1	1	-0.007433	-10.78	7.43804	8.60132
 138	1	2	0.491356	-11.5718	7.53074	9.7411
 139	1	3	-0.019445	-11.3097	7.45761	7.26914
 140	1	3	-0.186861	-10.9449	8.5559	6.46089
 141	1	3	-0.068374	-11.4831	8.7673	5.20691
 142	1	3	-0.009193	-12.2544	6.51754	6.7646
 143	1	3	0.220761	-12.7613	6.7148	5.46549
 144	1	3	-0.402098	-12.4047	7.85884	4.72781
 145	1	6	0.148422	-10.2839	9.31324	6.87593
 146	1	6	0.146291	-11.2438	9.66411	4.65573
 147	1	6	0.158981	-7.21395	7.85652	10.8125
 148	1	6	0.141813	-7.68041	8.28812	13.2441
 149	1	6	0.143633	-11.9119	7.80243	12.5123
 150	1	5	-0.474465	-12.7724	7.33994	9.86452
 151	1	5	-0.469737	-8.3908	7.25675	8.31403
 152	1	7	-0.37887	-12.6238	5.28186	7.54936
 153	1	9	0.115886	-12.346	5.2943	8.59958
 154	1	9	0.123845	-12.0253	4.43445	7.17294
 155	1	9	0.138418	-13.6606	4.97119	7.44548
 156	1	6	0.21348	-12.8113	7.9761	3.71957
 157	1	1	0.486064	-5.88001	27.1598	5.63784
 158	1	2	0.047133	-6.9855	26.5286	5.06372
 159	1	3	0.001076	-7.25302	25.3158	5.89042
 160	1	2	0.034038	-5.56143	26.5535	6.86541
 161	1	3	0.050122	-6.41681	25.3304	6.99659
 162	1	5	-0.383076	-7.55734	26.8634	4.04347
 163	1	5	-0.380811	-4.81626	26.9671	7.75621
 164	1	3	-0.001248	-8.01933	24.1869	5.61869
 165	1	3	-0.036565	-6.35773	24.2725	7.91642
 166	1	3	-0.208842	-7.20342	23.1786	7.69451
 167	1	3	-0.065319	-8.03967	23.1062	6.52923
 168	1	6	0.153391	-8.56259	24.1677	4.68032
 169	1	6	0.155343	-5.66376	24.3092	8.74949
 170	1	6	0.174191	-7.16956	22.3605	8.40585
 171	1	7	-0.106637	-8.73362	21.7386	6.14938
 172	1	7	0.445763	-7.70166	20.9914	5.21236
 173	1	8	-0.144255	-6.49242	20.8164	5.8404
 174	1	8	-0.136881	-7.51075	21.7727	4.08821
 175	1	8	-0.144092	-8.15127	19.7368	4.87053
 176	1	7	0.367264	-10.1039	21.7803	5.30995
 177	1	8	-0.12104	-11.1588	22.4463	5.85104
 178	1	8	-0.122614	-10.6019	20.5724	5.02141
 179	1	8	-0.112321	-9.93017	22.3802	4.12731
 180	1	3	-0.021957	-8.94072	20.9816	7.49474
 181	1	3	-0.054241	-8.26646	19.7872	7.92613
 182	1	3	-0.111709	-8.38022	19.3438	9.27948
 183	1	3	-0.087244	-9.68693	21.6592	8.48953
 184	1	3	-0.118951	-9.76768	21.2234	9.84158
 185	1	3	-0.044875	-9.08861	20.0433	10.2263
 186	1	2	0.461883	-8.73989	19.437	11.5773
 187	1	1	-0.007433	-7.84317	18.3945	11.3245
 188	1	2	0.491356	-7.58322	18.3045	9.96467
 189	1	3	-0.019445	-7.23901	17.5155	12.2971
 190	1	3	-0.186861	-5.88953	17.7252	12.6384
 191	1	3	-0.068374	-5.18617	16.8634	13.504
 192	1	3	-0.009193	-7.89731	16.3875	12.8754
 193	1	3	0.220761	-7.16503	15.3919	13.6202
 194	1	3	-0.402098	-5.79426	15.6698	13.9125
 195	1	6	0.148422	-5.36349	18.5521	12.1625
 196	1	6	0.146291	-4.12864	17.0417	13.7007
 197	1	6	0.158981	-10.3133	21.8223	10.5573
 198	1	6	0.141813	-10.2013	22.5818	8.20318
 199	1	6	0.143633	-7.65841	19.2015	7.25774
 200	1	5	-0.474465	-6.91695	17.4829	9.38858
 201	1	5	-0.469737	-9.13587	19.8902	12.6424
 202	1	7	-0.37887	-9.42304	16.2284	12.6756
 203	1	9	0.115886	-9.85911	15.5562	13.4279
 204	1	9	0.123845	-9.67256	15.7924	11.713
 205	1	9	0.138418	-9.95129	17.1636	12.7862
 206	1	6	0.21348	-5.20021	14.9297	14.4341
 207	1	1	0.486064	-3.03807	21.878	-3.02309
 208	1	2	0.047133	-3.38784	23.1152	-2.50012
 209	1	3	0.001076	-2.78585	24.1274	-3.40199
 210	1	2	0.034038	-2.33407	22.0366	-4.2371
 211	1	3	0.050122	-2.18915	23.5225	-4.46763
 212	1	5	-0.383076	-3.97731	23.3699	-1.4691
 213	1	5	-0.380811	-1.82714	21.1146	-4.88268
 214	1	3	-0.001248	-2.80638	25.5155	-3.24421
 215	1	3	-0.036565	-1.51071	24.3439	-5.40728
 216	1	3	-0.208842	-1.54028	25.7603	-5.29313
 217	1	3	-0.065319	-2.18983	26.3841	-4.18895
 218	1	6	0.153391	-3.35784	25.8773	-2.36021
 219	1	6	0.155343	-1.00462	23.8673	-6.23896
 220	1	6	0.174191	-1.01115	26.3634	-6.04438
 221	1	7	-0.106637	-2.32003	27.908	-3.91571
 222	1	7	0.445763	-3.70929	28.2833	-4.56931
 223	1	8	-0.144255	-4.03567	29.5543	-4.35711
 224	1	8	-0.136881	-4.71742	27.5303	-4.10241
 225	1	8	-0.144092	-3.73879	28.1263	-5.88383
 226	1	7	0.367264	-1.27084	28.9605	-4.41465
 227	1	8	-0.12104	-1.25471	30.0837	-3.64647
 228	1	8	-0.122614	-1.45233	29.3153	-5.69719
 229	1	8	-0.112321	-0.0101861	28.5029	-4.35679
 230	1	3	-0.021957	-2.20463	28.0156	-2.39155
 231	1	3	-0.054241	-3.2073	28.6419	-1.64715
 232	1	3	-0.111709	-3.04392	28.7361	-0.275054
 233	1	3	-0.087244	-1.00297	27.5748	-1.72821
 234	1	3	-0.118951	-0.860803	27.7243	-0.337282
 235	1	3	-0.044875	-1.91418	28.2883	0.3595
 236	1	2	0.461883	-2.08481	28.4691	1.803
 237	1	1	-0.007433	-3.28588	29.1152	1.93458
 238	1	2	0.491356	-3.89208	29.3572	0.736129
 239	1	3	-0.019445	-3.91399	29.2476	3.16988
 240	1	3	-0.186861	-3.83294	30.4686	3.82463
 241	1	3	-0.068374	-4.45413	30.6222	5.08429
 242	1	3	-0.009193	-4.61785	28.1541	3.7224
 243	1	3	0.220761	-5.19161	28.2915	5.02803
 244	1	3	-0.402098	-5.05829	29.5176	5.72917
 245	1	6	0.148422	-3.30392	31.3013	3.35825
 246	1	6	0.146291	-4.40011	31.5974	5.56675
 247	1	6	0.158981	0.0542497	27.4248	0.172566
 248	1	6	0.141813	-0.233889	27.0479	-2.26938
 249	1	6	0.143633	-4.16361	28.9904	-2.06819
 250	1	5	-0.474465	-4.96917	29.8897	0.544736
 251	1	5	-0.469737	-1.37246	27.9603	2.65031
 252	1	7	-0.37887	-4.61851	26.7997	2.96284
 253	1	9	0.115886	-5.27432	26.8662	2.09283
 254	1	9	0.123845	-4.93152	25.9408	3.58297
 255	1	9	0.138418	-3.62885	26.4416	2.64446
 256	1	6	0.21348	-5.55734	29.6472	6.68675
 257	1	1	0.486064	0.331336	9.63169	-0.0403197
 258	1	2	0.047133	0.64723	10.0417	1.28563
 259	1	3	0.001076	-0.167826	11.2945	1.48863
 260	1	2	0.034038	-0.621252	10.4595	-0.644718
 261	1	3	0.050122	-0.900053	11.572	0.367068
 262	1	5	-0.383076	1.25345	9.48098	2.21017
 263	1	5	-0.380811	-1.19123	10.2914	-1.69547
 264	1	3	-0.001248	-0.327275	12.0017	2.6474
 265	1	3	-0.036565	-1.7804	12.6653	0.327045
 266	1	3	-0.208842	-2.05973	13.3151	1.55623
 267	1	3	-0.065319	-1.28565	13.0196	2.70814
 268	1	6	0.153391	0.281729	11.7049	3.48958
 269	1	6	0.155343	-2.40726	12.7967	-0.553228
 270	1	6	0.174191	-2.90844	14.0096	1.58263
 271	1	7	-0.106637	-1.62186	13.7024	4.0048
 272	1	7	0.445763	-0.497216	13.5852	5.12669
 273	1	8	-0.144255	-0.668211	14.5817	6.00829
 274	1	8	-0.136881	0.759428	13.7726	4.68768
 275	1	8	-0.144092	-0.51961	12.4031	5.76188
 276	1	7	0.367264	-2.96897	13.0157	4.48552
 277	1	8	-0.12104	-4.0716	13.4497	3.78623
 278	1	8	-0.122614	-3.11652	13.2422	5.80803
 279	1	8	-0.112321	-2.93556	11.6532	4.31225
 280	1	3	-0.021957	-1.81694	15.2124	3.71884
 281	1	3	-0.054241	-1.08451	15.7717	2.62928
 282	1	3	-0.111709	-1.48266	17.0222	2.17175
 283	1	3	-0.087244	-2.78599	16.0046	4.39414
 284	1	3	-0.118951	-3.15919	17.2686	3.91278
 285	1	3	-0.044875	-2.4489	17.7697	2.80832
 286	1	2	0.461883	-2.80534	18.8593	1.85538
 287	1	1	-0.007433	-2.14298	18.5927	0.686918
 288	1	2	0.491356	-1.25876	17.5508	0.799898
 289	1	3	-0.019445	-2.73566	19.004	-0.553322
 290	1	3	-0.186861	-3.68348	18.1387	-1.09519
 291	1	3	-0.068374	-4.30089	18.4244	-2.29962
 292	1	3	-0.009193	-2.48192	20.2525	-1.19604
 293	1	3	0.220761	-3.23215	20.5979	-2.37782
 294	1	3	-0.402098	-4.11861	19.6553	-2.90668
 295	1	6	0.148422	-3.91821	17.2001	-0.595061
 296	1	6	0.146291	-4.95636	17.6782	-2.75879
 297	1	6	0.158981	-3.91432	17.863	4.40569
 298	1	6	0.141813	-3.27105	15.6261	5.28145
 299	1	6	0.143633	-0.375475	15.2205	2.0283
 300	1	5	-0.474465	-0.649206	17.0074	-0.10117
 301	1	5	-0.469737	-3.79099	19.5776	1.90205
 302	1	7	-0.37887	-1.47263	21.1799	-0.571704
 303	1	9	0.115886	-1.98483	22.0101	-0.081252
 304	1	9	0.123845	-0.754413	21.5924	-1.26473
 305	1	9	0.138418	-0.880043	20.6733	0.19921
 306	1	6	0.21348	-4.64404	19.8633	-3.83106
 307	1	3	-0.004194	-5.49753	0.256828	2.58779
 308	1	3	-0.097141	-6.35062	1.23098	3.17122
 309	1	3	-0.172015	-7.7153	0.865206	3.29396
 310	1	5	-0.377994	-4.05049	-2.34732	1.55039
 311	1	3	0.033493	-5.97132	-0.990605	2.17311
 312	1	3	-0.063739	-8.17604	-0.425143	2.91795
 313	1	5	-0.398381	-8.57946	-3.2182	1.63335
 314	1	3	0.032144	-7.28158	-1.30913	2.33232
 315	1	2	0.032313	-5.24709	-2.19792	1.70191
 316	1	1	0.461698	-6.21469	-3.19914	1.57161
 317	1	2	0.091945	-7.50539	-2.68396	1.79636
 318	1	3	-0.10563	-4.42512	3.11744	-0.0879428
 319	1	7	-0.099376	-5.84609	2.63505	3.47421
 320	1	3	-0.043296	-4.90506	2.98803	2.3128
 321	1	3	-0.073043	-5.26858	2.72473	0.962385
 322	1	3	-0.117827	-3.2808	3.85598	0.180323
 323	1	3	-0.037562	-3.691	3.70235	2.5474
 324	1	3	-0.083705	-2.92743	4.1621	1.46933
 325	1	7	0.396	-5.15331	2.47112	4.86207
 326	1	7	0.310495	-6.92348	3.77297	3.59588
 327	1	8	-0.130298	-4.67098	3.63069	5.35766
 328	1	8	-0.128745	-4.03527	1.74098	4.71532
 329	1	8	-0.120019	-5.91965	1.97848	5.91014
 330	1	8	-0.104287	-7.67622	3.64928	4.705
 331	1	8	-0.095507	-7.67666	3.89853	2.46547
 332	1	8	-0.104872	-6.2752	4.92419	3.84152
 333	1	2	0.456145	-1.6681	4.90788	1.46884
 334	1	2	0.550902	-2.33342	4.52399	-0.755966
 335	1	1	0.015704	-1.40343	5.13877	0.0978499
 336	1	5	-0.456801	-1.27681	5.57464	2.40201
 337	1	5	-0.487703	-2.56076	4.66325	-1.94798
 338	1	3	-0.116566	-0.369015	6.03595	-0.379708
 339	1	3	-0.050109	-0.509033	7.40825	-0.0561754
 340	1	3	0.154929	0.470094	8.30571	-0.473337
 341	1	3	0.041555	0.791526	5.58297	-1.07343
 342	1	3	-0.223109	1.69108	6.52805	-1.62673
 343	1	3	-0.080449	1.57883	7.9052	-1.31366
 344	1	7	-0.108008	1.03294	4.13371	-1.48299
 345	1	7	-0.182228	2.67865	8.81917	-1.87653
 346	1	7	-0.345523	-1.75816	7.96052	0.670518
 347	1	6	0.155183	-4.42708	0.396643	2.48302
 348	1	6	0.172904	-8.48071	1.5825	3.55746
 349	1	6	0.158028	-9.20769	-0.765458	3.06153
 350	1	6	0.153129	-4.65651	2.84833	-1.14073
 351	1	6	0.142914	-6.21193	2.22418	0.721941
 352	1	6	0.135531	-3.36997	3.99981	3.522
 353	1	6	0.17765	2.49764	6.22737	-2.29127
 354	1	9	0.046541	1.13048	4.02723	-2.57544
 355	1	9	0.045238	0.241994	3.48921	-1.10276
 356	1	9	0.051941	1.95053	3.7506	-0.975149
 357	1	9	0.087961	2.86338	8.60744	-2.9267
 358	1	9	0.066782	3.61994	8.63509	-1.36137
 359	1	9	0.075908	2.42652	9.88903	-1.75912
 360	1	9	0.105172	-1.4668	8.3541	1.65818
 361	1	9	0.115625	-2.50231	7.17513	0.899496
 362	1	9	0.140296	-2.35058	8.70221	0.0921664
 363	1	1	0.486064	-1.33529	-15.9416	3.37415
 364	1	2	0.047133	-2.11042	-14.8267	3.18077
 365	1	3	0.001076	-3.25355	-14.9662	4.03571
 366	1	2	0.034038	-1.79582	-16.7163	4.44185
 367	1	3	0.050122	-3.03853	-16.0147	4.89932
 368	1	5	-0.383076	-1.83137	-13.7937	2.61641
 369	1	5	-0.380811	-1.37313	-17.8187	4.8344
 370	1	3	-0.001248	-4.39953	-14.2095	4.04664
 371	1	3	-0.036565	-4.02933	-16.4798	5.77769
 372	1	3	-0.208842	-5.24652	-15.746	5.73248
 373	1	3	-0.065319	-5.42969	-14.6186	4.91959
 374	1	6	0.153391	-4.51998	-13.4041	3.33802
 375	1	6	0.155343	-3.89905	-17.3756	6.37338
 376	1	6	0.174191	-6.08908	-16.1298	6.31662
 377	1	7	-0.106637	-6.78907	-13.8194	4.95028
 378	1	7	0.445763	-7.67718	-14.4156	3.76269
 379	1	8	-0.144255	-8.0751	-15.6914	3.98042
 380	1	8	-0.136881	-7.04207	-14.32	2.56172
 381	1	8	-0.144092	-8.84368	-13.8063	3.56934
 382	1	7	0.367264	-7.58925	-13.8991	6.3091
 383	1	8	-0.12104	-8.35836	-15.0059	6.37201
 384	1	8	-0.122614	-8.53458	-12.9333	6.36999
 385	1	8	-0.112321	-6.87539	-13.7898	7.46078
 386	1	3	-0.021957	-6.47699	-12.3006	4.67388
 387	1	3	-0.054241	-7.13126	-11.5007	3.67293
 388	1	3	-0.111709	-6.66483	-10.1779	3.42702
 389	1	3	-0.087244	-5.5135	-11.6421	5.48065
 390	1	3	-0.118951	-5.02273	-10.3617	5.22263
 391	1	3	-0.044875	-5.60688	-9.6318	4.1637
 392	1	2	0.461883	-5.30258	-8.23001	3.58913
 393	1	1	-0.007433	-6.19088	-8.07109	2.51048
 394	1	2	0.491356	-7.03062	-9.16787	2.34816
 395	1	3	-0.019445	-6.05725	-6.94015	1.60864
 396	1	3	-0.186861	-5.51928	-7.2198	0.328777
 397	1	3	-0.068374	-5.24507	-6.12114	-0.520334
 398	1	3	-0.009193	-6.22868	-5.586	2.04752
 399	1	3	0.220761	-5.93196	-4.54246	1.16125
 400	1	3	-0.402098	-5.49168	-4.79544	-0.139538
 401	1	6	0.148422	-5.3014	-8.25829	0.0126116
 402	1	6	0.146291	-4.81304	-6.30333	-1.50336
 403	1	6	0.158981	-4.3001	-9.94155	5.90306
 404	1	6	0.141813	-4.9625	-12.2198	6.2333
 405	1	6	0.143633	-7.90724	-11.857	3.00896
 406	1	5	-0.474465	-7.90707	-9.23351	1.52524
 407	1	5	-0.469737	-4.36863	-7.47602	3.89113
 408	1	7	-0.37887	-6.76487	-5.30794	3.46599
 409	1	9	0.115886	-7.50978	-4.51659	3.52199
 410	1	9	0.123845	-5.90371	-5.02696	4.07615
 411	1	9	0.138418	-7.2231	-6.17401	3.93009
 412	1	6	0.21348	-5.28816	-3.97608	-0.813375
 413	1	3	-0.004194	9.20043	-16.9984	0.252353
 414	1	3	-0.097141	9.41814	-17.2384	1.65748
 415	1	3	-0.172015	9.56239	-18.6067	2.11023
 416	1	5	-0.377994	9.43515	-16.9212	-2.73049
 417	1	3	0.033493	9.30801	-18.0541	-0.650725
 418	1	3	-0.063739	9.57749	-19.6537	1.16416
 419	1	5	-0.398381	9.87729	-21.4119	-1.56439
 420	1	3	0.032144	9.54717	-19.3416	-0.234749
 421	1	2	0.032313	9.47274	-17.9636	-2.11221
 422	1	1	0.461698	9.77005	-19.2563	-2.5212
 423	1	2	0.091945	9.78237	-20.1918	-1.4826
 424	1	3	-0.10563	6.38314	-13.3953	2.93203
 425	1	7	-0.099376	9.42825	-15.9512	2.63499
 426	1	3	-0.043296	8.01843	-15.2096	2.62611
 427	1	3	-0.073043	7.71746	-13.8216	2.84972
 428	1	3	-0.117827	5.37831	-14.3286	2.61343
 429	1	3	-0.037562	6.97564	-16.1323	2.58266
 430	1	3	-0.083705	5.67732	-15.6626	2.49805
 431	1	7	0.396	9.80962	-16.323	4.14682
 432	1	7	0.310495	10.4948	-14.9248	2.05159
 433	1	8	-0.130298	9.87818	-15.2468	4.99386
 434	1	8	-0.128745	11.0396	-16.9111	4.21663
 435	1	8	-0.120019	8.94632	-17.2167	4.67715
 436	1	8	-0.104287	11.5755	-15.5577	1.56755
 437	1	8	-0.095507	10.9906	-13.9983	2.91887
 438	1	8	-0.104872	10.0259	-14.2345	1.00285
 439	1	2	0.456145	4.40891	-16.4219	2.33125
 440	1	2	0.550902	3.90723	-14.2032	2.64594
 441	1	1	0.015704	3.39911	-15.4454	2.33849
 442	1	5	-0.456801	4.36685	-17.6447	2.40394
 443	1	5	-0.487703	3.295	-13.1826	2.47616
 444	1	3	-0.116566	2.03096	-15.7213	1.93392
 445	1	3	-0.050109	1.0304	-15.8381	2.88118
 446	1	3	0.154929	-0.259907	-16.2088	2.48107
 447	1	3	0.041555	1.77294	-16.068	0.585709
 448	1	3	-0.223109	0.480211	-16.3871	0.182741
 449	1	3	-0.080449	-0.520327	-16.4795	1.122
 450	1	7	-0.108008	2.82608	-15.7764	-0.477442
 451	1	7	-0.182228	-1.85906	-16.8696	0.602456
 452	1	7	-0.345523	1.40535	-15.7177	4.36354
 453	1	6	0.155183	9.08166	-15.9867	-0.107813
 454	1	6	0.172904	9.70133	-18.8727	3.15371
 455	1	6	0.158028	9.82005	-20.6609	1.45642
 456	1	6	0.153129	6.0931	-12.3844	3.21102
 457	1	6	0.142914	8.53272	-13.1035	3.10188
 458	1	6	0.135531	7.16011	-17.1946	2.53328
 459	1	6	0.17765	0.256997	-16.6289	-0.847663
 460	1	9	0.046541	3.77925	-16.1158	-0.0735946
 461	1	9	0.045238	2.85459	-14.6967	-0.686918
 462	1	9	0.051941	2.63053	-16.3114	-1.4179
 463	1	9	0.087961	-2.59127	-16.0756	0.577656
 464	1	9	0.066782	-2.19626	-17.6572	1.26178
 465	1	9	0.075908	-1.74341	-17.2819	-0.411402
 466	1	9	0.105172	0.514808	-15.669	5.00535
 467	1	9	0.115625	2.00172	-14.8448	4.61948
 468	1	9	0.140296	1.95323	-16.6315	4.65842
 469	1	3	-0.004194	19.0596	-25.6494	-8.94556
 470	1	3	-0.097141	17.9631	-24.8039	-8.56261
 471	1	3	-0.172015	17.6329	-23.7186	-9.48619
 472	1	5	-0.377994	20.7814	-27.5515	-10.6398
 473	1	3	0.033493	19.7854	-25.3927	-10.1218
 474	1	3	-0.063739	18.3218	-23.5816	-10.7018
 475	1	5	-0.398381	19.8211	-23.8067	-13.2888
 476	1	3	0.032144	19.4328	-24.3838	-10.998
 477	1	2	0.032313	20.5913	-26.3735	-10.9282
 478	1	1	0.461698	20.6622	-25.7817	-12.2152
 479	1	2	0.091945	20.0805	-24.5178	-12.3116
 480	1	3	-0.10563	16.3664	-21.2471	-6.68397
 481	1	7	-0.099376	17.1392	-25.0652	-7.20804
 482	1	3	-0.043296	16.3002	-23.7538	-6.86266
 483	1	3	-0.073043	17.0097	-22.5209	-6.74447
 484	1	3	-0.117827	14.9322	-21.1902	-6.73141
 485	1	3	-0.037562	14.8673	-23.6715	-6.92059
 486	1	3	-0.083705	14.22	-22.3767	-6.86827
 487	1	7	0.396	18.1383	-25.4033	-6.03713
 488	1	7	0.310495	16.2416	-26.4088	-7.33997
 489	1	8	-0.130298	18.7942	-26.5577	-6.22202
 490	1	8	-0.128745	17.5347	-25.3849	-4.84867
 491	1	8	-0.120019	19.1424	-24.5142	-6.07348
 492	1	8	-0.104287	15.6254	-26.8114	-6.23142
 493	1	8	-0.095507	16.9374	-27.504	-7.761
 494	1	8	-0.104872	15.2807	-26.292	-8.27039
 495	1	2	0.456145	12.7734	-22.0127	-6.64027
 496	1	2	0.550902	14.0092	-20.0715	-6.29675
 497	1	1	0.015704	12.7553	-20.6891	-6.23738
 498	1	5	-0.456801	11.8174	-22.7906	-6.73508
 499	1	5	-0.487703	14.2798	-18.9141	-5.96676
 500	1	3	-0.116566	11.5558	-20.0516	-5.79033
 501	1	3	-0.050109	11.3181	-19.817	-4.38593
 502	1	3	0.154929	9.98851	-19.5431	-3.9281
 503	1	3	0.041555	10.502	-19.8414	-6.68901
 504	1	3	-0.223109	9.17752	-19.5988	-6.22387
 505	1	3	-0.080449	8.91494	-19.5476	-4.86555
 506	1	7	-0.108008	10.7019	-19.778	-8.19731
 507	1	7	-0.182228	7.48786	-19.5646	-4.37801
 508	1	7	-0.345523	12.4591	-20.037	-3.34156
 509	1	6	0.155183	19.281	-26.5833	-8.4206
 510	1	6	0.172904	16.7284	-23.1165	-9.33125
 511	1	6	0.158028	17.9378	-22.888	-11.4628
 512	1	6	0.153129	16.9441	-20.3402	-6.50625
 513	1	6	0.142914	18.0902	-22.5705	-6.67215
 514	1	6	0.135531	14.2158	-24.5846	-6.94207
 515	1	6	0.17765	8.38164	-19.5695	-6.95758
 516	1	9	0.046541	10.4572	-20.7579	-8.6463
 517	1	9	0.045238	11.7182	-19.5051	-8.47334
 518	1	9	0.051941	10.0369	-19.0244	-8.62812
 519	1	9	0.087961	7.32097	-20.3222	-3.62971
 520	1	9	0.066782	6.78316	-19.7955	-5.17068
 521	1	9	0.075908	7.13213	-18.6111	-3.94973
 522	1	9	0.105172	13.4542	-19.7561	-3.73516
 523	1	9	0.115625	12.4692	-21.0837	-3.04191
 524	1	9	0.140296	12.257	-19.4773	-2.43414
 525	1	3	-0.004194	15.5938	-35.8972	-18.6052
 526	1	3	-0.097141	16.2917	-34.9502	-17.8393
 527	1	3	-0.172015	16.7516	-35.4124	-16.5605
 528	1	5	-0.377994	14.0066	-38.207	-19.8297
 529	1	3	0.033493	15.4317	-37.1992	-18.1499
 530	1	3	-0.063739	16.6915	-36.7534	-16.1322
 531	1	5	-0.398381	15.543	-39.7236	-15.6897
 532	1	3	0.032144	15.9657	-37.6548	-16.9405
 533	1	2	0.032313	14.5594	-38.2417	-18.7251
 534	1	1	0.461698	14.5632	-39.2581	-17.7872
 535	1	2	0.091945	15.3826	-39.0148	-16.6849
 536	1	3	-0.10563	19.6584	-32.6883	-16.5415
 537	1	7	-0.099376	16.3697	-33.481	-18.3312
 538	1	3	-0.043296	17.4358	-32.7032	-17.5514
 539	1	3	-0.073043	18.6539	-33.3372	-17.2686
 540	1	3	-0.117827	19.54	-31.3707	-16.2502
 541	1	3	-0.037562	17.3562	-31.2998	-17.2576
 542	1	3	-0.083705	18.4507	-30.6722	-16.6369
 543	1	7	0.396	14.9295	-32.8319	-18.1434
 544	1	7	0.310495	16.7078	-33.4331	-19.8747
 545	1	8	-0.130298	14.7836	-31.7047	-18.8838
 546	1	8	-0.128745	14.7141	-32.5299	-16.8637
 547	1	8	-0.120019	13.893	-33.6616	-18.3862
 548	1	8	-0.104287	17.3787	-32.3322	-20.2688
 549	1	8	-0.095507	17.5896	-34.4179	-20.2201
 550	1	8	-0.104872	15.6229	-33.5789	-20.6971
 551	1	2	0.456145	18.7934	-29.2514	-16.3486
 552	1	2	0.550902	20.5817	-30.4684	-15.7012
 553	1	1	0.015704	20.0446	-29.2112	-15.7578
 554	1	5	-0.456801	18.1854	-28.3012	-16.743
 555	1	5	-0.487703	21.5796	-30.9217	-15.1401
 556	1	3	-0.116566	20.756	-28.0593	-15.2589
 557	1	3	-0.050109	20.2526	-27.385	-14.0962
 558	1	3	0.154929	21.1203	-26.451	-13.4049
 559	1	3	0.041555	22.0743	-27.7666	-15.7506
 560	1	3	-0.223109	22.8242	-26.7791	-15.0654
 561	1	3	-0.080449	22.3851	-26.1048	-13.9097
 562	1	7	-0.108008	22.8143	-28.363	-16.9518
 563	1	7	-0.182228	23.2262	-24.987	-13.2625
 564	1	7	-0.345523	18.9152	-27.8176	-13.4673
 565	1	6	0.155183	15.0503	-35.6303	-19.4884
 566	1	6	0.172904	17.2147	-34.729	-15.8737
 567	1	6	0.158028	17.1296	-37.0209	-15.1864
 568	1	6	0.153129	20.5804	-33.1986	-16.2465
 569	1	6	0.142914	18.8074	-34.3399	-17.6103
 570	1	6	0.135531	16.5538	-30.6727	-17.6294
 571	1	6	0.17765	23.8383	-26.5421	-15.4267
 572	1	9	0.046541	22.1713	-28.678	-17.7671
 573	1	9	0.045238	23.4768	-29.1801	-16.6206
 574	1	9	0.051941	23.4629	-27.5585	-17.3615
 575	1	9	0.087961	23.2207	-25.0222	-12.1615
 576	1	9	0.066782	22.9007	-23.9977	-13.6238
 577	1	9	0.075908	24.2646	-25.1228	-13.5931
 578	1	9	0.105172	18.2439	-28.3134	-14.1631
 579	1	9	0.115625	18.3532	-26.963	-13.0973
 580	1	9	0.140296	19.0799	-28.5547	-12.6854
 581	1	3	-0.004194	5.47787	-38.0279	-17.9029
 582	1	3	-0.097141	4.83172	-38.9587	-18.7683
 583	1	3	-0.172015	4.63814	-38.5426	-20.1246
 584	1	5	-0.377994	6.69974	-35.539	-16.4361
 585	1	3	0.033493	5.82896	-36.7462	-18.3431
 586	1	3	-0.063739	4.9691	-37.2331	-20.4921
 587	1	5	-0.398381	5.78641	-34.1602	-20.6675
 588	1	3	0.032144	5.54043	-36.3034	-19.5721
 589	1	2	0.032313	6.31535	-35.519	-17.5786
 590	1	1	0.461698	6.31773	-34.4011	-18.4031
 591	1	2	0.091945	5.84851	-34.8359	-19.6334
 592	1	3	-0.10563	7.00054	-41.8451	-15.7187
 593	1	7	-0.099376	4.39714	-40.354	-18.1967
 594	1	3	-0.043296	5.61024	-41.0636	-17.5976
 595	1	3	-0.073043	5.71469	-41.4918	-16.2414
 596	1	3	-0.117827	8.14289	-41.6403	-16.518
 597	1	3	-0.037562	6.74198	-41.0872	-18.4256
 598	1	3	-0.083705	7.96373	-41.2962	-17.8515
 599	1	7	0.396	3.20418	-39.9649	-17.2166
 600	1	7	0.310495	3.84902	-41.4432	-19.1928
 601	1	8	-0.130298	2.15264	-39.4722	-17.8222
 602	1	8	-0.128745	2.764	-41.0499	-16.53
 603	1	8	-0.120019	3.53089	-39.1209	-16.2055
 604	1	8	-0.104287	2.64038	-41.1595	-19.6438
 605	1	8	-0.095507	3.69543	-42.6929	-18.6229
 606	1	8	-0.104872	4.54647	-41.6341	-20.3078
 607	1	2	0.456145	9.28085	-41.1709	-18.4667
 608	1	2	0.550902	9.6298	-41.8414	-16.2199
 609	1	1	0.015704	10.1992	-41.5102	-17.4731
 610	1	5	-0.456801	9.50746	-40.7785	-19.5768
 611	1	5	-0.487703	10.2332	-42.0547	-15.1862
 612	1	3	-0.116566	11.6194	-41.5092	-17.7064
 613	1	3	-0.050109	12.4201	-40.346	-17.4809
 614	1	3	0.154929	13.7588	-40.3838	-17.912
 615	1	3	0.041555	12.2562	-42.7337	-18.0703
 616	1	3	-0.223109	13.5869	-42.6949	-18.5271
 617	1	3	-0.080449	14.3425	-41.5427	-18.4102
 618	1	7	-0.108008	11.4807	-44.0474	-18.1517
 619	1	7	-0.182228	15.7289	-41.5979	-19.0042
 620	1	7	-0.345523	11.8176	-39.0493	-16.9847
 621	1	6	0.155183	5.71039	-38.3109	-16.8539
 622	1	6	0.172904	4.18437	-39.1711	-20.8946
 623	1	6	0.158028	4.73536	-36.8721	-21.4579
 624	1	6	0.153129	7.13044	-42.236	-14.7085
 625	1	6	0.142914	4.85701	-41.4852	-15.5654
 626	1	6	0.135531	6.71282	-40.8268	-19.4624
 627	1	6	0.17765	13.9477	-43.5631	-19.0977
 628	1	9	0.046541	12.1409	-44.8677	-17.8667
 629	1	9	0.045238	11.1722	-44.2461	-19.1739
 630	1	9	0.051941	10.6441	-44.102	-17.4592
 631	1	9	0.087961	16.3581	-42.3167	-18.467
 632	1	9	0.066782	16.2361	-40.6264	-19.0842
 633	1	9	0.075908	15.6965	-41.9019	-20.0657
 634	1	9	0.105172	12.5255	-38.5438	-16.3285
 635	1	9	0.115625	10.8495	-39.0811	-16.4904
 636	1	9	0.140296	11.6187	-38.4383	-17.8935
 637	1	1	0.486064	-0.312192	-23.8066	-12.5831
 638	1	2	0.047133	-0.428146	-24.6005	-13.68
 639	1	3	0.001076	0.49494	-24.0651	-14.6342