pySIMM System Object

1678 atoms
1837 bonds
3224 angles
4880 dihedrals
512 impropers

9 atom types
11 bond types
18 angle types
7 dihedral types
4 improper types

-152.177036 152.177036 xlo xhi
-152.177036 152.177036 ylo yhi
-152.177036 152.177036 zlo zhi

Masses

   1	14.01	# n
   2	12.01	# c
   3	12.01	# ca
   4	1.008	# hn
   5	16.0	# o
   6	1.008	# ha
   7	12.01	# c3
   8	19.0	# f
   9	1.008	# hc

Pair Coeffs

   1	0.17	3.249998523775958	# n
   2	0.086	3.3996695084235347	# c
   3	0.086	3.3996695084235347	# ca
   4	0.0157	1.069078461768407	# hn
   5	0.21	2.959921901149463	# o
   6	0.015	2.59964245953351	# ha
   7	0.1094	3.3996695084235347	# c3
   8	0.061	3.1181455134911875	# f
   9	0.0157	2.649532787749369	# hc

Bond Coeffs

   1	345.8	1.086	# ca,ha
   2	637.7	1.2183	# c,o
   3	321.0	1.5156	# c3,ca
   4	300.9	1.5375	# c3,c3
   5	384.2	1.4121	# ca,n
   6	330.6	1.0969	# c3,hc
   7	403.2	1.0129	# hn,n
   8	356.9	1.3497	# c3,f
   9	461.1	1.3984	# ca,ca
  10	427.6	1.3789	# c,n
  11	345.9	1.4906	# c,ca

Angle Coeffs

   1	66.11	109.24	# c3,c3,f
   2	46.8	110.47	# ca,c3,hc
   3	39.4	107.58	# hc,c3,hc
   4	63.82	123.71	# c,n,ca
   5	66.62	120.02	# ca,ca,ca
   6	63.53	120.77	# c3,ca,ca
   7	62.86	111.51	# c3,c3,c3
   8	63.74	127.08	# c,n,c
   9	48.33	117.55	# c,n,hn
  10	64.28	120.33	# c,ca,ca
  11	48.18	119.88	# ca,ca,ha
  12	68.72	122.6	# ca,c,o
  13	63.15	112.07	# c3,c3,ca
  14	70.89	107.36	# f,c3,f
  15	67.87	120.19	# ca,ca,n
  16	63.56	112.24	# ca,c3,ca
  17	67.68	115.25	# ca,c,n
  18	74.22	123.05	# n,c,o

Dihedral Coeffs

   1	2	2.5	2	180	2.0	1	0	# hn,n,c,o
   2	1	3.625	2	180	# X,ca,ca,X
   3	1	0.15555555555555556	3	0	# X,c3,c3,X
   4	1	0.0	2	0	# X,c3,ca,X
   5	1	1.0	2	180	# X,c,ca,X
   6	1	2.5	2	180	# X,c,n,X
   7	1	0.45	2	180	# X,ca,n,X

Improper Coeffs

   1	1.1	-1	2	# n,X,X,hn
   2	1.1	-1	2	# ca,X,X,ha
   3	10.5	-1	2	# c,X,X,o
   4	1.1	-1	2	# ca,ca,ca,c3

Atoms

   1	1	1	0.486064	-37.4863	-19.4152	-36.1691
   2	1	2	0.047133	-36.7433	-20.5446	-36.4992
   3	1	3	0.001076	-36.4194	-21.1778	-35.1962
   4	1	2	0.034038	-37.7298	-19.3034	-34.801
   5	1	3	0.050122	-37.0144	-20.4508	-34.1882
   6	1	5	-0.383076	-36.3409	-20.8937	-37.5958
   7	1	5	-0.380811	-38.2919	-18.3968	-34.209
   8	1	3	-0.001248	-35.5581	-22.2407	-34.9237
   9	1	3	-0.036565	-36.8177	-20.783	-32.8462
  10	1	3	-0.208842	-35.9427	-21.8491	-32.5481
  11	1	3	-0.065319	-35.2679	-22.5763	-33.5711
  12	1	6	0.153391	-35.1013	-22.7285	-35.7752
  13	1	6	0.155343	-37.2889	-20.196	-32.0596
  14	1	6	0.174191	-35.7463	-22.069	-31.4991
  15	1	7	-0.106637	-34.2096	-23.6554	-33.169
  16	1	7	0.445763	-34.9628	-24.7728	-32.3415
  17	1	8	-0.144255	-35.1387	-24.399	-31.0538
  18	1	8	-0.136881	-36.1969	-25.0226	-32.8348
  19	1	8	-0.144092	-34.3187	-25.9595	-32.2957
  20	1	7	0.367264	-33.4962	-24.2925	-34.4276
  21	1	8	-0.12104	-32.8763	-23.3495	-35.175
  22	1	8	-0.122614	-34.3573	-24.9568	-35.227
  23	1	8	-0.112321	-32.5269	-25.1776	-34.1113
  24	1	3	-0.021957	-33.0827	-23.003	-32.3121
  25	1	3	-0.054241	-32.192	-23.8115	-31.5577
  26	1	3	-0.111709	-31.1195	-23.212	-30.8912
  27	1	3	-0.087244	-32.8522	-21.5963	-32.3269
  28	1	3	-0.118951	-31.7758	-21.0085	-31.6273
  29	1	3	-0.044875	-30.9041	-21.8522	-30.9316
  30	1	2	0.461883	-29.6243	-21.5681	-30.2195
  31	1	1	-0.007433	-29.1441	-22.8027	-29.804
  32	1	2	0.491356	-29.9982	-23.8381	-30.1469
  33	1	3	-0.019445	-27.8908	-23.011	-29.1571
  34	1	3	-0.186861	-26.7254	-23.1092	-29.9402
  35	1	3	-0.068374	-25.4907	-23.4325	-29.3515
  36	1	3	-0.009193	-27.8111	-23.1969	-27.7587
  37	1	3	0.220761	-26.5701	-23.5186	-27.1778
  38	1	3	-0.402098	-25.4183	-23.6507	-27.9676
  39	1	6	0.148422	-26.7807	-22.9649	-31.0148
  40	1	6	0.146291	-24.6017	-23.5324	-29.971
  41	1	6	0.158981	-31.5876	-19.9371	-31.6693
  42	1	6	0.141813	-33.4828	-20.9388	-32.9136
  43	1	6	0.143633	-32.2806	-24.8938	-31.522
  44	1	5	-0.474465	-29.8574	-25.0292	-29.9387
  45	1	5	-0.469737	-29.0902	-20.4812	-30.0979
  46	1	7	-0.37887	-29.0435	-23.088	-26.8675
  47	1	9	0.115886	-29.5789	-22.1452	-27.0384
  48	1	9	0.123845	-28.772	-23.1177	-25.8038
  49	1	9	0.138418	-29.7371	-23.9216	-27.0513
  50	1	6	0.21348	-24.4755	-23.9172	-27.499
  51	1	3	-0.004194	-31.6566	-12.3482	-36.4829
  52	1	3	-0.097141	-32.3261	-11.1998	-35.9924
  53	1	3	-0.172015	-32.3511	-10.9834	-34.5847
  54	1	5	-0.377994	-30.5745	-15.173	-36.9474
  55	1	3	0.033493	-31.1239	-13.2639	-35.5842
  56	1	3	-0.063739	-31.7916	-11.9247	-33.6888
  57	1	5	-0.398381	-30.7578	-14.56	-32.3613
  58	1	3	0.032144	-31.1987	-13.0755	-34.222
  59	1	2	0.032313	-30.6444	-14.634	-35.8562
  60	1	1	0.461698	-30.4739	-15.2105	-34.6056
  61	1	2	0.091945	-30.7443	-14.3292	-33.5585
  62	1	3	-0.10563	-34.4675	-12.5651	-39.9632
  63	1	7	-0.099376	-33.0756	-10.3236	-37.0359
  64	1	3	-0.043296	-33.9084	-11.3419	-37.8784
  65	1	3	-0.073043	-33.8002	-11.5102	-39.2897
  66	1	3	-0.117827	-35.27	-13.4387	-39.2103
  67	1	3	-0.037562	-34.7455	-12.2384	-37.1702
  68	1	3	-0.083705	-35.4104	-13.2528	-37.8544
  69	1	7	0.396	-31.9652	-9.52821	-37.8331
  70	1	7	0.310495	-34.093	-9.28524	-36.4189
  71	1	8	-0.130298	-32.4658	-8.63581	-38.7182
  72	1	8	-0.128745	-31.1661	-8.83366	-36.9921
  73	1	8	-0.120019	-31.1364	-10.3439	-38.5233
  74	1	8	-0.104287	-34.8403	-8.70217	-37.382
  75	1	8	-0.095507	-33.4858	-8.29763	-35.7255
  76	1	8	-0.104872	-34.9785	-9.84606	-35.5669
  77	1	2	0.456145	-36.2844	-14.3079	-37.3073
  78	1	2	0.550902	-36.0617	-14.657	-39.5782
  79	1	1	0.015704	-36.618	-15.1166	-38.3841
  80	1	5	-0.456801	-36.5876	-14.4369	-36.1335
  81	1	5	-0.487703	-36.1655	-15.146	-40.6905
  82	1	3	-0.116566	-37.4368	-16.2789	-38.2234
  83	1	3	-0.050109	-36.9759	-17.3627	-37.432
  84	1	3	0.154929	-37.87	-18.4142	-37.103
  85	1	3	0.041555	-38.7612	-16.2814	-38.7178
  86	1	3	-0.223109	-39.6066	-17.3727	-38.4522
  87	1	3	-0.080449	-39.1758	-18.4344	-37.6429
  88	1	7	-0.108008	-39.3067	-15.1188	-39.5368
  89	1	7	-0.182228	-40.1357	-19.5835	-37.3571
  90	1	7	-0.345523	-35.5364	-17.362	-36.8882
  91	1	6	0.155183	-31.6371	-12.5948	-37.5383
  92	1	6	0.172904	-32.8458	-10.114	-34.1613
  93	1	6	0.158028	-31.8743	-11.8024	-32.6122
  94	1	6	0.153129	-34.352	-12.7083	-41.0348
  95	1	6	0.142914	-33.174	-10.8467	-39.8782
  96	1	6	0.135531	-34.8425	-12.1946	-36.0896
  97	1	6	0.17765	-40.6175	-17.3739	-38.8523
  98	1	9	0.046541	-40.3917	-15.2008	-39.6835
  99	1	9	0.045238	-38.8474	-15.0932	-40.5353
 100	1	9	0.051941	-39.1185	-14.1553	-39.0453
 101	1	9	0.087961	-39.6924	-20.5518	-37.6246
 102	1	9	0.066782	-41.0649	-19.4882	-37.9334
 103	1	9	0.075908	-40.4119	-19.6114	-36.2943
 104	1	9	0.105172	-34.8396	-16.8586	-37.5701
 105	1	9	0.115625	-35.1267	-18.3693	-36.7628
 106	1	9	0.140296	-35.4826	-16.8505	-35.9184
 107	1	3	-0.004194	-22.3104	-25.3763	-35.0957
 108	1	3	-0.097141	-23.4823	-24.6499	-35.4422
 109	1	3	-0.172015	-24.7022	-24.9906	-34.7902
 110	1	5	-0.377994	-20.1611	-27.2406	-33.8258
 111	1	3	0.033493	-22.4029	-26.3779	-34.119
 112	1	3	-0.063739	-24.7777	-26.0118	-33.826
 113	1	5	-0.398381	-24.2215	-28.3474	-31.8559
 114	1	3	0.032144	-23.6024	-26.69	-33.5079
 115	1	2	0.032313	-21.3492	-27.2607	-33.5517
 116	1	1	0.461698	-22.018	-28.0669	-32.6309
 117	1	2	0.091945	-23.3797	-27.7967	-32.5471
 118	1	3	-0.10563	-24.6245	-20.9542	-33.8085
 119	1	7	-0.099376	-23.5084	-23.5038	-36.5034
 120	1	3	-0.043296	-24.2584	-22.3063	-35.8508
 121	1	3	-0.073043	-23.9085	-21.934	-34.5222
 122	1	3	-0.117827	-25.6921	-20.3309	-34.4577
 123	1	3	-0.037562	-25.318	-21.6078	-36.4888
 124	1	3	-0.083705	-26.0162	-20.6334	-35.7641
 125	1	7	0.396	-24.2262	-24.0928	-37.7827
 126	1	7	0.310495	-22.0828	-22.972	-36.9315
 127	1	8	-0.130298	-25.5256	-24.3988	-37.5513
 128	1	8	-0.128745	-23.6392	-25.2447	-38.1782
 129	1	8	-0.120019	-24.2002	-23.2571	-38.8477
 130	1	8	-0.104287	-21.3754	-23.8718	-37.653
 131	1	8	-0.095507	-21.3126	-22.6426	-35.8698
 132	1	8	-0.104872	-22.1848	-21.8478	-37.6828
 133	1	2	0.456145	-27.2586	-19.8961	-36.1166
 134	1	2	0.550902	-26.7174	-19.4016	-33.9229
 135	1	1	0.015704	-27.6365	-19.2367	-34.9503
 136	1	5	-0.456801	-27.8745	-19.9909	-37.1645
 137	1	5	-0.487703	-26.7816	-18.9867	-32.778
 138	1	3	-0.116566	-28.9041	-18.6138	-34.7538
 139	1	3	-0.050109	-29.0203	-17.2037	-34.7258
 140	1	3	0.154929	-30.2861	-16.6129	-34.4742
 141	1	3	0.041555	-30.0386	-19.4292	-34.5497
 142	1	3	-0.223109	-31.2852	-18.8302	-34.3305
 143	1	3	-0.080449	-31.4225	-17.4349	-34.2718
 144	1	7	-0.108008	-29.9423	-20.9544	-34.5727
 145	1	7	-0.182228	-32.8174	-16.8523	-34.0492
 146	1	7	-0.345523	-27.7675	-16.3561	-34.9748
 147	1	6	0.155183	-21.3446	-25.1848	-35.5507
 148	1	6	0.172904	-25.6179	-24.4535	-35.0348
 149	1	6	0.158028	-25.7161	-26.2726	-33.3378
 150	1	6	0.153129	-24.3904	-20.7189	-32.7731
 151	1	6	0.142914	-23.1024	-22.4497	-34.012
 152	1	6	0.135531	-25.6526	-21.8412	-37.4951
 153	1	6	0.17765	-32.1614	-19.4592	-34.2182
 154	1	9	0.046541	-30.9095	-21.43	-34.3687
 155	1	9	0.045238	-29.233	-21.3197	-33.8169
 156	1	9	0.051941	-29.6166	-21.3167	-35.5515
 157	1	9	0.087961	-33.5784	-17.6355	-33.9419
 158	1	9	0.066782	-33.124	-16.2205	-34.8964
 159	1	9	0.075908	-32.8544	-16.2433	-33.1397
 160	1	9	0.105172	-27.0474	-16.4784	-34.1541
 161	1	9	0.115625	-27.9629	-15.2848	-35.0624
 162	1	9	0.140296	-27.2703	-16.6573	-35.9093
 163	1	3	-0.004194	-23.9253	-40.6211	-31.9341
 164	1	3	-0.097141	-23.2737	-39.5089	-32.5325
 165	1	3	-0.172015	-23.8185	-38.9796	-33.7366
 166	1	5	-0.377994	-25.7664	-42.9896	-31.1575
 167	1	3	0.033493	-25.0584	-41.1579	-32.5544
 168	1	3	-0.063739	-24.9373	-39.5592	-34.3662
 169	1	5	-0.398381	-27.1666	-41.4511	-35.3166
 170	1	3	0.032144	-25.5297	-40.6617	-33.7501
 171	1	2	0.032313	-25.8785	-42.3391	-32.1821
 172	1	1	0.461698	-26.7625	-42.5313	-33.2487
 173	1	2	0.091945	-26.6134	-41.5488	-34.2348
 174	1	3	-0.10563	-23.8499	-35.5951	-30.9672
 175	1	7	-0.099376	-21.9855	-38.857	-31.9421
 176	1	3	-0.043296	-22.2788	-37.3438	-31.7563
 177	1	3	-0.073043	-23.5465	-36.944	-31.2413
 178	1	3	-0.117827	-22.8568	-34.6444	-31.2191
 179	1	3	-0.037562	-21.2965	-36.3453	-31.9797
 180	1	3	-0.083705	-21.6173	-35.0079	-31.7075
 181	1	7	0.396	-21.5783	-39.3872	-30.5107
 182	1	7	0.310495	-20.8132	-39.1777	-32.9554
 183	1	8	-0.130298	-21.1812	-40.6797	-30.5266
 184	1	8	-0.128745	-22.5967	-39.2847	-29.625
 185	1	8	-0.120019	-20.5612	-38.6685	-29.9764
 186	1	8	-0.104287	-20.8337	-40.4782	-33.3288
 187	1	8	-0.095507	-20.8987	-38.4596	-34.0958
 188	1	8	-0.104872	-19.5799	-38.9521	-32.458
 189	1	2	0.456145	-20.7684	-33.7883	-31.7874
 190	1	2	0.550902	-22.8425	-33.1794	-30.973
 191	1	1	0.015704	-21.5677	-32.7513	-31.3173
 192	1	5	-0.456801	-19.6172	-33.7426	-32.1892
 193	1	5	-0.487703	-23.7604	-32.5137	-30.5239
 194	1	3	-0.116566	-21.1603	-31.3925	-31.1748
 195	1	3	-0.050109	-21.641	-30.4253	-32.0837
 196	1	3	0.154929	-21.403	-29.0548	-31.8249
 197	1	3	0.041555	-20.396	-31.0008	-30.0548
 198	1	3	-0.223109	-20.124	-29.6408	-29.8412
 199	1	3	-0.080449	-20.6454	-28.6614	-30.6996
 200	1	7	-0.108008	-19.9128	-32.0181	-29.0302
 201	1	7	-0.182228	-20.4176	-27.1901	-30.3691
 202	1	7	-0.345523	-22.456	-30.8731	-33.3039
 203	1	6	0.155183	-23.5677	-41.0934	-31.0245
 204	1	6	0.172904	-23.3511	-38.1168	-34.2121
 205	1	6	0.158028	-25.3148	-39.1858	-35.3195
 206	1	6	0.153129	-24.8134	-35.3005	-30.5482
 207	1	6	0.142914	-24.3025	-37.689	-31.0213
 208	1	6	0.135531	-20.2952	-36.5819	-32.3244
 209	1	6	0.17765	-19.5477	-29.3422	-28.9706
 210	1	9	0.046541	-20.7585	-32.5447	-28.5698
 211	1	9	0.045238	-19.3452	-31.5429	-28.2199
 212	1	9	0.051941	-19.2559	-32.7639	-29.4946
 213	1	9	0.087961	-19.9659	-27.0647	-29.3756
 214	1	9	0.066782	-21.3616	-26.6261	-30.366
 215	1	9	0.075908	-19.7419	-26.7238	-31.0953
 216	1	9	0.105172	-22.0363	-31.7787	-33.7591
 217	1	9	0.115625	-22.4775	-30.126	-34.1055
 218	1	9	0.140296	-23.4961	-31.0857	-33.0194
 219	1	1	0.486064	-27.2249	-43.7559	-41.2154
 220	1	2	0.047133	-28.1111	-44.7	-40.697
 221	1	3	0.001076	-29.4533	-44.2835	-41.1813
 222	1	2	0.034038	-27.849	-42.8146	-42.0328
 223	1	3	0.050122	-29.2903	-43.1751	-41.9863
 224	1	5	-0.383076	-27.8754	-45.6024	-39.9119
 225	1	5	-0.380811	-27.3665	-41.8162	-42.5435
 226	1	3	-0.001248	-30.725	-44.7587	-40.8301
 227	1	3	-0.036565	-30.3907	-42.5178	-42.5347
 228	1	3	-0.208842	-31.6802	-42.9702	-42.1823
 229	1	3	-0.065319	-31.8795	-44.0514	-41.2739
 230	1	6	0.153391	-30.8021	-45.5974	-40.1393
 231	1	6	0.155343	-30.2498	-41.6429	-43.1668
 232	1	6	0.174191	-32.5177	-42.416	-42.5883
 233	1	7	-0.106637	-33.2911	-44.3931	-40.6817
 234	1	7	0.445763	-34.2997	-43.1836	-40.7561
 235	1	8	-0.144255	-34.7524	-42.9223	-42.0038
 236	1	8	-0.136881	-33.7404	-42.0459	-40.2776
 237	1	8	-0.144092	-35.3984	-43.4091	-40.005
 238	1	7	0.367264	-33.866	-45.6141	-41.4944
 239	1	8	-0.12104	-35.1742	-45.8625	-41.2499
 240	1	8	-0.122614	-33.1915	-46.7542	-41.2265
 241	1	8	-0.112321	-33.7515	-45.4125	-42.827
 242	1	3	-0.021957	-33.1174	-44.6844	-39.16
 243	1	3	-0.054241	-32.1872	-43.9021	-38.4349
 244	1	3	-0.111709	-31.864	-44.2784	-37.1343
 245	1	3	-0.087244	-33.8105	-45.7156	-38.4582
 246	1	3	-0.118951	-33.5266	-46.0142	-37.1033
 247	1	3	-0.044875	-32.513	-45.2889	-36.4662
 248	1	2	0.461883	-31.825	-45.4926	-35.1563
 249	1	1	-0.007433	-30.7125	-44.6528	-35.1934
 250	1	2	0.491356	-30.6961	-43.8644	-36.3404
 251	1	3	-0.019445	-29.5617	-44.7619	-34.3548
 252	1	3	-0.186861	-28.9255	-46.0158	-34.2594
 253	1	3	-0.068374	-27.65	-46.1296	-33.6945
 254	1	3	-0.009193	-28.9211	-43.6056	-33.8438
 255	1	3	0.220761	-27.5698	-43.6993	-33.4219
 256	1	3	-0.402098	-26.9619	-44.9703	-33.3148
 257	1	6	0.148422	-29.4095	-46.9062	-34.6525
 258	1	6	0.146291	-27.1656	-47.1073	-33.6304
 259	1	6	0.158981	-34.021	-46.8326	-36.5915
 260	1	6	0.141813	-34.5578	-46.3231	-38.9604
 261	1	6	0.143633	-31.6273	-43.1022	-38.9006
 262	1	5	-0.474465	-29.798	-43.1634	-36.7698
 263	1	5	-0.469737	-32.1308	-46.3045	-34.2994
 264	1	7	-0.37887	-29.6878	-42.2779	-33.7498
 265	1	9	0.115886	-29.6221	-41.6993	-34.6825
 266	1	9	0.123845	-29.3113	-41.6425	-32.9416
 267	1	9	0.138418	-30.7506	-42.4458	-33.5365
 268	1	6	0.21348	-25.9381	-45.0551	-32.9608
 269	1	3	-0.004194	-15.8354	-48.5818	-45.2619
 270	1	3	-0.097141	-16.8088	-47.9603	-44.4347
 271	1	3	-0.172015	-16.3734	-47.34	-43.227
 272	1	5	-0.377994	-13.314	-49.9484	-46.4855
 273	1	3	0.033493	-14.5047	-48.614	-44.843
 274	1	3	-0.063739	-15.0242	-47.3808	-42.8197
 275	1	5	-0.398381	-12.0367	-48.1095	-42.4185
 276	1	3	0.032144	-14.1151	-48.0501	-43.6443
 277	1	2	0.032313	-13.343	-49.331	-45.4331
 278	1	1	0.461698	-12.3269	-49.1837	-44.4915
 279	1	2	0.091945	-12.6973	-48.3992	-43.4028
 280	1	3	-0.10563	-19.3668	-44.4797	-44.0059
 281	1	7	-0.099376	-18.3294	-48.1712	-44.6874
 282	1	3	-0.043296	-19.1217	-46.9391	-44.1609
 283	1	3	-0.073043	-18.6934	-45.6218	-44.4916
 284	1	3	-0.117827	-20.4972	-44.6779	-43.2033
 285	1	3	-0.037562	-20.2944	-47.0866	-43.3773
 286	1	3	-0.083705	-20.9536	-45.9453	-42.9193
 287	1	7	0.396	-18.7065	-48.3207	-46.2115
 288	1	7	0.310495	-18.6729	-49.512	-43.9244
 289	1	8	-0.130298	-18.3269	-49.4997	-46.7545
 290	1	8	-0.128745	-18.1439	-47.34	-46.9514
 291	1	8	-0.120019	-20.0403	-48.2314	-46.4072
 292	1	8	-0.104287	-17.794	-50.4984	-44.2168
 293	1	8	-0.095507	-19.894	-50.0075	-44.228
 294	1	8	-0.104872	-18.6185	-49.3455	-42.5818
 295	1	2	0.456145	-22.1699	-45.8374	-42.0776
 296	1	2	0.550902	-21.3981	-43.7062	-42.5244
 297	1	1	0.015704	-22.3741	-44.4764	-41.8921
 298	1	5	-0.456801	-22.8198	-46.7666	-41.6289
 299	1	5	-0.487703	-21.2443	-42.4977	-42.4898
 300	1	3	-0.116566	-23.4653	-43.9592	-41.1281
 301	1	3	-0.050109	-24.7982	-44.0746	-41.6089
 302	1	3	0.154929	-25.8727	-43.64	-40.7909
 303	1	3	0.041555	-23.2158	-43.3882	-39.8567
 304	1	3	-0.223109	-24.2913	-42.9414	-39.0784
 305	1	3	-0.080449	-25.6118	-43.065	-39.528
 306	1	7	-0.108008	-21.8123	-43.2393	-39.2784
 307	1	7	-0.182228	-26.7338	-42.5679	-38.622
 308	1	7	-0.345523	-25.0802	-44.6883	-42.9881
 309	1	6	0.155183	-16.0903	-49.1214	-46.1678
 310	1	6	0.172904	-17.098	-46.9033	-42.5462
 311	1	6	0.158028	-14.7023	-46.9689	-41.8663
 312	1	6	0.153129	-19.0192	-43.4738	-44.241
 313	1	6	0.142914	-17.8104	-45.4815	-45.1115
 314	1	6	0.135531	-20.7109	-48.0499	-43.1077
 315	1	6	0.17765	-24.0965	-42.4984	-38.1067
 316	1	9	0.046541	-21.1869	-44.114	-39.492
 317	1	9	0.045238	-21.8355	-43.1245	-38.1877
 318	1	9	0.051941	-21.3132	-42.351	-39.6922
 319	1	9	0.087961	-27.3762	-41.8363	-39.1329
 320	1	9	0.066782	-26.3418	-42.0764	-37.7282
 321	1	9	0.075908	-27.3686	-43.3969	-38.2729
 322	1	9	0.105172	-24.2475	-44.5466	-43.6845
 323	1	9	0.115625	-25.9441	-44.2337	-43.4831
 324	1	9	0.140296	-25.2657	-45.7697	-42.9046
 325	1	3	-0.004194	-0.1882	-45.0216	-45.7997
 326	1	3	-0.097141	-1.2816	-45.7171	-45.2224
 327	1	3	-0.172015	-1.01217	-46.8871	-44.4535
 328	1	5	-0.377994	2.58239	-43.7972	-46.4752
 329	1	3	0.033493	1.10829	-45.4751	-45.5376
 330	1	3	-0.063739	0.300086	-47.3298	-44.2056
 331	1	5	-0.398381	3.35579	-47.4433	-43.7147
 332	1	3	0.032144	1.34494	-46.5778	-44.7402
 333	1	2	0.032313	2.40036	-44.8002	-45.8054
 334	1	1	0.461698	3.32601	-45.5148	-45.0559
 335	1	2	0.091945	2.79192	-46.636	-44.4327
 336	1	3	-0.10563	-4.33556	-48.2973	-46.8336
 337	1	7	-0.099376	-2.72855	-45.1471	-45.233
 338	1	3	-0.043296	-3.70746	-46.3387	-45.4487
 339	1	3	-0.073043	-3.45522	-47.2411	-46.5208
 340	1	3	-0.117827	-5.47471	-48.4485	-46.0398
 341	1	3	-0.037562	-4.86141	-46.55	-44.6495
 342	1	3	-0.083705	-5.71227	-47.6171	-44.9647
 343	1	7	0.396	-3.01808	-44.1086	-46.3914
 344	1	7	0.310495	-2.88532	-44.4195	-43.8402
 345	1	8	-0.130298	-2.59939	-44.5668	-47.5945
 346	1	8	-0.128745	-2.42469	-42.907	-46.2067
 347	1	8	-0.120019	-4.34361	-43.8589	-46.5146
 348	1	8	-0.104287	-2.804	-45.2929	-42.8112
 349	1	8	-0.095507	-4.05469	-43.7534	-43.7032
 350	1	8	-0.104872	-1.89571	-43.5163	-43.6344
 351	1	2	0.456145	-6.96959	-48.0561	-44.3101
 352	1	2	0.550902	-6.59359	-49.4221	-46.1363
 353	1	1	0.015704	-7.44598	-49.1093	-45.0818
 354	1	5	-0.456801	-7.42619	-47.621	-43.2673
 355	1	5	-0.487703	-6.69478	-50.3149	-46.9619
 356	1	3	-0.116566	-8.65468	-49.8075	-44.7917
 357	1	3	-0.050109	-9.90994	-49.1646	-44.9326
 358	1	3	0.154929	-11.0827	-49.8564	-44.5461
 359	1	3	0.041555	-8.58706	-51.1283	-44.2953
 360	1	3	-0.223109	-9.76594	-51.8203	-43.9866
 361	1	3	-0.080449	-11.0132	-51.1974	-44.1041
 362	1	7	-0.108008	-7.25928	-51.8358	-44.0557
 363	1	7	-0.182228	-12.2606	-51.9768	-43.6998
 364	1	7	-0.345523	-9.99467	-47.7238	-45.4569
 365	1	6	0.155183	-0.304543	-44.0921	-46.3469
 366	1	6	0.172904	-1.82927	-47.4231	-43.9726
 367	1	6	0.158028	0.50863	-48.1716	-43.546
 368	1	6	0.153129	-4.14415	-48.9656	-47.6714
 369	1	6	0.142914	-2.57263	-47.1079	-47.1411
 370	1	6	0.135531	-5.12496	-45.9082	-43.8149
 371	1	6	0.17765	-9.70569	-52.8408	-43.6206
 372	1	9	0.046541	-7.37896	-52.7024	-43.3915
 373	1	9	0.045238	-6.52912	-51.1729	-43.5849
 374	1	9	0.051941	-6.83186	-52.2038	-45.0026
 375	1	9	0.087961	-12.9507	-52.0874	-44.5516
 376	1	9	0.066782	-12.7944	-51.4767	-42.8831
 377	1	9	0.075908	-12.0151	-52.9877	-43.3516
 378	1	9	0.105172	-9.85615	-47.0057	-44.6365
 379	1	9	0.115625	-10.953	-47.5024	-45.9406
 380	1	9	0.140296	-9.23103	-47.5177	-46.216
 381	1	3	-0.004194	8.70034	-37.5217	-36.4035
 382	1	3	-0.097141	8.48946	-38.785	-37.0324
 383	1	3	-0.172015	9.62949	-39.6137	-37.2354
 384	1	5	-0.377994	9.81009	-34.8589	-35.2467
 385	1	3	0.033493	9.99922	-37.1372	-36.0352
 386	1	3	-0.063739	10.9259	-39.2226	-36.8211
 387	1	5	-0.398381	13.4453	-37.6998	-35.7422
 388	1	3	0.032144	11.0841	-37.968	-36.2168
 389	1	2	0.032313	10.4844	-35.8529	-35.4613
 390	1	1	0.461698	11.8596	-36.0091	-35.2974
 391	1	2	0.091945	12.3049	-37.2634	-35.7288
 392	1	3	-0.10563	7.46993	-39.4109	-41.328
 393	1	7	-0.099376	7.07354	-39.3187	-37.4485
 394	1	3	-0.043296	7.12976	-39.8886	-38.9138
 395	1	3	-0.073043	7.5262	-39.0227	-39.9698
 396	1	3	-0.117827	7.07751	-40.7181	-41.626
 397	1	3	-0.037562	6.75259	-41.2201	-39.2686
 398	1	3	-0.083705	6.76785	-41.6087	-40.6183
 399	1	7	0.396	5.95095	-38.1924	-37.4316
 400	1	7	0.310495	6.67332	-40.4163	-36.3848
 401	1	8	-0.130298	6.32125	-37.0885	-38.1193
 402	1	8	-0.128745	5.62295	-37.7586	-36.1926
 403	1	8	-0.120019	4.79957	-38.6154	-38.0003
 404	1	8	-0.104287	6.76708	-39.9511	-35.1181
 405	1	8	-0.095507	7.4887	-41.4941	-36.4319
 406	1	8	-0.104872	5.40658	-40.8655	-36.5499
 407	1	2	0.456145	6.46166	-42.9244	-41.2528
 408	1	2	0.550902	6.9245	-41.4176	-42.9334
 409	1	1	0.015704	6.56144	-42.7203	-42.6239
 410	1	5	-0.456801	6.216	-43.9671	-40.6697
 411	1	5	-0.487703	7.09025	-40.9298	-44.0384
 412	1	3	-0.116566	6.27242	-43.7194	-43.6073
 413	1	3	-0.050109	4.92889	-44.0925	-43.8516
 414	1	3	0.154929	4.65197	-45.0814	-44.8328
 415	1	3	0.041555	7.31888	-44.3344	-44.3335
 416	1	3	-0.223109	7.01965	-45.3069	-45.3015
 417	1	3	-0.080449	5.69481	-45.6829	-45.5646
 418	1	7	-0.108008	8.78079	-43.977	-44.0951
 419	1	7	-0.182228	5.41342	-46.7287	-46.6415
 420	1	7	-0.345523	3.80692	-43.4355	-43.0305
 421	1	6	0.155183	7.89263	-36.8249	-36.2031
 422	1	6	0.172904	9.51154	-40.5814	-37.7141
 423	1	6	0.158028	11.7874	-39.8683	-36.9753
 424	1	6	0.153129	7.73401	-38.7139	-42.1224
 425	1	6	0.142914	7.8577	-38.0116	-39.7453
 426	1	6	0.135531	6.44124	-41.9572	-38.5384
 427	1	6	0.17765	7.82888	-45.7729	-45.8571
 428	1	9	0.046541	8.9938	-42.9469	-44.4186
 429	1	9	0.045238	9.45433	-44.6396	-44.6537
 430	1	9	0.051941	9.04296	-44.0667	-43.0369
 431	1	9	0.087961	4.78463	-46.316	-47.4379
 432	1	9	0.066782	4.90782	-47.6086	-46.2246
 433	1	9	0.075908	6.33955	-47.0818	-47.1114
 434	1	9	0.105172	2.79526	-43.6454	-43.39
 435	1	9	0.115625	3.9014	-42.3413	-43.0377
 436	1	9	0.140296	3.8421	-43.7726	-41.9854
 437	1	3	-0.004194	16.7057	-29.3803	-25.6264
 438	1	3	-0.097141	15.3087	-29.6811	-25.5394
 439	1	3	-0.172015	14.843	-30.1847	-24.287
 440	1	5	-0.377994	19.7861	-28.9019	-25.1295
 441	1	3	0.033493	17.5228	-29.4966	-24.4863
 442	1	3	-0.063739	15.6753	-30.2947	-23.159
 443	1	5	-0.398381	17.955	-30.2039	-21.0776
 444	1	3	0.032144	17.0058	-29.9078	-23.278
 445	1	2	0.032313	18.9764	-29.2218	-24.2766
 446	1	1	0.461698	19.2044	-29.4286	-22.9148
 447	1	2	0.091945	18.0691	-29.8724	-22.2461
 448	1	3	-0.10563	15.4266	-32.8621	-28.425
 449	1	7	-0.099376	14.3309	-29.4781	-26.7666
 450	1	3	-0.043296	14.4782	-30.66	-27.7805
 451	1	3	-0.073043	15.2909	-31.7984	-27.5029
 452	1	3	-0.117827	14.7029	-32.8055	-29.6232
 453	1	3	-0.037562	13.7678	-30.6462	-29.0119
 454	1	3	-0.083705	13.8924	-31.7274	-29.8954
 455	1	7	0.396	14.6956	-28.1082	-27.4807
 456	1	7	0.310495	12.8095	-29.431	-26.2935
 457	1	8	-0.130298	13.7727	-27.6333	-28.3461
 458	1	8	-0.128745	14.8938	-27.1275	-26.5744
 459	1	8	-0.120019	15.8226	-28.2135	-28.2203
 460	1	8	-0.104287	12.3758	-30.6569	-25.9236
 461	1	8	-0.095507	11.9296	-29.0395	-27.2391
 462	1	8	-0.104872	12.5927	-28.5977	-25.2485
 463	1	2	0.456145	13.3018	-31.9203	-31.245
 464	1	2	0.550902	14.6507	-33.7328	-30.7977
 465	1	1	0.015704	13.8252	-33.1138	-31.7353
 466	1	5	-0.456801	12.5728	-31.1256	-31.8097
 467	1	5	-0.487703	15.2649	-34.7801	-30.9166
 468	1	3	-0.116566	13.6988	-33.5329	-33.1041
 469	1	3	-0.050109	12.8305	-34.593	-33.4856
 470	1	3	0.154929	12.719	-34.9533	-34.8602
 471	1	3	0.041555	14.4698	-32.8616	-34.0815
 472	1	3	-0.223109	14.3351	-33.2131	-35.4346
 473	1	3	-0.080449	13.4661	-34.2415	-35.8323
 474	1	7	-0.108008	15.4525	-31.7511	-33.7061
 475	1	7	-0.182228	13.3696	-34.5803	-37.3177
 476	1	7	-0.345523	12.0548	-35.3424	-32.3936
 477	1	6	0.155183	17.1748	-29.05	-26.5455
 478	1	6	0.172904	13.8136	-30.4799	-24.1308
 479	1	6	0.158028	15.2912	-30.6462	-22.2036
 480	1	6	0.153129	16.071	-33.7148	-28.2117
 481	1	6	0.142914	15.8385	-31.8769	-26.568
 482	1	6	0.135531	13.1287	-29.8205	-29.2985
 483	1	6	0.17765	14.9204	-32.6854	-36.1825
 484	1	9	0.046541	16.102	-31.4774	-34.5443
 485	1	9	0.045238	16.1035	-32.053	-32.8807
 486	1	9	0.051941	14.917	-30.8363	-33.4016
 487	1	9	0.087961	13.9024	-33.8504	-37.9404
 488	1	9	0.066782	12.3284	-34.5916	-37.66
 489	1	9	0.075908	13.8085	-35.5655	-37.526
 490	1	9	0.105172	11.437	-36.1666	-32.7671
 491	1	9	0.115625	11.3785	-34.6619	-31.8598
 492	1	9	0.140296	12.7426	-35.7826	-31.6588
 493	1	3	-0.004194	24.9496	-20.0016	-15.682
 494	1	3	-0.097141	24.3121	-20.8381	-16.6499
 495	1	3	-0.172015	23.7525	-20.2103	-17.7964
 496	1	5	-0.377994	26.0109	-17.6402	-13.9187
 497	1	3	0.033493	24.9631	-18.6088	-15.8786
 498	1	3	-0.063739	23.7733	-18.8121	-17.9725
 499	1	5	-0.398381	23.8315	-15.7566	-17.5821
 500	1	3	0.032144	24.3726	-18.0347	-16.9861
 501	1	2	0.032313	25.4319	-17.5043	-14.9872
 502	1	1	0.461698	24.9842	-16.324	-15.6045
 503	1	2	0.091945	24.3577	-16.5622	-16.8287
 504	1	3	-0.10563	24.6406	-23.6841	-19.9917
 505	1	7	-0.099376	23.9585	-22.3395	-16.3632
 506	1	3	-0.043296	23.8808	-23.1913	-17.6823
 507	1	3	-0.073043	24.7337	-22.9319	-18.796
 508	1	3	-0.117827	23.7431	-24.7622	-20.0362
 509	1	3	-0.037562	22.9956	-24.2998	-17.7809
 510	1	3	-0.083705	22.9404	-25.0525	-18.956
 511	1	7	0.396	22.565	-22.2759	-15.5937
 512	1	7	0.310495	25.0479	-23.0367	-15.4636
 513	1	8	-0.130298	22.587	-21.3572	-14.5969
 514	1	8	-0.128745	22.1867	-23.4369	-15.0206
 515	1	8	-0.120019	21.5358	-21.9484	-16.4035
 516	1	8	-0.104287	26.2801	-22.7457	-15.9437
 517	1	8	-0.095507	24.9269	-24.3832	-15.4776
 518	1	8	-0.104872	25.004	-22.6728	-14.1574
 519	1	2	0.456145	22.1406	-26.2698	-19.2641
 520	1	2	0.550902	23.5238	-25.8325	-21.0575
 521	1	1	0.015704	22.5678	-26.6946	-20.5112
 522	1	5	-0.456801	21.287	-26.7729	-18.553
 523	1	5	-0.487703	24.1664	-25.9697	-22.0858
 524	1	3	-0.116566	22.126	-27.9309	-21.0846
 525	1	3	-0.050109	20.8712	-28.0293	-21.7401
 526	1	3	0.154929	20.469	-29.2822	-22.275
 527	1	3	0.041555	22.9437	-29.076	-20.9448
 528	1	3	-0.223109	22.5328	-30.3057	-21.4868
 529	1	3	-0.080449	21.3058	-30.4166	-22.1647
 530	1	7	-0.108008	24.2886	-28.9862	-20.2382
 531	1	7	-0.182228	20.888	-31.7611	-22.7618
 532	1	7	-0.345523	19.9642	-26.7986	-21.9052
 533	1	6	0.155183	25.3489	-20.3845	-14.75
 534	1	6	0.172904	23.1971	-20.7992	-18.5196
 535	1	6	0.158028	23.2803	-18.34	-18.8174
 536	1	6	0.153129	25.2962	-23.4796	-20.8342
 537	1	6	0.142914	25.468	-22.1338	-18.7381
 538	1	6	0.135531	22.3639	-24.6194	-16.9622
 539	1	6	0.17765	23.1829	-31.1735	-21.3928
 540	1	9	0.046541	24.9391	-28.2394	-20.7141
 541	1	9	0.045238	24.8298	-29.9397	-20.2618
 542	1	9	0.051941	24.1625	-28.7122	-19.1841
 543	1	9	0.087961	19.9501	-32.119	-22.3327
 544	1	9	0.066782	21.6394	-32.5406	-22.5722
 545	1	9	0.075908	20.7593	-31.6914	-23.8535
 546	1	9	0.105172	19.6073	-26.7069	-22.9337
 547	1	9	0.115625	20.4636	-25.8542	-21.6851
 548	1	9	0.140296	19.0905	-26.8623	-21.2485
 549	1	3	-0.004194	33.719	-8.73965	-14.313
 550	1	3	-0.097141	32.3647	-8.41054	-14.6063
 551	1	3	-0.172015	31.4438	-8.29546	-13.5183
 552	1	5	-0.377994	36.4672	-9.31726	-12.9469
 553	1	3	0.033493	34.1011	-8.8658	-12.9592
 554	1	3	-0.063739	31.8566	-8.43155	-12.1701
 555	1	5	-0.398381	33.4535	-8.63893	-9.4873
 556	1	3	0.032144	33.2024	-8.69972	-11.9141
 557	1	2	0.032313	35.4254	-9.14538	-12.3366
 558	1	1	0.461698	35.231	-9.04326	-10.9423
 559	1	2	0.091945	33.9096	-8.80304	-10.6067
 560	1	3	-0.10563	28.1702	-8.68945	-17.0739
 561	1	7	-0.099376	31.9003	-8.10307	-16.0656
 562	1	3	-0.043296	30.4721	-8.7105	-16.21
 563	1	3	-0.073043	29.4185	-8.05466	-16.9026
 564	1	3	-0.117827	27.962	-9.94145	-16.476
 565	1	3	-0.037562	30.247	-10.0387	-15.7321
 566	1	3	-0.083705	28.9763	-10.6138	-15.8251
 567	1	7	0.396	32.7701	-8.80864	-17.19
 568	1	7	0.310495	32.0246	-6.53088	-16.2588
 569	1	8	-0.130298	32.9597	-10.109	-16.897
 570	1	8	-0.128745	34.0048	-8.27991	-17.384
 571	1	8	-0.120019	32.1545	-8.81382	-18.4002
 572	1	8	-0.104287	31.7487	-6.10703	-17.5093
 573	1	8	-0.095507	33.2861	-6.10427	-15.9932
 574	1	8	-0.104872	31.2013	-5.80908	-15.464
 575	1	2	0.456145	28.4178	-11.8756	-15.2423
 576	1	2	0.550902	26.7181	-10.751	-16.3466
 577	1	1	0.015704	27.0786	-11.8587	-15.5961
 578	1	5	-0.456801	28.9972	-12.7605	-14.6286
 579	1	5	-0.487703	25.6054	-10.4724	-16.7627
 580	1	3	-0.116566	26.1342	-12.7915	-15.0776
 581	1	3	-0.050109	25.9614	-14.0614	-15.6794
 582	1	3	0.154929	25.1026	-15.0075	-15.0614
 583	1	3	0.041555	25.3575	-12.4039	-13.9631
 584	1	3	-0.223109	24.4122	-13.2974	-13.4455
 585	1	3	-0.080449	24.3228	-14.6087	-13.9474
 586	1	7	-0.108008	25.434	-10.9978	-13.3793
 587	1	7	-0.182228	23.3779	-15.6004	-13.2906
 588	1	7	-0.345523	26.6735	-14.3355	-17.0159
 589	1	6	0.155183	34.4693	-8.84628	-15.0874
 590	1	6	0.172904	30.4056	-8.03212	-13.7144
 591	1	6	0.158028	31.1588	-8.2869	-11.3471
 592	1	6	0.153129	27.3506	-8.18113	-17.5856
 593	1	6	0.142914	29.5447	-7.05755	-17.306
 594	1	6	0.135531	31.0391	-10.6101	-15.2371
 595	1	6	0.17765	23.7861	-12.9961	-12.6138
 596	1	9	0.046541	26.4746	-10.685	-13.2055
 597	1	9	0.045238	24.9134	-10.9261	-12.4176
 598	1	9	0.051941	24.9637	-10.2851	-14.0581
 599	1	9	0.087961	23.9289	-16.4007	-12.8005
 600	1	9	0.066782	22.7083	-16.0592	-14.0344
 601	1	9	0.075908	22.7532	-15.1268	-12.528
 602	1	9	0.105172	26.2154	-13.7314	-17.8114
 603	1	9	0.115625	26.6334	-15.3802	-17.3491
 604	1	9	0.140296	27.7477	-14.0835	-16.9772
 605	1	1	0.486064	36.6721	1.11572	-2.06659
 606	1	2	0.047133	36.9812	-0.191703	-2.49957
 607	1	3	0.001076	38.1323	0.0326246	-3.3894
 608	1	2	0.034038	37.5469	2.1142	-2.54006
 609	1	3	0.050122	38.5142	1.35784	-3.35734
 610	1	5	-0.383076	36.4789	-1.29154	-2.24826
 611	1	5	-0.380811	37.4618	3.33106	-2.40015
 612	1	3	-0.001248	38.779	-0.858943	-4.2482
 613	1	3	-0.036565	39.6214	1.82056	-4.05548
 614	1	3	-0.208842	40.3206	0.909782	-4.85984
 615	1	3	-0.065319	39.9115	-0.439425	-5.01621
 616	1	6	0.153391	38.3371	-1.83767	-4.36867
 617	1	6	0.155343	39.8914	2.87308	-4.044
 618	1	6	0.174191	41.1254	1.34036	-5.4403
 619	1	7	-0.106637	40.5803	-1.32477	-6.11925
 620	1	7	0.445763	42.1567	-1.34828	-6.00003
 621	1	8	-0.144255	42.735	-2.05972	-6.9978
 622	1	8	-0.136881	42.5063	-1.99978	-4.86105
 623	1	8	-0.144092	42.7213	-0.0931931	-5.99986
 624	1	7	0.367264	40.1711	-0.636433	-7.47573
 625	1	8	-0.12104	40.8325	-1.1048	-8.52449
 626	1	8	-0.122614	40.3946	0.675706	-7.57159
 627	1	8	-0.112321	38.8545	-0.765558	-7.70902
 628	1	3	-0.021957	40.0717	-2.80294	-6.1134