pySIMM System Object

2052 atoms
2246 bonds
3944 angles
5964 dihedrals
624 impropers

9 atom types
11 bond types
18 angle types
7 dihedral types
4 improper types

-162.550134 162.550134 xlo xhi
-162.550134 162.550134 ylo yhi
-162.550134 162.550134 zlo zhi

Masses

   1	14.01	# n
   2	12.01	# c
   3	12.01	# ca
   4	1.008	# hn
   5	16.0	# o
   6	1.008	# ha
   7	12.01	# c3
   8	19.0	# f
   9	1.008	# hc

Pair Coeffs

   1	0.17	3.249998523775958	# n
   2	0.086	3.3996695084235347	# c
   3	0.086	3.3996695084235347	# ca
   4	0.0157	1.069078461768407	# hn
   5	0.21	2.959921901149463	# o
   6	0.015	2.59964245953351	# ha
   7	0.1094	3.3996695084235347	# c3
   8	0.061	3.1181455134911875	# f
   9	0.0157	2.649532787749369	# hc

Bond Coeffs

   1	345.8	1.086	# ca,ha
   2	637.7	1.2183	# c,o
   3	321.0	1.5156	# c3,ca
   4	300.9	1.5375	# c3,c3
   5	384.2	1.4121	# ca,n
   6	330.6	1.0969	# c3,hc
   7	403.2	1.0129	# hn,n
   8	356.9	1.3497	# c3,f
   9	461.1	1.3984	# ca,ca
  10	427.6	1.3789	# c,n
  11	345.9	1.4906	# c,ca

Angle Coeffs

   1	66.11	109.24	# c3,c3,f
   2	46.8	110.47	# ca,c3,hc
   3	39.4	107.58	# hc,c3,hc
   4	63.82	123.71	# c,n,ca
   5	66.62	120.02	# ca,ca,ca
   6	63.53	120.77	# c3,ca,ca
   7	62.86	111.51	# c3,c3,c3
   8	63.74	127.08	# c,n,c
   9	48.33	117.55	# c,n,hn
  10	64.28	120.33	# c,ca,ca
  11	48.18	119.88	# ca,ca,ha
  12	68.72	122.6	# ca,c,o
  13	63.15	112.07	# c3,c3,ca
  14	70.89	107.36	# f,c3,f
  15	67.87	120.19	# ca,ca,n
  16	63.56	112.24	# ca,c3,ca
  17	67.68	115.25	# ca,c,n
  18	74.22	123.05	# n,c,o

Dihedral Coeffs

   1	2	2.5	2	180	2.0	1	0	# hn,n,c,o
   2	1	3.625	2	180	# X,ca,ca,X
   3	1	0.15555555555555556	3	0	# X,c3,c3,X
   4	1	0.0	2	0	# X,c3,ca,X
   5	1	1.0	2	180	# X,c,ca,X
   6	1	2.5	2	180	# X,c,n,X
   7	1	0.45	2	180	# X,ca,n,X

Improper Coeffs

   1	1.1	-1	2	# n,X,X,hn
   2	1.1	-1	2	# ca,X,X,ha
   3	10.5	-1	2	# c,X,X,o
   4	1.1	-1	2	# ca,ca,ca,c3

Atoms

   1	1	1	0.486064	-46.5105	-7.25531	-16.0784
   2	1	2	0.047133	-45.6034	-6.92804	-17.0807
   3	1	3	0.001076	-44.4227	-7.78858	-16.8324
   4	1	2	0.034038	-46.0382	-8.24343	-15.2199
   5	1	3	0.050122	-44.7049	-8.58951	-15.7473
   6	1	5	-0.383076	-45.823	-6.29769	-18.0974
   7	1	5	-0.380811	-46.6141	-8.81078	-14.3065
   8	1	3	-0.001248	-43.2405	-7.93374	-17.5636
   9	1	3	-0.036565	-43.8525	-9.61421	-15.3523
  10	1	3	-0.208842	-42.6874	-9.81642	-16.104
  11	1	3	-0.065319	-42.3485	-8.97701	-17.2036
  12	1	6	0.153391	-43.0558	-7.28286	-18.4158
  13	1	6	0.155343	-44.1089	-10.2582	-14.5142
  14	1	6	0.174191	-42.0727	-10.6511	-15.7965
  15	1	7	-0.106637	-41.0984	-9.22757	-18.0806
  16	1	7	0.445763	-41.6467	-9.79328	-19.4481
  17	1	8	-0.144255	-42.5477	-10.7731	-19.2281
  18	1	8	-0.136881	-40.6925	-10.3235	-20.2454
  19	1	8	-0.144092	-42.3032	-8.861	-20.1794
  20	1	7	0.367264	-40.1204	-10.285	-17.4501
  21	1	8	-0.12104	-38.9769	-10.3911	-18.1534
  22	1	8	-0.122614	-40.648	-11.5315	-17.3891
  23	1	8	-0.112321	-39.7505	-9.93068	-16.1995
  24	1	3	-0.021957	-40.3353	-7.88026	-18.2005
  25	1	3	-0.054241	-40.1279	-7.10148	-17.0316
  26	1	3	-0.111709	-39.4912	-5.862	-17.1301
  27	1	3	-0.087244	-39.8706	-7.36928	-19.4411
  28	1	3	-0.118951	-39.2548	-6.10859	-19.521
  29	1	3	-0.044875	-39.0723	-5.37813	-18.3457
  30	1	2	0.461883	-38.4789	-4.03974	-18.1293
  31	1	1	-0.007433	-38.5652	-3.79994	-16.7624
  32	1	2	0.491356	-39.1646	-4.85341	-16.0841
  33	1	3	-0.019445	-38.1153	-2.59734	-16.1486
  34	1	3	-0.186861	-36.972	-2.62813	-15.3271
  35	1	3	-0.068374	-36.4389	-1.44697	-14.7892
  36	1	3	-0.009193	-38.7658	-1.36883	-16.3996
  37	1	3	0.220761	-38.227	-0.188848	-15.8522
  38	1	3	-0.402098	-37.0648	-0.221235	-15.0635
  39	1	6	0.148422	-36.4663	-3.57178	-15.133
  40	1	6	0.146291	-35.5385	-1.48785	-14.1782
  41	1	6	0.158981	-38.9524	-5.70222	-20.4758
  42	1	6	0.141813	-39.9953	-7.92739	-20.3625
  43	1	6	0.143633	-40.472	-7.4427	-16.0637
  44	1	5	-0.474465	-39.3387	-4.97813	-14.8824
  45	1	5	-0.469737	-38.0458	-3.3159	-19.0059
  46	1	7	-0.37887	-40.0262	-1.29062	-17.2584
  47	1	9	0.115886	-40.5854	-0.365646	-17.0632
  48	1	9	0.123845	-40.707	-2.13134	-17.0674
  49	1	9	0.138418	-39.7704	-1.3018	-18.3256
  50	1	6	0.21348	-36.659	0.702622	-14.6635
  51	1	1	0.486064	-50.7238	3.99061	-6.47108
  52	1	2	0.047133	-51.4709	4.18587	-7.63355
  53	1	3	0.001076	-51.1977	2.98651	-8.47382
  54	1	2	0.034038	-49.9441	2.82866	-6.51759
  55	1	3	0.050122	-50.2871	2.18443	-7.81483
  56	1	5	-0.383076	-52.3067	5.04549	-7.85964
  57	1	5	-0.380811	-49.22	2.35721	-5.65141
  58	1	3	-0.001248	-51.8484	2.5562	-9.63621
  59	1	3	-0.036565	-49.9393	0.922729	-8.31341
  60	1	3	-0.208842	-50.6051	0.461741	-9.47054
  61	1	3	-0.065319	-51.5895	1.24923	-10.1336
  62	1	6	0.153391	-52.6177	3.19845	-10.0517
  63	1	6	0.155343	-49.2353	0.289537	-7.77637
  64	1	6	0.174191	-50.3882	-0.548036	-9.81631
  65	1	7	-0.106637	-52.452	0.607211	-11.2606
  66	1	7	0.445763	-53.6118	-0.181815	-10.5484
  67	1	8	-0.144255	-53.1271	-1.206	-9.81459
  68	1	8	-0.136881	-54.4899	-0.708764	-11.43
  69	1	8	-0.144092	-54.3222	0.590378	-9.68742
  70	1	7	0.367264	-53.082	1.66434	-12.2435
  71	1	8	-0.12104	-52.1602	2.5717	-12.6305
  72	1	8	-0.122614	-53.5553	1.08746	-13.3723
  73	1	8	-0.112321	-54.1085	2.35746	-11.7096
  74	1	3	-0.021957	-51.5438	-0.291543	-12.1454
  75	1	3	-0.054241	-51.8183	-1.65343	-12.4578
  76	1	3	-0.111709	-50.9547	-2.32912	-13.335
  77	1	3	-0.087244	-50.3912	0.309056	-12.7202
  78	1	3	-0.118951	-49.5726	-0.370142	-13.6379
  79	1	3	-0.044875	-49.8887	-1.69506	-13.9355
  80	1	2	0.461883	-49.2133	-2.65264	-14.8465
  81	1	1	-0.007433	-49.8595	-3.8689	-14.6536
  82	1	2	0.491356	-50.9638	-3.73839	-13.8125
  83	1	3	-0.019445	-49.4806	-5.08733	-15.2975
  84	1	3	-0.186861	-50.4852	-5.81331	-15.9658
  85	1	3	-0.068374	-50.1816	-6.97934	-16.6749
  86	1	3	-0.009193	-48.1448	-5.58149	-15.294
  87	1	3	0.220761	-47.8389	-6.75212	-16.0323
  88	1	3	-0.402098	-48.8582	-7.43212	-16.73
  89	1	6	0.148422	-51.5161	-5.46729	-15.9549
  90	1	6	0.146291	-50.9691	-7.51414	-17.2022
  91	1	6	0.158981	-48.7169	0.114274	-14.1002
  92	1	6	0.141813	-50.1251	1.33283	-12.4707
  93	1	6	0.143633	-52.6699	-2.19168	-12.0558
  94	1	5	-0.474465	-51.7848	-4.58848	-13.5099
  95	1	5	-0.469737	-48.3128	-2.38646	-15.6241
  96	1	7	-0.37887	-47.0316	-4.86588	-14.5145
  97	1	9	0.115886	-47.4177	-4.32421	-13.6423
  98	1	9	0.123845	-46.5081	-4.14812	-15.1601
  99	1	9	0.138418	-46.2686	-5.54407	-14.1156
 100	1	6	0.21348	-48.6237	-8.3228	-17.3044
 101	1	3	-0.004194	-42.2453	7.88137	2.24583
 102	1	3	-0.097141	-43.6383	7.7311	2.02539
 103	1	3	-0.172015	-44.2774	6.57384	2.56675
 104	1	5	-0.377994	-39.2643	7.4569	2.46928
 105	1	3	0.033493	-41.5378	6.82114	2.8071
 106	1	3	-0.063739	-43.5395	5.5208	3.1512
 107	1	5	-0.398381	-41.3158	3.40769	3.39477
 108	1	3	0.032144	-42.1511	5.64932	3.18066
 109	1	2	0.032313	-40.0779	6.60873	2.79454
 110	1	1	0.461698	-39.8984	5.23752	3.03297
 111	1	2	0.091945	-41.1057	4.60495	3.31749
 112	1	3	-0.10563	-45.2658	5.82179	-1.36941
 113	1	7	-0.099376	-44.4364	8.7035	1.09501
 114	1	3	-0.043296	-45.2121	7.84223	0.0531633
 115	1	3	-0.073043	-44.6071	6.65368	-0.449845
 116	1	3	-0.117827	-46.5483	6.18944	-1.77721
 117	1	3	-0.037562	-46.4695	8.23396	-0.486997
 118	1	3	-0.083705	-47.1161	7.38602	-1.39559
 119	1	7	0.396	-43.486	9.62234	0.228503
 120	1	7	0.310495	-45.371	9.55381	2.03849
 121	1	8	-0.130298	-42.763	10.5016	0.951281
 122	1	8	-0.128745	-42.5899	8.86272	-0.44608
 123	1	8	-0.120019	-44.1501	10.3518	-0.694941
 124	1	8	-0.104287	-46.279	8.75108	2.64914
 125	1	8	-0.095507	-44.6429	10.1532	3.00711
 126	1	8	-0.104872	-46.0555	10.5482	1.42127
 127	1	2	0.456145	-48.4492	7.50272	-2.05441
 128	1	2	0.550902	-47.5307	5.44395	-2.59341
 129	1	1	0.015704	-48.6333	6.28871	-2.71475
 130	1	5	-0.456801	-49.1825	8.47915	-2.03103
 131	1	5	-0.487703	-47.4101	4.28279	-2.95369
 132	1	3	-0.116566	-49.8317	5.87825	-3.37283
 133	1	3	-0.050109	-49.7854	5.46072	-4.72957
 134	1	3	0.154929	-50.8828	4.74216	-5.27117
 135	1	3	0.041555	-51.0092	5.69214	-2.61052
 136	1	3	-0.223109	-52.1302	5.10108	-3.20881
 137	1	3	-0.080449	-52.0647	4.57857	-4.50688
 138	1	7	-0.108008	-51.0779	6.01336	-1.118
 139	1	7	-0.182228	-53.282	3.8107	-5.02014
 140	1	7	-0.345523	-48.528	5.692	-5.5831
 141	1	6	0.155183	-41.66	8.71285	1.87726
 142	1	6	0.172904	-45.3493	6.44081	2.43564
 143	1	6	0.158028	-44.0131	4.58967	3.44533
 144	1	6	0.153129	-44.8073	4.90678	-1.72998
 145	1	6	0.142914	-43.6131	6.35787	-0.123538
 146	1	6	0.135531	-46.9692	9.15173	-0.200461
 147	1	6	0.17765	-53.0365	4.96695	-2.6245
 148	1	9	0.046541	-51.0349	7.09361	-0.939585
 149	1	9	0.045238	-50.2557	5.53699	-0.566718
 150	1	9	0.051941	-52.0136	5.66451	-0.665692
 151	1	9	0.087961	-53.9789	3.56034	-4.20906
 152	1	9	0.066782	-53.0047	2.86515	-5.50254
 153	1	9	0.075908	-53.8428	4.41201	-5.74821
 154	1	9	0.105172	-48.7885	5.99351	-6.60566
 155	1	9	0.115625	-47.9161	4.78043	-5.64448
 156	1	9	0.140296	-47.8949	6.49767	-5.19541
 157	1	1	0.486064	-36.7528	-2.24526	-3.97229
 158	1	2	0.047133	-36.1918	-3.34991	-3.34238
 159	1	3	0.001076	-35.239	-2.8065	-2.34866
 160	1	2	0.034038	-36.2183	-1.04404	-3.50113
 161	1	3	0.050122	-35.2323	-1.43243	-2.44586
 162	1	5	-0.383076	-36.5066	-4.5197	-3.45882
 163	1	5	-0.380811	-36.5704	0.0873495	-3.78991
 164	1	3	-0.001248	-34.5869	-3.48458	-1.31514
 165	1	3	-0.036565	-34.466	-0.661171	-1.56503
 166	1	3	-0.208842	-33.7217	-1.33746	-0.570416
 167	1	3	-0.065319	-33.8427	-2.73984	-0.355915
 168	1	6	0.153391	-34.7557	-4.55548	-1.24628
 169	1	6	0.155343	-34.4726	0.425119	-1.64001
 170	1	6	0.174191	-33.1396	-0.744594	0.133288
 171	1	7	-0.106637	-33.4263	-3.3138	1.04495
 172	1	7	0.445763	-31.8447	-3.38743	1.15061
 173	1	8	-0.144255	-31.4094	-4.05467	2.24064
 174	1	8	-0.136881	-31.2787	-2.1606	1.24916
 175	1	8	-0.144092	-31.2854	-3.99921	0.0806408
 176	1	7	0.367264	-34.0262	-4.73957	1.29995
 177	1	8	-0.12104	-35.3726	-4.74038	1.14524
 178	1	8	-0.122614	-33.7864	-5.17748	2.55677
 179	1	8	-0.112321	-33.4997	-5.65872	0.460562
 180	1	3	-0.021957	-34.0833	-2.36088	2.09073
 181	1	3	-0.054241	-35.4032	-1.8938	1.83348
 182	1	3	-0.111709	-35.8876	-0.786034	2.53021
 183	1	3	-0.087244	-33.3865	-1.8146	3.20539
 184	1	3	-0.118951	-33.9026	-0.706745	3.9118
 185	1	3	-0.044875	-35.1258	-0.164238	3.4933
 186	1	2	0.461883	-35.7236	1.17387	3.75746
 187	1	1	-0.007433	-36.7878	1.27913	2.86943
 188	1	2	0.491356	-37.0352	0.0887489	2.19065
 189	1	3	-0.019445	-37.3141	2.52403	2.40808
 190	1	3	-0.186861	-36.9446	2.88833	1.10402
 191	1	3	-0.068374	-37.466	4.03398	0.505286
 192	1	3	-0.009193	-38.1915	3.36309	3.1506
 193	1	3	0.220761	-38.7915	4.49016	2.50917
 194	1	3	-0.402098	-38.4148	4.79666	1.18639
 195	1	6	0.148422	-36.2751	2.25947	0.524649
 196	1	6	0.146291	-37.1837	4.284	-0.515922
 197	1	6	0.158981	-33.3122	-0.208284	4.67935
 198	1	6	0.141813	-32.4041	-2.17753	3.48656
 199	1	6	0.143633	-35.9869	-2.26883	0.995955
 200	1	5	-0.474465	-37.8666	-0.125607	1.32443
 201	1	5	-0.469737	-35.2024	2.06268	4.41002
 202	1	7	-0.37887	-38.5228	3.00322	4.5959
 203	1	9	0.115886	-39.151	3.74586	5.09684
 204	1	9	0.123845	-37.6098	2.91917	5.19922
 205	1	9	0.138418	-39.0521	2.04087	4.64256
 206	1	6	0.21348	-38.8652	5.63877	0.65926
 207	1	1	0.486064	-46.1801	-7.14434	-10.1593
 208	1	2	0.047133	-45.0345	-6.58827	-10.7217
 209	1	3	0.001076	-44.0928	-7.72387	-10.8844
 210	1	2	0.034038	-46.0871	-8.51865	-9.96998
 211	1	3	0.050122	-44.7244	-8.86909	-10.4432
 212	1	5	-0.383076	-44.852	-5.43112	-11.0643
 213	1	5	-0.380811	-46.9207	-9.27961	-9.50773
 214	1	3	-0.001248	-42.7621	-7.73693	-11.3263
 215	1	3	-0.036565	-44.0826	-10.1052	-10.4864
 216	1	3	-0.208842	-42.7406	-10.1419	-10.9213
 217	1	3	-0.065319	-42.0325	-8.95543	-11.278
 218	1	6	0.153391	-42.2943	-6.80388	-11.6334
 219	1	6	0.155343	-44.6023	-11.0037	-10.1636
 220	1	6	0.174191	-42.256	-11.1105	-10.9188
 221	1	7	-0.106637	-40.5011	-8.9441	-11.5851
 222	1	7	0.445763	-40.3172	-9.12934	-13.1305
 223	1	8	-0.144255	-40.9431	-10.2362	-13.5944
 224	1	8	-0.136881	-39.0186	-9.22928	-13.4945
 225	1	8	-0.144092	-40.8448	-8.08353	-13.7968
 226	1	7	0.367264	-39.7137	-10.1052	-10.87
 227	1	8	-0.12104	-38.3779	-9.94102	-10.9922
 228	1	8	-0.122614	-39.9799	-11.3385	-11.3492
 229	1	8	-0.112321	-39.9828	-10.1462	-9.54932
 230	1	3	-0.021957	-39.8966	-7.59978	-11.0431
 231	1	3	-0.054241	-40.1722	-7.21645	-9.70353
 232	1	3	-0.111709	-39.6597	-6.00988	-9.20787
 233	1	3	-0.087244	-39.0941	-6.71045	-11.824
 234	1	3	-0.118951	-38.5885	-5.49813	-11.3004
 235	1	3	-0.044875	-38.8906	-5.16483	-9.97717
 236	1	2	0.461883	-38.5555	-3.955	-9.15822
 237	1	1	-0.007433	-39.1292	-4.18305	-7.9092
 238	1	2	0.491356	-39.8378	-5.37961	-7.87541
 239	1	3	-0.019445	-39.0563	-3.30604	-6.78263
 240	1	3	-0.186861	-40.2497	-2.70713	-6.34194
 241	1	3	-0.068374	-40.2734	-1.92997	-5.17795
 242	1	3	-0.009193	-37.8576	-3.11128	-6.04546
 243	1	3	0.220761	-37.8853	-2.34852	-4.84299
 244	1	3	-0.402098	-39.1017	-1.7655	-4.42665
 245	1	6	0.148422	-41.1737	-2.86553	-6.89565
 246	1	6	0.146291	-41.206	-1.47661	-4.84985
 247	1	6	0.158981	-37.9973	-4.82282	-11.9163
 248	1	6	0.141813	-38.8535	-6.92291	-12.86
 249	1	6	0.143633	-40.7976	-7.82615	-9.05726
 250	1	5	-0.474465	-40.4892	-5.84219	-6.95502
 251	1	5	-0.469737	-37.9259	-2.97835	-9.53174
 252	1	7	-0.37887	-36.5652	-3.752	-6.55295
 253	1	9	0.115886	-35.6769	-3.47362	-5.97773
 254	1	9	0.123845	-36.3456	-3.451	-7.58493
 255	1	9	0.138418	-36.6474	-4.8452	-6.51164
 256	1	6	0.21348	-39.1253	-1.17451	-3.51789
 257	1	3	-0.004194	-53.4366	-0.55584	-0.574129
 258	1	3	-0.097141	-52.1146	-1.164	-1.6544
 259	1	3	-0.172015	-50.6066	-1.83015	-0.922067
 260	1	5	-0.377994	-55.0797	0.348164	2.38715
 261	1	3	0.033493	-53.2204	-0.635605	1.2441
 262	1	3	-0.063739	-50.4518	-1.94198	0.899294
 263	1	5	-0.398381	-51.4275	-2.0122	4.18624
 264	1	3	0.032144	-51.7771	-1.3171	1.93608
 265	1	2	0.032313	-54.0443	-0.294028	2.42224
 266	1	1	0.461698	-53.4059	-0.859617	3.55396
 267	1	2	0.091945	-52.109	-1.41325	3.37328
 268	1	3	-0.10563	-48.9206	-1.12642	-5.09553
 269	1	7	-0.099376	-52.3444	-1.30543	-3.18252
 270	1	3	-0.043296	-51.037	-1.75365	-3.94384
 271	1	3	-0.073043	-49.9338	-0.863012	-4.14132
 272	1	3	-0.117827	-48.9695	-2.33291	-5.80247
 273	1	3	-0.037562	-50.9559	-3.01368	-4.59781
 274	1	3	-0.083705	-49.9254	-3.27135	-5.50227
 275	1	7	0.396	-53.5401	-2.34019	-3.39555
 276	1	7	0.310495	-52.7867	0.0867091	-3.77641
 277	1	8	-0.130298	-54.6973	-1.94719	-2.83307
 278	1	8	-0.128745	-53.3025	-3.541	-2.82046
 279	1	8	-0.120019	-53.8338	-2.55891	-4.70006
 280	1	8	-0.104287	-52.8233	0.0618878	-5.12769
 281	1	8	-0.095507	-51.9583	1.08922	-3.41878
 282	1	8	-0.104872	-54.0088	0.480579	-3.35993
 283	1	2	0.456145	-49.7825	-4.41342	-6.43162
 284	1	2	0.550902	-48.2108	-2.82017	-6.99225
 285	1	1	0.015704	-48.7885	-4.04268	-7.32786
 286	1	5	-0.456801	-50.4953	-5.40232	-6.45455
 287	1	5	-0.487703	-47.4416	-2.15004	-7.65995
 288	1	3	-0.116566	-48.5692	-4.75081	-8.54769
 289	1	3	-0.050109	-47.4378	-5.58414	-8.71378
 290	1	3	0.154929	-47.3381	-6.37571	-9.89248
 291	1	3	0.041555	-49.5565	-4.68251	-9.55709
 292	1	3	-0.223109	-49.4599	-5.49772	-10.6881
 293	1	3	-0.080449	-48.37	-6.3532	-10.8621
 294	1	7	-0.108008	-50.7697	-3.76787	-9.45221
 295	1	7	-0.182228	-48.3409	-7.21459	-12.1187
 296	1	7	-0.345523	-46.357	-5.59311	-7.61752
 297	1	6	0.155183	-54.3736	-0.184422	-0.981028
 298	1	6	0.172904	-49.8111	-2.24552	-1.56363
 299	1	6	0.158028	-49.5872	-2.4452	1.34708
 300	1	6	0.153129	-48.1454	-0.389614	-5.29674
 301	1	6	0.142914	-49.8802	0.0809602	-3.61195
 302	1	6	0.135531	-51.7118	-3.78235	-4.50386
 303	1	6	0.17765	-50.2506	-5.47534	-11.433
 304	1	9	0.046541	-51.2559	-3.63538	-10.4254
 305	1	9	0.045238	-50.4899	-2.77226	-9.09183
 306	1	9	0.051941	-51.5189	-4.18503	-8.76931
 307	1	9	0.087961	-49.1893	-7.00897	-12.7844
 308	1	9	0.066782	-48.3834	-8.28227	-11.8674
 309	1	9	0.075908	-47.4242	-7.03749	-12.6892
 310	1	9	0.105172	-46.7978	-5.72407	-6.62128
 311	1	9	0.115625	-45.621	-6.39578	-7.72918
 312	1	9	0.140296	-45.8002	-4.64396	-7.61268
 313	1	1	0.486064	-64.4886	-8.69447	2.92562
 314	1	2	0.047133	-63.4216	-7.81249	3.12186
 315	1	3	0.001076	-63.8613	-6.89758	4.2032
 316	1	2	0.034038	-65.5848	-8.39173	3.73382
 317	1	3	0.050122	-65.1335	-7.26353	4.58881
 318	1	5	-0.383076	-62.3669	-7.74377	2.51195
 319	1	5	-0.380811	-66.6946	-8.90041	3.7299
 320	1	3	-0.001248	-63.2202	-5.77888	4.74275
 321	1	3	-0.036565	-65.8097	-6.57446	5.59566
 322	1	3	-0.208842	-65.1697	-5.461	6.17669
 323	1	3	-0.065319	-63.8768	-5.03111	5.75315
 324	1	6	0.153391	-62.2579	-5.48011	4.34778
 325	1	6	0.155343	-66.8174	-6.86725	5.88339
 326	1	6	0.174191	-65.7331	-4.90655	6.91813
 327	1	7	-0.106637	-63.2591	-3.68898	6.23843
 328	1	7	0.445763	-63.7903	-2.60213	5.22521
 329	1	8	-0.144255	-63.1864	-2.72389	4.02852
 330	1	8	-0.136881	-63.5993	-1.33172	5.64588
 331	1	8	-0.144092	-65.1187	-2.71814	4.98483
 332	1	7	0.367264	-63.7004	-3.30212	7.69235
 333	1	8	-0.12104	-62.9255	-2.31663	8.20453
 334	1	8	-0.122614	-64.9722	-2.84789	7.75539
 335	1	8	-0.112321	-63.5867	-4.35738	8.53348
 336	1	3	-0.021957	-61.7037	-3.782	6.29824
 337	1	3	-0.054241	-60.8847	-2.66464	5.99239
 338	1	3	-0.111709	-59.5003	-2.77069	6.1401
 339	1	3	-0.087244	-61.0706	-4.95866	6.79205
 340	1	3	-0.118951	-59.6696	-5.0458	6.94061
 341	1	3	-0.044875	-58.9042	-3.92464	6.60171
 342	1	2	0.461883	-57.4421	-3.67784	6.69573
 343	1	1	-0.007433	-57.2571	-2.36415	6.28563
 344	1	2	0.491356	-58.4462	-1.74949	5.91524
 345	1	3	-0.019445	-55.9798	-1.75237	6.16221
 346	1	3	-0.186861	-55.3173	-1.32699	7.32525
 347	1	3	-0.068374	-54.0494	-0.739724	7.24733
 348	1	3	-0.009193	-55.3609	-1.6207	4.89716
 349	1	3	0.220761	-54.0865	-0.988265	4.80944
 350	1	3	-0.402098	-53.4423	-0.564181	5.9967
 351	1	6	0.148422	-55.7845	-1.46311	8.29517
 352	1	6	0.146291	-53.5365	-0.426335	8.15556
 353	1	6	0.158981	-59.1932	-5.94298	7.32817
 354	1	6	0.141813	-61.6767	-5.81231	7.0866
 355	1	6	0.143633	-61.2852	-1.71907	5.64779
 356	1	5	-0.474465	-58.6209	-0.604226	5.53206
 357	1	5	-0.469737	-56.5949	-4.49219	7.01464
 358	1	7	-0.37887	-56.0511	-2.23241	3.66646
 359	1	9	0.115886	-55.3282	-2.65914	2.96489
 360	1	9	0.123845	-56.6449	-1.47805	3.13322
 361	1	9	0.138418	-56.7378	-3.04665	3.90974
 362	1	6	0.21348	-52.4445	-0.130577	5.94876
 363	1	1	0.486064	-67.431	-18.2282	-4.56494
 364	1	2	0.047133	-68.0301	-18.9505	-3.53324
 365	1	3	0.001076	-66.9088	-19.2569	-2.61124
 366	1	2	0.034038	-66.0404	-18.2326	-4.51377
 367	1	3	0.050122	-65.7342	-18.8249	-3.19494
 368	1	5	-0.383076	-69.2156	-19.0006	-3.25257
 369	1	5	-0.380811	-65.2613	-17.6095	-5.21624
 370	1	3	-0.001248	-66.9751	-19.5927	-1.2566
 371	1	3	-0.036565	-64.5483	-18.7361	-2.46891
 372	1	3	-0.208842	-64.5992	-19.0454	-1.09864
 373	1	3	-0.065319	-65.8108	-19.4342	-0.46015
 374	1	6	0.153391	-67.9453	-19.8478	-0.843291
 375	1	6	0.155343	-63.6494	-18.3328	-2.93063
 376	1	6	0.174191	-63.6982	-18.8839	-0.511321
 377	1	7	-0.106637	-65.8329	-19.5111	1.0919
 378	1	7	0.445763	-67.2765	-19.6437	1.7208
 379	1	8	-0.144255	-68.1361	-18.6955	1.27743
 380	1	8	-0.136881	-67.2299	-19.4956	3.06364
 381	1	8	-0.144092	-67.8599	-20.8395	1.47065
 382	1	7	0.367264	-65.0011	-20.7975	1.48602
 383	1	8	-0.12104	-65.4561	-21.9002	0.843129
 384	1	8	-0.122614	-65.0415	-21.0671	2.8095
 385	1	8	-0.112321	-63.6928	-20.6991	1.15842
 386	1	3	-0.021957	-65.2422	-18.1495	1.58904
 387	1	3	-0.054241	-65.7922	-16.9341	1.09013
 388	1	3	-0.111709	-65.1925	-15.7109	1.42657
 389	1	3	-0.087244	-64.1136	-18.0588	2.45497
 390	1	3	-0.118951	-63.4971	-16.8191	2.74291
 391	1	3	-0.044875	-64.0536	-15.6553	2.19959
 392	1	2	0.461883	-63.6037	-14.2327	2.27332
 393	1	1	-0.007433	-64.5501	-13.505	1.56396
 394	1	2	0.491356	-65.5312	-14.3221	1.01501
 395	1	3	-0.019445	-64.4704	-12.1049	1.2951
 396	1	3	-0.186861	-64.3312	-11.7184	-0.0495969
 397	1	3	-0.068374	-64.284	-10.3715	-0.41254
 398	1	3	-0.009193	-64.5651	-11.1202	2.31441
 399	1	3	0.220761	-64.4754	-9.74248	1.95085
 400	1	3	-0.402098	-64.3412	-9.3931	0.5856
 401	1	6	0.148422	-64.272	-12.4766	-0.829113
 402	1	6	0.146291	-64.1693	-10.0944	-1.4591
 403	1	6	0.158981	-62.6057	-16.7624	3.36493
 404	1	6	0.141813	-63.6668	-18.9489	2.88517
 405	1	6	0.143633	-66.6469	-16.933	0.413056
 406	1	5	-0.474465	-66.4393	-13.9962	0.270822
 407	1	5	-0.469737	-62.5634	-13.8283	2.76387
 408	1	7	-0.37887	-64.7387	-11.5865	3.77043
 409	1	9	0.115886	-65.0791	-10.8086	4.45783
 410	1	9	0.123845	-63.7939	-11.9749	4.17179
 411	1	9	0.138418	-65.4857	-12.3863	3.84311
 412	1	6	0.21348	-64.2451	-8.3503	0.298184
 413	1	3	-0.004194	-68.24	-7.26265	0.653031
 414	1	3	-0.097141	-68.9943	-7.90042	-0.373486
 415	1	3	-0.172015	-69.088	-7.2468	-1.63415
 416	1	5	-0.377994	-66.342	-5.47481	2.36019
 417	1	3	0.033493	-67.5739	-6.05803	0.363867
 418	1	3	-0.063739	-68.4023	-6.04409	-1.9062
 419	1	5	-0.398381	-66.4608	-3.6067	-1.88613
 420	1	3	0.032144	-67.6249	-5.48156	-0.889425
 421	1	2	0.032313	-66.6448	-5.24885	1.20138
 422	1	1	0.461698	-66.12	-4.27125	0.349576
 423	1	2	0.091945	-66.7018	-4.31204	-0.918735
 424	1	3	-0.10563	-67.256	-10.8289	-2.8834
 425	1	7	-0.099376	-69.6441	-9.31594	-0.230307
 426	1	3	-0.043296	-69.1471	-10.1761	-1.42623
 427	1	3	-0.073043	-67.794	-10.0418	-1.84969
 428	1	3	-0.117827	-68.0962	-11.7537	-3.49699
 429	1	3	-0.037562	-69.9531	-11.1687	-2.0469
 430	1	3	-0.083705	-69.4006	-11.9336	-3.08345
 431	1	7	0.396	-69.208	-10.1052	1.06746
 432	1	7	0.310495	-71.207	-9.10712	-0.218519
 433	1	8	-0.130298	-69.6617	-11.3835	1.05936
 434	1	8	-0.128745	-69.6632	-9.52459	2.20342
 435	1	8	-0.120019	-67.8619	-10.1969	1.17093
 436	1	8	-0.104287	-71.6741	-8.74787	-1.43999
 437	1	8	-0.095507	-71.5548	-8.13176	0.653094
 438	1	8	-0.104872	-71.8964	-10.2059	0.163017
 439	1	2	0.456145	-69.9548	-13.1046	-3.81938
 440	1	2	0.550902	-67.7796	-12.7798	-4.51505
 441	1	1	0.015704	-68.9097	-13.5772	-4.60711
 442	1	5	-0.456801	-71.0523	-13.6064	-3.65623
 443	1	5	-0.487703	-66.6921	-12.9453	-5.04314
 444	1	3	-0.116566	-68.888	-14.8621	-5.22833
 445	1	3	-0.050109	-68.2281	-15.9318	-4.58097
 446	1	3	0.154929	-68.1247	-17.1889	-5.23262
 447	1	3	0.041555	-69.451	-15.0547	-6.50632
 448	1	3	-0.223109	-69.3481	-16.3087	-7.13507
 449	1	3	-0.080449	-68.6901	-17.3849	-6.51267
 450	1	7	-0.108008	-70.1508	-13.9078	-7.22295
 451	1	7	-0.182228	-68.6343	-18.7361	-7.21994
 452	1	7	-0.345523	-67.6005	-15.6953	-3.19079
 453	1	6	0.155183	-68.122	-7.69365	1.64295
 454	1	6	0.172904	-69.6489	-7.70941	-2.44337
 455	1	6	0.158028	-68.437	-5.58245	-2.89223
 456	1	6	0.153129	-66.2122	-10.7435	-3.17727
 457	1	6	0.142914	-67.1298	-9.34408	-1.35028
 458	1	6	0.135531	-70.9683	-11.3789	-1.72592
 459	1	6	0.17765	-69.788	-16.4486	-8.12004
 460	1	9	0.046541	-71.0515	-13.6167	-6.69818
 461	1	9	0.045238	-70.4369	-14.1828	-8.25131
 462	1	9	0.051941	-69.4942	-13.0251	-7.29335
 463	1	9	0.087961	-69.2127	-19.4906	-6.66878
 464	1	9	0.066782	-67.6023	-19.0978	-7.31489
 465	1	9	0.075908	-69.054	-18.6803	-8.23245
 466	1	9	0.105172	-67.6301	-16.5737	-2.54036
 467	1	9	0.115625	-68.1251	-14.9295	-2.60861
 468	1	9	0.140296	-66.5525	-15.3779	-3.28372
 469	1	3	-0.004194	-55.1007	-5.08917	1.2835
 470	1	3	-0.097141	-54.9507	-6.46856	1.58834
 471	1	3	-0.172015	-53.697	-7.07465	1.3074
 472	1	5	-0.377994	-55.0114	-2.3866	0.32842
 473	1	3	0.033493	-54.0274	-4.37586	0.74715
 474	1	3	-0.063739	-52.6337	-6.31526	0.761625
 475	1	5	-0.398381	-50.8412	-4.32083	-0.349858
 476	1	3	0.032144	-52.8419	-4.94813	0.511574
 477	1	2	0.032313	-53.9274	-2.96141	0.373738
 478	1	1	0.461698	-52.5089	-2.51039	0.142833
 479	1	2	0.091945	-51.9328	-3.89458	0.0215369
 480	1	3	-0.10563	-58.5207	-6.1226	-0.570106
 481	1	7	-0.099376	-56.1335	-7.19957	2.28848
 482	1	3	-0.043296	-57.4124	-6.65571	1.58727
 483	1	3	-0.073043	-57.4883	-6.73798	0.166114
 484	1	3	-0.117827	-59.4679	-5.38369	0.141418
 485	1	3	-0.037562	-58.4271	-5.93959	2.27151
 486	1	3	-0.083705	-59.4121	-5.29707	1.51696
 487	1	7	0.396	-56.0172	-6.83196	3.82075
 488	1	7	0.310495	-56.1485	-8.77239	2.14537
 489	1	8	-0.130298	-56.9431	-7.44467	4.58827
 490	1	8	-0.128745	-56.1578	-5.5079	4.03551
 491	1	8	-0.120019	-54.8025	-7.15704	4.32414
 492	1	8	-0.104287	-55.8895	-9.1796	0.88515
 493	1	8	-0.095507	-57.3614	-9.27585	2.48142
 494	1	8	-0.104872	-55.2437	-9.40334	2.92469
 495	1	2	0.456145	-60.5289	-4.44281	1.97587
 496	1	2	0.550902	-60.6445	-4.60551	-0.327844
 497	1	1	0.015704	-61.2376	-4.1073	0.829092
 498	1	5	-0.456801	-60.6906	-4.04582	3.11649
 499	1	5	-0.487703	-61.0389	-4.50889	-1.47953
 500	1	3	-0.116566	-62.495	-3.43771	0.856248
 501	1	3	-0.050109	-63.6818	-4.16712	0.610207
 502	1	3	0.154929	-64.9423	-3.51511	0.651307
 503	1	3	0.041555	-62.5607	-2.06037	1.15086
 504	1	3	-0.223109	-63.8125	-1.42242	1.18904
 505	1	3	-0.080449	-65.0039	-2.13297	0.947088
 506	1	7	-0.108008	-61.301	-1.2459	1.4324
 507	1	7	-0.182228	-66.3317	-1.38281	0.982038
 508	1	7	-0.345523	-63.6191	-5.666	0.28814
 509	1	6	0.155183	-56.0189	-4.55216	1.48934
 510	1	6	0.172904	-53.5248	-8.12378	1.53745
 511	1	6	0.158028	-51.6668	-6.76679	0.561503
 512	1	6	0.153129	-58.5606	-6.18493	-1.65672
 513	1	6	0.142914	-56.7064	-7.25072	-0.388676
 514	1	6	0.135531	-58.4499	-5.83083	3.35204
 515	1	6	0.17765	-63.8569	-0.359687	1.40999
 516	1	9	0.046541	-61.5063	-0.168653	1.42257
 517	1	9	0.045238	-60.5252	-1.43267	0.678961
 518	1	9	0.051941	-60.8885	-1.48522	2.42013
 519	1	9	0.087961	-66.723	-1.24001	-0.0339446
 520	1	9	0.066782	-66.2233	-0.387888	1.43308
 521	1	9	0.075908	-67.0869	-1.92124	1.56821
 522	1	9	0.105172	-64.2609	-6.23299	0.96309
 523	1	9	0.115625	-62.6333	-6.12369	0.406488
 524	1	9	0.140296	-63.9326	-5.85739	-0.74521
 525	1	1	0.486064	-40.0118	-4.65205	-0.726147
 526	1	2	0.047133	-39.4483	-3.39548	-0.975251
 527	1	3	0.001076	-40.5743	-2.42349	-0.880372
 528	1	2	0.034038	-41.3615	-4.56486	-0.408538
 529	1	3	0.050122	-41.6918	-3.12104	-0.485983
 530	1	5	-0.383076	-38.2773	-3.12252	-1.17227
 531	1	5	-0.380811	-42.1343	-5.47036	-0.150642
 532	1	3	-0.001248	-40.6143	-1.03424	-1.0871
 533	1	3	-0.036565	-42.8703	-2.4597	-0.157033
 534	1	3	-0.208842	-42.9151	-1.0597	-0.305698
 535	1	3	-0.065319	-41.8234	-0.314348	-0.845181
 536	1	6	0.153391	-39.7041	-0.546226	-1.41406
 537	1	6	0.155343	-43.7169	-3.01873	0.235206
 538	1	6	0.174191	-43.8196	-0.573541	0.0427878
 539	1	7	-0.106637	-41.9259	1.23101	-1.11637
 540	1	7	0.445763	-40.8408	1.95485	-0.229013
 541	1	8	-0.144255	-39.5693	1.59889	-0.486627
 542	1	8	-0.136881	-41.0615	1.62233	1.05941
 543	1	8	-0.144092	-40.8433	3.30454	-0.35128
 544	1	7	0.367264	-41.6164	1.54132	-2.63088
 545	1	8	-0.12104	-41.8843	2.83142	-2.9164
 546	1	8	-0.122614	-40.3273	1.33151	-2.98564
 547	1	8	-0.112321	-42.3709	0.792415	-3.46572
 548	1	3	-0.021957	-43.375	1.77255	-0.796951
 549	1	3	-0.054241	-44.5006	1.21186	-1.46678
 550	1	3	-0.111709	-45.7942	1.64421	-1.14219
 551	1	3	-0.087244	-43.643	2.79216	0.173666
 552	1	3	-0.118951	-44.9479	3.24438	0.452522
 553	1	3	-0.044875	-46.0059	2.67043	-0.248738
 554	1	2	0.461883	-47.4636	2.88514	-0.100859
 555	1	1	-0.007433	-48.0522	1.83674	-0.794941
 556	1	2	0.491356	-47.128	1.07858	-1.50283
 557	1	3	-0.019445	-49.434	1.51358	-0.677129
 558	1	3	-0.186861	-50.3098	2.45553	-1.18808
 559	1	3	-0.068374	-51.5695	2.45992	-0.632596
 560	1	3	-0.009193	-49.9235	0.483551	0.182026
 561	1	3	0.220761	-51.3613	0.0139462	0.137747
 562	1	3	-0.402098	-51.9986	1.36097	0.120713
 563	1	6	0.148422	-49.9567	3.29909	-1.77414
 564	1	6	0.146291	-52.2349	3.30632	-0.786617
 565	1	6	0.158981	-45.1369	4.00914	1.20104
 566	1	6	0.141813	-42.8598	3.24917	0.765723
 567	1	6	0.143633	-44.3876	0.385863	-2.16536
 568	1	5	-0.474465	-47.3311	0.0246475	-2.08273
 569	1	5	-0.469737	-48.0029	3.76731	0.548725
 570	1	7	-0.37887	-48.9235	0.226507	1.35202
 571	1	9	0.115886	-48.1137	-0.455414	1.05957
 572	1	9	0.123845	-49.4018	-0.156353	2.26052
 573	1	9	0.138418	-48.4681	1.16148	1.69947
 574	1	6	0.21348	-53.0157	1.5386	0.451718
 575	1	3	-0.004194	-34.599	-7.50093	-11.2467
 576	1	3	-0.097141	-34.8077	-8.203	-10.0273
 577	1	3	-0.172015	-35.1358	-9.58917	-10.1108
 578	1	5	-0.377994	-34.0322	-6.6041	-14.1545
 579	1	3	0.033493	-34.7187	-8.18378	-12.4559
 580	1	3	-0.063739	-35.3012	-10.2486	-11.3487
 581	1	5	-0.398381	-35.2653	-11.0628	-14.3712
 582	1	3	0.032144	-35.0773	-9.51334	-12.5142
 583	1	2	0.032313	-34.4069	-7.71728	-13.826
 584	1	1	0.461698	-34.5838	-8.83659	-14.6267
 585	1	2	0.091945	-35.0332	-9.94993	-13.9322
 586	1	3	-0.10563	-37.9109	-8.668	-7.0149
 587	1	7	-0.099376	-34.52	-7.55637	-8.63163
 588	1	3	-0.043296	-35.5911	-7.97535	-7.56758
 589	1	3	-0.073043	-36.9022	-8.37607	-7.95691
 590	1	3	-0.117827	-37.6108	-8.52413	-5.65773
 591	1	3	-0.037562	-35.337	-7.84617	-6.17382
 592	1	3	-0.083705	-36.3559	-8.12452	-5.25785
 593	1	7	0.396	-34.5439	-5.98336	-8.67505
 594	1	7	0.310495	-33.078	-8.05458	-8.23931
 595	1	8	-0.130298	-34.3846	-5.44011	-7.45578
 596	1	8	-0.128745	-35.7313	-5.54298	-9.15267
 597	1	8	-0.120019	-33.5567	-5.42864	-9.41123
 598	1	8	-0.104287	-32.1787	-7.87733	-9.23259
 599	1	8	-0.095507	-33.0812	-9.37553	-7.96863
 600	1	8	-0.104872	-32.5604	-7.4379	-7.15964
 601	1	2	0.456145	-36.3955	-7.87608	-3.79349
 602	1	2	0.550902	-38.4994	-8.54053	-4.4589
 603	1	1	0.015704	-37.7096	-8.08234	-3.40835
 604	1	5	-0.456801	-35.4618	-7.53687	-3.08979
 605	1	5	-0.487703	-39.6922	-8.79887	-4.453
 606	1	3	-0.116566	-38.2063	-7.63582	-2.14618
 607	1	3	-0.050109	-38.9415	-6.4237	-2.08519
 608	1	3	0.154929	-39.3143	-5.89572	-0.819364
 609	1	3	0.041555	-37.9086	-8.34768	-0.96054
 610	1	3	-0.223109	-38.3623	-7.85758	0.27294
 611	1	3	-0.080449	-39.0331	-6.62819	0.358732
 612	1	7	-0.108008	-37.1594	-9.6735	-0.975511
 613	1	7	-0.182228	-39.4443	-6.12714	1.73854
 614	1	7	-0.345523	-39.3415	-5.70035	-3.38733
 615	1	6	0.155183	-34.2953	-6.46394	-11.302
 616	1	6	0.172904	-35.2502	-10.1743	-9.20003
 617	1	6	0.158028	-35.547	-11.3072	-11.4026
 618	1	6	0.153129	-38.9183	-8.92632	-7.32894
 619	1	6	0.142914	-37.1714	-8.4146	-9.00819
 620	1	6	0.135531	-34.4053	-7.45797	-5.77947
 621	1	6	0.17765	-38.1629	-8.42579	1.17809
 622	1	9	0.046541	-37.1389	-10.1388	0.017734
 623	1	9	0.045238	-36.119	-9.53472	-1.29417
 624	1	9	0.051941	-37.6366	-10.3866	-1.65775
 625	1	9	0.087961	-40.4966	-6.36637	1.94553
 626	1	9	0.066782	-39.3116	-5.04254	1.84295
 627	1	9	0.075908	-38.8414	-6.59383	2.52748