pySIMM System Object

1552 atoms
1696 bonds
2984 angles
4484 dihedrals
464 impropers

9 atom types
11 bond types
18 angle types
7 dihedral types
4 improper types

-147.264634 147.264634 xlo xhi
-147.264634 147.264634 ylo yhi
-147.264634 147.264634 zlo zhi

Masses

   1	14.01	# n
   2	12.01	# c
   3	12.01	# ca
   4	1.008	# hn
   5	16.0	# o
   6	1.008	# ha
   7	12.01	# c3
   8	19.0	# f
   9	1.008	# hc

Pair Coeffs

   1	0.17	3.249998523775958	# n
   2	0.086	3.3996695084235347	# c
   3	0.086	3.3996695084235347	# ca
   4	0.0157	1.069078461768407	# hn
   5	0.21	2.959921901149463	# o
   6	0.015	2.59964245953351	# ha
   7	0.1094	3.3996695084235347	# c3
   8	0.061	3.1181455134911875	# f
   9	0.0157	2.649532787749369	# hc

Bond Coeffs

   1	345.8	1.086	# ca,ha
   2	637.7	1.2183	# c,o
   3	321.0	1.5156	# c3,ca
   4	300.9	1.5375	# c3,c3
   5	384.2	1.4121	# ca,n
   6	330.6	1.0969	# c3,hc
   7	403.2	1.0129	# hn,n
   8	356.9	1.3497	# c3,f
   9	461.1	1.3984	# ca,ca
  10	427.6	1.3789	# c,n
  11	345.9	1.4906	# c,ca

Angle Coeffs

   1	66.11	109.24	# c3,c3,f
   2	46.8	110.47	# ca,c3,hc
   3	39.4	107.58	# hc,c3,hc
   4	63.82	123.71	# c,n,ca
   5	66.62	120.02	# ca,ca,ca
   6	63.53	120.77	# c3,ca,ca
   7	62.86	111.51	# c3,c3,c3
   8	63.74	127.08	# c,n,c
   9	48.33	117.55	# c,n,hn
  10	64.28	120.33	# c,ca,ca
  11	48.18	119.88	# ca,ca,ha
  12	68.72	122.6	# ca,c,o
  13	63.15	112.07	# c3,c3,ca
  14	70.89	107.36	# f,c3,f
  15	67.87	120.19	# ca,ca,n
  16	63.56	112.24	# ca,c3,ca
  17	67.68	115.25	# ca,c,n
  18	74.22	123.05	# n,c,o

Dihedral Coeffs

   1	2	2.5	2	180	2.0	1	0	# hn,n,c,o
   2	1	3.625	2	180	# X,ca,ca,X
   3	1	0.15555555555555556	3	0	# X,c3,c3,X
   4	1	0.0	2	0	# X,c3,ca,X
   5	1	1.0	2	180	# X,c,ca,X
   6	1	2.5	2	180	# X,c,n,X
   7	1	0.45	2	180	# X,ca,n,X

Improper Coeffs

   1	1.1	-1	2	# n,X,X,hn
   2	1.1	-1	2	# ca,X,X,ha
   3	10.5	-1	2	# c,X,X,o
   4	1.1	-1	2	# ca,ca,ca,c3

Atoms

   1	1	1	0.486064	-4.25701	20.3506	22.353
   2	1	2	0.047133	-2.93262	20.8678	22.554
   3	1	3	0.001076	-2.02936	19.8069	21.9647
   4	1	2	0.034038	-4.26447	19.1072	21.707
   5	1	3	0.050122	-2.8413	18.7734	21.5187
   6	1	5	-0.383076	-2.62674	21.986	22.9454
   7	1	5	-0.380811	-5.19901	18.4812	21.2074
   8	1	3	-0.001248	-0.649554	19.7669	21.7748
   9	1	3	-0.036565	-2.3025	17.6429	20.9202
  10	1	3	-0.208842	-0.920446	17.5437	20.7632
  11	1	3	-0.065319	-0.0746666	18.6309	21.1481
  12	1	6	0.153391	-0.0682513	20.5996	22.1509
  13	1	6	0.155343	-2.94961	16.8234	20.672
  14	1	6	0.174191	-0.492423	16.6009	20.4546
  15	1	7	-0.106637	1.45859	18.3537	21.1124
  16	1	7	0.445763	1.83245	18.0862	19.6062
  17	1	8	-0.144255	3.19847	17.8675	19.5455
  18	1	8	-0.136881	1.55507	19.1193	18.7243
  19	1	8	-0.144092	1.24723	17.0003	18.9994
  20	1	7	0.367264	2.39261	19.4902	21.6307
  21	1	8	-0.12104	3.67659	19.1051	21.674
  22	1	8	-0.122614	2.14598	19.7519	22.9
  23	1	8	-0.112321	2.27466	20.6734	20.9893
  24	1	3	-0.021957	1.66921	17.1903	22.1316
  25	1	3	-0.054241	2.61216	16.1473	21.9077
  26	1	3	-0.111709	2.82321	15.2001	22.9164
  27	1	3	-0.087244	0.915714	17.194	23.3615
  28	1	3	-0.118951	1.20341	16.2682	24.3551
  29	1	3	-0.044875	2.20298	15.3043	24.1407
  30	1	2	0.461883	2.88076	14.3756	25.099
  31	1	1	-0.007433	3.85583	13.7841	24.3415
  32	1	2	0.491356	3.88957	14.1645	23.0355
  33	1	3	-0.019445	4.72403	12.8718	24.8843
  34	1	3	-0.186861	6.00097	13.3149	25.2723
  35	1	3	-0.068374	6.83915	12.4925	26.0643
  36	1	3	-0.009193	4.27201	11.5881	25.176
  37	1	3	0.220761	5.08776	10.7678	25.984
  38	1	3	-0.402098	6.34222	11.2383	26.4372
  39	1	6	0.148422	6.34342	14.2978	24.9764
  40	1	6	0.146291	7.83408	12.8283	26.3843
  41	1	6	0.158981	0.710453	16.3961	25.3472
  42	1	6	0.141813	0.19395	17.9746	23.5635
  43	1	6	0.143633	3.19673	16.0463	21.0211
  44	1	5	-0.474465	4.55491	13.7129	22.1074
  45	1	5	-0.469737	2.71666	14.3307	26.302
  46	1	7	-0.37887	2.8979	11.0698	24.9022
  47	1	9	0.115886	2.49263	11.4475	23.9891
  48	1	9	0.123845	2.22549	11.2451	25.7096
  49	1	9	0.138418	2.99607	9.98265	24.7282
  50	1	6	0.21348	6.9536	10.5489	27.0086
  51	1	1	0.486064	-15.3283	17.1154	32.0452
  52	1	2	0.047133	-14.0409	17.2395	31.569
  53	1	3	0.001076	-14.0424	16.9326	30.1181
  54	1	2	0.034038	-16.1863	16.641	31.0449
  55	1	3	0.050122	-15.3243	16.5128	29.8257
  56	1	5	-0.383076	-13.0502	17.4966	32.2342
  57	1	5	-0.380811	-17.3976	16.4705	31.1013
  58	1	3	-0.001248	-13.0341	16.885	29.1317
  59	1	3	-0.036565	-15.7581	16.0219	28.5677
  60	1	3	-0.208842	-14.7359	15.9229	27.6042
  61	1	3	-0.065319	-13.3678	16.3623	27.8535
  62	1	6	0.153391	-12.0673	17.1949	29.4263
  63	1	6	0.155343	-16.7734	15.6493	28.4357
  64	1	6	0.174191	-15.0125	15.4675	26.6803
  65	1	7	-0.106637	-12.2201	16.2612	26.7647
  66	1	7	0.445763	-11.0792	15.275	27.2895
  67	1	8	-0.144255	-10.5174	15.6848	28.4611
  68	1	8	-0.136881	-11.5086	14.0174	27.5597
  69	1	8	-0.144092	-9.9711	15.1246	26.4899
  70	1	7	0.367264	-12.6203	15.7828	25.3296
  71	1	8	-0.12104	-12.968	14.5049	25.2188
  72	1	8	-0.122614	-13.6569	16.4369	24.7778
  73	1	8	-0.112321	-11.5634	15.8098	24.5046
  74	1	3	-0.021957	-11.7106	17.7014	26.4781
  75	1	3	-0.054241	-10.3462	18.0405	26.5845
  76	1	3	-0.111709	-9.88625	19.2741	26.1023
  77	1	3	-0.087244	-12.5497	18.7379	25.9146
  78	1	3	-0.118951	-12.0529	19.9249	25.4057
  79	1	3	-0.044875	-10.6737	20.0946	25.3469
  80	1	2	0.461883	-9.82267	21.0776	24.5904
  81	1	1	-0.007433	-8.55014	20.7439	24.9925
  82	1	2	0.491356	-8.5042	19.726	25.9147
  83	1	3	-0.019445	-7.39269	21.2184	24.303
  84	1	3	-0.186861	-7.29419	22.5977	24.3025
  85	1	3	-0.068374	-6.29345	23.2265	23.574
  86	1	3	-0.009193	-6.46412	20.3584	23.6213
  87	1	3	0.220761	-5.43533	21.0279	22.8491
  88	1	3	-0.402098	-5.45778	22.4517	22.7936
  89	1	6	0.148422	-8.01867	23.203	24.8372
  90	1	6	0.146291	-6.23444	24.3128	23.5244
  91	1	6	0.158981	-12.7417	20.639	24.9269
  92	1	6	0.141813	-13.6197	18.5956	25.8612
  93	1	6	0.143633	-9.61322	17.3997	27.0696
  94	1	5	-0.474465	-7.59856	19.451	26.6738
  95	1	5	-0.469737	-10.0882	21.8279	23.6568
  96	1	7	-0.37887	-6.40599	18.8331	23.9191
  97	1	9	0.115886	-5.44113	18.4257	23.7266
  98	1	9	0.123845	-7.2184	18.3073	23.4095
  99	1	9	0.138418	-6.47733	18.6143	24.967
 100	1	6	0.21348	-4.73711	22.9585	22.1502
 101	1	3	-0.004194	-22.2373	25.5606	33.7737
 102	1	3	-0.097141	-20.8325	25.2949	33.9751
 103	1	3	-0.172015	-20.0869	24.8464	32.8589
 104	1	5	-0.377994	-25.1411	25.6013	32.7964
 105	1	3	0.033493	-22.7597	25.4582	32.4951
 106	1	3	-0.063739	-20.6427	24.8415	31.579
 107	1	5	-0.398381	-22.4971	25.0161	29.1048
 108	1	3	0.032144	-22.0141	25.1892	31.4494
 109	1	2	0.032313	-24.1663	25.6129	32.0784
 110	1	1	0.461698	-24.1779	25.3557	30.7668
 111	1	2	0.091945	-22.911	25.271	30.2198
 112	1	3	-0.10563	-16.6685	23.8984	36.2815
 113	1	7	-0.099376	-20.1088	25.5277	35.3402
 114	1	3	-0.043296	-18.9541	24.4965	35.631
 115	1	3	-0.073043	-17.6735	24.8676	36.166
 116	1	3	-0.117827	-17.0057	22.5513	36.0747
 117	1	3	-0.037562	-19.179	23.1143	35.2723
 118	1	3	-0.083705	-18.2027	22.1538	35.4899
 119	1	7	0.396	-21.0999	25.3048	36.5115
 120	1	7	0.310495	-19.6019	27.1071	35.2635
 121	1	8	-0.130298	-21.7715	26.4763	36.7329
 122	1	8	-0.128745	-20.494	25.1466	37.7389
 123	1	8	-0.120019	-22.0282	24.3825	36.2974
 124	1	8	-0.104287	-20.6716	27.9138	34.9388
 125	1	8	-0.095507	-18.5971	27.1304	34.3439
 126	1	8	-0.104872	-19.0635	27.6183	36.4031
 127	1	2	0.456145	-18.1636	20.6895	35.2147
 128	1	2	0.550902	-16.1493	21.3335	36.2201
 129	1	1	0.015704	-16.8871	20.2714	35.6091
 130	1	5	-0.456801	-19.055	20.0068	34.6743
 131	1	5	-0.487703	-15.0724	21.3144	36.8033
 132	1	3	-0.116566	-16.3328	18.9553	35.2651
 133	1	3	-0.050109	-16.088	18.6652	33.8861
 134	1	3	0.154929	-15.661	17.3905	33.4498
 135	1	3	0.041555	-16.0574	18.0063	36.2473
 136	1	3	-0.223109	-15.5882	16.7461	35.8352
 137	1	3	-0.080449	-15.3884	16.4184	34.467
 138	1	7	-0.108008	-16.4805	18.226	37.7134
 139	1	7	-0.182228	-14.8443	15.028	34.153
 140	1	7	-0.345523	-16.4978	19.7156	32.8007
 141	1	6	0.155183	-22.9572	25.7664	34.5164
 142	1	6	0.172904	-19.0193	24.7018	32.9651
 143	1	6	0.158028	-20.032	24.7506	30.7072
 144	1	6	0.153129	-15.7351	24.2484	36.6712
 145	1	6	0.142914	-17.4444	25.8638	36.4527
 146	1	6	0.135531	-20.1184	22.7704	34.9139
 147	1	6	0.17765	-15.4632	15.964	36.5937
 148	1	9	0.046541	-16.9914	19.1813	37.9031
 149	1	9	0.045238	-15.5975	18.3152	38.3287
 150	1	9	0.051941	-17.14	17.39	38.0671
 151	1	9	0.087961	-13.7744	15.0685	34.3814
 152	1	9	0.066782	-14.8654	14.6993	33.1078
 153	1	9	0.075908	-15.2663	14.1925	34.7368
 154	1	9	0.105172	-16.4743	19.3658	31.8072
 155	1	9	0.115625	-15.9584	20.6209	32.8612
 156	1	9	0.140296	-17.531	20.0236	32.8626
 157	1	1	0.486064	-25.7098	25.4437	18.7969
 158	1	2	0.047133	-25.7935	26.8773	19.1065
 159	1	3	0.001076	-27.0028	27.0831	19.8833
 160	1	2	0.034038	-26.9282	24.8233	19.0754
 161	1	3	0.050122	-27.6894	25.8613	19.8787
 162	1	5	-0.383076	-24.8398	27.6951	18.8922
 163	1	5	-0.380811	-27.251	23.674	18.8954
 164	1	3	-0.001248	-27.4098	28.1205	20.6636
 165	1	3	-0.036565	-28.8411	25.7338	20.639
 166	1	3	-0.208842	-29.3549	26.795	21.4452
 167	1	3	-0.065319	-28.6136	28.0288	21.4013
 168	1	6	0.153391	-26.8441	29.0828	20.668
 169	1	6	0.155343	-29.2024	24.7562	20.6927
 170	1	6	0.174191	-30.1755	26.6329	22.0866
 171	1	7	-0.106637	-29.1676	29.1299	22.3191
 172	1	7	0.445763	-30.7786	29.2269	22.2972
 173	1	8	-0.144255	-31.2631	28.4653	23.2678
 174	1	8	-0.136881	-31.3752	28.8177	21.1214
 175	1	8	-0.144092	-31.2184	30.4891	22.434
 176	1	7	0.367264	-28.7285	30.6119	21.9656
 177	1	8	-0.12104	-27.4587	30.7807	21.9335
 178	1	8	-0.122614	-29.2443	30.9821	20.8449
 179	1	8	-0.112321	-29.091	31.6422	22.6935
 180	1	3	-0.021957	-28.7932	28.7186	23.764
 181	1	3	-0.054241	-28.0816	27.5644	24.0529
 182	1	3	-0.111709	-28.1295	27.0177	25.3486
 183	1	3	-0.087244	-29.2181	29.4857	24.8619
 184	1	3	-0.118951	-29.1104	29.05	26.2296
 185	1	3	-0.044875	-28.6192	27.7246	26.4263
 186	1	2	0.461883	-28.2978	27.0173	27.6806
 187	1	1	-0.007433	-27.6847	25.8213	27.2423
 188	1	2	0.491356	-27.4726	25.7791	25.8862
 189	1	3	-0.019445	-27.0413	25.0736	28.286
 190	1	3	-0.186861	-27.5549	23.7824	28.6734
 191	1	3	-0.068374	-27.0135	23.1489	29.7939
 192	1	3	-0.009193	-25.8427	25.5737	28.8997
 193	1	3	0.220761	-25.3346	24.9054	30.0254
 194	1	3	-0.402098	-25.8674	23.6688	30.3844
 195	1	6	0.148422	-28.5068	23.4535	28.2901
 196	1	6	0.146291	-27.3148	22.1438	30.0861
 197	1	6	0.158981	-29.4153	29.6894	27.065
 198	1	6	0.141813	-29.5798	30.4785	24.6735
 199	1	6	0.143633	-27.4591	27.0427	23.2849
 200	1	5	-0.474465	-26.929	24.9134	25.1766
 201	1	5	-0.469737	-28.3317	27.4934	28.8448
 202	1	7	-0.37887	-25.086	26.6116	28.1276
 203	1	9	0.115886	-24.2934	27.068	28.6081
 204	1	9	0.123845	-25.7153	27.5098	27.8589
 205	1	9	0.138418	-24.7635	26.281	27.2373
 206	1	6	0.21348	-25.311	23.1576	31.1636
 207	1	3	-0.004194	-19.67	21.4664	8.97235
 208	1	3	-0.097141	-19.2053	22.1932	10.0832
 209	1	3	-0.172015	-18.3797	21.4775	11.0655
 210	1	5	-0.377994	-20.344	19.5496	6.56234
 211	1	3	0.033493	-19.5144	20.1175	8.85555
 212	1	3	-0.063739	-18.2704	20.0049	10.92
 213	1	5	-0.398381	-18.5345	17.0336	10.0335
 214	1	3	0.032144	-18.8715	19.3678	9.85578
 215	1	2	0.032313	-19.882	19.2348	7.70283
 216	1	1	0.461698	-19.4839	17.976	8.07371
 217	1	2	0.091945	-19.0299	17.968	9.42989
 218	1	3	-0.10563	-19.9294	26.0165	13.3357
 219	1	7	-0.099376	-19.2675	23.7622	9.98252
 220	1	3	-0.043296	-19.74	24.29	11.4604
 221	1	3	-0.073043	-19.361	25.5639	12.042
 222	1	3	-0.117827	-20.8501	25.1551	13.9444
 223	1	3	-0.037562	-20.6763	23.4494	12.1005
 224	1	3	-0.083705	-21.1985	23.888	13.4013
 225	1	7	0.396	-17.8387	24.2875	9.41638
 226	1	7	0.310495	-20.5054	24.3378	9.13423
 227	1	8	-0.130298	-17.7242	23.8801	8.09447
 228	1	8	-0.128745	-17.6122	25.6529	9.50517
 229	1	8	-0.120019	-16.8962	23.6481	10.1021
 230	1	8	-0.104287	-21.6293	23.5628	9.25861
 231	1	8	-0.095507	-20.8707	25.6073	9.39879
 232	1	8	-0.104872	-20.3056	24.5024	7.74618
 233	1	2	0.456145	-22.1807	23.1828	14.3984
 234	1	2	0.550902	-21.517	25.294	15.1906
 235	1	1	0.015704	-22.3098	24.1515	15.3965
 236	1	5	-0.456801	-22.7824	22.1112	14.4856
 237	1	5	-0.487703	-21.1853	26.205	15.968
 238	1	3	-0.116566	-23.0345	23.9246	16.6164
 239	1	3	-0.050109	-24.1247	24.7021	17.023
 240	1	3	0.154929	-24.4797	24.7281	18.4313
 241	1	3	0.041555	-22.5868	22.9456	17.495
 242	1	3	-0.223109	-23.0384	22.8497	18.848
 243	1	3	-0.080449	-23.9371	23.7539	19.3472
 244	1	7	-0.108008	-21.4706	22.0376	17.2315
 245	1	7	-0.182228	-24.2481	23.8859	20.8595
 246	1	7	-0.345523	-24.5959	25.7357	16.0516
 247	1	6	0.155183	-20.102	21.9384	8.06663
 248	1	6	0.172904	-17.8759	21.9344	11.8984
 249	1	6	0.158028	-17.8271	19.5303	11.7333
 250	1	6	0.153129	-19.6748	26.9149	13.7791
 251	1	6	0.142914	-18.6621	26.2317	11.575
 252	1	6	0.135531	-20.7546	22.368	11.8828
 253	1	6	0.17765	-22.667	22.1778	19.5495
 254	1	9	0.046541	-20.8167	22.3378	16.4258
 255	1	9	0.045238	-21.8095	21.0348	17.0644
 256	1	9	0.051941	-20.8859	22.0851	18.1904
 257	1	9	0.087961	-25.3124	23.5854	21.1728
 258	1	9	0.066782	-24.0847	24.9002	21.303
 259	1	9	0.075908	-23.6852	23.181	21.4072
 260	1	9	0.105172	-25.4292	26.2945	16.3378
 261	1	9	0.115625	-24.8191	25.4646	15.0275
 262	1	9	0.140296	-23.8395	26.5942	15.9658
 263	1	3	-0.004194	-16.0956	12.2637	-2.71234
 264	1	3	-0.097141	-15.3553	13.0561	-1.74979
 265	1	3	-0.172015	-14.5893	12.2197	-0.878399
 266	1	5	-0.377994	-16.6521	10.5051	-5.23766
 267	1	3	0.033493	-15.9344	10.8667	-2.91637
 268	1	3	-0.063739	-14.3342	10.8215	-1.16212
 269	1	5	-0.398381	-13.9469	8.03688	-2.35482
 270	1	3	0.032144	-14.9612	10.2293	-2.18195
 271	1	2	0.032313	-16.2448	10.0768	-4.17272
 272	1	1	0.461698	-15.4929	8.90742	-4.00888
 273	1	2	0.091945	-14.7673	8.85173	-2.79802
 274	1	3	-0.10563	-19.3363	16.5861	0.0653987
 275	1	7	-0.099376	-15.5085	14.6745	-1.70329
 276	1	3	-0.043296	-16.6812	15.0269	-0.7621
 277	1	3	-0.073043	-18.1308	16.0922	-1.24381
 278	1	3	-0.117827	-19.1444	15.9299	1.72926
 279	1	3	-0.037562	-16.5506	14.4272	0.936698
 280	1	3	-0.083705	-17.8078	14.8923	2.14421
 281	1	7	0.396	-14.144	15.1774	-1.21207
 282	1	7	0.310495	-15.9214	15.4265	-3.11613
 283	1	8	-0.130298	-13.883	16.4394	-1.39484
 284	1	8	-0.128745	-14.0114	15.0519	0.207883
 285	1	8	-0.120019	-13.1532	14.5754	-1.92444
 286	1	8	-0.104287	-15.8158	16.7946	-3.05444
 287	1	8	-0.095507	-14.9679	14.8791	-3.90361
 288	1	8	-0.104872	-17.1162	15.2145	-3.65703
 289	1	2	0.456145	-18.0377	14.6025	3.59815
 290	1	2	0.550902	-19.8422	16.1685	3.0136
 291	1	1	0.015704	-19.225	15.3462	3.94758
 292	1	5	-0.456801	-17.4853	13.8297	4.35574
 293	1	5	-0.487703	-20.7633	16.9627	3.24976
 294	1	3	-0.116566	-19.6714	15.5375	5.28498
 295	1	3	-0.050109	-19.1651	16.5833	6.13876
 296	1	3	0.154929	-19.8877	16.8571	7.30573
 297	1	3	0.041555	-20.7717	14.7734	5.64136
 298	1	3	-0.223109	-21.3412	15.0223	6.92859
 299	1	3	-0.080449	-20.945	16.0996	7.76859
 300	1	7	-0.108008	-21.3753	13.7525	4.74431
 301	1	7	-0.182228	-21.7351	16.4226	9.10764
 302	1	7	-0.345523	-18.0737	17.5683	5.60213
 303	1	6	0.155183	-16.7779	12.7511	-3.34067
 304	1	6	0.172904	-13.9391	12.6167	-0.105012
 305	1	6	0.158028	-13.6507	10.2052	-0.646301
 306	1	6	0.153129	-20.2042	17.2113	-0.117217
 307	1	6	0.142914	-18.3333	16.5995	-2.18491
 308	1	6	0.135531	-15.7362	13.8068	1.17755
 309	1	6	0.17765	-22.2705	14.4472	7.26118
 310	1	9	0.046541	-21.4797	13.9632	3.69686
 311	1	9	0.045238	-22.2751	13.4986	5.22274
 312	1	9	0.051941	-20.676	12.7825	4.82524
 313	1	9	0.087961	-22.641	15.7848	9.14631
 314	1	9	0.066782	-22.0911	17.5092	9.33077
 315	1	9	0.075908	-21.1083	16.1698	10.0054
 316	1	9	0.105172	-17.2394	17.1387	4.95169
 317	1	9	0.115625	-17.4639	18.1155	6.36517
 318	1	9	0.140296	-18.4825	18.2914	4.89409
 319	1	3	-0.004194	-14.7993	5.76838	-12.7427
 320	1	3	-0.097141	-14.3395	6.53389	-13.8819
 321	1	3	-0.172015	-15.2731	6.86056	-14.8746
 322	1	5	-0.377994	-16.5118	5.20032	-10.2482
 323	1	3	0.033493	-16.2219	5.77086	-12.5374
 324	1	3	-0.063739	-16.6575	6.73125	-14.6945
 325	1	5	-0.398381	-19.4812	6.72329	-13.4131
 326	1	3	0.032144	-17.1569	6.35172	-13.4457
 327	1	2	0.032313	-16.9915	5.56672	-11.2796
 328	1	1	0.461698	-18.2991	5.96293	-11.5016
 329	1	2	0.091945	-18.4854	6.44952	-12.8201
 330	1	3	-0.10563	-10.7613	7.31366	-10.728
 331	1	7	-0.099376	-12.843	6.96899	-13.9788
 332	1	3	-0.043296	-12.4054	7.43062	-12.6339
 333	1	3	-0.073043	-11.1016	7.21889	-12.0632
 334	1	3	-0.117827	-11.745	7.81177	-9.8566
 335	1	3	-0.037562	-13.3042	7.92807	-11.7275
 336	1	3	-0.083705	-12.9783	8.00307	-10.3771
 337	1	7	0.396	-12.6255	8.17819	-15.0036
 338	1	7	0.310495	-12.1819	5.69997	-14.5062
 339	1	8	-0.130298	-13.5422	9.10045	-14.6306
 340	1	8	-0.128745	-12.8102	7.95234	-16.2935
 341	1	8	-0.120019	-11.467	8.86352	-14.7988
 342	1	8	-0.104287	-10.8766	5.82817	-14.8472
 343	1	8	-0.095507	-12.7383	5.14993	-15.6097
 344	1	8	-0.104872	-12.0737	4.81952	-13.4583
 345	1	2	0.456145	-13.9644	7.79566	-9.25796
 346	1	2	0.550902	-11.8288	7.68373	-8.35078
 347	1	1	0.015704	-13.2289	7.56927	-8.11914
 348	1	5	-0.456801	-15.1611	7.70936	-9.36363
 349	1	5	-0.487703	-10.8597	7.40015	-7.69534
 350	1	3	-0.116566	-13.9538	7.28048	-6.94548
 351	1	3	-0.050109	-14.3146	8.25516	-6.07263
 352	1	3	0.154929	-15.2534	7.98312	-5.04979
 353	1	3	0.041555	-14.2834	5.88637	-6.72883
 354	1	3	-0.223109	-15.1802	5.59353	-5.70858
 355	1	3	-0.080449	-15.7183	6.6035	-4.89678
 356	1	7	-0.108008	-13.6399	4.70113	-7.52301
 357	1	7	-0.182228	-16.7969	6.28047	-3.83707
 358	1	7	-0.345523	-13.7405	9.64204	-6.34854
 359	1	6	0.155183	-14.1437	5.36909	-11.9887
 360	1	6	0.172904	-14.9299	7.30778	-15.8514
 361	1	6	0.158028	-17.3517	7.08795	-15.501
 362	1	6	0.153129	-9.73541	7.05991	-10.341
 363	1	6	0.142914	-10.2865	6.91328	-12.7451
 364	1	6	0.135531	-14.3301	7.97045	-11.986
 365	1	6	0.17765	-15.4597	4.51518	-5.54664
 366	1	9	0.046541	-12.5497	4.90926	-7.48318
 367	1	9	0.045238	-13.8524	4.61162	-8.58042
 368	1	9	0.051941	-13.8262	3.71416	-7.04359
 369	1	9	0.087961	-16.6868	6.85869	-2.83681
 370	1	9	0.066782	-17.0851	5.26452	-3.65973
 371	1	9	0.075908	-17.715	6.78428	-4.21484
 372	1	9	0.105172	-13.2406	9.74604	-7.37071
 373	1	9	0.115625	-13.0134	9.89575	-5.62146
 374	1	9	0.140296	-14.4827	10.4255	-6.27096
 375	1	3	-0.004194	-17.8903	-1.59568	-3.83304
 376	1	3	-0.097141	-18.4822	-1.4935	-5.16863
 377	1	3	-0.172015	-17.5768	-1.19766	-6.24987
 378	1	5	-0.377994	-16.3755	-0.84363	-1.11617
 379	1	3	0.033493	-16.5577	-1.15918	-3.5505
 380	1	3	-0.063739	-16.3294	-0.656623	-5.91934
 381	1	5	-0.398381	-14.1009	0.88141	-4.61742
 382	1	3	0.032144	-15.8852	-0.569429	-4.57101
 383	1	2	0.032313	-15.8911	-0.795803	-2.2267
 384	1	1	0.461698	-14.7946	-0.092038	-2.56793
 385	1	2	0.091945	-14.8299	0.206025	-3.92952
 386	1	3	-0.10563	-22.3076	0.171277	-7.89571
 387	1	7	-0.099376	-20.0079	-1.84049	-5.42789
 388	1	3	-0.043296	-20.5772	-0.721021	-6.3609
 389	1	3	-0.073043	-21.7561	-0.902578	-7.15744
 390	1	3	-0.117827	-21.5857	1.37164	-7.93682
 391	1	3	-0.037562	-19.9694	0.566259	-6.34812
 392	1	3	-0.083705	-20.4355	1.57364	-7.16695
 393	1	7	0.396	-20.9719	-1.98152	-4.18185
 394	1	7	0.310495	-19.9348	-3.26511	-6.03715
 395	1	8	-0.130298	-22.3182	-2.14702	-4.49576
 396	1	8	-0.128745	-20.9812	-0.861315	-3.45646
 397	1	8	-0.120019	-20.7044	-3.04829	-3.39466
 398	1	8	-0.104287	-19.3693	-3.34191	-7.25215
 399	1	8	-0.095507	-21.187	-3.79402	-6.17453
 400	1	8	-0.104872	-19.1413	-4.13131	-5.36348
 401	1	2	0.456145	-19.9502	2.95568	-7.36547
 402	1	2	0.550902	-21.8427	2.64124	-8.68345
 403	1	1	0.015704	-20.8004	3.47527	-8.35519
 404	1	5	-0.456801	-18.8569	3.41147	-7.06275
 405	1	5	-0.487703	-22.4933	2.73293	-9.69009
 406	1	3	-0.116566	-20.6426	4.77603	-8.86989
 407	1	3	-0.050109	-19.9572	4.82633	-10.0972
 408	1	3	0.154929	-19.3001	6.00938	-10.4736
 409	1	3	0.041555	-20.7852	5.973	-8.11553
 410	1	3	-0.223109	-20.3538	7.1854	-8.62153
 411	1	3	-0.080449	-19.6632	7.25181	-9.87242
 412	1	7	-0.108008	-21.4846	6.05151	-6.69825
 413	1	7	-0.182228	-19.0833	8.59861	-10.3493
 414	1	7	-0.345523	-19.5289	3.49009	-10.7292
 415	1	6	0.155183	-18.5496	-1.84214	-2.99507
 416	1	6	0.172904	-17.8442	-1.2408	-7.32303
 417	1	6	0.158028	-15.6998	-0.238116	-6.7063
 418	1	6	0.153129	-23.1588	0.0210064	-8.557
 419	1	6	0.142914	-22.2266	-1.83085	-7.21491
 420	1	6	0.135531	-19.1408	0.826598	-5.62686
 421	1	6	0.17765	-20.5192	8.08405	-8.04755
 422	1	9	0.046541	-20.7769	5.70223	-5.94906
 423	1	9	0.045238	-22.386	5.3492	-6.64347
 424	1	9	0.051941	-21.8064	7.11504	-6.42782
 425	1	9	0.087961	-18.7881	9.20355	-9.48542
 426	1	9	0.066782	-19.8106	9.21593	-10.8783
 427	1	9	0.075908	-18.1974	8.44355	-10.9439
 428	1	9	0.105172	-20.451	2.88179	-10.8997
 429	1	9	0.115625	-18.8037	3.00416	-10.102
 430	1	9	0.140296	-19.1095	3.61079	-11.7293
 431	1	1	0.486064	-0.634128	1.97837	-3.16074
 432	1	2	0.047133	-1.20249	0.843712	-3.75224
 433	1	3	0.001076	-2.29918	0.502175	-2.77192
 434	1	2	0.034038	-1.3111	2.4885	-2.07201
 435	1	3	0.050122	-2.38646	1.48192	-1.80157
 436	1	5	-0.383076	-0.88938	0.300617	-4.81708
 437	1	5	-0.380811	-1.02613	3.48535	-1.43035
 438	1	3	-0.001248	-3.06652	-0.646482	-2.67684
 439	1	3	-0.036565	-3.22124	1.36549	-0.647185
 440	1	3	-0.208842	-3.99507	0.184718	-0.568527
 441	1	3	-0.065319	-3.98606	-0.795808	-1.57565
 442	1	6	0.153391	-2.93248	-1.3982	-3.43767
 443	1	6	0.155343	-3.26425	2.15821	0.0728798
 444	1	6	0.174191	-4.53222	-0.00144324	0.33918
 445	1	7	-0.106637	-4.80488	-2.11126	-1.40927
 446	1	7	0.445763	-5.24683	-2.82494	-2.76193
 447	1	8	-0.144255	-6.40233	-3.56768	-2.65807
 448	1	8	-0.136881	-5.48474	-1.96132	-3.74864
 449	1	8	-0.144092	-4.3301	-3.63878	-3.29597
 450	1	7	0.367264	-3.84548	-3.06396	-0.574862
 451	1	8	-0.12104	-3.20523	-2.38055	0.40106
 452	1	8	-0.122614	-2.83129	-3.59337	-1.30306
 453	1	8	-0.112321	-4.51096	-4.12607	-0.103865
 454	1	3	-0.021957	-6.15582	-1.70245	-0.720454
 455	1	3	-0.054241	-7.11575	-0.933459	-1.42642
 456	1	3	-0.111709	-8.30831	-0.535221	-0.787196
 457	1	3	-0.087244	-6.47159	-2.06611	0.599136
 458	1	3	-0.118951	-7.62591	-1.54607	1.26672
 459	1	3	-0.044875	-8.54623	-0.731565	0.57261
 460	1	2	0.461883	-9.94052	-0.200146	0.93259
 461	1	1	-0.007433	-10.4058	0.312135	-0.23037
 462	1	2	0.491356	-9.4984	0.241347	-1.29548
 463	1	3	-0.019445	-11.7717	0.684865	-0.471937
 464	1	3	-0.186861	-12.289	1.76983	0.221186
 465	1	3	-0.068374	-13.5932	2.24129	0.0711982
 466	1	3	-0.009193	-12.6216	-0.0569831	-1.33857
 467	1	3	0.220761	-13.9253	0.520119	-1.61743
 468	1	3	-0.402098	-14.4013	1.68061	-0.928357
 469	1	6	0.148422	-11.651	2.25415	0.923062
 470	1	6	0.146291	-13.9505	3.08625	0.662352
 471	1	6	0.158981	-7.8177	-1.79526	2.31348
 472	1	6	0.141813	-5.83169	-2.71816	1.20428
 473	1	6	0.143633	-6.95966	-0.744723	-2.47956
 474	1	5	-0.474465	-9.63883	0.79923	-2.39781
 475	1	5	-0.469737	-10.5586	-0.0923317	1.98926
 476	1	7	-0.37887	-12.1359	-1.4136	-1.9255
 477	1	9	0.115886	-12.9792	-2.07432	-2.10046
 478	1	9	0.123845	-11.5179	-1.96271	-1.19179
 479	1	9	0.138418	-11.6114	-1.46419	-2.90476
 480	1	6	0.21348	-15.3917	2.13584	-0.997339
 481	1	3	-0.004194	8.76125	-3.59456	1.11084
 482	1	3	-0.097141	8.25616	-2.25407	1.08934
 483	1	3	-0.172015	7.02182	-1.98243	1.75563
 484	1	5	-0.377994	9.14285	-6.77337	1.2648
 485	1	3	0.033493	7.98379	-4.63115	1.65564
 486	1	3	-0.063739	6.23961	-3.04125	2.28788
 487	1	5	-0.398381	5.05988	-5.74436	3.29828
 488	1	3	0.032144	6.77901	-4.33599	2.28057
 489	1	2	0.032313	8.22838	-6.11541	1.74033
 490	1	1	0.461698	7.08154	-6.62324	2.34334
 491	1	2	0.091945	6.15777	-5.61973	2.74262
 492	1	3	-0.10563	6.93761	2.19089	-0.0328083
 493	1	7	-0.099376	8.99584	-1.11503	0.311062
 494	1	3	-0.043296	7.91284	-0.058664	-0.0867932
 495	1	3	-0.073043	7.91552	1.29555	0.367671
 496	1	3	-0.117827	5.90099	1.74912	-0.834559
 497	1	3	-0.037562	6.80314	-0.526181	-0.876668
 498	1	3	-0.083705	5.79963	0.405045	-1.21484
 499	1	7	0.396	9.63356	-1.61074	-1.05856
 500	1	7	0.310495	10.2336	-0.511746	1.1203
 501	1	8	-0.130298	10.9736	-1.87697	-1.042
 502	1	8	-0.128745	9.5046	-0.651356	-2.02128
 503	1	8	-0.120019	9.0317	-2.72675	-1.53567
 504	1	8	-0.104287	11.1546	-1.43951	1.49939
 505	1	8	-0.095507	9.86776	0.173798	2.26097
 506	1	8	-0.104872	10.9079	0.345579	0.29791
 507	1	2	0.456145	4.58527	0.25361	-2.04173
 508	1	2	0.550902	4.84443	2.5058	-1.49906
 509	1	1	0.015704	4.06515	1.56331	-2.1697
 510	1	5	-0.456801	4.1206	-0.795902	-2.46938
 511	1	5	-0.487703	4.76869	3.7013	-1.53844
 512	1	3	-0.116566	3.01339	1.88207	-3.09728
 513	1	3	-0.050109	1.6817	1.80729	-2.63225
 514	1	3	0.154929	0.674083	2.35968	-3.44436
 515	1	3	0.041555	3.32753	2.51464	-4.32308
 516	1	3	-0.223109	2.30199	3.19938	-5.0076
 517	1	3	-0.080449	0.986123	3.13875	-4.57
 518	1	7	-0.108008	4.81316	2.65596	-4.72778
 519	1	7	-0.182228	-0.0694579	3.86393	-5.45096
 520	1	7	-0.345523	1.37994	1.11322	-1.30425
 521	1	6	0.155183	9.66854	-3.87843	0.578552
 522	1	6	0.172904	6.58164	-0.987069	1.76331
 523	1	6	0.158028	5.23703	-2.87793	2.69249
 524	1	6	0.153129	7.00738	3.23073	0.286011
 525	1	6	0.142914	8.71058	1.71719	0.979078
 526	1	6	0.135531	6.73924	-1.57337	-1.22583
 527	1	6	0.17765	2.55578	3.76198	-5.90798
 528	1	9	0.046541	5.37592	1.72156	-4.63319
 529	1	9	0.045238	5.30933	3.44426	-4.15771
 530	1	9	0.051941	4.88667	2.98065	-5.76366
 531	1	9	0.087961	-1.03208	3.36612	-5.44731
 532	1	9	0.066782	0.20267	3.77793	-6.50113
 533	1	9	0.075908	-0.194745	4.92377	-5.18412
 534	1	9	0.105172	0.583387	0.337947	-1.40173
 535	1	9	0.115625	1.08289	1.85652	-0.522776
 536	1	9	0.140296	2.19813	0.558117	-0.847438
 537	1	3	-0.004194	1.33127	-9.81484	-7.61639
 538	1	3	-0.097141	1.8203	-10.5721	-6.52901
 539	1	3	-0.172015	0.886732	-11.332	-5.76462
 540	1	5	-0.377994	-0.477513	-8.15228	-9.47772
 541	1	3	0.033493	-0.0570311	-9.85417	-7.83312
 542	1	3	-0.063739	-0.475835	-11.4186	-6.08587
 543	1	5	-0.398381	-3.35649	-10.799	-7.00619
 544	1	3	0.032144	-0.939944	-10.6409	-7.12748
 545	1	2	0.032313	-0.892753	-8.99064	-8.69727
 546	1	1	0.461698	-2.23563	-9.25632	-8.38909
 547	1	2	0.091945	-2.34287	-10.2828	-7.45442
 548	1	3	-0.10563	2.25146	-8.76852	-2.84655
 549	1	7	-0.099376	3.31013	-10.5444	-6.08301
 550	1	3	-0.043296	3.30146	-10.137	-4.59516
 551	1	3	-0.073043	2.40331	-9.12126	-4.19917
 552	1	3	-0.117827	3.08465	-9.37459	-1.90192
 553	1	3	-0.037562	4.15958	-10.7162	-3.63265
 554	1	3	-0.083705	4.04869	-10.276	-2.31146
 555	1	7	0.396	4.20792	-9.50282	-6.84121
 556	1	7	0.310495	3.88919	-11.982	-6.32257
 557	1	8	-0.130298	5.38662	-9.34019	-6.18137
 558	1	8	-0.128745	3.61425	-8.2763	-6.93441
 559	1	8	-0.120019	4.55375	-9.92356	-8.09188
 560	1	8	-0.104287	5.24604	-12.0455	-6.24951
 561	1	8	-0.095507	3.64449	-12.4371	-7.56632
 562	1	8	-0.104872	3.34753	-12.8641	-5.46579
 563	1	2	0.456145	4.91734	-10.5791	-1.16962
 564	1	2	0.550902	3.19514	-9.18164	-0.427823
 565	1	1	0.015704	4.3928	-9.83872	-0.108692
 566	1	5	-0.456801	6.05125	-11.0533	-1.20016
 567	1	5	-0.487703	2.44039	-8.54902	0.301719
 568	1	3	-0.116566	5.25137	-9.52653	0.973037
 569	1	3	-0.050109	5.83365	-8.24057	1.0645
 570	1	3	0.154929	6.70203	-7.96979	2.15117
 571	1	3	0.041555	5.53372	-10.5404	1.91954
 572	1	3	-0.223109	6.43252	-10.2647	2.96134
 573	1	3	-0.080449	7.01251	-8.98364	3.09784
 574	1	7	-0.108008	4.87017	-11.9213	1.8243
 575	1	7	-0.182228	8.07284	-8.76542	4.20744
 576	1	7	-0.345523	5.45535	-7.15567	0.0396994
 577	1	6	0.155183	1.95047	-9.19278	-8.2503
 578	1	6	0.172904	1.22422	-11.8986	-4.90459
 579	1	6	0.158028	-1.18692	-11.9668	-5.469
 580	1	6	0.153129	1.50648	-8.04314	-2.53142
 581	1	6	0.142914	1.75533	-8.6402	-4.93034
 582	1	6	0.135531	4.90862	-11.4512	-3.90288
 583	1	6	0.17765	6.70246	-11.0462	3.66846
 584	1	9	0.046541	5.41239	-12.5915	1.13625
 585	1	9	0.045238	3.82697	-11.8216	1.47524
 586	1	9	0.051941	4.81215	-12.4153	2.81661
 587	1	9	0.087961	7.62751	-8.60326	5.20057
 588	1	9	0.066782	8.78462	-7.9516	3.99299
 589	1	9	0.075908	8.66876	-9.68455	4.30469
 590	1	9	0.105172	5.50064	-7.53496	-0.987985
 591	1	9	0.115625	6.12391	-6.28357	0.0145555
 592	1	9	0.140296	4.42985	-6.80407	0.253287
 593	1	1	0.486064	-13.6433	-16.1503	-16.0458
 594	1	2	0.047133	-14.1522	-15.557	-14.9004
 595	1	3	0.001076	-13.1688	-14.5191	-14.487
 596	1	2	0.034038	-12.4762	-15.5028	-16.4526
 597	1	3	0.050122	-12.136	-14.5145	-15.3907
 598	1	5	-0.383076	-15.1649	-15.8763	-14.3055
 599	1	5	-0.380811	-11.9211	-15.6213	-17.5197
 600	1	3	-0.001248	-13.1239	-13.7931	-13.2917
 601	1	3	-0.036565	-10.9659	-13.7899	-15.1189
 602	1	3	-0.208842	-10.8964	-13.0806	-13.8872
 603	1	3	-0.065319	-11.9802	-13.0367	-12.9623
 604	1	6	0.153391	-13.9609	-13.8714	-12.6032
 605	1	6	0.155343	-10.1233	-13.8378	-15.8001
 606	1	6	0.174191	-9.95668	-12.5824	-13.6535
 607	1	7	-0.106637	-11.8865	-12.2983	-11.5776
 608	1	7	0.445763	-13.1707	-11.4173	-11.309
 609	1	8	-0.144255	-12.9447	-10.5295	-10.324
 610	1	8	-0.136881	-13.565	-10.7077	-12.3866
 611	1	8	-0.144092	-14.2627	-12.1147	-10.932
 612	1	7	0.367264	-11.7356	-13.3792	-10.4476
 613	1	8	-0.12104	-12.7382	-14.2701	-10.464
 614	1	8	-0.122614	-11.6856	-12.8253	-9.21099
 615	1	8	-0.112321	-10.6366	-14.1411	-10.6421
 616	1	3	-0.021957	-10.6891	-11.2843	-11.5901
 617	1	3	-0.054241	-9.64961	-11.2376	-10.6218
 618	1	3	-0.111709	-8.6599	-10.2272	-10.6803
 619	1	3	-0.087244	-10.6434	-10.2975	-12.6134
 620	1	3	-0.118951	-9.59555	-9.34121	-12.7195
 621	1	3	-0.044875	-8.61214	-9.30709	-11.71
 622	1	2	0.461883	-7.43815	-8.40035	-11.4755
 623	1	1	-0.007433	-6.83603	-8.8506	-10.3003
 624	1	2	0.491356	-7.50786	-9.9538	-9.75086
 625	1	3	-0.019445	-5.61674	-8.27503	-9.83236
 626	1	3	-0.186861	-5.58809	-6.88154	-9.63074
 627	1	3	-0.068374	-4.44496	-6.27213	-9.11919
 628	1	3	-0.009193	-4.45409	-9.05883	-9.56313
 629	1	3	0.220761	-3.32859	-8.47187	-8.9132
 630	1	3	-0.402098	-3.34475	-7.05829	-8.73421
 631	1	6	0.148422	-6.45029	-6.27109	-9.89521
 632	1	6	0.146291	-4.41452	-5.18022	-9.0033
 633	1	6	0.158981	-9.57682	-8.63587	-13.549
 634	1	6	0.141813	-11.4111	-10.2801	-13.3777
 635	1	6	0.143633	-9.58786	-11.9454	-9.81152
 636	1	5	-0.474465	-7.27547	-10.5662	-8.7164
 637	1	5	-0.469737	-7.01861	-7.55674	-12.2534
 638	1	7	-0.37887	-4.41999	-10.5163	-10.0321
 639	1	9	0.115886	-3.40512	-10.849	-10.2658
 640	1	9	0.123845	-5.0119	-10.6694	-10.9419