pySIMM System Object

1664 atoms
1818 bonds
3200 angles
4804 dihedrals
496 impropers

9 atom types
11 bond types
18 angle types
7 dihedral types
4 improper types

-153.184257 153.184257 xlo xhi
-153.184257 153.184257 ylo yhi
-153.184257 153.184257 zlo zhi

Masses

   1	12.01	# ca
   2	16.0	# o
   3	12.01	# c
   4	14.01	# n
   5	12.01	# c3
   6	19.0	# f
   7	1.008	# ha
   8	1.008	# hn
   9	1.008	# hc

Pair Coeffs

   1	0.086	3.3996695084235347	# ca
   2	0.21	2.959921901149463	# o
   3	0.086	3.3996695084235347	# c
   4	0.17	3.249998523775958	# n
   5	0.1094	3.3996695084235347	# c3
   6	0.061	3.1181455134911875	# f
   7	0.015	2.59964245953351	# ha
   8	0.0157	1.069078461768407	# hn
   9	0.0157	2.649532787749369	# hc

Bond Coeffs

   1	403.2	1.0129	# hn,n
   2	427.6	1.3789	# c,n
   3	461.1	1.3984	# ca,ca
   4	637.7	1.2183	# c,o
   5	300.9	1.5375	# c3,c3
   6	345.8	1.086	# ca,ha
   7	356.9	1.3497	# c3,f
   8	345.9	1.4906	# c,ca
   9	384.2	1.4121	# ca,n
  10	321.0	1.5156	# c3,ca
  11	330.6	1.0969	# c3,hc

Angle Coeffs

   1	66.11	109.24	# c3,c3,f
   2	46.8	110.47	# ca,c3,hc
   3	74.22	123.05	# n,c,o
   4	63.56	112.24	# ca,c3,ca
   5	70.89	107.36	# f,c3,f
   6	66.62	120.02	# ca,ca,ca
   7	62.86	111.51	# c3,c3,c3
   8	63.53	120.77	# c3,ca,ca
   9	63.15	112.07	# c3,c3,ca
  10	68.72	122.6	# ca,c,o
  11	63.82	123.71	# c,n,ca
  12	67.68	115.25	# ca,c,n
  13	48.33	117.55	# c,n,hn
  14	67.87	120.19	# ca,ca,n
  15	48.18	119.88	# ca,ca,ha
  16	64.28	120.33	# c,ca,ca
  17	63.74	127.08	# c,n,c
  18	39.4	107.58	# hc,c3,hc

Dihedral Coeffs

   1	1	2.5	2	180	# X,c,n,X
   2	1	0.45	2	180	# X,ca,n,X
   3	1	1.0	2	180	# X,c,ca,X
   4	2	2.5	2	180	2.0	1	0	# hn,n,c,o
   5	1	3.625	2	180	# X,ca,ca,X
   6	1	0.15555555555555556	3	0	# X,c3,c3,X
   7	1	0.0	2	0	# X,c3,ca,X

Improper Coeffs

   1	1.1	-1	2	# n,X,X,hn
   2	10.5	-1	2	# c,X,X,o
   3	1.1	-1	2	# ca,ca,ca,c3
   4	1.1	-1	2	# ca,X,X,ha

Atoms

   1	1	1	-0.004194	13.3622	11.5966	-60.3797
   2	1	1	-0.097141	13.2608	11.2067	-61.7388
   3	1	1	-0.172015	14.0462	10.107	-62.1911
   4	1	2	-0.377994	13.713	11.7259	-57.315
   5	1	1	0.033493	14.1671	10.8511	-59.5192
   6	1	1	-0.063739	14.8676	9.37886	-61.3054
   7	1	2	-0.398381	16.1547	8.06442	-58.7975
   8	1	1	0.032144	14.8859	9.76164	-59.9624
   9	1	3	0.032313	14.2643	10.9173	-58.043
  10	1	4	0.461698	15.0053	9.79438	-57.6853
  11	1	3	0.091945	15.473	9.07617	-58.784
  12	1	1	-0.10563	11.4232	15.7205	-62.255
  13	1	5	-0.099376	12.188	11.9051	-62.6188
  14	1	1	-0.043296	12.3599	13.4418	-62.453
  15	1	1	-0.073043	11.2541	14.3234	-62.2851
  16	1	1	-0.117827	12.718	16.2293	-62.3904
  17	1	1	-0.037562	13.6605	14.0019	-62.5626
  18	1	1	-0.083705	13.8089	15.395	-62.5229
  19	1	5	0.396	10.7934	11.3536	-62.1186
  20	1	5	0.310495	12.3167	11.6014	-64.1597
  21	1	6	-0.130298	10.8032	10.0034	-62.0177
  22	1	6	-0.128745	9.76123	11.6744	-62.9305
  23	1	6	-0.120019	10.4777	11.8144	-60.8881
  24	1	6	-0.104287	11.9925	10.3269	-64.4787
  25	1	6	-0.095507	11.5035	12.4037	-64.8854
  26	1	6	-0.104872	13.5665	11.8194	-64.624
  27	1	3	0.456145	15.0176	16.2443	-62.716
  28	1	3	0.550902	13.1805	17.635	-62.5312
  29	1	4	0.015704	14.5495	17.5524	-62.7543
  30	1	2	-0.456801	16.1627	15.8517	-62.8698
  31	1	2	-0.487703	12.4636	18.6192	-62.5893
  32	1	1	-0.116566	15.3385	18.6594	-63.176
  33	1	1	-0.050109	15.2938	19.0575	-64.5314
  34	1	1	0.154929	16.06	20.1566	-64.9577
  35	1	1	0.041555	16.1455	19.3709	-62.2587
  36	1	1	-0.223109	16.894	20.4753	-62.7022
  37	1	1	-0.080449	16.8567	20.8731	-64.0493
  38	1	5	-0.108008	16.1937	18.9809	-60.7843
  39	1	5	-0.182228	17.6633	22.0727	-64.5199
  40	1	5	-0.345523	14.4387	18.3105	-65.5519
  41	1	7	0.155183	12.7642	12.4062	-59.9703
  42	1	7	0.172904	13.9909	9.75714	-63.216
  43	1	7	0.158028	15.4172	8.49879	-61.6328
  44	1	7	0.153129	10.5693	16.3898	-62.1726
  45	1	7	0.142914	10.239	13.9489	-62.2219
  46	1	7	0.135531	14.5356	13.3737	-62.7219
  47	1	7	0.17765	17.5061	21.0342	-61.9988
  48	1	9	0.046541	15.1941	19.0347	-60.3346
  49	1	9	0.045238	16.8518	19.6471	-60.2135
  50	1	9	0.051941	16.5702	17.9581	-60.6628
  51	1	9	0.087961	18.7247	21.8167	-64.6182
  52	1	9	0.066782	17.5808	22.9074	-63.8106
  53	1	9	0.075908	17.3137	22.4335	-65.4981
  54	1	9	0.105172	13.3704	18.4097	-65.3286
  55	1	9	0.115625	14.6887	17.2397	-65.5795
  56	1	9	0.140296	14.5928	18.7043	-66.5644
  57	1	1	-0.004194	6.38118	3.29436	-51.6979
  58	1	1	-0.097141	7.11914	4.49838	-51.8628
  59	1	1	-0.172015	6.86038	5.28626	-53.0217
  60	1	2	-0.377994	4.81351	0.650855	-52.1165
  61	1	1	0.033493	5.49963	2.89034	-52.7103
  62	1	1	-0.063739	5.95413	4.87251	-54.0208
  63	1	2	-0.398381	4.17152	3.20833	-55.9358
  64	1	1	0.032144	5.3015	3.65058	-53.8455
  65	1	3	0.032313	4.80364	1.58868	-52.8973
  66	1	4	0.461698	4.25299	1.64353	-54.1805
  67	1	3	0.091945	4.47816	2.86994	-54.8049
  68	1	1	-0.10563	10.9752	4.29299	-53.6224
  69	1	5	-0.099376	8.27267	4.93451	-50.9041
  70	1	1	-0.043296	9.52601	5.16134	-51.8052
  71	1	1	-0.073043	9.88049	4.1523	-52.7462
  72	1	1	-0.117827	11.7206	5.47229	-53.552
  73	1	1	-0.037562	10.3306	6.33204	-51.7491
  74	1	1	-0.083705	11.4069	6.45764	-52.6408
  75	1	5	0.396	8.68049	3.84721	-49.8251
  76	1	5	0.310495	7.78366	6.22756	-50.1382
  77	1	6	-0.130298	9.80944	4.19084	-49.164
  78	1	6	-0.128745	8.94601	2.6447	-50.3788
  79	1	6	-0.120019	7.73102	3.64255	-48.884
  80	1	6	-0.104287	6.58517	6.02748	-49.5456
  81	1	6	-0.095507	7.61499	7.2892	-50.9583
  82	1	6	-0.104872	8.63682	6.61857	-49.1637
  83	1	3	0.456145	12.351	7.58745	-52.8437
  84	1	3	0.550902	12.8787	5.9331	-54.3656
  85	1	4	0.015704	13.1815	7.20814	-53.8969
  86	1	2	-0.456801	12.3553	8.63118	-52.2143
  87	1	2	-0.487703	13.3835	5.33119	-55.2997
  88	1	1	-0.116566	14.197	8.0453	-54.465
  89	1	1	-0.050109	14.0727	8.53404	-55.7925
  90	1	1	0.154929	15.1079	9.33547	-56.3441
  91	1	1	0.041555	15.3368	8.38741	-53.6985
  92	1	1	-0.223109	16.3321	9.20922	-54.2508
  93	1	1	-0.080449	16.2339	9.68308	-55.5671
  94	1	5	-0.108008	15.5343	7.88693	-52.2726
  95	1	5	-0.182228	17.3478	10.5661	-56.1232
  96	1	5	-0.345523	12.833	8.19592	-56.6396
  97	1	7	0.155183	6.52689	2.62821	-50.8528
  98	1	7	0.172904	7.4188	6.20302	-53.1898
  99	1	7	0.158028	5.81471	5.44473	-54.9332
 100	1	7	0.153129	11.2251	3.51828	-54.345
 101	1	7	0.142914	9.28599	3.24525	-52.817
 102	1	7	0.135531	10.135	7.14371	-51.0556
 103	1	7	0.17765	17.1966	9.47234	-53.6481
 104	1	9	0.046541	15.0103	8.52927	-51.5559
 105	1	9	0.045238	16.594	7.88573	-51.9957
 106	1	9	0.051941	15.1733	6.86099	-52.1425
 107	1	9	0.087961	16.97	11.5667	-56.3773
 108	1	9	0.066782	17.7916	10.1269	-57.0266
 109	1	9	0.075908	18.1612	10.6999	-55.3974
 110	1	9	0.105172	12.5084	9.03344	-57.2684
 111	1	9	0.115625	11.9571	7.95104	-56.0292
 112	1	9	0.140296	13.0323	7.33462	-57.2921
 113	1	1	-0.004194	-6.98068	0.235096	-60.6179
 114	1	1	-0.097141	-5.97943	0.511786	-59.6409
 115	1	1	-0.172015	-6.3999	0.762469	-58.3052
 116	1	2	-0.377994	-9.61191	-0.142939	-62.2589
 117	1	1	0.033493	-8.32759	0.226826	-60.2348
 118	1	1	-0.063739	-7.76139	0.744888	-57.9389
 119	1	2	-0.398381	-10.8566	0.775361	-57.8818
 120	1	1	0.032144	-8.70567	0.483637	-58.9336
 121	1	3	0.032313	-9.56026	0.0886982	-61.0616
 122	1	4	0.461698	-10.6191	0.309268	-60.1777
 123	1	3	0.091945	-10.1864	0.534239	-58.8717
 124	1	1	-0.10563	-2.95779	-1.60804	-57.2859
 125	1	5	-0.099376	-4.48173	0.743933	-60.0207
 126	1	1	-0.043296	-3.51212	0.155069	-58.9416
 127	1	1	-0.073043	-3.84713	-1.02859	-58.2215
 128	1	1	-0.117827	-1.69699	-1.01799	-57.1118
 129	1	1	-0.037562	-2.21283	0.699183	-58.7467
 130	1	1	-0.083705	-1.3325	0.0863931	-57.8469
 131	1	5	0.396	-4.35174	2.30996	-60.17
 132	1	5	0.310495	-4.08223	0.0505916	-61.3774
 133	1	6	-0.130298	-3.21651	2.70691	-60.7816
 134	1	6	-0.128745	-4.39445	2.9266	-58.9675
 135	1	6	-0.120019	-5.36734	2.82342	-60.9036
 136	1	6	-0.104287	-2.7436	0.0268459	-61.5738
 137	1	6	-0.095507	-4.49587	-1.2355	-61.3956
 138	1	6	-0.104872	-4.59841	0.665621	-62.4636
 139	1	3	0.456145	0.0861471	0.409654	-57.5392
 140	1	3	0.550902	-0.533981	-1.40478	-56.2582
 141	1	4	0.015704	0.493642	-0.516551	-56.5813
 142	1	2	-0.456801	0.754705	1.26658	-58.0932
 143	1	2	-0.487703	-0.51891	-2.32103	-55.4527
 144	1	1	-0.116566	1.83289	-0.560792	-56.061
 145	1	1	-0.050109	2.31988	0.473867	-55.2151
 146	1	1	0.154929	3.70048	0.525174	-54.8775
 147	1	1	0.041555	2.71617	-1.57686	-56.501
 148	1	1	-0.223109	4.06983	-1.53038	-56.1332
 149	1	1	-0.080449	4.57706	-0.473791	-55.3627
 150	1	5	-0.108008	2.25807	-2.71345	-57.4101
 151	1	5	-0.182228	6.08282	-0.420228	-55.1149
 152	1	5	-0.345523	1.37559	1.57981	-54.7333
 153	1	7	0.155183	-6.75485	0.0846441	-61.6669
 154	1	7	0.172904	-5.66482	1.02445	-57.544
 155	1	7	0.158028	-8.08081	0.977546	-56.9247
 156	1	7	0.153129	-3.22795	-2.50494	-56.7314
 157	1	7	0.142914	-4.80347	-1.51498	-58.3946
 158	1	7	0.135531	-1.84559	1.55298	-59.304
 159	1	7	0.17765	4.74406	-2.30012	-56.4981
 160	1	9	0.046541	1.64012	-3.42977	-56.8591
 161	1	9	0.045238	3.10869	-3.26886	-57.8247
 162	1	9	0.051941	1.67473	-2.33917	-58.2606
 163	1	9	0.087961	6.61826	-1.17336	-55.7092
 164	1	9	0.066782	6.31614	-0.61573	-54.0588
 165	1	9	0.075908	6.50538	0.556329	-55.3853
 166	1	9	0.105172	1.66268	1.97988	-53.7533
 167	1	9	0.115625	0.345208	1.22404	-54.6177
 168	1	9	0.140296	1.36559	2.41556	-55.4479
 169	1	1	-0.004194	-21.8169	-6.77602	-59.9535
 170	1	1	-0.097141	-20.925	-5.6879	-60.1561
 171	1	1	-0.172015	-21.4463	-4.36338	-60.0684
 172	1	2	-0.377994	-24.2507	-8.65584	-59.9032
 173	1	1	0.033493	-23.1635	-6.51409	-59.6895
 174	1	1	-0.063739	-22.807	-4.12108	-59.7882
 175	1	2	-0.398381	-25.8759	-4.32037	-59.5341
 176	1	1	0.032144	-23.6451	-5.22505	-59.6064
 177	1	3	0.032313	-24.3157	-7.45078	-59.7195
 178	1	4	0.461698	-25.4485	-6.63503	-59.6758
 179	1	3	0.091945	-25.1252	-5.28212	-59.5477
 180	1	1	-0.10563	-17.7205	-3.29795	-58.3983
 181	1	5	-0.099376	-19.4713	-5.92934	-60.6689
 182	1	1	-0.043296	-18.5516	-4.745	-60.2318
 183	1	1	-0.073043	-18.5673	-4.3233	-58.8713
 184	1	1	-0.117827	-16.8333	-2.70194	-59.3049
 185	1	1	-0.037562	-17.6518	-4.09401	-61.12
 186	1	1	-0.083705	-16.8164	-3.0836	-60.6304
 187	1	5	0.396	-19.5955	-6.07177	-62.2355
 188	1	5	0.310495	-18.8163	-7.24191	-60.0716
 189	1	6	-0.130298	-18.4562	-6.4786	-62.8302
 190	1	6	-0.128745	-19.9593	-4.90154	-62.8113
 191	1	6	-0.120019	-20.5328	-6.98088	-62.5861
 192	1	6	-0.104287	-17.4835	-7.28347	-60.3014
 193	1	6	-0.095507	-18.9838	-7.31071	-58.7315
 194	1	6	-0.104872	-19.3096	-8.39322	-60.5799
 195	1	3	0.456145	-15.8093	-2.2512	-61.3467
 196	1	3	0.550902	-15.8004	-1.6389	-59.121
 197	1	4	0.015704	-15.25	-1.42446	-60.3807
 198	1	2	-0.456801	-15.6044	-2.2399	-62.5485
 199	1	2	-0.487703	-15.5472	-1.05027	-58.0835
 200	1	1	-0.116566	-14.2817	-0.411	-60.6627
 201	1	1	-0.050109	-12.9026	-0.630378	-60.409
 202	1	1	0.154929	-11.9833	0.437365	-60.5733
 203	1	1	0.041555	-14.7268	0.844786	-61.1338
 204	1	1	-0.223109	-13.797	1.87139	-61.3461
 205	1	1	-0.080449	-12.4387	1.68767	-61.0488
 206	1	5	-0.108008	-16.2072	1.15142	-61.3399
 207	1	5	-0.182228	-11.4913	2.8724	-61.2058
 208	1	5	-0.345523	-12.4255	-1.99018	-59.8903
 209	1	7	0.155183	-21.5237	-7.80847	-60.1011
 210	1	7	0.172904	-20.8118	-3.50759	-60.2911
 211	1	7	0.158028	-23.2166	-3.11002	-59.7897
 212	1	7	0.153129	-17.7371	-2.9888	-57.3534
 213	1	7	0.142914	-19.2428	-4.80066	-58.1642
 214	1	7	0.135531	-17.5678	-4.35452	-62.169
 215	1	7	0.17765	-14.145	2.8402	-61.696
 216	1	9	0.046541	-16.3715	2.20459	-61.6036
 217	1	9	0.045238	-16.7846	0.955697	-60.4236
 218	1	9	0.051941	-16.6287	0.54225	-62.1452
 219	1	9	0.087961	-10.6983	2.65362	-61.9338
 220	1	9	0.066782	-11.0213	3.13565	-60.2503
 221	1	9	0.075908	-12.0166	3.7672	-61.5632
 222	1	9	0.105172	-11.3638	-2.17593	-60.0932
 223	1	9	0.115625	-12.9646	-2.81637	-60.3696
 224	1	9	0.140296	-12.5785	-2.06806	-58.8043
 225	1	4	0.486064	-33.024	-10.6548	-49.9205
 226	1	3	0.047133	-33.9687	-10.798	-50.9332
 227	1	1	0.001076	-33.1995	-11.2344	-52.1132
 228	1	3	0.034038	-31.7182	-10.8856	-50.3552
 229	1	1	0.050122	-31.8622	-11.2863	-51.782
 230	1	2	-0.383076	-35.1834	-10.7201	-50.8638
 231	1	2	-0.380811	-30.6887	-10.8775	-49.699
 232	1	1	-0.001248	-33.6816	-11.6771	-53.3442
 233	1	1	-0.036565	-30.9206	-11.7656	-52.6944
 234	1	1	-0.208842	-31.3849	-12.2209	-53.9482
 235	1	1	-0.065319	-32.7663	-12.2021	-54.2915
 236	1	7	0.153391	-34.7542	-11.6676	-53.4988
 237	1	7	0.155343	-29.8695	-11.8294	-52.4197
 238	1	7	0.174191	-30.6581	-12.6369	-54.6432
 239	1	5	-0.106637	-33.2365	-12.8788	-55.6105
 240	1	5	0.445763	-34.6956	-12.4668	-56.0499
 241	1	6	-0.144255	-35.662	-12.9895	-55.2604
 242	1	6	-0.136881	-34.8729	-11.1279	-56.0227
 243	1	6	-0.144092	-34.9664	-12.865	-57.3141
 244	1	5	0.367264	-33.2243	-14.4254	-55.305
 245	1	6	-0.12104	-33.8304	-15.1625	-56.2659
 246	1	6	-0.122614	-33.8621	-14.7005	-54.1434
 247	1	6	-0.112321	-31.9685	-14.9066	-55.1466
 248	1	1	-0.021957	-32.2613	-12.4501	-56.7462
 249	1	1	-0.054241	-31.8984	-11.0822	-56.8543
 250	1	1	-0.111709	-30.9588	-10.6914	-57.8179
 251	1	1	-0.087244	-31.7004	-13.3687	-57.6801
 252	1	1	-0.118951	-30.7502	-12.9559	-58.6383
 253	1	1	-0.044875	-30.3808	-11.6072	-58.6688
 254	1	3	0.461883	-29.3867	-10.8974	-59.5195
 255	1	4	-0.007433	-29.4649	-9.55917	-59.1459
 256	1	3	0.491356	-30.3863	-9.35215	-58.1256
 257	1	1	-0.019445	-28.7316	-8.5125	-59.7814
 258	1	1	-0.186861	-29.3007	-7.91729	-60.9205
 259	1	1	-0.068374	-28.6124	-6.93051	-61.6321
 260	1	1	-0.009193	-27.4659	-8.07661	-59.3108
 261	1	1	0.220761	-26.7589	-7.07829	-60.0372
 262	1	1	-0.402098	-27.344	-6.52811	-61.2006
 263	1	7	0.148422	-30.2804	-8.23612	-61.2732
 264	1	7	0.146291	-29.0581	-6.48789	-62.5207
 265	1	7	0.158981	-30.2997	-13.6675	-59.3273
 266	1	7	0.141813	-31.9723	-14.4193	-57.6655
 267	1	7	0.143633	-32.3114	-10.3358	-56.1802
 268	1	2	-0.474465	-30.6876	-8.30173	-57.5865
 269	1	2	-0.469737	-28.6173	-11.4229	-60.306
 270	1	5	-0.37887	-26.8931	-8.70022	-58.0356
 271	1	9	0.115886	-27.6461	-8.73666	-57.2377
 272	1	9	0.123845	-26.0431	-8.14708	-57.6245
 273	1	9	0.138418	-26.5527	-9.72696	-58.2314
 274	1	7	0.21348	-26.815	-5.76236	-61.7685
 275	1	1	-0.004194	-39.073	-17.3549	-40.5109
 276	1	1	-0.097141	-38.5427	-16.1504	-41.0456
 277	1	1	-0.172015	-37.7176	-15.3467	-40.2067
 278	1	2	-0.377994	-40.1204	-19.6462	-38.7032
 279	1	1	0.033493	-38.7551	-17.7102	-39.1964
 280	1	1	-0.063739	-37.369	-15.7509	-38.8992
 281	1	2	-0.398381	-37.1582	-17.1783	-36.1285
 282	1	1	0.032144	-37.9044	-16.9506	-38.4208
 283	1	3	0.032313	-39.2812	-18.8264	-38.3709
 284	1	4	0.461698	-38.6857	-18.6649	-37.1233
 285	1	3	0.091945	-37.8123	-17.5802	-37.075
 286	1	1	-0.10563	-35.2124	-14.9569	-43.4481
 287	1	5	-0.099376	-38.9163	-15.6317	-42.4668
 288	1	1	-0.043296	-37.6687	-14.9764	-43.1298
 289	1	1	-0.073043	-36.3747	-15.533	-42.9025
 290	1	1	-0.117827	-35.3661	-13.84	-44.2701
 291	1	1	-0.037562	-37.7787	-13.8857	-44.0347
 292	1	1	-0.083705	-36.6128	-13.3471	-44.5908
 293	1	5	0.396	-39.3393	-16.7779	-43.4596
 294	1	5	0.310495	-40.1186	-14.6348	-42.2479
 295	1	6	-0.130298	-40.5452	-17.3139	-43.1719
 296	1	6	-0.128745	-38.4307	-17.7807	-43.4454
 297	1	6	-0.120019	-39.4097	-16.343	-44.7417
 298	1	6	-0.104287	-40.7346	-14.2632	-43.3938
 299	1	6	-0.095507	-41.0764	-15.1888	-41.4688
 300	1	6	-0.104872	-39.7206	-13.5059	-41.6136
 301	1	3	0.456145	-36.4283	-12.1921	-45.5113
 302	1	3	0.550902	-34.3418	-12.9841	-44.9191
 303	1	4	0.015704	-35.0516	-12.039	-45.6458
 304	1	2	-0.456801	-37.3137	-11.5405	-46.0388
 305	1	2	-0.487703	-33.1345	-13.0996	-44.8058
 306	1	1	-0.116566	-34.4304	-11.0531	-46.4697
 307	1	1	-0.050109	-33.9737	-11.3822	-47.7712
 308	1	1	0.154929	-33.3889	-10.3715	-48.5774
 309	1	1	0.041555	-34.2684	-9.74084	-45.9757
 310	1	1	-0.223109	-33.652	-8.76421	-46.7722
 311	1	1	-0.080449	-33.2223	-9.06279	-48.0735
 312	1	5	-0.108008	-34.7535	-9.35625	-44.5852
 313	1	5	-0.182228	-32.6003	-7.95423	-48.9168
 314	1	5	-0.345523	-34.1007	-12.811	-48.3215
 315	1	7	0.155183	-39.7587	-17.9931	-41.0571
 316	1	7	0.172904	-37.3458	-14.3903	-40.5707
 317	1	7	0.158028	-36.7362	-15.1373	-38.2607
 318	1	7	0.153129	-34.2235	-15.3572	-43.2309
 319	1	7	0.142914	-36.2626	-16.4136	-42.2756
 320	1	7	0.135531	-38.73	-13.4446	-44.3076
 321	1	7	0.17765	-33.5355	-7.75656	-46.3877
 322	1	9	0.046541	-34.4732	-8.32606	-44.3296
 323	1	9	0.045238	-34.3196	-10.0127	-43.8185
 324	1	9	0.051941	-35.8468	-9.42357	-44.5196
 325	1	9	0.087961	-33.1232	-7.83367	-49.8759
 326	1	9	0.066782	-31.5459	-8.16439	-49.1274
 327	1	9	0.075908	-32.6398	-6.98319	-48.4058
 328	1	9	0.105172	-34.4723	-13.5411	-47.5966
 329	1	9	0.115625	-33.1272	-13.1905	-48.6576
 330	1	9	0.140296	-34.7948	-12.8488	-49.1723
 331	1	1	-0.004194	-37.1227	-29.0017	-32.2847
 332	1	1	-0.097141	-36.5967	-29.5368	-33.501
 333	1	1	-0.172015	-36.072	-30.8592	-33.4589
 334	1	2	-0.377994	-37.9444	-28.3676	-29.3224
 335	1	1	0.033493	-37.002	-29.7322	-31.0883
 336	1	1	-0.063739	-36.02	-31.6032	-32.2605
 337	1	2	-0.398381	-36.1934	-32.6524	-29.3223
 338	1	1	0.032144	-36.4773	-31.007	-31.08
 339	1	3	0.032313	-37.4026	-29.3953	-29.6899
 340	1	4	0.461698	-37.0788	-30.511	-28.9143
 341	1	3	0.091945	-36.535	-31.5398	-29.6866
 342	1	1	-0.10563	-35.9233	-25.28	-33.2374
 343	1	5	-0.099376	-36.6148	-28.7335	-34.852
 344	1	1	-0.043296	-36.7455	-27.2092	-34.5487
 345	1	1	-0.073043	-35.8342	-26.6286	-33.6235
 346	1	1	-0.117827	-36.9097	-24.4951	-33.832
 347	1	1	-0.037562	-37.7134	-26.3617	-35.1621
 348	1	1	-0.083705	-37.767	-25.0165	-34.777
 349	1	5	0.396	-35.2715	-28.8998	-35.6757
 350	1	5	0.310495	-37.8137	-29.2727	-35.7247
 351	1	6	-0.130298	-35.147	-30.087	-36.3146
 352	1	6	-0.128745	-34.1725	-28.7758	-34.9013
 353	1	6	-0.120019	-35.1631	-27.9463	-36.6259
 354	1	6	-0.104287	-37.8051	-30.6161	-35.8866
 355	1	6	-0.095507	-37.8209	-28.7578	-36.9762
 356	1	6	-0.104872	-39.0048	-28.9759	-35.1549
 357	1	3	0.456145	-38.6746	-23.9254	-35.2153
 358	1	3	0.550902	-37.2634	-23.0719	-33.6051
 359	1	4	0.015704	-38.295	-22.8029	-34.49
 360	1	2	-0.456801	-39.5393	-24.0082	-36.0688
 361	1	2	-0.487703	-36.7525	-22.3237	-32.7889
 362	1	1	-0.116566	-38.8494	-21.5077	-34.6846
 363	1	1	-0.050109	-38.4654	-20.7393	-35.8104
 364	1	1	0.154929	-39.0306	-19.4534	-35.9953
 365	1	1	0.041555	-39.7914	-21.0112	-33.761
 366	1	1	-0.223109	-40.3584	-19.7471	-33.9719
 367	1	1	-0.080449	-40.0028	-18.9713	-35.087
 368	1	5	-0.108008	-40.2271	-21.8225	-32.5453
 369	1	5	-0.182228	-40.7002	-17.6268	-35.2881
 370	1	5	-0.345523	-37.4802	-21.3325	-36.826
 371	1	7	0.155183	-37.5987	-28.0249	-32.2456
 372	1	7	0.172904	-35.7141	-31.3422	-34.3619
 373	1	7	0.158028	-35.6292	-32.6202	-32.2464
 374	1	7	0.153129	-35.2494	-24.8567	-32.4943
 375	1	7	0.142914	-35.0737	-27.2435	-33.1512
 376	1	7	0.135531	-38.4324	-26.7062	-35.8993
 377	1	7	0.17765	-41.0972	-19.3718	-33.2671
 378	1	9	0.046541	-40.532	-22.8359	-32.8261
 379	1	9	0.045238	-41.0767	-21.357	-32.0321
 380	1	9	0.051941	-39.4073	-21.9025	-31.816
 381	1	9	0.087961	-41.1714	-17.5676	-36.2769
 382	1	9	0.066782	-39.9942	-16.7933	-35.1912
 383	1	9	0.075908	-41.4967	-17.4681	-34.5503
 384	1	9	0.105172	-36.6473	-21.8475	-36.3293
 385	1	9	0.115625	-37.0155	-20.584	-37.4787
 386	1	9	0.140296	-37.9892	-22.0591	-37.4733
 387	1	4	0.486064	-35.4592	-31.2576	-14.8993
 388	1	3	0.047133	-34.832	-30.0201	-15.0564
 389	1	1	0.001076	-35.3783	-29.4902	-16.3335
 390	1	3	0.034038	-36.303	-31.5868	-15.9564
 391	1	1	0.050122	-36.2251	-30.435	-16.8701
 392	1	2	-0.383076	-34.135	-29.4145	-14.2597
 393	1	2	-0.380811	-37.0885	-32.5165	-16.0492
 394	1	1	-0.001248	-35.2448	-28.2216	-16.9081
 395	1	1	-0.036565	-36.9836	-30.1776	-18.0046
 396	1	1	-0.208842	-36.8983	-28.8949	-18.5702
 397	1	1	-0.065319	-36.007	-27.9028	-18.0641
 398	1	7	0.153391	-34.6069	-27.4944	-16.4122
 399	1	7	0.155343	-37.6818	-30.9208	-18.3797
 400	1	7	0.174191	-37.5708	-28.6735	-19.391
 401	1	5	-0.106637	-36.0177	-26.4663	-18.6767
 402	1	5	0.445763	-37.0427	-25.6753	-17.7669
 403	1	6	-0.144255	-36.729	-25.7503	-16.4505
 404	1	6	-0.136881	-38.29	-26.1816	-17.8915
 405	1	6	-0.144092	-37.119	-24.355	-18.0312
 406	1	5	0.367264	-34.633	-25.7226	-18.6641
 407	1	6	-0.12104	-34.6938	-24.5699	-19.3756
 408	1	6	-0.122614	-33.6845	-26.4978	-19.2312
 409	1	6	-0.112321	-34.1776	-25.3825	-17.4368
 410	1	1	-0.021957	-36.3966	-26.5801	-20.1925
 411	1	1	-0.054241	-35.8433	-27.6251	-20.9904
 412	1	1	-0.111709	-36.3959	-27.8834	-22.2558
 413	1	1	-0.087244	-37.3439	-25.7138	-20.8002
 414	1	1	-0.118951	-37.8023	-25.9252	-22.1146
 415	1	1	-0.044875	-37.3495	-27.052	-22.7994
 416	1	3	0.461883	-37.8175	-27.6315	-24.0857
 417	1	4	-0.007433	-37.1468	-28.842	-24.205
 418	1	3	0.491356	-36.2426	-29.0562	-23.1657
 419	1	1	-0.019445	-37.464	-29.7907	-25.2178
 420	1	1	-0.186861	-38.3635	-30.8143	-24.8743
 421	1	1	-0.068374	-38.7559	-31.767	-25.8177
 422	1	1	-0.009193	-36.9664	-29.6878	-26.5431
 423	1	1	0.220761	-37.4054	-30.6301	-27.5222
 424	1	1	-0.402098	-38.2864	-31.6671	-27.1334
 425	1	7	0.148422	-38.7548	-30.8824	-23.8625
 426	1	7	0.146291	-39.4373	-32.5666	-25.5322
 427	1	7	0.158981	-38.5623	-25.2807	-22.5556
 428	1	7	0.141813	-37.7775	-24.8823	-20.2537
 429	1	7	0.143633	-35.1145	-28.3179	-20.5801
 430	1	2	-0.474465	-35.5373	-30.0296	-22.9632
 431	1	2	-0.469737	-38.6476	-27.145	-24.8384
 432	1	5	-0.37887	-35.9826	-28.5577	-26.8757
 433	1	9	0.115886	-36.5167	-27.6073	-27.0096
 434	1	9	0.123845	-35.4062	-28.7482	-27.7895
 435	1	9	0.138418	-35.2427	-28.4131	-26.0787
 436	1	7	0.21348	-38.6117	-32.4062	-27.8658
 437	1	1	-0.004194	-33.1571	-37.5685	-7.61149
 438	1	1	-0.097141	-31.8633	-38.1084	-7.46982
 439	1	1	-0.172015	-31.0343	-37.6277	-6.41428
 440	1	2	-0.377994	-35.7635	-36.0178	-7.51882
 441	1	1	0.033493	-33.5104	-36.4731	-6.84028
 442	1	1	-0.063739	-31.4183	-36.5157	-5.63172
 443	1	2	-0.398381	-33.0024	-34.1774	-4.26762
 444	1	1	0.032144	-32.6735	-35.9492	-5.88047
 445	1	3	0.032313	-34.7775	-35.7264	-6.86257
 446	1	4	0.461698	-34.6202	-34.7438	-5.8873
 447	1	3	0.091945	-33.3942	-34.8302	-5.22067
 448	1	1	-0.10563	-33.4392	-38.8089	-11.8806
 449	1	5	-0.099376	-31.4215	-39.1516	-8.5293
 450	1	1	-0.043296	-31.9236	-38.6216	-9.92358
 451	1	1	-0.073043	-32.6851	-39.4054	-10.8388
 452	1	1	-0.117827	-33.3601	-37.4164	-12.0509
 453	1	1	-0.037562	-31.771	-37.2402	-10.2239
 454	1	1	-0.083705	-32.4981	-36.6664	-11.2764
 455	1	5	0.396	-29.8564	-39.3347	-8.60562
 456	1	5	0.310495	-32.083	-40.4993	-8.07479
 457	1	6	-0.130298	-29.47	-39.9824	-9.72489
 458	1	6	-0.128745	-29.328	-40.015	-7.55002
 459	1	6	-0.120019	-29.2508	-38.1315	-8.67354
 460	1	6	-0.104287	-31.8533	-40.7377	-6.74854
 461	1	6	-0.095507	-31.5921	-41.5272	-8.79664
 462	1	6	-0.104872	-33.4275	-40.5128	-8.26649
 463	1	3	0.456145	-32.7733	-35.2209	-11.5167
 464	1	3	0.550902	-34.233	-36.4575	-12.8074
 465	1	4	0.015704	-33.86	-35.1884	-12.3778
 466	1	2	-0.456801	-32.3039	-34.2935	-10.8765
 467	1	2	-0.487703	-35.2429	-36.7386	-13.4262
 468	1	1	-0.116566	-34.6889	-34.0284	-12.5218
 469	1	1	-0.050109	-34.5845	-33.183	-13.6522
 470	1	1	0.154929	-35.4277	-32.0378	-13.7178
 471	1	1	0.041555	-35.6129	-33.7185	-11.4874
 472	1	1	-0.223109	-36.4295	-32.5832	-11.57
 473	1	1	-0.080449	-36.355	-31.74	-12.6824
 474	1	5	-0.108008	-35.7101	-34.5433	-10.2165
 475	1	5	-0.182228	-37.3188	-30.5532	-12.7659
 476	1	5	-0.345523	-33.618	-33.5228	-14.8082
 477	1	7	0.155183	-33.858	-37.9228	-8.36911
 478	1	7	0.172904	-30.0542	-38.0549	-6.23115
 479	1	7	0.158028	-30.7715	-36.1127	-4.85555
 480	1	7	0.153129	-34.1246	-39.4032	-12.484
 481	1	7	0.142914	-32.8009	-40.4726	-10.6883
 482	1	7	0.135531	-31.2201	-36.585	-9.55429
 483	1	7	0.17765	-37.1233	-32.3613	-10.7611
 484	1	9	0.046541	-35.915	-35.6014	-10.4329
 485	1	9	0.045238	-36.5017	-34.1853	-9.54587
 486	1	9	0.051941	-34.7693	-34.4888	-9.65544
 487	1	9	0.087961	-36.7763	-29.5998	-12.8325
 488	1	9	0.066782	-37.9668	-30.4923	-11.8835
 489	1	9	0.075908	-37.9737	-30.6398	-13.6389
 490	1	9	0.105172	-34.1461	-34.0281	-15.6298
 491	1	9	0.115625	-32.8014	-34.184	-14.4987
 492	1	9	0.140296	-33.131	-32.6285	-15.2183
 493	1	1	-0.004194	-34.2879	-23.7487	-8.70487
 494	1	1	-0.097141	-34.905	-23.2508	-7.51878
 495	1	1	-0.172015	-35.3808	-21.9044	-7.53683
 496	1	2	-0.377994	-32.9121	-24.09	-11.5148
 497	1	1	0.033493	-34.2745	-22.945	-9.86088
 498	1	1	-0.063739	-35.31	-21.1019	-8.69145
 499	1	2	-0.398381	-34.7431	-19.8465	-11.4131
 500	1	1	0.032144	-34.8088	-21.673	-9.85821
 501	1	3	0.032313	-33.5933	-23.1405	-11.1758
 502	1	4	0.461698	-33.7773	-21.9473	-11.8747
 503	1	3	0.091945	-34.5199	-21.0169	-11.1508
 504	1	1	-0.10563	-36.9281	-27.0256	-7.93912
 505	1	5	-0.099376	-34.9692	-24.1317	-6.21778
 506	1	1	-0.043296	-35.4476	-25.5724	-6.57742
 507	1	1	-0.073043	-36.3899	-25.7622	-7.6292
 508	1	1	-0.117827	-36.5793	-28.0996	-7.11755
 509	1	1	-0.037562	-35.1272	-26.6906	-5.76291
 510	1	1	-0.083705	-35.7303	-27.9246	-6.04388
 511	1	5	0.396	-33.5335	-24.0632	-5.56283
 512	1	5	0.310495	-36.0265	-23.6323	-5.15339
 513	1	6	-0.130298	-32.6654	-24.9384	-6.12017
 514	1	6	-0.128745	-33.5467	-24.3228	-4.2389
 515	1	6	-0.120019	-32.9823	-22.8295	-5.68938
 516	1	6	-0.104287	-36.2066	-24.504	-4.13605
 517	1	6	-0.095507	-37.2388	-23.5133	-5.73618
 518	1	6	-0.104872	-35.6972	-22.474	-4.52768
 519	1	3	0.456145	-35.6342	-29.2234	-5.33322
 520	1	3	0.550902	-37.0595	-29.5081	-7.12737
 521	1	4	0.015704	-36.414	-30.1178	-6.0532
 522	1	2	-0.456801	-34.9824	-29.4397	-4.33071
 523	1	2	-0.487703	-37.8451	-29.9837	-7.93588
 524	1	1	-0.116566	-36.5382	-31.4977	-5.69932
 525	1	1	-0.050109	-35.495	-32.4286	-5.97278
 526	1	1	0.154929	-35.6314	-33.7851	-5.57845
 527	1	1	0.041555	-37.7051	-31.9157	-5.02527
 528	1	1	-0.223109	-37.7963	-33.2423	-4.58399
 529	1	1	-0.080449	-36.7826	-34.1758	-4.85826
 530	1	5	-0.108008	-38.8438	-30.947	-4.69712
 531	1	5	-0.182228	-36.9412	-35.586	-4.30299
 532	1	5	-0.345523	-34.1932	-31.9795	-6.64326
 533	1	7	0.155183	-33.8212	-24.7296	-8.73144
 534	1	7	0.172904	-35.8023	-21.4437	-6.65041
 535	1	7	0.158028	-35.6369	-20.0632	-8.68536
 536	1	7	0.153129	-37.6374	-27.1549	-8.75657
 537	1	7	0.142914	-36.7274	-24.9111	-8.217
 538	1	7	0.135531	-34.4723	-26.6002	-4.89994
 539	1	7	0.17765	-38.6734	-33.557	-4.02011
 540	1	9	0.046541	-39.6345	-31.4297	-4.11466
 541	1	9	0.045238	-39.305	-30.557	-5.60784
 542	1	9	0.051941	-38.4774	-30.0969	-4.1054
 543	1	9	0.087961	-36.7595	-36.3565	-5.06371
 544	1	9	0.066782	-37.957	-35.7581	-3.92412
 545	1	9	0.075908	-36.2481	-35.7562	-3.47296
 546	1	9	0.105172	-34.3197	-31.0859	-7.26618
 547	1	9	0.115625	-33.775	-32.744	-7.3105
 548	1	9	0.140296	-33.4346	-31.7469	-5.88129
 549	1	4	0.486064	-21.0575	-15.0207	-17.6852
 550	1	3	0.047133	-21.2157	-14.8819	-16.3211
 551	1	1	0.001076	-22.1223	-15.9889	-15.9434
 552	1	3	0.034038	-21.8644	-15.9942	-18.2655
 553	1	1	0.050122	-22.5195	-16.6465	-17.0975
 554	1	2	-0.383076	-20.6578	-14.0922	-15.5777
 555	1	2	-0.380811	-21.9817	-16.2667	-19.4521
 556	1	1	-0.001248	-22.5326	-16.3954	-14.6703
 557	1	1	-0.036565	-23.376	-17.7477	-17.0349
 558	1	1	-0.208842	-23.8347	-18.1406	-15.7598
 559	1	1	-0.065319	-23.4451	-17.4781	-14.561
 560	1	7	0.153391	-22.1657	-15.8486	-13.8071
 561	1	7	0.155343	-23.6773	-18.2742	-17.9398
 562	1	7	0.174191	-24.5133	-18.9891	-15.7096
 563	1	5	-0.106637	-24.0509	-17.9767	-13.211
 564	1	5	0.445763	-23.2886	-19.284	-12.7975
 565	1	6	-0.144255	-23.4718	-20.2708	-13.6983
 566	1	6	-0.136881	-23.7073	-19.7581	-11.6088
 567	1	6	-0.144092	-21.9574	-19.0749	-12.6989
 568	1	5	0.367264	-23.9384	-16.9386	-12.0229
 569	1	6	-0.12104	-24.3117	-15.6875	-12.3987
 570	1	6	-0.122614	-22.6899	-16.8098	-11.517
 571	1	6	-0.112321	-24.7417	-17.3259	-10.9984
 572	1	1	-0.021957	-25.5641	-18.195	-13.5038
 573	1	1	-0.054241	-26.2785	-19.3971	-13.2552
 574	1	1	-0.111709	-27.6127	-19.4828	-13.6851
 575	1	1	-0.087244	-26.2481	-17.1233	-14.1389
 576	1	1	-0.118951	-27.5951	-17.2035	-14.5173
 577	1	1	-0.044875	-28.2476	-18.4196	-14.2949
 578	1	3	0.461883	-29.6526	-18.8208	-14.5658
 579	1	4	-0.007433	-29.7784	-20.116	-14.0813
 580	1	3	0.491356	-28.5876	-20.6051	-13.5684
 581	1	1	-0.019445	-31.0247	-20.7879	-14.1206
 582	1	1	-0.186861	-31.6362	-20.9414	-15.3794
 583	1	1	-0.068374	-32.9738	-21.3344	-15.4829
 584	1	1	-0.009193	-31.7166	-21.1112	-12.9326
 585	1	1	0.220761	-33.0401	-21.6114	-13.0449
 586	1	1	-0.402098	-33.6631	-21.6919	-14.3151
 587	1	7	0.148422	-31.1051	-20.6473	-16.2744
 588	1	7	0.146291	-33.4621	-21.3652	-16.4598
 589	1	7	0.158981	-28.1068	-16.3663	-14.9909
 590	1	7	0.141813	-25.7156	-16.2035	-14.3646
 591	1	7	0.143633	-25.831	-20.2627	-12.7747
 592	1	2	-0.474465	-28.3538	-21.7122	-13.1177
 593	1	2	-0.469737	-30.5194	-18.139	-15.0834
 594	1	5	-0.37887	-31.0422	-20.8494	-11.5697
 595	1	9	0.115886	-30.4929	-19.8999	-11.5657
 596	1	9	0.123845	-30.3271	-21.652	-11.3339
 597	1	9	0.138418	-31.7398	-20.7794	-10.7276
 598	1	7	0.21348	-34.6979	-22.0146	-14.3954
 599	1	1	-0.004194	-8.13416	-14.4717	-17.1711
 600	1	1	-0.097141	-9.38971	-13.9836	-17.6324
 601	1	1	-0.172015	-9.40087	-13.0942	-18.7458
 602	1	2	-0.377994	-5.14031	-14.9711	-16.5329
 603	1	1	0.033493	-6.97022	-14.1033	-17.8505
 604	1	1	-0.063739	-8.21557	-12.7735	-19.4407
 605	1	2	-0.398381	-5.25436	-12.4155	-20.4194
 606	1	1	0.032144	-7.00936	-13.3117	-18.9814
 607	1	3	0.032313	-5.54887	-14.3579	-17.5071
 608	1	4	0.461698	-4.8057	-13.6938	-18.4897
 609	1	3	0.091945	-5.61067	-13.0603	-19.4386
 610	1	1	-0.10563	-13.0559	-15.2803	-19.7326
 611	1	5	-0.099376	-10.6906	-14.2524	-16.8191
 612	1	1	-0.043296	-11.9456	-14.2859	-17.7484
 613	1	1	-0.073043	-11.9035	-15.0372	-18.9536
 614	1	1	-0.117827	-14.2698	-14.7308	-19.3061
 615	1	1	-0.037562	-13.1966	-13.757	-17.3523
 616	1	1	-0.083705	-14.3151	-13.9672	-18.1615
 617	1	5	0.396	-10.7281	-13.1076	-15.7349
 618	1	5	0.310495	-10.7107	-15.6792	-16.1289
 619	1	6	-0.130298	-9.52739	-13.0008	-15.1085
 620	1	6	-0.128745	-11.6656	-13.2874	-14.775
 621	1	6	-0.120019	-10.9727	-11.9009	-16.2978
 622	1	6	-0.104287	-10.3089	-16.6447	-16.9944
 623	1	6	-0.095507	-9.9359	-15.7681	-15.02
 624	1	6	-0.104872	-11.9583	-16.0272	-15.7424
 625	1	3	0.456145	-15.694	-13.4802	-17.9711
 626	1	3	0.550902	-15.6564	-14.7938	-19.8736
 627	1	4	0.015704	-16.4353	-14.0265	-19.0067
 628	1	2	-0.456801	-16.0691	-12.7489	-17.0756