pySIMM System Object

2244 atoms
2453 bonds
4316 angles
6492 dihedrals
672 impropers

9 atom types
11 bond types
18 angle types
7 dihedral types
4 improper types

-166.615561 166.615561 xlo xhi
-166.615561 166.615561 ylo yhi
-166.615561 166.615561 zlo zhi

Masses

   1	14.01	# n
   2	12.01	# c
   3	12.01	# ca
   4	1.008	# hn
   5	16.0	# o
   6	1.008	# ha
   7	12.01	# c3
   8	19.0	# f
   9	1.008	# hc

Pair Coeffs

   1	0.17	3.249998523775958	# n
   2	0.086	3.3996695084235347	# c
   3	0.086	3.3996695084235347	# ca
   4	0.0157	1.069078461768407	# hn
   5	0.21	2.959921901149463	# o
   6	0.015	2.59964245953351	# ha
   7	0.1094	3.3996695084235347	# c3
   8	0.061	3.1181455134911875	# f
   9	0.0157	2.649532787749369	# hc

Bond Coeffs

   1	345.8	1.086	# ca,ha
   2	637.7	1.2183	# c,o
   3	321.0	1.5156	# c3,ca
   4	300.9	1.5375	# c3,c3
   5	384.2	1.4121	# ca,n
   6	330.6	1.0969	# c3,hc
   7	403.2	1.0129	# hn,n
   8	356.9	1.3497	# c3,f
   9	461.1	1.3984	# ca,ca
  10	427.6	1.3789	# c,n
  11	345.9	1.4906	# c,ca

Angle Coeffs

   1	66.11	109.24	# c3,c3,f
   2	46.8	110.47	# ca,c3,hc
   3	39.4	107.58	# hc,c3,hc
   4	63.82	123.71	# c,n,ca
   5	66.62	120.02	# ca,ca,ca
   6	63.53	120.77	# c3,ca,ca
   7	62.86	111.51	# c3,c3,c3
   8	63.74	127.08	# c,n,c
   9	48.33	117.55	# c,n,hn
  10	64.28	120.33	# c,ca,ca
  11	48.18	119.88	# ca,ca,ha
  12	68.72	122.6	# ca,c,o
  13	63.15	112.07	# c3,c3,ca
  14	70.89	107.36	# f,c3,f
  15	67.87	120.19	# ca,ca,n
  16	63.56	112.24	# ca,c3,ca
  17	67.68	115.25	# ca,c,n
  18	74.22	123.05	# n,c,o

Dihedral Coeffs

   1	2	2.5	2	180	2.0	1	0	# hn,n,c,o
   2	1	3.625	2	180	# X,ca,ca,X
   3	1	0.15555555555555556	3	0	# X,c3,c3,X
   4	1	0.0	2	0	# X,c3,ca,X
   5	1	1.0	2	180	# X,c,ca,X
   6	1	2.5	2	180	# X,c,n,X
   7	1	0.45	2	180	# X,ca,n,X

Improper Coeffs

   1	1.1	-1	2	# n,X,X,hn
   2	1.1	-1	2	# ca,X,X,ha
   3	10.5	-1	2	# c,X,X,o
   4	1.1	-1	2	# ca,ca,ca,c3

Atoms

   1	1	1	0.486064	19.3858	-2.72918	36.357
   2	1	2	0.047133	19.5283	-1.48509	36.965
   3	1	3	0.001076	18.574	-0.606293	36.2498
   4	1	2	0.034038	18.4257	-2.74376	35.3476
   5	1	3	0.050122	17.9112	-1.35028	35.2952
   6	1	5	-0.383076	20.214	-1.18006	37.9273
   7	1	5	-0.380811	18.0389	-3.69747	34.6922
   8	1	3	-0.001248	18.3039	0.748053	36.4392
   9	1	3	-0.036565	16.9317	-0.77408	34.4815
  10	1	3	-0.208842	16.647	0.599936	34.6533
  11	1	3	-0.065319	17.3228	1.38141	35.631
  12	1	6	0.153391	18.8754	1.29472	37.186
  13	1	6	0.155343	16.4217	-1.37166	33.7296
  14	1	6	0.174191	15.9072	1.04827	33.9972
  15	1	7	-0.106637	17.1016	2.91199	35.7968
  16	1	7	0.445763	18.2596	3.59706	34.9742
  17	1	8	-0.144255	18.1577	4.94365	34.9393
  18	1	8	-0.136881	18.2819	3.17109	33.6909
  19	1	8	-0.144092	19.4815	3.30484	35.4731
  20	1	7	0.367264	15.7213	3.45836	35.2618
  21	1	8	-0.12104	15.4956	4.7196	35.6973
  22	1	8	-0.122614	14.671	2.7247	35.6904
  23	1	8	-0.112321	15.6357	3.49468	33.9129
  24	1	3	-0.021957	17.131	3.19678	37.3269
  25	1	3	-0.054241	18.0171	4.12871	37.9322
  26	1	3	-0.111709	18.0634	4.20006	39.3315
  27	1	3	-0.087244	16.2977	2.40697	38.1714
  28	1	3	-0.118951	16.3631	2.49306	39.5737
  29	1	3	-0.044875	17.2715	3.39681	40.1279
  30	1	2	0.461883	17.6778	3.58981	41.5437
  31	1	1	-0.007433	18.7352	4.48666	41.4992
  32	1	2	0.491356	19.0017	4.94196	40.2144
  33	1	3	-0.019445	19.5796	4.74621	42.61
  34	1	3	-0.186861	20.3085	3.6701	43.1536
  35	1	3	-0.068374	21.2074	3.87162	44.2091
  36	1	3	-0.009193	19.7295	6.04267	43.1483
  37	1	3	0.220761	20.6372	6.23769	44.2071
  38	1	3	-0.402098	21.3778	5.16326	44.7283
  39	1	6	0.148422	20.1858	2.66918	42.7472
  40	1	6	0.146291	21.7725	3.03367	44.6141
  41	1	6	0.158981	15.7638	1.84509	40.2108
  42	1	6	0.141813	15.6268	1.67021	37.7378
  43	1	6	0.143633	18.6974	4.75224	37.3596
  44	1	5	-0.474465	19.8845	5.69936	39.8484
  45	1	5	-0.469737	17.2459	2.98068	42.5085
  46	1	7	-0.37887	18.9123	7.22232	42.6261
  47	1	9	0.115886	18.9354	8.06356	43.3301
  48	1	9	0.123845	17.8597	6.9515	42.4808
  49	1	9	0.138418	19.3113	7.58589	41.6703
  50	1	6	0.21348	22.0747	5.34084	45.5414
  51	1	3	-0.004194	31.2463	-6.69806	33.4963
  52	1	3	-0.097141	30.1277	-6.68928	34.3817
  53	1	3	-0.172015	29.5451	-7.93574	34.7438
  54	1	5	-0.377994	33.4998	-7.45726	31.4271
  55	1	3	0.033493	31.7056	-7.92948	32.9949
  56	1	3	-0.063739	30.0182	-9.15261	34.2254
  57	1	5	-0.398381	31.5191	-11.4226	32.7954
  58	1	3	0.032144	31.1025	-9.11813	33.3536
  59	1	2	0.032313	32.7977	-8.25129	32.0291
  60	1	1	0.461698	32.7714	-9.6385	31.8928
  61	1	2	0.091945	31.7833	-10.238	32.6686
  62	1	3	-0.10563	26.0075	-5.97448	33.458
  63	1	7	-0.099376	29.5185	-5.39685	35.0084
  64	1	3	-0.043296	27.9694	-5.51113	34.8959
  65	1	3	-0.073043	27.3995	-5.84495	33.6351
  66	1	3	-0.117827	25.1848	-5.76344	34.5691
  67	1	3	-0.037562	27.097	-5.29444	35.995
  68	1	3	-0.083705	25.7189	-5.43329	35.7974
  69	1	7	0.396	29.9202	-4.06372	34.2707
  70	1	7	0.310495	30.0421	-5.3284	36.495
  71	1	8	-0.130298	29.749	-4.15278	32.9336
  72	1	8	-0.128745	31.2061	-3.69876	34.4806
  73	1	8	-0.120019	29.1474	-3.02849	34.6729
  74	1	8	-0.104287	29.7219	-4.17668	37.1307
  75	1	8	-0.095507	29.5558	-6.34197	37.2473
  76	1	8	-0.104872	31.3894	-5.43657	36.5455
  77	1	2	0.456145	24.5994	-5.25898	36.7572
  78	1	2	0.550902	23.7038	-5.8315	34.708
  79	1	1	0.015704	23.439	-5.49174	36.03
  80	1	5	-0.456801	24.703	-4.94955	37.9314
  81	1	5	-0.487703	22.9078	-6.10183	33.8237
  82	1	3	-0.116566	22.1258	-5.27862	36.5538
  83	1	3	-0.050109	21.4286	-4.0959	36.2135
  84	1	3	0.154929	20.1282	-3.87746	36.735
  85	1	3	0.041555	21.5292	-6.22819	37.4125
  86	1	3	-0.223109	20.258	-5.97831	37.9538
  87	1	3	-0.080449	19.5489	-4.81509	37.6181
  88	1	7	-0.108008	22.2363	-7.5261	37.769
  89	1	7	-0.182228	18.1647	-4.58778	38.2211
  90	1	7	-0.345523	22.0895	-3.09003	35.2593
  91	1	6	0.155183	31.7646	-5.7896	33.2023
  92	1	6	0.172904	28.711	-7.97112	35.441
  93	1	6	0.158028	29.5497	-10.0941	34.4886
  94	1	6	0.153129	25.5832	-6.22746	32.4889
  95	1	6	0.142914	28.0463	-6.01793	32.7792
  96	1	6	0.135531	27.4508	-5.021	36.9839
  97	1	6	0.17765	19.8117	-6.70467	38.6271
  98	1	9	0.046541	22.4996	-8.09107	36.8665
  99	1	9	0.045238	21.6052	-8.17645	38.3878
 100	1	9	0.051941	23.1559	-7.33109	38.3346
 101	1	9	0.087961	17.8727	-5.40669	38.8919
 102	1	9	0.066782	17.3969	-4.52065	37.4401
 103	1	9	0.075908	18.1375	-3.66164	38.8118
 104	1	9	0.105172	21.5409	-2.14898	35.1451
 105	1	9	0.115625	22.1846	-3.51475	34.2512
 106	1	9	0.140296	23.0921	-2.8132	35.6094
 107	1	1	0.486064	30.7019	-21.6105	26.6316
 108	1	2	0.047133	29.702	-20.6529	26.8334
 109	1	3	0.001076	30.108	-19.4688	26.0175
 110	1	2	0.034038	31.6994	-21.1487	25.773
 111	1	3	0.050122	31.3107	-19.7619	25.4102
 112	1	5	-0.383076	28.6446	-20.7895	27.4268
 113	1	5	-0.380811	32.6301	-21.7706	25.2947
 114	1	3	-0.001248	29.4307	-18.2669	25.7493
 115	1	3	-0.036565	31.9337	-18.8548	24.5482
 116	1	3	-0.208842	31.3154	-17.6051	24.3461
 117	1	3	-0.065319	30.0462	-17.2939	24.9104
 118	1	6	0.153391	28.4583	-18.116	26.2064
 119	1	6	0.155343	32.8747	-19.1051	24.0637
 120	1	6	0.174191	31.8273	-16.88	23.718
 121	1	7	-0.106637	29.4116	-15.9064	24.584
 122	1	7	0.445763	29.035	-15.9133	23.0479
 123	1	8	-0.144255	28.3138	-14.8355	22.6647
 124	1	8	-0.136881	30.1212	-15.9559	22.2385
 125	1	8	-0.144092	28.2961	-17.0017	22.7395
 126	1	7	0.367264	28.1049	-15.5767	25.4116
 127	1	8	-0.12104	27.0481	-16.3458	25.0653
 128	1	8	-0.122614	27.7241	-14.2877	25.2453
 129	1	8	-0.112321	28.2783	-15.7378	26.744
 130	1	3	-0.021957	30.4575	-14.8311	24.9876
 131	1	3	-0.054241	31.0265	-14.9065	26.2851
 132	1	3	-0.111709	31.9263	-13.9212	26.6926
 133	1	3	-0.087244	30.8392	-13.7461	24.1477
 134	1	3	-0.118951	31.7904	-12.7878	24.5629
 135	1	3	-0.044875	32.3157	-12.8997	25.8538
 136	1	2	0.461883	33.1971	-11.9795	26.6243
 137	1	1	-0.007433	33.2142	-12.486	27.9152
 138	1	2	0.491356	32.4968	-13.6657	28.0353
 139	1	3	-0.019445	33.7852	-11.8069	29.0202
 140	1	3	-0.186861	35.1566	-11.9665	29.2805
 141	1	3	-0.068374	35.7519	-11.3117	30.3652
 142	1	3	-0.009193	32.9822	-10.9976	29.8573
 143	1	3	0.220761	33.5784	-10.3709	30.979
 144	1	3	-0.402098	34.963	-10.52	31.2135
 145	1	6	0.148422	35.7677	-12.5924	28.6342
 146	1	6	0.146291	36.8161	-11.4356	30.5591
 147	1	6	0.158981	32.0664	-11.9509	23.9235
 148	1	6	0.141813	30.4042	-13.6207	23.1627
 149	1	6	0.143633	30.7427	-15.6844	26.9907
 150	1	5	-0.474465	32.2624	-14.312	29.0396
 151	1	5	-0.469737	33.7348	-10.9677	26.211
 152	1	7	-0.37887	31.4793	-10.8445	29.5664
 153	1	9	0.115886	31.2566	-10.8609	28.494
 154	1	9	0.123845	31.0693	-9.89355	29.9288
 155	1	9	0.138418	30.9124	-11.661	30.0378
 156	1	6	0.21348	35.4235	-10.042	32.0742
 157	1	3	-0.004194	31.0816	-29.5023	34.3963
 158	1	3	-0.097141	32.2019	-29.3686	35.2484
 159	1	3	-0.172015	32.6343	-30.518	35.9805
 160	1	5	-0.377994	28.6283	-30.313	32.7791
 161	1	3	0.033493	30.4274	-30.7246	34.3168
 162	1	3	-0.063739	31.981	-31.7681	35.8365
 163	1	5	-0.398381	30.1446	-34.1535	34.9173
 164	1	3	0.032144	30.8655	-31.8395	34.9951
 165	1	2	0.032313	29.253	-31.0756	33.4995
 166	1	1	0.461698	29.0933	-32.4468	33.6809
 167	1	2	0.091945	30.0057	-32.987	34.5881
 168	1	3	-0.10563	33.8579	-27.626	31.6311
 169	1	7	-0.099376	32.8193	-27.9461	35.3662
 170	1	3	-0.043296	32.9327	-27.3643	33.9174
 171	1	3	-0.073043	33.7514	-28.0441	32.9702
 172	1	3	-0.117827	33.0718	-26.5477	31.2168
 173	1	3	-0.037562	32.1611	-26.2599	33.448
 174	1	3	-0.083705	32.2204	-25.908	32.0916
 175	1	7	0.396	34.2532	-27.9369	36.0193
 176	1	7	0.310495	31.8535	-27.1078	36.2906
 177	1	8	-0.130298	34.2421	-28.1658	37.351
 178	1	8	-0.128745	34.8648	-26.7507	35.8299
 179	1	8	-0.120019	35.0714	-28.8644	35.4842
 180	1	8	-0.104287	30.5971	-27.0312	35.7948
 181	1	8	-0.095507	32.2917	-25.8432	36.4891
 182	1	8	-0.104872	31.6984	-27.6728	37.5074
 183	1	2	0.456145	31.3584	-24.9789	31.3005
 184	1	2	0.550902	32.8073	-26.0326	29.8497
 185	1	1	0.015704	31.7414	-25.1566	29.9698
 186	1	5	-0.456801	30.4565	-24.29	31.7476
 187	1	5	-0.487703	33.3332	-26.4157	28.8195
 188	1	3	-0.116566	31.05	-24.6766	28.8114
 189	1	3	-0.050109	31.2449	-23.3584	28.3279
 190	1	3	0.154929	30.6266	-22.957	27.1092
 191	1	3	0.041555	30.2569	-25.5876	28.0746
 192	1	3	-0.223109	29.7144	-25.2025	26.8397
 193	1	3	-0.080449	29.8996	-23.9017	26.3442
 194	1	7	-0.108008	29.9675	-26.9971	28.5819
 195	1	7	-0.182228	29.288	-23.5366	24.9897
 196	1	7	-0.345523	32.1403	-22.4035	29.1263
 197	1	6	0.155183	30.6894	-28.6708	33.8165
 198	1	6	0.172904	33.4756	-30.4589	36.6659
 199	1	6	0.158028	32.3252	-32.6529	36.367
 200	1	6	0.153129	34.4621	-28.1825	30.916
 201	1	6	0.142914	34.288	-28.9434	33.2525
 202	1	6	0.135531	31.475	-25.7066	34.0783
 203	1	6	0.17765	29.1286	-25.9175	26.2691
 204	1	9	0.046541	29.1977	-27.4959	27.9798
 205	1	9	0.045238	29.5997	-26.971	29.6153
 206	1	9	0.051941	30.8662	-27.626	28.5514
 207	1	9	0.087961	28.4913	-22.7891	25.1049
 208	1	9	0.066782	28.8435	-24.4094	24.496
 209	1	9	0.075908	30.0457	-23.1308	24.3061
 210	1	9	0.105172	32.0398	-21.3559	28.8257
 211	1	9	0.115625	33.1985	-22.6725	29.0087
 212	1	9	0.140296	31.9031	-22.4259	30.1976
 213	1	3	-0.004194	31.8447	-32.3948	24.1079
 214	1	3	-0.097141	30.8236	-32.5321	23.1249
 215	1	3	-0.172015	30.9017	-31.7078	21.9656
 216	1	5	-0.377994	34.3557	-31.6169	25.8261
 217	1	3	0.033493	32.8712	-31.4622	23.9113
 218	1	3	-0.063739	31.9122	-30.7414	21.8111
 219	1	5	-0.398381	34.301	-28.7923	22.1646
 220	1	3	0.032144	32.8818	-30.6361	22.8073
 221	1	2	0.032313	34.0391	-31.1097	24.7635
 222	1	1	0.461698	34.6688	-30.0644	24.0933
 223	1	2	0.091945	34.023	-29.7022	22.9232
 224	1	3	-0.10563	28.0331	-31.4547	26.2188
 225	1	7	-0.099376	29.6614	-33.5476	23.3656
 226	1	3	-0.043296	29.0335	-33.1908	24.7512
 227	1	3	-0.073043	28.6167	-31.8511	24.995
 228	1	3	-0.117827	27.891	-32.4211	27.2196
 229	1	3	-0.037562	28.8642	-34.1375	25.7984
 230	1	3	-0.083705	28.3067	-33.72	27.0159
 231	1	7	0.396	30.2853	-34.9986	23.3049
 232	1	7	0.310495	28.4962	-33.4888	22.2922
 233	1	8	-0.130298	31.1907	-35.2026	24.2868
 234	1	8	-0.128745	30.9575	-35.2197	22.1538
 235	1	8	-0.120019	29.3603	-35.9841	23.402
 236	1	8	-0.104287	28.863	-33.9095	21.0577
 237	1	8	-0.095507	27.4355	-34.2375	22.6657
 238	1	8	-0.104872	28.006	-32.2445	22.1334
 239	1	2	0.456145	28.136	-34.4685	28.293
 240	1	2	0.550902	27.397	-32.3048	28.6204
 241	1	1	0.015704	27.6186	-33.5524	29.1991
 242	1	5	-0.456801	28.4946	-35.6127	28.5091
 243	1	5	-0.487703	26.9425	-31.2994	29.1438
 244	1	3	-0.116566	27.4945	-33.7893	30.6027
 245	1	3	-0.050109	28.4571	-33.2255	31.4665
 246	1	3	0.154929	28.2211	-33.2093	32.8602
 247	1	3	0.041555	26.3794	-34.4762	31.1305
 248	1	3	-0.223109	26.2	-34.5266	32.5265
 249	1	3	-0.080449	27.0826	-33.8533	33.3943
 250	1	7	-0.108008	25.3542	-35.1349	30.2143
 251	1	7	-0.182228	26.7872	-33.8098	34.8887
 252	1	7	-0.345523	29.7167	-32.5737	30.8722
 253	1	6	0.155183	31.8412	-32.9827	25.0215
 254	1	6	0.172904	30.1739	-31.7824	21.1622
 255	1	6	0.158028	31.9347	-30.0901	20.9427
 256	1	6	0.153129	27.7269	-30.4239	26.3914
 257	1	6	0.142914	28.7573	-31.0983	24.2238
 258	1	6	0.135531	29.1651	-35.1756	25.7065
 259	1	6	0.17765	25.3317	-35.0381	32.934
 260	1	9	0.046541	24.4737	-35.4762	30.7717
 261	1	9	0.045238	25.7876	-36.0089	29.7116
 262	1	9	0.051941	25.0008	-34.4407	29.4424
 263	1	9	0.087961	27.5385	-34.3711	35.4576
 264	1	9	0.066782	25.8096	-34.2502	35.1219
 265	1	9	0.075908	26.7718	-32.7777	35.2642
 266	1	9	0.105172	30.5604	-32.5319	31.5726
 267	1	9	0.115625	29.5049	-31.5481	30.5429
 268	1	9	0.140296	30.0953	-33.1365	30.0097
 269	1	1	0.486064	37.0235	-18.1635	34.3541
 270	1	2	0.047133	37.9309	-19.2114	34.4778
 271	1	3	0.001076	37.3073	-20.3579	33.7649
 272	1	2	0.034038	35.8792	-18.5251	33.6495
 273	1	3	0.050122	36.0946	-19.9394	33.2564
 274	1	5	-0.383076	39.0241	-19.2033	35.0166
 275	1	5	-0.380811	34.8853	-17.8563	33.4362
 276	1	3	-0.001248	37.7534	-21.6792	33.6192
 277	1	3	-0.036565	35.2553	-20.8209	32.572
 278	1	3	-0.208842	35.7011	-22.1439	32.3823
 279	1	3	-0.065319	36.9504	-22.6011	32.8907
 280	1	6	0.153391	38.7054	-21.9491	34.0665
 281	1	6	0.155343	34.2811	-20.4965	32.2156
 282	1	6	0.174191	35.0527	-22.8278	31.8388
 283	1	7	-0.106637	37.3578	-24.0875	32.632
 284	1	7	0.445763	38.8786	-24.3879	32.9007
 285	1	8	-0.144255	39.2562	-25.6175	32.4726
 286	1	8	-0.136881	39.1999	-24.3275	34.209
 287	1	8	-0.144092	39.674	-23.5023	32.2619
 288	1	7	0.367264	36.4922	-24.9737	33.6063
 289	1	8	-0.12104	36.8667	-26.2714	33.6172
 290	1	8	-0.122614	35.1827	-24.9363	33.2779
 291	1	8	-0.112321	36.5801	-24.5403	34.8865
 292	1	3	-0.021957	37.1429	-24.4074	31.1242
 293	1	3	-0.054241	36.783	-25.7001	30.6517
 294	1	3	-0.111709	36.7422	-25.9281	29.2706
 295	1	3	-0.087244	37.4608	-23.4044	30.1656
 296	1	3	-0.118951	37.4361	-23.6643	28.7857
 297	1	3	-0.044875	37.0739	-24.9406	28.3668
 298	1	2	0.461883	37.0851	-25.5218	27.0059
 299	1	1	-0.007433	36.7616	-26.8561	27.1819
 300	1	2	0.491356	36.4868	-27.1774	28.5079
 301	1	3	-0.019445	36.829	-27.79	26.1167
 302	1	3	-0.186861	38.0744	-27.9971	25.4963
 303	1	3	-0.068374	38.1932	-28.8663	24.4068
 304	1	3	-0.009193	35.6769	-28.4464	25.6364
 305	1	3	0.220761	35.8086	-29.3709	24.5745
 306	1	3	-0.402098	37.0626	-29.5566	23.9489
 307	1	6	0.148422	38.9544	-27.4611	25.8448
 308	1	6	0.146291	39.1607	-29.0058	23.9239
 309	1	6	0.158981	37.7174	-22.9074	28.0612
 310	1	6	0.141813	37.7781	-22.4149	30.4842
 311	1	6	0.143633	36.5819	-26.5312	31.3156
 312	1	5	-0.474465	36.1779	-28.2589	28.9805
 313	1	5	-0.469737	37.434	-24.9613	25.9796
 314	1	7	-0.37887	34.3067	-28.1148	26.2371
 315	1	9	0.115886	33.4701	-28.3003	25.5563
 316	1	9	0.123845	34.2304	-27.0547	26.5094
 317	1	9	0.138418	34.1286	-28.7004	27.1498
 318	1	6	0.21348	37.1593	-30.2324	23.1006
 319	1	1	0.486064	35.5321	-7.97698	36.2275
 320	1	2	0.047133	36.87	-8.34556	36.3033
 321	1	3	0.001076	37.5047	-7.76454	35.0959
 322	1	2	0.034038	35.2618	-7.14614	35.1355
 323	1	3	0.050122	36.5525	-7.05223	34.3987
 324	1	5	-0.383076	37.3977	-9.08088	37.121
 325	1	5	-0.380811	34.1844	-6.71845	34.7568
 326	1	3	-0.001248	38.7861	-7.97768	34.581
 327	1	3	-0.036565	36.849	-6.48947	33.1531
 328	1	3	-0.208842	38.1372	-6.69877	32.6104
 329	1	3	-0.065319	39.1145	-7.47829	33.291
 330	1	6	0.153391	39.4751	-8.60413	35.1407
 331	1	6	0.155343	36.0845	-5.9461	32.6011
 332	1	6	0.174191	38.3379	-6.27772	31.6294
 333	1	7	-0.106637	40.4677	-7.91345	32.6433
 334	1	7	0.445763	40.5867	-7.62706	31.1016
 335	1	8	-0.144255	40.7141	-6.30869	30.8238
 336	1	8	-0.136881	39.5176	-8.10195	30.4266
 337	1	8	-0.144092	41.6584	-8.2435	30.549
 338	1	7	0.367264	41.6044	-7.12534	33.4032
 339	1	8	-0.12104	41.7515	-7.57032	34.673
 340	1	8	-0.122614	41.328	-5.80162	33.494
 341	1	8	-0.112321	42.8148	-7.21803	32.8061
 342	1	3	-0.021957	40.5535	-9.46002	32.8074
 343	1	3	-0.054241	39.3629	-10.2304	32.7253
 344	1	3	-0.111709	39.389	-11.5652	33.1334
 345	1	3	-0.087244	41.766	-10.1342	33.1232
 346	1	3	-0.118951	41.7793	-11.4978	33.4838
 347	1	3	-0.044875	40.5591	-12.1779	33.5256
 348	1	2	0.461883	40.2181	-13.5076	34.094
 349	1	1	-0.007433	38.835	-13.5754	34.0645
 350	1	2	0.491356	38.256	-12.468	33.4563
 351	1	3	-0.019445	38.1089	-14.6024	34.7246
 352	1	3	-0.186861	37.5247	-14.2938	35.9674
 353	1	3	-0.068374	36.7884	-15.2513	36.6725
 354	1	3	-0.009193	37.9834	-15.902	34.1784
 355	1	3	0.220761	37.2329	-16.8679	34.8972
 356	1	3	-0.402098	36.6396	-16.5368	36.1353
 357	1	6	0.148422	37.6251	-13.2951	36.3853
 358	1	6	0.146291	36.322	-14.9892	37.6229
 359	1	6	0.158981	42.6987	-11.9868	33.8022
 360	1	6	0.141813	42.707	-9.59878	33.1579
 361	1	6	0.143633	38.4058	-9.77807	32.4745
 362	1	5	-0.474465	37.0736	-12.1826	33.3625
 363	1	5	-0.469737	40.9939	-14.3242	34.5566
 364	1	7	-0.37887	38.5813	-16.2326	32.7989
 365	1	9	0.115886	37.8126	-16.1661	32.0216
 366	1	9	0.123845	39.0229	-17.2352	32.7653
 367	1	9	0.138418	39.3924	-15.5563	32.5067
 368	1	6	0.21348	36.0498	-17.276	36.6724
 369	1	3	-0.004194	32.2572	-17.0782	31.6935
 370	1	3	-0.097141	31.8835	-15.8717	32.3378
 371	1	3	-0.172015	32.7541	-14.7556	32.1815
 372	1	5	-0.377994	33.4833	-19.3812	30.1292
 373	1	3	0.033493	33.4384	-17.1305	30.9575
 374	1	3	-0.063739	33.9829	-14.8476	31.4838
 375	1	5	-0.398381	36.4761	-15.8382	29.773
 376	1	3	0.032144	34.3031	-16.0612	30.8642
 377	1	2	0.032313	34.0015	-18.2802	30.2277
 378	1	1	0.461698	35.2131	-17.8184	29.7166
 379	1	2	0.091945	35.4835	-16.4929	30.0576
 380	1	3	-0.10563	29.2887	-12.7667	35.2813
 381	1	7	-0.099376	30.5139	-15.7657	33.0886
 382	1	3	-0.043296	30.4909	-14.5951	34.1246
 383	1	3	-0.073043	29.3221	-13.8083	34.3405
 384	1	3	-0.117827	30.4494	-12.501	36.0091
 385	1	3	-0.037562	31.615	-14.3528	34.963
 386	1	3	-0.083705	31.5744	-13.2884	35.8789
 387	1	7	0.396	30.2492	-17.0531	33.9498
 388	1	7	0.310495	29.3973	-15.621	31.9779
 389	1	8	-0.130298	29.2541	-16.8647	34.8431
 390	1	8	-0.128745	31.3517	-17.3758	34.6705
 391	1	8	-0.120019	29.885	-18.1298	33.2146
 392	1	8	-0.104287	28.1571	-15.8734	32.4569
 393	1	8	-0.095507	29.5677	-16.4847	30.9527
 394	1	8	-0.104872	29.3922	-14.3841	31.422
 395	1	2	0.456145	32.6632	-12.6652	36.6824
 396	1	2	0.550902	30.7899	-11.3162	36.8366
 397	1	1	0.015704	32.1449	-11.4465	37.1229
 398	1	5	-0.456801	33.8013	-13.0861	36.8086
 399	1	5	-0.487703	30.0675	-10.3465	37.012
 400	1	3	-0.116566	32.9374	-10.3391	37.5698
 401	1	3	-0.050109	33.8274	-9.69777	36.6665
 402	1	3	0.154929	34.5538	-8.55483	37.0863
 403	1	3	0.041555	32.7671	-9.82249	38.8744
 404	1	3	-0.223109	33.4657	-8.66481	39.2612
 405	1	3	-0.080449	34.3762	-8.0434	38.3894
 406	1	7	-0.108008	31.857	-10.5089	39.8874
 407	1	7	-0.182228	35.1947	-6.85463	38.883
 408	1	7	-0.345523	34.0519	-10.2789	35.2633
 409	1	6	0.155183	31.6461	-17.9699	31.7184
 410	1	6	0.172904	32.4811	-13.7885	32.5905
 411	1	6	0.158028	34.6449	-13.9901	31.3986
 412	1	6	0.153129	28.405	-12.1415	35.3883
 413	1	6	0.142914	28.4154	-13.9683	33.7718
 414	1	6	0.135531	32.5265	-14.9377	34.8624
 415	1	6	0.17765	33.3294	-8.27202	40.2656
 416	1	9	0.046541	32.1126	-10.221	40.9132
 417	1	9	0.045238	31.9451	-11.5994	39.8325
 418	1	9	0.051941	30.8033	-10.2397	39.7191
 419	1	9	0.087961	36.2595	-7.11534	38.9649
 420	1	9	0.066782	34.8661	-6.51998	39.8736
 421	1	9	0.075908	35.1039	-5.99668	38.205
 422	1	9	0.105172	33.1276	-10.6799	34.8443
 423	1	9	0.115625	34.7771	-11.1056	35.2986
 424	1	9	0.140296	34.421	-9.55854	34.5281
 425	1	1	0.486064	34.7733	-29.6753	19.1526
 426	1	2	0.047133	35.9933	-29.0795	19.4783
 427	1	3	0.001076	35.679	-27.6435	19.6754
 428	1	2	0.034038	33.7264	-28.7551	19.0802
 429	1	3	0.050122	34.3362	-27.4483	19.4355
 430	1	5	-0.383076	37.0829	-29.6097	19.613
 431	1	5	-0.380811	32.5491	-28.9638	18.8333
 432	1	3	-0.001248	36.5137	-26.604	20.099
 433	1	3	-0.036565	33.7487	-26.1959	19.6228
 434	1	3	-0.208842	34.5759	-25.1297	20.0388
 435	1	3	-0.065319	35.9716	-25.3013	20.2779
 436	1	6	0.153391	37.5514	-26.8485	20.2872
 437	1	6	0.155343	32.6814	-26.0648	19.4634
 438	1	6	0.174191	34.1118	-24.1626	20.2058
 439	1	7	-0.106637	36.8346	-24.0798	20.7527
 440	1	7	0.445763	38.3445	-24.4573	21.0307
 441	1	8	-0.144255	38.9872	-24.9231	19.9338
 442	1	8	-0.136881	38.4612	-25.382	22.0105
 443	1	8	-0.144092	39.0685	-23.4075	21.4691
 444	1	7	0.367264	36.7775	-22.982	19.6169
 445	1	8	-0.12104	37.7099	-22.0046	19.716
 446	1	8	-0.122614	35.5862	-22.3439	19.6071
 447	1	8	-0.112321	36.9424	-23.5342	18.3929
 448	1	3	-0.021957	36.2744	-23.5379	22.1004
 449	1	3	-0.054241	36.6115	-22.2388	22.5659
 450	1	3	-0.111709	36.2425	-21.8551	23.8597
 451	1	3	-0.087244	35.5365	-24.3869	22.9746
 452	1	3	-0.118951	35.1493	-23.9674	24.2657
 453	1	3	-0.044875	35.543	-22.6952	24.6956
 454	1	2	0.461883	35.4728	-22.0562	26.0434
 455	1	1	-0.007433	36.1898	-20.8716	25.9352
 456	1	2	0.491356	36.6366	-20.6528	24.6418
 457	1	3	-0.019445	36.5899	-20.0954	27.067
 458	1	3	-0.186861	37.8989	-20.2692	27.5619
 459	1	3	-0.068374	38.3239	-19.6271	28.7333
 460	1	3	-0.009193	35.6953	-19.2273	27.7384
 461	1	3	0.220761	36.1071	-18.6226	28.9564
 462	1	3	-0.402098	37.4193	-18.8275	29.4395
 463	1	6	0.148422	38.5959	-20.9119	27.0282
 464	1	6	0.146291	39.3413	-19.768	29.0975
 465	1	6	0.158981	34.6355	-24.6434	24.9461
 466	1	6	0.141813	35.307	-25.4106	22.6927
 467	1	6	0.143633	37.2262	-21.5592	21.9859
 468	1	5	-0.474465	37.314	-19.7238	24.2413
 469	1	5	-0.469737	35.0176	-22.5469	27.0637
 470	1	7	-0.37887	34.3074	-18.9624	27.1428
 471	1	9	0.115886	34.3357	-18.9912	26.0479
 472	1	9	0.123845	33.9082	-17.9761	27.4065
 473	1	9	0.138418	33.5905	-19.7208	27.4823
 474	1	6	0.21348	37.7449	-18.3348	30.353
 475	1	1	0.486064	30.2557	-42.8032	12.5602
 476	1	2	0.047133	30.1508	-41.5954	13.2461
 477	1	3	0.001076	30.3721	-40.5585	12.2369
 478	1	2	0.034038	30.5313	-42.6321	11.2008
 479	1	3	0.050122	30.5833	-41.1523	11.0136
 480	1	5	-0.383076	29.7975	-41.3849	14.3954
 481	1	5	-0.380811	30.603	-43.4843	10.3294
 482	1	3	-0.001248	30.2852	-39.1831	12.4089
 483	1	3	-0.036565	30.6939	-40.3633	9.86622
 484	1	3	-0.208842	30.5835	-38.9609	10.011
 485	1	3	-0.065319	30.3892	-38.3385	11.2815
 486	1	6	0.153391	30.112	-38.8006	13.4057
 487	1	6	0.155343	30.8289	-40.8245	8.89003
 488	1	6	0.174191	30.6379	-38.3772	9.09856
 489	1	7	-0.106637	30.2063	-36.8054	11.4937
 490	1	7	0.445763	30.2819	-35.9877	10.1589
 491	1	8	-0.144255	29.2893	-36.2886	9.28627
 492	1	8	-0.136881	31.453	-36.2069	9.52776
 493	1	8	-0.144092	30.2079	-34.656	10.3719
 494	1	7	0.367264	28.7646	-36.5878	12.123
 495	1	8	-0.12104	28.6929	-36.932	13.4252
 496	1	8	-0.122614	27.8343	-37.3385	11.4897
 497	1	8	-0.112321	28.3274	-35.3133	12.0613
 498	1	3	-0.021957	31.3562	-36.3034	12.413
 499	1	3	-0.054241	31.0813	-34.9527	13.5578
 500	1	3	-0.111709	32.3921	-34.4748	14.7303
 501	1	3	-0.087244	32.9457	-37.1709	12.4221
 502	1	3	-0.118951	34.2371	-36.6937	13.6434
 503	1	3	-0.044875	33.91	-35.3356	14.7681
 504	1	2	0.461883	34.6208	-34.7143	15.9081
 505	1	1	-0.007433	33.7551	-33.7618	16.4845
 506	1	2	0.491356	32.5009	-33.5457	15.8759
 507	1	3	-0.019445	34.1193	-33.0964	17.6927
 508	1	3	-0.186861	34.3388	-33.8877	18.8359
 509	1	3	-0.068374	34.703	-33.302	20.0526
 510	1	3	-0.009193	34.2898	-31.6858	17.765
 511	1	3	0.220761	34.614	-31.0882	19.0104
 512	1	3	-0.402098	34.8237	-31.9106	20.142
 513	1	6	0.148422	34.2424	-34.9688	18.7751
 514	1	6	0.146291	34.8903	-33.9314	20.9208
 515	1	6	0.158981	35.1715	-37.2523	13.6977
 516	1	6	0.141813	33.1182	-38.007	11.7382
 517	1	6	0.143633	30.1093	-34.4451	13.6098
 518	1	5	-0.474465	31.6373	-32.7499	16.2175
 519	1	5	-0.469737	35.7439	-35.0144	16.2791
 520	1	7	-0.37887	34.1446	-30.8226	16.5088
 521	1	9	0.115886	34.3708	-31.3778	15.5921
 522	1	9	0.123845	34.8225	-29.9616	16.5089
 523	1	9	0.138418	33.1134	-30.4478	16.4174
 524	1	6	0.21348	35.1262	-31.4626	21.0817
 525	1	1	0.486064	35.7493	-40.4049	18.5577
 526	1	2	0.047133	35.7175	-41.7913	18.704
 527	1	3	0.001076	34.7736	-42.0499	19.8115
 528	1	2	0.034038	34.8858	-39.7531	19.4474
 529	1	3	0.050122	34.2965	-40.844	20.2761
 530	1	5	-0.383076	36.4153	-42.6323	18.1636
 531	1	5	-0.380811	34.6825	-38.5544	19.5683
 532	1	3	-0.001248	34.3926	-43.2681	20.3743
 533	1	3	-0.036565	33.4535	-40.7966	21.39
 534	1	3	-0.208842	33.0563	-42.0185	21.9817
 535	1	3	-0.065319	33.4787	-43.2752	21.4568
 536	1	6	0.153391	34.7822	-44.1888	19.9449
 537	1	6	0.155343	33.1108	-39.8387	21.7761
 538	1	6	0.174191	32.3862	-41.9645	22.8339
 539	1	7	-0.106637	32.9614	-44.655	21.968
 540	1	7	0.445763	34.1481	-45.3246	22.7648
 541	1	8	-0.144255	34.6477	-44.471	23.6839
 542	1	8	-0.136881	35.1929	-45.6387	21.9688
 543	1	8	-0.144092	33.7978	-46.4546	23.4222
 544	1	7	0.367264	31.704	-44.5557	22.9172
 545	1	8	-0.12104	31.1427	-45.7663	23.1312
 546	1	8	-0.122614	30.7197	-43.7932	22.3882
 547	1	8	-0.112321	31.9976	-44.0426	24.1348
 548	1	3	-0.021957	32.5073	-45.4349	20.6974
 549	1	3	-0.054241	31.6848	-44.7502	19.7711
 550	1	3	-0.111709	31.3383	-45.3723	18.5727
 551	1	3	-0.087244	32.9022	-46.7684	20.3785
 552	1	3	-0.118951	32.5396	-47.3763	19.1501
 553	1	3	-0.044875	31.7642	-46.6399	18.2427
 554	1	2	0.461883	31.2984	-46.9294	16.8465
 555	1	1	-0.007433	30.6462	-45.7739	16.4331
 556	1	2	0.491356	30.5747	-44.8234	17.436
 557	1	3	-0.019445	30.1353	-45.5147	15.1306
 558	1	3	-0.186861	28.9859	-46.2039	14.7094
 559	1	3	-0.068374	28.337	-45.8462	13.5219
 560	1	3	-0.009193	30.6545	-44.4534	14.3486
 561	1	3	0.220761	29.9455	-44.0394	13.1924
 562	1	3	-0.402098	28.8007	-44.7529	12.778
 563	1	6	0.148422	28.5745	-47.0063	15.3188
 564	1	6	0.146291	27.4388	-46.3805	13.2163
 565	1	6	0.158981	32.8801	-48.3787	18.8976
 566	1	6	0.141813	33.5167	-47.3439	21.0646
 567	1	6	0.143633	31.3547	-43.7307	19.9501
 568	1	5	-0.474465	30.0618	-43.7204	17.3927
 569	1	5	-0.469737	31.4949	-47.9443	16.2017
 570	1	7	-0.37887	31.9449	-43.7362	14.7837
 571	1	9	0.115886	32.6352	-44.4158	15.2992
 572	1	9	0.123845	31.7246	-42.9049	15.4635
 573	1	9	0.138418	32.5104	-43.3351	13.9342
 574	1	6	0.21348	28.2497	-44.4373	11.8938
 575	1	1	0.486064	35.5449	-35.5184	9.7039
 576	1	2	0.047133	35.7766	-36.8929	9.64178
 577	1	3	0.001076	37.1008	-37.0355	8.9835
 578	1	2	0.034038	36.5531	-34.7733	9.08147
 579	1	3	0.050122	37.5668	-35.7775	8.66023
 580	1	5	-0.383076	35.1123	-37.7997	10.1191
 581	1	5	-0.380811	36.6619	-33.5599	8.99299
 582	1	3	-0.001248	37.9059	-38.1715	8.85084
 583	1	3	-0.036565	38.8521	-35.5957	8.14172
 584	1	3	-0.208842	39.6901	-36.726	8.03037
 585	1	3	-0.065319	39.2578	-38.0199	8.44057
 586	1	6	0.153391	37.5162	-39.1321	9.18276
 587	1	6	0.155343	39.2117	-34.5999	7.89673
 588	1	6	0.174191	40.7037	-36.5616	7.67361
 589	1	7	-0.106637	40.2329	-39.2313	8.60052
 590	1	7	0.445763	39.9982	-40.2051	7.3839
 591	1	8	-0.144255	40.9568	-41.1527	7.2657
 592	1	8	-0.136881	39.9714	-39.5341	6.2117
 593	1	8	-0.144092	38.8114	-40.852	7.47236
 594	1	7	0.367264	41.7538	-38.8162	8.66025
 595	1	8	-0.12104	42.2644	-38.4601	7.4591
 596	1	8	-0.122614	42.5244	-39.8252	9.1277
 597	1	8	-0.112321	41.9517	-37.7781	9.50604
 598	1	3	-0.021957	39.9243	-39.8674	9.98621
 599	1	3	-0.054241	39.6635	-38.9954	11.0734
 600	1	3	-0.111709	39.2752	-39.5319	12.2992
 601	1	3	-0.087244	39.875	-41.271	10.2241
 602	1	3	-0.118951	39.523	-41.7922	11.4911
 603	1	3	-0.044875	39.2071	-40.8881	12.515
 604	1	2	0.461883	38.7575	-41.1029	13.9211
 605	1	1	-0.007433	38.5281	-39.8292	14.4469
 606	1	2	0.491356	38.8268	-38.8332	13.524
 607	1	3	-0.019445	38.1647	-39.5342	15.7997
 608	1	3	-0.186861	39.0342	-38.7005	16.5285
 609	1	3	-0.068374	38.7619	-38.3529	17.8536
 610	1	3	-0.009193	36.989	-40.0359	16.4214
 611	1	3	0.220761	36.7619	-39.7481	17.7973
 612	1	3	-0.402098	37.6422	-38.8901	18.4904
 613	1	6	0.148422	39.9253	-38.294	16.0546
 614	1	6	0.146291	39.4431	-37.6897	18.3952
 615	1	6	0.158981	39.4728	-42.8636	11.6657
 616	1	6	0.141813	40.1068	-41.9774	9.43351
 617	1	6	0.143633	39.7085	-37.915	10.9657
 618	1	5	-0.474465	38.7211	-37.6241	13.644
 619	1	5	-0.469737	38.6737	-42.1811	14.483
 620	1	7	-0.37887	35.9819	-40.8634	15.6107
 621	1	9	0.115886	35.953	-40.5544	14.5598
 622	1	9	0.123845	34.9583	-40.7536	15.9801
 623	1	9	0.138418	36.2427	-41.9322	15.6346
 624	1	6	0.21348	37.4585	-38.6434	19.5374
 625	1	3	-0.004194	27.4186	-41.8985	19.4449
 626	1	3	-0.097141	28.1116	-41.0069	18.5817
 627	1	3	-0.172015	27.9997	-41.2203	17.1782
 628	1	5	-0.377994	25.5212	-43.9837	20.7369
 629	1	3	0.033493	26.7245	-42.9806	18.8947
 630	1	3	-0.063739	27.2974	-42.318	16.6417
 631	1	5	-0.398381	25.5242	-44.8297	16.1729
 632	1	3	0.032144	26.6882	-43.2029	17.5321
 633	1	2	0.032313	25.8095	-43.953	19.5516
 634	1	1	0.461698	25.2478	-44.6823	18.5025
 635	1	2	0.091945	25.7967	-44.3582	17.2641
 636	1	3	-0.10563	31.7939	-40.0195	16.5546
 637	1	7	-0.099376	28.8977	-39.782	19.1421
 638	1	3	-0.043296	29.9736	-39.3482	18.0842
 639	1	3	-0.073043	30.9116	-40.3096	17.6154
 640	1	3	-0.117827	31.7334	-38.7485	15.9647
 641	1	3	-0.037562	29.9974	-38.0637	17.4678
 642	1	3	-0.083705	30.8823	-37.817	16.4068
 643	1	7	0.396	29.6424	-40.157	20.4864
 644	1	7	0.310495	27.8337	-38.6472	19.4115
 645	1	8	-0.130298	28.8297	-40.2357	21.5656
 646	1	8	-0.128745	30.596	-39.2569	20.8059
 647	1	8	-0.120019	30.2564	-41.3588	20.3988
 648	1	8	-0.104287	27.1962	-38.3136	18.2678
 649	1	8	-0.095507	26.8543	-39.0197	20.2649
 650	1	8	-0.104872	28.3829	-37.5266	19.9359
 651	1	2	0.456145	31.0734	-36.6141	15.5668
 652	1	2	0.550902	32.4625	-38.1758	14.8191