pySIMM System Object

1466 atoms
1605 bonds
2816 angles
4264 dihedrals
448 impropers

9 atom types
11 bond types
18 angle types
7 dihedral types
4 improper types

-145.552099 145.552099 xlo xhi
-145.552099 145.552099 ylo yhi
-145.552099 145.552099 zlo zhi

Masses

   1	14.01	# n
   2	12.01	# c
   3	12.01	# ca
   4	1.008	# hn
   5	16.0	# o
   6	1.008	# ha
   7	12.01	# c3
   8	19.0	# f
   9	1.008	# hc

Pair Coeffs

   1	0.17	3.249998523775958	# n
   2	0.086	3.3996695084235347	# c
   3	0.086	3.3996695084235347	# ca
   4	0.0157	1.069078461768407	# hn
   5	0.21	2.959921901149463	# o
   6	0.015	2.59964245953351	# ha
   7	0.1094	3.3996695084235347	# c3
   8	0.061	3.1181455134911875	# f
   9	0.0157	2.649532787749369	# hc

Bond Coeffs

   1	345.8	1.086	# ca,ha
   2	637.7	1.2183	# c,o
   3	321.0	1.5156	# c3,ca
   4	300.9	1.5375	# c3,c3
   5	384.2	1.4121	# ca,n
   6	330.6	1.0969	# c3,hc
   7	403.2	1.0129	# hn,n
   8	356.9	1.3497	# c3,f
   9	461.1	1.3984	# ca,ca
  10	427.6	1.3789	# c,n
  11	345.9	1.4906	# c,ca

Angle Coeffs

   1	66.11	109.24	# c3,c3,f
   2	46.8	110.47	# ca,c3,hc
   3	39.4	107.58	# hc,c3,hc
   4	63.82	123.71	# c,n,ca
   5	66.62	120.02	# ca,ca,ca
   6	63.53	120.77	# c3,ca,ca
   7	62.86	111.51	# c3,c3,c3
   8	63.74	127.08	# c,n,c
   9	48.33	117.55	# c,n,hn
  10	64.28	120.33	# c,ca,ca
  11	48.18	119.88	# ca,ca,ha
  12	68.72	122.6	# ca,c,o
  13	63.15	112.07	# c3,c3,ca
  14	70.89	107.36	# f,c3,f
  15	67.87	120.19	# ca,ca,n
  16	63.56	112.24	# ca,c3,ca
  17	67.68	115.25	# ca,c,n
  18	74.22	123.05	# n,c,o

Dihedral Coeffs

   1	2	2.5	2	180	2.0	1	0	# hn,n,c,o
   2	1	3.625	2	180	# X,ca,ca,X
   3	1	0.15555555555555556	3	0	# X,c3,c3,X
   4	1	0.0	2	0	# X,c3,ca,X
   5	1	1.0	2	180	# X,c,ca,X
   6	1	2.5	2	180	# X,c,n,X
   7	1	0.45	2	180	# X,ca,n,X

Improper Coeffs

   1	1.1	-1	2	# n,X,X,hn
   2	1.1	-1	2	# ca,X,X,ha
   3	10.5	-1	2	# c,X,X,o
   4	1.1	-1	2	# ca,ca,ca,c3

Atoms

   1	1	1	0.486064	27.5804	-16.6538	6.09621
   2	1	2	0.047133	27.9194	-15.3229	5.85819
   3	1	3	0.001076	28.6676	-15.3543	4.57666
   4	1	2	0.034038	28.0946	-17.525	5.12884
   5	1	3	0.050122	28.7587	-16.6561	4.14176
   6	1	5	-0.383076	27.7471	-14.3494	6.5763
   7	1	5	-0.380811	28.0849	-18.7426	5.10732
   8	1	3	-0.001248	29.1603	-14.2975	3.80937
   9	1	3	-0.036565	29.3231	-16.9736	2.90663
  10	1	3	-0.208842	29.7579	-15.9192	2.08238
  11	1	3	-0.065319	29.7064	-14.5649	2.52601
  12	1	6	0.153391	29.0563	-13.2807	4.18243
  13	1	6	0.155343	29.3613	-18.0076	2.57163
  14	1	6	0.174191	30.1166	-16.1887	1.09525
  15	1	7	-0.106637	30.1145	-13.371	1.61585
  16	1	7	0.445763	28.7723	-12.7291	1.07666
  17	1	8	-0.144255	27.8696	-13.6316	0.623667
  18	1	8	-0.136881	28.1112	-12.0692	2.04928
  19	1	8	-0.144092	28.9953	-11.8565	0.068135
  20	1	7	0.367264	31.0218	-13.8175	0.410438
  21	1	8	-0.12104	31.6341	-12.7618	-0.172815
  22	1	8	-0.122614	30.3344	-14.4579	-0.560504
  23	1	8	-0.112321	32.0107	-14.6586	0.804846
  24	1	3	-0.021957	30.9814	-12.3414	2.40807
  25	1	3	-0.054241	30.9313	-10.9411	2.13974
  26	1	3	-0.111709	31.7563	-10.0541	2.832
  27	1	3	-0.087244	31.9504	-12.7972	3.33974
  28	1	3	-0.118951	32.7855	-11.8817	4.0264
  29	1	3	-0.044875	32.6627	-10.5056	3.75753
  30	1	2	0.461883	33.3817	-9.30624	4.285
  31	1	1	-0.007433	32.7981	-8.18956	3.6593
  32	1	2	0.491356	31.8179	-8.56572	2.76166
  33	1	3	-0.019445	33.2107	-6.81711	3.76544
  34	1	3	-0.186861	32.4046	-5.86596	4.44521
  35	1	3	-0.068374	32.8021	-4.52066	4.57148
  36	1	3	-0.009193	34.3867	-6.38309	3.10541
  37	1	3	0.220761	34.784	-5.03437	3.23744
  38	1	3	-0.402098	34.0046	-4.11347	3.96983
  39	1	6	0.148422	31.4758	-6.17665	4.90962
  40	1	6	0.146291	32.1837	-3.80913	5.118
  41	1	6	0.158981	33.5248	-12.2334	4.74359
  42	1	6	0.141813	32.0691	-13.8623	3.5289
  43	1	6	0.143633	30.2692	-10.5057	1.4046
  44	1	5	-0.474465	31.1516	-7.83651	2.04386
  45	1	5	-0.469737	34.3646	-9.35759	5.0048
  46	1	7	-0.37887	35.2385	-7.34307	2.25762
  47	1	9	0.115886	34.7262	-7.59379	1.31743
  48	1	9	0.123845	35.4728	-8.27219	2.78936
  49	1	9	0.138418	36.2011	-6.88511	1.99136
  50	1	6	0.21348	34.3303	-3.08062	4.05847
  51	1	1	0.486064	15.7672	-15.3962	10.4171
  52	1	2	0.047133	15.6381	-16.2977	9.35032
  53	1	3	0.001076	16.4934	-17.442	9.72665
  54	1	2	0.034038	16.5812	-15.8712	11.4584
  55	1	3	0.050122	17.0531	-17.1924	10.9621
  56	1	5	-0.383076	15.0051	-16.2121	8.3018
  57	1	5	-0.380811	16.9073	-15.3339	12.513
  58	1	3	-0.001248	16.7792	-18.6035	9.00575
  59	1	3	-0.036565	17.9527	-18.0881	11.5416
  60	1	3	-0.208842	18.2767	-19.2491	10.8142
  61	1	3	-0.065319	17.6784	-19.5499	9.55734
  62	1	6	0.153391	16.3055	-18.7254	8.03284
  63	1	6	0.155343	18.4182	-17.865	12.499
  64	1	6	0.174191	19.0126	-19.9252	11.247
  65	1	7	-0.106637	18.0472	-20.8799	8.84414
  66	1	7	0.445763	17.5227	-22.0358	9.79477
  67	1	8	-0.144255	17.4108	-23.2102	9.13849
  68	1	8	-0.136881	16.3155	-21.7839	10.3549
  69	1	8	-0.144092	18.355	-22.214	10.853
  70	1	7	0.367264	17.4161	-21.0306	7.38604
  71	1	8	-0.12104	17.7854	-22.1734	6.77727
  72	1	8	-0.122614	17.8597	-20.0866	6.52459
  73	1	8	-0.112321	16.0593	-21.0046	7.36318
  74	1	3	-0.021957	19.6003	-20.9066	8.67409
  75	1	3	-0.054241	20.282	-19.7033	8.35693
  76	1	3	-0.111709	21.6542	-19.7254	8.11714
  77	1	3	-0.087244	20.3648	-22.1052	8.77043
  78	1	3	-0.118951	21.7651	-22.0992	8.61385
  79	1	3	-0.044875	22.3849	-20.8874	8.27021
  80	1	2	0.461883	23.8256	-20.5141	8.20097
  81	1	1	-0.007433	23.8353	-19.1275	8.07184
  82	1	2	0.491356	22.5748	-18.5828	7.90221
  83	1	3	-0.019445	24.9995	-18.3349	8.19321
  84	1	3	-0.186861	25.5049	-18.0914	9.48216
  85	1	3	-0.068374	26.6556	-17.3148	9.65469
  86	1	3	-0.009193	25.6379	-17.7998	7.05798
  87	1	3	0.220761	26.8468	-17.0892	7.23301
  88	1	3	-0.402098	27.3348	-16.8293	8.53136
  89	1	6	0.148422	25.0133	-18.5097	10.3521
  90	1	6	0.146291	27.0435	-17.1326	10.6539
  91	1	6	0.158981	22.3495	-23.0023	8.76422
  92	1	6	0.141813	19.8858	-23.0532	8.99579
  93	1	6	0.143633	19.7599	-18.7533	8.29829
  94	1	5	-0.474465	22.2738	-17.413	7.71556
  95	1	5	-0.469737	24.7761	-21.2747	8.30394
  96	1	7	-0.37887	25.0596	-18.0349	5.65412
  97	1	9	0.115886	23.9696	-18.1252	5.64036
  98	1	9	0.123845	25.4693	-18.9527	5.2131
  99	1	9	0.138418	25.2845	-17.2092	4.96896
 100	1	6	0.21348	28.2484	-16.2576	8.66138
 101	1	1	0.486064	3.38679	-5.34414	10.6751
 102	1	2	0.047133	3.32516	-6.32294	11.6803
 103	1	3	0.001076	4.05998	-7.48647	11.1114
 104	1	2	0.034038	4.04431	-5.81002	9.50867
 105	1	3	0.050122	4.47695	-7.18091	9.83514
 106	1	5	-0.383076	2.88936	-6.19196	12.8079
 107	1	5	-0.380811	4.44732	-5.16356	8.55819
 108	1	3	-0.001248	4.50116	-8.6544	11.7461
 109	1	3	-0.036565	5.4037	-7.98541	9.16177
 110	1	3	-0.208842	5.90481	-9.1389	9.80803
 111	1	3	-0.065319	5.46434	-9.49469	11.1136
 112	1	6	0.153391	4.13125	-8.84817	12.7422
 113	1	6	0.155343	5.78706	-7.68705	8.19527
 114	1	6	0.174191	6.64855	-9.75285	9.29783
 115	1	7	-0.106637	6.04333	-10.7807	11.7856
 116	1	7	0.445763	5.7214	-10.888	13.3297
 117	1	8	-0.144255	5.92292	-9.72406	13.9959
 118	1	8	-0.136881	6.49415	-11.8	13.9561
 119	1	8	-0.144092	4.45855	-11.2445	13.5914
 120	1	7	0.367264	5.34713	-12.0349	11.1468
 121	1	8	-0.12104	3.99635	-11.998	11.2706
 122	1	8	-0.122614	5.75755	-13.1732	11.7373
 123	1	8	-0.112321	5.60857	-12.1125	9.83036
 124	1	3	-0.021957	7.6055	-10.7812	11.6294
 125	1	3	-0.054241	8.40679	-11.9007	11.2396
 126	1	3	-0.111709	9.81897	-11.7793	11.2997
 127	1	3	-0.087244	8.27357	-9.58155	11.9852
 128	1	3	-0.118951	9.68212	-9.48751	12.0189
 129	1	3	-0.044875	10.4401	-10.6212	11.7168
 130	1	2	0.461883	11.9206	-10.8167	11.7277
 131	1	1	-0.007433	12.1259	-12.0746	11.1667
 132	1	2	0.491356	10.917	-12.7351	10.9448
 133	1	3	-0.019445	13.4081	-12.4881	10.674
 134	1	3	-0.186861	14.1468	-11.5406	9.93136
 135	1	3	-0.068374	15.435	-11.8166	9.47948
 136	1	3	-0.009193	13.967	-13.7674	10.9373
 137	1	3	0.220761	15.2292	-14.0838	10.3578
 138	1	3	-0.402098	15.9726	-13.0875	9.68461
 139	1	6	0.148422	13.7571	-10.5334	9.78943
 140	1	6	0.146291	15.991	-11.0669	8.92049
 141	1	6	0.158981	10.182	-8.56713	12.3125
 142	1	6	0.141813	7.69194	-8.70587	12.2654
 143	1	6	0.143633	7.96871	-12.8442	10.9248
 144	1	5	-0.474465	10.7661	-13.7854	10.3514
 145	1	5	-0.469737	12.754	-9.95065	11.9701
 146	1	7	-0.37887	13.2421	-14.7757	11.8552
 147	1	9	0.115886	13.9425	-15.3134	12.5092
 148	1	9	0.123845	12.6718	-15.5136	11.2759
 149	1	9	0.138418	12.5304	-14.2973	12.5341
 150	1	6	0.21348	16.9378	-13.3268	9.24522
 151	1	3	-0.004194	-7.3259	1.78831	13.7469
 152	1	3	-0.097141	-6.21005	1.65656	12.8592
 153	1	3	-0.172015	-5.57867	2.85202	12.4439
 154	1	5	-0.377994	-9.67419	2.69847	15.5915
 155	1	3	0.033493	-7.72979	3.06617	14.2037
 156	1	3	-0.063739	-6.05511	4.1294	12.8212
 157	1	5	-0.398381	-7.65835	6.5915	14.0153
 158	1	3	0.032144	-7.12311	4.21974	13.7321
 159	1	2	0.032313	-8.88263	3.46269	15.0605
 160	1	1	0.461698	-8.92133	4.86367	15.0216
 161	1	2	0.091945	-7.87855	5.4115	14.2599
 162	1	3	-0.10563	-2.28494	-0.0279315	13.9393
 163	1	7	-0.099376	-5.75908	0.2916	12.2257
 164	1	3	-0.043296	-4.22386	0.0483614	12.3805
 165	1	3	-0.073043	-3.60676	0.348563	13.6326
 166	1	3	-0.117827	-1.58824	-0.748869	12.9635
 167	1	3	-0.037562	-3.44323	-0.634204	11.4007
 168	1	3	-0.083705	-2.13519	-1.01352	11.7237
 169	1	7	0.396	-6.22489	0.31311	10.7112
 170	1	7	0.310495	-6.41145	-0.950821	12.9375
 171	1	8	-0.130298	-5.4643	1.13274	9.94234
 172	1	8	-0.128745	-7.51502	0.715353	10.595
 173	1	8	-0.120019	-6.18203	-0.904217	10.1336
 174	1	8	-0.104287	-6.21667	-0.917198	14.2795
 175	1	8	-0.095507	-5.86875	-2.10815	12.5042
 176	1	8	-0.104872	-7.74254	-1.05332	12.7158
 177	1	2	0.456145	-1.10368	-1.70026	10.9044
 178	1	2	0.550902	-0.202758	-1.26598	12.9772
 179	1	1	0.015704	0.0275608	-1.78899	11.7106
 180	1	5	-0.456801	-1.2512	-2.11226	9.76681
 181	1	5	-0.487703	0.573566	-1.21322	13.9072
 182	1	3	-0.116566	1.33005	-2.23681	11.2975
 183	1	3	-0.050109	1.66659	-3.59534	11.0874
 184	1	3	0.154929	3.03242	-3.97535	10.8819
 185	1	3	0.041555	2.34369	-1.25184	11.2043
 186	1	3	-0.223109	3.68341	-1.63389	11.0633
 187	1	3	-0.080449	4.0393	-2.97628	10.9341
 188	1	7	-0.108008	2.00624	0.247711	11.1531
 189	1	7	-0.182228	5.53837	-3.28011	10.8018
 190	1	7	-0.345523	0.570182	-4.65834	11.1498
 191	1	6	0.155183	-7.90371	0.942276	14.077
 192	1	6	0.172904	-4.74651	2.78853	11.7499
 193	1	6	0.158028	-5.59987	5.03106	12.421
 194	1	6	0.153129	-1.83164	0.199031	14.9042
 195	1	6	0.142914	-4.1829	0.846584	14.4053
 196	1	6	0.135531	-3.83202	-0.896381	10.421
 197	1	6	0.17765	4.44968	-0.853894	11.0569
 198	1	9	0.046541	1.00523	0.440691	10.7296
 199	1	9	0.045238	2.70795	0.777872	10.5055
 200	1	9	0.051941	2.00749	0.696173	12.1447
 201	1	9	0.087961	5.81103	-4.22025	11.231
 202	1	9	0.066782	6.15818	-2.50029	11.3317
 203	1	9	0.075908	5.84968	-3.33836	9.74963
 204	1	9	0.105172	0.883104	-5.64894	10.7767
 205	1	9	0.115625	-0.289948	-4.38908	10.5252
 206	1	9	0.140296	0.207653	-4.76646	12.1792
 207	1	3	-0.004194	-19.1533	3.56925	10.2618
 208	1	3	-0.097141	-18.1028	4.37563	10.7772
 209	1	3	-0.172015	-16.7589	3.89351	10.7068
 210	1	5	-0.377994	-20.8861	1.17136	9.4309
 211	1	3	0.033493	-18.8119	2.27717	9.84271
 212	1	3	-0.063739	-16.4408	2.6012	10.263
 213	1	5	-0.398381	-16.5219	-0.351592	9.67241
 214	1	3	0.032144	-17.5099	1.81295	9.86604
 215	1	2	0.032313	-19.6752	1.13708	9.4658
 216	1	1	0.461698	-18.8261	0.0347271	9.30652
 217	1	2	0.091945	-17.5	0.371017	9.58727
 218	1	3	-0.10563	-16.8084	4.52133	14.8234
 219	1	7	-0.099376	-18.3535	5.75517	11.4782
 220	1	3	-0.043296	-17.4406	5.73483	12.7514
 221	1	3	-0.073043	-17.651	4.70251	13.7131
 222	1	3	-0.117827	-15.6991	5.35177	14.927
 223	1	3	-0.037562	-16.3651	6.64661	12.9753
 224	1	3	-0.083705	-15.4913	6.39783	14.0486
 225	1	7	0.396	-19.8485	6.00605	11.9703
 226	1	7	0.310495	-18.0003	6.89169	10.4419
 227	1	8	-0.130298	-19.9002	7.01563	12.8643
 228	1	8	-0.128745	-20.3765	4.93782	12.6122
 229	1	8	-0.120019	-20.7201	6.33153	10.9906
 230	1	8	-0.104287	-16.7188	6.81136	10.0394
 231	1	8	-0.095507	-18.1511	8.14744	10.9238
 232	1	8	-0.104872	-18.7496	6.79486	9.31439
 233	1	2	0.456145	-14.1843	7.02293	14.4114
 234	1	2	0.550902	-14.519	5.23152	15.8162
 235	1	1	0.015704	-13.6585	6.24575	15.4338
 236	1	5	-0.456801	-13.6218	7.93267	13.8273
 237	1	5	-0.487703	-14.3209	4.32764	16.6089
 238	1	3	-0.116566	-12.3046	6.32259	15.8958
 239	1	3	-0.050109	-11.2803	5.65103	15.173
 240	1	3	0.154929	-9.94705	5.62123	15.6728
 241	1	3	0.041555	-12.0062	6.94123	17.1318
 242	1	3	-0.223109	-10.6844	6.90414	17.6052
 243	1	3	-0.080449	-9.6547	6.27046	16.8906
 244	1	7	-0.108008	-13.0504	7.6729	17.9656
 245	1	7	-0.182228	-8.24488	6.30722	17.4857
 246	1	7	-0.345523	-11.6276	4.99621	13.8296
 247	1	6	0.155183	-20.1947	3.87862	10.2681
 248	1	6	0.172904	-15.9405	4.50835	11.074
 249	1	6	0.158028	-15.4227	2.2146	10.2882
 250	1	6	0.153129	-16.9591	3.70069	15.5218
 251	1	6	0.142914	-18.4435	3.97578	13.5698
 252	1	6	0.135531	-16.1526	7.4749	12.3071
 253	1	6	0.17765	-10.4434	7.40738	18.5381
 254	1	9	0.046541	-12.5803	8.27421	18.7542
 255	1	9	0.045238	-13.7253	6.9602	18.4608
 256	1	9	0.051941	-13.6531	8.35204	17.3477
 257	1	9	0.087961	-8.17253	7.02175	18.3139
 258	1	9	0.066782	-7.49779	6.61407	16.7476
 259	1	9	0.075908	-7.95703	5.32914	17.8851
 260	1	9	0.105172	-11.828	5.76038	13.0655
 261	1	9	0.115625	-12.5078	4.3487	13.9092
 262	1	9	0.140296	-10.8377	4.34226	13.4357
 263	1	3	-0.004194	-25.4448	-9.50321	11.4482
 264	1	3	-0.097141	-26.5505	-8.68455	11.7889
 265	1	3	-0.172015	-27.7311	-9.34609	12.2157
 266	1	5	-0.377994	-23.4174	-11.7494	10.9024
 267	1	3	0.033493	-25.5251	-10.8939	11.5858
 268	1	3	-0.063739	-27.8251	-10.7559	12.2661
 269	1	5	-0.398381	-27.3383	-13.8108	12.1931
 270	1	3	0.032144	-26.7028	-11.5022	11.9372
 271	1	2	0.032313	-24.5628	-11.9465	11.2342
 272	1	1	0.461698	-25.244	-13.1579	11.3302
 273	1	2	0.091945	-26.5245	-12.9708	11.8591
 274	1	3	-0.10563	-22.7202	-6.53926	12.2602
 275	1	7	-0.099376	-26.5309	-7.14184	11.5308
 276	1	3	-0.043296	-25.0628	-6.61589	11.4095
 277	1	3	-0.073043	-24.0595	-7.01699	12.351
 278	1	3	-0.117827	-22.3909	-5.63586	11.2492
 279	1	3	-0.037562	-24.6849	-5.65244	10.439
 280	1	3	-0.083705	-23.3608	-5.20608	10.3743
 281	1	7	0.396	-27.3457	-6.89355	10.2125
 282	1	7	0.310495	-27.1077	-6.35285	12.7516
 283	1	8	-0.130298	-28.553	-7.50746	10.1742
 284	1	8	-0.128745	-26.6351	-7.33488	9.13537
 285	1	8	-0.120019	-27.5872	-5.58167	10.0362
 286	1	8	-0.104287	-26.8164	-5.04054	12.6405
 287	1	8	-0.095507	-26.557	-6.83574	13.8942
 288	1	8	-0.104872	-28.4495	-6.4013	12.8964
 289	1	2	0.456145	-22.7176	-4.28316	9.40669
 290	1	2	0.550902	-21.1079	-4.94892	10.9286
 291	1	1	0.015704	-21.3929	-4.1776	9.81287
 292	1	5	-0.456801	-23.2839	-3.65628	8.52563
 293	1	5	-0.487703	-20.0617	-5.01142	11.5602
 294	1	3	-0.116566	-20.4472	-3.36082	9.13683
 295	1	3	-0.050109	-20.1117	-2.07346	9.62711
 296	1	3	0.154929	-19.2017	-1.27768	8.87549
 297	1	3	0.041555	-19.8579	-3.84919	7.94639
 298	1	3	-0.223109	-18.9176	-3.08091	7.25598
 299	1	3	-0.080449	-18.6099	-1.78233	7.68356
 300	1	7	-0.108008	-20.1956	-5.21674	7.36867
 301	1	7	-0.182228	-17.6826	-0.945096	6.79181
 302	1	7	-0.345523	-20.7113	-1.58512	10.9643
 303	1	6	0.155183	-24.5415	-9.08487	11.0349
 304	1	6	0.172904	-28.6292	-8.77591	12.4204
 305	1	6	0.158028	-28.7516	-11.2536	12.5384
 306	1	6	0.153129	-21.9516	-6.86024	12.9596
 307	1	6	0.142914	-24.3208	-7.70963	13.1459
 308	1	6	0.135531	-25.3541	-5.2677	9.68182
 309	1	6	0.17765	-18.4821	-3.46755	6.33584
 310	1	9	0.046541	-20.2338	-5.97918	8.15663
 311	1	9	0.045238	-19.433	-5.54035	6.65159
 312	1	9	0.051941	-21.1586	-5.21156	6.84629
 313	1	9	0.087961	-17.63	-1.34743	5.77141
 314	1	9	0.066782	-16.651	-0.92657	7.17184
 315	1	9	0.075908	-18.0364	0.0907113	6.69951
 316	1	9	0.105172	-20.6492	-2.34573	11.7511
 317	1	9	0.115625	-21.767	-1.32741	10.8328
 318	1	9	0.140296	-20.2216	-0.704159	11.3856
 319	1	1	0.486064	-16.7991	-11.2974	-0.290491
 320	1	2	0.047133	-16.5828	-12.6687	-0.148246
 321	1	3	0.001076	-17.6146	-13.1421	0.818426
 322	1	2	0.034038	-17.8763	-10.8461	0.476322
 323	1	3	0.050122	-18.3981	-12.0562	1.16113
 324	1	5	-0.383076	-15.7677	-13.3726	-0.714477
 325	1	5	-0.380811	-18.3256	-9.71944	0.585835
 326	1	3	-0.001248	-17.8295	-14.4086	1.37359
 327	1	3	-0.036565	-19.4746	-12.1862	2.04548
 328	1	3	-0.208842	-19.7086	-13.452	2.60355
 329	1	3	-0.065319	-18.8813	-14.5733	2.31645
 330	1	6	0.153391	-17.1806	-15.2201	1.07564
 331	1	6	0.155343	-20.0986	-11.3343	2.28411
 332	1	6	0.174191	-20.4868	-13.5289	3.36273
 333	1	7	-0.106637	-19.2323	-15.9492	2.9272
 334	1	7	0.445763	-20.3971	-16.479	2.00136
 335	1	8	-0.144255	-21.5264	-15.7363	2.14264
 336	1	8	-0.136881	-20.7455	-17.7429	2.27002
 337	1	8	-0.144092	-20.0938	-16.4626	0.671954
 338	1	7	0.367264	-18.061	-17.0035	2.94167
 339	1	8	-0.12104	-17.66	-17.4103	1.72016
 340	1	8	-0.122614	-18.5044	-18.108	3.59466
 341	1	8	-0.112321	-16.9576	-16.6016	3.61202
 342	1	3	-0.021957	-19.6561	-15.7324	4.43077
 343	1	3	-0.054241	-20.8263	-16.2907	5.03341
 344	1	3	-0.111709	-21.1418	-15.9906	6.38438
 345	1	3	-0.087244	-18.8484	-14.9177	5.25983
 346	1	3	-0.118951	-19.1965	-14.6055	6.59764
 347	1	3	-0.044875	-20.362	-15.1417	7.13602
 348	1	2	0.461883	-20.9777	-14.9509	8.48049
 349	1	1	-0.007433	-22.1223	-15.7226	8.47884
 350	1	2	0.491356	-22.2687	-16.4187	7.27754
 351	1	3	-0.019445	-23.0712	-15.6939	9.56201
 352	1	3	-0.186861	-23.0784	-16.7408	10.5163
 353	1	3	-0.068374	-23.8995	-16.6464	11.652
 354	1	3	-0.009193	-23.927	-14.5756	9.74058
 355	1	3	0.220761	-24.6229	-14.4083	10.9735
 356	1	3	-0.402098	-24.6466	-15.4841	11.8857
 357	1	6	0.148422	-22.4171	-17.6039	10.417
 358	1	6	0.146291	-23.9143	-17.4699	12.3596
 359	1	6	0.158981	-18.5661	-13.964	7.20245
 360	1	6	0.141813	-17.9328	-14.4878	4.86154
 361	1	6	0.143633	-21.4975	-16.9251	4.45894
 362	1	5	-0.474465	-23.2359	-17.0756	6.96354
 363	1	5	-0.469737	-20.557	-14.2285	9.36091
 364	1	7	-0.37887	-24.0743	-13.5977	8.56151
 365	1	9	0.115886	-23.2082	-12.9192	8.50178
 366	1	9	0.123845	-24.9802	-12.9869	8.61185
 367	1	9	0.138418	-24.1262	-14.1386	7.60931
 368	1	6	0.21348	-25.2318	-15.4225	12.8007
 369	1	3	-0.004194	-8.43641	-5.61255	0.70733
 370	1	3	-0.097141	-7.83271	-4.89757	-0.367831
 371	1	3	-0.172015	-7.50937	-3.52857	-0.165249
 372	1	5	-0.377994	-9.85659	-6.53027	3.41183
 373	1	3	0.033493	-8.76416	-4.93516	1.89763
 374	1	3	-0.063739	-7.83314	-2.87937	1.04276
 375	1	5	-0.398381	-8.6067	-2.10899	3.99836
 376	1	3	0.032144	-8.48548	-3.58656	2.05581
 377	1	2	0.032313	-9.42962	-5.40789	3.1594
 378	1	1	0.461698	-9.43442	-4.28831	4.01004
 379	1	2	0.091945	-8.89565	-3.14811	3.42517
 380	1	3	-0.10563	-9.10035	-9.16674	-2.34659
 381	1	7	-0.099376	-7.49784	-5.60309	-1.71077
 382	1	3	-0.043296	-8.50636	-6.77204	-1.94655
 383	1	3	-0.073043	-8.15207	-8.11073	-2.30552
 384	1	3	-0.117827	-10.4426	-8.84361	-2.1108
 385	1	3	-0.037562	-9.8855	-6.51204	-1.71899
 386	1	3	-0.083705	-10.8325	-7.54598	-1.82233
 387	1	7	0.396	-7.67759	-4.6565	-2.95603
 388	1	7	0.310495	-6.00768	-6.0725	-1.60225
 389	1	8	-0.130298	-8.90302	-4.07756	-2.97956
 390	1	8	-0.128745	-7.58321	-5.35694	-4.11052
 391	1	8	-0.120019	-6.74117	-3.69147	-3.03748
 392	1	8	-0.104287	-5.91072	-7.08512	-0.714853
 393	1	8	-0.095507	-5.15399	-5.11103	-1.16025
 394	1	8	-0.104872	-5.56651	-6.53919	-2.79447
 395	1	2	0.456145	-12.2973	-7.5533	-1.59173
 396	1	2	0.550902	-11.6354	-9.71528	-2.10368
 397	1	1	0.015704	-12.691	-8.87735	-1.75642
 398	1	5	-0.456801	-12.9953	-6.59153	-1.32883
 399	1	5	-0.487703	-11.6389	-10.8758	-2.47326
 400	1	3	-0.116566	-14.0477	-9.2569	-1.89543
 401	1	3	-0.050109	-14.7018	-10.0897	-0.945491
 402	1	3	0.154929	-16.0714	-10.4461	-1.17654
 403	1	3	0.041555	-14.7384	-8.79104	-3.04611
 404	1	3	-0.223109	-16.0972	-9.12388	-3.21602
 405	1	3	-0.080449	-16.7568	-9.95957	-2.31515
 406	1	7	-0.108008	-14.0619	-8.00418	-4.17043
 407	1	7	-0.182228	-18.206	-10.2896	-2.64502
 408	1	7	-0.345523	-13.9649	-10.6198	0.290794
 409	1	6	0.155183	-8.63353	-6.67025	0.6419
 410	1	6	0.172904	-6.95608	-2.95983	-0.897169
 411	1	6	0.158028	-7.55261	-1.83472	1.19933
 412	1	6	0.153129	-8.83305	-10.1877	-2.60843
 413	1	6	0.142914	-7.12892	-8.37686	-2.53117
 414	1	6	0.135531	-10.2214	-5.51377	-1.45345
 415	1	6	0.17765	-16.6227	-8.78778	-4.10598
 416	1	9	0.046541	-13.6605	-7.04072	-3.839
 417	1	9	0.045238	-14.7651	-7.77533	-4.97976
 418	1	9	0.051941	-13.2416	-8.58052	-4.60222
 419	1	9	0.087961	-18.4802	-11.3154	-2.36757
 420	1	9	0.066782	-18.4344	-10.1779	-3.71396
 421	1	9	0.075908	-18.8842	-9.62126	-2.11858
 422	1	9	0.105172	-13.7893	-11.6884	0.189958
 423	1	9	0.115625	-14.5457	-10.4492	1.2037
 424	1	9	0.140296	-12.9863	-10.1623	0.480193
 425	1	1	0.486064	-18.3184	-7.71722	13.3814
 426	1	2	0.047133	-17.1168	-7.19851	12.9162
 427	1	3	0.001076	-17.0714	-5.83012	13.4486
 428	1	2	0.034038	-18.9959	-6.84948	14.219
 429	1	3	0.050122	-18.1654	-5.62173	14.2449
 430	1	5	-0.383076	-16.2629	-7.70989	12.2116
 431	1	5	-0.380811	-20.0918	-6.99821	14.7279
 432	1	3	-0.001248	-16.1799	-4.81185	13.1519
 433	1	3	-0.036565	-18.4131	-4.39293	14.8544
 434	1	3	-0.208842	-17.5797	-3.31121	14.4952
 435	1	3	-0.065319	-16.488	-3.49302	13.5935
 436	1	6	0.153391	-15.3191	-5.03574	12.5195
 437	1	6	0.155343	-19.2846	-4.26339	15.4876
 438	1	6	0.174191	-17.7791	-2.33333	14.9245
 439	1	7	-0.106637	-15.5533	-2.31764	13.1655
 440	1	7	0.445763	-16.2787	-0.922197	13.0274
 441	1	8	-0.144255	-15.5279	-0.0634585	12.2799
 442	1	8	-0.136881	-17.4549	-1.03995	12.3734
 443	1	8	-0.144092	-16.5472	-0.308305	14.2172
 444	1	7	0.367264	-14.4317	-2.18937	14.2533
 445	1	8	-0.12104	-13.6601	-1.09867	14.0631
 446	1	8	-0.122614	-13.6419	-3.29698	14.23
 447	1	8	-0.112321	-14.9394	-2.06542	15.5016
 448	1	3	-0.021957	-14.9798	-2.65176	11.755
 449	1	3	-0.054241	-13.6035	-2.47028	11.4081
 450	1	3	-0.111709	-13.1364	-2.83634	10.1189
 451	1	3	-0.087244	-15.8585	-3.15585	10.7512
 452	1	3	-0.118951	-15.3759	-3.55364	9.47918
 453	1	3	-0.044875	-13.9977	-3.41331	9.19516
 454	1	2	0.461883	-13.1851	-3.91372	8.03343
 455	1	1	-0.007433	-11.8661	-3.58224	8.3175
 456	1	2	0.491356	-11.742	-2.95023	9.55899
 457	1	3	-0.019445	-10.7558	-4.01802	7.53573
 458	1	3	-0.186861	-9.78364	-4.79422	8.18884
 459	1	3	-0.068374	-8.74526	-5.38674	7.46383
 460	1	3	-0.009193	-10.6301	-3.73738	6.14291
 461	1	3	0.220761	-9.60626	-4.4036	5.41012
 462	1	3	-0.402098	-8.66411	-5.2123	6.07725
 463	1	6	0.148422	-9.84288	-4.97199	9.26396
 464	1	6	0.146291	-7.97331	-5.96115	7.98827
 465	1	6	0.158981	-16.0519	-3.95807	8.72663
 466	1	6	0.141813	-16.9229	-3.26094	10.9606
 467	1	6	0.143633	-12.879	-2.07779	12.1115
 468	1	5	-0.474465	-10.7059	-2.67171	10.1509
 469	1	5	-0.469737	-13.605	-4.45575	7.02844
 470	1	7	-0.37887	-11.6404	-2.82211	5.43832
 471	1	9	0.115886	-12.3578	-3.41368	4.85179
 472	1	9	0.123845	-11.1606	-2.09429	4.76886
 473	1	9	0.138418	-12.229	-2.24165	6.16265
 474	1	6	0.21348	-7.87555	-5.71406	5.52379
 475	1	1	0.486064	-23.994	-13.6508	-0.398747
 476	1	2	0.047133	-23.9249	-12.3033	-0.0713679
 477	1	3	0.001076	-24.0665	-12.2299	1.39105
 478	1	2	0.034038	-24.3317	-14.4262	0.710798
 479	1	3	0.050122	-24.297	-13.5008	1.87359
 480	1	5	-0.383076	-23.5294	-11.3887	-0.760151
 481	1	5	-0.380811	-24.4599	-15.6413	0.737513
 482	1	3	-0.001248	-23.8528	-11.1633	2.25549
 483	1	3	-0.036565	-24.3066	-13.8125	3.24445
 484	1	3	-0.208842	-24.1511	-12.7221	4.15126
 485	1	3	-0.065319	-23.9489	-11.3918	3.66187
 486	1	6	0.153391	-23.6637	-10.1934	1.8124
 487	1	6	0.155343	-24.4283	-14.8498	3.57107
 488	1	6	0.174191	-24.2015	-12.9139	5.22408
 489	1	7	-0.106637	-23.9014	-10.2229	4.67255
 490	1	7	0.445763	-23.5434	-8.83232	4.05677
 491	1	8	-0.144255	-22.343	-8.85709	3.44567
 492	1	8	-0.136881	-23.4467	-7.87011	5.01363
 493	1	8	-0.144092	-24.4468	-8.31943	3.17128
 494	1	7	0.367264	-25.3536	-10.1361	5.2586
 495	1	8	-0.12104	-26.2987	-10.142	4.28895
 496	1	8	-0.122614	-25.568	-9.02183	5.96975
 497	1	8	-0.112321	-25.6266	-11.1502	6.10096
 498	1	3	-0.021957	-22.8257	-10.5003	5.76425
 499	1	3	-0.054241	-22.9124	-9.98282	7.09612
 500	1	3	-0.111709	-21.8847	-10.2608	8.01581
 501	1	3	-0.087244	-21.6538	-11.2356	5.42356
 502	1	3	-0.118951	-20.6364	-11.5152	6.36744
 503	1	3	-0.044875	-20.7736	-11.0028	7.66301
 504	1	2	0.461883	-19.8647	-11.096	8.8502
 505	1	1	-0.007433	-20.5173	-10.3941	9.85724
 506	1	2	0.491356	-21.7051	-9.82409	9.43293
 507	1	3	-0.019445	-20.0207	-10.2322	11.1747
 508	1	3	-0.186861	-20.2375	-11.2669	12.0973
 509	1	3	-0.068374	-19.8224	-11.1178	13.424
 510	1	3	-0.009193	-19.3812	-9.02927	11.5659
 511	1	3	0.220761	-18.9266	-8.90385	12.9083
 512	1	3	-0.402098	-19.1682	-9.94299	13.83
 513	1	6	0.148422	-20.771	-12.1652	11.7913
 514	1	6	0.146291	-20.0235	-11.9213	14.1287
 515	1	6	0.158981	-19.7453	-12.0625	6.09481
 516	1	6	0.141813	-21.5147	-11.6059	4.41053
 517	1	6	0.143633	-23.7502	-9.38835	7.44031
 518	1	5	-0.474465	-22.4075	-9.02071	10.03
 519	1	5	-0.469737	-18.7428	-11.5857	8.88712
 520	1	7	-0.37887	-19.2222	-7.9083	10.5291
 521	1	9	0.115886	-18.4811	-8.18284	9.76594
 522	1	9	0.123845	-18.876	-6.97615	10.9686
 523	1	9	0.138418	-20.1642	-7.68148	10.0142
 524	1	6	0.21348	-18.8794	-9.81461	14.8727
 525	1	3	-0.004194	-15.306	-14.6043	-7.9538
 526	1	3	-0.097141	-14.4047	-14.0411	-7.01757
 527	1	3	-0.172015	-13.0117	-14.1483	-7.22924
 528	1	5	-0.377994	-16.7157	-16.1849	-10.1801
 529	1	3	0.033493	-14.8115	-15.3293	-9.02491
 530	1	3	-0.063739	-12.5617	-14.8343	-8.372
 531	1	5	-0.398381	-12.2328	-16.357	-11.1591
 532	1	3	0.032144	-13.4583	-15.4108	-9.24023
 533	1	2	0.032313	-15.512	-16.0806	-10.0663
 534	1	1	0.461698	-14.5159	-16.582	-10.861
 535	1	2	0.091945	-13.2451	-16.1703	-10.4972
 536	1	3	-0.10563	-17.2302	-16.1924	-4.6653
 537	1	7	-0.099376	-14.9848	-13.2299	-5.81798
 538	1	3	-0.043296	-16.1832	-14.0268	-5.24818
 539	1	3	-0.073043	-16.1387	-15.4352	-5.13101
 540	1	3	-0.117827	-18.3848	-15.504	-4.32457
 541	1	3	-0.037562	-17.3807	-13.3729	-4.87485
 542	1	3	-0.083705	-18.4588	-14.1317	-4.40792
 543	1	7	0.396	-15.3474	-11.844	-6.38603
 544	1	7	0.310495	-14.0168	-13.081	-4.59708
 545	1	8	-0.130298	-16.3563	-11.8728	-7.27723
 546	1	8	-0.128745	-14.2947	-11.2637	-6.98578
 547	1	8	-0.120019	-15.7791	-11.0412	-5.40008
 548	1	8	-0.104287	-13.575	-14.3135	-4.19511
 549	1	8	-0.095507	-14.6678	-12.5612	-3.56324
 550	1	8	-0.104872	-12.9977	-12.2112	-4.7685
 551	1	2	0.456145	-19.8079	-13.7003	-4.01475
 552	1	2	0.550902	-19.649	-16.0052	-3.80467
 553	1	1	0.015704	-20.4481	-14.8734	-3.67502
 554	1	5	-0.456801	-20.2178	-12.5521	-3.9511
 555	1	5	-0.487703	-19.8621	-17.1841	-3.60901
 556	1	3	-0.116566	-21.8005	-14.8889	-3.23622
 557	1	3	-0.050109	-22.1907	-14.3492	-1.98445
 558	1	3	0.154929	-23.575	-14.1947	-1.65188
 559	1	3	0.041555	-22.8181	-15.2689	-4.14952
 560	1	3	-0.223109	-24.181	-15.14	-3.82003
 561	1	3	-0.080449	-24.5594	-14.5878	-2.59137
 562	1	7	-0.108008	-22.4411	-15.8744	-5.47468
 563	1	7	-0.182228	-26.0553	-14.5178	-2.30152
 564	1	7	-0.345523	-21.0873	-13.8075	-1.08006
 565	1	6	0.155183	-16.3868	-14.5578	-7.82246
 566	1	6	0.172904	-12.2956	-13.6754	-6.55533
 567	1	6	0.158028	-11.484	-14.9153	-8.58529
 568	1	6	0.153129	-17.161	-17.2738	-4.53002
 569	1	6	0.142914	-15.2184	-15.9494	-5.39316
 570	1	6	0.135531	-17.5533	-12.3071	-4.92644
 571	1	6	0.17765	-24.9465	-15.458	-4.53843
 572	1	9	0.046541	-21.6501	-15.337	-6.00845
 573	1	9	0.045238	-23.3136	-15.9356	-6.15986
 574	1	9	0.051941	-22.0798	-16.9109	-5.3119
 575	1	9	0.087961	-26.5562	-13.7912	-2.94451
 576	1	9	0.066782	-26.2877	-14.2481	-1.26625
 577	1	9	0.075908	-26.5329	-15.4945	-2.4467
 578	1	9	0.105172	-21.3945	-13.7013	-0.0299279
 579	1	9	0.115625	-20.7256	-12.8317	-1.40144
 580	1	9	0.140296	-20.2156	-14.4722	-1.05349
 581	1	1	0.486064	-12.8562	-24.2587	-7.45479
 582	1	2	0.047133	-13.9397	-24.1275	-8.30807
 583	1	3	0.001076	-13.6923	-25.1703	-9.32104
 584	1	2	0.034038	-12.0263	-25.3618	-7.78794
 585	1	3	0.050122	-12.5721	-25.9039	-9.00939
 586	1	5	-0.383076	-14.8489	-23.3443	-8.26536
 587	1	5	-0.380811	-11.1122	-25.8415	-7.13373
 588	1	3	-0.001248	-14.4436	-25.4537	-10.431
 589	1	3	-0.036565	-12.0945	-26.8853	-9.83155
 590	1	3	-0.208842	-12.8011	-27.1271	-11.0018
 591	1	3	-0.065319	-13.9777	-26.4353	-11.3516
 592	1	6	0.153391	-15.34	-24.9037	-10.5717
 593	1	6	0.155343	-11.2524	-27.4723	-9.50259
 594	1	6	0.174191	-12.4299	-27.9103	-11.6713
 595	1	7	-0.106637	-14.7585	-26.7779	-12.6675
 596	1	7	0.445763	-13.9238	-27.3394	-13.8773
 597	1	8	-0.144255	-13.5947	-28.6369	-13.6841
 598	1	8	-0.136881	-12.7599	-26.6559	-13.9128
 599	1	8	-0.144092	-14.5811	-27.2954	-15.0831
 600	1	7	0.367264	-15.8677	-27.8465	-12.3191
 601	1	8	-0.12104	-16.6617	-27.3068	-11.3838
 602	1	8	-0.122614	-15.3905	-28.9708	-11.7409
 603	1	8	-0.112321	-16.6244	-28.1851	-13.4159
 604	1	3	-0.021957	-15.3006	-25.3737	-13.1819
 605	1	3	-0.054241	-14.4268	-24.2522	-13.104
 606	1	3	-0.111709	-14.9572	-22.9859	-13.2615
 607	1	3	-0.087244	-16.6317	-25.1649	-13.5988
 608	1	3	-0.118951	-17.1001	-23.8683	-13.9531
 609	1	3	-0.044875	-16.2352	-22.7719	-13.6883
 610	1	2	0.461883	-16.3587	-21.2794	-13.8996
 611	1	1	-0.007433	-15.1609	-20.6888	-13.4767
 612	1	2	0.491356	-14.2416	-21.665	-13.1934
 613	1	3	-0.019445	-14.8782	-19.3011	-13.385
 614	1	3	-0.186861	-15.028	-18.5323	-14.5447
 615	1	3	-0.068374	-15.1034	-17.159	-14.4695
 616	1	3	-0.009193	-14.7507	-18.6981	-12.0997
 617	1	3	0.220761	-14.8014	-17.2714	-12.0573
 618	1	3	-0.402098	-14.9913	-16.5217	-13.2384
 619	1	6	0.148422	-15.2081	-18.9754	-15.5177
 620	1	6	0.146291	-15.2765	-16.5918	-15.3861
 621	1	6	0.158981	-18.1615	-23.7316	-14.294
 622	1	6	0.141813	-17.3151	-25.9959	-13.6334
 623	1	6	0.143633	-13.3485	-24.3334	-12.8573
 624	1	5	-0.474465	-13.0599	-21.521	-12.9031
 625	1	5	-0.469737	-17.3425	-20.6895	-14.327
 626	1	7	-0.37887	-14.5401	-19.5788	-10.838
 627	1	9	0.115886	-15.3038	-20.3579	-10.8378
 628	1	9	0.123845	-14.5904	-19.0851	-9.88607
 629	1	9	0.138418	-13.5746	-20.068	-10.8719
 630	1	6	0.21348	-15.1142	-15.4764	-13.2086
 631	1	3	-0.004194	-6.5727	-13.3908	-3.18868
 632	1	3	-0.097141	-7.44518	-14.1589	-4.03558
 633	1	3	-0.172015	-6.94436	-14.5195	-5.30687
 634	1	5	-0.377994	-4.14515	-12.2549	-1.71292
 635	1	3	0.033493	-5.33151	-12.9959	-3.68703
 636	1	3	-0.063739	-5.63097	-14.1802	-5.72838