pySIMM System Object

2326 atoms
2545 bonds
4472 angles
6752 dihedrals
704 impropers

9 atom types
11 bond types
18 angle types
7 dihedral types
4 improper types

-172.151626 172.151626 xlo xhi
-172.151626 172.151626 ylo yhi
-172.151626 172.151626 zlo zhi

Masses

   1	12.01	# ca
   2	16.0	# o
   3	12.01	# c
   4	14.01	# n
   5	12.01	# c3
   6	19.0	# f
   7	1.008	# ha
   8	1.008	# hn
   9	1.008	# hc

Pair Coeffs

   1	0.086	3.3996695084235347	# ca
   2	0.21	2.959921901149463	# o
   3	0.086	3.3996695084235347	# c
   4	0.17	3.249998523775958	# n
   5	0.1094	3.3996695084235347	# c3
   6	0.061	3.1181455134911875	# f
   7	0.015	2.59964245953351	# ha
   8	0.0157	1.069078461768407	# hn
   9	0.0157	2.649532787749369	# hc

Bond Coeffs

   1	403.2	1.0129	# hn,n
   2	427.6	1.3789	# c,n
   3	461.1	1.3984	# ca,ca
   4	637.7	1.2183	# c,o
   5	300.9	1.5375	# c3,c3
   6	345.8	1.086	# ca,ha
   7	356.9	1.3497	# c3,f
   8	345.9	1.4906	# c,ca
   9	384.2	1.4121	# ca,n
  10	321.0	1.5156	# c3,ca
  11	330.6	1.0969	# c3,hc

Angle Coeffs

   1	66.11	109.24	# c3,c3,f
   2	46.8	110.47	# ca,c3,hc
   3	74.22	123.05	# n,c,o
   4	63.56	112.24	# ca,c3,ca
   5	70.89	107.36	# f,c3,f
   6	66.62	120.02	# ca,ca,ca
   7	62.86	111.51	# c3,c3,c3
   8	63.53	120.77	# c3,ca,ca
   9	63.15	112.07	# c3,c3,ca
  10	68.72	122.6	# ca,c,o
  11	63.82	123.71	# c,n,ca
  12	67.68	115.25	# ca,c,n
  13	48.33	117.55	# c,n,hn
  14	67.87	120.19	# ca,ca,n
  15	48.18	119.88	# ca,ca,ha
  16	64.28	120.33	# c,ca,ca
  17	63.74	127.08	# c,n,c
  18	39.4	107.58	# hc,c3,hc

Dihedral Coeffs

   1	1	2.5	2	180	# X,c,n,X
   2	1	0.45	2	180	# X,ca,n,X
   3	1	1.0	2	180	# X,c,ca,X
   4	2	2.5	2	180	2.0	1	0	# hn,n,c,o
   5	1	3.625	2	180	# X,ca,ca,X
   6	1	0.15555555555555556	3	0	# X,c3,c3,X
   7	1	0.0	2	0	# X,c3,ca,X

Improper Coeffs

   1	1.1	-1	2	# n,X,X,hn
   2	10.5	-1	2	# c,X,X,o
   3	1.1	-1	2	# ca,ca,ca,c3
   4	1.1	-1	2	# ca,X,X,ha

Atoms

   1	1	1	-0.004194	-29.9355	-16.4879	-38.8014
   2	1	1	-0.097141	-28.877	-17.3282	-38.3576
   3	1	1	-0.172015	-28.3681	-18.302	-39.2637
   4	1	2	-0.377994	-32.1504	-14.9786	-40.419
   5	1	1	0.033493	-30.3567	-16.5818	-40.1379
   6	1	1	-0.063739	-28.7836	-18.36	-40.6072
   7	1	2	-0.398381	-30.0344	-17.8427	-43.3923
   8	1	1	0.032144	-29.7677	-17.4637	-41.0221
   9	1	3	0.032313	-31.3832	-15.8031	-40.8864
  10	1	4	0.461698	-31.3009	-16.2572	-42.2038
  11	1	3	0.091945	-30.3457	-17.2538	-42.3698
  12	1	1	-0.10563	-24.7751	-17.1483	-38.662
  13	1	5	-0.099376	-28.2367	-17.2312	-36.9356
  14	1	1	-0.043296	-26.7011	-17.436	-37.13
  15	1	1	-0.073043	-26.061	-16.7798	-38.2222
  16	1	1	-0.117827	-24.1031	-18.1338	-37.9368
  17	1	1	-0.037562	-25.9361	-18.3489	-36.3584
  18	1	1	-0.083705	-24.6405	-18.672	-36.7857
  19	1	5	0.396	-28.9479	-18.3455	-36.07
  20	1	5	0.310495	-28.4202	-15.8288	-36.2372
  21	1	6	-0.130298	-28.6948	-18.2326	-34.7445
  22	1	6	-0.128745	-28.5985	-19.5956	-36.4554
  23	1	6	-0.120019	-30.294	-18.2913	-36.2097
  24	1	6	-0.104287	-29.6887	-15.6077	-35.8269
  25	1	6	-0.095507	-28.082	-14.8066	-37.0569
  26	1	6	-0.104872	-27.6374	-15.7073	-35.1392
  27	1	3	0.456145	-23.7299	-19.7487	-36.31
  28	1	3	0.550902	-22.8663	-18.8854	-38.2672
  29	1	4	0.015704	-22.7424	-19.8567	-37.2832
  30	1	2	-0.456801	-23.8829	-20.4224	-35.305
  31	1	2	-0.487703	-22.2168	-18.7648	-39.2927
  32	1	1	-0.116566	-21.7662	-20.8957	-37.3211
  33	1	1	-0.050109	-20.5997	-20.7916	-36.5295
  34	1	1	0.154929	-19.6292	-21.8069	-36.5872
  35	1	1	0.041555	-21.9533	-22.0189	-38.1626
  36	1	1	-0.223109	-20.9846	-23.0408	-38.1762
  37	1	1	-0.080449	-19.818	-22.9343	-37.402
  38	1	5	-0.108008	-23.1677	-22.1366	-39.0816
  39	1	5	-0.182228	-18.7453	-24.0035	-37.5035
  40	1	5	-0.345523	-20.3597	-19.5897	-35.6231
  41	1	7	0.155183	-30.4038	-15.7495	-38.157
  42	1	7	0.172904	-27.5902	-18.9945	-38.9417
  43	1	7	0.158028	-28.3422	-19.0591	-41.3121
  44	1	7	0.153129	-24.3495	-16.732	-39.5729
  45	1	7	0.142914	-26.6133	-16.0586	-38.8169
  46	1	7	0.135531	-26.353	-18.8842	-35.511
  47	1	7	0.17765	-21.1152	-23.9028	-38.8258
  48	1	9	0.046541	-23.2002	-21.3212	-39.8133
  49	1	9	0.045238	-24.1035	-22.1139	-38.508
  50	1	9	0.051941	-23.1537	-23.0743	-39.6486
  51	1	9	0.087961	-18.4221	-24.1265	-38.5435
  52	1	9	0.066782	-19.1177	-24.9731	-37.1509
  53	1	9	0.075908	-17.8592	-23.7429	-36.912
  54	1	9	0.105172	-20.3659	-18.6514	-36.1898
  55	1	9	0.115625	-19.3905	-19.6669	-35.115
  56	1	9	0.140296	-21.1274	-19.5346	-34.8403
  57	1	4	0.486064	-36.5741	-25.8028	-44.5939
  58	1	3	0.047133	-36.5416	-24.4172	-44.4096
  59	1	1	0.001076	-37.6977	-23.8899	-45.1802
  60	1	3	0.034038	-37.6604	-26.217	-45.3688
  61	1	1	0.050122	-38.3685	-24.959	-45.7352
  62	1	2	-0.383076	-35.6918	-23.7483	-43.8425
  63	1	2	-0.380811	-37.9125	-27.3366	-45.7856
  64	1	1	-0.001248	-38.0965	-22.5666	-45.4162
  65	1	1	-0.036565	-39.5053	-24.7625	-46.5232
  66	1	1	-0.208842	-39.9257	-23.4369	-46.7744
  67	1	1	-0.065319	-39.2144	-22.3134	-46.258
  68	1	7	0.153391	-37.5296	-21.7596	-44.9622
  69	1	7	0.155343	-40.0326	-25.6161	-46.9451
  70	1	7	0.174191	-40.8074	-23.3055	-47.3924
  71	1	5	-0.106637	-39.6284	-20.8362	-46.5494
  72	1	5	0.445763	-40.5239	-20.3858	-45.3387
  73	1	6	-0.144255	-41.0445	-19.1512	-45.5245
  74	1	6	-0.136881	-41.5645	-21.2272	-45.1307
  75	1	6	-0.144092	-39.8213	-20.3735	-44.1813
  76	1	5	0.367264	-40.458	-20.6697	-47.8838
  77	1	6	-0.12104	-39.8726	-21.3197	-48.9159
  78	1	6	-0.122614	-41.7262	-21.1386	-47.7989
  79	1	6	-0.112321	-40.5632	-19.3727	-48.2587
  80	1	1	-0.021957	-38.3132	-19.9944	-46.6922
  81	1	1	-0.054241	-38.0402	-18.8163	-45.9368
  82	1	1	-0.111709	-36.7598	-18.2438	-45.9949
  83	1	1	-0.087244	-37.2844	-20.4851	-47.5453
  84	1	1	-0.118951	-36.005	-19.8941	-47.5913
  85	1	1	-0.044875	-35.762	-18.7824	-46.7793
  86	1	3	0.461883	-34.4972	-18.0442	-46.512
  87	1	4	-0.007433	-34.8212	-17.0934	-45.5537
  88	1	3	0.491356	-36.1664	-17.1283	-45.2022
  89	1	1	-0.019445	-33.8641	-16.2435	-44.9327
  90	1	1	-0.186861	-33.6955	-14.94	-45.4317
  91	1	1	-0.068374	-32.7678	-14.0644	-44.8522
  92	1	1	-0.009193	-33.0925	-16.6885	-43.8341
  93	1	1	0.220761	-32.1339	-15.8092	-43.2667
  94	1	1	-0.402098	-31.9822	-14.5014	-43.7775
  95	1	7	0.148422	-34.2958	-14.5998	-46.2714
  96	1	7	0.146291	-32.655	-13.0549	-45.2434
  97	1	7	0.158981	-35.2095	-20.3158	-48.2004
  98	1	7	0.141813	-37.455	-21.3817	-48.1335
  99	1	7	0.143633	-38.761	-18.376	-45.2559
 100	1	2	-0.474465	-36.7285	-16.4856	-44.3314
 101	1	2	-0.469737	-33.3983	-18.3059	-46.9692
 102	1	5	-0.37887	-33.294	-18.1079	-43.2777
 103	1	9	0.115886	-33.1059	-18.1727	-42.1997
 104	1	9	0.123845	-32.6246	-18.8199	-43.7807
 105	1	9	0.138418	-34.3201	-18.4696	-43.4085
 106	1	7	0.21348	-31.2599	-13.822	-43.3316
 107	1	1	-0.004194	-33.2645	-34.2041	-36.9916
 108	1	1	-0.097141	-34.5278	-34.8435	-37.0902
 109	1	1	-0.172015	-34.7909	-35.9294	-36.2027
 110	1	2	-0.377994	-30.5577	-33.0542	-36.0968
 111	1	1	0.033493	-32.3695	-34.6284	-36.0038
 112	1	1	-0.063739	-33.844	-36.3792	-35.2564
 113	1	2	-0.398381	-31.3122	-36.7991	-33.4561
 114	1	1	0.032144	-32.6277	-35.7014	-35.1767
 115	1	3	0.032313	-31.0575	-34.0648	-35.6365
 116	1	4	0.461698	-30.5659	-34.8922	-34.6296
 117	1	3	0.091945	-31.453	-35.9125	-34.2846
 118	1	1	-0.10563	-34.9252	-30.5877	-38.1239
 119	1	5	-0.099376	-35.5571	-34.4355	-38.1944
 120	1	1	-0.043296	-35.3093	-32.9697	-38.6819
 121	1	1	-0.073043	-35.1471	-31.9241	-37.7283
 122	1	1	-0.117827	-34.9277	-30.2973	-39.4931
 123	1	1	-0.037562	-35.3159	-32.6157	-40.0587
 124	1	1	-0.083705	-35.1425	-31.2824	-40.43
 125	1	5	0.396	-35.4104	-35.4973	-39.3547
 126	1	5	0.310495	-37.0411	-34.4586	-37.653
 127	1	6	-0.130298	-34.2125	-35.3959	-39.973
 128	1	6	-0.128745	-36.3781	-35.3832	-40.2936
 129	1	6	-0.120019	-35.4722	-36.7689	-38.9042
 130	1	6	-0.104287	-37.8838	-33.7782	-38.4655
 131	1	6	-0.095507	-37.1242	-33.8891	-36.4298
 132	1	6	-0.104872	-37.567	-35.699	-37.5412
 133	1	3	0.456145	-35.0906	-30.6717	-41.7848
 134	1	3	0.550902	-34.7263	-29.0176	-40.2223
 135	1	4	0.015704	-34.8447	-29.3226	-41.5695
 136	1	2	-0.456801	-35.1692	-31.2609	-42.8504
 137	1	2	-0.487703	-34.5017	-27.9309	-39.7256
 138	1	1	-0.116566	-34.6563	-28.3717	-42.6147
 139	1	1	-0.050109	-35.7244	-27.5436	-43.0486
 140	1	1	0.154929	-35.5278	-26.6678	-44.1503
 141	1	1	0.041555	-33.3866	-28.281	-43.2263
 142	1	1	-0.223109	-33.2064	-27.4006	-44.3046
 143	1	1	-0.080449	-34.2678	-26.6204	-44.7942
 144	1	5	-0.108008	-32.2145	-29.1492	-42.7686
 145	1	5	-0.182228	-34.0101	-25.7176	-46.0007
 146	1	5	-0.345523	-37.0929	-27.6224	-42.3589
 147	1	7	0.155183	-32.9672	-33.3919	-37.6504
 148	1	7	0.172904	-35.7259	-36.4754	-36.2601
 149	1	7	0.158028	-34.0471	-37.2252	-34.6023
 150	1	7	0.153129	-34.7569	-29.8041	-37.3885
 151	1	7	0.142914	-35.1593	-32.1546	-36.6661
 152	1	7	0.135531	-35.4527	-33.3346	-40.8551
 153	1	7	0.17765	-32.2324	-27.3439	-44.784
 154	1	9	0.046541	-31.9419	-28.9236	-41.7311
 155	1	9	0.045238	-31.3208	-28.9863	-43.3855
 156	1	9	0.051941	-32.4618	-30.2142	-42.8368
 157	1	9	0.087961	-33.1015	-26.0168	-46.5394
 158	1	9	0.066782	-33.8708	-24.6729	-45.6873
 159	1	9	0.075908	-34.8326	-25.7515	-46.7261
 160	1	9	0.105172	-37.5999	-26.6503	-42.3247
 161	1	9	0.115625	-37.0272	-27.9463	-41.3144
 162	1	9	0.140296	-37.751	-28.3274	-42.8864
 163	1	4	0.486064	-19.2706	-24.6471	-29.7241
 164	1	3	0.047133	-20.4161	-24.5259	-28.9327
 165	1	1	0.001076	-21.3465	-25.5697	-29.4491
 166	1	3	0.034038	-19.3872	-25.6377	-30.6934
 167	1	1	0.050122	-20.7198	-26.2372	-30.4787
 168	1	2	-0.383076	-20.5922	-23.8078	-27.9632
 169	1	2	-0.380811	-18.535	-26.0418	-31.4647
 170	1	1	-0.001248	-22.6321	-25.9325	-29.0274
 171	1	1	-0.036565	-21.2978	-27.3507	-31.0891
 172	1	1	-0.208842	-22.576	-27.7483	-30.66
 173	1	1	-0.065319	-23.2867	-27.0272	-29.6591
 174	1	7	0.153391	-23.0883	-25.3733	-28.2171
 175	1	7	0.155343	-20.7682	-27.895	-31.8677
 176	1	7	0.174191	-23.0076	-28.6263	-31.1331
 177	1	5	-0.106637	-24.7182	-27.476	-29.2349
 178	1	5	0.445763	-24.5833	-28.2652	-27.8703
 179	1	6	-0.144255	-23.8291	-29.3836	-27.9904
 180	1	6	-0.136881	-23.9708	-27.5487	-26.9021
 181	1	6	-0.144092	-25.7854	-28.6278	-27.3705
 182	1	5	0.367264	-25.6795	-26.2404	-29.022
 183	1	6	-0.12104	-25.4802	-25.579	-27.86
 184	1	6	-0.122614	-26.9791	-26.6092	-29.0181
 185	1	6	-0.112321	-25.5304	-25.3239	-30.004
 186	1	1	-0.021957	-25.3574	-28.3247	-30.384
 187	1	1	-0.054241	-25.7807	-29.6683	-30.2024
 188	1	1	-0.111709	-26.3174	-30.3677	-31.2861
 189	1	1	-0.087244	-25.5192	-27.7525	-31.6835
 190	1	1	-0.118951	-26.0784	-28.4722	-32.7605
 191	1	1	-0.044875	-26.4588	-29.7975	-32.5338
 192	1	3	0.461883	-27.0085	-30.8272	-33.4586
 193	1	4	-0.007433	-27.1337	-31.9744	-32.6837
 194	1	3	0.491356	-26.7692	-31.7757	-31.362
 195	1	1	-0.019445	-27.5478	-33.2283	-33.1982
 196	1	1	-0.186861	-26.5651	-34.1907	-33.4894
 197	1	1	-0.068374	-26.919	-35.4269	-34.0427
 198	1	1	-0.009193	-28.9098	-33.491	-33.4642
 199	1	1	0.220761	-29.2599	-34.7118	-34.0972
 200	1	1	-0.402098	-28.2626	-35.6802	-34.3572
 201	1	7	0.148422	-25.5192	-33.9842	-33.2772
 202	1	7	0.146291	-26.1509	-36.1715	-34.2499
 203	1	7	0.158981	-26.1792	-28.0216	-33.7477
 204	1	7	0.141813	-25.1759	-26.743	-31.8892
 205	1	7	0.143633	-25.7009	-30.1959	-29.2594
 206	1	2	-0.474465	-26.7727	-32.5777	-30.4456
 207	1	2	-0.469737	-27.2473	-30.6878	-34.6472
 208	1	5	-0.37887	-29.9684	-32.4349	-33.1061
 209	1	9	0.115886	-30.969	-32.8633	-32.9755
 210	1	9	0.123845	-30.0328	-31.6711	-33.8929
 211	1	9	0.138418	-29.736	-31.9271	-32.1616
 212	1	7	0.21348	-28.5378	-36.625	-34.817
 213	1	1	-0.004194	-10.1078	-31.1555	-26.8343
 214	1	1	-0.097141	-11.0866	-30.14	-26.6794
 215	1	1	-0.172015	-12.4031	-30.3946	-27.1585
 216	1	2	-0.377994	-8.44645	-33.6744	-27.5617
 217	1	1	0.033493	-10.4556	-32.3292	-27.5123
 218	1	1	-0.063739	-12.7142	-31.56	-27.8846
 219	1	2	-0.398381	-12.5998	-34.1636	-29.5901
 220	1	1	0.032144	-11.7065	-32.5052	-28.0695
 221	1	3	0.032313	-9.60909	-33.4885	-27.8825
 222	1	4	0.461698	-10.4152	-34.2727	-28.7026
 223	1	3	0.091945	-11.6983	-33.7526	-28.8739
 224	1	1	-0.10563	-11.9318	-27.19	-29.452
 225	1	5	-0.099376	-10.7624	-28.7272	-26.1015
 226	1	1	-0.043296	-11.42	-27.712	-27.0873
 227	1	1	-0.073043	-11.2266	-27.9218	-28.4848
 228	1	1	-0.117827	-12.8076	-26.2037	-29.0083
 229	1	1	-0.037562	-12.279	-26.6575	-26.6761
 230	1	1	-0.083705	-12.9587	-25.919	-27.6637
 231	1	5	0.396	-9.22789	-28.3622	-26.0682
 232	1	5	0.310495	-11.3176	-28.696	-24.6212
 233	1	6	-0.130298	-8.53447	-29.0129	-25.1076
 234	1	6	-0.128745	-9.05872	-27.0414	-25.8363
 235	1	6	-0.120019	-8.60891	-28.6256	-27.2422
 236	1	6	-0.104287	-11.0068	-27.5601	-23.953
 237	1	6	-0.095507	-12.6607	-28.8335	-24.5717
 238	1	6	-0.104872	-10.8223	-29.7231	-23.8934
 239	1	3	0.456145	-14.0143	-24.868	-27.5599
 240	1	3	0.550902	-13.7814	-25.4064	-29.7901
 241	1	4	0.015704	-14.4633	-24.652	-28.8544
 242	1	2	-0.456801	-14.4946	-24.3976	-26.5474
 243	1	2	-0.487703	-14.0504	-25.5624	-30.9693
 244	1	1	-0.116566	-15.6484	-23.9306	-29.1621
 245	1	1	-0.050109	-16.8879	-24.6045	-29.1397
 246	1	1	0.154929	-18.0606	-23.9216	-29.5532
 247	1	1	0.041555	-15.5721	-22.5793	-29.549
 248	1	1	-0.223109	-16.7439	-21.908	-29.9306
 249	1	1	-0.080449	-17.9882	-22.5601	-29.9305
 250	1	5	-0.108008	-14.2416	-21.8388	-29.5732
 251	1	5	-0.182228	-19.222	-21.7793	-30.3724
 252	1	5	-0.345523	-16.9318	-26.0803	-28.7111
 253	1	7	0.155183	-9.08583	-31.041	-26.4837
 254	1	7	0.172904	-13.1842	-29.6493	-27.0289
 255	1	7	0.158028	-13.6967	-31.7074	-28.3237
 256	1	7	0.153129	-11.8407	-27.4225	-30.51
 257	1	7	0.142914	-10.588	-28.7298	-28.8346
 258	1	7	0.135531	-12.4742	-26.4557	-25.63
 259	1	7	0.17765	-16.6824	-20.865	-30.2274
 260	1	9	0.046541	-14.3647	-20.7916	-29.8857
 261	1	9	0.045238	-13.5438	-22.3072	-30.2763
 262	1	9	0.051941	-13.7747	-21.8348	-28.5805
 263	1	9	0.087961	-20.0042	-21.7881	-29.6023
 264	1	9	0.066782	-19.6395	-22.1955	-31.2937
 265	1	9	0.075908	-18.9899	-20.7296	-30.5743
 266	1	9	0.105172	-17.9138	-26.3807	-28.3285
 267	1	9	0.115625	-16.2349	-26.3038	-27.8983
 268	1	9	0.140296	-16.6844	-26.7406	-29.5535
 269	1	4	0.486064	-15.6817	-42.9508	-33.2458
 270	1	3	0.047133	-15.3748	-43.2156	-31.9075
 271	1	1	0.001076	-14.1928	-44.1038	-31.9586
 272	1	3	0.034038	-14.8761	-43.6591	-34.139
 273	1	1	0.050122	-13.9045	-44.3785	-33.2784
 274	1	2	-0.383076	-15.8514	-42.7259	-30.8969
 275	1	2	-0.380811	-14.8395	-43.5785	-35.3565
 276	1	1	-0.001248	-13.3327	-44.4673	-30.9195
 277	1	1	-0.036565	-12.7585	-45.0926	-33.627
 278	1	1	-0.208842	-11.8557	-45.4376	-32.5956
 279	1	1	-0.065319	-12.0982	-45.0927	-31.2309
 280	1	7	0.153391	-13.5703	-44.1464	-29.907
 281	1	7	0.155343	-12.5402	-45.3057	-34.6719
 282	1	7	0.174191	-10.9436	-45.9446	-32.8952
 283	1	5	-0.106637	-11.0282	-45.2222	-30.0964
 284	1	5	0.445763	-11.5329	-46.3119	-29.0785
 285	1	6	-0.144255	-12.592	-45.8695	-28.3666
 286	1	6	-0.136881	-10.6062	-46.7144	-28.1801
 287	1	6	-0.144092	-11.9257	-47.4283	-29.7267
 288	1	5	0.367264	-9.60677	-45.638	-30.6255
 289	1	6	-0.12104	-9.18925	-44.7771	-31.5828
 290	1	6	-0.122614	-9.57961	-46.8932	-31.1353
 291	1	6	-0.112321	-8.6644	-45.5934	-29.6555
 292	1	1	-0.021957	-10.8542	-43.813	-29.4511
 293	1	1	-0.054241	-11.0015	-42.656	-30.2634
 294	1	1	-0.111709	-10.7564	-41.3907	-29.7217
 295	1	1	-0.087244	-10.433	-43.6282	-28.103
 296	1	1	-0.118951	-10.1463	-42.3441	-27.5907
 297	1	1	-0.044875	-10.3154	-41.2362	-28.4272
 298	1	3	0.461883	-9.96525	-39.8014	-28.223
 299	1	4	-0.007433	-10.2198	-39.1777	-29.4424
 300	1	3	0.491356	-10.729	-40.0589	-30.3834
 301	1	1	-0.019445	-9.8634	-37.8309	-29.751
 302	1	1	-0.186861	-8.88678	-37.6273	-30.7441
 303	1	1	-0.068374	-8.37381	-36.3556	-31.0121
 304	1	1	-0.009193	-10.4272	-36.7156	-29.0839
 305	1	1	0.220761	-9.92711	-35.422	-29.3819
 306	1	1	-0.402098	-8.88337	-35.2562	-30.318
 307	1	7	0.148422	-8.49923	-38.4713	-31.2957
 308	1	7	0.146291	-7.57326	-36.2319	-31.7385
 309	1	7	0.158981	-9.75468	-42.2126	-26.5808
 310	1	7	0.141813	-10.2558	-44.4786	-27.4492
 311	1	7	0.143633	-11.2512	-42.7253	-31.3188
 312	1	2	-0.474465	-11.0233	-39.8231	-31.543
 313	1	2	-0.469737	-9.47765	-39.3134	-27.218
 314	1	5	-0.37887	-11.5374	-36.8921	-28.0336
 315	1	9	0.115886	-11.1868	-36.607	-27.0327
 316	1	9	0.123845	-11.9075	-37.9192	-27.9615
 317	1	9	0.138418	-12.4233	-36.29	-28.2644
 318	1	7	0.21348	-8.46554	-34.266	-30.5025
 319	1	1	-0.004194	-27.0246	-39.3361	-37.2533
 320	1	1	-0.097141	-25.799	-39.9883	-37.5793
 321	1	1	-0.172015	-24.7906	-39.2294	-38.2399
 322	1	2	-0.377994	-29.5095	-37.4317	-37.1255
 323	1	1	0.033493	-27.2129	-38.0053	-37.6619
 324	1	1	-0.063739	-25.0028	-37.9013	-38.6454
 325	1	2	-0.398381	-26.2686	-35.3169	-39.689
 326	1	1	0.032144	-26.2418	-37.3291	-38.3717
 327	1	3	0.032313	-28.4438	-37.1664	-37.659
 328	1	4	0.461698	-28.1447	-36.079	-38.4823
 329	1	3	0.091945	-26.82	-36.0777	-38.911
 330	1	1	-0.10563	-21.9254	-42.6858	-38.2349
 331	1	5	-0.099376	-25.6119	-41.5346	-37.472
 332	1	1	-0.043296	-24.0793	-41.8417	-37.3252
 333	1	1	-0.073043	-23.3271	-42.5582	-38.3072
 334	1	1	-0.117827	-21.2692	-42.116	-37.1435
 335	1	1	-0.037562	-23.363	-41.2975	-36.2229
 336	1	1	-0.083705	-21.9729	-41.4648	-36.1528
 337	1	5	0.396	-26.2177	-42.1227	-38.8081
 338	1	5	0.310495	-26.3706	-42.1778	-36.2422
 339	1	6	-0.130298	-25.5999	-41.6096	-39.8992
 340	1	6	-0.128745	-27.5237	-41.817	-38.9636
 341	1	6	-0.120019	-26.1256	-43.4704	-38.8799
 342	1	6	-0.104287	-26.042	-43.4783	-36.0811
 343	1	6	-0.095507	-27.7162	-42.1511	-36.3587
 344	1	6	-0.104872	-26.0806	-41.5555	-35.0782
 345	1	3	0.456145	-20.9992	-41.0218	-35.1202
 346	1	3	0.550902	-19.8199	-42.0654	-36.8116
 347	1	4	0.015704	-19.7478	-41.4001	-35.5919
 348	1	2	-0.456801	-21.2708	-40.4971	-34.0536
 349	1	2	-0.487703	-18.9195	-42.5301	-37.4914
 350	1	1	-0.116566	-18.5452	-41.1409	-34.8708
 351	1	1	-0.050109	-17.7781	-42.2112	-34.3393
 352	1	1	0.154929	-16.5643	-41.917	-33.6645
 353	1	1	0.041555	-18.1413	-39.7987	-34.6637
 354	1	1	-0.223109	-16.9994	-39.5291	-33.9039
 355	1	1	-0.080449	-16.1921	-40.5696	-33.4292
 356	1	5	-0.108008	-18.8895	-38.6067	-35.2517
 357	1	5	-0.182228	-14.9268	-40.1958	-32.6634
 358	1	5	-0.345523	-18.2528	-43.6657	-34.4934
 359	1	7	0.155183	-27.8676	-39.8536	-36.8101
 360	1	7	0.172904	-23.8628	-39.6967	-38.5595
 361	1	7	0.158028	-24.2689	-37.3641	-39.2445
 362	1	7	0.153129	-21.3649	-43.2096	-39.0081
 363	1	7	0.142914	-23.7941	-43.0087	-39.1728
 364	1	7	0.135531	-23.8615	-40.7146	-35.454
 365	1	7	0.17765	-16.7173	-38.4961	-33.7173
 366	1	9	0.046541	-18.2886	-37.6921	-35.2021
 367	1	9	0.045238	-19.82	-38.4068	-34.703
 368	1	9	0.051941	-19.1342	-38.7714	-36.304
 369	1	9	0.087961	-14.6699	-39.1444	-32.8075
 370	1	9	0.066782	-14.0591	-40.782	-32.989
 371	1	9	0.075908	-15.0621	-40.3438	-31.584
 372	1	9	0.105172	-17.886	-44.3126	-33.6871
 373	1	9	0.115625	-17.9014	-44.0917	-35.4452
 374	1	9	0.140296	-19.3459	-43.7555	-34.4655
 375	1	1	-0.004194	-28.9797	-25.2045	-37.5203
 376	1	1	-0.097141	-29.8744	-24.6519	-38.4737
 377	1	1	-0.172015	-29.6843	-23.3004	-38.8801
 378	1	2	-0.377994	-26.8145	-25.7459	-35.367
 379	1	1	0.033493	-27.9381	-24.4108	-37.032
 380	1	1	-0.063739	-28.6179	-22.5249	-38.3866
 381	1	2	-0.398381	-26.1857	-21.3994	-36.8695
 382	1	1	0.032144	-27.7584	-23.1135	-37.4597
 383	1	3	0.032313	-26.9475	-24.6903	-35.9627
 384	1	4	0.461698	-26.2559	-23.491	-35.7759
 385	1	3	0.091945	-26.6401	-22.5154	-36.6961
 386	1	1	-0.10563	-28.7393	-28.2723	-40.3684
 387	1	5	-0.099376	-31.0707	-25.5163	-38.9534
 388	1	1	-0.043296	-30.5089	-26.9339	-39.2716
 389	1	1	-0.073043	-29.3264	-27.0321	-40.0599
 390	1	1	-0.117827	-29.3549	-29.4251	-39.8738
 391	1	1	-0.037562	-31.1178	-28.1337	-38.8152
 392	1	1	-0.083705	-30.5094	-29.3618	-39.1203
 393	1	5	0.396	-31.744	-24.9862	-40.2801
 394	1	5	0.310495	-32.1111	-25.4566	-37.7669
 395	1	6	-0.130298	-30.8263	-24.763	-41.2479
 396	1	6	-0.128745	-32.4208	-23.8294	-40.1029
 397	1	6	-0.120019	-32.6111	-25.8787	-40.8039
 398	1	6	-0.104287	-33.3275	-25.9504	-38.0922
 399	1	6	-0.095507	-32.3074	-24.1829	-37.3523
 400	1	6	-0.104872	-31.6737	-26.1155	-36.6673
 401	1	3	0.456145	-30.9079	-30.755	-38.7686
 402	1	3	0.550902	-28.9831	-30.8516	-40.0484
 403	1	4	0.015704	-29.9721	-31.5802	-39.3924
 404	1	2	-0.456801	-31.895	-31.0767	-38.1274
 405	1	2	-0.487703	-28.0321	-31.2601	-40.6962
 406	1	1	-0.116566	-30.0601	-33.0033	-39.4732
 407	1	1	-0.050109	-29.1226	-33.8305	-38.8064
 408	1	1	0.154929	-29.1368	-35.2311	-39.0463
 409	1	1	0.041555	-31.0131	-33.5723	-40.3458
 410	1	1	-0.223109	-31.0186	-34.9554	-40.566
 411	1	1	-0.080449	-30.0856	-35.7911	-39.9408
 412	1	5	-0.108008	-31.9906	-32.7161	-41.1409
 413	1	5	-0.182228	-30.1155	-37.2775	-40.3158
 414	1	5	-0.345523	-28.0684	-33.2008	-37.8838
 415	1	7	0.155183	-29.1024	-26.2149	-37.1341
 416	1	7	0.172904	-30.3642	-22.8151	-39.569
 417	1	7	0.158028	-28.4882	-21.4852	-38.674
 418	1	7	0.153129	-27.8372	-28.3363	-40.9726
 419	1	7	0.142914	-28.8463	-26.1309	-40.4341
 420	1	7	0.135531	-32.0371	-28.1284	-38.2371
 421	1	7	0.17765	-31.7327	-35.3783	-41.2677
 422	1	9	0.046541	-31.4672	-32.1662	-41.9312
 423	1	9	0.045238	-32.5085	-31.9943	-40.5045
 424	1	9	0.051941	-32.7649	-33.3245	-41.6215
 425	1	9	0.087961	-30.6728	-37.4469	-41.2453
 426	1	9	0.066782	-30.6043	-37.8697	-39.5364
 427	1	9	0.075908	-29.1073	-37.684	-40.4791
 428	1	9	0.105172	-27.8101	-33.8522	-37.0392
 429	1	9	0.115625	-28.412	-32.2643	-37.4237
 430	1	9	0.140296	-27.1471	-32.9713	-38.4397
 431	1	1	-0.004194	-14.903	-29.248	-34.7938
 432	1	1	-0.097141	-16.1034	-28.7143	-34.2491
 433	1	1	-0.172015	-16.1452	-28.4701	-32.8485
 434	1	2	-0.377994	-12.1643	-30.5298	-35.3738
 435	1	1	0.033493	-13.8371	-29.547	-33.9423
 436	1	1	-0.063739	-15.0567	-28.7898	-32.0061
 437	1	2	-0.398381	-12.4972	-30.0838	-30.7555
 438	1	1	0.032144	-13.9184	-29.3615	-32.58
 439	1	3	0.032313	-12.5574	-30.2217	-34.2593
 440	1	4	0.461698	-11.9666	-30.4745	-33.0206
 441	1	3	0.091945	-12.7137	-29.9718	-31.9519
 442	1	1	-0.10563	-18.1568	-24.7934	-34.2768
 443	1	5	-0.099376	-17.4025	-28.5442	-35.097
 444	1	1	-0.043296	-18.1676	-27.2492	-34.6702
 445	1	1	-0.073043	-17.4748	-26.0092	-34.5269
 446	1	1	-0.117827	-19.5546	-24.8387	-34.1652
 447	1	1	-0.037562	-19.5764	-27.2392	-34.52
 448	1	1	-0.083705	-20.2259	-26.0388	-34.2402
 449	1	5	0.396	-18.2442	-29.872	-34.8881
 450	1	5	0.310495	-17.1191	-28.368	-36.6346
 451	1	6	-0.130298	-17.4899	-30.9795	-35.065
 452	1	6	-0.128745	-19.2826	-29.994	-35.7495
 453	1	6	-0.120019	-18.7474	-29.9633	-33.6331
 454	1	6	-0.104287	-18.244	-28.022	-37.2993
 455	1	6	-0.095507	-16.6605	-29.4892	-37.2379
 456	1	6	-0.104872	-16.2261	-27.3802	-36.8678
 457	1	3	0.456145	-21.6665	-25.7994	-34.0111
 458	1	3	0.550902	-20.5698	-23.7681	-33.9411
 459	1	4	0.015704	-21.8022	-24.4222	-33.8866
 460	1	2	-0.456801	-22.5251	-26.6655	-33.9521
 461	1	2	-0.487703	-20.3314	-22.5834	-33.7778
 462	1	1	-0.116566	-23.0751	-23.7782	-33.7914
 463	1	1	-0.050109	-23.9929	-23.868	-34.8728
 464	1	1	0.154929	-25.286	-23.3008	-34.746
 465	1	1	0.041555	-23.4307	-23.0663	-32.6227
 466	1	1	-0.223109	-24.6854	-22.4483	-32.5428
 467	1	1	-0.080449	-25.622	-22.5701	-33.5804
 468	1	5	-0.108008	-22.4986	-22.9009	-31.4285
 469	1	5	-0.182228	-26.964	-21.8655	-33.43
 470	1	5	-0.345523	-23.5829	-24.5698	-36.1744
 471	1	7	0.155183	-14.7891	-29.5015	-35.8395
 472	1	7	0.172904	-17.0495	-28.0662	-32.3997
 473	1	7	0.158028	-15.1092	-28.6409	-30.9318
 474	1	7	0.153129	-17.6181	-23.851	-34.1887
 475	1	7	0.142914	-16.3942	-25.9855	-34.6408
 476	1	7	0.135531	-20.1895	-28.1259	-34.6196
 477	1	7	0.17765	-24.9347	-21.8731	-31.6556
 478	1	9	0.046541	-21.6522	-23.5923	-31.442
 479	1	9	0.045238	-23.0361	-23.0721	-30.4862
 480	1	9	0.051941	-22.0967	-21.8805	-31.4008
 481	1	9	0.087961	-27.0791	-21.0711	-34.1806
 482	1	9	0.066782	-27.0657	-21.3927	-32.4474
 483	1	9	0.075908	-27.7954	-22.5699	-33.5382
 484	1	9	0.105172	-24.1368	-24.2117	-37.0496
 485	1	9	0.115625	-23.7516	-25.6508	-36.1064
 486	1	9	0.140296	-22.5262	-24.4053	-36.4096
 487	1	1	-0.004194	0.524232	-32.9234	-31.1449
 488	1	1	-0.097141	-0.571227	-32.4359	-31.9108
 489	1	1	-0.172015	-1.15036	-33.3148	-32.871
 490	1	2	-0.377994	2.96608	-34.4424	-29.9804
 491	1	1	0.033493	1.01769	-34.2109	-31.3899
 492	1	1	-0.063739	-0.637161	-34.6109	-33.0997
 493	1	2	-0.398381	1.22112	-37.1108	-33.3501
 494	1	1	0.032144	0.473537	-35.0241	-32.3604
 495	1	3	0.032313	2.24553	-34.8662	-30.8688
 496	1	4	0.461698	2.3991	-36.0266	-31.6273
 497	1	3	0.091945	1.35379	-36.2133	-32.5322
 498	1	1	-0.10563	-3.92248	-29.8967	-34.2757
 499	1	5	-0.099376	-0.95688	-30.9241	-31.8884
 500	1	1	-0.043296	-2.39513	-30.7302	-32.4992
 501	1	1	-0.073043	-2.63224	-30.0391	-33.7264
 502	1	1	-0.117827	-5.00313	-30.4383	-33.5799
 503	1	1	-0.037562	-3.52915	-31.2878	-31.8442
 504	1	1	-0.083705	-4.80907	-31.1072	-32.3923
 505	1	5	0.396	0.177569	-30.216	-32.7414
 506	1	5	0.310495	-0.963964	-30.3067	-30.4248
 507	1	6	-0.130298	0.00467178	-28.879	-32.8538
 508	1	6	-0.128745	0.24192	-30.7371	-33.9937
 509	1	6	-0.120019	1.41607	-30.3876	-32.2212
 510	1	6	-0.104287	0.266059	-30.1243	-29.8845
 511	1	6	-0.095507	-1.64116	-31.08	-29.5417
 512	1	6	-0.104872	-1.55678	-29.0909	-30.4221
 513	1	3	0.456145	-6.14223	-31.5617	-31.9097
 514	1	3	0.550902	-6.45444	-30.4644	-33.9127
 515	1	4	0.015704	-7.05532	-31.1739	-32.8836
 516	1	2	-0.456801	-6.36676	-32.2033	-30.8979
 517	1	2	-0.487703	-6.98269	-29.9836	-34.9018
 518	1	1	-0.116566	-8.40052	-31.6492	-32.9237
 519	1	1	-0.050109	-9.51386	-30.7821	-32.7681
 520	1	1	0.154929	-10.8236	-31.3156	-32.8952
 521	1	1	0.041555	-8.60263	-33.0231	-33.188
 522	1	1	-0.223109	-9.89996	-33.5494	-33.1812
 523	1	1	-0.080449	-11.0093	-32.7095	-33.0264
 524	1	5	-0.108008	-7.44027	-33.9594	-33.499
 525	1	5	-0.182228	-12.3994	-33.3318	-33.0505
 526	1	5	-0.345523	-9.30162	-29.2846	-32.5154
 527	1	7	0.155183	1.06535	-32.2995	-30.4429
 528	1	7	0.172904	-1.95331	-32.9763	-33.5189
 529	1	7	0.158028	-1.04368	-35.2504	-33.8782
 530	1	7	0.153129	-4.07799	-29.3747	-35.2182
 531	1	7	0.142914	-1.82388	-29.5915	-34.291
 532	1	7	0.135531	-3.43199	-31.8615	-30.9278
 533	1	7	0.17765	-10.051	-34.6145	-33.3355
 534	1	9	0.046541	-7.80003	-34.9354	-33.8491
 535	1	9	0.045238	-6.82197	-34.143	-32.613
 536	1	9	0.051941	-6.79857	-33.5541	-34.294
 537	1	9	0.087961	-12.8741	-33.224	-34.0342
 538	1	9	0.066782	-13.0577	-32.8865	-32.295
 539	1	9	0.075908	-12.3542	-34.4009	-32.8235
 540	1	9	0.105172	-8.36107	-29.0807	-31.9909
 541	1	9	0.115625	-10.088	-28.8525	-31.8865
 542	1	9	0.140296	-9.27917	-28.7302	-33.4643
 543	1	4	0.486064	7.34053	-44.2201	-42.5328
 544	1	3	0.047133	6.84757	-42.9256	-42.6969
 545	1	1	0.001076	7.17652	-42.2164	-41.4369
 546	1	3	0.034038	7.85702	-44.4385	-41.2522
 547	1	1	0.050122	7.78233	-43.1122	-40.5863
 548	1	2	-0.383076	6.34478	-42.4302	-43.691
 549	1	2	-0.380811	8.38514	-45.4451	-40.8038
 550	1	1	-0.001248	7.08557	-40.8537	-41.1311
 551	1	1	-0.036565	8.35516	-42.6841	-39.3917
 552	1	1	-0.208842	8.30079	-41.3117	-39.0701
 553	1	1	-0.065319	7.65213	-40.3725	-39.9192
 554	1	7	0.153391	6.64786	-40.1911	-41.8707
 555	1	7	0.155343	8.86172	-43.3969	-38.7546
 556	1	7	0.174191	8.79653	-40.9858	-38.1602
 557	1	5	-0.106637	7.71592	-38.8482	-39.604
 558	1	5	0.445763	8.94057	-38.2784	-40.4255
 559	1	6	-0.144255	8.88921	-38.6121	-41.7339
 560	1	6	-0.136881	10.1144	-38.7732	-39.9748
 561	1	6	-0.144092	9.02732	-36.9285	-40.392
 562	1	5	0.367264	6.40835	-38.0781	-40.0457
 563	1	6	-0.12104	6.30546	-37.8764	-41.3776
 564	1	6	-0.122614	6.33777	-36.846	-39.4903
 565	1	6	-0.112321	5.29256	-38.7385	-39.6631
 566	1	1	-0.021957	7.83706	-38.6127	-38.0611
 567	1	1	-0.054241	6.89177	-39.206	-37.1759
 568	1	1	-0.111709	6.89372	-38.8323	-35.8198
 569	1	1	-0.087244	8.78445	-37.7011	-37.5083
 570	1	1	-0.118951	8.76818	-37.3433	-36.1482
 571	1	1	-0.044875	7.7999	-37.9169	-35.3271
 572	1	3	0.461883	7.46003	-37.609	-33.9142
 573	1	4	-0.007433	6.30088	-38.3221	-33.6565
 574	1	3	0.491356	5.93928	-39.1449	-34.7171
 575	1	1	-0.019445	5.45687	-38.0456	-32.5404
 576	1	1	-0.186861	5.71911	-38.6719	-31.3103
 577	1	1	-0.068374	4.92818	-38.3924	-30.1876
 578	1	1	-0.009193	4.38692	-37.1192	-32.6541
 579	1	1	0.220761	3.53793	-36.8891	-31.5341
 580	1	1	-0.402098	3.83775	-37.5164	-30.3034
 581	1	7	0.148422	6.55537	-39.3613	-31.2171
 582	1	7	0.146291	5.15342	-38.8658	-29.2333
 583	1	7	0.158981	9.46067	-36.6012	-35.7506
 584	1	7	0.141813	9.52875	-37.2087	-38.1204
 585	1	7	0.143633	6.1308	-39.893	-37.5431
 586	1	2	-0.474465	4.98373	-39.8977	-34.775
 587	1	2	-0.469737	7.98905	-36.7625	-33.2155
 588	1	5	-0.37887	4.18829	-36.3625	-33.9786
 589	1	9	0.115886	5.14247	-36.0614	-34.4257
 590	1	9	0.123845	3.62066	-35.4314	-33.8639
 591	1	9	0.138418	3.65249	-36.981	-34.7123
 592	1	7	0.21348	3.21466	-37.3127	-29.4339
 593	1	4	0.486064	14.3683	-51.2902	-52.7237
 594	1	3	0.047133	13.689	-50.5417	-51.7657
 595	1	1	0.001076	14.7535	-49.9458	-50.9247
 596	1	3	0.034038	15.7537	-51.2075	-52.5989
 597	1	1	0.050122	15.9787	-50.3565	-51.4044
 598	1	2	-0.383076	12.4846	-50.4376	-51.5974
 599	1	2	-0.380811	16.6107	-51.7477	-53.2773
 600	1	1	-0.001248	14.6431	-49.1032	-49.8194
 601	1	1	-0.036565	17.1664	-49.9822	-50.7719
 602	1	1	-0.208842	17.0774	-49.1552	-49.6307
 603	1	1	-0.065319	15.8208	-48.6937	-49.1427
 604	1	7	0.153391	13.6518	-48.77	-49.5204
 605	1	7	0.155343	18.1267	-50.3211	-51.1594
 606	1	7	0.174191	18.0048	-48.8403	-49.1609
 607	1	5	-0.106637	15.7098	-47.6692	-47.9802
 608	1	5	0.445763	16.8072	-47.873	-46.8642
 609	1	6	-0.144255	16.973	-49.1788	-46.5622
 610	1	6	-0.136881	16.4543	-47.2428	-45.7223
 611	1	6	-0.144092	18.0342	-47.4036	-47.1875
 612	1	5	0.367264	15.9262	-46.2514	-48.6296
 613	1	6	-0.12104	17.0982	-46.1587	-49.3017
 614	1	6	-0.122614	15.9195	-45.2642	-47.7071
 615	1	6	-0.112321	14.9759	-45.9685	-49.5476
 616	1	1	-0.021957	14.3138	-47.841	-47.289
 617	1	1	-0.054241	13.3258	-46.8165	-47.244
 618	1	1	-0.111709	12.0923	-47.0828	-46.632
 619	1	1	-0.087244	13.9928	-49.0965	-46.6957
 620	1	1	-0.118951	12.7624	-49.329	-46.0483
 621	1	1	-0.044875	11.8246	-48.2953	-46.0341
 622	1	3	0.461883	10.4646	-48.2345	-45.4337
 623	1	4	-0.007433	9.99086	-46.9588	-45.7136
 624	1	3	0.491356	10.8947	-46.2158	-46.4659