pySIMM System Object

1852 atoms
2026 bonds
3560 angles
5372 dihedrals
560 impropers

9 atom types
11 bond types
18 angle types
7 dihedral types
4 improper types

-156.791245 156.791245 xlo xhi
-156.791245 156.791245 ylo yhi
-156.791245 156.791245 zlo zhi

Masses

   1	14.01	# n
   2	12.01	# c
   3	12.01	# ca
   4	1.008	# hn
   5	16.0	# o
   6	1.008	# ha
   7	12.01	# c3
   8	19.0	# f
   9	1.008	# hc

Pair Coeffs

   1	0.17	3.249998523775958	# n
   2	0.086	3.3996695084235347	# c
   3	0.086	3.3996695084235347	# ca
   4	0.0157	1.069078461768407	# hn
   5	0.21	2.959921901149463	# o
   6	0.015	2.59964245953351	# ha
   7	0.1094	3.3996695084235347	# c3
   8	0.061	3.1181455134911875	# f
   9	0.0157	2.649532787749369	# hc

Bond Coeffs

   1	345.8	1.086	# ca,ha
   2	637.7	1.2183	# c,o
   3	321.0	1.5156	# c3,ca
   4	300.9	1.5375	# c3,c3
   5	384.2	1.4121	# ca,n
   6	330.6	1.0969	# c3,hc
   7	403.2	1.0129	# hn,n
   8	356.9	1.3497	# c3,f
   9	461.1	1.3984	# ca,ca
  10	427.6	1.3789	# c,n
  11	345.9	1.4906	# c,ca

Angle Coeffs

   1	66.11	109.24	# c3,c3,f
   2	46.8	110.47	# ca,c3,hc
   3	39.4	107.58	# hc,c3,hc
   4	63.82	123.71	# c,n,ca
   5	66.62	120.02	# ca,ca,ca
   6	63.53	120.77	# c3,ca,ca
   7	62.86	111.51	# c3,c3,c3
   8	63.74	127.08	# c,n,c
   9	48.33	117.55	# c,n,hn
  10	64.28	120.33	# c,ca,ca
  11	48.18	119.88	# ca,ca,ha
  12	68.72	122.6	# ca,c,o
  13	63.15	112.07	# c3,c3,ca
  14	70.89	107.36	# f,c3,f
  15	67.87	120.19	# ca,ca,n
  16	63.56	112.24	# ca,c3,ca
  17	67.68	115.25	# ca,c,n
  18	74.22	123.05	# n,c,o

Dihedral Coeffs

   1	2	2.5	2	180	2.0	1	0	# hn,n,c,o
   2	1	3.625	2	180	# X,ca,ca,X
   3	1	0.15555555555555556	3	0	# X,c3,c3,X
   4	1	0.0	2	0	# X,c3,ca,X
   5	1	1.0	2	180	# X,c,ca,X
   6	1	2.5	2	180	# X,c,n,X
   7	1	0.45	2	180	# X,ca,n,X

Improper Coeffs

   1	1.1	-1	2	# n,X,X,hn
   2	1.1	-1	2	# ca,X,X,ha
   3	10.5	-1	2	# c,X,X,o
   4	1.1	-1	2	# ca,ca,ca,c3

Atoms

   1	1	1	0.486064	-86.3432	-31.8515	90.1724
   2	1	2	0.047133	-87.3971	-31.2632	89.4689
   3	1	3	0.001076	-88.2627	-30.6295	90.5015
   4	1	2	0.034038	-86.4411	-31.6329	91.548
   5	1	3	0.050122	-87.7115	-30.8921	91.7363
   6	1	5	-0.383076	-87.6344	-31.3333	88.2754
   7	1	5	-0.380811	-85.6846	-31.9941	92.4341
   8	1	3	-0.001248	-89.4692	-29.928	90.3708
   9	1	3	-0.036565	-88.3716	-30.5427	92.9133
  10	1	3	-0.208842	-89.6064	-29.8726	92.8057
  11	1	3	-0.065319	-90.1582	-29.5051	91.5421
  12	1	6	0.153391	-89.8544	-29.7368	89.3741
  13	1	6	0.155343	-87.9495	-30.8092	93.8812
  14	1	6	0.174191	-90.125	-29.656	93.7343
  15	1	7	-0.106637	-91.492	-28.6972	91.4411
  16	1	7	0.445763	-92.6044	-29.6645	90.866
  17	1	8	-0.144255	-92.7789	-30.7411	91.667
  18	1	8	-0.136881	-92.3163	-30.175	89.6477
  19	1	8	-0.144092	-93.7953	-29.0406	90.7288
  20	1	7	0.367264	-91.3264	-27.4628	90.4694
  21	1	8	-0.12104	-92.2808	-26.529	90.6768
  22	1	8	-0.122614	-91.3877	-27.776	89.1578
  23	1	8	-0.112321	-90.1332	-26.8506	90.6423
  24	1	3	-0.021957	-91.8727	-28.1253	92.8526
  25	1	3	-0.054241	-93.0628	-28.4959	93.539
  26	1	3	-0.111709	-93.2805	-28.0348	94.8387
  27	1	3	-0.087244	-90.9733	-27.2421	93.5242
  28	1	3	-0.118951	-91.21	-26.7891	94.8398
  29	1	3	-0.044875	-92.376	-27.216	95.4791
  30	1	2	0.461883	-92.8458	-27.0072	96.8726
  31	1	1	-0.007433	-94.0118	-27.7495	96.98
  32	1	2	0.491356	-94.3706	-28.3665	95.7919
  33	1	3	-0.019445	-94.7089	-27.9262	98.2003
  34	1	3	-0.186861	-95.873	-27.1733	98.4352
  35	1	3	-0.068374	-96.5843	-27.3163	99.6344
  36	1	3	-0.009193	-94.2377	-28.8328	99.1751
  37	1	3	0.220761	-94.9578	-28.967	100.377
  38	1	3	-0.402098	-96.1203	-28.2135	100.608
  39	1	6	0.148422	-96.2271	-26.4748	97.6831
  40	1	6	0.146291	-97.487	-26.7311	99.8056
  41	1	6	0.158981	-90.4945	-26.1511	95.3565
  42	1	6	0.141813	-90.0414	-26.9495	93.0488
  43	1	6	0.143633	-93.8104	-29.1615	93.1247
  44	1	5	-0.474465	-95.334	-29.0802	95.5731
  45	1	5	-0.469737	-92.2633	-26.3869	97.7454
  46	1	7	-0.37887	-92.964	-29.6512	98.9616
  47	1	9	0.115886	-93.0026	-30.2133	98.0208
  48	1	9	0.123845	-92.8187	-30.3792	99.7691
  49	1	9	0.138418	-92.0763	-29.0039	98.9416
  50	1	6	0.21348	-96.6604	-28.3353	101.543
  51	1	3	-0.004194	-75.5989	-32.5292	82.3609
  52	1	3	-0.097141	-76.925	-32.0548	82.5854
  53	1	3	-0.172015	-77.1292	-30.6487	82.6245
  54	1	5	-0.377994	-72.5208	-32.9254	82.1333
  55	1	3	0.033493	-74.5457	-31.6075	82.2586
  56	1	3	-0.063739	-76.0547	-29.739	82.5173
  57	1	5	-0.398381	-73.2698	-28.3615	82.5196
  58	1	3	0.032144	-74.7639	-30.2504	82.348
  59	1	2	0.032313	-73.0762	-31.8397	82.1891
  60	1	1	0.461698	-72.4935	-30.573	82.3056
  61	1	2	0.091945	-73.4488	-29.5573	82.3639
  62	1	3	-0.10563	-78.8511	-31.747	86.4373
  63	1	7	-0.099376	-78.1604	-32.9909	82.8136
  64	1	3	-0.043296	-78.9454	-32.5114	84.0794
  65	1	3	-0.073043	-78.2262	-32.0073	85.2008
  66	1	3	-0.117827	-80.2213	-32.0045	86.5488
  67	1	3	-0.037562	-80.3434	-32.729	84.2328
  68	1	3	-0.083705	-80.9498	-32.4636	85.4713
  69	1	7	0.396	-77.7628	-34.4987	83.0955
  70	1	7	0.310495	-79.0336	-32.9193	81.502
  71	1	8	-0.130298	-76.8533	-34.6017	84.0947
  72	1	8	-0.128745	-78.811	-35.2593	83.4872
  73	1	8	-0.120019	-77.2543	-35.1159	82.0053
  74	1	8	-0.104287	-79.9276	-33.9268	81.4089
  75	1	8	-0.095507	-78.2675	-32.9792	80.3876
  76	1	8	-0.104872	-79.7372	-31.7669	81.4271
  77	1	2	0.456145	-82.3157	-32.8074	85.9566
  78	1	2	0.550902	-81.089	-32.0462	87.7578
  79	1	1	0.015704	-82.3099	-32.5589	87.3276
  80	1	5	-0.456801	-83.181	-33.3619	85.3012
  81	1	5	-0.487703	-80.7185	-31.8312	88.8992
  82	1	3	-0.116566	-83.3362	-33.0254	88.2085
  83	1	3	-0.050109	-84.3165	-32.1494	88.7455
  84	1	3	0.154929	-85.3433	-32.6838	89.578
  85	1	3	0.041555	-83.3651	-34.4042	88.5151
  86	1	3	-0.223109	-84.3801	-34.9153	89.3287
  87	1	3	-0.080449	-85.3786	-34.0781	89.8411
  88	1	7	-0.108008	-82.3219	-35.3752	87.9748
  89	1	7	-0.182228	-86.4965	-34.7283	90.6541
  90	1	7	-0.345523	-84.2454	-30.6562	88.3981
  91	1	6	0.155183	-75.3551	-33.5854	82.3166
  92	1	6	0.172904	-78.1306	-30.2514	82.7814
  93	1	6	0.158028	-76.2114	-28.665	82.5999
  94	1	6	0.153129	-78.2746	-31.4255	87.3034
  95	1	6	0.142914	-77.1487	-31.8789	85.1433
  96	1	6	0.135531	-80.9474	-33.1839	83.4544
  97	1	6	0.17765	-84.4036	-35.9797	89.5447
  98	1	9	0.046541	-82.5132	-35.6087	86.9172
  99	1	9	0.045238	-82.3284	-36.3223	88.5263
 100	1	9	0.051941	-81.3077	-34.9701	88.0569
 101	1	9	0.087961	-87.4855	-34.3928	90.3235
 102	1	9	0.066782	-86.3975	-34.5006	91.7233
 103	1	9	0.075908	-86.4845	-35.8211	90.5546
 104	1	9	0.105172	-83.234	-30.2606	88.5602
 105	1	9	0.115625	-84.9145	-30.0324	88.9997
 106	1	9	0.140296	-84.5106	-30.4913	87.3446
 107	1	1	0.486064	-60.3856	-22.177	75.8636
 108	1	2	0.047133	-60.2066	-22.165	77.2519
 109	1	3	0.001076	-61.3618	-22.9292	77.8182
 110	1	2	0.034038	-61.5599	-22.8327	75.4981
 111	1	3	0.050122	-62.1627	-23.321	76.7656
 112	1	5	-0.383076	-59.2543	-21.7322	77.8784
 113	1	5	-0.380811	-61.9617	-23.0812	74.374
 114	1	3	-0.001248	-61.6131	-23.3767	79.1262
 115	1	3	-0.036565	-63.2682	-24.1548	76.9574
 116	1	3	-0.208842	-63.5256	-24.6262	78.2601
 117	1	3	-0.065319	-62.7134	-24.2514	79.37
 118	1	6	0.153391	-60.9036	-23.1011	79.9015
 119	1	6	0.155343	-63.862	-24.4828	76.1056
 120	1	6	0.174191	-64.34	-25.3363	78.3812
 121	1	7	-0.106637	-62.9541	-24.9009	80.7701
 122	1	7	0.445763	-61.8705	-26.0401	80.9316
 123	1	8	-0.144255	-61.959	-26.6673	82.1268
 124	1	8	-0.136881	-60.5963	-25.5825	80.853
 125	1	8	-0.144092	-61.9947	-26.973	79.9545
 126	1	7	0.367264	-62.7624	-23.8594	81.9444
 127	1	8	-0.12104	-61.4838	-23.4768	82.1492
 128	1	8	-0.122614	-63.4564	-22.7139	81.7483
 129	1	8	-0.112321	-63.1868	-24.3831	83.1133
 130	1	3	-0.021957	-64.4267	-25.4471	80.8881
 131	1	3	-0.054241	-64.7581	-26.7983	81.2062
 132	1	3	-0.111709	-66.1046	-27.1774	81.3375
 133	1	3	-0.087244	-65.5109	-24.5439	80.7048
 134	1	3	-0.118951	-66.8565	-24.9388	80.865
 135	1	3	-0.044875	-67.1239	-26.2677	81.1951
 136	1	2	0.461883	-68.4111	-26.9314	81.5304
 137	1	1	-0.007433	-68.0857	-28.2423	81.8678
 138	1	2	0.491356	-66.7146	-28.4708	81.7577
 139	1	3	-0.019445	-68.9902	-29.1636	82.4892
 140	1	3	-0.186861	-68.6171	-29.6709	83.75
 141	1	3	-0.068374	-69.4571	-30.5273	84.4638
 142	1	3	-0.009193	-70.2393	-29.541	81.9213
 143	1	3	0.220761	-71.1289	-30.3488	82.6826
 144	1	3	-0.402098	-70.7109	-30.8495	83.936
 145	1	6	0.148422	-67.6602	-29.4013	84.1853
 146	1	6	0.146291	-69.1385	-30.9204	85.4307
 147	1	6	0.158981	-67.6702	-24.2223	80.7634
 148	1	6	0.141813	-65.3143	-23.5085	80.4395
 149	1	6	0.143633	-64.0072	-27.5644	81.3692
 150	1	5	-0.474465	-66.0996	-29.4622	82.1051
 151	1	5	-0.469737	-69.494	-26.3756	81.5891
 152	1	7	-0.37887	-70.6126	-29.1187	80.5001
 153	1	9	0.115886	-71.2192	-29.8775	79.9904
 154	1	9	0.123845	-69.7271	-28.9635	79.8726
 155	1	9	0.138418	-71.1832	-28.1792	80.5099
 156	1	6	0.21348	-71.3775	-31.4893	84.5122
 157	1	1	0.486064	-55.5879	-9.43551	66.9988
 158	1	2	0.047133	-55.667	-10.7017	66.4136
 159	1	3	0.001076	-55.4732	-11.673	67.521
 160	1	2	0.034038	-55.3938	-9.51222	68.3792
 161	1	3	0.050122	-55.3112	-10.961	68.6859
 162	1	5	-0.383076	-55.9276	-10.983	65.2567
 163	1	5	-0.380811	-55.3255	-8.60531	69.1909
 164	1	3	-0.001248	-55.3937	-13.0705	67.4936
 165	1	3	-0.036565	-55.1071	-11.6062	69.903
 166	1	3	-0.208842	-55.0742	-13.0152	69.9098
 167	1	3	-0.065319	-55.1978	-13.7748	68.7126
 168	1	6	0.153391	-55.4902	-13.5693	66.5341
 169	1	6	0.155343	-54.9852	-11.0298	70.8172
 170	1	6	0.174191	-54.9274	-13.5222	70.8606
 171	1	7	-0.106637	-55.1158	-15.3295	68.7915
 172	1	7	0.445763	-55.6304	-16.0644	67.4788
 173	1	8	-0.144255	-54.8003	-15.9315	66.4184
 174	1	8	-0.136881	-55.7616	-17.3933	67.6686
 175	1	8	-0.144092	-56.8547	-15.6463	67.0804
 176	1	7	0.367264	-53.5868	-15.7147	68.9775
 177	1	8	-0.12104	-52.7753	-15.135	68.0593
 178	1	8	-0.122614	-53.3695	-17.0445	68.8685
 179	1	8	-0.112321	-53.0994	-15.332	70.178
 180	1	3	-0.021957	-56.0583	-15.8088	69.9556
 181	1	3	-0.054241	-55.6729	-16.763	70.9379
 182	1	3	-0.111709	-56.6533	-17.2907	71.8025
 183	1	3	-0.087244	-57.4218	-15.3891	69.9475
 184	1	3	-0.118951	-58.3947	-15.9629	70.7971
 185	1	3	-0.044875	-57.9841	-16.9511	71.6968
 186	1	2	0.461883	-58.7989	-17.9289	72.4866
 187	1	1	-0.007433	-57.8794	-18.8254	73.0361
 188	1	2	0.491356	-56.5705	-18.4398	72.7412
 189	1	3	-0.019445	-58.194	-20.1444	73.519
 190	1	3	-0.186861	-57.5721	-21.2125	72.8382
 191	1	3	-0.068374	-57.8357	-22.5442	73.1689
 192	1	3	-0.009193	-59.1317	-20.4382	74.5541
 193	1	3	0.220761	-59.3987	-21.7974	74.8936
 194	1	3	-0.402098	-58.7494	-22.8333	74.1863
 195	1	6	0.148422	-56.8783	-21.017	72.0258
 196	1	6	0.146291	-57.3521	-23.3471	72.6191
 197	1	6	0.158981	-59.45	-15.7128	70.698
 198	1	6	0.141813	-57.7541	-14.6603	69.2132
 199	1	6	0.143633	-54.6661	-17.1658	70.9932
 200	1	5	-0.474465	-55.5378	-19.0122	73.0391
 201	1	5	-0.469737	-60.0183	-17.9835	72.5008
 202	1	7	-0.37887	-59.889	-19.3203	75.2742
 203	1	9	0.115886	-60.9273	-19.2647	74.9169
 204	1	9	0.123845	-59.4404	-18.3321	75.1199
 205	1	9	0.138418	-59.9078	-19.4694	76.3605
 206	1	6	0.21348	-58.98	-23.8708	74.4104
 207	1	1	0.486064	-47.7209	-1.66494	55.5855
 208	1	2	0.047133	-48.7387	-0.91323	56.1728
 209	1	3	0.001076	-48.9702	-1.49834	57.5193
 210	1	2	0.034038	-47.2813	-2.68258	56.4351
 211	1	3	0.050122	-48.0864	-2.54113	57.6821
 212	1	5	-0.383076	-49.3446	0.025895	55.6898
 213	1	5	-0.380811	-46.4419	-3.5381	56.2149
 214	1	3	-0.001248	-49.8763	-1.12955	58.5228
 215	1	3	-0.036565	-48.0293	-3.25049	58.8847
 216	1	3	-0.208842	-48.9287	-2.89302	59.913
 217	1	3	-0.065319	-49.8851	-1.84731	59.7529
 218	1	6	0.153391	-50.538	-0.296392	58.3154
 219	1	6	0.155343	-47.3045	-4.05189	59.0147
 220	1	6	0.174191	-48.8872	-3.45294	60.8454
 221	1	7	-0.106637	-50.8579	-1.50598	60.9346
 222	1	7	0.445763	-49.9592	-0.871029	62.0729
 223	1	8	-0.144255	-49.0787	0.031705	61.5722
 224	1	8	-0.136881	-49.2378	-1.82429	62.7118
 225	1	8	-0.144092	-50.6591	-0.224307	63.0334
 226	1	7	0.367264	-51.9882	-0.480935	60.5216
 227	1	8	-0.12104	-51.5033	0.752252	60.2379
 228	1	8	-0.122614	-52.8983	-0.331273	61.5065
 229	1	8	-0.112321	-52.7093	-0.904378	59.4523
 230	1	3	-0.021957	-51.6065	-2.79615	61.4136
 231	1	3	-0.054241	-52.1643	-2.92046	62.7224
 232	1	3	-0.111709	-52.9328	-4.05355	63.0404
 233	1	3	-0.087244	-51.8866	-3.8337	60.4787
 234	1	3	-0.118951	-52.617	-4.98368	60.8313
 235	1	3	-0.044875	-53.1229	-5.06956	62.1278
 236	1	2	0.461883	-53.9641	-6.12415	62.7453
 237	1	1	-0.007433	-54.2685	-5.65657	64.014
 238	1	2	0.491356	-53.674	-4.42607	64.285
 239	1	3	-0.019445	-55.1827	-6.32986	64.8722
 240	1	3	-0.186861	-56.4742	-5.79049	64.9932
 241	1	3	-0.068374	-57.4516	-6.44988	65.7518
 242	1	3	-0.009193	-54.8479	-7.52927	65.5538
 243	1	3	0.220761	-55.8495	-8.21638	66.2965
 244	1	3	-0.402098	-57.1448	-7.66437	66.3845
 245	1	6	0.148422	-56.7265	-4.85819	64.4899
 246	1	6	0.146291	-58.4491	-6.02149	65.8446
 247	1	6	0.158981	-52.8079	-5.77769	60.1092
 248	1	6	0.141813	-51.5489	-3.75305	59.4499
 249	1	6	0.143633	-52.0553	-2.14263	63.4714
 250	1	5	-0.474465	-53.7331	-3.78038	65.3166
 251	1	5	-0.469737	-54.2806	-7.18618	62.2362
 252	1	7	-0.37887	-53.4049	-8.04573	65.5375
 253	1	9	0.115886	-53.0911	-8.3778	66.5351
 254	1	9	0.123845	-52.6791	-7.28132	65.238
 255	1	9	0.138418	-53.2998	-8.88993	64.8413
 256	1	6	0.21348	-57.9108	-8.16872	66.9698
 257	1	1	0.486064	-41.498	-1.89799	42.9879
 258	1	2	0.047133	-42.7417	-1.28267	42.8738
 259	1	3	0.001076	-43.6748	-2.20204	43.574
 260	1	2	0.034038	-41.5452	-3.0838	43.7305
 261	1	3	0.050122	-42.9623	-3.25598	44.1033
 262	1	5	-0.383076	-43.0198	-0.213657	42.3513
 263	1	5	-0.380811	-40.6406	-3.85457	44.0038
 264	1	3	-0.001248	-45.0601	-2.12764	43.698
 265	1	3	-0.036565	-43.5829	-4.2557	44.8514
 266	1	3	-0.208842	-44.9861	-4.21963	44.9481
 267	1	3	-0.065319	-45.7556	-3.16931	44.3726
 268	1	6	0.153391	-45.5437	-1.27638	43.2331
 269	1	6	0.155343	-43.0001	-5.06321	45.286
 270	1	6	0.174191	-45.4763	-5.02036	45.4981
 271	1	7	-0.106637	-47.309	-3.213	44.52
 272	1	7	0.445763	-47.9971	-1.93265	43.916
 273	1	8	-0.144255	-49.34	-1.94585	44.0755
 274	1	8	-0.136881	-47.7432	-1.79357	42.5947
 275	1	8	-0.144092	-47.5692	-0.803223	44.5251
 276	1	7	0.367264	-47.8163	-4.48284	43.7245
 277	1	8	-0.12104	-49.1442	-4.49068	43.4483
 278	1	8	-0.122614	-47.5809	-5.61633	44.4211
 279	1	8	-0.112321	-47.1716	-4.59636	42.5347
 280	1	3	-0.021957	-47.6799	-3.27006	46.0389
 281	1	3	-0.054241	-46.7391	-2.89127	47.0375
 282	1	3	-0.111709	-47.1287	-2.84557	48.3825
 283	1	3	-0.087244	-49.008	-3.55656	46.4727
 284	1	3	-0.118951	-49.3941	-3.43649	47.8296
 285	1	3	-0.044875	-48.4249	-3.07665	48.7738
 286	1	2	0.461883	-48.5475	-2.7088	50.2147
 287	1	1	-0.007433	-47.2668	-2.32975	50.6252
 288	1	2	0.491356	-46.3497	-2.4416	49.578
 289	1	3	-0.019445	-46.964	-1.68481	51.8715
 290	1	3	-0.186861	-46.2766	-0.458355	51.7711
 291	1	3	-0.068374	-45.9933	0.306202	52.9021
 292	1	3	-0.009193	-47.3796	-2.16031	53.1526
 293	1	3	0.220761	-47.1669	-1.34066	54.2997
 294	1	3	-0.402098	-46.4735	-0.114167	54.1493
 295	1	6	0.148422	-45.959	-0.0798471	50.8052
 296	1	6	0.146291	-45.4523	1.24766	52.8
 297	1	6	0.158981	-50.4281	-3.57841	48.135
 298	1	6	0.141813	-49.7753	-3.81152	45.7478
 299	1	6	0.143633	-45.7249	-2.58262	46.7991
 300	1	5	-0.474465	-45.1602	-2.17507	49.5723
 301	1	5	-0.469737	-49.5994	-2.61618	50.827
 302	1	7	-0.37887	-48.1051	-3.50486	53.2906
 303	1	9	0.115886	-47.952	-4.16156	52.4269
 304	1	9	0.123845	-49.1874	-3.34934	53.4001
 305	1	9	0.138418	-47.7586	-4.0885	54.1504
 306	1	6	0.21348	-46.325	0.531109	55.0113
 307	1	3	-0.004194	-38.9509	2.09805	31.0759
 308	1	3	-0.097141	-38.2019	1.76594	32.244
 309	1	3	-0.172015	-37.0278	0.987784	32.0496
 310	1	5	-0.377994	-39.9545	2.79787	28.2236
 311	1	3	0.033493	-38.5251	1.67172	29.8123
 312	1	3	-0.063739	-36.6156	0.558293	30.7653
 313	1	5	-0.398381	-36.1565	0.153194	27.7369
 314	1	3	0.032144	-37.3902	0.91346	29.658
 315	1	2	0.032313	-38.9928	2.08829	28.4652
 316	1	1	0.461698	-38.0241	1.61167	27.58
 317	1	2	0.091945	-37.0868	0.78673	28.2106
 318	1	3	-0.10563	-38.6412	-0.979249	35.5798
 319	1	7	-0.099376	-38.5204	2.38674	33.6579
 320	1	3	-0.043296	-38.48	1.35701	34.8195
 321	1	3	-0.073043	-38.6393	-0.0232247	34.5456
 322	1	3	-0.117827	-38.5097	-0.536257	36.9003
 323	1	3	-0.037562	-38.4031	1.76911	36.1839
 324	1	3	-0.083705	-38.4447	0.803878	37.1977
 325	1	7	0.396	-39.9611	3.0142	33.7219
 326	1	7	0.310495	-37.4309	3.49895	33.8832
 327	1	8	-0.130298	-40.0129	4.12166	32.9551
 328	1	8	-0.128745	-40.3332	3.41242	34.9619
 329	1	8	-0.120019	-40.9085	2.13108	33.3102
 330	1	8	-0.104287	-37.7689	4.38244	34.8445
 331	1	8	-0.095507	-37.2296	4.25118	32.7756
 332	1	8	-0.104872	-36.2428	2.93804	34.2246
 333	1	2	0.456145	-38.5315	0.953199	38.6728
 334	1	2	0.550902	-38.596	-1.29627	38.1727
 335	1	1	0.015704	-38.6583	-0.341855	39.1859
 336	1	5	-0.456801	-38.4858	2.01363	39.2712
 337	1	5	-0.487703	-38.6075	-2.51234	38.2665
 338	1	3	-0.116566	-38.863	-0.63961	40.5794
 339	1	3	-0.050109	-40.1023	-1.15337	41.0541
 340	1	3	0.154929	-40.296	-1.35238	42.4532
 341	1	3	0.041555	-37.8109	-0.416004	41.4949
 342	1	3	-0.223109	-38.0235	-0.601766	42.865
 343	1	3	-0.080449	-39.259	-1.02878	43.3562
 344	1	7	-0.108008	-36.4394	0.0762025	41.0555
 345	1	7	-0.182228	-39.4032	-1.14776	44.8712
 346	1	7	-0.345523	-41.1881	-1.50065	40.0309
 347	1	6	0.155183	-39.8223	2.73936	31.0945
 348	1	6	0.172904	-36.3924	0.751797	32.9019
 349	1	6	0.158028	-35.6824	0.0140588	30.6227
 350	1	6	0.153129	-38.7796	-2.03728	35.3638
 351	1	6	0.142914	-38.7849	-0.371598	33.5271
 352	1	6	0.135531	-38.3792	2.81345	36.4756
 353	1	6	0.17765	-37.2186	-0.38409	43.5622
 354	1	9	0.046541	-35.6776	-0.10853	41.8226
 355	1	9	0.045238	-36.4577	1.15494	40.8634
 356	1	9	0.051941	-36.1026	-0.430791	40.1437
 357	1	9	0.087961	-39.1216	-2.14773	45.2157
 358	1	9	0.066782	-40.4238	-0.938928	45.2168
 359	1	9	0.075908	-38.7484	-0.432748	45.3874
 360	1	9	0.105172	-42.1269	-1.8597	40.4599
 361	1	9	0.115625	-40.8567	-2.30088	39.3601
 362	1	9	0.140296	-41.4442	-0.625257	39.4194
 363	1	3	-0.004194	-36.2126	-2.54901	16.7735
 364	1	3	-0.097141	-36.9928	-1.36655	16.9432
 365	1	3	-0.172015	-36.3126	-0.11679	16.8748
 366	1	5	-0.377994	-33.9706	-4.70687	16.3073
 367	1	3	0.033493	-34.8352	-2.44319	16.5084
 368	1	3	-0.063739	-34.9215	-0.033618	16.6269
 369	1	5	-0.398381	-31.9334	-0.545962	15.9267
 370	1	3	0.032144	-34.2076	-1.21829	16.4218
 371	1	2	0.032313	-33.8062	-3.49767	16.2614
 372	1	1	0.461698	-32.6152	-2.80847	16.0052
 373	1	2	0.091945	-32.7676	-1.4225	16.0899
 374	1	3	-0.10563	-40.578	0.880844	19.6253
 375	1	7	-0.099376	-38.5551	-1.38764	17.1404
 376	1	3	-0.043296	-38.9504	-0.524783	18.3812
 377	1	3	-0.073043	-40.2098	0.138397	18.4804
 378	1	3	-0.117827	-39.6645	0.954537	20.6786
 379	1	3	-0.037562	-38.0847	-0.471673	19.5039
 380	1	3	-0.083705	-38.4552	0.29027	20.6199
 381	1	7	0.396	-39.142	-2.82174	17.4196
 382	1	7	0.310495	-39.2057	-0.865793	15.7979
 383	1	8	-0.130298	-38.9871	-3.68558	16.3938
 384	1	8	-0.128745	-40.4764	-2.78296	17.6519
 385	1	8	-0.120019	-38.544	-3.38026	18.4941
 386	1	8	-0.104287	-38.6086	-1.4318	14.7282
 387	1	8	-0.095507	-39.068	0.469701	15.6262
 388	1	8	-0.104872	-40.5294	-1.14211	15.6901
 389	1	2	0.456145	-37.7225	0.559731	21.8875
 390	1	2	0.550902	-39.7296	1.69176	21.9722
 391	1	1	0.015704	-38.5386	1.40653	22.6247
 392	1	5	-0.456801	-36.6151	0.150815	22.1869
 393	1	5	-0.487703	-40.6113	2.44902	22.3371
 394	1	3	-0.116566	-38.1222	2.06376	23.8232
 395	1	3	-0.050109	-38.2292	1.43178	25.094
 396	1	3	0.154929	-37.8664	2.14905	26.267
 397	1	3	0.041555	-37.6063	3.37568	23.7162
 398	1	3	-0.223109	-37.1913	4.03669	24.8732
 399	1	3	-0.080449	-37.3288	3.45447	26.136
 400	1	7	-0.108008	-37.4901	4.11639	22.3829
 401	1	7	-0.182228	-36.8527	4.29151	27.3164
 402	1	7	-0.345523	-38.7754	0.00359191	25.1746
 403	1	6	0.155183	-36.6403	-3.54399	16.8123
 404	1	6	0.172904	-36.8723	0.808164	17.0075
 405	1	6	0.158028	-34.4155	0.927383	16.5582
 406	1	6	0.153129	-41.5365	1.39418	19.6869
 407	1	6	0.142914	-40.9308	0.0889961	17.6709
 408	1	6	0.135531	-37.1335	-0.998025	19.5125
 409	1	6	0.17765	-36.7968	5.04583	24.7918
 410	1	9	0.046541	-37.0929	5.13081	22.5121
 411	1	9	0.045238	-38.4678	4.22011	21.9006
 412	1	9	0.051941	-36.8216	3.58816	21.6906
 413	1	9	0.087961	-36.2331	5.13833	26.9961
 414	1	9	0.066782	-36.2423	3.70073	28.0114
 415	1	9	0.075908	-37.703	4.71055	27.8675
 416	1	9	0.105172	-38.9116	-0.35528	26.2022
 417	1	9	0.115625	-38.0934	-0.700776	24.6813
 418	1	9	0.140296	-39.7548	-0.0753198	24.6839
 419	1	1	0.486064	-23.3889	-3.51681	4.57958
 420	1	2	0.047133	-24.4567	-3.74524	5.45751
 421	1	3	0.001076	-23.9561	-4.79528	6.39424
 422	1	2	0.034038	-22.2462	-4.25758	4.90393
 423	1	3	0.050122	-22.6497	-5.09209	6.06345
 424	1	5	-0.383076	-25.5525	-3.20296	5.47204
 425	1	5	-0.380811	-21.1468	-4.24728	4.36658
 426	1	3	-0.001248	-24.5992	-5.44065	7.4578
 427	1	3	-0.036565	-21.9182	-6.03518	6.78569
 428	1	3	-0.208842	-22.5449	-6.68548	7.87246
 429	1	3	-0.065319	-23.8962	-6.39814	8.24171
 430	1	6	0.153391	-25.6381	-5.19782	7.66259
 431	1	6	0.155343	-20.8902	-6.25602	6.50644
 432	1	6	0.174191	-21.9538	-7.41942	8.40918
 433	1	7	-0.106637	-24.6609	-7.14493	9.39034
 434	1	7	0.445763	-25.5036	-8.25873	8.65322
 435	1	8	-0.144255	-24.725	-8.95023	7.79453
 436	1	8	-0.136881	-26.5257	-7.70732	7.94347
 437	1	8	-0.144092	-26.0219	-9.20828	9.45989
 438	1	7	0.367264	-23.6931	-7.79487	10.4501
 439	1	8	-0.12104	-22.9839	-8.83254	9.95602
 440	1	8	-0.122614	-24.3823	-8.28489	11.5089
 441	1	8	-0.112321	-22.8027	-6.88755	10.9311
 442	1	3	-0.021957	-25.5719	-6.14786	10.1807
 443	1	3	-0.054241	-26.7037	-6.5912	10.9214
 444	1	3	-0.111709	-27.4477	-5.66138	11.6683
 445	1	3	-0.087244	-25.2059	-4.77495	10.3039
 446	1	3	-0.118951	-25.9944	-3.84215	11.0103
 447	1	3	-0.044875	-27.1307	-4.31683	11.6729
 448	1	2	0.461883	-28.0414	-3.61794	12.6229
 449	1	1	-0.007433	-28.8027	-4.61094	13.2184
 450	1	2	0.491356	-28.5344	-5.87056	12.6768
 451	1	3	-0.019445	-29.5304	-4.3822	14.4353
 452	1	3	-0.186861	-28.9166	-4.85735	15.6141
 453	1	3	-0.068374	-29.5116	-4.67553	16.8669
 454	1	3	-0.009193	-30.7657	-3.66365	14.5285
 455	1	3	0.220761	-31.3645	-3.47838	15.8115
 456	1	3	-0.402098	-30.7388	-4.01166	16.9571
 457	1	6	0.148422	-27.9707	-5.38712	15.5595
 458	1	6	0.146291	-29.0229	-5.0548	17.7642
 459	1	6	0.158981	-25.6997	-2.79568	11.0918
 460	1	6	0.141813	-24.2765	-4.42042	9.86271
 461	1	6	0.143633	-26.9764	-7.63854	10.9868
 462	1	5	-0.474465	-28.9675	-6.95069	13.0413
 463	1	5	-0.469737	-28.0913	-2.41719	12.8281
 464	1	7	-0.37887	-31.4479	-3.07792	13.2896
 465	1	9	0.115886	-31.3312	-1.98345	13.2728
 466	1	9	0.123845	-32.5235	-3.30534	13.2699
 467	1	9	0.138418	-31.0241	-3.46708	12.3546
 468	1	6	0.21348	-31.2079	-3.90036	17.9324
 469	1	3	-0.004194	-21.4275	-3.82123	-8.24954
 470	1	3	-0.097141	-21.2992	-3.54416	-6.85981
 471	1	3	-0.172015	-21.1908	-2.18026	-6.45449
 472	1	5	-0.377994	-21.9017	-3.76164	-11.3303
 473	1	3	0.033493	-21.5528	-2.75824	-9.15592
 474	1	3	-0.063739	-21.3179	-1.11945	-7.37693
 475	1	5	-0.398381	-21.7257	0.665495	-9.85016
 476	1	3	0.032144	-21.5271	-1.44595	-8.72332
 477	1	2	0.032313	-21.8038	-2.76555	-10.6263
 478	1	1	0.461698	-21.8916	-1.41009	-10.9856
 479	1	2	0.091945	-21.7193	-0.555509	-9.8917
 480	1	3	-0.10563	-24.2666	-3.12913	-3.8367
 481	1	7	-0.099376	-21.2952	-4.67242	-5.78039
 482	1	3	-0.043296	-22.1728	-4.1965	-4.58801
 483	1	3	-0.073043	-23.4685	-3.67744	-4.85992
 484	1	3	-0.117827	-23.764	-3.12776	-2.52828
 485	1	3	-0.037562	-21.7182	-4.20017	-3.23798
 486	1	3	-0.083705	-22.5302	-3.66519	-2.23716
 487	1	7	0.396	-19.7967	-4.91951	-5.36776
 488	1	7	0.310495	-21.9183	-6.03714	-6.27163
 489	1	8	-0.130298	-19.2404	-3.81356	-4.82156
 490	1	8	-0.128745	-19.0439	-5.24415	-6.43672
 491	1	8	-0.120019	-19.6374	-5.91767	-4.47081
 492	1	8	-0.104287	-23.1496	-5.90615	-6.81668
 493	1	8	-0.095507	-22.07	-6.86804	-5.22639
 494	1	8	-0.104872	-21.1553	-6.68959	-7.1764
 495	1	2	0.456145	-22.2435	-3.43969	-0.790573
 496	1	2	0.550902	-24.3328	-2.57991	-1.26508
 497	1	1	0.015704	-23.3453	-2.75394	-0.295528
 498	1	5	-0.456801	-21.2113	-3.70798	-0.196898
 499	1	5	-0.487703	-25.4394	-2.07721	-1.14889
 500	1	3	-0.116566	-23.4051	-2.2451	1.04168
 501	1	3	-0.050109	-23.5571	-3.11585	2.15017
 502	1	3	0.154929	-23.4316	-2.61783	3.47112
 503	1	3	0.041555	-23.1411	-0.874091	1.26228
 504	1	3	-0.223109	-23.1147	-0.376333	2.57248
 505	1	3	-0.080449	-23.2309	-1.23516	3.67416
 506	1	7	-0.108008	-22.8424	0.0972008	0.121199
 507	1	7	-0.182228	-23.0823	-0.652961	5.06941
 508	1	7	-0.345523	-23.7094	-4.61806	1.92033
 509	1	6	0.155183	-21.487	-4.83	-8.64189
 510	1	6	0.172904	-21.0431	-1.94089	-5.40699
 511	1	6	0.158028	-21.2617	-0.0817234	-7.06031
 512	1	6	0.153129	-25.2404	-2.69622	-4.05479
 513	1	6	0.142914	-23.8434	-3.65316	-5.88172
 514	1	6	0.135531	-20.7403	-4.55632	-2.93675
 515	1	6	0.17765	-22.9397	0.685187	2.73618
 516	1	9	0.046541	-23.7155	0.21334	-0.538325
 517	1	9	0.045238	-21.997	-0.253075	-0.490166
 518	1	9	0.051941	-22.5807	1.09982	0.497716
 519	1	9	0.087961	-22.1637	-1.01855	5.54944
 520	1	9	0.066782	-23.9295	-0.934355	5.70563
 521	1	9	0.075908	-23.0309	0.444858	5.06244
 522	1	9	0.105172	-24.152	-4.85933	0.946803
 523	1	9	0.115625	-24.3714	-5.07662	2.66275
 524	1	9	0.140296	-22.733	-5.11987	1.9852
 525	1	1	0.486064	-30.0191	8.87175	-20.426
 526	1	2	0.047133	-30.0956	8.65354	-19.0463
 527	1	3	0.001076	-29.7279	7.23115	-18.838
 528	1	2	0.034038	-29.6386	7.72344	-21.1263
 529	1	3	0.050122	-29.4055	6.69742	-20.0686
 530	1	5	-0.383076	-30.3257	9.46233	-18.1634
 531	1	5	-0.380811	-29.4754	7.57307	-22.3266
 532	1	3	-0.001248	-29.6975	6.45731	-17.6636
 533	1	3	-0.036565	-28.9072	5.39656	-20.1674
 534	1	3	-0.208842	-28.7489	4.64348	-18.9858
 535	1	3	-0.065319	-29.1909	5.11894	-17.7207
 536	1	6	0.153391	-30.0378	6.92495	-16.7461
 537	1	6	0.155343	-28.6038	5.00439	-21.1339
 538	1	6	0.174191	-28.3175	3.64973	-19.0743
 539	1	7	-0.106637	-29.0999	4.13967	-16.4926
 540	1	7	0.445763	-29.4535	4.85042	-15.142
 541	1	8	-0.144255	-28.6533	5.91638	-14.9354
 542	1	8	-0.136881	-29.3089	4.05262	-14.0621
 543	1	8	-0.144092	-30.7192	5.30501	-15.114
 544	1	7	0.367264	-30.1292	2.96283	-16.7288
 545	1	8	-0.12104	-29.6967	2.16427	-17.7291
 546	1	8	-0.122614	-31.3526	3.41085	-17.0906
 547	1	8	-0.112321	-30.3427	2.17117	-15.6485
 548	1	3	-0.021957	-27.6311	3.63902	-16.3348
 549	1	3	-0.054241	-27.3125	2.35113	-15.8185
 550	1	3	-0.111709	-25.9732	2.05689	-15.5226
 551	1	3	-0.087244	-26.5605	4.5444	-16.5863
 552	1	3	-0.118951	-25.2237	4.21512	-16.2901
 553	1	3	-0.044875	-24.9566	2.9591	-15.7437
 554	1	2	0.461883	-23.674	2.36767	-15.2812
 555	1	1	-0.007433	-24.0139	1.12404	-14.7656
 556	1	2	0.491356	-25.3676	0.836726	-14.9303
 557	1	3	-0.019445	-23.0487	0.257004	-14.1839
 558	1	3	-0.186861	-22.0086	-0.165303	-15.0303
 559	1	3	-0.068374	-20.9544	-0.940678	-14.5446
 560	1	3	-0.009193	-23.0593	-0.131061	-12.8127
 561	1	3	0.220761	-21.9914	-0.952956	-12.3349
 562	1	3	-0.402098	-20.944	-1.3293	-13.2026
 563	1	6	0.148422	-21.9934	0.142468	-16.0736
 564	1	6	0.146291	-20.1421	-1.22666	-15.2122
 565	1	6	0.158981	-24.4156	4.92832	-16.4529
 566	1	6	0.141813	-26.7653	5.54264	-16.9672
 567	1	6	0.143633	-28.0633	1.60011	-15.5944
 568	1	5	-0.474465	-25.9691	-0.181124	-14.6398
 569	1	5	-0.469737	-22.5745	2.8969	-15.3319
 570	1	7	-0.37887	-24.1887	0.34371	-11.8729
 571	1	9	0.115886	-24.1917	-0.161803	-10.9024
 572	1	9	0.123845	-25.179	0.145584	-12.2944
 573	1	9	0.138418	-24.1158	1.42033	-11.6691
 574	1	6	0.21348	-20.1136	-1.92972	-12.8293
 575	1	3	-0.004194	-24.9559	18.6559	-25.1225
 576	1	3	-0.097141	-24.8137	17.9564	-26.3508
 577	1	3	-0.172015	-23.9225	18.5185	-27.3124
 578	1	5	-0.377994	-24.4241	20.1472	-22.5012
 579	1	3	0.033493	-24.1112	19.7436	-24.8434
 580	1	3	-0.063739	-23.0937	19.6287	-27.0253
 581	1	5	-0.398381	-21.3271	21.77	-25.5604
 582	1	3	0.032144	-23.1825	20.2093	-25.7536
 583	1	2	0.032313	-23.8677	20.428	-23.548
 584	1	1	0.461698	-22.7649	21.2651	-23.7598
 585	1	2	0.091945	-22.3094	21.2205	-25.0795
 586	1	3	-0.10563	-25.554	15.1413	-23.0131
 587	1	7	-0.099376	-25.6206	16.6475	-26.6636
 588	1	3	-0.043296	-26.0379	15.895	-25.3416
 589	1	3	-0.073043	-25.186	15.8334	-24.1924
 590	1	3	-0.117827	-26.7547	14.4305	-23.0144
 591	1	3	-0.037562	-27.2205	15.1098	-25.2968
 592	1	3	-0.083705	-27.5357	14.3833	-24.1472
 593	1	7	0.396	-24.7705	15.6117	-27.502
 594	1	7	0.310495	-26.8654	17.1116	-27.5187
 595	1	8	-0.130298	-24.6351	15.9236	-28.8097
 596	1	8	-0.128745	-25.3153	14.3762	-27.4778
 597	1	8	-0.120019	-23.5317	15.4651	-26.9915
 598	1	8	-0.104287	-27.5035	16.092	-28.1399
 599	1	8	-0.095507	-26.5599	17.9677	-28.5186
 600	1	8	-0.104872	-27.7386	17.7549	-26.7133
 601	1	2	0.456145	-28.6704	13.4676	-23.8877
 602	1	2	0.550902	-27.3962	13.5973	-21.9594
 603	1	1	0.015704	-28.5326	13.0789	-22.5669
 604	1	5	-0.456801	-29.4953	13.0586	-24.6879
 605	1	5	-0.487703	-27.0324	13.4724	-20.7994
 606	1	3	-0.116566	-29.5213	12.2775	-21.9255
 607	1	3	-0.050109	-29.2464	10.9402	-21.5533
 608	1	3	0.154929	-30.2951	10.1446	-21.0064
 609	1	3	0.041555	-30.8085	12.8242	-21.7411
 610	1	3	-0.223109	-31.8406	12.0169	-21.2545
 611	1	3	-0.080449	-31.601	10.6881	-20.8939
 612	1	7	-0.108008	-31.125	14.2788	-22.0719
 613	1	7	-0.182228	-32.7998	9.90866	-20.3641
 614	1	7	-0.345523	-27.7994	10.432	-21.6982
 615	1	6	0.155183	-25.6575	18.3317	-24.3553
 616	1	6	0.172904	-23.8284	18.0775	-28.2985
 617	1	6	0.158028	-22.3599	19.9849	-27.7498
 618	1	6	0.153129	-24.9156	15.1455	-22.1286
 619	1	6	0.142914	-24.2158	16.3257	-24.2118
 620	1	6	0.135531	-27.8839	15.0031	-26.1448
 621	1	6	0.17765	-32.8415	12.4332	-21.1512
 622	1	9	0.046541	-30.2575	14.9393	-21.9597
 623	1	9	0.045238	-31.9008	14.6743	-21.4082
 624	1	9	0.051941	-31.4959	14.3679	-23.0999
 625	1	9	0.087961	-32.6942	8.8291	-20.5232
 626	1	9	0.066782	-33.7286	10.2159	-20.8615
 627	1	9	0.075908	-32.9304	10.0785	-19.2938
 628	1	9	0.105172	-27.1699	10.7942	-20.8718
 629	1	9	0.115625	-27.3395	10.7674	-22.6394
 630	1	9	0.140296	-27.707	9.34188	-21.7166
 631	1	1	0.486064	-15.269	27.1741	-14.207
 632	1	2	0.047133	-15.7952	27.1755	-15.5004
 633	1	3	0.001076	-16.9481	28.1142	-15.4478
 634	1	2	0.034038	-15.9641	28.0137	-13.3395