pySIMM System Object

636 atoms
695 bonds
1220 angles
1836 dihedrals
192 impropers

9 atom types
11 bond types
18 angle types
7 dihedral types
4 improper types

-109.738632 109.738632 xlo xhi
-109.738632 109.738632 ylo yhi
-109.738632 109.738632 zlo zhi

Masses

   1	14.01	# n
   2	12.01	# c
   3	12.01	# ca
   4	1.008	# hn
   5	16.0	# o
   6	1.008	# ha
   7	12.01	# c3
   8	19.0	# f
   9	1.008	# hc

Pair Coeffs

   1	0.17	3.249998523775958	# n
   2	0.086	3.3996695084235347	# c
   3	0.086	3.3996695084235347	# ca
   4	0.0157	1.069078461768407	# hn
   5	0.21	2.959921901149463	# o
   6	0.015	2.59964245953351	# ha
   7	0.1094	3.3996695084235347	# c3
   8	0.061	3.1181455134911875	# f
   9	0.0157	2.649532787749369	# hc

Bond Coeffs

   1	345.8	1.086	# ca,ha
   2	637.7	1.2183	# c,o
   3	321.0	1.5156	# c3,ca
   4	300.9	1.5375	# c3,c3
   5	384.2	1.4121	# ca,n
   6	330.6	1.0969	# c3,hc
   7	403.2	1.0129	# hn,n
   8	356.9	1.3497	# c3,f
   9	461.1	1.3984	# ca,ca
  10	427.6	1.3789	# c,n
  11	345.9	1.4906	# c,ca

Angle Coeffs

   1	66.11	109.24	# c3,c3,f
   2	46.8	110.47	# ca,c3,hc
   3	39.4	107.58	# hc,c3,hc
   4	63.82	123.71	# c,n,ca
   5	66.62	120.02	# ca,ca,ca
   6	63.53	120.77	# c3,ca,ca
   7	62.86	111.51	# c3,c3,c3
   8	63.74	127.08	# c,n,c
   9	48.33	117.55	# c,n,hn
  10	64.28	120.33	# c,ca,ca
  11	48.18	119.88	# ca,ca,ha
  12	68.72	122.6	# ca,c,o
  13	63.15	112.07	# c3,c3,ca
  14	70.89	107.36	# f,c3,f
  15	67.87	120.19	# ca,ca,n
  16	63.56	112.24	# ca,c3,ca
  17	67.68	115.25	# ca,c,n
  18	74.22	123.05	# n,c,o

Dihedral Coeffs

   1	2	2.5	2	180	2.0	1	0	# hn,n,c,o
   2	1	3.625	2	180	# X,ca,ca,X
   3	1	0.15555555555555556	3	0	# X,c3,c3,X
   4	1	0.0	2	0	# X,c3,ca,X
   5	1	1.0	2	180	# X,c,ca,X
   6	1	2.5	2	180	# X,c,n,X
   7	1	0.45	2	180	# X,ca,n,X

Improper Coeffs

   1	1.1	-1	2	# n,X,X,hn
   2	1.1	-1	2	# ca,X,X,ha
   3	10.5	-1	2	# c,X,X,o
   4	1.1	-1	2	# ca,ca,ca,c3

Atoms

   1	1	1	0.486064	0.0679421	4.88988	5.1762
   2	1	2	0.047133	0.596457	5.03608	6.46823
   3	1	3	0.001076	2.08641	4.95769	6.31159
   4	1	2	0.034038	1.08808	4.72527	4.26634
   5	1	3	0.050122	2.3817	4.79917	5.00432
   6	1	5	-0.383076	-0.00558681	5.04634	7.53518
   7	1	5	-0.380811	0.984326	4.51359	3.07733
   8	1	3	-0.001248	3.03964	5.15732	7.31069
   9	1	3	-0.036565	3.70788	4.82621	4.60039
  10	1	3	-0.208842	4.74227	4.97384	5.58991
  11	1	3	-0.065319	4.41463	5.23047	6.95895
  12	1	6	0.153391	2.67531	5.41628	8.29823
  13	1	6	0.155343	3.95856	4.74328	3.57774
  14	1	6	0.174191	5.75967	5.05414	5.22689
  15	1	7	-0.106637	5.48351	5.61915	8.03562
  16	1	7	0.445763	6.09388	6.99695	7.64975
  17	1	8	-0.144255	5.08681	7.83376	7.39205
  18	1	8	-0.136881	6.81481	6.84723	6.53103
  19	1	8	-0.144092	6.91935	7.70953	8.50986
  20	1	7	0.367264	5.02921	5.69815	9.55245
  21	1	8	-0.12104	4.58855	4.47498	9.96918
  22	1	8	-0.122614	4.1085	6.64922	9.91476
  23	1	8	-0.112321	6.07772	5.96438	10.3246
  24	1	3	-0.021957	6.55184	4.49741	7.92773
  25	1	3	-0.054241	6.13341	3.16129	7.8978
  26	1	3	-0.111709	7.06858	2.14529	8.15284
  27	1	3	-0.087244	7.95919	4.7834	8.13571
  28	1	3	-0.118951	8.90067	3.74915	8.38749
  29	1	3	-0.044875	8.40528	2.42743	8.35469
  30	1	2	0.461883	9.15078	1.18666	8.60754
  31	1	1	-0.007433	8.21055	0.1843	8.39708
  32	1	2	0.491356	6.92251	0.676188	8.23751
  33	1	3	-0.019445	8.52071	-1.12088	7.98712
  34	1	3	-0.186861	8.69227	-1.33459	6.61504
  35	1	3	-0.068374	8.81652	-2.64423	6.09878
  36	1	3	-0.009193	8.37634	-2.21469	8.84551
  37	1	3	0.220761	8.48427	-3.50757	8.29272
  38	1	3	-0.402098	8.84187	-3.73982	6.95631
  39	1	6	0.148422	8.76391	-0.478435	5.94091
  40	1	6	0.146291	8.96714	-2.83067	5.02718
  41	1	6	0.158981	9.96364	3.9494	8.56162
  42	1	6	0.141813	8.31047	5.80349	8.21249
  43	1	6	0.143633	5.08176	2.91596	7.76362
  44	1	5	-0.474465	5.92081	0.0489769	7.91416
  45	1	5	-0.469737	10.3687	1.17352	8.75222
  46	1	7	-0.37887	8.16176	-2.08333	10.3584
  47	1	9	0.115886	8.54909	-1.16765	10.8283
  48	1	9	0.123845	8.6619	-2.86961	10.9153
  49	1	9	0.138418	7.08696	-2.04767	10.5992
  50	1	6	0.21348	8.90977	-4.78666	6.60937
  51	1	3	-0.004194	-8.36722	11.0159	4.44768
  52	1	3	-0.097141	-8.0354	12.2983	3.89407
  53	1	3	-0.172015	-8.5183	13.5024	4.53175
  54	1	5	-0.377994	-9.85629	8.61719	5.90756
  55	1	3	0.033493	-9.20527	10.9833	5.54234
  56	1	3	-0.063739	-9.32052	13.453	5.66901
  57	1	5	-0.398381	-11.5556	12.5442	7.58179
  58	1	3	0.032144	-9.71593	12.1672	6.13839
  59	1	2	0.032313	-9.93881	9.82027	6.12216
  60	1	1	0.461698	-10.9355	10.3916	6.89775
  61	1	2	0.091945	-10.8784	11.7684	6.95767
  62	1	3	-0.10563	-5.22798	9.66758	0.748569
  63	1	7	-0.099376	-7.40895	12.3731	2.45571
  64	1	3	-0.043296	-6.30449	11.2749	2.27898
  65	1	3	-0.073043	-6.01797	10.7974	0.98568
  66	1	3	-0.117827	-4.72733	8.95837	1.84167
  67	1	3	-0.037562	-5.56161	10.6964	3.32896
  68	1	3	-0.083705	-4.87696	9.46608	3.09486
  69	1	7	0.396	-6.74024	13.775	2.11046
  70	1	7	0.310495	-8.66508	12.1873	1.49189
  71	1	8	-0.130298	-7.61913	14.7764	1.90199
  72	1	8	-0.128745	-5.99292	13.6765	0.984559
  73	1	8	-0.120019	-5.95455	14.1412	3.17531
  74	1	8	-0.104287	-9.67706	13.0024	1.88339
  75	1	8	-0.095507	-9.11337	10.8949	1.51131
  76	1	8	-0.104872	-8.56371	12.4037	0.169283
  77	1	2	0.456145	-4.25469	8.48532	4.06403
  78	1	2	0.550902	-4.01699	7.64921	1.91316
  79	1	1	0.015704	-3.80886	7.38056	3.27527
  80	1	5	-0.456801	-4.35202	8.63846	5.27306
  81	1	5	-0.487703	-3.93717	6.92438	0.917282
  82	1	3	-0.116566	-3.23707	6.13636	3.79134
  83	1	3	-0.050109	-1.88076	6.13138	4.22757
  84	1	3	0.154929	-1.32073	4.96912	4.806
  85	1	3	0.041555	-4.01633	4.91675	3.94347
  86	1	3	-0.223109	-3.45169	3.8162	4.61631
  87	1	3	-0.080449	-2.13789	3.87139	5.13283
  88	1	7	-0.108008	-5.44933	4.83899	3.40147
  89	1	7	-0.182228	-1.56823	2.65282	5.87969
  90	1	7	-0.345523	-1.07877	7.42107	4.26781
  91	1	6	0.155183	-8.10533	10.0706	3.95105
  92	1	6	0.172904	-8.32276	14.457	4.05234
  93	1	6	0.158028	-9.77021	14.3715	6.02747
  94	1	6	0.153129	-5.13366	9.27148	-0.258527
  95	1	6	0.142914	-6.4489	11.2719	0.0988693
  96	1	6	0.135531	-5.67876	11.0598	4.33122
  97	1	6	0.17765	-4.0904	2.95105	4.8026
  98	1	9	0.046541	-5.87044	3.85584	3.57557
  99	1	9	0.045238	-5.38625	4.99047	2.31262
 100	1	9	0.051941	-6.13288	5.59603	3.82708
 101	1	9	0.087961	-2.04031	1.73831	5.52028
 102	1	9	0.066782	-1.83292	2.70092	6.94541
 103	1	9	0.075908	-0.46866	2.50603	5.74544
 104	1	9	0.105172	-1.46706	8.06998	5.08764
 105	1	9	0.115625	-1.20299	7.96863	3.36346
 106	1	9	0.140296	-0.00589459	7.30515	4.40575
 107	1	1	0.486064	-13.1906	1.99212	17.596
 108	1	2	0.047133	-12.8964	3.31765	17.2207
 109	1	3	0.001076	-14.2128	3.95635	16.8277
 110	1	2	0.034038	-14.5842	1.71347	17.4842
 111	1	3	0.050122	-15.1712	2.99152	16.9745
 112	1	5	-0.383076	-11.7972	3.83702	17.2703
 113	1	5	-0.380811	-15.1699	0.688443	17.7991
 114	1	3	-0.001248	-14.5543	5.2694	16.4395
 115	1	3	-0.036565	-16.4766	3.28786	16.7094
 116	1	3	-0.208842	-16.841	4.55459	16.243
 117	1	3	-0.065319	-15.8798	5.60559	16.1259
 118	1	6	0.153391	-13.7698	6.04133	16.4474
 119	1	6	0.155343	-17.2443	2.5773	16.9547
 120	1	6	0.174191	-17.9123	4.69782	16.1384
 121	1	7	-0.106637	-16.3466	7.06088	15.9849
 122	1	7	0.445763	-17.8094	7.19017	15.3183
 123	1	8	-0.144255	-17.9381	6.6267	14.0566
 124	1	8	-0.136881	-18.2614	8.43302	15.2798
 125	1	8	-0.144092	-18.8424	6.67162	16.1048
 126	1	7	0.367264	-16.3378	7.66091	17.5134
 127	1	8	-0.12104	-17.0703	8.77959	17.5453
 128	1	8	-0.122614	-15.1094	7.96642	17.9437
 129	1	8	-0.112321	-16.8521	6.86166	18.4931
 130	1	3	-0.021957	-15.3822	7.80263	14.9928
 131	1	3	-0.054241	-14.9571	7.16156	13.7552
 132	1	3	-0.111709	-14.3907	7.9122	12.6796
 133	1	3	-0.087244	-14.9755	9.18879	15.1727
 134	1	3	-0.118951	-14.3801	9.89267	14.0963
 135	1	3	-0.044875	-14.1124	9.24604	12.8549
 136	1	2	0.461883	-13.599	9.78743	11.5184
 137	1	1	-0.007433	-13.6274	8.69445	10.6475
 138	1	2	0.491356	-14.1573	7.51371	11.2105
 139	1	3	-0.019445	-13.4412	8.91105	9.26466
 140	1	3	-0.186861	-14.4896	8.61739	8.35055
 141	1	3	-0.068374	-14.4007	8.88123	6.97578
 142	1	3	-0.009193	-12.2324	9.26428	8.69521
 143	1	3	0.220761	-12.1064	9.66284	7.3122
 144	1	3	-0.402098	-13.2244	9.46673	6.45086
 145	1	6	0.148422	-15.4759	8.30246	8.74894
 146	1	6	0.146291	-15.1963	8.68293	6.25025
 147	1	6	0.158981	-14.1283	10.9431	14.2216
 148	1	6	0.141813	-15.1983	9.69328	16.122
 149	1	6	0.143633	-15.3432	6.16372	13.5398
 150	1	5	-0.474465	-14.6976	6.57878	10.5999
 151	1	5	-0.469737	-13.2794	10.9159	11.2542
 152	1	7	-0.37887	-10.9526	9.17298	9.51596
 153	1	9	0.115886	-10.9568	8.37773	10.2653
 154	1	9	0.123845	-10.7975	10.1192	10.0392
 155	1	9	0.138418	-10.0361	8.89241	8.95706
 156	1	6	0.21348	-13.2202	9.75497	5.39275
 157	1	1	0.486064	-11.6305	-11.7645	12.8742
 158	1	2	0.047133	-10.3025	-11.4827	13.1822
 159	1	3	0.001076	-10.2124	-10.0354	13.3858
 160	1	2	0.034038	-12.3765	-10.6213	13.0029
 161	1	3	0.050122	-11.4699	-9.51588	13.2284
 162	1	5	-0.383076	-9.44542	-12.2609	13.5723
 163	1	5	-0.380811	-13.585	-10.5344	12.9439
 164	1	3	-0.001248	-9.08352	-9.26059	13.7112
 165	1	3	-0.036565	-11.717	-8.13836	13.2384
 166	1	3	-0.208842	-10.5966	-7.30254	13.5701
 167	1	3	-0.065319	-9.31656	-7.87763	13.9391
 168	1	6	0.153391	-8.14921	-9.76746	13.7904
 169	1	6	0.155343	-12.712	-7.83048	12.9177
 170	1	6	0.174191	-10.7423	-6.20717	13.5259
 171	1	7	-0.106637	-8.23347	-6.91308	14.5079
 172	1	7	0.445763	-7.64063	-6.25128	13.2088
 173	1	8	-0.144255	-8.51565	-5.3955	12.6008
 174	1	8	-0.136881	-7.44047	-7.16985	12.2288
 175	1	8	-0.144092	-6.46478	-5.60687	13.3097
 176	1	7	0.367264	-7.17056	-7.65925	15.3535
 177	1	8	-0.12104	-6.29319	-8.322	14.5874
 178	1	8	-0.122614	-7.79071	-8.64016	16.0365
 179	1	8	-0.112321	-6.45158	-6.81688	16.1369
 180	1	3	-0.021957	-8.96981	-5.94542	15.5026
 181	1	3	-0.054241	-8.84073	-4.54254	15.5154
 182	1	3	-0.111709	-9.53445	-3.77963	16.4977
 183	1	3	-0.087244	-9.82172	-6.51052	16.4958
 184	1	3	-0.118951	-10.313	-5.77506	17.5863
 185	1	3	-0.044875	-10.2045	-4.36295	17.5368
 186	1	2	0.461883	-10.7009	-3.28155	18.4413
 187	1	1	-0.007433	-10.2945	-2.10432	17.82
 188	1	2	0.491356	-9.5612	-2.31546	16.6857
 189	1	3	-0.019445	-10.7357	-0.83664	18.3301
 190	1	3	-0.186861	-10.4146	-0.51241	19.6834
 191	1	3	-0.068374	-10.8526	0.699293	20.2147
 192	1	3	-0.009193	-11.6972	0.00892784	17.6821
 193	1	3	0.220761	-12.1649	1.25278	18.2211
 194	1	3	-0.402098	-11.7145	1.58157	19.5214
 195	1	6	0.148422	-9.83984	-1.21345	20.3171
 196	1	6	0.146291	-10.6477	0.935037	21.2703
 197	1	6	0.158981	-10.8818	-6.28827	18.3184
 198	1	6	0.141813	-10.0492	-7.56328	16.4385
 199	1	6	0.143633	-8.23115	-4.04575	14.7689
 200	1	5	-0.474465	-9.18182	-1.56523	15.8364
 201	1	5	-0.469737	-11.2843	-3.41823	19.5036
 202	1	7	-0.37887	-12.1442	-0.315598	16.282
 203	1	9	0.115886	-13.2326	-0.279196	16.2168
 204	1	9	0.123845	-11.844	-1.33779	15.9509
 205	1	9	0.138418	-11.7541	0.371705	15.5106
 206	1	6	0.21348	-12.1169	2.40452	20.0961
 207	1	3	-0.004194	-9.32764	-12.6926	2.28977
 208	1	3	-0.097141	-9.67806	-13.1807	3.63549
 209	1	3	-0.172015	-10.206	-12.1969	4.52942
 210	1	5	-0.377994	-8.61775	-11.1507	-0.379588
 211	1	3	0.033493	-9.4691	-11.3427	1.90193
 212	1	3	-0.063739	-10.0742	-10.823	4.22583
 213	1	5	-0.398381	-10.0727	-8.00703	2.69817
 214	1	3	0.032144	-9.78438	-10.3893	2.88232
 215	1	2	0.032313	-9.17518	-10.659	0.618686
 216	1	1	0.461698	-9.44747	-9.31739	0.819202
 217	1	2	0.091945	-9.7828	-9.06664	2.1844
 218	1	3	-0.10563	-8.27759	-14.8524	7.74288
 219	1	7	-0.099376	-9.63633	-14.722	3.98216
 220	1	3	-0.043296	-9.52606	-14.8722	5.52815
 221	1	3	-0.073043	-8.31166	-14.6358	6.33465
 222	1	3	-0.117827	-9.36936	-15.3688	8.41375
 223	1	3	-0.037562	-10.5749	-15.4554	6.25792
 224	1	3	-0.083705	-10.4833	-15.6374	7.64373
 225	1	7	0.396	-8.3233	-15.4309	3.42233
 226	1	7	0.310495	-10.8861	-15.4036	3.23733
 227	1	8	-0.130298	-7.15171	-14.8126	3.54995
 228	1	8	-0.128745	-8.32553	-15.718	2.10166
 229	1	8	-0.120019	-8.19173	-16.6071	4.01845
 230	1	8	-0.104287	-10.7079	-16.7383	3.44033
 231	1	8	-0.095507	-10.9068	-15.1285	1.91078
 232	1	8	-0.104872	-12.1459	-14.93	3.72179
 233	1	2	0.456145	-11.5872	-15.7429	8.60093
 234	1	2	0.550902	-9.66279	-15.3524	9.86319
 235	1	1	0.015704	-11.0438	-15.3875	9.84504
 236	1	5	-0.456801	-12.7455	-15.964	8.29276
 237	1	5	-0.487703	-8.84685	-15.0095	10.7124
 238	1	3	-0.116566	-11.7616	-14.9371	10.9336
 239	1	3	-0.050109	-11.6663	-13.5652	11.2332
 240	1	3	0.154929	-12.015	-13.0725	12.5267
 241	1	3	0.041555	-12.3288	-15.8182	11.8397
 242	1	3	-0.223109	-12.7318	-15.2947	13.0974
 243	1	3	-0.080449	-12.5488	-13.9399	13.4946
 244	1	7	-0.108008	-12.5165	-17.3328	11.5718
 245	1	7	-0.182228	-12.985	-13.497	14.8631
 246	1	7	-0.345523	-11.054	-12.5417	10.2221
 247	1	6	0.155183	-9.03031	-13.4028	1.55412
 248	1	6	0.172904	-10.5748	-12.4302	5.5221
 249	1	6	0.158028	-10.2205	-10.08	4.99598
 250	1	6	0.153129	-7.37995	-14.6781	8.31055
 251	1	6	0.142914	-7.46493	-14.1557	5.93326
 252	1	6	0.135531	-11.5146	-15.611	5.74971
 253	1	6	0.17765	-13.2162	-15.9727	13.7835
 254	1	9	0.046541	-11.5522	-17.7939	11.3198
 255	1	9	0.045238	-13.2276	-17.4929	10.8041
 256	1	9	0.051941	-12.8148	-17.9226	12.4154
 257	1	9	0.087961	-12.2172	-13.8908	15.5433
 258	1	9	0.066782	-13.9031	-13.9685	15.1358
 259	1	9	0.075908	-13.0815	-12.4135	14.948
 260	1	9	0.105172	-11.0238	-12.9675	9.19404
 261	1	9	0.115625	-10.0347	-12.3048	10.477
 262	1	9	0.140296	-11.6341	-11.5837	10.0263
 263	1	1	0.486064	2.36504	-3.17234	-7.09834
 264	1	2	0.047133	1.32648	-2.28844	-7.36001
 265	1	3	0.001076	0.282375	-2.63526	-6.35777
 266	1	2	0.034038	2.19328	-3.99336	-6.02164
 267	1	3	0.050122	0.827818	-3.62406	-5.54935
 268	1	5	-0.383076	1.26741	-1.52678	-8.30664
 269	1	5	-0.380811	2.94442	-4.87146	-5.64786
 270	1	3	-0.001248	-1.06756	-2.2309	-6.22627
 271	1	3	-0.036565	0.155743	-4.15138	-4.4438
 272	1	3	-0.208842	-1.17112	-3.67138	-4.27174
 273	1	3	-0.065319	-1.84289	-2.82876	-5.20481
 274	1	6	0.153391	-1.42937	-1.49592	-6.92778
 275	1	6	0.155343	0.622402	-4.81335	-3.68241
 276	1	6	0.174191	-1.70118	-4.01887	-3.37994
 277	1	7	-0.106637	-3.34822	-2.33714	-4.94808
 278	1	7	0.445763	-4.0264	-1.46241	-6.09979
 279	1	8	-0.144255	-3.84897	-2.07569	-7.32149
 280	1	8	-0.136881	-3.49928	-0.243668	-6.31423
 281	1	8	-0.144092	-5.38425	-1.24344	-5.91473
 282	1	7	0.367264	-3.15389	-1.47267	-3.64832
 283	1	8	-0.12104	-4.04739	-0.469284	-3.43829
 284	1	8	-0.122614	-1.98236	-0.774929	-3.71009
 285	1	8	-0.112321	-3.12746	-2.13598	-2.49277
 286	1	3	-0.021957	-4.24366	-3.56389	-4.81333
 287	1	3	-0.054241	-5.28908	-3.50679	-3.85214
 288	1	3	-0.111709	-6.09335	-4.66906	-3.72069
 289	1	3	-0.087244	-4.20384	-4.66816	-5.74639
 290	1	3	-0.118951	-5.01011	-5.80393	-5.55781
 291	1	3	-0.044875	-5.94016	-5.83376	-4.48809
 292	1	2	0.461883	-6.84671	-6.87222	-3.85997
 293	1	1	-0.007433	-7.47212	-6.25107	-2.74951
 294	1	2	0.491356	-7.03233	-4.93848	-2.59121
 295	1	3	-0.019445	-8.57538	-6.85641	-2.06228
 296	1	3	-0.186861	-9.85032	-6.36389	-2.3371
 297	1	3	-0.068374	-10.9425	-6.83625	-1.56276
 298	1	3	-0.009193	-8.43597	-7.72238	-0.922799
 299	1	3	0.220761	-9.52129	-8.25547	-0.161977
 300	1	3	-0.402098	-10.7646	-7.71911	-0.446346
 301	1	6	0.148422	-10.0055	-5.58969	-3.0822
 302	1	6	0.146291	-11.9815	-6.49706	-1.74468
 303	1	6	0.158981	-4.96296	-6.63119	-6.24113
 304	1	6	0.141813	-3.54414	-4.61897	-6.59146
 305	1	6	0.143633	-5.57008	-2.63657	-3.26889
 306	1	5	-0.474465	-7.22158	-4.19878	-1.65759
 307	1	5	-0.469737	-6.9855	-8.03986	-4.2636
 308	1	7	-0.37887	-7.00927	-8.03405	-0.369835
 309	1	9	0.115886	-6.10243	-7.75505	-0.956055
 310	1	9	0.123845	-6.79989	-9.13457	-0.344371
 311	1	9	0.138418	-6.94023	-7.66008	0.668418
 312	1	6	0.21348	-11.6632	-8.00162	0.100685
 313	1	3	-0.004194	11.6748	-9.03055	-15.0729
 314	1	3	-0.097141	10.9666	-8.30903	-14.0491
 315	1	3	-0.172015	11.6324	-8.14102	-12.7783
 316	1	5	-0.377994	13.9949	-10.1548	-17.0025
 317	1	3	0.033493	12.9758	-9.54568	-14.8046
 318	1	3	-0.063739	12.8979	-8.71574	-12.5159
 319	1	5	-0.398381	15.6548	-10.0515	-12.7921
 320	1	3	0.032144	13.5518	-9.38719	-13.5579
 321	1	2	0.032313	13.9515	-10.1962	-15.7584
 322	1	1	0.461698	15.0112	-10.6006	-14.9892
 323	1	2	0.091945	14.8577	-10.0322	-13.6871
 324	1	3	-0.10563	7.81068	-8.28207	-10.9059
 325	1	7	-0.099376	9.57593	-7.56475	-14.3374
 326	1	3	-0.043296	8.66738	-7.36657	-13.0229
 327	1	3	-0.073043	8.56039	-8.40643	-12.0494
 328	1	3	-0.117827	7.02633	-7.11637	-10.7504
 329	1	3	-0.037562	7.87004	-6.2196	-12.7463
 330	1	3	-0.083705	6.95979	-6.16045	-11.7405
 331	1	7	0.396	9.9475	-6.12695	-14.8762
 332	1	7	0.310495	8.67656	-8.43084	-15.3806
 333	1	8	-0.130298	8.89137	-5.44967	-15.3966
 334	1	8	-0.128745	10.9123	-6.07359	-15.8494
 335	1	8	-0.120019	10.4104	-5.31254	-13.8625
 336	1	8	-0.104287	7.41583	-7.9566	-15.4659
 337	1	8	-0.095507	9.15472	-8.4066	-16.6408
 338	1	8	-0.104872	8.56079	-9.74919	-14.9833
 339	1	2	0.456145	6.06409	-5.00995	-11.4047
 340	1	2	0.550902	6.16547	-6.54926	-9.66917
 341	1	1	0.015704	5.72175	-5.27862	-10.092
 342	1	5	-0.456801	5.89665	-4.04164	-12.1455
 343	1	5	-0.487703	6.0159	-7.12523	-8.57568
 344	1	3	-0.116566	5.31786	-4.23922	-9.1464
 345	1	3	-0.050109	3.9902	-4.15308	-8.68593
 346	1	3	0.154929	3.59937	-3.13393	-7.78058
 347	1	3	0.041555	6.25579	-3.25605	-8.76283
 348	1	3	-0.223109	5.78672	-2.24052	-7.91439
 349	1	3	-0.080449	4.47952	-2.09039	-7.47007
 350	1	7	-0.108008	7.76253	-3.20666	-9.22262
 351	1	7	-0.182228	4.14203	-0.855775	-6.63318
 352	1	7	-0.345523	2.96427	-5.20988	-9.21139
 353	1	6	0.155183	11.2878	-9.04837	-16.0832
 354	1	6	0.172904	11.0869	-7.58861	-12.0251
 355	1	6	0.158028	13.358	-8.62028	-11.5446
 356	1	6	0.153129	7.82494	-9.05885	-10.1459
 357	1	6	0.142914	9.07146	-9.37157	-12.2244
 358	1	6	0.135531	7.86024	-5.38231	-13.3642
 359	1	6	0.17765	6.4665	-1.46629	-7.52393
 360	1	9	0.046541	8.13577	-4.23254	-9.33752
 361	1	9	0.045238	8.41666	-2.7226	-8.48629
 362	1	9	0.051941	7.82636	-2.71917	-10.2169
 363	1	9	0.087961	3.21328	-0.343943	-6.97969
 364	1	9	0.066782	4.99049	-0.136383	-6.69749
 365	1	9	0.075908	3.96842	-1.26746	-5.5967
 366	1	9	0.105172	2.91952	-5.92345	-8.35609
 367	1	9	0.115625	3.27163	-5.79375	-10.0835
 368	1	9	0.140296	1.93728	-4.82831	-9.4049
 369	1	1	0.486064	23.335	-14.2148	-16.1877
 370	1	2	0.047133	22.4255	-13.949	-17.231
 371	1	3	0.001076	22.6533	-15.097	-18.2372
 372	1	2	0.034038	24.192	-15.3143	-16.5421
 373	1	3	0.050122	23.7057	-15.8616	-17.8292
 374	1	5	-0.383076	21.4821	-13.1628	-17.312
 375	1	5	-0.380811	25.2057	-15.6672	-15.9452
 376	1	3	-0.001248	21.8813	-15.4002	-19.3823
 377	1	3	-0.036565	23.9768	-17.0853	-18.4373
 378	1	3	-0.208842	23.0891	-17.5165	-19.4842
 379	1	3	-0.065319	22.0173	-16.6993	-19.9306
 380	1	6	0.153391	21.036	-14.7864	-19.5939
 381	1	6	0.155343	24.7439	-17.7306	-18.032
 382	1	6	0.174191	23.241	-18.4925	-19.9659
 383	1	7	-0.106637	21.0857	-17.2474	-21.0263
 384	1	7	0.445763	20.9307	-18.8108	-21.1798
 385	1	8	-0.144255	19.9141	-19.1011	-22.0162
 386	1	8	-0.136881	20.8023	-19.4129	-19.964
 387	1	8	-0.144092	22.055	-19.3328	-21.7311
 388	1	7	0.367264	21.7585	-16.6768	-22.3114
 389	1	8	-0.12104	21.3614	-17.2761	-23.4231
 390	1	8	-0.122614	23.0795	-16.9693	-22.4179
 391	1	8	-0.112321	21.6823	-15.2972	-22.409
 392	1	3	-0.021957	19.6853	-16.6715	-20.7222
 393	1	3	-0.054241	19.2017	-16.6734	-19.3885
 394	1	3	-0.111709	18.0797	-15.9129	-18.9597
 395	1	3	-0.087244	18.9345	-16.0063	-21.6976
 396	1	3	-0.118951	17.8839	-15.1155	-21.3078
 397	1	3	-0.044875	17.4942	-15.0889	-19.9421
 398	1	2	0.461883	16.6864	-14.0539	-19.2314
 399	1	1	-0.007433	16.8889	-14.3164	-17.9132
 400	1	2	0.491356	17.6193	-15.4771	-17.6059
 401	1	3	-0.019445	16.9389	-13.2644	-16.9255
 402	1	3	-0.186861	18.217	-12.7795	-16.6828
 403	1	3	-0.068374	18.4605	-11.7928	-15.7851
 404	1	3	-0.009193	15.8362	-12.6486	-16.2499
 405	1	3	0.220761	16.0275	-11.4596	-15.4862
 406	1	3	-0.402098	17.3728	-11.1207	-15.2383
 407	1	6	0.148422	19.0955	-13.1314	-17.189
 408	1	6	0.146291	19.4854	-11.4053	-15.6467
 409	1	6	0.158981	17.4223	-14.3355	-21.9834
 410	1	6	0.141813	19.305	-15.9514	-22.7036
 411	1	6	0.143633	19.7509	-17.1714	-18.5791
 412	1	5	-0.474465	18.0919	-15.7848	-16.4976
 413	1	5	-0.469737	16.2715	-13.0613	-19.8071
 414	1	7	-0.37887	14.4267	-13.2288	-16.603
 415	1	9	0.115886	14.5253	-14.3287	-16.6145
 416	1	9	0.123845	14.0503	-12.9916	-17.6308
 417	1	9	0.138418	13.6213	-12.9404	-15.9116
 418	1	6	0.21348	17.5855	-10.1902	-14.7228
 419	1	3	-0.004194	16.4355	-13.0798	-6.51346
 420	1	3	-0.097141	16.9977	-14.1787	-7.23953
 421	1	3	-0.172015	16.4682	-14.4428	-8.53539
 422	1	5	-0.377994	14.5881	-10.8242	-5.36941
 423	1	3	0.033493	15.3773	-12.3536	-7.10165
 424	1	3	-0.063739	15.319	-13.8103	-9.04167
 425	1	5	-0.398381	12.7907	-11.9752	-9.48024
 426	1	3	0.032144	14.8049	-12.7528	-8.30302
 427	1	2	0.032313	14.5055	-11.3404	-6.47584
 428	1	1	0.461698	13.4679	-11.3017	-7.32702
 429	1	2	0.091945	13.5851	-11.9934	-8.53003
 430	1	3	-0.10563	21.8699	-15.3875	-8.26382
 431	1	7	-0.099376	18.2994	-14.9726	-6.75573
 432	1	3	-0.043296	19.493	-14.7702	-7.75124
 433	1	3	-0.073043	20.6805	-15.4964	-7.49847
 434	1	3	-0.117827	21.9045	-14.5225	-9.32676
 435	1	3	-0.037562	19.579	-13.9266	-8.8722
 436	1	3	-0.083705	20.7469	-13.8247	-9.66863
 437	1	7	0.396	17.8512	-16.4643	-6.54047
 438	1	7	0.310495	18.7523	-14.4981	-5.29316
 439	1	8	-0.130298	16.6935	-16.432	-5.85495
 440	1	8	-0.128745	18.6259	-17.1983	-5.75678
 441	1	8	-0.120019	17.6779	-17.1909	-7.60383
 442	1	8	-0.104287	19.1823	-13.2184	-5.29155
 443	1	8	-0.095507	19.8013	-15.2097	-4.84425
 444	1	8	-0.104872	17.7932	-14.5098	-4.36246
 445	1	2	0.456145	21.0087	-13.0988	-10.9246
 446	1	2	0.550902	22.9665	-14.3086	-10.4042
 447	1	1	0.015704	22.3153	-13.4577	-11.3016
 448	1	5	-0.456801	20.1401	-12.5785	-11.5988
 449	1	5	-0.487703	24.0802	-14.8392	-10.5603
 450	1	3	-0.116566	22.8389	-13.0578	-12.6229
 451	1	3	-0.050109	22.8277	-13.922	-13.7637
 452	1	3	0.154929	23.3952	-13.484	-14.9712
 453	1	3	0.041555	23.5703	-11.8548	-12.6604
 454	1	3	-0.223109	24.3421	-11.6168	-13.7813
 455	1	3	-0.080449	24.2201	-12.3248	-14.9726
 456	1	7	-0.108008	23.721	-10.9784	-11.4216
 457	1	7	-0.182228	25.0961	-11.9421	-16.1642
 458	1	7	-0.345523	22.24	-15.295	-13.6118
 459	1	6	0.155183	16.828	-12.675	-5.5954
 460	1	6	0.172904	16.9053	-15.2994	-9.11211
 461	1	6	0.158028	14.8104	-14.0493	-9.98909
 462	1	6	0.153129	22.7442	-15.9661	-7.93405
 463	1	6	0.142914	20.6236	-16.3303	-6.80759
 464	1	6	0.135531	18.7454	-13.2822	-9.11659
 465	1	6	0.17765	25.0628	-10.8003	-13.743
 466	1	9	0.046541	22.7227	-10.8121	-11.0125
 467	1	9	0.045238	24.1645	-10.0018	-11.6256
 468	1	9	0.051941	24.3749	-11.4437	-10.7101
 469	1	9	0.087961	24.494	-11.7883	-17.0871
 470	1	9	0.066782	25.798	-12.7881	-16.4042
 471	1	9	0.075908	25.6665	-11.0287	-16.0777
 472	1	9	0.105172	22.3686	-15.6977	-12.5885
 473	1	9	0.115625	22.7316	-16.0532	-14.2289
 474	1	9	0.140296	21.1325	-15.3372	-13.8589
 475	1	3	-0.004194	9.69297	0.0683448	-3.18195
 476	1	3	-0.097141	10.1975	-1.27707	-3.12768
 477	1	3	-0.172015	9.23244	-2.30234	-2.94518
 478	1	5	-0.377994	8.02881	2.68744	-3.20122
 479	1	3	0.033493	8.32164	0.297152	-3.1542
 480	1	3	-0.063739	7.84905	-2.01166	-3.01279
 481	1	5	-0.398381	5.03331	-0.812458	-3.44726
 482	1	3	0.032144	7.44359	-0.736443	-3.28024
 483	1	2	0.032313	7.56781	1.58062	-3.12593
 484	1	1	0.461698	6.24201	1.21469	-3.12456
 485	1	2	0.091945	6.09241	-0.160734	-3.3513
 486	1	3	-0.10563	10.7712	-3.592	-6.5414
 487	1	7	-0.099376	11.708	-1.60517	-3.37785
 488	1	3	-0.043296	11.6431	-2.76184	-4.38662
 489	1	3	-0.073043	10.8993	-2.59107	-5.56379
 490	1	3	-0.117827	11.1208	-4.89994	-6.15249
 491	1	3	-0.037562	12.1697	-4.08376	-4.20054
 492	1	3	-0.083705	11.786	-5.15513	-4.99773
 493	1	7	0.396	12.3191	-2.00991	-2.02336
 494	1	7	0.310495	12.4961	-0.406857	-3.99694
 495	1	8	-0.130298	13.5552	-2.55813	-2.15506
 496	1	8	-0.128745	11.5586	-2.90918	-1.39241
 497	1	8	-0.120019	12.385	-0.931437	-1.19508
 498	1	8	-0.104287	13.7569	-0.775136	-4.48925
 499	1	8	-0.095507	12.7569	0.644103	-3.13906
 500	1	8	-0.104872	11.8577	0.142831	-5.00992
 501	1	2	0.456145	12.125	-6.57653	-5.00565
 502	1	2	0.550902	10.6863	-6.1683	-6.80149
 503	1	1	0.015704	11.4286	-7.09838	-6.08622
 504	1	5	-0.456801	12.731	-7.23471	-4.19799
 505	1	5	-0.487703	9.91646	-6.40891	-7.71662
 506	1	3	-0.116566	11.2695	-8.49559	-6.2726
 507	1	3	-0.050109	12.3172	-9.17173	-6.99269
 508	1	3	0.154929	12.3286	-10.56	-6.93504
 509	1	3	0.041555	10.2057	-9.17278	-5.68362
 510	1	3	-0.223109	10.1923	-10.5698	-5.95294
 511	1	3	-0.080449	11.1802	-11.3207	-6.6214
 512	1	7	-0.108008	9.2164	-8.56434	-4.71566
 513	1	7	-0.182228	10.96	-12.8123	-6.66946
 514	1	7	-0.345523	13.5248	-8.41816	-7.61901
 515	1	6	0.155183	10.3477	0.939948	-3.37095
 516	1	6	0.172904	9.51656	-3.30122	-2.81874
 517	1	6	0.158028	7.13086	-2.7741	-2.79716
 518	1	6	0.153129	10.2275	-3.46717	-7.46718
 519	1	6	0.142914	10.4717	-1.62528	-5.81218
 520	1	6	0.135531	12.805	-4.26197	-3.37005
 521	1	6	0.17765	9.28929	-11.087	-5.6226
 522	1	9	0.046541	8.23943	-9.0582	-4.85437
 523	1	9	0.045238	8.93154	-7.50853	-4.94578
 524	1	9	0.051941	9.42301	-8.69618	-3.64373
 525	1	9	0.087961	10.254	-13.147	-5.89358
 526	1	9	0.066782	11.9249	-13.2968	-6.64632
 527	1	9	0.075908	10.4505	-13.1272	-7.59488
 528	1	9	0.105172	13.991	-7.83506	-6.84807
 529	1	9	0.115625	13.2787	-7.8339	-8.5217
 530	1	9	0.140296	14.3585	-9.06296	-7.84039
 531	1	3	-0.004194	-0.701953	8.17665	-8.51192
 532	1	3	-0.097141	0.472281	7.72894	-9.095
 533	1	3	-0.172015	0.331698	6.67117	-10.0319
 534	1	5	-0.377994	-3.45896	8.89856	-7.49504
 535	1	3	0.033493	-1.90844	7.63077	-8.78932
 536	1	3	-0.063739	-0.929988	6.11172	-10.294
 537	1	5	-0.398381	-3.98428	5.43733	-10.5636
 538	1	3	0.032144	-2.07205	6.59289	-9.66775
 539	1	2	0.032313	-3.21789	7.98306	-8.25205
 540	1	1	0.461698	-4.14527	7.17887	-8.95737
 541	1	2	0.091945	-3.50989	6.2229	-9.7607
 542	1	3	-0.10563	4.1476	8.71726	-5.71898
 543	1	7	-0.099376	1.82403	8.57876	-8.88311
 544	1	3	-0.043296	2.42414	8.26932	-7.47614
 545	1	3	-0.073043	3.29288	9.18325	-6.74719
 546	1	3	-0.117827	3.84962	7.41957	-5.21105
 547	1	3	-0.037562	2.31234	6.926	-7.0305
 548	1	3	-0.083705	2.93018	6.60062	-5.82255
 549	1	7	0.396	1.43343	10.1147	-9.10433
 550	1	7	0.310495	2.99501	8.11675	-9.91455
 551	1	8	-0.130298	2.50754	10.9389	-9.21056
 552	1	8	-0.128745	0.700702	10.59	-8.09259
 553	1	8	-0.120019	0.660491	10.3154	-10.244
 554	1	8	-0.104287	4.21154	8.8302	-9.8943
 555	1	8	-0.095507	2.55895	8.21231	-11.2105
 556	1	8	-0.104872	3.29343	6.81866	-9.69322
 557	1	2	0.456145	2.89465	5.29127	-5.11293
 558	1	2	0.550902	4.4163	6.64975	-4.04381
 559	1	1	0.015704	3.85931	5.35441	-4.12656
 560	1	5	-0.456801	2.19437	4.31239	-5.45871
 561	1	5	-0.487703	5.34612	7.01355	-3.31951
 562	1	3	-0.116566	4.13037	4.22186	-3.30487
 563	1	3	-0.050109	4.99791	3.20482	-3.73137
 564	1	3	0.154929	5.18526	2.09734	-2.8269
 565	1	3	0.041555	3.35285	4.10634	-2.13573
 566	1	3	-0.223109	3.60136	3.06319	-1.24031
 567	1	3	-0.080449	4.60164	2.09984	-1.52331
 568	1	7	-0.108008	2.14921	5.06404	-1.74047
 569	1	7	-0.182228	5.08053	1.04142	-0.503207
 570	1	7	-0.345523	5.72331	3.36301	-5.13623
 571	1	6	0.155183	-0.702127	8.98246	-7.78788
 572	1	6	0.172904	1.23701	6.19243	-10.4832
 573	1	6	0.158028	-1.05891	5.27237	-10.9697
 574	1	6	0.153129	4.96045	9.30508	-5.32645
 575	1	6	0.142914	3.37757	10.1723	-7.21211
 576	1	6	0.135531	1.70472	6.19015	-7.54129
 577	1	6	0.17765	3.07826	3.0815	-0.311206
 578	1	9	0.046541	2.48407	5.84503	-1.1126
 579	1	9	0.045238	1.47182	4.48311	-1.15869
 580	1	9	0.051941	1.67876	5.56015	-2.60055
 581	1	9	0.087961	4.65578	0.0694503	-0.658378
 582	1	9	0.066782	4.74207	1.37203	0.50178
 583	1	9	0.075908	6.18792	0.999887	-0.497167
 584	1	9	0.105172	6.20679	2.46104	-5.5245
 585	1	9	0.115625	6.44929	4.24034	-5.14219
 586	1	9	0.140296	4.93339	3.47184	-5.95692
 587	1	1	0.486064	-7.19523	17.7963	-4.48551
 588	1	2	0.047133	-8.25267	17.3846	-5.2741
 589	1	3	0.001076	-8.84828	16.1813	-4.63986
 590	1	2	0.034038	-7.03363	16.9613	-3.37622
 591	1	3	0.050122	-8.14546	16.0003	-3.45357
 592	1	5	-0.383076	-8.64332	17.8652	-6.31627
 593	1	5	-0.380811	-6.22043	16.952	-2.458
 594	1	3	-0.001248	-9.93873	15.3747	-4.94952
 595	1	3	-0.036565	-8.41403	14.9058	-2.6068
 596	1	3	-0.208842	-9.5327	14.079	-2.89893
 597	1	3	-0.065319	-10.3614	14.4071	-4.01454
 598	1	6	0.153391	-10.5094	15.5796	-5.85255
 599	1	6	0.155343	-7.86081	14.736	-1.68728
 600	1	6	0.174191	-9.71796	13.2505	-2.19422
 601	1	7	-0.106637	-11.5565	13.4048	-4.33906
 602	1	7	0.445763	-12.5562	13.5109	-3.15617
 603	1	8	-0.144255	-13.7824	13.046	-3.38968
 604	1	8	-0.136881	-12.8212	14.8394	-2.81636
 605	1	8	-0.144092	-12.0603	12.9053	-2.04939
 606	1	7	0.367264	-12.3248	13.6454	-5.68654
 607	1	8	-0.12104	-13.3736	12.8358	-5.89002
 608	1	8	-0.122614	-11.5865	13.5188	-6.80165
 609	1	8	-0.112321	-12.9489	14.8029	-5.67528
 610	1	3	-0.021957	-11.0593	11.9486	-4.50507
 611	1	3	-0.054241	-9.80732	11.7001	-5.06974
 612	1	3	-0.111709	-9.43659	10.4059	-5.53989
 613	1	3	-0.087244	-11.9793	10.8262	-4.50269
 614	1	3	-0.118951	-11.5935	9.529	-5.07546
 615	1	3	-0.044875	-10.3203	9.37768	-5.63906
 616	1	2	0.461883	-9.68364	8.2797	-6.38207
 617	1	1	-0.007433	-8.46996	8.82114	-6.77818
 618	1	2	0.491356	-8.20174	10.0782	-6.22841
 619	1	3	-0.019445	-7.68738	8.32052	-7.9449
 620	1	3	-0.186861	-8.23885	8.41587	-9.23447
 621	1	3	-0.068374	-7.52693	7.9317	-10.3048
 622	1	3	-0.009193	-6.32622	7.85208	-7.82602
 623	1	3	0.220761	-5.54891	7.47878	-8.96763
 624	1	3	-0.402098	-6.197	7.41198	-10.2191
 625	1	6	0.148422	-9.20226	8.89733	-9.37492
 626	1	6	0.146291	-8.01792	8.00394	-11.2705
 627	1	6	0.158981	-12.3908	8.80201	-5.20221
 628	1	6	0.141813	-13.0283	10.9787	-4.14243
 629	1	6	0.143633	-9.0939	12.4773	-5.24726
 630	1	5	-0.474465	-7.23883	10.7907	-6.47517
 631	1	5	-0.469737	-10.1358	7.1782	-6.67306
 632	1	7	-0.37887	-5.75598	7.71931	-6.37082
 633	1	9	0.115886	-4.80155	7.14513	-6.36984
 634	1	9	0.123845	-6.49143	7.24009	-5.69389
 635	1	9	0.138418	-5.52167	8.69137	-5.9435
 636	1	6	0.21348	-5.79918	7.09458	-11.2009

Velocities

   1	0.00143749	0.00500535	0.00319233
   2	-0.00209528	-0.00183229	0.00538075
   3	-0.001121	3.34007e-05	0.00421522