pySIMM System Object

886 atoms
970 bonds
1700 angles
2576 dihedrals
272 impropers

9 atom types
11 bond types
18 angle types
7 dihedral types
4 improper types

-125.384314 125.384314 xlo xhi
-125.384314 125.384314 ylo yhi
-125.384314 125.384314 zlo zhi

Masses

   1	12.01	# ca
   2	16.0	# o
   3	12.01	# c
   4	14.01	# n
   5	12.01	# c3
   6	19.0	# f
   7	1.008	# ha
   8	1.008	# hn
   9	1.008	# hc

Pair Coeffs

   1	0.086	3.3996695084235347	# ca
   2	0.21	2.959921901149463	# o
   3	0.086	3.3996695084235347	# c
   4	0.17	3.249998523775958	# n
   5	0.1094	3.3996695084235347	# c3
   6	0.061	3.1181455134911875	# f
   7	0.015	2.59964245953351	# ha
   8	0.0157	1.069078461768407	# hn
   9	0.0157	2.649532787749369	# hc

Bond Coeffs

   1	403.2	1.0129	# hn,n
   2	427.6	1.3789	# c,n
   3	461.1	1.3984	# ca,ca
   4	637.7	1.2183	# c,o
   5	300.9	1.5375	# c3,c3
   6	345.8	1.086	# ca,ha
   7	356.9	1.3497	# c3,f
   8	345.9	1.4906	# c,ca
   9	384.2	1.4121	# ca,n
  10	321.0	1.5156	# c3,ca
  11	330.6	1.0969	# c3,hc

Angle Coeffs

   1	66.11	109.24	# c3,c3,f
   2	46.8	110.47	# ca,c3,hc
   3	74.22	123.05	# n,c,o
   4	63.56	112.24	# ca,c3,ca
   5	70.89	107.36	# f,c3,f
   6	66.62	120.02	# ca,ca,ca
   7	62.86	111.51	# c3,c3,c3
   8	63.53	120.77	# c3,ca,ca
   9	63.15	112.07	# c3,c3,ca
  10	68.72	122.6	# ca,c,o
  11	63.82	123.71	# c,n,ca
  12	67.68	115.25	# ca,c,n
  13	48.33	117.55	# c,n,hn
  14	67.87	120.19	# ca,ca,n
  15	48.18	119.88	# ca,ca,ha
  16	64.28	120.33	# c,ca,ca
  17	63.74	127.08	# c,n,c
  18	39.4	107.58	# hc,c3,hc

Dihedral Coeffs

   1	1	2.5	2	180	# X,c,n,X
   2	1	0.45	2	180	# X,ca,n,X
   3	1	1.0	2	180	# X,c,ca,X
   4	2	2.5	2	180	2.0	1	0	# hn,n,c,o
   5	1	3.625	2	180	# X,ca,ca,X
   6	1	0.15555555555555556	3	0	# X,c3,c3,X
   7	1	0.0	2	0	# X,c3,ca,X

Improper Coeffs

   1	1.1	-1	2	# n,X,X,hn
   2	10.5	-1	2	# c,X,X,o
   3	1.1	-1	2	# ca,ca,ca,c3
   4	1.1	-1	2	# ca,X,X,ha

Atoms

   1	1	1	-0.004194	37.3641	26.464	10.7145
   2	1	1	-0.097141	37.5594	27.8676	10.627
   3	1	1	-0.172015	38.7399	28.3264	9.97442
   4	1	2	-0.377994	37.5615	23.3466	10.5407
   5	1	1	0.033493	38.3332	25.6092	10.137
   6	1	1	-0.063739	39.7014	27.4536	9.41424
   7	1	2	-0.398381	41.3756	24.9482	8.52277
   8	1	1	0.032144	39.4709	26.0835	9.52996
   9	1	3	0.032313	38.3597	24.1265	10.059
  10	1	4	0.461698	39.5229	23.8092	9.37521
  11	1	3	0.091945	40.2556	24.9288	9.00357
  12	1	1	-0.10563	38.7699	31.1812	12.9924
  13	1	5	-0.099376	36.452	28.8986	11.0215
  14	1	1	-0.043296	37.1415	30.1758	11.4668
  15	1	1	-0.073043	38.0684	30.0625	12.5204
  16	1	1	-0.117827	38.4535	32.4363	12.4524
  17	1	1	-0.037562	36.8882	31.4367	10.9027
  18	1	1	-0.083705	37.5567	32.5318	11.4223
  19	1	5	0.396	35.555	28.4891	12.258
  20	1	5	0.310495	35.5746	29.0743	9.71621
  21	1	6	-0.130298	34.5847	27.6711	11.8792
  22	1	6	-0.128745	34.964	29.5403	12.8956
  23	1	6	-0.120019	36.2298	27.7924	13.1954
  24	1	6	-0.104287	36.3511	29.5889	8.7449
  25	1	6	-0.095507	35.141	27.912	9.19157
  26	1	6	-0.104872	34.4862	29.8596	9.90789
  27	1	3	0.456145	37.6247	33.8834	10.8409
  28	1	3	0.550902	39.097	33.7595	12.6368
  29	1	4	0.015704	38.5887	34.526	11.5853
  30	1	2	-0.456801	37.0678	34.2776	9.82448
  31	1	2	-0.487703	40.0697	34.0132	13.3353
  32	1	1	-0.116566	39.1511	35.7581	11.1727
  33	1	1	-0.050109	38.4133	36.9688	11.1582
  34	1	1	0.154929	39.0321	38.1903	10.8448
  35	1	1	0.041555	40.5069	35.8039	10.7597
  36	1	1	-0.223109	41.1014	37.035	10.4124
  37	1	1	-0.080449	40.3814	38.2319	10.4404
  38	1	5	-0.108008	41.3462	34.5521	10.4762
  39	1	5	-0.182228	41.0562	39.5403	10.0547
  40	1	5	-0.345523	36.9109	36.9821	11.3685
  41	1	7	0.155183	36.459	26.0349	11.1527
  42	1	7	0.172904	38.8872	29.3855	9.8016
  43	1	7	0.158028	40.5869	27.8254	8.88507
  44	1	7	0.153129	39.5118	31.0664	13.7866
  45	1	7	0.142914	38.284	29.0865	12.9367
  46	1	7	0.135531	36.2077	31.6012	10.0749
  47	1	7	0.17765	42.1179	37.04	10.0345
  48	1	9	0.046541	42.3928	34.6852	10.7722
  49	1	9	0.045238	41.3265	34.3469	9.39819
  50	1	9	0.051941	40.9864	33.6348	10.9505
  51	1	9	0.087961	41.6482	39.9389	10.8982
  52	1	9	0.066782	40.3363	40.2998	9.7571
  53	1	9	0.075908	41.7453	39.3898	9.2095
  54	1	9	0.105172	36.5493	38.0146	11.4969
  55	1	9	0.115625	36.6237	36.3964	12.2563
  56	1	9	0.140296	36.3783	36.5732	10.4992
  57	1	4	0.486064	39.8484	23.086	-2.7287
  58	1	3	0.047133	39.9895	23.0546	-1.34862
  59	1	1	0.001076	41.2833	22.378	-1.11084
  60	1	3	0.034038	40.8973	22.4709	-3.37887
  61	1	1	0.050122	41.8018	21.9803	-2.3262
  62	1	2	-0.383076	39.2635	23.5469	-0.503991
  63	1	2	-0.380811	41.1198	22.3954	-4.56646
  64	1	1	-0.001248	42.0286	22.2321	0.0598431
  65	1	1	-0.036565	43.017	21.3174	-2.42653
  66	1	1	-0.208842	43.75	21.0996	-1.25526
  67	1	1	-0.065319	43.2782	21.5597	-0.00200958
  68	1	7	0.153391	41.6437	22.6216	0.999713
  69	1	7	0.155343	43.3971	21.0218	-3.4029
  70	1	7	0.174191	44.6967	20.5848	-1.34905
  71	1	5	-0.106637	44.1389	21.4328	1.29273
  72	1	5	0.445763	44.7076	22.8768	1.54621
  73	1	6	-0.144255	45.6433	22.93	2.51743
  74	1	6	-0.136881	43.7628	23.8182	1.8287
  75	1	6	-0.144092	45.3115	23.3504	0.432582
  76	1	5	0.367264	45.3629	20.444	1.22533
  77	1	6	-0.12104	44.9901	19.2111	0.803749
  78	1	6	-0.122614	45.928	20.2392	2.44363
  79	1	6	-0.112321	46.3634	20.8716	0.416276
  80	1	1	-0.021957	43.2621	20.863	2.43923
  81	1	1	-0.054241	43.4568	21.2452	3.78901
  82	1	1	-0.111709	42.6662	20.6645	4.76726
  83	1	1	-0.087244	42.3018	19.845	2.16899
  84	1	1	-0.118951	41.4401	19.314	3.15972
  85	1	1	-0.044875	41.6684	19.7479	4.48348
  86	1	3	0.461883	40.9325	19.475	5.76295
  87	1	4	-0.007433	41.5298	20.3245	6.69558
  88	1	3	0.491356	42.6525	20.995	6.20402
  89	1	1	-0.019445	40.9306	20.6992	7.91468
  90	1	1	-0.186861	41.1257	19.9019	9.03689
  91	1	1	-0.068374	40.6812	20.3588	10.2802
  92	1	1	-0.009193	40.2786	21.9394	8.00201
  93	1	1	0.220761	40.0292	22.4851	9.27561
  94	1	1	-0.402098	40.2241	21.6776	10.4232
  95	1	7	0.148422	41.5833	18.9183	8.9238
  96	1	7	0.146291	40.7743	19.7239	11.1563
  97	1	7	0.158981	40.6605	18.5859	2.91355
  98	1	7	0.141813	42.2012	19.4843	1.14784
  99	1	7	0.143633	44.1836	21.9894	4.09419
 100	1	2	-0.474465	43.3306	21.8848	6.70799
 101	1	2	-0.469737	39.8537	18.8949	5.82978
 102	1	5	-0.37887	39.7559	22.6346	6.73159
 103	1	9	0.115886	38.6893	22.8751	6.82954
 104	1	9	0.123845	39.8464	22.043	5.82452
 105	1	9	0.138418	40.2784	23.5667	6.54057
 106	1	7	0.21348	39.9374	22.0451	11.4107
 107	1	1	-0.004194	29.7671	21.6504	-3.8041
 108	1	1	-0.097141	28.9195	22.669	-4.34019
 109	1	1	-0.172015	27.6807	22.9123	-3.65124
 110	1	2	-0.377994	31.4059	19.8088	-1.86155
 111	1	1	0.033493	29.4252	21.0118	-2.59924
 112	1	1	-0.063739	27.3093	22.1742	-2.49831
 113	1	2	-0.398381	27.2978	20.6529	0.128734
 114	1	1	0.032144	28.2151	21.2407	-1.99805
 115	1	3	0.032313	30.2611	20.1987	-1.66013
 116	1	4	0.461698	29.5065	20.1371	-0.486858
 117	1	3	0.091945	28.231	20.6325	-0.653002
 118	1	1	-0.10563	32.7722	22.2669	-7.14735
 119	1	5	-0.099376	29.3563	23.4602	-5.62282
 120	1	1	-0.043296	30.8975	23.2303	-5.83984
 121	1	1	-0.073043	31.3937	22.5593	-6.99335
 122	1	1	-0.117827	33.6827	22.7107	-6.17787
 123	1	1	-0.037562	31.8662	23.6916	-4.88108
 124	1	1	-0.083705	33.2244	23.4104	-5.08
 125	1	5	0.396	28.4001	22.9848	-6.79232
 126	1	5	0.310495	29.1974	25.0085	-5.46685
 127	1	6	-0.130298	27.0847	23.2118	-6.52969
 128	1	6	-0.128745	28.4816	21.6514	-7.04614
 129	1	6	-0.120019	28.6708	23.6823	-7.92184
 130	1	6	-0.104287	28.0039	25.5616	-5.75428
 131	1	6	-0.095507	30.0171	25.6166	-6.34639
 132	1	6	-0.104872	29.5008	25.4253	-4.21402
 133	1	3	0.456145	34.4124	23.8172	-4.28734
 134	1	3	0.550902	35.1841	22.7286	-6.1697
 135	1	4	0.015704	35.5259	23.4478	-5.0247
 136	1	2	-0.456801	34.3722	24.533	-3.2989
 137	1	2	-0.487703	35.9498	22.3601	-7.05176
 138	1	1	-0.116566	36.8207	23.9143	-4.72095
 139	1	1	-0.050109	37.7213	23.1457	-3.96681
 140	1	1	0.154929	38.876	23.7888	-3.45816
 141	1	1	0.041555	37.1779	25.2022	-5.15502
 142	1	1	-0.223109	38.3497	25.7847	-4.6968
 143	1	1	-0.080449	39.1412	25.1385	-3.74341
 144	1	5	-0.108008	36.2491	26.038	-6.00498
 145	1	5	-0.182228	40.315	25.8969	-3.15229
 146	1	5	-0.345523	37.4644	21.66	-3.72231
 147	1	7	0.155183	30.7303	21.3912	-4.23676
 148	1	7	0.172904	26.9819	23.6657	-4.01823
 149	1	7	0.158028	26.3809	22.3677	-1.96379
 150	1	7	0.153129	33.1302	21.7321	-8.02176
 151	1	7	0.142914	30.7163	22.2395	-7.78118
 152	1	7	0.135531	31.583	24.2582	-3.99682
 153	1	7	0.17765	38.5799	26.7988	-5.01514
 154	1	9	0.046541	35.4965	26.5177	-5.37802
 155	1	9	0.045238	35.7245	25.4295	-6.74613
 156	1	9	0.051941	36.7722	26.8297	-6.54298
 157	1	9	0.087961	40.3957	25.795	-2.05877
 158	1	9	0.066782	40.2247	26.9695	-3.39231
 159	1	9	0.075908	41.2732	25.5495	-3.57884
 160	1	9	0.105172	37.949	21.2817	-2.81402
 161	1	9	0.115625	37.8215	21.0595	-4.56708
 162	1	9	0.140296	36.3987	21.421	-3.60421
 163	1	4	0.486064	23.5455	21.1452	8.13099
 164	1	3	0.047133	24.7614	20.6004	7.74255
 165	1	1	0.001076	25.653	20.7223	8.91083
 166	1	3	0.034038	23.5103	21.5368	9.46562
 167	1	1	0.050122	24.8996	21.2487	9.93789
 168	1	2	-0.383076	25.0897	20.1604	6.6606
 169	1	2	-0.380811	22.6356	22.1547	10.0674
 170	1	1	-0.001248	27.0495	20.6457	8.97641
 171	1	1	-0.036565	25.5226	21.6565	11.1156
 172	1	1	-0.208842	26.9327	21.6362	11.1799
 173	1	1	-0.065319	27.7313	21.123	10.1228
 174	1	7	0.153391	27.5827	20.2946	8.09877
 175	1	7	0.155343	24.9403	22.119	11.915
 176	1	7	0.174191	27.3697	22.0512	12.0799
 177	1	5	-0.106637	29.2894	21.1838	10.0903
 178	1	5	0.445763	29.7614	19.699	10.2876
 179	1	6	-0.144255	31.1038	19.6096	10.2727
 180	1	6	-0.136881	29.2714	18.8918	9.30744
 181	1	6	-0.144092	29.3687	19.1878	11.4869
 182	1	5	0.367264	29.8764	22.0544	11.2489
 183	1	6	-0.12104	29.5858	21.5825	12.4846
 184	1	6	-0.122614	29.4554	23.3524	11.204
 185	1	6	-0.112321	31.215	22.0542	11.1945
 186	1	1	-0.021957	29.707	21.794	8.69708
 187	1	1	-0.054241	30.6496	21.1496	7.84855
 188	1	1	-0.111709	30.6986	21.4312	6.48275
 189	1	1	-0.087244	28.9488	22.8665	8.12229
 190	1	1	-0.118951	28.9105	23.0741	6.71322
 191	1	1	-0.044875	29.7421	22.2485	5.92084
 192	1	3	0.461883	29.5859	21.8085	4.51215
 193	1	4	-0.007433	30.5396	20.8071	4.28247
 194	1	3	0.491356	31.2841	20.5495	5.42572
 195	1	1	-0.019445	30.5036	19.9596	3.1006
 196	1	1	-0.186861	30.4893	18.5394	3.24094
 197	1	1	-0.068374	30.1321	17.7032	2.16541
 198	1	1	-0.009193	30.335	20.5201	1.79759
 199	1	1	0.220761	29.936	19.6417	0.75385
 200	1	1	-0.402098	29.8281	18.2608	0.933386
 201	1	7	0.148422	30.664	18.0833	4.19259
 202	1	7	0.146291	30.0744	16.6175	2.30568
 203	1	7	0.158981	28.1676	23.7196	6.24402
 204	1	7	0.141813	28.2303	23.3965	8.7409
 205	1	7	0.143633	31.2596	20.3176	8.16322
 206	1	2	-0.474465	32.1268	19.6844	5.59274
 207	1	2	-0.469737	28.6006	22.0396	3.84002
 208	1	5	-0.37887	30.6682	22.0099	1.4927
 209	1	9	0.115886	31.4278	22.4034	2.18105
 210	1	9	0.123845	29.7815	22.6468	1.58685
 211	1	9	0.138418	31.0596	22.154	0.478212
 212	1	7	0.21348	29.5088	17.6194	0.108991
 213	1	4	0.486064	12.9403	23.6344	3.65178
 214	1	3	0.047133	12.8179	22.7113	2.60937
 215	1	1	0.001076	13.2153	21.4179	3.22937
 216	1	3	0.034038	13.1912	23.0748	4.89282
 217	1	1	0.050122	13.3403	21.6363	4.60218
 218	1	2	-0.383076	12.6049	22.923	1.42636
 219	1	2	-0.380811	13.302	23.6518	5.97164
 220	1	1	-0.001248	13.3686	20.1318	2.70292
 221	1	1	-0.036565	13.4911	20.6073	5.51532
 222	1	1	-0.208842	13.6291	19.3215	4.98531
 223	1	1	-0.065319	13.7332	19.0734	3.587
 224	1	7	0.153391	13.22	19.9814	1.63961
 225	1	7	0.155343	13.5398	20.8064	6.57878
 226	1	7	0.174191	13.8542	18.5356	5.6951
 227	1	5	-0.106637	14.4249	17.7361	3.11109
 228	1	5	0.445763	13.5305	16.4825	3.47934
 229	1	6	-0.144255	13.8519	15.3563	2.76835
 230	1	6	-0.136881	12.1993	16.6984	3.26834
 231	1	6	-0.144092	13.6872	16.2211	4.80341
 232	1	5	0.367264	14.662	17.7548	1.56919
 233	1	6	-0.12104	13.5151	17.62	0.90437
 234	1	6	-0.122614	15.4212	16.7653	1.07471
 235	1	6	-0.112321	15.2395	18.8985	1.18113
 236	1	1	-0.021957	15.8119	17.6664	3.80108
 237	1	1	-0.054241	16.3549	18.8356	4.40173
 238	1	1	-0.111709	17.567	18.7607	5.04755
 239	1	1	-0.087244	16.647	16.5099	3.69262
 240	1	1	-0.118951	17.9652	16.5293	4.17725
 241	1	1	-0.044875	18.3911	17.6586	4.9091
 242	1	3	0.461883	19.7725	18.0772	5.36248
 243	1	4	-0.007433	19.6382	19.4345	5.68921
 244	1	3	0.491356	18.329	19.8689	5.61192
 245	1	1	-0.019445	20.6725	20.3729	5.92045
 246	1	1	-0.186861	20.8713	21.3701	4.93513
 247	1	1	-0.068374	21.8949	22.313	5.09344
 248	1	1	-0.009193	21.4565	20.325	7.09638
 249	1	1	0.220761	22.5149	21.2625	7.19219
 250	1	1	-0.402098	22.7193	22.2464	6.21698
 251	1	7	0.148422	20.2294	21.3966	4.05273
 252	1	7	0.146291	22.1096	23.0397	4.304
 253	1	7	0.158981	18.618	15.677	3.99224
 254	1	7	0.141813	16.2973	15.6155	3.17823
 255	1	7	0.143633	15.8988	19.8284	4.35999
 256	1	2	-0.474465	17.8926	20.9856	5.81917
 257	1	2	-0.469737	20.7819	17.392	5.28459
 258	1	5	-0.37887	21.2149	19.2939	8.2217
 259	1	9	0.115886	21.3156	18.2602	7.85518
 260	1	9	0.123845	20.2058	19.4096	8.6347
 261	1	9	0.138418	21.8974	19.4121	9.06916
 262	1	7	0.21348	23.5812	22.8961	6.2803
 263	1	4	0.486064	-1.65777	24.6687	5.81429
 264	1	3	0.047133	-0.511526	24.1812	5.1883
 265	1	1	0.001076	0.558835	25.1011	5.58594
 266	1	3	0.034038	-1.44987	25.9252	6.39477
 267	1	1	0.050122	0.0111911	26.1582	6.2586
 268	1	2	-0.383076	-0.361584	23.2624	4.39708
 269	1	2	-0.380811	-2.22451	26.6029	7.05488
 270	1	1	-0.001248	1.90682	24.805	5.61221
 271	1	1	-0.036565	0.882079	27.0686	6.88862
 272	1	1	-0.208842	2.28425	26.8807	6.7715
 273	1	1	-0.065319	2.83394	25.7236	6.16508
 274	1	7	0.153391	2.16664	23.8266	5.22111
 275	1	7	0.155343	0.507638	27.9077	7.48095
 276	1	7	0.174191	2.94512	27.5913	7.26001
 277	1	5	-0.106637	4.32257	25.352	6.39855
 278	1	5	0.445763	4.65545	23.9435	5.71117
 279	1	6	-0.144255	4.21711	23.8389	4.42028
 280	1	6	-0.136881	4.08962	22.9107	6.39899
 281	1	6	-0.144092	5.99512	23.7249	5.60192
 282	1	5	0.367264	4.42695	25.212	7.97191
 283	1	6	-0.12104	4.6376	26.3995	8.56341
 284	1	6	-0.122614	5.4019	24.3369	8.31662
 285	1	6	-0.112321	3.32902	24.6921	8.56387
 286	1	1	-0.021957	5.32555	26.3972	5.77689
 287	1	1	-0.054241	6.69218	26.4071	6.19281
 288	1	1	-0.111709	7.68497	26.9141	5.33204
 289	1	1	-0.087244	5.0434	27.0064	4.53331
 290	1	1	-0.118951	6.05732	27.5511	3.69902
 291	1	1	-0.044875	7.3926	27.4251	4.1006
 292	1	3	0.461883	8.63727	27.5689	3.29799
 293	1	4	-0.007433	9.62564	27.117	4.11926
 294	1	3	0.491356	9.16531	26.8432	5.39378
 295	1	1	-0.019445	10.9045	26.739	3.69281
 296	1	1	-0.186861	11.8732	27.6987	3.35431
 297	1	1	-0.068374	13.1975	27.3034	3.11178
 298	1	1	-0.009193	11.2161	25.3654	3.68541
 299	1	1	0.220761	12.5664	24.9931	3.48714
 300	1	1	-0.402098	13.5603	25.9537	3.17618
 301	1	7	0.148422	11.6401	28.7695	3.39539
 302	1	7	0.146291	13.9412	28.0706	2.90818
 303	1	7	0.158981	5.83117	27.9017	2.69746
 304	1	7	0.141813	4.03143	26.909	4.12458
 305	1	7	0.143633	7.03969	25.9111	7.0951
 306	1	2	-0.474465	9.88115	26.5835	6.35741
 307	1	2	-0.469737	8.72661	27.7373	2.08572
 308	1	5	-0.37887	10.1137	24.3248	4.08319
 309	1	9	0.115886	9.09493	24.6257	3.80128
 310	1	9	0.123845	10.1065	24.1429	5.16872
 311	1	9	0.138418	10.2363	23.3432	3.60836
 312	1	7	0.21348	14.5812	25.6553	2.99556
 313	1	4	0.486064	-10.6094	13.8267	12.3543
 314	1	3	0.047133	-9.38935	13.9243	13.0615
 315	1	1	0.001076	-8.576	14.9545	12.3619
 316	1	3	0.034038	-10.6149	14.6678	11.2241
 317	1	1	0.050122	-9.29549	15.3987	11.2598
 318	1	2	-0.383076	-9.04164	13.2895	14.0582
 319	1	2	-0.380811	-11.4605	14.7851	10.3673
 320	1	1	-0.001248	-7.35776	15.5354	12.758
 321	1	1	-0.036565	-8.77388	16.4385	10.4771
 322	1	1	-0.208842	-7.54856	17.0116	10.8457
 323	1	1	-0.065319	-6.84751	16.6158	12.0255
 324	1	7	0.153391	-6.87559	15.1527	13.653
 325	1	7	0.155343	-9.33155	16.8201	9.62724
 326	1	7	0.174191	-7.18917	17.8042	10.1761
 327	1	5	-0.106637	-5.47183	17.1946	12.4352
 328	1	5	0.445763	-4.37028	16.217	11.8941
 329	1	6	-0.144255	-4.40813	16.082	10.5349
 330	1	6	-0.136881	-4.52517	14.9969	12.4687
 331	1	6	-0.144092	-3.1406	16.694	12.2119
 332	1	5	0.367264	-5.30072	17.3694	14.0391
 333	1	6	-0.12104	-5.01004	16.2551	14.7621
 334	1	6	-0.122614	-6.36634	17.9678	14.6105
 335	1	6	-0.112321	-4.21562	18.1077	14.3433
 336	1	1	-0.021957	-5.48478	18.6376	11.8621
 337	1	1	-0.054241	-4.45178	19.0924	11.0177
 338	1	1	-0.111709	-4.58693	20.3215	10.3917
 339	1	1	-0.087244	-6.59223	19.5365	12.1274
 340	1	1	-0.118951	-6.66702	20.7991	11.4939
 341	1	1	-0.044875	-5.64541	21.1591	10.6335
 342	1	3	0.461883	-5.52056	22.3098	9.70372
 343	1	4	-0.007433	-4.46574	22.0131	8.8783
 344	1	3	0.491356	-3.7811	20.9005	9.27924
 345	1	1	-0.019445	-4.23909	22.6852	7.64785
 346	1	1	-0.186861	-5.20103	22.5894	6.63274
 347	1	1	-0.068374	-4.99411	23.0787	5.31827
 348	1	1	-0.009193	-3.04684	23.3732	7.3906
 349	1	1	0.220761	-2.82922	23.898	6.07064
 350	1	1	-0.402098	-3.75836	23.6866	5.02766
 351	1	7	0.148422	-6.13297	22.0704	6.84374
 352	1	7	0.146291	-5.73874	22.9288	4.52996
 353	1	7	0.158981	-7.54228	21.4483	11.6005
 354	1	7	0.141813	-7.37608	19.248	12.8224
 355	1	7	0.143633	-3.57862	18.4778	10.7829
 356	1	2	-0.474465	-2.91657	20.3718	8.61629
 357	1	2	-0.469737	-6.35263	23.1623	9.50098
 358	1	5	-0.37887	-1.99209	23.5084	8.53554
 359	1	9	0.115886	-2.50208	23.7558	9.49187
 360	1	9	0.123845	-1.24026	24.2915	8.39366
 361	1	9	0.138418	-1.45944	22.5723	8.71262
 362	1	7	0.21348	-3.53542	24.0718	4.03206
 363	1	1	-0.004194	-16.8981	7.70834	6.00564
 364	1	1	-0.097141	-18.0128	8.08115	6.80452
 365	1	1	-0.172015	-19.0651	8.72205	6.1201
 366	1	2	-0.377994	-14.6763	7.50464	3.84047
 367	1	1	0.033493	-16.8987	8.02802	4.62258
 368	1	1	-0.063739	-19.0229	9.08757	4.75076
 369	1	2	-0.398381	-18.2682	9.72131	1.84896
 370	1	1	0.032144	-17.9222	8.7175	4.01544
 371	1	3	0.032313	-15.7986	7.92394	3.61737
 372	1	4	0.461698	-16.2648	8.5088	2.4491
 373	1	3	0.091945	-17.5813	9.04672	2.59906
 374	1	1	-0.10563	-15.3031	6.92271	10.7513
 375	1	5	-0.099376	-18.1524	7.72836	8.31908
 376	1	1	-0.043296	-16.7871	7.77755	8.99761
 377	1	1	-0.073043	-16.3769	6.75599	9.88791
 378	1	1	-0.117827	-14.6779	8.18501	10.8044
 379	1	1	-0.037562	-16.0272	8.97804	8.97134
 380	1	1	-0.083705	-15.0337	9.18701	9.92574
 381	1	5	0.396	-18.8791	6.29824	8.31937
 382	1	5	0.310495	-19.0656	8.75629	9.13984
 383	1	6	-0.130298	-18.0526	5.33915	7.87293
 384	1	6	-0.128745	-19.9027	6.29432	7.41147
 385	1	6	-0.120019	-19.3946	5.91322	9.54073
 386	1	6	-0.104287	-18.8513	9.97974	8.70608
 387	1	6	-0.095507	-18.747	8.77128	10.4639
 388	1	6	-0.104872	-20.388	8.56667	9.0725
 389	1	3	0.456145	-14.5562	10.5152	10.4889
 390	1	3	0.550902	-13.8077	8.77375	11.854
 391	1	4	0.015704	-13.8219	10.1428	11.6323
 392	1	2	-0.456801	-14.5972	11.6108	9.96472
 393	1	2	-0.487703	-13.381	8.18589	12.8371
 394	1	1	-0.116566	-13.2787	11.119	12.5111
 395	1	1	-0.050109	-12.1285	11.8448	12.1272
 396	1	1	0.154929	-11.7079	13.0152	12.8198
 397	1	1	0.041555	-13.9889	11.5336	13.6732
 398	1	1	-0.223109	-13.4857	12.6066	14.4147
 399	1	1	-0.080449	-12.3535	13.3354	14.0206
 400	1	5	-0.108008	-15.1137	10.79	14.3379
 401	1	5	-0.182228	-11.9192	14.5014	14.9355
 402	1	5	-0.345523	-11.2969	11.3137	10.9547
 403	1	7	0.155183	-16.0123	7.21875	6.39964
 404	1	7	0.172904	-19.9724	8.99711	6.65525
 405	1	7	0.158028	-19.8508	9.58746	4.27291
 406	1	7	0.153129	-15.0612	6.15036	11.4669
 407	1	7	0.142914	-16.9283	5.82549	10.0039
 408	1	7	0.135531	-16.3175	9.81361	8.33875
 409	1	7	0.17765	-14.0259	12.8661	15.3274
 410	1	9	0.046541	-15.6691	11.4067	15.0702
 411	1	9	0.045238	-14.7577	9.88966	14.8621
 412	1	9	0.051941	-15.8866	10.4666	13.6204
 413	1	9	0.087961	-12.7864	14.9334	15.4676
 414	1	9	0.066782	-11.5157	15.3419	14.3911
 415	1	9	0.075908	-11.2203	14.1797	15.714
 416	1	9	0.105172	-11.722	11.5377	9.96576
 417	1	9	0.115625	-11.2675	10.2266	11.0344
 418	1	9	0.140296	-10.2513	11.6352	10.9714
 419	1	4	0.486064	-19.1214	6.36708	-8.49507
 420	1	3	0.047133	-17.8909	6.41209	-7.84693
 421	1	1	0.001076	-17.4757	5.00472	-7.63239
 422	1	3	0.034038	-19.5766	5.04223	-8.64733
 423	1	1	0.050122	-18.482	4.17579	-8.09241
 424	1	2	-0.383076	-17.1592	7.32964	-7.51749
 425	1	2	-0.380811	-20.5056	4.7648	-9.35981
 426	1	1	-0.001248	-16.2449	4.47621	-7.19895
 427	1	1	-0.036565	-18.4086	2.80621	-8.04908
 428	1	1	-0.208842	-17.262	2.23961	-7.50813
 429	1	1	-0.065319	-16.1916	3.06768	-7.02822
 430	1	7	0.153391	-15.4727	5.18672	-6.88968
 431	1	7	0.155343	-19.1838	2.17348	-8.43655
 432	1	7	0.174191	-17.2755	1.17015	-7.48749
 433	1	5	-0.106637	-15.0065	2.38962	-6.32178
 434	1	5	0.445763	-15.4004	0.9698	-5.74238
 435	1	6	-0.144255	-14.4736	0.432323	-4.87856
 436	1	6	-0.136881	-15.4735	0.0802437	-6.73948
 437	1	6	-0.144092	-16.638	0.968764	-5.11646
 438	1	5	0.367264	-13.823	2.34611	-7.34084
 439	1	6	-0.12104	-14.2847	2.06678	-8.57634
 440	1	6	-0.122614	-12.9848	1.28797	-7.13401
 441	1	6	-0.112321	-13.0896	3.5237	-7.39463
 442	1	1	-0.021957	-14.5166	3.22815	-5.10942
 443	1	1	-0.054241	-15.4282	4.11691	-4.4499
 444	1	1	-0.111709	-14.9703	4.80745	-3.33647
 445	1	1	-0.087244	-13.1979	3.09693	-4.56645
 446	1	1	-0.118951	-12.7448	3.82355	-3.42572
 447	1	1	-0.044875	-13.6726	4.71289	-2.8557
 448	1	3	0.461883	-13.5038	5.65771	-1.70747
 449	1	4	-0.007433	-14.7343	6.37043	-1.69529
 450	1	3	0.491356	-15.683	5.90314	-2.63888
 451	1	1	-0.019445	-14.8909	7.52299	-0.876065
 452	1	1	-0.186861	-14.36	8.74769	-1.27803
 453	1	1	-0.068374	-14.4106	9.87661	-0.45304
 454	1	1	-0.009193	-15.4144	7.38167	0.431907
 455	1	1	0.220761	-15.4866	8.55088	1.26058
 456	1	1	-0.402098	-15.0065	9.80137	0.814757
 457	1	7	0.148422	-13.911	8.78551	-2.25713
 458	1	7	0.146291	-13.965	10.7919	-0.771591
 459	1	7	0.158981	-11.7406	3.7493	-3.00914
 460	1	7	0.141813	-12.4989	2.38365	-4.9936
 461	1	7	0.143633	-16.4734	4.13076	-4.71236
 462	1	2	-0.474465	-16.8342	6.21586	-2.88889
 463	1	2	-0.469737	-12.4829	6.01475	-1.15752
 464	1	5	-0.37887	-15.9984	6.04279	0.909654
 465	1	9	0.115886	-15.8488	5.82739	1.94179
 466	1	9	0.123845	-15.6398	5.12611	0.369342
 467	1	9	0.138418	-17.0686	6.07285	0.749493
 468	1	7	0.21348	-14.9904	10.6637	1.49518
 469	1	4	0.486064	-31.6179	5.08814	-3.61012
 470	1	3	0.047133	-31.8419	5.42942	-4.91697
 471	1	1	0.001076	-30.9656	6.59529	-5.18769
 472	1	3	0.034038	-30.7245	5.91061	-2.96967
 473	1	1	0.050122	-30.2687	6.87261	-4.0416
 474	1	2	-0.383076	-32.6034	5.0209	-5.72157
 475	1	2	-0.380811	-30.3604	5.88927	-1.76998
 476	1	1	-0.001248	-30.6174	7.13744	-6.43678
 477	1	1	-0.036565	-29.1979	7.75356	-4.02246
 478	1	1	-0.208842	-28.9184	8.43016	-5.23356
 479	1	1	-0.065319	-29.6032	8.12361	-6.44739
 480	1	7	0.153391	-31.0995	6.76781	-7.30587
 481	1	7	0.155343	-28.7185	7.9915	-3.04416
 482	1	7	0.174191	-28.282	9.34586	-5.20426
 483	1	5	-0.106637	-29.4108	8.99561	-7.72422
 484	1	5	0.445763	-30.3584	10.2403	-7.43819
 485	1	6	-0.144255	-30.4819	11.0209	-8.56996
 486	1	6	-0.136881	-30.0064	11.0333	-6.37259
 487	1	6	-0.144092	-31.6366	9.9354	-7.1517
 488	1	5	0.367264	-29.7507	8.24097	-9.09595
 489	1	6	-0.12104	-29.2235	7.00758	-9.05434
 490	1	6	-0.122614	-29.4065	8.8851	-10.2594
 491	1	6	-0.112321	-31.0392	8.08097	-9.22274
 492	1	1	-0.021957	-27.882	9.35935	-7.8186
 493	1	1	-0.054241	-26.8866	8.41146	-8.24509
 494	1	1	-0.111709	-25.5882	8.87326	-8.44806
 495	1	1	-0.087244	-27.4041	10.7044	-7.60031
 496	1	1	-0.118951	-26.0663	11.1042	-7.73543
 497	1	1	-0.044875	-25.1495	10.1585	-8.16679
 498	1	3	0.461883	-23.6722	10.2346	-8.42733
 499	1	4	-0.007433	-23.2973	8.96971	-8.76262
 500	1	3	0.491356	-24.3743	8.06273	-8.84185
 501	1	1	-0.019445	-21.9248	8.71572	-9.19366
 502	1	1	-0.186861	-21.2866	9.53536	-10.1314
 503	1	1	-0.068374	-19.9897	9.34522	-10.5614
 504	1	1	-0.009193	-21.1471	7.74865	-8.55485
 505	1	1	0.220761	-19.8409	7.52122	-8.98696
 506	1	1	-0.402098	-19.2595	8.34266	-9.94437
 507	1	7	0.148422	-21.8258	10.3799	-10.5538
 508	1	7	0.146291	-19.5348	10.0236	-11.2688
 509	1	7	0.158981	-25.7291	12.1054	-7.6691
 510	1	7	0.141813	-28.1303	11.4983	-7.46622
 511	1	7	0.143633	-27.0609	7.36168	-8.42839
 512	1	2	-0.474465	-24.3877	6.87771	-9.20754
 513	1	2	-0.469737	-22.9985	11.2475	-8.39154
 514	1	5	-0.37887	-21.727	6.91673	-7.39644
 515	1	9	0.115886	-21.0269	6.42616	-6.7369
 516	1	9	0.123845	-22.2922	6.03986	-7.85482
 517	1	9	0.138418	-22.3541	7.458	-6.72361
 518	1	7	0.21348	-18.2396	8.2024	-10.2454
 519	1	1	-0.004194	-25.4507	-4.95427	-6.16936
 520	1	1	-0.097141	-26.6321	-4.88505	-5.39084
 521	1	1	-0.172015	-27.8685	-5.16386	-6.08628
 522	1	2	-0.377994	-23.06	-5.66156	-8.0739
 523	1	1	0.033493	-25.478	-5.54579	-7.43974
 524	1	1	-0.063739	-27.9159	-5.62577	-7.44993
 525	1	2	-0.398381	-27.0637	-6.9453	-10.2598
 526	1	1	0.032144	-26.6666	-5.87967	-8.08255
 527	1	3	0.032313	-24.2628	-5.90477	-8.29151
 528	1	4	0.461698	-24.9	-6.56141	-9.40618
 529	1	3	0.091945	-26.3206	-6.51389	-9.38545
 530	1	1	-0.10563	-26.7293	-0.860078	-2.31039
 531	1	5	-0.099376	-26.594	-4.49379	-3.8579
 532	1	1	-0.043296	-27.0093	-2.97249	-3.58998
 533	1	1	-0.073043	-26.2213	-2.12851	-2.77703
 534	1	1	-0.117827	-28.0086	-0.462603	-2.69844
 535	1	1	-0.037562	-28.2466	-2.41566	-4.08128
 536	1	1	-0.083705	-28.6791	-1.12969	-3.68908
 537	1	5	0.396	-25.1234	-4.92551	-3.22724
 538	1	5	0.310495	-27.6458	-5.31	-2.99385
 539	1	6	-0.130298	-24.9137	-6.20744	-3.49511
 540	1	6	-0.128745	-24.9594	-4.75095	-1.94139
 541	1	6	-0.120019	-24.11	-4.18411	-3.63947
 542	1	6	-0.104287	-27.5767	-6.67875	-3.19862
 543	1	6	-0.095507	-28.9574	-4.99503	-3.15814
 544	1	6	-0.104872	-27.4677	-5.11776	-1.67531
 545	1	3	0.456145	-29.9281	-0.339209	-4.06063
 546	1	3	0.550902	-28.8055	0.711618	-2.29442
 547	1	4	0.015704	-30.0015	0.587299	-3.04594
 548	1	2	-0.456801	-30.7599	-0.465969	-4.97668
 549	1	2	-0.487703	-28.4451	1.54624	-1.50546
 550	1	1	-0.116566	-31.0264	1.52323	-2.97329
 551	1	1	-0.050109	-30.8036	2.8499	-3.43699
 552	1	1	0.154929	-31.8528	3.78823	-3.22726
 553	1	1	0.041555	-32.3101	1.142	-2.48156
 554	1	1	-0.223109	-33.3813	2.05732	-2.38704
 555	1	1	-0.080449	-33.1074	3.42947	-2.68398
 556	1	5	-0.108008	-32.7029	-0.272023	-2.04227
 557	1	5	-0.182228	-34.1205	4.48416	-2.25816
 558	1	5	-0.345523	-29.4773	3.12392	-4.19312
 559	1	7	0.155183	-24.4658	-4.69214	-5.81507
 560	1	7	0.172904	-28.7955	-5.13373	-5.54041
 561	1	7	0.158028	-28.8601	-5.93883	-7.94339
 562	1	7	0.153129	-26.1273	-0.29224	-1.54798
 563	1	7	0.142914	-25.2347	-2.45155	-2.32509
 564	1	7	0.135531	-28.8622	-2.99802	-4.78047
 565	1	7	0.17765	-34.3735	1.74315	-1.97019
 566	1	9	0.046541	-32.9917	-0.918316	-2.86092
 567	1	9	0.045238	-33.5763	-0.179065	-1.34177
 568	1	9	0.051941	-31.953	-0.864339	-1.43446
 569	1	9	0.087961	-34.6012	4.19391	-1.32415
 570	1	9	0.066782	-34.9449	4.53984	-2.9733
 571	1	9	0.075908	-33.7268	5.45071	-2.10053
 572	1	9	0.105172	-28.604	3.19876	-3.53142
 573	1	9	0.115625	-29.5093	4.04027	-4.78391
 574	1	9	0.140296	-29.3438	2.2618	-4.89579
 575	1	4	0.486064	-23.6435	-22.2831	-12.4016
 576	1	3	0.047133	-24.5505	-21.3922	-13.0706
 577	1	1	0.001076	-23.7702	-20.08	-12.9214
 578	1	3	0.034038	-22.4341	-21.7541	-11.9703
 579	1	1	0.050122	-22.5494	-20.2997	-12.322
 580	1	2	-0.383076	-25.6434	-21.6149	-13.5644
 581	1	2	-0.380811	-21.4273	-22.2319	-11.5341
 582	1	1	-0.001248	-24.1929	-18.8748	-13.4476
 583	1	1	-0.036565	-21.7242	-19.2063	-12.1148
 584	1	1	-0.208842	-22.0331	-17.9663	-12.7305
 585	1	1	-0.065319	-23.3114	-17.7627	-13.3862
 586	1	7	0.153391	-25.2178	-18.8512	-13.7904
 587	1	7	0.155343	-20.7473	-19.2846	-11.5911
 588	1	7	0.174191	-21.2761	-17.1756	-12.6919
 589	1	5	-0.106637	-23.6638	-16.4443	-14.0666
 590	1	5	0.445763	-22.5442	-16.1405	-15.2319
 591	1	6	-0.144255	-23.0037	-15.2689	-16.1572
 592	1	6	-0.136881	-22.3594	-17.2819	-15.945
 593	1	6	-0.144092	-21.322	-15.7377	-14.7799
 594	1	5	0.367264	-25.043	-16.4829	-14.9139
 595	1	6	-0.12104	-25.0625	-17.5645	-15.6824
 596	1	6	-0.122614	-25.4023	-15.3948	-15.7403
 597	1	6	-0.112321	-26.0869	-16.6305	-14.0967
 598	1	1	-0.021957	-23.6797	-15.2595	-13.0649
 599	1	1	-0.054241	-23.9839	-13.9411	-13.5249
 600	1	1	-0.111709	-23.639	-12.862	-12.6887
 601	1	1	-0.087244	-23.3483	-15.447	-11.6515
 602	1	1	-0.118951	-23.1227	-14.3215	-10.8542
 603	1	1	-0.044875	-23.2324	-13.0216	-11.3916
 604	1	3	0.461883	-23.0169	-11.6968	-10.7756
 605	1	4	-0.007433	-23.3467	-10.7924	-11.7762
 606	1	3	0.491356	-23.6519	-11.3683	-13.0008
 607	1	1	-0.019445	-23.363	-9.38068	-11.5689
 608	1	1	-0.186861	-22.4357	-8.5994	-12.2558
 609	1	1	-0.068374	-22.2586	-7.23719	-11.9082
 610	1	1	-0.009193	-24.2353	-8.70305	-10.6367
 611	1	1	0.220761	-24.1487	-7.2581	-10.4055
 612	1	1	-0.402098	-23.0417	-6.56172	-10.9875
 613	1	7	0.148422	-21.7151	-9.07257	-12.941
 614	1	7	0.146291	-21.5681	-6.70555	-12.5152
 615	1	7	0.158981	-22.9927	-14.4976	-9.81089
 616	1	7	0.141813	-23.3743	-16.4555	-11.2053
 617	1	7	0.143633	-24.2019	-13.6684	-14.5912
 618	1	2	-0.474465	-23.6853	-10.8487	-14.1013
 619	1	2	-0.469737	-22.4514	-11.4522	-9.72965
 620	1	5	-0.37887	-25.1949	-9.57264	-9.78215
 621	1	9	0.115886	-26.1607	-9.0879	-9.69194
 622	1	9	0.123845	-24.9216	-9.74921	-8.74692
 623	1	9	0.138418	-25.3449	-10.5364	-10.3042
 624	1	7	0.21348	-22.8802	-5.48714	-10.8972
 625	1	1	-0.004194	-23.1736	-31.439	-17.3858
 626	1	1	-0.097141	-24.1976	-32.3566	-17.1313
 627	1	1	-0.172015	-24.8146	-32.9551	-18.2661
 628	1	2	-0.377994	-21.0264	-29.4863	-18.3664
 629	1	1	0.033493	-22.9772	-30.9493	-18.6549
 630	1	1	-0.063739	-24.5204	-32.5111	-19.5581
 631	1	2	-0.398381	-23.0734	-31.3961	-22.0189
 632	1	1	0.032144	-23.5615	-31.5022	-19.7163
 633	1	3	0.032313	-21.8785	-30.0431	-19.0518
 634	1	4	0.461698	-21.7646	-30.2359	-20.4452
 635	1	3	0.091945	-22.8129	-31.0469	-20.8879
 636	1	1	-0.10563	-22.2896	-30.7623	-13.1008
 637	1	5	-0.099376	-24.5652	-32.6695	-15.6595
 638	1	1	-0.043296	-23.9765	-31.5256	-14.7685
 639	1	1	-0.073043	-22.9356	-31.7454	-13.807
 640	1	1	-0.117827	-22.7138	-29.4541	-13.31
 641	1	1	-0.037562	-24.2744	-30.1779	-15.0346
 642	1	1	-0.083705	-23.6449	-29.1822	-14.2881
 643	1	5	0.396	-23.9446	-34.0487	-15.3691
 644	1	5	0.310495	-26.1447	-32.8065	-15.4495
 645	1	6	-0.130298	-24.1925	-34.9855	-16.2853
 646	1	6	-0.128745	-24.3716	-34.5949	-14.1962
 647	1	6	-0.120019	-22.573	-34.0106	-15.3473
 648	1	6	-0.104287	-26.8068	-31.9021	-16.1438