pySIMM System Object

2108 atoms
2307 bonds
4052 angles
6124 dihedrals
640 impropers

9 atom types
11 bond types
18 angle types
7 dihedral types
4 improper types

-163.927743 163.927743 xlo xhi
-163.927743 163.927743 ylo yhi
-163.927743 163.927743 zlo zhi

Masses

   1	14.01	# n
   2	12.01	# c
   3	12.01	# ca
   4	1.008	# hn
   5	16.0	# o
   6	1.008	# ha
   7	12.01	# c3
   8	19.0	# f
   9	1.008	# hc

Pair Coeffs

   1	0.17	3.249998523775958	# n
   2	0.086	3.3996695084235347	# c
   3	0.086	3.3996695084235347	# ca
   4	0.0157	1.069078461768407	# hn
   5	0.21	2.959921901149463	# o
   6	0.015	2.59964245953351	# ha
   7	0.1094	3.3996695084235347	# c3
   8	0.061	3.1181455134911875	# f
   9	0.0157	2.649532787749369	# hc

Bond Coeffs

   1	345.8	1.086	# ca,ha
   2	637.7	1.2183	# c,o
   3	321.0	1.5156	# c3,ca
   4	300.9	1.5375	# c3,c3
   5	384.2	1.4121	# ca,n
   6	330.6	1.0969	# c3,hc
   7	403.2	1.0129	# hn,n
   8	356.9	1.3497	# c3,f
   9	461.1	1.3984	# ca,ca
  10	427.6	1.3789	# c,n
  11	345.9	1.4906	# c,ca

Angle Coeffs

   1	66.11	109.24	# c3,c3,f
   2	46.8	110.47	# ca,c3,hc
   3	39.4	107.58	# hc,c3,hc
   4	63.82	123.71	# c,n,ca
   5	66.62	120.02	# ca,ca,ca
   6	63.53	120.77	# c3,ca,ca
   7	62.86	111.51	# c3,c3,c3
   8	63.74	127.08	# c,n,c
   9	48.33	117.55	# c,n,hn
  10	64.28	120.33	# c,ca,ca
  11	48.18	119.88	# ca,ca,ha
  12	68.72	122.6	# ca,c,o
  13	63.15	112.07	# c3,c3,ca
  14	70.89	107.36	# f,c3,f
  15	67.87	120.19	# ca,ca,n
  16	63.56	112.24	# ca,c3,ca
  17	67.68	115.25	# ca,c,n
  18	74.22	123.05	# n,c,o

Dihedral Coeffs

   1	2	2.5	2	180	2.0	1	0	# hn,n,c,o
   2	1	3.625	2	180	# X,ca,ca,X
   3	1	0.15555555555555556	3	0	# X,c3,c3,X
   4	1	0.0	2	0	# X,c3,ca,X
   5	1	1.0	2	180	# X,c,ca,X
   6	1	2.5	2	180	# X,c,n,X
   7	1	0.45	2	180	# X,ca,n,X

Improper Coeffs

   1	1.1	-1	2	# n,X,X,hn
   2	1.1	-1	2	# ca,X,X,ha
   3	10.5	-1	2	# c,X,X,o
   4	1.1	-1	2	# ca,ca,ca,c3

Atoms

   1	1	1	0.486064	11.1567	38.3211	37.3498
   2	1	2	0.047133	11.7387	39.5029	37.8201
   3	1	3	0.001076	12.9757	39.0668	38.5281
   4	1	2	0.034038	11.9379	37.1961	37.6209
   5	1	3	0.050122	13.1046	37.698	38.3945
   6	1	5	-0.383076	11.2888	40.6339	37.799
   7	1	5	-0.380811	11.6573	36.0238	37.4428
   8	1	3	-0.001248	13.8386	39.7957	39.3594
   9	1	3	-0.036565	14.1174	36.9997	39.0615
  10	1	3	-0.208842	14.9841	37.7246	39.9108
  11	1	3	-0.065319	14.8773	39.1315	40.0864
  12	1	6	0.153391	13.6141	40.847	39.4747
  13	1	6	0.155343	14.1712	35.9159	38.9821
  14	1	6	0.174191	15.734	37.1708	40.4743
  15	1	7	-0.106637	15.7735	39.8488	41.1699
  16	1	7	0.445763	15.9942	41.361	40.8031
  17	1	8	-0.144255	16.4878	41.4391	39.5434
  18	1	8	-0.136881	16.8591	41.9802	41.6319
  19	1	8	-0.144092	14.8725	42.1033	40.8662
  20	1	7	0.367264	15.011	39.7551	42.5537
  21	1	8	-0.12104	13.7116	40.1038	42.4383
  22	1	8	-0.122614	15.4997	40.569	43.5122
  23	1	8	-0.112321	15.0434	38.5046	43.0637
  24	1	3	-0.021957	17.1987	39.2008	41.257
  25	1	3	-0.054241	17.8889	38.9769	42.4881
  26	1	3	-0.111709	19.1864	38.4277	42.4846
  27	1	3	-0.087244	17.8909	38.8734	40.0607
  28	1	3	-0.118951	19.1961	38.331	40.0731
  29	1	3	-0.044875	19.8221	38.1014	41.3123
  30	1	2	0.461883	21.1864	37.5843	41.6543
  31	1	1	-0.007433	21.2883	37.6194	43.036
  32	1	2	0.491356	20.1423	38.1764	43.6122
  33	1	3	-0.019445	22.4004	37.0577	43.7568
  34	1	3	-0.186861	23.3553	37.9074	44.3527
  35	1	3	-0.068374	24.4878	37.3755	45.0025
  36	1	3	-0.009193	22.6031	35.656	43.8446
  37	1	3	0.220761	23.7337	35.1286	44.4978
  38	1	3	-0.402098	24.6776	35.9869	45.0679
  39	1	6	0.148422	23.2357	38.9861	44.2957
  40	1	6	0.146291	25.2229	38.0422	45.4474
  41	1	6	0.158981	19.7147	38.1063	39.1428
  42	1	6	0.141813	17.4141	39.0486	39.1031
  43	1	6	0.143633	17.4641	39.2384	43.4502
  44	1	5	-0.474465	19.9444	38.4254	44.7914
  45	1	5	-0.469737	21.9951	37.1317	40.8653
  46	1	7	-0.37887	21.5901	34.6785	43.2886
  47	1	9	0.115886	21.8124	33.6501	43.615
  48	1	9	0.123845	21.6059	34.6858	42.1861
  49	1	9	0.138418	20.5756	34.9137	43.6325
  50	1	6	0.21348	25.5546	35.5707	45.553
  51	1	3	-0.004194	4.69382	36.7662	25.8165
  52	1	3	-0.097141	5.4626	37.0289	26.9795
  53	1	3	-0.172015	6.55286	37.9395	26.8566
  54	1	5	-0.377994	3.63624	36.4421	22.9514
  55	1	3	0.033493	5.06351	37.4078	24.6185
  56	1	3	-0.063739	6.88551	38.5834	25.643
  57	1	5	-0.398381	7.134	39.4619	22.6597
  58	1	3	0.032144	6.1281	38.2758	24.5184
  59	1	2	0.032313	4.55286	37.1838	23.2518
  60	1	1	0.461698	5.34175	37.9542	22.4111
  61	1	2	0.091945	6.31748	38.6684	23.0967
  62	1	3	-0.10563	5.8393	39.1198	30.7425
  63	1	7	-0.099376	5.31225	36.1627	28.2694
  64	1	3	-0.043296	5.82097	36.9593	29.5138
  65	1	3	-0.073043	5.37946	38.3018	29.6901
  66	1	3	-0.117827	6.72596	38.5478	31.6654
  67	1	3	-0.037562	6.67752	36.4096	30.5096
  68	1	3	-0.083705	7.10111	37.2227	31.5644
  69	1	7	0.396	6.18345	34.8819	27.975
  70	1	7	0.310495	3.82942	35.7138	28.5805
  71	1	8	-0.130298	7.49978	35.1967	27.888
  72	1	8	-0.128745	5.87044	34.2748	26.8052
  73	1	8	-0.120019	6.05447	33.9222	28.9092
  74	1	8	-0.104287	3.73981	35.149	29.8052
  75	1	8	-0.095507	3.33994	34.7853	27.7231
  76	1	8	-0.104872	2.96683	36.7521	28.5687
  77	1	2	0.456145	7.83225	36.8405	32.7955
  78	1	2	0.550902	7.23217	39.063	32.9631
  79	1	1	0.015704	7.84889	37.9793	33.5944
  80	1	5	-0.456801	8.16989	35.7105	33.0954
  81	1	5	-0.487703	7.01147	40.1775	33.405
  82	1	3	-0.116566	8.21344	37.9886	34.9875
  83	1	3	-0.050109	9.55627	38.1178	35.4345
  84	1	3	0.154929	9.83018	38.2115	36.8376
  85	1	3	0.041555	7.17193	37.9261	35.93
  86	1	3	-0.223109	7.44484	38.0622	37.298
  87	1	3	-0.080449	8.75972	38.2167	37.7734
  88	1	7	-0.108008	5.73403	37.6504	35.502
  89	1	7	-0.182228	8.97141	38.3112	39.2945
  90	1	7	-0.345523	10.6828	38.1587	34.3961
  91	1	6	0.155183	3.90996	36.0207	25.7814
  92	1	6	0.172904	7.22242	38.1022	27.7023
  93	1	6	0.158028	7.74497	39.2462	25.5696
  94	1	6	0.153129	5.47124	40.1369	30.8668
  95	1	6	0.142914	4.66328	38.7238	28.9871
  96	1	6	0.135531	6.98724	35.369	30.5179
  97	1	6	0.17765	6.62028	38.017	38.0082
  98	1	9	0.046541	5.07878	37.4816	36.3632
  99	1	9	0.045238	5.6846	36.7503	34.8819
 100	1	9	0.051941	5.30853	38.4806	34.9286
 101	1	9	0.087961	9.62299	37.5162	39.6721
 102	1	9	0.066782	8.01973	38.2122	39.8308
 103	1	9	0.075908	9.40873	39.279	39.5812
 104	1	9	0.105172	11.6615	38.4214	34.8195
 105	1	9	0.115625	10.4627	38.9153	33.6295
 106	1	9	0.140296	10.7867	37.1904	33.8851
 107	1	1	0.486064	-2.86743	33.6282	12.1828
 108	1	2	0.047133	-1.71854	34.2923	12.5544
 109	1	3	0.001076	-2.06696	35.73	12.5235
 110	1	2	0.034038	-3.90907	34.4857	11.8479
 111	1	3	0.050122	-3.37457	35.842	12.0895
 112	1	5	-0.383076	-0.663927	33.7853	12.8486
 113	1	5	-0.380811	-5.05948	34.1826	11.6137
 114	1	3	-0.001248	-1.34245	36.8615	12.9138
 115	1	3	-0.036565	-4.02575	37.0809	12.0132
 116	1	3	-0.208842	-3.34407	38.2147	12.4832
 117	1	3	-0.065319	-2.01832	38.1098	12.9952
 118	1	6	0.153391	-0.320888	36.7313	13.2726
 119	1	6	0.155343	-5.06704	37.1419	11.6904
 120	1	6	0.174191	-3.88743	39.1494	12.4961
 121	1	7	-0.106637	-1.30083	39.321	13.6471
 122	1	7	0.445763	-0.357615	39.8796	12.5301
 123	1	8	-0.144255	-1.03299	39.9629	11.3576
 124	1	8	-0.136881	0.659185	39.0138	12.3241
 125	1	8	-0.144092	0.154499	41.1119	12.817
 126	1	7	0.367264	-2.29747	40.4526	14.1125
 127	1	8	-0.12104	-1.69357	41.3744	14.8946
 128	1	8	-0.122614	-2.86959	41.1286	13.0922
 129	1	8	-0.112321	-3.28644	39.9448	14.8797
 130	1	3	-0.021957	-0.56078	38.8395	14.9278
 131	1	3	-0.054241	0.676176	39.3941	15.3626
 132	1	3	-0.111709	1.26975	38.8668	16.5237
 133	1	3	-0.087244	-1.18313	37.8575	15.758
 134	1	3	-0.118951	-0.551517	37.3411	16.9094
 135	1	3	-0.044875	0.709848	37.8312	17.2417
 136	1	2	0.461883	1.6562	37.4	18.3092
 137	1	1	-0.007433	2.75803	38.2342	18.1682
 138	1	2	0.491356	2.58305	39.1649	17.1425
 139	1	3	-0.019445	3.97615	38.0628	18.8985
 140	1	3	-0.186861	5.1287	37.6704	18.1848
 141	1	3	-0.068374	6.32767	37.4006	18.8595
 142	1	3	-0.009193	4.04583	38.257	20.3034
 143	1	3	0.220761	5.24794	37.9289	20.9845
 144	1	3	-0.402098	6.3692	37.4755	20.256
 145	1	6	0.148422	5.08567	37.539	17.103
 146	1	6	0.146291	7.20118	37.0945	18.2995
 147	1	6	0.158981	-1.01416	36.5619	17.5147
 148	1	6	0.141813	-2.16494	37.4884	15.5181
 149	1	6	0.143633	1.20357	40.1639	14.8046
 150	1	5	-0.474465	3.37227	39.994	16.7216
 151	1	5	-0.469737	1.51009	36.4374	19.0422
 152	1	7	-0.37887	2.80331	38.757	21.0584
 153	1	9	0.115886	3.05597	39.2345	22.0099
 154	1	9	0.123845	2.13237	37.9138	21.2945
 155	1	9	0.138418	2.23161	39.4942	20.4864
 156	1	6	0.21348	7.29647	37.2323	20.7897
 157	1	1	0.486064	4.93875	25.1165	4.22282
 158	1	2	0.047133	4.50254	24.4345	5.35794
 159	1	3	0.001076	3.0861	24.8282	5.52563
 160	1	2	0.034038	3.96408	25.9518	3.68243
 161	1	3	0.050122	2.78001	25.7344	4.53305
 162	1	5	-0.383076	5.09991	23.6128	6.02281
 163	1	5	-0.380811	4.04476	26.7212	2.73845
 164	1	3	-0.001248	2.12698	24.3428	6.41927
 165	1	3	-0.036565	1.50592	26.292	4.42195
 166	1	3	-0.208842	0.521516	25.809	5.29394
 167	1	3	-0.065319	0.787784	24.7955	6.2689
 168	1	6	0.153391	2.42828	23.5757	7.1344
 169	1	6	0.155343	1.27487	27.0278	3.64927
 170	1	6	0.174191	-0.489495	26.1936	5.17025
 171	1	7	-0.106637	-0.407234	24.2244	7.09077
 172	1	7	0.445763	0.0536318	23.3994	8.3646
 173	1	8	-0.144255	0.643166	22.2163	8.07219
 174	1	8	-0.136881	-0.973888	23.1503	9.21328
 175	1	8	-0.144092	0.974824	24.1026	9.06388
 176	1	7	0.367264	-1.16573	23.2381	6.1056
 177	1	8	-0.12104	-1.67738	23.8841	5.03985
 178	1	8	-0.122614	-2.19008	22.5905	6.68439
 179	1	8	-0.112321	-0.355189	22.2887	5.60249
 180	1	3	-0.021957	-1.25948	25.4515	7.58042
 181	1	3	-0.054241	-0.668568	26.4457	8.41706
 182	1	3	-0.111709	-1.43548	27.5534	8.83141
 183	1	3	-0.087244	-2.60959	25.6579	7.18205
 184	1	3	-0.118951	-3.33827	26.8046	7.55841
 185	1	3	-0.044875	-2.72357	27.7466	8.3778
 186	1	2	0.461883	-3.32004	28.8868	9.12074
 187	1	1	-0.007433	-2.38718	29.215	10.0931
 188	1	2	0.491356	-1.18589	28.5393	9.9205
 189	1	3	-0.019445	-2.71976	30.0378	11.2058
 190	1	3	-0.186861	-3.55623	29.4819	12.1998
 191	1	3	-0.068374	-4.04841	30.2631	13.2512
 192	1	3	-0.009193	-2.37297	31.4065	11.2418
 193	1	3	0.220761	-2.9882	32.2201	12.2337
 194	1	3	-0.402098	-3.76203	31.6341	13.2703
 195	1	6	0.148422	-3.86291	28.4311	12.1338
 196	1	6	0.146291	-4.68872	29.8118	14.0083
 197	1	6	0.158981	-4.38791	26.9162	7.26998
 198	1	6	0.141813	-3.13238	24.919	6.5889
 199	1	6	0.143633	0.351501	26.3492	8.77526
 200	1	5	-0.474465	-0.202076	28.5892	10.6376
 201	1	5	-0.469737	-4.44247	29.3494	9.00703
 202	1	7	-0.37887	-1.45903	32.0294	10.1625
 203	1	9	0.115886	-2.01149	32.7571	9.57039
 204	1	9	0.123845	-1.03004	31.3205	9.44837
 205	1	9	0.138418	-0.61175	32.5567	10.6027
 206	1	6	0.21348	-4.2055	32.2422	14.0536
 207	1	3	-0.004194	9.82224	18.7109	-4.64925
 208	1	3	-0.097141	8.59645	18.0741	-4.34906
 209	1	3	-0.172015	8.47149	16.6864	-4.69023
 210	1	5	-0.377994	12.5639	19.6235	-5.63886
 211	1	3	0.033493	10.8258	18.0004	-5.29898
 212	1	3	-0.063739	9.51543	15.9794	-5.33396
 213	1	5	-0.398381	12.2198	15.1683	-6.83607
 214	1	3	0.032144	10.6925	16.6714	-5.64104
 215	1	2	0.032313	12.1314	18.4946	-5.76765
 216	1	1	0.461698	12.7144	17.4109	-6.40502
 217	1	2	0.091945	11.9466	16.2525	-6.34191
 218	1	3	-0.10563	9.1844	19.7825	-0.431907
 219	1	7	-0.099376	7.42854	18.9872	-3.8181
 220	1	3	-0.043296	7.85248	19.7489	-2.51116
 221	1	3	-0.073043	8.81308	19.1675	-1.64505
 222	1	3	-0.117827	8.60443	21.0034	-0.0772634
 223	1	3	-0.037562	7.26637	20.9849	-2.09752
 224	1	3	-0.083705	7.66584	21.5933	-0.890107
 225	1	7	0.396	7.11987	20.0227	-4.98267
 226	1	7	0.310495	6.12388	18.1522	-3.52713
 227	1	8	-0.130298	7.0316	19.4128	-6.18801
 228	1	8	-0.128745	8.08183	20.9639	-5.10614
 229	1	8	-0.120019	5.97213	20.7139	-4.8305
 230	1	8	-0.104287	5.67202	17.5106	-4.63654
 231	1	8	-0.095507	5.11306	18.9418	-3.14615
 232	1	8	-0.104872	6.29892	17.253	-2.52403
 233	1	2	0.456145	7.20915	22.8396	-0.205131
 234	1	2	0.550902	8.79402	21.8517	1.13489
 235	1	1	0.015704	7.91522	22.9187	0.998271
 236	1	5	-0.456801	6.34065	23.5869	-0.615389
 237	1	5	-0.487703	9.62637	21.6763	2.00311
 238	1	3	-0.116566	7.70535	23.9373	1.98779
 239	1	3	-0.050109	6.52814	23.9166	2.77367
 240	1	3	0.154929	6.22251	25.0024	3.63516
 241	1	3	0.041555	8.60414	25.0235	2.117
 242	1	3	-0.223109	8.29824	26.0838	2.99214
 243	1	3	-0.080449	7.11671	26.089	3.75285
 244	1	7	-0.108008	9.90139	25.0874	1.31121
 245	1	7	-0.182228	6.81172	27.3024	4.62481
 246	1	7	-0.345523	5.53759	22.7572	2.61724
 247	1	6	0.155183	10.0097	19.7516	-4.4006
 248	1	6	0.172904	7.56351	16.1315	-4.48199
 249	1	6	0.158028	9.40121	14.9354	-5.61889
 250	1	6	0.153129	9.91297	19.3141	0.223021
 251	1	6	0.142914	9.26275	18.2109	-1.89692
 252	1	6	0.135531	6.47788	21.4609	-2.66887
 253	1	6	0.17765	8.98861	26.9216	3.07396
 254	1	9	0.046541	9.70302	25.2242	0.24105
 255	1	9	0.045238	10.5122	24.1849	1.43718
 256	1	9	0.051941	10.5175	25.9351	1.6352
 257	1	9	0.087961	6.34293	27.0197	5.57571
 258	1	9	0.066782	6.14595	27.9977	4.09788
 259	1	9	0.075908	7.7275	27.8549	4.87205
 260	1	9	0.105172	4.84512	22.9602	1.79349
 261	1	9	0.115625	4.95382	22.5866	3.52769
 262	1	9	0.140296	6.02415	21.791	2.43401
 263	1	3	-0.004194	25.5349	16.4038	-8.51935
 264	1	3	-0.097141	24.2198	16.809	-8.14301
 265	1	3	-0.172015	23.3819	17.3771	-9.14646
 266	1	5	-0.377994	28.2042	15.6898	-10.0388
 267	1	3	0.033493	25.9244	16.5153	-9.87008
 268	1	3	-0.063739	23.7836	17.4707	-10.4899
 269	1	5	-0.398381	25.2237	17.3304	-13.2146
 270	1	3	0.032144	25.0588	17.0153	-10.8253
 271	1	2	0.032313	27.2157	16.1926	-10.5491
 272	1	1	0.461698	27.0215	16.5449	-11.8885
 273	1	2	0.091945	25.7261	16.9985	-12.1493
 274	1	3	-0.10563	20.5498	14.6453	-7.80308
 275	1	7	-0.099376	23.6524	16.7205	-6.68662
 276	1	3	-0.043296	22.1623	16.2484	-6.80557
 277	1	3	-0.073043	21.8739	15.052	-7.5244
 278	1	3	-0.117827	19.5049	15.4739	-7.37429
 279	1	3	-0.037562	21.064	17.0121	-6.31929
 280	1	3	-0.083705	19.7603	16.6128	-6.63834
 281	1	7	0.396	24.3837	15.6997	-5.72342
 282	1	7	0.310495	23.8017	18.1671	-6.07263
 283	1	8	-0.130298	24.5809	14.4991	-6.31398
 284	1	8	-0.128745	25.5906	16.1234	-5.28375
 285	1	8	-0.120019	23.6436	15.4768	-4.61098
 286	1	8	-0.104287	23.0673	19.0745	-6.748
 287	1	8	-0.095507	23.3928	18.2412	-4.78819
 288	1	8	-0.104872	25.0843	18.6068	-6.09058
 289	1	2	0.456145	18.4834	17.3603	-6.47886
 290	1	2	0.550902	18.051	15.4577	-7.71053
 291	1	1	0.015704	17.5385	16.6436	-7.19522
 292	1	5	-0.456801	18.3447	18.4473	-5.94438
 293	1	5	-0.487703	17.498	14.6664	-8.45547
 294	1	3	-0.116566	16.2763	17.1801	-7.58628
 295	1	3	-0.050109	15.1514	17.1133	-6.72916
 296	1	3	0.154929	13.8825	17.5154	-7.21129
 297	1	3	0.041555	16.1581	17.7417	-8.87781
 298	1	3	-0.223109	14.897	18.1238	-9.34584
 299	1	3	-0.080449	13.7575	17.9753	-8.54023
 300	1	7	-0.108008	17.3585	17.8889	-9.81117
 301	1	7	-0.182228	12.3901	18.2754	-9.13507
 302	1	7	-0.345523	15.3057	16.5599	-5.30887
 303	1	6	0.155183	26.2458	16.0179	-7.79439
 304	1	6	0.172904	22.396	17.7545	-8.88887
 305	1	6	0.158028	23.1324	17.8924	-11.251
 306	1	6	0.153129	20.3443	13.7628	-8.40807
 307	1	6	0.142914	22.6896	14.4558	-7.92624
 308	1	6	0.135531	21.1846	17.943	-5.77882
 309	1	6	0.17765	14.7961	18.5081	-10.3562
 310	1	9	0.046541	18.1992	18.378	-9.30269
 311	1	9	0.045238	17.1181	18.4951	-10.694
 312	1	9	0.051941	17.7019	16.91	-10.1697
 313	1	9	0.087961	11.7634	17.3733	-9.17153
 314	1	9	0.066782	12.4735	18.6546	-10.1614
 315	1	9	0.075908	11.8631	19.0436	-8.55258
 316	1	9	0.105172	15.2306	15.4635	-5.31163
 317	1	9	0.115625	14.5427	16.9427	-4.61838
 318	1	9	0.140296	16.2691	16.8296	-4.86046
 319	1	3	-0.004194	34.1168	11.5099	-18.4523
 320	1	3	-0.097141	34.4385	10.37	-17.6622
 321	1	3	-0.172015	35.8111	10.0989	-17.4033
 322	1	5	-0.377994	34.0782	14.1855	-20.093
 323	1	3	0.033493	35.1421	12.3301	-18.9265
 324	1	3	-0.063739	36.8339	10.9338	-17.8993
 325	1	5	-0.398381	38.5207	13.1379	-19.3077
 326	1	3	0.032144	36.4659	12.0413	-18.667
 327	1	2	0.032313	35.0748	13.601	-19.6969
 328	1	1	0.461698	36.3958	14.0066	-19.8184
 329	1	2	0.091945	37.3035	13.1016	-19.2757
 330	1	3	-0.10563	29.6771	10.881	-16.9585
 331	1	7	-0.099376	33.2971	9.41905	-17.1892
 332	1	3	-0.043296	32.0808	10.3084	-16.8079
 333	1	3	-0.073043	30.7598	10.0353	-17.2629
 334	1	3	-0.117827	29.9324	12.0267	-16.1989
 335	1	3	-0.037562	32.2862	11.457	-16.0013
 336	1	3	-0.083705	31.2023	12.3035	-15.7374
 337	1	7	0.396	33.6474	8.54639	-15.9109
 338	1	7	0.310495	33.0165	8.46986	-18.4163
 339	1	8	-0.130298	32.5463	7.94469	-15.4054
 340	1	8	-0.128745	34.5481	7.56038	-16.1423
 341	1	8	-0.120019	34.1537	9.29363	-14.9044
 342	1	8	-0.104287	32.0894	7.51855	-18.1669
 343	1	8	-0.095507	34.1338	7.82207	-18.8154
 344	1	8	-0.104872	32.591	9.17225	-19.4887
 345	1	2	0.456145	31.167	13.6233	-15.0547
 346	1	2	0.550902	29.0351	13.1521	-15.8011
 347	1	1	0.015704	29.8429	14.0451	-15.1001
 348	1	5	-0.456801	32.138	14.2588	-14.6888
 349	1	5	-0.487703	27.8477	13.2603	-16.0684
 350	1	3	-0.116566	29.3752	15.2796	-14.5448
 351	1	3	-0.050109	28.542	15.2741	-13.3943
 352	1	3	0.154929	28.0189	16.5044	-12.9059
 353	1	3	0.041555	29.6959	16.4955	-15.1868
 354	1	3	-0.223109	29.1934	17.6956	-14.6741
 355	1	3	-0.080449	28.3767	17.7182	-13.5388
 356	1	7	-0.108008	30.6007	16.5615	-16.4109
 357	1	7	-0.182228	27.8926	19.0789	-13.0478
 358	1	7	-0.345523	28.2498	13.9329	-12.6965
 359	1	6	0.155183	33.0894	11.7653	-18.7015
 360	1	6	0.172904	36.1106	9.23133	-16.8285
 361	1	6	0.158028	37.883	10.7289	-17.6976
 362	1	6	0.153129	28.6756	10.6698	-17.3278
 363	1	6	0.142914	30.5312	9.17451	-17.8751
 364	1	6	0.135531	33.2774	11.7201	-15.6321
 365	1	6	0.17765	29.4308	18.6309	-15.1648
 366	1	9	0.046541	31.6483	16.5004	-16.1044
 367	1	9	0.045238	30.467	17.4977	-16.9641
 368	1	9	0.051941	30.4029	15.7448	-17.1151
 369	1	9	0.087961	26.922	19.332	-13.4963
 370	1	9	0.066782	28.5959	19.8756	-13.3267
 371	1	9	0.075908	27.7848	19.1148	-11.9556
 372	1	9	0.105172	27.9334	13.1569	-13.4013
 373	1	9	0.115625	27.4425	13.9815	-11.958
 374	1	9	0.140296	29.1442	13.5669	-12.1748
 375	1	1	0.486064	37.8574	21.6874	-11.3121
 376	1	2	0.047133	38.2052	20.8261	-12.3548
 377	1	3	0.001076	39.4935	21.353	-12.8711
 378	1	2	0.034038	38.8037	22.6946	-11.115
 379	1	3	0.050122	39.8472	22.4689	-12.143
 380	1	5	-0.383076	37.5754	19.8897	-12.8178
 381	1	5	-0.380811	38.7898	23.602	-10.3015
 382	1	3	-0.001248	40.2456	20.9404	-13.9666
 383	1	3	-0.036565	40.9828	23.2293	-12.4638
 384	1	3	-0.208842	41.741	22.8533	-13.5919
 385	1	3	-0.065319	41.3799	21.706	-14.3521
 386	1	6	0.153391	39.9251	20.0593	-14.5189
 387	1	6	0.155343	41.2356	24.1127	-11.8803
 388	1	6	0.174191	42.608	23.4551	-13.8499
 389	1	7	-0.106637	42.1624	21.2204	-15.6012
 390	1	7	0.445763	43.1332	22.2691	-16.263
 391	1	8	-0.144255	44.1997	22.6064	-15.4945
 392	1	8	-0.136881	42.4683	23.4014	-16.554
 393	1	8	-0.144092	43.6303	21.8273	-17.4458
 394	1	7	0.367264	42.9974	19.9788	-15.1086
 395	1	8	-0.12104	43.8505	19.4844	-16.029
 396	1	8	-0.122614	42.1916	18.9609	-14.7318
 397	1	8	-0.112321	43.7422	20.2838	-14.0218
 398	1	3	-0.021957	41.0844	20.8917	-16.6761
 399	1	3	-0.054241	41.0853	19.676	-17.4079
 400	1	3	-0.111709	40.0284	19.4251	-18.2889
 401	1	3	-0.087244	40.0227	21.8187	-16.9008
 402	1	3	-0.118951	38.9587	21.5306	-17.7772
 403	1	3	-0.044875	38.9848	20.3102	-18.4562
 404	1	2	0.461883	37.9896	19.6981	-19.3748
 405	1	1	-0.007433	38.4986	18.4513	-19.6906
 406	1	2	0.491356	39.753	18.238	-19.1304
 407	1	3	-0.019445	37.7806	17.4446	-20.3885
 408	1	3	-0.186861	37.6139	17.556	-21.7806
 409	1	3	-0.068374	37.019	16.5204	-22.5116
 410	1	3	-0.009193	37.3395	16.2882	-19.7022
 411	1	3	0.220761	36.769	15.2246	-20.4499
 412	1	3	-0.402098	36.59	15.3619	-21.8456
 413	1	6	0.148422	37.9687	18.4425	-22.3026
 414	1	6	0.146291	36.898	16.6159	-23.5878
 415	1	6	0.158981	38.132	22.2261	-17.9102
 416	1	6	0.141813	39.993	22.7576	-16.3524
 417	1	6	0.143633	41.8566	18.9205	-17.2914
 418	1	5	-0.474465	40.465	17.254	-19.2259
 419	1	5	-0.469737	36.9094	20.1647	-19.683
 420	1	7	-0.37887	37.5302	16.1818	-18.1821
 421	1	9	0.115886	38.5135	15.7571	-17.946
 422	1	9	0.123845	36.7831	15.5391	-17.7217
 423	1	9	0.138418	37.4512	17.1504	-17.6787
 424	1	6	0.21348	36.1263	14.5571	-22.4114
 425	1	1	0.486064	33.9099	12.2156	-10.7779
 426	1	2	0.047133	34.4377	12.7277	-9.59715
 427	1	3	0.001076	33.2647	12.8807	-8.71094
 428	1	2	0.034038	32.5516	11.8993	-10.7023
 429	1	3	0.050122	32.1481	12.3944	-9.36356
 430	1	5	-0.383076	35.5413	13.2153	-9.41259
 431	1	5	-0.380811	31.8066	11.5636	-11.6118
 432	1	3	-0.001248	33.1638	13.6199	-7.52774
 433	1	3	-0.036565	30.8699	12.5998	-8.84589
 434	1	3	-0.208842	30.7536	13.3258	-7.64398
 435	1	3	-0.065319	31.8837	13.86	-6.96861
 436	1	6	0.153391	34.0638	14.0438	-7.09063
 437	1	6	0.155343	29.992	12.2553	-9.38943
 438	1	6	0.174191	29.7495	13.4869	-7.27731
 439	1	7	-0.106637	31.7572	14.7564	-5.70077
 440	1	7	0.445763	30.29	15.2658	-5.42547
 441	1	8	-0.144255	29.4382	14.2755	-5.08679
 442	1	8	-0.136881	29.7773	15.886	-6.51511
 443	1	8	-0.144092	30.219	16.1672	-4.42205
 444	1	7	0.367264	32.2557	13.8723	-4.48836
 445	1	8	-0.12104	31.9133	14.3714	-3.28257
 446	1	8	-0.122614	33.6008	13.7475	-4.4845
 447	1	8	-0.112321	31.7542	12.6131	-4.53732
 448	1	3	-0.021957	32.5923	16.0459	-5.93366
 449	1	3	-0.054241	32.6185	16.6484	-7.22067
 450	1	3	-0.111709	33.4363	17.7678	-7.42594
 451	1	3	-0.087244	33.3091	16.6751	-4.8808
 452	1	3	-0.118951	34.1059	17.8103	-5.10653
 453	1	3	-0.044875	34.1688	18.3288	-6.40124
 454	1	2	0.461883	34.892	19.5199	-6.92151
 455	1	1	-0.007433	34.5513	19.59	-8.26428
 456	1	2	0.491356	33.7005	18.5595	-8.65286
 457	1	3	-0.019445	34.984	20.6379	-9.12023
 458	1	3	-0.186861	34.1479	21.758	-9.2592
 459	1	3	-0.068374	34.5193	22.8213	-10.0903
 460	1	3	-0.009193	36.2277	20.5795	-9.79255
 461	1	3	0.220761	36.6065	21.6636	-10.6298
 462	1	3	-0.402098	35.7323	22.7652	-10.787
 463	1	6	0.148422	33.2125	21.8136	-8.71449
 464	1	6	0.146291	33.8654	23.688	-10.1888
 465	1	6	0.158981	34.6733	18.267	-4.29858
 466	1	6	0.141813	33.2668	16.2826	-3.87041
 467	1	6	0.143633	32.0458	16.2461	-8.05876
 468	1	5	-0.474465	33.2914	18.295	-9.76797
 469	1	5	-0.469737	35.5978	20.2801	-6.27857
 470	1	7	-0.37887	37.1133	19.3402	-9.57978
 471	1	9	0.115886	37.9675	19.2684	-10.2543
 472	1	9	0.123845	36.536	18.4238	-9.73762
 473	1	9	0.138418	37.5118	19.3128	-8.55462
 474	1	6	0.21348	36.0195	23.5996	-11.4248
 475	1	1	0.486064	29.8519	20.8397	-9.48505
 476	1	2	0.047133	30.6392	21.7044	-10.2507
 477	1	3	0.001076	31.2072	20.8418	-11.3377
 478	1	2	0.034038	29.898	19.5257	-9.93998
 479	1	3	0.050122	30.7537	19.5513	-11.147
 480	1	5	-0.383076	30.7856	22.9101	-10.1064
 481	1	5	-0.380811	29.3321	18.5509	-9.47859
 482	1	3	-0.001248	31.9699	21.1824	-12.4699
 483	1	3	-0.036565	31.0594	18.5269	-12.045
 484	1	3	-0.208842	31.8072	18.8604	-13.1915
 485	1	3	-0.065319	32.282	20.1835	-13.4361
 486	1	6	0.153391	32.2645	22.2179	-12.6072
 487	1	6	0.155343	30.6937	17.5154	-11.8812
 488	1	6	0.174191	31.9967	18.0619	-13.9042
 489	1	7	-0.106637	33.0282	20.5137	-14.779
 490	1	7	0.445763	34.1515	21.613	-14.6575
 491	1	8	-0.144255	34.9737	21.559	-15.7307
 492	1	8	-0.136881	34.9366	21.4477	-13.568
 493	1	8	-0.144092	33.6747	22.8749	-14.6066
 494	1	7	0.367264	31.9283	21.0346	-15.7933
 495	1	8	-0.12104	31.0336	20.0812	-16.13
 496	1	8	-0.122614	32.4375	21.5142	-16.9481
 497	1	8	-0.112321	31.1874	22.0354	-15.2635
 498	1	3	-0.021957	33.7726	19.2277	-15.2491
 499	1	3	-0.054241	34.6232	18.5665	-14.3256
 500	1	3	-0.111709	35.1073	17.2947	-14.6438
 501	1	3	-0.087244	33.5709	18.6269	-16.5277
 502	1	3	-0.118951	34.0694	17.3437	-16.8334
 503	1	3	-0.044875	34.7856	16.6789	-15.8378
 504	1	2	0.461883	35.0789	15.2307	-15.7114
 505	1	1	-0.007433	35.5075	15.0715	-14.4034
 506	1	2	0.491356	35.6924	16.2776	-13.7354
 507	1	3	-0.019445	35.4492	13.8167	-13.7492
 508	1	3	-0.186861	36.2376	12.7641	-14.2418
 509	1	3	-0.068374	36.2321	11.5168	-13.6132
 510	1	3	-0.009193	34.574	13.604	-12.6543
 511	1	3	0.220761	34.6141	12.3526	-11.9971
 512	1	3	-0.402098	35.4484	11.3177	-12.4704
 513	1	6	0.148422	36.8821	12.9227	-15.1035
 514	1	6	0.146291	36.8722	10.7212	-13.9895
 515	1	6	0.158981	33.815	16.8404	-17.7661
 516	1	6	0.141813	32.9731	19.113	-17.2891
 517	1	6	0.143633	34.7872	18.9555	-13.3219
 518	1	5	-0.474465	35.9967	16.4478	-12.5652
 519	1	5	-0.469737	34.8641	14.3692	-16.5523
 520	1	7	-0.37887	33.5873	14.6873	-12.1602
 521	1	9	0.115886	32.5904	14.2704	-11.9738
 522	1	9	0.123845	33.4045	15.4875	-12.8832
 523	1	9	0.138418	33.9432	15.1675	-11.2383
 524	1	6	0.21348	35.5057	10.3708	-11.9429
 525	1	3	-0.004194	18.9345	23.069	-7.5543
 526	1	3	-0.097141	19.0715	22.9823	-8.97537
 527	1	3	-0.172015	18.2085	22.0935	-9.67575
 528	1	5	-0.377994	17.7907	23.1714	-4.6329
 529	1	3	0.033493	17.8759	22.3834	-6.92078
 530	1	3	-0.063739	17.1735	21.4005	-9.01921
 531	1	5	-0.398381	14.8271	20.7185	-7.21368
 532	1	3	0.032144	17.003	21.6048	-7.65052
 533	1	2	0.032313	17.3139	22.5055	-5.53781
 534	1	1	0.461698	16.0891	21.8201	-5.56469
 535	1	2	0.091945	15.8494	21.2366	-6.80397
 536	1	3	-0.10563	23.2233	25.3391	-8.02106
 537	1	7	-0.099376	19.9845	23.9858	-9.75589
 538	1	3	-0.043296	21.3669	24.0562	-9.03445
 539	1	3	-0.073043	21.9508	25.29	-8.62074
 540	1	3	-0.117827	23.9343	24.1481	-7.88002
 541	1	3	-0.037562	22.106	22.8578	-8.82449
 542	1	3	-0.083705	23.3922	22.9411	-8.27032
 543	1	7	0.396	19.1695	25.3474	-9.77687
 544	1	7	0.310495	20.265	23.6027	-11.2746
 545	1	8	-0.130298	17.9144	25.1682	-10.2581
 546	1	8	-0.128745	19.7294	26.3323	-10.5256
 547	1	8	-0.120019	18.9969	25.8406	-8.53171
 548	1	8	-0.104287	19.1767	23.6603	-12.0749
 549	1	8	-0.095507	20.7976	22.3671	-11.4162
 550	1	8	-0.104872	21.1372	24.4504	-11.8548
 551	1	2	0.456145	24.454	21.9101	-8.14441
 552	1	2	0.550902	25.3549	23.9342	-7.50318
 553	1	1	0.015704	25.5868	22.5845	-7.70432
 554	1	5	-0.456801	24.3747	20.7592	-8.53025
 555	1	5	-0.487703	26.1482	24.7811	-7.13703
 556	1	3	-0.116566	26.8568	21.9772	-7.51196
 557	1	3	-0.050109	27.7453	21.8214	-8.60583
 558	1	3	0.154929	29.014	21.2193	-8.38965
 559	1	3	0.041555	27.2384	21.5976	-6.20908
 560	1	3	-0.223109	28.4986	21.0375	-6.0033
 561	1	3	-0.080449	29.3726	20.8362	-7.07798
 562	1	7	-0.108008	26.3336	21.8189	-5.00322
 563	1	7	-0.182228	30.6921	20.1513	-6.78813
 564	1	7	-0.345523	27.3125	22.306	-9.99647
 565	1	6	0.155183	19.5381	23.761	-6.97158
 566	1	6	0.172904	18.2642	21.9748	-10.7502
 567	1	6	0.158028	16.4533	20.802	-9.5709
 568	1	6	0.153129	23.6863	26.2892	-7.76034
 569	1	6	0.142914	21.4506	26.2394	-8.78112
 570	1	6	0.135531	21.7203	21.8935	-9.14311
 571	1	6	0.17765	28.7952	20.7439	-4.99777
 572	1	9	0.046541	25.4969	21.1132	-5.00485
 573	1	9	0.045238	25.9269	22.8347	-4.98523
 574	1	9	0.051941	26.8759	21.6828	-4.06131
 575	1	9	0.087961	30.6621	19.104	-7.10942
 576	1	9	0.066782	30.9257	20.1613	-5.71673
 577	1	9	0.075908	31.5236	20.6465	-7.29817
 578	1	9	0.105172	26.2554	22.1064	-10.2038
 579	1	9	0.115625	27.8625	21.8252	-10.8125
 580	1	9	0.140296	27.4739	23.3885	-10.0907
 581	1	3	-0.004194	9.13819	16.6666	1.84414
 582	1	3	-0.097141	9.85826	15.5577	1.32667
 583	1	3	-0.172015	9.14971	14.6426	0.487118
 584	1	5	-0.377994	6.94051	18.58	2.93005
 585	1	3	0.033493	7.75374	16.7427	1.5979
 586	1	3	-0.063739	7.77683	14.7816	0.194904
 587	1	5	-0.398381	4.77684	15.6415	0.0829699
 588	1	3	0.032144	7.08871	15.8346	0.792144
 589	1	2	0.032313	6.73278	17.6641	2.15541
 590	1	1	0.461698	5.51816	17.2734	1.59296
 591	1	2	0.091945	5.64455	16.1889	0.740038
 592	1	3	-0.10563	13.9368	18.2953	1.58587
 593	1	7	-0.099376	11.3556	15.3462	1.73504
 594	1	3	-0.043296	12.1639	16.5974	1.28106
 595	1	3	-0.073043	13.1932	17.1953	2.07087
 596	1	3	-0.117827	13.6617	18.7858	0.300595
 597	1	3	-0.037562	11.9241	17.1265	-0.0195941
 598	1	3	-0.083705	12.6896	18.2053	-0.484571
 599	1	7	0.396	12.0051	14.0833	1.03401
 600	1	7	0.310495	11.409	15.0752	3.29651
 601	1	8	-0.130298	13.3321	13.9554	1.26269
 602	1	8	-0.128745	11.9127	14.1371	-0.313097
 603	1	8	-0.120019	11.4334	12.927	1.45701
 604	1	8	-0.104287	10.4572	14.2032	3.70283
 605	1	8	-0.095507	11.2029	16.2094	4.00285
 606	1	8	-0.104872	12.575	14.5267	3.71516
 607	1	2	0.456145	12.631	18.9453	-1.78072
 608	1	2	0.550902	14.2688	19.9138	-0.473716
 609	1	1	0.015704	13.5848	19.9573	-1.68728
 610	1	5	-0.456801	11.8198	18.7347	-2.66483
 611	1	5	-0.487703	15.1924	20.6247	-0.108246
 612	1	3	-0.116566	13.7967	20.9685	-2.68162
 613	1	3	-0.050109	14.8712	20.8812	-3.61298
 614	1	3	0.154929	15.0628	21.914	-4.56885
 615	1	3	0.041555	12.9057	22.0715	-2.75153
 616	1	3	-0.223109	13.1006	23.0644	-3.71939
 617	1	3	-0.080449	14.1779	23.0137	-4.60697
 618	1	7	-0.108008	11.7445	22.2708	-1.77786
 619	1	7	-0.182228	14.3547	24.1538	-5.59555
 620	1	7	-0.345523	15.8125	19.6835	-3.6605
 621	1	6	0.155183	9.61414	17.404	2.48626
 622	1	6	0.172904	9.62686	13.7669	0.0638542
 623	1	6	0.158028	7.24805	14.0612	-0.424325
 624	1	6	0.153129	14.7101	18.7589	2.1987
 625	1	6	0.142914	13.4408	16.8113	3.05701
 626	1	6	0.135531	11.1695	16.6964	-0.671228
 627	1	6	0.17765	12.4069	23.8983	-3.77454
 628	1	9	0.046541	11.9315	21.82	-0.798133
 629	1	9	0.045238	10.8216	21.8463	-2.19056
 630	1	9	0.051941	11.5636	23.338	-1.59725
 631	1	9	0.087961	15.3449	24.6113	-5.49466
 632	1	9	0.066782	13.6141	24.9448	-5.44086
 633	1	9	0.075908	14.2416	23.8036	-6.62571
 634	1	9	0.105172	15.6016	18.918	-2.90739
 635	1	9	0.115625	16.857	19.9984	-3.52198
 636	1	9	0.140296	15.7398	19.1978	-4.64352
 637	1	3	-0.004194	1.85007	27.9734	-3.72047
 638	1	3	-0.097141	2.1708	26.6824	-3.20778
 639	1	3	-0.172015	3.48514	26.403	-2.74924
 640	1	5	-0.377994	1.71957	30.9999	-4.26796
 641	1	3	0.033493	2.85748	28.9465	-3.73303
 642	1	3	-0.063739	4.45955	27.4054	-2.74005
 643	1	5	-0.398381	6.04641	30.1118	-2.81183
 644	1	3	0.032144	4.12485	28.6663	-3.24844
 645	1	2	0.032313	2.73981	30.4091	-3.9577
 646	1	1	0.461698	3.97842	30.9335	-3.56636
 647	1	2	0.091945	4.88447	29.9488	-3.16994
 648	1	3	-0.10563	1.68707	24.587	0.57099
 649	1	7	-0.099376	1.16116	25.5155	-3.17956
 650	1	3	-0.043296	1.41095	24.6729	-1.90109
 651	1	3	-0.073043	1.46941	25.3037	-0.625387
 652	1	3	-0.117827	1.88497	23.2136	0.462036
 653	1	3	-0.037562	1.58452	23.2709	-1.94898
 654	1	3	-0.083705	1.82484	22.5812	-0.75941