

################################################################################
##################################    Init    ##################################
################################################################################
units           real
atom_style      full
pair_style      lj/cut/coul/long 12.0  12.0
kspace_style    pppm 1e-4
bond_style      harmonic
angle_style     harmonic
dihedral_style  fourier
improper_style  cvff
special_bonds   amber
pair_modify     mix arithmetic
read_data       temp.lmps
  orthogonal box = (-103.268 -103.268 -103.268) to (103.268 103.268 103.268)
  2 by 2 by 4 MPI processor grid
  reading atoms ...
  536 atoms
  reading velocities ...
  536 velocities
  scanning bonds ...
  3 = max bonds/atom
  scanning angles ...
  6 = max angles/atom
  scanning dihedrals ...
  24 = max dihedrals/atom
  scanning impropers ...
  2 = max impropers/atom
  reading bonds ...
  585 bonds
  reading angles ...
  1028 angles
  reading dihedrals ...
  1540 dihedrals
  reading impropers ...
  160 impropers
  4 = max # of 1-2 neighbors
  10 = max # of 1-3 neighbors
  20 = max # of 1-4 neighbors
  22 = max # of special neighbors
  special bonds CPU = 0.000794172 secs
  read_data CPU = 0.0184991 secs
################################################################################

min_style cg
minimize 1e-05 1e-05 10000 100000
WARNING: Using 'neigh_modify every 1 delay 0 check yes' setting during minimization (../min.cpp:190)
PPPM initialization ...
  using 12-bit tables for long-range coulomb (../kspace.cpp:332)
  G vector (1/distance) = 0.084262
  grid = 15 15 15
  stencil order = 5
  estimated absolute RMS force accuracy = 0.0355843
  estimated relative force accuracy = 0.000107161
  using double precision KISS FFT
  3d grid and FFT values/proc = 1521 256
Neighbor list info ...
  update every 1 steps, delay 0 steps, check yes
  max neighbors/atom: 2000, page size: 100000
  master list distance cutoff = 14
  ghost atom cutoff = 14
  binsize = 7, bins = 30 30 30
  1 neighbor lists, perpetual/occasional/extra = 1 0 0
  (1) pair lj/cut/coul/long, perpetual
      attributes: half, newton on
      pair build: half/bin/newton
      stencil: half/bin/3d/newton
      bin: standard
Per MPI rank memory allocation (min/avg/max) = 18.8 | 19.05 | 19.62 Mbytes
Step Temp E_pair E_mol TotEng Press 
       0    1937.7682    207.57492    856.51448    4154.3131    16.416131 
       5    1937.7682     204.3586    852.20223    4146.7845    16.627037 
Loop time of 0.150378 on 16 procs for 5 steps with 536 atoms

94.5% CPU use with 16 MPI tasks x no OpenMP threads

Minimization stats:
  Stopping criterion = linesearch alpha is zero
  Energy initial, next-to-last, final = 
         1064.08940356      1056.56082553      1056.56082553
  Force two-norm initial, final = 64.403 47.1356
  Force max component initial, final = 7.02276 7.43794
  Final line search alpha, max atom move = 4.66172e-12 3.46736e-11
  Iterations, force evaluations = 5 71

MPI task timing breakdown:
Section |  min time  |  avg time  |  max time  |%varavg| %total
---------------------------------------------------------------
Pair    | 7.8678e-06 | 0.016798   | 0.10285    |  21.0 | 11.17
Bond    | 2.1696e-05 | 0.002485   | 0.011211   |   7.4 |  1.65
Kspace  | 0.03319    | 0.12845    | 0.14825    |   8.6 | 85.42
Neigh   | 0          | 0          | 0          |   0.0 |  0.00
Comm    | 3.1471e-05 | 0.0011249  | 0.0024707  |   3.2 |  0.75
Output  | 0          | 0          | 0          |   0.0 |  0.00
Modify  | 0          | 0          | 0          |   0.0 |  0.00
Other   |            | 0.001521   |            |       |  1.01

Nlocal:    33.5 ave 145 max 0 min
Histogram: 10 0 1 1 0 1 0 1 1 1
Nghost:    190.75 ave 474 max 0 min
Histogram: 8 0 0 0 0 0 1 3 3 1
Neighs:    2979.94 ave 18871 max 0 min
Histogram: 10 1 1 2 1 0 0 0 0 1

Total # of neighbors = 47679
Ave neighs/atom = 88.9534
Ave special neighs/atom = 11.056
Neighbor list builds = 0
Dangerous builds = 0
timestep        1
fix             pysimm_md all nvt temp 300 300 100
run             5000
PPPM initialization ...
  using 12-bit tables for long-range coulomb (../kspace.cpp:332)
  G vector (1/distance) = 0.084262
  grid = 15 15 15
  stencil order = 5
  estimated absolute RMS force accuracy = 0.0355843
  estimated relative force accuracy = 0.000107161
  using double precision KISS FFT
  3d grid and FFT values/proc = 1521 256
Per MPI rank memory allocation (min/avg/max) = 17.67 | 17.92 | 18.49 Mbytes
Step Temp E_pair E_mol TotEng Press 
       5    1937.7682     204.3586    852.20223    4146.7845    16.627037 
    5005    305.38294    243.83157    966.99965    1697.8356  -0.19386864 
Loop time of 3.95349 on 16 procs for 5000 steps with 536 atoms

Performance: 109.271 ns/day, 0.220 hours/ns, 1264.707 timesteps/s
94.4% CPU use with 16 MPI tasks x no OpenMP threads

MPI task timing breakdown:
Section |  min time  |  avg time  |  max time  |%varavg| %total
---------------------------------------------------------------
Pair    | 0.00049138 | 0.34329    | 2.1301     |  95.4 |  8.68
Bond    | 0.00085115 | 0.078536   | 0.33923    |  39.7 |  1.99
Kspace  | 1.2591     | 3.0921     | 3.4731     |  33.3 | 78.21
Neigh   | 0.089059   | 0.091823   | 0.094278   |   0.6 |  2.32
Comm    | 0.0066812  | 0.13354    | 0.38382    |  39.2 |  3.38
Output  | 2.3127e-05 | 2.3916e-05 | 2.8133e-05 |   0.0 |  0.00
Modify  | 0.022993   | 0.20104    | 0.37658    |  38.0 |  5.09
Other   |            | 0.0131     |            |       |  0.33

Nlocal:    33.5 ave 136 max 0 min
Histogram: 10 0 1 0 1 1 0 1 0 2
Nghost:    168.312 ave 427 max 0 min
Histogram: 8 0 0 0 0 0 3 2 1 2
Neighs:    2227.12 ave 12902 max 0 min
Histogram: 10 1 1 1 1 1 0 0 0 1

Total # of neighbors = 35634
Ave neighs/atom = 66.4813
Ave special neighs/atom = 11.056
Neighbor list builds = 153
Dangerous builds = 0
unfix pysimm_md
write_dump all custom pysimm.dump.tmp id q x y z vx vy vz
quit


################################################################################
##################################    Init    ##################################
################################################################################
units           real
atom_style      full
pair_style      lj/cut/coul/long 12.0  12.0
kspace_style    pppm 1e-4
bond_style      harmonic
angle_style     harmonic
dihedral_style  fourier
improper_style  cvff
special_bonds   amber
pair_modify     mix arithmetic
read_data       temp.lmps
  orthogonal box = (-103.268 -103.268 -103.268) to (103.268 103.268 103.268)
  2 by 2 by 4 MPI processor grid
  reading atoms ...
  530 atoms
  reading velocities ...
  530 velocities
  scanning bonds ...
  3 = max bonds/atom
  scanning angles ...
  6 = max angles/atom
  scanning dihedrals ...
  24 = max dihedrals/atom
  scanning impropers ...
  2 = max impropers/atom
  reading bonds ...
  579 bonds
  reading angles ...
  1016 angles
  reading dihedrals ...
  1528 dihedrals
  reading impropers ...
  160 impropers
  4 = max # of 1-2 neighbors
  10 = max # of 1-3 neighbors
  20 = max # of 1-4 neighbors
  22 = max # of special neighbors
  special bonds CPU = 0.000779867 secs
  read_data CPU = 0.0191948 secs
################################################################################

min_style cg
minimize 1e-05 1e-05 10000 100000
WARNING: Using 'neigh_modify every 1 delay 0 check yes' setting during minimization (../min.cpp:190)
PPPM initialization ...
  using 12-bit tables for long-range coulomb (../kspace.cpp:332)
  G vector (1/distance) = 0.0885157
  grid = 16 16 16
  stencil order = 5
  estimated absolute RMS force accuracy = 0.0324912
  estimated relative force accuracy = 9.78463e-05
  using double precision KISS FFT
  3d grid and FFT values/proc = 1521 256
Neighbor list info ...
  update every 1 steps, delay 0 steps, check yes
  max neighbors/atom: 2000, page size: 100000
  master list distance cutoff = 14
  ghost atom cutoff = 14
  binsize = 7, bins = 30 30 30
  1 neighbor lists, perpetual/occasional/extra = 1 0 0
  (1) pair lj/cut/coul/long, perpetual
      attributes: half, newton on
      pair build: half/bin/newton
      stencil: half/bin/3d/newton
      bin: standard
Per MPI rank memory allocation (min/avg/max) = 18.8 | 19.08 | 19.6 Mbytes
Step Temp E_pair E_mol TotEng Press 
       0    1892.0391    215.73069    680.75038    3879.9402     16.29451 
      27    1892.0391    207.49692    656.63651    3847.5925    15.448419 
Loop time of 0.149532 on 16 procs for 27 steps with 530 atoms

95.9% CPU use with 16 MPI tasks x no OpenMP threads

Minimization stats:
  Stopping criterion = linesearch alpha is zero
  Energy initial, next-to-last, final = 
         896.481071634      864.133426415      864.133426415
  Force two-norm initial, final = 56.716 45.0345
  Force max component initial, final = 6.10254 5.35661
  Final line search alpha, max atom move = 4.88076e-12 2.61443e-11
  Iterations, force evaluations = 27 111

MPI task timing breakdown:
Section |  min time  |  avg time  |  max time  |%varavg| %total
---------------------------------------------------------------
Pair    | 1.6451e-05 | 0.020786   | 0.083184   |  17.4 | 13.90
Bond    | 4.5061e-05 | 0.003861   | 0.013265   |   7.0 |  2.58
Kspace  | 0.047782   | 0.12047    | 0.14594    |   8.6 | 80.56
Neigh   | 0          | 0          | 0          |   0.0 |  0.00
Comm    | 4.7684e-05 | 0.0017673  | 0.0039849  |   4.1 |  1.18
Output  | 0          | 0          | 0          |   0.0 |  0.00
Modify  | 0          | 0          | 0          |   0.0 |  0.00
Other   |            | 0.002649   |            |       |  1.77

Nlocal:    33.125 ave 110 max 0 min
Histogram: 8 0 0 2 2 0 1 2 0 1
Nghost:    184.375 ave 419 max 0 min
Histogram: 8 0 0 0 0 0 0 2 3 3
Neighs:    2346.56 ave 9468 max 0 min
Histogram: 8 0 3 0 1 2 1 0 0 1

Total # of neighbors = 37545
Ave neighs/atom = 70.8396
Ave special neighs/atom = 11.0679
Neighbor list builds = 0
Dangerous builds = 0
timestep        1
fix             pysimm_md all nvt temp 300 300 100
run             5000
PPPM initialization ...
  using 12-bit tables for long-range coulomb (../kspace.cpp:332)
  G vector (1/distance) = 0.0885157
  grid = 16 16 16
  stencil order = 5
  estimated absolute RMS force accuracy = 0.0324912
  estimated relative force accuracy = 9.78463e-05
  using double precision KISS FFT
  3d grid and FFT values/proc = 1521 256
Per MPI rank memory allocation (min/avg/max) = 17.68 | 17.95 | 18.48 Mbytes
Step Temp E_pair E_mol TotEng Press 
      27    1892.0391    207.49692    656.63651    3847.5925    15.448419 
    5027    301.47997    226.80528    937.13226    1639.3258    1.5665092 
Loop time of 3.25715 on 16 procs for 5000 steps with 530 atoms

Performance: 132.631 ns/day, 0.181 hours/ns, 1535.085 timesteps/s
95.1% CPU use with 16 MPI tasks x no OpenMP threads

MPI task timing breakdown:
Section |  min time  |  avg time  |  max time  |%varavg| %total
---------------------------------------------------------------
Pair    | 0.00044775 | 0.28793    | 1.1687     |  65.7 |  8.84
Bond    | 0.00098014 | 0.084602   | 0.32407    |  34.6 |  2.60
Kspace  | 1.5342     | 2.4805     | 2.8059     |  24.5 | 76.16
Neigh   | 0.050512   | 0.053276   | 0.055879   |   0.7 |  1.64
Comm    | 0.0060856  | 0.12942    | 0.32935    |  36.6 |  3.97
Output  | 2.2888e-05 | 2.4304e-05 | 3.2187e-05 |   0.0 |  0.00
Modify  | 0.028269   | 0.20542    | 0.37899    |  37.3 |  6.31
Other   |            | 0.01597    |            |       |  0.49

Nlocal:    33.125 ave 192 max 0 min
Histogram: 8 5 0 0 1 1 0 0 0 1
Nghost:    149.875 ave 478 max 0 min
Histogram: 8 0 0 1 3 1 0 0 2 1
Neighs:    2218 ave 13789 max 0 min
Histogram: 10 2 0 2 1 0 0 0 0 1

Total # of neighbors = 35488
Ave neighs/atom = 66.9585
Ave special neighs/atom = 11.0679
Neighbor list builds = 133
Dangerous builds = 0
unfix pysimm_md
write_dump all custom pysimm.dump.tmp id q x y z vx vy vz
quit


################################################################################
##################################    Init    ##################################
################################################################################
units           real
atom_style      full
pair_style      lj/cut/coul/long 12.0  12.0
kspace_style    pppm 1e-4
bond_style      harmonic
angle_style     harmonic
dihedral_style  fourier
improper_style  cvff
special_bonds   amber
pair_modify     mix arithmetic
read_data       temp.lmps
  orthogonal box = (-106.602 -106.602 -106.602) to (106.602 106.602 106.602)
  2 by 2 by 4 MPI processor grid
  reading atoms ...
  580 atoms
  reading velocities ...
  580 velocities
  scanning bonds ...
  3 = max bonds/atom
  scanning angles ...
  6 = max angles/atom
  scanning dihedrals ...
  24 = max dihedrals/atom
  scanning impropers ...
  2 = max impropers/atom
  reading bonds ...
  634 bonds
  reading angles ...
  1112 angles
  reading dihedrals ...
  1676 dihedrals
  reading impropers ...
  176 impropers
  4 = max # of 1-2 neighbors
  10 = max # of 1-3 neighbors
  20 = max # of 1-4 neighbors
  22 = max # of special neighbors
  special bonds CPU = 0.000955105 secs
  read_data CPU = 0.0206418 secs
################################################################################

min_style cg
minimize 1e-05 1e-05 10000 100000
WARNING: Using 'neigh_modify every 1 delay 0 check yes' setting during minimization (../min.cpp:190)
PPPM initialization ...
  using 12-bit tables for long-range coulomb (../kspace.cpp:332)
  G vector (1/distance) = 0.0864054
  grid = 16 16 16
  stencil order = 5
  estimated absolute RMS force accuracy = 0.0344937
  estimated relative force accuracy = 0.000103877
  using double precision KISS FFT
  3d grid and FFT values/proc = 1521 256
Neighbor list info ...
  update every 1 steps, delay 0 steps, check yes
  max neighbors/atom: 2000, page size: 100000
  master list distance cutoff = 14
  ghost atom cutoff = 14
  binsize = 7, bins = 31 31 31
  1 neighbor lists, perpetual/occasional/extra = 1 0 0
  (1) pair lj/cut/coul/long, perpetual
      attributes: half, newton on
      pair build: half/bin/newton
      stencil: half/bin/3d/newton
      bin: standard
Per MPI rank memory allocation (min/avg/max) = 18.81 | 19.05 | 19.61 Mbytes
Step Temp E_pair E_mol TotEng Press 
       0    1344.4604    250.05344    806.02679    3376.4697    11.228407 
      15    1344.4604    244.71114    787.76462    3352.8652    11.570102 
Loop time of 0.120655 on 16 procs for 15 steps with 580 atoms

94.5% CPU use with 16 MPI tasks x no OpenMP threads

Minimization stats:
  Stopping criterion = linesearch alpha is zero
  Energy initial, next-to-last, final = 
         1056.08022863      1032.47575444      1032.47575444
  Force two-norm initial, final = 76.8512 47.7992
  Force max component initial, final = 10.0243 5.56478
  Final line search alpha, max atom move = 4.65276e-12 2.58916e-11
  Iterations, force evaluations = 15 89

MPI task timing breakdown:
Section |  min time  |  avg time  |  max time  |%varavg| %total
---------------------------------------------------------------
Pair    | 1.2875e-05 | 0.016715   | 0.063566   |  16.5 | 13.85
Bond    | 4.0054e-05 | 0.0034148  | 0.011446   |   7.5 |  2.83
Kspace  | 0.04109    | 0.096642   | 0.11755    |   8.4 | 80.10
Neigh   | 0          | 0          | 0          |   0.0 |  0.00
Comm    | 5.2214e-05 | 0.0015404  | 0.0035086  |   3.8 |  1.28
Output  | 0          | 0          | 0          |   0.0 |  0.00
Modify  | 0          | 0          | 0          |   0.0 |  0.00
Other   |            | 0.002344   |            |       |  1.94

Nlocal:    36.25 ave 123 max 0 min
Histogram: 8 0 3 1 0 0 0 1 0 3
Nghost:    190.625 ave 463 max 0 min
Histogram: 8 0 0 0 0 0 2 1 3 2
Neighs:    2426.06 ave 9262 max 0 min
Histogram: 9 1 0 1 1 0 1 2 0 1

Total # of neighbors = 38817
Ave neighs/atom = 66.9259
Ave special neighs/atom = 11.0793
Neighbor list builds = 0
Dangerous builds = 0
timestep        1
fix             pysimm_md all nvt temp 300 300 100
run             5000
PPPM initialization ...
  using 12-bit tables for long-range coulomb (../kspace.cpp:332)
  G vector (1/distance) = 0.0864054
  grid = 16 16 16
  stencil order = 5
  estimated absolute RMS force accuracy = 0.0344937
  estimated relative force accuracy = 0.000103877
  using double precision KISS FFT
  3d grid and FFT values/proc = 1521 256
Per MPI rank memory allocation (min/avg/max) = 17.68 | 17.92 | 18.49 Mbytes
Step Temp E_pair E_mol TotEng Press 
      15    1344.4604    244.71114    787.76462    3352.8652    11.570102 
    5015    292.30114    241.19659    1041.6166    1787.2925    1.0888943 
Loop time of 3.24319 on 16 procs for 5000 steps with 580 atoms

Performance: 133.202 ns/day, 0.180 hours/ns, 1541.694 timesteps/s
95.5% CPU use with 16 MPI tasks x no OpenMP threads

MPI task timing breakdown:
Section |  min time  |  avg time  |  max time  |%varavg| %total
---------------------------------------------------------------
Pair    | 0.00051212 | 0.345      | 1.3878     |  80.3 | 10.64
Bond    | 0.00094032 | 0.092312   | 0.34986    |  42.7 |  2.85
Kspace  | 1.2718     | 2.3704     | 2.7564     |  33.1 | 73.09
Neigh   | 0.069483   | 0.072954   | 0.077152   |   1.0 |  2.25
Comm    | 0.0067754  | 0.12976    | 0.38083    |  39.3 |  4.00
Output  | 2.2888e-05 | 2.3931e-05 | 3.0994e-05 |   0.0 |  0.00
Modify  | 0.033556   | 0.21638    | 0.39224    |  36.9 |  6.67
Other   |            | 0.01632    |            |       |  0.50

Nlocal:    36.25 ave 139 max 0 min
Histogram: 10 1 0 0 1 0 0 0 2 2
Nghost:    172 ave 469 max 0 min
Histogram: 8 0 0 0 0 1 5 0 0 2
Neighs:    2872 ave 11543 max 0 min
Histogram: 10 0 1 0 1 0 1 1 0 2

Total # of neighbors = 45952
Ave neighs/atom = 79.2276
Ave special neighs/atom = 11.0793
Neighbor list builds = 162
Dangerous builds = 0
unfix pysimm_md
write_dump all custom pysimm.dump.tmp id q x y z vx vy vz
quit


################################################################################
##################################    Init    ##################################
################################################################################
units           real
atom_style      full
pair_style      lj/cut/coul/long 12.0  12.0
kspace_style    pppm 1e-4
bond_style      harmonic
angle_style     harmonic
dihedral_style  fourier
improper_style  cvff
special_bonds   amber
pair_modify     mix arithmetic
read_data       temp.lmps
  orthogonal box = (-109.739 -109.739 -109.739) to (109.739 109.739 109.739)
  2 by 2 by 4 MPI processor grid
  reading atoms ...
  636 atoms
  reading velocities ...
  636 velocities
  scanning bonds ...
  3 = max bonds/atom
  scanning angles ...
  6 = max angles/atom
  scanning dihedrals ...
  24 = max dihedrals/atom
  scanning impropers ...
  2 = max impropers/atom
  reading bonds ...
  695 bonds
  reading angles ...
  1220 angles
  reading dihedrals ...
  1836 dihedrals
  reading impropers ...
  192 impropers
  4 = max # of 1-2 neighbors
  10 = max # of 1-3 neighbors
  20 = max # of 1-4 neighbors
  22 = max # of special neighbors
  special bonds CPU = 0.00138211 secs
  read_data CPU = 0.0215321 secs
################################################################################

min_style cg
minimize 1e-05 1e-05 10000 100000
WARNING: Using 'neigh_modify every 1 delay 0 check yes' setting during minimization (../min.cpp:190)
PPPM initialization ...
  using 12-bit tables for long-range coulomb (../kspace.cpp:332)
  G vector (1/distance) = 0.0845065
  grid = 16 16 16
  stencil order = 5
  estimated absolute RMS force accuracy = 0.0359012
  estimated relative force accuracy = 0.000108115
  using double precision KISS FFT
  3d grid and FFT values/proc = 1521 256
Neighbor list info ...
  update every 1 steps, delay 0 steps, check yes
  max neighbors/atom: 2000, page size: 100000
  master list distance cutoff = 14
  ghost atom cutoff = 14
  binsize = 7, bins = 32 32 32
  1 neighbor lists, perpetual/occasional/extra = 1 0 0
  (1) pair lj/cut/coul/long, perpetual
      attributes: half, newton on
      pair build: half/bin/newton
      stencil: half/bin/3d/newton
      bin: standard
Per MPI rank memory allocation (min/avg/max) = 18.81 | 19.09 | 19.63 Mbytes
Step Temp E_pair E_mol TotEng Press 
       0    2240.1089    249.42855    1072.1122    5561.6512    18.556579 
       1    2240.1089    249.42855    1072.1122    5561.6512    18.556579 
Loop time of 0.148694 on 16 procs for 1 steps with 636 atoms

95.0% CPU use with 16 MPI tasks x no OpenMP threads

Minimization stats:
  Stopping criterion = linesearch alpha is zero
  Energy initial, next-to-last, final = 
           1321.540745        1321.540745        1321.540745
  Force two-norm initial, final = 67.438 67.438
  Force max component initial, final = 6.64709 6.64709
  Final line search alpha, max atom move = 1.75137e-12 1.16415e-11
  Iterations, force evaluations = 1 66

MPI task timing breakdown:
Section |  min time  |  avg time  |  max time  |%varavg| %total
---------------------------------------------------------------
Pair    | 1.0014e-05 | 0.019327   | 0.10208    |  19.2 | 13.00
Bond    | 2.7657e-05 | 0.0024956  | 0.010417   |   6.1 |  1.68
Kspace  | 0.032655   | 0.124      | 0.14644    |   8.5 | 83.40
Neigh   | 0          | 0          | 0          |   0.0 |  0.00
Comm    | 3.5048e-05 | 0.0012427  | 0.0029023  |   3.4 |  0.84
Output  | 0          | 0          | 0          |   0.0 |  0.00
Modify  | 0          | 0          | 0          |   0.0 |  0.00
Other   |            | 0.001626   |            |       |  1.09

Nlocal:    39.75 ave 157 max 0 min
Histogram: 8 1 2 0 1 2 1 0 0 1
Nghost:    244.25 ave 557 max 0 min
Histogram: 8 0 0 0 0 0 0 1 4 3
Neighs:    4151.38 ave 19449 max 0 min
Histogram: 8 1 2 2 1 1 0 0 0 1

Total # of neighbors = 66422
Ave neighs/atom = 104.437
Ave special neighs/atom = 11.0786
Neighbor list builds = 0
Dangerous builds = 0
timestep        1
fix             pysimm_md all nvt temp 300 300 100
run             5000
PPPM initialization ...
  using 12-bit tables for long-range coulomb (../kspace.cpp:332)
  G vector (1/distance) = 0.0845065
  grid = 16 16 16
  stencil order = 5
  estimated absolute RMS force accuracy = 0.0359012
  estimated relative force accuracy = 0.000108115
  using double precision KISS FFT
  3d grid and FFT values/proc = 1521 256
Per MPI rank memory allocation (min/avg/max) = 17.68 | 17.97 | 18.5 Mbytes
Step Temp E_pair E_mol TotEng Press 
       1    2240.1089    249.42855    1072.1122    5561.6512    18.556579 
    5001    295.47428    258.37457    1149.3184    1966.9709   -3.6118262 
Loop time of 4.39153 on 16 procs for 5000 steps with 636 atoms

Performance: 98.371 ns/day, 0.244 hours/ns, 1138.555 timesteps/s
94.7% CPU use with 16 MPI tasks x no OpenMP threads

MPI task timing breakdown:
Section |  min time  |  avg time  |  max time  |%varavg| %total
---------------------------------------------------------------
Pair    | 0.00048375 | 0.44081    | 2.1083     |  89.3 | 10.04
Bond    | 0.00089741 | 0.091273   | 0.39219    |  39.0 |  2.08
Kspace  | 1.6212     | 3.3513     | 3.8327     |  34.3 | 76.31
Neigh   | 0.097277   | 0.10029    | 0.10367    |   0.7 |  2.28
Comm    | 0.0066087  | 0.1588     | 0.40778    |  41.4 |  3.62
Output  | 2.3842e-05 | 2.4527e-05 | 3.1948e-05 |   0.0 |  0.00
Modify  | 0.025221   | 0.23458    | 0.44061    |  41.5 |  5.34
Other   |            | 0.01447    |            |       |  0.33

Nlocal:    39.75 ave 220 max 0 min
Histogram: 9 2 2 0 1 1 0 0 0 1
Nghost:    202.125 ave 499 max 0 min
Histogram: 8 0 0 0 0 0 1 3 3 1
Neighs:    2873.31 ave 19426 max 0 min
Histogram: 10 0 5 0 0 0 0 0 0 1

Total # of neighbors = 45973
Ave neighs/atom = 72.2846
Ave special neighs/atom = 11.0786
Neighbor list builds = 150
Dangerous builds = 0
unfix pysimm_md
write_dump all custom pysimm.dump.tmp id q x y z vx vy vz
quit


################################################################################
##################################    Init    ##################################
################################################################################
units           real
atom_style      full
pair_style      lj/cut/coul/long 12.0  12.0
kspace_style    pppm 1e-4
bond_style      harmonic
angle_style     harmonic
dihedral_style  fourier
improper_style  cvff
special_bonds   amber
pair_modify     mix arithmetic
read_data       temp.lmps
  orthogonal box = (-114.659 -114.659 -114.659) to (114.659 114.659 114.659)
  2 by 2 by 4 MPI processor grid
  reading atoms ...
  686 atoms
  reading velocities ...
  686 velocities
  scanning bonds ...
  3 = max bonds/atom
  scanning angles ...
  6 = max angles/atom
  scanning dihedrals ...
  24 = max dihedrals/atom
  scanning impropers ...
  2 = max impropers/atom
  reading bonds ...
  750 bonds
  reading angles ...
  1316 angles
  reading dihedrals ...
  1984 dihedrals
  reading impropers ...
  208 impropers
  4 = max # of 1-2 neighbors
  10 = max # of 1-3 neighbors
  20 = max # of 1-4 neighbors
  22 = max # of special neighbors
  special bonds CPU = 0.00146699 secs
  read_data CPU = 0.023324 secs
################################################################################

min_style cg
minimize 1e-05 1e-05 10000 100000
WARNING: Using 'neigh_modify every 1 delay 0 check yes' setting during minimization (../min.cpp:190)
PPPM initialization ...
  using 12-bit tables for long-range coulomb (../kspace.cpp:332)
  G vector (1/distance) = 0.0893959
  grid = 18 18 18
  stencil order = 5
  estimated absolute RMS force accuracy = 0.0311323
  estimated relative force accuracy = 9.37539e-05
  using double precision KISS FFT
  3d grid and FFT values/proc = 1960 648
Neighbor list info ...
  update every 1 steps, delay 0 steps, check yes
  max neighbors/atom: 2000, page size: 100000
  master list distance cutoff = 14
  ghost atom cutoff = 14
  binsize = 7, bins = 33 33 33
  1 neighbor lists, perpetual/occasional/extra = 1 0 0
  (1) pair lj/cut/coul/long, perpetual
      attributes: half, newton on
      pair build: half/bin/newton
      stencil: half/bin/3d/newton
      bin: standard
Per MPI rank memory allocation (min/avg/max) = 18.85 | 19.1 | 19.63 Mbytes
Step Temp E_pair E_mol TotEng Press 
       0    2169.1385     320.7738    964.44813     5714.288    16.900237 
       9    2169.1385    322.86434    952.66974    5704.6001    17.170037 
Loop time of 0.148344 on 16 procs for 9 steps with 686 atoms

95.1% CPU use with 16 MPI tasks x no OpenMP threads

Minimization stats:
  Stopping criterion = linesearch alpha is zero
  Energy initial, next-to-last, final = 
         1285.22192848      1275.53407822      1275.53407822
  Force two-norm initial, final = 66.6995 54.1142
  Force max component initial, final = 7.29848 6.86014
  Final line search alpha, max atom move = 3.9183e-12 2.68801e-11
  Iterations, force evaluations = 9 77

MPI task timing breakdown:
Section |  min time  |  avg time  |  max time  |%varavg| %total
---------------------------------------------------------------
Pair    | 1.2159e-05 | 0.015314   | 0.076129   |  18.7 | 10.32
Bond    | 3.8147e-05 | 0.0034209  | 0.014522   |   8.2 |  2.31
Kspace  | 0.054366   | 0.12657    | 0.14595    |   7.9 | 85.32
Neigh   | 0          | 0          | 0          |   0.0 |  0.00
Comm    | 5.3167e-05 | 0.0012575  | 0.0022862  |   2.4 |  0.85
Output  | 0          | 0          | 0          |   0.0 |  0.00
Modify  | 0          | 0          | 0          |   0.0 |  0.00
Other   |            | 0.001781   |            |       |  1.20

Nlocal:    42.875 ave 184 max 0 min
Histogram: 10 0 1 0 1 0 2 1 0 1
Nghost:    131.312 ave 352 max 0 min
Histogram: 8 0 0 1 0 2 1 0 1 3
Neighs:    2440.56 ave 12637 max 0 min
Histogram: 10 1 0 0 3 0 1 0 0 1

Total # of neighbors = 39049
Ave neighs/atom = 56.9227
Ave special neighs/atom = 11.0875
Neighbor list builds = 0
Dangerous builds = 0
timestep        1
fix             pysimm_md all nvt temp 300 300 100
run             5000
PPPM initialization ...
  using 12-bit tables for long-range coulomb (../kspace.cpp:332)
  G vector (1/distance) = 0.0893959
  grid = 18 18 18
  stencil order = 5
  estimated absolute RMS force accuracy = 0.0311323
  estimated relative force accuracy = 9.37539e-05
  using double precision KISS FFT
  3d grid and FFT values/proc = 1960 648
Per MPI rank memory allocation (min/avg/max) = 17.72 | 17.98 | 18.51 Mbytes
Step Temp E_pair E_mol TotEng Press 
       9    2169.1385    322.86434    952.66974    5704.6001    17.170037 
    5009    329.61752    327.33499    1182.8498     2183.216   0.54486411 
Loop time of 3.90887 on 16 procs for 5000 steps with 686 atoms

Performance: 110.518 ns/day, 0.217 hours/ns, 1279.144 timesteps/s
95.5% CPU use with 16 MPI tasks x no OpenMP threads

MPI task timing breakdown:
Section |  min time  |  avg time  |  max time  |%varavg| %total
---------------------------------------------------------------
Pair    | 0.00048304 | 0.33207    | 1.5024     |  84.0 |  8.50
Bond    | 0.0010009  | 0.10185    | 0.39944    |  43.3 |  2.61
Kspace  | 1.812      | 3.0332     | 3.4235     |  29.6 | 77.60
Neigh   | 0.057999   | 0.059647   | 0.061177   |   0.4 |  1.53
Comm    | 0.0071507  | 0.13871    | 0.42678    |  38.7 |  3.55
Output  | 2.2888e-05 | 2.3633e-05 | 3.1948e-05 |   0.0 |  0.00
Modify  | 0.031904   | 0.22708    | 0.41815    |  38.4 |  5.81
Other   |            | 0.01623    |            |       |  0.42

Nlocal:    42.875 ave 158 max 0 min
Histogram: 10 0 0 1 0 0 1 2 1 1
Nghost:    130.312 ave 324 max 0 min
Histogram: 8 0 0 0 0 0 2 3 2 1
Neighs:    2684.31 ave 9530 max 0 min
Histogram: 10 0 1 0 0 1 0 0 1 3

Total # of neighbors = 42949
Ave neighs/atom = 62.6079
Ave special neighs/atom = 11.0875
Neighbor list builds = 138
Dangerous builds = 0
unfix pysimm_md
write_dump all custom pysimm.dump.tmp id q x y z vx vy vz
quit


################################################################################
##################################    Init    ##################################
################################################################################
units           real
atom_style      full
pair_style      lj/cut/coul/long 12.0  12.0
kspace_style    pppm 1e-4
bond_style      harmonic
angle_style     harmonic
dihedral_style  fourier
improper_style  cvff
special_bonds   amber
pair_modify     mix arithmetic
read_data       temp.lmps
  orthogonal box = (-115.525 -115.525 -115.525) to (115.525 115.525 115.525)
  2 by 2 by 4 MPI processor grid
  reading atoms ...
  742 atoms
  reading velocities ...
  742 velocities
  scanning bonds ...
  3 = max bonds/atom
  scanning angles ...
  6 = max angles/atom
  scanning dihedrals ...
  24 = max dihedrals/atom
  scanning impropers ...
  2 = max impropers/atom
  reading bonds ...
  811 bonds
  reading angles ...
  1424 angles
  reading dihedrals ...
  2144 dihedrals
  reading impropers ...
  224 impropers
  4 = max # of 1-2 neighbors
  10 = max # of 1-3 neighbors
  20 = max # of 1-4 neighbors
  22 = max # of special neighbors
  special bonds CPU = 0.00141716 secs
  read_data CPU = 0.0240479 secs
################################################################################

min_style cg
minimize 1e-05 1e-05 10000 100000
WARNING: Using 'neigh_modify every 1 delay 0 check yes' setting during minimization (../min.cpp:190)
PPPM initialization ...
  using 12-bit tables for long-range coulomb (../kspace.cpp:332)
  G vector (1/distance) = 0.0888926
  grid = 18 18 18
  stencil order = 5
  estimated absolute RMS force accuracy = 0.0321804
  estimated relative force accuracy = 9.69104e-05
  using double precision KISS FFT
  3d grid and FFT values/proc = 1960 648
Neighbor list info ...
  update every 1 steps, delay 0 steps, check yes
  max neighbors/atom: 2000, page size: 100000
  master list distance cutoff = 14
  ghost atom cutoff = 14
  binsize = 7, bins = 34 34 34
  1 neighbor lists, perpetual/occasional/extra = 1 0 0
  (1) pair lj/cut/coul/long, perpetual
      attributes: half, newton on
      pair build: half/bin/newton
      stencil: half/bin/3d/newton
      bin: standard
Per MPI rank memory allocation (min/avg/max) = 18.85 | 19.09 | 19.65 Mbytes
Step Temp E_pair E_mol TotEng Press 
       0    5134.6786    326.62334     1110.435    12778.435    40.271316 
       2    5134.6786    326.60004    1109.1951    12777.172    40.294957 
Loop time of 0.116864 on 16 procs for 2 steps with 742 atoms

95.3% CPU use with 16 MPI tasks x no OpenMP threads

Minimization stats:
  Stopping criterion = linesearch alpha is zero
  Energy initial, next-to-last, final = 
         1437.05830464      1435.79511965      1435.79511965
  Force two-norm initial, final = 76.0507 40.3715
  Force max component initial, final = 10.9575 6.97737
  Final line search alpha, max atom move = 5.04757e-12 3.52188e-11
  Iterations, force evaluations = 2 66

MPI task timing breakdown:
Section |  min time  |  avg time  |  max time  |%varavg| %total
---------------------------------------------------------------
Pair    | 1.049e-05  | 0.012558   | 0.053261   |  17.1 | 10.75
Bond    | 3.0041e-05 | 0.0027903  | 0.014663   |   8.3 |  2.39
Kspace  | 0.049072   | 0.098797   | 0.11466    |   7.6 | 84.54
Neigh   | 0          | 0          | 0          |   0.0 |  0.00
Comm    | 4.1246e-05 | 0.0009944  | 0.0025291  |   0.0 |  0.85
Output  | 0          | 0          | 0          |   0.0 |  0.00
Modify  | 0          | 0          | 0          |   0.0 |  0.00
Other   |            | 0.001724   |            |       |  1.48

Nlocal:    46.375 ave 211 max 0 min
Histogram: 11 0 0 1 0 0 1 2 0 1
Nghost:    159.875 ave 359 max 0 min
Histogram: 8 0 0 0 0 0 0 2 1 5
Neighs:    2607.56 ave 9883 max 0 min
Histogram: 10 1 0 0 1 0 0 1 1 2

Total # of neighbors = 41721
Ave neighs/atom = 56.2278
Ave special neighs/atom = 11.0863
Neighbor list builds = 0
Dangerous builds = 0
timestep        1
fix             pysimm_md all nvt temp 300 300 100
run             5000
PPPM initialization ...
  using 12-bit tables for long-range coulomb (../kspace.cpp:332)
  G vector (1/distance) = 0.0888926
  grid = 18 18 18
  stencil order = 5
  estimated absolute RMS force accuracy = 0.0321804
  estimated relative force accuracy = 9.69104e-05
  using double precision KISS FFT
  3d grid and FFT values/proc = 1960 648
Per MPI rank memory allocation (min/avg/max) = 17.72 | 17.97 | 18.53 Mbytes
Step Temp E_pair E_mol TotEng Press 
       2    5134.6786    326.60004    1109.1951    12777.172    40.294957 
    5002    285.05629    336.49073    1219.0719    2185.1893  -0.24728985 
Loop time of 4.52143 on 16 procs for 5000 steps with 742 atoms

Performance: 95.545 ns/day, 0.251 hours/ns, 1105.846 timesteps/s
95.2% CPU use with 16 MPI tasks x no OpenMP threads

MPI task timing breakdown:
Section |  min time  |  avg time  |  max time  |%varavg| %total
---------------------------------------------------------------
Pair    | 0.00045323 | 0.3809     | 1.7755     |  91.1 |  8.42
Bond    | 0.0010469  | 0.10757    | 0.48586    |  49.1 |  2.38
Kspace  | 1.9944     | 3.4639     | 3.9037     |  32.6 | 76.61
Neigh   | 0.08306    | 0.086491   | 0.090316   |   0.8 |  1.91
Comm    | 0.0067918  | 0.18454    | 0.52003    |  47.4 |  4.08
Output  | 2.408e-05  | 2.5243e-05 | 3.314e-05  |   0.0 |  0.00
Modify  | 0.033338   | 0.28052    | 0.52096    |  43.8 |  6.20
Other   |            | 0.01745    |            |       |  0.39

Nlocal:    46.375 ave 234 max 0 min
Histogram: 10 1 2 0 0 1 0 0 1 1
Nghost:    158.062 ave 417 max 0 min
Histogram: 8 0 0 0 1 0 1 3 1 2
Neighs:    3050.12 ave 14798 max 0 min
Histogram: 10 2 1 0 0 0 0 1 0 2

Total # of neighbors = 48802
Ave neighs/atom = 65.7709
Ave special neighs/atom = 11.0863
Neighbor list builds = 154
Dangerous builds = 0
unfix pysimm_md
write_dump all custom pysimm.dump.tmp id q x y z vx vy vz
quit


################################################################################
##################################    Init    ##################################
################################################################################
units           real
atom_style      full
pair_style      lj/cut/coul/long 12.0  12.0
kspace_style    pppm 1e-4
bond_style      harmonic
angle_style     harmonic
dihedral_style  fourier
improper_style  cvff
special_bonds   amber
pair_modify     mix arithmetic
read_data       temp.lmps
  orthogonal box = (-120.261 -120.261 -120.261) to (120.261 120.261 120.261)
  2 by 2 by 4 MPI processor grid
  reading atoms ...
  810 atoms
  reading velocities ...
  810 velocities
  scanning bonds ...
  3 = max bonds/atom
  scanning angles ...
  6 = max angles/atom
  scanning dihedrals ...
  24 = max dihedrals/atom
  scanning impropers ...
  2 = max impropers/atom
  reading bonds ...
  884 bonds
  reading angles ...
  1556 angles
  reading dihedrals ...
  2328 dihedrals
  reading impropers ...
  240 impropers
  4 = max # of 1-2 neighbors
  10 = max # of 1-3 neighbors
  20 = max # of 1-4 neighbors
  22 = max # of special neighbors
  special bonds CPU = 0.000978947 secs
  read_data CPU = 0.02422 secs
################################################################################

min_style cg
minimize 1e-05 1e-05 10000 100000
WARNING: Using 'neigh_modify every 1 delay 0 check yes' setting during minimization (../min.cpp:190)
PPPM initialization ...
  using 12-bit tables for long-range coulomb (../kspace.cpp:332)
  G vector (1/distance) = 0.0862218
  grid = 18 18 18
  stencil order = 5
  estimated absolute RMS force accuracy = 0.0327245
  estimated relative force accuracy = 9.85487e-05
  using double precision KISS FFT
  3d grid and FFT values/proc = 1960 648
Neighbor list info ...
  update every 1 steps, delay 0 steps, check yes
  max neighbors/atom: 2000, page size: 100000
  master list distance cutoff = 14
  ghost atom cutoff = 14
  binsize = 7, bins = 35 35 35
  1 neighbor lists, perpetual/occasional/extra = 1 0 0
  (1) pair lj/cut/coul/long, perpetual
      attributes: half, newton on
      pair build: half/bin/newton
      stencil: half/bin/3d/newton
      bin: standard
Per MPI rank memory allocation (min/avg/max) = 18.85 | 19.02 | 19.66 Mbytes
Step Temp E_pair E_mol TotEng Press 
       0    1701.3655    864.27235    2676.7521    7643.8254    12.850876 
      46    1701.3655     868.8428    2488.0246    7459.6684    12.213747 
Loop time of 0.315264 on 16 procs for 46 steps with 810 atoms

93.9% CPU use with 16 MPI tasks x no OpenMP threads

Minimization stats:
  Stopping criterion = energy tolerance
  Energy initial, next-to-last, final = 
         3541.02442739      3356.87940588      3356.86738148
  Force two-norm initial, final = 149.241 130.557
  Force max component initial, final = 61.2759 39.184
  Final line search alpha, max atom move = 8.30798e-05 0.00325539
  Iterations, force evaluations = 46 98

MPI task timing breakdown:
Section |  min time  |  avg time  |  max time  |%varavg| %total
---------------------------------------------------------------
Pair    | 1.7881e-05 | 0.033825   | 0.19795    |  32.8 | 10.73
Bond    | 4.6492e-05 | 0.0051058  | 0.028675   |  12.4 |  1.62
Kspace  | 0.082066   | 0.26845    | 0.30833    |  13.4 | 85.15
Neigh   | 0.0019128  | 0.0019789  | 0.0020449  |   0.1 |  0.63
Comm    | 0.0001328  | 0.0020711  | 0.0047014  |   4.2 |  0.66
Output  | 0          | 0          | 0          |   0.0 |  0.00
Modify  | 0          | 0          | 0          |   0.0 |  0.00
Other   |            | 0.003833   |            |       |  1.22

Nlocal:    50.625 ave 285 max 0 min
Histogram: 10 1 3 0 0 0 0 0 0 2
Nghost:    251.875 ave 596 max 0 min
Histogram: 8 0 0 0 0 1 1 0 2 4
Neighs:    4609.62 ave 27103 max 0 min
Histogram: 10 1 3 0 0 0 0 0 1 1

Total # of neighbors = 73754
Ave neighs/atom = 91.0543
Ave special neighs/atom = 11.0691
Neighbor list builds = 1
Dangerous builds = 0
timestep        1
fix             pysimm_md all nvt temp 300 300 100
run             5000
PPPM initialization ...
WARNING: System is not charge neutral, net charge = -1e-05 (../kspace.cpp:313)
  using 12-bit tables for long-range coulomb (../kspace.cpp:332)
  G vector (1/distance) = 0.0862218
  grid = 18 18 18
  stencil order = 5
  estimated absolute RMS force accuracy = 0.0327245
  estimated relative force accuracy = 9.85487e-05
  using double precision KISS FFT
  3d grid and FFT values/proc = 1960 648
Per MPI rank memory allocation (min/avg/max) = 17.72 | 17.89 | 18.54 Mbytes
Step Temp E_pair E_mol TotEng Press 
      46    1701.3655     868.8428    2488.0246    7459.6684    12.213747 
    5046    304.06799    864.73305    2749.2252    4347.2107  -0.21242802 
Loop time of 5.76325 on 16 procs for 5000 steps with 810 atoms

Performance: 74.958 ns/day, 0.320 hours/ns, 867.566 timesteps/s
94.8% CPU use with 16 MPI tasks x no OpenMP threads

MPI task timing breakdown:
Section |  min time  |  avg time  |  max time  |%varavg| %total
---------------------------------------------------------------
Pair    | 0.00048804 | 0.53632    | 2.8335     | 115.8 |  9.31
Bond    | 0.00092602 | 0.11312    | 0.59019    |  54.6 |  1.96
Kspace  | 2.0358     | 4.4446     | 5.0395     |  42.6 | 77.12
Neigh   | 0.13664    | 0.13963    | 0.1432     |   0.6 |  2.42
Comm    | 0.008004   | 0.20874    | 0.57861    |  51.0 |  3.62
Output  | 2.5034e-05 | 2.5585e-05 | 3.2902e-05 |   0.0 |  0.00
Modify  | 0.036451   | 0.30195    | 0.56965    |  47.2 |  5.24
Other   |            | 0.01886    |            |       |  0.33

Nlocal:    50.625 ave 240 max 0 min
Histogram: 11 1 0 0 1 0 0 0 2 1
Nghost:    213.25 ave 605 max 0 min
Histogram: 8 0 0 0 1 0 5 0 0 2
Neighs:    4502.06 ave 23920 max 0 min
Histogram: 12 0 0 0 1 1 0 0 1 1

Total # of neighbors = 72033
Ave neighs/atom = 88.9296
Ave special neighs/atom = 11.0691
Neighbor list builds = 156
Dangerous builds = 0
unfix pysimm_md
write_dump all custom pysimm.dump.tmp id q x y z vx vy vz
quit


################################################################################
##################################    Init    ##################################
################################################################################
units           real
atom_style      full
pair_style      lj/cut/coul/long 12.0  12.0
kspace_style    pppm 1e-4
bond_style      harmonic
angle_style     harmonic
dihedral_style  fourier
improper_style  cvff
special_bonds   amber
pair_modify     mix arithmetic
read_data       temp.lmps
  orthogonal box = (-120.783 -120.783 -120.783) to (120.783 120.783 120.783)
  2 by 2 by 4 MPI processor grid
  reading atoms ...
  824 atoms
  reading velocities ...
  824 velocities
  scanning bonds ...
  3 = max bonds/atom
  scanning angles ...
  6 = max angles/atom
  scanning dihedrals ...
  24 = max dihedrals/atom
  scanning impropers ...
  2 = max impropers/atom
  reading bonds ...
  903 bonds
  reading angles ...
  1580 angles
  reading dihedrals ...
  2404 dihedrals
  reading impropers ...
  256 impropers
  4 = max # of 1-2 neighbors
  10 = max # of 1-3 neighbors
  20 = max # of 1-4 neighbors
  22 = max # of special neighbors
  special bonds CPU = 0.000931978 secs
  read_data CPU = 0.024878 secs
################################################################################

min_style cg
minimize 1e-05 1e-05 10000 100000
WARNING: Using 'neigh_modify every 1 delay 0 check yes' setting during minimization (../min.cpp:190)
PPPM initialization ...
  using 12-bit tables for long-range coulomb (../kspace.cpp:332)
  G vector (1/distance) = 0.0859369
  grid = 18 18 18
  stencil order = 5
  estimated absolute RMS force accuracy = 0.0359672
  estimated relative force accuracy = 0.000108314
  using double precision KISS FFT
  3d grid and FFT values/proc = 1960 648
Neighbor list info ...
  update every 1 steps, delay 0 steps, check yes
  max neighbors/atom: 2000, page size: 100000
  master list distance cutoff = 14
  ghost atom cutoff = 14
  binsize = 7, bins = 35 35 35
  1 neighbor lists, perpetual/occasional/extra = 1 0 0
  (1) pair lj/cut/coul/long, perpetual
      attributes: half, newton on
      pair build: half/bin/newton
      stencil: half/bin/3d/newton
      bin: standard
Per MPI rank memory allocation (min/avg/max) = 18.85 | 19.12 | 19.65 Mbytes
Step Temp E_pair E_mol TotEng Press 
       0    1392.7533     401.0565    1076.1996    4893.9678    10.533463 
      19    1392.7533    391.23765    1051.4096    4859.3589    10.951471 
Loop time of 0.215524 on 16 procs for 19 steps with 824 atoms

94.9% CPU use with 16 MPI tasks x no OpenMP threads

Minimization stats:
  Stopping criterion = linesearch alpha is zero
  Energy initial, next-to-last, final = 
         1477.25614197      1442.64722473      1442.64722473
  Force two-norm initial, final = 76.8799 46.298
  Force max component initial, final = 10.1626 5.68655
  Final line search alpha, max atom move = 4.07699e-12 2.3184e-11
  Iterations, force evaluations = 19 97

MPI task timing breakdown:
Section |  min time  |  avg time  |  max time  |%varavg| %total
---------------------------------------------------------------
Pair    | 1.3828e-05 | 0.02091    | 0.10248    |  23.0 |  9.70
Bond    | 4.673e-05  | 0.0051346  | 0.027986   |  11.9 |  2.38
Kspace  | 0.079998   | 0.18537    | 0.21214    |   9.8 | 86.01
Neigh   | 0          | 0          | 0          |   0.0 |  0.00
Comm    | 4.3869e-05 | 0.0013466  | 0.0032825  |   3.6 |  0.62
Output  | 0          | 0          | 0          |   0.0 |  0.00
Modify  | 0          | 0          | 0          |   0.0 |  0.00
Other   |            | 0.002766   |            |       |  1.28

Nlocal:    51.5 ave 271 max 0 min
Histogram: 11 0 1 0 2 0 0 0 1 1
Nghost:    136.5 ave 392 max 0 min
Histogram: 8 0 0 0 0 3 2 2 0 1
Neighs:    2690.81 ave 13241 max 0 min
Histogram: 11 0 0 1 0 2 0 1 0 1

Total # of neighbors = 43053
Ave neighs/atom = 52.2488
Ave special neighs/atom = 11.1238
Neighbor list builds = 0
Dangerous builds = 0
timestep        1
fix             pysimm_md all nvt temp 300 300 100
run             5000
PPPM initialization ...
  using 12-bit tables for long-range coulomb (../kspace.cpp:332)
  G vector (1/distance) = 0.0859369
  grid = 18 18 18
  stencil order = 5
  estimated absolute RMS force accuracy = 0.0359672
  estimated relative force accuracy = 0.000108314
  using double precision KISS FFT
  3d grid and FFT values/proc = 1960 648
Per MPI rank memory allocation (min/avg/max) = 17.72 | 18 | 18.53 Mbytes
Step Temp E_pair E_mol TotEng Press 
      19    1392.7533    391.23765    1051.4096    4859.3589    10.951471 
    5019    318.02001    409.66315    1442.4536    2632.2856  -0.19910787 
Loop time of 4.87583 on 16 procs for 5000 steps with 824 atoms

Performance: 88.600 ns/day, 0.271 hours/ns, 1025.466 timesteps/s
95.0% CPU use with 16 MPI tasks x no OpenMP threads

MPI task timing breakdown:
Section |  min time  |  avg time  |  max time  |%varavg| %total
---------------------------------------------------------------
Pair    | 0.0005064  | 0.35217    | 1.7878     |  95.5 |  7.22
Bond    | 0.00090146 | 0.12109    | 0.66044    |  57.3 |  2.48
Kspace  | 2.1884     | 3.7152     | 4.1222     |  31.6 | 76.20
Neigh   | 0.095023   | 0.097314   | 0.1013     |   0.6 |  2.00
Comm    | 0.0048234  | 0.1631     | 0.53009    |  47.5 |  3.35
Output  | 2.3842e-05 | 2.4706e-05 | 3.2902e-05 |   0.0 |  0.00
Modify  | 0.033648   | 0.4067     | 0.64222    |  39.9 |  8.34
Other   |            | 0.02022    |            |       |  0.41

Nlocal:    51.5 ave 292 max 0 min
Histogram: 11 0 1 1 1 0 1 0 0 1
Nghost:    87.5 ave 265 max 0 min
Histogram: 8 0 0 1 0 2 3 0 1 1
Neighs:    2765.94 ave 16529 max 0 min
Histogram: 11 0 0 2 1 1 0 0 0 1

Total # of neighbors = 44255
Ave neighs/atom = 53.7075
Ave special neighs/atom = 11.1238
Neighbor list builds = 161
Dangerous builds = 0
unfix pysimm_md
write_dump all custom pysimm.dump.tmp id q x y z vx vy vz
quit


################################################################################
##################################    Init    ##################################
################################################################################
units           real
atom_style      full
pair_style      lj/cut/coul/long 12.0  12.0
kspace_style    pppm 1e-4
bond_style      harmonic
angle_style     harmonic
dihedral_style  fourier
improper_style  cvff
special_bonds   amber
pair_modify     mix arithmetic
read_data       temp.lmps
  orthogonal box = (-125.384 -125.384 -125.384) to (125.384 125.384 125.384)
  2 by 2 by 4 MPI processor grid
  reading atoms ...
  886 atoms
  reading velocities ...
  886 velocities
  scanning bonds ...
  3 = max bonds/atom
  scanning angles ...
  6 = max angles/atom
  scanning dihedrals ...
  24 = max dihedrals/atom
  scanning impropers ...
  2 = max impropers/atom
  reading bonds ...
  970 bonds
  reading angles ...
  1700 angles
  reading dihedrals ...
  2576 dihedrals
  reading impropers ...
  272 impropers
  4 = max # of 1-2 neighbors
  10 = max # of 1-3 neighbors
  20 = max # of 1-4 neighbors
  22 = max # of special neighbors
  special bonds CPU = 0.00100589 secs
  read_data CPU = 0.0252461 secs
################################################################################

min_style cg
minimize 1e-05 1e-05 10000 100000
WARNING: Using 'neigh_modify every 1 delay 0 check yes' setting during minimization (../min.cpp:190)
PPPM initialization ...
  using 12-bit tables for long-range coulomb (../kspace.cpp:332)
  G vector (1/distance) = 0.0904751
  grid = 20 20 20
  stencil order = 5
  estimated absolute RMS force accuracy = 0.0307709
  estimated relative force accuracy = 9.26656e-05
  using double precision KISS FFT
  3d grid and FFT values/proc = 2250 800
Neighbor list info ...
  update every 1 steps, delay 0 steps, check yes
  max neighbors/atom: 2000, page size: 100000
  master list distance cutoff = 14
  ghost atom cutoff = 14
  binsize = 7, bins = 36 36 36
  1 neighbor lists, perpetual/occasional/extra = 1 0 0
  (1) pair lj/cut/coul/long, perpetual
      attributes: half, newton on
      pair build: half/bin/newton
      stencil: half/bin/3d/newton
      bin: standard
Per MPI rank memory allocation (min/avg/max) = 18.87 | 19.13 | 19.68 Mbytes
Step Temp E_pair E_mol TotEng Press 
       0    1555.5985    412.65141    1188.7293    5705.0758    12.215883 
      20    1555.5985    405.67479    1165.0058    5674.3757    12.218451 
Loop time of 0.307416 on 16 procs for 20 steps with 886 atoms

94.6% CPU use with 16 MPI tasks x no OpenMP threads

Minimization stats:
  Stopping criterion = linesearch alpha is zero
  Energy initial, next-to-last, final = 
         1601.38070717       1570.6806152       1570.6806152
  Force two-norm initial, final = 66.4383 48.6368
  Force max component initial, final = 6.60607 5.77619
  Final line search alpha, max atom move = 2.83806e-12 1.63932e-11
  Iterations, force evaluations = 20 99

MPI task timing breakdown:
Section |  min time  |  avg time  |  max time  |%varavg| %total
---------------------------------------------------------------
Pair    | 1.5497e-05 | 0.025374   | 0.18339    |  29.9 |  8.25
Bond    | 4.22e-05   | 0.0055466  | 0.030964   |  12.2 |  1.80
Kspace  | 0.088517   | 0.27252    | 0.30403    |  10.9 | 88.65
Neigh   | 0          | 0          | 0          |   0.0 |  0.00
Comm    | 5.3406e-05 | 0.0011261  | 0.0030417  |   3.4 |  0.37
Output  | 0          | 0          | 0          |   0.0 |  0.00
Modify  | 0          | 0          | 0          |   0.0 |  0.00
Other   |            | 0.002844   |            |       |  0.93

Nlocal:    55.375 ave 310 max 0 min
Histogram: 11 0 0 2 1 0 1 0 0 1
Nghost:    92.5 ave 331 max 0 min
Histogram: 8 2 0 0 1 1 2 0 1 1
Neighs:    3114.75 ave 22917 max 0 min
Histogram: 11 0 2 2 0 0 0 0 0 1

Total # of neighbors = 49836
Ave neighs/atom = 56.2483
Ave special neighs/atom = 11.1129
Neighbor list builds = 0
Dangerous builds = 0
timestep        1
fix             pysimm_md all nvt temp 300 300 100
run             5000
PPPM initialization ...
  using 12-bit tables for long-range coulomb (../kspace.cpp:332)
  G vector (1/distance) = 0.0904751
  grid = 20 20 20
  stencil order = 5
  estimated absolute RMS force accuracy = 0.0307709
  estimated relative force accuracy = 9.26656e-05
  using double precision KISS FFT
  3d grid and FFT values/proc = 2250 800
Per MPI rank memory allocation (min/avg/max) = 17.75 | 18.01 | 18.55 Mbytes
Step Temp E_pair E_mol TotEng Press 
      20    1555.5985    405.67479    1165.0058    5674.3757    12.218451 
    5020    302.59385    463.72996    1522.0982    2784.0759    2.3637525 
Loop time of 6.59678 on 16 procs for 5000 steps with 886 atoms

Performance: 65.487 ns/day, 0.366 hours/ns, 757.946 timesteps/s
94.2% CPU use with 16 MPI tasks x no OpenMP threads

MPI task timing breakdown:
Section |  min time  |  avg time  |  max time  |%varavg| %total
---------------------------------------------------------------
Pair    | 0.00047708 | 0.41402    | 3.1998     | 126.3 |  6.28
Bond    | 0.00087762 | 0.12206    | 0.77665    |  61.2 |  1.85
Kspace  | 2.352      | 5.2434     | 5.6936     |  37.1 | 79.48
Neigh   | 0.13269    | 0.13595    | 0.13838    |   0.5 |  2.06
Comm    | 0.0053761  | 0.18759    | 0.71137    |  54.4 |  2.84
Output  | 2.3842e-05 | 2.5257e-05 | 3.4094e-05 |   0.0 |  0.00
Modify  | 0.038985   | 0.47374    | 0.74142    |  45.5 |  7.18
Other   |            | 0.02002    |            |       |  0.30

Nlocal:    55.375 ave 349 max 0 min
Histogram: 11 1 0 2 0 0 1 0 0 1
Nghost:    113.062 ave 394 max 0 min
Histogram: 8 0 0 2 2 2 0 1 0 1
Neighs:    3338.56 ave 24407 max 0 min
Histogram: 11 0 3 0 1 0 0 0 0 1

Total # of neighbors = 53417
Ave neighs/atom = 60.2901
Ave special neighs/atom = 11.1129
Neighbor list builds = 151
Dangerous builds = 0
unfix pysimm_md
write_dump all custom pysimm.dump.tmp id q x y z vx vy vz
quit


################################################################################
##################################    Init    ##################################
################################################################################
units           real
atom_style      full
pair_style      lj/cut/coul/long 12.0  12.0
kspace_style    pppm 1e-4
bond_style      harmonic
angle_style     harmonic
dihedral_style  fourier
improper_style  cvff
special_bonds   amber
pair_modify     mix arithmetic
read_data       temp.lmps
  orthogonal box = (-127.796 -127.796 -127.796) to (127.796 127.796 127.796)
  2 by 2 by 4 MPI processor grid
  reading atoms ...
  990 atoms
  reading velocities ...
  990 velocities
  scanning bonds ...
  3 = max bonds/atom
  scanning angles ...
  6 = max angles/atom
  scanning dihedrals ...
  24 = max dihedrals/atom
  scanning impropers ...
  2 = max impropers/atom
  reading bonds ...
  1079 bonds
  reading angles ...
  1904 angles
  reading dihedrals ...
  2832 dihedrals
  reading impropers ...
  288 impropers
  4 = max # of 1-2 neighbors
  10 = max # of 1-3 neighbors
  20 = max # of 1-4 neighbors
  22 = max # of special neighbors
  special bonds CPU = 0.00100708 secs
  read_data CPU = 0.0275891 secs
################################################################################

min_style cg
minimize 1e-05 1e-05 10000 100000
WARNING: Using 'neigh_modify every 1 delay 0 check yes' setting during minimization (../min.cpp:190)
PPPM initialization ...
WARNING: System is not charge neutral, net charge = -1.5e-05 (../kspace.cpp:313)
  using 12-bit tables for long-range coulomb (../kspace.cpp:332)
  G vector (1/distance) = 0.0822798
  grid = 18 18 18
  stencil order = 5
  estimated absolute RMS force accuracy = 0.0351311
  estimated relative force accuracy = 0.000105796
  using double precision KISS FFT
  3d grid and FFT values/proc = 1960 648
Neighbor list info ...
  update every 1 steps, delay 0 steps, check yes
  max neighbors/atom: 2000, page size: 100000
  master list distance cutoff = 14
  ghost atom cutoff = 14
  binsize = 7, bins = 37 37 37
  1 neighbor lists, perpetual/occasional/extra = 1 0 0
  (1) pair lj/cut/coul/long, perpetual
      attributes: half, newton on
      pair build: half/bin/newton
      stencil: half/bin/3d/newton
      bin: standard
Per MPI rank memory allocation (min/avg/max) = 18.85 | 19.1 | 19.68 Mbytes
Step Temp E_pair E_mol TotEng Press 
       0    1400.3222    351.84882    1323.3731    5803.4013    10.180044 
      13    1400.3222    353.50736    1299.9448    5781.6314    10.671169 
Loop time of 0.296948 on 16 procs for 13 steps with 990 atoms

94.1% CPU use with 16 MPI tasks x no OpenMP threads

Minimization stats:
  Stopping criterion = linesearch alpha is zero
  Energy initial, next-to-last, final = 
         1675.22193411      1653.45210841      1653.45210841
  Force two-norm initial, final = 84.705 53.7946
  Force max component initial, final = 11.6099 5.29418
  Final line search alpha, max atom move = 2.57466e-12 1.36307e-11
  Iterations, force evaluations = 13 87

MPI task timing breakdown:
Section |  min time  |  avg time  |  max time  |%varavg| %total
---------------------------------------------------------------
Pair    | 1.0729e-05 | 0.035326   | 0.1874     |  27.7 | 11.90
Bond    | 3.8862e-05 | 0.0054982  | 0.027227   |  10.7 |  1.85
Kspace  | 0.076456   | 0.25135    | 0.29306    |  12.1 | 84.65
Neigh   | 0          | 0          | 0          |   0.0 |  0.00
Comm    | 5.5552e-05 | 0.0017471  | 0.0042062  |   4.1 |  0.59
Output  | 0          | 0          | 0          |   0.0 |  0.00
Modify  | 0          | 0          | 0          |   0.0 |  0.00
Other   |            | 0.003024   |            |       |  1.02

Nlocal:    61.875 ave 306 max 0 min
Histogram: 9 2 1 0 2 0 0 1 0 1
Nghost:    243.5 ave 587 max 0 min
Histogram: 8 0 0 0 0 0 2 1 2 3
Neighs:    5354.81 ave 29202 max 0 min
Histogram: 9 2 1 1 1 1 0 0 0 1

Total # of neighbors = 85677
Ave neighs/atom = 86.5424
Ave special neighs/atom = 11.0566
Neighbor list builds = 0
Dangerous builds = 0
timestep        1
fix             pysimm_md all nvt temp 300 300 100
run             5000
PPPM initialization ...
  using 12-bit tables for long-range coulomb (../kspace.cpp:332)
  G vector (1/distance) = 0.0822798
  grid = 18 18 18
  stencil order = 5
  estimated absolute RMS force accuracy = 0.0351311
  estimated relative force accuracy = 0.000105796
  using double precision KISS FFT
  3d grid and FFT values/proc = 1960 648
Per MPI rank memory allocation (min/avg/max) = 17.73 | 17.98 | 18.55 Mbytes
Step Temp E_pair E_mol TotEng Press 
      13    1400.3222    353.50736    1299.9448    5781.6314    10.671169 
    5013      306.748    403.83322    1654.5303    2962.6631    -1.338292 
Loop time of 5.02848 on 16 procs for 5000 steps with 990 atoms

Performance: 85.911 ns/day, 0.279 hours/ns, 994.337 timesteps/s
95.3% CPU use with 16 MPI tasks x no OpenMP threads

MPI task timing breakdown:
Section |  min time  |  avg time  |  max time  |%varavg| %total
---------------------------------------------------------------
Pair    | 0.00046968 | 0.54474    | 2.1327     |  92.9 | 10.83
Bond    | 0.00089979 | 0.13769    | 0.48456    |  45.0 |  2.74
Kspace  | 2.0967     | 3.7589     | 4.3689     |  37.9 | 74.75
Neigh   | 0.11224    | 0.11535    | 0.11945    |   0.7 |  2.29
Comm    | 0.0084641  | 0.16873    | 0.49299    |  43.5 |  3.36
Output  | 2.408e-05  | 2.487e-05  | 3.2902e-05 |   0.0 |  0.00
Modify  | 0.040194   | 0.2849     | 0.53047    |  44.3 |  5.67
Other   |            | 0.0181     |            |       |  0.36

Nlocal:    61.875 ave 181 max 0 min
Histogram: 8 0 0 2 1 0 0 1 3 1
Nghost:    232 ave 548 max 0 min
Histogram: 8 0 0 0 0 0 0 2 5 1
Neighs:    3811.31 ave 12195 max 0 min
Histogram: 8 0 2 0 1 0 3 0 0 2

Total # of neighbors = 60981
Ave neighs/atom = 61.597
Ave special neighs/atom = 11.0566
Neighbor list builds = 158
Dangerous builds = 0
unfix pysimm_md
write_dump all custom pysimm.dump.tmp id q x y z vx vy vz
quit


################################################################################
##################################    Init    ##################################
################################################################################
units           real
atom_style      full
pair_style      lj/cut/coul/long 12.0  12.0
kspace_style    pppm 1e-4
bond_style      harmonic
angle_style     harmonic
dihedral_style  fourier
improper_style  cvff
special_bonds   amber
pair_modify     mix arithmetic
read_data       temp.lmps
  orthogonal box = (-130.12 -130.12 -130.12) to (130.12 130.12 130.12)
  2 by 2 by 4 MPI processor grid
  reading atoms ...
  986 atoms
  reading velocities ...
  986 velocities
  scanning bonds ...
  3 = max bonds/atom
  scanning angles ...
  6 = max angles/atom
  scanning dihedrals ...
  24 = max dihedrals/atom
  scanning impropers ...
  2 = max impropers/atom
  reading bonds ...
  1080 bonds
  reading angles ...
  1892 angles
  reading dihedrals ...
  2872 dihedrals
  reading impropers ...
  304 impropers
  4 = max # of 1-2 neighbors
  10 = max # of 1-3 neighbors
  20 = max # of 1-4 neighbors
  22 = max # of special neighbors
  special bonds CPU = 0.00147486 secs
  read_data CPU = 0.026068 secs
################################################################################

min_style cg
minimize 1e-05 1e-05 10000 100000
WARNING: Using 'neigh_modify every 1 delay 0 check yes' setting during minimization (../min.cpp:190)
PPPM initialization ...
  using 12-bit tables for long-range coulomb (../kspace.cpp:332)
  G vector (1/distance) = 0.0879821
  grid = 20 20 20
  stencil order = 5
  estimated absolute RMS force accuracy = 0.0329823
  estimated relative force accuracy = 9.93253e-05
  using double precision KISS FFT
  3d grid and FFT values/proc = 2250 800
Neighbor list info ...
  update every 1 steps, delay 0 steps, check yes
  max neighbors/atom: 2000, page size: 100000
  master list distance cutoff = 14
  ghost atom cutoff = 14
  binsize = 7, bins = 38 38 38
  1 neighbor lists, perpetual/occasional/extra = 1 0 0
  (1) pair lj/cut/coul/long, perpetual
      attributes: half, newton on
      pair build: half/bin/newton
      stencil: half/bin/3d/newton
      bin: standard
Per MPI rank memory allocation (min/avg/max) = 18.88 | 19.16 | 19.68 Mbytes
Step Temp E_pair E_mol TotEng Press 
       0    1860.5811    452.73054    1426.1278    7341.7066    13.710353 
      14    1860.5811     448.1065    1385.0183     7295.973    14.897106 
Loop time of 0.300817 on 16 procs for 14 steps with 986 atoms

92.9% CPU use with 16 MPI tasks x no OpenMP threads

Minimization stats:
  Stopping criterion = linesearch alpha is zero
  Energy initial, next-to-last, final = 
         1878.85836697      1833.12481826      1833.12481826
  Force two-norm initial, final = 100.066 61.5021
  Force max component initial, final = 14.1381 6.41194
  Final line search alpha, max atom move = 2.26814e-12 1.45432e-11
  Iterations, force evaluations = 14 89

MPI task timing breakdown:
Section |  min time  |  avg time  |  max time  |%varavg| %total
---------------------------------------------------------------
Pair    | 9.5367e-06 | 0.025619   | 0.19423    |  29.4 |  8.52
Bond    | 2.6464e-05 | 0.0051214  | 0.026056   |  10.0 |  1.70
Kspace  | 0.076257   | 0.26632    | 0.29768    |  10.5 | 88.53
Neigh   | 0          | 0          | 0          |   0.0 |  0.00
Comm    | 4.2439e-05 | 0.0013522  | 0.0031548  |   3.6 |  0.45
Output  | 0          | 0          | 0          |   0.0 |  0.00
Modify  | 0          | 0          | 0          |   0.0 |  0.00
Other   |            | 0.002404   |            |       |  0.80

Nlocal:    61.625 ave 288 max 0 min
Histogram: 9 0 2 0 2 2 0 0 0 1
Nghost:    187.375 ave 473 max 0 min
Histogram: 8 0 0 0 0 2 0 1 2 3
Neighs:    3994.88 ave 29004 max 0 min
Histogram: 10 2 2 0 1 0 0 0 0 1

Total # of neighbors = 63918
Ave neighs/atom = 64.8256
Ave special neighs/atom = 11.1217
Neighbor list builds = 0
Dangerous builds = 0
timestep        1
fix             pysimm_md all nvt temp 300 300 100
run             5000
PPPM initialization ...
  using 12-bit tables for long-range coulomb (../kspace.cpp:332)
  G vector (1/distance) = 0.0879821
  grid = 20 20 20
  stencil order = 5
  estimated absolute RMS force accuracy = 0.0329823
  estimated relative force accuracy = 9.93253e-05
  using double precision KISS FFT
  3d grid and FFT values/proc = 2250 800
Per MPI rank memory allocation (min/avg/max) = 17.75 | 18.03 | 18.56 Mbytes
Step Temp E_pair E_mol TotEng Press 
      14    1860.5811     448.1065    1385.0183     7295.973    14.897106 
    5014    311.73496    500.45701    1743.0663    3158.8076   0.86762531 
Loop time of 5.98007 on 16 procs for 5000 steps with 986 atoms

Performance: 72.240 ns/day, 0.332 hours/ns, 836.110 timesteps/s
92.5% CPU use with 16 MPI tasks x no OpenMP threads

MPI task timing breakdown:
Section |  min time  |  avg time  |  max time  |%varavg| %total
---------------------------------------------------------------
Pair    | 0.00048327 | 0.47184    | 2.8238     | 115.3 |  7.89
Bond    | 0.00098276 | 0.13558    | 0.69251    |  53.5 |  2.27
Kspace  | 2.1927     | 4.6514     | 5.1702     |  38.7 | 77.78
Neigh   | 0.13048    | 0.13331    | 0.13535    |   0.4 |  2.23
Comm    | 0.0077636  | 0.21614    | 0.6095     |  50.9 |  3.61
Output  | 2.2173e-05 | 2.2784e-05 | 3.0041e-05 |   0.0 |  0.00
Modify  | 0.031359   | 0.35455    | 0.65283    |  49.9 |  5.93
Other   |            | 0.0172     |            |       |  0.29

Nlocal:    61.625 ave 323 max 0 min
Histogram: 9 2 0 2 0 2 0 0 0 1
Nghost:    178.625 ave 494 max 0 min
Histogram: 8 0 0 0 2 0 2 2 0 2
Neighs:    3740.5 ave 20941 max 0 min
Histogram: 10 2 0 1 1 0 1 0 0 1

Total # of neighbors = 59848
Ave neighs/atom = 60.6978
Ave special neighs/atom = 11.1217
Neighbor list builds = 158
Dangerous builds = 0
unfix pysimm_md
write_dump all custom pysimm.dump.tmp id q x y z vx vy vz
quit


################################################################################
##################################    Init    ##################################
################################################################################
units           real
atom_style      full
pair_style      lj/cut/coul/long 12.0  12.0
kspace_style    pppm 1e-4
bond_style      harmonic
angle_style     harmonic
dihedral_style  fourier
improper_style  cvff
special_bonds   amber
pair_modify     mix arithmetic
read_data       temp.lmps
  orthogonal box = (-132.364 -132.364 -132.364) to (132.364 132.364 132.364)
  2 by 2 by 4 MPI processor grid
  reading atoms ...
  1066 atoms
  reading velocities ...
  1066 velocities
  scanning bonds ...
  3 = max bonds/atom
  scanning angles ...
  6 = max angles/atom
  scanning dihedrals ...
  24 = max dihedrals/atom
  scanning impropers ...
  2 = max impropers/atom
  reading bonds ...
  1165 bonds
  reading angles ...
  2048 angles
  reading dihedrals ...
  3080 dihedrals
  reading impropers ...
  320 impropers
  4 = max # of 1-2 neighbors
  10 = max # of 1-3 neighbors
  20 = max # of 1-4 neighbors
  22 = max # of special neighbors
  special bonds CPU = 0.0014441 secs
  read_data CPU = 0.0288682 secs
################################################################################

min_style cg
minimize 1e-05 1e-05 10000 100000
WARNING: Using 'neigh_modify every 1 delay 0 check yes' setting during minimization (../min.cpp:190)
PPPM initialization ...
WARNING: System is not charge neutral, net charge = -1.1e-05 (../kspace.cpp:313)
  using 12-bit tables for long-range coulomb (../kspace.cpp:332)
  G vector (1/distance) = 0.0868488
  grid = 20 20 20
  stencil order = 5
  estimated absolute RMS force accuracy = 0.0327845
  estimated relative force accuracy = 9.87296e-05
  using double precision KISS FFT
  3d grid and FFT values/proc = 2250 800
Neighbor list info ...
  update every 1 steps, delay 0 steps, check yes
  max neighbors/atom: 2000, page size: 100000
  master list distance cutoff = 14
  ghost atom cutoff = 14
  binsize = 7, bins = 38 38 38
  1 neighbor lists, perpetual/occasional/extra = 1 0 0
  (1) pair lj/cut/coul/long, perpetual
      attributes: half, newton on
      pair build: half/bin/newton
      stencil: half/bin/3d/newton
      bin: standard
Per MPI rank memory allocation (min/avg/max) = 18.88 | 19.17 | 19.69 Mbytes
Step Temp E_pair E_mol TotEng Press 
       0    1379.5208    450.28164    1353.1579     6182.815    10.174056 
      13    1379.5208    450.69828    1336.9791    6167.0528    10.403535 
Loop time of 0.184084 on 16 procs for 13 steps with 1066 atoms

95.4% CPU use with 16 MPI tasks x no OpenMP threads

Minimization stats:
  Stopping criterion = linesearch alpha is zero
  Energy initial, next-to-last, final = 
         1803.43955505      1787.67741431      1787.67741431
  Force two-norm initial, final = 76.7568 48.7316
  Force max component initial, final = 8.38076 6.47099
  Final line search alpha, max atom move = 2.63358e-12 1.70419e-11
  Iterations, force evaluations = 13 87

MPI task timing breakdown:
Section |  min time  |  avg time  |  max time  |%varavg| %total
---------------------------------------------------------------
Pair    | 1.7166e-05 | 0.025579   | 0.097979   |  21.8 | 13.90
Bond    | 4.0054e-05 | 0.0052704  | 0.019218   |   9.5 |  2.86
Kspace  | 0.064671   | 0.14947    | 0.18103    |  10.9 | 81.20
Neigh   | 0          | 0          | 0          |   0.0 |  0.00
Comm    | 5.4836e-05 | 0.001463   | 0.0034037  |   3.7 |  0.79
Output  | 0          | 0          | 0          |   0.0 |  0.00
Modify  | 0          | 0          | 0          |   0.0 |  0.00
Other   |            | 0.002304   |            |       |  1.25

Nlocal:    66.625 ave 223 max 0 min
Histogram: 10 0 0 1 0 0 1 0 2 2
Nghost:    208.5 ave 508 max 0 min
Histogram: 8 0 0 0 0 0 1 3 2 2
Neighs:    4159.44 ave 15057 max 0 min
Histogram: 10 0 1 0 0 1 1 0 1 2

Total # of neighbors = 66551
Ave neighs/atom = 62.4306
Ave special neighs/atom = 11.0938
Neighbor list builds = 0
Dangerous builds = 0
timestep        1
fix             pysimm_md all nvt temp 300 300 100
run             5000
PPPM initialization ...
  using 12-bit tables for long-range coulomb (../kspace.cpp:332)
  G vector (1/distance) = 0.0868488
  grid = 20 20 20
  stencil order = 5
  estimated absolute RMS force accuracy = 0.0327845
  estimated relative force accuracy = 9.87296e-05
  using double precision KISS FFT
  3d grid and FFT values/proc = 2250 800
Per MPI rank memory allocation (min/avg/max) = 17.75 | 18.04 | 18.57 Mbytes
Step Temp E_pair E_mol TotEng Press 
      13    1379.5208    450.69828    1336.9791    6167.0528    10.403535 
    5013    297.80442    513.74138    1852.2988     3311.439   0.26448245 
Loop time of 5.33265 on 16 procs for 5000 steps with 1066 atoms

Performance: 81.010 ns/day, 0.296 hours/ns, 937.620 timesteps/s
94.9% CPU use with 16 MPI tasks x no OpenMP threads

MPI task timing breakdown:
Section |  min time  |  avg time  |  max time  |%varavg| %total
---------------------------------------------------------------
Pair    | 0.00048828 | 0.5071     | 2.4355     | 100.9 |  9.51
Bond    | 0.00099921 | 0.14981    | 0.55701    |  48.5 |  2.81
Kspace  | 2.0565     | 4.0623     | 4.6162     |  37.8 | 76.18
Neigh   | 0.12511    | 0.12795    | 0.13076    |   0.5 |  2.40
Comm    | 0.0080838  | 0.16614    | 0.5386     |  45.3 |  3.12
Output  | 2.3842e-05 | 2.4736e-05 | 3.2187e-05 |   0.0 |  0.00
Modify  | 0.034604   | 0.30137    | 0.56306    |  46.9 |  5.65
Other   |            | 0.01795    |            |       |  0.34

Nlocal:    66.625 ave 269 max 0 min
Histogram: 10 0 1 0 1 0 2 0 1 1
Nghost:    157.375 ave 416 max 0 min
Histogram: 8 0 0 0 1 1 0 2 3 1
Neighs:    3870.06 ave 18045 max 0 min
Histogram: 10 1 0 1 1 1 0 0 0 2

Total # of neighbors = 61921
Ave neighs/atom = 58.0872
Ave special neighs/atom = 11.0938
Neighbor list builds = 173
Dangerous builds = 0
unfix pysimm_md
write_dump all custom pysimm.dump.tmp id q x y z vx vy vz
quit


################################################################################
##################################    Init    ##################################
################################################################################
units           real
atom_style      full
pair_style      lj/cut/coul/long 12.0  12.0
kspace_style    pppm 1e-4
bond_style      harmonic
angle_style     harmonic
dihedral_style  fourier
improper_style  cvff
special_bonds   amber
pair_modify     mix arithmetic
read_data       temp.lmps
  orthogonal box = (-134.534 -134.534 -134.534) to (134.534 134.534 134.534)
  2 by 2 by 4 MPI processor grid
  reading atoms ...
  1122 atoms
  reading velocities ...
  1122 velocities
  scanning bonds ...
  3 = max bonds/atom
  scanning angles ...
  6 = max angles/atom
  scanning dihedrals ...
  24 = max dihedrals/atom
  scanning impropers ...
  2 = max impropers/atom
  reading bonds ...
  1226 bonds
  reading angles ...
  2156 angles
  reading dihedrals ...
  3240 dihedrals
  reading impropers ...
  336 impropers
  4 = max # of 1-2 neighbors
  10 = max # of 1-3 neighbors
  20 = max # of 1-4 neighbors
  22 = max # of special neighbors
  special bonds CPU = 0.001477 secs
  read_data CPU = 0.0298049 secs
################################################################################

min_style cg
minimize 1e-05 1e-05 10000 100000
WARNING: Using 'neigh_modify every 1 delay 0 check yes' setting during minimization (../min.cpp:190)
PPPM initialization ...
WARNING: System is not charge neutral, net charge = -1.2e-05 (../kspace.cpp:313)
  using 12-bit tables for long-range coulomb (../kspace.cpp:332)
  G vector (1/distance) = 0.0857768
  grid = 20 20 20
  stencil order = 5
  estimated absolute RMS force accuracy = 0.0335614
  estimated relative force accuracy = 0.000101069
  using double precision KISS FFT
  3d grid and FFT values/proc = 2250 800
Neighbor list info ...
  update every 1 steps, delay 0 steps, check yes
  max neighbors/atom: 2000, page size: 100000
  master list distance cutoff = 14
  ghost atom cutoff = 14
  binsize = 7, bins = 39 39 39
  1 neighbor lists, perpetual/occasional/extra = 1 0 0
  (1) pair lj/cut/coul/long, perpetual
      attributes: half, newton on
      pair build: half/bin/newton
      stencil: half/bin/3d/newton
      bin: standard
Per MPI rank memory allocation (min/avg/max) = 18.88 | 19.17 | 19.7 Mbytes
Step Temp E_pair E_mol TotEng Press 
       0    1161.2878    484.67583    1598.0125    5963.1178    8.6399114 
      45    1161.2878    470.53657    1485.3251    5836.2911    9.2818496 
Loop time of 0.519912 on 16 procs for 45 steps with 1122 atoms

94.1% CPU use with 16 MPI tasks x no OpenMP threads

Minimization stats:
  Stopping criterion = linesearch alpha is zero
  Energy initial, next-to-last, final = 
         2082.68836119      1955.86171946      1955.86171946
  Force two-norm initial, final = 91.684 52.4419
  Force max component initial, final = 10.7284 6.61226
  Final line search alpha, max atom move = 2.71995e-12 1.7985e-11
  Iterations, force evaluations = 45 151

MPI task timing breakdown:
Section |  min time  |  avg time  |  max time  |%varavg| %total
---------------------------------------------------------------
Pair    | 2.3365e-05 | 0.059187   | 0.33287    |  36.0 | 11.38
Bond    | 6.9141e-05 | 0.010763   | 0.044819   |  13.2 |  2.07
Kspace  | 0.13114    | 0.44043    | 0.5117     |  15.3 | 84.71
Neigh   | 0.001905   | 0.0019313  | 0.00196    |   0.0 |  0.37
Comm    | 0.00014591 | 0.0027637  | 0.0062144  |   5.0 |  0.53
Output  | 0          | 0          | 0          |   0.0 |  0.00
Modify  | 0          | 0          | 0          |   0.0 |  0.00
Other   |            | 0.00484    |            |       |  0.93

Nlocal:    70.125 ave 294 max 0 min
Histogram: 9 0 1 2 1 0 1 1 0 1
Nghost:    205.75 ave 525 max 0 min
Histogram: 8 0 0 0 0 1 0 4 1 2
Neighs:    4960.75 ave 28858 max 0 min
Histogram: 9 1 2 2 1 0 0 0 0 1

Total # of neighbors = 79372
Ave neighs/atom = 70.7415
Ave special neighs/atom = 11.0927
Neighbor list builds = 1
Dangerous builds = 0
timestep        1
fix             pysimm_md all nvt temp 300 300 100
run             5000
PPPM initialization ...
  using 12-bit tables for long-range coulomb (../kspace.cpp:332)
  G vector (1/distance) = 0.0857768
  grid = 20 20 20
  stencil order = 5
  estimated absolute RMS force accuracy = 0.0335614
  estimated relative force accuracy = 0.000101069
  using double precision KISS FFT
  3d grid and FFT values/proc = 2250 800
Per MPI rank memory allocation (min/avg/max) = 17.75 | 18.04 | 18.57 Mbytes
Step Temp E_pair E_mol TotEng Press 
      45    1161.2878    470.53657    1485.3251    5836.2911    9.2818496 
    5045    302.43467    469.86194    1999.6794    3480.1232   -1.3986829 
Loop time of 6.30568 on 16 procs for 5000 steps with 1122 atoms

Performance: 68.510 ns/day, 0.350 hours/ns, 792.935 timesteps/s
95.0% CPU use with 16 MPI tasks x no OpenMP threads

MPI task timing breakdown:
Section |  min time  |  avg time  |  max time  |%varavg| %total
---------------------------------------------------------------
Pair    | 0.00047231 | 0.59438    | 3.2099     | 109.2 |  9.43
Bond    | 0.00096369 | 0.15432    | 0.64011    |  49.7 |  2.45
Kspace  | 2.1284     | 4.8444     | 5.4903     |  40.4 | 76.83
Neigh   | 0.15812    | 0.16028    | 0.16315    |   0.4 |  2.54
Comm    | 0.0085754  | 0.19891    | 0.54093    |  47.5 |  3.15
Output  | 2.3842e-05 | 2.4363e-05 | 3.2187e-05 |   0.0 |  0.00
Modify  | 0.032781   | 0.33422    | 0.62712    |  50.2 |  5.30
Other   |            | 0.01915    |            |       |  0.30

Nlocal:    70.125 ave 272 max 0 min
Histogram: 10 0 0 1 1 0 2 0 0 2
Nghost:    164.312 ave 449 max 0 min
Histogram: 8 0 0 0 1 1 2 1 1 2
Neighs:    4784.38 ave 23563 max 0 min
Histogram: 10 0 2 0 1 1 1 0 0 1

Total # of neighbors = 76550
Ave neighs/atom = 68.2264
Ave special neighs/atom = 11.0927
Neighbor list builds = 174
Dangerous builds = 0
unfix pysimm_md
write_dump all custom pysimm.dump.tmp id q x y z vx vy vz
quit


################################################################################
##################################    Init    ##################################
################################################################################
units           real
atom_style      full
pair_style      lj/cut/coul/long 12.0  12.0
kspace_style    pppm 1e-4
bond_style      harmonic
angle_style     harmonic
dihedral_style  fourier
improper_style  cvff
special_bonds   amber
pair_modify     mix arithmetic
read_data       temp.lmps
  orthogonal box = (-134.309 -134.309 -134.309) to (134.309 134.309 134.309)
  2 by 2 by 4 MPI processor grid
  reading atoms ...
  1172 atoms
  reading velocities ...
  1172 velocities
  scanning bonds ...
  3 = max bonds/atom
  scanning angles ...
  6 = max angles/atom
  scanning dihedrals ...
  24 = max dihedrals/atom
  scanning impropers ...
  2 = max impropers/atom
  reading bonds ...
  1281 bonds
  reading angles ...
  2252 angles
  reading dihedrals ...
  3388 dihedrals
  reading impropers ...
  352 impropers
  4 = max # of 1-2 neighbors
  10 = max # of 1-3 neighbors
  20 = max # of 1-4 neighbors
  22 = max # of special neighbors
  special bonds CPU = 0.00104499 secs
  read_data CPU = 0.030659 secs
################################################################################

min_style cg
minimize 1e-05 1e-05 10000 100000
WARNING: Using 'neigh_modify every 1 delay 0 check yes' setting during minimization (../min.cpp:190)
PPPM initialization ...
WARNING: System is not charge neutral, net charge = -1.2e-05 (../kspace.cpp:313)
  using 12-bit tables for long-range coulomb (../kspace.cpp:332)
  G vector (1/distance) = 0.0858854
  grid = 20 20 20
  stencil order = 5
  estimated absolute RMS force accuracy = 0.0344748
  estimated relative force accuracy = 0.00010382
  using double precision KISS FFT
  3d grid and FFT values/proc = 2250 800
Neighbor list info ...
  update every 1 steps, delay 0 steps, check yes
  max neighbors/atom: 2000, page size: 100000
  master list distance cutoff = 14
  ghost atom cutoff = 14
  binsize = 7, bins = 39 39 39
  1 neighbor lists, perpetual/occasional/extra = 1 0 0
  (1) pair lj/cut/coul/long, perpetual
      attributes: half, newton on
[...]
  using 12-bit tables for long-range coulomb (../kspace.cpp:332)
  G vector (1/distance) = 0.0878638
  grid = 27 27 27
  stencil order = 5
  estimated absolute RMS force accuracy = 0.0323477
  estimated relative force accuracy = 9.74143e-05
  using double precision KISS FFT
  3d grid and FFT values/proc = 4332 1458
Per MPI rank memory allocation (min/avg/max) = 17.95 | 18.17 | 18.81 Mbytes
Step Temp E_pair E_mol TotEng Press 
       6    543.45488    1059.7319     3072.759    8151.5515    4.2865229 
    5006      298.134    1115.0551    4107.7894    7427.6616   0.20426682 
Loop time of 17.2255 on 16 procs for 5000 steps with 2482 atoms

Performance: 25.079 ns/day, 0.957 hours/ns, 290.268 timesteps/s
92.1% CPU use with 16 MPI tasks x no OpenMP threads

MPI task timing breakdown:
Section |  min time  |  avg time  |  max time  |%varavg| %total
---------------------------------------------------------------
Pair    | 0.00046921 | 1.2315     | 8.5487     | 229.8 |  7.15
Bond    | 0.00090933 | 0.32246    | 2.1073     | 110.8 |  1.87
Kspace  | 5.6863     | 13.284     | 14.618     |  72.6 | 77.12
Neigh   | 0.57709    | 0.58231    | 0.59059    |   0.5 |  3.38
Comm    | 0.012758   | 0.70883    | 1.8838     |  95.8 |  4.12
Output  | 2.6941e-05 | 2.8923e-05 | 3.4094e-05 |   0.0 |  0.00
Modify  | 0.077271   | 1.0553     | 1.9687     |  88.5 |  6.13
Other   |            | 0.04152    |            |       |  0.24

Nlocal:    155.125 ave 1127 max 0 min
Histogram: 11 3 0 0 0 0 0 1 0 1
Nghost:    153.75 ave 579 max 0 min
Histogram: 8 1 0 4 0 0 1 0 0 2
Neighs:    10596 ave 72827 max 0 min
Histogram: 11 3 0 0 0 0 0 0 0 2

Total # of neighbors = 169536
Ave neighs/atom = 68.3062
Ave special neighs/atom = 11.1225
Neighbor list builds = 244
Dangerous builds = 0
unfix pysimm_md
write_dump all custom pysimm.dump.tmp id q x y z vx vy vz
quit


################################################################################
##################################    Init    ##################################
################################################################################
units           real
atom_style      full
pair_style      lj/cut/coul/long 12.0  12.0
kspace_style    pppm 1e-4
bond_style      harmonic
angle_style     harmonic
dihedral_style  fourier
improper_style  cvff
special_bonds   amber
pair_modify     mix arithmetic
read_data       temp.lmps
  orthogonal box = (-174.199 -174.199 -174.199) to (174.199 174.199 174.199)
  2 by 2 by 4 MPI processor grid
  reading atoms ...
  2562 atoms
  reading velocities ...
  2562 velocities
  scanning bonds ...
  3 = max bonds/atom
  scanning angles ...
  6 = max angles/atom
  scanning dihedrals ...
  24 = max dihedrals/atom
  scanning impropers ...
  2 = max impropers/atom
  reading bonds ...
  2801 bonds
  reading angles ...
  4928 angles
  reading dihedrals ...
  7416 dihedrals
  reading impropers ...
  768 impropers
  4 = max # of 1-2 neighbors
  10 = max # of 1-3 neighbors
  20 = max # of 1-4 neighbors
  22 = max # of special neighbors
  special bonds CPU = 0.00148106 secs
  read_data CPU = 0.0519469 secs
################################################################################

min_style cg
minimize 1e-05 1e-05 10000 100000
WARNING: Using 'neigh_modify every 1 delay 0 check yes' setting during minimization (../min.cpp:190)
PPPM initialization ...
WARNING: System is not charge neutral, net charge = -2.7e-05 (../kspace.cpp:313)
  using 12-bit tables for long-range coulomb (../kspace.cpp:332)
  G vector (1/distance) = 0.0885415
  grid = 27 27 27
  stencil order = 5
  estimated absolute RMS force accuracy = 0.032172
  estimated relative force accuracy = 9.68851e-05
  using double precision KISS FFT
  3d grid and FFT values/proc = 4332 1458
Neighbor list info ...
  update every 1 steps, delay 0 steps, check yes
  max neighbors/atom: 2000, page size: 100000
  master list distance cutoff = 14
  ghost atom cutoff = 14
  binsize = 7, bins = 50 50 50
  1 neighbor lists, perpetual/occasional/extra = 1 0 0
  (1) pair lj/cut/coul/long, perpetual
      attributes: half, newton on
      pair build: half/bin/newton
      stencil: half/bin/3d/newton
      bin: standard
Per MPI rank memory allocation (min/avg/max) = 19.08 | 19.37 | 19.98 Mbytes
Step Temp E_pair E_mol TotEng Press 
       0    648.87869    1983.9113    6402.8727     13340.23    5.3620058 
      71    648.87869    1923.3108    6018.4418    12895.198    5.3267347 
Loop time of 1.24123 on 16 procs for 71 steps with 2562 atoms

92.2% CPU use with 16 MPI tasks x no OpenMP threads

Minimization stats:
  Stopping criterion = linesearch alpha is zero
  Energy initial, next-to-last, final = 
         8386.78397841      7941.75258694      7941.75258694
  Force two-norm initial, final = 214.169 129.427
  Force max component initial, final = 44.1984 31.9825
  Final line search alpha, max atom move = 7.20343e-13 2.30384e-11
  Iterations, force evaluations = 71 205

MPI task timing breakdown:
Section |  min time  |  avg time  |  max time  |%varavg| %total
---------------------------------------------------------------
Pair    | 2.7657e-05 | 0.19246    | 0.86437    |  60.4 | 15.51
Bond    | 6.1035e-05 | 0.022331   | 0.092929   |  19.4 |  1.80
Kspace  | 0.26608    | 1.0104     | 1.2273     |  29.3 | 81.40
Neigh   | 0.0031149  | 0.0032067  | 0.0032749  |   0.1 |  0.26
Comm    | 0.0001533  | 0.0042391  | 0.010313   |   6.5 |  0.34
Output  | 0          | 0          | 0          |   0.0 |  0.00
Modify  | 0          | 0          | 0          |   0.0 |  0.00
Other   |            | 0.008609   |            |       |  0.69

Nlocal:    160.125 ave 669 max 0 min
Histogram: 8 1 3 0 0 2 0 0 1 1
Nghost:    389.625 ave 962 max 0 min
Histogram: 8 0 0 0 0 1 0 2 3 2
Neighs:    17840.4 ave 76677 max 0 min
Histogram: 8 1 3 1 0 0 0 1 1 1

Total # of neighbors = 285446
Ave neighs/atom = 111.415
Ave special neighs/atom = 11.1109
Neighbor list builds = 1
Dangerous builds = 0
timestep        1
fix             pysimm_md all nvt temp 300 300 100
run             5000
PPPM initialization ...
  using 12-bit tables for long-range coulomb (../kspace.cpp:332)
  G vector (1/distance) = 0.0885415
  grid = 27 27 27
  stencil order = 5
  estimated absolute RMS force accuracy = 0.032172
  estimated relative force accuracy = 9.68851e-05
  using double precision KISS FFT
  3d grid and FFT values/proc = 4332 1458
Per MPI rank memory allocation (min/avg/max) = 17.95 | 18.24 | 18.86 Mbytes
Step Temp E_pair E_mol TotEng Press 
      71    648.87869    1923.3108    6018.4418    12895.198    5.3267347 
    5071    311.11806    2074.6868    7290.4188    11740.136    1.5277314 
Loop time of 15.2012 on 16 procs for 5000 steps with 2562 atoms

Performance: 28.419 ns/day, 0.845 hours/ns, 328.921 timesteps/s
93.7% CPU use with 16 MPI tasks x no OpenMP threads

MPI task timing breakdown:
Section |  min time  |  avg time  |  max time  |%varavg| %total
---------------------------------------------------------------
Pair    | 0.00042486 | 2.012      | 8.4356     | 195.1 | 13.24
Bond    | 0.00094485 | 0.33294    | 1.4008     |  74.8 |  2.19
Kspace  | 4.5816     | 11.18      | 13.288     |  85.5 | 73.54
Neigh   | 0.53603    | 0.54521    | 0.55305    |   0.7 |  3.59
Comm    | 0.01433    | 0.41025    | 1.2437     |  72.0 |  2.70
Output  | 2.6941e-05 | 2.7969e-05 | 3.4809e-05 |   0.0 |  0.00
Modify  | 0.039609   | 0.69344    | 1.3288     |  75.5 |  4.56
Other   |            | 0.0278     |            |       |  0.18

Nlocal:    160.125 ave 673 max 0 min
Histogram: 10 0 0 1 1 1 2 0 0 1
Nghost:    368.938 ave 945 max 0 min
Histogram: 8 0 0 0 0 2 2 0 0 4
Neighs:    17834.8 ave 68843 max 0 min
Histogram: 10 0 0 1 2 0 0 0 0 3

Total # of neighbors = 285357
Ave neighs/atom = 111.381
Ave special neighs/atom = 11.1109
Neighbor list builds = 242
Dangerous builds = 0
unfix pysimm_md
write_dump all custom pysimm.dump.tmp id q x y z vx vy vz
quit


################################################################################
##################################    Init    ##################################
################################################################################
units           real
atom_style      full
pair_style      lj/cut/coul/long 12.0  12.0
kspace_style    pppm 1e-4
bond_style      harmonic
angle_style     harmonic
dihedral_style  fourier
improper_style  cvff
special_bonds   amber
pair_modify     mix arithmetic
read_data       temp.lmps
  orthogonal box = (-178.44 -178.44 -178.44) to (178.44 178.44 178.44)
  2 by 2 by 4 MPI processor grid
  reading atoms ...
  2618 atoms
  reading velocities ...
  2618 velocities
  scanning bonds ...
  3 = max bonds/atom
  scanning angles ...
  6 = max angles/atom
  scanning dihedrals ...
  24 = max dihedrals/atom
  scanning impropers ...
  2 = max impropers/atom
  reading bonds ...
  2862 bonds
  reading angles ...
  5036 angles
  reading dihedrals ...
  7576 dihedrals
  reading impropers ...
  784 impropers
  4 = max # of 1-2 neighbors
  10 = max # of 1-3 neighbors
  20 = max # of 1-4 neighbors
  22 = max # of special neighbors
  special bonds CPU = 0.00188708 secs
  read_data CPU = 0.05463 secs
################################################################################

min_style cg
minimize 1e-05 1e-05 10000 100000
WARNING: Using 'neigh_modify every 1 delay 0 check yes' setting during minimization (../min.cpp:190)
PPPM initialization ...
WARNING: System is not charge neutral, net charge = -2.8e-05 (../kspace.cpp:313)
  using 12-bit tables for long-range coulomb (../kspace.cpp:332)
  G vector (1/distance) = 0.0869424
  grid = 27 27 27
  stencil order = 5
  estimated absolute RMS force accuracy = 0.0326051
  estimated relative force accuracy = 9.81892e-05
  using double precision KISS FFT
  3d grid and FFT values/proc = 4332 1458
Neighbor list info ...
  update every 1 steps, delay 0 steps, check yes
  max neighbors/atom: 2000, page size: 100000
  master list distance cutoff = 14
  ghost atom cutoff = 14
  binsize = 7, bins = 51 51 51
  1 neighbor lists, perpetual/occasional/extra = 1 0 0
  (1) pair lj/cut/coul/long, perpetual
      attributes: half, newton on
      pair build: half/bin/newton
      stencil: half/bin/3d/newton
      bin: standard
Per MPI rank memory allocation (min/avg/max) = 19.08 | 19.28 | 20.38 Mbytes
Step Temp E_pair E_mol TotEng Press 
       0    695.10487    936.77113     3193.103    9552.2343    5.8222363 
      28    695.10487    898.27981    3138.6217    9459.2617    5.1544359 
Loop time of 0.963547 on 16 procs for 28 steps with 2618 atoms

91.3% CPU use with 16 MPI tasks x no OpenMP threads

Minimization stats:
  Stopping criterion = linesearch alpha is zero
  Energy initial, next-to-last, final = 
         4129.87413293      4036.90152713      4036.90152713
  Force two-norm initial, final = 104.277 67.9785
  Force max component initial, final = 14.417 8.66041
  Final line search alpha, max atom move = 2.27416e-12 1.96951e-11
  Iterations, force evaluations = 28 115

MPI task timing breakdown:
Section |  min time  |  avg time  |  max time  |%varavg| %total
---------------------------------------------------------------
Pair    | 1.3828e-05 | 0.083213   | 0.66337    |  64.0 |  8.64
Bond    | 3.2902e-05 | 0.012137   | 0.085836   |  23.2 |  1.26
Kspace  | 0.20029    | 0.8558     | 0.95199    |  22.8 | 88.82
Neigh   | 0.0049291  | 0.0049565  | 0.0049961  |   0.0 |  0.51
Comm    | 9.5844e-05 | 0.001736   | 0.0047028  |   4.1 |  0.18
Output  | 0          | 0          | 0          |   0.0 |  0.00
Modify  | 0          | 0          | 0          |   0.0 |  0.00
Other   |            | 0.005709   |            |       |  0.59

Nlocal:    163.625 ave 1170 max 0 min
Histogram: 12 2 0 0 0 0 0 0 1 1
Nghost:    236.625 ave 770 max 0 min
Histogram: 8 0 2 0 0 1 1 3 0 1
Neighs:    14650.8 ave 119072 max 0 min
Histogram: 13 1 0 0 0 0 1 0 0 1

Total # of neighbors = 234413
Ave neighs/atom = 89.539
Ave special neighs/atom = 11.11
Neighbor list builds = 1
Dangerous builds = 0
timestep        1
fix             pysimm_md all nvt temp 300 300 100
run             5000
PPPM initialization ...
  using 12-bit tables for long-range coulomb (../kspace.cpp:332)
  G vector (1/distance) = 0.0869424
  grid = 27 27 27
  stencil order = 5
  estimated absolute RMS force accuracy = 0.0326051
  estimated relative force accuracy = 9.81892e-05
  using double precision KISS FFT
  3d grid and FFT values/proc = 4332 1458
Per MPI rank memory allocation (min/avg/max) = 17.95 | 18.16 | 19.25 Mbytes
Step Temp E_pair E_mol TotEng Press 
      28    695.10487    898.27981    3138.6217    9459.2617    5.1544359 
    5028    302.33825    1017.9539    4494.0709     7870.499   0.14875512 
Loop time of 23.9817 on 16 procs for 5000 steps with 2618 atoms

Performance: 18.014 ns/day, 1.332 hours/ns, 208.492 timesteps/s
93.4% CPU use with 16 MPI tasks x no OpenMP threads

MPI task timing breakdown:
Section |  min time  |  avg time  |  max time  |%varavg| %total
---------------------------------------------------------------
Pair    | 0.00049114 | 1.6404     | 14.13      | 298.0 |  6.84
Bond    | 0.00090981 | 0.33308    | 2.4051     | 125.8 |  1.39
Kspace  | 6.0956     | 18.885     | 20.627     |  90.4 | 78.75
Neigh   | 1.0148     | 1.0258     | 1.0353     |   0.6 |  4.28
Comm    | 0.011118   | 0.68946    | 2.2262     | 108.2 |  2.87
Output  | 2.7895e-05 | 3.0711e-05 | 3.7909e-05 |   0.0 |  0.00
Modify  | 0.072783   | 1.3605     | 2.2752     |  86.7 |  5.67
Other   |            | 0.04711    |            |       |  0.20

Nlocal:    163.625 ave 1226 max 0 min
Histogram: 12 2 0 0 0 0 0 1 0 1
Nghost:    215.438 ave 755 max 0 min
Histogram: 8 0 0 2 2 1 0 2 0 1
Neighs:    14000.9 ave 135264 max 0 min
Histogram: 14 0 0 0 1 0 0 0 0 1

Total # of neighbors = 224015
Ave neighs/atom = 85.5672
Ave special neighs/atom = 11.11
Neighbor list builds = 256
Dangerous builds = 1
unfix pysimm_md
write_dump all custom pysimm.dump.tmp id q x y z vx vy vz
quit


################################################################################
##################################    Init    ##################################
################################################################################
units           real
atom_style      full
pair_style      lj/cut/coul/long 12.0  12.0
kspace_style    pppm 1e-4
bond_style      harmonic
angle_style     harmonic
dihedral_style  fourier
improper_style  cvff
special_bonds   amber
pair_modify     mix arithmetic
read_data       temp.lmps
  orthogonal box = (-179.646 -179.646 -179.646) to (179.646 179.646 179.646)
  2 by 2 by 4 MPI processor grid
  reading atoms ...
  2668 atoms
  reading velocities ...
  2668 velocities
  scanning bonds ...
  3 = max bonds/atom
  scanning angles ...
  6 = max angles/atom
  scanning dihedrals ...
  24 = max dihedrals/atom
  scanning impropers ...
  2 = max impropers/atom
  reading bonds ...
  2917 bonds
  reading angles ...
  5132 angles
  reading dihedrals ...
  7724 dihedrals
  reading impropers ...
  800 impropers
  4 = max # of 1-2 neighbors
  10 = max # of 1-3 neighbors
  20 = max # of 1-4 neighbors
  22 = max # of special neighbors
  special bonds CPU = 0.00139999 secs
  read_data CPU = 0.0548639 secs
################################################################################

min_style cg
minimize 1e-05 1e-05 10000 100000
WARNING: Using 'neigh_modify every 1 delay 0 check yes' setting during minimization (../min.cpp:190)
PPPM initialization ...
WARNING: System is not charge neutral, net charge = -2.8e-05 (../kspace.cpp:313)
  using 12-bit tables for long-range coulomb (../kspace.cpp:332)
  G vector (1/distance) = 0.0864969
  grid = 27 27 27
  stencil order = 5
  estimated absolute RMS force accuracy = 0.0330243
  estimated relative force accuracy = 9.94516e-05
  using double precision KISS FFT
  3d grid and FFT values/proc = 4332 1458
Neighbor list info ...
  update every 1 steps, delay 0 steps, check yes
  max neighbors/atom: 2000, page size: 100000
  master list distance cutoff = 14
  ghost atom cutoff = 14
  binsize = 7, bins = 52 52 52
  1 neighbor lists, perpetual/occasional/extra = 1 0 0
  (1) pair lj/cut/coul/long, perpetual
      attributes: half, newton on
      pair build: half/bin/newton
      stencil: half/bin/3d/newton
      bin: standard
Per MPI rank memory allocation (min/avg/max) = 19.08 | 19.41 | 19.97 Mbytes
Step Temp E_pair E_mol TotEng Press 
       0     487.6555    977.18493    3326.3004     8180.259    3.6857827 
      77     487.6555     905.3812    3103.4235    7885.5784    3.7927583 
Loop time of 1.36726 on 16 procs for 77 steps with 2668 atoms

92.4% CPU use with 16 MPI tasks x no OpenMP threads

Minimization stats:
  Stopping criterion = linesearch alpha is zero
  Energy initial, next-to-last, final = 
         4303.48534544      4008.80473899      4008.80473899
  Force two-norm initial, final = 104.638 57.0282
  Force max component initial, final = 11.8419 6.51877
  Final line search alpha, max atom move = 2.58723e-12 1.68656e-11
  Iterations, force evaluations = 77 208

MPI task timing breakdown:
Section |  min time  |  avg time  |  max time  |%varavg| %total
---------------------------------------------------------------
Pair    | 3.4094e-05 | 0.16138    | 0.99346    |  69.0 | 11.80
Bond    | 6.4611e-05 | 0.022576   | 0.096555   |  20.8 |  1.65
Kspace  | 0.26087    | 1.1519     | 1.3374     |  28.6 | 84.25
Neigh   | 0.019001   | 0.019169   | 0.019323   |   0.1 |  1.40
Comm    | 0.00045395 | 0.003568   | 0.0083423  |   5.3 |  0.26
Output  | 0          | 0          | 0          |   0.0 |  0.00
Modify  | 0          | 0          | 0          |   0.0 |  0.00
Other   |            | 0.008648   |            |       |  0.63

Nlocal:    166.75 ave 723 max 0 min
Histogram: 9 2 0 1 1 0 1 0 1 1
Nghost:    250.375 ave 749 max 0 min
Histogram: 8 0 0 1 1 1 1 2 1 1
Neighs:    14498.1 ave 90629 max 0 min
Histogram: 11 1 1 1 0 0 1 0 0 1

Total # of neighbors = 231970
Ave neighs/atom = 86.9453
Ave special neighs/atom = 11.1117
Neighbor list builds = 5
Dangerous builds = 0
timestep        1
fix             pysimm_md all nvt temp 300 300 100
run             5000
PPPM initialization ...
  using 12-bit tables for long-range coulomb (../kspace.cpp:332)
  G vector (1/distance) = 0.0864969
  grid = 27 27 27
  stencil order = 5
  estimated absolute RMS force accuracy = 0.0330243
  estimated relative force accuracy = 9.94516e-05
  using double precision KISS FFT
  3d grid and FFT values/proc = 4332 1458
Per MPI rank memory allocation (min/avg/max) = 17.96 | 18.28 | 18.85 Mbytes
Step Temp E_pair E_mol TotEng Press 
      77     487.6555     905.3812    3103.4235    7885.5784    3.7927583 
    5077    300.59436    1040.7985    4469.1286    7899.5983  -0.60448351 
Loop time of 15.2421 on 16 procs for 5000 steps with 2668 atoms

Performance: 28.343 ns/day, 0.847 hours/ns, 328.039 timesteps/s
93.1% CPU use with 16 MPI tasks x no OpenMP threads

MPI task timing breakdown:
Section |  min time  |  avg time  |  max time  |%varavg| %total
---------------------------------------------------------------
Pair    | 0.00043106 | 1.6545     | 7.2204     | 183.3 | 10.85
Bond    | 0.00098491 | 0.34351    | 1.3677     |  69.7 |  2.25
Kspace  | 5.8541     | 11.535     | 13.284     |  71.8 | 75.68
Neigh   | 0.5629     | 0.57102    | 0.57878    |   0.7 |  3.75
Comm    | 0.012955   | 0.3633     | 1.068      |  66.6 |  2.38
Output  | 2.5034e-05 | 2.6971e-05 | 3.6001e-05 |   0.0 |  0.00
Modify  | 0.048601   | 0.74852    | 1.3532     |  69.7 |  4.91
Other   |            | 0.02627    |            |       |  0.17

Nlocal:    166.75 ave 802 max 0 min
Histogram: 8 1 1 4 0 1 0 0 0 1
Nghost:    308.438 ave 840 max 0 min
Histogram: 8 0 0 1 0 0 1 4 1 1
Neighs:    13199.4 ave 87411 max 0 min
Histogram: 8 4 3 0 0 0 0 0 0 1

Total # of neighbors = 211191
Ave neighs/atom = 79.157
Ave special neighs/atom = 11.1117
Neighbor list builds = 267
Dangerous builds = 0
unfix pysimm_md
write_dump all custom pysimm.dump.tmp id q x y z vx vy vz
quit
