
Host: node25

Timers On : Thu Jan 19 14:40:03 2023
Timers Off: Thu Jan 19 20:43:55 2023

Wall Time:    21831.77 seconds

                                                       Time (seconds)
Module                                       User      System        Wall        Calls

--------------------------------------------------------------------------------------

**************************************************************************************
