pySIMM System Object

674 atoms
701 bonds
1400 angles
2091 dihedrals
0 impropers

5 atom types
5 bond types
11 angle types
8 dihedral types

-116.822765 116.822765 xlo xhi
-116.822765 116.822765 ylo yhi
-116.822765 116.822765 zlo zhi

Masses

   1	12.01	# c3
   2	1.008	# hc
   3	16.0	# os
   4	1.008	# h1
   5	1.008	# h2

Pair Coeffs

   1	0.1094	3.3996695084235347	# c3
   2	0.0157	2.649532787749369	# hc
   3	0.17	3.0000123434657784	# os
   4	0.0157	2.471353044121301	# h1
   5	0.0157	2.2931733004932333	# h2

Bond Coeffs

   1	330.6	1.0969	# c3,h1
   2	308.6	1.4316	# c3,os
   3	330.6	1.0969	# c3,hc
   4	300.9	1.5375	# c3,c3
   5	331.7	1.0961	# c3,h2

Angle Coeffs

   1	62.7	112.48	# c3,os,c3
   2	50.85	109.58	# h2,c3,os
   3	68.0	107.97	# c3,c3,os
   4	72.74	108.29	# os,c3,os
   5	46.34	109.8	# c3,c3,hc
   6	46.25	110.22	# c3,c3,h2
   7	50.8	109.78	# h1,c3,os
   8	46.39	109.56	# c3,c3,h1
   9	39.4	107.58	# hc,c3,hc
  10	39.24	108.46	# h1,c3,h1
  11	62.86	111.51	# c3,c3,c3

Dihedral Coeffs

   1	3	0.18	3	0	0.25	2	180	0.2	1	180	# c3,c3,c3,c3
   2	2	0.0	3	0	0.25	1	0	# hc,c3,c3,os
   3	1	0.3833333333333333	3	0	# X,c3,os,X
   4	1	0.15	3	0	# hc,c3,c3,hc
   5	2	0.383	3	0	0.1	2	180	# c3,c3,os,c3
   6	1	0.16	3	0	# hc,c3,c3,c3
   7	3	0.1	3	0	0.85	2	180	1.35	1	180	# c3,os,c3,os
   8	1	0.15555555555555556	3	0	# X,c3,c3,X

Atoms

   1	1	1	-0.084968	-12.8491	-33.0435	-15.9125
   2	1	1	0.309483	-12.553	-34.5568	-15.9188
   3	1	2	-0.002	-12.4139	-32.57	-15.0236
   4	1	3	-0.436564	-13.0676	-35.104	-17.1467
   5	1	1	0.15357	-12.5743	-34.5068	-18.3596
   6	1	4	-0.002836	-11.1599	-32.5214	-17.1639
   7	1	3	-0.349559	-12.7928	-33.0838	-18.3235
   8	1	2	0.015925	-12.1582	-30.4868	-18.2173
   9	1	1	0.230077	-12.2513	-32.4044	-17.1785
  10	1	2	0.052641	-13.9331	-32.8758	-15.884
  11	1	4	-0.023623	-11.467	-34.7115	-15.8827
  12	1	1	-0.072969	-13.3704	-35.1059	-19.5362
  13	1	2	0.031276	-10.7878	-34.3411	-20.5946
  14	1	2	0.023309	-11.265	-35.9456	-21.2021
  15	1	2	0.030094	-11.2481	-34.5451	-22.2942
  16	1	5	0.077888	-11.5028	-34.7201	-18.466
  17	1	1	0.09092	-12.9442	-34.5689	-20.9227
  18	1	2	0.047821	-13.2591	-36.1973	-19.5232
  19	1	2	0.068339	-14.4366	-34.8972	-19.384
  20	1	1	-0.129023	-11.4711	-34.87	-21.2703
  21	1	2	-0.006475	-13.5865	-35.0237	-21.6875
  22	1	2	-0.010814	-13.1166	-33.4865	-20.9748
  23	1	1	-0.019372	-12.5946	-30.9069	-17.3025
  24	1	2	0.00686	-13.6807	-30.7534	-17.3367
  25	1	1	-0.084968	-13.3975	-35.7081	-12.2348
  26	1	1	0.309483	-12.8625	-35.2218	-10.8762
  27	1	2	-0.002	-14.4935	-35.6505	-12.2514
  28	1	3	-0.436564	-11.4243	-35.2707	-10.9366
  29	1	1	0.15357	-10.8288	-34.4787	-11.9818
  30	1	4	-0.002836	-13.1565	-33.8033	-13.2195
  31	1	3	-0.349559	-11.3731	-34.8736	-13.2544
  32	1	2	0.015925	-12.9676	-36.3957	-14.8562
  33	1	1	0.230077	-12.8082	-34.8348	-13.3576
  34	1	2	0.052641	-13.1177	-36.7579	-12.3902
  35	1	4	-0.023623	-13.1872	-34.184	-10.7282
  36	1	1	-0.072969	-9.30932	-34.732	-12.0141
  37	1	2	0.031276	-6.68861	-33.7471	-11.629
  38	1	2	0.023309	-6.61692	-34.0239	-9.87642
  39	1	2	0.030094	-6.75891	-35.4055	-10.9844
  40	1	5	0.077888	-11.0332	-33.4142	-11.8054
  41	1	1	0.09092	-8.60797	-34.2694	-10.7194
  42	1	2	0.047821	-9.11852	-35.8004	-12.177
  43	1	2	0.068339	-8.88253	-34.195	-12.8701
  44	1	1	-0.129023	-7.074	-34.3688	-10.8113
  45	1	2	-0.006475	-8.88827	-33.232	-10.4956
  46	1	2	-0.010814	-8.94868	-34.8869	-9.88233
  47	1	1	-0.019372	-13.2219	-35.3321	-14.7604
  48	1	2	0.00686	-14.313	-35.2592	-14.857
  49	1	1	-0.084968	-11.4691	-36.0233	-7.94371
  50	1	1	0.309483	-10.6439	-34.7956	-7.52154
  51	1	2	-0.002	-11.4894	-36.7524	-7.1232
  52	1	3	-0.436564	-11.4196	-34.0975	-6.53212
  53	1	1	0.15357	-12.6787	-33.5609	-6.99174
  54	1	4	-0.002836	-13.5848	-36.1031	-7.5571
  55	1	3	-0.349559	-13.1022	-34.1972	-8.21522
  56	1	2	0.015925	-13.0783	-37.141	-9.85853
  57	1	1	0.230077	-12.927	-35.6293	-8.29711
  58	1	2	0.052641	-10.9755	-36.5256	-8.78342
  59	1	4	-0.023623	-10.4957	-34.1457	-8.39301
  60	1	1	-0.072969	-12.4917	-32.0609	-7.2993
  61	1	2	0.031276	-12.8908	-29.301	-6.87496
  62	1	2	0.023309	-11.8695	-29.1568	-5.42808
  63	1	2	0.030094	-11.1405	-29.6046	-6.9842
  64	1	5	0.077888	-13.4429	-33.6996	-6.21585
  65	1	1	0.09092	-12.2653	-31.2177	-6.02562
  66	1	2	0.047821	-11.643	-31.9331	-7.98313
  67	1	2	0.068339	-13.3816	-31.6894	-7.82217
  68	1	1	-0.129023	-12.0277	-29.7297	-6.35033
  69	1	2	-0.006475	-13.1375	-31.3098	-5.36586
  70	1	2	-0.010814	-11.4025	-31.6009	-5.46931
  71	1	1	-0.019372	-13.3781	-36.0965	-9.70425
  72	1	2	0.00686	-14.4753	-36.0898	-9.72693
  73	1	1	-0.084968	-8.54438	-33.3266	-5.28044
  74	1	1	0.309483	-7.59529	-32.1285	-5.09316
  75	1	2	-0.002	-9.57733	-33.0142	-5.09622
  76	1	3	-0.436564	-6.25864	-32.5602	-5.42877
  77	1	1	0.15357	-6.0594	-33.2253	-6.69422
  78	1	4	-0.002836	-8.634	-33.1682	-7.44976
  79	1	3	-0.349559	-7.00857	-34.2973	-6.84866
  80	1	2	0.015925	-8.75533	-35.8297	-7.65774
  81	1	1	0.230077	-8.38827	-33.9239	-6.69305
  82	1	2	0.052641	-8.30534	-34.0916	-4.5313
  83	1	4	-0.023623	-7.61874	-31.8398	-4.03504
  84	1	1	-0.072969	-4.63565	-33.8116	-6.69272
  85	1	2	0.031276	-2.07625	-34.1422	-7.82751
  86	1	2	0.023309	-2.67574	-35.7396	-7.3214
  87	1	2	0.030094	-2.5362	-35.3478	-9.0487
  88	1	5	0.077888	-6.17287	-32.5073	-7.51654
  89	1	1	0.09092	-4.23551	-34.3985	-8.06346
  90	1	2	0.047821	-3.92609	-33.0216	-6.41652
  91	1	2	0.068339	-4.56712	-34.5891	-5.92146
  92	1	1	-0.129023	-2.79243	-34.9395	-8.06316
  93	1	2	-0.006475	-4.92185	-35.2099	-8.33732
  94	1	2	-0.010814	-4.32692	-33.6226	-8.83434
  95	1	1	-0.019372	-9.26394	-35.1729	-6.94046
  96	1	2	0.00686	-9.38271	-35.7523	-6.01561
  97	1	1	-0.084968	-5.73181	-29.616	-5.94442
  98	1	1	0.309483	-5.23776	-28.2034	-6.31866
  99	1	2	-0.002	-5.14077	-30.0208	-5.11276
 100	1	3	-0.436564	-5.96434	-27.251	-5.51881
 101	1	1	0.15357	-7.38157	-27.1928	-5.78325
 102	1	4	-0.002836	-7.3061	-29.471	-4.45696
 103	1	3	-0.349559	-7.87381	-28.4895	-6.18708
 104	1	2	0.015925	-9.06996	-30.7017	-5.77214
 105	1	1	0.230077	-7.22983	-29.6088	-5.54366
 106	1	2	0.052641	-5.56634	-30.2758	-6.80376
 107	1	4	-0.023623	-5.46604	-28.0328	-7.37819
 108	1	1	-0.072969	-7.6455	-26.2011	-6.9384
 109	1	2	0.031276	-8.48643	-23.7172	-7.98951
 110	1	2	0.023309	-7.02634	-22.8019	-7.56254
 111	1	2	0.030094	-6.92098	-24.1432	-8.71992
 112	1	5	0.077888	-7.90235	-26.8612	-4.87561
 113	1	1	0.09092	-7.13062	-24.7747	-6.63679
 114	1	2	0.047821	-7.17659	-26.5718	-7.85829
 115	1	2	0.068339	-8.72516	-26.1629	-7.12803
 116	1	1	-0.129023	-7.40915	-23.8013	-7.79896
 117	1	2	-0.006475	-7.60948	-24.3961	-5.72474
 118	1	2	-0.010814	-6.05017	-24.795	-6.44788
 119	1	1	-0.019372	-8.00151	-30.8893	-5.93415
 120	1	2	0.00686	-7.88224	-31.0808	-7.00748
 121	1	1	-0.084968	-1.79284	-26.3025	-6.28635
 122	1	1	0.309483	-1.43344	-24.8635	-6.71343
 123	1	2	-0.002	-1.4791	-26.4802	-5.24967
 124	1	3	-0.436564	-1.96589	-24.6367	-8.03493
 125	1	1	0.15357	-3.35656	-24.9461	-8.26591
 126	1	4	-0.002836	-3.84794	-25.8651	-5.7704
 127	1	3	-0.349559	-3.65961	-26.2714	-7.80153
 128	1	2	0.015925	-3.16483	-28.698	-6.73413
 129	1	1	0.230077	-3.30573	-26.547	-6.43602
 130	1	2	0.052641	-1.24187	-27.0113	-6.91708
 131	1	4	-0.023623	-0.340221	-24.7836	-6.75577
 132	1	1	-0.072969	-3.65584	-24.8457	-9.77911
 133	1	2	0.031276	-1.33796	-26.9794	-11.3914
 134	1	2	0.023309	-1.11778	-25.2779	-10.9302
 135	1	2	0.030094	-1.25866	-26.5369	-9.67854
 136	1	5	0.077888	-3.98059	-24.2231	-7.72528
 137	1	1	0.09092	-3.15591	-26.0274	-10.6507
 138	1	2	0.047821	-4.74164	-24.7618	-9.90638
 139	1	2	0.068339	-3.23086	-23.9103	-10.163
 140	1	1	-0.129023	-1.62409	-26.2132	-10.6605
 141	1	2	-0.006475	-3.63367	-26.9616	-10.3292
 142	1	2	-0.010814	-3.48771	-25.8551	-11.6824
 143	1	1	-0.019372	-3.72377	-27.9951	-6.1032
 144	1	2	0.00686	-3.4632	-28.2194	-5.06076
 145	1	1	-0.084968	-2.28937	-21.6004	-7.13606
 146	1	1	0.309483	-3.65537	-21.1943	-6.56549
 147	1	2	-0.002	-1.74058	-20.7021	-7.44839
 148	1	3	-0.436564	-3.39488	-20.3148	-5.46164
 149	1	1	0.15357	-2.57796	-20.8115	-4.38099
 150	1	4	-0.002836	-0.434849	-22.4367	-6.43312
 151	1	3	-0.349559	-1.42689	-21.5606	-4.85325
 152	1	2	0.015925	-1.57945	-24.0452	-4.72961
 153	1	1	0.230077	-1.46583	-22.3496	-6.06797
 154	1	2	0.052641	-2.41811	-22.2072	-8.03642
 155	1	4	-0.023623	-4.2	-22.0801	-6.21874
 156	1	1	-0.072969	-3.47061	-21.6595	-3.44015
 157	1	2	0.031276	-1.37096	-22.9124	-0.887193
 158	1	2	0.023309	-1.92097	-23.7689	-2.33959
 159	1	2	0.030094	-0.818715	-22.3764	-2.48134
 160	1	5	0.077888	-2.2154	-19.9466	-3.81053
 161	1	1	0.09092	-2.89489	-21.8361	-2.01478
 162	1	2	0.047821	-4.43831	-21.1506	-3.3452
 163	1	2	0.068339	-3.68761	-22.6393	-3.87382
 164	1	1	-0.129023	-1.67733	-22.7801	-1.93221
 165	1	2	-0.006475	-2.62754	-20.8556	-1.60055
 166	1	2	-0.010814	-3.68553	-22.2408	-1.37018
 167	1	1	-0.019372	-1.9519	-23.7841	-5.72748
 168	1	2	0.00686	-3.04309	-23.8193	-5.66645
 169	1	1	-0.084968	-5.85587	-18.7248	-6.20704
 170	1	1	0.309483	-7.02287	-17.7782	-6.55464
 171	1	2	-0.002	-5.88511	-18.984	-5.14061
 172	1	3	-0.436564	-8.20349	-18.586	-6.7122
 173	1	1	0.15357	-8.16221	-19.5345	-7.79986
 174	1	4	-0.002836	-6.30279	-20.838	-6.41393
 175	1	3	-0.349559	-6.80023	-19.8504	-8.15766
 176	1	2	0.015925	-4.70143	-21.1594	-8.44616
 177	1	1	0.230077	-5.90452	-20.0311	-7.04276
 178	1	2	0.052641	-4.91211	-18.1918	-6.37442
 179	1	4	-0.023623	-6.79118	-17.2778	-7.50354
 180	1	1	-0.072969	-8.84178	-18.9157	-9.03823
 181	1	2	0.031276	-11.0069	-18.8607	-10.8522
 182	1	2	0.023309	-12.0896	-17.8621	-9.85946
 183	1	2	0.030094	-10.5609	-17.1848	-10.4573
 184	1	5	0.077888	-8.68962	-20.4495	-7.50009
 185	1	1	0.09092	-10.3302	-18.5842	-8.79076
 186	1	2	0.047821	-8.30547	-18.0068	-9.33839
 187	1	2	0.068339	-8.76199	-19.6242	-9.8717
 188	1	1	-0.129023	-11.0377	-18.0928	-10.0691
 189	1	2	-0.006475	-10.8475	-19.4772	-8.41712
 190	1	2	-0.010814	-10.4169	-17.8127	-8.01497
 191	1	1	-0.019372	-4.53278	-20.4696	-7.60883
 192	1	2	0.00686	-3.99808	-19.6042	-8.02171
 193	1	1	-0.084968	-8.61335	-14.6046	-4.81639
 194	1	1	0.309483	-8.43403	-13.1659	-5.34978
 195	1	2	-0.002	-9.63963	-14.7422	-4.45158
 196	1	3	-0.436564	-9.1192	-13.0927	-6.61527
 197	1	1	0.15357	-8.65489	-13.9935	-7.64284
 198	1	4	-0.002836	-9.25935	-16.1707	-6.17173
 199	1	3	-0.349559	-7.79867	-15.0059	-7.08202
 200	1	2	0.015925	-6.33809	-16.2099	-5.22056
 201	1	1	0.230077	-8.32082	-15.6643	-5.91141
 202	1	2	0.052641	-7.9531	-14.7495	-3.95263
 203	1	4	-0.023623	-7.36179	-12.9788	-5.4955
 204	1	1	-0.072969	-7.84276	-13.1776	-8.66991
 205	1	2	0.031276	-9.07048	-14.1243	-11.0254
 206	1	2	0.023309	-7.83944	-15.3269	-11.4671
 207	1	2	0.030094	-8.80507	-15.5545	-9.99905
 208	1	5	0.077888	-9.52143	-14.4622	-8.12687
 209	1	1	0.09092	-7.24642	-14.0271	-9.8178
 210	1	2	0.047821	-8.49016	-12.4012	-9.09621
 211	1	2	0.068339	-7.02776	-12.6582	-8.15145
 212	1	1	-0.129023	-8.30799	-14.8037	-10.6244
 213	1	2	-0.006475	-6.70003	-13.3628	-10.4993
 214	1	2	-0.010814	-6.5096	-14.7339	-9.41549
 215	1	1	-0.019372	-7.28124	-16.7162	-5.46398
 216	1	2	0.00686	-7.62536	-17.2094	-4.5455
 217	1	1	-0.084968	-8.62152	-10.0575	-5.98056
 218	1	1	0.309483	-8.02689	-8.63605	-6.04723
 219	1	2	-0.002	-8.19529	-10.6646	-6.78785
 220	1	3	-0.436564	-8.48754	-7.88995	-4.90363
 221	1	1	0.15357	-8.31573	-8.48621	-3.6025
 222	1	4	-0.002836	-7.2643	-10.8208	-4.46815
 223	1	3	-0.349559	-8.85632	-9.82063	-3.59523
 224	1	2	0.015925	-8.82458	-12.3986	-3.36261
 225	1	1	0.230077	-8.34627	-10.7055	-4.60711
 226	1	2	0.052641	-9.70402	-10.0058	-6.15127
 227	1	4	-0.023623	-8.40578	-8.15092	-6.95537
 228	1	1	-0.072969	-9.09479	-7.61953	-2.59353
 229	1	2	0.031276	-7.58462	-8.46639	0.474847
 230	1	2	0.023309	-6.99994	-8.97113	-1.1202
 231	1	2	0.030094	-7.06344	-7.24037	-0.700891
 232	1	5	0.077888	-7.24973	-8.5137	-3.34318
 233	1	1	0.09092	-9.01805	-8.12418	-1.13404
 234	1	2	0.047821	-8.71102	-6.59262	-2.63823
 235	1	2	0.068339	-10.1466	-7.57524	-2.90207
 236	1	1	-0.129023	-7.577	-8.2039	-0.59023
 237	1	2	-0.006475	-9.59935	-7.44533	-0.497235
 238	1	2	-0.010814	-9.49199	-9.1106	-1.05339
 239	1	1	-0.019372	-9.00563	-12.0888	-4.39991
 240	1	2	0.00686	-10.0946	-12.0166	-4.52139
 241	1	1	-0.084968	-5.53653	-6.54584	-4.89719
 242	1	1	0.309483	-4.83039	-5.19798	-5.14556
 243	1	2	-0.002	-6.44115	-6.37895	-4.3018
 244	1	3	-0.436564	-3.68255	-5.43278	-5.98182
 245	1	1	0.15357	-3.93464	-6.10133	-7.23109
 246	1	4	-0.002836	-6.57599	-6.56155	-6.80908
 247	1	3	-0.349559	-4.65625	-7.32371	-6.99609
 248	1	2	0.015925	-6.18615	-9.21026	-7.00262
 249	1	1	0.230077	-5.88133	-7.20224	-6.2502
 250	1	2	0.052641	-4.88444	-7.22071	-4.33207
 251	1	4	-0.023623	-5.52726	-4.53883	-5.67923
 252	1	1	-0.072969	-2.58379	-6.46833	-7.87326
 253	1	2	0.031276	0.185411	-6.18734	-8.31327
 254	1	2	0.023309	-0.63519	-6.20949	-9.89221
 255	1	2	0.030094	0.0992936	-4.70719	-9.29209
 256	1	5	0.077888	-4.51573	-5.45021	-7.89754
 257	1	1	0.09092	-1.7782	-5.22491	-8.30801
 258	1	2	0.047821	-1.99409	-7.06092	-7.16217
 259	1	2	0.068339	-2.76739	-7.1053	-8.74721
 260	1	1	-0.129023	-0.451552	-5.60763	-8.99324
 261	1	2	-0.006475	-2.37989	-4.62163	-8.99991
 262	1	2	-0.010814	-1.5617	-4.59527	-7.43563
 263	1	1	-0.019372	-6.4782	-8.6248	-6.12096
 264	1	2	0.00686	-6.03549	-9.13632	-5.25786
 265	1	1	-0.084968	-2.48711	-4.30185	-2.10933
 266	1	1	0.309483	-1.48227	-5.16168	-1.32006
 267	1	2	-0.002	-1.957	-3.52919	-2.68077
 268	1	3	-0.436564	-2.21969	-6.17508	-0.612472
 269	1	1	0.15357	-3.05279	-7.01975	-1.42925
 270	1	4	-0.002836	-2.57329	-5.70951	-3.73973
 271	1	3	-0.349559	-3.92973	-6.21063	-2.23443
 272	1	2	0.015925	-5.21808	-4.23926	-3.22655
 273	1	1	0.230077	-3.27961	-5.22189	-3.05579
 274	1	2	0.052641	-3.17963	-3.80157	-1.42403
 275	1	4	-0.023623	-0.809377	-5.65209	-2.03554
 276	1	1	-0.072969	-3.92605	-7.89461	-0.509946
 277	1	2	0.031276	-1.54918	-9.44584	-1.05625
 278	1	2	0.023309	-1.85157	-10.65	0.208801
 279	1	2	0.030094	-3.00059	-10.4743	-1.13372
 280	1	5	0.077888	-2.42994	-7.64291	-2.08385
 281	1	1	0.09092	-3.122	-8.88333	0.365165
 282	1	2	0.047821	-4.52189	-7.24273	0.141248
 283	1	2	0.068339	-4.63378	-8.45859	-1.12794
 284	1	1	-0.129023	-2.33394	-9.92427	-0.457681
 285	1	2	-0.006475	-2.43151	-8.33295	1.0168
 286	1	2	-0.010814	-3.81976	-9.41338	1.02586
 287	1	1	-0.019372	-4.35555	-4.46003	-3.86852
 288	1	2	0.00686	-3.94832	-3.48823	-4.17624
 289	1	1	-0.084968	-0.572218	-3.4135	2.05878
 290	1	1	0.309483	-1.37173	-2.54169	3.04003
 291	1	2	-0.002	-0.345769	-4.38472	2.51759
 292	1	3	-0.436564	-1.62759	-1.29363	2.37683
 293	1	1	0.15357	-2.40137	-1.4102	1.16902
 294	1	4	-0.002836	-2.31775	-4.16731	1.0374
 295	1	3	-0.349559	-1.74265	-2.3154	0.256288
 296	1	2	0.015925	0.0537212	-3.70033	-0.838228
 297	1	1	0.230077	-1.40356	-3.61817	0.777595
 298	1	2	0.052641	0.381691	-2.9279	1.81693
 299	1	4	-0.023623	-2.32018	-3.05071	3.25435
 300	1	1	-0.072969	-2.48584	-0.012905	0.520081
 301	1	2	0.031276	-4.90955	-0.493515	-2.00104
 302	1	2	0.023309	-3.17287	-0.865917	-2.06543
 303	1	2	0.030094	-4.251	-1.78739	-0.987298
 304	1	5	0.077888	-3.40444	-1.78236	1.41656
 305	1	1	0.09092	-3.7927	0.226952	-0.270601
 306	1	2	0.047821	-2.41381	0.753495	1.30233
 307	1	2	0.068339	-1.62219	0.134929	-0.140157
 308	1	1	-0.129023	-4.04241	-0.793667	-1.40002
 309	1	2	-0.006475	-4.64478	0.211861	0.421152
 310	1	2	-0.010814	-3.75912	1.23426	-0.704756
 311	1	1	-0.019372	-0.608688	-4.39231	-0.302385
 312	1	2	0.00686	0.0494581	-5.12224	0.186762
 313	1	1	-0.084968	-1.21612	0.0362048	5.34843
 314	1	1	0.309483	-2.05936	0.66921	6.46989
 315	1	2	-0.002	-0.155639	0.288241	5.47255
 316	1	3	-0.436564	-3.42999	0.328052	6.20542
 317	1	1	0.15357	-3.73653	-1.07945	6.15118
 318	1	4	-0.002836	-1.04938	-1.81295	6.42326
 319	1	3	-0.349559	-2.80529	-1.79718	5.31663
 320	1	2	0.015925	0.343967	-1.7888	4.15825
 321	1	1	0.230077	-1.40208	-1.4912	5.43467
 322	1	2	0.052641	-1.54068	0.414795	4.3716
 323	1	4	-0.023623	-1.764	0.233797	7.43342
 324	1	1	-0.072969	-5.14674	-1.24241	5.54471
 325	1	2	0.031276	-6.99921	-1.94714	3.53531
 326	1	2	0.023309	-7.38377	-0.300668	4.0923
 327	1	2	0.030094	-6.70633	-0.556137	2.46979
 328	1	5	0.077888	-3.70718	-1.49377	7.16727
 329	1	1	0.09092	-5.24509	-0.758047	4.07621
 330	1	2	0.047821	-5.43743	-2.2987	5.59988
 331	1	2	0.068339	-5.86165	-0.684149	6.16121
 332	1	1	-0.129023	-6.67193	-0.900153	3.51109
 333	1	2	-0.006475	-4.93775	0.293005	4.00516
 334	1	2	-0.010814	-4.55989	-1.33603	3.44411
 335	1	1	-0.019372	-0.610586	-2.28934	4.36538
 336	1	2	0.00686	-0.352576	-3.26387	4.79911
 337	1	1	-0.084968	-0.56599	4.18921	7.41332
 338	1	1	0.309483	0.866252	4.65927	7.75262
 339	1	2	-0.002	-1.03198	4.87939	6.69894
 340	1	3	-0.436564	1.506	3.64645	8.55189
 341	1	1	0.15357	1.4983	2.30556	8.03513
 342	1	4	-0.002836	-0.00240862	2.77577	5.86537
 343	1	3	-0.349559	0.147792	1.90951	7.74258
 344	1	2	0.015925	-2.62995	2.53061	7.39212
 345	1	1	0.230077	-0.546947	2.76444	6.81854
 346	1	2	0.052641	-1.17655	4.1978	8.32515
 347	1	4	-0.023623	1.43312	4.80022	6.82358
 348	1	1	-0.072969	2.0872	1.36115	9.1038
 349	1	2	0.031276	2.00644	-0.595787	11.1287
 350	1	2	0.023309	2.98415	0.772654	11.7109
 351	1	2	0.030094	1.38846	0.453572	12.4226
 352	1	5	0.077888	2.10324	2.25908	7.11991
 353	1	1	0.09092	1.3042	1.3581	10.4386
 354	1	2	0.047821	2.12034	0.342561	8.69801
 355	1	2	0.068339	3.12555	1.65833	9.29512
 356	1	1	-0.129023	1.96245	0.440043	11.4878
 357	1	2	-0.006475	1.249	2.37579	10.8453
 358	1	2	-0.010814	0.273443	1.02283	10.2672
 359	1	1	-0.019372	-1.97345	2.21127	6.57252
 360	1	2	0.00686	-2.37667	2.66411	5.6575
 361	1	1	-0.084968	0.295629	8.42843	8.84696
 362	1	1	0.309483	0.58602	9.74898	8.0985
 363	1	2	-0.002	-0.682571	8.47608	9.34297
 364	1	3	-0.436564	0.0454328	9.64382	6.76644
 365	1	1	0.15357	0.586605	8.58913	5.94108
 366	1	4	-0.002836	-0.714064	6.98546	7.59229
 367	1	3	-0.349559	1.10691	7.51236	6.74907
 368	1	2	0.015925	1.95376	6.16123	8.87231
 369	1	1	0.230077	0.315309	7.19777	7.90749
 370	1	2	0.052641	1.0425	8.3151	9.64253
 371	1	4	-0.023623	1.67333	9.88757	8.04179
 372	1	1	-0.072969	1.73896	9.17192	5.09572
 373	1	2	0.031276	0.52713	7.08423	3.49663
 374	1	2	0.023309	0.875143	8.51586	2.49677
 375	1	2	0.030094	1.82827	7.03129	2.29493
 376	1	5	0.077888	-0.211402	8.21491	5.28759
 377	1	1	0.09092	2.34202	8.16811	4.08478
 378	1	2	0.047821	1.37405	10.053	4.55319
 379	1	2	0.068339	2.53375	9.52256	5.7653
 380	1	1	-0.129023	1.32826	7.67186	3.03197
 381	1	2	-0.006475	3.17841	8.65327	3.56578
 382	1	2	-0.010814	2.7637	7.30677	4.61816
 383	1	1	-0.019372	0.910573	5.95235	8.60077
 384	1	2	0.00686	0.37241	5.77885	9.54205
 385	1	1	-0.084968	-0.350607	13.5125	8.73139
 386	1	1	0.309483	0.308059	14.8157	8.24384
 387	1	2	-0.002	-1.38219	13.4499	8.36188
 388	1	3	-0.436564	1.66385	14.8244	8.72161
 389	1	1	0.15357	2.47328	13.709	8.31136
 390	1	4	-0.002836	0.431656	12.2861	7.13097
 391	1	3	-0.349559	1.82979	12.4713	8.67142
 392	1	2	0.015925	0.15106	10.9312	9.8718
 393	1	1	0.230077	0.467783	12.3074	8.22787
 394	1	2	0.052641	-0.389951	13.5032	9.82831
 395	1	4	-0.023623	0.313581	14.8268	7.14633
 396	1	1	-0.072969	3.83644	13.8046	9.02765
 397	1	2	0.031276	5.02149	13.8738	12.3321
 398	1	2	0.023309	5.76812	13.0628	10.9389
 399	1	2	0.030094	5.61255	14.8357	10.9606
 400	1	5	0.077888	2.61858	13.742	7.22353
 401	1	1	0.09092	3.73522	13.7822	10.5718
 402	1	2	0.047821	4.47246	12.9766	8.69115
 403	1	2	0.068339	4.3314	14.7312	8.71211
 404	1	1	-0.129023	5.12005	13.8956	11.2396
 405	1	2	-0.006475	3.10606	14.6114	10.9199
 406	1	2	-0.010814	3.25531	12.8525	10.9025
 407	1	1	-0.019372	-0.0549862	10.9699	8.79404
 408	1	2	0.00686	-1.14574	10.9185	8.67951
 409	1	1	-0.084968	0.897721	17.6847	7.1817
 410	1	1	0.309483	1.67625	19.0161	7.14803
 411	1	2	-0.002	1.53074	16.8783	6.79135
 412	1	3	-0.436564	0.84575	20.0361	7.74674
 413	1	1	0.15357	0.268603	19.765	9.04351
 414	1	4	-0.002836	1.30138	17.2823	9.27974
 415	1	3	-0.349559	-0.375766	18.4776	9.05539
 416	1	2	0.015925	-0.679095	15.9522	9.8112
 417	1	1	0.230077	0.430817	17.3722	8.619
 418	1	2	0.052641	0.0256651	17.7604	6.52038
 419	1	4	-0.023623	1.85808	19.2768	6.09828
 420	1	1	-0.072969	-0.806502	20.8246	9.34623
 421	1	2	0.031276	-1.74368	23.0064	10.8597
 422	1	2	0.023309	-0.853096	24.2726	9.98823
 423	1	2	0.030094	-2.09223	23.3197	9.14325
 424	1	5	0.077888	1.04909	19.788	9.81208
 425	1	1	0.09092	-0.219199	22.2447	9.48826
 426	1	2	0.047821	-1.5616	20.8143	8.54998
 427	1	2	0.068339	-1.31852	20.5499	10.2767
 428	1	1	-0.129023	-1.2939	23.2724	9.89468
 429	1	2	-0.006475	0.576053	22.2389	10.2429
 430	1	2	-0.010814	0.237926	22.5573	8.54092
 431	1	1	-0.019372	-0.415366	16.0842	8.75391
 432	1	2	0.00686	-1.35937	16.2017	8.20605
 433	1	1	-0.084968	5.2038	20.1141	8.52796
 434	1	1	0.309483	6.14867	21.2944	8.22218
 435	1	2	-0.002	4.96289	20.0673	9.59567
 436	1	3	-0.436564	6.37342	21.3216	6.7989
 437	1	1	0.15357	5.21395	21.3339	5.94057
 438	1	4	-0.002836	3.34738	21.0891	7.95613
 439	1	3	-0.349559	4.31896	20.2602	6.29717
 440	1	2	0.015925	3.59437	18.0617	7.50893
 441	1	1	0.230077	3.91929	20.1942	7.6805
 442	1	2	0.052641	5.73069	19.1813	8.29117
 443	1	4	-0.023623	7.10965	21.0958	8.71295
 444	1	1	-0.072969	5.71567	21.1115	4.5009
 445	1	2	0.031276	5.94347	21.7057	1.77789
 446	1	2	0.023309	5.47594	19.993	1.8875
 447	1	2	0.030094	4.317	21.1911	1.28245
 448	1	5	0.077888	4.69517	22.2978	6.02238
 449	1	1	0.09092	4.59718	21.2531	3.44615
 450	1	2	0.047821	6.50921	21.8378	4.28394
 451	1	2	0.068339	6.16752	20.1151	4.4332
 452	1	1	-0.129023	5.11788	21.0218	2.01264
 453	1	2	-0.006475	3.79204	20.5369	3.6542
 454	1	2	-0.010814	4.16029	22.2577	3.51254
 455	1	1	-0.019372	3.04357	18.937	7.87731
 456	1	2	0.00686	2.89451	18.7743	8.95099
 457	1	1	-0.084968	5.65583	24.3377	10.6498
 458	1	1	0.309483	5.5618	24.4017	12.1875
 459	1	2	-0.002	6.57201	24.8229	10.2971
 460	1	3	-0.436564	4.35099	23.7271	12.5722
 461	1	1	0.15357	4.27625	22.35	12.157
 462	1	4	-0.002836	6.52578	22.3627	10.6447
 463	1	3	-0.349559	4.44297	22.2678	10.728
 464	1	2	0.015925	4.69036	22.9443	8.25929
 465	1	1	0.230077	5.64785	22.8616	10.2136
 466	1	2	0.052641	4.80632	24.8669	10.1993
 467	1	4	-0.023623	6.4131	23.8622	12.622
 468	1	1	-0.072969	2.89038	21.7996	12.5373
 469	1	2	0.031276	1.3039	19.7674	13.7277
 470	1	2	0.023309	0.544001	20.2958	12.209
 471	1	2	0.030094	1.28408	18.6841	12.3195
 472	1	5	0.077888	5.06277	21.7697	12.6577
 473	1	1	0.09092	2.7318	20.3091	12.1643
 474	1	2	0.047821	2.74664	21.9215	13.618
 475	1	2	0.068339	2.11533	22.3958	12.0416
 476	1	1	-0.129023	1.38271	19.7308	12.6338
 477	1	2	-0.006475	2.81676	20.188	11.0779
 478	1	2	-0.010814	3.54697	19.7283	12.6147
 479	1	1	-0.019372	5.67438	22.6996	8.67781
 480	1	2	0.00686	6.37831	23.4351	8.26929
 481	1	1	-0.084968	6.94609	27.9786	13.099
 482	1	1	0.309483	8.41264	28.4532	13.0948
 483	1	2	-0.002	6.34634	28.5465	12.3786
 484	1	3	-0.436564	9.11153	27.669	14.0734
 485	1	1	0.15357	9.12512	26.2558	13.8114
 486	1	4	-0.002836	7.35435	26.3985	11.7049
 487	1	3	-0.349559	7.77685	25.773	13.6453
 488	1	2	0.015925	5.16919	25.8324	13.7799
 489	1	1	0.230077	6.93958	26.4881	12.7146
 490	1	2	0.052641	6.50253	28.1212	14.0924
 491	1	4	-0.023623	8.84717	28.2232	12.1182
 492	1	1	-0.072969	9.75248	25.5564	15.0299
 493	1	2	0.031276	11.5935	23.8819	16.3284
 494	1	2	0.023309	9.95721	23.3717	16.8054
 495	1	2	0.030094	10.9392	22.3349	15.7484
 496	1	5	0.077888	9.7147	26.0578	12.9066
 497	1	1	0.09092	10.0995	24.0805	14.7425
 498	1	2	0.047821	10.664	26.0918	15.324
 499	1	2	0.068339	9.05648	25.6182	15.8759
 500	1	1	-0.129023	10.6834	23.3756	15.9827
 501	1	2	-0.006475	9.20262	23.5418	14.4112
 502	1	2	-0.010814	10.8272	24.03	13.9221
 503	1	1	-0.019372	5.53573	25.8443	12.7451
 504	1	2	0.00686	4.83125	26.4531	12.1638
 505	1	1	-0.084968	9.61997	30.6551	11.1441
 506	1	1	0.309483	9.36871	31.5315	9.89852
 507	1	2	-0.002	10.6187	30.8664	11.5469
 508	1	3	-0.436564	7.98311	31.4422	9.50832
 509	1	1	0.15357	7.01087	31.6989	10.5359
 510	1	4	-0.002836	8.69755	31.9412	12.6088
 511	1	3	-0.349559	7.25702	30.8189	11.6438
 512	1	2	0.015925	9.6242	30.0657	13.8996
 513	1	1	0.230077	8.55863	30.9186	12.2343
 514	1	2	0.052641	9.62039	29.6056	10.8523
 515	1	4	-0.023623	9.59235	32.5703	10.1739
 516	1	1	-0.072969	5.61292	31.3894	9.96337
 517	1	2	0.031276	4.24701	30.5056	12.2722
 518	1	2	0.023309	5.18078	31.9232	12.8096
 519	1	2	0.030094	3.41969	32.0283	12.663
 520	1	5	0.077888	7.07554	32.7478	10.8545
 521	1	1	0.09092	4.45606	32.0602	10.7428
 522	1	2	0.047821	5.57215	31.7347	8.92273
 523	1	2	0.068339	5.4626	30.3028	9.93771
 524	1	1	-0.129023	4.32167	31.5985	12.21
 525	1	2	-0.006475	4.58303	33.1501	10.7182
 526	1	2	-0.010814	3.51471	31.8438	10.2221
 527	1	1	-0.019372	8.63372	29.9492	13.441
 528	1	2	0.00686	7.90827	30.2613	14.2033
 529	1	1	-0.084968	10.716	29.5906	6.69563
 530	1	1	0.309483	10.1389	28.4177	5.87799
 531	1	2	-0.002	10.9275	30.4413	6.03514
 532	1	3	-0.436564	9.7982	27.3571	6.79049
 533	1	1	0.15357	8.87302	27.73	7.82615
 534	1	4	-0.002836	8.79087	30.3557	7.3047
 535	1	3	-0.349559	9.41902	28.8322	8.57078
 536	1	2	0.015925	11.2649	30.8692	9.05834
 537	1	1	0.230077	9.71169	30.0054	7.78898
 538	1	2	0.052641	11.6638	29.2877	7.15847
 539	1	4	-0.023623	9.2326	28.7602	5.36253
 540	1	1	-0.072969	8.64578	26.5238	8.75973
 541	1	2	0.031276	9.45221	23.9434	9.57657
 542	1	2	0.023309	10.5941	24.4629	10.8336
 543	1	2	0.030094	8.86677	24.8214	11.006
 544	1	5	0.077888	7.91834	28.0301	7.37358
 545	1	1	0.09092	9.90471	26.083	9.54318
 546	1	2	0.047821	7.84521	26.7738	9.46524
 547	1	2	0.068339	8.28177	25.6859	8.15255
 548	1	1	-0.129023	9.68794	24.7477	10.285
 549	1	2	-0.006475	10.7528	25.9684	8.85666
 550	1	2	-0.010814	10.1804	26.8581	10.2699
 551	1	1	-0.019372	10.2657	31.14	8.69341
 552	1	2	0.00686	10.4059	32.0324	8.07016
 553	1	1	-0.084968	11.5834	26.1912	2.945
 554	1	1	0.309483	10.834	25.6584	1.70182
 555	1	2	-0.002	12.2451	27.0098	2.63341
 556	1	3	-0.436564	9.63172	25.0221	2.16876
 557	1	1	0.15357	8.67367	25.9261	2.75853
 558	1	4	-0.002836	10.4497	25.8332	4.75098
 559	1	3	-0.349559	9.34834	27.0075	3.44235
 560	1	2	0.015925	12.0766	27.5914	5.34691
 561	1	1	0.230077	10.6086	26.6637	4.05137
 562	1	2	0.052641	12.2275	25.4074	3.36148
 563	1	4	-0.023623	10.569	26.5148	1.06884
 564	1	1	-0.072969	7.82761	25.1088	3.75895
 565	1	2	0.031276	5.29156	25.7469	6.09601
 566	1	2	0.023309	5.33445	24.4204	4.91398
 567	1	2	0.030094	6.57907	24.5245	6.18012
 568	1	5	0.077888	8.02771	26.3488	1.97772
 569	1	1	0.09092	6.83386	25.9726	4.56698
 570	1	2	0.047821	7.27085	24.3458	3.2007
 571	1	2	0.068339	8.49068	24.573	4.44905
 572	1	1	-0.129023	5.95562	25.1124	5.49614
 573	1	2	-0.006475	7.38103	26.7041	5.17466
 574	1	2	-0.010814	6.19046	26.5383	3.8811
 575	1	1	-0.019372	11.1469	27.8789	4.83906
 576	1	2	0.00686	11.4037	28.685	4.13964
 577	1	1	-0.084968	9.91438	23.3751	-0.512394
 578	1	1	0.309483	9.46475	23.145	-1.96661
 579	1	2	-0.002	10.1918	22.4283	-0.0362815
 580	1	3	-0.436564	9.17795	24.4309	-2.54327
 581	1	1	0.15357	10.2297	25.415	-2.50868
 582	1	4	-0.002836	11.9418	23.8042	-1.07362
 583	1	3	-0.349559	10.798	25.5261	-1.19085
 584	1	2	0.015925	11.8332	23.7339	1.46961
 585	1	1	0.230077	11.141	24.3057	-0.514434
 586	1	2	0.052641	9.08648	23.8101	0.0576982
 587	1	4	-0.023623	10.29	22.6912	-2.52743
 588	1	1	-0.072969	9.62843	26.7869	-2.87825
 589	1	2	0.031276	7.65374	28.7392	-3.29886
 590	1	2	0.023309	7.12957	28.9055	-1.6088
 591	1	2	0.030094	8.77942	29.3714	-2.07277
 592	1	5	0.077888	11.0165	25.1372	-3.22203
 593	1	1	0.09092	8.4602	27.213	-1.95459
 594	1	2	0.047821	10.4233	27.5418	-2.83426
 595	1	2	0.068339	9.27825	26.7555	-3.917
 596	1	1	-0.129023	7.97727	28.6452	-2.2548
 597	1	2	-0.006475	7.6177	26.5203	-2.0769
 598	1	2	-0.010814	8.76858	27.1595	-0.902763
 599	1	1	-0.019372	11.692	24.6552	0.890067
 600	1	2	0.00686	12.6921	25.0871	0.755686
 601	1	1	-0.084968	9.457	20.023	-2.36294
 602	1	1	0.309483	10.3924	19.4412	-1.28418
 603	1	2	-0.002	9.04482	19.2018	-2.96409
 604	1	3	-0.436564	9.55843	18.6709	-0.397655
 605	1	1	0.15357	8.49742	19.3972	0.267447
 606	1	4	-0.002836	7.34626	20.3126	-2.03137
 607	1	3	-0.349559	8.35209	20.7222	-0.281046
 608	1	2	0.015925	7.88021	22.3266	-3.18777
 609	1	1	0.230077	8.27823	20.801	-1.71862
 610	1	2	0.052641	10.0254	20.6451	-3.06161
 611	1	4	-0.023623	10.8614	20.262	-0.726783
 612	1	1	-0.072969	8.85343	19.5488	1.76134
 613	1	2	0.031276	7.06512	17.2884	1.59386
 614	1	2	0.023309	7.43138	16.6615	3.20945
 615	1	2	0.030094	6.67474	18.2542	3.03556
 616	1	5	0.077888	7.55096	18.8555	0.1497
 617	1	1	0.09092	8.80994	18.2191	2.5503
 618	1	2	0.047821	9.85805	19.982	1.84642
 619	1	2	0.068339	8.16564	20.2653	2.22687
 620	1	1	-0.129023	7.40963	17.5704	2.59591
 621	1	2	-0.006475	9.524	17.5067	2.12045
 622	1	2	-0.010814	9.14044	18.4106	3.57903
 623	1	1	-0.019372	8.17893	22.2921	-2.13231
 624	1	2	0.00686	7.35988	22.7615	-1.57163
 625	1	1	-0.084968	11.8012	16.5579	-0.257866
 626	1	1	0.309483	12.8971	15.4901	-0.047422
 627	1	2	-0.002	11.2838	16.754	0.688889
 628	1	3	-0.436564	14.0586	16.1576	0.47335
 629	1	1	0.15357	14.6658	17.1181	-0.418356
 630	1	4	-0.002836	12.516	18.5884	0.0442169
 631	1	3	-0.349559	13.6928	17.632	-1.35602
 632	1	2	0.015925	12.1503	19.2035	-2.50111
 633	1	1	0.230077	12.3897	17.8893	-0.793196
 634	1	2	0.052641	11.049	16.1629	-0.950673
 635	1	4	-0.023623	13.1572	15.0475	-1.01692
 636	1	1	-0.072969	15.7815	16.4218	-1.22963
 637	1	2	0.031276	18.131	17.5348	-0.10387
 638	1	2	0.023309	17.0027	17.2506	1.24421
 639	1	2	0.030094	18.4505	16.2425	1.07118
 640	1	5	0.077888	15.0844	17.9427	0.172624
 641	1	1	0.09092	16.8768	15.759	-0.359293
 642	1	2	0.047821	15.3335	15.6573	-1.87619
 643	1	2	0.068339	16.2484	17.1576	-1.89547
 644	1	1	-0.129023	17.6596	16.7611	0.514872
 645	1	2	-0.006475	16.4318	14.9868	0.28106
 646	1	2	-0.010814	17.5849	15.2424	-1.01958
 647	1	1	-0.019372	11.514	18.5609	-1.87893
 648	1	2	0.00686	11.0902	17.804	-2.55158
 649	1	1	-0.084968	11.4098	12.9024	-0.921116
 650	1	1	0.309483	10.1652	12.0574	-1.22342
 651	1	2	-0.002	11.527	13.6609	-1.70434
 652	1	3	-0.436564	10.0024	11.0914	-0.173882
 653	1	1	0.15357	9.94692	11.6058	1.17015
 654	1	4	-0.002836	10.3773	14.2248	0.450292
 655	1	3	-0.349559	11.0374	12.5136	1.42545
 656	1	2	0.015925	12.2993	14.7862	1.91587