pySIMM System Object

1058 atoms
1101 bonds
2200 angles
3291 dihedrals
0 impropers

5 atom types
5 bond types
11 angle types
8 dihedral types

-136.425550 136.425550 xlo xhi
-136.425550 136.425550 ylo yhi
-136.425550 136.425550 zlo zhi

Masses

   1	12.01	# c3
   2	1.008	# hc
   3	16.0	# os
   4	1.008	# h1
   5	1.008	# h2

Pair Coeffs

   1	0.1094	3.3996695084235347	# c3
   2	0.0157	2.649532787749369	# hc
   3	0.17	3.0000123434657784	# os
   4	0.0157	2.471353044121301	# h1
   5	0.0157	2.2931733004932333	# h2

Bond Coeffs

   1	330.6	1.0969	# c3,h1
   2	308.6	1.4316	# c3,os
   3	330.6	1.0969	# c3,hc
   4	300.9	1.5375	# c3,c3
   5	331.7	1.0961	# c3,h2

Angle Coeffs

   1	62.7	112.48	# c3,os,c3
   2	50.85	109.58	# h2,c3,os
   3	68.0	107.97	# c3,c3,os
   4	72.74	108.29	# os,c3,os
   5	46.34	109.8	# c3,c3,hc
   6	46.25	110.22	# c3,c3,h2
   7	50.8	109.78	# h1,c3,os
   8	46.39	109.56	# c3,c3,h1
   9	39.4	107.58	# hc,c3,hc
  10	39.24	108.46	# h1,c3,h1
  11	62.86	111.51	# c3,c3,c3

Dihedral Coeffs

   1	3	0.18	3	0	0.25	2	180	0.2	1	180	# c3,c3,c3,c3
   2	2	0.0	3	0	0.25	1	0	# hc,c3,c3,os
   3	1	0.3833333333333333	3	0	# X,c3,os,X
   4	1	0.15	3	0	# hc,c3,c3,hc
   5	2	0.383	3	0	0.1	2	180	# c3,c3,os,c3
   6	1	0.16	3	0	# hc,c3,c3,c3
   7	3	0.1	3	0	0.85	2	180	1.35	1	180	# c3,os,c3,os
   8	1	0.15555555555555556	3	0	# X,c3,c3,X

Atoms

   1	1	1	-0.084968	20.6434	24.3854	34.5833
   2	1	1	0.309483	21.6606	24.4336	35.741
   3	1	2	-0.002	20.9222	23.6114	33.8574
   4	1	3	-0.436564	21.196	25.4036	36.6976
   5	1	1	0.15357	19.8759	25.1784	37.2255
   6	1	4	-0.002836	19.2518	23.0828	35.612
   7	1	3	-0.349559	18.9333	25.0689	36.1421
   8	1	2	0.015925	17.1664	23.908	34.5049
   9	1	1	0.230077	19.2453	24.0781	35.1487
  10	1	2	0.052641	20.6316	25.3484	34.0575
  11	1	4	-0.023623	21.705	23.4484	36.2225
  12	1	1	-0.072969	19.4994	26.395	38.0944
  13	1	2	0.031276	18.0484	24.1332	39.1651
  14	1	2	0.023309	18.7467	25.106	40.4829
  15	1	2	0.030094	16.992	25.1007	40.2085
  16	1	5	0.077888	19.8709	24.2576	37.8229
  17	1	1	0.09092	18.1047	26.2872	38.7548
  18	1	2	0.047821	20.2587	26.5247	38.8756
  19	1	2	0.068339	19.5319	27.2975	37.4717
  20	1	1	-0.129023	17.9688	25.0821	39.7094
  21	1	2	-0.006475	17.9123	27.2078	39.3203
  22	1	2	-0.010814	17.3279	26.2285	37.982
  23	1	1	-0.019372	18.149	24.1218	34.0662
  24	1	2	0.00686	18.106	25.1093	33.5893
  25	1	1	-0.084968	25.177	24.284	33.9456
  26	1	1	0.309483	25.7686	23.2418	32.9793
  27	1	2	-0.002	25.2242	25.2846	33.4969
  28	1	3	-0.436564	25.6294	21.9496	33.6003
  29	1	1	0.15357	24.2788	21.5689	33.924
  30	1	4	-0.002836	23.1342	23.9657	33.3283
  31	1	3	-0.349559	23.6866	22.5713	34.7692
  32	1	2	0.015925	23.7263	24.893	36.1961
  33	1	1	0.230077	23.7148	23.9163	34.2582
  34	1	2	0.052641	25.7645	24.3074	34.8724
  35	1	4	-0.023623	25.1875	23.2642	32.0487
  36	1	1	-0.072969	24.2925	20.2405	34.7043
  37	1	2	0.031276	23.6547	17.4909	34.8178
  38	1	2	0.023309	25.0868	16.9076	33.9448
  39	1	2	0.030094	25.2773	17.7128	35.5169
  40	1	5	0.077888	23.6894	21.4643	33.0032
  41	1	1	0.09092	24.8307	19.0667	33.8594
  42	1	2	0.047821	24.9008	20.3537	35.6106
  43	1	2	0.068339	23.2697	20.0143	35.0298
  44	1	1	-0.129023	24.7029	17.7128	34.5819
  45	1	2	-0.006475	24.2908	19.0178	32.905
  46	1	2	-0.010814	25.886	19.2413	33.6285
  47	1	1	-0.019372	23.0829	24.8582	35.3074
  48	1	2	0.00686	23.0511	25.8774	34.9008
  49	1	1	-0.084968	28.2907	21.174	32.2556
  50	1	1	0.309483	27.6597	20.014	31.4661
  51	1	2	-0.002	29.3841	21.076	32.2414
  52	1	3	-0.436564	27.9608	20.2476	30.0797
  53	1	1	0.15357	27.3889	21.445	29.5105
  54	1	4	-0.002836	28.8267	23.0112	31.2712
  55	1	3	-0.349559	26.9937	22.3762	30.5392
  56	1	2	0.015925	27.8444	23.5274	33.5921
  57	1	1	0.230077	27.9055	22.5475	31.647
  58	1	2	0.052641	27.9945	21.1055	33.3085
  59	1	4	-0.023623	26.5722	20.029	31.6108
  60	1	1	-0.072969	26.114	21.0595	28.7327
  61	1	2	0.031276	24.5608	20.7123	26.4059
  62	1	2	0.023309	25.383	19.2527	25.8136
  63	1	2	0.030094	24.4963	19.2057	27.3516
  64	1	5	0.077888	28.1179	21.9179	28.8396
  65	1	1	0.09092	26.4196	20.2417	27.459
  66	1	2	0.047821	25.4471	20.4862	29.389
  67	1	2	0.068339	25.5768	21.9739	28.452
  68	1	1	-0.129023	25.1351	19.8294	26.7134
  69	1	2	-0.006475	27.0544	20.8336	26.7873
  70	1	2	-0.010814	26.9831	19.3384	27.7179
  71	1	1	-0.019372	27.2602	23.5243	32.6629
  72	1	2	0.00686	27.3384	24.5391	32.2524
  73	1	1	-0.084968	28.0347	17.0247	29.8849
  74	1	1	0.309483	27.2761	15.8073	29.3247
  75	1	2	-0.002	28.0195	17.8395	29.1542
  76	1	3	-0.436564	27.2289	14.7933	30.3509
  77	1	1	0.15357	26.7589	15.176	31.6597
  78	1	4	-0.002836	26.3853	17.7792	31.0886
  79	1	3	-0.349559	27.4649	16.3442	32.1168
  80	1	2	0.015925	28.0996	18.5505	32.988
  81	1	1	0.230077	27.4303	17.475	31.2296
  82	1	2	0.052641	29.0866	16.7498	30.0318
  83	1	4	-0.023623	27.8484	15.4179	28.4736
  84	1	1	-0.072969	27.0531	14.0065	32.6172
  85	1	2	0.031276	26.2917	12.12	34.5694
  86	1	2	0.023309	27.821	12.8726	35.081
  87	1	2	0.030094	26.3177	13.2268	35.959
  88	1	5	0.077888	25.6811	15.3807	31.6274
  89	1	1	0.09092	26.4696	14.2319	34.0287
  90	1	2	0.047821	26.6316	13.0861	32.194
  91	1	2	0.068339	28.1387	13.8615	32.6837
  92	1	1	-0.129023	26.7426	13.0387	34.9651
  93	1	2	-0.006475	26.9008	15.1389	34.4712
  94	1	2	-0.010814	25.386	14.3903	33.9559
  95	1	1	-0.019372	28.2024	18.6349	31.8986
  96	1	2	0.00686	29.2759	18.5612	31.681
  97	1	1	-0.084968	24.6982	13.8117	28.9623
  98	1	1	0.309483	23.48	13.0934	28.342
  99	1	2	-0.002	25.5187	13.1006	29.1219
 100	1	3	-0.436564	23.6006	13.1742	26.9085
 101	1	1	0.15357	23.5214	14.5093	26.3663
 102	1	4	-0.002836	25.9351	14.5647	27.346
 103	1	3	-0.349559	24.0773	15.4652	27.2978
 104	1	2	0.015925	25.9219	16.9964	28.1319
 105	1	1	0.230077	25.1988	14.9656	28.0553
 106	1	2	0.052641	24.4111	14.1941	29.9485
 107	1	4	-0.023623	22.5704	13.6201	28.6569
 108	1	1	-0.072969	22.0394	14.8692	26.1184
 109	1	2	0.031276	19.772	15.2385	24.4668
 110	1	2	0.023309	19.3923	13.5171	24.2424
 111	1	2	0.030094	19.302	14.2402	25.8626
 112	1	5	0.077888	24.0784	14.5438	25.421
 113	1	1	0.09092	21.3399	13.879	25.1577
 114	1	2	0.047821	21.4999	14.8966	27.0732
 115	1	2	0.068339	21.9882	15.8805	25.697
 116	1	1	-0.129023	19.8614	14.2427	24.9188
 117	1	2	-0.006475	21.8688	13.8649	24.1962
 118	1	2	-0.010814	21.3871	12.8612	25.564
 119	1	1	-0.019372	25.8485	16.1433	28.818
 120	1	2	0.00686	25.1979	16.4638	29.6408
 121	1	1	-0.084968	22.0456	9.4314	28.4106
 122	1	1	0.309483	20.8659	8.80082	27.6441
 123	1	2	-0.002	22.971	8.8779	28.2055
 124	1	3	-0.436564	19.6949	9.61363	27.8784
 125	1	1	0.15357	19.7982	11.0392	27.664
 126	1	4	-0.002836	22.3997	10.9654	26.9315
 127	1	3	-0.349559	20.9671	11.5727	28.3137
 128	1	2	0.015925	23.1909	11.549	29.8407
 129	1	1	0.230077	22.2048	10.9073	28.0091
 130	1	2	0.052641	21.8573	9.35885	29.489
 131	1	4	-0.023623	20.6944	7.79622	28.0498
 132	1	1	-0.072969	18.5319	11.7277	28.2223
 133	1	2	0.031276	18.3248	10.7664	31.6221
 134	1	2	0.023309	17.7016	9.89719	30.2034
 135	1	2	0.030094	19.4565	10.065	30.4544
 136	1	5	0.077888	19.8659	11.2346	26.5864
 137	1	1	0.09092	18.4742	11.898	29.7628
 138	1	2	0.047821	18.4538	12.7209	27.7644
 139	1	2	0.068339	17.6492	11.1684	27.8887
 140	1	1	-0.129023	18.4904	10.5739	30.555
 141	1	2	-0.006475	19.3011	12.5346	30.1021
 142	1	2	-0.010814	17.5519	12.4375	30.013
 143	1	1	-0.019372	23.356	11.6125	28.7575
 144	1	2	0.00686	24.2977	11.0902	28.5444
 145	1	1	-0.084968	18.7332	8.08429	25.2398
 146	1	1	0.309483	18.6041	9.17677	24.1688
 147	1	2	-0.002	18.1408	7.20905	24.9419
 148	1	3	-0.436564	19.0992	8.60792	22.9462
 149	1	1	0.15357	20.4453	8.09459	22.9186
 150	1	4	-0.002836	20.2219	6.74056	26.0071
 151	1	3	-0.349559	20.7752	7.3415	24.1144
 152	1	2	0.015925	22.1668	8.32953	25.9882
 153	1	1	0.230077	20.2061	7.65929	25.4075
 154	1	2	0.052641	18.3128	8.42752	26.1902
 155	1	4	-0.023623	19.1969	10.0548	24.4531
 156	1	1	-0.072969	21.4134	9.28071	22.6776
 157	1	2	0.031276	24.7304	8.11192	23.0271
 158	1	2	0.023309	23.7703	9.00471	24.2222
 159	1	2	0.030094	23.3134	7.34571	23.7594
 160	1	5	0.077888	20.5284	7.41863	22.0578
 161	1	1	0.09092	22.8398	8.86458	22.2462
 162	1	2	0.047821	20.9913	9.89024	21.8686
 163	1	2	0.068339	21.4662	9.94074	23.5465
 164	1	1	-0.129023	23.7105	8.29672	23.3863
 165	1	2	-0.006475	22.7822	8.13598	21.4275
 166	1	2	-0.010814	23.3476	9.74871	21.8401
 167	1	1	-0.019372	21.134	8.6739	26.1216
 168	1	2	0.00686	21.0734	9.65586	25.6467
 169	1	1	-0.084968	17.3285	10.5183	21.5249
 170	1	1	0.309483	16.4188	11.2697	20.529
 171	1	2	-0.002	18.3795	10.7908	21.3614
 172	1	3	-0.436564	16.0416	12.5253	21.1246
 173	1	1	0.15357	15.2664	12.4296	22.3388
 174	1	4	-0.002836	17.582	11.6413	23.3645
 175	1	3	-0.349559	15.5802	11.2184	23.0577
 176	1	2	0.015925	16.7112	9.88187	24.9345
 177	1	1	0.230077	16.9609	10.8116	23.0017
 178	1	2	0.052641	17.2425	9.4452	21.3158
 179	1	4	-0.023623	15.5221	10.6628	20.351
 180	1	1	-0.072969	13.765	12.3876	21.9854
 181	1	2	0.031276	11.1959	13.541	21.8738
 182	1	2	0.023309	11.4714	14.5427	20.4326
 183	1	2	0.030094	11.5351	12.7717	20.3049
 184	1	5	0.077888	15.4791	13.302	22.9701
 185	1	1	0.09092	13.2906	13.6634	21.2556
 186	1	2	0.047821	13.5559	11.5084	21.3631
 187	1	2	0.068339	13.1892	12.2656	22.911
 188	1	1	-0.129023	11.7806	13.6255	20.9491
 189	1	2	-0.006475	13.5115	14.5433	21.8734
 190	1	2	-0.010814	13.841	13.7838	20.3138
 191	1	1	-0.019372	17.1332	9.60709	23.9592
 192	1	2	0.00686	16.545	8.75471	23.5942
 193	1	1	-0.084968	16.8554	12.5111	16.8157
 194	1	1	0.309483	16.1812	11.9927	15.5277
 195	1	2	-0.002	16.8679	13.6088	16.8232
 196	1	3	-0.436564	14.7567	12.0244	15.7341
 197	1	1	0.15357	14.2661	11.1516	16.7734
 198	1	4	-0.002836	15.5016	12.8214	18.4806
 199	1	3	-0.349559	15.2965	10.8847	17.749
 200	1	2	0.015925	17.6412	10.6502	18.8428
 201	1	1	0.230077	16.1308	12.0104	18.0914
 202	1	2	0.052641	17.9029	12.186	16.8143
 203	1	4	-0.023623	16.5036	10.9565	15.3642
 204	1	1	-0.072969	13.8564	9.81472	16.1173
 205	1	2	0.031276	11.1684	9.58271	16.9198
 206	1	2	0.023309	11.4283	8.52601	18.3229
 207	1	2	0.030094	12.0498	10.186	18.3447
 208	1	5	0.077888	13.4018	11.6256	17.2555
 209	1	1	0.09092	13.2077	8.80631	17.0934
 210	1	2	0.047821	13.1611	10.0169	15.2931
 211	1	2	0.068339	14.7442	9.35064	15.6717
 212	1	1	-0.129023	11.884	9.31005	17.7055
 213	1	2	-0.006475	13.0117	7.87207	16.5521
 214	1	2	-0.010814	13.911	8.55853	17.8985
 215	1	1	-0.019372	17.1215	11.5547	19.1851
 216	1	2	0.00686	17.8901	12.3243	19.3354
 217	1	1	-0.084968	16.2917	13.0379	11.7329
 218	1	1	0.309483	15.8601	12.3023	10.4457
 219	1	2	-0.002	15.8063	14.0207	11.7891
 220	1	3	-0.436564	16.3854	10.9587	10.4791
 221	1	1	0.15357	16.1392	10.1768	11.665
 222	1	4	-0.002836	14.874	12.1012	13.0842
 223	1	3	-0.349559	16.565	10.9134	12.8221
 224	1	2	0.015925	17.6194	12.9223	14.1942
 225	1	1	0.230077	15.9619	12.2068	12.9885
 226	1	2	0.052641	17.3733	13.2165	11.6892
 227	1	4	-0.023623	16.308	12.8267	9.59242
 228	1	1	-0.072969	16.975	8.88546	11.5606
 229	1	2	0.031276	15.4561	6.81269	13.9743
 230	1	2	0.023309	14.8137	8.359	13.3925
 231	1	2	0.030094	15.0116	6.99626	12.2639
 232	1	5	0.077888	15.0708	9.93836	11.7458
 233	1	1	0.09092	16.8883	7.97533	12.8088
 234	1	2	0.047821	16.6463	8.32038	10.6795
 235	1	2	0.068339	18.0242	9.15512	11.3879
 236	1	1	-0.129023	15.4534	7.5093	13.1269
 237	1	2	-0.006475	17.5187	7.0922	12.6448
 238	1	2	-0.010814	17.3025	8.49552	13.6818
 239	1	1	-0.019372	16.5287	12.8341	14.2807
 240	1	2	0.00686	16.1345	13.8515	14.4013
 241	1	1	-0.084968	13.5764	10.0778	9.09683
 242	1	1	0.309483	13.0882	9.49238	7.75781
 243	1	2	-0.002	14.446	9.51091	9.44753
 244	1	3	-0.436564	11.981	10.2847	7.29693
 245	1	1	0.15357	12.2498	11.6896	7.14156
 246	1	4	-0.002836	14.745	11.6616	8.17811
 247	1	3	-0.349559	12.7612	12.2263	8.37686
 248	1	2	0.015925	13.9808	13.3217	10.1812
 249	1	1	0.230077	13.9283	11.5668	8.90596
 250	1	2	0.052641	12.7932	9.99604	9.85855
 251	1	4	-0.023623	13.9045	9.57174	7.02821
 252	1	1	-0.072969	10.9296	12.4072	6.80602
 253	1	2	0.031276	8.28111	12.5294	5.84624
 254	1	2	0.023309	9.23028	13.7941	5.02913
 255	1	2	0.030094	8.66892	12.3749	4.11956
 256	1	5	0.077888	12.9834	11.8444	6.33924
 257	1	1	0.09092	10.3538	11.9637	5.44275
 258	1	2	0.047821	10.1976	12.2103	7.59951
 259	1	2	0.068339	11.1069	13.4895	6.7919
 260	1	1	-0.129023	9.05426	12.7128	5.08954
 261	1	2	-0.006475	11.0971	12.1407	4.65463
 262	1	2	-0.010814	10.1513	10.8857	5.45704
 263	1	1	-0.019372	14.3267	12.2807	10.222
 264	1	2	0.00686	13.8101	11.8208	11.0735
 265	1	1	-0.084968	10.7803	6.39159	8.48397
 266	1	1	0.309483	9.75913	6.06125	9.59433
 267	1	2	-0.002	10.2639	6.46993	7.51821
 268	1	3	-0.436564	10.4111	6.09428	10.8765
 269	1	1	0.15357	11.106	7.31842	11.1776
 270	1	4	-0.002836	10.7505	8.53072	8.77168
 271	1	3	-0.349559	12.045	7.60966	10.1279
 272	1	2	0.015925	13.5036	7.38172	8.04853
 273	1	1	0.230077	11.4894	7.7197	8.80289
 274	1	2	0.052641	11.5274	5.60049	8.38308
 275	1	4	-0.023623	8.99328	6.84757	9.57436
 276	1	1	-0.072969	11.9013	7.1352	12.4845
 277	1	2	0.031276	9.43949	8.39894	13.2908
 278	1	2	0.023309	9.6155	8.02073	15.014
 279	1	2	0.030094	10.8062	9.06785	14.2151
 280	1	5	0.077888	10.392	8.14696	11.2686
 281	1	1	0.09092	11.0172	6.94222	13.7372
 282	1	2	0.047821	12.5636	6.26736	12.3794
 283	1	2	0.068339	12.545	8.00983	12.6323
 284	1	1	-0.129023	10.1691	8.18458	14.0811
 285	1	2	-0.006475	10.3597	6.07389	13.6029
 286	1	2	-0.010814	11.6661	6.71431	14.5922
 287	1	1	-0.019372	12.6393	8.01305	7.80818
 288	1	2	0.00686	12.3234	7.72315	6.79761
 289	1	1	-0.084968	9.02566	2.15891	9.44383
 290	1	1	0.309483	9.871	0.853268	9.44616
 291	1	2	-0.002	8.16704	2.02164	10.1134
 292	1	3	-0.436564	11.2681	1.08259	9.1842
 293	1	1	0.15357	11.8888	2.26528	9.69793
 294	1	4	-0.002836	9.88915	3.44302	10.9665
 295	1	3	-0.349559	11.099	3.38885	9.2884
 296	1	2	0.015925	8.75902	4.60735	8.34943
 297	1	1	0.230077	9.7922	3.4303	9.87305
 298	1	2	0.052641	8.58691	2.32362	8.45812
 299	1	4	-0.023623	9.78267	0.41946	10.4501
 300	1	1	-0.072969	13.2893	2.35283	9.05535
 301	1	2	0.031276	14.7247	5.30186	10.363
 302	1	2	0.023309	13.87	5.10876	8.81958
 303	1	2	0.030094	12.9953	4.91396	10.3583
 304	1	5	0.077888	11.9613	2.2128	10.7924
 305	1	1	0.09092	14.2907	3.22803	9.84336
 306	1	2	0.047821	13.7074	1.34085	8.99389
 307	1	2	0.068339	13.2011	2.71484	8.02316
 308	1	1	-0.129023	13.9458	4.72933	9.84531
 309	1	2	-0.006475	14.3583	2.86781	10.8778
 310	1	2	-0.010814	15.2875	3.1016	9.40205
 311	1	1	-0.019372	9.03409	4.70516	9.40666
 312	1	2	0.00686	8.08497	4.75105	9.95564
 313	1	1	-0.084968	9.94717	1.40373	6.38335
 314	1	1	0.309483	10.5869	1.48433	4.97947
 315	1	2	-0.002	8.93566	1.81057	6.36403
 316	1	3	-0.436564	11.7821	0.680561	4.97773
 317	1	1	0.15357	11.6843	-0.669322	5.4653
 318	1	4	-0.002836	9.13504	-0.585129	6.29178
 319	1	3	-0.349559	11.1221	-0.680009	6.78816
 320	1	2	0.015925	8.25821	-0.164433	8.40967
 321	1	1	0.230077	9.84583	-0.0395083	6.92601
 322	1	2	0.052641	10.5431	2.02942	7.05105
 323	1	4	-0.023623	9.88963	1.09577	4.22629
 324	1	1	-0.072969	13.104	-1.27034	5.52482
 325	1	2	0.031276	15.4354	-2.19515	6.81871
 326	1	2	0.023309	15.9171	-1.08951	5.50936
 327	1	2	0.030094	16.1134	-0.599314	7.20587
 328	1	5	0.077888	11.0528	-1.26092	4.7899
 329	1	1	0.09092	14.0497	-0.533458	6.50351
 330	1	2	0.047821	13.0302	-2.32542	5.81559
 331	1	2	0.068339	13.5361	-1.24893	4.51704
 332	1	1	-0.129023	15.4651	-1.14334	6.50772
 333	1	2	-0.006475	14.1201	0.527611	6.2323
 334	1	2	-0.010814	13.6433	-0.581359	7.52118
 335	1	1	-0.019372	9.35534	-0.186351	8.40524
 336	1	2	0.00686	9.62361	-1.19047	8.75806
 337	1	1	-0.084968	8.7196	4.04409	4.94958
 338	1	1	0.309483	7.81736	5.18569	4.4475
 339	1	2	-0.002	8.1477	3.1123	4.90276
 340	1	3	-0.436564	8.61387	6.3765	4.36993
 341	1	1	0.15357	9.79308	6.29864	3.55102
 342	1	4	-0.002836	9.65953	3.58024	3.06203
 343	1	3	-0.349559	10.6061	5.19171	3.983
 344	1	2	0.015925	11.8196	2.83742	3.81933
 345	1	1	0.230077	9.97117	3.9002	4.06473
 346	1	2	0.052641	9.01403	4.2295	5.98942
 347	1	4	-0.023623	7.44057	4.92972	3.44885
 348	1	1	-0.072969	10.6094	7.59468	3.74687
 349	1	2	0.031276	7.96793	8.44825	2.83278
 350	1	2	0.023309	8.52975	9.44718	4.19336
 351	1	2	0.030094	8.45331	10.1294	2.55462
 352	1	5	0.077888	9.52061	6.16507	2.49573
 353	1	1	0.09092	10.1358	8.77452	2.8649
 354	1	2	0.047821	10.5798	7.89068	4.80352
 355	1	2	0.068339	11.6612	7.39057	3.51154
 356	1	1	-0.129023	8.68346	9.2245	3.13021
 357	1	2	-0.006475	10.8038	9.62818	3.03638
 358	1	2	-0.010814	10.2407	8.50351	1.80654
 359	1	1	-0.019372	11.0499	2.92009	4.59803
 360	1	2	0.00686	11.5516	3.37425	5.46316
 361	1	1	-0.084968	4.52793	4.62874	6.60688
 362	1	1	0.309483	3.38386	3.63732	6.2938
 363	1	2	-0.002	4.74085	4.64254	7.68379
 364	1	3	-0.436564	3.96008	2.32397	6.15294
 365	1	1	0.15357	4.90112	2.17405	5.06636
 366	1	4	-0.002836	6.46134	3.67208	6.51682
 367	1	3	-0.349559	5.48164	3.44662	4.70958
 368	1	2	0.015925	5.95289	6.19897	4.85796
 369	1	1	0.230077	5.82501	4.2632	5.84474
 370	1	2	0.052641	4.19411	5.63866	6.33939
 371	1	4	-0.023623	2.92153	3.93374	5.34365
 372	1	1	-0.072969	4.17441	1.60995	3.82915
 373	1	2	0.031276	2.29408	0.133912	2.34666
 374	1	2	0.023309	3.89415	-0.571044	2.03415
 375	1	2	0.030094	2.70043	-1.46788	2.99622
 376	1	5	0.077888	5.69606	1.48283	5.37517
 377	1	1	0.09092	3.64104	0.180692	4.07184
 378	1	2	0.047821	3.34591	2.2722	3.54721
 379	1	2	0.068339	4.87638	1.59687	2.98638
 380	1	1	-0.129023	3.09894	-0.468161	2.78306
 381	1	2	-0.006475	4.44654	-0.44857	4.47206
 382	1	2	-0.010814	2.8455	0.20469	4.82769
 383	1	1	-0.019372	6.62306	5.50415	5.38002
 384	1	2	0.00686	6.98974	6.03108	6.27098
 385	1	1	-0.084968	0.0105249	2.72396	8.11312
 386	1	1	0.309483	-1.25581	2.00439	7.60861
 387	1	2	-0.002	0.399917	2.21867	9.00631
 388	1	3	-0.436564	-1.66944	2.6542	6.39435
 389	1	1	0.15357	-0.690798	2.65165	5.3455
 390	1	4	-0.002836	1.41146	1.71238	6.80471
 391	1	3	-0.349559	0.499389	3.30509	5.8191
 392	1	2	0.015925	1.9703	4.62898	7.60427
 393	1	1	0.230077	1.08571	2.74103	7.00708
 394	1	2	0.052641	-0.241503	3.75261	8.40028
 395	1	4	-0.023623	-1.00357	0.957865	7.39462
 396	1	1	-0.072969	-1.26113	3.44736	4.15593
 397	1	2	0.031276	-0.982333	1.57444	2.07308
 398	1	2	0.023309	0.577054	2.14817	1.44529
 399	1	2	0.030094	0.483281	1.44378	3.06995
 400	1	5	0.077888	-0.467454	1.61747	5.05315
 401	1	1	0.09092	-0.322835	3.47495	2.92708
 402	1	2	0.047821	-2.22655	3.01436	3.86462
 403	1	2	0.068339	-1.46063	4.47616	4.47979
 404	1	1	-0.129023	-0.0453727	2.07377	2.3455
 405	1	2	-0.006475	-0.77952	4.09719	2.14712
 406	1	2	-0.010814	0.628672	3.95311	3.19262
 407	1	1	-0.019372	2.30543	3.60424	7.39796
 408	1	2	0.00686	2.74456	3.2206	8.32813
 409	1	1	-0.084968	-4.58977	2.30958	7.24708
 410	1	1	0.309483	-5.09681	1.53754	6.01411
 411	1	2	-0.002	-5.4431	2.6904	7.82327
 412	1	3	-0.436564	-5.57981	0.270523	6.49281
 413	1	1	0.15357	-4.57034	-0.602628	7.03937
 414	1	4	-0.002836	-4.33706	1.19004	9.06745
 415	1	3	-0.349559	-3.43683	0.149905	7.52174
 416	1	2	0.015925	-2.59874	3.09343	8.94081
 417	1	1	0.230077	-3.73485	1.40339	8.17479
 418	1	2	0.052641	-4.03268	3.19289	6.9171
 419	1	4	-0.023623	-4.26083	1.37989	5.32034
 420	1	1	-0.072969	-4.06217	-1.53722	5.92181
 421	1	2	0.031276	-3.88704	-4.0804	4.71277
 422	1	2	0.023309	-5.4577	-4.03116	3.88387
 423	1	2	0.030094	-4.18722	-2.87065	3.44377
 424	1	5	0.077888	-5.00522	-1.19131	7.85737
 425	1	1	0.09092	-5.17969	-2.43222	5.34183
 426	1	2	0.047821	-3.6154	-0.939838	5.11682
 427	1	2	0.068339	-3.26488	-2.17075	6.32914
 428	1	1	-0.129023	-4.64313	-3.41274	4.28087
 429	1	2	-0.006475	-5.65142	-3.00221	6.15252
 430	1	2	-0.010814	-5.96102	-1.81	4.88734
 431	1	1	-0.019372	-2.40821	2.05391	8.64438
 432	1	2	0.00686	-2.07577	1.53563	9.55279
 433	1	1	-0.084968	-7.90397	2.18504	3.30812
 434	1	1	0.309483	-7.80046	1.94556	1.7839
 435	1	2	-0.002	-8.87895	1.84595	3.68195
 436	1	3	-0.436564	-7.37986	0.583567	1.58047
 437	1	1	0.15357	-6.07988	0.245034	2.11243
 438	1	4	-0.002836	-7.1958	0.499452	4.46532
 439	1	3	-0.349559	-5.71189	1.14979	3.17342
 440	1	2	0.015925	-5.8648	3.23396	4.9077
 441	1	1	0.230077	-6.7868	1.44475	4.08504
 442	1	2	0.052641	-7.85419	3.26422	3.49665
 443	1	4	-0.023623	-7.03878	2.62253	1.37534
 444	1	1	-0.072969	-5.043	0.368998	0.979396
 445	1	2	0.031276	-2.97859	-0.681497	-0.619395
 446	1	2	0.023309	-2.50305	0.951736	-0.0965823
 447	1	2	0.030094	-1.66332	-0.472133	0.555648
 448	1	5	0.077888	-6.10549	-0.786107	2.48927
 449	1	1	0.09092	-3.65344	-0.160435	1.39458
 450	1	2	0.047821	-5.39986	-0.195109	0.108563
 451	1	2	0.068339	-4.96072	1.4187	0.67204
 452	1	1	-0.129023	-2.63899	-0.084877	0.236651
 453	1	2	-0.006475	-3.27231	0.41585	2.24733
 454	1	2	-0.010814	-3.74233	-1.20292	1.72395
 455	1	1	-0.019372	-6.23632	2.26746	5.27169
 456	1	2	0.00686	-7.0543	2.48228	5.97157
 457	1	1	-0.084968	-9.02098	0.768944	-1.10783
 458	1	1	0.309483	-9.02694	0.86763	-2.64731
 459	1	2	-0.002	-8.14022	0.198381	-0.792681
 460	1	3	-0.436564	-10.1078	1.71888	-3.05992
 461	1	1	0.15357	-10.1445	3.03043	-2.47164
 462	1	4	-0.002836	-8.06446	2.69002	-0.780487
 463	1	3	-0.349559	-10.1083	2.91509	-1.03669
 464	1	2	0.015925	-9.49657	3.19818	1.34925
 465	1	1	0.230077	-8.99498	2.1827	-0.493765
 466	1	2	0.052641	-9.9028	0.233439	-0.744505
 467	1	4	-0.023623	-8.08065	1.33799	-2.94472
 468	1	1	-0.072969	-11.4693	3.71855	-2.86071
 469	1	2	0.031276	-10.4161	2.81201	-5.41675
 470	1	2	0.023309	-12.1848	2.63777	-5.36362
 471	1	2	0.030094	-11.4425	3.88054	-6.39034
 472	1	5	0.077888	-9.28682	3.62504	-2.81275
 473	1	1	0.09092	-11.445	4.37083	-4.26326
 474	1	2	0.047821	-12.2931	2.99567	-2.79985
 475	1	2	0.068339	-11.6864	4.50121	-2.12352
 476	1	1	-0.129023	-11.3649	3.36172	-5.42708
 477	1	2	-0.006475	-12.3579	4.96764	-4.38496
 478	1	2	-0.010814	-10.6029	5.07164	-4.32867
 479	1	1	-0.019372	-9.13383	2.20675	1.04811
 480	1	2	0.00686	-9.89413	1.48456	1.37343
 481	1	1	-0.084968	-11.5422	-1.04849	-2.49501
 482	1	1	0.309483	-12.8307	-1.76853	-2.92998
 483	1	2	-0.002	-11.1483	-1.52119	-1.58649
 484	1	3	-0.436564	-13.2674	-1.22931	-4.19301
 485	1	1	0.15357	-12.302	-1.16199	-5.2612
 486	1	4	-0.002836	-10.333	-2.20181	-3.84314
 487	1	3	-0.349559	-11.084	-0.545488	-4.8002
 488	1	2	0.015925	-8.51489	-1.23067	-2.78034
 489	1	1	0.230077	-10.5042	-1.13868	-3.62822
 490	1	2	0.052641	-11.7762	-0.00301146	-2.26229
 491	1	4	-0.023623	-12.6087	-2.83675	-3.04543
 492	1	1	-0.072969	-12.9148	-0.296724	-6.37942
 493	1	2	0.031276	-12.9039	1.76784	-8.29947
 494	1	2	0.023309	-11.8987	0.935582	-9.50488
 495	1	2	0.030094	-13.4929	0.278471	-9.07568
 496	1	5	0.077888	-12.0856	-2.17182	-5.6332
 497	1	1	0.09092	-11.9495	-0.0555346	-7.56158
 498	1	2	0.047821	-13.8225	-0.790259	-6.74789
 499	1	2	0.068339	-13.2285	0.664247	-5.95594
 500	1	1	-0.129023	-12.6032	0.782553	-8.67791
 501	1	2	-0.006475	-11.0484	0.464496	-7.21253
 502	1	2	-0.010814	-11.6268	-1.01971	-7.97478
 503	1	1	-0.019372	-9.10657	-0.51078	-3.35968
 504	1	2	0.00686	-8.58629	-0.425365	-4.32235
 505	1	1	-0.084968	-14.1908	-3.90802	-0.909912
 506	1	1	0.309483	-15.1775	-5.03958	-0.563347
 507	1	2	-0.002	-13.326	-4.3229	-1.44256
 508	1	3	-0.436564	-16.3626	-4.45896	0.00937774
 509	1	1	0.15357	-17.0119	-3.43451	-0.76348
 510	1	4	-0.002836	-15.1326	-3.21417	-2.74853
 511	1	3	-0.349559	-16.0692	-2.39771	-1.08284
 512	1	2	0.015925	-14.5925	-0.70831	-2.22744
 513	1	1	0.230077	-14.8716	-2.81441	-1.7599
 514	1	2	0.052641	-13.8155	-3.46021	0.0191116
 515	1	4	-0.023623	-15.4476	-5.58044	-1.47926
 516	1	1	-0.072969	-18.1491	-2.82691	0.0839814
 517	1	2	0.031276	-19.5554	-2.41887	2.49592
 518	1	2	0.023309	-18.4594	-1.20112	3.18239
 519	1	2	0.030094	-19.3549	-0.844058	1.6901
 520	1	5	0.077888	-17.4173	-3.86417	-1.68933
 521	1	1	0.09092	-17.6652	-2.20559	1.41698
 522	1	2	0.047821	-18.6626	-2.06067	-0.510187
 523	1	2	0.068339	-18.887	-3.61026	0.294477
 524	1	1	-0.129023	-18.8321	-1.63295	2.24518
 525	1	2	-0.006475	-17.1448	-2.96238	2.01751
 526	1	2	-0.010814	-16.9445	-1.40266	1.21676
 527	1	1	-0.019372	-13.979	-1.56385	-1.9144
 528	1	2	0.00686	-13.5697	-1.29692	-0.93108
 529	1	1	-0.084968	-16.2557	-7.95963	0.143921
 530	1	1	0.309483	-17.2435	-8.82942	0.947089
 531	1	2	-0.002	-16.7761	-7.41195	-0.649922
 532	1	3	-0.436564	-16.5031	-9.4904	1.99008
 533	1	1	0.15357	-15.7312	-8.65192	2.87231
 534	1	4	-0.002836	-16.3769	-6.36895	1.60716
 535	1	3	-0.349559	-14.9127	-7.73475	2.1213
 536	1	2	0.015925	-14.0737	-5.45222	1.25936
 537	1	1	0.230077	-15.5975	-6.96798	1.11868
 538	1	2	0.052641	-15.4932	-8.59064	-0.329643
 539	1	4	-0.023623	-18.0048	-8.17969	1.39788
 540	1	1	-0.072969	-14.8286	-9.54476	3.75589
 541	1	2	0.031276	-14.2369	-10.4355	1.03045
 542	1	2	0.023309	-12.8519	-11.4321	1.50504
 543	1	2	0.030094	-14.4725	-11.8237	2.1197
 544	1	5	0.077888	-16.4222	-8.08323	3.50846
 545	1	1	0.09092	-13.5425	-10.0902	3.08049
 546	1	2	0.047821	-14.5331	-8.96368	4.63778
 547	1	2	0.068339	-15.4228	-10.3871	4.13093
 548	1	1	-0.129023	-13.7956	-11.0002	1.86017
 549	1	2	-0.006475	-12.8918	-9.25788	2.78361
 550	1	2	-0.010814	-12.9798	-10.6641	3.8277
 551	1	1	-0.019372	-14.5655	-6.0247	0.462205
 552	1	2	0.00686	-13.7816	-6.61661	-0.0276915
 553	1	1	-0.084968	-19.6426	-8.27717	-0.967095
 554	1	1	0.309483	-20.4642	-8.01218	-2.25632
 555	1	2	-0.002	-20.3313	-8.52164	-0.147963
 556	1	3	-0.436564	-20.0463	-8.9186	-3.29691
 557	1	1	0.15357	-20.0571	-10.3178	-2.96106
 558	1	4	-0.002836	-17.8708	-9.13313	-1.88643
 559	1	3	-0.349559	-19.3882	-10.5454	-1.70411
 560	1	2	0.015925	-18.6902	-10.4241	0.766939
 561	1	1	0.230077	-18.6407	-9.43882	-1.16578
 562	1	2	0.052641	-19.1125	-7.36724	-0.663495
 563	1	4	-0.023623	-21.5256	-8.18008	-2.03598
 564	1	1	-0.072969	-19.2899	-11.0842	-4.05572
 565	1	2	0.031276	-18.2171	-11.4693	-6.63064
 566	1	2	0.023309	-19.2038	-12.8918	-6.21838
 567	1	2	0.030094	-19.7573	-11.7569	-7.46822
 568	1	5	0.077888	-21.09	-10.6839	-2.89384
 569	1	1	0.09092	-19.9868	-11.0068	-5.43207
 570	1	2	0.047821	-18.271	-10.6845	-4.13494
 571	1	2	0.068339	-19.2002	-12.135	-3.7538
 572	1	1	-0.129023	-19.2445	-11.8324	-6.5013
 573	1	2	-0.006475	-21.017	-11.3751	-5.34375
 574	1	2	-0.010814	-20.0453	-9.96246	-5.76434
 575	1	1	-0.019372	-17.9479	-9.93244	0.124836
 576	1	2	0.00686	-17.2124	-10.7003	-0.149164
 577	1	1	-0.084968	-22.5633	-6.21958	-3.95417
 578	1	1	0.309483	-23.1881	-5.9674	-5.33725
 579	1	2	-0.002	-22.9735	-7.14149	-3.5236
 580	1	3	-0.436564	-22.587	-4.77313	-5.87759
 581	1	1	0.15357	-21.15	-4.7661	-5.97227
 582	1	4	-0.002836	-20.8156	-7.15203	-4.82842
 583	1	3	-0.349559	-20.5652	-5.10772	-4.70034
 584	1	2	0.015925	-19.2037	-6.40183	-2.97056
 585	1	1	0.230077	-21.0366	-6.33793	-4.12644
 586	1	2	0.052641	-22.8059	-5.39324	-3.27413
 587	1	4	-0.023623	-22.9616	-6.8292	-5.978
 588	1	1	-0.072969	-20.6949	-3.35098	-6.38529
 589	1	2	0.031276	-20.7498	-0.123615	-5.00363
 590	1	2	0.023309	-19.5504	-0.793471	-6.13059
 591	1	2	0.030094	-21.2427	-0.59157	-6.64473
 592	1	5	0.077888	-20.8347	-5.49636	-6.72931
 593	1	1	0.09092	-20.9192	-2.27925	-5.29237
 594	1	2	0.047821	-19.6312	-3.38122	-6.65116
 595	1	2	0.068339	-21.2391	-3.06386	-7.29347
 596	1	1	-0.129023	-20.5948	-0.860941	-5.80104
 597	1	2	-0.006475	-21.9591	-2.30548	-4.94741
 598	1	2	-0.010814	-20.2884	-2.49689	-4.42114
 599	1	1	-0.019372	-20.2745	-6.57721	-2.80205
 600	1	2	0.00686	-20.601	-5.84754	-2.04967
 601	1	1	-0.084968	-24.8124	-5.63855	-7.89466
 602	1	1	0.309483	-25.5798	-6.17125	-9.12248
 603	1	2	-0.002	-24.7506	-4.5451	-7.90782
 604	1	3	-0.436564	-25.6982	-7.60265	-8.99607
 605	1	1	0.15357	-26.2416	-8.11546	-7.76239
 606	1	4	-0.002836	-26.4833	-5.7401	-6.51687
 607	1	3	-0.349559	-25.52	-7.57018	-6.64269
 608	1	2	0.015925	-24.9211	-4.68872	-5.05067
 609	1	1	0.230077	-25.4613	-6.13373	-6.58431
 610	1	2	0.052641	-23.7834	-6.00788	-7.96807
 611	1	4	-0.023623	-24.9729	-5.96006	-10.0113
 612	1	1	-0.072969	-26.064	-9.64643	-7.74566
 613	1	2	0.031276	-28.6355	-9.11995	-8.96837
 614	1	2	0.023309	-28.8724	-10.7755	-9.55409
 615	1	2	0.030094	-28.7561	-10.4666	-7.80923
 616	1	5	0.077888	-27.3027	-7.8504	-7.67535
 617	1	1	0.09092	-26.8405	-10.377	-8.86651
 618	1	2	0.047821	-24.9963	-9.88206	-7.83848
 619	1	2	0.068339	-26.3878	-10.0329	-6.77166
 620	1	1	-0.129023	-28.3682	-10.169	-8.79155
 621	1	2	-0.006475	-26.4768	-10.0502	-9.84898
 622	1	2	-0.010814	-26.6281	-11.4514	-8.79693
 623	1	1	-0.019372	-24.7176	-5.74154	-5.28317
 624	1	2	0.00686	-25.1469	-6.32089	-4.45534
 625	1	1	-0.084968	-28.0956	-3.54798	-10.5245
 626	1	1	0.309483	-27.93	-2.03359	-10.7798
 627	1	2	-0.002	-28.1886	-4.10272	-11.4648
 628	1	3	-0.436564	-27.8409	-1.39287	-9.48785
 629	1	1	0.15357	-26.8575	-1.89476	-8.55297
 630	1	4	-0.002836	-25.9745	-3.86002	-10.224
 631	1	3	-0.349559	-26.9424	-3.3294	-8.4506
 632	1	2	0.015925	-27.6477	-5.73026	-8.50368
 633	1	1	0.230077	-26.9107	-4.05838	-9.68829
 634	1	2	0.052641	-29.029	-3.71693	-9.97307
 635	1	4	-0.023623	-28.8339	-1.67308	-11.2863
 636	1	1	-0.072969	-27.1653	-1.28244	-7.17154
 637	1	2	0.031276	-24.4328	-2.23047	-7.09854
 638	1	2	0.023309	-24.5363	-0.609	-6.36994
 639	1	2	0.030094	-24.2436	-2.03224	-5.3486
 640	1	5	0.077888	-25.8495	-1.60897	-8.87922
 641	1	1	0.09092	-26.305	-1.85118	-6.01776
 642	1	2	0.047821	-27.0227	-0.196172	-7.22623
 643	1	2	0.068339	-28.2244	-1.44846	-6.93893
 644	1	1	-0.129023	-24.788	-1.66723	-6.22718
 645	1	2	-0.006475	-26.5953	-1.35184	-5.08473
 646	1	2	-0.010814	-26.5254	-2.91701	-5.87831
 647	1	1	-0.019372	-26.9875	-5.5655	-9.36398
 648	1	2	0.00686	-27.4464	-6.09312	-10.2096
 649	1	1	-0.084968	-25.645	-1.49023	-13.9773
 650	1	1	0.309483	-25.0132	-2.46207	-15.0063
 651	1	2	-0.002	-26.1551	-0.663811	-14.4887
 652	1	3	-0.436564	-25.9718	-3.49371	-15.3102
 653	1	1	0.15357	-26.3694	-4.31971	-14.1954
 654	1	4	-0.002836	-27.6581	-2.14308	-13.5004
 655	1	3	-0.349559	-26.2606	-3.58536	-12.9585
 656	1	2	0.015925	-25.7621	-1.81849	-11.1155
 657	1	1	0.230077	-26.6585	-2.20597	-13.0504
 658	1	2	0.052641	-24.8396	-1.04294	-13.382
 659	1	4	-0.023623	-24.134	-2.93552	-14.5502
 660	1	1	-0.072969	-25.4317	-5.54208	-14.1215
 661	1	2	0.031276	-24.8518	-8.30166	-13.912
 662	1	2	0.023309	-23.9384	-7.43352	-12.6547
 663	1	2	0.030094	-25.3001	-8.47874	-12.2007
 664	1	5	0.077888	-27.4053	-4.64934	-14.3494
 665	1	1	0.09092	-25.9042	-6.57545	-13.077
 666	1	2	0.047821	-25.3833	-6.01943	-15.1082