pySIMM System Object

914 atoms
951 bonds
1900 angles
2841 dihedrals
0 impropers

5 atom types
5 bond types
11 angle types
8 dihedral types

-129.759790 129.759790 xlo xhi
-129.759790 129.759790 ylo yhi
-129.759790 129.759790 zlo zhi

Masses

   1	12.01	# c3
   2	1.008	# hc
   3	16.0	# os
   4	1.008	# h1
   5	1.008	# h2

Pair Coeffs

   1	0.1094	3.3996695084235347	# c3
   2	0.0157	2.649532787749369	# hc
   3	0.17	3.0000123434657784	# os
   4	0.0157	2.471353044121301	# h1
   5	0.0157	2.2931733004932333	# h2

Bond Coeffs

   1	330.6	1.0969	# c3,h1
   2	308.6	1.4316	# c3,os
   3	330.6	1.0969	# c3,hc
   4	300.9	1.5375	# c3,c3
   5	331.7	1.0961	# c3,h2

Angle Coeffs

   1	62.7	112.48	# c3,os,c3
   2	50.85	109.58	# h2,c3,os
   3	68.0	107.97	# c3,c3,os
   4	72.74	108.29	# os,c3,os
   5	46.34	109.8	# c3,c3,hc
   6	46.25	110.22	# c3,c3,h2
   7	50.8	109.78	# h1,c3,os
   8	46.39	109.56	# c3,c3,h1
   9	39.4	107.58	# hc,c3,hc
  10	39.24	108.46	# h1,c3,h1
  11	62.86	111.51	# c3,c3,c3

Dihedral Coeffs

   1	3	0.18	3	0	0.25	2	180	0.2	1	180	# c3,c3,c3,c3
   2	2	0.0	3	0	0.25	1	0	# hc,c3,c3,os
   3	1	0.3833333333333333	3	0	# X,c3,os,X
   4	1	0.15	3	0	# hc,c3,c3,hc
   5	2	0.383	3	0	0.1	2	180	# c3,c3,os,c3
   6	1	0.16	3	0	# hc,c3,c3,c3
   7	3	0.1	3	0	0.85	2	180	1.35	1	180	# c3,os,c3,os
   8	1	0.15555555555555556	3	0	# X,c3,c3,X

Atoms

   1	1	1	-0.084968	-7.02259	45.1555	13.7733
   2	1	1	0.309483	-7.70353	46.2761	14.5846
   3	1	2	-0.002	-7.04909	44.2089	14.3272
   4	1	3	-0.436564	-7.71795	47.4645	13.7726
   5	1	1	0.15357	-8.35789	47.3398	12.4896
   6	1	4	-0.002836	-8.78425	44.6586	12.6148
   7	1	3	-0.349559	-7.76224	46.2535	11.7557
   8	1	2	0.015925	-7.59731	43.8725	10.5564
   9	1	1	0.230077	-7.75235	44.9838	12.4291
  10	1	2	0.052641	-5.96983	45.4105	13.5976
  11	1	4	-0.023623	-8.73686	45.9823	14.8094
  12	1	1	-0.072969	-8.12496	48.6526	11.7155
  13	1	2	0.031276	-10.6059	47.5438	10.7273
  14	1	2	0.023309	-10.7655	49.2994	10.9787
  15	1	2	0.030094	-10.7241	48.632	9.33338
  16	1	5	0.077888	-9.43095	47.1561	12.6297
  17	1	1	0.09092	-8.77496	48.6779	10.312
  18	1	2	0.047821	-8.51387	49.4903	12.3077
  19	1	2	0.068339	-7.04497	48.8153	11.6126
  20	1	1	-0.129023	-10.3107	48.5283	10.3443
  21	1	2	-0.006475	-8.52402	49.6293	9.82614
  22	1	2	-0.010814	-8.3454	47.8858	9.68575
  23	1	1	-0.019372	-7.05969	43.9594	11.5089
  24	1	2	0.00686	-6.02577	44.2588	11.2947
  25	1	1	-0.084968	-6.22	45.8577	18.2225
  26	1	1	0.309483	-6.25587	44.6665	19.1966
  27	1	2	-0.002	-5.18304	46.1744	18.0517
  28	1	3	-0.436564	-7.63196	44.2671	19.3365
  29	1	1	0.15357	-8.28749	43.8845	18.1132
  30	1	4	-0.002836	-6.27227	44.6437	16.4398
  31	1	3	-0.349559	-8.19769	44.9609	17.1621
  32	1	2	0.015925	-7.49631	47.4616	16.384
  33	1	1	0.230077	-6.87052	45.4467	16.8886
  34	1	2	0.052641	-6.75991	46.709	18.6563
  35	1	4	-0.023623	-5.67844	43.8424	18.7586
  36	1	1	-0.072969	-9.77921	43.6219	18.3956
  37	1	2	0.031276	-11.9332	41.7998	18.5679
  38	1	2	0.023309	-11.5952	41.2328	20.2168
  39	1	2	0.030094	-12.0464	42.9288	19.94
  40	1	5	0.077888	-7.81286	42.9839	17.7012
  41	1	1	0.09092	-9.99658	42.4366	19.3605
  42	1	2	0.047821	-10.238	44.5272	18.813
  43	1	2	0.068339	-10.2853	43.414	17.4449
  44	1	1	-0.129023	-11.4852	42.08	19.5294
  45	1	2	-0.006475	-9.45461	41.5554	18.9935
  46	1	2	-0.010814	-9.58359	42.6871	20.343
  47	1	1	-0.019372	-6.97023	46.629	15.8992
  48	1	2	0.00686	-5.95915	46.9879	15.6664
  49	1	1	-0.084968	-6.99461	43.5714	22.2719
  50	1	1	0.309483	-7.37164	42.0845	22.149
  51	1	2	-0.002	-6.93418	43.8495	23.3322
  52	1	3	-0.436564	-6.21798	41.3306	22.5582
  53	1	1	0.15357	-5.05106	41.48	21.7212
  54	1	4	-0.002836	-4.9224	44.1377	22.3991
  55	1	3	-0.349559	-5.12477	42.6868	20.9334
  56	1	2	0.015925	-6.21635	45.8775	21.0122
  57	1	1	0.230077	-5.6265	43.8654	21.6023
  58	1	2	0.052641	-7.79254	44.1881	21.8433
  59	1	4	-0.023623	-7.60206	41.8565	21.1007
  60	1	1	-0.072969	-4.99863	40.294	20.7363
  61	1	2	0.031276	-3.98452	37.8881	19.6732
  62	1	2	0.023309	-4.53141	36.8239	20.9871
  63	1	2	0.030094	-5.72418	37.6727	19.9825
  64	1	5	0.077888	-4.14942	41.4971	22.3472
  65	1	1	0.09092	-4.71309	38.9503	21.4417
  66	1	2	0.047821	-5.94984	40.2311	20.1928
  67	1	2	0.068339	-4.21669	40.482	19.9903
  68	1	1	-0.129023	-4.73975	37.7628	20.4592
  69	1	2	-0.006475	-3.73175	38.995	21.931
  70	1	2	-0.010814	-5.45444	38.7747	22.2292
  71	1	1	-0.019372	-5.66414	45.0319	20.5824
  72	1	2	0.00686	-4.63571	45.3853	20.4345
  73	1	1	-0.084968	-8.37752	39.2371	23.7683
  74	1	1	0.309483	-8.92998	37.8158	23.5468
  75	1	2	-0.002	-7.28711	39.2337	23.6643
  76	1	3	-0.436564	-10.3719	37.8799	23.5858
  77	1	1	0.15357	-11.0279	38.86	22.755
  78	1	4	-0.002836	-8.7863	39.954	21.7533
  79	1	3	-0.349559	-10.4472	40.159	22.9703
  80	1	2	0.015925	-9.41923	42.369	22.7586
  81	1	1	0.230077	-9.02351	40.2362	22.787
  82	1	2	0.052641	-8.59681	39.5449	24.7982
  83	1	4	-0.023623	-8.5838	37.187	24.3764
  84	1	1	-0.072969	-12.5114	38.8996	23.1659
  85	1	2	0.031276	-15.2647	38.8035	22.5638
  86	1	2	0.023309	-14.9806	40.1579	23.6827
  87	1	2	0.030094	-15.4174	40.4782	21.9907
  88	1	5	0.077888	-10.9336	38.5813	21.6977
  89	1	1	0.09092	-13.3538	39.8237	22.2602
  90	1	2	0.047821	-12.9185	37.8816	23.1237
  91	1	2	0.068339	-12.5872	39.233	24.2085
  92	1	1	-0.129023	-14.8449	39.8137	22.6496
  93	1	2	-0.006475	-12.9762	40.8521	22.3216
  94	1	2	-0.010814	-13.2534	39.5033	21.2152
  95	1	1	-0.019372	-8.58769	41.7014	23.0187
  96	1	2	0.00686	-8.36842	41.876	24.0801
  97	1	1	-0.084968	-10.3045	35.3747	21.8678
  98	1	1	0.309483	-10.4947	34.1238	20.986
  99	1	2	-0.002	-10.8183	35.2463	22.8292
 100	1	3	-0.436564	-9.44344	33.1939	21.307
 101	1	1	0.15357	-8.11614	33.6414	20.9615
 102	1	4	-0.002836	-8.50661	35.1708	23.0665
 103	1	3	-0.349559	-8.02785	35.0812	21.0578
 104	1	2	0.015925	-7.35326	37.2529	22.1819
 105	1	1	0.230077	-8.8023	35.6608	22.1294
 106	1	2	0.052641	-10.7773	36.2255	21.3643
 107	1	4	-0.023623	-10.3982	34.4303	19.9368
 108	1	1	-0.072969	-7.80821	33.2335	19.503
 109	1	2	0.031276	-6.57679	31.6073	17.5442
 110	1	2	0.023309	-7.68909	30.2296	17.6831
 111	1	2	0.030094	-8.29411	31.8016	17.1213
 112	1	5	0.077888	-7.39245	33.1761	21.6432
 113	1	1	0.09092	-7.91382	31.7076	19.2727
 114	1	2	0.047821	-8.49205	33.7543	18.8214
 115	1	2	0.068339	-6.79466	33.5685	19.2511
 116	1	1	-0.129023	-7.59868	31.3145	17.8159
 117	1	2	-0.006475	-7.22153	31.1859	19.9458
 118	1	2	-0.010814	-8.92424	31.3575	19.5175
 119	1	1	-0.019372	-8.44525	37.1622	22.2258
 120	1	2	0.00686	-8.83458	37.6971	21.3509
 121	1	1	-0.084968	-13.3316	31.4649	20.3937
 122	1	1	0.309483	-13.4017	30.2647	19.4262
 123	1	2	-0.002	-13.5159	31.1335	21.4237
 124	1	3	-0.436564	-13.0425	30.726	18.1073
 125	1	1	0.15357	-11.8124	31.4673	17.965
 126	1	4	-0.002836	-11.1781	31.457	20.6003
 127	1	3	-0.349559	-11.7608	32.5382	18.9211
 128	1	2	0.015925	-12.6639	34.1264	20.9082
 129	1	1	0.230077	-11.9615	32.1603	20.2937
 130	1	2	0.052641	-14.125	32.1778	20.1368
 131	1	4	-0.023623	-14.4382	29.9061	19.4044
 132	1	1	-0.072969	-11.7292	32.0439	16.5331
 133	1	2	0.031276	-14.6577	33.9834	16.102
 134	1	2	0.023309	-14.4549	32.24	15.8261
 135	1	2	0.030094	-14.3673	32.9042	17.476
 136	1	5	0.077888	-10.9635	30.7921	18.132
 137	1	1	0.09092	-12.5905	33.3038	16.2569
 138	1	2	0.047821	-10.6816	32.2929	16.3261
 139	1	2	0.068339	-12.0022	31.2578	15.8185
 140	1	1	-0.129023	-14.1092	33.0907	16.4266
 141	1	2	-0.006475	-12.2651	34.1305	16.9013
 142	1	2	-0.010814	-12.401	33.6287	15.2259
 143	1	1	-0.019372	-11.8593	33.4274	21.1701
 144	1	2	0.00686	-11.9982	33.1551	22.2243
 145	1	1	-0.084968	-11.9376	27.7743	17.6468
 146	1	1	0.309483	-10.4386	27.5536	17.8935
 147	1	2	-0.002	-12.331	26.9567	17.0283
 148	1	3	-0.436564	-10.3133	26.284	18.5505
 149	1	1	0.15357	-11.0079	26.1012	19.8012
 150	1	4	-0.002836	-13.7763	27.7416	18.7631
 151	1	3	-0.349559	-12.3571	26.6375	19.7685
 152	1	2	0.015925	-12.7401	28.8315	20.89
 153	1	1	0.230077	-12.7039	27.8066	18.9856
 154	1	2	0.052641	-12.0972	28.6926	17.075
 155	1	4	-0.023623	-10.0386	28.3481	18.5343
 156	1	1	-0.072969	-10.1627	26.7403	20.9319
 157	1	2	0.031276	-11.9723	26.2252	23.9236
 158	1	2	0.023309	-11.9685	27.6785	22.906
 159	1	2	0.030094	-12.6673	26.1572	22.2967
 160	1	5	0.077888	-11.0696	25.0227	19.9955
 161	1	1	0.09092	-10.4733	26.1831	22.3413
 162	1	2	0.047821	-9.10488	26.5376	20.721
 163	1	2	0.068339	-10.2653	27.8286	20.9374
 164	1	1	-0.129023	-11.8554	26.5876	22.8947
 165	1	2	-0.006475	-10.3891	25.0889	22.3316
 166	1	2	-0.010814	-9.70513	26.5481	23.0349
 167	1	1	-0.019372	-12.4954	29.079	19.8498
 168	1	2	0.00686	-11.4447	29.3831	19.8452
 169	1	1	-0.084968	-7.81235	25.7225	16.9737
 170	1	1	0.309483	-6.57541	25.2925	16.1597
 171	1	2	-0.002	-7.65017	25.5191	18.0403
 172	1	3	-0.436564	-5.59554	26.3386	16.2854
 173	1	1	0.15357	-5.97489	27.6081	15.7131
 174	1	4	-0.002836	-7.77406	27.7775	17.6778
 175	1	3	-0.349559	-7.41145	27.7336	15.6448
 176	1	2	0.015925	-9.72333	28.5296	16.1138
 177	1	1	0.230077	-8.12636	27.2322	16.7925
 178	1	2	0.052641	-8.66591	25.1077	16.6637
 179	1	4	-0.023623	-6.86985	25.1895	15.1073
 180	1	1	-0.072969	-5.42815	27.6965	14.2733
 181	1	2	0.031276	-3.62262	28.7851	12.397
 182	1	2	0.023309	-2.24931	27.7259	12.7811
 183	1	2	0.030094	-3.73925	27.0337	12.1084
 184	1	5	0.077888	-5.55766	28.4184	16.325
 185	1	1	0.09092	-3.88717	27.6003	14.2167
 186	1	2	0.047821	-5.87006	26.8999	13.6622
 187	1	2	0.068339	-5.74817	28.6497	13.8352
 188	1	1	-0.129023	-3.34398	27.7984	12.7878
 189	1	2	-0.006475	-3.44798	28.3606	14.8753
 190	1	2	-0.010814	-3.55914	26.6216	14.5895
 191	1	1	-0.019372	-9.62806	27.5398	16.5789
 192	1	2	0.00686	-10.0631	26.8218	15.8714
 193	1	1	-0.084968	-4.13612	22.1868	16.2191
 194	1	1	0.309483	-3.72247	21.2805	15.0347
 195	1	2	-0.002	-3.26073	22.4383	16.832
 196	1	3	-0.436564	-3.29608	22.1325	13.9542
 197	1	1	0.15357	-4.30296	23.0201	13.4216
 198	1	4	-0.002836	-4.03779	24.2867	15.6979
 199	1	3	-0.349559	-5.31783	23.2838	14.41
 200	1	2	0.015925	-6.73893	23.1892	16.6678
 201	1	1	0.230077	-4.80209	23.4994	15.7362
 202	1	2	0.052641	-4.82124	21.6251	16.8656
 203	1	4	-0.023623	-4.60057	20.7034	14.7167
 204	1	1	-0.072969	-4.96235	22.3396	12.2024
 205	1	2	0.031276	-4.77023	24.4619	10.3609
 206	1	2	0.023309	-6.4307	25.0724	10.525
 207	1	2	0.030094	-5.31046	25.1927	11.892
 208	1	5	0.077888	-3.82323	23.96	13.1192
 209	1	1	0.09092	-6.08714	23.1754	11.5464
 210	1	2	0.047821	-4.18867	22.129	11.4537
 211	1	2	0.068339	-5.37483	21.3707	12.5082
 212	1	1	-0.129023	-5.61697	24.559	11.0519
 213	1	2	-0.006475	-6.49047	22.6138	10.6943
 214	1	2	-0.010814	-6.91646	23.3061	12.2532
 215	1	1	-0.019372	-5.96053	23.9628	16.6465
 216	1	2	0.00686	-5.59644	24.08	17.6755
 217	1	1	-0.084968	-1.7115	19.6117	13.0496
 218	1	1	0.309483	-1.41054	18.4057	12.1381
 219	1	2	-0.002	-2.33805	20.3239	12.5013
 220	1	3	-0.436564	-0.703283	17.4118	12.905
 221	1	1	0.15357	-1.27987	17.0038	14.1611
 222	1	4	-0.002836	-3.38033	18.7292	14.1293
 223	1	3	-0.349559	-1.57079	18.1608	14.9666
 224	1	2	0.015925	-2.8387	19.8305	16.3645
 225	1	1	0.230077	-2.39997	19.1659	14.3576
 226	1	2	0.052641	-0.771599	20.125	13.2872
 227	1	4	-0.023623	-0.756953	18.7512	11.3274
 228	1	1	-0.072969	-0.232201	16.139	14.8898
 229	1	2	0.031276	-2.17765	14.2961	17.1779
 230	1	2	0.023309	-2.81663	15.2693	15.841
 231	1	2	0.030094	-1.7683	13.8688	15.503
 232	1	5	0.077888	-2.19768	16.4293	13.9824
 233	1	1	0.09092	-0.695631	15.6136	16.2685
 234	1	2	0.047821	0.0336144	15.2874	14.2511
 235	1	2	0.068339	0.682614	16.7299	15.0221
 236	1	1	-0.129023	-1.94121	14.7076	16.1889
 237	1	2	-0.006475	0.125915	15.0442	16.7213
 238	1	2	-0.010814	-0.899806	16.4555	16.9421
 239	1	1	-0.019372	-2.59052	20.2939	15.4007
 240	1	2	0.00686	-1.6487	20.8385	15.5484
 241	1	1	-0.084968	-2.29204	15.2653	11.0694
 242	1	1	0.309483	-2.05961	14.2455	9.93723
 243	1	2	-0.002	-1.48284	15.1869	11.8044
 244	1	3	-0.436564	-3.10104	14.4084	8.9569
 245	1	1	0.15357	-3.25939	15.7299	8.41009
 246	1	4	-0.002836	-1.398	16.9134	9.9704
 247	1	3	-0.349559	-3.39727	16.688	9.47529
 248	1	2	0.015925	-3.20925	18.6039	10.9705
 249	1	1	0.230077	-2.35119	16.6828	10.4641
 250	1	2	0.052641	-3.23491	15.056	11.5872
 251	1	4	-0.023623	-1.09297	14.4677	9.46697
 252	1	1	-0.072969	-4.55186	15.7629	7.57289
 253	1	2	0.031276	-6.63558	14.607	6.06914
 254	1	2	0.023309	-5.93561	15.9416	5.12239
 255	1	2	0.030094	-5.68331	14.2589	4.61045
 256	1	5	0.077888	-2.3905	15.9871	7.78988
 257	1	1	0.09092	-4.478	14.8466	6.33178
 258	1	2	0.047821	-5.39871	15.4632	8.20335
 259	1	2	0.068339	-4.74009	16.7946	7.25148
 260	1	1	-0.129023	-5.76239	14.9197	5.48267
 261	1	2	-0.006475	-3.61933	15.136	5.71239
 262	1	2	-0.010814	-4.31527	13.8068	6.64277
 263	1	1	-0.019372	-2.67876	17.7948	11.4894
 264	1	2	0.00686	-3.37191	17.4146	12.2498
 265	1	1	-0.084968	-3.5379	10.7374	10.8878
 266	1	1	0.309483	-4.87698	10.3454	11.5353
 267	1	2	-0.002	-3.50983	10.4028	9.84291
 268	1	3	-0.436564	-4.86396	10.813	12.8952
 269	1	1	0.15357	-4.65116	12.2286	13.0571
 270	1	4	-0.002836	-4.22771	12.7236	10.4229
 271	1	3	-0.349559	-3.45601	12.6308	12.3603
 272	1	2	0.015925	-1.24142	12.6008	11.1101
 273	1	1	0.230077	-3.39137	12.2669	10.9671
 274	1	2	0.052641	-2.70575	10.264	11.4191
 275	1	4	-0.023623	-5.68543	10.8553	10.9952
 276	1	1	-0.072969	-4.45294	12.5345	14.5543
 277	1	2	0.031276	-7.29881	12.6073	14.0696
 278	1	2	0.023309	-7.75572	12.6217	15.7821
 279	1	2	0.030094	-6.81332	13.9687	15.11
 280	1	5	0.077888	-5.51045	12.7833	12.6584
 281	1	1	0.09092	-5.65506	12.1414	15.4441
 282	1	2	0.047821	-3.55813	12.0086	14.9103
 283	1	2	0.068339	-4.25808	13.6067	14.6702
 284	1	1	-0.129023	-6.95787	12.8816	15.0754
 285	1	2	-0.006475	-5.82327	11.0583	15.3906
 286	1	2	-0.010814	-5.40584	12.3665	16.4889
 287	1	1	-0.019372	-2.04662	12.763	10.382
 288	1	2	0.00686	-1.79107	12.1543	9.50501
 289	1	1	-0.084968	-4.77451	6.60373	12.6903
 290	1	1	0.309483	-3.68018	5.68621	13.258
 291	1	2	-0.002	-5.54829	6.77838	13.4491
 292	1	3	-0.436564	-2.69883	5.51709	12.2236
 293	1	1	0.15357	-2.06435	6.73868	11.8087
 294	1	4	-0.002836	-3.76707	8.45923	13.1454
 295	1	3	-0.349559	-3.07083	7.66222	11.3413
 296	1	2	0.015925	-5.31698	8.48741	10.4999
 297	1	1	0.230077	-4.15234	7.94479	12.2557
 298	1	2	0.052641	-5.25592	6.11929	11.8313
 299	1	4	-0.023623	-3.22368	6.17967	14.1258
 300	1	1	-0.072969	-1.09921	6.40806	10.651
 301	1	2	0.031276	0.76235	9.39014	10.3343
 302	1	2	0.023309	-0.819458	9.007	9.62044
 303	1	2	0.030094	-0.650286	9.19543	11.3842
 304	1	5	0.077888	-1.51523	7.16818	12.6574
 305	1	1	0.09092	0.153382	7.31363	10.6127
 306	1	2	0.047821	-0.765005	5.36696	10.7459
 307	1	2	0.068339	-1.63533	6.47701	9.69639
 308	1	1	-0.129023	-0.162121	8.81752	10.4784
 309	1	2	-0.006475	0.748155	7.1514	11.5209
 310	1	2	-0.010814	0.782189	7.00692	9.76731
 311	1	1	-0.019372	-5.1947	8.83331	11.5344
 312	1	2	0.00686	-6.17335	8.70176	12.0141
 313	1	1	-0.084968	-2.52059	2.44075	13.1976
 314	1	1	0.309483	-1.54738	1.50223	13.932
 315	1	2	-0.002	-3.28249	1.86986	12.6532
 316	1	3	-0.436564	-0.561344	2.33732	14.5615
 317	1	1	0.15357	-1.06775	3.29749	15.5127
 318	1	4	-0.002836	-3.7202	2.65366	14.9622
 319	1	3	-0.349559	-2.18047	4.04604	14.9789
 320	1	2	0.015925	-4.76795	3.84282	12.8448
 321	1	1	0.230077	-3.19871	3.32054	14.2631
 322	1	2	0.052641	-1.9754	3.05268	12.4691
 323	1	4	-0.023623	-2.09519	0.954472	14.71
 324	1	1	-0.072969	0.0627791	4.2916	15.8512
 325	1	2	0.031276	1.32324	6.81403	15.8001
 326	1	2	0.023309	2.53144	5.5768	15.3784
 327	1	2	0.030094	1.95008	6.71189	14.141
 328	1	5	0.077888	-1.39058	2.76771	16.4184
 329	1	1	0.09092	0.518443	5.14388	14.6407
 330	1	2	0.047821	-0.278481	4.9547	16.6556
 331	1	2	0.068339	0.919015	3.73051	16.2447
 332	1	1	-0.129023	1.65039	6.12055	15.0151
 333	1	2	-0.006475	0.864475	4.49019	13.83
 334	1	2	-0.010814	-0.32678	5.72259	14.248
 335	1	1	-0.019372	-4.24314	4.31015	13.6879
 336	1	2	0.00686	-5.00492	4.4814	14.4591
 337	1	1	-0.084968	-1.11544	-1.75684	11.7705
 338	1	1	0.309483	-2.15366	-2.64243	11.0459
 339	1	2	-0.002	-0.268432	-1.54375	11.1062
 340	1	3	-0.436564	-3.31744	-2.77533	11.8852
 341	1	1	0.15357	-3.91306	-1.56102	12.3687
 342	1	4	-0.002836	-2.11246	0.117732	11.3306
 343	1	3	-0.349559	-2.91379	-0.765936	13.0248
 344	1	2	0.015925	-0.178205	-0.145358	13.6692
 345	1	1	0.230077	-1.77231	-0.433979	12.2168
 346	1	2	0.052641	-0.72419	-2.29033	12.646
 347	1	4	-0.023623	-2.44075	-2.16196	10.1019
 348	1	1	-0.072969	-5.01914	-1.9156	13.384
 349	1	2	0.031276	-6.1206	-2.11592	15.972
 350	1	2	0.023309	-6.42281	-3.64324	15.1095
 351	1	2	0.030094	-5.2657	-3.59589	16.4567
 352	1	5	0.077888	-4.34032	-0.998388	11.5281
 353	1	1	0.09092	-4.51012	-2.70457	14.6142
 354	1	2	0.047821	-5.50007	-0.988499	13.7196
 355	1	2	0.068339	-5.78985	-2.50319	12.8705
 356	1	1	-0.129023	-5.65119	-3.03404	15.5969
 357	1	2	-0.006475	-4.03851	-3.6411	14.2906
 358	1	2	-0.010814	-3.74383	-2.12343	15.1427
 359	1	1	-0.019372	-0.817689	0.476636	13.03
 360	1	2	0.00686	-0.149623	1.0027	12.3359
 361	1	1	-0.084968	-0.0280323	-5.68296	9.64403
 362	1	1	0.309483	0.332717	-5.90841	8.16302
 363	1	2	-0.002	0.813259	-5.97302	10.287
 364	1	3	-0.436564	1.1845	-4.81885	7.77039
 365	1	1	0.15357	0.556945	-3.5171	7.78331
 366	1	4	-0.002836	0.446398	-3.73752	10.471
 367	1	3	-0.349559	-0.577182	-3.50213	8.681
 368	1	2	0.015925	-2.48386	-4.62771	10.2659
 369	1	1	0.230077	-0.386853	-4.20135	9.92781
 370	1	2	0.052641	-0.862329	-6.3455	9.9053
 371	1	4	-0.023623	-0.591545	-5.88584	7.57144
 372	1	1	-0.072969	0.0311756	-3.18884	6.36764
 373	1	2	0.031276	2.78908	-4.03481	5.88482
 374	1	2	0.023309	1.69024	-4.67347	4.63917
 375	1	2	0.030094	2.84498	-3.38624	4.23769
 376	1	5	0.077888	1.28707	-2.76125	8.10055
 377	1	1	0.09092	1.12242	-2.69806	5.38653
 378	1	2	0.047821	-0.477446	-4.06493	5.94555
 379	1	2	0.068339	-0.727804	-2.4014	6.45274
 380	1	1	-0.129023	2.17382	-3.76559	5.01798
 381	1	2	-0.006475	0.632338	-2.36327	4.46344
 382	1	2	-0.010814	1.6275	-1.81946	5.80777
 383	1	1	-0.019372	-1.67458	-4.0861	10.773
 384	1	2	0.00686	-1.51087	-4.59582	11.7318
 385	1	1	-0.084968	1.89902	-8.94028	6.21443
 386	1	1	0.309483	2.1078	-9.22456	4.71086
 387	1	2	-0.002	2.84156	-9.10069	6.75338
 388	1	3	-0.436564	0.957799	-8.79148	3.95713
 389	1	1	0.15357	0.405374	-7.49407	4.23075
 390	1	4	-0.002836	2.18532	-6.79025	6.12946
 391	1	3	-0.349559	0.230254	-7.31093	5.64478
 392	1	2	0.015925	0.395742	-8.06296	8.27849
 393	1	1	0.230077	1.40876	-7.5	6.44276
 394	1	2	0.052641	1.16887	-9.63419	6.63942
 395	1	4	-0.023623	2.98314	-8.64975	4.3825
 396	1	1	-0.072969	-0.976578	-7.41289	3.55052
 397	1	2	0.031276	-4.02581	-9.14898	3.72257
 398	1	2	0.023309	-3.79292	-7.40049	3.50889
 399	1	2	0.030094	-3.22629	-8.5349	2.25949
 400	1	5	0.077888	1.07296	-6.71774	3.83596
 401	1	1	0.09092	-1.97425	-8.48666	4.0512
 402	1	2	0.047821	-1.39731	-6.41409	3.72015
 403	1	2	0.068339	-0.840945	-7.52045	2.4675
 404	1	1	-0.129023	-3.33773	-8.38461	3.34067
 405	1	2	-0.006475	-1.56437	-9.4904	3.88297
 406	1	2	-0.010814	-2.12935	-8.37987	5.13224
 407	1	1	-0.019372	1.04928	-7.25446	7.9258
 408	1	2	0.00686	1.96308	-7.30049	8.53209
 409	1	1	-0.084968	1.32398	-13.0195	3.80488
 410	1	1	0.309483	-0.00560749	-13.8047	3.71516
 411	1	2	-0.002	1.87537	-13.0688	2.85933
 412	1	3	-0.436564	-0.692759	-13.6542	4.97697
 413	1	1	0.15357	-0.914476	-12.3026	5.43268
 414	1	4	-0.002836	0.438089	-11.095	3.42991
 415	1	3	-0.349559	0.334965	-11.594	5.45194
 416	1	2	0.015925	2.96607	-11.1732	5.19423
 417	1	1	0.230077	1.0555	-11.5587	4.20826
 418	1	2	0.052641	1.9613	-13.4917	4.56266
 419	1	4	-0.023623	0.234786	-14.8661	3.57623
 420	1	1	-0.072969	-1.47722	-12.3478	6.86389
 421	1	2	0.031276	-3.39061	-11.6582	8.81488
 422	1	2	0.023309	-1.77224	-11.3614	9.49338
 423	1	2	0.030094	-2.8324	-9.99391	9.08914
 424	1	5	0.077888	-1.62454	-11.7911	4.7705
 425	1	1	0.09092	-1.92748	-10.9523	7.35118
 426	1	2	0.047821	-2.33198	-13.0351	6.89041
 427	1	2	0.068339	-0.714708	-12.7531	7.5405
 428	1	1	-0.129023	-2.51639	-10.9963	8.77444
 429	1	2	-0.006475	-1.07894	-10.2573	7.33795
 430	1	2	-0.010814	-2.68182	-10.5502	6.66266
 431	1	1	-0.019372	2.35308	-10.7271	4.40055
 432	1	2	0.00686	2.95414	-10.7953	3.48704
 433	1	1	-0.084968	-1.55564	-13.6272	0.103212
 434	1	1	0.309483	-0.986038	-13.6464	-1.32902
 435	1	2	-0.002	-2.20194	-14.4992	0.265303
 436	1	3	-0.436564	-0.0253592	-12.5813	-1.46254
 437	1	1	0.15357	1.00968	-12.4758	-0.469913
 438	1	4	-0.002836	0.142987	-14.5272	1.11774
 439	1	3	-0.349559	0.420544	-12.474	0.842985
 440	1	2	0.015925	-1.31121	-12.3512	2.69415
 441	1	1	0.230077	-0.428444	-13.5916	1.15633
 442	1	2	0.052641	-2.18543	-12.7359	0.217311
 443	1	4	-0.023623	-1.801	-13.423	-2.0253
 444	1	1	-0.072969	1.72556	-11.1308	-0.711719
 445	1	2	0.031276	4.62469	-11.4659	1.26871
 446	1	2	0.023309	3.48403	-12.767	0.883093
 447	1	2	0.030094	4.40945	-11.9795	-0.417712
 448	1	5	0.077888	1.71366	-13.3126	-0.564862
 449	1	1	0.09092	2.77043	-10.7581	0.364011
 450	1	2	0.047821	2.21484	-11.1627	-1.69313
 451	1	2	0.068339	0.973408	-10.3337	-0.762979
 452	1	1	-0.129023	3.88756	-11.8094	0.532332
 453	1	2	-0.006475	3.22669	-9.79722	0.0943358
 454	1	2	-0.010814	2.26474	-10.6012	1.32314
 455	1	1	-0.019372	-0.987266	-13.3929	2.58202
 456	1	2	0.00686	-1.89159	-14.0056	2.69085
 457	1	1	-0.084968	-2.48352	-15.7137	-2.98936
 458	1	1	0.309483	-3.20023	-16.9128	-3.63088
 459	1	2	-0.002	-3.21133	-15.1309	-2.41064
 460	1	3	-0.436564	-2.20332	-17.7404	-4.24998
 461	1	1	0.15357	-1.23586	-18.2551	-3.32283
 462	1	4	-0.002836	-1.7243	-16.5466	-1.1427
 463	1	3	-0.349559	-0.52714	-17.1518	-2.73271
 464	1	2	0.015925	0.366906	-15.3287	-0.961723
 465	1	1	0.230077	-1.31094	-16.1374	-2.0733
 466	1	2	0.052641	-2.12168	-15.0663	-3.78733
 467	1	4	-0.023623	-3.71472	-17.4738	-2.84059
 468	1	1	-0.072969	-0.225576	-19.1259	-4.09445
 469	1	2	0.031276	1.88111	-19.3495	-2.2374
 470	1	2	0.023309	0.373519	-19.4548	-1.29886
 471	1	2	0.030094	1.38858	-20.894	-1.51105
 472	1	5	0.077888	-1.74621	-18.8464	-2.55039
 473	1	1	0.09092	0.251464	-20.3565	-3.29389
 474	1	2	0.047821	-0.684147	-19.4661	-5.02814
 475	1	2	0.068339	0.645066	-18.5226	-4.3738
 476	1	1	-0.129023	1.01903	-19.9883	-2.00754
 477	1	2	-0.006475	-0.611015	-20.9856	-3.03813
 478	1	2	-0.010814	0.905563	-20.9612	-3.93465
 479	1	1	-0.019372	-0.321971	-14.9872	-1.74303
 480	1	2	0.00686	0.303142	-14.8006	-2.62297
 481	1	1	-0.084968	-4.54474	-18.2956	-6.47428
 482	1	1	0.309483	-5.66016	-19.2192	-6.99185
 483	1	2	-0.002	-4.22988	-17.6008	-7.26364
 484	1	3	-0.436564	-6.01937	-20.1246	-5.93148
 485	1	1	0.15357	-6.32964	-19.5807	-4.63034
 486	1	4	-0.002836	-6.05239	-17.0179	-5.6389
 487	1	3	-0.349559	-5.48739	-18.4666	-4.267
 488	1	2	0.015925	-3.68681	-15.9145	-5.50767
 489	1	1	0.230077	-5.14013	-17.5188	-5.28903
 490	1	2	0.052641	-3.66858	-18.8771	-6.16268
 491	1	4	-0.023623	-6.52802	-18.5929	-7.23656
 492	1	1	-0.072969	-6.08734	-20.6991	-3.59491
 493	1	2	0.031276	-4.64156	-21.9648	-1.51645
 494	1	2	0.023309	-5.01367	-23.1776	-2.7658
 495	1	2	0.030094	-3.34158	-22.6238	-2.53312
 496	1	5	0.077888	-7.37877	-19.2584	-4.61558
 497	1	1	0.09092	-4.61333	-21.1792	-3.55614
 498	1	2	0.047821	-6.3814	-20.3369	-2.60208
 499	1	2	0.068339	-6.74127	-21.5472	-3.83113
 500	1	1	-0.129023	-4.39156	-22.3054	-2.52898
 501	1	2	-0.006475	-4.31194	-21.5436	-4.54533
 502	1	2	-0.010814	-3.94876	-20.3417	-3.3084
 503	1	1	-0.019372	-4.21625	-16.4296	-4.69538
 504	1	2	0.00686	-4.86009	-15.6718	-4.23069
 505	1	1	-0.084968	-4.39799	-22.1767	-9.32104
 506	1	1	0.309483	-3.7468	-23.5373	-8.99484
 507	1	2	-0.002	-5.33743	-22.3228	-9.86823
 508	1	3	-0.436564	-2.58642	-23.287	-8.17926
 509	1	1	0.15357	-2.83097	-22.5501	-6.96667
 510	1	4	-0.002836	-5.38587	-22.0145	-7.41609
 511	1	3	-0.349559	-3.43835	-21.2913	-7.3042
 512	1	2	0.015925	-4.60938	-19.4254	-8.8932
 513	1	1	0.230077	-4.68205	-21.4186	-8.01174
 514	1	2	0.052641	-3.72801	-21.5851	-9.95759
 515	1	4	-0.023623	-4.45857	-24.153	-8.43013
 516	1	1	-0.072969	-1.49687	-22.2648	-6.25242
 517	1	2	0.031276	-1.51601	-25.1498	-6.66484
 518	1	2	0.023309	0.0983388	-24.4746	-6.99165
 519	1	2	0.030094	-0.181089	-25.4666	-5.54451
 520	1	5	0.077888	-3.50262	-23.1139	-6.30529
 521	1	1	0.09092	-0.984667	-23.4443	-5.39313
 522	1	2	0.047821	-0.735295	-21.9718	-6.98613
 523	1	2	0.068339	-1.64843	-21.4072	-5.58953
 524	1	1	-0.129023	-0.625519	-24.7085	-6.20097
 525	1	2	-0.006475	-0.0921573	-23.1163	-4.846
 526	1	2	-0.010814	-1.73823	-23.6989	-4.63679
 527	1	1	-0.019372	-5.28823	-20.0184	-8.26698
 528	1	2	0.00686	-6.20433	-20.1499	-8.85693
 529	1	1	-0.084968	-3.89772	-25.3906	-12.4761
 530	1	1	0.309483	-5.09011	-25.7758	-13.3745
 531	1	2	-0.002	-3.21236	-24.7212	-13.0096
 532	1	3	-0.436564	-5.98814	-26.5841	-12.5952
 533	1	1	0.15357	-6.44628	-26.0273	-11.3471
 534	1	4	-0.002836	-4.93754	-23.7616	-11.5326
 535	1	3	-0.349559	-5.33887	-25.5539	-10.5539
 536	1	2	0.015925	-2.76924	-25.2348	-9.92294
 537	1	1	0.230077	-4.41684	-24.6748	-11.2195
 538	1	2	0.052641	-3.3354	-26.2898	-12.1933
 539	1	4	-0.023623	-5.6135	-24.8639	-13.6887
 540	1	1	-0.072969	-7.21548	-27.1156	-10.5622
 541	1	2	0.031276	-4.75449	-28.5157	-11.3803
 542	1	2	0.023309	-5.0863	-29.9383	-10.3798
 543	1	2	0.030094	-6.21004	-29.4959	-11.6827
 544	1	5	0.077888	-7.11984	-25.1879	-11.5636
 545	1	1	0.09092	-6.34997	-28.2235	-9.90549
 546	1	2	0.047821	-7.79576	-26.6211	-9.77388
 547	1	2	0.068339	-7.94796	-27.5825	-11.2322
 548	1	1	-0.129023	-5.55356	-29.0936	-10.9009
 549	1	2	-0.006475	-5.65984	-27.7807	-9.17632
 550	1	2	-0.010814	-7.01664	-28.8816	-9.33366
 551	1	1	-0.019372	-3.2732	-24.3139	-10.2443
 552	1	2	0.00686	-2.52332	-23.7139	-10.7762
 553	1	1	-0.084968	-4.38388	-24.5687	-16.2225
 554	1	1	0.309483	-3.58652	-24.0967	-17.467
 555	1	2	-0.002	-5.41789	-24.7848	-16.521
 556	1	3	-0.436564	-2.277	-24.6874	-17.4089
 557	1	1	0.15357	-2.28255	-26.1267	-17.4954
 558	1	4	-0.002836	-2.85259	-25.5052	-15.0081
 559	1	3	-0.349559	-3.30395	-26.6834	-16.6338
 560	1	2	0.015925	-5.58705	-26.8882	-15.1743
 561	1	1	0.230077	-3.73972	-25.8166	-15.5725
 562	1	2	0.052641	-4.43386	-23.7687	-15.4746
 563	1	4	-0.023623	-4.09549	-24.4578	-18.37
 564	1	1	-0.072969	-0.896395	-26.6215	-17.0387
 565	1	2	0.031276	1.4257	-28.1825	-17.419
 566	1	2	0.023309	0.891972	-28.3538	-15.7298
 567	1	2	0.030094	0.738639	-29.7206	-16.8545
 568	1	5	0.077888	-2.47029	-26.4371	-18.5319
 569	1	1	0.09092	-0.746052	-28.1529	-17.1649
 570	1	2	0.047821	-0.128431	-26.1308	-17.65
 571	1	2	0.068339	-0.721772	-26.3162	-15.9998
 572	1	1	-0.129023	0.66451	-28.6295	-16.7672
 573	1	2	-0.006475	-1.48542	-28.6544	-16.5276
 574	1	2	-0.010814	-0.951229	-28.458	-18.1991
 575	1	1	-0.019372	-4.68384	-26.592	-14.6254
 576	1	2	0.00686	-4.18924	-27.5184	-14.3054
 577	1	1	-0.084968	-1.09466	-21.9595	-18.3532
 578	1	1	0.309483	-0.356579	-21.302	-19.5274
 579	1	2	-0.002	-0.912044	-21.3953	-17.4296
 580	1	3	-0.436564	-0.650954	-22.0648	-20.7113
 581	1	1	0.15357	-2.04865	-22.2352	-21.0338
 582	1	4	-0.002836	-2.91501	-20.9333	-18.8286
 583	1	3	-0.349559	-2.79648	-22.7067	-19.892
 584	1	2	0.015925	-3.11613	-22.1655	-16.5749
 585	1	1	0.230077	-2.60053	-21.9734	-18.6706
 586	1	2	0.052641	-0.707983	-22.9739	-18.2074
 587	1	4	-0.023623	-0.732003	-20.2769	-19.6438
 588	1	1	-0.072969	-2.18371	-23.2698	-22.1704
 589	1	2	0.031276	-1.20498	-26.5845	-22.7813
 590	1	2	0.023309	-2.79728	-25.8701	-23.1134
 591	1	2	0.030094	-1.35322	-25.2598	-23.9558
 592	1	5	0.077888	-2.46355	-21.2723	-21.3585
 593	1	1	0.09092	-1.50122	-24.6249	-21.8672
 594	1	2	0.047821	-3.24971	-23.4357	-22.3695
 595	1	2	0.068339	-1.75606	-22.8464	-23.0863
 596	1	1	-0.129023	-1.72913	-25.6459	-22.9998
 597	1	2	-0.006475	-0.421627	-24.4784	-21.7354
 598	1	2	-0.010814	-1.88806	-25.0405	-20.928
 599	1	1	-0.019372	-3.48139	-22.5524	-17.5348
 600	1	2	0.00686	-4.49556	-22.1503	-17.654
 601	1	1	-0.084968	3.23348	-19.7859	-19.6145
 602	1	1	0.309483	3.89084	-18.7545	-20.549
 603	1	2	-0.002	3.10926	-19.3579	-18.6113
 604	1	3	-0.436564	3.97398	-19.3346	-21.8701
 605	1	1	0.15357	2.78241	-19.9311	-22.4374
 606	1	4	-0.002836	1.22573	-19.3407	-20.2844
 607	1	3	-0.349559	2.13258	-20.7896	-21.4779
 608	1	2	0.015925	1.60956	-22.2572	-19.4348
 609	1	1	0.230077	1.87434	-20.2202	-20.1866
 610	1	2	0.052641	3.89103	-20.6588	-19.5157
 611	1	4	-0.023623	4.90442	-18.564	-20.1761
 612	1	1	-0.072969	3.21693	-20.7844	-23.6471
 613	1	2	0.031276	0.34701	-21.3304	-23.3323
 614	1	2	0.023309	0.222237	-22.2121	-24.8639
 615	1	2	0.030094	1.28578	-22.8217	-23.5781
 616	1	5	0.077888	2.09289	-19.1406	-22.7593
 617	1	1	0.09092	2.07889	-21.0841	-24.6517
 618	1	2	0.047821	4.01716	-20.2582	-24.1825
 619	1	2	0.068339	3.65041	-21.7265	-23.2885
 620	1	1	-0.129023	0.914979	-21.9125	-24.0681
 621	1	2	-0.006475	1.686	-20.1407	-25.052
 622	1	2	-0.010814	2.50363	-21.6315	-25.5028
 623	1	1	-0.019372	1.16985	-21.2615	-19.2908
 624	1	2	0.00686	1.34757	-20.9907	-18.2419
 625	1	1	-0.084968	3.16155	-14.9414	-21.1994
 626	1	1	0.309483	4.05403	-13.7033	-21.405
 627	1	2	-0.002	2.46142	-15.0454	-22.0385
 628	1	3	-0.436564	5.04235	-13.6652	-20.3566
 629	1	1	0.15357	5.81292	-14.8591	-20.1084
 630	1	4	-0.002836	4.50343	-16.462	-21.9881
 631	1	3	-0.349559	4.95921	-16.0118	-19.9985
 632	1	2	0.015925	2.7017	-17.1896	-19.6145
 633	1	1	0.230077	3.99643	-16.2269	-21.0437
 634	1	2	0.052641	2.55619	-14.7874	-20.2976
 635	1	4	-0.023623	3.41552	-12.8154	-21.3181
 636	1	1	-0.072969	6.58604	-14.678	-18.7816
 637	1	2	0.031276	4.84144	-12.9398	-17.4046
 638	1	2	0.023309	3.78135	-14.2137	-18.054
 639	1	2	0.030094	4.10587	-14.1349	-16.3144
 640	1	5	0.077888	6.52288	-15.0057	-20.9325
 641	1	1	0.09092	5.7757	-14.9185	-17.4802
 642	1	2	0.047821	7.44092	-15.3643	-18.7855
 643	1	2	0.068339	7.00281	-13.665	-18.7557
 644	1	1	-0.129023	4.55261	-13.9936	-17.3062
 645	1	2	-0.006475	5.44898	-15.965	-17.4285
 646	1	2	-0.010814	6.44743	-14.7673	-16.6257
 647	1	1	-0.019372	3.11306	-17.4132	-20.6077
 648	1	2	0.00686	2.25245	-17.4941	-21.2825
 649	1	1	-0.084968	6.99788	-12.3577	-23.0924
 650	1	1	0.309483	7.51507	-11.9281	-24.4834
 651	1	2	-0.002	7.42121	-11.6932	-22.3283
 652	1	3	-0.436564	6.95022	-10.6339	-24.7743
 653	1	1	0.15357	5.51466	-10.5136	-24.6934
 654	1	4	-0.002836	5.18038	-11.5964	-22.2033
 655	1	3	-0.349559	4.9174	-11.7443	-24.2465
 656	1	2	0.015925	3.98138	-13.8004	-23.5572