pySIMM System Object

506 atoms
526 bonds
1050 angles
1566 dihedrals
0 impropers

5 atom types
5 bond types
11 angle types
8 dihedral types

-105.701924 105.701924 xlo xhi
-105.701924 105.701924 ylo yhi
-105.701924 105.701924 zlo zhi

Masses

   1	12.01	# c3
   2	1.008	# hc
   3	16.0	# os
   4	1.008	# h1
   5	1.008	# h2

Pair Coeffs

   1	0.1094	3.3996695084235347	# c3
   2	0.0157	2.649532787749369	# hc
   3	0.17	3.0000123434657784	# os
   4	0.0157	2.471353044121301	# h1
   5	0.0157	2.2931733004932333	# h2

Bond Coeffs

   1	330.6	1.0969	# c3,h1
   2	308.6	1.4316	# c3,os
   3	330.6	1.0969	# c3,hc
   4	300.9	1.5375	# c3,c3
   5	331.7	1.0961	# c3,h2

Angle Coeffs

   1	62.7	112.48	# c3,os,c3
   2	50.85	109.58	# h2,c3,os
   3	68.0	107.97	# c3,c3,os
   4	72.74	108.29	# os,c3,os
   5	46.34	109.8	# c3,c3,hc
   6	46.25	110.22	# c3,c3,h2
   7	50.8	109.78	# h1,c3,os
   8	46.39	109.56	# c3,c3,h1
   9	39.4	107.58	# hc,c3,hc
  10	39.24	108.46	# h1,c3,h1
  11	62.86	111.51	# c3,c3,c3

Dihedral Coeffs

   1	3	0.18	3	0	0.25	2	180	0.2	1	180	# c3,c3,c3,c3
   2	2	0.0	3	0	0.25	1	0	# hc,c3,c3,os
   3	1	0.3833333333333333	3	0	# X,c3,os,X
   4	1	0.15	3	0	# hc,c3,c3,hc
   5	2	0.383	3	0	0.1	2	180	# c3,c3,os,c3
   6	1	0.16	3	0	# hc,c3,c3,c3
   7	3	0.1	3	0	0.85	2	180	1.35	1	180	# c3,os,c3,os
   8	1	0.15555555555555556	3	0	# X,c3,c3,X

Atoms

   1	1	1	-0.084968	13.7703	1.67806	25.3508
   2	1	1	0.309483	13.5384	2.48149	26.6465
   3	1	2	-0.002	12.826	1.25473	24.9864
   4	1	3	-0.436564	14.7893	3.08628	27.0225
   5	1	1	0.15357	15.4009	3.93163	26.0314
   6	1	4	-0.002836	13.6415	3.39038	24.0303
   7	1	3	-0.349559	15.5632	3.19747	24.8033
   8	1	2	0.015925	15.1616	2.53035	22.2428
   9	1	1	0.230077	14.3663	2.60297	24.2747
  10	1	2	0.052641	14.456	0.84433	25.548
  11	1	4	-0.023623	12.8003	3.27109	26.4557
  12	1	1	-0.072969	16.7914	4.34405	26.5542
  13	1	2	0.031276	15.9138	6.4506	24.7774
  14	1	2	0.023309	16.6383	7.13906	26.2511
  15	1	2	0.030094	17.4893	7.25814	24.6967
  16	1	5	0.077888	14.7718	4.81493	25.8616
  17	1	1	0.09092	17.5731	5.27153	25.5942
  18	1	2	0.047821	16.6744	4.84496	27.5232
  19	1	2	0.068339	17.383	3.43871	26.7379
  20	1	1	-0.129023	16.8565	6.60961	25.3151
  21	1	2	-0.006475	18.5563	5.48308	26.0333
  22	1	2	-0.010814	17.761	4.75473	24.6445
  23	1	1	-0.019372	14.7387	1.84321	22.9863
  24	1	2	0.00686	15.4795	1.05988	23.1918
  25	1	1	-0.084968	11.2588	0.106199	28.8287
  26	1	1	0.309483	9.86265	-0.47966	28.5553
  27	1	2	-0.002	11.9739	-0.701001	29.0332
  28	1	3	-0.436564	8.98602	0.62384	28.2592
  29	1	1	0.15357	9.37676	1.43722	27.1359
  30	1	4	-0.002836	11.7997	0.23519	26.7454
  31	1	3	-0.349559	10.7207	1.91792	27.3269
  32	1	2	0.015925	12.9981	2.25225	28.7313
  33	1	1	0.230077	11.7164	0.915484	27.6023
  34	1	2	0.052641	11.225	0.752951	29.7149
  35	1	4	-0.023623	9.92946	-1.14011	27.6815
  36	1	1	-0.072969	8.44506	2.66181	27.0473
  37	1	2	0.031276	6.39677	4.09799	25.7189
  38	1	2	0.023309	5.03175	3.17877	26.3891
  39	1	2	0.030094	6.07122	4.13214	27.4684
  40	1	5	0.077888	9.32198	0.846905	26.2115
  41	1	1	0.09092	6.97824	2.26976	26.7699
  42	1	2	0.047821	8.50401	3.23321	27.9824
  43	1	2	0.068339	8.80294	3.31963	26.2458
  44	1	1	-0.129023	6.06559	3.49596	26.5743
  45	1	2	-0.006475	6.9284	1.63694	25.8744
  46	1	2	-0.010814	6.59562	1.67835	27.6086
  47	1	1	-0.019372	13.0726	1.6161	27.8398
  48	1	2	0.00686	13.8358	0.857311	28.0568
  49	1	1	-0.084968	6.7408	-1.04959	29.5637
  50	1	1	0.309483	5.93508	-1.12762	28.2543
  51	1	2	-0.002	6.09818	-1.33715	30.4062
  52	1	3	-0.436564	5.67809	-2.5238	28.0189
  53	1	1	0.15357	6.84071	-3.35883	27.8315
  54	1	4	-0.002836	7.8365	-2.73774	30.3244
  55	1	3	-0.349559	8.04136	-2.68583	28.2617
  56	1	2	0.015925	9.23964	-0.617783	30.6424
  57	1	1	0.230077	7.96974	-1.99408	29.5282
  58	1	2	0.052641	7.04062	-0.0124484	29.7523
  59	1	4	-0.023623	6.53589	-0.711672	27.4351
  60	1	1	-0.072969	6.98813	-3.6549	26.3262
  61	1	2	0.031276	6.967	-5.26748	24.0178
  62	1	2	0.023309	5.20956	-5.51907	23.9435
  63	1	2	0.030094	5.87874	-3.88595	23.7428
  64	1	5	0.077888	6.71764	-4.2934	28.3942
  65	1	1	0.09092	5.89164	-4.61002	25.8057
  66	1	2	0.047821	6.95512	-2.71139	25.7667
  67	1	2	0.068339	7.97256	-4.10245	26.1418
  68	1	1	-0.129023	5.99519	-4.83332	24.2843
  69	1	2	-0.006475	5.97447	-5.57597	26.3202
  70	1	2	-0.010814	4.89791	-4.2092	26.0393
  71	1	1	-0.019372	9.32277	-1.27812	29.7696
  72	1	2	0.00686	10.0642	-2.04188	30.037
  73	1	1	-0.084968	3.44839	-1.23216	26.1751
  74	1	1	0.309483	2.73432	-0.785546	24.8826
  75	1	2	-0.002	4.25115	-1.93202	25.9193
  76	1	3	-0.436564	1.80948	0.27331	25.2055
  77	1	1	0.15357	2.31124	1.39153	25.9613
  78	1	4	-0.002836	4.79978	0.453239	26.3503
  79	1	3	-0.349559	2.95133	0.917913	27.1555
  80	1	2	0.015925	4.75949	0.573399	28.8819
  81	1	1	0.230077	4.01575	-0.0242478	26.9495
  82	1	2	0.052641	2.7363	-1.77291	26.8106
  83	1	4	-0.023623	2.16046	-1.6391	24.5009
  84	1	1	-0.072969	1.11124	2.27349	26.3486
  85	1	2	0.031276	-0.22357	4.7514	26.4555
  86	1	2	0.023309	-0.341964	3.98061	28.0548
  87	1	2	0.030094	0.673773	5.42156	27.8347
  88	1	5	0.077888	3.02653	1.96604	25.3606
  89	1	1	0.09092	1.54503	3.59441	27.0195
  90	1	2	0.047821	0.529627	2.49947	25.446
  91	1	2	0.068339	0.453037	1.71144	27.023
  92	1	1	-0.129023	0.338437	4.49055	27.3611
  93	1	2	-0.006475	2.10557	3.3807	27.9384
  94	1	2	-0.010814	2.22109	4.14096	26.3493
  95	1	1	-0.019372	4.59475	-0.366865	28.3399
  96	1	2	0.00686	3.86736	-0.942463	28.9274
  97	1	1	-0.084968	2.5065	1.59905	22.5158
  98	1	1	0.309483	2.52342	2.24313	21.1146
  99	1	2	-0.002	1.4973	1.64912	22.9437
 100	1	3	-0.436564	2.22025	1.21823	20.1512
 101	1	1	0.15357	3.20204	0.162938	20.0619
 102	1	4	-0.002836	2.09163	-0.525428	22.3241
 103	1	3	-0.349559	3.84265	-0.0483037	21.3418
 104	1	2	0.015925	4.3408	-1.20225	23.5045
 105	1	1	0.230077	2.96763	0.119224	22.476
 106	1	2	0.052641	3.15971	2.19057	23.1665
 107	1	4	-0.023623	3.53102	2.63351	20.9237
 108	1	1	-0.072969	4.28628	0.566366	19.0391
 109	1	2	0.031276	5.53181	0.423896	16.5129
 110	1	2	0.023309	4.35535	1.42439	15.6344
 111	1	2	0.030094	5.32583	2.13988	16.9393
 112	1	5	0.077888	2.7049	-0.760344	19.737
 113	1	1	0.09092	3.7037	0.850276	17.6353
 114	1	2	0.047821	4.82345	1.45258	19.399
 115	1	2	0.068339	5.02211	-0.243928	18.969
 116	1	1	-0.129023	4.79784	1.23254	16.6198
 117	1	2	-0.006475	3.16856	-0.0371369	17.2737
 118	1	2	-0.010814	2.97348	1.66774	17.6874
 119	1	1	-0.019372	3.70641	-0.342688	23.7566
 120	1	2	0.00686	4.38485	0.445055	24.1063
 121	1	1	-0.084968	0.537978	5.19213	19.4541
 122	1	1	0.309483	0.600411	5.81304	18.0479
 123	1	2	-0.002	-0.486732	4.87055	19.681
 124	1	3	-0.436564	1.97705	6.13375	17.7447
 125	1	1	0.15357	2.97646	5.10864	17.9593
 126	1	4	-0.002836	1.2246	3.23354	18.832
 127	1	3	-0.349559	2.82275	4.5004	19.2555
 128	1	2	0.015925	1.7489	4.17546	21.7111
 129	1	1	0.230077	1.508	4.00557	19.5587
 130	1	2	0.052641	0.807224	5.95582	20.1944
 131	1	4	-0.023623	0.0159027	6.74103	18.0738
 132	1	1	-0.072969	4.38427	5.73812	17.8478
 133	1	2	0.031276	4.46593	8.33982	20.2452
 134	1	2	0.023309	3.88886	8.42421	18.5669
 135	1	2	0.030094	3.00453	7.45773	19.773
 136	1	5	0.077888	2.86887	4.33557	17.1878
 137	1	1	0.09092	4.87058	6.53741	19.0849
 138	1	2	0.047821	5.10297	4.93213	17.656
 139	1	2	0.068339	4.41268	6.38826	16.9648
 140	1	1	-0.129023	4.00196	7.76349	19.4354
 141	1	2	-0.006475	4.93553	5.87626	19.9584
 142	1	2	-0.010814	5.89325	6.88395	18.8889
 143	1	1	-0.019372	1.51083	3.39618	20.9756
 144	1	2	0.00686	0.503226	3.03052	21.2127
 145	1	1	-0.084968	-0.142021	6.78965	15.147
 146	1	1	0.309483	0.716681	6.21321	14.0145
 147	1	2	-0.002	-0.898936	7.46349	14.7242
 148	1	3	-0.436564	-0.17258	5.46426	13.1713
 149	1	1	0.15357	-0.910156	4.3734	13.7526
 150	1	4	-0.002836	-1.65118	6.14341	16.5218
 151	1	3	-0.349559	-1.48821	4.72787	15.0335
 152	1	2	0.015925	-0.600617	4.11914	17.3982
 153	1	1	0.230077	-0.855895	5.67032	15.9321
 154	1	2	0.052641	0.477475	7.40046	15.8136
 155	1	4	-0.023623	1.49484	5.55931	14.4274
 156	1	1	-0.072969	0.0270299	3.14161	13.8399
 157	1	2	0.031276	-1.47465	0.641247	15.8347
 158	1	2	0.023309	-0.203378	1.78522	16.307
 159	1	2	0.030094	-1.84945	2.36621	15.9494
 160	1	5	0.077888	-1.7304	4.1186	13.0692
 161	1	1	0.09092	-0.687505	1.80973	14.1717
 162	1	2	0.047821	0.500139	3.02325	12.8569
 163	1	2	0.068339	0.84811	3.30883	14.5415
 164	1	1	-0.129023	-1.07597	1.64749	15.6561
 165	1	2	-0.006475	-1.57847	1.69787	13.5406
 166	1	2	-0.010814	-0.0140213	0.984601	13.9069
 167	1	1	-0.019372	0.024688	4.89449	16.9384
 168	1	2	0.00686	0.83309	4.37121	16.422
 169	1	1	-0.084968	1.36385	6.26067	10.8203
 170	1	1	0.309483	1.90482	6.67172	9.43929
 171	1	2	-0.002	1.33887	5.1664	10.9062
 172	1	3	-0.436564	3.34083	6.67265	9.51758
 173	1	1	0.15357	3.89903	7.66023	10.4095
 174	1	4	-0.002836	2.91741	6.06398	12.3281
 175	1	3	-0.349559	2.98278	7.95556	11.487
 176	1	2	0.015925	2.04511	7.9065	13.8524
 177	1	1	0.230077	2.2178	6.83571	11.9811
 178	1	2	0.052641	0.32676	6.60939	10.8943
 179	1	4	-0.023623	1.54776	7.68477	9.21505
 180	1	1	-0.072969	4.1377	8.96958	9.62624
 181	1	2	0.031276	5.75853	10.8749	8.33197
 182	1	2	0.023309	6.03751	9.94906	6.84137
 183	1	2	0.030094	4.39513	10.4836	7.25628
 184	1	5	0.077888	4.84716	7.28461	10.8154
 185	1	1	0.09092	5.10906	8.78829	8.43818
 186	1	2	0.047821	3.18001	9.35941	9.2594
 187	1	2	0.068339	4.54345	9.72207	10.3134
 188	1	1	-0.129023	5.33795	10.1059	7.67186
 189	1	2	-0.006475	6.07196	8.41123	8.80603
 190	1	2	-0.010814	4.71481	8.03968	7.73957
 191	1	1	-0.019372	1.38446	7.33751	13.1855
 192	1	2	0.00686	0.620413	8.04258	12.8322
 193	1	1	-0.084968	1.49349	5.27559	5.78488
 194	1	1	0.309483	1.36556	6.00883	4.42508
 195	1	2	-0.002	2.23514	4.46822	5.72771
 196	1	3	-0.436564	2.1214	7.23865	4.46728
 197	1	1	0.15357	1.76588	8.18034	5.51046
 198	1	4	-0.002836	2.98608	6.36045	6.91694
 199	1	3	-0.349559	1.26154	7.49164	6.66979
 200	1	2	0.015925	0.363346	5.61756	8.33638
 201	1	1	0.230077	1.89588	6.23004	6.92684
 202	1	2	0.052641	0.53216	4.79904	6.01214
 203	1	4	-0.023623	0.308782	6.25359	4.25843
 204	1	1	-0.072969	0.650659	9.13474	5.02479
 205	1	2	0.031276	1.33371	9.55129	2.34657
 206	1	2	0.023309	2.21206	11.0847	2.53932
 207	1	2	0.030094	2.87995	9.5946	3.23129
 208	1	5	0.077888	2.65601	8.75607	5.79686
 209	1	1	0.09092	1.18351	10.4142	4.34233
 210	1	2	0.047821	-0.0279285	8.60773	4.34305
 211	1	2	0.068339	0.0453287	9.44084	5.88742
 212	1	1	-0.129023	1.95015	10.1417	3.03468
 213	1	2	-0.006475	0.334131	11.0728	4.12046
 214	1	2	-0.010814	1.83207	10.9611	5.03871
 215	1	1	-0.019372	1.45612	5.71865	8.31362
 216	1	2	0.00686	1.87485	4.71886	8.48788
 217	1	1	-0.084968	3.0122	6.59523	1.50044
 218	1	1	0.309483	3.01948	6.99482	0.014055
 219	1	2	-0.002	3.06413	7.49554	2.12025
 220	1	3	-0.436564	2.8413	5.80643	-0.780495
 221	1	1	0.15357	1.71934	4.95913	-0.474759
 222	1	4	-0.002836	0.858463	6.35163	1.7747
 223	1	3	-0.349559	1.70602	4.65137	0.931201
 224	1	2	0.015925	1.22992	4.20414	3.27221
 225	1	1	0.230077	1.77174	5.74912	1.85842
 226	1	2	0.052641	3.92005	6.01552	1.7075
 227	1	4	-0.023623	4.01286	7.40752	-0.199646
 228	1	1	-0.072969	1.9203	3.63687	-1.24469
 229	1	2	0.031276	-1.32797	2.25923	-1.30897
 230	1	2	0.023309	-0.914	3.95441	-0.993553
 231	1	2	0.030094	-0.568406	3.23066	-2.58312
 232	1	5	0.077888	0.784408	5.45294	-0.770041
 233	1	1	0.09092	0.805442	2.59058	-1.00622
 234	1	2	0.047821	2.00313	3.84648	-2.31726
 235	1	2	0.068339	2.88101	3.20236	-0.941821
 236	1	1	-0.129023	-0.583715	3.04133	-1.50343
 237	1	2	-0.006475	1.07831	1.66133	-1.52225
 238	1	2	-0.010814	0.745866	2.3446	0.0615728
 239	1	1	-0.019372	1.85111	5.10964	3.26512
 240	1	2	0.00686	2.8787	4.77506	3.45869
 241	1	1	-0.084968	3.31264	8.52948	-2.54539
 242	1	1	0.309483	3.15515	8.92182	-4.02729
 243	1	2	-0.002	3.98879	9.23316	-2.04323
 244	1	3	-0.436564	2.13918	8.09976	-4.62831
 245	1	1	0.15357	0.86798	8.02754	-3.95961
 246	1	4	-0.002836	1.53269	9.54286	-1.87303
 247	1	3	-0.349559	1.05175	7.66846	-2.57638
 248	1	2	0.015925	2.20129	8.97182	0.244091
 249	1	1	0.230077	1.94156	8.5244	-1.83985
 250	1	2	0.052641	3.76785	7.53748	-2.47922
 251	1	4	-0.023623	2.84351	9.973	-4.07651
 252	1	1	-0.072969	0.0195155	6.95119	-4.66781
 253	1	2	0.031276	-1.25845	4.48989	-5.08387
 254	1	2	0.023309	-0.114915	4.72358	-6.42805
 255	1	2	0.030094	0.201695	3.48383	-5.19581
 256	1	5	0.077888	0.366212	9.00197	-4.02391
 257	1	1	0.09092	0.58528	5.5206	-4.51565
 258	1	2	0.047821	-1.00311	6.983	-4.27235
 259	1	2	0.068339	-0.0451145	7.20493	-5.73298
 260	1	1	-0.129023	-0.196024	4.4933	-5.35825
 261	1	2	-0.006475	1.64142	5.49401	-4.81202
 262	1	2	-0.010814	0.537001	5.22609	-3.46176
 263	1	1	-0.019372	1.97038	8.08166	-0.352064
 264	1	2	0.00686	0.964075	7.76856	-0.0471861
 265	1	1	-0.084968	4.36715	6.68847	-6.39172
 266	1	1	0.309483	4.72092	5.19071	-6.46789
 267	1	2	-0.002	3.28365	6.81165	-6.50217
 268	1	3	-0.436564	5.88514	4.8696	-5.66473
 269	1	1	0.15357	6.87402	5.87616	-5.32567
 270	1	4	-0.002836	4.51682	6.64096	-4.23329
 271	1	3	-0.349559	6.30122	7.18915	-5.13744
 272	1	2	0.015925	5.27208	9.26471	-4.28896
 273	1	1	0.230077	4.86887	7.26674	-5.06122
 274	1	2	0.052641	4.8351	7.23418	-7.22096
 275	1	4	-0.023623	3.87341	4.63373	-6.05083
 276	1	1	-0.072969	7.93433	5.99483	-6.44469
 277	1	2	0.031276	8.67305	3.70594	-4.87576
 278	1	2	0.023309	9.82327	3.04159	-6.04968
 279	1	2	0.030094	10.1412	4.62031	-5.30072
 280	1	5	0.077888	7.36646	5.56906	-4.39421
 281	1	1	0.09092	8.59656	4.65611	-6.85061
 282	1	2	0.047821	7.48182	6.45627	-7.32983
 283	1	2	0.068339	8.71605	6.68659	-6.10813
 284	1	1	-0.129023	9.35294	3.96754	-5.6959
 285	1	2	-0.006475	7.84347	3.96823	-7.25044
 286	1	2	-0.010814	9.30218	4.84777	-7.6688
 287	1	1	-0.019372	4.4684	8.74868	-4.83007
 288	1	2	0.00686	4.3739	9.26247	-5.7954
 289	1	1	-0.084968	3.80597	2.37233	-7.9546
 290	1	1	0.309483	3.05839	2.28089	-9.31009
 291	1	2	-0.002	4.03766	1.35372	-7.61834
 292	1	3	-0.436564	3.59732	3.25325	-10.2275
 293	1	1	0.15357	4.99403	3.07782	-10.5255
 294	1	4	-0.002836	5.79019	2.84569	-7.24354
 295	1	3	-0.349559	5.75452	2.88034	-9.31103
 296	1	2	0.015925	5.8212	5.22273	-8.33205
 297	1	1	0.230077	5.12293	3.18135	-8.04623
 298	1	2	0.052641	3.1613	2.80154	-7.17929
 299	1	4	-0.023623	3.22904	1.28309	-9.73459
 300	1	1	-0.072969	5.49031	4.34117	-11.2658
 301	1	2	0.031276	7.06339	3.27129	-13.3919
 302	1	2	0.023309	8.61268	3.29036	-12.5239
 303	1	2	0.030094	7.29812	2.24599	-11.9555
 304	1	5	0.077888	5.12371	2.19783	-11.1686
 305	1	1	0.09092	7.01908	4.37492	-11.5033
 306	1	2	0.047821	4.97594	4.40797	-12.2324
 307	1	2	0.068339	5.19871	5.2346	-10.7028
 308	1	1	-0.129023	7.52494	3.22384	-12.3976
 309	1	2	-0.006475	7.28213	5.32951	-11.9764
 310	1	2	-0.010814	7.54843	4.35121	-10.5423
 311	1	1	-0.019372	4.94026	4.71849	-7.91957
 312	1	2	0.00686	4.08398	5.04905	-8.51954
 313	1	1	-0.084968	1.0298	1.76783	-11.6186
 314	1	1	0.309483	0.318256	2.30571	-12.8686
 315	1	2	-0.002	2.0936	1.6144	-11.8371
 316	1	3	-0.436564	-1.07158	2.49123	-12.5467
 317	1	1	0.15357	-1.35758	3.34791	-11.4236
 318	1	4	-0.002836	1.2132	3.78809	-10.8705
 319	1	3	-0.349559	-0.58061	2.94082	-10.2783
 320	1	2	0.015925	1.339	3.32698	-8.48087
 321	1	1	0.230077	0.834872	2.82161	-10.5121
 322	1	2	0.052641	0.604187	0.80573	-11.3082
 323	1	4	-0.023623	0.758113	3.28039	-13.1171
 324	1	1	-0.072969	-2.85321	3.21623	-11.0691
 325	1	2	0.031276	-2.81586	3.8404	-13.9209
 326	1	2	0.023309	-4.0345	2.59307	-13.5634
 327	1	2	0.030094	-4.53871	4.23823	-14.0057
 328	1	5	0.077888	-1.11218	4.38868	-11.6727
 329	1	1	0.09092	-3.7839	4.06894	-11.9647
 330	1	2	0.047821	-3.15179	2.16141	-11.1215
 331	1	2	0.068339	-2.99668	3.52916	-10.0276
 332	1	1	-0.129023	-3.79052	3.65713	-13.4527
 333	1	2	-0.006475	-4.80773	3.99009	-11.5777
 334	1	2	-0.010814	-3.50011	5.12602	-11.8836
 335	1	1	-0.019372	1.53084	2.49613	-9.17203
 336	1	2	0.00686	1.08007	1.60075	-8.72495
 337	1	1	-0.084968	-0.639791	-0.419211	-15.4996
 338	1	1	0.309483	-1.40741	-1.74346	-15.4176
 339	1	2	-0.002	-1.21764	0.312492	-16.0791
 340	1	3	-0.436564	-0.620226	-2.64725	-14.6285
 341	1	1	0.15357	-0.302639	-2.20288	-13.2951
 342	1	4	-0.002836	-1.36787	0.288965	-13.6036
 343	1	3	-0.349559	0.328005	-0.90422	-13.3518
 344	1	2	0.015925	1.48915	1.17948	-14.315
 345	1	1	0.230077	-0.395121	0.109985	-14.0785
 346	1	2	0.052641	0.31746	-0.5727	-16.0142
 347	1	4	-0.023623	-2.37509	-1.56805	-14.9293
 348	1	1	-0.072969	0.695945	-3.20072	-12.6716
 349	1	2	0.031276	-1.59914	-4.83554	-13.5232
 350	1	2	0.023309	-0.0482031	-5.53971	-14.0389
 351	1	2	0.030094	-0.993938	-6.30812	-12.7461
 352	1	5	0.077888	-1.21528	-2.13994	-12.6875
 353	1	1	0.09092	0.0441814	-4.49177	-12.1173
 354	1	2	0.047821	1.45703	-3.465	-13.4167
 355	1	2	0.068339	1.22446	-2.70279	-11.8496
 356	1	1	-0.129023	-0.692681	-5.34359	-13.1728
 357	1	2	-0.006475	0.830018	-5.10738	-11.6613
 358	1	2	-0.010814	-0.655208	-4.23291	-11.3121
 359	1	1	-0.019372	0.434404	1.41478	-14.1227
 360	1	2	0.00686	0.0990439	2.01707	-14.9769
 361	1	1	-0.084968	-3.28619	-3.77795	-18.1436
 362	1	1	0.309483	-3.73598	-5.24184	-18.34
 363	1	2	-0.002	-4.14211	-3.0936	-18.2099
 364	1	3	-0.436564	-3.84169	-5.89284	-17.0573
 365	1	1	0.15357	-2.64026	-5.9197	-16.2532
 366	1	4	-0.002836	-3.34656	-3.418	-16.0147
 367	1	3	-0.349559	-1.82737	-4.75452	-16.5024
 368	1	2	0.015925	-0.690271	-2.60222	-17.2923
 369	1	1	0.230077	-2.58136	-3.56494	-16.7887
 370	1	2	0.052641	-2.60851	-3.51542	-18.9655
 371	1	4	-0.023623	-2.98062	-5.75709	-18.9426
 372	1	1	-0.072969	-1.86386	-7.23805	-16.5248
 373	1	2	0.031276	-1.02291	-7.34395	-19.2143
 374	1	2	0.023309	-0.7328	-5.65601	-18.7253
 375	1	2	0.030094	0.633642	-6.74955	-18.9807
 376	1	5	0.077888	-2.94806	-5.90893	-15.1999
 377	1	1	0.09092	-0.434834	-7.11922	-17.1163
 378	1	2	0.047821	-1.7807	-7.76569	-15.567
 379	1	2	0.068339	-2.46433	-7.89279	-17.1688
 380	1	1	-0.129023	-0.392799	-6.68976	-18.5984
 381	1	2	-0.006475	0.175048	-6.4371	-16.5106
 382	1	2	-0.010814	0.0446419	-8.10358	-17.04
 383	1	1	-0.019372	-1.64557	-2.33993	-16.8189
 384	1	2	0.00686	-2.10396	-1.56283	-17.4446
 385	1	1	-0.084968	-6.82531	-6.91717	-20.0687
 386	1	1	0.309483	-7.04015	-8.38525	-20.4667
 387	1	2	-0.002	-7.60815	-6.595	-19.3698
 388	1	3	-0.436564	-5.97636	-8.76928	-21.3583
 389	1	1	0.15357	-4.64703	-8.61361	-20.823
 390	1	4	-0.002836	-5.42055	-7.41324	-18.5054
 391	1	3	-0.349559	-4.46592	-7.26666	-20.3547
 392	1	2	0.015925	-5.07839	-4.73271	-19.9687
 393	1	1	0.230077	-5.444	-6.79366	-19.4114
 394	1	2	0.052641	-6.88118	-6.27384	-20.9563
 395	1	4	-0.023623	-6.97325	-9.00135	-19.5617
 396	1	1	-0.072969	-3.61545	-8.85744	-21.9389
 397	1	2	0.031276	-2.44396	-11.6289	-23.7396
 398	1	2	0.023309	-2.64798	-9.96696	-24.3349
 399	1	2	0.030094	-1.4749	-10.313	-23.0428
 400	1	5	0.077888	-4.49033	-9.31517	-19.9929
 401	1	1	0.09092	-3.55937	-10.3346	-22.3812
 402	1	2	0.047821	-3.85304	-8.22009	-22.8001
 403	1	2	0.068339	-2.62608	-8.55137	-21.5766
 404	1	1	-0.129023	-2.46437	-10.574	-23.4394
 405	1	2	-0.006475	-3.36186	-10.9715	-21.5093
 406	1	2	-0.010814	-4.53092	-10.6392	-22.7905
 407	1	1	-0.019372	-5.09808	-5.33804	-19.0531
 408	1	2	0.00686	-5.88113	-4.91867	-18.4077
 409	1	1	-0.084968	-8.85188	-11.0005	-20.3005
 410	1	1	0.309483	-9.78668	-11.8684	-19.4184
 411	1	2	-0.002	-8.76285	-11.4171	-21.3122
 412	1	3	-0.436564	-10.7777	-11.0425	-18.7614
 413	1	1	0.15357	-10.3673	-9.7871	-18.1712
 414	1	4	-0.002836	-10.3293	-9.50136	-20.8532
 415	1	3	-0.349559	-9.44749	-9.07137	-19.0227
 416	1	2	0.015925	-8.23828	-9.04501	-22.1705
 417	1	1	0.230077	-9.34244	-9.5397	-20.3768
 418	1	2	0.052641	-7.84494	-11.0339	-19.8686
 419	1	4	-0.023623	-9.17431	-12.3702	-18.6587
 420	1	1	-0.072969	-9.6724	-10.0633	-16.8189
 421	1	2	0.031276	-10.1341	-7.04738	-15.0503
 422	1	2	0.023309	-10.9152	-7.44314	-16.5913
 423	1	2	0.030094	-11.2355	-8.43691	-15.1488
 424	1	5	0.077888	-11.2642	-9.17589	-18.0098
 425	1	1	0.09092	-9.26842	-8.78489	-16.0459
 426	1	2	0.047821	-10.3417	-10.6652	-16.1916
 427	1	2	0.068339	-8.77319	-10.6669	-16.9889
 428	1	1	-0.129023	-10.4635	-7.87558	-15.6901
 429	1	2	-0.006475	-8.76529	-9.08279	-15.1172
 430	1	2	-0.010814	-8.53473	-8.2112	-16.6266
 431	1	1	-0.019372	-8.39781	-8.61572	-21.1727
 432	1	2	0.00686	-8.90602	-7.65671	-21.3376
 433	1	1	-0.084968	-11.5069	-13.0418	-22.6447
 434	1	1	0.309483	-12.468	-12.3021	-23.6007
 435	1	2	-0.002	-10.4962	-13.0682	-23.0721
 436	1	3	-0.436564	-13.7599	-12.1977	-22.9561
 437	1	1	0.15357	-13.812	-11.701	-21.5981
 438	1	4	-0.002836	-11.2068	-11.2911	-21.4422
 439	1	3	-0.349559	-12.8353	-12.3693	-20.779
 440	1	2	0.015925	-11.085	-13.6151	-19.5606
 441	1	1	0.230077	-11.4941	-12.331	-21.2813
 442	1	2	0.052641	-11.838	-14.0804	-22.5202
 443	1	4	-0.023623	-12.5711	-12.9021	-24.5129
 444	1	1	-0.072969	-15.21	-12.0057	-21.0289
 445	1	2	0.031276	-16.9792	-12.8575	-19.0045
 446	1	2	0.023309	-16.8979	-11.3864	-18.0125
 447	1	2	0.030094	-17.5743	-11.3109	-19.6541
 448	1	5	0.077888	-13.6248	-10.6193	-21.587
 449	1	1	0.09092	-15.3934	-11.4711	-19.5902
 450	1	2	0.047821	-15.9674	-11.5573	-21.6837
 451	1	2	0.068339	-15.3729	-13.0906	-21.0432
 452	1	1	-0.129023	-16.798	-11.7756	-19.0334
 453	1	2	-0.006475	-14.6452	-11.9192	-18.9239
 454	1	2	-0.010814	-15.2266	-10.3864	-19.5774
 455	1	1	-0.019372	-10.5323	-12.952	-20.2386
 456	1	2	0.00686	-9.78743	-13.5808	-20.7432
 457	1	1	-0.084968	-12.3487	-8.76609	-25.3385
 458	1	1	0.309483	-13.137	-8.16513	-26.5151
 459	1	2	-0.002	-12.5082	-8.16454	-24.4342
 460	1	3	-0.436564	-12.9478	-9.03151	-27.6497
 461	1	1	0.15357	-13.3267	-10.4085	-27.4608
 462	1	4	-0.002836	-13.8637	-10.2182	-24.797
 463	1	3	-0.349559	-12.6305	-10.9409	-26.3179
 464	1	2	0.015925	-10.9197	-10.9688	-24.3491
 465	1	1	0.230077	-12.806	-10.2148	-25.0905
 466	1	2	0.052641	-11.2748	-8.74604	-25.5641
 467	1	4	-0.023623	-14.1985	-8.13797	-26.24
 468	1	1	-0.072969	-12.8979	-11.1915	-28.7189
 469	1	2	0.031276	-12.2829	-13.6818	-27.565
 470	1	2	0.023309	-13.8318	-13.2235	-26.8156
 471	1	2	0.030094	-13.7772	-14.5388	-27.9997
 472	1	5	0.077888	-14.4128	-10.4765	-27.313
 473	1	1	0.09092	-13.6114	-12.5539	-28.8917
 474	1	2	0.047821	-13.11	-10.5795	-29.6047
 475	1	2	0.068339	-11.8115	-11.3427	-28.6985
 476	1	1	-0.129023	-13.3578	-13.5574	-27.7467
 477	1	2	-0.006475	-14.6916	-12.3907	-28.9963
 478	1	2	-0.010814	-13.2715	-13.0054	-29.8325
 479	1	1	-0.019372	-11.9563	-10.8904	-23.9961
 480	1	2	0.00686	-11.9356	-10.2292	-23.1225
 481	1	1	-0.084968	-13.7298	-6.28348	-29.2003
 482	1	1	0.309483	-15.1604	-6.07206	-29.7352
 483	1	2	-0.002	-13.027	-5.67755	-29.7863
 484	1	3	-0.436564	-15.7438	-4.93199	-29.0753
 485	1	1	0.15357	-15.8829	-5.031	-27.6405
 486	1	4	-0.002836	-13.2551	-4.84655	-27.6704
 487	1	3	-0.349559	-14.9072	-5.94025	-27.0969
 488	1	2	0.015925	-11.661	-6.80698	-27.3791
 489	1	1	0.230077	-13.6077	-5.8857	-27.7085
 490	1	2	0.052641	-13.446	-7.32656	-29.3663
 491	1	4	-0.023623	-15.1338	-5.91395	-30.8203
 492	1	1	-0.072969	-17.2914	-5.57317	-27.3125
 493	1	2	0.031276	-16.851	-7.0957	-24.9859
 494	1	2	0.023309	-15.9	-5.61382	-24.7209
 495	1	2	0.030094	-17.3805	-5.89212	-23.7918
 496	1	5	0.077888	-15.7537	-4.03121	-27.2061
 497	1	1	0.09092	-17.7496	-5.29818	-25.8592
 498	1	2	0.047821	-18.0137	-5.10549	-27.9932
 499	1	2	0.068339	-17.3271	-6.6513	-27.5121
 500	1	1	-0.129023	-16.917	-6.02035	-24.7777
 501	1	2	-0.006475	-17.7336	-4.21764	-25.6673
 502	1	2	-0.010814	-18.795	-5.61677	-25.7602
 503	1	1	-0.019372	-12.6301	-6.74205	-26.8678
 504	1	2	0.00686	-12.4427	-6.19782	-25.9331
 505	1	2	0	13.8522	1.3701	22.5458
 506	1	4	0	-15.7658	-6.96472	-29.5321

Velocities

   1	-9.18285e-05	-0.000113906	1.59574e-07
   2	1.22218e-05	-8.58754e-05	2.79022e-05
   3	-0.000150094	-1.08906e-05	3.92518e-05
   4	5.54796e-05	-0.000115251	-7.29203e-05
   5	-0.00011776	-2.78543e-05	-9.00177e-05
   6	-0.000180746	-0.000104871	3.64321e-05
   7	-0.000138812	-3.85312e-06	-8.06607e-05
   8	5.12461e-06	0.000244694	6.87593e-05
   9	-0.000150316	-7.89471e-05	-2.69067e-05
  10	-0.00019814	-0.000198271	-6.05608e-05
  11	3.97209e-05	-2.91091e-05	1.46847e-06
  12	-6.75369e-05	-2.72647e-05	-0.000120155
  13	9.38557e-05	0.00018671	-1.07603e-05
  14	0.000150705	0.000191339	-6.75582e-05
  15	0.000155364	6.84968e-07	-5.93701e-05
  16	-0.000213186	-7.79876e-05	-1.24068e-06
  17	-1.72917e-05	9.07267e-05	3.07297e-05
  18	-2.12802e-05	-0.000203857	-4.65601e-05
  19	-0.000132905	-8.39949e-05	-0.00029669
  20	8.80721e-05	0.000103718	-1.71989e-05
  21	-0.00012037	8.84399e-05	0.000269625
  22	0.000182143	0.000127066	4.76715e-05
  23	-9.38204e-05	0.000104275	-0.000107924
  24	-0.000140147	3.2235e-05	-0.000213138
  25	-8.76297e-06	-0.000149834	-3.90184e-08
  26	3.70443e-06	-0.000129803	-0.000153525
  27	-3.59179e-05	-0.000192558	-0.00018071
  28	-5.33029e-05	-0.000161781	-0.000188728
  29	6.66964e-05	3.56298e-05	-3.04874e-05
  30	5.76792e-05	0.000136569	6.81288e-05
  31	6.2531e-07	3.56461e-05	0.00021881
  32	-7.85892e-05	0.000225491	3.25545e-05
  33	2.21991e-05	5.03013e-05	0.000114216
  34	-4.92937e-05	-0.000341952	0.000125884
  35	5.18717e-05	-0.000156275	-0.000120143
  36	2.36296e-05	3.17768e-05	5.93086e-05
  37	-7.74046e-05	-0.000116421	-4.88087e-05
  38	-4.99809e-05	-0.000116629	4.58438e-05
  39	-5.7978e-05	-2.9511e-06	-3.24376e-05
  40	0.000167689	0.000182088	-0.000163966
  41	4.32204e-05	-5.48183e-07	7.3334e-05
  42	6.43948e-06	5.70231e-06	8.17111e-05
  43	-2.48475e-05	8.58491e-05	5.48773e-05
  44	-3.71542e-05	-6.8648e-05	1.66548e-06
  45	7.37339e-05	1.66675e-08	8.54344e-05
  46	4.30696e-05	4.33832e-05	0.000108772
  47	-1.40872e-05	5.99047e-05	0.000159302
  48	-2.05672e-06	0.000157552	0.000338162
  49	3.31097e-05	-0.000128762	-1.32818e-05
  50	6.79019e-05	-9.00975e-05	-4.95027e-05
  51	-2.18558e-05	-0.000203236	-8.93129e-05
  52	4.98274e-05	-7.54888e-05	-2.7858e-05
  53	1.77077e-05	-0.00012011	-1.63528e-05
  54	6.35781e-05	-5.26659e-05	0.000123334
  55	4.49459e-05	-0.000243753	9.89929e-05
  56	0.000102489	-8.36585e-05	-9.09254e-05
  57	1.81463e-05	-0.000126909	2.20931e-05
  58	-1.36089e-05	-0.000140461	3.85843e-05
  59	6.84936e-05	-0.00012069	-5.67258e-05
  60	0.000128443	-6.27966e-06	-2.03784e-05
  61	8.21384e-05	-5.93192e-05	-2.80454e-05
  62	8.1726e-05	-0.000147651	7.2891e-05
  63	-7.62236e-07	-0.000134949	-0.00016513
  64	-7.95438e-05	-0.000153769	-0.00011876
  65	7.51146e-05	0.000103361	-7.10454e-05
  66	0.000240004	3.4547e-05	1.09066e-05
  67	0.000126208	-7.13131e-05	2.57267e-05
  68	7.4249e-05	-5.81794e-05	-5.10772e-05
  69	-5.91499e-05	0.000129955	1.47416e-05
  70	0.00010259	0.00022178	-0.000155061
  71	1.10869e-05	-9.68797e-05	-7.16913e-05
  72	4.10261e-05	-8.07637e-05	-9.2494e-05
  73	1.13588e-05	-7.92398e-06	8.49115e-05
  74	3.37435e-05	-2.19043e-06	4.6578e-05
  75	-3.22624e-05	-4.57998e-05	9.62773e-05
  76	3.80068e-05	-7.3971e-06	5.83644e-05
  77	2.74776e-05	-2.38385e-05	9.86342e-05
  78	-1.76745e-05	1.37857e-05	3.03721e-05
  79	1.20464e-05	-5.49089e-05	0.000110567
  80	0.00019044	-3.69529e-05	-2.39244e-05
  81	8.45363e-06	-3.14339e-05	3.47939e-05
  82	-4.05913e-05	3.42073e-05	6.9425e-05
  83	4.76975e-05	5.9575e-06	4.00064e-05
  84	5.82135e-05	2.01878e-05	0.000100609
  85	0.00023262	0.000164744	0.000118363
  86	0.000200238	0.000128551	9.52048e-05
  87	0.000320232	4.84374e-05	0.000118054
  88	6.65739e-05	-2.22823e-05	0.000132909
  89	0.000150523	4.61201e-06	6.44744e-05
  90	2.93108e-05	2.13991e-05	0.000109229
  91	5.00341e-05	5.85151e-05	0.000126431
  92	0.000229394	9.1136e-05	9.74983e-05
  93	0.000167105	-2.02609e-05	4.47158e-05
  94	0.00017512	-5.50967e-05	4.26619e-05
  95	0.000103578	-4.03141e-05	1.51055e-05
  96	0.000111306	1.10476e-05	8.24771e-05
  97	8.91315e-05	-1.74917e-05	8.18021e-05
  98	2.12917e-05	-2.74601e-06	7.22565e-05
  99	0.000120058	1.71887e-06	0.000141041
 100	8.1832e-06	2.08641e-07	8.47888e-05
 101	1.41457e-05	2.11497e-05	2.34914e-05
 102	5.06848e-05	-6.16442e-06	9.6304e-05
 103	2.79055e-05	-4.47016e-05	2.77179e-05
 104	6.86182e-05	-2.00868e-05	7.72671e-05
 105	5.39335e-05	-3.04356e-05	4.6061e-05
 106	0.000137503	-3.82495e-05	4.84691e-05
 107	1.23625e-05	4.22634e-06	5.32994e-05
 108	2.85444e-05	7.51117e-05	4.01082e-05
 109	4.24345e-05	0.000244253	-1.80174e-05
 110	6.6539e-05	0.000334438	7.85929e-05
 111	8.22427e-05	0.000209159	0.000124833
 112	2.56821e-05	2.89103e-05	-2.20479e-05
 113	3.94694e-05	0.000180849	2.71903e-05
 114	3.81001e-05	3.90281e-05	8.50571e-05
 115	1.06927e-05	6.45063e-05	-2.47971e-05
 116	6.16939e-05	0.000243502	5.23532e-05
 117	5.37062e-05	0.000204569	-4.56093e-05
 118	5.03972e-05	0.000172084	6.93783e-05
 119	8.05312e-05	-2.12886e-05	7.27202e-05
 120	6.36059e-05	-1.71444e-05	6.68464e-05
 121	-0.000111074	2.85902e-05	0.000212304
 122	-0.000221777	7.26845e-05	0.000202954
 123	-0.000125125	1.07483e-05	0.000281662
 124	-0.000248997	0.000138161	0.000207371
 125	-0.000247303	0.00011208	2.52927e-05
 126	-0.000218352	1.00561e-05	0.000173763
 127	-0.000130464	-2.23497e-05	-1.5829e-05
 128	8.44334e-05	3.53096e-06	0.000110949
 129	-0.000137568	1.49874e-05	0.000109501
 130	-7.03124e-05	-1.12192e-05	0.000220085
 131	-0.00026677	2.41752e-05	0.000263048
 132	-0.000231924	7.22229e-05	-6.87054e-05
 133	1.32853e-05	0.000128995	-0.00012641
 134	-0.000257208	5.55245e-05	-4.44707e-05
 135	-3.66896e-05	7.06895e-05	0.000140847
 136	-0.000324593	0.000185509	-3.48871e-05
 137	-0.0001357	8.48945e-05	-0.000116701
 138	-0.000282766	7.06298e-05	-0.00010739
 139	-0.000289185	5.45754e-05	-7.75945e-05
 140	-0.000107601	8.71003e-05	-3.18677e-05
 141	-4.09639e-05	9.10831e-05	-0.000121169
 142	-0.000138353	0.000103646	-0.000233415
 143	2.86931e-05	-1.31088e-05	0.000146408
 144	3.93316e-05	1.24712e-05	0.00023927
 145	-4.45228e-05	-5.76707e-06	3.27306e-05
 146	-0.000203998	-1.10448e-05	-6.40539e-05
 147	-2.13867e-05	8.43272e-05	0.000108091
 148	-0.000316892	1.72668e-05	5.15342e-06
 149	-0.00022461	1.21628e-05	9.88304e-05
 150	-6.49409e-05	0.000137965	3.0673e-05
 151	-0.000122588	3.45279e-05	0.00013093
 152	-0.000214344	0.000106191	0.000145261
 153	-8.70241e-05	6.44198e-05	9.66884e-05
 154	8.945e-05	-7.10013e-05	-9.08362e-06
 155	-0.000176033	-6.2243e-05	-0.000174795
 156	-0.000160869	4.38238e-05	6.27011e-05
 157	-0.000154813	9.66479e-05	0.000138376
 158	-0.000150844	8.08703e-05	0.000129158