pySIMM System Object

626 atoms
651 bonds
1300 angles
1941 dihedrals
0 impropers

5 atom types
5 bond types
11 angle types
8 dihedral types

-113.863946 113.863946 xlo xhi
-113.863946 113.863946 ylo yhi
-113.863946 113.863946 zlo zhi

Masses

   1	12.01	# c3
   2	1.008	# hc
   3	16.0	# os
   4	1.008	# h1
   5	1.008	# h2

Pair Coeffs

   1	0.1094	3.3996695084235347	# c3
   2	0.0157	2.649532787749369	# hc
   3	0.17	3.0000123434657784	# os
   4	0.0157	2.471353044121301	# h1
   5	0.0157	2.2931733004932333	# h2

Bond Coeffs

   1	330.6	1.0969	# c3,h1
   2	308.6	1.4316	# c3,os
   3	330.6	1.0969	# c3,hc
   4	300.9	1.5375	# c3,c3
   5	331.7	1.0961	# c3,h2

Angle Coeffs

   1	62.7	112.48	# c3,os,c3
   2	50.85	109.58	# h2,c3,os
   3	68.0	107.97	# c3,c3,os
   4	72.74	108.29	# os,c3,os
   5	46.34	109.8	# c3,c3,hc
   6	46.25	110.22	# c3,c3,h2
   7	50.8	109.78	# h1,c3,os
   8	46.39	109.56	# c3,c3,h1
   9	39.4	107.58	# hc,c3,hc
  10	39.24	108.46	# h1,c3,h1
  11	62.86	111.51	# c3,c3,c3

Dihedral Coeffs

   1	3	0.18	3	0	0.25	2	180	0.2	1	180	# c3,c3,c3,c3
   2	2	0.0	3	0	0.25	1	0	# hc,c3,c3,os
   3	1	0.3833333333333333	3	0	# X,c3,os,X
   4	1	0.15	3	0	# hc,c3,c3,hc
   5	2	0.383	3	0	0.1	2	180	# c3,c3,os,c3
   6	1	0.16	3	0	# hc,c3,c3,c3
   7	3	0.1	3	0	0.85	2	180	1.35	1	180	# c3,os,c3,os
   8	1	0.15555555555555556	3	0	# X,c3,c3,X

Atoms

   1	1	1	-0.084968	-1.77374	16.7195	33.5521
   2	1	1	0.309483	-1.04803	17.555	34.6249
   3	1	2	-0.002	-1.15738	16.6332	32.6485
   4	1	3	-0.436564	-1.87319	17.5693	35.8036
   5	1	1	0.15357	-2.21432	16.2818	36.3489
   6	1	4	-0.002836	-1.10809	14.8152	34.3391
   7	1	3	-0.349559	-2.82011	15.4651	35.3282
   8	1	2	0.015925	-3.04607	13.4474	33.5732
   9	1	1	0.230077	-2.05915	15.3166	34.1172
  10	1	2	0.052641	-2.71443	17.2094	33.2702
  11	1	4	-0.023623	-0.088052	17.0794	34.8635
  12	1	1	-0.072969	-3.23745	16.5093	37.4795
  13	1	2	0.031276	-1.75772	14.1255	38.1978
  14	1	2	0.023309	-1.97537	15.1842	39.6129
  15	1	2	0.030094	-2.85884	13.6477	39.502
  16	1	5	0.077888	-1.30916	15.7945	36.7336
  17	1	1	0.09092	-3.66032	15.2164	38.2152
  18	1	2	0.047821	-2.81657	17.2155	38.206
  19	1	2	0.068339	-4.12913	16.9885	37.0567
  20	1	1	-0.129023	-2.48904	14.5029	38.9229
  21	1	2	-0.006475	-4.4202	15.4725	38.9645
  22	1	2	-0.010814	-4.1377	14.523	37.5113
  23	1	1	-0.019372	-2.87282	14.4418	33.1433
  24	1	2	0.00686	-3.84702	14.8974	32.9248
  25	1	1	-0.084968	0.397334	20.6619	32.6638
  26	1	1	0.309483	1.35482	20.7578	31.4609
  27	1	2	-0.002	-0.520577	21.2284	32.4608
  28	1	3	-0.436564	2.50268	19.9302	31.7439
  29	1	1	0.15357	2.21101	18.5468	32.0261
  30	1	4	-0.002836	-0.489941	18.78	32.0841
  31	1	3	-0.349559	1.28486	18.4686	33.1237
  32	1	2	0.015925	-0.312919	19.5424	35.0547
  33	1	1	0.230077	0.0530617	19.1888	32.9458
  34	1	2	0.052641	0.870955	21.1072	33.5481
  35	1	4	-0.023623	0.84041	20.3721	30.5714
  36	1	1	-0.072969	3.50509	17.8216	32.4464
  37	1	2	0.031276	5.36904	15.7253	32.188
  38	1	2	0.023309	6.20765	16.3545	30.7544
  39	1	2	0.030094	6.28072	17.2517	32.2864
  40	1	5	0.077888	1.77118	18.0641	31.143
  41	1	1	0.09092	4.37281	17.4233	31.234
  42	1	2	0.047821	4.08203	18.4627	33.125
  43	1	2	0.068339	3.24101	16.9168	33.008
  44	1	1	-0.129023	5.63412	16.6407	31.6441
  45	1	2	-0.006475	3.77959	16.8109	30.5427
  46	1	2	-0.010814	4.67905	18.3196	30.6885
  47	1	1	-0.019372	-0.805664	19.027	34.22
  48	1	2	0.00686	-1.77096	19.5269	34.0669
  49	1	1	-0.084968	4.2384	22.0551	30.3851
  50	1	1	0.309483	4.78092	21.0008	29.4083
  51	1	2	-0.002	4.86256	22.957	30.3377
  52	1	3	-0.436564	4.54079	21.5104	28.0857
  53	1	1	0.15357	3.15008	21.6703	27.7282
  54	1	4	-0.002836	2.76751	23.5009	29.7722
  55	1	3	-0.349559	2.30499	21.677	28.8992
  56	1	2	0.015925	2.21879	22.649	32.1259
  57	1	1	0.230077	2.77663	22.4355	30.0358
  58	1	2	0.052641	4.31973	21.6816	31.4125
  59	1	4	-0.023623	4.2199	20.0692	29.541
  60	1	1	-0.072969	2.72505	20.4635	26.8669
  61	1	2	0.031276	1.92954	19.1827	24.4803
  62	1	2	0.023309	3.51129	19.2381	23.6726
  63	1	2	0.030094	3.31221	18.2949	25.1637
  64	1	5	0.077888	3.01897	22.6053	27.168
  65	1	1	0.09092	3.40053	20.4583	25.4782
  66	1	2	0.047821	2.96743	19.5349	27.3991
  67	1	2	0.068339	1.63596	20.4822	26.7369
  68	1	1	-0.129023	3.013	19.2173	24.6498
  69	1	2	-0.006475	3.1153	21.3645	24.9287
  70	1	2	-0.010814	4.49032	20.4833	25.5903
  71	1	1	-0.019372	1.78761	22.2267	31.2091
  72	1	2	0.00686	0.88664	22.8178	31.0007
  73	1	1	-0.084968	7.2983	19.9806	27.3469
  74	1	1	0.309483	7.79186	18.7576	26.5518
  75	1	2	-0.002	6.5294	20.5108	26.7752
  76	1	3	-0.436564	8.7408	18.0397	27.3703
  77	1	1	0.15357	8.3606	17.7064	28.7229
  78	1	4	-0.002836	5.93083	18.8377	28.5956
  79	1	3	-0.349559	7.83633	18.8654	29.3989
  80	1	2	0.015925	6.4406	20.4467	30.6643
  81	1	1	0.230077	6.76277	19.5412	28.7232
  82	1	2	0.052641	8.13246	20.6798	27.4838
  83	1	4	-0.023623	8.30443	19.1214	25.6527
  84	1	1	-0.072969	9.62965	17.2345	29.4567
  85	1	2	0.031276	11.0945	15.4139	31.0343
  86	1	2	0.023309	11.3333	17.0491	31.6948
  87	1	2	0.030094	10.3745	15.8564	32.5972
  88	1	5	0.077888	7.60622	16.9093	28.7138
  89	1	1	0.09092	9.33507	16.7036	30.8763
  90	1	2	0.047821	10.109	16.4432	28.8668
  91	1	2	0.068339	10.3409	18.0681	29.5133
  92	1	1	-0.129023	10.6137	16.227	31.5926
  93	1	2	-0.006475	8.8592	17.4879	31.4785
  94	1	2	-0.010814	8.62717	15.8675	30.8145
  95	1	1	-0.019372	6.2835	20.7114	29.6105
  96	1	2	0.00686	6.87871	21.6138	29.419
  97	1	1	-0.084968	7.92444	15.5977	25.7022
  98	1	1	0.309483	7.61796	14.2471	25.0217
  99	1	2	-0.002	8.9906	15.841	25.6084
 100	1	3	-0.436564	7.32575	14.5055	23.6352
 101	1	1	0.15357	6.12821	15.2753	23.4013
 102	1	4	-0.002836	7.67178	17.2308	24.2915
 103	1	3	-0.349559	5.89582	16.1912	24.4926
 104	1	2	0.015925	5.87242	18.4432	25.6171
 105	1	1	0.230077	7.08651	16.7484	25.0854
 106	1	2	0.052641	7.71444	15.4985	26.7733
 107	1	4	-0.023623	6.7304	13.8173	25.5028
 108	1	1	-0.072969	4.91369	14.3245	23.322
 109	1	2	0.031276	2.92322	12.8874	21.9161
 110	1	2	0.023309	3.9693	11.55	21.3982
 111	1	2	0.030094	3.67117	11.8181	23.1258
 112	1	5	0.077888	6.23584	15.8308	22.4607
 113	1	1	0.09092	5.05896	13.247	22.2238
 114	1	2	0.047821	4.76293	13.8371	24.2933
 115	1	2	0.068339	4.01447	14.9211	23.1258
 116	1	1	-0.129023	3.82941	12.3205	22.1636
 117	1	2	-0.006475	5.19781	13.7302	21.2482
 118	1	2	-0.010814	5.95038	12.6355	22.4098
 119	1	1	-0.019372	6.63933	17.8246	26.0985
 120	1	2	0.00686	6.15332	17.3448	26.9566
 121	1	1	-0.084968	9.51647	10.8443	24.4643
 122	1	1	0.309483	9.06873	9.54895	23.7541
 123	1	2	-0.002	10.4568	11.2088	24.0311
 124	1	3	-0.436564	7.78023	9.16794	24.2801
 125	1	1	0.15357	6.73738	10.1661	24.3019
 126	1	4	-0.002836	8.26704	12.1707	23.297
 127	1	3	-0.349559	7.21356	11.3801	24.9061
 128	1	2	0.015925	8.97132	12.9941	26.168
 129	1	1	0.230077	8.42368	11.924	24.3535
 130	1	2	0.052641	9.71123	10.6248	25.5214
 131	1	4	-0.023623	9.79321	8.76038	23.9921
 132	1	1	-0.072969	5.53537	9.62048	25.1073
 133	1	2	0.031276	6.8078	8.97012	28.3454
 134	1	2	0.023309	6.82566	7.88863	26.9357
 135	1	2	0.030094	7.80063	9.37818	26.9363
 136	1	5	0.077888	6.41949	10.3747	23.2724
 137	1	1	0.09092	5.65392	9.71588	26.6509
 138	1	2	0.047821	4.6383	10.1694	24.7975
 139	1	2	0.068339	5.36498	8.57442	24.8243
 140	1	1	-0.129023	6.84559	8.93967	27.2496
 141	1	2	-0.006475	5.71478	10.7678	26.958
 142	1	2	-0.010814	4.72874	9.32339	27.0917
 143	1	1	-0.019372	8.76918	13.2227	25.1137
 144	1	2	0.00686	9.68658	13.6568	24.6957
 145	1	1	-0.084968	7.19028	8.01279	21.3519
 146	1	1	0.309483	6.5033	8.95124	20.3494
 147	1	2	-0.002	7.08922	6.97385	21.0111
 148	1	3	-0.436564	7.14196	8.74443	19.081
 149	1	1	0.15357	8.56656	8.96093	19.0039
 150	1	4	-0.002836	9.1853	7.55705	22.0224
 151	1	3	-0.349559	9.27409	8.40652	20.1453
 152	1	2	0.015925	9.99285	10.0409	21.8765
 153	1	1	0.230077	8.68789	8.36428	21.4703
 154	1	2	0.052641	6.69407	8.06575	22.325
 155	1	4	-0.023623	6.62515	9.99401	20.6641
 156	1	1	-0.072969	8.82511	10.4813	18.8479
 157	1	2	0.031276	12.3343	10.8951	18.7279
 158	1	2	0.023309	11.2789	11.1085	20.1371
 159	1	2	0.030094	11.5014	9.4937	19.4178
 160	1	5	0.077888	8.93245	8.46325	18.0965
 161	1	1	0.09092	10.2087	10.8283	18.2484
 162	1	2	0.047821	8.06099	10.886	18.1721
 163	1	2	0.068339	8.69426	11.007	19.7972
 164	1	1	-0.129023	11.3986	10.5619	19.1938
 165	1	2	-0.006475	10.3539	10.2747	17.312
 166	1	2	-0.010814	10.2136	11.8934	17.9839
 167	1	1	-0.019372	9.00878	9.69083	22.2103
 168	1	2	0.00686	8.29541	10.4704	21.9304
 169	1	1	-0.084968	4.41819	9.18422	17.7295
 170	1	1	0.309483	3.09319	9.39743	16.9657
 171	1	2	-0.002	5.22519	9.75698	17.2542
 172	1	3	-0.436564	2.51911	10.6374	17.4212
 173	1	1	0.15357	2.15245	10.6735	18.8173
 174	1	4	-0.002836	4.73419	10.6229	19.3212
 175	1	3	-0.349559	2.90662	9.70188	19.571
 176	1	2	0.015925	4.53524	8.80097	21.2046
 177	1	1	0.230077	4.29949	9.62037	19.2132
 178	1	2	0.052641	4.69947	8.12679	17.6567
 179	1	4	-0.023623	2.41485	8.57022	17.2113
 180	1	1	-0.072969	0.657987	10.3246	18.9637
 181	1	2	0.031276	-1.97222	11.1135	19.6082
 182	1	2	0.023309	-2.37536	11.8289	18.0332
 183	1	2	0.030094	-2.03957	10.09	18.1555
 184	1	5	0.077888	2.34303	11.6793	19.2136
 185	1	1	0.09092	-0.25857	11.3567	18.2707
 186	1	2	0.047821	0.470083	9.32554	18.5515
 187	1	2	0.068339	0.412047	10.2816	20.0317
 188	1	1	-0.129023	-1.75169	11.0779	18.5339
 189	1	2	-0.006475	-0.014905	12.3639	18.6327
 190	1	2	-0.010814	-0.0773616	11.35	17.1883
 191	1	1	-0.019372	4.99287	8.66757	20.2157
 192	1	2	0.00686	4.8225	7.62078	19.9323
 193	1	1	-0.084968	2.09699	9.65462	13.151
 194	1	1	0.309483	1.06233	8.77767	12.4092
 195	1	2	-0.002	1.99446	10.7038	12.8445
 196	1	3	-0.436564	-0.189605	8.89423	13.1122
 197	1	1	0.15357	-0.189158	8.41891	14.4756
 198	1	4	-0.002836	1.39304	10.4529	15.0383
 199	1	3	-0.349559	1.15222	8.39268	15.0014
 200	1	2	0.015925	3.81694	8.56463	15.098
 201	1	1	0.230077	1.93217	9.56235	14.6896
 202	1	2	0.052641	3.10342	9.33732	12.8522
 203	1	4	-0.023623	1.40439	7.73485	12.4435
 204	1	1	-0.072969	-0.756477	6.98313	14.4923
 205	1	2	0.031276	-2.63949	7.27486	16.5705
 206	1	2	0.023309	-1.65758	6.58111	17.8788
 207	1	2	0.030094	-1.16371	8.10431	17.1207
 208	1	5	0.077888	-0.816275	9.08304	15.0844
 209	1	1	0.09092	-0.78197	6.33166	15.8957
 210	1	2	0.047821	-1.77582	7.0013	14.0871
 211	1	2	0.068339	-0.162438	6.35283	13.8197
 212	1	1	-0.129023	-1.61269	7.1237	16.9263
 213	1	2	-0.006475	-1.19998	5.32094	15.8065
 214	1	2	-0.010814	0.242298	6.21252	16.2711
 215	1	1	-0.019372	3.2815	9.46171	15.4349
 216	1	2	0.00686	3.90891	10.3249	15.1771
 217	1	1	-0.084968	-1.31248	7.90047	10.3563
 218	1	1	0.309483	-1.89745	6.8223	9.42598
 219	1	2	-0.002	-1.49892	7.61375	11.3969
 220	1	3	-0.436564	-1.56326	7.1688	8.06329
 221	1	1	0.15357	-0.186584	7.48183	7.75397
 222	1	4	-0.002836	0.718267	7.132	10.2751
 223	1	3	-0.349559	0.339349	8.42937	8.70382
 224	1	2	0.015925	1.85875	9.39035	10.497
 225	1	1	0.230077	0.194747	8.07862	10.0897
 226	1	2	0.052641	-1.83296	8.85083	10.1845
 227	1	4	-0.023623	-2.98834	6.83417	9.54256
 228	1	1	-0.072969	-0.156662	8.11922	6.34951
 229	1	2	0.031276	3.23759	7.82375	5.42864
 230	1	2	0.023309	2.46625	7.00167	6.79716
 231	1	2	0.030094	1.93913	6.6526	5.13286
 232	1	5	0.077888	0.417941	6.56625	7.77017
 233	1	1	0.09092	1.24668	8.58418	5.89073
 234	1	2	0.047821	-0.555085	7.40042	5.62319
 235	1	2	0.068339	-0.835419	8.981	6.34059
 236	1	1	-0.129023	2.28196	7.44296	5.81007
 237	1	2	-0.006475	1.1563	9.04727	4.89993
 238	1	2	-0.010814	1.62088	9.36558	6.56425
 239	1	1	-0.019372	0.87127	9.18647	10.9308
 240	1	2	0.00686	0.299046	10.1213	10.8658
 241	1	1	-0.084968	-2.5995	4.16619	7.82372
 242	1	1	0.309483	-3.51241	2.95449	7.55755
 243	1	2	-0.002	-3.07556	5.07477	7.43547
 244	1	3	-0.436564	-2.88445	1.78396	8.1112
 245	1	1	0.15357	-2.54997	1.84055	9.51029
 246	1	4	-0.002836	-3.33318	4.44456	9.84106
 247	1	3	-0.349559	-1.80373	3.03779	9.79771
 248	1	2	0.015925	-1.25125	5.31842	10.8499
 249	1	1	0.230077	-2.36949	4.27997	9.34148
 250	1	2	0.052641	-1.63399	4.04815	7.31893
 251	1	4	-0.023623	-4.46559	3.12312	8.07545
 252	1	1	-0.072969	-1.64329	0.641029	9.84573
 253	1	2	0.031276	-0.549626	-1.91348	9.39308
 254	1	2	0.023309	-1.09737	-1.82764	11.0838
 255	1	2	0.030094	-1.96359	-2.85175	9.91834
 256	1	5	0.077888	-3.46504	1.81883	10.1168
 257	1	1	0.09092	-2.3578	-0.717914	9.68109
 258	1	2	0.047821	-0.755894	0.670288	9.20054
 259	1	2	0.068339	-1.29044	0.741407	10.8795
 260	1	1	-0.129023	-1.43456	-1.89869	10.0419
 261	1	2	-0.006475	-3.24774	-0.745404	10.3228
 262	1	2	-0.010814	-2.70204	-0.838193	8.64603
 263	1	1	-0.019372	-1.3891	5.3957	9.76366
 264	1	2	0.00686	-0.403698	5.21297	9.31775
 265	1	1	-0.084968	-2.99382	1.57486	3.91341
 266	1	1	0.309483	-1.71384	1.24483	3.12384
 267	1	2	-0.002	-3.54612	0.651996	4.13286
 268	1	3	-0.436564	-0.99156	2.46877	2.90678
 269	1	1	0.15357	-0.668621	3.23037	4.08523
 270	1	4	-0.002836	-1.95399	1.59498	5.80008
 271	1	3	-0.349559	-1.8578	3.45658	4.86323
 272	1	2	0.015925	-4.3051	3.56417	5.62273
 273	1	1	0.230077	-2.59458	2.27432	5.22348
 274	1	2	0.052641	-3.65377	2.22683	3.32866
 275	1	4	-0.023623	-1.0998	0.567575	3.73155
 276	1	1	-0.072969	-0.118325	4.60302	3.652
 277	1	2	0.031276	2.10889	2.76733	3.68624
 278	1	2	0.023309	3.22937	3.84686	2.83858
 279	1	2	0.030094	2.5855	4.31471	4.42603
 280	1	5	0.077888	0.0684705	2.68872	4.69222
 281	1	1	0.09092	1.15643	4.52249	2.77917
 282	1	2	0.047821	-0.897168	5.14076	3.09676
 283	1	2	0.068339	0.0931595	5.19533	4.54942
 284	1	1	-0.129023	2.33892	3.81957	3.47878
 285	1	2	-0.006475	0.932745	4.00432	1.83811
 286	1	2	-0.010814	1.46148	5.54107	2.50781
 287	1	1	-0.019372	-3.82524	2.68276	6.06727
 288	1	2	0.00686	-4.56912	1.87664	6.02538
 289	1	1	-0.084968	-1.47356	2.14443	-0.204232
 290	1	1	0.309483	-2.09914	2.86332	-1.41515
 291	1	2	-0.002	-0.890629	2.86278	0.383519
 292	1	3	-0.436564	-2.91898	1.89884	-2.09681
 293	1	1	0.15357	-3.98011	1.34021	-1.30967
 294	1	4	-0.002836	-3.18968	2.26896	1.1222
 295	1	3	-0.349559	-3.3982	0.672627	-0.177523
 296	1	2	0.015925	-2.69186	-0.271508	1.94744
 297	1	1	0.230077	-2.56672	1.48764	0.669767
 298	1	2	0.052641	-0.776842	1.37525	-0.560004
 299	1	4	-0.023623	-2.71617	3.70043	-1.06422
 300	1	1	-0.072969	-4.72886	0.312985	-2.18273
 301	1	2	0.031276	-7.26587	-0.941817	-0.0684938
 302	1	2	0.023309	-5.62198	-1.57794	-0.288079
 303	1	2	0.030094	-5.8746	0.00801922	0.480315
 304	1	5	0.077888	-4.65959	2.1388	-0.982621
 305	1	1	0.09092	-6.16471	0.0096945	-1.69378
 306	1	2	0.047821	-4.79145	0.700971	-3.2073
 307	1	2	0.068339	-4.14785	-0.616101	-2.2352
 308	1	1	-0.129023	-6.23153	-0.665828	-0.307989
 309	1	2	-0.006475	-6.74804	0.939233	-1.67219
 310	1	2	-0.010814	-6.65095	-0.647095	-2.42621
 311	1	1	-0.019372	-1.99266	0.555906	1.76867
 312	1	2	0.00686	-1.06679	0.0889449	1.40927
 313	1	1	-0.084968	-2.41295	3.49492	-4.5779
 314	1	1	0.309483	-2.73743	4.44254	-5.74574
 315	1	2	-0.002	-1.90551	2.58945	-4.93229
 316	1	3	-0.436564	-3.34962	5.62321	-5.18704
 317	1	1	0.15357	-2.62884	6.30675	-4.13891
 318	1	4	-0.002836	-0.607509	4.56581	-4.12678
 319	1	3	-0.349559	-2.20856	5.38651	-3.10969
 320	1	2	0.015925	-0.431893	2.53046	-2.76623
 321	1	1	0.230077	-1.50003	4.2303	-3.58232
 322	1	2	0.052641	-3.35409	3.1978	-4.1032
 323	1	4	-0.023623	-1.80439	4.71561	-6.2553
 324	1	1	-0.072969	-3.55885	7.36629	-3.51219
 325	1	2	0.031276	-5.2007	8.44251	-1.49432
 326	1	2	0.023309	-6.07068	8.56178	-3.04234
 327	1	2	0.030094	-6.62231	7.42098	-1.79725
 328	1	5	0.077888	-1.7444	6.79435	-4.56941
 329	1	1	0.09092	-4.82796	6.77145	-2.85578
 330	1	2	0.047821	-2.9937	7.93487	-2.76341
 331	1	2	0.068339	-3.8541	8.07796	-4.29274
 332	1	1	-0.129023	-5.73449	7.8678	-2.26163
 333	1	2	-0.006475	-5.40131	6.19947	-3.5963
 334	1	2	-0.010814	-4.54588	6.07303	-2.05765
 335	1	1	-0.019372	-1.00724	3.38276	-2.3826
 336	1	2	0.00686	-0.296666	3.99302	-1.81024
 337	1	1	-0.084968	-4.29579	1.9059	-8.36041
 338	1	1	0.309483	-3.86741	0.478611	-8.7545
 339	1	2	-0.002	-5.34726	1.91079	-8.04549
 340	1	3	-0.436564	-2.46489	0.515013	-9.07129
 341	1	1	0.15357	-1.58873	1.0385	-8.05865
 342	1	4	-0.002836	-3.5311	1.73762	-6.35447
 343	1	3	-0.349559	-2.03363	2.34804	-7.66019
 344	1	2	0.015925	-3.75415	4.50741	-7.65835
 345	1	1	0.230077	-3.39958	2.40739	-7.21416
 346	1	2	0.052641	-4.2043	2.57497	-9.22563
 347	1	4	-0.023623	-4.03674	-0.193073	-7.90288
 348	1	1	-0.072969	-0.16215	1.13607	-8.636
 349	1	2	0.031276	2.04316	2.50701	-9.73583
 350	1	2	0.023309	1.75578	1.03209	-10.6903
 351	1	2	0.030094	1.41489	2.62757	-11.3935
 352	1	5	0.077888	-1.59263	0.370852	-7.18694
 353	1	1	0.09092	-0.068142	1.97222	-9.9341
 354	1	2	0.047821	0.499561	1.56649	-7.87435
 355	1	2	0.068339	0.202963	0.121401	-8.83305
 356	1	1	-0.129023	1.37579	2.03763	-10.4694
 357	1	2	-0.006475	-0.711497	1.5377	-10.7097
 358	1	2	-0.010814	-0.428659	2.99209	-9.74945
 359	1	1	-0.019372	-3.73113	3.85303	-6.77757
 360	1	2	0.00686	-4.74316	3.86276	-6.35196
 361	1	1	-0.084968	-5.34806	-2.06527	-11.4079
 362	1	1	0.309483	-4.58021	-2.78573	-12.5371
 363	1	2	-0.002	-6.07393	-2.75022	-10.9504
 364	1	3	-0.436564	-3.62564	-3.67047	-11.9181
 365	1	1	0.15357	-2.6389	-3.03225	-11.077
 366	1	4	-0.002836	-4.54442	-2.12806	-9.39555
 367	1	3	-0.349559	-3.0366	-1.68691	-10.7519
 368	1	2	0.015925	-4.42323	0.574958	-10.8582
 369	1	1	0.230077	-4.39562	-1.53288	-10.306
 370	1	2	0.052641	-5.92725	-1.24432	-11.8479
 371	1	4	-0.023623	-4.05093	-2.03076	-13.1324
 372	1	1	-0.072969	-1.30416	-2.96787	-11.8483
 373	1	2	0.031276	-0.693232	-2.79189	-9.01648
 374	1	2	0.023309	0.374444	-3.96902	-9.82102
 375	1	2	0.030094	1.02237	-2.41613	-9.25252
 376	1	5	0.077888	-2.51773	-3.6186	-10.1574
 377	1	1	0.09092	-0.165172	-2.25744	-11.0765
 378	1	2	0.047821	-0.988639	-3.98877	-12.0961
 379	1	2	0.068339	-1.46625	-2.44805	-12.8006
 380	1	1	-0.129023	0.150569	-2.90072	-9.70918
 381	1	2	-0.006475	0.742177	-2.27697	-11.6934
 382	1	2	-0.010814	-0.416404	-1.19964	-10.9298
 383	1	1	-0.019372	-4.65577	-0.0415992	-9.97985
 384	1	2	0.00686	-5.72754	0.0878024	-9.78078
 385	1	1	-0.084968	-5.7545	-4.8987	-15.6467
 386	1	1	0.309483	-5.04494	-5.26127	-16.9659
 387	1	2	-0.002	-6.10346	-5.81062	-15.1454
 388	1	3	-0.436564	-4.48685	-4.06239	-17.5282
 389	1	1	0.15357	-3.6385	-3.26761	-16.6877
 390	1	4	-0.002836	-3.95867	-4.76512	-14.4356
 391	1	3	-0.349559	-4.30965	-2.97764	-15.4505
 392	1	2	0.015925	-6.36348	-2.97565	-13.7549
 393	1	1	0.230077	-4.79847	-4.11861	-14.7221
 394	1	2	0.052641	-6.63678	-4.28293	-15.8635
 395	1	4	-0.023623	-4.22269	-5.95152	-16.7434
 396	1	1	-0.072969	-3.34538	-1.94881	-17.4324
 397	1	2	0.031276	-5.21714	0.661862	-18.8548
 398	1	2	0.023309	-3.5935	0.766522	-18.1388
 399	1	2	0.030094	-3.86356	-0.211082	-19.6022
 400	1	5	0.077888	-2.70452	-3.80792	-16.4849
 401	1	1	0.09092	-4.61684	-1.13131	-17.7681
 402	1	2	0.047821	-2.66444	-1.33721	-16.8278
 403	1	2	0.068339	-2.81505	-2.18943	-18.3617
 404	1	1	-0.129023	-4.30069	0.0968496	-18.6439
 405	1	2	-0.006475	-5.34251	-1.75925	-18.299
 406	1	2	-0.010814	-5.10004	-0.797448	-16.8411
 407	1	1	-0.019372	-5.51467	-3.60367	-13.4548
 408	1	2	0.00686	-5.93058	-4.45137	-12.8947
 409	1	1	-0.084968	-6.3194	-6.60342	-20.4588
 410	1	1	0.309483	-5.99668	-6.18848	-21.9134
 411	1	2	-0.002	-6.0044	-7.63435	-20.2598
 412	1	3	-0.436564	-6.42197	-4.81837	-22.0886
 413	1	1	0.15357	-5.96793	-3.84663	-21.1176
 414	1	4	-0.002836	-4.57561	-5.63367	-19.6089
 415	1	3	-0.349559	-6.20324	-4.32777	-19.7846
 416	1	2	0.015925	-7.03812	-5.63673	-17.7954
 417	1	1	0.230077	-5.66375	-5.62375	-19.4707
 418	1	2	0.052641	-7.40758	-6.58064	-20.3199
 419	1	4	-0.023623	-6.59336	-6.82376	-22.5798
 420	1	1	-0.072969	-6.78415	-2.55125	-21.2829
 421	1	2	0.031276	-7.02409	0.192067	-21.8334
 422	1	2	0.023309	-6.93894	0.0726145	-23.604
 423	1	2	0.030094	-8.29847	-0.666019	-22.7306
 424	1	5	0.077888	-4.89712	-3.64361	-21.247
 425	1	1	0.09092	-6.42285	-1.77898	-22.5685
 426	1	2	0.047821	-7.85412	-2.79511	-21.2841
 427	1	2	0.068339	-6.60519	-1.9058	-20.4144
 428	1	1	-0.129023	-7.2204	-0.465024	-22.6902
 429	1	2	-0.006475	-5.34948	-1.54953	-22.5685
 430	1	2	-0.010814	-6.62024	-2.40416	-23.4485
 431	1	1	-0.019372	-5.99987	-5.93553	-17.9908
 432	1	2	0.00686	-5.96134	-7.02007	-17.8277
 433	1	1	-0.084968	-2.67385	-8.03802	-22.9744
 434	1	1	0.309483	-1.73855	-9.06298	-22.28
 435	1	2	-0.002	-3.0199	-8.41857	-23.9439
 436	1	3	-0.436564	-2.49989	-9.83474	-21.3267
 437	1	1	0.15357	-3.1235	-9.08288	-20.2645
 438	1	4	-0.002836	-4.67599	-8.47424	-22.2765
 439	1	3	-0.349559	-3.4793	-7.76658	-20.7261
 440	1	2	0.015925	-3.88769	-5.55253	-21.8808
 441	1	1	0.230077	-3.90694	-7.71076	-22.0978
 442	1	2	0.052641	-2.10164	-7.12526	-23.1807
 443	1	4	-0.023623	-0.966987	-8.5121	-21.7272
 444	1	1	-0.072969	-2.13056	-8.94844	-19.0898
 445	1	2	0.031276	-1.58007	-9.07825	-16.3169
 446	1	2	0.023309	-0.767216	-7.64963	-16.9988
 447	1	2	0.030094	-2.1605	-7.44767	-15.9153
 448	1	5	0.077888	-4.02447	-9.61478	-19.9322
 449	1	1	0.09092	-2.69494	-8.10411	-17.9263
 450	1	2	0.047821	-1.88256	-9.95263	-18.7241
 451	1	2	0.068339	-1.19576	-8.49644	-19.4419
 452	1	1	-0.129023	-1.74112	-8.06906	-16.7164
 453	1	2	-0.006475	-2.86804	-7.07632	-18.2685
 454	1	2	-0.010814	-3.66476	-8.50939	-17.6106
 455	1	1	-0.019372	-4.51241	-6.31373	-22.3641
 456	1	2	0.00686	-4.47082	-6.1078	-23.4414
 457	1	1	-0.084968	1.10135	-10.6007	-24.5026
 458	1	1	0.309483	2.42336	-9.97948	-24.9956
 459	1	2	-0.002	1.28663	-11.4279	-23.8074
 460	1	3	-0.436564	2.07638	-8.89582	-25.8792
 461	1	1	0.15357	1.23581	-7.86946	-25.3073
 462	1	4	-0.002836	0.895106	-9.13698	-22.9352
 463	1	3	-0.349559	0.0556383	-8.45387	-24.7139
 464	1	2	0.015925	-1.7052	-10.3348	-24.0643
 465	1	1	0.230077	0.29785	-9.51432	-23.7759
 466	1	2	0.052641	0.529029	-10.9971	-25.351
 467	1	4	-0.023623	2.96736	-9.57604	-24.1317
 468	1	1	-0.072969	0.798992	-6.92019	-26.4384
 469	1	2	0.031276	0.416535	-4.3398	-27.5279
 470	1	2	0.023309	-1.04737	-5.3078	-27.8243
 471	1	2	0.030094	-1.08814	-3.96757	-26.659
 472	1	5	0.077888	1.8002	-7.31752	-24.5439
 473	1	1	0.09092	-0.0621869	-5.74571	-25.9223
 474	1	2	0.047821	1.69321	-6.52468	-26.9363
 475	1	2	0.068339	0.23784	-7.48975	-27.1897
 476	1	1	-0.129023	-0.468696	-4.78238	-27.0541
 477	1	2	-0.006475	-0.970662	-6.13016	-25.4414
 478	1	2	-0.010814	0.495634	-5.18968	-25.1578
 479	1	1	-0.019372	-1.04121	-10.0562	-23.2361
 480	1	2	0.00686	-0.831875	-10.9815	-22.683
 481	1	1	-0.084968	4.68856	-13.1928	-25.4998
 482	1	1	0.309483	4.70902	-14.4566	-24.6182
 483	1	2	-0.002	4.49281	-13.4622	-26.5456
 484	1	3	-0.436564	4.92414	-14.0545	-23.2512
 485	1	1	0.15357	3.98646	-13.1027	-22.7169
 486	1	4	-0.002836	2.62567	-12.8534	-24.993
 487	1	3	-0.349559	3.88076	-11.9707	-23.5969
 488	1	2	0.015925	4.321	-10.4846	-25.9257
 489	1	1	0.230077	3.56525	-12.2862	-24.9637
 490	1	2	0.052641	5.65617	-12.6771	-25.4557
 491	1	4	-0.023623	3.72661	-14.9374	-24.7011
 492	1	1	-0.072969	4.47502	-12.6234	-21.3345
 493	1	2	0.031276	7.23499	-10.9073	-20.0099
 494	1	2	0.023309	5.5325	-10.7348	-19.5331
 495	1	2	0.030094	6.37489	-12.2826	-19.2853
 496	1	5	0.077888	3.00248	-13.5796	-22.6178
 497	1	1	0.09092	5.83502	-11.8867	-21.368
 498	1	2	0.047821	3.71428	-11.9603	-20.9043
 499	1	2	0.068339	4.54939	-13.4917	-20.6687
 500	1	1	-0.129023	6.26926	-11.4256	-19.9624
 501	1	2	-0.006475	6.60811	-12.5454	-21.7835
 502	1	2	-0.010814	5.77163	-11.0092	-22.024
 503	1	1	-0.019372	3.35288	-10.969	-25.746
 504	1	2	0.00686	2.92559	-11.2046	-26.7294
 505	1	1	-0.084968	4.45718	-17.6606	-25.139
 506	1	1	0.309483	4.19681	-19.0086	-24.4377
 507	1	2	-0.002	3.52274	-17.0939	-25.2237
 508	1	3	-0.436564	5.46116	-19.6681	-24.231
 509	1	1	0.15357	6.49988	-18.9042	-23.5831
 510	1	4	-0.002836	5.10802	-16.6827	-23.3183
 511	1	3	-0.349559	6.68363	-17.6399	-24.2507
 512	1	2	0.015925	6.7797	-15.1127	-24.636
 513	1	1	0.230077	5.4888	-16.849	-24.3348
 514	1	2	0.052641	4.83232	-17.8366	-26.1552
 515	1	4	-0.023623	3.72438	-18.8199	-23.4653
 516	1	1	-0.072969	7.82686	-19.6988	-23.6028
 517	1	2	0.031276	8.5487	-20.1996	-27.0297
 518	1	2	0.023309	7.30404	-19.106	-26.4016
 519	1	2	0.030094	9.01889	-18.8142	-26.0208
 520	1	5	0.077888	6.21172	-18.7084	-22.5418
 521	1	1	0.09092	8.13488	-20.4775	-24.9075
 522	1	2	0.047821	8.65594	-19.0135	-23.3861
 523	1	2	0.068339	7.80258	-20.4168	-22.7746
 524	1	1	-0.129023	8.25824	-19.5915	-26.1642
 525	1	2	-0.006475	9.07984	-21.0185	-24.7701
 526	1	2	-0.010814	7.36789	-21.244	-25.0762
 527	1	1	-0.019372	5.80544	-15.481	-24.9833
 528	1	2	0.00686	5.87448	-15.5922	-26.0732
 529	1	1	-0.084968	1.0818	-20.3525	-26.5075
 530	1	1	0.309483	-0.38395	-20.2931	-26.0551
 531	1	2	-0.002	1.15343	-20.1271	-27.5794
 532	1	3	-0.436564	-0.341384	-20.56	-24.6487
 533	1	1	0.15357	0.271187	-19.5409	-23.8428
 534	1	4	-0.002836	2.18978	-18.5296	-26.3918
 535	1	3	-0.349559	1.26935	-18.7874	-24.5717
 536	1	2	0.015925	3.1321	-20.8833	-24.6808
 537	1	1	0.230077	1.96273	-19.3593	-25.7113
 538	1	2	0.052641	1.45396	-21.3765	-26.3756
 539	1	4	-0.023623	-0.798875	-19.2964	-26.2549
 540	1	1	-0.072969	0.906807	-20.215	-22.6109
 541	1	2	0.031276	-0.336274	-21.8268	-19.7478
 542	1	2	0.023309	1.12152	-22.2578	-20.6671
 543	1	2	0.030094	1.02569	-20.6893	-19.8308
 544	1	5	0.077888	-0.501004	-18.836	-23.5079
 545	1	1	0.09092	-0.165532	-20.7968	-21.6621
 546	1	2	0.047821	1.58271	-21.0164	-22.9316
 547	1	2	0.068339	1.51084	-19.4767	-22.0693
 548	1	1	-0.129023	0.451662	-21.4307	-20.4006
 549	1	2	-0.006475	-0.859187	-20.0011	-21.3611
 550	1	2	-0.010814	-0.757983	-21.5562	-22.1883
 551	1	1	-0.019372	3.31198	-19.9725	-25.2643
 552	1	2	0.00686	3.86549	-20.2828	-26.1605
 553	1	1	-0.084968	-3.36904	-20.9029	-25.2145
 554	1	1	0.309483	-3.31844	-22.2417	-24.4524
 555	1	2	-0.002	-2.84534	-20.1167	-24.6587
 556	1	3	-0.436564	-4.03526	-23.2167	-25.2318
 557	1	1	0.15357	-3.59414	-23.4003	-26.5912
 558	1	4	-0.002836	-2.96768	-20.1371	-27.183
 559	1	3	-0.349559	-3.51254	-22.1304	-27.277
 560	1	2	0.015925	-1.02424	-22.3516	-26.2977
 561	1	1	0.230077	-2.78305	-21.0676	-26.6318
 562	1	2	0.052641	-4.40797	-20.5681	-25.3117
 563	1	4	-0.023623	-2.27253	-22.5558	-24.3502
 564	1	1	-0.072969	-4.63921	-24.2783	-27.3076
 565	1	2	0.031276	-2.89844	-26.1872	-28.4047
 566	1	2	0.023309	-2.82256	-25.5352	-30.0552
 567	1	2	0.030094	-2.12123	-24.6147	-28.7127
 568	1	5	0.077888	-2.61428	-23.894	-26.5928
 569	1	1	0.09092	-4.31162	-24.5607	-28.7932
 570	1	2	0.047821	-4.73208	-25.231	-26.7717
 571	1	2	0.068339	-5.61769	-23.786	-27.2448
 572	1	1	-0.129023	-2.95514	-25.2671	-28.9997
 573	1	2	-0.006475	-5.10602	-25.19	-29.2141
 574	1	2	-0.010814	-4.32255	-23.6234	-29.3641
 575	1	1	-0.019372	-1.26227	-21.3709	-26.7278
 576	1	2	0.00686	-0.998028	-21.4295	-27.7916
 577	1	1	-0.084968	-6.22671	-23.3421	-22.8416
 578	1	1	0.309483	-7.75632	-23.1171	-22.7857
 579	1	2	-0.002	-5.98876	-24.0328	-23.6596
 580	1	3	-0.436564	-8.09006	-21.7269	-22.5448
 581	1	1	0.15357	-7.23164	-20.8677	-21.7548
 582	1	4	-0.002836	-5.82223	-21.5001	-23.9252
 583	1	3	-0.349559	-5.83913	-21.2256	-21.8665
 584	1	2	0.015925	-3.47738	-21.3083	-22.5142
 585	1	1	0.230077	-5.4792	-22.0084	-23.0161
 586	1	2	0.052641	-5.8843	-23.8195	-21.915
 587	1	4	-0.023623	-8.16379	-23.3658	-23.7732
 588	1	1	-0.072969	-7.61385	-20.9243	-20.2575
 589	1	2	0.031276	-10.8348	-19.4759	-20.2543
 590	1	2	0.023309	-9.27935	-18.6251	-20.1406
 591	1	2	0.030094	-9.7167	-19.5007	-21.6288
 592	1	5	0.077888	-7.3642	-19.8404	-22.1177
 593	1	1	0.09092	-9.12989	-20.8029	-19.9658
 594	1	2	0.047821	-7.23603	-21.8543	-19.8173
 595	1	2	0.068339	-7.0911	-20.1101	-19.7411
 596	1	1	-0.129023	-9.77468	-19.5215	-20.5335
 597	1	2	-0.006475	-9.65965	-21.677	-20.3619
 598	1	2	-0.010814	-9.27929	-20.8209	-18.8788
 599	1	1	-0.019372	-3.935	-22.1597	-23.0347
 600	1	2	0.00686	-3.64199	-23.0509	-22.465
 601	1	1	-0.084968	-9.05576	-26.377	-20.9598
 602	1	1	0.309483	-9.6804	-27.6654	-21.5353
 603	1	2	-0.002	-8.30685	-26.6321	-20.1995
 604	1	3	-0.436564	-8.96744	-28.0775	-22.7207
 605	1	1	0.15357	-8.84849	-27.1072	-23.7869
 606	1	4	-0.002836	-7.33993	-25.7945	-22.1398
 607	1	3	-0.349559	-9.05906	-25.7687	-23.2993
 608	1	2	0.015925	-9.54076	-23.7021	-21.6983
 609	1	1	0.230077	-8.39529	-25.5055	-22.0523
 610	1	2	0.052641	-9.84402	-25.8126	-20.4466
 611	1	4	-0.023623	-9.65453	-28.4607	-20.7803
 612	1	1	-0.072969	-9.85605	-27.4059	-24.9209
 613	1	2	0.031276	-12.1451	-26.7408	-26.4309
 614	1	2	0.023309	-12.0994	-28.507	-26.2166
 615	1	2	0.030094	-13.3338	-27.5403	-25.381
 616	1	5	0.077888	-7.83225	-27.1752	-24.1964
 617	1	1	0.09092	-11.3438	-27.3815	-24.4993
 618	1	2	0.047821	-9.69816	-26.6716	-25.7207
 619	1	2	0.068339	-9.62018	-28.3876	-25.3491
 620	1	1	-0.129023	-12.2864	-27.5534	-25.707
 621	1	2	-0.006475	-11.5406	-28.1896	-23.7841
 622	1	2	-0.010814	-11.5784	-26.4349	-23.9962
 623	1	1	-0.019372	-8.48413	-23.9961	-21.7404
 624	1	2	0.00686	-8.06197	-23.8143	-20.7451
 625	1	2	0	-2.33388	14.3127	32.1963
 626	1	4	0	-10.7303	-27.4716	-21.7834

Velocities

   1	0.000187028	-0.000119331	6.69745e-05
   2	4.11357e-05	2.43159e-05	7.36767e-05
   3	0.000301178	-0.000265233	0.000147514
   4	-3.10751e-05	2.80139e-05	2.33641e-05
   5	-6.25082e-06	3.00465e-05	4.17552e-05
   6	-0.00012214	-0.000215329	0.000157414
   7	-7.71965e-05	6.52984e-05	4.77341e-05
   8	-0.000616266	0.000211648	6.49475e-05
   9	-8.24172e-06	-6.58665e-05	6.41313e-05
  10	0.000267645	-9.50722e-05	-0.000145204
  11	0.000102731	0.00016643	0.000117765
  12	1.27521e-05	-9.94252e-06	2.64045e-05
  13	0.000191847	0.000262722	-0.000182693
  14	-0.000221034	-0.000192199	0.000105264
  15	0.00013402	-0.000350876	-0.000442594
  16	-1.37237e-06	1.01376e-05	-7.37982e-06
  17	6.6797e-06	-8.0563e-05	-0.000121
  18	6.32091e-05	-0.000133009	7.95994e-05
  19	3.52879e-05	6.78566e-05	4.39261e-05
  20	-2.29599e-06	-9.35327e-05	-0.000154989
  21	-3.57931e-05	-0.000181034	-9.5074e-05
  22	5.38676e-05	-5.34078e-05	-0.00018517
  23	-0.000105678	9.31477e-05	1.89603e-05
  24	8.73344e-05	0.000403487	-0.000276862
  25	-0.00014647	5.76857e-05	-1.76468e-08
  26	3.63722e-05	6.34474e-05	0.000130721
  27	-0.000170834	-7.59995e-05	-0.000224661
  28	1.1294e-05	9.30159e-05	0.000245489
  29	-3.19401e-05	0.000102577	0.000147742
  30	1.78203e-06	-1.64396e-05	6.59774e-05
  31	-2.36201e-05	0.000134051	0.000171145
  32	-0.000443523	0.000248591	4.30901e-05