pySIMM System Object

818 atoms
851 bonds
1700 angles
2541 dihedrals
0 impropers

5 atom types
5 bond types
11 angle types
8 dihedral types

-124.904343 124.904343 xlo xhi
-124.904343 124.904343 ylo yhi
-124.904343 124.904343 zlo zhi

Masses

   1	12.01	# c3
   2	1.008	# hc
   3	16.0	# os
   4	1.008	# h1
   5	1.008	# h2

Pair Coeffs

   1	0.1094	3.3996695084235347	# c3
   2	0.0157	2.649532787749369	# hc
   3	0.17	3.0000123434657784	# os
   4	0.0157	2.471353044121301	# h1
   5	0.0157	2.2931733004932333	# h2

Bond Coeffs

   1	330.6	1.0969	# c3,h1
   2	308.6	1.4316	# c3,os
   3	330.6	1.0969	# c3,hc
   4	300.9	1.5375	# c3,c3
   5	331.7	1.0961	# c3,h2

Angle Coeffs

   1	62.7	112.48	# c3,os,c3
   2	50.85	109.58	# h2,c3,os
   3	68.0	107.97	# c3,c3,os
   4	72.74	108.29	# os,c3,os
   5	46.34	109.8	# c3,c3,hc
   6	46.25	110.22	# c3,c3,h2
   7	50.8	109.78	# h1,c3,os
   8	46.39	109.56	# c3,c3,h1
   9	39.4	107.58	# hc,c3,hc
  10	39.24	108.46	# h1,c3,h1
  11	62.86	111.51	# c3,c3,c3

Dihedral Coeffs

   1	3	0.18	3	0	0.25	2	180	0.2	1	180	# c3,c3,c3,c3
   2	2	0.0	3	0	0.25	1	0	# hc,c3,c3,os
   3	1	0.3833333333333333	3	0	# X,c3,os,X
   4	1	0.15	3	0	# hc,c3,c3,hc
   5	2	0.383	3	0	0.1	2	180	# c3,c3,os,c3
   6	1	0.16	3	0	# hc,c3,c3,c3
   7	3	0.1	3	0	0.85	2	180	1.35	1	180	# c3,os,c3,os
   8	1	0.15555555555555556	3	0	# X,c3,c3,X

Atoms

   1	1	1	-0.084968	23.2897	7.9185	36.1454
   2	1	1	0.309483	23.8461	7.50641	37.5231
   3	1	2	-0.002	22.7798	7.07266	35.6676
   4	1	3	-0.436564	24.4219	8.67474	38.1356
   5	1	1	0.15357	23.5442	9.80532	38.2858
   6	1	4	-0.002836	21.4433	8.73987	36.9249
   7	1	3	-0.349559	22.9724	10.1486	37.0093
   8	1	2	0.015925	21.0755	10.4509	35.1429
   9	1	1	0.230077	22.2969	9.0806	36.3245
  10	1	2	0.052641	24.1127	8.22717	35.4885
  11	1	4	-0.023623	23.023	7.1397	38.1497
  12	1	1	-0.072969	24.3888	10.9925	38.7901
  13	1	2	0.031276	21.6977	11.4311	39.7472
  14	1	2	0.023309	22.878	11.7957	41.0297
  15	1	2	0.030094	21.9743	13.109	40.2467
  16	1	5	0.077888	22.7485	9.56142	39.0015
  17	1	1	0.09092	23.5783	12.2905	39.0154
  18	1	2	0.047821	24.8809	10.7076	39.7284
  19	1	2	0.068339	25.1873	11.1912	38.0646
  20	1	1	-0.129023	22.4652	12.1431	40.0743
  21	1	2	-0.006475	24.2666	13.0829	39.336
  22	1	2	-0.010814	23.1372	12.6259	38.0682
  23	1	1	-0.019372	21.7802	9.62625	34.9787
  24	1	2	0.00686	22.6078	9.99805	34.3611
  25	1	1	-0.084968	25.607	4.03715	36.8369
  26	1	1	0.309483	25.0571	2.72378	36.2532
  27	1	2	-0.002	26.4837	4.36695	36.2646
  28	1	3	-0.436564	23.8851	2.3739	37.0129
  29	1	1	0.15357	22.8344	3.35806	37.0034
  30	1	4	-0.002836	24.2541	5.30721	35.7365
  31	1	3	-0.349559	23.3498	4.61566	37.4778
  32	1	2	0.015925	25.307	6.22324	38.4732
  33	1	1	0.230077	24.5093	5.11582	36.7865
  34	1	2	0.052641	25.9284	3.87724	37.8741
  35	1	4	-0.023623	24.7755	2.90008	35.2073
  36	1	1	-0.072969	21.7078	2.91253	37.9558
  37	1	2	0.031276	19.0505	2.01055	38.2989
  38	1	2	0.023309	19.3766	0.28848	38.0123
  39	1	2	0.030094	20.0966	1.10268	39.4179
  40	1	5	0.077888	22.4451	3.47725	35.9834
  41	1	1	0.09092	21.047	1.59029	37.5102
  42	1	2	0.047821	22.1081	2.80176	38.9716
  43	1	2	0.068339	20.9486	3.70319	37.9939
  44	1	1	-0.129023	19.8175	1.22869	38.3642
  45	1	2	-0.006475	20.7448	1.66285	36.4574
  46	1	2	-0.010814	21.7757	0.776406	37.5847
  47	1	1	-0.019372	24.958	6.43461	37.4542
  48	1	2	0.00686	25.8179	6.83857	36.904
  49	1	1	-0.084968	24.6933	-0.58137	36.6538
  50	1	1	0.309483	23.4005	-1.00237	35.9337
  51	1	2	-0.002	25.2324	-1.4745	36.9958
  52	1	3	-0.436564	23.7954	-1.56456	34.6711
  53	1	1	0.15357	24.4261	-0.642727	33.7562
  54	1	4	-0.002836	26.512	-0.382688	35.5207
  55	1	3	-0.349559	24.9677	0.497726	34.4556
  56	1	2	0.015925	26.4167	1.42197	37.3586
  57	1	1	0.230077	25.6235	0.23168	35.7158
  58	1	2	0.052641	24.4403	-0.0164825	37.558
  59	1	4	-0.023623	22.7804	-0.114569	35.7575
  60	1	1	-0.072969	23.3557	-0.114268	32.779
  61	1	2	0.031276	22.0152	0.138568	30.311
  62	1	2	0.023309	21.3319	-1.50152	30.2679
  63	1	2	0.030094	20.8317	-0.368837	31.54
  64	1	5	0.077888	25.2244	-1.15832	33.2067
  65	1	1	0.09092	22.8292	-1.21149	31.8285
  66	1	2	0.047821	22.5209	0.310647	33.3507
  67	1	2	0.068339	23.7833	0.702486	32.1845
  68	1	1	-0.129023	21.6829	-0.70225	30.9325
  69	1	2	-0.006475	23.6507	-1.57415	31.1975
  70	1	2	-0.010814	22.4704	-2.06926	32.4081
  71	1	1	-0.019372	26.0988	1.57759	36.3195
  72	1	2	0.00686	26.9955	1.89614	35.7728
  73	1	1	-0.084968	21.3051	-3.60348	35.1268
  74	1	1	0.309483	19.9168	-3.9413	34.5496
  75	1	2	-0.002	22.0219	-3.45274	34.312
  76	1	3	-0.436564	18.9803	-4.02214	35.6455
  77	1	1	0.15357	18.9318	-2.91917	36.5734
  78	1	4	-0.002836	20.9116	-1.48778	35.4564
  79	1	3	-0.349559	20.2547	-2.62428	37.0557
  80	1	2	0.015925	22.3707	-1.60731	37.7269
  81	1	1	0.230077	21.2352	-2.36059	36.0378
  82	1	2	0.052641	21.6629	-4.46158	35.7092
  83	1	4	-0.023623	19.9817	-4.92619	34.0707
  84	1	1	-0.072969	18.0464	-3.34563	37.7587
  85	1	2	0.031276	15.8801	-2.91744	39.5137
  86	1	2	0.023309	17.2817	-3.45328	40.4707
  87	1	2	0.030094	16.7053	-1.77754	40.5981
  88	1	5	0.077888	18.5086	-2.03296	36.0835
  89	1	1	0.09092	17.8019	-2.19538	38.7591
  90	1	2	0.047821	17.0827	-3.69997	37.3718
  91	1	2	0.068339	18.5167	-4.19235	38.2742
  92	1	1	-0.129023	16.8594	-2.61352	39.9045
  93	1	2	-0.006475	18.7567	-1.86281	39.1857
  94	1	2	-0.010814	17.3661	-1.33729	38.2314
  95	1	1	-0.019372	22.5751	-2.03044	36.735
  96	1	2	0.00686	23.1602	-2.94446	36.9004
  97	1	1	-0.084968	16.8565	-3.31348	33.6116
  98	1	1	0.309483	15.6169	-2.99743	32.7497
  99	1	2	-0.002	16.7199	-4.26454	34.1422
 100	1	3	-0.436564	15.8169	-3.58201	31.449
 101	1	1	0.15357	16.9096	-3.01702	30.6937
 102	1	4	-0.002836	18.2864	-4.43271	32.4238
 103	1	3	-0.349559	17.9626	-2.57385	31.5797
 104	1	2	0.015925	20.2177	-2.81831	32.7295
 105	1	1	0.230077	18.1439	-3.39465	32.7523
 106	1	2	0.052641	16.9518	-2.53302	34.3749
 107	1	4	-0.023623	15.5402	-1.90767	32.6476
 108	1	1	-0.072969	16.4005	-1.79366	29.8987
 109	1	2	0.031276	15.5616	-0.511342	27.5212
 110	1	2	0.023309	13.9233	-1.19822	27.4776
 111	1	2	0.030094	14.4006	-0.129058	28.8136
 112	1	5	0.077888	17.2981	-3.7776	30.004
 113	1	1	0.09092	15.239	-2.14471	28.9398
 114	1	2	0.047821	16.077	-1.00887	30.5936
 115	1	2	0.068339	17.2351	-1.37901	29.3202
 116	1	1	-0.129023	14.7528	-0.919969	28.1399
 117	1	2	-0.006475	15.5633	-2.92662	28.2413
 118	1	2	-0.010814	14.3919	-2.55121	29.5063
 119	1	1	-0.019372	19.4264	-2.92936	33.4802
 120	1	2	0.00686	19.2712	-1.93447	33.9152
 121	1	1	-0.084968	11.7585	-3.68768	33.0522
 122	1	1	0.309483	10.5796	-3.30635	32.1347
 123	1	2	-0.002	11.7603	-4.76935	33.2386
 124	1	3	-0.436564	10.6828	-1.8994	31.831
 125	1	1	0.15357	11.9438	-1.40705	31.3295
 126	1	4	-0.002836	13.2446	-3.78577	31.4798
 127	1	3	-0.349559	13.0225	-1.83768	32.1766
 128	1	2	0.015925	14.1325	-3.05879	34.3283
 129	1	1	0.230077	13.0956	-3.25164	32.4263
 130	1	2	0.052641	11.6288	-3.19366	34.0232
 131	1	4	-0.023623	9.64912	-3.4831	32.6882
 132	1	1	-0.072969	11.9018	0.137627	31.2845
 133	1	2	0.031276	11.2153	1.15985	34.6023
 134	1	2	0.023309	10.0496	0.708298	33.3396
 135	1	2	0.030094	11.14	-0.516017	34.0341
 136	1	5	0.077888	12.1035	-1.79298	30.3147
 137	1	1	0.09092	12.118	0.862096	32.6387
 138	1	2	0.047821	12.6738	0.480128	30.5853
 139	1	2	0.068339	10.9422	0.453136	30.8569
 140	1	1	-0.129023	11.0646	0.530857	33.7164
 141	1	2	-0.006475	13.1191	0.638313	33.0285
 142	1	2	-0.010814	12.0971	1.94397	32.456
 143	1	1	-0.019372	14.2997	-3.52933	33.3509
 144	1	2	0.00686	14.3816	-4.61011	33.5245
 145	1	1	-0.084968	9.05865	-2.69264	29.209
 146	1	1	0.309483	9.94998	-2.76916	27.9619
 147	1	2	-0.002	8.01067	-2.57623	28.9025
 148	1	3	-0.436564	9.49534	-3.89915	27.2021
 149	1	1	0.15357	9.50005	-5.19196	27.8408
 150	1	4	-0.002836	8.38924	-3.98099	30.7936
 151	1	3	-0.349559	9.00049	-5.13732	29.2025
 152	1	2	0.015925	10.632	-5.19643	31.1042
 153	1	1	0.230077	9.19577	-3.97848	30.0498
 154	1	2	0.052641	9.3038	-1.80437	29.798
 155	1	4	-0.023623	10.9979	-2.90843	28.2533
 156	1	1	-0.072969	10.9367	-5.76883	27.7704
 157	1	2	0.031276	10.9546	-8.82335	29.5486
 158	1	2	0.023309	11.525	-7.24439	30.1207
 159	1	2	0.030094	9.79257	-7.51234	29.8023
 160	1	5	0.077888	8.84452	-5.85458	27.2612
 161	1	1	0.09092	11.0175	-7.29797	27.9927
 162	1	2	0.047821	11.3311	-5.56009	26.7677
 163	1	2	0.068339	11.6067	-5.25877	28.4672
 164	1	1	-0.129023	10.8072	-7.74027	29.4558
 165	1	2	-0.006475	10.2896	-7.80503	27.3465
 166	1	2	-0.010814	12.0094	-7.64124	27.6725
 167	1	1	-0.019372	10.5276	-4.1402	30.8282
 168	1	2	0.00686	11.3841	-3.90196	30.1914
 169	1	1	-0.084968	10.0012	-2.4025	24.6701
 170	1	1	0.309483	10.1125	-1.7159	23.2946
 171	1	2	-0.002	10.4732	-3.39313	24.6358
 172	1	3	-0.436564	11.4296	-1.14415	23.2084
 173	1	1	0.15357	11.6986	-0.0832197	24.1483
 174	1	4	-0.002836	11.6591	-1.99213	26.0163
 175	1	3	-0.349559	10.8676	-0.213671	25.3223
 176	1	2	0.015925	10.2153	-0.648112	27.6997
 177	1	1	0.230077	10.6732	-1.56407	25.7914
 178	1	2	0.052641	8.93975	-2.56739	24.8915
 179	1	4	-0.023623	9.36095	-0.917737	23.2415
 180	1	1	-0.072969	11.37	1.2718	23.4869
 181	1	2	0.031276	12.2066	3.7087	22.3317
 182	1	2	0.023309	12.5428	3.07148	20.7079
 183	1	2	0.030094	10.885	3.0463	21.3422
 184	1	5	0.077888	12.758	-0.115854	24.4339
 185	1	1	0.09092	12.1982	1.52484	22.207
 186	1	2	0.047821	10.3003	1.31556	23.2476
 187	1	2	0.068339	11.5677	2.07165	24.2108
 188	1	1	-0.129023	11.9405	2.92358	21.613
 189	1	2	-0.006475	13.2669	1.42399	22.4359
 190	1	2	-0.010814	11.9577	0.768356	21.4493
 191	1	1	-0.019372	9.84885	-1.49097	27.0993
 192	1	2	0.00686	8.79802	-1.27281	26.8678
 193	1	1	-0.084968	9.77662	-2.88276	19.5407
 194	1	1	0.309483	8.99298	-2.21584	18.3843
 195	1	2	-0.002	10.7789	-3.17948	19.2051
 196	1	3	-0.436564	9.26503	-0.801399	18.4117
 197	1	1	0.15357	8.84949	-0.1057	19.6073
 198	1	4	-0.002836	10.8608	-1.38462	20.6632
 199	1	3	-0.349559	8.822	-1.0067	20.7318
 200	1	2	0.015925	8.94747	-3.20731	22.2311
 201	1	1	0.230077	9.91796	-1.93886	20.7588
 202	1	2	0.052641	9.25601	-3.80385	19.8294
 203	1	4	-0.023623	7.92061	-2.37753	18.5541
 204	1	1	-0.072969	7.42822	0.454935	19.3817
 205	1	2	0.031276	7.87765	3.09609	20.2428
 206	1	2	0.023309	7.19558	2.93766	21.8758
 207	1	2	0.030094	8.67112	2.05463	21.4501
 208	1	5	0.077888	9.55382	0.713141	19.8034
 209	1	1	0.09092	6.84193	1.20087	20.6039
 210	1	2	0.047821	7.44982	1.1362	18.522
 211	1	2	0.068339	6.75278	-0.366069	19.1135
 212	1	1	-0.129023	7.70165	2.39464	21.068
 213	1	2	-0.006475	5.84031	1.56639	20.3442
 214	1	2	-0.010814	6.71069	0.502517	21.4402
 215	1	1	-0.019372	9.9049	-2.68416	22.111
 216	1	2	0.00686	10.6923	-3.4491	22.1179
 217	1	1	-0.084968	8.84511	-0.891941	15.3125
 218	1	1	0.309483	8.0226	-0.525741	14.0618
 219	1	2	-0.002	8.70242	-0.116508	16.0732
 220	1	3	-0.436564	8.10722	-1.61264	13.1196
 221	1	1	0.15357	7.78367	-2.93096	13.6013
 222	1	4	-0.002836	7.41305	-2.2652	16.2101
 223	1	3	-0.349559	8.56103	-3.22462	14.7758
 224	1	2	0.015925	9.26588	-3.88893	17.0578
 225	1	1	0.230077	8.45223	-2.28285	15.858
 226	1	2	0.052641	9.91001	-0.890741	15.0494
 227	1	4	-0.023623	8.47853	0.363277	13.6085
 228	1	1	-0.072969	8.15516	-3.93498	12.4928
 229	1	2	0.031276	6.08927	-6.69985	13.1976
 230	1	2	0.023309	5.93518	-5.09581	13.9359
 231	1	2	0.030094	5.72204	-5.29175	12.1786
 232	1	5	0.077888	6.71288	-2.99082	13.8332
 233	1	1	0.09092	7.8052	-5.40178	12.8342
 234	1	2	0.047821	7.6433	-3.64956	11.5652
 235	1	2	0.068339	9.23138	-3.8598	12.2939
 236	1	1	-0.129023	6.2953	-5.63251	13.05
 237	1	2	-0.006475	8.14591	-6.04439	12.0125
 238	1	2	-0.010814	8.35469	-5.72071	13.7289
 239	1	1	-0.019372	9.36157	-2.79675	17.001
 240	1	2	0.00686	10.4146	-2.58735	16.7714
 241	1	1	-0.084968	5.04869	-0.845766	12.3541
 242	1	1	0.309483	4.27304	-0.230925	11.1735
 243	1	2	-0.002	5.76303	-1.58625	11.9772
 244	1	3	-0.436564	3.37323	0.766496	11.6915
 245	1	1	0.15357	3.9867	1.80955	12.4731
 246	1	4	-0.002836	6.47033	0.793638	12.4332
 247	1	3	-0.349559	4.77116	1.23029	13.5326
 248	1	2	0.015925	6.53233	0.622677	15.1125
 249	1	1	0.230077	5.77265	0.285488	13.1119
 250	1	2	0.052641	4.364	-1.35804	13.0395
 251	1	4	-0.023623	4.99697	0.260945	10.5108
 252	1	1	-0.072969	2.88061	2.67224	13.1079
 253	1	2	0.031276	0.299928	3.81016	13.2325
 254	1	2	0.023309	1.50182	5.10976	13.4173
 255	1	2	0.030094	0.530556	5.00052	11.9338
 256	1	5	0.077888	4.63288	2.42654	11.8346
 257	1	1	0.09092	2.12003	3.5111	12.058
 258	1	2	0.047821	2.17783	2.02448	13.6472
 259	1	2	0.068339	3.33357	3.343	13.8484
 260	1	1	-0.129023	1.0481	4.41231	12.7019
 261	1	2	-0.006475	2.83152	4.13863	11.5058
 262	1	2	-0.010814	1.64002	2.84873	11.3265
 263	1	1	-0.019372	6.54176	-0.185577	14.3696
 264	1	2	0.00686	6.02518	-1.03421	14.8346
 265	1	1	-0.084968	1.30701	-2.57971	10.0868
 266	1	1	0.309483	0.246912	-3.36365	10.879
 267	1	2	-0.002	0.827382	-1.79845	9.48331
 268	1	3	-0.436564	0.927888	-4.35487	11.6663
 269	1	1	0.15357	1.92594	-3.8455	12.5705
 270	1	4	-0.002836	1.78976	-1.25115	11.72
 271	1	3	-0.349559	2.87373	-3.03498	11.8484
 272	1	2	0.015925	4.14609	-1.97927	9.88532
 273	1	1	0.230077	2.31769	-1.95799	11.0672
 274	1	2	0.052641	1.83939	-3.25271	9.40785
 275	1	4	-0.023623	-0.268899	-2.66862	11.5543
 276	1	1	-0.072969	2.68832	-5.0344	13.1882
 277	1	2	0.031276	0.243443	-4.70086	14.6973
 278	1	2	0.023309	0.409721	-6.21128	15.6095
 279	1	2	0.030094	1.62459	-4.92919	15.7986
 280	1	5	0.077888	1.44754	-3.24322	13.3539
 281	1	1	0.09092	1.78743	-6.05268	13.9263
 282	1	2	0.047821	3.23513	-5.5574	12.394
 283	1	2	0.068339	3.43838	-4.64596	13.8871
 284	1	1	-0.129023	0.968346	-5.43148	15.077
 285	1	2	-0.006475	1.10513	-6.53325	13.2136
 286	1	2	-0.010814	2.42162	-6.84994	14.3344
 287	1	1	-0.019372	3.4645	-1.23581	10.3184
 288	1	2	0.00686	3.04136	-0.682862	9.46976
 289	1	1	-0.084968	-1.33239	-6.1137	8.56936
 290	1	1	0.309483	-0.774184	-7.00626	7.44843
 291	1	2	-0.002	-1.61624	-6.72914	9.43288
 292	1	3	-0.436564	-0.411192	-6.13795	6.36319
 293	1	1	0.15357	0.595168	-5.16358	6.69042
 294	1	4	-0.002836	0.593765	-5.62082	9.41126
 295	1	3	-0.349559	0.140972	-4.36367	7.80285
 296	1	2	0.015925	-1.43306	-3.32168	9.50036
 297	1	1	0.230077	-0.264365	-5.08455	8.9861
 298	1	2	0.052641	-2.23479	-5.59653	8.21921
 299	1	4	-0.023623	0.117344	-7.52305	7.82604
 300	1	1	-0.072969	0.796179	-4.25034	5.46243
 301	1	2	0.031276	3.71823	-2.45536	6.30281
 302	1	2	0.023309	2.04325	-2.10942	6.78582
 303	1	2	0.030094	2.87549	-3.56208	7.39743
 304	1	5	0.077888	1.53028	-5.68018	6.94579
 305	1	1	0.09092	2.24061	-3.71871	5.312
 306	1	2	0.047821	0.541178	-4.80791	4.55224
 307	1	2	0.068339	0.0964318	-3.40703	5.51608
 308	1	1	-0.129023	2.74562	-2.91129	6.52532
 309	1	2	-0.006475	2.92191	-4.56055	5.13349
 310	1	2	-0.010814	2.28831	-3.08226	4.41933
 311	1	1	-0.019372	-0.823786	-4.07372	10.018
 312	1	2	0.00686	-1.50548	-4.59671	10.7014
 313	1	1	-0.084968	-1.40901	-8.51688	4.44607
 314	1	1	0.309483	-0.87836	-9.61381	3.50584
 315	1	2	-0.002	-2.45536	-8.28214	4.21463
 316	1	3	-0.436564	0.491624	-9.85709	3.86498
 317	1	1	0.15357	0.716896	-10.2745	5.22621
 318	1	4	-0.002836	-1.91885	-9.94848	5.95857
 319	1	3	-0.349559	0.0680845	-9.38662	6.1591
 320	1	2	0.015925	-2.71141	-7.53649	6.60024
 321	1	1	0.230077	-1.30434	-9.04125	5.89064
 322	1	2	0.052641	-0.82191	-7.60029	4.3165
 323	1	4	-0.023623	-1.45372	-10.5347	3.66635
 324	1	1	-0.072969	2.23488	-10.2507	5.49892
 325	1	2	0.031276	4.61696	-9.24515	6.62047
 326	1	2	0.023309	4.8853	-9.51787	4.88232
 327	1	2	0.030094	4.80876	-7.86208	5.52154
 328	1	5	0.077888	0.324951	-11.291	5.36109
 329	1	1	0.09092	2.86481	-8.84172	5.3751
 330	1	2	0.047821	2.42112	-10.6466	6.50481
 331	1	2	0.068339	2.72714	-10.932	4.79437
 332	1	1	-0.129023	4.38714	-8.87053	5.61511
 333	1	2	-0.006475	2.67107	-8.42958	4.37669
 334	1	2	-0.010814	2.40435	-8.1582	6.09994
 335	1	1	-0.019372	-1.81266	-8.04884	6.96698
 336	1	2	0.00686	-2.13371	-8.63567	7.837
 337	1	1	-0.084968	-2.42575	-8.9397	-0.0577196
 338	1	1	0.309483	-3.88828	-8.73398	-0.507739
 339	1	2	-0.002	-1.78799	-8.13968	-0.453965
 340	1	3	-0.436564	-4.70839	-9.72538	0.138391
 341	1	1	0.15357	-4.61712	-9.8139	1.57055
 342	1	4	-0.002836	-2.66657	-7.96779	1.86188
 343	1	3	-0.349559	-3.24304	-9.9595	1.96582
 344	1	2	0.015925	-0.497633	-10.0864	1.43287
 345	1	1	0.230077	-2.34624	-8.94625	1.48118
 346	1	2	0.052641	-2.04894	-9.89143	-0.453365
 347	1	4	-0.023623	-4.22278	-7.73334	-0.205647
 348	1	1	-0.072969	-5.40352	-11.0556	2.03998
 349	1	2	0.031276	-5.6229	-13.6942	3.02268
 350	1	2	0.023309	-6.7597	-13.4953	1.66737
 351	1	2	0.030094	-5.32174	-14.5215	1.47955
 352	1	5	0.077888	-5.03688	-8.90651	2.0245
 353	1	1	0.09092	-4.89066	-12.3837	1.43228
 354	1	2	0.047821	-5.35466	-11.1123	3.13442
 355	1	2	0.068339	-6.45978	-10.9212	1.77715
 356	1	1	-0.129023	-5.69976	-13.5965	1.93254
 357	1	2	-0.006475	-4.95298	-12.3441	0.33737
 358	1	2	-0.010814	-3.83413	-12.5316	1.68939
 359	1	1	-0.019372	-0.921372	-9.2496	2.00299
 360	1	2	0.00686	-0.276909	-8.38122	1.81428
 361	1	1	-0.084968	-3.54501	-8.18646	-4.4166
 362	1	1	0.309483	-3.39002	-6.8898	-5.24453
 363	1	2	-0.002	-2.84738	-8.95735	-4.76916
 364	1	3	-0.436564	-2.46983	-6.01625	-4.56058
 365	1	1	0.15357	-2.8671	-5.58631	-3.23917
 366	1	4	-0.002836	-2.22808	-8.07889	-2.70711
 367	1	3	-0.349559	-3.67462	-6.5957	-2.59628
 368	1	2	0.015925	-5.17694	-8.80355	-2.24494
 369	1	1	0.230077	-3.29887	-7.94823	-2.90888
 370	1	2	0.052641	-4.55526	-8.58079	-4.58136
 371	1	4	-0.023623	-4.37009	-6.40165	-5.31643
 372	1	1	-0.072969	-3.71492	-4.29685	-3.32874
 373	1	2	0.031276	-1.50472	-3.68848	-5.14301
 374	1	2	0.023309	-3.04416	-3.04208	-5.76384
 375	1	2	0.030094	-1.79802	-1.94287	-5.13713
 376	1	5	0.077888	-1.96905	-5.40165	-2.63546
 377	1	1	0.09092	-2.88826	-3.01345	-3.58067
 378	1	2	0.047821	-4.48303	-4.40105	-4.10486
 379	1	2	0.068339	-4.25097	-4.17246	-2.37972
 380	1	1	-0.129023	-2.27306	-2.92101	-4.99278
 381	1	2	-0.006475	-3.54386	-2.14574	-3.43399
 382	1	2	-0.010814	-2.09288	-2.93351	-2.82857
 383	1	1	-0.019372	-4.10777	-8.9228	-2.02618
 384	1	2	0.00686	-3.84404	-9.9525	-2.30159
 385	1	1	-0.084968	-2.13752	-6.17215	-8.89682
 386	1	1	0.309483	-2.21385	-4.91102	-9.78157
 387	1	2	-0.002	-1.08929	-6.46143	-8.74827
 388	1	3	-0.436564	-3.588	-4.49269	-9.87604
 389	1	1	0.15357	-4.32418	-4.33144	-8.65078
 390	1	4	-0.002836	-2.2628	-5.09963	-7.02455
 391	1	3	-0.349559	-4.16368	-5.48424	-7.80161
 392	1	2	0.015925	-3.48161	-7.9215	-7.15099
 393	1	1	0.230077	-2.80928	-5.8972	-7.54241
 394	1	2	0.052641	-2.64696	-7.01575	-9.37641
 395	1	4	-0.023623	-1.62767	-4.11137	-9.31102
 396	1	1	-0.072969	-5.81748	-4.17872	-9.01281
 397	1	2	0.031276	-8.284	-6.07094	-10.6506
 398	1	2	0.023309	-8.48315	-5.03279	-9.22495
 399	1	2	0.030094	-8.02458	-4.32002	-10.7909
 400	1	5	0.077888	-3.96712	-3.4374	-8.12307
 401	1	1	0.09092	-6.39919	-5.38706	-9.78848
 402	1	2	0.047821	-6.39196	-4.02504	-8.09108
 403	1	2	0.068339	-5.94014	-3.27147	-9.61688
 404	1	1	-0.129023	-7.88847	-5.18829	-10.1338
 405	1	2	-0.006475	-5.83961	-5.54511	-10.7192
 406	1	2	-0.010814	-6.29281	-6.30091	-9.19027
 407	1	1	-0.019372	-2.85167	-7.16562	-6.66383
 408	1	2	0.00686	-1.84343	-7.59384	-6.59052
 409	1	1	-0.084968	-2.63954	-6.00807	-13.4737
 410	1	1	0.309483	-3.393	-7.19858	-14.1099
 411	1	2	-0.002	-3.15681	-5.06164	-13.6639
 412	1	3	-0.436564	-2.63811	-8.38888	-13.8008
 413	1	1	0.15357	-2.35784	-8.6443	-12.4081
 414	1	4	-0.002836	-3.47202	-6.33494	-11.5139
 415	1	3	-0.349559	-1.75961	-7.48349	-11.7978
 416	1	2	0.015925	-0.631107	-5.34585	-11.2192
 417	1	1	0.230077	-2.47788	-6.24564	-11.9624
 418	1	2	0.052641	-1.6488	-5.92238	-13.937
 419	1	4	-0.023623	-3.3978	-7.06986	-15.1994
 420	1	1	-0.072969	-1.3602	-9.81417	-12.3361
 421	1	2	0.031276	-0.578505	-12.3484	-11.3948
 422	1	2	0.023309	0.815849	-11.2513	-11.2603
 423	1	2	0.030094	-0.010891	-11.8236	-9.79532
 424	1	5	0.077888	-3.28639	-8.90476	-11.8835
 425	1	1	0.09092	-1.11252	-10.2888	-10.8879
 426	1	2	0.047821	-1.74975	-10.6502	-12.9305
 427	1	2	0.068339	-0.411589	-9.50825	-12.7949
 428	1	1	-0.129023	-0.163272	-11.502	-10.833
 429	1	2	-0.006475	-0.685388	-9.47086	-10.2936
 430	1	2	-0.010814	-2.06897	-10.5597	-10.4225
 431	1	1	-0.019372	-1.70577	-5.12265	-11.2282
 432	1	2	0.00686	-1.8202	-4.17676	-11.7734
 433	1	1	-0.084968	-7.32035	-6.81662	-13.9019
 434	1	1	0.309483	-8.31133	-5.79359	-14.4929
 435	1	2	-0.002	-7.56333	-7.83544	-14.2256
 436	1	3	-0.436564	-7.90318	-4.47713	-14.0623
 437	1	1	0.15357	-6.52666	-4.09819	-14.2843
 438	1	4	-0.002836	-5.75827	-6.47495	-15.3726
 439	1	3	-0.349559	-5.64238	-5.12028	-13.7892
 440	1	2	0.015925	-4.95196	-7.37141	-12.5518
 441	1	1	0.230077	-5.87581	-6.4497	-14.282
 442	1	2	0.052641	-7.4176	-6.8087	-12.8098
 443	1	4	-0.023623	-9.30228	-6.00267	-14.071
 444	1	1	-0.072969	-6.23306	-2.8007	-13.5065
 445	1	2	0.031276	-7.13992	0.577068	-13.8162
 446	1	2	0.023309	-6.87709	-0.326777	-12.3105
 447	1	2	0.030094	-5.52833	-0.0673653	-13.4405
 448	1	5	0.077888	-6.34356	-3.94581	-15.3556
 449	1	1	0.09092	-6.96548	-1.57806	-14.1027
 450	1	2	0.047821	-6.52251	-2.93191	-12.4561
 451	1	2	0.068339	-5.15164	-2.61672	-13.5188
 452	1	1	-0.129023	-6.60385	-0.269943	-13.3716
 453	1	2	-0.006475	-6.70668	-1.47695	-15.1646
 454	1	2	-0.010814	-8.05089	-1.73104	-14.0494
 455	1	1	-0.019372	-4.86065	-7.41998	-13.6418
 456	1	2	0.00686	-5.1533	-8.44218	-13.9091
 457	1	1	-0.084968	-9.60509	-7.08055	-17.951
 458	1	1	0.309483	-9.93854	-8.50759	-18.4335
 459	1	2	-0.002	-10.5215	-6.48981	-17.8295
 460	1	3	-0.436564	-8.70252	-9.23551	-18.5277
 461	1	1	0.15357	-7.92579	-9.30625	-17.3186
 462	1	4	-0.002836	-9.54633	-7.67094	-15.8784
 463	1	3	-0.349559	-7.6986	-7.97847	-16.8041
 464	1	2	0.015925	-7.52517	-5.47957	-16.5265
 465	1	1	0.230077	-8.87891	-7.17915	-16.5984
 466	1	2	0.052641	-8.97057	-6.57061	-18.6869
 467	1	4	-0.023623	-10.5833	-8.99383	-17.6901
 468	1	1	-0.072969	-6.57492	-9.95715	-17.6705
 469	1	2	0.031276	-4.59206	-11.8951	-17.1214
 470	1	2	0.023309	-3.78615	-10.3682	-17.5545
 471	1	2	0.030094	-3.72626	-10.9621	-15.8811
 472	1	5	0.077888	-8.45726	-9.90967	-16.5706
 473	1	1	0.09092	-5.65092	-10.1056	-16.4438
 474	1	2	0.047821	-6.76447	-10.9465	-18.1053
 475	1	2	0.068339	-6.07271	-9.35861	-18.4408
 476	1	1	-0.129023	-4.36072	-10.8806	-16.7728
 477	1	2	-0.006475	-5.38067	-9.11096	-16.0726
 478	1	2	-0.010814	-6.1868	-10.6224	-15.6372
 479	1	1	-0.019372	-8.45399	-5.80093	-16.0395
 480	1	2	0.00686	-9.21465	-5.05601	-16.3066
 481	1	1	-0.084968	-12.7273	-7.96792	-21.1765
 482	1	1	0.309483	-13.9957	-7.10348	-21.0989
 483	1	2	-0.002	-12.1233	-7.67779	-22.0459
 484	1	3	-0.436564	-14.7375	-7.49799	-19.9314
 485	1	1	0.15357	-14.036	-7.45342	-18.6749
 486	1	4	-0.002836	-11.6825	-6.68146	-19.7973
 487	1	3	-0.349559	-12.7688	-8.12954	-18.7763
 488	1	2	0.015925	-10.8453	-9.61924	-20.0558
 489	1	1	0.230077	-11.9302	-7.74757	-19.8796
 490	1	2	0.052641	-12.9941	-9.0267	-21.2881
 491	1	4	-0.023623	-13.6846	-6.05733	-20.9982
 492	1	1	-0.072969	-14.8921	-8.16776	-17.6087
 493	1	2	0.031276	-15.5113	-10.2947	-15.8607
 494	1	2	0.023309	-16.9884	-9.84465	-16.7464
 495	1	2	0.030094	-16.1837	-11.3918	-17.0856
 496	1	5	0.077888	-13.87	-6.40693	-18.3875
 497	1	1	0.09092	-15.154	-9.66091	-17.923
 498	1	2	0.047821	-14.3908	-8.08233	-16.6367
 499	1	2	0.068339	-15.8508	-7.64278	-17.5177
 500	1	1	-0.129023	-16.0121	-10.3372	-16.836
 501	1	2	-0.006475	-15.6645	-9.75708	-18.8896
 502	1	2	-0.010814	-14.2018	-10.2	-18.0073
 503	1	1	-0.019372	-10.6259	-8.57045	-19.8176
 504	1	2	0.00686	-9.93481	-8.2067	-20.589
 505	1	1	-0.084968	-15.5607	-4.78697	-22.6245
 506	1	1	0.309483	-16.7489	-3.80795	-22.7034
 507	1	2	-0.002	-14.8666	-4.45953	-21.8426
 508	1	3	-0.436564	-17.7028	-4.33818	-23.6445
 509	1	1	0.15357	-18.1526	-5.68764	-23.416
 510	1	4	-0.002836	-16.5552	-6.2186	-21.3313
 511	1	3	-0.349559	-17.0167	-6.56709	-23.3207
 512	1	2	0.015925	-15.3506	-8.26859	-22.3287
 513	1	1	0.230077	-16.0603	-6.21038	-22.3113
 514	1	2	0.052641	-15.0167	-4.78514	-23.5775
 515	1	4	-0.023623	-17.2137	-3.72986	-21.7121
 516	1	1	-0.072969	-19.0068	-6.1113	-24.6272
 517	1	2	0.031276	-20.0297	-7.60051	-22.3538
 518	1	2	0.023309	-21.3571	-6.92521	-23.3301
 519	1	2	0.030094	-21.049	-8.67408	-23.3289
 520	1	5	0.077888	-18.741	-5.72955	-22.4902
 521	1	1	0.09092	-19.6115	-7.52996	-24.5054
 522	1	2	0.047821	-19.8175	-5.38509	-24.7648
 523	1	2	0.068339	-18.3859	-6.06384	-25.5303
 524	1	1	-0.129023	-20.5687	-7.68797	-23.3051
 525	1	2	-0.006475	-20.1631	-7.75536	-25.427
 526	1	2	-0.010814	-18.8095	-8.27548	-24.4321
 527	1	1	-0.019372	-14.9228	-7.25743	-22.3235
 528	1	2	0.00686	-14.3392	-7.15418	-23.2475
 529	1	1	-0.084968	-14.7586	-0.393491	-22.9923
 530	1	1	0.309483	-13.564	0.142823	-22.1745
 531	1	2	-0.002	-14.499	-0.485187	-24.0519
 532	1	3	-0.436564	-13.9573	0.139879	-20.788
 533	1	1	0.15357	-14.3943	-1.12397	-20.2477
 534	1	4	-0.002836	-14.2706	-2.44085	-22.5892
 535	1	3	-0.349559	-15.4505	-1.66283	-21.0651
 536	1	2	0.015925	-17.2175	-1.72675	-23.1062
 537	1	1	0.230077	-15.1404	-1.78444	-22.4628
 538	1	2	0.052641	-15.6118	0.291889	-22.9119
 539	1	4	-0.023623	-12.7045	-0.527769	-22.3025
 540	1	1	-0.072969	-14.9553	-0.905848	-18.8261
 541	1	2	0.031276	-12.1678	0.205975	-16.9609
 542	1	2	0.023309	-12.2904	0.210616	-18.729
 543	1	2	0.030094	-13.3965	1.21118	-17.7584
 544	1	5	0.077888	-13.5575	-1.83427	-20.2239
 545	1	1	0.09092	-13.8722	-0.924217	-17.7219
 546	1	2	0.047821	-15.5116	0.0394196	-18.7874
 547	1	2	0.068339	-15.6788	-1.70098	-18.607
 548	1	1	-0.129023	-12.8724	0.248118	-17.8009
 549	1	2	-0.006475	-14.3683	-0.895317	-16.7434
 550	1	2	-0.010814	-13.323	-1.87359	-17.7654
 551	1	1	-0.019372	-16.3529	-2.39598	-23.2028
 552	1	2	0.00686	-16.1158	-2.45055	-24.2735
 553	1	1	-0.084968	-11.8054	3.13823	-24.1243
 554	1	1	0.309483	-12.9509	4.14625	-24.3336
 555	1	2	-0.002	-11.1734	3.44731	-23.2819
 556	1	3	-0.436564	-13.7742	3.67661	-25.4154
 557	1	1	0.15357	-14.3062	2.3476	-25.2704
 558	1	4	-0.002836	-11.5399	1.01529	-23.8702
 559	1	3	-0.349559	-13.2413	1.41819	-24.985
 560	1	2	0.015925	-12.4585	1.93915	-21.727
 561	1	1	0.230077	-12.3757	1.72611	-23.8746
 562	1	2	0.052641	-11.1682	3.11727	-25.0176
 563	1	4	-0.023623	-13.5394	4.1894	-23.4114
 564	1	1	-0.072969	-14.959	1.92963	-26.6018
 565	1	2	0.031276	-17.1449	2.78172	-24.8887
 566	1	2	0.023309	-18.3363	2.83989	-26.1988
 567	1	2	0.030094	-17.5573	1.29929	-25.7839
 568	1	5	0.077888	-15.0409	2.32282	-24.4567
 569	1	1	0.09092	-16.2767	2.67973	-26.9021
 570	1	2	0.047821	-14.2487	2.1093	-27.4187
 571	1	2	0.068339	-15.1541	0.850267	-26.5871
 572	1	1	-0.129023	-17.3931	2.38025	-25.8787
 573	1	2	-0.006475	-16.0935	3.76127	-26.9386
 574	1	2	-0.010814	-16.6272	2.38653	-27.8998
 575	1	1	-0.019372	-13.1312	1.58884	-22.5208
 576	1	2	0.00686	-14.0082	2.24566	-22.4844
 577	1	1	-0.084968	-14.5605	6.63745	-23.6554
 578	1	1	0.309483	-15.5696	7.78395	-23.83
 579	1	2	-0.002	-15.1069	5.69218	-23.5519
 580	1	3	-0.436564	-14.8278	9.00695	-23.9691
 581	1	1	0.15357	-13.8505	9.03992	-25.0298
 582	1	4	-0.002836	-14.1647	6.37068	-25.7702
 583	1	3	-0.349559	-12.9821	7.89072	-24.9614
 584	1	2	0.015925	-11.857	5.53194	-25.6001
 585	1	1	0.230077	-13.5997	6.59387	-24.8558
 586	1	2	0.052641	-13.9592	6.78904	-22.7543
 587	1	4	-0.023623	-16.1382	7.60553	-24.752
 588	1	1	-0.072969	-12.9672	10.2876	-24.8277
 589	1	2	0.031276	-14.5902	12.8527	-26.6114
 590	1	2	0.023309	-13.2861	11.7889	-27.1764
 591	1	2	0.030094	-14.8939	11.1165	-26.8126
 592	1	5	0.077888	-14.3519	9.06177	-26.0059
 593	1	1	0.09092	-13.712	11.6256	-25.0365
 594	1	2	0.047821	-12.5569	10.2648	-23.81
 595	1	2	0.068339	-12.1098	10.2399	-25.5102
 596	1	1	-0.129023	-14.1468	11.8555	-26.4989
 597	1	2	-0.006475	-14.5893	11.6765	-24.3791
 598	1	2	-0.010814	-13.0482	12.4461	-24.736
 599	1	1	-0.019372	-12.4538	5.56658	-24.6796
 600	1	2	0.00686	-11.7833	5.90903	-23.8804
 601	1	1	-0.084968	-17.0027	8.69609	-20.2417
 602	1	1	0.309483	-16.3385	8.94743	-18.8683
 603	1	2	-0.002	-17.5432	9.59312	-20.5705
 604	1	3	-0.436564	-15.5107	7.81221	-18.5283
 605	1	1	0.15357	-14.5884	7.33337	-19.5284
 606	1	4	-0.002836	-15.2343	9.1059	-21.4326
 607	1	3	-0.349559	-15.2898	7.12975	-20.7648
 608	1	2	0.015925	-17.1671	7.00942	-22.57
 609	1	1	0.230077	-15.9523	8.28875	-21.2942
 610	1	2	0.052641	-17.7447	7.89461	-20.1378
 611	1	4	-0.023623	-17.1329	9.03796	-18.1172
 612	1	1	-0.072969	-14.0274	5.97631	-19.054
 613	1	2	0.031276	-11.1582	6.1607	-19.2507
 614	1	2	0.023309	-11.0661	5.6854	-20.9528
 615	1	2	0.030094	-11.9116	7.17817	-20.5045
 616	1	5	0.077888	-13.78	8.0615	-19.672
 617	1	1	0.09092	-13.0154	5.33476	-20.0352
 618	1	2	0.047821	-13.5538	6.10332	-18.0727
 619	1	2	0.068339	-14.8666	5.28419	-18.9104
 620	1	1	-0.129023	-11.7125	6.14471	-20.1951
 621	1	2	-0.006475	-12.758	4.33151	-19.6726
 622	1	2	-0.010814	-13.4816	5.19569	-21.0177
 623	1	1	-0.019372	-16.5828	7.93382	-22.6644
 624	1	2	0.00686	-17.2981	8.71977	-22.9388
 625	1	1	-0.084968	-13.4977	9.97037	-17.1576
 626	1	1	0.309483	-12.4162	10.5482	-18.1046
 627	1	2	-0.002	-13.2325	10.1892	-16.115
 628	1	3	-0.436564	-12.8942	11.7417	-18.7634
 629	1	1	0.15357	-13.6873	12.6705	-17.9984
 630	1	4	-0.002836	-15.5932	10.2161	-16.6701
 631	1	3	-0.349559	-14.7606	11.9993	-17.2954
 632	1	2	0.015925	-16.1819	11.0759	-19.107
 633	1	1	0.230077	-14.8948	10.5691	-17.4393
 634	1	2	0.052641	-13.5228	8.87886	-17.2411
 635	1	4	-0.023623	-12.2313	9.81176	-18.8958
 636	1	1	-0.072969	-14.2957	13.6783	-18.9973
 637	1	2	0.031276	-15.0349	16.4859	-16.9979
 638	1	2	0.023309	-13.9597	15.1486	-16.5506
 639	1	2	0.030094	-13.5551	16.1932	-17.9346
 640	1	5	0.077888	-13.0467	13.1889	-17.274
 641	1	1	0.09092	-15.1693	14.7734	-18.3417
 642	1	2	0.047821	-13.4849	14.1553	-19.562
 643	1	2	0.068339	-14.902	13.1313	-19.7291
 644	1	1	-0.129023	-14.3782	15.7038	-17.3988
 645	1	2	-0.006475	-15.6228	15.3818	-19.1345
 646	1	2	-0.010814	-15.9994	14.3134	-17.7907
 647	1	1	-0.019372	-15.5085	10.2537	-18.8333
 648	1	2	0.00686	-14.732	10.2287	-19.6047
 649	1	1	-0.084968	-10.2415	8.45913	-17.7431
 650	1	1	0.309483	-9.20989	7.41562	-17.2809
 651	1	2	-0.002	-11.2294	7.98808	-17.8115
 652	1	3	-0.436564	-7.96347	8.10538	-17.0897
 653	1	1	0.15357	-7.96703	9.18618	-16.1406
 654	1	4	-0.002836	-10.8028	9.37984	-15.8666
 655	1	3	-0.349559	-8.97273	10.1496	-16.51