pySIMM System Object

290 atoms
301 bonds
600 angles
891 dihedrals
0 impropers

5 atom types
5 bond types
11 angle types
8 dihedral types

-86.603835 86.603835 xlo xhi
-86.603835 86.603835 ylo yhi
-86.603835 86.603835 zlo zhi

Masses

   1	12.01	# c3
   2	1.008	# hc
   3	16.0	# os
   4	1.008	# h1
   5	1.008	# h2

Pair Coeffs

   1	0.1094	3.3996695084235347	# c3
   2	0.0157	2.649532787749369	# hc
   3	0.17	3.0000123434657784	# os
   4	0.0157	2.471353044121301	# h1
   5	0.0157	2.2931733004932333	# h2

Bond Coeffs

   1	330.6	1.0969	# c3,h1
   2	308.6	1.4316	# c3,os
   3	330.6	1.0969	# c3,hc
   4	300.9	1.5375	# c3,c3
   5	331.7	1.0961	# c3,h2

Angle Coeffs

   1	62.7	112.48	# c3,os,c3
   2	50.85	109.58	# h2,c3,os
   3	68.0	107.97	# c3,c3,os
   4	72.74	108.29	# os,c3,os
   5	46.34	109.8	# c3,c3,hc
   6	46.25	110.22	# c3,c3,h2
   7	50.8	109.78	# h1,c3,os
   8	46.39	109.56	# c3,c3,h1
   9	39.4	107.58	# hc,c3,hc
  10	39.24	108.46	# h1,c3,h1
  11	62.86	111.51	# c3,c3,c3

Dihedral Coeffs

   1	3	0.18	3	0	0.25	2	180	0.2	1	180	# c3,c3,c3,c3
   2	2	0.0	3	0	0.25	1	0	# hc,c3,c3,os
   3	1	0.3833333333333333	3	0	# X,c3,os,X
   4	1	0.15	3	0	# hc,c3,c3,hc
   5	2	0.383	3	0	0.1	2	180	# c3,c3,os,c3
   6	1	0.16	3	0	# hc,c3,c3,c3
   7	3	0.1	3	0	0.85	2	180	1.35	1	180	# c3,os,c3,os
   8	1	0.15555555555555556	3	0	# X,c3,c3,X

Atoms

   1	1	1	-0.084968	-2.13126	-6.2762	7.08582
   2	1	1	0.309483	-3.298	-6.95566	6.34279
   3	1	2	-0.002	-2.04675	-5.22414	6.78578
   4	1	3	-0.436564	-3.40521	-8.3051	6.83132
   5	1	1	0.15357	-3.63594	-8.41723	8.24741
   6	1	4	-0.002836	-3.26141	-5.78854	8.86878
   7	1	3	-0.349559	-2.57398	-7.7499	8.95462
   8	1	2	0.015925	-1.36531	-5.94297	10.497
   9	1	1	0.230077	-2.36811	-6.36957	8.60543
  10	1	2	0.052641	-1.18794	-6.77317	6.82618
  11	1	4	-0.023623	-4.23084	-6.42706	6.57618
  12	1	1	-0.072969	-3.63226	-9.91237	8.62441
  13	1	2	0.031276	-5.31858	-8.56661	10.5508
  14	1	2	0.023309	-6.07852	-10.0885	10.0246
  15	1	2	0.030094	-5.41946	-9.93889	11.6668
  16	1	5	0.077888	-4.60159	-7.9599	8.49917
  17	1	1	0.09092	-3.89261	-10.1797	10.1265
  18	1	2	0.047821	-4.39371	-10.4324	8.02983
  19	1	2	0.068339	-2.66442	-10.3466	8.34527
  20	1	1	-0.129023	-5.26088	-9.6599	10.6176
  21	1	2	-0.006475	-3.84301	-11.2614	10.3049
  22	1	2	-0.010814	-3.09536	-9.7279	10.7302
  23	1	1	-0.019372	-1.16896	-5.84833	9.42169
  24	1	2	0.00686	-0.258355	-6.41475	9.18766
  25	1	1	-0.084968	-3.14635	-5.73306	2.5838
  26	1	1	0.309483	-3.65103	-4.44203	1.90561
  27	1	2	-0.002	-2.08823	-5.89617	2.34229
  28	1	3	-0.436564	-5.00967	-4.25792	2.3328
  29	1	1	0.15357	-5.14121	-4.05518	3.74466
  30	1	4	-0.002836	-2.62756	-4.9069	4.51753
  31	1	3	-0.349559	-4.67898	-5.23803	4.41372
  32	1	2	0.015925	-3.80383	-7.74425	4.3884
  33	1	1	0.230077	-3.32967	-5.64949	4.11763
  34	1	2	0.052641	-3.70746	-6.59128	2.19275
  35	1	4	-0.023623	-3.0479	-3.59372	2.25522
  36	1	1	-0.072969	-6.62354	-3.81774	4.08495
  37	1	2	0.031276	-8.9917	-3.97335	5.60864
  38	1	2	0.023309	-8.43502	-2.98192	6.97386
  39	1	2	0.030094	-8.59872	-2.25352	5.36337
  40	1	5	0.077888	-4.54279	-3.1867	4.04334
  41	1	1	0.09092	-6.84777	-3.54309	5.58815
  42	1	2	0.047821	-6.97289	-2.95153	3.51534
  43	1	2	0.068339	-7.21956	-4.68187	3.76571
  44	1	1	-0.129023	-8.30878	-3.1657	5.89954
  45	1	2	-0.006475	-6.56849	-4.42663	6.17618
  46	1	2	-0.010814	-6.19748	-2.72168	5.91191
  47	1	1	-0.019372	-3.10066	-7.01352	4.80923
  48	1	2	0.00686	-2.09168	-7.37974	4.57946
  49	1	1	-0.084968	-5.87012	-3.70468	-0.529988
  50	1	1	0.309483	-6.71575	-2.65053	0.202205
  51	1	2	-0.002	-6.14589	-3.72574	-1.5925
  52	1	3	-0.436564	-6.34181	-1.37139	-0.337074
  53	1	1	0.15357	-4.95134	-1.0091	-0.171739
  54	1	4	-0.002836	-3.94612	-3.31678	-1.4136
  55	1	3	-0.349559	-4.15578	-2.13059	0.278506
  56	1	2	0.015925	-3.90205	-5.4837	0.00175983
  57	1	1	0.230077	-4.35657	-3.39253	-0.398544
  58	1	2	0.052641	-6.09949	-4.69906	-0.128322
  59	1	4	-0.023623	-6.46593	-2.67238	1.26637
  60	1	1	-0.072969	-4.88359	0.0936908	0.9037
  61	1	2	0.031276	-3.95454	2.58044	1.86401
  62	1	2	0.023309	-3.82857	1.36714	3.16248
  63	1	2	0.030094	-2.35883	2.01492	2.39995
  64	1	5	0.077888	-4.55951	-0.632391	-1.12536
  65	1	1	0.09092	-3.43955	0.570506	1.17668
  66	1	2	0.047821	-5.49298	0.944922	0.575417
  67	1	2	0.068339	-5.33129	-0.279188	1.83331
  68	1	1	-0.129023	-3.39437	1.70479	2.21455
  69	1	2	-0.006475	-2.83447	-0.264594	1.55007
  70	1	2	-0.010814	-2.97985	0.914921	0.241688
  71	1	1	-0.019372	-3.56876	-4.50001	0.356051
  72	1	2	0.00686	-2.51196	-4.42609	0.0711886
  73	1	1	-0.084968	-9.53278	-0.769547	0.833398
  74	1	1	0.309483	-10.2872	-0.162237	2.0396
  75	1	2	-0.002	-8.70886	-0.118774	0.520342
  76	1	3	-0.436564	-11.2564	-1.12703	2.51192
  77	1	1	0.15357	-10.803	-2.47386	2.759
  78	1	4	-0.002836	-8.32227	-2.07964	2.05228
  79	1	3	-0.349559	-10.1082	-2.97243	1.60252
  80	1	2	0.015925	-8.43228	-3.95805	0.126227
  81	1	1	0.230077	-8.99558	-2.16512	1.19563
  82	1	2	0.052641	-10.2199	-0.849989	-0.0177428
  83	1	4	-0.023623	-10.8402	0.722169	1.69899
  84	1	1	-0.072969	-12.036	-3.35875	3.01714
  85	1	2	0.031276	-13.481	-5.27046	4.50876
  86	1	2	0.023309	-13.5364	-5.73348	2.79125
  87	1	2	0.030094	-12.5901	-6.69992	3.94296
  88	1	5	0.077888	-10.1367	-2.48889	3.6306
  89	1	1	0.09092	-11.6529	-4.80542	3.40123
  90	1	2	0.047821	-12.6309	-2.91413	3.82469
  91	1	2	0.068339	-12.6665	-3.36732	2.11932
  92	1	1	-0.129023	-12.8922	-5.679	3.67793
  93	1	2	-0.006475	-11.0664	-5.26463	2.5953
  94	1	2	-0.010814	-11.0158	-4.79189	4.29464
  95	1	1	-0.019372	-8.23518	-2.88015	0.058132
  96	1	2	0.00686	-8.58989	-2.55373	-0.928107
  97	1	1	-0.084968	-7.87374	2.14555	4.17302
  98	1	1	0.309483	-6.9261	3.23579	3.60814
  99	1	2	-0.002	-8.3548	2.49006	5.09723
 100	1	3	-0.436564	-7.69178	4.11379	2.75837
 101	1	1	0.15357	-8.32049	3.48902	1.61593
 102	1	4	-0.002836	-9.86787	2.36015	3.34895
 103	1	3	-0.349559	-8.48888	2.076	1.84014
 104	1	2	0.015925	-8.46309	-0.350705	3.25316
 105	1	1	0.230077	-8.97124	1.75708	3.15353
 106	1	2	0.052641	-7.27654	1.2655	4.43812
 107	1	4	-0.023623	-6.16144	2.75158	2.98706
 108	1	1	-0.072969	-7.43067	3.69091	0.370918
 109	1	2	0.031276	-9.48093	4.44277	-1.42696
 110	1	2	0.023309	-9.68222	2.86656	-2.22076
 111	1	2	0.030094	-10.11	3.05063	-0.512039
 112	1	5	0.077888	-9.30036	3.95635	1.45359
 113	1	1	0.09092	-7.95085	2.96776	-0.895925
 114	1	2	0.047821	-7.35579	4.76563	0.164071
 115	1	2	0.068339	-6.41467	3.34156	0.588864
 116	1	1	-0.129023	-9.39341	3.35853	-1.28372
 117	1	2	-0.006475	-7.28301	3.20238	-1.73434
 118	1	2	-0.010814	-7.89703	1.88131	-0.753409
 119	1	1	-0.019372	-9.36835	0.264982	3.21997
 120	1	2	0.00686	-9.88961	0.0958945	4.17108
 121	1	1	-0.084968	-4.17742	4.25492	6.24841
 122	1	1	0.309483	-2.93518	3.50333	6.76963
 123	1	2	-0.002	-3.88204	5.22339	5.8246
 124	1	3	-0.436564	-3.32574	2.17255	7.17354
 125	1	1	0.15357	-4.11675	1.38185	6.26169
 126	1	4	-0.002836	-4.25946	3.26376	4.33293
 127	1	3	-0.349559	-5.23812	2.14742	5.79077
 128	1	2	0.015925	-6.89408	4.28375	5.52914
 129	1	1	0.230077	-4.91885	3.41491	5.19356
 130	1	2	0.052641	-4.84921	4.46208	7.09063
 131	1	4	-0.023623	-2.56305	4.03769	7.65246
 132	1	1	-0.072969	-4.66306	0.163123	7.03352
 133	1	2	0.031276	-2.22413	-2.32759	6.51727
 134	1	2	0.023309	-3.86363	-2.34699	5.85281
 135	1	2	0.030094	-2.73818	-1.05706	5.38712
 136	1	5	0.077888	-3.50954	1.0626	5.40621
 137	1	1	0.09092	-3.56931	-0.861464	7.41637
 138	1	2	0.047821	-5.15005	0.521291	7.94953
 139	1	2	0.068339	-5.44088	-0.332458	6.4399
 140	1	1	-0.129023	-3.06684	-1.69265	6.21748
 141	1	2	-0.006475	-2.723	-0.347646	7.88929
 142	1	2	-0.010814	-3.97494	-1.55061	8.16794
 143	1	1	-0.019372	-6.21552	4.08417	4.68997
 144	1	2	0.00686	-5.95122	5.05974	4.2615
 145	1	1	-0.084968	-0.363324	1.24946	5.79854
 146	1	1	0.309483	0.059354	1.20764	4.30679
 147	1	2	-0.002	0.383708	0.742469	6.42263
 148	1	3	-0.436564	0.412517	2.53141	3.8489
 149	1	1	0.15357	1.25442	3.31051	4.71486
 150	1	4	-0.002836	-0.640821	2.64817	7.41844
 151	1	3	-0.349559	0.668662	3.42986	6.02983
 152	1	2	0.015925	-1.49028	4.45826	5.48328
 153	1	1	0.230077	-0.538136	2.68969	6.32679
 154	1	2	0.052641	-1.29202	0.68911	5.93191
 155	1	4	-0.023623	-0.798817	0.869937	3.71352
 156	1	1	-0.072969	1.40187	4.72435	4.11631
 157	1	2	0.031276	4.0559	4.36971	1.81829
 158	1	2	0.023309	4.16297	4.91053	3.50613
 159	1	2	0.030094	3.66867	3.24541	3.13256
 160	1	5	0.077888	2.23718	2.83197	4.80765
 161	1	1	0.09092	2.11736	4.75072	2.74436
 162	1	2	0.047821	0.405647	5.16962	4.00471
 163	1	2	0.068339	1.95158	5.35789	4.82317
 164	1	1	-0.129023	3.58898	4.28877	2.80784
 165	1	2	-0.006475	1.57023	4.1307	2.02272
 166	1	2	-0.010814	2.09118	5.77674	2.35582
 167	1	1	-0.019372	-1.77334	3.43192	5.74815
 168	1	2	0.00686	-2.1054	2.95506	4.81887
 169	1	1	-0.084968	2.99776	-0.661675	2.45036
 170	1	1	0.309483	3.64907	-0.492314	1.06587
 171	1	2	-0.002	3.76466	-0.621228	3.23487
 172	1	3	-0.436564	2.62212	-0.323755	0.0614298
 173	1	1	0.15357	1.54749	0.601023	0.329994
 174	1	4	-0.002836	2.404	1.40221	2.68365
 175	1	3	-0.349559	0.976973	0.332549	1.62328
 176	1	2	0.015925	0.845006	-0.804785	4.13259
 177	1	1	0.230077	1.92853	0.414926	2.69515
 178	1	2	0.052641	2.5353	-1.65491	2.50305
 179	1	4	-0.023623	4.19354	-1.42058	0.857327
 180	1	1	-0.072969	0.455831	0.474533	-0.759074
 181	1	2	0.031276	0.41311	-2.11572	0.574229
 182	1	2	0.023309	-1.24484	-1.52189	0.314786
 183	1	2	0.030094	-0.629053	-2.8894	-0.634172
 184	1	5	0.077888	1.93625	1.62775	0.328736
 185	1	1	0.09092	0.156023	-0.958927	-1.26801
 186	1	2	0.047821	-0.47149	0.927798	-0.387677
 187	1	2	0.068339	0.766118	1.08094	-1.6181
 188	1	1	-0.129023	-0.357132	-1.92745	-0.183274
 189	1	2	-0.006475	-0.602636	-0.890823	-2.05821
 190	1	2	-0.010814	1.05032	-1.38353	-1.74188
 191	1	1	-0.019372	1.22589	0.221585	4.05538
 192	1	2	0.00686	1.98052	0.335307	4.84436
 193	1	1	-0.084968	6.56451	1.72776	-0.393235
 194	1	1	0.309483	7.30561	1.65855	-1.74842
 195	1	2	-0.002	6.24805	2.75797	-0.184398
 196	1	3	-0.436564	7.54369	0.272011	-2.08061
 197	1	1	0.15357	6.409	-0.610956	-2.04813
 198	1	4	-0.002836	4.60256	1.11521	-1.11384
 199	1	3	-0.349559	5.81526	-0.527538	-0.747608
 200	1	2	0.015925	5.41993	0.546211	1.77427
 201	1	1	0.230077	5.34604	0.777979	-0.381314
 202	1	2	0.052641	7.26164	1.43705	0.402395
 203	1	4	-0.023623	8.27656	2.1577	-1.63962
 204	1	1	-0.072969	6.89957	-2.05152	-2.2911
 205	1	2	0.031276	5.1206	-3.68298	-0.792846
 206	1	2	0.023309	4.12472	-2.37448	-1.47604
 207	1	2	0.030094	3.96807	-4.02198	-2.10079
 208	1	5	0.077888	5.68421	-0.321375	-2.82025
 209	1	1	0.09092	5.78175	-3.00956	-2.76907
 210	1	2	0.047821	7.68465	-2.03012	-3.05735
 211	1	2	0.068339	7.3637	-2.44238	-1.37712
 212	1	1	-0.129023	4.68505	-3.28528	-1.71802
 213	1	2	-0.006475	5.31775	-2.60413	-3.67745
 214	1	2	-0.010814	6.23918	-3.96575	-3.05271
 215	1	1	-0.019372	4.65768	0.683916	0.997046
 216	1	2	0.00686	4.15652	1.63527	1.21204
 217	1	1	-0.084968	6.29386	2.76039	-5.4164
 218	1	1	0.309483	7.23724	3.15821	-6.57384
 219	1	2	-0.002	5.47308	2.13318	-5.78826
 220	1	3	-0.436564	8.19097	2.09232	-6.77369
 221	1	1	0.15357	8.99731	1.71846	-5.63152
 222	1	4	-0.002836	6.86998	0.919405	-4.45996
 223	1	3	-0.349559	8.4429	2.26083	-4.41761
 224	1	2	0.015925	6.62123	3.45405	-2.74824
 225	1	1	0.230077	7.0368	1.99281	-4.30141
 226	1	2	0.052641	5.83437	3.67215	-5.01567
 227	1	4	-0.023623	7.76828	4.0768	-6.2913
 228	1	1	-0.072969	10.4228	2.26657	-5.82857
 229	1	2	0.031276	10.7741	-0.277941	-4.51559
 230	1	2	0.023309	12.043	-0.0440912	-5.7425
 231	1	2	0.030094	12.4477	0.0205826	-4.0154
 232	1	5	0.077888	9.02369	0.623099	-5.56705
 233	1	1	0.09092	11.4264	1.80571	-4.74537
 234	1	2	0.047821	10.7864	1.93697	-6.80716
 235	1	2	0.068339	10.3878	3.3624	-5.84904
 236	1	1	-0.129023	11.6845	0.283605	-4.75839
 237	1	2	-0.006475	12.3807	2.3219	-4.91036
 238	1	2	-0.010814	11.0742	2.10948	-3.75152
 239	1	1	-0.019372	6.53551	2.36926	-2.89127
 240	1	2	0.00686	5.46598	2.13604	-2.83712
 241	1	1	-0.084968	8.53278	3.79232	-9.38812
 242	1	1	0.309483	9.08015	4.72282	-10.4884
 243	1	2	-0.002	9.244	3.75209	-8.55519
 244	1	3	-0.436564	8.07324	4.85689	-11.5076
 245	1	1	0.15357	6.78235	5.31941	-11.0738
 246	1	4	-0.002836	7.3369	5.30603	-8.40799
 247	1	3	-0.349559	6.30293	4.48172	-10.0087
 248	1	2	0.015925	5.49064	3.86603	-7.63735
 249	1	1	0.230077	7.18015	4.3276	-8.88088
 250	1	2	0.052641	8.40871	2.77483	-9.77965
 251	1	4	-0.023623	9.27847	5.71057	-10.0522
 252	1	1	-0.072969	5.81695	5.20701	-12.2693
 253	1	2	0.031276	2.44475	5.96036	-12.8893
 254	1	2	0.023309	3.83035	6.43504	-13.8944
 255	1	2	0.030094	3.44509	4.71303	-13.6642
 256	1	5	0.077888	6.85092	6.36023	-10.7309
 257	1	1	0.09092	4.37978	5.65854	-11.9258
 258	1	2	0.047821	6.2046	5.82045	-13.092
 259	1	2	0.068339	5.80101	4.1686	-12.6237
 260	1	1	-0.129023	3.47086	5.69268	-13.1705
 261	1	2	-0.006475	3.94365	4.97773	-11.1835
 262	1	2	-0.010814	4.40403	6.65756	-11.472
 263	1	1	-0.019372	6.45418	3.40052	-7.88279
 264	1	2	0.00686	6.22241	2.43876	-8.35949
 265	1	1	-0.084968	11.7588	2.84418	-9.45286
 266	1	1	0.309483	12.931	1.97429	-9.93342
 267	1	2	-0.002	11.9087	3.08592	-8.39477
 268	1	3	-0.436564	12.9784	2.06705	-11.3618
 269	1	1	0.15357	13.3776	3.36114	-11.8441
 270	1	4	-0.002836	11.5079	4.98649	-9.53948
 271	1	3	-0.349559	12.8008	4.41732	-11.0362
 272	1	2	0.015925	10.5766	4.90817	-12.0095
 273	1	1	0.230077	11.6063	4.16234	-10.2573
 274	1	2	0.052641	10.8423	2.24685	-9.51597
 275	1	4	-0.023623	13.8731	2.33552	-9.50098
 276	1	1	-0.072969	12.9474	3.46591	-13.3257
 277	1	2	0.031276	11.9296	6.06701	-13.7933
 278	1	2	0.023309	13.2884	6.29975	-12.6662
 279	1	2	0.030094	13.4393	6.81464	-14.351
 280	1	5	0.077888	14.471	3.43876	-11.7834
 281	1	1	0.09092	13.5758	4.65409	-14.0928
 282	1	2	0.047821	13.2597	2.54255	-13.8296
 283	1	2	0.068339	11.8565	3.49873	-13.4115
 284	1	1	-0.129023	13.022	6.03936	-13.6969
 285	1	2	-0.006475	14.6653	4.64308	-13.9615
 286	1	2	-0.010814	13.3904	4.50719	-15.1645
 287	1	1	-0.019372	10.365	4.21509	-11.1858
 288	1	2	0.00686	10.1845	3.2315	-11.6385
 289	1	2	0	-0.981066	-4.78996	9.20195
 290	1	4	0	12.779	0.93441	-9.61849

Velocities

   1	-7.38998e-05	0.000489072	-0.000259941
   2	7.42326e-08	0.000278851	-0.000191643
   3	-0.000453512	0.00056313	-0.000270034
   4	0.00013848	0.000294748	-5.46509e-05
   5	0.000261631	0.000345953	-8.02888e-05
   6	-0.00025501	0.000309922	-0.000320309
   7	0.000246966	0.000471822	-0.000195619
   8	-0.000518376	0.00090314	-0.000183434
   9	-0.000120987	0.000513504	-0.0002564
  10	3.11281e-05	0.000864172	-0.000284767
  11	-5.76104e-05	0.000173912	-0.000268508
  12	0.000413846	0.00033942	-0.000290044
  13	0.000349331	-0.000136237	-7.14698e-06
  14	0.000401447	6.78058e-05	-0.000606495
  15	0.000141374	-0.000462932	-0.000497229
  16	0.000234876	0.00027418	8.53732e-05
  17	0.000419484	6.66028e-05	-0.000359794
  18	0.000518332	0.000282286	-0.000321318
  19	0.000453202	0.00044159	-0.000339339
  20	0.000332333	-0.000151861	-0.000382933
  21	0.000521337	6.53763e-05	-0.000456564
  22	0.00028284	0.000133236	-0.000300174
  23	-0.000299504	0.000689451	-0.000133333
  24	-0.000250764	0.000617216	0.000193172
  25	7.68016e-05	-6.68151e-05	4.5548e-05
  26	0.000370992	9.52975e-05	7.63682e-05
  27	5.99815e-05	-0.000259573	6.99798e-05
  28	0.000395076	0.00052565	0.000176053
  29	0.000102478	-8.8788e-05	0.00019679
  30	-0.000246161	1.11595e-05	8.67998e-06
  31	-0.00010132	-0.000404464	-0.000256197
  32	-1.05218e-05	-8.56278e-05	-4.24788e-05
  33	-1.47265e-05	-9.76325e-05	-0.000101712
  34	-7.42642e-05	0.000102519	-8.40788e-05
  35	0.000741968	-9.83579e-05	-0.000108951
  36	3.19538e-05	-0.0003883	-7.7365e-05
  37	-0.000169677	-0.000290683	-0.000974882
  38	-0.000692287	-0.000691721	-0.00039702
  39	-0.000154737	-0.000148963	-0.000253924
  40	1.67376e-05	-0.000254819	0.000812575
  41	-0.000203889	-0.00021866	-0.000121351
  42	-0.000169818	-0.000588024	-0.00023637
  43	0.000271773	-0.000626908	7.97287e-05
  44	-0.000302474	-0.000347702	-0.000457965
  45	-0.000235055	-0.000144824	-2.35533e-06
  46	-0.00031178	-0.000122096	-7.82642e-05
  47	-1.9179e-05	-4.58121e-05	-0.000124479
  48	-5.84055e-06	-0.000150144	-9.79195e-05
  49	2.01162e-05	-0.000224836	0.00014029
  50	0.000143294	8.10657e-05	-0.000196859
  51	1.93357e-05	-0.000501614	0.000121878
  52	0.000369656	-0.000209459	-0.000616261
  53	0.000375545	-0.00029252	-0.000281434
  54	4.96454e-05	-0.000663984	-6.90148e-05
  55	0.000284682	-0.000385295	-0.000245033
  56	-0.000435137	-0.000368626	0.000485337
  57	4.7489e-05	-0.000420272	-4.65299e-05
  58	-0.000108418	-0.000108	0.000350492
  59	0.000186187	0.000400366	-0.000161179
  60	0.000152299	-0.000598183	6.96522e-06
  61	-0.00165741	-0.000495763	-0.000367206
  62	0.00109559	-7.75508e-06	-0.000159396
  63	-0.000402879	0.00150279	-0.00178595
  64	0.000625115	-6.89545e-05	-0.000106507
  65	2.37655e-05	-2.5359e-05	-0.000376983
  66	-0.000373923	-0.00082005	0.000439287
  67	0.000652335	-0.001116	6.74546e-05
  68	-0.000246207	0.000259398	-0.000674122
  69	0.000395823	0.000273895	-0.000318554
  70	-0.000326645	-7.07354e-05	-0.000577241
  71	-3.82529e-05	-0.000371031	8.0628e-05
  72	-1.83503e-05	-0.000858788	-0.000203561
  73	4.32427e-05	0.000321531	0.000171061
  74	-0.000176415	0.000222736	6.25012e-05
  75	4.68723e-05	0.000356247	0.000258029
  76	-0.000275407	0.000223104	-0.000225428
  77	-0.00027915	0.000233491	-0.000173316
  78	4.54059e-05	0.00024557	6.44079e-05
  79	-5.31191e-06	0.000273154	-3.86253e-05
  80	-3.3516e-05	0.000341349	-6.84563e-05
  81	5.62782e-05	0.000263271	2.9782e-05
  82	0.00012453	0.000364308	7.21277e-05
  83	-0.000152115	0.000269482	6.23593e-05
  84	-0.000305551	0.000252844	-0.000303263
  85	-8.42137e-05	0.000246747	6.36432e-05
  86	-9.87338e-05	-0.000117378	0.000151787
  87	0.000144591	0.000309952	0.000299182
  88	-0.000426472	0.000284345	-5.04006e-05
  89	-0.000221152	0.000310603	-0.00014518
  90	-0.00039889	0.00026091	-0.000382321
  91	-0.00024206	0.000148552	-0.000354747
  92	-5.54663e-05	0.000183476	0.00010948
  93	-0.000231707	0.000288714	-0.000139826
  94	-0.000137147	0.000506379	-0.00020728
  95	3.95774e-05	0.000300917	-2.18873e-05
  96	2.54162e-05	0.000324674	-1.40582e-05
  97	-3.41406e-05	5.33365e-05	0.000130586
  98	-0.000152926	-5.43538e-06	-4.07948e-05
  99	9.4225e-05	1.56522e-05	0.000183571
 100	-0.000254416	1.45376e-05	9.72208e-05
 101	-5.5484e-05	-9.11687e-05	-1.82765e-05
 102	-6.39036e-05	0.000307548	0.000237827
 103	-0.000208672	-2.53928e-05	0.000157577
 104	-0.00061052	9.9929e-06	0.00068269
 105	-0.00018872	0.000124163	0.000211204
 106	-2.73205e-05	7.60934e-06	-3.3262e-05
 107	-0.000165654	7.70952e-05	-3.76293e-05
 108	0.000353045	-0.000252024	0.000284728
 109	0.000662196	0.000106768	0.000306887
 110	0.00105716	0.000492296	-0.000562957
 111	0.000496008	-0.000418175	-0.000595439
 112	1.98214e-05	-1.10565e-05	-0.000323135
 113	0.000595225	-6.24789e-05	1.99743e-05
 114	0.000687239	-0.000278701	0.000367942
 115	0.00021179	-0.000535581	0.000549239
 116	0.000695513	5.13635e-05	-0.000227674
 117	0.000811052	0.000120488	0.00024783
 118	0.000573977	-5.10914e-05	-0.00013537
 119	-0.000465	0.000205897	0.000319197
 120	-0.000796099	0.000442219	0.000197207
 121	-0.00041714	0.000107462	0.000343251
 122	-0.000300262	0.000305083	0.00029314
 123	-0.000716742	0.000295257	0.000643434
 124	-0.0001232	0.00022053	0.000151943
 125	0.000272281	8.60831e-05	-5.81028e-05
 126	0.000129511	0.000417586	8.54082e-05
 127	0.000180585	-8.21077e-05	-0.000272419
 128	-7.96612e-05	0.000355246	-0.000182473
 129	-7.90382e-05	0.000131897	2.32498e-05
 130	-0.000636644	-0.000359354	0.000306036
 131	-0.000486723	0.000318938	0.000348332
 132	0.000340492	-7.23625e-05	-0.000272648
 133	0.00045155	-0.00034463	0.00109563
 134	0.000749464	-0.000133577	0.000333301
 135	0.00123566	-0.000428933	0.000625798
 136	0.000554555	0.000285997	7.14633e-05
 137	0.000358565	8.81268e-05	0.000209872
 138	-7.85134e-05	-0.000194717	-0.000464005
 139	0.000680438	-0.000229154	-0.000550325
 140	0.000730658	-0.000217113	0.000600667
 141	0.0001817	0.000206233	0.000345183
 142	0.00018553	0.000227812	0.000237183
 143	-4.01088e-05	0.000134447	-7.87707e-05
 144	4.932e-05	-1.48755e-05	-0.000301613
 145	-0.000113213	0.000400517	0.000633192
 146	2.04205e-05	1.85586e-05	0.000681377
 147	-0.000148443	0.000532267	0.000800325
 148	0.000329737	-0.000132419	0.000520006
 149	9.2965e-05	0.000131544	0.000552898
 150	-0.000204024	0.000702887	0.000399844
 151	-0.000180478	0.000484884	0.000391904
 152	-0.000209675	0.000648549	0.000659025
 153	-0.000184026	0.000531449	0.000393364
 154	-0.000112057	0.000459779	0.000702495
 155	-0.000113522	0.000263714	0.000672747
 156	-7.44233e-05	-5.63793e-05	0.000125504
 157	9.1579e-05	-0.000169567	0.00037917
 158	-0.000195995	0.000890917	6.74765e-05
 159	0.000510337	0.000424438	0.00103555
 160	0.000136398	0.000260808	0.000863262
 161	-7.72741e-05	-0.000449104	0.000119354
 162	-0.000135099	-0.000241703	-2.90972e-05
 163	-0.000169167	0.000278498	-5.95475e-05
 164	8.45917e-05	0.000202822	0.000431043
 165	0.000203218	-0.00109067	0.000438714
 166	-0.00054399	-0.000693238	-0.000437348
 167	-0.000157363	0.00055289	0.000369189
 168	2.29006e-05	0.000760602	0.000223287
 169	-0.000726102	-0.00109634	-6.01258e-05
 170	-0.000503037	-0.000684235	3.99215e-05
 171	-0.000756699	-0.00186858	3.79365e-05
 172	-0.000335431	0.000300036	5.87124e-05
 173	-0.00047423	6.84204e-05	0.000438226
 174	0.000121502	-0.000875506	0.000424204
 175	-0.000415318	-0.00020878	0.000437861
 176	-0.000478019	-0.000278319	0.000782038
 177	-0.000293869	-0.000691979	0.000423929
 178	-0.00120221	-0.000913283	-0.000595839
 179	-0.00104337	-0.000885864	-0.000467597
 180	-0.000373191	-0.000146498	0.000324784
 181	-1.70726e-05	0.000849412	0.00147146
 182	-0.00033662	-0.000435534	0.000697092
 183	0.000852346	-0.000562106	0.00170246
 184	-0.000675101	0.000142379	0.000595679
 185	-0.000348891	-0.000313702	0.000786451
 186	-0.00039155	7.32521e-05	1.51876e-05
 187	-0.000169337	-0.000504882	0.000165729
 188	4.93514e-05	-8.3181e-05	0.00118509
 189	-0.000522036	-0.000692491	0.000898703
 190	-0.000387843	-0.000356948	0.000735156
 191	-0.000236374	-0.000348836	0.000582687
 192	-0.000108581	-0.00044648	0.000484275
 193	-0.000200661	-0.000545517	0.000111785
 194	-0.000410798	-0.000274276	-8.75118e-05
 195	-0.000489855	-0.00066126	0.000250458
 196	-0.000307559	-0.000184427	-0.000308119
 197	-4.8057e-05	-0.000493605	0.00021599
 198	-2.64481e-06	-0.00128837	0.00048698
 199	0.000552533	-0.000778848	0.00050913
 200	0.00022545	-0.00222325	0.000399081
 201	0.000128896	-0.000980162	0.000463828
 202	6.95463e-05	-0.000315754	-5.09054e-05
 203	-0.00037702	-0.000304367	-6.08688e-05
 204	0.000276431	-0.000282104	-0.000122914
 205	0.000132937	0.00238684	0.000539128
 206	-0.000929753	0.000108073	-0.00229364
 207	0.00118864	-0.00123736	0.000523886
 208	-0.000561354	-0.000645365	0.000655655
 209	0.000399509	-0.000322238	-0.000254452
 210	0.000325802	-8.35758e-06	-0.00010448
 211	0.000307723	-0.000413531	-0.000207399
 212	0.00016373	0.000231	-0.000386302
 213	0.000683706	-0.000531373	-0.00050472
 214	0.000433412	-0.000432802	0.000156139
 215	0.000207451	-0.00126679	0.000575102
 216	0.000806792	-0.00110801	0.00120514
 217	-0.000224193	-0.00020114	-0.000384933
 218	-7.39426e-05	7.03363e-05	-0.000311044
 219	7.79304e-05	-0.000397596	-0.000672827
 220	-8.82209e-05	6.54182e-05	-0.000273224
 221	-0.000200259	7.69443e-05	-0.000327836
 222	-0.000395193	-0.000143812	-0.000160448
 223	-0.000301202	-0.000212015	-0.000205793
 224	9.09714e-05	-7.52057e-05	-0.000111629
 225	-0.000341233	-0.000132741	-0.000217307
 226	-0.000547877	-0.000327991	-0.000473655
 227	-7.15113e-05	1.0968e-05	-0.000121723
 228	-0.000302452	0.000533127	-8.91441e-05
 229	-0.000816532	0.000895664	0.000923504
 230	-0.00139347	0.00049001	0.000267442
 231	-0.000533353	0.000689498	6.87937e-05
 232	5.76009e-05	6.97293e-05	-0.000512819
 233	-0.000617359	0.000692847	0.000196172
 234	2.23813e-05	0.000642339	-2.80525e-05
 235	-0.000637914	0.000524934	-0.000101585
 236	-0.000844842	0.000681968	0.000397974
 237	-0.000552646	0.000666052	0.000361359
 238	-0.000885164	0.000858685	8.69134e-05
 239	-0.000240676	-6.88106e-05	-8.51752e-05
 240	-0.000338028	0.000257939	4.66955e-05
 241	0.0001762	-0.00037136	-0.00051786
 242	0.000233714	-0.000425404	-0.00064138
 243	0.000202525	-0.000335967	-0.00060444
 244	0.000265911	-0.000399127	-0.000606352
 245	0.000510556	-7.33846e-05	-0.000460115
 246	0.000363298	-0.000157097	-0.000717922
 247	0.000362193	-0.000202203	-0.000610561
 248	0.000164584	1.28763e-05	-0.000596226
 249	0.000248818	-0.000238114	-0.000616769
 250	9.35641e-05	-0.000360009	-0.000515081
 251	0.000273225	-0.000455461	-0.000766913
 252	0.000408344	0.000629996	-0.000397283
 253	0.000522925	0.00110204	0.000138207
 254	0.000684929	-0.00160653	-0.0009818
 255	-0.000815835	-0.000935725	0.00166398
 256	0.000854815	-0.000245938	-0.00010213
 257	0.000537717	0.000611097	-5.42413e-05
 258	0.000402861	0.00100374	-0.000123128
 259	0.000238995	0.000813981	-0.000938906
 260	0.000167728	-0.000240352	0.000243024
 261	0.000844227	0.00090191	0.000399488
 262	0.000578327	0.000820985	-0.000470344
 263	0.000169444	-4.33904e-05	-0.000406426
 264	0.000183849	-8.43884e-05	-0.000293601
 265	0.000672569	0.000776041	0.000369605
 266	-1.39686e-05	0.000163208	-0.000307893
 267	0.00191073	0.00138241	7.12883e-05
 268	-0.000528834	0.000360615	-0.000291181
 269	-0.00021433	0.000257702	-0.00024124
 270	-0.000474138	0.000602407	-0.000717564
 271	-0.000110884	0.00042965	-0.000414645
 272	-7.05937e-05	-0.000930889	-0.000813372
 273	5.42621e-05	0.000316591	-0.000322606
 274	0.000528267	0.000897934	0.00178486
 275	0.000366434	-0.00065592	-0.000631834
 276	-0.000172286	0.000326327	-0.000200224
 277	5.41637e-05	-5.67306e-05	0.000372287
 278	0.000836334	0.000759363	-0.000697403
 279	-0.000544894	-1.83521e-05	-0.00107636
 280	-0.000203445	0.000201513	-0.000185751
 281	0.000242566	0.000178683	-7.00228e-05
 282	-0.0004787	0.00020665	-0.000161786
 283	-0.000178872	0.000726292	-0.000264246
 284	0.000129983	0.000244601	-0.000398936
 285	0.000125652	8.8123e-05	0.000445195
 286	0.000619364	2.90854e-05	-0.000127595
 287	0.000108609	-0.000596079	-0.000475939
 288	0.000370026	-0.000860243	1.21212e-05
 289	-0.0002034	0.000685819	-0.00026968
 290	-0.000603545	0.000106415	-0.000494566

Bonds

   1	4	1	2
   2	3	1	3
   3	4	1	9
   4	3	1	10
   5	2	2	4
   6	1	2	11
   7	2	4	5
   8	2	5	7
   9	4	5	12
  10	5	5	16
  11	1	6	9
  12	2	7	9
  13	3	8	23
  14	4	9	23
  15	4	12	17
  16	3	12	18
  17	3	12	19
  18	3	13	20
  19	3	14	20
  20	3	15	20
  21	4	17	20
  22	3	17	21
  23	3	17	22
  24	3	23	24
  25	4	25	26
  26	3	25	27
  27	4	25	33
  28	3	25	34
  29	2	26	28
  30	1	26	35
  31	2	28	29
  32	2	29	31
  33	4	29	36
  34	5	29	40
  35	1	30	33
  36	2	31	33
  37	3	32	47
  38	4	33	47
  39	4	36	41
  40	3	36	42
  41	3	36	43
  42	3	37	44
  43	3	38	44
  44	3	39	44
  45	4	41	44
  46	3	41	45
  47	3	41	46
  48	3	47	48
  49	4	2	47
  50	4	49	50
  51	3	49	51
  52	4	49	57
  53	3	49	58
  54	2	50	52
  55	1	50	59
  56	2	52	53
  57	2	53	55
  58	4	53	60
  59	5	53	64
  60	1	54	57
  61	2	55	57
  62	3	56	71
  63	4	57	71
  64	4	60	65
  65	3	60	66
  66	3	60	67
  67	3	61	68
  68	3	62	68
  69	3	63	68
  70	4	65	68
  71	3	65	69
  72	3	65	70
  73	3	71	72
  74	4	26	71
  75	4	73	74
  76	3	73	75
  77	4	73	81
  78	3	73	82
  79	2	74	76
  80	1	74	83
  81	2	76	77
  82	2	77	79
  83	4	77	84
  84	5	77	88
  85	1	78	81
  86	2	79	81
  87	3	80	95
  88	4	81	95
  89	4	84	89
  90	3	84	90
  91	3	84	91
  92	3	85	92
  93	3	86	92
  94	3	87	92
  95	4	89	92
  96	3	89	93
  97	3	89	94
  98	3	95	96
  99	4	50	95
 100	4	97	98
 101	3	97	99
 102	4	97	105
 103	3	97	106
 104	2	98	100
 105	1	98	107
 106	2	100	101
 107	2	101	103
 108	4	101	108
 109	5	101	112
 110	1	102	105
 111	2	103	105
 112	3	104	119
 113	4	105	119
 114	4	108	113
 115	3	108	114
 116	3	108	115
 117	3	109	116
 118	3	110	116
 119	3	111	116
 120	4	113	116
 121	3	113	117
 122	3	113	118
 123	3	119	120
 124	4	74	119
 125	4	121	122
 126	3	121	123
 127	4	121	129
 128	3	121	130
 129	2	122	124
 130	1	122	131
 131	2	124	125
 132	2	125	127
 133	4	125	132
 134	5	125	136
 135	1	126	129
 136	2	127	129
 137	3	128	143
 138	4	129	143
 139	4	132	137
 140	3	132	138
 141	3	132	139
 142	3	133	140
 143	3	134	140
 144	3	135	140
 145	4	137	140
 146	3	137	141
 147	3	137	142
 148	3	143	144
 149	4	98	143
 150	4	145	146
 151	3	145	147
 152	4	145	153
 153	3	145	154
 154	2	146	148
 155	1	146	155
 156	2	148	149
 157	2	149	151
 158	4	149	156
 159	5	149	160
 160	1	150	153
 161	2	151	153
 162	3	152	167
 163	4	153	167
 164	4	156	161
 165	3	156	162
 166	3	156	163
 167	3	157	164
 168	3	158	164
 169	3	159	164
 170	4	161	164
 171	3	161	165
 172	3	161	166
 173	3	167	168
 174	4	122	167
 175	4	169	170
 176	3	169	171
 177	4	169	177
 178	3	169	178
 179	2	170	172
 180	1	170	179
 181	2	172	173
 182	2	173	175
 183	4	173	180
 184	5	173	184
 185	1	174	177
 186	2	175	177
 187	3	176	191
 188	4	177	191
 189	4	180	185
 190	3	180	186
 191	3	180	187
 192	3	181	188
 193	3	182	188
 194	3	183	188
 195	4	185	188
 196	3	185	189
 197	3	185	190
 198	3	191	192
 199	4	146	191
 200	4	193	194
 201	3	193	195
 202	4	193	201
 203	3	193	202
 204	2	194	196
 205	1	194	203
 206	2	196	197
 207	2	197	199
 208	4	197	204
 209	5	197	208
 210	1	198	201
 211	2	199	201
 212	3	200	215
 213	4	201	215
 214	4	204	209
 215	3	204	210
 216	3	204	211
 217	3	205	212
 218	3	206	212
 219	3	207	212
 220	4	209	212
 221	3	209	213
 222	3	209	214
 223	3	215	216
 224	4	170	215
 225	4	217	218
 226	3	217	219
 227	4	217	225
 228	3	217	226
 229	2	218	220
 230	1	218	227
 231	2	220	221
 232	2	221	223
 233	4	221	228
 234	5	221	232
 235	1	222	225
 236	2	223	225
 237	3	224	239
 238	4	225	239
 239	4	228	233
 240	3	228	234
 241	3	228	235
 242	3	229	236
 243	3	230	236
 244	3	231	236
 245	4	233	236
 246	3	233	237
 247	3	233	238
 248	3	239	240
 249	4	194	239
 250	4	241	242
 251	3	241	243
 252	4	241	249
 253	3	241	250
 254	2	242	244
 255	1	242	251
 256	2	244	245
 257	2	245	247
 258	4	245	252
 259	5	245	256
 260	1	246	249
 261	2	247	249
 262	3	248	263
 263	4	249	263
 264	4	252	257
 265	3	252	258
 266	3	252	259
 267	3	253	260
 268	3	254	260
 269	3	255	260