pySIMM System Object

1200 atoms
1249 bonds
2494 angles
3734 dihedrals
0 impropers

5 atom types
5 bond types
11 angle types
8 dihedral types

-142.496737 142.496737 xlo xhi
-142.496737 142.496737 ylo yhi
-142.496737 142.496737 zlo zhi

Masses

   1	12.01	# c3
   2	1.008	# hc
   3	16.0	# os
   4	1.008	# h1
   5	1.008	# h2

Pair Coeffs

   1	0.1094	3.3996695084235347	# c3
   2	0.0157	2.649532787749369	# hc
   3	0.17	3.0000123434657784	# os
   4	0.0157	2.471353044121301	# h1
   5	0.0157	2.2931733004932333	# h2

Bond Coeffs

   1	330.6	1.0969	# c3,h1
   2	308.6	1.4316	# c3,os
   3	330.6	1.0969	# c3,hc
   4	300.9	1.5375	# c3,c3
   5	331.7	1.0961	# c3,h2

Angle Coeffs

   1	62.7	112.48	# c3,os,c3
   2	50.85	109.58	# h2,c3,os
   3	68.0	107.97	# c3,c3,os
   4	72.74	108.29	# os,c3,os
   5	46.34	109.8	# c3,c3,hc
   6	46.25	110.22	# c3,c3,h2
   7	50.8	109.78	# h1,c3,os
   8	46.39	109.56	# c3,c3,h1
   9	39.4	107.58	# hc,c3,hc
  10	39.24	108.46	# h1,c3,h1
  11	62.86	111.51	# c3,c3,c3

Dihedral Coeffs

   1	3	0.18	3	0	0.25	2	180	0.2	1	180	# c3,c3,c3,c3
   2	2	0.0	3	0	0.25	1	0	# hc,c3,c3,os
   3	1	0.3833333333333333	3	0	# X,c3,os,X
   4	1	0.15	3	0	# hc,c3,c3,hc
   5	2	0.383	3	0	0.1	2	180	# c3,c3,os,c3
   6	1	0.16	3	0	# hc,c3,c3,c3
   7	3	0.1	3	0	0.85	2	180	1.35	1	180	# c3,os,c3,os
   8	1	0.15555555555555556	3	0	# X,c3,c3,X

Atoms

   1	1	1	-0.084968	-67.8071	36.9521	55.3244
   2	1	1	0.309483	-67.8265	36.4607	56.7858
   3	1	2	-0.002	-67.3315	36.2083	54.6731
   4	1	3	-0.436564	-68.5351	37.4371	57.5702
   5	1	1	0.15357	-69.8794	37.724	57.1439
   6	1	4	-0.002836	-69.8003	36.2474	54.8579
   7	1	3	-0.349559	-69.8738	38.1213	55.7596
   8	1	2	0.015925	-70.3492	37.9509	53.1308
   9	1	1	0.230077	-69.2505	37.1974	54.8519
  10	1	2	0.052641	-67.2261	37.8802	55.2518
  11	1	4	-0.023623	-68.3605	35.5031	56.8374
  12	1	1	-0.072969	-70.4058	38.8963	57.9951
  13	1	2	0.031276	-72.7126	37.2818	57.3344
  14	1	2	0.023309	-72.7816	37.8038	59.0352
  15	1	2	0.030094	-73.9044	38.4907	57.843
  16	1	5	0.077888	-70.5053	36.8325	57.2784
  17	1	1	0.09092	-71.8744	39.277	57.6938
  18	1	2	0.047821	-70.31	38.6399	59.0576
  19	1	2	0.068339	-69.7664	39.7711	57.8241
  20	1	1	-0.129023	-72.8755	38.1416	57.9955
  21	1	2	-0.006475	-72.1414	40.152	58.2998
  22	1	2	-0.010814	-71.9752	39.5821	56.6445
  23	1	1	-0.019372	-69.306	37.802	53.4362
  24	1	2	0.00686	-68.808	38.7799	53.4156
  25	1	1	-0.084968	-64.1793	35.0645	57.3745
  26	1	1	0.309483	-63.4035	33.9497	56.6514
  27	1	2	-0.002	-63.604	35.9991	57.3544
  28	1	3	-0.436564	-64.2271	32.7687	56.6741
  29	1	1	0.15357	-65.5173	32.909	56.0502
  30	1	4	-0.002836	-65.3558	35.6059	55.6501
  31	1	3	-0.349559	-66.2282	34.0052	56.6541
  32	1	2	0.015925	-66.5338	35.9994	58.4601
  33	1	1	0.230077	-65.5372	35.268	56.6781
  34	1	2	0.052641	-64.3324	34.7909	58.4262
  35	1	4	-0.023623	-63.2399	34.2621	55.6122
  36	1	1	-0.072969	-66.339	31.626	56.2827
  37	1	2	0.031276	-67.5462	29.2838	55.254
  38	1	2	0.023309	-66.0878	28.271	55.2799
  39	1	2	0.030094	-66.7673	28.8801	56.8033
  40	1	5	0.077888	-65.3933	33.0935	54.9746
  41	1	1	0.09092	-65.6934	30.3829	55.6341
  42	1	2	0.047821	-66.4588	31.4591	57.3608
  43	1	2	0.068339	-67.3434	31.7721	55.8668
  44	1	1	-0.129023	-66.5806	29.1293	55.7512
  45	1	2	-0.006475	-65.4874	30.5812	54.5743
  46	1	2	-0.010814	-64.7342	30.1776	56.12
  47	1	1	-0.019372	-66.4215	36.301	57.4106
  48	1	2	0.00686	-65.9116	37.2733	57.4142
  49	1	1	-0.084968	-61.6215	31.1332	56.8713
  50	1	1	0.309483	-61.891	30.3765	55.5593
  51	1	2	-0.002	-60.8324	30.6203	57.4366
  52	1	3	-0.436564	-60.7424	30.5868	54.7194
  53	1	1	0.15357	-60.5016	31.9542	54.3224
  54	1	4	-0.002836	-60.142	32.6942	56.9567
  55	1	3	-0.349559	-61.2	32.8779	55.1822
  56	1	2	0.015925	-62.191	33.3598	58.3685
  57	1	1	0.230077	-61.1747	32.5936	56.5991
  58	1	2	0.052641	-62.5164	31.1007	57.5031
  59	1	4	-0.023623	-62.7799	30.803	55.0777
  60	1	1	-0.072969	-61.0495	32.1545	52.8942
  61	1	2	0.031276	-60.8404	32.6595	50.1256
  62	1	2	0.023309	-60.1468	31.0873	49.6737
  63	1	2	0.030094	-61.7847	31.1691	50.3553
  64	1	5	0.077888	-59.4242	32.1628	54.3514
  65	1	1	0.09092	-60.1884	31.4464	51.8254
  66	1	2	0.047821	-62.0807	31.7824	52.8448
  67	1	2	0.068339	-61.0867	33.2279	52.6707
  68	1	1	-0.129023	-60.7776	31.6016	50.4095
  69	1	2	-0.006475	-59.1721	31.8606	51.8417
  70	1	2	-0.010814	-60.1012	30.3792	52.0576
  71	1	1	-0.019372	-62.037	33.6584	57.3236
  72	1	2	0.00686	-61.463	34.5934	57.3569
  73	1	1	-0.084968	-61.5939	27.7245	53.5105
  74	1	1	0.309483	-62.2353	27.0044	52.31
  75	1	2	-0.002	-61.0024	28.5737	53.1557
  76	1	3	-0.436564	-63.0909	25.9572	52.8154
  77	1	1	0.15357	-64.0565	26.3027	53.83
  78	1	4	-0.002836	-63.3648	28.8819	54.015
  79	1	3	-0.349559	-63.4155	27.0162	54.9039
  80	1	2	0.015925	-62.8383	28.7343	56.5927
  81	1	1	0.230077	-62.6766	28.1835	54.5069
  82	1	2	0.052641	-60.8999	27.0387	54.0121
  83	1	4	-0.023623	-61.4315	26.5475	51.7193
  84	1	1	-0.072969	-64.6447	24.9894	54.3771
  85	1	2	0.031276	-66.803	23.3014	55.0261
  86	1	2	0.023309	-65.6696	23.3107	56.3978
  87	1	2	0.030094	-67.2545	24.0996	56.5476
  88	1	5	0.077888	-64.8512	26.9221	53.3953
  89	1	1	0.09092	-65.8171	25.226	55.3533
  90	1	2	0.047821	-64.9936	24.3782	53.5353
  91	1	2	0.068339	-63.8514	24.4213	54.8791
  92	1	1	-0.129023	-66.4218	23.9026	55.8612
  93	1	2	-0.006475	-65.4754	25.8171	56.2125
  94	1	2	-0.010814	-66.6001	25.8084	54.8508
  95	1	1	-0.019372	-62.1166	28.8636	55.7759
  96	1	2	0.00686	-61.1867	28.3781	56.0995
  97	1	1	-0.084968	-64.718	26.3253	50.2645
  98	1	1	0.309483	-65.6433	26.3433	49.0306
  99	1	2	-0.002	-64.3524	25.3077	50.453
 100	1	3	-0.436564	-64.8169	26.5386	47.8666
 101	1	1	0.15357	-64.155	27.8192	47.8022
 102	1	4	-0.002836	-62.6677	26.7029	49.6528
 103	1	3	-0.349559	-63.8668	28.3039	49.1325
 104	1	2	0.015925	-62.3614	28.7891	51.1017
 105	1	1	0.230077	-63.5043	27.2742	50.0767
 106	1	2	0.052641	-65.3075	26.6203	51.1398
 107	1	4	-0.023623	-66.3308	27.1927	49.1303
 108	1	1	-0.072969	-65.0864	28.8353	47.1043
 109	1	2	0.031276	-65.9302	30.4039	44.9112
 110	1	2	0.023309	-66.653	29.0832	43.9709
 111	1	2	0.030094	-67.3415	29.5261	45.5465
 112	1	5	0.077888	-63.2219	27.7131	47.2339
 113	1	1	0.09092	-65.4684	28.4037	45.6693
 114	1	2	0.047821	-65.9972	28.9726	47.7003
 115	1	2	0.068339	-64.5826	29.8089	47.0676
 116	1	1	-0.129023	-66.4054	29.4176	44.9848
 117	1	2	-0.006475	-64.5584	28.2882	45.0665
 118	1	2	-0.010814	-65.9657	27.4262	45.6882
 119	1	1	-0.019372	-63.025	27.9594	51.3761
 120	1	2	0.00686	-63.8802	28.4086	51.8953
 121	1	1	-0.084968	-68.1592	23.8627	47.2966
 122	1	1	0.309483	-68.9435	24.0223	45.9761
 123	1	2	-0.002	-67.5237	22.9687	47.2555
 124	1	3	-0.436564	-69.6813	25.2644	46.0416
 125	1	1	0.15357	-68.9771	26.4656	46.4287
 126	1	4	-0.002836	-66.6092	25.2476	46.7108
 127	1	3	-0.349559	-68.1984	26.2386	47.6149
 128	1	2	0.015925	-67.1492	24.9307	49.7124
 129	1	1	0.230077	-67.3031	25.1165	47.5489
 130	1	2	0.052641	-68.8645	23.7215	48.1249
 131	1	4	-0.023623	-69.6487	23.1866	45.8883
 132	1	1	-0.072969	-69.9976	27.5985	46.6807
 133	1	2	0.031276	-72.3372	26.3352	49.0159
 134	1	2	0.023309	-72.3627	26.1755	47.2469
 135	1	2	0.030094	-71.1114	25.3474	48.2063
 136	1	5	0.077888	-68.3034	26.7668	45.6177
 137	1	1	0.09092	-70.7996	27.5078	48.005
 138	1	2	0.047821	-69.4558	28.5518	46.6729
 139	1	2	0.068339	-70.6976	27.6396	45.8371
 140	1	1	-0.129023	-71.7063	26.2646	48.1215
 141	1	2	-0.006475	-70.1161	27.5416	48.863
 142	1	2	-0.010814	-71.4315	28.4017	48.0829
 143	1	1	-0.019372	-66.4799	25.0579	48.8522
 144	1	2	0.00686	-65.8158	24.1844	48.8254
 145	1	1	-0.084968	-69.8259	24.8152	42.986
 146	1	1	0.309483	-69.1616	26.1612	42.6798
 147	1	2	-0.002	-70.3662	24.4592	42.0988
 148	1	3	-0.436564	-68.3345	25.9392	41.5261
 149	1	1	0.15357	-67.2986	24.9396	41.6185
 150	1	4	-0.002836	-69.2167	22.8039	43.4246
 151	1	3	-0.349559	-67.7294	23.7479	42.3334
 152	1	2	0.015925	-67.2973	23.1976	44.8517
 153	1	1	0.230077	-68.7398	23.7906	43.3731
 154	1	2	0.052641	-70.5751	24.9168	43.7773
 155	1	4	-0.023623	-68.5486	26.4736	43.5314
 156	1	1	-0.072969	-66.0511	25.6104	42.2516
 157	1	2	0.031276	-63.7329	23.179	43.3469
 158	1	2	0.023309	-64.8901	24.0966	44.3296
 159	1	2	0.030094	-65.4663	22.8808	43.1602
 160	1	5	0.077888	-67.0269	24.6387	40.5985
 161	1	1	0.09092	-64.7664	24.7482	42.2434
 162	1	2	0.047821	-65.8385	26.5095	41.66
 163	1	2	0.068339	-66.2538	25.9737	43.2621
 164	1	1	-0.129023	-64.7181	23.6615	43.337
 165	1	2	-0.006475	-64.6308	24.2893	41.2558
 166	1	2	-0.010814	-63.9082	25.4151	42.3961
 167	1	1	-0.019372	-68.0202	24.0137	44.7299
 168	1	2	0.00686	-67.4325	24.9319	44.7033
 169	1	1	-0.084968	-68.4226	28.9358	41.3933
 170	1	1	0.309483	-68.2272	30.4389	41.0973
 171	1	2	-0.002	-67.4804	28.4893	41.7348
 172	1	3	-0.436564	-68.6718	31.2008	42.2379
 173	1	1	0.15357	-70.0613	31.0375	42.6024
 174	1	4	-0.002836	-69.0609	28.786	43.4573
 175	1	3	-0.349559	-70.5189	29.6981	42.315
 176	1	2	0.015925	-70.99	27.2465	43.0992
 177	1	1	0.230077	-69.5106	28.6835	42.4608
 178	1	2	0.052641	-68.6892	28.4316	40.4562
 179	1	4	-0.023623	-68.8346	30.7036	40.2228
 180	1	1	-0.072969	-70.9343	32.0195	41.7927
 181	1	2	0.031276	-72.5512	34.3096	41.5947
 182	1	2	0.023309	-71.2404	35.5071	41.5361
 183	1	2	0.030094	-71.4183	34.3241	40.2228
 184	1	5	0.077888	-70.1714	31.241	43.6755
 185	1	1	0.09092	-70.5743	33.4971	42.0633
 186	1	2	0.047821	-70.8394	31.8068	40.7208
 187	1	2	0.068339	-71.9854	31.8509	42.0573
 188	1	1	-0.129023	-71.5039	34.4669	41.3071
 189	1	2	-0.006475	-70.6432	33.6995	43.14
 190	1	2	-0.010814	-69.5367	33.6913	41.7634
 191	1	1	-0.019372	-70.1711	27.2886	42.3701
 192	1	2	0.00686	-70.6182	27.1376	41.3786
 193	1	1	-0.084968	-65.0493	32.5895	40.1786
 194	1	1	0.309483	-64.796	33.3721	38.8744
 195	1	2	-0.002	-64.7251	33.1785	41.0461
 196	1	3	-0.436564	-65.8739	34.3153	38.7216
 197	1	1	0.15357	-67.1741	33.7206	38.5214
 198	1	4	-0.002836	-66.9991	32.9203	41.0701
 199	1	3	-0.349559	-67.2133	32.3857	39.0717
 200	1	2	0.015925	-66.3547	30.0931	40.0588
 201	1	1	0.230077	-66.549	32.232	40.343
 202	1	2	0.052641	-64.4333	31.6822	40.1661
 203	1	4	-0.023623	-64.8152	32.6594	38.04
 204	1	1	-0.072969	-67.4274	33.6454	36.9988
 205	1	2	0.031276	-70.0667	34.6283	36.9821
 206	1	2	0.023309	-70.9014	33.066	36.8432
 207	1	2	0.030094	-69.9957	33.452	38.3176
 208	1	5	0.077888	-67.9355	34.3467	39.0046
 209	1	1	0.09092	-68.7391	32.9295	36.6014
 210	1	2	0.047821	-67.4396	34.6652	36.5944
 211	1	2	0.068339	-66.5872	33.1294	36.519
 212	1	1	-0.129023	-70.0002	33.5609	37.2261
 213	1	2	-0.006475	-68.8337	32.9549	35.5082
 214	1	2	-0.010814	-68.6857	31.8704	36.8838
 215	1	1	-0.019372	-66.748	30.7787	40.8208
 216	1	2	0.00686	-66.1618	30.6095	41.7338
 217	1	1	-0.084968	-61.8517	35.5504	37.4306
 218	1	1	0.309483	-61.6118	36.1317	36.02
 219	1	2	-0.002	-61.7997	36.3478	38.1832
 220	1	3	-0.436564	-61.8477	35.0964	35.0422
 221	1	1	0.15357	-63.087	34.366	35.1334
 222	1	4	-0.002836	-64.0204	35.5583	37.3453
 223	1	3	-0.349559	-63.2395	33.8449	36.4624
 224	1	2	0.015925	-62.6331	33.4086	39.0415
 225	1	1	0.230077	-63.214	34.8325	37.5061
 226	1	2	0.052641	-61.0499	34.8379	37.6611
 227	1	4	-0.023623	-60.5602	36.4363	35.9515
 228	1	1	-0.072969	-63.0197	33.1903	34.1395
 229	1	2	0.031276	-66.4078	32.5664	33.4036
 230	1	2	0.023309	-65.7942	33.9959	34.2539
 231	1	2	0.030094	-65.2952	33.6779	32.5781
 232	1	5	0.077888	-63.929	35.0272	34.894
 233	1	1	0.09092	-64.3317	32.3767	34.0507
 234	1	2	0.047821	-62.7674	33.5757	33.1437
 235	1	2	0.068339	-62.2012	32.5222	34.4351
 236	1	1	-0.129023	-65.5281	33.2073	33.5411
 237	1	2	-0.006475	-64.1748	31.5299	33.3704
 238	1	2	-0.010814	-64.5755	31.9492	35.0318
 239	1	1	-0.019372	-63.4469	34.1215	38.8565
 240	1	2	0.00686	-63.4202	34.858	39.6698
 241	1	1	-0.084968	-63.3153	37.4282	33.2754
 242	1	1	0.309483	-63.1132	38.1285	31.9189
 243	1	2	-0.002	-63.2401	36.3442	33.1384
 244	1	3	-0.436564	-63.1678	39.5501	32.1344
 245	1	1	0.15357	-62.2233	40.0645	33.0924
 246	1	4	-0.002836	-61.256	37.6658	33.9303
 247	1	3	-0.349559	-62.3688	39.3671	34.3441
 248	1	2	0.015925	-62.2048	38.1579	36.4402
 249	1	1	0.230077	-62.2617	37.9316	34.2818
 250	1	2	0.052641	-64.3108	37.6482	33.6754
 251	1	4	-0.023623	-62.115	37.8689	31.5439
 252	1	1	-0.072969	-62.5204	41.5559	33.3373
 253	1	2	0.031276	-63.5187	44.1152	32.7097
 254	1	2	0.023309	-61.7923	44.2739	33.1131
 255	1	2	0.030094	-62.3391	44.5028	31.438
 256	1	5	0.077888	-61.2001	39.9369	32.715
 257	1	1	0.09092	-62.2968	42.4164	32.0743
 258	1	2	0.047821	-63.5548	41.6699	33.6854
 259	1	2	0.068339	-61.8689	41.9175	34.1424
 260	1	1	-0.129023	-62.4996	43.9188	32.3529
 261	1	2	-0.006475	-61.2791	42.2553	31.696
 262	1	2	-0.010814	-62.9884	42.1029	31.2818
 263	1	1	-0.019372	-62.4766	37.3809	35.7137
 264	1	2	0.00686	-63.5411	37.1728	35.8785
 265	1	1	-0.084968	-66.5286	38.1017	29.9338
 266	1	1	0.309483	-67.9659	38.4309	30.38
 267	1	2	-0.002	-66.1865	38.8459	29.2034
 268	1	3	-0.436564	-68.3585	37.5163	31.4236
 269	1	1	0.15357	-67.4701	37.3863	32.5479
 270	1	4	-0.002836	-65.6415	39.1148	31.6197
 271	1	3	-0.349559	-66.1314	37.1404	32.0866
 272	1	2	0.015925	-64.0734	36.6751	30.611
 273	1	1	0.230077	-65.6082	38.115	31.1673
 274	1	2	0.052641	-66.4927	37.1236	29.4445
 275	1	4	-0.023623	-67.9592	39.4502	30.7872
 276	1	1	-0.072969	-67.9081	36.1673	33.3842
 277	1	2	0.031276	-69.3016	38.4265	34.4972
 278	1	2	0.023309	-70.4677	37.4688	35.4265
 279	1	2	0.030094	-68.7369	37.3592	35.8061
 280	1	5	0.077888	-67.488	38.3039	33.1496
 281	1	1	0.09092	-69.3261	36.2936	33.9867
 282	1	2	0.047821	-67.8685	35.2714	32.7519
 283	1	2	0.068339	-67.1858	36.0143	34.1944
 284	1	1	-0.129023	-69.4621	37.459	34.9887
 285	1	2	-0.006475	-70.0659	36.4122	33.185
 286	1	2	-0.010814	-69.5732	35.3571	34.5018
 287	1	1	-0.019372	-64.1437	37.7493	30.8253
 288	1	2	0.00686	-63.8548	38.2651	29.9004
 289	1	1	-0.084968	-70.7713	37.0508	27.9342
 290	1	1	0.309483	-71.4346	35.6627	27.8635
 291	1	2	-0.002	-71.5205	37.8142	28.1802
 292	1	3	-0.436564	-70.4129	34.6763	27.6203
 293	1	1	0.15357	-69.2601	34.6827	28.4896
 294	1	4	-0.002836	-70.1596	36.6973	29.9636
 295	1	3	-0.349559	-68.7308	36.0203	28.608
 296	1	2	0.015925	-68.5345	38.7111	28.2905
 297	1	1	0.230077	-69.6882	37.0082	29.0223
 298	1	2	0.052641	-70.3255	37.3187	26.969
 299	1	4	-0.023623	-71.8842	35.4669	28.8457
 300	1	1	-0.072969	-68.1914	33.7701	27.8512
 301	1	2	0.031276	-65.5155	33.7645	30.1564
 302	1	2	0.023309	-65.7939	34.8883	28.813
 303	1	2	0.030094	-66.8898	34.8823	30.2202
 304	1	5	0.077888	-69.5493	34.3049	29.479
 305	1	1	0.09092	-67.1711	33.1895	28.8591
 306	1	2	0.047821	-68.6946	32.9308	27.3559
 307	1	2	0.068339	-67.6642	34.3213	27.0629
 308	1	1	-0.129023	-66.2918	34.2494	29.5528
 309	1	2	-0.006475	-67.7008	32.6047	29.6218
 310	1	2	-0.010814	-66.5162	32.4888	28.3255
 311	1	1	-0.019372	-69.002	38.3819	29.2274
 312	1	2	0.00686	-69.7821	39.1206	29.4515
 313	1	1	-0.084968	-70.9576	35.6161	24.7129
 314	1	1	0.309483	-70.8102	34.9728	23.322
 315	1	2	-0.002	-71.0197	36.7078	24.617
 316	1	3	-0.436564	-70.8327	33.541	23.4697
 317	1	1	0.15357	-71.9732	32.9849	24.1482
 318	1	4	-0.002836	-73.087	35.3449	24.7389
 319	1	3	-0.349559	-72.1722	33.637	25.415
 320	1	2	0.015925	-73.0252	36.5844	26.7097
 321	1	1	0.230077	-72.239	35.0708	25.3801
 322	1	2	0.052641	-70.0667	35.3844	25.306
 323	1	4	-0.023623	-71.6562	35.2914	22.7014
 324	1	1	-0.072969	-71.7251	31.4827	24.3964
 325	1	2	0.031276	-71.1966	29.2298	26.0198
 326	1	2	0.023309	-70.1361	29.174	24.5915
 327	1	2	0.030094	-69.4509	29.5053	26.1968
 328	1	5	0.077888	-72.8655	33.1181	23.523
 329	1	1	0.09092	-70.5269	31.195	25.3329
 330	1	2	0.047821	-72.6342	31.043	24.8248
 331	1	2	0.068339	-71.5594	30.9889	23.431
 332	1	1	-0.129023	-70.3163	29.6828	25.5467
 333	1	2	-0.006475	-69.6101	31.6283	24.9134
 334	1	2	-0.010814	-70.6909	31.6685	26.309
 335	1	1	-0.019372	-72.5719	35.59	26.8056
 336	1	2	0.00686	-73.3699	34.9568	27.2138
 337	1	1	-0.084968	-70.338	35.7117	20.2317
 338	1	1	0.309483	-70.0915	35.3509	18.7513
 339	1	2	-0.002	-71.3922	35.5448	20.4825
 340	1	3	-0.436564	-68.6797	35.4338	18.4938
 341	1	1	0.15357	-67.8468	34.622	19.3387
 342	1	4	-0.002836	-69.7277	33.8168	21.0995
 343	1	3	-0.349559	-68.0741	35.0041	20.7058
 344	1	2	0.015925	-68.6499	34.8986	23.1881
 345	1	1	0.230077	-69.4329	34.8724	21.1591
 346	1	2	0.052641	-70.1287	36.7772	20.3886
 347	1	4	-0.023623	-70.432	34.325	18.5609
 348	1	1	-0.072969	-66.3659	34.8907	18.9991
 349	1	2	0.031276	-67.5819	34.1178	16.4651
 350	1	2	0.023309	-66.447	35.4697	16.236
 351	1	2	0.030094	-66.0384	33.8474	15.6372
 352	1	5	0.077888	-68.0831	33.5574	19.2092
 353	1	1	0.09092	-65.8425	34.0637	17.7999
 354	1	2	0.047821	-66.2198	35.961	18.8058
 355	1	2	0.068339	-65.7541	34.6456	19.8762
 356	1	1	-0.129023	-66.5215	34.3972	16.4549
 357	1	2	-0.006475	-64.7638	34.2386	17.6998
 358	1	2	-0.010814	-65.9673	32.9934	18.0105
 359	1	1	-0.019372	-69.4825	35.347	22.6298
 360	1	2	0.00686	-69.3382	36.4347	22.6696
 361	1	1	-0.084968	-73.0489	37.2217	16.9441
 362	1	1	0.309483	-74.1795	36.7219	16.0196
 363	1	2	-0.002	-73.4527	37.8935	17.7127
 364	1	3	-0.436564	-74.7393	35.5269	16.5953
 365	1	1	0.15357	-73.8339	34.4072	16.7037
 366	1	4	-0.002836	-72.749	35.9061	18.6352
 367	1	3	-0.349559	-72.4739	34.8578	16.8628
 368	1	2	0.015925	-70.3251	36.2556	16.7881
 369	1	1	0.230077	-72.3055	36.0564	17.6424
 370	1	2	0.052641	-72.3504	37.8163	16.3418
 371	1	4	-0.023623	-73.7423	36.4873	15.0407
 372	1	1	-0.072969	-73.8961	33.5716	15.4083
 373	1	2	0.031276	-75.0662	32.7487	13.0063
 374	1	2	0.023309	-74.644	31.2831	13.9215
 375	1	2	0.030094	-76.3494	31.7358	13.7032
 376	1	5	0.077888	-74.1248	33.7908	17.564
 377	1	1	0.09092	-75.2933	32.9609	15.1658
 378	1	2	0.047821	-73.6127	34.1957	14.5516
 379	1	2	0.068339	-73.1544	32.7657	15.4702
 380	1	1	-0.129023	-75.3395	32.1303	13.8696
 381	1	2	-0.006475	-75.5675	32.3222	16.0155
 382	1	2	-0.010814	-76.0456	33.7578	15.104
 383	1	1	-0.019372	-70.7916	36.3279	17.7799
 384	1	2	0.00686	-70.6302	37.3577	18.1248
 385	1	1	-0.084968	-77.4658	38.3212	14.5698
 386	1	1	0.309483	-78.2679	37.9984	13.2925
 387	1	2	-0.002	-78.1083	38.2205	15.4539
 388	1	3	-0.436564	-77.3499	38.0499	12.1866
 389	1	1	0.15357	-76.2104	37.1805	12.2608
 390	1	4	-0.002836	-76.6154	36.3443	14.8234
 391	1	3	-0.349559	-75.4943	37.4683	13.4711
 392	1	2	0.015925	-74.8759	38.7448	15.6365
 393	1	1	0.230077	-76.2558	37.3725	14.6865
 394	1	2	0.052641	-77.1166	39.3609	14.5323
 395	1	4	-0.023623	-78.685	36.9864	13.3765
 396	1	1	-0.072969	-75.3078	37.4941	11.0499
 397	1	2	0.031276	-74.3839	34.858	10.4824
 398	1	2	0.023309	-72.8416	34.9899	11.3522
 399	1	2	0.030094	-74.3652	35.0614	12.2515
 400	1	5	0.077888	-76.5266	36.1286	12.2485
 401	1	1	0.09092	-73.8881	36.8858	11.132
 402	1	2	0.047821	-75.8029	37.1343	10.1396
 403	1	2	0.068339	-75.2168	38.5826	10.9488
 404	1	1	-0.129023	-73.8748	35.3548	11.3155
 405	1	2	-0.006475	-73.3486	37.138	10.2109
 406	1	2	-0.010814	-73.3302	37.3513	11.9544
 407	1	1	-0.019372	-75.3103	37.7577	15.8424
 408	1	2	0.00686	-75.8787	37.8479	16.7769
 409	1	1	-0.084968	-79.4264	39.2228	10.464
 410	1	1	0.309483	-79.1743	37.9868	9.58416
 411	1	2	-0.002	-80.0089	39.9615	9.89788
 412	1	3	-0.436564	-80.4798	37.4694	9.28557
 413	1	1	0.15357	-81.2237	36.9879	10.4262
 414	1	4	-0.002836	-81.1049	39.4695	11.7906
 415	1	3	-0.349559	-80.6482	37.4463	11.6721
 416	1	2	0.015925	-79.0125	40.0369	13.0817
 417	1	1	0.230077	-80.217	38.8264	11.7398
 418	1	2	0.052641	-78.48	39.7155	10.7143
 419	1	4	-0.023623	-78.5987	37.2403	10.1445
 420	1	1	-0.072969	-81.147	35.4483	10.4324
 421	1	2	0.031276	-82.3098	32.9126	10.0305
 422	1	2	0.023309	-82.0809	32.8488	8.26847
 423	1	2	0.030094	-80.6688	32.9027	9.34526
 424	1	5	0.077888	-82.2673	37.3183	10.3481
 425	1	1	0.09092	-81.7067	34.8149	9.13934
 426	1	2	0.047821	-80.1027	35.1383	10.5677
 427	1	2	0.068339	-81.7097	35.0703	11.2948
 428	1	1	-0.129023	-81.6898	33.2755	9.20103
 429	1	2	-0.006475	-82.7363	35.1581	8.97641
 430	1	2	-0.010814	-81.1172	35.1412	8.27279
 431	1	1	-0.019372	-79.4167	39.0165	13.0561
 432	1	2	0.00686	-80.1179	38.9482	13.8974
 433	1	1	-0.084968	-77.3502	37.374	6.13973
 434	1	1	0.309483	-76.2127	36.3414	5.98538
 435	1	2	-0.002	-77.979	37.3779	5.23947
 436	1	3	-0.436564	-76.7944	35.0334	6.1476
 437	1	1	0.15357	-77.4598	34.7823	7.40514
 438	1	4	-0.002836	-79.2251	36.7387	7.02273
 439	1	3	-0.349559	-77.6393	36.0089	8.14085
 440	1	2	0.015925	-77.4407	38.7261	8.53257
 441	1	1	0.230077	-78.2394	37.0722	7.3731
 442	1	2	0.052641	-76.9104	38.376	6.21479
 443	1	4	-0.023623	-75.4699	36.5144	6.77599
 444	1	1	-0.072969	-76.5854	33.827	8.23882
 445	1	2	0.031276	-76.2413	31.4053	9.65858
 446	1	2	0.023309	-75.5491	32.7305	10.6194
 447	1	2	0.030094	-77.041	31.9278	11.157
 448	1	5	0.077888	-78.435	34.3182	7.20621
 449	1	1	0.09092	-77.3305	33.2939	9.4822
 450	1	2	0.047821	-76.2809	32.9809	7.61032
 451	1	2	0.068339	-75.6699	34.3461	8.54484
 452	1	1	-0.129023	-76.4869	32.2781	10.2768
 453	1	2	-0.006475	-77.6078	34.1272	10.1402
 454	1	2	-0.010814	-78.2619	32.8083	9.16626
 455	1	1	-0.019372	-78.4247	38.312	8.27779
 456	1	2	0.00686	-78.9644	39.0899	7.72297
 457	1	1	-0.084968	-74.4077	34.1186	4.29055
 458	1	1	0.309483	-73.0497	33.4127	4.0877
 459	1	2	-0.002	-74.9157	33.6584	5.14618
 460	1	3	-0.436564	-72.2614	34.1259	3.11982
 461	1	1	0.15357	-72.1321	35.5476	3.28602
 462	1	4	-0.002836	-73.6354	35.7681	5.47135
 463	1	3	-0.349559	-73.4306	36.1427	3.44314
 464	1	2	0.015925	-75.2744	37.4968	4.42707
 465	1	1	0.230077	-74.2007	35.6248	4.54064
 466	1	2	0.052641	-75.0576	33.9856	3.42136
 467	1	4	-0.023623	-72.5288	33.4391	5.05246
 468	1	1	-0.072969	-71.4527	36.1067	2.02232
 469	1	2	0.031276	-72.0841	38.8538	1.83227
 470	1	2	0.023309	-72.0033	38.4529	3.56434
 471	1	2	0.030094	-70.7425	39.46	2.82737
 472	1	5	0.077888	-71.5185	35.7659	4.16635
 473	1	1	0.09092	-70.5802	37.3442	2.32192
 474	1	2	0.047821	-70.8149	35.3283	1.5905
 475	1	2	0.068339	-72.2075	36.3448	1.26211
 476	1	1	-0.129023	-71.4054	38.6028	2.6571
 477	1	2	-0.006475	-69.8957	37.123	3.15056
 478	1	2	-0.010814	-69.949	37.5508	1.45214
 479	1	1	-0.019372	-75.5126	36.4412	4.61173
 480	1	2	0.00686	-76.2	36.1325	3.81284
 481	1	1	-0.084968	-74.2333	32.5194	1.3064
 482	1	1	0.309483	-74.2521	32.0535	-0.167353
 483	1	2	-0.002	-75.239	32.508	1.73343
 484	1	3	-0.436564	-72.8853	31.9609	-0.615681
 485	1	1	0.15357	-72.0182	31.1213	0.169725
 486	1	4	-0.002836	-73.7441	30.5795	2.08599
 487	1	3	-0.349559	-72.025	31.5616	1.54018
 488	1	2	0.015925	-74.0449	31.4928	4.19141
 489	1	1	0.230077	-73.3277	31.594	2.14663
 490	1	2	0.052641	-73.872	33.5531	1.33832
 491	1	4	-0.023623	-74.7123	31.0594	-0.235464
 492	1	1	-0.072969	-70.5908	31.2362	-0.39284
 493	1	2	0.031276	-67.7471	31.1933	-0.425203
 494	1	2	0.023309	-67.5694	29.525	0.149837
 495	1	2	0.030094	-68.3624	29.8447	-1.40518
 496	1	5	0.077888	-72.3622	30.0796	0.111783
 497	1	1	0.09092	-69.5992	30.3032	0.338184
 498	1	2	0.047821	-70.6155	30.977	-1.45873
 499	1	2	0.068339	-70.2522	32.2766	-0.320315
 500	1	1	-0.129023	-68.2379	30.2146	-0.379937
 501	1	2	-0.006475	-69.4467	30.6539	1.36734
 502	1	2	-0.010814	-70.0273	29.2941	0.403369
 503	1	1	-0.019372	-73.1859	31.9245	3.66265
 504	1	2	0.00686	-72.3142	31.3795	4.04558
 505	1	1	-0.084968	-77.3049	32.7565	0.0309098
 506	1	1	0.309483	-78.8197	32.7081	-0.235077
 507	1	2	-0.002	-77.0321	31.8818	0.633076
 508	1	3	-0.436564	-79.157	33.7807	-1.13028
 509	1	1	0.15357	-78.4511	33.7583	-2.38285
 510	1	4	-0.002836	-76.6443	31.7894	-1.78376
 511	1	3	-0.349559	-77.0346	33.8032	-2.13218
 512	1	2	0.015925	-74.5324	32.9701	-2.11514
 513	1	1	0.230077	-76.5079	32.7592	-1.28826
 514	1	2	0.052641	-77.0611	33.6586	0.606385
 515	1	4	-0.023623	-79.0716	31.7534	-0.714533
 516	1	1	-0.072969	-78.8619	34.9805	-3.23154
 517	1	2	0.031276	-80.1165	37.4227	-3.82888
 518	1	2	0.023309	-79.0668	38.4638	-2.84412
 519	1	2	0.030094	-78.3904	37.5869	-4.23189
 520	1	5	0.077888	-78.6903	32.8364	-2.92906
 521	1	1	0.09092	-78.7791	36.3311	-2.48246
 522	1	2	0.047821	-78.2229	35.0174	-4.12257
 523	1	2	0.068339	-79.8877	34.83	-3.58833
 524	1	1	-0.129023	-79.1088	37.5222	-3.40508
 525	1	2	-0.006475	-79.4801	36.334	-1.63767
 526	1	2	-0.010814	-77.7746	36.4685	-2.06722
 527	1	1	-0.019372	-74.9909	33.0312	-1.11932
 528	1	2	0.00686	-74.8379	34.062	-0.775854
 529	1	1	-0.084968	-81.9116	32.4489	-0.103571
 530	1	1	0.309483	-83.3485	33.0013	-0.110572
 531	1	2	-0.002	-81.477	32.5245	-1.1065
 532	1	3	-0.436564	-83.8731	32.8773	1.22068
 533	1	1	0.15357	-83.116	33.5226	2.2617
 534	1	4	-0.002836	-81.1084	34.3329	0.592705
 535	1	3	-0.349559	-81.7249	33.1555	2.19012
 536	1	2	0.015925	-79.1321	33.5595	1.74112
 537	1	1	0.230077	-81.0937	33.2802	0.903433
 538	1	2	0.052641	-81.9103	31.3903	0.184112
 539	1	4	-0.023623	-83.3204	34.0652	-0.378103
 540	1	1	-0.072969	-83.6892	33.1001	3.63357
 541	1	2	0.031276	-83.3177	30.5418	2.22852
 542	1	2	0.023309	-83.6523	29.5555	3.6583
 543	1	2	0.030094	-84.9148	30.6244	3.01157
 544	1	5	0.077888	-83.2086	34.61	2.1415
 545	1	1	0.09092	-83.3324	31.6666	4.11127
 546	1	2	0.047821	-83.3287	33.8124	4.38508
 547	1	2	0.068339	-84.78	33.2103	3.60712
 548	1	1	-0.129023	-83.8369	30.5317	3.19369
 549	1	2	-0.006475	-82.2463	31.5715	4.2389
 550	1	2	-0.010814	-83.7703	31.5223	5.10712
 551	1	1	-0.019372	-79.6251	32.8353	1.07936
 552	1	2	0.00686	-79.5949	31.8694	1.60107
 553	1	1	-0.084968	-83.646	33.7897	-3.04972
 554	1	1	0.309483	-83.9482	33.9575	-4.55565
 555	1	2	-0.002	-84.2633	34.5062	-2.49199
 556	1	3	-0.436564	-83.8043	32.6805	-5.20343
 557	1	1	0.15357	-84.7376	31.6736	-4.75813
 558	1	4	-0.002836	-83.0058	31.7489	-2.71784
 559	1	3	-0.349559	-84.9831	31.7904	-3.34012
 560	1	2	0.015925	-85.318	32.6846	-0.94147
 561	1	1	0.230077	-83.911	32.3476	-2.55668
 562	1	2	0.052641	-82.599	34.0444	-2.84229
 563	1	4	-0.023623	-84.9847	34.3003	-4.66119
 564	1	1	-0.072969	-84.1317	30.2824	-5.03552
 565	1	2	0.031276	-82.5478	28.4429	-6.46622
 566	1	2	0.023309	-84.1725	27.7455	-6.26609
 567	1	2	0.030094	-83.6247	28.2758	-7.86947
 568	1	5	0.077888	-85.6922	31.7807	-5.29005
 569	1	1	0.09092	-84.164	29.9163	-6.53502
 570	1	2	0.047821	-83.0972	30.2525	-4.67018
 571	1	2	0.068339	-84.6957	29.5304	-4.46971
 572	1	1	-0.129023	-83.5915	28.5093	-6.79805
 573	1	2	-0.006475	-85.1987	29.9551	-6.89903
 574	1	2	-0.010814	-83.5914	30.653	-7.11235
 575	1	1	-0.019372	-84.3124	32.261	-1.06547
 576	1	2	0.00686	-84.3759	31.2047	-0.772668
 577	1	1	-0.084968	-84.7143	36.2847	-6.60912
 578	1	1	0.309483	-84.9849	36.894	-7.99815
 579	1	2	-0.002	-85.5846	35.6979	-6.29065
 580	1	3	-0.436564	-83.7874	37.5834	-8.38899
 581	1	1	0.15357	-82.6016	36.7798	-8.46631
 582	1	4	-0.002836	-83.628	34.5142	-7.26042
 583	1	3	-0.349559	-82.3618	36.1623	-7.19091
 584	1	2	0.015925	-81.9885	34.5203	-5.28591
 585	1	1	0.230077	-83.4481	35.3986	-6.63581
 586	1	2	0.052641	-84.5786	37.0944	-5.88062
 587	1	4	-0.023623	-85.2116	36.0919	-8.71217
 588	1	1	-0.072969	-81.4101	37.6952	-8.8138
 589	1	2	0.031276	-79.8516	40.5269	-7.45133
 590	1	2	0.023309	-79.0621	39.1487	-8.25005
 591	1	2	0.030094	-80.1757	40.193	-9.1655
 592	1	5	0.077888	-82.7242	36.0076	-9.23807
 593	1	1	0.09092	-81.1746	38.8276	-7.78583
 594	1	2	0.047821	-80.5038	37.0817	-8.89497
 595	1	2	0.068339	-81.5841	38.1355	-9.80293
 596	1	1	-0.129023	-79.992	39.7278	-8.18926
 597	1	2	-0.006475	-82.0753	39.4472	-7.69505
 598	1	2	-0.010814	-80.9765	38.4004	-6.79438
 599	1	1	-0.019372	-82.9912	34.9651	-5.22605
 600	1	2	0.00686	-82.9001	35.8578	-4.59299
 601	1	1	-0.084968	-85.5804	39.1845	-10.1639
 602	1	1	0.309483	-86.1889	39.6612	-11.4934
 603	1	2	-0.002	-85.1411	40.0166	-9.6019
 604	1	3	-0.436564	-86.7525	38.5096	-12.1513
 605	1	1	0.15357	-87.6694	37.6763	-11.4095
 606	1	4	-0.002836	-87.4701	39.1351	-9.12024
 607	1	3	-0.349559	-87.1313	37.3465	-10.1111
 608	1	2	0.015925	-85.8591	38.759	-7.32358
 609	1	1	0.230077	-86.6412	38.4467	-9.32385
 610	1	2	0.052641	-84.7619	38.5028	-10.4163
 611	1	4	-0.023623	-85.3715	40.0383	-12.1203
 612	1	1	-0.072969	-87.8534	36.3517	-12.1795
 613	1	2	0.031276	-89.6796	38.2274	-13.4018
 614	1	2	0.023309	-90.0318	37.2123	-14.814
 615	1	2	0.030094	-90.4652	36.6429	-13.1888
 616	1	5	0.077888	-88.63	38.1938	-11.29
 617	1	1	0.09092	-88.3292	36.5193	-13.6425
 618	1	2	0.047821	-86.8984	35.8101	-12.1802
 619	1	2	0.068339	-88.5699	35.7224	-11.6375
 620	1	1	-0.129023	-89.711	37.1926	-13.7651
 621	1	2	-0.006475	-87.5913	37.0935	-14.2173
 622	1	2	-0.010814	-88.3785	35.527	-14.1096
 623	1	1	-0.019372	-86.1521	37.9109	-7.95344
 624	1	2	0.00686	-87.008	37.4426	-7.44961
 625	1	1	-0.084968	-87.4053	43.3618	-11.292
 626	1	1	0.309483	-86.69	44.6109	-10.7284
 627	1	2	-0.002	-87.5131	43.4189	-12.3803
 628	1	3	-0.436564	-86.6911	44.4515	-9.29033
 629	1	1	0.15357	-86.1012	43.2372	-8.76515
 630	1	4	-0.002836	-85.6058	42.1647	-11.2191
 631	1	3	-0.349559	-86.6633	42.0793	-9.41848
 632	1	2	0.015925	-88.1047	40.4843	-10.7725
 633	1	1	0.230077	-86.6393	42.0991	-10.8595
 634	1	2	0.052641	-88.4254	43.3241	-10.8881
 635	1	4	-0.023623	-87.2788	45.4984	-10.9902
 636	1	1	-0.072969	-86.3928	43.166	-7.25429
 637	1	2	0.031276	-83.9944	41.5981	-7.79198
 638	1	2	0.023309	-83.7424	42.7093	-6.42397
 639	1	2	0.030094	-83.8688	40.9598	-6.14581
 640	1	5	0.077888	-85.0164	43.2549	-8.92291
 641	1	1	0.09092	-85.7842	41.9236	-6.56188
 642	1	2	0.047821	-85.9975	44.0708	-6.77587
 643	1	2	0.068339	-87.4781	43.1739	-7.09692
 644	1	1	-0.129023	-84.2555	41.7938	-6.74505
 645	1	2	-0.006475	-86.009	41.9737	-5.48915
 646	1	2	-0.010814	-86.2726	41.0177	-6.93912
 647	1	1	-0.019372	-87.2532	40.7854	-11.3945
 648	1	2	0.00686	-87.6549	40.9598	-12.4001
 649	1	1	-0.084968	-83.3899	45.2582	-12.8539
 650	1	1	0.309483	-82.7373	43.8896	-13.1261
 651	1	2	-0.002	-83.2049	45.9361	-13.6982
 652	1	3	-0.436564	-83.2001	43.5132	-14.4316
 653	1	1	0.15357	-84.637	43.4514	-14.5847
 654	1	4	-0.002836	-85.4555	45.917	-13.0535
 655	1	3	-0.349559	-85.322	43.8405	-13.3678
 656	1	2	0.015925	-84.5647	44.0593	-10.7905
 657	1	1	0.230077	-84.9116	45.0451	-12.6693
 658	1	2	0.052641	-82.9491	45.7353	-11.9707
 659	1	4	-0.023623	-83.1104	43.1519	-12.4027
 660	1	1	-0.072969	-84.9877	41.9802	-14.8821
 661	1	2	0.031276	-86.1753	39.919	-16.3771
 662	1	2	0.023309	-86.5834	39.6684	-14.6655
 663	1	2	0.030094	-87.8427	40.1666	-15.8131
 664	1	5	0.077888	-84.9437	44.0994	-15.4157