pySIMM System Object

962 atoms
1001 bonds
2000 angles
2991 dihedrals
0 impropers

5 atom types
5 bond types
11 angle types
8 dihedral types

-132.056899 132.056899 xlo xhi
-132.056899 132.056899 ylo yhi
-132.056899 132.056899 zlo zhi

Masses

   1	12.01	# c3
   2	1.008	# hc
   3	16.0	# os
   4	1.008	# h1
   5	1.008	# h2

Pair Coeffs

   1	0.1094	3.3996695084235347	# c3
   2	0.0157	2.649532787749369	# hc
   3	0.17	3.0000123434657784	# os
   4	0.0157	2.471353044121301	# h1
   5	0.0157	2.2931733004932333	# h2

Bond Coeffs

   1	330.6	1.0969	# c3,h1
   2	308.6	1.4316	# c3,os
   3	330.6	1.0969	# c3,hc
   4	300.9	1.5375	# c3,c3
   5	331.7	1.0961	# c3,h2

Angle Coeffs

   1	62.7	112.48	# c3,os,c3
   2	50.85	109.58	# h2,c3,os
   3	68.0	107.97	# c3,c3,os
   4	72.74	108.29	# os,c3,os
   5	46.34	109.8	# c3,c3,hc
   6	46.25	110.22	# c3,c3,h2
   7	50.8	109.78	# h1,c3,os
   8	46.39	109.56	# c3,c3,h1
   9	39.4	107.58	# hc,c3,hc
  10	39.24	108.46	# h1,c3,h1
  11	62.86	111.51	# c3,c3,c3

Dihedral Coeffs

   1	3	0.18	3	0	0.25	2	180	0.2	1	180	# c3,c3,c3,c3
   2	2	0.0	3	0	0.25	1	0	# hc,c3,c3,os
   3	1	0.3833333333333333	3	0	# X,c3,os,X
   4	1	0.15	3	0	# hc,c3,c3,hc
   5	2	0.383	3	0	0.1	2	180	# c3,c3,os,c3
   6	1	0.16	3	0	# hc,c3,c3,c3
   7	3	0.1	3	0	0.85	2	180	1.35	1	180	# c3,os,c3,os
   8	1	0.15555555555555556	3	0	# X,c3,c3,X

Atoms

   1	1	1	-0.084968	-37.135	-8.28523	28.1147
   2	1	1	0.309483	-37.6587	-8.84249	29.4534
   3	1	2	-0.002	-36.0579	-8.08588	28.1756
   4	1	3	-0.436564	-39.0518	-9.16202	29.2845
   5	1	1	0.15357	-39.3573	-10.0882	28.2261
   6	1	4	-0.002836	-36.841	-10.2277	27.2025
   7	1	3	-0.349559	-38.813	-9.60126	26.9848
   8	1	2	0.015925	-37.2226	-9.53025	24.8335
   9	1	1	0.230077	-37.4056	-9.30883	26.9976
  10	1	2	0.052641	-37.6378	-7.33759	27.8838
  11	1	4	-0.023623	-37.1087	-9.75898	29.7027
  12	1	1	-0.072969	-40.8915	-10.1731	28.1003
  13	1	2	0.031276	-39.8419	-12.7074	27.1836
  14	1	2	0.023309	-41.2584	-12.9631	28.232
  15	1	2	0.030094	-41.3705	-13.2713	26.4865
  16	1	5	0.077888	-38.9318	-11.0717	28.4636
  17	1	1	0.09092	-41.379	-11.1527	27.0067
  18	1	2	0.047821	-41.3129	-10.4745	29.0674
  19	1	2	0.068339	-41.2844	-9.17185	27.8847
  20	1	1	-0.129023	-40.9328	-12.6107	27.2452
  21	1	2	-0.006475	-42.4754	-11.1212	26.971
  22	1	2	-0.010814	-41.0258	-10.8207	26.0222
  23	1	1	-0.019372	-37.0146	-8.77777	25.6044
  24	1	2	0.00686	-37.5768	-7.86788	25.3582
  25	1	1	-0.084968	-36.0289	-6.5096	32.1935
  26	1	1	0.309483	-34.5541	-6.21687	32.5249
  27	1	2	-0.002	-36.5684	-5.5712	32.0116
  28	1	3	-0.436564	-33.8917	-7.48397	32.6958
  29	1	1	0.15357	-33.9445	-8.35993	31.5548
  30	1	4	-0.002836	-35.6924	-6.86363	30.0912
  31	1	3	-0.349559	-35.3172	-8.58979	31.19
  32	1	2	0.015925	-37.9988	-8.30374	31.5218
  33	1	1	0.230077	-36.1068	-7.41105	30.9472
  34	1	2	0.052641	-36.5086	-7.00769	33.0458
  35	1	4	-0.023623	-34.106	-5.68208	31.6777
  36	1	1	-0.072969	-33.3164	-9.71809	31.9219
  37	1	2	0.031276	-31.228	-11.5848	31.5642
  38	1	2	0.023309	-30.0857	-10.8437	32.704
  39	1	2	0.030094	-31.6178	-11.5176	33.3005
  40	1	5	0.077888	-33.4066	-7.90682	30.7113
  41	1	1	0.09092	-31.8171	-9.59983	32.2697
  42	1	2	0.047821	-33.859	-10.1568	32.7689
  43	1	2	0.068339	-33.4393	-10.4014	31.0728
  44	1	1	-0.129023	-31.1492	-10.9726	32.4713
  45	1	2	-0.006475	-31.2928	-9.05868	31.4715
  46	1	2	-0.010814	-31.702	-9.01707	33.1893
  47	1	1	-0.019372	-37.5556	-7.8437	30.629
  48	1	2	0.00686	-38.1551	-6.95216	30.4031
  49	1	1	-0.084968	-32.197	-6.16787	34.9076
  50	1	1	0.309483	-30.8366	-6.44091	34.2425
  51	1	2	-0.002	-32.045	-5.89646	35.9605
  52	1	3	-0.436564	-30.1893	-5.16752	34.0863
  53	1	1	0.15357	-30.8462	-4.24977	33.1856
  54	1	4	-0.002836	-32.9825	-4.16493	34.8989
  55	1	3	-0.349559	-32.2381	-4.59297	33.0135
  56	1	2	0.015925	-34.9024	-5.86246	34.6504
  57	1	1	0.230077	-32.9498	-5.01076	34.2
  58	1	2	0.052641	-32.7907	-7.08873	34.916
  59	1	4	-0.023623	-31.0014	-6.88648	33.2537
  60	1	1	-0.072969	-30.1733	-4.35615	31.8015
  61	1	2	0.031276	-28.5464	-3.49295	29.666
  62	1	2	0.023309	-26.9845	-3.69409	30.4898
  63	1	2	0.030094	-28.0009	-5.11275	30.1641
  64	1	5	0.077888	-30.758	-3.22736	33.5755
  65	1	1	0.09092	-28.7086	-3.86648	31.8157
  66	1	2	0.047821	-30.2107	-5.39788	31.4587
  67	1	2	0.068339	-30.7455	-3.76175	31.0786
  68	1	1	-0.129023	-28.0205	-4.0532	30.4492
  69	1	2	-0.006475	-28.6796	-2.8057	32.0956
  70	1	2	-0.010814	-28.1381	-4.41303	32.5749
  71	1	1	-0.019372	-34.4084	-5.35975	33.8089
  72	1	2	0.00686	-34.9527	-4.41895	33.6568
  73	1	1	-0.084968	-27.4446	-6.81838	34.7462
  74	1	1	0.309483	-26.1351	-7.27729	34.0738
  75	1	2	-0.002	-27.6491	-5.77185	34.4931
  76	1	3	-0.436564	-25.9645	-8.69082	34.3118
  77	1	1	0.15357	-27.074	-9.5663	34.0262
  78	1	4	-0.002836	-28.7907	-7.65754	33.2541
  79	1	3	-0.349559	-28.2652	-9.07604	34.6651
  80	1	2	0.015925	-30.5042	-8.31647	35.2473
  81	1	1	0.230077	-28.6247	-7.72389	34.337
  82	1	2	0.052641	-27.3145	-6.86189	35.8346
  83	1	4	-0.023623	-25.3058	-6.74365	34.5546
  84	1	1	-0.072969	-26.7295	-10.9525	34.6013
  85	1	2	0.031276	-26.4514	-13.7492	34.3674
  86	1	2	0.023309	-27.3105	-13.3941	35.885
  87	1	2	0.030094	-28.1748	-14.1499	34.5293
  88	1	5	0.077888	-27.2354	-9.63161	32.9429
  89	1	1	0.09092	-27.7873	-12.0212	34.2514
  90	1	2	0.047821	-25.7539	-11.2667	34.2097
  91	1	2	0.068339	-26.6281	-10.8745	35.6911
  92	1	1	-0.129023	-27.4057	-13.4129	34.792
  93	1	2	-0.006475	-28.7612	-11.7323	34.6664
  94	1	2	-0.010814	-27.903	-12.0787	33.1614
  95	1	1	-0.019372	-29.9444	-7.38901	35.0699
  96	1	2	0.00686	-29.7393	-6.95533	36.0573
  97	1	1	-0.084968	-24.5768	-8.85569	31.5751
  98	1	1	0.309483	-23.7981	-9.05803	30.2606
  99	1	2	-0.002	-24.0732	-9.37472	32.4008
 100	1	3	-0.436564	-22.7568	-8.06612	30.2171
 101	1	1	0.15357	-23.2288	-6.70756	30.1051
 102	1	4	-0.002836	-23.9081	-7.07325	32.6215
 103	1	3	-0.349559	-24.5322	-6.57296	30.7182
 104	1	2	0.015925	-26.2124	-5.88313	32.4315
 105	1	1	0.230077	-24.7103	-7.34849	31.924
 106	1	2	0.052641	-25.5637	-9.31732	31.4621
 107	1	4	-0.023623	-24.4927	-8.89127	29.4276
 108	1	1	-0.072969	-23.3517	-6.34353	28.6085
 109	1	2	0.031276	-22.4649	-5.05355	26.2537
 110	1	2	0.023309	-21.1638	-6.19669	25.8599
 111	1	2	0.030094	-22.8539	-6.74321	25.8541
 112	1	5	0.077888	-22.513	-6.03693	30.5981
 113	1	1	0.09092	-22.0081	-6.47459	27.8528
 114	1	2	0.047821	-24.1037	-6.9853	28.1327
 115	1	2	0.068339	-23.7158	-5.31226	28.5256
 116	1	1	-0.129023	-22.1325	-6.09331	26.3645
 117	1	2	-0.006475	-21.2563	-5.83154	28.3279
 118	1	2	-0.010814	-21.6368	-7.50488	27.9188
 119	1	1	-0.019372	-26.0694	-6.96346	32.5566
 120	1	2	0.00686	-26.8905	-7.44772	32.0139
 121	1	1	-0.084968	-21.832	-11.9859	28.5241
 122	1	1	0.309483	-21.1478	-12.061	27.1425
 123	1	2	-0.002	-21.124	-12.2672	29.3142
 124	1	3	-0.436564	-22.0637	-11.5604	26.1463
 125	1	1	0.15357	-22.6857	-10.2803	26.3848
 126	1	4	-0.002836	-21.5532	-9.85728	28.8056
 127	1	3	-0.349559	-23.2689	-10.2458	27.6962
 128	1	2	0.015925	-23.968	-11.2166	30.1279
 129	1	1	0.230077	-22.3846	-10.572	28.7812
 130	1	2	0.052641	-22.6541	-12.7118	28.5539
 131	1	4	-0.023623	-20.9376	-13.1157	26.9262
 132	1	1	-0.072969	-23.7833	-10.0444	25.3218
 133	1	2	0.031276	-26.0019	-12.7858	25.62
 134	1	2	0.023309	-24.5104	-12.692	24.6591
 135	1	2	0.030094	-24.435	-12.6726	26.438
 136	1	5	0.077888	-21.9276	-9.49056	26.3056
 137	1	1	0.09092	-25.1238	-10.7897	25.5527
 138	1	2	0.047821	-23.9922	-8.96878	25.2797
 139	1	2	0.068339	-23.3858	-10.3165	24.3363
 140	1	1	-0.129023	-25.0064	-12.3283	25.5676
 141	1	2	-0.006475	-25.5853	-10.4516	26.4891
 142	1	2	-0.010814	-25.817	-10.5043	24.7512
 143	1	1	-0.019372	-23.1734	-10.4599	30.1041
 144	1	2	0.00686	-22.5045	-10.6669	30.9494
 145	1	1	-0.084968	-19.4487	-10.4762	24.6157
 146	1	1	0.309483	-18.8503	-9.093	24.9111
 147	1	2	-0.002	-19.0682	-10.8424	23.653
 148	1	3	-0.436564	-17.4257	-9.2602	24.953
 149	1	1	0.15357	-16.8863	-10.1929	25.911
 150	1	4	-0.002836	-19.3047	-12.488	25.3645
 151	1	3	-0.349559	-17.635	-11.4356	25.9489
 152	1	2	0.015925	-19.1659	-11.671	27.8801
 153	1	1	0.230077	-19.0657	-11.4792	25.7241
 154	1	2	0.052641	-20.5348	-10.4038	24.5091
 155	1	4	-0.023623	-19.211	-8.72352	25.8783
 156	1	1	-0.072969	-16.8444	-9.50703	27.2998
 157	1	2	0.031276	-15.4511	-11.8899	29.508
 158	1	2	0.023309	-17.172	-11.5456	29.2507
 159	1	2	0.030094	-16.1956	-12.2663	27.9464
 160	1	5	0.077888	-15.854	-10.4193	25.6142
 161	1	1	0.09092	-15.8175	-10.1295	28.2755
 162	1	2	0.047821	-16.5665	-8.45562	27.1523
 163	1	2	0.068339	-17.8337	-9.49533	27.7656
 164	1	1	-0.129023	-16.1858	-11.5435	28.7708
 165	1	2	-0.006475	-14.8283	-10.1553	27.8008
 166	1	2	-0.010814	-15.7262	-9.47173	29.1492
 167	1	1	-0.019372	-19.8051	-11.2885	27.0754
 168	1	2	0.00686	-19.9631	-10.2259	27.2852
 169	1	1	-0.084968	-17.063	-6.62548	23.557
 170	1	1	0.309483	-16.77	-5.33283	22.7693
 171	1	2	-0.002	-16.3954	-6.69568	24.4257
 172	1	3	-0.436564	-17.4153	-4.25399	23.4687
 173	1	1	0.15357	-18.8561	-4.32641	23.5144
 174	1	4	-0.002836	-18.5638	-6.43725	25.1192
 175	1	3	-0.349559	-19.3097	-5.68706	23.3458
 176	1	2	0.015925	-20.3069	-7.9146	23.8507
 177	1	1	0.230077	-18.5354	-6.68047	24.0488
 178	1	2	0.052641	-16.8344	-7.48532	22.9159
 179	1	4	-0.023623	-17.2025	-5.43106	21.7653
 180	1	1	-0.072969	-19.4375	-3.4883	22.3574
 181	1	2	0.031276	-20.8017	-1.20342	21.4194
 182	1	2	0.023309	-19.4135	-0.0955089	21.4495
 183	1	2	0.030094	-19.4062	-1.49285	20.3546
 184	1	5	0.077888	-19.2066	-3.93274	24.4773
 185	1	1	0.09092	-19.0446	-1.99693	22.4526
 186	1	2	0.047821	-19.0975	-3.89914	21.3987
 187	1	2	0.068339	-20.5305	-3.57739	22.374
 188	1	1	-0.129023	-19.7081	-1.14769	21.3507
 189	1	2	-0.006475	-19.3382	-1.60283	23.4341
 190	1	2	-0.010814	-17.955	-1.8908	22.3753
 191	1	1	-0.019372	-19.218	-8.05271	23.8296
 192	1	2	0.00686	-18.9745	-8.43946	22.8314
 193	1	1	-0.084968	-13.4977	-3.43641	21.6265
 194	1	1	0.309483	-13.1301	-2.94336	20.2056
 195	1	2	-0.002	-13.2578	-2.66703	22.3719
 196	1	3	-0.436564	-14.2515	-2.19753	19.6921
 197	1	1	0.15357	-15.4834	-2.93612	19.5414
 198	1	4	-0.002836	-15.5356	-2.92961	22.1569
 199	1	3	-0.349559	-15.5035	-4.07272	20.4267
 200	1	2	0.015925	-14.7474	-5.89871	22.2233
 201	1	1	0.230077	-14.9999	-3.79526	21.7456
 202	1	2	0.052641	-12.8763	-4.30822	21.8645
 203	1	4	-0.023623	-12.9526	-3.81969	19.5685
 204	1	1	-0.072969	-15.5804	-3.44022	18.0855
 205	1	2	0.031276	-18.183	-2.5506	17.4809
 206	1	2	0.023309	-19.03	-4.09002	17.7441
 207	1	2	0.030094	-18.2769	-3.2553	19.1132
 208	1	5	0.077888	-16.3255	-2.27017	19.77
 209	1	1	0.09092	-16.8556	-4.26478	17.7888
 210	1	2	0.047821	-15.546	-2.57714	17.4092
 211	1	2	0.068339	-14.7009	-4.05387	17.8565
 212	1	1	-0.129023	-18.1639	-3.48945	18.0484
 213	1	2	-0.006475	-16.8338	-4.57876	16.7375
 214	1	2	-0.010814	-16.8544	-5.18415	18.388
 215	1	1	-0.019372	-15.2622	-5.02498	22.6433
 216	1	2	0.00686	-14.8369	-4.85095	23.6403
 217	1	1	-0.084968	-12.0894	-1.07455	17.7893
 218	1	1	0.309483	-11.3192	-0.803167	16.4815
 219	1	2	-0.002	-13.0192	-1.60388	17.5514
 220	1	3	-0.436564	-10.0348	-0.23951	16.8097
 221	1	1	0.15357	-9.22383	-0.944701	17.7692
 222	1	4	-0.002836	-11.0429	-2.88738	18.3701
 223	1	3	-0.349559	-9.98671	-1.20176	18.9624
 224	1	2	0.015925	-11.1135	-2.50944	20.847
 225	1	1	0.230077	-11.2374	-1.89042	18.7851
 226	1	2	0.052641	-12.3698	-0.117492	18.2463
 227	1	4	-0.023623	-11.887	-0.0633184	15.9037
 228	1	1	-0.072969	-8.03381	-0.0310504	18.1238
 229	1	2	0.031276	-5.64141	-2.29446	19.3749
 230	1	2	0.023309	-7.13997	-2.7466	18.5429
 231	1	2	0.030094	-5.89764	-1.79673	17.6889
 232	1	5	0.077888	-8.8702	-1.88975	17.3379
 233	1	1	0.09092	-7.04952	-0.643695	19.1469
 234	1	2	0.047821	-7.48861	0.216559	17.2044
 235	1	2	0.068339	-8.42138	0.914394	18.5231
 236	1	1	-0.129023	-6.39439	-1.95027	18.6552
 237	1	2	-0.006475	-6.26022	0.0892463	19.3569
 238	1	2	-0.010814	-7.5639	-0.829578	20.0982
 239	1	1	-0.019372	-11.866	-2.05334	20.1906
 240	1	2	0.00686	-12.0976	-1.0687	20.6178
 241	1	1	-0.084968	-8.94799	-1.888	14.2336
 242	1	1	0.309483	-8.4171	-1.65066	12.8057
 243	1	2	-0.002	-8.49002	-1.16584	14.9189
 244	1	3	-0.436564	-9.07695	-2.57054	11.9168
 245	1	1	0.15357	-10.5156	-2.5348	11.9229
 246	1	4	-0.002836	-10.7607	-0.731744	13.9167
 247	1	3	-0.349559	-11.0029	-2.68463	13.269
 248	1	2	0.015925	-12.1507	-2.47377	15.4068
 249	1	1	0.230077	-10.4842	-1.74697	14.2304
 250	1	2	0.052641	-8.68142	-2.89287	14.5799
 251	1	4	-0.023623	-8.67549	-0.625972	12.5087
 252	1	1	-0.072969	-11.04	-3.72055	11.0916
 253	1	2	0.031276	-10.8395	-5.72531	9.12074
 254	1	2	0.023309	-12.338	-4.80817	8.83687
 255	1	2	0.030094	-10.9737	-4.65516	7.70909
 256	1	5	0.077888	-10.8704	-1.58363	11.5043
 257	1	1	0.09092	-10.6816	-3.59648	9.59447
 258	1	2	0.047821	-10.6286	-4.65492	11.4943
 259	1	2	0.068339	-12.1301	-3.77605	11.2004
 260	1	1	-0.129023	-11.2437	-4.76869	8.76635
 261	1	2	-0.006475	-11.079	-2.65283	9.19907
 262	1	2	-0.010814	-9.59155	-3.56356	9.47164
 263	1	1	-0.019372	-11.1503	-2.06141	15.5921
 264	1	2	0.00686	-10.5895	-2.84606	16.1147
 265	1	1	-0.084968	-5.01944	-3.54793	12.2641
 266	1	1	0.309483	-4.57396	-4.96511	12.6664
 267	1	2	-0.002	-5.10386	-3.47345	11.1723
 268	1	3	-0.436564	-4.49351	-5.01215	14.1011
 269	1	1	0.15357	-5.71185	-4.68341	14.7945
 270	1	4	-0.002836	-7.10512	-3.99636	12.5696
 271	1	3	-0.349559	-6.19589	-3.40093	14.3524
 272	1	2	0.015925	-6.35871	-1.10478	13.2675
 273	1	1	0.230077	-6.37724	-3.25801	12.9294
 274	1	2	0.052641	-4.28357	-2.80845	12.599
 275	1	4	-0.023623	-5.33868	-5.67898	12.3333
 276	1	1	-0.072969	-5.41488	-4.58688	16.3032
 277	1	2	0.031276	-6.02018	-7.35856	15.7619
 278	1	2	0.023309	-5.45441	-7.95817	17.331
 279	1	2	0.030094	-6.82436	-6.83014	17.2604
 280	1	5	0.077888	-6.47307	-5.4494	14.5973
 281	1	1	0.09092	-4.87348	-5.89525	16.9249
 282	1	2	0.047821	-4.68747	-3.78315	16.4729
 283	1	2	0.068339	-6.33492	-4.29811	16.8237
 284	1	1	-0.129023	-5.85555	-7.08	16.81
 285	1	2	-0.006475	-3.91859	-6.16625	16.4569
 286	1	2	-0.010814	-4.66025	-5.71658	17.9865
 287	1	1	-0.019372	-6.88858	-1.82704	12.6332
 288	1	2	0.00686	-6.63715	-1.56429	11.5974
 289	1	1	-0.084968	-0.69392	-5.2556	12.402
 290	1	1	0.309483	0.47942	-4.26999	12.5236
 291	1	2	-0.002	-0.676857	-5.96441	13.24
 292	1	3	-0.436564	0.378872	-3.36802	11.4121
 293	1	1	0.15357	-0.828227	-2.58819	11.3946
 294	1	4	-0.002836	-2.16263	-4.00753	13.3744
 295	1	3	-0.349559	-1.96571	-3.47636	11.36
 296	1	2	0.015925	-3.31107	-5.55456	11.0011
 297	1	1	0.230077	-2.02766	-4.4833	12.3945
 298	1	2	0.052641	-0.594904	-5.83583	11.4757
 299	1	4	-0.023623	0.380358	-3.71106	13.4633
 300	1	1	-0.072969	-0.81146	-1.72216	10.1179
 301	1	2	0.031276	-3.60175	0.398717	10.5359
 302	1	2	0.023309	-3.56376	-1.22324	9.81074
 303	1	2	0.030094	-3.24312	-1.00862	11.5493
 304	1	5	0.077888	-0.864187	-1.95351	12.2902
 305	1	1	0.09092	-1.58775	-0.392758	10.2593
 306	1	2	0.047821	0.228859	-1.4828	9.86256
 307	1	2	0.068339	-1.21358	-2.30054	9.27691
 308	1	1	-0.129023	-3.09063	-0.571691	10.5562
 309	1	2	-0.006475	-1.13261	0.213043	11.0535
 310	1	2	-0.010814	-1.47796	0.177783	9.32838
 311	1	1	-0.019372	-3.21778	-5.42462	12.0871
 312	1	2	0.00686	-3.00634	-6.42297	12.492
 313	1	1	-0.084968	3.57177	-3.6666	11.1123
 314	1	1	0.309483	4.82554	-2.79104	11.2824
 315	1	2	-0.002	3.79993	-4.56894	10.5322
 316	1	3	-0.436564	4.42436	-1.62433	12.0199
 317	1	1	0.15357	3.84486	-1.86443	13.3201
 318	1	4	-0.002836	3.90896	-4.61731	13.0043
 319	1	3	-0.349559	2.81396	-2.87394	13.27
 320	1	2	0.015925	1.89937	-5.66591	11.6383
 321	1	1	0.230077	3.09111	-4.07028	12.5173
 322	1	2	0.052641	2.79525	-3.10957	10.5747
 323	1	4	-0.023623	5.57171	-3.34375	11.868
 324	1	1	-0.072969	3.21062	-0.548977	13.8179
 325	1	2	0.031276	1.05887	1.15812	14.4631
 326	1	2	0.023309	2.21087	2.06365	13.4526
 327	1	2	0.030094	0.625517	1.60032	12.7978
 328	1	5	0.077888	4.63455	-2.18927	14.01
 329	1	1	0.09092	2.04171	-0.0533837	12.9308
 330	1	2	0.047821	2.85329	-0.693684	14.8448
 331	1	2	0.068339	3.98902	0.222578	13.8588
 332	1	1	-0.129023	1.44944	1.27359	13.4443
 333	1	2	-0.006475	2.38625	0.0869394	11.8984
 334	1	2	-0.010814	1.24464	-0.806616	12.9039
 335	1	1	-0.019372	1.84699	-4.99455	12.505
 336	1	2	0.00686	1.89818	-5.64246	13.3893
 337	1	1	-0.084968	6.84365	-3.10511	7.9061
 338	1	1	0.309483	7.17333	-4.34835	7.05165
 339	1	2	-0.002	6.42001	-2.3111	7.2782
 340	1	3	-0.436564	7.61235	-5.40366	7.92817
 341	1	1	0.15357	6.73973	-5.74745	9.01694
 342	1	4	-0.002836	4.91061	-3.85283	8.52815
 343	1	3	-0.349559	6.41218	-4.5671	9.76779
 344	1	2	0.015925	6.3898	-1.76563	10.1982
 345	1	1	0.230077	5.83371	-3.49586	9.00332
 346	1	2	0.052641	7.76137	-2.71471	8.36383
 347	1	4	-0.023623	6.26698	-4.67057	6.5232
 348	1	1	-0.072969	7.46827	-6.74554	9.94031
 349	1	2	0.031276	8.81164	-7.53776	12.2868
 350	1	2	0.023309	9.7485	-8.10797	10.8849
 351	1	2	0.030094	10.3793	-6.79541	11.9024
 352	1	5	0.077888	5.82059	-6.20083	8.62283
 353	1	1	0.09092	8.76308	-6.18062	10.5722
 354	1	2	0.047821	6.78073	-7.05829	10.7358
 355	1	2	0.068339	7.71057	-7.64446	9.36046
 356	1	1	-0.129023	9.46705	-7.22069	11.4659
 357	1	2	-0.006475	9.45726	-5.86111	9.78467
 358	1	2	-0.010814	8.53037	-5.29416	11.1758
 359	1	1	-0.019372	5.47934	-2.3289	9.95678
 360	1	2	0.00686	4.80779	-1.63446	9.43545
 361	1	1	-0.084968	9.21278	-2.94356	3.95705
 362	1	1	0.309483	8.63937	-2.63756	2.55827
 363	1	2	-0.002	9.95333	-2.18461	4.24119
 364	1	3	-0.436564	7.61464	-1.64135	2.7241
 365	1	1	0.15357	6.46506	-2.06669	3.49034
 366	1	4	-0.002836	8.10798	-2.03391	5.58326
 367	1	3	-0.349559	6.82098	-3.13871	4.39294
 368	1	2	0.015925	8.45232	-5.07921	5.47749
 369	1	1	0.230077	8.10134	-2.98553	5.03613
 370	1	2	0.052641	9.74831	-3.89961	3.91009
 371	1	4	-0.023623	8.19408	-3.55605	2.15491
 372	1	1	-0.072969	5.37623	-2.60389	2.5343
 373	1	2	0.031276	6.10053	-0.032676	1.35022
 374	1	2	0.023309	5.83838	-1.26753	0.095395
 375	1	2	0.030094	4.66847	0.0505305	0.311368
 376	1	5	0.077888	6.07531	-1.21729	4.06632
 377	1	1	0.09092	4.54392	-1.49764	1.84343
 378	1	2	0.047821	5.8307	-3.25256	1.77483
 379	1	2	0.068339	4.68913	-3.23586	3.11042
 380	1	1	-0.129023	5.34007	-0.636486	0.840719
 381	1	2	-0.006475	3.71319	-1.97334	1.30686
 382	1	2	-0.010814	4.09246	-0.847884	2.60409
 383	1	1	-0.019372	8.31853	-4.14311	6.03515
 384	1	2	0.00686	9.2561	-3.9656	6.5784
 385	1	1	-0.084968	10.2793	-1.47654	-0.819211
 386	1	1	0.309483	9.68676	-1.27005	-2.22663
 387	1	2	-0.002	10.8089	-0.57181	-0.494363
 388	1	3	-0.436564	8.93518	-2.44372	-2.58802
 389	1	1	0.15357	7.92403	-2.86549	-1.65345
 390	1	4	-0.002836	8.44886	-0.984258	0.231913
 391	1	3	-0.349559	8.48269	-2.99069	-0.332087
 392	1	2	0.015925	10.5055	-2.88712	1.49595
 393	1	1	0.230077	9.15533	-1.8221	0.170962
 394	1	2	0.052641	10.9977	-2.30126	-0.824481
 395	1	4	-0.023623	9.00267	-0.412746	-2.18268
 396	1	1	-0.072969	7.37876	-4.23768	-2.09849
 397	1	2	0.031276	8.64494	-7.46447	-2.65336
 398	1	2	0.023309	7.09945	-7.03369	-1.89045
 399	1	2	0.030094	7.39667	-6.62208	-3.59617
 400	1	5	0.077888	7.11175	-2.12748	-1.63744
 401	1	1	0.09092	8.45847	-5.34379	-2.17378
 402	1	2	0.047821	6.58865	-4.54518	-1.40229
 403	1	2	0.068339	6.90696	-4.12462	-3.08208
 404	1	1	-0.129023	7.86156	-6.69806	-2.60512
 405	1	2	-0.006475	9.24145	-5.0572	-2.88751
 406	1	2	-0.010814	8.94206	-5.46424	-1.19612
 407	1	1	-0.019372	9.71566	-2.12903	1.57714
 408	1	2	0.00686	10.1866	-1.2244	1.98315
 409	1	1	-0.084968	12.4305	-1.9512	-4.99793
 410	1	1	0.309483	13.4131	-3.10912	-5.27909
 411	1	2	-0.002	11.744	-1.81457	-5.83654
 412	1	3	-0.436564	14.2187	-3.30817	-4.09871
 413	1	1	0.15357	13.5154	-3.48817	-2.85392
 414	1	4	-0.002836	11.0246	-3.09277	-3.8121
 415	1	3	-0.349559	12.6108	-2.38839	-2.65408
 416	1	2	0.015925	11.3533	-0.132485	-3.04626
 417	1	1	0.230077	11.6405	-2.19309	-3.69747
 418	1	2	0.052641	13.0025	-1.0197	-4.90567
 419	1	4	-0.023623	14.0808	-2.80666	-6.09549
 420	1	1	-0.072969	14.5527	-3.49732	-1.7167
 421	1	2	0.031276	15.6958	-4.69983	0.565476
 422	1	2	0.023309	15.5194	-2.95606	0.874366
 423	1	2	0.030094	14.492	-4.12126	1.73701
 424	1	5	0.077888	12.959	-4.43466	-2.86807
 425	1	1	0.09092	13.9173	-3.81008	-0.344221
 426	1	2	0.047821	15.3182	-4.25027	-1.94224
 427	1	2	0.068339	15.0588	-2.52455	-1.68016
 428	1	1	-0.129023	14.9722	-3.902	0.775304
 429	1	2	-0.006475	13.1891	-3.03229	-0.0835692
 430	1	2	-0.010814	13.3693	-4.75944	-0.400782
 431	1	1	-0.019372	10.7325	-0.990084	-3.33574
 432	1	2	0.00686	10.1869	-0.68045	-4.2363
 433	1	1	-0.084968	12.0219	-5.97384	-7.59004
 434	1	1	0.309483	11.5276	-5.9951	-9.0506
 435	1	2	-0.002	12.9035	-6.61378	-7.46566
 436	1	3	-0.436564	10.3869	-5.11598	-9.12787
 437	1	1	0.15357	10.5487	-3.76229	-8.64824
 438	1	4	-0.002836	13.1272	-4.11946	-7.77517
 439	1	3	-0.349559	11.1199	-3.76641	-7.32194
 440	1	2	0.015925	11.9261	-4.71393	-5.01518
 441	1	1	0.230077	12.327	-4.5306	-7.14766
 442	1	2	0.052641	11.2378	-6.39225	-6.94591
 443	1	4	-0.023623	11.1961	-7.01332	-9.2872
 444	1	1	-0.072969	9.15201	-3.10632	-8.5944
 445	1	2	0.031276	9.89604	0.305113	-8.0711
 446	1	2	0.023309	9.65173	-0.953947	-6.84228
 447	1	2	0.030094	11.0608	-1.02271	-7.933
 448	1	5	0.077888	11.1983	-3.20657	-9.33648
 449	1	1	0.09092	9.17029	-1.58655	-8.87961
 450	1	2	0.047821	8.50148	-3.5837	-9.33825
 451	1	2	0.068339	8.69396	-3.29489	-7.61529
 452	1	1	-0.129023	9.99614	-0.768058	-7.86733
 453	1	2	-0.006475	9.56164	-1.40954	-9.88967
 454	1	2	-0.010814	8.1378	-1.215	-8.8739
 455	1	1	-0.019372	12.7712	-4.46774	-5.66914
 456	1	2	0.00686	13.5217	-5.25283	-5.50839
 457	1	1	-0.084968	13.6891	-7.87601	-10.4518
 458	1	1	0.309483	15.0667	-8.56229	-10.5226
 459	1	2	-0.002	13.0669	-8.36997	-9.69503
 460	1	3	-0.436564	15.8601	-7.84908	-11.4892
 461	1	1	0.15357	16.0487	-6.44994	-11.2055
 462	1	4	-0.002836	14.3512	-6.30739	-9.11059
 463	1	3	-0.349559	14.7659	-5.81089	-11.0734
 464	1	2	0.015925	12.8354	-4.50829	-9.9883
 465	1	1	0.230077	13.8815	-6.38839	-10.0986
 466	1	2	0.052641	13.176	-7.96801	-11.4176
 467	1	4	-0.023623	15.5357	-8.48642	-9.53333
 468	1	1	-0.072969	16.7901	-5.78836	-12.3818
 469	1	2	0.031276	20.1126	-5.62389	-13.4962
 470	1	2	0.023309	18.6408	-5.63288	-14.4919
 471	1	2	0.030094	18.9552	-4.2823	-13.3863
 472	1	5	0.077888	16.6186	-6.32541	-10.2747
 473	1	1	0.09092	18.2994	-6.11052	-12.3798
 474	1	2	0.047821	16.3398	-6.11457	-13.3278
 475	1	2	0.068339	16.6555	-4.7013	-12.3199
 476	1	1	-0.129023	19.046	-5.36875	-13.5077
 477	1	2	-0.006475	18.7344	-5.81937	-11.415
 478	1	2	-0.010814	18.4505	-7.19195	-12.486
 479	1	1	-0.019372	12.5731	-5.56466	-10.1176
 480	1	2	0.00686	12.1138	-5.64617	-11.1113
 481	1	1	-0.084968	17.0663	-10.7636	-12.2467
 482	1	1	0.309483	18.3822	-11.553	-12.0915
 483	1	2	-0.002	16.472	-11.1831	-13.0684
 484	1	3	-0.436564	19.1028	-10.9881	-10.9844
 485	1	1	0.15357	18.4177	-10.9892	-9.71925
 486	1	4	-0.002836	16.0395	-11.9078	-10.7504
 487	1	3	-0.349559	17.1193	-10.3803	-9.84959
 488	1	2	0.015925	14.4728	-10.1356	-11.9114
 489	1	1	0.230077	16.2802	-10.8509	-10.9238
 490	1	2	0.052641	17.2716	-9.71548	-12.4888
 491	1	4	-0.023623	18.1432	-12.5996	-11.8623
 492	1	1	-0.072969	19.2376	-10.1432	-8.72717
 493	1	2	0.031276	20.8744	-9.82455	-6.45978
 494	1	2	0.023309	22.3851	-10.4031	-7.19466
 495	1	2	0.030094	21.6146	-8.92317	-7.80427
 496	1	5	0.077888	18.308	-12.0185	-9.3533
 497	1	1	0.09092	20.6152	-10.7689	-8.41624
 498	1	2	0.047821	19.3744	-9.13547	-9.14023
 499	1	2	0.068339	18.6687	-10.0342	-7.79588
 500	1	1	-0.129023	21.4195	-9.92708	-7.40642
 501	1	2	-0.006475	20.4752	-11.7799	-8.01262
 502	1	2	-0.010814	21.1993	-10.8691	-9.33995
 503	1	1	-0.019372	14.9495	-10.0543	-10.926
 504	1	2	0.00686	14.267	-10.5442	-10.2199
 505	1	1	-0.084968	21.0216	-9.92753	-14.4145
 506	1	1	0.309483	21.147	-8.46332	-14.8729
 507	1	2	-0.002	21.7795	-10.1526	-13.6533
 508	1	3	-0.436564	20.1374	-8.2199	-15.8692
 509	1	1	0.15357	18.7785	-8.5015	-15.4758
 510	1	4	-0.002836	19.4883	-9.38423	-13.0139
 511	1	3	-0.349559	18.6736	-9.8124	-14.8903
 512	1	2	0.015925	18.8871	-12.1375	-14.1263
 513	1	1	0.230077	19.6097	-10.1028	-13.8345
 514	1	2	0.052641	21.1671	-10.6166	-15.2555
 515	1	4	-0.023623	20.9538	-7.81399	-14.0098
 516	1	1	-0.072969	17.8758	-8.42494	-16.7234
 517	1	2	0.031276	17.3913	-8.27261	-19.4916
 518	1	2	0.023309	17.67	-9.98793	-19.8603
 519	1	2	0.030094	16.3192	-9.51701	-18.8065
 520	1	5	0.077888	18.4491	-7.76371	-14.7367
 521	1	1	0.09092	18.2818	-9.40756	-17.8475
 522	1	2	0.047821	16.839	-8.61992	-16.4226
 523	1	2	0.068339	17.9045	-7.39934	-17.1111
 524	1	1	-0.129023	17.3579	-9.28756	-19.0757
 525	1	2	-0.006475	19.315	-9.21275	-18.1624
 526	1	2	-0.010814	18.2479	-10.4389	-17.4742
 527	1	1	-0.019372	19.3207	-11.531	-13.3206
 528	1	2	0.00686	20.2616	-12.0231	-13.042
 529	1	1	-0.084968	24.0081	-8.17755	-17.5232
 530	1	1	0.309483	24.5324	-9.11615	-18.6256
 531	1	2	-0.002	23.5289	-7.29546	-17.9647
 532	1	3	-0.436564	25.0997	-10.2703	-17.9847
 533	1	1	0.15357	24.211	-10.9963	-17.1128
 534	1	4	-0.002836	22.1207	-9.19573	-17.2825
 535	1	3	-0.349559	23.6143	-10.1118	-16.1439
 536	1	2	0.015925	23.2783	-8.09905	-14.6667
 537	1	1	0.230077	22.9809	-8.92489	-16.6566
 538	1	2	0.052641	24.8426	-7.82787	-16.9021
 539	1	4	-0.023623	23.6927	-9.43992	-19.2534
 540	1	1	-0.072969	25.0099	-12.1003	-16.3813
 541	1	2	0.031276	26.527	-9.65854	-15.8481
 542	1	2	0.023309	27.585	-10.4065	-14.6402
 543	1	2	0.030094	27.6112	-10.9899	-16.3185
 544	1	5	0.077888	23.4207	-11.4563	-17.7204
 545	1	1	0.09092	25.8616	-11.6341	-15.1713
 546	1	2	0.047821	24.3001	-12.8588	-16.0298
 547	1	2	0.068339	25.6608	-12.6046	-17.1061
 548	1	1	-0.129023	26.962	-10.6101	-15.5198
 549	1	2	-0.006475	25.2107	-11.2169	-14.3924
 550	1	2	-0.010814	26.3394	-12.5169	-14.7276
 551	1	1	-0.019372	22.5188	-8.06356	-15.4585
 552	1	2	0.00686	22.4546	-7.01265	-15.7695
 553	1	1	-0.084968	23.9411	-7.63683	-21.3023
 554	1	1	0.309483	23.7964	-6.60369	-22.4463
 555	1	2	-0.002	24.1142	-8.62941	-21.7378
 556	1	3	-0.436564	24.4085	-5.37305	-22.03
 557	1	1	0.15357	25.8283	-5.46596	-21.7935
 558	1	4	-0.002836	24.7228	-6.5003	-19.6316
 559	1	3	-0.349559	26.1577	-6.69147	-21.0985
 560	1	2	0.015925	26.0159	-9.22423	-20.2083
 561	1	1	0.230077	25.0854	-7.26515	-20.3291
 562	1	2	0.052641	23.0078	-7.70274	-20.7302
 563	1	4	-0.023623	24.3359	-6.97303	-23.3282
 564	1	1	-0.072969	26.2464	-4.26552	-20.9218
 565	1	2	0.031276	26.0212	-1.65368	-19.8804
 566	1	2	0.023309	27.6398	-1.83352	-20.5991
 567	1	2	0.030094	26.4315	-0.789477	-21.3777
 568	1	5	0.077888	26.3709	-5.44212	-22.7475
 569	1	1	0.09092	26.068	-2.92105	-21.6616
 570	1	2	0.047821	25.6556	-4.25715	-19.9972
 571	1	2	0.068339	27.2974	-4.38623	-20.6325
 572	1	1	-0.129023	26.5715	-1.72777	-20.8267
 573	1	2	-0.006475	26.6162	-2.95029	-22.6121
 574	1	2	-0.010814	25.0093	-2.76502	-21.9056
 575	1	1	-0.019372	25.6189	-8.46907	-19.5176
 576	1	2	0.00686	26.4574	-8.14006	-18.89
 577	1	1	-0.084968	20.8273	-5.3341	-24.6276
 578	1	1	0.309483	20.4822	-4.03372	-25.3785
 579	1	2	-0.002	20.9688	-6.15349	-25.3442
 580	1	3	-0.436564	20.3703	-2.99149	-24.3976
 581	1	1	0.15357	21.5457	-2.77332	-23.5976
 582	1	4	-0.002836	22.9629	-5.02751	-24.4444
 583	1	3	-0.349559	21.9258	-3.99749	-22.9453
 584	1	2	0.015925	21.7024	-6.24527	-21.9443
 585	1	1	0.230077	22.1002	-5.15902	-23.7783
 586	1	2	0.052641	19.9898	-5.61112	-23.9744
 587	1	4	-0.023623	21.2883	-3.79568	-26.0846
 588	1	1	-0.072969	21.2231	-1.72262	-22.5156
 589	1	2	0.031276	18.972	-1.40168	-19.8387
 590	1	2	0.023309	20.6965	-0.976115	-19.8418
 591	1	2	0.030094	19.5632	-0.111244	-20.908
 592	1	5	0.077888	22.369	-2.42192	-24.2334
 593	1	1	0.09092	20.0572	-2.13231	-21.5835
 594	1	2	0.047821	22.1255	-1.54743	-21.9166
 595	1	2	0.068339	20.9798	-0.77311	-23.0075
 596	1	1	-0.129023	19.8084	-1.08957	-20.4763
 597	1	2	-0.006475	19.1369	-2.25658	-22.1685
 598	1	2	-0.010814	20.2724	-3.10017	-21.1133
 599	1	1	-0.019372	22.3201	-6.37248	-22.8434
 600	1	2	0.00686	21.9598	-7.28516	-23.3354
 601	1	1	-0.084968	17.7973	-1.98328	-25.9738
 602	1	1	0.309483	17.3089	-0.762656	-26.7788
 603	1	2	-0.002	16.9542	-2.50744	-25.5095
 604	1	3	-0.436564	18.4668	-0.160482	-27.395
 605	1	1	0.15357	19.319	-1.01181	-28.1955
 606	1	4	-0.002836	17.9426	-3.28884	-27.6769
 607	1	3	-0.349559	19.6918	-2.19474	-27.4616
 608	1	2	0.015925	18.379	-4.54742	-25.4446
 609	1	1	0.230077	18.6052	-2.93605	-26.8768
 610	1	2	0.052641	18.4264	-1.62018	-25.1538
 611	1	4	-0.023623	16.8783	-0.0437033	-26.0707
 612	1	1	-0.072969	20.6062	-0.235588	-28.5363
 613	1	2	0.031276	18.7626	0.257191	-30.7062
 614	1	2	0.023309	19.6815	1.6043	-31.3992
 615	1	2	0.030094	20.4032	-0.0170879	-31.3418
 616	1	5	0.077888	18.7999	-1.30942	-29.1145
 617	1	1	0.09092	20.3639	1.01661	-29.4119
 618	1	2	0.047821	21.0941	0.0696819	-27.602
 619	1	2	0.068339	21.3043	-0.906841	-29.051
 620	1	1	-0.129023	19.7659	0.690939	-30.7974
 621	1	2	-0.006475	19.7042	1.71915	-28.8871
 622	1	2	-0.010814	21.3203	1.53522	-29.5554
 623	1	1	-0.019372	19.1447	-4.18948	-26.1426
 624	1	2	0.00686	19.2707	-4.98651	-26.8865
 625	1	1	-0.084968	13.7591	-1.46134	-28.3252
 626	1	1	0.309483	12.5306	-2.32207	-27.9508
 627	1	2	-0.002	13.4956	-0.3972	-28.3368
 628	1	3	-0.436564	12.9683	-3.68821	-27.8199
 629	1	1	0.15357	14.0608	-3.93074	-26.9153
 630	1	4	-0.002836	14.7011	-1.31364	-26.3735
 631	1	3	-0.349559	15.1851	-3.12274	-27.3052
 632	1	2	0.015925	16.6604	-1.62727	-28.6965
 633	1	1	0.230077	14.9489	-1.70267	-27.3691
 634	1	2	0.052641	14.0628	-1.72021	-29.3471
 635	1	4	-0.023623	11.8073	-2.27695	-28.7744
 636	1	1	-0.072969	14.4298	-5.42326	-27.0238
 637	1	2	0.031276	15.5375	-4.38823	-24.5532
 638	1	2	0.023309	14.6734	-5.91561	-24.255
 639	1	2	0.030094	16.446	-5.85743	-24.1606
 640	1	5	0.077888	13.7632	-3.6869	-25.8873
 641	1	1	0.09092	15.6731	-5.83072	-26.2018
 642	1	2	0.047821	13.5715	-6.02143	-26.6937
 643	1	2	0.068339	14.6003	-5.67367	-28.0782
 644	1	1	-0.129023	15.5726	-5.47432	-24.7028
 645	1	2	-0.006475	15.8213	-6.91347	-26.2998
 646	1	2	-0.010814	16.5615	-5.35742	-26.6332
 647	1	1	-0.019372	16.2432	-1.02565	-27.8799
 648	1	2	0.00686	15.9823	-0.0550815	-28.3213
 649	1	1	-0.084968	9.82486	-0.691379	-25.5819
 650	1	1	0.309483	9.61219	0.790093	-25.2124
 651	1	2	-0.002	8.85749	-1.18129	-25.7533
 652	1	3	-0.436564	9.35042	1.52679	-26.422
 653	1	1	0.15357	10.3777	1.4663	-27.4383