pySIMM System Object

842 atoms
876 bonds
1750 angles
2616 dihedrals
0 impropers

5 atom types
5 bond types
11 angle types
8 dihedral types

-126.153470 126.153470 xlo xhi
-126.153470 126.153470 ylo yhi
-126.153470 126.153470 zlo zhi

Masses

   1	12.01	# c3
   2	1.008	# hc
   3	16.0	# os
   4	1.008	# h1
   5	1.008	# h2

Pair Coeffs

   1	0.1094	3.3996695084235347	# c3
   2	0.0157	2.649532787749369	# hc
   3	0.17	3.0000123434657784	# os
   4	0.0157	2.471353044121301	# h1
   5	0.0157	2.2931733004932333	# h2

Bond Coeffs

   1	330.6	1.0969	# c3,h1
   2	308.6	1.4316	# c3,os
   3	330.6	1.0969	# c3,hc
   4	300.9	1.5375	# c3,c3
   5	331.7	1.0961	# c3,h2

Angle Coeffs

   1	62.7	112.48	# c3,os,c3
   2	50.85	109.58	# h2,c3,os
   3	68.0	107.97	# c3,c3,os
   4	72.74	108.29	# os,c3,os
   5	46.34	109.8	# c3,c3,hc
   6	46.25	110.22	# c3,c3,h2
   7	50.8	109.78	# h1,c3,os
   8	46.39	109.56	# c3,c3,h1
   9	39.4	107.58	# hc,c3,hc
  10	39.24	108.46	# h1,c3,h1
  11	62.86	111.51	# c3,c3,c3

Dihedral Coeffs

   1	3	0.18	3	0	0.25	2	180	0.2	1	180	# c3,c3,c3,c3
   2	2	0.0	3	0	0.25	1	0	# hc,c3,c3,os
   3	1	0.3833333333333333	3	0	# X,c3,os,X
   4	1	0.15	3	0	# hc,c3,c3,hc
   5	2	0.383	3	0	0.1	2	180	# c3,c3,os,c3
   6	1	0.16	3	0	# hc,c3,c3,c3
   7	3	0.1	3	0	0.85	2	180	1.35	1	180	# c3,os,c3,os
   8	1	0.15555555555555556	3	0	# X,c3,c3,X

Atoms

   1	1	1	-0.084968	-0.907613	42.671	0.40203
   2	1	1	0.309483	-0.809042	44.1411	0.857329
   3	1	2	-0.002	-0.303096	42.0257	1.05161
   4	1	3	-0.436564	-1.69173	44.9216	0.0302233
   5	1	1	0.15357	-3.07062	44.5086	0.0167208
   6	1	4	-0.002836	-2.73061	42.2544	1.49544
   7	1	3	-0.349559	-3.1563	43.1183	-0.348272
   8	1	2	0.015925	-3.63416	40.5062	-0.0495262
   9	1	1	0.230077	-2.37739	42.2179	0.456644
  10	1	2	0.052641	-0.522222	42.571	-0.62049
  11	1	4	-0.023623	-1.13539	44.2166	1.90255
  12	1	1	-0.072969	-3.80494	45.3497	-1.04648
  13	1	2	0.031276	-5.78357	44.6304	0.933006
  14	1	2	0.023309	-5.98027	46.3338	0.452873
  15	1	2	0.030094	-7.17802	45.1207	-0.0449571
  16	1	5	0.077888	-3.51183	44.665	1.00954
  17	1	1	0.09092	-5.31277	45.0275	-1.17225
  18	1	2	0.047821	-3.68243	46.4135	-0.807595
  19	1	2	0.068339	-3.32279	45.1886	-2.01856
  20	1	1	-0.129023	-6.10798	45.2951	0.12307
  21	1	2	-0.006475	-5.73638	45.6403	-1.97807
  22	1	2	-0.010814	-5.44863	43.981	-1.47302
  23	1	1	-0.019372	-2.57559	40.7914	-0.0925514
  24	1	2	0.00686	-2.24229	40.7216	-1.13588
  25	1	1	-0.084968	3.06076	44.6819	1.45441
  26	1	1	0.309483	4.05929	43.9107	2.33662
  27	1	2	-0.002	3.42544	44.7243	0.419989
  28	1	3	-0.436564	3.50052	43.8416	3.66239
  29	1	1	0.15357	2.21087	43.2068	3.75158
  30	1	4	-0.002836	1.80102	42.9716	1.07723
  31	1	3	-0.349559	1.28437	43.8756	2.87729
  32	1	2	0.015925	0.579375	45.7893	1.06173
  33	1	1	0.230077	1.69199	43.978	1.50109
  34	1	2	0.052641	2.96489	45.7138	1.81555
  35	1	4	-0.023623	4.16554	42.8963	1.93171
  36	1	1	-0.072969	1.67864	43.3298	5.19191
  37	1	2	0.031276	0.948956	42.0858	7.61962
  38	1	2	0.023309	2.58413	41.9885	8.30539
  39	1	2	0.030094	1.84307	43.5758	8.00896
  40	1	5	0.077888	2.29385	42.1499	3.46489
  41	1	1	0.09092	2.54997	42.56	6.20672
  42	1	2	0.047821	1.62778	44.3888	5.47526
  43	1	2	0.068339	0.654206	42.939	5.22255
  44	1	1	-0.129023	1.94117	42.554	7.62104
  45	1	2	-0.006475	2.68525	41.5244	5.869
  46	1	2	-0.010814	3.54237	43.0192	6.25467
  47	1	1	-0.019372	0.606578	44.7478	0.716058
  48	1	2	0.00686	0.886445	44.775	-0.345163
  49	1	1	-0.084968	6.39023	44.0125	4.72993
  50	1	1	0.309483	6.31609	42.6523	5.44527
  51	1	2	-0.002	7.25811	44.5747	5.09879
  52	1	3	-0.436564	7.40825	41.8626	4.94425
  53	1	1	0.15357	7.35554	41.5477	3.53612
  54	1	4	-0.002836	7.50867	44.2293	2.90398
  55	1	3	-0.349559	6.46492	42.4394	2.83403
  56	1	2	0.015925	5.34799	45.62	2.76585
  57	1	1	0.230077	6.52547	43.8374	3.1947
  58	1	2	0.052641	5.50962	44.6114	4.98845
  59	1	4	-0.023623	5.36661	42.1643	5.1917
  60	1	1	-0.072969	6.79236	40.1212	3.37212
  61	1	2	0.031276	6.92974	37.3791	2.72802
  62	1	2	0.023309	7.87318	36.8727	4.14615
  63	1	2	0.030094	6.24105	37.5382	4.36148
  64	1	5	0.077888	8.36371	41.6127	3.10649
  65	1	1	0.09092	7.76279	39.0365	3.888
  66	1	2	0.047821	5.83596	40.0449	3.90481
  67	1	2	0.068339	6.58192	39.9395	2.3109
  68	1	1	-0.129023	7.16334	37.6211	3.77241
  69	1	2	-0.006475	8.69926	39.0816	3.31741
  70	1	2	-0.010814	8.01804	39.228	4.93626
  71	1	1	-0.019372	5.4489	44.5978	2.37893
  72	1	2	0.00686	5.81433	44.6985	1.34897
  73	1	1	-0.084968	7.4438	40.6016	7.92845
  74	1	1	0.309483	7.11614	39.3044	8.69155
  75	1	2	-0.002	7.9442	40.3618	6.98452
  76	1	3	-0.436564	6.37236	39.6518	9.87952
  77	1	1	0.15357	5.22708	40.519	9.73799
  78	1	4	-0.002836	5.45222	40.8441	7.08289
  79	1	3	-0.349559	5.57475	41.6855	8.96859
  80	1	2	0.015925	5.66665	43.5025	7.3183
  81	1	1	0.230077	6.16369	41.4244	7.68378
  82	1	2	0.052641	8.15129	41.1943	8.52148
  83	1	4	-0.023623	8.0641	38.8419	8.99336
  84	1	1	-0.072969	4.80576	40.961	11.1518
  85	1	2	0.031276	2.90211	41.3157	13.2024
  86	1	2	0.023309	3.85973	42.8088	13.058
  87	1	2	0.030094	2.15747	42.7911	12.55
  88	1	5	0.077888	4.40693	39.9807	9.2459
  89	1	1	0.09092	3.5048	41.7926	11.1545
  90	1	2	0.047821	4.66679	40.0697	11.7764
  91	1	2	0.068339	5.61866	41.5446	11.602
  92	1	1	-0.129023	3.08175	42.2008	12.5792
  93	1	2	-0.006475	3.63823	42.6981	10.5491
  94	1	2	-0.010814	2.69698	41.21	10.6935
  95	1	1	-0.019372	6.41814	42.7773	6.98088
  96	1	2	0.00686	7.39628	43.1848	7.26779
  97	1	1	-0.084968	5.198	36.8307	9.68329
  98	1	1	0.309483	4.47308	35.4697	9.72655
  99	1	2	-0.002	5.7192	37.0169	10.6311
 100	1	3	-0.436564	5.41645	34.457	9.33022
 101	1	1	0.15357	5.86283	34.5511	7.96172
 102	1	4	-0.002836	7.21219	36.604	8.90401
 103	1	3	-0.349559	5.8409	35.9251	7.5155
 104	1	2	0.015925	6.87473	38.1384	6.89066
 105	1	1	0.230077	6.22346	36.888	8.52004
 106	1	2	0.052641	4.44462	37.619	9.57388
 107	1	4	-0.023623	3.64976	35.5006	9.00181
 108	1	1	-0.072969	4.90727	33.7354	7.06372
 109	1	2	0.031276	4.2399	31.5181	5.47806
 110	1	2	0.023309	3.97086	30.3631	6.79769
 111	1	2	0.030094	2.899	31.7703	6.62184
 112	1	5	0.077888	6.88246	34.1511	7.88764
 113	1	1	0.09092	4.8708	32.2379	7.44532
 114	1	2	0.047821	3.89479	34.1539	7.12231
 115	1	2	0.068339	5.23283	33.8359	6.02111
 116	1	1	-0.129023	3.9364	31.4252	6.5284
 117	1	2	-0.006475	5.8845	31.8214	7.38621
 118	1	2	-0.010814	4.53457	32.1197	8.48323
 119	1	1	-0.019372	6.33711	38.2702	7.83768
 120	1	2	0.00686	5.33847	38.6409	7.57605
 121	1	1	-0.084968	2.56574	33.3453	12.4315
 122	1	1	0.309483	1.82213	31.9976	12.3167
 123	1	2	-0.002	3.32915	33.2921	13.2183
 124	1	3	-0.436564	0.911248	32.0863	11.2004
 125	1	1	0.15357	1.43692	32.5249	9.93004
 126	1	4	-0.002836	3.95823	32.9653	10.8192
 127	1	3	-0.349559	2.17259	33.748	10.0919
 128	1	2	0.015925	3.17166	35.8741	11.4157
 129	1	1	0.230077	3.21179	33.7235	11.0855
 130	1	2	0.052641	1.85128	34.1235	12.7275
 131	1	4	-0.023623	1.24527	31.8463	13.2375
 132	1	1	-0.072969	0.266787	32.7448	8.94439
 133	1	2	0.031276	-1.88882	35.071	10.515
 134	1	2	0.023309	-1.86541	33.3048	10.7063
 135	1	2	0.030094	-0.511804	34.2915	11.3105
 136	1	5	0.077888	2.1047	31.753	9.52761
 137	1	1	0.09092	-0.541697	34.0551	9.13184
 138	1	2	0.047821	0.672886	32.7341	7.92569
 139	1	2	0.068339	-0.415752	31.8885	9.00892
 140	1	1	-0.129023	-1.24303	34.1845	10.5003
 141	1	2	-0.006475	0.109267	34.9243	8.97361
 142	1	2	-0.010814	-1.30694	34.1004	8.34658
 143	1	1	-0.019372	3.89583	35.1078	11.1109
 144	1	2	0.00686	4.69883	35.1063	11.8592
 145	1	1	-0.084968	1.08863	28.9707	11.2477
 146	1	1	0.309483	1.84388	28.6471	9.95325
 147	1	2	-0.002	0.548534	28.0778	11.5897
 148	1	3	-0.436564	2.69683	27.532	10.2537
 149	1	1	0.15357	3.65259	27.6754	11.3257
 150	1	4	-0.002836	1.546	29.4547	13.2902
 151	1	3	-0.349559	3.11474	28.3916	12.4709
 152	1	2	0.015925	3.56829	30.8718	12.8931
 153	1	1	0.230077	2.0888	29.4061	12.3379
 154	1	2	0.052641	0.326038	29.7346	11.0734
 155	1	4	-0.023623	2.44479	29.509	9.64131
 156	1	1	-0.072969	4.92182	28.3554	10.753
 157	1	2	0.031276	7.09565	29.1344	13.4285
 158	1	2	0.023309	5.98205	30.2291	12.5861
 159	1	2	0.030094	5.34957	28.9035	13.5945
 160	1	5	0.077888	3.9374	26.6687	11.6577
 161	1	1	0.09092	6.16876	28.2528	11.6636
 162	1	2	0.047821	5.16427	27.8554	9.8067
 163	1	2	0.068339	4.73568	29.4007	10.4949
 164	1	1	-0.129023	6.14075	29.1873	12.8911
 165	1	2	-0.006475	6.30395	27.2146	11.9928
 166	1	2	-0.010814	7.05284	28.5063	11.0648
 167	1	1	-0.019372	2.77475	30.7857	12.1406
 168	1	2	0.00686	3.27172	30.8405	11.1697
 169	1	1	-0.084968	2.36803	26.6438	7.39887
 170	1	1	0.309483	2.25425	26.0082	5.99779
 171	1	2	-0.002	3.42367	26.7771	7.66947
 172	1	3	-0.436564	2.36565	27.0645	5.02586
 173	1	1	0.15357	1.31497	28.0547	5.06834
 174	1	4	-0.002836	2.40314	28.81	7.34037
 175	1	3	-0.349559	0.716484	28.117	6.38103
 176	1	2	0.015925	0.196159	29.1042	8.64023
 177	1	1	0.230077	1.65529	28.0184	7.46911
 178	1	2	0.052641	1.93999	25.9489	8.13157
 179	1	4	-0.023623	1.26732	25.5359	5.91202
 180	1	1	-0.072969	0.211485	27.6716	4.06104
 181	1	2	0.031276	-1.15329	28.2175	1.6469
 182	1	2	0.023309	-0.00533571	27.4005	0.565539
 183	1	2	0.030094	-0.910574	26.4604	1.7688
 184	1	5	0.077888	1.73569	29.0343	4.80687
 185	1	1	0.09092	0.728105	27.6465	2.60528
 186	1	2	0.047821	-0.205922	26.6913	4.3228
 187	1	2	0.068339	-0.605063	28.3992	4.1435
 188	1	1	-0.129023	-0.405921	27.4165	1.58674
 189	1	2	-0.006475	1.22415	28.5984	2.37624
 190	1	2	-0.010814	1.47983	26.8551	2.48993
 191	1	1	-0.019372	0.896593	28.2729	8.7926
 192	1	2	0.00686	0.291113	27.3972	9.06078
 193	1	1	-0.084968	4.23988	23.1526	4.1193
 194	1	1	0.309483	3.62818	21.7964	3.70757
 195	1	2	-0.002	4.90365	23.5225	3.32699
 196	1	3	-0.436564	2.58774	22.0716	2.7529
 197	1	1	0.15357	1.48123	22.8541	3.24708
 198	1	4	-0.002836	3.13642	24.9399	3.57178
 199	1	3	-0.349559	1.85529	23.5586	4.44758
 200	1	2	0.015925	3.35649	24.2257	6.55182
 201	1	1	0.230077	3.13943	24.2122	4.39382
 202	1	2	0.052641	4.86512	23.0039	5.00806
 203	1	4	-0.023623	3.19045	21.3292	4.59975
 204	1	1	-0.072969	0.324018	21.8883	3.58084
 205	1	2	0.031276	-1.76293	23.2394	2.25395
 206	1	2	0.023309	-2.44791	24.0662	3.66983
 207	1	2	0.030094	-0.823532	24.4908	3.10327
 208	1	5	0.077888	1.17265	23.5685	2.47288
 209	1	1	0.09092	-0.927576	22.5826	4.16825
 210	1	2	0.047821	0.0402313	21.3483	2.66891
 211	1	2	0.068339	0.678545	21.1342	4.29386
 212	1	1	-0.129023	-1.52463	23.6594	3.23919
 213	1	2	-0.006475	-1.69258	21.8208	4.36501
 214	1	2	-0.010814	-0.683194	23.0358	5.13738
 215	1	1	-0.019372	3.35111	24.9551	5.73141
 216	1	2	0.00686	4.3353	25.4416	5.73046
 217	1	1	-0.084968	3.26029	19.1686	1.64354
 218	1	1	0.309483	2.76514	17.7118	1.55665
 219	1	2	-0.002	2.40274	19.8475	1.57966
 220	1	3	-0.436564	3.8889	16.8296	1.75915
 221	1	1	0.15357	4.73256	17.0611	2.90661
 222	1	4	-0.002836	3.41096	19.1988	3.8142
 223	1	3	-0.349559	5.1322	18.4442	2.95788
 224	1	2	0.015925	5.5192	20.7621	3.7673
 225	1	1	0.230077	4.05418	19.3937	2.94735
 226	1	2	0.052641	3.90375	19.3818	0.781066
 227	1	4	-0.023623	2.36984	17.5471	0.546599
 228	1	1	-0.072969	5.9885	16.182	2.7431
 229	1	2	0.031276	7.24174	15.9955	6.0321
 230	1	2	0.023309	5.66408	16.6627	5.57681
 231	1	2	0.030094	6.03016	14.9467	5.26537
 232	1	5	0.077888	4.19306	16.794	3.82437
 233	1	1	0.09092	7.01811	16.3296	3.88786
 234	1	2	0.047821	5.67981	15.1317	2.67068
 235	1	2	0.068339	6.47416	16.4329	1.79195
 236	1	1	-0.129023	6.45002	15.9605	5.27353
 237	1	2	-0.006475	7.87632	15.6801	3.6738
 238	1	2	-0.010814	7.40407	17.3565	3.91511
 239	1	1	-0.019372	4.65086	20.8131	3.09767
 240	1	2	0.00686	5.01614	21.1858	2.13178
 241	1	1	-0.084968	1.75059	14.913	3.26157
 242	1	1	0.309483	1.00698	13.5695	3.12879
 243	1	2	-0.002	2.79298	14.7873	2.94717
 244	1	3	-0.436564	-0.372015	13.7747	3.48426
 245	1	1	0.15357	-1.07256	14.8046	2.76517
 246	1	4	-0.002836	1.0726	15.6841	1.34343
 247	1	3	-0.349559	-0.332596	16.0371	2.82851
 248	1	2	0.015925	0.826455	18.1304	2.39329
 249	1	1	0.230077	1.04093	15.9775	2.40088
 250	1	2	0.052641	1.75505	15.2467	4.30503
 251	1	4	-0.023623	1.05967	13.2473	2.0808
 252	1	1	-0.072969	-2.43299	15.0367	3.44965
 253	1	2	0.031276	-4.59349	14.3161	5.10795
 254	1	2	0.023309	-5.24658	14.8767	3.55024
 255	1	2	0.030094	-5.3478	13.1584	3.99157
 256	1	5	0.077888	-1.21055	14.506	1.71759
 257	1	1	0.09092	-3.3513	13.7964	3.38522
 258	1	2	0.047821	-2.26609	15.3172	4.49751
 259	1	2	0.068339	-2.9334	15.8847	2.9664
 260	1	1	-0.129023	-4.71803	14.0549	4.0494
 261	1	2	-0.006475	-3.50719	13.5088	2.33755
 262	1	2	-0.010814	-2.86927	12.9463	3.88459
 263	1	1	-0.019372	1.62795	17.3994	2.56279
 264	1	2	0.00686	1.95979	17.5478	3.59738
 265	1	1	-0.084968	1.49263	11.4094	6.37201
 266	1	1	0.309483	1.42866	11.7896	7.86306
 267	1	2	-0.002	0.652977	10.7522	6.1119
 268	1	3	-0.436564	2.53655	12.6642	8.14454
 269	1	1	0.15357	2.58749	13.8603	7.34257
 270	1	4	-0.002836	0.504277	13.2188	5.75267
 271	1	3	-0.349559	2.56159	13.5111	5.94667
 272	1	2	0.015925	2.60559	12.2241	3.74988
 273	1	1	0.230077	1.44565	12.6986	5.53487
 274	1	2	0.052641	2.4244	10.8751	6.15632
 275	1	4	-0.023623	0.495596	12.3393	8.04321
 276	1	1	-0.072969	3.90967	14.5989	7.62338
 277	1	2	0.031276	1.95268	15.7696	9.4004
 278	1	2	0.023309	3.13975	16.6137	10.4096
 279	1	2	0.030094	2.98813	17.0322	8.69066
 280	1	5	0.077888	1.72748	14.5029	7.57081
 281	1	1	0.09092	4.02827	15.1421	9.06578
 282	1	2	0.047821	4.74772	13.919	7.42501
 283	1	2	0.068339	4.00426	15.4329	6.91869
 284	1	1	-0.129023	2.96033	16.2027	9.40847
 285	1	2	-0.006475	3.96675	14.3152	9.78456
 286	1	2	-0.010814	5.02158	15.5919	9.18998
 287	1	1	-0.019372	1.55981	12.4267	4.0147
 288	1	2	0.00686	1.00092	11.5138	3.77082
 289	1	1	-0.084968	2.99183	8.84587	9.91747
 290	1	1	0.309483	4.08777	7.81532	9.60329
 291	1	2	-0.002	3.34113	9.5418	10.6912
 292	1	3	-0.436564	3.55999	6.94536	8.58757
 293	1	1	0.15357	3.18619	7.59014	7.35627
 294	1	4	-0.002836	3.53943	10.1701	8.30203
 295	1	3	-0.349559	2.2556	8.65881	7.63011
 296	1	2	0.015925	0.524494	10.0518	8.80049
 297	1	1	0.230077	2.64827	9.62069	8.63238
 298	1	2	0.052641	2.09875	8.33821	10.3036
 299	1	4	-0.023623	4.96731	8.34784	9.22091
 300	1	1	-0.072969	2.49011	6.5335	6.47131
 301	1	2	0.031276	2.04662	8.19335	3.38689
 302	1	2	0.023309	0.992232	8.24009	4.8168
 303	1	2	0.030094	2.61441	8.97399	4.87075
 304	1	5	0.077888	4.0856	7.98238	6.86289
 305	1	1	0.09092	2.62858	6.79044	4.95284
 306	1	2	0.047821	2.91707	5.54629	6.68919
 307	1	2	0.068339	1.4279	6.47691	6.74034
 308	1	1	-0.129023	2.03162	8.132	4.48203
 309	1	2	-0.006475	3.68831	6.74878	4.67046
 310	1	2	-0.010814	2.12893	5.97509	4.41441
 311	1	1	-0.019372	1.47263	10.6023	8.85261
 312	1	2	0.00686	1.5267	11.0146	9.86867
 313	1	1	-0.084968	5.87723	5.12031	9.66913
 314	1	1	0.309483	7.30121	4.53754	9.63975
 315	1	2	-0.002	5.14442	4.34459	9.92354
 316	1	3	-0.436564	8.19635	5.61281	9.30797
 317	1	1	0.15357	8.18218	6.7391	10.2059
 318	1	4	-0.002836	6.06482	5.79894	11.702
 319	1	3	-0.349559	6.8389	7.21967	10.4062
 320	1	2	0.015925	3.67886	6.24418	11.059
 321	1	1	0.230077	5.83202	6.24196	10.7249
 322	1	2	0.052641	5.62766	5.50792	8.67497
 323	1	4	-0.023623	7.55803	4.15507	10.6359
 324	1	1	-0.072969	9.02034	7.8749	9.58317
 325	1	2	0.031276	9.39086	10.3809	8.34662
 326	1	2	0.023309	10.3315	9.16795	7.44511
 327	1	2	0.030094	8.88511	9.89638	6.71406
 328	1	5	0.077888	8.61022	6.43834	11.1711
 329	1	1	0.09092	8.44367	8.41211	8.25041
 330	1	2	0.047821	9.09424	8.69695	10.3057
 331	1	2	0.068339	10.0402	7.50751	9.4163
 332	1	1	-0.129023	9.318	9.53272	7.65427
 333	1	2	-0.006475	8.36283	7.59659	7.52062
 334	1	2	-0.010814	7.43059	8.80318	8.40879
 335	1	1	-0.019372	4.47217	6.97161	10.8438
 336	1	2	0.00686	4.52547	7.63218	11.7188
 337	1	1	-0.084968	7.02016	0.987922	7.9375
 338	1	1	0.309483	6.20314	-0.263256	8.32161
 339	1	2	-0.002	6.83909	1.25656	6.8894
 340	1	3	-0.436564	6.38891	-0.506561	9.72794
 341	1	1	0.15357	6.08059	0.583504	10.6141
 342	1	4	-0.002836	5.57522	2.42198	8.66883
 343	1	3	-0.349559	6.80015	1.76202	10.2128
 344	1	2	0.015925	8.5625	3.1232	8.6004
 345	1	1	0.230077	6.62872	2.16973	8.845
 346	1	2	0.052641	8.0914	0.775365	8.04521
 347	1	4	-0.023623	5.13945	-0.0792298	8.1237
 348	1	1	-0.072969	6.51578	0.197553	12.0433
 349	1	2	0.031276	8.17519	0.341855	14.322
 350	1	2	0.023309	7.89033	-1.37248	13.9368
 351	1	2	0.030094	9.49832	-0.659497	13.6876
 352	1	5	0.077888	5.00131	0.78391	10.5893
 353	1	1	0.09092	8.03304	-0.0769469	12.1801
 354	1	2	0.047821	6.22782	1.00285	12.7303
 355	1	2	0.068339	5.957	-0.694819	12.3505
 356	1	1	-0.129023	8.4206	-0.4654	13.6206
 357	1	2	-0.006475	8.33055	-0.886563	11.5017
 358	1	2	-0.010814	8.60399	0.813656	11.8884
 359	1	1	-0.019372	7.50522	3.41827	8.59238
 360	1	2	0.00686	7.29462	3.81006	7.58877
 361	1	1	-0.084968	6.9824	-2.77833	5.36409
 362	1	1	0.309483	6.14246	-3.14757	4.12143
 363	1	2	-0.002	8.03337	-2.62336	5.08725
 364	1	3	-0.436564	5.63667	-1.93039	3.54021
 365	1	1	0.15357	4.73791	-1.16673	4.37533
 366	1	4	-0.002836	6.99649	-0.636921	5.64736
 367	1	3	-0.349559	5.05485	-1.35884	5.77126
 368	1	2	0.015925	6.10033	-2.40191	7.99696
 369	1	1	0.230077	6.45825	-1.49955	6.05972
 370	1	2	0.052641	6.9634	-3.62789	6.05772
 371	1	4	-0.023623	5.30102	-3.77164	4.44741
 372	1	1	-0.072969	3.28224	-1.6415	4.15792
 373	1	2	0.031276	4.26847	-1.25049	1.43337
 374	1	2	0.023309	3.25861	-2.71241	1.55133
 375	1	2	0.030094	2.65697	-1.2755	0.699278
 376	1	5	0.077888	4.8266	-0.101655	4.12477
 377	1	1	0.09092	2.6214	-1.08939	2.87254
 378	1	2	0.047821	3.23916	-2.73763	4.15164
 379	1	2	0.068339	2.68016	-1.31491	5.01489
 380	1	1	-0.129023	3.24263	-1.61593	1.56204
 381	1	2	-0.006475	1.5588	-1.36354	2.88494
 382	1	2	-0.010814	2.66056	0.00737805	2.88036
 383	1	1	-0.019372	6.65692	-1.54724	7.59057
 384	1	2	0.00686	7.71723	-1.73027	7.80912
 385	1	1	-0.084968	6.92426	-5.13971	0.822028
 386	1	1	0.309483	5.99755	-5.65241	-0.300449
 387	1	2	-0.002	7.70203	-4.49071	0.399632
 388	1	3	-0.436564	4.9226	-6.4076	0.287813
 389	1	1	0.15357	4.1867	-5.80271	1.36541
 390	1	4	-0.002836	5.6311	-3.49944	1.38861
 391	1	3	-0.349559	5.08338	-5.2668	2.35547
 392	1	2	0.015925	7.42601	-4.7909	3.52812
 393	1	1	0.230077	6.09697	-4.37125	1.86491
 394	1	2	0.052641	7.42686	-5.97539	1.3219
 395	1	4	-0.023623	5.57768	-4.78916	-0.832399
 396	1	1	-0.072969	3.31793	-6.89791	2.0195
 397	1	2	0.031276	3.83058	-10.0324	3.5234
 398	1	2	0.023309	2.64339	-8.79592	3.99145
 399	1	2	0.030094	2.53	-9.58565	2.39967
 400	1	5	0.077888	3.55283	-4.99745	0.972129
 401	1	1	0.09092	4.13286	-8.10588	2.54569
 402	1	2	0.047821	2.74655	-6.45406	2.84409
 403	1	2	0.068339	2.58703	-7.2499	1.28144
 404	1	1	-0.129023	3.22672	-9.19508	3.15224
 405	1	2	-0.006475	4.71701	-8.55269	1.73129
 406	1	2	-0.010814	4.84796	-7.77088	3.30777
 407	1	1	-0.019372	6.96036	-3.91373	3.06026
 408	1	2	0.00686	7.77726	-3.27619	2.69766
 409	1	1	-0.084968	7.35017	-9.07091	-1.58746
 410	1	1	0.309483	8.05173	-10.2524	-0.876245
 411	1	2	-0.002	6.33669	-9.34307	-1.90148
 412	1	3	-0.436564	9.34943	-9.78828	-0.444255
 413	1	1	0.15357	9.38428	-8.59389	0.363991
 414	1	4	-0.002836	6.7353	-8.08956	0.233016
 415	1	3	-0.349559	8.66831	-7.53568	-0.297843
 416	1	2	0.015925	7.45856	-6.02866	-1.87703
 417	1	1	0.230077	7.31083	-7.83946	-0.664128
 418	1	2	0.052641	7.90704	-8.82324	-2.49954
 419	1	4	-0.023623	8.20651	-11.0583	-1.60451
 420	1	1	-0.072969	10.8553	-8.16909	0.525305
 421	1	2	0.031276	13.0541	-7.38536	2.10859
 422	1	2	0.023309	12.9697	-6.31088	0.692605
 423	1	2	0.030094	12.5797	-5.68506	2.30899
 424	1	5	0.077888	8.93526	-8.7921	1.34611
 425	1	1	0.09092	11.0166	-6.94115	1.44869
 426	1	2	0.047821	11.4248	-9.01147	0.937436
 427	1	2	0.068339	11.2775	-7.9484	-0.463136
 428	1	1	-0.129023	12.496	-6.55886	1.6509
 429	1	2	-0.006475	10.4805	-6.08165	1.02611
 430	1	2	-0.010814	10.5632	-7.15436	2.42524
 431	1	1	-0.019372	6.68959	-6.58422	-1.32493
 432	1	2	0.00686	5.94035	-6.89215	-2.06578
 433	1	1	-0.084968	5.55276	-12.4824	1.23204
 434	1	1	0.309483	4.4806	-13.5187	0.830693
 435	1	2	-0.002	6.28614	-12.9042	1.92211
 436	1	3	-0.436564	3.57619	-12.8591	-0.0796818
 437	1	1	0.15357	4.13706	-12.174	-1.22229
 438	1	4	-0.002836	6.74352	-12.7137	-0.573294
 439	1	3	-0.349559	5.22284	-11.3142	-0.823376
 440	1	2	0.015925	6.84778	-10.0669	0.964712
 441	1	1	0.230077	6.24851	-11.9104	-0.0152078
 442	1	2	0.052641	5.06052	-11.6655	1.77456
 443	1	4	-0.023623	3.9125	-13.7934	1.72813
 444	1	1	-0.072969	3.04572	-11.273	-1.83145
 445	1	2	0.031276	-0.0632093	-11.7393	-3.38998
 446	1	2	0.023309	0.385469	-10.4581	-2.24444
 447	1	2	0.030094	1.1882	-10.5566	-3.82931
 448	1	5	0.077888	4.49503	-12.9031	-1.96082
 449	1	1	0.09092	1.85222	-12.0727	-2.39798
 450	1	2	0.047821	2.68881	-10.5744	-1.06361
 451	1	2	0.068339	3.48958	-10.6677	-2.63137
 452	1	1	-0.129023	0.776254	-11.1488	-3.00255
 453	1	2	-0.006475	2.20827	-12.7674	-3.1695
 454	1	2	-0.010814	1.39531	-12.678	-1.6049
 455	1	1	-0.019372	7.3091	-10.8501	0.353766
 456	1	2	0.00686	8.05037	-11.3381	1.00034
 457	1	1	-0.084968	5.97251	-17.1904	0.549397
 458	1	1	0.309483	6.64861	-18.0831	1.61212
 459	1	2	-0.002	5.08324	-17.6902	0.144738
 460	1	3	-0.436564	7.75227	-17.3519	2.17385
 461	1	1	0.15357	7.39196	-16.1033	2.78196
 462	1	4	-0.002836	4.82435	-16.0325	1.97224
 463	1	3	-0.349559	6.75314	-15.28	1.79228
 464	1	2	0.015925	5.73059	-14.6283	-0.608269
 465	1	1	0.230077	5.57429	-15.8438	1.19295
 466	1	2	0.052641	6.66456	-17.0164	-0.284145
 467	1	4	-0.023623	5.93024	-18.292	2.41479
 468	1	1	-0.072969	8.6731	-15.4086	3.27845
 469	1	2	0.031276	10.1423	-14.25	5.39925
 470	1	2	0.023309	10.3249	-13.2212	3.95757
 471	1	2	0.030094	9.36776	-12.6525	5.34261
 472	1	5	0.077888	6.70944	-16.2846	3.62315
 473	1	1	0.09092	8.35963	-14.1633	4.13682
 474	1	2	0.047821	9.25341	-16.1228	3.87613
 475	1	2	0.068339	9.29452	-15.1262	2.41952
 476	1	1	-0.129023	9.62804	-13.535	4.74475
 477	1	2	-0.006475	7.84762	-13.4099	3.52759
 478	1	2	-0.010814	7.67404	-14.4402	4.94814
 479	1	1	-0.019372	4.9914	-14.8348	0.174006
 480	1	2	0.00686	4.1437	-15.3181	-0.328909
 481	1	1	-0.084968	6.75692	-21.8288	0.391255
 482	1	1	0.309483	5.66565	-22.8999	0.199717
 483	1	2	-0.002	7.41079	-21.7998	-0.489904
 484	1	3	-0.436564	4.74971	-22.8163	1.3037
 485	1	1	0.15357	4.14277	-21.5355	1.52762
 486	1	4	-0.002836	5.64565	-20.0893	-0.28476
 487	1	3	-0.349559	5.16519	-20.5379	1.68691
 488	1	2	0.015925	7.83639	-19.8651	1.85037
 489	1	1	0.230077	6.13868	-20.4354	0.632747
 490	1	2	0.052641	7.38242	-22.1032	1.25035
 491	1	4	-0.023623	5.12652	-22.7065	-0.736419
 492	1	1	-0.072969	3.31052	-21.6151	2.82373
 493	1	2	0.031276	2.68781	-21.0617	5.5102
 494	1	2	0.023309	2.57568	-22.8209	5.26368
 495	1	2	0.030094	3.89264	-22.1417	6.24397
 496	1	5	0.077888	3.49693	-21.2783	0.677668
 497	1	1	0.09092	4.155	-21.8577	4.09714
 498	1	2	0.047821	2.7383	-20.6861	2.93628
 499	1	2	0.068339	2.58158	-22.4277	2.71926
 500	1	1	-0.129023	3.2718	-21.9775	5.35454
 501	1	2	-0.006475	4.74552	-22.7761	3.98667
 502	1	2	-0.010814	4.86427	-21.0328	4.2407
 503	1	1	-0.019372	7.21632	-19.413	1.06518
 504	1	2	0.00686	7.88546	-19.2099	0.219021
 505	1	1	-0.084968	4.27444	-25.5212	-0.98044
 506	1	1	0.309483	3.3275	-26.7303	-0.826831
 507	1	2	-0.002	3.69385	-24.5948	-1.06984
 508	1	3	-0.436564	4.13084	-27.9061	-0.609783
 509	1	1	0.15357	5.02831	-27.8429	0.512176
 510	1	4	-0.002836	4.58187	-25.2999	1.15208
 511	1	3	-0.349559	5.88606	-26.6978	0.367238
 512	1	2	0.015925	6.94526	-24.4443	1.02483
 513	1	1	0.230077	5.19486	-25.4436	0.252976
 514	1	2	0.052641	4.87604	-25.6302	-1.89137
 515	1	4	-0.023623	2.6826	-26.5705	0.0468688
 516	1	1	-0.072969	5.88876	-29.1214	0.519724
 517	1	2	0.031276	5.84738	-28.045	3.22421
 518	1	2	0.023309	5.46949	-29.7852	3.21208
 519	1	2	0.030094	7.02117	-29.2106	3.85858
 520	1	5	0.077888	4.44982	-27.7632	1.44186
 521	1	1	0.09092	6.9123	-29.1791	1.67891
 522	1	2	0.047821	5.22589	-29.9932	0.582902
 523	1	2	0.068339	6.42204	-29.1994	-0.435677
 524	1	1	-0.129023	6.26964	-29.0468	3.0764
 525	1	2	-0.006475	7.44938	-30.1346	1.62529
 526	1	2	-0.010814	7.66524	-28.391	1.55155
 527	1	1	-0.019372	6.2609	-24.3273	0.174399
 528	1	2	0.00686	6.86402	-24.454	-0.733994
 529	1	1	-0.084968	0.579731	-26.179	-3.60796
 530	1	1	0.309483	-0.3222	-24.9654	-3.90546
 531	1	2	-0.002	1.12756	-26.4719	-4.51271
 532	1	3	-0.436564	-0.949978	-24.5399	-2.68373
 533	1	1	0.15357	-0.0831079	-24.2558	-1.57394
 534	1	4	-0.002836	2.20863	-24.9887	-2.83454
 535	1	3	-0.349559	0.805835	-25.3658	-1.34559
 536	1	2	0.015925	1.80701	-27.871	-1.85686
 537	1	1	0.230077	1.5661	-25.8073	-2.48567
 538	1	2	0.052641	-0.0202468	-27.0396	-3.28958
 539	1	4	-0.023623	0.315951	-24.1453	-4.25921
 540	1	1	-0.072969	-0.979182	-24.0742	-0.333246
 541	1	2	0.031276	0.603735	-21.6039	1.60521
 542	1	2	0.023309	0.983824	-21.9502	-0.0934819
 543	1	2	0.030094	-0.644785	-21.3975	0.368255
 544	1	5	0.077888	0.492377	-23.3455	-1.78386
 545	1	1	0.09092	-0.242008	-23.4826	0.888733
 546	1	2	0.047821	-1.828	-23.4276	-0.5894
 547	1	2	0.068339	-1.4002	-25.049	-0.0591458
 548	1	1	-0.129023	0.20377	-22.0211	0.67414
 549	1	2	-0.006475	-0.916737	-23.5181	1.75353
 550	1	2	-0.010814	0.628048	-24.1017	1.14219
 551	1	1	-0.019372	2.44778	-27.0049	-2.06758
 552	1	2	0.00686	3.08915	-27.2861	-2.91305
 553	1	1	-0.084968	-3.49828	-26.5376	-5.7596
 554	1	1	0.309483	-4.5893	-25.6485	-5.12832
 555	1	2	-0.002	-3.26613	-26.1945	-6.77597
 556	1	3	-0.436564	-4.8079	-26.1142	-3.78977
 557	1	1	0.15357	-3.65602	-26.0592	-2.93807
 558	1	4	-0.002836	-1.5595	-27.3281	-5.24277
 559	1	3	-0.349559	-2.59743	-26.8384	-3.52608
 560	1	2	0.015925	-0.950012	-25.1555	-5.96192
 561	1	1	0.230077	-2.2213	-26.5293	-4.88528
 562	1	2	0.052641	-3.87	-27.5667	-5.84124
 563	1	4	-0.023623	-4.23376	-24.6131	-5.10185
 564	1	1	-0.072969	-4.01286	-26.6744	-1.57101
 565	1	2	0.031276	-5.11929	-23.9998	-1.70674
 566	1	2	0.023309	-6.02744	-24.1244	-0.191
 567	1	2	0.030094	-4.25421	-24.227	-0.166211
 568	1	5	0.077888	-3.33602	-25.0171	-2.81413
 569	1	1	0.09092	-5.25141	-26.035	-0.897458
 570	1	2	0.047821	-4.18952	-27.7502	-1.69459
 571	1	2	0.068339	-3.14708	-26.5734	-0.906341
 572	1	1	-0.129023	-5.15193	-24.5033	-0.732404
 573	1	2	-0.006475	-6.15284	-26.2759	-1.47532
 574	1	2	-0.010814	-5.38709	-26.4902	0.0918376
 575	1	1	-0.019372	-1.42401	-25.1935	-4.97321
 576	1	2	0.00686	-2.10454	-24.3351	-4.94393
 577	1	1	-0.084968	-6.71036	-23.3649	-5.00554
 578	1	1	0.309483	-7.87938	-22.6514	-4.30483
 579	1	2	-0.002	-5.79012	-23.2023	-4.43131
 580	1	3	-0.436564	-9.06761	-22.9192	-5.0742
 581	1	1	0.15357	-9.38551	-24.3126	-5.24084
 582	1	4	-0.002836	-7.16049	-25.2836	-4.1109
 583	1	3	-0.349559	-8.26648	-24.997	-5.83672
 584	1	2	0.015925	-6.27846	-26.7213	-5.97059
 585	1	1	0.230077	-7.02799	-24.8688	-5.11853
 586	1	2	0.052641	-6.56108	-22.9471	-6.00771
 587	1	4	-0.023623	-7.98483	-23.0581	-3.29086
 588	1	1	-0.072969	-10.5961	-24.4231	-6.1832
 589	1	2	0.031276	-12.6861	-27.0303	-7.25801
 590	1	2	0.023309	-13.1855	-25.3967	-6.76908
 591	1	2	0.030094	-12.1509	-25.6221	-8.20025
 592	1	5	0.077888	-9.62021	-24.7566	-4.2641
 593	1	1	0.09092	-11.1056	-25.8763	-6.29702
 594	1	2	0.047821	-11.4021	-23.7817	-5.8053
 595	1	2	0.068339	-10.3191	-24.0449	-7.17509
 596	1	1	-0.129023	-12.3589	-25.9855	-7.18615
 597	1	2	-0.006475	-10.3162	-26.5171	-6.71043
 598	1	2	-0.010814	-11.3407	-26.2614	-5.29631
 599	1	1	-0.019372	-5.94353	-25.6811	-5.8679
 600	1	2	0.00686	-5.81548	-25.2823	-6.88258
 601	1	1	-0.084968	-10.0151	-20.6881	-3.17029
 602	1	1	0.309483	-10.7152	-19.8738	-2.06019
 603	1	2	-0.002	-10.4501	-20.4996	-4.1539
 604	1	3	-0.436564	-10.093	-20.2724	-0.817665
 605	1	1	0.15357	-8.65108	-20.1773	-0.723756
 606	1	4	-0.002836	-8.33136	-19.3248	-3.28933
 607	1	3	-0.349559	-8.01508	-20.7956	-1.86183
 608	1	2	0.015925	-7.88653	-20.6774	-5.21239
 609	1	1	0.230077	-8.50197	-20.3994	-3.15472
 610	1	2	0.052641	-10.1873	-21.752	-2.96725
 611	1	4	-0.023623	-11.7727	-20.1642	-2.03021
 612	1	1	-0.072969	-8.21212	-20.9247	0.551361
 613	1	2	0.031276	-6.45436	-18.9732	1.56609
 614	1	2	0.023309	-4.93373	-19.7131	1.02166
 615	1	2	0.030094	-6.08938	-19.0944	-0.172388
 616	1	5	0.077888	-8.35403	-19.1227	-0.666453
 617	1	1	0.09092	-6.67885	-20.9924	0.750022
 618	1	2	0.047821	-8.66693	-20.4362	1.42193
 619	1	2	0.068339	-8.61281	-21.9455	0.519271
 620	1	1	-0.129023	-6.00158	-19.6068	0.793455
 621	1	2	-0.006475	-6.46933	-21.5196	1.68945
 622	1	2	-0.010814	-6.22427	-21.5901	-0.0498006
 623	1	1	-0.019372	-7.66848	-21.1229	-4.23536
 624	1	2	0.00686	-6.6102	-20.918	-4.0331
 625	1	1	-0.084968	-11.2851	-16.1181	-3.28241
 626	1	1	0.309483	-10.1248	-15.6923	-4.19955
 627	1	2	-0.002	-12.2196	-15.6526	-3.62302
 628	1	3	-0.436564	-10.5316	-16.0363	-5.53814
 629	1	1	0.15357	-11.0098	-17.3801	-5.7508
 630	1	4	-0.002836	-12.4783	-17.9382	-3.26309
 631	1	3	-0.349559	-10.844	-18.1658	-4.55555
 632	1	2	0.015925	-9.60453	-17.9793	-2.17736
 633	1	1	0.230077	-11.4173	-17.6651	-3.32538
 634	1	2	0.052641	-11.1134	-15.7695	-2.25669
 635	1	4	-0.023623	-9.23276	-16.2661	-3.91385
 636	1	1	-0.072969	-10.1492	-17.9927	-6.87311
 637	1	2	0.031276	-12.1608	-20.6516	-8.0244
 638	1	2	0.023309	-12.6909	-19.339	-6.95753
 639	1	2	0.030094	-12.1589	-18.9777	-8.61902
 640	1	5	0.077888	-12.0684	-17.3504	-6.03968
 641	1	1	0.09092	-10.5205	-19.4467	-7.2497
 642	1	2	0.047821	-10.2309	-17.3586	-7.76452
 643	1	2	0.068339	-9.09935	-17.9614	-6.55982
 644	1	1	-0.129023	-11.9724	-19.6086	-7.74095
 645	1	2	-0.006475	-9.85028	-19.7855	-8.04768
 646	1	2	-0.010814	-10.3457	-20.1125	-6.39757
 647	1	1	-0.019372	-10.6459	-18.3192	-2.14963
 648	1	2	0.00686	-11.0611	-17.9194	-1.21537
 649	1	1	-0.084968	-7.82764	-14.51	-5.87148
 650	1	1	0.309483	-6.32949	-14.2219	-6.08754
 651	1	2	-0.002	-8.01293	-15.5856	-5.95796
 652	1	3	-0.436564	-6.13298	-12.7995	-5.94221
 653	1	1	0.15357	-6.65385	-12.1546	-4.75771
 654	1	4	-0.002836	-7.68821	-14.4429	-3.70954
 655	1	3	-0.349559	-8.01674	-12.5513	-4.49609
 656	1	2	0.015925	-9.9626	-13.792	-3.16149
 657	1	1	0.230077	-8.27813	-13.9641	-4.50051
 658	1	2	0.052641	-8.40854	-14.0241	-6.66583
 659	1	4	-0.023623	-6.06911	-14.507	-7.11416
 660	1	1	-0.072969	-6.60816	-10.6192	-4.93425
 661	1	2	0.031276	-6.65956	-11.1641	-7.80635
 662	1	2	0.023309	-7.40905	-9.61789	-8.23096
 663	1	2	0.030094	-5.80951	-9.63931	-7.46362
 664	1	5	0.077888	-6.03378	-12.4343	-3.89645