pySIMM System Object

698 atoms
726 bonds
1450 angles
2166 dihedrals
0 impropers

5 atom types
5 bond types
11 angle types
8 dihedral types

-118.247573 118.247573 xlo xhi
-118.247573 118.247573 ylo yhi
-118.247573 118.247573 zlo zhi

Masses

   1	12.01	# c3
   2	1.008	# hc
   3	16.0	# os
   4	1.008	# h1
   5	1.008	# h2

Pair Coeffs

   1	0.1094	3.3996695084235347	# c3
   2	0.0157	2.649532787749369	# hc
   3	0.17	3.0000123434657784	# os
   4	0.0157	2.471353044121301	# h1
   5	0.0157	2.2931733004932333	# h2

Bond Coeffs

   1	330.6	1.0969	# c3,h1
   2	308.6	1.4316	# c3,os
   3	330.6	1.0969	# c3,hc
   4	300.9	1.5375	# c3,c3
   5	331.7	1.0961	# c3,h2

Angle Coeffs

   1	62.7	112.48	# c3,os,c3
   2	50.85	109.58	# h2,c3,os
   3	68.0	107.97	# c3,c3,os
   4	72.74	108.29	# os,c3,os
   5	46.34	109.8	# c3,c3,hc
   6	46.25	110.22	# c3,c3,h2
   7	50.8	109.78	# h1,c3,os
   8	46.39	109.56	# c3,c3,h1
   9	39.4	107.58	# hc,c3,hc
  10	39.24	108.46	# h1,c3,h1
  11	62.86	111.51	# c3,c3,c3

Dihedral Coeffs

   1	3	0.18	3	0	0.25	2	180	0.2	1	180	# c3,c3,c3,c3
   2	2	0.0	3	0	0.25	1	0	# hc,c3,c3,os
   3	1	0.3833333333333333	3	0	# X,c3,os,X
   4	1	0.15	3	0	# hc,c3,c3,hc
   5	2	0.383	3	0	0.1	2	180	# c3,c3,os,c3
   6	1	0.16	3	0	# hc,c3,c3,c3
   7	3	0.1	3	0	0.85	2	180	1.35	1	180	# c3,os,c3,os
   8	1	0.15555555555555556	3	0	# X,c3,c3,X

Atoms

   1	1	1	-0.084968	29.6036	13.2599	21.3213
   2	1	1	0.309483	31.09	13.67	21.307
   3	1	2	-0.002	29.1157	13.5458	20.3811
   4	1	3	-0.436564	31.6919	13.1928	22.5241
   5	1	1	0.15357	31.5831	11.7779	22.7643
   6	1	4	-0.002836	29.9624	11.2313	20.6526
   7	1	3	-0.349559	30.1992	11.3826	22.7138
   8	1	2	0.015925	28.0028	10.1697	21.7826
   9	1	1	0.230077	29.4984	11.7362	21.5099
  10	1	2	0.052641	29.0829	13.7753	22.1383
  11	1	4	-0.023623	31.5867	13.1955	20.4509
  12	1	1	-0.072969	32.1326	11.495	24.1765
  13	1	2	0.031276	32.507	9.0753	22.6368
  14	1	2	0.023309	33.9618	9.434	23.5989
  15	1	2	0.030094	32.9202	8.06171	24.0307
  16	1	5	0.077888	32.1583	11.2305	22.0065
  17	1	1	0.09092	32.0889	10.0024	24.5801
  18	1	2	0.047821	33.1679	11.8536	24.2348
  19	1	2	0.068339	31.5561	12.0797	24.904
  20	1	1	-0.129023	32.9207	9.09153	23.6525
  21	1	2	-0.006475	32.47	9.9046	25.6045
  22	1	2	-0.010814	31.0499	9.64993	24.5995
  23	1	1	-0.019372	28.0395	11.2577	21.6464
  24	1	2	0.00686	27.5495	11.7296	22.5076
  25	1	1	-0.084968	31.0336	17.3689	19.9182
  26	1	1	0.309483	30.4805	17.9348	18.5981
  27	1	2	-0.002	30.587	17.8952	20.7716
  28	1	3	-0.436564	31.0702	17.1762	17.5249
  29	1	1	0.15357	30.8086	15.7604	17.564
  30	1	4	-0.002836	29.6179	15.7455	20.0144
  31	1	3	-0.349559	31.2445	15.2244	18.8267
  32	1	2	0.015925	32.3962	15.3968	21.2786
  33	1	1	0.230077	30.7084	15.8662	19.9983
  34	1	2	0.052641	32.1195	17.5221	19.964
  35	1	4	-0.023623	29.3925	17.7919	18.591
  36	1	1	-0.072969	31.6078	15.0583	16.4493
  37	1	2	0.031276	31.5887	13.6173	14.0179
  38	1	2	0.023309	31.4966	15.026	12.9403
  39	1	2	0.030094	32.9311	14.7857	13.9609
  40	1	5	0.077888	29.7336	15.5769	17.4347
  41	1	1	0.09092	31.1705	15.5061	15.0384
  42	1	2	0.047821	32.6787	15.256	16.5849
  43	1	2	0.068339	31.4663	13.975	16.5466
  44	1	1	-0.129023	31.8395	14.6812	13.9232
  45	1	2	-0.006475	30.0802	15.4213	14.9435
  46	1	2	-0.010814	31.4296	16.5602	14.8968
  47	1	1	-0.019372	31.3168	15.1984	21.2514
  48	1	2	0.00686	30.8878	15.6628	22.1489
  49	1	1	-0.084968	31.0522	19.7775	15.8662
  50	1	1	0.309483	30.1713	19.1769	14.7569
  51	1	2	-0.002	31.5102	20.709	15.5084
  52	1	3	-0.436564	29.0197	20.0289	14.636
  53	1	1	0.15357	28.1639	20.0854	15.7976
  54	1	4	-0.002836	30.2267	21.1757	17.2787
  55	1	3	-0.349559	28.8594	19.6452	16.9827
  56	1	2	0.015925	31.887	19.5999	18.4666
  57	1	1	0.230077	30.2262	20.0867	17.1415
  58	1	2	0.052641	31.8825	19.0958	16.0831
  59	1	4	-0.023623	29.8504	18.1716	15.0567
  60	1	1	-0.072969	26.98	19.1195	15.5854
  61	1	2	0.031276	24.274	18.4609	15.1512
  62	1	2	0.023309	24.2075	18.9403	13.4415
  63	1	2	0.030094	25.2619	17.6029	13.9446
  64	1	5	0.077888	27.8004	21.1118	15.9371
  65	1	1	0.09092	26.0214	19.5859	14.4684
  66	1	2	0.047821	27.3651	18.1198	15.3476
  67	1	2	0.068339	26.42	19.0302	16.5245
  68	1	1	-0.129023	24.8715	18.5853	14.2394
  69	1	2	-0.006475	25.603	20.5662	14.7297
  70	1	2	-0.010814	26.5712	19.7129	13.5293
  71	1	1	-0.019372	30.8013	19.4424	18.4289
  72	1	2	0.00686	30.387	19.9808	19.2908
  73	1	1	-0.084968	29.1586	19.2196	11.501
  74	1	1	0.309483	28.4439	18.4035	10.4069
  75	1	2	-0.002	28.4196	19.7264	12.1299
  76	1	3	-0.436564	29.4464	17.677	9.66358
  77	1	1	0.15357	30.3917	16.8804	10.4073
  78	1	4	-0.002836	29.4835	17.5446	12.8533
  79	1	3	-0.349559	30.9954	17.6722	11.446
  80	1	2	0.015925	31.8551	18.5579	13.5624
  81	1	1	0.230077	30.0779	18.3155	12.3465
  82	1	2	0.052641	29.7585	20.0037	11.0225
  83	1	4	-0.023623	27.9471	19.1098	9.73032
  84	1	1	-0.072969	31.488	16.4204	9.42912
  85	1	2	0.031276	33.0905	14.4435	8.21767
  86	1	2	0.023309	34.1428	15.7916	8.70995
  87	1	2	0.030094	34.232	14.2359	9.56319
  88	1	5	0.077888	29.8868	16.0111	10.8476
  89	1	1	0.09092	32.4742	15.4225	10.074
  90	1	2	0.047821	31.0142	15.95	8.55839
  91	1	2	0.068339	32.0346	17.2984	9.06251
  92	1	1	-0.129023	33.5496	14.9453	9.07869
  93	1	2	-0.006475	32.9672	15.8883	10.9367
  94	1	2	-0.010814	31.9207	14.552	10.4489
  95	1	1	-0.019372	30.9051	19.0839	13.4022
  96	1	2	0.00686	31.1623	20.0867	13.0369
  97	1	1	-0.084968	27.2035	15.7768	8.9609
  98	1	1	0.309483	26.2421	14.6618	8.50337
  99	1	2	-0.002	27.6407	16.2849	8.09171
 100	1	3	-0.436564	24.9387	15.2476	8.32968
 101	1	1	0.15357	24.328	15.7285	9.5449
 102	1	4	-0.002836	26.1098	17.634	9.20851
 103	1	3	-0.349559	25.3398	16.1885	10.4706
 104	1	2	0.015925	26.7099	18.0045	11.6362
 105	1	1	0.230077	26.479	16.8221	9.84901
 106	1	2	0.052641	28.0307	15.3121	9.50921
 107	1	4	-0.023623	26.197	13.9062	9.29766
 108	1	1	-0.072969	23.548	14.5703	10.2078
 109	1	2	0.031276	21.1954	13.1455	10.8599
 110	1	2	0.023309	20.9389	12.4117	9.26228
 111	1	2	0.030094	22.3844	11.994	10.206
 112	1	5	0.077888	23.6437	16.5513	9.30036
 113	1	1	0.09092	22.4626	13.9736	9.28056
 114	1	2	0.047821	24.246	13.7796	10.5097
 115	1	2	0.068339	23.0763	14.9428	11.1252
 116	1	1	-0.129023	21.6997	12.8105	9.94482
 117	1	2	-0.006475	21.7501	14.759	8.99764
 118	1	2	-0.010814	22.9179	13.6046	8.35327
 119	1	1	-0.019372	27.3618	17.4375	10.9601
 120	1	2	0.00686	27.8123	16.6402	11.5637
 121	1	1	-0.084968	26.0542	12.1271	5.50611
 122	1	1	0.309483	25.0555	10.9899	5.20816
 123	1	2	-0.002	26.1043	12.8206	4.65685
 124	1	3	-0.436564	24.9453	10.1665	6.38785
 125	1	1	0.15357	24.6619	10.8211	7.64273
 126	1	4	-0.002836	24.6681	13.3458	6.63332
 127	1	3	-0.349559	25.5667	11.9178	7.85229
 128	1	2	0.015925	27.658	13.5245	7.31517
 129	1	1	0.230077	25.6486	12.8791	6.78609
 130	1	2	0.052641	27.0564	11.6989	5.63285
 131	1	4	-0.023623	25.4661	10.3851	4.3903
 132	1	1	-0.072969	24.8111	9.79934	8.79306
 133	1	2	0.031276	28.1045	8.53002	8.52912
 134	1	2	0.023309	26.6458	7.95742	7.6918
 135	1	2	0.030094	27.3292	9.55737	7.31258
 136	1	5	0.077888	23.6318	11.1995	7.62753
 137	1	1	0.09092	26.2641	9.47196	9.22616
 138	1	2	0.047821	24.2722	10.1876	9.66568
 139	1	2	0.068339	24.3022	8.87002	8.50924
 140	1	1	-0.129023	27.1354	8.84099	8.11989
 141	1	2	-0.006475	26.7567	10.3768	9.60453
 142	1	2	-0.010814	26.2204	8.7732	10.0712
 143	1	1	-0.019372	26.6628	13.9705	7.1904
 144	1	2	0.00686	26.7408	14.7148	6.38735
 145	1	1	-0.084968	22.0302	9.49967	5.26572
 146	1	1	0.309483	20.8841	10.279	5.92581
 147	1	2	-0.002	21.6271	8.60523	4.77257
 148	1	3	-0.436564	19.9726	10.6328	4.87523
 149	1	1	0.15357	20.4756	11.4236	3.78049
 150	1	4	-0.002836	23.3851	9.71649	3.61046
 151	1	3	-0.349559	21.7698	10.9587	3.31658
 152	1	2	0.015925	23.8026	12.2439	3.98377
 153	1	1	0.230077	22.7457	10.3733	4.21339
 154	1	2	0.052641	22.7305	9.13975	6.02483
 155	1	4	-0.023623	21.2715	11.1843	6.40849
 156	1	1	-0.072969	20.5174	12.9077	4.22475
 157	1	2	0.031276	21.8059	14.7358	1.48928
 158	1	2	0.023309	22.6973	14.1492	2.90654
 159	1	2	0.030094	22.0173	12.9948	1.73223
 160	1	5	0.077888	19.7615	11.3404	2.95102
 161	1	1	0.09092	20.5262	13.9167	3.0523
 162	1	2	0.047821	19.6207	13.1063	4.82549
 163	1	2	0.068339	21.3685	13.1023	4.88219
 164	1	1	-0.129023	21.843	13.9457	2.24938
 165	1	2	-0.006475	19.6888	13.7033	2.37564
 166	1	2	-0.010814	20.3497	14.9208	3.45862
 167	1	1	-0.019372	23.6554	11.4977	4.77415
 168	1	2	0.00686	23.1649	12.018	5.60212
 169	1	1	-0.084968	17.6725	10.1917	6.70222
 170	1	1	0.309483	16.3732	9.92717	7.49026
 171	1	2	-0.002	17.6174	11.1681	6.2033
 172	1	3	-0.436564	16.4846	10.6046	8.75543
 173	1	1	0.15357	17.5481	10.138	9.61498
 174	1	4	-0.002836	19.2183	11.2009	7.84694
 175	1	3	-0.349559	18.5959	9.50568	8.84858
 176	1	2	0.015925	20.8551	9.19437	7.78808
 177	1	1	0.230077	18.9277	10.1684	7.61289
 178	1	2	0.052641	17.7556	9.43864	5.90924
 179	1	4	-0.023623	16.28	8.84684	7.66004
 180	1	1	-0.072969	16.9881	9.0897	10.5982
 181	1	2	0.031276	16.3035	8.37993	13.2466
 182	1	2	0.023309	14.6843	9.10957	13.249
 183	1	2	0.030094	15.0452	7.75895	12.1546
 184	1	5	0.077888	17.9594	10.9902	10.1715
 185	1	1	0.09092	15.9025	9.67366	11.529
 186	1	2	0.047821	16.5781	8.23951	10.039
 187	1	2	0.068339	17.8159	8.70324	11.2053
 188	1	1	-0.129023	15.458	8.66735	12.6091
 189	1	2	-0.006475	16.288	10.5762	12.0206
 190	1	2	-0.010814	15.0281	9.97607	10.9385
 191	1	1	-0.019372	20.1421	9.43727	6.98962
 192	1	2	0.00686	19.8214	8.47994	6.55812
 193	1	1	-0.084968	12.5561	10.5846	6.69427
 194	1	1	0.309483	11.4392	9.51849	6.63155
 195	1	2	-0.002	12.1877	11.4916	7.19103
 196	1	3	-0.436564	11.3871	8.8648	7.91252
 197	1	1	0.15357	12.5834	8.15291	8.29685
 198	1	4	-0.002836	13.8076	10.4981	8.46508
 199	1	3	-0.349559	13.724	8.63379	7.55662
 200	1	2	0.015925	15.1155	10.0152	5.7284
 201	1	1	0.230077	13.8048	10.0682	7.45487
 202	1	2	0.052641	12.8203	10.8748	5.67006
 203	1	4	-0.023623	11.702	8.78138	5.86132
 204	1	1	-0.072969	12.3794	6.65665	7.97697
 205	1	2	0.031276	13.2407	5.6148	10.4476
 206	1	2	0.023309	14.8832	5.15123	9.95288
 207	1	2	0.030094	14.4296	6.86326	10.003
 208	1	5	0.077888	12.7509	8.2923	9.37272
 209	1	1	0.09092	13.6077	5.77082	8.29438
 210	1	2	0.047821	11.5157	6.28938	8.54518
 211	1	2	0.068339	12.1268	6.54533	6.91562
 212	1	1	-0.129023	14.0649	5.85724	9.76521
 213	1	2	-0.006475	13.3586	4.72786	8.06118
 214	1	2	-0.010814	14.4445	6.04473	7.63929
 215	1	1	-0.019372	15.1233	10.4381	6.74136
 216	1	2	0.00686	15.184	11.5286	6.62992
 217	1	1	-0.084968	8.24268	8.62201	7.37617
 218	1	1	0.309483	7.07414	7.66036	7.07989
 219	1	2	-0.002	8.93407	8.15118	8.08457
 220	1	3	-0.436564	6.24968	8.24016	6.04877
 221	1	1	0.15357	6.9058	8.67686	4.84225
 222	1	4	-0.002836	9.43679	8.14594	5.61857
 223	1	3	-0.349559	7.99241	9.56004	5.17304
 224	1	2	0.015925	10.1642	10.688	5.35271
 225	1	1	0.230077	8.97451	9.02837	6.07885
 226	1	2	0.052641	7.84526	9.51928	7.86636
 227	1	4	-0.023623	6.47442	7.56829	7.99397
 228	1	1	-0.072969	5.8714	9.4491	4.0001
 229	1	2	0.031276	7.22231	9.27833	0.749388
 230	1	2	0.023309	7.79187	8.34335	2.14324
 231	1	2	0.030094	6.13102	8.12024	1.53883
 232	1	5	0.077888	7.28246	7.80875	4.28655
 233	1	1	0.09092	6.4244	9.97767	2.65589
 234	1	2	0.047821	5.01234	8.79556	3.80343
 235	1	2	0.068339	5.49519	10.2942	4.5897
 236	1	1	-0.129023	6.92243	8.85889	1.71769
 237	1	2	-0.006475	5.63077	10.5382	2.1458
 238	1	2	-0.010814	7.23983	10.6888	2.83923
 239	1	1	-0.019372	10.0583	10.1147	6.28292
 240	1	2	0.00686	9.74519	10.8285	7.05595
 241	1	1	-0.084968	5.77513	5.19518	5.07486
 242	1	1	0.309483	4.66944	4.12246	5.01873
 243	1	2	-0.002	5.35919	6.16432	4.7775
 244	1	3	-0.436564	5.22674	2.87177	5.46222
 245	1	1	0.15357	5.84434	2.88174	6.76264
 246	1	4	-0.002836	5.54795	5.52508	7.21053
 247	1	3	-0.349559	6.82257	3.93564	6.83391
 248	1	2	0.015925	8.18827	5.8589	7.47046
 249	1	1	0.230077	6.34575	5.25399	6.50655
 250	1	2	0.052641	6.58485	4.95041	4.37871
 251	1	4	-0.023623	3.87165	4.41815	5.71237
 252	1	1	-0.072969	6.5718	1.54051	6.9703
 253	1	2	0.031276	7.01037	-1.20209	6.4772
 254	1	2	0.023309	6.91266	-0.952878	8.23668
 255	1	2	0.030094	5.60925	-1.8091	7.38521
 256	1	5	0.077888	5.08322	3.03161	7.53988
 257	1	1	0.09092	5.59298	0.350802	7.077
 258	1	2	0.047821	7.26822	1.37405	6.1386
 259	1	2	0.068339	7.17272	1.59924	7.88609
 260	1	1	-0.129023	6.32818	-0.983934	7.30854
 261	1	2	-0.006475	4.89343	0.525061	7.9047
 262	1	2	-0.010814	4.99451	0.27445	6.16029
 263	1	1	-0.019372	7.53126	6.23538	6.67555
 264	1	2	0.00686	8.13837	6.25558	5.76219
 265	1	1	-0.084968	4.25727	2.75082	1.34685
 266	1	1	0.309483	5.29161	2.29702	0.299551
 267	1	2	-0.002	3.64389	1.89879	1.6669
 268	1	3	-0.436564	6.08688	3.44008	-0.0630748
 269	1	1	0.15357	6.75458	4.09885	1.03011
 270	1	4	-0.002836	5.6503	2.59222	2.98643
 271	1	3	-0.349559	5.79594	4.45053	2.04433
 272	1	2	0.015925	3.57853	4.84337	3.27645
 273	1	1	0.230077	5.00043	3.36085	2.54906
 274	1	2	0.052641	3.59061	3.50635	0.916887
 275	1	4	-0.023623	5.94632	1.54464	0.758232
 276	1	1	-0.072969	7.39738	5.3993	0.510916
 277	1	2	0.031276	9.39636	3.33343	0.225188
 278	1	2	0.023309	10.4727	4.29063	-0.807065
 279	1	2	0.030094	10.1351	4.82756	0.851731
 280	1	5	0.077888	7.51454	3.43491	1.46202
 281	1	1	0.09092	8.49401	5.17406	-0.555633
 282	1	2	0.047821	6.61333	6.03924	0.0872313
 283	1	2	0.068339	7.82806	5.94461	1.35891
 284	1	1	-0.129023	9.69513	4.35599	-0.0359385
 285	1	2	-0.006475	8.06551	4.6751	-1.4341
 286	1	2	-0.010814	8.85622	6.15184	-0.897781
 287	1	1	-0.019372	4.0294	3.90536	3.62523
 288	1	2	0.00686	3.20028	3.1962	3.74646
 289	1	1	-0.084968	3.59423	2.30044	-3.2213
 290	1	1	0.309483	2.4912	3.17746	-3.83503
 291	1	2	-0.002	4.55997	2.52544	-3.69215
 292	1	3	-0.436564	1.26398	2.81428	-3.18103
 293	1	1	0.15357	1.24797	3.01836	-1.75584
 294	1	4	-0.002836	3.93178	3.64581	-1.56938
 295	1	3	-0.349559	2.36239	2.32796	-1.15044
 296	1	2	0.015925	4.24008	0.717048	-0.761382
 297	1	1	0.230077	3.66667	2.58994	-1.71061
 298	1	2	0.052641	3.37496	1.23945	-3.39601
 299	1	4	-0.023623	2.73093	4.226	-3.621
 300	1	1	-0.072969	-0.0676741	2.4206	-1.21302
 301	1	2	0.031276	-0.073311	3.39129	2.18152
 302	1	2	0.023309	0.71033	1.97418	1.44899
 303	1	2	0.030094	1.29335	3.61595	1.0791
 304	1	5	0.077888	1.30414	4.0944	-1.54307
 305	1	1	0.09092	-0.579749	3.09646	0.0799999
 306	1	2	0.047821	-0.847612	2.51622	-1.97909
 307	1	2	0.068339	0.0657606	1.34544	-1.0397
 308	1	1	-0.129023	0.399936	3.01097	1.26792
 309	1	2	-0.006475	-0.806731	4.15062	-0.124377
 310	1	2	-0.010814	-1.52635	2.62286	0.369733
 311	1	1	-0.019372	4.69885	1.68705	-0.992439
 312	1	2	0.00686	5.53242	1.47244	-1.67386
 313	1	1	-0.084968	0.0442477	4.10912	-5.81858
 314	1	1	0.309483	-0.56917	5.32723	-6.53181
 315	1	2	-0.002	-0.413609	3.18035	-6.18138
 316	1	3	-0.436564	0.0773857	6.49769	-6.00857
 317	1	1	0.15357	1.50316	6.55238	-6.19436
 318	1	4	-0.002836	1.70772	3.95939	-7.17228
 319	1	3	-0.349559	2.12883	5.35465	-5.69671
 320	1	2	0.015925	1.87121	1.99584	-5.56295
 321	1	1	0.230077	1.56239	4.0904	-6.09214
 322	1	2	0.052641	-0.155566	4.18378	-4.74378
 323	1	4	-0.023623	-0.362074	5.2641	-7.6075
 324	1	1	-0.072969	2.053	7.75673	-5.40263
 325	1	2	0.031276	3.42931	8.98556	-3.26679
 326	1	2	0.023309	1.86787	9.81248	-3.48366
 327	1	2	0.030094	2.14759	8.80059	-2.05037
 328	1	5	0.077888	1.72769	6.66584	-7.2631
 329	1	1	0.09092	1.7989	7.6627	-3.8781
 330	1	2	0.047821	3.13076	7.84132	-5.58871
 331	1	2	0.068339	1.59147	8.67217	-5.7923
 332	1	1	-0.129023	2.34528	8.89166	-3.12565
 333	1	2	-0.006475	0.722773	7.57629	-3.68133
 334	1	2	-0.010814	2.273	6.76008	-3.47217
 335	1	1	-0.019372	2.34222	2.96691	-5.36342
 336	1	2	0.00686	3.34386	2.91722	-5.80943
 337	1	1	-0.084968	-4.45022	4.74039	-6.94058
 338	1	1	0.309483	-5.2615	3.91272	-7.95816
 339	1	2	-0.002	-4.72311	4.45751	-5.91619
 340	1	3	-0.436564	-4.80273	4.25472	-9.27631
 341	1	1	0.15357	-3.40012	4.05434	-9.51559
 342	1	4	-0.002836	-2.68548	3.48258	-6.90842
 343	1	3	-0.349559	-2.63204	4.77792	-8.5387
 344	1	2	0.015925	-2.37819	6.51837	-6.54386
 345	1	1	0.230077	-2.93886	4.52124	-7.15599
 346	1	2	0.052641	-4.68852	5.80471	-7.0623
 347	1	4	-0.023623	-5.08328	2.84341	-7.7875
 348	1	1	-0.072969	-3.05524	4.58903	-10.9212
 349	1	2	0.031276	-1.90141	6.40968	-12.7353
 350	1	2	0.023309	-3.5651	6.06806	-13.2678
 351	1	2	0.030094	-3.15131	7.66582	-12.6102
 352	1	5	0.077888	-3.16498	2.9837	-9.45198
 353	1	1	0.09092	-3.31553	6.10479	-11.095
 354	1	2	0.047821	-2.00041	4.3741	-11.1319
 355	1	2	0.068339	-3.64463	4.03353	-11.6609
 356	1	1	-0.129023	-2.96111	6.58958	-12.5147
 357	1	2	-0.006475	-4.37084	6.32981	-10.8951
 358	1	2	-0.010814	-2.72154	6.67382	-10.3686
 359	1	1	-0.019372	-2.0894	5.4875	-6.29966
 360	1	2	0.00686	-2.3197	5.34078	-5.23642
 361	1	1	-0.084968	-8.98278	3.96877	-6.61659
 362	1	1	0.309483	-9.90988	2.74068	-6.69155
 363	1	2	-0.002	-9.15245	4.5048	-5.67355
 364	1	3	-0.436564	-9.43054	1.79487	-5.71735
 365	1	1	0.15357	-8.08411	1.31459	-5.91514
 366	1	4	-0.002836	-6.98824	3.86313	-5.77572
 367	1	3	-0.349559	-7.37669	2.13287	-6.86867
 368	1	2	0.015925	-7.24604	3.84199	-8.83468
 369	1	1	0.230077	-7.48893	3.56141	-6.70415
 370	1	2	0.052641	-9.24458	4.66538	-7.42257
 371	1	4	-0.023623	-9.83943	2.31015	-7.69858
 372	1	1	-0.072969	-8.17632	-0.119034	-6.47918
 373	1	2	0.031276	-5.57905	0.136192	-5.241
 374	1	2	0.023309	-6.32314	-1.41899	-4.79447
 375	1	2	0.030094	-4.93323	-1.37761	-5.89957
 376	1	5	0.077888	-7.55508	1.31481	-4.95356
 377	1	1	0.09092	-6.80831	-0.755157	-6.82301
 378	1	2	0.047821	-8.69453	-0.753503	-5.74947
 379	1	2	0.068339	-8.79912	-0.107305	-7.38222
 380	1	1	-0.129023	-5.85596	-0.857757	-5.61338
 381	1	2	-0.006475	-6.9807	-1.76231	-7.22322
 382	1	2	-0.010814	-6.31962	-0.183739	-7.6224
 383	1	1	-0.019372	-6.77779	4.21068	-7.91223
 384	1	2	0.00686	-6.93455	5.29717	-7.89434
 385	1	1	-0.084968	-13.7972	2.22825	-6.39905
 386	1	1	0.309483	-14.7129	1.12232	-6.95731
 387	1	2	-0.002	-13.909	2.295	-5.30919
 388	1	3	-0.436564	-14.4814	1.01585	-8.37315
 389	1	1	0.15357	-13.1203	0.767378	-8.76715
 390	1	4	-0.002836	-12.0173	1.00067	-6.25984
 391	1	3	-0.349559	-12.2529	1.75802	-8.18915
 392	1	2	0.015925	-11.6759	3.98387	-6.92131
 393	1	1	0.230077	-12.3316	1.92507	-6.76173
 394	1	2	0.052641	-14.0894	3.19841	-6.82087
 395	1	4	-0.023623	-14.4594	0.169679	-6.47504
 396	1	1	-0.072969	-13.0206	0.860297	-10.3038
 397	1	2	0.031276	-13.614	3.2743	-12.784
 398	1	2	0.023309	-12.2452	2.14555	-12.6965
 399	1	2	0.030094	-13.9017	1.52436	-12.8932
 400	1	5	0.077888	-12.8137	-0.231122	-8.42863
 401	1	1	0.09092	-13.4499	2.23385	-10.8737
 402	1	2	0.047821	-11.9861	0.649556	-10.6022
 403	1	2	0.068339	-13.6435	0.0732711	-10.7456
 404	1	1	-0.129023	-13.2926	2.29588	-12.4058
 405	1	2	-0.006475	-14.4972	2.43553	-10.6153
 406	1	2	-0.010814	-12.8476	3.03336	-10.424
 407	1	1	-0.019372	-11.3821	3.07882	-6.3739
 408	1	2	0.00686	-11.4863	3.30642	-5.3049
 409	1	1	-0.084968	-16.992	-1.01494	-7.08894
 410	1	1	0.309483	-18.1131	-1.88787	-7.69459
 411	1	2	-0.002	-16.0148	-1.38468	-7.42402
 412	1	3	-0.436564	-19.377	-1.28035	-7.35503
 413	1	1	0.15357	-19.5527	0.0978284	-7.73115
 414	1	4	-0.002836	-17.0206	0.595971	-8.54762
 415	1	3	-0.349559	-18.5088	0.879906	-7.13123
 416	1	2	0.015925	-16.4185	2.45906	-7.05199
 417	1	1	0.230077	-17.1681	0.475349	-7.46736
 418	1	2	0.052641	-17.0185	-1.11693	-5.99701
 419	1	4	-0.023623	-18.0676	-2.88093	-7.23077
 420	1	1	-0.072969	-20.9153	0.58381	-7.20648
 421	1	2	0.031276	-23.5327	1.54099	-7.64762
 422	1	2	0.023309	-24.2673	-0.0217556	-8.06498
 423	1	2	0.030094	-23.6116	0.241218	-6.4343
 424	1	5	0.077888	-19.5139	0.208559	-8.82248
 425	1	1	0.09092	-22.0885	-0.0693431	-7.97176
 426	1	2	0.047821	-20.9966	0.360486	-6.1351
 427	1	2	0.068339	-20.9712	1.67387	-7.31513
 428	1	1	-0.129023	-23.4578	0.45639	-7.49925
 429	1	2	-0.006475	-21.9806	0.128455	-9.04619
 430	1	2	-0.010814	-22.0587	-1.15883	-7.84268
 431	1	1	-0.019372	-16.2082	1.43275	-6.72399
 432	1	2	0.00686	-16.4166	1.39788	-5.64675
 433	1	1	-0.084968	-19.3341	-2.73185	-11.3481
 434	1	1	0.309483	-20.6484	-3.39227	-11.8128
 435	1	2	-0.002	-19.2768	-1.69966	-11.7174
 436	1	3	-0.436564	-20.6963	-4.7255	-11.255
 437	1	1	0.15357	-20.4579	-4.88196	-9.83499
 438	1	4	-0.002836	-20.1617	-2.25019	-9.42192
 439	1	3	-0.349559	-19.2927	-4.13822	-9.42185
 440	1	2	0.015925	-17.1247	-2.66935	-9.4756
 441	1	1	0.230077	-19.2734	-2.75782	-9.81291
 442	1	2	0.052641	-18.4787	-3.27644	-11.767
 443	1	4	-0.023623	-20.6306	-3.45651	-12.9078
 444	1	1	-0.072969	-20.2001	-6.3749	-9.56097
 445	1	2	0.031276	-20.5502	-8.81308	-8.19908
 446	1	2	0.023309	-18.8071	-8.45688	-8.2523
 447	1	2	0.030094	-19.6873	-8.36138	-6.71262
 448	1	5	0.077888	-21.3343	-4.53833	-9.27011
 449	1	1	0.09092	-20.0695	-6.68337	-8.05291
 450	1	2	0.047821	-21.0228	-6.96533	-9.98313
 451	1	2	0.068339	-19.2841	-6.67995	-10.0822
 452	1	1	-0.129023	-19.7605	-8.17033	-7.79053
 453	1	2	-0.006475	-19.2713	-6.07314	-7.61147
 454	1	2	-0.010814	-21.0021	-6.41142	-7.54209
 455	1	1	-0.019372	-18.0144	-2.07415	-9.2335
 456	1	2	0.00686	-17.8797	-1.1034	-9.72489
 457	1	1	-0.084968	-23.8292	-4.18431	-12.0893
 458	1	1	0.309483	-25.1502	-4.18479	-12.8884
 459	1	2	-0.002	-23.1729	-4.98746	-12.4466
 460	1	3	-0.436564	-25.9463	-3.07393	-12.4351
 461	1	1	0.15357	-25.3332	-1.78387	-12.5818
 462	1	4	-0.002836	-22.8649	-2.68078	-13.3237
 463	1	3	-0.349559	-24.0723	-1.78326	-11.8959
 464	1	2	0.015925	-21.6498	-1.51154	-11.4485
 465	1	1	0.230077	-23.1412	-2.81305	-12.2695
 466	1	2	0.052641	-24.033	-4.36656	-11.0268
 467	1	4	-0.023623	-24.9268	-4.04036	-13.953
 468	1	1	-0.072969	-26.2449	-0.727351	-11.9299
 469	1	2	0.031276	-27.6195	1.74182	-12.0021
 470	1	2	0.023309	-26.769	1.61964	-10.4428
 471	1	2	0.030094	-26.214	2.77672	-11.6715
 472	1	5	0.077888	-25.1855	-1.55981	-13.6466
 473	1	1	0.09092	-25.6968	0.705544	-12.1155
 474	1	2	0.047821	-27.2457	-0.796263	-12.3741
 475	1	2	0.068339	-26.3503	-0.949399	-10.8605
 476	1	1	-0.129023	-26.6341	1.77433	-11.5207
 477	1	2	-0.006475	-24.7114	0.793158	-11.6401
 478	1	2	-0.010814	-25.5562	0.907263	-13.1853
 479	1	1	-0.019372	-21.8991	-2.57907	-11.3863
 480	1	2	0.00686	-22.158	-2.76727	-10.3371
 481	1	1	-0.084968	-26.502	-7.83704	-13.4636
 482	1	1	0.309483	-25.9887	-9.06265	-14.2484
 483	1	2	-0.002	-26.8543	-8.15102	-12.4726
 484	1	3	-0.436564	-25.3629	-8.61073	-15.4623
 485	1	1	0.15357	-24.3501	-7.59838	-15.3275
 486	1	4	-0.002836	-24.6129	-7.1156	-12.6643
 487	1	3	-0.349559	-24.8846	-6.46684	-14.6183
 488	1	2	0.015925	-26.9886	-5.25901	-13.1875
 489	1	1	0.230077	-25.4184	-6.74883	-13.3135
 490	1	2	0.052641	-27.3654	-7.41256	-13.9918
 491	1	4	-0.023623	-25.2585	-9.60812	-13.6373
 492	1	1	-0.072969	-23.9124	-7.15005	-16.7373
 493	1	2	0.031276	-23.7834	-5.40493	-18.9445
 494	1	2	0.023309	-24.19	-7.03235	-19.5395
 495	1	2	0.030094	-25.4073	-5.73949	-19.5833
 496	1	5	0.077888	-23.4899	-8.0046	-14.7792
 497	1	1	0.09092	-25.0589	-6.55544	-17.5899
 498	1	2	0.047821	-23.1088	-6.40969	-16.6402
 499	1	2	0.068339	-23.4842	-8.01394	-17.26
 500	1	1	-0.129023	-24.5783	-6.15921	-19.0
 501	1	2	-0.006475	-25.8739	-7.2841	-17.6858
 502	1	2	-0.010814	-25.475	-5.66963	-17.0934
 503	1	1	-0.019372	-26.0176	-5.45255	-12.7134
 504	1	2	0.00686	-26.2226	-5.61303	-11.6469
 505	1	1	-0.084968	-25.9919	-12.2977	-14.6984
 506	1	1	0.309483	-25.8712	-13.5863	-15.5409
 507	1	2	-0.002	-24.9945	-11.9255	-14.4329
 508	1	3	-0.436564	-27.1919	-13.9783	-15.9416
 509	1	1	0.15357	-27.8876	-13.001	-16.7296
 510	1	4	-0.002836	-26.1707	-10.8993	-16.3514
 511	1	3	-0.349559	-28.0032	-11.7914	-15.9631
 512	1	2	0.015925	-27.8999	-9.40336	-15.1981
 513	1	1	0.230077	-26.7681	-11.2195	-15.4881
 514	1	2	0.052641	-26.5213	-12.521	-13.7638
 515	1	4	-0.023623	-25.2829	-13.3758	-16.4432
 516	1	1	-0.072969	-29.3061	-13.5198	-17.0399
 517	1	2	0.031276	-28.9102	-14.1561	-19.7696
 518	1	2	0.023309	-27.472	-14.7537	-18.9055
 519	1	2	0.030094	-28.651	-15.9012	-19.5621
 520	1	5	0.077888	-27.3379	-12.8042	-17.6597
 521	1	1	0.09092	-29.3318	-14.8946	-17.7506
 522	1	2	0.047821	-29.8749	-13.5909	-16.1045
 523	1	2	0.068339	-29.8213	-12.7814	-17.6662
 524	1	1	-0.129023	-28.5423	-14.9232	-19.077
 525	1	2	-0.006475	-28.9369	-15.6675	-17.079
 526	1	2	-0.010814	-30.3756	-15.165	-17.9548
 527	1	1	-0.019372	-27.1629	-9.99143	-14.6352
 528	1	2	0.00686	-27.671	-10.3312	-13.7232
 529	1	1	-0.084968	-23.0798	-15.8707	-13.9432
 530	1	1	0.309483	-21.5489	-15.8267	-14.114
 531	1	2	-0.002	-23.3548	-15.7595	-12.8868
 532	1	3	-0.436564	-21.2642	-15.9295	-15.518
 533	1	1	0.15357	-21.8501	-14.9275	-16.3662
 534	1	4	-0.002836	-23.3669	-13.7664	-14.368
 535	1	3	-0.349559	-23.2684	-14.8694	-16.134
 536	1	2	0.015925	-25.5689	-15.7171	-15.2393
 537	1	1	0.230077	-23.7056	-14.7299	-14.7699
 538	1	2	0.052641	-23.4648	-16.8399	-14.2857
 539	1	4	-0.023623	-21.1687	-14.8686	-13.7362
 540	1	1	-0.072969	-21.6474	-15.3303	-17.8426
 541	1	2	0.031276	-18.2134	-16.0348	-18.292
 542	1	2	0.023309	-18.9931	-15.9095	-16.708
 543	1	2	0.030094	-19.5172	-17.1607	-17.8607
 544	1	5	0.077888	-21.4013	-13.9463	-16.1642
 545	1	1	0.09092	-20.2045	-15.1453	-18.371
 546	1	2	0.047821	-21.9634	-16.3717	-17.9849
 547	1	2	0.068339	-22.3165	-14.7182	-18.46
 548	1	1	-0.129023	-19.173	-16.1228	-17.7682
 549	1	2	-0.006475	-20.217	-15.2899	-19.4588
 550	1	2	-0.010814	-19.8765	-14.1125	-18.1976
 551	1	1	-0.019372	-25.2476	-14.7759	-14.7733
 552	1	2	0.00686	-25.6243	-14.7924	-13.7425
 553	1	1	-0.084968	-19.5023	-16.8806	-11.1705
 554	1	1	0.309483	-19.555	-17.4555	-9.7332
 555	1	2	-0.002	-18.7608	-17.4534	-11.7424
 556	1	3	-0.436564	-20.9122	-17.3459	-9.26643
 557	1	1	0.15357	-21.8629	-18.1476	-9.99677
 558	1	4	-0.002836	-21.4439	-16.0254	-11.5714
 559	1	3	-0.349559	-21.5944	-18.0857	-11.4141
 560	1	2	0.015925	-19.7402	-16.9289	-13.7308
 561	1	1	0.230077	-20.8837	-16.9202	-11.8724
 562	1	2	0.052641	-19.1533	-15.8411	-11.154
 563	1	4	-0.023623	-19.2683	-18.5147	-9.77428
 564	1	1	-0.072969	-23.2817	-17.5936	-9.73847
 565	1	2	0.031276	-22.2292	-18.4519	-7.19155
 566	1	2	0.023309	-23.053	-16.8878	-7.00597
 567	1	2	0.030094	-23.7733	-18.364	-6.32589
 568	1	5	0.077888	-21.8023	-19.1957	-9.6751
 569	1	1	0.09092	-23.9668	-18.2072	-8.49488
 570	1	2	0.047821	-23.2398	-16.5019	-9.63524
 571	1	2	0.068339	-23.9112	-17.8015	-10.6126
 572	1	1	-0.129023	-23.2084	-17.9605	-7.1752
 573	1	2	-0.006475	-24.977	-17.7877	-8.40549
 574	1	2	-0.010814	-24.0886	-19.288	-8.64278
 575	1	1	-0.019372	-20.7909	-16.9775	-13.4182
 576	1	2	0.00686	-21.1727	-17.9397	-13.7855
 577	1	1	-0.084968	-17.3714	-16.8096	-6.49213
 578	1	1	0.309483	-17.0312	-17.7409	-5.31064
 579	1	2	-0.002	-16.4511	-16.3924	-6.92099
 580	1	3	-0.436564	-18.262	-18.3106	-4.84236
 581	1	1	0.15357	-19.0055	-19.0604	-5.81595
 582	1	4	-0.002836	-17.4933	-18.3886	-7.96737
 583	1	3	-0.349559	-19.2872	-18.2176	-6.94546
 584	1	2	0.015925	-19.1228	-15.8155	-8.36474
 585	1	1	0.230077	-18.147	-17.6018	-7.5685
 586	1	2	0.052641	-17.9817	-15.9699	-6.13577
 587	1	4	-0.023623	-16.3768	-18.5449	-5.67221
 588	1	1	-0.072969	-20.3474	-19.5005	-5.19871
 589	1	2	0.031276	-18.2956	-21.2666	-4.21397
 590	1	2	0.023309	-19.3004	-22.0288	-2.96936
 591	1	2	0.030094	-19.7213	-22.2259	-4.68423
 592	1	5	0.077888	-18.4245	-19.9349	-6.13637
 593	1	1	0.09092	-20.2106	-20.2585	-3.85824
 594	1	2	0.047821	-20.9744	-18.6143	-5.03987
 595	1	2	0.068339	-20.8739	-20.1364	-5.92032
 596	1	1	-0.129023	-19.3273	-21.5211	-3.94152
 597	1	2	-0.006475	-19.8036	-19.5829	-3.09832
 598	1	2	-0.010814	-21.2114	-20.5474	-3.51319
 599	1	1	-0.019372	-18.618	-16.713	-8.74582
 600	1	2	0.00686	-17.7258	-16.3647	-9.28205
 601	1	1	-0.084968	-14.9049	-17.4368	-2.01965
 602	1	1	0.309483	-14.7171	-18.3652	-0.795277
 603	1	2	-0.002	-13.9596	-17.3275	-2.5658
 604	1	3	-0.436564	-16.002	-18.5853	-0.184567
 605	1	1	0.15357	-17.068	-19.0346	-1.04402
 606	1	4	-0.002836	-15.6913	-18.9392	-3.37179
 607	1	3	-0.349559	-17.1928	-18.1423	-2.16345
 608	1	2	0.015925	-16.9284	-16.1742	-3.78676
 609	1	1	0.230077	-16.0065	-17.9731	-2.95966
 610	1	2	0.052641	-15.1874	-16.4376	-1.66509
 611	1	4	-0.023623	-14.0808	-17.8523	-0.0638987
 612	1	1	-0.072969	-18.3843	-19.0042	-0.246233
 613	1	2	0.031276	-20.0457	-19.2094	2.01133
 614	1	2	0.023309	-20.5893	-20.4208	0.825934
 615	1	2	0.030094	-19.7877	-20.9398	2.32369
 616	1	5	0.077888	-16.8669	-20.0512	-1.40633
 617	1	1	0.09092	-18.4268	-20.0999	0.840281
 618	1	2	0.047821	-18.5117	-18.0164	0.214713
 619	1	2	0.068339	-19.2241	-19.145	-0.935009
 620	1	1	-0.129023	-19.7969	-20.1696	1.54242
 621	1	2	-0.006475	-18.209	-21.0753	0.386282
 622	1	2	-0.010814	-17.6462	-19.9116	1.58849
 623	1	1	-0.019372	-16.321	-17.0181	-4.13895
 624	1	2	0.00686	-15.3818	-16.5943	-4.51717
 625	1	1	-0.084968	-11.7865	-19.8737	0.057797
 626	1	1	0.309483	-10.2502	-19.865	-0.147799
 627	1	2	-0.002	-12.1049	-19.1405	0.7987
 628	1	3	-0.436564	-9.93885	-19.7632	-1.558
 629	1	1	0.15357	-10.6678	-20.6024	-2.48478
 630	1	4	-0.002836	-12.2773	-18.6369	-1.66069
 631	1	3	-0.349559	-12.0769	-20.637	-2.17218
 632	1	2	0.015925	-14.4987	-20.1571	-2.03391
 633	1	1	0.230077	-12.5365	-19.6268	-1.26326
 634	1	2	0.052641	-12.0735	-20.8546	0.457189
 635	1	4	-0.023623	-9.8418	-20.8099	0.23246
 636	1	1	-0.072969	-10.1186	-22.0427	-2.41324
 637	1	2	0.031276	-10.625	-25.0154	-4.20851
 638	1	2	0.023309	-9.08373	-24.3905	-3.58249
 639	1	2	0.030094	-10.3839	-24.8489	-2.45646
 640	1	5	0.077888	-10.528	-20.2047	-3.4983
 641	1	1	0.09092	-10.7334	-22.9572	-3.49538
 642	1	2	0.047821	-9.02865	-22.0159	-2.53611
 643	1	2	0.068339	-10.3221	-22.4665	-1.42243
 644	1	1	-0.129023	-10.1703	-24.39	-3.43017
 645	1	2	-0.006475	-11.8235	-22.9985	-3.37502
 646	1	2	-0.010814	-10.5349	-22.5352	-4.48893
 647	1	1	-0.019372	-14.0703	-19.7381	-1.11658
 648	1	2	0.00686	-14.3088	-20.4515	-0.316609
 649	1	1	-0.084968	-8.28626	-18.0439	2.73646
 650	1	1	0.309483	-8.6427	-16.549	2.75726
 651	1	2	-0.002	-8.12995	-18.4178	3.75506
 652	1	3	-0.436564	-9.84944	-16.389	3.52065
 653	1	1	0.15357	-11.0055	-17.1643	3.14056
 654	1	4	-0.002836	-9.20983	-19.9156	2.29164
 655	1	3	-0.349559	-10.6783	-18.5192	2.72852
 656	1	2	0.015925	-9.97271	-17.7448	0.273429
 657	1	1	0.230077	-9.42185	-18.8576	2.09212
 658	1	2	0.052641	-7.34779	-18.201	2.19116
 659	1	4	-0.023623	-8.83447	-16.2249	1.72735
 660	1	1	-0.072969	-11.7613	-16.4219	2.01061