pySIMM System Object

314 atoms
326 bonds
650 angles
966 dihedrals
0 impropers

5 atom types
5 bond types
11 angle types
8 dihedral types

-89.152455 89.152455 xlo xhi
-89.152455 89.152455 ylo yhi
-89.152455 89.152455 zlo zhi

Masses

   1	12.01	# c3
   2	1.008	# hc
   3	16.0	# os
   4	1.008	# h1
   5	1.008	# h2

Pair Coeffs

   1	0.1094	3.3996695084235347	# c3
   2	0.0157	2.649532787749369	# hc
   3	0.17	3.0000123434657784	# os
   4	0.0157	2.471353044121301	# h1
   5	0.0157	2.2931733004932333	# h2

Bond Coeffs

   1	330.6	1.0969	# c3,h1
   2	308.6	1.4316	# c3,os
   3	330.6	1.0969	# c3,hc
   4	300.9	1.5375	# c3,c3
   5	331.7	1.0961	# c3,h2

Angle Coeffs

   1	62.7	112.48	# c3,os,c3
   2	50.85	109.58	# h2,c3,os
   3	68.0	107.97	# c3,c3,os
   4	72.74	108.29	# os,c3,os
   5	46.34	109.8	# c3,c3,hc
   6	46.25	110.22	# c3,c3,h2
   7	50.8	109.78	# h1,c3,os
   8	46.39	109.56	# c3,c3,h1
   9	39.4	107.58	# hc,c3,hc
  10	39.24	108.46	# h1,c3,h1
  11	62.86	111.51	# c3,c3,c3

Dihedral Coeffs

   1	3	0.18	3	0	0.25	2	180	0.2	1	180	# c3,c3,c3,c3
   2	2	0.0	3	0	0.25	1	0	# hc,c3,c3,os
   3	1	0.3833333333333333	3	0	# X,c3,os,X
   4	1	0.15	3	0	# hc,c3,c3,hc
   5	2	0.383	3	0	0.1	2	180	# c3,c3,os,c3
   6	1	0.16	3	0	# hc,c3,c3,c3
   7	3	0.1	3	0	0.85	2	180	1.35	1	180	# c3,os,c3,os
   8	1	0.15555555555555556	3	0	# X,c3,c3,X

Atoms

   1	1	1	-0.084968	4.16598	8.57339	-5.21776
   2	1	1	0.309483	3.43746	9.92813	-5.32699
   3	1	2	-0.002	3.85826	7.90307	-6.02996
   4	1	3	-0.436564	3.94301	10.7865	-4.2871
   5	1	1	0.15357	5.36803	10.9907	-4.25595
   6	1	4	-0.002836	5.92973	9.25664	-6.27189
   7	1	3	-0.349559	6.04652	9.72014	-4.2458
   8	1	2	0.015925	7.57207	7.72353	-5.20816
   9	1	1	0.230077	5.68336	8.81253	-5.2986
  10	1	2	0.052641	3.91249	8.08718	-4.26713
  11	1	4	-0.023623	3.65362	10.3748	-6.30591
  12	1	1	-0.072969	5.70033	11.7436	-2.95155
  13	1	2	0.031276	7.8235	12.342	-4.81766
  14	1	2	0.023309	7.31411	13.8204	-3.96538
  15	1	2	0.030094	8.89256	13.0853	-3.61467
  16	1	5	0.077888	5.67697	11.574	-5.13296
  17	1	1	0.09092	7.20918	12.0103	-2.73928
  18	1	2	0.047821	5.16138	12.6991	-2.9452
  19	1	2	0.068339	5.31885	11.163	-2.10243
  20	1	1	-0.129023	7.84464	12.8664	-3.85451
  21	1	2	-0.006475	7.34226	12.5261	-1.77982
  22	1	2	-0.010814	7.75012	11.059	-2.65799
  23	1	1	-0.019372	6.4984	7.51711	-5.11634
  24	1	2	0.00686	6.31603	7.07243	-4.12974
  25	1	1	-0.084968	-0.324986	8.86387	-5.90461
  26	1	1	0.309483	-0.954355	7.89208	-6.91633
  27	1	2	-0.002	-0.591159	8.56773	-4.88169
  28	1	3	-0.436564	-0.53027	8.30464	-8.2254
  29	1	1	0.15357	0.890855	8.35385	-8.44279
  30	1	4	-0.002836	1.56589	7.82995	-5.86804
  31	1	3	-0.349559	1.50682	9.18968	-7.44295
  32	1	2	0.015925	1.47603	10.8411	-5.27035
  33	1	1	0.230077	1.20415	8.84464	-6.07747
  34	1	2	0.052641	-0.710894	9.87806	-6.0693
  35	1	4	-0.023623	-0.577841	6.88349	-6.70495
  36	1	1	-0.072969	1.14522	8.97677	-9.82846
  37	1	2	0.031276	1.91211	8.84905	-12.5467
  38	1	2	0.023309	0.416917	8.10267	-13.1516
  39	1	2	0.030094	0.367299	9.72573	-12.4322
  40	1	5	0.077888	1.31323	7.34145	-8.39268
  41	1	1	0.09092	0.580541	8.10895	-10.9765
  42	1	2	0.047821	0.692581	9.97597	-9.86349
  43	1	2	0.068339	2.22519	9.10784	-9.96811
  44	1	1	-0.129023	0.836785	8.7364	-12.3604
  45	1	2	-0.006475	1.03619	7.11105	-10.9414
  46	1	2	-0.010814	-0.500188	7.97194	-10.8487
  47	1	1	-0.019372	1.90655	9.84124	-5.12939
  48	1	2	0.00686	1.69298	9.55061	-4.09234
  49	1	1	-0.084968	-3.27367	7.05473	-9.2059
  50	1	1	0.309483	-3.04445	5.76229	-10.0198
  51	1	2	-0.002	-4.26374	7.46999	-9.434
  52	1	3	-0.436564	-3.69102	4.6819	-9.31726
  53	1	1	0.15357	-3.17749	4.38733	-7.99999
  54	1	4	-0.002836	-4.22512	6.7041	-7.31034
  55	1	3	-0.349559	-2.52483	5.54007	-7.43624
  56	1	2	0.015925	-2.88098	8.88658	-7.16476
  57	1	1	0.230077	-3.19462	6.79268	-7.67874
  58	1	2	0.052641	-2.55136	7.81081	-9.52582
  59	1	4	-0.023623	-1.96638	5.55922	-10.0669
  60	1	1	-0.072969	-2.13566	3.25461	-8.10475
  61	1	2	0.031276	-1.03193	0.714109	-7.61714
  62	1	2	0.023309	-2.26924	-0.232135	-8.47028
  63	1	2	0.030094	-1.24106	0.900953	-9.37394
  64	1	5	0.077888	-4.00399	4.08109	-7.34541
  65	1	1	0.09092	-2.80179	1.86494	-8.18743
  66	1	2	0.047821	-1.50246	3.41735	-8.98597
  67	1	2	0.068339	-1.47606	3.28304	-7.22847
  68	1	1	-0.129023	-1.77171	0.744151	-8.42683
  69	1	2	-0.006475	-3.34293	1.66449	-7.25393
  70	1	2	-0.010814	-3.54575	1.85309	-8.99206
  71	1	1	-0.019372	-2.50189	7.90485	-6.85288
  72	1	2	0.00686	-2.80542	7.77969	-5.80561
  73	1	1	-0.084968	-4.71834	3.6273	-12.0967
  74	1	1	0.309483	-4.51798	2.32375	-12.8849
  75	1	2	-0.002	-4.93198	3.39047	-11.0488
  76	1	3	-0.436564	-4.21951	2.67784	-14.2535
  77	1	1	0.15357	-3.17238	3.64747	-14.5003
  78	1	4	-0.002836	-2.5779	3.98885	-11.8799
  79	1	3	-0.349559	-3.31504	4.79833	-13.6394
  80	1	2	0.015925	-3.00166	6.62825	-11.9941
  81	1	1	0.230077	-3.46962	4.52107	-12.2353
  82	1	2	0.052641	-5.59654	4.15461	-12.4894
  83	1	4	-0.023623	-5.45927	1.76176	-12.8548
  84	1	1	-0.072969	-3.28119	4.13007	-15.9598
  85	1	2	0.031276	-4.08794	4.02474	-18.645
  86	1	2	0.023309	-2.31609	4.19061	-18.6242
  87	1	2	0.030094	-3.06132	2.66292	-19.1417
  88	1	5	0.077888	-2.19032	3.18744	-14.3328
  89	1	1	0.09092	-3.11692	2.98458	-16.984
  90	1	2	0.047821	-4.25234	4.61913	-16.1075
  91	1	2	0.068339	-2.5095	4.88891	-16.138
  92	1	1	-0.129023	-3.14729	3.49929	-18.4369
  93	1	2	-0.006475	-2.16766	2.46307	-16.8061
  94	1	2	-0.010814	-3.91912	2.24733	-16.8526
  95	1	1	-0.019372	-3.58304	5.85997	-11.4679
  96	1	2	0.00686	-4.6256	6.20349	-11.4649
  97	1	1	-0.084968	-2.3751	-0.880232	-12.0676
  98	1	1	0.309483	-2.75455	-2.08271	-11.1768
  99	1	2	-0.002	-1.84277	-1.22349	-12.9639
 100	1	3	-0.436564	-3.93036	-2.68017	-11.7476
 101	1	1	0.15357	-5.10967	-1.84497	-11.7477
 102	1	4	-0.002836	-3.83106	-0.268659	-13.5608
 103	1	3	-0.349559	-4.74529	-0.448499	-11.6941
 104	1	2	0.015925	-3.28635	1.635	-11.2282
 105	1	1	0.230077	-3.61511	-0.0637104	-12.5043
 106	1	2	0.052641	-1.67904	-0.236967	-11.5195
 107	1	4	-0.023623	-3.00343	-1.72426	-10.1697
 108	1	1	-0.072969	-5.95686	-2.14113	-10.4884
 109	1	2	0.031276	-5.26157	-4.75787	-9.69456
 110	1	2	0.023309	-6.58695	-5.62019	-10.5008
 111	1	2	0.030094	-5.33591	-4.82751	-11.4711
 112	1	5	0.077888	-5.69733	-2.0378	-12.6547
 113	1	1	0.09092	-6.78221	-3.44801	-10.5658
 114	1	2	0.047821	-5.31315	-2.16254	-9.6003
 115	1	2	0.068339	-6.65644	-1.30882	-10.3413
 116	1	1	-0.129023	-5.93643	-4.73879	-10.5581
 117	1	2	-0.006475	-7.46144	-3.47802	-9.7042
 118	1	2	-0.010814	-7.41593	-3.43107	-11.4615
 119	1	1	-0.019372	-3.38036	1.44604	-12.3031
 120	1	2	0.00686	-2.41485	1.72479	-12.7417
 121	1	1	-0.084968	0.467074	-3.85546	-9.77526
 122	1	1	0.309483	1.49458	-3.37939	-8.72573
 123	1	2	-0.002	-0.00618647	-4.79603	-9.47062
 124	1	3	-0.436564	2.05635	-2.13885	-9.20438
 125	1	1	0.15357	1.13045	-1.08675	-9.55947
 126	1	4	-0.002836	-1.09156	-2.52491	-9.06877
 127	1	3	-0.349559	0.13599	-1.59442	-10.4676
 128	1	2	0.015925	-1.18191	-3.34232	-12.0288
 129	1	1	0.230077	-0.580507	-2.75518	-10.0115
 130	1	2	0.052641	0.991883	-4.06411	-10.7159
 131	1	4	-0.023623	2.29365	-4.12869	-8.66821
 132	1	1	-0.072969	1.90335	0.0486404	-10.2595
 133	1	2	0.031276	3.82532	1.33559	-7.58857
 134	1	2	0.023309	2.82227	-0.122442	-7.4964
 135	1	2	0.030094	4.19564	-0.0588321	-8.62602
 136	1	5	0.077888	0.63112	-0.6982	-8.6637
 137	1	1	0.09092	2.45958	1.10591	-9.27662
 138	1	2	0.047821	2.72485	-0.377511	-10.8491
 139	1	2	0.068339	1.23765	0.553771	-10.9703
 140	1	1	-0.129023	3.38108	0.527024	-8.18185
 141	1	2	-0.006475	3.01773	1.85774	-9.84888
 142	1	2	-0.010814	1.62384	1.63308	-8.79852
 143	1	1	-0.019372	-1.64812	-3.15412	-11.0532
 144	1	2	0.00686	-2.1067	-4.09884	-10.7326
 145	1	1	-0.084968	0.0983453	-4.27058	-5.1507
 146	1	1	0.309483	-1.19893	-4.92608	-4.62084
 147	1	2	-0.002	0.982594	-4.74035	-4.70128
 148	1	3	-0.436564	-1.57764	-5.99251	-5.51471
 149	1	1	0.15357	-1.84496	-5.60277	-6.88153
 150	1	4	-0.002836	0.759974	-5.28379	-6.94731
 151	1	3	-0.349559	-1.11179	-4.41165	-7.2227
 152	1	2	0.015925	0.294506	-2.2775	-7.24047
 153	1	1	0.230077	0.221053	-4.36351	-6.686
 154	1	2	0.052641	0.0993743	-3.2197	-4.83788
 155	1	4	-0.023623	-1.99838	-4.17386	-4.62285
 156	1	1	-0.072969	-3.34492	-5.28257	-7.05348
 157	1	2	0.031276	-4.78149	-8.40355	-7.83463
 158	1	2	0.023309	-4.15157	-7.18396	-8.96086
 159	1	2	0.030094	-3.04638	-8.04462	-7.86192
 160	1	5	0.077888	-1.54876	-6.41709	-7.55467
 161	1	1	0.09092	-4.26902	-6.5097	-6.88082
 162	1	2	0.047821	-3.63694	-4.51092	-6.33092
 163	1	2	0.068339	-3.50324	-4.85125	-8.0492
 164	1	1	-0.129023	-4.04465	-7.59911	-7.95072
 165	1	2	-0.006475	-4.1333	-6.94333	-5.88185
 166	1	2	-0.010814	-5.31204	-6.17322	-6.93724
 167	1	1	-0.019372	0.960202	-3.14773	-7.28469
 168	1	2	0.00686	1.8198	-2.90574	-6.64622
 169	1	1	-0.084968	-1.05993	-4.952	-0.684072
 170	1	1	0.309483	-0.35128	-4.06244	0.366053
 171	1	2	-0.002	-2.13092	-5.04212	-0.460709
 172	1	3	-0.436564	-0.153406	-2.74538	-0.188183
 173	1	1	0.15357	0.657965	-2.68019	-1.38027
 174	1	4	-0.002836	-1.63911	-3.61502	-2.28427
 175	1	3	-0.349559	0.427524	-3.83843	-2.21084
 176	1	2	0.015925	-0.244912	-6.21659	-3.14381
 177	1	1	0.230077	-0.892984	-4.40348	-2.1179
 178	1	2	0.052641	-0.639274	-5.96304	-0.618675
 179	1	4	-0.023623	0.624979	-4.50698	0.597781
 180	1	1	-0.072969	2.14803	-2.65788	-0.967903
 181	1	2	0.031276	3.81836	-1.98595	-4.00676
 182	1	2	0.023309	3.28032	-3.55892	-3.37936
 183	1	2	0.030094	2.08724	-2.33259	-3.87248
 184	1	5	0.077888	0.401446	-1.76249	-1.92551
 185	1	1	0.09092	3.06256	-1.90334	-1.96139
 186	1	2	0.047821	2.24143	-2.17839	0.0148993
 187	1	2	0.068339	2.51092	-3.68628	-0.846994
 188	1	1	-0.129023	3.05952	-2.48417	-3.39066
 189	1	2	-0.006475	2.76579	-0.847486	-2.0017
 190	1	2	-0.010814	4.08952	-1.92514	-1.57518
 191	1	1	-0.019372	-1.07589	-5.50079	-3.19206
 192	1	2	0.00686	-1.99099	-6.06357	-2.96619
 193	1	1	-0.084968	-1.27379	-2.84829	3.99451
 194	1	1	0.309483	-0.467288	-2.89036	5.31133
 195	1	2	-0.002	-1.7302	-1.86018	3.85166
 196	1	3	-0.436564	0.889608	-2.4939	5.0311
 197	1	1	0.15357	1.61171	-3.35049	4.12022
 198	1	4	-0.002836	0.00456093	-2.2324	2.36172
 199	1	3	-0.349559	0.706004	-3.99888	3.20198
 200	1	2	0.015925	-1.44997	-4.9179	2.03322
 201	1	1	0.230077	-0.390662	-3.17306	2.76727
 202	1	2	0.052641	-2.09852	-3.56727	4.07221
 203	1	4	-0.023623	-0.473369	-3.92291	5.68262
 204	1	1	-0.072969	2.34584	-4.42988	4.94633
 205	1	2	0.031276	3.85798	-4.07084	2.50315
 206	1	2	0.023309	4.94864	-4.14085	3.90943
 207	1	2	0.030094	4.89552	-5.48637	2.75159
 208	1	5	0.077888	2.33512	-2.74135	3.56346
 209	1	1	0.09092	3.17962	-5.417	4.09621
 210	1	2	0.047821	3.00505	-3.93404	5.66977
 211	1	2	0.068339	1.61376	-4.99952	5.53139
 212	1	1	-0.129023	4.28596	-4.73301	3.26584
 213	1	2	-0.006475	3.6451	-6.14984	4.76755
 214	1	2	-0.010814	2.52016	-5.98354	3.42664
 215	1	1	-0.019372	-1.16952	-3.92218	1.66597
 216	1	2	0.00686	-2.10354	-3.38734	1.44847
 217	1	1	-0.084968	-0.855501	-1.15713	8.83336
 218	1	1	0.309483	-1.06488	-1.85622	10.1957
 219	1	2	-0.002	-0.143501	-0.328092	8.93742
 220	1	3	-0.436564	0.0231609	-2.78011	10.3956
 221	1	1	0.15357	0.171535	-3.82096	9.40659
 222	1	4	-0.002836	0.745294	-1.9629	7.61819
 223	1	3	-0.349559	-0.540475	-3.48398	8.20106
 224	1	2	0.015925	-2.11721	-2.1653	6.51947
 225	1	1	0.230077	-0.331093	-2.13278	7.75142
 226	1	2	0.052641	-1.80814	-0.712502	8.52027
 227	1	4	-0.023623	-2.0144	-2.40684	10.1627
 228	1	1	-0.072969	-0.417162	-5.12975	9.97235
 229	1	2	0.031276	1.79945	-6.87243	9.83756
 230	1	2	0.023309	1.41609	-7.61813	8.27251
 231	1	2	0.030094	1.84352	-5.90055	8.34649
 232	1	5	0.077888	1.23959	-3.94559	9.18868
 233	1	1	0.09092	-0.181686	-6.35786	9.06085
 234	1	2	0.047821	0.0196815	-5.32454	10.9598
 235	1	2	0.068339	-1.49552	-4.99974	10.1247
 236	1	1	-0.129023	1.31067	-6.70386	8.86962
 237	1	2	-0.006475	-0.689185	-7.22525	9.50169
 238	1	2	-0.010814	-0.6447	-6.19097	8.07994
 239	1	1	-0.019372	-1.04654	-1.95747	6.39489
 240	1	2	0.00686	-0.959221	-0.914075	6.06444
 241	1	1	-0.084968	-1.2268	-2.64452	13.259
 242	1	1	0.309483	-2.04507	-3.00545	14.513
 243	1	2	-0.002	-1.23948	-3.49261	12.5643
 244	1	3	-0.436564	-2.07544	-1.86429	15.3864
 245	1	1	0.15357	-2.58303	-0.645976	14.8092
 246	1	4	-0.002836	-2.88637	-1.63161	12.3102
 247	1	3	-0.349559	-1.87004	-0.35423	13.5934
 248	1	2	0.015925	-1.60375	0.0614542	11.0457
 249	1	1	0.230077	-1.85485	-1.39929	12.6061
 250	1	2	0.052641	-0.182302	-2.43372	13.5163
 251	1	4	-0.023623	-3.07285	-3.22128	14.1933
 252	1	1	-0.072969	-2.35013	0.487246	15.8297
 253	1	2	0.031276	-1.3717	2.78372	14.5304
 254	1	2	0.023309	-2.54674	2.10066	13.3811
 255	1	2	0.030094	-2.92464	3.59583	14.249
 256	1	5	0.077888	-3.65494	-0.757443	14.5989
 257	1	1	0.09092	-3.08069	1.80999	15.4925
 258	1	2	0.047821	-2.70722	0.141839	16.808
 259	1	2	0.068339	-1.27395	0.669826	15.939
 260	1	1	-0.129023	-2.43973	2.61627	14.3424
 261	1	2	-0.006475	-4.13282	1.60421	15.2569
 262	1	2	-0.010814	-3.08097	2.44097	16.3903
 263	1	1	-0.019372	-1.09868	-0.856493	11.3732
 264	1	2	0.00686	-0.0755573	-0.569471	11.6503
 265	1	1	-0.084968	0.0698014	-3.32836	17.1094
 266	1	1	0.309483	1.49119	-3.48663	17.6806
 267	1	2	-0.002	-0.112018	-2.26826	16.8998
 268	1	3	-0.436564	1.75359	-4.88831	17.8664
 269	1	1	0.15357	1.61959	-5.7014	16.689
 270	1	4	-0.002836	0.59685	-3.78846	15.0539
 271	1	3	-0.349559	0.302751	-5.52371	16.1379
 272	1	2	0.015925	-1.59269	-5.1048	14.5887
 273	1	1	0.230077	-0.0810707	-4.17226	15.8253
 274	1	2	0.052641	-0.669287	-3.65012	17.8539
 275	1	4	-0.023623	2.21078	-3.07688	16.9603
 276	1	1	-0.072969	1.78917	-7.17511	17.1093
 277	1	2	0.031276	2.52641	-8.79238	14.0626
 278	1	2	0.023309	2.59108	-7.0437	14.3477
 279	1	2	0.030094	3.68486	-8.13293	15.2356
 280	1	5	0.077888	2.38019	-5.41701	15.9503
 281	1	1	0.09092	1.61652	-8.18432	15.9491
 282	1	2	0.047821	2.78145	-7.30684	17.5584
 283	1	2	0.068339	1.05689	-7.40406	17.8933
 284	1	1	-0.129023	2.67004	-8.02427	14.8328
 285	1	2	-0.006475	1.68609	-9.20153	16.3548
 286	1	2	-0.010814	0.61206	-8.09107	15.517
 287	1	1	-0.019372	-1.52864	-4.25021	15.2748
 288	1	2	0.00686	-2.21878	-4.47506	16.0982
 289	1	1	-0.084968	4.24138	-2.59183	18.8506
 290	1	1	0.309483	5.43284	-2.14467	19.724
 291	1	2	-0.002	4.54689	-3.42523	18.2051
 292	1	3	-0.436564	5.38449	-2.8339	20.9883
 293	1	1	0.15357	4.19758	-2.61226	21.7827
 294	1	4	-0.002836	3.11539	-4.09884	19.9324
 295	1	3	-0.349559	3.06921	-2.2936	20.9414
 296	1	2	0.015925	0.86372	-3.08649	19.721
 297	1	1	0.230077	3.02754	-3.02804	19.7059
 298	1	2	0.052641	3.96526	-1.76219	18.1891
 299	1	4	-0.023623	5.37208	-1.06254	19.8966
 300	1	1	-0.072969	4.45398	-1.42874	22.7384
 301	1	2	0.031276	3.78337	0.924409	24.1182
 302	1	2	0.023309	2.67444	0.189034	25.2951
 303	1	2	0.030094	4.39687	-0.24684	25.3096
 304	1	5	0.077888	3.98443	-3.52018	22.3621
 305	1	1	0.09092	3.25796	-1.1521	23.6763
 306	1	2	0.047821	5.34365	-1.64912	23.3417
 307	1	2	0.068339	4.67693	-0.527711	22.1545
 308	1	1	-0.129023	3.54809	-0.000832962	24.6593
 309	1	2	-0.006475	2.36997	-0.896977	23.0841
 310	1	2	-0.010814	3.01701	-2.05986	24.2443
 311	1	1	-0.019372	1.6592	-2.76442	19.0366
 312	1	2	0.00686	1.52817	-1.68475	18.8867
 313	1	2	0	6.22866	6.77846	-5.88156
 314	1	4	0	6.37717	-2.35487	19.2071

Velocities

   1	4.81738e-05	0.00022687	-0.000245306
   2	9.03938e-05	0.000232753	-0.000295127
   3	0.000159939	0.000245231	-0.000300317
   4	0.000131051	0.000383497	-0.000407161
   5	0.000170641	3.56936e-05	-8.43735e-05
   6	0.000403233	0.000106881	0.000221038
   7	-0.000124188	-0.000114321	0.000270048
   8	-0.000137283	-0.000243158	0.00107863
   9	4.58062e-05	7.07315e-05	0.000106757
  10	-0.000197957	0.000240906	-0.000318105
  11	-9.59573e-05	0.000110779	-0.000404714
  12	8.4086e-05	5.92315e-05	-9.0381e-05
  13	-0.000135033	8.52954e-05	-0.000294742
  14	-0.000158256	5.56e-05	-0.000252776
  15	-7.62478e-05	0.000155054	-0.000398834
  16	0.000577712	-0.000177453	-7.46324e-05
  17	7.43206e-05	2.88931e-05	-0.000247428
  18	8.53148e-05	6.31853e-05	-0.000112517
  19	9.14144e-05	5.39264e-05	-9.70055e-05
  20	-7.56562e-05	0.000109231	-0.000293353
  21	0.000268224	-9.0601e-05	-0.000213048
  22	8.10076e-05	1.11229e-05	-0.00044047
  23	-0.000237473	-0.000114043	0.000180036
  24	-0.00106848	-0.000478033	-0.000117563
  25	0.000121034	5.68268e-05	-1.28441e-05
  26	1.93155e-05	8.59842e-05	1.78165e-05
  27	9.88848e-05	0.000119684	5.55653e-06
  28	-4.11228e-05	0.000101417	-1.05503e-05
  29	-2.45522e-05	-8.29936e-05	-4.63984e-05
  30	3.59109e-05	-0.000118687	0.000160156
  31	0.000147201	-0.000213543	6.40442e-06
  32	-8.01057e-05	-7.85025e-05	0.000185631
  33	0.000140605	-8.69276e-05	4.29829e-05
  34	0.000271959	0.000106883	-4.24862e-05
  35	5.88728e-06	6.88809e-05	-5.09181e-05
  36	1.72621e-05	3.93634e-05	3.89205e-05
  37	0.000562019	1.87173e-05	0.000262422
  38	0.000809284	-0.000212628	-7.69009e-05
  39	0.000395184	-0.000161643	-0.000150324
  40	-0.000133528	-0.000126108	-0.000156853
  41	0.000297114	-4.55186e-05	-1.99965e-05
  42	-0.000158282	-5.24577e-05	3.05948e-05
  43	3.35633e-05	0.000204815	0.000148497
  44	0.000525386	-0.00010994	3.36278e-06
  45	0.000413347	4.48907e-06	0.000100993
  46	0.000293352	-0.000146079	-0.000192808
  47	0.000128028	-1.82217e-05	-3.16226e-05
  48	0.000421184	-0.0001442	7.26217e-06
  49	-0.000374213	0.000175899	0.000181309
  50	-0.000350077	0.000156053	0.000144128
  51	-0.000487397	1.86507e-05	0.000306308
  52	-0.000234916	9.19253e-05	0.000129059
  53	-0.000225668	0.0001164	0.000120152
  54	-7.71522e-05	0.000265112	0.00030487
  55	-0.000204689	0.00012043	0.000102808
  56	2.95777e-06	0.000171651	0.000237249
  57	-0.000131763	0.000164637	0.000161407
  58	-0.000541437	0.000287457	7.04562e-05
  59	-0.000317132	0.000232138	9.76453e-05
  60	-0.000235983	8.91163e-05	0.000188675
  61	-0.000267178	5.52296e-05	0.000408149
  62	-0.000170746	1.59181e-05	0.000281113
  63	-3.63316e-06	-7.94692e-05	0.000346384
  64	-0.000239199	0.000137826	0.00010937
  65	-0.000195895	7.06439e-05	3.90287e-05
  66	-0.000126372	0.000114176	0.000283009
  67	-0.000360467	6.80108e-05	0.000254333
  68	-0.00015529	2.54027e-05	0.000277555
  69	-0.000409788	9.49897e-05	-8.22953e-05
  70	3.81893e-06	2.33615e-05	-0.000138019
  71	-9.31895e-06	0.000138554	0.000101535
  72	0.000185419	8.24692e-05	0.00013897
  73	-0.000203763	-8.5029e-05	0.00021922
  74	-0.000266185	-1.52747e-05	5.89819e-05
  75	-0.000162424	-0.000175917	0.000198191
  76	-0.000473036	0.000161441	6.29354e-05
  77	-0.000420874	0.000147235	0.000137622
  78	-0.000224496	6.81687e-05	0.000176544
  79	-0.00035724	9.40498e-05	0.000217247
  80	-0.000583573	9.8114e-05	7.17e-05
  81	-0.000270814	1.94405e-05	0.000190091
  82	-0.000219358	-9.36344e-05	0.000273472
  83	-0.000243775	-4.34468e-05	0.000118341
  84	-0.000418745	0.000206818	0.000177259
  85	-0.00021442	-0.000721022	-3.55993e-05
  86	-0.000338449	0.000685129	0.000349076
  87	0.000990351	3.48726e-05	0.000352214
  88	-0.000440804	8.52625e-05	8.97617e-05
  89	0.000233142	0.000225961	0.000263848
  90	-0.000592015	-0.000178483	4.06793e-05
  91	-0.000675702	0.000505404	0.000314453
  92	0.000171263	5.46861e-05	0.000229066
  93	0.000463648	0.00068857	0.000451656
  94	0.000560355	-0.000150554	0.000259661
  95	-0.000414048	3.47379e-05	0.000155826
  96	-0.000484599	-0.000138387	0.000179473
  97	4.28194e-05	-8.8519e-05	-0.000417558
  98	7.07727e-05	5.29731e-05	-0.000206375
  99	-9.28962e-05	-0.000298003	-0.000416064
 100	0.000173493	-0.000126122	-0.000249226
 101	0.000101893	-0.000235318	-0.000464932
 102	0.000151158	1.63296e-05	-0.000537309
 103	-6.67808e-05	-0.000193453	-0.000616525
 104	-1.53498e-05	-0.000266847	-0.000224229
 105	2.25202e-05	-0.000100258	-0.000464211
 106	0.000170969	-4.7273e-05	-0.000602696
 107	-2.69906e-05	0.000209246	-0.000276517
 108	0.000130648	-0.000100656	-0.000420037
 109	0.000150508	0.000247941	-0.000357649
 110	-0.000113155	1.53724e-05	0.000310433
 111	-0.000306664	-0.000384543	-0.000315955
 112	0.000153111	-0.000433208	-0.000449842
 113	-4.13898e-06	9.66842e-06	-0.000476631
 114	0.000176665	-0.000213754	-0.000482591
 115	0.00024496	-8.91315e-06	-0.000386658
 116	-7.46792e-05	-4.3656e-05	-0.000184718
 117	-0.000163182	0.000160787	-0.000595681
 118	0.000174582	-2.02181e-05	-0.00060001
 119	-0.000117961	-6.936e-05	-0.000234082
 120	-0.000172791	4.51215e-05	-0.000296294
 121	5.61038e-05	-5.15858e-05	-0.000239311
 122	0.000229452	-0.00032689	-0.000283031
 123	-0.000101468	1.58266e-05	-0.00028085
 124	0.000316462	-0.000311383	-0.000218472
 125	0.000433147	-0.000175002	-0.000231738
 126	0.000392308	0.000291286	-0.000105028
 127	0.000385805	-3.32448e-05	-0.000281339
 128	-3.87721e-05	-0.000165998	-2.9664e-05
 129	0.000231729	0.000135628	-0.000165539
 130	-4.67202e-05	-6.13018e-05	-0.000294979
 131	0.000155036	-0.000440065	-0.000588859
 132	0.000515543	-0.00013732	-0.000102605
 133	0.000116839	0.000547466	-0.000242455
 134	0.000989207	-9.32672e-05	-0.000381354
 135	0.000692245	0.00100981	-0.000682001
 136	0.000392657	-0.000221023	-0.000227373
 137	-0.000149566	9.88472e-05	3.65507e-06
 138	0.000878793	-2.18606e-05	0.000325065
 139	0.000737806	-0.000363319	-0.000471358
 140	0.000454907	0.000420075	-0.000336955
 141	-0.000755457	0.000616499	0.000101762
 142	-0.000441847	-0.000602715	0.000262014
 143	4.50075e-05	9.19107e-05	-2.68715e-05
 144	3.16954e-05	0.000211315	0.00023445
 145	0.000334579	-0.000295996	5.68894e-05
 146	0.000142214	0.000124732	0.000137431
 147	0.000211554	-0.000522691	9.37746e-05
 148	-0.000201544	0.000196371	0.000217202
 149	-9.69144e-06	0.000103207	0.00016683
 150	-9.61085e-06	-0.000505608	-5.62653e-06
 151	0.000215787	-4.83625e-05	0.000100359
 152	0.000844329	-0.000311642	0.000133153
 153	0.000248781	-0.000356207	1.59774e-06
 154	0.000625916	-0.000300719	8.97838e-06
 155	0.000387612	0.000369031	0.000134774
 156	2.07374e-05	0.000181355	-2.27691e-05
 157	8.60071e-05	2.0568e-05	0.000310028
 158	-0.000205915	-9.24011e-05	3.61563e-05
 159	2.27499e-05	0.000203395	2.35161e-05
 160	-3.47511e-05	-6.65087e-06	0.000304669
 161	-4.87127e-05	0.000202608	-4.16694e-05
 162	-2.47751e-05	0.000228438	-6.41022e-05
 163	0.000137363	0.000148488	-7.43704e-05
 164	-2.0575e-05	8.19577e-05	8.63702e-05
 165	-0.000123608	0.000278681	1.43957e-05
 166	-2.96781e-05	0.000236476	-0.000135072
 167	0.000535683	-0.000542777	-0.00012414
 168	0.000744801	-0.000903268	-0.000274804
 169	-0.000560448	-9.96053e-05	0.000176904
 170	-0.000174776	-0.000505303	0.000280787
 171	-0.000651383	0.000599473	4.61802e-05
 172	0.000187624	-0.000474087	0.000489395
 173	8.684e-05	-0.000405955	0.000430632
 174	0.000287642	0.000147381	0.000126246
 175	0.000189363	-0.000502067	0.000528987
 176	-0.000329684	-0.000186876	0.000240657
 177	-9.02397e-06	-0.000102144	0.000252587
 178	-0.0012353	-0.000366763	0.000257068
 179	-0.000319102	-0.000866061	0.000165588
 180	0.000127436	1.70471e-05	0.000326532
 181	-0.000413256	7.85743e-05	-1.22765e-05
 182	0.000453702	-9.93126e-05	0.00029979
 183	-0.00019924	-0.000724188	0.000316274
 184	-0.000193893	-0.000513879	0.000415861
 185	-0.000106003	2.65988e-05	8.42757e-05
 186	6.65794e-05	0.000323078	0.000195387
 187	0.000366352	0.000141411	0.00059705
 188	-7.84456e-05	-0.000205706	0.000173838
 189	-0.000355001	-4.05043e-05	-9.03122e-05
 190	-7.80359e-05	0.00032729	6.20125e-06
 191	-0.000130575	2.77938e-05	0.000141614
 192	-0.000295914	0.000256776	4.20874e-05
 193	5.44416e-05	0.000248647	-3.65852e-05
 194	1.59544e-06	9.15744e-06	-1.44317e-06
 195	0.000465897	0.000440551	-9.64718e-05
 196	1.12469e-05	-4.1333e-05	4.82459e-05
 197	-3.64239e-05	-4.53854e-05	2.19361e-05
 198	1.591e-05	-0.000202743	-0.000222283
 199	-4.23163e-05	-6.4612e-05	8.28044e-05
 200	-4.18854e-05	-0.000291931	0.000500479
 201	-4.38906e-05	-9.31704e-05	3.2039e-05
 202	-0.000255063	0.00058542	-6.73255e-05
 203	-6.66704e-05	-6.65037e-05	-0.000154853
 204	-0.000102406	-0.000145828	-7.49691e-05
 205	-0.000255225	0.00034109	-2.93695e-05
 206	-0.00024783	0.000114484	-5.80648e-05
 207	-0.000178431	0.00035045	-0.000340681
 208	-3.40612e-05	-5.74039e-05	1.62287e-05
 209	-0.000164094	5.74315e-06	-0.000274425
 210	-0.000110783	-0.000266312	9.65313e-06
 211	-0.000158522	-0.000200612	-0.000200702
 212	-0.000204456	0.000214433	-0.000171636
 213	-0.000149021	-0.000130542	-0.000447036
 214	-0.000181794	0.000146186	-0.000377059
 215	-9.37561e-05	-0.000351192	0.000254689
 216	-0.000128167	-0.000394342	0.000266726
 217	0.00060289	0.00014412	3.37839e-05
 218	0.000339304	0.00011635	3.86589e-05
 219	0.000929959	-0.000149266	8.29989e-05
 220	0.000427442	0.000217891	9.12644e-05
 221	0.00035738	0.000163536	0.000114941
 222	0.000256482	-0.000148513	-0.000281334
 223	0.000236571	4.91135e-05	0.000146717
 224	4.40266e-05	-0.000306024	0.000224581
 225	0.000255503	-8.07204e-06	-2.49555e-05
 226	0.000776141	0.000518239	4.54785e-05
 227	0.000424858	4.74145e-06	-0.000193076
 228	0.000307987	0.000281654	0.000248967
 229	6.37169e-05	0.000607038	-0.000378991
 230	-0.000597811	-0.000249597	0.000193152
 231	-0.000471966	-0.000222338	-0.000921681
 232	0.000321381	0.000102993	6.52488e-06
 233	-0.00020361	0.000317141	0.000111731
 234	0.000579945	0.000185949	9.39824e-05
 235	0.000375738	0.000488813	0.000591879
 236	-0.000292693	9.96009e-05	-0.000279083
 237	-0.000237854	0.000402817	0.00019567
 238	-0.000415287	0.000458995	0.000237551
 239	-1.28635e-05	-0.000121823	8.14561e-05
 240	-0.000228444	-9.95049e-05	5.4307e-05
 241	-0.000222612	-0.000207131	5.398e-05
 242	-0.000201055	-0.000178427	0.000110234
 243	-0.000416603	-0.000156359	-5.69187e-06
 244	-0.000249949	-0.000178752	0.000144601
 245	1.56278e-05	-3.85022e-05	0.000174904
 246	-8.90547e-05	9.58481e-05	0.000214349
 247	0.000176819	-0.000134058	0.000232051
 248	-0.000450486	-0.0001675	4.12436e-05
 249	-3.00321e-05	-5.5204e-05	0.00015207
 250	-0.000164907	-0.000429713	-1.97241e-05
 251	-0.000200877	-0.000232152	0.000137297
 252	0.000190238	-5.89748e-05	0.0002245
 253	-0.000418428	0.000102699	-0.000626575
 254	-0.000887372	-0.000425147	0.000151273
 255	-0.000692309	-0.000267458	-6.91948e-05
 256	2.46188e-05	0.000235939	6.78874e-05
 257	0.000238936	6.21994e-05	0.000489999
 258	0.000320144	-0.000100617	0.000258601
 259	0.000195652	-0.000116146	8.33194e-05
 260	-0.000489909	-0.000147392	-5.23243e-05
 261	3.73987e-05	0.000212303	0.00125273
 262	0.000976422	0.000175115	0.000404228
 263	-0.000120061	5.32309e-05	0.000118023
 264	-0.00023609	0.000458076	0.000162123
 265	0.000243194	2.57737e-05	-0.000329854
 266	0.000251828	-1.94976e-05	-0.000317364
 267	0.000401419	4.29365e-06	-0.000538544
 268	0.000320438	-2.24308e-05	-0.000361654
 269	-6.63779e-05	-0.000210748	-0.000167087
 270	-0.000126004	-0.000391674	-0.000346027
 271	-0.000166722	-0.000151678	3.4625e-05
 272	-0.000296756	-0.000219262	0.000171614
 273	-4.48191e-05	-0.000207058	-0.000155515
 274	0.000254117	0.000302542	-0.000203893
 275	0.000296402	0.000170682	-0.000160086
 276	-0.000398136	-6.61586e-05	0.000186969
 277	0.000522242	0.000405657	0.000190994
 278	-0.00075421	0.000466831	7.92211e-05
 279	5.61228e-05	0.00133554	0.000149238
 280	-0.000177485	-0.000517404	-0.000392803
 281	9.83744e-05	-0.000134265	0.000196361
 282	-0.000599278	-6.04052e-05	0.00065974
 283	-0.00078234	9.74355e-05	-0.000136296
 284	-1.85584e-05	0.000547056	0.000156521
 285	0.000596255	-9.84787e-05	0.000128032
 286	3.30625e-05	-0.000579708	0.000219614
 287	-0.000142737	-0.000141758	0.000112406
 288	-8.28892e-06	-8.72595e-05	0.000254018
 289	4.84478e-05	0.000179241	-0.000212452
 290	0.000145259	-0.00021848	-0.000131621
 291	-0.000103592	0.000265343	-0.000448704
 292	-0.000161165	1.86583e-05	-2.49373e-05
 293	-0.000272066	0.000305285	-0.000222082
 294	0.000315529	0.000229772	2.11149e-05
 295	-8.42913e-05	0.000396039	-0.000417877
 296	0.000210707	-0.00119624	-0.000173186
 297	5.89768e-05	0.000125918	-0.000210662
 298	9.85753e-05	0.000379996	3.17507e-05
 299	0.000586481	-0.000162049	-0.000272734
 300	-0.000248762	0.000305066	-0.000247584
 301	-0.00047622	8.79516e-05	0.000186782
 302	0.000404661	-0.000451808	0.000702145
 303	0.000542411	8.35371e-05	-0.000359381
 304	-0.000517681	0.000403856	-0.000168903
 305	-1.46022e-05	-3.84191e-05	0.000162229
 306	-4.22353e-05	0.000479817	-0.000485656
 307	-0.000614532	0.000407899	-0.000258471
 308	0.000103198	-8.70747e-05	0.000173901
 309	-0.000280686	-0.000188591	0.000472928
 310	0.00042739	-0.000127252	0.000194273
 311	-3.93272e-05	-0.000396073	-0.000116176
 312	-0.000764815	-0.000419781	0.000399296
 313	0.000207778	0.00024509	-0.000291251
 314	0.00013635	-0.000659626	-1.33594e-05

Bonds

   1	4	1	2
   2	3	1	3
   3	4	1	9
   4	3	1	10
   5	2	2	4
   6	1	2	11
   7	2	4	5
   8	2	5	7
   9	4	5	12
  10	5	5	16
  11	1	6	9
  12	2	7	9
  13	3	8	23
  14	4	9	23
  15	4	12	17
  16	3	12	18
  17	3	12	19
  18	3	13	20
  19	3	14	20
  20	3	15	20
  21	4	17	20
  22	3	17	21
  23	3	17	22
  24	3	23	24
  25	4	25	26
  26	3	25	27
  27	4	25	33
  28	3	25	34
  29	2	26	28
  30	1	26	35
  31	2	28	29
  32	2	29	31
  33	4	29	36
  34	5	29	40
  35	1	30	33
  36	2	31	33
  37	3	32	47
  38	4	33	47
  39	4	36	41
  40	3	36	42
  41	3	36	43
  42	3	37	44
  43	3	38	44
  44	3	39	44
  45	4	41	44
  46	3	41	45
  47	3	41	46
  48	3	47	48
  49	4	2	47
  50	4	49	50
  51	3	49	51
  52	4	49	57
  53	3	49	58
  54	2	50	52
  55	1	50	59
  56	2	52	53
  57	2	53	55
  58	4	53	60
  59	5	53	64
  60	1	54	57
  61	2	55	57
  62	3	56	71
  63	4	57	71
  64	4	60	65
  65	3	60	66
  66	3	60	67
  67	3	61	68
  68	3	62	68
  69	3	63	68
  70	4	65	68
  71	3	65	69
  72	3	65	70
  73	3	71	72
  74	4	26	71
  75	4	73	74
  76	3	73	75
  77	4	73	81
  78	3	73	82
  79	2	74	76
  80	1	74	83
  81	2	76	77
  82	2	77	79
  83	4	77	84
  84	5	77	88
  85	1	78	81
  86	2	79	81
  87	3	80	95
  88	4	81	95
  89	4	84	89
  90	3	84	90
  91	3	84	91
  92	3	85	92
  93	3	86	92
  94	3	87	92
  95	4	89	92
  96	3	89	93
  97	3	89	94
  98	3	95	96
  99	4	50	95
 100	4	97	98
 101	3	97	99
 102	4	97	105
 103	3	97	106
 104	2	98	100
 105	1	98	107
 106	2	100	101
 107	2	101	103
 108	4	101	108
 109	5	101	112
 110	1	102	105
 111	2	103	105
 112	3	104	119
 113	4	105	119
 114	4	108	113
 115	3	108	114
 116	3	108	115
 117	3	109	116
 118	3	110	116
 119	3	111	116
 120	4	113	116
 121	3	113	117