pySIMM System Object

1154 atoms
1201 bonds
2400 angles
3591 dihedrals
0 impropers

5 atom types
5 bond types
11 angle types
8 dihedral types

-140.531014 140.531014 xlo xhi
-140.531014 140.531014 ylo yhi
-140.531014 140.531014 zlo zhi

Masses

   1	12.01	# c3
   2	1.008	# hc
   3	16.0	# os
   4	1.008	# h1
   5	1.008	# h2

Pair Coeffs

   1	0.1094	3.3996695084235347	# c3
   2	0.0157	2.649532787749369	# hc
   3	0.17	3.0000123434657784	# os
   4	0.0157	2.471353044121301	# h1
   5	0.0157	2.2931733004932333	# h2

Bond Coeffs

   1	330.6	1.0969	# c3,h1
   2	308.6	1.4316	# c3,os
   3	330.6	1.0969	# c3,hc
   4	300.9	1.5375	# c3,c3
   5	331.7	1.0961	# c3,h2

Angle Coeffs

   1	62.7	112.48	# c3,os,c3
   2	50.85	109.58	# h2,c3,os
   3	68.0	107.97	# c3,c3,os
   4	72.74	108.29	# os,c3,os
   5	46.34	109.8	# c3,c3,hc
   6	46.25	110.22	# c3,c3,h2
   7	50.8	109.78	# h1,c3,os
   8	46.39	109.56	# c3,c3,h1
   9	39.4	107.58	# hc,c3,hc
  10	39.24	108.46	# h1,c3,h1
  11	62.86	111.51	# c3,c3,c3

Dihedral Coeffs

   1	3	0.18	3	0	0.25	2	180	0.2	1	180	# c3,c3,c3,c3
   2	2	0.0	3	0	0.25	1	0	# hc,c3,c3,os
   3	1	0.3833333333333333	3	0	# X,c3,os,X
   4	1	0.15	3	0	# hc,c3,c3,hc
   5	2	0.383	3	0	0.1	2	180	# c3,c3,os,c3
   6	1	0.16	3	0	# hc,c3,c3,c3
   7	3	0.1	3	0	0.85	2	180	1.35	1	180	# c3,os,c3,os
   8	1	0.15555555555555556	3	0	# X,c3,c3,X

Atoms

   1	1	1	-0.084968	-23.6495	14.2047	32.2451
   2	1	1	0.309483	-24.9677	13.945	33.0016
   3	1	2	-0.002	-23.286	13.282	31.7761
   4	1	3	-0.436564	-25.4353	15.204	33.5197
   5	1	1	0.15357	-25.6347	16.2459	32.5465
   6	1	4	-0.002836	-24.6093	14.8874	30.4278
   7	1	3	-0.349559	-24.4227	16.4447	31.7943
   8	1	2	0.015925	-22.7954	16.4351	29.6723
   9	1	1	0.230077	-23.8878	15.2706	31.1611
  10	1	2	0.052641	-22.8793	14.5494	32.9467
  11	1	4	-0.023623	-25.7128	13.5466	32.301
  12	1	1	-0.072969	-25.9708	17.5454	33.3049
  13	1	2	0.031276	-27.2092	17.7631	30.699
  14	1	2	0.023309	-28.3269	18.3177	31.9695
  15	1	2	0.030094	-27.5953	19.4862	30.8498
  16	1	5	0.077888	-26.4546	15.967	31.8719
  17	1	1	0.09092	-26.2236	18.7627	32.3842
  18	1	2	0.047821	-26.8573	17.3754	33.9285
  19	1	2	0.068339	-25.1456	17.7791	33.9888
  20	1	1	-0.129023	-27.4112	18.5661	31.4183
  21	1	2	-0.006475	-26.421	19.6417	33.0109
  22	1	2	-0.010814	-25.3188	18.9897	31.8062
  23	1	1	-0.019372	-22.5905	15.6682	30.4297
  24	1	2	0.00686	-21.8488	16.0679	31.1329
  25	1	1	-0.084968	-24.2687	10.6057	34.9948
  26	1	1	0.309483	-23.859	9.20681	34.5002
  27	1	2	-0.002	-23.5519	10.9665	35.7437
  28	1	3	-0.436564	-24.8061	8.81354	33.4888
  29	1	1	0.15357	-24.8953	9.69817	32.3559
  30	1	4	-0.002836	-23.3022	11.6582	33.3798
  31	1	3	-0.349559	-25.2011	11.0299	32.8074
  32	1	2	0.015925	-25.7935	12.8823	34.6979
  33	1	1	0.230077	-24.3126	11.5752	33.7996
  34	1	2	0.052641	-25.2545	10.5569	35.4749
  35	1	4	-0.023623	-22.8577	9.27541	34.0561
  36	1	1	-0.072969	-26.0404	9.23648	31.4341
  37	1	2	0.031276	-26.8731	8.17442	28.9528
  38	1	2	0.023309	-26.6116	6.46519	29.3578
  39	1	2	0.030094	-27.8375	7.40433	30.2364
  40	1	5	0.077888	-23.943	9.70146	31.8088
  41	1	1	0.09092	-25.7767	7.84673	30.8171
  42	1	2	0.047821	-26.9811	9.21791	31.999
  43	1	2	0.068339	-26.1626	9.973	30.6305
  44	1	1	-0.129023	-26.8419	7.45147	29.7775
  45	1	2	-0.006475	-24.7874	7.83316	30.3417
  46	1	2	-0.010814	-25.7673	7.09373	31.6111
  47	1	1	-0.019372	-24.8201	12.9787	34.1996
  48	1	2	0.00686	-24.1306	13.4132	34.9352
  49	1	1	-0.084968	-24.4971	5.92594	34.5129
  50	1	1	0.309483	-24.002	5.38747	33.1592
  51	1	2	-0.002	-24.792	5.08693	35.1566
  52	1	3	-0.436564	-22.7354	4.75366	33.4058
  53	1	1	0.15357	-21.6825	5.62723	33.8678
  54	1	4	-0.002836	-23.1224	6.19511	36.1462
  55	1	3	-0.349559	-22.2185	6.85621	34.4018
  56	1	2	0.015925	-24.8307	8.11789	36.1234
  57	1	1	0.230077	-23.394	6.74272	35.2346
  58	1	2	0.052641	-25.4033	6.5231	34.3609
  59	1	4	-0.023623	-23.8606	6.22632	32.4663
  60	1	1	-0.072969	-20.7927	6.00313	32.6654
  61	1	2	0.031276	-18.4232	5.96665	31.1408
  62	1	2	0.023309	-18.5874	4.30813	30.5245
  63	1	2	0.030094	-19.7814	5.542	30.0714
  64	1	5	0.077888	-21.0898	5.11369	34.636
  65	1	1	0.09092	-19.995	4.79979	32.1173
  66	1	2	0.047821	-21.4179	6.42573	31.8687
  67	1	2	0.068339	-20.0918	6.78931	32.9721
  68	1	1	-0.129023	-19.1452	5.17976	30.8889
  69	1	2	-0.006475	-19.3392	4.4058	32.9043
  70	1	2	-0.010814	-20.6792	3.99132	31.8364
  71	1	1	-0.019372	-23.8414	8.16723	35.6505
  72	1	2	0.00686	-23.1525	8.52483	36.4264
  73	1	1	-0.084968	-23.6604	2.70291	31.0741
  74	1	1	0.309483	-23.3667	2.26717	29.6259
  75	1	2	-0.002	-22.7204	2.87652	31.6083
  76	1	3	-0.436564	-24.6211	2.15876	28.9204
  77	1	1	0.15357	-25.5298	3.27664	28.9816
  78	1	4	-0.002836	-24.0334	4.80071	30.6251
  79	1	3	-0.349559	-25.7415	3.664	30.3509
  80	1	2	0.015925	-25.9743	4.84912	32.4776
  81	1	1	0.230077	-24.5527	3.9602	31.1031
  82	1	2	0.052641	-24.172	1.88211	31.5918
  83	1	4	-0.023623	-22.9007	1.27471	29.6633
  84	1	1	-0.072969	-26.8705	2.8172	28.3793
  85	1	2	0.031276	-29.0609	3.11406	26.6279
  86	1	2	0.023309	-29.6833	2.69663	28.242
  87	1	2	0.030094	-29.9374	4.32752	27.5851
  88	1	5	0.077888	-25.1256	4.12353	28.4125
  89	1	1	0.09092	-27.9008	3.96258	28.2767
  90	1	2	0.047821	-26.6877	2.40383	27.3795
  91	1	2	0.068339	-27.2798	2.0047	28.9927
  92	1	1	-0.129023	-29.2257	3.49462	27.6437
  93	1	2	-0.006475	-28.1072	4.37053	29.2744
  94	1	2	-0.010814	-27.4827	4.7782	27.673
  95	1	1	-0.019372	-24.984	4.37834	32.5276
  96	1	2	0.00686	-25.0921	3.49662	33.1727
  97	1	1	-0.084968	-23.0295	2.77402	26.3851
  98	1	1	0.309483	-22.3788	2.91847	24.9915
  99	1	2	-0.002	-23.6831	1.89282	26.4101
 100	1	3	-0.436564	-21.1284	2.20256	25.0068
 101	1	1	0.15357	-20.1354	2.73244	25.9114
 102	1	4	-0.002836	-21.7138	1.57993	27.631
 103	1	3	-0.349559	-20.7685	3.32582	27.0678
 104	1	2	0.015925	-21.4965	3.34009	29.4903
 105	1	1	0.230077	-21.9616	2.64194	27.5014
 106	1	2	0.052641	-23.6664	3.64803	26.5632
 107	1	4	-0.023623	-22.1804	3.98249	24.811
 108	1	1	-0.072969	-19.3185	3.8264	25.1891
 109	1	2	0.031276	-16.9895	4.77353	23.8979
 110	1	2	0.023309	-17.2807	3.9881	22.3319
 111	1	2	0.030094	-18.4048	5.23058	22.9221
 112	1	5	0.077888	-19.4713	1.918	26.2286
 113	1	1	0.09092	-18.6031	3.29729	23.9245
 114	1	2	0.047821	-19.9758	4.66129	24.9164
 115	1	2	0.068339	-18.5722	4.22565	25.8868
 116	1	1	-0.129023	-17.7693	4.39039	23.2278
 117	1	2	-0.006475	-17.9462	2.46133	24.1969
 118	1	2	-0.010814	-19.3391	2.90755	23.2104
 119	1	1	-0.019372	-22.3944	3.2127	28.8726
 120	1	2	0.00686	-22.8274	4.21272	28.7472
 121	1	1	-0.084968	-23.4169	1.95156	21.3193
 122	1	1	0.309483	-22.648	2.04639	19.986
 123	1	2	-0.002	-23.7643	0.923623	21.4848
 124	1	3	-0.436564	-22.122	3.38495	19.8618
 125	1	1	0.15357	-21.3783	3.93082	20.9735
 126	1	4	-0.002836	-21.6488	1.75162	22.5514
 127	1	3	-0.349559	-22.0999	3.75282	22.2059
 128	1	2	0.015925	-24.1769	2.98581	23.7802
 129	1	1	0.230077	-22.5246	2.4086	22.4869
 130	1	2	0.052641	-24.3085	2.58868	21.2653
 131	1	4	-0.023623	-23.359	1.86536	19.1706
 132	1	1	-0.072969	-21.1353	5.43731	20.726
 133	1	2	0.031276	-24.3462	6.86462	20.3036
 134	1	2	0.023309	-23.3251	6.09482	19.0701
 135	1	2	0.030094	-24.0296	5.12411	20.3861
 136	1	5	0.077888	-20.4113	3.41668	21.0442
 137	1	1	0.09092	-22.3394	6.37419	21.0051
 138	1	2	0.047821	-20.2986	5.75687	21.3583
 139	1	2	0.068339	-20.8041	5.57641	19.6896
 140	1	1	-0.129023	-23.5836	6.09424	20.1364
 141	1	2	-0.006475	-22.6178	6.32247	22.0654
 142	1	2	-0.010814	-22.0181	7.40788	20.8246
 143	1	1	-0.019372	-23.2614	2.38382	23.8435
 144	1	2	0.00686	-23.57	1.35388	24.0646
 145	1	1	-0.084968	-19.9517	1.94713	17.9802
 146	1	1	0.309483	-18.6068	1.77657	18.7009
 147	1	2	-0.002	-19.7993	1.86881	16.8956
 148	1	3	-0.436564	-18.1114	0.476903	18.3418
 149	1	1	0.15357	-18.9317	-0.673691	18.6243
 150	1	4	-0.002836	-21.8042	0.879417	17.7497
 151	1	3	-0.349559	-20.3285	-0.447193	18.3031
 152	1	2	0.015925	-21.9107	0.0321032	20.1764
 153	1	1	0.230077	-20.9454	0.856823	18.4322
 154	1	2	0.052641	-20.3576	2.94691	18.1624
 155	1	4	-0.023623	-18.7521	1.84625	19.7855
 156	1	1	-0.072969	-18.7279	-1.06847	20.1091
 157	1	2	0.031276	-20.8932	-3.78008	20.778
 158	1	2	0.023309	-21.1617	-2.07021	21.1662
 159	1	2	0.030094	-21.1127	-2.60911	19.4687
 160	1	5	0.077888	-18.5677	-1.5036	18.005
 161	1	1	0.09092	-19.1467	-2.52021	20.4411
 162	1	2	0.047821	-17.6586	-0.97471	20.3368
 163	1	2	0.068339	-19.238	-0.374575	20.7816
 164	1	1	-0.129023	-20.6715	-2.7533	20.4617
 165	1	2	-0.006475	-18.6786	-3.2119	19.7291
 166	1	2	-0.010814	-18.7486	-2.77664	21.4311
 167	1	1	-0.019372	-21.5059	1.00448	19.8708
 168	1	2	0.00686	-20.7067	1.24167	20.5783
 169	1	1	-0.084968	-15.4476	1.5756	19.1101
 170	1	1	0.309483	-13.9589	1.86448	19.4028
 171	1	2	-0.002	-15.8415	0.844348	19.8277
 172	1	3	-0.436564	-13.8799	3.02693	20.2507
 173	1	1	0.15357	-14.3889	4.24995	19.6766
 174	1	4	-0.002836	-16.6409	3.00777	20.2134
 175	1	3	-0.349559	-15.4959	3.97745	18.791
 176	1	2	0.015925	-18.0384	3.82781	18.314
 177	1	1	0.230077	-16.3147	2.85728	19.1761
 178	1	2	0.052641	-15.5206	1.11767	18.1161
 179	1	4	-0.023623	-13.451	2.07312	18.4528
 180	1	1	-0.072969	-13.2803	4.94007	18.8518
 181	1	2	0.031276	-11.3717	7.00775	18.5617
 182	1	2	0.023309	-10.0775	6.22877	19.4967
 183	1	2	0.030094	-10.6531	5.48491	17.9909
 184	1	5	0.077888	-14.7172	4.91229	20.488
 185	1	1	0.09092	-12.0162	5.24592	19.6863
 186	1	2	0.047821	-13.0101	4.31409	17.9922
 187	1	2	0.068339	-13.6812	5.87707	18.4465
 188	1	1	-0.129023	-10.967	6.03984	18.883
 189	1	2	-0.006475	-12.2952	5.82114	20.5784
 190	1	2	-0.010814	-11.5622	4.30973	20.0347
 191	1	1	-0.019372	-17.5681	2.83702	18.2699
 192	1	2	0.00686	-17.2762	2.67352	17.224
 193	1	1	-0.084968	-11.0373	-0.114147	21.1592
 194	1	1	0.309483	-9.52507	-0.177454	20.8348
 195	1	2	-0.002	-11.1993	0.0821263	22.227
 196	1	3	-0.436564	-9.09326	1.11331	20.3502
 197	1	1	0.15357	-9.73886	1.57845	19.1435
 198	1	4	-0.002836	-11.6467	1.93693	20.8677
 199	1	3	-0.349559	-11.0875	1.07398	19.0635
 200	1	2	0.015925	-13.3557	-0.220601	19.5017
 201	1	1	0.230077	-11.7503	0.981868	20.3363
 202	1	2	0.052641	-11.4797	-1.09519	20.9479
 203	1	4	-0.023623	-9.37499	-0.922882	20.0438
 204	1	1	-0.072969	-8.93607	1.07339	17.9235
 205	1	2	0.031276	-8.95484	3.50114	16.5076
 206	1	2	0.023309	-10.2183	3.08928	15.3289
 207	1	2	0.030094	-10.6354	3.2561	17.0428
 208	1	5	0.077888	-9.7565	2.67599	19.1526
 209	1	1	0.09092	-9.57961	1.40255	16.5558
 210	1	2	0.047821	-7.93129	1.51151	17.961
 211	1	2	0.068339	-8.80671	-0.0128166	17.9959
 212	1	1	-0.129023	-9.86155	2.905	16.3497
 213	1	2	-0.006475	-8.90959	1.05336	15.76
 214	1	2	-0.010814	-10.5158	0.841649	16.4409
 215	1	1	-0.019372	-13.2476	0.689078	20.1064
 216	1	2	0.00686	-13.7335	0.492988	21.0712
 217	1	1	-0.084968	-6.28538	-0.964117	22.9361
 218	1	1	0.309483	-4.80133	-1.0601	22.5237
 219	1	2	-0.002	-6.40938	-0.22412	23.7372
 220	1	3	-0.436564	-4.69559	-1.93029	21.3768
 221	1	1	0.15357	-5.56834	-1.67658	20.2562
 222	1	4	-0.002836	-6.86749	0.395281	21.3518
 223	1	3	-0.349559	-6.92939	-1.58238	20.7089
 224	1	2	0.015925	-8.9801	-1.55707	22.4217
 225	1	1	0.230077	-7.1613	-0.59323	21.7242
 226	1	2	0.052641	-6.60732	-1.93278	23.3381
 227	1	4	-0.023623	-4.24553	-1.51391	23.3536
 228	1	1	-0.072969	-5.44283	-2.86795	19.2859
 229	1	2	0.031276	-6.71269	-1.52562	16.2846
 230	1	2	0.023309	-6.36102	-0.60177	17.7557
 231	1	2	0.030094	-5.04742	-1.44216	16.8997
 232	1	5	0.077888	-5.27751	-0.742359	19.7587
 233	1	1	0.09092	-6.3584	-2.76889	18.0432
 234	1	2	0.047821	-4.39917	-2.94906	18.9574
 235	1	2	0.068339	-5.6746	-3.79309	19.8279
 236	1	1	-0.129023	-6.10166	-1.50691	17.1955
 237	1	2	-0.006475	-6.19828	-3.65535	17.4165
 238	1	2	-0.010814	-7.41156	-2.79042	18.3511
 239	1	1	-0.019372	-8.66728	-0.569942	22.0579
 240	1	2	0.00686	-8.84526	0.143253	22.8732
 241	1	1	-0.084968	-2.49282	0.169289	20.2706
 242	1	1	0.309483	-0.994835	0.236883	19.9207
 243	1	2	-0.002	-2.91887	-0.752302	19.8595
 244	1	3	-0.436564	-0.442881	1.42324	20.5181
 245	1	1	0.15357	-0.620012	1.54349	21.9413
 246	1	4	-0.002836	-2.20553	-0.648381	22.2668
 247	1	3	-0.349559	-2.01546	1.4184	22.2717
 248	1	2	0.015925	-4.22193	0.914035	23.1543
 249	1	1	0.230077	-2.67471	0.227676	21.8001
 250	1	2	0.052641	-3.02728	1.01433	19.8236
 251	1	4	-0.023623	-0.499125	-0.640621	20.3557
 252	1	1	-0.072969	-0.152324	2.94376	22.3795
 253	1	2	0.031276	1.32574	5.32732	22.1065
 254	1	2	0.023309	1.60879	4.67565	23.7382
 255	1	2	0.030094	2.91177	4.64836	22.5305
 256	1	5	0.077888	-0.045063	0.764999	22.4602
 257	1	1	0.09092	1.36803	3.14303	22.1959
 258	1	2	0.047821	-0.697461	3.70363	21.8052
 259	1	2	0.068339	-0.412462	3.09072	23.435
 260	1	1	-0.129023	1.82997	4.53409	22.6728
 261	1	2	-0.006475	1.90973	2.37128	22.7578
 262	1	2	-0.010814	1.6369	3.0205	21.139
 263	1	1	-0.019372	-4.15787	0.319964	22.2333
 264	1	2	0.00686	-4.72947	0.87203	21.4778
 265	1	1	-0.084968	-0.582571	1.70458	16.2904
 266	1	1	0.309483	-1.29229	2.84526	15.5312
 267	1	2	-0.002	0.470603	1.96775	16.4523
 268	1	3	-0.436564	-2.70118	2.55733	15.4429
 269	1	1	0.15357	-3.36381	2.26883	16.6871
 270	1	4	-0.002836	-1.1735	2.38087	18.2521
 271	1	3	-0.349559	-2.66556	1.21571	17.3728
 272	1	2	0.015925	-1.03333	-0.671207	17.9454
 273	1	1	0.230077	-1.27546	1.47255	17.6444
 274	1	2	0.052641	-0.59759	0.778552	15.71
 275	1	4	-0.023623	-1.15777	3.76333	16.1177
 276	1	1	-0.072969	-4.79104	1.77112	16.3883
 277	1	2	0.031276	-5.02651	4.61944	16.7732
 278	1	2	0.023309	-6.65581	4.74459	16.0871
 279	1	2	0.030094	-6.38821	3.77702	17.5521
 280	1	5	0.077888	-3.38738	3.16521	17.3201
 281	1	1	0.09092	-5.69532	2.82338	15.7073
 282	1	2	0.047821	-4.73095	0.88351	15.7464
 283	1	2	0.068339	-5.25705	1.45372	17.3281
 284	1	1	-0.129023	-5.9541	4.06494	16.5862
 285	1	2	-0.006475	-5.25442	3.13586	14.7522
 286	1	2	-0.010814	-6.65833	2.35541	15.468
 287	1	1	-0.019372	-0.681464	0.261002	18.405
 288	1	2	0.00686	0.410011	0.26503	18.2885
 289	1	1	-0.084968	-0.650941	2.50874	11.6249
 290	1	1	0.309483	-1.15825	1.51413	10.556
 291	1	2	-0.002	-0.896174	3.53477	11.322
 292	1	3	-0.436564	-0.990307	0.169465	11.0402
 293	1	1	0.15357	-1.56439	-0.113004	12.328
 294	1	4	-0.002836	-2.38202	2.36018	12.9103
 295	1	3	-0.349559	-1.03573	0.820511	13.2851
 296	1	2	0.015925	0.367858	3.0152	14.137
 297	1	1	0.230077	-1.29865	2.20091	12.9884
 298	1	2	0.052641	0.436919	2.4552	11.7241
 299	1	4	-0.023623	-2.2314	1.70357	10.4242
 300	1	1	-0.072969	-1.16189	-1.54484	12.7372
 301	1	2	0.031276	-2.95337	-2.10246	15.7305
 302	1	2	0.023309	-1.29052	-1.50655	15.5693
 303	1	2	0.030094	-2.65666	-0.518086	14.9928
 304	1	5	0.077888	-2.65744	-0.0239378	12.2705
 305	1	1	0.09092	-2.16685	-2.21919	13.7
 306	1	2	0.047821	-1.09561	-2.1641	11.8362
 307	1	2	0.068339	-0.159778	-1.53537	13.1835
 308	1	1	-0.129023	-2.27144	-1.54124	15.0806
 309	1	2	-0.006475	-3.15968	-2.24366	13.2327
 310	1	2	-0.010814	-1.86461	-3.26397	13.8461
 311	1	1	-0.019372	-0.725928	3.1033	14.1116
 312	1	2	0.00686	-0.937957	4.14756	13.849
 313	1	1	-0.084968	1.9219	1.0067	9.99612
 314	1	1	0.309483	3.15625	0.198841	9.55805
 315	1	2	-0.002	2.19284	2.0525	10.1834
 316	1	3	-0.436564	2.72658	-1.14925	9.30859
 317	1	1	0.15357	1.69865	-1.29348	8.30855
 318	1	4	-0.002836	1.28341	1.36581	7.97943
 319	1	3	-0.349559	0.566769	-0.453978	8.61647
 320	1	2	0.015925	-0.305175	2.75871	8.99942
 321	1	1	0.230077	0.851773	0.929996	8.8901
 322	1	2	0.052641	1.53992	0.582213	10.932
 323	1	4	-0.023623	3.54901	0.612982	8.62
 324	1	1	-0.072969	1.24703	-2.76802	8.27452
 325	1	2	0.031276	-0.497379	-4.94602	8.67326
 326	1	2	0.023309	1.06379	-5.33487	9.43514
 327	1	2	0.030094	-0.362699	-5.011	10.4436
 328	1	5	0.077888	2.10684	-1.00882	7.33014
 329	1	1	0.09092	0.514352	-3.22132	9.55818
 330	1	2	0.047821	0.590257	-2.91899	7.40916
 331	1	2	0.068339	2.12947	-3.39994	8.11671
 332	1	1	-0.129023	0.158881	-4.7206	9.52319
 333	1	2	-0.006475	1.1378	-3.02129	10.439
 334	1	2	-0.010814	-0.41082	-2.64449	9.67506
 335	1	1	-0.019372	-0.478247	1.68832	9.16761
 336	1	2	0.00686	-1.20064	1.39132	8.39656
 337	1	1	-0.084968	5.05787	2.60323	10.121
 338	1	1	0.309483	6.32246	3.40087	9.75193
 339	1	2	-0.002	4.29618	2.72061	9.34304
 340	1	3	-0.436564	7.28342	3.18936	10.8007
 341	1	1	0.15357	7.64187	1.81778	11.0665
 342	1	4	-0.002836	5.88119	0.779601	9.30102
 343	1	3	-0.349559	6.45224	1.0312	11.2818
 344	1	2	0.015925	4.67906	-0.838021	10.7172
 345	1	1	0.230077	5.45167	1.12033	10.2524
 346	1	2	0.052641	4.63697	2.97234	11.0647
 347	1	4	-0.023623	6.72551	3.01002	8.80849
 348	1	1	-0.072969	8.48932	1.76329	12.3551
 349	1	2	0.031276	9.87975	3.65309	10.618
 350	1	2	0.023309	9.82298	4.24932	12.2944
 351	1	2	0.030094	11.3564	3.68581	11.5966
 352	1	5	0.077888	8.20267	1.40169	10.2191
 353	1	1	0.09092	9.98919	2.0723	12.134
 354	1	2	0.047821	8.07369	2.45675	13.0972
 355	1	2	0.068339	8.40724	0.758809	12.7885
 356	1	1	-0.129023	10.2754	3.50254	11.6299
 357	1	2	-0.006475	10.5184	1.92528	13.0841
 358	1	2	-0.010814	10.4114	1.34772	11.426
 359	1	1	-0.019372	4.28194	0.181131	10.6227
 360	1	2	0.00686	3.88216	0.452364	11.6086
 361	1	1	-0.084968	4.9829	6.8156	8.25453
 362	1	1	0.309483	5.14456	6.93723	6.72444
 363	1	2	-0.002	4.05802	7.31639	8.56951
 364	1	3	-0.436564	4.07702	6.17945	6.1163
 365	1	1	0.15357	3.94438	4.80368	6.53744
 366	1	4	-0.002836	3.99486	5.16095	9.24079
 367	1	3	-0.349559	4.93643	4.47729	7.52662
 368	1	2	0.015925	7.04135	5.36125	9.21537
 369	1	1	0.230077	4.93041	5.32827	8.69146
 370	1	2	0.052641	5.80702	7.33985	8.75364
 371	1	4	-0.023623	6.11315	6.50421	6.44348
 372	1	1	-0.072969	4.15243	3.86518	5.33513
 373	1	2	0.031276	4.06417	2.76691	2.78823
 374	1	2	0.023309	2.81473	1.92308	3.72506
 375	1	2	0.030094	2.34411	3.0569	2.44135
 376	1	5	0.077888	2.9434	4.64958	6.96114
 377	1	1	0.09092	3.05331	4.02766	4.26342
 378	1	2	0.047821	5.1382	4.04579	4.8878
 379	1	2	0.068339	4.1504	2.83101	5.70101
 380	1	1	-0.129023	3.07198	2.87388	3.24162
 381	1	2	-0.006475	2.06682	4.0561	4.74402
 382	1	2	-0.010814	3.18574	4.98386	3.74097
 383	1	1	-0.019372	6.11263	4.92757	9.60825
 384	1	2	0.00686	5.95357	5.3714	10.5996
 385	1	1	-0.084968	5.37535	9.97743	4.22683
 386	1	1	0.309483	5.82817	10.0289	2.75365
 387	1	2	-0.002	4.37316	10.4131	4.32895
 388	1	3	-0.436564	7.10348	9.36525	2.67143
 389	1	1	0.15357	7.11422	7.99974	3.11402
 390	1	4	-0.002836	4.61678	7.94759	4.15333
 391	1	3	-0.349559	6.67254	7.96171	4.47924
 392	1	2	0.015925	5.79782	9.00406	6.78685
 393	1	1	0.230077	5.36733	8.51543	4.71864
 394	1	2	0.052641	6.05941	10.5739	4.84361
 395	1	4	-0.023623	5.09268	9.48992	2.1433
 396	1	1	-0.072969	8.56281	7.4789	3.04061
 397	1	2	0.031276	8.09749	4.9725	1.84905
 398	1	2	0.023309	8.0989	3.99571	3.33133
 399	1	2	0.030094	6.81414	5.1885	3.06486
 400	1	5	0.077888	6.45131	7.39314	2.48252
 401	1	1	0.09092	8.74732	6.05829	3.62567
 402	1	2	0.047821	8.88715	7.48158	1.99275
 403	1	2	0.068339	9.21904	8.17468	3.57769
 404	1	1	-0.129023	7.8839	4.99098	2.92331
 405	1	2	-0.006475	9.80342	5.7746	3.53436
 406	1	2	-0.010814	8.51796	6.06144	4.69887
 407	1	1	-0.019372	5.07177	8.39836	6.22933
 408	1	2	0.00686	4.07863	8.81342	6.44471
 409	1	1	-0.084968	7.66705	11.0832	0.29742
 410	1	1	0.309483	7.53528	9.76582	-0.483579
 411	1	2	-0.002	8.15275	11.8351	-0.338593
 412	1	3	-0.436564	6.74811	10.0896	-1.64146
 413	1	1	0.15357	5.40942	10.5617	-1.37375
 414	1	4	-0.002836	6.20624	12.6615	0.436777
 415	1	3	-0.349559	5.21986	10.8759	0.0241399
 416	1	2	0.015925	6.76613	11.9973	2.79643
 417	1	1	0.230077	6.26612	11.6012	0.713481
 418	1	2	0.052641	8.32153	10.9557	1.16711
 419	1	4	-0.023623	7.00716	9.02532	0.129479
 420	1	1	-0.072969	4.42137	9.42773	-1.71195
 421	1	2	0.031276	2.39225	8.30189	-3.30554
 422	1	2	0.023309	3.4434	7.69612	-4.6033
 423	1	2	0.030094	3.59393	7.03626	-2.96156
 424	1	5	0.077888	5.203	11.4472	-1.98867
 425	1	1	0.09092	4.45124	9.03374	-3.20478
 426	1	2	0.047821	4.65304	8.54985	-1.09548
 427	1	2	0.068339	3.40836	9.75029	-1.44207
 428	1	1	-0.129023	3.40579	7.95081	-3.53693
 429	1	2	-0.006475	4.25844	9.92077	-3.82175
 430	1	2	-0.010814	5.44776	8.66177	-3.47508
 431	1	1	-0.019372	5.97651	11.4834	2.23327
 432	1	2	0.00686	5.0477	12.0281	2.4457
 433	1	1	-0.084968	10.0676	7.14505	-2.0032
 434	1	1	0.309483	9.90522	5.62586	-1.76019
 435	1	2	-0.002	10.417	7.32901	-3.02754
 436	1	3	-0.436564	8.68627	5.20362	-2.40306
 437	1	1	0.15357	7.47965	5.84553	-1.93004
 438	1	4	-0.002836	8.3262	8.19217	-2.76181
 439	1	3	-0.349559	7.80106	7.01128	-1.14681
 440	1	2	0.015925	9.47321	8.93615	-0.0187602
 441	1	1	0.230077	8.73352	7.90267	-1.78413
 442	1	2	0.052641	10.8467	7.52916	-1.33385
 443	1	4	-0.023623	9.8236	5.44851	-0.67943
 444	1	1	-0.072969	6.71062	4.85172	-1.03994
 445	1	2	0.031276	4.33083	3.62931	-0.134887
 446	1	2	0.023309	5.32456	4.07883	1.2714
 447	1	2	0.030094	3.81299	4.95109	0.935279
 448	1	5	0.077888	6.85934	6.1366	-2.78816
 449	1	1	0.09092	5.4596	5.48423	-0.388491
 450	1	2	0.047821	6.40698	3.9936	-1.65218
 451	1	2	0.068339	7.38023	4.46581	-0.263972
 452	1	1	-0.129023	4.68459	4.47183	0.472366
 453	1	2	-0.006475	5.74938	6.33172	0.245843
 454	1	2	-0.010814	4.79673	5.87661	-1.16925
 455	1	1	-0.019372	8.89256	9.1746	-0.918829
 456	1	2	0.00686	9.46555	9.92553	-1.47785
 457	1	1	-0.084968	10.3238	2.45793	-3.05423
 458	1	1	0.309483	10.5319	0.940111	-2.8072
 459	1	2	-0.002	9.24937	2.6774	-3.07559
 460	1	3	-0.436564	11.9201	0.670227	-2.55328
 461	1	1	0.15357	12.5084	1.4477	-1.50269
 462	1	4	-0.002836	10.4858	3.1667	-1.00364
 463	1	3	-0.349559	12.359	2.84049	-1.81368
 464	1	2	0.015925	12.0105	5.22429	-1.84071
 465	1	1	0.230077	11.0092	3.30379	-1.95899
 466	1	2	0.052641	10.7223	2.75977	-4.02361
 467	1	4	-0.023623	9.96292	0.683514	-1.90404
 468	1	1	-0.072969	14.0126	1.13226	-1.42309
 469	1	2	0.031276	14.802	3.4409	0.0387523
 470	1	2	0.023309	13.2688	2.87941	0.744864
 471	1	2	0.030094	14.7715	2.69193	1.65239
 472	1	5	0.077888	12.0148	1.21069	-0.551148
 473	1	1	0.09092	14.5655	1.26333	0.0151165
 474	1	2	0.047821	14.1851	0.112701	-1.78417
 475	1	2	0.068339	14.5665	1.79742	-2.09726
 476	1	1	-0.129023	14.3376	2.65419	0.64658
 477	1	2	-0.006475	14.0988	0.501849	0.652773
 478	1	2	-0.010814	15.6407	1.04814	0.00534507
 479	1	1	-0.019372	11.0997	4.81297	-2.2961
 480	1	2	0.00686	11.2046	4.96105	-3.37881
 481	1	1	-0.084968	11.7045	1.01266	-5.71937
 482	1	1	0.309483	12.5662	0.629929	-6.93916
 483	1	2	-0.002	10.9834	1.78923	-5.9873
 484	1	3	-0.436564	13.4072	-0.468442	-6.54698
 485	1	1	0.15357	12.7104	-1.62785	-6.05583
 486	1	4	-0.002836	10.2841	-0.567483	-6.00218
 487	1	3	-0.349559	11.8896	-1.26344	-4.92602
 488	1	2	0.015925	9.06563	0.428033	-4.31066
 489	1	1	0.230077	10.9381	-0.215292	-5.19363
 490	1	2	0.052641	12.3634	1.41373	-4.94052
 491	1	4	-0.023623	11.9201	0.297395	-7.76208
 492	1	1	-0.072969	13.7579	-2.6666	-5.62099
 493	1	2	0.031276	14.7696	-4.80982	-4.15492
 494	1	2	0.023309	13.7	-6.07634	-4.79705
 495	1	2	0.030094	14.8732	-5.27581	-5.86474
 496	1	5	0.077888	12.0828	-2.04098	-6.85659
 497	1	1	0.09092	13.1258	-4.05396	-5.38486
 498	1	2	0.047821	14.5249	-2.74841	-6.40148
 499	1	2	0.068339	14.2598	-2.31767	-4.71067
 500	1	1	-0.129023	14.182	-5.11805	-5.02728
 501	1	2	-0.006475	12.3799	-3.98881	-4.58365
 502	1	2	-0.010814	12.5919	-4.37318	-6.28922
 503	1	1	-0.019372	10.0212	0.0228407	-3.95493
 504	1	2	0.00686	9.77445	-0.956138	-3.52425
 505	1	1	-0.084968	11.4174	3.1588	-8.24749
 506	1	1	0.309483	10.9685	4.12002	-9.35441
 507	1	2	-0.002	10.7202	2.31294	-8.20746
 508	1	3	-0.436564	11.9022	5.21222	-9.38709
 509	1	1	0.15357	13.2696	4.83175	-9.63749
 510	1	4	-0.002836	12.8335	2.0935	-9.47874
 511	1	3	-0.349559	13.6929	3.8223	-8.69757
 512	1	2	0.015925	14.4086	1.3701	-7.82218
 513	1	1	0.230077	12.8471	2.66582	-8.54208
 514	1	2	0.052641	11.391	3.67518	-7.27936
 515	1	4	-0.023623	10.9948	3.58967	-10.3151
 516	1	1	-0.072969	14.1689	6.0761	-9.47841
 517	1	2	0.031276	14.6908	8.70998	-8.59302
 518	1	2	0.023309	15.0775	8.29238	-6.90962
 519	1	2	0.030094	16.1038	7.69148	-8.22935
 520	1	5	0.077888	13.3561	4.43783	-10.6589
 521	1	1	0.09092	14.1866	6.65397	-8.0425
 522	1	2	0.047821	15.1915	5.81386	-9.77702
 523	1	2	0.068339	13.8262	6.84909	-10.1769
 524	1	1	-0.129023	15.0692	7.91389	-7.93938
 525	1	2	-0.006475	13.1662	6.90632	-7.72724
 526	1	2	-0.010814	14.5635	5.90059	-7.33914
 527	1	1	-0.019372	13.4732	1.78853	-7.42852
 528	1	2	0.00686	13.7564	2.42014	-6.57602
 529	1	1	-0.084968	9.42845	5.54559	-11.5467
 530	1	1	0.309483	8.93839	6.76669	-12.3408
 531	1	2	-0.002	10.5037	5.40396	-11.6977
 532	1	3	-0.436564	7.52032	6.86594	-12.1377
 533	1	1	0.15357	7.10093	7.00044	-10.7636
 534	1	4	-0.002836	9.64709	6.71965	-9.74642
 535	1	3	-0.349559	7.70549	5.98802	-9.93041
 536	1	2	0.015925	9.44357	5.0008	-8.07822
 537	1	1	0.230077	9.12783	5.80437	-10.0595
 538	1	2	0.052641	8.91844	4.63667	-11.89
 539	1	4	-0.023623	9.41239	7.66926	-11.9352
 540	1	1	-0.072969	5.56118	6.87768	-10.688
 541	1	2	0.031276	6.33152	4.54204	-12.2899
 542	1	2	0.023309	4.72446	3.8006	-12.2245
 543	1	2	0.030094	4.93335	5.38593	-12.9988
 544	1	5	0.077888	7.40666	7.99104	-10.4021
 545	1	1	0.09092	4.98681	5.44166	-10.8109
 546	1	2	0.047821	5.23365	7.29734	-9.72912
 547	1	2	0.068339	5.11702	7.51111	-11.4656
 548	1	1	-0.129023	5.26324	4.75423	-12.1646
 549	1	2	-0.006475	5.36892	4.81113	-9.99811
 550	1	2	-0.010814	3.89993	5.49518	-10.6689
 551	1	1	-0.019372	9.53731	4.65248	-9.11488
 552	1	2	0.00686	8.832	3.81914	-9.2314
 553	1	1	-0.084968	11.6208	7.60767	-13.4616
 554	1	1	0.309483	12.9087	7.93702	-14.2449
 555	1	2	-0.002	11.0644	8.541	-13.3064
 556	1	3	-0.436564	13.2359	6.81659	-15.0823
 557	1	1	0.15357	12.2591	6.52302	-16.1027
 558	1	4	-0.002836	11.0784	5.56016	-13.905
 559	1	3	-0.349559	10.9155	6.72504	-15.6081
 560	1	2	0.015925	8.82753	7.58959	-14.3386
 561	1	1	0.230077	10.7369	6.564	-14.1879
 562	1	2	0.052641	11.8766	7.22315	-12.4665
 563	1	4	-0.023623	12.7093	8.812	-14.8746
 564	1	1	-0.072969	12.4195	5.04576	-16.516
 565	1	2	0.031276	13.8293	2.62124	-16.787
 566	1	2	0.023309	13.1281	3.03896	-18.3687
 567	1	2	0.030094	14.8851	3.13138	-18.1214
 568	1	5	0.077888	12.4175	7.17405	-16.9725
 569	1	1	0.09092	13.7779	4.7686	-17.1974
 570	1	2	0.047821	12.315	4.40283	-15.6332
 571	1	2	0.068339	11.6081	4.78077	-17.205
 572	1	1	-0.129023	13.911	3.29983	-17.6455
 573	1	2	-0.006475	13.8914	5.42367	-18.0708
 574	1	2	-0.010814	14.5981	5.00601	-16.508
 575	1	1	-0.019372	9.22803	6.6876	-13.8581
 576	1	2	0.00686	8.69364	5.83188	-14.2907
 577	1	1	-0.084968	15.0636	10.2261	-14.5962
 578	1	1	0.309483	16.3681	10.8566	-15.1152
 579	1	2	-0.002	14.3334	10.1828	-15.4134
 580	1	3	-0.436564	17.3115	10.8336	-14.0286
 581	1	1	0.15357	17.6012	9.53058	-13.4934
 582	1	4	-0.002836	15.636	8.14496	-14.8521
 583	1	3	-0.349559	16.3822	8.89931	-13.0631
 584	1	2	0.015925	14.393	7.28894	-12.8048
 585	1	1	0.230077	15.3273	8.81253	-14.0372
 586	1	2	0.052641	14.6393	10.8615	-13.8082
 587	1	4	-0.023623	16.7454	10.2656	-15.9594
 588	1	1	-0.072969	18.5373	9.68046	-12.2764
 589	1	2	0.031276	18.4538	11.2071	-9.11798
 590	1	2	0.023309	19.0077	9.56114	-9.49033
 591	1	2	0.030094	19.8648	10.9625	-10.1716
 592	1	5	0.077888	18.0832	8.91429	-14.264
 593	1	1	0.09092	17.9476	10.5406	-11.133
 594	1	2	0.047821	18.7742	8.67998	-11.8937
 595	1	2	0.068339	19.4838	10.122	-12.611
 596	1	1	-0.129023	18.8765	10.5689	-9.90395
 597	1	2	-0.006475	17.7847	11.5678	-11.484
 598	1	2	-0.010814	16.9709	10.1454	-10.8262
 599	1	1	-0.019372	14.1018	8.22098	-13.307
 600	1	2	0.00686	13.7863	8.91674	-12.5182
 601	1	1	-0.084968	18.6254	13.0719	-15.6475
 602	1	1	0.309483	19.6611	13.7515	-16.5647
 603	1	2	-0.002	18.5238	13.6043	-14.6941
 604	1	3	-0.436564	19.7032	13.0108	-17.8023
 605	1	1	0.15357	18.4522	12.773	-18.4866
 606	1	4	-0.002836	16.9353	13.9884	-16.6291
 607	1	3	-0.349559	17.4719	12.2284	-17.5805
 608	1	2	0.015925	15.9379	12.9281	-14.6603
 609	1	1	0.230077	17.2692	12.9765	-16.3691
 610	1	2	0.052641	18.9963	12.0678	-15.4134
 611	1	4	-0.023623	20.6422	13.6713	-16.0802
 612	1	1	-0.072969	18.6923	11.7388	-19.604
 613	1	2	0.031276	19.2329	14.3441	-20.7449
 614	1	2	0.023309	19.972	13.7154	-22.2278
 615	1	2	0.030094	18.2706	13.3537	-21.8696
 616	1	5	0.077888	18.0706	13.7107	-18.9094
 617	1	1	0.09092	19.7032	12.2028	-20.6791
 618	1	2	0.047821	19.0531	10.8056	-19.1536
 619	1	2	0.068339	17.735	11.5058	-20.0859
 620	1	1	-0.129023	19.2644	13.4822	-21.4227
 621	1	2	-0.006475	20.6874	12.3673	-20.2223
 622	1	2	-0.010814	19.8308	11.3958	-21.4117
 623	1	1	-0.019372	16.1322	12.3218	-15.5511
 624	1	2	0.00686	15.2171	12.3704	-16.1554
 625	1	1	-0.084968	19.7788	17.5508	-15.7615
 626	1	1	0.309483	19.6291	18.2984	-14.4198
 627	1	2	-0.002	20.8079	17.5973	-16.1308
 628	1	3	-0.436564	18.2233	18.2493	-14.0926
 629	1	1	0.15357	17.5989	16.9449	-14.0288
 630	1	4	-0.002836	19.8925	15.6161	-14.8006
 631	1	3	-0.349559	17.9124	16.1651	-15.2035
 632	1	2	0.015925	18.5226	15.3973	-17.4915
 633	1	1	0.230077	19.3013	16.0996	-15.5871
 634	1	2	0.052641	19.161	18.0487	-16.5194
 635	1	4	-0.023623	19.9223	19.3448	-14.5694
 636	1	1	-0.072969	16.0747	17.1628	-13.956
 637	1	2	0.031276	16.6126	14.5697	-12.7739
 638	1	2	0.023309	15.4835	15.5045	-11.7608
 639	1	2	0.030094	14.9095	14.0929	-12.6694
 640	1	5	0.077888	17.9441	16.4131	-13.1348
 641	1	1	0.09092	15.2474	15.8572	-13.9084
 642	1	2	0.047821	15.8458	17.7644	-13.0676
 643	1	2	0.068339	15.7599	17.7542	-14.8247
 644	1	1	-0.129023	15.5878	14.9544	-12.7037
 645	1	2	-0.006475	14.1828	16.119	-13.8622
 646	1	2	-0.010814	15.3876	15.2947	-14.8395
 647	1	1	-0.019372	19.4174	15.2534	-16.8738
 648	1	2	0.00686	20.2626	15.6138	-17.4729
 649	1	1	-0.084968	22.5756	17.202	-11.9774
 650	1	1	0.309483	23.0064	15.7297	-12.1249
 651	1	2	-0.002	23.4491	17.8172	-11.7236
 652	1	3	-0.436564	24.0361	15.7253	-13.1285
 653	1	1	0.15357	23.6639	16.2846	-14.4087
 654	1	4	-0.002836	22.3324	18.7186	-13.5182
 655	1	3	-0.349559	22.3164	16.8065	-14.3773
 656	1	2	0.015925	20.0713	16.7344	-12.9352
 657	1	1	0.230077	21.9578	17.7095	-13.305
 658	1	2	0.052641	21.8686	17.3105	-11.1461
 659	1	4	-0.023623	22.1604	15.1304	-12.4884
 660	1	1	-0.072969	23.708	15.1434	-15.4439
 661	1	2	0.031276	24.4515	13.9408	-17.8843
 662	1	2	0.023309	22.69	13.7771	-17.6923
 663	1	2	0.030094	23.3515	14.87	-18.9254
 664	1	5	0.077888	24.3723	17.0783	-14.68
 665	1	1	0.09092	23.5032	15.643	-16.8907
 666	1	2	0.047821	24.6762	14.6322	-15.3728