pySIMM System Object

602 atoms
626 bonds
1250 angles
1866 dihedrals
0 impropers

5 atom types
5 bond types
11 angle types
8 dihedral types

-112.325055 112.325055 xlo xhi
-112.325055 112.325055 ylo yhi
-112.325055 112.325055 zlo zhi

Masses

   1	12.01	# c3
   2	1.008	# hc
   3	16.0	# os
   4	1.008	# h1
   5	1.008	# h2

Pair Coeffs

   1	0.1094	3.3996695084235347	# c3
   2	0.0157	2.649532787749369	# hc
   3	0.17	3.0000123434657784	# os
   4	0.0157	2.471353044121301	# h1
   5	0.0157	2.2931733004932333	# h2

Bond Coeffs

   1	330.6	1.0969	# c3,h1
   2	308.6	1.4316	# c3,os
   3	330.6	1.0969	# c3,hc
   4	300.9	1.5375	# c3,c3
   5	331.7	1.0961	# c3,h2

Angle Coeffs

   1	62.7	112.48	# c3,os,c3
   2	50.85	109.58	# h2,c3,os
   3	68.0	107.97	# c3,c3,os
   4	72.74	108.29	# os,c3,os
   5	46.34	109.8	# c3,c3,hc
   6	46.25	110.22	# c3,c3,h2
   7	50.8	109.78	# h1,c3,os
   8	46.39	109.56	# c3,c3,h1
   9	39.4	107.58	# hc,c3,hc
  10	39.24	108.46	# h1,c3,h1
  11	62.86	111.51	# c3,c3,c3

Dihedral Coeffs

   1	3	0.18	3	0	0.25	2	180	0.2	1	180	# c3,c3,c3,c3
   2	2	0.0	3	0	0.25	1	0	# hc,c3,c3,os
   3	1	0.3833333333333333	3	0	# X,c3,os,X
   4	1	0.15	3	0	# hc,c3,c3,hc
   5	2	0.383	3	0	0.1	2	180	# c3,c3,os,c3
   6	1	0.16	3	0	# hc,c3,c3,c3
   7	3	0.1	3	0	0.85	2	180	1.35	1	180	# c3,os,c3,os
   8	1	0.15555555555555556	3	0	# X,c3,c3,X

Atoms

   1	1	1	-0.084968	7.84378	-31.9852	14.3541
   2	1	1	0.309483	8.25935	-32.5894	15.7107
   3	1	2	-0.002	7.06386	-31.2262	14.4939
   4	1	3	-0.436564	9.34538	-33.5041	15.4746
   5	1	1	0.15357	10.5001	-32.9559	14.8132
   6	1	4	-0.002836	9.42908	-30.5091	14.3052
   7	1	3	-0.349559	10.101	-32.3372	13.5755
   8	1	2	0.015925	9.66441	-30.3933	11.809
   9	1	1	0.230077	9.07093	-31.3408	13.6846
  10	1	2	0.052641	7.43349	-32.7707	13.7069
  11	1	4	-0.023623	8.60396	-31.7848	16.373
  12	1	1	-0.072969	11.4599	-34.1214	14.5014
  13	1	2	0.031276	13.1192	-31.7799	14.8378
  14	1	2	0.023309	13.8604	-33.1837	15.6445
  15	1	2	0.030094	14.5826	-32.5193	14.1645
  16	1	5	0.077888	10.9828	-32.217	15.4659
  17	1	1	0.09092	12.7747	-33.6878	13.8116
  18	1	2	0.047821	11.6988	-34.647	15.4343
  19	1	2	0.068339	10.9404	-34.843	13.8588
  20	1	1	-0.129023	13.6328	-32.7343	14.6697
  21	1	2	-0.006475	13.3648	-34.5852	13.5865
  22	1	2	-0.010814	12.5533	-33.2111	12.8483
  23	1	1	-0.019372	8.76194	-30.8152	12.2687
  24	1	2	0.00686	8.3907	-31.6206	11.6222
  25	1	1	-0.084968	4.81536	-33.3433	17.4987
  26	1	1	0.309483	3.62927	-32.4193	17.8295
  27	1	2	-0.002	4.47049	-34.2049	16.9126
  28	1	3	-0.436564	4.15253	-31.2865	18.5493
  29	1	1	0.15357	5.16232	-30.5278	17.8562
  30	1	4	-0.002836	5.4208	-32.2313	15.7518
  31	1	3	-0.349559	6.24214	-31.3974	17.4711
  32	1	2	0.015925	7.52631	-33.7903	17.356
  33	1	1	0.230077	5.86846	-32.5532	16.7005
  34	1	2	0.052641	5.2578	-33.7283	18.4263
  35	1	4	-0.023623	3.18301	-32.0801	16.8862
  36	1	1	-0.072969	5.73507	-29.4566	18.8037
  37	1	2	0.031276	6.05984	-26.7353	19.5134
  38	1	2	0.023309	4.49866	-26.5511	20.3404
  39	1	2	0.030094	5.71569	-27.6697	20.9889
  40	1	5	0.077888	4.72929	-30.057	16.9635
  41	1	1	0.09092	4.68076	-28.4056	19.2093
  42	1	2	0.047821	6.13904	-29.9414	19.7016
  43	1	2	0.068339	6.57333	-28.9558	18.3039
  44	1	1	-0.129023	5.27768	-27.2719	20.0648
  45	1	2	-0.006475	4.22311	-27.9752	18.3093
  46	1	2	-0.010814	3.88292	-28.8937	19.7788
  47	1	1	-0.019372	7.13592	-33.3881	16.4122
  48	1	2	0.00686	6.86142	-34.251	15.7914
  49	1	1	-0.084968	1.42666	-31.1979	19.9999
  50	1	1	0.309483	1.08982	-29.8165	19.4102
  51	1	2	-0.002	0.755501	-31.4088	20.8428
  52	1	3	-0.436564	-0.20817	-29.9399	18.8012
  53	1	1	0.15357	-0.312609	-30.8876	17.7171
  54	1	4	-0.002836	0.493451	-33.0078	19.3037
  55	1	3	-0.349559	0.830613	-31.7651	17.6779
  56	1	2	0.015925	2.98941	-33.4509	19.6436
  57	1	1	0.230077	1.26574	-32.318	18.9396
  58	1	2	0.052641	2.44053	-31.1867	20.4159
  59	1	4	-0.023623	1.83865	-29.5584	18.65
  60	1	1	-0.072969	-0.337563	-30.1067	16.3886
  61	1	2	0.031276	-1.49601	-29.1656	14.0036
  62	1	2	0.023309	-2.60725	-27.9947	14.746
  63	1	2	0.030094	-0.851901	-27.7681	14.8982
  64	1	5	0.077888	-1.23056	-31.479	17.8309
  65	1	1	0.09092	-1.66394	-29.3449	16.1771
  66	1	2	0.047821	0.503024	-29.4015	16.367
  67	1	2	0.068339	-0.189239	-30.8072	15.5574
  68	1	1	-0.129023	-1.65219	-28.5187	14.876
  69	1	2	-0.006475	-2.49521	-30.0608	16.1438
  70	1	2	-0.010814	-1.85462	-28.6743	17.0234
  71	1	1	-0.019372	2.55493	-33.14	18.6848
  72	1	2	0.00686	2.26652	-34.0648	18.1688
  73	1	1	-0.084968	-0.128067	-26.7679	19.2175
  74	1	1	0.309483	0.040325	-25.3091	18.7458
  75	1	2	-0.002	-0.413191	-27.3935	18.3654
  76	1	3	-0.436564	0.573049	-24.5291	19.8371
  77	1	1	0.15357	1.74576	-25.0273	20.5105
  78	1	4	-0.002836	1.9715	-27.3058	19.1174
  79	1	3	-0.349559	1.53385	-26.3887	20.918
  80	1	2	0.015925	1.89409	-28.8531	21.1688
  81	1	1	0.230077	1.16911	-27.2941	19.8646
  82	1	2	0.052641	-0.947498	-26.8187	19.9451
  83	1	4	-0.023623	-0.952993	-24.9185	18.4922
  84	1	1	-0.072969	1.97388	-24.1612	21.7622
  85	1	2	0.031276	3.56007	-22.5456	23.4368
  86	1	2	0.023309	2.73423	-23.7545	24.4484
  87	1	2	0.030094	4.48892	-23.8591	24.191
  88	1	5	0.077888	2.61603	-24.9706	19.8452
  89	1	1	0.09092	3.30539	-24.4915	22.4706
  90	1	2	0.047821	1.9711	-23.1035	21.4701
  91	1	2	0.068339	1.13683	-24.3053	22.4569
  92	1	1	-0.129023	3.53451	-23.6075	23.7121
  93	1	2	-0.006475	3.31641	-25.546	22.7747
  94	1	2	-0.010814	4.13778	-24.3494	21.7694
  95	1	1	-0.019372	1.05086	-28.7054	20.4818
  96	1	2	0.00686	0.138082	-28.7877	21.0863
  97	1	1	-0.084968	2.04336	-22.8355	17.7485
  98	1	1	0.309483	2.74515	-21.8148	16.8286
  99	1	2	-0.002	1.51518	-22.3181	18.5596
 100	1	3	-0.436564	1.80723	-21.416	15.8132
 101	1	1	0.15357	1.4124	-22.472	14.9111
 102	1	4	-0.002836	0.0389512	-23.2522	17.0183
 103	1	3	-0.349559	1.43684	-23.7525	15.5823
 104	1	2	0.015925	0.487968	-25.7892	16.691
 105	1	1	0.230077	1.03314	-23.7156	16.9667
 106	1	2	0.052641	2.81521	-23.4563	18.2162
 107	1	4	-0.023623	3.6011	-22.3119	16.355
 108	1	1	-0.072969	2.40933	-22.5341	13.7329
 109	1	2	0.031276	3.15218	-22.0489	11.0507
 110	1	2	0.023309	3.53978	-20.3259	11.2473
 111	1	2	0.030094	4.49105	-21.5525	12.1114
 112	1	5	0.077888	0.401146	-22.2644	14.5378
 113	1	1	0.09092	2.50721	-21.1991	12.9599
 114	1	2	0.047821	3.40288	-22.8158	14.1033
 115	1	2	0.068339	2.09099	-23.3276	13.046
 116	1	1	-0.129023	3.48247	-21.2889	11.7699
 117	1	2	-0.006475	1.51334	-20.9138	12.592
 118	1	2	-0.010814	2.84444	-20.3989	13.6305
 119	1	1	-0.019372	0.931414	-25.1715	17.4828
 120	1	2	0.00686	1.93517	-25.5767	17.6598
 121	1	1	-0.084968	4.55253	-18.3746	17.4113
 122	1	1	0.309483	5.27866	-17.4075	16.4564
 123	1	2	-0.002	3.79458	-17.8356	17.9942
 124	1	3	-0.436564	6.17318	-18.1698	15.6176
 125	1	1	0.15357	5.64916	-19.3375	14.9482
 126	1	4	-0.002836	3.13944	-19.1378	15.9544
 127	1	3	-0.349559	4.9401	-20.178	15.8756
 128	1	2	0.015925	3.98428	-20.8832	18.3379
 129	1	1	0.230077	3.90399	-19.5335	16.6349
 130	1	2	0.052641	5.28077	-18.7761	18.1271
 131	1	4	-0.023623	5.87168	-16.7208	17.0728
 132	1	1	-0.072969	6.82118	-20.1297	14.3236
 133	1	2	0.031276	8.98145	-20.9117	17.0158
 134	1	2	0.023309	8.94908	-19.4263	16.0414
 135	1	2	0.030094	7.59543	-19.8146	17.131
 136	1	5	0.077888	4.96393	-19.0182	14.1526
 137	1	1	0.09092	7.63955	-21.0159	15.2989
 138	1	2	0.047821	6.41589	-20.7738	13.5344
 139	1	2	0.068339	7.4978	-19.4255	13.8242
 140	1	1	-0.129023	8.33195	-20.2413	16.4397
 141	1	2	-0.006475	6.99703	-21.7958	15.7272
 142	1	2	-0.010814	8.41046	-21.5408	14.7204
 143	1	1	-0.019372	3.25499	-20.5684	17.5804
 144	1	2	0.00686	2.42296	-20.0943	18.117
 145	1	1	-0.084968	5.79385	-15.5643	13.6704
 146	1	1	0.309483	4.83993	-15.686	12.4724
 147	1	2	-0.002	6.48448	-14.7271	13.5037
 148	1	3	-0.436564	4.0889	-14.4648	12.4123
 149	1	1	0.15357	3.30008	-14.0998	13.5596
 150	1	4	-0.002836	5.73102	-14.9562	15.7271
 151	1	3	-0.349559	4.03857	-14.2608	14.7961
 152	1	2	0.015925	3.49733	-16.213	16.2276
 153	1	1	0.230077	5.01419	-15.3159	14.9784
 154	1	2	0.052641	6.41235	-16.4642	13.7526
 155	1	4	-0.023623	4.16399	-16.5378	12.6167
 156	1	1	-0.072969	1.99691	-14.938	13.5523
 157	1	2	0.031276	0.155156	-13.8788	16.3749
 158	1	2	0.023309	1.22583	-15.2886	16.2574
 159	1	2	0.030094	1.89587	-13.6414	16.1513
 160	1	5	0.077888	3.02434	-13.0424	13.4555
 161	1	1	0.09092	0.834699	-14.2968	14.3463
 162	1	2	0.047821	1.66728	-15.047	12.5112
 163	1	2	0.068339	2.17651	-15.9517	13.9204
 164	1	1	-0.129023	1.04638	-14.2768	15.8741
 165	1	2	-0.006475	0.66399	-13.2738	13.9872
 166	1	2	-0.010814	-0.0832114	-14.8591	14.1326
 167	1	1	-0.019372	4.3159	-16.56	15.5853
 168	1	2	0.00686	3.85889	-17.1761	14.8034
 169	1	1	-0.084968	4.13473	-14.5509	9.45058
 170	1	1	0.309483	4.18574	-14.3721	7.92035
 171	1	2	-0.002	3.10106	-14.4504	9.80673
 172	1	3	-0.436564	3.81842	-15.632	7.33271
 173	1	1	0.15357	4.74227	-16.7123	7.5793
 174	1	4	-0.002836	3.8444	-16.6048	10.1048
 175	1	3	-0.349559	5.45871	-16.5034	8.81627
 176	1	2	0.015925	6.16912	-16.8157	11.2062
 177	1	1	0.230077	4.6874	-15.9334	9.89473
 178	1	2	0.052641	4.7078	-13.7378	9.9123
 179	1	4	-0.023623	5.2144	-14.1179	7.63457
 180	1	1	-0.072969	5.78217	-16.7538	6.43939
 181	1	2	0.031276	6.87796	-17.8254	4.0704
 182	1	2	0.023309	5.70552	-17.1041	2.94661
 183	1	2	0.030094	6.78172	-16.0571	3.89406
 184	1	5	0.077888	4.18764	-17.6587	7.62025
 185	1	1	0.09092	5.13813	-16.9259	5.04499
 186	1	2	0.047821	6.37992	-15.8345	6.45656
 187	1	2	0.068339	6.4735	-17.5849	6.62405
 188	1	1	-0.129023	6.19227	-16.9819	3.9222
 189	1	2	-0.006475	4.54131	-17.8469	5.02748
 190	1	2	-0.010814	4.45302	-16.0938	4.84056
 191	1	1	-0.019372	5.60494	-15.8763	11.1416
 192	1	2	0.00686	6.34788	-15.0773	11.018
 193	1	1	-0.084968	2.43241	-11.9859	5.30937
 194	1	1	0.309483	3.09258	-11.085	4.23773
 195	1	2	-0.002	1.57538	-12.5228	4.8823
 196	1	3	-0.436564	4.04751	-11.8841	3.51245
 197	1	1	0.15357	5.14267	-12.4085	4.29504
 198	1	4	-0.002836	3.31177	-13.9632	5.34305
 199	1	3	-0.349559	4.76463	-12.5205	5.68178
 200	1	2	0.015925	3.40555	-12.3461	7.9539
 201	1	1	0.230077	3.43018	-13.0183	5.88913
 202	1	2	0.052641	2.03669	-11.3465	6.10774
 203	1	4	-0.023623	3.61823	-10.2682	4.74933
 204	1	1	-0.072969	6.33712	-11.4362	4.1753
 205	1	2	0.031276	8.35235	-13.3775	3.83769
 206	1	2	0.023309	8.97822	-13.3635	5.50074
 207	1	2	0.030094	7.34006	-13.9586	5.1823
 208	1	5	0.077888	5.42038	-13.3971	3.90635
 209	1	1	0.09092	7.53489	-11.78	5.09288
 210	1	2	0.047821	6.67677	-11.4276	3.13219
 211	1	2	0.068339	6.00126	-10.4174	4.4022
 212	1	1	-0.129023	8.08217	-13.2076	4.88728
 213	1	2	-0.006475	8.34086	-11.0602	4.90139
 214	1	2	-0.010814	7.24779	-11.6508	6.1442
 215	1	1	-0.019372	3.23078	-13.2769	7.39913
 216	1	2	0.00686	2.19118	-13.5738	7.58966
 217	1	1	-0.084968	3.54731	-9.76992	1.23567
 218	1	1	0.309483	3.96044	-8.57234	0.35464
 219	1	2	-0.002	4.44766	-10.2733	1.60551
 220	1	3	-0.436564	2.76848	-7.84556	-0.0164976
 221	1	1	0.15357	1.85838	-7.46289	1.0357
 222	1	4	-0.002836	3.20918	-8.63771	3.06133
 223	1	3	-0.349559	1.53371	-8.60985	1.84084
 224	1	2	0.015925	1.22997	-10.0752	3.8456
 225	1	1	0.230077	2.64937	-9.3172	2.40578
 226	1	2	0.052641	3.00429	-10.4968	0.619074
 227	1	4	-0.023623	4.43192	-8.97216	-0.551762
 228	1	1	-0.072969	0.568589	-6.92944	0.379672
 229	1	2	0.031276	-1.05678	-5.45763	3.15108
 230	1	2	0.023309	0.601269	-6.08246	3.14456
 231	1	2	0.030094	0.162072	-4.70548	2.10726
 232	1	5	0.077888	2.31119	-6.68512	1.66341
 233	1	1	0.09092	-0.57809	-6.63358	1.37758
 234	1	2	0.047821	0.808357	-6.016	-0.177741
 235	1	2	0.068339	0.216721	-7.66153	-0.357757
 236	1	1	-0.129023	-0.189071	-5.66073	2.51143
 237	1	2	-0.006475	-1.42574	-6.21074	0.823518
 238	1	2	-0.010814	-0.935202	-7.57267	1.81899
 239	1	1	-0.019372	2.06788	-10.4719	3.25749
 240	1	2	0.00686	1.65173	-11.253	2.60777
 241	1	1	-0.084968	4.9833	-5.75881	-0.780052
 242	1	1	0.309483	5.95536	-4.9275	-1.64174
 243	1	2	-0.002	4.27096	-6.27564	-1.43401
 244	1	3	-0.436564	6.89766	-4.28658	-0.764482
 245	1	1	0.15357	7.64907	-5.16319	0.0958987
 246	1	4	-0.002836	6.33214	-7.44592	-0.639106
 247	1	3	-0.349559	6.7603	-6.03296	0.823029
 248	1	2	0.015925	5.68604	-8.23173	1.61936
 249	1	1	0.230077	5.79998	-6.77254	0.0454667
 250	1	2	0.052641	4.41423	-5.11721	-0.0984656
 251	1	4	-0.023623	6.50038	-5.61963	-2.29686
 252	1	1	-0.072969	8.41008	-4.307	1.12544
 253	1	2	0.031276	9.59499	-1.94266	2.09406
 254	1	2	0.023309	10.7791	-3.26347	2.23496
 255	1	2	0.030094	11.0261	-1.97039	1.04178
 256	1	5	0.077888	8.34854	-5.76411	-0.500156
 257	1	1	0.09092	9.48632	-3.40992	0.476248
 258	1	2	0.047821	7.69394	-3.68397	1.67633
 259	1	2	0.068339	8.8855	-4.97202	1.85678
 260	1	1	-0.129023	10.2686	-2.59794	1.52743
 261	1	2	-0.006475	10.1879	-4.03203	-0.0942063
 262	1	2	-0.010814	9.01809	-2.71695	-0.234344
 263	1	1	-0.019372	4.97751	-7.62328	1.04275
 264	1	2	0.00686	4.47849	-6.96957	1.76834
 265	1	1	-0.084968	4.30061	-1.49779	-2.72197
 266	1	1	0.309483	3.55525	-0.411404	-1.91878
 267	1	2	-0.002	5.21885	-1.07921	-3.15358
 268	1	3	-0.436564	2.40707	-1.00973	-1.29014
 269	1	1	0.15357	2.66258	-2.16149	-0.468871
 270	1	4	-0.002836	5.3079	-2.31785	-0.994775
 271	1	3	-0.349559	3.40169	-3.13582	-1.22177
 272	1	2	0.015925	4.56369	-4.32797	-3.20432
 273	1	1	0.230077	4.63987	-2.67591	-1.78853
 274	1	2	0.052641	3.68016	-1.8587	-3.55083
 275	1	4	-0.023623	4.22736	-0.026908	-1.14077
 276	1	1	-0.072969	1.31597	-2.79993	-0.0816199
 277	1	2	0.031276	1.91204	-0.86314	1.9719
 278	1	2	0.023309	0.288939	-0.87085	2.68379
 279	1	2	0.030094	1.26698	-2.35307	2.7029
 280	1	5	0.077888	3.23326	-1.87318	0.423474
 281	1	1	0.09092	0.397512	-1.87569	0.751118
 282	1	2	0.047821	0.787647	-3.09924	-0.995635
 283	1	2	0.068339	1.51595	-3.71818	0.481259
 284	1	1	-0.129023	1.00735	-1.46806	2.10869
 285	1	2	-0.006475	0.152983	-0.973666	0.17581
 286	1	2	-0.010814	-0.551638	-2.39547	0.933099
 287	1	1	-0.019372	5.30173	-3.85208	-2.54574
 288	1	2	0.00686	6.08225	-3.45037	-3.20468
 289	1	1	-0.084968	0.893813	1.3306	-4.05429
 290	1	1	0.309483	0.0395135	0.853809	-5.23993
 291	1	2	-0.002	0.291118	1.34859	-3.13701
 292	1	3	-0.436564	0.891565	0.86023	-6.39797
 293	1	1	0.15357	2.03024	-0.0161488	-6.30378
 294	1	4	-0.002836	1.66687	-0.637234	-3.68137
 295	1	3	-0.349559	2.80264	0.328552	-5.13531
 296	1	2	0.015925	3.90611	1.32271	-3.18522
 297	1	1	0.230077	2.07576	0.359592	-3.89041
 298	1	2	0.052641	1.26079	2.3486	-4.23654
 299	1	4	-0.023623	-0.297619	-0.170926	-5.03609
 300	1	1	-0.072969	2.88511	0.184475	-7.57135
 301	1	2	0.031276	5.73786	-1.85696	-7.14397
 302	1	2	0.023309	5.55505	-0.141745	-6.72123
 303	1	2	0.030094	4.63738	-1.38637	-5.8397
 304	1	5	0.077888	1.6854	-1.05651	-6.23563
 305	1	1	0.09092	3.8746	-0.970987	-7.8535
 306	1	2	0.047821	2.2111	0.27249	-8.433
 307	1	2	0.068339	3.42834	1.13484	-7.50128
 308	1	1	-0.129023	5.01824	-1.09317	-6.82446
 309	1	2	-0.006475	3.32651	-1.92064	-7.90434
 310	1	2	-0.010814	4.31776	-0.813241	-8.84499
 311	1	1	-0.019372	3.05037	0.780692	-2.76225
 312	1	2	0.00686	2.55075	1.48551	-2.08482
 313	1	1	-0.084968	-1.70431	2.02981	-7.99244
 314	1	1	0.309483	-2.6662	1.5254	-9.0808
 315	1	2	-0.002	-1.78476	3.11756	-7.8759
 316	1	3	-0.436564	-2.45447	0.109385	-9.20006
 317	1	1	0.15357	-2.716	-0.650976	-8.00212
 318	1	4	-0.002836	-3.12433	1.6275	-6.4377
 319	1	3	-0.349559	-2.03537	-0.0898957	-6.85936
 320	1	2	0.015925	-0.881805	2.79741	-5.59143
 321	1	1	0.230077	-2.09142	1.33919	-6.67265
 322	1	2	0.052641	-0.668524	1.79666	-8.2675
 323	1	4	-0.023623	-3.70041	1.69661	-8.75503
 324	1	1	-0.072969	-2.20777	-2.09295	-8.21201
 325	1	2	0.031276	-0.467382	-4.25865	-7.72648
 326	1	2	0.023309	-0.667659	-4.08646	-9.48665
 327	1	2	0.030094	0.884613	-3.68015	-8.7228
 328	1	5	0.077888	-3.79708	-0.656885	-7.81139
 329	1	1	0.09092	-0.673689	-2.18829	-8.39912
 330	1	2	0.047821	-2.50751	-2.70157	-7.35002
 331	1	2	0.068339	-2.70877	-2.51896	-9.08975
 332	1	1	-0.129023	-0.204538	-3.64325	-8.59616
 333	1	2	-0.006475	-0.363132	-1.59127	-9.26591
 334	1	2	-0.010814	-0.162333	-1.77311	-7.52242
 335	1	1	-0.019372	-1.19764	1.75274	-5.4751
 336	1	2	0.00686	-1.81468	1.72391	-4.56805
 337	1	1	-0.084968	-2.94946	4.28993	-11.8696
 338	1	1	0.309483	-3.26432	5.79988	-11.7873
 339	1	2	-0.002	-2.08289	4.12208	-12.5219
 340	1	3	-0.436564	-4.31546	5.97886	-10.8221
 341	1	1	0.15357	-4.10624	5.43144	-9.51267
 342	1	4	-0.002836	-1.76868	4.19147	-10.0535
 343	1	3	-0.349559	-3.79142	4.0353	-9.62392
 344	1	2	0.015925	-3.18359	1.72276	-11.167
 345	1	1	0.230077	-2.66913	3.71648	-10.4643
 346	1	2	0.052641	-3.80332	3.76469	-12.3162
 347	1	4	-0.023623	-2.36336	6.3382	-11.4657
 348	1	1	-0.072969	-5.41008	5.58665	-8.70388
 349	1	2	0.031276	-7.84543	4.74978	-7.55217
 350	1	2	0.023309	-8.1428	6.23355	-8.49033
 351	1	2	0.030094	-8.78196	4.67765	-9.06099
 352	1	5	0.077888	-3.28396	5.96069	-9.01334
 353	1	1	0.09092	-6.63629	4.915	-9.36733
 354	1	2	0.047821	-5.26066	5.16783	-7.70115
 355	1	2	0.068339	-5.61188	6.65513	-8.57164
 356	1	1	-0.129023	-7.92966	5.15973	-8.56627
 357	1	2	-0.006475	-6.77609	5.30335	-10.384
 358	1	2	-0.010814	-6.46799	3.83411	-9.45555
 359	1	1	-0.019372	-2.46905	2.179	-10.47
 360	1	2	0.00686	-1.46608	1.9473	-10.8511
 361	1	1	-0.084968	-4.3567	8.43933	-14.5622
 362	1	1	0.309483	-5.27492	9.67066	-14.3691
 363	1	2	-0.002	-3.50928	8.69187	-15.2126
 364	1	3	-0.436564	-4.70173	10.4827	-13.3252
 365	1	1	0.15357	-4.6688	9.85419	-12.0255
 366	1	4	-0.002836	-2.79578	8.30282	-13.0594
 367	1	3	-0.349559	-4.65362	8.41904	-12.1591
 368	1	2	0.015925	-4.75158	5.95181	-13.3648
 369	1	1	0.230077	-3.81125	7.91235	-13.2077
 370	1	2	0.052641	-4.92727	7.65736	-15.0776
 371	1	4	-0.023623	-6.26355	9.31719	-14.049
 372	1	1	-0.072969	-5.93896	10.2645	-11.2471
 373	1	2	0.031276	-4.06722	9.06723	-9.38629
 374	1	2	0.023309	-4.68101	10.6126	-8.74704
 375	1	2	0.030094	-5.18407	9.07675	-8.01054
 376	1	5	0.077888	-3.77269	10.1862	-11.4859
 377	1	1	0.09092	-6.15002	9.49161	-9.92254
 378	1	2	0.047821	-5.88462	11.3384	-11.0314
 379	1	2	0.068339	-6.82025	10.1188	-11.8837
 380	1	1	-0.129023	-4.94511	9.5696	-8.96081
 381	1	2	-0.006475	-7.03507	9.89736	-9.41642
 382	1	2	-0.010814	-6.37426	8.43945	-10.1388
 383	1	1	-0.019372	-3.75808	6.36415	-13.1443
 384	1	2	0.00686	-3.09029	6.011	-13.9405
 385	1	1	-0.084968	-6.55785	12.5706	-16.7111
 386	1	1	0.309483	-7.49474	13.7629	-16.4319
 387	1	2	-0.002	-5.6049	12.9305	-17.1203
 388	1	3	-0.436564	-8.68736	13.2628	-15.8028
 389	1	1	0.15357	-8.48337	12.4911	-14.6053
 390	1	4	-0.002836	-5.79298	12.4365	-14.6939
 391	1	3	-0.349559	-7.58563	11.3985	-14.8761
 392	1	2	0.015925	-5.9192	9.89776	-16.4245
 393	1	1	0.230077	-6.30632	11.7833	-15.4115
 394	1	2	0.052641	-7.01229	11.912	-17.4622
 395	1	4	-0.023623	-6.98888	14.4596	-15.7507
 396	1	1	-0.072969	-9.83933	11.9358	-14.1243
 397	1	2	0.031276	-12.3689	9.83439	-15.3463
 398	1	2	0.023309	-11.7105	9.87679	-13.6969
 399	1	2	0.030094	-12.5673	11.2927	-14.3509
 400	1	5	0.077888	-8.05042	13.1322	-13.8262
 401	1	1	0.09092	-10.5492	11.0244	-15.1525
 402	1	2	0.047821	-9.68014	11.3793	-13.1925
 403	1	2	0.068339	-10.4945	12.7807	-13.8796
 404	1	1	-0.129023	-11.8803	10.4745	-14.6014
 405	1	2	-0.006475	-10.749	11.5842	-16.075
 406	1	2	-0.010814	-9.8996	10.1814	-15.4195
 407	1	1	-0.019372	-5.45026	10.5169	-15.6488
 408	1	2	0.00686	-4.46525	10.8136	-16.0314
 409	1	1	-0.084968	-8.6012	16.7748	-18.6483
 410	1	1	0.309483	-9.53956	17.9824	-18.446
 411	1	2	-0.002	-7.56115	17.1034	-18.7623
 412	1	3	-0.436564	-10.8755	17.4699	-18.2581
 413	1	1	0.15357	-11.0596	16.4627	-17.2363
 414	1	4	-0.002836	-8.43317	16.2459	-16.5499
 415	1	3	-0.349559	-10.1225	15.386	-17.4249
 416	1	2	0.015925	-8.38095	13.8316	-18.425
 417	1	1	0.230077	-8.73586	15.7689	-17.4898
 418	1	2	0.052641	-8.87325	16.2766	-19.5874
 419	1	4	-0.023623	-9.51786	18.5768	-19.368
 420	1	1	-0.072969	-12.4867	15.8962	-17.3474
 421	1	2	0.031276	-15.0646	15.5234	-16.2545
 422	1	2	0.023309	-15.7141	17.1182	-16.6906
 423	1	2	0.030094	-15.2406	15.9763	-17.9669
 424	1	5	0.077888	-10.9132	16.8974	-16.2398
 425	1	1	0.09092	-13.5563	16.9416	-16.9596
 426	1	2	0.047821	-12.6629	15.5444	-18.3718
 427	1	2	0.068339	-12.5731	15.0244	-16.6872
 428	1	1	-0.129023	-14.9802	16.3516	-16.9693
 429	1	2	-0.006475	-13.3393	17.3338	-15.9576
 430	1	2	-0.010814	-13.5157	17.7919	-17.6524
 431	1	1	-0.019372	-7.86848	14.511	-17.7311
 432	1	2	0.00686	-6.93524	14.8123	-18.2244
 433	1	1	-0.084968	-7.58112	20.7183	-16.3879
 434	1	1	0.309483	-6.41296	20.6514	-15.3799
 435	1	2	-0.002	-7.42213	21.5423	-17.0955
 436	1	3	-0.436564	-5.32336	19.9719	-16.0288
 437	1	1	0.15357	-5.57729	18.5921	-16.3755
 438	1	4	-0.002836	-7.34044	19.549	-18.1988
 439	1	3	-0.349559	-6.99282	18.3589	-16.5196
 440	1	2	0.015925	-9.49259	18.4976	-16.3068
 441	1	1	0.230077	-7.73845	19.3989	-17.1867
 442	1	2	0.052641	-8.50322	20.9473	-15.8402
 443	1	4	-0.023623	-6.73406	20.0597	-14.5125
 444	1	1	-0.072969	-5.06803	17.6856	-15.2304
 445	1	2	0.031276	-2.78071	18.958	-16.529
 446	1	2	0.023309	-2.74975	19.23	-14.7706
 447	1	2	0.030094	-1.57339	18.1339	-15.5282
 448	1	5	0.077888	-5.06687	18.3444	-17.3153
 449	1	1	0.09092	-3.57824	17.2877	-15.3561
 450	1	2	0.047821	-5.22658	18.187	-14.2675
 451	1	2	0.068339	-5.66731	16.767	-15.2006
 452	1	1	-0.129023	-2.61492	18.4768	-15.5569
 453	1	2	-0.006475	-3.28488	16.744	-14.4488
 454	1	2	-0.010814	-3.45959	16.5871	-16.1922
 455	1	1	-0.019372	-9.21445	18.9436	-17.2689
 456	1	2	0.00686	-9.8544	19.8273	-17.3898
 457	1	1	-0.084968	-6.49062	23.8349	-13.1196
 458	1	1	0.309483	-7.68947	24.5774	-12.4956
 459	1	2	-0.002	-5.90276	23.331	-12.3426
 460	1	3	-0.436564	-8.42842	25.1905	-13.5677
 461	1	1	0.15357	-8.92078	24.2734	-14.5644
 462	1	4	-0.002836	-7.65496	22.078	-13.5608
 463	1	3	-0.349559	-7.83139	23.4889	-15.0852
 464	1	2	0.015925	-5.52917	22.626	-15.6902
 465	1	1	0.230077	-7.03087	22.7924	-14.1139
 466	1	2	0.052641	-5.83066	24.5451	-13.6338
 467	1	4	-0.023623	-8.34271	23.8456	-12.0051
 468	1	1	-0.072969	-9.54351	25.0833	-15.7174
 469	1	2	0.031276	-11.713	25.507	-17.4931
 470	1	2	0.023309	-10.1875	25.7127	-18.3869
 471	1	2	0.030094	-11.2226	24.3038	-18.7041
 472	1	5	0.077888	-9.67429	23.6116	-14.1173
 473	1	1	0.09092	-10.1096	24.1747	-16.8328
 474	1	2	0.047821	-10.3482	25.7105	-15.3139
 475	1	2	0.068339	-8.78806	25.7592	-16.1373
 476	1	1	-0.129023	-10.8528	24.9758	-17.9195
 477	1	2	-0.006475	-9.29469	23.6092	-17.3026
 478	1	2	-0.010814	-10.7985	23.4408	-16.3951
 479	1	1	-0.019372	-5.91859	22.0208	-14.861
 480	1	2	0.00686	-5.07899	21.8437	-14.1765
 481	1	1	-0.084968	-6.34467	26.155	-9.10514
 482	1	1	0.309483	-7.03772	25.8256	-7.76506
 483	1	2	-0.002	-5.2625	26.2403	-8.953
 484	1	3	-0.436564	-8.38581	25.4916	-8.09414
 485	1	1	0.15357	-8.54137	24.2484	-8.78929
 486	1	4	-0.002836	-5.66238	24.6735	-10.5026
 487	1	3	-0.349559	-7.42573	23.9905	-9.67742
 488	1	2	0.015925	-8.18135	26.2508	-11.1973
 489	1	1	0.230077	-6.63043	25.0889	-10.1972
 490	1	2	0.052641	-6.68296	27.1378	-9.45655
 491	1	4	-0.023623	-6.55923	24.9569	-7.29342
 492	1	1	-0.072969	-9.87347	24.3114	-9.56325
 493	1	2	0.031276	-12.5713	23.631	-10.0318
 494	1	2	0.023309	-13.2568	24.5042	-8.64307
 495	1	2	0.030094	-12.4509	25.4056	-9.94385
 496	1	5	0.077888	-8.58699	23.4291	-8.06004
 497	1	1	0.09092	-11.0833	24.3557	-8.60269
 498	1	2	0.047821	-9.89352	25.2017	-10.2012
 499	1	2	0.068339	-9.95717	23.4368	-10.2189
 500	1	1	-0.129023	-12.4216	24.4805	-9.35422
 501	1	2	-0.006475	-11.0951	23.4475	-7.98666
 502	1	2	-0.010814	-10.9872	25.2065	-7.91588
 503	1	1	-0.019372	-7.29334	25.6703	-11.4733
 504	1	2	0.00686	-6.60091	26.3773	-11.9484
 505	1	1	-0.084968	-4.6195	26.7413	-6.08969
 506	1	1	0.309483	-3.63184	26.9084	-4.92465
 507	1	2	-0.002	-4.46522	25.7597	-6.55409
 508	1	3	-0.436564	-3.9414	28.1384	-4.25902
 509	1	1	0.15357	-5.27065	28.2397	-3.73243
 510	1	4	-0.002836	-6.32853	25.9856	-4.99701
 511	1	3	-0.349559	-6.21366	28.0544	-4.8013
 512	1	2	0.015925	-8.08895	27.0768	-6.32848
 513	1	1	0.230077	-6.07558	26.8658	-5.60252
 514	1	2	0.052641	-4.4204	27.5062	-6.85079
 515	1	4	-0.023623	-3.74814	26.0752	-4.2193
 516	1	1	-0.072969	-5.46958	29.6596	-3.16933
 517	1	2	0.031276	-4.68202	32.1912	-2.25608
 518	1	2	0.023309	-5.7053	31.4542	-1.00076
 519	1	2	0.030094	-3.96377	31.6678	-0.717723
 520	1	5	0.077888	-5.42605	27.4853	-2.9498
 521	1	1	0.09092	-4.44376	30.0257	-2.07294
 522	1	2	0.047821	-5.40241	30.3854	-3.9897
 523	1	2	0.068339	-6.48365	29.7338	-2.75813
 524	1	1	-0.129023	-4.71681	31.4201	-1.47597
 525	1	2	-0.006475	-4.47465	29.2763	-1.27172
 526	1	2	-0.010814	-3.42833	30.0121	-2.48836
 527	1	1	-0.019372	-7.08339	27.0048	-6.76341
 528	1	2	0.00686	-6.90876	27.9531	-7.2883
 529	1	1	-0.084968	0.279753	26.9475	-4.75081
 530	1	1	0.309483	1.27165	27.4748	-3.6952
 531	1	2	-0.002	0.362518	25.8556	-4.82654
 532	1	3	-0.436564	1.05562	28.8802	-3.48261
 533	1	1	0.15357	-0.290557	29.2934	-3.19384
 534	1	4	-0.002836	-1.40855	26.8491	-3.39879
 535	1	3	-0.349559	-1.1683	28.7673	-4.19971
 536	1	2	0.015925	-2.09157	27.6406	-6.27635
 537	1	1	0.230077	-1.15077	27.3371	-4.34809
 538	1	2	0.052641	0.498885	27.356	-5.73989
 539	1	4	-0.023623	1.06652	26.9402	-2.75856
 540	1	1	-0.072969	-0.346443	30.8348	-3.24864
 541	1	2	0.031276	2.01203	31.4488	-1.79149
 542	1	2	0.023309	1.23663	31.709	-0.214308
 543	1	2	0.030094	1.23206	30.0933	-0.943482
 544	1	5	0.077888	-0.606899	28.927	-2.20814
 545	1	1	0.09092	-0.176083	31.502	-1.8644
 546	1	2	0.047821	0.426692	31.2074	-3.93313
 547	1	2	0.068339	-1.31013	31.1482	-3.66908
 548	1	1	-0.129023	1.15776	31.1653	-1.16403
 549	1	2	-0.006475	-0.245836	32.5903	-1.98698
 550	1	2	-0.010814	-1.00916	31.2055	-1.2143
 551	1	1	-0.019372	-2.17475	26.9436	-5.4329
 552	1	2	0.00686	-1.92673	25.9473	-5.81983
 553	1	1	-0.084968	3.08134	28.4992	-6.37574
 554	1	1	0.309483	3.57101	27.2766	-7.1849
 555	1	2	-0.002	2.00552	28.6549	-6.48935
 556	1	3	-0.436564	4.98782	27.1248	-6.94976
 557	1	1	0.15357	5.35695	26.9863	-5.56443
 558	1	4	-0.002836	3.26803	29.3318	-4.39421
 559	1	3	-0.349559	4.86996	28.123	-4.82655
 560	1	2	0.015925	2.84415	26.2722	-4.5712
 561	1	1	0.230077	3.45529	28.3681	-4.88246
 562	1	2	0.052641	3.5604	29.4017	-6.77519
 563	1	4	-0.023623	3.05388	26.3762	-6.83155
 564	1	1	-0.072969	6.88685	26.9461	-5.41352
 565	1	2	0.031276	9.2533	25.8124	-4.26999
 566	1	2	0.023309	9.28175	27.5851	-4.09289
 567	1	2	0.030094	9.0482	26.5524	-2.66688
 568	1	5	0.077888	4.92928	26.059	-5.1638
 569	1	1	0.09092	7.28745	26.7075	-3.9379
 570	1	2	0.047821	7.29278	26.1436	-6.04137
 571	1	2	0.068339	7.31356	27.8915	-5.7709
 572	1	1	-0.129023	8.81234	26.6611	-3.73311
 573	1	2	-0.006475	6.87498	27.5034	-3.30459
 574	1	2	-0.010814	6.84828	25.7643	-3.58714
 575	1	1	-0.019372	2.75499	27.2396	-4.06342
 576	1	2	0.00686	3.30458	27.1287	-3.11976
 577	1	1	-0.084968	1.62866	27.634	-10.6268
 578	1	1	0.309483	0.304248	26.9672	-11.0538
 579	1	2	-0.002	1.62152	28.6896	-10.9275
 580	1	3	-0.436564	-0.655938	27.1167	-9.9933
 581	1	1	0.15357	-0.300484	26.5162	-8.72922
 582	1	4	-0.002836	1.45024	28.4602	-8.64279
 583	1	3	-0.349559	1.13044	26.4136	-8.58787
 584	1	2	0.015925	3.76989	26.5277	-9.2093
 585	1	1	0.230077	1.85621	27.5482	-9.09786
 586	1	2	0.052641	2.45272	27.1575	-11.1708
 587	1	4	-0.023623	-0.0697977	27.4287	-11.9759
 588	1	1	-0.072969	-0.893248	25.0944	-8.63626
 589	1	2	0.031276	-2.58621	22.8957	-9.09781
 590	1	2	0.023309	-2.94325	23.51	-7.4657
 591	1	2	0.030094	-4.12585	23.7198	-8.77289
 592	1	5	0.077888	-0.703811	27.1411	-7.92376
 593	1	1	0.09092	-2.4144	25.0681	-8.9064
 594	1	2	0.047821	-0.382081	24.4284	-9.34272
 595	1	2	0.068339	-0.693757	24.7032	-7.6312
 596	1	1	-0.129023	-3.05432	23.7151	-8.5379
 597	1	2	-0.006475	-2.90023	25.864	-8.33112
 598	1	2	-0.010814	-2.60642	25.2776	-9.9664
 599	1	1	-0.019372	3.34812	27.4103	-8.71102
 600	1	2	0.00686	3.90057	28.2808	-9.08813
 601	1	2	0	7.99997	-30.0266	12.3063
 602	1	4	0	0.472892	25.9	-11.2465

Velocities

   1	5.00084e-05	-0.000138539	-4.1906e-06
   2	-6.92511e-06	-1.21251e-05	4.84326e-05
   3	-1.30352e-05	-0.000143333	-0.000155258
   4	3.39638e-05	-1.86434e-05	0.000184322
   5	1.46608e-06	-0.000157355	-3.21456e-05
   6	0.000139695	-0.000263193	0.000131754
   7	-7.23821e-05	-0.000275541	-5.53164e-05
   8	-0.000113388	0.000585314	0.000373872
   9	5.94913e-05	-0.00015356	5.29936e-05
  10	0.000154798	-0.000261958	8.03148e-05
  11	-7.82868e-05	0.000107384	5.09719e-06
  12	2.50871e-05	-0.000105824	-5.63703e-05
  13	-0.000271979	7.33238e-05	-8.30844e-05
  14	-0.000365972	8.35821e-05	5.62225e-05
  15	-0.000110961	0.000141637	0.000185712
  16	4.25407e-05	-6.62654e-05	-0.000183565
  17	-6.14262e-05	4.72991e-05	-0.000121697
  18	0.000173715	-2.87723e-05	-3.74546e-05
  19	2.21635e-05	-0.000238253	7.53896e-05
  20	-0.000207519	9.80172e-05	9.98847e-06
  21	4.71466e-05	0.00015566	-0.000175705
  22	-0.000129386	9.31849e-05	-6.77261e-05
  23	2.87146e-05	1.14488e-05	0.000114556
  24	0.000541269	-4.37322e-06	-0.000131537
  25	1.1981e-05	0.000102353	9.15412e-05
  26	1.06e-05	7.92528e-05	2.20806e-05
  27	2.94159e-05	-5.33297e-06	0.000184849
  28	3.17434e-06	7.29364e-05	3.29442e-05
  29	-7.25338e-06	8.32956e-05	1.229e-05
  30	-0.000158416	3.967e-05	-2.78873e-05
  31	-2.18363e-05	0.0001393	-0.00012408
  32	-0.000230891	-9.08847e-05	-8.74092e-05
  33	-9.42325e-05	0.000105124	-5.87052e-05
  34	7.64697e-05	0.000207287	8.82847e-05
  35	3.92403e-06	5.82626e-05	3.41283e-06
  36	1.76974e-05	3.29062e-05	3.21611e-05
  37	4.77054e-05	-3.07648e-05	7.18186e-05
  38	5.1813e-07	-4.69541e-06	2.60916e-05
  39	-4.7832e-05	-4.8117e-05	6.07947e-05
  40	-6.46442e-05	0.00018089	5.85014e-05
  41	1.79905e-07	4.53651e-05	-8.38406e-06
  42	-5.68346e-06	2.42773e-05	4.4933e-05
  43	7.81105e-05	3.05906e-05	8.80749e-05
  44	-1.61034e-05	-2.83728e-05	2.95575e-05
  45	8.07682e-05	2.37676e-05	-4.64722e-05
  46	-2.15575e-05	4.41103e-05	-4.04284e-05
  47	-0.000105784	4.86918e-05	-7.14138e-05
  48	-0.000129165	0.000119985	-0.000202699
  49	-9.6506e-05	-3.58357e-05	-4.58909e-05
  50	3.43475e-05	-4.15225e-05	-6.80146e-05
  51	-0.000179814	-6.65113e-05	-0.000130326
  52	9.13362e-05	5.81604e-05	-0.000180616
  53	8.53973e-05	4.48383e-06	-0.000158765
  54	-2.64509e-06	-6.98243e-05	-0.000165103
  55	9.11294e-05	3.17579e-05	-8.98132e-05
  56	2.443e-06	9.6262e-05	1.84373e-05
  57	5.95237e-06	-5.26144e-05	-7.91004e-05