pySIMM System Object

1010 atoms
1051 bonds
2100 angles
3141 dihedrals
0 impropers

5 atom types
5 bond types
11 angle types
8 dihedral types

-134.276758 134.276758 xlo xhi
-134.276758 134.276758 ylo yhi
-134.276758 134.276758 zlo zhi

Masses

   1	12.01	# c3
   2	1.008	# hc
   3	16.0	# os
   4	1.008	# h1
   5	1.008	# h2

Pair Coeffs

   1	0.1094	3.3996695084235347	# c3
   2	0.0157	2.649532787749369	# hc
   3	0.17	3.0000123434657784	# os
   4	0.0157	2.471353044121301	# h1
   5	0.0157	2.2931733004932333	# h2

Bond Coeffs

   1	330.6	1.0969	# c3,h1
   2	308.6	1.4316	# c3,os
   3	330.6	1.0969	# c3,hc
   4	300.9	1.5375	# c3,c3
   5	331.7	1.0961	# c3,h2

Angle Coeffs

   1	62.7	112.48	# c3,os,c3
   2	50.85	109.58	# h2,c3,os
   3	68.0	107.97	# c3,c3,os
   4	72.74	108.29	# os,c3,os
   5	46.34	109.8	# c3,c3,hc
   6	46.25	110.22	# c3,c3,h2
   7	50.8	109.78	# h1,c3,os
   8	46.39	109.56	# c3,c3,h1
   9	39.4	107.58	# hc,c3,hc
  10	39.24	108.46	# h1,c3,h1
  11	62.86	111.51	# c3,c3,c3

Dihedral Coeffs

   1	3	0.18	3	0	0.25	2	180	0.2	1	180	# c3,c3,c3,c3
   2	2	0.0	3	0	0.25	1	0	# hc,c3,c3,os
   3	1	0.3833333333333333	3	0	# X,c3,os,X
   4	1	0.15	3	0	# hc,c3,c3,hc
   5	2	0.383	3	0	0.1	2	180	# c3,c3,os,c3
   6	1	0.16	3	0	# hc,c3,c3,c3
   7	3	0.1	3	0	0.85	2	180	1.35	1	180	# c3,os,c3,os
   8	1	0.15555555555555556	3	0	# X,c3,c3,X

Atoms

   1	1	1	-0.084968	43.9193	9.87663	-8.86764
   2	1	1	0.309483	45.1262	10.7942	-9.14877
   3	1	2	-0.002	43.094	10.4496	-8.42681
   4	1	3	-0.436564	46.138	10.0057	-9.80196
   5	1	1	0.15357	45.7361	9.34749	-11.0175
   6	1	4	-0.002836	43.1066	10.0222	-10.8701
   7	1	3	-0.349559	44.5668	8.5436	-10.7708
   8	1	2	0.015925	42.008	7.77827	-10.9338
   9	1	1	0.230077	43.4511	9.23563	-10.1861
  10	1	2	0.052641	44.2041	9.0955	-8.15147
  11	1	4	-0.023623	44.8137	11.6051	-9.81916
  12	1	1	-0.072969	46.8911	8.42626	-11.4583
  13	1	2	0.031276	45.4726	9.17634	-13.8666
  14	1	2	0.023309	47.2323	9.26869	-14.1232
  15	1	2	0.030094	46.2812	7.98768	-14.9032
  16	1	5	0.077888	45.5209	10.0982	-11.7889
  17	1	1	0.09092	46.6173	7.65845	-12.7731
  18	1	2	0.047821	47.8019	9.02661	-11.575
  19	1	2	0.068339	47.0916	7.70385	-10.6575
  20	1	1	-0.129023	46.3868	8.58255	-13.9874
  21	1	2	-0.006475	47.4753	7.00756	-12.9839
  22	1	2	-0.010814	45.7494	6.99861	-12.6481
  23	1	1	-0.019372	42.3125	8.21799	-9.97589
  24	1	2	0.00686	42.6286	7.4058	-9.30889
  25	1	1	-0.084968	45.4788	12.9267	-5.83948
  26	1	1	0.309483	44.4673	13.8352	-5.1175
  27	1	2	-0.002	45.8619	12.1645	-5.14884
  28	1	3	-0.436564	43.9672	14.7775	-6.08536
  29	1	1	0.15357	43.327	14.1911	-7.23473
  30	1	4	-0.002836	43.9788	11.6125	-6.66062
  31	1	3	-0.349559	44.2346	13.2789	-7.87898
  32	1	2	0.015925	46.6236	12.014	-8.17062
  33	1	1	0.230077	44.7878	12.2506	-7.03795
  34	1	2	0.052641	46.3337	13.5219	-6.18524
  35	1	4	-0.023623	43.6406	13.2111	-4.7548
  36	1	1	-0.072969	42.9715	15.2988	-8.24469
  37	1	2	0.031276	40.9917	16.7865	-9.60258
  38	1	2	0.023309	40.7016	17.9739	-8.31444
  39	1	2	0.030094	42.2871	17.9063	-9.11333
  40	1	5	0.077888	42.4208	13.6542	-6.92378
  41	1	1	0.09092	41.9259	16.2882	-7.68845
  42	1	2	0.047821	43.8815	15.8425	-8.52878
  43	1	2	0.068339	42.5793	14.8301	-9.15561
  44	1	1	-0.129023	41.4493	17.2994	-8.7474
  45	1	2	-0.006475	41.0593	15.7351	-7.3037
  46	1	2	-0.010814	42.3596	16.8401	-6.84866
  47	1	1	-0.019372	45.7653	11.3965	-7.87586
  48	1	2	0.00686	46.1599	10.5864	-7.24883
  49	1	1	-0.084968	43.8149	16.8345	-3.78868
  50	1	1	0.309483	42.2992	17.043	-3.94966
  51	1	2	-0.002	44.2337	17.6411	-3.17279
  52	1	3	-0.436564	41.7049	16.7658	-2.67011
  53	1	1	0.15357	41.8478	15.4089	-2.19757
  54	1	4	-0.002836	44.5942	15.6904	-2.14099
  55	1	3	-0.349559	42.9165	14.7252	-2.88442
  56	1	2	0.015925	45.9543	15.1917	-4.27116
  57	1	1	0.230077	44.1306	15.4751	-3.11229
  58	1	2	0.052641	44.3017	16.9165	-4.7672
  59	1	4	-0.023623	41.9159	16.3308	-4.69088
  60	1	1	-0.072969	40.5466	14.6399	-2.50601
  61	1	2	0.031276	38.1524	13.3101	-1.83413
  62	1	2	0.023309	37.2166	14.7578	-1.40298
  63	1	2	0.030094	37.7852	14.5366	-3.07068
  64	1	5	0.077888	42.0418	15.4142	-1.11704
  65	1	1	0.09092	39.3501	15.1329	-1.66357
  66	1	2	0.047821	40.3117	14.7366	-3.5736
  67	1	2	0.068339	40.7078	13.5726	-2.31028
  68	1	1	-0.129023	38.0479	14.3871	-2.01563
  69	1	2	-0.006475	39.5707	14.994	-0.597485
  70	1	2	-0.010814	39.1963	16.2063	-1.82083
  71	1	1	-0.019372	45.1088	14.5855	-3.92145
  72	1	2	0.00686	45.5331	13.8405	-3.23627
  73	1	1	-0.084968	39.5594	19.0354	-3.5513
  74	1	1	0.309483	38.0937	19.2101	-3.99336
  75	1	2	-0.002	39.6182	18.306	-2.73696
  76	1	3	-0.436564	38.0669	20.0996	-5.13049
  77	1	1	0.15357	38.95	19.8165	-6.23632
  78	1	4	-0.002836	40.0853	17.6476	-5.14444
  79	1	3	-0.349559	40.2932	19.6102	-5.76177
  80	1	2	0.015925	42.5311	18.7152	-5.29163
  81	1	1	0.230077	40.4376	18.6062	-4.74357
  82	1	2	0.052641	39.9268	19.9886	-3.15133
  83	1	4	-0.023623	37.5444	19.6793	-3.16776
  84	1	1	-0.072969	38.9316	21.0414	-7.16916
  85	1	2	0.031276	38.6317	22.2713	-9.68741
  86	1	2	0.023309	40.1118	22.9035	-8.92771
  87	1	2	0.030094	40.225	21.8262	-10.3358
  88	1	5	0.077888	38.6055	18.9234	-6.773
  89	1	1	0.09092	39.7111	20.8012	-8.47995
  90	1	2	0.047821	37.8904	21.2916	-7.4081
  91	1	2	0.068339	39.3553	21.9032	-6.63827
  92	1	1	-0.129023	39.6657	22.0265	-9.41348
  93	1	2	-0.006475	40.7582	20.5627	-8.25426
  94	1	2	-0.010814	39.2869	19.9352	-9.0041
  95	1	1	-0.019372	41.9384	18.4753	-4.39947
  96	1	2	0.00686	42.2246	19.203	-3.62899
  97	1	1	-0.084968	35.5123	18.6484	-5.94957
  98	1	1	0.309483	34.239	18.0153	-6.54645
  99	1	2	-0.002	35.3789	19.7307	-5.82507
 100	1	3	-0.436564	33.3511	17.7023	-5.45725
 101	1	1	0.15357	33.8356	16.6839	-4.55745
 102	1	4	-0.002836	35.4422	18.6397	-3.77783
 103	1	3	-0.349559	35.279	16.7079	-4.49531
 104	1	2	0.015925	37.5281	17.1935	-3.47189
 105	1	1	0.230077	35.8719	18.0208	-4.57653
 106	1	2	0.052641	36.3303	18.5088	-6.66483
 107	1	4	-0.023623	34.5272	17.0869	-7.05535
 108	1	1	-0.072969	33.4097	15.2949	-5.08257
 109	1	2	0.031276	31.797	12.9729	-5.03975
 110	1	2	0.023309	30.3967	13.6784	-5.87174
 111	1	2	0.030094	31.9495	13.541	-6.71857
 112	1	5	0.077888	33.4136	16.8561	-3.55878
 113	1	1	0.09092	31.8786	15.1498	-5.23911
 114	1	2	0.047821	33.8946	15.1012	-6.04744
 115	1	2	0.068339	33.7755	14.5303	-4.38639
 116	1	1	-0.129023	31.4829	13.7497	-5.7481
 117	1	2	-0.006475	31.3897	15.3363	-4.2744
 118	1	2	-0.010814	31.498	15.9002	-5.94305
 119	1	1	-0.019372	37.3901	17.8682	-4.3259
 120	1	2	0.00686	37.8599	17.3753	-5.18566
 121	1	1	-0.084968	31.4845	19.0867	-9.14448
 122	1	1	0.309483	30.2477	18.3288	-9.67213
 123	1	2	-0.002	31.1869	20.0614	-8.73683
 124	1	3	-0.436564	30.6619	17.0101	-10.0855
 125	1	1	0.15357	31.4367	16.2225	-9.15677
 126	1	4	-0.002836	31.5367	18.1036	-7.21629
 127	1	3	-0.349559	32.5439	16.986	-8.65197
 128	1	2	0.015925	34.1714	19.1349	-8.40456
 129	1	1	0.230077	32.209	18.2562	-8.06884
 130	1	2	0.052641	32.1679	19.2811	-9.9805
 131	1	4	-0.023623	29.8659	18.8676	-10.5481
 132	1	1	-0.072969	31.9613	14.9605	-9.87922
 133	1	2	0.031276	33.796	16.1427	-12.6652
 134	1	2	0.023309	32.0494	15.834	-12.562
 135	1	2	0.030094	32.783	17.1627	-11.6307
 136	1	5	0.077888	30.7949	15.9204	-8.31928
 137	1	1	0.09092	33.1836	15.1701	-10.8109
 138	1	2	0.047821	32.2337	14.2197	-9.11838
 139	1	2	0.068339	31.1411	14.5167	-10.4567
 140	1	1	-0.129023	32.9337	16.1367	-11.9874
 141	1	2	-0.006475	34.0444	15.5218	-10.2282
 142	1	2	-0.010814	33.472	14.1942	-11.2217
 143	1	1	-0.019372	33.5057	18.9209	-7.55857
 144	1	2	0.00686	33.2621	19.8824	-7.08845
 145	1	1	-0.084968	27.7595	16.0411	-9.13568
 146	1	1	0.309483	27.567	15.5761	-7.68498
 147	1	2	-0.002	26.9246	15.6802	-9.75084
 148	1	3	-0.436564	26.3132	16.1182	-7.24479
 149	1	1	0.15357	26.1447	17.5496	-7.28547
 150	1	4	-0.002836	27.7305	17.8807	-10.2543
 151	1	3	-0.349559	26.6582	18.1313	-8.5126
 152	1	2	0.015925	28.8591	19.2571	-8.31845
 153	1	1	0.230077	27.8089	17.5824	-9.20138
 154	1	2	0.052641	28.6657	15.5991	-9.55937
 155	1	4	-0.023623	28.3823	15.9529	-7.05658
 156	1	1	-0.072969	26.8204	18.1596	-6.03146
 157	1	2	0.031276	26.3305	21.6531	-6.24569
 158	1	2	0.023309	27.7787	20.7433	-6.71653
 159	1	2	0.030094	26.2539	20.531	-7.61316
 160	1	5	0.077888	25.0694	17.7621	-7.22614
 161	1	1	0.09092	26.2824	19.5579	-5.64596
 162	1	2	0.047821	26.6327	17.4876	-5.18438
 163	1	2	0.068339	27.9067	18.2025	-6.14665
 164	1	1	-0.129023	26.6878	20.6851	-6.61817
 165	1	2	-0.006475	25.1887	19.5217	-5.56317
 166	1	2	-0.010814	26.6617	19.8121	-4.64804
 167	1	1	-0.019372	29.0987	18.2348	-8.63518
 168	1	2	0.00686	29.4381	17.7075	-7.73909
 169	1	1	-0.084968	26.001	13.7172	-5.47844
 170	1	1	0.309483	25.6472	12.5536	-4.52799
 171	1	2	-0.002	25.9518	14.6731	-4.94076
 172	1	3	-0.436564	26.8518	12.1442	-3.85235
 173	1	1	0.15357	27.8978	11.6285	-4.7051
 174	1	4	-0.002836	28.1269	14.1321	-5.4775
 175	1	3	-0.349559	27.7931	12.1733	-6.0373
 176	1	2	0.015925	28.4616	13.637	-7.98122
 177	1	1	0.230077	27.4158	13.5618	-6.08927
 178	1	2	0.052641	25.243	13.7616	-6.26983
 179	1	4	-0.023623	25.2646	11.7183	-5.1282
 180	1	1	-0.072969	27.7679	10.0952	-4.81418
 181	1	2	0.031276	28.7805	7.52706	-4.22074
 182	1	2	0.023309	28.0543	7.37957	-2.60665
 183	1	2	0.030094	27.012	7.48918	-4.03999
 184	1	5	0.077888	28.8725	11.8909	-4.27368
 185	1	1	0.09092	27.9274	9.38805	-3.45024
 186	1	2	0.047821	26.7971	9.83512	-5.25415
 187	1	2	0.068339	28.5386	9.7288	-5.50332
 188	1	1	-0.129023	27.9436	7.85278	-3.5902
 189	1	2	-0.006475	28.8626	9.71264	-2.97599
 190	1	2	-0.010814	27.1077	9.67887	-2.78088
 191	1	1	-0.019372	27.5317	14.0375	-7.55699
 192	1	2	0.00686	26.7102	13.6245	-8.1568
 193	1	1	-0.084968	23.0905	12.1742	-1.54059
 194	1	1	0.309483	21.9282	11.1615	-1.44758
 195	1	2	-0.002	23.6002	12.2583	-0.571992
 196	1	3	-0.436564	22.4823	9.83921	-1.57776
 197	1	1	0.15357	23.1365	9.56027	-2.83456
 198	1	4	-0.002836	24.9946	11.3127	-2.12082
 199	1	3	-0.349559	23.5251	10.7848	-3.48902
 200	1	2	0.015925	23.7228	13.3941	-3.98867
 201	1	1	0.230077	24.1254	11.7624	-2.61855
 202	1	2	0.052641	22.6746	13.1645	-1.76275
 203	1	4	-0.023623	21.2391	11.345	-2.28259
 204	1	1	-0.072969	22.141	8.80766	-3.74367
 205	1	2	0.031276	23.8629	6.74286	-4.59319
 206	1	2	0.023309	24.2908	7.42728	-6.17615
 207	1	2	0.030094	24.8103	8.24725	-4.69397
 208	1	5	0.077888	24.0226	8.94037	-2.64612
 209	1	1	0.09092	22.6867	8.50106	-5.15899
 210	1	2	0.047821	21.8601	7.86618	-3.25549
 211	1	2	0.068339	21.2215	9.39766	-3.83911
 212	1	1	-0.129023	23.9919	7.67878	-5.15101
 213	1	2	-0.006475	21.9221	7.94721	-5.71836
 214	1	2	-0.010814	22.8535	9.43799	-5.70553
 215	1	1	-0.019372	24.5907	12.9573	-3.47764
 216	1	2	0.00686	25.0029	13.7383	-2.82542
 217	1	1	-0.084968	20.2043	8.94106	0.515721
 218	1	1	0.309483	18.9173	8.09768	0.621318
 219	1	2	-0.002	20.9549	8.39719	-0.0698373
 220	1	3	-0.436564	17.904	8.88837	1.27537
 221	1	1	0.15357	17.644	10.1985	0.735151
 222	1	4	-0.002836	19.5498	10.195	-1.13917
 223	1	3	-0.349559	18.8723	10.9432	0.663868
 224	1	2	0.015925	20.7816	12.3085	-0.0316422
 225	1	1	0.230077	19.9118	10.322	-0.111175
 226	1	2	0.052641	20.6209	9.07776	1.52122
 227	1	4	-0.023623	19.1338	7.22312	1.24733
 228	1	1	-0.072969	16.6641	10.9172	1.68202
 229	1	2	0.031276	15.2035	13.3127	-0.450398
 230	1	2	0.023309	16.3374	12.0584	-0.979553
 231	1	2	0.030094	14.7751	11.5987	-0.261539
 232	1	5	0.077888	17.205	10.1055	-0.266094
 233	1	1	0.09092	16.2429	12.323	1.19425
 234	1	2	0.047821	15.7669	10.2969	1.8009
 235	1	2	0.068339	17.1227	11.0013	2.675
 236	1	1	-0.129023	15.6009	12.319	-0.209624
 237	1	2	-0.006475	15.5252	12.7418	1.91106
 238	1	2	-0.010814	17.1117	12.9934	1.19354
 239	1	1	-0.019372	21.1318	11.2727	-0.130171
 240	1	2	0.00686	21.7857	11.0788	0.730083
 241	1	1	-0.084968	15.8204	7.49406	-0.726665
 242	1	1	0.309483	14.6336	6.51299	-0.712154
 243	1	2	-0.002	15.7198	8.19054	0.112413
 244	1	3	-0.436564	14.8097	5.56593	-1.78223
 245	1	1	0.15357	16.0584	4.84872	-1.80154
 246	1	4	-0.002836	17.169	6.13682	0.308817
 247	1	3	-0.349559	17.1601	5.77229	-1.73267
 248	1	2	0.015925	19.2133	6.97824	-1.19354
 249	1	1	0.230077	17.1395	6.7004	-0.633001
 250	1	2	0.052641	15.8234	8.08195	-1.65071
 251	1	4	-0.023623	14.65	5.97329	0.243537
 252	1	1	-0.072969	16.1648	4.09187	-3.13855
 253	1	2	0.031276	15.0206	2.92524	-5.43982
 254	1	2	0.023309	16.2235	1.80005	-4.7663
 255	1	2	0.030094	14.4913	1.41475	-4.66945
 256	1	5	0.077888	16.1067	4.15101	-0.955009
 257	1	1	0.09092	15.1329	2.94951	-3.25699
 258	1	2	0.047821	16.028	4.80139	-3.96459
 259	1	2	0.068339	17.1761	3.67786	-3.23565
 260	1	1	-0.129023	15.2247	2.22893	-4.61652
 261	1	2	-0.006475	15.2967	2.22323	-2.45047
 262	1	2	-0.010814	14.1172	3.34588	-3.13226
 263	1	1	-0.019372	18.409	7.57861	-0.748654
 264	1	2	0.00686	18.2277	8.40564	-1.44569
 265	1	1	-0.084968	11.4795	8.06305	-2.50355
 266	1	1	0.309483	11.3168	8.71007	-3.89188
 267	1	2	-0.002	10.9254	7.11634	-2.46703
 268	1	3	-0.436564	12.1257	9.90311	-3.94987
 269	1	1	0.15357	13.5159	9.75334	-3.59848
 270	1	4	-0.002836	13.3493	7.1399	-3.03831
 271	1	3	-0.349559	13.637	9.08005	-2.33243
 272	1	2	0.015925	13.1054	7.93334	-0.0785547
 273	1	1	0.230077	12.9748	7.8062	-2.25091
 274	1	2	0.052641	11.0727	8.71287	-1.72223
 275	1	4	-0.023623	11.6907	7.99389	-4.63516
 276	1	1	-0.072969	14.1452	11.1523	-3.44624
 277	1	2	0.031276	14.6316	10.3659	-6.18752
 278	1	2	0.023309	15.1232	11.9806	-6.7286
 279	1	2	0.030094	16.0762	11.1382	-5.48971
 280	1	5	0.077888	14.0378	9.17194	-4.36938
 281	1	1	0.09092	14.1872	11.9691	-4.75802
 282	1	2	0.047821	13.5803	11.7163	-2.69367
 283	1	2	0.068339	15.165	11.0439	-3.05807
 284	1	1	-0.129023	15.0576	11.3203	-5.85498
 285	1	2	-0.006475	13.1693	12.1196	-5.13953
 286	1	2	-0.010814	14.5886	12.9662	-4.53629
 287	1	1	-0.019372	13.2411	7.1761	-0.861532
 288	1	2	0.00686	12.4842	6.40394	-0.6734
 289	1	1	-0.084968	7.89244	10.7007	-4.21272
 290	1	1	0.309483	7.49656	12.1146	-3.74609
 291	1	2	-0.002	7.78935	10.6217	-5.30265
 292	1	3	-0.436564	7.72782	12.204	-2.32694
 293	1	1	0.15357	9.05009	11.8572	-1.86901
 294	1	4	-0.002836	9.9882	11.2072	-4.26353
 295	1	3	-0.349559	9.41144	10.5564	-2.37372
 296	1	2	0.015925	9.1826	8.26564	-3.85559
 297	1	1	0.230077	9.35278	10.4389	-3.80403
 298	1	2	0.052641	7.23321	9.95016	-3.7601
 299	1	4	-0.023623	8.16308	12.8239	-4.25384
 300	1	1	-0.072969	9.03295	11.8165	-0.327005
 301	1	2	0.031276	12.4241	11.317	0.529269
 302	1	2	0.023309	11.1802	10.0735	0.294866
 303	1	2	0.030094	11.7287	11.0631	-1.08092
 304	1	5	0.077888	9.76526	12.6114	-2.22354
 305	1	1	0.09092	10.4077	12.1198	0.313598
 306	1	2	0.047821	8.31609	12.5603	0.0397813
 307	1	2	0.068339	8.66792	10.8396	0.0131007
 308	1	1	-0.129023	11.4989	11.0782	-0.00866043
 309	1	2	-0.006475	10.749	13.112	-0.00835577
 310	1	2	-0.010814	10.2834	12.1705	1.40272
 311	1	1	-0.019372	9.84658	9.0429	-4.25513
 312	1	2	0.00686	9.7515	8.98766	-5.34707
 313	1	1	-0.084968	4.83563	10.9725	-2.33902
 314	1	1	0.309483	3.70921	11.0278	-1.28611
 315	1	2	-0.002	4.63445	10.1871	-3.07587
 316	1	3	-0.436564	3.9688	12.1407	-0.413469
 317	1	1	0.15357	4.06968	13.4272	-1.04721
 318	1	4	-0.002836	3.96413	12.4962	-3.57294
 319	1	3	-0.349559	5.06345	13.3885	-2.08553
 320	1	2	0.015925	5.74127	11.9222	-5.0153
 321	1	1	0.230077	4.92041	12.3386	-3.05706
 322	1	2	0.052641	5.7803	10.729	-1.84089
 323	1	4	-0.023623	2.74918	11.1992	-1.79025
 324	1	1	-0.072969	4.47966	14.4695	0.0132438
 325	1	2	0.031276	6.17503	16.2876	1.32963
 326	1	2	0.023309	5.53504	15.1526	2.5423
 327	1	2	0.030094	7.24919	15.0871	2.07962
 328	1	5	0.077888	3.09713	13.6972	-1.47897
 329	1	1	0.09092	5.90008	14.2499	0.584354
 330	1	2	0.047821	4.41604	15.4711	-0.42926
 331	1	2	0.068339	3.75022	14.4384	0.831768
 332	1	1	-0.129023	6.23325	15.2572	1.70232
 333	1	2	-0.006475	5.99158	13.2316	0.982885
 334	1	2	-0.010814	6.64295	14.3535	-0.216453
 335	1	1	-0.019372	6.03582	12.4935	-4.12602
 336	1	2	0.00686	6.03733	13.5414	-4.45256
 337	1	1	-0.084968	3.50548	7.60274	-1.82513
 338	1	1	0.309483	2.5391	6.48171	-2.26001
 339	1	2	-0.002	3.96158	8.06657	-2.70623
 340	1	3	-0.436564	1.92211	5.94121	-1.0796
 341	1	1	0.15357	1.18913	6.89484	-0.294472
 342	1	4	-0.002836	1.95086	9.10472	-1.64631
 343	1	3	-0.349559	2.06816	7.97079	0.0781892
 344	1	2	0.015925	3.13696	10.0752	0.557999
 345	1	1	0.230077	2.7215	8.65207	-1.00887
 346	1	2	0.052641	4.31347	7.18033	-1.21436
 347	1	4	-0.023623	1.75422	6.91096	-2.8954
 348	1	1	-0.072969	0.687234	6.19336	0.980539
 349	1	2	0.031276	-1.31794	5.47211	2.83022
 350	1	2	0.023309	0.0652554	6.13341	3.73458
 351	1	2	0.030094	-1.4509	7.05322	3.62992
 352	1	5	0.077888	0.34184	7.28184	-0.87619
 353	1	1	0.09092	-0.268639	7.09025	1.79739
 354	1	2	0.047821	0.166384	5.26932	0.699602
 355	1	2	0.068339	1.5476	5.90465	1.597
 356	1	1	-0.129023	-0.772976	6.3923	3.07552
 357	1	2	-0.006475	0.239727	8.02201	2.07606
 358	1	2	-0.010814	-1.12973	7.36773	1.17563
 359	1	1	-0.019372	3.59636	9.77003	-0.392026
 360	1	2	0.00686	4.59332	9.38701	-0.138148
 361	1	1	-0.084968	4.27066	4.43402	-5.16421
 362	1	1	0.309483	3.26544	4.03187	-6.25718
 363	1	2	-0.002	5.24328	4.6578	-5.62217
 364	1	3	-0.436564	3.17437	5.16139	-7.14671
 365	1	1	0.15357	2.7878	6.41892	-6.55145
 366	1	4	-0.002836	4.58832	6.39677	-4.29548
 367	1	3	-0.349559	2.67087	6.30448	-5.11976
 368	1	2	0.015925	2.49402	4.4953	-3.10917
 369	1	1	0.230077	3.7614	5.68324	-4.40062
 370	1	2	0.052641	4.43328	3.59536	-4.47601
 371	1	4	-0.023623	2.29151	3.83507	-5.79061
 372	1	1	-0.072969	1.39864	6.80467	-7.09527
 373	1	2	0.031276	-0.612897	6.75701	-9.08532
 374	1	2	0.023309	-0.40013	8.42774	-8.51035
 375	1	2	0.030094	0.123717	7.9764	-10.1469
 376	1	5	0.077888	3.52709	7.19091	-6.80146
 377	1	1	0.09092	1.4507	7.26178	-8.5687
 378	1	2	0.047821	0.72033	5.9473	-6.99695
 379	1	2	0.068339	0.983468	7.61339	-6.48127
 380	1	1	-0.129023	0.0541989	7.628	-9.10887
 381	1	2	-0.006475	2.11067	8.13459	-8.65624
 382	1	2	-0.010814	1.88062	6.46845	-9.19319
 383	1	1	-0.019372	3.22253	5.30964	-2.99984
 384	1	2	0.00686	4.0433	4.91702	-2.38556
 385	1	1	-0.084968	3.00933	1.16624	-8.93455
 386	1	1	0.309483	1.79844	0.730754	-9.78091
 387	1	2	-0.002	3.83788	1.4701	-9.58713
 388	1	3	-0.436564	0.730278	0.396986	-8.87628
 389	1	1	0.15357	0.321115	1.46126	-8.00243
 390	1	4	-0.002836	2.28921	3.18654	-8.66954
 391	1	3	-0.349559	1.46028	1.90963	-7.24642
 392	1	2	0.015925	3.95176	1.97331	-6.38819
 393	1	1	0.230077	2.58611	2.34188	-8.03411
 394	1	2	0.052641	3.35847	0.327325	-8.31939
 395	1	4	-0.023623	1.49357	1.58009	-10.4058
 396	1	1	-0.072969	-0.748619	0.904659	-7.04237
 397	1	2	0.031276	-2.57492	3.0415	-7.25049
 398	1	2	0.023309	-2.14966	3.86703	-5.73589
 399	1	2	0.030094	-0.972092	3.79432	-7.05802
 400	1	5	0.077888	-0.0869355	2.29188	-8.5935
 401	1	1	0.09092	-1.21245	1.91049	-5.96204
 402	1	2	0.047821	-1.61713	0.584722	-7.63186
 403	1	2	0.068339	-0.354542	0.00700814	-6.55036
 404	1	1	-0.129023	-1.75991	3.2322	-6.54128
 405	1	2	-0.006475	-1.99632	1.43762	-5.35674
 406	1	2	-0.010814	-0.38272	2.13158	-5.2786
 407	1	1	-0.019372	3.70266	2.79613	-7.07066
 408	1	2	0.00686	4.61332	3.03032	-7.63725
 409	1	1	-0.084968	-0.02702	-1.96611	-10.7809
 410	1	1	0.309483	-1.51676	-1.73315	-11.1128
 411	1	2	-0.002	0.264628	-2.9896	-11.0498
 412	1	3	-0.436564	-1.61418	-1.35169	-12.4991
 413	1	1	0.15357	-0.964419	-0.112882	-12.8543
 414	1	4	-0.002836	1.29508	-1.50017	-12.414
 415	1	3	-0.349559	0.144844	0.161657	-11.9778
 416	1	2	0.015925	2.5049	-1.31282	-10.0903
 417	1	1	0.230077	0.902916	-0.978235	-11.5315
 418	1	2	0.052641	0.104654	-1.88975	-9.69596
 419	1	4	-0.023623	-1.89217	-0.918513	-10.4805
 420	1	1	-0.072969	-1.9797	1.04009	-12.7082
 421	1	2	0.031276	-2.76898	3.66051	-12.0012
 422	1	2	0.023309	-1.97803	4.49164	-13.3576
 423	1	2	0.030094	-3.29434	3.34056	-13.6717
 424	1	5	0.077888	-0.614455	-0.177451	-13.8926
 425	1	1	0.09092	-1.39133	2.40204	-13.1414
 426	1	2	0.047821	-2.86335	0.814554	-13.318
 427	1	2	0.068339	-2.31608	1.10256	-11.6658
 428	1	1	-0.129023	-2.4232	3.54181	-13.0358
 429	1	2	-0.006475	-0.523937	2.65214	-12.517
 430	1	2	-0.010814	-1.0334	2.33454	-14.1768
 431	1	1	-0.019372	2.109	-0.484004	-10.6911
 432	1	2	0.00686	2.91226	-0.197628	-11.3818
 433	1	1	-0.084968	-4.73633	-4.02691	-10.9089
 434	1	1	0.309483	-5.78485	-3.85676	-9.78618
 435	1	2	-0.002	-5.24421	-4.26337	-11.8532
 436	1	3	-0.436564	-6.49725	-2.62822	-10.0408
 437	1	1	0.15357	-5.70167	-1.43137	-10.1964
 438	1	4	-0.002836	-4.03757	-2.37739	-12.1283
 439	1	3	-0.349559	-4.29825	-1.74328	-10.1663
 440	1	2	0.015925	-2.21488	-3.36328	-9.86012
 441	1	1	0.230077	-3.88059	-2.74888	-11.1074
 442	1	2	0.052641	-4.0965	-4.88747	-10.6784
 443	1	4	-0.023623	-5.26319	-3.79178	-8.82224
 444	1	1	-0.072969	-6.00458	-0.471914	-9.03058
 445	1	2	0.031276	-6.70844	2.06719	-8.02566
 446	1	2	0.023309	-5.30533	1.47919	-7.1006
 447	1	2	0.030094	-5.12	2.83422	-8.23473
 448	1	5	0.077888	-5.95599	-0.953144	-11.1516
 449	1	1	0.09092	-5.29368	0.889899	-9.20633
 450	1	2	0.047821	-7.08851	-0.31317	-8.97083
 451	1	2	0.068339	-5.69215	-0.935799	-8.08686
 452	1	1	-0.129023	-5.6289	1.87608	-8.07096
 453	1	2	-0.006475	-4.20616	0.74472	-9.24072
 454	1	2	-0.010814	-5.58781	1.33443	-10.1659
 455	1	1	-0.019372	-2.37243	-2.99963	-10.8838
 456	1	2	0.00686	-2.03163	-3.79476	-11.5599
 457	1	1	-0.084968	-8.72681	-4.08377	-8.30311
 458	1	1	0.309483	-9.48929	-4.33303	-6.98703
 459	1	2	-0.002	-8.31495	-3.06793	-8.29246
 460	1	3	-0.436564	-9.93763	-5.69802	-6.95664
 461	1	1	0.15357	-8.9637	-6.72618	-7.19847
 462	1	4	-0.002836	-6.90702	-5.01618	-7.57996
 463	1	3	-0.349559	-8.20167	-6.42363	-8.38343
 464	1	2	0.015925	-6.21396	-5.97073	-9.84744
 465	1	1	0.230077	-7.59467	-5.12043	-8.4296
 466	1	2	0.052641	-9.40062	-4.16006	-9.1639
 467	1	4	-0.023623	-8.77948	-4.17769	-6.16412
 468	1	1	-0.072969	-9.74803	-8.03411	-7.42714
 469	1	2	0.031276	-7.16473	-8.83023	-6.4074
 470	1	2	0.023309	-8.45869	-9.7822	-5.63887
 471	1	2	0.030094	-7.35876	-10.5479	-6.80407
 472	1	5	0.077888	-8.29469	-6.8138	-6.33281
 473	1	1	0.09092	-8.86093	-9.26439	-7.72677
 474	1	2	0.047821	-10.3636	-8.23954	-6.54236
 475	1	2	0.068339	-10.4444	-7.88447	-8.26175
 476	1	1	-0.129023	-7.90332	-9.62421	-6.57194
 477	1	2	-0.006475	-9.51206	-10.1252	-7.92531
 478	1	2	-0.010814	-8.28093	-9.09526	-8.64283
 479	1	1	-0.019372	-6.78352	-5.03789	-9.74415
 480	1	2	0.00686	-7.46135	-4.99035	-10.6065
 481	1	1	-0.084968	-12.2038	-4.34841	-8.68897
 482	1	1	0.309483	-13.6855	-4.65626	-8.97152
 483	1	2	-0.002	-11.8311	-3.60354	-9.40354
 484	1	3	-0.436564	-14.1573	-5.58267	-7.9781
 485	1	1	0.15357	-13.9714	-5.22089	-6.59607
 486	1	4	-0.002836	-12.7404	-2.92005	-7.17802
 487	1	3	-0.349559	-12.6158	-4.80138	-6.35296
 488	1	2	0.015925	-10.4439	-2.40114	-7.24738
 489	1	1	0.230077	-12.0944	-3.805	-7.25
 490	1	2	0.052641	-11.6105	-5.262	-8.81264
 491	1	4	-0.023623	-14.2506	-3.71934	-8.8991
 492	1	1	-0.072969	-14.2448	-6.47371	-5.74392
 493	1	2	0.031276	-15.5954	-8.07986	-3.8886
 494	1	2	0.023309	-17.1069	-8.27478	-4.80284
 495	1	2	0.030094	-15.5943	-8.95647	-5.43792
 496	1	5	0.077888	-14.6565	-4.40771	-6.32334
 497	1	1	0.09092	-15.7532	-6.78751	-5.64734
 498	1	2	0.047821	-13.7138	-7.32844	-6.18299
 499	1	2	0.068339	-13.8364	-6.32653	-4.7365
 500	1	1	-0.129023	-16.0271	-8.10536	-4.89707
 501	1	2	-0.006475	-16.2612	-5.96404	-5.12879
 502	1	2	-0.010814	-16.1896	-6.85215	-6.65221
 503	1	1	-0.019372	-10.6827	-3.36133	-6.77286
 504	1	2	0.00686	-10.7487	-3.1395	-5.70001
 505	1	1	-0.084968	-15.9368	-3.92588	-11.1404
 506	1	1	0.309483	-17.3552	-4.00451	-11.7397
 507	1	2	-0.002	-15.9479	-3.26129	-10.2679
 508	1	3	-0.436564	-17.355	-4.98038	-12.7981
 509	1	1	0.15357	-16.8947	-6.29108	-12.4188
 510	1	4	-0.002836	-16.0151	-5.71927	-9.91317
 511	1	3	-0.349559	-15.5635	-6.1946	-11.8806
 512	1	2	0.015925	-13.53	-6.33284	-10.3368
 513	1	1	0.230077	-15.4171	-5.32459	-10.7449
 514	1	2	0.052641	-15.2549	-3.48382	-11.8779
 515	1	4	-0.023623	-18.06	-4.32225	-10.9606
 516	1	1	-0.072969	-16.8731	-7.20181	-13.6636
 517	1	2	0.031276	-16.9619	-7.73166	-16.4196
 518	1	2	0.023309	-15.2763	-7.30514	-16.7848
 519	1	2	0.030094	-15.6304	-8.67823	-15.7145
 520	1	5	0.077888	-17.5681	-6.71521	-11.6612
 521	1	1	0.09092	-15.9202	-6.72125	-14.7824
 522	1	2	0.047821	-16.5892	-8.21491	-13.3526
 523	1	2	0.068339	-17.8896	-7.26953	-14.0665
 524	1	1	-0.129023	-15.9505	-7.66786	-15.9991
 525	1	2	-0.006475	-16.2037	-5.71236	-15.108
 526	1	2	-0.010814	-14.8923	-6.66227	-14.403
 527	1	1	-0.019372	-13.9199	-5.30641	-10.3525
 528	1	2	0.00686	-13.3484	-4.76607	-11.1184
 529	1	1	-0.084968	-20.3041	-3.24593	-12.5841
 530	1	1	0.309483	-21.443	-3.16928	-13.6223
 531	1	2	-0.002	-20.1316	-4.28272	-12.2737
 532	1	3	-0.436564	-21.6081	-1.79009	-13.9887
 533	1	1	0.15357	-20.4363	-1.13193	-14.5094
 534	1	4	-0.002836	-18.7837	-3.27584	-14.1227
 535	1	3	-0.349559	-19.3055	-1.32687	-13.6373
 536	1	2	0.015925	-16.9668	-2.18799	-12.8643
 537	1	1	0.230077	-19.0291	-2.67947	-13.2343
 538	1	2	0.052641	-20.5665	-2.66756	-11.6893
 539	1	4	-0.023623	-21.1488	-3.73488	-14.5152
 540	1	1	-0.072969	-20.7273	0.380946	-14.6426
 541	1	2	0.031276	-21.3932	-0.250583	-11.8572
 542	1	2	0.023309	-21.6363	1.43935	-11.3883
 543	1	2	0.030094	-22.6791	0.70847	-12.6282
 544	1	5	0.077888	-20.208	-1.5521	-15.4978
 545	1	1	0.09092	-20.6635	1.20148	-13.3273
 546	1	2	0.047821	-20.0052	0.807252	-15.3495
 547	1	2	0.068339	-21.7156	0.511139	-15.1001
 548	1	1	-0.129023	-21.655	0.744227	-12.2365
 549	1	2	-0.006475	-19.6441	1.17995	-12.9213
 550	1	2	-0.010814	-20.8735	2.25149	-13.5674
 551	1	1	-0.019372	-17.7984	-2.6317	-12.3017
 552	1	2	0.00686	-18.0018	-1.95424	-11.4621
 553	1	1	-0.084968	-22.1259	-6.1791	-13.5313
 554	1	1	0.309483	-22.0018	-7.53154	-12.795
 555	1	2	-0.002	-22.7579	-6.2928	-14.4221
 556	1	3	-0.436564	-23.0292	-7.64106	-11.7829
 557	1	1	0.15357	-24.2913	-7.00549	-12.0624
 558	1	4	-0.002836	-22.1848	-5.13352	-11.6337
 559	1	3	-0.349559	-24.1007	-5.58942	-12.3004
 560	1	2	0.015925	-23.5274	-3.65672	-13.9529
 561	1	1	0.230077	-22.7536	-5.14341	-12.5721
 562	1	2	0.052641	-21.1378	-5.86436	-13.8845
 563	1	4	-0.023623	-22.1067	-8.34509	-13.5232
 564	1	1	-0.072969	-25.2219	-7.18623	-10.8482
 565	1	2	0.031276	-26.1517	-8.45556	-8.50105
 566	1	2	0.023309	-27.5113	-8.31609	-9.64136
 567	1	2	0.030094	-26.8052	-9.90765	-9.28878
 568	1	5	0.077888	-24.7414	-7.46282	-12.9534
 569	1	1	0.09092	-25.5772	-8.67016	-10.6004
 570	1	2	0.047821	-24.7436	-6.76483	-9.95507
 571	1	2	0.068339	-26.1431	-6.61605	-11.0204
 572	1	1	-0.129023	-26.5723	-8.84559	-9.43641
 573	1	2	-0.006475	-26.0129	-9.10007	-11.5116
 574	1	2	-0.010814	-24.6664	-9.24152	-10.3798
 575	1	1	-0.019372	-22.8092	-3.69988	-13.1241
 576	1	2	0.00686	-23.1911	-3.03592	-12.3376
 577	1	1	-0.084968	-20.4998	-10.2169	-11.8911
 578	1	1	0.309483	-20.3454	-11.3288	-10.8416
 579	1	2	-0.002	-21.4346	-10.3586	-12.448
 580	1	3	-0.436564	-19.124	-11.0851	-10.1101
 581	1	1	0.15357	-18.9951	-9.78931	-9.49016
 582	1	4	-0.002836	-21.3393	-8.85873	-10.4245
 583	1	3	-0.349559	-19.2744	-8.74465	-10.4411
 584	1	2	0.015925	-20.4593	-6.73997	-11.488
 585	1	1	0.230077	-20.5162	-8.86842	-11.1506
 586	1	2	0.052641	-19.6695	-10.2511	-12.6076
 587	1	4	-0.023623	-21.2072	-11.2628	-10.1669
 588	1	1	-0.072969	-17.552	-9.6115	-8.96973
 589	1	2	0.031276	-14.3343	-9.26863	-10.3349
 590	1	2	0.023309	-15.0319	-8.34283	-8.99031
 591	1	2	0.030094	-14.7769	-10.097	-8.82579
 592	1	5	0.077888	-19.7043	-9.71894	-8.65495
 593	1	1	0.09092	-16.482	-9.5592	-10.0869
 594	1	2	0.047821	-17.5045	-8.68655	-8.38171
 595	1	2	0.068339	-17.3194	-10.434	-8.28253
 596	1	1	-0.129023	-15.0708	-9.30213	-9.52242
 597	1	2	-0.006475	-16.4819	-10.5015	-10.6492
 598	1	2	-0.010814	-16.72	-8.76146	-10.7997
 599	1	1	-0.019372	-20.6339	-7.64621	-12.082
 600	1	2	0.00686	-19.8381	-7.68525	-12.8348
 601	1	1	-0.084968	-20.9028	-13.8372	-9.17271
 602	1	1	0.309483	-21.8402	-14.8811	-8.5283
 603	1	2	-0.002	-19.8566	-14.0229	-8.90977
 604	1	3	-0.436564	-23.182	-14.6388	-8.99704
 605	1	1	0.15357	-23.3795	-14.5571	-10.4225
 606	1	4	-0.002836	-20.7963	-14.7971	-11.1133
 607	1	3	-0.349559	-22.4737	-13.5912	-10.9867
 608	1	2	0.015925	-19.2084	-13.0642	-11.5028
 609	1	1	0.230077	-21.0811	-13.8188	-10.7068
 610	1	2	0.052641	-21.1571	-12.8621	-8.74426
 611	1	4	-0.023623	-21.8328	-14.7172	-7.4435
 612	1	1	-0.072969	-24.8206	-14.083	-10.6987
 613	1	2	0.031276	-24.9008	-16.9518	-10.2739
 614	1	2	0.023309	-26.6696	-17.0536	-10.2479
 615	1	2	0.030094	-25.8406	-16.5021	-11.7187
 616	1	5	0.077888	-23.2044	-15.5371	-10.8845
 617	1	1	0.09092	-25.9117	-15.0121	-10.115
 618	1	2	0.047821	-24.9518	-13.0749	-10.2857
 619	1	2	0.068339	-24.9631	-13.9994	-11.7829
 620	1	1	-0.129023	-25.8213	-16.4672	-10.6223
 621	1	2	-0.006475	-25.8589	-15.007	-9.01943
 622	1	2	-0.010814	-26.8963	-14.6063	-10.3799
 623	1	1	-0.019372	-20.2579	-12.746	-11.4598
 624	1	2	0.00686	-20.6031	-12.7204	-12.5017
 625	1	1	-0.084968	-20.0712	-18.2597	-7.71932
 626	1	1	0.309483	-18.7467	-18.5348	-6.97229
 627	1	2	-0.002	-20.9331	-18.6206	-7.14678
 628	1	3	-0.436564	-17.6744	-18.0347	-7.80488
 629	1	1	0.15357	-17.7637	-16.6646	-8.26246
 630	1	4	-0.002836	-20.1539	-16.197	-7.0731
 631	1	3	-0.349559	-19.0596	-16.4141	-8.83517
 632	1	2	0.015925	-21.3515	-16.5765	-9.84957
 633	1	1	0.230077	-20.1873	-16.7559	-8.01617
 634	1	2	0.052641	-20.0714	-18.818	-8.66384
 635	1	4	-0.023623	-18.6339	-19.6214	-6.87169
 636	1	1	-0.072969	-16.697	-16.4451	-9.35441
 637	1	2	0.031276	-17.4502	-13.84	-8.35163
 638	1	2	0.023309	-15.6806	-13.9347	-8.51832
 639	1	2	0.030094	-16.6317	-12.9245	-9.62781
 640	1	5	0.077888	-17.5929	-15.9773	-7.42436
 641	1	1	0.09092	-16.7734	-15.0606	-10.0454
 642	1	2	0.047821	-15.7026	-16.5725	-8.90947
 643	1	2	0.068339	-16.8036	-17.2282	-10.1152
 644	1	1	-0.129023	-16.6249	-13.871	-9.07299
 645	1	2	-0.006475	-15.9788	-15.0007	-10.7998
 646	1	2	-0.010814	-17.7219	-14.9667	-10.5892
 647	1	1	-0.019372	-21.4707	-16.367	-8.77969
 648	1	2	0.00686	-22.3001	-16.9977	-8.43768
 649	1	1	-0.084968	-19.3176	-17.984	-3.08033
 650	1	1	0.309483	-20.5157	-17.4234	-2.27727
 651	1	2	-0.002	-18.9352	-18.8969	-2.60563
 652	1	3	-0.436564	-21.6986	-18.1239	-2.70225
 653	1	1	0.15357	-22.0606	-17.953	-4.0861
 654	1	4	-0.002836	-19.8983	-19.3852	-4.63255
 655	1	3	-0.349559	-20.9067	-17.5799	-4.86815