pySIMM System Object

338 atoms
351 bonds
700 angles
1041 dihedrals
0 impropers

5 atom types
5 bond types
11 angle types
8 dihedral types

-91.563140 91.563140 xlo xhi
-91.563140 91.563140 ylo yhi
-91.563140 91.563140 zlo zhi

Masses

   1	12.01	# c3
   2	1.008	# hc
   3	16.0	# os
   4	1.008	# h1
   5	1.008	# h2

Pair Coeffs

   1	0.1094	3.3996695084235347	# c3
   2	0.0157	2.649532787749369	# hc
   3	0.17	3.0000123434657784	# os
   4	0.0157	2.471353044121301	# h1
   5	0.0157	2.2931733004932333	# h2

Bond Coeffs

   1	330.6	1.0969	# c3,h1
   2	308.6	1.4316	# c3,os
   3	330.6	1.0969	# c3,hc
   4	300.9	1.5375	# c3,c3
   5	331.7	1.0961	# c3,h2

Angle Coeffs

   1	62.7	112.48	# c3,os,c3
   2	50.85	109.58	# h2,c3,os
   3	68.0	107.97	# c3,c3,os
   4	72.74	108.29	# os,c3,os
   5	46.34	109.8	# c3,c3,hc
   6	46.25	110.22	# c3,c3,h2
   7	50.8	109.78	# h1,c3,os
   8	46.39	109.56	# c3,c3,h1
   9	39.4	107.58	# hc,c3,hc
  10	39.24	108.46	# h1,c3,h1
  11	62.86	111.51	# c3,c3,c3

Dihedral Coeffs

   1	3	0.18	3	0	0.25	2	180	0.2	1	180	# c3,c3,c3,c3
   2	2	0.0	3	0	0.25	1	0	# hc,c3,c3,os
   3	1	0.3833333333333333	3	0	# X,c3,os,X
   4	1	0.15	3	0	# hc,c3,c3,hc
   5	2	0.383	3	0	0.1	2	180	# c3,c3,os,c3
   6	1	0.16	3	0	# hc,c3,c3,c3
   7	3	0.1	3	0	0.85	2	180	1.35	1	180	# c3,os,c3,os
   8	1	0.15555555555555556	3	0	# X,c3,c3,X

Atoms

   1	1	1	-0.084968	-5.01038	9.81324	-8.25494
   2	1	1	0.309483	-4.81031	10.7027	-9.49827
   3	1	2	-0.002	-4.93228	8.75212	-8.52278
   4	1	3	-0.436564	-4.84259	12.0761	-9.06798
   5	1	1	0.15357	-3.89579	12.4433	-8.04777
   6	1	4	-0.002836	-2.94152	9.93461	-7.62641
   7	1	3	-0.349559	-4.0281	11.5607	-6.917
   8	1	2	0.015925	-3.33293	9.64616	-5.17658
   9	1	1	0.230077	-3.93335	10.1574	-7.21184
  10	1	2	0.052641	-6.00966	9.9799	-7.83331
  11	1	4	-0.023623	-3.83026	10.4843	-9.94173
  12	1	1	-0.072969	-4.22421	13.8805	-7.59689
  13	1	2	0.031276	-1.37601	13.5422	-7.23402
  14	1	2	0.023309	-1.72974	15.1337	-7.94985
  15	1	2	0.030094	-1.16163	15.0147	-6.27134
  16	1	5	0.077888	-2.87796	12.3845	-8.45411
  17	1	1	0.09092	-3.25013	14.4421	-6.53492
  18	1	2	0.047821	-4.22192	14.5406	-8.47323
  19	1	2	0.068339	-5.24387	13.8992	-7.1925
  20	1	1	-0.129023	-1.79195	14.5367	-7.03131
  21	1	2	-0.006475	-3.58854	15.4445	-6.24338
  22	1	2	-0.010814	-3.28709	13.8248	-5.62843
  23	1	1	-0.019372	-4.1154	9.37537	-5.89634
  24	1	2	0.00686	-5.09123	9.59002	-5.44238
  25	1	1	-0.084968	-7.0762	8.98301	-12.2373
  26	1	1	0.309483	-7.18609	7.51405	-12.6821
  27	1	2	-0.002	-8.06527	9.36679	-11.9557
  28	1	3	-0.436564	-5.85459	7.05119	-12.9736
  29	1	1	0.15357	-4.88771	7.16879	-11.9139
  30	1	4	-0.002836	-6.52468	8.49236	-10.2095
  31	1	3	-0.349559	-4.84852	8.52733	-11.4399
  32	1	2	0.015925	-5.64347	11.1624	-11.4407
  33	1	1	0.230077	-6.11485	9.08074	-11.0405
  34	1	2	0.052641	-6.70545	9.59715	-13.068
  35	1	4	-0.023623	-7.61111	6.92977	-11.8564
  36	1	1	-0.072969	-3.49727	6.8228	-12.479
  37	1	2	0.031276	-1.21144	5.19001	-12.6963
  38	1	2	0.023309	-1.92638	3.95554	-13.7559
  39	1	2	0.030094	-1.74746	5.62496	-14.3362
  40	1	5	0.077888	-5.14886	6.49379	-11.088
  41	1	1	0.09092	-3.38321	5.34464	-12.9128
  42	1	2	0.047821	-3.28289	7.47609	-13.3345
  43	1	2	0.068339	-2.73953	7.03649	-11.7152
  44	1	1	-0.129023	-1.98081	5.00999	-13.4577
  45	1	2	-0.006475	-3.60461	4.69222	-12.0584
  46	1	2	-0.010814	-4.127	5.12336	-13.6881
  47	1	1	-0.019372	-5.90653	10.5392	-10.5762
  48	1	2	0.00686	-6.8583	10.925	-10.1881
  49	1	1	-0.084968	-7.45049	4.90363	-14.6098
  50	1	1	0.309483	-7.43866	3.70004	-13.6454
  51	1	2	-0.002	-7.64516	4.54619	-15.6296
  52	1	3	-0.436564	-8.79348	3.21117	-13.6139
  53	1	1	0.15357	-9.79851	4.13178	-13.1379
  54	1	4	-0.002836	-9.2639	5.97272	-15.0676
  55	1	3	-0.349559	-9.27338	5.47085	-13.0602
  56	1	2	0.015925	-7.51219	7.73811	-14.8264
  57	1	1	0.230077	-8.55718	5.92317	-14.2291
  58	1	2	0.052641	-6.46161	5.36973	-14.646
  59	1	4	-0.023623	-7.13163	4.0331	-12.645
  60	1	1	-0.072969	-10.2277	3.70496	-11.7206
  61	1	2	0.031276	-12.1075	2.81752	-9.81756
  62	1	2	0.023309	-12.2003	1.1326	-10.3727
  63	1	2	0.030094	-10.6755	1.76461	-9.71609
  64	1	5	0.077888	-10.662	4.11611	-13.8159
  65	1	1	0.09092	-11.1321	2.45321	-11.741
  66	1	2	0.047821	-9.33584	3.51081	-11.1113
  67	1	2	0.068339	-10.7688	4.5318	-11.2443
  68	1	1	-0.129023	-11.5532	2.01732	-10.3241
  69	1	2	-0.006475	-12.0313	2.66292	-12.3345
  70	1	2	-0.010814	-10.614	1.62096	-12.2321
  71	1	1	-0.019372	-8.06027	7.36291	-13.9525
  72	1	2	0.00686	-8.94474	8.00501	-13.8504
  73	1	1	-0.084968	-7.56013	0.521252	-12.9554
  74	1	1	0.309483	-7.2713	-0.781253	-12.1857
  75	1	2	-0.002	-8.35257	1.06388	-12.4309
  76	1	3	-0.436564	-6.09501	-1.40036	-12.7454
  77	1	1	0.15357	-4.91596	-0.583752	-12.8669
  78	1	4	-0.002836	-6.02833	1.82256	-12.1283
  79	1	3	-0.349559	-5.22936	0.606068	-13.6107
  80	1	2	0.015925	-5.49937	3.02375	-14.3009
  81	1	1	0.230077	-6.30935	1.41515	-13.108
  82	1	2	0.052641	-7.94754	0.264526	-13.949
  83	1	4	-0.023623	-8.12735	-1.44992	-12.3385
  84	1	1	-0.072969	-3.86094	-1.39601	-13.6389
  85	1	2	0.031276	-1.25911	-2.47543	-13.8213
  86	1	2	0.023309	-1.71103	-1.80487	-15.4064
  87	1	2	0.030094	-0.462986	-1.00663	-14.4248
  88	1	5	0.077888	-4.53237	-0.318639	-11.8737
  89	1	1	0.09092	-2.49649	-0.676392	-13.7051
  90	1	2	0.047821	-3.73449	-2.36847	-13.1466
  91	1	2	0.068339	-4.22729	-1.59455	-14.6539
  92	1	1	-0.129023	-1.41777	-1.54516	-14.3814
  93	1	2	-0.006475	-2.59841	0.266646	-14.2572
  94	1	2	-0.010814	-2.16615	-0.421299	-12.6899
  95	1	1	-0.019372	-6.48558	2.57809	-14.1178
  96	1	2	0.00686	-6.82996	2.18295	-15.0826
  97	1	1	-0.084968	-6.55619	-1.88882	-8.48116
  98	1	1	0.309483	-7.05852	-3.09518	-7.64228
  99	1	2	-0.002	-5.45951	-1.84519	-8.48567
 100	1	3	-0.436564	-7.452	-4.16283	-8.52894
 101	1	1	0.15357	-8.4921	-3.85429	-9.4824
 102	1	4	-0.002836	-6.40369	-2.64786	-10.4965
 103	1	3	-0.349559	-8.39506	-2.4835	-9.91481
 104	1	2	0.015925	-7.90304	0.0117491	-10.2542
 105	1	1	0.230077	-7.05504	-1.95991	-9.94134
 106	1	2	0.052641	-6.90643	-0.963091	-8.0088
 107	1	4	-0.023623	-7.93803	-2.78345	-7.06509
 108	1	1	-0.072969	-9.87494	-4.04547	-8.82417
 109	1	2	0.031276	-12.3199	-5.35946	-8.37738
 110	1	2	0.023309	-11.6709	-6.72655	-7.44576
 111	1	2	0.030094	-11.5493	-5.07714	-6.79825
 112	1	5	0.077888	-8.39271	-4.52145	-10.3487
 113	1	1	0.09092	-10.1372	-5.51004	-8.4098
 114	1	2	0.047821	-9.96108	-3.39319	-7.94677
 115	1	2	0.068339	-10.6504	-3.72688	-9.53146
 116	1	1	-0.129023	-11.5036	-5.67658	-7.71634
 117	1	2	-0.006475	-10.1002	-6.15414	-9.29778
 118	1	2	-0.010814	-9.34977	-5.85536	-7.72789
 119	1	1	-0.019372	-7.08047	-0.592139	-10.6588
 120	1	2	0.00686	-6.15687	-0.0395325	-10.4488
 121	1	1	-0.084968	-4.84838	-3.53276	-4.40888
 122	1	1	0.309483	-4.58927	-2.65129	-3.17065
 123	1	2	-0.002	-5.19936	-4.52914	-4.11579
 124	1	3	-0.436564	-4.18224	-1.35031	-3.64336
 125	1	1	0.15357	-5.04536	-0.683598	-4.59044
 126	1	4	-0.002836	-6.83141	-2.78258	-4.87251
 127	1	3	-0.349559	-5.36271	-1.55503	-5.69335
 128	1	2	0.015925	-5.04428	-3.78213	-7.17146
 129	1	1	0.230077	-5.85482	-2.86557	-5.36594
 130	1	2	0.052641	-3.89672	-3.68229	-4.93415
 131	1	4	-0.023623	-3.75319	-3.08633	-2.6108
 132	1	1	-0.072969	-4.33342	0.586911	-5.11321
 133	1	2	0.031276	-1.49254	-0.596335	-6.85788
 134	1	2	0.023309	-1.62538	-0.238235	-5.12253
 135	1	2	0.030094	-2.53816	-1.59248	-5.83029
 136	1	5	0.077888	-5.97153	-0.389551	-4.0807
 137	1	1	0.09092	-3.36016	0.383146	-6.30326
 138	1	2	0.047821	-5.10156	1.3078	-5.4176
 139	1	2	0.068339	-3.79045	1.05488	-4.28253
 140	1	1	-0.129023	-2.18393	-0.569811	-6.00656
 141	1	2	-0.006475	-3.91093	0.0202471	-7.18049
 142	1	2	-0.010814	-2.95133	1.36183	-6.58505
 143	1	1	-0.019372	-6.01392	-3.68233	-6.66641
 144	1	2	0.00686	-6.32559	-4.69853	-6.39095
 145	1	1	-0.084968	-5.35884	-4.56654	-0.665247
 146	1	1	0.309483	-5.26354	-3.86011	0.693839
 147	1	2	-0.002	-5.72039	-5.59348	-0.522677
 148	1	3	-0.436564	-6.58324	-3.86257	1.25848
 149	1	1	0.15357	-7.62883	-3.21595	0.506401
 150	1	4	-0.002836	-6.5726	-4.4695	-2.43389
 151	1	3	-0.349559	-7.57806	-3.53796	-0.90798
 152	1	2	0.015925	-6.61634	-1.97651	-2.7038
 153	1	1	0.230077	-6.33109	-3.8079	-1.59475
 154	1	2	0.052641	-4.36621	-4.64462	-1.12183
 155	1	4	-0.023623	-4.91537	-2.83362	0.535566
 156	1	1	-0.072969	-7.54425	-1.68297	0.714096
 157	1	2	0.031276	-9.38841	-1.12246	3.66628
 158	1	2	0.023309	-9.97	-1.01611	1.99218
 159	1	2	0.030094	-9.4676	-2.58456	2.66803
 160	1	5	0.077888	-8.59674	-3.56161	0.889311
 161	1	1	0.09092	-7.80122	-1.2442	2.17505
 162	1	2	0.047821	-6.55754	-1.31155	0.424647
 163	1	2	0.068339	-8.26947	-1.18988	0.0554741
 164	1	1	-0.129023	-9.24478	-1.51094	2.65042
 165	1	2	-0.006475	-7.09402	-1.74566	2.84825
 166	1	2	-0.010814	-7.59962	-0.16873	2.25853
 167	1	1	-0.019372	-5.78755	-2.48208	-2.1946
 168	1	2	0.00686	-5.46547	-1.81028	-1.39364
 169	1	1	-0.084968	-3.14447	-4.44561	3.98267
 170	1	1	0.309483	-1.91167	-3.52205	4.06012
 171	1	2	-0.002	-3.56769	-4.57536	4.98756
 172	1	3	-0.436564	-2.36718	-2.24141	4.54608
 173	1	1	0.15357	-3.51223	-1.65617	3.89112
 174	1	4	-0.002836	-5.19972	-3.90672	3.54811
 175	1	3	-0.349559	-3.92289	-2.45603	2.77068
 176	1	2	0.015925	-3.30619	-4.6167	1.23752
 177	1	1	0.230077	-4.22551	-3.84069	3.04695
 178	1	2	0.052641	-2.84715	-5.44302	3.63684
 179	1	4	-0.023623	-1.49043	-3.41448	3.0521
 180	1	1	-0.072969	-3.14301	-0.245126	3.389
 181	1	2	0.031276	-0.983975	1.18112	1.01793
 182	1	2	0.023309	-2.65702	1.65624	1.37783
 183	1	2	0.030094	-1.39511	1.83029	2.62036
 184	1	5	0.077888	-4.33888	-1.58885	4.61039
 185	1	1	0.09092	-2.04763	-0.232467	2.29613
 186	1	2	0.047821	-4.04963	0.234707	3.00004
 187	1	2	0.068339	-2.81019	0.356171	4.24383
 188	1	1	-0.129023	-1.75377	1.19692	1.79932
 189	1	2	-0.006475	-1.12258	-0.675408	2.68685
 190	1	2	-0.010814	-2.36178	-0.843423	1.44038
 191	1	1	-0.019372	-4.30839	-4.56728	1.68239
 192	1	2	0.00686	-4.63894	-5.60238	1.83903
 193	1	1	-0.084968	1.50566	-3.39741	6.00119
 194	1	1	0.309483	2.94862	-3.1003	5.51629
 195	1	2	-0.002	1.24432	-2.76269	6.85764
 196	1	3	-0.436564	2.92615	-2.20456	4.38201
 197	1	1	0.15357	2.11734	-2.57698	3.24593
 198	1	4	-0.002836	0.191246	-2.11279	4.8723
 199	1	3	-0.349559	1.09315	-3.51124	3.62854
 200	1	2	0.015925	-0.582953	-5.07827	4.81416
 201	1	1	0.230077	0.466659	-3.1758	4.87859
 202	1	2	0.052641	1.46182	-4.435	6.35396
 203	1	4	-0.023623	3.40244	-4.04733	5.20589
 204	1	1	-0.072969	2.9734	-3.18329	2.10669
 205	1	2	0.031276	5.20001	-3.42326	3.8495
 206	1	2	0.023309	5.74582	-5.01932	3.30158
 207	1	2	0.030094	5.82512	-3.62585	2.20538
 208	1	5	0.077888	1.63129	-1.66816	2.86702
 209	1	1	0.09092	3.81114	-4.43549	2.46998
 210	1	2	0.047821	2.28863	-3.45458	1.29361
 211	1	2	0.068339	3.62987	-2.40592	1.69722
 212	1	1	-0.129023	5.22762	-4.10333	2.9919
 213	1	2	-0.006475	3.27368	-5.0605	3.19353
 214	1	2	-0.010814	3.92612	-5.04937	1.56766
 215	1	1	-0.019372	-0.814391	-4.0259	5.02381
 216	1	2	0.00686	-1.18298	-3.9774	6.05684
 217	1	1	-0.084968	5.18659	-4.54532	7.27592
 218	1	1	0.309483	6.40192	-4.73664	8.21276
 219	1	2	-0.002	4.59043	-5.46602	7.2337
 220	1	3	-0.436564	5.96351	-4.52258	9.56874
 221	1	1	0.15357	5.41999	-3.2224	9.88067
 222	1	4	-0.002836	3.3786	-3.78386	8.2174
 223	1	3	-0.349559	4.98692	-2.56011	8.6787
 224	1	2	0.015925	3.33812	-1.56092	6.9928
 225	1	1	0.230077	4.27417	-3.3757	7.73134
 226	1	2	0.052641	5.55905	-4.36494	6.26034
 227	1	4	-0.023623	7.15827	-3.98478	7.96103
 228	1	1	-0.072969	6.5247	-2.37146	10.5504
 229	1	2	0.031276	4.94584	0.695611	11.3239
 230	1	2	0.023309	5.85886	0.297308	9.85785
 231	1	2	0.030094	4.3146	-0.519929	10.2001
 232	1	5	0.077888	4.57534	-3.35119	10.57
 233	1	1	0.09092	5.99434	-1.21519	11.4308
 234	1	2	0.047821	7.14249	-3.02459	11.179
 235	1	2	0.068339	7.18819	-1.95777	9.78635
 236	1	1	-0.129023	5.23167	-0.123011	10.6522
 237	1	2	-0.006475	5.34648	-1.62058	12.218
 238	1	2	-0.010814	6.84724	-0.745425	11.9376
 239	1	1	-0.019372	3.85255	-2.43786	6.57891
 240	1	2	0.00686	4.75847	-2.06111	6.08651
 241	1	1	-0.084968	8.45853	-5.81399	5.95024
 242	1	1	0.309483	9.92615	-6.13497	6.35049
 243	1	2	-0.002	8.34712	-6.03981	4.88206
 244	1	3	-0.436564	9.94229	-6.97979	7.51428
 245	1	1	0.15357	9.24153	-8.22668	7.34572
 246	1	4	-0.002836	6.49064	-6.67342	6.13966
 247	1	3	-0.349559	7.90716	-8.00796	6.82944
 248	1	2	0.015925	6.34759	-6.86297	8.60304
 249	1	1	0.230077	7.41407	-6.65228	6.73088
 250	1	2	0.052641	8.23176	-4.74713	6.03751
 251	1	4	-0.023623	10.3889	-6.69356	5.52656
 252	1	1	-0.072969	9.14153	-8.94128	8.70936
 253	1	2	0.031276	11.3776	-10.5958	10.8523
 254	1	2	0.023309	10.0064	-9.56633	11.317
 255	1	2	0.030094	9.721	-11.0917	10.4463
 256	1	5	0.077888	9.78809	-8.86393	6.63795
 257	1	1	0.09092	10.5065	-9.48233	9.18901
 258	1	2	0.047821	8.73572	-8.25434	9.46147
 259	1	2	0.068339	8.43428	-9.77528	8.62234
 260	1	1	-0.129023	10.3939	-10.2292	10.5332
 261	1	2	-0.006475	10.917	-10.1646	8.4334
 262	1	2	-0.010814	11.2194	-8.65502	9.29671
 263	1	1	-0.019372	7.04431	-6.14298	8.15458
 264	1	2	0.00686	7.92862	-6.13118	8.80114
 265	1	1	-0.084968	11.1394	-3.43431	8.73986
 266	1	1	0.309483	10.3879	-2.42583	9.62614
 267	1	2	-0.002	11.4648	-4.29427	9.33965
 268	1	3	-0.436564	9.9527	-1.34221	8.78985
 269	1	1	0.15357	9.15262	-1.68522	7.64067
 270	1	4	-0.002836	9.31536	-4.35631	8.11244
 271	1	3	-0.349559	9.78058	-2.73597	6.88351
 272	1	2	0.015925	11.0503	-4.40041	5.69217
 273	1	1	0.230077	10.1864	-3.89976	7.63057
 274	1	2	0.052641	12.0324	-2.96858	8.30439
 275	1	4	-0.023623	9.51377	-2.92183	10.0673
 276	1	1	-0.072969	9.04883	-0.427833	6.75657
 277	1	2	0.031276	6.38747	0.210592	5.96584
 278	1	2	0.023309	6.34274	-0.738274	7.46752
 279	1	2	0.030094	5.91138	0.981764	7.49296
 280	1	5	0.077888	8.15707	-2.01954	7.9504
 281	1	1	0.09092	8.05391	0.608221	7.32529
 282	1	2	0.047821	10.0423	0.0326933	6.68335
 283	1	2	0.068339	8.75331	-0.705246	5.73754
 284	1	1	-0.129023	6.58481	0.241102	7.04431
 285	1	2	-0.006475	8.19722	0.702175	8.40766
 286	1	2	-0.010814	8.26262	1.59239	6.88738
 287	1	1	-0.019372	10.8206	-4.90553	6.63936
 288	1	2	0.00686	11.7833	-5.26095	7.02958
 289	1	1	-0.084968	11.179	-0.893179	13.1359
 290	1	1	0.309483	11.6753	0.519479	13.5157
 291	1	2	-0.002	10.446	-1.25185	13.8666
 292	1	3	-0.436564	10.6146	1.46844	13.2759
 293	1	1	0.15357	9.91522	1.38843	12.0187
 294	1	4	-0.002836	9.4971	-1.28906	11.8425
 295	1	3	-0.349559	10.5164	0.396738	11.166
 296	1	2	0.015925	12.1613	-1.37539	10.3462
 297	1	1	0.230077	10.5295	-0.933292	11.7284
 298	1	2	0.052641	12.026	-1.58648	13.1956
 299	1	4	-0.023623	12.5196	0.758851	12.856
 300	1	1	-0.072969	9.97987	2.7785	11.3582
 301	1	2	0.031276	8.38844	4.29608	8.61906
 302	1	2	0.023309	8.38152	4.86795	10.2996
 303	1	2	0.030094	9.91001	4.79735	9.38977
 304	1	5	0.077888	8.86838	1.1171	12.2082
 305	1	1	0.09092	9.16968	2.84475	10.0471
 306	1	2	0.047821	9.58152	3.51534	12.0669
 307	1	2	0.068339	11.0249	3.05002	11.1645
 308	1	1	-0.129023	8.95201	4.29098	9.56052
 309	1	2	-0.006475	9.69392	2.27728	9.26832
 310	1	2	-0.010814	8.18988	2.37272	10.1958
 311	1	1	-0.019372	11.2805	-1.88215	10.762
 312	1	2	0.00686	11.6538	-2.74804	11.3236
 313	1	1	-0.084968	10.8159	2.51216	16.0951
 314	1	1	0.309483	9.30449	2.7892	16.0967
 315	1	2	-0.002	11.2655	2.94614	16.9974
 316	1	3	-0.436564	8.70261	1.89517	17.0484
 317	1	1	0.15357	8.81907	0.489135	16.7463
 318	1	4	-0.002836	11.5331	0.717562	17.042
 319	1	3	-0.349559	9.91647	0.233936	15.8458
 320	1	2	0.015925	12.9992	1.339	15.0268
 321	1	1	0.230077	11.1254	0.99238	16.0606
 322	1	2	0.052641	11.2731	3.03167	15.2449
 323	1	4	-0.023623	9.11594	3.83248	16.3774
 324	1	1	-0.072969	7.5106	0.045482	16.0557
 325	1	2	0.031276	8.68896	-2.31885	17.2539
 326	1	2	0.023309	6.95399	-2.2032	17.637
 327	1	2	0.030094	7.54033	-3.44895	16.5145
 328	1	5	0.077888	8.96428	-0.0645718	17.6824
 329	1	1	0.09092	7.47608	-1.44677	15.6502
 330	1	2	0.047821	6.66968	0.252239	16.7294
 331	1	2	0.068339	7.35205	0.65819	15.1599
 332	1	1	-0.129023	7.6777	-2.40997	16.8385
 333	1	2	-0.006475	6.50623	-1.65972	15.1828
 334	1	2	-0.010814	8.23757	-1.64623	14.8863
 335	1	1	-0.019372	12.1791	0.6112	14.9847
 336	1	2	0.00686	12.6331	-0.348195	15.2642
 337	1	2	0	-4.0509	8.29498	-6.07697
 338	1	4	0	8.88674	2.61683	15.0964

Velocities

   1	-7.39301e-05	-4.48764e-05	0.000205173
   2	-6.72292e-05	-8.15399e-05	0.000161284
   3	-0.000127323	-3.85041e-05	0.000204439
   4	-3.10559e-05	-9.62918e-05	0.000179275
   5	0.000177283	-9.00675e-05	-4.13697e-05
   6	-1.023e-05	-0.000335289	0.000168238
   7	0.000330898	-2.00395e-05	5.65473e-05
   8	-0.000232992	0.000259729	0.000324394
   9	1.51542e-05	-9.36183e-05	0.000151215
  10	-3.98116e-05	1.92649e-05	0.000261779
  11	-4.62745e-05	-9.67971e-05	0.000224857
  12	0.000231764	-1.44539e-05	-0.000134977
  13	0.000218489	0.000120496	0.000207238
  14	0.000326555	0.0001041	0.000177758
  15	1.42757e-05	9.6924e-05	0.000260105
  16	0.000103787	-0.000119055	-0.000213782
  17	0.000102977	1.76707e-05	-5.00356e-05
  18	0.000354352	-6.08849e-05	-0.000151996
  19	0.000152825	4.15082e-05	-0.000253843
  20	0.000170145	9.06569e-05	0.000161979
  21	3.602e-05	1.25519e-05	-8.62252e-05
  22	1.92682e-05	5.23355e-05	-5.37675e-05
  23	-9.14355e-05	9.86954e-05	0.00023524
  24	-0.00017523	9.18091e-05	7.38293e-05
  25	-9.52515e-05	7.0449e-05	2.28949e-05
  26	-6.00774e-05	6.56859e-05	-2.57026e-05
  27	-9.72084e-05	5.22534e-06	9.92839e-05
  28	-4.53163e-05	7.88457e-05	2.64511e-06
  29	-8.03686e-05	4.07524e-05	9.95625e-06
  30	-4.24867e-05	-6.79747e-05	-2.6742e-05
  31	-4.71052e-05	6.53657e-06	-2.32462e-05
  32	0.00011057	-4.98182e-05	0.000138606
  33	-5.52937e-05	1.27718e-05	1.21708e-05
  34	-0.000159547	0.000174573	3.13515e-05
  35	-9.90953e-05	7.6567e-05	-2.28054e-05
  36	-8.30698e-05	-0.00013142	5.47475e-05
  37	-0.000314095	-0.000625041	0.000284668
  38	-0.000520621	-0.000475373	0.000264547
  39	-3.53362e-05	-0.000560982	0.000240154
  40	-0.00013216	5.57354e-05	2.20233e-05
  41	-0.000258967	-0.000158631	9.93566e-05
  42	7.59129e-05	-0.000153781	7.54458e-05
  43	-0.000100473	-0.00022216	0.000102544
  44	-0.000302159	-0.000458563	0.000232251
  45	-0.000466998	-9.54582e-05	0.000108272
  46	-0.000256727	-0.000113025	6.17977e-05
  47	-2.09968e-05	-3.85165e-05	0.000110508
  48	-2.23106e-05	4.32037e-05	5.33424e-05
  49	0.000163643	-9.96977e-05	0.000174011
  50	-5.111e-05	-0.000183668	5.48733e-05
  51	0.000415926	3.90296e-05	8.74354e-05
  52	-9.43601e-05	-6.80834e-05	-4.39767e-06
  53	-7.12801e-05	1.08715e-05	-0.000102786
  54	0.000169153	-0.000186012	-6.50026e-05
  55	1.50562e-05	-1.11875e-05	-4.70152e-05
  56	3.79419e-05	-7.36908e-05	-7.3728e-05
  57	0.000103607	-9.13291e-05	-1.9555e-05
  58	0.000188031	-0.000129335	0.000466277
  59	-2.63534e-05	-0.000311023	9.98899e-05
  60	-0.000252427	0.000188097	-0.000104788
  61	0.000437719	-0.000113823	0.000334325
  62	0.000493232	-0.000116727	0.000337466
  63	0.000615487	8.86028e-05	-0.000137768
  64	-2.56213e-05	5.88973e-05	-0.000161955
  65	-6.35148e-05	6.13327e-05	1.58062e-05
  66	-0.000339849	0.000482085	7.64173e-05
  67	-0.000498067	0.000162018	-0.000355238
  68	0.000395451	-3.41109e-05	0.000132913
  69	-0.000256588	-7.81485e-05	0.000279842
  70	-6.90095e-05	0.00015859	-0.000134616
  71	1.38472e-05	-3.71045e-05	-6.90133e-05
  72	-2.58187e-05	-7.34813e-05	-0.000134733
  73	2.60209e-05	-0.00012642	6.24777e-05
  74	3.60219e-05	-0.000137976	4.3546e-05
  75	0.000100771	-7.62785e-05	0.000113456
  76	3.38071e-05	-0.000158728	6.92813e-05
  77	2.56015e-05	-0.000148829	4.54706e-06
  78	0.000137359	-0.000133822	-6.9775e-05
  79	-6.17122e-06	-0.000219936	-8.58203e-05
  80	-0.000123939	-0.000237082	-0.00022456
  81	3.61181e-05	-0.000178712	-3.52414e-05
  82	-6.2356e-05	-9.72176e-05	7.70135e-05
  83	4.07e-05	-0.000129973	7.36147e-06
  84	6.1294e-05	-0.000135086	5.02843e-05
  85	3.43047e-06	6.3014e-05	-0.000765464
  86	-2.22065e-05	0.000756336	-0.000464699
  87	-2.58876e-05	0.000338049	-0.000127141
  88	1.67793e-05	-7.61774e-05	-1.23725e-05
  89	-2.00481e-05	-5.58425e-06	1.18465e-05
  90	0.000163857	-0.000100839	0.000114785
  91	7.02086e-05	-0.000228914	5.88957e-05
  92	-1.99567e-05	0.000312591	-0.00036142
  93	-0.000195293	0.000123397	0.000246258
  94	9.45954e-05	-0.000209046	3.77557e-05
  95	-9.57962e-05	-0.000215232	-7.23748e-05
  96	-0.000239227	-0.00024706	1.62906e-05
  97	-2.26501e-06	-3.1673e-05	9.73135e-05
  98	-8.01882e-05	2.9597e-05	0.000194934
  99	-2.91141e-06	-0.000139007	5.98369e-05
 100	-0.000362805	0.00010025	0.000253233
 101	-0.000175438	0.000184046	4.72082e-05
 102	-0.000156907	-0.000107418	8.82387e-05
 103	-9.29844e-05	0.000189691	0.000160798
 104	-8.60182e-05	-8.85062e-05	-5.89184e-05
 105	-5.66364e-05	-3.30206e-05	0.000104554
 106	0.000107759	1.82592e-05	6.56339e-05
 107	2.54573e-05	0.000164653	0.000283246
 108	-0.000367503	0.000128318	-0.000405958
 109	-0.000112181	-0.000525758	-0.000659713
 110	0.000108637	-0.000190872	-0.000317933
 111	-0.000693129	-8.52815e-05	-0.000444782
 112	4.28682e-05	0.000268721	2.24243e-05
 113	-3.19258e-05	0.000203316	7.42208e-05
 114	-0.000895883	0.000512991	-0.000754736
 115	-0.000182688	-0.000434626	-0.00089433
 116	-0.000206297	-0.000147367	-0.000374816
 117	0.000591825	-0.000113852	0.000335831
 118	-0.000150075	0.000787757	0.000512698
 119	-1.82996e-05	-5.43714e-05	3.43625e-05
 120	-7.00201e-05	2.37362e-06	5.19326e-05
 121	0.000644951	0.000194634	3.44282e-05
 122	0.000162895	0.000269945	0.000129926
 123	0.00110017	2.7536e-05	6.19408e-06
 124	-0.000232305	0.000429205	0.000196231
 125	-0.000185469	0.000118415	-9.87276e-05
 126	0.000476633	-0.000152052	0.000287451
 127	0.000150963	-8.20694e-05	-5.60504e-05
 128	-9.99557e-05	-0.000360922	-3.92494e-05
 129	0.000368531	-0.0001138	8.57433e-05
 130	0.000742416	0.000695761	9.3284e-05
 131	0.000237644	0.000589593	0.000252302
 132	-0.000254478	8.95266e-05	-0.00023158
 133	0.000122201	-0.000791451	0.000882006
 134	-8.96637e-05	-1.16621e-05	0.000709229
 135	-0.00021824	-0.000132825	0.00112198
 136	-0.000359809	5.03313e-05	-0.000346604
 137	0.00020529	-0.000177219	0.000188261
 138	-0.000274545	-0.000149403	-0.000759613
 139	-0.000645881	0.000458816	-0.000198665
 140	-2.174e-05	-0.000267551	0.000764377
 141	0.000499182	-0.000273957	5.52089e-05
 142	0.000416869	-0.000271551	0.000162635
 143	-8.2298e-06	-0.00011683	0.000107487
 144	-0.000146955	-3.18394e-05	0.000229988
 145	0.000175526	-2.8346e-05	-1.68398e-05
 146	0.000187718	8.86423e-05	-8.43592e-05
 147	0.000201033	-4.50502e-05	0.000102231
 148	0.000230982	9.87405e-05	5.3083e-05
 149	0.00012005	-0.00011966	4.61242e-05
 150	0.00024115	-0.000155121	-3.49162e-05
 151	0.000100895	-0.000256557	5.26623e-05
 152	-5.56552e-05	-0.000211333	-0.000103299
 153	0.000130104	-0.000138767	-3.26737e-05
 154	0.000157539	-3.41196e-05	-3.64023e-05
 155	0.000141808	8.56339e-05	-0.000152269
 156	-0.000162795	-5.7955e-05	-0.000101841
 157	0.000212344	5.63169e-06	0.000169847
 158	-0.000255081	-0.000744571	0.000317369
 159	0.000599645	-0.000309906	0.000639517
 160	0.000180345	-0.000231886	0.00013896
 161	-0.000111542	0.000244859	-0.000149731
 162	-0.000242143	8.96238e-05	-0.000231788
 163	-0.000295404	-0.000294532	-0.000122699
 164	0.000139993	-0.000237728	0.000253417
 165	0.000272633	0.000773696	-0.000153681
 166	-0.00057008	0.000361629	-0.000534959
 167	-5.67822e-06	-6.44467e-05	-9.65073e-06
 168	-0.00024182	2.97679e-07	2.2653e-05
 169	0.000395352	5.95719e-05	-0.000353179
 170	8.02339e-05	0.000430674	-3.08273e-05
 171	0.000421463	-0.000462287	-0.000397535
 172	-0.000376647	0.000153127	0.000247637
 173	-0.000272872	0.000125224	-1.53395e-05
 174	0.000241438	-0.000279086	-8.26476e-05
 175	-8.08664e-05	6.14281e-05	-3.62578e-05
 176	0.000287217	0.000337136	-0.000228383
 177	0.000189757	-4.28024e-06	-0.000151693
 178	0.000745904	0.000306817	-0.000709314
 179	0.000159917	0.000788155	4.81103e-05
 180	-8.18663e-05	3.93399e-05	-8.03204e-05
 181	0.00103911	-0.000567821	0.000539962
 182	0.00100703	-0.000153482	-0.000119258
 183	0.000584664	-0.00034465	0.000346613
 184	-0.00040295	0.000225466	-0.000166712
 185	0.000245004	-0.00022354	0.000233063
 186	6.49149e-05	6.47338e-05	-0.000410296
 187	-0.000275743	0.000115283	-6.64083e-05
 188	0.000739336	-0.000325846	0.000253348
 189	2.57677e-05	-0.000417834	0.000507565
 190	0.000340489	-0.000184831	0.000165002
 191	0.000279839	0.000120859	-0.000186435
 192	0.000456552	5.65478e-05	-0.000305724
 193	0.000161799	0.000241803	-5.66009e-05
 194	0.000203021	0.000353932	0.000109513
 195	7.52125e-05	1.96075e-05	8.41299e-05
 196	0.000341336	0.000103666	-0.000107434
 197	0.00028835	2.58888e-05	-6.5023e-05
 198	0.000266396	0.000412023	-0.000118193
 199	0.000174222	0.000196703	5.43249e-06
 200	2.38485e-05	0.000464713	0.000114203
 201	0.000173269	0.000388343	-6.57551e-05
 202	0.000180297	0.000165526	-0.000316722
 203	0.000291767	0.000351152	0.000258534
 204	0.000104811	-0.000161398	-0.000129387
 205	0.0002161	-0.000978043	0.000237571
 206	0.000417914	-0.000418872	-0.00115664
 207	-0.000106637	0.000447105	-6.54815e-05
 208	0.000369784	3.86125e-05	-0.000157699
 209	0.000118349	-0.000186017	-0.000235375
 210	-7.40142e-05	-0.000240991	3.33041e-05
 211	3.21975e-05	-0.000240081	-0.00037166
 212	0.00016447	-0.000284244	-0.00030897
 213	0.000160839	-0.000258857	-0.000270247
 214	8.72392e-05	-6.08083e-05	-0.000331056
 215	9.41395e-05	0.000504311	2.03818e-06
 216	8.37284e-05	0.000619156	-1.36717e-05
 217	-0.000578931	0.000184987	0.000377819
 218	-0.000326827	5.91617e-05	-7.64655e-06
 219	-0.000944162	0.000374999	0.000962812
 220	9.16011e-06	-2.78921e-05	0.000105477
 221	0.000153262	-2.31831e-05	0.000259008
 222	-4.85027e-05	0.00106777	0.000572826
 223	0.000545965	0.000331407	0.000272767
 224	-7.02741e-05	0.000510221	0.000114549
 225	1.56966e-05	0.000644821	0.000369789
 226	-0.000915599	-0.000324859	0.000168858
 227	-0.000273989	-2.55618e-05	-0.000108876
 228	0.000103939	-0.000540534	0.000976439
 229	0.000246938	-0.000634027	0.0014269
 230	0.00104383	-0.000114919	0.00168175
 231	0.000743954	-2.5866e-05	0.000529284
 232	-7.90632e-05	-0.000109879	-6.2055e-05
 233	-0.00013187	-0.000815367	0.00120981
 234	-0.000407687	-0.000936529	0.00109535
 235	0.000611939	-0.00048094	0.00141792
 236	0.000531866	-0.000340484	0.00120171
 237	-0.000715584	-0.00107345	0.000615092
 238	-0.000363681	-0.00124843	0.00198634
 239	4.00159e-05	0.000547912	0.000217655
 240	5.35853e-05	0.000587038	0.000286669
 241	-0.000195176	0.000560113	-5.34474e-06
 242	-0.000222262	0.000188264	-0.000167495
 243	-0.000225502	0.00107001	-9.93922e-05
 244	-0.00042318	0.000256026	-0.000125193
 245	-0.000514096	0.00032256	-0.000185157
 246	-0.000261019	0.000576646	-0.000453776
 247	-0.000390124	0.000371926	-0.000446518
 248	-0.000722724	-1.23952e-07	-0.00060231
 249	-0.000334946	0.000405915	-0.000319599
 250	-8.72737e-05	0.000547181	0.000448916
 251	-0.000459944	-8.09247e-06	-0.00015284
 252	-0.000596528	0.000325738	-0.000200707
 253	-4.28916e-05	0.000365867	-0.00068054
 254	0.000222757	0.00043054	-1.23963e-05
 255	-0.000230507	0.000620882	-0.000244422
 256	-0.000432819	0.000307246	-0.000111697
 257	-0.00042821	0.000801322	-0.00013352
 258	-0.000906662	0.000176701	-0.000228082
 259	-0.000316918	0.000115	-0.000314423
 260	-0.000123752	0.000539701	-0.000254694
 261	-0.00013334	0.00110533	-0.000229348
 262	-0.000778462	0.0010946	2.92195e-05
 263	-0.000526636	1.43908e-05	-0.000246239
 264	-0.000652011	-0.000254907	-8.04965e-05
 265	0.00038025	0.000274031	-0.00036414
 266	0.000141774	7.83303e-06	-0.000249353
 267	0.000760984	0.000334525	-0.000476598
 268	-0.000253273	-2.15011e-05	-0.000216261
 269	-0.000145794	-0.000152046	-0.000332902
 270	0.000386242	-3.49703e-05	1.4238e-05
 271	9.70026e-06	-0.00013732	-0.000204462
 272	0.000194249	-9.20353e-05	-0.000241171
 273	0.000291077	-1.55009e-05	-0.000178571
 274	0.00018562	0.00055113	-0.000510284
 275	0.000277361	-0.000349196	-0.000345041
 276	-6.56836e-05	-0.000461446	-0.000838506
 277	0.00011161	-0.00161446	-0.00158546
 278	-0.000566256	0.000763023	-6.56665e-05
 279	-5.05239e-05	0.000895338	-0.00286719
 280	-0.000185361	-0.000142316	-0.000344628
 281	-0.000114659	2.6413e-06	-0.00175031
 282	-2.93594e-05	-0.000538659	-0.000963004
 283	0.000123518	-0.000946349	-0.000786378
 284	-0.000156054	9.38336e-06	-0.00157574
 285	-0.000217095	0.000914131	-0.00180406
 286	1.56111e-05	-0.000386484	-0.0025843
 287	0.00011843	-3.06153e-05	-0.000209394
 288	7.82031e-05	-0.000278557	-0.000250539
 289	0.000121859	-0.000207367	0.00025911
 290	-0.000125428	-5.83527e-05	0.000148347
 291	0.000326553	-0.00027722	0.000452831
 292	-0.000326096	-0.000342071	0.000218287
 293	-0.000489369	-0.000432586	0.00036652
 294	-3.24495e-05	-0.000890489	0.000550932
 295	-0.000759171	-0.000523479	0.000349345
 296	-0.000171382	0.000342193	0.000142656
 297	-0.000192686	-0.000489295	0.000361161
 298	0.00022373	-6.26361e-05	0.000139293
 299	-0.000205701	5.95158e-05	8.38547e-05
 300	-0.000136051	-0.000515464	0.000286853
 301	0.00148335	-6.5971e-05	-0.000359853
 302	0.00182041	0.000629141	-0.000602952
 303	0.00189177	-0.00128594	-0.000333371
 304	-0.000572815	-0.000189934	0.000535871
 305	-0.000118583	-0.000259632	0.000305049
 306	0.000245691	-0.000317634	0.00025215
 307	-2.11769e-05	-0.000962894	0.000206163
 308	0.00136613	-0.000246274	-0.000273933
 309	-0.000640714	-0.00106625	0.00052315
 310	-0.00057737	0.000714003	0.00050992
 311	-4.35283e-05	-2.45076e-05	6.96365e-06
 312	0.000229214	-5.86604e-05	-0.000267571
 313	-0.000554226	0.000616872	-0.000200805
 314	-0.000648373	0.00030673	0.000789534
 315	-0.000128424	0.000990893	-0.00061486
 316	-0.000109063	-0.000251811	0.000672293
 317	6.85016e-06	-0.000140628	0.000108139
 318	-0.000168063	0.00103371	0.000148313
 319	4.53045e-05	0.000358748	0.000125335
 320	-0.000130707	0.000440191	4.00455e-05
 321	-0.00019854	0.000641899	6.21499e-05
 322	-0.0012299	0.000569188	-0.000581551
 323	-0.000677965	8.61511e-05	0.00144439
 324	0.000178395	-0.000120425	-0.000256252
 325	-0.000313176	7.10472e-05	0.000524268
 326	-0.000600639	-0.000896818	-0.000487589
 327	0.000746301	-0.000310312	-0.000413388
 328	-6.06586e-05	-0.00043993	-7.17173e-05
 329	7.40071e-05	-0.000231956	-4.43749e-05