pySIMM System Object

890 atoms
926 bonds
1850 angles
2766 dihedrals
0 impropers

5 atom types
5 bond types
11 angle types
8 dihedral types

-128.580090 128.580090 xlo xhi
-128.580090 128.580090 ylo yhi
-128.580090 128.580090 zlo zhi

Masses

   1	12.01	# c3
   2	1.008	# hc
   3	16.0	# os
   4	1.008	# h1
   5	1.008	# h2

Pair Coeffs

   1	0.1094	3.3996695084235347	# c3
   2	0.0157	2.649532787749369	# hc
   3	0.17	3.0000123434657784	# os
   4	0.0157	2.471353044121301	# h1
   5	0.0157	2.2931733004932333	# h2

Bond Coeffs

   1	330.6	1.0969	# c3,h1
   2	308.6	1.4316	# c3,os
   3	330.6	1.0969	# c3,hc
   4	300.9	1.5375	# c3,c3
   5	331.7	1.0961	# c3,h2

Angle Coeffs

   1	62.7	112.48	# c3,os,c3
   2	50.85	109.58	# h2,c3,os
   3	68.0	107.97	# c3,c3,os
   4	72.74	108.29	# os,c3,os
   5	46.34	109.8	# c3,c3,hc
   6	46.25	110.22	# c3,c3,h2
   7	50.8	109.78	# h1,c3,os
   8	46.39	109.56	# c3,c3,h1
   9	39.4	107.58	# hc,c3,hc
  10	39.24	108.46	# h1,c3,h1
  11	62.86	111.51	# c3,c3,c3

Dihedral Coeffs

   1	3	0.18	3	0	0.25	2	180	0.2	1	180	# c3,c3,c3,c3
   2	2	0.0	3	0	0.25	1	0	# hc,c3,c3,os
   3	1	0.3833333333333333	3	0	# X,c3,os,X
   4	1	0.15	3	0	# hc,c3,c3,hc
   5	2	0.383	3	0	0.1	2	180	# c3,c3,os,c3
   6	1	0.16	3	0	# hc,c3,c3,c3
   7	3	0.1	3	0	0.85	2	180	1.35	1	180	# c3,os,c3,os
   8	1	0.15555555555555556	3	0	# X,c3,c3,X

Atoms

   1	1	1	-0.084968	29.3987	-34.2724	-8.63285
   2	1	1	0.309483	30.7312	-34.8587	-9.13956
   3	1	2	-0.002	29.3448	-33.1975	-8.84595
   4	1	3	-0.436564	30.7068	-36.2785	-8.90421
   5	1	1	0.15357	29.6074	-36.9961	-9.49402
   6	1	4	-0.002836	28.285	-34.8064	-10.4119
   7	1	3	-0.349559	28.3614	-36.4032	-9.08059
   8	1	2	0.015925	26.0511	-35.0742	-9.32283
   9	1	1	0.230077	28.2326	-34.9937	-9.33147
  10	1	2	0.052641	29.3232	-34.4024	-7.54582
  11	1	4	-0.023623	30.8192	-34.6738	-10.2179
  12	1	1	-0.072969	29.664	-38.4486	-8.98004
  13	1	2	0.031276	28.4433	-38.5576	-11.5989
  14	1	2	0.023309	29.6263	-39.8745	-11.4068
  15	1	2	0.030094	27.8874	-40.2335	-11.4467
  16	1	5	0.077888	29.6938	-36.9663	-10.5878
  17	1	1	0.09092	28.5622	-39.3644	-9.56284
  18	1	2	0.047821	30.6476	-38.8735	-9.21632
  19	1	2	0.068339	29.5805	-38.4396	-7.88622
  20	1	1	-0.129023	28.6375	-39.5133	-11.0971
  21	1	2	-0.006475	28.6552	-40.3587	-9.10773
  22	1	2	-0.010814	27.5716	-38.9847	-9.28205
  23	1	1	-0.019372	26.8569	-34.5357	-8.80853
  24	1	2	0.00686	26.7632	-34.7218	-7.73101
  25	1	1	-0.084968	33.4538	-32.264	-7.93249
  26	1	1	0.309483	33.5883	-30.7489	-8.17049
  27	1	2	-0.002	33.4881	-32.4813	-6.85711
  28	1	3	-0.436564	33.4668	-30.5215	-9.58636
  29	1	1	0.15357	32.2446	-30.986	-10.187
  30	1	4	-0.002836	31.2958	-32.2815	-7.99435
  31	1	3	-0.349559	32.0819	-32.39	-9.91708
  32	1	2	0.015925	32.872	-34.7776	-8.84086
  33	1	1	0.230077	32.1245	-32.7642	-8.52781
  34	1	2	0.052641	34.2946	-32.789	-8.40346
  35	1	4	-0.023623	32.7703	-30.2391	-7.64581
  36	1	1	-0.072969	32.3322	-30.7973	-11.7133
  37	1	2	0.031276	31.47	-29.522	-14.0806
  38	1	2	0.023309	32.443	-28.0478	-13.8932
  39	1	2	0.030094	33.2475	-29.6164	-14.1139
  40	1	5	0.077888	31.3907	-30.4276	-9.78055
  41	1	1	0.09092	32.4111	-29.3092	-12.1175
  42	1	2	0.047821	33.21	-31.3323	-12.0975
  43	1	2	0.068339	31.449	-31.2536	-12.1767
  44	1	1	-0.129023	32.3913	-29.1148	-13.6455
  45	1	2	-0.006475	31.5705	-28.7605	-11.6736
  46	1	2	-0.010814	33.3316	-28.8691	-11.7192
  47	1	1	-0.019372	31.979	-34.2985	-8.41895
  48	1	2	0.00686	31.9428	-34.5786	-7.35805
  49	1	1	-0.084968	35.4927	-28.2223	-9.26314
  50	1	1	0.309483	34.5803	-27.0723	-9.72742
  51	1	2	-0.002	36.5394	-27.8917	-9.28029
  52	1	3	-0.436564	34.5563	-26.1095	-8.66004
  53	1	1	0.15357	33.9561	-26.5664	-7.42895
  54	1	4	-0.002836	35.974	-28.3752	-7.17179
  55	1	3	-0.349559	33.9454	-28.0079	-7.35947
  56	1	2	0.015925	35.7703	-30.7291	-8.17016
  57	1	1	0.230077	35.141	-28.675	-7.82089
  58	1	2	0.052641	35.4289	-29.0519	-9.97539
  59	1	4	-0.023623	33.5662	-27.458	-9.89279
  60	1	1	-0.072969	32.49	-26.0893	-7.39445
  61	1	2	0.031276	30.3101	-24.5124	-6.55055
  62	1	2	0.023309	30.8647	-22.9797	-7.25926
  63	1	2	0.030094	30.4654	-24.3489	-8.31645
  64	1	5	0.077888	34.5111	-26.1556	-6.57552
  65	1	1	0.09092	32.3753	-24.5542	-7.27159
  66	1	2	0.047821	31.977	-26.4269	-8.30386
  67	1	2	0.068339	31.9779	-26.5589	-6.54558
  68	1	1	-0.129023	30.9138	-24.0717	-7.35385
  69	1	2	-0.006475	32.8127	-24.2296	-6.31878
  70	1	2	-0.010814	32.9531	-24.0715	-8.06768
  71	1	1	-0.019372	34.9491	-30.2047	-7.66482
  72	1	2	0.00686	35.043	-30.45	-6.5992
  73	1	1	-0.084968	34.595	-23.8663	-11.0018
  74	1	1	0.309483	33.7101	-22.7508	-11.592
  75	1	2	-0.002	34.5882	-23.8085	-9.90722
  76	1	3	-0.436564	33.642	-22.9324	-13.0227
  77	1	1	0.15357	33.2808	-24.2375	-13.5184
  78	1	4	-0.002836	33.1159	-25.4597	-11.1242
  79	1	3	-0.349559	34.1225	-25.2386	-12.9196
  80	1	2	0.015925	35.1099	-27.1709	-11.8125
  81	1	1	0.230077	34.1339	-25.2579	-11.4822
  82	1	2	0.052641	35.6307	-23.697	-11.3214
  83	1	4	-0.023623	34.1996	-21.7914	-11.3831
  84	1	1	-0.072969	33.5065	-24.2386	-15.0415
  85	1	2	0.031276	32.6255	-24.7292	-17.6764
  86	1	2	0.023309	34.284	-25.3534	-17.5114
  87	1	2	0.030094	32.9214	-26.4811	-17.6778
  88	1	5	0.077888	32.2284	-24.4503	-13.2909
  89	1	1	0.09092	33.0712	-25.5638	-15.7041
  90	1	2	0.047821	32.9413	-23.4086	-15.4838
  91	1	2	0.068339	34.5676	-24.0516	-15.249
  92	1	1	-0.129023	33.2362	-25.5275	-17.236
  93	1	2	-0.006475	33.6654	-26.394	-15.3022
  94	1	2	-0.010814	32.021	-25.7691	-15.4598
  95	1	1	-0.019372	35.0698	-26.4035	-11.0287
  96	1	2	0.00686	36.0959	-26.0342	-10.9035
  97	1	1	-0.084968	31.0566	-21.343	-12.8394
  98	1	1	0.309483	29.7514	-20.5314	-12.9824
  99	1	2	-0.002	31.8521	-20.8972	-13.4503
 100	1	3	-0.436564	29.7477	-19.512	-11.9646
 101	1	1	0.15357	29.6886	-20.0078	-10.6109
 102	1	4	-0.002836	32.1831	-20.5454	-11.1674
 103	1	3	-0.349559	30.3676	-21.2803	-10.5104
 104	1	2	0.015925	32.3808	-22.7143	-9.88895
 105	1	1	0.230077	31.5256	-21.403	-11.3629
 106	1	2	0.052641	30.8827	-22.3528	-13.2289
 107	1	4	-0.023623	28.9064	-21.211	-12.8152
 108	1	1	-0.072969	28.2099	-20.2071	-10.2086
 109	1	2	0.031276	25.8302	-19.4522	-8.87833
 110	1	2	0.023309	25.3477	-18.1744	-10.0151
 111	1	2	0.030094	25.4306	-19.8621	-10.563
 112	1	5	0.077888	30.164	-19.2783	-9.94247
 113	1	1	0.09092	27.3815	-18.9053	-10.3201
 114	1	2	0.047821	27.7569	-20.9845	-10.8361
 115	1	2	0.068339	28.1725	-20.5732	-9.1753
 116	1	1	-0.129023	25.9078	-19.113	-9.91895
 117	1	2	-0.006475	27.825	-18.1323	-9.67945
 118	1	2	-0.010814	27.4118	-18.525	-11.3486
 119	1	1	-0.019372	32.2855	-22.6941	-10.9807
 120	1	2	0.00686	31.6971	-23.5777	-11.2572
 121	1	1	-0.084968	28.063	-18.361	-15.793
 122	1	1	0.309483	26.7274	-17.5897	-15.8075
 123	1	2	-0.002	28.8932	-17.687	-16.0402
 124	1	3	-0.436564	25.6838	-18.4881	-15.3767
 125	1	1	0.15357	25.8815	-19.2114	-14.1429
 126	1	4	-0.002836	28.3604	-18.2226	-13.6563
 127	1	3	-0.349559	27.166	-19.8574	-14.1379
 128	1	2	0.015925	29.5444	-20.6375	-15.1404
 129	1	1	0.230077	28.2936	-19.0098	-14.4169
 130	1	2	0.052641	28.0363	-19.1383	-16.5669
 131	1	4	-0.023623	26.5262	-17.2811	-16.8408
 132	1	1	-0.072969	24.766	-20.2711	-13.9926
 133	1	2	0.031276	24.9533	-22.2816	-16.8991
 134	1	2	0.023309	24.0679	-20.7561	-16.6846
 135	1	2	0.030094	25.8485	-20.7707	-16.6698
 136	1	5	0.077888	25.8267	-18.5089	-13.3016
 137	1	1	0.09092	24.9337	-21.5587	-14.8408
 138	1	2	0.047821	24.711	-20.561	-12.9365
 139	1	2	0.068339	23.8018	-19.806	-14.2314
 140	1	1	-0.129023	24.9513	-21.3232	-16.3657
 141	1	2	-0.006475	25.8483	-22.0878	-14.5443
 142	1	2	-0.010814	24.1014	-22.2342	-14.6059
 143	1	1	-0.019372	29.5786	-19.864	-14.3626
 144	1	2	0.00686	30.4474	-19.2284	-14.5777
 145	1	1	-0.084968	24.2217	-15.8101	-14.4193
 146	1	1	0.309483	24.3294	-15.512	-12.9171
 147	1	2	-0.002	23.3782	-15.2493	-14.8434
 148	1	3	-0.436564	24.5373	-14.0973	-12.7942
 149	1	1	0.15357	25.6874	-13.5232	-13.4458
 150	1	4	-0.002836	25.3107	-15.4021	-16.2276
 151	1	3	-0.349559	25.8709	-14.0387	-14.7899
 152	1	2	0.015925	27.6478	-15.7491	-15.1704
 153	1	1	0.230077	25.5166	-15.3968	-15.1499
 154	1	2	0.052641	23.9964	-16.8683	-14.5805
 155	1	4	-0.023623	25.1773	-16.0558	-12.4835
 156	1	1	-0.072969	26.9309	-13.769	-12.5539
 157	1	2	0.031276	29.7035	-12.4101	-14.2721
 158	1	2	0.023309	29.1991	-14.11	-14.2222
 159	1	2	0.030094	28.1787	-12.8938	-15.0307
 160	1	5	0.077888	25.5294	-12.439	-13.511
 161	1	1	0.09092	28.111	-12.8102	-12.8385
 162	1	2	0.047821	26.6302	-13.6221	-11.5087
 163	1	2	0.068339	27.2737	-14.8045	-12.6247
 164	1	1	-0.129023	28.8372	-13.0757	-14.1733
 165	1	2	-0.006475	27.7572	-11.7716	-12.8132
 166	1	2	-0.010814	28.8414	-12.9098	-12.0255
 167	1	1	-0.019372	26.7436	-16.3172	-14.9202
 168	1	2	0.00686	26.8322	-16.5896	-13.8645
 169	1	1	-0.084968	22.8196	-14.0356	-10.3697
 170	1	1	0.309483	21.8654	-13.8249	-9.17717
 171	1	2	-0.002	23.7787	-13.5376	-10.1764
 172	1	3	-0.436564	22.219	-14.7868	-8.16721
 173	1	1	0.15357	22.0338	-16.169	-8.5425
 174	1	4	-0.002836	24.065	-15.8127	-10.2384
 175	1	3	-0.349559	22.081	-16.3271	-9.97708
 176	1	2	0.015925	22.9268	-17.0009	-12.2407
 177	1	1	0.230077	23.0841	-15.5392	-10.6491
 178	1	2	0.052641	22.3849	-13.5482	-11.2508
 179	1	4	-0.023623	20.8378	-14.009	-9.5159
 180	1	1	-0.072969	20.6446	-16.6416	-8.06676
 181	1	2	0.031276	19.036	-18.1911	-6.34332
 182	1	2	0.023309	19.0532	-17.0698	-4.96568
 183	1	2	0.030094	18.2964	-16.5807	-6.49514
 184	1	5	0.077888	22.8184	-16.7775	-8.07444
 185	1	1	0.09092	20.4843	-16.5624	-6.53228
 186	1	2	0.047821	19.8655	-16.0403	-8.55115
 187	1	2	0.068339	20.4964	-17.6782	-8.39333
 188	1	1	-0.129023	19.1345	-17.1362	-6.05772
 189	1	2	-0.006475	21.2986	-17.1182	-6.04991
 190	1	2	-0.010814	20.5646	-15.5192	-6.20088
 191	1	1	-0.019372	23.0479	-15.9135	-12.1512
 192	1	2	0.00686	22.1667	-15.4634	-12.6269
 193	1	1	-0.084968	20.9995	-10.7297	-6.87543
 194	1	1	0.309483	19.6001	-10.125	-6.61747
 195	1	2	-0.002	21.5721	-10.7799	-5.94023
 196	1	3	-0.436564	18.7371	-11.1825	-6.15898
 197	1	1	0.15357	18.5188	-12.257	-7.09875
 198	1	4	-0.002836	21.0425	-12.8896	-6.68113
 199	1	3	-0.349559	19.5957	-12.3209	-8.05551
 200	1	2	0.015925	21.8233	-11.6677	-9.38903
 201	1	1	0.230077	20.9065	-12.1527	-7.4836
 202	1	2	0.052641	21.5514	-10.0597	-7.54568
 203	1	4	-0.023623	19.2101	-9.73403	-7.56648
 204	1	1	-0.072969	17.1987	-11.9834	-7.85195
 205	1	2	0.031276	16.0546	-14.5511	-7.62109
 206	1	2	0.023309	16.485	-15.1472	-9.23886
 207	1	2	0.030094	17.7614	-14.8072	-8.05821
 208	1	5	0.077888	18.4526	-13.2046	-6.54853
 209	1	1	0.09092	16.8733	-13.0193	-8.95447
 210	1	2	0.047821	16.3766	-11.9622	-7.12568
 211	1	2	0.068339	17.2408	-10.9862	-8.30601
 212	1	1	-0.129023	16.7885	-14.4683	-8.43237
 213	1	2	-0.006475	15.914	-12.7522	-9.41568
 214	1	2	-0.010814	17.6264	-12.9655	-9.75087
 215	1	1	-0.019372	21.9602	-12.4021	-8.58481
 216	1	2	0.00686	22.9654	-12.2415	-8.17372
 217	1	1	-0.084968	17.4037	-8.98723	-4.24702
 218	1	1	0.309483	16.0638	-8.2539	-4.0465
 219	1	2	-0.002	17.2175	-10.0497	-4.44176
 220	1	3	-0.436564	16.3339	-6.84492	-3.89106
 221	1	1	0.15357	17.1676	-6.20365	-4.87929
 222	1	4	-0.002836	17.6524	-8.42192	-6.3352
 223	1	3	-0.349559	18.3816	-6.95651	-5.06828
 224	1	2	0.015925	20.3023	-8.19861	-5.96001
 225	1	1	0.230077	18.2114	-8.34621	-5.39377
 226	1	2	0.052641	17.982	-8.93042	-3.31649
 227	1	4	-0.023623	15.6122	-8.63043	-3.12034
 228	1	1	-0.072969	17.5317	-4.8045	-4.34328
 229	1	2	0.031276	18.4309	-3.03102	-7.25466
 230	1	2	0.023309	17.5437	-4.56573	-7.20871
 231	1	2	0.030094	16.833	-3.1008	-6.485
 232	1	5	0.077888	16.6246	-6.12285	-5.82941
 233	1	1	0.09092	18.4359	-3.98163	-5.29131
 234	1	2	0.047821	16.6088	-4.24445	-4.14734
 235	1	2	0.068339	18.04	-4.91988	-3.37795
 236	1	1	-0.129023	17.7672	-3.6536	-6.642
 237	1	2	-0.006475	18.7016	-3.04014	-4.79407
 238	1	2	-0.010814	19.378	-4.51503	-5.47028
 239	1	1	-0.019372	19.6142	-8.97055	-5.59162
 240	1	2	0.00686	20.0178	-9.31815	-4.6317
 241	1	1	-0.084968	13.339	-6.54946	-5.06652
 242	1	1	0.309483	11.8528	-6.27092	-4.76261
 243	1	2	-0.002	13.9683	-5.93498	-4.4123
 244	1	3	-0.436564	11.0476	-7.13117	-5.59042
 245	1	1	0.15357	11.3194	-8.54174	-5.50092
 246	1	4	-0.002836	13.4061	-8.31237	-3.80041
 247	1	3	-0.349559	12.7235	-8.78655	-5.69824
 248	1	2	0.015925	15.0373	-9.57416	-5.40725
 249	1	1	0.230077	13.6179	-8.04969	-4.84521
 250	1	2	0.052641	13.5779	-6.2881	-6.10336
 251	1	4	-0.023623	11.6685	-6.52141	-3.70983
 252	1	1	-0.072969	10.5543	-9.26217	-6.62692
 253	1	2	0.031276	8.51391	-9.51476	-8.55328
 254	1	2	0.023309	8.54259	-10.9965	-7.56823
 255	1	2	0.030094	7.18816	-9.85602	-7.42104
 256	1	5	0.077888	11.0114	-8.92286	-4.51826
 257	1	1	0.09092	9.02224	-9.17611	-6.45362
 258	1	2	0.047821	10.8416	-8.82883	-7.59345
 259	1	2	0.068339	10.8584	-10.3159	-6.64473
 260	1	1	-0.129023	8.27263	-9.93294	-7.56784
 261	1	2	-0.006475	8.73899	-9.59516	-5.47952
 262	1	2	-0.010814	8.70296	-8.12617	-6.45827
 263	1	1	-0.019372	15.0557	-8.49635	-5.19907
 264	1	2	0.00686	15.3841	-8.01166	-6.1267
 265	1	1	-0.084968	10.5453	-3.11091	-6.72023
 266	1	1	0.309483	10.6632	-2.73306	-8.20701
 267	1	2	-0.002	9.49803	-3.31446	-6.46228
 268	1	3	-0.436564	12.0524	-2.48732	-8.49277
 269	1	1	0.15357	12.9476	-3.57704	-8.19545
 270	1	4	-0.002836	11.0506	-5.16741	-7.11348
 271	1	3	-0.349559	12.763	-4.00872	-6.83439
 272	1	2	0.015925	12.0064	-4.12935	-4.38373
 273	1	1	0.230077	11.4143	-4.35633	-6.47004
 274	1	2	0.052641	10.8977	-2.28621	-6.09084
 275	1	4	-0.023623	10.3248	-3.58574	-8.81005
 276	1	1	-0.072969	14.4005	-3.085	-8.3382
 277	1	2	0.031276	13.6281	-4.07666	-10.9396
 278	1	2	0.023309	15.0151	-3.37938	-11.7953
 279	1	2	0.030094	15.2806	-4.6039	-10.5367
 280	1	5	0.077888	12.7529	-4.41786	-8.87373
 281	1	1	0.09092	14.7712	-2.61965	-9.76514
 282	1	2	0.047821	14.5665	-2.25712	-7.6374
 283	1	2	0.068339	15.0763	-3.89431	-8.03831
 284	1	1	-0.129023	14.6654	-3.7407	-10.8203
 285	1	2	-0.006475	14.1347	-1.77659	-10.0624
 286	1	2	-0.010814	15.8022	-2.24365	-9.75385
 287	1	1	-0.019372	11.3937	-4.8091	-4.98973
 288	1	2	0.00686	10.3691	-4.71915	-4.60632
 289	1	1	-0.084968	9.89126	1.05211	-8.72679
 290	1	1	0.309483	10.1551	2.31081	-7.88644
 291	1	2	-0.002	10.5344	1.05368	-9.61643
 292	1	3	-0.436564	9.28433	2.24105	-6.7453
 293	1	1	0.15357	9.46457	1.0855	-5.90343
 294	1	4	-0.002836	11.2428	-0.187724	-7.59026
 295	1	3	-0.349559	9.35441	-0.12001	-6.69272
 296	1	2	0.015925	8.77186	-1.71468	-8.53838
 297	1	1	0.230077	10.1822	-0.194624	-7.87287
 298	1	2	0.052641	8.84859	1.04083	-9.0691
 299	1	4	-0.023623	11.2024	2.29386	-7.56064
 300	1	1	-0.072969	8.33804	1.10476	-4.84808
 301	1	2	0.031276	9.04395	-1.64251	-2.74537
 302	1	2	0.023309	8.10067	-1.63058	-4.25151
 303	1	2	0.030094	9.85519	-1.32817	-4.28684
 304	1	5	0.077888	10.4502	1.13734	-5.42161
 305	1	1	0.09092	8.68222	0.357106	-3.53892
 306	1	2	0.047821	8.10955	2.1473	-4.59274
 307	1	2	0.068339	7.42314	0.685244	-5.28468
 308	1	1	-0.129023	8.9342	-1.15322	-3.721
 309	1	2	-0.006475	9.56373	0.817665	-3.0748
 310	1	2	-0.010814	7.85191	0.490345	-2.83382
 311	1	1	-0.019372	9.84293	-1.49666	-8.63913
 312	1	2	0.00686	10.0191	-1.34334	-9.71181
 313	1	1	-0.084968	9.51584	5.45042	-6.88145
 314	1	1	0.309483	10.1766	6.74414	-6.37177
 315	1	2	-0.002	8.4994	5.64977	-7.24302
 316	1	3	-0.436564	11.4866	6.39194	-5.89585
 317	1	1	0.15357	12.366	5.78372	-6.86223
 318	1	4	-0.002836	10.4157	5.68166	-8.81581
 319	1	3	-0.349559	11.719	4.69036	-7.5434
 320	1	2	0.015925	8.78757	3.69061	-8.87828
 321	1	1	0.230077	10.3835	4.91119	-8.03434
 322	1	2	0.052641	9.4482	4.72031	-6.06634
 323	1	4	-0.023623	10.2813	7.44911	-7.2067
 324	1	1	-0.072969	13.6007	5.23141	-6.11973
 325	1	2	0.031276	15.2275	3.167	-5.09039
 326	1	2	0.023309	15.0224	4.40517	-3.82808
 327	1	2	0.030094	14.2468	2.81654	-3.6513
 328	1	5	0.077888	12.672	6.53908	-7.59776
 329	1	1	0.09092	13.2604	4.12278	-5.09329
 330	1	2	0.047821	14.3117	4.83962	-6.85753
 331	1	2	0.068339	14.102	6.06072	-5.60612
 332	1	1	-0.129023	14.5177	3.59736	-4.37279
 333	1	2	-0.006475	12.5567	4.50819	-4.34465
 334	1	2	-0.010814	12.7656	3.28207	-5.59609
 335	1	1	-0.019372	9.86483	3.60568	-8.68568
 336	1	2	0.00686	10.3421	3.5179	-9.67011
 337	1	1	-0.084968	7.44431	8.94068	-4.57842
 338	1	1	0.309483	6.05456	9.43181	-5.03624
 339	1	2	-0.002	7.38308	8.50434	-3.57359
 340	1	3	-0.436564	6.15816	9.87629	-6.40195
 341	1	1	0.15357	6.69025	8.92364	-7.33903
 342	1	4	-0.002836	7.33217	7.00529	-5.54896
 343	1	3	-0.349559	7.97249	8.45934	-6.88263
 344	1	2	0.015925	10.0134	8.32744	-4.91769
 345	1	1	0.230077	7.98741	7.88599	-5.56389
 346	1	2	0.052641	8.13424	9.79255	-4.52818
 347	1	4	-0.023623	5.34354	8.59742	-4.98425
 348	1	1	-0.072969	6.86016	9.6094	-8.7105
 349	1	2	0.031276	8.34171	10.7383	-10.8276
 350	1	2	0.023309	6.99883	11.8357	-10.4275
 351	1	2	0.030094	8.6712	12.3015	-10.0502
 352	1	5	0.077888	6.00107	8.07356	-7.4296
 353	1	1	0.09092	7.84782	10.8003	-8.69768
 354	1	2	0.047821	7.19982	8.8626	-9.43871
 355	1	2	0.068339	5.87739	9.95763	-9.05101
 356	1	1	-0.129023	7.97096	11.4577	-10.0866
 357	1	2	-0.006475	7.5154	11.5555	-7.9743
 358	1	2	-0.010814	8.84099	10.4612	-8.37696
 359	1	1	-0.019372	9.42983	7.44624	-5.21371
 360	1	2	0.00686	9.39876	6.78352	-4.33919
 361	1	1	-0.084968	4.72472	11.5161	-1.92669
 362	1	1	0.309483	3.74178	11.0164	-0.845638
 363	1	2	-0.002	5.52557	12.1114	-1.46915
 364	1	3	-0.436564	4.29589	9.81472	-0.276983
 365	1	1	0.15357	4.4109	8.69738	-1.18401
 366	1	4	-0.002836	6.34801	10.1309	-2.27994
 367	1	3	-0.349559	4.53468	9.16367	-2.5445
 368	1	2	0.015925	4.53713	10.92	-4.62915
 369	1	1	0.230077	5.35811	10.3347	-2.70777
 370	1	2	0.052641	4.18445	12.1855	-2.60713
 371	1	4	-0.023623	2.7887	10.7793	-1.33528
 372	1	1	-0.072969	3.13737	7.82545	-1.09917
 373	1	2	0.031276	3.93905	8.13305	1.68301
 374	1	2	0.023309	2.16597	8.19501	1.53446
 375	1	2	0.030094	2.95237	6.78664	2.27472
 376	1	5	0.077888	5.29433	8.10158	-0.920132
 377	1	1	0.09092	3.12488	6.84914	0.101045
 378	1	2	0.047821	2.24545	8.46372	-1.06544
 379	1	2	0.068339	3.05936	7.23301	-2.01918
 380	1	1	-0.129023	3.04129	7.53709	1.47965
 381	1	2	-0.006475	2.26134	6.18017	-0.00428981
 382	1	2	-0.010814	4.01845	6.21291	0.0653937
 383	1	1	-0.019372	5.51195	10.6279	-4.21745
 384	1	2	0.00686	6.17968	11.4898	-4.34659
 385	1	1	-0.084968	2.14257	12.4672	2.4498
 386	1	1	0.309483	1.09555	11.8065	3.37034
 387	1	2	-0.002	3.0577	12.6864	3.01451
 388	1	3	-0.436564	-0.05976	11.4556	2.58578
 389	1	1	0.15357	0.139892	10.7151	1.36711
 390	1	4	-0.002836	2.808	10.5502	1.71348
 391	1	3	-0.349559	1.21052	11.2813	0.592673
 392	1	2	0.015925	3.12154	12.9795	-0.144601
 393	1	1	0.230077	2.44531	11.4976	1.29531
 394	1	2	0.052641	1.76294	13.4118	2.04332
 395	1	4	-0.023623	1.53328	10.8894	3.78501
 396	1	1	-0.072969	-1.1553	10.7926	0.530879
 397	1	2	0.031276	-3.27986	13.3122	-0.687644
 398	1	2	0.023309	-2.89344	11.7578	-1.4575
 399	1	2	0.030094	-3.77121	11.7941	0.0918482
 400	1	5	0.077888	0.377335	9.67067	1.60632
 401	1	1	0.09092	-1.63954	12.2407	0.268846
 402	1	2	0.047821	-0.991209	10.284	-0.427118
 403	1	2	0.068339	-1.94226	10.2337	1.04696
 404	1	1	-0.129023	-2.97782	12.2756	-0.493987
 405	1	2	-0.006475	-1.77027	12.7777	1.21638
 406	1	2	-0.010814	-0.882001	12.7866	-0.307789
 407	1	1	-0.019372	3.48268	12.0367	0.285934
 408	1	2	0.00686	4.42318	12.2593	0.806316
 409	1	1	-0.084968	-1.11486	14.4869	5.19641
 410	1	1	0.309483	-1.83742	15.759	4.69453
 411	1	2	-0.002	-1.82456	13.7175	5.51607
 412	1	3	-0.436564	-0.80026	16.7032	4.34567
 413	1	1	0.15357	0.207447	16.2632	3.40538
 414	1	4	-0.002836	-0.756601	13.7188	3.21018
 415	1	3	-0.349559	0.77111	15.0024	3.82086
 416	1	2	0.015925	1.46141	12.9734	5.1775
 417	1	1	0.230077	-0.170258	13.9507	4.10513
 418	1	2	0.052641	-0.526492	14.7441	6.08598
 419	1	4	-0.023623	-2.42491	16.1765	5.52164
 420	1	1	-0.072969	1.3274	17.3197	3.38008
 421	1	2	0.031276	3.07093	19.0658	2.01394
 422	1	2	0.023309	4.00608	18.1899	3.24882
 423	1	2	0.030094	4.26232	17.8417	1.52564
 424	1	5	0.077888	-0.234418	16.1596	2.40596
 425	1	1	0.09092	2.41543	17.0029	2.33011
 426	1	2	0.047821	0.885783	18.2999	3.16097
 427	1	2	0.068339	1.78143	17.3871	4.37659
 428	1	1	-0.129023	3.50418	18.0928	2.27783
 429	1	2	-0.006475	2.88707	16.0385	2.5582
 430	1	2	-0.010814	1.95283	16.9085	1.33925
 431	1	1	-0.019372	0.609069	12.6872	4.54806
 432	1	2	0.00686	-0.0425557	12.0681	5.17821
 433	1	1	-0.084968	-4.9193	14.7414	2.40145
 434	1	1	0.309483	-6.13522	13.7993	2.54294
 435	1	2	-0.002	-5.23272	15.7439	2.08658
 436	1	3	-0.436564	-5.67584	12.5355	3.06647
 437	1	1	0.15357	-4.87528	12.5803	4.26618
 438	1	4	-0.002836	-4.67361	15.2993	4.4918
 439	1	3	-0.349559	-3.76449	13.4715	4.07457
 440	1	2	0.015925	-2.24202	15.162	2.61719
 441	1	1	0.230077	-4.08807	14.8178	3.69816
 442	1	2	0.052641	-4.28422	14.3516	1.5962
 443	1	4	-0.023623	-6.54092	13.6307	1.53759
 444	1	1	-0.072969	-4.33898	11.1686	4.57672
 445	1	2	0.031276	-2.22049	8.82335	3.05012
 446	1	2	0.023309	-2.29036	9.24708	4.77219
 447	1	2	0.030094	-3.69448	8.48859	3.98326
 448	1	5	0.077888	-5.48235	12.9297	5.1107
 449	1	1	0.09092	-3.41919	10.5979	3.47531
 450	1	2	0.047821	-3.78914	11.2037	5.5254
 451	1	2	0.068339	-5.18917	10.4928	4.72803
 452	1	1	-0.129023	-2.87423	9.20387	3.84424
 453	1	2	-0.006475	-3.96825	10.5303	2.52772
 454	1	2	-0.010814	-2.5756	11.2774	3.31297
 455	1	1	-0.019372	-2.7785	15.6093	3.46153
 456	1	2	0.00686	-3.05808	16.6186	3.1324
 457	1	1	-0.084968	-9.3253	15.8652	3.3691
 458	1	1	0.309483	-9.73405	17.3303	3.1463
 459	1	2	-0.002	-9.92281	15.2038	2.72859
 460	1	3	-0.436564	-8.92644	18.1317	4.02084
 461	1	1	0.15357	-7.51211	18.0396	3.76083
 462	1	4	-0.002836	-7.68389	15.8753	1.96892
 463	1	3	-0.349559	-7.07806	16.6646	3.80906
 464	1	2	0.015925	-7.02568	14.3028	4.48877
 465	1	1	0.230077	-7.8288	15.7007	3.04299
 466	1	2	0.052641	-9.51581	15.5802	4.41183
 467	1	4	-0.023623	-9.50269	17.6123	2.11097
 468	1	1	-0.072969	-6.744	18.8671	4.8177
 469	1	2	0.031276	-8.47324	18.6368	7.04595
 470	1	2	0.023309	-8.35041	16.9931	6.37411
 471	1	2	0.030094	-7.57275	17.3777	7.91875
 472	1	5	0.077888	-7.31325	18.4501	2.76198
 473	1	1	0.09092	-6.51402	18.1752	6.18633
 474	1	2	0.047821	-5.7662	19.1337	4.39864
 475	1	2	0.068339	-7.27459	19.8139	4.97789
 476	1	1	-0.129023	-7.80869	17.7726	6.92303
 477	1	2	-0.006475	-5.8794	17.2893	6.05589
 478	1	2	-0.010814	-5.94904	18.8629	6.82844
 479	1	1	-0.019372	-7.30596	14.2989	3.42838
 480	1	2	0.00686	-8.12254	13.5714	3.33256
 481	1	1	-0.084968	-13.5856	17.4417	2.3466
 482	1	1	0.309483	-14.2657	17.3405	0.967822
 483	1	2	-0.002	-13.8918	16.6018	2.98324
 484	1	3	-0.436564	-13.8192	18.4549	0.177079
 485	1	1	0.15357	-12.3998	18.6156	0.00752915
 486	1	4	-0.002836	-11.7873	16.4693	1.64942
 487	1	3	-0.349559	-11.7171	18.5172	1.26956
 488	1	2	0.015925	-11.3751	18.61	3.80748
 489	1	1	0.230077	-12.0605	17.4176	2.13029
 490	1	2	0.052641	-13.8832	18.3712	2.84889
 491	1	4	-0.023623	-13.9532	16.4036	0.490112
 492	1	1	-0.072969	-12.1422	20.0237	-0.569833
 493	1	2	0.031276	-11.3227	22.7255	-0.41596
 494	1	2	0.023309	-12.9048	22.6615	-1.23068
 495	1	2	0.030094	-12.7727	23.3415	0.405111
 496	1	5	0.077888	-12.0208	17.8445	-0.675667
 497	1	1	0.09092	-12.6533	21.1654	0.344365
 498	1	2	0.047821	-11.0654	20.1471	-0.739762
 499	1	2	0.068339	-12.6287	20.0976	-1.54986
 500	1	1	-0.129023	-12.3962	22.5576	-0.264063
 501	1	2	-0.006475	-13.7304	21.0517	0.521016
 502	1	2	-0.010814	-12.1609	21.1117	1.32367
 503	1	1	-0.019372	-11.2347	17.5906	3.42436
 504	1	2	0.00686	-11.5996	16.9061	4.20115
 505	1	1	-0.084968	-16.3296	16.0073	-1.09917
 506	1	1	0.309483	-16.9851	16.1371	-2.48521
 507	1	2	-0.002	-15.2775	15.7199	-1.21551
 508	1	3	-0.436564	-18.3458	16.5797	-2.31245
 509	1	1	0.15357	-18.5487	17.7713	-1.52988
 510	1	4	-0.002836	-15.9767	18.141	-1.00514
 511	1	3	-0.349559	-17.8484	17.6685	-0.272663
 512	1	2	0.015925	-16.1162	18.3149	1.54178
 513	1	1	0.230077	-16.447	17.3675	-0.384424
 514	1	2	0.052641	-16.8274	15.226	-0.511089
 515	1	4	-0.023623	-16.4304	16.892	-3.05734
 516	1	1	-0.072969	-20.0601	17.886	-1.24891
 517	1	2	0.031276	-20.8856	20.213	-2.59603
 518	1	2	0.023309	-20.6987	21.3493	-1.24516
 519	1	2	0.030094	-19.2685	20.5688	-1.94387
 520	1	5	0.077888	-18.1851	18.6404	-2.0928
 521	1	1	0.09092	-20.4814	19.2555	-0.669903
 522	1	2	0.047821	-20.6188	17.6988	-2.1746
 523	1	2	0.068339	-20.3469	17.0949	-0.54504
 524	1	1	-0.129023	-20.3208	20.4142	-1.67682
 525	1	2	-0.006475	-21.5347	19.1993	-0.367165
 526	1	2	-0.010814	-19.9045	19.4734	0.237816
 527	1	1	-0.019372	-15.8102	17.3948	1.027
 528	1	2	0.00686	-16.1887	16.5541	1.62256
 529	1	1	-0.084968	-18.9751	13.3234	-3.91836
 530	1	1	0.309483	-19.9258	12.2406	-3.38396
 531	1	2	-0.002	-19.5547	14.1809	-4.28462
 532	1	3	-0.436564	-19.1093	11.1796	-2.85904
 533	1	1	0.15357	-18.1792	11.5494	-1.82749
 534	1	4	-0.002836	-18.6264	14.1942	-1.97588
 535	1	3	-0.349559	-17.3285	12.6151	-2.29909
 536	1	2	0.015925	-15.983	14.3886	-3.29897
 537	1	1	0.230077	-18.0248	13.7771	-2.79311
 538	1	2	0.052641	-18.3959	12.9283	-4.76268
 539	1	4	-0.023623	-20.5466	12.6703	-2.58696
 540	1	1	-0.072969	-17.3293	10.3031	-1.52099
 541	1	2	0.031276	-15.0563	9.32429	0.961935
 542	1	2	0.023309	-16.3537	8.3476	0.241908
 543	1	2	0.030094	-15.001	8.91292	-0.765845
 544	1	5	0.077888	-18.7284	11.8717	-0.932663
 545	1	1	0.09092	-16.4494	10.4735	-0.265379
 546	1	2	0.047821	-17.9995	9.44649	-1.37472
 547	1	2	0.068339	-16.6997	10.0724	-2.38944
 548	1	1	-0.129023	-15.6679	9.18542	0.0619563
 549	1	2	-0.006475	-15.7425	11.2997	-0.413628
 550	1	2	-0.010814	-17.0812	10.7376	0.592424
 551	1	1	-0.019372	-16.9917	14.8215	-3.29647
 552	1	2	0.00686	-17.2055	15.0779	-4.34223
 553	1	1	-0.084968	-21.8493	9.78241	-2.94247
 554	1	1	0.309483	-21.1426	8.61124	-3.64971
 555	1	2	-0.002	-21.2751	10.1224	-2.07311
 556	1	3	-0.436564	-21.9636	8.20554	-4.7562
 557	1	1	0.15357	-22.3484	9.21627	-5.70703
 558	1	4	-0.002836	-22.7058	11.6896	-3.43127
 559	1	3	-0.349559	-22.8504	10.3997	-5.04344
 560	1	2	0.015925	-20.2412	10.986	-5.12782
 561	1	1	0.230077	-22.0923	10.9339	-3.93753
 562	1	2	0.052641	-22.8268	9.45755	-2.56921
 563	1	4	-0.023623	-20.1833	8.96458	-4.04663
 564	1	1	-0.072969	-23.492	8.64532	-6.56859
 565	1	2	0.031276	-24.5121	7.50507	-8.94662
 566	1	2	0.023309	-23.9684	5.8429	-8.63013
 567	1	2	0.030094	-25.1604	6.60335	-7.55569
 568	1	5	0.077888	-21.4869	9.47668	-6.33504
 569	1	1	0.09092	-23.1154	7.32163	-7.27304
 570	1	2	0.047821	-24.3713	8.48368	-5.93272
 571	1	2	0.068339	-23.7748	9.39156	-7.32057
 572	1	1	-0.129023	-24.2605	6.78794	-8.1555
 573	1	2	-0.006475	-22.2221	7.47512	-7.8918
 574	1	2	-0.010814	-22.8638	6.55593	-6.52821
 575	1	1	-0.019372	-20.8326	11.6545	-4.49011
 576	1	2	0.00686	-21.1741	12.4721	-5.13795
 577	1	1	-0.084968	-22.1068	7.40095	-0.513721
 578	1	1	0.309483	-23.3003	6.78902	0.235459
 579	1	2	-0.002	-21.1854	7.21247	0.045941
 580	1	3	-0.436564	-24.4757	6.98685	-0.56948
 581	1	1	0.15357	-24.4285	6.44517	-1.90263
 582	1	4	-0.002836	-21.7893	5.70104	-1.77668
 583	1	3	-0.349559	-23.2544	6.91563	-2.58689
 584	1	2	0.015925	-19.9992	7.61204	-2.10345
 585	1	1	0.230077	-21.993	6.77083	-1.91426
 586	1	2	0.052641	-22.2337	8.48609	-0.5762
 587	1	4	-0.023623	-23.1232	5.71604	0.383845
 588	1	1	-0.072969	-25.6607	6.95879	-2.6715
 589	1	2	0.031276	-27.9489	6.70943	-4.29421
 590	1	2	0.023309	-26.8746	7.91584	-5.04098
 591	1	2	0.030094	-27.1042	6.33171	-5.8107
 592	1	5	0.077888	-24.4264	5.34831	-1.85895
 593	1	1	0.09092	-25.8175	6.2783	-4.04932
 594	1	2	0.047821	-26.5625	6.78077	-2.07248
 595	1	2	0.068339	-25.571	8.04457	-2.80441
 596	1	1	-0.129023	-27.01	6.84454	-4.84553
 597	1	2	-0.006475	-24.9017	6.40742	-4.63922
 598	1	2	-0.010814	-25.9579	5.19895	-3.90831
 599	1	1	-0.019372	-20.8378	7.36806	-2.76789
 600	1	2	0.00686	-20.4602	6.57587	-3.42691
 601	1	1	-0.084968	-24.2461	5.41987	3.005
 602	1	1	0.309483	-24.9222	5.16194	4.37601
 603	1	2	-0.002	-24.5246	4.64146	2.28281
 604	1	3	-0.436564	-26.1924	5.83953	4.40595
 605	1	1	0.15357	-26.1458	7.27364	4.23949
 606	1	4	-0.002836	-25.5356	6.68986	1.80273
 607	1	3	-0.349559	-24.9572	7.66697	3.52607
 608	1	2	0.015925	-23.7932	8.52781	1.42573
 609	1	1	0.230077	-24.6388	6.80166	2.4265
 610	1	2	0.052641	-23.1595	5.35381	3.1358
 611	1	4	-0.023623	-24.2915	5.58537	5.16735
 612	1	1	-0.072969	-26.1306	7.94491	5.62866
 613	1	2	0.031276	-27.1434	9.85428	3.68569
 614	1	2	0.023309	-28.2053	9.76811	5.11228
 615	1	2	0.030094	-27.2044	11.208	4.82589
 616	1	5	0.077888	-27.0359	7.58754	3.67953
 617	1	1	0.09092	-26.0809	9.49068	5.56982
 618	1	2	0.047821	-27.0266	7.63502	6.18065
 619	1	2	0.068339	-25.2673	7.58211	6.19954
 620	1	1	-0.129023	-27.2299	10.1142	4.74823
 621	1	2	-0.006475	-26.1226	9.88319	6.59364
 622	1	2	-0.010814	-25.1203	9.81648	5.15084
 623	1	1	-0.019372	-23.5272	7.47661	1.5972
 624	1	2	0.00686	-22.5927	7.4809	2.17033
 625	1	1	-0.084968	-23.3365	3.1985	6.41263
 626	1	1	0.309483	-22.1574	2.27332	6.77391
 627	1	2	-0.002	-23.0425	4.24987	6.51222
 628	1	3	-0.436564	-22.5517	0.909156	6.52242
 629	1	1	0.15357	-23.0778	0.601843	5.2159
 630	1	4	-0.002836	-23.0945	3.15638	4.24894
 631	1	3	-0.349559	-24.1567	1.50125	4.90575
 632	1	2	0.015925	-25.6585	3.20449	3.80244
 633	1	1	0.230077	-23.8615	2.90456	4.99161
 634	1	2	0.052641	-24.1427	3.02694	7.13703
 635	1	4	-0.023623	-21.9586	2.37717	7.84795
 636	1	1	-0.072969	-23.6379	-0.831867	5.25644
 637	1	2	0.031276	-24.0801	-3.46418	4.34945
 638	1	2	0.023309	-25.6582	-2.67654	4.58652
 639	1	2	0.030094	-25.0858	-3.0419	2.94576
 640	1	5	0.077888	-22.2864	0.683002	4.45932
 641	1	1	0.09092	-24.0953	-1.3294	3.86721
 642	1	2	0.047821	-22.8692	-1.50938	5.64888
 643	1	2	0.068339	-24.4814	-0.862547	5.95731
 644	1	1	-0.129023	-24.7695	-2.71338	3.94355
 645	1	2	-0.006475	-24.8022	-0.616016	3.42512
 646	1	2	-0.010814	-23.23	-1.38304	3.19382
 647	1	1	-0.019372	-25.1656	3.66619	4.66796
 648	1	2	0.00686	-25.8618	3.56589	5.51118
 649	1	1	-0.084968	-18.6519	3.8346	6.36016
 650	1	1	0.309483	-18.0318	5.21286	6.65964
 651	1	2	-0.002	-18.2761	3.07988	7.06163
 652	1	3	-0.436564	-18.5864	6.14397	5.71683
 653	1	1	0.15357	-20.0239	6.21955	5.59712
 654	1	4	-0.002836	-20.4991	4.17448	7.43458
 655	1	3	-0.349559	-20.62	4.9082	5.47737
 656	1	2	0.015925	-20.9729	2.51184	4.9375
 657	1	1	0.230077	-20.1887	3.90339	6.41751