pySIMM System Object

938 atoms
976 bonds
1950 angles
2916 dihedrals
0 impropers

5 atom types
5 bond types
11 angle types
8 dihedral types

-130.918421 130.918421 xlo xhi
-130.918421 130.918421 ylo yhi
-130.918421 130.918421 zlo zhi

Masses

   1	12.01	# c3
   2	1.008	# hc
   3	16.0	# os
   4	1.008	# h1
   5	1.008	# h2

Pair Coeffs

   1	0.1094	3.3996695084235347	# c3
   2	0.0157	2.649532787749369	# hc
   3	0.17	3.0000123434657784	# os
   4	0.0157	2.471353044121301	# h1
   5	0.0157	2.2931733004932333	# h2

Bond Coeffs

   1	330.6	1.0969	# c3,h1
   2	308.6	1.4316	# c3,os
   3	330.6	1.0969	# c3,hc
   4	300.9	1.5375	# c3,c3
   5	331.7	1.0961	# c3,h2

Angle Coeffs

   1	62.7	112.48	# c3,os,c3
   2	50.85	109.58	# h2,c3,os
   3	68.0	107.97	# c3,c3,os
   4	72.74	108.29	# os,c3,os
   5	46.34	109.8	# c3,c3,hc
   6	46.25	110.22	# c3,c3,h2
   7	50.8	109.78	# h1,c3,os
   8	46.39	109.56	# c3,c3,h1
   9	39.4	107.58	# hc,c3,hc
  10	39.24	108.46	# h1,c3,h1
  11	62.86	111.51	# c3,c3,c3

Dihedral Coeffs

   1	3	0.18	3	0	0.25	2	180	0.2	1	180	# c3,c3,c3,c3
   2	2	0.0	3	0	0.25	1	0	# hc,c3,c3,os
   3	1	0.3833333333333333	3	0	# X,c3,os,X
   4	1	0.15	3	0	# hc,c3,c3,hc
   5	2	0.383	3	0	0.1	2	180	# c3,c3,os,c3
   6	1	0.16	3	0	# hc,c3,c3,c3
   7	3	0.1	3	0	0.85	2	180	1.35	1	180	# c3,os,c3,os
   8	1	0.15555555555555556	3	0	# X,c3,c3,X

Atoms

   1	1	1	-0.084968	-23.3531	-40.3519	-6.92942
   2	1	1	0.309483	-23.4517	-41.7913	-7.47258
   3	1	2	-0.002	-22.3761	-39.9148	-7.17032
   4	1	3	-0.436564	-24.7772	-42.2778	-7.19315
   5	1	1	0.15357	-25.8604	-41.4894	-7.71973
   6	1	4	-0.002836	-24.3166	-39.4508	-8.64711
   7	1	3	-0.349559	-25.7294	-40.125	-7.27675
   8	1	2	0.015925	-25.3131	-37.4883	-7.46296
   9	1	1	0.230077	-24.4673	-39.4984	-7.56074
  10	1	2	0.052641	-23.4574	-40.3573	-5.83703
  11	1	4	-0.023623	-23.2953	-41.7774	-8.55884
  12	1	1	-0.072969	-27.1775	-42.0691	-7.1663
  13	1	2	0.031276	-27.8181	-40.883	-9.72406
  14	1	2	0.023309	-28.6307	-42.4578	-9.54944
  15	1	2	0.030094	-29.5747	-40.9543	-9.4995
  16	1	5	0.077888	-25.8465	-41.5321	-8.81638
  17	1	1	0.09092	-28.4463	-41.344	-7.67357
  18	1	2	0.047821	-27.2396	-43.1319	-7.43138
  19	1	2	0.068339	-27.1516	-42.0199	-6.07068
  20	1	1	-0.129023	-28.624	-41.416	-9.20499
  21	1	2	-0.006475	-29.324	-41.7977	-7.19599
  22	1	2	-0.010814	-28.4287	-40.2931	-7.35829
  23	1	1	-0.019372	-24.5054	-38.065	-6.99512
  24	1	2	0.00686	-24.6723	-38.0744	-5.91048
  25	1	1	-0.084968	-20.0084	-43.4487	-6.46975
  26	1	1	0.309483	-18.5566	-43.0288	-6.7647
  27	1	2	-0.002	-20.1481	-43.589	-5.39011
  28	1	3	-0.436564	-18.4538	-42.7914	-8.18087
  29	1	1	0.15357	-19.3491	-41.7959	-8.70848
  30	1	4	-0.002836	-20.7922	-41.4375	-6.43513
  31	1	3	-0.349559	-20.705	-42.1531	-8.38599
  32	1	2	0.015925	-22.6058	-43.7715	-7.268
  33	1	1	0.230077	-20.9746	-42.3675	-6.98858
  34	1	2	0.052641	-20.2235	-44.4074	-6.95875
  35	1	4	-0.023623	-18.3454	-42.099	-6.22143
  36	1	1	-0.072969	-19.2152	-41.7595	-10.2427
  37	1	2	0.031276	-18.4523	-40.4217	-12.609
  38	1	2	0.023309	-16.7184	-40.7942	-12.513
  39	1	2	0.030094	-17.895	-42.1089	-12.7204
  40	1	5	0.077888	-19.1119	-40.8128	-8.28037
  41	1	1	0.09092	-17.8204	-41.28	-10.6988
  42	1	2	0.047821	-19.4152	-42.7584	-10.6509
  43	1	2	0.068339	-19.9809	-41.087	-10.6483
  44	1	1	-0.129023	-17.7183	-41.1436	-12.2296
  45	1	2	-0.006475	-17.5921	-40.3119	-10.2348
  46	1	2	-0.010814	-17.0597	-41.9901	-10.3581
  47	1	1	-0.019372	-22.4548	-42.7792	-6.82364
  48	1	2	0.00686	-22.6812	-42.8753	-5.75371
  49	1	1	-0.084968	-15.573	-43.8696	-8.02101
  50	1	1	0.309483	-14.8678	-42.5821	-8.48402
  51	1	2	-0.002	-14.8788	-44.7167	-8.09645
  52	1	3	-0.436564	-13.9203	-42.2407	-7.45783
  53	1	1	0.15357	-14.4908	-41.9003	-6.17596
  54	1	4	-0.002836	-15.4479	-44.4451	-5.95156
  55	1	3	-0.349559	-15.8339	-42.4132	-6.0516
  56	1	2	0.015925	-17.7643	-45.0603	-6.86112
  57	1	1	0.230077	-16.053	-43.7517	-6.54986
  58	1	2	0.052641	-16.4015	-44.0993	-8.69973
  59	1	4	-0.023623	-15.6083	-41.7776	-8.57828
  60	1	1	-0.072969	-14.5692	-40.3638	-6.0693
  61	1	2	0.031276	-13.8348	-37.8096	-5.12545
  62	1	2	0.023309	-12.2459	-37.7354	-5.91828
  63	1	2	0.030094	-13.7223	-37.8016	-6.90205
  64	1	5	0.077888	-13.8606	-42.3065	-5.37408
  65	1	1	0.09092	-13.173	-39.7094	-5.98504
  66	1	2	0.047821	-15.1123	-39.9669	-6.93631
  67	1	2	0.068339	-15.1488	-40.0937	-5.17797
  68	1	1	-0.129023	-13.2514	-38.1701	-5.98183
  69	1	2	-0.006475	-12.664	-40.0494	-5.07411
  70	1	2	-0.010814	-12.5572	-40.0311	-6.83238
  71	1	1	-0.019372	-17.5428	-44.1215	-6.33732
  72	1	2	0.00686	-17.6901	-44.3282	-5.26955
  73	1	1	-0.084968	-12.0018	-41.3027	-9.89093
  74	1	1	0.309483	-11.3706	-40.0252	-10.4768
  75	1	2	-0.002	-11.895	-41.3048	-8.8003
  76	1	3	-0.436564	-11.6306	-39.9978	-11.8965
  77	1	1	0.15357	-12.9897	-40.1918	-12.3381
  78	1	4	-0.002836	-14.0551	-40.5786	-9.89927
  79	1	3	-0.349559	-13.5386	-41.3785	-11.7369
  80	1	2	0.015925	-14.8798	-43.0643	-10.5843
  81	1	1	0.230077	-13.4835	-41.4251	-10.301
  82	1	2	0.052641	-11.4478	-42.1723	-10.2655
  83	1	4	-0.023623	-10.2864	-40.0858	-10.3205
  84	1	1	-0.072969	-12.9598	-40.371	-13.8672
  85	1	2	0.031276	-13.8631	-39.7151	-16.4576
  86	1	2	0.023309	-13.7589	-41.4871	-16.3293
  87	1	2	0.030094	-15.3457	-40.6934	-16.4212
  88	1	5	0.077888	-13.6013	-39.321	-12.0692
  89	1	1	0.09092	-14.372	-40.4963	-14.4789
  90	1	2	0.047821	-12.4459	-39.5108	-14.3143
  91	1	2	0.068339	-12.3691	-41.2621	-14.1141
  92	1	1	-0.129023	-14.3302	-40.6042	-16.0157
  93	1	2	-0.006475	-14.8761	-41.3827	-14.0737
  94	1	2	-0.010814	-14.9737	-39.6231	-14.1956
  95	1	1	-0.019372	-14.1426	-42.7451	-9.8364
  96	1	2	0.00686	-13.3956	-43.5471	-9.77386
  97	1	1	-0.084968	-11.353	-36.9616	-11.6549
  98	1	1	0.309483	-11.1538	-35.4334	-11.7507
  99	1	2	-0.002	-10.7013	-37.477	-12.3719
 100	1	3	-0.436564	-10.1104	-35.0627	-10.8286
 101	1	1	0.15357	-10.426	-35.2765	-9.43681
 102	1	4	-0.002836	-9.97998	-37.7392	-10.1659
 103	1	3	-0.349559	-11.3014	-36.4171	-9.28867
 104	1	2	0.015925	-11.7692	-38.8365	-8.71889
 105	1	1	0.230077	-11.046	-37.4825	-10.2271
 106	1	2	0.052641	-12.3859	-37.1967	-11.9367
 107	1	4	-0.023623	-12.0893	-34.9448	-11.4505
 108	1	1	-0.072969	-11.1493	-34.0292	-8.88196
 109	1	2	0.031276	-11.2468	-31.6264	-7.39179
 110	1	2	0.023309	-10.4148	-30.6057	-8.58425
 111	1	2	0.030094	-11.9824	-31.3377	-8.98585
 112	1	5	0.077888	-9.4946	-35.4477	-8.88172
 113	1	1	0.09092	-10.3056	-32.7405	-9.02172
 114	1	2	0.047821	-12.1085	-33.8971	-9.39765
 115	1	2	0.068339	-11.3799	-34.1983	-7.82304
 116	1	1	-0.129023	-11.0334	-31.5031	-8.46098
 117	1	2	-0.006475	-9.35098	-32.8678	-8.49533
 118	1	2	-0.010814	-10.0677	-32.5575	-10.0768
 119	1	1	-0.019372	-11.87	-38.72	-9.80431
 120	1	2	0.00686	-12.936	-38.5514	-10.0004
 121	1	1	-0.084968	-10.1285	-32.8926	-14.5729
 122	1	1	0.309483	-9.89085	-31.3699	-14.5169
 123	1	2	-0.002	-9.239	-33.4015	-14.966
 124	1	3	-0.436564	-11.0471	-30.758	-13.9074
 125	1	1	0.15357	-11.5095	-31.287	-12.6456
 126	1	4	-0.002836	-9.63422	-33.2345	-12.4972
 127	1	3	-0.349559	-11.6385	-32.7184	-12.712
 128	1	2	0.015925	-11.5974	-35.1629	-13.8588
 129	1	1	0.230077	-10.4758	-33.4278	-13.1729
 130	1	2	0.052641	-10.954	-33.1033	-15.2642
 131	1	4	-0.023623	-9.79366	-31.0029	-15.5461
 132	1	1	-0.072969	-12.8787	-30.6559	-12.3044
 133	1	2	0.031276	-14.9838	-31.3848	-15.0544
 134	1	2	0.023309	-13.8663	-30.0159	-14.8699
 135	1	2	0.030094	-13.2369	-31.6738	-15.0305
 136	1	5	0.077888	-10.7877	-31.0257	-11.8613
 137	1	1	0.09092	-14.1008	-31.2333	-13.0651
 138	1	2	0.047821	-13.0539	-30.7808	-11.2292
 139	1	2	0.068339	-12.8234	-29.5746	-12.4803
 140	1	1	-0.129023	-14.0394	-31.0646	-14.5978
 141	1	2	-0.006475	-14.2274	-32.2958	-12.8214
 142	1	2	-0.010814	-15.0026	-30.7269	-12.6985
 143	1	1	-0.019372	-10.7771	-34.9418	-13.1641
 144	1	2	0.00686	-9.89511	-35.4882	-13.5224
 145	1	1	-0.084968	-8.97002	-28.4624	-13.1191
 146	1	1	0.309483	-8.56812	-28.5305	-11.639
 147	1	2	-0.002	-8.75337	-27.4596	-13.5108
 148	1	3	-0.436564	-7.163	-28.2409	-11.587
 149	1	1	0.15357	-6.26496	-29.0847	-12.3334
 150	1	4	-0.002836	-8.32665	-29.2723	-15.0044
 151	1	3	-0.349559	-6.76677	-29.3808	-13.6626
 152	1	2	0.015925	-7.78986	-31.6194	-14.1092
 153	1	1	0.230077	-8.18313	-29.5044	-13.9418
 154	1	2	0.052641	-10.049	-28.6055	-13.2275
 155	1	4	-0.023623	-8.76504	-29.5327	-11.2399
 156	1	1	-0.072969	-6.00008	-30.3685	-11.5064
 157	1	2	0.031276	-3.93314	-32.4645	-13.4604
 158	1	2	0.023309	-5.69248	-32.5735	-13.2606
 159	1	2	0.030094	-4.96871	-31.1805	-14.1033
 160	1	5	0.077888	-5.31181	-28.5503	-12.4373
 161	1	1	0.09092	-4.72442	-31.1381	-11.9225
 162	1	2	0.047821	-5.87816	-30.0715	-10.4569
 163	1	2	0.068339	-6.85982	-31.0426	-11.5277
 164	1	1	-0.129023	-4.84204	-31.8807	-13.2694
 165	1	2	-0.006475	-3.87092	-30.449	-11.9554
 166	1	2	-0.010814	-4.4975	-31.8771	-11.1435
 167	1	1	-0.019372	-8.60421	-30.983	-13.7418
 168	1	2	0.00686	-8.71894	-31.2122	-12.679
 169	1	1	-0.084968	-7.56891	-27.0278	-8.92575
 170	1	1	0.309483	-7.55062	-26.2495	-7.59481
 171	1	2	-0.002	-6.86722	-27.8711	-8.8807
 172	1	3	-0.436564	-8.47156	-26.8898	-6.69267
 173	1	1	0.15357	-9.85428	-26.8762	-7.11071
 174	1	4	-0.002836	-9.04792	-28.6149	-8.94287
 175	1	3	-0.349559	-9.96054	-26.8033	-8.54889
 176	1	2	0.015925	-10.4082	-27.6868	-10.8915
 177	1	1	0.230077	-8.9787	-27.5701	-9.27235
 178	1	2	0.052641	-7.20919	-26.3589	-9.71701
 179	1	4	-0.023623	-7.88508	-25.2228	-7.7902
 180	1	1	-0.072969	-10.5563	-25.6323	-6.52648
 181	1	2	0.031276	-12.4332	-24.5331	-4.72165
 182	1	2	0.023309	-11.3558	-24.4686	-3.31105
 183	1	2	0.030094	-10.995	-23.4884	-4.74661
 184	1	5	0.077888	-10.3465	-27.788	-6.74838
 185	1	1	0.09092	-10.5524	-25.6193	-4.98183
 186	1	2	0.047821	-10.0743	-24.7218	-6.9041
 187	1	2	0.068339	-11.5925	-25.6162	-6.8857
 188	1	1	-0.129023	-11.3847	-24.4555	-4.40765
 189	1	2	-0.006475	-10.9585	-26.5673	-4.60604
 190	1	2	-0.010814	-9.52209	-25.5399	-4.61209
 191	1	1	-0.019372	-9.33275	-27.4986	-10.7779
 192	1	2	0.00686	-9.15135	-26.4844	-11.1571
 193	1	1	-0.084968	-4.66642	-25.2698	-5.07506
 194	1	1	0.309483	-4.22479	-23.8295	-4.73858
 195	1	2	-0.002	-4.67893	-25.8851	-4.16608
 196	1	3	-0.436564	-5.36298	-23.1438	-4.18537
 197	1	1	0.15357	-6.48372	-22.9865	-5.08031
 198	1	4	-0.002836	-6.8048	-25.6334	-4.97232
 199	1	3	-0.349559	-6.42399	-23.9598	-6.14247
 200	1	2	0.015925	-5.41797	-25.8776	-7.70164
 201	1	1	0.230077	-6.07727	-25.2942	-5.7213
 202	1	2	0.052641	-3.92424	-25.7175	-5.74711
 203	1	4	-0.023623	-3.92504	-23.3315	-5.67024
 204	1	1	-0.072969	-6.40844	-21.5732	-5.69773
 205	1	2	0.031276	-9.07459	-20.7782	-5.26292
 206	1	2	0.023309	-9.69312	-21.1137	-6.89455
 207	1	2	0.030094	-9.15332	-22.452	-5.866
 208	1	5	0.077888	-7.41562	-23.1068	-4.51286
 209	1	1	0.09092	-7.52375	-21.2729	-6.72688
 210	1	2	0.047821	-6.4559	-20.8319	-4.89024
 211	1	2	0.068339	-5.4344	-21.4432	-6.18458
 212	1	1	-0.129023	-8.94668	-21.4132	-6.14854
 213	1	2	-0.006475	-7.39192	-20.249	-7.09912
 214	1	2	-0.010814	-7.41901	-21.9355	-7.59538
 215	1	1	-0.019372	-6.14597	-26.2199	-6.95464
 216	1	2	0.00686	-5.85227	-27.2379	-6.66686
 217	1	1	-0.084968	-3.26871	-21.6845	-2.21634
 218	1	1	0.309483	-2.78896	-20.2355	-2.00975
 219	1	2	-0.002	-4.36345	-21.7104	-2.27193
 220	1	3	-0.436564	-1.34544	-20.2194	-2.04367
 221	1	1	0.15357	-0.683082	-20.8784	-3.14498
 222	1	4	-0.002836	-2.91481	-21.6805	-4.36285
 223	1	3	-0.349559	-1.21095	-22.208	-3.3232
 224	1	2	0.015925	-2.18923	-24.289	-4.19501
 225	1	1	0.230077	-2.63554	-22.2812	-3.48823
 226	1	2	0.052641	-2.97845	-22.2854	-1.34557
 227	1	4	-0.023623	-3.12103	-19.9093	-1.01631
 228	1	1	-0.072969	0.814401	-20.9821	-2.79265
 229	1	2	0.031276	2.33725	-21.4895	-5.93177
 230	1	2	0.023309	0.670834	-20.9446	-5.66797
 231	1	2	0.030094	2.03636	-19.9424	-5.11415
 232	1	5	0.077888	-0.822784	-20.2953	-4.06423
 233	1	1	0.09092	1.66812	-21.6979	-3.8661
 234	1	2	0.047821	1.21306	-19.9733	-2.62777
 235	1	2	0.068339	0.915384	-21.5191	-1.84139
 236	1	1	-0.129023	1.67477	-20.9719	-5.22698
 237	1	2	-0.006475	2.70075	-21.7714	-3.50212
 238	1	2	-0.010814	1.31347	-22.7271	-4.00388
 239	1	1	-0.019372	-3.03849	-23.7512	-3.75413
 240	1	2	0.00686	-3.28462	-24.2621	-2.81415
 241	1	1	-0.084968	-1.78085	-17.2184	-3.27928
 242	1	1	0.309483	-1.68632	-15.7101	-2.96812
 243	1	2	-0.002	-0.920681	-17.741	-2.84421
 244	1	3	-0.436564	-2.8606	-15.0614	-3.49107
 245	1	1	0.15357	-4.12387	-15.5803	-3.03834
 246	1	4	-0.002836	-3.11194	-17.6428	-1.614
 247	1	3	-0.349559	-4.17804	-16.9984	-3.26975
 248	1	2	0.015925	-4.46197	-19.4055	-3.08182
 249	1	1	0.230077	-3.1021	-17.7689	-2.70458
 250	1	2	0.052641	-1.76221	-17.3885	-4.36169
 251	1	4	-0.023623	-1.67096	-15.5849	-1.87769
 252	1	1	-0.072969	-5.25092	-14.9254	-3.85834
 253	1	2	0.031276	-6.3931	-12.9064	-5.45627
 254	1	2	0.023309	-7.49523	-13.2361	-4.09844
 255	1	2	0.030094	-6.60214	-11.7017	-4.16732
 256	1	5	0.077888	-4.25498	-15.3739	-1.96783
 257	1	1	0.09092	-5.37526	-13.4104	-3.58768
 258	1	2	0.047821	-5.06846	-15.097	-4.92685
 259	1	2	0.068339	-6.20016	-15.4168	-3.61174
 260	1	1	-0.129023	-6.53821	-12.7768	-4.37634
 261	1	2	-0.006475	-5.5333	-13.2412	-2.51478
 262	1	2	-0.010814	-4.44063	-12.9037	-3.85987
 263	1	1	-0.019372	-3.37537	-19.2503	-3.05257
 264	1	2	0.00686	-3.00888	-19.4714	-4.06235
 265	1	1	-0.084968	0.516691	-13.881	-5.65779
 266	1	1	0.309483	0.578008	-14.0273	-7.1888
 267	1	2	-0.002	0.104377	-12.9006	-5.38673
 268	1	3	-0.436564	1.11472	-15.3287	-7.48595
 269	1	1	0.15357	0.379971	-16.4364	-6.92952
 270	1	4	-0.002836	-1.37226	-14.9105	-5.52187
 271	1	3	-0.349559	0.222193	-16.2581	-5.50947
 272	1	2	0.015925	0.468659	-15.4276	-3.12503
 273	1	1	0.230077	-0.366037	-15.0099	-5.09514
 274	1	2	0.052641	1.522	-13.9576	-5.22982
 275	1	4	-0.023623	-0.444652	-13.9713	-7.58413
 276	1	1	-0.072969	1.18202	-17.7325	-7.15351
 277	1	2	0.031276	-0.537614	-17.4572	-9.45655
 278	1	2	0.023309	0.295087	-18.6839	-10.4281
 279	1	2	0.030094	-0.498398	-19.1514	-8.90981
 280	1	5	0.077888	-0.609213	-16.5045	-7.40042
 281	1	1	0.09092	1.39761	-18.0907	-8.64192
 282	1	2	0.047821	2.15878	-17.6365	-6.66285
 283	1	2	0.068339	0.658923	-18.5587	-6.65876
 284	1	1	-0.129023	0.0818791	-18.3607	-9.40169
 285	1	2	-0.006475	1.95253	-17.2885	-9.14486
 286	1	2	-0.010814	2.02638	-18.9883	-8.69852
 287	1	1	-0.019372	-0.444492	-14.9903	-3.549
 288	1	2	0.00686	-0.471054	-13.9483	-3.2047
 289	1	1	-0.084968	3.79833	-12.2609	-8.54639
 290	1	1	0.309483	5.20711	-12.0318	-7.97575
 291	1	2	-0.002	3.84613	-12.951	-9.39871
 292	1	3	-0.436564	5.06576	-11.1296	-6.86788
 293	1	1	0.15357	4.24284	-11.6275	-5.79834
 294	1	4	-0.002836	3.2741	-13.8342	-7.16199
 295	1	3	-0.349559	2.9328	-11.9532	-6.31117
 296	1	2	0.015925	0.932054	-11.9852	-7.83967
 297	1	1	0.230077	2.89061	-12.8457	-7.44609
 298	1	2	0.052641	3.38447	-11.3117	-8.90985
 299	1	4	-0.023623	5.59871	-12.9947	-7.62333
 300	1	1	-0.072969	4.11401	-10.5105	-4.74156
 301	1	2	0.031276	2.55099	-12.1496	-2.0345
 302	1	2	0.023309	1.78115	-11.3894	-3.4445
 303	1	2	0.030094	2.77392	-12.8551	-3.64301
 304	1	5	0.077888	4.71422	-12.5185	-5.36263
 305	1	1	0.09092	3.93814	-11.0373	-3.29877
 306	1	2	0.047821	5.01581	-9.88553	-4.76825
 307	1	2	0.068339	3.27364	-9.85529	-5.00233
 308	1	1	-0.129023	2.68253	-11.9098	-3.09679
 309	1	2	-0.006475	4.82684	-11.6131	-3.00979
 310	1	2	-0.010814	3.88512	-10.1792	-2.61674
 311	1	1	-0.019372	1.42335	-12.9629	-7.92598
 312	1	2	0.00686	1.41101	-13.2126	-8.99499
 313	1	1	-0.084968	7.86727	-9.8173	-7.90216
 314	1	1	0.309483	9.33786	-9.75177	-7.45246
 315	1	2	-0.002	7.65462	-9.04106	-8.64758
 316	1	3	-0.436564	9.51362	-10.7672	-6.45147
 317	1	1	0.15357	9.23553	-12.118	-6.87258
 318	1	4	-0.002836	8.30302	-11.3068	-9.38237
 319	1	3	-0.349559	7.96423	-12.2157	-7.54713
 320	1	2	0.015925	5.77194	-10.4938	-9.41593
 321	1	1	0.230077	7.62937	-11.2079	-8.52119
 322	1	2	0.052641	7.20369	-9.65148	-7.04494
 323	1	4	-0.023623	9.98631	-9.98271	-8.30764
 324	1	1	-0.072969	9.18277	-13.0163	-5.61892
 325	1	2	0.031276	7.86838	-14.6171	-3.70286
 326	1	2	0.023309	8.94206	-13.4868	-2.84352
 327	1	2	0.030094	7.17876	-13.2895	-2.74498
 328	1	5	0.077888	10.0316	-12.4548	-7.54924
 329	1	1	0.09092	8.03137	-12.6525	-4.64859
 330	1	2	0.047821	9.07537	-14.0608	-5.93635
 331	1	2	0.068339	10.1413	-12.9421	-5.09121
 332	1	1	-0.129023	8.00578	-13.5687	-3.40966
 333	1	2	-0.006475	8.13191	-11.6104	-4.31983
 334	1	2	-0.010814	7.06635	-12.7352	-5.16306
 335	1	1	-0.019372	6.17919	-11.4345	-9.02346
 336	1	2	0.00686	6.22305	-12.1232	-9.87677
 337	1	1	-0.084968	10.4285	-5.96025	-7.38256
 338	1	1	0.309483	10.2696	-4.84522	-8.43886
 339	1	2	-0.002	10.088	-5.60833	-6.4006
 340	1	3	-0.436564	10.6274	-5.38642	-9.72449
 341	1	1	0.15357	9.91997	-6.56862	-10.1364
 342	1	4	-0.002836	8.54162	-6.92183	-7.84356
 343	1	3	-0.349559	10.0342	-7.58165	-9.12305
 344	1	2	0.015925	10.8331	-8.4779	-6.5559
 345	1	1	0.230077	9.6044	-7.19451	-7.80665
 346	1	2	0.052641	11.4876	-6.23164	-7.28943
 347	1	4	-0.023623	9.21977	-4.52625	-8.46558
 348	1	1	-0.072969	10.5443	-7.09566	-11.445
 349	1	2	0.031276	12.0532	-8.90092	-12.9947
 350	1	2	0.023309	12.5586	-7.24616	-13.4123
 351	1	2	0.030094	13.6591	-8.31298	-12.5137
 352	1	5	0.077888	8.8613	-6.32549	-10.2972
 353	1	1	0.09092	12.0287	-7.51048	-11.3065
 354	1	2	0.047821	9.95771	-7.95405	-11.7949
 355	1	2	0.068339	10.4552	-6.31812	-12.2134
 356	1	1	-0.129023	12.6084	-8.0236	-12.6395
 357	1	2	-0.006475	12.6263	-6.65661	-10.9631
 358	1	2	-0.010814	12.1293	-8.29945	-10.5505
 359	1	1	-0.019372	9.77767	-8.39662	-6.84575
 360	1	2	0.00686	9.213	-8.20298	-5.92461
 361	1	1	-0.084968	11.7145	-1.53906	-6.77129
 362	1	1	0.309483	10.8257	-0.47385	-6.09411
 363	1	2	-0.002	12.6536	-1.66003	-6.21597
 364	1	3	-0.436564	10.1863	-1.11234	-4.97344
 365	1	1	0.15357	9.26365	-2.16967	-5.3081
 366	1	4	-0.002836	11.391	-3.56412	-6.06266
 367	1	3	-0.349559	9.57995	-2.72158	-6.60446
 368	1	2	0.015925	10.9735	-2.88998	-9.01918
 369	1	1	0.230077	10.9886	-2.91176	-6.84859
 370	1	2	0.052641	11.9854	-1.18321	-7.77269
 371	1	4	-0.023623	10.0626	-0.153823	-6.81526
 372	1	1	-0.072969	7.8295	-1.59863	-5.37201
 373	1	2	0.031276	8.82391	-0.523789	-2.85029
 374	1	2	0.023309	7.78166	0.666031	-3.66953
 375	1	2	0.030094	7.21847	-0.156193	-2.20122
 376	1	5	0.077888	9.32182	-2.96044	-4.54885
 377	1	1	0.09092	7.16778	-1.41054	-3.98546
 378	1	2	0.047821	7.82835	-0.64565	-5.91619
 379	1	2	0.068339	7.20754	-2.28946	-5.95439
 380	1	1	-0.129023	7.78978	-0.287826	-3.12834
 381	1	2	-0.006475	6.1058	-1.17919	-4.1364
 382	1	2	-0.010814	7.20464	-2.35622	-3.42963
 383	1	1	-0.019372	11.1759	-3.61	-8.21582
 384	1	2	0.00686	12.228	-3.90665	-8.31865
 385	1	1	-0.084968	11.2744	3.04105	-4.37576
 386	1	1	0.309483	10.1517	3.94378	-3.82478
 387	1	2	-0.002	11.9554	2.7438	-3.56808
 388	1	3	-0.436564	9.27611	4.29686	-4.91225
 389	1	1	0.15357	8.71346	3.19707	-5.65611
 390	1	4	-0.002836	10.0056	1.31239	-4.21597
 391	1	3	-0.349559	9.74	2.2664	-6.04715
 392	1	2	0.015925	12.1432	1.23028	-6.42052
 393	1	1	0.230077	10.6031	1.80317	-4.99342
 394	1	2	0.052641	11.8596	3.56688	-5.1396
 395	1	4	-0.023623	9.57849	3.36104	-3.09188
 396	1	1	-0.072969	8.0379	3.74575	-6.92916
 397	1	2	0.031276	8.97741	5.6471	-9.728
 398	1	2	0.023309	7.84942	4.27481	-9.69171
 399	1	2	0.030094	7.46397	5.77012	-8.80685
 400	1	5	0.077888	7.97415	2.67661	-5.03355
 401	1	1	0.09092	8.99797	4.53879	-7.84915
 402	1	2	0.047821	7.60806	2.90669	-7.49015
 403	1	2	0.068339	7.19894	4.38562	-6.63323
 404	1	1	-0.129023	8.27596	5.09039	-9.09436
 405	1	2	-0.006475	9.4447	5.37647	-7.29871
 406	1	2	-0.010814	9.8234	3.89256	-8.17366
 407	1	1	-0.019372	11.5877	0.773521	-5.59135
 408	1	2	0.00686	12.3233	0.47732	-4.83252
 409	1	1	-0.084968	11.4197	7.64548	-3.37363
 410	1	1	0.309483	12.2333	8.62011	-4.25049
 411	1	2	-0.002	10.4128	8.03445	-3.18171
 412	1	3	-0.436564	13.5308	8.02524	-4.46929
 413	1	1	0.15357	13.5699	6.67028	-4.97244
 414	1	4	-0.002836	10.8647	6.31531	-4.99818
 415	1	3	-0.349559	12.7217	5.8143	-4.18221
 416	1	2	0.015925	11.2464	4.97977	-2.25848
 417	1	1	0.230077	11.3604	6.24994	-4.02215
 418	1	2	0.052641	11.9086	7.56559	-2.39467
 419	1	4	-0.023623	12.3676	9.54763	-3.68005
 420	1	1	-0.072969	15.02	6.1663	-4.85441
 421	1	2	0.031276	17.3357	4.96022	-5.91411
 422	1	2	0.023309	17.0048	4.23535	-4.32302
 423	1	2	0.030094	16.7749	3.27806	-5.80194
 424	1	5	0.077888	13.2455	6.64884	-6.02078
 425	1	1	0.09092	15.2071	4.75529	-5.45437
 426	1	2	0.047821	15.6844	6.87133	-5.36953
 427	1	2	0.068339	15.314	6.16166	-3.79732
 428	1	1	-0.129023	16.6707	4.27994	-5.36732
 429	1	2	-0.006475	14.5671	4.03574	-4.92794
 430	1	2	-0.010814	14.891	4.75879	-6.50543
 431	1	1	-0.019372	10.6158	5.23891	-3.11861
 432	1	2	0.00686	9.72324	5.72578	-2.7046
 433	1	1	-0.084968	9.75388	10.3303	-6.79782
 434	1	1	0.309483	8.24253	10.6518	-6.78922
 435	1	2	-0.002	10.3421	11.2533	-6.87214
 436	1	3	-0.436564	7.52289	9.42258	-6.57956
 437	1	1	0.15357	7.88846	8.63282	-5.43166
 438	1	4	-0.002836	10.0601	10.1669	-4.65367
 439	1	3	-0.349559	9.30299	8.38846	-5.44807
 440	1	2	0.015925	11.6535	8.16246	-6.3231
 441	1	1	0.230077	10.1673	9.53286	-5.54237
 442	1	2	0.052641	9.9791	9.73646	-7.69269
 443	1	4	-0.023623	7.96598	11.032	-7.77884
 444	1	1	-0.072969	7.19142	7.26249	-5.52852
 445	1	2	0.031276	3.91635	7.96055	-4.4293
 446	1	2	0.023309	5.32385	7.52117	-3.43882
 447	1	2	0.030094	5.29092	9.07403	-4.31108
 448	1	5	0.077888	7.6071	9.14868	-4.50465
 449	1	1	0.09092	5.64864	7.33434	-5.5955
 450	1	2	0.047821	7.55877	6.75009	-6.42404
 451	1	2	0.068339	7.49055	6.64746	-4.67062
 452	1	1	-0.129023	5.01036	8.01499	-4.36703
 453	1	2	-0.006475	5.33814	7.86245	-6.50598
 454	1	2	-0.010814	5.2545	6.31351	-5.67887
 455	1	1	-0.019372	11.6202	9.00871	-5.6259
 456	1	2	0.00686	12.2546	9.79029	-6.06347
 457	1	1	-0.084968	7.33986	13.709	-7.25013
 458	1	1	0.309483	7.64571	15.2064	-7.43433
 459	1	2	-0.002	7.57371	13.1715	-8.17699
 460	1	3	-0.436564	7.36799	15.8539	-6.18002
 461	1	1	0.15357	8.12138	15.365	-5.05705
 462	1	4	-0.002836	9.23445	13.2057	-6.31794
 463	1	3	-0.349559	7.90165	13.9485	-4.91292
 464	1	2	0.015925	8.22988	11.4331	-4.74603
 465	1	1	0.230077	8.16604	13.1434	-6.07639
 466	1	2	0.052641	6.26894	13.5736	-7.05091
 467	1	4	-0.023623	8.70703	15.3208	-7.68818
 468	1	1	-0.072969	7.60757	16.0792	-3.79304
 469	1	2	0.031276	8.56758	16.2306	-0.419557
 470	1	2	0.023309	7.93964	17.5576	-1.42042
 471	1	2	0.030094	6.91063	16.1522	-1.05452
 472	1	5	0.077888	9.18964	15.5703	-5.208
 473	1	1	0.09092	8.45917	15.7544	-2.54622
 474	1	2	0.047821	7.61633	17.1629	-3.9653
 475	1	2	0.068339	6.56415	15.7898	-3.61574
 476	1	1	-0.129023	7.93589	16.4687	-1.28447
 477	1	2	-0.006475	8.4637	14.6717	-2.36724
 478	1	2	-0.010814	9.49945	16.0553	-2.72535
 479	1	1	-0.019372	7.79475	11.6849	-5.72027
 480	1	2	0.00686	6.70587	11.6203	-5.59412
 481	1	1	-0.084968	7.02905	18.3619	-7.97717
 482	1	1	0.309483	7.49972	19.6802	-8.61369
 483	1	2	-0.002	5.9791	18.4396	-7.66724
 484	1	3	-0.436564	8.87332	19.5183	-9.00591
 485	1	1	0.15357	9.14358	18.4308	-9.91145
 486	1	4	-0.002836	6.59292	17.497	-9.89626
 487	1	3	-0.349559	8.5853	17.1998	-9.40623
 488	1	2	0.015925	5.72055	15.8693	-8.2063
 489	1	1	0.230077	7.1999	17.2411	-9.01793
 490	1	2	0.052641	7.63224	18.1471	-7.0894
 491	1	4	-0.023623	6.90116	19.8625	-9.51572
 492	1	1	-0.072969	10.6712	18.2668	-10.01
 493	1	2	0.031276	12.9675	16.6222	-10.2769
 494	1	2	0.023309	12.8737	16.439	-12.0413
 495	1	2	0.030094	13.1339	18.0467	-11.3306
 496	1	5	0.077888	8.7157	18.6609	-10.8962
 497	1	1	0.09092	11.083	17.3067	-11.1469
 498	1	2	0.047821	11.1304	19.2487	-10.1804
 499	1	2	0.068339	11.0539	17.8953	-9.05113
 500	1	1	-0.129023	12.6082	17.0924	-11.201
 501	1	2	-0.006475	10.5906	16.3348	-11.0151
 502	1	2	-0.010814	10.7409	17.7127	-12.1077
 503	1	1	-0.019372	6.76469	15.8336	-8.54297
 504	1	2	0.00686	6.77847	15.1708	-9.41775
 505	1	1	-0.084968	9.51997	20.7907	-6.26967
 506	1	1	0.309483	10.0248	20.8821	-4.81816
 507	1	2	-0.002	9.88533	19.8564	-6.71132
 508	1	3	-0.436564	9.48226	22.0725	-4.21748
 509	1	1	0.15357	8.04864	22.2073	-4.256
 510	1	4	-0.002836	7.58915	19.9378	-5.76397
 511	1	3	-0.349559	7.54514	21.9958	-5.58629
 512	1	2	0.015925	6.28005	21.1216	-7.5862
 513	1	1	0.230077	7.97874	20.8197	-6.28711
 514	1	2	0.052641	9.9181	21.6185	-6.86868
 515	1	4	-0.023623	9.6604	20.0027	-4.27136
 516	1	1	-0.072969	7.65584	23.6374	-3.82204
 517	1	2	0.031276	7.39037	24.7949	-6.39058
 518	1	2	0.023309	8.88293	25.7596	-6.38681
 519	1	2	0.030094	8.98096	23.9942	-6.45608
 520	1	5	0.077888	7.59219	21.4712	-3.58124
 521	1	1	0.09092	8.46336	24.7871	-4.4811
 522	1	2	0.047821	6.58818	23.7874	-4.02591
 523	1	2	0.068339	7.77076	23.7105	-2.73368
 524	1	1	-0.129023	8.42309	24.8328	-6.02253
 525	1	2	-0.006475	8.06502	25.737	-4.10547
 526	1	2	-0.010814	9.50947	24.7351	-4.15769
 527	1	1	-0.019372	7.35304	20.9211	-7.7013
 528	1	2	0.00686	7.76844	21.7946	-8.22067
 529	1	1	-0.084968	12.6194	23.0927	-3.84273
 530	1	1	0.309483	13.3302	24.3924	-4.27181
 531	1	2	-0.002	11.7323	23.3237	-3.24071
 532	1	3	-0.436564	14.4136	24.0483	-5.1508
 533	1	1	0.15357	14.0843	23.2372	-6.29265
 534	1	4	-0.002836	11.4895	22.8765	-5.68012
 535	1	3	-0.349559	13.3751	22.0524	-5.88069
 536	1	2	0.015925	11.9744	20.1323	-5.37858
 537	1	1	0.230077	12.1981	22.2848	-5.08642
 538	1	2	0.052641	13.2953	22.4935	-3.21959
 539	1	4	-0.023623	12.62	25.0281	-4.81509
 540	1	1	-0.072969	15.395	22.8485	-7.01468
 541	1	2	0.031276	15.8029	21.9821	-4.22668
 542	1	2	0.023309	17.3676	21.2233	-4.56531
 543	1	2	0.030094	17.1586	22.9688	-4.82457
 544	1	5	0.077888	13.4511	23.8235	-6.97144
 545	1	1	0.09092	16.2257	21.7144	-6.35937
 546	1	2	0.047821	15.1471	22.5482	-8.03975
 547	1	2	0.068339	16.0225	23.744	-7.10346
 548	1	1	-0.129023	16.6641	21.9928	-4.90582
 549	1	2	-0.006475	15.6641	20.7723	-6.39405
 550	1	2	-0.010814	17.1258	21.5568	-6.96721
 551	1	1	-0.019372	11.5694	20.9134	-4.72201
 552	1	2	0.00686	11.8653	20.6273	-3.70458
 553	1	1	-0.084968	11.8353	26.5819	-2.55703
 554	1	1	0.309483	10.9113	27.0674	-1.41238
 555	1	2	-0.002	12.3207	27.4497	-3.02206
 556	1	3	-0.436564	11.3606	26.5305	-0.154022
 557	1	1	0.15357	12.7577	26.6992	0.152952
 558	1	4	-0.002836	12.422	24.7101	-1.62266
 559	1	3	-0.349559	13.5856	26.2929	-0.959761
 560	1	2	0.015925	14.4465	26.0791	-3.48195
 561	1	1	0.230077	12.9066	25.6075	-2.02755
 562	1	2	0.052641	11.2477	26.0988	-3.34478
 563	1	4	-0.023623	10.948	28.1633	-1.36531
 564	1	1	-0.072969	13.0877	25.794	1.35459
 565	1	2	0.031276	12.4943	24.2891	3.66028
 566	1	2	0.023309	13.7872	25.4438	4.06415
 567	1	2	0.030094	12.157	25.6625	4.73613
 568	1	5	0.077888	12.9674	27.7486	0.397939
 569	1	1	0.09092	12.3241	26.2104	2.63145
 570	1	2	0.047821	12.8452	24.7535	1.10338
 571	1	2	0.068339	14.1671	25.8368	1.54432
 572	1	1	-0.129023	12.7161	25.3475	3.84638
 573	1	2	-0.006475	12.5325	27.2643	2.85642
 574	1	2	-0.010814	11.2422	26.124	2.4677
 575	1	1	-0.019372	13.9428	25.1854	-3.09158
 576	1	2	0.00686	14.7155	24.572	-2.60963
 577	1	1	-0.084968	7.03749	26.9718	-0.90583
 578	1	1	0.309483	6.17432	27.1935	0.343198
 579	1	2	-0.002	6.90121	27.8027	-1.61008
 580	1	3	-0.436564	6.38004	26.074	1.2256
 581	1	1	0.15357	7.74727	25.8202	1.61046
 582	1	4	-0.002836	8.78677	27.8313	0.0365441
 583	1	3	-0.349559	8.60514	25.7869	0.454491
 584	1	2	0.015925	9.42071	25.5585	-1.89215
 585	1	1	0.230077	8.50602	26.8931	-0.460118
 586	1	2	0.052641	6.74025	26.0453	-1.41363
 587	1	4	-0.023623	6.52413	28.1106	0.833486
 588	1	1	-0.072969	7.82203	24.4466	2.30966
 589	1	2	0.031276	7.22997	21.0904	1.45389
 590	1	2	0.023309	8.56658	21.7289	2.4337
 591	1	2	0.030094	6.88933	21.874	3.01191
 592	1	5	0.077888	8.08835	26.6106	2.29187
 593	1	1	0.09092	7.40083	23.2647	1.402
 594	1	2	0.047821	8.84925	24.2873	2.66088
 595	1	2	0.068339	7.18258	24.4678	3.20027
 596	1	1	-0.129023	7.52978	21.9076	2.12175
 597	1	2	-0.006475	6.36203	23.3969	1.07365
 598	1	2	-0.010814	8.02271	23.2425	0.498078
 599	1	1	-0.019372	9.44983	26.6281	-1.65034
 600	1	2	0.00686	9.07999	27.1674	-2.53138
 601	1	1	-0.084968	4.05818	28.2425	2.35134
 602	1	1	0.309483	3.44366	29.4599	3.07002
 603	1	2	-0.002	3.57484	27.309	2.6632
 604	1	3	-0.436564	4.10621	30.6434	2.57657
 605	1	1	0.15357	4.14181	30.8464	1.1462
 606	1	4	-0.002836	2.90799	28.4555	0.524039
 607	1	3	-0.349559	4.60115	29.6603	0.475515
 608	1	2	0.015925	4.16493	26.3421	0.209797
 609	1	1	0.230077	3.9625	28.4192	0.823817
 610	1	2	0.052641	5.10739	28.1634	2.65888
 611	1	4	-0.023623	3.66313	29.3609	4.14043
 612	1	1	-0.072969	5.15788	31.9619	0.828838
 613	1	2	0.031276	2.57543	33.2612	1.04966
 614	1	2	0.023309	3.23756	34.9055	1.04677
 615	1	2	0.030094	3.4761	33.8568	-0.366392
 616	1	5	0.077888	3.14449	31.1098	0.773151
 617	1	1	0.09092	4.74563	33.3584	1.34616
 618	1	2	0.047821	6.12829	31.6919	1.26455
 619	1	2	0.068339	5.30629	32.0115	-0.256889
 620	1	1	-0.129023	3.42789	33.8727	0.729779
 621	1	2	-0.006475	4.6576	33.3427	2.43978
 622	1	2	-0.010814	5.54674	34.0691	1.10618
 623	1	1	-0.019372	4.66303	27.302	0.0209912
 624	1	2	0.00686	4.52279	27.5124	-1.04724
 625	1	1	-0.084968	-0.295161	28.6919	3.85317
 626	1	1	0.309483	-1.057	27.3888	4.15961
 627	1	2	-0.002	-0.246386	29.3197	4.75208
 628	1	3	-0.436564	-1.03545	26.5761	2.96724
 629	1	1	0.15357	0.243027	26.3035	2.35208
 630	1	4	-0.002836	1.67803	27.8526	4.13246
 631	1	3	-0.349559	0.984695	27.5279	2.18552
 632	1	2	0.015925	1.63153	29.9169	1.90388
 633	1	1	0.230077	1.12148	28.3733	3.34374
 634	1	2	0.052641	-0.843695	29.2584	3.08994
 635	1	4	-0.023623	-2.09628	27.6485	4.39566
 636	1	1	-0.072969	-0.00232042	25.7109	0.947755
 637	1	2	0.031276	-1.33285	23.872	2.82502
 638	1	2	0.023309	-2.39294	24.3508	1.478
 639	1	2	0.030094	-1.74386	22.6991	1.56445
 640	1	5	0.077888	0.825902	25.6047	2.96581
 641	1	1	0.09092	-0.276574	24.1879	0.935381
 642	1	2	0.047821	-0.840358	26.2376	0.473564
 643	1	2	0.068339	0.87799	25.9039	0.322152
 644	1	1	-0.129023	-1.51269	23.7551	1.7507
 645	1	2	-0.006475	-0.417023	23.8703	-0.105722
 646	1	2	-0.010814	0.606136	23.6532	1.30861
 647	1	1	-0.019372	1.90803	29.6366	2.92778
 648	1	2	0.00686	1.60851	30.4764	3.56788
 649	1	1	-0.084968	-0.658238	24.4017	6.68829
 650	1	1	0.309483	-1.65578	23.662	7.61199
 651	1	2	-0.002	-0.0773915	23.6857	6.09238
 652	1	3	-0.436564	-2.96026	23.6279	6.99385