pySIMM System Object

1202 atoms
1251 bonds
2500 angles
3741 dihedrals
0 impropers

5 atom types
5 bond types
11 angle types
8 dihedral types

-142.496737 142.496737 xlo xhi
-142.496737 142.496737 ylo yhi
-142.496737 142.496737 zlo zhi

Masses

   1	12.01	# c3
   2	1.008	# hc
   3	16.0	# os
   4	1.008	# h1
   5	1.008	# h2

Pair Coeffs

   1	0.1094	3.3996695084235347	# c3
   2	0.0157	2.649532787749369	# hc
   3	0.17	3.0000123434657784	# os
   4	0.0157	2.471353044121301	# h1
   5	0.0157	2.2931733004932333	# h2

Bond Coeffs

   1	330.6	1.0969	# c3,h1
   2	308.6	1.4316	# c3,os
   3	330.6	1.0969	# c3,hc
   4	300.9	1.5375	# c3,c3
   5	331.7	1.0961	# c3,h2

Angle Coeffs

   1	62.7	112.48	# c3,os,c3
   2	50.85	109.58	# h2,c3,os
   3	68.0	107.97	# c3,c3,os
   4	72.74	108.29	# os,c3,os
   5	46.34	109.8	# c3,c3,hc
   6	46.25	110.22	# c3,c3,h2
   7	50.8	109.78	# h1,c3,os
   8	46.39	109.56	# c3,c3,h1
   9	39.4	107.58	# hc,c3,hc
  10	39.24	108.46	# h1,c3,h1
  11	62.86	111.51	# c3,c3,c3

Dihedral Coeffs

   1	3	0.18	3	0	0.25	2	180	0.2	1	180	# c3,c3,c3,c3
   2	2	0.0	3	0	0.25	1	0	# hc,c3,c3,os
   3	1	0.3833333333333333	3	0	# X,c3,os,X
   4	1	0.15	3	0	# hc,c3,c3,hc
   5	2	0.383	3	0	0.1	2	180	# c3,c3,os,c3
   6	1	0.16	3	0	# hc,c3,c3,c3
   7	3	0.1	3	0	0.85	2	180	1.35	1	180	# c3,os,c3,os
   8	1	0.15555555555555556	3	0	# X,c3,c3,X

Atoms

   1	1	1	-0.084968	7.77956	9.33817	41.8627
   2	1	1	0.309483	7.78274	8.90313	43.3421
   3	1	2	-0.002	8.24491	8.5691	41.2337
   4	1	3	-0.436564	7.08237	9.90646	44.1004
   5	1	1	0.15357	5.73338	10.1803	43.679
   6	1	4	-0.002836	5.7771	8.61944	41.4566
   7	1	3	-0.349559	5.72388	10.5281	42.2816
   8	1	2	0.015925	5.20245	10.2735	39.6708
   9	1	1	0.230077	6.32933	9.56663	41.4018
  10	1	2	0.052641	8.35977	10.2621	41.7454
  11	1	4	-0.023623	7.25216	7.94702	43.4374
  12	1	1	-0.072969	5.21487	11.3804	44.4961
  13	1	2	0.031276	2.89991	9.82231	43.7331
  14	1	2	0.023309	2.78204	10.3199	45.4387
  15	1	2	0.030094	1.71558	11.0477	44.219
  16	1	5	0.077888	5.10728	9.29501	43.8501
  17	1	1	0.09092	3.7644	11.7941	44.1521
  18	1	2	0.047821	5.27653	11.138	45.5643
  19	1	2	0.068339	5.8804	12.2363	44.329
  20	1	1	-0.129023	2.73109	10.6752	44.4019
  21	1	2	-0.006475	3.4941	12.666	44.7612
  22	1	2	-0.010814	3.70533	12.1159	43.1046
  23	1	1	-0.019372	6.24779	10.1141	39.9632
  24	1	2	0.00686	6.77987	11.07	39.8752
  25	1	1	-0.084968	11.4426	7.52447	43.9124
  26	1	1	0.309483	12.2125	6.4066	43.1856
  27	1	2	-0.002	12.0185	8.45849	43.8871
  28	1	3	-0.436564	11.3876	5.22564	43.2148
  29	1	1	0.15357	10.0918	5.37087	42.6025
  30	1	4	-0.002836	10.256	8.05593	42.192
  31	1	3	-0.349559	9.38874	6.46633	43.2151
  32	1	2	0.015925	9.10464	8.48886	45.0071
  33	1	1	0.230077	10.0805	7.72774	43.2243
  34	1	2	0.052641	11.2954	7.25253	44.9654
  35	1	4	-0.023623	12.369	6.71689	42.1447
  36	1	1	-0.072969	9.26494	4.09247	42.8371
  37	1	2	0.031276	7.97286	1.81627	41.7822
  38	1	2	0.023309	9.41062	0.778208	41.6954
  39	1	2	0.030094	8.81486	1.33196	43.2746
  40	1	5	0.077888	10.2059	5.55964	41.5266
  41	1	1	0.09092	9.86281	2.8643	42.12
  42	1	2	0.047821	9.19361	3.89434	43.9142
  43	1	2	0.068339	8.24421	4.26319	42.4735
  44	1	1	-0.129023	8.95739	1.62318	42.2263
  45	1	2	-0.006475	10.0304	3.09797	41.0607
  46	1	2	-0.010814	10.8365	2.62705	42.5597
  47	1	1	-0.019372	9.19861	8.76836	43.9497
  48	1	2	0.00686	9.70066	9.74434	43.9242
  49	1	1	-0.084968	14.0009	3.59592	43.38
  50	1	1	0.309483	13.695	2.85888	42.0646
  51	1	2	-0.002	14.8026	3.07136	43.9163
  52	1	3	-0.436564	14.834	3.0564	41.2088
  53	1	1	0.15357	15.1079	4.42412	40.8349
  54	1	4	-0.002836	15.48	5.15608	43.4791
  55	1	3	-0.349559	14.4254	5.35155	41.7039
  56	1	2	0.015925	13.4372	5.81691	44.894
  57	1	1	0.230077	14.448	5.0574	43.1185
  58	1	2	0.052641	13.1231	3.55888	44.0353
  59	1	4	-0.023623	12.8056	3.30462	41.6016
  60	1	1	-0.072969	14.5719	4.65979	39.4082
  61	1	2	0.031276	14.8125	5.18774	36.6504
  62	1	2	0.023309	15.4274	3.5893	36.1772
  63	1	2	0.030094	13.7936	3.74308	36.8567
  64	1	5	0.077888	16.1897	4.60678	40.8723
  65	1	1	0.09092	15.3971	3.91889	38.3337
  66	1	2	0.047821	13.5237	4.33868	39.3566
  67	1	2	0.068339	14.5872	5.73548	39.1934
  68	1	1	-0.129023	14.821	4.12392	36.9189
  69	1	2	-0.006475	16.4344	4.27665	38.3578
  70	1	2	-0.010814	15.4246	2.84553	38.5524
  71	1	1	-0.019372	13.5841	6.11753	43.8487
  72	1	2	0.00686	14.1551	7.05426	43.8804
  73	1	1	-0.084968	13.9507	0.183248	40.0186
  74	1	1	0.309483	13.3031	-0.553229	38.8307
  75	1	2	-0.002	14.5539	1.0185	39.6501
  76	1	3	-0.436564	12.429	-1.57735	39.3522
  77	1	1	0.15357	11.4673	-1.20057	40.3596
  78	1	4	-0.002836	12.2014	1.38117	40.5069
  79	1	3	-0.349559	12.116	-0.473547	41.4189
  80	1	2	0.015925	12.7318	1.22631	43.0948
  81	1	1	0.230077	12.8756	0.674668	41.0071
  82	1	2	0.052641	14.6352	-0.502331	40.5331
  83	1	4	-0.023623	14.1038	-1.03481	38.2559
  84	1	1	-0.072969	10.8701	-2.49585	40.94
  85	1	2	0.031276	8.72238	-4.15945	41.6953
  86	1	2	0.023309	9.89118	-4.10689	43.0364
  87	1	2	0.030094	8.31204	-3.30998	43.201
  88	1	5	0.077888	10.6778	-0.582607	39.9131
  89	1	1	0.09092	9.71872	-2.22684	41.9332
  90	1	2	0.047821	10.4997	-3.11847	40.116
  91	1	2	0.068339	11.665	-3.06395	41.4394
  92	1	1	-0.129023	9.12606	-3.53178	42.4997
  93	1	2	-0.006475	10.0781	-1.60751	42.7649
  94	1	2	-0.010814	8.92466	-1.6619	41.4285
  95	1	1	-0.019372	13.45	1.34861	42.2737
  96	1	2	0.00686	14.375	0.850569	42.5923
  97	1	1	-0.084968	10.8638	-1.26268	36.7439
  98	1	1	0.309483	9.96349	-1.25193	35.4912
  99	1	2	-0.002	11.2223	-2.2798	36.9479
 100	1	3	-0.436564	10.8157	-1.09013	34.3414
 101	1	1	0.15357	11.4943	0.180403	34.2669
 102	1	4	-0.002836	12.9289	-0.901024	36.179
 103	1	3	-0.349559	11.7512	0.692306	35.5943
 104	1	2	0.015925	13.2023	1.21539	37.5945
 105	1	1	0.230077	12.0837	-0.318925	36.5696
 106	1	2	0.052641	10.2595	-0.958448	37.606
 107	1	4	-0.023623	9.28898	-0.389503	35.5644
 108	1	1	-0.072969	10.5944	1.18935	33.5189
 109	1	2	0.031276	9.86045	2.71988	31.2598
 110	1	2	0.023309	9.14502	1.39063	30.326
 111	1	2	0.030094	8.40884	1.8869	31.8633
 112	1	5	0.077888	12.4416	0.0498661	33.7278
 113	1	1	0.09092	10.2529	0.730045	32.0821
 114	1	2	0.047821	9.66682	1.34761	34.083
 115	1	2	0.068339	11.109	2.15703	33.4771
 116	1	1	-0.129023	9.36242	1.74551	31.3399
 117	1	2	-0.006475	11.1804	0.581324	31.5146
 118	1	2	-0.010814	9.73467	-0.236505	32.1073
 119	1	1	-0.019372	12.5335	0.389308	37.8684
 120	1	2	0.00686	11.6683	0.845419	38.3649
 121	1	1	-0.084968	7.39766	-3.68895	33.771
 122	1	1	0.309483	6.60139	-3.52443	32.4581
 123	1	2	-0.002	8.00058	-4.6055	33.7379
 124	1	3	-0.436564	5.91251	-2.2541	32.5111
 125	1	1	0.15357	6.67289	-1.07455	32.8537
 126	1	4	-0.002836	9.00244	-2.37675	33.1624
 127	1	3	-0.349559	7.45023	-1.30416	34.0393
 128	1	2	0.015925	8.42911	-2.63496	36.1665
 129	1	1	0.230077	8.29985	-2.46292	33.9998
 130	1	2	0.052641	6.69653	-3.79274	34.6085
 131	1	4	-0.023623	5.86242	-4.33305	32.3997
 132	1	1	-0.072969	5.70375	0.108393	33.0787
 133	1	2	0.031276	3.46391	-0.954389	35.6034
 134	1	2	0.023309	3.33982	-1.22563	33.8518
 135	1	2	0.030094	4.63088	-2.01183	34.7931
 136	1	5	0.077888	7.35194	-0.827611	32.0293
 137	1	1	0.09092	4.95928	0.125795	34.4388
 138	1	2	0.047821	6.27515	1.03988	32.9881
 139	1	2	0.068339	4.96792	0.123195	32.2654
 140	1	1	-0.129023	4.04388	-1.0922	34.6826
 141	1	2	-0.006475	5.68125	0.208259	35.2611
 142	1	2	-0.010814	4.34409	1.03359	34.4808
 143	1	1	-0.019372	9.10966	-2.52534	35.3125
 144	1	2	0.00686	9.75959	-3.40978	35.3
 145	1	1	-0.084968	5.68431	-2.74327	29.4807
 146	1	1	0.309483	6.40162	-1.42943	29.154
 147	1	2	-0.002	5.11645	-3.08286	28.6042
 148	1	3	-0.436564	7.18988	-1.68878	27.9815
 149	1	1	0.15357	8.16652	-2.75049	28.0405
 150	1	4	-0.002836	6.2139	-4.7712	29.9394
 151	1	3	-0.349559	7.70414	-3.91125	28.7868
 152	1	2	0.015925	8.18547	-4.44219	31.3128
 153	1	1	0.230077	6.7329	-3.80801	29.858
 154	1	2	0.052641	4.95169	-2.60635	30.2819
 155	1	4	-0.023623	7.05004	-1.14229	29.9876
 156	1	1	-0.072969	9.47877	-2.15637	28.6138
 157	1	2	0.031276	11.6875	-4.74124	29.5779
 158	1	2	0.023309	10.6343	-3.76664	30.6216
 159	1	2	0.030094	9.93287	-4.92963	29.4683
 160	1	5	0.077888	8.37466	-3.07382	27.0124
 161	1	1	0.09092	10.7058	-3.09638	28.5382
 162	1	2	0.047821	9.71508	-1.26593	28.0179
 163	1	2	0.068339	9.34572	-1.79261	29.6358
 164	1	1	-0.129023	10.7351	-4.19841	29.618
 165	1	2	-0.006475	10.7663	-3.55139	27.5413
 166	1	2	-0.010814	11.6105	-2.48631	28.6561
 167	1	1	-0.019372	7.49812	-3.59555	31.1935
 168	1	2	0.00686	8.12818	-2.70657	31.14
 169	1	1	-0.084968	7.21633	1.34011	27.8692
 170	1	1	0.309483	7.44551	2.84209	27.5854
 171	1	2	-0.002	8.15215	0.862514	28.1854
 172	1	3	-0.436564	7.03595	3.60439	28.7384
 173	1	1	0.15357	5.64739	3.47588	29.1174
 174	1	4	-0.002836	6.61258	1.18961	29.9445
 175	1	3	-0.349559	5.1558	2.14819	28.8376
 176	1	2	0.015925	4.62535	-0.278628	29.6109
 177	1	1	0.230077	6.14128	1.10829	28.9559
 178	1	2	0.052641	6.9164	0.853479	26.933
 179	1	4	-0.023623	6.83046	3.12952	26.7235
 180	1	1	-0.072969	4.78366	4.47308	28.3157
 181	1	2	0.031276	3.26891	6.87505	28.334
 182	1	2	0.023309	4.62091	7.95919	27.9438
 183	1	2	0.030094	4.11558	6.71537	26.7803
 184	1	5	0.077888	5.5551	3.68522	30.1909
 185	1	1	0.09092	5.23863	5.9387	28.4914
 186	1	2	0.047821	4.79845	4.20927	27.2508
 187	1	2	0.068339	3.74398	4.37494	28.6512
 188	1	1	-0.129023	4.25049	6.93112	27.8469
 189	1	2	-0.006475	5.33186	6.17101	29.5601
 190	1	2	-0.010814	6.23054	6.07657	28.0422
 191	1	1	-0.019372	5.43257	-0.262162	28.8676
 192	1	2	0.00686	4.96161	-0.390595	27.8841
 193	1	1	-0.084968	10.6428	4.96329	26.6526
 194	1	1	0.309483	10.8674	5.78228	25.3651
 195	1	2	-0.002	11.0075	5.51925	27.5261
 196	1	3	-0.436564	9.80473	6.74984	25.2756
 197	1	1	0.15357	8.4834	6.19247	25.1155
 198	1	4	-0.002836	8.73492	5.29642	27.6267
 199	1	3	-0.349559	8.43397	4.84187	25.6215
 200	1	2	0.015925	9.28663	2.49466	26.4917
 201	1	1	0.230077	9.14286	4.62675	26.8585
 202	1	2	0.052641	11.2408	4.04584	26.5917
 203	1	4	-0.023623	10.8078	5.0959	24.5108
 204	1	1	-0.072969	8.16097	6.1624	23.606
 205	1	2	0.031276	5.67826	7.47678	23.6486
 206	1	2	0.023309	4.63984	6.03675	23.5777
 207	1	2	0.030094	5.64362	6.33013	25.0088
 208	1	5	0.077888	7.76247	6.82323	25.651
 209	1	1	0.09092	6.7572	5.60888	23.2702
 210	1	2	0.047821	8.25375	7.17801	23.2016
 211	1	2	0.068339	8.91212	5.54949	23.0941
 212	1	1	-0.129023	5.61217	6.41503	23.9165
 213	1	2	-0.006475	6.62772	5.61744	22.1806
 214	1	2	-0.010814	6.68415	4.55984	23.5838
 215	1	1	-0.019372	8.92627	3.15981	27.2873
 216	1	2	0.00686	9.53062	2.94639	28.1787
 217	1	1	-0.084968	13.8015	7.94705	23.8741
 218	1	1	0.309483	14.0257	8.51776	22.455
 219	1	2	-0.002	13.8716	8.74831	24.6209
 220	1	3	-0.436564	13.7663	7.47574	21.4915
 221	1	1	0.15357	12.5097	6.78045	21.6035
 222	1	4	-0.002836	11.6318	7.97198	23.8406
 223	1	3	-0.349559	12.3754	6.25527	22.931
 224	1	2	0.015925	13.0354	5.78983	25.4828
 225	1	1	0.230077	12.4353	7.23786	23.9779
 226	1	2	0.052641	14.6014	7.22978	24.0959
 227	1	4	-0.023623	15.079	8.81214	22.3685
 228	1	1	-0.072969	12.5129	5.61436	20.5971
 229	1	2	0.031276	9.06865	5.07687	20.0822
 230	1	2	0.023309	9.76218	6.4321	20.9888
 231	1	2	0.030094	10.1343	6.24043	19.2636
 232	1	5	0.077888	11.6819	7.46831	21.3909
 233	1	1	0.09092	11.1842	4.8239	20.5617
 234	1	2	0.047821	12.7225	6.00871	19.595
 235	1	2	0.068339	13.3341	4.93073	20.8452
 236	1	1	-0.129023	9.96493	5.69804	20.2013
 237	1	2	-0.006475	11.2739	4.0181	19.8222
 238	1	2	-0.010814	11.0103	4.3412	21.5319
 239	1	1	-0.019372	12.2262	6.5146	25.3259
 240	1	2	0.00686	12.2806	7.24056	26.1475
 241	1	1	-0.084968	12.2985	9.73693	19.7128
 242	1	1	0.309483	12.4581	10.4127	18.3385
 243	1	2	-0.002	12.4118	8.65522	19.5906
 244	1	3	-0.436564	12.3726	11.8375	18.5212
 245	1	1	0.15357	13.2969	12.4052	19.4682
 246	1	4	-0.002836	14.3561	10.0614	20.3429
 247	1	3	-0.349559	13.1829	11.7266	20.733
 248	1	2	0.015925	13.4694	10.5592	22.8499
 249	1	1	0.230077	13.3445	10.2961	20.699
 250	1	2	0.052641	11.2998	9.92618	20.1198
 251	1	4	-0.023623	13.4543	10.1659	17.9491
 252	1	1	-0.072969	12.9292	13.8844	19.6889
 253	1	2	0.031276	11.7762	16.3541	18.9738
 254	1	2	0.023309	13.464	16.6438	19.4584
 255	1	2	0.030094	12.9853	16.8134	17.7558
 256	1	5	0.077888	14.3245	12.3158	19.0915
 257	1	1	0.09092	13.1479	14.7425	18.4236
 258	1	2	0.047821	11.8811	13.9537	20.0066
 259	1	2	0.068339	13.5402	14.2835	20.5078
 260	1	1	-0.129023	12.8232	16.229	18.67
 261	1	2	-0.006475	14.1911	14.6517	18.0946
 262	1	2	-0.010814	12.5184	14.3702	17.6054
 263	1	1	-0.019372	13.167	9.77205	22.1471
 264	1	2	0.00686	12.1055	9.58161	22.3467
 265	1	1	-0.084968	9.01706	10.3364	16.4072
 266	1	1	0.309483	7.59163	10.7042	16.8619
 267	1	2	-0.002	9.36211	11.0531	15.6509
 268	1	3	-0.436564	7.19704	9.8273	17.9367
 269	1	1	0.15357	8.09996	9.71402	19.0521
 270	1	4	-0.002836	9.9328	11.384	18.0532
 271	1	3	-0.349559	9.42874	9.43065	18.5813
 272	1	2	0.015925	11.475	8.90128	17.1129
 273	1	1	0.230077	9.95258	10.3721	17.6285
 274	1	2	0.052641	9.03113	9.34312	15.9478
 275	1	4	-0.023623	7.62131	11.7347	17.2392
 276	1	1	-0.072969	7.6492	8.52965	19.9294
 277	1	2	0.031276	6.37632	10.8449	21.0777
 278	1	2	0.023309	5.20667	9.92917	22.0457
 279	1	2	0.030094	6.9447	9.75294	22.3641
 280	1	5	0.077888	8.10758	10.6485	19.6277
 281	1	1	0.09092	6.25281	8.71666	20.5648
 282	1	2	0.047821	7.64385	7.61803	19.3188
 283	1	2	0.068339	8.38733	8.37458	20.7247
 284	1	1	-0.129023	6.19554	9.88312	21.5729
 285	1	2	-0.006475	5.49966	8.87073	19.7817
 286	1	2	-0.010814	5.97639	7.79069	21.0831
 287	1	1	-0.019372	11.4105	9.98441	17.2791
 288	1	2	0.00686	11.6857	10.4563	16.3271
 289	1	1	-0.084968	4.74706	9.31023	14.4689
 290	1	1	0.309483	4.08605	7.9204	14.3881
 291	1	2	-0.002	3.99395	10.0697	14.7156
 292	1	3	-0.436564	5.11176	6.93638	14.1575
 293	1	1	0.15357	6.22673	6.93502	15.0723
 294	1	4	-0.002836	5.35686	8.99655	16.508
 295	1	3	-0.349559	6.77771	8.26404	15.1731
 296	1	2	0.015925	7.00064	10.9422	14.7746
 297	1	1	0.230077	5.83145	9.27502	15.558
 298	1	2	0.052641	5.1936	9.58581	13.5069
 299	1	4	-0.023623	3.62556	7.72261	15.3648
 300	1	1	-0.072969	7.29809	5.97987	14.5066
 301	1	2	0.031276	9.88041	5.97066	16.9128
 302	1	2	0.023309	9.6999	7.04547	15.5139
 303	1	2	0.030094	8.55167	7.14392	16.8745
 304	1	5	0.077888	5.88746	6.5914	16.0586
 305	1	1	0.09092	8.25532	5.40469	15.5765
 306	1	2	0.047821	6.79562	5.13737	14.0174
 307	1	2	0.068339	7.87304	6.49331	13.7262
 308	1	1	-0.129023	9.1485	6.45942	16.2594
 309	1	2	-0.006475	7.67493	4.87159	16.3404
 310	1	2	-0.010814	8.90234	4.65829	15.0985
 311	1	1	-0.019372	6.5395	10.6425	15.7246
 312	1	2	0.00686	5.7726	11.3977	15.9386
 313	1	1	-0.084968	4.58034	8.01084	11.2451
 314	1	1	0.309483	4.76482	7.43544	9.82972
 315	1	2	-0.002	4.46496	9.10099	11.1945
 316	1	3	-0.436564	4.83222	6.00159	9.92594
 317	1	1	0.15357	3.74062	5.34083	10.5936
 318	1	4	-0.002836	2.46922	7.62003	11.2411
 319	1	3	-0.349559	3.48025	5.94684	11.8736
 320	1	2	0.015925	2.47397	8.81834	13.2484
 321	1	1	0.230077	3.32739	7.37527	11.8808
 322	1	2	0.052641	5.47602	7.79468	11.8382
 323	1	4	-0.023623	3.90323	7.726	9.21592
 324	1	1	-0.072969	4.12749	3.86311	10.8105
 325	1	2	0.031276	4.88546	1.58894	12.2906
 326	1	2	0.023309	6.03816	1.78434	10.9481
 327	1	2	0.030094	6.55873	2.0873	12.6196
 328	1	5	0.077888	2.84059	5.40657	9.96868
 329	1	1	0.09092	5.31574	3.67207	11.7834
 330	1	2	0.047821	3.25471	3.31898	11.1916
 331	1	2	0.068339	4.37795	3.42028	9.83893
 332	1	1	-0.129023	5.72271	2.19159	11.9169
 333	1	2	-0.006475	6.1823	4.25037	11.4383
 334	1	2	-0.010814	5.04676	4.05276	12.7763
 335	1	1	-0.019372	2.96098	7.83754	13.3181
 336	1	2	0.00686	2.18334	7.16258	13.6981
 337	1	1	-0.084968	5.2571	8.27747	6.7462
 338	1	1	0.309483	5.56716	7.9553	5.26799
 339	1	2	-0.002	4.20788	8.04642	6.96625
 340	1	3	-0.436564	6.9773	8.13251	5.05336
 341	1	1	0.15357	7.83175	7.35554	5.90957
 342	1	4	-0.002836	5.96114	6.40778	7.59962
 343	1	3	-0.349559	7.54623	7.70313	7.27446
 344	1	2	0.015925	6.9247	7.52214	9.72983
 345	1	1	0.230077	6.18619	7.47867	7.68637
 346	1	2	0.052641	5.40019	9.35094	6.9225
 347	1	4	-0.023623	5.30263	6.91187	5.05339
 348	1	1	-0.072969	9.30292	7.70767	5.60873
 349	1	2	0.031276	8.18041	6.69156	3.12626
 350	1	2	0.023309	9.1962	8.11902	2.81321
 351	1	2	0.030094	9.74496	6.50416	2.31545
 352	1	5	0.077888	7.65628	6.28173	5.75919
 353	1	1	0.09092	9.91221	6.86817	4.46077
 354	1	2	0.047821	9.38648	8.77618	5.37307
 355	1	2	0.068339	9.90072	7.53913	6.51301
 356	1	1	-0.129023	9.21344	7.05959	3.09801
 357	1	2	-0.006475	10.9709	7.1363	4.35383
 358	1	2	-0.010814	9.88509	5.80514	4.73289
 359	1	1	-0.019372	6.07096	7.91869	9.16442
 360	1	2	0.00686	6.13465	9.01286	9.22657
 361	1	1	-0.084968	2.53657	9.63887	3.40855
 362	1	1	0.309483	1.44883	9.09581	2.45498
 363	1	2	-0.002	2.08528	10.2635	4.19045
 364	1	3	-0.436564	0.998117	7.81965	2.94869
 365	1	1	0.15357	2.00112	6.78237	3.01679
 366	1	4	-0.002836	2.88884	8.27946	5.05377
 367	1	3	-0.349559	3.30919	7.34076	3.24827
 368	1	2	0.015925	5.33779	8.88144	3.31364
 369	1	1	0.230077	3.35005	8.50993	4.08504
 370	1	2	0.052641	3.20113	10.2933	2.83079
 371	1	4	-0.023623	1.8992	8.96385	1.46324
 372	1	1	-0.072969	2.06499	6.02565	1.67388
 373	1	2	0.031276	1.14839	5.09624	-0.815816
 374	1	2	0.023309	1.63978	3.69191	0.157959
 375	1	2	0.030094	-0.0789078	3.97233	-0.190759
 376	1	5	0.077888	1.74501	6.0877	3.82718
 377	1	1	0.09092	0.74238	5.31288	1.3214
 378	1	2	0.047821	2.33392	6.7207	0.868734
 379	1	2	0.068339	2.86934	5.28186	1.73266
 380	1	1	-0.129023	0.872441	4.4674	0.0393403
 381	1	2	-0.006475	0.442307	4.66166	2.15239
 382	1	2	-0.010814	-0.0564149	6.05308	1.1847
 383	1	1	-0.019372	4.83122	8.8967	4.288
 384	1	2	0.00686	4.89864	9.92858	4.65678
 385	1	1	-0.084968	-1.96103	10.5395	1.10605
 386	1	1	0.309483	-2.72887	10.2639	-0.203442
 387	1	2	-0.002	-2.6009	10.3228	1.97103
 388	1	3	-0.436564	-1.81007	10.4797	-1.28595
 389	1	1	0.15357	-0.63355	9.66273	-1.27024
 390	1	4	-0.002836	-0.969839	8.61434	1.22677
 391	1	3	-0.349559	0.0690748	9.90327	-0.0414647
 392	1	2	0.015925	0.578288	11.0741	2.2248
 393	1	1	0.230077	-0.684672	9.67249	1.16231
 394	1	2	0.052641	-1.68846	11.6013	1.15598
 395	1	4	-0.023623	-3.06208	9.21819	-0.208686
 396	1	1	-0.072969	0.248622	10.0905	-2.45937
 397	1	2	0.031276	1.15874	7.52058	-3.24118
 398	1	2	0.023309	2.71088	7.57748	-2.38373
 399	1	2	0.030094	1.20128	7.57708	-1.46162
 400	1	5	0.077888	-0.905433	8.60163	-1.35074
 401	1	1	0.09092	1.67017	9.48518	-2.43814
 402	1	2	0.047821	-0.252307	9.79903	-3.3909
 403	1	2	0.068339	0.327987	11.1844	-2.47187
 404	1	1	-0.129023	1.68025	7.94533	-2.37699
 405	1	2	-0.006475	2.20164	9.81028	-3.34111
 406	1	2	-0.010814	2.2329	9.8839	-1.58451
 407	1	1	-0.019372	0.230372	10.0402	2.34897
 408	1	2	0.00686	-0.34153	10.0084	3.2856
 409	1	1	-0.084968	-3.97572	11.5606	-2.96092
 410	1	1	0.309483	-3.6044	10.4048	-3.90555
 411	1	2	-0.002	-4.62343	12.2709	-3.49138
 412	1	3	-0.436564	-4.85258	9.78337	-4.25044
 413	1	1	0.15357	-5.56534	9.18248	-3.1472
 414	1	4	-0.002836	-5.67275	11.5754	-1.63448
 415	1	3	-0.349559	-5.03492	9.61153	-1.87132
 416	1	2	0.015925	-3.63699	12.2447	-0.289778
 417	1	1	0.230077	-4.73035	11.019	-1.71617
 418	1	2	0.052641	-3.08076	12.1247	-2.67469
 419	1	4	-0.023623	-2.96859	9.68567	-3.37572
 420	1	1	-0.072969	-5.38018	7.65399	-3.23271
 421	1	2	0.031276	-6.40799	5.07243	-3.716
 422	1	2	0.023309	-6.31603	5.1298	-5.48932
 423	1	2	0.030094	-4.82809	5.1976	-4.52346
 424	1	5	0.077888	-6.62963	9.442	-3.21573
 425	1	1	0.09092	-5.97844	7.05809	-4.52683
 426	1	2	0.047821	-4.31092	7.41297	-3.17625
 427	1	2	0.068339	-5.86033	7.19066	-2.3623
 428	1	1	-0.129023	-5.87502	5.52071	-4.56386
 429	1	2	-0.006475	-7.03394	7.34764	-4.60885
 430	1	2	-0.010814	-5.46185	7.47009	-5.40318
 431	1	1	-0.019372	-3.95505	11.1983	-0.382268
 432	1	2	0.00686	-4.65092	11.019	0.44718
 433	1	1	-0.084968	-1.63416	10.0707	-7.31302
 434	1	1	0.309483	-0.55535	8.98683	-7.53957
 435	1	2	-0.002	-2.22638	10.2122	-8.22646
 436	1	3	-0.436564	-1.21364	7.70817	-7.46141
 437	1	1	0.15357	-1.82267	7.39856	-6.1894
 438	1	4	-0.002836	-3.53689	9.34186	-6.56957
 439	1	3	-0.349559	-1.99223	8.59786	-5.40933
 440	1	2	0.015925	-1.92409	11.3359	-4.89177
 441	1	1	0.230077	-2.58377	9.68656	-6.14714
 442	1	2	0.052641	-1.13692	11.0267	-7.10963
 443	1	4	-0.023623	0.188667	9.06377	-6.73537
 444	1	1	-0.072969	-0.894719	6.43026	-5.43145
 445	1	2	0.031276	-0.62045	3.99335	-4.02484
 446	1	2	0.023309	0.394254	5.22109	-3.2362
 447	1	2	0.030094	-1.0721	4.62422	-2.4282
 448	1	5	0.077888	-2.79862	6.92509	-6.36097
 449	1	1	0.09092	-1.47491	6.00553	-4.0646
 450	1	2	0.047821	-0.740845	5.53871	-6.05204
 451	1	2	0.068339	0.0876428	6.89613	-5.2913
 452	1	1	-0.129023	-0.639775	4.89452	-3.39919
 453	1	2	-0.006475	-1.52511	6.87248	-3.3931
 454	1	2	-0.010814	-2.50092	5.64294	-4.19951
 455	1	1	-0.019372	-2.86997	10.8617	-5.18323
 456	1	2	0.00686	-3.46321	11.6245	-5.70374
 457	1	1	-0.084968	1.19105	6.75065	-9.21486
 458	1	1	0.309483	2.52848	5.9969	-9.37384
 459	1	2	-0.002	0.643034	6.30836	-8.37588
 460	1	3	-0.436564	3.35679	6.67034	-10.3383
 461	1	1	0.15357	3.54047	8.0865	-10.1663
 462	1	4	-0.002836	2.01221	8.36334	-8.02023
 463	1	3	-0.349559	2.26264	8.73296	-10.0415
 464	1	2	0.015925	0.467252	10.1698	-9.02542
 465	1	1	0.230077	1.45325	8.2473	-8.95839
 466	1	2	0.052641	0.563226	6.6445	-10.1033
 467	1	4	-0.023623	3.02749	6.03058	-8.39814
 468	1	1	-0.072969	4.2788	8.62553	-11.4048
 469	1	2	0.031276	3.62505	11.3565	-11.6003
 470	1	2	0.023309	3.72089	11.0001	-9.85949
 471	1	2	0.030094	4.97142	11.9926	-10.6308
 472	1	5	0.077888	4.13728	8.27614	-9.26757
 473	1	1	0.09092	5.14088	9.86558	-11.0834
 474	1	2	0.047821	4.93586	7.84007	-11.7932
 475	1	2	0.068339	3.56137	8.85404	-12.2028
 476	1	1	-0.129023	4.31121	11.1285	-10.7749
 477	1	2	-0.006475	5.8004	9.64782	-10.234
 478	1	2	-0.010814	5.79778	10.0672	-11.9352
 479	1	1	-0.019372	0.176576	9.11961	-8.89298
 480	1	2	0.00686	-0.50169	8.87297	-9.7204
 481	1	1	-0.084968	1.36504	5.05313	-12.1372
 482	1	1	0.309483	1.34124	4.53789	-13.5934
 483	1	2	-0.002	0.357424	5.08947	-11.7172
 484	1	3	-0.436564	2.70967	4.39013	-14.0254
 485	1	1	0.15357	3.54308	3.54864	-13.2045
 486	1	4	-0.002836	1.78119	3.12353	-11.2942
 487	1	3	-0.349559	3.53668	4.03284	-11.8487
 488	1	2	0.015925	1.47529	4.11306	-9.22982
 489	1	1	0.230077	2.22937	4.12534	-11.2596
 490	1	2	0.052641	1.76297	6.07367	-12.1354
 491	1	4	-0.023623	0.852766	3.55545	-13.6297
 492	1	1	-0.072969	4.98184	3.59581	-13.7498
 493	1	2	0.031276	7.81843	3.48387	-13.6743
 494	1	2	0.023309	7.94134	1.81291	-13.0948
 495	1	2	0.030094	7.22531	2.1476	-14.6848
 496	1	5	0.077888	3.16542	2.51796	-13.2333
 497	1	1	0.09092	5.91948	2.62525	-12.9963
 498	1	2	0.047821	4.9636	3.33234	-14.8146
 499	1	2	0.068339	5.36311	4.62046	-13.6765
 500	1	1	-0.129023	7.30937	2.51394	-13.654
 501	1	2	-0.006475	6.03685	2.95342	-11.9555
 502	1	2	-0.010814	5.46354	1.62717	-12.9679
 503	1	1	-0.019372	2.35746	4.50064	-9.75479
 504	1	2	0.00686	3.20407	3.94132	-9.33699
 505	1	1	-0.084968	-1.68782	5.32528	-13.4203
 506	1	1	0.309483	-3.20339	5.31654	-13.6848
 507	1	2	-0.002	-1.43997	4.45063	-12.8072
 508	1	3	-0.436564	-3.51328	6.39457	-14.584
 509	1	1	0.15357	-2.80779	6.34756	-15.8379
 510	1	4	-0.002836	-1.06774	4.31427	-15.2249
 511	1	3	-0.349559	-1.38831	6.33693	-15.593
 512	1	2	0.015925	1.08675	5.38076	-15.5769
 513	1	1	0.230077	-0.89403	5.28404	-14.7408
 514	1	2	0.052641	-1.41695	6.22816	-12.8578
 515	1	4	-0.023623	-3.47889	4.36631	-14.1605
 516	1	1	-0.072969	-3.1705	7.58724	-16.6832
 517	1	2	0.031276	-4.27079	10.108	-17.2701
 518	1	2	0.023309	-3.11868	11.0786	-16.3274
 519	1	2	0.030094	-2.54987	10.1369	-17.7216
 520	1	5	0.077888	-3.08625	5.43714	-16.3851
 521	1	1	0.09092	-2.98358	8.93376	-15.9463
 522	1	2	0.047821	-2.55607	7.58135	-17.5923
 523	1	2	0.068339	-4.21331	7.49832	-17.01
 524	1	1	-0.129023	-3.24748	10.1365	-16.8745
 525	1	2	-0.006475	-3.66668	8.98847	-15.0892
 526	1	2	-0.010814	-1.96541	9.00612	-15.5489
 527	1	1	-0.019372	0.634176	5.50172	-14.584
 528	1	2	0.00686	0.830022	6.53888	-14.2864
 529	1	1	-0.084968	-6.26757	4.94653	-13.5382
 530	1	1	0.309483	-7.72752	5.43169	-13.5563
 531	1	2	-0.002	-5.83427	5.01177	-14.5427
 532	1	3	-0.436564	-8.24653	5.29135	-12.2248
 533	1	1	0.15357	-7.53309	6.02542	-11.2098
 534	1	4	-0.002836	-5.55079	6.88572	-12.908
 535	1	3	-0.349559	-6.12062	5.7396	-11.2676
 536	1	2	0.015925	-3.53596	6.24068	-11.7452
 537	1	1	0.230077	-5.49089	5.84659	-12.5586
 538	1	2	0.052641	-6.21788	3.89826	-13.2181
 539	1	4	-0.023623	-7.74525	6.49605	-13.8214
 540	1	1	-0.072969	-8.08602	5.6398	-9.8179
 541	1	2	0.031276	-7.47438	3.0562	-11.0642
 542	1	2	0.023309	-7.74632	2.12508	-9.58199
 543	1	2	0.030094	-9.08343	3.04721	-10.3027
 544	1	5	0.077888	-7.69016	7.09868	-11.3801
 545	1	1	0.09092	-7.60976	4.27733	-9.24979
 546	1	2	0.047821	-7.80146	6.4261	-9.10823
 547	1	2	0.068339	-9.18214	5.64879	-9.85916
 548	1	1	-0.129023	-8.00438	3.05446	-10.1043
 549	1	2	-0.006475	-6.52127	4.28756	-9.11071
 550	1	2	-0.010814	-8.04349	4.15339	-8.24929
 551	1	1	-0.019372	-4.00491	5.47016	-12.3707
 552	1	2	0.00686	-3.93565	4.52937	-11.809
 553	1	1	-0.084968	-7.99476	6.26771	-16.4531
 554	1	1	0.309483	-8.24423	6.4859	-17.9611
 555	1	2	-0.002	-8.65359	6.94583	-15.8954
 556	1	3	-0.436564	-8.08613	5.23054	-18.6412
 557	1	1	0.15357	-9.03625	4.21649	-18.2566
 558	1	4	-0.002836	-7.31291	4.22951	-16.1888
 559	1	3	-0.349559	-9.28418	4.25053	-16.8332
 560	1	2	0.015925	-9.67199	5.0217	-14.4069
 561	1	1	0.230077	-8.23343	4.8018	-16.0161
 562	1	2	0.052641	-6.96484	6.54673	-16.1976
 563	1	4	-0.023623	-9.2738	6.84014	-18.0913
 564	1	1	-0.072969	-8.45183	2.83859	-18.6263
 565	1	2	0.031276	-6.78962	1.08825	-20.0866
 566	1	2	0.023309	-8.45603	0.466015	-20.15
 567	1	2	0.030094	-7.70356	1.14537	-21.6089
 568	1	5	0.077888	-9.98633	4.37297	-18.784
 569	1	1	0.09092	-8.31958	2.64921	-20.1536
 570	1	2	0.047821	-7.46926	2.71642	-18.1536
 571	1	2	0.068339	-9.10466	2.05636	-18.2196
 572	1	1	-0.129023	-7.7845	1.25102	-20.5199
 573	1	2	-0.006475	-9.29877	2.79523	-20.6276
 574	1	2	-0.010814	-7.64494	3.40913	-20.5681
 575	1	1	-0.019372	-8.64441	4.65557	-14.5299
 576	1	2	0.00686	-8.65202	3.59166	-14.2598
 577	1	1	-0.084968	-8.91923	8.83261	-20.0099
 578	1	1	0.309483	-9.13076	9.46437	-21.3988
 579	1	2	-0.002	-9.79528	8.22656	-19.7484
 580	1	3	-0.436564	-7.9305	10.1905	-21.723
 581	1	1	0.15357	-6.72199	9.41052	-21.7382
 582	1	4	-0.002836	-7.77959	7.09262	-20.6458
 583	1	3	-0.349559	-6.54583	8.75617	-20.47
 584	1	2	0.015925	-6.25353	7.05553	-18.5933
 585	1	1	0.230077	-7.64459	7.96335	-19.9912
 586	1	2	0.052641	-8.83373	9.62788	-19.2584
 587	1	4	-0.023623	-9.3079	8.67119	-22.1362
 588	1	1	-0.072969	-5.51652	10.3444	-21.9694
 589	1	2	0.031276	-3.98576	13.033	-20.3186
 590	1	2	0.023309	-3.17674	11.5713	-20.9241
 591	1	2	0.030094	-3.99034	12.6705	-22.0599
 592	1	5	0.077888	-6.77695	8.65925	-22.5372
 593	1	1	0.09092	-5.35899	11.4397	-20.8873
 594	1	2	0.047821	-4.60625	9.73307	-22.0034
 595	1	2	0.068339	-5.61566	10.818	-22.9537
 596	1	1	-0.129023	-4.04643	12.2266	-21.0594
 597	1	2	-0.006475	-6.20645	12.1353	-20.9373
 598	1	2	-0.010814	-5.36751	10.9923	-19.8855
 599	1	1	-0.019372	-7.25586	7.50307	-18.5692
 600	1	2	0.00686	-7.1897	8.3827	-17.9151
 601	1	1	-0.084968	-9.83804	11.6023	-23.6692
 602	1	1	0.309483	-10.4997	11.9885	-25.008
 603	1	2	-0.002	-9.40324	12.4775	-23.1731
 604	1	3	-0.436564	-11.0763	10.7934	-25.5696
 605	1	1	0.15357	-11.9843	10.0434	-24.7345
 606	1	4	-0.002836	-11.6897	11.5945	-22.5617
 607	1	3	-0.349559	-11.3711	9.75564	-23.4614
 608	1	2	0.015925	-10.0346	11.3333	-20.7945
 609	1	1	0.230077	-10.861	10.9021	-22.7547
 610	1	2	0.052641	-9.00946	10.9203	-23.8911
 611	1	4	-0.023623	-9.71101	12.3395	-25.6845
 612	1	1	-0.072969	-12.3111	8.71127	-25.4371
 613	1	2	0.031276	-14.0285	10.7636	-26.5529
 614	1	2	0.023309	-14.6651	9.74511	-27.8549
 615	1	2	0.030094	-14.9718	9.3041	-26.1617
 616	1	5	0.077888	-12.9048	10.6174	-24.571
 617	1	1	0.09092	-12.9328	8.88548	-26.8443
 618	1	2	0.047821	-11.3935	8.11584	-25.5224
 619	1	2	0.068339	-13.0016	8.13859	-24.8063
 620	1	1	-0.129023	-14.2279	9.72608	-26.8489
 621	1	2	-0.006475	-12.2018	9.34621	-27.5209
 622	1	2	-0.010814	-13.1541	7.89268	-27.256
 623	1	1	-0.019372	-10.3225	10.4506	-21.3757
 624	1	2	0.00686	-11.1556	9.98946	-20.8295
 625	1	1	-0.084968	-11.8466	15.6547	-24.8869
 626	1	1	0.309483	-11.179	16.9386	-24.3475
 627	1	2	-0.002	-11.9575	15.6855	-25.9746
 628	1	3	-0.436564	-11.1847	16.8088	-22.9065
 629	1	1	0.15357	-10.572	15.6196	-22.349
 630	1	4	-0.002836	-9.99796	14.5287	-24.7685
 631	1	3	-0.349559	-11.0902	14.4342	-22.9861
 632	1	2	0.015925	-12.447	12.7846	-24.3349
 633	1	1	0.230077	-11.035	14.4319	-24.4257
 634	1	2	0.052641	-12.865	15.5866	-24.4839
 635	1	4	-0.023623	-11.7947	17.8003	-24.633
 636	1	1	-0.072969	-10.8768	15.5793	-20.8398
 637	1	2	0.031276	-8.51937	13.9675	-21.3369
 638	1	2	0.023309	-8.24308	15.0273	-19.9331
 639	1	2	0.030094	-8.44541	13.2783	-19.7087
 640	1	5	0.077888	-9.48814	15.6542	-22.4991
 641	1	1	0.09092	-10.3132	14.3319	-20.1201
 642	1	2	0.047821	-10.4608	16.4807	-20.3728
 643	1	2	0.068339	-11.963	15.6203	-20.6933
 644	1	1	-0.129023	-8.78855	14.1443	-20.2885
 645	1	2	-0.006475	-10.5434	14.4091	-19.0501
 646	1	2	-0.010814	-10.8342	13.4393	-20.4843
 647	1	1	-0.019372	-11.5912	13.0921	-24.9476
 648	1	2	0.00686	-11.9769	13.2373	-25.9644
 649	1	1	-0.084968	-7.85357	17.5355	-26.448
 650	1	1	0.309483	-7.22607	16.1437	-26.6557
 651	1	2	-0.002	-7.64054	18.176	-27.3143
 652	1	3	-0.436564	-7.67254	15.7101	-27.9517
 653	1	1	0.15357	-9.10494	15.7431	-28.1624
 654	1	4	-0.002836	-9.90142	18.2355	-26.6947
 655	1	3	-0.349559	-9.80303	16.1548	-26.9629
 656	1	2	0.015925	-9.03702	16.4635	-24.3575
 657	1	1	0.230077	-9.38199	17.3623	-26.2808
 658	1	2	0.052641	-7.41696	18.0352	-25.5747
 659	1	4	-0.023623	-7.6196	15.4435	-25.9064
 660	1	1	-0.072969	-9.55607	14.3108	-28.5111
 661	1	2	0.031276	-10.921	12.3587	-30.0245
 662	1	2	0.023309	-11.3488	12.143	-28.3107
 663	1	2	0.030094	-12.5577	12.7558	-29.4584
 664	1	5	0.077888	-9.33609	16.4311	-28.9861
 665	1	1	0.09092	-11.0494	14.2294	-28.8979
 666	1	2	0.047821	-8.94705	13.9362	-29.3433
 667	1	2	0.068339	-9.36071	13.6559	-27.6535
 668	1	1	-0.129023	-11.4941	12.7829	-29.1906