

################################################################################
##################################    Init    ##################################
################################################################################
units           real
atom_style      full
pair_style      lj/cut/coul/long 12.0  12.0
kspace_style    pppm 1e-4
bond_style      harmonic
angle_style     harmonic
dihedral_style  fourier
special_bonds   amber
pair_modify     mix arithmetic
read_data       temp.lmps
  orthogonal box = (-66.588 -66.588 -66.588) to (66.588 66.588 66.588)
  1 by 1 by 1 MPI processor grid
  reading atoms ...
  48 atoms
  reading velocities ...
  48 velocities
  scanning bonds ...
  4 = max bonds/atom
  scanning angles ...
  6 = max angles/atom
  scanning dihedrals ...
  18 = max dihedrals/atom
  reading bonds ...
  49 bonds
  reading angles ...
  94 angles
  reading dihedrals ...
  134 dihedrals
  4 = max # of 1-2 neighbors
  7 = max # of 1-3 neighbors
  16 = max # of 1-4 neighbors
  19 = max # of special neighbors
  special bonds CPU = 0.000255823 secs
  read_data CPU = 0.00552893 secs
################################################################################

timestep        1
fix             pysimm_md all nve/limit 0.1
run             2000
PPPM initialization ...
  using 12-bit tables for long-range coulomb (../kspace.cpp:332)
  G vector (1/distance) = 0.15258
  grid = 24 24 24
  stencil order = 5
  estimated absolute RMS force accuracy = 0.000968644
  estimated relative force accuracy = 2.91704e-06
  using double precision KISS FFT
  3d grid and FFT values/proc = 24389 13824
Neighbor list info ...
  update every 1 steps, delay 10 steps, check yes
  max neighbors/atom: 2000, page size: 100000
  master list distance cutoff = 14
  ghost atom cutoff = 14
  binsize = 7, bins = 20 20 20
  1 neighbor lists, perpetual/occasional/extra = 1 0 0
  (1) pair lj/cut/coul/long, perpetual
      attributes: half, newton on
      pair build: half/bin/newton
      stencil: half/bin/3d/newton
      bin: standard
Per MPI rank memory allocation (min/avg/max) = 17.31 | 17.31 | 17.31 Mbytes
Step Temp E_pair E_mol TotEng Press 
       0    8.7947569   -60.023453    169.27893    110.48761   -2.4027578 
    2000    494.96942   -55.999781    89.798192    103.14267   0.29993658 
Loop time of 5.32408 on 1 procs for 2000 steps with 48 atoms

Performance: 32.456 ns/day, 0.739 hours/ns, 375.652 timesteps/s
100.0% CPU use with 1 MPI tasks x no OpenMP threads

MPI task timing breakdown:
Section |  min time  |  avg time  |  max time  |%varavg| %total
---------------------------------------------------------------
Pair    | 0.052359   | 0.052359   | 0.052359   |   0.0 |  0.98
Bond    | 0.03268    | 0.03268    | 0.03268    |   0.0 |  0.61
Kspace  | 5.2302     | 5.2302     | 5.2302     |   0.0 | 98.24
Neigh   | 0.0029008  | 0.0029008  | 0.0029008  |   0.0 |  0.05
Comm    | 0.0019166  | 0.0019166  | 0.0019166  |   0.0 |  0.04
Output  | 1.1921e-05 | 1.1921e-05 | 1.1921e-05 |   0.0 |  0.00
Modify  | 0.0017681  | 0.0017681  | 0.0017681  |   0.0 |  0.03
Other   |            | 0.002207   |            |       |  0.04

Nlocal:    48 ave 48 max 48 min
Histogram: 1 0 0 0 0 0 0 0 0 0
Nghost:    134 ave 134 max 134 min
Histogram: 1 0 0 0 0 0 0 0 0 0
Neighs:    1128 ave 1128 max 1128 min
Histogram: 1 0 0 0 0 0 0 0 0 0

Total # of neighbors = 1128
Ave neighs/atom = 23.5
Ave special neighs/atom = 11.2917
Neighbor list builds = 53
Dangerous builds = 0
unfix pysimm_md
min_style cg
minimize 0.001 0.001 10000 100000
WARNING: Using 'neigh_modify every 1 delay 0 check yes' setting during minimization (../min.cpp:190)
PPPM initialization ...
  using 12-bit tables for long-range coulomb (../kspace.cpp:332)
  G vector (1/distance) = 0.15258
  grid = 24 24 24
  stencil order = 5
  estimated absolute RMS force accuracy = 0.000968644
  estimated relative force accuracy = 2.91704e-06
  using double precision KISS FFT
  3d grid and FFT values/proc = 24389 13824
Per MPI rank memory allocation (min/avg/max) = 18.44 | 18.44 | 18.44 Mbytes
Step Temp E_pair E_mol TotEng Press 
    2000    494.96942   -55.999781    89.798192    103.14267   0.29993658 
    2072    494.96942   -61.615522     27.05506      34.7838    1.2409105 
Loop time of 0.359385 on 1 procs for 72 steps with 48 atoms

100.4% CPU use with 1 MPI tasks x no OpenMP threads

Minimization stats:
  Stopping criterion = energy tolerance
  Energy initial, next-to-last, final = 
          33.798410683     -34.5316588896     -34.5604619582
  Force two-norm initial, final = 262.026 5.27685
  Force max component initial, final = 59.5554 1.30707
  Final line search alpha, max atom move = 0.0122268 0.0159814
  Iterations, force evaluations = 72 144

MPI task timing breakdown:
Section |  min time  |  avg time  |  max time  |%varavg| %total
---------------------------------------------------------------
Pair    | 0.0059042  | 0.0059042  | 0.0059042  |   0.0 |  1.64
Bond    | 0.0023694  | 0.0023694  | 0.0023694  |   0.0 |  0.66
Kspace  | 0.35056    | 0.35056    | 0.35056    |   0.0 | 97.54
Neigh   | 5.2929e-05 | 5.2929e-05 | 5.2929e-05 |   0.0 |  0.01
Comm    | 0.00012851 | 0.00012851 | 0.00012851 |   0.0 |  0.04
Output  | 0          | 0          | 0          |   0.0 |  0.00
Modify  | 0          | 0          | 0          |   0.0 |  0.00
Other   |            | 0.0003679  |            |       |  0.10

Nlocal:    48 ave 48 max 48 min
Histogram: 1 0 0 0 0 0 0 0 0 0
Nghost:    134 ave 134 max 134 min
Histogram: 1 0 0 0 0 0 0 0 0 0
Neighs:    1128 ave 1128 max 1128 min
Histogram: 1 0 0 0 0 0 0 0 0 0

Total # of neighbors = 1128
Ave neighs/atom = 23.5
Ave special neighs/atom = 11.2917
Neighbor list builds = 1
Dangerous builds = 0
write_dump all custom pysimm.dump.tmp id q x y z vx vy vz
quit


################################################################################
##################################    Init    ##################################
################################################################################
units           real
atom_style      full
pair_style      lj/cut/coul/long 12.0  12.0
kspace_style    pppm 1e-4
bond_style      harmonic
angle_style     harmonic
dihedral_style  fourier
special_bonds   amber
pair_modify     mix arithmetic
read_data       temp.lmps
  orthogonal box = (-66.588 -66.588 -66.588) to (66.588 66.588 66.588)
  1 by 1 by 1 MPI processor grid
  reading atoms ...
  72 atoms
  reading velocities ...
  72 velocities
  scanning bonds ...
  4 = max bonds/atom
  scanning angles ...
  6 = max angles/atom
  scanning dihedrals ...
  18 = max dihedrals/atom
  reading bonds ...
  74 bonds
  reading angles ...
  144 angles
  reading dihedrals ...
  209 dihedrals
  4 = max # of 1-2 neighbors
  7 = max # of 1-3 neighbors
  16 = max # of 1-4 neighbors
  19 = max # of special neighbors
  special bonds CPU = 0.000509024 secs
  read_data CPU = 0.00781083 secs
################################################################################

timestep        1
fix             pysimm_md all nve/limit 0.1
run             2000
PPPM initialization ...
  using 12-bit tables for long-range coulomb (../kspace.cpp:332)
  G vector (1/distance) = 0.15258
  grid = 24 24 24
  stencil order = 5
  estimated absolute RMS force accuracy = 0.00118634
  estimated relative force accuracy = 3.57263e-06
  using double precision KISS FFT
  3d grid and FFT values/proc = 24389 13824
Neighbor list info ...
  update every 1 steps, delay 10 steps, check yes
  max neighbors/atom: 2000, page size: 100000
  master list distance cutoff = 14
  ghost atom cutoff = 14
  binsize = 7, bins = 20 20 20
  1 neighbor lists, perpetual/occasional/extra = 1 0 0
  (1) pair lj/cut/coul/long, perpetual
      attributes: half, newton on
      pair build: half/bin/newton
      stencil: half/bin/3d/newton
      bin: standard
Per MPI rank memory allocation (min/avg/max) = 17.33 | 17.33 | 17.33 Mbytes
Step Temp E_pair E_mol TotEng Press 
       0    330.56658    16.979345    244.86753    331.80717    11.691024 
    2000    501.76292   -92.520224    145.88143    159.55306    -3.868319 
Loop time of 6.10443 on 1 procs for 2000 steps with 72 atoms

Performance: 28.307 ns/day, 0.848 hours/ns, 327.631 timesteps/s
100.1% CPU use with 1 MPI tasks x no OpenMP threads

MPI task timing breakdown:
Section |  min time  |  avg time  |  max time  |%varavg| %total
---------------------------------------------------------------
Pair    | 0.11777    | 0.11777    | 0.11777    |   0.0 |  1.93
Bond    | 0.054773   | 0.054773   | 0.054773   |   0.0 |  0.90
Kspace  | 5.9176     | 5.9176     | 5.9176     |   0.0 | 96.94
Neigh   | 0.0057433  | 0.0057433  | 0.0057433  |   0.0 |  0.09
Comm    | 0.0028362  | 0.0028362  | 0.0028362  |   0.0 |  0.05
Output  | 1.3828e-05 | 1.3828e-05 | 1.3828e-05 |   0.0 |  0.00
Modify  | 0.0025015  | 0.0025015  | 0.0025015  |   0.0 |  0.04
Other   |            | 0.003232   |            |       |  0.05

Nlocal:    72 ave 72 max 72 min
Histogram: 1 0 0 0 0 0 0 0 0 0
Nghost:    194 ave 194 max 194 min
Histogram: 1 0 0 0 0 0 0 0 0 0
Neighs:    2488 ave 2488 max 2488 min
Histogram: 1 0 0 0 0 0 0 0 0 0

Total # of neighbors = 2488
Ave neighs/atom = 34.5556
Ave special neighs/atom = 11.6111
Neighbor list builds = 51
Dangerous builds = 0
unfix pysimm_md
min_style cg
minimize 0.001 0.001 10000 100000
WARNING: Using 'neigh_modify every 1 delay 0 check yes' setting during minimization (../min.cpp:190)
PPPM initialization ...
  using 12-bit tables for long-range coulomb (../kspace.cpp:332)
  G vector (1/distance) = 0.15258
  grid = 24 24 24
  stencil order = 5
  estimated absolute RMS force accuracy = 0.00118634
  estimated relative force accuracy = 3.57263e-06
  using double precision KISS FFT
  3d grid and FFT values/proc = 24389 13824
Per MPI rank memory allocation (min/avg/max) = 18.45 | 18.45 | 18.45 Mbytes
Step Temp E_pair E_mol TotEng Press 
    2000    501.76292   -92.520224    145.88143    159.55306    -3.868319 
    2046    501.76292   -98.759384    43.519742    50.952214    1.6471919 
Loop time of 0.234051 on 1 procs for 46 steps with 72 atoms

100.0% CPU use with 1 MPI tasks x no OpenMP threads

Minimization stats:
  Stopping criterion = energy tolerance
  Energy initial, next-to-last, final = 
         53.3612060011     -55.1852639643     -55.2396416026
  Force two-norm initial, final = 342.234 8.75204
  Force max component initial, final = 97.1398 2.035
  Final line search alpha, max atom move = 0.0180446 0.0367209
  Iterations, force evaluations = 46 92

MPI task timing breakdown:
Section |  min time  |  avg time  |  max time  |%varavg| %total
---------------------------------------------------------------
Pair    | 0.0073004  | 0.0073004  | 0.0073004  |   0.0 |  3.12
Bond    | 0.0022833  | 0.0022833  | 0.0022833  |   0.0 |  0.98
Kspace  | 0.22397    | 0.22397    | 0.22397    |   0.0 | 95.69
Neigh   | 8.7023e-05 | 8.7023e-05 | 8.7023e-05 |   0.0 |  0.04
Comm    | 0.00011563 | 0.00011563 | 0.00011563 |   0.0 |  0.05
Output  | 0          | 0          | 0          |   0.0 |  0.00
Modify  | 0          | 0          | 0          |   0.0 |  0.00
Other   |            | 0.000293   |            |       |  0.13

Nlocal:    72 ave 72 max 72 min
Histogram: 1 0 0 0 0 0 0 0 0 0
Nghost:    194 ave 194 max 194 min
Histogram: 1 0 0 0 0 0 0 0 0 0
Neighs:    2458 ave 2458 max 2458 min
Histogram: 1 0 0 0 0 0 0 0 0 0

Total # of neighbors = 2458
Ave neighs/atom = 34.1389
Ave special neighs/atom = 11.6111
Neighbor list builds = 1
Dangerous builds = 0
write_dump all custom pysimm.dump.tmp id q x y z vx vy vz
quit


################################################################################
##################################    Init    ##################################
################################################################################
units           real
atom_style      full
pair_style      lj/cut/coul/long 12.0  12.0
kspace_style    pppm 1e-4
bond_style      harmonic
angle_style     harmonic
dihedral_style  fourier
special_bonds   amber
pair_modify     mix arithmetic
read_data       temp.lmps
  orthogonal box = (-66.588 -66.588 -66.588) to (66.588 66.588 66.588)
  1 by 1 by 1 MPI processor grid
  reading atoms ...
  96 atoms
  reading velocities ...
  96 velocities
  scanning bonds ...
  4 = max bonds/atom
  scanning angles ...
  6 = max angles/atom
  scanning dihedrals ...
  18 = max dihedrals/atom
  reading bonds ...
  99 bonds
  reading angles ...
  194 angles
  reading dihedrals ...
  284 dihedrals
  4 = max # of 1-2 neighbors
  7 = max # of 1-3 neighbors
  16 = max # of 1-4 neighbors
  19 = max # of special neighbors
  special bonds CPU = 0.000192165 secs
  read_data CPU = 0.0052011 secs
################################################################################

timestep        1
fix             pysimm_md all nve/limit 0.1
run             2000
PPPM initialization ...
  using 12-bit tables for long-range coulomb (../kspace.cpp:332)
  G vector (1/distance) = 0.15258
  grid = 24 24 24
  stencil order = 5
  estimated absolute RMS force accuracy = 0.00136987
  estimated relative force accuracy = 4.12532e-06
  using double precision KISS FFT
  3d grid and FFT values/proc = 24389 13824
Neighbor list info ...
  update every 1 steps, delay 10 steps, check yes
  max neighbors/atom: 2000, page size: 100000
  master list distance cutoff = 14
  ghost atom cutoff = 14
  binsize = 7, bins = 20 20 20
  1 neighbor lists, perpetual/occasional/extra = 1 0 0
  (1) pair lj/cut/coul/long, perpetual
      attributes: half, newton on
      pair build: half/bin/newton
      stencil: half/bin/3d/newton
      bin: standard
Per MPI rank memory allocation (min/avg/max) = 17.34 | 17.34 | 17.34 Mbytes
Step Temp E_pair E_mol TotEng Press 
       0    377.17728    143.87361    246.05531    496.73684    31.253247 
    2000    444.89167   -119.97215    172.49406    178.50498    3.1919381 
Loop time of 5.11144 on 1 procs for 2000 steps with 96 atoms

Performance: 33.807 ns/day, 0.710 hours/ns, 391.279 timesteps/s
100.0% CPU use with 1 MPI tasks x no OpenMP threads

MPI task timing breakdown:
Section |  min time  |  avg time  |  max time  |%varavg| %total
---------------------------------------------------------------
Pair    | 0.15599    | 0.15599    | 0.15599    |   0.0 |  3.05
Bond    | 0.060214   | 0.060214   | 0.060214   |   0.0 |  1.18
Kspace  | 4.879      | 4.879      | 4.879      |   0.0 | 95.45
Neigh   | 0.0080037  | 0.0080037  | 0.0080037  |   0.0 |  0.16
Comm    | 0.0031002  | 0.0031002  | 0.0031002  |   0.0 |  0.06
Output  | 1.2875e-05 | 1.2875e-05 | 1.2875e-05 |   0.0 |  0.00
Modify  | 0.0026376  | 0.0026376  | 0.0026376  |   0.0 |  0.05
Other   |            | 0.002458   |            |       |  0.05

Nlocal:    96 ave 96 max 96 min
Histogram: 1 0 0 0 0 0 0 0 0 0
Nghost:    276 ave 276 max 276 min
Histogram: 1 0 0 0 0 0 0 0 0 0
Neighs:    4125 ave 4125 max 4125 min
Histogram: 1 0 0 0 0 0 0 0 0 0

Total # of neighbors = 4125
Ave neighs/atom = 42.9688
Ave special neighs/atom = 11.7708
Neighbor list builds = 61
Dangerous builds = 0
unfix pysimm_md
min_style cg
minimize 0.001 0.001 10000 100000
WARNING: Using 'neigh_modify every 1 delay 0 check yes' setting during minimization (../min.cpp:190)
PPPM initialization ...
  using 12-bit tables for long-range coulomb (../kspace.cpp:332)
  G vector (1/distance) = 0.15258
  grid = 24 24 24
  stencil order = 5
  estimated absolute RMS force accuracy = 0.00136987
  estimated relative force accuracy = 4.12532e-06
  using double precision KISS FFT
  3d grid and FFT values/proc = 24389 13824
Per MPI rank memory allocation (min/avg/max) = 18.46 | 18.46 | 18.46 Mbytes
Step Temp E_pair E_mol TotEng Press 
    2000    444.89167   -119.97215    172.49406    178.50498    3.1919381 
    2051    444.89167   -130.29965    47.980889    43.664305    2.6125492 
Loop time of 0.273091 on 1 procs for 51 steps with 96 atoms

100.0% CPU use with 1 MPI tasks x no OpenMP threads

Minimization stats:
  Stopping criterion = energy tolerance
  Energy initial, next-to-last, final = 
          52.521916128     -82.2511964131     -82.3187635893
  Force two-norm initial, final = 395.164 9.01987
  Force max component initial, final = 88.8669 2.02645
  Final line search alpha, max atom move = 0.0103638 0.0210017
  Iterations, force evaluations = 51 103

MPI task timing breakdown:
Section |  min time  |  avg time  |  max time  |%varavg| %total
---------------------------------------------------------------
Pair    | 0.013651   | 0.013651   | 0.013651   |   0.0 |  5.00
Bond    | 0.0034833  | 0.0034833  | 0.0034833  |   0.0 |  1.28
Kspace  | 0.2553     | 0.2553     | 0.2553     |   0.0 | 93.48
Neigh   | 0.00013518 | 0.00013518 | 0.00013518 |   0.0 |  0.05
Comm    | 0.00014257 | 0.00014257 | 0.00014257 |   0.0 |  0.05
Output  | 0          | 0          | 0          |   0.0 |  0.00
Modify  | 0          | 0          | 0          |   0.0 |  0.00
Other   |            | 0.0003829  |            |       |  0.14

Nlocal:    96 ave 96 max 96 min
Histogram: 1 0 0 0 0 0 0 0 0 0
Nghost:    272 ave 272 max 272 min
Histogram: 1 0 0 0 0 0 0 0 0 0
Neighs:    4085 ave 4085 max 4085 min
Histogram: 1 0 0 0 0 0 0 0 0 0

Total # of neighbors = 4085
Ave neighs/atom = 42.5521
Ave special neighs/atom = 11.7708
Neighbor list builds = 1
Dangerous builds = 0
write_dump all custom pysimm.dump.tmp id q x y z vx vy vz
quit


################################################################################
##################################    Init    ##################################
################################################################################
units           real
atom_style      full
pair_style      lj/cut/coul/long 12.0  12.0
kspace_style    pppm 1e-4
bond_style      harmonic
angle_style     harmonic
dihedral_style  fourier
special_bonds   amber
pair_modify     mix arithmetic
read_data       temp.lmps
  orthogonal box = (-66.588 -66.588 -66.588) to (66.588 66.588 66.588)
  1 by 1 by 1 MPI processor grid
  reading atoms ...
  120 atoms
  reading velocities ...
  120 velocities
  scanning bonds ...
  4 = max bonds/atom
  scanning angles ...
  6 = max angles/atom
  scanning dihedrals ...
  18 = max dihedrals/atom
  reading bonds ...
  124 bonds
  reading angles ...
  244 angles
  reading dihedrals ...
  359 dihedrals
  4 = max # of 1-2 neighbors
  7 = max # of 1-3 neighbors
  16 = max # of 1-4 neighbors
  19 = max # of special neighbors
  special bonds CPU = 0.000323057 secs
  read_data CPU = 0.00535583 secs
################################################################################

timestep        1
fix             pysimm_md all nve/limit 0.1
run             2000
PPPM initialization ...
  using 12-bit tables for long-range coulomb (../kspace.cpp:332)
  G vector (1/distance) = 0.15258
  grid = 24 24 24
  stencil order = 5
  estimated absolute RMS force accuracy = 0.00153156
  estimated relative force accuracy = 4.61225e-06
  using double precision KISS FFT
  3d grid and FFT values/proc = 24389 13824
Neighbor list info ...
  update every 1 steps, delay 10 steps, check yes
  max neighbors/atom: 2000, page size: 100000
  master list distance cutoff = 14
  ghost atom cutoff = 14
  binsize = 7, bins = 20 20 20
  1 neighbor lists, perpetual/occasional/extra = 1 0 0
  (1) pair lj/cut/coul/long, perpetual
      attributes: half, newton on
      pair build: half/bin/newton
      stencil: half/bin/3d/newton
      bin: standard
Per MPI rank memory allocation (min/avg/max) = 17.35 | 17.35 | 17.35 Mbytes
Step Temp E_pair E_mol TotEng Press 
       0     356.9022    99.166502    248.70537    474.47093    30.676625 
    2000    374.53192   -157.55467    192.54638    167.84433   0.99774132 
Loop time of 5.17488 on 1 procs for 2000 steps with 120 atoms

Performance: 33.392 ns/day, 0.719 hours/ns, 386.482 timesteps/s
100.0% CPU use with 1 MPI tasks x no OpenMP threads

MPI task timing breakdown:
Section |  min time  |  avg time  |  max time  |%varavg| %total
---------------------------------------------------------------
Pair    | 0.22165    | 0.22165    | 0.22165    |   0.0 |  4.28
Bond    | 0.076863   | 0.076863   | 0.076863   |   0.0 |  1.49
Kspace  | 4.8566     | 4.8566     | 4.8566     |   0.0 | 93.85
Neigh   | 0.0099237  | 0.0099237  | 0.0099237  |   0.0 |  0.19
Comm    | 0.0037489  | 0.0037489  | 0.0037489  |   0.0 |  0.07
Output  | 1.1921e-05 | 1.1921e-05 | 1.1921e-05 |   0.0 |  0.00
Modify  | 0.0032091  | 0.0032091  | 0.0032091  |   0.0 |  0.06
Other   |            | 0.002919   |            |       |  0.06

Nlocal:    120 ave 120 max 120 min
Histogram: 1 0 0 0 0 0 0 0 0 0
Nghost:    354 ave 354 max 354 min
Histogram: 1 0 0 0 0 0 0 0 0 0
Neighs:    6323 ave 6323 max 6323 min
Histogram: 1 0 0 0 0 0 0 0 0 0

Total # of neighbors = 6323
Ave neighs/atom = 52.6917
Ave special neighs/atom = 11.8667
Neighbor list builds = 58
Dangerous builds = 0
unfix pysimm_md
min_style cg
minimize 0.001 0.001 10000 100000
WARNING: Using 'neigh_modify every 1 delay 0 check yes' setting during minimization (../min.cpp:190)
PPPM initialization ...
  using 12-bit tables for long-range coulomb (../kspace.cpp:332)
  G vector (1/distance) = 0.15258
  grid = 24 24 24
  stencil order = 5
  estimated absolute RMS force accuracy = 0.00153156
  estimated relative force accuracy = 4.61225e-06
  using double precision KISS FFT
  3d grid and FFT values/proc = 24389 13824
Per MPI rank memory allocation (min/avg/max) = 18.48 | 18.48 | 18.48 Mbytes
Step Temp E_pair E_mol TotEng Press 
    2000    374.53192   -157.55467    192.54638    167.84433   0.99774132 
    2078    374.53192   -167.74212      63.3747     28.48519    2.1503169 
Loop time of 0.422965 on 1 procs for 78 steps with 120 atoms

100.0% CPU use with 1 MPI tasks x no OpenMP threads

Minimization stats:
  Stopping criterion = energy tolerance
  Energy initial, next-to-last, final = 
         34.9917180648     -104.267691415     -104.367421866
  Force two-norm initial, final = 402.066 11.1103
  Force max component initial, final = 97.5777 2.16256
  Final line search alpha, max atom move = 0.00818365 0.0176976
  Iterations, force evaluations = 78 156

MPI task timing breakdown:
Section |  min time  |  avg time  |  max time  |%varavg| %total
---------------------------------------------------------------
Pair    | 0.029623   | 0.029623   | 0.029623   |   0.0 |  7.00
Bond    | 0.0066311  | 0.0066311  | 0.0066311  |   0.0 |  1.57
Kspace  | 0.38562    | 0.38562    | 0.38562    |   0.0 | 91.17
Neigh   | 0.00017691 | 0.00017691 | 0.00017691 |   0.0 |  0.04
Comm    | 0.00028825 | 0.00028825 | 0.00028825 |   0.0 |  0.07
Output  | 0          | 0          | 0          |   0.0 |  0.00
Modify  | 0          | 0          | 0          |   0.0 |  0.00
Other   |            | 0.0006275  |            |       |  0.15

Nlocal:    120 ave 120 max 120 min
Histogram: 1 0 0 0 0 0 0 0 0 0
Nghost:    354 ave 354 max 354 min
Histogram: 1 0 0 0 0 0 0 0 0 0
Neighs:    6293 ave 6293 max 6293 min
Histogram: 1 0 0 0 0 0 0 0 0 0

Total # of neighbors = 6293
Ave neighs/atom = 52.4417
Ave special neighs/atom = 11.8667
Neighbor list builds = 1
Dangerous builds = 0
write_dump all custom pysimm.dump.tmp id q x y z vx vy vz
quit


################################################################################
##################################    Init    ##################################
################################################################################
units           real
atom_style      full
pair_style      lj/cut/coul/long 12.0  12.0
kspace_style    pppm 1e-4
bond_style      harmonic
angle_style     harmonic
dihedral_style  fourier
special_bonds   amber
pair_modify     mix arithmetic
read_data       temp.lmps
  orthogonal box = (-66.588 -66.588 -66.588) to (66.588 66.588 66.588)
  1 by 1 by 1 MPI processor grid
  reading atoms ...
  144 atoms
  reading velocities ...
  144 velocities
  scanning bonds ...
  4 = max bonds/atom
  scanning angles ...
  6 = max angles/atom
  scanning dihedrals ...
  18 = max dihedrals/atom
  reading bonds ...
  149 bonds
  reading angles ...
  294 angles
  reading dihedrals ...
  434 dihedrals
  4 = max # of 1-2 neighbors
  7 = max # of 1-3 neighbors
  16 = max # of 1-4 neighbors
  19 = max # of special neighbors
  special bonds CPU = 0.000258207 secs
  read_data CPU = 0.00517678 secs
################################################################################

timestep        1
fix             pysimm_md all nve/limit 0.1
run             2000
PPPM initialization ...
  using 12-bit tables for long-range coulomb (../kspace.cpp:332)
  G vector (1/distance) = 0.0211026
  grid = 2 2 2
  stencil order = 5
  estimated absolute RMS force accuracy = 0.0448529
  estimated relative force accuracy = 0.000135073
  using double precision KISS FFT
  3d grid and FFT values/proc = 343 8
Neighbor list info ...
  update every 1 steps, delay 10 steps, check yes
  max neighbors/atom: 2000, page size: 100000
  master list distance cutoff = 14
  ghost atom cutoff = 14
  binsize = 7, bins = 20 20 20
  1 neighbor lists, perpetual/occasional/extra = 1 0 0
  (1) pair lj/cut/coul/long, perpetual
      attributes: half, newton on
      pair build: half/bin/newton
      stencil: half/bin/3d/newton
      bin: standard
Per MPI rank memory allocation (min/avg/max) = 15.25 | 15.25 | 15.25 Mbytes
Step Temp E_pair E_mol TotEng Press 
       0    313.11874    73.762443    267.02849    474.25962    31.398432 
    2000    357.99064   -197.89695    201.05543    155.75408   -1.1178365 
Loop time of 0.572042 on 1 procs for 2000 steps with 144 atoms

Performance: 302.076 ns/day, 0.079 hours/ns, 3496.247 timesteps/s
99.8% CPU use with 1 MPI tasks x no OpenMP threads

MPI task timing breakdown:
Section |  min time  |  avg time  |  max time  |%varavg| %total
---------------------------------------------------------------
Pair    | 0.30676    | 0.30676    | 0.30676    |   0.0 | 53.62
Bond    | 0.090313   | 0.090313   | 0.090313   |   0.0 | 15.79
Kspace  | 0.15214    | 0.15214    | 0.15214    |   0.0 | 26.60
Neigh   | 0.01255    | 0.01255    | 0.01255    |   0.0 |  2.19
Comm    | 0.0040739  | 0.0040739  | 0.0040739  |   0.0 |  0.71
Output  | 1.0967e-05 | 1.0967e-05 | 1.0967e-05 |   0.0 |  0.00
Modify  | 0.0034854  | 0.0034854  | 0.0034854  |   0.0 |  0.61
Other   |            | 0.002714   |            |       |  0.47

Nlocal:    144 ave 144 max 144 min
Histogram: 1 0 0 0 0 0 0 0 0 0
Nghost:    432 ave 432 max 432 min
Histogram: 1 0 0 0 0 0 0 0 0 0
Neighs:    8786 ave 8786 max 8786 min
Histogram: 1 0 0 0 0 0 0 0 0 0

Total # of neighbors = 8786
Ave neighs/atom = 61.0139
Ave special neighs/atom = 11.9306
Neighbor list builds = 56
Dangerous builds = 0
unfix pysimm_md
min_style cg
minimize 0.001 0.001 10000 100000
WARNING: Using 'neigh_modify every 1 delay 0 check yes' setting during minimization (../min.cpp:190)
PPPM initialization ...
  using 12-bit tables for long-range coulomb (../kspace.cpp:332)
  G vector (1/distance) = 0.0211026
  grid = 2 2 2
  stencil order = 5
  estimated absolute RMS force accuracy = 0.0448529
  estimated relative force accuracy = 0.000135073
  using double precision KISS FFT
  3d grid and FFT values/proc = 343 8
Per MPI rank memory allocation (min/avg/max) = 16.38 | 16.38 | 16.38 Mbytes
Step Temp E_pair E_mol TotEng Press 
    2000    357.99064   -197.89695    201.05543    155.75408   -1.1178365 
    2026    357.99064     -201.093    87.677281    39.179887    3.3969183 
Loop time of 0.042068 on 1 procs for 26 steps with 144 atoms

99.8% CPU use with 1 MPI tasks x no OpenMP threads

Minimization stats:
  Stopping criterion = linesearch alpha is zero
  Energy initial, next-to-last, final = 
         3.15847591592     -113.415714799     -113.415714799
  Force two-norm initial, final = 388.793 21.0261
  Force max component initial, final = 84.5389 5.11423
  Final line search alpha, max atom move = 2.60212e-11 1.33079e-10
  Iterations, force evaluations = 26 107

MPI task timing breakdown:
Section |  min time  |  avg time  |  max time  |%varavg| %total
---------------------------------------------------------------
Pair    | 0.027813   | 0.027813   | 0.027813   |   0.0 | 66.12
Bond    | 0.0053635  | 0.0053635  | 0.0053635  |   0.0 | 12.75
Kspace  | 0.0083356  | 0.0083356  | 0.0083356  |   0.0 | 19.81
Neigh   | 0          | 0          | 0          |   0.0 |  0.00
Comm    | 0.00020528 | 0.00020528 | 0.00020528 |   0.0 |  0.49
Output  | 0          | 0          | 0          |   0.0 |  0.00
Modify  | 0          | 0          | 0          |   0.0 |  0.00
Other   |            | 0.0003502  |            |       |  0.83

Nlocal:    144 ave 144 max 144 min
Histogram: 1 0 0 0 0 0 0 0 0 0
Nghost:    432 ave 432 max 432 min
Histogram: 1 0 0 0 0 0 0 0 0 0
Neighs:    8786 ave 8786 max 8786 min
Histogram: 1 0 0 0 0 0 0 0 0 0

Total # of neighbors = 8786
Ave neighs/atom = 61.0139
Ave special neighs/atom = 11.9306
Neighbor list builds = 0
Dangerous builds = 0
write_dump all custom pysimm.dump.tmp id q x y z vx vy vz
quit


################################################################################
##################################    Init    ##################################
################################################################################
units           real
atom_style      full
pair_style      lj/cut/coul/long 12.0  12.0
kspace_style    pppm 1e-4
bond_style      harmonic
angle_style     harmonic
dihedral_style  fourier
special_bonds   amber
pair_modify     mix arithmetic
read_data       temp.lmps
  orthogonal box = (-66.588 -66.588 -66.588) to (66.588 66.588 66.588)
  1 by 1 by 1 MPI processor grid
  reading atoms ...
  168 atoms
  reading velocities ...
  168 velocities
  scanning bonds ...
  4 = max bonds/atom
  scanning angles ...
  6 = max angles/atom
  scanning dihedrals ...
  18 = max dihedrals/atom
  reading bonds ...
  174 bonds
  reading angles ...
  344 angles
  reading dihedrals ...
  509 dihedrals
  4 = max # of 1-2 neighbors
  7 = max # of 1-3 neighbors
  16 = max # of 1-4 neighbors
  19 = max # of special neighbors
  special bonds CPU = 0.00028801 secs
  read_data CPU = 0.00588989 secs
################################################################################

timestep        1
fix             pysimm_md all nve/limit 0.1
run             2000
PPPM initialization ...
  using 12-bit tables for long-range coulomb (../kspace.cpp:332)
  G vector (1/distance) = 0.0399144
  grid = 4 4 4
  stencil order = 5
  estimated absolute RMS force accuracy = 0.0410658
  estimated relative force accuracy = 0.000123668
  using double precision KISS FFT
  3d grid and FFT values/proc = 729 64
Neighbor list info ...
  update every 1 steps, delay 10 steps, check yes
  max neighbors/atom: 2000, page size: 100000
  master list distance cutoff = 14
  ghost atom cutoff = 14
  binsize = 7, bins = 20 20 20
  1 neighbor lists, perpetual/occasional/extra = 1 0 0
  (1) pair lj/cut/coul/long, perpetual
      attributes: half, newton on
      pair build: half/bin/newton
      stencil: half/bin/3d/newton
      bin: standard
Per MPI rank memory allocation (min/avg/max) = 15.29 | 15.29 | 15.29 Mbytes
Step Temp E_pair E_mol TotEng Press 
       0    307.78048     121.2011    292.81685    567.22962    42.315149 
    2000    332.00358   -234.93299    253.78515    184.12198   -1.5089852 
Loop time of 0.742131 on 1 procs for 2000 steps with 168 atoms

Performance: 232.843 ns/day, 0.103 hours/ns, 2694.942 timesteps/s
100.1% CPU use with 1 MPI tasks x no OpenMP threads

MPI task timing breakdown:
Section |  min time  |  avg time  |  max time  |%varavg| %total
---------------------------------------------------------------
Pair    | 0.41066    | 0.41066    | 0.41066    |   0.0 | 55.34
Bond    | 0.10537    | 0.10537    | 0.10537    |   0.0 | 14.20
Kspace  | 0.19681    | 0.19681    | 0.19681    |   0.0 | 26.52
Neigh   | 0.017522   | 0.017522   | 0.017522   |   0.0 |  2.36
Comm    | 0.0047674  | 0.0047674  | 0.0047674  |   0.0 |  0.64
Output  | 1.1921e-05 | 1.1921e-05 | 1.1921e-05 |   0.0 |  0.00
Modify  | 0.0040259  | 0.0040259  | 0.0040259  |   0.0 |  0.54
Other   |            | 0.002954   |            |       |  0.40

Nlocal:    168 ave 168 max 168 min
Histogram: 1 0 0 0 0 0 0 0 0 0
Nghost:    500 ave 500 max 500 min
Histogram: 1 0 0 0 0 0 0 0 0 0
Neighs:    11450 ave 11450 max 11450 min
Histogram: 1 0 0 0 0 0 0 0 0 0

Total # of neighbors = 11450
Ave neighs/atom = 68.1548
Ave special neighs/atom = 11.9762
Neighbor list builds = 60
Dangerous builds = 0
unfix pysimm_md
min_style cg
minimize 0.001 0.001 10000 100000
WARNING: Using 'neigh_modify every 1 delay 0 check yes' setting during minimization (../min.cpp:190)
PPPM initialization ...
  using 12-bit tables for long-range coulomb (../kspace.cpp:332)
  G vector (1/distance) = 0.0399144
  grid = 4 4 4
  stencil order = 5
  estimated absolute RMS force accuracy = 0.0410658
  estimated relative force accuracy = 0.000123668
  using double precision KISS FFT
  3d grid and FFT values/proc = 729 64
Per MPI rank memory allocation (min/avg/max) = 16.41 | 16.41 | 16.41 Mbytes
Step Temp E_pair E_mol TotEng Press 
    2000    332.00358   -234.93299    253.78515    184.12198   -1.5089852 
    2014    332.00358   -244.97798    110.63245    30.924285    1.2123247 
Loop time of 0.0433879 on 1 procs for 14 steps with 168 atoms

101.4% CPU use with 1 MPI tasks x no OpenMP threads

Minimization stats:
  Stopping criterion = linesearch alpha is zero
  Energy initial, next-to-last, final = 
         18.8521643169     -134.345527363     -134.345527363
  Force two-norm initial, final = 454.193 37.2814
  Force max component initial, final = 82.1573 6.84672
  Final line search alpha, max atom move = 5.84829e-12 4.00416e-11
  Iterations, force evaluations = 14 87

MPI task timing breakdown:
Section |  min time  |  avg time  |  max time  |%varavg| %total
---------------------------------------------------------------
Pair    | 0.029068   | 0.029068   | 0.029068   |   0.0 | 67.00
Bond    | 0.0051298  | 0.0051298  | 0.0051298  |   0.0 | 11.82
Kspace  | 0.008707   | 0.008707   | 0.008707   |   0.0 | 20.07
Neigh   | 0          | 0          | 0          |   0.0 |  0.00
Comm    | 0.00018191 | 0.00018191 | 0.00018191 |   0.0 |  0.42
Output  | 0          | 0          | 0          |   0.0 |  0.00
Modify  | 0          | 0          | 0          |   0.0 |  0.00
Other   |            | 0.0003006  |            |       |  0.69

Nlocal:    168 ave 168 max 168 min
Histogram: 1 0 0 0 0 0 0 0 0 0
Nghost:    500 ave 500 max 500 min
Histogram: 1 0 0 0 0 0 0 0 0 0
Neighs:    11434 ave 11434 max 11434 min
Histogram: 1 0 0 0 0 0 0 0 0 0

Total # of neighbors = 11434
Ave neighs/atom = 68.0595
Ave special neighs/atom = 11.9762
Neighbor list builds = 0
Dangerous builds = 0
write_dump all custom pysimm.dump.tmp id q x y z vx vy vz
quit


################################################################################
##################################    Init    ##################################
################################################################################
units           real
atom_style      full
pair_style      lj/cut/coul/long 12.0  12.0
kspace_style    pppm 1e-4
bond_style      harmonic
angle_style     harmonic
dihedral_style  fourier
special_bonds   amber
pair_modify     mix arithmetic
read_data       temp.lmps
  orthogonal box = (-66.588 -66.588 -66.588) to (66.588 66.588 66.588)
  1 by 1 by 1 MPI processor grid
  reading atoms ...
  192 atoms
  reading velocities ...
  192 velocities
  scanning bonds ...
  4 = max bonds/atom
  scanning angles ...
  6 = max angles/atom
  scanning dihedrals ...
  18 = max dihedrals/atom
  reading bonds ...
  199 bonds
  reading angles ...
  394 angles
  reading dihedrals ...
  584 dihedrals
  4 = max # of 1-2 neighbors
  7 = max # of 1-3 neighbors
  16 = max # of 1-4 neighbors
  19 = max # of special neighbors
  special bonds CPU = 0.00029707 secs
  read_data CPU = 0.00579 secs
################################################################################

timestep        1
fix             pysimm_md all nve/limit 0.1
run             2000
PPPM initialization ...
  using 12-bit tables for long-range coulomb (../kspace.cpp:332)
  G vector (1/distance) = 0.0486881
  grid = 5 5 5
  stencil order = 5
  estimated absolute RMS force accuracy = 0.0392529
  estimated relative force accuracy = 0.000118209
  using double precision KISS FFT
  3d grid and FFT values/proc = 1000 125
Neighbor list info ...
  update every 1 steps, delay 10 steps, check yes
  max neighbors/atom: 2000, page size: 100000
  master list distance cutoff = 14
  ghost atom cutoff = 14
  binsize = 7, bins = 20 20 20
  1 neighbor lists, perpetual/occasional/extra = 1 0 0
  (1) pair lj/cut/coul/long, perpetual
      attributes: half, newton on
      pair build: half/bin/newton
      stencil: half/bin/3d/newton
      bin: standard
Per MPI rank memory allocation (min/avg/max) = 15.32 | 15.32 | 15.32 Mbytes
Step Temp E_pair E_mol TotEng Press 
       0    291.36786    -174.4377    286.43866    277.88681    10.369592 
    2000    293.88988   -266.53877    253.52287    154.30581    6.4993718 
Loop time of 0.936187 on 1 procs for 2000 steps with 192 atoms

Performance: 184.579 ns/day, 0.130 hours/ns, 2136.325 timesteps/s
100.1% CPU use with 1 MPI tasks x no OpenMP threads

MPI task timing breakdown:
Section |  min time  |  avg time  |  max time  |%varavg| %total
---------------------------------------------------------------
Pair    | 0.53248    | 0.53248    | 0.53248    |   0.0 | 56.88
Bond    | 0.12226    | 0.12226    | 0.12226    |   0.0 | 13.06
Kspace  | 0.24636    | 0.24636    | 0.24636    |   0.0 | 26.32
Neigh   | 0.0219     | 0.0219     | 0.0219     |   0.0 |  2.34
Comm    | 0.0053053  | 0.0053053  | 0.0053053  |   0.0 |  0.57
Output  | 1.2159e-05 | 1.2159e-05 | 1.2159e-05 |   0.0 |  0.00
Modify  | 0.0046616  | 0.0046616  | 0.0046616  |   0.0 |  0.50
Other   |            | 0.003206   |            |       |  0.34

Nlocal:    192 ave 192 max 192 min
Histogram: 1 0 0 0 0 0 0 0 0 0
Nghost:    556 ave 556 max 556 min
Histogram: 1 0 0 0 0 0 0 0 0 0
Neighs:    15010 ave 15010 max 15010 min
Histogram: 1 0 0 0 0 0 0 0 0 0

Total # of neighbors = 15010
Ave neighs/atom = 78.1771
Ave special neighs/atom = 12.0104
Neighbor list builds = 63
Dangerous builds = 0
unfix pysimm_md
min_style cg
minimize 0.001 0.001 10000 100000
WARNING: Using 'neigh_modify every 1 delay 0 check yes' setting during minimization (../min.cpp:190)
PPPM initialization ...
  using 12-bit tables for long-range coulomb (../kspace.cpp:332)
  G vector (1/distance) = 0.0486881
  grid = 5 5 5
  stencil order = 5
  estimated absolute RMS force accuracy = 0.0392529
  estimated relative force accuracy = 0.000118209
  using double precision KISS FFT
  3d grid and FFT values/proc = 1000 125
Per MPI rank memory allocation (min/avg/max) = 16.44 | 16.44 | 16.44 Mbytes
Step Temp E_pair E_mol TotEng Press 
    2000    293.88988   -266.53877    253.52287    154.30581    6.4993718 
    2021    293.88988   -279.86902    121.64019    9.0928822    3.2246836 
Loop time of 0.0654109 on 1 procs for 21 steps with 192 atoms

99.4% CPU use with 1 MPI tasks x no OpenMP threads

Minimization stats:
  Stopping criterion = linesearch alpha is zero
  Energy initial, next-to-last, final = 
         -13.015901063      -158.22883115      -158.22883115
  Force two-norm initial, final = 413.608 33.1382
  Force max component initial, final = 113.89 8.15153
  Final line search alpha, max atom move = 9.31166e-12 7.59042e-11
  Iterations, force evaluations = 21 100

MPI task timing breakdown:
Section |  min time  |  avg time  |  max time  |%varavg| %total
---------------------------------------------------------------
Pair    | 0.045764   | 0.045764   | 0.045764   |   0.0 | 69.96
Bond    | 0.0068278  | 0.0068278  | 0.0068278  |   0.0 | 10.44
Kspace  | 0.012195   | 0.012195   | 0.012195   |   0.0 | 18.64
Neigh   | 0          | 0          | 0          |   0.0 |  0.00
Comm    | 0.00022578 | 0.00022578 | 0.00022578 |   0.0 |  0.35
Output  | 0          | 0          | 0          |   0.0 |  0.00
Modify  | 0          | 0          | 0          |   0.0 |  0.00
Other   |            | 0.0003982  |            |       |  0.61

Nlocal:    192 ave 192 max 192 min
Histogram: 1 0 0 0 0 0 0 0 0 0
Nghost:    556 ave 556 max 556 min
Histogram: 1 0 0 0 0 0 0 0 0 0
Neighs:    14971 ave 14971 max 14971 min
Histogram: 1 0 0 0 0 0 0 0 0 0

Total # of neighbors = 14971
Ave neighs/atom = 77.974
Ave special neighs/atom = 12.0104
Neighbor list builds = 0
Dangerous builds = 0
write_dump all custom pysimm.dump.tmp id q x y z vx vy vz
quit


################################################################################
##################################    Init    ##################################
################################################################################
units           real
atom_style      full
pair_style      lj/cut/coul/long 12.0  12.0
kspace_style    pppm 1e-4
bond_style      harmonic
angle_style     harmonic
dihedral_style  fourier
special_bonds   amber
pair_modify     mix arithmetic
read_data       temp.lmps
  orthogonal box = (-66.588 -66.588 -66.588) to (66.588 66.588 66.588)
  1 by 1 by 1 MPI processor grid
  reading atoms ...
  216 atoms
  reading velocities ...
  216 velocities
  scanning bonds ...
  4 = max bonds/atom
  scanning angles ...
  6 = max angles/atom
  scanning dihedrals ...
  18 = max dihedrals/atom
  reading bonds ...
  224 bonds
  reading angles ...
  444 angles
  reading dihedrals ...
  659 dihedrals
  4 = max # of 1-2 neighbors
  7 = max # of 1-3 neighbors
  16 = max # of 1-4 neighbors
  19 = max # of special neighbors
  special bonds CPU = 0.000349998 secs
  read_data CPU = 0.00628686 secs
################################################################################

timestep        1
fix             pysimm_md all nve/limit 0.1
run             2000
PPPM initialization ...
  using 12-bit tables for long-range coulomb (../kspace.cpp:332)
  G vector (1/distance) = 0.0570442
  grid = 6 6 6
  stencil order = 5
  estimated absolute RMS force accuracy = 0.0366622
  estimated relative force accuracy = 0.000110407
  using double precision KISS FFT
  3d grid and FFT values/proc = 1331 216
Neighbor list info ...
  update every 1 steps, delay 10 steps, check yes
  max neighbors/atom: 2000, page size: 100000
  master list distance cutoff = 14
  ghost atom cutoff = 14
  binsize = 7, bins = 20 20 20
  1 neighbor lists, perpetual/occasional/extra = 1 0 0
  (1) pair lj/cut/coul/long, perpetual
      attributes: half, newton on
      pair build: half/bin/newton
      stencil: half/bin/3d/newton
      bin: standard
Per MPI rank memory allocation (min/avg/max) = 15.35 | 15.35 | 15.35 Mbytes
Step Temp E_pair E_mol TotEng Press 
       0    262.04488   -107.44393    317.70292    378.19679    24.830581 
    2000    283.05493   -313.45223    267.68652    135.63688    -3.224128 
Loop time of 1.16864 on 1 procs for 2000 steps with 216 atoms

Performance: 147.864 ns/day, 0.162 hours/ns, 1711.394 timesteps/s
100.1% CPU use with 1 MPI tasks x no OpenMP threads

MPI task timing breakdown:
Section |  min time  |  avg time  |  max time  |%varavg| %total
---------------------------------------------------------------
Pair    | 0.69031    | 0.69031    | 0.69031    |   0.0 | 59.07
Bond    | 0.13698    | 0.13698    | 0.13698    |   0.0 | 11.72
Kspace  | 0.3004     | 0.3004     | 0.3004     |   0.0 | 25.70
Neigh   | 0.02615    | 0.02615    | 0.02615    |   0.0 |  2.24
Comm    | 0.0060356  | 0.0060356  | 0.0060356  |   0.0 |  0.52
Output  | 1.2159e-05 | 1.2159e-05 | 1.2159e-05 |   0.0 |  0.00
Modify  | 0.0051866  | 0.0051866  | 0.0051866  |   0.0 |  0.44
Other   |            | 0.003569   |            |       |  0.31

Nlocal:    216 ave 216 max 216 min
Histogram: 1 0 0 0 0 0 0 0 0 0
Nghost:    646 ave 646 max 646 min
Histogram: 1 0 0 0 0 0 0 0 0 0
Neighs:    18898 ave 18898 max 18898 min
Histogram: 1 0 0 0 0 0 0 0 0 0

Total # of neighbors = 18898
Ave neighs/atom = 87.4907
Ave special neighs/atom = 12.037
Neighbor list builds = 61
Dangerous builds = 0
unfix pysimm_md
min_style cg
minimize 0.001 0.001 10000 100000
WARNING: Using 'neigh_modify every 1 delay 0 check yes' setting during minimization (../min.cpp:190)
PPPM initialization ...
  using 12-bit tables for long-range coulomb (../kspace.cpp:332)
  G vector (1/distance) = 0.0570442
  grid = 6 6 6
  stencil order = 5
  estimated absolute RMS force accuracy = 0.0366622
  estimated relative force accuracy = 0.000110407
  using double precision KISS FFT
  3d grid and FFT values/proc = 1331 216
Per MPI rank memory allocation (min/avg/max) = 16.47 | 16.47 | 16.47 Mbytes
Step Temp E_pair E_mol TotEng Press 
    2000    283.05493   -313.45223    267.68652    135.63688    -3.224128 
    2013    283.05493   -320.56013     145.2426    6.0850656    0.9013814 
Loop time of 0.0682781 on 1 procs for 13 steps with 216 atoms

99.6% CPU use with 1 MPI tasks x no OpenMP threads

Minimization stats:
  Stopping criterion = linesearch alpha is zero
  Energy initial, next-to-last, final = 
        -45.7657120535     -175.317526878     -175.317526878
  Force two-norm initial, final = 400.452 44.5398
  Force max component initial, final = 68.5885 8.93883
  Final line search alpha, max atom move = 4.31787e-12 3.85967e-11
  Iterations, force evaluations = 13 85

MPI task timing breakdown:
Section |  min time  |  avg time  |  max time  |%varavg| %total
---------------------------------------------------------------
Pair    | 0.048217   | 0.048217   | 0.048217   |   0.0 | 70.62
Bond    | 0.0064721  | 0.0064721  | 0.0064721  |   0.0 |  9.48
Kspace  | 0.013012   | 0.013012   | 0.013012   |   0.0 | 19.06
Neigh   | 0          | 0          | 0          |   0.0 |  0.00
Comm    | 0.00022626 | 0.00022626 | 0.00022626 |   0.0 |  0.33
Output  | 0          | 0          | 0          |   0.0 |  0.00
Modify  | 0          | 0          | 0          |   0.0 |  0.00
Other   |            | 0.0003512  |            |       |  0.51

Nlocal:    216 ave 216 max 216 min
Histogram: 1 0 0 0 0 0 0 0 0 0
Nghost:    646 ave 646 max 646 min
Histogram: 1 0 0 0 0 0 0 0 0 0
Neighs:    18897 ave 18897 max 18897 min
Histogram: 1 0 0 0 0 0 0 0 0 0

Total # of neighbors = 18897
Ave neighs/atom = 87.4861
Ave special neighs/atom = 12.037
Neighbor list builds = 0
Dangerous builds = 0
write_dump all custom pysimm.dump.tmp id q x y z vx vy vz
quit


################################################################################
##################################    Init    ##################################
################################################################################
units           real
atom_style      full
pair_style      lj/cut/coul/long 12.0  12.0
kspace_style    pppm 1e-4
bond_style      harmonic
angle_style     harmonic
dihedral_style  fourier
special_bonds   amber
pair_modify     mix arithmetic
read_data       temp.lmps
  orthogonal box = (-66.588 -66.588 -66.588) to (66.588 66.588 66.588)
  1 by 1 by 1 MPI processor grid
  reading atoms ...
  240 atoms
  reading velocities ...
  240 velocities
  scanning bonds ...
  4 = max bonds/atom
  scanning angles ...
  6 = max angles/atom
  scanning dihedrals ...
  18 = max dihedrals/atom
  reading bonds ...
  249 bonds
  reading angles ...
  494 angles
  reading dihedrals ...
  734 dihedrals
  4 = max # of 1-2 neighbors
  7 = max # of 1-3 neighbors
  16 = max # of 1-4 neighbors
  19 = max # of special neighbors
  special bonds CPU = 0.000307083 secs
  read_data CPU = 0.00582123 secs
################################################################################

timestep        1
fix             pysimm_md all nve/limit 0.1
run             2000
PPPM initialization ...
  using 12-bit tables for long-range coulomb (../kspace.cpp:332)
  G vector (1/distance) = 0.0570432
  grid = 6 6 6
  stencil order = 5
  estimated absolute RMS force accuracy = 0.0386425
  estimated relative force accuracy = 0.000116371
  using double precision KISS FFT
  3d grid and FFT values/proc = 1331 216
Neighbor list info ...
  update every 1 steps, delay 10 steps, check yes
  max neighbors/atom: 2000, page size: 100000
  master list distance cutoff = 14
  ghost atom cutoff = 14
  binsize = 7, bins = 20 20 20
  1 neighbor lists, perpetual/occasional/extra = 1 0 0
  (1) pair lj/cut/coul/long, perpetual
      attributes: half, newton on
      pair build: half/bin/newton
      stencil: half/bin/3d/newton
      bin: standard
Per MPI rank memory allocation (min/avg/max) = 15.36 | 15.36 | 15.36 Mbytes
Step Temp E_pair E_mol TotEng Press 
       0     255.4958   -298.21137    222.76917    106.57647    4.8050937 
    2000    221.88879   -349.75001    286.82791    95.154493   -2.5031754 
Loop time of 1.29095 on 1 procs for 2000 steps with 240 atoms

Performance: 133.855 ns/day, 0.179 hours/ns, 1549.249 timesteps/s
100.1% CPU use with 1 MPI tasks x no OpenMP threads

MPI task timing breakdown:
Section |  min time  |  avg time  |  max time  |%varavg| %total
---------------------------------------------------------------
Pair    | 0.77028    | 0.77028    | 0.77028    |   0.0 | 59.67
Bond    | 0.15437    | 0.15437    | 0.15437    |   0.0 | 11.96
Kspace  | 0.3236     | 0.3236     | 0.3236     |   0.0 | 25.07
Neigh   | 0.026809   | 0.026809   | 0.026809   |   0.0 |  2.08
Comm    | 0.0065188  | 0.0065188  | 0.0065188  |   0.0 |  0.50
Output  | 3.6001e-05 | 3.6001e-05 | 3.6001e-05 |   0.0 |  0.00
Modify  | 0.0055974  | 0.0055974  | 0.0055974  |   0.0 |  0.43
Other   |            | 0.003738   |            |       |  0.29

Nlocal:    240 ave 240 max 240 min
Histogram: 1 0 0 0 0 0 0 0 0 0
Nghost:    706 ave 706 max 706 min
Histogram: 1 0 0 0 0 0 0 0 0 0
Neighs:    22021 ave 22021 max 22021 min
Histogram: 1 0 0 0 0 0 0 0 0 0

Total # of neighbors = 22021
Ave neighs/atom = 91.7542
Ave special neighs/atom = 12.0583
Neighbor list builds = 54
Dangerous builds = 0
unfix pysimm_md
min_style cg
minimize 0.001 0.001 10000 100000
WARNING: Using 'neigh_modify every 1 delay 0 check yes' setting during minimization (../min.cpp:190)
PPPM initialization ...
  using 12-bit tables for long-range coulomb (../kspace.cpp:332)
  G vector (1/distance) = 0.0570432
  grid = 6 6 6
  stencil order = 5
  estimated absolute RMS force accuracy = 0.0386425
  estimated relative force accuracy = 0.000116371
  using double precision KISS FFT
  3d grid and FFT values/proc = 1331 216
Per MPI rank memory allocation (min/avg/max) = 16.48 | 16.48 | 16.48 Mbytes
Step Temp E_pair E_mol TotEng Press 
    2000    221.88879   -349.75001    286.82791    95.154493   -2.5031754 
    2031    221.88879   -364.09386    138.89723   -67.120043    1.7096972 
Loop time of 0.105167 on 1 procs for 31 steps with 240 atoms

99.8% CPU use with 1 MPI tasks x no OpenMP threads

Minimization stats:
  Stopping criterion = linesearch alpha is zero
  Energy initial, next-to-last, final = 
        -62.9220967568     -225.196631983     -225.196631983
  Force two-norm initial, final = 429.492 24.8987
  Force max component initial, final = 101.439 4.05789
  Final line search alpha, max atom move = 1.60234e-11 6.50212e-11
  Iterations, force evaluations = 31 119

MPI task timing breakdown:
Section |  min time  |  avg time  |  max time  |%varavg| %total
---------------------------------------------------------------
Pair    | 0.074789   | 0.074789   | 0.074789   |   0.0 | 71.11
Bond    | 0.0099926  | 0.0099926  | 0.0099926  |   0.0 |  9.50
Kspace  | 0.019485   | 0.019485   | 0.019485   |   0.0 | 18.53
Neigh   | 0          | 0          | 0          |   0.0 |  0.00
Comm    | 0.00034547 | 0.00034547 | 0.00034547 |   0.0 |  0.33
Output  | 0          | 0          | 0          |   0.0 |  0.00
Modify  | 0          | 0          | 0          |   0.0 |  0.00
Other   |            | 0.0005553  |            |       |  0.53

Nlocal:    240 ave 240 max 240 min
Histogram: 1 0 0 0 0 0 0 0 0 0
Nghost:    706 ave 706 max 706 min
Histogram: 1 0 0 0 0 0 0 0 0 0
Neighs:    22069 ave 22069 max 22069 min
Histogram: 1 0 0 0 0 0 0 0 0 0

Total # of neighbors = 22069
Ave neighs/atom = 91.9542
Ave special neighs/atom = 12.0583
Neighbor list builds = 0
Dangerous builds = 0
write_dump all custom pysimm.dump.tmp id q x y z vx vy vz
quit


################################################################################
##################################    Init    ##################################
################################################################################
units           real
atom_style      full
pair_style      lj/cut/coul/long 12.0  12.0
kspace_style    pppm 1e-4
bond_style      harmonic
angle_style     harmonic
dihedral_style  fourier
special_bonds   amber
pair_modify     mix arithmetic
read_data       temp.lmps
  orthogonal box = (-83.8957 -83.8957 -83.8957) to (83.8957 83.8957 83.8957)
  1 by 1 by 1 MPI processor grid
  reading atoms ...
  264 atoms
  reading velocities ...
  264 velocities
  scanning bonds ...
  4 = max bonds/atom
  scanning angles ...
  6 = max angles/atom
  scanning dihedrals ...
  18 = max dihedrals/atom
  reading bonds ...
  274 bonds
  reading angles ...
  544 angles
  reading dihedrals ...
  809 dihedrals
  4 = max # of 1-2 neighbors
  7 = max # of 1-3 neighbors
  16 = max # of 1-4 neighbors
  19 = max # of special neighbors
  special bonds CPU = 0.00080514 secs
  read_data CPU = 0.011018 secs
################################################################################

timestep        1
fix             pysimm_md all nve/limit 0.1
run             2000
PPPM initialization ...
  using 12-bit tables for long-range coulomb (../kspace.cpp:332)
  G vector (1/distance) = 0.14345
  grid = 27 27 27
  stencil order = 5
  estimated absolute RMS force accuracy = 0.00236894
  estimated relative force accuracy = 7.13398e-06
  using double precision KISS FFT
  3d grid and FFT values/proc = 32768 19683
Neighbor list info ...
  update every 1 steps, delay 10 steps, check yes
  max neighbors/atom: 2000, page size: 100000
  master list distance cutoff = 14
  ghost atom cutoff = 14
  binsize = 7, bins = 24 24 24
  1 neighbor lists, perpetual/occasional/extra = 1 0 0
  (1) pair lj/cut/coul/long, perpetual
      attributes: half, newton on
      pair build: half/bin/newton
      stencil: half/bin/3d/newton
      bin: standard
Per MPI rank memory allocation (min/avg/max) = 18.19 | 18.19 | 18.19 Mbytes
Step Temp E_pair E_mol TotEng Press 
       0    202.42626   -392.50616    12292.786    12058.973   -143.18567 
    2000    474.82618   -366.99726    439.49757    444.74174     1.213173 
Loop time of 10.2358 on 1 procs for 2000 steps with 264 atoms

Performance: 16.882 ns/day, 1.422 hours/ns, 195.392 timesteps/s
100.1% CPU use with 1 MPI tasks x no OpenMP threads

MPI task timing breakdown:
Section |  min time  |  avg time  |  max time  |%varavg| %total
---------------------------------------------------------------
Pair    | 0.97825    | 0.97825    | 0.97825    |   0.0 |  9.56
Bond    | 0.19962    | 0.19962    | 0.19962    |   0.0 |  1.95
Kspace  | 8.9628     | 8.9628     | 8.9628     |   0.0 | 87.56
Neigh   | 0.082177   | 0.082177   | 0.082177   |   0.0 |  0.80
Comm    | 0.0024335  | 0.0024335  | 0.0024335  |   0.0 |  0.02
Output  | 2.0027e-05 | 2.0027e-05 | 2.0027e-05 |   0.0 |  0.00
Modify  | 0.0075214  | 0.0075214  | 0.0075214  |   0.0 |  0.07
Other   |            | 0.002983   |            |       |  0.03

Nlocal:    264 ave 264 max 264 min
Histogram: 1 0 0 0 0 0 0 0 0 0
Nghost:    81 ave 81 max 81 min
Histogram: 1 0 0 0 0 0 0 0 0 0
Neighs:    22516 ave 22516 max 22516 min
Histogram: 1 0 0 0 0 0 0 0 0 0

Total # of neighbors = 22516
Ave neighs/atom = 85.2879
Ave special neighs/atom = 12.0758
Neighbor list builds = 117
Dangerous builds = 0
unfix pysimm_md
min_style cg
minimize 0.001 0.001 10000 100000
WARNING: Using 'neigh_modify every 1 delay 0 check yes' setting during minimization (../min.cpp:190)
PPPM initialization ...
  using 12-bit tables for long-range coulomb (../kspace.cpp:332)
  G vector (1/distance) = 0.14345
  grid = 27 27 27
  stencil order = 5
  estimated absolute RMS force accuracy = 0.00236894
  estimated relative force accuracy = 7.13398e-06
  using double precision KISS FFT
  3d grid and FFT values/proc = 32768 19683
Per MPI rank memory allocation (min/avg/max) = 19.31 | 19.31 | 19.31 Mbytes
Step Temp E_pair E_mol TotEng Press 
    2000    474.82618   -366.99726    439.49757    444.74174     1.213173 
    2067    474.82618   -394.01598    147.92847    126.15392    3.2734812 
Loop time of 0.872396 on 1 procs for 67 steps with 264 atoms

100.1% CPU use with 1 MPI tasks x no OpenMP threads

Minimization stats:
  Stopping criterion = energy tolerance
  Energy initial, next-to-last, final = 
         72.5003110171     -245.850540242     -246.087515112
  Force two-norm initial, final = 598.185 17.8811
  Force max component initial, final = 125.593 3.69115
  Final line search alpha, max atom move = 0.00849637 0.0313614
  Iterations, force evaluations = 67 134

MPI task timing breakdown:
Section |  min time  |  avg time  |  max time  |%varavg| %total
---------------------------------------------------------------
Pair    | 0.12617    | 0.12617    | 0.12617    |   0.0 | 14.46
Bond    | 0.017663   | 0.017663   | 0.017663   |   0.0 |  2.02
Kspace  | 0.72593    | 0.72593    | 0.72593    |   0.0 | 83.21
Neigh   | 0.0012581  | 0.0012581  | 0.0012581  |   0.0 |  0.14
Comm    | 0.00014853 | 0.00014853 | 0.00014853 |   0.0 |  0.02
Output  | 0          | 0          | 0          |   0.0 |  0.00
Modify  | 0          | 0          | 0          |   0.0 |  0.00
Other   |            | 0.001223   |            |       |  0.14

Nlocal:    264 ave 264 max 264 min
Histogram: 1 0 0 0 0 0 0 0 0 0
Nghost:    76 ave 76 max 76 min
Histogram: 1 0 0 0 0 0 0 0 0 0
Neighs:    22729 ave 22729 max 22729 min
Histogram: 1 0 0 0 0 0 0 0 0 0

Total # of neighbors = 22729
Ave neighs/atom = 86.0947
Ave special neighs/atom = 12.0758
Neighbor list builds = 2
Dangerous builds = 0
write_dump all custom pysimm.dump.tmp id q x y z vx vy vz
quit


################################################################################
##################################    Init    ##################################
################################################################################
units           real
atom_style      full
pair_style      lj/cut/coul/long 12.0  12.0
kspace_style    pppm 1e-4
bond_style      harmonic
angle_style     harmonic
dihedral_style  fourier
special_bonds   amber
pair_modify     mix arithmetic
read_data       temp.lmps
  orthogonal box = (-86.6038 -86.6038 -86.6038) to (86.6038 86.6038 86.6038)
  1 by 1 by 1 MPI processor grid
  reading atoms ...
  288 atoms
  reading velocities ...
  288 velocities
  scanning bonds ...
  4 = max bonds/atom
  scanning angles ...
  6 = max angles/atom
  scanning dihedrals ...
  18 = max dihedrals/atom
  reading bonds ...
  299 bonds
  reading angles ...
  594 angles
  reading dihedrals ...
  884 dihedrals
  4 = max # of 1-2 neighbors
  7 = max # of 1-3 neighbors
  16 = max # of 1-4 neighbors
  19 = max # of special neighbors
  special bonds CPU = 0.000827074 secs
  read_data CPU = 0.012691 secs
################################################################################

timestep        1
fix             pysimm_md all nve/limit 0.1
run             2000
PPPM initialization ...
  using 12-bit tables for long-range coulomb (../kspace.cpp:332)
  G vector (1/distance) = 0.14087
  grid = 27 27 27
  stencil order = 5
  estimated absolute RMS force accuracy = 0.0026176
  estimated relative force accuracy = 7.88284e-06
  using double precision KISS FFT
  3d grid and FFT values/proc = 32768 19683
Neighbor list info ...
  update every 1 steps, delay 10 steps, check yes
  max neighbors/atom: 2000, page size: 100000
  master list distance cutoff = 14
  ghost atom cutoff = 14
  binsize = 7, bins = 25 25 25
  1 neighbor lists, perpetual/occasional/extra = 1 0 0
  (1) pair lj/cut/coul/long, perpetual
      attributes: half, newton on
      pair build: half/bin/newton
      stencil: half/bin/3d/newton
      bin: standard
Per MPI rank memory allocation (min/avg/max) = 18.2 | 18.2 | 18.2 Mbytes
Step Temp E_pair E_mol TotEng Press 
       0    435.83967   -424.20397    12205.569    12154.222   -127.44881 
    2000    479.33044   -402.14382    537.47444    545.39421   -1.5689806 
Loop time of 9.70319 on 1 procs for 2000 steps with 288 atoms

Performance: 17.809 ns/day, 1.348 hours/ns, 206.118 timesteps/s
100.1% CPU use with 1 MPI tasks x no OpenMP threads

MPI task timing breakdown:
Section |  min time  |  avg time  |  max time  |%varavg| %total
---------------------------------------------------------------
Pair    | 0.96049    | 0.96049    | 0.96049    |   0.0 |  9.90
Bond    | 0.20216    | 0.20216    | 0.20216    |   0.0 |  2.08
Kspace  | 8.4499     | 8.4499     | 8.4499     |   0.0 | 87.08
Neigh   | 0.07931    | 0.07931    | 0.07931    |   0.0 |  0.82
Comm    | 0.0011513  | 0.0011513  | 0.0011513  |   0.0 |  0.01
Output  | 1.2159e-05 | 1.2159e-05 | 1.2159e-05 |   0.0 |  0.00
Modify  | 0.0076401  | 0.0076401  | 0.0076401  |   0.0 |  0.08
Other   |            | 0.002494   |            |       |  0.03

Nlocal:    288 ave 288 max 288 min
Histogram: 1 0 0 0 0 0 0 0 0 0
Nghost:    0 ave 0 max 0 min
Histogram: 1 0 0 0 0 0 0 0 0 0
Neighs:    25258 ave 25258 max 25258 min
Histogram: 1 0 0 0 0 0 0 0 0 0

Total # of neighbors = 25258
Ave neighs/atom = 87.7014
Ave special neighs/atom = 12.0903
Neighbor list builds = 123
Dangerous builds = 0
unfix pysimm_md
min_style cg
minimize 0.001 0.001 10000 100000
WARNING: Using 'neigh_modify every 1 delay 0 check yes' setting during minimization (../min.cpp:190)
PPPM initialization ...
  using 12-bit tables for long-range coulomb (../kspace.cpp:332)
  G vector (1/distance) = 0.14087
  grid = 27 27 27
  stencil order = 5
  estimated absolute RMS force accuracy = 0.0026176
  estimated relative force accuracy = 7.88284e-06
  using double precision KISS FFT
  3d grid and FFT values/proc = 32768 19683
Per MPI rank memory allocation (min/avg/max) = 19.33 | 19.33 | 19.33 Mbytes
Step Temp E_pair E_mol TotEng Press 
    2000    479.33044   -402.14382    537.47444    545.39421   -1.5689806 
    2058    479.33044   -432.65796     171.5427    148.94833    3.1448116 
Loop time of 0.608611 on 1 procs for 58 steps with 288 atoms

100.0% CPU use with 1 MPI tasks x no OpenMP threads

Minimization stats:
  Stopping criterion = energy tolerance
  Energy initial, next-to-last, final = 
         135.330625112     -260.892932696     -261.115254884
  Force two-norm initial, final = 677.892 18.8781
  Force max component initial, final = 115.713 3.86223
  Final line search alpha, max atom move = 0.0091777 0.0354463
  Iterations, force evaluations = 58 116

MPI task timing breakdown:
Section |  min time  |  avg time  |  max time  |%varavg| %total
---------------------------------------------------------------
Pair    | 0.093369   | 0.093369   | 0.093369   |   0.0 | 15.34
Bond    | 0.01326    | 0.01326    | 0.01326    |   0.0 |  2.18
Kspace  | 0.50047    | 0.50047    | 0.50047    |   0.0 | 82.23
Neigh   | 0.00059199 | 0.00059199 | 0.00059199 |   0.0 |  0.10
Comm    | 4.7445e-05 | 4.7445e-05 | 4.7445e-05 |   0.0 |  0.01
Output  | 0          | 0          | 0          |   0.0 |  0.00
Modify  | 0          | 0          | 0          |   0.0 |  0.00
Other   |            | 0.0008757  |            |       |  0.14

Nlocal:    288 ave 288 max 288 min
Histogram: 1 0 0 0 0 0 0 0 0 0
Nghost:    0 ave 0 max 0 min
Histogram: 1 0 0 0 0 0 0 0 0 0
Neighs:    25306 ave 25306 max 25306 min
Histogram: 1 0 0 0 0 0 0 0 0 0

Total # of neighbors = 25306
Ave neighs/atom = 87.8681
Ave special neighs/atom = 12.0903
Neighbor list builds = 1
Dangerous builds = 0
write_dump all custom pysimm.dump.tmp id q x y z vx vy vz
quit


################################################################################
##################################    Init    ##################################
################################################################################
units           real
atom_style      full
pair_style      lj/cut/coul/long 12.0  12.0
kspace_style    pppm 1e-4
bond_style      harmonic
angle_style     harmonic
dihedral_style  fourier
special_bonds   amber
pair_modify     mix arithmetic
read_data       temp.lmps
  orthogonal box = (-89.1525 -89.1525 -89.1525) to (89.1525 89.1525 89.1525)
  1 by 1 by 1 MPI processor grid
  reading atoms ...
  312 atoms
  reading velocities ...
  312 velocities
  scanning bonds ...
  4 = max bonds/atom
  scanning angles ...
  6 = max angles/atom
  scanning dihedrals ...
  18 = max dihedrals/atom
  reading bonds ...
  324 bonds
  reading angles ...
  644 angles
  reading dihedrals ...
  959 dihedrals
  4 = max # of 1-2 neighbors
  7 = max # of 1-3 neighbors
  16 = max # of 1-4 neighbors
  19 = max # of special neighbors
  special bonds CPU = 0.00136304 secs
  read_data CPU = 0.013535 secs
################################################################################

timestep        1
fix             pysimm_md all nve/limit 0.1
run             2000
PPPM initialization ...
  using 12-bit tables for long-range coulomb (../kspace.cpp:332)
  G vector (1/distance) = 0.147006
  grid = 30 30 30
  stencil order = 5
  estimated absolute RMS force accuracy = 0.00202317
  estimated relative force accuracy = 6.09273e-06
  using double precision KISS FFT
  3d grid and FFT values/proc = 42875 27000
Neighbor list info ...
  update every 1 steps, delay 10 steps, check yes
  max neighbors/atom: 2000, page size: 100000
  master list distance cutoff = 14
  ghost atom cutoff = 14
  binsize = 7, bins = 26 26 26
  1 neighbor lists, perpetual/occasional/extra = 1 0 0
  (1) pair lj/cut/coul/long, perpetual
      attributes: half, newton on
      pair build: half/bin/newton
      stencil: half/bin/3d/newton
      bin: standard
Per MPI rank memory allocation (min/avg/max) = 19.22 | 19.22 | 19.22 Mbytes
Step Temp E_pair E_mol TotEng Press 
       0    443.00491   -462.89709    8543.0308    8490.8134   -82.786489 
    2000    523.31488   -425.41526    563.67743    623.39177   0.22457293 
Loop time of 10.8453 on 1 procs for 2000 steps with 312 atoms

Performance: 15.933 ns/day, 1.506 hours/ns, 184.411 timesteps/s
100.0% CPU use with 1 MPI tasks x no OpenMP threads

MPI task timing breakdown:
Section |  min time  |  avg time  |  max time  |%varavg| %total
---------------------------------------------------------------
Pair    | 0.91616    | 0.91616    | 0.91616    |   0.0 |  8.45
Bond    | 0.20142    | 0.20142    | 0.20142    |   0.0 |  1.86
Kspace  | 9.6466     | 9.6466     | 9.6466     |   0.0 | 88.95
Neigh   | 0.069936   | 0.069936   | 0.069936   |   0.0 |  0.64
Comm    | 0.0011117  | 0.0011117  | 0.0011117  |   0.0 |  0.01
Output  | 2.0027e-05 | 2.0027e-05 | 2.0027e-05 |   0.0 |  0.00
Modify  | 0.0074384  | 0.0074384  | 0.0074384  |   0.0 |  0.07
Other   |            | 0.002618   |            |       |  0.02

Nlocal:    312 ave 312 max 312 min
Histogram: 1 0 0 0 0 0 0 0 0 0
Nghost:    0 ave 0 max 0 min
Histogram: 1 0 0 0 0 0 0 0 0 0
Neighs:    22438 ave 22438 max 22438 min
Histogram: 1 0 0 0 0 0 0 0 0 0

Total # of neighbors = 22438
Ave neighs/atom = 71.9167
Ave special neighs/atom = 12.1026
Neighbor list builds = 117
Dangerous builds = 0
unfix pysimm_md
min_style cg
minimize 0.001 0.001 10000 100000
WARNING: Using 'neigh_modify every 1 delay 0 check yes' setting during minimization (../min.cpp:190)
PPPM initialization ...
  using 12-bit tables for long-range coulomb (../kspace.cpp:332)
  G vector (1/distance) = 0.147006
  grid = 30 30 30
  stencil order = 5
  estimated absolute RMS force accuracy = 0.00202317
  estimated relative force accuracy = 6.09273e-06
  using double precision KISS FFT
  3d grid and FFT values/proc = 42875 27000
Per MPI rank memory allocation (min/avg/max) = 20.35 | 20.35 | 20.35 Mbytes
Step Temp E_pair E_mol TotEng Press 
    2000    523.31488   -425.41526    563.67743    623.39177   0.22457293 
    2063    523.31488   -457.20066    177.53206      205.461    3.8578405 
Loop time of 0.662066 on 1 procs for 63 steps with 312 atoms

100.0% CPU use with 1 MPI tasks x no OpenMP threads

Minimization stats:
  Stopping criterion = energy tolerance
  Energy initial, next-to-last, final = 
         138.262162847     -279.392816909      -279.66860582
  Force two-norm initial, final = 686.054 18.3473
  Force max component initial, final = 118.568 3.10167
  Final line search alpha, max atom move = 0.00521468 0.0161742
  Iterations, force evaluations = 63 126

MPI task timing breakdown:
Section |  min time  |  avg time  |  max time  |%varavg| %total
---------------------------------------------------------------
Pair    | 0.077755   | 0.077755   | 0.077755   |   0.0 | 11.74
Bond    | 0.013601   | 0.013601   | 0.013601   |   0.0 |  2.05
Kspace  | 0.56927    | 0.56927    | 0.56927    |   0.0 | 85.98
Neigh   | 0.00052905 | 0.00052905 | 0.00052905 |   0.0 |  0.08
Comm    | 2.6941e-05 | 2.6941e-05 | 2.6941e-05 |   0.0 |  0.00
Output  | 0          | 0          | 0          |   0.0 |  0.00
Modify  | 0          | 0          | 0          |   0.0 |  0.00
Other   |            | 0.0008793  |            |       |  0.13

Nlocal:    312 ave 312 max 312 min
Histogram: 1 0 0 0 0 0 0 0 0 0
Nghost:    0 ave 0 max 0 min
Histogram: 1 0 0 0 0 0 0 0 0 0
Neighs:    22378 ave 22378 max 22378 min
Histogram: 1 0 0 0 0 0 0 0 0 0

Total # of neighbors = 22378
Ave neighs/atom = 71.7244
Ave special neighs/atom = 12.1026
Neighbor list builds = 1
Dangerous builds = 0
write_dump all custom pysimm.dump.tmp id q x y z vx vy vz
quit


################################################################################
##################################    Init    ##################################
################################################################################
units           real
atom_style      full
pair_style      lj/cut/coul/long 12.0  12.0
kspace_style    pppm 1e-4
bond_style      harmonic
angle_style     harmonic
dihedral_style  fourier
special_bonds   amber
pair_modify     mix arithmetic
read_data       temp.lmps
  orthogonal box = (-91.5631 -91.5631 -91.5631) to (91.5631 91.5631 91.5631)
  1 by 1 by 1 MPI processor grid
  reading atoms ...
  336 atoms
  reading velocities ...
  336 velocities
  scanning bonds ...
  4 = max bonds/atom
  scanning angles ...
  6 = max angles/atom
  scanning dihedrals ...
  18 = max dihedrals/atom
  reading bonds ...
  349 bonds
  reading angles ...
  694 angles
  reading dihedrals ...
  1034 dihedrals
  4 = max # of 1-2 neighbors
  7 = max # of 1-3 neighbors
  16 = max # of 1-4 neighbors
  19 = max # of special neighbors
  special bonds CPU = 0.000853062 secs
  read_data CPU = 0.0141199 secs
################################################################################

timestep        1
fix             pysimm_md all nve/limit 0.1
run             2000
PPPM initialization ...
  using 12-bit tables for long-range coulomb (../kspace.cpp:332)
  G vector (1/distance) = 0.144872
  grid = 30 30 30
  stencil order = 5
  estimated absolute RMS force accuracy = 0.00220775
  estimated relative force accuracy = 6.64857e-06
  using double precision KISS FFT
  3d grid and FFT values/proc = 42875 27000
Neighbor list info ...
  update every 1 steps, delay 10 steps, check yes
  max neighbors/atom: 2000, page size: 100000
  master list distance cutoff = 14
  ghost atom cutoff = 14
  binsize = 7, bins = 27 27 27
  1 neighbor lists, perpetual/occasional/extra = 1 0 0
  (1) pair lj/cut/coul/long, perpetual
      attributes: half, newton on
      pair build: half/bin/newton
      stencil: half/bin/3d/newton
      bin: standard
Per MPI rank memory allocation (min/avg/max) = 19.24 | 19.24 | 19.24 Mbytes
Step Temp E_pair E_mol TotEng Press 
       0    486.44068   -487.34964    12529.242    12527.638   -109.06206 
    2000    504.33099   -459.00682    598.24375    642.84741   0.62839737 
Loop time of 11.5901 on 1 procs for 2000 steps with 336 atoms

Performance: 14.909 ns/day, 1.610 hours/ns, 172.561 timesteps/s
100.1% CPU use with 1 MPI tasks x no OpenMP threads

MPI task timing breakdown:
Section |  min time  |  avg time  |  max time  |%varavg| %total
---------------------------------------------------------------
Pair    | 0.93574    | 0.93574    | 0.93574    |   0.0 |  8.07
Bond    | 0.23406    | 0.23406    | 0.23406    |   0.0 |  2.02
Kspace  | 10.324     | 10.324     | 10.324     |   0.0 | 89.08
Neigh   | 0.083128   | 0.083128   | 0.083128   |   0.0 |  0.72
Comm    | 0.0015733  | 0.0015733  | 0.0015733  |   0.0 |  0.01
Output  | 1.2159e-05 | 1.2159e-05 | 1.2159e-05 |   0.0 |  0.00
Modify  | 0.0088003  | 0.0088003  | 0.0088003  |   0.0 |  0.08
Other   |            | 0.002691   |            |       |  0.02

Nlocal:    336 ave 336 max 336 min
Histogram: 1 0 0 0 0 0 0 0 0 0
Nghost:    1 ave 1 max 1 min
Histogram: 1 0 0 0 0 0 0 0 0 0
Neighs:    24781 ave 24781 max 24781 min
Histogram: 1 0 0 0 0 0 0 0 0 0

Total # of neighbors = 24781
Ave neighs/atom = 73.753
Ave special neighs/atom = 12.1131
Neighbor list builds = 126
Dangerous builds = 0
unfix pysimm_md
min_style cg
minimize 0.001 0.001 10000 100000
WARNING: Using 'neigh_modify every 1 delay 0 check yes' setting during minimization (../min.cpp:190)
PPPM initialization ...
  using 12-bit tables for long-range coulomb (../kspace.cpp:332)
  G vector (1/distance) = 0.144872
  grid = 30 30 30
  stencil order = 5
  estimated absolute RMS force accuracy = 0.00220775
  estimated relative force accuracy = 6.64857e-06
  using double precision KISS FFT
  3d grid and FFT values/proc = 42875 27000
Per MPI rank memory allocation (min/avg/max) = 20.36 | 20.36 | 20.36 Mbytes
Step Temp E_pair E_mol TotEng Press 
    2000    504.33099   -459.00682    598.24375    642.84741   0.62839737 
    2055    504.33099   -486.41303    207.58379    224.78125    3.3067688 
Loop time of 0.608793 on 1 procs for 55 steps with 336 atoms

100.0% CPU use with 1 MPI tasks x no OpenMP threads

Minimization stats:
  Stopping criterion = energy tolerance
  Energy initial, next-to-last, final = 
         139.236930897     -278.558323198     -278.829230732
  Force two-norm initial, final = 722.746 20.725
  Force max component initial, final = 116.239 3.16969
  Final line search alpha, max atom move = 0.00613241 0.0194378
  Iterations, force evaluations = 55 110

MPI task timing breakdown:
Section |  min time  |  avg time  |  max time  |%varavg| %total
---------------------------------------------------------------
Pair    | 0.076853   | 0.076853   | 0.076853   |   0.0 | 12.62
Bond    | 0.012877   | 0.012877   | 0.012877   |   0.0 |  2.12
Kspace  | 0.51766    | 0.51766    | 0.51766    |   0.0 | 85.03
Neigh   | 0.00057697 | 0.00057697 | 0.00057697 |   0.0 |  0.09
Comm    | 3.624e-05  | 3.624e-05  | 3.624e-05  |   0.0 |  0.01
Output  | 0          | 0          | 0          |   0.0 |  0.00
Modify  | 0          | 0          | 0          |   0.0 |  0.00
Other   |            | 0.0007915  |            |       |  0.13

Nlocal:    336 ave 336 max 336 min
Histogram: 1 0 0 0 0 0 0 0 0 0
Nghost:    1 ave 1 max 1 min
Histogram: 1 0 0 0 0 0 0 0 0 0
Neighs:    24798 ave 24798 max 24798 min
Histogram: 1 0 0 0 0 0 0 0 0 0

Total # of neighbors = 24798
Ave neighs/atom = 73.8036
Ave special neighs/atom = 12.1131
Neighbor list builds = 1
Dangerous builds = 0
write_dump all custom pysimm.dump.tmp id q x y z vx vy vz
quit


################################################################################
##################################    Init    ##################################
################################################################################
units           real
atom_style      full
pair_style      lj/cut/coul/long 12.0  12.0
kspace_style    pppm 1e-4
bond_style      harmonic
angle_style     harmonic
dihedral_style  fourier
special_bonds   amber
pair_modify     mix arithmetic
read_data       temp.lmps
  orthogonal box = (-93.8532 -93.8532 -93.8532) to (93.8532 93.8532 93.8532)
  1 by 1 by 1 MPI processor grid
  reading atoms ...
  360 atoms
  reading velocities ...
  360 velocities
  scanning bonds ...
  4 = max bonds/atom
  scanning angles ...
  6 = max angles/atom
  scanning dihedrals ...
  18 = max dihedrals/atom
  reading bonds ...
  374 bonds
  reading angles ...
  744 angles
  reading dihedrals ...
  1109 dihedrals
  4 = max # of 1-2 neighbors
  7 = max # of 1-3 neighbors
  16 = max # of 1-4 neighbors
  19 = max # of special neighbors
  special bonds CPU = 0.000931978 secs
  read_data CPU = 0.0136251 secs
################################################################################

timestep        1
fix             pysimm_md all nve/limit 0.1
run             2000
PPPM initialization ...
  using 12-bit tables for long-range coulomb (../kspace.cpp:332)
  G vector (1/distance) = 0.142914
  grid = 30 30 30
  stencil order = 5
  estimated absolute RMS force accuracy = 0.00239137
  estimated relative force accuracy = 7.20154e-06
  using double precision KISS FFT
  3d grid and FFT values/proc = 42875 27000
Neighbor list info ...
  update every 1 steps, delay 10 steps, check yes
  max neighbors/atom: 2000, page size: 100000
  master list distance cutoff = 14
  ghost atom cutoff = 14
  binsize = 7, bins = 27 27 27
  1 neighbor lists, perpetual/occasional/extra = 1 0 0
  (1) pair lj/cut/coul/long, perpetual
      attributes: half, newton on
      pair build: half/bin/newton
      stencil: half/bin/3d/newton
      bin: standard
Per MPI rank memory allocation (min/avg/max) = 19.24 | 19.24 | 19.24 Mbytes
Step Temp E_pair E_mol TotEng Press 
       0    471.19091   -516.58911     12639.37    12627.007   -102.09447 
    2000    485.43329   -509.62812    632.50955    642.34884   -3.7622476 
Loop time of 11.8214 on 1 procs for 2000 steps with 360 atoms

Performance: 14.618 ns/day, 1.642 hours/ns, 169.185 timesteps/s
100.0% CPU use with 1 MPI tasks x no OpenMP threads

MPI task timing breakdown:
Section |  min time  |  avg time  |  max time  |%varavg| %total
---------------------------------------------------------------
Pair    | 1.066      | 1.066      | 1.066      |   0.0 |  9.02
Bond    | 0.25388    | 0.25388    | 0.25388    |   0.0 |  2.15
Kspace  | 10.388     | 10.388     | 10.388     |   0.0 | 87.88
Neigh   | 0.0997     | 0.0997     | 0.0997     |   0.0 |  0.84
Comm    | 0.0013301  | 0.0013301  | 0.0013301  |   0.0 |  0.01
Output  | 1.502e-05  | 1.502e-05  | 1.502e-05  |   0.0 |  0.00
Modify  | 0.0092664  | 0.0092664  | 0.0092664  |   0.0 |  0.08
Other   |            | 0.002827   |            |       |  0.02

Nlocal:    360 ave 360 max 360 min
Histogram: 1 0 0 0 0 0 0 0 0 0
Nghost:    0 ave 0 max 0 min
Histogram: 1 0 0 0 0 0 0 0 0 0
Neighs:    29673 ave 29673 max 29673 min
Histogram: 1 0 0 0 0 0 0 0 0 0

Total # of neighbors = 29673
Ave neighs/atom = 82.425
Ave special neighs/atom = 12.1222
Neighbor list builds = 129
Dangerous builds = 0
unfix pysimm_md
min_style cg
minimize 0.001 0.001 10000 100000
WARNING: Using 'neigh_modify every 1 delay 0 check yes' setting during minimization (../min.cpp:190)
PPPM initialization ...
  using 12-bit tables for long-range coulomb (../kspace.cpp:332)
  G vector (1/distance) = 0.142914
  grid = 30 30 30
  stencil order = 5
  estimated absolute RMS force accuracy = 0.00239137
  estimated relative force accuracy = 7.20154e-06
  using double precision KISS FFT
  3d grid and FFT values/proc = 42875 27000
Per MPI rank memory allocation (min/avg/max) = 20.36 | 20.36 | 20.36 Mbytes
Step Temp E_pair E_mol TotEng Press 
    2000    485.43329   -509.62812    632.50955    642.34884   -3.7622476 
    2064    485.43329   -525.58093    213.62924    207.51572    3.1809267 
Loop time of 0.705394 on 1 procs for 64 steps with 360 atoms

100.2% CPU use with 1 MPI tasks x no OpenMP threads

Minimization stats:
[...]
Histogram: 1 0 0 0 0 0 0 0 0 0

Total # of neighbors = 111900
Ave neighs/atom = 99.2021
Ave special neighs/atom = 12.2092
Neighbor list builds = 130
Dangerous builds = 0
unfix pysimm_md
min_style cg
minimize 0.001 0.001 10000 100000
WARNING: Using 'neigh_modify every 1 delay 0 check yes' setting during minimization (../min.cpp:190)
PPPM initialization ...
  using 12-bit tables for long-range coulomb (../kspace.cpp:332)
  G vector (1/distance) = 0.143619
  grid = 45 45 45
  stencil order = 5
  estimated absolute RMS force accuracy = 0.0022669
  estimated relative force accuracy = 6.82669e-06
  using double precision KISS FFT
  3d grid and FFT values/proc = 125000 91125
Per MPI rank memory allocation (min/avg/max) = 29.61 | 29.61 | 29.61 Mbytes
Step Temp E_pair E_mol TotEng Press 
    2000    178.33964   -1684.8046    1091.9878    6.2925225   -1.5658379 
    2029    178.33964   -1709.5007    640.43749   -469.95389    1.2848554 
Loop time of 1.33401 on 1 procs for 29 steps with 1128 atoms

100.1% CPU use with 1 MPI tasks x no OpenMP threads

Minimization stats:
  Stopping criterion = energy tolerance
  Energy initial, next-to-last, final = 
        -592.816819892     -1068.06534422     -1069.06323589
  Force two-norm initial, final = 748.872 32.3391
  Force max component initial, final = 124.839 4.08929
  Final line search alpha, max atom move = 0.00648919 0.0265362
  Iterations, force evaluations = 29 58

MPI task timing breakdown:
Section |  min time  |  avg time  |  max time  |%varavg| %total
---------------------------------------------------------------
Pair    | 0.17782    | 0.17782    | 0.17782    |   0.0 | 13.33
Bond    | 0.022998   | 0.022998   | 0.022998   |   0.0 |  1.72
Kspace  | 1.1319     | 1.1319     | 1.1319     |   0.0 | 84.85
Neigh   | 0          | 0          | 0          |   0.0 |  0.00
Comm    | 1.4067e-05 | 1.4067e-05 | 1.4067e-05 |   0.0 |  0.00
Output  | 0          | 0          | 0          |   0.0 |  0.00
Modify  | 0          | 0          | 0          |   0.0 |  0.00
Other   |            | 0.001293   |            |       |  0.10

Nlocal:    1128 ave 1128 max 1128 min
Histogram: 1 0 0 0 0 0 0 0 0 0
Nghost:    0 ave 0 max 0 min
Histogram: 1 0 0 0 0 0 0 0 0 0
Neighs:    111900 ave 111900 max 111900 min
Histogram: 1 0 0 0 0 0 0 0 0 0

Total # of neighbors = 111900
Ave neighs/atom = 99.2021
Ave special neighs/atom = 12.2092
Neighbor list builds = 0
Dangerous builds = 0
write_dump all custom pysimm.dump.tmp id q x y z vx vy vz
quit


################################################################################
##################################    Init    ##################################
################################################################################
units           real
atom_style      full
pair_style      lj/cut/coul/long 12.0  12.0
kspace_style    pppm 1e-4
bond_style      harmonic
angle_style     harmonic
dihedral_style  fourier
special_bonds   amber
pair_modify     mix arithmetic
read_data       temp.lmps
  orthogonal box = (-140.531 -140.531 -140.531) to (140.531 140.531 140.531)
  1 by 1 by 1 MPI processor grid
  reading atoms ...
  1152 atoms
  reading velocities ...
  1152 velocities
  scanning bonds ...
  4 = max bonds/atom
  scanning angles ...
  6 = max angles/atom
  scanning dihedrals ...
  18 = max dihedrals/atom
  reading bonds ...
  1199 bonds
  reading angles ...
  2394 angles
  reading dihedrals ...
  3584 dihedrals
  4 = max # of 1-2 neighbors
  7 = max # of 1-3 neighbors
  16 = max # of 1-4 neighbors
  19 = max # of special neighbors
  special bonds CPU = 0.00202203 secs
  read_data CPU = 0.021291 secs
################################################################################

timestep        1
fix             pysimm_md all nve/limit 0.1
run             2000
PPPM initialization ...
  using 12-bit tables for long-range coulomb (../kspace.cpp:332)
  G vector (1/distance) = 0.143053
  grid = 45 45 45
  stencil order = 5
  estimated absolute RMS force accuracy = 0.00232107
  estimated relative force accuracy = 6.98983e-06
  using double precision KISS FFT
  3d grid and FFT values/proc = 125000 91125
Neighbor list info ...
  update every 1 steps, delay 10 steps, check yes
  max neighbors/atom: 2000, page size: 100000
  master list distance cutoff = 14
  ghost atom cutoff = 14
  binsize = 7, bins = 41 41 41
  1 neighbor lists, perpetual/occasional/extra = 1 0 0
  (1) pair lj/cut/coul/long, perpetual
      attributes: half, newton on
      pair build: half/bin/newton
      stencil: half/bin/3d/newton
      bin: standard
Per MPI rank memory allocation (min/avg/max) = 28.51 | 28.51 | 28.51 Mbytes
Step Temp E_pair E_mol TotEng Press 
       0    174.80055   -1740.0737     12855.26    11714.912   -29.546738 
    2000    161.39853   -1725.8929    1041.0291   -131.11958  -0.48423042 
Loop time of 44.3106 on 1 procs for 2000 steps with 1152 atoms

Performance: 3.900 ns/day, 6.154 hours/ns, 45.136 timesteps/s
100.1% CPU use with 1 MPI tasks x no OpenMP threads

MPI task timing breakdown:
Section |  min time  |  avg time  |  max time  |%varavg| %total
---------------------------------------------------------------
Pair    | 3.9655     | 3.9655     | 3.9655     |   0.0 |  8.95
Bond    | 0.7444     | 0.7444     | 0.7444     |   0.0 |  1.68
Kspace  | 39.258     | 39.258     | 39.258     |   0.0 | 88.60
Neigh   | 0.30837    | 0.30837    | 0.30837    |   0.0 |  0.70
Comm    | 0.0024922  | 0.0024922  | 0.0024922  |   0.0 |  0.01
Output  | 2.5988e-05 | 2.5988e-05 | 2.5988e-05 |   0.0 |  0.00
Modify  | 0.025651   | 0.025651   | 0.025651   |   0.0 |  0.06
Other   |            | 0.005924   |            |       |  0.01

Nlocal:    1152 ave 1152 max 1152 min
Histogram: 1 0 0 0 0 0 0 0 0 0
Nghost:    0 ave 0 max 0 min
Histogram: 1 0 0 0 0 0 0 0 0 0
Neighs:    111605 ave 111605 max 111605 min
Histogram: 1 0 0 0 0 0 0 0 0 0

Total # of neighbors = 111605
Ave neighs/atom = 96.8793
Ave special neighs/atom = 12.2101
Neighbor list builds = 113
Dangerous builds = 0
unfix pysimm_md
min_style cg
minimize 0.001 0.001 10000 100000
WARNING: Using 'neigh_modify every 1 delay 0 check yes' setting during minimization (../min.cpp:190)
PPPM initialization ...
  using 12-bit tables for long-range coulomb (../kspace.cpp:332)
  G vector (1/distance) = 0.143053
  grid = 45 45 45
  stencil order = 5
  estimated absolute RMS force accuracy = 0.00232107
  estimated relative force accuracy = 6.98983e-06
  using double precision KISS FFT
  3d grid and FFT values/proc = 125000 91125
Per MPI rank memory allocation (min/avg/max) = 29.64 | 29.64 | 29.64 Mbytes
Step Temp E_pair E_mol TotEng Press 
    2000    161.39853   -1725.8929    1041.0291   -131.11958  -0.48423042 
    2029    161.39853   -1745.4707    619.87727   -571.84917    1.1435749 
Loop time of 1.33048 on 1 procs for 29 steps with 1152 atoms

100.0% CPU use with 1 MPI tasks x no OpenMP threads

Minimization stats:
  Stopping criterion = energy tolerance
  Energy initial, next-to-last, final = 
        -684.863787828     -1124.61194804     -1125.59338535
  Force two-norm initial, final = 707.573 35.7184
  Force max component initial, final = 104.257 4.84045
  Final line search alpha, max atom move = 0.00517849 0.0250662
  Iterations, force evaluations = 29 58

MPI task timing breakdown:
Section |  min time  |  avg time  |  max time  |%varavg| %total
---------------------------------------------------------------
Pair    | 0.17421    | 0.17421    | 0.17421    |   0.0 | 13.09
Bond    | 0.023939   | 0.023939   | 0.023939   |   0.0 |  1.80
Kspace  | 1.1311     | 1.1311     | 1.1311     |   0.0 | 85.01
Neigh   | 0          | 0          | 0          |   0.0 |  0.00
Comm    | 1.8358e-05 | 1.8358e-05 | 1.8358e-05 |   0.0 |  0.00
Output  | 0          | 0          | 0          |   0.0 |  0.00
Modify  | 0          | 0          | 0          |   0.0 |  0.00
Other   |            | 0.001254   |            |       |  0.09

Nlocal:    1152 ave 1152 max 1152 min
Histogram: 1 0 0 0 0 0 0 0 0 0
Nghost:    0 ave 0 max 0 min
Histogram: 1 0 0 0 0 0 0 0 0 0
Neighs:    111652 ave 111652 max 111652 min
Histogram: 1 0 0 0 0 0 0 0 0 0

Total # of neighbors = 111652
Ave neighs/atom = 96.9201
Ave special neighs/atom = 12.2101
Neighbor list builds = 0
Dangerous builds = 0
write_dump all custom pysimm.dump.tmp id q x y z vx vy vz
quit


################################################################################
##################################    Init    ##################################
################################################################################
units           real
atom_style      full
pair_style      lj/cut/coul/long 12.0  12.0
kspace_style    pppm 1e-4
bond_style      harmonic
angle_style     harmonic
dihedral_style  fourier
special_bonds   amber
pair_modify     mix arithmetic
read_data       temp.lmps
  orthogonal box = (-141.521 -141.521 -141.521) to (141.521 141.521 141.521)
  1 by 1 by 1 MPI processor grid
  reading atoms ...
  1176 atoms
  reading velocities ...
  1176 velocities
  scanning bonds ...
  4 = max bonds/atom
  scanning angles ...
  6 = max angles/atom
  scanning dihedrals ...
  18 = max dihedrals/atom
  reading bonds ...
  1224 bonds
  reading angles ...
  2444 angles
  reading dihedrals ...
  3659 dihedrals
  4 = max # of 1-2 neighbors
  7 = max # of 1-3 neighbors
  16 = max # of 1-4 neighbors
  19 = max # of special neighbors
  special bonds CPU = 0.000803947 secs
  read_data CPU = 0.0129101 secs
################################################################################

timestep        1
fix             pysimm_md all nve/limit 0.1
run             2000
PPPM initialization ...
  using 12-bit tables for long-range coulomb (../kspace.cpp:332)
  G vector (1/distance) = 0.142501
  grid = 45 45 45
  stencil order = 5
  estimated absolute RMS force accuracy = 0.00237518
  estimated relative force accuracy = 7.15279e-06
  using double precision KISS FFT
  3d grid and FFT values/proc = 125000 91125
Neighbor list info ...
  update every 1 steps, delay 10 steps, check yes
  max neighbors/atom: 2000, page size: 100000
  master list distance cutoff = 14
  ghost atom cutoff = 14
  binsize = 7, bins = 41 41 41
  1 neighbor lists, perpetual/occasional/extra = 1 0 0
  (1) pair lj/cut/coul/long, perpetual
      attributes: half, newton on
      pair build: half/bin/newton
      stencil: half/bin/3d/newton
      bin: standard
Per MPI rank memory allocation (min/avg/max) = 28.52 | 28.52 | 28.52 Mbytes
Step Temp E_pair E_mol TotEng Press 
       0    158.27779   -1775.5941    12426.186    11204.952    -28.11148 
    2000    153.73061   -1745.2965    1031.2122   -175.65023   0.35735874 
Loop time of 43.477 on 1 procs for 2000 steps with 1176 atoms

Performance: 3.975 ns/day, 6.038 hours/ns, 46.001 timesteps/s
100.1% CPU use with 1 MPI tasks x no OpenMP threads

MPI task timing breakdown:
Section |  min time  |  avg time  |  max time  |%varavg| %total
---------------------------------------------------------------
Pair    | 3.9245     | 3.9245     | 3.9245     |   0.0 |  9.03
Bond    | 0.742      | 0.742      | 0.742      |   0.0 |  1.71
Kspace  | 38.453     | 38.453     | 38.453     |   0.0 | 88.44
Neigh   | 0.32369    | 0.32369    | 0.32369    |   0.0 |  0.74
Comm    | 0.0025668  | 0.0025668  | 0.0025668  |   0.0 |  0.01
Output  | 2.3842e-05 | 2.3842e-05 | 2.3842e-05 |   0.0 |  0.00
Modify  | 0.025688   | 0.025688   | 0.025688   |   0.0 |  0.06
Other   |            | 0.005651   |            |       |  0.01

Nlocal:    1176 ave 1176 max 1176 min
Histogram: 1 0 0 0 0 0 0 0 0 0
Nghost:    0 ave 0 max 0 min
Histogram: 1 0 0 0 0 0 0 0 0 0
Neighs:    117668 ave 117668 max 117668 min
Histogram: 1 0 0 0 0 0 0 0 0 0

Total # of neighbors = 117668
Ave neighs/atom = 100.058
Ave special neighs/atom = 12.2109
Neighbor list builds = 120
Dangerous builds = 0
unfix pysimm_md
min_style cg
minimize 0.001 0.001 10000 100000
WARNING: Using 'neigh_modify every 1 delay 0 check yes' setting during minimization (../min.cpp:190)
PPPM initialization ...
  using 12-bit tables for long-range coulomb (../kspace.cpp:332)
  G vector (1/distance) = 0.142501
  grid = 45 45 45
  stencil order = 5
  estimated absolute RMS force accuracy = 0.00237518
  estimated relative force accuracy = 7.15279e-06
  using double precision KISS FFT
  3d grid and FFT values/proc = 125000 91125
Per MPI rank memory allocation (min/avg/max) = 29.64 | 29.64 | 29.64 Mbytes
Step Temp E_pair E_mol TotEng Press 
    2000    153.73061   -1745.2965    1031.2122   -175.65023   0.35735874 
    2029    153.73061   -1779.0264    651.47526   -589.11706   0.94354105 
Loop time of 1.35224 on 1 procs for 29 steps with 1176 atoms

100.1% CPU use with 1 MPI tasks x no OpenMP threads

Minimization stats:
  Stopping criterion = energy tolerance
  Energy initial, next-to-last, final = 
        -714.084270403     -1126.53654847     -1127.55109646
  Force two-norm initial, final = 741.26 34.6145
  Force max component initial, final = 128.805 5.0718
  Final line search alpha, max atom move = 0.00368677 0.0186986
  Iterations, force evaluations = 29 58

MPI task timing breakdown:
Section |  min time  |  avg time  |  max time  |%varavg| %total
---------------------------------------------------------------
Pair    | 0.18515    | 0.18515    | 0.18515    |   0.0 | 13.69
Bond    | 0.024023   | 0.024023   | 0.024023   |   0.0 |  1.78
Kspace  | 1.1418     | 1.1418     | 1.1418     |   0.0 | 84.44
Neigh   | 0          | 0          | 0          |   0.0 |  0.00
Comm    | 1.2159e-05 | 1.2159e-05 | 1.2159e-05 |   0.0 |  0.00
Output  | 0          | 0          | 0          |   0.0 |  0.00
Modify  | 0          | 0          | 0          |   0.0 |  0.00
Other   |            | 0.001271   |            |       |  0.09

Nlocal:    1176 ave 1176 max 1176 min
Histogram: 1 0 0 0 0 0 0 0 0 0
Nghost:    0 ave 0 max 0 min
Histogram: 1 0 0 0 0 0 0 0 0 0
Neighs:    117767 ave 117767 max 117767 min
Histogram: 1 0 0 0 0 0 0 0 0 0

Total # of neighbors = 117767
Ave neighs/atom = 100.142
Ave special neighs/atom = 12.2109
Neighbor list builds = 0
Dangerous builds = 0
write_dump all custom pysimm.dump.tmp id q x y z vx vy vz
quit


################################################################################
##################################    Init    ##################################
################################################################################
units           real
atom_style      full
pair_style      lj/cut/coul/long 12.0  12.0
kspace_style    pppm 1e-4
bond_style      harmonic
angle_style     harmonic
dihedral_style  fourier
special_bonds   amber
pair_modify     mix arithmetic
read_data       temp.lmps
  orthogonal box = (-142.497 -142.497 -142.497) to (142.497 142.497 142.497)
  1 by 1 by 1 MPI processor grid
  reading atoms ...
  1200 atoms
  reading velocities ...
  1200 velocities
  scanning bonds ...
  4 = max bonds/atom
  scanning angles ...
  6 = max angles/atom
  scanning dihedrals ...
  18 = max dihedrals/atom
  reading bonds ...
  1249 bonds
  reading angles ...
  2494 angles
  reading dihedrals ...
  3734 dihedrals
  4 = max # of 1-2 neighbors
  7 = max # of 1-3 neighbors
  16 = max # of 1-4 neighbors
  19 = max # of special neighbors
  special bonds CPU = 0.00197697 secs
  read_data CPU = 0.0298111 secs
################################################################################

timestep        1
fix             pysimm_md all nve/limit 0.1
run             2000
PPPM initialization ...
  using 12-bit tables for long-range coulomb (../kspace.cpp:332)
  G vector (1/distance) = 0.1419
  grid = 45 45 45
  stencil order = 5
  estimated absolute RMS force accuracy = 0.00242766
  estimated relative force accuracy = 7.31082e-06
  using double precision KISS FFT
  3d grid and FFT values/proc = 125000 91125
Neighbor list info ...
  update every 1 steps, delay 10 steps, check yes
  max neighbors/atom: 2000, page size: 100000
  master list distance cutoff = 14
  ghost atom cutoff = 14
  binsize = 7, bins = 41 41 41
  1 neighbor lists, perpetual/occasional/extra = 1 0 0
  (1) pair lj/cut/coul/long, perpetual
      attributes: half, newton on
      pair build: half/bin/newton
      stencil: half/bin/3d/newton
      bin: standard
Per MPI rank memory allocation (min/avg/max) = 28.52 | 28.52 | 28.52 Mbytes
Step Temp E_pair E_mol TotEng Press 
       0    150.82582   -1809.0971    12612.766    11342.719   -28.141094 
    2000    153.89562   -1787.3065     1011.687   -225.59786   0.95392297 
Loop time of 44.4587 on 1 procs for 2000 steps with 1200 atoms

Performance: 3.887 ns/day, 6.175 hours/ns, 44.986 timesteps/s
100.1% CPU use with 1 MPI tasks x no OpenMP threads

MPI task timing breakdown:
Section |  min time  |  avg time  |  max time  |%varavg| %total
---------------------------------------------------------------
Pair    | 4.2756     | 4.2756     | 4.2756     |   0.0 |  9.62
Bond    | 0.77036    | 0.77036    | 0.77036    |   0.0 |  1.73
Kspace  | 39.033     | 39.033     | 39.033     |   0.0 | 87.80
Neigh   | 0.34443    | 0.34443    | 0.34443    |   0.0 |  0.77
Comm    | 0.0026748  | 0.0026748  | 0.0026748  |   0.0 |  0.01
Output  | 2.5034e-05 | 2.5034e-05 | 2.5034e-05 |   0.0 |  0.00
Modify  | 0.026913   | 0.026913   | 0.026913   |   0.0 |  0.06
Other   |            | 0.005829   |            |       |  0.01

Nlocal:    1200 ave 1200 max 1200 min
Histogram: 1 0 0 0 0 0 0 0 0 0
Nghost:    0 ave 0 max 0 min
Histogram: 1 0 0 0 0 0 0 0 0 0
Neighs:    122515 ave 122515 max 122515 min
Histogram: 1 0 0 0 0 0 0 0 0 0

Total # of neighbors = 122515
Ave neighs/atom = 102.096
Ave special neighs/atom = 12.2117
Neighbor list builds = 121
Dangerous builds = 0
unfix pysimm_md
min_style cg
minimize 0.001 0.001 10000 100000
WARNING: Using 'neigh_modify every 1 delay 0 check yes' setting during minimization (../min.cpp:190)
PPPM initialization ...
  using 12-bit tables for long-range coulomb (../kspace.cpp:332)
  G vector (1/distance) = 0.1419
  grid = 45 45 45
  stencil order = 5
  estimated absolute RMS force accuracy = 0.00242766
  estimated relative force accuracy = 7.31082e-06
  using double precision KISS FFT
  3d grid and FFT values/proc = 125000 91125
Per MPI rank memory allocation (min/avg/max) = 29.64 | 29.64 | 29.64 Mbytes
Step Temp E_pair E_mol TotEng Press 
    2000    153.89562   -1787.3065     1011.687   -225.59786   0.95392297 
    2034    153.89562    -1825.019     651.8376   -623.15984    1.0088571 
Loop time of 1.59346 on 1 procs for 34 steps with 1200 atoms

100.1% CPU use with 1 MPI tasks x no OpenMP threads

Minimization stats:
  Stopping criterion = energy tolerance
  Energy initial, next-to-last, final = 
        -775.619455408     -1172.37378663     -1173.18144068
  Force two-norm initial, final = 679.541 35.0257
  Force max component initial, final = 91.7077 4.7177
  Final line search alpha, max atom move = 0.0042869 0.0202243
  Iterations, force evaluations = 34 68

MPI task timing breakdown:
Section |  min time  |  avg time  |  max time  |%varavg| %total
---------------------------------------------------------------
Pair    | 0.23283    | 0.23283    | 0.23283    |   0.0 | 14.61
Bond    | 0.02933    | 0.02933    | 0.02933    |   0.0 |  1.84
Kspace  | 1.327      | 1.327      | 1.327      |   0.0 | 83.28
Neigh   | 0.0027509  | 0.0027509  | 0.0027509  |   0.0 |  0.17
Comm    | 3.9816e-05 | 3.9816e-05 | 3.9816e-05 |   0.0 |  0.00
Output  | 0          | 0          | 0          |   0.0 |  0.00
Modify  | 0          | 0          | 0          |   0.0 |  0.00
Other   |            | 0.001534   |            |       |  0.10

Nlocal:    1200 ave 1200 max 1200 min
Histogram: 1 0 0 0 0 0 0 0 0 0
Nghost:    0 ave 0 max 0 min
Histogram: 1 0 0 0 0 0 0 0 0 0
Neighs:    122643 ave 122643 max 122643 min
Histogram: 1 0 0 0 0 0 0 0 0 0

Total # of neighbors = 122643
Ave neighs/atom = 102.203
Ave special neighs/atom = 12.2117
Neighbor list builds = 1
Dangerous builds = 0
write_dump all custom pysimm.dump.tmp id q x y z vx vy vz
quit
