pySIMM System Object

2353 atoms
2576 bonds
4462 angles
6814 dihedrals
694 impropers

12 atom types
15 bond types
24 angle types
10 dihedral types
4 improper types

-174.527216 174.527216 xlo xhi
-174.527216 174.527216 ylo yhi
-174.527216 174.527216 zlo zhi

Masses

   1	14.01	# n
   2	12.01	# c
   3	12.01	# ca
   4	1.008	# hn
   5	16.0	# o
   6	1.008	# ha
   7	12.01	# c3
   8	19.0	# f
   9	12.01	# cp
  10	16.0	# oh
  11	1.008	# ho
  12	1.008	# hc

Pair Coeffs

   1	0.17	3.249998523775958	# n
   2	0.086	3.3996695084235347	# c
   3	0.086	3.3996695084235347	# ca
   4	0.0157	1.069078461768407	# hn
   5	0.21	2.959921901149463	# o
   6	0.015	2.59964245953351	# ha
   7	0.1094	3.3996695084235347	# c3
   8	0.061	3.1181455134911875	# f
   9	0.086	3.3996695084235347	# cp
  10	0.2104	3.0664733878390478	# oh
  11	0.0047	0.5379246460131368	# ho
  12	0.0157	2.649532787749369	# hc

Bond Coeffs

   1	403.2	1.0129	# hn,n
   2	356.9	1.3497	# c3,f
   3	384.2	1.4121	# ca,n
   4	450.2	1.4058	# ca,cp
   5	371.4	0.973	# ho,oh
   6	461.1	1.3984	# ca,ca
   7	427.6	1.3789	# c,n
   8	321.0	1.5156	# c3,ca
   9	384.0	1.3637	# ca,oh
  10	345.9	1.4906	# c,ca
  11	345.8	1.086	# ca,ha
  12	637.7	1.2183	# c,o
  13	300.9	1.5375	# c3,c3
  14	351.4	1.4854	# cp,cp
  15	330.6	1.0969	# c3,hc

Angle Coeffs

   1	63.53	120.77	# c3,ca,ca
   2	70.89	107.36	# f,c3,f
   3	67.87	120.19	# ca,ca,n
   4	66.72	118.38	# ca,cp,ca
   5	66.11	109.24	# c3,c3,f
   6	49.0	108.58	# ca,oh,ho
   7	62.86	111.51	# c3,c3,c3
   8	63.15	112.07	# c3,c3,ca
   9	66.26	120.69	# ca,ca,cp
  10	63.56	112.24	# ca,c3,ca
  11	63.82	123.71	# c,n,ca
  12	69.52	119.9	# ca,ca,oh
  13	63.74	127.08	# c,n,c
  14	48.18	119.88	# ca,ca,ha
  15	74.22	123.05	# n,c,o
  16	64.05	121.11	# ca,cp,cp
  17	66.62	120.02	# ca,ca,ca
  18	68.72	122.6	# ca,c,o
  19	67.68	115.25	# ca,c,n
  20	48.33	117.55	# c,n,hn
  21	64.28	120.33	# c,ca,ca
  22	47.98	119.86	# cp,ca,ha
  23	39.4	107.58	# hc,c3,hc
  24	46.8	110.47	# ca,c3,hc

Dihedral Coeffs

   1	1	0.15555555555555556	3	0	# X,c3,c3,X
   2	1	1.0	2	180	# X,cp,cp,X
   3	1	0.0	2	0	# X,c3,ca,X
   4	1	1.0	2	180	# X,c,ca,X
   5	1	2.5	2	180	# X,c,n,X
   6	1	0.45	2	180	# X,ca,n,X
   7	1	3.625	2	180	# X,ca,cp,X
   8	1	0.9	2	180	# X,ca,oh,X
   9	2	2.5	2	180	2.0	1	0	# hn,n,c,o
  10	1	3.625	2	180	# X,ca,ca,X

Improper Coeffs

   1	1.1	-1	2	# ca,ca,ca,c3
   2	1.1	-1	2	# n,X,X,hn
   3	1.1	-1	2	# ca,X,X,ha
   4	10.5	-1	2	# c,X,X,o

Atoms

   1	1	1	0.463107	-28.5428	2.49538	41.6475
   2	1	2	0.061808	-29.4975	3.45173	41.2991
   3	1	3	0.001427	-29.4847	4.43883	42.4125
   4	1	2	0.068581	-27.9337	2.75869	42.872
   5	1	3	0.040836	-28.5488	4.02809	43.3404
   6	1	5	-0.386232	-30.1534	3.52372	40.2731
   7	1	5	-0.391601	-27.0793	2.10403	43.4475
   8	1	3	-0.001718	-30.216	5.62436	42.5767
   9	1	3	-0.033153	-28.2757	4.79378	44.4756
  10	1	3	-0.217995	-29.0036	5.98832	44.662
  11	1	3	-0.067978	-30.0036	6.41478	43.7419
  12	1	6	0.155939	-30.9227	5.89998	41.8017
  13	1	6	0.152973	-27.5134	4.47206	45.1856
  14	1	6	0.17647	-28.7893	6.58974	45.5449
  15	1	7	-0.111335	-30.7861	7.74021	44.0287
  16	1	7	0.291988	-32.1205	7.86665	43.1962
  17	1	8	-0.108289	-32.9087	8.86369	43.6621
  18	1	8	-0.102972	-32.8624	6.73714	43.2631
  19	1	8	-0.103001	-31.9035	8.13307	41.8865
  20	1	7	0.43552	-29.825	8.92757	43.639
  21	1	8	-0.137748	-29.216	8.71202	42.4511
  22	1	8	-0.132227	-28.8371	9.08608	44.5497
  23	1	8	-0.124157	-30.4601	10.1173	43.5283
  24	1	3	-0.009135	-31.1956	7.78994	45.5347
  25	1	3	-0.073591	-31.2315	9.0031	46.2815
  26	1	3	-0.051923	-31.6103	8.96813	47.6316
  27	1	3	-0.057717	-31.5956	6.59201	46.1909
  28	1	3	-0.156758	-31.9666	6.57812	47.5516
  29	1	3	-0.020332	-31.9678	7.79084	48.2486
  30	1	2	0.469602	-32.385	8.10037	49.6433
  31	1	1	-0.076132	-32.2419	9.4794	49.7926
  32	1	2	0.458333	-31.763	10.0682	48.6249
  33	1	3	-0.008032	-32.5968	10.1935	50.987
  34	1	3	-0.195997	-32.2006	9.68497	52.2407
  35	1	3	-0.113065	-32.622	10.3001	53.4344
  36	1	3	0.271942	-33.3985	11.3627	50.9654
  37	1	3	-0.220579	-33.8238	11.9616	52.1597
  38	1	9	0.005883	-33.4619	11.4406	53.4246
  39	1	6	0.164552	-32.2778	5.66025	48.0426
  40	1	6	0.136991	-31.6236	5.65567	45.6406
  41	1	6	0.136379	-30.9865	9.96577	45.8456
  42	1	5	-0.461381	-31.5808	11.256	48.4187
  43	1	5	-0.471091	-32.8129	7.29162	50.4493
  44	1	6	0.134736	-34.4807	12.8224	52.0944
  45	1	6	0.169495	-31.5841	8.79147	52.2959
  46	1	10	-0.554106	-33.8106	11.9379	49.8014
  47	1	9	-0.02772	-34.0009	12.0359	54.6962
  48	1	6	0.133194	-32.3009	9.87694	54.3821
  49	1	3	-0.144307	-34.2794	11.2147	55.8205
  50	1	3	0.023803	-34.8382	11.7531	56.9934
  51	1	3	0.335896	-35.121	13.1298	57.0708
  52	1	3	-0.53864	-34.8491	13.9632	55.9725
  53	1	3	-0.029171	-34.3	13.4197	54.7965
  54	1	6	0.130758	-34.0965	14.0752	53.9525
  55	1	6	0.243773	-35.0786	15.0227	56.0374
  56	1	6	0.131936	-34.0916	10.1484	55.7621
  57	1	10	-0.547641	-35.1237	10.9276	58.0462
  58	1	11	0.436946	-33.0551	11.8799	49.1697
  59	1	11	0.442856	-34.8997	10.0145	57.8035
  60	1	3	-0.004194	-19.5295	1.7866	32.5403
  61	1	3	-0.097141	-20.234	1.23264	33.6483
  62	1	3	-0.172015	-20.3212	-0.184238	33.7416
  63	1	5	-0.377994	-17.8431	2.32364	29.9548
  64	1	3	0.033493	-18.9566	0.923376	31.5915
  65	1	3	-0.063739	-19.7452	-1.03293	32.7729
  66	1	5	-0.398381	-18.1805	-2.28609	30.4008
  67	1	3	0.032144	-19.0574	-0.448115	31.7089
  68	1	2	0.032313	-18.1332	1.21982	30.3862
  69	1	1	0.461698	-17.7744	-0.0265973	29.8665
  70	1	2	0.091945	-18.2988	-1.08773	30.6028
  71	1	3	-0.10563	-24.4642	0.779208	34.6467
  72	1	7	-0.099376	-20.8039	2.10497	34.8143
  73	1	3	-0.043296	-22.1826	1.53035	35.2765
  74	1	3	-0.073043	-23.1606	1.19344	34.2969
  75	1	3	-0.117827	-24.7862	0.698822	36.005
  76	1	3	-0.037562	-22.5549	1.42304	36.6448
  77	1	3	-0.083705	-23.8481	0.992181	36.9716
  78	1	7	0.396	-19.7054	2.08656	35.9493
  79	1	7	0.310495	-21.0858	3.59898	34.3956
  80	1	8	-0.130298	-19.6561	0.885261	36.564
  81	1	8	-0.128745	-19.9126	3.01195	36.9136
  82	1	8	-0.120019	-18.4623	2.31197	35.4584
  83	1	8	-0.104287	-21.7596	3.66771	33.2277
  84	1	8	-0.095507	-19.9614	4.33678	34.2507
  85	1	8	-0.104872	-21.8591	4.23608	35.3064
  86	1	2	0.456145	-24.4953	0.843932	38.3012
  87	1	2	0.550902	-26.0782	0.391558	36.6816
  88	1	1	0.015704	-25.8235	0.521153	38.0419
  89	1	5	-0.456801	-23.9568	1.00529	39.3817
  90	1	5	-0.487703	-27.1377	0.136118	36.134
  91	1	3	-0.116566	-26.8242	0.401688	39.0526
  92	1	3	-0.050109	-27.2419	1.54114	39.7876
  93	1	3	0.154929	-28.191	1.38542	40.8307
  94	1	3	0.041555	-27.3851	-0.866019	39.3269
  95	1	3	-0.223109	-28.3554	-0.991529	40.3318
  96	1	3	-0.080449	-28.7567	0.116182	41.0941
  97	1	7	-0.108008	-26.9447	-2.12198	38.5799
  98	1	7	-0.182228	-29.7936	-0.0892636	42.1945
  99	1	7	-0.345523	-26.6473	2.92575	39.4858
 100	1	6	0.155183	-19.3829	2.85368	32.4144
 101	1	6	0.172904	-20.8225	-0.64032	34.5927
 102	1	6	0.158028	-19.7996	-2.11611	32.8626
 103	1	6	0.153129	-25.2098	0.558151	33.8844
 104	1	6	0.142914	-22.9156	1.28646	33.241
 105	1	6	0.135531	-21.8865	1.69426	37.455
 106	1	6	0.17765	-28.7848	-1.96838	40.5372
 107	1	12	0.046541	-25.8527	-2.21757	38.5676
 108	1	12	0.045238	-27.3023	-2.11527	37.5412
 109	1	12	0.051941	-27.3406	-3.03085	39.0496
 110	1	12	0.087961	-30.1368	-1.13001	42.2416
 111	1	12	0.066782	-30.6791	0.536517	42.0249
 112	1	12	0.075908	-29.3816	0.158989	43.1814
 113	1	12	0.105172	-25.8079	3.14539	40.1602
 114	1	12	0.115625	-27.3846	3.73061	39.5884
 115	1	12	0.140296	-26.2772	3.01632	38.4583
 116	1	3	-0.004194	-19.222	-5.55432	20.1594
 117	1	3	-0.097141	-20.1887	-5.71387	21.1961
 118	1	3	-0.172015	-20.3676	-7.03018	21.7217
 119	1	5	-0.377994	-17.308	-5.92528	17.7145
 120	1	3	0.033493	-18.5449	-6.68347	19.6539
 121	1	3	-0.063739	-19.6583	-8.14428	21.221
 122	1	5	-0.398381	-18.0677	-10.1614	19.4144
 123	1	3	0.032144	-18.7615	-7.94809	20.1677
 124	1	2	0.032313	-17.6484	-6.82331	18.4677
 125	1	1	0.461698	-17.3881	-8.19465	18.3502
 126	1	2	0.091945	-18.0213	-8.94336	19.3344
 127	1	3	-0.10563	-19.814	-0.88596	22.3758
 128	1	7	-0.099376	-21.0963	-4.49804	21.6263
 129	1	3	-0.043296	-20.2033	-3.31381	22.0901
 130	1	3	-0.073043	-20.514	-1.95438	21.7875
 131	1	3	-0.117827	-18.821	-1.19069	23.3089
 132	1	3	-0.037562	-19.1431	-3.57899	22.9924
 133	1	3	-0.083705	-18.4894	-2.49791	23.5969
 134	1	7	0.396	-22.0542	-4.80864	22.8491
 135	1	7	0.310495	-22.004	-4.12832	20.3897
 136	1	8	-0.130298	-22.7308	-3.71644	23.2739
 137	1	8	-0.128745	-21.3614	-5.23638	23.9296
 138	1	8	-0.120019	-22.9908	-5.74311	22.5692
 139	1	8	-0.104287	-23.0256	-3.28698	20.6699
 140	1	8	-0.095507	-22.5555	-5.23673	19.8541
 141	1	8	-0.104872	-21.2923	-3.5313	19.4114
 142	1	2	0.456145	-17.514	-2.48438	24.7159
 143	1	2	0.550902	-18.0901	-0.300396	24.2501
 144	1	1	0.015704	-17.3701	-1.15102	25.083
 145	1	5	-0.456801	-17.0564	-3.47061	25.2627
 146	1	5	-0.487703	-18.3063	0.888627	24.4046
 147	1	3	-0.116566	-16.7647	-0.744851	26.3138
 148	1	3	-0.050109	-17.5814	-0.557156	27.4604
 149	1	3	0.154929	-16.9783	-0.205607	28.6979
 150	1	3	0.041555	-15.3614	-0.587727	26.4076
 151	1	3	-0.223109	-14.7813	-0.263808	27.6427
 152	1	3	-0.080449	-15.5717	-0.066087	28.7836
 153	1	7	-0.108008	-14.4426	-0.728499	25.2004
 154	1	7	-0.182228	-14.8723	0.304894	30.0887
 155	1	7	-0.345523	-19.1025	-0.769781	27.3553
 156	1	6	0.155183	-19.0465	-4.58705	19.6965
 157	1	6	0.172904	-21.097	-7.23722	22.4972
 158	1	6	0.158028	-19.8389	-9.14371	21.6044
 159	1	6	0.153129	-20.0882	0.148275	22.1755
 160	1	6	0.142914	-21.3318	-1.6916	21.1305
 161	1	6	0.135531	-18.8969	-4.59619	23.2972
 162	1	6	0.17765	-13.7024	-0.14825	27.7095
 163	1	12	0.046541	-14.4423	-1.76049	24.8272
 164	1	12	0.045238	-13.4054	-0.465021	25.4425
 165	1	12	0.051941	-14.7654	-0.071869	24.3844
 166	1	12	0.087961	-13.7837	0.180649	30.0135
 167	1	12	0.066782	-15.2091	-0.326152	30.9233
 168	1	12	0.075908	-15.0632	1.35397	30.3516
 169	1	12	0.105172	-19.6634	-0.462158	28.2436
 170	1	12	0.115625	-19.3321	-1.83027	27.1867
 171	1	12	0.140296	-19.5383	-0.190983	26.5312
 172	1	1	0.463107	-20.9305	-17.485	7.60226
 173	1	2	0.061808	-20.0604	-16.8023	6.75367
 174	1	3	0.001427	-18.8158	-17.6113	6.75059
 175	1	2	0.068581	-20.3817	-18.6939	8.0526
 176	1	3	0.040836	-19.0208	-18.769	7.46243
 177	1	5	-0.386232	-20.275	-15.8043	6.08247
 178	1	5	-0.391601	-20.876	-19.5243	8.79395
 179	1	3	-0.001718	-17.5699	-17.3037	6.21507
 180	1	3	-0.033153	-18.0205	-19.7462	7.56397
 181	1	3	-0.217995	-16.766	-19.4822	6.96628
 182	1	3	-0.067978	-16.5047	-18.2352	6.32632
 183	1	6	0.155939	-17.4422	-16.3252	5.76559
 184	1	6	0.152973	-18.2132	-20.676	8.09822
 185	1	6	0.17647	-16.0008	-20.2474	7.04612
 186	1	7	-0.111335	-15.0932	-17.7811	5.8474
 187	1	7	0.291988	-13.942	-18.8312	6.08655
 188	1	8	-0.108289	-14.075	-19.9497	5.32705
 189	1	8	-0.102972	-13.8521	-19.2053	7.38243
 190	1	8	-0.103001	-12.7314	-18.2903	5.81669
 191	1	7	0.43552	-15.205	-17.4918	4.29954
 192	1	8	-0.137748	-14.0189	-17.3605	3.66536
 193	1	8	-0.132227	-15.8855	-16.3518	4.04491
 194	1	8	-0.124157	-15.8553	-18.4933	3.67194
 195	1	3	-0.009135	-14.7135	-16.5251	6.68741
 196	1	3	-0.073591	-15.1667	-16.4177	8.03146
 197	1	3	-0.051923	-14.7932	-15.3131	8.80497
 198	1	3	-0.057717	-13.8781	-15.4894	6.18131
 199	1	3	-0.156758	-13.5108	-14.3818	6.97537
 200	1	3	-0.020332	-13.9821	-14.3282	8.29312
 201	1	2	0.469602	-13.791	-13.3011	9.34918
 202	1	1	-0.076132	-14.5494	-13.7136	10.4453
 203	1	2	0.458333	-15.1658	-14.9367	10.1967
 204	1	3	-0.008032	-14.802	-12.8874	11.5962
 205	1	3	-0.195997	-15.0942	-11.5218	11.3875
 206	1	3	-0.113065	-15.4346	-10.6812	12.462
 207	1	3	0.271942	-14.8135	-13.3761	12.9284
 208	1	3	-0.220579	-15.112	-12.5197	13.9962
 209	1	9	0.005883	-15.461	-11.1667	13.7888
 210	1	6	0.164552	-12.8774	-13.5888	6.58287
 211	1	6	0.136991	-13.4867	-15.5375	5.17083
 212	1	6	0.136379	-15.7909	-17.1814	8.48777
 213	1	5	-0.461381	-15.8893	-15.5703	10.9472
 214	1	5	-0.471091	-13.1553	-12.2699	9.21624
 215	1	6	0.134736	-15.1379	-12.9372	14.9983
 216	1	6	0.169495	-15.0889	-11.1041	10.3848
 217	1	10	-0.554106	-14.5853	-14.6842	13.2325
 218	1	9	-0.02772	-15.8708	-10.2994	14.9386
 219	1	6	0.133194	-15.6631	-9.63636	12.2696
 220	1	3	-0.144307	-15.2366	-10.4085	16.1973
 221	1	3	0.023803	-15.6779	-9.68236	17.3185
 222	1	3	0.335896	-16.8022	-8.82164	17.2064
 223	1	3	-0.53864	-17.422	-8.68693	15.9397
 224	1	3	-0.029171	-16.9566	-9.40369	14.8237
 225	1	6	0.130758	-17.4739	-9.30638	13.8713
 226	1	6	0.243773	-18.286	-8.03373	15.8306
 227	1	6	0.131936	-14.4072	-11.0954	16.2847
 228	1	10	-0.547641	-14.9988	-9.85795	18.4959
 229	1	11	0.436946	-15.0189	-15.2152	12.5239
 230	1	11	0.442856	-14.2013	-10.3934	18.3192
 231	1	3	-0.004194	-31.1186	-23.5369	11.8938
 232	1	3	-0.097141	-30.2945	-23.3915	10.7442
 233	1	3	-0.172015	-29.3161	-24.4047	10.5103
 234	1	5	-0.377994	-32.4593	-24.3136	14.5584
 235	1	3	0.033493	-30.9327	-24.6491	12.7286
 236	1	3	-0.063739	-29.1633	-25.5296	11.3506
 237	1	5	-0.398381	-29.2355	-27.5499	13.7495
 238	1	3	0.032144	-29.989	-25.6242	12.472
 239	1	2	0.032313	-31.5722	-24.9553	14.0291
 240	1	1	0.461698	-30.9145	-26.0828	14.5129
 241	1	2	0.091945	-29.9626	-26.5769	13.6196
 242	1	3	-0.10563	-26.9644	-20.8141	11.1352
 243	1	7	-0.099376	-30.3437	-22.1499	9.77962
 244	1	3	-0.043296	-28.9875	-21.4001	9.8493
 245	1	3	-0.073043	-28.1763	-21.5134	11.0128
 246	1	3	-0.117827	-26.5748	-19.9848	10.0826
 247	1	3	-0.037562	-28.5722	-20.5101	8.81654
 248	1	3	-0.083705	-27.3575	-19.8167	8.95661
 249	1	7	0.396	-31.4419	-21.0714	10.1476
 250	1	7	0.310495	-30.6286	-22.7169	8.32808
 251	1	8	-0.130298	-31.4312	-19.9934	9.32966
 252	1	8	-0.128745	-31.2485	-20.5509	11.3778
 253	1	8	-0.120019	-32.6917	-21.5751	10.1016
 254	1	8	-0.104287	-31.5943	-23.66	8.35384
 255	1	8	-0.095507	-29.5363	-23.2745	7.75692
 256	1	8	-0.104872	-31.0617	-21.8054	7.43477
 257	1	2	0.456145	-26.6959	-18.7838	8.08803
 258	1	2	0.550902	-25.3828	-19.1111	9.96146
 259	1	1	0.015704	-25.5467	-18.4082	8.77735
 260	1	5	-0.456801	-27.1172	-18.3231	7.04074
 261	1	5	-0.487703	-24.4664	-19.0219	10.762
 262	1	3	-0.116566	-24.5984	-17.4025	8.41618
 263	1	3	-0.050109	-23.3828	-17.7952	7.80963
 264	1	3	0.154929	-22.2208	-16.994	7.98091
 265	1	3	0.041555	-24.7132	-16.1334	9.01889
 266	1	3	-0.223109	-23.5871	-15.302	9.09683
 267	1	3	-0.080449	-22.332	-15.7456	8.64926
 268	1	7	-0.108008	-26.0015	-15.6972	9.70545
 269	1	7	-0.182228	-21.1134	-14.8897	8.99234
 270	1	7	-0.345523	-23.3338	-19.1501	7.09827
 271	1	6	0.155183	-31.8572	-22.7986	12.1883
 272	1	6	0.172904	-28.6227	-24.309	9.6823
 273	1	6	0.158028	-28.3888	-26.2723	11.1729
 274	1	6	0.153129	-26.3469	-20.9046	12.0272
 275	1	6	0.142914	-28.4806	-22.1297	11.8548
 276	1	6	0.135531	-29.1771	-20.3329	7.93271
 277	1	6	0.17765	-23.6681	-14.3498	9.61409
 278	1	12	0.046541	-25.9811	-14.6311	9.96213
 279	1	12	0.045238	-26.1634	-16.2584	10.6344
 280	1	12	0.051941	-26.8704	-15.8559	9.05369
 281	1	12	0.087961	-21.3676	-14.0928	9.7051
 282	1	12	0.066782	-20.704	-14.3923	8.10956
 283	1	12	0.075908	-20.3167	-15.4887	9.46196
 284	1	12	0.105172	-22.5099	-19.2197	6.38212
 285	1	12	0.115625	-24.2523	-19.3263	6.52512
 286	1	12	0.140296	-23.2191	-19.9749	7.81679
 287	1	3	-0.004194	-28.8958	-22.3846	24.3229
 288	1	3	-0.097141	-29.3039	-23.4935	25.1158
 289	1	3	-0.172015	-30.4973	-23.366	25.8818
 290	1	5	-0.377994	-28.5458	-19.666	22.8345
 291	1	3	0.033493	-29.6755	-21.2219	24.3057
 292	1	3	-0.063739	-31.286	-22.1972	25.8219
 293	1	5	-0.398381	-32.4765	-19.3696	25.3061
 294	1	3	0.032144	-30.854	-21.1409	25.0176
 295	1	2	0.032313	-29.4731	-19.9391	23.5806
 296	1	1	0.461698	-30.5938	-19.1668	23.9033
 297	1	2	0.091945	-31.4597	-19.8064	24.7874
 298	1	3	-0.10563	-27.128	-26.3676	21.752
 299	1	7	-0.099376	-28.4516	-24.8005	25.0913
 300	1	3	-0.043296	-28.3285	-25.2507	23.6065
 301	1	3	-0.073043	-27.1883	-25.9333	23.0965
 302	1	3	-0.117827	-28.2345	-26.1261	20.9253
 303	1	3	-0.037562	-29.4409	-25.0785	22.7455
 304	1	3	-0.083705	-29.3587	-25.5	21.4181
 305	1	7	0.396	-29.0999	-26.0247	25.8525
 306	1	7	0.310495	-27.0703	-24.4433	25.7702
 307	1	8	-0.130298	-29.1493	-25.8398	27.1927
 308	1	8	-0.128745	-30.3589	-26.2848	25.4287
 309	1	8	-0.120019	-28.4125	-27.1696	25.6378
 310	1	8	-0.104287	-26.3311	-25.5242	26.098
 311	1	8	-0.095507	-27.2447	-23.7455	26.9181
 312	1	8	-0.104872	-26.2936	-23.6761	24.9739
 313	1	2	0.456145	-30.4335	-25.5476	20.3967
 314	1	2	0.550902	-28.5556	-26.595	19.5474
 315	1	1	0.015704	-29.8846	-26.2395	19.3271
 316	1	5	-0.456801	-31.5964	-25.2297	20.5833
 317	1	5	-0.487703	-27.8339	-27.2801	18.8441
 318	1	3	-0.116566	-30.6329	-26.6858	18.2004
 319	1	3	-0.050109	-30.4698	-26.0703	16.9344
 320	1	3	0.154929	-31.1345	-26.624	15.8099
 321	1	3	0.041555	-31.4784	-27.8101	18.3446
 322	1	3	-0.223109	-32.1516	-28.3182	17.2306
 323	1	3	-0.080449	-31.9667	-27.7531	15.9654
 324	1	7	-0.108008	-31.6369	-28.5524	19.6639
 325	1	7	-0.182228	-32.6335	-28.4274	14.778
 326	1	7	-0.345523	-29.5848	-24.825	16.7647
 327	1	6	0.155183	-27.9965	-22.4194	23.7173
 328	1	6	0.172904	-30.8434	-24.161	26.5332
 329	1	6	0.158028	-32.2016	-22.1051	26.402
 330	1	6	0.153129	-26.2665	-26.9197	21.3767
 331	1	6	0.142914	-26.3446	-26.1553	23.7408
 332	1	6	0.135531	-30.376	-24.652	23.1032
 333	1	6	0.17765	-32.7806	-29.1958	17.3407
 334	1	12	0.046541	-30.6626	-28.755	20.1275
 335	1	12	0.045238	-32.136	-29.5214	19.5295
 336	1	12	0.051941	-32.2431	-27.9701	20.3695
 337	1	12	0.087961	-31.9001	-29.002	14.1968
 338	1	12	0.066782	-33.1044	-27.6939	14.1125
 339	1	12	0.075908	-33.4203	-29.1222	15.0978
 340	1	12	0.105172	-28.775	-25.0093	16.048
 341	1	12	0.115625	-29.1082	-24.4845	17.6883
 342	1	12	0.140296	-30.1808	-23.9781	16.4009
 343	1	3	-0.004194	-33.9257	-18.4788	13.8799
 344	1	3	-0.097141	-34.4499	-17.2137	13.5085
 345	1	3	-0.172015	-35.5945	-17.1843	12.6557
 346	1	5	-0.377994	-33.3031	-21.4763	14.3632
 347	1	3	0.033493	-34.5633	-19.6364	13.4383
 348	1	3	-0.063739	-36.2224	-18.3679	12.222
 349	1	5	-0.398381	-37.2076	-21.2884	11.8498
 350	1	3	0.032144	-35.6901	-19.5832	12.6475
 351	1	2	0.032313	-34.2607	-21.0539	13.737
 352	1	1	0.461698	-35.3043	-21.7688	13.1501
 353	1	2	0.091945	-36.1965	-20.9615	12.4508
 354	1	3	-0.10563	-35.0567	-17.0676	17.68
 355	1	7	-0.099376	-33.8196	-15.9436	14.1623
 356	1	3	-0.043296	-33.8148	-16.2149	15.7032
 357	1	3	-0.073043	-34.979	-16.7807	16.3015
 358	1	3	-0.117827	-33.9456	-16.7843	18.475
 359	1	3	-0.037562	-32.7075	-15.9435	16.5545
 360	1	3	-0.083705	-32.8035	-16.243	17.9241
 361	1	7	0.396	-32.3686	-15.7359	13.5575
 362	1	7	0.310495	-34.6825	-14.6453	13.9064
 363	1	8	-0.130298	-32.3899	-15.6744	12.2104
 364	1	8	-0.128745	-31.536	-16.7601	13.8584
 365	1	8	-0.120019	-31.7632	-14.596	13.9627
 366	1	8	-0.104287	-35.9629	-14.8008	14.3186
 367	1	8	-0.095507	-34.195	-13.5742	14.5742
 368	1	8	-0.104872	-34.7475	-14.2846	12.6036
 369	1	2	0.456145	-31.8033	-16.0829	19.0144
 370	1	2	0.550902	-33.7168	-16.9967	19.932
 371	1	1	0.015704	-32.4199	-16.5595	20.167
 372	1	5	-0.456801	-30.7084	-15.5626	18.8992
 373	1	5	-0.487703	-34.4965	-17.4978	20.7244
 374	1	3	-0.116566	-31.8065	-16.6124	21.451
 375	1	3	-0.050109	-31.4396	-17.8663	22.0051
 376	1	3	0.154929	-30.9044	-17.9111	23.3163
 377	1	3	0.041555	-31.6323	-15.4206	22.1966
 378	1	3	-0.223109	-31.0742	-15.4906	23.4803
 379	1	3	-0.080449	-30.7382	-16.722	24.06
 380	1	7	-0.108008	-32.0561	-14.0465	21.6829
 381	1	7	-0.182228	-30.1585	-16.7253	25.4681
 382	1	7	-0.345523	-31.7031	-19.1772	21.2372
 383	1	6	0.155183	-33.0805	-18.5728	14.5512
 384	1	6	0.172904	-36.0489	-16.2524	12.3378
 385	1	6	0.158028	-37.1155	-18.3434	11.5998
 386	1	6	0.153129	-35.952	-17.5057	18.1189
 387	1	6	0.142914	-35.8481	-17.0042	15.6888
 388	1	6	0.135531	-31.7807	-15.5167	16.187
 389	1	6	0.17765	-30.9297	-14.5703	24.0436
 390	1	12	0.046541	-32.3303	-13.3853	22.5118
 391	1	12	0.045238	-32.9269	-14.0949	21.0209
 392	1	12	0.051941	-31.2354	-13.5654	21.1351
 393	1	12	0.087961	-30.6864	-17.4211	26.1329
 394	1	12	0.066782	-30.2365	-15.7337	25.9315
 395	1	12	0.075908	-29.0946	-16.995	25.4505
 396	1	12	0.105172	-30.9515	-19.9527	21.4191
 397	1	12	0.115625	-31.6968	-19.0345	20.1528
 398	1	12	0.140296	-32.6851	-19.5923	21.5033
 399	1	3	-0.004194	-38.5746	-23.3944	21.7941
 400	1	3	-0.097141	-39.1079	-24.5556	22.4228
 401	1	3	-0.172015	-39.4629	-24.4767	23.7961
 402	1	5	-0.377994	-37.3059	-20.6408	21.082
 403	1	3	0.033493	-38.3325	-22.255	22.5636
 404	1	3	-0.063739	-39.2542	-23.2991	24.5435
 405	1	5	-0.398381	-38.4653	-20.4839	25.5711
 406	1	3	0.032144	-38.6602	-22.2094	23.9013
 407	1	2	0.032313	-37.6905	-20.9679	22.1922
 408	1	1	0.461698	-37.6477	-20.2306	23.373
 409	1	2	0.091945	-38.2508	-20.8923	24.4424
 410	1	3	-0.10563	-35.8688	-25.7157	19.8966
 411	1	7	-0.099376	-39.3577	-25.847	21.5928
 412	1	3	-0.043296	-38.2736	-25.8829	20.4821
 413	1	3	-0.073043	-36.8972	-25.8304	20.8533
 414	1	3	-0.117827	-36.2426	-25.6778	18.5503
 415	1	3	-0.037562	-38.5985	-25.8555	19.1042
 416	1	3	-0.083705	-37.5678	-25.7421	18.1761
 417	1	7	0.396	-39.215	-27.2034	22.3923
 418	1	7	0.310495	-40.8327	-25.7276	21.06
 419	1	8	-0.130298	-39.1079	-28.2688	21.5597
 420	1	8	-0.128745	-40.251	-27.4648	23.2178
 421	1	8	-0.120019	-38.111	-27.2125	23.1674
 422	1	8	-0.104287	-41.7288	-25.557	22.0657
 423	1	8	-0.095507	-41.2112	-26.8232	20.3649
 424	1	8	-0.104872	-40.9783	-24.6574	20.2431
 425	1	2	0.456145	-37.6585	-25.5646	16.7108
 426	1	2	0.550902	-35.4297	-25.4727	17.3223
 427	1	1	0.015704	-36.3536	-25.3664	16.2866
 428	1	5	-0.456801	-38.6861	-25.4768	16.0616
 429	1	5	-0.487703	-34.2136	-25.4208	17.2683
 430	1	3	-0.116566	-36.0408	-24.937	14.9673
 431	1	3	-0.050109	-35.8775	-23.559	14.6989
 432	1	3	0.154929	-35.5283	-23.1463	13.3888
 433	1	3	0.041555	-35.9508	-25.8823	13.9277
 434	1	3	-0.223109	-35.6414	-25.4533	12.629
 435	1	3	-0.080449	-35.4055	-24.099	12.3482
 436	1	7	-0.108008	-36.2	-27.3631	14.1888
 437	1	7	-0.182228	-34.9931	-23.7413	10.9222
 438	1	7	-0.345523	-36.0669	-22.5233	15.8202
 439	1	6	0.155183	-38.3208	-23.3695	20.7357
 440	1	6	0.172904	-39.9136	-25.3244	24.3026
 441	1	6	0.158028	-39.5136	-23.2404	25.5992
 442	1	6	0.153129	-34.8225	-25.625	20.1892
 443	1	6	0.142914	-36.6158	-25.8085	21.9017
 444	1	6	0.135531	-39.6142	-25.8831	18.7272
 445	1	6	0.17765	-35.5626	-26.1865	11.8308
 446	1	12	0.046541	-35.6537	-27.7128	15.0728
 447	1	12	0.045238	-35.8788	-27.98	13.3416
 448	1	12	0.051941	-37.2675	-27.5538	14.3533
 449	1	12	0.087961	-35.6094	-24.2821	10.1923
 450	1	12	0.066782	-33.9485	-24.0247	10.7421
 451	1	12	0.075908	-35.0971	-22.6776	10.6857
 452	1	12	0.105172	-36.5505	-21.6044	15.4663
 453	1	12	0.115625	-35.0941	-22.2543	16.2547
 454	1	12	0.140296	-36.6986	-22.8776	16.6419
 455	1	1	0.463107	-25.3746	-8.62332	25.8136
 456	1	2	0.061808	-25.9814	-7.68351	24.9844
 457	1	3	0.001427	-27.308	-7.43312	25.5935
 458	1	2	0.068581	-26.175	-8.99753	26.8852
 459	1	3	0.040836	-27.4138	-8.19837	26.734
 460	1	5	-0.386232	-25.6138	-7.29047	23.8917
 461	1	5	-0.391601	-26.0052	-9.91485	27.6707
 462	1	3	-0.001718	-28.355	-6.62079	25.1471
 463	1	3	-0.033153	-28.5797	-8.19434	27.4996
 464	1	3	-0.217995	-29.6673	-7.41948	27.043
 465	1	3	-0.067978	-29.588	-6.63677	25.8574
 466	1	6	0.155939	-28.189	-6.02766	24.2541
 467	1	6	0.152973	-28.6545	-8.80531	28.3958
 468	1	6	0.17647	-30.5905	-7.44506	27.6158
 469	1	7	-0.111335	-30.8513	-5.85235	25.3859
 470	1	7	0.291988	-30.7296	-5.3364	23.8958
 471	1	8	-0.108289	-31.9314	-5.01983	23.3704
 472	1	8	-0.102972	-30.2211	-6.2586	23.0466
 473	1	8	-0.103001	-29.9542	-4.23651	23.7966
 474	1	7	0.43552	-31.0202	-4.61908	26.359
 475	1	8	-0.137748	-29.8858	-3.88109	26.4317
 476	1	8	-0.132227	-31.3131	-4.98695	27.6293
 477	1	8	-0.124157	-32.0159	-3.79889	25.9566
 478	1	3	-0.009135	-32.0601	-6.83462	25.4016
 479	1	3	-0.073591	-31.9078	-8.07151	24.728
 480	1	3	-0.051923	-32.9359	-9.01566	24.7912
 481	1	3	-0.057717	-33.2974	-6.57859	26.0666
 482	1	3	-0.156758	-34.3183	-7.55205	26.1319
 483	1	3	-0.020332	-34.0942	-8.7826	25.5011
 484	1	2	0.469602	-34.8827	-10.0462	25.5079
 485	1	1	-0.076132	-34.172	-10.9364	24.7175
 486	1	2	0.458333	-32.982	-10.3975	24.2521
 487	1	3	-0.008032	-34.5856	-12.2774	24.4842
 488	1	3	-0.195997	-35.0349	-12.6411	23.2015
 489	1	3	-0.113065	-35.4812	-13.9517	22.9516
 490	1	3	0.271942	-34.5708	-13.2457	25.5105
 491	1	3	-0.220579	-34.9335	-14.5704	25.2284
 492	1	9	0.005883	-35.4258	-14.946	23.9555
 493	1	6	0.164552	-35.2377	-7.37162	26.6885
 494	1	6	0.136991	-33.476	-5.63742	26.5764
 495	1	6	0.136379	-30.9908	-8.32543	24.2069
 496	1	5	-0.461381	-32.1057	-10.9473	23.6069
 497	1	5	-0.471091	-35.7829	-10.3362	26.2762
 498	1	6	0.134736	-34.9161	-15.2971	26.031
 499	1	6	0.169495	-35.056	-11.9074	22.3985
 500	1	10	-0.554106	-34.2622	-12.9053	26.7967
 501	1	9	-0.02772	-35.9639	-16.3228	23.7294
 502	1	6	0.133194	-35.8469	-14.2167	21.9643
 503	1	3	-0.144307	-35.2554	-17.4619	24.1739
 504	1	3	0.023803	-35.7943	-18.7484	24.0211
 505	1	3	0.335896	-37.087	-18.9255	23.4693
 506	1	3	-0.53864	-37.81	-17.7911	23.0337
 507	1	3	-0.029171	-37.2423	-16.5094	23.1492
 508	1	6	0.130758	-37.8103	-15.6396	22.8248
 509	1	6	0.243773	-38.7963	-17.9071	22.6002
 510	1	6	0.131936	-34.271	-17.3374	24.6125
 511	1	10	-0.547641	-35.0336	-19.8236	24.3987
 512	1	11	0.436946	-34.7372	-12.0696	26.9787
 513	1	11	0.442856	-34.1626	-19.5188	24.7589
 514	1	1	0.463107	-8.41918	-18.1044	17.2826
 515	1	2	0.061808	-8.58863	-16.793	16.8392
 516	1	3	0.001427	-9.45235	-16.1589	17.8715
 517	1	2	0.068581	-8.98201	-18.3383	18.5333
 518	1	3	0.040836	-9.66727	-17.0711	18.886
 519	1	5	-0.386232	-8.24877	-16.2965	15.776
 520	1	5	-0.391601	-9.0776	-19.402	19.1218
 521	1	3	-0.001718	-10.0869	-14.9099	17.8629
 522	1	3	-0.033153	-10.5105	-16.7749	19.9613
 523	1	3	-0.217995	-11.1201	-15.5006	19.9942
 524	1	3	-0.067978	-10.9404	-14.553	18.9453
 525	1	6	0.155939	-9.90307	-14.2479	17.0227
 526	1	6	0.152973	-10.6853	-17.5098	20.7421
 527	1	6	0.17647	-11.7554	-15.253	20.8416
 528	1	7	-0.111335	-11.6488	-13.1607	19.0427
 529	1	7	0.291988	-11.7563	-12.3964	17.675
 530	1	8	-0.108289	-12.2601	-13.1742	16.6888
 531	1	8	-0.102972	-10.578	-11.9064	17.2386
 532	1	8	-0.103001	-12.5842	-11.3337	17.8003
 533	1	7	0.43552	-10.8115	-12.2871	20.0524
 534	1	8	-0.137748	-9.4749	-12.3712	19.8363
 535	1	8	-0.132227	-11.0289	-12.706	21.3191
 536	1	8	-0.124157	-11.121	-10.9696	20.0022
 537	1	3	-0.009135	-13.1323	-13.3501	19.483
 538	1	3	-0.073591	-13.8312	-12.433	20.3241
 539	1	3	-0.051923	-15.2089	-12.6156	20.5334
 540	1	3	-0.057717	-13.8701	-14.4184	18.9045
 541	1	3	-0.156758	-15.2504	-14.5843	19.136
 542	1	3	-0.020332	-15.9029	-13.65	19.9463
 543	1	2	0.469602	-17.336	-13.5403	20.3443
 544	1	1	-0.076132	-17.4244	-12.4556	21.2127
 545	1	2	0.458333	-16.1827	-11.8161	21.328
 546	1	3	-0.008032	-18.5892	-12.083	21.9861
 547	1	3	-0.195997	-18.3819	-11.6411	23.318
 548	1	3	-0.113065	-19.4362	-11.1818	24.1244
 549	1	3	0.271942	-19.9279	-12.1106	21.5008
 550	1	3	-0.220579	-20.9715	-11.6406	22.3161
 551	1	9	0.005883	-20.7527	-11.1576	23.6311
 552	1	6	0.164552	-15.8022	-15.4034	18.6781
 553	1	6	0.136991	-13.3775	-15.1171	18.2356
 554	1	6	0.136379	-13.3485	-11.5767	20.7838
 555	1	5	-0.461381	-15.8962	-10.8299	21.9895
 556	1	5	-0.471091	-18.2328	-14.2887	19.9939
 557	1	6	0.134736	-21.9737	-11.6274	21.9017
 558	1	6	0.169495	-17.3811	-11.6316	23.743
 559	1	10	-0.554106	-20.2715	-12.5479	20.2511
 560	1	9	-0.02772	-21.8812	-10.5962	24.4347
 561	1	6	0.133194	-19.2348	-10.8398	25.136
 562	1	3	-0.144307	-21.7782	-9.34395	25.1018
 563	1	3	0.023803	-22.9332	-8.68636	25.5782
 564	1	3	0.335896	-24.1912	-9.31553	25.4553
 565	1	3	-0.53864	-24.2798	-10.6146	24.9134
 566	1	3	-0.029171	-23.1371	-11.242	24.4019
 567	1	6	0.130758	-23.2305	-12.2094	23.9108
 568	1	6	0.243773	-25.247	-11.108	24.8312
 569	1	6	0.131936	-20.82	-8.83557	25.1329
 570	1	10	-0.547641	-22.8585	-7.40424	26.0622
 571	1	11	0.436946	-19.574	-13.1771	19.9502
 572	1	11	0.442856	-21.9524	-7.06011	25.9456
 573	1	1	0.463107	-11.0163	-25.1606	4.15594
 574	1	2	0.061808	-10.7518	-26.51	4.42601
 575	1	3	0.001427	-9.26019	-26.6258	4.45302
 576	1	2	0.068581	-9.85305	-24.4281	3.9466
 577	1	3	0.040836	-8.7381	-25.3815	4.1732
 578	1	5	-0.386232	-11.5455	-27.3953	4.69853
 579	1	5	-0.391601	-9.7472	-23.2368	3.70651
 580	1	3	-0.001718	-8.43109	-27.7006	4.82915
 581	1	3	-0.033153	-7.36721	-25.1355	4.24538
 582	1	3	-0.217995	-6.52544	-26.1878	4.65242
 583	1	3	-0.067978	-7.02644	-27.4803	4.96951
 584	1	6	0.155939	-8.90337	-28.6472	5.06922
 585	1	6	0.152973	-6.97845	-24.1359	4.05494
 586	1	6	0.17647	-5.47112	-25.9604	4.78278
 587	1	7	-0.111335	-6.02533	-28.5069	5.60696
 588	1	7	0.291988	-6.70473	-29.8623	6.03918
 589	1	8	-0.108289	-7.18671	-30.5539	4.98142
 590	1	8	-0.102972	-7.71842	-29.6598	6.90822
 591	1	8	-0.103001	-5.85015	-30.6902	6.68303
 592	1	7	0.43552	-4.90806	-28.8366	4.53126
 593	1	8	-0.137748	-4.19087	-29.9539	4.79694
 594	1	8	-0.132227	-4.00904	-27.8345	4.39821
 595	1	8	-0.124157	-5.45045	-29.0214	3.30844
 596	1	3	-0.009135	-5.46961	-27.8349	6.9027
 597	1	3	-0.073591	-6.35181	-27.0679	7.70924
 598	1	3	-0.051923	-5.86229	-26.4273	8.85126
 599	1	3	-0.057717	-4.11538	-27.9553	7.32882
 600	1	3	-0.156758	-3.63584	-27.2778	8.47254
 601	1	3	-0.020332	-4.53797	-26.506	9.2127
 602	1	2	0.469602	-4.33722	-25.6568	10.4195
 603	1	1	-0.076132	-5.58328	-25.1218	10.7221
 604	1	2	0.458333	-6.56061	-25.5588	9.83141
 605	1	3	-0.008032	-5.83223	-24.1965	11.7843
 606	1	3	-0.195997	-6.94819	-24.4016	12.6185
 607	1	3	-0.113065	-7.29973	-23.45	13.5884
 608	1	3	0.271942	-5.05913	-23.0216	11.9617
 609	1	3	-0.220579	-5.43202	-22.0627	12.9142
 610	1	9	0.005883	-6.56312	-22.2497	13.7427
 611	1	6	0.164552	-2.59323	-27.346	8.77196
 612	1	6	0.136991	-3.41079	-28.5601	6.76673
 613	1	6	0.136379	-7.40829	-26.962	7.45657
 614	1	5	-0.461381	-7.75537	-25.316	9.83358
 615	1	5	-0.471091	-3.27384	-25.4043	10.9599
 616	1	6	0.134736	-4.84965	-21.1494	12.9886
 617	1	6	0.169495	-7.56773	-25.2886	12.4962
 618	1	10	-0.554106	-3.94132	-22.7727	11.2195
 619	1	9	-0.02772	-7.01447	-21.1931	14.7035
 620	1	6	0.133194	-8.17059	-23.6337	14.2123
 621	1	3	-0.144307	-6.10258	-20.3564	15.398
 622	1	3	0.023803	-6.56291	-19.354	16.2709
 623	1	3	0.335896	-7.94857	-19.1581	16.4549
 624	1	3	-0.53864	-8.86481	-20.0049	15.7922