pySIMM System Object

861 atoms
942 bonds
1630 angles
2486 dihedrals
254 impropers

12 atom types
15 bond types
24 angle types
10 dihedral types
4 improper types

-124.824249 124.824249 xlo xhi
-124.824249 124.824249 ylo yhi
-124.824249 124.824249 zlo zhi

Masses

   1	14.01	# n
   2	12.01	# c
   3	12.01	# ca
   4	1.008	# hn
   5	16.0	# o
   6	1.008	# ha
   7	12.01	# c3
   8	19.0	# f
   9	12.01	# cp
  10	16.0	# oh
  11	1.008	# ho
  12	1.008	# hc

Pair Coeffs

   1	0.17	3.249998523775958	# n
   2	0.086	3.3996695084235347	# c
   3	0.086	3.3996695084235347	# ca
   4	0.0157	1.069078461768407	# hn
   5	0.21	2.959921901149463	# o
   6	0.015	2.59964245953351	# ha
   7	0.1094	3.3996695084235347	# c3
   8	0.061	3.1181455134911875	# f
   9	0.086	3.3996695084235347	# cp
  10	0.2104	3.0664733878390478	# oh
  11	0.0047	0.5379246460131368	# ho
  12	0.0157	2.649532787749369	# hc

Bond Coeffs

   1	403.2	1.0129	# hn,n
   2	356.9	1.3497	# c3,f
   3	384.2	1.4121	# ca,n
   4	450.2	1.4058	# ca,cp
   5	371.4	0.973	# ho,oh
   6	461.1	1.3984	# ca,ca
   7	427.6	1.3789	# c,n
   8	321.0	1.5156	# c3,ca
   9	384.0	1.3637	# ca,oh
  10	345.9	1.4906	# c,ca
  11	345.8	1.086	# ca,ha
  12	637.7	1.2183	# c,o
  13	300.9	1.5375	# c3,c3
  14	351.4	1.4854	# cp,cp
  15	330.6	1.0969	# c3,hc

Angle Coeffs

   1	63.53	120.77	# c3,ca,ca
   2	70.89	107.36	# f,c3,f
   3	67.87	120.19	# ca,ca,n
   4	66.72	118.38	# ca,cp,ca
   5	66.11	109.24	# c3,c3,f
   6	49.0	108.58	# ca,oh,ho
   7	62.86	111.51	# c3,c3,c3
   8	63.15	112.07	# c3,c3,ca
   9	66.26	120.69	# ca,ca,cp
  10	63.56	112.24	# ca,c3,ca
  11	63.82	123.71	# c,n,ca
  12	69.52	119.9	# ca,ca,oh
  13	63.74	127.08	# c,n,c
  14	48.18	119.88	# ca,ca,ha
  15	74.22	123.05	# n,c,o
  16	64.05	121.11	# ca,cp,cp
  17	66.62	120.02	# ca,ca,ca
  18	68.72	122.6	# ca,c,o
  19	67.68	115.25	# ca,c,n
  20	48.33	117.55	# c,n,hn
  21	64.28	120.33	# c,ca,ca
  22	47.98	119.86	# cp,ca,ha
  23	39.4	107.58	# hc,c3,hc
  24	46.8	110.47	# ca,c3,hc

Dihedral Coeffs

   1	1	0.15555555555555556	3	0	# X,c3,c3,X
   2	1	1.0	2	180	# X,cp,cp,X
   3	1	0.0	2	0	# X,c3,ca,X
   4	1	1.0	2	180	# X,c,ca,X
   5	1	2.5	2	180	# X,c,n,X
   6	1	0.45	2	180	# X,ca,n,X
   7	1	3.625	2	180	# X,ca,cp,X
   8	1	0.9	2	180	# X,ca,oh,X
   9	2	2.5	2	180	2.0	1	0	# hn,n,c,o
  10	1	3.625	2	180	# X,ca,ca,X

Improper Coeffs

   1	1.1	-1	2	# ca,ca,ca,c3
   2	1.1	-1	2	# n,X,X,hn
   3	1.1	-1	2	# ca,X,X,ha
   4	10.5	-1	2	# c,X,X,o

Atoms

   1	1	1	0.463107	-18.9391	27.8782	-3.29354
   2	1	2	0.061808	-19.9391	28.6232	-2.68097
   3	1	3	0.001427	-19.2354	29.8652	-2.39867
   4	1	2	0.068581	-17.7102	28.4755	-3.36993
   5	1	3	0.040836	-17.944	29.8321	-2.88983
   6	1	5	-0.386232	-21.1135	28.3877	-2.45402
   7	1	5	-0.391601	-16.7625	28.0417	-3.98999
   8	1	3	-0.001718	-19.7996	31.0107	-1.86181
   9	1	3	-0.033153	-17.138	30.975	-2.91026
  10	1	3	-0.217995	-17.7188	32.1661	-2.4394
  11	1	3	-0.067978	-19.0222	32.2042	-1.88503
  12	1	6	0.155939	-20.8119	30.9512	-1.46055
  13	1	6	0.152973	-16.1144	30.9436	-3.29747
  14	1	6	0.17647	-17.1319	33.0606	-2.49956
  15	1	7	-0.111335	-19.5723	33.6093	-1.53216
  16	1	7	0.291988	-19.8168	34.3643	-2.9197
  17	1	8	-0.108289	-20.5841	33.5879	-3.71408
  18	1	8	-0.102972	-18.7082	34.6508	-3.706
  19	1	8	-0.103001	-20.5694	35.4734	-2.67986
  20	1	7	0.43552	-20.9443	33.56	-0.72603
  21	1	8	-0.137748	-21.9821	33.0724	-1.43011
  22	1	8	-0.132227	-21.3093	34.768	-0.218037
  23	1	8	-0.124157	-20.949	32.6969	0.286927
  24	1	3	-0.009135	-18.5033	34.406	-0.685508
  25	1	3	-0.073591	-17.7643	35.5237	-1.15606
  26	1	3	-0.051923	-16.6366	35.9803	-0.456635
  27	1	3	-0.057717	-18.1022	33.8952	0.584443
  28	1	3	-0.156758	-16.9211	34.3084	1.26753
  29	1	3	-0.020332	-16.1748	35.349	0.690761
  30	1	2	0.469602	-14.8357	35.965	1.00824
  31	1	1	-0.076132	-14.6587	36.9552	0.0403576
  32	1	2	0.458333	-15.7379	37.0952	-0.826848
  33	1	3	-0.008032	-13.5779	37.8597	0.00624665
  34	1	3	-0.195997	-13.8816	39.2339	-0.0299816
  35	1	3	-0.113065	-12.8329	40.159	-0.120729
  36	1	3	0.271942	-12.2444	37.4533	-0.118109
  37	1	3	-0.220579	-11.2116	38.387	-0.238676
  38	1	9	0.005883	-11.5005	39.7578	-0.284889
  39	1	6	0.164552	-16.564	33.7919	2.15388
  40	1	6	0.136991	-18.6195	33.038	1.00624
  41	1	6	0.136379	-18.0325	36.0466	-2.07089
  42	1	5	-0.461381	-16.0066	37.9865	-1.63458
  43	1	5	-0.471091	-14.0363	35.5459	1.84115
  44	1	6	0.134736	-10.2106	38.0403	-0.370419
  45	1	6	0.169495	-14.9034	39.599	-0.0140645
  46	1	10	-0.554106	-11.9601	36.1464	-0.18454
  47	1	9	-0.02772	-10.4343	40.7396	-0.526347
  48	1	6	0.133194	-13.0531	41.2082	-0.12204
  49	1	3	-0.144307	-9.15214	40.4416	-0.0110373
  50	1	3	0.023803	-8.12748	41.3902	-0.066925
  51	1	3	0.335896	-8.35461	42.5953	-0.779306
  52	1	3	-0.53864	-9.58695	42.8691	-1.38544
  53	1	3	-0.029171	-10.6417	41.9534	-1.23591
  54	1	6	0.130758	-11.6068	42.1704	-1.69515
  55	1	6	0.243773	-9.68936	43.7838	-1.93193
  56	1	6	0.131936	-9.00335	39.5169	0.54913
  57	1	10	-0.547641	-6.94632	41.1945	0.52966
  58	1	11	0.436946	-12.4528	35.7144	0.564942
  59	1	11	0.442856	-7.06425	40.5364	1.20513
  60	1	3	-0.004194	-20.9266	22.6259	2.70855
  61	1	3	-0.097141	-22.3271	22.3488	2.86183
  62	1	3	-0.172015	-23.1962	23.3448	3.42584
  63	1	5	-0.377994	-18.0379	23.6896	2.84342
  64	1	3	0.033493	-20.4515	23.8379	3.16045
  65	1	3	-0.063739	-22.662	24.56	3.95054
  66	1	5	-0.398381	-20.8549	26.886	4.80216
  67	1	3	0.032144	-21.2804	24.7549	3.79201
  68	1	2	0.032313	-19.0444	24.3338	3.15492
  69	1	1	0.461698	-19.1351	25.5497	3.8564
  70	1	2	0.091945	-20.4445	25.8647	4.27232
  71	1	3	-0.10563	-20.5199	20.2658	-0.72042
  72	1	7	-0.099376	-22.8465	20.9864	2.29188
  73	1	3	-0.043296	-22.2947	20.9889	0.844595
  74	1	3	-0.073043	-21.3336	20.0257	0.409201
  75	1	3	-0.117827	-20.7768	21.4101	-1.48298
  76	1	3	-0.037562	-22.5159	22.1272	0.00835786
  77	1	3	-0.083705	-21.7426	22.3158	-1.11491
  78	1	7	0.396	-22.3262	19.818	3.22825
  79	1	7	0.310495	-24.4266	20.8805	2.18213
  80	1	8	-0.130298	-22.8036	19.9347	4.47119
  81	1	8	-0.128745	-20.9906	19.9039	3.39634
  82	1	8	-0.120019	-22.5799	18.5451	2.82867
  83	1	8	-0.104287	-25.0046	21.8908	1.50077
  84	1	8	-0.095507	-25.0441	20.808	3.37358
  85	1	8	-0.104872	-24.7664	19.7588	1.51115
  86	1	2	0.456145	-21.6785	23.5314	-1.95951
  87	1	2	0.550902	-19.9387	22.1046	-2.48725
  88	1	1	0.015704	-20.5707	23.315	-2.73654
  89	1	5	-0.456801	-22.3935	24.5165	-1.82682
  90	1	5	-0.487703	-18.8036	21.7891	-2.78703
  91	1	3	-0.116566	-20.0852	24.3422	-3.57954
  92	1	3	-0.050109	-19.4529	25.471	-3.04247
  93	1	3	0.154929	-19.2809	26.6305	-3.85822
  94	1	3	0.041555	-20.5005	24.3778	-4.9154
  95	1	3	-0.223109	-20.2198	25.4891	-5.74649
  96	1	3	-0.080449	-19.6665	26.6563	-5.22616
  97	1	7	-0.108008	-21.3242	23.2321	-5.48084
  98	1	7	-0.182228	-19.5799	27.8663	-6.14522
  99	1	7	-0.345523	-19.0963	25.5036	-1.54875
 100	1	6	0.155183	-20.2083	21.9165	2.31133
 101	1	6	0.172904	-24.2714	23.1632	3.51075
 102	1	6	0.158028	-23.2762	25.3055	4.42901
 103	1	6	0.153129	-19.6539	19.6549	-0.918125
 104	1	6	0.142914	-21.0882	19.1373	1.00458
 105	1	6	0.135531	-23.1841	22.9457	0.29839
 106	1	6	0.17765	-20.5167	25.4713	-6.78503
 107	1	12	0.046541	-21.4848	23.4255	-6.56657
 108	1	12	0.045238	-22.3285	23.2029	-5.01942
 109	1	12	0.051941	-20.8336	22.2543	-5.33115
 110	1	12	0.087961	-19.6943	27.5639	-7.20439
 111	1	12	0.066782	-18.6319	28.4139	-6.06635
 112	1	12	0.075908	-20.4042	28.5581	-5.92981
 113	1	12	0.105172	-18.4921	26.3732	-1.29672
 114	1	12	0.115625	-18.4819	24.6448	-1.29197
 115	1	12	0.140296	-19.9783	25.5073	-0.894443
 116	1	3	-0.004194	-10.3785	33.1164	-1.40417
 117	1	3	-0.097141	-11.2698	32.1401	-0.882069
 118	1	3	-0.172015	-11.5927	32.1706	0.50859
 119	1	5	-0.377994	-8.27007	35.4895	-1.76613
 120	1	3	0.033493	-9.76972	34.024	-0.537338
 121	1	3	-0.063739	-11.0422	33.1587	1.34214
 122	1	5	-0.398381	-8.99876	34.9383	2.76342
 123	1	3	0.032144	-10.0557	33.9851	0.798508
 124	1	2	0.032313	-8.64405	35.0145	-0.716364
 125	1	1	0.461698	-8.23601	35.3992	0.570179
 126	1	2	0.091945	-9.08742	34.8484	1.53313
 127	1	3	-0.10563	-15.373	31.5619	-0.249113
 128	1	7	-0.099376	-11.8383	30.997	-1.76739
 129	1	3	-0.043296	-13.2316	30.691	-1.11886
 130	1	3	-0.073043	-14.226	31.7106	-1.01453
 131	1	3	-0.117827	-15.5478	30.3659	0.443961
 132	1	3	-0.037562	-13.5046	29.4763	-0.47211
 133	1	3	-0.083705	-14.641	29.3426	0.303078
 134	1	7	0.396	-10.8621	29.7527	-1.68817
 135	1	7	0.310495	-12.1162	31.3947	-3.27977
 136	1	8	-0.130298	-10.6113	29.3386	-0.387319
 137	1	8	-0.128745	-11.3637	28.7345	-2.42437
 138	1	8	-0.120019	-9.60919	29.9486	-2.18689
 139	1	8	-0.104287	-13.1735	30.6881	-3.72435
 140	1	8	-0.095507	-12.4217	32.722	-3.32373
 141	1	8	-0.104872	-11.0432	31.2297	-4.092
 142	1	2	0.456145	-14.9728	28.3248	1.29799
 143	1	2	0.550902	-16.554	30.0569	1.51721
 144	1	1	0.015704	-16.0822	28.8114	1.97636
 145	1	5	-0.456801	-14.3236	27.3377	1.56383
 146	1	5	-0.487703	-17.418	30.8277	1.98172
 147	1	3	-0.116566	-16.5926	28.1719	3.13492
 148	1	3	-0.050109	-17.6398	27.2458	2.9954
 149	1	3	0.154929	-18.057	26.4445	4.08721
 150	1	3	0.041555	-15.9495	28.31	4.3775
 151	1	3	-0.223109	-16.4436	27.603	5.49359
 152	1	3	-0.080449	-17.5242	26.6924	5.38536
 153	1	7	-0.108008	-14.7492	29.2308	4.56819
 154	1	7	-0.182228	-18.1448	26.0712	6.64045
 155	1	7	-0.345523	-18.3777	27.1783	1.64387
 156	1	6	0.155183	-10.1294	33.1189	-2.46803
 157	1	6	0.172904	-12.2732	31.4604	0.954573
 158	1	6	0.158028	-11.2858	33.195	2.40378
 159	1	6	0.153129	-16.0355	32.3848	-0.107677
 160	1	6	0.142914	-14.1054	32.6696	-1.53804
 161	1	6	0.135531	-12.8076	28.6635	-0.42558
 162	1	6	0.17765	-16.0503	27.8529	6.47562
 163	1	12	0.046541	-13.8288	28.6864	4.79591
 164	1	12	0.045238	-14.9648	29.9264	5.38933
 165	1	12	0.051941	-14.5853	29.8842	3.69886
 166	1	12	0.087961	-17.585	25.1986	6.94617
 167	1	12	0.066782	-19.1607	25.7395	6.48606
 168	1	12	0.075908	-18.1694	26.7812	7.48103
 169	1	12	0.105172	-18.2954	28.0884	1.04003
 170	1	12	0.115625	-19.4565	27.1083	1.78945
 171	1	12	0.140296	-18.0579	26.3366	1.01942
 172	1	1	0.463107	-1.92989	26.538	12.6236
 173	1	2	0.061808	-2.3235	27.811	12.205
 174	1	3	0.001427	-1.12451	28.6607	12.4682
 175	1	2	0.068581	-0.625578	26.4658	13.1357
 176	1	3	0.040836	-0.136365	27.8552	13.0071
 177	1	5	-0.386232	-3.40187	28.164	11.7824
 178	1	5	-0.391601	0.030648	25.5059	13.5211
 179	1	3	-0.001718	-0.856821	30.0114	12.1351
 180	1	3	-0.033153	1.09264	28.4083	13.4271
 181	1	3	-0.217995	1.35039	29.7847	13.1805
 182	1	3	-0.067978	0.42576	30.5855	12.4493
 183	1	6	0.155939	-1.62335	30.5934	11.6245
 184	1	6	0.152973	1.83133	27.7645	13.9023
 185	1	6	0.17647	2.2966	30.1924	13.5089
 186	1	7	-0.111335	0.802619	32.061	12.0868
 187	1	7	0.291988	2.35921	32.3142	11.9545
 188	1	8	-0.108289	2.98634	31.2272	11.39
 189	1	8	-0.102972	2.98415	32.5958	13.1128
 190	1	8	-0.103001	2.66025	33.3594	11.1515
 191	1	7	0.43552	0.237402	33.0712	13.1843
 192	1	8	-0.137748	0.673666	34.3519	12.9093
 193	1	8	-0.132227	0.613907	32.7576	14.4349
 194	1	8	-0.124157	-1.12319	33.0542	13.2312
 195	1	3	-0.009135	0.302815	32.2874	10.6373
 196	1	3	-0.073591	-0.493071	33.4043	10.2846
 197	1	3	-0.051923	-0.819374	33.6196	8.95754
 198	1	3	-0.057717	0.682451	31.3746	9.59197
 199	1	3	-0.156758	0.372583	31.6381	8.24565
 200	1	3	-0.020332	-0.353813	32.7827	7.96514
 201	1	2	0.469602	-0.777198	33.3524	6.66242
 202	1	1	-0.076132	-1.51656	34.5049	6.96765
 203	1	2	0.458333	-1.59564	34.7224	8.33162
 204	1	3	-0.008032	-2.24433	35.3209	6.02713
 205	1	3	-0.195997	-3.58758	35.6914	6.31012
 206	1	3	-0.113065	-4.39366	36.2184	5.30854
 207	1	3	0.271942	-1.70762	35.6137	4.74695
 208	1	3	-0.220579	-2.57626	36.0021	3.72394
 209	1	9	0.005883	-3.93296	36.2668	3.99098
 210	1	6	0.164552	0.678708	31.0057	7.42693
 211	1	6	0.136991	1.24394	30.4737	9.81023
 212	1	6	0.136379	-0.832175	34.1205	11.027
 213	1	5	-0.461381	-2.08464	35.7015	8.87443
 214	1	5	-0.471091	-0.401878	33.0252	5.54561
 215	1	6	0.134736	-2.2208	36.0972	2.71653
 216	1	6	0.169495	-4.03495	35.5018	7.27014
 217	1	10	-0.554106	-0.390923	35.4193	4.4313
 218	1	9	-0.02772	-4.88846	36.3495	2.88943
 219	1	6	0.133194	-5.40974	36.5006	5.54172
 220	1	3	-0.144307	-4.74826	35.4024	1.86708
 221	1	3	0.023803	-5.77986	35.2456	0.936682
 222	1	3	0.335896	-6.97906	36.0165	0.978263
 223	1	3	-0.53864	-7.04321	37.0423	1.93618
 224	1	3	-0.029171	-6.02167	37.1961	2.88812
 225	1	6	0.130758	-6.10096	37.9919	3.624
 226	1	6	0.243773	-7.97779	37.5769	2.07813
 227	1	6	0.131936	-3.98005	34.6272	1.95161
 228	1	10	-0.547641	-5.74544	34.1499	0.143906
 229	1	11	0.436946	-0.104253	34.5667	4.86667
 230	1	11	0.442856	-4.96245	33.6021	0.336313
 231	1	3	-0.004194	-7.12496	23.0823	4.21866
 232	1	3	-0.097141	-8.42018	22.7661	4.7479
 233	1	3	-0.172015	-9.47957	23.7046	4.56873
 234	1	5	-0.377994	-4.67993	24.1109	2.84341
 235	1	3	0.033493	-6.94861	24.2429	3.44497
 236	1	3	-0.063739	-9.2798	24.8217	3.72384
 237	1	5	-0.398381	-8.18414	27.019	1.78021
 238	1	3	0.032144	-8.01635	25.0425	3.13942
 239	1	2	0.032313	-5.73647	24.7017	2.71089
 240	1	1	0.461698	-6.20907	25.7239	1.86263
 241	1	2	0.091945	-7.52021	26.0795	2.18811
 242	1	3	-0.10563	-5.43788	20.3927	7.79155
 243	1	7	-0.099376	-8.52446	21.4668	5.58211
 244	1	3	-0.043296	-7.34364	21.4723	6.59618
 245	1	3	-0.073043	-6.48875	20.3648	6.83458
 246	1	3	-0.117827	-5.18919	21.6017	8.47429
 247	1	3	-0.037562	-7.14786	22.6097	7.40888
 248	1	3	-0.083705	-6.06716	22.6524	8.31311
 249	1	7	0.396	-8.54879	20.2323	4.61064
 250	1	7	0.310495	-9.84912	21.4368	6.42083
 251	1	8	-0.130298	-9.5606	20.1948	3.76216
 252	1	8	-0.128745	-8.64476	19.077	5.23338
 253	1	8	-0.120019	-7.4644	20.2039	3.83025
 254	1	8	-0.104287	-9.97241	20.324	7.17923
 255	1	8	-0.095507	-10.9507	21.392	5.66554
 256	1	8	-0.104872	-9.99818	22.5042	7.20964
 257	1	2	0.456145	-5.75081	23.6768	9.35639
 258	1	2	0.550902	-4.2264	21.9718	9.54014
 259	1	1	0.015704	-4.62562	23.2125	10.0311
 260	1	5	-0.456801	-6.46029	24.6062	9.70675
 261	1	5	-0.487703	-3.31056	21.2877	9.93314
 262	1	3	-0.116566	-4.12099	23.7938	11.2503
 263	1	3	-0.050109	-3.14979	24.837	11.2615
 264	1	3	0.154929	-2.80829	25.4174	12.5115
 265	1	3	0.041555	-4.67186	23.2742	12.4575
 266	1	3	-0.223109	-4.35544	23.8922	13.6755
 267	1	3	-0.080449	-3.40884	24.932	13.6952
 268	1	7	-0.108008	-5.78073	22.2169	12.4652
 269	1	7	-0.182228	-3.19873	25.5882	15.0436
 270	1	7	-0.345523	-2.45703	25.2792	9.93545
 271	1	6	0.155183	-6.25156	22.4365	4.34229
 272	1	6	0.172904	-10.4517	23.5984	5.01464
 273	1	6	0.158028	-10.092	25.5027	3.49391
 274	1	6	0.153129	-4.80229	19.5084	7.92317
 275	1	6	0.142914	-6.61648	19.4585	6.26997
 276	1	6	0.135531	-7.81464	23.4612	7.36221
 277	1	6	0.17765	-4.85829	23.6148	14.595
 278	1	12	0.046541	-5.42744	21.2423	12.0423
 279	1	12	0.045238	-6.6382	22.5701	11.8693
 280	1	12	0.051941	-6.13594	21.996	13.4614
 281	1	12	0.087961	-3.90862	26.4176	15.1409
 282	1	12	0.066782	-2.1764	25.997	15.2093
 283	1	12	0.075908	-3.37737	24.856	15.8633
 284	1	12	0.105172	-1.53109	24.6947	9.81014
 285	1	12	0.115625	-2.20152	26.3532	9.90742
 286	1	12	0.140296	-3.08487	25.156	9.04721
 287	1	1	0.463107	6.86174	25.9255	-12.5828
 288	1	2	0.061808	7.32648	27.0619	-11.9445
 289	1	3	0.001427	6.0823	27.8048	-11.6623
 290	1	2	0.068581	5.49358	25.947	-12.8539
 291	1	3	0.040836	5.00408	27.1943	-12.2212
 292	1	5	-0.386232	8.43808	27.252	-11.4689
 293	1	5	-0.391601	4.86595	25.0961	-13.4328
 294	1	3	-0.001718	5.90814	28.9975	-10.9283
 295	1	3	-0.033153	3.69026	27.6829	-12.0475
 296	1	3	-0.217995	3.53257	28.8004	-11.1964
 297	1	3	-0.067978	4.61563	29.4942	-10.618
 298	1	6	0.155939	6.79733	29.4869	-10.5179
 299	1	6	0.152973	2.88442	27.1213	-12.4433
 300	1	6	0.17647	2.52243	29.0727	-10.8926
 301	1	7	-0.111335	4.24288	30.5144	-9.48682
 302	1	7	0.291988	5.43255	31.11	-8.63889
 303	1	8	-0.108289	6.05251	32.0568	-9.3613
 304	1	8	-0.102972	6.393	30.2318	-8.26716
 305	1	8	-0.103001	5.00258	31.6445	-7.47826
 306	1	7	0.43552	3.53684	31.764	-10.1571
 307	1	8	-0.137748	2.317	31.4761	-10.6008
 308	1	8	-0.132227	4.18767	32.2567	-11.2418
 309	1	8	-0.124157	3.33976	32.7849	-9.28554
 310	1	3	-0.009135	3.40375	29.6764	-8.44813
 311	1	3	-0.073591	2.13947	30.0864	-7.91951
 312	1	3	-0.051923	1.50598	29.2611	-6.94673
 313	1	3	-0.057717	3.96925	28.4843	-7.94193
 314	1	3	-0.156758	3.33586	27.7045	-6.9691
 315	1	3	-0.020332	2.08842	28.0983	-6.48583
 316	1	2	0.469602	1.09078	27.4043	-5.62706
 317	1	1	-0.076132	-0.024166	28.2497	-5.50538
 318	1	2	0.458333	0.131936	29.3671	-6.3271
 319	1	3	-0.008032	-1.20685	27.9805	-4.72355
 320	1	3	-0.195997	-1.87056	28.9775	-3.98948
 321	1	3	-0.113065	-2.8553	28.6444	-3.03072
 322	1	3	0.271942	-1.71218	26.6609	-4.64212
 323	1	3	-0.220579	-2.7414	26.3659	-3.74977
 324	1	9	0.005883	-3.25052	27.3073	-2.8352
 325	1	6	0.164552	3.75493	26.7544	-6.6989
 326	1	6	0.136991	4.90407	28.0951	-8.32982
 327	1	6	0.136379	1.66869	31.0307	-8.16239
 328	1	5	-0.461381	-0.708474	30.2483	-6.47365
 329	1	5	-0.471091	1.23116	26.3553	-5.02824
 330	1	6	0.134736	-3.06031	25.3437	-3.67834
 331	1	6	0.169495	-1.51452	29.9967	-4.04744
 332	1	10	-0.554106	-1.21066	25.5605	-5.32259
 333	1	9	-0.02772	-4.10832	26.9325	-1.64325
 334	1	6	0.133194	-3.2977	29.445	-2.43674
 335	1	3	-0.144307	-4.98302	25.8137	-1.60301
 336	1	3	0.023803	-5.70377	25.44	-0.463358
 337	1	3	0.335896	-5.52586	26.2102	0.707599
 338	1	3	-0.53864	-4.70479	27.3475	0.733448
 339	1	3	-0.029171	-3.9863	27.6764	-0.439998
 340	1	6	0.130758	-3.27098	28.4955	-0.388489
 341	1	6	0.243773	-4.58138	27.9153	1.64292
 342	1	6	0.131936	-5.07397	25.2028	-2.49437
 343	1	10	-0.547641	-6.53106	24.3382	-0.549534
 344	1	11	0.436946	-0.22996	25.5662	-5.19881
 345	1	11	0.442856	-6.47685	23.9341	-1.44385
 346	1	1	0.463107	15.7302	11.3518	-24.3623
 347	1	2	0.061808	14.3405	11.2688	-24.1928
 348	1	3	0.001427	14.0923	11.7524	-22.7976
 349	1	2	0.068581	16.3823	11.6559	-23.1722
 350	1	3	0.040836	15.3054	11.9306	-22.1934
 351	1	5	-0.386232	13.4876	10.9477	-25.0167
 352	1	5	-0.391601	17.539	11.9995	-22.9673
 353	1	3	-0.001718	12.8896	12.0231	-22.1323
 354	1	3	-0.033153	15.4397	12.4367	-20.8884
 355	1	3	-0.217995	14.2629	12.7669	-20.2253
 356	1	3	-0.067978	12.9813	12.6107	-20.8189
 357	1	6	0.155939	11.9621	11.8491	-22.6628
 358	1	6	0.152973	16.4087	12.5494	-20.4269
 359	1	6	0.17647	14.3154	13.2482	-19.2311
 360	1	7	-0.111335	11.7693	12.9786	-19.9886
 361	1	7	0.291988	11.6594	11.9183	-18.8145
 362	1	8	-0.108289	11.7773	10.6232	-19.2337
 363	1	8	-0.102972	12.6156	11.9875	-17.8424
 364	1	8	-0.103001	10.4763	12.0222	-18.1977
 365	1	7	0.43552	10.4552	13.0729	-20.8555
 366	1	8	-0.137748	10.5519	13.98	-21.8863
 367	1	8	-0.132227	9.36008	13.5002	-20.194
 368	1	8	-0.124157	10.0347	11.9059	-21.4057
 369	1	3	-0.009135	12.0248	14.43	-19.5012
 370	1	3	-0.073591	11.5589	14.8535	-18.2193
 371	1	3	-0.051923	11.8642	16.1808	-17.8278
 372	1	3	-0.057717	12.7065	15.3686	-20.3121
 373	1	3	-0.156758	12.976	16.6826	-19.888
 374	1	3	-0.020332	12.5644	17.0747	-18.5999
 375	1	2	0.469602	12.4827	18.4184	-17.9335
 376	1	1	-0.076132	11.7495	18.2102	-16.7641
 377	1	2	0.458333	11.4188	16.8675	-16.6173
 378	1	3	-0.008032	11.2126	19.2711	-15.959
 379	1	3	-0.195997	9.86822	19.1558	-15.5333
 380	1	3	-0.113065	9.21412	20.2675	-14.8667
 381	1	3	0.271942	11.909	20.4581	-15.6344
 382	1	3	-0.220579	11.255	21.5082	-14.8567
 383	1	9	0.005883	9.89218	21.447	-14.5102
 384	1	6	0.164552	13.4668	17.3963	-20.5272
 385	1	6	0.136991	13.0289	15.0819	-21.3033
 386	1	6	0.136379	10.9884	14.1881	-17.579
 387	1	5	-0.461381	11.0384	16.306	-15.5897
 388	1	5	-0.471091	12.7658	19.5002	-18.431
 389	1	6	0.134736	11.8442	22.3559	-14.5514
 390	1	6	0.169495	9.27761	18.2614	-15.7231
 391	1	10	-0.554106	13.2449	20.6082	-15.949
 392	1	9	-0.02772	9.19667	22.6372	-13.899
 393	1	6	0.133194	8.14859	20.0987	-14.5692
 394	1	3	-0.144307	8.45169	22.5792	-12.6822
 395	1	3	0.023803	7.83363	23.7032	-12.116
 396	1	3	0.335896	7.67041	24.8383	-12.9632
 397	1	3	-0.53864	8.30957	24.911	-14.2361
 398	1	3	-0.029171	9.11304	23.8295	-14.6747
 399	1	6	0.130758	9.71853	23.8842	-15.5618
 400	1	6	0.243773	8.25632	25.8265	-14.8421
 401	1	6	0.131936	8.43873	21.6606	-12.0996
 402	1	10	-0.547641	7.34886	23.6731	-10.8074
 403	1	11	0.436946	13.4134	20.1753	-16.8078
 404	1	11	0.442856	7.2852	22.7534	-10.4982
 405	1	3	-0.004194	20.4642	2.83814	-25.9895
 406	1	3	-0.097141	20.9792	2.47794	-27.2172
 407	1	3	-0.172015	20.7652	1.14847	-27.6431
 408	1	5	-0.377994	19.1268	3.01238	-23.1664
 409	1	3	0.033493	19.7088	1.93213	-25.2117
 410	1	3	-0.063739	20.1988	0.186719	-26.8043
 411	1	5	-0.398381	18.6132	-1.39946	-24.6349
 412	1	3	0.032144	19.6823	0.589757	-25.5621
 413	1	2	0.032313	18.9909	2.02219	-23.8767
 414	1	1	0.461698	18.6065	0.716538	-23.5418
 415	1	2	0.091945	18.9626	-0.220909	-24.5339
 416	1	3	-0.10563	21.8909	7.29512	-27.2335
 417	1	7	-0.099376	21.8566	3.48891	-28.0485
 418	1	3	-0.043296	21.3364	4.94042	-27.7634
 419	1	3	-0.073043	22.2618	5.98054	-27.5047
 420	1	3	-0.117827	20.5339	7.59018	-27.0853
 421	1	3	-0.037562	19.9588	5.31551	-27.7099
 422	1	3	-0.083705	19.5732	6.6279	-27.4022
 423	1	7	0.396	23.3268	3.12854	-27.6095
 424	1	7	0.310495	21.7088	3.34929	-29.5754
 425	1	8	-0.130298	23.5257	3.35736	-26.2892
 426	1	8	-0.128745	24.2357	3.80227	-28.3014
 427	1	8	-0.120019	23.6839	1.85944	-27.8703
 428	1	8	-0.104287	22.2495	2.20238	-29.9512
 429	1	8	-0.095507	22.2681	4.33826	-30.3208
 430	1	8	-0.104872	20.4847	3.22404	-30.0008
 431	1	2	0.456145	18.2795	7.29968	-27.3685
 432	1	2	0.550902	19.9617	8.94518	-26.9288
 433	1	1	0.015704	18.5838	8.65817	-27.1779
 434	1	5	-0.456801	17.2187	6.73582	-27.2708
 435	1	5	-0.487703	20.5755	10.0352	-26.8617
 436	1	3	-0.116566	17.6746	9.72847	-27.0537
 437	1	3	-0.050109	16.994	9.91868	-25.8398
 438	1	3	0.154929	16.3367	11.1347	-25.5901
 439	1	3	0.041555	17.6314	10.7622	-28.0292
 440	1	3	-0.223109	17.0702	11.9995	-27.692
 441	1	3	-0.080449	16.4861	12.2025	-26.4913
 442	1	7	-0.108008	18.3946	10.6938	-29.3233
 443	1	7	-0.182228	15.7866	13.4982	-26.2516
 444	1	7	-0.345523	16.931	8.77541	-24.7781
 445	1	6	0.155183	20.6378	3.8217	-25.5964
 446	1	6	0.172904	21.0743	0.760525	-28.6018
 447	1	6	0.158028	20.2653	-0.885804	-27.0733
 448	1	6	0.153129	22.6338	8.09691	-27.2048
 449	1	6	0.142914	23.2689	5.77101	-27.6476
 450	1	6	0.135531	19.2027	4.60387	-27.9799
 451	1	6	0.17765	17.1374	12.7812	-28.4402
 452	1	12	0.046541	17.9859	9.88319	-29.9297
 453	1	12	0.045238	19.5058	10.514	-29.2333
 454	1	12	0.051941	18.3075	11.6149	-29.9089
 455	1	12	0.087961	14.7109	13.3101	-26.1424
 456	1	12	0.066782	15.9116	14.2125	-27.0658
 457	1	12	0.075908	16.1228	13.9826	-25.3097
 458	1	12	0.105172	16.1867	8.0469	-25.0366
 459	1	12	0.115625	16.7399	9.12644	-23.7687
 460	1	12	0.140296	17.8951	8.24294	-24.7755
 461	1	3	-0.004194	9.40498	-4.65482	-18.1517
 462	1	3	-0.097141	9.23298	-3.3847	-18.7478
 463	1	3	-0.172015	8.45244	-3.35292	-19.9538
 464	1	5	-0.377994	9.60724	-7.64546	-17.4356
 465	1	3	0.033493	8.85205	-5.80359	-18.7462
 466	1	3	-0.063739	7.7649	-4.52891	-20.4496
 467	1	5	-0.398381	6.60574	-7.34075	-20.8844
 468	1	3	0.032144	7.95338	-5.72292	-19.7822
 469	1	2	0.032313	8.98083	-7.21581	-18.3616
 470	1	1	0.461698	8.04891	-7.85084	-19.1854
 471	1	2	0.091945	7.47534	-7.03582	-20.1091
 472	1	3	-0.10563	11.6705	1.12646	-18.8733
 473	1	7	-0.099376	9.51192	-2.05385	-17.9405
 474	1	3	-0.043296	10.5242	-1.13461	-18.6589
 475	1	3	-0.073043	10.5863	0.287591	-18.4197
 476	1	3	-0.117827	12.5922	0.619668	-19.8108
 477	1	3	-0.037562	11.5784	-1.62698	-19.4969
 478	1	3	-0.083705	12.524	-0.749987	-20.0824
 479	1	7	0.396	8.16057	-1.35794	-17.5938
 480	1	7	0.310495	10.2039	-2.37776	-16.5134
 481	1	8	-0.130298	8.12269	-0.563886	-16.5038
 482	1	8	-0.128745	7.25867	-2.30504	-17.3532
 483	1	8	-0.120019	7.75657	-0.600213	-18.6657
 484	1	8	-0.104287	9.50428	-3.20347	-15.6787
 485	1	8	-0.095507	10.6932	-1.36582	-15.7811
 486	1	8	-0.104872	11.3403	-3.04861	-16.8229
 487	1	2	0.456145	13.9025	-1.17035	-20.5912
 488	1	2	0.550902	13.898	1.19917	-20.3166
 489	1	1	0.015704	14.6681	0.0209658	-20.5866
 490	1	5	-0.456801	14.2615	-2.31306	-20.9032
 491	1	5	-0.487703	14.2543	2.3515	-20.1254
 492	1	3	-0.116566	16.0792	0.0147824	-20.7976
 493	1	3	-0.050109	16.6642	0.440604	-22.0116
 494	1	3	0.154929	18.0309	0.298357	-22.2862
 495	1	3	0.041555	16.9495	-0.514861	-19.7818
 496	1	3	-0.223109	18.2977	-0.684283	-20.0824
 497	1	3	-0.080449	18.9179	-0.202184	-21.2507
 498	1	7	-0.108008	16.6811	-0.434538	-18.2805
 499	1	7	-0.182228	20.4404	-0.330701	-21.3961
 500	1	7	-0.345523	15.7707	0.90179	-23.1904
 501	1	6	0.155183	9.96128	-4.82178	-17.2386
 502	1	6	0.172904	8.28361	-2.4073	-20.4392
 503	1	6	0.158028	7.20001	-4.4475	-21.38
 504	1	6	0.153129	11.7217	2.19141	-18.6706
 505	1	6	0.142914	9.79423	0.771334	-17.8047
 506	1	6	0.135531	11.7434	-2.72285	-19.5235
 507	1	6	0.17765	18.9862	-0.998665	-19.302
 508	1	12	0.046541	17.329	-1.14271	-17.73
 509	1	12	0.045238	15.6541	-0.723285	-18.1227
 510	1	12	0.051941	16.7729	0.577912	-17.9295
 511	1	12	0.087961	20.7035	-0.876247	-22.3514
 512	1	12	0.066782	20.949	-0.880708	-20.6242
 513	1	12	0.075908	20.9484	0.674936	-21.418
 514	1	12	0.105172	16.2342	1.15123	-24.1471
 515	1	12	0.115625	15.1672	1.76967	-22.8622
 516	1	12	0.140296	15.0645	0.0759311	-23.3693
 517	1	3	-0.004194	3.72976	-10.7261	-7.59822
 518	1	3	-0.097141	3.34034	-10.2092	-8.90123
 519	1	3	-0.172015	2.93992	-8.88434	-8.99905
 520	1	5	-0.377994	4.42332	-11.0109	-4.39792
 521	1	3	0.033493	3.68082	-9.87671	-6.50242
 522	1	3	-0.063739	2.86924	-8.0286	-7.90505
 523	1	5	-0.398381	3.03411	-6.58929	-5.16235
 524	1	3	0.032144	3.28702	-8.5449	-6.69343
 525	1	2	0.032313	3.94935	-10.0167	-4.98612
 526	1	1	0.461698	3.57253	-8.76968	-4.43827
 527	1	2	0.091945	3.24425	-7.78411	-5.36943
 528	1	3	-0.10563	6.22328	-9.12478	-12.1286
 529	1	7	-0.099376	3.43072	-11.0445	-10.2697
 530	1	3	-0.043296	4.11859	-10.1829	-11.3572
 531	1	3	-0.073043	5.33467	-9.51789	-11.0812
 532	1	3	-0.117827	5.79395	-9.46255	-13.4361
 533	1	3	-0.037562	3.75796	-10.4141	-12.7032
 534	1	3	-0.083705	4.57243	-10.0019	-13.7393
 535	1	7	0.396	1.94461	-11.3379	-10.6258
 536	1	7	0.310495	4.27052	-12.4412	-10.2773
 537	1	8	-0.130298	1.23137	-10.2021	-10.8373
 538	1	8	-0.128745	1.35263	-12.0208	-9.60874
 539	1	8	-0.120019	1.70511	-12.1178	-11.6978
 540	1	8	-0.104287	4.27665	-13.0538	-11.4419
 541	1	8	-0.095507	3.80975	-13.2486	-9.41671
 542	1	8	-0.104872	5.60947	-12.2469	-9.93673
 543	1	2	0.456145	4.51949	-10.3781	-15.192
 544	1	2	0.550902	6.4019	-9.19766	-14.7563
 545	1	1	0.015704	5.65849	-9.83125	-15.7705
 546	1	5	-0.456801	3.78298	-11.2519	-15.5982
 547	1	5	-0.487703	7.5072	-8.6638	-14.846
 548	1	3	-0.116566	6.22728	-10.115	-17.0986
 549	1	3	-0.050109	6.40885	-8.95756	-17.8719
 550	1	3	0.154929	7.41816	-9.02755	-18.8182
 551	1	3	0.041555	6.7756	-11.3567	-17.5261
 552	1	3	-0.223109	7.65732	-11.4158	-18.5839
 553	1	3	-0.080449	8.03091	-10.2402	-19.2788
 554	1	7	-0.108008	6.7505	-12.5549	-16.6285
 555	1	7	-0.182228	9.3271	-10.2541	-20.0614
 556	1	7	-0.345523	5.75183	-7.60801	-17.4829
 557	1	6	0.155183	4.11598	-11.7063	-7.41569
 558	1	6	0.172904	2.73225	-8.46126	-9.92527
 559	1	6	0.158028	2.52381	-6.99752	-7.98645
 560	1	6	0.153129	7.18451	-8.68751	-11.8493
 561	1	6	0.142914	5.66794	-9.41512	-10.0427
 562	1	6	0.135531	2.90019	-10.9218	-13.0001
 563	1	6	0.17765	8.1674	-12.3738	-18.7152
 564	1	12	0.046541	6.65856	-12.2136	-15.6244
 565	1	12	0.045238	7.70615	-13.1033	-16.6976
 566	1	12	0.051941	5.95412	-13.2456	-16.8769
 567	1	12	0.087961	9.75626	-11.2996	-20.1158
 568	1	12	0.066782	10.1278	-9.6774	-19.5079
 569	1	12	0.075908	9.20322	-9.89284	-21.0924
 570	1	12	0.105172	4.82844	-7.796	-16.924
 571	1	12	0.115625	5.55036	-7.00124	-18.3519
 572	1	12	0.140296	6.41732	-6.97666	-16.8082
 573	1	3	-0.004194	10.3714	-7.5092	6.44748
 574	1	3	-0.097141	9.1245	-7.48306	5.74629
 575	1	3	-0.172015	8.18319	-8.47722	5.89017
 576	1	5	-0.377994	12.6865	-8.40266	8.29723
 577	1	3	0.033493	10.6472	-8.69643	7.17835
 578	1	3	-0.063739	8.35944	-9.53395	6.80637
 579	1	5	-0.398381	9.60258	-11.8666	8.32276
 580	1	3	0.032144	9.66146	-9.65676	7.33057
 581	1	2	0.032313	11.8464	-9.20597	7.90786
 582	1	1	0.461698	11.4601	-10.4271	8.45297
 583	1	2	0.091945	10.1732	-10.8017	8.13904
 584	1	3	-0.10563	8.0043	-8.58165	1.86563
 585	1	7	-0.099376	8.69946	-6.30156	4.87543
 586	1	3	-0.043296	8.1074	-6.865	3.57501
 587	1	3	-0.073043	8.75185	-7.97366	2.87482
 588	1	3	-0.117827	6.83273	-8.08446	1.37936
 589	1	3	-0.037562	6.92792	-6.28249	2.94737
 590	1	3	-0.083705	6.31418	-6.9128	1.87333
 591	1	7	0.396	9.89392	-5.37531	4.53375
 592	1	7	0.310495	7.5731	-5.5275	5.75094
 593	1	8	-0.130298	10.512	-4.82241	5.61441
 594	1	8	-0.128745	9.40726	-4.37252	3.79261
 595	1	8	-0.120019	10.8683	-6.06677	3.78639
 596	1	8	-0.104287	8.04569	-5.01612	6.93051
 597	1	8	-0.095507	6.39166	-6.261	5.94191
 598	1	8	-0.104872	7.17619	-4.39348	5.22649
 599	1	2	0.456145	5.10266	-6.52804	1.06943
 600	1	2	0.550902	5.9811	-8.50589	0.244567
 601	1	1	0.015704	4.94727	-7.56297	0.130587
 602	1	5	-0.456801	4.49937	-5.45043	1.11041
 603	1	5	-0.487703	6.06056	-9.59293	-0.316083
 604	1	3	-0.116566	3.91752	-7.81638	-0.800787
 605	1	3	-0.050109	4.27673	-7.96341	-2.17743
 606	1	3	0.154929	3.33527	-8.59787	-3.06302
 607	1	3	0.041555	2.6855	-8.3151	-0.335807
 608	1	3	-0.223109	1.78366	-8.94442	-1.2181
 609	1	3	-0.080449	2.13919	-9.08459	-2.5343
 610	1	7	-0.108008	2.23594	-8.11279	1.08169
 611	1	7	-0.182228	1.24732	-9.78191	-3.51398
 612	1	7	-0.345523	5.58099	-7.48647	-2.74492
 613	1	6	0.155183	11.1205	-6.77887	6.42403
 614	1	6	0.172904	7.19578	-8.39075	5.41281
 615	1	6	0.158028	7.55589	-10.2913	6.94462
 616	1	6	0.153129	8.36723	-9.46094	1.32884
 617	1	6	0.142914	9.70118	-8.4343	3.18205
 618	1	6	0.135531	6.51643	-5.3422	3.30162
 619	1	6	0.17765	0.880222	-9.3716	-0.877193
 620	1	12	0.046541	2.56641	-9.05282	1.66811
 621	1	12	0.045238	1.19314	-7.96163	1.2647
 622	1	12	0.051941	2.74457	-7.21839	1.46356
 623	1	12	0.087961	0.288492	-9.9511	-2.99377
 624	1	12	0.066782	1.53489	-10.8105	-3.73831
 625	1	12	0.075908	1.06939	-9.1787	-4.43376
 626	1	12	0.105172	6.36026	-8.26326	-2.78979
 627	1	12	0.115625	6.07651	-6.79519	-2.07062
 628	1	12	0.140296	5.50425	-6.9931	-3.68184
 629	1	1	0.463107	18.0806	-24.5872	21.1909
 630	1	2	0.061808	19.1632	-24.167	20.4784