pySIMM System Object

746 atoms
816 bonds
1412 angles
2152 dihedrals
220 impropers

12 atom types
15 bond types
24 angle types
10 dihedral types
4 improper types

-119.009873 119.009873 xlo xhi
-119.009873 119.009873 ylo yhi
-119.009873 119.009873 zlo zhi

Masses

   1	14.01	# n
   2	12.01	# c
   3	12.01	# ca
   4	1.008	# hn
   5	16.0	# o
   6	1.008	# ha
   7	12.01	# c3
   8	19.0	# f
   9	12.01	# cp
  10	16.0	# oh
  11	1.008	# ho
  12	1.008	# hc

Pair Coeffs

   1	0.17	3.249998523775958	# n
   2	0.086	3.3996695084235347	# c
   3	0.086	3.3996695084235347	# ca
   4	0.0157	1.069078461768407	# hn
   5	0.21	2.959921901149463	# o
   6	0.015	2.59964245953351	# ha
   7	0.1094	3.3996695084235347	# c3
   8	0.061	3.1181455134911875	# f
   9	0.086	3.3996695084235347	# cp
  10	0.2104	3.0664733878390478	# oh
  11	0.0047	0.5379246460131368	# ho
  12	0.0157	2.649532787749369	# hc

Bond Coeffs

   1	403.2	1.0129	# hn,n
   2	356.9	1.3497	# c3,f
   3	384.2	1.4121	# ca,n
   4	450.2	1.4058	# ca,cp
   5	371.4	0.973	# ho,oh
   6	461.1	1.3984	# ca,ca
   7	427.6	1.3789	# c,n
   8	321.0	1.5156	# c3,ca
   9	384.0	1.3637	# ca,oh
  10	345.9	1.4906	# c,ca
  11	345.8	1.086	# ca,ha
  12	637.7	1.2183	# c,o
  13	300.9	1.5375	# c3,c3
  14	351.4	1.4854	# cp,cp
  15	330.6	1.0969	# c3,hc

Angle Coeffs

   1	63.53	120.77	# c3,ca,ca
   2	70.89	107.36	# f,c3,f
   3	67.87	120.19	# ca,ca,n
   4	66.72	118.38	# ca,cp,ca
   5	66.11	109.24	# c3,c3,f
   6	49.0	108.58	# ca,oh,ho
   7	62.86	111.51	# c3,c3,c3
   8	63.15	112.07	# c3,c3,ca
   9	66.26	120.69	# ca,ca,cp
  10	63.56	112.24	# ca,c3,ca
  11	63.82	123.71	# c,n,ca
  12	69.52	119.9	# ca,ca,oh
  13	63.74	127.08	# c,n,c
  14	48.18	119.88	# ca,ca,ha
  15	74.22	123.05	# n,c,o
  16	64.05	121.11	# ca,cp,cp
  17	66.62	120.02	# ca,ca,ca
  18	68.72	122.6	# ca,c,o
  19	67.68	115.25	# ca,c,n
  20	48.33	117.55	# c,n,hn
  21	64.28	120.33	# c,ca,ca
  22	47.98	119.86	# cp,ca,ha
  23	39.4	107.58	# hc,c3,hc
  24	46.8	110.47	# ca,c3,hc

Dihedral Coeffs

   1	1	0.15555555555555556	3	0	# X,c3,c3,X
   2	1	1.0	2	180	# X,cp,cp,X
   3	1	0.0	2	0	# X,c3,ca,X
   4	1	1.0	2	180	# X,c,ca,X
   5	1	2.5	2	180	# X,c,n,X
   6	1	0.45	2	180	# X,ca,n,X
   7	1	3.625	2	180	# X,ca,cp,X
   8	1	0.9	2	180	# X,ca,oh,X
   9	2	2.5	2	180	2.0	1	0	# hn,n,c,o
  10	1	3.625	2	180	# X,ca,ca,X

Improper Coeffs

   1	1.1	-1	2	# ca,ca,ca,c3
   2	1.1	-1	2	# n,X,X,hn
   3	1.1	-1	2	# ca,X,X,ha
   4	10.5	-1	2	# c,X,X,o

Atoms

   1	1	1	0.463107	12.4525	-11.8262	28.6112
   2	1	2	0.061808	12.1717	-13.1756	28.8427
   3	1	3	0.001427	13.4493	-13.9359	28.6281
   4	1	2	0.068581	13.7666	-11.6735	28.2015
   5	1	3	0.040836	14.398	-12.9983	28.2521
   6	1	5	-0.386232	11.0983	-13.6683	29.1073
   7	1	5	-0.391601	14.3083	-10.633	27.9159
   8	1	3	-0.001718	13.754	-15.3203	28.7288
   9	1	3	-0.033153	15.7166	-13.3892	28.0163
  10	1	3	-0.217995	16.0392	-14.754	28.1005
  11	1	3	-0.067978	15.1061	-15.7268	28.5253
  12	1	6	0.155939	12.9691	-16.0132	28.9537
  13	1	6	0.152973	16.4876	-12.6421	27.7591
  14	1	6	0.17647	17.0619	-15.0415	27.8931
  15	1	7	-0.111335	15.5963	-17.2072	28.6469
  16	1	7	0.291988	14.6267	-18.0697	29.5057
  17	1	8	-0.108289	15.2464	-19.2356	29.9049
  18	1	8	-0.102972	13.4785	-18.4036	28.829
  19	1	8	-0.103001	14.2341	-17.5141	30.6747
  20	1	7	0.43552	15.6805	-17.757	27.1586
  21	1	8	-0.137748	16.6559	-17.0755	26.482
  22	1	8	-0.132227	14.5514	-17.5199	26.4653
  23	1	8	-0.124157	15.9167	-19.0846	27.0757
  24	1	3	-0.009135	16.9738	-17.2271	29.3738
  25	1	3	-0.073591	17.1316	-16.3707	30.4956
  26	1	3	-0.051923	18.3895	-16.2926	31.0967
  27	1	3	-0.057717	18.0752	-18.0653	28.9711
  28	1	3	-0.156758	19.3194	-17.963	29.6453
  29	1	3	-0.020332	19.4529	-17.0316	30.6564
  30	1	2	0.469602	20.6632	-16.5602	31.3413
  31	1	1	-0.076132	20.2545	-15.5043	32.1652
  32	1	2	0.458333	18.885	-15.3084	32.104
  33	1	3	-0.008032	21.1483	-14.7422	32.9666
  34	1	3	-0.195997	21.2254	-13.3393	32.8198
  35	1	3	-0.113065	22.1223	-12.6026	33.6068
  36	1	3	0.271942	22.0459	-15.4236	33.8353
  37	1	3	-0.220579	22.9339	-14.6818	34.6107
  38	1	9	0.005883	22.9846	-13.2535	34.5453
  39	1	6	0.164552	20.1429	-18.576	29.3072
  40	1	6	0.136991	18.0347	-18.766	28.1679
  41	1	6	0.136379	16.3314	-15.735	30.8397
  42	1	5	-0.461381	18.2343	-14.3899	32.5747
  43	1	5	-0.471091	21.8012	-16.8834	31.0378
  44	1	6	0.134736	23.6219	-15.2662	35.2285
  45	1	6	0.169495	20.5479	-12.8253	32.1572
  46	1	10	-0.554106	22.092	-16.7644	33.9818
  47	1	9	-0.02772	23.9937	-12.448	35.3171
  48	1	6	0.133194	22.1219	-11.5121	33.5192
  49	1	3	-0.144307	24.5877	-13.0483	36.4541
  50	1	3	0.023803	25.5972	-12.4373	37.1433
  51	1	3	0.335896	25.9434	-11.1303	36.8231
  52	1	3	-0.53864	25.3396	-10.4608	35.764
  53	1	3	-0.029171	24.36	-11.1129	35.0165
  54	1	6	0.130758	23.8491	-10.5938	34.2169
  55	1	6	0.243773	25.575	-9.43297	35.5607
  56	1	6	0.131936	24.3184	-14.0303	36.7864
  57	1	10	-0.547641	26.1412	-13.0942	38.2126
  58	1	11	0.436946	22.1157	-17.1582	33.0867
  59	1	11	0.442856	25.4113	-13.4842	38.7437
  60	1	1	0.463107	1.79621	4.52234	31.7731
  61	1	2	0.061808	2.47571	4.89939	30.6142
  62	1	3	0.001427	3.90835	4.615	30.9344
  63	1	2	0.068581	2.56722	3.93209	32.7711
  64	1	3	0.040836	3.94581	3.95571	32.1635
  65	1	5	-0.386232	2.00836	5.29425	29.5546
  66	1	5	-0.391601	2.1764	3.44122	33.8354
  67	1	3	-0.001718	4.99808	4.55446	30.068
  68	1	3	-0.033153	5.11203	3.3823	32.6864
  69	1	3	-0.217995	6.16863	3.26713	31.7629
  70	1	3	-0.067978	6.08729	3.73797	30.4381
  71	1	6	0.155939	4.88987	4.98507	29.0498
  72	1	6	0.152973	5.13583	2.9228	33.6815
  73	1	6	0.17647	7.00158	2.64289	32.0505
  74	1	7	-0.111335	7.03388	3.12682	29.3603
  75	1	7	0.291988	6.68747	3.48428	27.8735
  76	1	8	-0.108289	6.93536	4.77827	27.5137
  77	1	8	-0.102972	5.41167	3.22483	27.5536
  78	1	8	-0.103001	7.34353	2.80998	26.929
  79	1	7	0.43552	8.44631	3.74051	29.6267
  80	1	8	-0.137748	9.01688	3.02761	30.5905
  81	1	8	-0.132227	8.34748	5.05819	30.0329
  82	1	8	-0.124157	9.27065	3.71961	28.5604
  83	1	3	-0.009135	7.0327	1.57506	29.5203
  84	1	3	-0.073591	8.10212	0.76095	29.0414
  85	1	3	-0.051923	7.96273	-0.637602	29.1584
  86	1	3	-0.057717	5.84204	0.953254	30.0031
  87	1	3	-0.156758	5.81833	-0.419587	30.2482
  88	1	3	-0.020332	6.8899	-1.18952	29.8203
  89	1	2	0.469602	7.07048	-2.61069	29.9913
  90	1	1	-0.076132	8.16634	-2.92628	29.2569
  91	1	2	0.458333	8.81925	-1.80763	28.759
  92	1	3	-0.008032	8.60299	-4.23838	29.1039
  93	1	3	-0.195997	9.89875	-4.5585	29.4509
  94	1	3	-0.113065	10.308	-5.8883	29.3061
  95	1	3	0.271942	7.69462	-5.19778	28.6225
  96	1	3	-0.220579	8.16082	-6.50276	28.3791
  97	1	9	0.005883	9.45344	-6.89352	28.8022
  98	1	6	0.164552	4.91071	-0.901676	30.6615
  99	1	6	0.136991	4.94282	1.52223	30.2499
 100	1	6	0.136379	8.94526	1.21186	28.5092
 101	1	5	-0.461381	9.90499	-1.79046	28.2022
 102	1	5	-0.471091	6.40355	-3.30002	30.7358
 103	1	6	0.134736	7.45107	-7.2402	27.9661
 104	1	6	0.169495	10.576	-3.80879	29.8448
 105	1	10	-0.554106	6.44914	-4.83778	28.2407
 106	1	9	-0.02772	9.96104	-8.29624	28.8271
 107	1	6	0.133194	11.3246	-6.12716	29.5652
 108	1	3	-0.144307	10.1828	-9.01827	27.6312
 109	1	3	0.023803	10.9751	-10.1587	27.6066
 110	1	3	0.335896	11.5061	-10.7238	28.7788
 111	1	3	-0.53864	11.2637	-10.0375	30.0012
 112	1	3	-0.029171	10.5207	-8.83613	30.0407
 113	1	6	0.130758	10.4512	-8.23921	30.9492
 114	1	6	0.243773	11.6968	-10.4153	30.9165
 115	1	6	0.131936	9.7851	-8.66081	26.6821
 116	1	10	-0.547641	11.1922	-10.7405	26.4121
 117	1	11	0.436946	5.93135	-4.79495	29.0662
 118	1	11	0.442856	10.8279	-10.1771	25.6997
 119	1	3	-0.004194	-7.79882	10.5959	33.4652
 120	1	3	-0.097141	-7.07365	11.4429	34.3742
 121	1	3	-0.172015	-7.68867	12.6491	34.7283
 122	1	5	-0.377994	-9.64039	9.31176	31.3296
 123	1	3	0.033493	-9.03954	10.9683	32.977
 124	1	3	-0.063739	-8.91876	13.044	34.1734
 125	1	5	-0.398381	-11.4967	13.3608	32.4897
 126	1	3	0.032144	-9.58171	12.1775	33.279
 127	1	2	0.032313	-9.90929	10.3162	31.9529
 128	1	1	0.461698	-10.9863	11.1742	31.774
 129	1	2	0.091945	-10.8232	12.3519	32.5093
 130	1	3	-0.10563	-3.80973	10.1786	31.744
 131	1	7	-0.099376	-5.7035	11.0019	35.0181
 132	1	3	-0.043296	-5.02849	10.1306	33.9287
 133	1	3	-0.073043	-4.7069	10.7435	32.6717
 134	1	3	-0.117827	-3.376	8.88517	31.9945
 135	1	3	-0.037562	-4.58807	8.79431	34.0949
 136	1	3	-0.083705	-3.79049	8.22057	33.1124
 137	1	7	0.396	-6.06844	10.3139	36.3346
 138	1	7	0.310495	-4.61579	12.162	35.293
 139	1	8	-0.130298	-6.80858	9.20622	36.1086
 140	1	8	-0.128745	-6.77722	11.2066	37.0678
 141	1	8	-0.120019	-4.97231	10.0405	37.0825
 142	1	8	-0.104287	-4.63254	13.0165	34.2677
 143	1	8	-0.095507	-3.3393	11.6714	35.3687
 144	1	8	-0.104872	-4.81442	12.916	36.4035
 145	1	2	0.456145	-3.27467	6.82055	33.1196
 146	1	2	0.550902	-2.47333	7.95668	31.2361
 147	1	1	0.015704	-2.49426	6.7392	31.971
 148	1	5	-0.456801	-3.28865	6.03754	34.0753
 149	1	5	-0.487703	-1.87025	8.21628	30.1809
 150	1	3	-0.116566	-1.69566	5.61652	31.6591
 151	1	3	-0.050109	-0.30786	5.64641	31.8807
 152	1	3	0.154929	0.427412	4.44534	31.7804
 153	1	3	0.041555	-2.3147	4.46322	31.1373
 154	1	3	-0.223109	-1.57462	3.28704	31.0963
 155	1	3	-0.080449	-0.229232	3.26607	31.4153
 156	1	7	-0.108008	-3.78442	4.42104	30.7573
 157	1	7	-0.182228	0.402829	1.89645	31.365
 158	1	7	-0.345523	0.333117	6.94542	32.402
 159	1	6	0.155183	-7.4476	9.62711	33.1533
 160	1	6	0.172904	-7.18892	13.3176	35.4199
 161	1	6	0.158028	-9.39884	13.9911	34.4415
 162	1	6	0.153129	-3.53885	10.7053	30.8289
 163	1	6	0.142914	-5.07057	11.7454	32.4365
 164	1	6	0.135531	-4.77107	8.21678	34.9953
 165	1	6	0.17765	-2.04821	2.37967	30.7566
 166	1	12	0.046541	-4.44211	4.66874	31.6214
 167	1	12	0.045238	-4.09015	3.38644	30.4711
 168	1	12	0.051941	-3.98231	5.06674	29.8821
 169	1	12	0.087961	1.33292	1.9328	30.8012
 170	1	12	0.066782	-0.263232	1.16983	30.8956
 171	1	12	0.075908	0.59425	1.576	32.3987
 172	1	12	0.105172	0.36988	7.73995	31.6071
 173	1	12	0.115625	1.32387	6.77171	32.8265
 174	1	12	0.140296	-0.236216	7.32573	33.2719
 175	1	1	0.463107	-11.6365	14.2633	14.0806
 176	1	2	0.061808	-12.9279	14.5533	14.5182
 177	1	3	0.001427	-13.1335	13.596	15.6616
 178	1	2	0.068581	-10.9077	13.5558	15.0353
 179	1	3	0.040836	-11.9381	13.0177	15.9977
 180	1	5	-0.386232	-13.7948	15.2434	13.9948
 181	1	5	-0.391601	-9.72759	13.2807	14.9817
 182	1	3	-0.001718	-14.3546	13.109	16.1285
 183	1	3	-0.033153	-11.8624	11.9858	16.9223
 184	1	3	-0.217995	-13.0837	11.4527	17.3977
 185	1	3	-0.067978	-14.3501	11.9539	16.9772
 186	1	6	0.155939	-15.2661	13.6096	15.8002
 187	1	6	0.152973	-10.8989	11.5703	17.1802
 188	1	6	0.17647	-13.0735	10.5401	18.0042
 189	1	7	-0.111335	-15.6331	11.0754	17.1475
 190	1	7	0.291988	-15.7322	10.2131	15.8456
 191	1	8	-0.108289	-15.8634	11.0122	14.7468
 192	1	8	-0.102972	-16.7947	9.38168	15.8867
 193	1	8	-0.103001	-14.5941	9.52715	15.5578
 194	1	7	0.43552	-17.0111	11.8615	17.2913
 195	1	8	-0.137748	-16.9296	12.9394	18.0814
 196	1	8	-0.132227	-18.0257	11.1036	17.7405
 197	1	8	-0.124157	-17.5215	12.3335	16.1254
 198	1	3	-0.009135	-15.5268	10.1728	18.4229
 199	1	3	-0.073591	-15.7978	10.7414	19.7229
 200	1	3	-0.051923	-15.8351	9.91285	20.8402
 201	1	3	-0.057717	-15.3751	8.74362	18.4
 202	1	3	-0.156758	-15.2062	8.00488	19.5881
 203	1	3	-0.020332	-15.4228	8.63019	20.8132
 204	1	2	0.469602	-15.3176	8.13459	22.2196
 205	1	1	-0.076132	-15.5798	9.2319	23.026
 206	1	2	0.458333	-16.142	10.2286	22.2457
 207	1	3	-0.008032	-15.0784	9.47669	24.3923
 208	1	3	-0.195997	-14.4635	10.7368	24.6654
 209	1	3	-0.113065	-14.0073	11.0627	25.979
 210	1	3	0.271942	-15.216	8.5973	25.5311
 211	1	3	-0.220579	-14.6917	8.91016	26.8087
 212	1	9	0.005883	-14.098	10.159	27.0639
 213	1	6	0.164552	-15.0464	6.93655	19.5854
 214	1	6	0.136991	-15.265	8.18554	17.4716
 215	1	6	0.136379	-16.0744	11.7876	19.8904
 216	1	5	-0.461381	-16.6608	11.2461	22.633
 217	1	5	-0.471091	-14.7662	7.13725	22.5869
 218	1	6	0.134736	-14.6921	8.17161	27.6065
 219	1	6	0.169495	-14.3931	11.4773	23.8733
 220	1	10	-0.554106	-15.739	7.34406	25.3984
 221	1	9	-0.02772	-13.4223	10.4492	28.3373
 222	1	6	0.133194	-13.5625	12.0073	26.1643
 223	1	3	-0.144307	-13.9688	10.1774	29.6254
 224	1	3	0.023803	-13.2286	10.4914	30.7846
 225	1	3	0.335896	-11.896	10.98	30.6772
 226	1	3	-0.53864	-11.367	11.2423	29.3783
 227	1	3	-0.029171	-12.1188	10.9524	28.2438
 228	1	6	0.130758	-11.6399	10.9467	27.2571
 229	1	6	0.243773	-10.3401	11.5154	29.2635
 230	1	6	0.131936	-15.0048	9.82419	29.7107
 231	1	10	-0.547641	-13.7832	10.3088	32.0029
 232	1	11	0.436946	-15.5266	6.82932	26.1931
 233	1	11	0.442856	-14.7646	10.1826	31.9432
 234	1	3	-0.004194	-7.5149	7.3801	6.97916
 235	1	3	-0.097141	-7.68812	6.52533	8.09485
 236	1	3	-0.172015	-6.49614	5.97309	8.6812
 237	1	5	-0.377994	-6.69011	8.86622	4.39816
 238	1	3	0.033493	-6.25139	7.72688	6.48486
 239	1	3	-0.063739	-5.21585	6.25795	8.11212
 240	1	5	-0.398381	-3.00359	6.68345	6.12526
 241	1	3	0.032144	-5.12283	7.14681	7.0215
 242	1	2	0.032313	-5.95784	8.19305	5.112
 243	1	1	0.461698	-4.59439	7.89109	4.94397
 244	1	2	0.091945	-4.07124	7.23901	6.03662
 245	1	3	-0.10563	-12.2287	8.6414	8.6396
 246	1	7	-0.099376	-9.17302	6.17203	8.4671
 247	1	3	-0.043296	-10.0059	7.50885	8.48583
 248	1	3	-0.073043	-11.4482	7.48631	8.3476
 249	1	3	-0.117827	-11.5618	9.85552	8.97206
 250	1	3	-0.037562	-9.40549	8.74051	8.8788
 251	1	3	-0.083705	-10.1797	9.90125	9.02065
 252	1	7	0.396	-9.35638	5.53033	9.89236
 253	1	7	0.310495	-9.73449	5.15808	7.39799
 254	1	8	-0.130298	-10.668	5.65228	10.3295
 255	1	8	-0.128745	-8.65205	6.21463	10.8036
 256	1	8	-0.120019	-8.99651	4.20634	10.0202
 257	1	8	-0.104287	-10.2001	5.68233	6.24549
 258	1	8	-0.095507	-10.7592	4.47693	7.8707
 259	1	8	-0.104872	-8.86592	4.1815	7.14638
 260	1	2	0.456145	-9.76664	11.2391	9.55912
 261	1	2	0.550902	-12.0613	11.1344	9.49188
 262	1	1	0.015704	-10.931	11.9231	9.7645
 263	1	5	-0.456801	-8.62535	11.7054	9.63789
 264	1	5	-0.487703	-13.2674	11.3708	9.67163
 265	1	3	-0.116566	-10.9621	13.1294	10.5518
 266	1	3	-0.050109	-11.3171	13.0656	11.9223
 267	1	3	0.154929	-11.3205	14.2679	12.6852
 268	1	3	0.041555	-10.6132	14.3818	9.99486
 269	1	3	-0.223109	-10.7146	15.565	10.7227
 270	1	3	-0.080449	-11.0252	15.529	12.0842
 271	1	7	-0.108008	-10.1167	14.4715	8.53719
 272	1	7	-0.182228	-10.7938	16.7841	12.9066
 273	1	7	-0.345523	-11.5793	11.677	12.5695
 274	1	6	0.155183	-8.3626	7.77482	6.41564
 275	1	6	0.172904	-6.55909	5.28043	9.5086
 276	1	6	0.158028	-4.28306	5.81627	8.49577
 277	1	6	0.153129	-13.3196	8.61158	8.68287
 278	1	6	0.142914	-11.9712	6.53416	8.18219
 279	1	6	0.135531	-8.31469	8.77159	9.07612
 280	1	6	0.17765	-10.4531	16.489	10.1786
 281	1	12	0.046541	-9.66195	15.4249	8.24145
 282	1	12	0.045238	-10.9695	14.2452	7.87844
 283	1	12	0.051941	-9.38041	13.7327	8.2387
 284	1	12	0.087961	-11.7226	17.2922	13.2152
 285	1	12	0.066782	-10.1903	17.4936	12.3558
 286	1	12	0.075908	-10.2659	16.5534	13.8289
 287	1	12	0.105172	-11.1208	10.8604	12.0649
 288	1	12	0.115625	-12.6626	11.4777	12.6214
 289	1	12	0.140296	-11.1942	11.5681	13.5899
 290	1	3	-0.004194	-1.25809	16.7398	-2.69679
 291	1	3	-0.097141	-0.923188	15.7088	-1.77008
 292	1	3	-0.172015	-1.03853	14.3311	-2.1946
 293	1	5	-0.377994	-1.85837	18.3824	-5.15335
 294	1	3	0.033493	-1.81228	16.3629	-3.9235
 295	1	3	-0.063739	-1.56215	14.0012	-3.45564
 296	1	5	-0.398381	-2.981	13.9827	-6.05881
 297	1	3	0.032144	-2.03008	15.0487	-4.25301
 298	1	2	0.032313	-2.08472	17.1838	-5.09579
 299	1	1	0.461698	-2.35102	16.2797	-6.12243
 300	1	2	0.091945	-2.51061	15.0026	-5.60933
 301	1	3	-0.10563	1.25283	13.3602	2.014
 302	1	7	-0.099376	-0.327767	16.0661	-0.325571
 303	1	3	-0.043296	-0.135221	14.7929	0.568402
 304	1	3	-0.073043	1.14751	14.3833	1.06824
 305	1	3	-0.117827	0.129199	12.6138	2.35551
 306	1	3	-0.037562	-1.26198	14.0091	0.895929
 307	1	3	-0.083705	-1.05853	12.9479	1.79719
 308	1	7	0.396	-1.32223	17.0384	0.464066
 309	1	7	0.310495	1.09065	16.7436	-0.457629
 310	1	8	-0.130298	-2.55097	16.5138	0.547034
 311	1	8	-0.128745	-1.52998	18.2291	-0.164352
 312	1	8	-0.120019	-0.889623	17.2074	1.76438
 313	1	8	-0.104287	1.90741	16.0794	-1.30502
 314	1	8	-0.095507	1.69578	17.0688	0.75031
 315	1	8	-0.104872	0.971025	17.8831	-1.11254
 316	1	2	0.456145	-1.98451	11.8907	2.11138
 317	1	2	0.550902	0.034819	11.2395	2.983
 318	1	1	0.015704	-1.29871	10.8584	2.74894
 319	1	5	-0.456801	-3.11492	11.9046	1.70638
 320	1	5	-0.487703	0.968621	10.5458	3.42301
 321	1	3	-0.116566	-1.91901	9.53957	2.87912
 322	1	3	-0.050109	-2.92727	9.32006	3.86482
 323	1	3	0.154929	-3.7502	8.14435	3.8232
 324	1	3	0.041555	-1.74925	8.59	1.84787
 325	1	3	-0.223109	-2.55821	7.43576	1.79056
 326	1	3	-0.080449	-3.59363	7.24582	2.73972
 327	1	7	-0.108008	-0.703191	8.72585	0.749351
 328	1	7	-0.182228	-4.51152	6.05508	2.50786
 329	1	7	-0.345523	-3.22356	10.3667	4.9782
 330	1	6	0.155183	-1.03069	17.777	-2.47357
 331	1	6	0.172904	-0.594172	13.5286	-1.62468
 332	1	6	0.158028	-1.58253	12.9897	-3.82911
 333	1	6	0.153129	2.20828	13.0323	2.37204
 334	1	6	0.142914	2.07958	14.8353	0.767371
 335	1	6	0.135531	-2.24022	14.2266	0.497779
 336	1	6	0.17765	-2.4259	6.71697	0.971543
 337	1	12	0.046541	-0.954356	8.07816	-0.0974341
 338	1	12	0.045238	0.295839	8.42138	1.09725
 339	1	12	0.051941	-0.584627	9.75193	0.389779
 340	1	12	0.087961	-5.51036	6.20742	2.97879
 341	1	12	0.066782	-4.08205	5.09828	2.8553
 342	1	12	0.075908	-4.73246	5.9609	1.43606
 343	1	12	0.105172	-3.38102	9.98951	5.98756
 344	1	12	0.115625	-4.10971	10.9464	4.66811
 345	1	12	0.140296	-2.44674	11.1615	5.00585
 346	1	1	0.463107	-7.65419	22.0808	-25.2215
 347	1	2	0.061808	-8.00788	20.9427	-24.5498
 348	1	3	0.001427	-8.16807	21.4757	-23.1727
 349	1	2	0.068581	-7.77563	23.2644	-24.5343
 350	1	3	0.040836	-7.8411	22.8339	-23.16
 351	1	5	-0.386232	-7.92577	19.7944	-24.9875
 352	1	5	-0.391601	-7.482	24.3834	-24.8773
 353	1	3	-0.001718	-8.36529	20.72	-22.0387
 354	1	3	-0.033153	-7.5726	23.4501	-21.908
 355	1	3	-0.217995	-7.71624	22.6449	-20.7869
 356	1	3	-0.067978	-8.09243	21.2795	-20.769
 357	1	6	0.155939	-8.65726	19.6546	-22.139
 358	1	6	0.152973	-7.23942	24.4782	-21.7679
 359	1	6	0.17647	-7.44052	23.0422	-19.8469
 360	1	7	-0.111335	-8.26181	20.5099	-19.362
 361	1	7	0.291988	-9.2418	21.2911	-18.3753
 362	1	8	-0.108289	-8.63043	22.353	-17.8189
 363	1	8	-0.102972	-9.79701	20.6243	-17.3169
 364	1	8	-0.103001	-10.3581	21.7263	-19.0312
 365	1	7	0.43552	-8.72759	19.0052	-19.5854
 366	1	8	-0.137748	-7.80584	18.28	-20.3338
 367	1	8	-0.132227	-9.98373	18.921	-20.0307
 368	1	8	-0.124157	-8.81874	18.3541	-18.4203
 369	1	3	-0.009135	-6.93545	20.3265	-18.636
 370	1	3	-0.073591	-6.85372	20.1659	-17.2211
 371	1	3	-0.051923	-5.62823	19.7597	-16.7228
 372	1	3	-0.057717	-5.77069	20.2602	-19.4373
 373	1	3	-0.156758	-4.51274	19.9729	-18.8603
 374	1	3	-0.020332	-4.45986	19.7797	-17.4477
 375	1	2	0.469602	-3.3121	19.6299	-16.5068
 376	1	1	-0.076132	-4.00224	19.3513	-15.3134
 377	1	2	0.458333	-5.35274	19.3412	-15.3814
 378	1	3	-0.008032	-3.35919	18.9523	-14.0997
 379	1	3	-0.195997	-3.63965	17.6729	-13.6469
 380	1	3	-0.113065	-3.3064	17.2767	-12.3618
 381	1	3	0.271942	-2.5798	19.8088	-13.303
 382	1	3	-0.220579	-2.2963	19.4138	-11.9856
 383	1	9	0.005883	-2.74461	18.1727	-11.4858
 384	1	6	0.164552	-3.63711	20.0043	-19.495
 385	1	6	0.136991	-5.83274	20.3332	-20.5354
 386	1	6	0.136379	-7.71519	20.174	-16.5439
 387	1	5	-0.461381	-6.17266	19.1672	-14.5489
 388	1	5	-0.471091	-2.11538	19.4505	-16.7625
 389	1	6	0.134736	-1.88535	20.1461	-11.2933
 390	1	6	0.169495	-4.18247	16.9751	-14.2773
 391	1	10	-0.554106	-2.14147	21.0336	-13.728
 392	1	9	-0.02772	-2.70148	17.6492	-10.095
 393	1	6	0.133194	-3.5391	16.2704	-12.01
 394	1	3	-0.144307	-2.11115	16.4038	-9.86856
 395	1	3	0.023803	-2.02932	15.8978	-8.60976
 396	1	3	0.335896	-2.44279	16.6638	-7.51085
 397	1	3	-0.53864	-3.06447	17.9028	-7.76436
 398	1	3	-0.029171	-3.13995	18.4418	-9.03602
 399	1	6	0.130758	-3.53077	19.4287	-9.20849
 400	1	6	0.243773	-3.37036	18.5425	-6.94683
 401	1	6	0.131936	-1.68256	15.8861	-10.6887
 402	1	10	-0.547641	-1.41119	14.7311	-8.43445
 403	1	11	0.436946	-2.72464	21.3408	-14.4572
 404	1	11	0.442856	-0.929253	14.5319	-9.28636
 405	1	3	-0.004194	1.68663	16.9084	-27.348
 406	1	3	-0.097141	2.49253	17.6314	-28.35
 407	1	3	-0.172015	3.85959	17.2633	-28.5426
 408	1	5	-0.377994	0.996429	15.6139	-24.5643
 409	1	3	0.033493	2.40837	16.0657	-26.4399
 410	1	3	-0.063739	4.46403	16.381	-27.6502
 411	1	5	-0.398381	5.18994	13.9147	-25.9575
 412	1	3	0.032144	3.75046	15.7789	-26.6135
 413	1	2	0.032313	1.98328	15.2817	-25.2651
 414	1	1	0.461698	3.0786	14.4662	-24.9454
 415	1	2	0.091945	4.16634	14.6292	-25.8077
 416	1	3	-0.10563	-0.145448	19.8396	-26.002
 417	1	7	-0.099376	1.84562	18.7583	-29.2267
 418	1	3	-0.043296	0.840005	19.5533	-28.2754
 419	1	3	-0.073043	0.961656	19.5603	-26.8542
 420	1	3	-0.117827	-1.27437	20.4464	-26.6033
 421	1	3	-0.037562	-0.259311	20.2966	-28.8177
 422	1	3	-0.083705	-1.26278	20.7615	-27.9356
 423	1	7	0.396	1.19261	17.9743	-30.4383
 424	1	7	0.310495	2.92083	19.8372	-29.6763
 425	1	8	-0.130298	0.187249	17.1548	-30.0361
 426	1	8	-0.128745	1.99568	17.3731	-31.2925
 427	1	8	-0.120019	0.675916	18.9133	-31.1738
 428	1	8	-0.104287	2.38067	20.9891	-30.1515
 429	1	8	-0.095507	3.85186	19.4566	-30.5323
 430	1	8	-0.104872	3.6987	20.132	-28.5821
 431	1	2	0.456145	-2.48377	21.5393	-28.2604
 432	1	2	0.550902	-2.63604	20.7146	-26.1048
 433	1	1	0.015704	-3.29594	21.3457	-27.1419
 434	1	5	-0.456801	-2.77617	22.0449	-29.3643
 435	1	5	-0.487703	-3.08005	20.2828	-25.0462
 436	1	3	-0.116566	-4.71472	21.3454	-27.22
 437	1	3	-0.050109	-5.46397	22.1028	-26.3129
 438	1	3	0.154929	-6.85511	21.9906	-26.3906
 439	1	3	0.041555	-5.34823	20.5684	-28.207
 440	1	3	-0.223109	-6.70634	20.8177	-28.4725
 441	1	3	-0.080449	-7.46731	21.5594	-27.5813
 442	1	7	-0.108008	-4.692	19.6375	-29.2601
 443	1	7	-0.182228	-8.98966	21.7268	-27.8228
 444	1	7	-0.345523	-4.7742	22.8437	-25.1869
 445	1	6	0.155183	0.641157	17.1014	-27.1793
 446	1	6	0.172904	4.48104	17.6256	-29.3233
 447	1	6	0.158028	5.49857	16.0422	-27.8167
 448	1	6	0.153129	-0.121856	19.6568	-24.9478
 449	1	6	0.142914	1.84492	19.1788	-26.3509
 450	1	6	0.135531	-0.354461	20.5302	-29.8831
 451	1	6	0.17765	-7.18703	20.3963	-29.3626
 452	1	12	0.046541	-5.47346	19.0456	-29.7637
 453	1	12	0.045238	-4.01795	18.9247	-28.7902
 454	1	12	0.051941	-4.19137	20.1573	-30.0651
 455	1	12	0.087961	-9.61459	21.0202	-27.224
 456	1	12	0.066782	-9.36277	21.5405	-28.8133
 457	1	12	0.075908	-9.31254	22.7301	-27.4599
 458	1	12	0.105172	-3.66491	22.9288	-25.2693
 459	1	12	0.115625	-5.01079	22.3581	-24.2674
 460	1	12	0.140296	-5.13255	23.8923	-25.1846
 461	1	1	0.463107	3.88066	3.02881	-10.3575
 462	1	2	0.061808	5.24214	3.30347	-10.4722
 463	1	3	0.001427	5.50545	3.12585	-11.9448
 464	1	2	0.068581	3.30479	2.60882	-11.5492
 465	1	3	0.040836	4.37698	2.78712	-12.5846
 466	1	5	-0.386232	5.97846	3.87458	-9.63766
 467	1	5	-0.391601	2.17627	2.28384	-11.7363
 468	1	3	-0.001718	6.68491	3.3604	-12.6644
 469	1	3	-0.033153	4.31892	2.71592	-13.9806
 470	1	3	-0.217995	5.50379	2.90393	-14.7163
 471	1	3	-0.067978	6.7213	3.18041	-14.0663
 472	1	6	0.155939	7.52343	3.78952	-12.0989
 473	1	6	0.152973	3.36564	2.57184	-14.5396
 474	1	6	0.17647	5.49088	2.81785	-15.8009
 475	1	7	-0.111335	8.02329	3.28308	-14.9283
 476	1	7	0.291988	9.32122	3.23861	-14.0545
 477	1	8	-0.108289	9.28327	4.35324	-13.3294
 478	1	8	-0.102972	10.4459	3.25608	-14.7863
 479	1	8	-0.103001	9.38462	2.07725	-13.372
 480	1	7	0.43552	8.06876	1.92309	-15.8184
 481	1	8	-0.137748	7.32518	0.980879	-15.2112
 482	1	8	-0.132227	9.24231	1.32188	-16.1206
 483	1	8	-0.124157	7.41522	2.11752	-16.9542
 484	1	3	-0.009135	8.00764	4.51991	-15.8649
 485	1	3	-0.073591	7.06627	5.57818	-15.6265
 486	1	3	-0.051923	7.07506	6.66652	-16.4451
 487	1	3	-0.057717	8.96315	4.71703	-16.8833
 488	1	3	-0.156758	8.94173	5.82371	-17.7505
 489	1	3	-0.020332	7.93768	6.74048	-17.5082
 490	1	2	0.469602	7.5184	7.67102	-18.5408
 491	1	1	-0.076132	6.33612	8.17057	-17.9796
 492	1	2	0.458333	6.02823	7.69278	-16.7252
 493	1	3	-0.008032	5.52872	9.15721	-18.6716
 494	1	3	-0.195997	5.03979	8.76189	-19.9699
 495	1	3	-0.113065	4.36991	9.64235	-20.8237
 496	1	3	0.271942	5.35995	10.5471	-18.3376
 497	1	3	-0.220579	4.76945	11.4699	-19.2153
 498	1	9	0.005883	4.21339	11.0386	-20.4308
 499	1	6	0.164552	9.60156	6.05065	-18.6252
 500	1	6	0.136991	9.7217	3.95968	-17.1221
 501	1	6	0.136379	6.34352	5.53237	-14.8058
 502	1	5	-0.461381	5.27611	8.21665	-15.9454
 503	1	5	-0.471091	8.01185	7.97509	-19.6066
 504	1	6	0.134736	4.70454	12.5134	-18.8629
 505	1	6	0.169495	5.11469	7.70086	-20.3072
 506	1	10	-0.554106	5.71965	10.9872	-17.0624
 507	1	9	-0.02772	3.65886	11.9993	-21.4862
 508	1	6	0.133194	4.14631	9.30347	-21.8495
 509	1	3	-0.144307	4.40919	13.1383	-21.6878
 510	1	3	0.023803	4.19437	13.9897	-22.7999
 511	1	3	0.335896	3.20324	13.6851	-23.76
 512	1	3	-0.53864	2.45082	12.5292	-23.5862
 513	1	3	-0.029171	2.62021	11.7014	-22.4766
 514	1	6	0.130758	1.99108	10.8094	-22.4147
 515	1	6	0.243773	1.68453	12.2451	-24.2629
 516	1	6	0.131936	5.23699	13.3211	-20.9928
 517	1	10	-0.547641	5.0949	14.9768	-22.9304
 518	1	11	0.436946	5.76328	10.1665	-16.4477
 519	1	11	0.442856	5.95058	14.5913	-23.1645
 520	1	3	-0.004194	8.15911	-3.40387	-6.38722
 521	1	3	-0.097141	8.84057	-2.69969	-5.39218
 522	1	3	-0.172015	10.0842	-2.11604	-5.75067
 523	1	5	-0.377994	7.37968	-5.21937	-8.82168
 524	1	3	0.033493	8.82607	-3.72756	-7.55546
 525	1	3	-0.063739	10.7103	-2.37594	-7.00707
 526	1	5	-0.398381	11.7877	-3.75382	-9.38373
 527	1	3	0.032144	10.0531	-3.20372	-7.84925
 528	1	2	0.032313	8.51105	-4.66898	-8.6211
 529	1	1	0.461698	9.66942	-4.85427	-9.32931
 530	1	2	0.091945	10.6121	-3.86719	-9.02935
 531	1	3	-0.10563	4.32282	-2.0833	-3.91368
 532	1	7	-0.099376	8.2218	-2.57801	-3.97148
 533	1	3	-0.043296	6.78595	-2.0601	-4.13637
 534	1	3	-0.073043	5.57577	-2.713	-3.69618
 535	1	3	-0.117827	4.19827	-0.811297	-4.52849
 536	1	3	-0.037562	6.64021	-0.827685	-4.75711
 537	1	3	-0.083705	5.3865	-0.208802	-4.85214
 538	1	7	0.396	8.33192	-4.02606	-3.37112
 539	1	7	0.310495	9.04727	-1.55272	-3.05106
 540	1	8	-0.130298	7.51609	-4.94391	-3.92597
 541	1	8	-0.128745	8.03035	-4.08787	-2.08156
 542	1	8	-0.120019	9.59737	-4.39572	-3.50217
 543	1	8	-0.104287	9.34307	-0.363339	-3.64668
 544	1	8	-0.095507	10.2648	-2.09636	-2.70224
 545	1	8	-0.104872	8.32515	-1.21884	-1.87183
 546	1	2	0.456145	5.17427	1.04677	-5.62998
 547	1	2	0.550902	3.17048	-0.0410456	-5.34964
 548	1	1	0.015704	3.78951	1.08992	-5.91397
 549	1	5	-0.456801	6.03702	1.74719	-6.07848
 550	1	5	-0.487703	2.03696	-0.342519	-5.47645
 551	1	3	-0.116566	3.19718	2.03679	-6.83222
 552	1	3	-0.050109	3.54151	1.97469	-8.20967
 553	1	3	0.154929	3.2428	3.03703	-9.10248
 554	1	3	0.041555	2.34433	3.1026	-6.3661
 555	1	3	-0.223109	2.01556	4.12666	-7.27586
 556	1	3	-0.080449	2.47499	4.12537	-8.64418
 557	1	7	-0.108008	1.56693	2.93278	-5.0492
 558	1	7	-0.182228	2.06296	5.2858	-9.56024
 559	1	7	-0.345523	4.21323	0.676694	-8.78619
 560	1	6	0.155183	7.21961	-3.93756	-6.26366
 561	1	6	0.172904	10.6634	-1.50984	-5.03934
 562	1	6	0.158028	11.7087	-1.98481	-7.19871
 563	1	6	0.153129	3.37817	-2.69173	-3.68562
 564	1	6	0.142914	5.55509	-3.65268	-3.15793
 565	1	6	0.135531	7.48475	-0.294399	-5.12146
 566	1	6	0.17765	1.30711	4.95192	-6.98389
 567	1	12	0.046541	0.956683	3.82046	-4.87106
 568	1	12	0.045238	2.36271	2.87565	-4.31177
 569	1	12	0.051941	0.984721	2.02827	-5.0929
 570	1	12	0.087961	1.79635	4.96806	-10.5941
 571	1	12	0.066782	2.88759	5.98081	-9.68479
 572	1	12	0.075908	1.19194	5.84694	-9.19507
 573	1	12	0.105172	3.74328	0.431089	-9.77842
 574	1	12	0.115625	4.05408	-0.152095	-8.10118
 575	1	12	0.140296	5.3172	0.778538	-8.92636
 576	1	3	-0.004194	13.1619	-14.8721	-5.79948
 577	1	3	-0.097141	13.2255	-14.6464	-4.44007
 578	1	3	-0.172015	12.8973	-15.746	-3.5908
 579	1	5	-0.377994	12.3165	-15.5459	-8.5238
 580	1	3	0.033493	12.6531	-16.0485	-6.26218
 581	1	3	-0.063739	12.432	-16.9459	-4.12157
 582	1	5	-0.398381	11.131	-19.1386	-6.03029
 583	1	3	0.032144	12.2833	-17.0293	-5.4665
 584	1	2	0.032313	12.3288	-16.3759	-7.66415
 585	1	1	0.461698	11.6217	-17.5437	-7.57376
 586	1	2	0.091945	11.6523	-18.104	-6.30153
 587	1	3	-0.10563	10.1848	-12.0572	-5.87772
 588	1	7	-0.099376	13.3256	-13.1807	-3.9792
 589	1	3	-0.043296	12.3892	-12.349	-4.86789
 590	1	3	-0.073043	11.0366	-12.7586	-5.0356
 591	1	3	-0.117827	10.7094	-10.9844	-6.62153
 592	1	3	-0.037562	12.9185	-11.2576	-5.64127
 593	1	3	-0.083705	12.0308	-10.6131	-6.45336
 594	1	7	0.396	14.855	-12.773	-3.94682
 595	1	7	0.310495	12.8216	-13.0588	-2.57278
 596	1	8	-0.130298	15.4884	-13.7195	-3.25191
 597	1	8	-0.128745	15.1642	-11.6246	-3.44316
 598	1	8	-0.120019	15.4361	-12.7025	-5.19989
 599	1	8	-0.104287	11.6149	-13.6506	-2.33022
 600	1	8	-0.095507	12.6911	-11.7769	-2.19601
 601	1	8	-0.104872	13.7326	-13.5762	-1.60077
 602	1	2	0.456145	12.2855	-9.54451	-7.41926
 603	1	2	0.550902	10.0304	-10.0804	-7.55795
 604	1	1	0.015704	11.0724	-9.34051	-8.10232
 605	1	5	-0.456801	13.3261	-8.91995	-7.59939
 606	1	5	-0.487703	8.83689	-10.2018	-7.93184
 607	1	3	-0.116566	10.7687	-8.45056	-9.16132
 608	1	3	-0.050109	10.472	-7.14813	-8.75469
 609	1	3	0.154929	10.0944	-6.20538	-9.77382
 610	1	3	0.041555	10.5943	-8.95549	-10.5347
 611	1	3	-0.223109	10.3052	-7.99558	-11.5199
 612	1	3	-0.080449	10.0342	-6.61188	-11.134
 613	1	7	-0.108008	10.7939	-10.3869	-11.0279
 614	1	7	-0.182228	9.54875	-5.67608	-12.1632
 615	1	7	-0.345523	10.5822	-6.73649	-7.24315
 616	1	6	0.155183	13.2565	-14.1036	-6.54956
 617	1	6	0.172904	12.7853	-15.6886	-2.51118
 618	1	6	0.158028	11.922	-17.6577	-3.53635
 619	1	6	0.153129	9.17245	-12.4394	-6.01877
 620	1	6	0.142914	10.5614	-13.5834	-4.51529
 621	1	6	0.135531	13.9172	-10.8843	-5.55906
 622	1	6	0.17765	10.1612	-8.28323	-12.5683
 623	1	12	0.046541	9.84365	-10.8934	-11.2154
 624	1	12	0.045238	11.2826	-10.9711	-10.2495
 625	1	12	0.051941	11.3384	-10.4045	-11.986
 626	1	12	0.087961	9.41032	-4.5932	-11.8688
 627	1	12	0.066782	8.59961	-6.07322	-12.5668
 628	1	12	0.075908	10.311	-5.5994	-12.9665
 629	1	12	0.105172	10.9979	-5.69977	-7.05347
 630	1	12	0.115625	11.123	-7.35102	-6.51991
 631	1	12	0.140296	9.5337	-6.7602	-6.8752
 632	1	1	0.463107	0.751753	-13.8586	-19.3395
 633	1	2	0.061808	1.73913	-14.7889	-18.9273