pySIMM System Object

1769 atoms
1934 bonds
3366 angles
5102 dihedrals
518 impropers

12 atom types
15 bond types
24 angle types
10 dihedral types
4 improper types

-153.184257 153.184257 xlo xhi
-153.184257 153.184257 ylo yhi
-153.184257 153.184257 zlo zhi

Masses

   1	12.01	# ca
   2	16.0	# o
   3	12.01	# c
   4	14.01	# n
   5	12.01	# c3
   6	19.0	# f
   7	1.008	# ha
   8	1.008	# hn
   9	1.008	# hc
  10	12.01	# cp
  11	16.0	# oh
  12	1.008	# ho

Pair Coeffs

   1	0.086	3.3996695084235347	# ca
   2	0.21	2.959921901149463	# o
   3	0.086	3.3996695084235347	# c
   4	0.17	3.249998523775958	# n
   5	0.1094	3.3996695084235347	# c3
   6	0.061	3.1181455134911875	# f
   7	0.015	2.59964245953351	# ha
   8	0.0157	1.069078461768407	# hn
   9	0.0157	2.649532787749369	# hc
  10	0.086	3.3996695084235347	# cp
  11	0.2104	3.0664733878390478	# oh
  12	0.0047	0.5379246460131368	# ho

Bond Coeffs

   1	300.9	1.5375	# c3,c3
   2	637.7	1.2183	# c,o
   3	345.8	1.086	# ca,ha
   4	356.9	1.3497	# c3,f
   5	427.6	1.3789	# c,n
   6	345.9	1.4906	# c,ca
   7	384.2	1.4121	# ca,n
   8	321.0	1.5156	# c3,ca
   9	330.6	1.0969	# c3,hc
  10	403.2	1.0129	# hn,n
  11	461.1	1.3984	# ca,ca
  12	450.2	1.4058	# ca,cp
  13	371.4	0.973	# ho,oh
  14	384.0	1.3637	# ca,oh
  15	351.4	1.4854	# cp,cp

Angle Coeffs

   1	63.15	112.07	# c3,c3,ca
   2	67.68	115.25	# ca,c,n
   3	63.82	123.71	# c,n,ca
   4	48.33	117.55	# c,n,hn
   5	39.4	107.58	# hc,c3,hc
   6	74.22	123.05	# n,c,o
   7	63.53	120.77	# c3,ca,ca
   8	48.18	119.88	# ca,ca,ha
   9	63.74	127.08	# c,n,c
  10	67.87	120.19	# ca,ca,n
  11	64.28	120.33	# c,ca,ca
  12	63.56	112.24	# ca,c3,ca
  13	70.89	107.36	# f,c3,f
  14	46.8	110.47	# ca,c3,hc
  15	66.62	120.02	# ca,ca,ca
  16	66.11	109.24	# c3,c3,f
  17	62.86	111.51	# c3,c3,c3
  18	68.72	122.6	# ca,c,o
  19	66.72	118.38	# ca,cp,ca
  20	49.0	108.58	# ca,oh,ho
  21	66.26	120.69	# ca,ca,cp
  22	69.52	119.9	# ca,ca,oh
  23	64.05	121.11	# ca,cp,cp
  24	47.98	119.86	# cp,ca,ha

Dihedral Coeffs

   1	2	2.5	2	180	2.0	1	0	# hn,n,c,o
   2	1	3.625	2	180	# X,ca,ca,X
   3	1	1.0	2	180	# X,c,ca,X
   4	1	0.15555555555555556	3	0	# X,c3,c3,X
   5	1	0.0	2	0	# X,c3,ca,X
   6	1	2.5	2	180	# X,c,n,X
   7	1	0.45	2	180	# X,ca,n,X
   8	1	1.0	2	180	# X,cp,cp,X
   9	1	3.625	2	180	# X,ca,cp,X
  10	1	0.9	2	180	# X,ca,oh,X

Improper Coeffs

   1	10.5	-1	2	# c,X,X,o
   2	1.1	-1	2	# n,X,X,hn
   3	1.1	-1	2	# ca,ca,ca,c3
   4	1.1	-1	2	# ca,X,X,ha

Atoms

   1	1	1	-0.004194	-19.0866	-2.59475	-26.1077
   2	1	1	-0.097141	-19.1886	-3.81814	-26.8423
   3	1	1	-0.172015	-17.9831	-4.44992	-27.255
   4	1	2	-0.377994	-18.1724	-0.095393	-24.4442
   5	1	1	0.033493	-17.8269	-2.13637	-25.6983
   6	1	1	-0.063739	-16.7203	-3.93267	-26.8811
   7	1	2	-0.398381	-14.3383	-2.4668	-25.509
   8	1	1	0.032144	-16.6726	-2.80072	-26.0592
   9	1	3	0.032313	-17.436	-0.973972	-24.8505
  10	1	4	0.461698	-16.0591	-1.08292	-24.6725
  11	1	3	0.091945	-15.5099	-2.1377	-25.4044
  12	1	1	-0.10563	-21.4914	-6.79177	-30.1109
  13	1	5	-0.099376	-20.5447	-4.57952	-27.0241
  14	1	1	-0.043296	-20.6886	-5.11638	-28.4807
  15	1	1	-0.073043	-21.275	-6.37843	-28.785
  16	1	1	-0.117827	-21.1012	-5.93414	-31.1355
  17	1	1	-0.037562	-20.3452	-4.25595	-29.5569
  18	1	1	-0.083705	-20.5519	-4.69784	-30.8726
  19	1	5	0.396	-20.5896	-5.69413	-25.889
  20	1	5	0.310495	-21.7897	-3.64612	-26.8379
  21	1	6	-0.130298	-21.8225	-6.19621	-25.6654
  22	1	6	-0.128745	-20.1341	-5.23385	-24.6969
  23	1	6	-0.120019	-19.8257	-6.76637	-26.182
  24	1	6	-0.104287	-21.6874	-2.52941	-27.5888
  25	1	6	-0.095507	-21.932	-3.26486	-25.5577
  26	1	6	-0.104872	-22.9513	-4.24282	-27.1988
  27	1	3	0.456145	-20.1759	-4.09777	-32.1885
  28	1	3	0.550902	-21.0313	-6.1912	-32.5952
  29	1	4	0.015704	-20.3956	-5.08956	-33.144
  30	1	2	-0.456801	-19.6629	-3.00804	-32.3597
  31	1	2	-0.487703	-21.2972	-7.24684	-33.1408
  32	1	1	-0.116566	-19.7877	-5.12932	-34.4415
  33	1	1	-0.050109	-20.5858	-5.18964	-35.6154
  34	1	1	0.154929	-19.9516	-5.28165	-36.867
  35	1	1	0.041555	-18.3737	-5.23488	-34.5516
  36	1	1	-0.223109	-17.7666	-5.30187	-35.8148
  37	1	1	-0.080449	-18.552	-5.30533	-36.9719
  38	1	5	-0.108008	-17.4467	-5.28371	-33.3372
  39	1	5	-0.182228	-17.9025	-5.38878	-38.3354
  40	1	5	-0.345523	-22.1174	-5.20321	-35.5789
  41	1	7	0.155183	-19.9472	-2.0391	-25.7609
  42	1	7	0.172904	-18.0239	-5.38304	-27.8199
  43	1	7	0.158028	-15.7979	-4.44286	-27.1562
  44	1	7	0.153129	-21.9139	-7.7706	-30.3358
  45	1	7	0.142914	-21.5876	-7.04907	-27.9947
  46	1	7	0.135531	-19.9047	-3.27381	-29.3817
  47	1	7	0.17765	-16.6833	-5.3437	-35.8936
  48	1	9	0.046541	-17.9246	-5.72742	-32.4528
  49	1	9	0.045238	-17.0999	-4.2802	-33.0711
  50	1	9	0.051941	-16.5565	-5.89229	-33.5375
  51	1	9	0.087961	-18.3838	-6.1519	-38.9574
  52	1	9	0.066782	-16.8361	-5.63925	-38.2598
  53	1	9	0.075908	-17.9876	-4.4298	-38.8574
  54	1	9	0.105172	-22.5033	-4.34673	-35.0151
  55	1	9	0.115625	-22.4971	-6.11925	-35.1012
  56	1	9	0.140296	-22.5582	-5.16412	-36.5882
  57	1	1	-0.004194	-16.3155	1.93667	-13.1132
  58	1	1	-0.097141	-15.2043	2.78703	-13.3629
  59	1	1	-0.172015	-15.1262	3.99555	-12.5981
  60	1	2	-0.377994	-18.8592	0.49476	-11.9715
  61	1	1	0.033493	-17.23	2.28781	-12.1075
  62	1	1	-0.063739	-16.1146	4.37767	-11.6702
  63	1	2	-0.398381	-18.5502	4.57586	-9.78685
  64	1	1	0.032144	-17.1509	3.48803	-11.4307
  65	1	3	0.032313	-18.4179	1.56393	-11.584
  66	1	4	0.461698	-18.9644	2.4028	-10.6122
  67	1	3	0.091945	-18.2774	3.60445	-10.4794
  68	1	1	-0.10563	-16.4733	2.65759	-17.4848
  69	1	5	-0.099376	-14.107	2.3645	-14.4135
  70	1	1	-0.043296	-14.7283	2.11207	-15.818
  71	1	1	-0.073043	-15.9515	2.74896	-16.1825
  72	1	1	-0.117827	-15.7542	1.91335	-18.4216
  73	1	1	-0.037562	-14.0199	1.38472	-16.8161
  74	1	1	-0.083705	-14.5571	1.31085	-18.1015
  75	1	5	0.396	-13.0469	3.50273	-14.6687
  76	1	5	0.310495	-13.3876	1.07889	-13.8484
  77	1	6	-0.130298	-13.6577	4.6219	-15.0993
  78	1	6	-0.128745	-12.1511	3.20717	-15.6418
  79	1	6	-0.120019	-12.329	3.82714	-13.5753
  80	1	6	-0.104287	-12.172	0.828272	-14.4063
  81	1	6	-0.095507	-14.1365	-0.0347342	-14.0356
  82	1	6	-0.104872	-13.205	1.199	-12.5146
  83	1	3	0.456145	-13.9757	0.70096	-19.3233
  84	1	3	0.550902	-15.9931	1.70539	-19.8664
  85	1	4	0.015704	-14.8759	1.02574	-20.3393
  86	1	2	-0.456801	-12.8864	0.151418	-19.3929
  87	1	2	-0.487703	-16.9285	2.16503	-20.4981
  88	1	1	-0.116566	-14.6705	0.84116	-21.7367
  89	1	1	-0.050109	-15.3826	-0.150669	-22.4586
  90	1	1	0.154929	-15.3055	-0.163004	-23.8867
  91	1	1	0.041555	-13.8656	1.77342	-22.4195
  92	1	1	-0.223109	-13.8056	1.75445	-23.8124
  93	1	1	-0.080449	-14.5167	0.807406	-24.5554
  94	1	5	-0.108008	-13.1193	2.88455	-21.6943
  95	1	5	-0.182228	-14.445	0.927143	-26.0731
  96	1	5	-0.345523	-16.198	-1.18458	-21.6637
  97	1	7	0.155183	-16.4556	1.00588	-13.6589
  98	1	7	0.172904	-14.3069	4.69149	-12.7122
  99	1	7	0.158028	-16.0522	5.31677	-11.1224
 100	1	7	0.153129	-17.3887	3.17613	-17.7657
 101	1	7	0.142914	-16.4828	3.37252	-15.4696
 102	1	7	0.135531	-13.0502	0.92839	-16.6384
 103	1	7	0.17765	-13.2254	2.51562	-24.3263
 104	1	9	0.046541	-12.3519	3.3395	-22.327
 105	1	9	0.045238	-12.5997	2.51562	-20.8062
 106	1	9	0.051941	-13.805	3.67415	-21.3778
 107	1	9	0.087961	-13.6854	1.65824	-26.3828
 108	1	9	0.066782	-15.4044	1.2624	-26.4813
 109	1	9	0.075908	-14.1742	-0.0236776	-26.5501
 110	1	9	0.105172	-16.5386	-2.02725	-22.274
 111	1	9	0.115625	-17.0903	-0.732455	-21.2057
 112	1	9	0.140296	-15.5947	-1.62923	-20.8592
 113	1	1	-0.004194	-28.0604	3.61677	-17.243
 114	1	1	-0.097141	-27.2594	3.56482	-16.0611
 115	1	1	-0.172015	-26.1154	2.71716	-16.0549
 116	1	2	-0.377994	-29.1876	3.43317	-20.1674
 117	1	1	0.033493	-27.7299	2.8012	-18.3319
 118	1	1	-0.063739	-25.8478	1.85093	-17.1261
 119	1	2	-0.398381	-25.7657	0.329893	-19.7886
 120	1	1	0.032144	-26.6817	1.91571	-18.2442
 121	1	3	0.032313	-28.3018	2.73059	-19.7114
 122	1	4	0.461698	-27.5624	1.74676	-20.3694
 123	1	3	0.091945	-26.5856	1.19448	-19.5333
 124	1	1	-0.10563	-26.7149	1.46282	-12.457
 125	1	5	-0.099376	-27.5421	4.44401	-14.8021
 126	1	1	-0.043296	-27.0128	3.65885	-13.5528
 127	1	1	-0.073043	-27.3818	2.29159	-13.3812
 128	1	1	-0.117827	-25.7155	2.03506	-11.6675
 129	1	1	-0.037562	-26.0846	4.2189	-12.6394
 130	1	1	-0.083705	-25.4569	3.38644	-11.7127
 131	1	5	0.396	-29.0873	4.69451	-14.5818
 132	1	5	0.310495	-26.8203	5.83152	-15.0815
 133	1	6	-0.130298	-29.8206	3.5595	-14.7125
 134	1	6	-0.128745	-29.593	5.59968	-15.453
 135	1	6	-0.120019	-29.3481	5.1749	-13.3412
 136	1	6	-0.104287	-25.4699	5.73383	-15.1364
 137	1	6	-0.095507	-27.1224	6.73721	-14.1271
 138	1	6	-0.104872	-27.1701	6.36596	-16.2774
 139	1	3	0.456145	-24.3139	3.66784	-10.8043
 140	1	3	0.550902	-24.694	1.40156	-10.8035
 141	1	4	0.015704	-23.8616	2.42741	-10.399
 142	1	2	-0.456801	-23.7969	4.74214	-10.5692
 143	1	2	-0.487703	-24.5322	0.2079	-10.6386
 144	1	1	-0.116566	-22.5995	2.18958	-9.78563
 145	1	1	-0.050109	-21.406	2.34488	-10.5343
 146	1	1	0.154929	-20.1594	2.11251	-9.90204
 147	1	1	0.041555	-22.5549	1.71425	-8.45843
 148	1	1	-0.223109	-21.3192	1.40245	-7.87872
 149	1	1	-0.080449	-20.1176	1.59747	-8.58231
 150	1	5	-0.108008	-23.8195	1.58482	-7.6193
 151	1	5	-0.182228	-18.8122	1.20407	-7.89834
 152	1	5	-0.345523	-21.4915	2.77927	-12.0113
 153	1	7	0.155183	-28.9012	4.29374	-17.3515
 154	1	7	0.172904	-25.4282	2.70578	-15.2122
 155	1	7	0.158028	-24.9964	1.17494	-17.1158
 156	1	7	0.153129	-26.93	0.397991	-12.3897
 157	1	7	0.142914	-28.1076	1.83608	-14.0482
 158	1	7	0.135531	-25.7803	5.25851	-12.6839
 159	1	7	0.17765	-21.2886	1.01806	-6.86134
 160	1	9	0.046541	-24.3892	0.694121	-7.89533
 161	1	9	0.045238	-24.4725	2.46315	-7.74654
 162	1	9	0.051941	-23.5871	1.52141	-6.54562
 163	1	9	0.087961	-18.9799	0.449949	-7.12436
 164	1	9	0.066782	-18.3423	2.07292	-7.41934
 165	1	9	0.075908	-18.0906	0.772693	-8.60068
 166	1	9	0.105172	-22.349	2.32401	-12.5198
 167	1	9	0.115625	-20.6259	2.49699	-12.6203
 168	1	9	0.140296	-21.6026	3.87104	-12.0798
 169	1	1	-0.004194	-18.0845	4.69071	-25.5523
 170	1	1	-0.097141	-19.4487	4.34801	-25.4104
 171	1	1	-0.172015	-20.1236	4.69516	-24.204
 172	1	2	-0.377994	-15.2288	5.7384	-25.2959
 173	1	1	0.033493	-17.4597	5.3567	-24.5051
 174	1	1	-0.063739	-19.4525	5.33954	-23.1449
 175	1	2	-0.398381	-17.3964	6.63496	-21.2514
 176	1	1	0.032144	-18.1123	5.66514	-23.3299
 177	1	3	0.032313	-16.0789	5.85002	-24.4266
 178	1	4	0.461698	-15.9835	6.41046	-23.1542
 179	1	3	0.091945	-17.1642	6.31877	-22.4091
 180	1	1	-0.10563	-21.8782	0.797599	-24.7256
 181	1	5	-0.099376	-20.2336	3.73574	-26.6029
 182	1	1	-0.043296	-21.3546	2.81276	-26.0448
 183	1	1	-0.073043	-20.953	1.727	-25.2225
 184	1	1	-0.117827	-23.2243	0.968357	-25.0579
 185	1	1	-0.037562	-22.7457	3.00625	-26.2752
 186	1	1	-0.083705	-23.6554	2.07309	-25.7619
 187	1	5	0.396	-20.7776	4.95449	-27.4333
 188	1	5	0.310495	-19.3448	2.81033	-27.5513
 189	1	6	-0.130298	-21.4157	4.54882	-28.555
 190	1	6	-0.128745	-19.7874	5.79923	-27.8196
 191	1	6	-0.120019	-21.6413	5.70734	-26.7101
 192	1	6	-0.104287	-18.5833	3.47508	-28.4498
 193	1	6	-0.095507	-20.1403	1.97644	-28.2728
 194	1	6	-0.104872	-18.4755	2.02747	-26.864
 195	1	3	0.456145	-25.1368	2.15896	-25.6281
 196	1	3	0.550902	-24.3999	0.291477	-24.4687
 197	1	4	0.015704	-25.4775	1.11606	-24.7629
 198	1	2	-0.456801	-25.8234	3.09696	-26.0015
 199	1	2	-0.487703	-24.366	-0.685818	-23.7376
 200	1	1	-0.116566	-26.668	1.06002	-23.9684
 201	1	1	-0.050109	-26.6233	1.60154	-22.6507
 202	1	1	0.154929	-27.705	1.39829	-21.7565
 203	1	1	0.041555	-27.8389	0.426483	-24.4443
 204	1	1	-0.223109	-28.9312	0.29146	-23.5695
 205	1	1	-0.080449	-28.8618	0.731611	-22.2272
 206	1	5	-0.108008	-27.9317	-0.161106	-25.8562
 207	1	5	-0.182228	-30.0238	0.421887	-21.289
 208	1	5	-0.345523	-25.3964	2.41258	-22.2211
 209	1	7	0.155183	-17.5216	4.49353	-26.4591
 210	1	7	0.172904	-21.1805	4.47344	-24.0847
 211	1	7	0.158028	-19.9541	5.58896	-22.2137
 212	1	7	0.153129	-21.5627	-0.00238105	-24.0566
 213	1	7	0.142914	-19.9114	1.62187	-24.9309
 214	1	7	0.135531	-23.1421	3.86221	-26.8081
 215	1	7	0.17765	-29.8231	-0.210894	-23.922
 216	1	9	0.046541	-27.765	0.610709	-26.6121
 217	1	9	0.045238	-28.925	-0.591466	-26.0462
 218	1	9	0.051941	-27.1845	-0.952078	-26.0007
 219	1	9	0.087961	-30.7556	-0.236664	-21.7714
 220	1	9	0.066782	-30.5581	1.3312	-20.998
 221	1	9	0.075908	-29.6839	-0.0864288	-20.3746
 222	1	9	0.105172	-25.5354	2.99459	-21.2981
 223	1	9	0.115625	-25.1442	3.15686	-22.993
 224	1	9	0.140296	-24.5286	1.7614	-22.0644
 225	1	4	0.463107	2.21561	14.9651	-15.7808
 226	1	3	0.061808	1.46712	14.0688	-15.0196
 227	1	1	0.001427	0.185695	13.9233	-15.7428
 228	1	3	0.068581	1.59486	15.3224	-16.9794
 229	1	1	0.040836	0.268565	14.6424	-16.9176
 230	1	2	-0.386232	1.74627	13.5721	-13.938
 231	1	2	-0.391601	1.98799	16.0989	-17.8384
 232	1	1	-0.001718	-0.988103	13.2849	-15.3392
 233	1	1	-0.033153	-0.803455	14.6776	-17.8093
 234	1	1	-0.217995	-1.99672	14.0366	-17.4285
 235	1	1	-0.067978	-2.12138	13.3471	-16.1872
 236	1	7	0.155939	-1.00159	12.7907	-14.3726
 237	1	7	0.152973	-0.74036	15.2434	-18.7346
 238	1	7	0.17647	-2.85586	14.1269	-18.0902
 239	1	5	-0.111335	-3.51719	12.8181	-15.7467
 240	1	5	0.291988	-3.49458	11.7304	-14.5969
 241	1	6	-0.108289	-2.61651	10.7297	-14.8471
 242	1	6	-0.102972	-4.70117	11.1394	-14.4528
 243	1	6	-0.103001	-3.17416	12.2255	-13.3864
 244	1	5	0.43552	-4.31587	14.0949	-15.2556
 245	1	6	-0.137748	-3.60651	14.805	-14.3586
 246	1	6	-0.132227	-5.49753	13.8295	-14.6614
 247	1	6	-0.124157	-4.5968	14.9347	-16.2689
 248	1	1	-0.009135	-4.17582	12.0977	-16.9551
 249	1	1	-0.073591	-5.56762	12.1885	-17.2015
 250	1	1	-0.051923	-6.1279	11.3548	-18.159
 251	1	1	-0.057717	-3.3964	11.2012	-17.7397
 252	1	1	-0.156758	-3.98016	10.3937	-18.7342
 253	1	1	-0.020332	-5.36527	10.4793	-18.9071
 254	1	3	0.469602	-6.29057	9.66266	-19.736
 255	1	4	-0.076132	-7.55651	10.1207	-19.4109
 256	1	3	0.458333	-7.55197	11.1511	-18.4917
 257	1	1	-0.008032	-8.74554	9.62173	-19.9873
 258	1	1	-0.195997	-9.07065	8.26418	-19.8407
 259	1	1	-0.113065	-10.2592	7.78316	-20.3956
 260	1	1	0.271942	-9.59262	10.4741	-20.7191
 261	1	1	-0.220579	-10.764	9.98313	-21.2989
 262	1	10	0.005883	-11.1217	8.63006	-21.126
 263	1	7	0.164552	-3.39048	9.67823	-19.3031
 264	1	7	0.136991	-2.33111	11.0943	-17.5414
 265	1	7	0.136379	-6.23753	12.8102	-16.616
 266	1	2	-0.461381	-8.50919	11.7993	-18.0967
 267	1	2	-0.471091	-6.0103	8.71613	-20.4517
 268	1	7	0.134736	-11.3842	10.6509	-21.8887
 269	1	7	0.169495	-8.41676	7.59683	-19.2866
 270	1	11	-0.554106	-9.2886	11.784	-20.871
 271	1	10	-0.02772	-12.3688	8.07847	-21.7078
 272	1	7	0.133194	-10.5297	6.7426	-20.2352
 273	1	1	-0.144307	-13.5505	8.85376	-21.7595
 274	1	1	0.023803	-14.7494	8.31045	-22.2385
 275	1	1	0.335896	-14.7723	6.97477	-22.6834
 276	1	1	-0.53864	-13.5788	6.22507	-22.7057
 277	1	1	-0.029171	-12.384	6.76812	-22.2246
 278	1	7	0.130758	-11.4665	6.18241	-22.2682
 279	1	7	0.243773	-13.5784	5.23201	-23.1505
 280	1	7	0.131936	-13.5287	9.8732	-21.391
 281	1	11	-0.547641	-15.8552	9.11063	-22.3489
 282	1	12	0.436946	-9.11287	12.1211	-19.9663
 283	1	12	0.442856	-15.6992	9.95184	-21.8761
 284	1	1	-0.004194	13.0261	11.5937	-16.889
 285	1	1	-0.097141	12.7942	12.9584	-16.5581
 286	1	1	-0.172015	12.7492	13.3097	-15.1786
 287	1	2	-0.377994	13.7112	8.57334	-16.9376
 288	1	1	0.033493	13.2325	10.6693	-15.8642
 289	1	1	-0.063739	12.9267	12.3523	-14.1623
 290	1	2	-0.398381	13.1527	9.75625	-12.5198
 291	1	1	0.032144	13.1803	11.0318	-14.5401
 292	1	3	0.032313	13.5131	9.21725	-15.9283
 293	1	4	0.461698	13.5847	8.79023	-14.608
 294	1	3	0.091945	13.3338	9.81675	-13.716
 295	1	1	-0.10563	10.0622	17.017	-17.5114
 296	1	5	-0.099376	12.6356	14.0744	-17.6482
 297	1	1	-0.043296	11.3432	14.8936	-17.3614
 298	1	1	-0.073043	11.2273	16.2584	-17.7424
 299	1	1	-0.117827	8.99974	16.3876	-16.8876
 300	1	1	-0.037562	10.2171	14.2939	-16.7349
 301	1	1	-0.083705	9.0811	15.0667	-16.4944
 302	1	5	0.396	13.962	14.9461	-17.5764
 303	1	5	0.310495	12.4747	13.5314	-19.1241
 304	1	6	-0.130298	14.1259	15.7537	-18.6508
 305	1	6	-0.128745	15.0777	14.18	-17.5318
 306	1	6	-0.120019	14.0222	15.729	-16.4774
 307	1	6	-0.104287	12.1694	14.4928	-20.0304
 308	1	6	-0.095507	11.4562	12.6475	-19.2087
 309	1	6	-0.104872	13.6008	12.9382	-19.5762
 310	1	3	0.456145	7.83849	14.7302	-15.7696
 311	1	3	0.550902	7.69561	16.9526	-16.47
 312	1	4	0.015704	7.07614	15.8954	-15.8033
 313	1	2	-0.456801	7.54439	13.6358	-15.3154
 314	1	2	-0.487703	7.28733	18.0926	-16.6648
 315	1	1	-0.116566	5.78673	15.9997	-15.223
 316	1	1	-0.050109	4.66638	15.3725	-15.8206
 317	1	1	0.154929	3.37487	15.5941	-15.2613
 318	1	1	0.041555	5.63735	16.7452	-14.0354
 319	1	1	-0.223109	4.35913	16.9166	-13.4777
 320	1	1	-0.080449	3.21661	16.4094	-14.1098
 321	1	5	-0.108008	6.83695	17.3507	-13.3051
 322	1	5	-0.182228	1.85121	16.7276	-13.4826
 323	1	5	-0.345523	4.86618	14.5008	-17.0736
 324	1	7	0.155183	13.0805	11.2376	-17.9102
 325	1	7	0.172904	12.604	14.3509	-14.888
 326	1	7	0.158028	12.8985	12.6318	-13.1061
 327	1	7	0.153129	9.99983	18.0643	-17.7972
 328	1	7	0.142914	12.0448	16.7671	-18.2359
 329	1	7	0.135531	10.2265	13.2583	-16.4081
 330	1	7	0.17765	4.25518	17.4788	-12.5569
 331	1	9	0.046541	6.52039	18.0546	-12.522
 332	1	9	0.045238	7.50003	17.9186	-13.9771
 333	1	9	0.051941	7.42707	16.5742	-12.8227
 334	1	9	0.087961	1.47055	15.8926	-12.8857
 335	1	9	0.066782	1.09324	16.9784	-14.2401
 336	1	9	0.075908	1.9034	17.5952	-12.8146
 337	1	9	0.105172	3.95699	14.0203	-17.4479
 338	1	9	0.115625	5.57606	13.686	-16.8919
 339	1	9	0.140296	5.25512	15.1067	-17.9017
 340	1	1	-0.004194	10.7061	-0.940305	-9.06218
 341	1	1	-0.097141	9.42819	-1.09947	-9.66698
 342	1	1	-0.172015	8.35847	-1.63248	-8.89321
 343	1	2	-0.377994	13.0852	-0.507503	-7.21635
 344	1	1	0.033493	10.8524	-1.23851	-7.71467
 345	1	1	-0.063739	8.54058	-1.91897	-7.51988
 346	1	2	-0.398381	9.63442	-2.07931	-4.56135
 347	1	1	0.032144	9.80216	-1.7056	-6.95007
 348	1	3	0.032313	12.0034	-0.940266	-6.85357
 349	1	4	0.461698	11.5689	-1.24227	-5.56735
 350	1	3	0.091945	10.2688	-1.73255	-5.53683
 351	1	1	-0.10563	9.95136	3.03459	-10.5503
 352	1	5	-0.099376	9.30105	-0.73599	-11.1573
 353	1	1	-0.043296	9.91066	0.687795	-11.331
 354	1	1	-0.073043	9.50192	1.71093	-10.4329
 355	1	1	-0.117827	10.8349	3.32006	-11.5916
 356	1	1	-0.037562	10.804	1.03161	-12.3723
 357	1	1	-0.083705	11.2439	2.36061	-12.4861
 358	1	5	0.396	7.82525	-0.64037	-11.6345
 359	1	5	0.310495	10.042	-1.86225	-11.96
 360	1	6	-0.130298	7.10603	0.172528	-10.8303
 361	1	6	-0.128745	7.80316	-0.0655633	-12.8502
 362	1	6	-0.120019	7.16027	-1.8275	-11.7348
 363	1	6	-0.104287	9.82986	-1.82942	-13.313
 364	1	6	-0.095507	9.68779	-3.07562	-11.4762
 365	1	6	-0.104872	11.3679	-1.79554	-11.7489
 366	1	3	0.456145	12.274	2.96839	-13.3781
 367	1	3	0.550902	11.508	4.58563	-11.9425
 368	1	4	0.015704	12.4303	4.28458	-12.9477
 369	1	2	-0.456801	12.8103	2.40137	-14.3116
 370	1	2	-0.487703	11.2085	5.67081	-11.4792
 371	1	1	-0.116566	13.4142	5.22346	-13.42
 372	1	1	-0.050109	13.0151	6.48113	-13.9527
 373	1	1	0.154929	13.9817	7.49042	-14.1859
 374	1	1	0.041555	14.7926	4.98437	-13.1898
 375	1	1	-0.223109	15.7503	5.9534	-13.5275
 376	1	1	-0.080449	15.3563	7.21318	-14.0062
 377	1	5	-0.108008	15.3173	3.6948	-12.5814
 378	1	5	-0.182228	16.4142	8.27727	-14.2913
 379	1	5	-0.345523	11.5491	6.78531	-14.2553
 380	1	7	0.155183	11.5544	-0.511517	-9.59971
 381	1	7	0.172904	7.37846	-1.81576	-9.32251
 382	1	7	0.158028	7.70959	-2.25902	-6.90065
 383	1	7	0.153129	9.62134	3.80987	-9.86046
 384	1	7	0.142914	8.81597	1.47566	-9.62376
 385	1	7	0.135531	11.1615	0.306386	-13.0894
 386	1	7	0.17765	16.8009	5.7387	-13.3554
 387	1	9	0.046541	16.3978	3.73045	-12.41
 388	1	9	0.045238	15.1248	2.83302	-13.2322
 389	1	9	0.051941	14.8532	3.50886	-11.6019
 390	1	9	0.087961	17.4363	7.9376	-14.0837
 391	1	9	0.066782	16.2275	9.18855	-13.71
 392	1	9	0.075908	16.3742	8.557	-15.3469
 393	1	9	0.105172	10.938	5.88367	-14.3621
 394	1	9	0.115625	11.4441	7.30905	-15.2147
 395	1	9	0.140296	11.0961	7.40461	-13.4712
 396	1	1	-0.004194	11.2341	8.26865	-2.24813
 397	1	1	-0.097141	12.5274	8.06273	-2.79618
 398	1	1	-0.172015	12.6124	7.88225	-4.21556
 399	1	2	-0.377994	8.2016	8.34142	-1.66646
 400	1	1	0.033493	10.1375	8.32871	-3.11993
 401	1	1	-0.063739	11.4939	7.98436	-5.07972
 402	1	2	-0.398381	8.60788	8.14021	-6.30563
 403	1	1	0.032144	10.2538	8.19011	-4.4948
 404	1	3	0.032313	8.70388	8.37278	-2.783
 405	1	4	0.461698	8.06188	8.27372	-4.01113
 406	1	3	0.091945	8.90401	8.17439	-5.1137
 407	1	1	-0.10563	16.0493	4.92148	-2.73642
 408	1	5	-0.099376	13.8035	7.99368	-1.90154
 409	1	1	-0.043296	14.3375	6.54739	-2.03242
 410	1	1	-0.073043	15.6628	6.24899	-2.45805
 411	1	1	-0.117827	15.1242	3.89548	-2.52461
 412	1	1	-0.037562	13.4316	5.47345	-1.83953
 413	1	1	-0.083705	13.8455	4.16661	-2.08581
 414	1	5	0.396	14.7655	9.13976	-2.44424
 415	1	5	0.310495	13.5294	8.24182	-0.374713
 416	1	6	-0.130298	15.9352	9.30677	-1.78625
 417	1	6	-0.128745	14.1615	10.3513	-2.48063
 418	1	6	-0.120019	15.1852	8.87431	-3.70291
 419	1	6	-0.104287	13.0329	9.48084	-0.133384
 420	1	6	-0.095507	14.6861	8.16312	0.33935
 421	1	6	-0.104872	12.6834	7.32684	0.16882
 422	1	3	0.456145	13.0603	2.91176	-2.16952
 423	1	3	0.550902	15.222	2.46006	-2.87454
 424	1	4	0.015704	13.9475	1.94117	-2.65089
 425	1	2	-0.456801	11.8811	2.779	-1.84805
 426	1	2	-0.487703	16.1612	1.93445	-3.44728
 427	1	1	-0.116566	13.6128	0.601062	-3.01864
 428	1	1	-0.050109	12.7186	0.339688	-4.0791
 429	1	1	0.154929	12.3869	-0.996024	-4.42289
 430	1	1	0.041555	14.2402	-0.459174	-2.32674
 431	1	1	-0.223109	13.9102	-1.77044	-2.69075
 432	1	1	-0.080449	12.9974	-2.06516	-3.72312
 433	1	5	-0.108008	15.2267	-0.254308	-1.15959
 434	1	5	-0.182228	12.7578	-3.55016	-4.06213
 435	1	5	-0.345523	12.0809	1.53898	-4.77579
 436	1	7	0.155183	11.0353	8.35996	-1.18523
 437	1	7	0.172904	13.5412	7.56331	-4.68237
 438	1	7	0.158028	11.5766	7.79304	-6.14529
 439	1	7	0.153129	17.0394	4.68724	-3.12582
 440	1	7	0.142914	16.4018	7.02077	-2.60457
 441	1	7	0.135531	12.3882	5.64699	-1.5811
 442	1	7	0.17765	14.3826	-2.58619	-2.16211
 443	1	9	0.046541	14.9891	0.640924	-0.598845
 444	1	9	0.045238	16.2459	-0.118912	-1.5299
 445	1	9	0.051941	15.2138	-1.09138	-0.467243
 446	1	9	0.087961	13.1723	-4.20416	-3.28786
 447	1	9	0.066782	13.237	-3.82243	-5.00716
 448	1	9	0.075908	11.6862	-3.7903	-4.14306
 449	1	9	0.105172	11.7292	1.35002	-5.79505
 450	1	9	0.115625	12.7803	2.37812	-4.86345
 451	1	9	0.140296	11.2166	1.85968	-4.1774
 452	1	4	0.463107	-11.5536	1.35575	-8.03211
 453	1	3	0.061808	-10.8873	2.24375	-8.86415
 454	1	1	0.001427	-9.75501	2.74107	-8.08353
 455	1	3	0.068581	-10.9529	1.28522	-6.772
 456	1	1	0.040836	-9.76667	2.18189	-6.83457
 457	1	2	-0.386232	-11.0536	2.43656	-10.0564
 458	1	2	-0.391601	-11.3734	0.690115	-5.79942
 459	1	1	-0.001718	-8.79084	3.62926	-8.50579
 460	1	1	-0.033153	-8.77552	2.52829	-5.90215
 461	1	1	-0.217995	-7.7323	3.40632	-6.32257
 462	1	1	-0.067978	-7.71237	3.95467	-7.64791
 463	1	7	0.155939	-8.87337	4.00433	-9.5157
 464	1	7	0.152973	-8.79869	2.0962	-4.91088
 465	1	7	0.17647	-6.92284	3.60549	-5.62762
 466	1	5	-0.111335	-6.53697	4.82502	-8.23505
 467	1	5	0.291988	-7.11342	6.01559	-9.09347
 468	1	6	-0.108289	-6.23138	7.02353	-9.26358
 469	1	6	-0.102972	-7.48001	5.67926	-10.3364
 470	1	6	-0.103001	-8.21566	6.49872	-8.49894
 471	1	5	0.43552	-5.69501	3.89969	-9.21431
 472	1	6	-0.137748	-6.40396	3.2911	-10.1877
 473	1	6	-0.132227	-5.16162	2.89189	-8.49292
 474	1	6	-0.124157	-4.70189	4.57677	-9.85646
 475	1	1	-0.009135	-5.62292	5.43645	-7.11317
 476	1	1	-0.073591	-4.23307	5.17067	-6.99759
 477	1	1	-0.051923	-3.46115	5.85796	-6.06491
 478	1	1	-0.057717	-6.17689	6.37934	-6.20697
 479	1	1	-0.156758	-5.3522	7.12719	-5.33316
 480	1	1	-0.020332	-3.98451	6.82623	-5.26958
 481	1	3	0.469602	-2.85621	7.53553	-4.61252
 482	1	4	-0.076132	-1.72326	6.86005	-5.00611
 483	1	3	0.458333	-2.01091	5.81874	-5.85891
 484	1	1	-0.008032	-0.392089	7.18573	-4.63624
 485	1	1	-0.195997	0.087407	8.50398	-4.79225
 486	1	1	-0.113065	1.46107	8.78959	-4.60596
 487	1	1	0.271942	0.489799	6.16977	-4.16841
 488	1	1	-0.220579	1.83934	6.44993	-3.99554
 489	1	10	0.005883	2.36658	7.72988	-4.28214
 490	1	7	0.164552	-5.74978	7.93567	-4.72354
 491	1	7	0.136991	-7.23506	6.62313	-6.26109
 492	1	7	0.136379	-3.71159	4.48874	-7.65278
 493	1	2	-0.461381	-1.26994	4.96138	-6.28774
 494	1	2	-0.471091	-2.89694	8.52232	-3.918
 495	1	7	0.134736	2.49298	5.63587	-3.69153
 496	1	7	0.169495	-0.590876	9.2865	-5.12257
 497	1	11	-0.554106	0.145576	4.84543	-4.04031
 498	1	10	-0.02772	3.8507	7.91417	-4.24207
 499	1	7	0.133194	1.81605	9.8042	-4.79787
 500	1	1	-0.144307	4.70449	6.83923	-4.55085
 501	1	1	0.023803	6.08408	6.98703	-4.48108
 502	1	1	0.335896	6.65778	8.22871	-4.12707
 503	1	1	-0.53864	5.82001	9.33435	-3.81182
 504	1	1	-0.029171	4.42369	9.15024	-3.84897
 505	1	7	0.130758	3.76569	9.97861	-3.56998
 506	1	7	0.243773	6.25696	10.2831	-3.50996
 507	1	7	0.131936	4.28427	5.89662	-4.86708
 508	1	11	-0.547641	6.86133	5.89501	-4.72123
 509	1	12	0.436946	-0.452493	4.5909	-4.77017
 510	1	12	0.442856	6.27461	5.14242	-4.83217
 511	1	4	0.463107	-20.757	-13.6109	-14.2598
 512	1	3	0.061808	-20.1619	-12.3578	-14.24
 513	1	1	0.001427	-21.0936	-11.4784	-14.9871
 514	1	3	0.068581	-21.9277	-13.6428	-15.033
 515	1	1	0.040836	-22.1502	-12.2317	-15.4604
 516	1	2	-0.386232	-19.1363	-12.0103	-13.6646
 517	1	2	-0.391601	-22.6238	-14.6158	-15.2853
 518	1	1	-0.001718	-21.021	-10.0939	-15.1927
 519	1	1	-0.033153	-23.183	-11.6258	-16.1958
 520	1	1	-0.217995	-23.1241	-10.2322	-16.4284
 521	1	1	-0.067978	-22.0389	-9.44308	-15.9354
 522	1	7	0.155939	-20.1661	-9.54654	-14.8237
 523	1	7	0.152973	-24.001	-12.2151	-16.5873
 524	1	7	0.17647	-23.8992	-9.78416	-17.0412
 525	1	5	-0.111335	-21.8569	-7.94921	-16.3221
 526	1	5	0.291988	-20.9014	-7.93237	-17.5836
 527	1	6	-0.108289	-20.8082	-6.70333	-18.1649
 528	1	6	-0.102972	-19.6433	-8.32392	-17.2552
 529	1	6	-0.103001	-21.2741	-8.81644	-18.5512
 530	1	5	0.43552	-23.2035	-7.24375	-16.7271
 531	1	6	-0.137748	-23.6233	-7.54859	-17.9802
 532	1	6	-0.132227	-23.0859	-5.90142	-16.6797
 533	1	6	-0.124157	-24.2138	-7.54537	-15.8785
 534	1	1	-0.009135	-21.3094	-7.1619	-15.0981
 535	1	1	-0.073591	-20.1183	-6.39047	-15.1431
 536	1	1	-0.051923	-19.6877	-5.72908	-13.9846
 537	1	1	-0.057717	-22.0311	-7.18907	-13.8682
 538	1	1	-0.156758	-21.6135	-6.47483	-12.726
 539	1	1	-0.020332	-20.4113	-5.75947	-12.8158
 540	1	3	0.469602	-19.673	-4.97337	-11.7936
 541	1	4	-0.076132	-18.4931	-4.55436	-12.4083
 542	1	3	0.458333	-18.4587	-4.94861	-13.7403
 543	1	1	-0.008032	-17.4838	-3.77301	-11.7811
 544	1	1	-0.195997	-16.9862	-4.14454	-10.5114
 545	1	1	-0.113065	-16.0536	-3.33144	-9.82805
 546	1	1	0.271942	-17.0289	-2.56646	-12.3575
 547	1	1	-0.220579	-16.1463	-1.73856	-11.647
 548	1	10	0.005883	-15.6392	-2.08387	-10.3667
 549	1	7	0.164552	-22.1845	-6.49051	-11.7942
 550	1	7	0.136991	-22.9347	-7.79005	-13.7868
 551	1	7	0.136379	-19.5129	-6.29019	-16.0525
 552	1	2	-0.461381	-17.5912	-4.73809	-14.5663
 553	1	2	-0.471091	-20.0133	-4.87473	-10.6326
 554	1	7	0.134736	-15.8269	-0.815366	-12.1061
 555	1	7	0.169495	-17.3155	-5.06892	-10.0465
 556	1	11	-0.554106	-17.4319	-2.15776	-13.6013
 557	1	10	-0.02772	-14.6814	-1.17025	-9.63789
 558	1	7	0.133194	-15.7044	-3.65169	-8.84684
 559	1	1	-0.144307	-14.7152	0.249913	-9.74404
 560	1	1	0.023803	-13.7377	1.10036	-9.16215
 561	1	1	0.335896	-12.6418	0.531698	-8.46598
 562	1	1	-0.53864	-12.6105	-0.878554	-8.32993
 563	1	1	-0.029171	-13.596	-1.70697	-8.90788
 564	1	7	0.130758	-13.4988	-2.78012	-8.82555
 565	1	7	0.243773	-11.7757	-1.3495	-7.80102
 566	1	7	0.131936	-15.517	0.717579	-10.3136
 567	1	11	-0.547641	-13.8419	2.46097	-9.35878
 568	1	12	0.436946	-17.3989	-2.95022	-14.1882
 569	1	12	0.442856	-13.1006	2.74485	-9.9431
 570	1	1	-0.004194	-17.8705	-15.0872	-4.14497
 571	1	1	-0.097141	-19.1254	-14.488	-3.85026
 572	1	1	-0.172015	-19.1365	-13.1547	-3.33993
 573	1	2	-0.377994	-14.8978	-15.7933	-4.55058
 574	1	1	0.033493	-16.7086	-14.3543	-3.89201
 575	1	1	-0.063739	-17.959	-12.4277	-3.10971
 576	1	2	-0.398381	-15.0011	-11.4646	-2.81594
 577	1	1	0.032144	-16.7485	-13.0699	-3.37832
 578	1	3	0.032313	-15.2951	-14.7215	-4.11412
 579	1	4	0.461698	-14.5576	-13.5892	-3.74905
 580	1	3	0.091945	-15.3563	-12.55	-3.26136
 581	1	1	-0.10563	-21.3143	-17.6497	-7.03944
 582	1	5	-0.099376	-20.4472	-15.2967	-4.06145
 583	1	1	-0.043296	-20.4407	-15.9425	-5.46645
 584	1	1	-0.073043	-21.1547	-17.1456	-5.73488
 585	1	1	-0.117827	-20.6883	-16.9528	-8.07006
 586	1	1	-0.037562	-19.8247	-15.2717	-6.55379
 587	1	1	-0.083705	-19.9295	-15.8186	-7.83288
 588	1	5	0.396	-21.733	-14.4009	-4.00883
 589	1	5	0.310495	-20.553	-16.3453	-2.88994
 590	1	6	-0.130298	-21.9437	-13.9318	-2.76949
 591	1	6	-0.128745	-22.8523	-15.0584	-4.39431
 592	1	6	-0.120019	-21.6193	-13.3281	-4.81303
 593	1	6	-0.104287	-19.7645	-17.4085	-3.12773
 594	1	6	-0.095507	-21.7986	-16.8386	-2.68712
 595	1	6	-0.104872	-20.1821	-15.8108	-1.70461
 596	1	3	0.456145	-19.4715	-15.2943	-9.14276
 597	1	3	0.550902	-20.7132	-17.2001	-9.5294
 598	1	4	0.015704	-19.9927	-16.1536	-10.0972
 599	1	2	-0.456801	-18.8326	-14.2745	-9.33657
 600	1	2	-0.487703	-21.3244	-18.0959	-10.0897
 601	1	1	-0.116566	-19.8236	-15.9742	-11.4923
 602	1	1	-0.050109	-20.4373	-14.8962	-12.1691
 603	1	1	0.154929	-20.2071	-14.7295	-13.5595
 604	1	1	0.041555	-19.0076	-16.8789	-12.2023
 605	1	1	-0.223109	-18.8125	-16.7325	-13.5837
 606	1	1	-0.080449	-19.4033	-15.6519	-14.273
 607	1	5	-0.108008	-18.375	-18.0943	-11.5273
 608	1	5	-0.182228	-19.1119	-15.4948	-15.7679
 609	1	5	-0.345523	-21.29	-13.8787	-11.3961
 610	1	7	0.155183	-17.7968	-16.1044	-4.52948
 611	1	7	0.172904	-20.0575	-12.6419	-3.07696
 612	1	7	0.158028	-17.9782	-11.3969	-2.74923
 613	1	7	0.153129	-21.8954	-18.5502	-7.22434
 614	1	7	0.142914	-21.6559	-17.6783	-4.93937
 615	1	7	0.135531	-19.3024	-14.3353	-6.41764
 616	1	7	0.17765	-18.2039	-17.4368	-14.1259
 617	1	9	0.046541	-18.1803	-17.9509	-10.4475
 618	1	9	0.045238	-17.4073	-18.3438	-11.9921
 619	1	9	0.051941	-19.0386	-18.9706	-11.6287
 620	1	9	0.087961	-18.5884	-14.5442	-15.9785
 621	1	9	0.066782	-20.0233	-15.4978	-16.3685
 622	1	9	0.075908	-18.4771	-16.304	-16.1433