pySIMM System Object

566 atoms
617 bonds
1080 angles
1616 dihedrals
164 impropers

12 atom types
15 bond types
24 angle types
10 dihedral types
4 improper types

-105.057461 105.057461 xlo xhi
-105.057461 105.057461 ylo yhi
-105.057461 105.057461 zlo zhi

Masses

   1	12.01	# ca
   2	16.0	# o
   3	12.01	# c
   4	14.01	# n
   5	12.01	# c3
   6	19.0	# f
   7	1.008	# ha
   8	1.008	# hn
   9	1.008	# hc
  10	12.01	# cp
  11	16.0	# oh
  12	1.008	# ho

Pair Coeffs

   1	0.086	3.3996695084235347	# ca
   2	0.21	2.959921901149463	# o
   3	0.086	3.3996695084235347	# c
   4	0.17	3.249998523775958	# n
   5	0.1094	3.3996695084235347	# c3
   6	0.061	3.1181455134911875	# f
   7	0.015	2.59964245953351	# ha
   8	0.0157	1.069078461768407	# hn
   9	0.0157	2.649532787749369	# hc
  10	0.086	3.3996695084235347	# cp
  11	0.2104	3.0664733878390478	# oh
  12	0.0047	0.5379246460131368	# ho

Bond Coeffs

   1	300.9	1.5375	# c3,c3
   2	637.7	1.2183	# c,o
   3	345.8	1.086	# ca,ha
   4	356.9	1.3497	# c3,f
   5	427.6	1.3789	# c,n
   6	345.9	1.4906	# c,ca
   7	384.2	1.4121	# ca,n
   8	321.0	1.5156	# c3,ca
   9	330.6	1.0969	# c3,hc
  10	403.2	1.0129	# hn,n
  11	461.1	1.3984	# ca,ca
  12	450.2	1.4058	# ca,cp
  13	371.4	0.973	# ho,oh
  14	384.0	1.3637	# ca,oh
  15	351.4	1.4854	# cp,cp

Angle Coeffs

   1	63.15	112.07	# c3,c3,ca
   2	67.68	115.25	# ca,c,n
   3	63.82	123.71	# c,n,ca
   4	48.33	117.55	# c,n,hn
   5	39.4	107.58	# hc,c3,hc
   6	74.22	123.05	# n,c,o
   7	63.53	120.77	# c3,ca,ca
   8	48.18	119.88	# ca,ca,ha
   9	63.74	127.08	# c,n,c
  10	67.87	120.19	# ca,ca,n
  11	64.28	120.33	# c,ca,ca
  12	63.56	112.24	# ca,c3,ca
  13	70.89	107.36	# f,c3,f
  14	46.8	110.47	# ca,c3,hc
  15	66.62	120.02	# ca,ca,ca
  16	66.11	109.24	# c3,c3,f
  17	62.86	111.51	# c3,c3,c3
  18	68.72	122.6	# ca,c,o
  19	66.72	118.38	# ca,cp,ca
  20	49.0	108.58	# ca,oh,ho
  21	66.26	120.69	# ca,ca,cp
  22	69.52	119.9	# ca,ca,oh
  23	64.05	121.11	# ca,cp,cp
  24	47.98	119.86	# cp,ca,ha

Dihedral Coeffs

   1	2	2.5	2	180	2.0	1	0	# hn,n,c,o
   2	1	3.625	2	180	# X,ca,ca,X
   3	1	1.0	2	180	# X,c,ca,X
   4	1	0.15555555555555556	3	0	# X,c3,c3,X
   5	1	0.0	2	0	# X,c3,ca,X
   6	1	2.5	2	180	# X,c,n,X
   7	1	0.45	2	180	# X,ca,n,X
   8	1	1.0	2	180	# X,cp,cp,X
   9	1	3.625	2	180	# X,ca,cp,X
  10	1	0.9	2	180	# X,ca,oh,X

Improper Coeffs

   1	10.5	-1	2	# c,X,X,o
   2	1.1	-1	2	# n,X,X,hn
   3	1.1	-1	2	# ca,ca,ca,c3
   4	1.1	-1	2	# ca,X,X,ha

Atoms

   1	1	1	-0.004194	4.46119	21.0874	-9.58939
   2	1	1	-0.097141	5.69824	21.7881	-9.45785
   3	1	1	-0.172015	6.88324	21.02	-9.34162
   4	1	2	-0.377994	2.19313	19.0654	-10.2048
   5	1	1	0.033493	4.47979	19.6801	-9.60238
   6	1	1	-0.063739	6.85885	19.6311	-9.47884
   7	1	2	-0.398381	6.19526	16.734	-10.2476
   8	1	1	0.032144	5.6541	18.985	-9.58186
   9	1	3	0.032313	3.37241	18.7795	-9.9878
  10	1	4	0.461698	4.00719	17.5606	-10.2396
  11	1	3	0.091945	5.38389	17.6124	-10.0291
  12	1	1	-0.10563	5.83317	23.3524	-13.4235
  13	1	5	-0.099376	5.76564	23.3376	-9.50586
  14	1	1	-0.043296	6.19386	23.683	-10.9889
  15	1	1	-0.073043	5.4989	23.0772	-12.0851
  16	1	1	-0.117827	6.92341	24.1644	-13.6924
  17	1	1	-0.037562	7.29692	24.5638	-11.2994
  18	1	1	-0.083705	7.59808	24.7727	-12.662
  19	1	5	0.396	6.7512	23.7862	-8.27902
  20	1	5	0.310495	4.40859	24.0525	-9.18371
  21	1	6	-0.130298	6.64142	23.0389	-7.13977
  22	1	6	-0.128745	6.60443	25.0844	-7.87174
  23	1	6	-0.120019	8.06933	23.7058	-8.5233
  24	1	6	-0.104287	4.46216	25.411	-9.3072
  25	1	6	-0.095507	3.96032	23.7213	-7.94167
  26	1	6	-0.104872	3.39946	23.7686	-10.0014
  27	1	3	0.456145	8.67709	25.5418	-13.2674
  28	1	3	0.550902	7.55063	24.5231	-14.9862
  29	1	4	0.015704	8.52959	25.4233	-14.6342
  30	1	2	-0.456801	9.48255	26.2407	-12.6568
  31	1	2	-0.487703	7.25962	24.0923	-16.0722
  32	1	1	-0.116566	9.31044	26.1855	-15.5462
  33	1	1	-0.050109	10.5382	25.7004	-16.0205
  34	1	1	0.154929	11.2934	26.4641	-16.933
  35	1	1	0.041555	8.87956	27.473	-15.9303
  36	1	1	-0.223109	9.58928	28.1903	-16.898
  37	1	1	-0.080449	10.8104	27.6971	-17.3976
  38	1	5	-0.108008	7.55116	28.0197	-15.4575
  39	1	5	-0.182228	11.697	28.6149	-18.2658
  40	1	5	-0.345523	11.0801	24.3894	-15.4823
  41	1	7	0.155183	3.51266	21.5852	-9.71619
  42	1	7	0.172904	7.87818	21.4823	-9.3057
  43	1	7	0.158028	7.78939	19.1097	-9.55051
  44	1	7	0.153129	5.28644	22.8738	-14.2334
  45	1	7	0.142914	4.66666	22.4045	-11.9175
  46	1	7	0.135531	7.88121	25.0749	-10.538
  47	1	7	0.17765	9.22334	29.1476	-17.2068
  48	1	9	0.046541	7.73637	28.6168	-14.5654
  49	1	9	0.045238	6.83799	27.237	-15.1786
  50	1	9	0.051941	7.04949	28.7075	-16.1536
  51	1	9	0.087961	12.4061	28.0542	-18.8887
  52	1	9	0.066782	12.3223	29.2474	-17.6202
  53	1	9	0.075908	11.1481	29.3124	-18.9049
  54	1	9	0.105172	10.2812	23.7389	-15.0999
  55	1	9	0.115625	11.8053	24.6046	-14.6645
  56	1	9	0.140296	11.572	23.8484	-16.2915
  57	1	1	-0.004194	-0.619822	8.05932	-5.88997
  58	1	1	-0.097141	-1.20256	7.47915	-7.05533
  59	1	1	-0.172015	-1.88954	6.26711	-6.95084
  60	1	2	-0.377994	0.536516	8.61553	-2.99214
  61	1	1	0.033493	-0.699041	7.36938	-4.67234
  62	1	1	-0.063739	-1.94346	5.56164	-5.75519
  63	1	2	-0.398381	-1.65052	4.57526	-2.78878
  64	1	1	0.032144	-1.35453	6.15119	-4.6103
  65	1	3	0.032313	-0.137498	7.65645	-3.30255
  66	1	4	0.461698	-0.664143	6.6577	-2.47726
  67	1	3	0.091945	-1.2485	5.64078	-3.21407
  68	1	1	-0.10563	2.37077	9.50331	-8.92151
  69	1	5	-0.099376	-1.30528	8.34412	-8.36113
  70	1	1	-0.043296	-0.0522928	9.25451	-8.40138
  71	1	1	-0.073043	1.26999	8.73064	-8.49899
  72	1	1	-0.117827	2.1364	10.8805	-9.08069
  73	1	1	-0.037562	-0.202039	10.6495	-8.58643
  74	1	1	-0.083705	0.887282	11.4318	-8.9781
  75	1	5	0.396	-2.647	9.11091	-8.24212
  76	1	5	0.310495	-1.34433	7.44344	-9.6647
  77	1	6	-0.130298	-3.65636	8.21477	-8.09811
  78	1	6	-0.128745	-2.96972	9.82864	-9.37601
  79	1	6	-0.120019	-2.65641	9.9391	-7.17187
  80	1	6	-0.104287	-2.47378	6.76893	-9.92745
  81	1	6	-0.095507	-1.14119	8.19304	-10.7623
  82	1	6	-0.104872	-0.407881	6.48059	-9.7141
  83	1	3	0.456145	0.932493	12.8299	-9.3876
  84	1	3	0.550902	3.04957	11.9298	-9.61402
  85	1	4	0.015704	2.26417	13.0631	-9.74049
  86	1	2	-0.456801	0.030804	13.6469	-9.33194
  87	1	2	-0.487703	4.22803	11.7802	-9.89378
  88	1	1	-0.116566	2.61955	14.154	-10.5261
  89	1	1	-0.050109	3.11343	15.3544	-9.92947
  90	1	1	0.154929	3.43295	16.4197	-10.7951
  91	1	1	0.041555	2.36869	14.0788	-11.926
  92	1	1	-0.223109	2.74573	15.1673	-12.7444
  93	1	1	-0.080449	3.30166	16.3592	-12.2138
  94	1	5	-0.108008	1.63801	12.8687	-12.5553
  95	1	5	-0.182228	3.66654	17.4912	-13.1916
  96	1	5	-0.345523	3.29482	15.4654	-8.37939
  97	1	7	0.155183	-0.150399	9.03986	-5.91969
  98	1	7	0.172904	-2.46538	5.88329	-7.7653
  99	1	7	0.158028	-2.51031	4.65593	-5.68791
 100	1	7	0.153129	3.34017	9.05714	-9.05964
 101	1	7	0.142914	1.48897	7.68005	-8.30452
 102	1	7	0.135531	-1.15171	11.1358	-8.55009
 103	1	7	0.17765	2.54803	15.1154	-13.8082
 104	1	9	0.046541	1.47806	13.0747	-13.6171
 105	1	9	0.045238	0.677636	12.6891	-12.0617
 106	1	9	0.051941	2.25681	11.9588	-12.5037
 107	1	9	0.087961	4.69421	17.3737	-13.5241
 108	1	9	0.066782	3.49324	18.5131	-12.8185
 109	1	9	0.075908	3.11302	17.4282	-14.1539
 110	1	9	0.105172	4.1273	16.1052	-8.07401
 111	1	9	0.115625	3.51104	14.5237	-7.9079
 112	1	9	0.140296	2.39121	15.8632	-7.88109
 113	1	1	-0.004194	4.08922	-0.360198	4.36968
 114	1	1	-0.097141	3.62468	-0.0487703	5.69861
 115	1	1	-0.172015	4.60745	0.130104	6.74906
 116	1	2	-0.377994	5.62215	-0.782687	1.70722
 117	1	1	0.033493	5.44494	-0.459599	4.12151
 118	1	1	-0.063739	5.98123	0.071311	6.44316
 119	1	2	-0.398381	8.762	-0.100687	5.05611
 120	1	1	0.032144	6.35922	-0.278213	5.14039
 121	1	3	0.032313	6.13284	-0.671039	2.82627
 122	1	4	0.461698	7.46479	-0.685459	3.20689
 123	1	3	0.091945	7.70151	-0.30716	4.51173
 124	1	1	-0.10563	-0.19738	0.806782	2.83002
 125	1	5	-0.099376	2.12218	0.0577462	5.91117
 126	1	1	-0.043296	1.48424	0.811455	4.69404
 127	1	1	-0.073043	0.454642	0.220941	3.92084
 128	1	1	-0.117827	0.164976	2.11148	2.52982
 129	1	1	-0.037562	1.84121	2.13549	4.28566
 130	1	1	-0.083705	1.15093	2.81923	3.2559
 131	1	5	0.396	1.64026	0.873696	7.18411
 132	1	5	0.310495	1.5726	-1.43332	6.00874
 133	1	6	-0.130298	0.290227	1.04084	7.18119
 134	1	6	-0.128745	2.26148	2.09267	7.24136
 135	1	6	-0.120019	1.96029	0.275077	8.34769
 136	1	6	-0.104287	0.269041	-1.50033	6.37557
 137	1	6	-0.095507	2.22541	-2.14902	7.00873
 138	1	6	-0.104872	1.79829	-2.18259	4.85505
 139	1	3	0.456145	1.23672	4.16194	2.6454
 140	1	3	0.550902	-0.427278	2.95466	1.51486
 141	1	4	0.015704	0.232763	4.16554	1.66688
 142	1	2	-0.456801	1.99762	5.07146	2.90845
 143	1	2	-0.487703	-1.29354	2.5375	0.735444
 144	1	1	-0.116566	-0.27974	5.27612	1.0035
 145	1	1	-0.050109	-0.0101603	5.50998	-0.34902
 146	1	1	0.154929	-0.671686	6.62042	-1.03093
 147	1	1	0.041555	-1.12217	6.14993	1.70095
 148	1	1	-0.223109	-1.68849	7.26179	1.06382
 149	1	1	-0.080449	-1.5772	7.43278	-0.318919
 150	1	5	-0.108008	-1.35523	5.93962	3.21257
 151	1	5	-0.182228	-2.41256	8.53769	-0.9716
 152	1	5	-0.345523	1.0399	4.58204	-1.05432
 153	1	7	0.155183	3.40582	-0.501089	3.5203
 154	1	7	0.172904	4.31	0.391861	7.80085
 155	1	7	0.158028	6.75559	0.302704	7.15047
 156	1	7	0.153129	-0.899158	0.267041	2.21331
 157	1	7	0.142914	0.0848848	-0.770891	4.1344
 158	1	7	0.135531	2.668	2.64746	4.81525
 159	1	7	0.17765	-2.29098	7.93777	1.65139
 160	1	9	0.046541	-2.2018	6.55743	3.58583
 161	1	9	0.045238	-0.404643	6.25086	3.73345
 162	1	9	0.051941	-1.59991	4.90338	3.50113
 163	1	9	0.087961	-2.99058	9.10136	-0.249261
 164	1	9	0.066782	-3.14526	8.14508	-1.67279
 165	1	9	0.075908	-1.8491	9.25902	-1.52687
 166	1	9	0.105172	1.2954	4.89048	-2.07846
 167	1	9	0.115625	0.690398	3.52769	-1.07392
 168	1	9	0.140296	1.97996	4.62899	-0.453492
 169	1	1	-0.004194	8.88648	4.57586	-5.48059
 170	1	1	-0.097141	8.47322	5.68272	-4.65683
 171	1	1	-0.172015	7.24868	6.29771	-5.01177
 172	1	2	-0.377994	9.2085	2.14556	-7.47775
 173	1	1	0.033493	7.97972	3.98901	-6.46756
 174	1	1	-0.063739	6.47747	5.85952	-6.12962
 175	1	2	-0.398381	5.047	4.07539	-8.34204
 176	1	1	0.032144	6.78025	4.59834	-6.70479
 177	1	3	0.032313	8.13437	2.76309	-7.33134
 178	1	4	0.461698	6.97957	2.7063	-8.11462
 179	1	3	0.091945	6.11939	3.80488	-7.84272
 180	1	1	-0.10563	11.9684	3.82211	-1.84365
 181	1	5	-0.099376	9.37867	6.23856	-3.45255
 182	1	1	-0.043296	10.0371	4.97903	-2.79882
 183	1	1	-0.073043	11.4567	4.90321	-2.55776
 184	1	1	-0.117827	11.1163	2.77347	-1.5086
 185	1	1	-0.037562	9.23577	3.86668	-2.53953
 186	1	1	-0.083705	9.82309	2.73095	-1.96667
 187	1	5	0.396	8.5567	6.8928	-2.27548
 188	1	5	0.310495	10.2974	7.30418	-4.12435
 189	1	6	-0.130298	7.58193	6.06176	-1.78799
 190	1	6	-0.128745	8.01302	8.12863	-2.6261
 191	1	6	-0.120019	9.3915	7.12335	-1.23453
 192	1	6	-0.104287	11.2563	6.78542	-4.96689
 193	1	6	-0.095507	9.55424	8.23937	-4.80831
 194	1	6	-0.104872	10.9773	7.98511	-3.15227
 195	1	3	0.456145	9.20416	1.51794	-1.36384
 196	1	3	0.550902	11.4098	1.5697	-0.611156
 197	1	4	0.015704	10.1731	0.949559	-0.512467
 198	1	2	-0.456801	8.04604	1.19608	-1.49347
 199	1	2	-0.487703	12.5131	1.22678	-0.221471
 200	1	1	-0.116566	9.83538	-0.119714	0.405837
 201	1	1	-0.050109	8.94304	0.09448	1.47301
 202	1	1	0.154929	8.51943	-0.960139	2.2977
 203	1	1	0.041555	10.3008	-1.42635	0.175507
 204	1	1	-0.223109	9.94086	-2.46311	1.02743
 205	1	1	-0.080449	9.00474	-2.26668	2.07468
 206	1	5	-0.108008	11.1848	-1.79337	-0.974818
 207	1	5	-0.182228	8.69245	-3.47126	2.88174
 208	1	5	-0.345523	8.53847	1.5237	1.74902
 209	1	7	0.155183	9.86794	4.07755	-5.36211
 210	1	7	0.172904	6.9467	7.24039	-4.52566
 211	1	7	0.158028	5.6178	6.42274	-6.45715
 212	1	7	0.153129	12.9693	3.79037	-1.51476
 213	1	7	0.142914	12.1234	5.72065	-2.8079
 214	1	7	0.135531	8.14745	3.88988	-2.77752
 215	1	7	0.17765	10.38	-3.44575	0.852984
 216	1	9	0.046541	11.1218	-1.02177	-1.74946
 217	1	9	0.045238	10.9223	-2.7213	-1.41198
 218	1	9	0.051941	12.2054	-1.85466	-0.705069
 219	1	9	0.087961	8.38668	-3.20818	3.91105
 220	1	9	0.066782	9.56907	-4.1483	2.96811
 221	1	9	0.075908	7.84336	-3.97735	2.37751
 222	1	9	0.105172	7.79705	1.92188	1.02571
 223	1	9	0.115625	9.3643	2.23954	1.71616
 224	1	9	0.140296	8.08201	1.68521	2.73329
 225	1	4	0.463107	0.145177	-7.55001	-22.6735
 226	1	3	0.061808	1.3058	-7.06066	-23.2738
 227	1	1	0.001427	2.38569	-7.69684	-22.4182
 228	1	3	0.068581	0.349142	-8.41136	-21.5848
 229	1	1	0.040836	1.81607	-8.45583	-21.4602
 230	1	2	-0.386232	1.47996	-6.32683	-24.2357
 231	1	2	-0.391601	-0.442487	-9.1928	-21.1527
 232	1	1	-0.001718	3.70886	-7.30546	-22.4772
 233	1	1	-0.033153	2.63743	-8.79535	-20.3331
 234	1	1	-0.217995	3.93861	-8.32327	-20.324
 235	1	1	-0.067978	4.48604	-7.49666	-21.3346
 236	1	7	0.155939	4.00545	-6.68312	-23.3129
 237	1	7	0.152973	2.2839	-9.45811	-19.5499
 238	1	7	0.17647	4.56527	-8.58631	-19.4656
 239	1	5	-0.111335	5.73988	-6.63462	-21.2024
 240	1	5	0.291988	5.98937	-5.47712	-22.2427
 241	1	6	-0.108289	4.84876	-4.82908	-22.6222
 242	1	6	-0.102972	6.4993	-5.99147	-23.352
 243	1	6	-0.103001	6.77546	-4.41295	-21.8349
 244	1	5	0.43552	6.96299	-7.64836	-21.084
 245	1	6	-0.137748	7.01692	-8.1879	-19.8362
 246	1	6	-0.132227	8.08941	-7.02059	-21.2147
 247	1	6	-0.124157	7.0031	-8.69141	-22.008
 248	1	1	-0.009135	5.40214	-5.7654	-19.969
 249	1	1	-0.073591	6.37671	-5.56254	-18.9575
 250	1	1	-0.051923	6.03595	-4.70684	-17.9092
 251	1	1	-0.057717	4.12809	-5.09132	-19.8909
 252	1	1	-0.156758	3.85882	-4.17735	-18.9
 253	1	1	-0.020332	4.87322	-4.00382	-17.9295
 254	1	3	0.469602	4.84813	-3.20514	-16.7592
 255	1	4	-0.076132	6.08208	-3.28576	-16.1359
 256	1	3	0.458333	6.85555	-4.24341	-16.747
 257	1	1	-0.008032	6.32101	-2.5308	-14.9936
 258	1	1	-0.195997	5.59242	-2.8038	-13.8078
 259	1	1	-0.113065	5.7272	-2.08218	-12.594
 260	1	1	0.271942	7.25932	-1.52164	-14.9174
 261	1	1	-0.220579	7.40868	-0.779802	-13.7242
 262	1	10	0.005883	6.67354	-1.038	-12.5373
 263	1	7	0.164552	2.97875	-3.5905	-18.9229
 264	1	7	0.136991	3.33406	-5.15045	-20.5839
 265	1	7	0.136379	7.3598	-6.03925	-18.9663
 266	1	2	-0.461381	7.98753	-4.66071	-16.4466
 267	1	2	-0.471091	3.8332	-2.67534	-16.4238
 268	1	7	0.134736	8.15691	-0.00906566	-13.7258
 269	1	7	0.169495	4.75531	-3.50121	-13.9189
 270	1	11	-0.554106	8.01845	-1.18619	-16.044
 271	1	10	-0.02772	6.74555	-0.0191582	-11.4109
 272	1	7	0.133194	5.03442	-2.28999	-11.7875
 273	1	1	-0.144307	7.11797	1.35023	-11.5663
 274	1	1	0.023803	7.04968	2.27741	-10.4996
 275	1	1	0.335896	6.85884	1.81897	-9.20572
 276	1	1	-0.53864	6.52247	0.478573	-9.02137
 277	1	1	-0.029171	6.38525	-0.387535	-10.1048
 278	1	7	0.130758	6.04152	-1.38186	-9.88084
 279	1	7	0.243773	6.35524	0.137941	-8.01857
 280	1	7	0.131936	7.36224	1.72449	-12.5591
 281	1	11	-0.547641	7.21073	3.63596	-10.73
 282	1	12	0.436946	8.77673	-0.739055	-15.6892
 283	1	12	0.442856	7.34484	3.80603	-11.7051
 284	1	1	-0.004194	-9.77974	-0.686382	-21.6484
 285	1	1	-0.097141	-8.55676	-0.330897	-22.2718
 286	1	1	-0.172015	-7.49147	0.0877789	-21.4293
 287	1	2	-0.377994	-12.3429	-0.788716	-19.6134
 288	1	1	0.033493	-9.96599	-0.428306	-20.3019
 289	1	1	-0.063739	-7.68682	0.353671	-20.0598
 290	1	2	-0.398381	-8.52287	0.141514	-17.231
 291	1	1	0.032144	-8.92831	0.0185818	-19.5247
 292	1	3	0.032313	-11.1598	-0.627032	-19.3616
 293	1	4	0.461698	-10.6204	-0.556597	-18.0546
 294	1	3	0.091945	-9.30905	-0.13784	-18.0986
 295	1	1	-0.10563	-4.71589	-1.19827	-24.9142
 296	1	5	-0.099376	-8.34173	-0.365134	-23.7945
 297	1	1	-0.043296	-6.95236	-1.03891	-23.8914
 298	1	1	-0.073043	-5.99646	-0.591929	-24.8117
 299	1	1	-0.117827	-4.42218	-2.29888	-24.1292
 300	1	1	-0.037562	-6.60594	-2.18677	-23.0757
 301	1	1	-0.083705	-5.31935	-2.72191	-23.209
 302	1	5	0.396	-8.49188	1.11084	-24.2826
 303	1	5	0.310495	-9.31809	-1.31153	-24.5977
 304	1	6	-0.130298	-9.6518	1.6717	-23.7755
 305	1	6	-0.128745	-8.37283	1.28881	-25.6493
 306	1	6	-0.120019	-7.64441	1.892	-23.6003
 307	1	6	-0.104287	-8.84167	-1.7033	-25.8149
 308	1	6	-0.095507	-10.5518	-0.753361	-24.7433
 309	1	6	-0.104872	-9.35608	-2.45793	-23.9386
 310	1	3	0.456145	-4.66513	-3.86255	-22.4479
 311	1	3	0.550902	-3.27017	-3.30191	-24.2047
 312	1	4	0.015704	-3.58087	-4.26187	-23.2537
 313	1	2	-0.456801	-5.20304	-4.53492	-21.5947
 314	1	2	-0.487703	-2.35291	-3.17647	-25.0008
 315	1	1	-0.116566	-3.02926	-5.61504	-23.4284
 316	1	1	-0.050109	-1.79896	-6.02098	-22.8159
 317	1	1	0.154929	-1.11796	-7.22048	-23.2383
 318	1	1	0.041555	-3.63388	-6.55457	-24.326
 319	1	1	-0.223109	-2.97228	-7.7711	-24.6611
 320	1	1	-0.080449	-1.65541	-8.06263	-24.2022
 321	1	5	-0.108008	-5.05976	-6.21442	-24.8559
 322	1	5	-0.182228	-0.987768	-9.25815	-24.8507
 323	1	5	-0.345523	-1.05609	-5.02016	-21.8638
 324	1	7	0.155183	-10.5882	-1.07717	-22.2161
 325	1	7	0.172904	-6.569	0.42023	-21.894
 326	1	7	0.158028	-6.77035	0.578362	-19.4842
 327	1	7	0.153129	-4.0716	-0.922908	-25.7493
 328	1	7	0.142914	-6.0878	0.238629	-25.4682
 329	1	7	0.135531	-7.27526	-2.62045	-22.3161
 330	1	7	0.17765	-3.45263	-8.47167	-25.3346
 331	1	9	0.046541	-5.74479	-6.45499	-23.9934
 332	1	9	0.045238	-5.29624	-6.90998	-25.6508
 333	1	9	0.051941	-5.13374	-5.16347	-25.2442
 334	1	9	0.087961	0.0136327	-8.99755	-25.1499
 335	1	9	0.066782	-1.48278	-9.53106	-25.8095
 336	1	9	0.075908	-1.1265	-10.0694	-24.1221
 337	1	9	0.105172	-0.819164	-5.50119	-20.9082
 338	1	9	0.115625	-1.65733	-4.2034	-21.5198
 339	1	9	0.140296	-0.105699	-4.60344	-22.3872
 340	1	1	-0.004194	-11.1115	-8.50658	-9.89986
 341	1	1	-0.097141	-10.3937	-9.4892	-10.5905
 342	1	1	-0.172015	-9.82029	-10.5678	-9.81652
 343	1	2	-0.377994	-12.2366	-6.3708	-8.01312
 344	1	1	0.033493	-11.2269	-8.50406	-8.504
 345	1	1	-0.063739	-9.9445	-10.5757	-8.41526
 346	1	2	-0.398381	-10.4495	-9.87777	-5.49514
 347	1	1	0.032144	-10.6992	-9.51965	-7.79543
 348	1	3	0.032313	-11.7024	-7.42933	-7.61579
 349	1	4	0.461698	-11.476	-7.96246	-6.34635
 350	1	3	0.091945	-10.85	-9.2093	-6.40661
 351	1	1	-0.10563	-8.4524	-5.72748	-12.3092
 352	1	5	-0.099376	-10.2653	-9.25003	-12.1398
 353	1	1	-0.043296	-9.98406	-7.66849	-12.4555
 354	1	1	-0.073043	-8.80953	-7.07436	-11.9717
 355	1	1	-0.117827	-9.35028	-4.96251	-13.0604
 356	1	1	-0.037562	-10.9144	-6.86439	-13.1523
 357	1	1	-0.083705	-10.5661	-5.52678	-13.4326
 358	1	5	0.396	-11.6201	-9.72016	-12.7828
 359	1	5	0.310495	-9.08367	-10.1159	-12.8452
 360	1	6	-0.130298	-12.7071	-9.14052	-12.3697
 361	1	6	-0.128745	-11.9344	-10.9729	-12.4794
 362	1	6	-0.120019	-11.6137	-9.62105	-14.1186
 363	1	6	-0.104287	-9.35054	-11.418	-13.103
 364	1	6	-0.095507	-7.9648	-10.1093	-12.0651
 365	1	6	-0.104872	-8.74073	-9.60119	-13.9696
 366	1	3	0.456145	-11.4317	-4.47449	-13.9656
 367	1	3	0.550902	-9.325	-3.54562	-13.4987
 368	1	4	0.015704	-10.6421	-3.2816	-13.9876
 369	1	2	-0.456801	-12.6426	-4.53548	-14.1683
 370	1	2	-0.487703	-8.32015	-2.84987	-13.6161
 371	1	1	-0.116566	-11.0071	-2.15312	-14.7444
 372	1	1	-0.050109	-10.8101	-2.02176	-16.1345
 373	1	1	0.154929	-11.1927	-0.818539	-16.769
 374	1	1	0.041555	-11.6093	-1.11907	-14.0309
 375	1	1	-0.223109	-12.0735	-0.0248221	-14.6825
 376	1	1	-0.080449	-11.9449	0.140651	-16.0537
 377	1	5	-0.108008	-11.9999	-1.25562	-12.5474
 378	1	5	-0.182228	-12.0538	1.56367	-16.6253
 379	1	5	-0.345523	-9.96417	-3.05672	-16.949
 380	1	7	0.155183	-11.6632	-7.75933	-10.412
 381	1	7	0.172904	-9.4337	-11.4202	-10.3054
 382	1	7	0.158028	-9.45662	-11.2521	-7.70963
 383	1	7	0.153129	-7.51275	-5.2921	-11.9766
 384	1	7	0.142914	-8.09983	-7.6047	-11.3033
 385	1	7	0.135531	-11.9222	-7.23013	-13.3908
 386	1	7	0.17765	-12.4782	0.720383	-14.0273
 387	1	9	0.046541	-11.1826	-1.50887	-11.8828
 388	1	9	0.045238	-12.8104	-1.98539	-12.5236
 389	1	9	0.051941	-12.512	-0.351151	-12.1847
 390	1	9	0.087961	-12.4863	2.28545	-15.919
 391	1	9	0.066782	-12.6841	1.72176	-17.5026
 392	1	9	0.075908	-11.0744	1.98304	-16.9438
 393	1	9	0.105172	-10.3517	-3.26272	-17.9813
 394	1	9	0.115625	-9.79646	-3.97842	-16.3621
 395	1	9	0.140296	-8.99052	-2.66396	-17.2504
 396	1	1	-0.004194	-17.6783	-3.77465	2.16453
 397	1	1	-0.097141	-18.9508	-3.96412	1.45978
 398	1	1	-0.172015	-19.8503	-4.91059	1.96558
 399	1	2	-0.377994	-15.2658	-3.5779	4.34333
 400	1	1	0.033493	-17.4028	-4.4364	3.43387
 401	1	1	-0.063739	-19.6682	-5.45166	3.25828
 402	1	2	-0.398381	-18.6286	-6.00423	6.33291
 403	1	1	0.032144	-18.4417	-5.23697	4.00234
 404	1	3	0.032313	-16.3313	-4.21656	4.4428
 405	1	4	0.461698	-16.8225	-4.75383	5.59485
 406	1	3	0.091945	-18.0181	-5.48311	5.44168
 407	1	1	-0.10563	-16.4966	-2.25138	-2.47378
 408	1	5	-0.099376	-19.2564	-3.23109	0.0957343
 409	1	1	-0.043296	-17.9367	-3.33507	-0.737328
 410	1	1	-0.073043	-17.5024	-2.15825	-1.46316
 411	1	1	-0.117827	-15.7282	-3.4076	-2.60957
 412	1	1	-0.037562	-17.1236	-4.49598	-0.869968
 413	1	1	-0.083705	-16.0058	-4.51501	-1.84926
 414	1	5	0.396	-19.4958	-1.73547	0.524319
 415	1	5	0.310495	-20.3836	-3.83647	-0.823951
 416	1	6	-0.130298	-20.2946	-1.58611	1.63178
 417	1	6	-0.128745	-20.1982	-1.11993	-0.391536
 418	1	6	-0.120019	-18.3203	-1.10477	0.831155
 419	1	6	-0.104287	-20.2225	-5.14106	-1.21578
 420	1	6	-0.095507	-20.4648	-3.13924	-1.95417
 421	1	6	-0.104872	-21.5606	-3.66908	-0.14503
 422	1	3	0.456145	-15.0543	-5.64404	-2.2881
 423	1	3	0.550902	-14.6139	-3.78376	-3.51157
 424	1	4	0.015704	-14.2575	-5.13456	-3.30352
 425	1	2	-0.456801	-15.1081	-6.78823	-1.87009
 426	1	2	-0.487703	-14.3595	-3.05987	-4.43771
 427	1	1	-0.116566	-13.0278	-5.77899	-3.7359
 428	1	1	-0.050109	-12.9498	-6.79209	-4.74455
 429	1	1	0.154929	-11.648	-7.18931	-5.21435
 430	1	1	0.041555	-11.884	-5.32239	-3.03251
 431	1	1	-0.223109	-10.6063	-5.78396	-3.39659
 432	1	1	-0.080449	-10.4902	-6.68382	-4.49937
 433	1	5	-0.108008	-12.0736	-4.58504	-1.74675
 434	1	5	-0.182228	-9.07031	-7.00116	-4.94562
 435	1	5	-0.345523	-14.2599	-7.2471	-5.49449
 436	1	7	0.155183	-17.0503	-2.93147	1.77053
 437	1	7	0.172904	-20.6684	-5.30354	1.44397
 438	1	7	0.158028	-20.3586	-6.21837	3.64072
 439	1	7	0.153129	-16.2199	-1.41994	-3.0666
 440	1	7	0.142914	-18.0055	-1.20239	-1.37098
 441	1	7	0.135531	-17.4721	-5.44865	-0.472545
 442	1	7	0.17765	-9.75724	-5.51925	-2.91136
 443	1	9	0.046541	-12.5003	-5.17591	-0.855636
 444	1	9	0.045238	-12.8101	-3.76354	-1.74814
 445	1	9	0.051941	-11.1024	-4.22454	-1.36347
 446	1	9	0.087961	-8.81707	-8.06801	-4.90982
 447	1	9	0.066782	-8.25177	-6.54128	-4.41275
 448	1	9	0.075908	-9.00501	-6.70462	-6.00919
 449	1	9	0.105172	-14.5904	-8.26422	-5.15998
 450	1	9	0.115625	-14.249	-7.16834	-6.60159
 451	1	9	0.140296	-15.1548	-6.60822	-5.26071
 452	1	1	-0.004194	-14.0619	-13.2222	13.1418
 453	1	1	-0.097141	-15.3125	-12.6117	13.5891
 454	1	1	-0.172015	-15.3968	-12.6329	15.0054
 455	1	2	-0.377994	-11.4078	-14.8372	12.5738
 456	1	1	0.033493	-13.1367	-13.8646	13.9623
 457	1	1	-0.063739	-14.4848	-13.3924	15.8474
 458	1	2	-0.398381	-12.1193	-15.021	17.1174
 459	1	1	0.032144	-13.317	-13.9189	15.3394
 460	1	3	0.032313	-11.8154	-14.4929	13.6637
 461	1	4	0.461698	-11.3192	-14.8293	14.9193
 462	1	3	0.091945	-12.1508	-14.5462	15.9906
 463	1	1	-0.10563	-13.9785	-8.76131	12.1206
 464	1	5	-0.099376	-16.3188	-11.9239	12.5681
 465	1	1	-0.043296	-15.7303	-10.5607	12.0517
 466	1	1	-0.073043	-14.4563	-10.0287	12.5618
 467	1	1	-0.117827	-14.6626	-8.14762	11.1011
 468	1	1	-0.037562	-16.4314	-9.82603	10.9964
 469	1	1	-0.083705	-15.759	-8.69701	10.5302
 470	1	5	0.396	-17.7368	-11.604	13.2556
 471	1	5	0.310495	-16.4472	-12.8677	11.3347
 472	1	6	-0.130298	-18.1554	-12.7082	13.8845
 473	1	6	-0.128745	-18.723	-11.0922	12.4263
 474	1	6	-0.120019	-17.5321	-10.5957	14.2171
 475	1	6	-0.104287	-17.4007	-12.4965	10.5363
 476	1	6	-0.095507	-16.8218	-14.0373	11.7839
 477	1	6	-0.104872	-15.4009	-12.9075	10.5016
 478	1	3	0.456145	-16.1536	-7.65548	9.50598
 479	1	3	0.550902	-14.4256	-6.74048	10.6452
 480	1	4	0.015704	-15.3378	-6.54489	9.66212
 481	1	2	-0.456801	-16.9957	-7.86294	8.68939
 482	1	2	-0.487703	-13.6045	-5.97223	11.1664
 483	1	1	-0.116566	-15.6617	-5.2995	8.9471
 484	1	1	-0.050109	-15.6526	-5.3786	7.53943
 485	1	1	0.154929	-16.4182	-4.35099	6.88965
 486	1	1	0.041555	-16.333	-4.29473	9.71124
 487	1	1	-0.223109	-16.9467	-3.27056	8.98351
 488	1	1	-0.080449	-16.9965	-3.26549	7.60191
 489	1	5	-0.108008	-16.8733	-4.58278	11.1361
 490	1	5	-0.182228	-17.8323	-2.24954	6.82835
 491	1	5	-0.345523	-14.7364	-6.24317	6.75886
 492	1	7	0.155183	-13.6386	-13.0818	12.1631
 493	1	7	0.172904	-16.1506	-12.0719	15.4748
 494	1	7	0.158028	-14.5654	-13.3946	16.9139
 495	1	7	0.153129	-13.1456	-8.20648	12.5997
 496	1	7	0.142914	-13.769	-10.532	13.2675
 497	1	7	0.135531	-17.4769	-10.0144	10.6441
 498	1	7	0.17765	-17.4682	-2.46502	9.52083
 499	1	9	0.046541	-17.7847	-3.98257	11.2628
 500	1	9	0.045238	-16.0885	-4.18644	11.771
 501	1	9	0.051941	-17.0726	-5.67842	11.2793
 502	1	9	0.087961	-18.867	-2.64025	6.77012
 503	1	9	0.066782	-17.4254	-2.14754	5.8182
 504	1	9	0.075908	-17.9521	-1.26145	7.27254
 505	1	9	0.105172	-15.2247	-7.01815	6.16935
 506	1	9	0.115625	-14.1885	-6.87289	7.50914
 507	1	9	0.140296	-14.0801	-5.6869	6.03223
 508	1	4	0.463107	2.27301	-26.4774	15.6813
 509	1	3	0.061808	1.90618	-25.1639	15.7837
 510	1	1	0.001427	1.79356	-24.9563	17.2963
 511	1	3	0.068581	2.44646	-27.2084	16.8377
 512	1	1	0.040836	2.09072	-26.1662	17.8694
 513	1	2	-0.386232	1.55639	-24.45	14.8217
 514	1	2	-0.391601	2.92286	-28.3398	17.0825
 515	1	1	-0.001718	1.64907	-23.7653	18.039
 516	1	1	-0.033153	2.18195	-26.258	19.269
 517	1	1	-0.217995	1.92044	-25.1076	20.0668
 518	1	1	-0.067978	1.73946	-23.8334	19.429
 519	1	7	0.155939	1.61384	-22.8197	17.4715
 520	1	7	0.152973	2.64586	-27.1517	19.7335
 521	1	7	0.17647	2.14949	-25.156	21.141
 522	1	5	-0.111335	1.76674	-22.6257	20.2506
 523	1	5	0.291988	1.06487	-22.7398	21.6202
 524	1	6	-0.108289	0.632685	-21.6071	22.0741
 525	1	6	-0.102972	1.78625	-23.2288	22.6364
 526	1	6	-0.103001	-0.0762331	-23.5131	21.6403
 527	1	5	0.43552	3.32777	-22.2308	20.4238
 528	1	6	-0.137748	4.02258	-23.1691	21.027
 529	1	6	-0.132227	3.40614	-21.1813	21.3383
 530	1	6	-0.124157	4.11718	-21.8418	19.3608
 531	1	1	-0.009135	0.941215	-21.5534	19.5752
 532	1	1	-0.073591	-0.310937	-21.7545	18.9569
 533	1	1	-0.051923	-1.18465	-20.6263	18.7057
 534	1	1	-0.057717	1.28621	-20.1709	19.652
 535	1	1	-0.156758	0.529155	-19.0416	19.2749
 536	1	1	-0.020332	-0.792145	-19.3218	18.8704
 537	1	3	0.469602	-1.81972	-18.4075	18.4391
 538	1	4	-0.076132	-2.90763	-19.2223	18.0879
 539	1	3	0.458333	-2.44855	-20.5712	18.0414
 540	1	1	-0.008032	-4.24227	-18.6355	17.7488
 541	1	1	-0.195997	-4.97183	-17.6297	18.4396
 542	1	1	-0.113065	-6.23828	-17.1156	18.0168
 543	1	1	0.271942	-4.83733	-19.0426	16.5097
 544	1	1	-0.220579	-6.15091	-18.6694	16.173
 545	1	10	0.005883	-6.81773	-17.6217	16.8686
 546	1	7	0.164552	0.958606	-18.0154	19.2155
 547	1	7	0.136991	2.31855	-19.941	19.7781
 548	1	7	0.136379	-0.619892	-22.7905	18.9114
 549	1	2	-0.461381	-2.95954	-21.523	17.5341
 550	1	2	-0.471091	-1.63226	-17.2298	18.2841
 551	1	7	0.134736	-6.59115	-18.949	15.1978
 552	1	7	0.169495	-4.52241	-17.1083	19.274
 553	1	11	-0.554106	-4.19764	-19.819	15.5385
 554	1	10	-0.02772	-7.90669	-16.8259	16.2518
 555	1	7	0.133194	-6.64939	-16.2756	18.5696
 556	1	1	-0.144307	-7.81416	-15.5163	15.7184
 557	1	1	0.023803	-8.85939	-14.9264	14.996
 558	1	1	0.335896	-10.128	-15.5601	15.0097
 559	1	1	-0.53864	-10.2463	-16.8882	15.4011
 560	1	1	-0.029171	-9.14426	-17.459	16.1174
 561	1	7	0.130758	-9.22386	-18.4483	16.57
 562	1	7	0.243773	-11.1596	-17.4511	15.229
 563	1	7	0.131936	-6.84093	-14.9711	15.8624
 564	1	11	-0.547641	-8.82259	-13.5969	14.9077
 565	1	12	0.436946	-3.73594	-20.4647	15.9518
 566	1	12	0.442856	-7.89029	-13.3812	15.0993

Velocities

   1	-0.000111466	-0.00199849	-0.00558267
   2	-0.00173802	0.000887607	0.00204959
   3	0.000953668	-0.00215473	0.00294788
   4	0.00398849	0.000734164	0.00328243
   5	0.00628939	-0.000406823	-0.00702768
   6	-0.000931543	-0.0024932	-0.000936633
   7	0.00223136	0.00111159	0.00377119
   8	0.00318306	1.24741e-05	0.00366502
   9	0.00141119	0.00250256	-0.00035009
  10	0.00146836	0.00405033	0.000782696
  11	0.00297531	0.00105373	-0.00149181
  12	-0.0054476	-0.00112501	-0.00193566
  13	-0.00193877	0.00158242	-0.00136718
  14	0.00109635	0.00160272	0.000615913
  15	0.0045707	-0.00241842	0.00135439
  16	-0.00388841	-0.000882944	-0.0028781
  17	0.00647201	-0.00568123	-0.00360258
  18	0.00017005	-0.00225481	-0.00271544
  19	-0.00148098	-0.000870955	0.00322588
  20	-0.00151011	-0.00561688	0.000348846
  21	-0.00160226	0.0013935	0.00142196
  22	-0.00410198	0.00327053	-0.00170839
  23	0.000591269	-0.00124678	0.0020153
  24	-0.00214846	-0.00497056	-0.00408711
  25	-0.00603833	-0.00378704	0.000446487
  26	0.00147652	0.000167023	-0.00183335
  27	0.0022819	0.00112687	0.000198358
  28	0.00193234	0.000944716	-0.00299353
  29	0.000315816	-0.000943718	0.000458888
  30	0.00511989	-0.00366744	0.000683722
  31	0.00396918	0.00143426	-0.00156615
  32	-0.00101082	-0.00330998	0.000610635
  33	-0.000476106	-0.00454731	0.00212845
  34	-0.000590004	-0.00258746	0.00385094
  35	0.00214241	-0.002666	0.0028383
  36	0.00488984	-0.00428819	0.00707718
  37	0.00328179	-0.00480975	0.00173857
  38	0.00363999	-0.000963402	7.46081e-05
  39	0.00568607	-0.0108383	-0.00432498
  40	-0.00676071	-0.00327997	0.00318681
  41	0.00548222	0.00150079	-0.00712569
  42	0.00537781	-0.00490971	-0.00122228
  43	-0.00721135	0.00145884	0.00105479
  44	-0.0114042	0.00226707	0.0112548
  45	0.00832989	-0.00501921	0.000682309
  46	0.0105746	0.00465551	-0.00518609
  47	0.00283444	0.00665575	0.018597
  48	-0.00788022	-0.00662722	0.00693452
  49	0.00289171	-0.000396486	-0.00898626
  50	0.00223715	0.00450775	-0.00454953
  51	0.00714993	-0.0103335	0.00523653
  52	0.000131884	-0.0179597	-0.00188075
  53	0.00937767	-0.0155245	-0.0033169
  54	-0.0120416	-0.00240022	-0.0113686
  55	-0.00844849	-0.00638531	0.00277595
  56	0.012074	-0.00467836	0.00296176
  57	0.00300206	-0.0014835	-0.00063121
  58	-0.00127408	0.00292786	0.00391541
  59	-0.00268331	0.0035162	0.00482112
  60	0.00167037	0.0025872	-0.00229434
  61	0.00137856	-0.00224144	0.00124469
  62	-0.00166521	0.00468463	0.00182547
  63	-0.00770663	0.00340519	0.000888846
  64	-0.00199529	0.00390378	-0.00125788
  65	0.00528048	-0.00366245	0.00394367