pySIMM System Object

2406 atoms
2633 bonds
4568 angles
6960 dihedrals
708 impropers

12 atom types
15 bond types
24 angle types
10 dihedral types
4 improper types

-175.934755 175.934755 xlo xhi
-175.934755 175.934755 ylo yhi
-175.934755 175.934755 zlo zhi

Masses

   1	14.01	# n
   2	12.01	# c
   3	12.01	# ca
   4	1.008	# hn
   5	16.0	# o
   6	1.008	# ha
   7	12.01	# c3
   8	19.0	# f
   9	12.01	# cp
  10	16.0	# oh
  11	1.008	# ho
  12	1.008	# hc

Pair Coeffs

   1	0.17	3.249998523775958	# n
   2	0.086	3.3996695084235347	# c
   3	0.086	3.3996695084235347	# ca
   4	0.0157	1.069078461768407	# hn
   5	0.21	2.959921901149463	# o
   6	0.015	2.59964245953351	# ha
   7	0.1094	3.3996695084235347	# c3
   8	0.061	3.1181455134911875	# f
   9	0.086	3.3996695084235347	# cp
  10	0.2104	3.0664733878390478	# oh
  11	0.0047	0.5379246460131368	# ho
  12	0.0157	2.649532787749369	# hc

Bond Coeffs

   1	403.2	1.0129	# hn,n
   2	356.9	1.3497	# c3,f
   3	384.2	1.4121	# ca,n
   4	450.2	1.4058	# ca,cp
   5	371.4	0.973	# ho,oh
   6	461.1	1.3984	# ca,ca
   7	427.6	1.3789	# c,n
   8	321.0	1.5156	# c3,ca
   9	384.0	1.3637	# ca,oh
  10	345.9	1.4906	# c,ca
  11	345.8	1.086	# ca,ha
  12	637.7	1.2183	# c,o
  13	300.9	1.5375	# c3,c3
  14	351.4	1.4854	# cp,cp
  15	330.6	1.0969	# c3,hc

Angle Coeffs

   1	63.53	120.77	# c3,ca,ca
   2	70.89	107.36	# f,c3,f
   3	67.87	120.19	# ca,ca,n
   4	66.72	118.38	# ca,cp,ca
   5	66.11	109.24	# c3,c3,f
   6	49.0	108.58	# ca,oh,ho
   7	62.86	111.51	# c3,c3,c3
   8	63.15	112.07	# c3,c3,ca
   9	66.26	120.69	# ca,ca,cp
  10	63.56	112.24	# ca,c3,ca
  11	63.82	123.71	# c,n,ca
  12	69.52	119.9	# ca,ca,oh
  13	63.74	127.08	# c,n,c
  14	48.18	119.88	# ca,ca,ha
  15	74.22	123.05	# n,c,o
  16	64.05	121.11	# ca,cp,cp
  17	66.62	120.02	# ca,ca,ca
  18	68.72	122.6	# ca,c,o
  19	67.68	115.25	# ca,c,n
  20	48.33	117.55	# c,n,hn
  21	64.28	120.33	# c,ca,ca
  22	47.98	119.86	# cp,ca,ha
  23	39.4	107.58	# hc,c3,hc
  24	46.8	110.47	# ca,c3,hc

Dihedral Coeffs

   1	1	0.15555555555555556	3	0	# X,c3,c3,X
   2	1	1.0	2	180	# X,cp,cp,X
   3	1	0.0	2	0	# X,c3,ca,X
   4	1	1.0	2	180	# X,c,ca,X
   5	1	2.5	2	180	# X,c,n,X
   6	1	0.45	2	180	# X,ca,n,X
   7	1	3.625	2	180	# X,ca,cp,X
   8	1	0.9	2	180	# X,ca,oh,X
   9	2	2.5	2	180	2.0	1	0	# hn,n,c,o
  10	1	3.625	2	180	# X,ca,ca,X

Improper Coeffs

   1	1.1	-1	2	# ca,ca,ca,c3
   2	1.1	-1	2	# n,X,X,hn
   3	1.1	-1	2	# ca,X,X,ha
   4	10.5	-1	2	# c,X,X,o

Atoms

   1	1	1	0.463107	43.4031	23.5367	86.3109
   2	1	2	0.061808	44.6794	23.026	86.0763
   3	1	3	0.001427	45.3382	24.025	85.2029
   4	1	2	0.068581	43.1693	24.7419	85.6459
   5	1	3	0.040836	44.4495	25.0508	84.9613
   6	1	5	-0.386232	45.1903	22.014	86.528
   7	1	5	-0.391601	42.1639	25.4347	85.649
   8	1	3	-0.001718	46.6348	24.0434	84.6865
   9	1	3	-0.033153	44.8279	26.1714	84.2221
  10	1	3	-0.217995	46.1254	26.2088	83.677
  11	1	3	-0.067978	47.0372	25.1365	83.8721
  12	1	6	0.155939	47.3047	23.2164	84.9092
  13	1	6	0.152973	44.1405	26.9959	84.0875
  14	1	6	0.17647	46.4013	27.0919	83.1097
  15	1	7	-0.111335	48.4646	25.1361	83.2628
  16	1	7	0.291988	48.6381	26.0979	82.0244
  17	1	8	-0.108289	48.6513	27.408	82.3554
  18	1	8	-0.102972	47.6541	25.9424	81.1125
  19	1	8	-0.103001	49.7994	25.8592	81.3754
  20	1	7	0.43552	49.4296	25.6104	84.4158
  21	1	8	-0.137748	49.4517	24.726	85.4362
  22	1	8	-0.132227	49.0417	26.7872	84.9607
  23	1	8	-0.124157	50.7032	25.784	83.996
  24	1	3	-0.009135	48.726	23.6905	82.7416
  25	1	3	-0.073591	47.7177	23.0691	81.9603
  26	1	3	-0.051923	47.9085	21.7633	81.5004
  27	1	3	-0.057717	49.9174	22.9552	83.003
  28	1	3	-0.156758	50.0845	21.6319	82.5361
  29	1	3	-0.020332	49.0516	21.0545	81.7883
  30	1	2	0.469602	48.9278	19.705	81.1683
  31	1	1	-0.076132	47.7021	19.6973	80.507
  32	1	2	0.458333	47.0352	20.907	80.66
  33	1	3	-0.008032	47.2251	18.6099	79.6995
  34	1	3	-0.195997	48.1225	17.9846	78.8101
  35	1	3	-0.113065	47.6923	16.9517	77.9641
  36	1	3	0.271942	45.8776	18.1637	79.7182
  37	1	3	-0.220579	45.4622	17.116	78.8845
  38	1	9	0.005883	46.3541	16.497	77.9795
  39	1	6	0.164552	50.9924	21.0688	82.7439
  40	1	6	0.136991	50.7289	23.3927	83.5741
  41	1	6	0.136379	46.7983	23.5896	81.7082
  42	1	5	-0.461381	45.9326	21.2001	80.2327
  43	1	5	-0.471091	49.7519	18.8093	81.2373
  44	1	6	0.134736	44.4193	16.8193	78.9061
  45	1	6	0.169495	49.1624	18.3012	78.7649
  46	1	10	-0.554106	44.9241	18.7462	80.4981
  47	1	9	-0.02772	45.8937	15.4201	77.0475
  48	1	6	0.133194	48.4125	16.4895	77.2953
  49	1	3	-0.144307	44.8857	14.5	77.4276
  50	1	3	0.023803	44.4628	13.4889	76.5521
  51	1	3	0.335896	45.0405	13.3766	75.2716
  52	1	3	-0.53864	46.0381	14.2837	74.8723
  53	1	3	-0.029171	46.4555	15.2976	75.7525
  54	1	6	0.130758	47.2084	16.0094	75.4246
  55	1	6	0.243773	46.4735	14.1993	73.8822
  56	1	6	0.131936	44.4521	14.5643	78.4203
  57	1	10	-0.547641	43.5094	12.6046	76.9669
  58	1	11	0.436946	45.0889	19.7192	80.4577
  59	1	11	0.442856	43.2591	12.8198	77.882
  60	1	3	-0.004194	39.6049	29.2346	92.027
  61	1	3	-0.097141	38.5472	28.9969	92.9443
  62	1	3	-0.172015	37.2454	29.4746	92.6184
  63	1	5	-0.377994	41.3653	29.7433	89.5275
  64	1	3	0.033493	39.307	29.8077	90.7918
  65	1	3	-0.063739	36.9693	30.0577	91.3688
  66	1	5	-0.398381	37.0122	30.9209	88.4036
  67	1	3	0.032144	38.0197	30.1751	90.4602
  68	1	2	0.032313	40.1703	29.9781	89.5999
  69	1	1	0.461698	39.3037	30.3938	88.5924
  70	1	2	0.091945	37.9951	30.5727	89.0362
  71	1	3	-0.10563	41.3105	25.0911	93.9301
  72	1	7	-0.099376	38.8418	28.1248	94.1976
  73	1	3	-0.043296	39.5838	26.8493	93.6952
  74	1	3	-0.073043	40.6064	26.2032	94.4456
  75	1	3	-0.117827	40.9835	24.6363	92.646
  76	1	3	-0.037562	39.2326	26.2997	92.4332
  77	1	3	-0.083705	39.97	25.2296	91.9259
  78	1	7	0.396	37.542	27.6209	94.9264
  79	1	7	0.310495	39.693	29.0264	95.1717
  80	1	8	-0.130298	37.8223	26.7274	95.8988
  81	1	8	-0.128745	36.7139	26.9838	94.065
  82	1	8	-0.120019	36.8442	28.6204	95.5121
  83	1	8	-0.104287	39.1552	30.2618	95.2884
  84	1	8	-0.095507	40.9551	29.2057	94.7198
  85	1	8	-0.104872	39.7931	28.5347	96.4265
  86	1	2	0.456145	39.9199	24.6112	90.5811
  87	1	2	0.550902	41.6025	23.585	91.7892
  88	1	1	0.015704	40.9424	23.6733	90.566
  89	1	5	-0.456801	39.1956	24.9528	89.661
  90	1	5	-0.487703	42.5387	22.8671	92.0947
  91	1	3	-0.116566	41.3154	22.9816	89.3743
  92	1	3	-0.050109	42.2503	23.5627	88.4849
  93	1	3	0.154929	42.4898	22.9463	87.2273
  94	1	3	0.041555	40.6572	21.7837	89.0314
  95	1	3	-0.223109	40.9185	21.1738	87.7937
  96	1	3	-0.080449	41.824	21.7454	86.8846
  97	1	7	-0.108008	39.6428	21.1519	89.9769
  98	1	7	-0.182228	42.041	21.0598	85.5367
  99	1	7	-0.345523	42.9695	24.8674	88.8674
 100	1	6	0.155183	40.6167	28.883	92.2135
 101	1	6	0.172904	36.4049	29.3448	93.291
 102	1	6	0.158028	35.9608	30.3523	91.0887
 103	1	6	0.153129	42.1109	24.6205	94.496
 104	1	6	0.142914	40.8787	26.5658	95.4319
 105	1	6	0.135531	38.4421	26.7267	91.821
 106	1	6	0.17765	40.403	20.2542	87.5344
 107	1	12	0.046541	38.7404	21.7729	90.0541
 108	1	12	0.045238	40.0616	21.0313	90.9836
 109	1	12	0.051941	39.3305	20.1578	89.6343
 110	1	12	0.087961	41.4637	20.1298	85.4561
 111	1	12	0.066782	43.0932	20.7928	85.3784
 112	1	12	0.075908	41.7243	21.7099	84.7134
 113	1	12	0.105172	43.9976	24.9035	88.487
 114	1	12	0.115625	43.0667	25.0047	89.9502
 115	1	12	0.140296	42.432	25.7402	88.4705
 116	1	3	-0.004194	44.5855	24.2994	79.6045
 117	1	3	-0.097141	43.2848	24.8389	79.7545
 118	1	3	-0.172015	42.9913	26.072	79.1052
 119	1	5	-0.377994	47.4972	23.5936	78.8551
 120	1	3	0.033493	45.5171	24.977	78.8219
 121	1	3	-0.063739	43.9544	26.7492	78.3248
 122	1	5	-0.398381	46.4879	27.5701	76.6758
 123	1	3	0.032144	45.2166	26.1652	78.1894
 124	1	2	0.032313	46.8865	24.5667	78.4418
 125	1	1	0.461698	47.3107	25.5378	77.5396
 126	1	2	0.091945	46.386	26.5648	77.3608
 127	1	3	-0.10563	39.0376	25.6576	82.1679
 128	1	7	-0.099376	42.147	24.0356	80.449
 129	1	3	-0.043296	41.2477	25.0023	81.2685
 130	1	3	-0.073043	39.8428	24.7999	81.3935
 131	1	3	-0.117827	39.6581	26.7233	82.8238
 132	1	3	-0.037562	41.8394	26.081	81.9737
 133	1	3	-0.083705	41.0192	26.9283	82.7285
 134	1	7	0.396	42.6703	22.9505	81.4658
 135	1	7	0.310495	41.3693	23.3199	79.2786
 136	1	8	-0.130298	43.2132	21.8737	80.8576
 137	1	8	-0.128745	41.6751	22.4765	82.2478
 138	1	8	-0.120019	43.6032	23.4545	82.3074
 139	1	8	-0.104287	40.582	22.304	79.699
 140	1	8	-0.095507	40.5792	24.184	78.5997
 141	1	8	-0.104872	42.2124	22.7861	78.3658
 142	1	2	0.456145	41.3644	28.113	83.5558
 143	1	2	0.550902	39.089	27.7636	83.7221
 144	1	1	0.015704	40.1698	28.5412	84.1168
 145	1	5	-0.456801	42.466	28.627	83.6577
 146	1	5	-0.487703	37.9145	27.8957	84.0235
 147	1	3	-0.116566	40.0737	29.6494	85.0073
 148	1	3	-0.050109	39.8203	29.442	86.3853
 149	1	3	0.154929	39.6897	30.5674	87.239
 150	1	3	0.041555	40.2122	30.9589	84.4966
 151	1	3	-0.223109	40.1379	32.0549	85.3677
 152	1	3	-0.080449	39.8788	31.8728	86.7331
 153	1	7	-0.108008	40.4045	31.2199	83.0071
 154	1	7	-0.182228	39.7675	33.1093	87.6198
 155	1	7	-0.345523	39.6374	28.0182	86.9384
 156	1	6	0.155183	44.8726	23.3467	80.0201
 157	1	6	0.172904	41.988	26.4893	79.1633
 158	1	6	0.158028	43.7166	27.6721	77.8003
 159	1	6	0.153129	37.966	25.4932	82.2662
 160	1	6	0.142914	39.3507	23.9637	80.9101
 161	1	6	0.135531	42.9098	26.2583	81.9401
 162	1	6	0.17765	40.2493	33.0616	84.9713
 163	1	12	0.046541	40.2815	32.2816	82.7638
 164	1	12	0.045238	39.6732	30.6659	82.4065
 165	1	12	0.051941	41.4102	30.9234	82.6804
 166	1	12	0.087961	40.3224	33.9553	87.1946
 167	1	12	0.066782	40.1775	32.9378	88.6227
 168	1	12	0.075908	38.7211	33.4218	87.7264
 169	1	12	0.105172	38.5719	27.7607	87.0138
 170	1	12	0.115625	40.0874	27.8897	87.929
 171	1	12	0.140296	40.1166	27.2478	86.322
 172	1	1	0.463107	59.253	20.4781	66.1011
 173	1	2	0.061808	59.079	21.7301	66.6817
 174	1	3	0.001427	59.9964	21.7313	67.8483
 175	1	2	0.068581	60.1258	19.6562	66.8088
 176	1	3	0.040836	60.6094	20.497	67.9281
 177	1	5	-0.386232	58.3345	22.6325	66.3339
 178	1	5	-0.391601	60.44	18.4997	66.5761
 179	1	3	-0.001718	60.325	22.768	68.7234
 180	1	3	-0.033153	61.5711	20.2228	68.9016
 181	1	3	-0.217995	61.916	21.2556	69.7954
 182	1	3	-0.067978	61.3124	22.5426	69.7175
 183	1	6	0.155939	59.8503	23.7402	68.596
 184	1	6	0.152973	62.0604	19.2512	68.9356
 185	1	6	0.17647	62.6914	21.0412	70.5217
 186	1	7	-0.111335	61.7689	23.7329	70.6053
 187	1	7	0.291988	62.5372	23.3039	71.9139
 188	1	8	-0.108289	62.6696	24.3421	72.77
 189	1	8	-0.102972	63.7865	22.8478	71.6759
 190	1	8	-0.103001	61.8791	22.3381	72.595
 191	1	7	0.43552	62.7182	24.6069	69.6943
 192	1	8	-0.137748	63.6679	23.8551	69.0922
 193	1	8	-0.132227	63.3741	25.5727	70.3749
 194	1	8	-0.124157	62.0347	25.2146	68.6971
 195	1	3	-0.009135	60.4982	24.4806	71.093
 196	1	3	-0.073591	59.4065	23.7212	71.591
 197	1	3	-0.051923	58.2764	24.3891	72.0751
 198	1	3	-0.057717	60.4056	25.9009	71.1288
 199	1	3	-0.156758	59.2614	26.555	71.6252
 200	1	3	-0.020332	58.2065	25.7656	72.0916
 201	1	2	0.469602	56.9173	26.1607	72.7094
 202	1	1	-0.076132	56.2774	24.9705	73.0348
 203	1	2	0.458333	57.0215	23.8584	72.6697
 204	1	3	-0.008032	55.0243	24.919	73.7129
 205	1	3	-0.195997	54.8532	25.7099	74.8618
 206	1	3	-0.113065	53.6096	25.7715	75.5027
 207	1	3	0.271942	53.935	24.1519	73.2432
 208	1	3	-0.220579	52.6839	24.2589	73.8598
 209	1	9	0.005883	52.4813	25.0743	75.0026
 210	1	6	0.164552	59.1994	27.6397	71.6625
 211	1	6	0.136991	61.2218	26.5261	70.787
 212	1	6	0.136379	59.4364	22.6369	71.6132
 213	1	5	-0.461381	56.6943	22.6873	72.7672
 214	1	5	-0.471091	56.5514	27.3013	72.9308
 215	1	6	0.134736	51.8672	23.7004	73.4211
 216	1	6	0.169495	55.6795	26.3024	75.2501
 217	1	10	-0.554106	54.0599	23.2848	72.1999
 218	1	9	-0.02772	51.1319	25.1984	75.6564
 219	1	6	0.133194	53.5315	26.3834	76.3934
 220	1	3	-0.144307	50.094	24.2642	75.4036
 221	1	3	0.023803	48.8263	24.4022	75.9904
 222	1	3	0.335896	48.5662	25.4651	76.8845
 223	1	3	-0.53864	49.5825	26.4074	77.1455
 224	1	3	-0.029171	50.8358	26.2782	76.5291
 225	1	6	0.130758	51.5778	27.0461	76.7207
 226	1	6	0.243773	49.3897	27.247	77.8099
 227	1	6	0.131936	50.2702	23.421	74.7465
 228	1	10	-0.547641	47.8551	23.4919	75.6702
 229	1	11	0.436946	54.9513	22.8735	72.2805
 230	1	11	0.442856	48.2484	22.7694	75.1463
 231	1	1	0.463107	58.5582	14.676	50.086
 232	1	2	0.061808	57.5879	15.0104	51.0291
 233	1	3	0.001427	57.1014	13.7096	51.5553
 234	1	2	0.068581	58.7244	13.2987	49.9406
 235	1	3	0.040836	57.8017	12.6985	50.9336
 236	1	5	-0.386232	57.2105	16.1176	51.38
 237	1	5	-0.391601	59.4014	12.69	49.1268
 238	1	3	-0.001718	56.0693	13.4363	52.4573
 239	1	3	-0.033153	57.5529	11.3578	51.2293
 240	1	3	-0.217995	56.536	11.0582	52.1592
 241	1	3	-0.067978	55.7615	12.0847	52.7726
 242	1	6	0.155939	55.4882	14.2651	52.851
 243	1	6	0.152973	58.112	10.5699	50.7269
 244	1	6	0.17647	56.3265	10.0095	52.3419
 245	1	7	-0.111335	54.4891	11.7596	53.6112
 246	1	7	0.291988	53.3254	11.6738	52.5509
 247	1	8	-0.108289	53.0865	12.8862	52.001
 248	1	8	-0.102972	52.1604	11.2141	53.0579
 249	1	8	-0.103001	53.6244	10.847	51.5216
 250	1	7	0.43552	54.5854	10.4007	54.4022
 251	1	8	-0.137748	53.6184	10.3039	55.3433
 252	1	8	-0.132227	55.7662	10.2836	55.0501
 253	1	8	-0.124157	54.4551	9.30609	53.623
 254	1	3	-0.009135	54.256	12.8676	54.6858
 255	1	3	-0.073591	55.3499	13.3252	55.4705
 256	1	3	-0.051923	55.1325	14.3349	56.4221
 257	1	3	-0.057717	52.9648	13.4108	54.957
 258	1	3	-0.156758	52.7639	14.3968	55.94
 259	1	3	-0.020332	53.8763	14.8533	56.6492
 260	1	2	0.469602	53.9681	15.8637	57.7325
 261	1	1	-0.076132	55.3054	15.8965	58.1056
 262	1	2	0.458333	56.0785	15.0201	57.3486
 263	1	3	-0.008032	55.8068	16.6761	59.1951
 264	1	3	-0.195997	56.9276	17.5083	59.0149
 265	1	3	-0.113065	57.4507	18.244	60.0953
 266	1	3	0.271942	55.2195	16.6004	60.4763
 267	1	3	-0.220579	55.7626	17.3097	61.5508
 268	1	9	0.005883	56.8845	18.1621	61.394
 269	1	6	0.164552	51.7738	14.8024	56.1396
 270	1	6	0.136991	52.0846	13.0866	54.4164
 271	1	6	0.136379	56.3519	12.9229	55.3328
 272	1	5	-0.461381	57.2793	14.8264	57.4183
 273	1	5	-0.471091	53.0317	16.427	58.2757
 274	1	6	0.134736	55.302	17.1697	62.5207
 275	1	6	0.169495	57.4062	17.575	58.0386
 276	1	10	-0.554106	54.1121	15.8449	60.7111
 277	1	9	-0.02772	57.4644	18.9008	62.5734
 278	1	6	0.133194	58.3045	18.8862	59.9124
 279	1	3	-0.144307	58.8043	19.369	62.5751
 280	1	3	0.023803	59.3736	19.9485	63.7206
 281	1	3	0.335896	58.618	20.0564	64.9091
 282	1	3	-0.53864	57.267	19.6532	64.9125
 283	1	3	-0.029171	56.7024	19.0934	63.7558
 284	1	6	0.130758	55.6622	18.7871	63.7917
 285	1	6	0.243773	56.6713	19.7487	65.8141
 286	1	6	0.131936	59.4248	19.2363	61.697
 287	1	10	-0.547641	60.6784	20.3636	63.6734
 288	1	11	0.436946	53.4948	16.0165	59.9623
 289	1	11	0.442856	61.0657	20.1038	62.8187
 290	1	1	0.463107	70.8081	30.8256	45.8351
 291	1	2	0.061808	69.4273	30.7731	45.6323
 292	1	3	0.001427	69.1734	29.4932	44.9228
 293	1	2	0.068581	71.4628	29.7147	45.2972
 294	1	3	0.040836	70.3789	28.8466	44.7547
 295	1	5	-0.386232	68.5745	31.5561	46.0136
 296	1	5	-0.391601	72.6608	29.4813	45.2783
 297	1	3	-0.001718	67.9591	28.9313	44.504
 298	1	3	-0.033153	70.4264	27.5655	44.201
 299	1	3	-0.217995	69.2085	26.9584	43.8192
 300	1	3	-0.067978	67.9528	27.6284	43.9286
 301	1	6	0.155939	67.0607	29.5139	44.6654
 302	1	6	0.152973	71.3792	27.0526	44.0841
 303	1	6	0.17647	69.2588	25.9496	43.4203
 304	1	7	-0.111335	66.6381	26.8891	43.4865
 305	1	7	0.291988	66.8836	26.2593	42.043
 306	1	8	-0.108289	65.7779	26.1317	41.2788
 307	1	8	-0.102972	67.4158	25.0197	42.1187
 308	1	8	-0.103001	67.7393	26.9967	41.3011
 309	1	7	0.43552	65.3807	27.8481	43.4219
 310	1	8	-0.137748	65.0574	28.3249	44.6447
 311	1	8	-0.132227	64.2471	27.2443	42.9968
 312	1	8	-0.124157	65.5919	28.9035	42.6058
 313	1	3	-0.009135	66.296	25.7955	44.5426
 314	1	3	-0.073591	65.3707	24.7658	44.231
 315	1	3	-0.051923	65.0682	23.8067	45.2042
 316	1	3	-0.057717	66.8368	25.8343	45.8623
 317	1	3	-0.156758	66.5152	24.8616	46.8318
 318	1	3	-0.020332	65.6322	23.8417	46.4626
 319	1	2	0.469602	65.1139	22.6768	47.2297
 320	1	1	-0.076132	64.2343	22.0274	46.3799
 321	1	2	0.458333	64.1556	22.6348	45.138
 322	1	3	-0.008032	63.4614	20.8921	46.7515
 323	1	3	-0.195997	62.0619	20.9573	46.6351
 324	1	3	-0.113065	61.2672	19.8836	47.0633
 325	1	3	0.271942	64.0582	19.7168	47.2537
 326	1	3	-0.220579	63.2612	18.6361	47.6415
 327	1	9	0.005883	61.8459	18.7024	47.5915
 328	1	6	0.164552	66.9383	24.8987	47.8341
 329	1	6	0.136991	67.516	26.6278	46.158
 330	1	6	0.136379	64.8947	24.6987	43.2555
 331	1	5	-0.461381	63.4767	22.292	44.1881
 332	1	5	-0.471091	65.4765	22.3006	48.3318
 333	1	6	0.134736	63.7616	17.7497	48.014
 334	1	6	0.169495	61.5844	21.8578	46.2531
 335	1	10	-0.554106	65.4034	19.624	47.4414
 336	1	9	-0.02772	60.9952	17.6095	48.1688
 337	1	6	0.133194	60.187	20.0001	47.0315
 338	1	3	-0.144307	61.5092	16.7543	49.177
 339	1	3	0.023803	60.7074	15.782	49.792
 340	1	3	0.335896	59.3572	15.6362	49.414
 341	1	3	-0.53864	58.8223	16.4846	48.4216
 342	1	3	-0.029171	59.6335	17.4528	47.8071
 343	1	6	0.130758	59.1915	18.0901	47.0478
 344	1	6	0.243773	57.7754	16.3989	48.1402
 345	1	6	0.131936	62.5283	16.88	49.523
 346	1	10	-0.547641	61.2415	15.0227	50.8004
 347	1	11	0.436946	65.6828	20.4682	47.8654
 348	1	11	0.442856	62.2046	15.1806	50.8427
 349	1	3	-0.004194	72.2693	42.0028	48.1317
 350	1	3	-0.097141	71.5531	42.5393	47.0375
 351	1	3	-0.172015	71.9294	43.8236	46.5479
 352	1	5	-0.377994	74.482	41.0037	49.9214
 353	1	3	0.033493	73.3835	42.6839	48.612
 354	1	3	-0.063739	73.066	44.4965	47.0502
 355	1	5	-0.398381	75.9288	45.0441	48.162
 356	1	3	0.032144	73.7981	43.8846	48.0721
 357	1	2	0.032313	74.4775	42.1163	49.4182
 358	1	1	0.461698	75.5494	42.9749	49.2081
 359	1	2	0.091945	75.2001	44.1302	48.5147
 360	1	3	-0.10563	73.1456	38.9051	45.4437
 361	1	7	-0.099376	70.4955	41.622	46.3597
 362	1	3	-0.043296	71.1638	40.2126	46.1862
 363	1	3	-0.073043	72.4605	40.1308	45.5967
 364	1	3	-0.117827	72.5198	37.7388	45.8968
 365	1	3	-0.037562	70.5666	38.9981	46.6258
 366	1	3	-0.083705	71.2688	37.7908	46.4744
 367	1	7	0.396	69.2202	41.6195	47.294
 368	1	7	0.310495	70.0783	42.109	44.9172
 369	1	8	-0.130298	68.1735	40.9538	46.7518
 370	1	8	-0.128745	68.796	42.8744	47.5689
 371	1	8	-0.120019	69.4669	41.0542	48.4978
 372	1	8	-0.104287	69.3371	41.1794	44.2776
 373	1	8	-0.095507	71.1451	42.3407	44.1179
 374	1	8	-0.104872	69.3449	43.2449	44.9323
 375	1	2	0.456145	70.9056	36.4125	46.9044
 376	1	2	0.550902	72.9946	36.3233	45.9312
 377	1	1	0.015704	71.9796	35.602	46.5493
 378	1	5	-0.456801	69.9078	36.0979	47.5301
 379	1	5	-0.487703	74.0834	35.9164	45.5608
 380	1	3	-0.116566	72.0722	34.2193	46.9104
 381	1	3	-0.050109	71.4741	33.209	46.1142
 382	1	3	0.154929	71.4623	31.8607	46.5768
 383	1	3	0.041555	72.7036	33.8832	48.1266
 384	1	3	-0.223109	72.6914	32.5543	48.5689
 385	1	3	-0.080449	72.0686	31.5452	47.8206
 386	1	7	-0.108008	73.3808	34.9374	48.9949
 387	1	7	-0.182228	72.0654	30.1349	48.4082
 388	1	7	-0.345523	70.8122	33.6073	44.7887
 389	1	6	0.155183	72.0641	41.0058	48.5142
 390	1	6	0.172904	71.4045	44.2849	45.7188
 391	1	6	0.158028	73.4264	45.4154	46.5934
 392	1	6	0.153129	74.1422	38.8671	45.0085
 393	1	6	0.142914	72.9618	41.038	45.2697
 394	1	6	0.135531	69.5886	38.9645	47.0947
 395	1	6	0.17765	73.1529	32.3103	49.523
 396	1	12	0.046541	74.1031	35.5268	48.4189
 397	1	12	0.045238	73.9337	34.4885	49.8296
 398	1	12	0.051941	72.6394	35.6276	49.422
 399	1	12	0.087961	72.2508	30.1515	49.491
 400	1	12	0.066782	72.8495	29.5176	47.959
 401	1	12	0.075908	71.1015	29.6266	48.2651
 402	1	12	0.105172	71.3684	34.4015	44.2751
 403	1	12	0.115625	69.7896	33.972	44.9607
 404	1	12	0.140296	70.7534	32.786	44.065
 405	1	1	0.463107	72.762	30.1841	41.4875
 406	1	2	0.061808	73.5392	29.1802	42.0714
 407	1	3	0.001427	74.6263	29.9004	42.7981
 408	1	2	0.068581	73.2226	31.4641	41.7698
 409	1	3	0.040836	74.4299	31.2558	42.6056
 410	1	5	-0.386232	73.3105	27.9825	42.1089
 411	1	5	-0.391601	72.6932	32.5323	41.507
 412	1	3	-0.001718	75.6644	29.4161	43.6145
 413	1	3	-0.033153	75.2727	32.2023	43.1855
 414	1	3	-0.217995	76.3342	31.7361	43.9802
 415	1	3	-0.067978	76.5349	30.349	44.2431
 416	1	6	0.155939	75.7708	28.3446	43.7516
 417	1	6	0.152973	75.108	33.2648	43.0212
 418	1	6	0.17647	76.9989	32.481	44.4106
 419	1	7	-0.111335	77.7228	29.9354	45.1705
 420	1	7	0.291988	78.9936	29.9183	44.2401
 421	1	8	-0.108289	78.808	29.1163	43.1669
 422	1	8	-0.102972	80.1087	29.4809	44.8677
 423	1	8	-0.103001	79.2676	31.1415	43.7334
 424	1	7	0.43552	77.5668	28.5284	45.8755
 425	1	8	-0.137748	77.8222	27.4785	45.0628
 426	1	8	-0.132227	76.3231	28.3408	46.3652
 427	1	8	-0.124157	78.4077	28.4104	46.9322
 428	1	3	-0.009135	77.7768	30.9923	46.3124
 429	1	3	-0.073591	78.9309	31.7707	46.6044
 430	1	3	-0.051923	78.8119	32.8444	47.4996
 431	1	3	-0.057717	76.5667	31.2855	47.0049
 432	1	3	-0.156758	76.4709	32.3645	47.9012
 433	1	3	-0.020332	77.6135	33.1383	48.1116
 434	1	2	0.469602	77.7541	34.4293	48.8185
 435	1	1	-0.076132	79.0526	34.868	48.5637
 436	1	2	0.458333	79.7709	33.9389	47.8165
 437	1	3	-0.008032	79.469	36.2057	48.8671
 438	1	3	-0.195997	79.0551	36.7609	50.0951
 439	1	3	-0.113065	79.0111	38.151	50.2676
 440	1	3	0.271942	80.0279	37.0684	47.89
 441	1	3	-0.220579	80.0038	38.4556	48.0832
 442	1	9	0.005883	79.4108	39.0286	49.2338
 443	1	6	0.164552	75.5205	32.6377	48.3534
 444	1	6	0.136991	75.6603	30.7317	46.7741
 445	1	6	0.136379	79.8788	31.6193	46.1
 446	1	5	-0.461381	80.8944	34.0706	47.3562
 447	1	5	-0.471091	76.8451	35.018	49.3798
 448	1	6	0.134736	80.3323	39.09	47.2683
 449	1	6	0.169495	78.6093	36.1345	50.8566
 450	1	10	-0.554106	80.474	36.625	46.6793
 451	1	9	-0.02772	78.852	40.4167	49.2051
 452	1	6	0.133194	78.5068	38.539	51.148
 453	1	3	-0.144307	78.2891	40.8716	47.9896
 454	1	3	0.023803	77.2867	41.8455	47.9831
 455	1	3	0.335896	76.852	42.4191	49.2005
 456	1	3	-0.53864	77.5302	42.1068	50.401
 457	1	3	-0.029171	78.5189	41.1078	50.3986
 458	1	6	0.130758	78.9272	40.7657	51.3477
 459	1	6	0.243773	77.1686	42.5002	51.351
 460	1	6	0.131936	78.4848	40.3262	47.0713
 461	1	10	-0.547641	76.6119	42.0472	46.807
 462	1	11	0.436946	80.7854	35.6949	46.7986
 463	1	11	0.442856	77.0875	41.5823	46.0943
 464	1	1	0.463107	58.8523	20.9432	41.4224
 465	1	2	0.061808	58.2917	22.2178	41.5315
 466	1	3	0.001427	58.534	22.8633	40.2093
 467	1	2	0.068581	59.4506	20.7182	40.1858
 468	1	3	0.040836	59.23	21.9694	39.421
 469	1	5	-0.386232	57.6355	22.6784	42.451
 470	1	5	-0.391601	59.9126	19.6774	39.7473
 471	1	3	-0.001718	58.1177	24.1097	39.7145
 472	1	3	-0.033153	59.5756	22.2783	38.106
 473	1	3	-0.217995	59.1956	23.5355	37.6019
 474	1	3	-0.067978	58.4582	24.4706	38.3773
 475	1	6	0.155939	57.5478	24.7547	40.3744
 476	1	6	0.152973	60.1269	21.5639	37.4969
 477	1	6	0.17647	59.497	23.7847	36.5858
 478	1	7	-0.111335	58.1104	25.8418	37.7192
 479	1	7	0.291988	57.0776	25.5623	36.5531
 480	1	8	-0.108289	57.6362	24.9158	35.5029
 481	1	8	-0.102972	56.5164	26.6842	36.0468
 482	1	8	-0.103001	56.058	24.7842	36.981
 483	1	7	0.43552	57.4785	26.8796	38.7222
 484	1	8	-0.137748	56.2552	26.5065	39.1587
 485	1	8	-0.132227	57.3463	28.1032	38.1621
 486	1	8	-0.124157	58.2511	27.065	39.8161
 487	1	3	-0.009135	59.4477	26.4695	37.2356
 488	1	3	-0.073591	60.5771	26.3931	38.091
 489	1	3	-0.051923	61.7685	27.0135	37.708
 490	1	3	-0.057717	59.5772	27.1888	36.0127
 491	1	3	-0.156758	60.7934	27.7987	35.6394
 492	1	3	-0.020332	61.8817	27.6911	36.5127
 493	1	2	0.469602	63.2561	28.2538	36.4275
 494	1	1	-0.076132	63.8808	27.866	37.6019
 495	1	2	0.458333	63.0573	27.1272	38.4333
 496	1	3	-0.008032	65.1667	28.3011	38.0005
 497	1	3	-0.195997	66.3082	27.5554	37.6592
 498	1	3	-0.113065	67.5687	27.9519	38.1372
 499	1	3	0.271942	65.2936	29.4516	38.8008
 500	1	3	-0.220579	66.5533	29.8513	39.2632
 501	1	9	0.005883	67.7107	29.1009	38.9524
 502	1	6	0.164552	60.8863	28.3545	34.7096
 503	1	6	0.136991	58.7346	27.3008	35.3396
 504	1	6	0.136379	60.5299	25.8896	39.0539
 505	1	5	-0.461381	63.3163	26.6756	39.5348
 506	1	5	-0.471091	63.7115	28.9322	35.5226
 507	1	6	0.134736	66.6386	30.7324	39.8912
 508	1	6	0.169495	66.214	26.6542	37.0583
 509	1	10	-0.554106	64.1953	30.1753	39.1608
 510	1	9	-0.02772	69.0236	29.4515	39.5696
 511	1	6	0.133194	68.4383	27.3352	37.9214
 512	1	3	-0.144307	70.2368	29.3428	38.8489
 513	1	3	0.023803	71.4729	29.5906	39.4711
 514	1	3	0.335896	71.5199	29.9508	40.8373
 515	1	3	-0.53864	70.3109	30.1033	41.5501
 516	1	3	-0.029171	69.0817	29.8457	40.9262
 517	1	6	0.130758	68.162	29.9231	41.5019
 518	1	6	0.243773	70.3318	30.4286	42.5811
 519	1	6	0.131936	70.2041	29.0548	37.8021
 520	1	10	-0.547641	72.619	29.4785	38.7339
 521	1	11	0.436946	64.5061	31.0028	39.5618
 522	1	11	0.442856	72.3885	29.2527	37.8142
 523	1	1	0.463107	50.399	4.7367	43.5627
 524	1	2	0.061808	51.445	4.21316	44.3114
 525	1	3	0.001427	52.1543	5.39404	44.8498
 526	1	2	0.068581	50.3273	6.12634	43.6053
 527	1	3	0.040836	51.5081	6.53298	44.4151
 528	1	5	-0.386232	51.772	3.04704	44.4492
 529	1	5	-0.391601	49.5041	6.85781	43.0772
 530	1	3	-0.001718	53.3433	5.44365	45.581
 531	1	3	-0.033153	52.0415	7.79685	44.6736
 532	1	3	-0.217995	53.2583	7.87031	45.3864
 533	1	3	-0.067978	53.9283	6.70388	45.8637
 534	1	6	0.155939	53.8142	4.50764	45.8622
 535	1	6	0.152973	51.5484	8.68928	44.2929
 536	1	6	0.17647	53.6904	8.85683	45.5245
 537	1	7	-0.111335	55.3165	6.78062	46.5724
 538	1	7	0.291988	55.3381	5.90821	47.8931
 539	1	8	-0.108289	56.3925	6.2311	48.6739
 540	1	8	-0.102972	55.4179	4.57263	47.6989
 541	1	8	-0.103001	54.2241	6.08866	48.6335
 542	1	7	0.43552	56.3942	6.19808	45.5715
 543	1	8	-0.137748	56.2023	4.90174	45.2379
 544	1	8	-0.132227	57.6427	6.27334	46.0816
 545	1	8	-0.124157	56.3826	6.85427	44.3903
 546	1	3	-0.009135	55.6254	8.267	46.9848
 547	1	3	-0.073591	56.64	9.05887	46.3722
 548	1	3	-0.051923	56.7852	10.4048	46.7441
 549	1	3	-0.057717	54.8087	8.90894	47.9645
 550	1	3	-0.156758	54.9957	10.2525	48.3492
 551	1	3	-0.020332	56.0035	10.983	47.7189
 552	1	2	0.469602	56.3071	12.439	47.7736
 553	1	1	-0.076132	57.2107	12.6674	46.7447
 554	1	2	0.458333	57.5892	11.4879	46.1178
 555	1	3	-0.008032	57.5364	13.9649	46.244
 556	1	3	-0.195997	56.485	14.8702	46.0036
 557	1	3	-0.113065	56.7325	16.0986	45.3781
 558	1	3	0.271942	58.8539	14.3438	45.892
 559	1	3	-0.220579	59.0917	15.5684	45.25
 560	1	9	0.005883	58.0321	16.4592	44.9518
 561	1	6	0.164552	54.3316	10.733	49.0628
 562	1	6	0.136991	53.9733	8.38264	48.4119
 563	1	6	0.136379	57.2798	8.69201	45.5773
 564	1	5	-0.461381	58.3244	11.3773	45.1528
 565	1	5	-0.471091	55.7685	13.2642	48.4941
 566	1	6	0.134736	60.0997	15.7983	44.9323
 567	1	6	0.169495	55.461	14.6112	46.2651
 568	1	10	-0.554106	59.916	13.5101	46.0723
 569	1	9	-0.02772	58.2402	17.686	44.1172
 570	1	6	0.133194	55.8976	16.7668	45.1885
 571	1	3	-0.144307	59.4343	18.451	44.1671
 572	1	3	0.023803	59.6292	19.5487	43.3047
 573	1	3	0.335896	58.6348	19.8971	42.3614
 574	1	3	-0.53864	57.4422	19.1427	42.3088
 575	1	3	-0.029171	57.2505	18.0587	43.1766
 576	1	6	0.130758	56.3443	17.465	43.0836
 577	1	6	0.243773	56.6772	19.3866	41.5756
 578	1	6	0.131936	60.2162	18.1714	44.868
 579	1	10	-0.547641	60.7966	20.2579	43.3739
 580	1	11	0.436946	59.6121	12.6045	45.8462
 581	1	11	0.442856	61.3903	19.8723	44.047
 582	1	1	0.463107	37.6888	-6.72141	30.8167
 583	1	2	0.061808	38.2095	-7.33707	31.9535
 584	1	3	0.001427	38.59	-6.21811	32.8528
 585	1	2	0.068581	37.6905	-5.32685	30.9056
 586	1	3	0.040836	38.294	-5.02547	32.2281
 587	1	5	-0.386232	38.4324	-8.52279	32.1391
 588	1	5	-0.391601	37.3527	-4.50759	30.0674
 589	1	3	-0.001718	39.1693	-6.25881	34.1246
 590	1	3	-0.033153	38.5908	-3.80059	32.8333
 591	1	3	-0.217995	39.206	-3.81948	34.1036
 592	1	3	-0.067978	39.497	-5.03805	34.7801
 593	1	6	0.155939	39.3282	-7.23541	34.5669
 594	1	6	0.152973	38.3567	-2.86705	32.327
 595	1	6	0.17647	39.439	-2.86738	34.575
 596	1	7	-0.111335	40.0586	-4.97641	36.2363
 597	1	7	0.291988	38.9126	-4.3226	37.1123
 598	1	8	-0.108289	39.036	-4.571	38.4353
 599	1	8	-0.102972	37.691	-4.78571	36.7587
 600	1	8	-0.103001	38.8623	-2.97715	36.9737
 601	1	7	0.43552	40.4152	-6.39372	36.8281
 602	1	8	-0.137748	39.3155	-7.15005	37.0565
 603	1	8	-0.132227	41.0823	-6.31407	38.0017
 604	1	8	-0.124157	41.2356	-7.07944	36.0018
 605	1	3	-0.009135	41.3795	-4.15444	36.2702
 606	1	3	-0.073591	41.7347	-3.39978	37.4181
 607	1	3	-0.051923	42.9422	-2.69849	37.4306
 608	1	3	-0.057717	42.3031	-4.20129	35.187
 609	1	3	-0.156758	43.5241	-3.48667	35.224
 610	1	3	-0.020332	43.8164	-2.73243	36.3688
 611	1	2	0.469602	44.9785	-1.86482	36.7128
 612	1	1	-0.076132	44.731	-1.37577	37.9909
 613	1	2	0.458333	43.5087	-1.82094	38.484
 614	1	3	-0.008032	45.6108	-0.520651	38.7267
 615	1	3	-0.195997	45.8882	-0.835224	40.0724
 616	1	3	-0.113065	46.6919	0.00774065	40.8555
 617	1	3	0.271942	46.1821	0.650344	38.1733
 618	1	3	-0.220579	46.9513	1.50424	38.9712
 619	1	9	0.005883	47.2186	1.20891	40.3278
 620	1	6	0.164552	44.2205	-3.51716	34.39
 621	1	6	0.136991	42.0756	-4.79938	34.3082
 622	1	6	0.136379	41.1029	-3.34189	38.297
 623	1	5	-0.461381	42.9727	-1.54612	39.5431
 624	1	5	-0.471091	45.9036	-1.565	35.9772
 625	1	6	0.134736	47.33	2.41851	38.5261
 626	1	6	0.169495	45.4663	-1.7295	40.5234
 627	1	10	-0.554106	46.0203	0.994538	36.8649
 628	1	9	-0.02772	48.0214	2.14209	41.1761
 629	1	6	0.133194	46.8976	-0.26695	41.8861
 630	1	3	-0.144307	49.0577	2.92153	40.6079
 631	1	3	0.023803	49.8138	3.80557	41.3911
 632	1	3	0.335896	49.5547	3.92065	42.7737
 633	1	3	-0.53864	48.5207	3.15557	43.3563
 634	1	3	-0.029171	47.7619	2.28008	42.5621
 635	1	6	0.130758	46.9594	1.70599	43.0204
 636	1	6	0.243773	48.327	3.22422	44.4236
 637	1	6	0.131936	49.2897	2.81503	39.5532
 638	1	10	-0.547641	50.8202	4.52104	40.7965
 639	1	11	0.436946	46.0359	0.156215	36.3456
 640	1	11	0.442856	50.8078	4.35143	39.837
 641	1	3	-0.004194	27.1744	-11.2343	24.5512
 642	1	3	-0.097141	28.4541	-10.6169	24.6248
 643	1	3	-0.172015	29.5447	-11.2487	23.9609
 644	1	5	-0.377994	24.7507	-13.165	24.1582
 645	1	3	0.033493	27.0661	-12.4947	23.9433
 646	1	3	-0.063739	29.4199	-12.5257	23.3792
 647	1	5	-0.398381	28.5071	-15.3828	22.5705
 648	1	3	0.032144	28.1686	-13.1422	23.4208
 649	1	2	0.032313	25.9022	-13.4196	23.8472
 650	1	1	0.461698	26.4174	-14.613	23.3301
 651	1	2	0.091945	27.775	-14.5213	23.0318
 652	1	3	-0.10563	31.4893	-11.1184	27.5646