pySIMM System Object

2598 atoms
2848 bonds
4908 angles
7552 dihedrals
772 impropers

12 atom types
15 bond types
24 angle types
10 dihedral types
4 improper types

-180.027720 180.027720 xlo xhi
-180.027720 180.027720 ylo yhi
-180.027720 180.027720 zlo zhi

Masses

   1	14.01	# n
   2	12.01	# c
   3	12.01	# ca
   4	1.008	# hn
   5	16.0	# o
   6	1.008	# ha
   7	12.01	# c3
   8	19.0	# f
   9	12.01	# cp
  10	16.0	# oh
  11	1.008	# ho
  12	1.008	# hc

Pair Coeffs

   1	0.17	3.249998523775958	# n
   2	0.086	3.3996695084235347	# c
   3	0.086	3.3996695084235347	# ca
   4	0.0157	1.069078461768407	# hn
   5	0.21	2.959921901149463	# o
   6	0.015	2.59964245953351	# ha
   7	0.1094	3.3996695084235347	# c3
   8	0.061	3.1181455134911875	# f
   9	0.086	3.3996695084235347	# cp
  10	0.2104	3.0664733878390478	# oh
  11	0.0047	0.5379246460131368	# ho
  12	0.0157	2.649532787749369	# hc

Bond Coeffs

   1	403.2	1.0129	# hn,n
   2	356.9	1.3497	# c3,f
   3	384.2	1.4121	# ca,n
   4	450.2	1.4058	# ca,cp
   5	371.4	0.973	# ho,oh
   6	461.1	1.3984	# ca,ca
   7	427.6	1.3789	# c,n
   8	321.0	1.5156	# c3,ca
   9	384.0	1.3637	# ca,oh
  10	345.9	1.4906	# c,ca
  11	345.8	1.086	# ca,ha
  12	637.7	1.2183	# c,o
  13	300.9	1.5375	# c3,c3
  14	351.4	1.4854	# cp,cp
  15	330.6	1.0969	# c3,hc

Angle Coeffs

   1	63.53	120.77	# c3,ca,ca
   2	70.89	107.36	# f,c3,f
   3	67.87	120.19	# ca,ca,n
   4	66.72	118.38	# ca,cp,ca
   5	66.11	109.24	# c3,c3,f
   6	49.0	108.58	# ca,oh,ho
   7	62.86	111.51	# c3,c3,c3
   8	63.15	112.07	# c3,c3,ca
   9	66.26	120.69	# ca,ca,cp
  10	63.56	112.24	# ca,c3,ca
  11	63.82	123.71	# c,n,ca
  12	69.52	119.9	# ca,ca,oh
  13	63.74	127.08	# c,n,c
  14	48.18	119.88	# ca,ca,ha
  15	74.22	123.05	# n,c,o
  16	64.05	121.11	# ca,cp,cp
  17	66.62	120.02	# ca,ca,ca
  18	68.72	122.6	# ca,c,o
  19	67.68	115.25	# ca,c,n
  20	48.33	117.55	# c,n,hn
  21	64.28	120.33	# c,ca,ca
  22	47.98	119.86	# cp,ca,ha
  23	39.4	107.58	# hc,c3,hc
  24	46.8	110.47	# ca,c3,hc

Dihedral Coeffs

   1	1	0.15555555555555556	3	0	# X,c3,c3,X
   2	1	1.0	2	180	# X,cp,cp,X
   3	1	0.0	2	0	# X,c3,ca,X
   4	1	1.0	2	180	# X,c,ca,X
   5	1	2.5	2	180	# X,c,n,X
   6	1	0.45	2	180	# X,ca,n,X
   7	1	3.625	2	180	# X,ca,cp,X
   8	1	0.9	2	180	# X,ca,oh,X
   9	2	2.5	2	180	2.0	1	0	# hn,n,c,o
  10	1	3.625	2	180	# X,ca,ca,X

Improper Coeffs

   1	1.1	-1	2	# ca,ca,ca,c3
   2	1.1	-1	2	# n,X,X,hn
   3	1.1	-1	2	# ca,X,X,ha
   4	10.5	-1	2	# c,X,X,o

Atoms

   1	1	1	0.463107	-35.1969	9.88262	-48.0369
   2	1	2	0.061808	-35.0821	9.30745	-46.775
   3	1	3	0.001427	-36.4724	9.06242	-46.3366
   4	1	2	0.068581	-36.5264	10.1048	-48.4268
   5	1	3	0.040836	-37.3302	9.58201	-47.2873
   6	1	5	-0.386232	-34.0624	9.0715	-46.1481
   7	1	5	-0.391601	-36.9704	10.4736	-49.5063
   8	1	3	-0.001718	-36.9368	8.27376	-45.2832
   9	1	3	-0.033153	-38.7159	9.44494	-47.1635
  10	1	3	-0.217995	-39.2132	8.67543	-46.0925
  11	1	3	-0.067978	-38.3293	8.04726	-45.1621
  12	1	6	0.155939	-36.2098	7.78809	-44.64
  13	1	6	0.152973	-39.3776	9.84595	-47.9275
  14	1	6	0.17647	-40.2834	8.48432	-46.0552
  15	1	7	-0.111335	-38.8674	6.98449	-44.1741
  16	1	7	0.291988	-38.8409	5.64171	-44.9959
  17	1	8	-0.108289	-39.1165	4.55536	-44.2497
  18	1	8	-0.102972	-37.6381	5.4174	-45.5806
  19	1	8	-0.103001	-39.7352	5.65896	-46.0041
  20	1	7	0.43552	-38.0419	6.8152	-42.8427
  21	1	8	-0.137748	-38.7712	6.18161	-41.8925
  22	1	8	-0.132227	-37.7284	8.02505	-42.3458
  23	1	8	-0.124157	-36.8776	6.1415	-42.9721
  24	1	3	-0.009135	-40.2621	7.44962	-43.7034
  25	1	3	-0.073591	-41.3595	6.56669	-43.6364
  26	1	3	-0.051923	-42.5767	7.06075	-43.1731
  27	1	3	-0.057717	-40.4362	8.794	-43.2628
  28	1	3	-0.156758	-41.6822	9.28341	-42.8223
  29	1	3	-0.020332	-42.7494	8.38041	-42.8125
  30	1	2	0.469602	-44.1954	8.59266	-42.5523
  31	1	1	-0.076132	-44.8011	7.34738	-42.7189
  32	1	2	0.458333	-43.8819	6.36851	-43.0944
  33	1	3	-0.008032	-46.1987	7.10089	-42.5257
  34	1	3	-0.195997	-46.9457	6.41996	-43.5029
  35	1	3	-0.113065	-48.2701	6.0308	-43.2346
  36	1	3	0.271942	-46.8531	7.47323	-41.3281
  37	1	3	-0.220579	-48.1814	7.08956	-41.0688
  38	1	9	0.005883	-48.9095	6.29348	-41.9906
  39	1	6	0.164552	-41.828	10.3251	-42.5429
  40	1	6	0.136991	-39.5994	9.4866	-43.2951
  41	1	6	0.136379	-41.3015	5.52711	-43.9398
  42	1	5	-0.461381	-44.0922	5.22029	-43.4509
  43	1	5	-0.471091	-44.7251	9.68258	-42.4366
  44	1	6	0.134736	-48.6048	7.31263	-40.0978
  45	1	6	0.169495	-46.4767	6.1174	-44.4378
  46	1	10	-0.554106	-46.1897	8.12024	-40.3369
  47	1	9	-0.02772	-50.2256	5.62482	-41.6368
  48	1	6	0.133194	-48.7796	5.45754	-43.9996
  49	1	3	-0.144307	-50.6832	4.49809	-42.3811
  50	1	3	0.023803	-51.8894	3.84323	-42.0924
  51	1	3	0.335896	-52.6846	4.31198	-41.0313
  52	1	3	-0.53864	-52.2457	5.38112	-40.235
  53	1	3	-0.029171	-51.0286	6.02418	-40.5323
  54	1	6	0.130758	-50.7213	6.86157	-39.9138
  55	1	6	0.243773	-52.861	5.71502	-39.4041
  56	1	6	0.131936	-50.0787	4.07778	-43.1761
  57	1	10	-0.547641	-52.2497	2.73775	-42.8298
  58	1	11	0.436946	-46.8149	8.72788	-39.9162
  59	1	11	0.442856	-53.0571	2.33928	-42.4599
  60	1	3	-0.004194	-24.2111	13.5127	-45.8411
  61	1	3	-0.097141	-25.2817	14.0591	-46.6043
  62	1	3	-0.172015	-25.4088	13.641	-47.9629
  63	1	5	-0.377994	-21.6479	11.9859	-44.8694
  64	1	3	0.033493	-23.3903	12.5374	-46.4507
  65	1	3	-0.063739	-24.5998	12.6458	-48.5333
  66	1	5	-0.398381	-22.4596	10.5192	-49.1801
  67	1	3	0.032144	-23.5986	12.098	-47.7437
  68	1	2	0.032313	-22.1623	11.8556	-45.9632
  69	1	1	0.461698	-21.7676	10.9995	-46.986
  70	1	2	0.091945	-22.5604	11.1057	-48.1172
  71	1	3	-0.10563	-29.5204	15.671	-48.2276
  72	1	7	-0.099376	-26.252	15.182	-46.113
  73	1	3	-0.043296	-27.6302	14.9305	-46.8056
  74	1	3	-0.073043	-28.3662	15.9559	-47.4623
  75	1	3	-0.117827	-29.9348	14.3379	-48.3196
  76	1	3	-0.037562	-28.167	13.6156	-46.8124
  77	1	3	-0.083705	-29.3032	13.3533	-47.5848
  78	1	7	0.396	-25.5658	16.5341	-46.5156
  79	1	7	0.310495	-26.5534	15.2274	-44.5639
  80	1	8	-0.130298	-26.1532	17.5883	-45.9177
  81	1	8	-0.128745	-25.5464	16.7573	-47.8565
  82	1	8	-0.120019	-24.2788	16.5391	-46.1133
  83	1	8	-0.104287	-25.5857	15.8041	-43.8152
  84	1	8	-0.095507	-26.735	13.9963	-44.0685
  85	1	8	-0.104872	-27.6881	15.9247	-44.3013
  86	1	2	0.456145	-29.992	12.0711	-47.8432
  87	1	2	0.550902	-31.0296	13.7107	-49.1175
  88	1	1	0.015704	-31.0091	12.3728	-48.7494
  89	1	5	-0.456801	-29.7011	10.9967	-47.3392
  90	1	5	-0.487703	-31.8072	14.283	-49.8661
  91	1	3	-0.116566	-31.9535	11.4006	-49.1831
  92	1	3	-0.050109	-33.1877	11.2334	-48.5027
  93	1	3	0.154929	-34.0291	10.1349	-48.8149
  94	1	3	0.041555	-31.5884	10.5272	-50.2217
  95	1	3	-0.223109	-32.4386	9.4587	-50.5356
  96	1	3	-0.080449	-33.6468	9.24871	-49.8469
  97	1	7	-0.108008	-30.3111	10.7367	-51.0292
  98	1	7	-0.182228	-34.5495	8.11364	-50.3231
  99	1	7	-0.345523	-33.5777	12.2334	-47.4103
 100	1	6	0.155183	-24.0027	13.8393	-44.8244
 101	1	6	0.172904	-26.1386	14.114	-48.616
 102	1	6	0.158028	-24.7104	12.3426	-49.5743
 103	1	6	0.153129	-30.0472	16.4554	-48.769
 104	1	6	0.142914	-28.0276	16.9858	-47.4349
 105	1	6	0.135531	-27.6622	12.793	-46.3093
 106	1	6	0.17765	-32.1622	8.79098	-51.3475
 107	1	12	0.046541	-30.2538	10.0456	-51.8838
 108	1	12	0.045238	-29.4126	10.5785	-50.412
 109	1	12	0.051941	-30.2697	11.7574	-51.4384
 110	1	12	0.087961	-35.5463	8.48126	-50.6063
 111	1	12	0.066782	-34.6722	7.34029	-49.5541
 112	1	12	0.075908	-34.1394	7.62641	-51.2179
 113	1	12	0.105172	-34.6312	12.183	-47.1145
 114	1	12	0.115625	-33.4189	13.2648	-47.7509
 115	1	12	0.140296	-32.9827	12.0748	-46.501
 116	1	3	-0.004194	-9.54203	6.86703	-48.5437
 117	1	3	-0.097141	-10.581	7.37752	-47.7097
 118	1	3	-0.172015	-11.2013	6.48409	-46.8098
 119	1	5	-0.377994	-7.04978	5.35168	-49.594
 120	1	3	0.033493	-9.13886	5.52731	-48.4068
 121	1	3	-0.063739	-10.8096	5.13494	-46.6969
 122	1	5	-0.398381	-9.01829	2.68224	-46.4221
 123	1	3	0.032144	-9.74974	4.69305	-47.4967
 124	1	2	0.032313	-7.88586	4.85031	-48.8627
 125	1	1	0.461698	-7.82782	3.62681	-48.182
 126	1	2	0.091945	-8.89862	3.49277	-47.3158
 127	1	3	-0.10563	-13.6955	10.4062	-45.227
 128	1	7	-0.099376	-10.8802	8.8981	-47.5823
 129	1	3	-0.043296	-12.2837	9.2192	-46.9155
 130	1	3	-0.073043	-12.4414	9.93961	-45.6853
 131	1	3	-0.117827	-14.8112	10.1754	-46.028
 132	1	3	-0.037562	-13.4823	8.89823	-47.6098
 133	1	3	-0.083705	-14.7026	9.42948	-47.1746
 134	1	7	0.396	-9.68707	9.49991	-46.7311
 135	1	7	0.310495	-10.9104	9.58909	-49.0025
 136	1	8	-0.130298	-8.46584	9.25605	-47.2454
 137	1	8	-0.128745	-9.6171	8.97559	-45.4838
 138	1	8	-0.120019	-9.77229	10.8462	-46.637
 139	1	8	-0.104287	-11.6577	8.92213	-49.91
 140	1	8	-0.095507	-9.71128	9.7262	-49.5878
 141	1	8	-0.104872	-11.4107	10.8311	-48.9121
 142	1	2	0.456145	-16.0569	9.30284	-47.7677
 143	1	2	0.550902	-16.2414	10.5601	-45.85
 144	1	1	0.015704	-16.9297	9.9362	-46.8827
 145	1	5	-0.456801	-16.3249	8.67575	-48.7778
 146	1	5	-0.487703	-16.7239	11.1794	-44.9176
 147	1	3	-0.116566	-18.3184	9.58156	-46.7812
 148	1	3	-0.050109	-19.3819	10.4705	-47.0564
 149	1	3	0.154929	-20.7132	10.0659	-46.828
 150	1	3	0.041555	-18.6183	8.29835	-46.2804
 151	1	3	-0.223109	-19.9417	7.90408	-46.0524
 152	1	3	-0.080449	-20.9956	8.7801	-46.3172
 153	1	7	-0.108008	-17.5138	7.30832	-45.9502
 154	1	7	-0.182228	-22.4175	8.32819	-46.0297
 155	1	7	-0.345523	-19.1012	11.8673	-47.5792
 156	1	6	0.155183	-8.9481	7.51507	-49.1789
 157	1	6	0.172904	-11.9519	6.85002	-46.1197
 158	1	6	0.158028	-11.2283	4.4944	-45.9245
 159	1	6	0.153129	-13.7893	10.9773	-44.3041
 160	1	6	0.142914	-11.5877	10.2144	-45.0784
 161	1	6	0.135531	-13.4712	8.31247	-48.5224
 162	1	6	0.17765	-20.1512	6.91713	-45.6503
 163	1	12	0.046541	-17.888	6.50563	-45.3102
 164	1	12	0.045238	-16.6879	7.77265	-45.3983
 165	1	12	0.051941	-17.1185	6.84399	-46.8569
 166	1	12	0.087961	-22.9385	9.01967	-45.3567
 167	1	12	0.066782	-22.4427	7.33561	-45.5593
 168	1	12	0.075908	-23.0006	8.25389	-46.9613
 169	1	12	0.105172	-19.8833	12.234	-48.2564
 170	1	12	0.115625	-18.1774	11.8854	-48.1717
 171	1	12	0.140296	-18.991	12.5848	-46.7521
 172	1	1	0.463107	11.4297	-3.87286	-47.7855
 173	1	2	0.061808	10.6326	-5.0156	-47.7229
 174	1	3	0.001427	9.37872	-4.5487	-47.083
 175	1	2	0.068581	10.8351	-2.72058	-47.2718
 176	1	3	0.040836	9.47983	-3.18866	-46.8383
 177	1	5	-0.386232	10.8169	-6.10555	-48.2448
 178	1	5	-0.391601	11.2195	-1.56759	-47.3759
 179	1	3	-0.001718	8.18851	-5.26761	-46.82
 180	1	3	-0.033153	8.37531	-2.49897	-46.3028
 181	1	3	-0.217995	7.17523	-3.2063	-46.051
 182	1	3	-0.067978	7.03998	-4.58735	-46.3115
 183	1	6	0.155939	8.19354	-6.33467	-47.0449
 184	1	6	0.152973	8.44914	-1.43075	-46.0836
 185	1	6	0.17647	6.3283	-2.65036	-45.6516
 186	1	7	-0.111335	5.66523	-5.28316	-46.0208
 187	1	7	0.291988	5.61767	-6.72717	-46.659
 188	1	8	-0.108289	5.88709	-6.72482	-47.9912
 189	1	8	-0.102972	4.38874	-7.26319	-46.5119
 190	1	8	-0.103001	6.47607	-7.60999	-46.0864
 191	1	7	0.43552	5.4937	-5.46132	-44.4696
 192	1	8	-0.137748	6.55447	-6.08241	-43.9228
 193	1	8	-0.132227	4.38208	-6.14883	-44.1176
 194	1	8	-0.124157	5.41852	-4.29388	-43.8185
 195	1	3	-0.009135	4.49777	-4.43721	-46.6478
 196	1	3	-0.073591	3.30305	-4.01268	-45.9799
 197	1	3	-0.051923	2.36476	-3.21592	-46.6855
 198	1	3	-0.057717	4.64462	-4.05949	-48.013
 199	1	3	-0.156758	3.65353	-3.34976	-48.7147
 200	1	3	-0.020332	2.52831	-2.92916	-48.0238
 201	1	2	0.469602	1.35047	-2.19418	-48.5515
 202	1	1	-0.076132	0.489648	-2.08336	-47.4763
 203	1	2	0.458333	1.01799	-2.65843	-46.3115
 204	1	3	-0.008032	-0.753715	-1.38843	-47.5947
 205	1	3	-0.195997	-0.933997	-0.22896	-46.8439
 206	1	3	-0.113065	-2.11437	0.510352	-46.9471
 207	1	3	0.271942	-1.79592	-1.8063	-48.4453
 208	1	3	-0.220579	-2.98485	-1.05565	-48.5489
 209	1	9	0.005883	-3.17783	0.142356	-47.8108
 210	1	6	0.164552	3.77794	-3.1108	-49.77
 211	1	6	0.136991	5.55229	-4.32609	-48.5528
 212	1	6	0.136379	3.07576	-4.26446	-44.9506
 213	1	5	-0.461381	0.528669	-2.63016	-45.2024
 214	1	5	-0.471091	1.14517	-1.90487	-49.7201
 215	1	6	0.134736	-3.77827	-1.42103	-49.1868
 216	1	6	0.169495	-0.151922	0.111144	-46.1709
 217	1	10	-0.554106	-1.68324	-2.99059	-49.0983
 218	1	9	-0.02772	-4.42295	0.998448	-47.9114
 219	1	6	0.133194	-2.16662	1.41168	-46.3537
 220	1	3	-0.144307	-5.36406	0.862011	-48.9768
 221	1	3	0.023803	-6.49394	1.70102	-49.0689
 222	1	3	0.335896	-6.69793	2.74325	-48.117
 223	1	3	-0.53864	-5.77373	2.87484	-47.0555
 224	1	3	-0.029171	-4.67403	2.01157	-46.944
 225	1	6	0.130758	-4.04421	2.12781	-46.0709
 226	1	6	0.243773	-5.95467	3.60974	-46.2765
 227	1	6	0.131936	-5.22208	0.0907537	-49.7266
 228	1	10	-0.547641	-7.379	1.46384	-50.0898
 229	1	11	0.436946	-2.5565	-3.21338	-49.4561
 230	1	11	0.442856	-6.95023	0.881818	-50.7479
 231	1	3	-0.004194	21.2046	-7.71692	-46.1174
 232	1	3	-0.097141	21.7293	-8.36476	-47.2787
 233	1	3	-0.172015	23.139	-8.40542	-47.4201
 234	1	5	-0.377994	20.6226	-7.0068	-43.2668
 235	1	3	0.033493	22.0808	-7.24324	-45.1307
 236	1	3	-0.063739	24.0173	-7.88856	-46.4387
 237	1	5	-0.398381	25.2435	-6.88051	-43.7248
 238	1	3	0.032144	23.4504	-7.32015	-45.273
 239	1	2	0.032313	21.74	-6.88567	-43.7307
 240	1	1	0.461698	22.9621	-6.73033	-43.0849
 241	1	2	0.091945	24.0471	-6.89709	-43.9719
 242	1	3	-0.10563	16.9177	-9.36584	-47.8936
 243	1	7	-0.099376	20.8521	-9.3361	-48.1663
 244	1	3	-0.043296	19.3635	-8.89843	-48.1021
 245	1	3	-0.073043	18.2616	-9.79507	-47.8727
 246	1	3	-0.117827	16.6881	-8.02469	-48.1813
 247	1	3	-0.037562	19.0672	-7.53759	-48.2939
 248	1	3	-0.083705	17.7284	-7.13966	-48.3599
 249	1	7	0.396	21.0184	-10.764	-47.5548
 250	1	7	0.310495	21.3156	-9.35995	-49.6732
 251	1	8	-0.130298	20.5045	-10.7148	-46.3166
 252	1	8	-0.128745	22.2833	-11.1993	-47.439
 253	1	8	-0.120019	20.3894	-11.7716	-48.1998
 254	1	8	-0.104287	22.4773	-10.0242	-49.8966
 255	1	8	-0.095507	21.5029	-8.09149	-50.0781
 256	1	8	-0.104872	20.3998	-9.92322	-50.4893
 257	1	2	0.456145	17.1393	-5.76914	-48.4887
 258	1	2	0.550902	15.406	-7.287	-48.2899
 259	1	1	0.015704	15.7505	-5.97031	-48.5783
 260	1	5	-0.456801	17.7675	-4.73562	-48.6334
 261	1	5	-0.487703	14.2893	-7.74162	-48.1274
 262	1	3	-0.116566	14.7454	-5.02087	-48.9958
 263	1	3	-0.050109	13.77	-4.5303	-48.0838
 264	1	3	0.154929	12.6016	-3.89098	-48.5881
 265	1	3	0.041555	14.5378	-4.82555	-50.3838
 266	1	3	-0.223109	13.4249	-4.10857	-50.8409
 267	1	3	-0.080449	12.4336	-3.64495	-49.9688
 268	1	7	-0.108008	15.522	-5.34603	-51.4254
 269	1	7	-0.182228	11.1874	-2.94491	-50.5484
 270	1	7	-0.345523	13.9197	-4.81842	-46.5848
 271	1	6	0.155183	20.1493	-7.7436	-45.8755
 272	1	6	0.172904	23.6057	-8.88717	-48.266
 273	1	6	0.158028	25.1013	-7.9822	-46.5255
 274	1	6	0.153129	16.0956	-10.0655	-47.7421
 275	1	6	0.142914	18.403	-10.8558	-47.7051
 276	1	6	0.135531	19.8515	-6.79342	-48.3984
 277	1	6	0.17765	13.289	-3.95458	-51.9086
 278	1	12	0.046541	15.4127	-4.79403	-52.371
 279	1	12	0.045238	15.3463	-6.40033	-51.6282
 280	1	12	0.051941	16.5585	-5.20957	-51.1001
 281	1	12	0.087961	10.8644	-2.0909	-49.9261
 282	1	12	0.066782	10.3316	-3.62727	-50.6296
 283	1	12	0.075908	11.3695	-2.51747	-51.5427
 284	1	12	0.105172	13.5552	-3.98054	-45.9762
 285	1	12	0.115625	14.9676	-4.9556	-46.2923
 286	1	12	0.140296	13.394	-5.73297	-46.297
 287	1	3	-0.004194	22.6151	2.48149	-33.7403
 288	1	3	-0.097141	22.4187	1.17454	-34.2499
 289	1	3	-0.172015	23.1287	0.0993326	-33.6016
 290	1	5	-0.377994	22.926	4.91369	-31.9879
 291	1	3	0.033493	23.4856	2.6637	-32.6683
 292	1	3	-0.063739	23.9539	0.306573	-32.4676
 293	1	5	-0.398381	25.2973	1.61494	-29.8658
 294	1	3	0.032144	24.0918	1.61935	-31.9969
 295	1	2	0.032313	23.5471	3.87798	-31.8172
 296	1	1	0.461698	24.2349	3.50835	-30.6894
 297	1	2	0.091945	24.6563	2.18349	-30.7283
 298	1	3	-0.10563	24.4901	-0.788887	-37.3176
 299	1	7	-0.099376	21.5145	0.940343	-35.5083
 300	1	3	-0.043296	22.2749	-0.0426407	-36.4484
 301	1	3	-0.073043	23.6795	0.149831	-36.6425
 302	1	3	-0.117827	23.8487	-1.89746	-37.9243
 303	1	3	-0.037562	21.6586	-1.1324	-37.1191
 304	1	3	-0.083705	22.4675	-2.02202	-37.8394
 305	1	7	0.396	20.1246	0.417929	-35.0148
 306	1	7	0.310495	21.2503	2.2379	-36.3566
 307	1	8	-0.130298	19.6997	1.01517	-33.8852
 308	1	8	-0.128745	20.1955	-0.928342	-34.8037
 309	1	8	-0.120019	19.1463	0.617462	-35.8991
 310	1	8	-0.104287	20.4407	3.13185	-35.7521
 311	1	8	-0.095507	20.6246	1.92629	-37.5112
 312	1	8	-0.104872	22.3533	2.90411	-36.7399
 313	1	2	0.456145	22.0505	-3.2562	-38.5628
 314	1	2	0.550902	24.3498	-3.08054	-38.7021
 315	1	1	0.015704	23.2135	-3.8131	-39.0827
 316	1	5	-0.456801	20.9062	-3.69992	-38.6166
 317	1	5	-0.487703	25.5192	-3.42018	-38.7338
 318	1	3	-0.116566	23.1949	-5.08049	-39.7284
 319	1	3	-0.050109	23.1433	-5.23514	-41.1512
 320	1	3	0.154929	23.0591	-6.55654	-41.6843
 321	1	3	0.041555	23.1579	-6.19789	-38.8849
 322	1	3	-0.223109	23.0005	-7.46804	-39.418
 323	1	3	-0.080449	22.9441	-7.68748	-40.803
 324	1	7	-0.108008	23.2102	-6.0801	-37.3727
 325	1	7	-0.182228	22.68	-9.11036	-41.3158
 326	1	7	-0.345523	23.2097	-4.00892	-42.0682
 327	1	6	0.155183	22.1196	3.36167	-34.1423
 328	1	6	0.172904	23.0073	-0.918434	-33.9491
 329	1	6	0.158028	24.4945	-0.525252	-31.9979
 330	1	6	0.153129	25.5707	-0.656953	-37.3565
 331	1	6	0.142914	24.1656	1.02673	-36.2036
 332	1	6	0.135531	20.5796	-1.2871	-37.1095
 333	1	6	0.17765	22.9246	-8.33404	-38.7481
 334	1	12	0.046541	24.0318	-5.44601	-37.0182
 335	1	12	0.045238	23.3584	-7.07031	-36.9098
 336	1	12	0.051941	22.2602	-5.686	-36.9747
 337	1	12	0.087961	22.6527	-9.84213	-40.4991
 338	1	12	0.066782	23.4502	-9.44279	-42.0176
 339	1	12	0.075908	21.7148	-9.19061	-41.8395
 340	1	12	0.105172	22.543	-4.06328	-42.9401
 341	1	12	0.115625	24.2406	-3.85048	-42.4303
 342	1	12	0.140296	22.8982	-3.08502	-41.5519
 343	1	1	0.463107	12.4725	11.9683	-17.4427
 344	1	2	0.061808	12.3867	12.882	-18.4635
 345	1	3	0.001427	13.5863	12.6644	-19.3244
 346	1	2	0.068581	13.6077	11.2002	-17.5578
 347	1	3	0.040836	14.3032	11.6308	-18.7856
 348	1	5	-0.386232	11.5296	13.7308	-18.5445
 349	1	5	-0.391601	14.0548	10.4486	-16.7195
 350	1	3	-0.001718	14.0296	13.3152	-20.4774
 351	1	3	-0.033153	15.4764	11.1559	-19.4003
 352	1	3	-0.217995	15.9888	11.876	-20.5034
 353	1	3	-0.067978	15.2582	12.9355	-21.0835
 354	1	6	0.155939	13.4249	14.1295	-20.8496
 355	1	6	0.152973	16.0128	10.3108	-18.979
 356	1	6	0.17647	16.9609	11.601	-20.9088
 357	1	7	-0.111335	15.8515	13.6709	-22.3139
 358	1	7	0.291988	16.946	14.6466	-21.7425
 359	1	8	-0.108289	16.4826	15.3126	-20.6668
 360	1	8	-0.102972	17.3017	15.5663	-22.6796
 361	1	8	-0.103001	18.0389	13.9631	-21.296
 362	1	7	0.43552	14.7345	14.4411	-23.1487
 363	1	8	-0.137748	15.2737	14.8589	-24.319
 364	1	8	-0.132227	14.2899	15.5755	-22.5531
 365	1	8	-0.124157	13.6608	13.6398	-23.4394
 366	1	3	-0.009135	16.502	12.6294	-23.2692
 367	1	3	-0.073591	17.8199	12.7731	-23.7907
 368	1	3	-0.051923	18.3538	11.7152	-24.5236
 369	1	3	-0.057717	15.7663	11.4617	-23.6326
 370	1	3	-0.156758	16.3234	10.4255	-24.4175
 371	1	3	-0.020332	17.6532	10.5769	-24.7973
 372	1	2	0.469602	18.5929	9.61667	-25.4318
 373	1	1	-0.076132	19.8493	10.2158	-25.4284
 374	1	2	0.458333	19.7371	11.5434	-25.0375
 375	1	3	-0.008032	21.0215	9.50031	-25.7744
 376	1	3	-0.195997	21.8088	9.81829	-26.907
 377	1	3	-0.113065	22.6813	8.85788	-27.4734
 378	1	3	0.271942	21.2244	8.26024	-25.1282
 379	1	3	-0.220579	22.0985	7.33138	-25.6969
 380	1	9	0.005883	22.8479	7.5671	-26.8743
 381	1	6	0.164552	15.7674	9.52333	-24.6637
 382	1	6	0.136991	14.7437	11.3569	-23.2722
 383	1	6	0.136379	18.4575	13.6385	-23.6188
 384	1	5	-0.461381	20.5878	12.4089	-24.9828
 385	1	5	-0.471091	18.2806	8.45791	-25.6708
 386	1	6	0.134736	22.1345	6.35271	-25.2363
 387	1	6	0.169495	21.5963	10.7312	-27.4585
 388	1	10	-0.554106	20.4577	7.81412	-24.0828
 389	1	9	-0.02772	23.4576	6.38386	-27.6314
 390	1	6	0.133194	23.1369	9.06664	-28.4393
 391	1	3	-0.144307	24.5523	6.55975	-28.5051
 392	1	3	0.023803	24.849	5.57882	-29.477
 393	1	3	0.335896	24.1779	4.33454	-29.5339
 394	1	3	-0.53864	23.1831	4.08639	-28.5715
 395	1	3	-0.029171	22.8268	5.09879	-27.6555
 396	1	6	0.130758	21.9774	4.92004	-26.9925
 397	1	6	0.243773	22.6137	3.16169	-28.6158
 398	1	6	0.131936	25.0678	7.51562	-28.5073
 399	1	10	-0.547641	25.841	5.84378	-30.3637
 400	1	11	0.436946	19.5354	7.68102	-24.4236
 401	1	11	0.442856	26.1957	6.73588	-30.2252
 402	1	1	0.463107	-0.686261	8.0043	-6.16356
 403	1	2	0.061808	0.560775	7.93952	-6.80364
 404	1	3	0.001427	1.44621	7.32336	-5.78498
 405	1	2	0.068581	-0.675892	7.47439	-4.86622
 406	1	3	0.040836	0.721815	7.07113	-4.64793
 407	1	5	-0.386232	0.846131	8.20809	-7.96586
 408	1	5	-0.391601	-1.56882	7.36454	-4.04781
 409	1	3	-0.001718	2.75731	6.89854	-5.89142
 410	1	3	-0.033153	1.27494	6.37884	-3.57111
 411	1	3	-0.217995	2.60836	5.92472	-3.66453
 412	1	3	-0.067978	3.38103	6.20046	-4.82061
 413	1	6	0.155939	3.27136	7.06958	-6.83223
 414	1	6	0.152973	0.648269	6.12918	-2.71962
 415	1	6	0.17647	3.00609	5.33391	-2.86242
 416	1	7	-0.111335	4.78214	5.57879	-5.09325
 417	1	7	0.291988	5.55626	5.08482	-3.81132
 418	1	8	-0.108289	6.75364	4.53851	-4.10526
 419	1	8	-0.102972	4.91815	4.10456	-3.13132
 420	1	8	-0.103001	5.83677	6.07615	-2.92165
 421	1	7	0.43552	4.46678	4.34067	-6.02787
 422	1	8	-0.137748	5.50442	3.53649	-6.21421
 423	1	8	-0.132227	4.02879	4.66952	-7.26841
 424	1	8	-0.124157	3.51384	3.54895	-5.48928
 425	1	3	-0.009135	5.67811	6.70088	-5.70584
 426	1	3	-0.073591	6.32742	6.60158	-6.96622
 427	1	3	-0.051923	7.01581	7.72188	-7.45334
 428	1	3	-0.057717	5.81746	7.91632	-4.97352
 429	1	3	-0.156758	6.51641	9.02565	-5.47588
 430	1	3	-0.020332	7.04984	8.91652	-6.76158
 431	1	2	0.469602	7.62479	9.96286	-7.64376
 432	1	1	-0.076132	7.85398	9.3226	-8.86807
 433	1	2	0.458333	7.61375	7.94492	-8.79107
 434	1	3	-0.008032	8.30641	9.95636	-10.0736
 435	1	3	-0.195997	7.7032	9.58966	-11.2897
 436	1	3	-0.113065	8.15359	10.1254	-12.5217
 437	1	3	0.271942	9.31377	10.9515	-10.1265
 438	1	3	-0.220579	9.79211	11.4605	-11.3465
 439	1	9	0.005883	9.26451	11.0287	-12.6016
 440	1	6	0.164552	6.55167	9.96861	-4.93307
 441	1	6	0.136991	5.30966	8.05044	-4.02208
 442	1	6	0.136379	6.27614	5.70399	-7.57849
 443	1	5	-0.461381	7.82654	7.06802	-9.62108
 444	1	5	-0.471091	7.81049	11.1339	-7.3296
 445	1	6	0.134736	10.6222	12.1578	-11.2921
 446	1	6	0.169495	6.91949	8.83738	-11.2994
 447	1	10	-0.554106	9.925	11.4253	-9.01996
 448	1	9	-0.02772	9.96892	11.3535	-13.9215
 449	1	6	0.133194	7.69765	9.74672	-13.4306
 450	1	3	-0.144307	9.86229	10.5402	-15.0853
 451	1	3	0.023803	10.6215	10.7865	-16.2689
 452	1	3	0.335896	11.5657	11.8434	-16.3299
 453	1	3	-0.53864	11.6539	12.6885	-15.1935
 454	1	3	-0.029171	10.8914	12.4281	-14.0237
 455	1	6	0.130758	11.006	13.0937	-13.1731
 456	1	6	0.243773	12.3516	13.52	-15.2019
 457	1	6	0.131936	9.22142	9.66516	-15.0493
 458	1	10	-0.547641	10.579	9.88574	-17.3069
 459	1	11	0.436946	9.28642	11.3512	-8.27272
 460	1	11	0.442856	9.93761	9.17716	-17.1067
 461	1	1	0.463107	-11.1618	19.4311	-16.4214
 462	1	2	0.061808	-10.5983	18.4059	-15.6985
 463	1	3	0.001427	-11.5944	17.332	-15.7103
 464	1	2	0.068581	-12.4052	19.1273	-16.9497
 465	1	3	0.040836	-12.6743	17.7358	-16.471
 466	1	5	-0.386232	-9.49639	18.3765	-15.1803
 467	1	5	-0.391601	-12.9311	19.7323	-17.8699
 468	1	3	-0.001718	-11.4075	16.0197	-15.2989
 469	1	3	-0.033153	-13.6511	16.8068	-16.8386
 470	1	3	-0.217995	-13.4828	15.4603	-16.433
 471	1	3	-0.067978	-12.3438	15.0369	-15.697
 472	1	6	0.155939	-10.4918	15.7666	-14.7721
 473	1	6	0.152973	-14.485	17.1053	-17.4736
 474	1	6	0.17647	-14.2171	14.7404	-16.7767
 475	1	7	-0.111335	-12.0396	13.5333	-15.421
 476	1	7	0.291988	-11.1229	12.9797	-16.5895
 477	1	8	-0.108289	-11.5596	13.2888	-17.837
 478	1	8	-0.102972	-11.0633	11.6387	-16.5616
 479	1	8	-0.103001	-9.84413	13.4169	-16.5592
 480	1	7	0.43552	-13.3519	12.6424	-15.3871
 481	1	8	-0.137748	-13.113	11.4889	-14.7131
 482	1	8	-0.132227	-13.912	12.4223	-16.6071
 483	1	8	-0.124157	-14.3227	13.2047	-14.6526
 484	1	3	-0.009135	-11.4092	13.4344	-13.9825
 485	1	3	-0.073591	-10.2414	12.6903	-13.7251
 486	1	3	-0.051923	-9.65404	12.7377	-12.4677
 487	1	3	-0.057717	-11.9852	14.1675	-12.8985
 488	1	3	-0.156758	-11.3714	14.2054	-11.623
 489	1	3	-0.020332	-10.1841	13.4861	-11.434
 490	1	2	0.469602	-9.25587	13.3413	-10.2591
 491	1	1	-0.076132	-8.27638	12.4307	-10.7288
 492	1	2	0.458333	-8.4014	12.0716	-12.0608
 493	1	3	-0.008032	-7.23653	11.8395	-9.96725
 494	1	3	-0.195997	-7.13944	10.417	-9.99372
 495	1	3	-0.113065	-6.16	9.72985	-9.26323
 496	1	3	0.271942	-6.32065	12.5921	-9.19324
 497	1	3	-0.220579	-5.36752	11.8838	-8.427
 498	1	9	0.005883	-5.2465	10.4563	-8.4802
 499	1	6	0.164552	-11.7947	14.7771	-10.7982
 500	1	6	0.136991	-12.8958	14.7419	-13.0671
 501	1	6	0.136379	-9.76695	12.0725	-14.4767
 502	1	5	-0.461381	-7.7417	11.2681	-12.7326
 503	1	5	-0.471091	-9.26341	13.9606	-9.18881
 504	1	6	0.134736	-4.70702	12.466	-7.79117
 505	1	6	0.169495	-7.82503	9.83219	-10.6083
 506	1	10	-0.554106	-6.41807	13.9624	-9.03832
 507	1	9	-0.02772	-4.05778	9.76766	-7.95462
 508	1	6	0.133194	-6.04635	8.65139	-9.39681
 509	1	3	-0.144307	-2.84551	10.4739	-7.89508
 510	1	3	0.023803	-1.73734	9.91156	-7.29743
 511	1	3	0.335896	-1.80932	8.59315	-6.78735
 512	1	3	-0.53864	-2.99608	7.84548	-6.91043
 513	1	3	-0.029171	-4.12087	8.43991	-7.46102
 514	1	6	0.130758	-5.05353	7.89056	-7.47453
 515	1	6	0.243773	-3.0628	6.83782	-6.50875
 516	1	6	0.131936	-2.78791	11.4864	-8.30062
 517	1	10	-0.547641	-0.618054	10.6979	-7.15591
 518	1	11	0.436946	-7.36547	14.2065	-9.02315
 519	1	11	0.442856	-0.663683	11.4554	-7.77173
 520	1	3	-0.004194	-1.03043	22.4184	-23.7643
 521	1	3	-0.097141	-2.13678	23.1504	-23.207
 522	1	3	-0.172015	-1.83956	24.3468	-22.4996
 523	1	5	-0.377994	1.73753	21.1598	-24.359
 524	1	3	0.033493	0.288968	22.8588	-23.528
 525	1	3	-0.063739	-0.517559	24.7599	-22.2588
 526	1	5	-0.398381	2.46102	24.9365	-21.7602
 527	1	3	0.032144	0.52565	23.9984	-22.7926
 528	1	2	0.032313	1.60743	22.2256	-23.7966
 529	1	1	0.461698	2.57726	23.0332	-23.154
 530	1	2	0.091945	1.97218	24.124	-22.5255
 531	1	3	-0.10563	-4.06768	22.0124	-19.4307
 532	1	7	-0.099376	-3.67681	22.7281	-23.274
 533	1	3	-0.043296	-4.31421	22.6004	-21.8423
 534	1	3	-0.073043	-3.51311	22.2689	-20.7068
 535	1	3	-0.117827	-5.46436	22.0387	-19.3246
 536	1	3	-0.037562	-5.72429	22.6987	-21.6647
 537	1	3	-0.083705	-6.2516	22.4111	-20.4038
 538	1	7	0.396	-3.94645	21.346	-23.9794
 539	1	7	0.310495	-4.43579	23.8394	-24.1053
 540	1	8	-0.130298	-3.26281	20.3863	-23.3037
 541	1	8	-0.128745	-3.57762	21.3828	-25.2904
 542	1	8	-0.120019	-5.24654	20.9359	-23.9256
 543	1	8	-0.104287	-3.66563	24.3069	-25.1168
 544	1	8	-0.095507	-5.60104	23.4594	-24.6815
 545	1	8	-0.104872	-4.75087	24.8921	-23.3163
 546	1	2	0.456145	-7.67198	22.381	-19.9901
 547	1	2	0.550902	-6.3656	21.761	-18.1634
 548	1	1	0.015704	-7.64123	22.0589	-18.6311
 549	1	5	-0.456801	-8.63605	22.4722	-20.7426
 550	1	5	-0.487703	-6.06118	21.3337	-17.0585
 551	1	3	-0.116566	-8.78527	21.9888	-17.8018
 552	1	3	-0.050109	-9.3332	20.7244	-17.4806
 553	1	3	0.154929	-10.4855	20.6556	-16.6466
 554	1	3	0.041555	-9.31047	23.1623	-17.2444
 555	1	3	-0.223109	-10.3556	23.0752	-16.3224
 556	1	3	-0.080449	-10.9534	21.8405	-16.0204
 557	1	7	-0.108008	-8.80283	24.5242	-17.664
 558	1	7	-0.182228	-12.14	21.8735	-15.0512
 559	1	7	-0.345523	-8.67531	19.4739	-18.0923
 560	1	6	0.155183	-1.17675	21.4864	-24.2953
 561	1	6	0.172904	-2.65033	24.9211	-22.0598
 562	1	6	0.158028	-0.299935	25.6184	-21.6253
 563	1	6	0.153129	-3.43949	21.7674	-18.5728
 564	1	6	0.142914	-2.43857	22.1656	-20.8191
 565	1	6	0.135531	-6.41044	22.9334	-22.4756
 566	1	6	0.17765	-10.7404	23.9858	-15.8748
 567	1	12	0.046541	-9.4566	25.3287	-17.2954
 568	1	12	0.045238	-8.75966	24.6253	-18.7576
 569	1	12	0.051941	-7.79207	24.7089	-17.2758
 570	1	12	0.087961	-11.9244	21.2881	-14.1589
 571	1	12	0.066782	-13.0726	21.4995	-15.4908
 572	1	12	0.075908	-12.3371	22.8923	-14.711
 573	1	12	0.105172	-8.92938	18.5464	-17.5876
 574	1	12	0.115625	-7.58936	19.4986	-18.0628
 575	1	12	0.140296	-8.97533	19.3531	-19.1424
 576	1	1	0.463107	17.6837	18.1189	-15.0205
 577	1	2	0.061808	16.8991	18.7885	-15.9837
 578	1	3	0.001427	17.7709	18.8926	-17.1706
 579	1	2	0.068581	18.9795	17.808	-15.4741
 580	1	3	0.040836	18.9893	18.3262	-16.873
 581	1	5	-0.386232	15.7654	19.2545	-15.9343
 582	1	5	-0.391601	19.9302	17.2714	-14.9113
 583	1	3	-0.001718	17.5259	19.5278	-18.3908
 584	1	3	-0.033153	20.0362	18.3924	-17.7939
 585	1	3	-0.217995	19.791	18.9427	-19.0823
 586	1	3	-0.067978	18.5283	19.5187	-19.4034
 587	1	6	0.155939	16.565	20.0137	-18.5407
 588	1	6	0.152973	21.0029	17.9712	-17.5284
 589	1	6	0.17647	20.5983	18.9461	-19.8089
 590	1	7	-0.111335	18.21	20.2507	-20.7473
 591	1	7	0.291988	19.1671	19.9481	-21.9703
 592	1	8	-0.108289	20.3619	20.5582	-21.8436
 593	1	8	-0.102972	18.6309	20.3921	-23.1387
 594	1	8	-0.103001	19.4003	18.6254	-22.1149
 595	1	7	0.43552	18.3041	21.8021	-20.3935
 596	1	8	-0.137748	17.3048	22.2441	-19.5777
 597	1	8	-0.132227	18.2433	22.5919	-21.4817
 598	1	8	-0.124157	19.4749	22.1369	-19.7831
 599	1	3	-0.009135	16.7811	19.7854	-21.1616
 600	1	3	-0.073591	15.8406	20.6665	-21.7412
 601	1	3	-0.051923	14.5059	20.25	-21.8507
 602	1	3	-0.057717	16.3484	18.4714	-20.8438
 603	1	3	-0.156758	15.0116	18.0652	-20.9766
 604	1	3	-0.020332	14.0912	18.9882	-21.474
 605	1	2	0.469602	12.616	18.9115	-21.614
 606	1	1	-0.076132	12.2201	20.1799	-22.0188
 607	1	2	0.458333	13.3041	21.0372	-22.2237
 608	1	3	-0.008032	10.8517	20.5605	-22.1431
 609	1	3	-0.195997	10.4603	21.8402	-21.7088
 610	1	3	-0.113065	9.13176	22.2575	-21.872
 611	1	3	0.271942	9.88802	19.7209	-22.7672
 612	1	3	-0.220579	8.5491	20.1375	-22.914
 613	1	9	0.005883	8.15163	21.4267	-22.4718
 614	1	6	0.164552	14.7019	17.0806	-20.6565
 615	1	6	0.136991	17.0517	17.7556	-20.4298
 616	1	6	0.136379	16.0906	21.6908	-22.0106
 617	1	5	-0.461381	13.3134	22.2213	-22.5186
 618	1	5	-0.471091	11.8993	17.9617	-21.3151
 619	1	6	0.134736	7.83518	19.4904	-23.4066
 620	1	6	0.169495	11.1694	22.504	-21.2138
 621	1	10	-0.554106	10.2183	18.4899	-23.2402
 622	1	9	-0.02772	6.72898	21.8848	-22.6319
 623	1	6	0.133194	8.84132	23.244	-21.5246
 624	1	3	-0.144307	6.38582	23.2264	-22.9527
 625	1	3	0.023803	5.03404	23.6453	-23.0176
 626	1	3	0.335896	3.97518	22.6891	-22.9589