pySIMM System Object

1141 atoms
1247 bonds
2170 angles
3286 dihedrals
334 impropers

12 atom types
15 bond types
24 angle types
10 dihedral types
4 improper types

-132.364107 132.364107 xlo xhi
-132.364107 132.364107 ylo yhi
-132.364107 132.364107 zlo zhi

Masses

   1	12.01	# ca
   2	16.0	# o
   3	12.01	# c
   4	14.01	# n
   5	12.01	# c3
   6	19.0	# f
   7	1.008	# ha
   8	1.008	# hn
   9	1.008	# hc
  10	12.01	# cp
  11	16.0	# oh
  12	1.008	# ho

Pair Coeffs

   1	0.086	3.3996695084235347	# ca
   2	0.21	2.959921901149463	# o
   3	0.086	3.3996695084235347	# c
   4	0.17	3.249998523775958	# n
   5	0.1094	3.3996695084235347	# c3
   6	0.061	3.1181455134911875	# f
   7	0.015	2.59964245953351	# ha
   8	0.0157	1.069078461768407	# hn
   9	0.0157	2.649532787749369	# hc
  10	0.086	3.3996695084235347	# cp
  11	0.2104	3.0664733878390478	# oh
  12	0.0047	0.5379246460131368	# ho

Bond Coeffs

   1	300.9	1.5375	# c3,c3
   2	637.7	1.2183	# c,o
   3	345.8	1.086	# ca,ha
   4	356.9	1.3497	# c3,f
   5	427.6	1.3789	# c,n
   6	345.9	1.4906	# c,ca
   7	384.2	1.4121	# ca,n
   8	321.0	1.5156	# c3,ca
   9	330.6	1.0969	# c3,hc
  10	403.2	1.0129	# hn,n
  11	461.1	1.3984	# ca,ca
  12	450.2	1.4058	# ca,cp
  13	371.4	0.973	# ho,oh
  14	384.0	1.3637	# ca,oh
  15	351.4	1.4854	# cp,cp

Angle Coeffs

   1	63.15	112.07	# c3,c3,ca
   2	67.68	115.25	# ca,c,n
   3	63.82	123.71	# c,n,ca
   4	48.33	117.55	# c,n,hn
   5	39.4	107.58	# hc,c3,hc
   6	74.22	123.05	# n,c,o
   7	63.53	120.77	# c3,ca,ca
   8	48.18	119.88	# ca,ca,ha
   9	63.74	127.08	# c,n,c
  10	67.87	120.19	# ca,ca,n
  11	64.28	120.33	# c,ca,ca
  12	63.56	112.24	# ca,c3,ca
  13	70.89	107.36	# f,c3,f
  14	46.8	110.47	# ca,c3,hc
  15	66.62	120.02	# ca,ca,ca
  16	66.11	109.24	# c3,c3,f
  17	62.86	111.51	# c3,c3,c3
  18	68.72	122.6	# ca,c,o
  19	66.72	118.38	# ca,cp,ca
  20	49.0	108.58	# ca,oh,ho
  21	66.26	120.69	# ca,ca,cp
  22	69.52	119.9	# ca,ca,oh
  23	64.05	121.11	# ca,cp,cp
  24	47.98	119.86	# cp,ca,ha

Dihedral Coeffs

   1	2	2.5	2	180	2.0	1	0	# hn,n,c,o
   2	1	3.625	2	180	# X,ca,ca,X
   3	1	1.0	2	180	# X,c,ca,X
   4	1	0.15555555555555556	3	0	# X,c3,c3,X
   5	1	0.0	2	0	# X,c3,ca,X
   6	1	2.5	2	180	# X,c,n,X
   7	1	0.45	2	180	# X,ca,n,X
   8	1	1.0	2	180	# X,cp,cp,X
   9	1	3.625	2	180	# X,ca,cp,X
  10	1	0.9	2	180	# X,ca,oh,X

Improper Coeffs

   1	10.5	-1	2	# c,X,X,o
   2	1.1	-1	2	# n,X,X,hn
   3	1.1	-1	2	# ca,ca,ca,c3
   4	1.1	-1	2	# ca,X,X,ha

Atoms

   1	1	1	-0.004194	-47.4056	10.9577	5.42126
   2	1	1	-0.097141	-47.8607	12.2686	5.69186
   3	1	1	-0.172015	-47.4012	13.3232	4.83812
   4	1	2	-0.377994	-45.8728	8.42815	4.67583
   5	1	1	0.033493	-46.4772	10.7496	4.40632
   6	1	1	-0.063739	-46.4823	13.0777	3.78664
   7	1	2	-0.398381	-44.3103	11.7693	1.88052
   8	1	1	0.032144	-46.0193	11.7657	3.60298
   9	1	3	0.032313	-45.7405	9.50138	4.10327
  10	1	4	0.461698	-44.824	9.85963	3.11822
  11	1	3	0.091945	-44.9694	11.1823	2.71661
  12	1	1	-0.10563	-51.8691	10.331	8.01163
  13	1	5	-0.099376	-48.7524	12.4817	6.95708
  14	1	1	-0.043296	-50.0186	11.562	6.89132
  15	1	1	-0.073043	-50.7633	11.2159	8.06432
  16	1	1	-0.117827	-52.2437	9.81985	6.76386
  17	1	1	-0.037562	-50.4794	11.0738	5.6406
  18	1	1	-0.083705	-51.5657	10.19	5.61159
  19	1	5	0.396	-49.2234	13.9744	7.1037
  20	1	5	0.310495	-47.8366	12.1276	8.20642
  21	1	6	-0.130298	-49.8387	14.427	5.9881
  22	1	6	-0.128745	-48.1687	14.7977	7.34485
  23	1	6	-0.120019	-50.1226	14.1362	8.10844
  24	1	6	-0.104287	-47.6211	10.803	8.34392
  25	1	6	-0.095507	-48.3457	12.5658	9.38442
  26	1	6	-0.104872	-46.5971	12.6576	8.09708
  27	1	3	0.456145	-52.1956	9.47778	4.46394
  28	1	3	0.550902	-53.3544	8.88329	6.3849
  29	1	4	0.015704	-53.2368	8.72476	5.00065
  30	1	2	-0.456801	-51.8227	9.52125	3.30723
  31	1	2	-0.487703	-54.205	8.41621	7.13115
  32	1	1	-0.116566	-54.1759	8.02284	4.18908
  33	1	1	-0.050109	-53.8801	6.73249	3.70691
  34	1	1	0.154929	-54.8498	6.03474	2.96896
  35	1	1	0.041555	-55.4351	8.60982	3.90975
  36	1	1	-0.223109	-56.3919	7.89813	3.1513
  37	1	1	-0.080449	-56.1116	6.59808	2.6948
  38	1	5	-0.108008	-55.7424	10.0338	4.36653
  39	1	5	-0.182228	-57.1037	5.82565	1.83188
  40	1	5	-0.345523	-52.4985	6.1208	3.89949
  41	1	7	0.155183	-47.7114	10.1076	6.03268
  42	1	7	0.172904	-47.6973	14.3481	4.9735
  43	1	7	0.158028	-46.1047	13.8878	3.16682
  44	1	7	0.153129	-52.4113	10.0363	8.90764
  45	1	7	0.142914	-50.4781	11.5976	9.03907
  46	1	7	0.135531	-50.0062	11.3409	4.69756
  47	1	7	0.17765	-57.3466	8.35504	2.94546
  48	1	9	0.046541	-54.869	10.6894	4.2809
  49	1	9	0.045238	-56.0745	10.0421	5.41311
  50	1	9	0.051941	-56.538	10.4807	3.75669
  51	1	9	0.087961	-56.7284	4.8141	1.57703
  52	1	9	0.066782	-57.2971	6.34636	0.883578
  53	1	9	0.075908	-58.0545	5.69291	2.33999
  54	1	9	0.105172	-52.4863	5.06705	3.57973
  55	1	9	0.115625	-52.1836	6.15213	4.96093
  56	1	9	0.140296	-51.7497	6.65546	3.29712
  57	1	4	0.463107	-35.5724	-5.19315	-2.19965
  58	1	3	0.061808	-35.6968	-4.06072	-1.38063
  59	1	1	0.001427	-34.7267	-3.07763	-1.94357
  60	1	3	0.068581	-34.607	-5.05442	-3.19402
  61	1	1	0.040836	-34.1386	-3.65132	-3.05374
  62	1	2	-0.386232	-36.466	-3.88307	-0.448838
  63	1	2	-0.391601	-34.2487	-5.86992	-4.03347
  64	1	1	-0.001718	-34.3348	-1.7954	-1.50728
  65	1	1	-0.033153	-33.2936	-2.91934	-3.89805
  66	1	1	-0.217995	-32.9451	-1.61665	-3.50829
  67	1	1	-0.067978	-33.4108	-1.04474	-2.28837
  68	1	7	0.155939	-34.7162	-1.43327	-0.551821
  69	1	7	0.152973	-32.875	-3.38275	-4.78415
  70	1	7	0.17647	-32.2255	-1.09539	-4.12692
  71	1	5	-0.111335	-32.7731	0.273336	-1.73531
  72	1	5	0.291988	-32.4917	1.38726	-2.8273
  73	1	6	-0.108289	-33.5966	1.7	-3.54174
  74	1	6	-0.102972	-31.5221	1.07	-3.72091
  75	1	6	-0.103001	-32.1015	2.54249	-2.23035
  76	1	5	0.43552	-31.3618	-0.145553	-1.13886
  77	1	6	-0.137748	-30.6415	0.894826	-0.683633
  78	1	6	-0.132227	-30.5445	-0.750701	-2.02537
  79	1	6	-0.124157	-31.4852	-1.01342	-0.115502
  80	1	1	-0.009135	-33.7282	0.933284	-0.684931
  81	1	1	-0.073591	-35.0558	1.31529	-1.03044
  82	1	1	-0.051923	-35.8663	1.9885	-0.0993077
  83	1	1	-0.057717	-33.2682	1.3144	0.602727
  84	1	1	-0.156758	-34.0853	1.9881	1.52466
  85	1	1	-0.020332	-35.3857	2.31612	1.14327
  86	1	3	0.469602	-36.3875	3.1577	1.83169
  87	1	4	-0.076132	-37.4532	3.32581	0.950994
  88	1	3	0.458333	-37.2246	2.59974	-0.230761
  89	1	1	-0.008032	-38.5966	4.17262	1.2104
  90	1	1	-0.195997	-39.1549	4.93282	0.157469
  91	1	1	-0.113065	-40.2037	5.83656	0.389688
  92	1	1	0.271942	-39.1797	4.3053	2.50177
  93	1	1	-0.220579	-40.2326	5.20499	2.71259
  94	1	10	0.005883	-40.7314	6.0383	1.6827
  95	1	7	0.164552	-33.7006	2.30546	2.4942
  96	1	7	0.136991	-32.256	1.10805	0.924482
  97	1	7	0.136379	-35.465	1.07242	-2.0106
  98	1	2	-0.461381	-37.9448	2.50232	-1.20882
  99	1	2	-0.471091	-36.2246	3.66369	2.9259
 100	1	7	0.134736	-40.645	5.28646	3.7037
 101	1	7	0.169495	-38.7461	4.86392	-0.85456
 102	1	11	-0.554106	-38.7412	3.58326	3.58256
 103	1	10	-0.02772	-41.7575	7.09087	1.97594
 104	1	7	0.133194	-40.5879	6.42207	-0.438301
 105	1	1	-0.144307	-41.6849	7.837	3.17818
 106	1	1	0.023803	-42.6638	8.7873	3.50641
 107	1	1	0.335896	-43.7863	8.98294	2.67144
 108	1	1	-0.53864	-43.858	8.27045	1.44684
 109	1	1	-0.029171	-42.855	7.33355	1.11332
 110	1	7	0.130758	-42.9298	6.77896	0.184964
 111	1	7	0.243773	-44.702	8.43102	0.774693
 112	1	7	0.131936	-40.833	7.69392	3.82493
 113	1	11	-0.547641	-42.5071	9.51964	4.64747
 114	1	12	0.436946	-37.7543	3.5396	3.52466
 115	1	12	0.442856	-41.7977	9.11263	5.18183
 116	1	1	-0.004194	-38.5049	-11.1439	-10.9438
 117	1	1	-0.097141	-39.5863	-10.986	-10.0302
 118	1	1	-0.172015	-39.8162	-12.0373	-9.09901
 119	1	2	-0.377994	-36.0623	-12.0506	-12.6154
 120	1	1	0.033493	-37.7236	-12.3089	-10.8915
 121	1	1	-0.063739	-39.0123	-13.2015	-9.06056
 122	1	2	-0.398381	-36.8381	-15.3749	-9.45936
 123	1	1	0.032144	-37.9624	-13.2999	-9.96617
 124	1	3	0.032313	-36.5654	-12.7161	-11.7281
 125	1	4	0.461698	-36.1612	-13.9519	-11.221
 126	1	3	0.091945	-36.9575	-14.3753	-10.1619
 127	1	1	-0.10563	-41.7866	-7.97614	-6.76129
 128	1	5	-0.099376	-40.5391	-9.73641	-10.0236
 129	1	1	-0.043296	-40.5854	-9.14272	-8.59055
 130	1	1	-0.073043	-41.7457	-8.51401	-8.06614
 131	1	1	-0.117827	-40.6177	-8.04074	-5.99421
 132	1	1	-0.037562	-39.4168	-9.14179	-7.79588
 133	1	1	-0.083705	-39.4681	-8.59071	-6.5259
 134	1	5	0.396	-41.9454	-10.2202	-10.5658
 135	1	5	0.310495	-39.9974	-8.56543	-10.9275
 136	1	6	-0.130298	-42.7535	-9.21307	-10.9975
 137	1	6	-0.128745	-42.657	-10.9379	-9.66208
 138	1	6	-0.120019	-41.772	-11.0425	-11.6093
 139	1	6	-0.104287	-40.0172	-8.92229	-12.2244
 140	1	6	-0.095507	-38.733	-8.18737	-10.6077
 141	1	6	-0.104872	-40.7248	-7.42623	-10.7818
 142	1	3	0.456145	-38.4027	-8.51834	-5.51221
 143	1	3	0.550902	-40.2986	-7.55271	-4.6163
 144	1	4	0.015704	-38.9751	-7.92586	-4.40795
 145	1	2	-0.456801	-37.279	-8.97543	-5.62729
 146	1	2	-0.487703	-41.0327	-6.9495	-3.85845
 147	1	1	-0.116566	-38.1931	-7.63443	-3.25348
 148	1	1	-0.050109	-37.4353	-6.43911	-3.19334
 149	1	1	0.154929	-36.463	-6.29422	-2.16632
 150	1	1	0.041555	-38.003	-8.65257	-2.30276
 151	1	1	-0.223109	-37.0917	-8.46727	-1.26067
 152	1	1	-0.080449	-36.3042	-7.30462	-1.18833
 153	1	5	-0.108008	-38.8023	-9.93543	-2.35145
 154	1	5	-0.182228	-35.2268	-7.21693	-0.110039
 155	1	5	-0.345523	-37.6262	-5.37315	-4.29384
 156	1	7	0.155183	-38.2715	-10.4116	-11.7041
 157	1	7	0.172904	-40.6562	-11.9673	-8.41146
 158	1	7	0.158028	-39.2004	-14.0021	-8.35659
 159	1	7	0.153129	-42.6975	-7.53289	-6.37338
 160	1	7	0.142914	-42.6451	-8.45471	-8.658
 161	1	7	0.135531	-38.4882	-9.56002	-8.15586
 162	1	7	0.17765	-36.975	-9.24423	-0.519794
 163	1	9	0.046541	-38.6589	-10.4353	-3.3137
 164	1	9	0.045238	-39.8819	-9.75535	-2.21518
 165	1	9	0.051941	-38.4654	-10.6283	-1.57321
 166	1	9	0.087961	-35.4524	-7.89871	0.72225
 167	1	9	0.066782	-35.1548	-6.20834	0.312861
 168	1	9	0.075908	-34.2372	-7.49182	-0.51854
 169	1	9	0.105172	-37.2281	-4.38561	-4.03816
 170	1	9	0.115625	-38.6925	-5.22529	-4.51695
 171	1	9	0.140296	-37.1332	-5.69377	-5.22045
 172	1	4	0.463107	-18.9683	-18.5919	-10.3282
 173	1	3	0.061808	-18.7661	-17.742	-11.4072
 174	1	1	0.001427	-19.7683	-18.1621	-12.4237
 175	1	3	0.068581	-20.0219	-19.4964	-10.5301
 176	1	1	0.040836	-20.505	-19.2156	-11.9144
 177	1	2	-0.386232	-17.8944	-16.8945	-11.5123
 178	1	2	-0.391601	-20.508	-20.2964	-9.74046
 179	1	1	-0.001718	-20.0268	-17.6755	-13.7129
 180	1	1	-0.033153	-21.4303	-19.9088	-12.7
 181	1	1	-0.217995	-21.7059	-19.4247	-13.996
 182	1	1	-0.067978	-21.0565	-18.258	-14.5133
 183	1	7	0.155939	-19.4361	-16.8408	-14.0745
 184	1	7	0.152973	-21.9149	-20.7973	-12.2964
 185	1	7	0.17647	-22.4666	-19.9391	-14.5718
 186	1	5	-0.111335	-21.4619	-17.6761	-15.917
 187	1	5	0.291988	-21.1764	-16.1181	-16.111
 188	1	6	-0.108289	-21.6557	-15.3474	-15.0916
 189	1	6	-0.102972	-21.7744	-15.6512	-17.233
 190	1	6	-0.103001	-19.8513	-15.8369	-16.2365
 191	1	5	0.43552	-20.5755	-18.4982	-16.9261
 192	1	6	-0.137748	-20.6623	-18.0047	-18.1675
 193	1	6	-0.132227	-20.9295	-19.8049	-16.9672
 194	1	6	-0.124157	-19.266	-18.4341	-16.568
 195	1	1	-0.009135	-23.0147	-17.8798	-16.0958
 196	1	1	-0.073591	-23.8573	-17.4114	-15.0557
 197	1	1	-0.051923	-25.2507	-17.6244	-15.122
 198	1	1	-0.057717	-23.651	-18.4837	-17.226
 199	1	1	-0.156758	-25.0359	-18.7429	-17.2424
 200	1	1	-0.020332	-25.8154	-18.2887	-16.1741
 201	1	3	0.469602	-27.293	-18.2411	-16.0154
 202	1	4	-0.076132	-27.5223	-17.544	-14.8297
 203	1	3	0.458333	-26.3359	-17.1414	-14.2352
 204	1	1	-0.008032	-28.8196	-17.2118	-14.338
 205	1	1	-0.195997	-29.1649	-17.5023	-12.9946
 206	1	1	-0.113065	-30.3797	-17.0606	-12.4624
 207	1	1	0.271942	-29.7634	-16.5458	-15.1462
 208	1	1	-0.220579	-30.9776	-16.114	-14.6123
 209	1	10	0.005883	-31.3034	-16.3526	-13.2585
 210	1	7	0.164552	-25.4999	-19.2429	-18.0861
 211	1	7	0.136991	-23.0618	-18.8194	-18.0684
 212	1	7	0.136379	-23.4388	-16.8988	-14.1973
 213	1	2	-0.461381	-26.171	-16.5684	-13.1724
 214	1	2	-0.471091	-28.1468	-18.6138	-16.8098
 215	1	7	0.134736	-31.645	-15.5525	-15.2372
 216	1	7	0.169495	-28.4642	-18.0087	-12.3451
 217	1	11	-0.554106	-29.5423	-16.2898	-16.4666
 218	1	10	-0.02772	-32.5887	-15.8354	-12.6942
 219	1	7	0.133194	-30.5955	-17.2508	-11.4183
 220	1	1	-0.144307	-33.7366	-15.7047	-13.5
 221	1	1	0.023803	-34.9286	-15.1368	-13.0117
 222	1	1	0.335896	-34.9888	-14.6503	-11.683
 223	1	1	-0.53864	-33.8377	-14.7715	-10.8651
 224	1	1	-0.029171	-32.6769	-15.3813	-11.3599
 225	1	7	0.130758	-31.8167	-15.4344	-10.7036
 226	1	7	0.243773	-33.8438	-14.3852	-9.85469
 227	1	7	0.131936	-33.7185	-16.0947	-14.5163
 228	1	11	-0.547641	-35.9866	-15.0334	-13.8747
 229	1	12	0.436946	-29.1539	-17.0861	-16.8637
 230	1	12	0.442856	-35.7013	-15.257	-14.7854
 231	1	4	0.463107	-3.69542	-14.1173	1.63976
 232	1	3	0.061808	-3.98704	-15.474	1.91307
 233	1	1	0.001427	-5.47954	-15.5315	2.02018
 234	1	3	0.068581	-4.84808	-13.324	1.64304
 235	1	1	0.040836	-5.97614	-14.2541	1.86065
 236	1	2	-0.386232	-3.24742	-16.4475	1.96577
 237	1	2	-0.391601	-4.95214	-12.1187	1.42611
 238	1	1	-0.001718	-6.34	-16.6332	2.16264
 239	1	1	-0.033153	-7.33815	-14.0172	1.79372
 240	1	1	-0.217995	-8.2052	-15.115	1.85089
 241	1	1	-0.067978	-7.75002	-16.4375	2.05846
 242	1	7	0.155939	-5.89646	-17.6094	2.26845
 243	1	7	0.152973	-7.72376	-13.0149	1.62375
 244	1	7	0.17647	-9.27071	-14.9235	1.71271
 245	1	5	-0.111335	-8.79268	-17.5969	1.94063
 246	1	5	0.291988	-8.20233	-19.0559	2.19149
 247	1	6	-0.108289	-9.11747	-20.0367	2.03537
 248	1	6	-0.102972	-7.26074	-19.4099	1.28603
 249	1	6	-0.103001	-7.66107	-19.1771	3.43597
 250	1	5	0.43552	-9.95667	-17.4355	3.02623
 251	1	6	-0.137748	-9.48415	-17.3831	4.28722
 252	1	6	-0.132227	-10.8434	-18.4568	2.99804
 253	1	6	-0.124157	-10.7177	-16.3328	2.88081
 254	1	1	-0.009135	-9.28847	-17.4767	0.468291
 255	1	1	-0.073591	-10.6639	-17.3785	0.143916
 256	1	1	-0.051923	-11.0439	-17.3119	-1.19845
 257	1	1	-0.057717	-8.3572	-17.5361	-0.605161
 258	1	1	-0.156758	-8.75643	-17.6037	-1.95342
 259	1	1	-0.020332	-10.1195	-17.4653	-2.21057
 260	1	3	0.469602	-10.8594	-17.5233	-3.50324
 261	1	4	-0.076132	-12.2068	-17.4287	-3.16492
 262	1	3	0.458333	-12.4057	-17.243	-1.79998
 263	1	1	-0.008032	-13.2795	-17.6442	-4.06229
 264	1	1	-0.195997	-14.1082	-16.5652	-4.43376
 265	1	1	-0.113065	-15.1648	-16.7819	-5.31979
 266	1	1	0.271942	-13.5658	-18.9503	-4.52832
 267	1	1	-0.220579	-14.6265	-19.1444	-5.40391
 268	1	10	0.005883	-15.3962	-18.0648	-5.86221
 269	1	7	0.164552	-8.03877	-17.7498	-2.76135
 270	1	7	0.136991	-7.29401	-17.5974	-0.380722
 271	1	7	0.136379	-11.4555	-17.3507	0.874187
 272	1	2	-0.461381	-13.453	-17.0319	-1.20793
 273	1	2	-0.471091	-10.328	-17.6317	-4.60845
 274	1	7	0.134736	-14.8432	-20.1361	-5.79455
 275	1	7	0.169495	-13.9015	-15.5624	-4.06357
 276	1	11	-0.554106	-12.8753	-20.0595	-4.13924
 277	1	10	-0.02772	-16.3461	-18.2374	-6.99567
 278	1	7	0.133194	-15.7452	-15.9369	-5.67219
 279	1	1	-0.144307	-15.9628	-18.9464	-8.16948
 280	1	1	0.023803	-16.847	-19.0678	-9.25356
 281	1	1	0.335896	-18.1387	-18.5156	-9.17476
 282	1	1	-0.53864	-18.5141	-17.7856	-8.02153
 283	1	1	-0.029171	-17.6268	-17.6462	-6.94328
 284	1	7	0.130758	-17.9406	-17.1001	-6.0521
 285	1	7	0.243773	-19.5082	-17.3321	-7.97127
 286	1	7	0.131936	-14.9573	-19.3628	-8.24155
 287	1	11	-0.547641	-16.4251	-19.7262	-10.3816
 288	1	12	0.436946	-13.3667	-20.8289	-4.45699
 289	1	12	0.442856	-15.4514	-19.7792	-10.3553
 290	1	1	-0.004194	1.17991	-10.8199	8.14415
 291	1	1	-0.097141	2.57876	-10.6047	8.22396
 292	1	1	-0.172015	3.35271	-11.4162	9.08513
 293	1	2	-0.377994	-1.59717	-12.1706	7.8697
 294	1	1	0.033493	0.634452	-11.9308	8.78495
 295	1	1	-0.063739	2.77184	-12.4847	9.79115
 296	1	2	-0.398381	1.01515	-14.842	10.5801
 297	1	1	0.032144	1.41799	-12.7332	9.58247
 298	1	3	0.032313	-0.690024	-12.571	8.58623
 299	1	4	0.461698	-0.578228	-13.7728	9.28178
 300	1	3	0.091945	0.601224	-13.8805	9.97712
 301	1	1	-0.10563	1.30951	-8.38252	4.14621
 302	1	5	-0.099376	3.22483	-9.53841	7.34364
 303	1	1	-0.043296	2.4957	-9.54299	5.96606
 304	1	1	-0.073043	2.02727	-8.34581	5.35588
 305	1	1	-0.117827	1.08794	-9.63431	3.57424
 306	1	1	-0.037562	2.27629	-10.7839	5.30292
 307	1	1	-0.083705	1.55488	-10.7971	4.12466
 308	1	5	0.396	4.75419	-9.83482	7.03324
 309	1	5	0.310495	3.10038	-8.20973	8.19757
 310	1	6	-0.130298	4.94835	-11.1078	6.626
 311	1	6	-0.128745	5.56933	-9.64864	8.08054
 312	1	6	-0.120019	5.2101	-9.07339	6.03133
 313	1	6	-0.104287	3.58232	-8.37775	9.45404
 314	1	6	-0.095507	1.81087	-7.84496	8.34396
 315	1	6	-0.104872	3.76627	-7.17041	7.64007
 316	1	3	0.456145	1.09209	-11.9516	3.33694
 317	1	3	0.550902	0.24574	-9.99138	2.42786
 318	1	4	0.015704	0.318386	-11.3724	2.33504
 319	1	2	-0.456801	1.27391	-13.1286	3.61553
 320	1	2	-0.487703	-0.389075	-9.22074	1.73281
 321	1	1	-0.116566	-0.488764	-12.1328	1.46823
 322	1	1	-0.050109	-1.71555	-12.6462	1.95907
 323	1	1	0.154929	-2.45764	-13.5661	1.18649
 324	1	1	0.041555	-0.0088558	-12.4721	0.1977
 325	1	1	-0.223109	-0.775065	-13.3537	-0.575325
 326	1	1	-0.080449	-1.98118	-13.8858	-0.0954285
 327	1	5	-0.108008	1.28145	-11.891	-0.383572
 328	1	5	-0.182228	-2.74919	-14.8314	-0.994163
 329	1	5	-0.345523	-2.15688	-12.26	3.3622
 330	1	7	0.155183	0.523741	-10.2078	7.53167
 331	1	7	0.172904	4.42072	-11.2808	9.20115
 332	1	7	0.158028	3.36649	-13.133	10.4331
 333	1	7	0.153129	0.892462	-7.48462	3.70642
 334	1	7	0.142914	2.17365	-7.38499	5.82983
 335	1	7	0.135531	2.57918	-11.7329	5.72822
 336	1	7	0.17765	-0.423838	-13.6422	-1.56445
 337	1	9	0.046541	2.04942	-11.7547	0.39439
 338	1	9	0.045238	1.10921	-10.9237	-0.876757
 339	1	9	0.051941	1.72655	-12.5691	-1.12401
 340	1	9	0.087961	-2.39132	-14.7617	-2.03306
 341	1	9	0.066782	-3.8279	-14.5639	-1.03093
 342	1	9	0.075908	-2.65394	-15.8559	-0.644672
 343	1	9	0.105172	-1.94613	-11.2145	3.59432
 344	1	9	0.115625	-1.63515	-12.8752	4.10927
 345	1	9	0.140296	-3.22982	-12.3948	3.53397
 346	1	1	-0.004194	1.83586	-24.275	5.42311
 347	1	1	-0.097141	1.69714	-23.0788	4.64663
 348	1	1	-0.172015	2.66086	-22.0279	4.82782
 349	1	2	-0.377994	2.35365	-26.2349	7.74163
 350	1	1	0.033493	2.85886	-24.3051	6.4011
 351	1	1	-0.063739	3.65786	-22.0768	5.81361
 352	1	2	-0.398381	5.27312	-22.647	8.33871
 353	1	1	0.032144	3.72394	-23.2371	6.5837
 354	1	3	0.032313	3.04622	-25.2553	7.53675
 355	1	4	0.461698	3.97044	-24.612	8.37993
 356	1	3	0.091945	4.47134	-23.4256	7.85086
 357	1	1	-0.10563	-0.834845	-19.0821	3.50455
 358	1	5	-0.099376	0.454538	-22.7366	3.76775
 359	1	1	-0.043296	0.0382839	-21.2932	4.11454
 360	1	1	-0.073043	-0.35699	-20.3471	3.13867
 361	1	1	-0.117827	-0.950883	-18.7937	4.86773
 362	1	1	-0.037562	-0.0178007	-20.9362	5.50223
 363	1	1	-0.083705	-0.529198	-19.6831	5.84165
 364	1	5	0.396	0.925258	-22.8996	2.28869
 365	1	5	0.310495	-0.84179	-23.6298	4.0074
 366	1	6	-0.130298	-0.109335	-22.8744	1.40387
 367	1	6	-0.128745	1.52674	-24.1109	2.12159
 368	1	6	-0.120019	1.82122	-21.9464	1.86487
 369	1	6	-0.104287	-0.738611	-24.8544	3.43446
 370	1	6	-0.095507	-1.96514	-23.0535	3.51079
 371	1	6	-0.104872	-1.12977	-23.8504	5.32461
 372	1	3	0.456145	-0.838031	-19.0689	7.17479
 373	1	3	0.550902	-1.53331	-17.6045	5.51448
 374	1	4	0.015704	-1.43761	-17.8756	6.87223
 375	1	2	-0.456801	-0.588459	-19.4841	8.29805
 376	1	2	-0.487703	-2.05418	-16.6162	4.99267
 377	1	1	-0.116566	-1.83581	-16.9651	7.86723
 378	1	1	-0.050109	-1.02703	-15.8358	8.10683
 379	1	1	0.154929	-1.42668	-14.8793	9.06693
 380	1	1	0.041555	-3.05571	-17.1369	8.57923
 381	1	1	-0.223109	-3.42159	-16.1631	9.52587
 382	1	1	-0.080449	-2.59372	-15.0697	9.81542
 383	1	5	-0.108008	-4.00924	-18.3245	8.35693
 384	1	5	-0.182228	-2.95742	-14.1384	10.977
 385	1	5	-0.345523	0.292246	-15.6676	7.31184
 386	1	7	0.155183	1.13155	-25.093	5.38613
 387	1	7	0.172904	2.56433	-21.1184	4.24549
 388	1	7	0.158028	4.32349	-21.2475	6.01699
 389	1	7	0.153129	-1.17	-18.3461	2.77655
 390	1	7	0.142914	-0.365845	-20.5846	2.09269
 391	1	7	0.135531	0.226106	-21.6386	6.30137
 392	1	7	0.17765	-4.3374	-16.2911	10.1026
 393	1	9	0.046541	-4.78454	-18.3844	9.14467
 394	1	9	0.045238	-3.46119	-19.2827	8.35295
 395	1	9	0.051941	-4.51453	-18.2149	7.37903
 396	1	9	0.087961	-3.74694	-14.5572	11.6033
 397	1	9	0.066782	-3.30016	-13.1724	10.6113
 398	1	9	0.075908	-2.09259	-14.0058	11.6451
 399	1	9	0.105172	0.785907	-16.6142	7.06241
 400	1	9	0.115625	1.09046	-15.1134	7.81566
 401	1	9	0.140296	0.0734453	-15.1478	6.35986
 402	1	1	-0.004194	12.685	-24.3088	14.0934
 403	1	1	-0.097141	11.9749	-24.3462	15.3081
 404	1	1	-0.172015	11.5525	-23.0828	15.8431
 405	1	2	-0.377994	14.2515	-23.6094	11.5394
 406	1	1	0.033493	12.805	-23.0919	13.42
 407	1	1	-0.063739	11.7978	-21.8321	15.2253
 408	1	2	-0.398381	12.5057	-19.6262	13.1952
 409	1	1	0.032144	12.3747	-21.8966	13.9607
 410	1	3	0.032313	13.5968	-22.8045	12.1843
 411	1	4	0.461698	13.5492	-21.4103	12.0472
 412	1	3	0.091945	12.7443	-20.8136	13.0242
 413	1	1	-0.10563	8.41654	-27.8286	14.8427
 414	1	5	-0.099376	11.5063	-25.683	15.9913
 415	1	1	-0.043296	10.2283	-26.158	15.2489
 416	1	1	-0.073043	9.60909	-27.4062	15.4985
 417	1	1	-0.117827	7.81822	-26.9593	13.9078
 418	1	1	-0.037562	9.563	-25.3134	14.3311
 419	1	1	-0.083705	8.38242	-25.7256	13.6926
 420	1	5	0.396	11.0686	-25.468	17.4974
 421	1	5	0.310495	12.6369	-26.8439	15.8951
 422	1	6	-0.130298	9.8555	-24.919	17.6531
 423	1	6	-0.128745	11.948	-24.6984	18.1605
 424	1	6	-0.120019	10.951	-26.6083	18.1668
 425	1	6	-0.104287	13.821	-26.3128	16.2535
 426	1	6	-0.095507	12.8069	-27.3208	14.6303
 427	1	6	-0.104872	12.4389	-27.9522	16.6856
 428	1	3	0.456145	7.44689	-24.9305	12.8402
 429	1	3	0.550902	6.5383	-27.034	13.1336
 430	1	4	0.015704	6.37939	-25.7825	12.5606
 431	1	2	-0.456801	7.6057	-23.7763	12.4771
 432	1	2	-0.487703	5.6992	-27.8965	13.2111
 433	1	1	-0.116566	5.1898	-25.3429	11.8862
 434	1	1	-0.050109	5.19872	-25.2207	10.478
 435	1	1	0.154929	4.02528	-24.7757	9.80696
 436	1	1	0.041555	4.03151	-25.0203	12.6406
 437	1	1	-0.223109	2.93375	-24.4502	11.966
 438	1	1	-0.080449	2.92296	-24.3205	10.569
 439	1	5	-0.108008	3.92949	-25.1509	14.1694
 440	1	5	-0.182228	1.64683	-23.7895	9.95049
 441	1	5	-0.345523	6.49547	-25.4833	9.68077
 442	1	7	0.155183	13.0321	-25.2017	13.6036
 443	1	7	0.172904	11.007	-23.0351	16.7702
 444	1	7	0.158028	11.5206	-20.8887	15.6863
 445	1	7	0.153129	7.99301	-28.8146	15.0227
 446	1	7	0.142914	10.0451	-28.075	16.2194
 447	1	7	0.135531	9.9356	-24.3251	14.0957
 448	1	7	0.17765	2.0636	-24.1639	12.5309
 449	1	9	0.046541	3.28435	-25.9782	14.4682
 450	1	9	0.045238	3.45749	-24.2576	14.5992
 451	1	9	0.051941	4.89219	-25.265	14.6624
 452	1	9	0.087961	1.07346	-24.5827	9.47185
 453	1	9	0.066782	1.83998	-23.0782	9.15901
 454	1	9	0.075908	1.00728	-23.308	10.6985
 455	1	9	0.105172	6.25826	-25.9542	8.72318
 456	1	9	0.115625	7.20604	-26.1523	10.1944
 457	1	9	0.140296	7.00927	-24.5264	9.50401
 458	1	1	-0.004194	13.0801	-20.7394	0.31006
 459	1	1	-0.097141	11.8746	-21.4739	0.47644
 460	1	1	-0.172015	11.2882	-22.0613	-0.664357
 461	1	2	-0.377994	15.3132	-18.774	-0.768529
 462	1	1	0.033493	13.5647	-20.4658	-0.968841
 463	1	1	-0.063739	11.7746	-21.7871	-1.95799
 464	1	2	-0.398381	13.0334	-20.3774	-4.42616
 465	1	1	0.032144	12.8865	-20.9459	-2.07415
 466	1	3	0.032313	14.5581	-19.4449	-1.42787
 467	1	4	0.461698	14.3374	-19.3537	-2.79566
 468	1	3	0.091945	13.3961	-20.2517	-3.27621
 469	1	1	-0.10563	14.126	-22.5834	3.94989
 470	1	5	-0.099376	11.0949	-21.398	1.8211
 471	1	1	-0.043296	12.0854	-21.5552	3.01194
 472	1	1	-0.073043	13.1666	-22.4906	2.93175
 473	1	1	-0.117827	13.9762	-21.8189	5.11702
 474	1	1	-0.037562	11.934	-20.8059	4.22051
 475	1	1	-0.083705	12.8883	-20.9746	5.23734
 476	1	5	0.396	10.4633	-19.941	1.71174
 477	1	5	0.310495	9.89451	-22.4036	1.95548
 478	1	6	-0.130298	9.77529	-19.7853	0.523935
 479	1	6	-0.128745	11.4505	-19.021	1.75456
 480	1	6	-0.120019	9.57162	-19.5746	2.67319
 481	1	6	-0.104287	10.3397	-23.6627	1.96965
 482	1	6	-0.095507	8.89704	-22.296	1.0346
 483	1	6	-0.104872	9.33241	-22.227	3.13269
 484	1	3	0.456145	12.9152	-20.3702	6.58426
 485	1	3	0.550902	14.7529	-21.7832	6.40261
 486	1	4	0.015704	14.0493	-20.8824	7.22328
 487	1	2	-0.456801	12.0376	-19.6529	7.0386
 488	1	2	-0.487703	15.8897	-22.2284	6.54178
 489	1	1	-0.116566	14.4026	-20.4867	8.53698
 490	1	1	-0.050109	13.6861	-21.0442	9.62303
 491	1	1	0.154929	14.1047	-20.7055	10.9422
 492	1	1	0.041555	15.3565	-19.4523	8.72154
 493	1	1	-0.223109	15.7163	-19.0974	10.0266
 494	1	1	-0.080449	15.1148	-19.7274	11.109
 495	1	5	-0.108008	16.1268	-18.7763	7.56402
 496	1	5	-0.182228	15.5635	-19.3705	12.51
 497	1	5	-0.345523	12.4796	-21.9784	9.4097
 498	1	7	0.155183	13.5266	-20.2118	1.15035
 499	1	7	0.172904	10.3988	-22.6827	-0.613948
 500	1	7	0.158028	11.2691	-22.1303	-2.84867
 501	1	7	0.153129	14.9837	-23.2291	3.88925
 502	1	7	0.142914	13.2327	-23.1215	2.06841
 503	1	7	0.135531	11.126	-20.1082	4.38098
 504	1	7	0.17765	16.5015	-18.375	10.2152
 505	1	9	0.046541	16.9539	-19.4029	7.22331
 506	1	9	0.045238	16.5651	-17.8375	7.90865
 507	1	9	0.051941	15.4753	-18.5677	6.69387
 508	1	9	0.087961	16.5458	-18.8694	12.4874
 509	1	9	0.066782	15.6879	-20.2242	13.1669
 510	1	9	0.075908	14.8328	-18.7001	12.9782
 511	1	9	0.105172	11.8207	-21.5975	8.63393
 512	1	9	0.115625	11.8661	-22.149	10.3112
 513	1	9	0.140296	12.8483	-22.9778	9.13139
 514	1	1	-0.004194	12.1084	-7.41125	-4.32543
 515	1	1	-0.097141	12.0078	-8.70641	-4.86713
 516	1	1	-0.172015	11.1567	-9.63408	-4.18159
 517	1	2	-0.377994	11.7766	-4.70668	-2.80233
 518	1	1	0.033493	11.3583	-7.06752	-3.18519
 519	1	1	-0.063739	10.4656	-9.32191	-2.99558
 520	1	2	-0.398381	8.87557	-7.71111	-0.807025
 521	1	1	0.032144	10.5407	-7.98549	-2.55778
 522	1	3	0.032313	11.2116	-5.74562	-2.48147
 523	1	4	0.461698	10.287	-5.98055	-1.48862
 524	1	3	0.091945	9.80429	-7.26238	-1.45441
 525	1	1	-0.10563	12.2197	-12.8375	-7.16518
 526	1	5	-0.099376	12.6821	-9.06764	-6.23717
 527	1	1	-0.043296	12.8704	-10.6128	-6.27189
 528	1	1	-0.073043	12.1548	-11.4288	-7.20707
 529	1	1	-0.117827	13.0576	-13.467	-6.24659
 530	1	1	-0.037562	13.6393	-11.3188	-5.28522
 531	1	1	-0.083705	13.7099	-12.7378	-5.27295
 532	1	5	0.396	14.1045	-8.38096	-6.47629
 533	1	5	0.310495	11.6876	-8.51854	-7.34252
 534	1	6	-0.130298	14.7282	-8.8645	-7.57196
 535	1	6	-0.128745	14.931	-8.61801	-5.44518
 536	1	6	-0.120019	14.0905	-7.02984	-6.68646
 537	1	6	-0.104287	10.4511	-9.07844	-7.26522
 538	1	6	-0.095507	12.0816	-8.66145	-8.63205
 539	1	6	-0.104872	11.5064	-7.18928	-7.2666
 540	1	3	0.456145	14.601	-13.7004	-4.51786
 541	1	3	0.550902	13.4181	-14.9226	-6.07854
 542	1	4	0.015704	14.3737	-14.9483	-5.06708
 543	1	2	-0.456801	15.4059	-13.4452	-3.63922
 544	1	2	-0.487703	13.1172	-15.8654	-6.81022
 545	1	1	-0.116566	15.0231	-16.1929	-4.6997
 546	1	1	-0.050109	14.5258	-17.042	-3.66786
 547	1	1	0.154929	14.9513	-18.4087	-3.66631
 548	1	1	0.041555	16.1068	-16.5905	-5.51645
 549	1	1	-0.223109	16.5693	-17.9029	-5.42364
 550	1	1	-0.080449	15.9391	-18.8392	-4.60274
 551	1	5	-0.108008	16.7154	-15.6551	-6.56839
 552	1	5	-0.182228	16.4201	-20.2738	-4.70189
 553	1	5	-0.345523	13.5592	-16.4836	-2.61204
 554	1	7	0.155183	12.7155	-6.63393	-4.81097
 555	1	7	0.172904	10.9846	-10.6234	-4.59675
 556	1	7	0.158028	9.79406	-10.0296	-2.53799
 557	1	7	0.153129	11.7447	-13.438	-7.96425
 558	1	7	0.142914	11.5937	-11.0001	-8.00455
 559	1	7	0.135531	14.1646	-10.7835	-4.51421
 560	1	7	0.17765	17.3839	-18.1819	-6.06982
 561	1	9	0.046541	17.688	-16.0336	-6.88014
 562	1	9	0.045238	16.887	-14.6691	-6.13174
 563	1	9	0.051941	16.0588	-15.5264	-7.44627
 564	1	9	0.087961	15.6163	-21.006	-4.52095
 565	1	9	0.066782	17.2215	-20.4373	-3.96822
 566	1	9	0.075908	16.8654	-20.4978	-5.67261
 567	1	9	0.105172	13.7966	-16.8709	-1.62642
 568	1	9	0.115625	12.5382	-16.8126	-2.81443
 569	1	9	0.140296	13.5705	-15.3835	-2.51769
 570	1	1	-0.004194	13.9111	0.0604128	9.72317
 571	1	1	-0.097141	13.6629	-1.15323	9.01572
 572	1	1	-0.172015	14.3096	-2.34336	9.50143
 573	1	2	-0.377994	14.4049	2.24323	11.8914
 574	1	1	0.033493	14.5195	0.0140124	10.98
 575	1	1	-0.063739	15.0248	-2.34646	10.7216
 576	1	2	-0.398381	16.0657	-1.67135	13.6051
 577	1	1	0.032144	14.9847	-1.18469	11.5098
 578	1	3	0.032313	14.7411	1.08728	11.9645
 579	1	4	0.461698	15.3095	0.488973	13.0757
 580	1	3	0.091945	15.5353	-0.872518	12.8571
 581	1	1	-0.10563	13.6951	-2.00445	4.54008
 582	1	5	-0.099376	12.3505	-1.3037	8.11851
 583	1	1	-0.043296	12.5817	-2.12172	6.76678
 584	1	1	-0.073043	13.6763	-1.77328	5.9352
 585	1	1	-0.117827	12.6687	-2.73371	3.99076
 586	1	1	-0.037562	11.5713	-2.93289	6.1547
 587	1	1	-0.083705	11.6436	-3.21338	4.77933
 588	1	5	0.396	11.7798	0.112952	7.55183
 589	1	5	0.310495	11.2827	-1.96447	9.12256
 590	1	6	-0.130298	10.6111	-0.033021	6.85261
 591	1	6	-0.128745	12.6507	0.665082	6.67025
 592	1	6	-0.120019	11.4906	1.13798	8.41458
 593	1	6	-0.104287	11.6012	-3.23432	9.47858
 594	1	6	-0.095507	9.97251	-2.00811	8.77522
 595	1	6	-0.104872	11.2954	-1.22299	10.2479
 596	1	3	0.456145	10.5379	-3.55421	3.87282
 597	1	3	0.550902	12.2905	-2.80381	2.58775
 598	1	4	0.015704	11.018	-3.36468	2.59252
 599	1	2	-0.456801	9.41982	-3.81861	4.2703
 600	1	2	-0.487703	12.9797	-2.46668	1.64876
 601	1	1	-0.116566	10.3189	-3.57873	1.38471
 602	1	1	-0.050109	10.5869	-4.72787	0.582211
 603	1	1	0.154929	9.88769	-4.94737	-0.612354
 604	1	1	0.041555	9.27347	-2.65951	1.02173
 605	1	1	-0.223109	8.57099	-2.92418	-0.167361
 606	1	1	-0.080449	8.82588	-4.06751	-0.941136
 607	1	5	-0.108008	8.75141	-1.4301	1.83497
 608	1	5	-0.182228	8.06376	-4.20002	-2.23891
 609	1	5	-0.345523	11.5667	-5.77719	1.05287
 610	1	7	0.155183	13.6089	0.998367	9.32436
 611	1	7	0.172904	14.1143	-3.29059	9.02088
 612	1	7	0.158028	15.4638	-3.26545	11.1179
 613	1	7	0.153129	14.4474	-1.51677	3.92345
 614	1	7	0.142914	14.4466	-1.1125	6.2831
 615	1	7	0.135531	10.6681	-3.16952	6.69776
 616	1	7	0.17765	7.78175	-2.24741	-0.477641
 617	1	9	0.046541	7.85535	-1.68814	2.43722
 618	1	9	0.045238	8.46696	-0.648752	1.09761
 619	1	9	0.051941	9.49962	-0.973274	2.49826
 620	1	9	0.087961	7.53078	-3.26729	-2.49973
 621	1	9	0.066782	8.78244	-4.39323	-3.02659
 622	1	9	0.075908	7.35992	-5.05	-2.19301
 623	1	9	0.105172	11.1523	-6.81549	1.10969
 624	1	9	0.115625	11.9759	-5.58013	2.01843
 625	1	9	0.140296	12.4125	-5.79638	0.323649