pySIMM System Object

1498 atoms
1641 bonds
2832 angles
4344 dihedrals
444 impropers

12 atom types
15 bond types
24 angle types
10 dihedral types
4 improper types

-149.943045 149.943045 xlo xhi
-149.943045 149.943045 ylo yhi
-149.943045 149.943045 zlo zhi

Masses

   1	14.01	# n
   2	12.01	# c
   3	12.01	# ca
   4	1.008	# hn
   5	16.0	# o
   6	1.008	# ha
   7	12.01	# c3
   8	19.0	# f
   9	12.01	# cp
  10	16.0	# oh
  11	1.008	# ho
  12	1.008	# hc

Pair Coeffs

   1	0.17	3.249998523775958	# n
   2	0.086	3.3996695084235347	# c
   3	0.086	3.3996695084235347	# ca
   4	0.0157	1.069078461768407	# hn
   5	0.21	2.959921901149463	# o
   6	0.015	2.59964245953351	# ha
   7	0.1094	3.3996695084235347	# c3
   8	0.061	3.1181455134911875	# f
   9	0.086	3.3996695084235347	# cp
  10	0.2104	3.0664733878390478	# oh
  11	0.0047	0.5379246460131368	# ho
  12	0.0157	2.649532787749369	# hc

Bond Coeffs

   1	403.2	1.0129	# hn,n
   2	356.9	1.3497	# c3,f
   3	384.2	1.4121	# ca,n
   4	450.2	1.4058	# ca,cp
   5	371.4	0.973	# ho,oh
   6	461.1	1.3984	# ca,ca
   7	427.6	1.3789	# c,n
   8	321.0	1.5156	# c3,ca
   9	384.0	1.3637	# ca,oh
  10	345.9	1.4906	# c,ca
  11	345.8	1.086	# ca,ha
  12	637.7	1.2183	# c,o
  13	300.9	1.5375	# c3,c3
  14	351.4	1.4854	# cp,cp
  15	330.6	1.0969	# c3,hc

Angle Coeffs

   1	63.53	120.77	# c3,ca,ca
   2	70.89	107.36	# f,c3,f
   3	67.87	120.19	# ca,ca,n
   4	66.72	118.38	# ca,cp,ca
   5	66.11	109.24	# c3,c3,f
   6	49.0	108.58	# ca,oh,ho
   7	62.86	111.51	# c3,c3,c3
   8	63.15	112.07	# c3,c3,ca
   9	66.26	120.69	# ca,ca,cp
  10	63.56	112.24	# ca,c3,ca
  11	63.82	123.71	# c,n,ca
  12	69.52	119.9	# ca,ca,oh
  13	63.74	127.08	# c,n,c
  14	48.18	119.88	# ca,ca,ha
  15	74.22	123.05	# n,c,o
  16	64.05	121.11	# ca,cp,cp
  17	66.62	120.02	# ca,ca,ca
  18	68.72	122.6	# ca,c,o
  19	67.68	115.25	# ca,c,n
  20	48.33	117.55	# c,n,hn
  21	64.28	120.33	# c,ca,ca
  22	47.98	119.86	# cp,ca,ha
  23	39.4	107.58	# hc,c3,hc
  24	46.8	110.47	# ca,c3,hc

Dihedral Coeffs

   1	1	0.15555555555555556	3	0	# X,c3,c3,X
   2	1	1.0	2	180	# X,cp,cp,X
   3	1	0.0	2	0	# X,c3,ca,X
   4	1	1.0	2	180	# X,c,ca,X
   5	1	2.5	2	180	# X,c,n,X
   6	1	0.45	2	180	# X,ca,n,X
   7	1	3.625	2	180	# X,ca,cp,X
   8	1	0.9	2	180	# X,ca,oh,X
   9	2	2.5	2	180	2.0	1	0	# hn,n,c,o
  10	1	3.625	2	180	# X,ca,ca,X

Improper Coeffs

   1	1.1	-1	2	# ca,ca,ca,c3
   2	1.1	-1	2	# n,X,X,hn
   3	1.1	-1	2	# ca,X,X,ha
   4	10.5	-1	2	# c,X,X,o

Atoms

   1	1	1	0.463107	7.65588	-58.9409	41.9999
   2	1	2	0.061808	8.77252	-59.779	41.9275
   3	1	3	0.001427	8.34643	-61.0794	42.5241
   4	1	2	0.068581	6.55883	-59.5817	42.5945
   5	1	3	0.040836	7.02214	-60.9563	42.907
   6	1	5	-0.386232	9.90726	-59.4938	41.5919
   7	1	5	-0.391601	5.46556	-59.1253	42.8945
   8	1	3	-0.001718	9.08246	-62.2494	42.8004
   9	1	3	-0.033153	6.36759	-61.9754	43.5981
  10	1	3	-0.217995	7.07869	-63.1666	43.8517
  11	1	3	-0.067978	8.43072	-63.3418	43.4332
  12	1	6	0.155939	10.1205	-62.3026	42.4897
  13	1	6	0.152973	5.33468	-61.8447	43.9119
  14	1	6	0.17647	6.54729	-63.9921	44.3244
  15	1	7	-0.111335	9.09549	-64.7602	43.5411
  16	1	7	0.291988	10.6811	-64.7619	43.4888
  17	1	8	-0.108289	11.2244	-63.8186	44.2878
  18	1	8	-0.102972	11.1809	-64.5875	42.238
  19	1	8	-0.103001	11.2261	-65.9176	43.9261
  20	1	7	0.43552	8.52187	-65.5799	42.3122
  21	1	8	-0.137748	7.17828	-65.7135	42.3863
  22	1	8	-0.132227	8.72393	-64.9451	41.1403
  23	1	8	-0.124157	9.0368	-66.8277	42.1738
  24	1	3	-0.009135	8.71778	-65.3498	44.9306
  25	1	3	-0.073591	8.21813	-66.661	45.1322
  26	1	3	-0.051923	7.87482	-67.0553	46.4315
  27	1	3	-0.057717	8.89855	-64.5382	46.0803
  28	1	3	-0.156758	8.61602	-64.9769	47.3833
  29	1	3	-0.020332	8.07108	-66.2481	47.5238
  30	1	2	0.469602	7.58199	-66.9554	48.7417
  31	1	1	-0.076132	6.99087	-68.1259	48.2801
  32	1	2	0.458333	7.15226	-68.2677	46.9011
  33	1	3	-0.008032	6.28887	-69.0645	49.1066
  34	1	3	-0.195997	6.89192	-69.4712	50.3061
  35	1	3	-0.113065	6.23318	-70.3509	51.1718
  36	1	3	0.271942	5.00527	-69.5674	48.7978
  37	1	3	-0.220579	4.37394	-70.4988	49.6405
  38	1	9	0.005883	4.9814	-70.9255	50.8415
  39	1	6	0.164552	8.80436	-64.3477	48.2524
  40	1	6	0.136991	9.28937	-63.5259	45.9651
  41	1	6	0.136379	8.01471	-67.3502	44.3236
  42	1	5	-0.461381	6.58885	-69.0783	46.1804
  43	1	5	-0.471091	7.68952	-66.5532	49.8943
  44	1	6	0.134736	3.40867	-70.9036	49.3581
  45	1	6	0.169495	7.87554	-69.1019	50.5812
  46	1	10	-0.554106	4.3615	-69.2202	47.6489
  47	1	9	-0.02772	4.30304	-71.872	51.7771
  48	1	6	0.133194	6.70717	-70.5891	52.1168
  49	1	3	-0.144307	2.90181	-71.9482	51.8949
  50	1	3	0.023803	2.30342	-72.8309	52.8153
  51	1	3	0.335896	3.07531	-73.7	53.6064
  52	1	3	-0.53864	4.47114	-73.6309	53.5007
  53	1	3	-0.029171	5.06196	-72.7318	52.5993
  54	1	6	0.130758	6.14583	-72.7003	52.528
  55	1	6	0.243773	5.08393	-74.2711	54.1276
  56	1	6	0.131936	2.27243	-71.2888	51.31
  57	1	10	-0.547641	0.947824	-72.8552	52.9313
  58	1	11	0.436946	5.03799	-69.209	46.9247
  59	1	11	0.442856	0.570566	-72.2138	52.2962
  60	1	3	-0.004194	10.1578	-53.9207	31.6288
  61	1	3	-0.097141	9.2379	-53.4231	32.5932
  62	1	3	-0.172015	9.64089	-52.3092	33.3825
  63	1	5	-0.377994	12.503	-54.4443	29.6677
  64	1	3	0.033493	11.3433	-53.2225	31.4094
  65	1	3	-0.063739	10.8936	-51.6799	33.2166
  66	1	5	-0.398381	13.6192	-50.6706	32.0943
  67	1	3	0.032144	11.6998	-52.1297	32.1685
  68	1	2	0.032313	12.3997	-53.4626	30.3865
  69	1	1	0.461698	13.3343	-52.446	30.6051
  70	1	2	0.091945	12.9718	-51.5992	31.6421
  71	1	3	-0.10563	5.40519	-53.6587	35.8086
  72	1	7	-0.099376	7.75916	-53.9309	32.6498
  73	1	3	-0.043296	7.21345	-53.9764	34.1214
  74	1	3	-0.073043	5.89136	-53.5378	34.4796
  75	1	3	-0.117827	6.23456	-54.2428	36.7774
  76	1	3	-0.037562	8.02698	-54.5245	35.1508
  77	1	3	-0.083705	7.50702	-54.6419	36.4495
  78	1	7	0.396	7.58667	-55.3764	32.0175
  79	1	7	0.310495	6.9436	-52.9213	31.7512
  80	1	8	-0.130298	6.37857	-55.9493	32.2671
  81	1	8	-0.128745	8.47716	-56.2375	32.5327
  82	1	8	-0.120019	7.75702	-55.404	30.6709
  83	1	8	-0.104287	5.77511	-53.4276	31.301
  84	1	8	-0.095507	7.64389	-52.5912	30.6519
  85	1	8	-0.104872	6.63805	-51.754	32.3685
  86	1	2	0.456145	8.11413	-55.2853	37.6334
  87	1	2	0.550902	5.97071	-54.6659	38.1858
  88	1	1	0.015704	7.13027	-55.2923	38.6267
  89	1	5	-0.456801	9.30143	-55.5557	37.7207
  90	1	5	-0.487703	4.9256	-54.5188	38.7903
  91	1	3	-0.116566	7.35679	-55.7337	39.9725
  92	1	3	-0.050109	7.34151	-57.1262	40.2965
  93	1	3	0.154929	7.69503	-57.5587	41.615
  94	1	3	0.041555	7.72211	-54.7786	40.9563
  95	1	3	-0.223109	8.13626	-55.2349	42.2207
  96	1	3	-0.080449	8.13931	-56.6056	42.5619
  97	1	7	-0.108008	7.69541	-53.2644	40.7082
  98	1	7	-0.182228	8.5816	-57.0385	43.9685
  99	1	7	-0.345523	6.91932	-58.1654	39.2373
 100	1	6	0.155183	9.94822	-54.7492	30.9641
 101	1	6	0.172904	8.95445	-51.9002	34.1159
 102	1	6	0.158028	11.19	-50.835	33.8368
 103	1	6	0.153129	4.40069	-53.3349	36.0771
 104	1	6	0.142914	5.21311	-53.1167	33.7429
 105	1	6	0.135531	9.04056	-54.8694	34.9477
 106	1	6	0.17765	8.46305	-54.5099	42.9557
 107	1	12	0.046541	6.79149	-52.934	40.1729
 108	1	12	0.045238	8.56818	-52.9617	40.1142
 109	1	12	0.051941	7.72062	-52.6921	41.6455
 110	1	12	0.087961	9.51126	-57.6194	43.9195
 111	1	12	0.066782	7.81819	-57.6559	44.4689
 112	1	12	0.075908	8.78058	-56.1693	44.6098
 113	1	12	0.105172	6.39233	-57.7038	38.3949
 114	1	12	0.115625	6.22426	-58.9033	39.6575
 115	1	12	0.140296	7.78248	-58.6995	38.8213
 116	1	3	-0.004194	19.4075	-45.2856	21.7087
 117	1	3	-0.097141	19.6175	-46.1568	22.8083
 118	1	3	-0.172015	20.2475	-45.636	23.9719
 119	1	5	-0.377994	19.1135	-42.9289	19.7187
 120	1	3	0.033493	19.8669	-43.961	21.7777
 121	1	3	-0.063739	20.7242	-44.3154	24.0349
 122	1	5	-0.398381	21.4849	-41.3487	23.4409
 123	1	3	0.032144	20.5402	-43.4985	22.9012
 124	1	2	0.032313	19.6747	-42.8441	20.8068
 125	1	1	0.461698	20.3182	-41.7568	21.408
 126	1	2	0.091945	20.8847	-42.066	22.6556
 127	1	3	-0.10563	17.2547	-47.1073	26.188
 128	1	7	-0.099376	19.1581	-47.6555	22.8184
 129	1	3	-0.043296	18.4688	-47.945	24.1838
 130	1	3	-0.073043	17.7818	-46.9178	24.8828
 131	1	3	-0.117827	17.2844	-48.3966	26.7377
 132	1	3	-0.037562	18.4461	-49.2377	24.7638
 133	1	3	-0.083705	17.8012	-49.4368	25.991
 134	1	7	0.396	20.4416	-48.5853	22.6276
 135	1	7	0.310495	18.0741	-47.963	21.7013
 136	1	8	-0.130298	21.1839	-48.6722	23.7586
 137	1	8	-0.128745	21.2794	-48.1131	21.6933
 138	1	8	-0.120019	20.1683	-49.8474	22.2083
 139	1	8	-0.104287	18.558	-47.8779	20.4478
 140	1	8	-0.095507	16.9929	-47.1314	21.7644
 141	1	8	-0.104872	17.6328	-49.2381	21.7645
 142	1	2	0.456145	17.5405	-50.6985	26.7144
 143	1	2	0.550902	16.7381	-48.9473	28.0329
 144	1	1	0.015704	16.9095	-50.3316	27.8944
 145	1	5	-0.456801	17.6746	-51.8211	26.2641
 146	1	5	-0.487703	16.2885	-48.3377	29.0064
 147	1	3	-0.116566	16.4537	-51.3063	28.842
 148	1	3	-0.050109	15.0778	-51.445	29.1687
 149	1	3	0.154929	14.6599	-52.4158	30.1061
 150	1	3	0.041555	17.399	-52.148	29.4848
 151	1	3	-0.223109	16.9554	-53.1459	30.3567
 152	1	3	-0.080449	15.6015	-53.298	30.6679
 153	1	7	-0.108008	18.9122	-52.0743	29.2704
 154	1	7	-0.182228	15.2428	-54.2864	31.7786
 155	1	7	-0.345523	14.0363	-50.5413	28.5392
 156	1	6	0.155183	18.8978	-45.5925	20.8038
 157	1	6	0.172904	20.4042	-46.2842	24.8261
 158	1	6	0.158028	21.2117	-43.9413	24.9246
 159	1	6	0.153129	16.7685	-46.2924	26.7237
 160	1	6	0.142914	17.662	-45.9399	24.4215
 161	1	6	0.135531	18.8649	-50.1042	24.2595
 162	1	6	0.17765	17.692	-53.7812	30.8452
 163	1	12	0.046541	19.4492	-52.0231	30.2278
 164	1	12	0.045238	19.2268	-51.2105	28.6807
 165	1	12	0.051941	19.2413	-52.9647	28.7187
 166	1	12	0.087961	16.0839	-54.9497	32.0261
 167	1	12	0.066782	14.4261	-54.9439	31.4597
 168	1	12	0.075908	14.9241	-53.7674	32.6947
 169	1	12	0.105172	13.0414	-50.996	28.4736
 170	1	12	0.115625	14.3053	-50.281	27.513
 171	1	12	0.140296	13.9456	-49.6029	29.1127
 172	1	1	0.463107	34.5383	-30.5976	20.4601
 173	1	2	0.061808	34.0555	-31.049	19.235
 174	1	3	0.001427	32.6258	-30.6339	19.1949
 175	1	2	0.068581	33.5446	-29.9148	21.1926
 176	1	3	0.040836	32.3166	-29.9234	20.3335
 177	1	5	-0.386232	34.6099	-31.7913	18.4441
 178	1	5	-0.391601	33.6133	-29.4726	22.3243
 179	1	3	-0.001718	31.6593	-30.8983	18.2181
 180	1	3	-0.033153	31.0004	-29.4788	20.5776
 181	1	3	-0.217995	30.0224	-29.6822	19.5636
 182	1	3	-0.067978	30.3459	-30.3483	18.3392
 183	1	6	0.155939	32.0004	-31.4165	17.3289
 184	1	6	0.152973	30.7511	-28.9687	21.507
 185	1	6	0.17647	29.0425	-29.2285	19.6976
 186	1	7	-0.111335	29.4566	-30.0885	17.0668
 187	1	7	0.291988	29.6825	-28.5363	16.7244
 188	1	8	-0.108289	29.0042	-27.6738	17.5156
 189	1	8	-0.102972	29.3315	-28.1566	15.466
 190	1	8	-0.103001	30.9905	-28.1914	16.8481
 191	1	7	0.43552	29.8955	-30.9224	15.7843
 192	1	8	-0.137748	31.101	-30.5485	15.2497
 193	1	8	-0.132227	28.9503	-30.7602	14.8182
 194	1	8	-0.124157	29.9405	-32.252	16.0685
 195	1	3	-0.009135	27.9482	-30.4915	17.3458
 196	1	3	-0.073591	27.6072	-31.6072	18.1753
 197	1	3	-0.051923	26.2562	-32.0136	18.298
 198	1	3	-0.057717	26.8619	-29.8316	16.6979
 199	1	3	-0.156758	25.5323	-30.2993	16.7255
 200	1	3	-0.020332	25.2631	-31.4109	17.5363
 201	1	2	0.469602	23.9867	-32.1152	17.7974
 202	1	1	-0.076132	24.33	-33.1717	18.6545
 203	1	2	0.458333	25.643	-33.0816	19.1279
 204	1	3	-0.008032	23.4616	-34.2895	18.9294
 205	1	3	-0.195997	22.9993	-35.1158	17.8686
 206	1	3	-0.113065	22.2848	-36.3063	18.1336
 207	1	3	0.271942	23.1516	-34.6859	20.2422
 208	1	3	-0.220579	22.3443	-35.7893	20.4881
 209	1	9	0.005883	21.9315	-36.6575	19.456
 210	1	6	0.164552	24.7567	-29.8019	16.1474
 211	1	6	0.136991	27.0731	-28.9815	16.0586
 212	1	6	0.136379	28.3891	-32.1575	18.7038
 213	1	5	-0.461381	26.2023	-33.8245	19.9253
 214	1	5	-0.471091	22.913	-31.845	17.2926
 215	1	6	0.134736	22.1852	-36.0601	21.5207
 216	1	6	0.169495	23.2768	-34.8892	16.8416
 217	1	10	-0.554106	23.784	-34.1076	21.2861
 218	1	9	-0.02772	21.2478	-37.945	19.8075
 219	1	6	0.133194	21.9976	-36.9757	17.318
 220	1	3	-0.144307	20.3959	-38.0556	20.9504
 221	1	3	0.023803	20.0024	-39.3246	21.4268
 222	1	3	0.335896	20.4675	-40.492	20.7769
 223	1	3	-0.53864	21.2487	-40.3879	19.6069
 224	1	3	-0.029171	21.6059	-39.1266	19.1188
 225	1	6	0.130758	22.2679	-39.0735	18.2585
 226	1	6	0.243773	21.5839	-41.29	19.0952
 227	1	6	0.131936	20.1133	-37.165	21.5125
 228	1	10	-0.547641	19.2412	-39.4537	22.5674
 229	1	11	0.436946	24.7389	-34.2143	21.0681
 230	1	11	0.442856	19.4057	-38.6772	23.1327
 231	1	1	0.463107	40.5632	-43.3908	17.7409
 232	1	2	0.061808	41.8208	-43.781	18.2252
 233	1	3	0.001427	42.0791	-42.8088	19.3173
 234	1	2	0.068581	39.9389	-42.418	18.531
 235	1	3	0.040836	40.968	-42.0189	19.5102
 236	1	5	-0.386232	42.6112	-44.5969	17.7637
 237	1	5	-0.391601	38.9835	-41.7165	18.2108
 238	1	3	-0.001718	43.3279	-42.4407	19.8245
 239	1	3	-0.033153	41.0138	-40.8755	20.302
 240	1	3	-0.217995	42.2553	-40.5189	20.8655
 241	1	3	-0.067978	43.4528	-41.2534	20.6056
 242	1	6	0.155939	44.1769	-43.0603	19.555
 243	1	6	0.152973	40.1335	-40.2533	20.4464
 244	1	6	0.17647	42.2519	-39.6046	21.4375
 245	1	7	-0.111335	44.8232	-40.7539	21.1741
 246	1	7	0.291988	45.0296	-41.4357	22.6026
 247	1	8	-0.108289	43.9124	-41.3586	23.3595
 248	1	8	-0.102972	45.9813	-40.8205	23.3601
 249	1	8	-0.103001	45.3095	-42.7619	22.5737
 250	1	7	0.43552	46.0279	-41.2069	20.2436
 251	1	8	-0.137748	47.1867	-40.571	20.5767
 252	1	8	-0.132227	45.7554	-40.944	18.9391
 253	1	8	-0.124157	46.3036	-42.5284	20.2614
 254	1	3	-0.009135	44.8122	-39.1667	21.2469
 255	1	3	-0.073591	44.2006	-38.4371	22.3132
 256	1	3	-0.051923	44.2036	-37.0313	22.2951
 257	1	3	-0.057717	45.4057	-38.3786	20.205
 258	1	3	-0.156758	45.3497	-36.9753	20.1595
 259	1	3	-0.020332	44.7001	-36.3303	21.2133
 260	1	2	0.469602	44.2356	-34.9151	21.3366
 261	1	1	-0.076132	43.3264	-34.8898	22.385
 262	1	2	0.458333	43.4079	-36.0847	23.1209
 263	1	3	-0.008032	42.1742	-34.0276	22.3329
 264	1	3	-0.195997	40.9363	-34.6935	22.3679
 265	1	3	-0.113065	39.7548	-33.9925	22.1684
 266	1	3	0.271942	42.2066	-32.6253	22.0873
 267	1	3	-0.220579	40.9993	-31.9182	21.9029
 268	1	9	0.005883	39.7418	-32.5949	21.9394
 269	1	6	0.164552	45.7666	-36.4113	19.3223
 270	1	6	0.136991	45.9019	-38.803	19.3494
 271	1	6	0.136379	43.65	-38.9402	23.1074
 272	1	5	-0.461381	42.7209	-36.4289	24.0662
 273	1	5	-0.471091	44.5293	-33.99	20.5976
 274	1	6	0.134736	41.0484	-30.847	21.7377
 275	1	6	0.169495	40.8788	-35.7673	22.5174
 276	1	10	-0.554106	43.3723	-31.9249	22.0193
 277	1	9	-0.02772	38.4163	-31.9281	21.7037
 278	1	6	0.133194	38.8285	-34.5588	22.1431
 279	1	3	-0.144307	38.2728	-30.8422	20.8099
 280	1	3	0.023803	36.9875	-30.4188	20.4101
 281	1	3	0.335896	35.8227	-30.9893	20.9413
 282	1	3	-0.53864	35.9394	-32.0177	21.8851
 283	1	3	-0.029171	37.215	-32.4915	22.2433
 284	1	6	0.130758	37.2722	-33.3381	22.9187
 285	1	6	0.243773	35.0336	-32.49	22.2644
 286	1	6	0.131936	39.1482	-30.4235	20.327
 287	1	10	-0.547641	36.8421	-29.3961	19.539
 288	1	11	0.436946	44.0544	-32.5167	21.6187
 289	1	11	0.442856	37.6808	-29.3343	19.0276
 290	1	3	-0.004194	40.1203	-36.0501	10.7442
 291	1	3	-0.097141	39.8161	-36.5198	9.43559
 292	1	3	-0.172015	38.7843	-35.846	8.72609
 293	1	5	-0.377994	40.3357	-34.5721	13.4849
 294	1	3	0.033493	39.4512	-34.9293	11.268
 295	1	3	-0.063739	38.0677	-34.7725	9.28519
 296	1	5	-0.398381	37.1041	-32.3372	11.0397
 297	1	3	0.032144	38.4677	-34.2923	10.5449
 298	1	2	0.032313	39.5956	-34.243	12.5778
 299	1	1	0.461698	38.6479	-33.2237	12.5486
 300	1	2	0.091945	37.9564	-33.1521	11.3557
 301	1	3	-0.10563	42.6265	-40.4457	10.5968
 302	1	7	-0.099376	40.7433	-37.5735	8.73076
 303	1	3	-0.043296	41.0553	-38.7331	9.7326
 304	1	3	-0.073043	42.3368	-39.3601	9.73346
 305	1	3	-0.117827	41.657	-40.9409	11.4856
 306	1	3	-0.037562	40.0585	-39.2665	10.6325
 307	1	3	-0.083705	40.3903	-40.3821	11.4687
 308	1	7	0.396	42.0023	-36.7129	8.18912
 309	1	7	0.310495	40.1142	-38.2727	7.45743
 310	1	8	-0.130298	42.841	-37.3148	7.29895
 311	1	8	-0.128745	42.7573	-36.2756	9.21516
 312	1	8	-0.120019	41.6834	-35.5593	7.55956
 313	1	8	-0.104287	39.927	-37.4335	6.44958
 314	1	8	-0.095507	40.945	-39.212	6.94104
 315	1	8	-0.104872	38.9104	-38.8067	7.66045
 316	1	2	0.456145	39.5717	-41.142	12.4722
 317	1	2	0.550902	41.703	-42.1117	12.4138
 318	1	1	0.015704	40.4231	-42.1452	12.9678
 319	1	5	-0.456801	38.4458	-40.8347	12.8376
 320	1	5	-0.487703	42.5128	-43.025	12.3738
 321	1	3	-0.116566	40.0917	-43.0702	14.0196
 322	1	3	-0.050109	40.426	-42.7599	15.3629
 323	1	3	0.154929	40.1124	-43.6707	16.4136
 324	1	3	0.041555	39.5451	-44.3406	13.7285
 325	1	3	-0.223109	39.3286	-45.268	14.759
 326	1	3	-0.080449	39.5372	-44.9203	16.1065
 327	1	7	-0.108008	39.2439	-44.8091	12.3054
 328	1	7	-0.182228	39.2786	-45.9924	17.1567
 329	1	7	-0.345523	41.2511	-41.4865	15.6336
 330	1	6	0.155183	40.9296	-36.4751	11.3436
 331	1	6	0.172904	38.5016	-36.1337	7.72512
 332	1	6	0.158028	37.3013	-34.2619	8.72494
 333	1	6	0.153129	43.5801	-40.9583	10.4956
 334	1	6	0.142914	43.1044	-39.0661	9.02069
 335	1	6	0.135531	39.0601	-38.8354	10.69
 336	1	6	0.17765	38.9145	-46.2379	14.5065
 337	1	12	0.046541	38.3332	-44.3406	11.9195
 338	1	12	0.045238	39.1099	-45.8943	12.2803
 339	1	12	0.051941	40.0728	-44.612	11.6248
 340	1	12	0.087961	38.3225	-46.486	16.9528
 341	1	12	0.066782	39.2366	-45.584	18.1718
 342	1	12	0.075908	40.0781	-46.7426	17.11
 343	1	12	0.105172	42.292	-41.6226	15.3127
 344	1	12	0.115625	41.2815	-41.1956	16.6908
 345	1	12	0.140296	40.8253	-40.6118	15.1195
 346	1	3	-0.004194	43.5535	-23.5277	18.5342
 347	1	3	-0.097141	42.8745	-24.0789	17.4069
 348	1	3	-0.172015	43.4824	-25.1578	16.6959
 349	1	5	-0.377994	45.6609	-22.7639	20.7898
 350	1	3	0.033493	44.8542	-23.9942	18.838
 351	1	3	-0.063739	44.7266	-25.6973	17.1024
 352	1	5	-0.398381	47.608	-26.0961	18.2933
 353	1	3	0.032144	45.4133	-25.0638	18.1475
 354	1	2	0.032313	45.8094	-23.6355	19.9373
 355	1	1	0.461698	46.9175	-24.4629	19.7894
 356	1	2	0.091945	46.7778	-25.3	18.6899
 357	1	3	-0.10563	39.789	-25.5221	13.9169
 358	1	7	-0.099376	41.508	-23.5084	16.9043
 359	1	3	-0.043296	40.7463	-24.6377	16.0665
 360	1	3	-0.073043	40.4082	-24.4911	14.6897
 361	1	3	-0.117827	39.4723	-26.7311	14.5291
 362	1	3	-0.037562	40.4255	-25.9262	16.6168
 363	1	3	-0.083705	39.7657	-26.9432	15.859
 364	1	7	0.396	41.9749	-22.2534	16.0645
 365	1	7	0.310495	40.5352	-22.9644	18.0476
 366	1	8	-0.130298	42.7158	-21.3709	16.7687
 367	1	8	-0.128745	40.9694	-21.5203	15.5648
 368	1	8	-0.120019	42.8006	-22.6087	15.0737
 369	1	8	-0.104287	39.3408	-22.5811	17.4907
 370	1	8	-0.095507	40.9896	-21.8506	18.6712
 371	1	8	-0.104872	40.2673	-23.8669	19.0181
 372	1	2	0.456145	39.3092	-28.3506	16.2002
 373	1	2	0.550902	38.8044	-27.9303	13.9728
 374	1	1	0.015704	38.8208	-28.8764	14.9904
 375	1	5	-0.456801	39.3657	-28.8484	17.314
 376	1	5	-0.487703	38.2682	-28.006	12.8869
 377	1	3	-0.116566	38.2815	-30.1933	14.78
 378	1	3	-0.050109	38.9172	-31.1382	13.9264
 379	1	3	0.154929	38.2806	-32.3801	13.6258
 380	1	3	0.041555	37.0187	-30.5041	15.3303
 381	1	3	-0.223109	36.4919	-31.7795	15.1872
 382	1	3	-0.080449	37.0924	-32.696	14.3209
 383	1	7	-0.108008	36.2089	-29.4831	16.1385
 384	1	7	-0.182228	36.3522	-33.9753	14.133
 385	1	7	-0.345523	40.2852	-30.7747	13.3467
 386	1	6	0.155183	43.1339	-22.7115	19.1255
 387	1	6	0.172904	43.0218	-25.5939	15.8144
 388	1	6	0.158028	45.1764	-26.5526	16.5859
 389	1	6	0.153129	39.5371	-25.3721	12.8604
 390	1	6	0.142914	40.6169	-23.5672	14.1809
 391	1	6	0.135531	40.6648	-26.1377	17.6585
 392	1	6	0.17765	35.5663	-32.0228	15.6941
 393	1	12	0.046541	35.9201	-28.6344	15.4959
 394	1	12	0.045238	36.7938	-29.085	16.969
 395	1	12	0.051941	35.2945	-29.9475	16.5518
 396	1	12	0.087961	35.8499	-34.2549	15.0612
 397	1	12	0.066782	37.0268	-34.8048	13.8727
 398	1	12	0.075908	35.5978	-33.8418	13.351
 399	1	12	0.105172	40.8527	-30.2263	14.1073
 400	1	12	0.115625	40.2127	-30.116	12.4665
 401	1	12	0.140296	40.9064	-31.6352	13.0842
 402	1	3	-0.004194	49.3304	-15.8257	25.2826
 403	1	3	-0.097141	50.6137	-16.117	24.725
 404	1	3	-0.172015	51.59	-16.7229	25.5657
 405	1	5	-0.377994	46.7945	-15.5034	27.0719
 406	1	3	0.033493	49.0944	-16.1307	26.6304
 407	1	3	-0.063739	51.3161	-17.0231	26.9007
 408	1	5	-0.398381	50.0153	-17.5709	29.689
 409	1	3	0.032144	50.056	-16.7323	27.4029
 410	1	2	0.032313	47.8509	-15.9858	27.4453
 411	1	1	0.461698	48.132	-16.5938	28.6645
 412	1	2	0.091945	49.4605	-17.0309	28.7397
 413	1	3	-0.10563	52.3232	-18.8281	20.9392
 414	1	7	-0.099376	50.9012	-15.9868	23.1868
 415	1	3	-0.043296	51.3149	-17.3854	22.6529
 416	1	3	-0.073043	52.1525	-17.5687	21.5214
 417	1	3	-0.117827	51.6918	-19.925	21.513
 418	1	3	-0.037562	50.7178	-18.5391	23.2208
 419	1	3	-0.083705	50.9544	-19.7964	22.6569
 420	1	7	0.396	52.0124	-14.877	22.9911
 421	1	7	0.310495	49.6295	-15.5253	22.3524
 422	1	8	-0.130298	51.6419	-13.7318	23.6175
 423	1	8	-0.128745	52.237	-14.5032	21.7131
 424	1	8	-0.120019	53.2162	-15.2431	23.4869
 425	1	8	-0.104287	49.8985	-15.4543	21.045
 426	1	8	-0.095507	49.065	-14.3541	22.7128
 427	1	8	-0.104872	48.6291	-16.4114	22.4429
 428	1	2	0.456145	50.3016	-21.1003	22.9221
 429	1	2	0.550902	51.5497	-21.3233	21.0059
 430	1	1	0.015704	50.622	-21.9349	21.8479
 431	1	5	-0.456801	49.4643	-21.2906	23.7815
 432	1	5	-0.487703	52.0974	-21.7799	20.0247
 433	1	3	-0.116566	49.9361	-23.1577	21.6364
 434	1	3	-0.050109	48.8684	-23.2098	20.7036
 435	1	3	0.154929	48.0748	-24.3954	20.6364
 436	1	3	0.041555	50.2581	-24.2946	22.421
 437	1	3	-0.223109	49.4783	-25.4518	22.3562
 438	1	3	-0.080449	48.4093	-25.5279	21.4374
 439	1	7	-0.108008	51.4605	-24.284	23.371
 440	1	7	-0.182228	47.6287	-26.8594	21.413
 441	1	7	-0.345523	48.5921	-21.9962	19.7995
 442	1	6	0.155183	48.5181	-15.3894	24.7187
 443	1	6	0.172904	52.5776	-16.9666	25.1673
 444	1	6	0.158028	52.057	-17.4772	27.5489
 445	1	6	0.153129	52.9078	-18.9488	20.0294
 446	1	6	0.142914	52.6376	-16.7243	21.0365
 447	1	6	0.135531	50.0092	-18.4677	24.0358
 448	1	6	0.17765	49.7309	-26.298	23.0102
 449	1	12	0.046541	52.3209	-23.8188	22.8711
 450	1	12	0.045238	51.7705	-25.2894	23.684
 451	1	12	0.051941	51.2616	-23.7054	24.2825
 452	1	12	0.087961	48.3189	-27.7003	21.2971
 453	1	12	0.066782	46.8534	-26.9296	20.6579
 454	1	12	0.075908	47.1331	-27.0012	22.381
 455	1	12	0.105172	48.2458	-21.131	20.3737
 456	1	12	0.115625	47.8443	-22.1922	19.0343
 457	1	12	0.140296	49.4913	-21.7178	19.2331
 458	1	1	0.463107	32.3529	-13.7216	27.9817
 459	1	2	0.061808	33.1444	-13.1625	28.9892
 460	1	3	0.001427	32.8472	-13.9386	30.2121
 461	1	2	0.068581	31.5429	-14.7656	28.4588
 462	1	3	0.040836	31.8829	-14.8768	29.9008
 463	1	5	-0.386232	33.8637	-12.1891	28.9407
 464	1	5	-0.391601	30.686	-15.3989	27.8571
 465	1	3	-0.001718	33.406	-13.8264	31.4931
 466	1	3	-0.033153	31.4432	-15.7984	30.8522
 467	1	3	-0.217995	32.0291	-15.7298	32.1415
 468	1	3	-0.067978	32.9964	-14.7416	32.4979
 469	1	6	0.155939	34.1452	-13.0525	31.6866
 470	1	6	0.152973	30.6764	-16.531	30.5874
 471	1	6	0.17647	31.6625	-16.4205	32.8897
 472	1	7	-0.111335	33.4714	-14.4998	33.9808
 473	1	7	0.291988	32.5585	-13.3159	34.5722
 474	1	8	-0.108289	32.5844	-13.2873	35.9308
 475	1	8	-0.102972	31.2546	-13.4314	34.2125
 476	1	8	-0.103001	32.933	-12.0944	34.1185
 477	1	7	0.43552	33.3297	-15.7771	34.9257
 478	1	8	-0.137748	32.0536	-15.9919	35.2978
 479	1	8	-0.132227	34.0793	-15.596	36.037
 480	1	8	-0.124157	33.7689	-16.953	34.4072
 481	1	3	-0.009135	35.0163	-14.1833	34.0037
 482	1	3	-0.073591	35.91	-14.9113	33.1792
 483	1	3	-0.051923	37.2974	-14.7585	33.3696
 484	1	3	-0.057717	35.5884	-13.3527	35.0123
 485	1	3	-0.156758	36.9808	-13.2249	35.2137
 486	1	3	-0.020332	37.8216	-13.9572	34.3637
 487	1	2	0.469602	39.2986	-14.1441	34.3429
 488	1	1	-0.076132	39.5819	-15.0562	33.3557
 489	1	2	0.458333	38.4461	-15.4598	32.6829
 490	1	3	-0.008032	40.903	-15.3904	32.9831
 491	1	3	-0.195997	41.264	-16.7354	32.809
 492	1	3	-0.113065	42.4868	-17.0453	32.1835
 493	1	3	0.271942	41.7991	-14.3717	32.6011
 494	1	3	-0.220579	43.0565	-14.6901	32.0682
 495	1	9	0.005883	43.4337	-16.0336	31.8373
 496	1	6	0.164552	37.3807	-12.5791	35.9944
 497	1	6	0.136991	34.9469	-12.8457	35.7299
 498	1	6	0.136379	35.554	-15.6225	32.4317
 499	1	5	-0.461381	38.4041	-16.1895	31.708
 500	1	5	-0.471091	40.138	-13.5583	34.9936
 501	1	6	0.134736	43.7365	-13.8867	31.807
 502	1	6	0.169495	40.5634	-17.5246	33.0803
 503	1	10	-0.554106	41.5216	-13.0481	32.7928
 504	1	9	-0.02772	44.7852	-16.3648	31.253
 505	1	6	0.133194	42.728	-18.0893	32.0274
 506	1	3	-0.144307	44.9328	-17.4419	30.3437
 507	1	3	0.023803	46.107	-17.632	29.6013
 508	1	3	0.335896	47.1711	-16.6992	29.7158
 509	1	3	-0.53864	47.1168	-15.7266	30.7442
 510	1	3	-0.029171	45.9181	-15.5416	31.4652
 511	1	6	0.130758	45.848	-14.704	32.1529
 512	1	6	0.243773	47.9077	-14.9843	30.8248
 513	1	6	0.131936	44.0917	-18.1081	30.1809
 514	1	10	-0.547641	46.0893	-18.6945	28.7339
 515	1	11	0.436946	41.1051	-12.9606	33.6847
 516	1	11	0.442856	45.3115	-19.237	28.9359
 517	1	1	0.463107	24.9645	-17.9944	14.3802
 518	1	2	0.061808	24.5674	-16.8301	13.7118
 519	1	3	0.001427	25.8059	-16.0854	13.4176
 520	1	2	0.068581	26.3407	-18.1188	14.4328
 521	1	3	0.040836	26.8683	-16.8736	13.8223
 522	1	5	-0.386232	23.4249	-16.4417	13.5485
 523	1	5	-0.391601	26.9872	-18.968	15.0138
 524	1	3	-0.001718	25.9669	-14.7834	12.9196
 525	1	3	-0.033153	28.1754	-16.4174	13.6835
 526	1	3	-0.217995	28.3845	-15.0897	13.2404
 527	1	3	-0.067978	27.2804	-14.2356	12.9507
 528	1	6	0.155939	25.0738	-14.2002	12.7189
 529	1	6	0.152973	29.0081	-17.0459	14.0017
 530	1	6	0.17647	29.4003	-14.6931	13.2321
 531	1	7	-0.111335	27.5212	-12.724	12.772
 532	1	7	0.291988	28.0452	-12.5223	11.2966
 533	1	8	-0.108289	27.3066	-13.2002	10.3801
 534	1	8	-0.102972	29.3109	-12.9546	11.1069
 535	1	8	-0.103001	27.9708	-11.2288	10.9208
 536	1	7	0.43552	26.1929	-11.8543	12.9864
 537	1	8	-0.137748	26.4803	-10.5586	13.1596
 538	1	8	-0.132227	25.4963	-12.2303	14.106
 539	1	8	-0.124157	25.2938	-11.8942	11.9634
 540	1	3	-0.009135	28.5339	-12.2844	13.8746
 541	1	3	-0.073591	28.28	-12.6823	15.2118
 542	1	3	-0.051923	29.0809	-12.2391	16.2631
 543	1	3	-0.057717	29.6764	-11.4695	13.6429
 544	1	3	-0.156758	30.4683	-11.0058	14.73
 545	1	3	-0.020332	30.1139	-11.3643	16.0357
 546	1	2	0.469602	30.7723	-11.0832	17.353
 547	1	1	-0.076132	30.1155	-11.8622	18.3006
 548	1	2	0.458333	29.0741	-12.5865	17.7261
 549	1	3	-0.008032	30.5853	-12.0183	19.641
 550	1	3	-0.195997	29.8613	-11.4567	20.71
 551	1	3	-0.113065	30.2988	-11.6242	22.0359
 552	1	3	0.271942	31.7219	-12.8103	19.9165
 553	1	3	-0.220579	32.1196	-13.0148	21.2556
 554	1	9	0.005883	31.4207	-12.4364	22.3565
 555	1	6	0.164552	31.3178	-10.3496	14.5649
 556	1	6	0.136991	29.9067	-11.1226	12.6432
 557	1	6	0.136379	27.461	-13.3532	15.4472
 558	1	5	-0.461381	28.347	-13.4038	18.2566
 559	1	5	-0.471091	31.7305	-10.3544	17.5459
 560	1	6	0.134736	32.965	-13.6696	21.4513
 561	1	6	0.169495	28.9767	-10.8614	20.5162
 562	1	10	-0.554106	32.438	-13.4295	18.9085
 563	1	9	-0.02772	31.7976	-12.6956	23.8056
 564	1	6	0.133194	29.7217	-11.1502	22.8271
 565	1	3	-0.144307	32.4278	-13.8946	24.2145
 566	1	3	0.023803	32.7083	-14.1521	25.5706
 567	1	3	0.335896	32.2756	-13.2855	26.6086
 568	1	3	-0.53864	31.6667	-12.0687	26.2078
 569	1	3	-0.029171	31.4612	-11.7792	24.8419
 570	1	6	0.130758	31.0012	-10.8217	24.5909
 571	1	6	0.243773	31.354	-11.3557	26.9705
 572	1	6	0.131936	32.7338	-14.63	23.4679
 573	1	10	-0.547641	33.4511	-15.2754	25.8216
 574	1	11	0.436946	33.1509	-13.9416	19.3178
 575	1	11	0.442856	33.4664	-15.859	25.0374
 576	1	3	-0.004194	17.0296	-16.1391	21.0608
 577	1	3	-0.097141	17.5915	-14.9218	21.5564
 578	1	3	-0.172015	17.0515	-13.6752	21.127
 579	1	5	-0.377994	15.564	-18.301	19.5061
 580	1	3	0.033493	16.007	-16.0484	20.1076
 581	1	3	-0.063739	16.0397	-13.6173	20.1375
 582	1	5	-0.398381	14.1975	-14.2123	17.7479
 583	1	3	0.032144	15.6018	-14.8285	19.5917
 584	1	2	0.032313	15.3978	-17.1197	19.3144
 585	1	1	0.461698	14.6599	-16.4748	18.334
 586	1	2	0.091945	14.7327	-15.077	18.4251
 587	1	3	-0.10563	21.6239	-17.7421	21.9365
 588	1	7	-0.099376	18.8617	-15.0235	22.4479
 589	1	3	-0.043296	19.8358	-16.0458	21.7758
 590	1	3	-0.073043	20.7002	-16.8649	22.5522
 591	1	3	-0.117827	21.6651	-17.8245	20.5444
 592	1	3	-0.037562	19.9327	-16.1393	20.3652
 593	1	3	-0.083705	20.8099	-17.0604	19.7799
 594	1	7	0.396	19.6636	-13.6664	22.6109
 595	1	7	0.310495	18.3807	-15.4542	23.8801
 596	1	8	-0.130298	18.9477	-12.7796	23.325
 597	1	8	-0.128745	19.9569	-13.067	21.4367
 598	1	8	-0.120019	20.883	-13.8112	23.1971
 599	1	8	-0.104287	17.9774	-16.7323	23.9051
 600	1	8	-0.095507	17.3228	-14.7382	24.2757
 601	1	8	-0.104872	19.3283	-15.3161	24.8307
 602	1	2	0.456145	21.131	-17.3393	18.3448
 603	1	2	0.550902	22.4912	-18.6842	19.6485
 604	1	1	0.015704	22.1188	-18.3352	18.3619
 605	1	5	-0.456801	20.6052	-16.8807	17.3419
 606	1	5	-0.487703	23.2996	-19.539	19.9836
 607	1	3	-0.116566	22.6806	-18.9408	17.1955
 608	1	3	-0.050109	23.5318	-18.1905	16.3473
 609	1	3	0.154929	24.0609	-18.7719	15.1712
 610	1	3	0.041555	22.3325	-20.2674	16.8786
 611	1	3	-0.223109	22.9676	-20.8751	15.7822
 612	1	3	-0.080449	23.8412	-20.1551	14.9387
 613	1	7	-0.108008	21.4177	-21.102	17.7813
 614	1	7	-0.182228	24.5894	-20.9556	13.8716
 615	1	7	-0.345523	23.9366	-16.7769	16.7636
 616	1	6	0.155183	17.4302	-17.113	21.3395
 617	1	6	0.172904	17.4521	-12.7283	21.4848
 618	1	6	0.158028	15.6886	-12.6662	19.7516
 619	1	6	0.153129	22.3476	-18.2976	22.5346
 620	1	6	0.142914	20.7211	-16.7974	23.6398
 621	1	6	0.135531	19.3281	-15.4997	19.7149
 622	1	6	0.17765	22.7813	-21.9369	15.598
 623	1	12	0.046541	20.6104	-20.5195	18.2493
 624	1	12	0.045238	22.0084	-21.5858	18.566
 625	1	12	0.051941	20.9266	-21.8986	17.1911
 626	1	12	0.087961	25.3795	-21.5655	14.3402
 627	1	12	0.066782	25.0899	-20.3438	13.0987
 628	1	12	0.075908	23.9082	-21.6273	13.3577
 629	1	12	0.105172	23.8631	-16.6069	17.8455
 630	1	12	0.115625	23.3087	-16.0228	16.2765
 631	1	12	0.140296	24.9941	-16.5591	16.5549
 632	1	1	0.463107	1.01271	-18.1978	12.005
 633	1	2	0.061808	0.976392	-18.6517	10.6618
 634	1	3	0.001427	1.96853	-19.7712	10.5872
 635	1	2	0.068581	1.82328	-19.0079	12.8075
 636	1	3	0.040836	2.38645	-20.0242	11.8723
 637	1	5	-0.386232	0.213522	-18.3113	9.77045
 638	1	5	-0.391601	2.17832	-18.8171	13.9628