

################################################################################
##################################    Init    ##################################
################################################################################
units           real
atom_style      full
pair_style      lj/cut/coul/long 12.0  12.0
kspace_style    pppm 1e-4
bond_style      harmonic
angle_style     harmonic
dihedral_style  fourier
improper_style  cvff
special_bonds   amber
pair_modify     mix arithmetic
read_data       temp.lmps
  orthogonal box = (-105.057 -105.057 -105.057) to (105.057 105.057 105.057)
  2 by 2 by 4 MPI processor grid
  reading atoms ...
  572 atoms
  reading velocities ...
  572 velocities
  scanning bonds ...
  3 = max bonds/atom
  scanning angles ...
  6 = max angles/atom
  scanning dihedrals ...
  24 = max dihedrals/atom
  scanning impropers ...
  2 = max impropers/atom
  reading bonds ...
  625 bonds
  reading angles ...
  1084 angles
  reading dihedrals ...
  1644 dihedrals
  reading impropers ...
  168 impropers
  4 = max # of 1-2 neighbors
  10 = max # of 1-3 neighbors
  20 = max # of 1-4 neighbors
  22 = max # of special neighbors
  special bonds CPU = 0.000874043 secs
  read_data CPU = 0.158558 secs
################################################################################

min_style cg
minimize 1e-05 1e-05 10000 100000
WARNING: Using 'neigh_modify every 1 delay 0 check yes' setting during minimization (../min.cpp:190)
PPPM initialization ...
  using 12-bit tables for long-range coulomb (../kspace.cpp:332)
  G vector (1/distance) = 0.0953884
  grid = 18 18 18
  stencil order = 5
  estimated absolute RMS force accuracy = 0.029633
  estimated relative force accuracy = 8.9239e-05
  using double precision KISS FFT
  3d grid and FFT values/proc = 1960 648
Neighbor list info ...
  update every 1 steps, delay 0 steps, check yes
  max neighbors/atom: 2000, page size: 100000
  master list distance cutoff = 14
  ghost atom cutoff = 14
  binsize = 7, bins = 31 31 31
  1 neighbor lists, perpetual/occasional/extra = 1 0 0
  (1) pair lj/cut/coul/long, perpetual
      attributes: half, newton on
      pair build: half/bin/newton
      stencil: half/bin/3d/newton
      bin: standard
Per MPI rank memory allocation (min/avg/max) = 18.84 | 19.16 | 19.65 Mbytes
Step Temp E_pair E_mol TotEng Press 
       0    2081.4818    212.56348    726.57966    4481.9136    17.278559 
      17    2081.4818    212.13169    710.05075    4464.9529    17.986385 
Loop time of 0.204166 on 16 procs for 17 steps with 572 atoms

87.8% CPU use with 16 MPI tasks x no OpenMP threads

Minimization stats:
  Stopping criterion = linesearch alpha is zero
  Energy initial, next-to-last, final = 
         939.143145218      922.182449045      922.182449045
  Force two-norm initial, final = 61.138 39.4678
  Force max component initial, final = 6.89097 4.58222
  Final line search alpha, max atom move = 4.91047e-12 2.25009e-11
  Iterations, force evaluations = 17 93

MPI task timing breakdown:
Section |  min time  |  avg time  |  max time  |%varavg| %total
---------------------------------------------------------------
Pair    | 3.0518e-05 | 0.014878   | 0.051461   |  13.7 |  7.29
Bond    | 0.00010705 | 0.0027634  | 0.0076449  |   5.4 |  1.35
Kspace  | 0.12765    | 0.16376    | 0.19348    |   5.4 | 80.21
Neigh   | 0          | 0          | 0          |   0.0 |  0.00
Comm    | 8.5115e-05 | 0.0071951  | 0.022755   |  10.4 |  3.52
Output  | 0          | 0          | 0          |   0.0 |  0.00
Modify  | 0          | 0          | 0          |   0.0 |  0.00
Other   |            | 0.01557    |            |       |  7.63

Nlocal:    35.75 ave 99 max 0 min
Histogram: 8 0 0 0 2 1 1 1 1 2
Nghost:    196.25 ave 453 max 0 min
Histogram: 8 0 0 0 0 0 0 2 3 3
Neighs:    2278.44 ave 8315 max 0 min
Histogram: 8 0 1 2 2 0 1 1 0 1

Total # of neighbors = 36455
Ave neighs/atom = 63.7325
Ave special neighs/atom = 11.0175
Neighbor list builds = 0
Dangerous builds = 0


################################################################################
##################################    Init    ##################################
################################################################################
units           real
atom_style      full
pair_style      lj/cut/coul/long 12.0  12.0
kspace_style    pppm 1e-4
bond_style      harmonic
angle_style     harmonic
dihedral_style  fourier
improper_style  cvff
special_bonds   amber
pair_modify     mix arithmetic
read_data       temp.lmps
  orthogonal box = (-105.057 -105.057 -105.057) to (105.057 105.057 105.057)
  2 by 2 by 4 MPI processor grid
  reading atoms ...
  566 atoms
  reading velocities ...
  566 velocities
  scanning bonds ...
  3 = max bonds/atom
  scanning angles ...
  6 = max angles/atom
  scanning dihedrals ...
  24 = max dihedrals/atom
  scanning impropers ...
  2 = max impropers/atom
  reading bonds ...
  617 bonds
  reading angles ...
  1080 angles
  reading dihedrals ...
  1616 dihedrals
  reading impropers ...
  164 impropers
  4 = max # of 1-2 neighbors
  10 = max # of 1-3 neighbors
  20 = max # of 1-4 neighbors
  22 = max # of special neighbors
  special bonds CPU = 0.000785112 secs
  read_data CPU = 0.019161 secs
################################################################################

min_style cg
minimize 1e-05 1e-05 10000 100000
WARNING: Using 'neigh_modify every 1 delay 0 check yes' setting during minimization (../min.cpp:190)
PPPM initialization ...
  using 12-bit tables for long-range coulomb (../kspace.cpp:332)
  G vector (1/distance) = 0.0873707
  grid = 16 16 16
  stencil order = 5
  estimated absolute RMS force accuracy = 0.0334438
  estimated relative force accuracy = 0.000100715
  using double precision KISS FFT
  3d grid and FFT values/proc = 1521 256
Neighbor list info ...
  update every 1 steps, delay 0 steps, check yes
  max neighbors/atom: 2000, page size: 100000
  master list distance cutoff = 14
  ghost atom cutoff = 14
  binsize = 7, bins = 31 31 31
  1 neighbor lists, perpetual/occasional/extra = 1 0 0
  (1) pair lj/cut/coul/long, perpetual
      attributes: half, newton on
      pair build: half/bin/newton
      stencil: half/bin/3d/newton
      bin: standard
Per MPI rank memory allocation (min/avg/max) = 18.81 | 19.11 | 19.61 Mbytes
Step Temp E_pair E_mol TotEng Press 
       0    1989.3179    208.77144    711.21702    4270.3135    16.649527 
      30    1989.3179    195.77106    676.93746    4223.0336    17.455086 
Loop time of 0.158515 on 16 procs for 30 steps with 566 atoms

95.3% CPU use with 16 MPI tasks x no OpenMP threads

Minimization stats:
  Stopping criterion = linesearch alpha is zero
  Energy initial, next-to-last, final = 
         919.988460276      872.708518627      872.708518627
  Force two-norm initial, final = 62.0066 43.5685
  Force max component initial, final = 9.8259 8.07882
  Final line search alpha, max atom move = 3.41626e-12 2.75993e-11
  Iterations, force evaluations = 30 119

MPI task timing breakdown:
Section |  min time  |  avg time  |  max time  |%varavg| %total
---------------------------------------------------------------
Pair    | 2.0027e-05 | 0.021951   | 0.08998    |  20.1 | 13.85
Bond    | 5.0068e-05 | 0.0042184  | 0.015052   |   7.7 |  2.66
Kspace  | 0.051942   | 0.12773    | 0.15476    |   9.9 | 80.58
Neigh   | 0          | 0          | 0          |   0.0 |  0.00
Comm    | 4.1246e-05 | 0.0018575  | 0.004118   |   4.2 |  1.17
Output  | 0          | 0          | 0          |   0.0 |  0.00
Modify  | 0          | 0          | 0          |   0.0 |  0.00
Other   |            | 0.002762   |            |       |  1.74

Nlocal:    35.375 ave 129 max 0 min
Histogram: 8 1 1 0 1 1 2 1 0 1
Nghost:    186.375 ave 431 max 0 min
Histogram: 8 0 0 0 0 0 0 1 5 2
Neighs:    2403.88 ave 10148 max 0 min
Histogram: 10 0 0 2 1 0 0 2 0 1

Total # of neighbors = 38462
Ave neighs/atom = 67.9541
Ave special neighs/atom = 11.0141
Neighbor list builds = 0
Dangerous builds = 0
timestep        1
fix             pysimm_md all nvt temp 300 300 100
run             5000
PPPM initialization ...
  using 12-bit tables for long-range coulomb (../kspace.cpp:332)
  G vector (1/distance) = 0.0873707
  grid = 16 16 16
  stencil order = 5
  estimated absolute RMS force accuracy = 0.0334438
  estimated relative force accuracy = 0.000100715
  using double precision KISS FFT
  3d grid and FFT values/proc = 1521 256
Per MPI rank memory allocation (min/avg/max) = 17.68 | 17.98 | 18.49 Mbytes
Step Temp E_pair E_mol TotEng Press 
      30    1989.3179    195.77106    676.93746    4223.0336    17.455086 
    5030    310.16319    217.53719    1044.5642    1784.4651  -0.51225275 
Loop time of 3.32753 on 16 procs for 5000 steps with 566 atoms

Performance: 129.826 ns/day, 0.185 hours/ns, 1502.617 timesteps/s
95.2% CPU use with 16 MPI tasks x no OpenMP threads

MPI task timing breakdown:
Section |  min time  |  avg time  |  max time  |%varavg| %total
---------------------------------------------------------------
Pair    | 0.00047445 | 0.29717    | 1.464      |  77.5 |  8.93
Bond    | 0.00091195 | 0.087606   | 0.32236    |  37.7 |  2.63
Kspace  | 1.318      | 2.5339     | 2.8689     |  28.4 | 76.15
Neigh   | 0.068482   | 0.071345   | 0.073516   |   0.6 |  2.14
Comm    | 0.0076897  | 0.12283    | 0.36211    |  37.3 |  3.69
Output  | 2.2888e-05 | 2.3931e-05 | 3.0994e-05 |   0.0 |  0.00
Modify  | 0.029992   | 0.19897    | 0.36789    |  36.8 |  5.98
Other   |            | 0.01569    |            |       |  0.47

Nlocal:    35.375 ave 136 max 0 min
Histogram: 9 1 0 2 1 0 0 1 0 2
Nghost:    152.625 ave 446 max 0 min
Histogram: 8 0 0 0 0 2 4 1 0 1
Neighs:    1910.94 ave 8854 max 0 min
Histogram: 10 0 1 1 2 0 0 0 0 2

Total # of neighbors = 30575
Ave neighs/atom = 54.0194
Ave special neighs/atom = 11.0141
Neighbor list builds = 158
Dangerous builds = 0
unfix pysimm_md
write_dump all custom pysimm.dump.tmp id q x y z vx vy vz
quit


################################################################################
##################################    Init    ##################################
################################################################################
units           real
atom_style      full
pair_style      lj/cut/coul/long 12.0  12.0
kspace_style    pppm 1e-4
bond_style      harmonic
angle_style     harmonic
dihedral_style  fourier
improper_style  cvff
special_bonds   amber
pair_modify     mix arithmetic
read_data       temp.lmps
  orthogonal box = (-108.449 -108.449 -108.449) to (108.449 108.449 108.449)
  2 by 2 by 4 MPI processor grid
  reading atoms ...
  631 atoms
  reading velocities ...
  631 velocities
  scanning bonds ...
  3 = max bonds/atom
  scanning angles ...
  6 = max angles/atom
  scanning dihedrals ...
  24 = max dihedrals/atom
  scanning impropers ...
  2 = max impropers/atom
  reading bonds ...
  690 bonds
  reading angles ...
  1194 angles
  reading dihedrals ...
  1818 dihedrals
  reading impropers ...
  186 impropers
  4 = max # of 1-2 neighbors
  10 = max # of 1-3 neighbors
  20 = max # of 1-4 neighbors
  22 = max # of special neighbors
  special bonds CPU = 0.000954151 secs
  read_data CPU = 0.0207078 secs
################################################################################

min_style cg
minimize 1e-05 1e-05 10000 100000
WARNING: Using 'neigh_modify every 1 delay 0 check yes' setting during minimization (../min.cpp:190)
PPPM initialization ...
  using 12-bit tables for long-range coulomb (../kspace.cpp:332)
  G vector (1/distance) = 0.0931861
  grid = 18 18 18
  stencil order = 5
  estimated absolute RMS force accuracy = 0.0321919
  estimated relative force accuracy = 9.6945e-05
  using double precision KISS FFT
  3d grid and FFT values/proc = 1960 648
Neighbor list info ...
  update every 1 steps, delay 0 steps, check yes
  max neighbors/atom: 2000, page size: 100000
  master list distance cutoff = 14
  ghost atom cutoff = 14
  binsize = 7, bins = 31 31 31
  1 neighbor lists, perpetual/occasional/extra = 1 0 0
  (1) pair lj/cut/coul/long, perpetual
      attributes: half, newton on
      pair build: half/bin/newton
      stencil: half/bin/3d/newton
      bin: standard
Per MPI rank memory allocation (min/avg/max) = 18.84 | 19.06 | 19.64 Mbytes
Step Temp E_pair E_mol TotEng Press 
       0    1487.7511    232.25201    777.73161    3803.8468    11.903306 
      32    1487.7511    227.44041    747.95118    3769.2548     12.49453 
Loop time of 0.219849 on 16 procs for 32 steps with 631 atoms

94.9% CPU use with 16 MPI tasks x no OpenMP threads

Minimization stats:
  Stopping criterion = linesearch alpha is zero
  Energy initial, next-to-last, final = 
         1009.98361458      975.391583026      975.391583026
  Force two-norm initial, final = 61.5726 39.9789
  Force max component initial, final = 7.3091 6.61958
  Final line search alpha, max atom move = 6.62572e-12 4.38595e-11
  Iterations, force evaluations = 32 121

MPI task timing breakdown:
Section |  min time  |  avg time  |  max time  |%varavg| %total
---------------------------------------------------------------
Pair    | 2.0981e-05 | 0.018675   | 0.10111    |  23.5 |  8.49
Bond    | 6.5088e-05 | 0.0048147  | 0.024915   |  11.7 |  2.19
Kspace  | 0.088621   | 0.19192    | 0.21607    |   9.3 | 87.30
Neigh   | 0          | 0          | 0          |   0.0 |  0.00
Comm    | 6.6996e-05 | 0.0015258  | 0.0032926  |   3.7 |  0.69
Output  | 0          | 0          | 0          |   0.0 |  0.00
Modify  | 0          | 0          | 0          |   0.0 |  0.00
Other   |            | 0.002916   |            |       |  1.33

Nlocal:    39.4375 ave 218 max 0 min
Histogram: 10 1 3 0 0 0 0 0 0 2
Nghost:    123.562 ave 317 max 0 min
Histogram: 8 0 0 0 1 0 0 4 0 3
Neighs:    1829.94 ave 9815 max 0 min
Histogram: 10 2 0 2 0 0 0 0 0 2

Total # of neighbors = 29279
Ave neighs/atom = 46.401
Ave special neighs/atom = 11.0238
Neighbor list builds = 0
Dangerous builds = 0
timestep        1
fix             pysimm_md all nvt temp 300 300 100
run             5000
PPPM initialization ...
  using 12-bit tables for long-range coulomb (../kspace.cpp:332)
  G vector (1/distance) = 0.0931861
  grid = 18 18 18
  stencil order = 5
  estimated absolute RMS force accuracy = 0.0321919
  estimated relative force accuracy = 9.6945e-05
  using double precision KISS FFT
  3d grid and FFT values/proc = 1960 648
Per MPI rank memory allocation (min/avg/max) = 17.71 | 17.93 | 18.51 Mbytes
Step Temp E_pair E_mol TotEng Press 
      32    1487.7511    227.44041    747.95118    3769.2548     12.49453 
    5032    290.45059    250.45195    1150.0081    1945.9003   0.53524662 
Loop time of 4.17958 on 16 procs for 5000 steps with 631 atoms

Performance: 103.360 ns/day, 0.232 hours/ns, 1196.292 timesteps/s
94.9% CPU use with 16 MPI tasks x no OpenMP threads

MPI task timing breakdown:
Section |  min time  |  avg time  |  max time  |%varavg| %total
---------------------------------------------------------------
Pair    | 0.00049949 | 0.25675    | 1.5023     |  89.0 |  6.14
Bond    | 0.00099182 | 0.089709   | 0.5119     |  53.1 |  2.15
Kspace  | 1.9536     | 3.2834     | 3.5867     |  26.8 | 78.56
Neigh   | 0.074077   | 0.076482   | 0.078658   |   0.5 |  1.83
Comm    | 0.0061803  | 0.18592    | 0.52933    |  49.1 |  4.45
Output  | 2.408e-05  | 2.4632e-05 | 3.1948e-05 |   0.0 |  0.00
Modify  | 0.032282   | 0.26991    | 0.50646    |  43.9 |  6.46
Other   |            | 0.01741    |            |       |  0.42

Nlocal:    39.4375 ave 229 max 0 min
Histogram: 10 2 2 0 0 0 0 0 0 2
Nghost:    129.688 ave 340 max 0 min
Histogram: 8 0 0 0 1 0 3 0 0 4
Neighs:    2267.88 ave 13307 max 0 min
Histogram: 10 2 2 0 0 0 0 0 1 1

Total # of neighbors = 36286
Ave neighs/atom = 57.5055
Ave special neighs/atom = 11.0238
Neighbor list builds = 171
Dangerous builds = 0
unfix pysimm_md
write_dump all custom pysimm.dump.tmp id q x y z vx vy vz
quit


################################################################################
##################################    Init    ##################################
################################################################################
units           real
atom_style      full
pair_style      lj/cut/coul/long 12.0  12.0
kspace_style    pppm 1e-4
bond_style      harmonic
angle_style     harmonic
dihedral_style  fourier
improper_style  cvff
special_bonds   amber
pair_modify     mix arithmetic
read_data       temp.lmps
  orthogonal box = (-111.64 -111.64 -111.64) to (111.64 111.64 111.64)
  2 by 2 by 4 MPI processor grid
  reading atoms ...
  690 atoms
  reading velocities ...
  690 velocities
  scanning bonds ...
  3 = max bonds/atom
  scanning angles ...
  6 = max angles/atom
  scanning dihedrals ...
  24 = max dihedrals/atom
  scanning impropers ...
  2 = max impropers/atom
  reading bonds ...
  755 bonds
  reading angles ...
  1304 angles
  reading dihedrals ...
  1992 dihedrals
  reading impropers ...
  204 impropers
  4 = max # of 1-2 neighbors
  10 = max # of 1-3 neighbors
  20 = max # of 1-4 neighbors
  22 = max # of special neighbors
  special bonds CPU = 0.000913143 secs
  read_data CPU = 0.0203419 secs
################################################################################

min_style cg
minimize 1e-05 1e-05 10000 100000
WARNING: Using 'neigh_modify every 1 delay 0 check yes' setting during minimization (../min.cpp:190)
PPPM initialization ...
  using 12-bit tables for long-range coulomb (../kspace.cpp:332)
  G vector (1/distance) = 0.0912007
  grid = 18 18 18
  stencil order = 5
  estimated absolute RMS force accuracy = 0.0345772
  estimated relative force accuracy = 0.000104128
  using double precision KISS FFT
  3d grid and FFT values/proc = 1960 648
Neighbor list info ...
  update every 1 steps, delay 0 steps, check yes
  max neighbors/atom: 2000, page size: 100000
  master list distance cutoff = 14
  ghost atom cutoff = 14
  binsize = 7, bins = 32 32 32
  1 neighbor lists, perpetual/occasional/extra = 1 0 0
  (1) pair lj/cut/coul/long, perpetual
      attributes: half, newton on
      pair build: half/bin/newton
      stencil: half/bin/3d/newton
      bin: standard
Per MPI rank memory allocation (min/avg/max) = 18.84 | 19.12 | 19.65 Mbytes
Step Temp E_pair E_mol TotEng Press 
       0     2136.944    229.94095    897.01618    5515.7659    17.774103 
      14     2136.944    227.52698    878.20832    5494.5441    18.682212 
Loop time of 0.148939 on 16 procs for 14 steps with 690 atoms

93.1% CPU use with 16 MPI tasks x no OpenMP threads

Minimization stats:
  Stopping criterion = linesearch alpha is zero
  Energy initial, next-to-last, final = 
         1126.95712578        1105.735298        1105.735298
  Force two-norm initial, final = 68.5445 45.4914
  Force max component initial, final = 9.02611 4.69393
  Final line search alpha, max atom move = 4.12747e-12 1.93741e-11
  Iterations, force evaluations = 14 87

MPI task timing breakdown:
Section |  min time  |  avg time  |  max time  |%varavg| %total
---------------------------------------------------------------
Pair    | 1.502e-05  | 0.018357   | 0.07057    |  17.1 | 12.33
Bond    | 2.408e-05  | 0.0037287  | 0.014655   |   7.9 |  2.50
Kspace  | 0.05985    | 0.12375    | 0.14637    |   8.0 | 83.09
Neigh   | 0          | 0          | 0          |   0.0 |  0.00
Comm    | 3.9577e-05 | 0.001113   | 0.0025992  |   3.2 |  0.75
Output  | 0          | 0          | 0          |   0.0 |  0.00
Modify  | 0          | 0          | 0          |   0.0 |  0.00
Other   |            | 0.001987   |            |       |  1.33

Nlocal:    43.125 ave 165 max 0 min
Histogram: 9 0 0 2 1 1 1 0 1 1
Nghost:    119.125 ave 396 max 0 min
Histogram: 8 0 0 1 2 1 2 1 0 1
Neighs:    2753.81 ave 9750 max 0 min
Histogram: 9 0 1 0 1 0 2 2 0 1

Total # of neighbors = 44061
Ave neighs/atom = 63.8565
Ave special neighs/atom = 11.029
Neighbor list builds = 0
Dangerous builds = 0
timestep        1
fix             pysimm_md all nvt temp 300 300 100
run             5000
PPPM initialization ...
  using 12-bit tables for long-range coulomb (../kspace.cpp:332)
  G vector (1/distance) = 0.0912007
  grid = 18 18 18
  stencil order = 5
  estimated absolute RMS force accuracy = 0.0345772
  estimated relative force accuracy = 0.000104128
  using double precision KISS FFT
  3d grid and FFT values/proc = 1960 648
Per MPI rank memory allocation (min/avg/max) = 17.72 | 18 | 18.52 Mbytes
Step Temp E_pair E_mol TotEng Press 
      14     2136.944    227.52698    878.20832    5494.5441    18.682212 
    5014    307.15944    234.14515    1196.8333    2061.8158    0.4088773 
Loop time of 3.77561 on 16 procs for 5000 steps with 690 atoms

Performance: 114.419 ns/day, 0.210 hours/ns, 1324.290 timesteps/s
94.4% CPU use with 16 MPI tasks x no OpenMP threads

MPI task timing breakdown:
Section |  min time  |  avg time  |  max time  |%varavg| %total
---------------------------------------------------------------
Pair    | 0.00049329 | 0.35581    | 1.3054     |  73.3 |  9.42
Bond    | 0.00084043 | 0.10349    | 0.37582    |  39.1 |  2.74
Kspace  | 1.87       | 2.8741     | 3.2835     |  28.1 | 76.12
Neigh   | 0.07296    | 0.077395   | 0.081015   |   0.9 |  2.05
Comm    | 0.0059357  | 0.12704    | 0.39659    |  38.4 |  3.36
Output  | 2.2888e-05 | 2.3752e-05 | 3.3855e-05 |   0.0 |  0.00
Modify  | 0.031706   | 0.22375    | 0.40829    |  37.5 |  5.93
Other   |            | 0.01398    |            |       |  0.37

Nlocal:    43.125 ave 163 max 0 min
Histogram: 9 1 0 0 1 2 1 1 0 1
Nghost:    119.562 ave 374 max 0 min
Histogram: 8 0 0 2 0 2 1 1 1 1
Neighs:    2689.5 ave 10795 max 0 min
Histogram: 9 0 0 3 1 1 0 0 0 2

Total # of neighbors = 43032
Ave neighs/atom = 62.3652
Ave special neighs/atom = 11.029
Neighbor list builds = 177
Dangerous builds = 0
unfix pysimm_md
write_dump all custom pysimm.dump.tmp id q x y z vx vy vz
quit


################################################################################
##################################    Init    ##################################
################################################################################
units           real
atom_style      full
pair_style      lj/cut/coul/long 12.0  12.0
kspace_style    pppm 1e-4
bond_style      harmonic
angle_style     harmonic
dihedral_style  fourier
improper_style  cvff
special_bonds   amber
pair_modify     mix arithmetic
read_data       temp.lmps
  orthogonal box = (-119.01 -119.01 -119.01) to (119.01 119.01 119.01)
  2 by 2 by 4 MPI processor grid
  reading atoms ...
  746 atoms
  reading velocities ...
  746 velocities
  scanning bonds ...
  3 = max bonds/atom
  scanning angles ...
  6 = max angles/atom
  scanning dihedrals ...
  24 = max dihedrals/atom
  scanning impropers ...
  2 = max impropers/atom
  reading bonds ...
  816 bonds
  reading angles ...
  1412 angles
  reading dihedrals ...
  2152 dihedrals
  reading impropers ...
  220 impropers
  4 = max # of 1-2 neighbors
  10 = max # of 1-3 neighbors
  20 = max # of 1-4 neighbors
  22 = max # of special neighbors
  special bonds CPU = 0.00143099 secs
  read_data CPU = 0.023212 secs
################################################################################

min_style cg
minimize 1e-05 1e-05 10000 100000
WARNING: Using 'neigh_modify every 1 delay 0 check yes' setting during minimization (../min.cpp:190)
PPPM initialization ...
  using 12-bit tables for long-range coulomb (../kspace.cpp:332)
  G vector (1/distance) = 0.0869117
  grid = 18 18 18
  stencil order = 5
  estimated absolute RMS force accuracy = 0.0359264
  estimated relative force accuracy = 0.000108191
  using double precision KISS FFT
  3d grid and FFT values/proc = 1960 648
Neighbor list info ...
  update every 1 steps, delay 0 steps, check yes
  max neighbors/atom: 2000, page size: 100000
  master list distance cutoff = 14
  ghost atom cutoff = 14
  binsize = 7, bins = 35 35 35
  1 neighbor lists, perpetual/occasional/extra = 1 0 0
  (1) pair lj/cut/coul/long, perpetual
      attributes: half, newton on
      pair build: half/bin/newton
      stencil: half/bin/3d/newton
      bin: standard
Per MPI rank memory allocation (min/avg/max) = 18.85 | 19.14 | 19.63 Mbytes
Step Temp E_pair E_mol TotEng Press 
       0    1474.6539    309.13627    1077.9365    4661.8417    11.202052 
       8    1474.6539    308.30685    1064.3523    4647.4281    11.553422 
Loop time of 0.11925 on 16 procs for 8 steps with 746 atoms

95.7% CPU use with 16 MPI tasks x no OpenMP threads

Minimization stats:
  Stopping criterion = linesearch alpha is zero
  Energy initial, next-to-last, final = 
         1387.07274616      1372.65915426      1372.65915426
  Force two-norm initial, final = 81.6924 55.215
  Force max component initial, final = 9.34157 6.25349
  Final line search alpha, max atom move = 2.47603e-12 1.54839e-11
  Iterations, force evaluations = 8 77

MPI task timing breakdown:
Section |  min time  |  avg time  |  max time  |%varavg| %total
---------------------------------------------------------------
Pair    | 1.4782e-05 | 0.014816   | 0.051199   |  15.1 | 12.42
Bond    | 3.7432e-05 | 0.003655   | 0.012971   |   7.4 |  3.06
Kspace  | 0.051962   | 0.098208   | 0.11711    |   7.4 | 82.36
Neigh   | 0          | 0          | 0          |   0.0 |  0.00
Comm    | 4.5538e-05 | 0.00095914 | 0.0021996  |   0.0 |  0.80
Output  | 0          | 0          | 0          |   0.0 |  0.00
Modify  | 0          | 0          | 0          |   0.0 |  0.00
Other   |            | 0.001612   |            |       |  1.35

Nlocal:    46.625 ave 167 max 0 min
Histogram: 9 0 0 1 1 0 3 1 0 1
Nghost:    114.062 ave 285 max 0 min
Histogram: 8 0 0 0 1 0 1 1 2 3
Neighs:    2366.12 ave 8371 max 0 min
Histogram: 9 0 0 1 1 2 1 0 0 2

Total # of neighbors = 37858
Ave neighs/atom = 50.748
Ave special neighs/atom = 11.0322
Neighbor list builds = 0
Dangerous builds = 0
timestep        1
fix             pysimm_md all nvt temp 300 300 100
run             5000
PPPM initialization ...
  using 12-bit tables for long-range coulomb (../kspace.cpp:332)
  G vector (1/distance) = 0.0869117
  grid = 18 18 18
  stencil order = 5
  estimated absolute RMS force accuracy = 0.0359264
  estimated relative force accuracy = 0.000108191
  using double precision KISS FFT
  3d grid and FFT values/proc = 1960 648
Per MPI rank memory allocation (min/avg/max) = 17.72 | 18.01 | 18.51 Mbytes
Step Temp E_pair E_mol TotEng Press 
       8    1474.6539    308.30685    1064.3523    4647.4281    11.553422 
    5008    305.65465     311.8099    1345.5851    2336.1634    1.2109323 
Loop time of 4.02137 on 16 procs for 5000 steps with 746 atoms

Performance: 107.426 ns/day, 0.223 hours/ns, 1243.357 timesteps/s
95.8% CPU use with 16 MPI tasks x no OpenMP threads

MPI task timing breakdown:
Section |  min time  |  avg time  |  max time  |%varavg| %total
---------------------------------------------------------------
Pair    | 0.00046515 | 0.33895    | 1.3983     |  75.2 |  8.43
Bond    | 0.0010152  | 0.11427    | 0.46638    |  42.4 |  2.84
Kspace  | 1.9374     | 3.0495     | 3.4393     |  27.3 | 75.83
Neigh   | 0.077387   | 0.079957   | 0.082216   |   0.5 |  1.99
Comm    | 0.0081487  | 0.16155    | 0.4937     |  42.4 |  4.02
Output  | 2.3127e-05 | 2.3559e-05 | 3.0041e-05 |   0.0 |  0.00
Modify  | 0.028054   | 0.26091    | 0.48987    |  43.7 |  6.49
Other   |            | 0.01622    |            |       |  0.40

Nlocal:    46.625 ave 191 max 0 min
Histogram: 9 0 2 0 1 2 0 0 1 1
Nghost:    155.438 ave 426 max 0 min
Histogram: 8 0 0 0 1 1 0 3 2 1
Neighs:    2505 ave 10584 max 0 min
Histogram: 9 1 1 1 0 1 1 0 1 1

Total # of neighbors = 40080
Ave neighs/atom = 53.7265
Ave special neighs/atom = 11.0322
Neighbor list builds = 181
Dangerous builds = 0
unfix pysimm_md
write_dump all custom pysimm.dump.tmp id q x y z vx vy vz
quit


################################################################################
##################################    Init    ##################################
################################################################################
units           real
atom_style      full
pair_style      lj/cut/coul/long 12.0  12.0
kspace_style    pppm 1e-4
bond_style      harmonic
angle_style     harmonic
dihedral_style  fourier
improper_style  cvff
special_bonds   amber
pair_modify     mix arithmetic
read_data       temp.lmps
  orthogonal box = (-121.986 -121.986 -121.986) to (121.986 121.986 121.986)
  2 by 2 by 4 MPI processor grid
  reading atoms ...
  802 atoms
  reading velocities ...
  802 velocities
  scanning bonds ...
  3 = max bonds/atom
  scanning angles ...
  6 = max angles/atom
  scanning dihedrals ...
  24 = max dihedrals/atom
  scanning impropers ...
  2 = max impropers/atom
  reading bonds ...
  877 bonds
  reading angles ...
  1520 angles
  reading dihedrals ...
  2312 dihedrals
  reading impropers ...
  236 impropers
  4 = max # of 1-2 neighbors
  10 = max # of 1-3 neighbors
  20 = max # of 1-4 neighbors
  22 = max # of special neighbors
  special bonds CPU = 0.000977993 secs
  read_data CPU = 0.0232511 secs
################################################################################

min_style cg
minimize 1e-05 1e-05 10000 100000
WARNING: Using 'neigh_modify every 1 delay 0 check yes' setting during minimization (../min.cpp:190)
PPPM initialization ...
  using 12-bit tables for long-range coulomb (../kspace.cpp:332)
  G vector (1/distance) = 0.0923444
  grid = 20 20 20
  stencil order = 5
  estimated absolute RMS force accuracy = 0.0307995
  estimated relative force accuracy = 9.27519e-05
  using double precision KISS FFT
  3d grid and FFT values/proc = 2250 800
Neighbor list info ...
  update every 1 steps, delay 0 steps, check yes
  max neighbors/atom: 2000, page size: 100000
  master list distance cutoff = 14
  ghost atom cutoff = 14
  binsize = 7, bins = 35 35 35
  1 neighbor lists, perpetual/occasional/extra = 1 0 0
  (1) pair lj/cut/coul/long, perpetual
      attributes: half, newton on
      pair build: half/bin/newton
      stencil: half/bin/3d/newton
      bin: standard
Per MPI rank memory allocation (min/avg/max) = 18.87 | 19.03 | 19.67 Mbytes
Step Temp E_pair E_mol TotEng Press 
       0    1607.3375    280.37236    1140.7367    5258.8344    12.590341 
       5    1607.3375    277.76286    1135.8808     5251.369    12.860734 
Loop time of 0.181359 on 16 procs for 5 steps with 802 atoms

94.1% CPU use with 16 MPI tasks x no OpenMP threads

Minimization stats:
  Stopping criterion = linesearch alpha is zero
  Energy initial, next-to-last, final = 
         1421.10910507      1413.64367662      1413.64367662
  Force two-norm initial, final = 69.3337 54.5097
  Force max component initial, final = 7.66366 5.74873
  Final line search alpha, max atom move = 2.98572e-12 1.71641e-11
  Iterations, force evaluations = 5 71

MPI task timing breakdown:
Section |  min time  |  avg time  |  max time  |%varavg| %total
---------------------------------------------------------------
Pair    | 1.1444e-05 | 0.019817   | 0.10367    |  22.9 | 10.93
Bond    | 3.2902e-05 | 0.003643   | 0.017242   |   9.0 |  2.01
Kspace  | 0.057035   | 0.15497    | 0.17896    |   9.6 | 85.45
Neigh   | 0          | 0          | 0          |   0.0 |  0.00
Comm    | 2.4557e-05 | 0.001167   | 0.002527   |   3.3 |  0.64
Output  | 0          | 0          | 0          |   0.0 |  0.00
Modify  | 0          | 0          | 0          |   0.0 |  0.00
Other   |            | 0.001759   |            |       |  0.97

Nlocal:    50.125 ave 245 max 0 min
Histogram: 8 2 4 0 0 0 0 0 0 2
Nghost:    196.5 ave 465 max 0 min
Histogram: 8 0 0 0 0 1 0 1 3 3
Neighs:    3504 ave 18555 max 0 min
Histogram: 10 1 1 2 0 0 0 0 0 2

Total # of neighbors = 56064
Ave neighs/atom = 69.9052
Ave special neighs/atom = 11.0349
Neighbor list builds = 0
Dangerous builds = 0
timestep        1
fix             pysimm_md all nvt temp 300 300 100
run             5000
PPPM initialization ...
  using 12-bit tables for long-range coulomb (../kspace.cpp:332)
  G vector (1/distance) = 0.0923444
  grid = 20 20 20
  stencil order = 5
  estimated absolute RMS force accuracy = 0.0307995
  estimated relative force accuracy = 9.27519e-05
  using double precision KISS FFT
  3d grid and FFT values/proc = 2250 800
Per MPI rank memory allocation (min/avg/max) = 17.74 | 17.91 | 18.54 Mbytes
Step Temp E_pair E_mol TotEng Press 
       5    1607.3375    277.76286    1135.8808     5251.369    12.860734 
    5005    284.51649    271.11502    1397.7882    2348.2229   -0.7598443 
Loop time of 4.74103 on 16 procs for 5000 steps with 802 atoms

Performance: 91.119 ns/day, 0.263 hours/ns, 1054.622 timesteps/s
95.2% CPU use with 16 MPI tasks x no OpenMP threads

MPI task timing breakdown:
Section |  min time  |  avg time  |  max time  |%varavg| %total
---------------------------------------------------------------
Pair    | 0.00047708 | 0.42474    | 2.0746     |  92.1 |  8.96
Bond    | 0.0010197  | 0.1173     | 0.47257    |  44.3 |  2.47
Kspace  | 1.9582     | 3.6634     | 4.1318     |  33.3 | 77.27
Neigh   | 0.093735   | 0.096501   | 0.099384   |   0.6 |  2.04
Comm    | 0.0077934  | 0.16086    | 0.43501    |  43.5 |  3.39
Output  | 2.3127e-05 | 2.4155e-05 | 3.0041e-05 |   0.0 |  0.00
Modify  | 0.027489   | 0.26085    | 0.48807    |  43.9 |  5.50
Other   |            | 0.01738    |            |       |  0.37

Nlocal:    50.125 ave 188 max 0 min
Histogram: 9 0 1 2 0 1 0 1 0 2
Nghost:    187.312 ave 471 max 0 min
Histogram: 8 0 0 0 0 0 2 3 1 2
Neighs:    3400.62 ave 13418 max 0 min
Histogram: 8 2 2 0 0 1 0 0 1 2

Total # of neighbors = 54410
Ave neighs/atom = 67.8429
Ave special neighs/atom = 11.0349
Neighbor list builds = 167
Dangerous builds = 0
unfix pysimm_md
write_dump all custom pysimm.dump.tmp id q x y z vx vy vz
quit


################################################################################
##################################    Init    ##################################
################################################################################
units           real
atom_style      full
pair_style      lj/cut/coul/long 12.0  12.0
kspace_style    pppm 1e-4
bond_style      harmonic
angle_style     harmonic
dihedral_style  fourier
improper_style  cvff
special_bonds   amber
pair_modify     mix arithmetic
read_data       temp.lmps
  orthogonal box = (-124.824 -124.824 -124.824) to (124.824 124.824 124.824)
  2 by 2 by 4 MPI processor grid
  reading atoms ...
  861 atoms
  reading velocities ...
  861 velocities
  scanning bonds ...
  3 = max bonds/atom
  scanning angles ...
  6 = max angles/atom
  scanning dihedrals ...
  24 = max dihedrals/atom
  scanning impropers ...
  2 = max impropers/atom
  reading bonds ...
  942 bonds
  reading angles ...
  1630 angles
  reading dihedrals ...
  2486 dihedrals
  reading impropers ...
  254 impropers
  4 = max # of 1-2 neighbors
  10 = max # of 1-3 neighbors
  20 = max # of 1-4 neighbors
  22 = max # of special neighbors
  special bonds CPU = 0.000885963 secs
  read_data CPU = 0.023509 secs
################################################################################

min_style cg
minimize 1e-05 1e-05 10000 100000
WARNING: Using 'neigh_modify every 1 delay 0 check yes' setting during minimization (../min.cpp:190)
PPPM initialization ...
  using 12-bit tables for long-range coulomb (../kspace.cpp:332)
  G vector (1/distance) = 0.0907754
  grid = 20 20 20
  stencil order = 5
  estimated absolute RMS force accuracy = 0.0326148
  estimated relative force accuracy = 9.82186e-05
  using double precision KISS FFT
  3d grid and FFT values/proc = 2250 800
Neighbor list info ...
  update every 1 steps, delay 0 steps, check yes
  max neighbors/atom: 2000, page size: 100000
  master list distance cutoff = 14
  ghost atom cutoff = 14
  binsize = 7, bins = 36 36 36
  1 neighbor lists, perpetual/occasional/extra = 1 0 0
  (1) pair lj/cut/coul/long, perpetual
      attributes: half, newton on
      pair build: half/bin/newton
      stencil: half/bin/3d/newton
      bin: standard
Per MPI rank memory allocation (min/avg/max) = 18.87 | 19.1 | 19.67 Mbytes
Step Temp E_pair E_mol TotEng Press 
       0    1786.5273    310.43297    1068.8248    5959.0144    13.118524 
      13    1786.5273    305.97185    1053.7494    5939.4779     13.57516 
Loop time of 0.175458 on 16 procs for 13 steps with 861 atoms

92.5% CPU use with 16 MPI tasks x no OpenMP threads

Minimization stats:
  Stopping criterion = linesearch alpha is zero
  Energy initial, next-to-last, final = 
          1379.2577328      1359.72121228      1359.72121228
  Force two-norm initial, final = 65.8761 44.3565
  Force max component initial, final = 12.1773 5.07742
  Final line search alpha, max atom move = 4.65077e-12 2.36139e-11
  Iterations, force evaluations = 13 85

MPI task timing breakdown:
Section |  min time  |  avg time  |  max time  |%varavg| %total
---------------------------------------------------------------
Pair    | 1.1206e-05 | 0.021078   | 0.086743   |  21.5 | 12.01
Bond    | 2.4796e-05 | 0.0046138  | 0.018359   |   9.6 |  2.63
Kspace  | 0.067005   | 0.14687    | 0.17303    |   9.9 | 83.71
Neigh   | 0          | 0          | 0          |   0.0 |  0.00
Comm    | 4.2915e-05 | 0.0010388  | 0.0022383  |   3.1 |  0.59
Output  | 0          | 0          | 0          |   0.0 |  0.00
Modify  | 0          | 0          | 0          |   0.0 |  0.00
Other   |            | 0.001853   |            |       |  1.06

Nlocal:    53.8125 ave 218 max 0 min
Histogram: 9 1 2 0 0 0 1 1 0 2
Nghost:    124.375 ave 274 max 0 min
Histogram: 8 0 0 0 0 0 1 0 1 6
Neighs:    3007.69 ave 12248 max 0 min
Histogram: 9 2 1 0 0 1 0 0 1 2

Total # of neighbors = 48123
Ave neighs/atom = 55.892
Ave special neighs/atom = 11.0383
Neighbor list builds = 0
Dangerous builds = 0
timestep        1
fix             pysimm_md all nvt temp 300 300 100
run             5000
PPPM initialization ...
  using 12-bit tables for long-range coulomb (../kspace.cpp:332)
  G vector (1/distance) = 0.0907754
  grid = 20 20 20
  stencil order = 5
  estimated absolute RMS force accuracy = 0.0326148
  estimated relative force accuracy = 9.82186e-05
  using double precision KISS FFT
  3d grid and FFT values/proc = 2250 800
Per MPI rank memory allocation (min/avg/max) = 17.75 | 17.98 | 18.55 Mbytes
Step Temp E_pair E_mol TotEng Press 
      13    1786.5273    305.97185    1053.7494    5939.4779     13.57516 
    5013    297.76051     316.0209    1511.8027    2591.1317  0.062787101 
Loop time of 4.59165 on 16 procs for 5000 steps with 861 atoms

Performance: 94.084 ns/day, 0.255 hours/ns, 1088.933 timesteps/s
93.7% CPU use with 16 MPI tasks x no OpenMP threads

MPI task timing breakdown:
Section |  min time  |  avg time  |  max time  |%varavg| %total
---------------------------------------------------------------
Pair    | 0.00049901 | 0.44205    | 1.695      |  95.7 |  9.63
Bond    | 0.00092602 | 0.12376    | 0.47903    |  48.9 |  2.70
Kspace  | 2.1545     | 3.4614     | 3.9465     |  36.3 | 75.38
Neigh   | 0.10237    | 0.10497    | 0.1072     |   0.5 |  2.29
Comm    | 0.0073051  | 0.15788    | 0.48956    |  46.2 |  3.44
Output  | 2.2173e-05 | 2.3618e-05 | 3.0994e-05 |   0.0 |  0.00
Modify  | 0.034092   | 0.2847     | 0.52063    |  43.4 |  6.20
Other   |            | 0.01686    |            |       |  0.37

Nlocal:    53.8125 ave 272 max 0 min
Histogram: 11 0 0 0 2 0 2 0 0 1
Nghost:    126.062 ave 427 max 0 min
Histogram: 8 1 0 0 1 2 1 1 1 1
Neighs:    3360 ave 15250 max 0 min
Histogram: 11 0 0 0 1 1 0 2 0 1

Total # of neighbors = 53760
Ave neighs/atom = 62.439
Ave special neighs/atom = 11.0383
Neighbor list builds = 189
Dangerous builds = 0
unfix pysimm_md
write_dump all custom pysimm.dump.tmp id q x y z vx vy vz
quit


################################################################################
##################################    Init    ##################################
################################################################################
units           real
atom_style      full
pair_style      lj/cut/coul/long 12.0  12.0
kspace_style    pppm 1e-4
bond_style      harmonic
angle_style     harmonic
dihedral_style  fourier
improper_style  cvff
special_bonds   amber
pair_modify     mix arithmetic
read_data       temp.lmps
  orthogonal box = (-127.539 -127.539 -127.539) to (127.539 127.539 127.539)
  2 by 2 by 4 MPI processor grid
  reading atoms ...
  920 atoms
  reading velocities ...
  920 velocities
  scanning bonds ...
  3 = max bonds/atom
  scanning angles ...
  6 = max angles/atom
  scanning dihedrals ...
  24 = max dihedrals/atom
  scanning impropers ...
  2 = max impropers/atom
  reading bonds ...
  1007 bonds
  reading angles ...
  1740 angles
  reading dihedrals ...
  2660 dihedrals
  reading impropers ...
  272 impropers
  4 = max # of 1-2 neighbors
  10 = max # of 1-3 neighbors
  20 = max # of 1-4 neighbors
  22 = max # of special neighbors
  special bonds CPU = 0.001544 secs
  read_data CPU = 0.026732 secs
################################################################################

min_style cg
minimize 1e-05 1e-05 10000 100000
WARNING: Using 'neigh_modify every 1 delay 0 check yes' setting during minimization (../min.cpp:190)
PPPM initialization ...
  using 12-bit tables for long-range coulomb (../kspace.cpp:332)
  G vector (1/distance) = 0.0893222
  grid = 20 20 20
  stencil order = 5
  estimated absolute RMS force accuracy = 0.0343349
  estimated relative force accuracy = 0.000103399
  using double precision KISS FFT
  3d grid and FFT values/proc = 2250 800
Neighbor list info ...
  update every 1 steps, delay 0 steps, check yes
  max neighbors/atom: 2000, page size: 100000
  master list distance cutoff = 14
  ghost atom cutoff = 14
  binsize = 7, bins = 37 37 37
  1 neighbor lists, perpetual/occasional/extra = 1 0 0
  (1) pair lj/cut/coul/long, perpetual
      attributes: half, newton on
      pair build: half/bin/newton
      stencil: half/bin/3d/newton
      bin: standard
Per MPI rank memory allocation (min/avg/max) = 18.87 | 19.14 | 19.69 Mbytes
Step Temp E_pair E_mol TotEng Press 
       0    1079.5868    310.32653    1175.2635    4442.9718     8.287776 
      15    1079.5868    300.63837    1155.0127    4413.0329    8.7529054 
Loop time of 0.191716 on 16 procs for 15 steps with 920 atoms

96.0% CPU use with 16 MPI tasks x no OpenMP threads

Minimization stats:
  Stopping criterion = linesearch alpha is zero
  Energy initial, next-to-last, final = 
         1485.59005387      1455.65107658      1455.65107658
  Force two-norm initial, final = 70.1722 57.5394
  Force max component initial, final = 6.81079 7.57952
  Final line search alpha, max atom move = 2.30199e-12 1.7448e-11
  Iterations, force evaluations = 15 89

MPI task timing breakdown:
Section |  min time  |  avg time  |  max time  |%varavg| %total
---------------------------------------------------------------
Pair    | 1.6451e-05 | 0.030488   | 0.10529    |  23.1 | 15.90
Bond    | 3.3855e-05 | 0.0051926  | 0.017282   |   9.3 |  2.71
Kspace  | 0.066101   | 0.15196    | 0.18834    |  12.1 | 79.26
Neigh   | 0          | 0          | 0          |   0.0 |  0.00
Comm    | 4.53e-05   | 0.0016003  | 0.0036187  |   3.9 |  0.83
Output  | 0          | 0          | 0          |   0.0 |  0.00
Modify  | 0          | 0          | 0          |   0.0 |  0.00
Other   |            | 0.002472   |            |       |  1.29

Nlocal:    57.5 ave 191 max 0 min
Histogram: 9 0 1 1 1 0 0 0 0 4
Nghost:    208.125 ave 496 max 0 min
Histogram: 8 0 0 0 0 0 2 0 3 3
Neighs:    4534.62 ave 16045 max 0 min
Histogram: 10 0 0 1 0 0 2 1 0 2

Total # of neighbors = 72554
Ave neighs/atom = 78.863
Ave special neighs/atom = 11.0413
Neighbor list builds = 0
Dangerous builds = 0
timestep        1
fix             pysimm_md all nvt temp 300 300 100
run             5000
PPPM initialization ...
  using 12-bit tables for long-range coulomb (../kspace.cpp:332)
  G vector (1/distance) = 0.0893222
  grid = 20 20 20
  stencil order = 5
  estimated absolute RMS force accuracy = 0.0343349
  estimated relative force accuracy = 0.000103399
  using double precision KISS FFT
  3d grid and FFT values/proc = 2250 800
Per MPI rank memory allocation (min/avg/max) = 17.75 | 18.02 | 18.56 Mbytes
Step Temp E_pair E_mol TotEng Press 
      15    1079.5868    300.63837    1155.0127    4413.0329    8.7529054 
    5015    314.64182    330.03926    1600.9663    2792.9241  -0.52232506 
Loop time of 6.35712 on 16 procs for 5000 steps with 920 atoms

Performance: 67.955 ns/day, 0.353 hours/ns, 786.519 timesteps/s
94.9% CPU use with 16 MPI tasks x no OpenMP threads

MPI task timing breakdown:
Section |  min time  |  avg time  |  max time  |%varavg| %total
---------------------------------------------------------------
Pair    | 0.00049233 | 0.50523    | 2.8037     | 109.1 |  7.95
Bond    | 0.00099421 | 0.13328    | 0.78016    |  57.0 |  2.10
Kspace  | 2.4298     | 4.8316     | 5.3814     |  37.3 | 76.00
Neigh   | 0.16863    | 0.17259    | 0.17645    |   0.6 |  2.71
Comm    | 0.007803   | 0.27574    | 0.70041    |  56.4 |  4.34
Output  | 2.2888e-05 | 2.4021e-05 | 3.0041e-05 |   0.0 |  0.00
Modify  | 0.039043   | 0.41692    | 0.77102    |  54.8 |  6.56
Other   |            | 0.02173    |            |       |  0.34

Nlocal:    57.5 ave 433 max 0 min
Histogram: 10 3 1 0 1 0 0 0 0 1
Nghost:    164.375 ave 475 max 0 min
Histogram: 8 0 0 0 1 1 3 0 2 1
Neighs:    3730.12 ave 27263 max 0 min
Histogram: 12 0 2 0 0 1 0 0 0 1

Total # of neighbors = 59682
Ave neighs/atom = 64.8717
Ave special neighs/atom = 11.0413
Neighbor list builds = 194
Dangerous builds = 0
unfix pysimm_md
write_dump all custom pysimm.dump.tmp id q x y z vx vy vz
quit


################################################################################
##################################    Init    ##################################
################################################################################
units           real
atom_style      full
pair_style      lj/cut/coul/long 12.0  12.0
kspace_style    pppm 1e-4
bond_style      harmonic
angle_style     harmonic
dihedral_style  fourier
improper_style  cvff
special_bonds   amber
pair_modify     mix arithmetic
read_data       temp.lmps
  orthogonal box = (-130.142 -130.142 -130.142) to (130.142 130.142 130.142)
  2 by 2 by 4 MPI processor grid
  reading atoms ...
  976 atoms
  reading velocities ...
  976 velocities
  scanning bonds ...
  3 = max bonds/atom
  scanning angles ...
  6 = max angles/atom
  scanning dihedrals ...
  24 = max dihedrals/atom
  scanning impropers ...
  2 = max impropers/atom
  reading bonds ...
  1068 bonds
  reading angles ...
  1848 angles
  reading dihedrals ...
  2820 dihedrals
  reading impropers ...
  288 impropers
  4 = max # of 1-2 neighbors
  10 = max # of 1-3 neighbors
  20 = max # of 1-4 neighbors
  22 = max # of special neighbors
  special bonds CPU = 0.00105786 secs
  read_data CPU = 0.0268071 secs
################################################################################

min_style cg
minimize 1e-05 1e-05 10000 100000
WARNING: Using 'neigh_modify every 1 delay 0 check yes' setting during minimization (../min.cpp:190)
PPPM initialization ...
  using 12-bit tables for long-range coulomb (../kspace.cpp:332)
  G vector (1/distance) = 0.0879698
  grid = 20 20 20
  stencil order = 5
  estimated absolute RMS force accuracy = 0.0351135
  estimated relative force accuracy = 0.000105743
  using double precision KISS FFT
  3d grid and FFT values/proc = 2250 800
Neighbor list info ...
  update every 1 steps, delay 0 steps, check yes
  max neighbors/atom: 2000, page size: 100000
  master list distance cutoff = 14
  ghost atom cutoff = 14
  binsize = 7, bins = 38 38 38
  1 neighbor lists, perpetual/occasional/extra = 1 0 0
  (1) pair lj/cut/coul/long, perpetual
      attributes: half, newton on
      pair build: half/bin/newton
      stencil: half/bin/3d/newton
      bin: standard
Per MPI rank memory allocation (min/avg/max) = 18.88 | 19.1 | 19.68 Mbytes
Step Temp E_pair E_mol TotEng Press 
       0    3201.7374    362.96302    1255.1349    10923.275    24.612572 
      71    3201.7374    338.19273    1139.4769    10782.846    24.243254 
Loop time of 0.568417 on 16 procs for 71 steps with 976 atoms

94.6% CPU use with 16 MPI tasks x no OpenMP threads

Minimization stats:
  Stopping criterion = linesearch alpha is zero
  Energy initial, next-to-last, final = 
         1618.09794638       1477.6696043       1477.6696043
  Force two-norm initial, final = 75.3241 45.31
  Force max component initial, final = 9.13247 4.80983
  Final line search alpha, max atom move = 3.7397e-12 1.79873e-11
  Iterations, force evaluations = 71 197

MPI task timing breakdown:
Section |  min time  |  avg time  |  max time  |%varavg| %total
---------------------------------------------------------------
Pair    | 3.9101e-05 | 0.043788   | 0.29554    |  38.0 |  7.70
Bond    | 9.9897e-05 | 0.011116   | 0.069639   |  18.4 |  1.96
Kspace  | 0.18952    | 0.50076    | 0.5571     |  14.0 | 88.10
Neigh   | 0.0030689  | 0.003108   | 0.0031481  |   0.0 |  0.55
Comm    | 0.00026059 | 0.0030907  | 0.0055158  |   4.0 |  0.54
Output  | 0          | 0          | 0          |   0.0 |  0.00
Modify  | 0          | 0          | 0          |   0.0 |  0.00
Other   |            | 0.006549   |            |       |  1.15

Nlocal:    61 ave 363 max 0 min
Histogram: 10 1 2 1 0 0 1 0 0 1
Nghost:    134.688 ave 377 max 0 min
Histogram: 6 0 1 3 0 2 2 0 0 2
Neighs:    2860 ave 18487 max 0 min
Histogram: 11 1 1 1 0 1 0 0 0 1

Total # of neighbors = 45760
Ave neighs/atom = 46.8852
Ave special neighs/atom = 11.043
Neighbor list builds = 2
Dangerous builds = 0
timestep        1
fix             pysimm_md all nvt temp 300 300 100
run             5000
PPPM initialization ...
  using 12-bit tables for long-range coulomb (../kspace.cpp:332)
  G vector (1/distance) = 0.0879698
  grid = 20 20 20
  stencil order = 5
  estimated absolute RMS force accuracy = 0.0351135
  estimated relative force accuracy = 0.000105743
  using double precision KISS FFT
  3d grid and FFT values/proc = 2250 800
Per MPI rank memory allocation (min/avg/max) = 17.75 | 17.97 | 18.56 Mbytes
Step Temp E_pair E_mol TotEng Press 
      71    3201.7374    338.19273    1139.4769    10782.846    24.243254 
    5071     291.0116    367.92077    1484.3782     2698.063   -1.0536597 
Loop time of 5.06414 on 16 procs for 5000 steps with 976 atoms

Performance: 85.306 ns/day, 0.281 hours/ns, 987.334 timesteps/s
95.0% CPU use with 16 MPI tasks x no OpenMP threads

MPI task timing breakdown:
Section |  min time  |  avg time  |  max time  |%varavg| %total
---------------------------------------------------------------
Pair    | 0.00047469 | 0.35026    | 1.9045     |  82.8 |  6.92
Bond    | 0.00091243 | 0.13137    | 0.69114    |  49.1 |  2.59
Kspace  | 2.2239     | 3.8692     | 4.2651     |  26.7 | 76.40
Neigh   | 0.099014   | 0.10029    | 0.10217    |   0.3 |  1.98
Comm    | 0.0069499  | 0.25373    | 0.5757     |  44.0 |  5.01
Output  | 2.3127e-05 | 2.3857e-05 | 3.0994e-05 |   0.0 |  0.00
Modify  | 0.03633    | 0.33686    | 0.67072    |  46.3 |  6.65
Other   |            | 0.02242    |            |       |  0.44

Nlocal:    61 ave 247 max 0 min
Histogram: 8 0 3 1 1 1 0 1 0 1
Nghost:    145.562 ave 382 max 0 min
Histogram: 6 0 1 2 1 1 1 2 0 2
Neighs:    2626.56 ave 10200 max 0 min
Histogram: 7 1 3 0 1 1 2 0 0 1

Total # of neighbors = 42025
Ave neighs/atom = 43.0584
Ave special neighs/atom = 11.043
Neighbor list builds = 163
Dangerous builds = 0
unfix pysimm_md
write_dump all custom pysimm.dump.tmp id q x y z vx vy vz
quit


################################################################################
##################################    Init    ##################################
################################################################################
units           real
atom_style      full
pair_style      lj/cut/coul/long 12.0  12.0
kspace_style    pppm 1e-4
bond_style      harmonic
angle_style     harmonic
dihedral_style  fourier
improper_style  cvff
special_bonds   amber
pair_modify     mix arithmetic
read_data       temp.lmps
  orthogonal box = (-132.646 -132.646 -132.646) to (132.646 132.646 132.646)
  2 by 2 by 4 MPI processor grid
  reading atoms ...
  1041 atoms
  reading velocities ...
  1041 velocities
  scanning bonds ...
  3 = max bonds/atom
  scanning angles ...
  6 = max angles/atom
  scanning dihedrals ...
  24 = max dihedrals/atom
  scanning impropers ...
  2 = max impropers/atom
  reading bonds ...
  1141 bonds
  reading angles ...
  1962 angles
  reading dihedrals ...
  3022 dihedrals
  reading impropers ...
  310 impropers
  4 = max # of 1-2 neighbors
  10 = max # of 1-3 neighbors
  20 = max # of 1-4 neighbors
  22 = max # of special neighbors
  special bonds CPU = 0.00150299 secs
  read_data CPU = 0.0284469 secs
################################################################################

min_style cg
minimize 1e-05 1e-05 10000 100000
WARNING: Using 'neigh_modify every 1 delay 0 check yes' setting during minimization (../min.cpp:190)
PPPM initialization ...
  using 12-bit tables for long-range coulomb (../kspace.cpp:332)
  G vector (1/distance) = 0.0992294
  grid = 24 24 24
  stencil order = 5
  estimated absolute RMS force accuracy = 0.0274259
  estimated relative force accuracy = 8.25924e-05
  using double precision KISS FFT
  3d grid and FFT values/proc = 3179 1152
Neighbor list info ...
  update every 1 steps, delay 0 steps, check yes
  max neighbors/atom: 2000, page size: 100000
  master list distance cutoff = 14
  ghost atom cutoff = 14
  binsize = 7, bins = 38 38 38
  1 neighbor lists, perpetual/occasional/extra = 1 0 0
  (1) pair lj/cut/coul/long, perpetual
      attributes: half, newton on
      pair build: half/bin/newton
      stencil: half/bin/3d/newton
      bin: standard
Per MPI rank memory allocation (min/avg/max) = 18.95 | 19.21 | 19.78 Mbytes
Step Temp E_pair E_mol TotEng Press 
       0    1506.0302    363.75184    1433.6244    6466.1339    11.929302 
      69    1506.0302    333.45941    1331.0908    6333.3079    10.921997 
Loop time of 0.659933 on 16 procs for 69 steps with 1041 atoms

94.4% CPU use with 16 MPI tasks x no OpenMP threads

Minimization stats:
  Stopping criterion = linesearch alpha is zero
  Energy initial, next-to-last, final = 
         1797.37618985      1664.55022014      1664.55022014
  Force two-norm initial, final = 86.6419 53.151
  Force max component initial, final = 9.20503 6.30937
  Final line search alpha, max atom move = 2.46166e-12 1.55316e-11
  Iterations, force evaluations = 69 197

MPI task timing breakdown:
Section |  min time  |  avg time  |  max time  |%varavg| %total
---------------------------------------------------------------
Pair    | 3.5286e-05 | 0.061898   | 0.36294    |  41.7 |  9.38
Bond    | 3.314e-05  | 0.012485   | 0.061849   |  17.7 |  1.89
Kspace  | 0.22191    | 0.57406    | 0.64955    |  16.4 | 86.99
Neigh   | 0.0031941  | 0.0032917  | 0.0033641  |   0.1 |  0.50
Comm    | 0.00022602 | 0.0024878  | 0.0056973  |   4.6 |  0.38
Output  | 0          | 0          | 0          |   0.0 |  0.00
Modify  | 0          | 0          | 0          |   0.0 |  0.00
Other   |            | 0.00571    |            |       |  0.87

Nlocal:    65.0625 ave 328 max 0 min
Histogram: 11 0 0 1 1 1 0 1 0 1
Nghost:    113.125 ave 441 max 0 min
Histogram: 8 0 0 3 2 1 0 1 0 1
Neighs:    4037.88 ave 24080 max 0 min
Histogram: 11 0 1 0 3 0 0 0 0 1

Total # of neighbors = 64606
Ave neighs/atom = 62.0615
Ave special neighs/atom = 11.0471
Neighbor list builds = 2
Dangerous builds = 0
timestep        1
fix             pysimm_md all nvt temp 300 300 100
run             5000
PPPM initialization ...
  using 12-bit tables for long-range coulomb (../kspace.cpp:332)
  G vector (1/distance) = 0.0992294
  grid = 24 24 24
  stencil order = 5
  estimated absolute RMS force accuracy = 0.0274259
  estimated relative force accuracy = 8.25924e-05
  using double precision KISS FFT
  3d grid and FFT values/proc = 3179 1152
Per MPI rank memory allocation (min/avg/max) = 17.82 | 18.09 | 18.66 Mbytes
Step Temp E_pair E_mol TotEng Press 
      69    1506.0302    333.45941    1331.0908    6333.3079    10.921997 
    5069    290.47545    399.34664    1808.3201     3108.153    1.0197903 
Loop time of 5.99157 on 16 procs for 5000 steps with 1041 atoms

Performance: 72.101 ns/day, 0.333 hours/ns, 834.506 timesteps/s
95.4% CPU use with 16 MPI tasks x no OpenMP threads

MPI task timing breakdown:
Section |  min time  |  avg time  |  max time  |%varavg| %total
---------------------------------------------------------------
Pair    | 0.00044346 | 0.41283    | 2.2515     | 104.4 |  6.89
Bond    | 0.0009079  | 0.13877    | 0.67903    |  58.4 |  2.32
Kspace  | 2.7925     | 4.7098     | 5.1589     |  32.6 | 78.61
Neigh   | 0.13924    | 0.14225    | 0.14449    |   0.4 |  2.37
Comm    | 0.0079427  | 0.16962    | 0.50693    |  47.7 |  2.83
Output  | 2.408e-05  | 2.5958e-05 | 3.5048e-05 |   0.0 |  0.00
Modify  | 0.037344   | 0.40097    | 0.66662    |  42.9 |  6.69
Other   |            | 0.01727    |            |       |  0.29

Nlocal:    65.0625 ave 337 max 0 min
Histogram: 11 0 1 0 0 2 0 1 0 1
Nghost:    56.9375 ave 286 max 0 min
Histogram: 8 2 1 3 0 0 0 1 0 1
Neighs:    3018.31 ave 16938 max 0 min
Histogram: 11 0 1 0 2 0 0 1 0 1

Total # of neighbors = 48293
Ave neighs/atom = 46.391
Ave special neighs/atom = 11.0471
Neighbor list builds = 214
Dangerous builds = 2
unfix pysimm_md
write_dump all custom pysimm.dump.tmp id q x y z vx vy vz
quit


################################################################################
##################################    Init    ##################################
################################################################################
units           real
atom_style      full
pair_style      lj/cut/coul/long 12.0  12.0
kspace_style    pppm 1e-4
bond_style      harmonic
angle_style     harmonic
dihedral_style  fourier
improper_style  cvff
special_bonds   amber
pair_modify     mix arithmetic
read_data       temp.lmps
  orthogonal box = (-135.058 -135.058 -135.058) to (135.058 135.058 135.058)
  2 by 2 by 4 MPI processor grid
  reading atoms ...
  1088 atoms
  reading velocities ...
  1088 velocities
  scanning bonds ...
  3 = max bonds/atom
  scanning angles ...
  6 = max angles/atom
  scanning dihedrals ...
  24 = max dihedrals/atom
  scanning impropers ...
  2 = max impropers/atom
  reading bonds ...
  1190 bonds
  reading angles ...
  2064 angles
  reading dihedrals ...
  3140 dihedrals
  reading impropers ...
  320 impropers
  4 = max # of 1-2 neighbors
  10 = max # of 1-3 neighbors
  20 = max # of 1-4 neighbors
  22 = max # of special neighbors
  special bonds CPU = 0.00166488 secs
  read_data CPU = 0.0392501 secs
################################################################################

min_style cg
minimize 1e-05 1e-05 10000 100000
WARNING: Using 'neigh_modify every 1 delay 0 check yes' setting during minimization (../min.cpp:190)
PPPM initialization ...
WARNING: System is not charge neutral, net charge = -1.1e-05 (../kspace.cpp:313)
  using 12-bit tables for long-range coulomb (../kspace.cpp:332)
  G vector (1/distance) = 0.0979528
  grid = 24 24 24
  stencil order = 5
  estimated absolute RMS force accuracy = 0.0263302
  estimated relative force accuracy = 7.92926e-05
  using double precision KISS FFT
  3d grid and FFT values/proc = 3179 1152
Neighbor list info ...
  update every 1 steps, delay 0 steps, check yes
  max neighbors/atom: 2000, page size: 100000
  master list distance cutoff = 14
  ghost atom cutoff = 14
  binsize = 7, bins = 39 39 39
  1 neighbor lists, perpetual/occasional/extra = 1 0 0
  (1) pair lj/cut/coul/long, perpetual
      attributes: half, newton on
      pair build: half/bin/newton
      stencil: half/bin/3d/newton
      bin: standard
Per MPI rank memory allocation (min/avg/max) = 18.95 | 19.23 | 19.79 Mbytes
Step Temp E_pair E_mol TotEng Press 
       0    1998.4405    394.34389    1360.1207    8229.6926    14.913409 
      28    1998.4405    386.30757    1323.9421    8185.4776     14.77578 
Loop time of 0.313347 on 16 procs for 28 steps with 1088 atoms

92.2% CPU use with 16 MPI tasks x no OpenMP threads

Minimization stats:
  Stopping criterion = linesearch alpha is zero
  Energy initial, next-to-last, final = 
          1754.4645678      1710.24964386      1710.24964386
  Force two-norm initial, final = 79.5215 52.8328
  Force max component initial, final = 11.522 5.77145
  Final line search alpha, max atom move = 3.0296e-12 1.74852e-11
  Iterations, force evaluations = 28 115

MPI task timing breakdown:
Section |  min time  |  avg time  |  max time  |%varavg| %total
---------------------------------------------------------------
Pair    | 1.7643e-05 | 0.034943   | 0.15548    |  28.0 | 11.15
Bond    | 2.9802e-05 | 0.007897   | 0.034291   |  12.6 |  2.52
Kspace  | 0.12803    | 0.26478    | 0.3085     |  12.4 | 84.50
Neigh   | 0          | 0          | 0          |   0.0 |  0.00
Comm    | 5.1975e-05 | 0.0019301  | 0.0048883  |   4.3 |  0.62
Output  | 0          | 0          | 0          |   0.0 |  0.00
Modify  | 0          | 0          | 0          |   0.0 |  0.00
Other   |            | 0.0038     |            |       |  1.21

Nlocal:    68 ave 289 max 0 min
Histogram: 10 0 0 2 0 1 0 2 0 1
Nghost:    150.625 ave 393 max 0 min
Histogram: 8 0 0 0 0 1 2 2 1 2
Neighs:    3674.81 ave 17124 max 0 min
Histogram: 10 0 2 0 1 1 0 0 0 2

Total # of neighbors = 58797
Ave neighs/atom = 54.0414
Ave special neighs/atom = 11.046
Neighbor list builds = 0
Dangerous builds = 0
timestep        1
fix             pysimm_md all nvt temp 300 300 100
run             5000
PPPM initialization ...
  using 12-bit tables for long-range coulomb (../kspace.cpp:332)
  G vector (1/distance) = 0.0979528
  grid = 24 24 24
  stencil order = 5
  estimated absolute RMS force accuracy = 0.0263302
  estimated relative force accuracy = 7.92926e-05
  using double precision KISS FFT
  3d grid and FFT values/proc = 3179 1152
Per MPI rank memory allocation (min/avg/max) = 17.82 | 18.1 | 18.66 Mbytes
Step Temp E_pair E_mol TotEng Press 
      28    1998.4405    386.30757    1323.9421    8185.4776     14.77578 
    5028    306.95086    381.64028    1803.1209    3179.3251   -1.4780627 
Loop time of 6.06468 on 16 procs for 5000 steps with 1088 atoms

Performance: 71.232 ns/day, 0.337 hours/ns, 824.446 timesteps/s
93.3% CPU use with 16 MPI tasks x no OpenMP threads

MPI task timing breakdown:
Section |  min time  |  avg time  |  max time  |%varavg| %total
---------------------------------------------------------------
Pair    | 0.00049162 | 0.48662    | 2.5766     | 105.1 |  8.02
Bond    | 0.00085926 | 0.1477     | 0.55015    |  51.8 |  2.44
Kspace  | 2.6178     | 4.7901     | 5.3237     |  35.5 | 78.98
Neigh   | 0.15344    | 0.15802    | 0.16161    |   0.6 |  2.61
Comm    | 0.0069523  | 0.14929    | 0.4815     |  42.7 |  2.46
Output  | 2.408e-05  | 2.4632e-05 | 3.1948e-05 |   0.0 |  0.00
Modify  | 0.039228   | 0.31667    | 0.55887    |  42.9 |  5.22
Other   |            | 0.01626    |            |       |  0.27

Nlocal:    68 ave 252 max 0 min
Histogram: 10 0 0 0 1 2 0 0 2 1
Nghost:    135.938 ave 433 max 0 min
Histogram: 8 0 2 0 0 2 1 0 1 2
Neighs:    3957.06 ave 19744 max 0 min
Histogram: 10 0 2 1 1 0 0 0 0 2

Total # of neighbors = 63313
Ave neighs/atom = 58.1921
Ave special neighs/atom = 11.046
Neighbor list builds = 191
Dangerous builds = 1
unfix pysimm_md
write_dump all custom pysimm.dump.tmp id q x y z vx vy vz
quit


################################################################################
##################################    Init    ##################################
################################################################################
units           real
atom_style      full
pair_style      lj/cut/coul/long 12.0  12.0
kspace_style    pppm 1e-4
bond_style      harmonic
angle_style     harmonic
dihedral_style  fourier
improper_style  cvff
special_bonds   amber
pair_modify     mix arithmetic
read_data       temp.lmps
  orthogonal box = (-132.364 -132.364 -132.364) to (132.364 132.364 132.364)
  2 by 2 by 4 MPI processor grid
  reading atoms ...
  1141 atoms
  reading velocities ...
  1141 velocities
  scanning bonds ...
  3 = max bonds/atom
  scanning angles ...
  6 = max angles/atom
  scanning dihedrals ...
  24 = max dihedrals/atom
  scanning impropers ...
  2 = max impropers/atom
  reading bonds ...
  1247 bonds
  reading angles ...
  2170 angles
  reading dihedrals ...
  3286 dihedrals
  reading impropers ...
  334 impropers
  4 = max # of 1-2 neighbors
  10 = max # of 1-3 neighbors
  20 = max # of 1-4 neighbors
  22 = max # of special neighbors
  special bonds CPU = 0.000921965 secs
  read_data CPU = 0.026444 secs
################################################################################

min_style cg
minimize 1e-05 1e-05 10000 100000
WARNING: Using 'neigh_modify every 1 delay 0 check yes' setting during minimization (../min.cpp:190)
PPPM initialization ...
WARNING: System is not charge neutral, net charge = -1.3e-05 (../kspace.cpp:313)
  using 12-bit tables for long-range coulomb (../kspace.cpp:332)
  G vector (1/distance) = 0.0993817
  grid = 24 24 24
  stencil order = 5
  estimated absolute RMS force accuracy = 0.0259265
  estimated relative force accuracy = 7.8077e-05
  using double precision KISS FFT
  3d grid and FFT values/proc = 3179 1152
Neighbor list info ...
  update every 1 steps, delay 0 steps, check yes
  max neighbors/atom: 2000, page size: 100000
  master list distance cutoff = 14
  ghost atom cutoff = 14
  binsize = 7, bins = 38 38 38
  1 neighbor lists, perpetual/occasional/extra = 1 0 0
  (1) pair lj/cut/coul/long, perpetual
      attributes: half, newton on
      pair build: half/bin/newton
      stencil: half/bin/3d/newton
      bin: standard
Per MPI rank memory allocation (min/avg/max) = 18.95 | 19.23 | 19.8 Mbytes
Step Temp E_pair E_mol TotEng Press 
       0    1432.5183    392.72736    1420.8122    6681.4136    12.147509 
      64    1432.5183    365.13672    1326.2183     6559.229    10.867986 
Loop time of 0.471864 on 16 procs for 64 steps with 1141 atoms

93.5% CPU use with 16 MPI tasks x no OpenMP threads

Minimization stats:
  Stopping criterion = linesearch alpha is zero
  Energy initial, next-to-last, final = 
         1813.53959459      1691.35500544      1691.35500544
  Force two-norm initial, final = 78.1215 49.6035
  Force max component initial, final = 10.3416 6.51545
  Final line search alpha, max atom move = 4.58554e-12 2.98769e-11
  Iterations, force evaluations = 64 185

MPI task timing breakdown:
Section |  min time  |  avg time  |  max time  |%varavg| %total
---------------------------------------------------------------
Pair    | 2.5988e-05 | 0.065121   | 0.26013    |  32.6 | 13.80
Bond    | 4.9829e-05 | 0.012214   | 0.044407   |  12.5 |  2.59
Kspace  | 0.17083    | 0.38229    | 0.46122    |  15.8 | 81.02
Neigh   | 0.002753   | 0.0028633  | 0.0029631  |   0.1 |  0.61
Comm    | 0.00020528 | 0.003471   | 0.0080223  |   5.5 |  0.74
Output  | 0          | 0          | 0          |   0.0 |  0.00
Modify  | 0          | 0          | 0          |   0.0 |  0.00
Other   |            | 0.005902   |            |       |  1.25

Nlocal:    71.3125 ave 247 max 0 min
Histogram: 8 0 0 2 2 1 1 1 0 1
Nghost:    226.938 ave 553 max 0 min
Histogram: 8 0 0 0 0 0 3 1 1 3
Neighs:    4727.38 ave 19312 max 0 min
Histogram: 8 0 3 1 1 0 1 0 1 1

Total # of neighbors = 75638
Ave neighs/atom = 66.291
Ave special neighs/atom = 11.0465
Neighbor list builds = 2
Dangerous builds = 0
timestep        1
fix             pysimm_md all nvt temp 300 300 100
run             5000
PPPM initialization ...
  using 12-bit tables for long-range coulomb (../kspace.cpp:332)
  G vector (1/distance) = 0.0993817
  grid = 24 24 24
  stencil order = 5
  estimated absolute RMS force accuracy = 0.0259265
  estimated relative force accuracy = 7.8077e-05
  using double precision KISS FFT
  3d grid and FFT values/proc = 3179 1152
Per MPI rank memory allocation (min/avg/max) = 17.83 | 18.1 | 18.68 Mbytes
Step Temp E_pair E_mol TotEng Press 
      64    1432.5183    365.13672    1326.2183     6559.229    10.867986 
    5064    293.24397    436.95887    2052.5962    3486.0342   -1.1145707 
Loop time of 5.68093 on 16 procs for 5000 steps with 1141 atoms

Performance: 76.044 ns/day, 0.316 hours/ns, 880.138 timesteps/s
93.5% CPU use with 16 MPI tasks x no OpenMP threads

MPI task timing breakdown:
Section |  min time  |  avg time  |  max time  |%varavg| %total
---------------------------------------------------------------
Pair    | 0.00046444 | 0.60622    | 2.4922     |  96.4 | 10.67
Bond    | 0.00092101 | 0.15328    | 0.4793     |  42.7 |  2.70
Kspace  | 2.3514     | 4.3149     | 4.9792     |  38.5 | 75.95
Neigh   | 0.16376    | 0.16886    | 0.1744     |   0.9 |  2.97
Comm    | 0.0090129  | 0.14601    | 0.40285    |  38.2 |  2.57
Output  | 2.408e-05  | 2.4945e-05 | 3.4094e-05 |   0.0 |  0.00
Modify  | 0.034165   | 0.27561    | 0.50786    |  43.7 |  4.85
Other   |            | 0.016      |            |       |  0.28

Nlocal:    71.3125 ave 218 max 0 min
Histogram: 8 0 1 2 0 1 0 1 0 3
Nghost:    240 ave 590 max 0 min
Histogram: 8 0 0 0 0 0 1 2 3 2
Neighs:    4552.81 ave 14503 max 0 min
Histogram: 8 2 0 0 1 0 1 1 0 3

Total # of neighbors = 72845
Ave neighs/atom = 63.8431
Ave special neighs/atom = 11.0465
Neighbor list builds = 216
Dangerous builds = 0
unfix pysimm_md
write_dump all custom pysimm.dump.tmp id q x y z vx vy vz
quit


################################################################################
##################################    Init    ##################################
################################################################################
units           real
atom_style      full
pair_style      lj/cut/coul/long 12.0  12.0
kspace_style    pppm 1e-4
bond_style      harmonic
angle_style     harmonic
dihedral_style  fourier
improper_style  cvff
special_bonds   amber
pair_modify     mix arithmetic
read_data       temp.lmps
  orthogonal box = (-139.64 -139.64 -139.64) to (139.64 139.64 139.64)
  2 by 2 by 4 MPI processor grid
  reading atoms ...
  1206 atoms
  reading velocities ...
  1206 velocities
  scanning bonds ...
  3 = max bonds/atom
  scanning angles ...
  6 = max angles/atom
  scanning dihedrals ...
  24 = max dihedrals/atom
  scanning impropers ...
  2 = max impropers/atom
  reading bonds ...
  1320 bonds
  reading angles ...
  2284 angles
  reading dihedrals ...
  3488 dihedrals
  reading impropers ...
  356 impropers
  4 = max # of 1-2 neighbors
  10 = max # of 1-3 neighbors
  20 = max # of 1-4 neighbors
  22 = max # of special neighbors
  special bonds CPU = 0.00174785 secs
  read_data CPU = 0.0312889 secs
################################################################################

min_style cg
minimize 1e-05 1e-05 10000 100000
WARNING: Using 'neigh_modify every 1 delay 0 check yes' setting during minimization (../min.cpp:190)
PPPM initialization ...
WARNING: System is not charge neutral, net charge = -1.1e-05 (../kspace.cpp:313)
  using 12-bit tables for long-range coulomb (../kspace.cpp:332)
  G vector (1/distance) = 0.0956073
  grid = 24 24 24
  stencil order = 5
  estimated absolute RMS force accuracy = 0.0287633
  estimated relative force accuracy = 8.66198e-05
  using double precision KISS FFT
  3d grid and FFT values/proc = 3179 1152
Neighbor list info ...
  update every 1 steps, delay 0 steps, check yes
  max neighbors/atom: 2000, page size: 100000
  master list distance cutoff = 14
  ghost atom cutoff = 14
  binsize = 7, bins = 40 40 40
  1 neighbor lists, perpetual/occasional/extra = 1 0 0
  (1) pair lj/cut/coul/long, perpetual
      attributes: half, newton on
      pair build: half/bin/newton
      stencil: half/bin/3d/newton
      bin: standard
Per MPI rank memory allocation (min/avg/max) = 18.95 | 19.17 | 19.81 Mbytes
Step Temp E_pair E_mol TotEng Press 
       0    611.30714    327.57866    1474.0984    3997.4166    4.1348064 
      15    611.30714    329.06935    1456.6375    3981.4463    4.4361882 
Loop time of 0.447631 on 16 procs for 15 steps with 1206 atoms

93.8% CPU use with 16 MPI tasks x no OpenMP threads

Minimization stats:
  Stopping criterion = linesearch alpha is zero
  Energy initial, next-to-last, final = 
         1801.67709168      1785.70682102      1785.70682102
  Force two-norm initial, final = 61.531 47.2156
  Force max component initial, final = 6.02983 6.20698
  Final line search alpha, max atom move = 3.69628e-12 2.29427e-11
  Iterations, force evaluations = 15 89

MPI task timing breakdown:
Section |  min time  |  avg time  |  max time  |%varavg| %total
---------------------------------------------------------------
Pair    | 1.5974e-05 | 0.036876   | 0.28137    |  38.5 |  8.24
Bond    | 3.8385e-05 | 0.0064978  | 0.041441   |  14.4 |  1.45
Kspace  | 0.11928    | 0.39936    | 0.44349    |  13.6 | 89.22
Neigh   | 0          | 0          | 0          |   0.0 |  0.00
Comm    | 5.3644e-05 | 0.0016523  | 0.0039847  |   4.1 |  0.37
Output  | 0          | 0          | 0          |   0.0 |  0.00
Modify  | 0          | 0          | 0          |   0.0 |  0.00
Other   |            | 0.003249   |            |       |  0.73

Nlocal:    75.375 ave 468 max 0 min
Histogram: 10 3 1 0 0 0 0 1 0 1
Nghost:    200.188 ave 605 max 0 min
Histogram: 8 0 1 0 0 1 3 2 0 1
Neighs:    5190.25 ave 39820 max 0 min
Histogram: 11 3 0 0 0 1 0 0 0 1

Total # of neighbors = 83044
Ave neighs/atom = 68.859
Ave special neighs/atom = 11.0498
Neighbor list builds = 0
Dangerous builds = 0
timestep        1
fix             pysimm_md all nvt temp 300 300 100
run             5000
PPPM initialization ...
  using 12-bit tables for long-range coulomb (../kspace.cpp:332)
  G vector (1/distance) = 0.0956073
  grid = 24 24 24
  stencil order = 5
  estimated absolute RMS force accuracy = 0.0287633
  estimated relative force accuracy = 8.66198e-05
  using double precision KISS FFT
  3d grid and FFT values/proc = 3179 1152
Per MPI rank memory allocation (min/avg/max) = 17.83 | 18.05 | 18.68 Mbytes
Step Temp E_pair E_mol TotEng Press 
      15    611.30714    329.06935    1456.6375    3981.4463    4.4361882 
    5015    321.87795    409.78373     2053.407    3619.3365    1.5644619 
Loop time of 8.24878 on 16 procs for 5000 steps with 1206 atoms

Performance: 52.371 ns/day, 0.458 hours/ns, 606.150 timesteps/s
94.6% CPU use with 16 MPI tasks x no OpenMP threads

MPI task timing breakdown:
Section |  min time  |  avg time  |  max time  |%varavg| %total
---------------------------------------------------------------
Pair    | 0.00049472 | 0.61773    | 3.8637     | 136.8 |  7.49
Bond    | 0.00089979 | 0.16098    | 0.87904    |  64.3 |  1.95
Kspace  | 3.1174     | 6.4654     | 7.1326     |  44.1 | 78.38
Neigh   | 0.22311    | 0.22773    | 0.23351    |   0.7 |  2.76
Comm    | 0.007956   | 0.29849    | 0.8352     |  61.8 |  3.62
Output  | 2.3127e-05 | 2.4691e-05 | 3.1948e-05 |   0.0 |  0.00
Modify  | 0.035059   | 0.45803    | 0.85841    |  58.7 |  5.55
Other   |            | 0.02044    |            |       |  0.25

Nlocal:    75.375 ave 330 max 0 min
Histogram: 11 1 0 0 1 0 0 0 0 3
Nghost:    126.062 ave 340 max 0 min
Histogram: 8 0 0 0 1 1 1 2 1 2
Neighs:    4901.75 ave 28494 max 0 min
Histogram: 11 1 1 0 0 0 2 0 0 1

Total # of neighbors = 78428
Ave neighs/atom = 65.0315
Ave special neighs/atom = 11.0498
Neighbor list builds = 226
Dangerous builds = 2
unfix pysimm_md
write_dump all custom pysimm.dump.tmp id q x y z vx vy vz
quit


################################################################################
##################################    Init    ##################################
################################################################################
units           real
atom_style      full
pair_style      lj/cut/coul/long 12.0  12.0
kspace_style    pppm 1e-4
bond_style      harmonic
angle_style     harmonic
dihedral_style  fourier
improper_style  cvff
special_bonds   amber
pair_modify     mix arithmetic
read_data       temp.lmps
  orthogonal box = (-136.637 -136.637 -136.637) to (136.637 136.637 136.637)
  2 by 2 by 4 MPI processor grid
  reading atoms ...
  1262 atoms
  reading velocities ...
  1262 velocities
  scanning bonds ...
  3 = max bonds/atom
  scanning angles ...
  6 = max angles/atom
  scanning dihedrals ...
  24 = max dihedrals/atom
  scanning impropers ...
  2 = max impropers/atom
  reading bonds ...
  1381 bonds
  reading angles ...
  2392 angles
  reading dihedrals ...
  3648 dihedrals
  reading impropers ...
  372 impropers
  4 = max # of 1-2 neighbors
  10 = max # of 1-3 neighbors
  20 = max # of 1-4 neighbors
  22 = max # of special neighbors
  special bonds CPU = 0.000993013 secs
  read_data CPU = 0.030998 secs
################################################################################

min_style cg
minimize 1e-05 1e-05 10000 100000
WARNING: Using 'neigh_modify every 1 delay 0 check yes' setting during minimization (../min.cpp:190)
PPPM initialization ...
WARNING: System is not charge neutral, net charge = -1.2e-05 (../kspace.cpp:313)
  using 12-bit tables for long-range coulomb (../kspace.cpp:332)
  G vector (1/distance) = 0.0971305
  grid = 24 24 24
  stencil order = 5
  estimated absolute RMS force accuracy = 0.0288943
  estimated relative force accuracy = 8.70143e-05
  using double precision KISS FFT
  3d grid and FFT values/proc = 3179 1152
Neighbor list info ...
  update every 1 steps, delay 0 steps, check yes
  max neighbors/atom: 2000, page size: 100000
  master list distance cutoff = 14
  ghost atom cutoff = 14
  binsize = 7, bins = 40 40 40
  1 neighbor lists, perpetual/occasional/extra = 1 0 0
  (1) pair lj/cut/coul/long, perpetual
      attributes: half, newton on
      pair build: half/bin/newton
      stencil: half/bin/3d/newton
      bin: standard
Per MPI rank memory allocation (min/avg/max) = 18.96 | 19.2 | 19.78 Mbytes
Step Temp E_pair E_mol TotEng Press 
       0    801.40853    384.26327    1522.4059    4919.0048    6.9956923 
      29    801.40853    377.82683    1493.9191    4884.0815    6.8956415 
Loop time of 0.40537 on 16 procs for 29 steps with 1262 atoms

95.3% CPU use with 16 MPI tasks x no OpenMP threads

Minimization stats:
  Stopping criterion = linesearch alpha is zero
  Energy initial, next-to-last, final = 
         1906.66920546      1871.74594147      1871.74594147
  Force two-norm initial, final = 61.5236 46.0091
  Force max component initial, final = 6.21856 5.83565
  Final line search alpha, max atom move = 2.98224e-12 1.74033e-11
  Iterations, force evaluations = 29 117

MPI task timing breakdown:
Section |  min time  |  avg time  |  max time  |%varavg| %total
---------------------------------------------------------------
Pair    | 2.2173e-05 | 0.045047   | 0.23218    |  34.0 | 11.11
Bond    | 4.8637e-05 | 0.0087884  | 0.036694   |  13.8 |  2.17
Kspace  | 0.13078    | 0.34672    | 0.4013     |  14.5 | 85.53
Neigh   | 0          | 0          | 0          |   0.0 |  0.00
Comm    | 5.9605e-05 | 0.0014922  | 0.003392   |   3.8 |  0.37
Output  | 0          | 0          | 0          |   0.0 |  0.00
Modify  | 0          | 0          | 0          |   0.0 |  0.00
Other   |            | 0.003322   |            |       |  0.82

Nlocal:    78.875 ave 342 max 0 min
Histogram: 9 2 1 0 0 0 2 0 1 1
Nghost:    148.188 ave 445 max 0 min
Histogram: 8 0 0 0 4 0 0 1 0 3
Neighs:    4872.69 ave 26151 max 0 min
Histogram: 11 1 0 0 0 1 2 0 0 1

Total # of neighbors = 77963
Ave neighs/atom = 61.7773
Ave special neighs/atom = 11.0507
Neighbor list builds = 0
Dangerous builds = 0
timestep        1
fix             pysimm_md all nvt temp 300 300 100
run             5000
PPPM initialization ...
  using 12-bit tables for long-range coulomb (../kspace.cpp:332)
[...]
PPPM initialization ...
  using 12-bit tables for long-range coulomb (../kspace.cpp:332)
  G vector (1/distance) = 0.0878613
  grid = 27 27 27
  stencil order = 5
  estimated absolute RMS force accuracy = 0.0358788
  estimated relative force accuracy = 0.000108048
  using double precision KISS FFT
  3d grid and FFT values/proc = 4332 1458
Per MPI rank memory allocation (min/avg/max) = 17.95 | 18.19 | 18.79 Mbytes
Step Temp E_pair E_mol TotEng Press 
      46    577.02964     847.2267    3158.9438    8624.4128     4.256787 
    5046    303.47584    931.55005    4376.9564    7737.3677  -0.27108305 
Loop time of 16.3269 on 16 procs for 5000 steps with 2686 atoms

Performance: 26.459 ns/day, 0.907 hours/ns, 306.244 timesteps/s
92.2% CPU use with 16 MPI tasks x no OpenMP threads

MPI task timing breakdown:
Section |  min time  |  avg time  |  max time  |%varavg| %total
---------------------------------------------------------------
Pair    | 0.000453   | 1.2857     | 7.9284     | 212.3 |  7.87
Bond    | 0.00095654 | 0.34103    | 2.0129     | 109.8 |  2.09
Kspace  | 5.5247     | 12.361     | 13.713     |  70.7 | 75.71
Neigh   | 0.66698    | 0.67171    | 0.67989    |   0.5 |  4.11
Comm    | 0.0099556  | 0.38047    | 1.5706     |  97.4 |  2.33
Output  | 2.8133e-05 | 3.0309e-05 | 4.0054e-05 |   0.0 |  0.00
Modify  | 0.052953   | 1.2517     | 1.9159     |  74.0 |  7.67
Other   |            | 0.03477    |            |       |  0.21

Nlocal:    167.875 ave 1003 max 0 min
Histogram: 12 0 1 1 0 0 0 0 0 2
Nghost:    106.188 ave 316 max 0 min
Histogram: 8 1 0 1 1 1 0 0 0 4
Neighs:    11124.9 ave 71721 max 0 min
Histogram: 12 0 1 1 0 0 0 1 0 1

Total # of neighbors = 177999
Ave neighs/atom = 66.2692
Ave special neighs/atom = 11.064
Neighbor list builds = 296
Dangerous builds = 4
unfix pysimm_md
write_dump all custom pysimm.dump.tmp id q x y z vx vy vz
quit


################################################################################
##################################    Init    ##################################
################################################################################
units           real
atom_style      full
pair_style      lj/cut/coul/long 12.0  12.0
kspace_style    pppm 1e-4
bond_style      harmonic
angle_style     harmonic
dihedral_style  fourier
improper_style  cvff
special_bonds   amber
pair_modify     mix arithmetic
read_data       temp.lmps
  orthogonal box = (-183.943 -183.943 -183.943) to (183.943 183.943 183.943)
  2 by 2 by 4 MPI processor grid
  reading atoms ...
  2769 atoms
  reading velocities ...
  2769 velocities
  scanning bonds ...
  3 = max bonds/atom
  scanning angles ...
  6 = max angles/atom
  scanning dihedrals ...
  24 = max dihedrals/atom
  scanning impropers ...
  2 = max impropers/atom
  reading bonds ...
  3035 bonds
  reading angles ...
  5234 angles
  reading dihedrals ...
  8046 dihedrals
  reading impropers ...
  822 impropers
  4 = max # of 1-2 neighbors
  10 = max # of 1-3 neighbors
  20 = max # of 1-4 neighbors
  22 = max # of special neighbors
  special bonds CPU = 0.00120401 secs
  read_data CPU = 0.0525949 secs
################################################################################

min_style cg
minimize 1e-05 1e-05 10000 100000
WARNING: Using 'neigh_modify every 1 delay 0 check yes' setting during minimization (../min.cpp:190)
PPPM initialization ...
WARNING: System is not charge neutral, net charge = -2.1e-05 (../kspace.cpp:313)
  using 12-bit tables for long-range coulomb (../kspace.cpp:332)
  G vector (1/distance) = 0.091984
  grid = 30 30 30
  stencil order = 5
  estimated absolute RMS force accuracy = 0.0328469
  estimated relative force accuracy = 9.89173e-05
  using double precision KISS FFT
  3d grid and FFT values/proc = 5200 1800
Neighbor list info ...
  update every 1 steps, delay 0 steps, check yes
  max neighbors/atom: 2000, page size: 100000
  master list distance cutoff = 14
  ghost atom cutoff = 14
  binsize = 7, bins = 53 53 53
  1 neighbor lists, perpetual/occasional/extra = 1 0 0
  (1) pair lj/cut/coul/long, perpetual
      attributes: half, newton on
      pair build: half/bin/newton
      stencil: half/bin/3d/newton
      bin: standard
Per MPI rank memory allocation (min/avg/max) = 19.17 | 19.51 | 20.02 Mbytes
Step Temp E_pair E_mol TotEng Press 
       0    682.09491    918.99506     3393.638    9940.5178    4.4442764 
       6    682.09491    910.94707    3384.5237    9923.3556    4.4563917 
Loop time of 0.362824 on 16 procs for 6 steps with 2769 atoms

92.6% CPU use with 16 MPI tasks x no OpenMP threads

Minimization stats:
  Stopping criterion = linesearch alpha is zero
  Energy initial, next-to-last, final = 
         4312.63303437      4295.47078901      4295.47078901
  Force two-norm initial, final = 113.164 73.8125
  Force max component initial, final = 15.0186 7.52612
  Final line search alpha, max atom move = 2.13864e-12 1.60957e-11
  Iterations, force evaluations = 6 73

MPI task timing breakdown:
Section |  min time  |  avg time  |  max time  |%varavg| %total
---------------------------------------------------------------
Pair    | 7.391e-06  | 0.050563   | 0.20417    |  28.8 | 13.94
Bond    | 2.8133e-05 | 0.010791   | 0.032984   |  12.2 |  2.97
Kspace  | 0.12396    | 0.29803    | 0.35993    |  14.2 | 82.14
Neigh   | 0          | 0          | 0          |   0.0 |  0.00
Comm    | 3.4094e-05 | 0.0010638  | 0.0028529  |   3.3 |  0.29
Output  | 0          | 0          | 0          |   0.0 |  0.00
Modify  | 0          | 0          | 0          |   0.0 |  0.00
Other   |            | 0.002371   |            |       |  0.65

Nlocal:    173.062 ave 531 max 0 min
Histogram: 9 0 0 0 1 2 0 1 1 2
Nghost:    160.188 ave 486 max 0 min
Histogram: 8 0 1 0 1 3 0 0 0 3
Neighs:    9749.88 ave 43055 max 0 min
Histogram: 9 0 1 1 2 1 1 0 0 1

Total # of neighbors = 155998
Ave neighs/atom = 56.3373
Ave special neighs/atom = 11.0668
Neighbor list builds = 0
Dangerous builds = 0
timestep        1
fix             pysimm_md all nvt temp 300 300 100
run             5000
PPPM initialization ...
  using 12-bit tables for long-range coulomb (../kspace.cpp:332)
  G vector (1/distance) = 0.091984
  grid = 30 30 30
  stencil order = 5
  estimated absolute RMS force accuracy = 0.0328469
  estimated relative force accuracy = 9.89173e-05
  using double precision KISS FFT
  3d grid and FFT values/proc = 5200 1800
Per MPI rank memory allocation (min/avg/max) = 18.04 | 18.38 | 18.9 Mbytes
Step Temp E_pair E_mol TotEng Press 
       6    682.09491    910.94707    3384.5237    9923.3556    4.4563917 
    5006     291.0593    970.81536      4271.75    7644.0614   0.84292844 
Loop time of 12.6328 on 16 procs for 5000 steps with 2769 atoms

Performance: 34.197 ns/day, 0.702 hours/ns, 395.797 timesteps/s
94.0% CPU use with 16 MPI tasks x no OpenMP threads

MPI task timing breakdown:
Section |  min time  |  avg time  |  max time  |%varavg| %total
---------------------------------------------------------------
Pair    | 0.00048828 | 1.1974     | 5.8177     | 149.6 |  9.48
Bond    | 0.00098753 | 0.35721    | 1.2448     |  71.8 |  2.83
Kspace  | 4.8991     | 9.6407     | 10.947     |  55.3 | 76.32
Neigh   | 0.4664     | 0.4753     | 0.48178    |   0.7 |  3.76
Comm    | 0.012264   | 0.26638    | 0.99516    |  60.6 |  2.11
Output  | 2.5988e-05 | 2.791e-05  | 3.5048e-05 |   0.0 |  0.00
Modify  | 0.053192   | 0.67344    | 1.2127     |  63.7 |  5.33
Other   |            | 0.02227    |            |       |  0.18

Nlocal:    173.062 ave 638 max 0 min
Histogram: 9 0 0 1 1 0 4 0 0 1
Nghost:    196.188 ave 740 max 0 min
Histogram: 8 1 1 1 2 0 0 1 1 1
Neighs:    9674 ave 51171 max 0 min
Histogram: 9 1 1 2 2 0 0 0 0 1

Total # of neighbors = 154784
Ave neighs/atom = 55.8989
Ave special neighs/atom = 11.0668
Neighbor list builds = 285
Dangerous builds = 5
unfix pysimm_md
write_dump all custom pysimm.dump.tmp id q x y z vx vy vz
quit


################################################################################
##################################    Init    ##################################
################################################################################
units           real
atom_style      full
pair_style      lj/cut/coul/long 12.0  12.0
kspace_style    pppm 1e-4
bond_style      harmonic
angle_style     harmonic
dihedral_style  fourier
improper_style  cvff
special_bonds   amber
pair_modify     mix arithmetic
read_data       temp.lmps
  orthogonal box = (-178.44 -178.44 -178.44) to (178.44 178.44 178.44)
  2 by 2 by 4 MPI processor grid
  reading atoms ...
  2810 atoms
  reading velocities ...
  2810 velocities
  scanning bonds ...
  3 = max bonds/atom
  scanning angles ...
  6 = max angles/atom
  scanning dihedrals ...
  24 = max dihedrals/atom
  scanning impropers ...
  2 = max impropers/atom
  reading bonds ...
  3076 bonds
  reading angles ...
  5332 angles
  reading dihedrals ...
  8136 dihedrals
  reading impropers ...
  828 impropers
  4 = max # of 1-2 neighbors
  10 = max # of 1-3 neighbors
  20 = max # of 1-4 neighbors
  22 = max # of special neighbors
  special bonds CPU = 0.00159097 secs
  read_data CPU = 0.0561681 secs
################################################################################

min_style cg
minimize 1e-05 1e-05 10000 100000
WARNING: Using 'neigh_modify every 1 delay 0 check yes' setting during minimization (../min.cpp:190)
PPPM initialization ...
WARNING: System is not charge neutral, net charge = -2.7e-05 (../kspace.cpp:313)
  using 12-bit tables for long-range coulomb (../kspace.cpp:332)
  G vector (1/distance) = 0.0940734
  grid = 30 30 30
  stencil order = 5
  estimated absolute RMS force accuracy = 0.031358
  estimated relative force accuracy = 9.44338e-05
  using double precision KISS FFT
  3d grid and FFT values/proc = 5200 1800
Neighbor list info ...
  update every 1 steps, delay 0 steps, check yes
  max neighbors/atom: 2000, page size: 100000
  master list distance cutoff = 14
  ghost atom cutoff = 14
  binsize = 7, bins = 51 51 51
  1 neighbor lists, perpetual/occasional/extra = 1 0 0
  (1) pair lj/cut/coul/long, perpetual
      attributes: half, newton on
      pair build: half/bin/newton
      stencil: half/bin/3d/newton
      bin: standard
Per MPI rank memory allocation (min/avg/max) = 19.16 | 19.5 | 20.03 Mbytes
Step Temp E_pair E_mol TotEng Press 
       0    472.04329    956.62866    3206.6427    8115.7349     3.733554 
      47    472.04329    933.15819    3103.4909    7989.1126    3.7383424 
Loop time of 0.647952 on 16 procs for 47 steps with 2810 atoms

95.2% CPU use with 16 MPI tasks x no OpenMP threads

Minimization stats:
  Stopping criterion = energy tolerance
  Energy initial, next-to-last, final = 
         4163.27132959      4036.68155304       4036.6490416
  Force two-norm initial, final = 95.2942 49.4731
  Force max component initial, final = 10.6447 5.3349
  Final line search alpha, max atom move = 0.00480818 0.0256512
  Iterations, force evaluations = 47 94

MPI task timing breakdown:
Section |  min time  |  avg time  |  max time  |%varavg| %total
---------------------------------------------------------------
Pair    | 7.8678e-06 | 0.057413   | 0.35865    |  38.2 |  8.86
Bond    | 4.8161e-05 | 0.013013   | 0.070987   |  16.8 |  2.01
Kspace  | 0.2051     | 0.5658     | 0.63694    |  14.8 | 87.32
Neigh   | 0.00388    | 0.0040065  | 0.0040519  |   0.1 |  0.62
Comm    | 0.00013375 | 0.0015682  | 0.0046284  |   3.8 |  0.24
Output  | 0          | 0          | 0          |   0.0 |  0.00
Modify  | 0          | 0          | 0          |   0.0 |  0.00
Other   |            | 0.006151   |            |       |  0.95

Nlocal:    175.625 ave 838 max 0 min
Histogram: 10 0 0 4 0 0 0 0 1 1
Nghost:    176.562 ave 560 max 0 min
Histogram: 8 0 1 1 1 1 1 0 1 2
Neighs:    9138 ave 52201 max 0 min
Histogram: 10 0 3 1 0 0 1 0 0 1

Total # of neighbors = 146208
Ave neighs/atom = 52.0313
Ave special neighs/atom = 11.0655
Neighbor list builds = 1
Dangerous builds = 0
timestep        1
fix             pysimm_md all nvt temp 300 300 100
run             5000
PPPM initialization ...
  using 12-bit tables for long-range coulomb (../kspace.cpp:332)
  G vector (1/distance) = 0.0940734
  grid = 30 30 30
  stencil order = 5
  estimated absolute RMS force accuracy = 0.031358
  estimated relative force accuracy = 9.44338e-05
  using double precision KISS FFT
  3d grid and FFT values/proc = 5200 1800
Per MPI rank memory allocation (min/avg/max) = 18.04 | 18.37 | 18.9 Mbytes
Step Temp E_pair E_mol TotEng Press 
      47    472.04329    933.15819    3103.4909    7989.1126    3.7383424 
    5047    300.14886    1008.7161    4348.0795    7869.9707  0.088230572 
Loop time of 12.2602 on 16 procs for 5000 steps with 2810 atoms

Performance: 35.236 ns/day, 0.681 hours/ns, 407.825 timesteps/s
95.5% CPU use with 16 MPI tasks x no OpenMP threads

MPI task timing breakdown:
Section |  min time  |  avg time  |  max time  |%varavg| %total
---------------------------------------------------------------
Pair    | 0.00045395 | 1.1212     | 5.0091     | 138.2 |  9.15
Bond    | 0.001018   | 0.35807    | 1.3486     |  75.9 |  2.92
Kspace  | 5.1644     | 9.2223     | 10.426     |  50.5 | 75.22
Neigh   | 0.39553    | 0.40468    | 0.41102    |   0.7 |  3.30
Comm    | 0.01088    | 0.34074    | 1.0565     |  68.0 |  2.78
Output  | 2.5034e-05 | 2.6301e-05 | 3.2902e-05 |   0.0 |  0.00
Modify  | 0.09191    | 0.78665    | 1.412      |  68.8 |  6.42
Other   |            | 0.02648    |            |       |  0.22

Nlocal:    175.625 ave 690 max 0 min
Histogram: 8 0 2 0 2 2 1 0 0 1
Nghost:    150.438 ave 527 max 0 min
Histogram: 9 0 0 0 2 2 0 2 0 1
Neighs:    8823.38 ave 30577 max 0 min
Histogram: 8 0 1 0 3 2 0 0 0 2

Total # of neighbors = 141174
Ave neighs/atom = 50.2399
Ave special neighs/atom = 11.0655
Neighbor list builds = 275
Dangerous builds = 4
unfix pysimm_md
write_dump all custom pysimm.dump.tmp id q x y z vx vy vz
quit


################################################################################
##################################    Init    ##################################
################################################################################
units           real
atom_style      full
pair_style      lj/cut/coul/long 12.0  12.0
kspace_style    pppm 1e-4
bond_style      harmonic
angle_style     harmonic
dihedral_style  fourier
improper_style  cvff
special_bonds   amber
pair_modify     mix arithmetic
read_data       temp.lmps
  orthogonal box = (-186.463 -186.463 -186.463) to (186.463 186.463 186.463)
  2 by 2 by 4 MPI processor grid
  reading atoms ...
  2875 atoms
  reading velocities ...
  2875 velocities
  scanning bonds ...
  3 = max bonds/atom
  scanning angles ...
  6 = max angles/atom
  scanning dihedrals ...
  24 = max dihedrals/atom
  scanning impropers ...
  2 = max impropers/atom
  reading bonds ...
  3149 bonds
  reading angles ...
  5446 angles
  reading dihedrals ...
  8338 dihedrals
  reading impropers ...
  850 impropers
  4 = max # of 1-2 neighbors
  10 = max # of 1-3 neighbors
  20 = max # of 1-4 neighbors
  22 = max # of special neighbors
  special bonds CPU = 0.00203514 secs
  read_data CPU = 0.0577781 secs
################################################################################

min_style cg
minimize 1e-05 1e-05 10000 100000
WARNING: Using 'neigh_modify every 1 delay 0 check yes' setting during minimization (../min.cpp:190)
PPPM initialization ...
WARNING: System is not charge neutral, net charge = -2.5e-05 (../kspace.cpp:313)
  using 12-bit tables for long-range coulomb (../kspace.cpp:332)
  G vector (1/distance) = 0.0910565
  grid = 30 30 30
  stencil order = 5
  estimated absolute RMS force accuracy = 0.0328229
  estimated relative force accuracy = 9.88452e-05
  using double precision KISS FFT
  3d grid and FFT values/proc = 5200 1800
Neighbor list info ...
  update every 1 steps, delay 0 steps, check yes
  max neighbors/atom: 2000, page size: 100000
  master list distance cutoff = 14
  ghost atom cutoff = 14
  binsize = 7, bins = 54 54 54
  1 neighbor lists, perpetual/occasional/extra = 1 0 0
  (1) pair lj/cut/coul/long, perpetual
      attributes: half, newton on
      pair build: half/bin/newton
      stencil: half/bin/3d/newton
      bin: standard
Per MPI rank memory allocation (min/avg/max) = 19.18 | 19.37 | 19.99 Mbytes
Step Temp E_pair E_mol TotEng Press 
       0    632.81508    962.17669    3323.2389    9706.6462    4.4872154 
       8    632.81508    961.61468    3298.5749    9681.4202     4.703332 
Loop time of 0.707688 on 16 procs for 8 steps with 2875 atoms

92.0% CPU use with 16 MPI tasks x no OpenMP threads

Minimization stats:
  Stopping criterion = linesearch alpha is zero
  Energy initial, next-to-last, final = 
         4285.41557542      4260.18956861      4260.18956861
  Force two-norm initial, final = 99.3658 74.2518
  Force max component initial, final = 13.5766 11.0628
  Final line search alpha, max atom move = 1.88978e-12 2.09062e-11
  Iterations, force evaluations = 8 77

MPI task timing breakdown:
Section |  min time  |  avg time  |  max time  |%varavg| %total
---------------------------------------------------------------
Pair    | 7.8678e-06 | 0.04797    | 0.42169    |  47.6 |  6.78
Bond    | 2.3365e-05 | 0.011067   | 0.084398   |  20.7 |  1.56
Kspace  | 0.1972     | 0.64436    | 0.70372    |  15.7 | 91.05
Neigh   | 0          | 0          | 0          |   0.0 |  0.00
Comm    | 2.6226e-05 | 0.00065042 | 0.0023     |   0.0 |  0.09
Output  | 0          | 0          | 0          |   0.0 |  0.00
Modify  | 0          | 0          | 0          |   0.0 |  0.00
Other   |            | 0.003637   |            |       |  0.51

Nlocal:    179.688 ave 1388 max 0 min
Histogram: 11 2 0 2 0 0 0 0 0 1
Nghost:    82.875 ave 395 max 0 min
Histogram: 9 2 1 0 2 0 0 0 0 2
Neighs:    9133.06 ave 82795 max 0 min
Histogram: 11 2 2 0 0 0 0 0 0 1

Total # of neighbors = 146129
Ave neighs/atom = 50.8275
Ave special neighs/atom = 11.0664
Neighbor list builds = 0
Dangerous builds = 0
timestep        1
fix             pysimm_md all nvt temp 300 300 100
run             5000
PPPM initialization ...
  using 12-bit tables for long-range coulomb (../kspace.cpp:332)
  G vector (1/distance) = 0.0910565
  grid = 30 30 30
  stencil order = 5
  estimated absolute RMS force accuracy = 0.0328229
  estimated relative force accuracy = 9.88452e-05
  using double precision KISS FFT
  3d grid and FFT values/proc = 5200 1800
Per MPI rank memory allocation (min/avg/max) = 18.05 | 18.25 | 18.87 Mbytes
Step Temp E_pair E_mol TotEng Press 
       8    632.81508    961.61468    3298.5749    9681.4202     4.703332 
    5008    304.37821    997.70325    4315.1494    7920.4145  -0.32504065 
Loop time of 19.8121 on 16 procs for 5000 steps with 2875 atoms

Performance: 21.805 ns/day, 1.101 hours/ns, 252.371 timesteps/s
93.1% CPU use with 16 MPI tasks x no OpenMP threads

MPI task timing breakdown:
Section |  min time  |  avg time  |  max time  |%varavg| %total
---------------------------------------------------------------
Pair    | 0.00046802 | 1.0806     | 9.007      | 215.9 |  5.45
Bond    | 0.00094247 | 0.36282    | 2.7024     | 115.7 |  1.83
Kspace  | 7.1732     | 15.372     | 16.552     |  59.5 | 77.59
Neigh   | 0.72588    | 0.73138    | 0.73802    |   0.4 |  3.69
Comm    | 0.009336   | 0.26169    | 2.0249     |  99.7 |  1.32
Output  | 2.6941e-05 | 2.9385e-05 | 3.6955e-05 |   0.0 |  0.00
Modify  | 0.071691   | 1.9576     | 2.5324     |  56.3 |  9.88
Other   |            | 0.04634    |            |       |  0.23

Nlocal:    179.688 ave 1255 max 0 min
Histogram: 11 0 2 1 1 0 0 0 0 1
Nghost:    84.75 ave 349 max 0 min
Histogram: 9 2 0 0 1 2 0 0 0 2
Neighs:    9027.44 ave 75412 max 0 min
Histogram: 11 2 2 0 0 0 0 0 0 1

Total # of neighbors = 144439
Ave neighs/atom = 50.2397
Ave special neighs/atom = 11.0664
Neighbor list builds = 276
Dangerous builds = 0
unfix pysimm_md
write_dump all custom pysimm.dump.tmp id q x y z vx vy vz
quit
