pySIMM System Object

535 atoms
534 bonds
1034 angles
1463 dihedrals
0 impropers

10 atom types
12 bond types
28 angle types
12 dihedral types
1 improper types

-65.767120 65.767120 xlo xhi
-65.767120 65.767120 ylo yhi
-65.767120 65.767120 zlo zhi

Masses

   1	12.01	# c3
   2	1.008	# hc
   3	16.0	# oh
   4	1.008	# h1
   5	1.008	# ho
   6	12.01	# c
   7	14.01	# n3
   8	1.008	# hn
   9	16.0	# o
  10	1.008	# h4

Pair Coeffs

   1	0.1094	3.3996695084235347	# c3
   2	0.0157	2.649532787749369	# hc
   3	0.2104	3.0664733878390478	# oh
   4	0.0157	2.471353044121301	# h1
   5	0.0047	0.5379246460131368	# ho
   6	0.086	3.3996695084235347	# c
   7	0.17	3.249998523775958	# n3
   8	0.0157	1.069078461768407	# hn
   9	0.21	2.959921901149463	# o
  10	0.015	2.5105525877194763	# h4

Bond Coeffs

   1	371.4	0.973	# ho,oh
   2	300.9	1.5375	# c3,c3
   3	330.6	1.0969	# c3,h1
   4	330.6	1.0969	# c3,hc
   5	316.7	1.4233	# c3,oh
   6	392.4	1.019	# hn,n3
   7	637.7	1.2183	# c,o
   8	313.0	1.5241	# c,c3
   9	325.9	1.4647	# c3,n3
  10	310.7	1.1121	# c,h4
  11	400.1	1.3513	# c,oh
  12	325.9	1.465	# n3,c

Angle Coeffs

   1	46.34	109.8	# c3,c3,hc
   2	47.38	107.26	# c3,oh,ho
   3	39.4	107.58	# hc,c3,hc
   4	62.86	111.51	# c3,c3,c3
   5	67.47	110.19	# c3,c3,oh
   6	46.39	109.56	# c3,c3,h1
   7	50.93	110.26	# h1,c3,oh
   8	39.24	108.46	# h1,c3,h1
   9	62.7	112.48	# c3,oh,c3
  10	51.11	109.5	# hc,c3,oh
  11	45.64	114.64	# c3,c,h4
  12	41.4	106.4	# hn,n3,hn
  13	49.53	109.88	# h1,c3,n3
  14	46.93	108.77	# c,c3,hc
  15	66.02	111.04	# c3,c3,n3
  16	67.4	123.2	# c3,c,o
  17	54.22	120.7	# h4,c,o
  18	63.27	111.04	# c,c3,c3
  19	47.42	109.29	# c3,n3,hn
  20	67.9	109.98	# c3,oh,c
  21	68.4	112.73	# c3,c,oh
  22	75.92	122.1	# o,c,oh
  23	63.8	112.35	# c3,n3,c
  24	47.4	109.29	# hn,n3,c
  25	66.0	111.04	# n3,c,c3
  26	70.9	110.7	# n3,c,o
  27	63.82	112.35	# c3,n3,c3
  28	49.55	109.8	# hc,c3,n3

Dihedral Coeffs

   1	1	0.15555555555555556	3	0	# X,c3,c3,X
   2	1	0.16	3	0	# hc,c3,c3,c3
   3	2	0.16	3	0	0.25	1	0	# ho,oh,c3,c3
   4	3	0.18	3	0	0.25	2	180	0.2	1	180	# c3,c3,c3,c3
   5	1	0.15	3	0	# hc,c3,c3,hc
   6	1	0.16666666666666666	3	0	# X,c3,oh,X
   7	2	0.0	3	0	0.25	1	0	# hc,c3,c3,oh
   8	1	0.3	3	0	# X,c3,n3,X
   9	1	0.0	2	180	# X,c,c3,X
  10	3	0.8	1	0	0.0	2	0	0.08	3	180	# hc,c3,c,o
  11	1	2.3	2	180	# X,c,oh,X
  12	2	0.3	3	0	0.48	2	180	# c3,c3,n3,c3

Improper Coeffs

   1	10.5	-1	2	# c,X,X,o

Atoms

   1	1	1	0.304671	-8.77139	-18.5261	-9.40192
   2	1	1	-1.24578	-7.35981	-18.2036	-8.84971
   3	1	1	0.921237	-6.40846	-19.388	-8.92086
   4	1	2	0.238751	-7.44452	-17.9451	-7.78784
   5	1	2	0.241495	-6.90352	-17.3561	-9.3601
   6	1	1	-0.299014	-5.93124	-19.5874	-10.3537
   7	1	2	-0.179791	-6.88724	-20.2905	-8.53394
   8	1	2	-0.17909	-5.55705	-19.1417	-8.27899
   9	1	2	0.080952	-5.21764	-20.4208	-10.3877
  10	1	2	0.084393	-5.40651	-18.6929	-10.6934
  11	1	3	-0.116242	-8.82693	-18.5873	-10.8263
  12	1	4	0.075247	-9.48886	-17.7679	-9.05138
  13	1	4	0.07317	-9.09849	-19.4926	-8.99008
  14	1	1	0.304671	-9.20156	-16.334	-15.1524
  15	1	1	-1.24578	-9.05786	-16.1353	-13.6454
  16	1	1	0.921237	-9.02567	-17.5007	-13.0077
  17	1	2	0.238751	-9.91821	-15.5804	-13.2491
  18	1	2	0.241495	-8.1425	-15.579	-13.4001
  19	1	1	-0.299014	-8.71356	-17.3399	-11.5284
  20	1	2	-0.179791	-8.24588	-18.1117	-13.463
  21	1	2	-0.17909	-9.99764	-17.9757	-13.1747
  22	1	2	0.080952	-7.70187	-16.9347	-11.405
  23	1	2	0.084393	-9.42146	-16.6122	-11.1111
  24	1	3	-0.116242	-8.24881	-17.227	-15.7786
  25	1	4	0.075247	-9.17202	-15.3532	-15.6437
  26	1	4	0.07317	-10.2081	-16.7352	-15.3383
  27	1	1	0.304671	-6.63117	-19.35	-17.8362
  28	1	1	-1.24578	-5.8372	-18.7968	-16.6289
  29	1	1	0.921237	-5.86324	-17.2717	-16.4105
  30	1	2	0.238751	-4.7824	-19.0856	-16.7203
  31	1	2	0.241495	-6.20636	-19.2501	-15.7045
  32	1	1	-0.299014	-7.23371	-16.6212	-16.5963
  33	1	2	-0.179791	-5.17178	-16.8297	-17.1315
  34	1	2	-0.17909	-5.49333	-17.0645	-15.4004
  35	1	2	0.080952	-7.10416	-15.5678	-16.333
  36	1	2	0.084393	-7.53004	-16.6552	-17.6516
  37	1	3	-0.116242	-6.09357	-18.9157	-19.0992
  38	1	4	0.075247	-7.69673	-19.0832	-17.7408
  39	1	4	0.07317	-6.57078	-20.4529	-17.7979
  40	1	1	0.57552	4.69872	-23.6371	-24.6601
  41	1	1	-1.07208	3.70258	-22.956	-23.7282
  42	1	2	0.119263	3.48612	-23.6009	-22.8656
  43	1	2	0.211544	4.12106	-22.0101	-23.3615
  44	1	1	0.745843	2.40901	-22.6478	-24.499
  45	1	2	-0.177131	2.65176	-21.8861	-25.2422
  46	1	2	-0.142119	2.13491	-23.5617	-25.0374
  47	1	1	0.080873	1.20344	-22.2028	-23.6227
  48	1	2	0.018859	1.05176	-22.9666	-22.8553
  49	1	2	-0.02655	1.39963	-21.2516	-23.1148
  50	1	1	-0.221824	-0.083345	-22.1145	-24.4761
  51	1	2	0.031284	0.00645215	-21.2827	-25.1893
  52	1	2	0.013242	-0.188242	-23.0333	-25.0677
  53	1	1	0.073218	-1.34464	-21.9327	-23.6387
  54	1	2	-0.024643	-1.35768	-22.6486	-22.8108
  55	1	2	-0.008342	-1.30189	-20.9325	-23.1915
  56	1	1	0.04656	-2.64896	-22.0556	-24.4624
  57	1	2	-0.007327	-2.70054	-21.2826	-25.2363
  58	1	2	0.003322	-2.64073	-23.0273	-24.9741
  59	1	1	-0.01926	-3.92216	-22.0088	-23.5695
  60	1	2	0.003715	-4.77646	-22.3312	-24.1859
  61	1	2	0.000131	-3.8148	-22.7621	-22.7794
  62	1	1	-0.031072	-4.27134	-20.6209	-22.9411
  63	1	2	-0.002086	-3.3817	-20.2093	-22.4439
  64	1	2	-0.003252	-4.49907	-19.9244	-23.7617
  65	1	1	0.083103	-5.43427	-20.6476	-21.9066
  66	1	2	-0.003597	-6.27468	-21.2186	-22.3175
  67	1	2	-0.00033	-5.08785	-21.174	-21.0028
  68	1	1	0.015717	-5.97692	-19.2649	-21.5017
  69	1	2	-0.004333	-5.15595	-18.5456	-21.3797
  70	1	2	-0.003064	-6.63411	-18.8715	-22.2929
  71	1	6	0.43523	-6.77003	-19.37	-20.2033
  72	1	7	-0.39711	5.76554	-24.1346	-23.8306
  73	1	4	-0.041868	4.20833	-24.4802	-25.1509
  74	1	4	-0.011544	5.07713	-22.9448	-25.4273
  75	1	8	0.237688	6.28049	-23.3287	-23.4974
  76	1	9	-0.49758	-7.86821	-19.9183	-20.1569
  77	1	1	0.57552	2.64617	-34.9699	-18.5994
  78	1	1	-1.07208	3.19188	-34.1016	-19.7288
  79	1	2	0.119263	2.97512	-34.5436	-20.7021
  80	1	2	0.211544	2.6834	-33.1339	-19.6912
  81	1	1	0.745843	4.71794	-33.8641	-19.5914
  82	1	2	-0.177131	4.98229	-33.9802	-18.5334
  83	1	2	-0.142119	5.20582	-34.6943	-20.1188
  84	1	1	0.080873	5.24378	-32.4789	-20.1045
  85	1	2	0.018859	6.34243	-32.4863	-20.0594
  86	1	2	-0.02655	4.995	-32.4181	-21.1687
  87	1	1	-0.221824	4.73285	-31.1759	-19.3904
  88	1	2	0.031284	3.67474	-31.2507	-19.1273
  89	1	2	0.013242	5.28726	-31.051	-18.4457
  90	1	1	0.073218	4.89714	-29.9088	-20.2686
  91	1	2	-0.024643	4.27967	-30.024	-21.1715
  92	1	2	-0.008342	4.49476	-29.0529	-19.7294
  93	1	1	0.04656	6.35111	-29.607	-20.7032
  94	1	2	-0.007327	7.02152	-29.6385	-19.8344
  95	1	2	0.003322	6.68617	-30.402	-21.3913
  96	1	1	-0.01926	6.42985	-28.2223	-21.3943
  97	1	2	0.003715	5.56946	-28.1048	-22.0497
  98	1	2	0.000131	6.33462	-27.4325	-20.6446
  99	1	1	-0.031072	7.72124	-27.9941	-22.2267
 100	1	2	-0.002086	8.6037	-28.0807	-21.5623
 101	1	2	-0.003252	7.84087	-28.8106	-22.9668
 102	1	1	0.083103	7.83574	-26.6094	-22.9749
 103	1	2	-0.003597	7.6898	-25.8055	-22.2504
 104	1	2	-0.00033	8.86889	-26.5078	-23.3568
 105	1	1	0.015717	6.81327	-26.3713	-24.137
 106	1	2	-0.004333	7.07486	-26.9875	-25.008
 107	1	2	-0.003064	5.81493	-26.6944	-23.8272
 108	1	6	0.43523	6.69917	-24.8964	-24.6124
 109	1	7	-0.39711	1.19837	-34.8025	-18.607
 110	1	4	-0.041868	3.04537	-34.6557	-17.6295
 111	1	4	-0.011544	2.89922	-36.0172	-18.7813
 112	1	8	0.237688	0.817665	-35.0967	-19.4992
 113	1	9	-0.49758	7.61255	-24.1302	-24.8591
 114	1	1	0.57552	3.23858	-33.9097	-3.57231
 115	1	1	-1.07208	3.36747	-34.6573	-4.91
 116	1	2	0.119263	4.40248	-34.6457	-5.26873
 117	1	2	0.211544	3.07013	-35.6953	-4.75231
 118	1	1	0.745843	2.41169	-34.0855	-5.97118
 119	1	2	-0.177131	1.38891	-34.2176	-5.59788
 120	1	2	-0.142119	2.58871	-32.998	-6.04456
 121	1	1	0.080873	2.62602	-34.7983	-7.34852
 122	1	2	0.018859	3.6623	-34.6414	-7.654
 123	1	2	-0.02655	2.54247	-35.8787	-7.18888
 124	1	1	-0.221824	1.71147	-34.3737	-8.5247
 125	1	2	0.031284	0.678073	-34.3485	-8.14827
 126	1	2	0.013242	1.98998	-33.3577	-8.82752
 127	1	1	0.073218	1.75261	-35.3357	-9.74614
 128	1	2	-0.024643	2.74172	-35.8103	-9.84605
 129	1	2	-0.008342	1.04478	-36.1544	-9.54955
 130	1	1	0.04656	1.35382	-34.5609	-11.0417
 131	1	2	-0.007327	0.384405	-34.0634	-10.8515
 132	1	2	0.003322	2.07541	-33.7525	-11.2455
 133	1	1	-0.01926	1.23597	-35.4844	-12.3089
 134	1	2	0.003715	2.19677	-35.9874	-12.4639
 135	1	2	0.000131	0.501751	-36.2827	-12.1621
 136	1	1	-0.031072	0.828216	-34.691	-13.5993
 137	1	2	-0.002086	-0.0866961	-34.116	-13.389
 138	1	2	-0.003252	1.62817	-33.9615	-13.8141
 139	1	1	0.083103	0.595246	-35.559	-14.8544
 140	1	2	-0.003597	1.41868	-36.2803	-14.9228
 141	1	2	-0.00033	-0.341193	-36.1239	-14.7148
 142	1	1	0.015717	0.550924	-34.7638	-16.1809
 143	1	2	-0.004333	-0.29758	-34.0763	-16.1538
 144	1	2	-0.003064	1.43337	-34.1131	-16.1738
 145	1	6	0.43523	0.584042	-35.5384	-17.5181
 146	1	7	-0.39711	3.86164	-32.611	-3.53764
 147	1	4	-0.041868	3.67048	-34.4868	-2.75216
 148	1	4	-0.011544	2.16688	-33.8325	-3.34906
 149	1	8	0.237688	4.85762	-32.7648	-3.4245
 150	1	9	-0.49758	0.347811	-36.6983	-17.8049
 151	1	1	0.57552	-3.32021	-22.0422	4.47645
 152	1	1	-1.07208	-2.07748	-22.5545	3.82417
 153	1	2	0.119263	-1.37715	-21.7245	3.63472
 154	1	2	0.211544	-1.61956	-23.218	4.56651
 155	1	1	0.745843	-2.38416	-23.3321	2.55661
 156	1	2	-0.177131	-3.0887	-24.106	2.84478
 157	1	2	-0.142119	-2.88523	-22.6692	1.85904
 158	1	1	0.080873	-1.14148	-23.9781	1.92715
 159	1	2	0.018859	-0.480043	-23.1671	1.60368
 160	1	2	-0.02655	-0.595676	-24.454	2.72868
 161	1	1	-0.221824	-1.3713	-25.0062	0.786663
 162	1	2	0.031284	-2.12718	-25.7322	1.11372
 163	1	2	0.013242	-1.80367	-24.5322	-0.106729
 164	1	1	0.073218	-0.0420726	-25.7515	0.450922
 165	1	2	-0.024643	0.641674	-25.0351	-0.0191108
 166	1	2	-0.008342	0.397865	-26.1681	1.38314
 167	1	1	0.04656	-0.254303	-26.9536	-0.494068
 168	1	2	-0.007327	-0.821428	-27.7522	0.0171184
 169	1	2	0.003322	-0.858807	-26.6521	-1.34451
 170	1	1	-0.01926	1.0565	-27.5398	-1.01251
 171	1	2	0.003715	1.42904	-26.8839	-1.82009
 172	1	2	0.000131	1.76189	-27.5479	-0.172434
 173	1	1	-0.031072	0.910661	-29.0123	-1.50259
 174	1	2	-0.002086	0.437591	-29.6521	-0.756494
 175	1	2	-0.003252	0.255306	-29.0227	-2.37619
 176	1	1	0.083103	2.2688	-29.6455	-1.85712
 177	1	2	-0.003597	2.79314	-29.0129	-2.59294
 178	1	2	-0.00033	2.90542	-29.6009	-0.978816
 179	1	1	0.015717	2.17172	-31.1028	-2.41194
 180	1	2	-0.004333	1.47259	-31.7025	-1.82236
 181	1	2	-0.003064	1.77508	-31.0089	-3.43236
 182	1	6	0.43523	3.47971	-31.86	-2.3718
 183	1	7	-0.39711	-2.93116	-21.489	5.7772
 184	1	4	-0.041868	-3.95398	-22.9439	4.64211
 185	1	4	-0.011544	-3.84418	-21.3146	3.85585
 186	1	8	0.237688	-2.17222	-20.8318	5.61454
 187	1	9	-0.49758	4.50394	-31.4452	-1.86827
 188	1	1	0.57552	-5.61843	-11.6733	10.4334
 189	1	1	-1.07208	-5.74027	-13.1284	10.7062
 190	1	2	0.119263	-6.45805	-13.3004	11.513
 191	1	2	0.211544	-6.05767	-13.6725	9.83095
 192	1	1	0.745843	-4.32183	-13.645	11.1198
 193	1	2	-0.177131	-3.56104	-13.2289	10.4102
 194	1	2	-0.142119	-4.0179	-13.2998	12.1315
 195	1	1	0.080873	-4.30915	-15.2213	11.0541
 196	1	2	0.018859	-5.16149	-15.5594	11.6644
 197	1	2	-0.02655	-4.52616	-15.5632	10.0235
 198	1	1	-0.221824	-2.9821	-15.8458	11.5509
 199	1	2	0.031284	-2.16192	-15.6534	10.8515
 200	1	2	0.013242	-2.69957	-15.3463	12.4645
 201	1	1	0.073218	-3.05329	-17.3598	11.8924
 202	1	2	-0.024643	-2.34489	-17.6321	12.6725
 203	1	2	-0.008342	-4.05731	-17.5874	12.239
 204	1	1	0.04656	-2.79064	-18.1978	10.6466
 205	1	2	-0.007327	-3.45778	-17.8353	9.8442
 206	1	2	0.003322	-1.77253	-17.9634	10.3267
 207	1	1	-0.01926	-3.09651	-19.6963	10.7942
 208	1	2	0.003715	-2.36513	-20.1038	11.4923
 209	1	2	0.000131	-4.08494	-19.8636	11.2708
 210	1	1	-0.031072	-3.06828	-20.4497	9.48812
 211	1	2	-0.002086	-2.43632	-20.0394	8.69895
 212	1	2	-0.003252	-2.65537	-21.4558	9.67859
 213	1	1	0.083103	-4.53862	-20.5899	8.95306
 214	1	2	-0.003597	-5.21493	-21.0159	9.70711
 215	1	2	-0.00033	-4.93718	-19.5882	8.71689
 216	1	1	0.015717	-4.61446	-21.4085	7.6688
 217	1	2	-0.004333	-4.08438	-22.3582	7.84656
 218	1	2	-0.003064	-5.63824	-21.6383	7.37608
 219	1	6	0.43523	-3.98786	-20.7308	6.42953
 220	1	7	-0.39711	-6.90794	-11.1431	10.0917
 221	1	4	-0.041868	-4.86794	-11.4723	9.66768
 222	1	4	-0.011544	-5.23774	-11.1436	11.3384
 223	1	8	0.237688	-7.51303	-11.3786	10.8707
 224	1	9	-0.49758	-3.84717	-19.5461	6.23453
 225	1	1	0.57552	-9.05931	-1.698	0.703472
 226	1	1	-1.07208	-7.95368	-1.40293	1.76759
 227	1	2	0.119263	-7.03794	-1.1872	1.24963
 228	1	2	0.211544	-8.12269	-0.544943	2.38384
 229	1	1	0.745843	-7.67898	-2.67904	2.63747
 230	1	2	-0.177131	-7.49091	-3.5455	1.98299
 231	1	2	-0.142119	-6.70049	-2.51183	3.24052
 232	1	1	0.080873	-8.74354	-2.91756	3.75525
 233	1	2	0.018859	-8.68357	-2.07492	4.45717
 234	1	2	-0.02655	-9.76081	-2.90027	3.38523
 235	1	1	-0.221824	-8.61091	-4.23369	4.53586
 236	1	2	0.031284	-8.72174	-5.10333	3.84543
 237	1	2	0.013242	-7.5939	-4.24462	4.95628
 238	1	1	0.073218	-9.64028	-4.297	5.77403
 239	1	2	-0.024643	-9.45613	-3.58305	6.58569
 240	1	2	-0.008342	-10.6368	-3.99756	5.43644
 241	1	1	0.04656	-9.56115	-5.65766	6.48821
 242	1	2	-0.007327	-10.3284	-5.63354	7.30815
 243	1	2	0.003322	-9.86837	-6.42799	5.79859
 244	1	1	-0.01926	-8.18388	-6.04905	7.1333
 245	1	2	0.003715	-7.36303	-5.92634	6.41569
 246	1	2	0.000131	-7.93979	-5.29728	7.91418
 247	1	1	-0.031072	-8.22286	-7.40877	7.78429
 248	1	2	-0.002086	-9.14118	-7.46326	8.33848
 249	1	2	-0.003252	-8.30279	-8.13332	6.94854
 250	1	1	0.083103	-6.95965	-7.62025	8.67542
 251	1	2	-0.003597	-6.18234	-6.98636	8.20348
 252	1	2	-0.00033	-7.16691	-7.15617	9.6416
 253	1	1	0.015717	-6.31567	-9.02239	8.90176
 254	1	2	-0.004333	-6.40942	-9.64477	7.96126
 255	1	2	-0.003064	-5.23768	-8.83377	9.14667
 256	1	6	0.43523	-6.85136	-9.74382	10.1252
 257	1	7	-0.39711	-10.3218	-1.43953	1.42295
 258	1	4	-0.041868	-8.88444	-2.70661	0.322183
 259	1	4	-0.011544	-8.90552	-0.963668	-0.11708
 260	1	8	0.237688	-10.217	-0.476265	1.7774
 261	1	9	-0.49758	-7.89648	-9.40981	10.6318
 262	1	1	0.57552	-17.2114	-3.93791	-5.03513
 263	1	1	-1.07208	-17.0841	-4.55404	-3.69689
 264	1	2	0.119263	-16.8647	-3.81208	-2.9418
 265	1	2	0.211544	-18.062	-4.96212	-3.48976
 266	1	1	0.745843	-16.047	-5.73147	-3.74536
 267	1	2	-0.177131	-16.2055	-6.27602	-4.68522
 268	1	2	-0.142119	-14.993	-5.462	-3.82787
 269	1	1	0.080873	-16.3028	-6.66058	-2.48558
 270	1	2	0.018859	-17.2566	-7.10379	-2.56867
 271	1	2	-0.02655	-15.6353	-7.45887	-2.56921
 272	1	1	-0.221824	-16.1058	-6.0522	-1.06272
 273	1	2	0.031284	-16.8997	-5.38875	-0.871177
 274	1	2	0.013242	-16.0666	-6.84949	-0.273476
 275	1	1	0.073218	-14.7405	-5.29604	-0.906969
 276	1	2	-0.024643	-13.9977	-5.96981	-1.2967
 277	1	2	-0.008342	-14.7285	-4.37871	-1.54023
 278	1	1	0.04656	-14.3484	-5.04019	0.618101
 279	1	2	-0.007327	-14.5747	-5.94666	1.16895
 280	1	2	0.003322	-13.2827	-4.87256	0.686548
 281	1	1	-0.01926	-15.1362	-3.91536	1.33222
 282	1	2	0.003715	-16.1715	-4.19397	1.40091
 283	1	2	0.000131	-14.7568	-3.83175	2.38746
 284	1	1	-0.031072	-15.1937	-2.51638	0.673148
 285	1	2	-0.002086	-15.9634	-2.42867	-0.0605732
 286	1	2	-0.003252	-15.46	-1.85229	1.46358
 287	1	1	0.083103	-13.9025	-2.044	0.0450871
 288	1	2	-0.003597	-13.5191	-2.58778	-0.836557
 289	1	2	-0.00033	-14.0451	-1.05031	-0.416642
 290	1	1	0.015717	-12.7244	-1.9179	1.07605
 291	1	2	-0.004333	-13.0885	-1.254	1.86481
 292	1	2	-0.003064	-12.5304	-2.87549	1.60798
 293	1	6	0.43523	-11.4572	-1.45262	0.474441
 294	1	7	-0.39711	-18.048	-2.70592	-5.0443
 295	1	4	-0.041868	-17.5872	-4.63198	-5.79854
 296	1	4	-0.011544	-16.1757	-3.6895	-5.33235
 297	1	8	0.237688	-17.9289	-2.16198	-4.20375
 298	1	9	-0.49758	-11.3671	-0.46992	-0.255166
 299	1	1	0.57552	-17.9931	1.85316	-6.74481
 300	1	1	-1.07208	-18.5297	2.53747	-7.9556
 301	1	2	0.119263	-18.0023	3.45757	-8.27416
 302	1	2	0.211544	-18.3657	1.90822	-8.85363
 303	1	1	0.745843	-20.0323	2.86002	-7.83838
 304	1	2	-0.177131	-20.1798	3.3889	-6.88723
 305	1	2	-0.142119	-20.2899	3.58049	-8.57878
 306	1	1	0.080873	-21.0654	1.64958	-8.03976
 307	1	2	0.018859	-20.7003	0.883044	-7.36136
 308	1	2	-0.02655	-22.0965	2.04459	-7.84266
 309	1	1	-0.221824	-21.2456	0.981754	-9.46611
 310	1	2	0.031284	-21.4934	1.78749	-10.2179
 311	1	2	0.013242	-20.3349	0.500489	-9.75102
 312	1	1	0.073218	-22.3503	-0.100365	-9.49964
 313	1	2	-0.024643	-23.2969	0.319939	-9.13011
 314	1	2	-0.008342	-22.5763	-0.376182	-10.546
 315	1	1	0.04656	-21.9508	-1.4045	-8.75298
 316	1	2	-0.007327	-21.617	-1.15652	-7.76849
 317	1	2	0.003322	-22.9026	-2.05923	-8.7145
 318	1	1	-0.01926	-20.8552	-2.31893	-9.4415
 319	1	2	0.003715	-21.3585	-2.82623	-10.2856
 320	1	2	0.000131	-20.0151	-1.75547	-9.84764
 321	1	1	-0.031072	-20.3591	-3.37976	-8.48115
 322	1	2	-0.002086	-20.9995	-3.42674	-7.61187
 323	1	2	-0.003252	-20.5331	-4.39637	-8.90186
 324	1	1	0.083103	-18.9432	-3.07689	-7.986
 325	1	2	-0.003597	-18.4844	-3.98266	-7.53879
 326	1	2	-0.00033	-18.2608	-3.00441	-8.8227
 327	1	1	0.015717	-18.7954	-1.7673	-7.17083
 328	1	2	-0.004333	-18.6143	-0.957031	-7.82825
 329	1	2	-0.003064	-19.6588	-1.54512	-6.53115
 330	1	6	0.43523	-17.5961	-1.88682	-6.2263
 331	1	7	-0.39711	-18.0694	2.80791	-5.6621
 332	1	4	-0.041868	-16.9755	1.55991	-7.04202
 333	1	4	-0.011544	-18.6212	0.978625	-6.4046
 334	1	8	0.237688	-17.6535	3.65613	-6.07143
 335	1	9	-0.49758	-16.8695	-0.903521	-5.93725
 336	1	1	0.304671	-13.8616	1.7606	-2.7495
 337	1	1	-1.24578	-15.3552	1.79421	-3.09903
 338	1	1	0.921237	-15.856	2.59821	-4.27348
 339	1	2	0.238751	-15.9151	2.12171	-2.22712
 340	1	2	0.241495	-15.6762	0.785643	-3.26674
 341	1	1	-0.299014	-17.4515	2.5002	-4.33369
 342	1	2	-0.179791	-15.576	2.16846	-5.21191
 343	1	2	-0.17909	-15.6505	3.6749	-4.14708
 344	1	2	0.080952	-17.7778	1.45066	-4.01244
 345	1	2	0.084393	-17.824	3.11467	-3.56445
 346	1	3	-0.116242	-13.1332	1.75188	-3.9647
 347	1	4	0.075247	-13.5689	0.782863	-2.30818
 348	1	4	0.07317	-13.5758	2.63663	-2.12319
 349	1	1	0.304671	-9.435	3.31475	-4.50752
 350	1	1	-1.24578	-9.48371	2.02183	-3.68689
 351	1	1	0.921237	-10.8921	2.07058	-3.03249
 352	1	2	0.238751	-8.68052	1.9493	-2.98041
 353	1	2	0.241495	-9.358	1.18971	-4.36301
 354	1	1	-0.299014	-11.8081	1.28123	-3.92144
 355	1	2	-0.179791	-11.1524	3.09299	-2.77977
 356	1	2	-0.17909	-10.9529	1.53505	-2.08716
 357	1	2	0.080952	-11.3634	1.12148	-4.91326
 358	1	2	0.084393	-11.7322	0.213554	-3.50328
 359	1	3	-0.116242	-8.30742	3.37799	-5.25745
 360	1	4	0.075247	-9.50838	4.13852	-3.82916
 361	1	4	0.07317	-10.392	3.36331	-5.14444
 362	1	1	0.57552	1.65302	8.77083	-12.9574
 363	1	1	-1.07208	0.447342	7.94427	-12.7243
 364	1	2	0.119263	0.166405	7.47683	-13.6188
 365	1	2	0.211544	0.637738	7.22054	-11.8961
 366	1	1	0.745843	-0.735638	8.78402	-12.286
 367	1	2	-0.177131	-0.549256	9.24517	-11.3038
 368	1	2	-0.142119	-0.969872	9.58013	-12.9495
 369	1	1	0.080873	-2.10094	7.99002	-12.1238
 370	1	2	0.018859	-2.99024	8.70104	-11.9741
 371	1	2	-0.02655	-2.38057	7.77944	-13.1927
 372	1	1	-0.221824	-2.18362	6.8084	-11.1585
 373	1	2	0.031284	-1.61475	5.95121	-11.5702
 374	1	2	0.013242	-1.76667	6.9836	-10.1622
 375	1	1	0.073218	-3.68528	6.41692	-11.0526
 376	1	2	-0.024643	-4.23549	7.20082	-10.6341
 377	1	2	-0.008342	-4.09321	6.36323	-12.0489
 378	1	1	0.04656	-4.00306	5.12365	-10.2872
 379	1	2	-0.007327	-3.98947	4.37667	-11.04
 380	1	2	0.003322	-3.27246	4.88477	-9.55249
 381	1	1	-0.01926	-5.36438	5.08082	-9.6945
 382	1	2	0.003715	-5.50027	5.86965	-8.93169
 383	1	2	0.000131	-6.1518	5.26148	-10.4827
 384	1	1	-0.031072	-5.67189	3.67585	-9.08528
 385	1	2	-0.002086	-5.7542	2.83537	-9.759
 386	1	2	-0.003252	-4.91728	3.43117	-8.31386
 387	1	1	0.083103	-6.92939	3.75063	-8.20075
 388	1	2	-0.003597	-7.71778	4.24898	-8.78358
 389	1	2	-0.00033	-7.3188	2.66992	-8.11064
 390	1	1	0.015717	-6.72976	4.39421	-6.86936
 391	1	2	-0.004333	-6.05464	3.74936	-6.22033
 392	1	2	-0.003064	-6.39296	5.43979	-6.95705
 393	1	6	0.43523	-8.09135	4.40324	-6.13504
 394	1	7	-0.39711	2.57962	7.82101	-13.6915
 395	1	4	-0.041868	1.97855	8.96511	-11.8625
 396	1	4	-0.011544	1.4102	9.71418	-13.5183
 397	1	8	0.237688	2.77059	7.00745	-13.1398
 398	1	9	-0.49758	-8.89706	5.32198	-6.10098
 399	1	1	0.57552	14.5952	2.47324	-14.0893
 400	1	1	-1.07208	14.7911	3.71484	-13.2258
 401	1	2	0.119263	15.6234	3.6493	-12.4902
 402	1	2	0.211544	14.9886	4.65432	-13.7784
 403	1	1	0.745843	13.5449	3.91214	-12.3944
 404	1	2	-0.177131	13.095	2.94533	-12.0643
 405	1	2	-0.142119	13.8531	4.55233	-11.4679
 406	1	1	0.080873	12.4776	4.76277	-13.224
 407	1	2	0.018859	12.8072	5.7752	-13.1356
 408	1	2	-0.02655	12.4063	4.42378	-14.2062
 409	1	1	-0.221824	11.0537	4.70024	-12.4664
 410	1	2	0.031284	10.828	3.72755	-11.9873
 411	1	2	0.013242	11.1641	5.27557	-11.5213
 412	1	1	0.073218	9.72767	5.03213	-13.3082
 413	1	2	-0.024643	9.77669	6.09506	-13.4044
 414	1	2	-0.008342	9.78343	4.63908	-14.3243
 415	1	1	0.04656	8.38393	4.5487	-12.6407
 416	1	2	-0.007327	8.20122	3.46012	-12.9295
 417	1	2	0.003322	8.49844	4.71445	-11.5267
 418	1	1	-0.01926	7.18693	5.42571	-12.8716
 419	1	2	0.003715	6.61766	5.11487	-13.7493
 420	1	2	0.000131	6.38516	5.262	-12.1356
 421	1	1	-0.031072	7.37332	6.94585	-12.9531
 422	1	2	-0.002086	8.0166	7.3396	-12.179
 423	1	2	-0.003252	7.7079	7.14125	-13.9378
 424	1	1	0.083103	5.97524	7.71537	-12.7589
 425	1	2	-0.003597	5.58225	7.59404	-11.7314
 426	1	2	-0.00033	6.10837	8.78753	-12.8343
 427	1	1	0.015717	5.02318	7.31963	-13.8874
 428	1	2	-0.004333	5.51222	7.21482	-14.8495
 429	1	2	-0.003064	4.55524	6.3434	-13.5864
 430	1	6	0.43523	3.85352	8.41332	-14.152
 431	1	7	-0.39711	15.0011	1.38114	-13.2552
 432	1	4	-0.041868	15.3369	2.68783	-14.8554
 433	1	4	-0.011544	13.5665	2.34156	-14.48
 434	1	8	0.237688	15.9666	1.65244	-12.959
 435	1	9	-0.49758	3.94684	9.59004	-13.7209
 436	1	1	0.304671	13.262	-0.418932	-11.3271
 437	1	1	-1.24578	13.8252	-1.43534	-12.2449
 438	1	1	0.921237	15.205	-1.06551	-12.8451
 439	1	2	0.238751	13.1854	-1.42852	-13.1296
 440	1	2	0.241495	13.8867	-2.40215	-11.7328
 441	1	1	-0.299014	15.0696	0.0205604	-13.8628
 442	1	2	-0.179791	15.3953	-1.94642	-13.3084
 443	1	2	-0.17909	15.867	-0.701445	-12.0572
 444	1	2	0.080952	16.0362	-0.0536969	-14.5009
 445	1	2	0.084393	14.2059	-0.0334457	-14.5696
 446	1	3	-0.116242	14.33	-0.277134	-10.3876
 447	1	4	0.075247	12.3822	-0.76743	-10.8975
 448	1	4	0.07317	13.0665	0.484408	-11.8869
 449	1	1	0.57552	25.4407	-0.32243	-12.9936
 450	1	1	-1.07208	24.0635	0.100154	-12.4248
 451	1	2	0.119263	23.7019	-0.699817	-11.8242
 452	1	2	0.211544	24.1527	0.9293	-11.8235
 453	1	1	0.745843	23.0384	0.464348	-13.53
 454	1	2	-0.177131	23.3621	1.33414	-14.1174
 455	1	2	-0.142119	23.1173	-0.392536	-14.1288
 456	1	1	0.080873	21.641	0.793695	-12.7704
 457	1	2	0.018859	20.8809	1.01363	-13.5787
 458	1	2	-0.02655	21.3128	-0.138414	-12.2201
 459	1	1	-0.221824	21.7106	2.01098	-11.7783
 460	1	2	0.031284	22.2542	1.76862	-10.8138
 461	1	2	0.013242	22.4466	2.74128	-12.2451
 462	1	1	0.073218	20.3528	2.77643	-11.5265
 463	1	2	-0.024643	20.651	3.72653	-11.2986
 464	1	2	-0.008342	19.8179	2.71216	-12.4819
 465	1	1	0.04656	19.492	2.47329	-10.3277
 466	1	2	-0.007327	19.0494	1.52182	-10.4325
 467	1	2	0.003322	20.1343	2.32884	-9.41958
 468	1	1	-0.01926	18.5061	3.58172	-9.97022
 469	1	2	0.003715	18.9169	4.50932	-9.44602
 470	1	2	0.000131	17.9004	3.85072	-10.9364
 471	1	1	-0.031072	17.3181	3.19964	-9.03224
 472	1	2	-0.002086	17.7668	2.85909	-8.04688
 473	1	2	-0.003252	16.6904	4.06303	-8.8193
 474	1	1	0.083103	16.392	2.0805	-9.65265
 475	1	2	-0.003597	15.8884	2.67111	-10.4142
 476	1	2	-0.00033	16.9619	1.28288	-10.0878
 477	1	1	0.015717	15.3092	1.39352	-8.72829
 478	1	2	-0.004333	15.7765	0.586979	-8.19982
 479	1	2	-0.003064	14.8848	2.18876	-8.04591
 480	1	6	0.43523	14.1672	0.936487	-9.73878
 481	1	7	-0.39711	26.376	-0.695931	-11.8067
 482	1	4	-0.041868	25.8761	0.556785	-13.6225
 483	1	4	-0.011544	25.2425	-1.23688	-13.5593
 484	1	8	0.237688	25.8434	-1.36236	-11.3064
 485	1	9	-0.49758	13.1397	1.64645	-9.82981
 486	1	1	0.304671	26.4369	-0.391354	-7.05411
 487	1	1	-1.24578	26.2053	-0.390419	-8.57654
 488	1	1	0.921237	27.3965	-0.255315	-9.52606
 489	1	2	0.238751	25.4743	0.439553	-8.72838
 490	1	2	0.241495	25.6599	-1.25056	-8.96948
 491	1	1	-0.299014	26.8465	0.319095	-10.8422
 492	1	2	-0.179791	27.8237	-1.26295	-9.57878
 493	1	2	-0.17909	28.147	0.406697	-9.23404
 494	1	2	0.080952	26.0301	1.10051	-10.6253
 495	1	2	0.084393	27.6434	0.946124	-11.3318
 496	1	3	-0.116242	26.6077	0.966699	-6.70778
 497	1	4	0.075247	27.2819	-1.01454	-6.7439
 498	1	4	0.07317	25.5863	-0.890957	-6.49447
 499	1	1	0.57552	22.1309	7.60646	0.852512
 500	1	1	-1.07208	22.2137	8.53198	-0.377112
 501	1	2	0.119263	22.3825	9.47272	0.230195
 502	1	2	0.211544	22.9841	8.31779	-1.10607
 503	1	1	0.745843	20.8808	8.70188	-1.27201
 504	1	2	-0.177131	20.2046	9.04975	-0.4449
 505	1	2	-0.142119	21.1458	9.41055	-1.99312
 506	1	1	0.080873	20.1205	7.40133	-1.81707
 507	1	2	0.018859	19.7704	7.00628	-0.931101
 508	1	2	-0.02655	19.2182	7.53411	-2.51635
 509	1	1	-0.221824	20.9487	6.38207	-2.60619
 510	1	2	0.031284	21.2952	5.89709	-1.70658
 511	1	2	0.013242	20.3758	5.63361	-3.03293
 512	1	1	0.073218	22.0952	6.77994	-3.64761
 513	1	2	-0.024643	21.6679	7.4531	-4.38634
 514	1	2	-0.008342	22.7162	7.57926	-3.13883
 515	1	1	0.04656	22.908	5.62432	-4.26578
 516	1	2	-0.007327	23.8003	5.76116	-3.74988
 517	1	2	0.003322	22.3871	4.60741	-4.2857
 518	1	1	-0.01926	23.4961	6.05883	-5.53615
 519	1	2	0.003715	22.6987	6.09006	-6.24859
 520	1	2	0.000131	23.8466	7.08047	-5.4462
 521	1	1	-0.031072	24.7514	5.07024	-5.85271
 522	1	2	-0.002086	25.0553	5.2065	-6.86083
 523	1	2	-0.003252	25.5988	5.55227	-5.40504
 524	1	1	0.083103	24.6978	3.51183	-5.681
 525	1	2	-0.003597	24.1641	3.40482	-4.72038
 526	1	2	-0.00033	24.087	3.06642	-6.50308
 527	1	1	0.015717	26.1599	3.05446	-5.7204
 528	1	2	-0.004333	26.6626	3.14093	-6.64784
 529	1	2	-0.003064	26.8973	3.52388	-5.03046
 530	1	6	0.43523	26.1621	1.51513	-5.56666
 531	1	7	-0.39711	23.2637	7.66171	1.68383
 532	1	4	-0.041868	21.8346	6.49653	0.689159
 533	1	4	-0.011544	21.1991	8.04481	1.36852
 534	1	8	0.237688	23.6217	8.5567	1.33826
 535	1	9	-0.49758	25.3714	0.912182	-4.82905

Velocities

   1	0.00938443	0.0012407	0.00639297
   2	0.0113237	-0.00313867	0.00480204
   3	0.00279211	-0.00797589	0.00734908
   4	0.00787961	-0.00492698	0.00983214
   5	0.0125882	-0.00777861	0.00539578
   6	0.011109	-0.00562354	0.0100034
   7	-0.00504941	-0.0065216	0.00314788
   8	-5.22857e-05	-0.0153994	0.0126856
   9	0.0124304	-0.00488559	0.00783094
  10	0.0070043	-0.00234171	0.01578
  11	0.0101776	-0.00500637	0.00416761
  12	0.0137875	0.00751361	0.00160143
  13	0.00306662	0.00302632	0.00997443
  14	0.00417111	-0.00821024	0.00278097
  15	0.00571885	-0.00479373	0.00145008
  16	0.00680703	-0.00482893	0.00604684
  17	0.00751205	-0.00248502	0.0011452
  18	0.00874508	-0.00715493	0.000403563
  19	0.0114231	-0.00501579	0.00636987
  20	0.0069286	-0.0079942	0.00400582
  21	0.00548623	-0.0045533	0.00720065
  22	0.0165191	-0.00899622	0.00267225
  23	0.0167105	-0.00221797	0.00750521
  24	0.00548402	-0.00810059	0.00515147
  25	0.00665407	-0.0128882	-0.00521165
  26	0.00332487	-0.00676845	0.000822183
  27	-0.00194858	-0.00484092	0.00546439
  28	0.00548235	-0.00693783	-2.15017e-05
  29	0.00703408	-0.00605923	0.000377244
  30	0.00378156	-0.0104649	-0.00379728
  31	0.00602827	-0.00570213	-0.000419219
  32	0.00419954	-0.00647195	0.00454367
  33	-0.000778673	-0.0108895	-0.00711839
  34	0.00940324	-0.00162046	-0.00343168
  35	0.00216797	-0.0060921	0.00256006
  36	0.00221818	-0.00578569	0.00189535
  37	0.00318213	-0.0084643	0.00652038
  38	-0.000477084	0.0029985	0.00463376
  39	-0.00750272	-0.00679128	0.00900625
  40	0.00463585	-0.00354712	-0.00394985
  41	0.00514322	-0.00353255	-0.00175391
  42	0.0125891	-0.00622412	0.00052775
  43	0.00526419	-0.00348804	-0.00616192
  44	0.00110223	-0.00633163	0.00279881
  45	-0.00374381	-0.0134864	-0.00231311
  46	-0.00278442	-0.00652792	0.00873719
  47	0.00526775	-0.00224786	0.000316013
  48	0.00589301	0.000360121	9.43844e-05
  49	0.00523646	-0.00137956	-0.00771095
  50	0.00570809	-0.00869279	0.000231449
  51	-0.000746942	-0.0137699	-0.00428462
  52	0.00740736	-0.0130055	0.00480157
  53	0.00567029	-0.00941243	0.00362752
  54	0.00638058	-0.0159467	-0.00298729
  55	0.00869121	-0.0115063	0.00892629
  56	0.00651704	-0.00536496	0.00413063
  57	0.00937306	-0.00408851	0.0054173
  58	0.00300308	-0.00366515	0.00313268
  59	0.00285313	-0.00217024	-2.2551e-05
  60	0.000486305	0.00866689	-0.0056409
  61	-0.00109196	-0.00414152	5.97928e-06
  62	0.00332863	-0.00777987	0.00813817
  63	0.00893148	-0.0164455	0.013232
  64	0.00724478	0.000825636	0.0105659
  65	0.00448639	-0.00761045	0.00742235
  66	0.00277806	-0.0121242	0.00917367
  67	0.00608424	-0.0117773	0.00527438
  68	0.00242217	-0.00782435	0.00467286
  69	0.00100669	-0.00319674	0.0021638
  70	-0.000250177	-0.00962086	0.00299103
  71	0.0069289	-0.00601967	0.00645952
  72	0.00411623	-0.00207295	-0.00113823
  73	0.00571272	-0.00236237	-0.00747019
  74	0.00297285	-0.00199332	-0.00292508
  75	0.00590318	-0.00034159	-0.00252642
  76	0.00273641	-0.00207902	0.00304582
  77	0.0016032	0.000230653	0.00217964
  78	0.000176677	-0.00508814	-0.00365513
  79	0.0104826	-0.0161089	-0.00167168
  80	-0.0026796	-0.00664286	-0.00646576
  81	-0.0013247	-0.00333523	-0.00199554
  82	0.000967688	-0.00232859	-8.41503e-05
  83	-0.00200342	-0.00845005	0.000570671
  84	0.00195959	-0.00357741	0.000695949
  85	0.00358276	-0.000510639	0.00214933
  86	0.00368066	-0.00490593	-0.000607813
  87	0.00209581	-0.00400643	0.00163758
  88	0.00155691	0.00148288	0.00112409
  89	0.00839281	0.000705716	-0.00231466
  90	0.00192463	-0.00461131	-6.65317e-05
  91	0.00155194	-0.00350344	0.00218156
  92	0.00246494	-0.00298303	-0.0028647
  93	0.000623627	-0.00702086	0.000116713
  94	0.00338938	-0.00616955	-0.000384607
  95	0.000754665	-0.00605723	-0.000768376
  96	0.00159673	-0.00596103	0.00186329
  97	0.00137356	-0.0101583	0.00551631
  98	-0.00362739	-0.00465133	-0.00465
  99	-0.00110427	-0.00711655	-0.0020053
 100	-1.80816e-05	-0.00120515	0.00300292
 101	0.00579371	-0.0144658	0.00462123