pySIMM System Object

933 atoms
932 bonds
1807 angles
2571 dihedrals
0 impropers

10 atom types
12 bond types
28 angle types
12 dihedral types
1 improper types

-79.054927 79.054927 xlo xhi
-79.054927 79.054927 ylo yhi
-79.054927 79.054927 zlo zhi

Masses

   1	12.01	# c3
   2	1.008	# hc
   3	16.0	# oh
   4	1.008	# h1
   5	1.008	# ho
   6	12.01	# c
   7	14.01	# n3
   8	1.008	# hn
   9	16.0	# o
  10	1.008	# h4

Pair Coeffs

   1	0.1094	3.3996695084235347	# c3
   2	0.0157	2.649532787749369	# hc
   3	0.2104	3.0664733878390478	# oh
   4	0.0157	2.471353044121301	# h1
   5	0.0047	0.5379246460131368	# ho
   6	0.086	3.3996695084235347	# c
   7	0.17	3.249998523775958	# n3
   8	0.0157	1.069078461768407	# hn
   9	0.21	2.959921901149463	# o
  10	0.015	2.5105525877194763	# h4

Bond Coeffs

   1	371.4	0.973	# ho,oh
   2	300.9	1.5375	# c3,c3
   3	330.6	1.0969	# c3,h1
   4	330.6	1.0969	# c3,hc
   5	316.7	1.4233	# c3,oh
   6	392.4	1.019	# hn,n3
   7	637.7	1.2183	# c,o
   8	313.0	1.5241	# c,c3
   9	325.9	1.4647	# c3,n3
  10	310.7	1.1121	# c,h4
  11	400.1	1.3513	# c,oh
  12	325.9	1.465	# n3,c

Angle Coeffs

   1	46.34	109.8	# c3,c3,hc
   2	47.38	107.26	# c3,oh,ho
   3	39.4	107.58	# hc,c3,hc
   4	62.86	111.51	# c3,c3,c3
   5	67.47	110.19	# c3,c3,oh
   6	46.39	109.56	# c3,c3,h1
   7	50.93	110.26	# h1,c3,oh
   8	39.24	108.46	# h1,c3,h1
   9	45.64	114.64	# c3,c,h4
  10	41.4	106.4	# hn,n3,hn
  11	49.53	109.88	# h1,c3,n3
  12	46.93	108.77	# c,c3,hc
  13	66.02	111.04	# c3,c3,n3
  14	67.4	123.2	# c3,c,o
  15	54.22	120.7	# h4,c,o
  16	63.27	111.04	# c,c3,c3
  17	47.42	109.29	# c3,n3,hn
  18	67.9	109.98	# c3,oh,c
  19	68.4	112.73	# c3,c,oh
  20	75.92	122.1	# o,c,oh
  21	63.8	112.35	# c3,n3,c
  22	47.4	109.29	# hn,n3,c
  23	66.0	111.04	# n3,c,c3
  24	70.9	110.7	# n3,c,o
  25	63.82	112.35	# c3,n3,c3
  26	49.55	109.8	# hc,c3,n3
  27	62.7	112.48	# c3,oh,c3
  28	51.11	109.5	# hc,c3,oh

Dihedral Coeffs

   1	1	0.15555555555555556	3	0	# X,c3,c3,X
   2	1	0.16	3	0	# hc,c3,c3,c3
   3	2	0.16	3	0	0.25	1	0	# ho,oh,c3,c3
   4	3	0.18	3	0	0.25	2	180	0.2	1	180	# c3,c3,c3,c3
   5	1	0.15	3	0	# hc,c3,c3,hc
   6	1	0.16666666666666666	3	0	# X,c3,oh,X
   7	2	0.0	3	0	0.25	1	0	# hc,c3,c3,oh
   8	1	0.3	3	0	# X,c3,n3,X
   9	1	0.0	2	180	# X,c,c3,X
  10	3	0.8	1	0	0.0	2	0	0.08	3	180	# hc,c3,c,o
  11	1	2.3	2	180	# X,c,oh,X
  12	2	0.3	3	0	0.48	2	180	# c3,c3,n3,c3

Improper Coeffs

   1	10.5	-1	2	# c,X,X,o

Atoms

   1	1	1	0.304671	-73.7692	-22.2708	32.4328
   2	1	1	-1.24578	-74.8978	-23.0114	33.1733
   3	1	1	0.921237	-74.3106	-24.2432	33.8473
   4	1	2	0.238751	-75.6814	-23.3216	32.48
   5	1	2	0.241495	-75.3323	-22.3653	33.9384
   6	1	1	-0.299014	-75.3885	-24.979	34.6342
   7	1	2	-0.179791	-73.4987	-23.9227	34.5072
   8	1	2	-0.17909	-73.8937	-24.8957	33.0714
   9	1	2	0.080952	-76.1815	-25.2876	33.948
  10	1	2	0.084393	-75.8301	-24.3067	35.3723
  11	1	3	-0.116242	-74.3136	-21.1863	31.6902
  12	1	4	0.075247	-73.2444	-22.9601	31.7458
  13	1	4	0.07317	-73.0335	-21.8961	33.1654
  14	1	1	0.57552	-68.664	-11.1689	27.2634
  15	1	1	-1.07208	-69.1848	-12.6007	27.2556
  16	1	2	0.119263	-68.6002	-13.2311	27.9361
  17	1	2	0.211544	-70.2202	-12.589	27.6136
  18	1	1	0.745843	-69.1608	-13.1799	25.831
  19	1	2	-0.177131	-69.7466	-12.5172	25.1908
  20	1	2	-0.142119	-68.13	-13.1429	25.4715
  21	1	1	0.080873	-69.6527	-14.6517	25.7021
  22	1	2	0.018859	-69.4163	-15.0049	24.6943
  23	1	2	-0.02655	-69.0455	-15.2688	26.3769
  24	1	1	-0.221824	-71.1614	-14.9303	25.9801
  25	1	2	0.031284	-71.4779	-14.369	26.8698
  26	1	2	0.013242	-71.7833	-14.5778	25.142
  27	1	1	0.073218	-71.4016	-16.4425	26.2417
  28	1	2	-0.024643	-71.1338	-17.0183	25.3466
  29	1	2	-0.008342	-70.7165	-16.7597	27.0368
  30	1	1	0.04656	-72.851	-16.7933	26.6707
  31	1	2	-0.007327	-73.2019	-16.0597	27.4076
  32	1	2	0.003322	-73.5205	-16.72	25.8062
  33	1	1	-0.01926	-72.9366	-18.2097	27.2991
  34	1	2	0.003715	-72.6085	-18.9605	26.5704
  35	1	2	0.000131	-72.2294	-18.2555	28.1353
  36	1	1	-0.031072	-74.3505	-18.5855	27.8085
  37	1	2	-0.002086	-74.8419	-17.7193	28.2759
  38	1	2	-0.003252	-74.9684	-18.8722	26.9437
  39	1	1	0.083103	-74.3064	-19.7566	28.8103
  40	1	2	-0.003597	-75.2691	-20.2848	28.8063
  41	1	2	-0.00033	-73.5552	-20.4809	28.4655
  42	1	1	0.015717	-73.9929	-19.3103	30.2523
  43	1	2	-0.004333	-73.2909	-18.4696	30.2594
  44	1	2	-0.003064	-74.91	-18.9658	30.7486
  45	1	6	0.43523	-73.376	-20.4559	31.0353
  46	1	7	-0.39711	-67.2392	-11.194	26.9918
  47	1	4	-0.041868	-68.8465	-10.7392	28.2557
  48	1	4	-0.011544	-69.1963	-10.5643	26.5152
  49	1	8	0.237688	-66.8264	-11.7841	27.7023
  50	1	9	-0.49758	-72.1711	-20.5804	31.1798
  51	1	1	0.57552	-57.7502	-1.65783	27.717
  52	1	1	-1.07208	-57.594	-2.69909	26.6153
  53	1	2	0.119263	-57.4296	-2.2207	25.6522
  54	1	2	0.211544	-56.7396	-3.34655	26.8348
  55	1	1	0.745843	-58.8703	-3.54491	26.5425
  56	1	2	-0.177131	-59.066	-3.93785	27.5421
  57	1	2	-0.142119	-59.6963	-2.86965	26.2858
  58	1	1	0.080873	-58.7987	-4.70956	25.5175
  59	1	2	0.018859	-58.4233	-4.32692	24.5576
  60	1	2	-0.02655	-58.0738	-5.4697	25.8636
  61	1	1	-0.221824	-60.1833	-5.37284	25.301
  62	1	2	0.031284	-60.5536	-5.71654	26.2725
  63	1	2	0.013242	-60.8883	-4.60798	24.9398
  64	1	1	0.073218	-60.1805	-6.55484	24.2988
  65	1	2	-0.024643	-59.733	-6.22393	23.357
  66	1	2	-0.008342	-59.5428	-7.35842	24.6837
  67	1	1	0.04656	-61.5994	-7.11993	24.0021
  68	1	2	-0.007327	-62.2022	-6.35433	23.5045
  69	1	2	0.003322	-61.5053	-7.95031	23.2987
  70	1	1	-0.01926	-62.3399	-7.60877	25.279
  71	1	2	0.003715	-61.6894	-8.30225	25.8372
  72	1	2	0.000131	-62.5337	-6.74694	25.9363
  73	1	1	-0.031072	-63.6933	-8.30866	24.9981
  74	1	2	-0.002086	-64.2994	-7.66902	24.3394
  75	1	2	-0.003252	-63.4958	-9.23589	24.439
  76	1	1	0.083103	-64.5174	-8.64092	26.2775
  77	1	2	-0.003597	-63.8872	-9.19557	26.9854
  78	1	2	-0.00033	-64.8197	-7.71308	26.7743
  79	1	1	0.015717	-65.7785	-9.48592	25.9394
  80	1	2	-0.004333	-66.4185	-8.92641	25.2488
  81	1	2	-0.003064	-65.4755	-10.3916	25.4072
  82	1	6	0.43523	-66.6346	-9.88141	27.1515
  83	1	7	-0.39711	-56.5254	-0.851108	27.7947
  84	1	4	-0.041868	-57.8997	-2.16915	28.6688
  85	1	4	-0.011544	-58.6251	-1.01752	27.528
  86	1	8	0.237688	-55.7602	-1.4886	27.9988
  87	1	9	-0.49758	-66.318	-9.74564	28.3188
  88	1	1	0.304671	-55.9123	3.02533	25.4788
  89	1	1	-1.24578	-56.8057	1.86624	25.0021
  90	1	1	0.921237	-57.2873	0.988017	26.1482
  91	1	2	0.238751	-56.2926	1.23963	24.2733
  92	1	2	0.241495	-57.6933	2.2753	24.5116
  93	1	1	-0.299014	-56.164	0.0410454	26.6486
  94	1	2	-0.179791	-58.14	0.41007	25.7762
  95	1	2	-0.17909	-57.6388	1.63756	26.9485
  96	1	2	0.080952	-55.8342	-0.568619	25.8015
  97	1	2	0.084393	-55.3003	0.650535	26.9433
  98	1	3	-0.116242	-55.4127	3.66271	24.3065
  99	1	4	0.075247	-55.0775	2.66886	26.0971
 100	1	4	0.07317	-56.5061	3.72817	26.0784
 101	1	1	0.57552	-60.0035	12.9219	16.4415
 102	1	1	-1.07208	-58.6777	12.7002	17.1538
 103	1	2	0.119263	-58.4773	11.6271	17.2107
 104	1	2	0.211544	-57.8633	13.1731	16.5965
 105	1	1	0.745843	-58.7747	13.3045	18.5681
 106	1	2	-0.177131	-58.9443	14.3766	18.458
 107	1	2	-0.142119	-59.6799	12.897	19.0336
 108	1	1	0.080873	-57.5762	13.0504	19.5243
 109	1	2	0.018859	-56.7249	13.6745	19.2249
 110	1	2	-0.02655	-57.8635	13.3757	20.5377
 111	1	1	-0.221824	-57.1405	11.5612	19.5479
 112	1	2	0.031284	-58.0357	10.9338	19.4846
 113	1	2	0.013242	-56.5382	11.3496	18.6565
 114	1	1	0.073218	-56.3662	11.1488	20.8155
 115	1	2	-0.024643	-55.4772	11.7802	20.9437
 116	1	2	-0.008342	-57.0113	11.3215	21.6829
 117	1	1	0.04656	-55.9479	9.66703	20.7787
 118	1	2	-0.007327	-56.7198	9.07189	20.2724
 119	1	2	0.003322	-55.0337	9.57206	20.182
 120	1	1	-0.01926	-55.7314	9.06535	22.1809
 121	1	2	0.003715	-55.1178	9.73773	22.7942
 122	1	2	0.000131	-56.7013	8.95261	22.6863
 123	1	1	-0.031072	-55.031	7.70264	22.0489
 124	1	2	-0.002086	-55.5851	7.07351	21.3365
 125	1	2	-0.003252	-54.0157	7.8384	21.64
 126	1	1	0.083103	-54.9406	6.97539	23.4014
 127	1	2	-0.003597	-54.3349	7.5694	24.0951
 128	1	2	-0.00033	-55.95	6.91036	23.8278
 129	1	1	0.015717	-54.358	5.55572	23.2738
 130	1	2	-0.004333	-54.8018	5.03915	22.4106
 131	1	2	-0.003064	-53.2759	5.58564	23.104
 132	1	6	0.43523	-54.6492	4.75695	24.5518
 133	1	7	-0.39711	-60.0405	12.1026	15.2518
 134	1	4	-0.041868	-60.1203	13.9803	16.1854
 135	1	4	-0.011544	-60.8176	12.6329	17.1126
 136	1	8	0.237688	-59.4415	12.5261	14.5523
 137	1	9	-0.49758	-54.5027	5.2318	25.6673
 138	1	1	0.57552	-68.0709	5.06606	20.6126
 139	1	1	-1.07208	-69.0323	5.30258	19.4629
 140	1	2	0.119263	-69.8966	4.6368	19.5804
 141	1	2	0.211544	-69.416	6.32089	19.4881
 142	1	1	0.745843	-68.4054	5.02203	18.0903
 143	1	2	-0.177131	-67.9746	4.0174	18.1205
 144	1	2	-0.142119	-69.2241	4.99849	17.3542
 145	1	1	0.080873	-67.3285	6.04223	17.6141
 146	1	2	0.018859	-66.4337	5.94502	18.2388
 147	1	2	-0.02655	-67.0355	5.73664	16.6021
 148	1	1	-0.221824	-67.7893	7.53278	17.5881
 149	1	2	0.031284	-68.7577	7.58938	17.0676
 150	1	2	0.013242	-67.964	7.87529	18.6151
 151	1	1	0.073218	-66.8116	8.54108	16.9196
 152	1	2	-0.024643	-67.2668	9.54001	16.9445
 153	1	2	-0.008342	-65.9018	8.60153	17.5251
 154	1	1	0.04656	-66.4462	8.18149	15.452
 155	1	2	-0.007327	-65.8727	7.24276	15.4347
 156	1	2	0.003322	-67.3735	7.99803	14.8981
 157	1	1	-0.01926	-65.6307	9.24225	14.6768
 158	1	2	0.003715	-65.5414	8.92283	13.6295
 159	1	2	0.000131	-66.1827	10.1874	14.6697
 160	1	1	-0.031072	-64.2213	9.46131	15.2512
 161	1	2	-0.002086	-64.3113	9.78016	16.301
 162	1	2	-0.003252	-63.658	8.51804	15.2436
 163	1	1	0.083103	-63.4499	10.5386	14.4675
 164	1	2	-0.003597	-63.2593	10.201	13.4423
 165	1	2	-0.00033	-64.0542	11.4535	14.4033
 166	1	1	0.015717	-62.1265	10.829	15.19
 167	1	2	-0.004333	-62.3335	10.9871	16.2562
 168	1	2	-0.003064	-61.4616	9.95505	15.1288
 169	1	6	0.43523	-61.3817	12.0767	14.7096
 170	1	7	-0.39711	-68.8555	5.23169	21.8138
 171	1	4	-0.041868	-67.2609	5.80067	20.574
 172	1	4	-0.011544	-67.6504	4.05075	20.5684
 173	1	8	0.237688	-69.238	6.17006	21.8017
 174	1	9	-0.49758	-61.349	12.5248	13.5799
 175	1	1	0.57552	-71.5326	-5.02735	30.0669
 176	1	1	-1.07208	-71.1612	-3.55697	30.2565
 177	1	2	0.119263	-71.9531	-3.04241	30.8187
 178	1	2	0.211544	-70.2265	-3.47304	30.8154
 179	1	1	0.745843	-70.9923	-2.88097	28.8933
 180	1	2	-0.177131	-70.2088	-3.41149	28.3362
 181	1	2	-0.142119	-71.9294	-3.01725	28.3473
 182	1	1	0.080873	-70.6445	-1.37665	28.9894
 183	1	2	0.018859	-71.3236	-0.886194	29.696
 184	1	2	-0.02655	-69.6284	-1.25163	29.3748
 185	1	1	-0.221824	-70.7818	-0.725181	27.6006
 186	1	2	0.031284	-70.0518	-1.17242	26.9133
 187	1	2	0.013242	-71.7747	-0.947524	27.1908
 188	1	1	0.073218	-70.6126	0.796268	27.6089
 189	1	2	-0.024643	-70.8901	1.15994	26.613
 190	1	2	-0.008342	-71.3176	1.25395	28.3096
 191	1	1	0.04656	-69.1734	1.2163	27.9665
 192	1	2	-0.007327	-69.0692	1.2431	29.0609
 193	1	2	0.003322	-68.451	0.477835	27.5988
 194	1	1	-0.01926	-68.8236	2.59864	27.3746
 195	1	2	0.003715	-69.6327	3.31143	27.5976
 196	1	2	0.000131	-67.9241	2.97597	27.8725
 197	1	1	-0.031072	-68.5626	2.53201	25.8438
 198	1	2	-0.002086	-67.6607	1.92425	25.6559
 199	1	2	-0.003252	-69.3842	2.02237	25.3328
 200	1	1	0.083103	-68.3968	3.92302	25.1973
 201	1	2	-0.003597	-69.3085	4.50862	25.3722
 202	1	2	-0.00033	-67.5617	4.45885	25.6725
 203	1	1	0.015717	-68.1482	3.80048	23.6777
 204	1	2	-0.004333	-67.2365	3.23061	23.4906
 205	1	2	-0.003064	-68.9753	3.22883	23.2178
 206	1	6	0.43523	-68.0147	5.15436	22.9787
 207	1	7	-0.39711	-71.5575	-5.68575	31.3581
 208	1	4	-0.041868	-70.7942	-5.52203	29.419
 209	1	4	-0.011544	-72.5154	-5.08901	29.5893
 210	1	8	0.237688	-72.1635	-5.13074	31.9531
 211	1	9	-0.49758	-68.0965	6.23179	23.5307
 212	1	1	0.57552	-78.2021	-12.2423	25.7215
 213	1	1	-1.07208	-76.7514	-12.4269	26.1194
 214	1	2	0.119263	-76.2742	-13.2373	25.5375
 215	1	2	0.211544	-76.1981	-11.4888	25.9607
 216	1	1	0.745843	-76.7778	-12.7877	27.6105
 217	1	2	-0.177131	-77.3927	-12.0556	28.1412
 218	1	2	-0.142119	-77.2657	-13.7656	27.7039
 219	1	1	0.080873	-75.3649	-12.8436	28.223
 220	1	2	0.018859	-74.7516	-13.5303	27.6291
 221	1	2	-0.02655	-74.9072	-11.8492	28.1438
 222	1	1	-0.221824	-75.3492	-13.2947	29.706
 223	1	2	0.031284	-75.9249	-12.5906	30.3226
 224	1	2	0.013242	-75.8438	-14.272	29.7941
 225	1	1	0.073218	-73.9073	-13.4125	30.2514
 226	1	2	-0.024643	-73.9599	-13.9049	31.2354
 227	1	2	-0.008342	-73.3121	-14.0689	29.597
 228	1	1	0.04656	-73.2088	-12.0407	30.3972
 229	1	2	-0.007327	-72.8624	-11.6962	29.4149
 230	1	2	0.003322	-73.9446	-11.3169	30.7576
 231	1	1	-0.01926	-72.0272	-12.0711	31.3982
 232	1	2	0.003715	-72.4066	-12.2358	32.4152
 233	1	2	0.000131	-71.3702	-12.9173	31.1566
 234	1	1	-0.031072	-71.1851	-10.7677	31.352
 235	1	2	-0.002086	-70.332	-10.8769	32.0277
 236	1	2	-0.003252	-70.7678	-10.6601	30.3448
 237	1	1	0.083103	-71.9745	-9.47382	31.7132
 238	1	2	-0.003597	-72.8764	-9.43492	31.0884
 239	1	2	-0.00033	-72.3246	-9.52247	32.7557
 240	1	1	0.015717	-71.2079	-8.14671	31.4686
 241	1	2	-0.004333	-70.5473	-7.92071	32.3131
 242	1	2	-0.003064	-70.5782	-8.22645	30.5728
 243	1	6	0.43523	-72.1896	-6.98895	31.2666
 244	1	7	-0.39711	-78.3133	-11.9975	24.286
 245	1	4	-0.041868	-78.6412	-11.4052	26.2719
 246	1	4	-0.011544	-78.7549	-13.1605	25.9797
 247	1	8	0.237688	-77.5826	-12.5501	23.833
 248	1	9	-0.49758	-73.232	-6.90501	31.8836
 249	1	1	0.304671	76.4268	-11.6748	20.4987
 250	1	1	-1.24578	76.6713	-11.9596	22.0011
 251	1	1	0.921237	78.1756	-11.9806	22.2862
 252	1	2	0.238751	76.2552	-12.9328	22.2701
 253	1	2	0.241495	76.1992	-11.1907	22.6227
 254	1	1	-0.299014	78.4484	-12.3615	23.7536
 255	1	2	-0.179791	78.5604	-10.9833	22.0741
 256	1	2	-0.17909	78.6673	-12.6913	21.6139
 257	1	2	0.080952	78.288	-13.4448	23.8515
 258	1	2	0.084393	77.6772	-11.8741	24.3667
 259	1	3	-0.116242	75.0401	-11.8376	20.1608
 260	1	4	0.075247	77.0718	-12.3187	19.8778
 261	1	4	0.07317	76.7309	-10.6379	20.2776
 262	1	1	0.57552	63.5925	-21.0677	17.0722
 263	1	1	-1.07208	65.1165	-21.218	17.1403
 264	1	2	0.119263	65.3984	-22.2154	17.5182
 265	1	2	0.211544	65.5225	-21.1067	16.1355
 266	1	1	0.745843	65.7103	-20.1112	18.0312
 267	1	2	-0.177131	65.2069	-19.1826	17.7253
 268	1	2	-0.142119	65.4092	-20.3085	19.0646
 269	1	1	0.080873	67.2567	-19.8921	17.9535
 270	1	2	0.018859	67.7834	-20.6941	18.4816
 271	1	2	-0.02655	67.5834	-19.9434	16.9036
 272	1	1	-0.221824	67.6588	-18.4977	18.5301
 273	1	2	0.031284	67.0199	-17.7301	18.0699
 274	1	2	0.013242	67.4481	-18.4757	19.6152
 275	1	1	0.073218	69.1385	-18.1036	18.2834
 276	1	2	-0.024643	69.3475	-18.1248	17.2082
 277	1	2	-0.008342	69.7869	-18.8586	18.7436
 278	1	1	0.04656	69.4781	-16.7054	18.8638
 279	1	2	-0.007327	68.8126	-15.9506	18.4155
 280	1	2	0.003322	69.2777	-16.6987	19.9422
 281	1	1	-0.01926	70.9489	-16.2928	18.6098
 282	1	2	0.003715	71.6169	-17.0869	18.9608
 283	1	2	0.000131	71.1155	-16.2045	17.5334
 284	1	1	-0.031072	71.3225	-14.957	19.3009
 285	1	2	-0.002086	70.6363	-14.1677	18.9729
 286	1	2	-0.003252	71.2122	-15.0493	20.3884
 287	1	1	0.083103	72.7703	-14.5597	18.9561
 288	1	2	-0.003597	73.4279	-15.3486	19.3384
 289	1	2	-0.00033	72.9013	-14.518	17.8662
 290	1	1	0.015717	73.1644	-13.2051	19.5698
 291	1	2	-0.004333	72.735	-12.3867	18.9784
 292	1	2	-0.003064	72.7624	-13.1097	20.5874
 293	1	6	0.43523	74.683	-13.0384	19.6259
 294	1	7	-0.39711	63.0761	-22.0391	16.1326
 295	1	4	-0.041868	63.3362	-20.0576	16.7417
 296	1	4	-0.011544	63.1534	-21.2405	18.0609
 297	1	8	0.237688	63.5328	-21.8506	15.2532
 298	1	9	-0.49758	75.4693	-13.9034	19.2567
 299	1	1	0.57552	50.3006	-29.4884	12.5981
 300	1	1	-1.07208	51.0592	-28.1733	12.6367
 301	1	2	0.119263	51.3783	-27.9013	11.6314
 302	1	2	0.211544	50.4026	-27.3776	13.0128
 303	1	1	0.745843	52.2802	-28.2659	13.5603
 304	1	2	-0.177131	51.9555	-28.6092	14.5428
 305	1	2	-0.142119	52.9537	-29.0296	13.1469
 306	1	1	0.080873	53.006	-26.8944	13.6763
 307	1	2	0.018859	53.1618	-26.5	12.6657
 308	1	2	-0.02655	52.3558	-26.1819	14.203
 309	1	1	-0.221824	54.3784	-26.9692	14.3922
 310	1	2	0.031284	54.214	-27.2293	15.4444
 311	1	2	0.013242	54.9671	-27.7829	13.9521
 312	1	1	0.073218	55.1986	-25.6508	14.3027
 313	1	2	-0.024643	55.4127	-25.4273	13.2488
 314	1	2	-0.008342	54.5795	-24.8279	14.6836
 315	1	1	0.04656	56.53	-25.6804	15.1038
 316	1	2	-0.007327	56.3071	-25.7788	16.1717
 317	1	2	0.003322	57.1023	-26.5699	14.8143
 318	1	1	-0.01926	57.39	-24.4074	14.8692
 319	1	2	0.003715	57.6291	-24.3285	13.8
 320	1	2	0.000131	56.798	-23.5192	15.129
 321	1	1	-0.031072	58.7053	-24.3834	15.6897
 322	1	2	-0.002086	58.4763	-24.4939	16.7558
 323	1	2	-0.003252	59.3216	-25.2426	15.4046
 324	1	1	0.083103	59.5093	-23.0856	15.4662
 325	1	2	-0.003597	59.7143	-22.9794	14.3895
 326	1	2	-0.00033	58.9092	-22.2142	15.768
 327	1	1	0.015717	60.842	-23.0684	16.244
 328	1	2	-0.004333	60.6496	-23.0777	17.3267
 329	1	2	-0.003064	61.4292	-23.969	16.0087
 330	1	6	0.43523	61.6625	-21.829	15.899
 331	1	7	-0.39711	49.1561	-29.2915	11.7378
 332	1	4	-0.041868	49.9784	-29.7629	13.6088
 333	1	4	-0.011544	50.9498	-30.2866	12.2014
 334	1	8	0.237688	48.5957	-28.5511	12.1424
 335	1	9	-0.49758	61.5627	-21.2283	14.8476
 336	1	1	0.57552	38.3779	-34.4223	5.79926
 337	1	1	-1.07208	39.4681	-33.4888	5.2816
 338	1	2	0.119263	40.1743	-34.0361	4.64499
 339	1	2	0.211544	39.0046	-32.6903	4.68547
 340	1	1	0.745843	40.2189	-32.8595	6.4682
 341	1	2	-0.177131	39.4776	-32.4663	7.16645
 342	1	2	-0.142119	40.7413	-33.6733	6.97923
 343	1	1	0.080873	41.23	-31.7341	6.06496
 344	1	2	0.018859	41.7593	-32.0587	5.16257
 345	1	2	-0.02655	40.6788	-30.8251	5.78073
 346	1	1	-0.221824	42.3031	-31.3725	7.1467
 347	1	2	0.031284	41.8105	-31.0237	8.06136
 348	1	2	0.013242	42.8531	-32.2884	7.40762
 349	1	1	0.073218	43.3175	-30.2899	6.66639
 350	1	2	-0.024643	43.8251	-30.6554	5.76123
 351	1	2	-0.008342	42.7546	-29.3945	6.36636
 352	1	1	0.04656	44.3989	-29.8557	7.70642
 353	1	2	-0.007327	45.1232	-29.2123	7.1966
 354	1	2	0.003322	43.9222	-29.2396	8.4824
 355	1	1	-0.01926	45.1413	-31.0146	8.4053
 356	1	2	0.003715	44.4554	-31.5313	9.0812
 357	1	2	0.000131	45.4692	-31.7455	7.65199
 358	1	1	-0.031072	46.3605	-30.5192	9.21112
 359	1	2	-0.002086	47.0417	-29.9814	8.52952
 360	1	2	-0.003252	46.0429	-29.8019	9.98047
 361	1	1	0.083103	47.1253	-31.6975	9.85778
 362	1	2	-0.003597	46.4756	-32.2034	10.5946
 363	1	2	-0.00033	47.3386	-32.4362	9.07347
 364	1	1	0.015717	48.4718	-31.3363	10.5288
 365	1	2	-0.004333	48.9847	-32.2577	10.8186
 366	1	2	-0.003064	49.1183	-30.8369	9.79665
 367	1	6	0.43523	48.3484	-30.4786	11.785
 368	1	7	-0.39711	37.8212	-35.0835	4.64151
 369	1	4	-0.041868	37.6209	-33.8347	6.31853
 370	1	4	-0.011544	38.8	-35.1627	6.4952
 371	1	8	0.237688	37.6162	-34.34	3.9866
 372	1	9	-0.49758	47.3307	-30.2147	12.3887
 373	1	1	0.57552	29.7556	-42.9461	-2.08381
 374	1	1	-1.07208	30.6108	-41.909	-2.79556
 375	1	2	0.119263	30.8934	-42.2603	-3.80418
 376	1	2	0.211544	30.0603	-40.981	-2.91424
 377	1	1	0.745843	31.8865	-41.6351	-1.99054
 378	1	2	-0.177131	32.3498	-42.6014	-1.75254
 379	1	2	-0.142119	32.5662	-41.1098	-2.67228
 380	1	1	0.080873	31.7085	-40.7965	-0.698619
 381	1	2	0.018859	31.1833	-39.8623	-0.951531
 382	1	2	-0.02655	31.0775	-41.327	0.0237012
 383	1	1	-0.221824	33.0926	-40.4832	-0.0659852
 384	1	2	0.031284	33.5257	-41.3871	0.385543
 385	1	2	0.013242	33.7768	-40.1497	-0.853054
 386	1	1	0.073218	32.9925	-39.368	0.99672
 387	1	2	-0.024643	32.2644	-38.63	0.634434
 388	1	2	-0.008342	32.5615	-39.7869	1.91637
 389	1	1	0.04656	34.3147	-38.5987	1.28548
 390	1	2	-0.007327	34.8143	-38.3675	0.333883
 391	1	2	0.003322	34.0503	-37.6243	1.71634
 392	1	1	-0.01926	35.3112	-39.3202	2.21969
 393	1	2	0.003715	35.3695	-40.3853	1.95194
 394	1	2	0.000131	36.3085	-38.9059	2.06078
 395	1	1	-0.031072	34.9388	-39.1858	3.73172
 396	1	2	-0.002086	33.9441	-39.6096	3.90575
 397	1	2	-0.003252	35.6221	-39.827	4.30176
 398	1	1	0.083103	34.9935	-37.7529	4.36997
 399	1	2	-0.003597	34.2447	-37.1102	3.90092
 400	1	2	-0.00033	34.7094	-37.8235	5.43017
 401	1	1	0.015717	36.4034	-37.1025	4.26564
 402	1	2	-0.004333	37.1405	-37.7654	4.73832
 403	1	2	-0.003064	36.7061	-37.0064	3.21843
 404	1	6	0.43523	36.5459	-35.7214	4.92872
 405	1	7	-0.39711	28.4864	-42.9393	-2.77982
 406	1	4	-0.041868	29.6088	-42.6723	-1.0336
 407	1	4	-0.011544	30.2206	-43.9322	-2.1535
 408	1	8	0.237688	28.7059	-43.0	-3.76571
 409	1	9	-0.49758	35.7068	-34.8482	4.84023
 410	1	1	0.304671	23.9355	-44.9361	-3.32894
 411	1	1	-1.24578	25.3089	-45.0521	-2.6509
 412	1	1	0.921237	26.1836	-43.8823	-3.04551
 413	1	2	0.238751	25.8067	-45.9809	-2.94994
 414	1	2	0.241495	25.196	-45.0611	-1.57536
 415	1	1	-0.299014	27.5442	-44.0087	-2.36169
 416	1	2	-0.179791	25.6853	-42.9487	-2.74508
 417	1	2	-0.17909	26.3011	-43.8755	-4.1254
 418	1	2	0.080952	27.3881	-43.9903	-1.27732
 419	1	2	0.084393	27.9568	-44.9907	-2.61892
 420	1	3	-0.116242	23.1703	-46.1189	-3.07219
 421	1	4	0.075247	24.1208	-44.8266	-4.40649
 422	1	4	0.07317	23.3859	-44.0388	-2.99068
 423	1	1	0.57552	12.08	-48.7151	-8.62785
 424	1	1	-1.07208	12.4971	-49.8024	-7.65476
 425	1	2	0.119263	11.6641	-50.1075	-7.01885
 426	1	2	0.211544	12.8026	-50.6799	-8.22058
 427	1	1	0.745843	13.6846	-49.3614	-6.79811
 428	1	2	-0.177131	14.5241	-49.1665	-7.47534
 429	1	2	-0.142119	13.4209	-48.4309	-6.27923
 430	1	1	0.080873	14.0807	-50.4535	-5.75755
 431	1	2	0.018859	13.2884	-50.5245	-4.99984
 432	1	2	-0.02655	14.1442	-51.4309	-6.25507
 433	1	1	-0.221824	15.4453	-50.2096	-5.04702
 434	1	2	0.031284	15.5758	-50.9994	-4.29953
 435	1	2	0.013242	16.2563	-50.3447	-5.77765
 436	1	1	0.073218	15.5166	-48.8122	-4.34185
 437	1	2	-0.024643	15.4112	-48.0387	-5.11042
 438	1	2	-0.008342	14.6452	-48.7123	-3.6847
 439	1	1	0.04656	16.7763	-48.4886	-3.5277
 440	1	2	-0.007327	16.6476	-47.4659	-3.14964
 441	1	2	0.003322	16.8862	-49.1575	-2.66348
 442	1	1	-0.01926	18.0103	-48.5492	-4.4292
 443	1	2	0.003715	18.1869	-49.5951	-4.71909
 444	1	2	0.000131	17.8323	-47.9756	-5.34478
 445	1	1	-0.031072	19.2706	-48.0056	-3.72925
 446	1	2	-0.002086	19.1087	-46.9825	-3.37685
 447	1	2	-0.003252	19.4835	-48.6195	-2.85076
 448	1	1	0.083103	20.4745	-48.0814	-4.6983
 449	1	2	-0.003597	20.5266	-49.1038	-5.09417
 450	1	2	-0.00033	20.2886	-47.4262	-5.55791
 451	1	1	0.015717	21.8685	-47.7604	-4.10257
 452	1	2	-0.004333	22.0533	-48.2996	-3.16331
 453	1	2	-0.003064	22.6258	-48.1142	-4.81208
 454	1	6	0.43523	22.1216	-46.2757	-3.9198
 455	1	7	-0.39711	11.4407	-47.6966	-7.80993
 456	1	4	-0.041868	11.3726	-49.1357	-9.35157
 457	1	4	-0.011544	12.9568	-48.3344	-9.16117
 458	1	8	0.237688	10.6654	-48.1553	-7.32266
 459	1	9	-0.49758	21.8877	-45.4881	-4.82226
 460	1	1	0.304671	7.7464	-47.4499	-10.4542
 461	1	1	-1.24578	8.83436	-47.4239	-9.34804
 462	1	1	0.921237	10.1186	-46.6607	-9.72565
 463	1	2	0.238751	9.07979	-48.4593	-9.09618
 464	1	2	0.241495	8.42727	-46.9594	-8.44726
 465	1	1	-0.299014	10.9861	-46.4393	-8.46944
 466	1	2	-0.179791	9.86752	-45.6797	-10.1279
 467	1	2	-0.17909	10.645	-47.2405	-10.4842
 468	1	2	0.080952	11.8501	-45.8149	-8.75191
 469	1	2	0.084393	10.4052	-45.8635	-7.74136
 470	1	3	-0.116242	7.32729	-46.1218	-10.7868
 471	1	4	0.075247	6.86359	-47.9901	-10.0865
 472	1	4	0.07317	8.11297	-47.9704	-11.3503
 473	1	1	0.57552	0.0409078	-38.4928	-8.02983
 474	1	1	-1.07208	-0.521263	-39.7096	-8.67874
 475	1	2	0.119263	-1.31786	-39.4609	-9.40053
 476	1	2	0.211544	-0.962611	-40.3838	-7.95726
 477	1	1	0.745843	0.628854	-40.4952	-9.35499
 478	1	2	-0.177131	1.21338	-39.831	-10.0032
 479	1	2	-0.142119	1.27069	-40.8768	-8.56741
 480	1	1	0.080873	-0.0095783	-41.6595	-10.1765
 481	1	2	0.018859	-0.61924	-42.291	-9.50741
 482	1	2	-0.02655	-0.691036	-41.1857	-10.8976
 483	1	1	-0.221824	0.904833	-42.6276	-10.978
 484	1	2	0.031284	1.32533	-43.3829	-10.2994
 485	1	2	0.013242	0.288606	-43.1469	-11.7248
 486	1	1	0.073218	2.06245	-41.8551	-11.6527
 487	1	2	-0.024643	1.73336	-40.9851	-12.2169
 488	1	2	-0.008342	2.73351	-41.5	-10.8609
 489	1	1	0.04656	2.8326	-42.805	-12.5877
 490	1	2	-0.007327	2.92268	-43.7557	-12.0451
 491	1	2	0.003322	2.27007	-42.9943	-13.5222
 492	1	1	-0.01926	4.25119	-42.2643	-12.9242
 493	1	2	0.003715	4.1378	-41.3	-13.4249
 494	1	2	0.000131	4.79181	-42.0742	-11.9902
 495	1	1	-0.031072	5.19237	-43.1093	-13.8231
 496	1	2	-0.002086	4.89541	-43.0164	-14.8703
 497	1	2	-0.003252	6.20477	-42.6857	-13.7657
 498	1	1	0.083103	5.26485	-44.577	-13.4212
 499	1	2	-0.003597	4.26242	-45.0225	-13.333
 500	1	2	-0.00033	5.79108	-45.1222	-14.2183
 501	1	1	0.015717	6.02006	-44.7026	-12.0895
 502	1	2	-0.004333	6.92058	-44.0747	-12.1
 503	1	2	-0.003064	5.39963	-44.3717	-11.2491
 504	1	6	0.43523	6.47943	-46.1235	-11.8359
 505	1	7	-0.39711	-0.906447	-38.1138	-6.98888
 506	1	4	-0.041868	0.132042	-37.7185	-8.7989
 507	1	4	-0.011544	1.0324	-38.7309	-7.61885
 508	1	8	0.237688	-1.25088	-38.9199	-6.49212
 509	1	9	-0.49758	5.99045	-47.1252	-12.3377
 510	1	1	0.57552	-7.74287	-27.3872	-4.17173
 511	1	1	-1.07208	-6.65848	-28.4251	-4.36286
 512	1	2	0.119263	-6.81109	-28.9372	-5.32214
 513	1	2	0.211544	-5.65346	-27.9892	-4.30695
 514	1	1	0.745843	-6.84868	-29.4572	-3.26625
 515	1	2	-0.177131	-6.78108	-28.9472	-2.3167
 516	1	2	-0.142119	-7.85645	-29.9026	-3.32943
 517	1	1	0.080873	-5.74219	-30.5686	-3.26796
 518	1	2	0.018859	-4.82942	-30.1286	-2.84994
 519	1	2	-0.02655	-6.02161	-31.3549	-2.54918
 520	1	1	-0.221824	-5.41385	-31.1878	-4.6359
 521	1	2	0.031284	-6.36499	-31.4418	-5.11984
 522	1	2	0.013242	-4.93532	-30.4333	-5.27151
 523	1	1	0.073218	-4.54116	-32.46	-4.57003
 524	1	2	-0.024643	-3.57403	-32.2756	-4.08589
 525	1	2	-0.008342	-5.043	-33.2314	-3.97507
 526	1	1	0.04656	-4.28758	-32.9582	-5.99067
 527	1	2	-0.007327	-5.06215	-32.5872	-6.67583
 528	1	2	0.003322	-3.3245	-32.5464	-6.31895
 529	1	1	-0.01926	-4.20137	-34.4924	-6.08633
 530	1	2	0.003715	-4.9031	-34.9567	-5.38504
 531	1	2	0.000131	-4.52935	-34.7908	-7.08128
 532	1	1	-0.031072	-2.78571	-35.0255	-5.89859
 533	1	2	-0.002086	-2.30486	-35.1128	-6.89097
 534	1	2	-0.003252	-2.18606	-34.307	-5.31817
 535	1	1	0.083103	-2.77547	-36.3655	-5.18305
 536	1	2	-0.003597	-3.2944	-36.2551	-4.21669
 537	1	2	-0.00033	-3.34651	-37.1116	-5.761
 538	1	1	0.015717	-1.32134	-36.8104	-4.889
 539	1	2	-0.004333	-0.827839	-36.0316	-4.26265
 540	1	2	-0.003064	-1.35591	-37.7307	-4.27344
 541	1	6	0.43523	-0.437514	-37.0739	-6.09955
 542	1	7	-0.39711	-7.8387	-26.5424	-5.33642
 543	1	4	-0.041868	-7.5097	-26.8262	-3.26989
 544	1	4	-0.011544	-8.72347	-27.8635	-4.04804
 545	1	8	0.237688	-6.8846	-26.2225	-5.54596
 546	1	9	-0.49758	0.770822	-37.1303	-5.9256
 547	1	1	0.304671	-9.51052	-21.8841	-6.52823
 548	1	1	-1.24578	-9.56905	-23.0999	-5.58721
 549	1	1	0.921237	-8.74312	-24.268	-6.1554
 550	1	2	0.238751	-10.5969	-23.4419	-5.45913
 551	1	2	0.241495	-9.16448	-22.8666	-4.61067
 552	1	1	-0.299014	-8.7901	-25.4177	-5.15692
 553	1	2	-0.179791	-7.70479	-23.923	-6.25798
 554	1	2	-0.17909	-9.12897	-24.5611	-7.13944
 555	1	2	0.080952	-8.6414	-24.9892	-4.16097
 556	1	2	0.084393	-9.82058	-25.8106	-5.15259
 557	1	3	-0.116242	-10.6479	-21.9204	-7.38661
 558	1	4	0.075247	-8.59374	-21.8924	-7.13862
 559	1	4	0.07317	-9.52514	-20.9819	-5.89486
 560	1	1	0.57552	-16.4165	-14.9251	-18.4509
 561	1	1	-1.07208	-15.408	-15.8168	-17.6729
 562	1	2	0.119263	-15.0514	-16.6954	-18.2369
 563	1	2	0.211544	-14.5294	-15.2052	-17.4314
 564	1	1	0.745843	-15.9858	-16.3896	-16.3256
 565	1	2	-0.177131	-16.7015	-15.6487	-15.9871
 566	1	2	-0.142119	-16.508	-17.2712	-16.6097
 567	1	1	0.080873	-14.9607	-16.6696	-15.1792
 568	1	2	0.018859	-14.0968	-17.1771	-15.6224
 569	1	2	-0.02655	-14.5962	-15.6827	-14.8776
 570	1	1	-0.221824	-15.4685	-17.4818	-13.9403
 571	1	2	0.031284	-16.4376	-17.1496	-13.5672
 572	1	2	0.013242	-15.6944	-18.5147	-14.2437
 573	1	1	0.073218	-14.4989	-17.5206	-12.7464
 574	1	2	-0.024643	-13.472	-17.6801	-13.1217
 575	1	2	-0.008342	-14.4954	-16.5358	-12.2531
 576	1	1	0.04656	-14.8904	-18.5959	-11.6826
 577	1	2	-0.007327	-15.8904	-18.3873	-11.2816
 578	1	2	0.003322	-14.995	-19.5714	-12.1682
 579	1	1	-0.01926	-13.8214	-18.5843	-10.5802
 580	1	2	0.003715	-12.839	-18.7869	-11.0133
 581	1	2	0.000131	-13.7059	-17.57	-10.2149
 582	1	1	-0.031072	-14.1326	-19.5025	-9.38234
 583	1	2	-0.002086	-14.9591	-19.0986	-8.75268
 584	1	2	-0.003252	-14.455	-20.5102	-9.71144
 585	1	1	0.083103	-12.8805	-19.6132	-8.50616
 586	1	2	-0.003597	-12.4007	-18.6106	-8.45703
 587	1	2	-0.00033	-13.2108	-19.9033	-7.50434
 588	1	1	0.015717	-11.9599	-20.751	-9.00607
 589	1	2	-0.004333	-12.4665	-21.7256	-9.00443
 590	1	2	-0.003064	-11.61	-20.561	-10.0207
 591	1	6	0.43523	-10.7105	-20.8125	-8.16344
 592	1	7	-0.39711	-16.028	-14.9007	-19.8412
 593	1	4	-0.041868	-16.3931	-13.919	-18.0095
 594	1	4	-0.011544	-17.4089	-15.376	-18.3979
 595	1	8	0.237688	-15.0348	-14.8157	-19.804
 596	1	9	-0.49758	-9.91295	-19.8699	-8.12773
 597	1	1	0.57552	-18.1434	-6.29175	-30.7707
 598	1	1	-1.07208	-16.7457	-6.90853	-30.4594
 599	1	2	0.119263	-16.1139	-6.82953	-31.3544
 600	1	2	0.211544	-16.2047	-6.36822	-29.7122
 601	1	1	0.745843	-16.7657	-8.36352	-30.1295
 602	1	2	-0.177131	-17.0824	-8.87358	-31.0514
 603	1	2	-0.142119	-15.7129	-8.63005	-29.9431
 604	1	1	0.080873	-17.6215	-8.74036	-28.8676
 605	1	2	0.018859	-17.2532	-8.18145	-28.0043
 606	1	2	-0.02655	-18.672	-8.41018	-29.1116
 607	1	1	-0.221824	-17.6055	-10.3037	-28.6182
 608	1	2	0.031284	-18.1858	-10.8094	-29.4348
 609	1	2	0.013242	-16.5392	-10.6146	-28.627
 610	1	1	0.073218	-18.2227	-10.6932	-27.2425
 611	1	2	-0.024643	-18.0114	-9.90811	-26.537
 612	1	2	-0.008342	-19.3498	-10.7706	-27.3735
 613	1	1	0.04656	-17.7427	-12.0915	-26.7429
 614	1	2	-0.007327	-18.3286	-12.8622	-27.2768
 615	1	2	0.003322	-16.6755	-12.1772	-27.0047
 616	1	1	-0.01926	-17.9619	-12.1996	-25.2231
 617	1	2	0.003715	-17.696	-11.2235	-24.8512
 618	1	2	0.000131	-19.0231	-12.2472	-24.9947
 619	1	1	-0.031072	-17.1414	-13.3144	-24.5274
 620	1	2	-0.002086	-17.716	-14.2762	-24.5907
 621	1	2	-0.003252	-16.1642	-13.4533	-25.0335
 622	1	1	0.083103	-16.87	-12.9731	-23.0617
 623	1	2	-0.003597	-15.8727	-12.5013	-22.983
 624	1	2	-0.00033	-17.6399	-12.2711	-22.7646
 625	1	1	0.015717	-16.9567	-14.1848	-22.0831
 626	1	2	-0.004333	-17.9689	-14.5514	-21.996
 627	1	2	-0.003064	-16.3595	-15.0576	-22.3766
 628	1	6	0.43523	-16.5153	-13.7787	-20.6621
 629	1	7	-0.39711	-17.8866	-5.17069	-31.6814
 630	1	4	-0.041868	-18.6887	-6.03276	-29.8455