pySIMM System Object

639 atoms
638 bonds
1236 angles
1756 dihedrals
0 impropers

10 atom types
12 bond types
28 angle types
12 dihedral types
1 improper types

-103.421713 103.421713 xlo xhi
-103.421713 103.421713 ylo yhi
-103.421713 103.421713 zlo zhi

Masses

   1	12.01	# c3
   2	1.008	# hc
   3	12.01	# c
   4	14.01	# n3
   5	1.008	# h1
   6	1.008	# hn
   7	16.0	# o
   8	1.008	# h4
   9	16.0	# oh
  10	1.008	# ho

Pair Coeffs

   1	0.1094	3.3996695084235347	# c3
   2	0.0157	2.649532787749369	# hc
   3	0.086	3.3996695084235347	# c
   4	0.17	3.249998523775958	# n3
   5	0.0157	2.471353044121301	# h1
   6	0.0157	1.069078461768407	# hn
   7	0.21	2.959921901149463	# o
   8	0.015	2.5105525877194763	# h4
   9	0.2104	3.0664733878390478	# oh
  10	0.0047	0.5379246460131368	# ho

Bond Coeffs

   1	300.9	1.5375	# c3,c3
   2	330.6	1.0969	# c3,hc
   3	392.4	1.019	# hn,n3
   4	637.7	1.2183	# c,o
   5	330.6	1.0969	# c3,h1
   6	313.0	1.5241	# c,c3
   7	325.9	1.4647	# c3,n3
   8	310.7	1.1121	# c,h4
   9	371.4	0.973	# ho,oh
  10	316.7	1.4233	# c3,oh
  11	400.1	1.3513	# c,oh
  12	325.9	1.465	# n3,c

Angle Coeffs

   1	46.39	109.56	# c3,c3,h1
   2	39.4	107.58	# hc,c3,hc
   3	45.64	114.64	# c3,c,h4
   4	41.4	106.4	# hn,n3,hn
   5	39.24	108.46	# h1,c3,h1
   6	49.53	109.88	# h1,c3,n3
   7	46.93	108.77	# c,c3,hc
   8	66.02	111.04	# c3,c3,n3
   9	62.86	111.51	# c3,c3,c3
  10	67.4	123.2	# c3,c,o
  11	54.22	120.7	# h4,c,o
  12	63.27	111.04	# c,c3,c3
  13	46.34	109.8	# c3,c3,hc
  14	47.42	109.29	# c3,n3,hn
  15	47.38	107.26	# c3,oh,ho
  16	67.47	110.19	# c3,c3,oh
  17	50.93	110.26	# h1,c3,oh
  18	63.82	112.35	# c3,n3,c3
  19	49.55	109.8	# hc,c3,n3
  20	67.9	109.98	# c3,oh,c
  21	68.4	112.73	# c3,c,oh
  22	75.92	122.1	# o,c,oh
  23	63.8	112.35	# c3,n3,c
  24	47.4	109.29	# hn,n3,c
  25	66.0	111.04	# n3,c,c3
  26	70.9	110.7	# n3,c,o
  27	62.7	112.48	# c3,oh,c3
  28	51.11	109.5	# hc,c3,oh

Dihedral Coeffs

   1	1	0.16	3	0	# hc,c3,c3,c3
   2	1	0.3	3	0	# X,c3,n3,X
   3	1	0.15555555555555556	3	0	# X,c3,c3,X
   4	3	0.18	3	0	0.25	2	180	0.2	1	180	# c3,c3,c3,c3
   5	1	0.0	2	180	# X,c,c3,X
   6	1	0.15	3	0	# hc,c3,c3,hc
   7	3	0.8	1	0	0.0	2	0	0.08	3	180	# hc,c3,c,o
   8	2	0.16	3	0	0.25	1	0	# ho,oh,c3,c3
   9	1	0.16666666666666666	3	0	# X,c3,oh,X
  10	2	0.0	3	0	0.25	1	0	# hc,c3,c3,oh
  11	2	0.3	3	0	0.48	2	180	# c3,c3,n3,c3
  12	1	2.3	2	180	# X,c,oh,X

Improper Coeffs

   1	10.5	-1	2	# c,X,X,o

Atoms

   1	1	1	0.57552	-0.0974018	-38.9342	32.6607
   2	1	1	-1.07208	0.827937	-40.019	33.1801
   3	1	2	0.119263	1.80628	-39.8712	32.7085
   4	1	2	0.211544	0.940517	-39.9171	34.267
   5	1	1	0.745843	0.336854	-41.4454	32.8887
   6	1	2	-0.177131	-0.602963	-41.5862	33.436
   7	1	2	-0.142119	0.1156	-41.5107	31.8167
   8	1	1	0.080873	1.3937	-42.5053	33.3135
   9	1	2	0.018859	2.23606	-42.4792	32.6064
  10	1	2	-0.02655	1.78877	-42.2571	34.3084
  11	1	1	-0.221824	0.838568	-43.9473	33.4018
  12	1	2	0.031284	-0.0408078	-43.9677	34.0543
  13	1	2	0.013242	0.529241	-44.2715	32.4011
  14	1	1	0.073218	1.87642	-44.943	33.9559
  15	1	2	-0.024643	2.62433	-45.1327	33.1778
  16	1	2	-0.008342	2.39556	-44.4998	34.8182
  17	1	1	0.04656	1.16092	-46.236	34.3869
  18	1	2	-0.007327	1.87641	-46.8741	34.9289
  19	1	2	0.003322	0.377994	-46.0063	35.1225
  20	1	1	-0.01926	0.547482	-46.9895	33.178
  21	1	2	0.003715	-0.309646	-46.4497	32.7584
  22	1	2	0.000131	1.29394	-47.114	32.3808
  23	1	1	-0.031072	0.0507265	-48.3869	33.6382
  24	1	2	-0.002086	0.829908	-48.8923	34.2239
  25	1	2	-0.003252	-0.781468	-48.1942	34.3243
  26	1	1	0.083103	-0.489051	-49.3895	32.5685
  27	1	2	-0.003597	-1.03478	-50.1777	33.1039
  28	1	2	-0.00033	-1.20954	-48.8661	31.9258
  29	1	1	0.015717	0.583957	-50.0911	31.7005
  30	1	2	-0.004333	1.27312	-49.3519	31.2587
  31	1	2	-0.003064	1.1898	-50.7504	32.3396
  32	1	3	0.43523	-0.0464434	-50.9205	30.5704
  33	1	4	-0.39711	0.458491	-37.687	33.1592
  34	1	5	-0.041868	-1.10731	-39.1007	33.0432
  35	1	5	-0.011544	-0.126865	-38.9524	31.5665
  36	1	6	0.237688	0.453536	-37.8087	34.1716
  37	1	7	-0.49758	-1.16282	-50.7599	30.0979
  38	1	1	0.304671	-0.629831	-32.7093	33.5607
  39	1	1	-1.24578	-1.06747	-34.1306	33.0964
  40	1	1	0.921237	-0.0340402	-35.2078	33.4181
  41	1	2	0.238751	-1.27444	-34.1397	32.0219
  42	1	2	0.241495	-1.9982	-34.3981	33.6013
  43	1	1	-0.299014	-0.438007	-36.5535	32.8037
  44	1	2	-0.179791	0.0579205	-35.2856	34.4994
  45	1	2	-0.17909	0.938211	-34.908	33.0255
  46	1	2	0.080952	-1.46771	-36.7756	33.1183
  47	1	2	0.084393	-0.448813	-36.4239	31.7167
  48	1	9	-0.116242	0.270927	-32.0386	32.647
  49	1	5	0.075247	-0.195543	-32.7309	34.5717
  50	1	5	0.07317	-1.53722	-32.0996	33.6422
  51	1	1	0.57552	4.01782	-20.3277	27.6252
  52	1	1	-1.07208	2.84596	-21.2027	28.1294
  53	1	2	0.119263	3.31638	-21.9213	28.8066
  54	1	2	0.211544	2.14412	-20.5649	28.6735
  55	1	1	0.745843	2.04954	-21.9319	27.0006
  56	1	2	-0.177131	1.10123	-22.2957	27.462
  57	1	2	-0.142119	1.69425	-21.1985	26.2267
  58	1	1	0.080873	2.68877	-23.0973	26.2193
  59	1	2	0.018859	1.82277	-23.4945	25.6565
  60	1	2	-0.02655	3.40737	-22.7602	25.4477
  61	1	1	-0.221824	3.26912	-24.2014	27.1295
  62	1	2	0.031284	3.71015	-24.966	26.4779
  63	1	2	0.013242	4.11763	-23.8028	27.7143
  64	1	1	0.073218	2.20121	-24.8366	28.0837
  65	1	2	-0.024643	1.88899	-24.0997	28.8444
  66	1	2	-0.008342	1.31763	-25.1112	27.508
  67	1	1	0.04656	2.79488	-26.0693	28.8379
  68	1	2	-0.007327	3.33407	-26.7347	28.1465
  69	1	2	0.003322	3.50636	-25.674	29.5767
  70	1	1	-0.01926	1.67786	-26.8614	29.5841
  71	1	2	0.003715	1.10363	-26.1511	30.2088
  72	1	2	0.000131	0.94214	-27.2487	28.87
  73	1	1	-0.031072	2.13501	-28.115	30.4213
  74	1	2	-0.002086	2.54065	-28.8988	29.7752
  75	1	2	-0.003252	2.96156	-27.8479	31.0793
  76	1	1	0.083103	1.03469	-28.7372	31.3123
  77	1	2	-0.003597	0.699048	-27.9832	32.0247
  78	1	2	-0.00033	0.155267	-28.9774	30.7006
  79	1	1	0.015717	1.46989	-30.029	32.0298
  80	1	2	-0.004333	1.78359	-30.739	31.251
  81	1	2	-0.003064	2.37702	-29.8741	32.6384
  82	1	3	0.43523	0.402975	-30.684	32.9088
  83	1	4	-0.39711	3.46375	-19.0654	27.175
  84	1	5	-0.041868	4.59377	-20.8477	26.8475
  85	1	5	-0.011544	4.65385	-20.1517	28.4898
  86	1	6	0.237688	2.93884	-18.7094	27.9686
  87	1	7	-0.49758	-0.0217801	-30.1355	33.9217
  88	1	1	0.57552	3.48678	-8.61281	16.25
  89	1	1	-1.07208	3.41848	-8.73191	17.7971
  90	1	2	0.119263	4.06767	-7.99372	18.267
  91	1	2	0.211544	2.37997	-8.49819	18.1596
  92	1	1	0.745843	3.82628	-10.1556	18.2242
  93	1	2	-0.177131	3.16126	-10.8155	17.6495
  94	1	2	-0.142119	4.82748	-10.3542	17.7948
  95	1	1	0.080873	3.66776	-10.4498	19.7191
  96	1	2	0.018859	4.26343	-9.68644	20.2406
  97	1	2	-0.02655	2.57197	-10.2646	19.9121
  98	1	1	-0.221824	4.11164	-11.905	20.1145
  99	1	2	0.031284	3.80694	-12.5769	19.3027
 100	1	2	0.013242	5.21717	-11.9493	20.1564
 101	1	1	0.073218	3.40033	-12.3293	21.4568
 102	1	2	-0.024643	3.72995	-11.636	22.2239
 103	1	2	-0.008342	2.3278	-12.2828	21.3814
 104	1	1	0.04656	3.89335	-13.7885	21.8647
 105	1	2	-0.007327	3.3837	-14.5387	21.2236
 106	1	2	0.003322	4.97235	-13.9044	21.7133
 107	1	1	-0.01926	3.55797	-14.2312	23.3477
 108	1	2	0.003715	3.91493	-13.4967	24.0549
 109	1	2	0.000131	2.46813	-14.2402	23.4394
 110	1	1	-0.031072	4.17441	-15.6396	23.6223
 111	1	2	-0.002086	3.81974	-16.3107	22.8395
 112	1	2	-0.003252	5.24643	-15.577	23.534
 113	1	1	0.083103	3.77079	-16.2845	25.0161
 114	1	2	-0.003597	3.84985	-15.5643	25.8177
 115	1	2	-0.00033	2.72595	-16.5698	24.9485
 116	1	1	0.015717	4.62883	-17.5641	25.388
 117	1	2	-0.004333	4.30679	-18.4143	24.7964
 118	1	2	-0.003064	5.68828	-17.43	25.2387
 119	1	3	0.43523	4.45936	-18.0578	26.8473
 120	1	4	-0.39711	2.93027	-7.35526	15.7769
 121	1	5	-0.041868	2.95036	-9.38967	15.7994
 122	1	5	-0.011544	4.5467	-8.67045	15.9477
 123	1	6	0.237688	2.17201	-7.18647	16.44
 124	1	7	-0.49758	4.876	-17.4333	27.7805
 125	1	1	0.304671	5.13893	-3.77174	13.7805
 126	1	1	-1.24578	5.79074	-4.77571	14.7141
 127	1	1	0.921237	5.00317	-6.14227	14.7875
 128	1	2	0.238751	5.9636	-4.41077	15.7316
 129	1	2	0.241495	6.79194	-5.10376	14.401
 130	1	1	-0.299014	3.74077	-6.09605	15.6717
 131	1	2	-0.179791	5.65825	-6.86167	15.1777
 132	1	2	-0.17909	4.72798	-6.42093	13.7634
 133	1	2	0.080952	4.04402	-5.76184	16.6653
 134	1	2	0.084393	3.10531	-5.26707	15.3012
 135	1	9	-0.116242	6.11617	-2.847	13.3478
 136	1	5	0.075247	4.27025	-3.20016	14.2262
 137	1	5	0.07317	4.72413	-4.29072	12.9097
 138	1	1	0.57552	4.95427	7.52919	7.91318
 139	1	1	-1.07208	4.45338	6.08872	7.90291
 140	1	2	0.119263	4.35233	5.70999	8.92675
 141	1	2	0.211544	3.49746	5.95581	7.39907
 142	1	1	0.745843	5.47252	5.22044	7.15067
 143	1	2	-0.177131	5.53901	5.66304	6.11374
 144	1	2	-0.142119	6.4194	5.30433	7.68739
 145	1	1	0.080873	5.03215	3.75903	7.18307
 146	1	2	0.018859	4.95167	3.49106	8.28122
 147	1	2	-0.02655	4.04792	3.60142	6.73405
 148	1	1	-0.221824	6.17503	2.8865	6.55592
 149	1	2	0.031284	6.4612	3.29075	5.59532
 150	1	2	0.013242	6.9809	2.95075	7.2412
 151	1	1	0.073218	5.79051	1.41993	6.24599
 152	1	2	-0.024643	5.03664	1.3894	5.42304
 153	1	2	-0.008342	6.59021	0.803186	5.87712
 154	1	1	0.04656	5.29052	0.695678	7.49157
 155	1	2	-0.007327	4.30764	1.13317	7.65095
 156	1	2	0.003322	5.14567	-0.347915	7.1344
 157	1	1	-0.01926	6.20015	0.689546	8.73626
 158	1	2	0.003715	7.21762	0.499138	8.39888
 159	1	2	0.000131	6.24935	1.683	9.16265
 160	1	1	-0.031072	5.80607	-0.352226	9.78159
 161	1	2	-0.002086	4.74214	-0.405028	9.81443
 162	1	2	-0.003252	6.15307	-1.37586	9.45392
 163	1	1	0.083103	6.44725	0.0945305	11.1061
 164	1	2	-0.003597	7.3726	0.624464	10.8279
 165	1	2	-0.00033	5.80075	0.879714	11.5542
 166	1	1	0.015717	6.78491	-1.03527	12.1031
 167	1	2	-0.004333	7.65278	-1.65491	11.8199
 168	1	2	-0.003064	7.141	-0.590655	13.0507
 169	1	3	0.43523	5.66371	-1.95862	12.4392
 170	1	4	-0.39711	4.03473	8.26084	8.75883
 171	1	5	-0.041868	4.88566	7.99181	6.88289
 172	1	5	-0.011544	6.01065	7.6194	8.21381
 173	1	6	0.237688	4.37163	8.14866	9.71271
 174	1	7	-0.49758	4.5221	-1.88261	12.0813
 175	1	1	0.57552	-3.40151	9.22899	11.7316
 176	1	1	-1.07208	-2.57021	9.35972	13.0113
 177	1	2	0.119263	-3.21541	9.15529	13.9108
 178	1	2	0.211544	-1.79038	8.5898	12.9718
 179	1	1	0.745843	-1.92519	10.7051	13.0125
 180	1	2	-0.177131	-1.40693	10.8451	12.077
 181	1	2	-0.142119	-2.74504	11.4944	13.0808
 182	1	1	0.080873	-1.03321	10.8473	14.2961
 183	1	2	0.018859	-1.64128	11.1829	15.1528
 184	1	2	-0.02655	-0.611881	9.89087	14.5945
 185	1	1	-0.221824	0.136644	11.7656	13.9994
 186	1	2	0.031284	0.444264	11.5034	13.0068
 187	1	2	0.013242	-0.234558	12.8194	13.9876
 188	1	1	0.073218	1.38214	11.7565	14.877
 189	1	2	-0.024643	1.22309	12.334	15.7688
 190	1	2	-0.008342	1.61208	10.7464	15.1994
 191	1	1	0.04656	2.62976	12.391	14.0999
 192	1	2	-0.007327	2.30131	13.382	13.7295
 193	1	2	0.003322	3.41634	12.6119	14.857
 194	1	1	-0.01926	3.20077	11.5136	12.9336
 195	1	2	0.003715	4.21047	11.9128	12.819
 196	1	2	0.000131	3.38864	10.5382	13.2846
 197	1	1	-0.031072	2.48312	11.3878	11.5371
 198	1	2	-0.002086	1.66591	10.5846	11.5847
 199	1	2	-0.003252	2.04253	12.3347	11.2448
 200	1	1	0.083103	3.51927	10.9558	10.4525
 201	1	2	-0.003597	4.19569	11.8383	10.3237
 202	1	2	-0.00033	4.11799	10.1995	10.892
 203	1	1	0.015717	3.0325	10.5981	9.00621
 204	1	2	-0.004333	2.06363	10.0692	9.02451
 205	1	2	-0.003064	2.97871	11.4618	8.38978
 206	1	3	0.43523	4.13842	9.66053	8.45211
 207	1	4	-0.39711	-2.56467	9.25152	10.5127
 208	1	5	-0.041868	-4.09594	10.0532	11.6849
 209	1	5	-0.011544	-3.92995	8.27311	11.7785
 210	1	6	0.237688	-2.04681	10.1372	10.5522
 211	1	7	-0.49758	5.304	10.0652	8.39454
 212	1	1	0.304671	-4.21556	12.2304	10.1904
 213	1	1	-1.24578	-4.53405	11.5301	8.8935
 214	1	1	0.921237	-3.39229	10.5974	8.51328
 215	1	2	0.238751	-4.69842	12.2386	8.05425
 216	1	2	0.241495	-5.46267	10.9638	8.99798
 217	1	1	-0.299014	-3.3198	9.23526	9.22169
 218	1	2	-0.179791	-2.47133	11.1103	8.71983
 219	1	2	-0.17909	-3.57688	10.4626	7.45565
 220	1	2	0.080952	-4.30046	8.79806	9.32223
 221	1	2	0.084393	-2.81733	8.58055	8.58003
 222	1	9	-0.116242	-3.85678	13.5992	9.88795
 223	1	5	0.075247	-3.34748	11.7489	10.7263
 224	1	5	0.07317	-5.02064	12.047	10.9236
 225	1	1	0.57552	-2.15911	15.0422	21.6004
 226	1	1	-1.07208	-2.34124	16.205	20.6429
 227	1	2	0.119263	-2.68998	17.1034	21.1869
 228	1	2	0.211544	-1.38889	16.4215	20.1561
 229	1	1	0.745843	-3.30923	15.715	19.519
 230	1	2	-0.177131	-3.09693	14.6572	19.3085
 231	1	2	-0.142119	-4.32113	15.7755	19.9456
 232	1	1	0.080873	-3.22748	16.4511	18.1794
 233	1	2	0.018859	-3.15858	17.5138	18.2603
 234	1	2	-0.02655	-2.3126	16.0905	17.6618
 235	1	1	-0.221824	-4.40555	16.115	17.2217
 236	1	2	0.031284	-4.44793	15.026	17.0953
 237	1	2	0.013242	-5.38482	16.4618	17.5916
 238	1	1	0.073218	-4.21877	16.669	15.8031
 239	1	2	-0.024643	-4.03376	17.7545	15.8073
 240	1	2	-0.008342	-3.34292	16.1824	15.3228
 241	1	1	0.04656	-5.42736	16.4337	14.9097
 242	1	2	-0.007327	-5.83054	15.4111	15.0201
 243	1	2	0.003322	-6.21488	17.1673	15.1344
 244	1	1	-0.01926	-5.00146	16.6489	13.4646
 245	1	2	0.003715	-4.67437	17.6714	13.3337
 246	1	2	0.000131	-4.11945	16.0317	13.2991
 247	1	1	-0.031072	-6.10737	16.2886	12.4535
 248	1	2	-0.002086	-6.48483	15.2703	12.6374
 249	1	2	-0.003252	-6.95308	16.9224	12.6999
 250	1	1	0.083103	-5.75542	16.5109	10.9629
 251	1	2	-0.003597	-6.50912	16.1604	10.2397
 252	1	2	-0.00033	-5.58563	17.5852	10.7607
 253	1	1	0.015717	-4.41931	15.8353	10.5071
 254	1	2	-0.004333	-4.44611	15.8587	9.38898
 255	1	2	-0.003064	-3.57432	16.4635	10.7895
 256	1	3	0.43523	-4.14412	14.3931	10.9337
 257	1	4	-0.39711	-0.951939	15.1724	22.368
 258	1	5	-0.041868	-2.0945	14.1081	21.0284
 259	1	5	-0.011544	-3.0572	14.9423	22.2282
 260	1	6	0.237688	-1.18758	15.9732	22.9641
 261	1	7	-0.49758	-4.02959	14.0407	12.0766
 262	1	1	0.304671	2.98251	12.8583	24.2384
 263	1	1	-1.24578	1.42424	12.8601	24.3413
 264	1	1	0.921237	0.872713	14.0938	23.6011
 265	1	2	0.238751	1.12063	13.0049	25.3915
 266	1	2	0.241495	1.04159	11.8974	23.9629
 267	1	1	-0.299014	-0.603078	14.0057	23.1859
 268	1	2	-0.179791	1.48316	14.2347	22.717
 269	1	2	-0.17909	1.02927	14.9932	24.2514
 270	1	2	0.080952	-0.664932	13.0944	22.5791
 271	1	2	0.084393	-1.24703	13.8862	24.0433
 272	1	9	-0.116242	3.42627	12.5134	22.903
 273	1	5	0.075247	3.41733	12.1591	24.9551
 274	1	5	0.07317	3.34385	13.8803	24.4558
 275	1	1	0.57552	10.4686	19.2362	25.5316
 276	1	1	-1.07208	9.43193	19.1281	24.3789
 277	1	2	0.119263	9.00522	20.1041	24.1434
 278	1	2	0.211544	9.91723	18.7166	23.5059
 279	1	1	0.745843	8.22587	18.2091	24.7746
 280	1	2	-0.177131	8.6426	17.2115	25.0115
 281	1	2	-0.142119	7.82986	18.5722	25.7182
 282	1	1	0.080873	7.08993	18.0958	23.7384
 283	1	2	0.018859	6.14007	18.1682	24.2227
 284	1	2	-0.02655	7.07918	18.9867	23.0874
 285	1	1	-0.221824	6.99284	16.8028	22.856
 286	1	2	0.031284	6.99746	15.9352	23.5419
 287	1	2	0.013242	6.0361	16.818	22.3511
 288	1	1	0.073218	8.10408	16.6405	21.7936
 289	1	2	-0.024643	8.29456	17.6244	21.3406
 290	1	2	-0.008342	9.00198	16.3873	22.3552
 291	1	1	0.04656	7.96097	15.7126	20.4849
 292	1	2	-0.007327	7.14681	16.0821	19.8288
 293	1	2	0.003322	8.8593	15.9152	19.884
 294	1	1	-0.01926	7.84831	14.1878	20.6615
 295	1	2	0.003715	8.09372	13.7583	19.6615
 296	1	2	0.000131	8.54146	13.7912	21.4754
 297	1	1	-0.031072	6.40208	13.7539	20.9497
 298	1	2	-0.002086	6.13718	14.0273	21.9902
 299	1	2	-0.003252	5.65966	14.1732	20.2607
 300	1	1	0.083103	6.32857	12.235	20.8024
 301	1	2	-0.003597	6.34259	11.9865	19.759
 302	1	2	-0.00033	7.1989	11.7419	21.3076
 303	1	1	0.015717	5.05073	11.645	21.4004
 304	1	2	-0.004333	4.19791	11.9079	20.7491
 305	1	2	-0.003064	5.13613	10.5507	21.446
 306	1	3	0.43523	4.73425	12.1163	22.8427
 307	1	4	-0.39711	11.4146	20.2977	25.1727
 308	1	5	-0.041868	10.9576	18.2582	25.6662
 309	1	5	-0.011544	10.0231	19.492	26.4981
 310	1	6	0.237688	11.6933	20.1105	24.2018
 311	1	7	-0.49758	5.46323	11.9155	23.8106
 312	1	1	0.304671	13.2549	21.0145	29.7654
 313	1	1	-1.24578	13.665	21.0651	28.29
 314	1	1	0.921237	12.4493	20.5028	27.52
 315	1	2	0.238751	14.5095	20.4308	28.0722
 316	1	2	0.241495	13.8594	22.0787	27.9676
 317	1	1	-0.299014	12.5934	20.6093	25.9966
 318	1	2	-0.179791	11.5588	21.0686	27.8076
 319	1	2	-0.17909	12.374	19.4329	27.7939
 320	1	2	0.080952	13.4252	19.9447	25.7768
 321	1	2	0.084393	12.9046	21.64	25.7609
 322	1	9	-0.116242	14.4339	21.2257	30.534
 323	1	5	0.075247	12.8159	20.039	29.9977
 324	1	5	0.07317	12.5386	21.8183	29.9928
 325	1	1	0.304671	16.3828	19.5536	34.5447
 326	1	1	-1.24578	15.963	20.6172	33.5725
 327	1	1	0.921237	14.569	20.4312	32.9133
 328	1	2	0.238751	16.7031	20.6691	32.7367
 329	1	2	0.241495	16.021	21.5808	34.077
 330	1	1	-0.299014	14.2422	21.5822	31.9235
 331	1	2	-0.179791	13.8046	20.4867	33.7206
 332	1	2	-0.17909	14.5374	19.4742	32.4214
 333	1	2	0.080952	13.2023	21.8954	32.1262
 334	1	2	0.084393	14.8607	22.4905	32.0887
 335	1	9	-0.116242	17.7437	19.927	34.9172
 336	1	5	0.075247	16.3262	18.5538	34.0558
 337	1	5	0.07317	15.7208	19.616	35.4075
 338	1	1	0.57552	30.1072	19.7365	29.5882
 339	1	1	-1.07208	28.7796	19.0231	29.7105
 340	1	2	0.119263	28.2142	19.2238	28.8019
 341	1	2	0.211544	28.9417	17.9542	29.7659
 342	1	1	0.745843	27.9712	19.5413	30.9059
 343	1	2	-0.177131	28.5997	19.4378	31.8056
 344	1	2	-0.142119	27.8098	20.5999	30.6948
 345	1	1	0.080873	26.6303	18.7638	31.0984
 346	1	2	0.018859	26.1617	18.5869	30.1211
 347	1	2	-0.02655	26.8716	17.7714	31.4903
 348	1	1	-0.221824	25.6419	19.515	32.0225
 349	1	2	0.031284	25.9451	19.4096	33.0652
 350	1	2	0.013242	25.6485	20.6033	31.8216
 351	1	1	0.073218	24.2104	19.018	31.8877
 352	1	2	-0.024643	23.7786	19.2268	30.8972
 353	1	2	-0.008342	24.2425	17.9288	31.9553
 354	1	1	0.04656	23.329	19.569	33.0233
 355	1	2	-0.007327	23.8401	19.4301	33.984
 356	1	2	0.003322	23.1987	20.6425	32.8128
 357	1	1	-0.01926	21.9384	18.8997	32.9574
 358	1	2	0.003715	21.601	19.0035	31.8914
 359	1	2	0.000131	22.0553	17.8086	33.137
 360	1	1	-0.031072	20.7992	19.4709	33.8761
 361	1	2	-0.002086	20.8727	20.5724	33.9311
 362	1	2	-0.003252	19.8655	19.2601	33.3729
 363	1	1	0.083103	20.6705	18.8523	35.3112
 364	1	2	-0.003597	20.3169	17.7914	35.2743
 365	1	2	-0.00033	21.6475	18.8331	35.7537
 366	1	1	0.015717	19.7238	19.6997	36.251
 367	1	2	-0.004333	19.9563	19.4817	37.2978
 368	1	2	-0.003064	19.8886	20.753	36.0848
 369	1	3	0.43523	18.2549	19.2953	35.9539
 370	1	4	-0.39711	31.0041	18.7567	30.2101
 371	1	5	-0.041868	30.1634	20.7057	30.1052
 372	1	5	-0.011544	30.3944	19.8317	28.5142
 373	1	6	0.237688	30.7218	18.6379	31.1802
 374	1	7	-0.49758	17.5922	18.5814	36.6979
 375	1	1	0.304671	35.6189	16.9909	31.2128
 376	1	1	-1.24578	34.7385	17.9933	30.4398
 377	1	1	0.921237	33.2856	17.872	30.8508
 378	1	2	0.238751	34.8493	17.8319	29.3606
 379	1	2	0.241495	35.0445	19.0299	30.6364
 380	1	1	-0.299014	32.4651	18.9035	30.0308
 381	1	2	-0.179791	33.1845	18.0747	31.9278
 382	1	2	-0.17909	32.9515	16.8575	30.6704
 383	1	2	0.080952	32.822	19.8975	30.2967
 384	1	2	0.084393	32.648	18.7989	28.9447
 385	1	9	-0.116242	35.1699	15.6277	31.0802
 386	1	5	0.075247	35.6714	17.2794	32.2727
 387	1	5	0.07317	36.6393	17.1302	30.7932
 388	1	1	0.304671	37.6444	13.2417	33.8508
 389	1	1	-1.24578	36.5052	13.6528	32.9073
 390	1	1	0.921237	37.1106	14.2873	31.6483
 391	1	2	0.238751	35.8449	14.3358	33.4347
 392	1	2	0.241495	35.9265	12.773	32.5458
 393	1	1	-0.299014	36.0918	14.6286	30.5714
 394	1	2	-0.179791	37.8188	13.5195	31.2779
 395	1	2	-0.17909	37.675	15.1892	31.9165
 396	1	2	0.080952	36.61	14.9898	29.6824
 397	1	2	0.084393	35.5615	13.7203	30.2671
 398	1	9	-0.116242	37.0795	12.5371	34.9836
 399	1	5	0.075247	38.1043	14.1677	34.2301
 400	1	5	0.07317	38.4145	12.6571	33.3091
 401	1	1	0.57552	29.3024	9.42541	38.5657
 402	1	1	-1.07208	29.726	8.07948	37.982
 403	1	2	0.119263	29.5744	7.27334	38.7237
 404	1	2	0.211544	29.1813	7.87399	37.0315
 405	1	1	0.745843	31.2028	8.17769	37.5827
 406	1	2	-0.177131	31.1998	8.96091	36.8141
 407	1	2	-0.142119	31.7793	8.57181	38.4355
 408	1	1	0.080873	31.8798	6.89552	37.0694
 409	1	2	0.018859	31.7038	6.10613	37.807
 410	1	2	-0.02655	31.3419	6.59637	36.1615
 411	1	1	-0.221824	33.3841	7.02083	36.6964
 412	1	2	0.031284	33.7501	6.09187	36.2266
 413	1	2	0.013242	33.463	7.82092	35.9626
 414	1	1	0.073218	34.3192	7.35183	37.8627
 415	1	2	-0.024643	33.9767	8.25521	38.3776
 416	1	2	-0.008342	34.3087	6.5243	38.5652
 417	1	1	0.04656	35.7429	7.50594	37.2905
 418	1	2	-0.007327	36.1503	6.49771	37.0757
 419	1	2	0.003322	35.7547	8.066	36.3653
 420	1	1	-0.01926	36.5976	8.27765	38.2986
 421	1	2	0.003715	36.0752	9.21492	38.5368
 422	1	2	0.000131	36.5952	7.70969	39.2094
 423	1	1	-0.031072	38.0672	8.62056	37.9103
 424	1	2	-0.002086	38.5383	9.10576	38.7776
 425	1	2	-0.003252	38.6397	7.71458	37.6534
 426	1	1	0.083103	38.2133	9.63524	36.7242
 427	1	2	-0.003597	39.2745	9.81056	36.6391
 428	1	2	-0.00033	37.9358	9.13883	35.786
 429	1	1	0.015717	37.5003	11.0174	36.895
 430	1	2	-0.004333	36.4102	10.8675	36.7539
 431	1	2	-0.003064	37.7015	11.4032	37.9147
 432	1	3	0.43523	38.0086	12.0546	35.8745
 433	1	4	-0.39711	27.8815	9.27476	38.8172
 434	1	5	-0.041868	29.4927	10.227	37.8536
 435	1	5	-0.011544	29.8437	9.64463	39.4723
 436	1	6	0.237688	27.7912	8.47596	39.415
 437	1	7	-0.49758	39.1903	12.3061	35.8382
 438	1	1	0.57552	17.3463	13.8236	39.1619
 439	1	1	-1.07208	18.4287	14.4766	39.966
 440	1	2	0.119263	18.0675	14.6355	40.9824
 441	1	2	0.211544	19.245	13.7549	39.9975
 442	1	1	0.745843	18.9032	15.8451	39.4172
 443	1	2	-0.177131	19.0019	15.7033	38.3375
 444	1	2	-0.142119	18.1266	16.58	39.6569
 445	1	1	0.080873	20.2568	16.3667	39.9465
 446	1	2	0.018859	20.4337	17.289	39.3766
 447	1	2	-0.02655	20.1584	16.6118	41.034
 448	1	1	-0.221824	21.4431	15.3877	39.7191
 449	1	2	0.031284	21.1796	14.4456	40.2092
 450	1	2	0.013242	21.6489	15.1747	38.6749
 451	1	1	0.073218	22.7432	15.8496	40.4132
 452	1	2	-0.024643	23.0523	16.8539	40.077
 453	1	2	-0.008342	22.5208	15.8974	41.491
 454	1	1	0.04656	23.9312	14.9015	40.1488
 455	1	2	-0.007327	24.2281	15.0317	39.0951
 456	1	2	0.003322	24.785	15.2355	40.6924
 457	1	1	-0.01926	23.6631	13.3616	40.3707
 458	1	2	0.003715	23.5404	13.1071	41.4486
 459	1	2	0.000131	22.7689	13.0322	39.8555
 460	1	1	-0.031072	24.8839	12.5434	39.8461
 461	1	2	-0.002086	24.966	12.707	38.7698
 462	1	2	-0.003252	25.8352	12.9151	40.24
 463	1	1	0.083103	24.7276	11.0158	40.0761
 464	1	2	-0.003597	24.8291	10.7666	41.1494
 465	1	2	-0.00033	23.7249	10.7023	39.7906
 466	1	1	0.015717	25.7139	10.2205	39.173
 467	1	2	-0.004333	25.4813	9.16445	39.2842
 468	1	2	-0.003064	25.5252	10.4684	38.1251
 469	1	3	0.43523	27.2099	10.4274	39.477
 470	1	4	-0.39711	16.4413	14.7629	38.5594
 471	1	5	-0.041868	16.7877	13.1614	39.8073
 472	1	5	-0.011544	17.7863	13.2436	38.3529
 473	1	6	0.237688	16.1364	15.4152	39.2788
 474	1	7	-0.49758	27.6253	10.6217	40.6004
 475	1	1	0.304671	14.3807	15.846	34.5907
 476	1	1	-1.24578	15.3129	15.3752	35.729
 477	1	1	0.921237	14.4572	15.0202	36.9466
 478	1	2	0.238751	16.1069	16.1028	35.9944
 479	1	2	0.241495	15.7674	14.4322	35.4391
 480	1	1	-0.299014	15.2857	14.1054	37.8853
 481	1	2	-0.179791	13.5627	14.4759	36.5878
 482	1	2	-0.17909	14.1418	15.9523	37.4513
 483	1	2	0.080952	14.5497	13.7215	38.6211
 484	1	2	0.084393	15.6086	13.204	37.3235
 485	1	9	-0.116242	15.2116	16.1534	33.4797
 486	1	5	0.075247	13.7064	16.678	34.814
 487	1	5	0.07317	13.6969	14.9859	34.357
 488	1	1	0.57552	10.2255	11.3178	23.0747
 489	1	1	-1.07208	11.0818	11.0238	24.3105
 490	1	2	0.119263	10.368	10.9677	25.1195
 491	1	2	0.211544	11.5506	10.059	24.3075
 492	1	1	0.745843	12.1686	12.0321	24.7092
 493	1	2	-0.177131	13.095	11.6962	24.2451
 494	1	2	-0.142119	11.9606	13.0126	24.1878
 495	1	1	0.080873	12.3971	12.1733	26.2452
 496	1	2	0.018859	11.4323	12.0965	26.8226
 497	1	2	-0.02655	13.0232	11.3544	26.6553
 498	1	1	-0.221824	12.9663	13.5591	26.5394
 499	1	2	0.031284	13.9978	13.5449	26.1128
 500	1	2	0.013242	12.3092	14.335	26.0873
 501	1	1	0.073218	12.8905	13.8355	28.0348
 502	1	2	-0.024643	11.923	13.5648	28.4673
 503	1	2	-0.008342	13.5765	13.1802	28.5729
 504	1	1	0.04656	13.2548	15.3084	28.3022
 505	1	2	-0.007327	12.518	15.9462	27.818
 506	1	2	0.003322	13.1206	15.4834	29.4034
 507	1	1	-0.01926	14.6874	15.8202	27.9698
 508	1	2	0.003715	15.3986	15.0677	28.3999
 509	1	2	0.000131	14.7871	15.7538	26.8797
 510	1	1	-0.031072	15.0638	17.2558	28.4681
 511	1	2	-0.002086	16.1687	17.286	28.524
 512	1	2	-0.003252	14.7999	18.0277	27.7814
 513	1	1	0.083103	14.6272	17.5249	29.9455
 514	1	2	-0.003597	14.8387	18.6037	30.1603
 515	1	2	-0.00033	13.5339	17.4748	30.0739
 516	1	1	0.015717	15.3153	16.619	31.0458
 517	1	2	-0.004333	15.5368	15.5982	30.7068
 518	1	2	-0.003064	16.2293	17.1402	31.3807
 519	1	3	0.43523	14.4981	16.4433	32.3175
 520	1	4	-0.39711	11.1324	11.2528	21.8731
 521	1	5	-0.041868	9.83229	12.3213	23.1579
 522	1	5	-0.011544	9.37569	10.5837	22.9488
 523	1	6	0.237688	11.9561	11.772	22.0907
 524	1	7	-0.49758	13.3046	16.6051	32.3296
 525	1	1	0.304671	8.74957	8.52915	18.8897
 526	1	1	-1.24578	9.53126	9.57313	19.7559
 527	1	1	0.921237	10.3073	8.98297	20.8909
 528	1	2	0.238751	8.88393	10.277	20.2931
 529	1	2	0.241495	10.1946	10.192	19.0991
 530	1	1	-0.299014	11.4677	9.90651	21.3255
 531	1	2	-0.179791	10.7591	8.00922	20.5833
 532	1	2	-0.17909	9.67302	8.78609	21.7238
 533	1	2	0.080952	12.0934	9.44356	22.119
 534	1	2	0.084393	12.0878	10.0708	20.4071
 535	1	9	-0.116242	7.71999	9.13113	18.0257
 536	1	5	0.075247	8.23414	7.8999	19.6215
 537	1	5	0.07317	9.47488	7.98442	18.3091
 538	1	1	0.57552	-0.0885184	5.90781	7.73791
 539	1	1	-1.07208	0.271169	6.87847	8.84918
 540	1	2	0.119263	0.940344	7.74034	8.5032
 541	1	2	0.211544	-0.720177	7.24779	9.09754
 542	1	1	0.745843	1.02405	6.32528	10.064
 543	1	2	-0.177131	0.551341	5.40205	10.455
 544	1	2	-0.142119	2.00184	5.99624	9.74953
 545	1	1	0.080873	1.0459	7.36373	11.2104
 546	1	2	0.018859	1.89938	8.04875	10.9718
 547	1	2	-0.02655	0.0710552	7.85391	11.3257
 548	1	1	-0.221824	1.50065	6.60091	12.5064
 549	1	2	0.031284	1.01128	5.70042	12.7349
 550	1	2	0.013242	2.47228	6.20813	12.2435
 551	1	1	0.073218	1.76236	7.50023	13.7428
 552	1	2	-0.024643	2.43213	8.276	13.4016
 553	1	2	-0.008342	0.872184	8.03927	13.9947
 554	1	1	0.04656	2.24773	6.73653	15.0118
 555	1	2	-0.007327	1.97276	7.29617	15.8832
 556	1	2	0.003322	1.67586	5.74242	14.9957
 557	1	1	-0.01926	3.79157	6.52894	14.8526
 558	1	2	0.003715	4.01184	5.75214	15.6225
 559	1	2	0.000131	4.04691	6.07217	13.8828
 560	1	1	-0.031072	4.64244	7.74143	15.1223
 561	1	2	-0.002086	5.70772	7.38404	15.2133
 562	1	2	-0.003252	4.63937	8.43826	14.2799
 563	1	1	0.083103	4.31589	8.56508	16.4315
 564	1	2	-0.003597	3.50963	9.27195	16.1258
 565	1	2	-0.00033	3.94313	7.8392	17.1437
 566	1	1	0.015717	5.54944	9.29571	16.826
 567	1	2	-0.004333	6.01037	9.69529	15.9348
 568	1	2	-0.003064	5.28215	10.1328	17.5124
 569	1	3	0.43523	6.5867	8.45477	17.6517
 570	1	4	-0.39711	-0.925006	6.77823	6.93599
 571	1	5	-0.041868	-0.640315	5.16847	8.28512
 572	1	5	-0.011544	0.696188	5.41479	7.15808
 573	1	6	0.237688	-0.492787	7.73407	6.87972
 574	1	7	-0.49758	6.21727	7.49134	18.2916
 575	1	1	0.304671	-2.85347	8.6872	3.29029
 576	1	1	-1.24578	-2.61051	7.21583	3.59656
 577	1	1	0.921237	-2.7336	6.81307	5.06401
 578	1	2	0.238751	-1.81951	6.66031	3.06668
 579	1	2	0.241495	-3.45922	6.75437	3.20665
 580	1	1	-0.299014	-1.49637	6.12047	5.72136
 581	1	2	-0.179791	-3.50826	6.08855	5.04873
 582	1	2	-0.17909	-3.21556	7.69093	5.59265
 583	1	2	0.080952	-1.69033	5.05922	5.90235
 584	1	2	0.084393	-0.69357	6.12906	5.00169
 585	1	9	-0.116242	-3.16855	8.68278	1.89026
 586	1	5	0.075247	-1.82415	9.24254	3.52308
 587	1	5	0.07317	-3.60153	9.21772	3.91408
 588	1	1	0.304671	-1.88868	9.73895	-1.11402
 589	1	1	-1.24578	-2.90603	10.6967	-0.419421
 590	1	1	0.921237	-4.13813	9.97415	0.00235169
 591	1	2	0.238751	-3.19497	11.6328	-0.963792
 592	1	2	0.241495	-2.52655	10.8908	0.591828
 593	1	1	-0.299014	-4.27271	9.48069	1.46024
 594	1	2	-0.179791	-4.36666	9.10578	-0.715035
 595	1	2	-0.17909	-4.92374	10.6389	-0.22164
 596	1	2	0.080952	-4.4394	10.4302	2.01851
 597	1	2	0.084393	-5.21361	8.92305	1.55331
 598	1	9	-0.116242	-1.33309	8.77945	-0.213343
 599	1	5	0.075247	-1.11214	10.4623	-1.49336
 600	1	5	0.07317	-2.39782	9.161	-1.90098
 601	1	1	0.304671	0.796949	7.67765	2.82062
 602	1	1	-1.24578	1.17678	7.97103	1.39259
 603	1	1	0.921237	0.309241	7.06975	0.40637
 604	1	2	0.238751	2.11884	7.75031	1.21638
 605	1	2	0.241495	0.972672	8.99913	1.2037
 606	1	1	-0.299014	-0.257072	7.97174	-0.744608
 607	1	2	-0.179791	-0.572877	6.72717	1.01918
 608	1	2	-0.17909	0.9711	6.31413	0.130321
 609	1	2	0.080952	0.579227	8.43722	-1.19841
 610	1	2	0.084393	-0.677565	7.30805	-1.50971
 611	1	9	-0.116242	2.00094	7.69255	3.69126
 612	1	5	0.075247	0.471911	6.66191	2.85662
 613	1	5	0.07317	-0.0552385	8.26717	3.15303
 614	1	1	0.304671	4.35293	11.9885	4.11563
 615	1	1	-1.24578	3.90144	10.4943	3.90758
 616	1	1	0.921237	2.54502	10.1457	4.44882
 617	1	2	0.238751	4.69692	9.90526	4.4218
 618	1	2	0.241495	4.02176	10.2242	2.91493
 619	1	1	-0.299014	2.16512	8.63887	4.70194
 620	1	2	-0.179791	1.85862	10.4923	3.63838
 621	1	2	-0.17909	2.47768	10.6685	5.28254
 622	1	2	0.080952	3.07218	8.22487	5.27735
 623	1	2	0.084393	1.21818	8.81665	5.2742
 624	1	9	-0.116242	5.03302	12.4229	2.97564
 625	1	5	0.075247	5.07217	11.9503	4.95237
 626	1	5	0.07317	3.44569	12.684	4.34249
 627	1	1	0.304671	7.85785	15.5346	0.305353
 628	1	1	-1.24578	6.81583	15.0275	1.37857
 629	1	1	0.921237	7.30879	13.6225	1.95489
 630	1	2	0.238751	5.82947	14.8627	1.13183
 631	1	2	0.241495	6.70001	15.8414	2.14242
 632	1	1	-0.299014	6.37552	13.0683	3.24481
 633	1	2	-0.179791	8.34773	13.6028	2.28456
 634	1	2	-0.17909	7.23669	12.932	1.08816
 635	1	2	0.080952	6.84864	12.3642	3.90423
 636	1	2	0.084393	6.39611	13.9262	3.88671
 637	1	9	-0.116242	8.8676	16.227	0.956839
 638	1	5	0.075247	7.28337	16.0589	-0.535469
 639	1	5	0.07317	8.41892	14.6992	-0.0056644

Velocities

   1	0.00661313	0.00161201	0.00432337
   2	6.54719e-05	-0.00305123	0.00255356
   3	-0.00097379	-0.00469185	0.00433779
   4	0.000653138	0.000996252	-1.9177e-05
   5	0.00241434	-0.00566276	0.00488818
   6	-0.00174558	-0.00532257	-0.0042369
   7	0.00437186	-0.00628056	0.00412418
   8	0.00217614	-0.000409691	0.0091462
   9	0.00928873	0.00154456	0.0178902
  10	-0.00196342	0.00533882	0.00775655