pySIMM System Object

859 atoms
858 bonds
1665 angles
2366 dihedrals
0 impropers

10 atom types
12 bond types
28 angle types
12 dihedral types
1 improper types

-108.295657 108.295657 xlo xhi
-108.295657 108.295657 ylo yhi
-108.295657 108.295657 zlo zhi

Masses

   1	12.01	# c3
   2	1.008	# hc
   3	12.01	# c
   4	14.01	# n3
   5	1.008	# h1
   6	1.008	# hn
   7	16.0	# o
   8	1.008	# h4
   9	16.0	# oh
  10	1.008	# ho

Pair Coeffs

   1	0.1094	3.3996695084235347	# c3
   2	0.0157	2.649532787749369	# hc
   3	0.086	3.3996695084235347	# c
   4	0.17	3.249998523775958	# n3
   5	0.0157	2.471353044121301	# h1
   6	0.0157	1.069078461768407	# hn
   7	0.21	2.959921901149463	# o
   8	0.015	2.5105525877194763	# h4
   9	0.2104	3.0664733878390478	# oh
  10	0.0047	0.5379246460131368	# ho

Bond Coeffs

   1	300.9	1.5375	# c3,c3
   2	330.6	1.0969	# c3,hc
   3	392.4	1.019	# hn,n3
   4	637.7	1.2183	# c,o
   5	330.6	1.0969	# c3,h1
   6	313.0	1.5241	# c,c3
   7	325.9	1.4647	# c3,n3
   8	310.7	1.1121	# c,h4
   9	325.9	1.465	# n3,c
  10	371.4	0.973	# ho,oh
  11	316.7	1.4233	# c3,oh
  12	400.1	1.3513	# c,oh

Angle Coeffs

   1	46.39	109.56	# c3,c3,h1
   2	39.4	107.58	# hc,c3,hc
   3	45.64	114.64	# c3,c,h4
   4	41.4	106.4	# hn,n3,hn
   5	39.24	108.46	# h1,c3,h1
   6	49.53	109.88	# h1,c3,n3
   7	46.93	108.77	# c,c3,hc
   8	66.02	111.04	# c3,c3,n3
   9	62.86	111.51	# c3,c3,c3
  10	67.4	123.2	# c3,c,o
  11	54.22	120.7	# h4,c,o
  12	63.27	111.04	# c,c3,c3
  13	46.34	109.8	# c3,c3,hc
  14	47.42	109.29	# c3,n3,hn
  15	63.8	112.35	# c3,n3,c
  16	47.4	109.29	# hn,n3,c
  17	66.0	111.04	# n3,c,c3
  18	70.9	110.7	# n3,c,o
  19	47.38	107.26	# c3,oh,ho
  20	67.47	110.19	# c3,c3,oh
  21	50.93	110.26	# h1,c3,oh
  22	63.82	112.35	# c3,n3,c3
  23	49.55	109.8	# hc,c3,n3
  24	67.9	109.98	# c3,oh,c
  25	68.4	112.73	# c3,c,oh
  26	75.92	122.1	# o,c,oh
  27	62.7	112.48	# c3,oh,c3
  28	51.11	109.5	# hc,c3,oh

Dihedral Coeffs

   1	1	0.16	3	0	# hc,c3,c3,c3
   2	1	0.3	3	0	# X,c3,n3,X
   3	1	0.15555555555555556	3	0	# X,c3,c3,X
   4	3	0.18	3	0	0.25	2	180	0.2	1	180	# c3,c3,c3,c3
   5	1	0.0	2	180	# X,c,c3,X
   6	1	0.15	3	0	# hc,c3,c3,hc
   7	3	0.8	1	0	0.0	2	0	0.08	3	180	# hc,c3,c,o
   8	2	0.16	3	0	0.25	1	0	# ho,oh,c3,c3
   9	1	0.16666666666666666	3	0	# X,c3,oh,X
  10	2	0.0	3	0	0.25	1	0	# hc,c3,c3,oh
  11	2	0.3	3	0	0.48	2	180	# c3,c3,n3,c3
  12	1	2.3	2	180	# X,c,oh,X

Improper Coeffs

   1	10.5	-1	2	# c,X,X,o

Atoms

   1	1	1	0.57552	-12.9119	-9.24636	-16.7723
   2	1	1	-1.07208	-12.1642	-10.558	-16.6623
   3	1	2	0.119263	-11.101	-10.4056	-16.8726
   4	1	2	0.211544	-12.2601	-10.9454	-15.6434
   5	1	1	0.745843	-12.7508	-11.5802	-17.6498
   6	1	2	-0.177131	-13.8343	-11.6251	-17.5025
   7	1	2	-0.142119	-12.5708	-11.2214	-18.6711
   8	1	1	0.080873	-12.1225	-12.9794	-17.436
   9	1	2	0.018859	-11.0474	-12.8513	-17.2755
  10	1	2	-0.02655	-12.519	-13.3791	-16.4948
  11	1	1	-0.221824	-12.3233	-14.0119	-18.5795
  12	1	2	0.031284	-13.3859	-14.2325	-18.7199
  13	1	2	0.013242	-11.9789	-13.581	-19.5312
  14	1	1	0.073218	-11.5152	-15.3022	-18.2906
  15	1	2	-0.024643	-11.5666	-15.9736	-19.1564
  16	1	2	-0.008342	-10.454	-15.0496	-18.1585
  17	1	1	0.04656	-12.0228	-16.0414	-17.0298
  18	1	2	-0.007327	-11.4279	-16.9545	-16.9016
  19	1	2	0.003322	-11.8365	-15.4381	-16.135
  20	1	1	-0.01926	-13.516	-16.4382	-17.0776
  21	1	2	0.003715	-14.1406	-15.5418	-17.1705
  22	1	2	0.000131	-13.7137	-17.0745	-17.9474
  23	1	1	-0.031072	-13.9251	-17.1589	-15.7892
  24	1	2	-0.002086	-13.3474	-18.0855	-15.6667
  25	1	2	-0.003252	-13.6783	-16.5071	-14.9391
  26	1	1	0.083103	-15.435	-17.4635	-15.8244
  27	1	2	-0.003597	-15.9955	-16.6239	-16.2505
  28	1	2	-0.00033	-15.6201	-18.3307	-16.4718
  29	1	1	0.015717	-15.9714	-17.753	-14.4211
  30	1	2	-0.004333	-16.9859	-18.1628	-14.4825
  31	1	2	-0.003064	-15.3526	-18.5088	-13.9255
  32	1	3	0.43523	-16.0243	-16.4984	-13.5494
  33	1	4	-0.39711	-12.3631	-8.34585	-15.7818
  34	1	5	-0.041868	-13.9792	-9.4031	-16.5972
  35	1	5	-0.011544	-12.7734	-8.83495	-17.7845
  36	1	6	0.237688	-11.362	-8.33481	-15.9436
  37	1	7	-0.49758	-15.867	-15.3417	-13.9189
  38	1	1	0.57552	-15.2262	3.70746	-10.3169
  39	1	1	-1.07208	-15.2617	2.25099	-10.7846
  40	1	2	0.119263	-16.2908	1.95876	-11.0217
  41	1	2	0.211544	-14.6727	2.17147	-11.7041
  42	1	1	0.745843	-14.6646	1.25542	-9.76474
  43	1	2	-0.177131	-13.7795	1.71781	-9.30945
  44	1	2	-0.142119	-15.406	1.11637	-8.97022
  45	1	1	0.080873	-14.2718	-0.12909	-10.3832
  46	1	2	0.018859	-15.117	-0.506083	-10.9754
  47	1	2	-0.02655	-13.4467	0.0358604	-11.0931
  48	1	1	-0.221824	-13.8341	-1.22264	-9.34727
  49	1	2	0.031284	-13.2329	-0.754314	-8.55701
  50	1	2	0.013242	-14.7216	-1.63729	-8.84838
  51	1	1	0.073218	-12.9849	-2.37288	-9.95818
  52	1	2	-0.024643	-12.04	-1.96949	-10.3307
  53	1	2	-0.008342	-12.727	-3.09286	-9.17174
  54	1	1	0.04656	-13.724	-3.10659	-11.1012
  55	1	2	-0.007327	-14.6367	-3.57231	-10.7135
  56	1	2	0.003322	-14.041	-2.36138	-11.8386
  57	1	1	-0.01926	-12.8816	-4.15414	-11.8498
  58	1	2	0.003715	-11.9201	-3.70926	-12.1456
  59	1	2	0.000131	-12.6657	-5.00398	-11.1915
  60	1	1	-0.031072	-13.6274	-4.63705	-13.109
  61	1	2	-0.002086	-14.5574	-5.13977	-12.8104
  62	1	2	-0.003252	-13.9121	-3.7705	-13.7195
  63	1	1	0.083103	-12.7569	-5.56806	-13.9674
  64	1	2	-0.003597	-12.036	-4.94671	-14.5085
  65	1	2	-0.00033	-12.1843	-6.26161	-13.3403
  66	1	1	0.015717	-13.63	-6.36676	-14.9468
  67	1	2	-0.004333	-14.1886	-7.14162	-14.4113
  68	1	2	-0.003064	-14.3708	-5.70933	-15.422
  69	1	3	0.43523	-12.8036	-6.98935	-16.0602
  70	1	4	-0.39711	-15.5937	4.48372	-11.484
  71	1	5	-0.041868	-14.2216	3.97845	-9.9729
  72	1	5	-0.011544	-15.9406	3.85381	-9.49648
  73	1	6	0.237688	-16.4431	4.05148	-11.827
  74	1	7	-0.49758	-11.8572	-6.40361	-16.5399
  75	1	1	0.57552	-13.2241	5.4825	-23.4159
  76	1	1	-1.07208	-14.0523	5.69478	-22.1654
  77	1	2	0.119263	-15.1004	5.85878	-22.4268
  78	1	2	0.211544	-13.9903	4.79924	-21.5362
  79	1	1	0.745843	-13.5232	6.88358	-21.3508
  80	1	2	-0.177131	-12.5788	6.57209	-20.8889
  81	1	2	-0.142119	-13.3069	7.71822	-22.0217
  82	1	1	0.080873	-14.5483	7.3472	-20.2852
  83	1	2	0.018859	-15.2867	7.99745	-20.7751
  84	1	2	-0.02655	-15.1025	6.4697	-19.9198
  85	1	1	-0.221824	-13.9442	8.07651	-19.0585
  86	1	2	0.031284	-13.2334	7.41059	-18.5566
  87	1	2	0.013242	-13.3913	8.9684	-19.3635
  88	1	1	0.073218	-15.0612	8.49941	-18.0812
  89	1	2	-0.024643	-15.5668	9.39093	-18.4739
  90	1	2	-0.008342	-15.8231	7.70587	-18.0761
  91	1	1	0.04656	-14.5799	8.76205	-16.6329
  92	1	2	-0.007327	-13.6559	8.20942	-16.4373
  93	1	2	0.003322	-14.3146	9.81808	-16.5039
  94	1	1	-0.01926	-15.6583	8.34668	-15.5965
  95	1	2	0.003715	-16.4431	9.11228	-15.5496
  96	1	2	0.000131	-16.1548	7.42645	-15.9331
  97	1	1	-0.031072	-15.1113	8.08836	-14.1745
  98	1	2	-0.002086	-14.1835	7.51462	-14.2795
  99	1	2	-0.003252	-14.8497	9.04441	-13.7069
 100	1	1	0.083103	-16.0547	7.28602	-13.2353
 101	1	2	-0.003597	-16.9323	7.88687	-12.9625
 102	1	2	-0.00033	-16.4119	6.3769	-13.7417
 103	1	1	0.015717	-15.2639	6.88773	-11.9691
 104	1	2	-0.004333	-14.284	6.47827	-12.2545
 105	1	2	-0.003064	-15.0631	7.77565	-11.3547
 106	1	3	0.43523	-15.9727	5.83274	-11.1145
 107	1	4	-0.39711	-13.8231	4.32318	-24.0612
 108	1	5	-0.041868	-12.1802	5.28275	-23.1414
 109	1	5	-0.011544	-13.2715	6.36116	-24.0673
 110	1	6	0.237688	-14.823	4.50994	-24.066
 111	1	7	-0.49758	-17.1744	5.80296	-10.9374
 112	1	1	0.304671	-14.5046	3.92606	-28.5201
 113	1	1	-1.24578	-13.88	2.78571	-27.6691
 114	1	1	0.921237	-14.1131	2.87346	-26.1492
 115	1	2	0.238751	-12.8107	2.68001	-27.8732
 116	1	2	0.241495	-14.3425	1.84219	-27.9796
 117	1	1	-0.299014	-13.3261	4.00768	-25.4361
 118	1	2	-0.179791	-13.8783	1.90382	-25.7059
 119	1	2	-0.17909	-15.1826	3.0486	-26.0159
 120	1	2	0.080952	-12.2689	3.72445	-25.4069
 121	1	2	0.084393	-13.395	4.91367	-26.0374
 122	1	9	-0.116242	-13.6476	5.07097	-28.4604
 123	1	5	0.075247	-15.5152	4.14961	-28.1438
 124	1	5	0.07317	-14.6001	3.60266	-29.5678
 125	1	1	0.57552	-7.97597	8.04009	-19.6785
 126	1	1	-1.07208	-8.40818	9.49427	-19.8165
 127	1	2	0.119263	-7.96746	10.0321	-18.9682
 128	1	2	0.211544	-7.99662	9.94892	-20.7212
 129	1	1	0.745843	-9.92998	9.73588	-19.7301
 130	1	2	-0.177131	-10.2769	9.27018	-18.7996
 131	1	2	-0.142119	-10.046	10.8149	-19.583
 132	1	1	0.080873	-10.8513	9.31311	-20.9247
 133	1	2	0.018859	-10.8822	8.22273	-20.998
 134	1	2	-0.02655	-11.8707	9.64172	-20.7046
 135	1	1	-0.221824	-10.4531	9.91794	-22.3019
 136	1	2	0.031284	-10.4982	11.0169	-22.2765
 137	1	2	0.013242	-9.41156	9.652	-22.5144
 138	1	1	0.073218	-11.3119	9.37112	-23.4649
 139	1	2	-0.024643	-10.7541	9.47991	-24.4024
 140	1	2	-0.008342	-11.4392	8.29412	-23.3237
 141	1	1	0.04656	-12.7016	10.0533	-23.6234
 142	1	2	-0.007327	-13.1925	10.1474	-22.6423
 143	1	2	0.003322	-12.5415	11.0726	-23.9881
 144	1	1	-0.01926	-13.6804	9.31572	-24.5919
 145	1	2	0.003715	-14.0936	8.44389	-24.0708
 146	1	2	0.000131	-14.5391	9.96826	-24.7942
 147	1	1	-0.031072	-13.0715	8.83027	-25.936
 148	1	2	-0.002086	-12.6565	9.67973	-26.4988
 149	1	2	-0.003252	-12.236	8.14962	-25.7211
 150	1	1	0.083103	-14.1038	8.06625	-26.8147
 151	1	2	-0.003597	-14.5784	7.28221	-26.2082
 152	1	2	-0.00033	-14.8994	8.74526	-27.1439
 153	1	1	0.015717	-13.432	7.42106	-28.0525
 154	1	2	-0.004333	-13.2607	8.18012	-28.8281
 155	1	2	-0.003064	-12.4406	7.02728	-27.7762
 156	1	3	0.43523	-14.2542	6.27887	-28.647
 157	1	4	-0.39711	-8.46605	7.25795	-20.8145
 158	1	5	-0.041868	-8.37641	7.63988	-18.7389
 159	1	5	-0.011544	-6.87888	7.9955	-19.6334
 160	1	6	0.237688	-8.28258	7.78557	-21.6644
 161	1	7	-0.49758	-15.3637	6.4475	-29.1325
 162	1	1	0.304671	-9.14604	2.41954	-22.2184
 163	1	1	-1.24578	-8.27297	3.50026	-21.554
 164	1	1	0.921237	-8.85534	4.89137	-21.7018
 165	1	2	0.238751	-7.27541	3.51573	-22.0047
 166	1	2	0.241495	-8.16625	3.27324	-20.4877
 167	1	1	-0.299014	-7.94387	5.86939	-20.932
 168	1	2	-0.179791	-9.86512	4.915	-21.2864
 169	1	2	-0.17909	-8.89976	5.14279	-22.7642
 170	1	2	0.080952	-7.82314	5.4617	-19.9224
 171	1	2	0.084393	-6.94732	5.87858	-21.3925
 172	1	9	-0.116242	-10.2507	2.09602	-21.3657
 173	1	5	0.075247	-8.54343	1.51069	-22.331
 174	1	5	0.07317	-9.46414	2.72064	-23.2297
 175	1	1	0.304671	-13.8961	-0.535694	-21.6037
 176	1	1	-1.24578	-12.7346	0.358351	-22.0886
 177	1	1	0.921237	-12.6589	1.63891	-21.2671
 178	1	2	0.238751	-12.9021	0.638582	-23.131
 179	1	2	0.241495	-11.7777	-0.171685	-22.0304
 180	1	1	-0.299014	-11.5484	2.59145	-21.7285
 181	1	2	-0.179791	-12.5202	1.37565	-20.2211
 182	1	2	-0.17909	-13.6301	2.13515	-21.3466
 183	1	2	0.080952	-11.6364	2.73634	-22.8103
 184	1	2	0.084393	-11.7085	3.56167	-21.252
 185	1	9	-0.116242	-13.9857	-1.67435	-22.4636
 186	1	5	0.075247	-14.8327	0.0415523	-21.6384
 187	1	5	0.07317	-13.7385	-0.866773	-20.5652
 188	1	1	0.304671	-16.9065	-0.767701	-25.726
 189	1	1	-1.24578	-16.4356	-0.865833	-24.2357
 190	1	1	0.921237	-15.9452	-2.27244	-23.8781
 191	1	2	0.238751	-17.2647	-0.617429	-23.5645
 192	1	2	0.241495	-15.612	-0.164971	-24.0496
 193	1	1	-0.299014	-15.2667	-2.3354	-22.4882
 194	1	2	-0.179791	-15.2453	-2.61122	-24.6461
 195	1	2	-0.17909	-16.8164	-2.93267	-23.9049
 196	1	2	0.080952	-15.9558	-1.93097	-21.7342
 197	1	2	0.084393	-15.1031	-3.39335	-22.241
 198	1	9	-0.116242	-17.0516	0.630412	-26.0411
 199	1	5	0.075247	-17.8509	-1.31458	-25.8646
 200	1	5	0.07317	-16.1599	-1.2137	-26.3983
 201	1	1	0.57552	-14.9708	3.06903	-18.0808
 202	1	1	-1.07208	-16.3627	3.43807	-18.5662
 203	1	2	0.119263	-17.1267	2.9625	-17.935
 204	1	2	0.211544	-16.505	4.51848	-18.4908
 205	1	1	0.745843	-16.5447	2.99528	-20.0287
 206	1	2	-0.177131	-15.6968	3.38583	-20.5985
 207	1	2	-0.142119	-16.4967	1.8946	-20.0912
 208	1	1	0.080873	-17.8709	3.54726	-20.596
 209	1	2	0.018859	-18.6876	3.11231	-20.0188
 210	1	2	-0.02655	-17.9126	4.62743	-20.4038
 211	1	1	-0.221824	-18.1187	3.29599	-22.094
 212	1	2	0.031284	-17.3328	3.76859	-22.7012
 213	1	2	0.013242	-18.0853	2.21406	-22.2918
 214	1	1	0.073218	-19.489	3.884	-22.4712
 215	1	2	-0.024643	-20.2908	3.37324	-21.9227
 216	1	2	-0.008342	-19.532	4.93947	-22.1744
 217	1	1	0.04656	-19.7675	3.80292	-23.99
 218	1	2	-0.007327	-20.7934	4.14965	-24.1687
 219	1	2	0.003322	-19.1041	4.49546	-24.5265
 220	1	1	-0.01926	-19.5928	2.38079	-24.5523
 221	1	2	0.003715	-18.5337	2.11037	-24.5589
 222	1	2	0.000131	-20.0735	1.67548	-23.8688
 223	1	1	-0.031072	-20.2325	2.21498	-25.9574
 224	1	2	-0.002086	-20.2571	1.14082	-26.1863
 225	1	2	-0.003252	-21.284	2.53004	-25.9207
 226	1	1	0.083103	-19.4905	2.92525	-27.1257
 227	1	2	-0.003597	-19.9834	2.66327	-28.0709
 228	1	2	-0.00033	-19.5615	4.01556	-27.0208
 229	1	1	0.015717	-17.9977	2.5185	-27.2085
 230	1	2	-0.004333	-17.5738	2.88487	-28.1528
 231	1	2	-0.003064	-17.4497	3.02623	-26.4035
 232	1	3	0.43523	-17.7589	0.986504	-27.1409
 233	1	4	-0.39711	-14.8391	3.67839	-16.7733
 234	1	5	-0.041868	-14.2072	3.47571	-18.7581
 235	1	5	-0.011544	-14.8557	1.97705	-18.0172
 236	1	6	0.237688	-15.4538	3.17279	-16.1443
 237	1	7	-0.49758	-18.3111	0.167237	-27.8539
 238	1	1	0.57552	-3.40965	10.9682	-12.8738
 239	1	1	-1.07208	-4.34684	10.0644	-13.667
 240	1	2	0.119263	-3.91864	9.8333	-14.6509
 241	1	2	0.211544	-4.51943	9.11066	-13.1633
 242	1	1	0.745843	-5.68976	10.8169	-13.8588
 243	1	2	-0.177131	-6.0799	11.0974	-12.8735
 244	1	2	-0.142119	-5.46897	11.7553	-14.3841
 245	1	1	0.080873	-6.79615	10.0321	-14.644
 246	1	2	0.018859	-7.53668	10.7621	-14.9958
 247	1	2	-0.02655	-6.36489	9.56286	-15.535
 248	1	1	-0.221824	-7.54074	8.97874	-13.7745
 249	1	2	0.031284	-6.81809	8.22742	-13.4346
 250	1	2	0.013242	-7.92426	9.46961	-12.8711
 251	1	1	0.073218	-8.7071	8.24641	-14.5234
 252	1	2	-0.024643	-9.4877	8.96957	-14.7934
 253	1	2	-0.008342	-8.30434	7.83993	-15.4588
 254	1	1	0.04656	-9.36303	7.06565	-13.7332
 255	1	2	-0.007327	-8.58875	6.32619	-13.5148
 256	1	2	0.003322	-9.70151	7.44126	-12.7635
 257	1	1	-0.01926	-10.5715	6.32531	-14.3818
 258	1	2	0.003715	-10.8017	5.46806	-13.7436
 259	1	2	0.000131	-11.461	6.96807	-14.366
 260	1	1	-0.031072	-10.3532	5.79098	-15.8173
 261	1	2	-0.002086	-10.5242	6.59731	-16.5425
 262	1	2	-0.003252	-9.31188	5.47319	-15.9367
 263	1	1	0.083103	-11.2517	4.57313	-16.142
 264	1	2	-0.003597	-11.0437	4.20747	-17.1565
 265	1	2	-0.00033	-10.9421	3.76456	-15.4692
 266	1	1	0.015717	-12.774	4.79136	-15.9593
 267	1	2	-0.004333	-12.9945	5.10423	-14.9318
 268	1	2	-0.003064	-13.1416	5.59101	-16.6207
 269	1	3	0.43523	-13.5233	3.48404	-16.2596
 270	1	4	-0.39711	-2.12022	10.2693	-12.6867
 271	1	5	-0.041868	-3.84166	11.2	-11.8893
 272	1	5	-0.011544	-3.24274	11.9049	-13.4258
 273	1	6	0.237688	-1.79039	9.98065	-13.6095
 274	1	7	-0.49758	-13.6641	2.53765	-15.5151
 275	1	1	0.304671	2.27813	9.04052	-12.0918
 276	1	1	-1.24578	1.20624	9.9696	-12.757
 277	1	1	0.921237	0.237006	10.402	-11.6499
 278	1	2	0.238751	0.676071	9.41917	-13.5432
 279	1	2	0.241495	1.7037	10.8467	-13.1864
 280	1	1	-0.299014	-1.09578	11.0926	-11.9956
 281	1	2	-0.179791	0.804247	11.0817	-10.9611
 282	1	2	-0.17909	0.00449421	9.52184	-11.0938
 283	1	2	0.080952	-1.51789	11.4771	-11.0608
 284	1	2	0.084393	-0.865319	11.9792	-12.5876
 285	1	9	-0.116242	3.27041	8.61999	-13.0294
 286	1	5	0.075247	1.7484	8.16755	-11.6883
 287	1	5	0.07317	2.74982	9.53886	-11.2388
 288	1	1	0.57552	16.0953	11.9023	-16.1865
 289	1	1	-1.07208	15.1804	11.2911	-15.1187
 290	1	2	0.119263	14.6048	10.4624	-15.5509
 291	1	2	0.211544	15.7676	10.9223	-14.2729
 292	1	1	0.745843	14.2191	12.4082	-14.5909
 293	1	2	-0.177131	14.8503	13.1955	-14.1765
 294	1	2	-0.142119	13.7139	12.8608	-15.4536
 295	1	1	0.080873	13.1483	11.9894	-13.5309
 296	1	2	0.018859	13.6414	11.6367	-12.6152
 297	1	2	-0.02655	12.576	12.8809	-13.2528
 298	1	1	-0.221824	12.1742	10.9112	-14.0443
 299	1	2	0.031284	11.8339	11.2152	-15.0417
 300	1	2	0.013242	12.6988	9.95632	-14.1834
 301	1	1	0.073218	10.9418	10.7006	-13.1364
 302	1	2	-0.024643	11.2294	10.1646	-12.2218
 303	1	2	-0.008342	10.5274	11.6705	-12.8156
 304	1	1	0.04656	9.84116	9.91946	-13.8873
 305	1	2	-0.007327	9.51321	10.4953	-14.7688
 306	1	2	0.003322	10.2735	8.97909	-14.2534
 307	1	1	-0.01926	8.64181	9.59361	-12.9768
 308	1	2	0.003715	8.96486	8.88892	-12.1964
 309	1	2	0.000131	8.27987	10.5028	-12.4773
 310	1	1	-0.031072	7.49032	8.97837	-13.7964
 311	1	2	-0.002086	7.08978	9.72415	-14.4881
 312	1	2	-0.003252	7.84647	8.11546	-14.374
 313	1	1	0.083103	6.40387	8.53932	-12.8146
 314	1	2	-0.003597	6.84305	8.01047	-11.9599
 315	1	2	-0.00033	5.9204	9.44106	-12.4141
 316	1	1	0.015717	5.34881	7.63218	-13.4502
 317	1	2	-0.004333	5.11585	8.00061	-14.4608
 318	1	2	-0.003064	5.73225	6.60881	-13.5503
 319	1	3	0.43523	4.10144	7.63962	-12.5835
 320	1	4	-0.39711	16.9426	10.9626	-16.9304
 321	1	5	-0.041868	16.7384	12.6499	-15.7205
 322	1	5	-0.011544	15.4637	12.4164	-16.9208
 323	1	6	0.237688	16.3514	10.2034	-17.2577
 324	1	7	-0.49758	4.04728	7.10848	-11.4771
 325	1	1	0.304671	19.2854	8.33474	-13.3465
 326	1	1	-1.24578	19.3996	9.04083	-14.696
 327	1	1	0.921237	18.0924	9.72935	-14.9609
 328	1	2	0.238751	19.5992	8.34394	-15.5033
 329	1	2	0.241495	20.1819	9.80787	-14.6575
 330	1	1	-0.299014	18.1932	10.44	-16.3334
 331	1	2	-0.179791	17.9177	10.4483	-14.1616
 332	1	2	-0.17909	17.3188	8.95533	-14.9646
 333	1	2	0.080952	18.9009	11.2788	-16.2411
 334	1	2	0.084393	18.6366	9.75666	-17.0729
 335	1	9	-0.116242	20.6001	8.11497	-12.8758
 336	1	5	0.075247	18.7135	7.4065	-13.4451
 337	1	5	0.07317	18.781	8.96509	-12.5907
 338	1	1	0.304671	22.5653	7.1091	-16.6132
 339	1	1	-1.24578	23.3158	7.03915	-15.2688
 340	1	1	0.921237	22.606	7.89656	-14.1917
 341	1	2	0.238751	24.3219	7.42476	-15.4126
 342	1	2	0.241495	23.4235	6.00191	-14.9232
 343	1	1	-0.299014	21.3521	7.18865	-13.6397
 344	1	2	-0.179791	22.4448	8.9036	-14.5846
 345	1	2	-0.17909	23.3092	8.0068	-13.3686
 346	1	2	0.080952	20.7737	6.72876	-14.4483
 347	1	2	0.084393	21.6867	6.40664	-12.9785
 348	1	9	-0.116242	23.1195	6.2018	-17.5767
 349	1	5	0.075247	22.5859	8.13097	-17.0137
 350	1	5	0.07317	21.5012	6.8637	-16.4666
 351	1	1	0.57552	13.549	0.224019	-16.6827
 352	1	1	-1.07208	14.1303	-0.759136	-17.6686
 353	1	2	0.119263	14.8108	-1.43612	-17.1727
 354	1	2	0.211544	13.3324	-1.32069	-18.188
 355	1	1	0.745843	14.7888	0.0674126	-18.7321
 356	1	2	-0.177131	14.0502	0.326513	-19.4734
 357	1	2	-0.142119	15.1811	0.977953	-18.2768
 358	1	1	0.080873	15.9278	-0.758205	-19.3829
 359	1	2	0.018859	15.8199	-1.8333	-19.2397
 360	1	2	-0.02655	15.8841	-0.639454	-20.4849
 361	1	1	-0.221824	17.2538	-0.299773	-18.8531
 362	1	2	0.031284	17.1394	0.00282633	-17.7839
 363	1	2	0.013242	17.9039	-1.19043	-18.8777
 364	1	1	0.073218	17.8514	0.865226	-19.7238
 365	1	2	-0.024643	18.077	0.521475	-20.7505
 366	1	2	-0.008342	17.138	1.69306	-19.7733
 367	1	1	0.04656	19.1674	1.33363	-19.0562
 368	1	2	-0.007327	18.8774	1.84971	-18.1442
 369	1	2	0.003322	19.747	0.432777	-18.772
 370	1	1	-0.01926	20.0162	2.21964	-19.9933
 371	1	2	0.003715	20.447	1.63875	-20.8506
 372	1	2	0.000131	19.341	2.9755	-20.4649
 373	1	1	-0.031072	21.1459	3.03559	-19.2641
 374	1	2	-0.002086	20.7052	3.64015	-18.4473
 375	1	2	-0.003252	21.8521	2.37357	-18.7625
 376	1	1	0.083103	21.9317	3.967	-20.2369
 377	1	2	-0.003597	22.4464	3.30714	-20.9641
 378	1	2	-0.00033	21.2195	4.54496	-20.8132
 379	1	1	0.015717	22.9465	4.93774	-19.5873
 380	1	2	-0.004333	23.6328	4.35013	-18.9835
 381	1	2	-0.003064	23.5978	5.41163	-20.3383
 382	1	3	0.43523	22.3697	6.07131	-18.7043
 383	1	4	-0.39711	12.5879	-0.453084	-15.9025
 384	1	5	-0.041868	13.0491	1.03826	-17.2096
 385	1	5	-0.011544	14.377	0.619767	-16.0625
 386	1	6	0.237688	13.1133	-1.18865	-15.4746
 387	1	7	-0.49758	21.3637	6.75249	-18.9808
 388	1	1	0.57552	3.3903	-1.49503	-7.25903
 389	1	1	-1.07208	3.37899	-0.551565	-8.44888
 390	1	2	0.119263	2.3594	-0.202971	-8.70481
 391	1	2	0.211544	3.97399	0.278787	-8.17057
 392	1	1	0.745843	4.03076	-1.27244	-9.64273
 393	1	2	-0.177131	4.88927	-1.82146	-9.30598
 394	1	2	-0.142119	3.27822	-2.03144	-9.93012
 395	1	1	0.080873	4.41125	-0.448747	-10.8707
 396	1	2	0.018859	3.60072	0.191525	-11.2084
 397	1	2	-0.02655	5.21696	0.24114	-10.6148
 398	1	1	-0.221824	4.75028	-1.42204	-12.0433
 399	1	2	0.031284	3.95987	-2.16223	-12.1034
 400	1	2	0.013242	4.84004	-0.863068	-12.9893
 401	1	1	0.073218	6.12094	-2.22386	-11.9222
 402	1	2	-0.024643	6.22759	-2.82576	-11.0321
 403	1	2	-0.008342	6.23042	-2.95408	-12.7191
 404	1	1	0.04656	7.38398	-1.2759	-11.9202
 405	1	2	-0.007327	7.15773	-0.369702	-11.3417
 406	1	2	0.003322	8.17649	-1.8439	-11.338
 407	1	1	-0.01926	7.92272	-0.970647	-13.3358
 408	1	2	0.003715	7.94559	-1.90416	-13.9239
 409	1	2	0.000131	7.16902	-0.330613	-13.8371
 410	1	1	-0.031072	9.30672	-0.253761	-13.4069
 411	1	2	-0.002086	9.43895	0.443479	-12.5889
 412	1	2	-0.003252	10.104	-1.01471	-13.2708
 413	1	1	0.083103	9.47996	0.53858	-14.7602
 414	1	2	-0.003597	9.26037	-0.137691	-15.5926
 415	1	2	-0.00033	8.69226	1.32925	-14.8176
 416	1	1	0.015717	10.8434	1.23535	-15.0411
 417	1	2	-0.004333	10.8562	1.71843	-16.0121
 418	1	2	-0.003064	10.936	2.08271	-14.3249
 419	1	3	0.43523	12.088	0.360582	-14.8291
 420	1	4	-0.39711	2.99804	-0.713645	-6.09776
 421	1	5	-0.041868	4.40273	-1.94043	-7.16358
 422	1	5	-0.011544	2.62852	-2.25403	-7.42895
 423	1	6	0.237688	3.69806	-0.0491543	-5.76755
 424	1	7	-0.49758	12.8849	0.516549	-13.9541
 425	1	1	0.57552	9.77094	-3.83662	0.268897
 426	1	1	-1.07208	8.64764	-4.37744	1.10352
 427	1	2	0.119263	8.71391	-5.48255	0.997498
 428	1	2	0.211544	8.85319	-4.068	2.15026
 429	1	1	0.745843	7.29756	-3.89272	0.68158
 430	1	2	-0.177131	7.20343	-2.82177	0.654007
 431	1	2	-0.142119	7.11741	-4.23387	-0.348111
 432	1	1	0.080873	6.26171	-4.49169	1.63354
 433	1	2	0.018859	6.3602	-5.62242	1.65625
 434	1	2	-0.02655	6.4002	-4.06141	2.63789
 435	1	1	-0.221824	4.7735	-4.06692	1.27261
 436	1	2	0.031284	4.04799	-4.27258	2.08945
 437	1	2	0.013242	4.82212	-2.96044	1.26119
 438	1	1	0.073218	4.26161	-4.65259	-0.0703319
 439	1	2	-0.024643	5.04143	-4.69951	-0.836275
 440	1	2	-0.008342	3.82363	-5.66244	0.101543
 441	1	1	0.04656	3.21221	-3.73246	-0.64779
 442	1	2	-0.007327	2.34937	-3.79871	0.0755599
 443	1	2	0.003322	3.64423	-2.6987	-0.611576
 444	1	1	-0.01926	2.75826	-4.09387	-2.11477
 445	1	2	0.003715	3.64056	-3.92856	-2.74963
 446	1	2	0.000131	2.59376	-5.19898	-2.10346
 447	1	1	-0.031072	1.50167	-3.33996	-2.63459
 448	1	2	-0.002086	0.671754	-3.79049	-2.09225
 449	1	2	-0.003252	1.47567	-2.31785	-2.2093
 450	1	1	0.083103	1.03941	-3.29363	-4.19446
 451	1	2	-0.003597	1.65348	-4.09427	-4.62324
 452	1	2	-0.00033	0.0127854	-3.65209	-4.30621
 453	1	1	0.015717	1.23526	-2.03878	-5.05236
 454	1	2	-0.004333	1.02863	-2.33488	-6.0897
 455	1	2	-0.003064	0.559127	-1.23361	-4.73322
 456	1	3	0.43523	2.68812	-1.59022	-4.98791
 457	1	4	-0.39711	10.9061	-3.92481	1.14626
 458	1	5	-0.041868	9.53581	-2.82998	-0.0369619
 459	1	5	-0.011544	9.84157	-4.50201	-0.592804
 460	1	6	0.237688	11.2115	-2.97417	1.26991
 461	1	7	-0.49758	3.26807	-1.2033	-4.01594
 462	1	1	0.57552	22.4096	-10.2404	2.3186
 463	1	1	-1.07208	21.5267	-9.0059	2.18359
 464	1	2	0.119263	21.6578	-8.53704	1.20006
 465	1	2	0.211544	20.4447	-9.19187	2.24774
 466	1	1	0.745843	21.9168	-7.88594	3.19404
 467	1	2	-0.177131	22.178	-8.37725	4.13071
 468	1	2	-0.142119	22.768	-7.36296	2.80746
 469	1	1	0.080873	20.7182	-6.97147	3.4372
 470	1	2	0.018859	20.0143	-7.56927	4.07928
 471	1	2	-0.02655	21.0378	-6.17016	4.11403
 472	1	1	-0.221824	20.0624	-6.40899	2.17158
 473	1	2	0.031284	20.8394	-5.84073	1.6024
 474	1	2	0.013242	19.7698	-7.20162	1.44238
 475	1	1	0.073218	18.8705	-5.54649	2.50581
 476	1	2	-0.024643	19.0731	-4.89077	3.32635
 477	1	2	-0.008342	18.5849	-4.93508	1.65812
 478	1	1	0.04656	17.5809	-6.34848	2.92622
 479	1	2	-0.007327	17.4756	-7.22672	2.21934
 480	1	2	0.003322	17.7028	-6.83713	3.92944
 481	1	1	-0.01926	16.3454	-5.45538	2.85759
 482	1	2	0.003715	16.2946	-4.7486	3.68765
 483	1	2	0.000131	16.5019	-4.87548	1.94481
 484	1	1	-0.031072	14.9406	-6.07658	2.63521
 485	1	2	-0.002086	15.0366	-6.67436	1.72978
 486	1	2	-0.003252	14.6861	-6.73052	3.4938
 487	1	1	0.083103	13.7737	-5.07568	2.45323
 488	1	2	-0.003597	13.3916	-4.81823	3.43084
 489	1	2	-0.00033	14.2021	-4.1283	2.0531
 490	1	1	0.015717	12.619	-5.63457	1.53053
 491	1	2	-0.004333	12.9485	-6.51197	0.950288
 492	1	2	-0.003064	11.82	-5.97476	2.20867
 493	1	3	0.43523	11.94	-4.66915	0.50971
 494	1	4	-0.39711	21.7401	-11.174	1.42307
 495	1	5	-0.041868	22.476	-10.6266	3.33345
 496	1	5	-0.011544	23.4276	-10.0201	1.92199
 497	1	6	0.237688	21.1175	-10.5865	0.864631
 498	1	7	-0.49758	12.5212	-3.71127	0.0119483
 499	1	1	0.304671	20.4811	-12.1081	-2.92133
 500	1	1	-1.24578	21.0852	-11.6081	-1.54944
 501	1	1	0.921237	21.6353	-12.6974	-0.653991
 502	1	2	0.238751	20.35	-11.0308	-1.02129
 503	1	2	0.241495	21.9101	-10.94	-1.67382
 504	1	1	-0.299014	22.454	-12.2052	0.58906
 505	1	2	-0.179791	22.3632	-13.1503	-1.35503
 506	1	2	-0.17909	20.8686	-13.4436	-0.452154
 507	1	2	0.080952	22.6579	-13.1205	1.14613
 508	1	2	0.084393	23.4168	-11.8055	0.235716
 509	1	9	-0.116242	21.5582	-12.214	-3.89483
 510	1	5	0.075247	19.8064	-11.3327	-3.29199
 511	1	5	0.07317	19.9444	-13.0702	-2.75129
 512	1	1	0.304671	24.6636	-10.3471	-7.34226
 513	1	1	-1.24578	23.6359	-10.045	-6.27762
 514	1	1	0.921237	23.1984	-11.3276	-5.6219
 515	1	2	0.238751	22.7907	-9.53411	-6.7329
 516	1	2	0.241495	24.1134	-9.47056	-5.50628
 517	1	1	-0.299014	22.0349	-11.0387	-4.61169
 518	1	2	-0.179791	24.0774	-11.839	-5.22865
 519	1	2	-0.17909	22.8339	-11.9788	-6.38636
 520	1	2	0.080952	22.2736	-10.2706	-3.86847
 521	1	2	0.084393	21.1802	-10.6213	-5.14343
 522	1	9	-0.116242	25.0775	-9.09544	-7.90568
 523	1	5	0.075247	24.179	-10.9139	-8.13804
 524	1	5	0.07317	25.5058	-10.962	-6.96702
 525	1	1	0.57552	23.7624	0.759059	-12.8013
 526	1	1	-1.07208	23.0984	0.0784129	-13.9588
 527	1	2	0.119263	23.2543	0.747804	-14.8477
 528	1	2	0.211544	23.6584	-0.814455	-14.2201
 529	1	1	0.745843	21.6353	-0.379573	-13.8615
 530	1	2	-0.177131	21.0368	0.270077	-13.1732
 531	1	2	-0.142119	21.2336	-0.190423	-14.8289
 532	1	1	0.080873	21.428	-1.91361	-13.5661
 533	1	2	0.018859	20.4353	-2.16349	-13.8234
 534	1	2	-0.02655	22.1372	-2.4951	-14.2027
 535	1	1	-0.221824	21.633	-2.44396	-12.0966
 536	1	2	0.031284	22.2876	-1.78116	-11.5389
 537	1	2	0.013242	20.6528	-2.40127	-11.59
 538	1	1	0.073218	22.1235	-3.89673	-12.005
 539	1	2	-0.024643	22.0478	-4.19728	-10.9808
 540	1	2	-0.008342	21.4377	-4.58442	-12.5342
 541	1	1	0.04656	23.6087	-3.99351	-12.499
 542	1	2	-0.007327	23.5894	-3.79247	-13.5388
 543	1	2	0.003322	24.2309	-3.21992	-11.9527
 544	1	1	-0.01926	24.1926	-5.47544	-12.4457
 545	1	2	0.003715	23.4577	-6.24251	-12.8562
 546	1	2	0.000131	25.0439	-5.58803	-13.1543
 547	1	1	-0.031072	24.6827	-5.76188	-11.0612
 548	1	2	-0.002086	25.5941	-5.23091	-10.7752
 549	1	2	-0.003252	23.9941	-5.45068	-10.3029
 550	1	1	0.083103	24.9112	-7.26275	-10.8324
 551	1	2	-0.003597	23.9821	-7.88974	-10.9013
 552	1	2	-0.00033	25.4456	-7.61853	-11.7435
 553	1	1	0.015717	25.8297	-7.57601	-9.59198
 554	1	2	-0.004333	26.8728	-7.45678	-9.8457
 555	1	2	-0.003064	25.5566	-6.87912	-8.76423
 556	1	3	0.43523	25.7366	-8.99385	-9.08641
 557	1	4	-0.39711	24.3651	-0.369055	-12.0532
 558	1	5	-0.041868	23.0336	1.25497	-12.1357
 559	1	5	-0.011544	24.5491	1.42179	-13.1898
 560	1	6	0.237688	23.6189	-0.958846	-11.6904
 561	1	7	-0.49758	25.7792	-9.91853	-9.8708
 562	1	1	0.57552	32.0243	0.251889	-2.15349
 563	1	1	-1.07208	32.1763	-0.610525	-3.42997
 564	1	2	0.119263	32.3332	0.0168328	-4.33143
 565	1	2	0.211544	33.0552	-1.21872	-3.27789
 566	1	1	0.745843	30.9692	-1.5649	-3.53832
 567	1	2	-0.177131	30.8418	-2.23868	-2.70036
 568	1	2	-0.142119	30.0244	-0.931817	-3.47752
 569	1	1	0.080873	31.026	-2.3347	-4.90855
 570	1	2	0.018859	31.5015	-1.63768	-5.54166
 571	1	2	-0.02655	31.7632	-3.16528	-4.75951
 572	1	1	-0.221824	29.6772	-2.84288	-5.41733
 573	1	2	0.031284	29.1435	-3.46569	-4.63442
 574	1	2	0.013242	29.0242	-1.95585	-5.46221
 575	1	1	0.073218	29.7622	-3.42009	-6.82535
 576	1	2	-0.024643	30.2375	-2.7371	-7.5864
 577	1	2	-0.008342	30.3892	-4.30922	-6.76168
 578	1	1	0.04656	28.3818	-3.80437	-7.36003
 579	1	2	-0.007327	28.5974	-4.57315	-8.12865
 580	1	2	0.003322	27.6953	-4.17008	-6.54149
 581	1	1	-0.01926	27.6596	-2.55618	-7.9862
 582	1	2	0.003715	27.3184	-1.82407	-7.18859
 583	1	2	0.000131	28.311	-1.88997	-8.59653
 584	1	1	-0.031072	26.4501	-3.14552	-8.81647
 585	1	2	-0.002086	26.7555	-3.85946	-9.59465
 586	1	2	-0.003252	25.8461	-3.71311	-8.08192
 587	1	1	0.083103	25.5773	-2.00696	-9.41933
 588	1	2	-0.003597	24.6312	-2.49673	-9.76007
 589	1	2	-0.00033	25.2812	-1.37154	-8.55264
 590	1	1	0.015717	26.2005	-1.29021	-10.6447
 591	1	2	-0.004333	27.2187	-0.916675	-10.4974
 592	1	2	-0.003064	26.2055	-2.03899	-11.5047
 593	1	3	0.43523	25.3205	-0.0338831	-11.0472
 594	1	4	-0.39711	33.2192	1.14892	-2.12639
 595	1	5	-0.041868	31.9829	-0.435356	-1.22832
 596	1	5	-0.011544	31.0575	0.756323	-2.16234
 597	1	6	0.237688	34.0585	0.524491	-2.14213
 598	1	7	-0.49758	25.009	0.820811	-10.208
 599	1	1	0.304671	33.8356	4.37925	0.911818
 600	1	1	-1.24578	32.7499	4.34445	-0.200235
 601	1	1	0.921237	33.2734	3.52524	-1.33617
 602	1	2	0.238751	32.5637	5.32948	-0.628789
 603	1	2	0.241495	31.858	3.95382	0.263002
 604	1	1	-0.299014	33.3054	2.05674	-0.951644
 605	1	2	-0.179791	34.2738	3.92657	-1.55667
 606	1	2	-0.17909	32.6549	3.76029	-2.21907
 607	1	2	0.080952	34.0819	1.78609	-0.217833
 608	1	2	0.084393	32.3211	1.9184	-0.499121
 609	1	9	-0.116242	33.3322	5.15298	1.95621
 610	1	5	0.075247	34.754	4.80094	0.500469
 611	1	5	0.07317	34.0938	3.44036	1.30143
 612	1	1	0.57552	26.2057	5.3158	-7.36257
 613	1	1	-1.07208	25.7871	5.67682	-5.97552
 614	1	2	0.119263	25.9313	6.81657	-5.72505
 615	1	2	0.211544	24.7185	5.44706	-5.69536
 616	1	1	0.745843	26.7327	4.93	-5.0377
 617	1	2	-0.177131	26.6092	3.85978	-5.10349
 618	1	2	-0.142119	27.736	5.06261	-5.42289
 619	1	1	0.080873	26.6309	5.45759	-3.53849
 620	1	2	0.018859	26.7061	6.50101	-3.5204
 621	1	2	-0.02655	25.6036	5.15963	-3.17817
 622	1	1	-0.221824	27.4456	4.7309	-2.51471
 623	1	2	0.031284	27.4138	3.66536	-2.60179
 624	1	2	0.013242	28.5022	5.04086	-2.62177
 625	1	1	0.073218	26.966	5.24676	-1.07768
 626	1	2	-0.024643	26.6203	6.33796	-1.02406
 627	1	2	-0.008342	25.9833	4.8347	-0.984279
 628	1	1	0.04656	27.6148	4.72555	0.228761