pySIMM System Object

904 atoms
903 bonds
1747 angles
2467 dihedrals
0 impropers

10 atom types
12 bond types
28 angle types
12 dihedral types
1 improper types

-84.290305 84.290305 xlo xhi
-84.290305 84.290305 ylo yhi
-84.290305 84.290305 zlo zhi

Masses

   1	12.01	# c3
   2	1.008	# hc
   3	16.0	# oh
   4	1.008	# h1
   5	1.008	# ho
   6	12.01	# c
   7	14.01	# n3
   8	1.008	# hn
   9	16.0	# o
  10	1.008	# h4

Pair Coeffs

   1	0.1094	3.3996695084235347	# c3
   2	0.0157	2.649532787749369	# hc
   3	0.2104	3.0664733878390478	# oh
   4	0.0157	2.471353044121301	# h1
   5	0.0047	0.5379246460131368	# ho
   6	0.086	3.3996695084235347	# c
   7	0.17	3.249998523775958	# n3
   8	0.0157	1.069078461768407	# hn
   9	0.21	2.959921901149463	# o
  10	0.015	2.5105525877194763	# h4

Bond Coeffs

   1	371.4	0.973	# ho,oh
   2	300.9	1.5375	# c3,c3
   3	330.6	1.0969	# c3,h1
   4	330.6	1.0969	# c3,hc
   5	316.7	1.4233	# c3,oh
   6	392.4	1.019	# hn,n3
   7	637.7	1.2183	# c,o
   8	313.0	1.5241	# c,c3
   9	325.9	1.4647	# c3,n3
  10	310.7	1.1121	# c,h4
  11	400.1	1.3513	# c,oh
  12	325.9	1.465	# n3,c

Angle Coeffs

   1	46.34	109.8	# c3,c3,hc
   2	47.38	107.26	# c3,oh,ho
   3	39.4	107.58	# hc,c3,hc
   4	62.86	111.51	# c3,c3,c3
   5	67.47	110.19	# c3,c3,oh
   6	46.39	109.56	# c3,c3,h1
   7	50.93	110.26	# h1,c3,oh
   8	39.24	108.46	# h1,c3,h1
   9	45.64	114.64	# c3,c,h4
  10	41.4	106.4	# hn,n3,hn
  11	49.53	109.88	# h1,c3,n3
  12	46.93	108.77	# c,c3,hc
  13	66.02	111.04	# c3,c3,n3
  14	67.4	123.2	# c3,c,o
  15	54.22	120.7	# h4,c,o
  16	63.27	111.04	# c,c3,c3
  17	47.42	109.29	# c3,n3,hn
  18	67.9	109.98	# c3,oh,c
  19	68.4	112.73	# c3,c,oh
  20	75.92	122.1	# o,c,oh
  21	63.82	112.35	# c3,n3,c3
  22	49.55	109.8	# hc,c3,n3
  23	62.7	112.48	# c3,oh,c3
  24	51.11	109.5	# hc,c3,oh
  25	63.8	112.35	# c3,n3,c
  26	47.4	109.29	# hn,n3,c
  27	66.0	111.04	# n3,c,c3
  28	70.9	110.7	# n3,c,o

Dihedral Coeffs

   1	1	0.15555555555555556	3	0	# X,c3,c3,X
   2	1	0.16	3	0	# hc,c3,c3,c3
   3	2	0.16	3	0	0.25	1	0	# ho,oh,c3,c3
   4	3	0.18	3	0	0.25	2	180	0.2	1	180	# c3,c3,c3,c3
   5	1	0.15	3	0	# hc,c3,c3,hc
   6	1	0.16666666666666666	3	0	# X,c3,oh,X
   7	2	0.0	3	0	0.25	1	0	# hc,c3,c3,oh
   8	1	0.3	3	0	# X,c3,n3,X
   9	1	0.0	2	180	# X,c,c3,X
  10	3	0.8	1	0	0.0	2	0	0.08	3	180	# hc,c3,c,o
  11	1	2.3	2	180	# X,c,oh,X
  12	2	0.3	3	0	0.48	2	180	# c3,c3,n3,c3

Improper Coeffs

   1	10.5	-1	2	# c,X,X,o

Atoms

   1	1	1	0.304671	5.80718	-11.2774	-4.49229
   2	1	1	-1.24578	4.80185	-10.1065	-4.68856
   3	1	1	0.921237	4.05659	-10.1468	-6.01425
   4	1	2	0.238751	5.244	-9.1102	-4.54143
   5	1	2	0.241495	4.03791	-10.186	-3.91279
   6	1	1	-0.299014	4.89469	-9.71182	-7.232
   7	1	2	-0.179791	3.18675	-9.49912	-5.89501
   8	1	2	-0.17909	3.65745	-11.1493	-6.12514
   9	1	2	0.080952	4.24342	-9.49994	-8.08555
  10	1	2	0.084393	5.61624	-10.4696	-7.55112
  11	1	3	-0.116242	6.90454	-11.0998	-5.3694
  12	1	4	0.075247	5.37038	-12.2779	-4.61884
  13	1	4	0.07317	6.17804	-11.2838	-3.45663
  14	1	1	0.57552	14.2552	-4.9753	-0.206733
  15	1	1	-1.07208	15.0763	-5.90352	0.653077
  16	1	2	0.119263	16.0782	-6.10221	0.261227
  17	1	2	0.211544	15.2097	-5.43272	1.65869
  18	1	1	0.745843	14.1918	-7.15613	0.824774
  19	1	2	-0.177131	14.5289	-7.67433	1.72096
  20	1	2	-0.142119	13.1494	-6.87493	1.05052
  21	1	1	0.080873	14.0857	-8.13329	-0.35699
  22	1	2	0.018859	13.3894	-7.69878	-1.06305
  23	1	2	-0.02655	15.0296	-8.14627	-0.911456
  24	1	1	-0.221824	13.6778	-9.6074	-0.0859513
  25	1	2	0.031284	14.4662	-9.99893	0.565335
  26	1	2	0.013242	12.7386	-9.68618	0.472468
  27	1	1	0.073218	13.582	-10.4352	-1.38392
  28	1	2	-0.024643	14.4141	-10.2272	-2.04911
  29	1	2	-0.008342	13.6505	-11.4936	-1.15323
  30	1	1	0.04656	12.2404	-10.1539	-2.13144
  31	1	2	-0.007327	11.4035	-10.3454	-1.43455
  32	1	2	0.003322	12.2165	-9.10405	-2.46381
  33	1	1	-0.01926	12.0472	-11.0015	-3.40024
  34	1	2	0.003715	12.9036	-10.8496	-4.04003
  35	1	2	0.000131	12.0639	-12.0475	-3.08982
  36	1	1	-0.031072	10.7464	-10.6689	-4.16327
  37	1	2	-0.002086	9.93041	-10.9288	-3.4954
  38	1	2	-0.003252	10.6701	-9.59564	-4.38671
  39	1	1	0.083103	10.5848	-11.5132	-5.43011
  40	1	2	-0.003597	11.3062	-11.137	-6.1696
  41	1	2	-0.00033	10.8643	-12.5479	-5.20765
  42	1	1	0.015717	9.18502	-11.5239	-6.04851
  43	1	2	-0.004333	9.0049	-10.552	-6.51972
  44	1	2	-0.003064	9.15973	-12.2614	-6.86832
  45	1	6	0.43523	8.02053	-11.8563	-5.07471
  46	1	7	-0.39711	14.5422	-5.39859	-1.55374
  47	1	4	-0.041868	14.5837	-3.93588	-0.0338838
  48	1	4	-0.011544	13.1754	-5.04094	0.0144941
  49	1	8	0.237688	14.5431	-6.4002	-1.60017
  50	1	9	-0.49758	7.98436	-12.957	-4.51353
  51	1	1	0.304671	10.1773	-3.68491	-3.79584
  52	1	1	-1.24578	11.6338	-4.18384	-3.88653
  53	1	1	0.921237	12.2231	-4.61668	-2.55383
  54	1	2	0.238751	12.2968	-3.42059	-4.26971
  55	1	2	0.241495	11.7007	-5.03488	-4.56188
  56	1	1	-0.299014	13.7724	-4.71616	-2.63601
  57	1	2	-0.179791	11.7799	-5.5997	-2.32838
  58	1	2	-0.17909	11.9186	-3.89933	-1.78786
  59	1	2	0.080952	13.9448	-5.225	-3.57894
  60	1	2	0.084393	14.168	-3.69804	-2.69453
  61	1	3	-0.116242	10.0477	-2.49449	-2.99285
  62	1	4	0.075247	9.54763	-4.5209	-3.43197
  63	1	4	0.07317	9.83868	-3.40058	-4.81084
  64	1	1	0.57552	14.6617	4.82413	4.83757
  65	1	1	-1.07208	14.9514	3.48579	4.10206
  66	1	2	0.119263	14.6067	3.55928	3.06042
  67	1	2	0.211544	16.0254	3.27991	4.15014
  68	1	1	0.745843	14.2575	2.25116	4.69627
  69	1	2	-0.177131	14.4382	2.2557	5.78416
  70	1	2	-0.142119	13.1754	2.3329	4.5528
  71	1	1	0.080873	14.8168	0.919544	4.0706
  72	1	2	0.018859	14.5957	0.900497	2.99278
  73	1	2	-0.02655	15.9171	0.902064	4.15804
  74	1	1	-0.221824	14.3056	-0.38339	4.78881
  75	1	2	0.031284	15.0803	-1.14729	4.65318
  76	1	2	0.013242	14.3355	-0.216912	5.87318
  77	1	1	0.073218	12.8991	-0.956596	4.39713
  78	1	2	-0.024643	12.6435	-1.82671	5.04682
  79	1	2	-0.008342	12.1623	-0.164902	4.64773
  80	1	1	0.04656	12.7456	-1.35313	2.8819
  81	1	2	-0.007327	13.121	-0.541641	2.24125
  82	1	2	0.003322	13.3585	-2.24675	2.64734
  83	1	1	-0.01926	11.2976	-1.66052	2.47617
  84	1	2	0.003715	10.9819	-2.62074	2.94509
  85	1	2	0.000131	10.6265	-0.891436	2.87167
  86	1	1	-0.031072	11.0883	-1.71451	0.940095
  87	1	2	-0.002086	11.6387	-0.866147	0.511053
  88	1	2	-0.003252	11.5203	-2.63694	0.557196
  89	1	1	0.083103	9.56619	-1.63359	0.549113
  90	1	2	-0.003597	9.02524	-2.50251	0.925472
  91	1	2	-0.00033	9.15599	-0.780383	1.04494
  92	1	1	0.015717	9.3015	-1.44505	-0.971115
  93	1	2	-0.004333	8.2822	-1.15059	-1.17832
  94	1	2	-0.003064	9.94495	-0.64363	-1.40262
  95	1	6	0.43523	9.59837	-2.74034	-1.72603
  96	1	7	-0.39711	15.2715	4.71983	6.16464
  97	1	4	-0.041868	13.5667	4.9408	4.87063
  98	1	4	-0.011544	15.1462	5.62853	4.25818
  99	1	8	0.237688	14.8413	3.90586	6.60694
 100	1	9	-0.49758	9.1048	-3.8019	-1.35568
 101	1	1	0.304671	11.5946	5.34936	8.56358
 102	1	1	-1.24578	13.0768	5.0389	8.28961
 103	1	1	0.921237	13.7123	6.18548	7.47456
 104	1	2	0.238751	13.1622	4.08235	7.76978
 105	1	2	0.241495	13.6151	4.90822	9.22396
 106	1	1	-0.299014	15.199	5.87187	7.12108
 107	1	2	-0.179791	13.6445	7.11575	8.05144
 108	1	2	-0.17909	13.0975	6.31483	6.57733
 109	1	2	0.080952	15.6405	6.75516	6.6428
 110	1	2	0.084393	15.7624	5.68895	8.05113
 111	1	3	-0.116242	10.8187	4.16383	8.65513
 112	1	4	0.075247	11.194	6.05071	7.79448
 113	1	4	0.07317	11.5308	5.88531	9.51076
 114	1	1	0.304671	8.68374	4.73246	4.76765
 115	1	1	-1.24578	9.41781	3.46299	5.16353
 116	1	1	0.921237	10.4336	3.65343	6.27891
 117	1	2	0.238751	9.95411	3.04208	4.29438
 118	1	2	0.241495	8.7253	2.67418	5.48718
 119	1	1	-0.299014	9.81439	4.12275	7.61353
 120	1	2	-0.179791	11.1731	4.38497	5.94176
 121	1	2	-0.17909	10.9454	2.69314	6.41326
 122	1	2	0.080952	9.33898	5.11094	7.48417
 123	1	2	0.084393	9.03627	3.39802	7.86132
 124	1	3	-0.116242	9.50397	5.53471	3.91738
 125	1	4	0.075247	8.31477	5.29833	5.62937
 126	1	4	0.07317	7.78911	4.45856	4.17613
 127	1	1	0.57552	4.6456	7.29208	5.43193
 128	1	1	-1.07208	5.19881	7.77366	4.09468
 129	1	2	0.119263	6.13991	7.27668	3.93342
 130	1	2	0.211544	4.51133	7.48978	3.30066
 131	1	1	0.745843	5.55908	9.29403	4.14062
 132	1	2	-0.177131	4.63112	9.78372	4.40106
 133	1	2	-0.142119	6.31284	9.44247	4.92758
 134	1	1	0.080873	6.04018	9.85291	2.79744
 135	1	2	0.018859	7.01839	9.44127	2.54451
 136	1	2	-0.02655	5.33811	9.63681	2.01568
 137	1	1	-0.221824	6.21379	11.3579	2.80755
 138	1	2	0.031284	6.37244	11.6909	1.76572
 139	1	2	0.013242	5.31813	11.7983	3.14158
 140	1	1	0.073218	7.39241	11.9085	3.66129
 141	1	2	-0.024643	7.24184	12.9156	4.12196
 142	1	2	-0.008342	7.6337	11.2956	4.53854
 143	1	1	0.04656	8.69635	12.0959	2.81773
 144	1	2	-0.007327	8.44804	12.7461	1.97292
 145	1	2	0.003322	9.38007	12.6836	3.44241
 146	1	1	-0.01926	9.49155	10.8701	2.33467
 147	1	2	0.003715	8.98476	10.3753	1.50122
 148	1	2	0.000131	10.4936	11.1967	1.97004
 149	1	1	-0.031072	9.63409	9.78084	3.41824
 150	1	2	-0.002086	10.0206	10.2687	4.33916
 151	1	2	-0.003252	8.68751	9.37922	3.75415
 152	1	1	0.083103	10.5662	8.69105	2.88121
 153	1	2	-0.003597	10.0419	8.19435	2.04977
 154	1	2	-0.00033	11.4921	9.06864	2.40277
 155	1	1	0.015717	11.0176	7.53368	3.83157
 156	1	2	-0.004333	11.6046	6.79918	3.27028
 157	1	2	-0.003064	11.665	7.97733	4.58876
 158	1	6	0.43523	9.84916	6.7802	4.47748
 159	1	7	-0.39711	4.47472	5.86063	5.36188
 160	1	4	-0.041868	3.61714	7.72301	5.59787
 161	1	4	-0.011544	5.27952	7.59289	6.23258
 162	1	8	0.237688	3.938	5.71286	4.48766
 163	1	9	-0.49758	9.49174	7.13224	5.57742
 164	1	1	0.304671	5.55983	3.9338	8.58106
 165	1	1	-1.24578	5.43233	5.47727	8.47572
 166	1	1	0.921237	4.02164	5.74243	7.93462
 167	1	2	0.238751	6.25311	5.82492	7.88474
 168	1	2	0.241495	5.51828	5.97123	9.48309
 169	1	1	-0.299014	3.80805	5.15342	6.52504
 170	1	2	-0.179791	3.85038	6.83839	8.06054
 171	1	2	-0.17909	3.32403	5.23417	8.56281
 172	1	2	0.080952	3.94619	4.07121	6.51958
 173	1	2	0.084393	2.72878	5.2727	6.36222
 174	1	3	-0.116242	6.79588	3.63756	9.19012
 175	1	4	0.075247	5.57166	3.49363	7.58078
 176	1	4	0.07317	4.66775	3.57318	9.07802
 177	1	1	0.57552	10.5755	10.2714	7.58548
 178	1	1	-1.07208	9.2483	9.56583	7.78884
 179	1	2	0.119263	8.45685	10.2898	7.63228
 180	1	2	0.211544	9.10476	8.78648	7.0411
 181	1	1	0.745843	9.14862	8.90379	9.20792
 182	1	2	-0.177131	9.97955	8.13587	9.17566
 183	1	2	-0.142119	9.41153	9.65588	9.94378
 184	1	1	0.080873	7.76894	8.28559	9.58686
 185	1	2	0.018859	7.0501	9.04786	9.51238
 186	1	2	-0.02655	7.48645	7.54575	8.83172
 187	1	1	-0.221824	7.73111	7.6357	11.0123
 188	1	2	0.031284	8.13049	8.2951	11.7347
 189	1	2	0.013242	6.64332	7.49844	11.2462
 190	1	1	0.073218	8.48464	6.31051	11.1335
 191	1	2	-0.024643	8.17933	5.53979	10.4401
 192	1	2	-0.008342	9.52555	6.55921	10.9141
 193	1	1	0.04656	8.51301	5.71372	12.5818
 194	1	2	-0.007327	9.31935	4.96195	12.5921
 195	1	2	0.003322	8.8719	6.49779	13.2819
 196	1	1	-0.01926	7.23743	5.08321	13.1644
 197	1	2	0.003715	7.45243	4.72479	14.1588
 198	1	2	0.000131	6.51	5.86682	13.2846
 199	1	1	-0.031072	6.68676	3.86731	12.4154
 200	1	2	-0.002086	5.88476	3.49175	13.0319
 201	1	2	-0.003252	6.22759	4.24754	11.5199
 202	1	1	0.083103	7.76088	2.77405	12.1505
 203	1	2	-0.003597	8.6456	2.97564	12.7447
 204	1	2	-0.00033	7.2968	1.87658	12.5571
 205	1	1	0.015717	8.16217	2.45985	10.7127
 206	1	2	-0.004333	8.83888	3.25357	10.3355
 207	1	2	-0.003064	8.71929	1.5033	10.6179
 208	1	6	0.43523	7.00856	2.41445	9.74527
 209	1	7	-0.39711	10.7448	11.5704	8.29984
 210	1	4	-0.041868	10.7245	10.3689	6.52689
 211	1	4	-0.011544	11.3755	9.59968	7.88994
 212	1	8	0.237688	9.9919	12.1758	8.00004
 213	1	9	-0.49758	6.0821	1.63241	9.90909
 214	1	1	0.304671	14.2008	15.3653	8.59308
 215	1	1	-1.24578	13.8701	13.8493	8.52332
 216	1	1	0.921237	12.3696	13.5625	8.67021
 217	1	2	0.238751	14.4062	13.2884	9.29983
 218	1	2	0.241495	14.229	13.5026	7.54629
 219	1	1	-0.299014	12.0401	12.1932	8.01838
 220	1	2	-0.179791	11.7851	14.3755	8.25354
 221	1	2	-0.17909	12.1589	13.506	9.7494
 222	1	2	0.080952	12.8404	11.4805	8.24805
 223	1	2	0.084393	12.128	12.3533	6.92545
 224	1	3	-0.116242	13.5975	15.9699	9.75459
 225	1	4	0.075247	13.7881	15.8561	7.68093
 226	1	4	0.07317	15.2862	15.5468	8.60322
 227	1	1	0.304671	10.3288	19.0658	10.6453
 228	1	1	-1.24578	11.5986	18.5541	9.84781
 229	1	1	0.921237	12.7058	17.9963	10.7478
 230	1	2	0.238751	12.0013	19.3322	9.2004
 231	1	2	0.241495	11.2999	17.7018	9.23039
 232	1	1	-0.299014	13.8523	17.3799	9.95144
 233	1	2	-0.179791	12.2851	17.2823	11.4458
 234	1	2	-0.17909	13.0934	18.8344	11.3284
 235	1	2	0.080952	14.0041	17.9091	9.00729
 236	1	2	0.084393	14.7584	17.4866	10.5671
 237	1	3	-0.116242	10.415	20.4533	11.0008
 238	1	4	0.075247	10.1611	18.4415	11.5313
 239	1	4	0.07317	9.45326	18.9628	9.99135
 240	1	1	0.304671	5.88279	20.3483	10.4969
 241	1	1	-1.24578	7.17204	20.149	11.3075
 242	1	1	0.921237	8.07514	21.3534	11.1358
 243	1	2	0.238751	7.68446	19.2476	11.0003
 244	1	2	0.241495	6.92066	20.046	12.366
 245	1	1	-0.299014	9.39646	21.038	11.856
 246	1	2	-0.179791	7.57059	22.2417	11.5251
 247	1	2	-0.17909	8.26065	21.45	10.0615
 248	1	2	0.080952	9.20023	20.366	12.7026
 249	1	2	0.084393	9.77703	21.9745	12.2782
 250	1	3	-0.116242	5.02178	19.2105	10.6801
 251	1	4	0.075247	6.11246	20.4982	9.43098
 252	1	4	0.07317	5.38149	21.2525	10.8653
 253	1	1	0.304671	6.06605	14.2235	10.9858
 254	1	1	-1.24578	5.70295	15.4758	10.1077
 255	1	1	0.921237	5.53169	16.7621	10.898
 256	1	2	0.238751	4.77283	15.3118	9.57277
 257	1	2	0.241495	6.49561	15.6311	9.34303
 258	1	1	-0.299014	5.43879	18.0025	9.9801
 259	1	2	-0.179791	6.4083	16.8119	11.5442
 260	1	2	-0.17909	4.63926	16.6478	11.5264
 261	1	2	0.080952	6.39729	18.1079	9.4659
 262	1	2	0.084393	4.69902	17.7718	9.22143
 263	1	3	-0.116242	7.46576	14.124	11.3165
 264	1	4	0.075247	5.782	13.3365	10.4126
 265	1	4	0.07317	5.4639	14.2041	11.9215
 266	1	1	0.57552	13.0872	2.35059	11.4289
 267	1	1	-1.07208	12.4901	3.62689	12.0361
 268	1	2	0.119263	12.2648	4.36586	11.2733
 269	1	2	0.211544	11.5712	3.36285	12.5801
 270	1	1	0.745843	13.4885	4.25404	13.0323
 271	1	2	-0.177131	13.8162	3.4326	13.6799
 272	1	2	-0.142119	14.3932	4.60427	12.5016
 273	1	1	0.080873	12.9177	5.3914	13.9471
 274	1	2	0.018859	11.9501	5.02941	14.335
 275	1	2	-0.02655	13.5729	5.51362	14.8066
 276	1	1	-0.221824	12.6539	6.75335	13.2821
 277	1	2	0.031284	13.5855	7.21775	12.9535
 278	1	2	0.013242	12.0228	6.62737	12.3973
 279	1	1	0.073218	11.8975	7.68611	14.2337
 280	1	2	-0.024643	11.0041	7.12894	14.6259
 281	1	2	-0.008342	12.5307	7.91013	15.1231
 282	1	1	0.04656	11.4598	8.9623	13.4806
 283	1	2	-0.007327	12.3301	9.49194	13.1778
 284	1	2	0.003322	10.9019	8.63955	12.5614
 285	1	1	-0.01926	10.5008	9.80222	14.3611
 286	1	2	0.003715	9.56772	9.20491	14.5062
 287	1	2	0.000131	10.9729	9.91334	15.3547
 288	1	1	-0.031072	10.0773	11.2092	13.8335
 289	1	2	-0.002086	9.25341	11.5741	14.4348
 290	1	2	-0.003252	10.9241	11.9008	14.0141
 291	1	1	0.083103	9.68381	11.2814	12.3521
 292	1	2	-0.003597	10.6049	11.0498	11.7554
 293	1	2	-0.00033	8.89304	10.5524	12.1149
 294	1	1	0.015717	9.29106	12.7384	11.9028
 295	1	2	-0.004333	9.80475	13.5102	12.5084
 296	1	2	-0.003064	9.60127	12.8874	10.8483
 297	1	6	0.43523	7.78713	12.976	11.9463
 298	1	7	-0.39711	11.9903	1.61595	10.7565
 299	1	4	-0.041868	13.5282	1.71479	12.2098
 300	1	4	-0.011544	13.8769	2.63889	10.7304
 301	1	8	0.237688	11.5093	2.28258	10.1571
 302	1	9	-0.49758	6.99713	12.126	12.323
 303	1	1	0.304671	9.28608	-0.358203	7.57014
 304	1	1	-1.24578	10.4672	0.37095	8.2272
 305	1	1	0.921237	11.1175	-0.346419	9.41723
 306	1	2	0.238751	10.1203	1.35519	8.58904
 307	1	2	0.241495	11.2462	0.577312	7.47917
 308	1	1	-0.299014	12.3444	0.397529	9.96009
 309	1	2	-0.179791	11.4267	-1.35477	9.09865
 310	1	2	-0.17909	10.3704	-0.447616	10.2047
 311	1	2	0.080952	12.9099	-0.311629	10.576
 312	1	2	0.084393	13.0068	0.648493	9.12118
 313	1	3	-0.116242	9.78813	-1.51639	6.88798
 314	1	4	0.075247	8.79111	0.304909	6.84781
 315	1	4	0.07317	8.53115	-0.62521	8.33326
 316	1	1	0.304671	7.83102	-4.88199	4.46881
 317	1	1	-1.24578	7.21289	-3.47133	4.76026
 318	1	1	0.921237	8.21599	-2.37449	5.18477
 319	1	2	0.238751	6.43006	-3.53813	5.51018
 320	1	2	0.241495	6.73501	-3.10992	3.85311
 321	1	1	-0.299014	8.79821	-2.52488	6.60434
 322	1	2	-0.179791	7.71087	-1.40487	5.14941
 323	1	2	-0.17909	9.02204	-2.36788	4.46644
 324	1	2	0.080952	7.97443	-2.46263	7.32574
 325	1	2	0.084393	9.22126	-3.52517	6.71228
 326	1	3	-0.116242	6.82058	-5.88892	4.35044
 327	1	4	0.075247	8.53232	-5.16954	5.26443
 328	1	4	0.07317	8.39568	-4.85311	3.5285
 329	1	1	0.57552	2.02722	-18.5194	7.12938
 330	1	1	-1.07208	3.0558	-17.6249	6.50233
 331	1	2	0.119263	4.03822	-18.1308	6.45547
 332	1	2	0.211544	2.73824	-17.3943	5.49236
 333	1	1	0.745843	3.15255	-16.3412	7.34835
 334	1	2	-0.177131	2.14756	-16.0614	7.67183
 335	1	2	-0.142119	3.73093	-16.5819	8.24473
 336	1	1	0.080873	3.81853	-15.121	6.60764
 337	1	2	0.018859	3.8287	-14.2667	7.28433
 338	1	2	-0.02655	4.86499	-15.3388	6.37819
 339	1	1	-0.221824	3.07573	-14.6845	5.29359
 340	1	2	0.031284	3.29786	-15.4029	4.49505
 341	1	2	0.013242	1.99113	-14.7272	5.47909
 342	1	1	0.073218	3.42562	-13.2317	4.793
 343	1	2	-0.024643	2.96739	-13.078	3.81058
 344	1	2	-0.008342	3.01335	-12.4754	5.47051
 345	1	1	0.04656	4.97336	-13.0489	4.73533
 346	1	2	-0.007327	5.40551	-12.898	5.72886
 347	1	2	0.003322	5.43015	-13.9808	4.37094
 348	1	1	-0.01926	5.40706	-11.9069	3.81111
 349	1	2	0.003715	6.47538	-12.0188	3.63153
 350	1	2	0.000131	4.93183	-12.0245	2.82208
 351	1	1	-0.031072	5.16896	-10.4799	4.33355
 352	1	2	-0.002086	4.16237	-10.1341	4.08006
 353	1	2	-0.003252	5.28154	-10.4781	5.43604
 354	1	1	0.083103	6.27078	-9.5451	3.76322
 355	1	2	-0.003597	7.22153	-9.85489	4.21008
 356	1	2	-0.00033	6.36453	-9.64583	2.67809
 357	1	1	0.015717	5.95054	-8.08641	4.13467
 358	1	2	-0.004333	5.18173	-7.71071	3.45163
 359	1	2	-0.003064	5.54326	-8.03717	5.15722
 360	1	6	0.43523	7.19601	-7.16771	4.06931
 361	1	7	-0.39711	1.99256	-19.7739	6.38119
 362	1	4	-0.041868	1.04822	-18.0357	7.11147
 363	1	4	-0.011544	2.29605	-18.7096	8.17997
 364	1	8	0.237688	1.83066	-19.5809	5.38974
 365	1	9	-0.49758	8.33084	-7.50082	3.7214
 366	1	1	0.304671	-2.65089	-20.9295	7.97505
 367	1	1	-1.24578	-1.1991	-21.4047	7.74122
 368	1	1	0.921237	-0.426957	-20.5074	6.793
 369	1	2	0.238751	-1.17885	-22.4347	7.36439
 370	1	2	0.241495	-0.692397	-21.4068	8.70786
 371	1	1	-0.299014	1.08016	-20.8351	6.93081
 372	1	2	-0.179791	-0.619339	-19.4702	7.10064
 373	1	2	-0.17909	-0.792696	-20.6404	5.77671
 374	1	2	0.080952	1.28818	-21.808	6.4914
 375	1	2	0.084393	1.30722	-20.9242	8.01236
 376	1	3	-0.116242	-3.23839	-21.7155	9.02804
 377	1	4	0.075247	-3.21688	-20.981	7.03949
 378	1	4	0.07317	-2.6563	-19.8731	8.29806
 379	1	1	0.304671	-6.70538	-24.4487	8.46897
 380	1	1	-1.24578	-5.4391	-24.7815	9.31423
 381	1	1	0.921237	-4.76596	-23.508	9.82021
 382	1	2	0.238751	-4.71261	-25.3786	8.75256
 383	1	2	0.241495	-5.7275	-25.3636	10.1978
 384	1	1	-0.299014	-3.96337	-22.8989	8.63845
 385	1	2	-0.179791	-4.10359	-23.7713	10.6483
 386	1	2	-0.17909	-5.54372	-22.829	10.1894
 387	1	2	0.080952	-3.26236	-23.6536	8.27756
 388	1	2	0.084393	-4.63282	-22.6713	7.79948
 389	1	3	-0.116242	-7.38808	-25.7075	8.34897
 390	1	4	0.075247	-6.41581	-24.0743	7.4793
 391	1	4	0.07317	-7.3325	-23.6923	8.97261
 392	1	1	0.57552	-3.0033	-25.339	0.460384
 393	1	1	-1.07208	-3.70292	-26.6512	0.831143
 394	1	2	0.119263	-3.19423	-27.5074	0.36001
 395	1	2	0.211544	-3.73117	-26.8132	1.91249
 396	1	1	0.745843	-5.15329	-26.5475	0.326493
 397	1	2	-0.177131	-5.70746	-25.9236	1.02788
 398	1	2	-0.142119	-5.14436	-26.0279	-0.633014
 399	1	1	0.080873	-5.82934	-27.9072	0.0974968
 400	1	2	0.018859	-6.87104	-27.7637	-0.195895
 401	1	2	-0.02655	-5.35094	-28.3936	-0.756416
 402	1	1	-0.221824	-5.80429	-28.8179	1.33718
 403	1	2	0.031284	-6.2456	-29.7894	1.06415
 404	1	2	0.013242	-4.74991	-29.0713	1.53871
 405	1	1	0.073218	-6.49638	-28.3019	2.61898
 406	1	2	-0.024643	-6.59132	-29.1451	3.31385
 407	1	2	-0.008342	-5.85581	-27.5677	3.11948
 408	1	1	0.04656	-7.91752	-27.6809	2.39878
 409	1	2	-0.007327	-7.86024	-26.6068	2.17629
 410	1	2	0.003322	-8.34175	-28.1341	1.50089
 411	1	1	-0.01926	-8.92754	-27.9399	3.55962
 412	1	2	0.003715	-9.9103	-27.5232	3.29484
 413	1	2	0.000131	-9.08633	-29.0265	3.66112
 414	1	1	-0.031072	-8.49511	-27.319	4.9037
 415	1	2	-0.002086	-7.61672	-27.8355	5.31977
 416	1	2	-0.003252	-8.23462	-26.2746	4.69787
 417	1	1	0.083103	-9.63612	-27.3283	5.92592
 418	1	2	-0.003597	-10.3717	-26.5596	5.68876
 419	1	2	-0.00033	-10.1668	-28.2738	5.87968
 420	1	1	0.015717	-9.1258	-27.1655	7.38112
 421	1	2	-0.004333	-9.98429	-27.2367	8.06389
 422	1	2	-0.003064	-8.41055	-27.9664	7.63991
 423	1	6	0.43523	-8.47456	-25.7528	7.56464
 424	1	7	-0.39711	-1.7238	-25.1379	1.12739
 425	1	4	-0.041868	-3.66974	-24.5035	0.668646
 426	1	4	-0.011544	-2.85733	-25.3135	-0.63252
 427	1	8	0.237688	-1.89673	-25.0264	2.12399
 428	1	9	-0.49758	-8.82454	-24.7429	6.98627
 429	1	1	0.304671	2.73658	-24.2594	1.23358
 430	1	1	-1.24578	1.29655	-24.5891	0.80062
 431	1	1	0.921237	0.701643	-25.7693	1.55337
 432	1	2	0.238751	1.27545	-24.8379	-0.265546
 433	1	2	0.241495	0.62595	-23.7344	0.933455
 434	1	1	-0.299014	-0.651122	-26.1647	0.918513
 435	1	2	-0.179791	0.559551	-25.4674	2.59482
 436	1	2	-0.17909	1.4114	-26.5964	1.45903
 437	1	2	0.080952	-0.464492	-26.3458	-0.140049
 438	1	2	0.084393	-0.989258	-27.1102	1.34974
 439	1	3	-0.116242	2.93991	-24.0852	2.62637
 440	1	4	0.075247	3.09095	-23.3682	0.698243
 441	1	4	0.07317	3.38909	-25.0928	0.931901
 442	1	1	0.304671	2.81736	-19.0834	2.27096
 443	1	1	-1.24578	2.57765	-20.3319	3.17247
 444	1	1	0.921237	2.93157	-21.6034	2.44609
 445	1	2	0.238751	1.51611	-20.3872	3.44518
 446	1	2	0.241495	3.15459	-20.2839	4.10026
 447	1	1	-0.299014	2.51418	-22.8537	3.22915
 448	1	2	-0.179791	3.99824	-21.607	2.23353
 449	1	2	-0.17909	2.3882	-21.5479	1.49594
 450	1	2	0.080952	2.9288	-22.7938	4.24012
 451	1	2	0.084393	1.42287	-22.8391	3.34003
 452	1	3	-0.116242	4.21659	-18.83	2.06884
 453	1	4	0.075247	2.37178	-18.2129	2.75782
 454	1	4	0.07317	2.31345	-19.2182	1.30338
 455	1	1	0.57552	8.48945	-7.32228	-3.15453
 456	1	1	-1.07208	8.17627	-8.47869	-2.25671
 457	1	2	0.119263	7.09662	-8.67722	-2.15457
 458	1	2	0.211544	8.58783	-9.36459	-2.73316
 459	1	1	0.745843	8.8919	-8.2699	-0.929345
 460	1	2	-0.177131	9.95493	-8.44918	-1.12008
 461	1	2	-0.142119	8.84568	-7.23064	-0.5888
 462	1	1	0.080873	8.42343	-9.26546	0.141441
 463	1	2	0.018859	9.18953	-9.28419	0.927757
 464	1	2	-0.02655	7.51265	-8.90826	0.651671
 465	1	1	-0.221824	8.18092	-10.7125	-0.420597
 466	1	2	0.031284	7.10948	-10.8225	-0.695867
 467	1	2	0.013242	8.76698	-10.9019	-1.32229
 468	1	1	0.073218	8.58704	-11.7694	0.598608
 469	1	2	-0.024643	9.67746	-11.7763	0.679014
 470	1	2	-0.008342	8.20939	-11.467	1.58677
 471	1	1	0.04656	8.11752	-13.1874	0.292534
 472	1	2	-0.007327	7.04609	-13.1662	0.0419072
 473	1	2	0.003322	8.63876	-13.5981	-0.567003
 474	1	1	-0.01926	8.32055	-14.0838	1.52581
 475	1	2	0.003715	9.39678	-14.1059	1.78048
 476	1	2	0.000131	7.76139	-13.6733	2.37871
 477	1	1	-0.031072	7.85876	-15.5409	1.23693
 478	1	2	-0.002086	8.33928	-15.9318	0.324514
 479	1	2	-0.003252	8.25029	-16.1377	2.0654
 480	1	1	0.083103	6.34323	-15.7679	1.13202
 481	1	2	-0.003597	5.83268	-15.1142	1.8495
 482	1	2	-0.00033	5.98605	-15.4977	0.126093
 483	1	1	0.015717	6.00428	-17.2306	1.47822
 484	1	2	-0.004333	6.44748	-17.8611	0.712952
 485	1	2	-0.003064	6.4456	-17.4931	2.44457
 486	1	6	0.43523	4.51672	-17.5578	1.59647
 487	1	7	-0.39711	7.87723	-7.73999	-4.39096
 488	1	4	-0.041868	9.56693	-7.2073	-3.27591
 489	1	4	-0.011544	8.06076	-6.39841	-2.76078
 490	1	8	0.237688	8.07004	-8.72664	-4.48677
 491	1	9	-0.49758	3.69595	-16.6823	1.38031
 492	1	1	0.57552	-1.50837	-9.76833	-2.18332
 493	1	1	-1.07208	-0.109486	-9.31942	-2.60181
 494	1	2	0.119263	0.440257	-8.92871	-1.75324
 495	1	2	0.211544	0.431455	-10.1647	-3.0459
 496	1	1	0.745843	-0.127564	-8.18074	-3.63223
 497	1	2	-0.177131	-0.556021	-8.59113	-4.54674
 498	1	2	-0.142119	-0.83726	-7.42008	-3.28076
 499	1	1	0.080873	1.24937	-7.47345	-3.88425
 500	1	2	0.018859	1.6964	-7.1639	-2.93205
 501	1	2	-0.02655	1.90792	-8.21482	-4.33485
 502	1	1	-0.221824	1.06124	-6.25397	-4.84435
 503	1	2	0.031284	0.17347	-6.42927	-5.46944
 504	1	2	0.013242	0.82526	-5.36234	-4.25072
 505	1	1	0.073218	2.22052	-5.95754	-5.82524
 506	1	2	-0.024643	2.39711	-6.82506	-6.48082
 507	1	2	-0.008342	1.94318	-5.10029	-6.46043
 508	1	1	0.04656	3.49465	-5.58129	-5.05347
 509	1	2	-0.007327	3.21472	-4.97573	-4.17601
 510	1	2	0.003322	3.97446	-6.47341	-4.63848
 511	1	1	-0.01926	4.48891	-4.67679	-5.8114
 512	1	2	0.003715	3.95966	-3.81781	-6.21426
 513	1	2	0.000131	5.22079	-4.25538	-5.09852
 514	1	1	-0.031072	5.21396	-5.38945	-6.96756
 515	1	2	-0.002086	4.44848	-5.65041	-7.72364
 516	1	2	-0.003252	5.81989	-4.61679	-7.44668
 517	1	1	0.083103	6.06394	-6.63678	-6.63306
 518	1	2	-0.003597	5.57696	-7.29918	-5.91111
 519	1	2	-0.00033	6.26334	-7.19141	-7.57155
 520	1	1	0.015717	7.42378	-6.10987	-6.12248
 521	1	2	-0.004333	7.91998	-5.49516	-6.90282
 522	1	2	-0.003064	7.22525	-5.40912	-5.31107
 523	1	6	0.43523	8.41069	-7.14063	-5.58857
 524	1	7	-0.39711	-2.0399	-8.78515	-1.29062
 525	1	4	-0.041868	-1.46741	-10.7298	-1.67678
 526	1	4	-0.011544	-2.14815	-9.89876	-3.05896
 527	1	8	0.237688	-1.43967	-8.72598	-0.473917
 528	1	9	-0.49758	8.80244	-8.11204	-6.20599
 529	1	1	0.57552	-7.68338	-18.6531	3.14421
 530	1	1	-1.07208	-8.6796	-17.6064	2.72277
 531	1	2	0.119263	-9.59161	-18.073	2.32067
 532	1	2	0.211544	-8.9299	-16.9311	3.53626
 533	1	1	0.745843	-8.04307	-16.7757	1.62072
 534	1	2	-0.177131	-7.00226	-16.5764	1.89226
 535	1	2	-0.142119	-8.03659	-17.4238	0.735679
 536	1	1	0.080873	-8.83272	-15.4786	1.34507
 537	1	2	0.018859	-8.6819	-15.2205	0.271736
 538	1	2	-0.02655	-9.90231	-15.7233	1.46928
 539	1	1	-0.221824	-8.42974	-14.2771	2.24241
 540	1	2	0.031284	-9.12805	-14.2342	3.09537
 541	1	2	0.013242	-7.44558	-14.472	2.66174
 542	1	1	0.073218	-8.38205	-12.8782	1.56317
 543	1	2	-0.024643	-9.27105	-12.7441	0.935962
 544	1	2	-0.008342	-8.45247	-12.1547	2.39442
 545	1	1	0.04656	-7.1461	-12.501	0.706384
 546	1	2	-0.007327	-6.22793	-12.5825	1.28115
 547	1	2	0.003322	-7.12505	-13.2019	-0.129676
 548	1	1	-0.01926	-7.26339	-11.0506	0.17447
 549	1	2	0.003715	-8.14567	-10.9332	-0.456594
 550	1	2	0.000131	-7.48968	-10.3898	1.01748
 551	1	1	-0.031072	-6.00487	-10.5109	-0.579774
 552	1	2	-0.002086	-5.15419	-10.6239	0.102409
 553	1	2	-0.003252	-5.80029	-11.1571	-1.44225
 554	1	1	0.083103	-5.92662	-9.0451	-1.09737
 555	1	2	-0.003597	-6.689	-8.862	-1.86907
 556	1	2	-0.00033	-6.08785	-8.36036	-0.257623
 557	1	1	0.015717	-4.5265	-8.77675	-1.7622
 558	1	2	-0.004333	-4.45802	-9.39823	-2.67364
 559	1	2	-0.003064	-4.46094	-7.72239	-2.04706
 560	1	6	0.43523	-3.37027	-9.17222	-0.816625
 561	1	7	-0.39711	-8.31238	-19.3919	4.21272
 562	1	4	-0.041868	-6.75686	-18.1794	3.48773
 563	1	4	-0.011544	-7.44685	-19.3137	2.29164
 564	1	8	0.237688	-8.45831	-18.7472	4.98011
 565	1	9	-0.49758	-3.36202	-8.923	0.358904
 566	1	1	0.57552	0.698251	-15.9789	-1.09424
 567	1	1	-1.07208	-0.0455541	-16.7927	-0.0721064
 568	1	2	0.119263	0.402687	-16.5836	0.90718
 569	1	2	0.211544	-1.0911	-16.4677	-0.0353251
 570	1	1	0.745843	0.0215551	-18.2984	-0.442038
 571	1	2	-0.177131	-0.488249	-18.4727	-1.39221
 572	1	2	-0.142119	1.06427	-18.5926	-0.545477
 573	1	1	0.080873	-0.632512	-19.0706	0.735193
 574	1	2	0.018859	0.00440057	-18.8529	1.61574
 575	1	2	-0.02655	-1.61985	-18.6395	0.953842
 576	1	1	-0.221824	-0.782251	-20.6047	0.603551
 577	1	2	0.031284	-1.25654	-20.8005	-0.365122
 578	1	2	0.013242	0.221113	-21.0517	0.559867
 579	1	1	0.073218	-1.56962	-21.3588	1.72312
 580	1	2	-0.024643	-1.54134	-22.4187	1.44615
 581	1	2	-0.008342	-1.06715	-21.2147	2.69159
 582	1	1	0.04656	-3.06919	-20.9581	1.87344
 583	1	2	-0.007327	-3.16527	-19.9752	2.35
 584	1	2	0.003322	-3.50088	-20.8838	0.859046
 585	1	1	-0.01926	-3.82729	-22.0582	2.67245
 586	1	2	0.003715	-3.61882	-23.0209	2.18532
 587	1	2	0.000131	-3.46437	-22.1158	3.69865
 588	1	1	-0.031072	-5.34938	-21.8376	2.64775
 589	1	2	-0.002086	-5.51908	-20.768	2.71823
 590	1	2	-0.003252	-5.71766	-22.1497	1.67517
 591	1	1	0.083103	-6.20124	-22.5058	3.76605
 592	1	2	-0.003597	-6.27421	-23.5914	3.60506
 593	1	2	-0.00033	-5.66815	-22.3517	4.72844
 594	1	1	0.015717	-7.59416	-21.8486	3.9487
 595	1	2	-0.004333	-8.06724	-21.722	2.96665
 596	1	2	-0.003064	-8.23462	-22.5445	4.50087
 597	1	6	0.43523	-7.52735	-20.5005	4.71953
 598	1	7	-0.39711	0.245422	-14.6136	-0.97474
 599	1	4	-0.041868	0.465995	-16.3219	-2.10402
 600	1	4	-0.011544	1.79275	-16.046	-0.922964
 601	1	8	0.237688	0.189127	-14.3359	0.0138988
 602	1	9	-0.49758	-6.75908	-20.1526	5.59265
 603	1	1	0.304671	-1.95347	-14.2977	-3.40769
 604	1	1	-1.24578	-0.8777	-13.1732	-3.49138
 605	1	1	0.921237	0.582298	-13.6449	-3.31149
 606	1	2	0.238751	-1.05944	-12.4258	-2.73172
 607	1	2	0.241495	-0.990455	-12.5682	-4.41507
 608	1	1	-0.299014	1.02196	-13.6781	-1.81391
 609	1	2	-0.179791	1.24858	-12.9363	-3.79782
 610	1	2	-0.17909	0.696989	-14.6167	-3.79351
 611	1	2	0.080952	2.10042	-13.8974	-1.75085
 612	1	2	0.084393	0.845062	-12.6504	-1.45425
 613	1	3	-0.116242	-3.2612	-13.7333	-3.19013
 614	1	4	0.075247	-1.69677	-15.0301	-2.62869
 615	1	4	0.07317	-1.98317	-14.8631	-4.34283
 616	1	1	0.304671	-2.30997	-12.9867	1.68112
 617	1	1	-1.24578	-3.04092	-13.87	0.612965
 618	1	1	0.921237	-3.28302	-13.0578	-0.67292
 619	1	2	0.238751	-4.01498	-14.2213	0.985977
 620	1	2	0.241495	-2.45723	-14.7701	0.411188
 621	1	1	-0.299014	-3.87651	-13.8129	-1.88009
 622	1	2	-0.179791	-2.36234	-12.5621	-0.977093
 623	1	2	-0.17909	-3.95598	-12.2667	-0.416409
 624	1	2	0.080952	-4.10624	-14.8527	-1.59698
 625	1	2	0.084393	-4.85479	-13.3649	-2.03067
 626	1	3	-0.116242	-0.935184	-12.7603	1.28115
 627	1	4	0.075247	-2.28971	-13.4731	2.65839
 628	1	4	0.07317	-2.80771	-12.0266	1.78072
 629	1	1	0.57552	4.84543	-1.28289	-0.417394
 630	1	1	-1.07208	5.76096	-2.42457	-0.895125
 631	1	2	0.119263	6.07168	-2.30041	-1.94444
 632	1	2	0.211544	6.66213	-2.56932	-0.286923
 633	1	1	0.745843	4.9302	-3.7008	-0.75912
 634	1	2	-0.177131	4.74704	-3.81849	0.311534
 635	1	2	-0.142119	3.97699	-3.61867	-1.29711
 636	1	1	0.080873	5.54824	-4.98556	-1.36022