pySIMM System Object

1091 atoms
1090 bonds
2111 angles
2977 dihedrals
0 impropers

10 atom types
12 bond types
28 angle types
12 dihedral types
1 improper types

-88.945418 88.945418 xlo xhi
-88.945418 88.945418 ylo yhi
-88.945418 88.945418 zlo zhi

Masses

   1	12.01	# c3
   2	1.008	# hc
   3	16.0	# oh
   4	1.008	# h1
   5	1.008	# ho
   6	12.01	# c
   7	14.01	# n3
   8	1.008	# hn
   9	16.0	# o
  10	1.008	# h4

Pair Coeffs

   1	0.1094	3.3996695084235347	# c3
   2	0.0157	2.649532787749369	# hc
   3	0.2104	3.0664733878390478	# oh
   4	0.0157	2.471353044121301	# h1
   5	0.0047	0.5379246460131368	# ho
   6	0.086	3.3996695084235347	# c
   7	0.17	3.249998523775958	# n3
   8	0.0157	1.069078461768407	# hn
   9	0.21	2.959921901149463	# o
  10	0.015	2.5105525877194763	# h4

Bond Coeffs

   1	371.4	0.973	# ho,oh
   2	300.9	1.5375	# c3,c3
   3	330.6	1.0969	# c3,h1
   4	330.6	1.0969	# c3,hc
   5	316.7	1.4233	# c3,oh
   6	392.4	1.019	# hn,n3
   7	637.7	1.2183	# c,o
   8	313.0	1.5241	# c,c3
   9	325.9	1.4647	# c3,n3
  10	310.7	1.1121	# c,h4
  11	400.1	1.3513	# c,oh
  12	325.9	1.465	# n3,c

Angle Coeffs

   1	46.34	109.8	# c3,c3,hc
   2	47.38	107.26	# c3,oh,ho
   3	39.4	107.58	# hc,c3,hc
   4	62.86	111.51	# c3,c3,c3
   5	67.47	110.19	# c3,c3,oh
   6	46.39	109.56	# c3,c3,h1
   7	50.93	110.26	# h1,c3,oh
   8	39.24	108.46	# h1,c3,h1
   9	62.7	112.48	# c3,oh,c3
  10	51.11	109.5	# hc,c3,oh
  11	45.64	114.64	# c3,c,h4
  12	41.4	106.4	# hn,n3,hn
  13	49.53	109.88	# h1,c3,n3
  14	46.93	108.77	# c,c3,hc
  15	66.02	111.04	# c3,c3,n3
  16	67.4	123.2	# c3,c,o
  17	54.22	120.7	# h4,c,o
  18	63.27	111.04	# c,c3,c3
  19	47.42	109.29	# c3,n3,hn
  20	67.9	109.98	# c3,oh,c
  21	68.4	112.73	# c3,c,oh
  22	75.92	122.1	# o,c,oh
  23	63.8	112.35	# c3,n3,c
  24	47.4	109.29	# hn,n3,c
  25	66.0	111.04	# n3,c,c3
  26	70.9	110.7	# n3,c,o
  27	63.82	112.35	# c3,n3,c3
  28	49.55	109.8	# hc,c3,n3

Dihedral Coeffs

   1	1	0.15555555555555556	3	0	# X,c3,c3,X
   2	1	0.16	3	0	# hc,c3,c3,c3
   3	2	0.16	3	0	0.25	1	0	# ho,oh,c3,c3
   4	3	0.18	3	0	0.25	2	180	0.2	1	180	# c3,c3,c3,c3
   5	1	0.15	3	0	# hc,c3,c3,hc
   6	1	0.16666666666666666	3	0	# X,c3,oh,X
   7	2	0.0	3	0	0.25	1	0	# hc,c3,c3,oh
   8	1	0.3	3	0	# X,c3,n3,X
   9	1	0.0	2	180	# X,c,c3,X
  10	3	0.8	1	0	0.0	2	0	0.08	3	180	# hc,c3,c,o
  11	1	2.3	2	180	# X,c,oh,X
  12	2	0.3	3	0	0.48	2	180	# c3,c3,n3,c3

Improper Coeffs

   1	10.5	-1	2	# c,X,X,o

Atoms

   1	1	1	0.304671	44.2387	42.4496	17.9782
   2	1	1	-1.24578	45.2076	43.1985	18.9299
   3	1	1	0.921237	44.6542	44.4954	19.5166
   4	1	2	0.238751	46.1635	43.4125	18.4457
   5	1	2	0.241495	45.4293	42.5573	19.7884
   6	1	1	-0.299014	44.5246	45.5964	18.4642
   7	1	2	-0.179791	45.3435	44.8207	20.2994
   8	1	2	-0.17909	43.6869	44.2841	19.9781
   9	1	2	0.080952	43.691	45.3676	17.7928
  10	1	2	0.084393	45.4396	45.6372	17.8637
  11	1	3	-0.116242	44.2953	43.0005	16.6528
  12	1	4	0.075247	43.2128	42.4819	18.3741
  13	1	4	0.07317	44.5326	41.3902	17.9297
  14	1	1	0.304671	42.4357	38.8228	15.2841
  15	1	1	-1.24578	42.3174	40.2686	15.8116
  16	1	1	0.921237	43.4002	41.1586	15.2076
  17	1	2	0.238751	42.3985	40.2804	16.901
  18	1	2	0.241495	41.3395	40.6734	15.5335
  19	1	1	-0.299014	43.2651	42.6072	15.7213
  20	1	2	-0.179791	43.2799	41.1317	14.1216
  21	1	2	-0.17909	44.3783	40.7364	15.4549
  22	1	2	0.080952	43.3228	43.2762	14.8539
  23	1	2	0.084393	42.2741	42.7684	16.1591
  24	1	3	-0.116242	41.3435	38.0187	15.7516
  25	1	4	0.075247	43.3977	38.3784	15.5803
  26	1	4	0.07317	42.4104	38.8327	14.1841
  27	1	1	0.304671	43.272	35.2138	16.7077
  28	1	1	-1.24578	41.7339	35.1657	16.5165
  29	1	1	0.921237	40.8922	36.1526	17.3245
  30	1	2	0.238751	41.3671	34.1632	16.7472
  31	1	2	0.241495	41.4955	35.3488	15.4672
  32	1	1	-0.299014	41.3609	37.6029	17.1327
  33	1	2	-0.179791	40.9439	35.882	18.3792
  34	1	2	-0.17909	39.8528	36.0497	17.0074
  35	1	2	0.080952	40.6971	38.2558	17.7096
  36	1	2	0.084393	42.3575	37.7155	17.569
  37	1	3	-0.116242	43.7171	34.4631	17.8508
  38	1	4	0.075247	43.6424	36.242	16.7219
  39	1	4	0.07317	43.7293	34.7507	15.8196
  40	1	1	0.304671	46.6517	37.8388	18.8424
  41	1	1	-1.24578	45.5055	36.9025	18.3916
  42	1	1	0.921237	45.2602	35.7314	19.3445
  43	1	2	0.238751	45.738	36.4904	17.4065
  44	1	2	0.241495	44.5877	37.4937	18.3281
  45	1	1	-0.299014	43.8581	35.1366	19.1195
  46	1	2	-0.179791	45.3344	36.1075	20.3683
  47	1	2	-0.17909	46.0399	34.9813	19.1961
  48	1	2	0.080952	43.6652	34.412	19.918
  49	1	2	0.084393	43.107	35.9216	19.2316
  50	1	3	-0.116242	46.8004	38.8768	17.8579
  51	1	4	0.075247	47.5888	37.2737	18.9384
  52	1	4	0.07317	46.4216	38.2731	19.8276
  53	1	1	0.57552	43.0192	49.4187	13.4069
  54	1	1	-1.07208	44.4748	49.5842	13.8176
  55	1	2	0.119263	44.9315	50.3536	13.1803
  56	1	2	0.211544	44.5443	49.9278	14.8555
  57	1	1	0.745843	45.2585	48.2753	13.6655
  58	1	2	-0.177131	44.8542	47.5557	14.3847
  59	1	2	-0.142119	45.0815	47.8778	12.658
  60	1	1	0.080873	46.7794	48.4815	13.8985
  61	1	2	0.018859	47.1417	49.2237	13.18
  62	1	2	-0.02655	46.9434	48.9119	14.8963
  63	1	1	-0.221824	47.6407	47.199	13.7505
  64	1	2	0.031284	47.4818	46.7583	12.7566
  65	1	2	0.013242	48.6971	47.4811	13.8054
  66	1	1	0.073218	47.3433	46.1472	14.8432
  67	1	2	-0.024643	47.422	46.6241	15.831
  68	1	2	-0.008342	46.3118	45.7859	14.7396
  69	1	1	0.04656	48.3098	44.942	14.7871
  70	1	2	-0.007327	48.2749	44.4776	13.7925
  71	1	2	0.003322	49.3352	45.3079	14.9346
  72	1	1	-0.01926	47.979	43.8838	15.8683
  73	1	2	0.003715	47.8154	44.3947	16.8259
  74	1	2	0.000131	47.0415	43.3771	15.6125
  75	1	1	-0.031072	49.1224	42.8516	16.0427
  76	1	2	-0.002086	49.191	42.2203	15.1442
  77	1	2	-0.003252	50.0785	43.3859	16.1192
  78	1	1	0.083103	48.9682	41.9607	17.3022
  79	1	2	-0.003597	49.8991	41.3996	17.4511
  80	1	2	-0.00033	48.8224	42.5831	18.1966
  81	1	1	0.015717	47.7923	40.9668	17.1311
  82	1	2	-0.004333	46.8393	41.5068	17.1336
  83	1	2	-0.003064	47.8679	40.4902	16.1457
  84	1	6	0.43523	47.7127	39.8428	18.175
  85	1	7	-0.39711	42.3574	48.542	14.3487
  86	1	4	-0.041868	42.9591	49.0031	12.3927
  87	1	4	-0.011544	42.5411	50.4076	13.4054
  88	1	8	0.237688	42.4746	48.9781	15.2563
  89	1	9	-0.49758	48.3659	39.8367	19.2083
  90	1	1	0.57552	29.1952	52.2947	10.3297
  91	1	1	-1.07208	29.9815	50.9895	10.3339
  92	1	2	0.119263	29.4609	50.2261	10.9207
  93	1	2	0.211544	30.0995	50.6257	9.30818
  94	1	1	0.745843	31.3642	51.2486	10.9403
  95	1	2	-0.177131	31.7964	52.1069	10.4172
  96	1	2	-0.142119	31.2214	51.543	11.9863
  97	1	1	0.080873	32.3278	50.0402	10.8474
  98	1	2	0.018859	31.8509	49.1655	11.3054
  99	1	2	-0.02655	32.5017	49.7941	9.7906
 100	1	1	-0.221824	33.6864	50.3061	11.5392
 101	1	2	0.031284	34.1473	51.2104	11.1229
 102	1	2	0.013242	33.5123	50.4975	12.6067
 103	1	1	0.073218	34.6526	49.1144	11.3719
 104	1	2	-0.024643	34.1275	48.1773	11.5957
 105	1	2	-0.008342	34.979	49.0577	10.3255
 106	1	1	0.04656	35.8778	49.2391	12.3065
 107	1	2	-0.007327	36.3388	50.2277	12.1775
 108	1	2	0.003322	35.5402	49.1747	13.3503
 109	1	1	-0.01926	36.9373	48.1454	12.0406
 110	1	2	0.003715	36.4762	47.1547	12.1518
 111	1	2	0.000131	37.2964	48.2222	11.0055
 112	1	1	-0.031072	38.1347	48.2676	13.0071
 113	1	2	-0.002086	38.6032	49.2495	12.8615
 114	1	2	-0.003252	37.7651	48.2366	14.0396
 115	1	1	0.083103	39.1951	47.1554	12.82
 116	1	2	-0.003597	38.7023	46.1752	12.8364
 117	1	2	-0.00033	39.6618	47.2592	11.8335
 118	1	1	0.015717	40.2895	47.1764	13.9182
 119	1	2	-0.004333	39.85	46.8602	14.8721
 120	1	2	-0.003064	41.0649	46.4407	13.6666
 121	1	6	0.43523	40.9288	48.5625	14.115
 122	1	7	-0.39711	27.8586	51.9815	9.86838
 123	1	4	-0.041868	29.6758	53.0074	9.65384
 124	1	4	-0.011544	29.1606	52.7228	11.3403
 125	1	8	0.237688	27.9362	51.5666	8.94786
 126	1	9	-0.49758	40.4913	49.4147	14.8636
 127	1	1	0.57552	16.24	59.2303	11.3778
 128	1	1	-1.07208	17.613	59.6919	11.8385
 129	1	2	0.119263	17.9135	60.5633	11.2486
 130	1	2	0.211544	17.5602	59.9949	12.8857
 131	1	1	0.745843	18.6851	58.6052	11.6903
 132	1	2	-0.177131	18.3539	57.745	12.283
 133	1	2	-0.142119	18.7263	58.2915	10.6394
 134	1	1	0.080873	20.0793	59.1174	12.1638
 135	1	2	0.018859	20.346	60.0207	11.5972
 136	1	2	-0.02655	20.0164	59.4258	13.2177
 137	1	1	-0.221824	21.2273	58.0866	12.0208
 138	1	2	0.031284	21.4502	57.9432	10.957
 139	1	2	0.013242	22.1314	58.5029	12.4849
 140	1	1	0.073218	20.8857	56.7218	12.6684
 141	1	2	-0.024643	20.4047	56.9019	13.6388
 142	1	2	-0.008342	20.1535	56.1902	12.045
 143	1	1	0.04656	22.1054	55.8014	12.9159
 144	1	2	-0.007327	22.7553	56.275	13.6645
 145	1	2	0.003322	21.7469	54.8645	13.3653
 146	1	1	-0.01926	22.9459	55.471	11.6601
 147	1	2	0.003715	22.2977	55.0192	10.8994
 148	1	2	0.000131	23.3465	56.399	11.2306
 149	1	1	-0.031072	24.1193	54.5094	11.9606
 150	1	2	-0.002086	24.7549	54.9271	12.751
 151	1	2	-0.003252	23.7276	53.5539	12.3293
 152	1	1	0.083103	24.9553	54.2693	10.6881
 153	1	2	-0.003597	24.3072	53.893	9.88313
 154	1	2	-0.00033	25.3773	55.2248	10.3487
 155	1	1	0.015717	26.0935	53.2748	10.9377
 156	1	2	-0.004333	26.6909	53.6007	11.8028
 157	1	2	-0.003064	25.6825	52.2838	11.1813
 158	1	6	0.43523	27.0255	53.1604	9.73685
 159	1	7	-0.39711	15.3613	60.3926	11.4628
 160	1	4	-0.041868	15.8747	58.4272	12.0281
 161	1	4	-0.011544	16.2856	58.8653	10.3454
 162	1	8	0.237688	15.3615	60.7185	12.4276
 163	1	9	-0.49758	26.7011	53.3192	8.57335
 164	1	1	0.304671	11.9777	63.1163	12.4893
 165	1	1	-1.24578	13.0338	61.9991	12.4159
 166	1	1	0.921237	13.0921	61.4287	11.0018
 167	1	2	0.238751	12.7892	61.1971	13.1148
 168	1	2	0.241495	14.0168	62.3996	12.6727
 169	1	1	-0.299014	13.9707	60.1641	10.9877
 170	1	2	-0.179791	13.4851	62.1974	10.3315
 171	1	2	-0.17909	12.0762	61.1817	10.6793
 172	1	2	0.080952	13.4828	59.3963	11.5998
 173	1	2	0.084393	13.9861	59.7849	9.95891
 174	1	3	-0.116242	12.0393	63.7462	13.7714
 175	1	4	0.075247	10.9733	62.6955	12.3172
 176	1	4	0.07317	12.166	63.8575	11.6954
 177	1	1	0.57552	4.42631	72.842	23.1592
 178	1	1	-1.07208	4.94861	72.4838	21.7767
 179	1	2	0.119263	4.10303	72.2051	21.1362
 180	1	2	0.211544	5.43595	73.3552	21.3318
 181	1	1	0.745843	5.95797	71.3264	21.7928
 182	1	2	-0.177131	6.83874	71.6695	22.3471
 183	1	2	-0.142119	5.52007	70.4866	22.3438
 184	1	1	0.080873	6.3535	70.8751	20.3621
 185	1	2	0.018859	5.46724	70.4374	19.8771
 186	1	2	-0.02655	6.63714	71.7557	19.7639
 187	1	1	-0.221824	7.51723	69.8533	20.3326
 188	1	2	0.031284	8.42712	70.3185	20.741
 189	1	2	0.013242	7.27373	68.9891	20.9692
 190	1	1	0.073218	7.77223	69.3745	18.8912
 191	1	2	-0.024643	6.91454	68.776	18.564
 192	1	2	-0.008342	7.81692	70.2439	18.226
 193	1	1	0.04656	9.07621	68.569	18.7151
 194	1	2	-0.007327	9.94559	69.2294	18.8345
 195	1	2	0.003322	9.14441	67.7869	19.4816
 196	1	1	-0.01926	9.08627	67.9308	17.3159
 197	1	2	0.003715	8.18807	67.3046	17.2118
 198	1	2	0.000131	9.00947	68.725	16.5603
 199	1	1	-0.031072	10.3213	67.068	17.0098
 200	1	2	-0.002086	11.2395	67.6693	17.1057
 201	1	2	-0.003252	10.3858	66.2446	17.739
 202	1	1	0.083103	10.2121	66.4999	15.577
 203	1	2	-0.003597	9.22014	66.0508	15.434
 204	1	2	-0.00033	10.3028	67.3165	14.8487
 205	1	1	0.015717	11.291	65.433	15.3049
 206	1	2	-0.004333	12.2907	65.8678	15.4289
 207	1	2	-0.003064	11.1959	64.628	16.0455
 208	1	6	0.43523	11.1903	64.8074	13.9071
 209	1	7	-0.39711	3.46389	73.9169	22.9102
 210	1	4	-0.041868	5.25033	73.1937	23.7841
 211	1	4	-0.011544	3.93919	71.9875	23.6379
 212	1	8	0.237688	3.93994	74.5804	22.3014
 213	1	9	-0.49758	10.3353	65.1062	13.0883
 214	1	1	0.304671	0.713471	77.7818	24.758
 215	1	1	-1.24578	1.68772	76.6097	25.0744
 216	1	1	0.921237	1.99049	75.7942	23.8101
 217	1	2	0.238751	1.24214	75.9446	25.8182
 218	1	2	0.241495	2.62503	76.994	25.4775
 219	1	1	-0.299014	2.92876	74.6033	24.1168
 220	1	2	-0.179791	2.46576	76.4652	23.0862
 221	1	2	-0.17909	1.04935	75.443	23.3814
 222	1	2	0.080952	3.76302	74.9776	24.7221
 223	1	2	0.084393	2.37782	73.8873	24.7414
 224	1	3	-0.116242	0.426625	78.5779	25.9259
 225	1	4	0.075247	-0.227815	77.3776	24.354
 226	1	4	0.07317	1.15214	78.4238	23.9781
 227	1	1	0.304671	-0.628274	82.9976	28.1524
 228	1	1	-1.24578	-0.262854	82.196	26.8806
 229	1	1	0.921237	-0.149145	80.6808	27.0847
 230	1	2	0.238751	0.686481	82.5628	26.4765
 231	1	2	0.241495	-1.0302	82.3721	26.1259
 232	1	1	-0.299014	0.104267	79.9778	25.7341
 233	1	2	-0.179791	-1.08339	80.3153	27.5173
 234	1	2	-0.17909	0.6613	80.4832	27.7862
 235	1	2	0.080952	-0.799755	80.0793	25.1233
 236	1	2	0.084393	0.925034	80.4886	25.2138
 237	1	3	-0.116242	-1.97245	82.6829	28.5597
 238	1	4	0.075247	-0.529789	84.0727	27.9436
 239	1	4	0.07317	0.0732472	82.7675	28.9642
 240	1	1	0.304671	-3.84416	86.891	30.4409
 241	1	1	-1.24578	-3.79362	85.9723	29.1866
 242	1	1	0.921237	-2.90767	84.7678	29.4871
 243	1	2	0.238751	-3.38602	86.5074	28.3272
 244	1	2	0.241495	-4.79502	85.623	28.9288
 245	1	1	-0.299014	-3.00042	83.6857	28.4023
 246	1	2	-0.179791	-3.20052	84.3494	30.4525
 247	1	2	-0.17909	-1.88332	85.1414	29.5706
 248	1	2	0.080952	-3.98509	83.2072	28.4664
 249	1	2	0.084393	-2.92278	84.1461	27.4099
 250	1	3	-0.116242	-4.73223	87.9928	30.211
 251	1	4	0.075247	-2.8319	87.2586	30.6753
 252	1	4	0.07317	-4.19533	86.3173	31.3119
 253	1	1	0.57552	-7.18198	-76.4976	25.1939
 254	1	1	-1.07208	-6.46225	-77.0487	26.427
 255	1	2	0.119263	-5.3991	-77.1843	26.1831
 256	1	2	0.211544	-6.53136	-76.3485	27.2642
 257	1	1	0.745843	-7.08174	-78.4054	26.8546
 258	1	2	-0.177131	-8.0656	-78.1834	27.2792
 259	1	2	-0.142119	-7.25437	-79.0043	25.9562
 260	1	1	0.080873	-6.21041	-79.2293	27.8727
 261	1	2	0.018859	-5.34444	-79.5983	27.3161
 262	1	2	-0.02655	-5.80946	-78.5522	28.6348
 263	1	1	-0.221824	-6.88725	-80.4451	28.6028
 264	1	2	0.031284	-7.51977	-80.0769	29.4185
 265	1	2	0.013242	-7.55213	-80.9599	27.897
 266	1	1	0.073218	-5.8872	-81.4892	29.1791
 267	1	2	-0.024643	-5.19814	-81.7961	28.3812
 268	1	2	-0.008342	-5.27948	-81.0233	29.9648
 269	1	1	0.04656	-6.60961	-82.7484	29.7347
 270	1	2	-0.007327	-7.17932	-82.478	30.6363
 271	1	2	0.003322	-7.34094	-83.0891	28.9898
 272	1	1	-0.01926	-5.64309	-83.9218	30.0457
 273	1	2	0.003715	-4.96405	-84.0468	29.1936
 274	1	2	0.000131	-5.01535	-83.6636	30.9079
 275	1	1	-0.031072	-6.36247	-85.2776	30.2941
 276	1	2	-0.002086	-6.99961	-85.1978	31.1808
 277	1	2	-0.003252	-7.0103	-85.5041	29.4379
 278	1	1	0.083103	-5.33974	-86.4372	30.4781
 279	1	2	-0.003597	-4.7192	-86.4934	29.5753
 280	1	2	-0.00033	-4.66945	-86.1524	31.2978
 281	1	1	0.015717	-5.88038	-87.867	30.7925
 282	1	2	-0.004333	-6.56906	-87.8285	31.6499
 283	1	2	-0.003064	-6.46998	-88.2341	29.9387
 284	1	6	0.43523	-4.73923	-88.8723	31.1163
 285	1	7	-0.39711	-6.76572	-75.1254	24.8898
 286	1	4	-0.041868	-8.26212	-76.5168	25.3695
 287	1	4	-0.011544	-6.95862	-77.147	24.336
 288	1	8	0.237688	-7.05535	-74.5459	25.6763
 289	1	9	-0.49758	-4.24471	88.9074	32.2365
 290	1	1	0.304671	-7.11686	-70.9284	22.076
 291	1	1	-1.24578	-7.64248	-72.3864	22.2333
 292	1	1	0.921237	-6.828	-73.1235	23.3001
 293	1	2	0.238751	-7.56567	-72.9346	21.2876
 294	1	2	0.241495	-8.69285	-72.3712	22.548
 295	1	1	-0.299014	-7.29983	-74.5682	23.595
 296	1	2	-0.179791	-6.92008	-72.537	24.2167
 297	1	2	-0.17909	-5.77753	-73.1141	23.0029
 298	1	2	0.080952	-8.39552	-74.5798	23.6143
 299	1	2	0.084393	-6.98412	-75.1977	22.7536
 300	1	3	-0.116242	-7.95356	-70.1556	21.1949
 301	1	4	0.075247	-6.08072	-70.9308	21.7049
 302	1	4	0.07317	-7.0975	-70.4565	23.0709
 303	1	1	0.57552	-9.11888	-55.2169	18.9772
 304	1	1	-1.07208	-8.16602	-56.4102	18.9675
 305	1	2	0.119263	-7.47147	-56.3192	18.1216
 306	1	2	0.211544	-7.57711	-56.4002	19.8945
 307	1	1	0.745843	-8.93993	-57.7517	18.8701
 308	1	2	-0.177131	-9.62677	-57.8234	19.7194
 309	1	2	-0.142119	-9.55955	-57.7102	17.9656
 310	1	1	0.080873	-8.02136	-59.0218	18.8359
 311	1	2	0.018859	-7.23441	-58.8863	18.0833
 312	1	2	-0.02655	-7.51105	-59.1125	19.8033
 313	1	1	-0.221824	-8.77609	-60.3539	18.5416
 314	1	2	0.031284	-9.58889	-60.478	19.2722
 315	1	2	0.013242	-9.23302	-60.2971	17.5451
 316	1	1	0.073218	-7.84673	-61.5955	18.6031
 317	1	2	-0.024643	-7.14396	-61.5753	17.7582
 318	1	2	-0.008342	-7.24218	-61.5325	19.5169
 319	1	1	0.04656	-8.62992	-62.9425	18.6243
 320	1	2	-0.007327	-9.41561	-62.8638	19.3871
 321	1	2	0.003322	-9.13323	-63.0918	17.6592
 322	1	1	-0.01926	-7.7612	-64.1822	18.9522
 323	1	2	0.003715	-7.06335	-64.3598	18.1251
 324	1	2	0.000131	-7.14496	-63.9583	19.8337
 325	1	1	-0.031072	-8.59628	-65.4718	19.2333
 326	1	2	-0.002086	-9.32999	-65.2603	20.0214
 327	1	2	-0.003252	-9.15051	-65.776	18.3365
 328	1	1	0.083103	-7.68754	-66.6325	19.7208
 329	1	2	-0.003597	-6.96157	-66.8821	18.9359
 330	1	2	-0.00033	-7.10673	-66.2455	20.5652
 331	1	1	0.015717	-8.42231	-67.9438	20.1717
 332	1	2	-0.004333	-9.34342	-67.7002	20.7199
 333	1	2	-0.003064	-8.7267	-68.5162	19.2833
 334	1	6	0.43523	-7.56459	-68.842	21.0946
 335	1	7	-0.39711	-8.3331	-54.0477	19.3902
 336	1	4	-0.041868	-9.91743	-55.3907	19.7092
 337	1	4	-0.011544	-9.56181	-55.0687	17.986
 338	1	8	0.237688	-7.50408	-54.012	18.7926
 339	1	9	-0.49758	-6.84217	-68.3323	21.933
 340	1	1	0.304671	-8.44711	-49.0146	20.4699
 341	1	1	-1.24578	-9.1428	-50.3007	19.9491
 342	1	1	0.921237	-8.217	-51.5169	19.8313
 343	1	2	0.238751	-9.58495	-50.1168	18.9694
 344	1	2	0.241495	-9.95102	-50.5507	20.638
 345	1	1	-0.299014	-9.06135	-52.7483	19.4037
 346	1	2	-0.179791	-7.44318	-51.3031	19.0869
 347	1	2	-0.17909	-7.75675	-51.6762	20.8101
 348	1	2	0.080952	-9.91147	-52.8328	20.0952
 349	1	2	0.084393	-9.47624	-52.5609	18.4054
 350	1	3	-0.116242	-9.36041	-47.9092	20.2553
 351	1	4	0.075247	-7.51444	-48.8413	19.9189
 352	1	4	0.07317	-8.18906	-49.1147	21.5362
 353	1	1	0.57552	-10.9292	-32.629	20.1454
 354	1	1	-1.07208	-9.91449	-33.7751	20.2811
 355	1	2	0.119263	-9.28852	-33.8021	19.3853
 356	1	2	0.211544	-9.30601	-33.6362	21.1788
 357	1	1	0.745843	-10.6703	-35.097	20.4292
 358	1	2	-0.177131	-11.3558	-34.9754	21.2849
 359	1	2	-0.142119	-11.3225	-35.2223	19.5518
 360	1	1	0.080873	-9.78085	-36.3682	20.6367
 361	1	2	0.018859	-9.0984	-36.446	19.7802
 362	1	2	-0.02655	-9.16778	-36.253	21.5402
 363	1	1	-0.221824	-10.6215	-37.6885	20.7215
 364	1	2	0.031284	-11.2383	-37.6196	21.6207
 365	1	2	0.013242	-11.284	-37.7398	19.8518
 366	1	1	0.073218	-9.73336	-38.957	20.7847
 367	1	2	-0.024643	-8.98411	-38.8742	19.9923
 368	1	2	-0.008342	-9.16493	-38.9827	21.7223
 369	1	1	0.04656	-10.52	-40.2873	20.5902
 370	1	2	-0.007327	-11.1868	-40.4932	21.4373
 371	1	2	0.003322	-11.1538	-40.2307	19.6875
 372	1	1	-0.01926	-9.54015	-41.4927	20.4359
 373	1	2	0.003715	-8.84274	-41.3125	19.6034
 374	1	2	0.000131	-8.9306	-41.519	21.3497
 375	1	1	-0.031072	-10.2408	-42.8858	20.2628
 376	1	2	-0.002086	-11.0822	-42.9618	20.972
 377	1	2	-0.003252	-10.6723	-42.8983	19.252
 378	1	1	0.083103	-9.27343	-44.0876	20.4875
 379	1	2	-0.003597	-8.41078	-43.9787	19.8132
 380	1	2	-0.00033	-8.88118	-44.0568	21.5151
 381	1	1	0.015717	-9.87339	-45.5119	20.2642
 382	1	2	-0.004333	-10.8302	-45.6146	20.8109
 383	1	2	-0.003064	-10.1244	-45.6227	19.1949
 384	1	6	0.43523	-8.93426	-46.6767	20.6876
 385	1	7	-0.39711	-10.3095	-31.3921	20.5432
 386	1	4	-0.041868	-11.757	-32.818	20.8456
 387	1	4	-0.011544	-11.3208	-32.5661	19.1178
 388	1	8	0.237688	-9.97552	-31.527	21.493
 389	1	9	-0.49758	-7.84932	-46.4696	21.19
 390	1	1	0.57552	-13.1825	-16.4151	18.3782
 391	1	1	-1.07208	-13.7556	-17.8147	18.7107
 392	1	2	0.119263	-14.3489	-17.8084	19.6455
 393	1	2	0.211544	-14.4413	-18.156	17.9203
 394	1	1	0.745843	-12.6243	-18.8413	18.8156
 395	1	2	-0.177131	-12.1123	-18.9108	17.8526
 396	1	2	-0.142119	-11.8949	-18.4648	19.5373
 397	1	1	0.080873	-13.1444	-20.2238	19.2574
 398	1	2	0.018859	-13.7203	-20.1483	20.211
 399	1	2	-0.02655	-13.8885	-20.6051	18.5258
 400	1	1	-0.221824	-12.042	-21.3198	19.3836
 401	1	2	0.031284	-11.476	-21.4562	18.4709
 402	1	2	0.013242	-11.2974	-20.9641	20.1094
 403	1	1	0.073218	-12.5912	-22.7031	19.8617
 404	1	2	-0.024643	-13.0688	-22.5943	20.8303
 405	1	2	-0.008342	-13.414	-22.9745	19.1567
 406	1	1	0.04656	-11.583	-23.8534	19.9137
 407	1	2	-0.007327	-11.0691	-23.8475	18.9509
 408	1	2	0.003322	-10.8567	-23.6604	20.6978
 409	1	1	-0.01926	-12.1921	-25.269	20.1288
 410	1	2	0.003715	-12.6572	-25.291	21.13
 411	1	2	0.000131	-12.984	-25.4259	19.3842
 412	1	1	-0.031072	-11.208	-26.5163	19.9761
 413	1	2	-0.002086	-10.899	-26.5822	18.9381
 414	1	2	-0.003252	-10.2844	-26.3236	20.5312
 415	1	1	0.083103	-11.8251	-27.8999	20.4094
 416	1	2	-0.003597	-12.1072	-27.8373	21.4571
 417	1	2	-0.00033	-12.7332	-28.1294	19.81
 418	1	1	0.015717	-10.7565	-29.047	20.1604
 419	1	2	-0.004333	-10.5114	-29.1365	19.1025
 420	1	2	-0.003064	-9.80849	-28.8228	20.6853
 421	1	6	0.43523	-11.3171	-30.3573	20.6987
 422	1	7	-0.39711	-14.265	-15.4616	18.2137
 423	1	4	-0.041868	-12.6367	-16.5009	17.4454
 424	1	4	-0.011544	-12.5206	-16.0232	19.1592
 425	1	8	0.237688	-14.8803	-15.874	17.5564
 426	1	9	-0.49758	-11.7888	-30.4942	21.8184
 427	1	1	0.57552	-14.813	-0.8329	16.6546
 428	1	1	-1.07208	-14.1547	-1.91171	17.5144
 429	1	2	0.119263	-13.1123	-2.05136	17.2152
 430	1	2	0.211544	-14.2376	-1.6427	18.5885
 431	1	1	0.745843	-14.9429	-3.28538	17.2935
 432	1	2	-0.177131	-15.9952	-3.13957	17.6363
 433	1	2	-0.142119	-14.9556	-3.43096	16.2494
 434	1	1	0.080873	-14.3837	-4.59796	17.886
 435	1	2	0.018859	-13.3408	-4.77544	17.5806
 436	1	2	-0.02655	-14.3531	-4.46567	19.0131
 437	1	1	-0.221824	-15.186	-5.8683	17.4047
 438	1	2	0.031284	-16.1788	-5.82453	17.8129
 439	1	2	0.013242	-15.3266	-5.82609	16.2953
 440	1	1	0.073218	-14.5526	-7.2379	17.8297
 441	1	2	-0.024643	-13.4821	-7.19515	17.5908
 442	1	2	-0.008342	-14.5678	-7.39369	18.9172
 443	1	1	0.04656	-15.1633	-8.43505	17.0534
 444	1	2	-0.007327	-16.1818	-8.59812	17.4474
 445	1	2	0.003322	-15.2737	-8.15875	15.9954
 446	1	1	-0.01926	-14.3903	-9.76646	17.0763
 447	1	2	0.003715	-14.8767	-10.4945	16.4601
 448	1	2	0.000131	-13.4635	-9.55166	16.559
 449	1	1	-0.031072	-14.0913	-10.3478	18.4326
 450	1	2	-0.002086	-13.4401	-9.72663	18.9663
 451	1	2	-0.003252	-15.078	-10.4031	19.0076
 452	1	1	0.083103	-13.444	-11.7842	18.413
 453	1	2	-0.003597	-12.6891	-11.6998	17.6675
 454	1	2	-0.00033	-12.8941	-11.9778	19.3213
 455	1	1	0.015717	-14.4475	-12.9323	18.1067
 456	1	2	-0.004333	-14.9041	-13.1983	19.0904
 457	1	2	-0.003064	-15.2635	-12.6067	17.4563
 458	1	6	0.43523	-13.8221	-14.2172	17.5275
 459	1	7	-0.39711	-14.2841	0.442236	17.0845
 460	1	4	-0.041868	-15.8966	-0.798672	16.7801
 461	1	4	-0.011544	-14.6359	-0.971082	15.5941
 462	1	8	0.237688	-13.2488	0.324258	17.0724
 463	1	9	-0.49758	-13.6143	-14.4364	16.3476
 464	1	1	0.57552	-19.0393	13.9802	15.759
 465	1	1	-1.07208	-18.7209	13.6718	17.198
 466	1	2	0.119263	-17.8117	14.1592	17.5597
 467	1	2	0.211544	-19.5613	13.9063	17.8437
 468	1	1	0.745843	-18.5823	12.2098	17.4756
 469	1	2	-0.177131	-18.5864	12.023	18.5214
 470	1	2	-0.142119	-19.4144	11.6838	17.097
 471	1	1	0.080873	-17.2737	11.5327	16.8714
 472	1	2	0.018859	-17.2971	11.5317	15.7904
 473	1	2	-0.02655	-16.4428	12.0901	17.2259
 474	1	1	-0.221824	-17.1125	9.99675	17.1797
 475	1	2	0.031284	-17.0964	9.95849	18.2622
 476	1	2	0.013242	-17.9923	9.57266	16.8763
 477	1	1	0.073218	-15.9146	9.26511	16.5942
 478	1	2	-0.024643	-15.8405	9.52114	15.5649
 479	1	2	-0.008342	-15.0409	9.62281	17.1708
 480	1	1	0.04656	-16.2097	7.72646	16.7806
 481	1	2	-0.007327	-16.4387	7.60272	17.8543
 482	1	2	0.003322	-17.1015	7.5276	16.2831
 483	1	1	-0.01926	-15.1579	6.67547	16.3673
 484	1	2	0.003715	-14.9391	6.76077	15.3297
 485	1	2	0.000131	-14.2719	6.76393	16.9566
 486	1	1	-0.031072	-15.7052	5.25018	16.6951
 487	1	2	-0.002086	-15.7344	5.18237	17.802
 488	1	2	-0.003252	-16.745	5.11601	16.3755
 489	1	1	0.083103	-14.7581	4.14892	16.1838
 490	1	2	-0.003597	-14.9476	3.98664	15.0958
 491	1	2	-0.00033	-13.71	4.45483	16.3248
 492	1	1	0.015717	-15.0224	2.79645	16.9133
 493	1	2	-0.004333	-14.5286	2.79081	17.9315
 494	1	2	-0.003064	-16.1185	2.64192	17.1391
 495	1	6	0.43523	-14.6079	1.5427	16.1871
 496	1	7	-0.39711	-19.9065	15.1359	15.7582
 497	1	4	-0.041868	-19.5215	13.1736	15.2687
 498	1	4	-0.011544	-18.1302	14.1967	15.2152
 499	1	8	0.237688	-19.3829	15.9114	16.1418
 500	1	9	-0.49758	-13.8115	1.51348	15.2587
 501	1	1	0.304671	-19.8824	18.6379	13.9076
 502	1	1	-1.24578	-19.0482	17.2777	13.8812
 503	1	1	0.921237	-19.6145	16.0046	13.4679
 504	1	2	0.238751	-18.6742	17.2102	14.8497
 505	1	2	0.241495	-18.136	17.5435	13.328
 506	1	1	-0.299014	-20.5888	15.4675	14.5231
 507	1	2	-0.179791	-20.0323	16.1992	12.4491
 508	1	2	-0.17909	-18.8306	15.2665	13.3531
 509	1	2	0.080952	-21.3518	16.2298	14.7172
 510	1	2	0.084393	-21.0428	14.5782	14.0645
 511	1	3	-0.116242	-18.9752	19.6851	14.352
 512	1	4	0.075247	-20.7451	18.5504	14.6297
 513	1	4	0.07317	-20.3002	18.9047	12.8832
 514	1	1	0.304671	-19.3772	23.6482	15.6025
 515	1	1	-1.24578	-20.0878	22.6817	14.6011
 516	1	1	0.921237	-20.5024	21.3569	15.275
 517	1	2	0.238751	-19.3245	22.4316	13.8853
 518	1	2	0.241495	-21.0471	23.1697	14.1992
 519	1	1	-0.299014	-19.3026	20.4582	15.4872
 520	1	2	-0.179791	-21.2048	20.884	14.5907
 521	1	2	-0.17909	-21.0156	21.6483	16.1449
 522	1	2	0.080952	-18.4618	21.0787	15.7737
 523	1	2	0.084393	-19.4427	19.8275	16.3855
 524	1	3	-0.116242	-19.6433	24.9424	15.169
 525	1	4	0.075247	-18.2976	23.4573	15.7018
 526	1	4	0.07317	-19.8962	23.3874	16.4933
 527	1	1	0.57552	-16.7231	38.1682	14.1973
 528	1	1	-1.07208	-17.1997	36.898	13.496
 529	1	2	0.119263	-17.8587	37.1659	12.6725
 530	1	2	0.211544	-16.4099	36.2675	13.1269
 531	1	1	0.745843	-18.0305	36.1846	14.5876
 532	1	2	-0.177131	-17.4266	36.058	15.5146
 533	1	2	-0.142119	-18.8798	36.8108	14.8617
 534	1	1	0.080873	-18.6774	34.8833	14.0329
 535	1	2	0.018859	-19.3097	35.1277	13.1623
 536	1	2	-0.02655	-17.8445	34.2284	13.7713
 537	1	1	-0.221824	-19.4933	34.2363	15.1877
 538	1	2	0.031284	-18.8234	34.1896	16.0901
 539	1	2	0.013242	-20.382	34.8484	15.4075
 540	1	1	0.073218	-19.9141	32.8149	14.8305
 541	1	2	-0.024643	-20.7798	32.8523	14.1548
 542	1	2	-0.008342	-19.1015	32.3969	14.2701
 543	1	1	0.04656	-20.2321	31.7634	16.0018
 544	1	2	-0.007327	-19.5125	31.9098	16.849
 545	1	2	0.003322	-21.208	32.0365	16.3551
 546	1	1	-0.01926	-20.178	30.2606	15.6509
 547	1	2	0.003715	-20.5608	29.7592	16.5384
 548	1	2	0.000131	-20.7626	29.9814	14.7664
 549	1	1	-0.031072	-18.7139	29.8922	15.4059
 550	1	2	-0.002086	-18.4645	29.9633	14.3176
 551	1	2	-0.003252	-18.0211	30.5285	15.9248
 552	1	1	0.083103	-18.4686	28.445	15.868
 553	1	2	-0.003597	-17.3939	28.2131	15.7811
 554	1	2	-0.00033	-18.737	28.4178	16.9597
 555	1	1	0.015717	-19.3316	27.3164	15.119
 556	1	2	-0.004333	-20.4133	27.4571	15.3528
 557	1	2	-0.003064	-19.1683	27.3152	14.0168
 558	1	6	0.43523	-18.9109	25.9154	15.7197
 559	1	7	-0.39711	-16.7749	39.2628	13.2774
 560	1	4	-0.041868	-15.7102	37.8839	14.4521
 561	1	4	-0.011544	-17.3871	38.4246	15.0851
 562	1	8	0.237688	-16.7194	38.8907	12.3416
 563	1	9	-0.49758	-18.1643	25.7566	16.6739
 564	1	1	0.304671	-16.5849	43.1333	10.9427
 565	1	1	-1.24578	-16.0019	41.8532	11.5652
 566	1	1	0.921237	-16.2861	41.7389	13.0636
 567	1	2	0.238751	-14.9163	41.8212	11.441
 568	1	2	0.241495	-16.4474	40.9433	11.1073
 569	1	1	-0.299014	-15.8695	40.3687	13.631
 570	1	2	-0.179791	-17.36	41.9375	13.2968
 571	1	2	-0.17909	-15.6959	42.5223	13.5541
 572	1	2	0.080952	-14.8123	40.1271	13.4245
 573	1	2	0.084393	-15.9302	40.4967	14.7269
 574	1	3	-0.116242	-16.5691	42.9753	9.53696
 575	1	4	0.075247	-16.0317	44.023	11.2659
 576	1	4	0.07317	-17.5981	43.2191	11.307
 577	1	1	0.57552	-11.7188	47.6873	-3.76738
 578	1	1	-1.07208	-12.0859	48.4282	-2.45358
 579	1	2	0.119263	-11.3158	49.2002	-2.17552
 580	1	2	0.211544	-13.0112	48.9641	-2.67468
 581	1	1	0.745843	-12.2961	47.4175	-1.30301
 582	1	2	-0.177131	-12.6867	46.4938	-1.72419
 583	1	2	-0.142119	-11.3066	47.1508	-0.937629
 584	1	1	0.080873	-13.2331	47.7914	-0.113204
 585	1	2	0.018859	-12.8045	48.6652	0.447485
 586	1	2	-0.02655	-14.2329	48.0755	-0.517269
 587	1	1	-0.221824	-13.4446	46.5438	0.833806
 588	1	2	0.031284	-14.1278	45.8622	0.32048
 589	1	2	0.013242	-12.4976	45.9973	0.891523
 590	1	1	0.073218	-13.9771	46.7596	2.25776
 591	1	2	-0.024643	-13.1391	47.0483	2.88944
 592	1	2	-0.008342	-14.7154	47.5976	2.28643
 593	1	1	0.04656	-14.6953	45.5118	2.84383
 594	1	2	-0.007327	-15.5121	45.1729	2.193
 595	1	2	0.003322	-13.9596	44.6969	2.86718
 596	1	1	-0.01926	-15.2495	45.8429	4.23454
 597	1	2	0.003715	-14.4487	46.2693	4.83204
 598	1	2	0.000131	-16.0005	46.6347	4.04512
 599	1	1	-0.031072	-15.9123	44.7007	5.06737
 600	1	2	-0.002086	-16.8413	44.3423	4.60777
 601	1	2	-0.003252	-15.2114	43.8547	5.0967
 602	1	1	0.083103	-16.18	45.0745	6.53079
 603	1	2	-0.003597	-15.2141	45.3011	7.04566
 604	1	2	-0.00033	-16.8317	45.992	6.69495
 605	1	1	0.015717	-16.7956	43.9332	7.34497
 606	1	2	-0.004333	-17.7868	43.7822	6.97573
 607	1	2	-0.003064	-16.2023	43.0065	7.18509
 608	1	6	0.43523	-16.8046	44.1429	8.85607
 609	1	7	-0.39711	-11.5852	48.6915	-4.81694
 610	1	4	-0.041868	-12.4561	46.8992	-4.02885
 611	1	4	-0.011544	-10.7212	47.2038	-3.62683
 612	1	8	0.237688	-10.789	49.2324	-4.57159
 613	1	9	-0.49758	-17.0848	45.2224	9.39439
 614	1	1	0.57552	-11.5883	49.7183	-15.7822
 615	1	1	-1.07208	-10.7193	50.5458	-14.8285
 616	1	2	0.119263	-10.7627	50.0778	-13.8415
 617	1	2	0.211544	-9.66197	50.5478	-15.1131
 618	1	1	0.745843	-11.2887	51.9888	-14.7318
 619	1	2	-0.177131	-11.2684	52.3168	-15.7779
 620	1	2	-0.142119	-12.3802	51.9367	-14.4822
 621	1	1	0.080873	-10.5219	53.0916	-13.9071
 622	1	2	0.018859	-9.46609	53.0273	-14.1497
 623	1	2	-0.02655	-10.8605	54.0914	-14.2258
 624	1	1	-0.221824	-10.5893	52.8689	-12.3432
 625	1	2	0.031284	-10.1304	51.8938	-12.0896
 626	1	2	0.013242	-10.0942	53.692	-11.8486
 627	1	1	0.073218	-12.0626	52.9094	-11.8812
 628	1	2	-0.024643	-12.0976	53.6183	-11.0515
 629	1	2	-0.008342	-12.7376	53.3712	-12.5936
 630	1	1	0.04656	-12.5592	51.5092	-11.4459
 631	1	2	-0.007327	-13.6021	51.6349	-11.1149
 632	1	2	0.003322	-12.622	50.7473	-12.238
 633	1	1	-0.01926	-11.755	50.9893	-10.2086
 634	1	2	0.003715	-10.8086	50.5281	-10.5325
 635	1	2	0.000131	-11.4468	51.8897	-9.63486
 636	1	1	-0.031072	-12.5475	50.0091	-9.26107
 637	1	2	-0.002086	-13.4838	50.4675	-8.87094
 638	1	2	-0.003252	-12.8196	49.1259	-9.83795
 639	1	1	0.083103	-11.6038	49.5795	-8.07133
 640	1	2	-0.003597	-10.6247	49.31	-8.39773
 641	1	2	-0.00033	-11.4295	50.4414	-7.43954