pySIMM System Object

998 atoms
997 bonds
1933 angles
2752 dihedrals
0 impropers

10 atom types
12 bond types
28 angle types
12 dihedral types
1 improper types

-115.900419 115.900419 xlo xhi
-115.900419 115.900419 ylo yhi
-115.900419 115.900419 zlo zhi

Masses

   1	12.01	# c3
   2	1.008	# hc
   3	12.01	# c
   4	14.01	# n3
   5	1.008	# h1
   6	1.008	# hn
   7	16.0	# o
   8	1.008	# h4
   9	16.0	# oh
  10	1.008	# ho

Pair Coeffs

   1	0.1094	3.3996695084235347	# c3
   2	0.0157	2.649532787749369	# hc
   3	0.086	3.3996695084235347	# c
   4	0.17	3.249998523775958	# n3
   5	0.0157	2.471353044121301	# h1
   6	0.0157	1.069078461768407	# hn
   7	0.21	2.959921901149463	# o
   8	0.015	2.5105525877194763	# h4
   9	0.2104	3.0664733878390478	# oh
  10	0.0047	0.5379246460131368	# ho

Bond Coeffs

   1	300.9	1.5375	# c3,c3
   2	330.6	1.0969	# c3,hc
   3	392.4	1.019	# hn,n3
   4	637.7	1.2183	# c,o
   5	330.6	1.0969	# c3,h1
   6	313.0	1.5241	# c,c3
   7	325.9	1.4647	# c3,n3
   8	310.7	1.1121	# c,h4
   9	325.9	1.465	# n3,c
  10	371.4	0.973	# ho,oh
  11	316.7	1.4233	# c3,oh
  12	400.1	1.3513	# c,oh

Angle Coeffs

   1	46.39	109.56	# c3,c3,h1
   2	39.4	107.58	# hc,c3,hc
   3	45.64	114.64	# c3,c,h4
   4	41.4	106.4	# hn,n3,hn
   5	39.24	108.46	# h1,c3,h1
   6	49.53	109.88	# h1,c3,n3
   7	46.93	108.77	# c,c3,hc
   8	66.02	111.04	# c3,c3,n3
   9	62.86	111.51	# c3,c3,c3
  10	67.4	123.2	# c3,c,o
  11	54.22	120.7	# h4,c,o
  12	63.27	111.04	# c,c3,c3
  13	46.34	109.8	# c3,c3,hc
  14	47.42	109.29	# c3,n3,hn
  15	63.8	112.35	# c3,n3,c
  16	47.4	109.29	# hn,n3,c
  17	66.0	111.04	# n3,c,c3
  18	70.9	110.7	# n3,c,o
  19	47.38	107.26	# c3,oh,ho
  20	67.47	110.19	# c3,c3,oh
  21	50.93	110.26	# h1,c3,oh
  22	63.82	112.35	# c3,n3,c3
  23	49.55	109.8	# hc,c3,n3
  24	67.9	109.98	# c3,oh,c
  25	68.4	112.73	# c3,c,oh
  26	75.92	122.1	# o,c,oh
  27	62.7	112.48	# c3,oh,c3
  28	51.11	109.5	# hc,c3,oh

Dihedral Coeffs

   1	1	0.16	3	0	# hc,c3,c3,c3
   2	1	0.3	3	0	# X,c3,n3,X
   3	1	0.15555555555555556	3	0	# X,c3,c3,X
   4	3	0.18	3	0	0.25	2	180	0.2	1	180	# c3,c3,c3,c3
   5	1	0.0	2	180	# X,c,c3,X
   6	1	0.15	3	0	# hc,c3,c3,hc
   7	3	0.8	1	0	0.0	2	0	0.08	3	180	# hc,c3,c,o
   8	2	0.16	3	0	0.25	1	0	# ho,oh,c3,c3
   9	1	0.16666666666666666	3	0	# X,c3,oh,X
  10	2	0.0	3	0	0.25	1	0	# hc,c3,c3,oh
  11	2	0.3	3	0	0.48	2	180	# c3,c3,n3,c3
  12	1	2.3	2	180	# X,c,oh,X

Improper Coeffs

   1	10.5	-1	2	# c,X,X,o

Atoms

   1	1	1	0.57552	11.6349	29.1424	-5.60709
   2	1	1	-1.07208	11.9671	28.3204	-4.36752
   3	1	2	0.119263	11.7649	27.2646	-4.55466
   4	1	2	0.211544	13.0236	28.4425	-4.12662
   5	1	1	0.745843	11.1288	28.8068	-3.17503
   6	1	2	-0.177131	11.321	29.875	-3.05212
   7	1	2	-0.142119	10.0751	28.6974	-3.44054
   8	1	1	0.080873	11.4085	28.074	-1.83696
   9	1	2	0.018859	10.9175	28.6347	-1.03344
  10	1	2	-0.02655	10.9387	27.0808	-1.85067
  11	1	1	-0.221824	12.9264	27.9069	-1.53074
  12	1	2	0.031284	13.3064	27.0676	-2.12957
  13	1	2	0.013242	13.481	28.7962	-1.85126
  14	1	1	0.073218	13.2149	27.6403	-0.0375986
  15	1	2	-0.024643	13.2765	28.6022	0.488139
  16	1	2	-0.008342	12.3824	27.0898	0.425954
  17	1	1	0.04656	14.5108	26.8172	0.151426
  18	1	2	-0.007327	14.3681	25.7954	-0.216324
  19	1	2	0.003322	15.3078	27.2541	-0.461761
  20	1	1	-0.01926	14.9649	26.7824	1.62458
  21	1	2	0.003715	14.974	27.8054	2.0182
  22	1	2	0.000131	14.2525	26.2179	2.23915
  23	1	1	-0.031072	16.3735	26.1667	1.77387
  24	1	2	-0.002086	16.2676	25.0785	1.85606
  25	1	2	-0.003252	16.9755	26.362	0.872626
  26	1	1	0.083103	17.1723	26.7059	2.98535
  27	1	2	-0.003597	18.0916	26.1123	3.08137
  28	1	2	-0.00033	17.4856	27.7267	2.73464
  29	1	1	0.015717	16.4622	26.7518	4.36195
  30	1	2	-0.004333	17.0224	27.459	4.99045
  31	1	2	-0.003064	15.4472	27.1499	4.28834
  32	1	3	0.43523	16.437	25.414	5.08497
  33	1	4	-0.39711	12.5709	28.7809	-6.6456
  34	1	5	-0.041868	11.7447	30.2015	-5.36675
  35	1	5	-0.011544	10.5999	28.9586	-5.9254
  36	1	6	0.237688	13.456	28.5918	-6.18084
  37	1	7	-0.49758	17.4378	24.7275	5.23469
  38	1	1	0.57552	16.9139	37.9574	-11.4545
  39	1	1	-1.07208	15.5955	37.273	-11.8082
  40	1	2	0.119263	15.1167	36.8494	-10.9205
  41	1	2	0.211544	14.9128	38.0456	-12.208
  42	1	1	0.745843	15.7172	36.2057	-12.9101
  43	1	2	-0.177131	14.7095	36.0836	-13.3174
  44	1	2	-0.142119	16.33	36.6123	-13.7222
  45	1	1	0.080873	16.2737	34.8193	-12.4571
  46	1	2	0.018859	17.3593	34.8985	-12.3241
  47	1	2	-0.02655	15.857	34.5813	-11.468
  48	1	1	-0.221824	15.9317	33.6539	-13.4348
  49	1	2	0.031284	14.8328	33.5414	-13.4934
  50	1	2	0.013242	16.2947	33.9122	-14.4325
  51	1	1	0.073218	16.5638	32.296	-13.0088
  52	1	2	-0.024643	16.2825	31.5429	-13.7485
  53	1	2	-0.008342	17.6629	32.3738	-13.0449
  54	1	1	0.04656	16.1077	31.8282	-11.5951
  55	1	2	-0.007327	16.5544	32.4861	-10.8361
  56	1	2	0.003322	15.0279	31.9679	-11.5132
  57	1	1	-0.01926	16.4573	30.3526	-11.2344
  58	1	2	0.003715	15.9596	29.6711	-11.9428
  59	1	2	0.000131	17.5417	30.2077	-11.3592
  60	1	1	-0.031072	16.0621	29.9978	-9.77032
  61	1	2	-0.002086	16.5828	29.086	-9.45898
  62	1	2	-0.003252	16.4368	30.7915	-9.10936
  63	1	1	0.083103	14.539	29.7987	-9.51364
  64	1	2	-0.003597	13.9521	30.5426	-10.0567
  65	1	2	-0.00033	14.2116	28.8152	-9.8708
  66	1	1	0.015717	14.2462	29.9794	-7.9992
  67	1	2	-0.004333	14.829	29.2378	-7.44354
  68	1	2	-0.003064	14.6129	30.9647	-7.69093
  69	1	3	0.43523	12.7677	29.8816	-7.57448
  70	1	4	-0.39711	17.5722	37.172	-10.421
  71	1	5	-0.041868	16.699	38.9643	-11.0679
  72	1	5	-0.011544	17.5454	38.0729	-12.3424
  73	1	6	0.237688	17.812	36.2849	-10.8513
  74	1	7	-0.49758	11.8356	29.9524	-8.35279
  75	1	1	0.57552	11.0287	36.1012	-11.0246
  76	1	1	-1.07208	11.3334	37.5842	-10.8918
  77	1	2	0.119263	11.8154	37.9341	-11.8053
  78	1	2	0.211544	10.4137	38.156	-10.7218
  79	1	1	0.745843	12.2727	37.7569	-9.69802
  80	1	2	-0.177131	11.7236	37.5016	-8.78352
  81	1	2	-0.142119	13.091	37.0329	-9.79161
  82	1	1	0.080873	12.886	39.1754	-9.60753
  83	1	2	0.018859	13.1061	39.5131	-10.6304
  84	1	2	-0.02655	12.1464	39.8725	-9.20364
  85	1	1	-0.221824	14.1784	39.2454	-8.7823
  86	1	2	0.031284	14.8658	38.4411	-9.09542
  87	1	2	0.013242	14.673	40.1981	-9.00822
  88	1	1	0.073218	13.9179	39.1263	-7.25978
  89	1	2	-0.024643	13.4113	40.0528	-6.94443
  90	1	2	-0.008342	13.2226	38.304	-7.0568
  91	1	1	0.04656	15.1979	38.9224	-6.4029
  92	1	2	-0.007327	14.8984	39.0568	-5.35637
  93	1	2	0.003322	15.5306	37.8846	-6.4674
  94	1	1	-0.01926	16.3573	39.9294	-6.6737
  95	1	2	0.003715	15.9309	40.9201	-6.87875
  96	1	2	0.000131	16.9397	40.0273	-5.74705
  97	1	1	-0.031072	17.3629	39.5719	-7.79941
  98	1	2	-0.002086	16.8819	39.6063	-8.7751
  99	1	2	-0.003252	18.1475	40.3444	-7.81281
 100	1	1	0.083103	18.0109	38.1903	-7.59924
 101	1	2	-0.003597	18.4064	38.142	-6.57208
 102	1	2	-0.00033	17.2523	37.4104	-7.6809
 103	1	1	0.015717	19.1623	37.8798	-8.5698
 104	1	2	-0.004333	19.9303	38.6548	-8.45386
 105	1	2	-0.003064	19.6243	36.9326	-8.26469
 106	1	3	0.43523	18.8299	37.7888	-10.0758
 107	1	4	-0.39711	10.3742	35.8167	-12.3057
 108	1	5	-0.041868	10.3833	35.7909	-10.1843
 109	1	5	-0.011544	11.96	35.5303	-10.9745
 110	1	6	0.237688	11.0003	36.1221	-13.0455
 111	1	7	-0.49758	19.6177	37.3193	-10.8782
 112	1	1	0.304671	5.99484	36.5737	-12.9343
 113	1	1	-1.24578	7.05706	36.6212	-14.0742
 114	1	1	0.921237	8.32215	35.824	-13.7817
 115	1	2	0.238751	7.33731	37.6538	-14.3136
 116	1	2	0.241495	6.61722	36.1926	-14.9746
 117	1	1	-0.299014	9.0005	36.3485	-12.5046
 118	1	2	-0.179791	8.988	35.9236	-14.6398
 119	1	2	-0.17909	8.04389	34.768	-13.6841
 120	1	2	0.080952	9.04284	37.4452	-12.5614
 121	1	2	0.084393	8.38091	36.1011	-11.6395
 122	1	9	-0.116242	6.16706	37.6521	-12.0023
 123	1	5	0.075247	6.04969	35.5996	-12.4195
 124	1	5	0.07317	4.9872	36.6514	-13.3676
 125	1	1	0.57552	9.73784	31.5439	-10.8014
 126	1	1	-1.07208	8.377	31.8396	-10.1693
 127	1	2	0.119263	7.90681	32.701	-10.6509
 128	1	2	0.211544	7.74297	30.9624	-10.354
 129	1	1	0.745843	8.44167	32.0501	-8.65458
 130	1	2	-0.177131	8.82193	31.1406	-8.19813
 131	1	2	-0.142119	9.18688	32.8315	-8.46664
 132	1	1	0.080873	7.08206	32.4761	-8.04805
 133	1	2	0.018859	6.58631	33.1959	-8.72543
 134	1	2	-0.02655	6.41111	31.6199	-8.00474
 135	1	1	-0.221824	7.21556	33.1263	-6.63708
 136	1	2	0.031284	6.20177	33.2911	-6.24968
 137	1	2	0.013242	7.6917	32.404	-5.96973
 138	1	1	0.073218	7.98238	34.4818	-6.5593
 139	1	2	-0.024643	7.82796	34.9178	-5.57041
 140	1	2	-0.008342	9.06933	34.3123	-6.66251
 141	1	1	0.04656	7.49546	35.5015	-7.61469
 142	1	2	-0.007327	7.844	35.1752	-8.60143
 143	1	2	0.003322	6.40426	35.4898	-7.6434
 144	1	1	-0.01926	8.00463	36.9397	-7.35266
 145	1	2	0.003715	7.60176	37.3093	-6.39723
 146	1	2	0.000131	9.09611	36.9209	-7.25406
 147	1	1	-0.031072	7.59007	37.8825	-8.51081
 148	1	2	-0.002086	8.1758	38.8125	-8.46344
 149	1	2	-0.003252	7.84363	37.4059	-9.4564
 150	1	1	0.083103	6.07362	38.258	-8.49742
 151	1	2	-0.003597	5.45095	37.4194	-8.15735
 152	1	2	-0.00033	5.90583	39.0623	-7.77054
 153	1	1	0.015717	5.56345	38.7133	-9.88065
 154	1	2	-0.004333	4.56816	39.1523	-9.76225
 155	1	2	-0.003064	6.21402	39.4953	-10.3009
 156	1	3	0.43523	5.4226	37.5475	-10.8655
 157	1	4	-0.39711	10.5019	32.7758	-10.7431
 158	1	5	-0.041868	9.61409	31.2346	-11.8406
 159	1	5	-0.011544	10.2309	30.7454	-10.2461
 160	1	6	0.237688	10.1204	33.2802	-9.95275
 161	1	7	-0.49758	4.65902	36.6212	-10.6521
 162	1	1	0.57552	19.3729	28.6962	-4.43006
 163	1	1	-1.07208	20.2646	29.8978	-4.74398
 164	1	2	0.119263	20.3291	30.5835	-3.88898
 165	1	2	0.211544	21.2838	29.547	-4.926
 166	1	1	0.745843	19.8137	30.6781	-5.99303
 167	1	2	-0.177131	20.6101	31.4024	-6.18854
 168	1	2	-0.142119	19.8095	29.9844	-6.83382
 169	1	1	0.080873	18.4494	31.4172	-5.87765
 170	1	2	0.018859	17.6353	30.6906	-5.99667
 171	1	2	-0.02655	18.3518	31.8663	-4.88287
 172	1	1	-0.221824	18.2779	32.5235	-6.94357
 173	1	2	0.031284	19.0823	33.2668	-6.83045
 174	1	2	0.013242	18.3778	32.0694	-7.93998
 175	1	1	0.073218	16.9065	33.2235	-6.84232
 176	1	2	-0.024643	16.1063	32.4849	-6.88971
 177	1	2	-0.008342	16.8385	33.7032	-5.86453
 178	1	1	0.04656	16.7003	34.2754	-7.94622
 179	1	2	-0.007327	17.5685	34.9455	-7.97322
 180	1	2	0.003322	16.6512	33.8056	-8.93431
 181	1	1	-0.01926	15.4493	35.1283	-7.64476
 182	1	2	0.003715	15.5286	35.5212	-6.62691
 183	1	2	0.000131	15.4415	35.9912	-8.30872
 184	1	1	-0.031072	14.1073	34.3568	-7.79406
 185	1	2	-0.002086	14.1019	33.4998	-7.10499
 186	1	2	-0.003252	13.2928	35.0194	-7.46563
 187	1	1	0.083103	13.768	33.8387	-9.20992
 188	1	2	-0.003597	13.8461	34.6504	-9.94369
 189	1	2	-0.00033	14.4776	33.045	-9.48448
 190	1	1	0.015717	12.3329	33.2484	-9.19268
 191	1	2	-0.004333	12.2227	32.5442	-8.37365
 192	1	2	-0.003064	11.6081	34.0491	-8.98351
 193	1	3	0.43523	11.9071	32.5328	-10.48
 194	1	4	-0.39711	18.1718	29.2553	-3.8127
 195	1	5	-0.041868	19.8861	28.049	-3.70775
 196	1	5	-0.011544	19.138	28.1222	-5.33088
 197	1	6	0.237688	18.5086	29.9671	-3.17068
 198	1	7	-0.49758	12.5038	32.5959	-11.5418
 199	1	1	0.304671	15.2622	26.5733	-6.07669
 200	1	1	-1.24578	15.8553	27.7326	-5.22873
 201	1	1	0.921237	16.5336	27.2229	-3.95752
 202	1	2	0.238751	15.1044	28.4549	-4.9121
 203	1	2	0.241495	16.6034	28.2777	-5.80628
 204	1	1	-0.299014	17.1748	28.3639	-3.14421
 205	1	2	-0.179791	17.2916	26.4912	-4.23439
 206	1	2	-0.17909	15.7791	26.713	-3.34372
 207	1	2	0.080952	16.3433	28.9868	-2.78818
 208	1	2	0.084393	17.6239	27.9145	-2.24488
 209	1	9	-0.116242	14.0476	26.137	-5.48247
 210	1	5	0.075247	15.9852	25.7428	-6.13566
 211	1	5	0.07317	15.0609	26.9126	-7.09971
 212	1	1	0.57552	20.506	26.8713	-0.0876936
 213	1	1	-1.07208	20.2429	25.3641	-0.11279
 214	1	2	0.119263	21.1641	24.8182	0.124355
 215	1	2	0.211544	19.512	25.1166	0.667633
 216	1	1	0.745843	19.7069	24.8774	-1.46908
 217	1	2	-0.177131	18.7571	25.3858	-1.67239
 218	1	2	-0.142119	20.4151	25.223	-2.23113
 219	1	1	0.080873	19.5758	23.3245	-1.57967
 220	1	2	0.018859	19.47	23.0458	-2.63286
 221	1	2	-0.02655	20.5093	22.8497	-1.24499
 222	1	1	-0.221824	18.4105	22.7271	-0.755808
 223	1	2	0.031284	18.5612	21.6438	-0.650468
 224	1	2	0.013242	18.4397	23.1296	0.267482
 225	1	1	0.073218	17.0283	22.9888	-1.37733
 226	1	2	-0.024643	16.2643	22.7415	-0.627822
 227	1	2	-0.008342	16.8943	24.053	-1.61832
 228	1	1	0.04656	16.8221	22.1035	-2.62727
 229	1	2	-0.007327	17.4225	22.4828	-3.46001
 230	1	2	0.003322	17.1814	21.0878	-2.41702
 231	1	1	-0.01926	15.3457	22.0068	-3.05763
 232	1	2	0.003715	15.2618	21.1677	-3.75862
 233	1	2	0.000131	14.7301	21.7381	-2.18891
 234	1	1	-0.031072	14.7651	23.2687	-3.73599
 235	1	2	-0.002086	14.6423	24.0569	-2.98272
 236	1	2	-0.003252	15.478	23.6449	-4.48015
 237	1	1	0.083103	13.3894	23.0005	-4.41961
 238	1	2	-0.003597	13.5274	22.3032	-5.25281
 239	1	2	-0.00033	12.7283	22.495	-3.70297
 240	1	1	0.015717	12.6618	24.2771	-4.92293
 241	1	2	-0.004333	11.7041	23.9704	-5.36584
 242	1	2	-0.003064	12.4288	24.9378	-4.07553
 243	1	3	0.43523	13.4677	25.0153	-5.9919
 244	1	4	-0.39711	21.0106	27.1358	1.26321
 245	1	5	-0.041868	19.5708	27.4161	-0.25915
 246	1	5	-0.011544	21.2432	27.1584	-0.852654
 247	1	6	0.237688	21.7833	26.5021	1.43288
 248	1	7	-0.49758	13.7889	24.4733	-7.03838
 249	1	1	0.304671	20.7927	28.0669	5.49748
 250	1	1	-1.24578	20.4093	28.3745	4.03515
 251	1	1	0.921237	21.6213	28.7353	3.17907
 252	1	2	0.238751	19.6684	29.1802	3.9662
 253	1	2	0.241495	19.946	27.4713	3.62353
 254	1	1	-0.299014	21.33	28.5335	1.66772
 255	1	2	-0.179791	22.4762	28.1142	3.46914
 256	1	2	-0.17909	21.8696	29.7833	3.37053
 257	1	2	0.080952	20.5022	29.1964	1.39367
 258	1	2	0.084393	22.2144	28.8709	1.11132
 259	1	9	-0.116242	19.5857	27.652	6.12817
 260	1	5	0.075247	21.2257	28.9505	5.99319
 261	1	5	0.07317	21.5318	27.2523	5.53774
 262	1	1	0.57552	16.0927	31.7614	3.36202
 263	1	1	-1.07208	16.0263	31.5822	4.86092
 264	1	2	0.119263	15.179	30.9429	5.09202
 265	1	2	0.211544	16.9349	31.1114	5.24843
 266	1	1	0.745843	15.8548	32.9418	5.54176
 267	1	2	-0.177131	16.7955	33.4954	5.44965
 268	1	2	-0.142119	15.1041	33.5042	4.9798
 269	1	1	0.080873	15.4204	32.8303	7.03152
 270	1	2	0.018859	15.2826	33.845	7.42032
 271	1	2	-0.02655	14.4442	32.3453	7.07388
 272	1	1	-0.221824	16.3592	32.0283	7.9636
 273	1	2	0.031284	16.3776	31.0024	7.60756
 274	1	2	0.013242	17.3804	32.4142	7.86889
 275	1	1	0.073218	15.9338	32.0798	9.45496
 276	1	2	-0.024643	15.9498	33.139	9.75884
 277	1	2	-0.008342	14.8985	31.7311	9.57232
 278	1	1	0.04656	16.8749	31.3086	10.4241
 279	1	2	-0.007327	17.9028	31.6652	10.2713
 280	1	2	0.003322	16.6184	31.6104	11.4515
 281	1	1	-0.01926	16.8463	29.7521	10.3699
 282	1	2	0.003715	17.4129	29.3917	11.2351
 283	1	2	0.000131	15.8254	29.3977	10.5239
 284	1	1	-0.031072	17.439	29.104	9.09028
 285	1	2	-0.002086	16.6591	28.9977	8.32778
 286	1	2	-0.003252	18.2224	29.7426	8.66815
 287	1	1	0.083103	18.0597	27.7161	9.39316
 288	1	2	-0.003597	18.9417	27.8644	10.0331
 289	1	2	-0.00033	17.3495	27.1157	9.97948
 290	1	1	0.015717	18.476	26.9155	8.13658
 291	1	2	-0.004333	18.7087	25.8807	8.41872
 292	1	2	-0.003064	17.6416	26.8763	7.42105
 293	1	3	0.43523	19.7183	27.52	7.48096
 294	1	4	-0.39711	16.2006	30.4463	2.77639
 295	1	5	-0.041868	16.9863	32.3461	3.12417
 296	1	5	-0.011544	15.2051	32.2879	2.97772
 297	1	6	0.237688	17.0159	29.9898	3.16439
 298	1	7	-0.49758	20.7412	27.7616	8.11099
 299	1	1	0.57552	12.7622	36.0273	-3.25902
 300	1	1	-1.07208	14.103	36.7099	-3.53704
 301	1	2	0.119263	14.6133	36.2464	-4.38836
 302	1	2	0.211544	13.9004	37.7502	-3.79658
 303	1	1	0.745843	15.0215	36.7022	-2.3148
 304	1	2	-0.177131	14.485	37.2089	-1.50928
 305	1	2	-0.142119	15.1339	35.6648	-1.98366
 306	1	1	0.080873	16.405	37.3801	-2.49444
 307	1	2	0.018859	16.2494	38.4376	-2.7261
 308	1	2	-0.02655	16.9358	37.3679	-1.53248
 309	1	1	-0.221824	17.3398	36.7696	-3.58064
 310	1	2	0.031284	16.944	37.0401	-4.56675
 311	1	2	0.013242	18.3236	37.2542	-3.49903
 312	1	1	0.073218	17.5397	35.2276	-3.54191
 313	1	2	-0.024643	16.5836	34.7572	-3.7947
 314	1	2	-0.008342	18.269	34.9337	-4.30701
 315	1	1	0.04656	18.0107	34.6702	-2.17359
 316	1	2	-0.007327	19.0118	35.0471	-1.92605
 317	1	2	0.003322	17.348	35.058	-1.3942
 318	1	1	-0.01926	17.985	33.1252	-2.10388
 319	1	2	0.003715	17.1316	32.7459	-2.67601
 320	1	2	0.000131	18.8879	32.7182	-2.57899
 321	1	1	-0.031072	17.8664	32.6217	-0.64926
 322	1	2	-0.002086	18.6312	33.103	-0.0237516
 323	1	2	-0.003252	16.8901	32.924	-0.24691
 324	1	1	0.083103	18.019	31.0906	-0.536441
 325	1	2	-0.003597	17.33	30.5985	-1.23108
 326	1	2	-0.00033	19.0403	30.8361	-0.852729
 327	1	1	0.015717	17.7894	30.531	0.895919
 328	1	2	-0.004333	18.118	29.4911	0.942197
 329	1	2	-0.003064	18.4076	31.0872	1.61219
 330	1	3	0.43523	16.3278	30.5819	1.33514
 331	1	4	-0.39711	12.8931	34.5662	-3.15827
 332	1	5	-0.041868	12.0628	36.2799	-4.06743
 333	1	5	-0.011544	12.3399	36.4178	-2.32492
 334	1	6	0.237688	13.6459	34.3836	-2.49577
 335	1	7	-0.49758	15.4624	29.9114	0.802862
 336	1	1	0.304671	14.4333	32.0336	-2.22061
 337	1	1	-1.24578	14.4108	31.7272	-3.75368
 338	1	1	0.921237	13.1826	32.2971	-4.45939
 339	1	2	0.238751	14.3702	30.6453	-3.88537
 340	1	2	0.241495	15.3129	32.0908	-4.25803
 341	1	1	-0.299014	13.1578	33.848	-4.44594
 342	1	2	-0.179791	12.2761	31.9052	-4.0045
 343	1	2	-0.17909	13.2258	31.9364	-5.49559
 344	1	2	0.080952	14.12	34.177	-4.85653
 345	1	2	0.084393	12.393	34.1453	-5.17219
 346	1	9	-0.116242	13.2095	31.6295	-1.59613
 347	1	5	0.075247	14.6172	33.1049	-2.06122
 348	1	5	0.07317	15.2769	31.5125	-1.74926
 349	1	1	0.57552	14.6329	26.362	8.5163
 350	1	1	-1.07208	14.0488	27.173	7.36277
 351	1	2	0.119263	14.8294	27.3968	6.63202
 352	1	2	0.211544	13.2711	26.5924	6.85777
 353	1	1	0.745843	13.461	28.4765	7.89998
 354	1	2	-0.177131	12.6313	28.1983	8.55609
 355	1	2	-0.142119	14.2328	28.9686	8.50223
 356	1	1	0.080873	12.9693	29.4632	6.8074
 357	1	2	0.018859	13.8464	29.9592	6.39169
 358	1	2	-0.02655	12.4966	28.9072	5.98453
 359	1	1	-0.221824	11.9532	30.5338	7.3119
 360	1	2	0.031284	10.999	30.0228	7.49476
 361	1	2	0.013242	12.2598	30.9028	8.29884
 362	1	1	0.073218	11.7059	31.7663	6.37669
 363	1	2	-0.024643	10.7453	32.2143	6.66426
 364	1	2	-0.008342	12.4372	32.5512	6.60043
 365	1	1	0.04656	11.7016	31.4979	4.84429
 366	1	2	-0.007327	12.7288	31.2615	4.53329
 367	1	2	0.003322	11.1017	30.6078	4.62096
 368	1	1	-0.01926	11.1812	32.6812	4.00665
 369	1	2	0.003715	10.0866	32.6947	4.00234
 370	1	2	0.000131	11.4986	33.622	4.47208
 371	1	1	-0.031072	11.7135	32.692	2.5532
 372	1	2	-0.002086	11.2901	33.5685	2.05117
 373	1	2	-0.003252	12.7931	32.863	2.59449
 374	1	1	0.083103	11.454	31.4395	1.68073
 375	1	2	-0.003597	12.1139	30.6149	1.98532
 376	1	2	-0.00033	10.4099	31.1044	1.81304
 377	1	1	0.015717	11.6685	31.7727	0.190477
 378	1	2	-0.004333	11.1829	30.9901	-0.414599
 379	1	2	-0.003064	11.1714	32.7165	-0.064847
 380	1	3	0.43523	13.1286	31.8797	-0.263873
 381	1	4	-0.39711	15.0559	25.0819	7.97461
 382	1	5	-0.041868	13.8632	26.2045	9.27841
 383	1	5	-0.011544	15.4761	26.8985	8.95733
 384	1	6	0.237688	14.2284	24.6455	7.57904
 385	1	7	-0.49758	13.9945	32.4662	0.363647
 386	1	1	0.304671	14.8961	20.7506	7.35971
 387	1	1	-1.24578	14.6453	22.188	7.79722
 388	1	1	0.921237	15.9135	22.7255	8.46104
 389	1	2	0.238751	13.8237	22.2095	8.52512
 390	1	2	0.241495	14.3823	22.795	6.92514
 391	1	1	-0.299014	15.6096	24.1395	8.97153
 392	1	2	-0.179791	16.7214	22.7232	7.73047
 393	1	2	-0.17909	16.2025	22.0953	9.30128
 394	1	2	0.080952	14.9039	24.0456	9.80412
 395	1	2	0.084393	16.5411	24.5341	9.38341
 396	1	9	-0.116242	14.8557	19.9464	8.53559
 397	1	5	0.075247	15.8559	20.6341	6.83567
 398	1	5	0.07317	14.0911	20.4666	6.6619
 399	1	1	0.304671	10.4156	17.7339	9.46832
 400	1	1	-1.24578	11.8807	17.5953	9.00998
 401	1	1	0.921237	12.6472	18.9096	9.20459
 402	1	2	0.238751	11.8988	17.3235	7.94909
 403	1	2	0.241495	12.4088	16.8072	9.56583
 404	1	1	-0.299014	13.9887	18.797	8.48452
 405	1	2	-0.179791	12.8193	19.0669	10.2683
 406	1	2	-0.17909	12.0738	19.75	8.81507
 407	1	2	0.080952	14.5427	17.9528	8.90983
 408	1	2	0.084393	13.7961	18.5318	7.4406
 409	1	9	-0.116242	10.3411	17.6034	10.8995
 410	1	5	0.075247	9.79983	16.9442	9.00681
 411	1	5	0.07317	10.0299	18.7218	9.16096
 412	1	1	0.304671	7.75753	13.7625	11.4183
 413	1	1	-1.24578	8.33178	15.0694	10.8704
 414	1	1	0.921237	8.72412	15.9939	11.995
 415	1	2	0.238751	7.58996	15.5572	10.2378
 416	1	2	0.241495	9.22941	14.8992	10.265
 417	1	1	-0.299014	9.03967	17.421	11.4921
 418	1	2	-0.179791	9.56103	15.5446	12.521
 419	1	2	-0.17909	7.87675	16.0371	12.6785
 420	1	2	0.080952	8.23894	17.7847	10.8374
 421	1	2	0.084393	9.03491	18.0496	12.3873
 422	1	9	-0.116242	8.87614	12.9277	11.6408
 423	1	5	0.075247	7.08896	13.3423	10.6518
 424	1	5	0.07317	7.15809	13.9131	12.3344
 425	1	1	0.57552	5.36495	-0.236299	8.36294
 426	1	1	-1.07208	5.65941	0.596152	9.59522
 427	1	2	0.119263	4.77172	1.14803	9.92436
 428	1	2	0.211544	5.96752	-0.105435	10.3803
 429	1	1	0.745843	6.81825	1.56873	9.3912
 430	1	2	-0.177131	7.69402	0.988105	9.092
 431	1	2	-0.142119	6.58636	2.22603	8.54302
 432	1	1	0.080873	7.0875	2.42028	10.6756
 433	1	2	0.018859	6.12052	2.76431	11.057
 434	1	2	-0.02655	7.55379	1.80475	11.4611
 435	1	1	-0.221824	7.94542	3.66496	10.3131
 436	1	2	0.031284	8.91854	3.29418	9.96185
 437	1	2	0.013242	7.4922	4.20384	9.46804
 438	1	1	0.073218	8.17505	4.68466	11.4478
 439	1	2	-0.024643	7.18786	5.10964	11.6795
 440	1	2	-0.008342	8.52374	4.17116	12.3483
 441	1	1	0.04656	9.14683	5.85911	11.1125
 442	1	2	-0.007327	10.1772	5.48745	11.0633
 443	1	2	0.003322	8.90782	6.26856	10.1157
 444	1	1	-0.01926	9.07422	6.99886	12.1308
 445	1	2	0.003715	8.02404	7.12712	12.4266
 446	1	2	0.000131	9.62366	6.74131	13.0368
 447	1	1	-0.031072	9.63127	8.34414	11.567
 448	1	2	-0.002086	10.6189	8.21248	11.0998
 449	1	2	-0.003252	8.95395	8.67875	10.7686
 450	1	1	0.083103	9.74097	9.4564	12.6457
 451	1	2	-0.003597	8.855	9.43894	13.2908
 452	1	2	-0.00033	10.6204	9.27443	13.2824
 453	1	1	0.015717	9.90369	10.8654	12.0512
 454	1	2	-0.004333	10.5586	11.4399	12.7156
 455	1	2	-0.003064	10.3781	10.8301	11.0641
 456	1	3	0.43523	8.60359	11.6277	11.8802
 457	1	4	-0.39711	4.24744	-1.04527	8.81747
 458	1	5	-0.041868	6.23936	-0.827153	8.06145
 459	1	5	-0.011544	5.06666	0.424101	7.5443
 460	1	6	0.237688	3.63007	-0.352948	9.23917
 461	1	7	-0.49758	7.47481	11.1831	12.0152
 462	1	1	0.304671	-0.147156	-2.89396	7.73543
 463	1	1	-1.24578	1.06746	-2.06677	7.31952
 464	1	1	0.921237	2.25092	-2.46725	8.20735
 465	1	2	0.238751	1.331	-2.21728	6.26751
 466	1	2	0.241495	0.844138	-1.01994	7.5147
 467	1	1	-0.299014	3.52393	-1.79727	7.72988
 468	1	2	-0.179791	2.37015	-3.55823	8.2498
 469	1	2	-0.17909	2.03739	-2.15105	9.22437
 470	1	2	0.080952	3.2869	-1.11516	6.89982
 471	1	2	0.084393	4.14856	-2.57647	7.29678
 472	1	9	-0.116242	-1.16681	-2.81937	6.72569
 473	1	5	0.075247	-0.482515	-2.4944	8.70685
 474	1	5	0.07317	0.119675	-3.95074	7.91614
 475	1	1	0.57552	-14.4059	3.7744	6.80277
 476	1	1	-1.07208	-13.1115	3.84283	7.61344
 477	1	2	0.119263	-12.7834	4.90294	7.72268
 478	1	2	0.211544	-13.2186	3.36574	8.62486
 479	1	1	0.745843	-12.0708	3.05006	6.80053
 480	1	2	-0.177131	-12.5737	2.25836	6.2044
 481	1	2	-0.142119	-11.6331	3.69938	6.04226
 482	1	1	0.080873	-10.9561	2.43062	7.69072
 483	1	2	0.018859	-10.5124	3.1918	8.3315
 484	1	2	-0.02655	-11.4102	1.62303	8.28441
 485	1	1	-0.221824	-9.8319	1.84786	6.79393
 486	1	2	0.031284	-10.291	1.15383	6.10778
 487	1	2	0.013242	-9.37189	2.67668	6.24227
 488	1	1	0.073218	-8.68659	1.05688	7.54056
 489	1	2	-0.024643	-8.06232	1.73802	8.11957
 490	1	2	-0.008342	-9.13556	0.368695	8.27581
 491	1	1	0.04656	-7.73404	0.294375	6.58743
 492	1	2	-0.007327	-8.29302	-0.438452	5.98424
 493	1	2	0.003322	-7.32292	1.01072	5.85976
 494	1	1	-0.01926	-6.58518	-0.416312	7.32216
 495	1	2	0.003715	-6.02533	0.31519	7.92047
 496	1	2	0.000131	-6.95714	-1.16992	8.03452
 497	1	1	-0.031072	-5.66007	-1.04082	6.2869
 498	1	2	-0.002086	-6.07435	-1.99551	5.97239
 499	1	2	-0.003252	-5.58415	-0.465499	5.35322
 500	1	1	0.083103	-4.26955	-1.23562	6.92617
 501	1	2	-0.003597	-3.75775	-0.25528	6.90379
 502	1	2	-0.00033	-4.47323	-1.46442	7.97221
 503	1	1	0.015717	-3.39887	-2.34285	6.26751
 504	1	2	-0.004333	-4.05766	-3.1538	5.91312
 505	1	2	-0.003064	-2.86521	-1.99764	5.34831
 506	1	3	0.43523	-2.40939	-3.04901	7.2205
 507	1	4	-0.39711	-15.4196	4.19268	7.70982
 508	1	5	-0.041868	-14.6641	2.75235	6.47206
 509	1	5	-0.011544	-14.3131	4.39506	5.90088
 510	1	6	0.237688	-15.497	3.49239	8.43454
 511	1	7	-0.49758	-2.63791	-3.32294	8.40789
 512	1	1	0.304671	-19.5493	4.24177	9.87144
 513	1	1	-1.24578	-18.0801	4.04774	9.31017
 514	1	1	0.921237	-17.6806	5.13882	8.26679
 515	1	2	0.238751	-18.0105	3.04075	8.85531
 516	1	2	0.241495	-17.3481	4.07834	10.12
 517	1	1	-0.299014	-16.7222	4.66455	7.14041
 518	1	2	-0.179791	-17.3419	6.03186	8.82467
 519	1	2	-0.17909	-18.6439	5.37507	7.82191
 520	1	2	0.080952	-17.2263	3.86459	6.56538
 521	1	2	0.084393	-16.5596	5.49816	6.42779
 522	1	9	-0.116242	-19.572	3.79413	11.2372
 523	1	5	0.075247	-20.2862	3.73333	9.23355
 524	1	5	0.07317	-19.8026	5.29464	9.96862
 525	1	1	0.304671	-21.0961	5.35526	15.844
 526	1	1	-1.24578	-20.329	5.63042	14.5045
 527	1	1	0.921237	-20.3115	4.46675	13.4882
 528	1	2	0.238751	-19.2844	5.81814	14.7729
 529	1	2	0.241495	-20.7114	6.52196	13.9973
 530	1	1	-0.299014	-19.3135	4.67321	12.3703
 531	1	2	-0.179791	-21.3249	4.38175	13.0696
 532	1	2	-0.17909	-20.0433	3.56187	14.0105
 533	1	2	0.080952	-19.3334	5.71898	12.0668
 534	1	2	0.084393	-18.3326	4.42332	12.7627
 535	1	9	-0.116242	-22.3381	4.58154	15.7515
 536	1	5	0.075247	-21.3522	6.32052	16.3207
 537	1	5	0.07317	-20.4358	4.85587	16.5891
 538	1	1	0.304671	-25.3116	7.29375	17.758
 539	1	1	-1.24578	-24.2464	6.91874	16.6817
 540	1	1	0.921237	-24.5489	5.62414	15.9381
 541	1	2	0.238751	-23.2865	6.81495	17.2149
 542	1	2	0.241495	-24.1238	7.72607	15.9504
 543	1	1	-0.299014	-23.3911	5.25581	15.0112
 544	1	2	-0.179791	-25.4117	5.78463	15.306
 545	1	2	-0.17909	-24.7571	4.81216	16.6192
 546	1	2	0.080952	-23.7256	4.60991	14.2293
 547	1	2	0.084393	-22.9904	6.14998	14.5039
 548	1	9	-0.116242	-25.0598	8.56373	18.3758
 549	1	5	0.075247	-25.3241	6.4982	18.5135
 550	1	5	0.07317	-26.2858	7.29137	17.2592
 551	1	1	0.57552	-27.8932	4.78012	29.4863
 552	1	1	-1.07208	-26.6527	5.2062	28.7065
 553	1	2	0.119263	-25.7244	4.72056	29.1228
 554	1	2	0.211544	-26.7836	4.98802	27.6706
 555	1	1	0.745843	-26.3472	6.71343	28.8596
 556	1	2	-0.177131	-27.2638	7.21638	29.147
 557	1	2	-0.142119	-25.5803	6.87096	29.6871
 558	1	1	0.080873	-25.874	7.32967	27.508
 559	1	2	0.018859	-24.9114	6.90824	27.2657
 560	1	2	-0.02655	-26.5885	7.02845	26.7274
 561	1	1	-0.221824	-25.7561	8.91879	27.5645
 562	1	2	0.031284	-26.7757	9.38651	27.6723
 563	1	2	0.013242	-25.2024	9.14628	28.483
 564	1	1	0.073218	-25.0064	9.57284	26.3383
 565	1	2	-0.024643	-24.9733	10.6345	26.5639
 566	1	2	-0.008342	-23.9718	9.22711	26.3042
 567	1	1	0.04656	-25.5692	9.41833	24.9072
 568	1	2	-0.007327	-25.6138	8.34309	24.6392
 569	1	2	0.003322	-26.5752	9.75238	24.9013
 570	1	1	-0.01926	-24.7345	10.1325	23.8587
 571	1	2	0.003715	-24.4324	11.0942	24.2615
 572	1	2	0.000131	-23.8802	9.48826	23.6543
 573	1	1	-0.031072	-25.599	10.2781	22.5913
 574	1	2	-0.002086	-26.3636	9.50253	22.5313
 575	1	2	-0.003252	-26.0857	11.2318	22.5933
 576	1	1	0.083103	-24.5777	10.184	21.4414
 577	1	2	-0.003597	-23.8977	11.0536	21.4638
 578	1	2	-0.00033	-23.959	9.27675	21.5097
 579	1	1	0.015717	-25.2291	10.1657	20.0658
 580	1	2	-0.004333	-26.0666	10.8716	20.0096
 581	1	2	-0.003064	-24.4849	10.5381	19.3583
 582	1	3	0.43523	-25.7202	8.79613	19.5713
 583	1	4	-0.39711	-27.9813	3.33168	29.1393
 584	1	5	-0.041868	-28.7861	5.31722	29.1392
 585	1	5	-0.011544	-27.8146	4.89921	30.6004
 586	1	6	0.237688	-27.7033	3.26706	28.1687
 587	1	7	-0.49758	-26.4127	7.99505	20.201
 588	1	1	0.304671	-30.7923	-0.987451	28.5663
 589	1	1	-1.24578	-30.633	0.480641	29.0555
 590	1	1	0.921237	-29.3121	1.2129	28.705
 591	1	2	0.238751	-30.7455	0.577543	30.1384
 592	1	2	0.241495	-31.4426	1.04557	28.5522
 593	1	1	-0.299014	-29.3412	2.64765	29.3249
 594	1	2	-0.179791	-29.3501	1.25859	27.6055
 595	1	2	-0.17909	-28.4498	0.678508	29.1229
 596	1	2	0.080952	-30.0951	3.21732	28.7457
 597	1	2	0.084393	-29.547	2.65334	30.4264
 598	1	9	-0.116242	-29.5942	-1.73894	28.735
 599	1	5	0.075247	-31.1057	-0.967584	27.5301
 600	1	5	0.07317	-31.6081	-1.46987	29.0899
 601	1	1	0.57552	-18.6059	-8.6425	29.3087
 602	1	1	-1.07208	-19.4745	-9.36625	28.2432
 603	1	2	0.119263	-19.0695	-9.15947	27.2363
 604	1	2	0.211544	-19.5008	-10.4398	28.3398
 605	1	1	0.745843	-20.904	-8.76643	28.3426
 606	1	2	-0.177131	-20.799	-7.71125	28.6253
 607	1	2	-0.142119	-21.3784	-8.79612	27.3642
 608	1	1	0.080873	-21.8371	-9.51633	29.3643
 609	1	2	0.018859	-22.2814	-10.3864	28.8609
 610	1	2	-0.02655	-21.2973	-9.9726	30.2073
 611	1	1	-0.221824	-22.9377	-8.63965	30.0118
 612	1	2	0.031284	-23.6418	-9.29821	30.5296
 613	1	2	0.013242	-22.5012	-7.92538	30.7343
 614	1	1	0.073218	-23.8376	-7.81462	28.9797
 615	1	2	-0.024643	-23.2744	-6.96476	28.5481
 616	1	2	-0.008342	-24.0183	-8.51091	28.1536
 617	1	1	0.04656	-25.1719	-7.26231	29.586
 618	1	2	-0.007327	-25.8427	-8.13641	29.8068
 619	1	2	0.003322	-25.0295	-6.7501	30.5661
 620	1	1	-0.01926	-25.9863	-6.31743	28.6022
 621	1	2	0.003715	-25.5429	-5.28927	28.612
 622	1	2	0.000131	-25.9089	-6.76733	27.5885
 623	1	1	-0.031072	-27.5535	-6.22112	28.8498
 624	1	2	-0.002086	-27.9925	-7.15523	28.5016
 625	1	2	-0.003252	-27.741	-6.20413	29.9313
 626	1	1	0.083103	-28.2781	-5.03435	28.1885
 627	1	2	-0.003597	-27.6097	-4.54496	27.4868
 628	1	2	-0.00033	-29.1269	-5.49191	27.6362
 629	1	1	0.015717	-28.8183	-3.93049	29.0638
 630	1	2	-0.004333	-29.3449	-4.3453	29.9096
 631	1	2	-0.003064	-27.9539	-3.37011	29.4528
 632	1	3	0.43523	-29.7695	-3.02655	28.3004
 633	1	4	-0.39711	-19.0196	-9.14949	30.6569
 634	1	5	-0.041868	-18.7916	-7.54353	29.2971
 635	1	5	-0.011544	-17.5298	-8.89158	29.1813
 636	1	6	0.237688	-18.8036	-10.1351	30.5533
 637	1	7	-0.49758	-30.581	-3.39428	27.4286
 638	1	1	0.304671	-19.9607	-11.3924	34.3842
 639	1	1	-1.24578	-19.2178	-10.77	33.1533
 640	1	1	0.921237	-18.9788	-9.22743	33.2056
 641	1	2	0.238751	-19.9524	-10.8859	32.3108
 642	1	2	0.241495	-18.3398	-11.3856	32.8824
 643	1	1	-0.299014	-18.3516	-8.68933	31.8804
 644	1	2	-0.179791	-18.2967	-9.06467	34.0467