pySIMM System Object

676 atoms
675 bonds
1308 angles
1848 dihedrals
0 impropers

10 atom types
12 bond types
28 angle types
12 dihedral types
1 improper types

-104.683078 104.683078 xlo xhi
-104.683078 104.683078 ylo yhi
-104.683078 104.683078 zlo zhi

Masses

   1	12.01	# c3
   2	1.008	# hc
   3	12.01	# c
   4	14.01	# n3
   5	1.008	# h1
   6	1.008	# hn
   7	16.0	# o
   8	1.008	# h4
   9	16.0	# oh
  10	1.008	# ho

Pair Coeffs

   1	0.1094	3.3996695084235347	# c3
   2	0.0157	2.649532787749369	# hc
   3	0.086	3.3996695084235347	# c
   4	0.17	3.249998523775958	# n3
   5	0.0157	2.471353044121301	# h1
   6	0.0157	1.069078461768407	# hn
   7	0.21	2.959921901149463	# o
   8	0.015	2.5105525877194763	# h4
   9	0.2104	3.0664733878390478	# oh
  10	0.0047	0.5379246460131368	# ho

Bond Coeffs

   1	300.9	1.5375	# c3,c3
   2	330.6	1.0969	# c3,hc
   3	392.4	1.019	# hn,n3
   4	637.7	1.2183	# c,o
   5	330.6	1.0969	# c3,h1
   6	313.0	1.5241	# c,c3
   7	325.9	1.4647	# c3,n3
   8	310.7	1.1121	# c,h4
   9	325.9	1.465	# n3,c
  10	371.4	0.973	# ho,oh
  11	316.7	1.4233	# c3,oh
  12	400.1	1.3513	# c,oh

Angle Coeffs

   1	46.39	109.56	# c3,c3,h1
   2	39.4	107.58	# hc,c3,hc
   3	45.64	114.64	# c3,c,h4
   4	41.4	106.4	# hn,n3,hn
   5	39.24	108.46	# h1,c3,h1
   6	49.53	109.88	# h1,c3,n3
   7	46.93	108.77	# c,c3,hc
   8	66.02	111.04	# c3,c3,n3
   9	62.86	111.51	# c3,c3,c3
  10	67.4	123.2	# c3,c,o
  11	54.22	120.7	# h4,c,o
  12	63.27	111.04	# c,c3,c3
  13	46.34	109.8	# c3,c3,hc
  14	47.42	109.29	# c3,n3,hn
  15	63.8	112.35	# c3,n3,c
  16	47.4	109.29	# hn,n3,c
  17	66.0	111.04	# n3,c,c3
  18	70.9	110.7	# n3,c,o
  19	47.38	107.26	# c3,oh,ho
  20	67.47	110.19	# c3,c3,oh
  21	50.93	110.26	# h1,c3,oh
  22	63.82	112.35	# c3,n3,c3
  23	49.55	109.8	# hc,c3,n3
  24	62.7	112.48	# c3,oh,c3
  25	51.11	109.5	# hc,c3,oh
  26	67.9	109.98	# c3,oh,c
  27	68.4	112.73	# c3,c,oh
  28	75.92	122.1	# o,c,oh

Dihedral Coeffs

   1	1	0.16	3	0	# hc,c3,c3,c3
   2	1	0.3	3	0	# X,c3,n3,X
   3	1	0.15555555555555556	3	0	# X,c3,c3,X
   4	3	0.18	3	0	0.25	2	180	0.2	1	180	# c3,c3,c3,c3
   5	1	0.0	2	180	# X,c,c3,X
   6	1	0.15	3	0	# hc,c3,c3,hc
   7	3	0.8	1	0	0.0	2	0	0.08	3	180	# hc,c3,c,o
   8	2	0.16	3	0	0.25	1	0	# ho,oh,c3,c3
   9	1	0.16666666666666666	3	0	# X,c3,oh,X
  10	2	0.0	3	0	0.25	1	0	# hc,c3,c3,oh
  11	2	0.3	3	0	0.48	2	180	# c3,c3,n3,c3
  12	1	2.3	2	180	# X,c,oh,X

Improper Coeffs

   1	10.5	-1	2	# c,X,X,o

Atoms

   1	1	1	0.57552	-48.2828	-13.172	12.3066
   2	1	1	-1.07208	-49.0262	-12.1169	11.4986
   3	1	2	0.119263	-48.3746	-11.7882	10.6773
   4	1	2	0.211544	-49.8991	-12.5671	11.0218
   5	1	1	0.745843	-49.4786	-10.8677	12.2939
   6	1	2	-0.177131	-48.5999	-10.4068	12.769
   7	1	2	-0.142119	-49.838	-10.1473	11.5459
   8	1	1	0.080873	-50.6186	-11.1145	13.3452
   9	1	2	0.018859	-51.4689	-11.5964	12.8456
  10	1	2	-0.02655	-50.2817	-11.8098	14.135
  11	1	1	-0.221824	-51.1107	-9.78624	14.0031
  12	1	2	0.031284	-50.3247	-9.4134	14.6664
  13	1	2	0.013242	-51.2384	-9.01162	13.2377
  14	1	1	0.073218	-52.4246	-9.93485	14.7586
  15	1	2	-0.024643	-53.2235	-10.1353	14.0274
  16	1	2	-0.008342	-52.3971	-10.7868	15.4545
  17	1	1	0.04656	-52.7077	-8.62536	15.4807
  18	1	2	-0.007327	-51.8668	-8.33852	16.1261
  19	1	2	0.003322	-52.8258	-7.82647	14.7305
  20	1	1	-0.01926	-53.9612	-8.78353	16.3253
  21	1	2	0.003715	-54.7421	-9.28699	15.7444
  22	1	2	0.000131	-53.7656	-9.39223	17.2181
  23	1	1	-0.031072	-54.4252	-7.38632	16.6591
  24	1	2	-0.002086	-53.6199	-6.79826	17.1081
  25	1	2	-0.003252	-54.7424	-6.88372	15.7363
  26	1	1	0.083103	-55.5896	-7.52628	17.6054
  27	1	2	-0.003597	-56.3448	-8.20591	17.1842
  28	1	2	-0.00033	-55.2268	-7.95574	18.5463
  29	1	1	0.015717	-56.2421	-6.17478	17.8804
  30	1	2	-0.004333	-55.5261	-5.46541	18.3197
  31	1	2	-0.003064	-56.5842	-5.74932	16.9372
  32	1	3	0.43523	-57.4504	-6.30724	18.8071
  33	1	4	-0.39711	-47.0031	-12.6477	12.7371
  34	1	5	-0.041868	-48.1369	-14.0598	11.6784
  35	1	5	-0.011544	-48.8811	-13.4608	13.1766
  36	1	6	0.237688	-47.153	-11.6872	13.0235
  37	1	7	-0.49758	-57.8785	-7.35583	19.2452
  38	1	1	0.57552	-36.2051	-20.8149	8.33185
  39	1	1	-1.07208	-37.0303	-19.5352	8.1413
  40	1	2	0.119263	-36.4695	-18.6629	8.47673
  41	1	2	0.211544	-37.2643	-19.4103	7.0723
  42	1	1	0.745843	-38.3862	-19.5969	8.89363
  43	1	2	-0.177131	-38.986	-20.3856	8.44479
  44	1	2	-0.142119	-38.1625	-19.9404	9.91236
  45	1	1	0.080873	-39.2193	-18.2661	8.99202
  46	1	2	0.018859	-39.9572	-18.4129	9.79159
  47	1	2	-0.02655	-38.556	-17.4374	9.30496
  48	1	1	-0.221824	-39.956	-17.8127	7.69731
  49	1	2	0.031284	-39.2177	-17.7273	6.90277
  50	1	2	0.013242	-40.6345	-18.6172	7.39337
  51	1	1	0.073218	-40.7404	-16.4637	7.82531
  52	1	2	-0.024643	-40.0285	-15.6318	7.87226
  53	1	2	-0.008342	-41.3146	-16.3009	6.90285
  54	1	1	0.04656	-41.6948	-16.3589	9.02822
  55	1	2	-0.007327	-42.4033	-17.1954	8.98984
  56	1	2	0.003322	-41.1211	-16.4591	9.96119
  57	1	1	-0.01926	-42.4621	-15.0393	9.12607
  58	1	2	0.003715	-41.7693	-14.2293	9.40017
  59	1	2	0.000131	-42.9309	-14.7625	8.16909
  60	1	1	-0.031072	-43.5441	-15.1931	10.2068
  61	1	2	-0.002086	-44.2818	-15.9379	9.87817
  62	1	2	-0.003252	-43.1235	-15.5785	11.1331
  63	1	1	0.083103	-44.2378	-13.8523	10.4387
  64	1	2	-0.003597	-43.499	-13.082	10.6857
  65	1	2	-0.00033	-44.7267	-13.5361	9.50679
  66	1	1	0.015717	-45.3001	-13.906	11.5565
  67	1	2	-0.004333	-46.0211	-14.7138	11.3874
  68	1	2	-0.003064	-44.8127	-14.1306	12.5153
  69	1	3	0.43523	-46.0637	-12.5866	11.6448
  70	1	4	-0.39711	-35.0519	-20.7738	7.44032
  71	1	5	-0.041868	-36.8286	-21.6832	8.1251
  72	1	5	-0.011544	-35.8579	-20.8772	9.36372
  73	1	6	0.237688	-34.5883	-19.8945	7.64055
  74	1	7	-0.49758	-45.5571	-11.4869	11.7342
  75	1	1	0.57552	-26.2763	-32.1051	4.5138
  76	1	1	-1.07208	-26.5698	-31.1336	5.65181
  77	1	2	0.119263	-27.0426	-31.668	6.47089
  78	1	2	0.211544	-25.6214	-30.6925	6.0211
  79	1	1	0.745843	-27.4932	-30.0361	5.12362
  80	1	2	-0.177131	-26.9575	-29.4633	4.35654
  81	1	2	-0.142119	-28.3396	-30.526	4.62282
  82	1	1	0.080873	-28.0471	-29.0807	6.21675
  83	1	2	0.018859	-28.5004	-29.6942	7.01442
  84	1	2	-0.02655	-27.2328	-28.5209	6.67743
  85	1	1	-0.221824	-29.1148	-28.0891	5.68978
  86	1	2	0.031284	-28.6773	-27.468	4.89531
  87	1	2	0.013242	-29.9512	-28.6389	5.24381
  88	1	1	0.073218	-29.6781	-27.1971	6.80523
  89	1	2	-0.024643	-30.175	-27.8379	7.54067
  90	1	2	-0.008342	-28.8525	-26.6634	7.31094
  91	1	1	0.04656	-30.6924	-26.1471	6.29841
  92	1	2	-0.007327	-30.2106	-25.465	5.59687
  93	1	2	0.003322	-31.4865	-26.6729	5.75371
  94	1	1	-0.01926	-31.3267	-25.3453	7.4541
  95	1	2	0.003715	-31.6612	-26.0606	8.21829
  96	1	2	0.000131	-30.6031	-24.6822	7.93384
  97	1	1	-0.031072	-32.5279	-24.498	6.95015
  98	1	2	-0.002086	-32.147	-23.5526	6.54733
  99	1	2	-0.003252	-33.0552	-25.0126	6.14151
 100	1	1	0.083103	-33.5277	-24.282	8.13911
 101	1	2	-0.003597	-33.9879	-25.2467	8.41492
 102	1	2	-0.00033	-32.956	-23.9679	9.0283
 103	1	1	0.015717	-34.6356	-23.236	7.8803
 104	1	2	-0.004333	-35.1867	-23.4986	6.9462
 105	1	2	-0.003064	-35.3303	-23.2702	8.73877
 106	1	3	0.43523	-34.0739	-21.8061	7.75234
 107	1	4	-0.39711	-25.3243	-33.026	5.09791
 108	1	5	-0.041868	-25.8293	-31.5498	3.66823
 109	1	5	-0.011544	-27.1948	-32.6065	4.17746
 110	1	6	0.237688	-24.4077	-32.5984	5.04168
 111	1	7	-0.49758	-33.134	-21.3069	8.36626
 112	1	1	0.57552	-18.5193	-35.5689	14.4273
 113	1	1	-1.07208	-18.9474	-36.6619	13.4266
 114	1	2	0.119263	-18.2097	-36.7699	12.6171
 115	1	2	0.211544	-19.0538	-37.6272	13.9459
 116	1	1	0.745843	-20.334	-36.2599	12.8632
 117	1	2	-0.177131	-21.0493	-36.2197	13.6811
 118	1	2	-0.142119	-20.2543	-35.2629	12.443
 119	1	1	0.080873	-20.8345	-37.2478	11.7474
 120	1	2	0.018859	-19.9972	-37.4856	11.0956
 121	1	2	-0.02655	-21.1609	-38.1883	12.1975
 122	1	1	-0.221824	-21.9951	-36.6787	10.8841
 123	1	2	0.031284	-22.8405	-36.4423	11.5349
 124	1	2	0.013242	-21.6866	-35.7373	10.4115
 125	1	1	0.073218	-22.4806	-37.6568	9.8301
 126	1	2	-0.024643	-21.6308	-38.0975	9.28175
 127	1	2	-0.008342	-23.0275	-38.4855	10.3009
 128	1	1	0.04656	-23.3512	-36.8911	8.82022
 129	1	2	-0.007327	-24.0996	-36.273	9.34347
 130	1	2	0.003322	-22.7156	-36.2308	8.21347
 131	1	1	-0.01926	-24.0824	-37.9152	7.94062
 132	1	2	0.003715	-23.3797	-38.4854	7.31878
 133	1	2	0.000131	-24.6027	-38.6562	8.56392
 134	1	1	-0.031072	-25.1619	-37.2587	7.07729
 135	1	2	-0.002086	-25.6938	-38.0617	6.57533
 136	1	2	-0.003252	-25.8918	-36.7644	7.72622
 137	1	1	0.083103	-24.6395	-36.2887	6.0017
 138	1	2	-0.003597	-23.8783	-35.6291	6.41258
 139	1	2	-0.00033	-24.1763	-36.8545	5.1893
 140	1	1	0.015717	-25.7691	-35.4346	5.41765
 141	1	2	-0.004333	-26.4523	-36.0894	4.87075
 142	1	2	-0.003064	-26.3395	-34.9761	6.2322
 143	1	3	0.43523	-25.2735	-34.3266	4.45406
 144	1	4	-0.39711	-17.1636	-35.8606	14.7745
 145	1	5	-0.041868	-19.1463	-35.5896	15.323
 146	1	5	-0.011544	-18.5835	-34.5633	13.9806
 147	1	6	0.237688	-17.1055	-36.8288	15.0801
 148	1	7	-0.49758	-24.2179	-34.3933	3.83433
 149	1	1	0.57552	-7.36023	-36.4048	23.101
 150	1	1	-1.07208	-7.50421	-34.9982	22.5324
 151	1	2	0.119263	-7.95323	-34.3678	23.2974
 152	1	2	0.211544	-6.54817	-34.576	22.2455
 153	1	1	0.745843	-8.38916	-34.9141	21.2755
 154	1	2	-0.177131	-8.4929	-33.8385	21.0626
 155	1	2	-0.142119	-7.82144	-35.3827	20.4665
 156	1	1	0.080873	-9.83381	-35.5251	21.3353
 157	1	2	0.018859	-9.79574	-36.6081	21.5325
 158	1	2	-0.02655	-10.3508	-35.0865	22.1961
 159	1	1	-0.221824	-10.6529	-35.239	20.0184
 160	1	2	0.031284	-11.7094	-35.4115	20.2328
 161	1	2	0.013242	-10.5836	-34.1702	19.7847
 162	1	1	0.073218	-10.3068	-36.0637	18.7353
 163	1	2	-0.024643	-9.35048	-35.7206	18.3306
 164	1	2	-0.008342	-10.1848	-37.1254	19.0053
 165	1	1	0.04656	-11.4579	-35.9303	17.6657
 166	1	2	-0.007327	-11.2345	-36.5697	16.8181
 167	1	2	0.003322	-12.3889	-36.3193	18.0818
 168	1	1	-0.01926	-11.7054	-34.4548	17.1828
 169	1	2	0.003715	-12.0133	-33.8229	18.0257
 170	1	2	0.000131	-10.7628	-34.0076	16.8053
 171	1	1	-0.031072	-12.7719	-34.3863	16.051
 172	1	2	-0.002086	-12.7335	-33.3797	15.6115
 173	1	2	-0.003252	-12.4436	-35.0826	15.2687
 174	1	1	0.083103	-14.2366	-34.6851	16.4531
 175	1	2	-0.003597	-14.3034	-35.7047	16.8557
 176	1	2	-0.00033	-14.5515	-33.9792	17.2306
 177	1	1	0.015717	-15.2578	-34.5671	15.3175
 178	1	2	-0.004333	-15.3459	-33.5487	14.9361
 179	1	2	-0.003064	-14.9198	-35.1965	14.4896
 180	1	3	0.43523	-16.6261	-35.0105	15.8101
 181	1	4	-0.39711	-6.23483	-36.1795	24.002
 182	1	5	-0.041868	-7.11012	-37.1186	22.3115
 183	1	5	-0.011544	-8.2813	-36.7056	23.6219
 184	1	6	0.237688	-5.50697	-35.7826	23.4192
 185	1	7	-0.49758	-16.8635	-35.4937	16.9005
 186	1	1	0.304671	-3.77432	-38.709	21.5261
 187	1	1	-1.24578	-4.13334	-37.6682	22.6248
 188	1	1	0.921237	-5.00677	-38.3058	23.7485
 189	1	2	0.238751	-4.72664	-36.9003	22.1179
 190	1	2	0.241495	-3.24175	-37.1879	23.0439
 191	1	1	-0.299014	-5.59217	-37.303	24.7219
 192	1	2	-0.179791	-4.45005	-39.0482	24.3115
 193	1	2	-0.17909	-5.8291	-38.8354	23.2517
 194	1	2	0.080952	-6.27054	-37.8521	25.3967
 195	1	2	0.084393	-4.76241	-36.9266	25.343
 196	1	9	-0.116242	-3.06276	-38.0368	20.4665
 197	1	5	0.075247	-4.71324	-39.1323	21.1362
 198	1	5	0.07317	-3.18917	-39.5377	21.9218
 199	1	1	0.304671	-5.51296	-39.3224	16.2215
 200	1	1	-1.24578	-4.2342	-39.1262	17.0496
 201	1	1	0.921237	-4.4543	-38.5123	18.432
 202	1	2	0.238751	-3.52791	-38.5229	16.4664
 203	1	2	0.241495	-3.76077	-40.093	17.1953
 204	1	1	-0.299014	-3.06885	-38.41	19.0837
 205	1	2	-0.179791	-5.10184	-39.1699	19.0059
 206	1	2	-0.17909	-4.93209	-37.5501	18.3188
 207	1	2	0.080952	-2.53549	-39.3579	18.9697
 208	1	2	0.084393	-2.46765	-37.6794	18.532
 209	1	9	-0.116242	-5.92431	-38.0492	15.724
 210	1	5	0.075247	-6.2714	-39.839	16.8314
 211	1	5	0.07317	-5.26862	-39.9647	15.365
 212	1	1	0.57552	-6.05488	-26.4498	18.8551
 213	1	1	-1.07208	-6.33195	-27.9793	18.9061
 214	1	2	0.119263	-7.40358	-28.1286	18.9554
 215	1	2	0.211544	-5.93052	-28.4384	17.9959
 216	1	1	0.745843	-5.62671	-28.6274	20.1499
 217	1	2	-0.177131	-4.55077	-28.7779	19.9686
 218	1	2	-0.142119	-5.72316	-27.8512	20.918
 219	1	1	0.080873	-6.2437	-29.8629	20.8473
 220	1	2	0.018859	-5.75867	-29.8995	21.8295
 221	1	2	-0.02655	-7.28786	-29.6992	21.0817
 222	1	1	-0.221824	-6.02974	-31.257	20.1915
 223	1	2	0.031284	-4.95199	-31.4731	20.1037
 224	1	2	0.013242	-6.40371	-32.006	20.8897
 225	1	1	0.073218	-6.67257	-31.442	18.8032
 226	1	2	-0.024643	-7.7368	-31.2094	18.8615
 227	1	2	-0.008342	-6.25634	-30.722	18.0735
 228	1	1	0.04656	-6.43372	-32.8711	18.2318
 229	1	2	-0.007327	-5.40399	-32.952	17.8647
 230	1	2	0.003322	-6.48144	-33.6363	19.0362
 231	1	1	-0.01926	-7.3837	-33.3109	17.0984
 232	1	2	0.003715	-8.34973	-33.5162	17.5658
 233	1	2	0.000131	-7.55471	-32.5359	16.3413
 234	1	1	-0.031072	-6.85118	-34.6105	16.415
 235	1	2	-0.002086	-5.95377	-34.4179	15.8063
 236	1	2	-0.003252	-6.54104	-35.3078	17.2131
 237	1	1	0.083103	-7.98291	-35.2553	15.5546
 238	1	2	-0.003597	-8.86715	-35.4349	16.1716
 239	1	2	-0.00033	-8.35118	-34.5518	14.8038
 240	1	1	0.015717	-7.58067	-36.578	14.8376
 241	1	2	-0.004333	-8.3695	-36.817	14.113
 242	1	2	-0.003064	-6.70818	-36.3626	14.2205
 243	1	3	0.43523	-7.25497	-37.7846	15.7188
 244	1	4	-0.39711	-6.76925	-25.7957	17.7374
 245	1	5	-0.041868	-4.9934	-26.2098	18.8477
 246	1	5	-0.011544	-6.45596	-26.0573	19.7886
 247	1	6	0.237688	-7.74172	-26.0774	17.8642
 248	1	7	-0.49758	-8.06169	-38.359	16.4227
 249	1	1	0.304671	-4.3547	-21.5456	18.1687
 250	1	1	-1.24578	-5.72199	-22.1399	17.8026
 251	1	1	0.921237	-5.48289	-23.5841	17.9778
 252	1	2	0.238751	-6.01288	-21.9452	16.753
 253	1	2	0.241495	-6.49502	-21.7857	18.4978
 254	1	1	-0.299014	-6.77772	-24.3181	17.6769
 255	1	2	-0.179791	-5.1433	-23.7388	19.0064
 256	1	2	-0.17909	-4.69711	-23.8852	17.2837
 257	1	2	0.080952	-7.51233	-23.9559	18.4171
 258	1	2	0.084393	-7.14712	-24.0164	16.6918
 259	1	9	-0.116242	-4.01589	-20.5344	17.241
 260	1	5	0.075247	-3.5608	-22.3181	18.1816
 261	1	5	0.07317	-4.38038	-21.102	19.1745
 262	1	1	0.304671	-1.13548	-17.7733	15.889
 263	1	1	-1.24578	-2.16826	-17.9762	17.0549
 264	1	1	0.921237	-1.8935	-19.3088	17.6989
 265	1	2	0.238751	-3.22703	-17.9516	16.7422
 266	1	2	0.241495	-2.04877	-17.2132	17.8088
 267	1	1	-0.299014	-2.60226	-20.4436	16.9879
 268	1	2	-0.179791	-2.18508	-19.2296	18.7445
 269	1	2	-0.17909	-0.832425	-19.4645	17.6672
 270	1	2	0.080952	-2.53099	-20.206	15.9088
 271	1	2	0.084393	-2.09053	-21.397	17.077
 272	1	9	-0.116242	-1.28311	-16.5528	15.182
 273	1	5	0.075247	-1.18939	-18.5702	15.1438
 274	1	5	0.07317	-0.146129	-17.8171	16.3553
 275	1	1	0.57552	10.6809	-11.8198	11.2837
 276	1	1	-1.07208	9.39835	-11.2043	10.7616
 277	1	2	0.119263	9.24156	-10.2175	11.1463
 278	1	2	0.211544	9.58925	-11.1137	9.68596
 279	1	1	0.745843	8.16107	-12.0563	11.1098
 280	1	2	-0.177131	8.4498	-13.11	10.9953
 281	1	2	-0.142119	7.87748	-11.8653	12.1507
 282	1	1	0.080873	7.01193	-11.6825	10.151
 283	1	2	0.018859	6.89587	-10.5919	10.2517
 284	1	2	-0.02655	7.38119	-11.7865	9.12015
 285	1	1	-0.221824	5.61911	-12.3752	10.2377
 286	1	2	0.031284	5.0047	-12.1316	9.37354
 287	1	2	0.013242	5.74491	-13.463	10.1531
 288	1	1	0.073218	4.8947	-12.0189	11.5871
 289	1	2	-0.024643	5.36144	-12.6266	12.3773
 290	1	2	-0.008342	4.99198	-10.9774	11.8848
 291	1	1	0.04656	3.4055	-12.4043	11.6494
 292	1	2	-0.007327	2.80695	-11.7396	11.0016
 293	1	2	0.003322	3.26356	-13.452	11.3176
 294	1	1	-0.01926	2.96822	-12.2367	13.1098
 295	1	2	0.003715	3.57492	-12.8042	13.814
 296	1	2	0.000131	3.09076	-11.1957	13.4058
 297	1	1	-0.031072	1.49705	-12.6919	13.176
 298	1	2	-0.002086	1.05893	-12.1045	14.0048
 299	1	2	-0.003252	0.895942	-12.3717	12.2985
 300	1	1	0.083103	1.30393	-14.2168	13.5013
 301	1	2	-0.003597	1.46107	-14.7999	12.5789
 302	1	2	-0.00033	2.11055	-14.5257	14.1566
 303	1	1	0.015717	-0.0744534	-14.6554	14.0963
 304	1	2	-0.004333	-0.21466	-14.1835	15.0596
 305	1	2	-0.003064	-0.890356	-14.3834	13.398
 306	1	3	0.43523	-0.206938	-16.1766	14.4026
 307	1	4	-0.39711	11.812	-10.9735	10.934
 308	1	5	-0.041868	10.8089	-12.7673	10.7427
 309	1	5	-0.011544	10.6403	-11.9716	12.3667
 310	1	6	0.237688	11.736	-10.7264	9.94571
 311	1	7	-0.49758	0.626382	-16.9541	13.9706
 312	1	1	0.304671	13.5363	-9.01838	14.4459
 313	1	1	-1.24578	13.5437	-8.22421	13.0957
 314	1	1	0.921237	13.2978	-9.0631	11.8495
 315	1	2	0.238751	14.4695	-7.65623	12.9328
 316	1	2	0.241495	12.7377	-7.46597	13.1407
 317	1	1	-0.299014	11.9255	-9.84548	11.8489
 318	1	2	-0.179791	14.1504	-9.74037	11.8032
 319	1	2	-0.17909	13.3263	-8.44003	10.9313
 320	1	2	0.080952	11.7791	-10.2849	12.8663
 321	1	2	0.084393	11.0893	-9.16773	11.7107
 322	1	9	-0.116242	12.7108	-8.26968	15.3532
 323	1	5	0.075247	14.5156	-9.11605	14.9597
 324	1	5	0.07317	13.1707	-10.0554	14.336
 325	1	1	0.304671	10.2128	-6.70789	18.8067
 326	1	1	-1.24578	11.1954	-7.55594	17.9803
 327	1	1	0.921237	10.5914	-8.02468	16.6765
 328	1	2	0.238751	11.506	-8.43097	18.5732
 329	1	2	0.241495	12.0828	-6.96673	17.7438
 330	1	1	-0.299014	11.5692	-8.96466	15.9347
 331	1	2	-0.179791	10.3789	-7.13858	16.0459
 332	1	2	-0.17909	9.6241	-8.49735	16.8469
 333	1	2	0.080952	11.8999	-9.70632	16.636
 334	1	2	0.084393	11.0227	-9.48944	15.1784
 335	1	9	-0.116242	10.0789	-5.34344	18.3719
 336	1	5	0.075247	10.5461	-6.67148	19.8581
 337	1	5	0.07317	9.2275	-7.2453	18.8027
 338	1	1	0.304671	5.56185	-6.7459	18.5969
 339	1	1	-1.24578	6.70768	-6.24649	17.704
 340	1	1	0.921237	7.56811	-5.33701	18.5915
 341	1	2	0.238751	6.43628	-5.72674	16.7686
 342	1	2	0.241495	7.34838	-7.08548	17.4393
 343	1	1	-0.299014	8.84189	-4.95044	17.7348
 344	1	2	-0.179791	7.84485	-5.95459	19.451
 345	1	2	-0.17909	7.00335	-4.50209	18.9943
 346	1	2	0.080952	8.7962	-5.40482	16.7202
 347	1	2	0.084393	8.82169	-3.84573	17.5912
 348	1	9	-0.116242	4.78576	-7.65096	17.8331
 349	1	5	0.075247	4.91199	-5.88916	18.8472
 350	1	5	0.07317	5.90744	-7.26843	19.5232
 351	1	1	0.304671	5.39754	-8.00195	14.6944
 352	1	1	-1.24578	5.61992	-9.4827	15.1222
 353	1	1	0.921237	4.87738	-9.78968	16.4178
 354	1	2	0.238751	6.69353	-9.73555	15.2314
 355	1	2	0.241495	5.17289	-10.1926	14.4296
 356	1	1	-0.299014	5.29367	-9.02468	17.6795
 357	1	2	-0.179791	3.82183	-9.57609	16.2486
 358	1	2	-0.17909	4.94475	-10.8758	16.6076
 359	1	2	0.080952	4.90576	-9.59716	18.5297
 360	1	2	0.084393	6.37397	-9.04606	17.7542
 361	1	9	-0.116242	5.87258	-7.86032	13.3648
 362	1	5	0.075247	5.92199	-7.32929	15.385
 363	1	5	0.07317	4.34957	-7.67874	14.6923
 364	1	1	0.304671	9.73275	-5.39145	12.7829
 365	1	1	-1.24578	9.4577	-6.94447	12.9845
 366	1	1	0.921237	8.25822	-7.40621	13.8455
 367	1	2	0.238751	10.3083	-7.44625	13.3961
 368	1	2	0.241495	9.19601	-7.3232	11.9924
 369	1	1	-0.299014	6.93466	-6.92939	13.2218
 370	1	2	-0.179791	8.4121	-7.00401	14.867
 371	1	2	-0.17909	8.27394	-8.48689	13.764
 372	1	2	0.080952	6.61951	-5.98696	13.7531
 373	1	2	0.084393	7.00867	-6.7236	12.1647
 374	1	9	-0.116242	11.0632	-5.12773	13.2782
 375	1	5	0.075247	8.89829	-4.82991	13.3234
 376	1	5	0.07317	9.6581	-5.13826	11.6996
 377	1	1	0.57552	14.775	1.9806	3.23183
 378	1	1	-1.07208	13.5122	2.04289	4.03942
 379	1	2	0.119263	13.6822	2.81558	4.84423
 380	1	2	0.211544	12.7248	2.28295	3.2955
 381	1	1	0.745843	13.3958	0.635234	4.56373
 382	1	2	-0.177131	12.6667	0.0904466	3.92156
 383	1	2	-0.142119	14.2653	0.00108651	4.49834
 384	1	1	0.080873	13.0123	0.639422	6.07074
 385	1	2	0.018859	13.1363	1.66126	6.5224
 386	1	2	-0.02655	11.8848	0.508909	6.16514
 387	1	1	-0.221824	13.8544	-0.432273	6.7944
 388	1	2	0.031284	13.6564	-1.43799	6.4467
 389	1	2	0.013242	14.9203	-0.338937	6.4767
 390	1	1	0.073218	13.6732	-0.379793	8.29787
 391	1	2	-0.024643	13.6597	0.644591	8.70394
 392	1	2	-0.008342	12.7001	-0.825534	8.57491
 393	1	1	0.04656	14.8095	-1.22729	8.84991
 394	1	2	-0.007327	14.7451	-2.28242	8.50334
 395	1	2	0.003322	15.7203	-0.790144	8.44684
 396	1	1	-0.01926	14.7953	-1.31017	10.3544
 397	1	2	0.003715	15.7024	-1.83583	10.6551
 398	1	2	0.000131	14.8732	-0.287154	10.7812
 399	1	1	-0.031072	13.617	-2.08643	10.8977
 400	1	2	-0.002086	12.6606	-1.66855	10.5906
 401	1	2	-0.003252	13.6757	-3.08197	10.453
 402	1	1	0.083103	13.5269	-2.17171	12.4655
 403	1	2	-0.003597	14.5081	-1.94058	12.9154
 404	1	2	-0.00033	12.9122	-1.36663	12.9003
 405	1	1	0.015717	13.0464	-3.62378	12.9181
 406	1	2	-0.004333	13.4963	-4.36316	12.2277
 407	1	2	-0.003064	13.5666	-3.79536	13.8523
 408	1	3	0.43523	11.5239	-3.85197	13.0322
 409	1	4	-0.39711	14.7732	3.16541	2.41824
 410	1	5	-0.041868	14.6873	1.08697	2.62108
 411	1	5	-0.011544	15.6222	1.8539	3.86385
 412	1	6	0.237688	14.4044	3.91901	2.98517
 413	1	7	-0.49758	10.7362	-2.98708	12.593
 414	1	1	0.57552	25.7282	6.8386	-6.19623
 415	1	1	-1.07208	24.8522	5.87509	-5.43778
 416	1	2	0.119263	24.6553	4.88335	-5.87515
 417	1	2	0.211544	25.3387	5.51446	-4.52766
 418	1	1	0.745843	23.5196	6.47727	-4.93597
 419	1	2	-0.177131	23.7203	7.52098	-4.65093
 420	1	2	-0.142119	22.9557	6.57487	-5.85303
 421	1	1	0.080873	22.5968	5.65937	-3.97486
 422	1	2	0.018859	22.7352	4.62781	-4.24883
 423	1	2	-0.02655	22.913	5.73047	-2.96565
 424	1	1	-0.221824	21.1175	6.10487	-4.02975
 425	1	2	0.031284	21.0453	7.12422	-3.62875
 426	1	2	0.013242	20.8142	6.16645	-5.06389
 427	1	1	0.073218	20.2497	5.08145	-3.27396
 428	1	2	-0.024643	20.3359	4.03415	-3.69769
 429	1	2	-0.008342	20.4468	5.08182	-2.19602
 430	1	1	0.04656	18.761	5.53164	-3.44034
 431	1	2	-0.007327	18.7051	6.59995	-3.15374
 432	1	2	0.003322	18.328	5.49233	-4.44717
 433	1	1	-0.01926	17.838	4.74774	-2.43514
 434	1	2	0.003715	16.867	4.65554	-2.91784
 435	1	2	0.000131	18.1668	3.72025	-2.21181
 436	1	1	-0.031072	17.7459	5.49513	-1.0639
 437	1	2	-0.002086	18.715	5.98654	-0.826421
 438	1	2	-0.003252	16.9821	6.32856	-1.05935
 439	1	1	0.083103	17.5794	4.48631	0.117981
 440	1	2	-0.003597	17.98	3.4542	-0.0850749
 441	1	2	-0.00033	18.2442	4.79501	0.94857
 442	1	1	0.015717	16.1554	4.27128	0.632693
 443	1	2	-0.004333	15.6677	5.27933	0.891141
 444	1	2	-0.003064	15.4833	3.81384	-0.0621038
 445	1	3	0.43523	16.1342	3.49187	1.92258
 446	1	4	-0.39711	26.9799	6.169	-6.65653
 447	1	5	-0.041868	26.0311	7.59174	-5.40208
 448	1	5	-0.011544	25.2424	7.42776	-7.01908
 449	1	6	0.237688	26.6271	5.53143	-7.406
 450	1	7	-0.49758	17.0318	2.76992	2.37621
 451	1	1	0.304671	30.1878	10.0905	-5.84384
 452	1	1	-1.24578	29.8358	8.87187	-6.69411
 453	1	1	0.921237	28.5233	8.28166	-6.3126
 454	1	2	0.238751	30.639	8.10824	-6.59712
 455	1	2	0.241495	29.768	9.24034	-7.76131
 456	1	1	-0.299014	28.0645	7.07106	-7.15199
 457	1	2	-0.179791	27.7694	9.12161	-6.35173
 458	1	2	-0.17909	28.5336	7.93732	-5.28736
 459	1	2	0.080952	27.8271	7.375	-8.15974
 460	1	2	0.084393	28.919	6.44435	-7.22701
 461	1	9	-0.116242	30.6444	11.1631	-6.57652
 462	1	5	0.075247	30.7715	9.98813	-5.02558
 463	1	5	0.07317	29.2746	10.4727	-5.4283
 464	1	1	0.57552	30.9652	20.1694	-13.5754
 465	1	1	-1.07208	30.7075	21.2452	-12.5059
 466	1	2	0.119263	31.4467	21.2437	-11.6872
 467	1	2	0.211544	30.8151	22.2839	-12.7669
 468	1	1	0.745843	29.3249	21.1234	-11.8087
 469	1	2	-0.177131	29.173	22.0065	-11.164
 470	1	2	-0.142119	28.5079	21.1362	-12.5782
 471	1	1	0.080873	29.332	19.7353	-11.0171
 472	1	2	0.018859	29.6177	18.8124	-11.6736
 473	1	2	-0.02655	30.1304	19.8328	-10.2523
 474	1	1	-0.221824	27.9573	19.5977	-10.309
 475	1	2	0.031284	27.7999	20.4712	-9.67101
 476	1	2	0.013242	27.1732	19.5678	-11.0628
 477	1	1	0.073218	27.787	18.3346	-9.32606
 478	1	2	-0.024643	27.0123	18.5595	-8.60026
 479	1	2	-0.008342	27.5244	17.4213	-9.92115
 480	1	1	0.04656	29.0126	17.8916	-8.52581
 481	1	2	-0.007327	29.8542	17.8495	-9.26414
 482	1	2	0.003322	29.3154	18.5883	-7.76275
 483	1	1	-0.01926	28.96	16.5107	-7.79657
 484	1	2	0.003715	28.4764	16.5335	-6.85087
 485	1	2	0.000131	28.4154	15.8502	-8.41562
 486	1	1	-0.031072	30.3598	15.8359	-7.58449
 487	1	2	-0.002086	30.9614	15.8093	-8.59037
 488	1	2	-0.003252	31.0087	16.3678	-6.80477
 489	1	1	0.083103	30.1376	14.4211	-7.09799
 490	1	2	-0.003597	29.6219	14.6535	-6.09748
 491	1	2	-0.00033	29.4467	13.8752	-7.75938
 492	1	1	0.015717	31.3335	13.5208	-6.82931
 493	1	2	-0.004333	31.6107	13.1274	-7.84619
 494	1	2	-0.003064	32.2511	14.0192	-6.48451
 495	1	3	0.43523	30.9939	12.3228	-5.89335
 496	1	4	-0.39711	31.9797	20.6421	-14.5208
 497	1	5	-0.041868	29.9541	19.9342	-14.1041
 498	1	5	-0.011544	31.2294	19.2238	-13.1041
 499	1	6	0.237688	32.8401	20.9093	-14.0361
 500	1	7	-0.49758	30.8055	12.5288	-4.69794
 501	1	1	0.304671	33.9011	21.2319	-18.5402
 502	1	1	-1.24578	32.8829	20.9309	-17.3679
 503	1	1	0.921237	32.7927	22.1359	-16.4283
 504	1	2	0.238751	33.194	20.0016	-16.8919
 505	1	2	0.241495	31.9408	20.7496	-17.8693
 506	1	1	-0.299014	31.6279	21.7858	-15.4565
 507	1	2	-0.179791	32.4985	23.0404	-16.9594
 508	1	2	-0.17909	33.8075	22.2439	-15.9923
 509	1	2	0.080952	31.1989	22.6536	-14.8773
 510	1	2	0.084393	30.7522	21.3983	-16.0417
 511	1	9	-0.116242	33.479	22.4357	-19.1694
 512	1	5	0.075247	33.8053	20.3925	-19.2413
 513	1	5	0.07317	34.9435	21.379	-18.1949
 514	1	1	0.57552	26.8195	31.8606	-20.6874
 515	1	1	-1.07208	26.9206	30.4178	-20.1877
 516	1	2	0.119263	25.8993	30.1348	-19.8059
 517	1	2	0.211544	27.0711	29.8068	-21.0565
 518	1	1	0.745843	27.8668	30.2582	-19.0487
 519	1	2	-0.177131	28.8278	30.4425	-19.406
 520	1	2	-0.142119	27.6503	31.1101	-18.4182
 521	1	1	0.080873	27.9052	28.8178	-18.3164
 522	1	2	0.018859	26.9808	28.6135	-17.7778
 523	1	2	-0.02655	27.9334	28.1427	-19.1564
 524	1	1	-0.221824	29.0707	28.5323	-17.3183
 525	1	2	0.031284	28.895	29.2521	-16.5433
 526	1	2	0.013242	28.9414	27.5866	-16.8464
 527	1	1	0.073218	30.5216	28.6905	-17.9207
 528	1	2	-0.024643	30.6151	29.74	-18.2235
 529	1	2	-0.008342	31.2428	28.5455	-17.052
 530	1	1	0.04656	30.8215	27.7652	-19.1866
 531	1	2	-0.007327	30.2687	26.8357	-19.0808
 532	1	2	0.003322	30.3167	28.2572	-20.0489
 533	1	1	-0.01926	32.3142	27.6716	-19.5695
 534	1	2	0.003715	32.5371	28.6465	-20.0246
 535	1	2	0.000131	32.8821	27.4861	-18.6041
 536	1	1	-0.031072	32.4168	26.4695	-20.6069
 537	1	2	-0.002086	31.407	26.0746	-20.9094
 538	1	2	-0.003252	33.0122	26.8137	-21.4797
 539	1	1	0.083103	33.203	25.3445	-19.8841
 540	1	2	-0.003597	34.1491	25.7169	-19.4777
 541	1	2	-0.00033	32.595	24.932	-19.1496
 542	1	1	0.015717	33.7667	24.2485	-20.8257
 543	1	2	-0.004333	32.8849	23.9105	-21.2461
 544	1	2	-0.003064	34.3761	24.6843	-21.5917
 545	1	3	0.43523	34.3291	22.9946	-20.0803
 546	1	4	-0.39711	28.013	32.2823	-21.3527
 547	1	5	-0.041868	26.6025	32.5404	-19.8619
 548	1	5	-0.011544	25.9487	31.9244	-21.4372
 549	1	6	0.237688	28.7102	32.6664	-20.7073
 550	1	7	-0.49758	35.2994	22.3758	-20.5084
 551	1	1	0.57552	34.4142	28.1582	-30.2204
 552	1	1	-1.07208	34.4784	29.2787	-29.2414
 553	1	2	0.119263	35.2407	28.9973	-28.5819
 554	1	2	0.211544	34.6888	30.2792	-29.6299
 555	1	1	0.745843	33.2997	29.196	-28.3496
 556	1	2	-0.177131	33.4559	28.2695	-27.7669
 557	1	2	-0.142119	33.2369	30.1691	-27.7501
 558	1	1	0.080873	31.9773	29.3081	-29.0914
 559	1	2	0.018859	31.8061	30.2474	-29.6425
 560	1	2	-0.02655	31.7138	28.4955	-29.7769
 561	1	1	-0.221824	30.7195	29.281	-28.1025
 562	1	2	0.031284	30.2826	28.2869	-28.2327
 563	1	2	0.013242	31.0112	29.3926	-27.06
 564	1	1	0.073218	29.5748	30.3115	-28.415
 565	1	2	-0.024643	29.8288	31.3687	-28.3655
 566	1	2	-0.008342	29.1526	30.0301	-29.4191
 567	1	1	0.04656	28.3757	30.1486	-27.3702
 568	1	2	-0.007327	27.5516	30.8948	-27.5132
 569	1	2	0.003322	27.8678	29.2172	-27.4492
 570	1	1	-0.01926	28.7104	30.2881	-25.8798
 571	1	2	0.003715	27.8485	30.0995	-25.2404
 572	1	2	0.000131	29.394	29.4652	-25.5813
 573	1	1	-0.031072	29.3081	31.6643	-25.6253
 574	1	2	-0.002086	30.3761	31.6374	-25.9179
 575	1	2	-0.003252	29.0038	32.4459	-26.2916
 576	1	1	0.083103	29.1458	32.1374	-24.0705
 577	1	2	-0.003597	29.5157	31.2882	-23.4051
 578	1	2	-0.00033	29.8518	32.9673	-23.938
 579	1	1	0.015717	27.7232	32.6448	-23.7344
 580	1	2	-0.004333	27.4652	33.415	-24.4561
 581	1	2	-0.003064	26.9433	31.8075	-23.7236
 582	1	3	0.43523	27.7015	33.3043	-22.2711
 583	1	4	-0.39711	35.6943	28.0116	-30.957
 584	1	5	-0.041868	33.5504	28.4321	-30.845
 585	1	5	-0.011544	34.1866	27.2639	-29.5367
 586	1	6	0.237688	35.9353	29.0226	-31.2296
 587	1	7	-0.49758	28.2263	34.3192	-21.9986
 588	1	1	0.304671	39.1474	25.5773	-29.9162
 589	1	1	-1.24578	39.2811	27.0548	-30.1195
 590	1	1	0.921237	38.1985	27.4998	-31.047
 591	1	2	0.238751	40.2773	27.2459	-30.5088
 592	1	2	0.241495	39.2107	27.6753	-29.2165
 593	1	1	-0.299014	36.9121	27.4266	-30.3191
 594	1	2	-0.179791	38.2863	26.7438	-31.9267
 595	1	2	-0.17909	38.3034	28.4801	-31.4932
 596	1	2	0.080952	36.5891	26.4723	-29.8934
 597	1	2	0.084393	37.1646	28.1471	-29.536
 598	1	9	-0.116242	40.0644	25.1011	-28.9011
 599	1	5	0.075247	39.379	24.9752	-30.7804
 600	1	5	0.07317	38.1164	25.2808	-29.5145
 601	1	1	0.304671	43.0297	22.4278	-28.5334
 602	1	1	-1.24578	42.4432	23.5299	-27.5702
 603	1	1	0.921237	42.3659	24.9806	-28.1154
 604	1	2	0.238751	43.0981	23.4419	-26.6524
 605	1	2	0.241495	41.4956	23.1884	-27.2452
 606	1	1	-0.299014	41.4208	25.0045	-29.3056
 607	1	2	-0.179791	43.3229	25.2347	-28.3651
 608	1	2	-0.17909	42.0328	25.7516	-27.3201
 609	1	2	0.080952	41.7487	25.7356	-30.0628
 610	1	2	0.084393	41.4919	24.1128	-29.8838
 611	1	9	-0.116242	44.1046	21.7064	-27.8253
 612	1	5	0.075247	43.4638	23.0525	-29.3387
 613	1	5	0.07317	42.1973	21.8325	-28.8119
 614	1	1	0.57552	56.7467	21.0832	-27.4176
 615	1	1	-1.07208	55.52	22.0164	-27.519
 616	1	2	0.119263	55.695	22.9878	-27.0179
 617	1	2	0.211544	55.3612	22.1894	-28.6638
 618	1	1	0.745843	54.3446	21.3637	-26.871
 619	1	2	-0.177131	54.0159	20.5113	-27.4182
 620	1	2	-0.142119	54.6049	21.1188	-25.8261
 621	1	1	0.080873	53.0573	22.1913	-26.8405
 622	1	2	0.018859	53.4078	23.0621	-26.1668
 623	1	2	-0.02655	52.8395	22.6719	-27.8123
 624	1	1	-0.221824	51.8856	21.5839	-26.2237
 625	1	2	0.031284	52.2724	21.2255	-25.2701
 626	1	2	0.013242	51.1466	22.4284	-26.1878
 627	1	1	0.073218	51.2911	20.5288	-27.1487
 628	1	2	-0.024643	51.3414	20.7151	-28.1856
 629	1	2	-0.008342	51.8926	19.6273	-27.065
 630	1	1	0.04656	49.9638	19.9561	-26.8175
 631	1	2	-0.007327	50.088	19.3328	-25.9336
 632	1	2	0.003322	49.3159	20.7724	-26.6304
 633	1	1	-0.01926	49.0964	19.23	-27.9217
 634	1	2	0.003715	49.7199	18.4404	-28.3155
 635	1	2	0.000131	48.0932	18.8948	-27.5325
 636	1	1	-0.031072	48.6517	20.1749	-29.0665